/*--------------------------------*- C++ -*----------------------------------*\
  =========                 |
  \\      /  F ield         | OpenFOAM: The Open Source CFD Toolbox
   \\    /   O peration     | Website:  https://openfoam.org
    \\  /    A nd           | Version:  7
     \\/     M anipulation  |
\*---------------------------------------------------------------------------*/
FoamFile
{
    version     2.0;
    format      ascii;
    class       volScalarField;
    location    "10000";
    object      nut;
}
// * * * * * * * * * * * * * * * * * * * * * * * * * * * * * * * * * * * * * //

dimensions      [0 2 -1 0 0 0 0];

internalField   nonuniform List<scalar> 
33733
(
1.3577278e-58
4.3666551e-59
1.4167189e-58
2.9079667e-59
4.5927233e-59
1.2009352e-58
3.0543316e-59
3.9319918e-59
2.755796e-59
2.9021758e-59
2.9118373e-59
3.3085825e-59
5.745799e-59
4.9887253e-59
3.8873898e-59
3.6969573e-59
1.318188e-58
3.1562183e-59
2.9979696e-59
5.4733748e-59
1.0148942e-58
2.5875342e-59
2.6590432e-59
3.0745958e-59
2.2732245e-59
6.8291027e-59
1.8735411e-59
4.9465014e-59
7.220079e-59
3.1547571e-59
1.6752355e-59
1.9236959e-59
2.5908596e-59
2.4833867e-59
2.4512329e-59
3.043794e-59
2.8234139e-59
2.0659359e-59
2.2920356e-59
2.5688022e-59
1.8674498e-59
1.8468633e-59
6.6888852e-59
7.8649686e-59
3.2186983e-59
2.5767864e-59
2.6802831e-59
2.2538803e-59
4.8682085e-59
4.745773e-59
4.9291237e-59
3.5516901e-59
2.2363292e-59
2.2815898e-59
2.4716902e-59
2.6998889e-59
7.4760545e-59
9.212836e-59
1.8558304e-59
1.4617391e-59
2.2232861e-59
1.660507e-59
2.2423504e-59
2.1568077e-59
1.8202224e-59
4.934929e-59
4.2828678e-59
2.8323026e-59
2.0029216e-59
2.7240706e-59
3.1524598e-59
7.9925757e-59
8.053357e-59
6.9614762e-59
2.4360171e-59
2.0305367e-59
1.8760221e-59
2.4823055e-59
2.5178193e-59
2.1709215e-59
1.556329e-59
2.3481591e-59
5.0791916e-59
1.2397759e-59
1.5610002e-59
7.8860997e-60
1.2929096e-59
1.6530691e-59
1.0963802e-59
1.0624825e-59
7.5161617e-60
1.373919e-59
1.1788363e-59
1.2223252e-59
9.8132886e-60
1.4727665e-59
2.4227e-59
4.5435034e-59
4.783383e-59
4.5576776e-59
2.4251678e-59
3.070214e-59
2.949409e-59
2.536493e-59
2.8031557e-59
2.7724848e-59
3.001798e-59
2.3542948e-59
2.5189354e-59
2.4179035e-59
2.3201221e-59
2.1739149e-59
1.4390141e-59
2.4366322e-59
2.8024561e-59
1.3901331e-59
1.6558524e-59
2.9608514e-59
2.634034e-59
1.9631425e-59
1.7354383e-59
8.6309797e-59
6.21706e-59
2.4015939e-59
1.7546538e-59
2.4641701e-59
1.9470364e-59
8.4891204e-60
1.1361485e-59
9.1580826e-60
1.5033451e-59
1.0689021e-59
1.0639081e-59
6.8692385e-59
7.8606163e-59
1.9105891e-58
2.9681006e-59
2.8985211e-59
3.0056897e-59
2.6110988e-59
4.9220017e-59
7.4058654e-59
9.7313066e-59
2.416249e-59
2.4675938e-59
2.0326052e-59
2.2289983e-59
1.7880449e-59
2.3786852e-59
1.9983081e-59
1.7703e-59
1.8861387e-59
4.114196e-59
1.8090624e-59
5.3122598e-59
1.2867017e-59
7.1431743e-60
1.4901021e-59
1.3260517e-59
6.7094974e-60
1.1586406e-59
1.1101084e-59
5.3798542e-60
5.8870674e-60
1.2468712e-59
8.6294823e-60
8.540068e-60
8.514077e-60
1.0629426e-59
2.1438116e-59
1.1843064e-59
2.4205501e-59
1.0650591e-59
5.524923e-60
9.5662584e-60
9.1256816e-60
1.1197616e-59
1.7676194e-59
1.4855177e-59
1.0891165e-59
1.9045016e-59
1.5004293e-59
1.6503465e-59
1.75757e-59
5.4824678e-59
5.5374651e-59
5.7921769e-59
6.5486292e-59
3.4495322e-59
4.5450397e-59
2.6662365e-59
3.6344365e-59
1.7992886e-59
1.8557302e-59
2.1710851e-59
2.4963323e-59
2.7253181e-59
1.8537773e-59
1.9891712e-59
2.5491057e-59
5.2100015e-59
5.0926047e-59
6.2064106e-59
5.3100622e-59
5.8414143e-59
6.3903889e-59
5.272432e-59
4.6420336e-59
4.5168785e-59
4.7127088e-59
3.3996671e-59
3.2623748e-59
3.9667084e-59
1.558305e-59
1.5147617e-59
1.731891e-59
1.3390601e-59
1.1756535e-59
1.3671727e-59
1.5331568e-59
1.190038e-59
1.4730905e-59
1.2821388e-59
1.3141612e-59
1.3213019e-59
1.534168e-59
1.1231409e-59
1.327926e-59
1.4133833e-59
5.7341394e-59
1.2903847e-59
9.2335834e-60
5.4449918e-60
3.5658602e-60
5.219152e-60
4.8899509e-60
3.6936067e-60
4.4538514e-60
6.0979947e-60
3.8292428e-60
4.7626766e-60
6.6376862e-60
6.4969272e-60
3.6503239e-60
9.1283992e-60
1.1463187e-59
1.2223402e-59
7.3966516e-60
1.1536905e-59
1.2292524e-59
8.6018781e-60
1.049841e-59
2.3807987e-59
2.272223e-59
2.2485675e-59
2.3120253e-59
3.5109405e-59
3.5470881e-59
3.9030828e-59
4.0525912e-59
3.0883049e-59
3.3730505e-59
3.3227901e-59
3.5869887e-59
3.4403162e-59
3.2730902e-59
3.3327137e-59
2.4476829e-59
3.7385641e-59
3.4054763e-59
2.7341629e-59
2.4352925e-59
2.4382188e-59
1.3940051e-59
2.3950436e-59
2.4269192e-59
1.9898121e-59
1.4051909e-59
1.9762087e-59
1.4509727e-59
2.5308691e-59
2.2420602e-59
1.4662156e-59
6.4550095e-59
6.6401476e-59
2.3043017e-59
2.313738e-59
2.4095449e-59
2.5398485e-59
2.736624e-59
2.6203474e-59
2.9108456e-59
2.8975198e-59
2.1407543e-59
2.2325397e-59
2.3671954e-59
2.3331303e-59
2.3923874e-59
2.3727032e-59
2.7714036e-59
2.8153421e-59
2.4460286e-59
2.4481197e-59
2.3902017e-59
2.6888643e-59
2.6121982e-59
2.5691568e-59
2.6156079e-59
2.6086645e-59
2.6413417e-59
2.5024447e-59
2.1812453e-59
2.6345895e-59
2.5194401e-59
2.3333976e-59
2.3743957e-59
2.6070185e-59
2.6692202e-59
1.1015699e-59
8.1777167e-60
8.2313007e-60
1.1859179e-59
1.4301521e-59
1.5051866e-59
1.1616126e-59
1.1258058e-59
1.1128964e-59
1.1467449e-59
7.6500769e-60
7.3707982e-60
1.1734969e-59
6.6917038e-60
1.207221e-59
7.2414857e-60
1.0735037e-59
1.0112286e-59
1.0990716e-59
1.0400491e-59
1.3626653e-59
1.3502112e-59
1.1091096e-59
1.0549472e-59
1.2708069e-59
1.2718586e-59
7.9324255e-60
7.7207013e-60
8.9228323e-60
1.1563966e-59
1.3706889e-59
8.637576e-60
9.6976396e-60
8.6461228e-60
1.4945653e-59
1.2542166e-59
1.9513723e-59
1.5329585e-59
1.6866211e-59
1.3534285e-59
1.3998833e-59
1.268529e-59
1.0364272e-59
1.0573909e-59
9.0086603e-60
1.1180905e-59
1.5628819e-59
1.3420662e-59
1.4062434e-59
6.0797086e-60
4.8722937e-60
3.7549606e-60
4.2060764e-60
3.8466543e-60
5.3136936e-60
9.4647062e-60
1.0539919e-59
1.1727211e-59
1.0655241e-59
1.5059765e-58
9.1361701e-59
3.6424402e-59
1.1545959e-58
5.2282279e-59
7.1121444e-59
1.289747e-58
6.9649276e-59
4.9891315e-59
3.2650148e-59
3.2506095e-59
1.4906241e-59
4.079103e-59
1.3430963e-59
3.868019e-59
1.8542789e-59
1.9109142e-59
1.3508915e-58
4.242532e-59
1.5383964e-58
3.3014765e-59
3.5122996e-59
4.032916e-59
1.7694338e-59
1.9238856e-59
2.1788906e-59
1.9800838e-59
2.4476533e-59
2.6226052e-59
2.457114e-59
3.4584163e-59
2.0539213e-59
1.7278486e-59
2.2891451e-59
7.1361447e-60
9.3986542e-60
4.5316763e-59
6.5668651e-60
7.2639555e-60
1.8032599e-59
5.3917317e-59
1.2550247e-59
1.3819509e-59
9.7230272e-60
5.8055592e-60
5.4874504e-60
5.3882328e-60
5.1967883e-60
4.0012065e-60
2.9370083e-60
3.0248183e-60
4.1228123e-60
6.8171775e-60
9.3495725e-60
6.0925977e-60
3.84693e-60
9.1808136e-60
7.5427316e-60
6.1520425e-60
6.4515339e-60
5.4381136e-60
8.3973632e-60
4.761463e-60
4.0611651e-60
1.251583e-59
8.6519494e-60
2.5634201e-59
1.9560684e-59
1.8690407e-59
1.3586938e-59
6.2965684e-60
6.692027e-60
1.6819284e-59
1.5174993e-59
2.8975006e-59
2.5357063e-59
1.7749889e-59
1.9147105e-59
5.5868896e-60
3.742117e-60
3.1147876e-60
1.9141639e-60
3.7431831e-60
3.2032652e-60
2.8703891e-60
3.8091203e-60
3.3624302e-60
4.6362811e-60
5.0787622e-60
5.4821381e-60
7.9724547e-60
1.1147255e-59
9.6004855e-60
7.4153729e-60
1.007097e-59
1.0981976e-59
1.1503319e-59
1.4345223e-59
1.3222206e-59
1.2936035e-59
9.9195235e-60
9.8963337e-60
1.2451392e-59
1.4582396e-59
1.4128114e-59
1.5337571e-59
1.488877e-59
1.4310797e-59
1.7637263e-59
1.6558316e-59
3.868458e-59
3.9405503e-59
4.8521682e-59
5.896955e-59
2.5811723e-59
2.9166541e-59
4.9403273e-59
4.9943039e-59
3.7764876e-59
4.9076267e-59
2.6144691e-59
3.3079106e-59
4.2867412e-59
4.5145723e-59
3.1090251e-59
3.2439536e-59
1.7755529e-59
3.6458938e-59
1.8556811e-59
3.4424692e-59
4.648079e-59
2.9740337e-59
2.3520007e-59
3.6435755e-59
1.2437079e-59
1.2585545e-59
2.8012487e-59
2.6629798e-59
3.6206941e-59
3.6384632e-59
2.477613e-59
2.4694808e-59
1.0176889e-59
1.7161698e-59
1.6108736e-59
1.26472e-59
1.0564989e-59
1.9362787e-59
7.4683467e-60
2.0716245e-60
1.269108e-59
2.0129797e-59
2.0187854e-59
1.0952608e-59
1.9925446e-59
1.8832464e-59
9.934303e-60
1.2268651e-59
1.7479253e-59
1.5884245e-59
1.9704804e-59
1.756936e-59
1.4795465e-59
1.6672787e-59
1.8461626e-59
2.2732068e-59
1.2290847e-59
1.1210405e-59
1.0193017e-59
1.0735461e-59
9.3277042e-60
1.0256659e-59
1.057693e-59
1.1777789e-59
1.2023669e-59
1.0931163e-59
1.0382632e-59
1.0979448e-59
1.6853209e-59
2.0073421e-59
1.6325777e-59
1.4925091e-59
1.5164793e-59
1.682759e-59
1.3166995e-59
1.2802323e-59
9.8423758e-60
1.138849e-59
1.0740668e-59
9.3890496e-60
9.1621257e-60
8.5972619e-60
9.28144e-60
9.7286426e-60
8.7953784e-60
8.0876592e-60
8.1380878e-60
8.7432783e-60
7.6021147e-60
7.286907e-60
2.0927499e-59
2.4540632e-59
5.0414768e-60
6.7402368e-60
1.6591731e-59
7.9219905e-60
7.5514347e-60
7.5205204e-60
8.5871124e-60
8.5536887e-60
2.8521958e-59
3.0595963e-59
3.3393432e-59
3.4469735e-59
7.0578344e-60
7.0918436e-60
1.601022e-59
3.1619618e-59
2.9168657e-59
2.4231755e-59
2.6613189e-59
6.0553257e-59
8.6368656e-60
8.080176e-60
4.4989832e-60
3.0360121e-60
2.7071146e-60
2.2725257e-60
2.6193666e-60
6.5614475e-60
5.9439786e-60
1.3001221e-59
1.1953669e-59
1.4278429e-59
1.3896773e-59
1.9298991e-59
1.8962539e-59
3.6294806e-59
2.7636007e-59
2.5438094e-59
2.0762488e-59
2.3275142e-59
2.475938e-59
2.5914499e-59
2.3601614e-59
2.5609253e-59
2.251501e-59
2.352377e-59
2.7051218e-59
2.8571943e-59
2.610114e-59
2.5986835e-59
2.9002392e-59
2.6765874e-59
2.5595473e-59
2.7392692e-59
2.9883222e-59
2.8380182e-59
2.3744321e-59
2.5382774e-59
2.7860322e-59
2.6761324e-59
3.1171274e-59
2.9448532e-59
3.3045218e-59
3.088657e-59
3.2904353e-59
3.1631026e-59
3.6435481e-59
3.3614738e-59
1.9983566e-59
2.1498766e-59
2.2433469e-59
2.3751568e-59
2.3442795e-59
2.4937734e-59
2.5966381e-59
2.7573737e-59
2.5894231e-59
2.4727916e-59
2.8734729e-59
2.6662342e-59
3.0742807e-59
2.8457454e-59
3.2887395e-59
3.0102646e-59
2.2620796e-59
2.4326786e-59
2.4832538e-59
2.6722468e-59
2.5762504e-59
2.1060563e-59
2.2103573e-59
2.2241524e-59
2.4337297e-59
2.407236e-59
2.7831733e-59
2.6395967e-59
2.9237645e-59
2.5797962e-59
2.5776127e-59
2.5053754e-59
2.6056861e-59
3.0539492e-59
2.8385218e-59
2.8458904e-59
2.2745579e-59
2.3695073e-59
2.51144e-59
2.585134e-59
2.5748172e-59
3.3341539e-59
3.3294834e-59
3.3338973e-59
2.5124949e-59
2.6101704e-59
3.0044932e-59
2.4865589e-59
2.6108842e-59
2.2174159e-59
2.3490784e-59
1.1682064e-59
1.1652859e-59
1.3636277e-59
1.0967619e-59
7.6237743e-60
1.2007921e-59
1.1488622e-59
7.4446652e-60
7.8134029e-60
7.2336767e-60
1.2216478e-59
1.3124681e-59
7.4222138e-60
7.7881243e-60
1.0312604e-59
1.075734e-59
1.1082193e-59
1.0284177e-59
1.0871936e-59
1.0941933e-59
7.8839992e-60
7.681594e-60
1.0755143e-59
1.2178701e-59
1.1604209e-59
1.1529342e-59
1.1006684e-59
1.0319073e-59
1.1217567e-59
7.2180195e-60
1.3123432e-59
7.3088469e-60
1.228877e-59
1.1728702e-59
8.2887129e-60
7.3085976e-60
1.1129237e-59
1.2511496e-59
1.2540932e-59
1.1304569e-59
1.3337834e-59
1.3861483e-59
1.5074286e-59
1.700289e-59
1.6393543e-59
1.4203978e-59
1.6330164e-59
1.8569277e-59
1.636587e-59
1.4424995e-59
1.5139007e-59
1.575898e-59
1.4777249e-59
1.4242071e-59
1.6719191e-59
1.7313937e-59
1.6163335e-59
1.4805977e-59
1.2180656e-59
1.3813225e-59
1.3108391e-59
1.082647e-59
1.4045646e-59
1.6322861e-59
1.4335946e-59
1.2179909e-59
1.5022926e-59
1.6427161e-59
1.3895428e-59
1.2843703e-59
1.3785712e-59
1.4845293e-59
1.2756081e-59
1.2068325e-59
1.1687633e-59
1.2070289e-59
1.2151419e-59
1.1651845e-59
1.2354405e-59
1.2764853e-59
1.2790825e-59
1.2284544e-59
1.4359536e-59
1.2604589e-59
1.2177421e-59
1.362571e-59
1.2986288e-59
1.3525549e-59
1.196807e-59
1.1442319e-59
1.3338829e-59
1.2714178e-59
1.2364296e-59
1.2294986e-59
1.1104425e-59
1.1602595e-59
1.1804499e-59
1.1087923e-59
1.2110361e-59
1.3581723e-59
1.2328585e-59
1.070227e-59
1.2061281e-59
1.3686505e-59
1.4078793e-59
1.2124733e-59
1.5558252e-59
1.8559013e-59
1.7961615e-59
1.5979041e-59
7.6997039e-59
7.9875109e-59
1.8335088e-59
1.8834171e-59
1.6094232e-59
1.5707898e-59
4.7167349e-59
1.7426288e-59
1.7562143e-59
1.655908e-59
1.6121977e-59
1.6731089e-59
1.6852422e-59
1.7934076e-59
1.6053065e-59
1.6589428e-59
1.8826042e-59
1.7369219e-59
1.5343234e-59
1.7914288e-59
1.8198774e-59
1.5750278e-59
1.5932269e-59
1.8159477e-59
1.6945329e-59
1.5892309e-59
1.6139325e-59
1.7657232e-59
1.7341177e-59
1.6222009e-59
1.5646279e-59
1.5077304e-59
1.3632777e-59
1.3168418e-59
1.330394e-59
1.2700943e-59
1.34387e-59
1.3116881e-59
1.2757106e-59
1.4665507e-59
1.5754101e-59
1.2786575e-59
1.2914351e-59
1.3727252e-59
1.270671e-59
1.3320915e-59
1.4710484e-59
1.4272174e-59
1.2880768e-59
1.4088583e-59
1.2898416e-59
1.3551035e-59
1.2515529e-59
1.3574782e-59
1.2712941e-59
1.4140617e-59
1.2748297e-59
1.2939853e-59
1.4282015e-59
1.4152353e-59
1.2835338e-59
1.3432393e-59
1.4848247e-59
6.6209446e-60
4.0741558e-60
2.772204e-60
2.6854532e-60
4.4978313e-60
2.7233743e-60
2.736693e-60
3.8957208e-60
4.2344437e-60
6.9002407e-60
8.3751517e-60
9.7657051e-60
9.5817547e-60
9.6444012e-60
8.9030429e-60
9.1598089e-60
1.0677748e-59
1.0102445e-59
9.8431529e-60
1.0457984e-59
9.9863933e-60
9.485106e-60
9.378401e-60
8.7106345e-60
9.1624709e-60
9.0324411e-60
5.7883778e-60
5.7155384e-60
7.0314651e-60
5.9022921e-60
6.0450088e-60
8.7186169e-60
6.7211682e-60
7.7804036e-60
5.4849989e-60
4.8496536e-60
5.7696289e-60
5.2280278e-60
5.355245e-60
5.0076537e-60
5.0661643e-60
5.0836546e-60
7.8976588e-60
6.246545e-60
6.3684754e-60
6.925579e-60
4.8749638e-60
4.6392657e-60
4.3796234e-60
4.4039718e-60
9.4735182e-60
6.9900752e-60
7.0795123e-60
5.3791405e-60
5.0558679e-60
4.867025e-60
5.0811582e-60
4.9485056e-60
1.0221551e-59
1.151385e-59
9.9086273e-60
9.2603831e-60
9.9100874e-60
9.1692279e-60
8.0276993e-60
9.0828571e-60
1.0979939e-59
1.2438813e-59
1.0850576e-59
9.8544356e-60
1.03986e-59
9.1439777e-60
8.5164336e-60
9.5466917e-60
7.987977e-60
9.1748423e-60
8.9601089e-60
8.8039558e-60
8.2803863e-60
8.4413811e-60
9.3333538e-60
8.9890251e-60
8.7840919e-60
8.427537e-60
8.6407556e-60
8.384394e-60
8.9925461e-60
9.2738669e-60
8.7582078e-60
8.5582761e-60
2.9847061e-60
6.9489564e-60
7.801667e-60
6.7823758e-60
6.4690944e-60
2.8637165e-60
7.2233966e-60
7.2173642e-60
7.0308026e-60
6.3400621e-60
4.645591e-60
5.2393362e-60
5.1573047e-60
4.8787467e-60
5.2290373e-60
5.0583718e-60
4.9073988e-60
5.0102364e-60
3.9015983e-60
4.2587881e-60
3.1788583e-60
4.7023348e-60
5.7361314e-60
5.879812e-60
5.7867554e-60
3.088997e-60
6.4547227e-60
6.5449713e-60
5.9147429e-60
5.8606554e-60
4.707853e-60
4.650749e-60
4.8717888e-60
5.1009982e-60
6.8401776e-60
5.6865504e-60
6.483373e-60
7.8939637e-60
4.0264814e-60
4.6545947e-60
1.1140222e-59
9.7031906e-60
1.0298518e-59
1.2205105e-59
7.8442503e-60
7.6614059e-60
8.6740765e-60
8.7781076e-60
1.2624288e-59
1.1109095e-59
1.0297799e-59
1.1368565e-59
9.1843748e-60
9.2544224e-60
8.7612367e-60
8.531532e-60
1.2560085e-59
2.8713769e-60
2.8737065e-60
1.2534118e-58
8.3379364e-59
3.7904422e-59
9.8779177e-59
2.4575227e-59
4.1428959e-59
2.9298569e-59
5.589548e-59
3.4234762e-59
3.7045619e-59
1.0433928e-58
4.7085132e-59
4.3581317e-59
6.6448803e-59
5.4950922e-59
9.2194515e-59
1.4204337e-58
1.5279105e-58
1.2968551e-59
1.0092578e-59
2.0555414e-59
2.0075902e-59
4.6881131e-59
1.9592095e-59
1.7440677e-59
1.1928285e-59
1.1844828e-59
3.951155e-59
3.0600757e-59
2.4634307e-59
2.6213591e-59
3.0755581e-59
1.4501346e-59
1.3761771e-59
1.4466421e-59
1.5033822e-59
6.3386761e-59
5.7377407e-59
2.9585056e-59
4.5500536e-59
2.4278524e-59
2.2835858e-59
2.605537e-59
1.867542e-58
5.3939949e-59
5.039787e-59
4.4380838e-59
2.1283416e-59
2.4511061e-59
2.0523719e-59
1.9074704e-59
2.243692e-59
2.5755663e-59
2.4784929e-59
2.2613208e-59
2.8418057e-59
2.6359692e-59
2.3037792e-59
2.3849646e-59
9.0186797e-60
8.3953421e-60
1.0315132e-59
7.5193529e-60
1.0152391e-59
8.9918628e-60
1.0326365e-59
8.8125098e-60
3.7680666e-59
4.2278543e-59
2.135054e-59
6.1822518e-60
1.4772538e-59
6.9648772e-60
6.9669369e-60
1.0305264e-59
9.7174511e-60
2.2586931e-59
6.9527759e-60
7.0981696e-60
6.5899943e-60
8.2990063e-60
8.3941905e-60
7.7046833e-60
9.1763516e-60
3.3680291e-59
7.7197556e-60
8.5344147e-60
1.6727896e-59
1.6087639e-59
3.701167e-59
5.8756481e-59
1.4914759e-59
1.5337498e-59
7.8151266e-60
7.5954241e-60
7.7628385e-60
5.7134383e-60
3.9926223e-60
6.0088871e-60
2.402254e-60
2.305718e-60
2.2904348e-60
2.5973126e-60
1.6431752e-60
1.4354246e-60
1.7052817e-60
1.7351802e-60
5.9188209e-60
9.1282649e-60
1.1205642e-59
8.7941129e-60
4.3470645e-60
7.5221453e-60
5.0998547e-60
9.4427772e-60
2.873442e-60
2.5138674e-60
4.8543148e-60
4.3224103e-60
7.630733e-60
7.7225652e-60
4.4383424e-60
1.0363816e-59
5.1649161e-60
5.3083643e-60
1.0247538e-59
6.6481074e-60
4.1280017e-60
7.9678541e-60
4.6785286e-60
9.4504682e-60
1.5328094e-59
1.2315308e-59
7.7216986e-60
8.161189e-60
8.0516696e-60
6.5327367e-60
9.0178524e-60
1.2055715e-59
7.2485283e-60
7.3948387e-60
1.3586885e-59
4.3783848e-60
6.1367883e-60
6.9100321e-60
3.8374549e-60
4.251941e-60
7.4204382e-60
7.2017923e-60
5.2875597e-60
6.4231321e-60
6.7302099e-60
7.6432333e-60
6.8480755e-60
1.0144097e-59
8.9349949e-60
1.2108101e-59
1.455118e-59
1.1250622e-59
6.5473434e-60
1.1636366e-59
7.3867226e-60
9.2265014e-60
1.4814043e-59
1.299159e-59
8.3003401e-60
9.3079249e-60
1.4415193e-59
1.1860111e-59
7.7005358e-60
7.2659404e-60
7.5511473e-60
1.2181194e-59
6.950401e-60
1.2371022e-59
7.8559574e-60
6.983722e-60
1.1549081e-59
2.0325359e-60
1.3877229e-60
2.0407751e-60
2.4180598e-60
1.5713287e-60
3.6760426e-60
4.353369e-60
3.4600368e-60
2.8278045e-60
4.6000838e-60
3.4787606e-60
3.1493098e-60
4.1557609e-60
8.2895874e-61
1.3319876e-60
1.0753677e-60
3.2037795e-60
2.8863465e-60
1.7990446e-60
2.7409738e-60
2.3596744e-60
1.2662378e-60
1.3753679e-60
2.6363804e-60
2.9065448e-60
3.2473494e-60
1.6635179e-60
4.1342584e-60
3.9367758e-60
7.3915048e-60
5.1106791e-60
3.9597537e-60
5.7839787e-60
7.0015223e-60
9.004644e-60
8.5662571e-60
6.2317894e-60
5.7973548e-60
5.4767198e-60
6.5402193e-60
6.3609913e-60
5.2620338e-60
4.0684834e-60
3.1545288e-60
3.9484751e-60
1.2896102e-59
2.2444554e-59
1.3776567e-59
2.2079257e-59
1.3011173e-59
1.2237819e-59
1.2918834e-59
1.9576531e-59
1.7353113e-59
1.2845936e-59
1.2063067e-59
1.3781356e-59
1.6920633e-59
1.372148e-59
1.1370585e-59
1.5864324e-59
1.487045e-59
8.4628345e-60
9.7315839e-60
1.3788133e-59
1.4192133e-59
1.0599472e-59
1.5073221e-59
1.7094452e-59
1.9128182e-59
1.7473903e-59
1.6754748e-59
1.7280838e-59
1.3833782e-59
1.7508181e-59
2.0468182e-59
1.4149476e-59
1.1080281e-59
9.4554651e-60
1.0810577e-59
1.1612142e-59
1.6501832e-59
1.0648114e-59
1.3919282e-59
1.0451044e-59
1.3629246e-59
1.1850163e-59
1.2929532e-59
1.6745218e-59
1.4072801e-59
1.255953e-59
1.4853638e-59
1.4177328e-59
1.7668391e-59
1.2050895e-59
1.0223979e-59
1.6136939e-59
1.9032073e-59
1.3021436e-59
1.1433329e-59
7.4726591e-60
7.5769094e-60
8.9520856e-60
8.6123274e-60
8.6339882e-60
9.5808422e-60
9.1750068e-60
8.3454215e-60
7.1814108e-60
6.379086e-60
1.8436415e-59
2.1717261e-59
2.3306703e-59
7.5356827e-60
2.0556926e-59
6.7601585e-60
8.1901586e-60
9.8357593e-60
9.2462973e-60
7.8598549e-60
9.2523768e-60
1.0029875e-59
9.2525571e-60
8.6882621e-60
6.4998748e-60
7.8946662e-60
1.9092432e-59
1.7286336e-59
7.7406e-60
8.8034388e-60
1.2959823e-59
1.8011776e-59
1.1726893e-59
1.177223e-59
1.2269343e-59
1.1569177e-59
1.6753884e-59
1.8112482e-59
1.5615247e-59
1.3759248e-59
1.3405493e-59
1.2179969e-59
1.1685235e-59
1.085373e-59
1.4642613e-59
1.9186568e-59
1.156321e-59
1.5244846e-59
1.004165e-59
1.293324e-59
1.06493e-59
8.9829173e-60
1.6576727e-59
8.237972e-60
7.0195165e-60
1.4687543e-59
1.7870021e-59
7.918445e-60
6.4440908e-60
1.0003067e-59
9.1510464e-60
1.0545288e-59
7.5651558e-60
8.5979665e-60
8.7727864e-60
7.4345612e-60
3.3748193e-60
8.9572813e-60
8.8358278e-60
9.9392483e-60
1.1502606e-59
8.4658532e-60
1.5387606e-59
1.0629512e-59
8.6018227e-60
1.3253108e-59
1.5099013e-59
1.3046538e-59
1.2252849e-59
1.2422131e-59
1.1031472e-59
1.331456e-59
9.9984653e-60
8.3307806e-60
9.5777705e-60
1.445264e-59
1.2497208e-59
9.0245336e-60
7.0010577e-60
8.6311625e-60
1.3166303e-59
1.2432095e-59
7.9639839e-60
7.7040391e-60
7.9452844e-60
1.2247434e-59
1.3080856e-59
1.4097728e-59
1.362518e-59
6.4837266e-60
6.9572852e-60
1.5735568e-59
8.854795e-60
1.5325847e-59
1.539611e-59
1.5846096e-59
1.7176298e-59
1.1268342e-59
1.2369659e-59
2.4844262e-59
2.1815887e-59
1.9135337e-59
1.7978892e-59
2.3006294e-59
1.859378e-59
1.7799532e-59
1.4864773e-59
1.0861126e-59
1.2056125e-59
1.0277524e-59
1.217988e-59
1.114521e-59
1.4233589e-59
1.1858227e-59
1.0656873e-59
9.7195106e-60
1.0400382e-59
1.8644164e-59
2.0053438e-59
1.8813628e-59
1.6071156e-59
1.5687247e-59
1.9399197e-59
1.6761815e-59
1.3257713e-59
9.6381784e-60
1.0687278e-59
1.0105723e-59
9.3693807e-60
1.1001459e-59
1.0345028e-59
1.2249721e-59
1.303709e-59
1.0038394e-59
1.200339e-59
1.1360879e-59
1.4524322e-59
1.5027773e-59
1.3010513e-59
1.284473e-59
1.4803261e-59
7.8820601e-60
8.7086087e-60
5.5650727e-60
1.1976644e-59
1.3084258e-59
1.0916298e-59
1.5107325e-59
1.1809939e-59
3.5593846e-59
6.3482215e-60
1.2550495e-59
3.61742e-59
6.6068966e-60
7.7629986e-60
3.6633466e-59
6.3794916e-60
7.4217875e-60
3.7294492e-59
6.4461821e-60
7.5151796e-60
7.4229347e-60
8.0338095e-60
8.4596442e-60
7.9084023e-60
1.2609868e-59
1.2451867e-59
4.3807465e-60
3.3714842e-59
8.0471952e-60
7.0201421e-60
3.4053081e-59
8.0423304e-60
6.9431874e-60
2.9207394e-59
1.6303606e-59
6.5109261e-60
3.150455e-59
7.9229715e-60
6.6330086e-60
5.1856387e-60
6.2529275e-60
6.4132989e-60
5.5204148e-60
3.2729716e-60
2.9074854e-60
4.4880677e-60
2.6260374e-60
5.687057e-60
1.1083683e-59
5.6260889e-60
7.2917112e-60
1.7562878e-59
6.6367031e-60
6.9928399e-60
4.1050393e-60
8.5353842e-60
1.9476777e-59
1.5718051e-60
7.6730321e-60
2.0766077e-59
2.1553008e-59
5.6052882e-60
9.9834484e-60
2.5816401e-59
6.0584207e-60
7.3953954e-60
2.5754626e-59
5.9005703e-60
7.2990784e-60
3.1511624e-59
3.4033482e-59
2.3743481e-59
2.5551103e-59
2.8514728e-59
2.6671634e-59
1.9820627e-59
1.9777403e-59
1.7869087e-59
1.8730543e-59
1.7883498e-59
1.6688258e-59
1.4874787e-59
1.6483969e-59
1.4444049e-59
1.5961525e-59
1.7657324e-59
1.5504794e-59
2.0631071e-59
1.9147969e-59
1.7201487e-59
1.8114116e-59
1.2562359e-59
1.4987846e-59
1.5656593e-59
1.3205882e-59
1.4305501e-59
1.4107418e-59
1.4754597e-59
1.4710724e-59
1.4116118e-59
1.5196725e-59
1.4390193e-59
1.4963154e-59
1.4623252e-59
1.5559841e-59
1.6829924e-59
1.4864785e-59
1.4911249e-59
1.5654933e-59
1.4855974e-59
1.5903228e-59
1.4757865e-59
1.3529529e-59
1.3722365e-59
1.4984664e-59
1.4340677e-59
1.5506488e-59
1.6234021e-59
1.4510134e-59
1.5500205e-59
1.6020905e-59
1.8560121e-59
1.6432917e-59
1.828445e-59
2.0875037e-59
2.0588574e-59
1.8107652e-59
1.7939896e-59
1.8826436e-59
1.9207863e-59
1.8086382e-59
2.0810742e-59
1.9349757e-59
1.8220471e-59
1.9893818e-59
1.8669182e-59
2.0577039e-59
2.2446662e-59
2.009787e-59
9.6542651e-59
9.5864323e-59
6.5720286e-59
6.5990576e-59
7.6046689e-59
7.6901222e-59
1.0584086e-58
1.0555211e-58
5.5737007e-59
5.5053882e-59
8.8553453e-59
9.0201156e-59
6.1998576e-59
6.3462416e-59
6.8956831e-59
6.9281823e-59
9.7682294e-59
9.8243184e-59
5.4920078e-59
5.1863902e-59
5.7321118e-59
5.8418583e-59
4.6078154e-59
4.5275608e-59
4.5530202e-59
3.4331744e-59
3.4854377e-59
4.6168104e-59
4.7766686e-59
5.9332101e-59
4.6725861e-59
6.0067237e-59
4.7195647e-59
3.5735376e-59
4.8062066e-59
3.610657e-59
6.0089757e-59
6.0794092e-59
4.7693922e-59
4.8149088e-59
4.8135367e-59
3.6217792e-59
3.6334039e-59
4.7988866e-59
6.2081013e-59
6.2737733e-59
5.0328683e-59
4.9886664e-59
5.0376292e-59
5.0531098e-59
3.8449625e-59
3.8661325e-59
7.4140232e-59
7.6965449e-59
5.0388458e-59
5.2710319e-59
6.1924114e-59
6.2189153e-59
8.8198917e-59
8.8741162e-59
4.5685624e-59
4.8842345e-59
9.1807806e-59
9.1778754e-59
6.3745043e-59
6.432428e-59
6.9556808e-59
6.9484793e-59
9.8011757e-59
9.8133948e-59
5.0472923e-59
5.3517529e-59
3.8385604e-59
4.7053596e-59
3.6893381e-59
4.8748525e-59
3.6999114e-59
3.8505774e-59
2.7990995e-59
2.878203e-59
4.1543423e-59
5.1926176e-59
4.0563678e-59
5.2628145e-59
3.066018e-59
4.0831854e-59
4.1723229e-59
3.1111776e-59
4.4832281e-59
5.5647062e-59
4.407895e-59
5.6257924e-59
3.2899508e-59
4.3902427e-59
4.4089956e-59
3.2954848e-59
4.6606861e-59
5.8360731e-59
4.6098058e-59
5.8404819e-59
3.5131155e-59
4.6487465e-59
4.6685891e-59
3.5071133e-59
8.5728036e-59
8.6596657e-59
6.0169173e-59
6.0934103e-59
6.5087426e-59
6.5518094e-59
9.0686022e-59
9.2493722e-59
1.7761077e-59
1.961329e-59
2.1310606e-59
1.816841e-59
5.2436199e-59
5.2075016e-59
8.0586995e-59
8.2745449e-59
5.6016696e-59
5.8038597e-59
6.2395618e-59
6.2151323e-59
8.8591204e-59
8.8829915e-59
1.5741275e-59
1.8392784e-59
1.84437e-59
1.6015616e-59
5.0746103e-59
4.9013173e-59
4.2326863e-59
5.2593252e-59
4.1189009e-59
5.3812953e-59
4.1162069e-59
3.092505e-59
3.1565297e-59
4.1889178e-59
4.2785322e-59
5.3868333e-59
4.1978841e-59
5.4161739e-59
1.6877797e-59
1.8287245e-59
1.8143545e-59
1.6705057e-59
1.9459588e-59
1.9475308e-59
1.7666479e-59
1.861647e-59
9.441581e-59
9.3050754e-59
6.5706611e-59
6.5419725e-59
6.9980283e-59
7.0674882e-59
9.796782e-59
9.8930272e-59
1.9899962e-59
2.2009847e-59
2.2932972e-59
1.9567421e-59
5.7604474e-59
5.767369e-59
8.4913003e-59
8.6106689e-59
5.9378813e-59
6.0299903e-59
6.4660061e-59
6.4190248e-59
9.0833908e-59
9.1070063e-59
1.7063006e-59
1.9912385e-59
1.978405e-59
1.7150348e-59
5.2266021e-59
5.0812001e-59
1.8625792e-59
1.988629e-59
1.9837963e-59
1.8353342e-59
2.150806e-59
2.2663172e-59
1.9922051e-59
2.0070329e-59
1.526653e-59
1.9786635e-59
1.8260304e-59
1.5121134e-59
1.6750479e-59
1.4664872e-59
1.4895069e-59
1.4971961e-59
1.635736e-59
1.6363473e-59
1.6640893e-59
1.6361712e-59
1.6826634e-59
1.8764927e-59
1.8429639e-59
1.6317146e-59
1.3511262e-59
1.5909866e-59
1.5501474e-59
1.3294951e-59
1.4757721e-59
1.4370244e-59
1.4216345e-59
1.4274697e-59
1.3906169e-59
1.5115192e-59
1.4109688e-59
1.449515e-59
1.4237018e-59
1.5049921e-59
1.6046402e-59
1.4383033e-59
1.0622989e-59
1.3132615e-59
1.2136445e-59
1.0419609e-59
1.3524294e-59
1.0712519e-59
1.0860743e-59
1.1544467e-59
9.5050984e-60
1.0421138e-59
1.0555708e-59
1.0996026e-59
1.0519264e-59
9.7947069e-60
1.0478207e-59
1.0263885e-59
2.6543398e-60
4.0154593e-60
4.2218668e-60
2.7769969e-60
8.4291721e-60
7.8885476e-60
6.9175291e-60
7.7139284e-60
8.8669343e-60
5.451435e-60
7.2957809e-60
7.3209592e-60
5.1023382e-60
5.1990315e-60
5.468844e-60
5.3073435e-60
5.8664127e-60
5.3101659e-60
5.5736455e-60
5.7178994e-60
5.1110959e-60
5.2582893e-60
5.0473591e-60
4.9693001e-60
2.740012e-60
7.4626223e-60
9.1360347e-60
1.0604443e-59
7.3913391e-60
2.70873e-60
8.010864e-60
7.495253e-60
8.4756069e-60
8.4480139e-60
5.3927218e-60
4.7677702e-60
5.5358005e-60
5.663382e-60
3.9046091e-60
4.1248636e-60
6.0602481e-60
6.1391435e-60
1.0797116e-59
1.1618978e-59
1.1139234e-59
1.0185353e-59
9.5338071e-60
8.1279779e-60
8.708163e-60
9.9543973e-60
9.7184203e-60
9.6696564e-60
1.03054e-59
1.0805807e-59
1.0947832e-59
1.1000696e-59
1.1460366e-59
1.1143275e-59
2.7207998e-60
2.793363e-60
3.7546472e-60
3.9168893e-60
2.7211475e-60
2.6597964e-60
3.8255688e-60
4.1823336e-60
6.8410829e-60
6.2030831e-60
1.0520637e-59
1.2662994e-59
1.0243346e-59
9.870671e-60
1.2927641e-59
1.012801e-59
1.1277624e-59
1.0240877e-59
9.0717057e-60
1.0049939e-59
1.2515698e-59
9.8287646e-60
1.028918e-59
1.0200738e-59
1.0953065e-59
9.5559964e-60
7.1161432e-60
7.9883921e-60
9.595723e-60
6.9692662e-60
5.2096508e-60
5.1146401e-60
5.4462217e-60
4.9150223e-60
8.8464004e-60
7.6947095e-60
7.3490304e-60
7.8801906e-60
5.0444956e-60
5.3449175e-60
4.9564355e-60
4.9577184e-60
9.5042501e-60
8.9669534e-60
7.816331e-60
8.0881751e-60
7.01903e-60
8.4504125e-60
8.2879556e-60
5.7651647e-60
5.5744416e-60
5.9734704e-60
6.6476633e-60
6.3785336e-60
5.079684e-60
5.3281985e-60
5.2463895e-60
5.2888886e-60
9.9201786e-60
1.0816286e-59
1.1577777e-59
1.0094491e-59
1.1169644e-59
1.24648e-59
1.2732667e-59
1.1645181e-59
1.3277281e-59
1.2953878e-59
1.223799e-59
1.1917472e-59
1.1816683e-59
1.1356485e-59
1.0820174e-59
1.0769511e-59
1.2102388e-59
1.221517e-59
5.0936962e-59
5.065849e-59
4.9238598e-59
4.9761865e-59
5.4376055e-59
5.3705478e-59
4.917884e-59
5.0035375e-59
4.243152e-59
4.371683e-59
4.3662165e-59
4.3204883e-59
4.5284281e-59
4.6126329e-59
4.6356687e-59
4.4569793e-59
3.716967e-59
3.768764e-59
7.453622e-60
8.5277834e-60
9.8954069e-60
8.8123608e-60
4.7277997e-59
4.8035585e-59
4.0985833e-59
4.1640972e-59
9.032614e-60
1.0401824e-59
1.2188247e-59
1.094369e-59
1.0580472e-59
1.107926e-59
1.2918879e-59
1.2704863e-59
4.2775217e-59
4.3440601e-59
3.5838727e-59
3.6746832e-59
3.6068969e-59
3.3834242e-59
2.7624554e-59
2.8469037e-59
2.971148e-59
2.9150033e-59
2.8715063e-59
3.0055013e-59
3.1435804e-59
3.0492785e-59
3.8660611e-59
3.8066244e-59
3.7218052e-59
3.6856897e-59
3.5362836e-59
3.6768116e-59
3.6100075e-59
3.544065e-59
2.7203212e-59
2.6900259e-59
2.3926637e-59
2.6710623e-59
2.7902446e-59
2.5425845e-59
3.4789068e-59
3.4812778e-59
3.0066662e-59
3.0467793e-59
3.021546e-59
3.1481918e-59
5.0223886e-59
5.3794847e-59
5.262788e-59
5.3478653e-59
5.9784986e-59
6.240717e-59
5.1824875e-59
5.2139862e-59
5.1238038e-59
5.1869645e-59
1.2004224e-59
1.3872452e-59
1.2216128e-59
1.0426134e-59
1.2602087e-59
1.0566336e-59
4.5683786e-59
4.6390314e-59
4.5696417e-59
4.5763389e-59
4.6523926e-59
4.4906334e-59
4.8360887e-59
4.7298064e-59
5.5273961e-59
5.4545737e-59
5.1690867e-59
5.2649856e-59
5.3412706e-59
5.3826264e-59
5.3533882e-59
5.4465034e-59
4.8987351e-59
4.6329386e-59
4.6562464e-59
4.8059353e-59
4.7171556e-59
4.7072303e-59
4.7241045e-59
4.6555986e-59
3.5597917e-59
3.2535158e-59
3.1055252e-59
3.2763233e-59
3.0986497e-59
3.1690975e-59
3.2911806e-59
3.1865753e-59
3.9296973e-59
4.3005232e-59
3.7928923e-59
3.8860631e-59
3.7272877e-59
3.7345611e-59
3.975858e-59
3.9390757e-59
3.2293187e-59
3.1823527e-59
3.3996946e-59
3.1551515e-59
3.1024123e-59
3.146157e-59
3.313355e-59
3.1562843e-59
3.913554e-59
3.904347e-59
3.8894551e-59
3.865973e-59
3.883131e-59
3.8593116e-59
4.0146679e-59
3.9935799e-59
5.9116174e-60
3.742847e-60
5.2844682e-60
2.1169873e-60
2.4898451e-60
2.1470583e-60
2.5018438e-60
2.3910616e-60
2.0991181e-60
2.2729327e-60
2.3812072e-60
1.9339993e-60