/*--------------------------------*- C++ -*----------------------------------*\
  =========                 |
  \\      /  F ield         | OpenFOAM: The Open Source CFD Toolbox
   \\    /   O peration     | Website:  https://openfoam.org
    \\  /    A nd           | Version:  7
     \\/     M anipulation  |
\*---------------------------------------------------------------------------*/
FoamFile
{
    version     2.0;
    format      ascii;
    class       volVectorField;
    location    "10000";
    object      U;
}
// * * * * * * * * * * * * * * * * * * * * * * * * * * * * * * * * * * * * * //

dimensions      [0 1 -1 0 0 0 0];

internalField   nonuniform List<vector> 
33733
(
(-1.4648652e+58 7.2055823e+56 -3.4828178e+56)
(-1.1029213e+58 -6.8010898e+56 -6.1052112e+56)
(-1.4405026e+58 7.9224268e+56 -2.8589193e+56)
(-1.084573e+58 1.1744164e+57 -1.3434647e+56)
(-1.116906e+58 1.2668715e+57 5.6129909e+56)
(-1.4814566e+58 -2.5401218e+55 -3.1591769e+56)
(-9.8534869e+57 6.2666083e+55 -5.0283074e+56)
(-9.9198218e+57 -3.8860004e+56 -1.0560649e+57)
(-1.1575055e+58 8.2909267e+56 1.0013009e+57)
(-1.0724538e+58 6.1911556e+55 -4.4556795e+56)
(-1.1447836e+58 9.4046815e+56 -1.8401814e+56)
(-9.9857392e+57 -8.2669951e+56 2.7117519e+56)
(-1.0177537e+58 1.7000349e+56 -6.1309932e+56)
(-1.0592678e+58 3.560902e+56 -4.8692096e+56)
(-1.0025913e+58 -1.0117667e+57 -5.9167778e+55)
(-1.0309536e+58 -4.9149022e+56 -5.5392636e+56)
(-1.4938386e+58 -1.1076142e+56 -2.0138608e+56)
(-9.8029983e+57 1.5188861e+53 -1.0879958e+56)
(-1.0873086e+58 1.0533652e+57 -6.618733e+56)
(-1.0268528e+58 -9.7214333e+56 -3.837751e+56)
(-1.0085876e+58 -7.9243936e+56 -3.293827e+56)
(-1.0221329e+58 2.1129661e+56 -2.7111252e+56)
(-1.0386377e+58 3.5167346e+56 -7.2961144e+55)
(-9.7474418e+57 -7.5583534e+56 -5.6380163e+56)
(-9.8637248e+57 -5.5351285e+56 -8.819547e+56)
(-7.9516873e+57 -1.1004715e+57 -4.4174986e+56)
(-1.1491817e+58 1.5457492e+57 -1.8963228e+56)
(-1.1045321e+58 1.4264685e+57 8.8291397e+56)
(-7.3188273e+57 -4.1403721e+56 -1.1947992e+57)
(-8.7014639e+57 5.4080885e+55 -3.509601e+56)
(-9.9535207e+57 4.7370364e+56 -1.9272753e+56)
(-8.544443e+57 -2.2668703e+56 -5.3403938e+56)
(-1.0244276e+58 4.8770744e+56 1.1741903e+56)
(-1.1695934e+58 2.3620989e+56 1.1355457e+57)
(-1.2075053e+58 7.9584024e+56 1.3962859e+57)
(-1.1014132e+58 7.4061496e+55 -1.431712e+56)
(-1.067748e+58 4.9400151e+56 -3.3604802e+56)
(-1.0076604e+58 2.5323239e+56 7.5737933e+54)
(-9.6313466e+57 -5.5538426e+55 -9.6105642e+56)
(-8.7615184e+57 8.8439471e+55 -2.254267e+56)
(-1.2058574e+58 4.8519104e+56 1.1383272e+57)
(-9.9403014e+57 3.5522205e+56 2.6404583e+56)
(-8.1973087e+57 3.1454669e+56 -1.9009044e+57)
(-1.0961061e+58 4.8142084e+56 -1.4522369e+56)
(-1.0035379e+58 -5.9566352e+55 -6.4658365e+56)
(-9.7702069e+57 -1.0308266e+57 2.3008476e+56)
(-9.4365474e+57 -1.247483e+57 8.7066658e+55)
(-1.0267106e+58 -1.0257712e+56 -2.7267798e+56)
(-9.7826222e+57 -4.0556013e+56 2.5419856e+56)
(-9.7502056e+57 -7.1280789e+55 -8.088134e+56)
(-1.0196629e+58 -3.7040924e+56 8.8487666e+55)
(-1.0142249e+58 6.6833345e+55 -7.5753424e+56)
(-9.2272114e+57 -8.7077488e+56 7.5113193e+55)
(-1.1422228e+58 1.308775e+57 -2.1917625e+56)
(-9.9432749e+57 4.7958851e+55 -3.3067774e+56)
(-8.5685764e+57 -8.8986378e+56 -1.3294926e+56)
(-8.0275718e+57 -1.2970487e+57 2.6060551e+56)
(-7.936911e+57 -1.3121424e+57 -2.0917346e+56)
(-1.1408996e+58 1.5638805e+57 -2.8604407e+56)
(-1.0614011e+58 2.0451406e+56 -2.4809717e+56)
(-9.0173664e+57 -4.8986818e+56 -5.2302748e+56)
(-1.0147108e+58 3.0145795e+56 -5.43285e+56)
(-8.7245049e+57 -2.4353822e+56 -1.6715281e+56)
(-1.019257e+58 -1.1872728e+57 -4.1931231e+56)
(-1.0595139e+58 -1.5223303e+56 -1.8083143e+56)
(-1.0235935e+58 -5.6904158e+55 -6.0357727e+56)
(-9.9006926e+57 -1.1181675e+57 -4.2256583e+56)
(-9.6641192e+57 -3.260889e+56 -9.7175422e+55)
(-9.5348719e+57 -1.0335068e+57 3.8142291e+56)
(-9.1072344e+57 -9.0422671e+56 -1.291529e+56)
(-9.3847779e+57 -1.1710394e+56 -2.6291084e+56)
(-8.8570032e+57 -5.5529717e+56 -3.0385405e+56)
(-9.1846332e+57 1.7017726e+56 -6.36831e+55)
(-8.855467e+57 -3.3870623e+56 -9.8345889e+55)
(-9.1599068e+57 -4.5597171e+56 -3.0241851e+56)
(-9.6612606e+57 -5.7044156e+56 -7.7665741e+56)
(-9.4552315e+57 1.0422791e+56 -1.3621116e+56)
(-9.7501165e+57 -3.3273526e+55 -2.8843936e+56)
(-9.5114604e+57 -6.5456458e+55 -2.9474228e+56)
(-9.1622039e+57 -7.9495096e+56 -5.4801996e+56)
(-9.6634004e+57 -6.5980888e+56 -8.8449901e+56)
(-9.9296021e+57 -4.9288747e+55 -3.2550203e+56)
(-1.486995e+58 -1.4557528e+57 -1.6377387e+57)
(-9.5820794e+57 -4.6802428e+55 -7.3568602e+56)
(-7.0430931e+57 -2.5457343e+56 -3.9564005e+56)
(-9.6777164e+57 1.3667717e+57 -8.3719634e+55)
(-9.3295251e+57 9.4655488e+56 5.4894509e+56)
(-6.521173e+57 -7.9769509e+55 -6.6534629e+56)
(-8.4669356e+57 -1.8078501e+56 -3.8314894e+56)
(-8.8323776e+57 -2.7577472e+56 -4.858045e+56)
(-9.4728965e+57 6.8816112e+55 -2.793316e+56)
(-1.0027029e+58 2.132396e+56 -1.0551279e+56)
(-9.1082994e+57 -8.8603109e+56 -5.9595379e+56)
(-9.5530151e+57 -2.9455417e+56 -4.2848647e+56)
(-9.6432026e+57 -6.2018576e+56 -8.4421807e+56)
(-9.9506247e+57 -1.5897655e+56 -4.3694956e+56)
(-1.2576755e+58 7.3113663e+56 1.3067079e+57)
(-1.0097474e+58 1.5901981e+56 -1.2960752e+57)
(-1.0399911e+58 1.6234965e+55 -9.045559e+56)
(-1.028708e+58 -3.5218624e+55 -9.5670712e+56)
(-1.233402e+58 5.3684779e+55 1.2212334e+57)
(-1.1306566e+58 8.7236896e+55 -3.509071e+56)
(-1.1145715e+58 4.5796694e+56 -3.9501302e+56)
(-1.0392046e+58 1.7775223e+56 -7.5449493e+54)
(-1.00239e+58 -1.0032179e+56 -2.395603e+56)
(-9.7837458e+57 -1.7974673e+56 -1.0875824e+57)
(-9.4878032e+57 5.8895898e+55 -1.2918815e+57)
(-1.0549708e+58 2.2298232e+56 -3.6721961e+54)
(-1.014781e+58 -1.6464156e+56 -1.8900811e+56)
(-9.8698815e+57 -7.8217743e+55 -1.1155566e+57)
(-9.6382625e+57 3.0212037e+55 -1.1816993e+57)
(-1.3021026e+58 5.3172624e+56 1.2600576e+57)
(-1.0450906e+58 2.7081394e+56 6.5585723e+56)
(-8.8974121e+57 -1.9524723e+55 -7.2950384e+55)
(-9.1716682e+57 -6.7354232e+55 -1.2390939e+56)
(-1.0555865e+58 -2.6765776e+56 6.4830204e+56)
(-1.0318617e+58 1.5633428e+56 5.7751443e+56)
(-8.8743066e+57 -6.266764e+55 -1.6218946e+56)
(-8.4874186e+57 2.3824357e+56 -2.8994872e+56)
(-1.2379137e+58 2.3649855e+56 1.2402856e+57)
(-9.8824478e+57 -7.7891392e+55 2.6736385e+56)
(-8.6878142e+57 7.9958011e+56 -2.4804347e+57)
(-8.559452e+57 3.6286209e+56 -2.2633204e+57)
(-9.0736096e+57 -2.0409071e+56 -6.1089687e+56)
(-9.3222656e+57 -4.402683e+55 -7.7009413e+55)
(-9.3843528e+57 -1.1153453e+56 -2.4185452e+56)
(-9.1019741e+57 -3.439759e+56 -9.7548315e+56)
(-9.6003751e+57 2.2100952e+56 -8.9018617e+55)
(-8.5272648e+57 -1.3911096e+55 -4.7189826e+56)
(-9.8054288e+57 4.4274524e+56 1.0412567e+57)
(-7.3181584e+57 2.1462979e+56 -8.9589289e+56)
(-9.2779084e+57 -2.0953667e+56 -1.0048576e+57)
(-9.5270422e+57 -9.4651574e+55 -4.6349425e+56)
(-1.1120383e+58 2.3543513e+56 -4.166342e+56)
(-1.1366987e+58 2.6051455e+56 -2.0687512e+56)
(-1.1094803e+58 3.4140024e+56 -4.6820245e+56)
(-9.5450952e+57 -2.3868481e+56 -6.7579711e+56)
(-9.3179458e+57 -5.3226457e+56 3.2233693e+56)
(-9.6296378e+57 -5.0821124e+56 2.3624756e+56)
(-9.9599426e+57 -5.7775154e+56 2.7468737e+56)
(-9.7769653e+57 -2.4879978e+56 5.0179235e+56)
(-9.7835258e+57 -4.4934868e+56 -6.5017871e+56)
(-1.0213915e+58 -3.4981159e+56 3.0303696e+56)
(-9.0117242e+57 -7.9277668e+56 4.5548145e+56)
(-9.0817081e+57 -4.9166882e+56 -1.6496245e+56)
(-9.2334611e+57 -2.7243608e+56 -7.1261595e+56)
(-8.4037803e+57 -6.8544953e+56 1.0895073e+56)
(-9.3594915e+57 9.3892579e+55 -1.0208659e+57)
(-6.8201863e+57 -6.4380013e+56 -3.5970378e+56)
(-7.2591037e+57 -8.1866262e+56 -5.5639601e+56)
(-9.9726637e+57 4.1643716e+56 -5.0465081e+56)
(-9.1686106e+57 -5.6948588e+56 1.791929e+56)
(-8.786552e+57 -3.0439612e+56 -4.2172601e+56)
(-9.2891034e+57 -9.4998905e+55 8.5179641e+56)
(-1.4355696e+58 -1.7566319e+57 -1.5785318e+55)
(-9.1459877e+57 -3.0419023e+56 -3.0783155e+56)
(-9.7689877e+57 9.5234083e+56 -4.2155355e+56)
(-6.7729678e+57 -5.4862378e+56 1.327193e+56)
(-6.7213589e+57 -4.8568169e+56 1.5486331e+55)
(-9.6645886e+57 1.2415242e+57 -1.5577918e+56)
(-1.0076738e+58 -7.1858645e+56 -6.2540055e+55)
(-9.5981789e+57 -1.3433329e+57 2.8045709e+56)
(-9.3166477e+57 -1.1895312e+57 3.9196054e+55)
(-9.9618811e+57 -5.3467299e+56 -2.0931802e+56)
(-9.9335499e+57 -4.9042604e+56 -5.2869651e+56)
(-8.8654703e+57 -9.8555656e+56 -1.8789991e+56)
(-9.5387946e+57 -4.5420314e+56 -9.2317307e+55)
(-8.3424877e+57 -1.1138938e+57 -6.6001216e+55)
(-9.1533181e+57 -1.4409741e+57 -5.414695e+56)
(-9.0678336e+57 -1.2539643e+57 -5.709431e+56)
(-9.8657201e+57 -6.4447722e+56 -4.6942795e+56)
(-9.6611064e+57 -4.517542e+56 -6.6792864e+56)
(-8.6859849e+57 -6.7945422e+56 -5.5687221e+56)
(-9.9378699e+57 -1.4613747e+56 -3.8936823e+56)
(-8.5185144e+57 -6.0116279e+56 -3.2728596e+56)
(-9.6579266e+57 -1.0142952e+56 -6.5102809e+56)
(-9.6388566e+57 -1.3187402e+57 4.8564291e+56)
(-9.8700513e+57 -7.326908e+56 4.1831717e+55)
(-9.7612405e+57 -6.7213598e+56 -1.9924397e+56)
(-9.2830195e+57 -1.4615756e+57 2.767308e+55)
(-9.6569249e+57 -7.5105661e+56 1.3882925e+55)
(-9.5576289e+57 -1.313034e+57 4.8003786e+56)
(-9.2156472e+57 -1.2875348e+57 -6.5231459e+55)
(-9.5066864e+57 -5.6344645e+56 -2.4517718e+56)
(-9.2737566e+57 -1.7255545e+56 -2.5632515e+56)
(-8.9625043e+57 -1.0991728e+57 -5.1085541e+56)
(-9.1632401e+57 2.3817245e+55 -3.1207272e+56)
(-8.9140287e+57 -7.3711388e+56 -3.1739675e+56)
(-9.5607031e+57 -5.7612186e+56 -3.9949159e+56)
(-9.3682042e+57 -2.7744337e+56 -5.4105528e+56)
(-9.1826778e+57 -1.4541009e+57 -5.867459e+56)
(-9.0816077e+57 -1.0416899e+57 -5.2316891e+56)
(-8.2089682e+57 -1.0093678e+57 2.6293062e+56)
(-8.3837009e+57 -6.1835458e+56 5.052606e+55)
(-7.8165849e+57 -2.1544415e+56 -1.0485642e+56)
(-7.537936e+57 -7.8782434e+56 -1.4871138e+55)
(-7.4176901e+57 -4.6594043e+56 -2.0110146e+55)
(-8.2860059e+57 -4.8848539e+56 1.3037932e+55)
(-8.1632364e+57 -7.8327946e+56 2.0222037e+56)
(-7.6880391e+57 -1.3772118e+56 -6.3295047e+55)
(-7.065677e+57 -5.1763078e+56 -2.0912347e+56)
(-7.4318295e+57 -1.6720954e+55 1.0386918e+54)
(-7.289591e+57 -1.8001164e+56 -9.8570985e+55)
(-7.5802057e+57 1.073885e+56 -9.5119116e+55)
(-7.3169839e+57 -1.1334794e+56 4.988712e+55)
(-7.0508542e+57 -2.862207e+56 -7.476754e+55)
(-7.3969501e+57 3.3168583e+55 4.0596498e+55)
(-7.5280427e+57 1.0165465e+56 -1.0660067e+55)
(-7.3790158e+57 -5.4527628e+55 1.5414025e+56)
(-7.3932751e+57 -7.0997632e+55 1.0009812e+56)
(-7.3244474e+57 -1.8616637e+56 1.4523792e+56)
(-7.4911435e+57 9.7499343e+55 1.233114e+56)
(-7.6571511e+57 1.9952104e+56 1.9443844e+56)
(-7.9818377e+57 -4.61844e+56 -2.5735587e+56)
(-8.2496708e+57 -8.3752269e+55 -1.131005e+56)
(-8.7030552e+57 -1.4097965e+56 -2.1789078e+56)
(-8.5014516e+57 -4.3665943e+56 -4.7153587e+56)
(-8.5406863e+57 -1.9885299e+56 -2.4137974e+56)
(-8.0585164e+57 -1.5935827e+56 -1.1523543e+56)
(-7.8935012e+57 -4.1104265e+56 -1.5376707e+56)
(-8.4814486e+57 -3.2171325e+56 -3.5181267e+56)
(-8.1001018e+57 -5.2150579e+56 -3.4816462e+56)
(-8.3449468e+57 -1.556974e+56 -2.3521921e+56)
(-8.5555296e+57 -5.1747318e+56 -5.8101686e+56)
(-8.7155682e+57 -2.2413348e+56 -3.2002306e+56)
(-8.2639578e+57 -6.1458119e+56 -4.8587856e+56)
(-8.6741548e+57 -6.0873846e+56 -6.9186782e+56)
(-8.8463917e+57 -2.9891349e+56 -4.1956669e+56)
(-8.5184583e+57 -1.515481e+56 -2.7288693e+56)
(-1.4269646e+58 -4.1012648e+56 -2.0318008e+57)
(-9.6165509e+57 -1.7376503e+55 -1.051164e+57)
(-8.3355833e+57 2.4217131e+56 -3.6445296e+56)
(-7.1805022e+57 -1.1934144e+56 -3.3008443e+56)
(-9.1678248e+57 9.8939628e+56 -6.4212389e+55)
(-6.8353739e+57 -9.687724e+55 -4.1808762e+56)
(-9.2317033e+57 6.4415177e+56 3.8741815e+56)
(-7.8932295e+57 -3.9879369e+56 -8.2034091e+56)
(-8.7365835e+57 -8.8945125e+55 -6.4391997e+56)
(-9.3341026e+57 6.1378937e+55 -1.1748163e+56)
(-8.4914118e+57 -3.2613696e+56 -4.6575647e+56)
(-8.437053e+57 -7.4195363e+56 -8.3543994e+56)
(-8.9594632e+57 -3.8079374e+56 -6.4938852e+56)
(-9.3512615e+57 -3.5456701e+56 -4.8819833e+56)
(-9.0703223e+57 -5.9273563e+56 -6.8501626e+56)
(-8.5870699e+57 -7.420511e+56 -7.1883093e+56)
(-8.9340611e+57 -3.6701656e+56 -5.751004e+56)
(-9.2316445e+57 -3.901895e+56 -5.2210024e+56)
(-9.0018891e+57 -7.1101839e+56 -7.6998333e+56)
(-8.7256846e+57 -3.8499608e+56 -5.175893e+56)
(-8.4860219e+57 -7.2154843e+56 -6.4435097e+56)
(-8.8773324e+57 -6.5576139e+56 -7.3786497e+56)
(-9.0037029e+57 -4.3112396e+56 -5.540032e+56)
(-1.0680825e+58 2.7165018e+56 2.8478407e+55)
(-1.0066219e+58 -1.9876681e+55 -1.0852265e+57)
(-9.7542441e+57 7.7817753e+55 -1.3141963e+57)
(-1.0310922e+58 -1.5649759e+56 -2.2709042e+56)
(-9.0081833e+57 1.6498544e+56 -9.410027e+56)
(-9.1070779e+57 -6.7832014e+55 -8.3862237e+56)
(-9.3714403e+57 1.247907e+56 -1.1129068e+56)
(-9.2287663e+57 2.897046e+55 -2.6523929e+56)
(-9.2621035e+57 -1.7698492e+55 -7.439501e+56)
(-9.2184746e+57 9.9998719e+55 -8.331606e+56)
(-9.51604e+57 1.5830003e+56 -8.8473607e+55)
(-9.4848463e+57 -2.2340671e+55 -1.304231e+56)
(-9.1722982e+57 1.0371456e+56 -7.2509689e+56)
(-9.2189012e+57 -5.5831902e+54 -6.6276651e+56)
(-9.5032524e+57 1.665415e+56 -7.8970914e+55)
(-1.0637763e+58 2.0233824e+56 -5.6313616e+54)
(-9.0752851e+57 1.020238e+56 -7.1483779e+56)
(-9.1401151e+57 -6.0465038e+55 -6.9091898e+56)
(-1.0273016e+58 -1.1964236e+56 -2.0687011e+56)
(-9.7126003e+57 5.5666528e+55 -1.2875684e+57)
(-9.9327649e+57 -1.2862377e+56 -1.1155749e+57)
(-1.095996e+58 3.5130467e+56 7.4833101e+56)
(-9.2539401e+57 -1.254825e+55 -2.1923324e+56)
(-9.2158531e+57 1.6237031e+55 -2.6419786e+56)
(-1.3452208e+58 5.2220994e+56 1.1418287e+57)
(-1.0772546e+58 -2.5737354e+56 5.8700388e+56)
(-1.3167236e+58 1.2214247e+56 1.1775681e+57)
(-1.0869412e+58 2.2311963e+56 7.1622708e+56)
(-9.2575464e+57 -6.6561194e+55 -1.9234826e+56)
(-9.0391878e+57 8.910598e+55 -2.3569917e+56)
(-1.0650514e+58 -2.9533958e+56 6.0751941e+56)
(-8.7696718e+57 2.6873014e+56 -2.6256644e+57)
(-8.8256488e+57 7.2509089e+56 -2.6824606e+57)
(-9.3267635e+57 -2.533489e+56 -2.8443421e+56)
(-9.3396004e+57 -1.0291601e+56 -2.0525622e+56)
(-9.1237319e+57 -1.5287182e+56 -8.7434153e+56)
(-9.0685662e+57 -2.8935814e+56 -8.2009344e+56)
(-9.209408e+57 -2.3746708e+56 -2.5668931e+56)
(-9.2603205e+57 -1.2440225e+56 -1.878122e+56)
(-9.013679e+57 -3.495658e+56 -8.4480074e+56)
(-9.0830388e+57 -1.9605237e+56 -8.622504e+56)
(-9.1695678e+57 -2.4663706e+56 -1.005061e+57)
(-9.1140957e+57 -3.7259943e+56 -9.776483e+56)
(-9.5307716e+57 -1.640754e+56 -1.5290591e+56)
(-9.5133445e+57 -3.2869438e+56 -2.1595601e+56)
(-9.1252614e+57 -2.3392452e+56 -1.0788656e+57)
(-9.0626622e+57 -4.2744465e+56 -1.0382293e+57)
(-9.4306778e+57 -1.9524133e+56 -2.715325e+56)
(-9.3594351e+57 -2.9301751e+56 -3.5505388e+56)
(-9.4349946e+57 -1.6665281e+56 -2.6996468e+56)
(-9.4676183e+57 -4.2747846e+54 -2.101218e+56)
(-8.014005e+57 -3.2952801e+55 -5.9798893e+56)
(-9.2000767e+57 -1.8962708e+56 -8.4778593e+56)
(-9.210531e+57 -4.2808395e+55 -8.9290281e+56)
(-9.3492166e+57 -5.6950134e+55 -2.1761528e+56)
(-9.2686341e+57 -1.6374123e+56 -2.6554411e+56)
(-9.0537382e+57 -7.7091356e+55 -8.231951e+56)
(-9.0787093e+57 -2.6573449e+56 -8.0292937e+56)
(-9.2125143e+57 -2.9089048e+56 -1.0387361e+57)
(-9.2176923e+57 -1.0913021e+56 -1.0549076e+57)
(-9.6733398e+57 -5.47863e+55 -1.5828399e+56)
(-9.6049335e+57 -2.1801367e+56 -2.5380258e+56)
(-8.9816971e+57 -1.4747538e+56 -1.001614e+57)
(-9.0204362e+57 -3.371704e+56 -9.8302975e+56)
(-9.4892776e+57 -1.0250936e+56 -6.8943715e+55)
(-9.3996342e+57 -2.6650066e+56 -1.0611655e+56)
(-7.7631983e+57 3.7907013e+56 -1.5456108e+57)
(-1.0810419e+58 2.2951169e+56 1.3284809e+57)
(-1.0729248e+58 -7.4287495e+55 1.2441307e+57)
(-7.5808415e+57 1.5730113e+54 -1.5435835e+57)
(-9.1009095e+57 -7.5799615e+55 -1.1483445e+57)
(-9.1366006e+57 -3.8585416e+56 -1.1465004e+57)
(-9.7895459e+57 -1.5020932e+56 -3.0604276e+56)
(-9.7804363e+57 -2.6929641e+56 -3.5739787e+56)
(-8.4615357e+57 -1.9696088e+56 -4.5663932e+56)
(-8.5160606e+57 -1.3131126e+56 -4.3094981e+56)
(-9.9150059e+57 -6.5368623e+55 1.8147348e+56)
(-9.8738813e+57 -2.4344482e+56 1.9200081e+56)
(-8.7936325e+57 -3.1812413e+56 -3.1494242e+56)
(-1.0131887e+58 -7.4966281e+55 4.1760389e+56)
(-8.7127899e+57 -2.0187416e+56 -4.1821267e+56)
(-1.0028855e+58 -4.7940806e+56 3.2394732e+56)
(-9.5729913e+57 -1.4719804e+56 -3.3725015e+56)
(-9.0816019e+57 -3.2042156e+56 -9.9714157e+56)
(-9.4818242e+57 -3.244849e+56 -3.9728657e+56)
(-9.0930336e+57 -2.6013378e+56 -9.919111e+56)
(-9.1420357e+57 -3.0089741e+56 -1.0800819e+57)
(-9.1744408e+57 -5.2059269e+56 -1.0462104e+57)
(-9.7055006e+57 -4.2055324e+56 -3.4315543e+56)
(-9.759113e+57 -2.5592494e+56 -2.7089798e+56)
(-8.704834e+57 -2.8352504e+56 -4.7958511e+56)
(-8.742676e+57 -3.9308993e+56 -4.655392e+56)
(-9.9974928e+57 -2.5889762e+56 2.1176023e+56)
(-9.888534e+57 -4.679665e+56 1.6245052e+56)
(-1.0406278e+58 3.8428955e+56 1.2339522e+57)
(-8.4040173e+57 2.4071111e+55 -5.8916317e+56)
(-8.6371182e+57 -3.3843067e+56 -4.2317781e+56)
(-9.8421733e+57 -1.7330982e+56 1.5553597e+56)
(-9.6277297e+57 -1.922612e+56 -9.1874224e+55)
(-9.7809082e+57 4.5052648e+56 1.2213596e+57)
(-7.0309692e+57 6.7356263e+56 -1.1958885e+57)
(-7.2364735e+57 8.5128882e+56 -1.3465818e+57)
(-9.134417e+57 -1.8212905e+56 -1.1998449e+57)
(-9.0923177e+57 -4.5150064e+56 -1.0898944e+57)
(-9.4888968e+57 -2.7250355e+56 -5.7330022e+56)
(-9.5889016e+57 -2.3832885e+56 -4.2856358e+56)
(-9.8553274e+57 6.9978214e+56 -1.2304131e+57)
(-8.1695585e+57 -3.0396988e+56 -4.0371982e+56)
(-8.3895931e+57 -2.0401719e+56 -1.1596811e+56)
(-8.1339044e+57 -3.2265692e+56 -3.9585812e+56)
(-8.2436038e+57 -2.9681226e+56 -1.9163107e+56)
(-8.4309761e+57 -2.4243003e+56 -2.0458171e+56)
(-8.1916722e+57 -3.3422141e+56 -4.8453111e+56)
(-8.5277843e+57 -3.5446211e+56 -3.9514388e+56)
(-8.3263551e+57 -4.782071e+56 -7.4628634e+56)
(-9.1293889e+57 -3.1871837e+56 -4.3098421e+56)
(-8.5791536e+57 -4.8518656e+56 -8.3714066e+56)
(-9.2063648e+57 3.9081356e+56 7.3840466e+56)
(-8.7845744e+57 -1.5396329e+56 -2.506856e+56)
(-7.9404321e+57 -2.8877656e+56 -6.2481439e+56)
(-7.3676008e+57 9.8405598e+55 -4.5109384e+56)
(-8.7123702e+57 -4.8641145e+56 -7.7641116e+56)
(-8.9860817e+57 -3.72908e+56 -5.0058126e+56)
(-8.5543135e+57 -5.2232503e+56 -8.2260729e+56)
(-8.7304819e+57 -4.1435451e+56 -5.2883782e+56)
(-8.8289459e+57 6.5901263e+56 8.0315307e+56)
(-1.1052733e+58 -9.2465289e+55 -5.6421831e+56)
(-1.2057472e+58 1.4436527e+56 -1.3395694e+56)
(-8.9300572e+57 7.4417473e+56 3.3882834e+56)
(-1.1114855e+58 2.6905647e+56 -6.8633037e+56)
(-1.1293069e+58 2.3696762e+56 -5.4054976e+56)
(-1.1084934e+58 3.5310685e+56 -7.6353378e+56)
(-1.0045193e+58 -8.5017547e+55 -7.8855256e+56)
(-9.7608303e+57 -4.2061103e+56 5.5368552e+56)
(-9.3633216e+57 -5.7740212e+56 -4.1806108e+56)
(-9.0614436e+57 -3.440533e+56 6.2965096e+56)
(-9.3409774e+57 -9.0920444e+56 1.5246583e+56)
(-9.648169e+57 -5.7166076e+56 3.6401773e+56)
(-9.097453e+57 -1.1491279e+57 7.7286822e+56)
(-9.9861587e+57 -5.0173532e+56 5.1225213e+56)
(-9.1278533e+57 -9.8513219e+56 5.8404114e+56)
(-9.2486725e+57 -7.9459258e+56 5.077359e+55)
(-1.0538575e+58 5.4290913e+54 -4.1275803e+55)
(-9.003643e+57 -5.3338187e+56 8.4849496e+56)
(-1.0299659e+58 -1.6991686e+56 3.9021165e+56)
(-9.0284596e+57 -6.1140218e+56 8.3561018e+56)
(-8.9943991e+57 -5.7513429e+56 1.9018777e+56)
(-9.1834803e+57 -2.6596759e+56 8.0586425e+55)
(-7.7300952e+57 -5.2256456e+56 3.3189785e+54)
(-7.6323958e+57 -7.6971218e+56 3.0070443e+56)
(-7.5372906e+57 -4.2559253e+56 2.4138128e+56)
(-7.6056822e+57 -3.5397327e+56 -3.1206752e+55)
(-8.8062883e+57 -5.9349996e+56 -5.5612521e+56)
(-7.7653852e+57 -4.2099162e+56 3.2354855e+56)
(-8.8741953e+57 -3.764915e+56 -1.1916181e+57)
(-7.324371e+57 -3.4467603e+56 -2.4383526e+56)
(-8.2314809e+57 -1.5844929e+55 -6.6867366e+56)
(-9.8574722e+57 -2.0488691e+56 -7.6923906e+56)
(-9.2689747e+57 -5.4607761e+56 1.9797301e+56)
(-9.2791934e+57 -1.0334877e+57 4.054707e+56)
(-9.463053e+57 -8.7596682e+56 7.7771125e+55)
(-8.6891203e+57 -4.1817298e+56 -4.4592999e+56)
(-9.2705813e+57 -8.0675937e+56 -3.5935752e+56)
(-8.2886821e+57 -9.6401166e+56 6.5739898e+55)
(-9.4019093e+57 -3.630795e+56 1.1882565e+57)
(-1.384029e+58 -6.7265265e+56 1.2990886e+56)
(-8.806194e+57 -2.7469438e+56 -2.6705986e+56)
(-7.6494002e+57 -4.6377098e+55 1.5473801e+56)
(-7.770703e+57 -1.0145509e+56 -1.1923345e+56)
(-6.7770706e+57 -5.4937418e+56 -7.0130639e+56)
(-8.9269902e+57 -1.2197584e+56 -1.0097857e+57)
(-9.0715007e+57 1.0088418e+56 -5.3254606e+56)
(-7.0205231e+57 -5.9073882e+56 -6.1237435e+56)
(-6.7896356e+57 -5.0712133e+56 7.2756445e+54)
(-9.4549102e+57 5.4907351e+56 -4.6794763e+56)
(-9.2696683e+57 7.2268432e+56 -1.6049921e+56)
(-6.6940582e+57 -5.0878915e+56 1.1841813e+56)
(-7.2467566e+57 -2.0949845e+57 1.1887211e+57)
(-8.7135759e+57 -1.3319518e+57 2.3592861e+56)
(-8.6207503e+57 -1.0599452e+57 3.2988133e+56)
(-7.4330404e+57 -1.8701392e+57 8.8758129e+56)
(-8.870129e+57 -1.3066561e+57 3.3448485e+56)
(-8.4290807e+57 -1.7286159e+57 5.8798893e+56)
(-8.2453997e+57 -1.6488984e+57 3.439939e+56)
(-8.8071928e+57 -1.2022943e+57 2.0478192e+56)
(-8.2321581e+57 -1.1949261e+57 4.0859769e+56)
(-7.8267945e+57 -7.6025154e+56 -1.0347204e+56)
(-8.5984867e+57 -1.8340978e+57 1.1321852e+56)
(-9.0881854e+57 -8.5277525e+56 -2.6439531e+55)
(-8.661936e+57 -9.3301934e+56 -6.3230173e+56)
(-8.2690746e+57 -1.7684272e+57 -3.2139061e+56)
(-8.4960509e+57 -6.197542e+56 -7.8531213e+56)
(-8.7321704e+57 -2.3158232e+56 -5.6548512e+56)
(-8.1551537e+57 -1.4415987e+57 -9.8005487e+56)
(-8.3929733e+57 -9.0677527e+56 -5.7103277e+56)
(-8.4028223e+57 -1.7274266e+57 -1.7812294e+56)
(-8.7489081e+57 -1.1405571e+57 -2.0280057e+56)
(-8.3403617e+57 -8.2374424e+56 -7.5467672e+56)
(-8.0079497e+57 -1.3580607e+57 -6.2891566e+56)
(-7.8686599e+57 -8.5134004e+56 -8.3782646e+56)
(-8.1860169e+57 -4.199865e+56 -6.2135277e+56)
(-8.4339595e+57 -3.2727598e+56 -4.7535955e+56)
(-8.2330921e+57 -5.5200854e+56 -4.4604728e+56)
(-9.0235648e+57 -7.9870606e+56 -5.020709e+56)
(-8.4019965e+57 -1.076266e+57 -4.5673564e+56)
(-7.9128781e+57 -1.1555937e+57 5.0383866e+55)
(-9.0793375e+57 -3.1896598e+56 -3.5334797e+56)
(-9.170485e+57 -1.2517533e+57 -3.9507234e+55)
(-8.6675245e+57 -1.5867555e+57 7.6277789e+55)
(-8.2892569e+57 -1.6695714e+57 -1.4867318e+56)
(-8.9876204e+57 -1.1192226e+57 -4.2196631e+56)
(-8.3202282e+57 -7.6695581e+56 -1.2123744e+57)
(-8.8733978e+57 -4.0473642e+56 -1.2141797e+57)
(-8.237439e+57 -4.7032205e+56 -1.494458e+56)
(-8.8150342e+57 -1.5373841e+56 -3.8592033e+56)
(-8.2043824e+57 -1.6744453e+57 -1.1439269e+57)
(-8.8687974e+57 -8.8188575e+56 -9.336035e+56)
(-8.9127351e+57 -5.1526697e+56 -6.4684747e+56)
(-8.4096085e+57 -1.0358457e+57 -5.4425583e+56)
(-8.5347351e+57 -1.5037998e+57 4.269702e+56)
(-8.4642758e+57 -8.0959713e+56 -8.3498125e+55)
(-8.8037137e+57 -1.0110963e+57 2.1529596e+56)
(-8.0873369e+57 -1.6190131e+57 1.2808353e+56)
(-8.8533547e+57 -1.2195815e+57 2.5944497e+56)
(-8.6024107e+57 -1.2751458e+57 1.081127e+56)
(-8.5613922e+57 -1.6164021e+57 5.1092841e+56)
(-8.2659868e+57 -1.7346889e+57 3.0631489e+56)
(-8.4588877e+57 -1.3759785e+57 3.8689524e+56)
(-8.6718059e+57 -1.0071345e+57 1.8479101e+56)
(-7.9850997e+57 -1.1786729e+57 -1.6648224e+55)
(-8.1963795e+57 -7.9116472e+56 -1.1658202e+56)
(-8.359654e+57 -1.2342619e+57 3.3765398e+56)
(-8.4715845e+57 -8.8098255e+56 1.3760697e+56)
(-7.8378049e+57 -6.2223649e+56 -6.7628579e+55)
(-7.7526572e+57 -1.07482e+57 -5.9385751e+55)
(-7.212036e+57 -7.905235e+56 -3.4105416e+56)
(-7.3775023e+57 -2.9058266e+56 -1.9501473e+56)
(-7.5512685e+57 -2.895792e+55 -2.5792273e+56)
(-7.239476e+57 -3.1877175e+56 -2.7961582e+56)
(-7.4672944e+57 -1.0902573e+57 -4.6032277e+56)
(-7.6624266e+57 -5.0247026e+56 -2.9065518e+56)
(-7.5782361e+57 -1.6355026e+56 -4.5643089e+56)
(-7.2904633e+57 -5.7821721e+56 -4.8318525e+56)
(-7.6697012e+57 1.1302465e+56 7.946503e+55)
(-7.3722323e+57 -1.3583825e+56 -5.206913e+55)
(-7.6187118e+57 2.0330691e+55 -2.496441e+53)
(-7.4175302e+57 -2.3454505e+56 4.9403534e+55)
(-7.7033503e+57 5.4885066e+55 -7.2373333e+55)
(-7.3882066e+57 -2.9735928e+56 -2.3220391e+56)
(-7.7531227e+57 -2.4756867e+55 -9.9969483e+55)
(-7.5274938e+57 -3.8799417e+56 -8.8721408e+55)
(-7.7090973e+57 -1.3783141e+57 -4.3229838e+56)
(-7.4212024e+57 -8.3416846e+56 -6.3435646e+56)
(-7.9261737e+57 -7.7794627e+56 -4.0479081e+56)
(-7.7066665e+57 -3.9161601e+56 -6.3229745e+56)
(-7.4261646e+57 -4.34212e+56 -4.4338643e+56)
(-7.7042702e+57 -4.3153955e+56 -1.967816e+56)
(-7.9063051e+57 -9.4403289e+55 -2.0348625e+56)
(-7.7648463e+57 -3.7638893e+55 -2.1560994e+56)
(-8.0238358e+57 -1.6369884e+57 -3.0152278e+56)
(-8.3719428e+57 -1.0205537e+57 -3.0775987e+56)
(-7.6972398e+57 -1.0433098e+57 -7.0754091e+56)
(-7.9925702e+57 -5.9884458e+56 -7.3489055e+56)
(-7.9040843e+57 -2.6911957e+56 -4.4120024e+56)
(-7.6131103e+57 -6.6916233e+56 -6.2507937e+56)
(-8.1339312e+57 -2.5528892e+56 -3.5291686e+56)
(-7.9429014e+57 -5.0590173e+56 -3.2969428e+56)
(-6.2533725e+57 -1.8875465e+56 5.2832019e+55)
(-6.709685e+57 -4.9477702e+56 1.9304855e+56)
(-6.4734003e+57 -6.8681293e+56 2.6773278e+56)
(-5.9351966e+57 -1.7595363e+56 1.5384e+56)
(-6.7018684e+57 -6.9333975e+56 1.7849632e+55)
(-6.6281136e+57 -8.4790439e+56 2.5681482e+56)
(-6.0641346e+57 -6.7830964e+56 6.5050977e+55)
(-6.5356842e+57 -7.1383168e+56 -1.8532809e+56)
(-5.9867273e+57 -3.3837006e+56 1.0931087e+56)
(-6.5772942e+57 -5.3660309e+56 2.5751575e+56)
(-6.7014454e+57 -3.6675982e+56 1.6866342e+56)
(-6.2115566e+57 -1.8780571e+56 8.1209907e+55)
(-6.5410488e+57 -4.32308e+56 2.5965239e+56)
(-6.6535007e+57 -2.6415756e+56 1.5116726e+56)
(-6.2023207e+57 -1.3022416e+56 1.1038769e+56)
(-5.9633575e+57 -3.0352978e+56 1.4662955e+56)
(-5.8071454e+57 -4.4340534e+56 1.2748046e+56)
(-5.3040547e+57 -5.7034998e+56 2.2677563e+53)
(-5.5588712e+57 -3.9599756e+56 2.5894855e+55)
(-5.9033081e+57 -2.2640147e+56 9.9311231e+54)
(-6.042449e+57 -1.3999957e+56 2.7993874e+55)
(-5.8890457e+57 -2.414275e+56 -6.041577e+54)
(-5.7735069e+57 -3.0324143e+56 1.0360146e+56)
(-5.6181521e+57 -3.6589858e+56 9.3920767e+55)
(-6.1227927e+57 -1.3888269e+56 8.8573478e+55)
(-6.3655164e+57 4.5530377e+55 1.5328105e+56)
(-6.5017955e+57 1.2554244e+56 1.3894011e+56)
(-6.356504e+57 6.7957946e+54 1.8002094e+56)
(-6.4935817e+57 1.2459039e+56 1.6071522e+56)
(-6.4327812e+57 7.3479438e+55 2.1433866e+56)
(-6.3834909e+57 4.2735789e+55 2.3915785e+56)
(-6.2297746e+57 -5.3250546e+55 1.8128646e+56)
(-6.3259552e+57 5.7685257e+54 2.5492831e+56)
(-6.4895822e+57 1.4226785e+56 2.9003021e+56)
(-6.508904e+57 1.5963304e+56 2.1296327e+56)
(-6.4011034e+57 4.7766018e+55 2.6707008e+56)
(-5.9556449e+57 -1.9784425e+56 1.4234584e+56)
(-5.7463614e+57 -3.2872641e+56 3.4019783e+55)
(-6.0574158e+57 -1.2231025e+56 9.7388735e+55)
(-6.1770504e+57 -4.3775956e+55 1.1424493e+56)
(-6.0707028e+57 -1.3398568e+56 2.2030851e+56)
(-5.878724e+57 -2.3739244e+56 1.0724042e+56)
(-6.1636419e+57 -4.1984625e+55 1.395714e+56)
(-6.2489761e+57 1.4149293e+55 1.5694429e+56)
(-6.5054835e+57 1.5284296e+56 3.251513e+56)
(-6.3581048e+57 3.070428e+55 3.0439514e+56)
(-6.4021729e+57 5.4421136e+55 3.247119e+56)
(-6.5035873e+57 1.6120303e+56 2.483646e+56)
(-6.4921336e+57 9.0944019e+55 3.5522366e+56)
(-6.6110756e+57 2.1416951e+56 3.9218373e+56)
(-6.5943671e+57 2.2131969e+56 2.4372018e+56)
(-6.476879e+57 1.0100138e+56 2.76162e+56)
(-6.4791996e+57 9.7113954e+55 3.0420354e+56)
(-6.6194447e+57 1.9050804e+56 3.2289012e+56)
(-6.5895653e+57 2.3001966e+56 1.868908e+56)
(-6.4534783e+57 1.3081439e+56 2.2981319e+56)
(-6.3420749e+57 1.2087641e+56 3.5664603e+56)
(-6.4791111e+57 2.5787976e+56 4.090484e+56)
(-6.0529693e+57 -3.2786729e+56 2.2727964e+56)
(-5.9484462e+57 -4.7109132e+56 1.0345019e+56)
(-5.986855e+57 -1.6504407e+56 1.104468e+56)
(-6.384759e+57 2.2265916e+56 3.0608868e+56)
(-5.9491995e+57 -5.0690294e+56 2.2558946e+56)
(-6.3067895e+57 1.9019086e+56 3.9435577e+56)
(-6.5689482e+57 1.958825e+56 1.7792113e+56)
(-6.5968008e+57 1.6571875e+56 3.2652631e+56)
(-6.4529682e+57 1.4407759e+56 2.4710869e+56)
(-6.4802553e+57 9.4396298e+55 3.2346923e+56)
(-6.952039e+57 -2.1446134e+56 -1.6897618e+56)
(-6.7991119e+57 -1.7917353e+56 -1.0608e+56)
(-6.5777067e+57 -2.3370109e+56 -9.2825185e+55)
(-6.7059759e+57 -2.163385e+56 -9.9077937e+55)
(-5.6138241e+57 -3.7719397e+56 1.4044053e+56)
(-5.625764e+57 -4.7770959e+56 -3.587402e+55)
(-5.6071666e+57 -4.022364e+56 2.2635983e+56)
(-7.253275e+57 -2.0212773e+56 -2.2482397e+56)
(-7.0977689e+57 -1.6517938e+56 -1.5927086e+56)
(-7.6012022e+57 -2.3842593e+56 -3.4445515e+56)
(-7.3667677e+57 -1.3250732e+56 -1.9446275e+56)
(-1.4272724e+58 -9.6446061e+55 -2.1854211e+57)
(-8.2440445e+57 7.3044476e+56 -7.2720545e+56)
(-7.8886588e+57 4.6225251e+56 -6.2627499e+56)
(-8.0781176e+57 3.1365457e+56 -2.7867298e+56)
(-6.9384396e+57 -1.1752132e+56 -4.7613996e+56)
(-8.4384914e+57 6.2197664e+56 -4.1140904e+56)
(-8.6068604e+57 3.1625815e+56 8.3185956e+55)
(-6.7518665e+57 -2.0807961e+56 -5.0249824e+56)
(-7.6752567e+57 2.6446676e+55 -7.6719792e+56)
(-7.9894912e+57 -1.3782347e+56 -1.009107e+57)
(-8.1697977e+57 -2.130626e+56 -8.9446233e+56)
(-8.2094571e+57 -2.6699826e+56 -7.8441122e+56)
(-8.214321e+57 -2.7377928e+56 -6.4115479e+56)
(-8.1358627e+57 -2.3092504e+56 -5.3433366e+56)
(-7.7701729e+57 -2.2376778e+56 -3.811274e+56)
(-7.9733078e+57 -2.2119418e+56 -4.5237668e+56)
(-9.1353384e+57 1.7869447e+56 -7.4742297e+56)
(-9.2172469e+57 7.7889667e+55 -9.1996861e+56)
(-9.3115546e+57 -7.6492113e+55 -6.1564348e+56)
(-9.590234e+57 1.0376417e+56 -1.0659042e+56)
(-9.4901688e+57 -8.9708266e+55 -2.3986585e+56)
(-9.7549425e+57 6.5866624e+55 2.8751857e+55)
(-9.1909521e+57 -1.6530432e+56 -7.3442963e+56)
(-9.1384939e+57 -1.681302e+55 -1.0965882e+57)
(-9.59431e+57 -1.2757411e+56 -2.3009453e+56)
(-8.9898804e+57 1.088469e+55 -1.1319171e+57)
(-9.1225914e+57 -2.2945855e+56 -1.00188e+57)
(-9.5759904e+57 1.6603811e+54 -8.4514035e+55)
(-9.3814086e+57 -1.2092458e+56 -3.4564498e+56)
(-9.3787009e+57 5.4552781e+55 -3.8461659e+56)
(-9.1683992e+57 -1.4858169e+56 -8.6488137e+56)
(-9.047904e+57 9.4428055e+55 -9.6463636e+56)
(-9.2425468e+57 -4.828848e+54 -4.6560503e+56)
(-8.0161442e+57 1.4912925e+56 -1.5823524e+56)
(-7.9649591e+57 8.6757065e+55 -2.6860176e+56)
(-7.8786368e+57 1.3345671e+56 -7.3839853e+56)
(-7.9046885e+57 4.0661466e+55 -6.7331792e+56)