/*--------------------------------*- C++ -*----------------------------------*\
  =========                 |
  \\      /  F ield         | OpenFOAM: The Open Source CFD Toolbox
   \\    /   O peration     | Website:  https://openfoam.org
    \\  /    A nd           | Version:  7
     \\/     M anipulation  |
\*---------------------------------------------------------------------------*/
FoamFile
{
    version     2.0;
    format      ascii;
    class       volVectorField;
    location    "10000";
    object      UMean;
}
// * * * * * * * * * * * * * * * * * * * * * * * * * * * * * * * * * * * * * //

dimensions      [0 1 -1 0 0 0 0];

internalField   nonuniform List<vector> 
33733
(
(-1.0830052e+56 1.1714431e+54 -5.9257929e+53)
(-9.0264367e+55 1.0955596e+54 -1.3642011e+53)
(-1.0919982e+56 1.0079422e+54 2.4220171e+53)
(-8.9904617e+55 1.728622e+53 -8.7556248e+53)
(-9.2118853e+55 1.3275017e+54 -3.6533678e+52)
(-1.0976995e+56 -2.40795e+54 -1.0781209e+54)
(-8.1401645e+55 -6.5851014e+53 -1.5918456e+54)
(-8.0950996e+55 6.0168196e+52 1.7542703e+53)
(-9.0292565e+55 3.9490354e+53 -1.6932336e+53)
(-8.4512714e+55 -1.8596914e+54 -1.3924055e+54)
(-9.2913197e+55 1.1752648e+53 6.3036421e+53)
(-8.450265e+55 -8.5283393e+53 5.6933024e+53)
(-8.7456567e+55 9.6662236e+53 1.6713305e+53)
(-8.8648561e+55 1.819178e+54 -6.2840025e+52)
(-8.6053842e+55 -9.0854903e+53 1.1091507e+54)
(-8.4736067e+55 -2.370505e+54 8.7158939e+53)
(-1.109927e+56 -2.8502198e+54 -4.7275751e+52)
(-8.1782192e+55 -2.2620557e+54 4.580073e+52)
(-9.0012291e+55 -8.8648896e+53 -1.9910122e+53)
(-8.5198179e+55 -1.4737777e+54 4.8705295e+53)
(-8.2881205e+55 -1.3899396e+54 -3.4837495e+52)
(-8.4820309e+55 -1.3548134e+54 -9.0650921e+53)
(-8.8245425e+55 -8.9377889e+53 -8.4509717e+53)
(-8.2508302e+55 -3.0376662e+54 -1.7941798e+54)
(-8.4240632e+55 -2.1147757e+54 -9.9642519e+53)
(-7.6627564e+55 -1.3847282e+54 -3.3982959e+54)
(-9.0498351e+55 -6.1441002e+53 -1.5649803e+54)
(-8.9127731e+55 -4.5609921e+53 -6.3506142e+53)
(-7.2323763e+55 -3.2116926e+53 -5.5793519e+53)
(-7.7662663e+55 -3.6177454e+54 -2.5197196e+54)
(-8.4194304e+55 -3.7598342e+54 -2.3481965e+54)
(-7.7515858e+55 -2.1657884e+54 -6.1894523e+53)
(-8.8511268e+55 -2.1806415e+54 -1.6725319e+54)
(-9.0457965e+55 -6.580157e+53 -1.2856887e+54)
(-9.2720416e+55 5.6197326e+53 -8.8724822e+53)
(-8.5281991e+55 -7.2521236e+53 -3.7337509e+54)
(-8.3683985e+55 -1.8918672e+54 -3.30017e+54)
(-8.297174e+55 -1.0872524e+54 -1.6317363e+54)
(-8.1869147e+55 -2.0785838e+54 -2.635888e+54)
(-7.7744411e+55 -3.4600759e+54 -3.3711313e+54)
(-9.0832583e+55 -1.0824708e+54 -8.2271674e+53)
(-8.2936725e+55 -2.6166264e+54 -3.2308798e+54)
(-7.9394954e+55 -2.4372496e+54 -3.1265299e+54)
(-9.216249e+55 2.6043554e+54 1.5043166e+54)
(-8.6553891e+55 -1.3554369e+54 1.316023e+54)
(-8.2654017e+55 -3.0177222e+54 1.1792204e+54)
(-8.2676783e+55 -4.4800372e+54 2.3249232e+54)
(-8.6425142e+55 -2.203276e+54 1.7073425e+54)
(-8.258201e+55 -1.0906994e+54 1.1699351e+54)
(-8.3102733e+55 4.5741682e+53 -1.2935152e+53)
(-8.3966054e+55 -8.5734355e+53 2.1828654e+54)
(-8.7188985e+55 -2.6308215e+54 1.1616935e+54)
(-8.0649696e+55 -3.4139479e+54 2.0731865e+53)
(-9.0987516e+55 -1.9676087e+54 2.3856828e+53)
(-8.4874589e+55 -4.9188226e+54 2.2147084e+54)
(-7.8471731e+55 -5.0363667e+54 2.1274026e+54)
(-7.8375473e+55 -3.5838018e+54 7.1551495e+53)
(-7.7602689e+55 -3.2601808e+54 1.1196355e+54)
(-9.0577584e+55 -1.2463169e+54 2.2509838e+53)
(-8.7586743e+55 -4.9536858e+54 1.8210163e+53)
(-7.9184844e+55 -6.2491603e+54 2.5517527e+53)
(-8.4691935e+55 -5.7108512e+54 -6.6675544e+53)
(-7.7684259e+55 -6.8150142e+54 -4.130106e+53)
(-8.4297164e+55 -5.1905103e+54 4.1680097e+53)
(-8.6497978e+55 -2.6301337e+54 4.8636459e+53)
(-8.4390742e+55 -2.4466762e+54 -4.915262e+53)
(-8.2675939e+55 -4.9847303e+54 -8.8613084e+53)
(-7.9916608e+55 -1.0988763e+54 1.8625721e+54)
(-7.9091889e+55 -2.5450828e+54 2.2506432e+54)
(-7.4018846e+55 -2.6267335e+54 1.0785891e+54)
(-7.4870761e+55 -7.6653882e+53 1.0354482e+54)
(-7.1789505e+55 -1.5609147e+54 9.0088003e+52)
(-7.3116139e+55 9.8722794e+52 9.4805073e+53)
(-7.1434778e+55 -1.0915047e+54 1.1198997e+54)
(-7.4598534e+55 -2.3215694e+54 -5.597154e+53)
(-7.9797004e+55 -2.1738615e+54 -1.2853818e+54)
(-7.5374365e+55 -1.2001349e+54 2.1470657e+52)
(-8.0337986e+55 -1.7079151e+54 -9.597863e+53)
(-7.635566e+55 -2.703061e+54 -1.260664e+54)
(-7.6174572e+55 -3.7514604e+54 -1.9590844e+54)
(-8.0924153e+55 -3.1103265e+54 -2.1868351e+54)
(-8.1313911e+55 -2.43977e+54 -1.7641641e+54)
(-9.6607993e+55 -6.2543702e+54 -6.3290165e+54)
(-7.902176e+55 -3.8023361e+54 -4.7578357e+54)
(-7.4771109e+55 1.2234732e+54 -3.5581867e+54)
(-8.4022327e+55 -1.5433558e+54 -1.9488183e+54)
(-8.507604e+55 -2.1227009e+54 -1.5587178e+54)
(-7.2007415e+55 3.9521752e+53 1.1391461e+54)
(-7.7408415e+55 -5.7369663e+54 -3.6069034e+54)
(-7.9771235e+55 -3.6767746e+54 -2.0783056e+54)
(-7.9790984e+55 -5.3392913e+54 -3.442175e+54)
(-8.5233608e+55 -2.9279512e+54 -2.3655432e+54)
(-7.7725337e+55 -5.2362088e+54 -3.2293932e+54)
(-7.7785098e+55 -4.379696e+54 -2.6323501e+54)
(-8.1718641e+55 -3.7020866e+54 -2.5802991e+54)
(-8.2847376e+55 -3.2385154e+54 -2.5580917e+54)
(-9.4945333e+55 1.1481725e+54 -1.4413975e+54)
(-8.3866569e+55 1.9783397e+53 -3.9241568e+54)
(-8.4699227e+55 8.7157022e+53 -3.377297e+54)
(-8.4213748e+55 1.8489963e+53 -3.6799239e+54)
(-9.3728899e+55 -2.9784081e+53 -1.6869733e+54)
(-8.6595539e+55 2.5140764e+53 -4.6150467e+54)
(-8.6020335e+55 -8.3211842e+53 -4.5256644e+54)
(-8.3787054e+55 -1.1205509e+54 -3.3248586e+54)
(-8.2035919e+55 -1.3459005e+54 -3.215588e+54)
(-8.154149e+55 -1.8417285e+54 -4.8402669e+54)
(-8.0362743e+55 -2.0092736e+54 -4.432338e+54)
(-8.4954142e+55 -2.4115955e+52 -3.3915879e+54)
(-8.3595395e+55 -9.0437106e+53 -3.3872236e+54)
(-8.2630282e+55 -5.3564898e+53 -5.0266554e+54)
(-8.2015714e+55 -1.3780347e+54 -4.5735302e+54)
(-9.4331443e+55 1.9186369e+53 -1.6501237e+54)
(-8.4928587e+55 -4.7134143e+53 -4.789332e+54)
(-7.7163584e+55 -8.3500122e+53 -7.0618371e+54)
(-7.838288e+55 -2.2515565e+54 -6.379983e+54)
(-8.4811588e+55 -1.466059e+54 -4.0027251e+54)
(-8.4038116e+55 -1.930381e+54 -4.5493739e+54)
(-7.7183481e+55 -2.5283401e+54 -6.8274921e+54)
(-7.5619651e+55 -3.261011e+54 -6.2288022e+54)
(-9.1083738e+55 -9.8202579e+53 -1.5289189e+54)
(-8.2022467e+55 -2.1519455e+54 -4.78887e+54)
(-8.2123945e+55 9.7291489e+53 -6.872539e+54)
(-8.0829115e+55 1.5728967e+53 -5.8308621e+54)
(-7.3396925e+55 -2.0090224e+54 -2.0374225e+54)
(-7.3836938e+55 -1.6260574e+54 -1.1237818e+54)
(-7.4731034e+55 -2.3919431e+54 -2.6309233e+54)
(-7.5067779e+55 -2.6197476e+54 -3.5308228e+54)
(-7.9686998e+55 -3.2799123e+54 -4.7194906e+54)
(-7.7202601e+55 -4.3046505e+54 -5.3780522e+54)
(-8.2934322e+55 -2.0282926e+54 -1.6519235e+54)
(-7.6181438e+55 -3.4236056e+54 5.0862063e+53)
(-7.6880055e+55 -3.3716679e+54 -4.9561907e+54)
(-7.6593268e+55 -2.9570038e+54 -4.2150583e+54)
(-8.8489706e+55 -8.2130306e+53 2.3943533e+54)
(-9.11359e+55 9.6449418e+53 2.4921514e+54)
(-9.3149465e+55 1.2965281e+54 2.6804382e+53)
(-8.2201204e+55 -2.1395372e+54 2.1376779e+54)
(-8.0138878e+55 -3.5199289e+54 2.5790951e+54)
(-8.1420615e+55 -4.875351e+54 4.680439e+54)
(-8.2288671e+55 -3.241681e+54 3.6452674e+54)
(-8.2125799e+55 -1.622293e+54 2.2277867e+54)
(-8.4018759e+55 -3.043283e+53 -7.694944e+52)
(-8.3182036e+55 -9.5191755e+53 3.1650218e+54)
(-7.2636609e+55 -2.8028708e+54 3.2393541e+54)
(-7.2661363e+55 -1.4391141e+54 2.1751719e+54)
(-8.1324313e+55 -3.9585356e+54 2.9354245e+54)
(-7.6544647e+55 -5.1596879e+54 2.1816522e+54)
(-8.6159202e+55 -4.1347182e+54 1.6516216e+54)
(-7.3761062e+55 -1.9396552e+54 -2.4742779e+54)
(-7.6851192e+55 -2.1040593e+54 1.6431547e+54)
(-8.5511759e+55 -4.5225733e+54 1.3671768e+54)
(-7.947843e+55 -5.8933776e+54 5.2083276e+54)
(-7.8181391e+55 -5.5810342e+54 3.9020483e+54)
(-8.0806089e+55 -5.5196217e+54 9.7063996e+53)
(-9.4117505e+55 -7.3201121e+54 1.0291917e+54)
(-7.7669698e+55 -5.745747e+54 2.123794e+54)
(-8.4884051e+55 -3.936712e+54 -5.6839028e+53)
(-7.4251772e+55 -1.0874395e+54 -3.3140738e+53)
(-7.3401366e+55 -7.3707576e+53 1.4566123e+54)
(-8.3711508e+55 -3.4395649e+54 2.253729e+53)
(-8.2513027e+55 -6.6418283e+54 2.7507712e+54)
(-8.1131971e+55 -7.6817157e+54 1.8236475e+54)
(-7.7664194e+55 -8.8812808e+54 2.471649e+54)
(-7.9024017e+55 -7.5322542e+54 2.061398e+54)
(-8.4324278e+55 -6.2060157e+54 1.3013974e+54)
(-7.9476152e+55 -6.4530515e+54 -2.2077884e+53)
(-8.0300466e+55 -7.7825253e+54 2.6567591e+54)
(-7.6908483e+55 -8.2571995e+54 2.3186799e+54)
(-7.7669919e+55 -9.2391208e+54 -1.9382326e+54)
(-7.643327e+55 -7.605036e+54 -2.77574e+54)
(-7.8511434e+55 -7.3970572e+54 -2.1223035e+54)
(-7.6954044e+55 -5.7783489e+54 -2.3694446e+54)
(-7.7561659e+55 -8.8907281e+54 -1.1571609e+54)
(-8.1064662e+55 -7.7142089e+54 -1.6096857e+54)
(-7.6633093e+55 -9.5428252e+54 -1.8907391e+54)
(-7.9245673e+55 -7.6476278e+54 -2.3714446e+54)
(-8.0422291e+55 -6.548072e+54 2.8736045e+54)
(-8.0916594e+55 -5.3755363e+54 2.9888553e+54)
(-7.7359417e+55 -5.8912053e+54 1.4721566e+54)
(-7.7063253e+55 -7.5500814e+54 1.8935692e+54)
(-8.0066567e+55 -3.5040639e+54 2.4421906e+54)
(-7.9547773e+55 -4.7399253e+54 2.7579241e+54)
(-7.5167245e+55 -5.4903555e+54 1.2894513e+54)
(-7.5706907e+55 -3.484332e+54 1.0825808e+54)
(-7.3971907e+55 -2.0678625e+54 -5.0727629e+53)
(-7.3140445e+55 -4.3802083e+54 -1.2907895e+54)
(-7.3394704e+55 -1.3841912e+54 2.9576414e+53)
(-7.2383439e+55 -3.0239351e+54 -4.2830093e+53)
(-7.5634893e+55 -5.1123167e+54 -1.6398405e+54)
(-7.4658509e+55 -3.5820492e+54 -1.2020171e+54)
(-7.5911981e+55 -7.0359028e+54 -2.1207984e+54)
(-7.4509407e+55 -5.1554381e+54 -1.9948162e+54)
(-6.5951732e+55 -3.5920999e+54 2.4610945e+54)
(-6.6635118e+55 -2.6945961e+54 2.3772983e+54)
(-6.12944e+55 -1.8142588e+54 1.9236269e+54)
(-5.9864472e+55 -3.4125787e+54 1.8627969e+54)
(-5.9321526e+55 -1.1967954e+54 2.1242263e+54)
(-6.6633754e+55 -9.365625e+53 2.1432461e+54)
(-6.5278453e+55 -1.899592e+54 2.3118491e+54)
(-6.0953291e+55 1.5358945e+53 2.2686805e+54)
(-5.6940738e+55 -1.7085517e+54 9.476409e+53)
(-5.8994563e+55 -5.049018e+53 1.3909823e+54)
(-5.8709319e+55 -2.0439363e+53 1.1548132e+54)
(-6.0250298e+55 2.9727615e+53 1.6423374e+54)
(-5.860896e+55 4.5151039e+53 2.35902e+54)
(-5.7218555e+55 -1.5365522e+53 2.0016952e+54)
(-5.9349289e+55 7.6080488e+53 2.4185226e+54)
(-6.0390393e+55 9.8898343e+53 2.7003899e+54)
(-5.9025362e+55 5.3663245e+53 3.3631386e+54)
(-5.9400006e+55 1.4449324e+53 2.6215573e+54)
(-5.8803402e+55 -1.4155317e+54 2.8638822e+54)
(-5.9259523e+55 -1.122941e+54 3.2483786e+54)
(-6.0656616e+55 4.3379088e+53 2.8274959e+54)
(-6.4756442e+55 -2.4602139e+54 -2.1372937e+53)
(-6.5206007e+55 -2.175522e+54 1.230455e+53)
(-6.9005283e+55 -1.8399191e+54 -8.0726581e+53)
(-6.8573421e+55 -2.133394e+54 -1.0481859e+54)
(-6.8346971e+55 -1.6212833e+54 -3.5084624e+53)
(-6.4406166e+55 -1.8296445e+54 7.9686857e+53)
(-6.3764508e+55 -2.0940325e+54 6.0838394e+53)
(-6.7587862e+55 -1.7552196e+54 -5.1716638e+53)
(-6.5771935e+55 -2.8646897e+54 -1.0292131e+54)
(-6.6117697e+55 -2.4961547e+54 -6.8137251e+53)
(-6.9216012e+55 -2.5202039e+54 -1.580087e+54)
(-6.9833687e+55 -2.2191852e+54 -1.314094e+54)
(-6.7318453e+55 -3.3642467e+54 -1.9647378e+54)
(-7.0713665e+55 -2.9217506e+54 -2.1556798e+54)
(-7.0664833e+55 -2.733363e+54 -1.9748184e+54)
(-6.7321761e+55 -3.1522437e+54 -1.564576e+54)
(-9.1225325e+55 -6.8540239e+53 -7.7053172e+54)
(-7.6924173e+55 1.3503988e+54 -6.8781953e+54)
(-7.5532923e+55 -4.0018961e+54 -4.0012882e+54)
(-7.7570953e+55 -4.1540854e+53 -3.4024102e+54)
(-8.1348242e+55 -3.1608026e+54 -2.5683774e+54)
(-7.7026946e+55 -7.3704531e+53 7.9078693e+53)
(-8.4750135e+55 -2.6381042e+54 -1.6926509e+54)
(-7.4238523e+55 -4.7764097e+54 -5.4789695e+54)
(-7.4789571e+55 -4.494894e+54 -4.8329475e+54)
(-7.887259e+55 -2.9262185e+54 -2.2415704e+54)
(-7.679076e+55 -3.7973462e+54 -2.5856675e+54)
(-7.3081286e+55 -4.5503025e+54 -4.6489765e+54)
(-7.2912198e+55 -4.2227769e+54 -4.0988802e+54)
(-7.6233122e+55 -3.5577038e+54 -2.905453e+54)
(-7.575759e+55 -4.1286662e+54 -2.9344807e+54)
(-7.1435181e+55 -3.9958597e+54 -3.6282124e+54)
(-7.0841266e+55 -4.0510132e+54 -3.3549416e+54)
(-7.4034463e+55 -3.4369792e+54 -2.836065e+54)
(-7.4294438e+55 -3.7997456e+54 -2.9239137e+54)
(-6.8917055e+55 -3.5101546e+54 -2.4979287e+54)
(-6.9222728e+55 -3.6989513e+54 -2.8378457e+54)
(-7.2207157e+55 -3.4047704e+54 -2.6375239e+54)
(-7.2150824e+55 -3.0908311e+54 -2.4624787e+54)
(-8.6071518e+55 7.793913e+53 -3.5148385e+54)
(-8.37618e+55 4.5858162e+53 -4.9408574e+54)
(-8.2903835e+55 -2.2078587e+53 -5.3622735e+54)
(-8.4372818e+55 3.4497297e+52 -4.1561889e+54)
(-7.3013352e+55 4.5319937e+53 -3.7984236e+54)
(-7.3602388e+55 2.2078675e+53 -3.7053423e+54)
(-7.3991616e+55 3.7415774e+53 -3.1585016e+54)
(-7.3269455e+55 4.2177821e+53 -3.3199505e+54)
(-7.4369527e+55 6.904668e+53 -3.06431e+54)
(-7.4124531e+55 5.54562e+53 -3.528441e+54)
(-7.4750113e+55 8.4846722e+53 -2.5553878e+54)
(-7.4659488e+55 5.4121659e+53 -2.8947491e+54)
(-7.3500865e+55 2.9470805e+53 -3.6040795e+54)
(-7.3855782e+55 2.1996368e+53 -3.2699736e+54)
(-7.445457e+55 4.4489828e+53 -2.7140181e+54)
(-8.579244e+55 1.1850501e+53 -3.7689906e+54)
(-7.2902763e+55 2.9763938e+53 -3.5238545e+54)
(-7.3333365e+55 2.2697808e+52 -3.3976649e+54)
(-8.4236681e+55 -1.6577581e+53 -3.9933364e+54)
(-8.2662329e+55 -4.5605917e+53 -5.2502917e+54)
(-8.3115877e+55 -1.9792016e+53 -5.3588921e+54)
(-8.6633018e+55 5.6483664e+53 -4.1806227e+54)
(-7.8356005e+55 1.9002706e+53 -7.3154999e+54)
(-7.8116254e+55 -7.846911e+53 -7.3448076e+54)
(-9.6252795e+55 9.1812331e+53 -2.3700922e+54)
(-8.5718096e+55 -3.329266e+53 -4.7968417e+54)
(-9.4676982e+55 -7.7770375e+53 -2.2760582e+54)
(-8.6201823e+55 -1.6746741e+53 -4.5437773e+54)
(-7.8362583e+55 -5.1495996e+53 -7.448686e+54)
(-7.787194e+55 -9.9262691e+53 -7.414733e+54)
(-8.522508e+55 -6.5409273e+53 -4.7861391e+54)
(-8.2872993e+55 -1.4737404e+53 -8.1146472e+54)
(-8.3540122e+55 1.4046935e+54 -8.509787e+54)
(-7.4190955e+55 -1.4765558e+54 -2.7373749e+54)
(-7.3945077e+55 -1.2859551e+54 -2.834359e+54)
(-7.3753176e+55 -1.6189361e+54 -3.5189803e+54)
(-7.3679442e+55 -1.5856183e+54 -3.5498233e+54)
(-7.2970176e+55 -1.9060637e+54 -2.1679188e+54)
(-7.3150925e+55 -1.910382e+54 -2.5830044e+54)
(-7.2855803e+55 -2.1940239e+54 -3.2443666e+54)
(-7.244166e+55 -2.063254e+54 -2.8778933e+54)
(-7.5604714e+55 -1.8893461e+54 -4.4204414e+54)
(-7.560629e+55 -2.0530989e+54 -4.4841861e+54)
(-7.5379772e+55 -1.7140724e+54 -3.7544319e+54)
(-7.5556938e+55 -1.69559e+54 -3.6581995e+54)
(-7.4153299e+55 -2.3572797e+54 -4.0914563e+54)
(-7.4787332e+55 -2.7676516e+54 -4.350813e+54)
(-7.4286348e+55 -2.4000687e+54 -3.6842982e+54)
(-7.4002671e+55 -2.1413807e+54 -3.2756172e+54)
(-7.502656e+55 -2.9604699e+53 -2.9658268e+54)
(-7.4891703e+55 -1.4258196e+53 -2.9629579e+54)
(-6.4041001e+55 3.6815565e+52 -2.9397575e+54)
(-7.4611001e+55 -4.0687864e+53 -3.6972381e+54)
(-7.456491e+55 -3.2834921e+53 -3.78273e+54)
(-7.437861e+55 -8.3762271e+53 -2.8783634e+54)
(-7.4120929e+55 -8.5577861e+53 -2.8017199e+54)
(-7.365352e+55 -9.5385175e+53 -3.4045912e+54)
(-7.3949372e+55 -1.0643442e+54 -3.5018113e+54)
(-7.6360913e+55 -8.3376923e+53 -4.7608802e+54)
(-7.6397395e+55 -3.877999e+53 -4.6614308e+54)
(-7.6300998e+55 -5.6560282e+53 -3.9239176e+54)
(-7.6308534e+55 -3.8015807e+53 -3.9427019e+54)
(-7.4937014e+55 -1.2199242e+54 -4.5489376e+54)
(-7.532677e+55 -1.4424144e+54 -4.6154435e+54)
(-7.5699069e+55 -1.1780018e+54 -3.5549693e+54)
(-7.5383749e+55 -1.065682e+54 -3.4722226e+54)
(-7.5903151e+55 -5.7708404e+53 -3.1447252e+54)
(-8.54624e+55 -4.0791093e+53 -2.554107e+54)
(-8.5299951e+55 -1.4970414e+54 -2.6216339e+54)
(-7.4864123e+55 -9.4647049e+53 -2.7539625e+54)
(-7.7609946e+55 -4.8736443e+53 -6.2770797e+54)
(-7.7692519e+55 -1.1811702e+54 -6.4327516e+54)
(-7.821063e+55 -9.5235058e+53 -5.0501868e+54)
(-7.8399959e+55 -2.6568205e+53 -4.7830759e+54)
(-7.5981334e+55 -1.3193571e+54 -8.2769809e+54)
(-7.5818393e+55 -1.1337074e+54 -8.0216203e+54)
(-8.0682808e+55 -1.0731365e+54 -5.9336962e+54)
(-8.0694584e+55 -3.8562951e+53 -5.6068498e+54)
(-7.6839769e+55 -2.1423705e+54 -7.664986e+54)
(-8.0086256e+55 -1.6510226e+54 -4.6392394e+54)
(-7.6426921e+55 -2.0871169e+54 -7.7715942e+54)
(-7.9682654e+55 -1.8057078e+54 -4.5945189e+54)
(-7.7371262e+55 -1.4706248e+54 -4.643168e+54)
(-7.6858248e+55 -1.5870634e+54 -5.6721041e+54)
(-7.6936909e+55 -1.3511888e+54 -4.6117204e+54)
(-7.6536968e+55 -1.6315718e+54 -5.5037828e+54)
(-7.7177977e+55 -2.4526046e+54 -5.9766648e+54)
(-7.7519577e+55 -2.7570702e+54 -5.9104049e+54)
(-7.7514973e+55 -1.9871415e+54 -4.6638042e+54)
(-7.746954e+55 -2.2875466e+54 -4.7369243e+54)
(-7.6515681e+55 -3.1856833e+54 -7.7485918e+54)
(-7.6846376e+55 -3.2550174e+54 -7.9874837e+54)
(-8.0521396e+55 -2.8229813e+54 -5.5224423e+54)
(-8.0238456e+55 -2.3620957e+54 -5.4282363e+54)
(-8.4275155e+55 -1.6199458e+54 -2.6974216e+54)
(-7.5203951e+55 -3.7872371e+54 -7.6062632e+54)
(-7.6186698e+55 -4.2283912e+54 -7.5973558e+54)
(-7.9342872e+55 -3.4377978e+54 -5.6481867e+54)
(-7.8510977e+55 -2.5421544e+54 -5.7658388e+54)
(-8.1279527e+55 -1.3470189e+54 -2.6614343e+54)
(-7.2719638e+55 6.9807407e+52 -9.8364664e+53)
(-7.4578162e+55 -9.8560059e+53 -1.8912189e+54)
(-7.5793185e+55 -2.7651089e+54 -5.7745294e+54)
(-7.6472866e+55 -3.4680696e+54 -6.0375523e+54)
(-7.589321e+55 -2.3729177e+54 -4.7316975e+54)
(-7.6426817e+55 -3.0363305e+54 -4.9913379e+54)
(-7.9080479e+55 -7.0301729e+53 -7.2340604e+54)
(-6.4732042e+55 -2.3547606e+54 -1.8453151e+54)
(-6.5141875e+55 -2.2174947e+54 -1.5349149e+54)
(-6.4140117e+55 -2.0212549e+54 -1.2941487e+54)
(-6.4574538e+55 -2.0821309e+54 -1.045459e+54)
(-6.5853624e+55 -2.4372893e+54 -1.9680657e+54)
(-6.548488e+55 -2.6705742e+54 -2.5111338e+54)
(-6.6801611e+55 -2.8789819e+54 -2.9723361e+54)
(-6.7075494e+55 -2.7205629e+54 -3.1480506e+54)
(-7.2202668e+55 -3.7198635e+54 -4.3465317e+54)
(-7.2869238e+55 -4.1499297e+54 -4.561127e+54)
(-8.0423612e+55 -2.9489983e+54 -3.1103724e+54)
(-7.435652e+55 -3.8494193e+54 -4.3407404e+54)
(-7.3978424e+55 -4.5425877e+54 -4.5397694e+54)
(-7.7783039e+55 -3.7457821e+54 2.8604831e+53)
(-7.0802234e+55 -3.6052196e+54 -4.249682e+54)
(-7.0295104e+55 -3.3722581e+54 -4.1351204e+54)
(-6.8875696e+55 -3.0086923e+54 -3.6676956e+54)
(-6.834939e+55 -2.9768473e+54 -3.4777782e+54)
(-8.1737961e+55 -2.4544876e+54 2.8602796e+54)
(-8.4666908e+55 -2.3902483e+54 5.1094489e+53)
(-8.9873348e+55 -6.9851953e+53 1.7170182e+54)
(-8.4867569e+55 -1.1703827e+54 4.4367222e+54)
(-8.8766792e+55 -1.7099788e+54 2.2839191e+54)
(-9.1443936e+55 -4.0612962e+53 2.1062375e+54)
(-9.3852195e+55 1.2040859e+54 -4.4582547e+53)
(-8.4670895e+55 -8.2610312e+52 2.8216914e+53)
(-8.3297549e+55 -1.2067272e+54 2.8135122e+54)
(-8.2149449e+55 -2.2686858e+54 3.6355572e+54)
(-7.8641302e+55 -3.264325e+54 4.5467876e+54)
(-7.452076e+55 -6.5533524e+54 5.3290099e+54)
(-8.0919857e+55 -4.61291e+54 7.2161011e+54)
(-7.5294366e+55 -7.2491706e+54 5.7007731e+54)
(-8.1565759e+55 -3.1639247e+54 5.5898788e+54)
(-7.3692645e+55 -5.47819e+54 4.8000378e+54)
(-7.3693985e+55 -4.1544096e+54 3.766512e+54)
(-8.514164e+55 1.3435205e+54 -3.2885751e+53)
(-7.2717589e+55 -1.812985e+54 4.9086503e+54)
(-8.4805498e+55 -3.2851022e+53 3.0860554e+54)
(-7.1932812e+55 -2.5094289e+54 5.0400556e+54)
(-7.2277507e+55 -9.9451054e+53 3.3356724e+54)
(-7.2661011e+55 -6.5098687e+53 3.0233811e+54)
(-6.0180293e+55 -2.2647209e+54 2.7116707e+54)
(-6.0069444e+55 -3.194974e+54 3.1260105e+54)
(-5.8865845e+55 -9.2798919e+53 2.6059017e+54)
(-5.9646454e+55 -2.4031804e+52 2.1044585e+54)
(-8.0034882e+55 -3.259922e+54 4.6802019e+54)
(-7.2512091e+55 -5.1017595e+54 3.9220331e+54)
(-8.1375156e+55 -4.7457554e+54 2.3476382e+54)
(-7.6079298e+55 -5.9825001e+54 -2.3095276e+54)
(-8.263241e+55 -4.9358049e+54 1.5072858e+54)
(-8.1679578e+55 -3.8753059e+54 6.7996019e+53)
(-7.8960599e+55 -5.6159355e+54 8.2429394e+54)
(-7.6370924e+55 -8.2000671e+54 5.0683966e+54)
(-7.593121e+55 -8.0542917e+54 6.168641e+54)
(-7.6586188e+55 -5.808794e+54 6.6173586e+54)
(-7.8124418e+55 -7.686436e+54 3.8231411e+54)
(-7.5040031e+55 -7.8460128e+54 2.9055984e+54)
(-7.8870414e+55 -1.0937208e+54 2.2670031e+54)
(-8.8634058e+55 -1.8704674e+54 1.9391901e+54)
(-7.27538e+55 2.9406545e+53 2.8510731e+54)
(-7.3826776e+55 -6.3745504e+54 -1.9577476e+54)
(-7.2018105e+55 -6.5949191e+54 2.0511564e+54)
(-7.6825202e+55 -3.0012173e+54 -4.1633613e+54)
(-8.3652125e+55 -5.6644568e+54 4.601943e+53)
(-8.1245116e+55 -6.5600658e+54 1.023634e+54)
(-7.7675676e+55 -3.2194611e+54 8.7452503e+53)
(-7.6293629e+55 -2.781841e+54 -1.2794755e+54)
(-8.2200268e+55 -5.644535e+54 -1.595202e+54)
(-8.0623078e+55 -6.7270695e+54 -7.8634204e+53)
(-7.5298299e+55 -3.2110559e+54 7.2154854e+53)
(-7.173547e+55 -9.4011627e+54 4.2307507e+54)
(-7.0905989e+55 -1.0013205e+55 4.355556e+54)
(-6.9868951e+55 -1.06109e+55 4.517845e+54)
(-7.1763108e+55 -9.778132e+54 4.6680529e+54)
(-7.1327626e+55 -8.6702708e+54 3.9210537e+54)
(-7.0255793e+55 -9.9097777e+54 4.1225118e+54)
(-6.8899547e+55 -1.0620078e+55 4.2056677e+54)
(-6.9370813e+55 -9.3861615e+54 3.6005196e+54)
(-6.977694e+55 -1.1114664e+55 6.4930825e+54)
(-7.1472105e+55 -9.0321651e+54 5.2860933e+54)
(-7.1817375e+55 -1.0863302e+55 7.6587516e+53)
(-7.105004e+55 -9.7108127e+54 1.7412413e+53)
(-6.7278528e+55 -9.3459144e+54 -2.7427763e+54)
(-6.8244456e+55 -1.0928578e+55 -1.7623112e+54)
(-6.6104367e+55 -6.4870809e+54 -5.5831761e+54)
(-6.8080917e+55 -4.5444079e+54 -2.6790685e+54)
(-6.7039924e+55 -8.3841961e+54 -6.3376591e+54)
(-6.838952e+55 -5.7847417e+54 -3.1063145e+54)
(-6.8415192e+55 -1.0507418e+55 -1.5151553e+53)
(-6.785465e+55 -9.0463568e+54 -4.9004265e+53)
(-6.4817943e+55 -6.7824891e+54 -3.6232174e+54)
(-6.4567276e+55 -9.1425368e+54 -3.3750055e+54)
(-6.3540158e+55 -5.8608109e+54 -5.0846016e+54)
(-6.3837089e+55 -4.0097195e+54 -4.0134648e+54)
(-6.5799707e+55 -3.3945128e+54 -1.7777091e+54)
(-6.5661162e+55 -4.3930359e+54 -2.2286446e+54)
(-7.6455316e+55 -8.607714e+54 -4.2266484e+53)
(-7.5253179e+55 -8.1758912e+54 -1.7508886e+54)
(-7.3221804e+55 -9.7673707e+54 1.6619195e+54)
(-7.4095724e+55 -9.759925e+54 6.6291427e+53)
(-7.4455695e+55 -9.7316644e+54 5.4429832e+53)
(-7.3797779e+55 -1.0380587e+55 -8.7130478e+52)
(-7.1068539e+55 -1.1651814e+55 1.5242683e+53)
(-7.0756473e+55 -1.0558098e+55 -9.3361663e+53)
(-7.124219e+55 -1.0883256e+55 -6.1455474e+54)
(-7.2419193e+55 -1.0646796e+55 -6.2341107e+54)
(-7.2154762e+55 -7.9537884e+54 -2.1048525e+54)
(-7.3202807e+55 -7.1097031e+54 -3.1123887e+54)
(-6.9872393e+55 -1.1335387e+55 -6.5226212e+54)
(-6.9597664e+55 -8.7557233e+54 -6.461702e+54)
(-7.0876906e+55 -5.6921133e+54 -3.4013563e+54)
(-7.0763647e+55 -7.5008552e+54 -3.5905156e+54)
(-6.8799279e+55 -7.720217e+54 3.4421665e+54)
(-6.5420604e+55 -6.8383539e+54 1.7803101e+54)
(-6.9383424e+55 -6.7260304e+54 3.3033206e+54)
(-6.5455863e+55 -8.5630913e+54 2.4072325e+54)
(-7.0157747e+55 -8.0006451e+54 3.6908932e+54)
(-6.7245792e+55 -8.9590479e+54 2.8534805e+54)
(-7.0055151e+55 -8.6319016e+54 3.7676553e+54)
(-6.7822083e+55 -9.3646717e+54 3.2152551e+54)
(-6.8001828e+55 -6.4064344e+54 3.2030829e+54)
(-6.820446e+55 -5.6578927e+54 3.0533321e+54)
(-6.3386908e+55 -6.7498885e+54 1.7141571e+54)
(-6.3480246e+55 -5.5375485e+54 1.5560134e+54)
(-6.6701638e+55 -5.0677687e+54 2.9032375e+54)
(-6.7274762e+55 -4.1900693e+54 2.5325583e+54)
(-6.1605346e+55 -3.714239e+54 1.5041146e+54)
(-6.1678068e+55 -5.0738621e+54 1.5023959e+54)
(-5.8022882e+55 -3.483794e+54 -4.1367996e+53)
(-5.8527758e+55 -1.9916234e+54 3.4530379e+53)
(-6.0280708e+55 -3.1411652e+53 4.5162385e+53)
(-5.8472823e+55 -1.2594109e+54 -3.1453988e+53)
(-5.9870223e+55 -5.4083976e+54 -1.1644966e+54)
(-6.0066633e+55 -4.0930268e+54 -8.2397099e+53)
(-6.0332492e+55 -1.7347772e+54 -1.0014822e+54)
(-5.9147293e+55 -2.4833998e+54 -1.745495e+54)
(-6.095539e+55 1.66222e+53 2.0535472e+54)
(-5.9333749e+55 -3.9884481e+53 1.5646364e+54)
(-6.0255833e+55 -1.298119e+54 2.17431e+54)
(-5.9201449e+55 -1.9368908e+54 1.8808306e+54)
(-6.1071988e+55 -6.7118632e+53 8.4374076e+53)
(-5.9942239e+55 -1.0894122e+54 1.9227358e+53)
(-6.0957402e+55 -2.0107268e+54 1.309375e+54)
(-6.0424974e+55 -2.489972e+54 9.0506976e+53)
(-6.2357973e+55 -7.27927e+54 -1.0930972e+54)
(-6.0220393e+55 -4.2226843e+54 -3.0868301e+54)
(-6.1817201e+55 -5.7729403e+54 -1.2120366e+54)
(-6.1004134e+55 -2.9272938e+54 -2.3635624e+54)
(-6.0302595e+55 -2.1455152e+54 -1.5119694e+54)
(-6.1718891e+55 -3.067906e+54 -1.4274025e+53)
(-6.2119461e+55 -2.40406e+54 2.9620619e+53)
(-6.1551395e+55 -1.3002184e+54 -5.7886956e+53)
(-6.5086986e+55 -9.1577161e+54 -7.2552792e+53)
(-6.4612635e+55 -7.8145987e+54 -9.802926e+53)
(-6.2100528e+55 -6.2403772e+54 -3.6427055e+54)
(-6.24693e+55 -4.9219549e+54 -3.390844e+54)
(-6.2156957e+55 -2.7081257e+54 -2.3330702e+54)
(-6.169772e+55 -3.5338194e+54 -3.2520307e+54)
(-6.3677037e+55 -3.1326187e+54 -7.4042975e+53)
(-6.3608122e+55 -3.4759327e+54 -1.188529e+54)
(-4.9218106e+55 -7.0633193e+53 2.7743884e+54)
(-5.299811e+55 -1.988313e+54 3.0996417e+54)
(-5.157275e+55 -2.8441278e+54 3.1338135e+54)
(-4.7083004e+55 -1.4690599e+54 2.6464342e+54)
(-5.2747636e+55 -3.3895393e+54 3.109257e+54)
(-5.1693595e+55 -3.8354502e+54 3.0846299e+54)
(-4.7144385e+55 -3.4889662e+54 2.9677247e+54)
(-5.4546361e+55 -2.3103258e+54 1.7885594e+54)
(-4.786805e+55 -8.4591078e+53 3.0966207e+54)
(-5.201547e+55 -1.5346771e+54 3.4162691e+54)
(-5.2700901e+55 -9.3252844e+53 3.5152326e+54)
(-4.9124191e+55 -5.0646165e+53 3.3116587e+54)
(-5.1596759e+55 -2.7944402e+53 3.8068638e+54)
(-5.288894e+55 2.9142021e+53 3.6567817e+54)
(-4.9620454e+55 2.5455602e+53 3.7326539e+54)
(-4.7873757e+55 -3.3874575e+53 3.6642866e+54)
(-4.6149443e+55 -2.3764131e+54 2.1314257e+54)
(-4.2430774e+55 -2.8668901e+54 2.8151709e+54)
(-4.5661514e+55 -1.5482572e+54 2.1745229e+54)
(-4.7806613e+55 -1.1727935e+54 2.1343448e+54)
(-4.9177114e+55 -2.3740845e+53 2.8027792e+54)
(-4.8222164e+55 -1.0316514e+54 2.5397046e+54)
(-4.7231833e+55 -8.3181494e+53 2.6287697e+54)
(-4.5986364e+55 -1.8162938e+54 2.6246845e+54)
(-4.9919049e+55 3.9971226e+53 2.7695843e+54)
(-5.1167607e+55 5.8339816e+53 2.8130935e+54)
(-5.1714797e+55 7.8927792e+53 3.0191899e+54)
(-5.0897731e+55 7.4036216e+53 2.9905963e+54)
(-5.1905951e+55 1.0651342e+54 3.378978e+54)
(-5.1754966e+55 1.0531352e+54 3.4061052e+54)
(-5.0748973e+55 9.1626158e+53 3.3920634e+54)
(-5.0265145e+55 8.2230928e+53 3.3466731e+54)
(-5.0920955e+55 1.1244949e+54 3.8846453e+54)
(-5.190634e+55 1.2139801e+54 3.9748954e+54)
(-5.1900254e+55 1.0739472e+54 3.9107387e+54)
(-5.1087694e+55 1.0307151e+54 3.8075333e+54)
(-4.8504428e+55 -1.403453e+53 3.3215963e+54)
(-4.7369415e+55 -8.2102715e+53 2.9407628e+54)
(-4.8907302e+55 -2.3126257e+53 3.1049142e+54)
(-4.9758421e+55 2.0826039e+53 3.5558333e+54)
(-4.8915986e+55 4.5308793e+53 3.9836034e+54)
(-4.8014602e+55 1.5046419e+53 3.5469038e+54)
(-4.992e+55 7.623117e+53 3.5928909e+54)
(-5.0508385e+55 9.120224e+53 4.0204216e+54)
(-5.2267613e+55 1.6089525e+54 4.3830441e+54)
(-5.0910487e+55 1.417911e+54 4.4298378e+54)
(-5.0952387e+55 1.1793785e+54 4.2630806e+54)
(-5.2144673e+55 1.3876334e+54 4.2260718e+54)
(-5.1892729e+55 1.3707578e+54 4.4931789e+54)
(-5.2692947e+55 1.3359233e+54 4.4843579e+54)
(-5.2443277e+55 1.0342649e+54 4.0400543e+54)
(-5.1607845e+55 1.0310344e+54 3.9219117e+54)
(-5.1796001e+55 1.2416833e+54 3.888062e+54)
(-5.2625436e+55 1.188219e+54 3.8616417e+54)
(-5.2316802e+55 1.0274703e+54 3.367532e+54)
(-5.1575785e+55 1.0175836e+54 3.3898497e+54)
(-5.0824734e+55 9.8644918e+53 4.2523991e+54)
(-5.1506758e+55 1.0597655e+54 4.334111e+54)
(-4.8321672e+55 -4.0697242e+54 3.221651e+54)
(-4.7914815e+55 -4.1697422e+54 2.9605339e+54)
(-4.968527e+55 -2.3361946e+54 3.1344592e+54)
(-5.1141769e+55 1.2667207e+54 4.4898405e+54)
(-4.7097235e+55 -4.3576141e+54 3.1562391e+54)
(-5.0249438e+55 1.37166e+54 4.556172e+54)
(-5.2405527e+55 1.1442751e+54 3.6121494e+54)
(-5.2738917e+55 1.3611656e+54 4.1764417e+54)
(-5.1212929e+55 1.0872803e+54 3.4741994e+54)
(-5.1618044e+55 1.3184109e+54 4.1568533e+54)
(-5.3657376e+55 -3.2938786e+54 2.9559163e+52)
(-5.26803e+55 -3.3541741e+54 3.9082886e+53)
(-5.1315809e+55 -3.3041152e+54 1.0697483e+54)
(-5.2007368e+55 -3.3948077e+54 6.6589161e+53)
(-4.4309884e+55 -4.8764218e+54 1.0429613e+54)
(-4.4821759e+55 -4.86509e+54 8.2731714e+53)
(-4.6105217e+55 -3.189273e+54 2.5338044e+54)
(-5.5886355e+55 -3.117224e+54 -6.5990477e+53)
(-5.4490052e+55 -3.0603346e+54 -1.1985811e+53)
(-5.8574387e+55 -2.8512911e+54 -1.2420065e+54)
(-5.7015725e+55 -3.1484566e+54 -9.5834538e+53)
(-9.1192571e+55 7.0346813e+52 -8.5794664e+54)
(-7.2287951e+55 -2.9581086e+54 -6.4193914e+54)
(-6.9126052e+55 8.4791948e+53 -6.2274874e+54)
(-7.4657045e+55 -4.3068209e+54 -4.6380894e+54)
(-7.6344199e+55 -1.588639e+54 -4.885354e+54)
(-7.6682636e+55 -3.4107817e+54 -4.6328062e+54)
(-7.9165127e+55 -2.9429163e+54 -2.2743618e+54)
(-7.6834886e+55 -1.5204891e+54 -8.2971939e+53)
(-7.0415108e+55 -4.2929878e+54 -7.0468445e+54)
(-6.9230062e+55 -3.5674366e+54 -6.2690216e+54)
(-6.7698761e+55 -3.0696879e+54 -5.1872786e+54)
(-6.6053332e+55 -2.7873215e+54 -4.2286189e+54)
(-6.4535636e+55 -2.6127218e+54 -3.3378154e+54)
(-6.3080338e+55 -2.615817e+54 -2.77411e+54)
(-5.9865308e+55 -2.467865e+54 -1.5558366e+54)
(-6.1629582e+55 -2.4546536e+54 -2.1237021e+54)
(-7.3420553e+55 8.59627e+53 -3.6049576e+54)
(-7.4945174e+55 5.9098166e+53 -3.9557819e+54)
(-7.5124492e+55 4.5570877e+53 -3.2867107e+54)
(-7.5694636e+55 6.6929034e+53 -2.6144836e+54)
(-7.5421139e+55 5.2151115e+53 -3.1581879e+54)
(-7.7141319e+55 4.261367e+53 -3.2342524e+54)
(-7.6258133e+55 1.1539485e+53 -4.423145e+54)
(-7.6384234e+55 5.3390556e+53 -4.9363647e+54)
(-7.6592492e+55 5.3443139e+53 -4.0832465e+54)
(-7.5518874e+55 1.9554244e+53 -4.8641489e+54)
(-7.6041952e+55 -2.0354204e+53 -4.9820186e+54)
(-7.6376167e+55 -1.4316472e+52 -3.8819337e+54)
(-7.5373524e+55 2.0145412e+53 -4.1874117e+54)
(-7.4768832e+55 1.7323366e+53 -3.425473e+54)
(-7.4658995e+55 5.2361391e+52 -3.825778e+54)
(-7.3954246e+55 2.7243609e+53 -3.9218621e+54)
(-7.4024939e+55 2.859239e+53 -3.5534718e+54)
(-6.2892601e+55 3.6443229e+53 -2.6238548e+54)
(-6.2453189e+55 4.614206e+53 -2.847948e+54)
(-6.318212e+55 4.6710375e+53 -3.5048224e+54)
(-6.3557454e+55 3.3395633e+53 -3.3451478e+54)
(-6.3196309e+55 2.8006356e+53 -2.5429805e+54)
(-6.3326441e+55 3.2619735e+53 -2.6541228e+54)