/*--------------------------------*- C++ -*----------------------------------*\
  =========                 |
  \\      /  F ield         | OpenFOAM: The Open Source CFD Toolbox
   \\    /   O peration     | Website:  https://openfoam.org
    \\  /    A nd           | Version:  7
     \\/     M anipulation  |
\*---------------------------------------------------------------------------*/
FoamFile
{
    version     2.0;
    format      ascii;
    class       volScalarField;
    location    "9000";
    object      omega;
}
// * * * * * * * * * * * * * * * * * * * * * * * * * * * * * * * * * * * * * //

dimensions      [0 0 -1 0 0 0 0];

internalField   nonuniform List<scalar> 
34378
(
2224.8922
4421.9324
3364.1573
2266.6956
1193.8738
4104.3572
1062.5013
2152.6829
9641.0455
2467.2374
8775.6663
3630.865
6093.182
7457.0694
1908.8643
2070.9189
2989.5779
3241.5651
1526.4794
1509.585
7779.3687
2033.1238
998.59363
816.56675
409.91118
2213.9341
2168.6248
2191.3592
1142.6224
1144.0925
2582.2905
884.58679
821.16828
18719.532
6583.9814
2733.1061
974.23273
1116.0376
3185.2518
2883.5563
7988.0797
7382.0509
16486.658
6748.8655
18278.612
2943.1739
6555.775
11287.652
12130.344
4864.3447
4116.4801
4381.4709
12826.746
12868.923
4367.0806
4461.458
2319.0229
2454.5539
5030.6733
5067.3138
2382.9034
5020.8221
2453.6859
12985.404
13224.266
4547.0148
4438.7197
866.1816
1067.653
1066.732
2107.1548
2000.7202
2001.7196
2016.5873
1735.3713
1541.0802
1551.4719
1693.9219
678.22189
1784.7791
1560.7642
657.25814
565.72605
561.41013
388.67837
390.34646
403.44187
402.44727
2050.7401
2102.6229
5067.3033
5097.2378
5017.4301
4958.5912
4667.4536
4782.3603
2057.8497
2219.2063
2044.0472
2166.3244
639.53557
612.75553
2433.4835
865.21464
822.08842
16427.674
16029.868
30756.582
31232.677
3822.4869
3982.6733
7582.9154
7836.1012
3791.4846
1405.4794
1299.094
3589.5563
935.62955
1049.0699
2710.3392
2548.5043
8232.9434
4756.0876
5105.9018
10185.374
9760.704
4125.4084
4435.7797
8344.0955
9030.6496
18598.533
18591.882
26787.291
12219.953
28330.685
11609.32
8609.1133
17924.423
17349.087
30186.125
29640.822
3958.8734
1504.5741
1497.4394
4112.8244
8190.9584
8583.9391
11552.013
12118.202
9529.5582
18515.504
19285.607
7466.3632
7554.1911
20075.988
20063.074
7698.1828
7818.5002
9621.7201
4609.7856
4386.9215
20957.22
21376.013
8185.7979
8100.6089
21235.953
20843.957
8040.2237
8203.8728
9267.4906
9325.4561
5105.9788
4786.2789
8978.7381
9089.2345
4896.5334
4697.85
4842.0361
8748.5975
8755.7893
4948.8435
20969.583
21567.255
8159.198
8218.1297
22012.679
21707.493
8276.7672
8379.0257
1519.9474
1701.264
1897.658
1589.9502
2066.4079
1964.3309
2140.4948
2197.672
2141.5259
2206.7255
2077.1085
1970.7797
4659.1531
4937.1598
5002.4379
4448.1565
5254.9914
5291.4361
4678.8402
4894.1427
4908.0297
4966.303
4954.029
4687.4062
4603.5302
4643.8421
4689.7324
4435.4801
4173.2263
3980.1808
4006.1594
4010.5821
3341.2752
3473.5053
3178.5777
3140.9007
1320.8596
3276.3117
3280.5268
3637.9055
1287.6819
3500.4906
4194.0883
4205.0759
4453.6794
4259.1307
1146.0713
1148.5375
4552.1175
4281.3438
4288.8843
4367.7153
3337.0273
3346.7778
3599.5344
3724.4362
1325.9592
1273.7675
1138.9718
1128.774
828.30679
965.11317
485.76284
812.64884
948.41011
408.5883
408.05094
483.75727
948.96861
801.28886
805.21248
932.14695
5017.6456
5048.3989
5065.1605
4821.7016
4942.0948
5392.125
5389.9391
4755.5697
9368.0062
9284.8471
9161.8607
9151.8276
9166.2201
9079.4116
9173.1074
8990.7831
8791.4505
8594.0134
8476.5195
8308.4477
4422.1492
4918.5891
5282.9199
4813.7485
4688.281
4369.371
4491.8823
4746.4443
698.66212
676.24949
595.57988
583.04122
2465.4953
4220.1956
4287.313
829.78508
791.82351
13082.054
12750.301
19398.229
19340.422
13083.607
12674.23
19207.236
18958.336
33385.344
33588.591
45647.369
45083.31
46331.42
46103.566
33063.648
32720.401
7792.7712
7853.3514
3084.6683
1223.9464
1171.394
2953.9814
874.67154
962.19192
2609.7193
4935.1923
4696.4213
2532.4048
4520.0519
4370.8602
5914.6154
5698.7555
10885.283
11518.029
9159.5442
8636.7549
8014.5305
8282.533
18425.402
15447.354
15513.312
23554.205
23805.86
14894.046
14275.356
23015.489
22551.676
34634.503
35509.632
39011.461
40242.45
24322.724
19165.52
23727.441
35294.705
41719.171
42201.276
35321.006
19097.957
18781.903
21873.489
22278.845
6329.8695
6431.5406
12118.309
12389.44
13993.654
13441.588
21575.746
21082.345
13477.64
12928.771
20403.441
19871.268
34464.305
34090.973
44770.305
44530.124
34980.864
43455.084
35360.251
44255.649
3219.5389
1294.2256
1294.6392
3300.6523
6717.5718
6378.1384
12158.839
11580.726
6865.9129
6940.1446
12437.489
12407.74
18748.372
20617.698
18842.772
20684.349
18378.815
22008.815
19094.774
21533.624
18095.351
17626.895
7221.5428
7416.37
32876.702
32264.835
11138.305
11051.485
34325.888
34122.313
11395.676
11362.344
35507.406
35441.125
11760.819
11607.852
34966.735
35328.294
11709.954
11642.731
18164.313
18126.685
7363.2831
7649.1705
36922.511
36533.845
12222.01
12129.337
37699.489
37225.348
12363.862
12267.799
36974.842
37068.619
12214.76
12044.849
35760.377
36560.142
12072.436
11981.581
18153.441
18400.644
7864.136
7886.992
18733.038
18113.309
7894.9838
7973.9097
10107.197
16241.588
17056.426
7989.3365
7768.253
16527.025
16904.93
8142.7634
7981.7757
15806.06
7957.7757
16059.253
8038.1027
15755.989
15848.784
7851.476
7823.9844
36847.218
35868.191
12031.551
12023.846
37647.755
37957.973
12324.477
12300.568
38550.351
12547.164
12451.814
38544.042
38265.757
37362.815
12408.678
12473.321
376.86018
3944.3135
1284.9102
1132.211
3077.734
3028.6813
3329.5838
3165.7525
3717.0004
3901.9933
4002.0054
3779.6492
4135.2587
3909.3654
3921.2192
4052.5402
3301.0278
3460.964
4027.6494
4197.6644
4157.0992
4406.7316
4585.5466
4199.2924
4417.85
5050.3747
4598.2253
4508.6546
4880.3392
4671.6426
4686.8188
4706.5893
4898.669
4818.3343
4694.523
4474.076
4556.1853
5202.9842
5076.917
4993.9223
4816.3596
4623.0651
5013.0886
4775.7769
4342.7954
4314.9026
4488.5193
4596.8749
4169.3117
942.65587
825.63059
9197.9808
8240.735
9130.1429
8052.4602
10007.135
9910.5423
9228.9929
8919.9471
9667.8852
8920.1605
9710.7243
8750.3066
9515.2074
8532.4979
9359.2006
8257.6893
10429.852
10371.617
9641.4649
9313.1154
10456.897
9669.167
10528.639
9453.3826
9934.8433
9819.0194
8925.8961
8608.03
8928.2896
9926.2458
9952.9738
8721.0609
10652.705
10071.483
10727.023
9777.4354
10487.195
10550.675
10127.317
9845.066
10463.189
10422.162
10093.228
9711.9342
10633.036
10571.102
10027.091
9614.1898
9876.0885
9254.2718
9948.8946
9038.8623
10077.677
9984.8237
9650.2395
9245.8603
9787.7868
9340.1869
9890.2238
9140.3501
10199.122
10091.166
9586.415
9191.4716
9557.4422
9216.4351
9673.0974
8996.7127
9299.6402
9144.342
9130.0511
8686.39
9098.7354
8891.2168
9201.6358
8703.5356
9806.1249
9664.4104
9494.0407
9041.6218
8260.8024
8520.4964
8092.6374
8071.2913
8108.8371
8331.7334
8182.5441
8143.6827
6961.9949
6820.9524
2801.5053
5874.4409
5843.2656
7089.0173
6748.415
2688.0475
5794.8128
5967.6275
2604.4779
2656.6964
7423.6824
7178.9077
2800.7038
6176.4131
6256.0588
7446.361
7295.3426
2877.8652
6290.3808
6294.2953
8582.0691
8868.1142
8631.9546
8635.6723
2695.0687
2692.4843
8566.1959
8836.5088
8514.1923
8490.6468
9618.3597
9529.2123
9549.9515
9153.0659
9634.5718
9542.5753
9678.9814
9290.5781
10178.259
9933.5974
10236.913
9649.9232
10171.137
9923.1932
10106.59
9508.6078
2183.8242
2177.2013
2359.3666
2317.0752
2131.2996
2196.303
2339.7681
2249.9969
10258.969
10006.598
10339.274
9761.4486
9878.3085
9820.4152
9793.6107
9462.9084
9722.5046
9656.7139
9779.161
9423.5136
10441.447
10385.692
10160.222
9807.3478
7713.5711
7475.6455
2864.28
6472.6255
6532.2622
7578.7436
7423.2286
2949.064
6388.5528
6387.0519
8855.2599
9111.896
8784.095
8784.6212
8705.5398
8977.4393
8744.0008
8753.2302
2766.6082
2743.557
2797.4452
7526.2573
2868.9559
6346.9214
2688.7275
2701.1785
2430.4924
2230.5152
2196.8264
2360.4879
2203.769
2172.6882
2354.4216
2335.3052
1287.7154
1376.5147
1454.4776
1237.093
714.68345
1706.3799
1644.3332
1919.4219
1834.6323
550.96556
544.45711
703.58386
1368.9747
1386.8673
1212.6408
1218.4761
1648.3856
1649.1962
1882.0371
1857.8029
480.70132
479.2723
544.42689
699.10424
692.85113
542.75937
1664.5804
1641.9007
1861.3314
1916.2401
1393.4562
1219.682
1196.366
1364.5721
1383.9127
1220.2073
1254.4128
1416.0957
1863.9968
1642.6864
1682.5953
1873.3379
10668.629
10766.857
10069.811
9851.1937
10724.037
10674.237
10346.01
10018.201
10535.546
10181.324
10599.191
9950.1981
10879.373
10840.695
10253.163
9923.4235
9905.0854
8904.2456
10018.617
8765.1636
10654.777
9827.5488
10619.594
9582.7501
10441.563
9649.4776
10520.611
9486.4518
10130.338
10117.684
9075.7723
8853.3232
13121.329
13140.373
13130.053
13047.768
12962.771
12982.69
12628.399
12683.082
12860.77
12817.885
12934.221
13052.2
12824.503
12714.811
12631.149
12736.12
12426.951
12250.781
12418.048
12293.43
7864.7972
11831.451
11666.3
12136.738
12006.96
8252.3645
8489.0631
8052.3294
8658.5195
8566.5581
8873.6922
8496.3595
8012.8513
8389.1424
4758.3745
7811.6053
8340.433
8072.4331
7859.6772
7815.389
7950.2353
607.44667
599.41578
551.39685
847.1012
890.86904
546.11126
804.12425
820.44284
4239.7684
4376.7061
2386.0123
4885.4071
16028.014
15748.787
22775.889
18773.256
22899.032
18608.628
18902.911
18750.02
23014.743
23058.948
16201.713
15698.4
23069.88
19023.757
23138.703
18857.816
18877.767
18639.698
22979.458
22883.673
47136.108
27126.766
27391.501
47705.752
27405.343
27461.917
46412.642
47122.546
69916.87
52911.263
52778.718
69863.152
51821.723
69600.362
70045.038
52274.559
70401.919
70205.093
53171.527
53554.961
53053.383
69745.881
70259.536
53017.839
27458.079
27335.001
45643.255
45874.703
27089.178
27231.885
45023.51
44717.783
6337.4743
6381.5147
10683.09
10621.011
6330.7512
6431.888
10652.475
10676.581
2677.2651
5958.8722
5869.2023
1029.7204
1020.0287
2678.0451
5586.8726
5293.772
4555.39
4758.177
2462.304
5131.3911
5013.949
4357.0485
4555.2857
2418.5712
4989.6202
4907.5976
9888.9344
10555.847
6844.8388
6974.6805
11318.56
11259.684
16564.392
16379.765
6678.3639
6811.5029
11203.058
11046.358
16508.743
16108.49
6411.4942
6522.8788
10837.091
10715.993
16290.999
15748.539
6522.222
6685.3861
11013.222
10939.072
16329.296
16031.669
16508.819
16317.035
25140.024
24398.988
20031.025
20130.369
25239.136
25370.073
25042.505
19919.621
19686.797
24775.239
24266.164
19615.867
24019.096
19294.414
19278.258
18915.387
23673.316
23398.443
34361.68
33781.216
34277.035
53993.05
53025.691
33550.467
33443.982
54332.194
53717.709
37153.646
48274.176
63474.342
64364.707
48478.132
49515.02
65108.033
65956.106
49836.583
35520.599
37383.697
17101.307
17242.23
25771.316
25645.473
34992.678
35596.87
36716.293
36816.249
32085.64
31597.286
53516.925
53492.34
50864.277
66335.848
66690.354
50533.794
50479.883
66674.25
67417.84
50550.926
29774.952
30415.545
52764.115
52467.221
18102.46
18121.935
26862.232
26748.33
17825.774
17538.218
26724.255
25952.343
35476.938
35813.406
35045.991
36005.621
35760.081
34422.385
36485.82
36031.332
11194.666
11541.141
18863.443
19074.359
23226.314
23245.681
23298.04
19129.06
18922.369
23280.489
23182.582
19097.655
23170.058
18834.567
18866.189
18557.172
22983.883
22840.143
27843.424
27891.347
49097.514
49200.893
27184.449
27514.866
48049.735
47714.72
52455.848
69092.295
69551.458
52144.001
69592.228
69654.296
51959.02
51827.712
28856.771
28983.467
51858.331
52094.917
51963.949
67900.867
68436.701
51793.605
28361.71
28639.04
51237.389
51027.032
69402.199
69066.817
52421.132
52471.861
2751.8683
5975.5052
6253.7663
1072.5775
1070.9758
2754.1916
6425.1981
6358.2816
11729.517
11188.232
11992.838
12147.658
18224.464
26683.749
18682.918
27307.263
33631.728
33324.045
34328.257
33476.02
18619.221
18272.367
27179.957
26601.524
33444.168
33653.441
33910.714
33752.732
24558.348
16911.913
17316.476
25870.345
25103.109
33150.376
34522.601
35000.772
35361.218
26223.794
26433.209
18076.399
18276.135
33717.044
34631.515
34328.61
34506.217
370.45985
32161.61
32451.959
11026.489
10795.496
31298.564
31728.658
10875.033
10762.299
32926.822
32054.453
34279.246
34126.641
35539.529
35066.419
34866.282
35363.513
32688.619
32305.864
11249.196
11054.864
32900.842
33298.075
11216.764
11092.115
36933.756
36024.944
37627.96
37008.059
37141.299
36887.198
35634.641
36763.661
33610.858
33035.555
11736.279
11715.715
34295.896
33901.21
11940.311
11861.085
34193.741
34320.846
11979.187
11827.226
33059.246
34097.06
11889.301
11644.636
18656.465
17909.492
7500.123
7816.1499
31632.303
30579.211
10838.036
11081.993
32376.326
31947.211
11049.558
11362.804
32397.305
32221.511
11248.28
11366.704
31955.568
32140.864
11288.376
11454.874
31240.796
31357.829
11210.642
11245.779
31693.918
31726.87
11206.068
11275.911
31574.971
31283.358
11068.61
11094.497
31438.476
31492.258
11167.524
11234.685
36930.574
35873.437
37879.229
38159.488
38556.315
39033.65
38801.413
37412.984
9489.9977
9640.3725
8902.5327
9033.9498
2516.1223
2526.741
2663.2368
2586.0288
2087.7923
2190.8774
2165.3973
6581.6957
6389.887
5531.9773
5617.5261
6415.7853
6295.1697
5458.4904
5424.8424
7772.7417
7996.5432
7684.2386
7692.0913
7569.8652
7787.048
7572.867
7532.6586
8644.2824
8547.1855
8398.4577
8075.7276
8866.7859
8586.6304
8731.9734
8258.5061
9378.8144
8994.7664
9200.7022
8598.9031
9153.1673
8799.1867
8963.6128
8411.6705
10116.276
9636.7348
10076.155
9415.7448
9532.3555
9063.9196
9223.2657
8681.6517
10019.088
9494.903
9606.318
9043.2091
9562.7016
9085.1592
9534.0229
8969.9061
6821.0909
6055.9982
8417.5423
8380.6893
8517.4753
8143.9036
8178.0038
9145.4815
9317.8517
8386.459
8517.3781
9425.0146
9608.2132
8677.5587
8869.7732
9745.7868
8862.8331
9767.6708
8846.6916
9767.3742
9857.5822
9021.416
9060.2456
8854.3669
10035.874
9296.5909
9205.3964
9166.7584
8502.26
9945.9364
9221.4522
9532.8098
8774.8692
10079.474
9253.5545
9406.4207
8651.6298
9918.2098
9117.9813
9055.6434
8388.8223
9807.3438
9043.043
8613.0057
7919.1643
9394.8271
8620.4288
8932.0358
8250.1636
9490.7877
8826.292
8991.6661
8561.458
9119.2721
8586.9859
8691.4964
9000.0279
8690.9777
8324.9453
9462.839
8674.0519
9427.5844
8611.2476
8928.6672
8313.438
8860.7762
8135.9073
10457.539
10391.838
9808.9851
9595.362
10541.151
10445.342
9751.2929
9502.4101
10556.919
10178.769
9818.6589
9326.2774
10378.175
9774.6139
9993.9723
9312.4668
10329.181
10216.773
9429.7425
9220.8416
9808.0367
8733.053
9567.8137
8476.2635
10394.172
9522.4732
10009.484
9099.0374
8860.8961
9922.1553
9456.3097
8454.6272
9435.1905
8688.8602
9120.8489
8293.5168
9717.6804
8951.8968
9386.5067
8509.2402
9315.0318
8330.6658
8841.266
7865.8063
9030.4736
8067.1438
8593.0138
7672.5598
9463.7307
8968.4836
9215.1362
8559.5693
9842.7462
9546.9839
9191.9927
8709.1988
9697.5694
9164.2767
9476.7123
8760.236
9582.4635
8938.273
9255.2139
8494.4701
715.75332
1647.9492
1822.7886
1261.0119
1221.4519
1409.0902
1379.7164
11768.492
12608.703
11893.705
12578.316
12129.208
11310.393
11146.499
11987.909
12925.748
12055.146
12870.864
12117.281
12360.545
11534.748
12303.842
11404.518
14326.219
13598.184
13352.197
14283.344
14352.138
14236.18
13520.511
13409.763
12687.389
13805.68
12935.701
13768.667
13866.777
12750.295
13764.146
12883.696
12859.288
13694.091
12992.544
13769.851
13222.495
12392.948
12227.752
13256.637
13205.384
14023.409
13287.511
14157.409
13529.017
12648.09
13631.715
12529.77
13121.663
12381.166
12205.284
13066.04
11798.401
12588.77
12495.081
11609.02
13104.312
13157.487
12364.219
12295.001
11807.379
12588.142
11664.612
12604.379
14825.294
14094.119
13827.326
14745.386
14697.358
14706.671
13964.128
13786.46
13127.579
14274.765
13391.089
14195.891
14204.592
13099.776
14185.819
13278.493
14074.58
14954.998
14177.975
15067.166
14363.862
13449.516
13327.811
14465.066
14122.697
15140.712
14349.171
15093.361
14546.364
13601.65
14533.635
13380.886
13557.147
12821.523
12624.465
13475.389
13481.725
12732.78
13501.311
12633.448
12234.121
12033.254
13009.379
12948.081
12955.121
12951.314
12143.834
11981.324
13053.612
12243.404
12154.546
13110.769
12787.056
13618.329
12861.1
13699.128
13782.39
13782.244
12999.475
12870.726
13198.985
13216.626
12403.322
12220.719
15098.276
15830.128
15241.253
15921.336
15582.352
14745.632
14592.238
15701.929
15127.206
16020.112
15428.518
15955.028
15795.113
14924.335
15735.352
14577.189
16022.269
15523.749
15312.89
16078.74
16261.862
15720.126
15361.432
16139.477
15989.049
15388.274
15171.235
16048.387
16222.875
15570.321
15181.243
16108.37
15993.864
15486.047
15061.8
15806.384
15779.751
15859.717
15317.252
15014.362
15942.521
15307.593
14894.98
15749.023
15738.978
15806.263
15142.025
14810.866
15713.963
15144.859
14805.468
15559.186
15529.21
15567.672
14991.856
14733.028
14645.706
14314.529
15462.232
15363.277
15310.57
15340.438
14482.083
14188.855
13775.385
14523.982
13919.646
14608.869
14249.415
13446.494
13276.237
14346.289
14999.149
14119.989
14858.66
14250.568
14610.702
13763.838
14747.236
13591.264
15469.721
14938.28
14536.989
15316.346
15189.573
14681.15
14488.976
15259.729
14357.483
15380.715
14756.742
15240.968
14307.261
15151.006
14541.609
15242.656
14095.718
14816.468
14269.497
14885.782
14722.059
14089.392
13889.179
14793.835
14439.397
15144.972
14583.981
15264.125
15055.569
14401.202
15186.266
14197.011
15168.392
14582.415
14273.327
15056.193
14989.865
14437.077
15068.865
14251.787
14106.669
13801.175
14920.263
14866.123
14895.478
14802.377
13986.645
13770.432
14386.657
15196.491
14561.171
15289.697
15025.148
14383.334
14164.3
15096.736
15665.718
14708.025
15558.26
14896.668
15372.901
14694.021
15473.771
14455.364
16826.898
15881.881
15382.413
16638.744
16304.658
16365.978
15449.992
15094.698
14942.801
16258.052
15420.663
16080.683
15848.044
14699.257
15855.774
15034.068
15012.976
16151.902
15217.176
16263.379
15605.792
14770.984
14556.215
15698.586
15353.899
16621.221
15615.766
16665.195
16011.433
15125.649
16089.575
14855.239
15821.64
15204.165
14783.206
15644.258
15461.819
14878.144
15481.821
14621.256
15037.744
14598.692
15667.265
15505.91
15401.565
15359.048
14743.236
14444.617
19142.78
18888.019
17530.352
16831.521
17574.436
16549.928
15939.914
17820.92
18573.789
18352.67
16343.3
16983.55
17299.126
17128.758
16065.513
15540.194
16468.907
18455.548
16817.667
18539.157
17108.433
15851.137
15568.625
17201.008
16858.5
19101.38
17358.019
19052.697
17671.662
16317.969
17636.12
15900.623
19995.55
20165.128
18243.912
17745.994
18899.041
18209.353
20740.907
20796.822
5185.1556
5220.5453
5299.8354
5169.4453
19257.819
19929.832
20691.844
20575.668
18976.661
18127.267
18394.474
17539.082
20084.218
19928.115
5378.1251
5291.2398
5096.7733
5110.647
19257.378
19868.139
4664.0041
4864.6078
4873.256
4614.6722
4786.4057
4816.5876
4822.0174
4721.9647
21062.041
20958.421
19418.199
18601.844
19120.422
18377.979
20823.211
20746.361
5645.9731
5530.5438
5441.1795
5442.0063
20023.998
20266.099
20703.634
20824.401
19108.67
18562.679
19547.901
18836.48
21219.641
21229.837
5676.1409
5556.817
5550.2447
5555.8605
20422.278
19941.887
19234.208
19242.477
17292.664
17705.339
17975.245
18021.782
16796.646
16467.58
17496.359
19667.21
18059.219
19531.004
17121.583
18354.548
18252.528
16610.485
5119.6581
5064.7693
5040.4216
5020.1309
4960.6257
5046.3808
5080.9385
4914.6403
17263.337
19499.773
17922.494
19233.678
16947.189
18174.219
17959.869
16381.194
17093.136
19266.333
17659.513
19076.859
16714.579
17967.094
17840.804
16225.666
15864.932
17232.713
16362.888
17040.556
16724.734
15929.918
15439.085
16539.832
16940.548
15745.941
17044.427
16146.913
16558.385
15724.072
16468.635
15329.458
15982.505
17090.438
16224.982
17154.041
16602.223
16684.777
15821.01
15581.622
16101.613
17430.568
16528.604
17332.021
16118.728
16932.099
16832.826
15677.204
15471.904
16229.712
15672.25
16294.084
15566.309
16140.98
16208.851
15317.173
16412.592
15538.35
16530.381
15925.833
15797.908
16420.474
16298.65
15347.333
15282.983
16306.089
15730.71
16109.391
15574.4
16184.54
15985.058
15108.289
16062.307
15214.632
16149.491
15543.704
15397.187
16038.201
15951.059
15008.152
3980.2087
4068.5671
4149.3055
4007.607
4013.3844
4016.7518
4120.7198
4069.6129
4638.3644
4523.5942
4516.1749
4547.4628
4626.9251
4551.9675
4445.3627
4484.5034
3776.0358
3926.7235
3985.2416
3804.8102
3925.4911
3906.9298
3980.1163
3976.4072
4370.1928
4347.8306
4430.0472
4363.5728
4449.5529
4371.5304
4201.529
4232.7094
15462.244
16251.164
15685.535
16297.638
16129.518
15494.003
15250.287
16148.789
16626.542
15730.705
16642.066
16030.015
16527.549
15842.393
16471.852
15505.501
17678.24
16807.091
16449.684
17614.477
17419.742
17517.846
16649.467
16247.92
16024.119
17196.085
16382.703
17127.245
16957.565
15823.601
17095.526
16262.684
16055.325
17186.074
16323.361
17236.531
16677.856
15881.91
15619.526
16710.29
16339.363
17570.219
16653.719
17573.887
17065.675
16227.361
17047.735
15882.367
16787.851
16207.369
15891.515
16703.023
16714.72
16116.054
16534.716
15692.178
16031.125
15701.898
16687.409
16611.653
16423.394
16640.526
15951.238
15477.17
21675.471
21603.305
19984.476
19270.397
19571.205
18859.322
21247.787
21127.559
5892.9754
5788.061
5719.6444
5717.9738
20460.201
20892.459
21207.989
21267.481
19511.817
18916.875
19921.432
19276.095
21720.858
21745.648
5767.8707
5669.1029
5676.4296
5658.6204
20947.235
20462.646
20036.953
19833.544
18433.885
17872.508
18526.529
17401.514
16951.023
18663.614
19694.227
19471.271
17561.475
18117.153
18420.305
18267.674
17178.82
16701.959
17518.897
19566.576
17965.757
19506.906
18181.571
16936.018
16587.864
18173.66
17820.801
19998.33
18309.557
19895.961
18576.133
17270.149
18526.365
16854.297
5243.4842
5202.4792
5205.4372
5160.9193
5194.996
5276.0167
5328.7047
5174.753
5585.6858
5507.4211
5429.3133
5398.9278
20883.779
20819.8
19298.305
18664.734
5719.378
5609.8165
5539.3445
5535.621
20108.167
5169.8005
5097.5164
5069.02
5038.5914
4993.3225
5047.3705
5073.7216
4942.663
4794.8019
4727.3888
4735.1594
4724.3861
4301.6247
4185.8457
4225.3159
4266.7238
4122.5132
4206.2247
4317.8779
4187.4262
4847.0854
4753.1959
4656.1978
4695.6816
4059.9912
4115.3053
4189.8205
4100.6404
4116.0472
4107.592
4200.5448
4162.2997
4611.1368
4606.1286
4686.4735
4605.5911
4643.38
4591.4276
4531.0365
4535.0832
1749.4068
1790.8906
1951.3294
1917.6287
1129.3412
2233.9107
2260.0329
2480.1131
2407.8573
2358.3969
2376.1608
2571.7925
2545.3931
1843.463
1674.6858
1095.0919
1668.1857
1825.8613
814.35183
798.28457
2922.9787
2904.7879
3018.5711
3056.722
2755.7555
2846.281
2854.4528
2989.2804
3410.5294
3534.2033
3522.4362
3407.2348
3380.8775
3525.0121
3382.6206
3242.6796
680.69623
668.39793
1082.4409
1071.2216
791.42998
793.5307
2459.0419
2231.9666
2505.0939
2227.5799
2176.3045
2199.6843
2471.5287
2436.3632
1637.7121
1642.4198
1814.9512
1804.4007
1601.4964
1623.2197
1803.1847
1762.0151
3039.082
2841.3629
3025.6009
2838.4902
2900.4124
3090.5969
3031.5437
2897.2572
3461.5082
3449.6732
3616.8
3574.4837
3656.548
3500.1517
3451.6407
3555.9163
466.85185
465.61052
665.97828
668.72667
1080.2281
1058.3476
801.5319
786.54765
1081.447
1089.7835
809.86693
811.56167
2970.2042
3198.0622
3206.4686
2999.0891
2907.9783
2961.7473
3185.5903
3092.4685
3527.7451
3616.9926
3782.3239
3663.4194
3678.6885
3619.3002
3773.6537
3773.048
2275.0191
2561.4866
2533.1257
2261.0119
1802.3483
1655.0473
1635.1323
1845.2452
1600.9388
1605.7597
1797.0578
1769.3179
2192.1666
2222.4662
2531.938
2467.4498
2499.3273
2229.6895
2220.318
2474.1119
1807.7039
1635.3042
1631.1347
1795.7201
1753.9529
1715.1908
1896.6084
1924.9316
2559.1905
2312.7127
2347.2933
2557.7137
3698.3134
3547.4523
3535.6148
3658.9689
3115.6959
2921.5867
2896.8244
3074.1164
2957.7825
2955.6399
3120.9511
3091.2298
3694.2771
3533.1639
3502.8483
3628.5443
15588.71
15003.928
14852.621
15635.823
15985.68
15968.193
15311.571
15172.038
14316.396
15283.498
14468.334
15359.922
15742.75
14623.025
15631.937
14762.154
16482.26
15960.98
15653.892
16393.851
16441.198
15887.312
15458.346
16183.268
15442.582
16440.347
15764.029
16352.227
15256.99
16409.695
15686.72
16153.748
15181.775
15916.096
15403.225
15913.908
15851.583
15213.992
14992.604
15858.179
15470.904
16302.24
15744.923
16222.215
16243.77
15546.796
16181.386
15256.393
16182.21
15527.814
15302.006
16083.962
16138.269
15464.653
15931.342
15156.824
14786.046
15834.565
14968.295
15841.506
15713.481
15812.262
14921.117
14620.583
13412.627
13469.092
12693.28
12611.848
12083.944
12922.581
12003.091
12872.53
13678.33
12921.252
12928.222
13816.22
12274.084
13125.036
12326.944
13249.435
15157.261
14396.396
15187.073
14261.408
14620.49
14581.213
13662.522
13527.534
15072.909
14175.185
15153.61
14378.717
13653.171
14602.113
14566.18
13464.475
14656.688
14715.616
13939.657
13821.393
14182.876
13125.264
14124.256
13253.387
14977.162
14215.595
14163.443
15085.268
13432.985
14421.578
13492.543
14556.179
13828.601
13073.042
12996.186
13858.774
13835.39
13857.252
13088.597
12979.795
12489.557
13266.743
13312.613
12398.13
13306.048
12498.45
13309.316
12338.203
11373.165
11622.957
11715.001
11409.448
11948.897
11681.578
11963.949
11712.611
12482.68
12433.925
12550.852
12698.689
12718.653
12538.267
12667.515
12303.702
11820.152
12123.174
11970.508
12173.408
8120.5077
8446.5866
11350.381
11809.618
11676.721
12042.695
11859.614
11989.436
11725.116
11887.033
11794.013
11811.656
11938.829
11918.305
554.13958
921.22296
914.73067
546.95038
880.67542
907.1197
502.43724
799.39705
843.76667
811.96737
791.70759
501.05868
780.83169
784.42994
798.88251
787.62945
7132.1047
7153.3107
7116.3657
7145.5359
2147.2308
5293.2874
4861.2305
8167.5665
8146.6509
7133.6462
7266.5026
16916.264
20713.758
21065.385
16850.027
21306.967
20867.466
24733.39
24877.287
25016.952
25006.749
17049.558
21025.044
21398.642
16738.873
21305.006
20751.597
25063.809
25139.808
24967.932
24811.282
63612.32
29073.492
29275.812
63130.844
29375.74
29396.91
61156.884
62859.621
92879.09
60526.552
60521.858
92357.947
60070.481
93416.728
92803.216
60441.929
93042.786
92265.174
60740.835
60786.964
60580.175
92397.298
93124.48
60609.969
29469.216
29386.361
60223.49
62098.346
29124.275
29250.118
60640.707
59204.479
11610.52
11530.76
11585.182
11599.039
4954.414
4981.4692
2430.4541
5156.4157
5199.7801
4781.6962
4946.5967
2465.0812
5214.8584
5123.8484
7329.1281
7415.6801
7496.4626
7595.0425
2189.9253
5467.3583
5337.1532
4920.5536
5145.4458
8456.2163
8404.5756
7549.4643
7767.9429
8317.334
8289.4333
7355.5268
7575.8828
7164.2203
7191.9286
7228.1151
7324.0583
2160.9381
5277.8837
5345.4293
4982.9278
4807.9251
8307.5603
8235.1975
7266.789
7478.2588
8181.6171
8178.1717
7184.1562
7322.081
7005.684
7119.4935
11355.33
11595.169
17134.731
16854.032
7226.6386
7315.3962
11715.522
11848.664
17487.728
17567.231
12203.356
17385.442
12208.994
17380.564
21513.403
21184.445
21571.4
21165.832
12114.773
17529.63
11998.944
17250.606
21089.457
21514.801
21399.818
20838.288
11782.058
17259.344
11645.506
16858.483
20929.213
21406.048
21221.185
20604.325
11956.319
17347.447
11893.496
17210.103
21265.342
20907.463
21444.448
20971.79
21231.133
21164.021
26794.026
26877.131
26368.946
20867.718
20708.473
25950.435
25475.03
25483.228
25494.132
25463.154
25401.883
25413.015
25286.684
25125.428
54052.345
35868.948
35102.62
54080.165
30818.84
30636.514
76511.802
76392
30421.42
30292.573
75231.514
75217.495
47264.933
62694.129
62815.421
47229.214
59338.93
87969.015
88263.848
59653.749
60077.726
88682.993
89236.415
60052.299
36421.833
36523.282
55036.99
54895.173
48030.948
62743.51
62851.972
47570.685
27636.379
21757.776
21880.889
27861.2
27613.156
21812.693
27429.231
21914.273
37600.848
37367.627
55974.683
55892.369
55969.994
38270.068
38154.632
56585.911
47649.96
62291.24
62750.208
47957.193
48480.157
62933.055
62977.949
48339.108
30023.273
29950.59
71659.443
73633.199
60224.065
89426.752
89465.736
60177.154
60055.594
89584.228
90560.597
59913.461
29501.96
29692.793
68773.428
68561.026
18022.178
18199.199
22569.56
22302.924
28562.29
28963.397
28990.136
22806.028
22620.531
28816.417
18035.613
17758.208
28610.013
22585.87
28633.961
22726.319
21971.185
21920.747
28182.017
27787.089
39619.696
39272.901
57056.514
57670.402
48069.802
61938.17
62629.188
48213.439
39423.472
39846.914
57948.548
57748.828
62672.999
63053.616
48907.471
48582.88
39036.517
39273.661
57225.129
57174.813
37856.599
38715.566
56834.279
56317.039
48928.378
62368.391
62579.527
48527.347
61967.489
62769.337
48648.461
47974.983
7406.6465
7437.9997
12134.1
11921.652
7460.741
7516.2811
12069.643
12138.823
25076.575
25184.968
25274.215
25224.518
25158.067
25157.82
24965.982
24766.063
29537.833
29505.428
64513.767
63823.337
29131.009
29329.505
63281.737
63229.695
60612.123
92003.831
91977.476
60670.352
92768.737
92581.231
60424.79
60233.073
29560.4
29412.491
68984.483
67620.423
60433.462
90832.921
90738.331
60589.229
29624.954
29653.645
67227.07
66416.433
92176.609
91704.631
60765.816
60767.763
5176.5929
5037.1863
2505.9839
5333.3129
5278.8213
5153.4995
5163.3621
2493.7778
5281.7716
5283.5924
7962.8475
7851.0483
12694.705
12580.262
18178.754
18181.043
7748.8853
7556.4287
12130.706
12467.175
17964.738
17651.135
7876.7423
7900.0032
12643.715
12414.107
18689.676
18293.17
8038.8836
8063.4015
12928.174
12862.651
18441.588
18826.509
28742.303
22834.161
22860.874
29420.302
29823.945
23488.795
23229.646
29667.363
39061.214
39991.563
57397.507
56916.232
60523.012
60916.268
46181.002
46540.446
57178.6
40617.208
40140.32
57421.63
46465.058
60250.789
61410.175
46904.266
29586.73
23457.11
29495.684
23427.132
22685.36
22644.763
29077.107
28872.419
46435.437
61095.519
61052.012
46440.269
46475.377
60993.815
61281.169
46592.193
39739.231
40143.699
56746.377
57316.512
39212.955
39455.517
56737.455
56411.392
24695.561
34511.29
38287.462
36685.918
34639.082
22035.393
28109.763
22011.769
28052.698
21735.017
21500.208
27128.702
27757.471
54942.835
36886.091
37674.585
55680.788
56246.748
38494.664
38200.19
56043.957
46325.235
60546.714
62374.385
46834.206
47070.099
61332.361
62254.721
47690.576
22256.019
22277.144
28482.579
28297.995
28542.37
22542.066
22381.71
28615.558
38198.625
38701.481
56393.346
56359.19
47535.974
61087.369
61514.297
47105.239
56326.441
39127.783
39036.07
56449.005
61030.953
60990.403
46867.407