/*--------------------------------*- C++ -*----------------------------------*\
  =========                 |
  \\      /  F ield         | OpenFOAM: The Open Source CFD Toolbox
   \\    /   O peration     | Website:  https://openfoam.org
    \\  /    A nd           | Version:  7
     \\/     M anipulation  |
\*---------------------------------------------------------------------------*/
FoamFile
{
    version     2.0;
    format      ascii;
    class       volScalarField;
    location    "9000";
    object      pMean;
}
// * * * * * * * * * * * * * * * * * * * * * * * * * * * * * * * * * * * * * //

dimensions      [0 2 -2 0 0 0 0];

internalField   nonuniform List<scalar> 
34378
(
-1.3594183e+103
-1.4127474e+103
-1.3554839e+103
-1.3185916e+103
-1.3498693e+103
-1.341824e+103
-1.2976509e+103
-1.34749e+103
-1.3587931e+103
-1.3616326e+103
-1.3773196e+103
-1.4194084e+103
-1.3311859e+103
-1.339456e+103
-1.3506188e+103
-1.3413829e+103
-1.3109249e+103
-1.2785945e+103
-1.2649332e+103
-1.2972357e+103
-1.3404845e+103
-1.3516721e+103
-1.1941336e+103
-1.1524238e+103
-1.128803e+103
-1.3130672e+103
-1.3091844e+103
-1.2853922e+103
-1.2365827e+103
-1.2143407e+103
-1.3288836e+103
-1.3253152e+103
-1.3281399e+103
-1.3407803e+103
-1.3293018e+103
-1.3652919e+103
-1.3225988e+103
-1.3209581e+103
-1.3283617e+103
-1.3269932e+103
-1.3336606e+103
-1.3298773e+103
-1.3435045e+103
-1.3650708e+103
-1.3416893e+103
-1.3603427e+103
-1.3492444e+103
-1.2994918e+103
-1.3124642e+103
-1.2839579e+103
-1.3162349e+103
-1.3007985e+103
-1.3234239e+103
-1.3259881e+103
-1.3263437e+103
-1.3267803e+103
-1.2990656e+103
-1.2739718e+103
-1.2623568e+103
-1.2497056e+103
-1.2585268e+103
-1.2536487e+103
-1.261484e+103
-1.3311647e+103
-1.3327485e+103
-1.3299348e+103
-1.3308632e+103
-1.1309029e+103
-1.1401398e+103
-1.1531632e+103
-1.2280392e+103
-1.2534054e+103
-1.202503e+103
-1.1845132e+103
-1.1627081e+103
-1.1514742e+103
-1.1614728e+103
-1.1786578e+103
-1.1264435e+103
-1.1915985e+103
-1.1712517e+103
-1.1428403e+103
-1.1112497e+103
-1.1149303e+103
-1.1278393e+103
-1.1275509e+103
-1.1440933e+103
-1.1410214e+103
-1.2181323e+103
-1.2627444e+103
-1.3198262e+103
-1.3163957e+103
-1.3027983e+103
-1.3102207e+103
-1.2898809e+103
-1.2698663e+103
-1.246491e+103
-1.2254851e+103
-1.2193357e+103
-1.2160128e+103
-1.3039301e+103
-1.30906e+103
-1.3163928e+103
-1.312967e+103
-1.3177752e+103
-1.3257862e+103
-1.3273889e+103
-1.3304387e+103
-1.3316934e+103
-1.3217156e+103
-1.3181638e+103
-1.3260668e+103
-1.3231686e+103
-1.324833e+103
-1.318945e+103
-1.3206894e+103
-1.3271358e+103
-1.3083912e+103
-1.3012509e+103
-1.2995187e+103
-1.3093368e+103
-1.3275483e+103
-1.3051254e+103
-1.2995243e+103
-1.3085054e+103
-1.3110023e+103
-1.3153023e+103
-1.3102732e+103
-1.3198948e+103
-1.3161591e+103
-1.3139792e+103
-1.3161186e+103
-1.3119883e+103
-1.3258743e+103
-1.3179077e+103
-1.3114976e+103
-1.3217277e+103
-1.3214283e+103
-1.3233888e+103
-1.3271399e+103
-1.325099e+103
-1.3126915e+103
-1.3127464e+103
-1.3147966e+103
-1.3172213e+103
-1.30009e+103
-1.3088261e+103
-1.3001931e+103
-1.2955209e+103
-1.2629165e+103
-1.2869562e+103
-1.2957553e+103
-1.2899218e+103
-1.2798033e+103
-1.3078378e+103
-1.3125298e+103
-1.3065656e+103
-1.3020208e+103
-1.2436859e+103
-1.2454841e+103
-1.2687837e+103
-1.3204969e+103
-1.3232447e+103
-1.3142476e+103
-1.3176305e+103
-1.3277802e+103
-1.3289734e+103
-1.3232079e+103
-1.3225154e+103
-1.2270694e+103
-1.2305539e+103
-1.2276721e+103
-1.2349125e+103
-1.2294358e+103
-1.2224956e+103
-1.2234476e+103
-1.2341737e+103
-1.2230687e+103
-1.2219394e+103
-1.226166e+103
-1.2257174e+103
-1.3325175e+103
-1.3337692e+103
-1.3291508e+103
-1.3270455e+103
-1.3363088e+103
-1.3367941e+103
-1.3315435e+103
-1.3319096e+103
-1.1396223e+103
-1.1472875e+103
-1.1367255e+103
-1.1332937e+103
-1.144168e+103
-1.147704e+103
-1.1751265e+103
-1.1688049e+103
-1.1523867e+103
-1.1822463e+103
-1.1973029e+103
-1.1622984e+103
-1.2420792e+103
-1.2313485e+103
-1.2199084e+103
-1.2602017e+103
-1.252072e+103
-1.244506e+103
-1.2820266e+103
-1.2737012e+103
-1.2210242e+103
-1.2010799e+103
-1.208066e+103
-1.2287323e+103
-1.200042e+103
-1.1906223e+103
-1.182819e+103
-1.2097164e+103
-1.1691784e+103
-1.164977e+103
-1.1592113e+103
-1.1765306e+103
-1.158287e+103
-1.1530311e+103
-1.1476432e+103
-1.1516481e+103
-1.1335958e+103
-1.1608368e+103
-1.1567241e+103
-1.164108e+103
-1.1423504e+103
-1.1693132e+103
-1.1786382e+103
-1.1729466e+103
-1.1853366e+103
-1.1920165e+103
-1.1297166e+103
-1.1232184e+103
-1.1992216e+103
-1.1913829e+103
-1.1863276e+103
-1.2048224e+103
-1.1704187e+103
-1.1660097e+103
-1.1802095e+103
-1.1751551e+103
-1.1508135e+103
-1.1582572e+103
-1.1370329e+103
-1.141805e+103
-1.1151175e+103
-1.1214107e+103
-1.0919265e+103
-1.1161148e+103
-1.1260495e+103
-1.0807632e+103
-1.0810685e+103
-1.0927272e+103
-1.1317922e+103
-1.1195993e+103
-1.122717e+103
-1.1350361e+103
-1.2373759e+103
-1.2223833e+103
-1.2171938e+103
-1.2429795e+103
-1.2884695e+103
-1.2658456e+103
-1.2608469e+103
-1.2932083e+103
-1.3264039e+103
-1.3267914e+103
-1.3230137e+103
-1.321027e+103
-1.3045162e+103
-1.3088512e+103
-1.3148407e+103
-1.3168612e+103
-1.2905125e+103
-1.2968594e+103
-1.2691227e+103
-1.2793299e+103
-1.2441961e+103
-1.2271885e+103
-1.2084202e+103
-1.2171922e+103
-1.2026325e+103
-1.2130448e+103
-1.2010429e+103
-1.2023814e+103
-1.2974113e+103
-1.2995377e+103
-1.276111e+103
-1.2809571e+103
-1.3077038e+103
-1.3220508e+103
-1.3177798e+103
-1.2950297e+103
-1.3006496e+103
-1.3230728e+103
-1.3249899e+103
-1.326771e+103
-1.3281345e+103
-1.3266462e+103
-1.3282316e+103
-1.3296185e+103
-1.3309856e+103
-1.3316747e+103
-1.3326814e+103
-1.3346784e+103
-1.33364e+103
-1.3363857e+103
-1.3369079e+103
-1.3339326e+103
-1.3349047e+103
-1.3274168e+103
-1.3236668e+103
-1.2820077e+103
-1.2925336e+103
-1.2969916e+103
-1.2886449e+103
-1.2905259e+103
-1.2836543e+103
-1.2921075e+103
-1.2949671e+103
-1.3031868e+103
-1.3001875e+103
-1.3085257e+103
-1.3141706e+103
-1.2889997e+103
-1.2936781e+103
-1.3019498e+103
-1.2973541e+103
-1.2985957e+103
-1.3072388e+103
-1.319385e+103
-1.3141337e+103
-1.3026519e+103
-1.2983273e+103
-1.3027023e+103
-1.3069439e+103
-1.3100331e+103
-1.306836e+103
-1.3104964e+103
-1.3146325e+103
-1.3169023e+103
-1.3104359e+103
-1.3135972e+103
-1.3026089e+103
-1.3082543e+103
-1.2935279e+103
-1.2956688e+103
-1.28053e+103
-1.3197555e+103
-1.3173265e+103
-1.3201477e+103
-1.3217452e+103
-1.2872643e+103
-1.2881394e+103
-1.264438e+103
-1.2683388e+103
-1.2854766e+103
-1.2825631e+103
-1.292916e+103
-1.2909553e+103
-1.3137524e+103
-1.3167128e+103
-1.3200794e+103
-1.3216129e+103
-1.3190091e+103
-1.3214342e+103
-1.3236963e+103
-1.3253447e+103
-1.328907e+103
-1.3300968e+103
-1.3304359e+103
-1.3313847e+103
-1.3257583e+103
-1.3261746e+103
-1.3266967e+103
-1.3275836e+103
-1.2769503e+103
-1.2914285e+103
-1.2910202e+103
-1.2769429e+103
-1.271e+103
-1.2717527e+103
-1.2765616e+103
-1.2773853e+103
-1.2770815e+103
-1.2730149e+103
-1.2854974e+103
-1.2797092e+103
-1.2822947e+103
-1.2627063e+103
-1.2877027e+103
-1.2654111e+103
-1.2809162e+103
-1.2670649e+103
-1.2804561e+103
-1.2624566e+103
-1.2586927e+103
-1.268622e+103
-1.2606125e+103
-1.2483232e+103
-1.2908157e+103
-1.2869287e+103
-1.2796159e+103
-1.2847226e+103
-1.2995681e+103
-1.2970451e+103
-1.2912939e+103
-1.2939366e+103
-1.3081907e+103
-1.3047911e+103
-1.2999385e+103
-1.3040479e+103
-1.3135448e+103
-1.3123463e+103
-1.3084417e+103
-1.3094615e+103
-1.2448382e+103
-1.2517608e+103
-1.241625e+103
-1.2341881e+103
-1.3187674e+103
-1.3162522e+103
-1.3134443e+103
-1.3163268e+103
-1.3214422e+103
-1.3219842e+103
-1.3193121e+103
-1.3194431e+103
-1.3260681e+103
-1.324458e+103
-1.3224396e+103
-1.3246922e+103
-1.327468e+103
-1.3277931e+103
-1.3264827e+103
-1.3256454e+103
-1.2275674e+103
-1.2282302e+103
-1.2189007e+103
-1.2186905e+103
-1.2307857e+103
-1.2363181e+103
-1.2271913e+103
-1.2208341e+103
-1.2539043e+103
-1.2258489e+103
-1.2202584e+103
-1.2147157e+103
-1.2232555e+103
-1.2160222e+103
-1.2152634e+103
-1.2095395e+103
-1.2114994e+103
-1.2132889e+103
-1.2087665e+103
-1.2133371e+103
-1.2079964e+103
-1.2155506e+103
-1.2214229e+103
-1.215544e+103
-1.2093826e+103
-1.330233e+103
-1.3296258e+103
-1.3295621e+103
-1.3281737e+103
-1.3319714e+103
-1.3314942e+103
-1.3311312e+103
-1.330956e+103
-1.332775e+103
-1.3325996e+103
-1.3340616e+103
-1.3343435e+103
-1.3352007e+103
-1.3344914e+103
-1.3338085e+103
-1.3349816e+103
-1.0344233e+103
-1.1476033e+103
-1.1260126e+103
-1.1193231e+103
-1.1390012e+103
-1.1423741e+103
-1.1442582e+103
-1.1472041e+103
-1.15243e+103
-1.1493239e+103
-1.1576449e+103
-1.161458e+103
-1.1514427e+103
-1.1455441e+103
-1.1531848e+103
-1.1436979e+103
-1.1363368e+103
-1.1401588e+103
-1.1611766e+103
-1.1542867e+103
-1.165454e+103
-1.1567633e+103
-1.1558134e+103
-1.1681109e+103
-1.1644507e+103
-1.1752416e+103
-1.1808956e+103
-1.1948029e+103
-1.1862154e+103
-1.1719295e+103
-1.1847575e+103
-1.176061e+103
-1.1868851e+103
-1.1611547e+103
-1.1718528e+103
-1.1765974e+103
-1.1637746e+103
-1.1840837e+103
-1.1952602e+103
-1.1896832e+103
-1.2031078e+103
-1.2066588e+103
-1.1977112e+103
-1.2119833e+103
-1.2244201e+103
-1.1731448e+103
-1.1823586e+103
-1.1681814e+103
-1.1888218e+103
-1.1195218e+103
-1.1141713e+103
-1.2416156e+103
-1.2542867e+103
-1.2488947e+103
-1.2637496e+103
-1.2310503e+103
-1.2357441e+103
-1.2447804e+103
-1.2497483e+103
-1.2185021e+103
-1.2301452e+103
-1.2238963e+103
-1.2367462e+103
-1.2584614e+103
-1.2742925e+103
-1.2639039e+103
-1.2802576e+103
-1.253412e+103
-1.2565981e+103
-1.2678462e+103
-1.2709357e+103
-1.2429942e+103
-1.2570832e+103
-1.2474985e+103
-1.2621773e+103
-1.2834282e+103
-1.2860882e+103
-1.2986629e+103
-1.3008498e+103
-1.2875967e+103
-1.2720827e+103
-1.2767922e+103
-1.2925672e+103
-1.2165161e+103
-1.2281881e+103
-1.2205377e+103
-1.2327998e+103
-1.1980978e+103
-1.2016033e+103
-1.2057399e+103
-1.2098134e+103
-1.2063501e+103
-1.2095481e+103
-1.21453e+103
-1.2178096e+103
-1.2259786e+103
-1.2290204e+103
-1.2383825e+103
-1.2412917e+103
-1.1956067e+103
-1.2060097e+103
-1.1999732e+103
-1.2111434e+103
-1.1890069e+103
-1.1926606e+103
-1.1962258e+103
-1.2001035e+103
-1.180439e+103
-1.1867954e+103
-1.1840607e+103
-1.1910071e+103
-1.2060855e+103
-1.2099998e+103
-1.2177157e+103
-1.2218652e+103
-1.1672027e+103
-1.1725357e+103
-1.1702637e+103
-1.1759972e+103
-1.1642559e+103
-1.1671293e+103
-1.1679984e+103
-1.1711899e+103
-1.1582269e+103
-1.161384e+103
-1.1607794e+103
-1.1643667e+103
-1.174441e+103
-1.1776154e+103
-1.1804331e+103
-1.1838741e+103
-1.1556293e+103
-1.158609e+103
-1.1579965e+103
-1.1613156e+103
-1.1506728e+103
-1.1531346e+103
-1.1527686e+103
-1.1555438e+103
-1.1469009e+103
-1.148885e+103
-1.1394998e+103
-1.1457706e+103
-1.1473568e+103
-1.1513821e+103
-1.1536297e+103
-1.1431045e+103
-1.1516438e+103
-1.1497104e+103
-1.1367816e+103
-1.1339176e+103
-1.1613103e+103
-1.1635853e+103
-1.1508051e+103
-1.1607616e+103
-1.1587091e+103
-1.1564734e+103
-1.158678e+103
-1.1472004e+103
-1.1561913e+103
-1.1543161e+103
-1.1612912e+103
-1.164715e+103
-1.1635938e+103
-1.1673319e+103
-1.1402862e+103
-1.143027e+103
-1.1665586e+103
-1.1704717e+103
-1.168944e+103
-1.1730969e+103
-1.1774229e+103
-1.1821198e+103
-1.1802012e+103
-1.1850871e+103
-1.1711725e+103
-1.1753851e+103
-1.1738656e+103
-1.178496e+103
-1.1825227e+103
-1.1886946e+103
-1.1856193e+103
-1.1922011e+103
-1.189848e+103
-1.1965715e+103
-1.1926972e+103
-1.1995966e+103
-1.129787e+103
-1.1280179e+103
-1.1336398e+103
-1.1360863e+103
-1.1254702e+103
-1.1240471e+103
-1.1281067e+103
-1.130575e+103
-1.19708e+103
-1.2036997e+103
-1.1996766e+103
-1.2066234e+103
-1.1896921e+103
-1.1920943e+103
-1.1948057e+103
-1.1973773e+103
-1.1840576e+103
-1.1889062e+103
-1.1864655e+103
-1.1916248e+103
-1.2032987e+103
-1.2056542e+103
-1.2102029e+103
-1.2126035e+103
-1.1711183e+103
-1.1733068e+103
-1.1588491e+103
-1.1699116e+103
-1.1678565e+103
-1.1663897e+103
-1.1684838e+103
-1.155006e+103
-1.1652823e+103
-1.1634453e+103
-1.1774116e+103
-1.1818388e+103
-1.1796116e+103
-1.1841916e+103
-1.1722902e+103
-1.1764456e+103
-1.1744809e+103
-1.1788997e+103
-1.1474558e+103
-1.1504982e+103
-1.1666649e+103
-1.1758794e+103
-1.1631781e+103
-1.1724024e+103
-1.1543096e+103
-1.1574395e+103
-1.1394231e+103
-1.1325665e+103
-1.1356617e+103
-1.142712e+103
-1.1414958e+103
-1.1391069e+103
-1.1460177e+103
-1.1486811e+103
-1.1210408e+103
-1.1209235e+103
-1.1194405e+103
-1.1226381e+103
-1.1093789e+103
-1.1168486e+103
-1.1182292e+103
-1.1192513e+103
-1.1209739e+103
-1.0988608e+103
-1.0962211e+103
-1.1093053e+103
-1.12576e+103
-1.1244263e+103
-1.124965e+103
-1.1235353e+103
-1.1214601e+103
-1.1228247e+103
-1.1238279e+103
-1.1254012e+103
-1.0518267e+103
-1.0533851e+103
-1.0962619e+103
-1.1106023e+103
-1.114108e+103
-1.1009299e+103
-1.1258976e+103
-1.1280776e+103
-1.1310237e+103
-1.1279876e+103
-1.1286428e+103
-1.127211e+103
-1.1279337e+103
-1.1302324e+103
-1.131607e+103
-1.1296295e+103
-1.1300902e+103
-1.1318775e+103
-1.1330624e+103
-1.1296345e+103
-1.1307558e+103
-1.134934e+103
-1.234283e+103
-1.2370239e+103
-1.2461222e+103
-1.2491665e+103
-1.2207174e+103
-1.2231353e+103
-1.2291454e+103
-1.2315852e+103
-1.2142045e+103
-1.2224806e+103
-1.2169162e+103
-1.2254981e+103
-1.2412735e+103
-1.2433627e+103
-1.2532619e+103
-1.2551912e+103
-1.2913688e+103
-1.3049969e+103
-1.2937421e+103
-1.3077594e+103
-1.268497e+103
-1.2823483e+103
-1.2704176e+103
-1.2839921e+103
-1.261787e+103
-1.275825e+103
-1.2643749e+103
-1.2786316e+103
-1.2979232e+103
-1.2989901e+103
-1.3112487e+103
-1.3118159e+103
-1.3300454e+103
-1.3309526e+103
-1.3322859e+103
-1.3316371e+103
-1.3280723e+103
-1.3281551e+103
-1.3249931e+103
-1.3260871e+103
-1.3085144e+103
-1.3110359e+103
-1.3153743e+103
-1.3146594e+103
-1.3184875e+103
-1.3203246e+103
-1.3225996e+103
-1.3227491e+103
-1.294274e+103
-1.2980378e+103
-1.3029258e+103
-1.3044256e+103
-1.255148e+103
-1.2737601e+103
-1.2785252e+103
-1.2852031e+103
-1.2882479e+103
-1.2461159e+103
-1.2317992e+103
-1.2388737e+103
-1.2150908e+103
-1.2170179e+103
-1.2196516e+103
-1.2247371e+103
-1.2026319e+103
-1.2012253e+103
-1.2346788e+103
-1.2139762e+103
-1.2065429e+103
-1.2007018e+103
-1.2008918e+103
-1.2029156e+103
-1.2088908e+103
-1.271555e+103
-1.2721094e+103
-1.2439827e+103
-1.2814123e+103
-1.2770287e+103
-1.247113e+103
-1.2903093e+103
-1.2847668e+103
-1.3173154e+103
-1.3126455e+103
-1.2976384e+103
-1.313831e+103
-1.3249747e+103
-1.3271117e+103
-1.3291968e+103
-1.3266689e+103
-1.3299936e+103
-1.3276544e+103
-1.3287372e+103
-1.3293644e+103
-1.3310092e+103
-1.3316874e+103
-1.3289626e+103
-1.3306886e+103
-1.3324319e+103
-1.3301332e+103
-1.3330052e+103
-1.3309229e+103
-1.3317711e+103
-1.3322487e+103
-1.3338135e+103
-1.3343155e+103
-1.3297548e+103
-1.3287245e+103
-1.3296928e+103
-1.3307572e+103
-1.3313024e+103
-1.3304925e+103
-1.3318855e+103
-1.3314067e+103
-1.3332539e+103
-1.3287944e+103
-1.329408e+103
-1.3336788e+103
-1.3271077e+103
-1.3317393e+103
-1.3327459e+103
-1.3279013e+103
-1.333937e+103
-1.3349873e+103
-1.3310676e+103
-1.3298668e+103
-1.331724e+103
-1.3353478e+103
-1.335575e+103
-1.3316749e+103
-1.3325918e+103
-1.3319508e+103
-1.3329446e+103
-1.3323799e+103
-1.3337983e+103
-1.3331597e+103
-1.3339198e+103
-1.3333621e+103
-1.3276034e+103
-1.3262055e+103
-1.3300736e+103
-1.3316888e+103
-1.3238406e+103
-1.3215193e+103
-1.3256318e+103
-1.3275689e+103
-1.278045e+103
-1.2724232e+103
-1.276488e+103
-1.2757057e+103
-1.2797326e+103
-1.2838869e+103
-1.281842e+103
-1.2880062e+103
-1.2978275e+103
-1.2904691e+103
-1.2868818e+103
-1.2945203e+103
-1.3001042e+103
-1.3087057e+103
-1.3028593e+103
-1.2920182e+103
-1.3048514e+103
-1.3098363e+103
-1.2887159e+103
-1.282262e+103
-1.2995793e+103
-1.295942e+103
-1.3001249e+103
-1.3034056e+103
-1.3012301e+103
-1.305531e+103
-1.306751e+103
-1.303866e+103
-1.3077118e+103
-1.3106963e+103
-1.3090958e+103
-1.312339e+103
-1.3188725e+103
-1.316805e+103
-1.3205231e+103
-1.3228073e+103
-1.3204622e+103
-1.3228847e+103
-1.313495e+103
-1.3104927e+103
-1.314512e+103
-1.3171216e+103
-1.3151969e+103
-1.3179896e+103
-1.2879323e+103
-1.292607e+103
-1.2957578e+103
-1.3007839e+103
-1.3046578e+103
-1.3024939e+103
-1.3061532e+103
-1.3077394e+103
-1.3100402e+103
-1.3068784e+103
-1.3087411e+103
-1.3116414e+103
-1.3138833e+103
-1.3108957e+103
-1.3154846e+103
-1.3128811e+103
-1.3145612e+103
-1.3162601e+103
-1.3172361e+103
-1.3188939e+103
-1.3013529e+103
-1.3072313e+103
-1.3089601e+103
-1.3130507e+103
-1.3116137e+103
-1.3112658e+103
-1.3128531e+103
-1.3170036e+103
-1.3155634e+103
-1.2892952e+103
-1.2926264e+103
-1.3081436e+103
-1.3103106e+103
-1.295933e+103
-1.3011166e+103
-1.3138677e+103
-1.3154795e+103
-1.30349e+103
-1.2958091e+103
-1.2819841e+103
-1.2814143e+103
-1.2847874e+103
-1.2875655e+103
-1.2912895e+103
-1.2894023e+103
-1.2855523e+103
-1.2685367e+103
-1.274393e+103
-1.3150438e+103
-1.3162951e+103
-1.3201446e+103
-1.3192266e+103
-1.3078304e+103
-1.3186654e+103
-1.3203471e+103
-1.3104557e+103
-1.3136049e+103
-1.3222661e+103
-1.3231605e+103
-1.3148252e+103
-1.3191842e+103
-1.317743e+103
-1.322434e+103
-1.3214066e+103
-1.2730105e+103
-1.2726998e+103
-1.2764703e+103
-1.276922e+103
-1.2742821e+103
-1.2777389e+103
-1.2791305e+103
-1.2832205e+103
-1.2712586e+103
-1.2504268e+103
-1.2715301e+103
-1.2517408e+103
-1.274713e+103
-1.2791982e+103
-1.2554123e+103
-1.2604106e+103
-1.2757164e+103
-1.2724865e+103
-1.3193423e+103
-1.317798e+103
-1.3205429e+103
-1.3219145e+103
-1.3231888e+103
-1.3206597e+103
-1.3217544e+103
-1.3244138e+103
-1.3254728e+103
-1.3227848e+103
-1.3265068e+103
-1.3239644e+103
-1.3250076e+103
-1.3258273e+103
-1.3274969e+103
-1.3284203e+103
-1.3262791e+103
-1.3252e+103
-1.3273029e+103
-1.3281008e+103
-1.3280566e+103
-1.3270169e+103
-1.3287062e+103
-1.3291283e+103
-1.3232697e+103
-1.3290586e+103
-1.3301509e+103
-1.3245664e+103
-1.3307753e+103
-1.3307054e+103
-1.3257536e+103
-1.325791e+103
-1.321912e+103
-1.320796e+103
-1.3238924e+103
-1.3247445e+103
-1.3170268e+103
-1.3249193e+103
-1.326339e+103
-1.318897e+103
-1.3242446e+103
-1.3230221e+103
-1.3258827e+103
-1.326572e+103
-1.3280627e+103
-1.3275588e+103
-1.3209016e+103
-1.3216611e+103
-1.2769921e+103
-1.2686282e+103
-1.2671484e+103
-1.2752997e+103
-1.2743266e+103
-1.2753622e+103
-1.2667e+103
-1.2683776e+103
-1.2668363e+103
-1.2683326e+103
-1.2692142e+103
-1.2668004e+103
-1.2687123e+103
-1.2733492e+103
-1.2690239e+103
-1.2734038e+103
-1.2662137e+103
-1.2416553e+103
-1.2657387e+103
-1.2416354e+103
-1.2703159e+103
-1.272906e+103
-1.2740481e+103
-1.2764902e+103
-1.242894e+103
-1.24648e+103
-1.2661959e+103
-1.2690534e+103
-1.2737335e+103
-1.2697998e+103
-1.2684086e+103
-1.2746214e+103
-1.2760724e+103
-1.2718006e+103
-1.2700102e+103
-1.2529703e+103
-1.2488859e+103
-1.2733468e+103
-1.2735019e+103
-1.2678732e+103
-1.2681478e+103
-1.267175e+103
-1.2443346e+103
-1.2675639e+103
-1.2433665e+103
-1.0341876e+103
-1.2720311e+103
-1.268378e+103
-1.2584903e+103
-1.2632229e+103
-1.2796439e+103
-1.2770095e+103
-1.2681158e+103
-1.271801e+103
-1.2870547e+103
-1.2822261e+103
-1.2960393e+103
-1.2926922e+103
-1.3048195e+103
-1.3008315e+103
-1.3106183e+103
-1.3087232e+103
-1.2573297e+103
-1.2544515e+103
-1.2441379e+103
-1.2479269e+103
-1.2637635e+103
-1.2614397e+103
-1.2518219e+103
-1.2545094e+103
-1.3164896e+103
-1.31357e+103
-1.3191207e+103
-1.3202191e+103
-1.3245726e+103
-1.3226628e+103
-1.3265833e+103
-1.3263097e+103
-1.2382638e+103
-1.2357597e+103
-1.2269474e+103
-1.2288767e+103
-1.2397301e+103
-1.2415719e+103
-1.2297668e+103
-1.231063e+103
-1.2455623e+103
-1.2431403e+103
-1.2324347e+103
-1.2351031e+103
-1.2496456e+103
-1.2472301e+103
-1.2367419e+103
-1.239598e+103
-1.2518593e+103
-1.2429553e+103
-1.2484784e+103
-1.2385887e+103
-1.2321781e+103
-1.2354508e+103
-1.2274785e+103
-1.2231989e+103
-1.2272044e+103
-1.230116e+103
-1.2207615e+103
-1.2174665e+103
-1.223979e+103
-1.2243552e+103
-1.2150409e+103
-1.2137822e+103
-1.2224316e+103
-1.2236358e+103
-1.2134086e+103
-1.212606e+103
-1.2205593e+103
-1.2211979e+103
-1.211186e+103
-1.2115458e+103
-1.2216757e+103
-1.2219206e+103
-1.2112816e+103
-1.2118469e+103
-1.2254988e+103
-1.2233308e+103
-1.2129043e+103
-1.2150294e+103
-1.2308889e+103
-1.2277212e+103
-1.2173441e+103
-1.2216603e+103
-1.3296117e+103
-1.3285933e+103
-1.3316289e+103
-1.3310002e+103
-1.3327402e+103
-1.3339999e+103
-1.3348557e+103
-1.3344966e+103
-1.1486713e+103
-1.1494176e+103
-1.1515689e+103
-1.1525842e+103
-1.1302507e+103
-1.1281985e+103
-1.1323972e+103
-1.1354286e+103
-1.1222362e+103
-1.12375e+103
-1.1254911e+103
-1.1399478e+103
-1.1411208e+103
-1.1401752e+103
-1.1392158e+103
-1.1427175e+103
-1.1444062e+103
-1.1433976e+103
-1.1417743e+103
-1.1429639e+103
-1.1450401e+103
-1.1443563e+103
-1.146547e+103
-1.1461489e+103
-1.1484924e+103
-1.1478256e+103
-1.1503381e+103
-1.1528582e+103
-1.1548563e+103
-1.1557941e+103
-1.1578121e+103
-1.1491378e+103
-1.1513517e+103
-1.1507959e+103
-1.1533303e+103
-1.1560057e+103
-1.1605572e+103
-1.1580691e+103
-1.1629221e+103
-1.1609012e+103
-1.1661213e+103
-1.1631245e+103
-1.1686737e+103
-1.1504043e+103
-1.1539285e+103
-1.1512376e+103
-1.155076e+103
-1.1459688e+103
-1.1482768e+103
-1.1472363e+103
-1.1493857e+103
-1.1523741e+103
-1.1565896e+103
-1.1536151e+103
-1.1582795e+103
-1.1445922e+103
-1.1464753e+103
-1.1452203e+103
-1.1472698e+103
-1.1387958e+103
-1.1381752e+103
-1.1416686e+103
-1.1405776e+103
-1.1425605e+103
-1.1415352e+103
-1.14378e+103
-1.1628811e+103
-1.1634654e+103
-1.1688058e+103
-1.1694817e+103
-1.1555055e+103
-1.1556498e+103
-1.1581568e+103
-1.1585151e+103
-1.1647885e+103
-1.1707233e+103
-1.1662267e+103
-1.1723386e+103
-1.156538e+103
-1.1578321e+103
-1.1597685e+103
-1.1610987e+103
-1.1609197e+103
-1.1566683e+103
-1.1596502e+103
-1.1637634e+103
-1.1706005e+103
-1.1782839e+103
-1.1686078e+103
-1.1761803e+103
-1.1657516e+103
-1.172762e+103
-1.1644955e+103
-1.1711143e+103
-1.1804781e+103
-1.1862742e+103
-1.1790003e+103
-1.1850514e+103
-1.1865544e+103
-1.1942114e+103
-1.1837002e+103
-1.1909417e+103
-1.200666e+103
-1.2061193e+103
-1.1960035e+103
-1.1997196e+103
-1.19162e+103
-1.1953397e+103
-1.1904114e+103
-1.1936367e+103
-1.1769086e+103
-1.1835125e+103
-1.1775093e+103
-1.1844913e+103
-1.1894484e+103
-1.1902549e+103
-1.1935832e+103
-1.1931231e+103
-1.1784855e+103
-1.1847203e+103
-1.1801241e+103
-1.185923e+103
-1.1906409e+103
-1.1946479e+103
-1.192475e+103
-1.1982055e+103
-1.1597056e+103
-1.1611661e+103
-1.1632997e+103
-1.1652138e+103
-1.1688915e+103
-1.1710235e+103
-1.1757038e+103
-1.1782444e+103
-1.1738755e+103
-1.1759733e+103
-1.1817345e+103
-1.1843558e+103
-1.163059e+103
-1.1676684e+103
-1.1647449e+103
-1.1694461e+103
-1.184201e+103
-1.187085e+103
-1.1906943e+103
-1.1941368e+103
-1.1974303e+103
-1.2039625e+103
-1.2010292e+103
-1.2075798e+103
-1.1906047e+103
-1.1984074e+103
-1.1937831e+103
-1.2017122e+103
-1.2119219e+103
-1.2052027e+103
-1.2091097e+103
-1.2160155e+103
-1.2075615e+103
-1.218123e+103
-1.2115919e+103
-1.2224451e+103
-1.1983617e+103
-1.2067993e+103
-1.2024944e+103
-1.2116631e+103
-1.2145444e+103
-1.2221597e+103
-1.2198636e+103
-1.2286454e+103
-1.2267446e+103
-1.2365752e+103
-1.2323421e+103
-1.2431911e+103
-1.1730837e+103
-1.1792509e+103
-1.1757266e+103
-1.1818192e+103
-1.1793845e+103
-1.182459e+103
-1.1881785e+103
-1.1920068e+103
-1.1673154e+103
-1.1721914e+103
-1.1698076e+103
-1.1752356e+103
-1.1868297e+103
-1.1970339e+103
-1.1897308e+103
-1.200173e+103
-1.1086834e+103
-1.1157164e+103
-1.1175561e+103
-1.1185146e+103
-1.1183127e+103
-1.1177014e+103
-1.1189026e+103
-1.2549635e+103
-1.243372e+103
-1.2507902e+103
-1.2469504e+103
-1.2576172e+103
-1.2652105e+103
-1.269824e+103
-1.2617283e+103
-1.2546299e+103
-1.2630059e+103
-1.2517414e+103
-1.2601566e+103
-1.2677357e+103
-1.27611e+103
-1.2706767e+103
-1.2789059e+103
-1.2287345e+103
-1.2354657e+103
-1.2384647e+103
-1.2312591e+103
-1.2366703e+103
-1.2345826e+103
-1.2418437e+103
-1.2438543e+103
-1.2542921e+103
-1.2430617e+103
-1.2510443e+103
-1.2459137e+103
-1.2516823e+103
-1.2600752e+103
-1.2497337e+103
-1.2582235e+103
-1.2254459e+103
-1.216503e+103
-1.2224681e+103
-1.219029e+103
-1.228884e+103
-1.2359631e+103
-1.2394302e+103
-1.231918e+103
-1.2314416e+103
-1.2225652e+103
-1.2291027e+103
-1.224884e+103
-1.2361056e+103
-1.2438596e+103
-1.2385663e+103
-1.2464606e+103
-1.2597438e+103
-1.2683066e+103
-1.2719347e+103
-1.2629947e+103
-1.2845365e+103
-1.2764499e+103
-1.2798229e+103
-1.2884091e+103
-1.2671748e+103
-1.2692794e+103
-1.2762038e+103
-1.2780489e+103
-1.2932453e+103
-1.2864383e+103
-1.2945772e+103
-1.2847114e+103
-1.2509638e+103
-1.2583664e+103
-1.2605633e+103
-1.2528627e+103
-1.2567441e+103
-1.2554093e+103
-1.2630384e+103
-1.2642445e+103
-1.2774332e+103
-1.2669274e+103
-1.2753059e+103
-1.2688375e+103
-1.2726581e+103
-1.2809057e+103
-1.2716058e+103
-1.2801193e+103
-1.2501657e+103
-1.2404712e+103
-1.2477018e+103
-1.2426803e+103
-1.2558591e+103
-1.2641874e+103
-1.2667787e+103
-1.2582107e+103
-1.2551502e+103
-1.2458766e+103
-1.2533514e+103
-1.2477477e+103
-1.2617885e+103
-1.2703505e+103
-1.2635076e+103
-1.2719761e+103
-1.2850244e+103
-1.2935873e+103
-1.2957305e+103
-1.2869427e+103
-1.289588e+103
-1.2982134e+103
-1.290536e+103
-1.2988672e+103
-1.3090614e+103
-1.311225e+103
-1.30218e+103
-1.3039292e+103
-1.3070998e+103
-1.3067846e+103
-1.3137622e+103
-1.313593e+103
-1.2910304e+103
-1.2986234e+103
-1.3014676e+103
-1.2934918e+103
-1.2851491e+103
-1.2736789e+103
-1.2824449e+103
-1.2761254e+103
-1.2815056e+103
-1.2797591e+103
-1.2886015e+103
-1.2902073e+103
-1.2986464e+103
-1.2973689e+103
-1.3051291e+103
-1.3059388e+103
-1.2210425e+103
-1.213416e+103
-1.2188615e+103
-1.2153988e+103
-1.2256326e+103
-1.2321839e+103
-1.2344966e+103
-1.2277385e+103
-1.2257304e+103
-1.2181579e+103
-1.2238259e+103
-1.2199867e+103
-1.2308236e+103
-1.2375857e+103
-1.232595e+103
-1.2393491e+103
-1.1949473e+103
-1.198286e+103
-1.2001729e+103
-1.196647e+103
-1.1990368e+103
-1.2025543e+103
-1.2042766e+103
-1.2006982e+103
-1.2031569e+103
-1.2071671e+103
-1.2091939e+103
-1.2049935e+103
-1.2076287e+103
-1.2118548e+103
-1.2135805e+103
-1.2093028e+103
-1.2031997e+103
-1.206798e+103
-1.2085619e+103
-1.2048271e+103
-1.2084304e+103
-1.2069835e+103
-1.2106909e+103
-1.2121901e+103
-1.211994e+103
-1.2162616e+103
-1.2180767e+103
-1.2136491e+103
-1.2173541e+103
-1.2159753e+103
-1.2203726e+103
-1.2216925e+103
-1.2228585e+103
-1.2286961e+103
-1.2305422e+103
-1.2245896e+103
-1.2283448e+103
-1.2269054e+103
-1.2327803e+103
-1.2341962e+103
-1.2424782e+103
-1.244441e+103
-1.2358139e+103
-1.2374996e+103
-1.2412167e+103
-1.2399459e+103
-1.2468922e+103
-1.2480481e+103
-1.2002745e+103
-1.1933519e+103
-1.198006e+103
-1.1953747e+103
-1.2036917e+103
-1.2095031e+103
-1.2119749e+103
-1.2059532e+103
-1.2001552e+103
-1.2052497e+103
-1.1981988e+103
-1.2031794e+103
-1.2091929e+103
-1.215314e+103
-1.211234e+103
-1.2174258e+103
-1.1862566e+103
-1.1892935e+103
-1.1913077e+103
-1.1880462e+103
-1.1904291e+103
-1.1936981e+103
-1.1953664e+103
-1.1921299e+103
-1.1996185e+103
-1.1937953e+103
-1.1975534e+103
-1.1956901e+103
-1.2039983e+103
-1.1982789e+103
-1.2022784e+103
-1.1999886e+103
-1.1825172e+103
-1.1780089e+103
-1.180673e+103
-1.1796553e+103
-1.1846415e+103
-1.1880673e+103
-1.190067e+103
-1.1864883e+103
-1.1865903e+103
-1.181988e+103
-1.1848961e+103
-1.1836547e+103
-1.1891103e+103
-1.1927658e+103
-1.1908456e+103
-1.1945843e+103
-1.2033541e+103
-1.2085478e+103
-1.2108037e+103
-1.2054089e+103
-1.2081549e+103
-1.2135542e+103
-1.2100225e+103
-1.2154482e+103
-1.2210837e+103
-1.223591e+103
-1.2148938e+103
-1.2170752e+103
-1.2219353e+103
-1.220093e+103
-1.2267306e+103
-1.2285606e+103
-1.1692982e+103
-1.1657684e+103
-1.1677759e+103
-1.1671615e+103
-1.1712668e+103
-1.1738415e+103
-1.175461e+103
-1.1727815e+103
-1.1705569e+103
-1.1728087e+103
-1.1691049e+103
-1.1712804e+103
-1.1749543e+103
-1.1776773e+103
-1.1764452e+103
-1.1792309e+103
-1.1629841e+103
-1.1642814e+103
-1.1657653e+103
-1.1643155e+103
-1.1673934e+103
-1.1660296e+103
-1.1674925e+103
-1.1689331e+103
-1.170609e+103
-1.1673212e+103
-1.1690583e+103
-1.1687805e+103
-1.1720709e+103
-1.1740145e+103
-1.1706799e+103
-1.1725475e+103
-1.1594346e+103
-1.1570653e+103
-1.1581414e+103
-1.1582355e+103
-1.1608274e+103
-1.1624007e+103
-1.1637815e+103
-1.1621307e+103
-1.1623624e+103
-1.1598599e+103
-1.1610875e+103
-1.1611123e+103
-1.1639626e+103
-1.1656373e+103
-1.165272e+103
-1.1670315e+103
-1.1727432e+103
-1.175054e+103
-1.1766974e+103
-1.1742719e+103
-1.1762996e+103
-1.1787346e+103
-1.1778488e+103
-1.1803414e+103
-1.1816941e+103
-1.1834725e+103
-1.1789055e+103
-1.1805098e+103
-1.1842796e+103
-1.182729e+103
-1.1857503e+103
-1.1873435e+103
-1.1560321e+103
-1.1571305e+103
-1.156262e+103
-1.157463e+103
-1.1601313e+103
-1.1598291e+103
-1.1611378e+103
-1.1589483e+103
-1.1584641e+103
-1.1597267e+103
-1.1601519e+103
-1.1588334e+103
-1.1616375e+103
-1.1628929e+103
-1.1627359e+103
-1.1640726e+103
-1.1522243e+103
-1.1511643e+103
-1.1511365e+103
-1.1521726e+103
-1.1534375e+103
-1.1542119e+103
-1.1553743e+103
-1.1545703e+103
-1.1547207e+103
-1.15342e+103
-1.1535044e+103
-1.1546021e+103
-1.1560128e+103
-1.1568673e+103
-1.1571769e+103
-1.1581048e+103
-1.1494029e+103
-1.1506165e+103
-1.1489244e+103
-1.1500155e+103
-1.1510713e+103
-1.1522333e+103
-1.1515753e+103
-1.1527242e+103
-1.1417445e+103
-1.1403766e+103
-1.1423603e+103
-1.1438552e+103
-1.1456042e+103
-1.1474105e+103
-1.1538258e+103
-1.1551556e+103
-1.1534479e+103
-1.1546745e+103
-1.1558416e+103
-1.1571056e+103
-1.1560734e+103
-1.1572963e+103
-1.1458565e+103
-1.1436867e+103
-1.1451984e+103
-1.1477157e+103
-1.1515722e+103
-1.149631e+103
-1.1394871e+103
-1.1381631e+103
-1.1400107e+103
-1.1415049e+103
-1.1364331e+103
-1.1353834e+103
-1.1370005e+103
-1.1382901e+103
-1.1633977e+103
-1.1649217e+103
-1.1634441e+103
-1.1648169e+103
-1.1660238e+103
-1.167255e+103
-1.1658861e+103
-1.1671079e+103
-1.1540492e+103
-1.1512444e+103
-1.1528692e+103
-1.1560016e+103
-1.160631e+103
-1.1585418e+103
-1.1584833e+103
-1.1598851e+103
-1.1584645e+103
-1.1597192e+103
-1.1609102e+103
-1.1621848e+103
-1.1609347e+103
-1.1622455e+103
-1.1500657e+103
-1.1475976e+103
-1.1491447e+103
-1.1518546e+103
-1.1561161e+103
-1.1539935e+103
-1.1613308e+103
-1.1624495e+103
-1.1630281e+103
-1.1618583e+103
-1.1647891e+103
-1.1659572e+103