/*--------------------------------*- C++ -*----------------------------------*\
  =========                 |
  \\      /  F ield         | OpenFOAM: The Open Source CFD Toolbox
   \\    /   O peration     | Website:  https://openfoam.org
    \\  /    A nd           | Version:  7
     \\/     M anipulation  |
\*---------------------------------------------------------------------------*/
FoamFile
{
    version     2.0;
    format      ascii;
    class       volVectorField;
    location    "9000";
    object      U;
}
// * * * * * * * * * * * * * * * * * * * * * * * * * * * * * * * * * * * * * //

dimensions      [0 1 -1 0 0 0 0];

internalField   nonuniform List<vector> 
34378
(
(-3.1072674e+52 1.0741111e+52 4.5278595e+51)
(-3.6071551e+52 9.4269748e+51 6.0790376e+50)
(-4.1406364e+52 5.4148416e+51 1.4777798e+52)
(-1.0855228e+53 2.0162029e+52 1.6620633e+52)
(-2.3244388e+52 6.3613899e+51 2.7127163e+52)
(-3.4943894e+52 1.3913263e+51 3.7318667e+51)
(-5.6140757e+52 2.708658e+51 1.8536806e+52)
(-3.4151755e+52 1.8207034e+51 -2.7760961e+51)
(-3.0757809e+52 4.7119381e+51 1.5251223e+51)
(-3.1583108e+52 -3.1358486e+50 -2.3351465e+51)
(-3.0038885e+52 4.0208849e+51 1.7155917e+51)
(-3.3474854e+52 6.7316607e+51 -3.573671e+50)
(-3.4515068e+52 -7.3514801e+51 1.6851918e+52)
(-1.8812665e+52 -5.2209208e+51 1.579e+51)
(-4.9938962e+51 -6.156442e+51 8.7041569e+51)
(1.6644899e+51 -1.0283916e+51 2.431749e+52)
(-5.8239465e+52 1.683421e+52 1.3436783e+52)
(-1.3435198e+51 -4.713182e+51 -1.5328752e+50)
(-1.8720333e+52 6.5274438e+50 2.2682768e+52)
(-4.8306915e+52 1.2489564e+52 3.8990353e+52)
(-2.3127742e+52 -7.3622606e+51 5.6061028e+50)
(-1.9080881e+52 -8.9730136e+51 4.7922971e+51)
(-3.2036615e+52 -2.5515375e+51 9.4544209e+51)
(-2.9799082e+52 -3.8374919e+51 -6.3224638e+51)
(-4.9073526e+52 1.3437981e+51 1.5789073e+51)
(-2.1240701e+52 -1.3391573e+52 1.082157e+51)
(-1.4083977e+52 -1.1644803e+52 2.1197416e+51)
(-1.4281286e+52 -8.3329792e+51 9.121464e+51)
(-2.6021472e+52 9.2737711e+49 9.5077284e+51)
(-1.414765e+52 1.0014374e+51 6.4962578e+51)
(-2.3234001e+52 -4.9626606e+51 -4.3649382e+50)
(-2.9875177e+52 -3.2736331e+51 -2.8048258e+51)
(-3.0570921e+52 -2.0049553e+51 -2.7887612e+51)
(-1.992331e+52 -3.4644656e+51 1.3929885e+51)
(-2.1705257e+52 -5.0729439e+51 -2.3546925e+51)
(-3.2617238e+52 1.6830706e+51 -1.2357812e+51)
(-3.0260489e+52 -3.2476928e+51 -2.2472972e+51)
(-2.8148899e+52 -3.5792861e+51 -1.2171532e+51)
(-1.930425e+52 -4.9375233e+51 1.9802109e+51)
(-2.2865194e+52 -3.9564856e+51 5.9570109e+50)
(-1.5869019e+52 -5.1423328e+51 -4.8457454e+50)
(-2.1589266e+52 -4.083263e+51 -1.616007e+51)
(-2.1791394e+52 -6.9583649e+51 7.0205309e+51)
(-4.2955341e+52 1.1329968e+52 -1.5159893e+50)
(-2.0181644e+52 -2.8346665e+51 2.8374636e+51)
(-2.9034097e+52 -1.6268146e+51 8.5036855e+50)
(8.6426859e+51 -2.3221728e+51 -5.6336161e+51)
(-3.49499e+51 -1.5075485e+52 4.8655177e+51)
(-1.4685444e+52 -1.1902442e+52 4.6842191e+51)
(-1.1743897e+52 -3.2749251e+51 7.8670332e+51)
(-1.7543141e+51 -1.1158982e+52 4.3146722e+51)
(1.28223e+52 -7.4731739e+51 6.1009867e+51)
(-1.9150876e+52 -1.2044013e+52 3.8020972e+51)
(-2.404117e+52 -9.6551962e+51 4.123823e+51)
(-1.9040852e+52 -1.4220204e+52 2.486738e+51)
(-1.1875221e+52 -1.3801031e+52 2.5680869e+51)
(-2.2637891e+52 -4.6317281e+48 4.1953255e+52)
(8.3184005e+51 -5.7019147e+51 2.2095196e+52)
(1.3522806e+52 -9.0869041e+51 -8.7351345e+49)
(1.7688084e+52 -2.9212089e+51 -2.5936288e+51)
(7.147027e+51 1.0540191e+51 1.7011016e+52)
(1.2508519e+52 5.6675259e+49 -2.0309297e+51)
(4.4340888e+51 6.1196816e+49 1.8411602e+52)
(-2.430304e+52 -9.4097099e+51 3.934033e+51)
(-2.5826724e+52 -7.1220896e+51 4.2168914e+51)
(-2.3048124e+52 -1.4267553e+52 2.9637946e+51)
(-2.4848466e+52 -1.3276233e+52 3.0356961e+51)
(-3.7079654e+52 -6.3328879e+50 -7.4896091e+51)
(-3.3515909e+52 4.5314551e+51 1.1189683e+52)
(-4.9830175e+52 -1.0337547e+52 1.6298246e+52)
(-7.1803081e+51 -1.0357629e+52 4.3993184e+51)
(-7.7216732e+51 -1.3723869e+52 2.0001131e+51)
(-1.5825894e+52 -1.1301902e+52 -3.9598651e+50)
(-1.5009071e+52 -1.1448771e+52 7.5839971e+50)
(-1.6959993e+52 -7.9941822e+51 4.122168e+51)
(-1.7599959e+52 -6.0081179e+51 -2.2535788e+51)
(-2.0118271e+52 -5.2952956e+51 -3.081432e+51)
(-1.6279306e+52 -9.4395998e+51 1.4616457e+51)
(-3.6999454e+52 1.2695189e+51 3.7453418e+51)
(-2.1593359e+52 -8.462163e+51 1.6154833e+51)
(-2.0808001e+52 -6.6278487e+51 -2.8786945e+51)
(-3.0611945e+52 -2.5081474e+51 2.3745051e+51)
(-3.1151893e+52 -1.04957e+51 -2.0248858e+51)
(-2.8548882e+52 -1.8243838e+50 -1.830255e+51)
(-2.9714957e+52 -1.2180388e+51 3.3015091e+51)
(-2.9247623e+52 9.7498018e+50 3.7593774e+51)
(-2.4163254e+52 -1.1530814e+51 -5.0394207e+51)
(-2.4851307e+52 1.7939212e+50 -5.3167056e+51)
(-2.0752578e+52 -1.2556221e+52 -1.2294259e+50)
(-2.0973045e+52 -1.3055938e+52 3.7748437e+51)
(-2.5954781e+52 -1.3325553e+52 2.5370412e+51)
(-2.3959502e+52 -1.4748945e+52 2.3677967e+51)
(-1.812313e+52 -1.7252166e+52 2.1124969e+51)
(-2.2200049e+52 -1.6226675e+52 2.2919776e+51)
(-1.4172885e+52 -1.6937854e+52 2.6562955e+51)
(-8.1661574e+51 -1.5471619e+52 3.1075226e+51)
(-1.372112e+52 -8.2743999e+51 7.6958627e+51)
(-5.8423057e+51 -1.0610523e+52 2.7365047e+51)
(4.4211133e+51 7.5120326e+51 3.1545906e+51)
(6.1645328e+51 4.1973031e+51 9.1397123e+50)
(-3.7987372e+52 -6.1047517e+50 -1.7635037e+50)
(-3.780473e+52 -2.4458362e+50 -1.0308485e+51)
(-2.7976925e+52 -3.9289161e+51 -2.6481437e+51)
(-2.8415002e+52 -3.0993344e+51 1.9947637e+51)
(-2.9403977e+52 -1.9423601e+51 1.6695176e+51)
(-1.5386687e+52 -7.0307733e+51 -1.6521581e+51)
(-1.6352186e+52 -4.3788652e+51 -2.9231341e+51)
(-1.8706103e+52 -5.6484237e+51 3.9358445e+51)
(-1.951097e+52 -2.9825427e+51 3.5986447e+51)
(-2.0523941e+52 -5.8278217e+51 -3.5312801e+51)
(-1.948188e+52 -7.1055764e+51 -3.3352403e+51)
(-1.6835731e+52 -4.9951114e+51 -3.031817e+51)
(-1.4953031e+52 -7.6439413e+51 -2.4158573e+51)
(-1.4193602e+52 -4.591705e+51 3.9931289e+51)
(-2.7611453e+52 -2.6508445e+51 2.9845536e+50)
(-2.8582023e+52 -2.369513e+51 -6.1751199e+50)
(-1.636524e+52 -2.8038223e+51 2.7612644e+51)
(-2.8012756e+52 -3.1131167e+51 3.0403465e+51)
(-2.6424997e+52 -3.7987494e+51 4.2805255e+51)
(-2.58515e+52 -5.7661123e+51 3.9414239e+50)
(-2.6985335e+52 -5.1709872e+51 -1.3464726e+51)
(-1.4427124e+52 -2.2519191e+51 -2.2444586e+51)
(-1.6891842e+52 -9.0500655e+51 6.9554054e+49)
(-1.3798501e+52 -9.0012072e+51 3.4579982e+51)
(-9.0006051e+51 -9.2463079e+51 6.8617168e+51)
(-1.2569836e+52 -8.6185124e+51 3.7422282e+51)
(-1.9223973e+52 -7.5556296e+51 -2.6641894e+51)
(-1.701512e+52 -9.445749e+51 -1.0155494e+51)
(-1.5522957e+52 -7.0489076e+51 -1.2773488e+51)
(-1.3146436e+52 -9.8231442e+51 1.3193169e+51)
(-8.6067846e+51 -9.4417726e+51 7.7373832e+51)
(-1.3504032e+52 -8.4021171e+51 5.1473261e+51)
(-4.7274977e+51 -1.1014518e+52 9.0582646e+51)
(-2.6006764e+52 -1.3937878e+50 8.678736e+51)
(-1.366879e+52 -9.0663118e+51 7.7884845e+51)
(-6.8219455e+51 -1.124713e+52 6.2276247e+50)
(-1.4981465e+52 -1.0388263e+52 -1.4856097e+51)
(-1.4429444e+52 -9.1161581e+51 2.7741549e+51)
(-1.6443849e+52 -6.5867619e+51 -2.2160012e+50)
(-1.9356922e+52 -5.533657e+51 5.1358854e+51)
(-1.6617259e+52 -8.7349236e+51 6.3945958e+51)
(-9.8940296e+51 -5.630383e+50 6.20038e+51)
(-2.6742145e+52 8.3289878e+50 7.2572001e+50)
(-2.7717633e+52 -5.2957289e+50 4.2583098e+50)
(-1.2589355e+52 -1.7940521e+51 5.5450808e+51)
(9.0893183e+51 -2.9666768e+51 -3.6638734e+51)
(-5.7392358e+50 -5.3284751e+51 -3.1349435e+51)
(-4.6219578e+52 -2.5612314e+51 7.995138e+51)
(-3.1643335e+52 -1.2286965e+52 3.5196697e+51)
(1.7335137e+52 -9.4357483e+51 1.6168177e+51)
(-1.4119827e+52 -1.5047447e+52 9.5657441e+51)
(-1.7303217e+52 -1.3664338e+52 8.7798263e+51)
(-1.176596e+52 -1.6867928e+52 6.7265298e+51)
(-9.4419629e+51 -1.6823822e+52 7.5360833e+51)
(-1.927468e+52 -1.355907e+52 7.7562568e+51)
(-2.0943336e+52 -1.1359277e+52 7.191769e+51)
(-1.7369817e+52 -1.6198803e+52 5.5087093e+51)
(-1.608775e+52 -1.7096029e+52 6.2048681e+51)
(1.6110238e+52 -1.2024771e+52 1.4606821e+51)
(1.4852267e+52 -1.1366933e+52 1.0094995e+52)
(1.7916673e+52 -8.1704637e+51 1.0530829e+52)
(-2.1234799e+52 -1.1036317e+52 6.628817e+51)
(-2.2419618e+52 -9.3216156e+51 6.2391592e+51)
(-1.9735574e+52 -1.5548022e+52 5.4751324e+51)
(-2.0959475e+52 -1.4981253e+52 4.9202054e+51)
(-2.2307721e+52 -8.9420024e+51 5.6263436e+51)
(-2.2795748e+52 -7.3743692e+51 5.5565913e+51)
(-2.2630704e+52 -1.3080765e+52 4.543225e+51)
(-2.228337e+52 -1.3785016e+52 4.9062188e+51)
(1.6276842e+52 -2.3682784e+51 1.8438082e+51)
(1.4232433e+52 -2.7162285e+51 1.8249576e+51)
(2.877231e+52 -1.8771272e+51 4.1043177e+51)
(9.990805e+51 -4.5353724e+51 1.5784483e+52)
(2.3647864e+52 4.1883341e+51 2.1838224e+51)
(2.0492227e+52 5.0339418e+51 3.5955548e+51)
(2.2683568e+52 4.9860817e+51 5.2904207e+51)
(2.5506594e+52 5.6875843e+51 4.917569e+51)
(2.4238712e+52 8.7944306e+50 5.7141678e+51)
(2.3440674e+52 2.6978591e+49 2.3761287e+51)
(2.0584704e+52 4.7983963e+51 2.8361672e+51)
(2.2060962e+52 3.0998489e+51 6.0027844e+51)
(-2.2377718e+52 -7.2729731e+51 5.236273e+51)
(-2.2901282e+52 -6.1588096e+51 5.1607951e+51)
(-2.3812032e+52 -1.1498988e+52 4.5974416e+51)
(-2.334956e+52 -1.1852892e+52 4.9037598e+51)
(-2.2478778e+52 -6.115763e+51 4.7655387e+51)
(-2.2823494e+52 -5.0928138e+51 4.9330583e+51)
(-2.4273343e+52 -1.0065364e+52 4.5369579e+51)
(-2.418532e+52 -1.0323354e+52 4.8123611e+51)
(-2.1128633e+52 -1.935909e+51 -2.6453137e+51)
(-1.1848472e+52 -7.3091988e+51 3.9002124e+51)
(-2.2395747e+52 -2.77259e+51 5.0347249e+51)
(-2.4487063e+52 -9.0375631e+50 -3.6194556e+51)
(-1.6847113e+52 4.0760675e+50 -2.1474017e+51)
(-4.9579791e+51 5.091074e+51 -4.7880908e+50)
(1.9557232e+51 8.6824481e+51 2.5634485e+51)
(-2.1315714e+52 -2.3722363e+51 9.6249997e+51)
(-1.1087209e+52 -6.9129055e+51 -4.0579407e+51)
(-2.5656423e+52 -8.951913e+51 1.0614839e+52)
(2.7170958e+50 -1.0163398e+52 3.9620553e+51)
(-4.7185303e+51 -7.1108271e+51 2.6270481e+50)
(-1.0651855e+52 -1.4623144e+52 4.2516022e+51)
(-1.5739418e+52 -1.398991e+52 1.806633e+51)
(-1.4063954e+52 -1.3244719e+52 1.9706373e+51)
(-1.0865147e+52 -1.6260274e+52 3.3508644e+51)
(-2.1998216e+52 -1.3951356e+52 1.1975271e+51)
(-1.9246941e+52 -1.4871334e+52 1.4680877e+51)
(-1.9149797e+52 -1.5727592e+52 3.0071582e+51)
(-1.8224011e+52 -1.5857601e+52 3.7343216e+51)
(-1.7944943e+52 -1.2811592e+52 3.0185444e+51)
(-1.7318479e+52 -1.1335023e+52 2.8343092e+50)
(-1.9289228e+52 -1.0688846e+52 -2.2573978e+50)
(-1.8155155e+52 -1.3444708e+52 2.4041661e+51)
(-1.3381646e+52 -1.1069451e+52 4.4154629e+51)
(-1.5794933e+52 -1.070779e+52 1.0850693e+51)
(-1.4994006e+52 -9.9439592e+51 1.5220385e+51)
(-1.321812e+52 -1.3109466e+52 3.717896e+51)
(-1.3827195e+52 -8.1185365e+51 2.7882254e+51)
(-1.6233817e+52 -7.2102391e+51 -2.9270636e+50)
(-1.5703549e+52 -7.0511716e+51 1.8267184e+50)
(-1.3204625e+52 -9.8668243e+51 2.0132527e+51)
(-1.5149877e+52 -6.5944043e+51 9.3876952e+50)
(-1.553697e+52 -5.3715609e+51 1.7427824e+51)
(-1.5592723e+52 -4.6452005e+51 -8.8599693e+50)
(-1.6444673e+52 -4.5934842e+51 -1.2357854e+51)
(-2.1572463e+52 -2.0487542e+51 1.470841e+51)
(-1.8083447e+52 -5.0690046e+51 -1.533679e+51)
(-1.703486e+52 -5.3463646e+51 -1.4435733e+51)
(-1.7629389e+52 -6.0396078e+51 8.009554e+50)
(-2.0837356e+52 -4.4746921e+51 2.1283055e+50)
(-1.7467715e+52 -7.0133343e+51 3.3884239e+50)
(-1.8400158e+52 -7.4666071e+51 -1.2035099e+51)
(-1.6867656e+52 -8.0413686e+51 -8.9939559e+50)
(-1.6762351e+52 -9.3026726e+51 1.4469322e+51)
(-1.6557317e+52 -9.8564981e+51 5.9924904e+50)
(-2.2041142e+52 -2.0642729e+51 -3.4525214e+51)
(-2.2677977e+52 -2.0175133e+51 -2.9830582e+51)
(-1.9538444e+52 -8.6550493e+51 6.6853889e+50)
(-2.045123e+52 -6.8513126e+51 -1.6632423e+51)
(-1.9040386e+52 -7.6843782e+51 -1.4189907e+51)
(-1.9664524e+52 -9.1010329e+51 1.3163107e+50)
(-1.9998837e+52 -5.0179209e+51 -1.7702588e+51)
(-1.9029165e+52 -5.4730576e+51 -1.5742722e+51)
(-1.9861874e+52 -6.6486934e+51 -1.4002129e+50)
(-1.9738489e+52 -6.0651051e+51 3.3674502e+50)
(-2.3627468e+52 -3.6506484e+51 7.8765283e+50)
(-2.3100671e+52 -4.566781e+51 -2.0640783e+50)
(-2.1981668e+52 -3.5634214e+51 -3.3642483e+51)
(-2.2798249e+52 -2.5380777e+51 -3.2467013e+51)
(-2.2895386e+52 -1.5335339e+51 -5.3960986e+50)
(-2.7331781e+52 -1.1107963e+50 2.9225081e+51)
(-3.7509166e+52 1.9447238e+50 4.2231342e+51)
(-2.1951849e+52 -1.2446797e+51 -4.6803419e+50)
(-2.5123871e+52 -2.5267571e+51 2.0281701e+51)
(-2.5831994e+52 -3.2685828e+49 -6.4886463e+51)
(-2.5293312e+52 -1.3922637e+51 -6.3523258e+51)
(-3.537455e+52 -1.199529e+51 4.001765e+51)
(-2.5522088e+52 -1.5796216e+51 2.3387198e+51)
(-2.1380639e+52 -2.4180121e+51 -2.5322188e+50)
(-2.1678606e+52 -1.7565917e+51 -2.0605856e+50)
(-2.4863309e+52 -3.1352161e+51 1.9034573e+51)
(-2.1625524e+52 -1.1678082e+52 2.089027e+51)
(-2.1630335e+52 -9.3370466e+51 -8.6517452e+50)
(-1.9988748e+52 -1.0438181e+52 -4.2511198e+50)
(-2.1684322e+52 -1.1743376e+52 1.4572679e+51)
(-2.3738944e+52 -1.37586e+52 3.6072176e+51)
(-2.4768064e+52 -1.1699218e+52 5.9718145e+50)
(-2.3064226e+52 -1.3298942e+52 1.0472462e+51)
(-2.3716461e+52 -1.3690747e+52 2.9184492e+51)
(-2.4535063e+52 -9.3888103e+51 3.8293087e+51)
(-2.5129909e+52 -9.1988462e+51 3.9970609e+51)
(-2.4810131e+52 -1.0519708e+52 4.0253598e+51)
(-2.3978157e+52 -1.0868423e+52 4.1201141e+51)
(-2.1202919e+52 -1.4415249e+52 4.8288334e+51)
(-2.2489357e+52 -1.4035663e+52 4.5339879e+51)
(-2.3148296e+52 -1.2648512e+52 4.1276143e+51)
(-2.3917888e+52 -1.2191186e+52 4.2915298e+51)
(-1.8412271e+52 -1.5905123e+52 5.4214805e+51)
(-1.9484851e+52 -1.5663456e+52 5.1377913e+51)
(-1.3603315e+52 -1.5383961e+52 6.6436328e+51)
(-1.4981126e+52 -1.6305697e+52 5.9936128e+51)
(-9.398198e+49 -1.0364231e+52 1.7578609e+51)
(-6.8540609e+51 -1.0856699e+52 -2.0717556e+51)
(8.576151e+50 -7.4302902e+51 -2.050549e+51)
(-8.4663379e+51 -8.0630952e+51 3.3356443e+50)
(1.2380182e+52 7.7105623e+51 -2.4500493e+50)
(1.5743345e+52 9.4119456e+51 9.4263248e+50)
(1.3966568e+52 3.5016446e+51 2.2538243e+50)
(1.2841811e+52 3.1371094e+51 3.9439371e+50)
(-3.7261935e+52 7.04158e+50 1.8964877e+51)
(-3.7743663e+52 -5.4498522e+50 1.0500885e+51)
(-3.8574944e+52 -2.0867834e+50 5.149731e+50)
(-3.8203263e+52 -3.7647386e+50 -3.7219256e+49)
(-2.9631784e+52 -2.6265484e+51 -2.1843002e+51)
(-2.1142153e+52 -4.9945307e+51 -1.6839941e+51)
(-1.9705884e+52 -5.8921979e+51 -1.5219625e+51)
(-3.1031068e+52 -1.3209791e+51 -1.2038327e+51)
(-3.0856742e+52 -2.2727268e+51 -1.1588339e+51)
(-1.0806198e+52 -7.0841683e+51 -4.8777185e+51)
(-1.1222498e+52 -6.3710236e+51 -4.6666484e+51)
(-9.9554421e+51 -7.1059728e+51 -3.9048893e+51)
(-1.079794e+52 -5.7629499e+51 -3.8936902e+51)
(-1.1320453e+52 -5.8154448e+51 -4.8306066e+51)
(-1.1644112e+52 -5.0546395e+51 -4.5378478e+51)
(-1.0027491e+52 -6.1428397e+51 -4.0516757e+51)
(-1.0828949e+52 -4.5688445e+51 -3.8996834e+51)
(-1.1111258e+52 -5.3245876e+51 -8.5864677e+50)
(-1.1361451e+52 -4.2543494e+51 -1.0589514e+51)
(-1.7645112e+52 -3.461524e+51 5.4107978e+51)
(-1.7363836e+52 -4.7119977e+51 5.5121904e+51)
(-1.703526e+52 -3.9139015e+51 4.8512251e+51)
(-1.7218712e+52 -2.6017842e+51 4.9069364e+51)
(-1.0295784e+52 -4.7786515e+51 -1.4707213e+51)
(-1.0598428e+52 -3.4715076e+51 -1.4843956e+51)
(-2.0140867e+52 -4.74732e+51 -5.3319177e+51)
(-1.922642e+52 -5.6232814e+51 -5.2881406e+51)
(-2.406006e+52 -3.1905252e+51 4.1061678e+51)
(-2.5931666e+52 -2.2217142e+51 6.7660615e+51)
(-2.6219043e+52 -2.4303198e+51 5.7965139e+51)
(-2.4671377e+52 -4.976986e+51 2.721838e+51)
(-3.075116e+52 -2.7249161e+51 -7.1890983e+50)
(-3.0153604e+52 -1.2942572e+51 -4.4545385e+50)
(-2.8515561e+52 -2.9684006e+51 -9.7558585e+50)
(-1.3994741e+52 -8.0468703e+51 1.4525328e+51)
(-1.6576257e+52 -7.5781396e+51 9.4508111e+49)
(-2.9005598e+52 -3.0890473e+51 -1.5351564e+51)
(-1.7237417e+52 -7.4403032e+51 -5.6243362e+50)
(-1.9318441e+52 -6.3336828e+51 -1.0122982e+51)
(-1.2303874e+52 -6.3626705e+51 5.5353017e+51)
(-1.3854074e+52 -7.0397937e+51 3.8912302e+51)
(-6.7415812e+51 -6.128478e+51 7.8054813e+51)
(-3.7430527e+51 -6.3704391e+51 8.9987541e+51)
(-1.4827719e+52 -9.7084335e+51 -8.9874863e+50)
(-1.605602e+52 -9.2631009e+51 -3.3129071e+51)
(-1.8381474e+52 -6.7339848e+51 -4.9864876e+51)
(-1.7217354e+52 -8.045636e+51 -4.6845757e+51)
(-1.9277745e+51 -6.3729737e+51 6.4590196e+51)
(-8.8023494e+51 -1.0217367e+52 7.3842502e+51)
(-1.0536733e+52 -9.9991142e+51 3.2799832e+51)
(-9.5301444e+51 -1.0184747e+52 1.2160506e+52)
(-1.1105387e+52 -8.9703603e+51 8.946679e+51)
(-9.8261474e+51 -1.033286e+52 9.3545267e+50)
(-1.0297942e+52 -9.5414803e+51 -2.335945e+51)
(-1.102729e+52 -9.5297425e+51 5.6942223e+51)
(-1.1783383e+52 -7.9465421e+51 2.5834385e+51)
(-1.0858178e+52 -1.0605427e+52 1.350691e+52)
(-1.2749562e+52 -9.0814326e+51 1.0969349e+52)
(-1.3256842e+52 -1.2231308e+52 1.3909358e+52)
(-1.5563588e+52 -1.0675047e+52 1.2382343e+52)
(4.9603945e+51 -7.908154e+51 9.0811412e+51)
(2.2493792e+51 -7.5931806e+51 6.6424603e+51)
(8.5592713e+51 -9.7935514e+51 9.8650622e+51)
(-1.3183029e+52 -9.0312048e+51 8.2715694e+51)
(-1.6683649e+52 -1.0483499e+52 1.0826122e+52)
(-1.7653515e+52 -8.1314396e+51 9.591936e+51)
(-1.3884133e+52 -6.9657972e+51 5.7342162e+51)
(9.6791546e+51 -1.2298078e+50 4.083696e+51)
(5.4734206e+51 -3.2990856e+51 5.6077068e+51)
(1.6347285e+52 2.5136179e+50 6.9919811e+51)
(1.1488282e+52 -3.5073561e+51 8.8828375e+51)
(-1.1833737e+52 -4.1613359e+51 4.4105599e+51)
(-1.1621875e+52 -4.743652e+51 4.4419131e+51)
(-2.1132632e+51 -2.800127e+51 8.7597567e+51)
(-1.6286566e+51 -3.4932115e+51 8.3606366e+51)
(-1.0004255e+52 -9.7768916e+51 -3.5542664e+51)
(-9.9885417e+51 -8.9260866e+51 -4.2648954e+51)
(-1.1006729e+52 -8.6639734e+51 2.040591e+50)
(-1.1614207e+52 -7.4173766e+51 -1.5422106e+51)
(-1.0357136e+52 -8.6846665e+51 -4.7356768e+51)
(-1.0672024e+52 -7.5463516e+51 -4.5912854e+51)
(-1.0504266e+52 -8.1223015e+51 -2.7763016e+51)
(-1.0902922e+52 -6.5455607e+51 -3.405541e+51)
(-1.2599853e+52 -6.0988488e+51 7.3928179e+50)
(-1.2377608e+52 -4.6734117e+51 -1.4223799e+50)
(-1.7802917e+52 -5.993872e+51 6.5458555e+51)
(-1.8005584e+52 -4.2848158e+51 6.1434436e+51)
(-1.3202368e+52 -7.2133173e+51 3.7697898e+51)
(-1.7650115e+52 -7.9315293e+51 8.4288302e+51)
(-1.3800938e+52 -5.7071362e+51 2.1465047e+51)
(-1.8252992e+52 -6.0428006e+51 7.6264698e+51)
(-2.20893e+52 2.6560831e+51 6.4575934e+51)
(-2.4612368e+52 1.2178616e+51 7.6813891e+51)
(-2.5225727e+52 1.0601923e+50 7.3865686e+51)
(-2.2925316e+52 -1.0866674e+51 5.6353684e+51)
(-9.4405711e+51 2.0940141e+51 4.4982732e+51)
(-8.7367146e+51 4.9257348e+51 4.884316e+51)
(-4.062486e+51 2.6778815e+51 5.3516739e+51)
(-4.5879049e+51 3.3931184e+51 5.8234809e+51)
(-1.1481165e+52 -2.0968435e+51 3.1518491e+51)
(-1.181149e+52 -1.8908986e+51 2.953326e+51)
(-6.0412646e+51 5.6621177e+50 5.6359309e+51)
(-6.0657465e+51 -1.2682411e+51 4.8352002e+51)
(-5.3530188e+51 4.3143117e+50 3.8817582e+51)
(9.3745627e+51 -2.0889349e+50 9.654733e+51)
(-3.7064455e+51 5.0760263e+51 5.1269898e+51)
(1.000598e+52 6.3164758e+51 9.9751032e+51)
(-5.3262793e+51 3.470373e+50 5.1024611e+51)
(7.3798652e+51 1.0856414e+51 1.0032669e+52)
(-2.577155e+51 2.3600704e+51 4.6586019e+51)
(9.5193319e+51 3.4114133e+51 1.030844e+52)
(-1.1511254e+52 -1.222578e+52 1.0931143e+52)
(-1.1318228e+52 -1.3290176e+52 1.0637663e+52)
(-3.7889496e+51 -1.4164507e+52 7.3513071e+51)
(-6.0736792e+51 -1.2800019e+52 7.2268066e+51)
(-1.8133996e+52 -1.0791871e+52 1.0140045e+52)
(-1.7310038e+52 -1.0856448e+52 1.052411e+52)
(-1.455634e+52 -1.3324334e+52 9.3034102e+51)
(-1.5400757e+52 -1.3789478e+52 8.8196048e+51)
(-1.919912e+52 -1.0415566e+52 9.2699599e+51)
(-1.8908111e+52 -1.0720217e+52 9.4684068e+51)
(-1.7082491e+52 -1.3458126e+52 8.3939044e+51)
(-1.7059846e+52 -1.3774517e+52 7.9785205e+51)
(-2.0366496e+52 -9.5286308e+51 8.363223e+51)
(-1.9874754e+52 -1.0271336e+52 8.698817e+51)
(-1.887904e+52 -1.3105534e+52 7.7586733e+51)
(-1.9417855e+52 -1.3024398e+52 7.283285e+51)
(-2.0532372e+52 -8.6230729e+51 7.8641467e+51)
(-2.0438016e+52 -9.1747371e+51 7.8319718e+51)
(-2.0065743e+52 -1.2192421e+52 7.131971e+51)
(-1.9890643e+52 -1.2327112e+52 6.9275114e+51)
(-8.8505364e+51 -9.7384204e+51 1.0578442e+52)
(-1.0421791e+52 -9.4299702e+51 1.0766196e+52)
(-2.4811948e+51 -9.1914573e+51 6.9157924e+51)
(-3.0707601e+51 -9.1026467e+51 7.6771803e+51)
(-2.0899967e+52 -7.8486379e+51 7.2256836e+51)
(-2.0579062e+52 -8.5220731e+51 7.4411008e+51)
(-2.0719341e+52 -1.1433503e+52 6.8839864e+51)
(-2.1149641e+52 -1.1335186e+52 6.440517e+51)
(-2.0678154e+52 -7.6406346e+51 6.7182212e+51)
(-2.0788469e+52 -7.0501283e+51 6.7419279e+51)
(-2.1470001e+52 -1.0451354e+52 6.2875012e+51)
(-2.1512908e+52 -1.053118e+52 6.0365099e+51)
(-2.0905616e+52 -6.2219216e+51 6.1503255e+51)
(-2.0677456e+52 -6.9785716e+51 6.2692945e+51)
(-2.1918069e+52 -9.6419715e+51 5.9510826e+51)
(-2.2147725e+52 -9.4563577e+51 5.5956714e+51)
(-2.0701614e+52 -5.6213217e+51 6.1030661e+51)
(-2.0556437e+52 -6.0850041e+51 5.8012763e+51)
(-2.2091144e+52 -8.7197446e+51 5.7178147e+51)
(-2.2070549e+52 -8.8989036e+51 5.7068193e+51)
(-1.0144684e+52 -4.7763183e+51 1.020826e+52)
(-1.012514e+52 -3.2964673e+51 1.0289421e+52)
(-1.519146e+51 -2.6298523e+51 9.5322937e+51)
(-2.4125512e+51 -2.2643933e+51 8.5555834e+51)
(-9.0661635e+51 -6.5692022e+51 1.0556098e+52)
(-4.8193614e+51 -5.8966062e+51 9.7832501e+51)
(2.4724941e+51 -4.6039087e+51 8.0010639e+51)
(-2.3791393e+51 -5.6947756e+51 8.0385347e+51)
(1.3993066e+52 7.9995863e+51 6.7696905e+50)
(9.1391949e+51 8.9387228e+51 7.8308083e+51)
(4.6161006e+51 8.7568315e+51 9.2456238e+51)
(1.064668e+52 8.8463883e+51 6.3267338e+51)
(1.4626839e+52 9.3205459e+51 5.5292552e+51)
(8.2035344e+51 4.5693779e+51 8.2589305e+51)
(4.3678371e+51 5.7065625e+51 9.0642746e+51)
(1.046866e+52 6.0863049e+51 7.7072777e+51)
(1.2812302e+52 5.3634558e+51 6.9304595e+51)
(9.5570052e+51 1.8823759e+51 7.7761966e+51)
(1.2837142e+52 2.8296391e+51 7.4851172e+51)
(6.9912892e+51 3.9521706e+51 8.4929788e+51)
(1.058827e+52 4.5040027e+51 8.0417612e+51)
(7.6687769e+51 -1.4082319e+49 7.9834275e+51)
(5.7251743e+51 1.5345641e+51 7.8927851e+51)
(7.2540749e+51 2.9599422e+51 1.1033115e+52)
(1.0770954e+52 2.078217e+51 8.4970219e+51)
(-2.0551724e+52 -5.2354136e+51 5.7221472e+51)
(-2.0344851e+52 -5.7705825e+51 5.772199e+51)
(-2.2326043e+52 -8.133076e+51 5.3753205e+51)
(-2.2124318e+52 -8.1618886e+51 5.7479863e+51)
(-2.0387016e+52 -4.7527679e+51 5.5849607e+51)
(-2.0179738e+52 -5.275464e+51 5.375183e+51)
(-2.2284321e+52 -7.5232269e+51 5.4346277e+51)
(-2.2412911e+52 -7.6171319e+51 5.3203188e+51)
(-2.0014175e+52 -4.9229512e+51 5.2232076e+51)
(-2.2366487e+52 -6.9943788e+51 5.2514568e+51)
(-2.2507384e+52 -6.8982667e+51 4.9449675e+51)
(-2.0170599e+52 -4.2941296e+51 5.1820559e+51)
(-1.9837099e+52 -4.3611139e+51 4.9916903e+51)
(-2.0051938e+52 -3.9568376e+51 5.353637e+51)
(-2.2440472e+52 -6.6204706e+51 5.1931372e+51)
(-2.2339131e+52 -6.4115308e+51 5.2071545e+51)
(-3.9742085e+52 -8.0571399e+50 -5.4611054e+51)
(-1.1862929e+52 -1.5691254e+51 3.3768849e+51)
(-2.663214e+52 -1.0762441e+51 3.087793e+51)
(-2.4799291e+52 5.4873274e+50 -3.532733e+51)
(-1.3874498e+52 -3.0350211e+51 -6.2022761e+50)
(-1.491856e+52 -3.4010183e+51 -7.8244341e+50)
(-1.2396397e+52 -4.1773944e+51 2.1684688e+51)
(-1.2193086e+52 -5.558748e+51 2.0198906e+51)
(-1.4236091e+52 -5.9231175e+51 8.5518814e+50)
(-1.4565133e+52 -5.554655e+51 1.0919464e+51)
(-1.1915947e+52 -6.1058824e+51 3.7021737e+51)
(-1.0486785e+52 -7.754861e+51 3.0421859e+51)
(-8.5794153e+51 -4.2643822e+51 3.5413979e+51)
(-9.8984001e+51 -4.5155775e+51 1.7017148e+51)
(-7.1456947e+51 -5.642476e+51 4.1063818e+51)
(-1.2239279e+52 -3.2234296e+51 1.3366721e+51)
(-1.544613e+52 -8.1058136e+50 -1.4311869e+51)
(-1.1018247e+52 -3.4649475e+51 1.8134384e+51)
(-4.8737683e+51 2.4827823e+50 5.5615112e+51)
(-1.0320045e+52 1.7781651e+47 5.6807256e+50)
(-6.5613515e+51 -2.7188104e+51 5.1142334e+51)
(-1.3024536e+52 -1.5191845e+51 9.8295338e+50)
(-1.2403208e+52 3.9544002e+51 1.7476629e+51)
(-1.4310471e+51 8.6290938e+51 5.2287477e+51)
(-5.4984421e+51 3.9608802e+51 5.5128483e+51)
(-4.4055635e+51 5.0690288e+51 -1.2969704e+50)
(1.6624543e+51 8.5253437e+51 1.8846682e+49)
(1.0890403e+52 1.0798328e+52 8.0000365e+50)
(3.2954057e+51 6.2370548e+51 2.4629097e+51)
(-1.7023815e+51 -1.754294e+51 -2.9260007e+51)
(6.7174371e+51 3.7960676e+51 2.6039464e+51)
(-1.5319033e+52 -4.3802341e+51 -8.5859095e+49)
(-1.1210741e+52 -2.4192027e+51 8.4668109e+51)
(-1.2296478e+52 -5.0111623e+51 1.1219264e+51)
(-4.5907213e+51 -4.7469622e+51 3.7529701e+51)
(-2.8697714e+51 -6.4528968e+51 4.0434907e+51)
(-9.9517556e+51 -5.3760246e+51 1.9244601e+51)
(-7.8687417e+51 -6.883333e+51 6.5023194e+50)
(-1.059863e+52 -8.5133782e+51 4.3405299e+51)
(-9.8994443e+51 -6.9048717e+51 1.5257434e+51)
(-3.0552783e+51 -9.2355136e+51 2.3713636e+51)
(-9.5428713e+51 -1.051932e+52 1.7171648e+51)
(-1.2557572e+52 -9.4880506e+51 1.2361306e+51)
(-8.1845682e+51 -1.0005543e+52 2.9133248e+51)
(-2.6435252e+51 -1.1987478e+52 2.9500421e+51)
(-1.2916104e+52 -8.3466241e+51 1.9927864e+51)
(-1.013253e+52 -7.577442e+51 4.5203349e+51)
(-1.4869373e+52 -7.123114e+51 1.9827187e+51)
(-7.9759193e+51 -1.0074928e+52 4.4934403e+51)
(-2.9104265e+52 -1.2283131e+51 3.1883516e+51)
(-2.3151111e+52 -3.7204446e+50 -1.2236272e+51)
(-1.6481969e+52 -1.2751725e+52 3.3245949e+51)
(-1.4606204e+52 -1.3955678e+52 5.6493769e+51)
(-1.7325548e+52 -1.3490435e+52 3.2562247e+51)
(-1.5018998e+52 -1.5359905e+52 5.1037702e+51)
(-1.806052e+52 -1.1457423e+52 1.1230054e+51)
(-1.883086e+52 -1.1692803e+52 1.3755839e+51)
(-1.8531844e+52 -1.2370003e+52 2.8707741e+51)
(-1.8222378e+52 -1.3318937e+52 2.9662809e+51)
(-1.6223193e+52 -1.0766197e+52 1.6711513e+51)
(-1.6033672e+52 -1.1602808e+52 3.329324e+51)
(-1.7170784e+52 -1.1360326e+52 1.677305e+51)
(-1.6058628e+52 -1.2886261e+52 3.1472606e+51)
(-1.9520948e+52 -1.3461782e+52 2.6747508e+51)
(-1.8466396e+52 -1.4722071e+52 4.8764044e+51)
(-2.0219421e+52 -1.349868e+52 2.8562218e+51)
(-1.807548e+52 -1.5143238e+52 4.4937333e+51)
(-2.0783413e+52 -1.0520873e+52 5.2495853e+50)
(-2.1526232e+52 -1.0223962e+52 8.594981e+50)
(-2.2111705e+52 -1.1153822e+52 2.378387e+51)
(-2.183714e+52 -1.1764922e+52 2.5257962e+51)
(-1.9479467e+52 -1.1471785e+52 8.8639378e+50)
(-2.0494493e+52 -1.2237184e+52 2.6805453e+51)
(-2.049831e+52 -1.1064001e+52 7.3401148e+50)
(-2.0500482e+52 -1.2673234e+52 2.3825379e+51)
(-2.3126492e+52 -1.1558016e+52 2.0202007e+51)
(-2.3958964e+52 -1.1074315e+52 2.3312513e+51)
(-2.3092546e+52 -1.2335711e+52 4.0349208e+51)
(-2.259788e+52 -1.2681728e+52 3.8676308e+51)
(-2.1153836e+52 -1.3782263e+52 4.5594801e+51)
(-2.1456845e+52 -1.296215e+52 2.4604881e+51)
(-2.2665682e+52 -1.2372452e+52 2.272464e+51)
(-2.1165074e+52 -1.4136487e+52 3.9385138e+51)
(-1.7637116e+52 -1.0180976e+52 -2.5091526e+47)
(-1.8458201e+52 -1.0868275e+52 1.4900487e+51)
(-1.856377e+52 -9.6863446e+51 -2.2525585e+50)
(-1.8332489e+52 -1.1402504e+52 1.2389413e+51)
(-1.5942527e+52 -8.7998098e+51 -2.2482609e+50)
(-1.6794206e+52 -8.5355307e+51 -4.600065e+50)
(-1.6983989e+52 -9.4120899e+51 1.1058068e+51)
(-1.6903589e+52 -9.9316393e+51 8.1045516e+50)
(-1.6992799e+52 -8.3444561e+51 -6.0532255e+50)
(-1.7728975e+52 -8.1456404e+51 -3.8149735e+50)
(-1.8141958e+52 -8.8573973e+51 6.7770125e+50)
(-1.7972235e+52 -9.4976068e+51 8.0661114e+50)
(-1.8768897e+52 -9.4480787e+51 -3.8627449e+50)
(-1.9577719e+52 -9.0985892e+51 -1.3695644e+50)
(-1.9804548e+52 -1.0141326e+52 1.0797307e+51)
(-1.9473297e+52 -1.0730849e+52 1.2443332e+51)
(-1.528149e+52 -9.2582798e+51 9.4962421e+50)
(-1.5211777e+52 -9.9378855e+51 2.5472964e+51)
(-1.600046e+52 -9.5808004e+51 8.2297754e+50)
(-1.4918083e+52 -1.1197738e+52 2.3171171e+51)
(-1.4983208e+52 -8.4433655e+51 7.8127925e+49)
(-1.5774288e+52 -8.6811784e+51 2.5693627e+50)
(-1.5758315e+52 -9.0949607e+51 1.4712884e+51)
(-1.5429985e+52 -1.0170244e+52 1.5703174e+51)
(-1.4090466e+52 -7.7907514e+51 5.8332365e+50)
(-1.4541569e+52 -8.3763642e+51 2.0643946e+51)
(-1.4937524e+52 -8.1436337e+51 4.4751412e+50)
(-1.4266844e+52 -9.4666389e+51 1.8318735e+51)
(-1.6510611e+52 -9.9125796e+51 3.6295132e+50)
(-1.7328336e+52 -1.0108951e+52 5.4738547e+50)
(-1.6941598e+52 -1.0699952e+52 1.8453457e+51)
(-1.6413366e+52 -1.1671317e+52 1.9109579e+51)
(-1.3776399e+52 -6.7507263e+51 4.0165945e+50)
(-1.3626203e+52 -7.1422044e+51 1.6949713e+51)
(-1.4452555e+52 -6.8263582e+51 1.7839635e+50)
(-1.3289386e+52 -8.1687802e+51 1.3614644e+51)
(-1.3792181e+52 -6.1380824e+51 -4.292882e+50)
(-1.4418257e+52 -6.2539764e+51 -3.1920254e+50)
(-1.4342046e+52 -6.52844e+51 1.1048847e+51)
(-1.4068705e+52 -7.4605214e+51 1.0548053e+51)
(-1.3198146e+52 -5.6727953e+51 -1.3962901e+50)
(-1.3523632e+52 -6.0113594e+51 1.5549624e+51)
(-1.3777074e+52 -5.789072e+51 -3.2108948e+50)
(-1.325664e+52 -6.8703652e+51 1.1995536e+51)
(-1.4460305e+52 -7.2633311e+51 -5.7721353e+49)
(-1.522355e+52 -7.3772446e+51 4.0942803e+49)
(-1.4594821e+52 -7.781345e+51 1.1078298e+51)
(-1.4137432e+52 -8.7310996e+51 1.0713873e+51)
(-1.4147047e+52 -5.3132028e+51 -5.6768613e+50)
(-1.4195753e+52 -5.531293e+51 4.3312359e+50)
(-1.4739701e+52 -5.2837735e+51 -4.0764433e+50)
(-1.3930219e+52 -6.2179656e+51 2.9160527e+50)
(-1.3665502e+52 -4.9580173e+51 -3.0413373e+50)
(-1.353236e+52 -5.0789798e+51 7.5093822e+50)
(-1.4124988e+52 -4.88804e+51 -4.4303819e+50)
(-1.3270806e+52 -5.8711757e+51 3.7307677e+50)
(-1.4325467e+52 -4.2080737e+51 8.7306001e+50)
(-1.41523e+52 -4.9050558e+51 4.9952281e+50)
(-1.6024923e+52 -3.0779508e+51 1.1409811e+51)
(-1.3921283e+52 -4.0398548e+51 -1.0275251e+51)
(-1.4373841e+52 -3.9829769e+51 -1.1505987e+51)
(-1.4948292e+52 -4.5610752e+51 5.6128126e+50)
(-1.4720208e+52 -5.2791418e+51 4.4540546e+50)
(-1.5821934e+52 -4.3733044e+51 4.7999082e+50)
(-1.4964222e+52 -4.3711287e+51 -1.0788412e+51)
(-1.4490228e+52 -4.3567925e+51 -1.0917191e+51)
(-1.6860864e+52 -2.5554386e+51 -1.4139941e+51)
(-1.6161364e+52 -2.7059746e+51 -1.3336705e+51)
(-1.6659067e+52 -4.9110794e+51 2.6360148e+50)
(-1.6635364e+52 -5.4656513e+51 1.9043631e+50)
(-1.7566039e+52 -4.7216773e+51 -3.9290856e+49)
(-1.6706822e+52 -4.6710842e+51 -1.1638382e+51)
(-1.6156133e+52 -4.7483597e+51 -1.2063952e+51)
(-1.5670556e+52 -4.9046531e+51 3.5767184e+50)
(-1.5747405e+52 -5.4144728e+51 4.1439139e+49)
(-1.7840564e+52 -3.829115e+51 6.5683573e+50)
(-1.5918213e+52 -4.572599e+51 -1.3866829e+51)