/*--------------------------------*- C++ -*----------------------------------*\
  =========                 |
  \\      /  F ield         | OpenFOAM: The Open Source CFD Toolbox
   \\    /   O peration     | Website:  https://openfoam.org
    \\  /    A nd           | Version:  7
     \\/     M anipulation  |
\*---------------------------------------------------------------------------*/
FoamFile
{
    version     2.0;
    format      ascii;
    class       volVectorField;
    location    "9000";
    object      UMean;
}
// * * * * * * * * * * * * * * * * * * * * * * * * * * * * * * * * * * * * * //

dimensions      [0 1 -1 0 0 0 0];

internalField   nonuniform List<vector> 
34378
(
(-2.065781e+50 1.5455335e+49 3.5305152e+49)
(-2.4334178e+50 3.0761332e+49 2.0050979e+49)
(-2.072306e+50 -8.8031239e+47 5.2032022e+49)
(-1.2805445e+50 4.2939948e+49 3.4095386e+49)
(-2.1393829e+50 -3.9647678e+48 3.6069571e+49)
(-2.4339915e+50 -4.0621867e+48 4.234191e+49)
(-2.0714231e+50 -1.8659686e+49 2.0568609e+49)
(-2.4980941e+50 5.0120204e+48 -1.2835914e+49)
(-1.9958524e+50 1.1153462e+49 1.9537958e+49)
(-2.3755068e+50 -3.9698856e+48 -6.0157973e+48)
(-1.7629902e+50 1.6444735e+47 2.4833439e+49)
(-2.002664e+50 4.3923137e+49 7.199751e+48)
(-1.7504053e+50 -1.71828e+49 4.2429539e+49)
(-2.002202e+50 -1.7750808e+49 3.4769127e+49)
(-2.3042457e+50 -2.3957063e+49 3.5984749e+49)
(-2.0035172e+50 -1.2057464e+49 4.3174388e+49)
(-1.3953874e+50 2.0715943e+49 4.6813573e+49)
(-1.2157388e+50 2.6614111e+49 4.5500804e+49)
(-1.353127e+50 3.0243236e+49 3.4586581e+49)
(-1.4032936e+50 1.2107328e+49 3.804178e+49)
(-2.0810914e+50 -1.5657822e+49 3.1958715e+49)
(-2.4201977e+50 -1.9849163e+49 2.8717315e+49)
(-2.3659925e+50 -2.488159e+49 3.9550846e+48)
(-2.5083589e+50 -1.4846095e+49 -1.3808134e+49)
(-3.493905e+50 5.4994924e+48 -8.1031801e+48)
(-2.3605658e+50 -2.6066485e+49 1.7622969e+49)
(-2.2300571e+50 -3.246402e+49 1.8742203e+49)
(-2.0058768e+50 -2.4828139e+49 2.0841237e+49)
(-1.6418176e+50 -5.4010765e+48 2.4293626e+49)
(-1.6109372e+50 2.7081644e+49 2.3597905e+49)
(-2.2251362e+50 -1.0133506e+49 -1.2828439e+49)
(-2.3582709e+50 -5.4895119e+48 -1.1485158e+49)
(-2.3944775e+50 -4.8712418e+48 -1.5395751e+49)
(-1.4913274e+50 -1.1718339e+49 1.8363662e+49)
(-1.8478928e+50 -1.3132767e+49 -1.9057228e+49)
(-2.2935216e+50 1.081836e+49 -3.0191198e+48)
(-2.3659199e+50 -7.7202922e+48 -9.5069615e+48)
(-2.2744161e+50 -5.8156288e+48 -2.1368744e+48)
(-2.1222137e+50 -1.1265543e+49 -1.4935949e+48)
(-2.2037277e+50 -9.6710291e+48 -7.6156532e+48)
(-1.6989094e+50 -1.5514459e+49 -4.8188411e+48)
(-1.8343563e+50 -1.1731544e+49 -1.2773061e+49)
(-1.2645334e+50 -1.668917e+49 3.0721728e+49)
(-1.5122556e+50 2.5611834e+49 2.1767953e+49)
(-1.4582739e+50 -7.2902986e+48 2.4947344e+49)
(-2.1754382e+50 1.2385899e+49 1.4623752e+48)
(-1.1994195e+50 2.0326097e+49 1.9935e+49)
(-1.5719485e+50 -2.3872438e+49 3.8591199e+49)
(-1.7156417e+50 -2.2077873e+49 3.5212906e+49)
(-1.3102955e+50 -2.288209e+48 4.071298e+49)
(-2.0093664e+50 -2.78171e+49 3.2379061e+49)
(-1.8601132e+50 -2.0760105e+49 3.506951e+49)
(-1.7819878e+50 -1.9279593e+49 3.2757068e+49)
(-1.8174511e+50 -1.4431386e+49 3.1837454e+49)
(-2.1998802e+50 -2.6207624e+49 3.0203543e+49)
(-2.1426991e+50 -2.4716168e+49 3.0248349e+49)
(-1.6917673e+50 -6.4649153e+48 4.5083174e+49)
(-1.5749191e+50 3.5844718e+48 3.6776642e+49)
(-1.2371556e+50 2.4977466e+48 3.9327867e+49)
(-1.1534846e+50 2.5303188e+49 4.1254402e+49)
(-1.581312e+50 3.0137283e+49 4.1464506e+49)
(-1.1972024e+50 1.7566891e+49 4.143995e+49)
(-1.6087476e+50 1.4613913e+49 4.1587876e+49)
(-1.8410294e+50 -1.1910753e+49 3.1094112e+49)
(-1.8536787e+50 -7.8349109e+48 2.9465735e+49)
(-2.2602692e+50 -1.8257601e+49 2.9989903e+49)
(-2.2837686e+50 -1.98561e+49 2.9661028e+49)
(-2.4726474e+50 -3.0600563e+48 -1.3035124e+49)
(-2.186859e+50 2.6637539e+49 1.1150259e+49)
(-2.1737755e+50 -1.1329124e+49 9.6520986e+48)
(-2.1856002e+50 -2.6370807e+49 1.8991894e+49)
(-2.3182279e+50 -3.220133e+49 1.6922118e+49)
(-2.2764669e+50 -2.6943576e+49 2.7000876e+48)
(-2.1608428e+50 -2.4014809e+49 4.0272085e+48)
(-2.2334509e+50 -1.7220311e+49 -1.0092111e+48)
(-2.194798e+50 -1.065086e+49 -8.6437747e+48)
(-2.2534224e+50 -1.37822e+49 -1.0018165e+49)
(-2.3046314e+50 -2.0254901e+49 -3.8740592e+48)
(-2.6780996e+50 -8.0510751e+47 -5.5647711e+48)
(-2.4061698e+50 -1.7111731e+49 -6.2063275e+48)
(-2.3396967e+50 -1.2231795e+49 -1.3270007e+49)
(-2.6388934e+50 -7.9782856e+48 -7.8381421e+48)
(-2.4620593e+50 3.0236066e+48 -1.4956031e+49)
(-2.3894301e+50 -2.9515048e+48 -1.3598468e+49)
(-2.334955e+50 1.1911743e+48 -1.3226402e+48)
(-2.3154697e+50 2.5662012e+48 -7.4106221e+47)
(-2.2111601e+50 -2.2077258e+48 -1.1550659e+49)
(-2.2853399e+50 4.8433225e+47 -1.2054907e+49)
(-2.3797446e+50 -2.2390671e+49 -5.8933613e+47)
(-2.4619291e+50 -2.5250734e+49 1.4871212e+49)
(-2.1872776e+50 -2.004103e+49 2.1557328e+49)
(-2.1649305e+50 -1.9129667e+49 2.1237103e+49)
(-2.0892605e+50 -2.5836432e+49 2.0989655e+49)
(-2.1268055e+50 -2.6656569e+49 2.2085132e+49)
(-1.9911806e+50 -3.1269051e+49 2.2956829e+49)
(-1.8990568e+50 -2.6039985e+49 2.3148711e+49)
(-1.6670379e+50 -1.7090506e+49 2.3847792e+49)
(-1.586592e+50 -4.7158296e+48 1.751674e+49)
(-1.5920151e+50 2.8544545e+49 2.4326984e+49)
(-1.5845535e+50 1.05498e+49 2.2559227e+49)
(-2.8862915e+50 3.6996238e+48 -8.219097e+48)
(-2.8873717e+50 3.0444317e+48 -1.3171521e+49)
(-2.3662e+50 -6.4879867e+48 -2.1844434e+49)
(-2.3172323e+50 -4.0629432e+48 -8.3961465e+48)
(-2.3364745e+50 -5.3826424e+48 -1.1104669e+49)
(-1.1405579e+50 -1.3761987e+49 -2.0811191e+49)
(-1.1584352e+50 -9.153864e+48 -2.4155519e+49)
(-1.1196417e+50 -1.0060371e+49 2.249947e+49)
(-1.1295176e+50 -1.0421542e+48 2.0493844e+49)
(-1.872055e+50 -1.0146639e+49 -2.538965e+49)
(-1.833074e+50 -1.0532501e+49 -2.2062631e+49)
(-1.5797005e+50 -9.3294154e+48 -3.0400728e+49)
(-1.5551476e+50 -1.2096026e+49 -2.7894132e+49)
(-2.053534e+50 -3.1530041e+48 8.1076658e+48)
(-2.2758302e+50 1.1547889e+47 3.944605e+48)
(-2.258042e+50 -5.46303e+48 1.8934597e+48)
(-2.0486168e+50 -5.2971833e+48 5.3643356e+48)
(-2.3205169e+50 -6.9974623e+48 -6.1464381e+48)
(-2.2485595e+50 -4.2906532e+48 -1.1390556e+48)
(-2.2854688e+50 -8.7424494e+48 -1.2087036e+49)
(-2.33061e+50 -9.5627626e+48 -1.7080279e+49)
(-1.5433291e+50 -4.4754166e+48 3.3236731e+47)
(-1.7681233e+50 -1.711594e+49 -1.2974821e+49)
(-1.7084464e+50 -1.5811604e+49 -5.5475328e+48)
(-1.4362542e+50 -1.804772e+49 -6.7746849e+48)
(-1.4985752e+50 -1.787571e+49 -1.3004013e+49)
(-1.8201785e+50 -1.4238691e+49 -2.071723e+49)
(-1.7833234e+50 -1.5266752e+49 -1.5284324e+49)
(-1.5456769e+50 -1.4195012e+49 -2.4357999e+49)
(-1.5194744e+50 -1.7427601e+49 -1.8668921e+49)
(-1.0013583e+50 -2.0904451e+49 2.3550267e+48)
(-1.0891899e+50 -1.9582558e+49 -4.1008555e+48)
(-9.4932983e+49 -2.2223811e+49 3.8744577e+49)
(-1.0408264e+50 2.2360767e+48 3.2073002e+49)
(-1.0590208e+50 -1.5234148e+49 3.4037115e+49)
(-9.7999289e+49 -2.2750907e+48 3.2469431e+49)
(-1.5573248e+50 -5.1825156e+48 2.8243221e+48)
(-1.1245783e+50 -1.9511206e+49 -1.019395e+49)
(-1.143591e+50 -1.4588366e+49 -1.668227e+49)
(-1.1100913e+50 -7.3791627e+48 2.4873901e+49)
(-1.098152e+50 -1.7288522e+49 2.9319924e+49)
(-2.0014036e+50 1.5328674e+49 9.7007494e+48)
(-2.2417385e+50 1.5858417e+49 4.785484e+48)
(-2.2648787e+50 7.1648061e+48 4.7913196e+48)
(-2.0145618e+50 9.0841497e+48 1.0780105e+49)
(-1.4099768e+50 1.5987711e+49 1.6554243e+48)
(-1.4714401e+50 1.0455143e+49 3.0330349e+48)
(-1.0847709e+50 1.9613751e+49 3.5933376e+49)
(-1.0372008e+50 1.8097839e+49 3.3345386e+49)
(-1.2966992e+50 -1.4718527e+49 3.8031573e+49)
(-1.5283435e+50 -1.7869437e+49 3.9929375e+49)
(-1.55916e+50 -1.640374e+49 3.7204438e+49)
(-1.8598216e+50 -2.3663528e+49 3.5483878e+49)
(-1.8216848e+50 -2.0835447e+49 3.6431461e+49)
(-1.5899595e+50 -1.5551424e+49 3.4853762e+49)
(-1.5997903e+50 -1.3240219e+49 3.4550084e+49)
(-1.9221668e+50 -2.3358446e+49 3.3921201e+49)
(-1.9162143e+50 -2.1196262e+49 3.3643761e+49)
(-1.3234708e+50 -9.2559924e+48 3.9236856e+49)
(-1.6957022e+50 -9.7200422e+48 3.531844e+49)
(-1.639573e+50 -1.7965437e+49 3.6147917e+49)
(-1.6211953e+50 -1.2527518e+49 3.3199511e+49)
(-1.6186255e+50 -9.4299299e+48 3.0974139e+49)
(-1.9682486e+50 -1.7593411e+49 3.2733549e+49)
(-1.9765149e+50 -1.8848695e+49 3.1847855e+49)
(-1.629248e+50 -8.1864805e+48 3.0522304e+49)
(-1.6159458e+50 -7.0938268e+48 3.0203116e+49)
(-1.9888446e+50 -1.733634e+49 3.2031619e+49)
(-1.9963198e+50 -1.4890284e+49 3.1708386e+49)
(-1.2557943e+50 9.1558279e+47 4.0344511e+49)
(-1.2555116e+50 -7.1570938e+47 3.8718966e+49)
(-1.5827652e+50 2.3373048e+48 3.4047485e+49)
(-1.64205e+50 -3.0052624e+48 3.6809587e+49)
(-1.1576313e+50 2.4556014e+49 4.0534547e+49)
(-1.2034287e+50 1.8144474e+49 4.137694e+49)
(-1.5358013e+50 1.9094195e+49 3.609835e+49)
(-1.5030693e+50 2.9026111e+49 3.6189869e+49)
(-1.52451e+50 1.3955931e+49 3.5855664e+49)
(-1.1841296e+50 1.1689998e+49 4.1389188e+49)
(-1.2019376e+50 1.1178339e+49 4.2094742e+49)
(-1.5354049e+50 9.8776433e+48 3.7263627e+49)
(-1.6315315e+50 -6.8450059e+48 2.9863416e+49)
(-1.63615e+50 -4.9611125e+48 2.8631878e+49)
(-2.0207522e+50 -1.29574e+49 3.0988448e+49)
(-2.0103575e+50 -1.1511918e+49 3.1323622e+49)
(-1.6299208e+50 -4.0930227e+48 2.7424201e+49)
(-1.6272481e+50 -2.1571456e+48 2.7827085e+49)
(-2.0173949e+50 -1.1486505e+49 3.0317503e+49)
(-2.0211233e+50 -9.4011031e+48 2.9752515e+49)
(-2.1564935e+50 -7.9461149e+48 -5.7808976e+48)
(-2.1663105e+50 -1.4613559e+49 1.8324051e+48)
(-2.0992194e+50 -3.8074925e+48 -2.3418684e+47)
(-2.2613167e+50 2.234246e+48 -1.0047592e+49)
(-2.071425e+50 6.8565043e+48 6.9605629e+48)
(-1.9332387e+50 2.4916799e+49 7.166566e+48)
(-1.8479044e+50 2.7434859e+49 1.7791938e+49)
(-1.9010725e+50 6.9329378e+48 1.8600162e+49)
(-1.9068411e+50 -7.1004143e+48 3.0072202e+48)
(-1.850002e+50 -7.6245176e+48 1.2583212e+49)
(-1.9115293e+50 -2.1445219e+49 1.7801442e+49)
(-2.0065486e+50 -2.0420853e+49 7.5839205e+48)
(-2.0506182e+50 -2.3218194e+49 2.3324074e+49)
(-2.03737e+50 -2.4668836e+49 1.1695024e+49)
(-2.0083659e+50 -2.027237e+49 1.1525854e+49)
(-2.0896268e+50 -2.8525363e+49 2.2953786e+49)
(-2.1313117e+50 -2.1843449e+49 9.8971481e+48)
(-2.1006312e+50 -2.1139437e+49 8.1937762e+48)
(-2.2044581e+50 -2.5568341e+49 2.1296738e+49)
(-2.1859614e+50 -2.3688098e+49 2.0349877e+49)
(-2.0955161e+50 -1.9274739e+49 4.3493589e+48)
(-2.0190508e+50 -1.6638076e+49 -3.3492393e+48)
(-2.0429338e+50 -1.6890262e+49 -1.9499972e+48)
(-2.1157171e+50 -2.1021131e+49 5.5964364e+48)
(-2.0209168e+50 -1.7868791e+49 8.3385243e+48)
(-1.9884385e+50 -1.7943432e+49 1.4317662e+47)
(-1.9562351e+50 -1.5406192e+49 1.7108526e+47)
(-2.0389871e+50 -2.1969701e+49 7.4491347e+48)
(-1.9701324e+50 -1.3037244e+49 -1.5476406e+48)
(-1.9778452e+50 -1.148103e+49 -5.1927804e+48)
(-1.9565419e+50 -1.0473133e+49 -5.3977195e+48)
(-1.9905976e+50 -1.5345973e+49 -1.6970928e+48)
(-2.0181683e+50 -9.5353063e+48 -6.0494726e+48)
(-1.9975353e+50 -8.4253542e+48 -6.0626639e+48)
(-1.9841619e+50 -6.6992677e+48 -7.7816614e+48)
(-2.0043221e+50 -7.1210045e+48 -7.5221746e+48)
(-2.2507382e+50 -5.7553867e+48 -1.0317433e+49)
(-2.0513509e+50 -7.5191472e+48 -9.1800018e+48)
(-2.0372625e+50 -7.9644317e+48 -1.0442697e+49)
(-2.0518165e+50 -9.6400704e+48 -8.7035114e+48)
(-2.2896171e+50 -9.7058243e+48 -1.1928388e+49)
(-2.0656098e+50 -1.0137835e+49 -7.4411337e+48)
(-2.0284043e+50 -1.1623119e+49 -7.0968845e+48)
(-2.0081037e+50 -1.1765267e+49 -8.5001998e+48)
(-2.0236396e+50 -1.453588e+49 -5.2519651e+48)
(-2.0390145e+50 -1.527821e+49 -4.1184188e+48)
(-2.2398567e+50 -6.8179793e+48 -1.5629677e+49)
(-2.2484648e+50 -1.9697243e+48 -1.3193726e+49)
(-2.0863888e+50 -1.2820809e+49 -5.4645795e+48)
(-2.0744567e+50 -9.5561389e+48 -8.5239869e+48)
(-2.0626804e+50 -1.0830554e+49 -8.8477573e+48)
(-2.1022896e+50 -1.2636146e+49 -5.0953112e+48)
(-2.0947087e+50 -6.2762761e+48 -1.05357e+49)
(-2.0915741e+50 -7.4962211e+48 -1.0517385e+49)
(-2.1108684e+50 -8.6179048e+48 -8.8976431e+48)
(-2.1004136e+50 -9.0137952e+48 -8.992874e+48)
(-2.3945149e+50 -8.2999544e+48 -1.3146351e+49)
(-2.3778536e+50 -7.728506e+48 -1.187928e+49)
(-2.286893e+50 -5.1165847e+48 -1.8328713e+49)
(-2.2958766e+50 -5.0978004e+48 -1.5387856e+49)
(-2.1371491e+50 1.9615649e+48 -1.8147701e+49)
(-2.3798694e+50 1.5294478e+48 -1.1434247e+49)
(-2.8224379e+50 6.7460927e+48 -7.5311893e+48)
(-2.1043112e+50 -2.4174779e+48 -1.8527316e+49)
(-2.3568749e+50 -3.0247083e+48 -1.5686578e+49)
(-2.4333278e+50 5.0176132e+48 -2.8607541e+49)
(-2.4269167e+50 -8.5177824e+47 -2.8363605e+49)
(-2.7934717e+50 -5.4696044e+47 -7.8834911e+48)
(-2.3991773e+50 -2.236565e+48 -1.6805529e+49)
(-2.0821659e+50 -1.2190703e+48 -2.0071078e+49)
(-2.1041605e+50 -4.2424289e+48 -1.877341e+49)
(-2.39343e+50 -3.3850706e+48 -1.4442973e+49)
(-2.165033e+50 -1.5970188e+49 3.9040728e+48)
(-2.0931008e+50 -1.3416857e+49 -3.1767686e+48)
(-2.0764098e+50 -1.4150615e+49 -3.6426046e+48)
(-2.1773313e+50 -1.6727685e+49 3.8364181e+48)
(-2.2513851e+50 -1.8343265e+49 1.96428e+49)
(-2.1827678e+50 -1.6977949e+49 8.8125984e+48)
(-2.170329e+50 -1.6929765e+49 8.5284805e+48)
(-2.2681519e+50 -2.0127913e+49 1.9879461e+49)
(-1.9193858e+50 -8.5348707e+48 2.2252747e+49)
(-1.9189919e+50 -1.0728205e+49 2.3419811e+49)
(-1.9208345e+50 -1.2796524e+49 2.3645987e+49)
(-1.9090247e+50 -1.1164815e+49 2.3690037e+49)
(-1.8743979e+50 -1.6982955e+49 2.4737822e+49)
(-1.886912e+50 -1.8336668e+49 2.4461003e+49)
(-1.9017942e+50 -1.3537493e+49 2.3995091e+49)
(-1.8974514e+50 -1.6127523e+49 2.5161974e+49)
(-1.841136e+50 -1.948787e+49 2.6056905e+49)
(-1.8441426e+50 -2.2170441e+49 2.6976134e+49)
(-1.7666075e+50 -1.9371456e+49 2.916177e+49)
(-1.7924267e+50 -2.3194904e+49 2.8279793e+49)
(-1.7130262e+50 -2.2909456e+49 2.4005537e+49)
(-1.7724543e+50 -1.360162e+49 2.0561092e+49)
(-1.7306869e+50 -4.0609505e+48 1.9988633e+49)
(-1.7028214e+50 -8.8761958e+48 2.0406154e+49)
(-1.5751974e+50 1.7570037e+49 2.2762133e+49)
(-1.5511705e+50 2.835711e+49 2.4734693e+49)
(-1.5728628e+50 1.1898507e+49 2.2739159e+49)
(-1.6027586e+50 6.0201296e+48 2.3933085e+49)
(-2.8825169e+50 1.4588128e+49 -1.8354526e+48)
(-2.8740306e+50 5.6110091e+48 -3.1694067e+48)
(-2.9223474e+50 5.5694943e+48 -3.4274916e+48)
(-2.9246521e+50 3.4159989e+48 -6.1920831e+48)
(-2.4280561e+50 -3.9766734e+48 -2.0061013e+49)
(-1.8876351e+50 -8.8678183e+48 -2.7724939e+49)
(-1.8574657e+50 -7.9572954e+48 -2.5647611e+49)
(-2.417169e+50 -2.1152686e+48 -6.4838441e+48)
(-2.4478646e+50 -3.4442132e+48 -8.496745e+48)
(-1.0897573e+50 -1.216806e+49 -3.065405e+49)
(-1.1013691e+50 -1.1607109e+49 -3.1620486e+49)
(-8.2158996e+49 -1.0702458e+49 -3.3314905e+49)
(-8.3200823e+49 -1.0154853e+49 -3.3413651e+49)
(-1.112428e+50 -9.8878979e+48 -3.1472533e+49)
(-1.1154299e+50 -9.291473e+48 -3.2520844e+49)
(-8.3114192e+49 -9.1071925e+48 -3.4365139e+49)
(-8.3518868e+49 -7.8533304e+48 -3.5114584e+49)
(-7.1933726e+49 -6.8523961e+48 -3.5502379e+48)
(-7.2135377e+49 -5.8505959e+48 -4.4170461e+48)
(-1.0818558e+50 -2.5252927e+48 2.4838028e+49)
(-1.0761893e+50 -6.0900792e+48 2.5396256e+49)
(-1.0780678e+50 -3.351829e+48 2.3658287e+49)
(-1.056314e+50 2.661357e+47 2.2396068e+49)
(-7.1869631e+49 -5.0239873e+48 -5.6379265e+48)
(-6.9726206e+49 -3.9543099e+48 -8.5094358e+48)
(-1.6570439e+50 -7.051947e+48 -3.6580421e+49)
(-1.6338183e+50 -8.2783889e+48 -3.5587804e+49)
(-2.2573942e+50 9.8764352e+46 -2.733216e+48)
(-2.2693493e+50 2.0066781e+48 4.812757e+48)
(-2.2403845e+50 -4.6089142e+48 2.5373049e+48)
(-2.2498576e+50 -7.2922076e+48 -5.0661282e+48)
(-2.4438042e+50 -3.7468958e+48 -6.2336884e+48)
(-2.3496036e+50 -1.6510512e+48 -1.9438908e+48)
(-2.3630182e+50 -3.6497052e+48 -1.5143341e+49)
(-1.7268065e+50 -1.1792724e+49 -1.589159e+49)
(-1.7762301e+50 -1.3702725e+49 -2.0104019e+49)
(-2.4055397e+50 -5.4781655e+48 -1.7113481e+49)
(-1.8022847e+50 -1.0844755e+49 -2.1436258e+49)
(-1.8377208e+50 -1.1591723e+49 -2.4711354e+49)
(-1.6656574e+50 -9.5375807e+48 3.697108e+48)
(-1.6732233e+50 -1.4594271e+49 -8.4052409e+47)
(-1.3781962e+50 -1.4130514e+49 -6.5429338e+47)
(-1.3755799e+50 -9.98142e+48 3.4734204e+48)
(-1.4991617e+50 -1.4785096e+49 -2.3777155e+49)
(-1.5483767e+50 -1.519537e+49 -2.7978898e+49)
(-1.6158195e+50 -1.1079069e+49 -3.3708269e+49)
(-1.582529e+50 -1.272927e+49 -3.1245799e+49)
(-8.8822912e+49 -1.4581876e+49 6.8429228e+48)
(-9.6250297e+49 -1.7830642e+49 -8.9915753e+48)
(-9.9158826e+49 -1.912159e+49 -1.3990389e+49)
(-7.4744923e+49 -1.6068493e+49 -9.3019623e+48)
(-7.7818568e+49 -1.6545372e+49 -1.2774417e+49)
(-1.0138546e+50 -1.8474344e+49 -1.7619362e+49)
(-1.0222183e+50 -1.9032657e+49 -2.2593374e+49)
(-7.9743742e+49 -1.5680916e+49 -1.7583868e+49)
(-8.0601376e+49 -1.5459038e+49 -2.1660848e+49)
(-6.5075321e+49 -1.4488807e+49 1.9214024e+49)
(-6.8096363e+49 -1.4073229e+49 1.5618708e+49)
(-1.0261928e+50 -1.6589273e+49 4.0424178e+49)
(-1.0498702e+50 -1.3156588e+49 3.7669863e+49)
(-7.9835437e+49 -1.197743e+49 4.1902846e+49)
(-9.0085022e+49 -1.0657746e+49 1.0654874e+49)
(-7.992053e+49 -1.112009e+49 4.5603901e+49)
(-7.0941178e+49 -1.2565936e+49 1.1779189e+49)
(-1.0735729e+50 -1.3703617e+49 3.4804614e+49)
(-1.0638634e+50 -9.7273033e+48 3.2448494e+49)
(-7.038501e+49 -1.1822565e+49 7.0954778e+48)
(-8.5688006e+49 -8.3563561e+47 1.2257249e+49)
(-8.5661885e+49 -3.3031666e+48 1.1338678e+49)
(-7.3183462e+49 -1.2598551e+48 4.5631082e+49)
(-7.4349232e+49 9.8366395e+47 4.5219025e+49)
(-1.6556082e+50 -5.6047001e+48 4.34721e+48)
(-1.6583027e+50 -2.748295e+48 5.8278002e+48)
(-1.3489693e+50 -4.104796e+48 5.4802759e+48)
(-1.3597741e+50 -2.1851152e+48 6.0087111e+48)
(-1.036736e+50 -1.7399564e+49 -2.4423269e+49)
(-1.0534585e+50 -1.6833289e+49 -2.7564623e+49)
(-8.0753858e+49 -1.4582398e+49 -2.5197066e+49)
(-8.2296549e+49 -1.3640762e+49 -2.7207615e+49)
(-1.0732935e+50 -1.5087242e+49 -2.8500928e+49)
(-1.0813101e+50 -1.4338118e+49 -3.0561139e+49)
(-8.2576631e+49 -1.249719e+49 -2.9771072e+49)
(-8.2656947e+49 -1.169935e+49 -3.1826162e+49)
(-7.3330179e+49 -7.7337881e+48 1.2681882e+47)
(-7.1114627e+49 -7.1901975e+48 -3.6109176e+48)
(-1.085819e+50 -6.6305524e+48 2.7369968e+49)
(-1.0579525e+50 -4.0499448e+48 2.5429861e+49)
(-7.1920769e+49 -1.0930363e+49 4.8187984e+48)
(-1.0911096e+50 -1.1459119e+49 3.0817243e+49)
(-7.2507556e+49 -9.0223411e+48 1.8961922e+48)
(-1.0828788e+50 -6.0818579e+48 2.8745134e+49)
(-2.2343087e+50 1.679243e+49 -9.2464246e+47)
(-2.2067589e+50 1.3844917e+49 5.461618e+48)
(-2.2362418e+50 5.4658445e+48 6.4866427e+48)
(-2.2422462e+50 6.4117042e+48 5.5822292e+47)
(-1.6255621e+50 1.3182824e+49 6.3688303e+48)
(-1.6041518e+50 1.9924209e+49 4.6064545e+48)
(-1.3243269e+50 1.505519e+49 5.3241046e+48)
(-1.3064946e+50 2.0842212e+49 2.8020904e+48)
(-1.6167976e+50 3.0254828e+48 7.0218981e+48)
(-1.6270223e+50 6.4735219e+48 7.4902146e+48)
(-1.3186184e+50 5.287797e+48 6.1582976e+48)
(-1.3164828e+50 7.4122619e+48 6.3608403e+48)
(-8.5578541e+49 1.0873878e+49 1.2161071e+49)
(-7.117641e+49 8.963042e+48 4.7341344e+49)
(-8.5330835e+49 9.51087e+48 1.253062e+49)
(-7.0697923e+49 1.3007918e+49 4.7328588e+49)
(-8.3070871e+49 2.2097153e+49 9.0663696e+48)
(-6.9634984e+49 2.1144914e+49 4.4829265e+49)
(-8.6553072e+49 1.7831161e+49 1.1182579e+49)
(-7.1532125e+49 2.0750524e+49 4.6862406e+49)
(-1.4673882e+50 -1.1357063e+49 4.2107454e+49)
(-1.4452366e+50 -1.5607803e+49 4.1614414e+49)
(-1.7098581e+50 -2.2130522e+49 3.6454262e+49)
(-1.7459771e+50 -1.5469124e+49 3.5689308e+49)
(-1.4130967e+50 -1.0834661e+49 3.4402746e+49)
(-1.395062e+50 -1.1683433e+49 3.5250302e+49)
(-1.6846749e+50 -1.3103527e+49 3.3802286e+49)
(-1.7012948e+50 -1.5170763e+49 3.4169608e+49)
(-1.4034194e+50 -9.6500792e+48 3.2325123e+49)
(-1.4163196e+50 -1.0849363e+49 3.3017695e+49)
(-1.7208239e+50 -1.3550859e+49 3.2258457e+49)
(-1.7151551e+50 -1.6038193e+49 3.2288479e+49)
(-1.4353222e+50 -9.5896529e+48 3.0980149e+49)
(-1.4079265e+50 -1.1554546e+49 3.062715e+49)
(-1.7430541e+50 -1.2618644e+49 3.0539126e+49)
(-1.7495803e+50 -1.3991117e+49 3.0920887e+49)
(-1.4207494e+50 -7.0870645e+48 3.0286551e+49)
(-1.4356461e+50 -8.6947287e+48 3.0639849e+49)
(-1.7565955e+50 -1.1545252e+49 3.1125323e+49)
(-1.7441536e+50 -1.4379211e+49 3.1050729e+49)
(-1.4365732e+50 -8.0827996e+48 4.3181552e+49)
(-1.4370201e+50 -9.1754559e+48 4.1912793e+49)
(-1.7234774e+50 -1.3289324e+49 3.4957466e+49)
(-1.7155448e+50 -8.9301051e+48 3.5441299e+49)
(-1.4507788e+50 -7.2033339e+48 2.9503558e+49)
(-1.4217669e+50 -9.3067415e+48 2.8718506e+49)
(-1.7549558e+50 -1.0527672e+49 2.8884214e+49)
(-1.7708175e+50 -1.1552157e+49 2.9901546e+49)
(-1.423993e+50 -6.4310223e+48 2.7524669e+49)
(-1.4047004e+50 -5.3162786e+48 2.675268e+49)
(-1.7656323e+50 -8.9375097e+48 2.8123641e+49)
(-1.7602365e+50 -1.1047761e+49 2.8277359e+49)
(-1.4399092e+50 -4.2721065e+48 2.7397586e+49)
(-1.4268494e+50 -6.9929072e+48 2.7397484e+49)
(-1.7759292e+50 -7.469972e+48 2.7978417e+49)
(-1.7798507e+50 -8.395526e+48 2.8533203e+49)
(-1.411976e+50 -3.8889477e+48 2.6722677e+49)
(-1.4303762e+50 -3.8676832e+48 2.7106087e+49)
(-1.770683e+50 -6.5142181e+48 2.8486858e+49)
(-1.7644051e+50 -9.4871653e+48 2.8778848e+49)
(-1.3940957e+50 -2.129587e+48 4.3291159e+49)
(-1.391121e+50 -2.0078926e+48 4.2604973e+49)
(-1.6431708e+50 -1.6582582e+47 3.5974539e+49)
(-1.6682426e+50 -3.7055743e+48 3.540825e+49)
(-1.4067695e+50 -3.6446034e+48 4.2906738e+49)
(-1.3556429e+50 -5.2580884e+48 4.1836899e+49)
(-1.635242e+50 -7.7537402e+48 3.4895683e+49)
(-1.6822595e+50 -4.5983177e+48 3.4659399e+49)
(-1.4064006e+50 3.1727478e+49 3.7721736e+49)
(-1.2726968e+50 2.1629211e+49 4.1827327e+49)
(-1.3250689e+50 1.7501811e+49 4.2454426e+49)
(-1.5594766e+50 2.0327572e+49 3.6083375e+49)
(-1.5205398e+50 2.6919992e+49 3.661459e+49)
(-1.2853617e+50 1.3738972e+49 4.2245095e+49)
(-1.3218631e+50 1.2786829e+49 4.3029413e+49)
(-1.5460236e+50 1.3365349e+49 3.6245655e+49)
(-1.5335132e+50 1.6901419e+49 3.6115086e+49)
(-1.2753349e+50 8.2350898e+48 4.2760935e+49)
(-1.5189036e+50 1.1044802e+49 3.6799791e+49)
(-1.2897775e+50 7.5848008e+48 4.2511038e+49)
(-1.5365444e+50 8.3633804e+48 3.6971672e+49)
(-1.3015181e+50 4.3206785e+48 4.2949673e+49)
(-1.2890694e+50 3.4247524e+48 4.279988e+49)
(-1.5488611e+50 3.7683976e+48 3.8973497e+49)
(-1.5518733e+50 6.4293428e+48 3.7703336e+49)
(-1.4263118e+50 -3.1100161e+48 2.6012752e+49)
(-1.4353889e+50 -5.6233975e+48 2.7562672e+49)
(-1.7769142e+50 -7.2233966e+48 2.7679113e+49)
(-1.7767979e+50 -5.8695503e+48 2.8040072e+49)
(-1.4267151e+50 -1.6050773e+48 2.5920445e+49)
(-1.422638e+50 -3.6432352e+48 2.526525e+49)
(-1.7801852e+50 -5.2767673e+48 2.6557185e+49)
(-1.7811851e+50 -6.7431823e+48 2.7268145e+49)
(-1.4038372e+50 -3.6452054e+48 2.4083673e+49)
(-1.7766323e+50 -3.6712249e+48 2.5703526e+49)
(-1.7801161e+50 -4.7938625e+48 2.6344889e+49)
(-1.4301807e+50 -1.2251605e+48 2.5111354e+49)
(-1.4187875e+50 -2.5310487e+47 2.48147e+49)
(-1.3927991e+50 6.3969698e+47 2.3808762e+49)
(-1.767544e+50 -5.0504762e+48 2.6528724e+49)
(-1.7776911e+50 -2.6811093e+48 2.675243e+49)
(-2.7336409e+50 2.1052297e+48 -2.7363067e+49)
(-1.9190644e+50 2.3610212e+48 -8.5033077e+47)
(-2.2847922e+50 -2.429219e+48 -7.7201278e+48)
(-2.2505299e+50 1.6930001e+47 -1.0257291e+49)
(-1.9869651e+50 -2.290212e+48 -6.2617029e+48)
(-1.9792985e+50 -5.3063095e+48 -5.2998966e+48)
(-1.9780247e+50 -4.1675003e+48 -4.8771991e+48)
(-1.9647227e+50 -7.4689754e+48 -4.0094746e+48)
(-1.9265078e+50 -9.4568893e+48 -1.9954905e+48)
(-1.944873e+50 -4.9575769e+48 -3.2495861e+48)
(-1.936021e+50 -7.0349623e+48 1.0104536e+47)
(-1.9101699e+50 -1.2184342e+49 5.7075578e+47)
(-1.8929953e+50 -9.9774097e+47 -4.5250767e+47)
(-1.8705063e+50 -2.9759911e+48 -2.7234681e+48)
(-1.8793465e+50 -4.3343088e+48 6.5352137e+47)
(-1.8746327e+50 5.1017354e+47 -3.9148887e+48)
(-1.9550016e+50 4.3470005e+47 -7.7912668e+48)
(-1.8995952e+50 -1.0549244e+48 -7.3367929e+48)
(-1.9045448e+50 8.6670649e+48 1.1431195e+49)
(-1.8558322e+50 7.6318617e+48 3.0680533e+48)
(-1.938156e+50 -2.4438845e+47 1.1083637e+49)
(-1.897169e+50 1.1342597e+48 2.60705e+48)
(-1.8846554e+50 1.1681514e+49 2.0640722e+48)
(-1.827009e+50 2.3262517e+49 1.0696064e+49)
(-1.8939986e+50 1.4060026e+49 1.0201389e+49)
(-1.8436816e+50 1.5225493e+49 1.1127929e+49)
(-1.7610984e+50 2.4918788e+49 1.2970393e+49)
(-1.7515506e+50 2.7650211e+49 2.210876e+49)
(-1.7941379e+50 1.6604984e+49 2.0516393e+49)
(-1.7707054e+50 8.0345095e+48 1.1703335e+49)
(-1.7518648e+50 1.0071225e+49 2.1005924e+49)
(-1.8764625e+50 -1.7150082e+48 1.290737e+49)
(-1.8689901e+50 5.0268907e+47 2.4789056e+49)
(-1.9083949e+50 -2.138353e+48 9.5507762e+47)
(-1.9430434e+50 -3.6583404e+48 8.4729992e+48)
(-1.9091566e+50 -9.0127739e+48 8.4659087e+48)
(-1.8685571e+50 -6.7567234e+48 1.647787e+48)
(-1.9108381e+50 -5.9432703e+48 1.0575841e+49)
(-1.95592e+50 -6.1081234e+48 2.130524e+49)
(-1.8689482e+50 -1.0906475e+49 1.0609001e+49)
(-1.8861028e+50 -1.164748e+49 2.0218045e+49)
(-1.8978979e+50 -2.0271705e+49 1.4346932e+49)
(-1.9417547e+50 -1.2434109e+49 1.1936487e+49)
(-1.971081e+50 -1.3985483e+49 2.2390027e+49)
(-1.9209134e+50 -2.3233066e+49 2.4499431e+49)
(-1.8961062e+50 -1.5254686e+49 3.5423849e+48)
(-1.9571076e+50 -1.0844877e+49 9.4344012e+48)
(-1.9361337e+50 -8.027955e+48 2.3094217e+48)
(-1.9225496e+50 -1.8554143e+49 1.070772e+49)
(-2.4044141e+50 1.0905891e+48 -8.3920225e+48)
(-2.1319426e+50 4.2519786e+47 -1.6640708e+49)
(-1.8133512e+50 -1.5265864e+49 1.8054522e+49)
(-1.8648263e+50 -1.722282e+49 2.7294617e+49)
(-1.8286247e+50 -1.8880267e+49 1.8304194e+49)
(-1.8873164e+50 -2.126292e+49 2.7166169e+49)
(-1.8055601e+50 -1.3823619e+49 4.5874059e+48)
(-1.8088275e+50 -1.608359e+49 6.1218871e+48)
(-1.8770826e+50 -1.5404776e+49 1.1581152e+49)
(-1.8792034e+50 -1.8456631e+49 1.3035532e+49)
(-1.770694e+50 -1.319751e+49 6.0188776e+48)
(-1.8345141e+50 -1.4211775e+49 1.3022382e+49)
(-1.7874832e+50 -1.5560678e+49 6.4703118e+48)
(-1.8500032e+50 -1.7516143e+49 1.3148471e+49)
(-1.8603648e+50 -1.5932227e+49 1.5938495e+49)
(-1.9255816e+50 -1.8359372e+49 2.498305e+49)
(-1.8629949e+50 -1.8871418e+49 1.7633681e+49)
(-1.9249911e+50 -2.1560294e+49 2.6207331e+49)
(-1.8461304e+50 -1.1350721e+49 3.578461e+48)
(-1.8460448e+50 -1.280232e+49 5.268618e+48)
(-1.927512e+50 -1.2330927e+49 1.0497765e+49)
(-1.9287263e+50 -1.4788307e+49 1.2056318e+49)
(-1.8192042e+50 -1.3703694e+49 3.3115584e+48)
(-1.9009132e+50 -1.4555106e+49 1.0376652e+49)
(-1.8333753e+50 -1.3903423e+49 4.1227798e+48)
(-1.9135023e+50 -1.5856419e+49 1.0749643e+49)
(-1.9071409e+50 -1.1974216e+49 1.4696359e+49)
(-1.9068778e+50 -1.4155628e+49 1.6494442e+49)
(-1.986328e+50 -1.3799769e+49 2.3417428e+49)
(-1.9808022e+50 -1.677965e+49 2.4811789e+49)
(-1.9561584e+50 -1.6359445e+49 2.3679067e+49)
(-1.8833127e+50 -1.5009647e+49 1.4801299e+49)
(-1.8950001e+50 -1.5856013e+49 1.5221695e+49)
(-1.9676828e+50 -1.8273924e+49 2.3730058e+49)
(-1.7442468e+50 -1.2375344e+49 -3.0120613e+48)
(-1.8133505e+50 -1.3411219e+49 1.4563956e+48)
(-1.7567757e+50 -1.2112448e+49 -2.2305049e+48)
(-1.8278262e+50 -1.4166228e+49 2.2808578e+48)
(-1.6979181e+50 -1.0818954e+49 -5.2539009e+48)
(-1.7111483e+50 -1.0585114e+49 -4.420349e+48)
(-1.7474259e+50 -1.1887414e+49 -3.2453925e+48)
(-1.7612736e+50 -1.2218021e+49 -2.5766084e+48)
(-1.7250837e+50 -9.3009047e+48 -4.9700338e+48)
(-1.7248068e+50 -9.9877121e+48 -3.6537684e+48)
(-1.777012e+50 -1.0341097e+49 -2.947997e+48)
(-1.7777567e+50 -1.1639879e+49 -1.6048949e+48)
(-1.7705957e+50 -1.0404813e+49 -2.7644412e+48)
(-1.7707903e+50 -1.1242261e+49 -1.2924491e+48)
(-1.8424919e+50 -1.1704209e+49 1.7293504e+48)
(-1.8415584e+50 -1.3532714e+49 3.3078602e+48)
(-1.7072078e+50 -1.1481887e+49 -3.6277267e+47)
(-1.7661806e+50 -1.2661202e+49 4.2133175e+48)
(-1.7184988e+50 -1.2904546e+49 6.5520324e+46)
(-1.778454e+50 -1.5051318e+49 4.6644826e+48)
(-1.6895755e+50 -1.0262727e+49 -3.7921092e+48)
(-1.6934688e+50 -1.1577964e+49 -2.6617684e+48)
(-1.7383863e+50 -1.1545158e+49 -1.670199e+48)
(-1.7421332e+50 -1.3460978e+49 -5.2634456e+47)
(-1.6651618e+50 -9.5137299e+48 -2.7665837e+48)
(-1.7114944e+50 -1.0681164e+49 -5.3543532e+47)
(-1.6770628e+50 -1.0720413e+49 -2.2247913e+48)
(-1.7220429e+50 -1.2412438e+49 -2.4201616e+47)
(-1.7342693e+50 -1.2007617e+49 -1.6069636e+48)
(-1.7390642e+50 -1.3601842e+49 -2.8258019e+47)
(-1.7987855e+50 -1.3604212e+49 2.7882596e+48)
(-1.7989089e+50 -1.5976115e+49 4.1763124e+48)
(-1.6489387e+50 -7.9784333e+48 -3.8497993e+48)
(-1.6795046e+50 -8.9013139e+48 -2.1661796e+48)
(-1.6574513e+50 -8.7129235e+48 -3.3553155e+48)
(-1.6895309e+50 -1.041864e+49 -1.6639196e+48)
(-1.670008e+50 -7.1571557e+48 -5.6428717e+48)
(-1.6766393e+50 -7.7667859e+48 -4.782037e+48)
(-1.6986422e+50 -8.0176479e+48 -4.3152762e+48)
(-1.7039954e+50 -9.1446939e+48 -3.4628009e+48)
(-1.6499979e+50 -6.5065706e+48 -5.0689091e+48)
(-1.6752492e+50 -7.389844e+48 -3.6544903e+48)
(-1.6597588e+50 -6.9803139e+48 -4.4467346e+48)
(-1.6838072e+50 -8.2964079e+48 -3.2774456e+48)
(-1.6704515e+50 -8.5733876e+48 -4.7304619e+48)
(-1.6753719e+50 -9.5153345e+48 -3.7218209e+48)
(-1.7039598e+50 -9.8175708e+48 -3.2071402e+48)
(-1.706706e+50 -1.1413806e+49 -2.1518695e+48)
(-1.6908266e+50 -5.9259e+48 -6.0233811e+48)
(-1.7057796e+50 -6.6491022e+48 -5.2679965e+48)
(-1.7000944e+50 -6.3235927e+48 -5.2519404e+48)
(-1.7123459e+50 -7.3716502e+48 -4.5582875e+48)
(-1.6724775e+50 -5.3319065e+48 -5.5720149e+48)
(-1.6851043e+50 -6.0012629e+48 -4.7939475e+48)
(-1.6820898e+50 -5.5346308e+48 -4.855791e+48)
(-1.694965e+50 -6.6175805e+48 -4.2357725e+48)
(-1.7291983e+50 -4.8696255e+48 -5.4667782e+48)
(-1.7396446e+50 -5.312348e+48 -4.7810522e+48)
(-2.0170794e+50 -5.1191243e+48 -6.6679639e+48)
(-1.7507057e+50 -4.0666375e+48 -7.9425198e+48)
(-1.760897e+50 -4.476731e+48 -6.9905778e+48)
(-1.7496195e+50 -5.3560108e+48 -5.6430298e+48)
(-1.7562141e+50 -6.1590384e+48 -5.1123273e+48)
(-2.0392122e+50 -5.9464721e+48 -6.467566e+48)
(-1.7769997e+50 -5.3742801e+48 -7.4796121e+48)
(-1.7655762e+50 -4.5863289e+48 -8.2209836e+48)
(-2.0329129e+50 -4.1150369e+48 -7.7634024e+48)
(-2.015311e+50 -3.6681707e+48 -7.7776241e+48)
(-1.7863883e+50 -5.0457666e+48 -6.3396293e+48)
(-1.7850138e+50 -5.842097e+48 -5.7670029e+48)
(-2.0841785e+50 -6.7870934e+48 -8.4135803e+48)
(-1.8060596e+50 -5.1425933e+48 -8.1609363e+48)
(-1.8043131e+50 -4.3733741e+48 -8.7856919e+48)
(-1.7607449e+50 -5.8548735e+48 -7.0093249e+48)
(-1.7719884e+50 -5.7990657e+48 -6.6262138e+48)