/*--------------------------------*- C++ -*----------------------------------*\
  =========                 |
  \\      /  F ield         | OpenFOAM: The Open Source CFD Toolbox
   \\    /   O peration     | Website:  https://openfoam.org
    \\  /    A nd           | Version:  7
     \\/     M anipulation  |
\*---------------------------------------------------------------------------*/
FoamFile
{
    version     2.0;
    format      ascii;
    class       volScalarField;
    location    "2000";
    object      k;
}
// * * * * * * * * * * * * * * * * * * * * * * * * * * * * * * * * * * * * * //

dimensions      [0 2 -2 0 0 0 0];

internalField   nonuniform List<scalar> 
34158
(
1.520318
1.5193165
1.51893
1.5185875
1.5196291
1.5210103
1.5201716
1.5192703
1.5211163
1.5210574
1.518749
1.5191708
1.5189053
1.5186014
1.5193963
1.519573
1.5220038
1.5208679
1.5200379
1.5192259
1.5172354
1.516801
1.5212847
1.5214431
1.5203981
1.5211961
1.5211092
1.5203879
1.520287
1.520355
1.5203332
1.5202695
1.5202394
1.5203038
1.5168692
1.5167275
1.5171421
1.5174355
1.517881
1.5187934
1.5182684
1.5191707
1.5188822
1.5186125
1.5175271
1.517703
1.519288
1.5192529
1.519521
1.5220459
1.5219918
1.5207529
1.5199227
1.5192032
1.5226459
1.5232298
1.5172253
1.5162973
1.5171271
1.5167652
1.5204193
1.5186813
1.521439
1.5207018
1.5206443
1.5214999
1.520197
1.5202563
1.5204407
1.5203959
1.5204736
1.520522
1.5205116
1.5204688
1.5201537
1.5203199
1.5202961
1.5201476
1.5201405
1.5201189
1.5202764
1.5201328
1.5198157
1.519808
1.5197641
1.5197765
1.5196821
1.5196636
1.5196877
1.5196661
1.5196762
1.5196829
1.5196683
1.5198092
1.5197699
1.5198061
1.5197613
1.5197831
1.5197796
1.5197438
1.5197461
1.5196576
1.5196525
1.5196612
1.5196582
1.523578
1.523254
1.5170263
1.5162307
1.5170065
1.5167376
1.517291
1.517702
1.5171091
1.5173707
1.5162035
1.5160483
1.5178073
1.517901
1.5188251
1.5181681
1.5182048
1.5191687
1.5188669
1.5186299
1.5176027
1.5166492
1.5164867
1.5177586
1.5166618
1.5167429
1.5192572
1.5191595
1.5191215
1.5194825
1.5221646
1.522065
1.5219883
1.5206513
1.5198414
1.5192209
1.5239628
1.5229045
1.5228512
1.523336
1.51573
1.5171566
1.5155358
1.5162802
1.5153354
1.515554
1.5154072
1.520768
1.5192418
1.5186391
1.517854
1.5178272
1.5179173
1.5181571
1.5180567
1.5202875
1.5201647
1.5202481
1.5204269
1.5203534
1.5202895
1.5205322
1.5205171
1.5203513
1.5203417
1.519468
1.5195292
1.5197105
1.5196476
1.5193464
1.5193349
1.5195269
1.5195203
1.5195701
1.5195727
1.519578
1.5195723
1.519785
1.5197769
1.5197095
1.5197144
1.5197791
1.5198471
1.5198607
1.5197896
1.5196425
1.5196401
1.5196535
1.5196465
1.5196597
1.5196525
1.5196478
1.5198667
1.5197928
1.519791
1.5198622
1.5153598
1.5198135
1.5198098
1.5198758
1.5198748
1.5198159
1.5198161
1.5198721
1.5198166
1.5198149
1.5198647
1.519789
1.5198381
1.5198361
1.519781
1.5197811
1.5153589
1.5192597
1.5192516
1.5191755
1.5191662
1.5192248
1.5191917
1.5191389
1.5190961
1.5189597
1.5189604
1.5190051
1.5190069
1.5190414
1.5190365
1.5190468
1.5190506
1.5189631
1.5189525
1.5189754
1.5189881
1.518918
1.5188748
1.5189083
1.5189491
1.518881
1.5189213
1.5189077
1.5189643
1.5189753
1.5189552
1.5189476
1.5189677
1.518976
1.5189618
1.5189618
1.5189853
1.5189832
1.5189735
1.5189173
1.5189093
1.5189644
1.5189533
1.518898
1.5189094
1.5189619
1.5192641
1.5192545
1.5191725
1.5191834
1.5190499
1.5190438
1.5190486
1.5190577
1.5191766
1.5192594
1.5192576
1.5191714
1.5190469
1.5190476
1.5190347
1.5190387
1.5192467
1.5192454
1.5191687
1.5191666
1.5192312
1.5192236
1.5191456
1.5191532
1.519028
1.5190277
1.5190319
1.5190247
1.5190513
1.519052
1.5190452
1.5190454
1.5189725
1.5189146
1.5188927
1.5189437
1.5189797
1.5189506
1.5189402
1.5189611
1.5189736
1.5189193
1.5189201
1.5189654
1.5189854
1.5189648
1.5189668
1.5189846
1.5189895
1.5193929
1.5196661
1.5243112
1.5235071
1.5234583
1.5230469
1.515312
1.5170865
1.515475
1.5162565
1.5174322
1.5178006
1.5166193
1.5172698
1.5171291
1.51766
1.517078
1.517309
1.5162134
1.5150252
1.515286
1.5160739
1.5149793
1.5152081
1.5177345
1.5178248
1.5179207
1.5188574
1.518051
1.5180915
1.5181449
1.5191684
1.5188752
1.5186698
1.5177506
1.5163729
1.5162249
1.5164944
1.5166195
1.5178913
1.5164469
1.5163628
1.5166353
1.5167243
1.5190977
1.5190379
1.519005
1.5194582
1.5221893
1.5220649
1.5219969
1.5205639
1.5197846
1.5192746
1.5245193
1.5240793
1.5203129
1.5231056
1.5155663
1.5156142
1.5154634
1.5155212
1.5155438
1.5154098
1.5137424
1.5140551
1.5152935
1.5152286
1.5154134
1.5154023
1.5152527
1.5155057
1.5155385
1.5155539
1.5140718
1.5137505
1.5154178
1.5154137
1.5136455
1.5177565
1.5178258
1.5184231
1.5183435
1.5184904
1.5184237
1.5185112
1.518529
1.5176187
1.5175019
1.51785
1.5180272
1.5177056
1.5178517
1.5177908
1.5175244
1.5175794
1.5175661
1.5175555
1.5175674
1.5175141
1.5175257
1.5175309
1.5175415
1.5176323
1.5178179
1.5176626
1.5178442
1.5178385
1.517683
1.5176812
1.5178424
1.5196226
1.5196377
1.5197782
1.5196998
1.5197166
1.519781
1.5198635
1.5198696
1.5197873
1.5197949
1.5137485
1.5198887
1.5198869
1.513707
1.5199475
1.5199537
1.5198868
1.5198924
1.5199588
1.5199031
1.5199629
1.5198985
1.5184918
1.5184849
1.518621
1.5186087
1.5186476
1.5187619
1.5189053
1.5187857
1.5189976
1.5189738
1.5188513
1.518884
1.518669
1.5186793
1.5187144
1.5187078
1.5184168
1.5183341
1.5184324
1.518497
1.5184212
1.5183847
1.5185003
1.518523
1.5185917
1.518557
1.518592
1.5186223
1.5185808
1.5185036
1.5185285
1.5185986
1.5185959
1.518513
1.5184895
1.5185715
1.5186121
1.5185832
1.518566
1.5185911
1.5185627
1.5185597
1.5185871
1.5185942
1.5185726
1.5184892
1.5185013
1.5185814
1.5190197
1.5190161
1.518885
1.5188905
1.5190267
1.5190158
1.5188902
1.5189
1.5187154
1.5187164
1.5187005
1.5186953
1.5186803
1.5187011
1.5187059
1.5186876
1.51874
1.5187431
1.5187576
1.5187495
1.5189279
1.5190549
1.5190742
1.5189453
1.5190888
1.5190841
1.5189545
1.5189607
1.518754
1.5187716
1.5187772
1.5187586
1.518657
1.518619
1.5186611
1.5186248
1.5186445
1.5185619
1.5185588
1.5186389
1.5186338
1.5186629
1.5186574
1.5186316
1.5185584
1.518568
1.5186421
1.518691
1.5186613
1.5187313
1.5186919
1.5186278
1.5186358
1.5186641
1.5186551
1.5185566
1.5185667
1.5190961
1.5190911
1.5189626
1.5189706
1.5187845
1.5187574
1.5187791
1.5187597
1.5187839
1.518792
1.5187976
1.5187969
1.5189711
1.5190891
1.5190982
1.5189719
1.5152958
1.5153582
1.515294
1.51536
1.5193082
1.5193304
1.5193427
1.5193355
1.5193162
1.5192931
1.5193007
1.5193282
1.5193617
1.5193374
1.5193404
1.5193623
1.5193415
1.5193397
1.5193591
1.5193625
1.5193428
1.5193443
1.5193647
1.5193608
1.5154005
1.5193045
1.5193097
1.5193287
1.5192994
1.5193006
1.5193262
1.5193462
1.5193175
1.5193182
1.5193412
1.5153463
1.5153991
1.5153456
1.5181579
1.5181314
1.5177477
1.5177309
1.5180747
1.5179995
1.5176723
1.5175781
1.5173111
1.5171127
1.5172321
1.5174202
1.5174824
1.5173015
1.5173128
1.5174954
1.5171984
1.5171828
1.5171099
1.5171289
1.517112
1.5169796
1.5168961
1.5170391
1.516998
1.5170891
1.517068
1.5170454
1.5170678
1.5172395
1.5172274
1.5171557
1.5171689
1.5172426
1.5172309
1.5171612
1.5171723
1.5170953
1.5171189
1.5171288
1.5171022
1.5170858
1.5171114
1.5171262
1.5171011
1.5181719
1.518159
1.5177637
1.5177773
1.51752
1.5173457
1.517357
1.5175344
1.5177715
1.5181679
1.5181821
1.5177775
1.517531
1.5175225
1.5173448
1.5173557
1.5181873
1.518168
1.517787
1.517792
1.5181389
1.5181313
1.5177502
1.5177608
1.5173523
1.5175198
1.51753
1.5173627
1.517554
1.5175532
1.5173842
1.5173865
1.5171096
1.5171353
1.5171338
1.5171033
1.5171768
1.5172448
1.5172513
1.5171793
1.517125
1.5171541
1.5171637
1.5171995
1.5172718
1.5172772
1.5172074
1.517199
1.5192974
1.5191055
1.5190384
1.5192177
1.518641
1.5188817
1.5189516
1.5186936
1.5194195
1.5203185
1.5193282
1.5197307
1.5253287
1.5241941
1.520235
1.5232992
1.5154753
1.5150143
1.5153938
1.5155014
1.517967
1.5174462
1.5174242
1.5177497
1.5169229
1.5172442
1.5165477
1.5165758
1.5172503
1.517067
1.5171008
1.5176208
1.5170683
1.5172696
1.5162984
1.5149588
1.5147088
1.5150134
1.5152412
1.5161726
1.5149186
1.5151777
1.5149566
1.5146762
1.5177345
1.5178372
1.5179415
1.5188944
1.5179569
1.5180305
1.5180884
1.5191737
1.5189039
1.5187329
1.5179718
1.5162505
1.5160136
1.5161666
1.5163723
1.5154884
1.5152864
1.5180987
1.5164553
1.5162113
1.5161448
1.516366
1.5155206
1.5154012
1.5189647
1.5189088
1.5188943
1.5194427
1.5222044
1.5220752
1.5220266
1.5204808
1.5246012
1.5247731
1.5200619
1.5203062
1.515341
1.5154187
1.5153832
1.5154409
1.5155685
1.5155721
1.5155736
1.5155696
1.5155632
1.5155689
1.5155703
1.5155715
1.5155123
1.5154999
1.5153935
1.5153901
1.5155264
1.5155125
1.5136976
1.5136442
1.5136608
1.5136857
1.5136696
1.513984
1.513812
1.5140675
1.5140893
1.5138749
1.5152328
1.5152185
1.5154227
1.5154053
1.5151781
1.5151871
1.5152907
1.5153096
1.5154416
1.5154337
1.5154499
1.5154604
1.5154246
1.5154337
1.515452
1.5151817
1.5152866
1.5151964
1.5152947
1.5155306
1.5155468
1.5155467
1.5155324
1.5155348
1.5155366
1.515541
1.5155502
1.5155536
1.5140117
1.5140911
1.5138381
1.5137124
1.5136563
1.5136731
1.5136802
1.5136948
1.5154521
1.5154548
1.5154046
1.5154059
1.5137898
1.51536
1.5154172
1.5154139
1.5153606
1.5160599
1.5137463
1.5175182
1.5173892
1.5174293
1.517546
1.5160582
1.5160685
1.515921
1.5159081
1.5159216
1.5173087
1.5172852
1.5172824
1.517306
1.5172157
1.5172223
1.5172241
1.5172418
1.5172382
1.5161176
1.5175578
1.5175538
1.5176017
1.5176119
1.5175764
1.517583
1.5177117
1.5178379
1.5176606
1.5177675
1.5175926
1.517725
1.5159447
1.517349
1.5173472
1.5173287
1.5173294
1.517296
1.5172974
1.5173753
1.5173713
1.5173432
1.517344
1.5173664
1.5173631
1.5173372
1.5173359
1.517292
1.5172984
1.5172999
1.517292
1.5173008
1.5173018
1.5173002
1.5173
1.5172715
1.5172691
1.5172583
1.5172619
1.5172664
1.5172676
1.5172704
1.5172693
1.5172286
1.5172455
1.5172532
1.5172379
1.5172362
1.5172515
1.5173296
1.5173224
1.5173179
1.5173262
1.5175079
1.5173997
1.5174227
1.5175282
1.5172889
1.5172917
1.5173172
1.517315
1.5174231
1.5173844
1.5175048
1.517537
1.5175982
1.5175121
1.517484
1.5175697
1.517449
1.5174402
1.5174067
1.5174103
1.5173597
1.5173571
1.5173558
1.5173574
1.5174389
1.5174277
1.5175228
1.5175325
1.5190071
1.5189334
1.5189182
1.519031
1.518993
1.5191032
1.519094
1.5191159
1.5191319
1.5190697
1.5138175
1.5137223
1.5191368
1.519134
1.519169
1.5191455
1.5191495
1.5191719
1.5191773
1.5191544
1.5191575
1.5191745
1.5136855
1.5137997
1.5136871
1.5138054
1.5192132
1.5192223
1.5192369
1.519239
1.5138106
1.5137215
1.5192122
1.519207
1.519219
1.5192295
1.5192484
1.5192315
1.5192324
1.5192442
1.5192548
1.5192361
1.5192387
1.5192512
1.5192299
1.5192463
1.5192508
1.51923
1.5164269
1.5166382
1.5166005
1.5163587
1.5169321
1.5174064
1.5174442
1.5169294
1.5175362
1.5174927
1.5169587
1.5169865
1.5163559
1.5166175
1.5166364
1.516375
1.5160914
1.5161316
1.5160001
1.5159504
1.5161942
1.5162888
1.5161918
1.5160777
1.516194
1.5161805
1.5160621
1.5160729
1.515935
1.5159838
1.5159944
1.5159463
1.5159033
1.515947
1.515922
1.5158725
1.516022
1.5161416
1.5161254
1.5160024
1.516102
1.5160947
1.5159748
1.5159821
1.5158513
1.5158973
1.5159067
1.5158624
1.5175186
1.5174979
1.5169264
1.5169346
1.5175164
1.5175133
1.5169482
1.5169452
1.5165824
1.5165903
1.5163262
1.516314
1.516281
1.5165592
1.5165645
1.5162917
1.516292
1.5165626
1.5165727
1.516301
1.5169362
1.5175171
1.5175244
1.5169465
1.517566
1.5175451
1.5169652
1.5169768
1.5163127
1.5165935
1.5166048
1.5163303
1.5159974
1.5161146
1.5159925
1.5161158
1.5158853
1.5159258
1.5159152
1.5158683
1.5161284
1.5160079
1.51602
1.516143
1.5159458
1.5159321
1.5158869
1.516324
1.5161787
1.5162283
1.5160656
1.5161632
1.5161599
1.5160414
1.5160419
1.515967
1.5159681
1.517558
1.5175643
1.5169948
1.51699
1.5166281
1.516348
1.5166282
1.5163552
1.5163614
1.5166349
1.5167324
1.5164865
1.5170009
1.5175616
1.5176206
1.5170763
1.5152939
1.5152327
1.5152351
1.515293
1.5153742
1.515369
1.5153684
1.5153734
1.515291
1.5152196
1.5152373
1.5153059
1.5153773
1.5153711
1.5153877
1.5153926
1.5188063
1.5188278
1.5188818
1.5188884
1.518898
1.5189001
1.5189057
1.518904
1.5184164
1.5184654
1.5185167
1.5185388
1.5185403
1.5185499
1.5185513
1.5185602
1.5154119
1.515411
1.5154303
1.5154285
1.5188627
1.5188613
1.5188817
1.5188819
1.5185115
1.5185177
1.5185383
1.5185521
1.5154012
1.5153845
1.5154099
1.5154091
1.5154087
1.5154095
1.5153821
1.5153344
1.5153356
1.5153814
1.5157143
1.5157659
1.515798
1.5157453
1.5156905
1.5157398
1.5157603
1.515707
1.5159137
1.5156679
1.5156774
1.5159293
1.5158958
1.5156489
1.5156543
1.5159046
1.5157121
1.5156089
1.5156513
1.5156628
1.5156133
1.5154625
1.5154869
1.5155738
1.5155673
1.5156012
1.5158067
1.5158484
1.5153638
1.5156026
1.5157538
1.5155117
1.51572
1.5155667
1.5158146
1.5159562
1.5159339
1.5157888
1.5160035
1.5161347
1.5160424
1.5160144
1.5162186
1.5162487
1.5158192
1.5157895
1.5160273
1.5160614
1.5161245
1.5158816
1.5158775
1.516122
1.5161041
1.5161146
1.5163189
1.5163092
1.5161318
1.5161337
1.5163389
1.5163405
1.5158999
1.5158985
1.5161443
1.516149
1.5163391
1.5163383
1.5164999
1.5165025
1.5163059
1.5163187
1.5164793
1.5164688
1.5166066
1.5164824
1.5164718
1.5165969
1.516628
1.5165028
1.5165065
1.5166312
1.5162475
1.5162177
1.516382
1.5164113
1.5161677
1.5159917
1.5161298
1.51629
1.5163048
1.5161641
1.5162941
1.516417
1.5165152
1.5163858
1.5164169
1.5165428
1.5165514
1.5165205
1.5166171
1.5166457
1.5166377
1.5166323
1.5167254
1.5167312
1.5167045
1.5166109
1.5166023
1.5166962
1.5167805
1.5167085
1.5167018
1.516773
1.5168019
1.5167295
1.5167379
1.5168089
1.5163938
1.516403
1.5165586
1.5165522
1.516355
1.5163828
1.5165359
1.5165119
1.516652
1.5165349
1.516511
1.5166307
1.5166769
1.5165579
1.5165532
1.5166736
1.5163833
1.516393
1.5165495
1.5165426
1.5165474
1.5163897
1.5163725
1.5165309
1.5166683
1.516548
1.5165317
1.5166519
1.5166693
1.5165498
1.5165423
1.5166626
1.5168343
1.5167639
1.5167467
1.5168158
1.5167608
1.5166706
1.5166535
1.5167436
1.516664
1.51667
1.5167583
1.5167538
1.5168266
1.5167586
1.5167554
1.5168234
1.5168075
1.5167388
1.5167219
1.5167904
1.516739
1.5166511
1.5166309
1.5167206
1.5166768
1.5166774
1.5167664
1.5167669
1.5168357
1.5167671
1.5167707
1.5168389
1.5157532
1.5158119
1.5158427
1.5157779
1.5157576
1.515814
1.5158097
1.5157594
1.5159698
1.5157208
1.5157141
1.5159728
1.5159754
1.5157269
1.5157384
1.5159909
1.5161982
1.5159552
1.5159476
1.51619
1.5161745
1.5161896
1.5163901
1.5163754
1.5161869
1.5161951
1.5163931
1.5163866
1.5159654
1.5159634
1.5162032
1.5162044
1.5159801
1.5157313
1.5157199
1.5159663
1.5157617
1.5158153
1.5158237
1.5157674
1.5157728
1.5158331
1.5158621
1.5157966
1.5157461
1.5159882
1.5157393
1.5159975
1.5159694
1.5159729
1.5162177
1.5162143
1.5161996
1.5159622
1.5159408
1.5161787
1.5161618
1.516189
1.5163847
1.5163595
1.5161967
1.5162067
1.516406
1.5163981
1.5158659
1.5158
1.5158109
1.5158631
1.5157844
1.5157821
1.5158475
1.5158457
1.5157562
1.5160319
1.5157718
1.5160112
1.5160267
1.515773
1.5157604
1.5160117
1.515756
1.5158137
1.5158377
1.5157757
1.5157657
1.5157548
1.5158313
1.5158118
1.5159967
1.5157476
1.5157399
1.5159991
1.5157592
1.5157463
1.5159936
1.5160163
1.5162099
1.5162258
1.516428
1.5164082
1.5162309
1.5159873
1.515983
1.516223
1.5162221
1.5159881
1.5159989
1.5162321
1.5162196
1.5162169
1.5164098
1.5164117
1.5159954
1.5160163
1.5162592
1.5162421
1.515994
1.5160205
1.5162597
1.5162349
1.516223
1.5162504
1.5164441
1.5164199
1.5162344
1.5162503
1.5164463
1.5164349
1.5168595
1.5167921
1.5167612
1.5168296
1.5167905
1.5167028
1.5166736
1.5167617
1.5166669
1.5166635
1.516748
1.5167508
1.5168089
1.5167433
1.5167476
1.5168111
1.5167018
1.5165847
1.5165577
1.5166747
1.5165834
1.5164285
1.5164049
1.5165589
1.5164077
1.5164081
1.5165574
1.5165574
1.5166678
1.5165547
1.5165553
1.5166683
1.5168458
1.5167786
1.5167619
1.5168292
1.5167817
1.5166952
1.5166784
1.5167647
1.5167013
1.5166979
1.5167833
1.5167867
1.5166993
1.5165864
1.5165668
1.5166812
1.5164161
1.51644
1.5165894
1.5165686
1.5164341
1.5164424
1.5165932
1.5165876
1.5167026
1.5165891
1.5165869
1.5167016
1.5175046
1.5172115
1.5172302
1.5175278
1.517472
1.5168965
1.5171254
1.5172204
1.5169725
1.517572
1.517892
1.5179093
1.5190046
1.517666
1.5192097
1.5182663
1.518802
1.5189293
1.5183691
1.5185285
1.5194309
1.5221677
1.5204009
1.5254639
1.5250339
1.5202694
1.5195076
1.5152324
1.5148137
1.5153207
1.5154145
1.517873
1.5179242
1.5167716
1.5174405
1.5174239
1.517698
1.5169888
1.5162085
1.5165025
1.5165956
1.5163245
1.517265
1.5167328
1.5168576
1.5167648
1.5166408
1.516459
1.5164949
1.5165373
1.5172359
1.5169919
1.5170384
1.5170756
1.5175893
1.5170816
1.5172513
1.5164556
1.5144705
1.514722
1.5149383
1.5146936
1.513955
1.513696
1.5163434
1.5146816
1.5144457
1.5146753
1.5149077
1.513992
1.5137106
1.5177337
1.5178458
1.5179531
1.5189319
1.5178764
1.5179615
1.5180235
1.5191829
1.516191
1.5160702
1.515922
1.5157815
1.5152889
1.5152931
1.5154659
1.5154753
1.5155352
1.5155174
1.5155222
1.5155378
1.5152068
1.5154223
1.5154118
1.5152199
1.5161807
1.5162543
1.5159026
1.5159516
1.5155049
1.5154904
1.5153955
1.5153969
1.5155601
1.5155625
1.5155643
1.5155616
1.515512
1.5153878
1.5153895
1.5155031
1.5188327
1.5187787
1.5187815
1.5222308
1.5221173
1.5220728
1.5246709
1.5248277
1.5196631
1.5199061
1.5151838
1.5153617
1.5155687
1.5155687
1.5155637
1.5155632
1.5155699
1.5155694
1.5155706
1.515571
1.5155705
1.5155693
1.5155707
1.5155717
1.5155682
1.5155625
1.5155639
1.5155691
1.5155528
1.5155557
1.5155544
1.5155511
1.51556
1.5155607
1.5155593
1.5155585
1.5155597
1.5155603
1.5155619
1.5155615
1.5155617
1.5155629
1.5155633
1.5155614
1.5155331
1.5155198
1.5155176
1.5155299
1.5155252
1.5155304
1.5155166
1.5155129
1.5154311
1.5154383
1.5154462
1.5153381
1.5153404
1.5154368
1.5155219
1.5155244
1.5155243
1.5155219
1.5155103
1.51551
1.5155031
1.5155029
1.5136353
1.5136468
1.5136601
1.5136486
1.5136432
1.5136433
1.5136436
1.5136435
1.5136663
1.5136526
1.5136545
1.5136665
1.5136686
1.5136547
1.5136755
1.5136632
1.5136513
1.5136509
1.5136436
1.513644
1.5137742
1.5138165
1.5140487
1.5140395
1.5137494
1.5137644
1.5137888
1.513778
1.5139574
1.5139846
1.5141689
1.5141851
1.5141874
1.5139827
1.5140091
1.5141772
1.513762
1.5138162
1.5137916
1.5137908
1.5151754
1.5153198
1.5153049
1.5151837
1.5153145
1.5151795
1.5151739
1.5153323
1.5154572
1.5154506
1.5154678
1.5154761
1.5154511
1.5154698
1.5154579
1.515441
1.5151277
1.515193
1.5151896
1.5151349
1.5151296
1.5151436
1.5151892
1.5151899
1.5153092
1.5153191
1.5153233
1.5153366
1.5153245
1.5153197
1.5153355
1.5153424
1.5154451
1.5154507
1.5154478
1.5154429
1.515442
1.5154385
1.5154428
1.5154475
1.5154588
1.5154639
1.5154697
1.5154637
1.5154668
1.5154643
1.5154695
1.5154724
1.5154314
1.5154401
1.5154351
1.5154357
1.5154358
1.5154377
1.5154427
1.5154402
1.5154586
1.5154564
1.5154616
1.5154644
1.5151457
1.5151385
1.5151898
1.5151878
1.5153037
1.5152983
1.5153122
1.5153198
1.5151407
1.5151882
1.5151909
1.5151519
1.5153089
1.5153042
1.515318
1.5153251
1.5155363
1.5155353
1.515541
1.5155426
1.5155506
1.5155503
1.5155534
1.5155541
1.5155501
1.51555
1.5155531
1.5155536
1.515535
1.5155349
1.5155405
1.5155413
1.5155247
1.5155277
1.5155284
1.5155261
1.5155248
1.5155276
1.5155301
1.515528
1.5155331
1.5155341
1.5155348
1.5155338
1.5155428
1.5155425
1.5155412
1.5155416
1.5155451
1.5155478
1.5155464
1.5155466
1.5161354
1.5157511
1.5140797
1.5140839
1.5138096
1.5138455
1.5141647
1.5139723
1.5137934
1.5138067
1.5137836
1.5137667
1.5136673
1.5136755
1.5136597
1.5136491
1.5136513
1.5136523
1.513651
1.5136498
1.5136688
1.51367
1.5136627
1.5136602
1.51366
1.5136523
1.5136508
1.5136585
1.5136704
1.513662
1.5162685
1.5162398
1.515466
1.5159799
1.5159031
1.5154091
1.5137342
1.5138438
1.5138321
1.5137319
1.5158363
1.515901
1.5154335
1.5153292
1.5159758
1.516136
1.5138426
1.5137609
1.5137583
1.513834
1.5164346
1.5165406
1.5165281
1.5164188
1.5159595
1.5159173
1.5157827
1.5158457
1.5159059
1.5158503
1.5156963
1.5157763
1.515551
1.515555
1.5156296
1.5156258
1.5155268
1.515549
1.515626
1.5156055
1.5155673
1.5155511
1.5156292
1.5156441
1.5165808
1.516591
1.516569
1.5165575
1.5166071
1.5166005
1.5166078
1.516598
1.5165905
1.5161312
1.5161301
1.5174064
1.5173814
1.5173899
1.5173906
1.5173826
1.5174065
1.5174088
1.5174109
1.517409
1.5174161
1.517418
1.5174211
1.5174192
1.5174131
1.5174174
1.5174905
1.5174821
1.5174871
1.5174969
1.5175575
1.5175291
1.5175921
1.5176297
1.5174811
1.5175585
1.5160199
1.5158584
1.5160209
1.5158643
1.5170413
1.517035
1.5169258
1.5169283
1.5168564
1.5167994
1.517022
1.517021
1.5168928
1.5168885
1.5170161
1.5170215
1.5168988
1.5168903
1.5168123
1.5168233
1.5167657
1.5167535
1.5167545
1.5168146
1.5168074
1.5167474
1.5166857
1.5167216
1.5167088
1.5166735
1.5167023
1.51671
1.5166746
1.5166669
1.5166451
1.5166232
1.5166236
1.5166462
1.5166385
1.5166167
1.5166587
1.5166953
1.5166773
1.5166403
1.5165729
1.5166548
1.5166164
1.5165243
1.5166105
1.51663
1.5166076
1.5165869
1.5165598
1.5165854
1.5164869
1.5164576
1.5170486
1.5170486
1.5168868
1.5168577
1.5170384
1.5170444
1.5168988
1.5168864
1.5167432
1.5168097
1.5167936
1.5167266
1.5167078
1.5167845
1.5167356
1.516642
1.5139348
1.5183588
1.5183896
1.5178881
1.5179366
1.5184862
1.518471
1.5179929
1.5180269
1.5138369
1.5139291
1.513827
1.5137077
1.5136999
1.5137221
1.5137148
1.5185223
1.5185267
1.5185299
1.5185361
1.5180296
1.518042
1.5180335
1.5180526
1.5136718
1.5136684
1.5136678
1.5136712
1.5137333
1.5137324
1.5138319
1.5138273
1.5136701
1.5136741
1.5136904
1.5136947
1.5137378
1.5138452
1.5137603
1.5138649
1.5185806
1.5185827
1.5186041
1.5186031
1.5186
1.5185932
1.518601
1.5186124
1.5138166
1.5139068
1.5139004
1.513817
1.5137052
1.5137052
1.513699
1.5136992
1.5180709
1.5180817
1.5180948
1.5181083
1.5180996
1.518135
1.5180992
1.5180958
1.5149012
1.5151351
1.5153723
1.515164
1.5151317
1.5148363
1.5146156
1.5149322
1.5145218
1.5145182
1.5148247
1.5148277
1.5147896
1.5148058
1.5150551
1.515043
1.5143103
1.5148306
1.5145212
1.514642
1.5145355
1.5145946
1.514387
1.5144251
1.5143857
1.514273
1.5143096
1.5143327
1.5145305
1.5142167
1.5142447
1.5145657
1.5142579
1.514325
1.5143859
1.5143105
1.514246
1.514303
1.51433
1.5142695
1.5145067
1.5141867
1.5141786
1.5145043
1.5145172
1.5141911
1.5141975
1.5145318
1.5147236
1.5147542
1.5150112
1.5149864
1.5147861
1.5144819
1.5144566
1.5147713
1.5144707
1.5144858
1.5148024
1.5147937
1.5147426
1.5147669
1.5150231
1.5150088
1.515841
1.5157678
1.5155912
1.5156931
1.5157629
1.5156689
1.5154696
1.5155946
1.5153356
1.5153446
1.5154619
1.5154561
1.5155538
1.5154579
1.5154525
1.5155488
1.5156685
1.5155432
1.5153233
1.5154813
1.5155449
1.5153754
1.5151425
1.5153429
1.5150161
1.5150374
1.5152277
1.5152136
1.5153573
1.5152105
1.5151937
1.5153475
1.514978
1.5149972
1.5151981
1.5151882
1.5149583
1.5149907
1.5151911
1.5151658
1.5153314
1.5151757
1.5151472
1.5153093
1.5153375
1.51518
1.5151709
1.5153354
1.5155439
1.5154432
1.5154242
1.515524
1.5154442
1.5153228
1.5152995
1.5154253
1.5153288
1.5153281
1.5154508
1.5154566
1.5155482
1.5154485
1.5154585
1.5155592
1.5155274
1.51542
1.5153835
1.5154935
1.5154133
1.5152817
1.515244
1.5153799
1.5152215
1.5152081
1.5153379
1.5153522
1.5154442
1.5153371
1.5153521
1.5154559
1.5152846
1.5151174
1.5150778
1.515251
1.5151313
1.5149221
1.51488
1.5150962
1.5148705
1.5148653
1.5150706
1.5150813
1.5152164
1.5150542
1.5150635
1.5152289
1.5148615
1.5148584
1.5150666
1.5150769
1.5148182
1.514857
1.5150667
1.5150345
1.5152171
1.5150539
1.5150169
1.5151867
1.5152176
1.5150514
1.5150624
1.5152324
1.515449
1.5153438
1.5153149
1.5154205
1.515341
1.5152124
1.5151797
1.5153127
1.5152293
1.5152119
1.5153432
1.515362
1.5154501
1.5153439
1.5153665
1.515471
1.5141521
1.5141977
1.5142123
1.5142825
1.5142166
1.5141501
1.5142046
1.5141594
1.51407
1.5143937
1.5143749
1.5140543
1.5140876
1.5140647
1.5143878
1.5144194
1.5141532
1.5142018
1.5142077
1.514274
1.5141903
1.5142552
1.5142591
1.5141918
1.5140927
1.5144316
1.5141081
1.5144249
1.5143862
1.5140729
1.5141031
1.5144343
1.5143735
1.5143519
1.5146658
1.5146905
1.5147145
1.5143943
1.5143667
1.5146927
1.5146437
1.5146808
1.5149453
1.5149127
1.5146402
1.514632
1.5148897
1.514903
1.5145817
1.5146171
1.5148787
1.5148487
1.5146565
1.514351
1.5143165
1.5146338
1.5143497
1.5143455
1.514663
1.5146761
1.5146239
1.5146241
1.514885
1.5148932
1.5145914
1.5146146
1.5148951
1.5148736
1.5146488
1.5143163
1.5143163
1.5146445
1.5143275
1.5143
1.514619
1.5146454
1.5145966
1.5145852
1.5148541
1.5148677
1.5143645
1.5140399
1.5140405
1.5143822
1.5141291
1.5141916
1.5142012
1.5141388
1.5141084
1.5141504
1.5141616
1.5142178
1.514058
1.5143439
1.5140235
1.5143971
1.5141565
1.5141968
1.5142767
1.5142196
1.5141581
1.514221
1.5141423
1.5141949
1.5143849
1.5140552
1.5140526
1.5143852
1.5140623
1.5143894
1.5140903
1.5144283
1.5145861
1.514606
1.5148799
1.5148601
1.5146473
1.5143356
1.5143207
1.5146406
1.5143592
1.5143408
1.5146617
1.5146852
1.514631
1.5146202
1.5148888
1.5149037
1.5152597
1.5150869
1.515056
1.5152327
1.5150946
1.5148772
1.5148473
1.5150693
1.5152063
1.515036
1.5150448
1.5152168
1.5148413
1.5148341
1.5150478
1.5150585
1.5155093
1.5154029
1.5153711
1.5154779
1.5153948
1.5152603
1.5152303
1.5153659
1.5152128
1.5152008
1.5153337
1.5153456
1.5154421
1.5153348
1.5153478
1.515452
1.5148344
1.5148612
1.5150796
1.5150556
1.5152415
1.5150703
1.5150429
1.5152175
1.5152439
1.5150711
1.5150831
1.5152581
1.5148754
1.5148657
1.515082
1.5150951
1.5152583
1.5152411
1.5153772
1.515394
1.5153718
1.5152392
1.5152146
1.51535
1.5154785
1.5153735
1.515352
1.5154578
1.5152544
1.5150456
1.5152725
1.5154616
1.5149279
1.514939
1.5151554
1.5151498
1.5154505
1.5152657
1.5154692
1.5156308
1.5153217
1.5151483
1.5151414
1.5153169
1.5148856
1.514891
1.5151029
1.5151027
1.5151332
1.5149113
1.5148804
1.5151037
1.5152986
1.5151245
1.51509
1.5152663
1.5152627
1.5150915
1.5150928
1.515267
1.5152678
1.5152612
1.5153957
1.5154039
1.5154383
1.5153021
1.5152647
1.5154023
1.5142922
1.514199
1.5142493
1.5142376
1.5142704
1.5142291
1.5142907
1.5142142
1.5141139
1.5141249
1.5144443
1.5144518
1.514432
1.5141115
1.5144506
1.5141288
1.5143871
1.5146971
1.5146982
1.5143908
1.5146414
1.5146604
1.5149332
1.5149112
1.5147052
1.5143912
1.5143855
1.5147001
1.514649
1.5146561
1.5149159
1.5149136
1.5146796
1.5146949
1.5149611
1.5149544
1.5144301
1.5147399
1.5147328
1.514424
1.514512
1.5148287
1.5150237
1.5147115
1.5149978
1.5147914
1.5150651
1.5152599
1.5141638
1.5144894
1.5141677
1.514482
1.5142811
1.5142768
1.5143188
1.5143175
1.5145731
1.5143609
1.5144013
1.5144947
1.5142491
1.5145613
1.5147522
1.5144298
1.5153181
1.5152118
1.515201
1.515311
1.5153998
1.5153936
1.5153819
1.5153883
1.5153047
1.5153048
1.515312
1.5153117
1.5151599
1.5151582
1.515221
1.5152215
1.5151701
1.5152465
1.5152339
1.5152931
1.5153252
1.5153344
1.5153701
1.5153749
1.5153894
1.5153894
1.5153911
1.515391
1.515382
1.5153849
1.5153847
1.515382
1.5154053
1.5154474
1.5154473
1.5154089
1.5154111
1.5154503
1.5154134
1.5154535
1.5152797
1.5153236
1.5154797
1.5155553
1.5156009
1.515648
1.5153822
1.515387
1.5154483
1.5156778
1.5156894
1.5154446
1.5154462
1.5156939
1.5154488
1.5157264
1.5157509
1.5155096
1.5155067
1.5157397
1.5157357
1.5157549
1.5155021
1.5155029
1.5155106
1.5157452
1.5155077
1.5157477
1.5157641
1.5155112
1.5155116
1.5157855
1.5154136
1.5154141
1.5154141
1.5154136
1.5154136
1.5154118
1.5154137
1.515412
1.5154396
1.5154405
1.5154805
1.5154757
1.5154384
1.5154364
1.5154745
1.515473
1.5157395
1.5155368
1.5157621
1.5155321
1.5157503
1.5155224
1.5157347
1.5155224
1.5155263
1.5157606
1.515757
1.515522
1.5155228
1.5157794
1.5155228
1.5157928
1.5154107
1.5154073
1.5153839
1.5153869
1.5153869
1.5153842
1.5154239
1.515422
1.5154112
1.5154123
1.5153927
1.5153374
1.515383
1.5153733
1.5153679
1.5153751
1.5153792
1.5153629
1.5153563
1.5153618
1.5153688
1.5154441
1.5153705
1.515381
1.5154604
1.5154289
1.5153574
1.5153642
1.5154356
1.5153122
1.5153075
1.5152996
1.5153187
1.5152469
1.5151352
1.5151071
1.515255
1.5152965
1.5153118
1.5153481
1.5153807
1.5150795
1.5150859
1.5152792
1.5152406
1.5152846
1.5150739
1.5150639
1.5152886
1.5152969
1.5150602
1.5150621
1.5153102
1.5154215
1.5153852
1.5154015
1.5154389
1.515395
1.5153613
1.5153711
1.5154061
1.515458
1.5154447
1.5154526
1.5154667
1.5154822
1.515472
1.5154884
1.5154993
1.515511
1.5154896
1.5155067
1.5155287
1.5154767
1.5154593
1.5154728
1.5154924
1.5155459
1.5155244
1.5155411
1.5155617
1.515517
1.5155058
1.5155227
1.5155338
1.5155517
1.5155377
1.5155486
1.5155612
1.5155693
1.5155559
1.5155752
1.5155867
1.5154579
1.5154201
1.5154391
1.5154772
1.5150788
1.5150674
1.5153267
1.5153456
1.5151036
1.5150889
1.5153644
1.5153829
1.515475
1.515457
1.5154951
1.5155114
1.5155245
1.5154878
1.5154976
1.5155349
1.5155949
1.5155778
1.5155837
1.5156009
1.5155681
1.515561
1.5155704
1.5155769
1.5155712
1.5155708
1.5155796
1.5155807
1.5155876
1.5155864
1.5156034
1.5156049
1.5156131
1.5156044
1.5156163
1.5156252
1.5156035
1.5156042
1.5156159
1.5156149
1.5156316
1.5156248
1.5156237
1.5156297
1.5156338
1.5156259
1.515634
1.5156408
1.515604
1.5156006
1.5156133
1.5156162
1.5156012
1.5155868
1.5155962
1.5156091
1.5156213
1.515613
1.5156193
1.515627
1.5156313
1.5156234
1.5156258
1.5156328
1.5156278
1.5156292
1.5156332
1.5156309
1.5156291
1.5156261
1.5156317
1.5156341
1.5156367
1.5156353
1.5156369
1.5156379
1.5156337
1.5156358
1.5156363
1.5156341
1.515629
1.5156331
1.5156321
1.515629
1.5156352
1.5156345
1.5156329
1.5156338
1.5156447
1.515638
1.5156402
1.5156471
1.5156383
1.5156397
1.5156468
1.5156462
1.5154277
1.5154262
1.5154267
1.5154285
1.5154218
1.5154192
1.5154245
1.5154269
1.5155108
1.5154258
1.515432
1.5155178
1.5155144
1.5154339
1.5154353
1.5155206
1.5155415
1.5155267
1.5155343
1.515549
1.5155642
1.5155556
1.5155706
1.5155798
1.5155726
1.5155686
1.5155843
1.515588
1.5155403
1.5155346
1.5155511
1.5155558
1.5155266
1.5154387
1.515441
1.5155204
1.5154313
1.5154306
1.5154308
1.5154315
1.5154334
1.515433
1.5154363
1.515436
1.5154477
1.5155288
1.5154421
1.5155389
1.5155545
1.5155456
1.5155599
1.5155685
1.5155592
1.5155432
1.5155404
1.515557
1.5155728
1.5155739
1.5155889
1.515588
1.5155831
1.5155743
1.515589
1.515598
1.5154557
1.5154528
1.5154506
1.5154576
1.5154541