/*--------------------------------*- C++ -*----------------------------------*\
  =========                 |
  \\      /  F ield         | OpenFOAM: The Open Source CFD Toolbox
   \\    /   O peration     | Website:  https://openfoam.org
    \\  /    A nd           | Version:  7
     \\/     M anipulation  |
\*---------------------------------------------------------------------------*/
FoamFile
{
    version     2.0;
    format      ascii;
    class       volScalarField;
    location    "2000";
    object      nut;
}
// * * * * * * * * * * * * * * * * * * * * * * * * * * * * * * * * * * * * * //

dimensions      [0 2 -1 0 0 0 0];

internalField   nonuniform List<scalar> 
34158
(
8.9542632e-91
7.3019548e-91
8.2330747e-91
9.097939e-91
9.2155817e-91
9.6805969e-91
3.497159e-91
4.3613001e-91
1.0225356e-91
9.6987995e-92
9.6051227e-91
1.0245296e-90
3.5462285e-91
4.5488959e-91
1.7366453e-90
7.8464236e-91
1.6362943e-90
6.5204865e-91
3.8316119e-91
4.1201224e-91
9.9410961e-91
9.3449234e-91
9.8312811e-92
1.0223813e-91
2.5286114e-91
5.9587414e-92
5.5447098e-92
2.0826076e-91
6.2326049e-92
4.2210737e-92
4.121254e-92
6.4307222e-92
5.984849e-92
4.2480496e-92
4.2376091e-91
4.1813912e-91
5.4119606e-91
3.7944148e-91
1.4063121e-90
8.1610958e-91
1.6177216e-90
7.1566875e-91
3.8966335e-91
4.2612722e-91
5.9359759e-91
5.901452e-91
3.5912959e-91
8.3335227e-91
6.7646603e-91
2.8957564e-91
7.9888279e-91
6.0942043e-91
5.0376689e-91
5.5364373e-91
9.8520501e-91
9.0917562e-91
8.3719647e-91
8.4380862e-91
7.3012634e-91
7.7108309e-91
2.4359319e-91
9.9242423e-92
5.8484862e-92
2.3205036e-91
2.589977e-91
5.8024722e-92
5.5428507e-92
4.1723163e-92
4.141837e-92
6.140864e-92
5.9607916e-92
4.3875611e-92
4.1334027e-92
5.7683296e-92
5.116263e-92
1.9035077e-92
1.8789346e-92
3.4578981e-92
3.3202858e-92
3.5865949e-92
1.8178165e-92
4.5880468e-92
2.8619069e-92
2.6716059e-92
2.1293418e-92
2.0897473e-92
3.4868395e-92
3.3428116e-92
3.0054098e-92
3.949686e-92
3.5962463e-92
2.9393756e-92
3.1425759e-92
2.6456963e-92
2.1401139e-92
2.753568e-92
2.1310257e-92
2.5435594e-92
2.6849593e-92
2.1063751e-92
2.0915008e-92
3.3254367e-92
3.4188029e-92
3.3615129e-92
3.7023573e-92
4.4951236e-91
4.2004243e-91
9.3687128e-91
7.9013952e-91
2.7980221e-91
2.9941746e-91
8.2698431e-91
7.3601681e-91
4.766866e-91
4.1836316e-91
5.9179713e-91
5.0681587e-91
4.026898e-91
7.8275626e-91
7.090458e-91
3.6139469e-91
8.2406193e-91
6.6371264e-91
4.8352962e-91
5.2521349e-91
3.6636374e-91
1.5361301e-91
1.5035632e-91
3.7850566e-91
1.513139e-91
1.537648e-91
4.4346452e-91
3.4792908e-91
5.4747147e-91
7.4400726e-91
3.6433816e-91
2.7656981e-91
5.121678e-91
6.4484374e-91
9.8285023e-91
1.0777275e-90
8.5690488e-91
8.1345421e-91
8.6941099e-91
7.6894962e-91
2.3568578e-91
8.2560422e-91
2.4274782e-91
9.1951248e-91
2.3830936e-91
2.6083261e-91
2.5819141e-91
2.4741832e-91
4.5483215e-92
5.5905102e-92
2.2106957e-91
5.5564575e-92
4.1873036e-92
4.0497348e-92
5.1763911e-92
1.8061713e-92
3.2805684e-92
3.1814338e-92
1.8441334e-92
4.6593829e-92
5.2099934e-92
1.8575716e-92
1.8369405e-92
3.8468791e-92
3.7152831e-92
2.2036679e-92
2.6963191e-92
2.6565037e-92
1.9734288e-92
2.8335281e-92
2.9362242e-92
2.8938028e-92
2.6361034e-92
3.0748146e-92
3.4770648e-92
3.6596842e-92
2.9347152e-92
2.5684304e-92
2.6862355e-92
2.1846984e-92
2.0674024e-92
2.0588418e-92
2.6634145e-92
2.8959023e-92
2.1408488e-92
3.0825545e-92
2.9884573e-92
3.6703954e-92
3.1975932e-92
3.935571e-92
3.609494e-92
3.0766539e-92
2.6653431e-92
2.1510932e-92
2.1301219e-92
2.5559428e-92
5.3853041e-92
2.8875948e-92
2.6499753e-92
7.5530457e-93
7.4426938e-93
1.1563055e-92
1.1373214e-92
7.2580559e-93
1.1919207e-92
1.2096083e-92
7.2558995e-93
2.6005069e-92
7.3253614e-93
7.2200592e-93
1.0969132e-92
1.0807603e-92
4.5917915e-92
1.6552324e-92
1.5426693e-92
2.0008223e-92
2.0278022e-92
1.9548321e-92
1.6623664e-92
2.072243e-92
2.1918193e-92
1.8237137e-92
1.817772e-92
1.8392852e-92
1.9532409e-92
1.6526359e-92
1.6325373e-92
1.7743933e-92
1.8783144e-92
2.1700865e-92
2.1860799e-92
2.3074124e-92
2.208387e-92
2.4123708e-92
2.4580392e-92
2.5668063e-92
2.3859583e-92
2.7038577e-92
2.5573193e-92
2.5952154e-92
2.3759605e-92
2.3464474e-92
2.2219877e-92
2.2782796e-92
2.4694084e-92
2.4058302e-92
2.4862329e-92
2.2913891e-92
2.3882622e-92
2.3528221e-92
2.4070529e-92
2.5479685e-92
2.4101827e-92
2.3187519e-92
2.5202276e-92
2.6573916e-92
2.5999989e-92
2.3853989e-92
1.7936965e-92
1.6007671e-92
2.0363586e-92
1.9967695e-92
1.7378089e-92
1.683122e-92
1.8063975e-92
1.8423709e-92
1.7835184e-92
1.5272314e-92
1.5158623e-92
1.8298776e-92
1.9798618e-92
1.806643e-92
1.7025842e-92
1.8567088e-92
1.4370064e-92
1.4539602e-92
2.0044074e-92
1.7365194e-92
1.8754354e-92
1.6145938e-92
2.1271171e-92
2.0073025e-92
1.7576978e-92
1.7658935e-92
1.8445462e-92
1.7412385e-92
1.9336745e-92
1.6931602e-92
1.6740745e-92
1.7983094e-92
2.5508282e-92
2.8628827e-92
2.798326e-92
2.534764e-92
2.4747687e-92
2.3022624e-92
2.3279117e-92
2.4541978e-92
2.5592352e-92
2.8832557e-92
2.721845e-92
2.4782097e-92
2.4178897e-92
2.1726958e-92
2.1475844e-92
2.2863357e-92
4.0186741e-91
4.5113225e-91
4.1946651e-91
9.653138e-91
9.391074e-91
2.8453427e-91
3.2190007e-91
1.4366637e-90
8.1247102e-91
1.118883e-90
8.2763784e-91
4.6654205e-91
4.9098716e-91
7.7665617e-91
7.0169278e-91
7.3151443e-91
6.8011983e-91
5.3324021e-91
4.918287e-91
3.901221e-91
1.6415671e-91
1.4042421e-91
3.5879491e-91
1.68274e-91
1.4115157e-91
4.619009e-91
3.9876525e-91
5.4251422e-91
7.9968401e-91
4.4161098e-91
3.3497161e-91
5.359412e-91
7.2433685e-91
1.0062898e-90
8.8454519e-91
1.999709e-91
2.9011497e-91
3.03629e-91
2.4509911e-91
2.2561546e-91
1.9945249e-91
2.5114623e-91
2.9613027e-91
2.0803648e-91
2.3382003e-91
3.7584597e-91
4.0673146e-91
4.177922e-91
9.5908907e-91
3.1393207e-91
3.0505932e-91
3.9109939e-91
8.1906831e-91
9.0954427e-91
8.1060595e-91
2.7745476e-91
8.9835475e-91
2.5886512e-91
9.3526108e-91
9.3088458e-91
2.2824091e-91
1.6276693e-90
2.3497543e-91
3.7182733e-91
5.1522031e-91
2.607515e-91
2.2649977e-91
3.5715887e-91
1.50992e-91
1.4791877e-91
1.2439775e-91
1.2406235e-91
4.9388861e-91
1.5649733e-91
1.5199401e-91
2.5713382e-91
2.5605932e-91
5.5753878e-92
6.2472844e-92
2.6457138e-91
2.5481165e-91
4.0465445e-92
2.7835564e-92
2.8451053e-92
2.992152e-92
2.9943039e-92
2.9536124e-92
2.7389317e-92
4.0143504e-92
4.0733307e-92
1.7248725e-92
1.7246085e-92
3.5334656e-92
3.4923938e-92
4.7194149e-92
2.7200951e-92
2.8595974e-92
2.8928603e-92
2.1410812e-92
2.1071878e-92
2.8068672e-92
2.883946e-92
2.7282453e-92
2.6646121e-92
3.0708858e-92
3.2859294e-92
2.6546242e-92
2.7652724e-92
2.5347865e-92
2.6396183e-92
2.1682492e-92
2.164639e-92
1.1456589e-92
7.5087695e-93
7.2501852e-93
1.1120593e-92
2.8429073e-92
2.6278146e-92
7.2316883e-93
7.1574083e-93
1.1766575e-92
1.1978973e-92
4.6613139e-92
2.7274662e-92
2.2782159e-92
5.3663088e-92
7.3083519e-93
7.3489987e-93
1.0916492e-92
1.1169622e-92
7.1781026e-93
1.2061067e-92
7.1897946e-93
1.2284255e-92
1.7845746e-92
1.9476964e-92
1.9362514e-92
1.7750069e-92
2.0933305e-92
1.6854626e-92
1.9318444e-92
2.1853025e-92
1.6086961e-92
1.6540222e-92
2.1133542e-92
1.8619036e-92
1.5648047e-92
1.516757e-92
1.6157964e-92
1.5213768e-92
2.332393e-92
2.6885348e-92
2.5960813e-92
2.288715e-92
2.2232629e-92
2.1118817e-92
2.1362071e-92
2.1974065e-92
2.0387517e-92
2.1402567e-92
2.1085748e-92
2.0414374e-92
2.253012e-92
2.4349802e-92
2.3574588e-92
2.1465036e-92
2.2425708e-92
2.5977057e-92
2.6542358e-92
2.3392463e-92
2.4011623e-92
2.1542643e-92
2.2162502e-92
2.2916735e-92
2.142388e-92
2.3047262e-92
2.2650983e-92
2.3117595e-92
2.3737414e-92
2.4294585e-92
2.5252321e-92
2.3013497e-92
1.5166438e-92
1.4697138e-92
2.0235473e-92
1.9181347e-92
1.8264011e-92
1.5434659e-92
2.1066074e-92
2.0751642e-92
1.8096789e-92
1.6218249e-92
1.6313222e-92
1.7238669e-92
1.7241326e-92
1.6621079e-92
1.8420353e-92
1.7053379e-92
1.6731457e-92
1.8045069e-92
1.8302657e-92
1.7177181e-92
2.0098523e-92
1.6389048e-92
1.8464897e-92
1.9867955e-92
1.619772e-92
1.4978291e-92
2.0574441e-92
2.0438607e-92
1.7306295e-92
1.6229041e-92
1.8695389e-92
1.7711091e-92
2.1092717e-92
1.9397097e-92
2.254034e-92
2.0808568e-92
2.339112e-92
2.5132182e-92
2.6725823e-92
2.3805611e-92
2.1460682e-92
2.2648743e-92
2.3205422e-92
2.1508131e-92
2.7011389e-92
2.5967042e-92
2.4193101e-92
2.3466788e-92
2.1736726e-92
2.4227316e-92
2.2340763e-92
2.3559168e-92
2.4246956e-92
2.3819166e-92
2.5377645e-92
2.7154896e-92
2.5217856e-92
1.7188124e-92
1.6640092e-92
2.0761294e-92
1.9719139e-92
1.8105544e-92
1.8259298e-92
1.79363e-92
1.7446496e-92
1.8591982e-92
1.9282393e-92
2.1889596e-92
2.012026e-92
1.8056785e-92
1.5368177e-92
1.5811602e-92
2.0489353e-92
2.6203079e-92
2.4107673e-92
2.8463511e-92
2.5253365e-92
1.5040279e-92
1.5963546e-92
1.5355835e-92
1.4403282e-92
6.0591444e-93
5.8947845e-93
6.1502721e-93
6.2696483e-93
5.5693463e-93
5.7950905e-93
6.038737e-93
5.9062826e-93
5.6835097e-93
5.4199578e-93
5.573558e-93
5.9451255e-93
6.0329351e-93
5.6914335e-93
5.2826773e-93
5.6084923e-93
2.6830156e-92
1.5585202e-92
1.5871769e-92
5.6934388e-93
5.5771439e-93
5.7979773e-93
6.0342332e-93
5.2555905e-93
5.6327854e-93
5.9334905e-93
5.5944233e-93
2.1420835e-92
2.5171987e-92
2.080022e-92
1.4354968e-92
1.9456958e-92
1.9133655e-92
1.7096119e-92
1.6905955e-92
2.393649e-92
1.9454337e-92
2.0514473e-92
2.9264855e-92
3.3995153e-92
3.0940142e-92
2.5461877e-92
2.3022659e-92
2.760687e-92
3.0246682e-92
2.4772743e-92
3.9556398e-92
3.7429326e-92
4.3449522e-92
4.4419997e-92
4.1336783e-92
4.4759167e-92
4.9935246e-92
4.5990133e-92
5.9903241e-92
5.7309567e-92
5.6074147e-92
6.1013903e-92
6.1914081e-92
4.0891188e-92
3.7920144e-92
4.4358072e-92
4.6773304e-92
4.0527345e-92
3.9986206e-92
4.5690001e-92
4.4025486e-92
6.372013e-92
5.9193574e-92
5.4568033e-92
5.9655855e-92
6.4031973e-92
5.7087391e-92
5.8200668e-92
6.3559691e-92
1.5436289e-92
1.9099105e-92
1.792842e-92
1.7925466e-92
2.4115691e-92
2.9251365e-92
2.86868e-92
2.2943075e-92
1.8136756e-92
1.7838081e-92
1.374801e-92
2.0790236e-92
2.6736513e-92
2.2754126e-92
2.702278e-92
3.1525207e-92
1.3488121e-92
1.721299e-92
1.742745e-92
2.1324731e-92
1.6152712e-92
2.3579198e-92
1.8953849e-92
1.7837865e-92
3.0273888e-92
2.5711825e-92
2.3712797e-92
2.8624973e-92
2.718834e-92
2.3394223e-92
2.7836266e-92
3.1142619e-92
6.4917049e-92
6.1605508e-92
5.7997882e-92
6.3962242e-92
4.6228618e-92
4.0203306e-92
3.931404e-92
4.4547708e-92
6.479869e-92
5.801287e-92
5.7284105e-92
4.3177823e-92
3.7401283e-92
4.0004987e-92
4.4900154e-92
4.0820511e-91
6.3895539e-91
6.2936534e-91
4.9338676e-91
4.3104382e-91
3.0356416e-91
4.4180686e-91
3.8973552e-91
2.4824575e-91
1.1295663e-90
8.2538145e-91
2.972902e-91
3.2331764e-91
1.2940329e-90
8.1431539e-91
1.3351605e-90
8.6939295e-91
4.4041015e-91
1.4007282e-91
3.582653e-91
5.2158595e-91
7.3910613e-91
6.8944116e-91
5.1200244e-91
5.5044201e-91
3.9974893e-91
3.8185898e-91
7.7135526e-91
5.6779527e-91
7.8996039e-91
4.6305707e-91
5.1831539e-91
7.2543776e-91
7.3096354e-91
8.8683884e-91
2.0233372e-91
3.2806426e-91
2.6689975e-91
2.4851821e-91
2.5223569e-91
1.9841808e-91
2.7021736e-91
2.2926678e-91
2.6328744e-91
3.0674791e-91
4.0988417e-91
4.9483732e-91
4.5944474e-91
1.0545438e-90
3.6872446e-91
3.8864543e-91
4.4311405e-91
9.9027114e-91
8.4026439e-91
7.6747033e-91
1.9625057e-91
1.0102794e-91
9.8507776e-92
1.1308742e-91
1.075854e-91
2.6321008e-91
2.7843216e-91
1.9511711e-91
9.6986936e-92
9.7878737e-92
1.1485012e-91
1.1085481e-91
2.8568314e-91
2.680025e-91
3.6438611e-91
5.901043e-91
3.2250065e-91
9.2412047e-91
2.9451952e-91
4.0179313e-91
2.9560606e-91
9.7969266e-91
6.5263573e-91
2.479825e-91
9.1694045e-91
2.4335443e-91
3.1216469e-91
7.0761627e-91
4.9691802e-91
4.8176019e-91
1.2744863e-91
1.2166968e-91
1.2444656e-91
1.1991562e-91
1.0630622e-91
1.0670654e-91
1.018459e-91
1.048454e-91
1.3378915e-91
1.3867628e-91
1.3604172e-91
1.3684899e-91
1.096818e-91
1.0938985e-91
3.8416435e-91
1.4816652e-91
1.5584242e-91
1.2431342e-91
1.2793104e-91
3.5601983e-91
1.4226232e-91
1.5064558e-91
1.2284746e-91
1.2575079e-91
1.3361013e-91
1.2925242e-91
1.2542297e-91
1.1823884e-91
1.0236546e-91
8.140306e-92
8.4187452e-92
1.0411785e-91
1.0575858e-91
8.6881963e-92
8.6208327e-92
1.0289296e-91
1.0824722e-91
1.1671731e-91
1.1379114e-91
1.0750108e-91
1.0158891e-91
9.8505787e-92
1.1216578e-91
1.3498382e-91
1.262321e-91
1.2510398e-91
1.3829242e-91
1.0720935e-91
8.6228975e-92
1.0860902e-91
1.0373858e-91
1.030344e-91
3.9423514e-91
1.5346385e-91
1.5070031e-91
4.3476348e-91
1.4599883e-91
1.5197423e-91
1.2083877e-91
1.3014982e-91
4.22913e-92
1.3375022e-91
1.0553543e-91
4.1250125e-92
5.7058995e-92
9.4904517e-92
9.5582448e-92
3.8927049e-92
3.9320929e-92
2.7338175e-91
6.3588589e-92
2.8104536e-92
2.8796089e-92
2.7375116e-92
2.8009451e-92
8.0064736e-92
7.7656552e-92
7.9978973e-92
7.86618e-92
7.2912518e-92
2.698317e-92
2.5863983e-92
2.8621185e-92
2.7949566e-92
2.8088803e-92
2.8467286e-92
2.8224979e-92
2.719225e-92
2.8451585e-92
5.273976e-92
6.8907086e-93
1.1677182e-92
7.1739873e-93
7.1101861e-93
1.0833075e-92
1.0701395e-92
6.9159853e-93
6.9676862e-93
1.1563575e-92
1.2092996e-92
2.6977509e-92
2.2511868e-92
4.6610325e-92
1.5339404e-92
1.3799637e-92
2.0049571e-92
1.901314e-92
1.6269388e-92
1.5244784e-92
1.6067245e-92
1.3353597e-92
2.0792188e-92
2.017251e-92
1.9034096e-92
1.4904114e-92
2.3551077e-92
2.1399003e-92
1.5967763e-92
1.445962e-92
1.4319983e-92
1.5162518e-92
1.4676406e-92
1.3942226e-92
1.6462322e-92
1.5719928e-92
2.0295776e-92
1.9423967e-92
2.0116681e-92
2.0388913e-92
2.0068369e-92
1.9606393e-92
1.9834837e-92
2.0279853e-92
2.3929517e-92
2.1651697e-92
2.1555585e-92
2.3237681e-92
2.4261002e-92
2.221371e-92
2.0942991e-92
2.1462408e-92
2.210147e-92
2.2051586e-92
2.2567833e-92
2.2928913e-92
2.1721073e-92
2.3039913e-92
2.4400652e-92
2.1831224e-92
1.9665412e-92
2.1995037e-92
2.2272412e-92
2.3472895e-92
2.5094015e-92
2.208902e-92
1.6043351e-92
1.3675748e-92
2.191493e-92
2.3738334e-92
1.810712e-92
1.3799009e-92
2.188213e-92
2.1467974e-92
1.4943697e-92
1.4306956e-92
1.6721235e-92
1.6251151e-92
1.6240743e-92
1.5361588e-92
1.8404791e-92
1.7098027e-92
1.3995179e-92
6.0280221e-93
6.2511382e-93
6.3175184e-93
6.2887562e-93
6.0102687e-93
5.7953768e-93
5.7638291e-93
6.018336e-93
1.4763065e-92
2.7122154e-92
2.4597263e-92
1.450631e-92
1.3873337e-92
5.6542083e-93
5.5290812e-93
5.810802e-93
6.0525549e-93
5.3395997e-93
5.7539729e-93
6.1134348e-93
5.706789e-93
2.5149907e-92
2.1100584e-92
2.6257472e-92
2.1257092e-92
1.5078064e-92
1.5774933e-92
1.4431651e-92
1.314557e-92
2.6025245e-92
2.4079591e-92
5.8671086e-93
5.6393972e-93
5.8049654e-93
6.0768697e-93
5.3619019e-93
5.6824658e-93
6.0672765e-93
5.7860161e-93
5.4026883e-93
5.8054687e-93
5.9957474e-93
5.7547008e-93
5.3952407e-93
5.5744063e-93
5.9328672e-93
5.732679e-93
2.9482733e-92
2.7230475e-92
2.4717903e-92
2.8650628e-92
2.0797233e-92
2.531153e-92
1.7841804e-92
1.8316e-92
1.3888728e-92
1.935967e-92
1.5750329e-92
1.6966861e-92
2.678462e-92
2.1288702e-92
2.1714405e-92
2.6932188e-92
6.4321844e-92
5.9774629e-92
5.8675772e-92
6.3435444e-92
4.4086328e-92
3.8855766e-92
3.8515109e-92
4.4357484e-92
3.5736172e-92
3.631953e-92
4.190995e-92
4.1237663e-92
6.1229757e-92
5.4976405e-92
5.3274997e-92
5.8920494e-92
5.9739512e-92
6.029981e-92
5.8403663e-92
6.3060327e-92
4.4804224e-92
3.7160347e-92
3.692745e-92
4.3524967e-92
3.9113508e-92
3.8433809e-92
4.4462755e-92
4.5860894e-92
6.3094264e-92
5.5824431e-92
5.7549671e-92
6.2752533e-92
1.3244233e-92
1.8785362e-92
1.6517983e-92
1.9624824e-92
1.6170606e-92
2.0457562e-92
1.7150939e-92
1.678768e-92
2.1797629e-92
2.2626619e-92
2.7447484e-92
2.6890129e-92
2.7096777e-92
2.1711492e-92
2.4024127e-92
2.9377164e-92
2.7214949e-92
2.413275e-92
2.2644592e-92
2.7848148e-92
1.8980061e-92
2.303718e-92
1.628452e-92
1.6112762e-92
1.3723218e-92
1.7149906e-92
1.5860965e-92
1.9574162e-92
2.7595199e-92
2.1427761e-92
2.4101214e-92
2.938033e-92
4.253923e-92
3.6750275e-92
4.5531408e-92
3.8276297e-92
6.2037566e-92
5.6418128e-92
5.9690321e-92
6.4016444e-92
3.6871185e-92
4.2649554e-92
4.52086e-92
3.8593938e-92
5.7453915e-92
5.5330635e-92
6.12042e-92
4.604732e-92
3.988862e-92
5.0329737e-92
4.412375e-92
4.0398973e-92
4.2272877e-92
4.696773e-92
4.745319e-92
6.0444393e-92
5.7436549e-92
1.8069274e-92
2.3405483e-92
1.9186775e-92
1.8058713e-92
2.4116321e-92
2.9981027e-92
2.4659865e-92
2.888321e-92
2.9061877e-92
2.6129615e-92
3.2438294e-92
3.6015449e-92
2.0324236e-92
2.1601916e-92
1.5078498e-92
2.4591483e-92
2.3562643e-92
2.1606202e-92
1.6357739e-92
1.6469336e-92
2.7065319e-92
2.5694525e-92
1.7453118e-92
1.9265642e-92
1.1339671e-92
1.1412709e-92
1.2173224e-92
1.2349845e-92
1.034705e-92
1.1922103e-92
1.2564371e-92
1.1528618e-92
9.7067788e-93
1.0265642e-92
9.1710594e-93
1.1332127e-92
7.9168229e-93
9.0707222e-93
8.5480666e-93
1.1688327e-92
5.0272562e-93
4.9817582e-93
4.7117287e-93
4.913667e-93
4.6832466e-93
4.7683444e-93
4.5565658e-93
4.8887814e-93
1.2739923e-92
1.1843498e-92
1.2834166e-92
1.294589e-92
8.9140191e-93
9.805439e-93
9.006598e-93
1.2448935e-92
4.8875377e-93
4.8307653e-93
4.6073922e-93
4.9388612e-93
1.1783459e-92
1.1529858e-92
2.0231053e-92
2.3302375e-92
1.6193076e-92
1.5083641e-92
2.7004448e-92
2.7268315e-92
1.8708825e-92
1.7616518e-92
8.4824089e-93
1.6610839e-92
1.5902688e-92
7.1679078e-93
1.0064865e-92
1.9933049e-92
1.7988388e-92
9.0270387e-93
7.3977059e-93
1.9532883e-92
2.2488144e-92
8.4461512e-93
7.2100862e-93
2.0667304e-92
1.9433609e-92
6.6781044e-93
2.208876e-92
1.0174157e-92
1.8536332e-92
9.0886228e-93
1.962273e-92
1.1778987e-92
3.109804e-92
9.9133519e-93
2.1180998e-92
2.2779546e-92
7.4705398e-93
7.7231445e-93
2.8034682e-92
9.1385689e-93
7.7171965e-93
2.6375733e-92
1.0024608e-92
1.1723073e-92
1.0689005e-92
9.2445101e-93
1.1077708e-92
1.2498328e-92
1.0729446e-92
9.7286823e-93
1.1250268e-92
1.0859816e-92
9.5881169e-93
9.8124766e-93
1.0037236e-92
9.6880545e-93
9.0433187e-93
9.3547254e-93
8.6611537e-93
9.1716228e-93
8.9406723e-93
8.5357826e-93
1.0390232e-92
1.0387479e-92
9.1004005e-93
9.1711869e-93
1.2652928e-92
1.1193901e-92
9.758897e-93
1.0661764e-92
1.1192066e-92
9.582083e-93
9.1153307e-93
1.0482827e-92
1.3010803e-92
1.1866092e-92
1.0666569e-92
1.1404593e-92
1.14158e-92
1.1288057e-92
1.031371e-92
1.0414735e-92
1.1836578e-92
1.2965228e-92
1.3162866e-92
1.1978972e-92
1.1951259e-92
1.3244613e-92
1.4284379e-92
1.2584087e-92
1.208371e-92
1.1763021e-92
1.0783062e-92
1.0962953e-92
1.165147e-92
1.3038439e-92
1.1936466e-92
1.0852605e-92
1.2880999e-92
1.4395584e-92
1.3516797e-92
1.2196382e-92
1.2327414e-92
1.3462587e-92
1.3765315e-92
1.2402101e-92
1.5424915e-92
1.5212344e-92
1.3921984e-92
1.3978601e-92
1.5510806e-92
1.4588717e-92
1.3156421e-92
1.3824547e-92
1.3461845e-92
1.4668778e-92
1.4901721e-92
1.356731e-92
1.476188e-92
1.6309728e-92
1.6570304e-92
1.4966238e-92
1.4354947e-92
1.5875956e-92
1.6775937e-92
1.4968332e-92
1.3776982e-92
1.2042321e-92
1.0770583e-92
1.1885174e-92
1.1656066e-92
1.1391261e-92
1.047017e-92
1.0583032e-92
1.2101361e-92
1.3022036e-92
1.3232642e-92
1.2036681e-92
1.1954941e-92
1.3231893e-92
1.4554122e-92
1.2629171e-92
1.2213924e-92
1.1980131e-92
1.0777573e-92
1.0820187e-92
1.2045224e-92
1.3107053e-92
1.1383939e-92
1.0435739e-92
1.3067196e-92
1.4899576e-92
1.3126543e-92
1.1998224e-92
1.2018086e-92
1.3188777e-92
1.3298609e-92
1.1960527e-92
1.5448581e-92
1.7498758e-92
1.6502506e-92
1.4770349e-92
1.4308503e-92
1.6123163e-92
1.4812909e-92
1.3483726e-92
1.4698273e-92
1.4602047e-92
1.3194835e-92
1.327145e-92
1.445628e-92
1.5938515e-92
1.6088593e-92
1.4474011e-92
1.5198707e-92
1.671069e-92
1.6801135e-92
1.5262722e-92
1.3668109e-92
1.4837161e-92
1.4924907e-92
1.3675067e-92
1.5340096e-92
1.4454242e-92
1.2988528e-92
1.3660018e-92
1.4192555e-92
1.5635529e-92
1.6448693e-92
1.4730264e-92
7.3040954e-93
1.6675987e-92
1.8554417e-92
7.0279304e-93
8.4975487e-93
2.127143e-92
1.5832344e-92
7.4154178e-93
7.6254299e-93
1.9895228e-92
2.044121e-92
6.2603799e-93
6.5966199e-93
1.7278099e-92
1.7924516e-92
6.2557374e-93
9.7452011e-93
1.0061395e-92
8.5765262e-93
8.3610789e-93
1.0228258e-92
1.1868236e-92
1.0340865e-92
9.0862139e-93
1.0814904e-92
1.0643377e-92
9.4767131e-93
9.5312587e-93
8.7380819e-93
8.7829119e-93
8.5971213e-93
8.7142317e-93
6.5632671e-93
2.065276e-92
2.0437715e-92
6.6873546e-93
7.7488853e-93
1.8196182e-92
1.7254936e-92
8.1015339e-93
7.1432714e-93
1.7398156e-92
1.7582928e-92
6.9201365e-93
2.185023e-92
7.582763e-93
1.934568e-92
8.5912103e-93
1.1760603e-92
9.8919253e-93
9.3649979e-93
1.121217e-92
8.3092683e-93
8.6259624e-93
8.9195462e-93
8.6341407e-93
1.0627021e-92
1.0168603e-92
9.0660177e-93
9.3420684e-93
1.3448248e-92
1.124369e-92
9.8326626e-93
1.1226882e-92
1.6091427e-92
7.4980259e-93
6.3181786e-93
1.8313986e-92
7.3032896e-93
7.9117588e-93
1.5680995e-92
1.9593447e-92
1.8456104e-92
6.1923473e-93
1.9388493e-92
6.7604238e-93
7.4948299e-93
1.9938069e-92
2.5380297e-92
9.0019309e-93
9.1601183e-93
1.7299142e-92
1.4836303e-92
7.1082281e-93
9.9876968e-93
9.3525599e-93
3.4066658e-92
1.7645047e-92
8.4273361e-93
2.2611282e-92
2.191215e-92
6.5608675e-93
1.9179255e-92
1.882523e-92
6.3738573e-93
5.7778599e-93
9.808399e-93
1.2652375e-92
1.0457716e-92
8.6608047e-93
1.0381707e-92
1.1019376e-92
8.583925e-93
8.1094649e-93
8.2835047e-93
8.5131038e-93
8.0702697e-93
8.0381091e-93
9.8524646e-93
9.9456534e-93
8.9628015e-93
8.8774307e-93
1.1875995e-92
9.982729e-93
9.5956224e-93
1.098235e-92
9.1638728e-93
8.3880823e-93
8.1697821e-93
8.8851023e-93
1.0757371e-92
9.9441067e-93
8.8525794e-93
9.3581992e-93
1.2811662e-92
1.158968e-92
1.0085306e-92
1.0663407e-92
1.4218174e-92
1.613208e-92
1.58534e-92
1.4233975e-92
1.3491442e-92
1.5241551e-92
1.436328e-92
1.3005966e-92
1.5010048e-92
1.5138606e-92
1.3881762e-92
1.3868258e-92
1.5361223e-92
1.6574872e-92
1.6869073e-92
1.5420233e-92
1.242352e-92
1.4079215e-92
1.250276e-92
1.1384922e-92
1.1201661e-92
1.2419882e-92
1.0656722e-92
9.7997153e-93
1.1036772e-92
1.1030889e-92
1.0270868e-92
1.0258397e-92
1.2022874e-92
1.2887232e-92
1.2988339e-92
1.2012184e-92
1.4377395e-92
1.6149592e-92
1.658393e-92
1.4793346e-92
1.3473573e-92
1.4876946e-92
1.5229428e-92
1.367786e-92
1.5359383e-92
1.5465856e-92
1.3808194e-92
1.376653e-92
1.1935066e-92
1.274697e-92
1.3231295e-92
1.1992633e-92
1.1536098e-92
1.0934681e-92
1.0093295e-92
1.046477e-92
1.2880196e-92
1.2294593e-92
1.1081122e-92
1.1352503e-92
1.2433931e-92
1.3729158e-92
1.4069379e-92
1.251371e-92
4.1929944e-91
4.9361991e-91
6.7277583e-91
6.319474e-91
4.4440941e-91
3.0537812e-91
4.3630131e-91
4.0473697e-91
2.50271e-91
1.8222845e-90
1.5429106e-90
9.8591842e-91
1.0789206e-90
1.1102008e-90
9.5992086e-91
1.1207498e-91
3.1057935e-91
3.5218893e-91
1.2506489e-91
1.289916e-90
8.2642505e-91
1.3511072e-90
8.1169935e-91
1.2169354e-91
3.2272423e-91
3.8334478e-91
1.7268407e-91
1.5448998e-91
1.4177375e-91
2.8428857e-91
1.2116977e-91
6.5522156e-91
8.0938564e-91
6.0990586e-91
7.3826292e-91
7.8930218e-91
7.3417623e-91
2.042249e-91
3.0565911e-91
3.2047768e-91
2.4369208e-91
2.1658174e-91
2.0268358e-91
2.3077322e-91
2.3199975e-91
2.6705004e-91
3.1669581e-91
8.0972203e-91
1.3559456e-90
4.8754798e-91
1.1659283e-90
4.712733e-91
6.6458479e-91
4.6967521e-91
1.0559052e-90
6.8753006e-91
8.3779121e-91
1.95195e-91
1.0115698e-91
1.0190126e-91
1.0194763e-91
1.1155068e-91
2.3965804e-91
2.7887861e-91
1.929899e-91
1.0449442e-91
1.1860889e-91
1.0848356e-91
1.0909094e-91
2.7140199e-91
2.5086834e-91
4.2060109e-91
8.0950144e-91
3.4338879e-91
1.1447614e-90
3.5290275e-91
6.1715845e-91
3.1564702e-91
1.2026368e-90
6.8476602e-92
6.8722948e-92
8.7550852e-92
8.0170212e-92
1.0195905e-91
1.1304025e-91
1.0178417e-91
1.0223404e-91
1.0432081e-91
1.0421684e-91
1.1085542e-91
1.0170569e-91
9.8761118e-92
9.1322686e-92
9.0670823e-92
1.0117848e-91
6.645172e-92
6.8673377e-92
8.0478674e-92
8.1453004e-92
9.6266812e-92
1.0895176e-91
1.0043696e-91
1.0268972e-91
9.8845887e-92
1.000551e-91
9.4517412e-92
9.4501546e-92
1.1183274e-91
1.0402259e-91
1.0400225e-91
1.1181617e-91
3.9397118e-91
8.7087999e-91
2.8971962e-91
3.0894942e-91
6.278449e-91
2.5783069e-91
3.0700259e-91
9.321516e-91
3.5129082e-91
9.9538414e-91
4.1133934e-91
7.8153254e-91
7.5830126e-92
7.3068166e-92
7.4603626e-92
7.7687381e-92
6.9797665e-92
7.4408802e-92
7.4730031e-92
6.8589436e-92
8.6223868e-92
8.1977629e-92
7.2504539e-92
7.6583835e-92
8.8193176e-92
8.9989367e-92
7.6981896e-92
7.9055984e-92
2.2841032e-92
2.2552145e-92
1.779608e-92
1.8234909e-92
2.1431945e-92
2.1420755e-92
1.7530067e-92
1.7407041e-92
1.7589228e-92
1.7365923e-92
2.1472538e-92
2.1203471e-92
1.7292435e-92
2.1973285e-92
2.1637504e-92
1.7768169e-92
7.7976921e-92
8.0130808e-92
7.3218575e-92
7.2708286e-92
8.003626e-92
8.928027e-92
9.0516827e-92
8.0152873e-92
8.2807631e-92
9.3279571e-92
7.7120115e-92
7.8792771e-92
7.3489149e-92
7.532719e-92
1.771895e-92
1.8498716e-92
2.2144104e-92
2.1637116e-92
1.7696554e-92
2.2130433e-92
2.2624313e-92
1.8145832e-92
1.2783079e-91
1.294782e-91
1.3032628e-91
1.3095918e-91
1.0194853e-91
8.1633739e-92
8.5676719e-92
1.0418597e-91
1.0231007e-91
1.0294258e-91
8.4407938e-92
8.0949457e-92
1.0907527e-91
1.1152268e-91
1.0021905e-91
1.0244353e-91
9.9325987e-92
9.8013675e-92
1.0608275e-91
1.0884692e-91
1.1831981e-91
1.199207e-91
1.2304567e-91
1.2641285e-91
9.9798572e-92
8.1914804e-92
8.5971686e-92
1.0396552e-91
1.0383967e-91
8.4090667e-92
8.516029e-92
1.0239395e-91
1.1064504e-91
1.1175768e-91
1.0379701e-91
9.9580596e-92
1.0748682e-91
1.0226754e-91
9.8787072e-92
1.1098442e-91
8.7885695e-92
8.8987465e-92
7.5339655e-92
7.3694354e-92
7.3206459e-92
7.2856254e-92
7.7306351e-92
7.8518716e-92
7.6206725e-92
7.2149577e-92
7.3160763e-92
7.5499657e-92
8.680843e-92
8.7383779e-92
7.5461713e-92
7.8976953e-92
1.8206272e-92
1.7904194e-92
2.1984638e-92
2.2032217e-92
3.5784396e-92
3.3917975e-92
3.4404819e-92
3.5907768e-92
3.4813999e-92
3.694039e-92
3.416562e-92
3.7833535e-92
1.7606491e-92
2.1952088e-92
2.2302925e-92
1.7990127e-92
1.7334472e-92
1.7109276e-92
2.1157161e-92
2.1103404e-92
3.5702827e-92
3.4164212e-92
3.4617149e-92
3.5874275e-92
3.5340952e-92
3.6572358e-92
3.6143911e-92
3.3478404e-92
1.7417178e-92
2.1958509e-92
2.187374e-92
1.7820726e-92
6.3054973e-92
5.783902e-92
5.7843216e-92
6.1881272e-92
4.9601587e-92
4.8707621e-92
5.0377843e-92
4.9345946e-92
4.9931629e-92
5.0575324e-92
4.8271093e-92
4.7586783e-92
5.008593e-92
4.9475259e-92
5.097949e-92
4.9683766e-92
5.9630246e-92
6.2894407e-92
6.381717e-92
6.0100902e-92
5.7998096e-92
5.8849415e-92
6.2576274e-92
6.1927018e-92
5.0149912e-92
5.0050969e-92
4.9446536e-92
4.9713948e-92
7.831657e-92
7.3575264e-92
7.6189888e-92
7.8795108e-92
7.4142057e-92
7.1048754e-92
7.2646306e-92
7.6461782e-92
8.7196961e-92
7.8640847e-92
7.7253856e-92
8.6836928e-92
8.955011e-92
7.9578825e-92
8.1201312e-92
9.326833e-92
1.8246542e-92
1.8016649e-92
2.2221666e-92
2.2347442e-92
3.7444293e-92
3.7799518e-92
3.5904063e-92
3.5578665e-92
1.7923275e-92
2.2820743e-92
2.2841257e-92
1.8600623e-92
2.1256922e-92
2.1492376e-92
1.7540933e-92
1.7427458e-92
1.7638126e-92
2.2674584e-92
2.2127401e-92
1.83601e-92
3.2152606e-91
4.3390051e-91
1.3976601e-91
1.3199235e-91
1.283571e-91
1.2225212e-91
1.001693e-91
1.0020639e-91
1.0419863e-91
8.4887772e-92
8.4716692e-92
1.0183471e-91
1.2970892e-91
1.3288759e-91
1.2044813e-91
1.3072109e-91
9.8240935e-92
7.7992828e-92
8.1026324e-92
9.7662107e-92
1.0535029e-91
8.4393529e-92
8.7524571e-92
1.0573841e-91
9.8276385e-92
1.0525003e-91
1.0635311e-91
9.5066797e-92
1.1091271e-91
1.1189348e-91
2.8411224e-91
2.9144069e-91
2.5535541e-92
7.0050836e-92
8.1237544e-92
2.6680831e-92
1.2974825e-91
1.0880717e-91
4.2912587e-92
4.3334067e-92
7.2150098e-92
7.6529052e-92
2.6383509e-92
2.6534053e-92
5.8168998e-92
6.4135846e-92
9.7220549e-92
9.6334051e-92
4.0460549e-92
4.1044155e-92
7.8325694e-92
7.6517429e-92
7.9738643e-92
8.3306249e-92
1.6184992e-92
1.7911454e-92
1.8742802e-92
1.6907206e-92
1.5495028e-92
1.7176591e-92
1.7629513e-92
1.5925004e-92
1.8911756e-92
1.8956735e-92
1.7335421e-92
1.733834e-92
1.7667328e-92
1.7989322e-92
1.6196016e-92
1.5999468e-92
1.6826126e-92
1.6727918e-92
1.5171371e-92
1.537082e-92
7.5435874e-92
6.8395734e-92
7.4706738e-92
7.999371e-92
7.3087518e-92
7.4560969e-92
7.2711034e-92
7.6509203e-92
7.9686157e-92
2.3889589e-92
2.3311896e-92
1.2221088e-92
5.6371895e-93
5.865129e-93
6.3922602e-93
6.2094986e-93
5.7347135e-93
5.8940346e-93
5.8645202e-93
6.214317e-93
5.3080163e-93
5.6623424e-93
6.086172e-93
5.8919083e-93
1.4732595e-92
1.4509354e-92
5.4391504e-93
5.4009435e-93
5.7863945e-93
6.0909651e-93
5.2773297e-93
5.7977143e-93
6.101763e-93
5.8975617e-93
1.3280534e-92
1.2214858e-92
2.4771256e-92
2.0616229e-92
2.4844874e-92
2.1081525e-92
1.5916273e-92
2.1575349e-92
1.4596509e-92
1.7746024e-92
2.1771573e-92
2.7059657e-92
1.4576659e-92
1.8801831e-92
1.4440354e-92
1.911861e-92
1.6445527e-92
3.0128317e-92
1.5206023e-92
1.6670272e-92
2.0843668e-92
2.0132227e-92
2.4813498e-92
2.5288073e-92
2.4664853e-92
1.9415012e-92
2.329281e-92
2.7768122e-92
3.9563353e-92
3.3859033e-92
3.4458681e-92
4.0178502e-92
3.6588493e-92
3.3619933e-92
3.8774239e-92
4.238088e-92
5.3394649e-92
5.8119315e-92
5.6630227e-92
5.1051304e-92
5.5174367e-92
6.0432948e-92
4.1960704e-92
3.6076757e-92
3.742542e-92
4.3193593e-92
4.201405e-92
3.9564704e-92
4.4558946e-92
4.7653943e-92
5.6000035e-92
5.0627565e-92
5.3673092e-92
6.0171569e-92
6.0488258e-92
5.4713532e-92
5.9196052e-92
6.377147e-92
1.5743883e-92
2.0635532e-92
1.7162896e-92
2.3375038e-92
1.7943234e-92
2.2392828e-92
1.5747233e-92
1.8353298e-92
2.5497335e-92
2.0701663e-92
2.3616272e-92
2.7591657e-92
2.8107446e-92
2.2836495e-92
2.8590948e-92
3.2261314e-92
1.1336355e-92
9.8640409e-93
1.0345502e-92
5.1230785e-93
5.005766e-93
1.1138222e-92
9.2225471e-93
4.7398769e-93
4.8897599e-93
1.1505307e-92
1.0984657e-92
1.0960705e-92
1.151629e-92
1.0129681e-92
1.1799819e-92
1.100937e-92
8.0647586e-93
9.1679686e-93
8.5108001e-93
1.1274699e-92
4.7441433e-93
4.7779257e-93
4.5408558e-93
4.8219099e-93
2.362924e-92
2.0385239e-92
1.5575185e-92
1.6830594e-92
2.6823043e-92
1.8174823e-92
2.8009164e-92
1.958996e-92
1.2141718e-92
1.1521201e-92
1.2130478e-92
1.2420256e-92
1.1405093e-92
9.53847e-93
1.1845116e-92
1.0595585e-92
8.8196291e-93
9.579992e-93
8.6753166e-93
1.1473793e-92
7.9637489e-93
9.5223824e-93
8.7798127e-93
1.0995313e-92
2.3992054e-92
2.2173817e-92
1.7099046e-92
1.7088152e-92
2.5696349e-92
1.7951084e-92
2.7283794e-92
1.9996486e-92