/*--------------------------------*- C++ -*----------------------------------*\
  =========                 |
  \\      /  F ield         | OpenFOAM: The Open Source CFD Toolbox
   \\    /   O peration     | Website:  https://openfoam.org
    \\  /    A nd           | Version:  7
     \\/     M anipulation  |
\*---------------------------------------------------------------------------*/
FoamFile
{
    version     2.0;
    format      ascii;
    class       volScalarField;
    location    "2000";
    object      omega;
}
// * * * * * * * * * * * * * * * * * * * * * * * * * * * * * * * * * * * * * //

dimensions      [0 0 -1 0 0 0 0];

internalField   nonuniform List<scalar> 
34158
(
533.69505
533.0999
533.10166
532.95837
507.82648
508.97736
527.4849
526.06812
621.99074
620.59543
508.25685
508.83335
527.02275
526.09359
527.5379
500.71696
529.17045
502.07712
521.53563
520.33188
506.1351
506.81752
620.5761
621.02561
502.80152
555.58313
556.43146
503.29447
861.99256
985.61533
975.68591
850.2454
854.83488
979.89297
479.46339
479.38944
523.92215
526.22795
526.4784
501.05014
530.32705
501.77991
520.81375
520.1594
636.79617
638.04094
571.61422
520.55147
495.55814
576.70529
522.14272
496.9925
515.69247
514.59027
507.50158
507.72411
485.1506
486.4419
497.25494
497.78019
477.84849
617.74831
555.81206
503.23999
502.85693
555.7435
862.0455
979.32595
975.06582
850.10139
847.52095
972.41029
987.2489
858.55679
554.51045
754.42078
750.32688
631.24362
629.04903
627.16843
749.28611
557.10476
1265.9342
1307.147
1485.9708
1436.2185
1656.5031
1719.9335
1855.2469
1661.2493
1641.9841
1845.4895
1871.5844
1246.6407
1417.9585
1251.5809
1433.686
1246.3368
1258.1409
1435.1943
1424.2801
1865.9624
1664.286
1850.0149
1645.9386
480.69391
480.47533
472.05346
472.93773
489.66052
489.60952
500.49517
501.54221
518.24823
519.916
637.03028
636.86863
566.31937
520.9033
495.74205
572.62505
524.67123
496.43675
515.17073
514.53573
616.27209
801.28692
791.32989
617.18955
799.96421
796.60408
647.26467
559.18261
512.78268
490.91638
656.84622
566.70714
514.72895
492.37582
508.12467
507.22328
487.34874
487.45278
498.5391
498.89666
496.92083
480.57747
498.71712
481.81642
2332.4115
2365.5739
473.62972
477.98702
2176.1222
554.58021
502.56487
847.1669
963.07796
975.09535
855.10088
753.83787
630.85535
629.33276
748.65938
556.94741
552.9581
746.67944
754.5796
624.30317
628.7609
1478.1098
1299.8728
1263.9731
1433.0932
1897.3532
1710.5066
1654.0006
1842.1643
1845.1665
1645.8785
1657.6717
1865.5249
1248.3161
1243.3683
1420.044
1430.7272
1427.1538
1254.4893
1239.7846
1415.0479
1660.5934
1869.0209
1641.515
1849.4535
1710.9124
1675.9477
1886.3021
1261.8423
1441.7439
1476.5247
1292.8817
544.77707
720.42237
715.06785
1156.7943
1135.3407
909.69892
900.25512
1115.3171
881.9591
883.82375
1117.4964
707.4395
1117.7247
1111.4283
881.11056
877.93489
549.0205
1671.8759
1680.5997
1918.8357
1924.5362
1765.9616
1803.504
2021.0071
2082.5457
2422.8035
2664.6496
2582.4696
2343.4344
2236.9667
2488.4831
2465.3743
2226.8476
2789.3733
2817.6145
3034.6553
2996.3567
2918.1423
2998.923
3194.6237
3120.1906
3496.5113
3361.3047
3407.2863
3582.821
3538.9569
2826.4886
2848.7034
3084.7082
3043.9622
2767.2375
2793.1243
3016.4836
3000.8315
3580.9559
3400.4379
3399.5677
3584.5312
3672.5072
3483.8432
3415.6867
3593.2336
1635.3914
1644.3296
1889.5638
1868.0037
2201.2647
2459.0372
2429.7081
2174.3378
1899.1031
1657.6439
1660.6812
1917.3101
2237.0345
2225.1711
2497.0486
2492.7272
1640.2008
1633.8251
1862.8972
1903.3085
1669.6407
1684.5228
1936.3939
1909.7794
2497.8827
2253.0323
2221.3041
2480.7687
2213.0718
2164.5813
2421.8913
2464.709
3566.673
3406.6581
3442.0427
3637.8583
3031.2
2826.5901
2822.23
3053.0955
3537.5405
3358.3539
3392.2745
3589.5773
2981.789
2753.9235
2793.7082
3021.1738
473.03315
480.32423
480.33531
473.81228
473.90378
491.07954
490.42917
474.8978
476.33438
477.0855
477.35869
518.23658
517.76078
522.78573
495.16951
521.83422
496.27695
513.3565
514.56892
616.59576
800.05188
791.94781
616.40632
797.27122
794.69011
625.54619
562.57864
513.71612
491.01115
644.4776
567.14946
516.3025
491.54307
507.74642
507.27307
583.30491
821.15956
809.31116
785.11171
801.06212
583.85422
813.87166
816.69484
797.18823
790.78195
622.58035
547.70607
504.78457
486.28871
636.33311
555.66601
507.30052
487.60532
499.02137
498.53053
500.46731
482.64767
501.06106
482.78049
525.63665
491.90411
528.03262
493.10787
2143.8796
2157.4266
2353.6291
2335.218
2148.5085
5266.2464
5218.3823
4672.7745
4677.0786
2160.3214
5330.8435
5230.7369
2349.2388
2353.3121
534.11252
531.50161
473.37555
477.43691
2147.6283
4106.349
4026.9125
4155.8892
4038.8164
3914.8591
3831.3622
2094.2403
2082.9648
745.74536
750.77193
623.27528
626.52013
554.07397
1207.3736
1240.1695
1254.8181
1422.6547
1406.9472
1639.7447
1623.5258
1823.6631
1813.728
1642.6766
1689.3432
1829.3297
1879.0039
1282.7373
1255.1016
1424.6308
1463.0042
895.86674
1143.6397
1126.365
886.88899
711.5886
708.34122
1107.4461
1110.992
869.71565
871.63191
548.00374
706.55162
721.94483
543.68006
1115.9003
1108.6908
880.08349
876.75586
1145.5898
887.45634
1124.671
895.42559
2633.5628
2402.2817
2340.225
2573.6898
2074.849
1800.2502
1765.481
2023.6787
1663.1265
1681.0617
1933.6619
1903.1599
2486.9885
2244.8139
2199.8959
2428.8799
3653.4192
3526.5963
3479.4064
3640.2987
3164.2271
2976.7234
2903.2645
3103.2882
2740.1877
2808.4276
3011.035
2936.0238
3532.8784
3370.8644
3290.5024
3459.4998
3553.3806
3385.5385
3412.523
3595.0781
2997.2632
2776.3588
2777.3831
3015.665
2833.2771
2823.6367
3063.4723
3047.8734
3635.9323
3459.4754
3420.8832
3594.254
1658.882
1655.4204
1901.3422
1919.4641
1629.53
1637.124
1886.0214
1865.4311
2170.9659
2192.8848
2449.1463
2431.332
2482.9334
2218.6491
2239.9095
2496.9198
2498.6909
2248.2258
2226.7969
2481.4278
1927.9806
1675.7485
1667.7937
1912.7751
1634.0416
1630.9285
1868.9528
1877.3538
2435.2435
2177.3634
2187.5378
2445.6805
3066.6744
2850.4079
3057.3936
2830.4231
3629.5764
3454.545
3465.7084
3653.1694
2770.2352
3000.9198
3016.3801
2785.8424
3402.0093
3383.7191
3579.9111
2995.3516
2956.5499
3200.2142
3183.9456
2895.1718
2852.8505
3092.8824
3134.0246
3538.2773
3492.1673
1676.607
1670.8253
1920.283
1923.5002
2251.4358
2506.0235
2239.9065
2529.7426
2593.5984
2337.2281
2406.0625
2655.9917
2006.4843
1751.3694
1773.835
2060.3628
694.77053
691.6184
725.514
724.15568
1054.0625
1016.6308
997.73127
1007.3778
1600.0262
1315.7171
1304.0024
1585.5653
1513.791
1244.2339
1239.3943
1502.66
1218.5157
1221.6481
1477.992
1474.4207
1220.6931
1222.9643
1491.5785
1483.5507
723.17811
1002.2441
986.61839
1504.3142
1235.329
1233.6589
1501.5454
1471.9045
1201.8575
1199.1396
1461.4658
735.33998
689.74947
703.75273
2585.6081
2641.687
4169.003
4166.0019
2815.0751
2924.6399
4424.2866
4657.2352
5884.4796
7051.1397
6737.8402
5600.2434
5304.192
6424.982
6431.5921
5320.1977
7539.8502
7547.9366
8700.2016
8670.961
7886.0265
8209.1194
9386.2366
9063.8904
10213.178
9775.4243
9829.878
10924.71
10843.01
7574.0578
7651.5069
8890.3269
8718.9722
7372.9849
7532.1831
8722.6572
8572.5226
10985.399
9874.3971
9735.9699
10862.173
11284.125
10104.726
9824.8643
10884.2
2502.7941
2552.2926
4077.0361
3951.5447
5226.37
6369.886
6210.7022
5075.2715
4059.1985
2578.0545
2568.9754
4126.2465
5291.4589
5248.0904
6442.7062
6435.0387
2529.5302
2536.8647
3957.6828
4112.8713
2599.4493
2666.1062
4228.312
4071.0803
6495.7096
5375.7208
5207.5533
6351.3798
5250.412
5054.3057
6165.3149
6344.9198
10932.42
9865.834
9885.0324
11041.252
8749.4767
7606.9111
7504.0149
8694.2203
10769.38
9632.9682
9689.8185
8462.3736
7291.1839
7436.35
8563.2524
472.78321
462.609
462.50143
468.54692
468.75626
487.01771
480.49531
480.54673
487.45338
473.20191
473.84836
490.58546
490.47199
478.25365
478.22048
478.05069
478.34535
484.96539
498.44669
502.36187
486.16971
494.93699
495.71891
513.62761
512.96634
615.90916
613.68479
582.11157
513.42308
490.40568
570.1348
515.11267
491.56559
506.77906
507.54201
583.64227
811.78485
817.66314
795.37246
789.4638
583.39398
810.61828
787.66698
795.58443
817.20599
621.57054
553.52391
506.42783
486.40374
636.04637
555.0439
507.42891
486.68931
498.79957
498.63098
546.8781
765.32831
723.82885
726.01396
773.71926
1820.0664
1823.1069
546.81397
767.24328
723.964
724.07006
770.87607
1815.5935
1823.921
601.2249
533.59273
498.49258
481.83971
614.3098
538.28206
501.81777
482.8804
524.9666
494.1066
531.12029
494.35501
567.25487
514.8991
582.57266
518.44111
5020.5236
4960.4017
4811.3354
4894.6486
10077.398
9937.9587
9898.5237
9896.1709
5049.0263
4899.1914
4871.8744
4988.1485
10091.99
10069.307
2153.9001
5220.843
5307.8355
4756.9903
4671.4849
2147.3548
5177.0989
5276.43
4708.6806
4621.5595
4896.2385
5068.3024
4983.1919
4854.6906
10066.39
8901.8431
8918.181
10050.317
9940.7867
8815.2918
8852.4335
9948.1968
7957.2421
9039.9727
9060.5278
9121.4239
8035.9212
8006.3502
9129.6266
5079.7154
4975.846
4869.1361
4946.8808
10169.855
9035.098
10136.103
9937.3288
9980.3109
2157.8551
5285.2309
5267.5348
2149.607
5193.8988
5316.3075
4668.9877
4750.9669
591.12976
558.66734
560.69781
593.84314
533.33327
561.72883
560.52979
593.18274
594.23089
473.64038
531.10496
3927.4929
3897.9638
4001.0065
4044.4499
13021.187
12192.249
12452.446
12027.717
11641.969
3883.4525
3762.4067
3892.93
4025.6882
3839.611
3840.9711
3774.335
3916.5107
3997.8183
544.55553
1075.2842
846.31828
1110.5433
1103.2958
869.54408
866.64752
1112.551
1130.3488
870.37156
878.61306
698.89607
711.84457
546.78905
1595.9976
1595.8175
1836.5651
1847.3498
2148.0432
2382.8771
1623.6919
1629.7152
1854.1034
1871.523
1656.3127
1680.0033
1913.1211
1895.1744
2187.2338
2198.0869
2415.6539
2414.6058
2364.4738
2135.8843
2166.0239
2398.0787
2893.8598
2709.8209
2727.3169
2927.3758
2711.5758
2670.1834
2873.8831
2918.5624
3287.4981
3455.0238
3396.745
3223.0391
3278.5813
3459.0994
2897.3943
2703.2793
2778.0567
2980.6398
2901.056
2832.4243
3034.4547
3081.4183
3350.7739
3256.6738
3405.3452
3509.1076
3538.7598
3397.8974
3430.6002
3568.6394
1756.8854
1733.9854
1972.0234
2025.576
1655.2384
1661.2374
1891.5083
1907.6551
2402.5804
2178.8564
2214.2629
2452.2358
2514.5182
2279.9897
2347.9247
2580.1345
1036.9788
1299.6386
1590.1528
1577.8433
1285.7603
1228.2062
1236.1011
1507.3988
1490.8832
1002.2143
719.95958
721.15692
988.14104
997.38067
1470.5711
1210.2691
1206.8698
1467.4383
1488.2894
1213.7672
1210.1495
1476.8355
686.00994
699.46673
719.3622
730.38998
1001.4639
987.1102
1002.9924
1037.3335
692.53918
689.40564
1228.7542
1230.398
1496.2003
1497.166
1470.0606
1203.0245
1201.9909
1463.9811
1567.7124
1273.6326
1281.1206
1569.4865
1233.9185
1501.0006
1505.957
1235.6486
6905.399
5777.3102
5633.5123
6768.7073
4613.5597
2952.8227
2835.8306
4480.7776
2541.7625
2646.7375
4144.1572
4033.2245
6407.8785
5266.8715
5136.9234
6236.5859
11296.9
10288.413
10304.238
11415.429
9197.2596
8038.8993
7924.8543
9125.4936
7345.91
7568.6631
8751.0207
8478.4356
10999.322
9895.2184
9579.8488
10639.181
10845.688
9769.3963
9869.2182
11014.44
8629.1612
7450.0196
7422.6403
8657.1161
7604.9533
7610.0009
8847.5271
8767.9055
11161.571
10032.141
9890.5674
10960.379
2576.1215
2570.6083
4075.161
4177.6111
2489.3575
2520.0688
4055.4377
3950.147
5071.257
5185.8606
6307.8865
6224.8137
6404.2156
5228.0058
5337.0016
6463.4999
6500.866
5353.3711
5244.0181
6417.3642
4191.4059
2639.8516
2596.663
4098.4027
2501.1765
2513.5142
3978.0591
4007.1994
6242.7393
5101.3905
5146.1972
6284.8132
8835.3226
7649.9421
8893.464
7624.9659
11046.753
9965.3338
10123.569
11291.645
7399.4211
8587.7097
8605.0954
7430.387
9741.0834
9752.0984
10883.869
8144.4658
7921.0642
9295.3605
9119.6724
7731.5358
7676.6416
8896.8951
8983.9241
10185.824
10055.506
2614.6692
2606.3456
4141.7034
4138.2539
5304.6836
6480.3889
5307.0646
6498.8486
6739.7458
5553.1046
5818.5015
6996.5081
4362.9221
2800.2082
2847.1574
4570.1288
801.25442
805.58238
884.34507
873.77942
790.84023
789.23827
861.03365
863.4603
1088.2159
1126.0121
1189.9013
1151.5516
1086.9563
1067.2062
1144.3172
1151.8274
1517.4637
1490.1162
1434.8826
1414.9832
1411.379
1400.2358
1411.8727
1400.0009
2209.4879
2167.9976
2076.2533
2024.5646
2013.0409
1992.2637
2041.3686
2004.6797
1087.0181
1075.2574
1172.2768
1141.6538
1436.1727
1426.0327
1393.4878
1373.2335
2078.4236
2051.823
2018.6604
1963.9468
1157.166
1088.7865
795.85825
793.71593
867.71935
871.68891
797.66709
801.45029
878.06718
872.39144
5293.9364
7022.9668
7067.5031
5193.771
5622.3483
7432.9612
7037.0089
5399.4202
10968.026
10922.518
11454.101
11392.928
11290.754
11244.226
10876.772
10934.071
7610.1389
6128.0861
7915.7346
5764.5913
8261.8765
6476.8657
8535.1134
6388.463
11770.055
11741.024
11934.06
11692.931
12759.611
12668.979
12361.286
12260.396
13671.142
13704.495
13516.919
13696.009
14922.987
14536.015
14328.186
14787.374
13731.586
14431.124
14386.025
13647.836
12745.14
13149.71
13248.871
12662.309
12447.256
12408.165
12073.628
12157.993
13317.357
13577.267
13505.98
13309.541
13497.089
13391.292
13387.751
13353.037
12493.36
12091.202
12201.867
12396.391
14555.403
14651.29
14600.885
14458.685
14564.745
14724.766
14661.039
14559.127
15835.574
15939.73
15876.394
15810.902
15775.8
15888.603
15702.955
15562.261
14875.077
15694.622
15601.16
14827.251
15361.451
15490.999
16098.274
15935.366
16362.409
16564.049
17253.97
17001.667
16764.902
16933.642
16093.97
15981.347
17196.459
18050.33
17799.556
17035.92
16766.028
17017.989
16819.513
16592.304
16897.072
17073.321
17093.059
16962.401
17778.219
18063.595
18160.78
17945.337
17726.421
17994.526
17725.186
17481.422
14563.798
14554.583
14524.858
14440.915
15400.654
15055.876
15073.41
15413.747
16419.889
16465.966
16842.762
16758.704
15729.068
15826.429
15646.175
15475.286
14494.661
14486.997
14503.779
14486.017
14763.501
14781.639
14633.955
14644.088
15933.084
16090.565
15978.823
15913.607
15778.054
15842.324
15834.811
15752.493
17676.79
18039.615
18291.585
18044.812
16899.718
17129.056
17205.351
17072.502
17024.244
17037.044
16877.661
16882.838
17849.822
18069.606
18076.856
17866.482
18612.75
18914.197
19287.187
19039.737
17629.754
17769.723
18132.23
17985.356
16618.028
16961.365
16752.285
16420.836
17645.436
17909.791
17491.189
17250.832
5043.8039
6624.6909
6562.7417
5054.3934
5371.9518
7081.2547
6990.833
5354.0585
11042.854
11012.707
10651.313
10724.717
10440.761
10299.208
10289.662
10406.943
12253.246
12164.532
11928.207
12084.015
13292.967
13452.92
13450.036
13327.32
13078.174
13064.203
13164.342
13155.802
11617.713
11623.699
11851.007
11825.363
10855.256
10638.7
10742.565
10941.824
5475.6065
7124.3482
6896.4482
5311.976
5268.2881
6874.3012
6867.07
5207.6543
11065.524
10784.861
10740.342
11073.263
12225.993
11913.066
12036.197
12252.22
12370.607
12142.431
12299.245
12572.274
13915.44
13636.866
13697.639
13994.766
13427.861
13233.491
13255.284
13336.252
7111.1829
5141.5671
5172.5219
6806.5099
5399.9142
5216.725
6952.7925
6736.664
10342.142
10440.988
10346.985
10344.394
10671.108
10652.843
11591.106
11453.649
5466.4444
7215.2534
7023.1898
5445.4715
5772.5421
5832.4878
7459.1693
7496.9149
11465.898
11496.172
11083.396
11110.848
10527.22
10928.167
11046.336
10630.883
13566.533
13565.038
13405.35
13536.667
12473.868
12524.59
12289.858
12397.037
12502.453
12284.489
11854.034
12073.053
13279.466
13713.718
13736.036
13343.978
12483.488
11821.186
11984.573
12349.501
11480.992
11625.483
11802.721
11677.274
12876.326
12975.208
13012.586
12962.038
13371.674
13191.306
13226.353
13240.636
16921.887
17271.933
18080.595
17740.176
16263.56
16546.381
17162.842
16935.801
17241.65
17689.065
17525.853
17156.634
18512.38
18769.498
18389.248
18233.496
15420.834
15626.273
16027.481
15887.779
14434.739
14554.915
14777.215
14718.613
14616.512
15015.164
15007.374
14642.715
16309.14
16356.756
15958.411
15929.134
17548.575
17860.14
18157.572
17906.383
16682.708
16874.303
17010.646
16909.099
16807.002
17134.341
16971.142
16689.571
15558.699
15596.948
15648.924
15650.174
14235.643
14261.114
14268.077
14290.393
14401.552
14497.671
14491.984
14354.225
15783.22
15818.808
15609.845
15546.714
472.72098
468.27984
462.23697
462.55816
468.71284
486.78039
480.44197
480.39532
487.11516
462.6472
462.48227
468.90126
473.08638
469.22863
473.24187
515.96284
490.62528
490.25153
514.92574
476.03245
477.63138
478.2683
478.42383
502.66469
487.26384
487.00093
501.03349
511.09867
520.93857
524.63961
513.36518
513.7288
490.47511
514.59839
491.07801
507.26978
506.69226
583.39718
814.49772
808.38677
784.84637
793.77258
582.24946
797.23828
775.41794
785.55765
809.7038
676.79905
564.28109
503.65413
485.8487
639.11851
557.16298
507.36484
486.87059
498.49139
498.76966
546.80527
723.56161
769.51362
768.84627
725.3135
1819.9847
1815.6498
546.9662
722.99129
725.22945
771.19152
766.2416
1827.0895
1813.6014
608.47131
537.23169
500.73686
481.87161
612.43393
535.9521
501.65205
482.06465
668.73028
665.01383
627.81291
626.01967
1465.209
1155.4186
1145.462
1456.7849
4196.8477
4274.9173
4509.418
4433.8405
4311.4678
4218.0564
4437.7551
4507.6601
667.94638
665.26211
627.72208
626.16327
1456.6981
1144.9932
1150.3894
1462.9209
4241.6314
4209.7937
4410.7201
4474.1202
4283.9503
4213.143
4443.9333
4488.6351
574.52283
523.16724
491.9437
584.09132
527.88269
495.31732
562.06543
517.38354
583.40685
522.40719
548.45799
562.37247
10066.137
9597.7591
9783.8666
10241.556
9586.0507
10092.297
10054.368
9588.2663
10135.746
10151.278
9408.116
9426.676
10164.556
10328.08
9614.7824
9445.6588
14035.635
14023.049
14604.944
14668.365
14043.952
13874.288
14516.157
14581.444
14431.373
14474.889
13903.936
13761.547
14475.034
13860.402
13896.403
14485.479
10272.905
10227.051
9759.2215
9769.5531
9594.0228
10343.484
10311.512
9596.6347
9435.5114
10157.942
10048.106
10139.658
9683.5087
9579.1565
14702.693
14660.618
14007.164
14153.694
14696.75
14120.974
14075.307
14689.558
4978.5213
4845.3652
4939.7389
5058.8361
9915.8983
8804.5352
8873.6366
9977.2178
10133.811
10056.184
8942.8848
9021.6145
9228.6498
9170.8115
8152.8865
8089.7144
8025.5843
7957.6117
9026.5283
9092.2934
4955.626
4808.3365
4918.2191
5061.4852
9844.7779
8729.15
8836.5681
9958.2318
10038.211
8895.0797
8928.6654
10048.8
9130.2631
9117.1618
8015.5083
8048.8812
8954.1635
7975.7123
7886.5373
9052.3092
10360.178
10324.037
9579.0985
9581.6582
9772.484
9794.5557
10311.424
10255.08
10103.611
9612.9135
9633.1052
10084.046
10183.125
10181.067
9479.7222
9447.3782
14577.801
14661.294
14076.278
13907.161
14134.067
12562.981
12678.602
14281.293
12668.859
14286.571
12667.248
14229.616
14661.769
14065.804
14027.782
14657.081
14595.452
14608.394
14050.389
13938.076
14168.41
12578.488
12649.549
14256.227
12515.881
14094.103
14075.011
12541.388
14457.881
13872.368
13869.158
14509.096
10838.808
11939.031
11900.391
10876.995
11782.596
12725.784
12780.07
11833.493
12655.955
11725.726
11767.987
12674.954
11775.417
12706.639
12809.074
11863.346
11969.683
10895.618
10926.025
11977.189
11889.214
11967.613
10898.294
10830.15
12809.59
11857.112
11872.215
12797.734
10294.353
9831.6461
9808.6066
10244.754
10057.382
9583.6233
9666.951
10118.364
10154.318
9440.1026
9517.4927
10210.448
10405.173
9676.3037
9661.4402
10362.236
14714.552
14742.608
14241.37
14107.129
14325.784
14440.809
12847.423
12754.905
14728.709
14184.771
14140.697
14736.395
14058.049
13911.513
14553.363
14599.526
14497.337
13895.483
13909.931
14529.345
2138.1577
2169.6019
4909.4182
5066.7338
5023.0305
4894.8816
10113.12
10036.769
10018.056
8901.0806
8942.4886
10040.998
5071.0048
4933.9529
4830.6258
4945.7844
9863.68
8759.6746
8813.6443
9904.1526
10184.636
9041.8433
8972.4708
10067.707
7928.0078
8985.4705
9022.6571
7974.9006
9266.1761
9189.5581
2102.3854
2142.092
697.6533
587.14805
587.21065
697.06636
558.68764
560.19609
592.75933
590.42406
587.30457
588.28841
696.46511
698.78491
533.29816
531.39764
561.78164
560.4188
592.7147
593.96806
12073.65
11950.307
12844.894
12941.989
17930.764
18190.344
18941.799
18624.014
17376.364
17694.269
18389.645
18025.047
19118.431
19620.254
19289.879
18896.843
19045.91
18694.192
18399.423
18788.011
18075.532
18598.367
18336.722
17886.921
12330.998
11431.065
11896.608
12867.205
11739.393
11678.288
11458.484
12440.994
12650.464
688.03772
719.35565
970.25161
1419.2439
1160.6214
1160.1132
1408.6606
1494.0067
1220.14
1217.7744
1482.699
1460.7732
1190.6562
1188.1894
1447.4039
986.35783
972.75702
1478.372
1207.0438
1206.8991
1472.6086
1544.2876
1250.9112
1261.1951
1549.256
980.19733
1016.8596
714.59449
724.1117
684.29697
696.83952
2496.7929
2489.8032
3975.0186
4017.33
5132.7045
6231.2214
2452.5447
2435.4981
3870.1511
3962.1793
2537.5107
2603.7482
4097.6249
3984.2686
5072.1209
5161.2285
6207.6097
6170.1436
5994.327
4924.9502
5070.126
6172.4847
8356.4194
7261.4018
7286.333
8441.564
7288.0954
7087.0785
8216.2915
8435.3196
9579.6886
10687.386
10424.788
9328.1722
9559.8316
10647.975
8379.4961
7246.1973
7430.4099
8614.7386
7887.3184
7639.5166
8823.2302
9031.1945
9764.3206
9454.1657
10476.82
10865.178
10993.866
9940.4897
10118.431
11135.77
2817.1428
2710.0288
4226.6788
4475.9735
2541.1929
2540.2695
4018.9672
4049.7269
6150.9685
5081.5097
5160.3245
6280.5521
6477.5094
5344.1564
5636.5863
6756.1984
1167.364
1506.7004
1471.7944
2212.2677
2161.1205
1388.6602
1422.1507
2073.0469
1993.9357
1137.6182
1112.9966
1076.9197
1062.036
1078.7503
1142.8172
1152.0845
1398.1704
1388.18
1405.7297
1387.7366
1992.3601
1984.4055
2036.3922
1994.725
787.20836
790.64236
865.41368
859.77304
792.64948
866.46983
795.84841
872.89484
1078.9142
1064.0614
1164.3185
1133.9417
1077.6942
1117.3306
1147.6901
1173.9524
1428.8017
1416.6914
1388.2537
1375.2476
1423.7156
1427.6897
1468.9618
1474.8748
798.59898
803.42386
878.57538
868.74932
788.58576
858.36266
788.47916
859.71966
2060.7197
2042.9358
1999.7279
1963.3807
2165.7406
2155.6934
2049.4444
2061.799
14110.132
14175.972
13921.697
13974.041
13234.062
13539.55
13044.506
12969.886
12730.247
13467.063
13430.446
12692.646
13802.354
14544.819
14438.378
13732.318
12074.941
12624.826
12861.284
11975.629
6676.2226
8775.9935
6386.5655
8327.2331
7753.2473
6222.7081
8399.4445
5812.7077
12377.934
12424.549
11849.212
11706.928
5201.7852
6830.0765
6580.2156
4931.0256
5758.4695
7526.0668
7040.3979
5401.5072
11160.155
11179.726
10845.156
10901.376
10586.168
10576.111
10637.684
10602.209
13440.708
13648.696
13658.619
13455.56
12402.11
12257.727
12072.733
12212.463
11709.344
11649.156
11768.869
11749.792
12927.237
12948.034
12988.425
12874.575
16881.665
17258.585
17878.938
17457.246
16382.969
16726.066
17238.828
16875.809
17346.879
18093.599
17779.163
17155.553
18510.868
18887.522
18271.353
18019.19
15728.306
15993.265
16378.658
16098.01
14884.583
15045.663
15244.634
15115.403
14977.288
15725.816
15652.907
14938.479
16812.055
16980.705
16222.73
16102.826
14096.569
14253.124
14245.059
14033.218
14754.179
14925.821
14827.702
14707.363
15897.789
16065.123
16006.355
15870.316
15438.51
15525.389
15254.711
15119.723
17640.456
17980.812
18114.883
17880.61
16859.59
17071.889
17110.765
16934.255
16291.36
16665.057
16494.749
16114.24
17429.327
17657.837
17213.16
16993.365
17155.154
17538.864
17937.893
17551.791
16511.816
16776.428
17088.908
16822.094
17070.951
17720.177
17494.344
16912.825
18310.321
18665.694
18090.718
17847.038
15586.857
15750.574
15959.267
15795.698
14430.195
14454.828
14600.374
14580.003
14407.335
14925.287
15007.403
14457.663
16373.636
16417.976
15811.193
15763.081
14461.933
14820.977
14833.768
14414.252
15337.367
14961.346
14925.566
15314.379
16145.158
16243.88
16730.812
16585.299
16075.672
16175.74
15691.364
15559.967
17974.558
18296.468
18877.227
18587.762
17157.443
17355.95
17885.076
17660.854
16753.757
17321.807
17088.853
16562.553
17963.507
18253.478
17675.436
17428.597
5289.9002
5201.5111
7010.7322
6969.861
7015.3155
5420.3006
7118.2466
5339.7371
10775.257
10843.928
11067.799
10932.075
11398.322
10968.925
10990.562
11307.808
5061.1048
4957.2314
6719.242
6542.7
5259.1482
6980.6217
6772.4064
5178.331
10698.249
10981.069
11013.405
10740.03
10587.153
10459.37
10341.132
10360.795
11525.395
11775.803
12055.032
11713.659
12048.949
12012.898
11901.531
12005.257
13232.309
13195.772
13176.305
13256.967
12962.259
13348.55
13514.46
13056.313
13872.102
13546.252
13628.908
13926.418
12257.632
12020.353
12363.113
12565.429
12327.813
12091.929
12215.972
12197.061
13282.654
13422.17
13475.945
13192.005
13592.538
13515.285
13396.062
13551.205
12426.395
12504.702
12257.4
12351.66
11882.681
12397.541
12597.348
12083.391
13337.806
13839.706
13893.283
13411.425
11439.752
11439.047
11080.367
11080.396
5710.496
7451.6146
7250.835
5576.722
5488.8486
7339.0413
5281.1349
7018.6698
10649.698
11157.003
11040.557
10678.863
5061.6591
5034.2151
6662.8223
6666.1593
5126.9713
6712.1187
5288.1124
6987.3266
10694.803
10616.758
10420.32
10487.864
10480.755
10540.724
10687.307
10661.62
13195.054
13313.7
13329.784
13270.024
12083.884
11876.253
11698.095
11924.801
11806.346
11704.609
11915.774
11885.9
13097.577
13150.599
13221.43
13090.118
15637.679
15803.997
16207.773
16033.906
14567.024
14615.949
14883.32
14842.942
16664.645
16738.667
16230.81
16168.256
14755.478
15257.759
15299.051
14808.848
17269.413
17564.975
18246.499
17955.304
16518.07
16761.122
17282.256
17066.15
17479.139
18016.876
17789.871
17333.692
18679.277
18991.363
18538.345
18314.597
14594.925
14584.231
14539.712
14614.063
15744.505
15824.571
15968.759
15899.249
15810.696
15874.498
15670.383
15552.267
14358.673
14510.856
14530.774
14337.141
16774.849
17090.942
16885.962
16605.948
16859.759
16991.287
17196.946
17070.738
17842.711
18065.406
18317.397
18123.589
15258.064
15660
15480.335
15030.629
15480.582
15093.533
15019.685
15368.469
16499.476
16729.281
16189.701
15938.006
16146.855
16280.439
16707.18
16530.875
15288.359
15240.003
15319.028
15293.739
14686.983
14773.861
15171.787
15137.073
15821.66
15975.739
16555.056
16405.949
16667.056
16735.442
16659.789
16527.144
17802.381
17970.998
17750.104
17592.141
16694.083
16930.987
17696.376
17465.707
7071.6315
5447.9819
7213.2485
5428.7871
7292.2676
5406.2481
7061.5484
5716.3696
10969.081
11050.344
11069.315
11015.599
11052.587
11007.036
11022.579
10966.108
12241.194
12442.786
12516.378
12295.078
13713.307
13509.079
13475.669
13751.02
12290.161
12190.847
12265.955
12423.107
13817.835
13695.96
13820.768
13889.172
14245.716
13913.188
13839.13
14135.96
12712.325
12764.759
13029.894
12982.239
13515.1
13489.962
13274.238
13419.719
14354.424
14619.568
14434.864
14088.809
11760.092
11743.282
11562.35
11565.748
5956.8329
6135.7893
7785.2718
7974.2952
7950.3519
6064.6578
8019.7143
6077.212
12266.66
12279.526
12234.675
12304.303
914.61731
918.59847
1210.5457
1188.5855
903.92109
905.90098
1175.6825
1172.9825
1558.2615
1358.7501
1349.8128
1549.6877
1660.3226
1443.3221
1414.3088
1618.1802
2124.6635
2017.3754
2264.6044
2178.2667
1923.4229
1904.2962
2113.4912
2093.6461
1538.8624
1339.7449
1340.3955
1535.8852
1342.5736
1333.879
1538.1502
1550.8637
1966.246
2122.0554
2094.7999
1911.7692
1907.2906
2110.7165
1897.8726
2113.9213
3645.1356
3571.595
5220.5001
5184.4164
5051.5483
4749.7791
3492.4144
3429.1895
3368.9281
4679.0203
4552.9119
3325.1162
3263.4626
4463.5709
3234.376
4271.3783
4520.1862
3321.8078
3282.2316
4464.6407
4307.1609
4287.7528
3231.7684
3231.9529
3313.5728
4541.4841
3317.1488
4512.0393
4474.6048
3286.0632
3312.0538
4361.0972
1370.3702
1363.2303
1572.7698
1581.9857
1334.4807
1333.4654
1534.9602
1533.9096
2038.496
1965.1238
2206.2362
2169.7562
1888.2768
1892.5165
2115.8434
2097.9349
4861.9937
3491.8172
4849.7029
3447.8074
4553.5496
3365.6045
4614.1949
3353.0763
3326.8388
4528.033
4475.0114
3322.5053
3225.6249
4352.4303
3226.5166
4238.1379
1977.5042
1955.9016
1365.9059
1369.3938
1578.0338
1576.4524
904.50855
905.03129
1172.6949
1181.0651
913.21652
913.76108
1193.1804
11724.079
16869.848
16671.196
10946.622
12958.064
18441.243
17116.83
11988.629
35980.049
22589.618
23238.852
37859.397
36728.207
23528.414
22665.319
35959.635
18634.34
14036.683
19072.562
12941.296
20315.985
14366.893
19962.094
15036.649
23908.102
24337.668
38208.738
38061.917
25056.235
39723.054
39051.606
24563.993
42803.808
42670.84
45459.255
46212.027
49423.599
48230.686
51032.891
52459.629
46103.553
48014.891
51008.788
48866.721
40721.291
41651.7
44903.799
43410.196
42926.357
39858.912
39062.223
42101.72
45140.947
45922.193
48776.929
48091.374
45922.595
45622.284
48677.223
48591.17
40649.198
39195.072
42391.351
43279.412
51512.739
51869.609
54927.624
54525.303
51221.707
51821.342
54835.739
54265.61
60926.522
57911.319
57450.94
60399.398
60999.181
58026.582
57574.319
60487.227
51893.574
54220.043
57291.113
54953.309
57110.227
54030.001
55677.153
58675.064
62942.345
60081.654
61775.485
64557.135
63436.136
60447.455
58045.408
60998.918
63864.991
66358.225
68965.17
66421.567
63282.731
63844.657
66416.777
65826.721
66371.093
63761.7
63421.395
66112.409
71042.793
68906.5
68847.772
71137.54
71214.165
69002.519
68318.763
70431.815
51523.601
51585.921
54658.488
54385.86
53159.695
52589.927
55688.181
56301.158
61977.676
58921.406
59556.758
62554.407
60748.479
57756.097
57241.378
59948.14
51010.207
51003.432
54051.187
54045.562
55359.617
52077.282
51433.117
54471.136
61618.102
58582.874
57638.132
60562.079
60333.49
57281.644
57246.218
60209.031
71134.254
69191.611
69010.09
71272.235
66825.114
64321.552
63569.902
66243.885
63162.193
63271.944
65921.137
65836.161
70926.574
68609.576
68556.194
70858.623
72849.608
70558.261
71235.576
73611.256
67795.093
65027.367
65627.803
68399.037
62514.475
63542.796
66064.286
64858.959
70705.92
68538.325
67092.718
69051.35
11199.635
16003.274
16117.684
11369.396
12332.546
17330.752
17479.807
12658.205
36067.117
22659.85
21810.502
35271.827
34747.859
21411.032
21452.545
34769.76
42487.193
39292.546
38762.405
42032.953
45195.966
45619.056
48731.657
48229.527
44583.694
44564.629
47705.892
47726.615
38055.635
38073.854
41322.474
41307.793
35567.29
21615.264
22217.096
36162.845
13271.857
17982.602
16757.692
11856.573
11552.509
16515.267
15760.847
10605.178
22167.754
35546.201
22152.276
36553.476
39486.118
38755.137
41991.302
42603.674
42830.012
39327.993
39813.466
43267.985
46646.294
46151.38
49293.778
49843.436
45595.52
45228.805
48332.892
48538.537
16576.253
11315.469