/*--------------------------------*- C++ -*----------------------------------*\
  =========                 |
  \\      /  F ield         | OpenFOAM: The Open Source CFD Toolbox
   \\    /   O peration     | Website:  https://openfoam.org
    \\  /    A nd           | Version:  7
     \\/     M anipulation  |
\*---------------------------------------------------------------------------*/
FoamFile
{
    version     2.0;
    format      ascii;
    class       volScalarField;
    location    "2000";
    object      p;
}
// * * * * * * * * * * * * * * * * * * * * * * * * * * * * * * * * * * * * * //

dimensions      [0 2 -2 0 0 0 0];

internalField   nonuniform List<scalar> 
34158
(
-1.4653829e+183
-1.4592314e+183
-1.4532589e+183
-1.4476052e+183
-1.4542733e+183
-1.4603641e+183
-1.4207782e+183
-1.415163e+183
-1.1915678e+183
-1.1965179e+183
-1.443075e+183
-1.4485491e+183
-1.4096899e+183
-1.4045448e+183
-1.4511325e+183
-1.4095381e+183
-1.4571468e+183
-1.4151133e+183
-1.3731843e+183
-1.3679199e+183
-1.285507e+183
-1.2904058e+183
-1.1834656e+183
-1.187397e+183
-1.0914878e+183
-1.1443833e+183
-1.1490109e+183
-1.0953785e+183
-1.1941283e+183
-1.2195239e+183
-1.2219489e+183
-1.1960241e+183
-1.1986768e+183
-1.2241948e+183
-1.119612e+183
-1.123899e+183
-1.3942179e+183
-1.3995234e+183
-1.4400772e+183
-1.3990942e+183
-1.4454666e+183
-1.404183e+183
-1.3629662e+183
-1.3581301e+183
-1.3662616e+183
-1.3711185e+183
-1.4507785e+183
-1.4075819e+183
-1.3630393e+183
-1.4567647e+183
-1.4131769e+183
-1.368324e+183
-1.3230528e+183
-1.3180229e+183
-1.2804406e+183
-1.2754522e+183
-1.2823088e+183
-1.2874761e+183
-1.2305009e+183
-1.2352081e+183
-1.0305171e+183
-1.1798379e+183
-1.1368968e+183
-1.0879288e+183
-1.0845693e+183
-1.1403588e+183
-1.186231e+183
-1.210887e+183
-1.2130937e+183
-1.1873142e+183
-1.1893935e+183
-1.2150972e+183
-1.2179652e+183
-1.1923209e+183
-1.080608e+183
-1.1658843e+183
-1.1673934e+183
-1.1286544e+183
-1.1294311e+183
-1.1317103e+183
-1.1701187e+183
-1.0844778e+183
-1.2039658e+183
-1.2040118e+183
-1.2174922e+183
-1.2179393e+183
-1.2285356e+183
-1.2279073e+183
-1.2385015e+183
-1.2309813e+183
-1.229574e+183
-1.2394964e+183
-1.2409025e+183
-1.2046821e+183
-1.2187647e+183
-1.2064021e+183
-1.2202764e+183
-1.2094551e+183
-1.207773e+183
-1.2214148e+183
-1.2229275e+183
-1.242048e+183
-1.2319926e+183
-1.2432725e+183
-1.2333225e+183
-1.1108268e+183
-1.1150971e+183
-1.1229324e+183
-1.1273902e+183
-1.1748687e+183
-1.1793068e+183
-1.3889887e+183
-1.3941241e+183
-1.3483237e+183
-1.353285e+183
-1.3614369e+183
-1.3563557e+183
-1.4397389e+183
-1.3971375e+183
-1.3532236e+183
-1.4451275e+183
-1.4022442e+183
-1.3580832e+183
-1.313293e+183
-1.308577e+183
-1.3163314e+183
-1.3641348e+183
-1.3614403e+183
-1.3210118e+183
-1.3691552e+183
-1.3663519e+183
-1.4507503e+183
-1.407273e+183
-1.3613402e+183
-1.313613e+183
-1.4567349e+183
-1.4128608e+183
-1.3666718e+183
-1.3187298e+183
-1.2705045e+183
-1.2656717e+183
-1.2719432e+183
-1.2770759e+183
-1.2256875e+183
-1.2209074e+183
-1.2811739e+183
-1.2281916e+183
-1.2864476e+183
-1.2331733e+183
-1.3686274e+183
-1.3713104e+183
-1.0246862e+183
-1.0242108e+183
-1.2374958e+183
-1.1334203e+183
-1.0814119e+183
-1.1819745e+183
-1.2064878e+183
-1.2093053e+183
-1.1848581e+183
-1.1583524e+183
-1.1214278e+183
-1.1216772e+183
-1.1589793e+183
-1.0770015e+183
-1.0735765e+183
-1.1609277e+183
-1.163909e+183
-1.1233187e+183
-1.1266795e+183
-1.2092043e+183
-1.1960278e+183
-1.1958649e+183
-1.2093422e+183
-1.2284827e+183
-1.2191151e+183
-1.2195085e+183
-1.2292828e+183
-1.2303451e+183
-1.2205121e+183
-1.2218595e+183
-1.2315501e+183
-1.1974269e+183
-1.1961126e+183
-1.2099323e+183
-1.2112596e+183
-1.2123803e+183
-1.1984251e+183
-1.1995736e+183
-1.2135834e+183
-1.2228152e+183
-1.2325174e+183
-1.224167e+183
-1.2340496e+183
-1.2274875e+183
-1.2258123e+183
-1.2354447e+183
-1.2012799e+183
-1.2152211e+183
-1.2171651e+183
-1.2034933e+183
-1.0769481e+183
-1.1265919e+183
-1.1272247e+183
-1.1867314e+183
-1.1863185e+183
-1.1621836e+183
-1.161163e+183
-1.1869761e+183
-1.1615867e+183
-1.1636609e+183
-1.1887508e+183
-1.1295166e+183
-1.1903162e+183
-1.1919104e+183
-1.1650998e+183
-1.1661007e+183
-1.0807972e+183
-1.2139451e+183
-1.2136651e+183
-1.2217149e+183
-1.2214099e+183
-1.2139426e+183
-1.2146755e+183
-1.2216024e+183
-1.2218857e+183
-1.2270406e+183
-1.231626e+183
-1.2316775e+183
-1.226909e+183
-1.2268286e+183
-1.2317207e+183
-1.2321741e+183
-1.2272041e+183
-1.236669e+183
-1.2361912e+183
-1.2402325e+183
-1.2407477e+183
-1.2360287e+183
-1.235864e+183
-1.2396454e+183
-1.2399631e+183
-1.2437178e+183
-1.2445941e+183
-1.2440569e+183
-1.2479742e+183
-1.2485652e+183
-1.2391097e+183
-1.238194e+183
-1.2422272e+183
-1.2431189e+183
-1.2376296e+183
-1.2370721e+183
-1.2411604e+183
-1.2416698e+183
-1.2489386e+183
-1.244977e+183
-1.2454351e+183
-1.2493591e+183
-1.2499539e+183
-1.2460156e+183
-1.246909e+183
-1.2508287e+183
-1.2147243e+183
-1.214233e+183
-1.222025e+183
-1.2226738e+183
-1.2275537e+183
-1.2325447e+183
-1.2331202e+183
-1.2281865e+183
-1.2235578e+183
-1.2156963e+183
-1.2170947e+183
-1.2245968e+183
-1.2298653e+183
-1.2289357e+183
-1.2337173e+183
-1.2346742e+183
-1.220266e+183
-1.2187822e+183
-1.2263644e+183
-1.2275104e+183
-1.217982e+183
-1.2176895e+183
-1.2251166e+183
-1.2256921e+183
-1.2352397e+183
-1.2304031e+183
-1.2309907e+183
-1.2357832e+183
-1.2326171e+183
-1.2316027e+183
-1.2363604e+183
-1.237287e+183
-1.2514538e+183
-1.2475232e+183
-1.2480765e+183
-1.2519559e+183
-1.2436598e+183
-1.2396449e+183
-1.2401868e+183
-1.2442336e+183
-1.2525153e+183
-1.24862e+183
-1.2493182e+183
-1.2531555e+183
-1.2447966e+183
-1.2407537e+183
-1.2416136e+183
-1.2455766e+183
-1.0302427e+183
-1.1023158e+183
-1.1064419e+183
-1.1139477e+183
-1.1184957e+183
-1.1656431e+183
-1.1701121e+183
-1.1262579e+183
-1.1742819e+183
-1.130868e+183
-1.1790121e+183
-1.3432692e+183
-1.338081e+183
-1.3870824e+183
-1.3434868e+183
-1.3921768e+183
-1.3484062e+183
-1.2990978e+183
-1.3038181e+183
-1.3115681e+183
-1.3568475e+183
-1.3592265e+183
-1.3066394e+183
-1.3546418e+183
-1.3517989e+183
-1.4397113e+183
-1.3968142e+183
-1.3514301e+183
-1.3040085e+183
-1.4450995e+183
-1.4019291e+183
-1.3563402e+183
-1.3087425e+183
-1.2609383e+183
-1.2562017e+183
-1.2629465e+183
-1.3143802e+183
-1.3120504e+183
-1.3378623e+183
-1.3403963e+183
-1.2676212e+183
-1.3166823e+183
-1.3189678e+183
-1.3452038e+183
-1.3426431e+183
-1.4072518e+183
-1.3611939e+183
-1.3120695e+183
-1.2617111e+183
-1.4128392e+183
-1.366534e+183
-1.3172666e+183
-1.2667115e+183
-1.2161606e+183
-1.2114841e+183
-1.2706674e+183
-1.2183483e+183
-1.2758682e+183
-1.223326e+183
-1.2810878e+183
-1.2273619e+183
-1.2863695e+183
-1.2324428e+183
-1.3502466e+183
-1.3530914e+183
-1.3641898e+183
-1.3663606e+183
-1.3453554e+183
-1.3669941e+183
-1.3683678e+183
-1.3803854e+183
-1.378928e+183
-1.3479614e+183
-1.3696493e+183
-1.3708707e+183
-1.3593296e+183
-1.361948e+183
-1.0838716e+183
-1.0799367e+183
-1.0183104e+183
-1.0185827e+183
-1.236602e+183
-1.244908e+183
-1.2413434e+183
-1.2453464e+183
-1.2417416e+183
-1.2422116e+183
-1.2427963e+183
-1.2351573e+183
-1.2339021e+183
-1.1538582e+183
-1.1568054e+183
-1.1163677e+183
-1.1197201e+183
-1.0703823e+183
-1.1893866e+183
-1.1924087e+183
-1.1909066e+183
-1.2036369e+183
-1.2052759e+183
-1.213521e+183
-1.2151097e+183
-1.2231986e+183
-1.2247347e+183
-1.2166964e+183
-1.2183527e+183
-1.2261289e+183
-1.2276383e+183
-1.1958192e+183
-1.1940728e+183
-1.2068762e+183
-1.208566e+183
-1.1546153e+183
-1.1789578e+183
-1.1783338e+183
-1.1533716e+183
-1.1189901e+183
-1.1192557e+183
-1.1785153e+183
-1.1798381e+183
-1.1534249e+183
-1.1550778e+183
-1.0732791e+183
-1.1211235e+183
-1.1245801e+183
-1.0697759e+183
-1.1809032e+183
-1.1818585e+183
-1.1561072e+183
-1.1565944e+183
-1.1859914e+183
-1.1582149e+183
-1.1835907e+183
-1.1612544e+183
-1.2228269e+183
-1.21858e+183
-1.2183324e+183
-1.2228408e+183
-1.2135153e+183
-1.2063747e+183
-1.2055981e+183
-1.213104e+183
-1.2053714e+183
-1.2052055e+183
-1.2128302e+183
-1.2129713e+183
-1.2228111e+183
-1.2181379e+183
-1.2183184e+183
-1.223129e+183
-1.2376337e+183
-1.2339152e+183
-1.2342567e+183
-1.2379913e+183
-1.2303222e+183
-1.226728e+183
-1.2268827e+183
-1.2306072e+183
-1.2275122e+183
-1.2270737e+183
-1.2308969e+183
-1.2314717e+183
-1.2384095e+183
-1.2346181e+183
-1.2352341e+183
-1.2390415e+183
-1.2394565e+183
-1.235696e+183
-1.2361068e+183
-1.2398341e+183
-1.2319105e+183
-1.2279024e+183
-1.2284257e+183
-1.2323989e+183
-1.2297651e+183
-1.2290079e+183
-1.2329181e+183
-1.2336012e+183
-1.2403501e+183
-1.2365826e+183
-1.2372739e+183
-1.2411066e+183
-1.2077682e+183
-1.2065493e+183
-1.2142684e+183
-1.2153252e+183
-1.2057636e+183
-1.2054998e+183
-1.2131029e+183
-1.2135986e+183
-1.2190377e+183
-1.2185167e+183
-1.2234413e+183
-1.2239659e+183
-1.2245746e+183
-1.2196792e+183
-1.2207008e+183
-1.2254565e+183
-1.2259768e+183
-1.2213381e+183
-1.2216752e+183
-1.2264439e+183
-1.2158819e+183
-1.2082219e+183
-1.2083037e+183
-1.2161997e+183
-1.2099933e+183
-1.2088232e+183
-1.2166559e+183
-1.2176986e+183
-1.2269968e+183
-1.2221125e+183
-1.2231179e+183
-1.2279907e+183
-1.2339944e+183
-1.2301551e+183
-1.2346137e+183
-1.2307137e+183
-1.2416411e+183
-1.2377494e+183
-1.2383848e+183
-1.2422732e+183
-1.2313828e+183
-1.2353305e+183
-1.2363673e+183
-1.2323929e+183
-1.2400959e+183
-1.2391102e+183
-1.243018e+183
-1.2355893e+183
-1.2348039e+183
-1.2392318e+183
-1.2384366e+183
-1.2340982e+183
-1.233223e+183
-1.2371032e+183
-1.2378192e+183
-1.2413556e+183
-1.2407238e+183
-1.212105e+183
-1.2109704e+183
-1.2186396e+183
-1.2198649e+183
-1.2251848e+183
-1.2288651e+183
-1.2240367e+183
-1.229866e+183
-1.2306717e+183
-1.2262347e+183
-1.2270184e+183
-1.2314799e+183
-1.2210052e+183
-1.213349e+183
-1.2146158e+183
-1.2218491e+183
-1.1252203e+183
-1.1256901e+183
-1.1254776e+183
-1.1259733e+183
-1.1654022e+183
-1.1641492e+183
-1.1645211e+183
-1.1665429e+183
-1.2046591e+183
-1.1895747e+183
-1.1879439e+183
-1.2035924e+183
-1.2031933e+183
-1.1873843e+183
-1.1880303e+183
-1.2035346e+183
-1.1882458e+183
-1.1883308e+183
-1.2038838e+183
-1.2041811e+183
-1.1913828e+183
-1.1891765e+183
-1.2051701e+183
-1.206827e+183
-1.1282122e+183
-1.1680679e+183
-1.1690045e+183
-1.2075289e+183
-1.1921665e+183
-1.1916767e+183
-1.2075549e+183
-1.2083316e+183
-1.1922584e+183
-1.1941808e+183
-1.2099958e+183
-1.1320488e+183
-1.1277601e+183
-1.1315707e+183
-1.2230733e+183
-1.2227957e+183
-1.2309045e+183
-1.230662e+183
-1.2232296e+183
-1.2241069e+183
-1.2309479e+183
-1.2314251e+183
-1.2356066e+183
-1.2388306e+183
-1.238887e+183
-1.2354017e+183
-1.2352857e+183
-1.2389383e+183
-1.2392422e+183
-1.2355379e+183
-1.242666e+183
-1.2423334e+183
-1.2454475e+183
-1.2458296e+183
-1.2421161e+183
-1.2418822e+183
-1.2446866e+183
-1.2451077e+183
-1.2481941e+183
-1.2490615e+183
-1.2486345e+183
-1.2518732e+183
-1.2523509e+183
-1.245031e+183
-1.244183e+183
-1.2472189e+183
-1.2480575e+183
-1.2435631e+183
-1.2430583e+183
-1.2461822e+183
-1.2465673e+183
-1.2526775e+183
-1.2493838e+183
-1.2497598e+183
-1.2530625e+183
-1.2536626e+183
-1.2503838e+183
-1.2511964e+183
-1.2544081e+183
-1.2239401e+183
-1.2234038e+183
-1.2312832e+183
-1.2319134e+183
-1.2358997e+183
-1.2396078e+183
-1.2401646e+183
-1.2365122e+183
-1.232914e+183
-1.2250083e+183
-1.2264097e+183
-1.2339307e+183
-1.2382231e+183
-1.2372932e+183
-1.2407998e+183
-1.2417032e+183
-1.2294356e+183
-1.2279501e+183
-1.2356669e+183
-1.2367704e+183
-1.2271764e+183
-1.2269367e+183
-1.2344909e+183
-1.23497e+183
-1.242377e+183
-1.2388553e+183
-1.2393912e+183
-1.2429268e+183
-1.2409502e+183
-1.2400334e+183
-1.2435287e+183
-1.2443418e+183
-1.2549665e+183
-1.2518442e+183
-1.2524979e+183
-1.2556017e+183
-1.2487345e+183
-1.2456719e+183
-1.2462735e+183
-1.2493641e+183
-1.25613e+183
-1.2530813e+183
-1.25366e+183
-1.2499589e+183
-1.246869e+183
-1.247596e+183
-1.2506002e+183
-1.0236745e+183
-1.0258787e+183
-1.0223244e+183
-1.057058e+183
-1.0609902e+183
-1.0876273e+183
-1.0937926e+183
-1.0978476e+183
-1.0916558e+183
-1.1054546e+183
-1.1096574e+183
-1.1565922e+183
-1.1609577e+183
-1.1172574e+183
-1.1648995e+183
-1.121887e+183
-1.1696735e+183
-1.1745387e+183
-1.126607e+183
-1.1312409e+183
-1.1794167e+183
-1.3334633e+183
-1.3385506e+183
-1.2943564e+183
-1.2896943e+183
-1.3018689e+183
-1.2972719e+183
-1.386783e+183
-1.3416529e+183
-1.2944226e+183
-1.3918539e+183
-1.3465933e+183
-1.2991391e+183
-1.2469501e+183
-1.2514547e+183
-1.2581918e+183
-1.3098934e+183
-1.3071338e+183
-1.333221e+183
-1.3356944e+183
-1.2535182e+183
-1.3020592e+183
-1.3281291e+183
-1.3309304e+183
-1.3047365e+183
-1.396792e+183
-1.351246e+183
-1.302373e+183
-1.2520375e+183
-1.4019072e+183
-1.356168e+183
-1.3071483e+183
-1.2567953e+183
-1.2068927e+183
-1.2021896e+183
-1.2063221e+183
-1.2869972e+183
-1.2588811e+183
-1.2612284e+183
-1.2892788e+183
-1.3242168e+183
-1.3218344e+183
-1.2109858e+183
-1.2915464e+183
-1.2633955e+183
-1.2658596e+183
-1.2937998e+183
-1.3265738e+183
-1.3290931e+183
-1.361187e+183
-1.3119822e+183
-1.2602593e+183
-1.2084566e+183
-1.3665278e+183
-1.317196e+183
-1.2653584e+183
-1.213394e+183
-1.2705855e+183
-1.217466e+183
-1.2757696e+183
-1.2225193e+183
-1.2810844e+183
-1.2271323e+183
-1.2863669e+183
-1.2322242e+183
-1.3508341e+183
-1.3493049e+183
-1.3608876e+183
-1.3623937e+183
-1.3736218e+183
-1.3727226e+183
-1.3712318e+183
-1.3719517e+183
-1.3523999e+183
-1.363983e+183
-1.3657475e+183
-1.3542187e+183
-1.3743508e+183
-1.3752024e+183
-1.3409693e+183
-1.3628145e+183
-1.363895e+183
-1.3756568e+183
-1.3745902e+183
-1.343146e+183
-1.3647846e+183
-1.3659249e+183
-1.377795e+183
-1.3766811e+183
-1.3561175e+183
-1.3446764e+183
-1.3459768e+183
-1.3574075e+183
-1.3662407e+183
-1.3720746e+183
-1.3727742e+183
-1.3668392e+183
-1.3675615e+183
-1.3735223e+183
-1.374347e+183
-1.3684087e+183
-1.3859669e+183
-1.3794234e+183
-1.3802542e+183
-1.377966e+183
-1.385199e+183
-1.3844935e+183
-1.378669e+183
-1.3472116e+183
-1.3483649e+183
-1.3598567e+183
-1.358665e+183
-1.3690089e+183
-1.3749366e+183
-1.3696499e+183
-1.3701958e+183
-1.3707788e+183
-1.3361212e+183
-1.3581838e+183
-1.3596086e+183
-1.3387476e+183
-1.3618019e+183
-1.3607301e+183
-1.3735316e+183
-1.3724489e+183
-1.1309937e+183
-1.1335004e+183
-1.1372313e+183
-1.1347913e+183
-1.0762165e+183
-1.1307704e+183
-1.1314951e+183
-1.1289849e+183
-1.1284544e+183
-1.0126489e+183
-1.0726471e+183
-1.2409082e+183
-1.2402009e+183
-1.2438502e+183
-1.2444976e+183
-1.2472068e+183
-1.2440828e+183
-1.2446447e+183
-1.245234e+183
-1.2457397e+183
-1.2427134e+183
-1.2389784e+183
-1.2395745e+183
-1.2432579e+183
-1.236911e+183
-1.2384321e+183
-1.2376246e+183
-1.2414362e+183
-1.2421803e+183
-1.063368e+183
-1.1720505e+183
-1.147374e+183
-1.1735593e+183
-1.1747832e+183
-1.1487226e+183
-1.1494189e+183
-1.1764709e+183
-1.1785225e+183
-1.1510095e+183
-1.1538592e+183
-1.113798e+183
-1.1171913e+183
-1.0664803e+183
-1.1994594e+183
-1.1979959e+183
-1.2053732e+183
-1.2065524e+183
-1.2115325e+183
-1.2160249e+183
-1.2024727e+183
-1.2012956e+183
-1.2084957e+183
-1.2096235e+183
-1.2005211e+183
-1.2002516e+183
-1.2071998e+183
-1.2078397e+183
-1.2127954e+183
-1.2120435e+183
-1.2165708e+183
-1.2172912e+183
-1.2179629e+183
-1.2133842e+183
-1.214557e+183
-1.2190618e+183
-1.2245983e+183
-1.2207767e+183
-1.2214985e+183
-1.225348e+183
-1.2232553e+183
-1.2222055e+183
-1.226069e+183
-1.2270876e+183
-1.2291018e+183
-1.2329783e+183
-1.2337033e+183
-1.2298231e+183
-1.2307719e+183
-1.2345839e+183
-1.2278474e+183
-1.2240597e+183
-1.2249208e+183
-1.2285739e+183
-1.2264841e+183
-1.2256735e+183
-1.2292847e+183
-1.2300231e+183
-1.2320973e+183
-1.2314362e+183
-1.2351606e+183
-1.2357751e+183
-1.2364283e+183
-1.232768e+183
-1.2335154e+183
-1.2371817e+183
-1.2064017e+183
-1.2054722e+183
-1.2124684e+183
-1.2133849e+183
-1.204343e+183
-1.2034944e+183
-1.2104952e+183
-1.211558e+183
-1.2198713e+183
-1.2153299e+183
-1.2164395e+183
-1.2208263e+183
-1.2215919e+183
-1.2172093e+183
-1.218261e+183
-1.2225165e+183
-1.1573674e+183
-1.1815527e+183
-1.1964747e+183
-1.1953621e+183
-1.179853e+183
-1.1797173e+183
-1.1792185e+183
-1.1948422e+183
-1.195053e+183
-1.1559624e+183
-1.11761e+183
-1.1178722e+183
-1.1560871e+183
-1.1577858e+183
-1.195209e+183
-1.1798068e+183
-1.1795145e+183
-1.1952826e+183
-1.1960752e+183
-1.1802565e+183
-1.1822441e+183
-1.1975125e+183
-1.1194806e+183
-1.1230971e+183
-1.1198282e+183
-1.1233871e+183
-1.1589956e+183
-1.1595732e+183
-1.1613859e+183
-1.1644825e+183
-1.1172694e+183
-1.1175886e+183
-1.1821027e+183
-1.1828154e+183
-1.1979987e+183
-1.197806e+183
-1.198281e+183
-1.1824312e+183
-1.1840245e+183
-1.1995723e+183
-1.2028738e+183
-1.1869259e+183
-1.1893026e+183
-1.2045164e+183
-1.185029e+183
-1.2006126e+183
-1.2015436e+183
-1.1855695e+183
-1.2296829e+183
-1.2267633e+183
-1.2265642e+183
-1.2297582e+183
-1.2227112e+183
-1.2155044e+183
-1.2145467e+183
-1.2221621e+183
-1.214184e+183
-1.2140317e+183
-1.2218014e+183
-1.2218886e+183
-1.2298595e+183
-1.2263736e+183
-1.2264852e+183
-1.2301e+183
-1.2409588e+183
-1.2379835e+183
-1.2384777e+183
-1.2414984e+183
-1.2351014e+183
-1.2324074e+183
-1.2327174e+183
-1.2355233e+183
-1.233437e+183
-1.2330278e+183
-1.2359557e+183
-1.236471e+183
-1.242083e+183
-1.2389905e+183
-1.2395263e+183
-1.2426057e+183
-1.2428865e+183
-1.2398836e+183
-1.240336e+183
-1.2433183e+183
-1.2369039e+183
-1.2338546e+183
-1.2343613e+183
-1.237343e+183
-1.2355109e+183
-1.2349076e+183
-1.2377512e+183
-1.2383489e+183
-1.2438773e+183
-1.2407663e+183
-1.241364e+183
-1.2445265e+183
-1.2169255e+183
-1.2155868e+183
-1.2234147e+183
-1.224484e+183
-1.2146649e+183
-1.2143346e+183
-1.2220943e+183
-1.2225783e+183
-1.2272734e+183
-1.2267507e+183
-1.2304453e+183
-1.2309719e+183
-1.2316301e+183
-1.2280113e+183
-1.2289137e+183
-1.2323605e+183
-1.2328107e+183
-1.2295207e+183
-1.2299387e+183
-1.2333592e+183
-1.2250844e+183
-1.2173887e+183
-1.2173773e+183
-1.2253325e+183
-1.2191865e+183
-1.2179081e+183
-1.2258576e+183
-1.2269222e+183
-1.2340802e+183
-1.2304898e+183
-1.2314424e+183
-1.235018e+183
-1.2387838e+183
-1.2358405e+183
-1.2395119e+183
-1.236529e+183
-1.2450999e+183
-1.2418672e+183
-1.2426035e+183
-1.245833e+183
-1.2373394e+183
-1.2403523e+183
-1.2412957e+183
-1.2383072e+183
-1.2443373e+183
-1.243465e+183
-1.2466794e+183
-1.241386e+183
-1.2405706e+183
-1.2439956e+183
-1.2431717e+183
-1.2399791e+183
-1.239152e+183
-1.2419392e+183
-1.2426532e+183
-1.2455214e+183
-1.244911e+183
-1.2214769e+183
-1.2203088e+183
-1.2280319e+183
-1.2292326e+183
-1.2336324e+183
-1.2359707e+183
-1.2324725e+183
-1.2369588e+183
-1.2377603e+183
-1.2346911e+183
-1.2355076e+183
-1.238526e+183
-1.2304755e+183
-1.2228939e+183
-1.2242448e+183
-1.231444e+183
-1.1626936e+183
-1.1636402e+183
-1.1640156e+183
-1.1628602e+183
-1.1647605e+183
-1.1629506e+183
-1.1631046e+183
-1.164969e+183
-1.1624329e+183
-1.163684e+183
-1.1655905e+183
-1.1642399e+183
-1.1646486e+183
-1.1627115e+183
-1.16457e+183
-1.1665603e+183
-1.1944201e+183
-1.1926294e+183
-1.1919745e+183
-1.1925018e+183
-1.1928453e+183
-1.192762e+183
-1.1937445e+183
-1.1959391e+183
-1.2121075e+183
-1.2107534e+183
-1.2102278e+183
-1.2105586e+183
-1.2109316e+183
-1.2111646e+183
-1.2122995e+183
-1.2140526e+183
-1.1661263e+183
-1.1668739e+183
-1.1681179e+183
-1.1689489e+183
-1.1967686e+183
-1.1962026e+183
-1.1967563e+183
-1.1986222e+183
-1.2147146e+183
-1.2145538e+183
-1.2153646e+183
-1.2170899e+183
-1.1710037e+183
-1.1687728e+183
-1.1659833e+183
-1.1667277e+183
-1.1670717e+183
-1.1663412e+183
-1.168452e+183
-1.1715521e+183
-1.1720654e+183
-1.1688527e+183
-1.2272391e+183
-1.2321463e+183
-1.232558e+183
-1.2277876e+183
-1.2272895e+183
-1.2320864e+183
-1.2320977e+183
-1.227117e+183
-1.2380469e+183
-1.2357482e+183
-1.236043e+183
-1.2382799e+183
-1.2378897e+183
-1.2356384e+183
-1.2356492e+183
-1.2378987e+183
-1.2324205e+183
-1.2279403e+183
-1.2327143e+183
-1.2275998e+183
-1.2332724e+183
-1.2294469e+183
-1.2336846e+183
-1.2285734e+183
-1.2361377e+183
-1.2358677e+183
-1.2381937e+183
-1.23801e+183
-1.2368356e+183
-1.2386454e+183
-1.238481e+183
-1.2365898e+183
-1.239826e+183
-1.2399082e+183
-1.2410367e+183
-1.2410496e+183
-1.2422094e+183
-1.2421088e+183
-1.2431777e+183
-1.2433468e+183
-1.2421759e+183
-1.2422001e+183
-1.2433912e+183
-1.2434365e+183
-1.2395246e+183
-1.2396672e+183
-1.2409659e+183
-1.2409045e+183
-1.2408412e+183
-1.2394475e+183
-1.2394822e+183
-1.2409236e+183
-1.2422634e+183
-1.2421613e+183
-1.2434675e+183
-1.2436041e+183
-1.2425664e+183
-1.2423732e+183
-1.2437252e+183
-1.2439238e+183
-1.2397743e+183
-1.2395831e+183
-1.2410124e+183
-1.2412166e+183
-1.2452479e+183
-1.2450591e+183
-1.2464295e+183
-1.2466154e+183
-1.2449301e+183
-1.2447745e+183
-1.2461127e+183
-1.2462929e+183
-1.2488305e+183
-1.2474333e+183
-1.247631e+183
-1.2490461e+183
-1.249206e+183
-1.2477812e+183
-1.2479557e+183
-1.2493765e+183
-1.2446825e+183
-1.2445928e+183
-1.2458231e+183
-1.2459771e+183
-1.2453962e+183
-1.2442774e+183
-1.244498e+183
-1.2456756e+183
-1.2477405e+183
-1.2465267e+183
-1.246861e+183
-1.2481283e+183
-1.248383e+183
-1.2470644e+183
-1.2472622e+183
-1.2486327e+183
-1.2499966e+183
-1.2497081e+183
-1.2511052e+183
-1.2514342e+183
-1.2507872e+183
-1.2506186e+183
-1.2521058e+183
-1.2522771e+183
-1.2516782e+183
-1.2502184e+183
-1.2504507e+183
-1.2519269e+183
-1.2546146e+183
-1.2531128e+183
-1.2533791e+183
-1.2548967e+183
-1.2550999e+183
-1.253569e+183
-1.2537483e+183
-1.2552878e+183
-1.2477194e+183
-1.2472803e+183
-1.2485773e+183
-1.2490039e+183
-1.2468531e+183
-1.2464009e+183
-1.2477015e+183
-1.2481585e+183
-1.2503337e+183
-1.2489758e+183
-1.2494369e+183
-1.2507882e+183
-1.2511915e+183
-1.2498454e+183
-1.2502627e+183
-1.2516074e+183
-1.2461069e+183
-1.2458364e+183
-1.2471251e+183
-1.2473784e+183
-1.2467773e+183
-1.2454198e+183
-1.245648e+183
-1.2469768e+183
-1.2495003e+183
-1.2480918e+183
-1.2482657e+183
-1.2496393e+183
-1.249741e+183
-1.2483804e+183
-1.2486292e+183
-1.2499848e+183
-1.2554049e+183
-1.2538623e+183
-1.2540029e+183
-1.2555477e+183
-1.2523861e+183
-1.2508994e+183
-1.2510345e+183
-1.2525205e+183
-1.2513937e+183
-1.2511447e+183
-1.2526457e+183
-1.2528974e+183
-1.255713e+183
-1.2541425e+183
-1.2544014e+183
-1.2559766e+183
-1.2562473e+183
-1.2546944e+183
-1.2550871e+183
-1.2565959e+183
-1.2532106e+183
-1.2517214e+183
-1.2521692e+183
-1.2536294e+183
-1.2529551e+183
-1.2525526e+183
-1.2539996e+183
-1.2543736e+183
-1.2569235e+183
-1.2554294e+183
-1.2557734e+183
-1.2572382e+183
-1.2280712e+183
-1.2331359e+183
-1.2337079e+183
-1.2286824e+183
-1.2279937e+183
-1.2327243e+183
-1.2329536e+183
-1.2278319e+183
-1.238436e+183
-1.2362059e+183
-1.2365465e+183
-1.2386954e+183
-1.2389235e+183
-1.236729e+183
-1.237247e+183
-1.2393231e+183
-1.2413457e+183
-1.2399149e+183
-1.2401648e+183
-1.2416028e+183
-1.2429591e+183
-1.2427113e+183
-1.2440786e+183
-1.2443194e+183
-1.2434733e+183
-1.2431701e+183
-1.2445211e+183
-1.2448062e+183
-1.2407573e+183
-1.2403998e+183
-1.2418122e+183
-1.2421477e+183
-1.2398003e+183
-1.2378027e+183
-1.2384188e+183
-1.2403017e+183
-1.2290964e+183
-1.2341447e+183
-1.2348999e+183
-1.2298504e+183
-1.2305867e+183
-1.2354078e+183
-1.2360712e+183
-1.2315429e+183
-1.2393541e+183
-1.2408773e+183
-1.2388441e+183
-1.241372e+183
-1.2426685e+183
-1.2421675e+183
-1.2434358e+183
-1.2439655e+183
-1.2424287e+183
-1.2411085e+183
-1.2416119e+183
-1.2429244e+183
-1.2442205e+183
-1.2437477e+183
-1.2450777e+183
-1.2455366e+183
-1.2451991e+183
-1.2446977e+183
-1.2459924e+183
-1.2464669e+183
-1.239046e+183
-1.2333774e+183
-1.234689e+183
-1.2381199e+183
-1.2320825e+183
-1.2326318e+183
-1.2370321e+183
-1.237523e+183
-1.2409735e+183
-1.2425925e+183
-1.2405511e+183
-1.2431116e+183
-1.2436264e+183
-1.241538e+183
-1.2421996e+183
-1.2441518e+183
-1.2314341e+183
-1.2363418e+183
-1.2367982e+183
-1.2318138e+183
-1.2317772e+183
-1.2314816e+183
-1.2362375e+183
-1.2362523e+183
-1.2416157e+183
-1.239537e+183
-1.2397197e+183
-1.2418365e+183
-1.2403082e+183
-1.2398876e+183
-1.2419509e+183
-1.2422682e+183
-1.245826e+183
-1.2455064e+183
-1.2467581e+183
-1.2470735e+183
-1.2442532e+183
-1.2429505e+183
-1.2432395e+183
-1.2445607e+183
-1.2447424e+183
-1.243394e+183
-1.2436515e+183
-1.2450118e+183
-1.2463098e+183
-1.2460398e+183
-1.2473106e+183
-1.247617e+183
-1.2454002e+183
-1.2449249e+183
-1.2461928e+183
-1.2466542e+183
-1.2444759e+183
-1.2439492e+183
-1.2452895e+183
-1.2457883e+183
-1.2470456e+183
-1.2465869e+183
-1.2479052e+183
-1.2483358e+183
-1.2478606e+183
-1.2474247e+183
-1.2486933e+183
-1.249093e+183
-1.2574149e+183
-1.2559785e+183
-1.2563068e+183
-1.2577077e+183
-1.2546209e+183
-1.2532396e+183
-1.2535967e+183
-1.254956e+183
-1.2543224e+183
-1.2539417e+183
-1.2553118e+183
-1.2556882e+183
-1.2580561e+183
-1.2566571e+183
-1.2570138e+183
-1.258384e+183
-1.2519158e+183
-1.2505687e+183
-1.2509204e+183
-1.2522659e+183
-1.2492952e+183
-1.248001e+183
-1.2483264e+183
-1.249628e+183
-1.2489252e+183
-1.248596e+183
-1.2499228e+183
-1.2502748e+183
-1.2525996e+183
-1.2512308e+183
-1.2515944e+183
-1.2529733e+183
-1.2585631e+183
-1.2572199e+183
-1.2575079e+183
-1.2588297e+183
-1.2559383e+183
-1.2545975e+183
-1.2549095e+183
-1.2562186e+183
-1.2553905e+183
-1.2551564e+183
-1.2564797e+183
-1.2567335e+183
-1.2532641e+183
-1.2518953e+183
-1.2522604e+183
-1.2535996e+183
-1.2496326e+183
-1.2492227e+183
-1.2505782e+183
-1.2509632e+183
-1.250328e+183
-1.2499656e+183
-1.2512708e+183
-1.2515846e+183
-1.2538601e+183
-1.25254e+183
-1.2528103e+183
-1.2540955e+183
-1.0179019e+183
-1.0503009e+183
-1.016093e+183
-1.019241e+183
-1.0536569e+183
-1.080205e+183
-1.0863129e+183
-1.089845e+183
-1.0838025e+183
-1.0295636e+183
-1.0260457e+183
-1.0603359e+183
-1.0969446e+183
-1.0642571e+183
-1.1011929e+183
-1.1473526e+183
-1.1474136e+183
-1.1518372e+183
-1.1517054e+183
-1.1087462e+183
-1.1556276e+183
-1.11302e+183
-1.1602489e+183
-1.117565e+183
-1.1651711e+183
-1.1700306e+183
-1.1222012e+183
-1.1745779e+183
-1.1266457e+183
-1.1312774e+183
-1.1794449e+183
-1.3317319e+183
-1.2850884e+183
-1.3367971e+183
-1.2896985e+183
-1.2424809e+183
-1.2382506e+183
-1.249112e+183
-1.2998169e+183
-1.2976055e+183
-1.322992e+183
-1.325665e+183
-1.2449583e+183
-1.2931485e+183
-1.3181471e+183
-1.3208058e+183
-1.295599e+183
-1.3867639e+183
-1.3414681e+183
-1.2926973e+183
-1.2425913e+183
-1.3918325e+183
-1.346384e+183
-1.2974367e+183
-1.2471227e+183
-1.1932614e+183
-1.1975848e+183
-1.2018003e+183
-1.2539664e+183
-1.2819878e+183
-1.2847851e+183
-1.2566544e+183
-1.3196832e+183
-1.3171249e+183
-1.1973959e+183
-1.249376e+183
-1.2517202e+183
-1.279652e+183
-1.2770934e+183
-1.3121983e+183
-1.3147615e+183
-1.3512369e+183
-1.3022597e+183
-1.2505688e+183
-1.1990273e+183
-1.3561598e+183
-1.3070552e+183
-1.2553633e+183
-1.2038076e+183
-1.2330741e+183
-1.2308274e+183
-1.2013534e+183
-1.1995024e+183
-1.2970562e+183
-1.2701592e+183
-1.2723138e+183
-1.2991391e+183
-1.3262559e+183
-1.3249335e+183
-1.3364147e+183
-1.3375694e+183
-1.3226153e+183
-1.3237112e+183
-1.3351712e+183
-1.3339198e+183
-1.2379471e+183
-1.2352476e+183
-1.2065483e+183
-1.2036432e+183
-1.3016063e+183
-1.274585e+183
-1.2771481e+183
-1.3039205e+183
-1.3286547e+183
-1.3272265e+183
-1.3385106e+183
-1.3399976e+183
-1.3300727e+183
-1.3316892e+183
-1.3433005e+183
-1.3415141e+183
-1.311979e+183
-1.2601463e+183
-1.2074171e+183
-1.3171944e+183
-1.2652737e+183
-1.2124646e+183
-1.2705817e+183
-1.2173203e+183
-1.2757651e+183
-1.222335e+183
-1.2271251e+183
-1.2322179e+183
-1.3502978e+183
-1.3558786e+183
-1.3567973e+183
-1.3512308e+183
-1.3544718e+183
-1.3489248e+183
-1.3495352e+183
-1.3551074e+183
-1.3605102e+183
-1.3598258e+183
-1.3656835e+183
-1.3663803e+183
-1.3612623e+183
-1.3621673e+183
-1.3680512e+183
-1.3671487e+183
-1.3761749e+183
-1.3757555e+183
-1.3727399e+183
-1.3732167e+183
-1.3753626e+183
-1.3748961e+183
-1.3718803e+183
-1.3723394e+183
-1.3703735e+183
-1.3707026e+183
-1.3736953e+183
-1.3733314e+183
-1.3710555e+183
-1.3745184e+183
-1.3740709e+183
-1.3715093e+183
-1.3520087e+183
-1.3529568e+183
-1.3584744e+183
-1.357557e+183
-1.3688259e+183
-1.3629286e+183
-1.3638455e+183
-1.3697056e+183
-1.3705724e+183
-1.3647391e+183
-1.3538816e+183
-1.3548473e+183
-1.3603222e+183
-1.3593993e+183
-1.3739343e+183
-1.3735437e+183
-1.3764616e+183
-1.3768776e+183
-1.3743395e+183
-1.3772885e+183
-1.3777389e+183
-1.3748311e+183
-1.3404618e+183
-1.3519416e+183
-1.3530372e+183
-1.3415488e+183
-1.3622648e+183
-1.3680339e+183
-1.368602e+183
-1.3628131e+183
-1.3637511e+183
-1.3632657e+183
-1.3690385e+183
-1.3695141e+183
-1.3753333e+183
-1.374774e+183
-1.3817937e+183
-1.3811753e+183
-1.3806812e+183
-1.3801943e+183
-1.3738027e+183
-1.3743279e+183
-1.3423471e+183
-1.3538576e+183
-1.3550216e+183
-1.3435851e+183
-1.3641757e+183
-1.3699975e+183
-1.3705951e+183
-1.3647287e+183
-1.3652256e+183
-1.3710792e+183
-1.371641e+183
-1.36582e+183
-1.377476e+183
-1.3768899e+183
-1.3833443e+183
-1.3839618e+183
-1.3758442e+183
-1.3828201e+183
-1.3823027e+183
-1.3763957e+183
-1.3551969e+183
-1.3557587e+183
-1.3614169e+183
-1.3608705e+183
-1.3504728e+183
-1.3498613e+183
-1.3443737e+183
-1.344979e+183
-1.3455912e+183
-1.3510699e+183
-1.3518389e+183
-1.3463594e+183
-1.3563493e+183
-1.3571239e+183
-1.36291e+183
-1.3620958e+183
-1.3654295e+183
-1.3656663e+183
-1.3685551e+183
-1.3682951e+183
-1.3714709e+183
-1.3749486e+183
-1.3752712e+183
-1.3717531e+183
-1.3756065e+183
-1.3720699e+183
-1.3759878e+183
-1.3724574e+183
-1.3659215e+183
-1.3688425e+183
-1.3692089e+183
-1.3662811e+183
-1.3666332e+183
-1.3671012e+183
-1.3700541e+183
-1.369565e+183
-1.3728123e+183
-1.3763649e+183
-1.3768456e+183
-1.3732949e+183
-1.3772545e+183
-1.3737169e+183
-1.3741046e+183
-1.3775884e+183
-1.3675068e+183
-1.3704812e+183
-1.3708902e+183
-1.367936e+183
-1.3887843e+183
-1.3858681e+183
-1.3854303e+183
-1.3891619e+183
-1.3823226e+183
-1.3792713e+183
-1.3797494e+183
-1.3827935e+183
-1.3801287e+183
-1.3831669e+183
-1.3835121e+183
-1.3804722e+183
-1.3808789e+183
-1.3778462e+183
-1.378183e+183
-1.3812326e+183
-1.3846525e+183
-1.3879984e+183
-1.3884318e+183
-1.385065e+183
-1.3839771e+183
-1.384323e+183
-1.3876485e+183
-1.3873109e+183
-1.3785048e+183
-1.3815579e+183
-1.3819361e+183
-1.3788823e+183
-1.3469375e+183
-1.352398e+183
-1.3530156e+183
-1.3475015e+183
-1.3479788e+183
-1.3535237e+183
-1.3540748e+183
-1.3485334e+183
-1.3588378e+183