/*--------------------------------*- C++ -*----------------------------------*\
  =========                 |
  \\      /  F ield         | OpenFOAM: The Open Source CFD Toolbox
   \\    /   O peration     | Website:  https://openfoam.org
    \\  /    A nd           | Version:  7
     \\/     M anipulation  |
\*---------------------------------------------------------------------------*/
FoamFile
{
    version     2.0;
    format      ascii;
    class       surfaceScalarField;
    location    "2000";
    object      phi;
}
// * * * * * * * * * * * * * * * * * * * * * * * * * * * * * * * * * * * * * //

dimensions      [0 3 -1 0 0 0 0];

internalField   nonuniform List<scalar> 
101481
(
1.8428309e+87
5.2240485e+86
-1.1554895e+88
2.0953603e+87
8.7412883e+86
-1.1703794e+88
1.9520188e+87
6.6293323e+86
-1.1901524e+88
9.930535e+86
-1.2193243e+88
-2.4551259e+87
2.7789003e+87
4.0439722e+86
-1.0381221e+88
4.2495077e+86
-9.962272e+87
1.8866169e+87
-1.0061787e+86
-1.1818227e+88
1.9280704e+87
-5.9672501e+85
-1.1985757e+88
-1.1733841e+87
1.531036e+87
-1.2867109e+88
-4.3192019e+86
7.2267543e+86
5.9735801e+86
-6.2929386e+86
-1.3158257e+88
-4.6375356e+86
7.0977598e+86
-2.4932334e+87
4.2595162e+86
-1.095146e+88
4.5343128e+86
-1.0446762e+88
1.9666761e+87
1.1030684e+85
-1.2223076e+88
1.9564192e+87
9.6444638e+84
-1.2488033e+88
-2.1633915e+87
2.1959783e+87
4.67994e+86
-7.9784067e+87
-2.048861e+87
2.0686039e+87
3.6035512e+86
-1.0820989e+88
4.9855962e+86
-7.6357504e+87
3.6761449e+86
-1.0426327e+88
1.8043931e+87
-3.5893459e+85
-1.1933051e+88
1.8713873e+87
1.1491598e+84
-1.2173029e+88
-1.6271491e+87
1.6276717e+87
-1.5191554e+86
-1.1783545e+88
-1.5538731e+86
-1.1705232e+88
-1.1762618e+87
1.3533953e+87
-1.331566e+88
-5.1351335e+86
7.3070147e+86
6.0520179e+86
-6.7263687e+86
-1.2992654e+88
-4.8229465e+86
7.041532e+86
5.6961294e+86
-6.3092648e+86
1.0224688e+88
-1.3808709e+87
-1.1670967e+88
1.8421125e+87
-1.0908834e+87
-1.1812425e+87
1.5013999e+87
9.2953911e+86
7.5478438e+86
-2.4342441e+86
-4.437898e+86
-1.0385069e+88
-2.8833517e+86
9.4263906e+86
-1.1187857e+88
-1.1721606e+87
2.3567341e+87
-2.8841105e+86
3.6529224e+86
-2.8487545e+87
-1.7248707e+86
-1.3258337e+86
1.5519258e+86
1.3309802e+86
-1.9159497e+86
2.7800157e+86
-2.2250463e+86
-1.9628773e+86
1.1412155e+86
-2.3928593e+87
-2.7551128e+86
-2.2320466e+86
-2.05006e+86
1.3319925e+86
1.0992282e+86
-3.6530393e+86
-2.9052548e+87
-1.4168373e+86
1.5202521e+86
-1.7275742e+86
1.2241121e+86
2.3497514e+87
-2.8898022e+87
-1.7385404e+86
-1.3172454e+86
1.5353583e+86
1.2811553e+86
1.2722602e+86
-1.9716999e+86
1.1155637e+86
-2.2594011e+86
-1.5036492e+87
1.5743736e+87
-3.4643702e+86
1.1406111e+88
-6.2176028e+86
1.1413205e+88
-1.861299e+87
1.2112085e+85
-1.3229685e+88
4.1168993e+85
-1.2786167e+88
-2.1746901e+87
4.9961633e+86
-8.4517573e+87
-2.0696164e+87
2.028196e+87
3.8817132e+86
-1.1288564e+88
5.0533534e+86
-8.0349523e+87
4.0448523e+86
-1.0841228e+88
1.8745376e+87
6.6725132e+85
4.7114509e+85
-1.2340063e+88
4.8874791e+85
1.8421855e+87
5.6719901e+85
-1.2561275e+88
-1.2048104e+87
1.198437e+87
-1.3225366e+88
-7.89416e+86
-6.2624523e+86
-1.3082579e+88
-7.7147855e+86
-6.1118567e+86
-1.7925098e+86
1.7773085e+86
4.4126909e+86
-6.0207192e+86
-1.8871224e+87
1.9002438e+87
4.4992821e+86
-8.0810996e+87
-1.7818357e+87
1.8263133e+87
2.9850685e+86
-1.1162822e+88
4.6945838e+86
-5.7328339e+86
4.836775e+86
-7.7173422e+87
3.028991e+86
-1.0745086e+88
1.7459563e+87
6.0530648e+85
-1.1933178e+88
1.7970783e+87
8.4176185e+85
-1.2192595e+88
1.6924016e+87
-1.4767386e+86
-1.1676852e+88
1.7130433e+87
-7.3383369e+85
-1.1787522e+88
-1.3049693e+87
1.3507678e+87
2.0008142e+86
-1.1465793e+88
1.7895788e+86
-1.1310375e+88
-1.6191843e+87
-1.1701111e+88
1.6407526e+87
-5.9461104e+86
-1.162295e+88
-6.2130925e+86
1.0459787e+88
9.7324583e+87
-2.6791525e+87
4.4388265e+87
-1.3615817e+88
-5.8605318e+86
7.0455555e+86
5.8277332e+86
-7.0166137e+86
-1.0418386e+88
-1.2795925e+87
1.4159232e+87
9.2915085e+86
-2.6804531e+86
-4.640769e+86
7.5672808e+86
1.3367658e+87
1.0407495e+88
-1.1408719e+88
-1.1398746e+87
-1.1873827e+88
1.7279762e+87
-1.0793414e+87
9.3252089e+86
7.3482904e+86
-3.0761043e+86
-4.2736253e+86
2.4706675e+87
-2.6784245e+86
3.1537611e+86
-2.9907677e+87
1.5212924e+86
-1.4677301e+86
-1.84055e+86
1.3775204e+86
-1.6168162e+86
2.339563e+86
1.3123492e+86
-2.028766e+86
-2.2839842e+86
1.1887056e+86
-2.4542599e+87
-2.3355709e+86
1.3386501e+86
-2.1562702e+86
-2.265295e+86
1.1390426e+86
-3.3524633e+86
-3.0016131e+87
-1.7963998e+86
-1.525372e+86
1.4938195e+86
1.2491584e+86
2.4129406e+87
-2.6424345e+86
-2.9311838e+87
1.5651695e+86
-1.4213116e+86
-1.8002571e+86
1.3058594e+86
-1.6566635e+86
-2.0431237e+86
1.2625123e+86
-2.2884523e+86
1.1283414e+86
-2.3759435e+87
-2.1938043e+86
-2.0794455e+86
1.3155546e+86
-2.865405e+87
-1.4454041e+86
1.5098352e+86
1.2665838e+86
-1.7351751e+86
2.4937176e+87
2.4232096e+87
-1.5968734e+87
1.9164035e+87
-4.0658463e+86
2.3572778e+87
2.1817576e+87
-3.6479464e+86
-2.1839465e+87
4.3973796e+86
1.994696e+86
1.6100806e+86
-6.1230514e+85
-1.0945829e+86
-2.2568573e+87
-4.2820118e+86
1.9913654e+86
-7.590254e+85
-1.066877e+86
1.5324792e+86
-3.881136e+86
5.411715e+86
-8.6710288e+85
-5.6143074e+86
-1.0411994e+86
2.2314586e+87
-2.5691764e+87
-1.0079946e+86
1.9711445e+86
1.604459e+86
-6.5784537e+85
-1.1019624e+86
2.3930673e+87
-4.4171821e+86
5.5648801e+85
5.7284127e+86
-6.7439309e+85
-7.0270066e+86
-4.7507572e+85
-4.2895174e+85
2.7205904e+85
3.2359903e+85
5.6180513e+86
7.3443352e+85
-6.8528564e+86
-4.7635334e+85
-4.0233748e+85
2.850889e+85
3.2462891e+85
-3.3677359e+85
7.4110967e+86
5.0075067e+85
-4.7112117e+85
2.9199028e+85
2.8469168e+85
-5.1065687e+85
7.5719209e+86
-4.017941e+85
-4.999481e+85
2.9342398e+85
2.6929079e+85
-5.1027299e+85
1.9928374e+85
5.8769024e+86
-2.2412551e+85
-5.0419805e+85
-5.1444213e+85
2.6323073e+85
2.5022398e+85
3.1282942e+85
-5.0040073e+85
-4.8439253e+85
2.6636464e+85
2.6935292e+85
-1.6867931e+85
-4.9071461e+85
-4.9453716e+85
2.6161194e+85
2.4331188e+85
2.0647586e+85
5.836451e+86
-7.4260175e+86
-3.325085e+85
-5.1660939e+85
-5.1737678e+85
2.7218254e+85
2.4535793e+85
5.9294672e+86
-7.5615064e+86
-5.0983043e+85
-4.9369215e+85
2.7501963e+85
2.9283343e+85
-1.4298363e+85
2.7193488e+85
-4.7243233e+85
-4.8914313e+85
2.6975306e+85
-2.2093242e+85
2.6824997e+85
-4.9425841e+85
-4.9362128e+85
2.4084393e+85
5.6989842e+86
-5.3429133e+85
-6.9673436e+86
-4.8314934e+85
-4.1250874e+85
3.1988774e+85
2.8719324e+85
-3.1594452e+85
-4.8256978e+85
2.9035217e+85
2.8249688e+85
-5.1839824e+85
5.5951472e+86
-7.3162007e+85
-6.8272819e+86
3.2629388e+85
-4.2003503e+85
-4.7033049e+85
2.6596252e+85
-4.7277993e+85
-5.1250656e+85
-4.9309145e+85
2.9678913e+85
2.588876e+85
5.5959189e+85
5.6377926e+86
-6.9550418e+86
-4.7492477e+85
-4.2039642e+85
3.2175106e+85
2.6166335e+85
5.5991563e+86
-6.8166835e+86
-4.7890963e+85
-3.9923961e+85
3.2490553e+85
2.8149866e+85
-3.3685195e+85
7.4117859e+86
2.9457214e+85
-4.7006501e+85
-5.1532288e+85
2.7761841e+85
7.4963856e+86
-5.1330366e+85
-4.9158841e+85
2.9380016e+85
2.5791072e+85
-5.807568e+86
-1.7775335e+85
2.9189995e+85
-4.5386228e+85
-4.9821315e+85
2.6088469e+85
-2.4012086e+85
2.7454549e+85
-4.7746831e+85
-5.1593839e+85
2.5899285e+85
-5.8588484e+86
2.9040917e+85
-4.8714979e+85
-5.0234756e+85
2.3871193e+85
2.6618255e+85
-5.1005187e+85
-5.1755502e+85
2.3651778e+85
-1.5092262e+87
1.5971305e+87
-4.2949986e+86
1.1452233e+88
-6.4576399e+86
1.14425e+88
-8.8021911e+86
9.3723053e+86
-1.547141e+86
1.2635614e+88
-2.6175669e+86
1.2226558e+88
-1.5639587e+87
1.5216657e+87
-1.0053631e+87
-1.0606477e+87
-1.937356e+87
3.4902123e+86
-1.1904744e+88
4.0358832e+86
-1.141472e+88
-1.7730947e+87
6.0107257e+84
1.6949726e+87
7.2573968e+85
-1.3230155e+88
2.0401475e+85
8.3275307e+85
-1.2820751e+88
1.1540934e+87
-1.3271447e+88
-6.3727988e+86
-7.9873805e+86
-1.3417979e+88
-7.7496362e+86
-6.4145619e+86
-1.7242347e+86
4.7076852e+86
-6.3102701e+86
-1.887074e+87
1.841394e+87
4.5577012e+86
-8.4736743e+87
-1.8082691e+87
1.7650209e+87
3.1043868e+86
-1.1499033e+88
4.7129032e+86
-6.0418642e+86
4.7266452e+86
-8.0899613e+87
3.221871e+86
-1.1098255e+88
1.7720407e+87
-1.7868497e+86
1.088436e+86
-1.2245183e+88
-2.074568e+86
1.7206697e+87
1.3600867e+86
-1.2438458e+88
-1.2064328e+87
1.1702502e+87
-1.2988623e+88
-9.3341235e+86
-7.6199582e+86
7.32854e+86
5.5453641e+86
2.1637826e+86
-2.928923e+86
3.0831855e+85
-3.3982835e+87
7.640922e+85
2.7795416e+86
-3.4498593e+87
-1.2858868e+88
-7.4677686e+86
-9.2132746e+86
5.4810199e+86
7.2787973e+86
2.2251934e+86
-3.3470262e+87
-3.3996956e+87
-1.4208417e+86
1.4107365e+86
-5.9283111e+86
-1.613137e+86
1.5994614e+86
4.3064809e+86
-5.8142175e+86
-1.625678e+87
1.6531221e+87
4.5490553e+86
-8.2649413e+87
-1.5767383e+87
1.5995733e+87
3.0830744e+86
-1.1409787e+88
-5.7934962e+86
4.6209357e+86
-5.4761648e+86
4.9255723e+86
-7.8628967e+87
3.2447915e+86
-1.102199e+88
1.7435615e+87
-9.7808209e+85
-1.1843786e+88
1.7614867e+87
-7.3579078e+85
-1.2054072e+88
-1.4287643e+87
1.4133751e+87
2.3809869e+86
-1.1321765e+88
1.9043544e+86
-1.1260431e+88
1.6924043e+87
-1.1603843e+88
-5.9249077e+86
-1.1711596e+88
1.7178348e+87
-5.1809916e+86
-1.196202e+87
1.2410494e+87
4.4807321e+86
-8.3346828e+87
-1.2158534e+87
-1.200079e+88
1.2867452e+87
-1.3050264e+86
4.1817912e+86
-8.1073772e+87
-1.1706904e+88
-1.8612538e+86
-1.1304401e+86
1.2782101e+86
-3.004419e+87
-1.0725138e+86
-1.3065505e+86
1.7968983e+86
2.030664e+86
-2.9548649e+87
-1.1406173e+86
-1.3447954e+86
1.0385579e+88
9.6129524e+87
3.6420379e+87
1.0284717e+88
1.1020854e+88
4.28035e+87
9.9533531e+87
1.0669746e+88
-2.6833234e+87
4.2397663e+87
-7.5765251e+86
7.525888e+84
2.8805974e+85
-4.2653906e+85
2.8129188e+85
-4.6291479e+85
-1.069533e+88
9.2784304e+86
7.5523778e+86
-3.4265943e+86
-4.470944e+86
-1.1701584e+88
-1.1415798e+87
2.534812e+87
-2.1471731e+86
-3.0977479e+87
-1.9340702e+86
-1.6166682e+86
1.4959224e+86
1.3293756e+86
-1.4499511e+86
-2.1796976e+86
-2.3757012e+86
1.245465e+86
1.15381e+86
-2.4900719e+87
-2.1950532e+86
-2.2925342e+86
1.3272827e+86
1.1398753e+86
-3.0170021e+87
-1.8573667e+86
-1.633035e+86
1.5050902e+86
1.2445858e+86
-2.2755049e+87
-3.5189098e+86
4.0047876e+86
-7.2594687e+85
1.9458059e+86
1.6145875e+86
-1.1814414e+86
-3.7149662e+86
-2.573678e+87
5.019686e+86
-1.0034416e+86
2.3215617e+87
-2.4992138e+87
-5.4803386e+86
-1.0988714e+86
-4.257318e+86
1.9637077e+86
1.5363421e+86
-8.5654705e+85
-1.1383249e+86
1.5351627e+87
2.6134107e+87
2.3822056e+87
-4.1654413e+86
2.438784e+87
2.1768641e+87
1.796677e+87
2.4183384e+87
2.250593e+87
-4.1293578e+86
-3.3758405e+86
-2.2491268e+87
1.9461034e+86
1.5643373e+86
-7.2343193e+85
-1.1638435e+86
-2.2055043e+87
1.5434829e+86
-7.462656e+85
1.9883991e+86
-1.0147917e+86
-3.9732073e+86
-9.4039304e+85
-1.0681026e+86
-5.7321866e+86
-2.95013e+85
7.582298e+86
3.6300305e+85
3.1116968e+85
-4.8192768e+85
-5.2207463e+85
2.9602328e+85
-4.8743272e+85
6.4344944e+85
-7.0296892e+86
3.1171404e+85
-4.2733401e+85
-4.9548164e+85
2.8485769e+85
5.9459845e+86
-6.2071679e+85
-7.2820473e+86
-4.9416447e+85
-4.5772196e+85
3.0832212e+85
2.7236141e+85
7.8257459e+86
-3.274192e+85
2.9221344e+85
-5.1771041e+85
-5.1902984e+85
2.7469226e+85
-5.9471544e+86
-6.3108758e+84
1.1945699e+85
2.9106379e+85
-4.5912948e+85
-4.8452678e+85
2.7922238e+85
-1.5198161e+85
1.9975313e+85
2.7649423e+85
-4.8057767e+85
-5.1069848e+85
2.733876e+85
6.0095288e+86
-1.1769759e+85
-5.0775494e+85
-5.173424e+85
2.6675666e+85
2.5628949e+85
-5.1484942e+84
2.6208977e+85
-4.9873172e+85
-4.8762412e+85
2.495985e+85
-6.0499308e+86
-7.6934114e+84
2.9363263e+85
-4.629978e+85
-4.9614065e+85
2.8846888e+85
-1.2397364e+85
-7.7069462e+86
2.6881707e+85
-5.0936609e+85
-5.25166e+85
2.7273671e+85
5.9517698e+86
-7.6075522e+86
-2.2291236e+85
-5.1916058e+85
-5.2308536e+85
2.8161864e+85
2.5005403e+85
-1.378084e+85
2.6750863e+85
-4.9880629e+85
-4.9272996e+85
2.4744155e+85
4.7514537e+85
5.7620698e+86
-6.5545353e+85
-7.0260675e+86
-4.8806819e+85
-4.4781952e+85
3.1674609e+85
2.6704887e+85
5.8216377e+86
-7.1481632e+86
-5.0247959e+85
-4.3869226e+85
3.1392236e+85
2.8283247e+85
-2.403407e+85
-5.337088e+85
-5.0569701e+85
2.8065025e+85
2.8018824e+85
-3.4938309e+85
2.8754911e+85
-5.184038e+85
-5.2010099e+85
2.6367465e+85
-5.7748127e+86
-2.8492415e+85
7.6692291e+86
3.1564994e+85
-4.8052067e+85
-5.2475744e+85
2.9592335e+85
-5.1798828e+85
-7.0188287e+86
3.2054252e+85
-4.2409706e+85
-4.9673318e+85
2.8552795e+85
5.7877282e+86
-6.5453435e+85
-7.1075557e+86
-4.8967468e+85
-4.4426245e+85
3.2108753e+85
2.6896639e+85
7.6443947e+86
-3.5630026e+85
2.9065052e+85
-5.1267189e+85
-5.2186954e+85
2.6446016e+85
6.0000423e+86
-1.5263958e+85
2.7991239e+85
-4.8308203e+85
2.7507242e+85
-5.1611198e+85
-6.2813966e+84
2.720964e+85
-4.6685744e+85
-4.8799969e+85
2.7230588e+85
5.9438317e+86
-2.0827738e+85
-5.2020708e+85
2.6424933e+85
2.4428644e+85
-5.2058023e+85
-1.3883592e+85
-4.9745055e+85
-5.0401342e+85
2.6088169e+85
1.6939858e+85
-7.5449367e+86
-5.1262782e+85
-5.0145272e+85
2.605825e+85
2.9214447e+85
5.9488521e+86
-7.5978461e+86
-5.2809837e+85
-4.9513362e+85
2.8833032e+85
2.6557138e+85
-5.0049688e+85
-4.7408478e+85
5.7144724e+86
-5.0873952e+85
-6.9982549e+86
-4.9252931e+85
-4.2086698e+85
3.1716603e+85
2.8881403e+85
-2.7239093e+85
-5.2867676e+85
2.8733016e+85
-4.9200193e+85
2.7590055e+85
-5.6320349e+86
3.1858601e+85
-4.9348225e+85
-5.1383759e+85
2.7077539e+85
-6.8240944e+86
3.3045808e+85
-4.2645171e+85
-4.7810258e+85
2.566746e+85
-1.6225343e+87
5.8838856e+86
1.9341593e+87
2.447334e+87
2.2608448e+87
2.2819223e+87
2.0888827e+87
-4.5814164e+86
5.9149706e+86
5.7485123e+86
5.3799265e+86
-6.1747794e+85
5.6336736e+86
5.2274978e+86
6.1053314e+86
5.5748758e+86
-5.590732e+86
-7.1481139e+85
5.7194137e+86
5.1008967e+86
-8.130082e+85
-5.1185676e+86
9.8720089e+85
3.750262e+85
-2.4289055e+85
-3.4741571e+85
3.0149603e+85
-5.2908045e+86
-9.7967293e+85
3.7503344e+85
-2.8225828e+85
-3.4059231e+85
2.8836276e+85
-8.5928273e+85
1.2514313e+86
-2.0804914e+85
-1.259751e+86
-2.3640535e+85
-5.2239569e+86
-7.6785457e+85
-3.5893153e+85
-2.6217579e+85
3.6627548e+85
2.9099384e+85
-9.1641539e+85
-2.2098541e+85
5.1408217e+86
-1.299121e+86
-2.5011551e+85
-9.7930547e+85
-3.2890694e+85
-2.7296102e+85
3.7582435e+85
2.8351433e+85
5.9103617e+86
5.7238479e+86
-7.152496e+85
5.5921699e+86
5.1541011e+86
-7.7703828e+85
-5.1120639e+86
3.7140928e+85
-2.4510328e+85
-3.5291786e+85
2.9087077e+85
-5.2837365e+86
3.7531224e+85
-2.7671831e+85
-3.3930003e+85
2.8509499e+85
-9.3294679e+85
-2.257209e+85
-2.5215948e+85
5.9482546e+86
2.2986456e+87
2.0379947e+87
2.4658592e+87
2.2001161e+87
9.9414677e+84
1.4374409e+86
-1.2963106e+85
-1.7186653e+86
-1.6363452e+85
1.4602981e+86
1.2420211e+85
-1.7501444e+86
-1.638926e+85
5.2907335e+84
1.8547242e+86
-7.2891243e+84
-1.2524004e+85
7.2783542e+84
1.8880208e+86
-1.2399982e+85
1.1010279e+85
1.4478951e+86
-1.7442812e+86
-1.6586786e+85
1.425379e+86
1.4639102e+85
-1.7006774e+86
-1.6332747e+85
6.3871789e+84
1.8704866e+86
-1.2859084e+85
1.8406171e+86
9.4443905e+84
-1.2118146e+85
1.4698251e+86
-2.9457927e+84
5.130999e+84
-1.2218137e+85
-5.6587343e+83
1.8410741e+86
2.1074831e+84
-9.467469e+84
-1.4905051e+86
-8.6879665e+83
1.8790355e+86
-1.0080942e+85
-3.0030746e+84
-1.3010242e+85
1.5012176e+86
-1.8560783e+84
-1.2461474e+85
-4.9638292e+83
1.8881126e+86
-9.7195108e+84
-1.4855929e+86
1.8630987e+86
-1.3551135e+84
-9.9627615e+84
-3.3971953e+84
-1.2573029e+85
-1.1266126e+84
1.4598922e+86
3.3454183e+83
-9.3070833e+84
1.4708328e+86
-1.1652227e+84
-9.6776203e+84
8.6528341e+83
-1.3771232e+84
1.818529e+86
-7.9347022e+84
1.7960953e+86
4.2980336e+83
-8.1624384e+84
-5.7742946e+83
1.4645852e+86
-9.1828241e+84
1.4419942e+86
1.7182228e+83
-9.2805232e+84
1.1935029e+84
-5.6256066e+83
-7.4127404e+84
1.8097618e+86
-7.7659742e+84
1.5618766e+84
-8.112554e+84
-1.1761638e+84
1.4000173e+86
2.4073724e+83
-8.5282251e+84
1.4099622e+86
-8.2113239e+84
-1.5498264e+82
-7.6975447e+84
-8.0067555e+83
-8.2549396e+84
-3.2489715e+83
1.4595073e+86
-1.8584505e+86
-1.1417096e+84
-1.0300009e+85
1.4871426e+86
-2.2082444e+83
-1.9080767e+86
-9.7483369e+84
4.0630874e+83
-8.6516714e+83
1.8387667e+86
-7.4853027e+84
1.7991132e+86
-8.5293252e+83
-8.1655597e+84
-4.4755102e+83
1.4887757e+86
-1.9016078e+86
-9.4730848e+84
1.4656204e+86
-1.8667972e+86
-9.3645319e+84
1.0822424e+84
1.8053571e+86
-7.1241362e+84
1.842354e+86
-5.8574083e+84
-1.4078343e+86
-1.2700491e+83
-7.1899026e+84
3.5017571e+83
-7.6003879e+84
1.4278565e+86
6.1125513e+83
-7.7256454e+84
-4.2690179e+83
-7.722416e+84
-1.4259195e+86
-8.0222699e+83
-7.7643241e+84
5.9375652e+83
-8.1236208e+84
1.4047936e+86
-5.5399019e+83
-8.7824193e+84
-1.5286055e+84
-8.6091739e+84
1.016906e+85
1.4618784e+86
-1.2879403e+85
-1.7527291e+86
-1.6519464e+85
1.4442222e+86
-1.7236597e+86
-1.6101145e+85
-4.9641178e+84
1.8621941e+86
-1.2133366e+85
1.891365e+86
-6.4984824e+84
-1.2694932e+85
1.4904675e+86
-2.3968031e+84
-1.2084692e+85
-4.4681182e+83
-9.5060289e+84
-1.5067841e+86
-1.3506959e+84
-1.0328769e+85
-2.8179204e+84
-1.2960597e+85
-1.4568814e+86
-5.9759422e+84
1.8990938e+86
-1.2114372e+85
-1.062374e+85
-1.7385171e+86
-1.6095574e+85
1.4254713e+86
-1.452151e+85
-1.6949181e+86
-1.6190603e+85
1.8449403e+86
-8.6796074e+84
-1.264696e+85
2.4971759e+84
1.4822286e+86
-4.7971286e+84
-1.2679502e+85
1.5180066e+86
-1.1521162e+85
-1.1182867e+84
-9.5604934e+84
-2.588505e+84
-1.0263196e+85
1.0855751e+85
1.4160342e+86
-1.6963938e+86
-1.6250787e+85
1.4461226e+86
1.3250633e+85
-1.7297409e+86
-1.6072683e+85
-5.9534778e+84
7.2166939e+84
1.8741897e+86
-1.1894775e+85
1.8347627e+86
-1.2413788e+85
1.1240198e+85
1.4431023e+86
-1.7341622e+86
-1.6774538e+85
1.428464e+86
-1.7011379e+86
-1.593786e+85
-5.8672195e+84
1.8435225e+86
-1.1827681e+85
1.8672705e+86
-1.2917461e+85
-1.476488e+86
-1.4077437e+84
1.8517404e+86
-9.248755e+84
-3.2970489e+84
-1.1803113e+85
1.4895852e+86
-4.0487624e+84
-1.3012012e+85
-2.1612576e+84
1.8787351e+86
-1.0399599e+85
3.3763093e+84
1.473395e+86
-1.2305595e+85
1.4946401e+86
-1.1876306e+85
-2.1995334e+84
1.8844484e+86
-9.5624859e+84
1.8504075e+86
-1.0047738e+85
-1.4043792e+86
-9.9366019e+83
-5.0820402e+84
-5.8510805e+83
-1.7932402e+86
-6.4690096e+84
1.4123421e+86
-1.8186038e+86
-6.3849128e+83
-9.1417212e+84
-1.2152965e+84
-8.3315948e+84
-1.4545274e+86
-1.4976301e+83
-7.1198798e+84
-6.091695e+83
-8.5580556e+84
1.4672884e+86
-7.5764629e+83
-1.0300643e+85
-7.0269927e+83
-8.6792902e+84
-1.4216241e+86
-1.9316307e+84
-5.6078895e+84
-9.3412347e+83
-1.8252177e+86
-8.0599499e+84
1.3984332e+86
-1.7905417e+86
-9.3207314e+84
-1.4724245e+86
-1.1872962e+84
-8.1764138e+84
-8.8171041e+83
-9.6787072e+84
1.4520874e+86
-1.0267819e+85
-8.952452e+84
2.9893264e+87
-1.3331583e+87
-7.5729813e+86
3.8938801e+87
3.4851956e+87
1.1619546e+88
1.1091998e+88
1.0700622e+88
1.1127453e+88
-1.516152e+87
1.5185639e+87
-3.8554215e+86
1.1585636e+88
-6.8448937e+86
1.1547318e+88
-8.9903338e+86
1.0462124e+87
-1.6912087e+86
1.2413508e+88
-2.2926291e+86
1.2322726e+88
-1.6270879e+87
1.5867174e+87
-9.6556951e+86
-1.0221537e+87
-7.3384793e+86
7.9151586e+86
9.0481674e+87
-7.8135442e+85
-1.0308369e+87
1.0850318e+87
-4.2473208e+86
-1.1333458e+86
8.5394469e+87
-5.1955992e+86
1.5895523e+87
1.1602119e+86
-1.3376051e+88
1.2886067e+86
-1.3548179e+88
-1.7478337e+87
3.8629808e+86
-8.9834822e+87
-1.6904233e+87
1.6203749e+87
2.6626122e+86
-1.2028382e+88
4.5468737e+86
-8.5586913e+87
3.0465642e+86
-1.1561504e+88
-1.6697127e+87
-3.0355369e+86
1.5819092e+87
1.430393e+86
-1.2981839e+88
-2.5409355e+86
1.3371756e+86
-1.2649417e+88
1.1173581e+87
-1.3066179e+88
-9.1723716e+86
-7.9035551e+86
7.1341299e+86
5.8770903e+86
-2.187955e+86
2.6731965e+86
7.0803508e+85
-3.4493747e+87
3.8520079e+85
-3.4772211e+87
1.0927129e+87
-1.3207469e+88
-8.1488483e+86
7.1463559e+86
5.6777856e+86
-9.5694727e+86
1.9456812e+86
4.3534751e+85
-3.4926782e+87
7.4039677e+85
-3.4933633e+87
-1.3577663e+86
-6.1315105e+86
-1.5651371e+86
1.5111421e+86
4.3729491e+86
-6.0714811e+86
-1.6287524e+87
1.5867926e+87
4.3501664e+86
-8.5562913e+87
-1.5954428e+87
1.5098683e+87
3.1641945e+86
-1.1593868e+88
-5.9557335e+86
4.4900875e+86
-5.7709671e+86
4.5966657e+86
-8.2030708e+87
3.215935e+86
-1.1306875e+88
1.746811e+87
-1.0515011e+86
-1.2335855e+86
-1.2002004e+88
-1.4274994e+86
1.689505e+87
-8.3236661e+85
-1.2155163e+88
-1.3016594e+87
1.2478241e+87
-1.2614597e+88
6.6133106e+86
-7.3062705e+86
-8.9370284e+86
5.0005622e+86
2.1024764e+86
2.7126554e+87
-2.5737675e+86
-3.4170861e+87
-1.8185114e+86
2.7589165e+87
2.5480529e+86
-3.4506615e+87
-1.1480873e+86
-2.1843795e+86
-1.4048634e+85
2.7439799e+86
-2.8224037e+86
-6.7288934e+85
-1.2497456e+88
6.5396188e+86
-7.0560252e+86
-8.7924077e+86
4.8855327e+86
-2.2022793e+86
2.7180358e+87
-3.3914587e+87
-1.1050274e+86
2.6735088e+87
-3.3609983e+87
-1.7127216e+86
2.2525958e+86
-5.471002e+85
-1.0760401e+85
-1.2992034e+86
1.287354e+86
-5.7306139e+86
-1.4519294e+86
1.4504976e+86
4.339818e+86
-5.6035318e+86
-1.4193723e+87
1.433331e+87
4.5769488e+86
-8.4282873e+87
-1.4481458e+87
1.4652755e+87
1.9583017e+86
-1.1696327e+88
-5.5509473e+86
4.6962933e+86
-5.1938766e+86
5.0312375e+86
-8.0288895e+87
2.1426442e+86
-1.1368833e+88
1.7473485e+87
-1.1714652e+88
-5.4401125e+86
-1.1885155e+88
1.771168e+87
-5.1454879e+86
-1.3026685e+87
1.2774862e+87
4.5640547e+86
-8.2269516e+87
-1.3163249e+87
-1.1780238e+88
1.3337336e+87
-7.703386e+85
4.2738456e+86
-8.1639671e+87
-1.1743042e+88
-1.3945893e+86
-1.2690945e+86
1.3014435e+86
4.2675778e+86
-4.0363456e+86
-1.1165999e+87
-8.6884865e+87
1.2007578e+87
1.391451e+86
4.0395409e+86
-3.9238593e+86
-8.3286588e+87
1.1022983e+86
-1.0835416e+86
1.2979685e+86
-2.9934522e+87
-1.7795116e+86
-1.5840543e+86
1.6700223e+86
1.466233e+86
-2.926561e+87
-1.5914664e+86
1.6191472e+86
1.4460034e+86
-1.7801034e+86
-1.239217e+86
1.221111e+86
-2.9927125e+87
-1.1152265e+86
-1.2972718e+86
1.7903717e+86
1.9981767e+86
-3.0199802e+87
-1.1313442e+86
-1.2999016e+86
1.7938311e+86
1.9913924e+86
-1.0602064e+86
-3.0162063e+87
1.1785572e+86
1.6986601e+86
-1.5795694e+86
-1.7609103e+86
1.5008599e+86
-2.6108434e+85
5.3857601e+86
3.4287181e+85
-7.0347125e+86
-2.0611602e+85
4.929047e+85
4.6180479e+85
-2.5394124e+85
5.344888e+86
-3.3631075e+85
-7.0075253e+86
-2.2926407e+85
4.8464308e+85
4.3310423e+85
-2.5716847e+85
3.1146587e+85
4.8592735e+85
-1.470325e+85
-1.804588e+85
4.0776516e+85
-1.3001266e+85
4.5342566e+85
4.8732456e+85
-1.7780369e+85
-2.9510094e+87
-1.6555047e+86
-1.818052e+86
1.4107469e+86
1.589134e+86
-2.919802e+85
-6.9423452e+86
-2.1532461e+85
4.7278414e+85
-2.6310129e+85
-6.9702073e+86
-2.298946e+85
-2.6094303e+85
-1.0744157e+86
-3.0102261e+87
-1.0842129e+86
-1.3104228e+86
-2.9924794e+87
-1.3128398e+86
-1.1499609e+86
1.7800706e+86
1.9659349e+86
1.6478784e+87
1.5099091e+87
2.6064807e+87
2.5069424e+87
2.3016092e+87
2.3626196e+87
1.4576876e+87
1.9608821e+87
2.4834181e+87
2.3708857e+87
2.410871e+87
2.5733777e+87
9.8764651e+87
1.0628937e+88
3.514909e+87
1.0538512e+88
4.1193276e+87
1.1264005e+88
1.026686e+88
-2.667331e+87
3.1720085e+84
-7.6007712e+86
-4.7225199e+85
-4.707191e+85
2.7712565e+85
2.4252754e+85
-1.3492727e+86
6.9880203e+83
3.5181525e+83
-4.1170724e+84
8.9855876e+83
-1.731332e+86
-4.2744618e+83
-4.9190945e+84
-1.3635253e+86
2.0996563e+84
-1.7603544e+86
-7.8096361e+84
1.5170241e+84
-1.7586538e+86
-7.3805077e+84
-1.7331051e+86
-8.4860695e+84
5.4186027e+84
-7.7896152e+86
2.7516277e+85
-4.5352396e+85
-4.7763293e+85
2.6724843e+85
-7.7547533e+86
-4.7904918e+85
-4.7658089e+85
2.7611736e+85
2.4165738e+85
-2.8960147e+86
-2.353693e+87
1.9058936e+86
1.5960776e+86
-8.4576342e+85
-1.2449731e+86
-2.306734e+87
1.9690777e+86
1.5528266e+86
-8.6163103e+85
-1.1018067e+86
-3.5547395e+86
-2.6976127e+87
-1.0591938e+86
-2.4857377e+87
-1.215965e+86
2.4929218e+87
2.2571293e+87
-4.3860143e+86
-5.2076367e+85
-7.4799138e+86
-5.1498281e+85
-4.8402665e+85
3.1479582e+85
2.6767223e+85
4.072845e+85
5.9914623e+86
-5.1841186e+85
-7.4060381e+86
-5.1228012e+85
-4.7348316e+85
3.1624925e+85
2.6114482e+85
5.9542471e+86
-7.3034269e+86
-5.1924381e+85
-4.5408498e+85
3.1533115e+85
2.7702955e+85
-2.0198921e+85
7.8158722e+86
-5.3696161e+85
-5.0883241e+85
2.8777259e+85
2.8541874e+85
7.9009478e+86
-2.7324965e+85
2.8950338e+85
-5.3222743e+85
-5.3316548e+85
2.6703874e+85
-1.0365173e+85
6.0387486e+86
2.6957607e+85
-5.0122465e+85
-5.1946013e+85
2.7184744e+85
6.081275e+86
-1.4073369e+85
-5.1887309e+85
-5.221498e+85
2.6919075e+85
2.5288492e+85
-4.1096824e+84
-4.9308358e+85
2.7237173e+85
-8.1340614e+84
2.6790099e+85
-5.0095451e+85
-4.9585609e+85
2.4948452e+85
-1.1515122e+85
6.0898979e+86
-7.871564e+86
2.9787512e+85
-4.9474054e+85
-5.2144252e+85
2.7933708e+85
5.9617811e+86
-7.6841796e+86
-5.1360107e+85
-5.1481349e+85
2.8897579e+85
2.5390415e+85
-6.7035733e+84
-4.9128966e+85
-4.5663725e+85
2.8530203e+85
2.7588494e+85
2.7417364e+85
-4.8779975e+85
-4.8412661e+85
2.5105904e+85
4.1784179e+85
5.8105307e+86
-7.0625607e+86
-4.9813089e+85
-4.5640745e+85
3.2071791e+85
2.5409037e+85
5.9399787e+86
-7.2983516e+86
-5.1609813e+85
-4.506913e+85
3.1797991e+85
2.735766e+85
-2.2185888e+85
2.8859737e+85
-5.0957293e+85
-5.3832249e+85
2.8141174e+85
2.9087872e+85
-5.201785e+85
-5.2142649e+85
2.6280718e+85
5.2824271e+86
-7.97733e+85
-6.1139624e+86
1.1620141e+86
-2.5869245e+85
-7.4150178e+85
9.2029556e+85
-2.6942641e+85
3.6082769e+85
2.9697906e+85
-3.686305e+85
-5.4579095e+86
-9.2826077e+85
-3.6002906e+85
-3.0944232e+85
3.6154531e+85
2.8513604e+85
-5.9746871e+86
-1.1801503e+86
-2.822456e+85
-4.354335e+86
4.9791377e+86
5.7784794e+86
5.4064036e+86
-7.1839337e+85
6.2891211e+86
5.7614832e+86
-5.3652835e+86
-7.5468318e+85
5.8627429e+86
5.2593489e+86
-7.2030351e+85
-5.3688914e+86
3.5636162e+85
-2.8765057e+85
-3.7919533e+85
2.8696381e+85
-5.2768964e+86
-9.3277032e+85
3.6606093e+85
-2.990381e+85
-3.4745576e+85
2.8007172e+85
-8.5538631e+85
-2.6108082e+85
-1.2283636e+86
-2.8076016e+85
1.5382398e+87
6.0800608e+86
2.5302324e+87
2.26824e+87
2.3551236e+87
2.0942381e+87
-4.2097037e+86
6.0670439e+86
5.8651824e+86
-6.697725e+85
5.7300522e+86
5.2993665e+86
6.1320447e+86
5.532046e+86
-6.5608307e+85
5.767101e+86
5.0956559e+86
6.0463561e+86
1.801514e+87
2.343114e+87
2.1622088e+87
2.5082723e+87
2.3344937e+87
-7.5858807e+85
-5.2579952e+86
-3.7184438e+85
-2.694802e+85
3.6216704e+85
2.9024564e+85
-5.3672444e+86
-9.3074675e+85
3.6825147e+85
-2.9767277e+85
-3.5511473e+85
2.8072137e+85
-8.9654226e+85
-2.4620383e+85
-1.3084768e+86
-2.5397046e+85
7.2642457e+85
-5.0820734e+86
3.7574036e+85
-2.7195442e+85
-3.2450817e+85
2.829609e+85
5.2375717e+86
-9.3477542e+85
-2.2549338e+85
-2.674438e+85
3.6577859e+85
2.8904591e+85
-3.639869e+85
-2.4816287e+85
-1.5072877e+86
7.5987502e+83
1.8839172e+86
5.4671587e+83
-7.8525735e+84
-2.0081738e+84
-1.8726713e+86
2.471098e+84
-1.211733e+85
1.5154582e+86
-1.9039726e+86
-1.6173192e+84
-1.3746874e+85
9.8805785e+83
1.9071594e+86
-9.7959838e+84
-1.4435232e+86
-5.4749331e+84
6.8170944e+84
-1.3085565e+85
-9.6523584e+84
1.2771195e+85
-1.7272587e+86
-1.7478683e+85
1.4769374e+86
-1.1105914e+85
-1.7793793e+86
-1.7850409e+85
-6.1667187e+84
-1.3525967e+85
8.5931444e+84
1.4623759e+86
-1.1101295e+85
-1.7570665e+86
-1.743923e+85
1.4754428e+86
-1.7816398e+86
-1.7665265e+85
-4.2651887e+84
1.8998125e+86
-1.3506285e+85
1.8773826e+86
-5.4360751e+84
-1.3093648e+85
-1.5071141e+86
1.0091411e+84
1.8998288e+86
-1.007121e+85
-6.5390423e+83
-1.3464614e+85
1.4953372e+86
-1.2191634e+84
-1.3133179e+85
1.870836e+86
1.1533025e+84
-1.0224812e+85
-1.4001352e+86
1.7287466e+84
-9.9514052e+83
-4.7469031e+84
2.1493885e+84
-1.7974431e+86
-1.941822e+84
-6.3897265e+84
1.4147379e+86
-1.8277438e+86
3.3555931e+84
-8.3582862e+84
2.4371257e+84
-7.3477829e+84
-1.4657306e+86
2.4979825e+84
-1.4319508e+84
-6.5878511e+84
1.906654e+84
-8.0901187e+83
-7.3367566e+84
1.4807225e+86
3.3004928e+84
-9.8199866e+84
3.3040351e+84
-8.169422e+84
-2.8322842e+84
1.4629512e+86
2.7983595e+84
-9.9530917e+84
1.4795108e+86
-9.2342256e+84
2.7926989e+84
1.8275728e+86
-7.6191997e+84
1.8006352e+86
3.0178195e+84
-8.3645659e+84
-1.4131844e+86
1.6648759e+84
-7.5657054e+84
2.985485e+84
-8.0642188e+84
1.3999333e+86
2.9978315e+84
-8.7045613e+84
1.7659118e+84
-8.458357e+84
-1.4213104e+86
1.9390692e+84
-5.0556826e+84
2.1171767e+84
-1.8203879e+86
-5.5113721e+84
1.4344211e+86
-1.8495612e+86
2.820967e+84
-8.8038353e+84
2.2032219e+84
-6.8505602e+84
-1.4775585e+86
2.658633e+84
-7.0420352e+84
2.1180099e+84
-1.8850022e+86
-9.5118768e+84
1.4963187e+86
2.4751958e+84
-1.919181e+86
-1.0587549e+85
2.9779454e+84
-8.3698843e+84
-1.8207582e+84
1.4705443e+86
-1.8748041e+86
9.512742e+83
-1.062058e+85
1.49713e+86
-1.9186086e+86
-9.5062333e+84
2.0435524e+84
1.8482623e+86
-6.0169741e+84
1.8112177e+86
1.4089035e+84
-8.4272857e+84
-1.4306298e+86
1.2531281e+84
-7.5786799e+84
2.4331727e+84
-7.7295712e+84
1.4119389e+86
1.8809509e+84
-8.7928878e+84
9.6891891e+83
-8.5348914e+84
9.1422784e+84
1.4502446e+86
-1.2767284e+85
-1.7296806e+86
-1.7238197e+85
1.4826294e+86
1.1149934e+85
-1.7763278e+86
-1.7419758e+85
-3.8039679e+84
4.8283088e+84
1.9167368e+86
-1.2760458e+85
1.8738658e+86
-6.4309614e+84
-1.3030226e+85
8.8841491e+84
1.4855712e+86
-1.788114e+86
-1.7727888e+85
1.4726192e+86
-1.7606055e+86
-1.7287734e+85
-3.4707378e+84
1.8931197e+86
-1.2623143e+85
1.916588e+86
-1.3460863e+85
7.0470648e+83
1.5257015e+86
-1.408068e+84
-1.3578858e+85
1.5086674e+86
-1.2638918e+85
1.3628295e+84
-9.7779716e+84
7.8576275e+83
-1.0752055e+85
-1.5233629e+86
2.1126535e+83
-1.0195155e+85
-8.8386041e+83
-1.3027192e+85
1.4987464e+86
-2.1642639e+84
-1.3217735e+85
-2.9871952e+83
-1.0728312e+85
-1.5181993e+86
8.2870546e+83
1.8983643e+86
-7.5789012e+84
-1.9465525e+84
-1.8849589e+86
-1.1593794e+85
1.5172771e+86
-1.9039307e+86
-2.0917633e+84
-1.3665144e+85
7.0940112e+83
1.9126635e+86
-9.8269867e+84
-1.4553593e+86
-4.9420282e+84
-1.2394625e+85
-9.932456e+84
-1.7381959e+86
-1.6960833e+85
1.4766714e+86
-1.1669727e+85
-1.7780375e+86
-1.779942e+85
-5.6718952e+84
-1.3443273e+85
9.4501161e+84
1.4528511e+86
-1.2860629e+85
-1.7373935e+86
-1.7102704e+85
1.4816379e+86
-1.7762849e+86
-1.7181153e+85
-4.1652346e+84
1.9127416e+86
-1.2508253e+85
1.874217e+86
-6.5204568e+84
-1.2884735e+85
-1.519368e+86
1.4432884e+83
1.9148034e+86
-9.9134063e+84
-1.2895384e+84
-1.2732048e+85
1.5001607e+86
-3.1393593e+84
-1.2931491e+85
1.8796058e+86
-8.610553e+83
-1.0493105e+85
-1.4781071e+86