/*--------------------------------*- C++ -*----------------------------------*\
  =========                 |
  \\      /  F ield         | OpenFOAM: The Open Source CFD Toolbox
   \\    /   O peration     | Website:  https://openfoam.org
    \\  /    A nd           | Version:  7
     \\/     M anipulation  |
\*---------------------------------------------------------------------------*/
FoamFile
{
    version     2.0;
    format      ascii;
    class       volScalarField;
    location    "2000";
    object      pMean;
}
// * * * * * * * * * * * * * * * * * * * * * * * * * * * * * * * * * * * * * //

dimensions      [0 2 -2 0 0 0 0];

internalField   nonuniform List<scalar> 
34158
(
-1.9257271e+179
-1.9313143e+179
-1.9401741e+179
-1.9469521e+179
-1.9193674e+179
-1.9112855e+179
-1.9029174e+179
-1.908588e+179
-1.7212399e+179
-1.7196777e+179
-1.9340829e+179
-1.9259935e+179
-1.9147649e+179
-1.920199e+179
-1.9188537e+179
-1.8910701e+179
-1.9119816e+179
-1.8844123e+179
-1.8733743e+179
-1.8779194e+179
-1.7795461e+179
-1.7768683e+179
-1.7248665e+179
-1.7236125e+179
-1.6423904e+179
-1.6724801e+179
-1.6742028e+179
-1.6439173e+179
-1.7330834e+179
-1.7616717e+179
-1.7616069e+179
-1.7315321e+179
-1.7285888e+179
-1.7584052e+179
-1.6031745e+179
-1.6019233e+179
-1.9298274e+179
-1.9253437e+179
-1.9353117e+179
-1.9025444e+179
-1.9280126e+179
-1.8970916e+179
-1.8827358e+179
-1.8874259e+179
-1.9074257e+179
-1.9026381e+179
-1.9191048e+179
-1.8883308e+179
-1.8615911e+179
-1.9129899e+179
-1.8816889e+179
-1.8564132e+179
-1.8340835e+179
-1.8373226e+179
-1.78287e+179
-1.7856676e+179
-1.769304e+179
-1.7671628e+179
-1.728338e+179
-1.7261073e+179
-1.5680394e+179
-1.7270734e+179
-1.6767931e+179
-1.6434647e+179
-1.6447877e+179
-1.67349e+179
-1.7351355e+179
-1.7622729e+179
-1.76482e+179
-1.7340412e+179
-1.7340453e+179
-1.7640449e+179
-1.7649105e+179
-1.7356111e+179
-1.5987141e+179
-1.7103422e+179
-1.7091442e+179
-1.681508e+179
-1.6783845e+179
-1.6794889e+179
-1.7081727e+179
-1.5995683e+179
-1.744857e+179
-1.7457362e+179
-1.756204e+179
-1.7568415e+179
-1.7585179e+179
-1.7581771e+179
-1.7653933e+179
-1.7565764e+179
-1.7580191e+179
-1.7646424e+179
-1.7632254e+179
-1.7436703e+179
-1.7561653e+179
-1.7429506e+179
-1.7548644e+179
-1.7407363e+179
-1.7417214e+179
-1.7535529e+179
-1.7535611e+179
-1.7628409e+179
-1.7556936e+179
-1.7631634e+179
-1.7559488e+179
-1.6045618e+179
-1.6033701e+179
-1.5940511e+179
-1.5929498e+179
-1.660567e+179
-1.6588604e+179
-1.9128203e+179
-1.90777e+179
-1.895901e+179
-1.8911562e+179
-1.911587e+179
-1.9156219e+179
-1.935531e+179
-1.9000575e+179
-1.8715913e+179
-1.9282931e+179
-1.8953506e+179
-1.8673895e+179
-1.842217e+179
-1.8454467e+179
-1.8591308e+179
-1.9289966e+179
-1.928537e+179
-1.855593e+179
-1.9248116e+179
-1.9249711e+179
-1.9190961e+179
-1.8879115e+179
-1.8577061e+179
-1.8254058e+179
-1.9129921e+179
-1.880772e+179
-1.8526754e+179
-1.8214198e+179
-1.789373e+179
-1.7922553e+179
-1.7762561e+179
-1.7735822e+179
-1.7312482e+179
-1.734054e+179
-1.7700385e+179
-1.7153558e+179
-1.7680267e+179
-1.7144059e+179
-1.9555597e+179
-1.9552209e+179
-1.5580369e+179
-1.569057e+179
-1.7820999e+179
-1.6779703e+179
-1.6456513e+179
-1.7358706e+179
-1.7643181e+179
-1.7641061e+179
-1.7368583e+179
-1.7129163e+179
-1.6854681e+179
-1.6810763e+179
-1.7112839e+179
-1.5995204e+179
-1.6015236e+179
-1.7108514e+179
-1.7115746e+179
-1.6790621e+179
-1.6827125e+179
-1.7563336e+179
-1.7450999e+179
-1.7449296e+179
-1.7565949e+179
-1.7677052e+179
-1.7609731e+179
-1.7602709e+179
-1.7680789e+179
-1.7681989e+179
-1.7614674e+179
-1.7606338e+179
-1.7673174e+179
-1.7458531e+179
-1.7452808e+179
-1.758399e+179
-1.757841e+179
-1.757333e+179
-1.7462557e+179
-1.746339e+179
-1.7583807e+179
-1.7598289e+179
-1.7670037e+179
-1.7606289e+179
-1.7679562e+179
-1.7595194e+179
-1.7602749e+179
-1.7669728e+179
-1.7470052e+179
-1.7588358e+179
-1.7581236e+179
-1.7482457e+179
-1.5852685e+179
-1.6757466e+179
-1.6716337e+179
-1.7343346e+179
-1.7342937e+179
-1.7380813e+179
-1.7327731e+179
-1.7335197e+179
-1.7309842e+179
-1.7336792e+179
-1.7325009e+179
-1.671791e+179
-1.7315543e+179
-1.7310952e+179
-1.7328882e+179
-1.7307403e+179
-1.5847182e+179
-1.7522322e+179
-1.7531013e+179
-1.7549589e+179
-1.7557899e+179
-1.7537236e+179
-1.7531947e+179
-1.7563747e+179
-1.7542e+179
-1.7509917e+179
-1.7513433e+179
-1.7525353e+179
-1.7527487e+179
-1.7521303e+179
-1.7524177e+179
-1.7517632e+179
-1.7518065e+179
-1.7587366e+179
-1.759439e+179
-1.7633289e+179
-1.7628506e+179
-1.7595336e+179
-1.7590711e+179
-1.7631701e+179
-1.7635492e+179
-1.7696884e+179
-1.7691518e+179
-1.769542e+179
-1.7728433e+179
-1.7726893e+179
-1.7572005e+179
-1.757454e+179
-1.7613495e+179
-1.761149e+179
-1.7582053e+179
-1.7583097e+179
-1.7621089e+179
-1.7616742e+179
-1.7722237e+179
-1.7688343e+179
-1.7682929e+179
-1.7715292e+179
-1.7713439e+179
-1.7680681e+179
-1.7676935e+179
-1.7710587e+179
-1.7523207e+179
-1.7518882e+179
-1.7548263e+179
-1.7559363e+179
-1.7515991e+179
-1.7515295e+179
-1.7516626e+179
-1.7521556e+179
-1.7564079e+179
-1.7525767e+179
-1.7513109e+179
-1.7538348e+179
-1.7504436e+179
-1.7520274e+179
-1.7511905e+179
-1.7504137e+179
-1.7488616e+179
-1.7498312e+179
-1.7530741e+179
-1.7514478e+179
-1.7507447e+179
-1.7504788e+179
-1.7525732e+179
-1.7540339e+179
-1.7497629e+179
-1.749595e+179
-1.7506908e+179
-1.7506341e+179
-1.749301e+179
-1.7499018e+179
-1.7502705e+179
-1.7497724e+179
-1.7706993e+179
-1.7675764e+179
-1.767334e+179
-1.7703161e+179
-1.7609395e+179
-1.7566752e+179
-1.7571331e+179
-1.7608495e+179
-1.7698415e+179
-1.7671731e+179
-1.7666576e+179
-1.7697184e+179
-1.7605357e+179
-1.7568108e+179
-1.7565468e+179
-1.7602344e+179
-1.5994872e+179
-1.6064963e+179
-1.6048457e+179
-1.5952838e+179
-1.5944204e+179
-1.6640385e+179
-1.6620115e+179
-1.600327e+179
-1.6485084e+179
-1.5998489e+179
-1.6477729e+179
-1.8986993e+179
-1.9015043e+179
-1.9105081e+179
-1.8809589e+179
-1.9055948e+179
-1.8762653e+179
-1.8522683e+179
-1.8491496e+179
-1.8627014e+179
-1.9350741e+179
-1.9309848e+179
-1.8652672e+179
-1.9382673e+179
-1.938554e+179
-1.9355832e+179
-1.900126e+179
-1.8674823e+179
-1.8336569e+179
-1.9283185e+179
-1.8943967e+179
-1.8637513e+179
-1.8300942e+179
-1.796587e+179
-1.7990818e+179
-1.8010728e+179
-1.8670777e+179
-1.868735e+179
-1.9008438e+179
-1.8995077e+179
-1.7983354e+179
-1.8659506e+179
-1.8635727e+179
-1.8953179e+179
-1.8977344e+179
-1.8878757e+179
-1.8584349e+179
-1.8243935e+179
-1.7822408e+179
-1.8807859e+179
-1.8535919e+179
-1.8207502e+179
-1.7795292e+179
-1.736819e+179
-1.7394389e+179
-1.7774235e+179
-1.7223252e+179
-1.7758152e+179
-1.7197093e+179
-1.7711835e+179
-1.7169631e+179
-1.7686931e+179
-1.716326e+179
-1.9276392e+179
-1.9263726e+179
-1.9613057e+179
-1.9579141e+179
-1.9310012e+179
-1.9768447e+179
-1.9762267e+179
-1.9820373e+179
-1.9826484e+179
-1.9300293e+179
-1.9758757e+179
-1.9745142e+179
-1.9652219e+179
-1.9637679e+179
-1.5949419e+179
-1.5956368e+179
-1.5590544e+179
-1.5699046e+179
-1.7827601e+179
-1.7890382e+179
-1.7850011e+179
-1.7886693e+179
-1.7850282e+179
-1.7848575e+179
-1.7844338e+179
-1.7837947e+179
-1.7840401e+179
-1.7133411e+179
-1.7139873e+179
-1.6818129e+179
-1.686364e+179
-1.6023861e+179
-1.7435645e+179
-1.7442231e+179
-1.7439648e+179
-1.7560509e+179
-1.7567329e+179
-1.761024e+179
-1.7614842e+179
-1.7694793e+179
-1.7699808e+179
-1.7613406e+179
-1.760533e+179
-1.7694899e+179
-1.76808e+179
-1.7459321e+179
-1.7448939e+179
-1.7567816e+179
-1.7560411e+179
-1.7371402e+179
-1.7332053e+179
-1.7347325e+179
-1.7326175e+179
-1.6761556e+179
-1.6724208e+179
-1.7343776e+179
-1.7348448e+179
-1.730955e+179
-1.7345422e+179
-1.5860405e+179
-1.6720759e+179
-1.6765542e+179
-1.5871537e+179
-1.7348936e+179
-1.7359573e+179
-1.7344621e+179
-1.7326304e+179
-1.7358651e+179
-1.73373e+179
-1.7359445e+179
-1.7393702e+179
-1.7521412e+179
-1.7525582e+179
-1.7537054e+179
-1.7541316e+179
-1.7546855e+179
-1.7525477e+179
-1.753333e+179
-1.7565986e+179
-1.7513805e+179
-1.7520572e+179
-1.7559042e+179
-1.7552982e+179
-1.7546576e+179
-1.7543685e+179
-1.7541681e+179
-1.7545036e+179
-1.7760919e+179
-1.7724275e+179
-1.7726821e+179
-1.7763227e+179
-1.7661497e+179
-1.7612435e+179
-1.7622706e+179
-1.7665208e+179
-1.7620737e+179
-1.7623347e+179
-1.7662796e+179
-1.76596e+179
-1.7763255e+179
-1.7726885e+179
-1.7726207e+179
-1.7762323e+179
-1.7758652e+179
-1.7726572e+179
-1.7722647e+179
-1.7752507e+179
-1.7654361e+179
-1.76164e+179
-1.7616255e+179
-1.7654467e+179
-1.7611453e+179
-1.7616588e+179
-1.7653541e+179
-1.7651341e+179
-1.7751582e+179
-1.771995e+179
-1.7717156e+179
-1.7752312e+179
-1.7535131e+179
-1.7538555e+179
-1.7572359e+179
-1.7559474e+179
-1.7533311e+179
-1.7526494e+179
-1.7559363e+179
-1.7573362e+179
-1.754581e+179
-1.7537797e+179
-1.7544514e+179
-1.7549105e+179
-1.754527e+179
-1.7542975e+179
-1.7533941e+179
-1.7535732e+179
-1.7517414e+179
-1.7527553e+179
-1.7539244e+179
-1.7536071e+179
-1.7562231e+179
-1.7537602e+179
-1.754302e+179
-1.7579125e+179
-1.7542029e+179
-1.7541515e+179
-1.7575826e+179
-1.7570017e+179
-1.7541185e+179
-1.7540304e+179
-1.7537175e+179
-1.753925e+179
-1.7649746e+179
-1.7605441e+179
-1.7652046e+179
-1.761613e+179
-1.7749507e+179
-1.7712852e+179
-1.7716329e+179
-1.7750459e+179
-1.7613057e+179
-1.765345e+179
-1.7649279e+179
-1.7610685e+179
-1.7714621e+179
-1.7716225e+179
-1.7749633e+179
-1.7598427e+179
-1.7603608e+179
-1.7633127e+179
-1.764022e+179
-1.7608234e+179
-1.7607687e+179
-1.7643487e+179
-1.7643993e+179
-1.7707441e+179
-1.7708923e+179
-1.7558225e+179
-1.7544559e+179
-1.7571165e+179
-1.757991e+179
-1.753664e+179
-1.753689e+179
-1.753519e+179
-1.7538264e+179
-1.7521608e+179
-1.7524998e+179
-1.7516637e+179
-1.7514807e+179
-1.7571405e+179
-1.7560464e+179
-1.7542264e+179
-1.7552861e+179
-1.6606838e+179
-1.6550605e+179
-1.6629202e+179
-1.6573702e+179
-1.7489164e+179
-1.7434684e+179
-1.7422842e+179
-1.7449781e+179
-1.7441176e+179
-1.7591944e+179
-1.7554132e+179
-1.7444396e+179
-1.7440209e+179
-1.7538631e+179
-1.7567627e+179
-1.7435451e+179
-1.7538139e+179
-1.7563201e+179
-1.7434818e+179
-1.7437905e+179
-1.7571765e+179
-1.7537877e+179
-1.7437349e+179
-1.743158e+179
-1.6568529e+179
-1.7440773e+179
-1.7412263e+179
-1.742479e+179
-1.7562941e+179
-1.7526706e+179
-1.7426065e+179
-1.7416476e+179
-1.7514184e+179
-1.753322e+179
-1.740651e+179
-1.6628717e+179
-1.6545832e+179
-1.6595872e+179
-1.7657734e+179
-1.7662841e+179
-1.7682059e+179
-1.7687746e+179
-1.7670297e+179
-1.7660493e+179
-1.7693408e+179
-1.7681195e+179
-1.7588174e+179
-1.7560004e+179
-1.7561573e+179
-1.7594704e+179
-1.7592773e+179
-1.7562795e+179
-1.7559601e+179
-1.7590138e+179
-1.7602035e+179
-1.7604227e+179
-1.7644864e+179
-1.7642942e+179
-1.7605675e+179
-1.7605551e+179
-1.7648665e+179
-1.764651e+179
-1.769654e+179
-1.7692923e+179
-1.7695065e+179
-1.7742126e+179
-1.7739447e+179
-1.7585408e+179
-1.758774e+179
-1.7630752e+179
-1.7628605e+179
-1.7592827e+179
-1.7597016e+179
-1.7639881e+179
-1.7637883e+179
-1.7734551e+179
-1.7690229e+179
-1.7688739e+179
-1.7729253e+179
-1.7726572e+179
-1.768295e+179
-1.7680049e+179
-1.7724613e+179
-1.7659702e+179
-1.7654856e+179
-1.7681194e+179
-1.7685053e+179
-1.7586386e+179
-1.7557191e+179
-1.7554282e+179
-1.7588641e+179
-1.7681806e+179
-1.7655926e+179
-1.7650391e+179
-1.7669717e+179
-1.7575806e+179
-1.7589622e+179
-1.7551432e+179
-1.7544989e+179
-1.7633082e+179
-1.763669e+179
-1.7666141e+179
-1.7656561e+179
-1.7643469e+179
-1.7638715e+179
-1.7662553e+179
-1.7672143e+179
-1.7540791e+179
-1.7569018e+179
-1.7574755e+179
-1.7543317e+179
-1.7568752e+179
-1.7571998e+179
-1.7541709e+179
-1.75408e+179
-1.7721758e+179
-1.76768e+179
-1.7671928e+179
-1.7717544e+179
-1.7624404e+179
-1.758356e+179
-1.7582024e+179
-1.7621911e+179
-1.771485e+179
-1.7668601e+179
-1.7665508e+179
-1.7619155e+179
-1.7579536e+179
-1.757833e+179
-1.761822e+179
-1.6004888e+179
-1.6159717e+179
-1.6167408e+179
-1.6175604e+179
-1.6173243e+179
-1.6312281e+179
-1.6068781e+179
-1.605479e+179
-1.6300873e+179
-1.5973803e+179
-1.5958816e+179
-1.6667729e+179
-1.6647315e+179
-1.6017301e+179
-1.652653e+179
-1.6015242e+179
-1.6510791e+179
-1.6545434e+179
-1.602735e+179
-1.6014882e+179
-1.6539749e+179
-1.8858261e+179
-1.8841409e+179
-1.8547619e+179
-1.8564367e+179
-1.8675825e+179
-1.8695305e+179
-1.9109069e+179
-1.8770761e+179
-1.8406391e+179
-1.9061593e+179
-1.8727753e+179
-1.837158e+179
-1.8036278e+179
-1.8018284e+179
-1.8037024e+179
-1.8709617e+179
-1.8713323e+179
-1.9047107e+179
-1.9031984e+179
-1.8051437e+179
-1.8732858e+179
-1.9068335e+179
-1.9071079e+179
-1.8734284e+179
-1.9001759e+179
-1.8683947e+179
-1.8322435e+179
-1.7891044e+179
-1.8944032e+179
-1.8646753e+179
-1.8286947e+179
-1.785922e+179
-1.7428334e+179
-1.7452024e+179
-1.7421375e+179
-1.833169e+179
-1.8024767e+179
-1.8017736e+179
-1.8325733e+179
-1.8934932e+179
-1.8954631e+179
-1.7396325e+179
-1.8314185e+179
-1.8005205e+179
-1.797677e+179
-1.8292938e+179
-1.8925679e+179
-1.8901346e+179
-1.8584622e+179
-1.8253496e+179
-1.782881e+179
-1.725636e+179
-1.8536228e+179
-1.8216625e+179
-1.7806041e+179
-1.7248955e+179
-1.7784581e+179
-1.7243765e+179
-1.7793954e+179
-1.722771e+179
-1.7713756e+179
-1.7168125e+179
-1.7687431e+179
-1.7171591e+179
-1.941857e+179
-1.9420462e+179
-1.9571145e+179
-1.9566728e+179
-1.9866814e+179
-1.9872702e+179
-1.9879055e+179
-1.9877729e+179
-1.9413855e+179
-1.9561911e+179
-1.9553952e+179
-1.9412453e+179
-1.9861071e+179
-1.9859875e+179
-1.9350682e+179
-1.9817636e+179
-1.9811461e+179
-1.9868383e+179
-1.9874745e+179
-1.9331298e+179
-1.9793621e+179
-1.9781085e+179
-1.983898e+179
-1.9854462e+179
-1.9608539e+179
-1.9462488e+179
-1.9458642e+179
-1.9606284e+179
-1.9918164e+179
-1.9945248e+179
-1.994858e+179
-1.9917829e+179
-1.9913793e+179
-1.9944882e+179
-1.9933937e+179
-1.9907448e+179
-2.0018407e+179
-2.0002953e+179
-1.9993995e+179
-2.000486e+179
-2.0022824e+179
-2.0019357e+179
-2.0006925e+179
-1.9455598e+179
-1.9438374e+179
-1.9588907e+179
-1.9602593e+179
-1.9901567e+179
-1.9929371e+179
-1.9898932e+179
-1.9894217e+179
-1.9887648e+179
-1.9381376e+179
-1.9856906e+179
-1.9851749e+179
-1.9372999e+179
-1.982865e+179
-1.9843153e+179
-1.9884999e+179
-1.989822e+179
-1.6704515e+179
-1.6701583e+179
-1.6719513e+179
-1.6729362e+179
-1.596122e+179
-1.6734602e+179
-1.6712588e+179
-1.6709772e+179
-1.6743785e+179
-1.5598947e+179
-1.5965531e+179
-1.7853913e+179
-1.7857068e+179
-1.7898569e+179
-1.7894326e+179
-1.7901546e+179
-1.7843523e+179
-1.7839016e+179
-1.7838581e+179
-1.7835384e+179
-1.790368e+179
-1.786257e+179
-1.7859696e+179
-1.7900388e+179
-1.7870309e+179
-1.7867174e+179
-1.7870294e+179
-1.7910247e+179
-1.7908757e+179
-1.5883064e+179
-1.7322676e+179
-1.7328648e+179
-1.7328862e+179
-1.7343338e+179
-1.7335092e+179
-1.7323759e+179
-1.7349117e+179
-1.735114e+179
-1.7333443e+179
-1.7385513e+179
-1.6717567e+179
-1.6765899e+179
-1.5875024e+179
-1.7504892e+179
-1.7513439e+179
-1.7558205e+179
-1.7545452e+179
-1.755469e+179
-1.7562711e+179
-1.750367e+179
-1.750746e+179
-1.7539279e+179
-1.753897e+179
-1.7499976e+179
-1.7503267e+179
-1.7530541e+179
-1.7548251e+179
-1.7552939e+179
-1.7536395e+179
-1.7557279e+179
-1.7565849e+179
-1.7561592e+179
-1.7542484e+179
-1.7545731e+179
-1.7559953e+179
-1.7681564e+179
-1.763991e+179
-1.764297e+179
-1.7682302e+179
-1.7638811e+179
-1.7641002e+179
-1.7682611e+179
-1.7677163e+179
-1.7751272e+179
-1.7786884e+179
-1.778605e+179
-1.7750014e+179
-1.7746612e+179
-1.7785416e+179
-1.7670378e+179
-1.7636934e+179
-1.7634949e+179
-1.7670854e+179
-1.7623251e+179
-1.7632664e+179
-1.7668531e+179
-1.7663202e+179
-1.7741271e+179
-1.7742735e+179
-1.7783379e+179
-1.7776108e+179
-1.7771942e+179
-1.7737422e+179
-1.7731874e+179
-1.776832e+179
-1.7514355e+179
-1.7524058e+179
-1.7538217e+179
-1.7532977e+179
-1.7510279e+179
-1.7509863e+179
-1.7531462e+179
-1.7546697e+179
-1.755357e+179
-1.7534369e+179
-1.7545644e+179
-1.755756e+179
-1.7550839e+179
-1.75335e+179
-1.7529363e+179
-1.7538287e+179
-1.7463476e+179
-1.7572315e+179
-1.7432331e+179
-1.7437608e+179
-1.7535628e+179
-1.7559182e+179
-1.7524006e+179
-1.7431925e+179
-1.7429938e+179
-1.7415652e+179
-1.6638677e+179
-1.6584215e+179
-1.7411769e+179
-1.744951e+179
-1.7437696e+179
-1.7559537e+179
-1.7540515e+179
-1.7445206e+179
-1.7449679e+179
-1.754558e+179
-1.7586985e+179
-1.744943e+179
-1.655463e+179
-1.6611147e+179
-1.6581171e+179
-1.663895e+179
-1.7452392e+179
-1.7436024e+179
-1.7448242e+179
-1.7502948e+179
-1.66092e+179
-1.6558402e+179
-1.7553447e+179
-1.7581464e+179
-1.7446311e+179
-1.745274e+179
-1.7452625e+179
-1.7550454e+179
-1.7584786e+179
-1.7457181e+179
-1.7463475e+179
-1.757062e+179
-1.7606679e+179
-1.745224e+179
-1.7583872e+179
-1.7455306e+179
-1.7464772e+179
-1.7563268e+179
-1.7578531e+179
-1.7600566e+179
-1.7608454e+179
-1.7583158e+179
-1.7683899e+179
-1.7664838e+179
-1.7670255e+179
-1.7697134e+179
-1.7665434e+179
-1.7665531e+179
-1.7696921e+179
-1.7693482e+179
-1.758771e+179
-1.7615632e+179
-1.7614588e+179
-1.7588614e+179
-1.7778319e+179
-1.7728165e+179
-1.7724037e+179
-1.7775171e+179
-1.7676775e+179
-1.7639027e+179
-1.7631908e+179
-1.7671966e+179
-1.7631527e+179
-1.7632952e+179
-1.7673113e+179
-1.7672855e+179
-1.7775116e+179
-1.7725008e+179
-1.7725749e+179
-1.7773738e+179
-1.7773715e+179
-1.7731062e+179
-1.7723381e+179
-1.7769415e+179
-1.767327e+179
-1.7630348e+179
-1.7630051e+179
-1.7672536e+179
-1.7628015e+179
-1.7628938e+179
-1.767417e+179
-1.7668773e+179
-1.7766452e+179
-1.772401e+179
-1.771889e+179
-1.7765219e+179
-1.7670967e+179
-1.7667826e+179
-1.7698115e+179
-1.7692152e+179
-1.7669399e+179
-1.7664955e+179
-1.7691318e+179
-1.7700613e+179
-1.7615849e+179
-1.761061e+179
-1.7588518e+179
-1.7588934e+179
-1.7586783e+179
-1.7614129e+179
-1.7607512e+179
-1.758339e+179
-1.75743e+179
-1.7600148e+179
-1.7611185e+179
-1.7582147e+179
-1.7689646e+179
-1.7669291e+179
-1.7673405e+179
-1.7706805e+179
-1.7677736e+179
-1.7671166e+179
-1.7704147e+179
-1.7702009e+179
-1.7583589e+179
-1.7613175e+179
-1.7611165e+179
-1.75841e+179
-1.7667611e+179
-1.7631584e+179
-1.7663334e+179
-1.7626746e+179
-1.7765096e+179
-1.7718844e+179
-1.7716502e+179
-1.7763114e+179
-1.7626182e+179
-1.7665987e+179
-1.7665899e+179
-1.7625313e+179
-1.7715954e+179
-1.7715974e+179
-1.7763077e+179
-1.7612023e+179
-1.7622686e+179
-1.7653806e+179
-1.7660811e+179
-1.7622124e+179
-1.7622891e+179
-1.7667212e+179
-1.7660745e+179
-1.7708456e+179
-1.7715686e+179
-1.768359e+179
-1.7678064e+179
-1.7702475e+179
-1.7703177e+179
-1.7610529e+179
-1.7581887e+179
-1.7609554e+179
-1.7581522e+179
-1.7571829e+179
-1.7598835e+179
-1.759394e+179
-1.7568417e+179
-1.769075e+179
-1.7679924e+179
-1.7676108e+179
-1.768789e+179
-1.7150178e+179
-1.7192429e+179
-1.7207698e+179
-1.7160218e+179
-1.7138461e+179
-1.7127183e+179
-1.714852e+179
-1.7161215e+179
-1.7115285e+179
-1.7170197e+179
-1.7282087e+179
-1.7221203e+179
-1.7129485e+179
-1.7102883e+179
-1.7203413e+179
-1.7232093e+179
-1.7671269e+179
-1.7636469e+179
-1.7629301e+179
-1.7651225e+179
-1.7652174e+179
-1.7631364e+179
-1.7631665e+179
-1.7662011e+179
-1.7533517e+179
-1.7522233e+179
-1.7518393e+179
-1.7516567e+179
-1.7517659e+179
-1.7514656e+179
-1.751551e+179
-1.7521924e+179
-1.7125884e+179
-1.7095912e+179
-1.7221717e+179
-1.7195771e+179
-1.765446e+179
-1.7625208e+179
-1.761539e+179
-1.7634844e+179
-1.7514243e+179
-1.7507694e+179
-1.7504189e+179
-1.7507301e+179
-1.7207308e+179
-1.7098636e+179
-1.7133904e+179
-1.7125154e+179
-1.7144385e+179
-1.7160697e+179
-1.7136972e+179
-1.7179911e+179
-1.7187617e+179
-1.7146869e+179
-1.7747839e+179
-1.7798475e+179
-1.7784714e+179
-1.773239e+179
-1.7754577e+179
-1.7801061e+179
-1.7794108e+179
-1.7749188e+179
-1.7692293e+179
-1.7795693e+179
-1.7785892e+179
-1.7688447e+179
-1.7693215e+179
-1.7802283e+179
-1.779129e+179
-1.7694238e+179
-1.7799905e+179
-1.775892e+179
-1.7809568e+179
-1.7759049e+179
-1.7809123e+179
-1.7750807e+179
-1.7788983e+179
-1.7755565e+179
-1.7808309e+179
-1.7797781e+179
-1.7690591e+179
-1.7694949e+179
-1.7796923e+179
-1.7688179e+179
-1.7685939e+179
-1.7805739e+179
-1.7637561e+179
-1.7638383e+179
-1.7622354e+179
-1.7622396e+179
-1.762945e+179
-1.7630823e+179
-1.7631423e+179
-1.7630137e+179
-1.762763e+179
-1.7629669e+179
-1.7629971e+179
-1.7627054e+179
-1.7641788e+179
-1.7641735e+179
-1.762376e+179
-1.7623744e+179
-1.7622145e+179
-1.7642602e+179
-1.7643045e+179
-1.7624246e+179
-1.7627312e+179
-1.7626954e+179
-1.7626976e+179
-1.7625935e+179
-1.7622287e+179
-1.76255e+179
-1.7623745e+179
-1.7621388e+179
-1.7636542e+179
-1.764267e+179
-1.7622537e+179
-1.7618627e+179
-1.7645114e+179
-1.7648082e+179
-1.7652157e+179
-1.7649257e+179
-1.7648334e+179
-1.7649295e+179
-1.7654209e+179
-1.7653162e+179
-1.7688489e+179
-1.76799e+179
-1.7678686e+179
-1.7687333e+179
-1.7685751e+179
-1.7677215e+179
-1.7674831e+179
-1.7682955e+179
-1.7650806e+179
-1.765456e+179
-1.7658816e+179
-1.7655395e+179
-1.7659542e+179
-1.7654377e+179
-1.7653959e+179
-1.7658542e+179
-1.7693345e+179
-1.7685697e+179
-1.7684422e+179
-1.769239e+179
-1.7692228e+179
-1.7683599e+179
-1.7680321e+179
-1.7689337e+179
-1.7719097e+179
-1.7721784e+179
-1.7734474e+179
-1.7731961e+179
-1.7712575e+179
-1.7715711e+179
-1.7728422e+179
-1.7725008e+179
-1.7730905e+179
-1.7718324e+179
-1.7717236e+179
-1.7729883e+179
-1.7777888e+179
-1.7762059e+179
-1.7760861e+179
-1.7776644e+179
-1.777487e+179
-1.7759263e+179
-1.7756295e+179
-1.7771814e+179
-1.7630532e+179
-1.7634026e+179
-1.7638551e+179
-1.763508e+179
-1.7635587e+179
-1.763668e+179
-1.7640876e+179
-1.7640282e+179
-1.7675613e+179
-1.7668826e+179
-1.7668124e+179
-1.7675457e+179
-1.7672972e+179
-1.7665794e+179
-1.7662228e+179
-1.7669916e+179
-1.7638881e+179
-1.7641237e+179
-1.7644561e+179
-1.7641744e+179
-1.7646806e+179
-1.764328e+179
-1.7641846e+179
-1.7646327e+179
-1.7682246e+179
-1.7674654e+179
-1.7673482e+179
-1.7679949e+179
-1.7679258e+179
-1.7673665e+179
-1.7671545e+179
-1.7677271e+179
-1.7768552e+179
-1.7753905e+179
-1.7751247e+179
-1.7766543e+179
-1.7722871e+179
-1.7710464e+179
-1.7708283e+179
-1.7720162e+179
-1.7704052e+179
-1.7705843e+179
-1.771892e+179
-1.7716176e+179
-1.7765102e+179
-1.7748781e+179
-1.774656e+179
-1.7762685e+179
-1.7760221e+179
-1.7745579e+179
-1.7745606e+179
-1.7760622e+179
-1.7715308e+179
-1.7703794e+179
-1.7704136e+179
-1.771538e+179
-1.7699571e+179
-1.7702043e+179
-1.7713728e+179
-1.771088e+179
-1.7758579e+179
-1.7743582e+179
-1.7741216e+179
-1.7756017e+179
-1.7735662e+179
-1.7794189e+179
-1.7787951e+179
-1.7737615e+179
-1.7740875e+179
-1.7785116e+179
-1.7796113e+179
-1.7730568e+179
-1.7684201e+179
-1.7786114e+179
-1.7796776e+179
-1.768989e+179
-1.7689142e+179
-1.7794422e+179
-1.7788888e+179
-1.7687967e+179
-1.7616486e+179
-1.7635046e+179
-1.76369e+179
-1.7617951e+179
-1.7621173e+179
-1.7621522e+179
-1.7621519e+179
-1.7619622e+179
-1.76189e+179
-1.7620436e+179
-1.7618091e+179
-1.7615804e+179
-1.7637954e+179
-1.7638514e+179
-1.7618573e+179
-1.7617784e+179
-1.7679531e+179
-1.7798498e+179
-1.7783659e+179
-1.7673301e+179
-1.7732923e+179
-1.7794428e+179
-1.778936e+179
-1.7741869e+179
-1.7736293e+179
-1.7781437e+179
-1.7763146e+179
-1.7718292e+179
-1.7763133e+179
-1.7678744e+179
-1.7781523e+179
-1.7666116e+179
-1.7620493e+179
-1.7632275e+179
-1.7611258e+179
-1.760328e+179
-1.7616342e+179
-1.763694e+179
-1.7633175e+179
-1.7614268e+179
-1.7615904e+179
-1.7616741e+179
-1.7615223e+179
-1.7613516e+179
-1.7608124e+179
-1.7613636e+179
-1.7611707e+179
-1.7607688e+179
-1.7757803e+179
-1.7714846e+179
-1.7706019e+179
-1.7768863e+179
-1.7718064e+179
-1.7721332e+179
-1.7779794e+179
-1.7773446e+179
-1.7774527e+179
-1.7672907e+179
-1.7785936e+179
-1.7674232e+179
-1.7668997e+179
-1.7767599e+179
-1.7759412e+179
-1.7667521e+179
-1.7728587e+179
-1.7784633e+179
-1.7777715e+179
-1.7721966e+179
-1.7724517e+179
-1.7724915e+179
-1.7769668e+179
-1.777995e+179
-1.7666051e+179
-1.7771394e+179
-1.7783474e+179
-1.7671889e+179
-1.7783788e+179
-1.7787422e+179
-1.7672793e+179
-1.7676082e+179
-1.7605957e+179
-1.7605278e+179
-1.7605157e+179
-1.760529e+179
-1.759883e+179
-1.7617095e+179
-1.7619221e+179
-1.7600252e+179
-1.7599697e+179
-1.7619614e+179
-1.7620685e+179
-1.7601513e+179
-1.7605808e+179
-1.7606168e+179
-1.7605817e+179
-1.760357e+179
-1.7614688e+179
-1.7618243e+179
-1.7597329e+179
-1.7595062e+179
-1.7619981e+179
-1.7618368e+179
-1.7598904e+179
-1.7599453e+179
-1.7602372e+179
-1.7602534e+179
-1.7600921e+179
-1.7600547e+179
-1.7598846e+179
-1.7600278e+179
-1.7598185e+179
-1.7596359e+179
-1.7752696e+179
-1.7738627e+179
-1.7737885e+179
-1.7751273e+179
-1.7708359e+179
-1.7697953e+179
-1.7697603e+179
-1.770735e+179
-1.7694245e+179
-1.769571e+179
-1.7706648e+179
-1.7705424e+179
-1.7751327e+179
-1.7737441e+179
-1.7736197e+179
-1.7749672e+179
-1.7666298e+179
-1.765904e+179
-1.7657599e+179
-1.7665961e+179
-1.763366e+179
-1.7629683e+179
-1.7628807e+179
-1.7632429e+179
-1.7625468e+179
-1.7627417e+179
-1.7631776e+179
-1.7629812e+179
-1.7665949e+179
-1.7657112e+179
-1.7655656e+179
-1.7664172e+179
-1.7746228e+179
-1.7733864e+179
-1.7733069e+179
-1.7745475e+179
-1.7702078e+179
-1.7691887e+179
-1.7690813e+179
-1.7701027e+179
-1.7684354e+179
-1.7687072e+179
-1.7698158e+179
-1.7695896e+179
-1.7661196e+179
-1.7653189e+179
-1.7652681e+179
-1.7660772e+179
-1.7622438e+179
-1.7622862e+179
-1.762767e+179
-1.7627108e+179
-1.7618894e+179
-1.7620249e+179
-1.7624685e+179
-1.7622571e+179
-1.7658136e+179
-1.7650247e+179
-1.764884e+179
-1.7655629e+179
-1.6014208e+179
-1.6185969e+179
-1.6173964e+179
-1.6168218e+179
-1.6184326e+179
-1.6319502e+179
-1.6078182e+179
-1.6070246e+179
-1.6314112e+179
-1.6068352e+179
-1.6075843e+179
-1.5976831e+179
-1.5986746e+179
-1.5979078e+179
-1.5977235e+179
-1.686008e+179
-1.669382e+179
-1.6673346e+179
-1.6839298e+179
-1.6039248e+179
-1.6543128e+179
-1.6035402e+179
-1.6540454e+179
-1.6039406e+179
-1.6590116e+179
-1.657789e+179
-1.6027693e+179
-1.6559132e+179
-1.6029318e+179
-1.6016567e+179
-1.6551195e+179
-1.8814334e+179
-1.8444612e+179
-1.8810236e+179
-1.8423473e+179
-1.8056862e+179
-1.8061211e+179
-1.8073576e+179
-1.874442e+179
-1.8761353e+179
-1.9096079e+179
-1.9083225e+179
-1.8081233e+179
-1.8775315e+179
-1.9108665e+179
-1.9113353e+179
-1.8775181e+179
-1.9110435e+179
-1.8786236e+179
-1.839312e+179
-1.792998e+179
-1.906271e+179
-1.8740808e+179
-1.8358187e+179
-1.7908376e+179
-1.7483079e+179
-1.7467256e+179
-1.7437164e+179
-1.8043937e+179
-1.8361682e+179
-1.8351024e+179
-1.8044381e+179
-1.8976451e+179
-1.8977033e+179
-1.7449621e+179
-1.8049614e+179
-1.8056155e+179
-1.8376117e+179
-1.8374396e+179
-1.8996087e+179
-1.8993023e+179
-1.8684441e+179
-1.8329119e+179
-1.7899031e+179
-1.7313657e+179
-1.8647123e+179
-1.8298416e+179
-1.7866527e+179
-1.729373e+179
-1.7715216e+179
-1.7714722e+179
-1.7345339e+179
-1.7358753e+179
-1.8497411e+179
-1.8094606e+179
-1.8082568e+179
-1.8485606e+179
-1.9018009e+179
-1.9023146e+179
-1.9237169e+179
-1.9225288e+179
-1.9037022e+179
-1.9026351e+179
-1.9242764e+179
-1.9245549e+179
-1.7677718e+179
-1.7692917e+179
-1.7330443e+179
-1.7331681e+179
-1.8472592e+179
-1.8073194e+179
-1.8053081e+179
-1.8459631e+179
-1.9000318e+179
-1.9008604e+179
-1.9212643e+179
-1.9207693e+179
-1.8994032e+179
-1.898126e+179
-1.919466e+179
-1.9201978e+179
-1.825355e+179
-1.7840807e+179
-1.7270029e+179
-1.8216604e+179
-1.7817644e+179
-1.7271779e+179
-1.7785486e+179
-1.725258e+179
-1.7797591e+179
-1.7245319e+179
-1.716905e+179
-1.7172429e+179
-1.9515076e+179
-1.9595721e+179
-1.9591006e+179
-1.9512952e+179
-1.9600014e+179
-1.9522351e+179
-1.9517662e+179
-1.9598469e+179
-1.9707704e+179
-1.9709047e+179
-1.9778141e+179
-1.9777521e+179
-1.9703934e+179
-1.9699645e+179
-1.9766663e+179
-1.9773065e+179
-1.9937432e+179
-1.9945139e+179
-1.992207e+179
-1.9916882e+179
-1.9947556e+179
-1.9944524e+179
-1.9923278e+179
-1.9924838e+179
-1.9930846e+179
-1.9933023e+179
-1.9956947e+179
-1.9952689e+179
-1.9931167e+179
-1.9946959e+179
-1.9955314e+179
-1.9925725e+179
-1.9508326e+179
-1.9507506e+179
-1.9587048e+179
-1.9586683e+179
-1.976136e+179
-1.9694458e+179
-1.9693648e+179
-1.9761479e+179
-1.9756221e+179
-1.9691659e+179
-1.9506719e+179
-1.9504364e+179
-1.9580708e+179
-1.9585467e+179
-1.9915027e+179
-1.9912295e+179
-1.9933839e+179
-1.9938033e+179
-1.9913414e+179
-1.9936257e+179
-1.9929078e+179
-1.9908871e+179
-1.9507697e+179
-1.965879e+179
-1.9651635e+179
-1.9500913e+179
-1.9964275e+179
-1.9992541e+179
-1.999339e+179
-1.9962566e+179
-1.9949944e+179
-1.995695e+179
-1.9988806e+179
-1.9978894e+179
-2.0037015e+179
-2.0044912e+179
-2.0051762e+179
-2.006068e+179
-2.0066458e+179
-2.0064908e+179
-2.0050859e+179
-2.0050737e+179
-1.9480159e+179
-1.9633802e+179
-1.9619366e+179
-1.9472143e+179
-1.9943256e+179
-1.9971298e+179
-1.9972143e+179
-1.9941634e+179
-1.9934802e+179
-1.9966351e+179
-1.9953119e+179
-1.9926495e+179
-2.0012251e+179
-2.0023652e+179
-2.0040454e+179
-2.0027042e+179
-2.0030673e+179
-2.0047186e+179
-2.0045255e+179
-2.0030525e+179
-1.9747153e+179
-1.9745376e+179
-1.9815779e+179
-1.9815004e+179
-1.9636991e+179
-1.9637322e+179
-1.9557898e+179
-1.955643e+179
-1.9553722e+179
-1.963417e+179
-1.9628722e+179
-1.9550333e+179
-1.9741913e+179
-1.973744e+179
-1.9806097e+179
-1.9812626e+179
-1.9970094e+179
-1.9972043e+179
-1.9996659e+179
-1.9992561e+179
-2.0022521e+179
-2.0049576e+179
-2.0057771e+179
-2.0026682e+179
-2.0055542e+179
-2.002415e+179
-2.0045353e+179
-2.001694e+179
-1.9970279e+179
-1.9994978e+179
-1.998755e+179
-1.9965516e+179
-1.996333e+179
-1.9965752e+179
-1.9989862e+179
-1.9985496e+179
-2.0014556e+179
-2.0043999e+179
-2.0051027e+179
-2.0018725e+179
-2.0048494e+179
-2.0016951e+179
-2.0006688e+179
-2.0034924e+179
-1.9963436e+179
-1.9987816e+179
-1.9977993e+179
-1.9957242e+179
-2.0120763e+179
-2.0135884e+179
-2.0132023e+179
-2.0126872e+179
-2.0097462e+179
-2.0084364e+179
-2.0089022e+179
-2.0104477e+179
-2.0086148e+179
-2.010194e+179
-2.0088208e+179
-2.0075786e+179
-2.0103935e+179
-2.0090374e+179
-2.0095999e+179
-2.0112368e+179
-2.0142381e+179
-2.0134954e+179
-2.0124217e+179
-2.0134761e+179
-2.0139133e+179
-2.0144747e+179
-2.0137642e+179
-2.0130094e+179
-2.0094051e+179
-2.0110813e+179
-2.0100177e+179
-2.0086583e+179
-1.954574e+179
-1.9624129e+179
-1.9622117e+179
-1.9542011e+179
-1.9535598e+179
-1.9616421e+179
-1.960896e+179
-1.9530932e+179
-1.9724864e+179