/*--------------------------------*- C++ -*----------------------------------*\
  =========                 |
  \\      /  F ield         | OpenFOAM: The Open Source CFD Toolbox
   \\    /   O peration     | Website:  https://openfoam.org
    \\  /    A nd           | Version:  7
     \\/     M anipulation  |
\*---------------------------------------------------------------------------*/
FoamFile
{
    version     2.0;
    format      ascii;
    class       volVectorField;
    location    "2000";
    object      U;
}
// * * * * * * * * * * * * * * * * * * * * * * * * * * * * * * * * * * * * * //

dimensions      [0 1 -1 0 0 0 0];

internalField   nonuniform List<vector> 
34158
(
(-4.1552626e+90 9.5672091e+89 -7.1615804e+88)
(-4.384741e+90 5.9422697e+89 -7.5701898e+88)
(-4.3352999e+90 1.0330105e+90 -3.3505534e+88)
(-4.6018039e+90 6.3242399e+89 -7.0768529e+88)
(-4.106154e+90 9.2198064e+89 2.3978172e+89)
(-3.9416024e+90 1.0425474e+90 2.1647312e+89)
(-4.5670108e+90 7.1773394e+89 -8.3971657e+88)
(-4.6203327e+90 7.4498038e+89 -6.9325712e+88)
(-4.5668194e+90 4.5604878e+89 -6.9059134e+88)
(-4.6442545e+90 6.3192326e+89 -9.7916293e+88)
(-4.3700743e+90 9.185484e+89 2.5856221e+89)
(-4.1726264e+90 1.0758514e+90 2.498362e+89)
(-4.7186959e+90 7.5626792e+89 -5.036113e+88)
(-4.8271215e+90 7.5770481e+89 -5.8885327e+88)
(-3.9020187e+90 1.052861e+90 1.6898991e+89)
(-4.3319671e+90 8.2371571e+89 1.5765147e+88)
(-3.7432606e+90 1.0421766e+90 1.7938559e+89)
(-4.171581e+90 8.2538103e+89 2.2164939e+87)
(-4.6620879e+90 6.9618588e+89 -4.9894556e+88)
(-4.7360487e+90 7.1618768e+89 -3.7125245e+88)
(-4.5831998e+90 6.1885879e+89 -1.4006511e+89)
(-4.545406e+90 6.4832212e+89 -1.4712379e+89)
(-4.8099471e+90 4.0336734e+89 -1.1616099e+89)
(-4.5334014e+90 6.4086983e+89 -6.7852596e+88)
(-3.6559828e+90 8.1586919e+89 -7.7910474e+89)
(-5.1118002e+90 6.0681668e+89 8.7009314e+89)
(-5.2478927e+90 4.2046587e+89 9.2674491e+89)
(-3.7415374e+90 5.8304771e+89 -7.1796398e+89)
(-4.0794816e+90 4.6777474e+89 -6.5418983e+88)
(-4.7578479e+90 4.8675116e+89 1.4610474e+89)
(-4.8008895e+90 2.4771635e+89 1.4560689e+89)
(-4.0359001e+90 5.4310736e+89 -9.8174392e+88)
(-4.0367491e+90 5.1082386e+89 -7.9184495e+88)
(-4.6738862e+90 5.1297464e+89 1.2774744e+89)
(-3.6309586e+90 8.9311839e+89 2.551017e+89)
(-3.7825271e+90 3.6208297e+89 2.8140125e+89)
(-5.1418186e+90 7.0722078e+89 -6.9590602e+88)
(-4.9637754e+90 7.3940601e+89 -5.1577711e+88)
(-4.1540248e+90 1.0331958e+90 1.7803179e+89)
(-4.5434427e+90 8.1581209e+89 4.1108097e+88)
(-3.9509581e+90 1.0683783e+90 1.8282777e+89)
(-4.3489455e+90 8.3946411e+89 4.3161083e+88)
(-4.8356616e+90 7.2472463e+89 -1.6704834e+88)
(-4.9328408e+90 7.2167962e+89 -1.3829076e+88)
(-5.4645996e+90 5.0211554e+89 -1.086504e+89)
(-5.3984568e+90 4.8901185e+89 -1.25876e+89)
(-3.7297955e+90 1.0551004e+90 1.9384257e+89)
(-3.9480719e+90 9.1019857e+89 1.6483618e+89)
(-4.4893009e+90 7.2485023e+89 2.7756191e+88)
(-3.5646954e+90 1.0693554e+90 2.0680023e+89)
(-3.7681894e+90 9.2683359e+89 1.7771328e+89)
(-4.332872e+90 7.2954887e+89 1.2806444e+88)
(-4.6541658e+90 6.7129862e+89 -1.6352255e+88)
(-4.7643672e+90 7.0098781e+89 -4.1066361e+87)
(-4.5433919e+90 6.6140376e+89 -1.250411e+89)
(-4.5958146e+90 6.5608399e+89 -1.0140372e+89)
(-4.5527824e+90 5.2961088e+89 8.5197748e+87)
(-4.506886e+90 5.3710956e+89 1.1008334e+87)
(-4.5595922e+90 5.9380526e+89 -3.23558e+89)
(-4.5352068e+90 6.6633054e+89 -3.3435101e+89)
(-5.5224142e+90 4.5473078e+89 -6.1386433e+89)
(-4.8468509e+90 5.4594263e+89 -1.5457445e+89)
(-5.1959159e+90 6.0887546e+89 8.6366563e+89)
(-3.8184083e+90 5.5238272e+89 -7.1338109e+89)
(-3.7478046e+90 7.8678419e+89 -7.6440552e+89)
(-5.2297857e+90 4.4492833e+89 8.8692864e+89)
(-4.2796489e+90 4.136544e+89 -1.4203501e+89)
(-4.9975403e+90 4.2525559e+89 1.165192e+89)
(-4.9087334e+90 1.9498455e+89 1.1297495e+89)
(-4.1425957e+90 5.0365352e+89 -1.325229e+89)
(-4.1326318e+90 4.6887863e+89 -9.8624579e+88)
(-4.7841767e+90 4.3311439e+89 8.917085e+88)
(-4.8129014e+90 2.2319765e+89 1.2201654e+89)
(-4.0707211e+90 5.4629132e+89 -9.5446432e+88)
(-4.0732291e+90 8.928704e+89 -8.2202319e+88)
(-4.4525837e+90 6.3584457e+89 6.684774e+89)
(-4.5399882e+90 5.182981e+89 6.625384e+89)
(-3.0354911e+90 7.7324096e+89 -4.3414021e+89)
(-3.0725905e+90 6.0950855e+89 -4.4424747e+89)
(-2.9447493e+90 9.9786863e+89 -4.9668255e+89)
(-4.4897986e+90 6.7973869e+89 6.2155566e+89)
(-4.2190838e+90 4.765484e+89 -8.359064e+88)
(-3.9419713e+90 3.8916673e+89 -2.4962209e+89)
(-3.948032e+90 3.792281e+89 -2.1873489e+89)
(-4.4913854e+90 3.431388e+89 -1.0726282e+88)
(-4.5303601e+90 1.4916036e+89 -2.2553545e+88)
(-4.2320293e+90 1.4843608e+89 -5.505901e+89)
(-4.236212e+90 1.4118175e+89 -5.2092539e+89)
(-4.4315666e+90 3.8010088e+88 -2.3966072e+89)
(-4.2221238e+90 1.9832502e+89 -5.6530365e+89)
(-4.2422641e+90 1.1319625e+89 -5.298872e+89)
(-4.4944658e+90 1.492527e+89 -2.0621645e+89)
(-4.4682702e+90 6.2733992e+88 -2.2901114e+89)
(-3.9445945e+90 3.8151193e+89 -2.343007e+89)
(-4.4742672e+90 2.9699489e+89 -3.6123077e+88)
(-3.8887061e+90 4.3761004e+89 -2.4504517e+89)
(-4.4735223e+90 1.8030289e+89 -3.3862209e+88)
(-3.8895064e+90 4.205746e+89 -2.6064411e+89)
(-3.9164044e+90 3.9058492e+89 -2.2512379e+89)
(-4.457032e+90 3.3007793e+89 -2.3081009e+88)
(-4.4635633e+90 1.7933758e+89 -3.6127212e+88)
(-4.4007235e+90 1.8254409e+89 -2.237646e+89)
(-4.2257026e+90 1.5561528e+89 -5.2224469e+89)
(-4.4136146e+90 9.7138347e+88 -2.4139237e+89)
(-4.1960916e+90 2.0688363e+89 -5.6317178e+89)
(-3.6783042e+90 8.9433378e+89 2.2250454e+89)
(-3.8307296e+90 3.738205e+89 2.5372247e+89)
(-5.1613107e+90 3.5006269e+89 -1.6311095e+89)
(-4.9583897e+90 3.459028e+89 -2.7185182e+89)
(-4.563939e+90 4.691456e+89 -4.8772822e+89)
(-4.5179411e+90 7.2459906e+89 -4.9489693e+89)
(-4.8192187e+90 7.5508842e+89 4.2091229e+88)
(-4.6104566e+90 8.0010472e+89 5.4900703e+88)
(-5.2080804e+90 6.7386078e+89 -1.12939e+88)
(-5.041253e+90 7.0056404e+89 -5.2220227e+87)
(-5.4947453e+90 4.8058944e+89 -9.3245446e+88)
(-5.5368815e+90 4.8032004e+89 -9.2173179e+88)
(-3.920392e+90 9.9370963e+89 2.0553897e+89)
(-4.1571557e+90 8.947521e+89 1.676084e+89)
(-4.6714262e+90 7.185111e+89 5.0512881e+88)
(-3.7724435e+90 1.0481716e+90 2.0709806e+89)
(-3.956055e+90 9.3107791e+89 1.7610999e+89)
(-4.5046291e+90 7.4116798e+89 4.586603e+88)
(-4.7920058e+90 6.8632961e+89 2.0974552e+88)
(-4.8655674e+90 6.9174609e+89 2.8796809e+88)
(-5.3678411e+90 5.1117241e+89 8.04058e+87)
(-4.7028288e+90 4.266302e+89 3.7876428e+89)
(-4.8003647e+90 3.3507154e+89 3.1101052e+89)
(-5.3101233e+90 4.9094206e+89 -1.065146e+88)
(-4.6263325e+90 4.3716663e+89 3.6554851e+89)
(-4.7309857e+90 3.4353123e+89 3.1216049e+89)
(-4.0267502e+90 9.2464253e+89 1.5775941e+89)
(-3.5870428e+90 9.5289706e+89 1.8171261e+89)
(-4.0542733e+90 7.9300428e+89 1.5030667e+89)
(-4.5669276e+90 6.458998e+89 5.5975639e+88)
(-3.9473533e+90 9.2712199e+89 1.6672322e+89)
(-3.4013404e+90 9.8113632e+89 1.9537189e+89)
(-3.8767438e+90 8.1777801e+89 1.6268347e+89)
(-4.386393e+90 6.3796653e+89 4.5463007e+88)
(-4.6318116e+90 6.8256215e+89 -8.9608117e+88)
(-4.7253295e+90 6.7578677e+89 -7.2953698e+88)
(-4.5067585e+90 5.7496493e+89 3.2135555e+88)
(-4.4654627e+90 5.7574897e+89 2.4751679e+87)
(-4.5305867e+90 6.8623102e+89 -3.0507426e+89)
(-4.5602436e+90 6.2726422e+89 -2.8362707e+89)
(-4.0223721e+90 5.8723906e+89 1.2070742e+89)
(-4.6744409e+90 4.7617207e+89 -1.0160368e+89)
(-3.9258461e+90 6.0491001e+89 1.1242052e+89)
(-4.5939082e+90 5.3056428e+89 -1.2881966e+89)
(-4.9945307e+90 2.1647635e+89 -2.5105576e+89)
(-4.9188927e+90 2.0800207e+89 -2.1750315e+89)
(-5.5790489e+90 4.6148284e+89 1.2460599e+89)
(-5.5874834e+90 4.3650878e+89 -6.0990574e+89)
(-4.3075923e+90 8.3416246e+87 -4.6168841e+89)
(-5.3656317e+90 3.6396873e+89 8.6317073e+89)
(-3.9262249e+90 4.9100566e+89 -7.1551658e+89)
(-4.3661004e+90 3.6920607e+89 -2.0370768e+89)
(-5.0425143e+90 3.9141322e+89 4.510887e+88)
(-5.0740889e+90 1.7432942e+89 7.6113325e+88)
(-4.281473e+90 4.5462579e+89 -1.9606318e+89)
(-4.6560436e+90 5.9558477e+89 6.1348795e+89)
(-3.1686095e+90 7.3063471e+89 -4.4944064e+89)
(-3.1675535e+90 5.8448258e+89 -4.5895114e+89)
(-4.6996387e+90 4.9721848e+89 6.1247781e+89)
(-4.2642434e+90 4.4943636e+89 -7.700471e+88)
(-4.1657414e+90 8.5877788e+89 -8.5269335e+88)
(-4.4931725e+90 6.8869474e+89 6.1332125e+89)
(-4.5154212e+90 5.6000455e+89 6.744098e+89)
(-3.0393307e+90 9.7049624e+89 -4.8131023e+89)
(-3.1111583e+90 7.7228445e+89 -4.3294513e+89)
(-4.5683502e+90 2.8938185e+89 -3.988504e+88)
(-4.0284755e+90 3.4491061e+89 -2.6492415e+89)
(-4.0827061e+90 3.4734079e+89 -3.046281e+89)
(-4.7213523e+90 1.0983573e+89 -3.5194645e+88)
(-4.5189833e+90 1.0877836e+89 -2.075279e+89)
(-4.3758375e+90 9.0326268e+88 -5.065357e+89)
(-4.3413607e+90 9.3210678e+88 -5.4738048e+89)
(-4.5065739e+90 -1.7128075e+88 -2.428522e+89)
(-4.5726025e+90 8.6933009e+88 -2.0714445e+89)
(-4.3254346e+90 5.5254335e+88 -5.5930494e+89)
(-4.3101875e+90 1.3609734e+89 -5.768767e+89)
(-4.55788e+90 1.4890539e+88 -2.3679295e+89)
(-4.0079323e+90 3.9012589e+89 -2.8914114e+89)
(-4.0360121e+90 3.4503211e+89 -2.8257913e+89)
(-4.5647795e+90 2.5244601e+89 -7.3659931e+88)
(-4.5935745e+90 1.0994047e+89 -6.662177e+88)
(-4.5743418e+90 2.8166711e+89 -2.8166006e+88)
(-4.0252024e+90 3.5364313e+89 -2.5812079e+89)
(-3.9835947e+90 3.8343297e+89 -2.816848e+89)
(-4.5579553e+90 1.1729675e+89 -5.4565218e+88)
(-4.4194927e+90 9.1196858e+88 -5.0413408e+89)
(-4.5166914e+90 1.130516e+89 -2.2043215e+89)
(-4.272029e+90 1.3220279e+89 -5.7538402e+89)
(-4.4796444e+90 1.8301199e+88 -2.5998887e+89)
(-4.3585678e+90 1.5704898e+89 -5.4303077e+89)
(-4.2787043e+90 1.1993449e+89 -5.5686167e+89)
(-4.5075748e+90 1.399848e+89 -2.283292e+89)
(-3.9573221e+90 3.791901e+89 -2.6297747e+89)
(-4.4931377e+90 2.9658048e+89 -7.3223433e+88)
(-4.5275726e+90 1.5305133e+89 -4.1066499e+88)
(-3.9169317e+90 4.3397833e+89 -2.7090497e+89)
(-4.0189661e+90 9.5377565e+89 -1.3911975e+89)
(-3.6861582e+90 8.3884709e+89 -1.7517995e+88)
(-3.7148985e+90 5.3727208e+89 -2.4650636e+88)
(-4.2596545e+90 5.5384419e+89 3.9281321e+89)
(-4.3297263e+90 4.627836e+89 3.7910254e+89)
(-2.977088e+90 6.496105e+89 -4.1346633e+89)
(-2.9734988e+90 5.3940693e+89 -4.3795885e+89)
(-4.2411561e+90 6.108018e+89 3.4530023e+89)
(-2.9150378e+90 8.7513193e+89 -4.5572959e+89)
(-2.9700082e+90 7.0785432e+89 -4.2932336e+89)
(-4.2544834e+90 5.045794e+89 3.8309855e+89)
(-3.597582e+90 1.0214049e+90 -4.2516949e+88)
(-4.2154482e+90 5.7348585e+89 3.6480143e+89)
(-4.3069139e+90 4.5368412e+89 3.8608278e+89)
(-2.9188873e+90 7.6929834e+89 -4.3702859e+89)
(-2.9594459e+90 6.1592761e+89 -4.3955172e+89)
(-4.1654595e+90 4.9402821e+89 -1.6149192e+89)
(-3.8261159e+90 2.9967531e+89 -5.4032536e+89)
(-3.8462633e+90 2.6175456e+89 -5.403773e+89)
(-4.2216054e+90 1.0361125e+89 -2.4742071e+89)
(-4.2376236e+90 1.8589111e+89 -2.4379027e+89)
(-3.8189929e+90 2.8053433e+89 -5.4131203e+89)
(-3.8186284e+90 2.8953497e+89 -5.3303306e+89)
(-4.2070086e+90 1.1125761e+89 -2.5026656e+89)
(-4.2182791e+90 2.4238851e+89 -2.3432111e+89)
(-3.9889942e+90 8.5045567e+88 -5.2074166e+89)
(-4.1696687e+90 6.7411994e+88 -3.2332619e+89)
(-4.1685086e+90 -1.5523049e+88 -3.2784522e+89)
(-3.9771808e+90 7.7543322e+88 -5.341634e+89)
(-4.0057871e+90 3.4338447e+88 -5.3520231e+89)
(-4.183334e+90 3.538413e+88 -3.3730003e+89)
(-4.1912213e+90 -5.3298556e+87 -3.3602904e+89)
(-4.0056596e+90 7.8334794e+88 -5.3388789e+89)
(-3.9952701e+90 -3.4411329e+87 -4.7514298e+89)
(-3.9778841e+90 -5.0005234e+88 -4.9705408e+89)
(-4.0776888e+90 -1.0841997e+88 -3.0662034e+89)
(-4.0934113e+90 -3.9939968e+88 -3.0301288e+89)
(-3.9703205e+90 -1.5967572e+88 -4.5938792e+89)
(-3.9677961e+90 -1.6499728e+88 -4.7723167e+89)
(-4.0696396e+90 1.1796431e+88 -2.8667697e+89)
(-4.0672558e+90 -6.1156681e+88 -2.8405441e+89)
(-3.849493e+90 -2.255753e+88 -4.2098885e+89)
(-3.8805022e+90 3.3698662e+87 -4.4745293e+89)
(-3.8652865e+90 -5.8814023e+88 -4.4584334e+89)
(-3.937516e+90 8.8780466e+87 -2.9898999e+89)
(-3.9536137e+90 -8.9069759e+87 -3.0688735e+89)
(-4.0011383e+90 3.0149194e+88 -5.0912519e+89)
(-4.0217624e+90 -2.9839159e+88 -5.0047204e+89)
(-4.1267369e+90 3.8278751e+87 -2.8806108e+89)
(-4.1166204e+90 -2.0817422e+88 -2.9935305e+89)
(-4.0091751e+90 3.1057233e+87 -4.6847842e+89)
(-4.0006329e+90 -2.1519874e+88 -4.8323438e+89)
(-4.1153884e+90 1.1722439e+88 -2.6942708e+89)
(-4.1380589e+90 -5.7987982e+88 -2.2340158e+89)
(-3.9756707e+90 3.1096979e+88 -2.7521542e+89)
(-3.8986385e+90 -2.4933464e+88 -4.195674e+89)
(-3.907718e+90 5.362867e+86 -4.1466936e+89)
(-3.9860655e+90 -2.1152069e+88 -2.8266083e+89)
(-3.9813333e+90 3.2497346e+88 -2.9637295e+89)
(-3.9127815e+90 -3.7919574e+88 -4.39014e+89)
(-3.908347e+90 2.0231262e+88 -4.5129983e+89)
(-3.9817533e+90 1.0167443e+88 -3.1187532e+89)
(-3.8383405e+90 2.8680574e+89 -5.3845051e+89)
(-3.8494933e+90 2.6456282e+89 -5.3263716e+89)
(-4.2299422e+90 1.968961e+89 -2.4679279e+89)
(-4.2389164e+90 8.9659229e+88 -2.4311876e+89)
(-4.0238065e+90 5.6483878e+88 -5.233823e+89)
(-4.1978836e+90 5.2582804e+88 -3.2531795e+89)
(-4.2016025e+90 -4.5663072e+87 -3.3265264e+89)
(-4.0144288e+90 8.2561234e+88 -5.3431526e+89)
(-4.2284824e+90 1.9443228e+89 -2.4987358e+89)
(-3.8302436e+90 2.8426742e+89 -5.3742898e+89)
(-3.8032607e+90 3.3202508e+89 -5.3164571e+89)
(-4.2144666e+90 1.2643e+89 -2.4845851e+89)
(-4.0099272e+90 1.062652e+89 -5.3885198e+89)
(-4.0695638e+90 3.5413913e+88 -5.1274743e+89)
(-4.2240311e+90 4.5716944e+88 -3.3600317e+89)
(-4.2002033e+90 1.8354375e+88 -3.4500094e+89)
(-3.7772163e+90 3.4066749e+89 -5.3080511e+89)
(-3.8072067e+90 2.8038196e+89 -5.3251337e+89)
(-4.1957312e+90 1.8450935e+89 -2.4172705e+89)
(-4.1689657e+90 1.4614596e+89 -2.4431424e+89)
(-3.7953215e+90 2.9838424e+89 -5.3903667e+89)
(-3.8211732e+90 2.91959e+89 -5.2560313e+89)
(-4.2157844e+90 2.2366076e+89 -2.318325e+89)
(-4.1940481e+90 1.098258e+89 -2.4666772e+89)
(-4.1779875e+90 8.062216e+88 -3.1829636e+89)
(-3.9975472e+90 8.5071977e+88 -5.1560569e+89)
(-3.9681062e+90 9.8938688e+88 -5.3562712e+89)
(-4.163356e+90 1.2069533e+88 -3.3573214e+89)
(-3.9662101e+90 1.3741986e+89 -5.2696417e+89)
(-3.9829153e+90 6.150157e+88 -5.2298996e+89)
(-4.1644323e+90 6.8752907e+88 -3.3750855e+89)
(-4.1615268e+90 5.1590558e+88 -3.3706314e+89)
(-3.9863019e+90 5.3993617e+88 -2.0061735e+89)
(-3.8970414e+90 -3.9462374e+87 -3.8177962e+89)
(-3.8688788e+90 3.0222453e+88 -4.5104945e+89)
(-3.9507196e+90 2.1759518e+87 -2.8530526e+89)
(-4.0954451e+90 4.1427816e+88 -2.7369648e+89)
(-3.9978038e+90 5.455252e+87 -4.5497385e+89)
(-3.963257e+90 2.7561016e+88 -4.9762643e+89)
(-4.0757781e+90 -1.6588704e+88 -3.0734256e+89)
(-3.9704876e+90 5.1686895e+88 -2.263591e+89)
(-3.883929e+90 -9.8898429e+87 -4.321193e+89)
(-3.8704325e+90 6.8162308e+88 -4.6601452e+89)
(-3.9540701e+90 4.6590541e+88 -3.0274842e+89)
(-4.0805221e+90 3.6753836e+88 -3.1034202e+89)
(-3.9736776e+90 -5.6972861e+87 -4.9592203e+89)
(-3.9636825e+90 6.3602244e+88 -5.0231755e+89)
(-4.0754122e+90 2.4043593e+88 -3.198363e+89)
(-6.0426705e+90 3.4255858e+89 6.0310161e+89)
(-3.7525944e+90 8.7758915e+89 2.2290357e+89)
(-3.8915953e+90 3.873238e+89 2.3826059e+89)
(-5.0844795e+90 3.8945806e+89 -1.9099107e+89)
(-5.0199619e+90 3.4404601e+89 -2.6383649e+89)
(-4.5639453e+90 4.991641e+89 -4.6811292e+89)
(-4.4992852e+90 7.4368357e+89 -4.7897394e+89)
(-4.4216424e+90 3.3881317e+89 -1.2949387e+89)
(-4.9224745e+90 3.3195985e+89 -1.7829993e+89)
(-4.1374233e+90 4.0344662e+89 -1.4409828e+89)
(-4.7602161e+90 5.1461854e+89 -2.3102443e+89)
(-5.2692692e+90 6.373305e+89 1.770093e+88)
(-5.3400478e+90 6.0388533e+89 2.3503861e+88)
(-4.4202939e+90 8.1759197e+89 1.4331673e+89)
(-4.9001237e+90 6.6862422e+89 5.5768388e+88)
(-4.2113726e+90 8.7771878e+89 1.6815669e+89)
(-4.7187236e+90 7.0216192e+89 5.8436485e+88)
(-5.1087319e+90 6.4593241e+89 4.671875e+88)
(-4.9588591e+90 6.5232766e+89 4.1048493e+88)
(-5.3702029e+90 4.6394692e+89 2.3170091e+88)
(-4.8111619e+90 3.3529502e+89 3.2492551e+89)
(-4.7960965e+90 4.0953213e+89 3.6772111e+89)
(-5.4394108e+90 4.8301351e+89 4.4563342e+88)
(-4.8478672e+90 3.7236787e+89 3.2015132e+89)
(-4.8657315e+90 3.0598499e+89 3.139097e+89)
(-4.1726159e+90 8.5710635e+89 1.695723e+89)
(-3.7454821e+90 9.1009696e+89 1.8463962e+89)
(-4.2436369e+90 7.7997203e+89 1.4455354e+89)
(-4.6525394e+90 6.3515655e+89 7.4655748e+88)
(-4.0623514e+90 9.1088377e+89 1.6882609e+89)
(-3.5705979e+90 9.5996309e+89 1.9052626e+89)
(-4.0677461e+90 8.176308e+89 1.541711e+89)
(-4.4912017e+90 6.469258e+89 6.340024e+88)
(-4.722776e+90 6.9271742e+89 -6.6807766e+88)
(-4.7922842e+90 6.6860699e+89 -5.5000659e+88)
(-5.2189754e+90 5.3504283e+89 -8.7986542e+88)
(-4.714938e+90 4.1297796e+89 6.2854251e+89)
(-4.829721e+90 2.9970814e+89 5.3963086e+89)
(-4.8979832e+90 4.7355395e+89 -1.3650366e+89)
(-4.8473726e+90 2.8281683e+89 -8.8369448e+88)
(-5.1762925e+90 5.5252354e+89 -1.0397961e+89)
(-4.7571938e+90 3.0244275e+89 5.34297e+89)
(-4.6462856e+90 4.3323358e+89 6.1709785e+89)
(-4.7760706e+90 2.9409832e+89 -1.0357953e+89)
(-4.8269273e+90 4.7646719e+89 -1.412959e+89)
(-3.8970979e+90 8.4917241e+89 1.5923745e+89)
(-3.4784172e+90 8.6172503e+89 1.8396756e+89)
(-4.0866992e+90 6.9030169e+89 1.4993153e+89)
(-4.662533e+90 5.8002528e+89 2.4097329e+88)
(-3.7945765e+90 8.6521399e+89 1.7036492e+89)
(-3.254711e+90 8.9710789e+89 1.9877444e+89)
(-3.8708015e+90 7.1573034e+89 1.6716252e+89)
(-4.5261787e+90 5.8905532e+89 1.529074e+88)
(-4.5793252e+90 7.0765078e+89 -2.6879858e+89)
(-4.6419865e+90 6.4914339e+89 -2.5401069e+89)
(-3.9668983e+90 6.2962282e+89 1.3193696e+89)
(-4.6161578e+90 5.1828686e+89 -8.0893308e+88)
(-3.9319421e+90 6.4473737e+89 1.1797138e+89)
(-4.6100668e+90 5.5639324e+89 -1.2079364e+89)
(-2.4237278e+90 7.7016084e+89 1.850261e+89)
(-4.0693287e+90 5.5034248e+89 -3.5660769e+88)
(-2.3752336e+90 7.7370692e+89 1.7326146e+89)
(-3.939435e+90 5.8452765e+89 -5.2189344e+88)
(-5.0266319e+90 2.0000739e+89 1.8500415e+88)
(-4.918665e+90 2.0571738e+89 7.3751258e+88)
(-4.9800011e+90 2.1206583e+89 -2.3836644e+89)
(-5.0097244e+90 2.0256521e+89 -2.2996324e+89)
(-5.0614099e+90 1.9731051e+89 1.1760135e+88)
(-4.1498169e+90 1.9323552e+89 -9.7179477e+88)
(-4.110012e+90 2.0354027e+89 -4.498199e+88)
(-4.0141103e+90 1.6525483e+89 -4.4356699e+89)
(-4.0373377e+90 3.0963501e+89 -4.6329237e+89)
(-4.9729667e+90 2.0135247e+89 1.0202583e+89)
(-4.0879498e+90 1.9628274e+89 -3.3089512e+88)
(-4.0849509e+90 2.32145e+89 -2.245563e+88)
(-5.0054477e+90 1.8335362e+89 -2.5149018e+89)
(-4.974085e+90 1.9116678e+89 -2.1250464e+89)
(-4.395293e+90 4.6146806e+89 6.0522475e+89)
(-4.2618112e+90 9.4659435e+89 5.8668072e+89)
(-5.6499451e+90 4.4519586e+89 1.1602279e+89)
(-5.6703795e+90 4.0357017e+89 -6.0343779e+89)
(-4.2947006e+90 5.9492116e+88 -5.3672748e+89)
(-3.8627794e+90 2.1184273e+88 -1.4379217e+89)
(-3.7881908e+90 -2.9334471e+88 -2.9833077e+89)
(-3.8431917e+90 -5.2464955e+88 -1.8534719e+89)
(-3.7711658e+90 -3.1332314e+88 -3.7895205e+89)
(-3.7644805e+90 -6.3973794e+88 -3.8415382e+89)
(-3.7714457e+90 -1.1444633e+88 -4.154353e+89)
(-4.3286307e+90 -7.0621281e+86 -5.0687351e+89)
(-4.3003341e+90 4.8307178e+88 -5.3518272e+89)
(-4.7162426e+90 5.7839323e+89 5.5395726e+89)
(-4.7249438e+90 4.9147415e+89 6.175269e+89)
(-3.1789383e+90 8.7582302e+89 -4.9455515e+89)
(-3.2566031e+90 7.0113126e+89 -4.5509672e+89)
(-4.3725905e+90 4.0266769e+89 -8.6906762e+88)
(-4.2756849e+90 3.2151809e+89 -3.4378742e+89)
(-4.1422432e+90 3.0777786e+89 -3.5591207e+89)
(-4.1828726e+90 2.7480549e+89 -3.3440741e+89)
(-4.745381e+90 2.3960845e+89 -7.7245525e+88)
(-4.7470524e+90 7.5585073e+88 -8.1634422e+88)
(-4.4164264e+90 7.3906127e+88 -5.4108415e+89)
(-4.3860817e+90 9.9473724e+88 -5.6822315e+89)
(-4.5530817e+90 9.4568804e+88 -2.3163839e+89)
(-4.5526477e+90 -6.7486179e+87 -2.5555187e+89)
(-4.3930575e+90 6.2625923e+88 -5.4057823e+89)
(-4.355018e+90 1.207673e+89 -5.7011092e+89)
(-4.5792943e+90 9.3152344e+88 -2.1138535e+89)
(-4.5614007e+90 6.9408179e+87 -2.3293318e+89)
(-4.0487159e+90 3.5879434e+89 -3.3592544e+89)
(-4.1219026e+90 2.9865884e+89 -3.3452527e+89)
(-4.7082265e+90 2.3293082e+89 -8.9281835e+88)
(-4.6995972e+90 1.0454386e+89 -8.3535405e+88)
(-3.0966918e+90 6.0096767e+89 -4.4369458e+89)
(-4.3849382e+90 5.135437e+89 3.290226e+89)
(-4.4633919e+90 4.2446146e+89 3.208155e+89)
(-3.0836937e+90 4.9407872e+89 -4.6926889e+89)
(-3.8070229e+90 7.9237758e+89 -3.7869554e+88)
(-3.8074975e+90 5.0362494e+89 -3.6525899e+88)
(-4.3449124e+90 5.7837063e+89 3.0082712e+89)
(-4.355305e+90 4.7853e+89 3.3703485e+89)
(-3.0327934e+90 8.2475138e+89 -4.7676054e+89)
(-3.0746121e+90 6.6448951e+89 -4.5496377e+89)
(-4.2449263e+90 4.5946183e+89 -1.4936352e+89)
(-3.679518e+90 9.8972555e+89 -3.6846233e+88)
(-3.7876463e+90 6.5709621e+89 -1.8788173e+88)
(-4.1277928e+90 9.1087035e+89 -1.3650036e+89)
(-4.3320987e+90 5.4823949e+89 3.3009864e+89)
(-4.3661932e+90 4.4880112e+89 3.4417547e+89)
(-3.0357114e+90 7.322144e+89 -4.5191571e+89)
(-3.0463275e+90 5.8949236e+89 -4.5395856e+89)
(-4.2632859e+90 5.1887741e+89 3.907832e+89)
(-2.9059399e+90 9.1069791e+89 -4.7070277e+89)
(-4.2737408e+90 5.9497317e+89 3.2977735e+89)
(-2.9554845e+90 7.753705e+89 -4.2552907e+89)
(-4.2918437e+90 2.5563946e+88 -2.7003827e+89)
(-4.0802983e+90 4.3312297e+88 -5.1264023e+89)
(-4.0306769e+90 4.8090734e+88 -5.4990488e+89)
(-4.2516742e+90 -5.5888508e+88 -3.1767751e+89)
(-4.2592201e+90 2.0124428e+89 -2.6637058e+89)
(-3.8715219e+90 2.4889067e+89 -5.6342487e+89)
(-3.8995851e+90 2.5208988e+89 -5.71028e+89)
(-4.2879686e+90 8.9955537e+88 -2.6417632e+89)
(-3.8999765e+90 2.6019159e+89 -5.6528516e+89)
(-3.8950869e+90 2.2978976e+89 -5.7342494e+89)
(-4.2681842e+90 1.6471663e+89 -2.7700272e+89)
(-4.2872943e+90 6.8200442e+88 -2.6018124e+89)
(-4.2016375e+90 -3.4375246e+87 -3.5037908e+89)
(-4.021537e+90 7.8735263e+87 -5.5800293e+89)
(-4.0375097e+90 3.5036975e+88 -5.4611934e+89)
(-4.2123027e+90 -5.5401168e+88 -3.509719e+89)
(-3.974465e+90 -1.0963067e+88 -1.9073322e+89)
(-3.8985044e+90 -6.7564741e+88 -3.7116578e+89)
(-3.8835326e+90 -5.5335058e+88 -4.237577e+89)
(-3.9594886e+90 -8.0044346e+88 -2.6319052e+89)
(-4.1214349e+90 -2.3868731e+88 -2.6012511e+89)
(-4.0449727e+90 -5.1251762e+88 -4.1322453e+89)
(-4.0160138e+90 -5.6734628e+88 -4.7617583e+89)
(-4.1059311e+90 -9.4407168e+88 -3.0099912e+89)
(-4.0036115e+90 -5.4751608e+88 -4.9330631e+89)
(-4.009425e+90 -9.7049708e+88 -4.743893e+89)
(-4.0978791e+90 -5.8236316e+88 -2.97025e+89)
(-4.1009419e+90 -9.3117906e+88 -3.1434215e+89)
(-3.9437597e+90 -3.3067208e+88 -2.9180199e+89)
(-3.8782783e+90 -1.0126288e+89 -4.3421117e+89)
(-3.8862485e+90 -5.1479275e+88 -4.4554334e+89)
(-3.9494387e+90 -5.7953364e+88 -3.1123142e+89)
(-4.0274816e+90 -2.962215e+88 -2.0236548e+89)
(-3.9229664e+90 -8.4509932e+88 -3.541526e+89)
(-3.9238782e+90 -4.086998e+88 -4.3928461e+89)
(-4.0096977e+90 -7.8339296e+88 -2.493008e+89)
(-4.1475052e+90 -4.5863051e+88 -2.7171578e+89)
(-4.0361145e+90 -7.7110948e+88 -4.8656715e+89)
(-4.0401536e+90 -3.6380636e+88 -5.0194413e+89)
(-4.1458271e+90 -8.6098159e+88 -2.9643567e+89)
(-4.0370003e+90 -1.0184088e+88 -5.1001717e+89)
(-4.0546221e+90 -7.9562746e+88 -4.8152316e+89)
(-4.1503155e+90 -5.2066768e+88 -2.4754597e+89)
(-4.1436896e+90 -6.4418909e+88 -3.0984772e+89)
(-3.9945238e+90 -2.6863694e+88 -2.9054778e+89)
(-3.9279464e+90 -9.1232346e+88 -4.1938774e+89)
(-3.9331241e+90 -3.3102832e+88 -4.4709682e+89)
(-3.9982181e+90 -4.7854733e+88 -3.145753e+89)
(-3.8759207e+90 2.9329273e+89 -5.6213219e+89)
(-3.908678e+90 2.4109089e+89 -5.6919647e+89)
(-4.3011751e+90 1.3539317e+89 -2.6399659e+89)
(-4.2777896e+90 7.9079723e+88 -2.6350974e+89)
(-3.9094779e+90 2.5497892e+89 -5.7049207e+89)
(-3.9278176e+90 2.2333325e+89 -5.6189877e+89)
(-4.3153188e+90 1.5077511e+89 -2.5164729e+89)
(-4.2981085e+90 6.3401463e+88 -2.6798064e+89)
(-4.0644773e+90 4.5766358e+88 -5.5462067e+89)
(-4.0754593e+90 4.7962562e+87 -5.3906799e+89)
(-4.2412581e+90 -3.7703165e+87 -3.3888452e+89)
(-4.2464372e+90 -4.9360936e+88 -3.5249884e+89)
(-4.2405233e+90 4.9065784e+87 -3.5307039e+89)
(-4.0689614e+90 3.7778997e+87 -5.5264325e+89)
(-4.0637379e+90 5.8319418e+88 -5.4772487e+89)
(-4.2386363e+90 -1.943192e+88 -3.5691291e+89)
(-4.3163519e+90 2.0677108e+88 -2.6586261e+89)
(-4.1011897e+90 3.44679e+88 -5.073734e+89)
(-4.0329071e+90 5.7437161e+88 -5.5383412e+89)
(-4.2496717e+90 -5.4919704e+88 -3.1673953e+89)
(-4.2831983e+90 1.9040083e+89 -2.5033091e+89)
(-3.8927811e+90 2.5707207e+89 -5.5724401e+89)
(-3.8874057e+90 2.6410467e+89 -5.6939824e+89)
(-4.2803913e+90 7.8129539e+88 -2.627712e+89)
(-3.8676239e+90 2.9304092e+89 -5.590727e+89)
(-3.8995606e+90 2.4347004e+89 -5.6376362e+89)
(-4.2904052e+90 1.4723822e+89 -2.5403255e+89)
(-4.2641448e+90 8.0311347e+88 -2.5777666e+89)
(-4.2248365e+90 9.1310794e+87 -3.461154e+89)
(-4.0529495e+90 1.4329496e+88 -5.4501949e+89)
(-4.0452516e+90 6.6814309e+88 -5.4512735e+89)
(-4.227642e+90 -2.1000935e+88 -3.5127117e+89)
(-4.1497862e+90 -2.1096109e+88 -2.6412754e+89)
(-4.0722662e+90 -5.4547882e+88 -4.1592068e+89)
(-4.1322278e+90 -8.5104436e+88 -3.0273648e+89)
(-4.028688e+90 -4.3633686e+88 -4.8481388e+89)
(-3.9948518e+90 -9.0799017e+87 -2.5846242e+89)
(-3.9379658e+90 -6.5070329e+88 -3.8213267e+89)
(-3.923885e+90 -4.5264325e+88 -4.1323923e+89)
(-3.9910074e+90 -6.9116726e+88 -2.8380157e+89)
(-4.0480693e+90 -7.7375663e+88 -4.7738324e+89)
(-4.1288255e+90 -3.8145184e+88 -3.0491134e+89)
(-4.1279732e+90 -5.383623e+88 -3.2682563e+89)
(-4.0283757e+90 -1.2045318e+88 -5.0594724e+89)
(-3.9251112e+90 -1.418553e+88 -4.4638896e+89)
(-3.9236405e+90 -7.7588582e+88 -4.4192154e+89)
(-3.9852873e+90 -1.1449734e+88 -3.0398804e+89)
(-3.9992975e+90 8.5510054e+87 -5.0014625e+89)
(-4.0410253e+90 -4.4119067e+88 -4.3085131e+89)
(-4.1263291e+90 -4.6559338e+88 -2.7669218e+89)
(-4.1384996e+90 -1.3927968e+88 -2.3832776e+89)
(-4.0098784e+90 1.708638e+88 -5.1068163e+89)
(-4.0371406e+90 -3.0610831e+88 -4.6491721e+89)
(-4.1514167e+90 -9.2447086e+87 -2.2713057e+89)
(-4.1255808e+90 -4.0261793e+88 -3.0027046e+89)
(-3.9126002e+90 -1.9307094e+87 -4.4205463e+89)
(-3.9344759e+90 -4.2258645e+88 -4.0193814e+89)
(-3.8576727e+90 2.7965365e+89 -5.6675299e+89)
(-3.874229e+90 2.6387734e+89 -5.5547795e+89)
(-4.2605063e+90 1.8611895e+89 -2.637172e+89)
(-4.286161e+90 6.8857193e+88 -2.5032633e+89)
(-4.0349308e+90 8.1850474e+88 -5.4950628e+89)
(-4.2240476e+90 4.9406604e+88 -3.3891788e+89)
(-4.0473588e+90 5.8849569e+88 -5.4241447e+89)
(-4.2191571e+90 1.6252077e+87 -3.500859e+89)
(-4.2808913e+90 3.4411842e+88 -2.7229991e+89)
(-4.1224075e+90 3.837225e+88 -5.0287074e+89)
(-3.9906907e+90 1.121382e+89 -5.5193369e+89)
(-4.2211609e+90 -3.9997024e+86 -3.190727e+89)
(-4.2544721e+90 1.7474337e+89 -2.3698223e+89)
(-3.831038e+90 2.8313428e+89 -5.5644832e+89)
(-3.7815585e+90 3.4213697e+89 -5.5682584e+89)
(-4.1922598e+90 1.4346538e+89 -2.6641979e+89)
(-3.7009059e+90 8.8339139e+89 4.2354173e+89)
(-3.7491861e+90 5.2081786e+89 4.3652068e+89)
(-3.553328e+90 8.829754e+89 -6.7323258e+88)
(-3.5941142e+90 5.3152992e+89 -8.2534412e+88)
(-3.543105e+90 7.1726278e+89 -1.7142922e+89)
(-3.5284463e+90 4.9781815e+89 -1.8338131e+89)
(-3.4588365e+90 9.0533669e+89 -1.8601292e+89)
(-3.5275597e+90 6.176849e+89 -1.7881693e+89)
(-3.9342523e+90 4.2957602e+89 -1.763667e+89)
(-3.0888216e+90 5.0517358e+89 -5.4355306e+89)
(-3.0764001e+90 4.3960463e+89 -5.675022e+89)
(-3.9847332e+90 3.7113127e+89 -1.7854758e+89)
(-3.9593506e+90 4.5316373e+89 -1.9481138e+89)
(-3.0667478e+90 6.5578507e+89 -5.738619e+89)
(-3.0947386e+90 5.48644e+89 -5.6554326e+89)
(-3.9640846e+90 4.0068789e+89 -1.842029e+89)
(-3.0885496e+90 4.9622057e+89 -5.6780073e+89)
(-3.0863502e+90 5.9273594e+89 -5.6248867e+89)
(-3.9608883e+90 4.2833849e+89 -1.9267762e+89)
(-3.9850162e+90 3.7563804e+89 -1.8261761e+89)
(-3.0427497e+90 6.5856672e+89 -5.5226677e+89)
(-3.0023405e+90 7.4897789e+89 -5.8267831e+89)
(-3.9341037e+90 4.755674e+89 -1.9821256e+89)
(-3.9204129e+90 4.3893283e+89 -1.7170388e+89)
(-3.4263015e+90 1.1023497e+90 -6.7053872e+88)
(-3.4619255e+90 8.111272e+89 -1.862748e+89)
(-3.5025997e+90 5.5070547e+89 -1.8274501e+89)
(-3.9261744e+90 4.4540632e+89 -1.794489e+89)
(-3.0653954e+90 5.8176419e+89 -5.5015551e+89)
(-3.0617808e+90 5.0383524e+89 -5.6171568e+89)
(-3.9562905e+90 3.8722279e+89 -1.7641776e+89)
(-3.907687e+90 4.750001e+89 -1.9432149e+89)
(-2.9946855e+90 7.3987382e+89 -5.8460154e+89)
(-3.0421148e+90 6.3291674e+89 -5.6234031e+89)
(-3.916915e+90 4.2615609e+89 -1.6918192e+89)
(-3.6007422e+90 6.9796615e+89 -9.9813563e+88)
(-3.5688446e+90 1.1096433e+90 4.2590763e+89)
(-3.7253551e+90 6.7538711e+89 4.2623797e+89)
(-3.8312989e+90 2.7591591e+89 -2.8890196e+89)
(-3.8380713e+90 2.5433297e+89 -2.9325616e+89)
(-3.8647972e+90 1.0088134e+89 -2.764278e+89)
(-3.8582612e+90 1.1285459e+89 -2.8614865e+89)
(-3.821373e+90 2.7078764e+89 -3.0143173e+89)
(-3.7958423e+90 2.8179059e+89 -2.8832733e+89)
(-3.8392761e+90 1.142992e+89 -3.062869e+89)
(-3.8148562e+90 1.5131364e+89 -2.8954214e+89)
(-3.733857e+90 5.0324431e+88 -2.9844888e+89)
(-3.6504415e+90 -1.6728554e+88 -2.5047154e+89)
(-3.6456107e+90 -4.5755115e+88 -2.7407278e+89)
(-3.7390233e+90 1.474853e+88 -3.1648459e+89)
(-3.7607779e+90 2.1294844e+88 -2.9429581e+89)
(-3.6683912e+90 -3.301696e+88 -2.5592007e+89)
(-3.6956287e+90 -3.6131259e+88 -2.4814463e+89)
(-3.7804501e+90 1.0844598e+88 -2.8599811e+89)
(-3.6152346e+90 -5.679181e+88 -1.8384924e+89)
(-3.5764719e+90 -5.4077674e+88 -2.0256824e+89)
(-3.4702913e+90 -5.1564732e+88 -1.6343755e+89)
(-3.5085332e+90 -4.6531612e+88 -1.5658778e+89)
(-3.5593091e+90 -7.2966724e+88 -2.0313764e+89)
(-3.564639e+90 -4.4729041e+88 -1.9509638e+89)
(-3.4619983e+90 -5.0083115e+88 -1.4964739e+89)
(-3.4506797e+90 -7.3209802e+88 -1.6669787e+89)
(-3.3477267e+90 -5.7731893e+88 -1.4428636e+89)
(-3.4121503e+90 -2.8328957e+88 -1.3600516e+89)
(-3.3717595e+90 -3.5820298e+88 -1.3949721e+89)
(-3.2751319e+90 -1.4696825e+88 -1.3355031e+89)
(-3.3164211e+90 -6.3729699e+87 -1.3349027e+89)
(-3.6368453e+90 -3.4296967e+88 -2.0085405e+89)
(-3.6019449e+90 -4.2632057e+88 -2.0536692e+89)
(-3.5051914e+90 -4.2061179e+88 -1.5687196e+89)
(-3.5424982e+90 -3.7427636e+88 -1.5445902e+89)
(-3.620158e+90 -4.8471075e+88 -2.03859e+89)
(-3.6151618e+90 -3.7252611e+88 -1.9256836e+89)
(-3.5172937e+90 -2.6531403e+88 -1.4927178e+89)
(-3.5266289e+90 -4.9940676e+88 -1.1187024e+89)
(-3.3333938e+90 8.2266192e+87 -1.2430176e+89)