/*--------------------------------*- C++ -*----------------------------------*\
  =========                 |
  \\      /  F ield         | OpenFOAM: The Open Source CFD Toolbox
   \\    /   O peration     | Website:  https://openfoam.org
    \\  /    A nd           | Version:  7
     \\/     M anipulation  |
\*---------------------------------------------------------------------------*/
FoamFile
{
    version     2.0;
    format      ascii;
    class       volVectorField;
    location    "2000";
    object      UMean;
}
// * * * * * * * * * * * * * * * * * * * * * * * * * * * * * * * * * * * * * //

dimensions      [0 1 -1 0 0 0 0];

internalField   nonuniform List<vector> 
34158
(
(-2.5986325e+88 1.3269291e+87 -1.8539704e+87)
(-2.5873945e+88 7.1005302e+86 -1.7788508e+87)
(-2.5846515e+88 1.2998735e+87 -1.8071519e+87)
(-2.5710642e+88 5.8071678e+86 -1.8052856e+87)
(-2.408286e+88 9.9763017e+86 -8.6472445e+86)
(-2.3856476e+88 1.2295782e+87 -8.4555577e+86)
(-2.6751181e+88 8.2895977e+86 -1.1962252e+87)
(-2.6736197e+88 8.2467546e+86 -1.2045661e+87)
(-2.5109901e+88 4.4056171e+86 -1.5064254e+87)
(-2.5745926e+88 2.0909659e+86 -1.5558687e+87)
(-2.374133e+88 8.5937082e+86 -8.6463858e+86)
(-2.3630474e+88 1.0797009e+87 -8.0278677e+86)
(-2.654397e+88 7.7232868e+86 -1.2018095e+87)
(-2.6526366e+88 7.1510237e+86 -1.2574124e+87)
(-2.2229783e+88 1.1741587e+87 2.0324254e+86)
(-2.525014e+88 8.901794e+86 -6.8596803e+86)
(-2.2255399e+88 1.1679437e+87 2.6541487e+86)
(-2.5058451e+88 9.0104083e+86 -6.4769309e+86)
(-2.7215217e+88 7.0289053e+86 -5.6095914e+86)
(-2.7204929e+88 6.9997144e+86 -5.9615636e+86)
(-2.7178072e+88 6.0814253e+86 4.920879e+86)
(-2.7087591e+88 5.9934081e+86 5.167133e+86)
(-2.5760047e+88 5.0965106e+86 -1.4748992e+87)
(-2.5044692e+88 2.228272e+86 -1.5230504e+87)
(-2.4628027e+88 5.6664708e+86 -2.9437095e+87)
(-2.8046918e+88 5.8689962e+86 -1.0707684e+87)
(-2.8334784e+88 9.8883634e+85 -1.0577502e+87)
(-2.4624639e+88 7.3825319e+85 -2.9256528e+87)
(-2.2459751e+88 3.4100354e+86 -2.1752916e+87)
(-2.5097575e+88 3.8670962e+86 -1.6032068e+87)
(-2.5357137e+88 1.9813529e+86 -1.5944265e+87)
(-2.2495018e+88 9.5008996e+85 -2.2466121e+87)
(-2.2578491e+88 3.3322422e+86 -2.3313259e+87)
(-2.5107879e+88 4.0378512e+86 -1.8018187e+87)
(-2.5931022e+88 6.619718e+86 1.5758001e+87)
(-2.5909277e+88 2.8969313e+86 1.5614278e+87)
(-2.6803594e+88 6.8943461e+86 -1.3021719e+87)
(-2.6499452e+88 7.0377547e+86 -1.2289277e+87)
(-2.1774969e+88 8.958574e+86 2.6538149e+86)
(-2.5073768e+88 7.8018536e+86 -7.4362118e+86)
(-2.2046865e+88 1.0473205e+87 2.946118e+86)
(-2.4935357e+88 8.1959474e+86 -6.5666e+86)
(-2.7012359e+88 6.6872141e+86 -6.0038657e+86)
(-2.6948524e+88 6.1209581e+86 -6.4286387e+86)
(-2.8814023e+88 6.3426311e+86 -1.3019152e+87)
(-2.8728472e+88 5.3232463e+86 -1.2914389e+87)
(-2.2020788e+88 1.4373482e+87 5.2922225e+86)
(-2.3119146e+88 9.6483165e+86 2.1194684e+86)
(-2.5855487e+88 7.4745607e+86 -2.1086534e+86)
(-2.0426036e+88 1.2278872e+87 5.8284952e+86)
(-2.2987175e+88 1.0230022e+87 2.3194475e+86)
(-2.5684133e+88 7.3304815e+86 -1.5330311e+86)
(-2.7447727e+88 5.9377028e+86 9.8578211e+85)
(-2.7501065e+88 6.0233363e+86 4.5253461e+85)
(-2.7144768e+88 5.8009031e+86 5.7248401e+86)
(-2.7253136e+88 5.7047056e+86 5.6040484e+86)
(-2.6366657e+88 6.8776294e+86 4.8399558e+86)
(-2.6164616e+88 5.830454e+86 5.0806091e+86)
(-2.6841108e+88 5.1337196e+86 5.6652647e+86)
(-2.6773572e+88 5.4594663e+86 5.8496633e+86)
(-2.7060937e+88 4.0205225e+86 -2.7611894e+87)
(-2.5908707e+88 1.7036206e+86 -1.5219885e+87)
(-2.8206048e+88 7.2866617e+86 -1.0222294e+87)
(-2.4612462e+88 1.3861163e+86 -2.9488823e+87)
(-2.464726e+88 6.2398768e+86 -2.937828e+87)
(-2.809535e+88 2.4047233e+86 -1.0853485e+87)
(-2.2935039e+88 3.0976628e+86 -2.1674607e+87)
(-2.535819e+88 3.3817591e+86 -1.3537252e+87)
(-2.536848e+88 6.9163993e+85 -1.6221444e+87)
(-2.2660233e+88 2.0861446e+85 -2.2628491e+87)
(-2.2530863e+88 2.3899204e+86 -2.267216e+87)
(-2.5193159e+88 2.397102e+86 -1.7475906e+87)
(-2.5452293e+88 1.2139721e+86 -1.5640637e+87)
(-2.2513067e+88 2.9121511e+85 -2.2474523e+87)
(-2.3498284e+88 1.8694446e+86 -2.8109987e+87)
(-2.4941788e+88 3.7150162e+86 -1.0963888e+87)
(-2.5130151e+88 1.7563042e+86 -1.1830749e+87)
(-2.15487e+88 1.8727651e+86 -1.5292181e+87)
(-2.1613239e+88 7.1982546e+85 -1.5956752e+87)
(-2.1686398e+88 2.6554683e+86 -1.7294358e+87)
(-2.5262876e+88 2.6258055e+86 -1.2557729e+87)
(-2.3493895e+88 3.7992108e+86 -2.8358064e+87)
(-2.2193711e+88 1.4138433e+86 -2.5945231e+87)
(-2.2058156e+88 1.6625134e+86 -2.6632807e+87)
(-2.3816926e+88 1.9308339e+86 -1.6856648e+87)
(-2.3952857e+88 2.296128e+86 -1.6734179e+87)
(-2.2895609e+88 1.9895531e+86 -1.8877101e+87)
(-2.2798662e+88 1.4605759e+86 -1.8674484e+87)
(-2.3095394e+88 2.9720056e+86 -1.5471999e+87)
(-2.3073202e+88 2.0541534e+86 -1.9738955e+87)
(-2.2976459e+88 8.3045696e+85 -1.9490607e+87)
(-2.3221586e+88 9.7471856e+85 -1.5371909e+87)
(-2.3262723e+88 2.3753942e+86 -1.5924429e+87)
(-2.225782e+88 6.016522e+85 -2.6677746e+87)
(-2.3980139e+88 6.7738039e+85 -1.787441e+87)
(-2.227988e+88 1.558828e+86 -2.6513369e+87)
(-2.4057291e+88 1.8968764e+86 -1.8402979e+87)
(-2.2194923e+88 3.520533e+86 -2.7636372e+87)
(-2.2204077e+88 1.8820279e+86 -2.6947721e+87)
(-2.3955219e+88 1.6410847e+86 -1.8435018e+87)
(-2.395887e+88 3.9249226e+86 -1.9240314e+87)
(-2.3178535e+88 1.7089455e+86 -1.6097629e+87)
(-2.29667e+88 1.4004972e+86 -1.9673575e+87)
(-2.3227026e+88 4.4798358e+86 -1.6373442e+87)
(-2.2973451e+88 3.7560475e+86 -2.0360929e+87)
(-2.5966667e+88 6.3737885e+86 1.5459972e+87)
(-2.596951e+88 2.6590937e+86 1.5456696e+87)
(-2.6177095e+88 6.152779e+86 1.1531879e+87)
(-2.5652324e+88 3.7889769e+86 1.0863475e+87)
(-2.5860487e+88 4.2888341e+86 5.9851778e+86)
(-2.580865e+88 4.9287058e+86 5.9993318e+86)
(-2.5321375e+88 7.3994934e+86 -7.8451064e+86)
(-2.4988927e+88 7.6069292e+86 -7.1235479e+86)
(-2.7222427e+88 5.8179008e+86 -6.8978106e+86)
(-2.6976828e+88 6.1198625e+86 -6.2508213e+86)
(-2.8811576e+88 4.7165112e+86 -1.2905755e+87)
(-2.8882859e+88 5.7387922e+86 -1.3192979e+87)
(-2.052791e+88 6.5717711e+86 5.485116e+86)
(-2.2718073e+88 7.792346e+86 2.0064603e+86)
(-2.568089e+88 6.6297488e+86 -2.7116138e+86)
(-2.114931e+88 1.0285259e+87 5.1769792e+86)
(-2.2716208e+88 8.7154844e+86 2.5092015e+86)
(-2.5534854e+88 7.0053388e+86 -1.9704975e+86)
(-2.7234457e+88 5.6391211e+86 2.8497968e+85)
(-2.7134933e+88 5.3772945e+86 -1.1650239e+85)
(-2.8758396e+88 5.7299847e+86 -1.8070009e+86)
(-2.4714655e+88 7.8576283e+85 -7.0944152e+86)
(-2.47979e+88 4.5869188e+86 -7.771687e+86)
(-2.8693658e+88 4.2720353e+86 -1.5456112e+86)
(-2.4656032e+88 8.2631902e+85 -7.1771041e+86)
(-2.47152e+88 4.3615624e+86 -7.4794899e+86)
(-2.2119718e+88 1.3056083e+87 5.2155111e+86)
(-2.1763173e+88 9.8889051e+86 5.4696199e+86)
(-2.3822958e+88 8.0431648e+86 3.2443538e+86)
(-2.6320058e+88 6.3134695e+86 2.1250954e+86)
(-2.1905116e+88 1.287401e+87 5.6440055e+86)
(-2.1578718e+88 1.0127648e+87 5.591751e+86)
(-2.3641328e+88 8.4632917e+86 3.8960932e+86)
(-2.6063969e+88 6.0205334e+86 2.8075401e+86)
(-2.7218358e+88 5.1325301e+86 5.7639663e+86)
(-2.7327566e+88 5.2466004e+86 5.0484188e+86)
(-2.6281205e+88 6.0613578e+86 5.5034012e+86)
(-2.6160352e+88 6.138572e+86 5.9452958e+86)
(-2.6847436e+88 5.3183389e+86 6.0808918e+86)
(-2.6911717e+88 4.8381303e+86 6.1186354e+86)
(-2.4496508e+88 8.4947664e+86 4.5772385e+86)
(-2.6447835e+88 5.7292861e+86 5.6619945e+86)
(-2.4008493e+88 7.9217813e+86 4.2544387e+86)
(-2.609954e+88 5.44054e+86 5.9462955e+86)
(-2.5794193e+88 4.2270249e+86 -1.6346142e+87)
(-2.5644718e+88 2.9322991e+86 -1.4520832e+87)
(-2.5603825e+88 3.5285745e+86 6.7152982e+86)
(-2.7072095e+88 4.1550627e+86 -2.777913e+87)
(-2.2301278e+88 1.0259861e+86 -1.3359411e+87)
(-2.8324448e+88 9.9848389e+85 -1.0361255e+87)
(-2.4682845e+88 1.0054242e+86 -2.9395217e+87)
(-2.3195394e+88 2.2888633e+86 -2.2574622e+87)
(-2.546861e+88 2.8482632e+86 -1.4672694e+87)
(-2.5640268e+88 5.0011102e+85 -1.345652e+87)
(-2.311955e+88 2.1641866e+85 -2.2585776e+87)
(-2.5281279e+88 4.4051517e+86 -1.1497764e+87)
(-2.1712949e+88 2.4920021e+86 -1.7303298e+87)
(-2.1687268e+88 1.715187e+86 -1.7291839e+87)
(-2.531877e+88 2.4952348e+86 -1.2124848e+87)
(-2.3497016e+88 4.5991644e+86 -2.8214074e+87)
(-2.3436252e+88 2.4929582e+86 -2.8301244e+87)
(-2.5124841e+88 3.5112666e+86 -1.2047238e+87)
(-2.5061199e+88 1.5838294e+86 -1.1134816e+87)
(-2.1598085e+88 3.8186706e+86 -1.659831e+87)
(-2.1583915e+88 2.7397901e+86 -1.5407633e+87)
(-2.3561312e+88 1.0439197e+86 -1.6653252e+87)
(-2.1860153e+88 5.6648669e+85 -2.6807973e+87)
(-2.2189162e+88 -1.8413283e+85 -2.5197182e+87)
(-2.3745659e+88 6.2407212e+85 -1.4330401e+87)
(-2.2913996e+88 8.8273496e+85 -1.3945989e+87)
(-2.2569872e+88 3.7906355e+85 -1.8970079e+87)
(-2.2665929e+88 2.661143e+85 -1.6988396e+87)
(-2.2853003e+88 1.2746398e+86 -1.3964143e+87)
(-2.3302977e+88 -8.4202994e+85 -1.5009704e+87)
(-2.2939183e+88 -9.9938397e+85 -2.027139e+87)
(-2.3026373e+88 1.0264915e+86 -1.9731199e+87)
(-2.3262361e+88 1.2349321e+86 -1.5468988e+87)
(-2.2309422e+88 -3.2841836e+84 -2.6798522e+87)
(-2.2212422e+88 -9.3159052e+85 -2.7624997e+87)
(-2.3934704e+88 -8.4910687e+85 -1.9199864e+87)
(-2.4067395e+88 8.2465396e+85 -1.8119594e+87)
(-2.4174735e+88 4.9096677e+85 -1.5909447e+87)
(-2.2278008e+88 2.0644446e+85 -2.6665022e+87)
(-2.2312078e+88 9.6856533e+85 -2.6658348e+87)
(-2.4042797e+88 1.2356223e+86 -1.7973673e+87)
(-2.3019436e+88 3.6196844e+84 -1.9037596e+87)
(-2.3214034e+88 4.267237e+85 -1.5306073e+87)
(-2.2980565e+88 1.0887225e+86 -1.9976903e+87)
(-2.3190333e+88 2.1827762e+86 -1.6448479e+87)
(-2.3076251e+88 1.3751327e+86 -1.8663652e+87)
(-2.3025593e+88 2.9533272e+85 -2.0447026e+87)
(-2.326732e+88 5.360377e+85 -1.6006261e+87)
(-2.222985e+88 1.109072e+85 -2.7029149e+87)
(-2.4070885e+88 9.686371e+84 -1.8615671e+87)
(-2.4231661e+88 1.0594931e+86 -1.5731074e+87)
(-2.2222302e+88 8.7632024e+85 -2.7244513e+87)
(-2.1748739e+88 5.413822e+85 6.4612658e+86)
(-2.0409194e+88 -2.6623497e+86 -2.672924e+87)
(-2.0643163e+88 5.2744249e+86 -2.6872505e+87)
(-2.3508473e+88 2.0053646e+86 -1.5243539e+87)
(-2.3770845e+88 2.8854812e+86 -1.488186e+87)
(-2.0735589e+88 -3.5595715e+85 -1.1522757e+87)
(-2.0870968e+88 2.3885715e+86 -1.0914112e+87)
(-2.3786143e+88 8.0813828e+85 -1.6335304e+87)
(-2.0984749e+88 -3.794731e+84 -1.2124999e+87)
(-2.1084107e+88 3.3964248e+86 -1.1957699e+87)
(-2.3768894e+88 2.200875e+86 -1.6169371e+87)
(-2.0718825e+88 -1.501429e+86 -2.7629193e+87)
(-2.3649248e+88 1.4952715e+86 -1.6812035e+87)
(-2.3813217e+88 2.9742078e+86 -1.6963703e+87)
(-2.094391e+88 5.8348547e+84 -1.2621006e+87)
(-2.0955015e+88 3.2594234e+86 -1.2984508e+87)
(-2.1809445e+88 4.9987501e+86 6.029438e+86)
(-2.133883e+88 1.6625324e+86 -2.7846697e+87)
(-2.1284269e+88 -1.2334759e+86 -2.8247604e+87)
(-2.2222242e+88 1.825202e+86 -1.9272839e+87)
(-2.2178443e+88 -1.2854419e+86 -1.9261779e+87)
(-2.1061054e+88 2.1092842e+86 -2.7936446e+87)
(-2.1023869e+88 6.0012088e+85 -2.8772333e+87)
(-2.1969189e+88 2.5655212e+86 -1.8997496e+87)
(-2.1944427e+88 3.7581669e+85 -1.8989827e+87)
(-2.1257347e+88 -1.116231e+83 -1.8948334e+87)
(-2.1520134e+88 2.0802759e+85 -1.5344204e+87)
(-2.1547083e+88 2.611035e+86 -1.5060171e+87)
(-2.1241898e+88 1.7076963e+86 -1.9064333e+87)
(-2.1439306e+88 -9.8797408e+85 -1.9371894e+87)
(-2.1679057e+88 -8.5764933e+85 -1.5956426e+87)
(-2.1742406e+88 2.0542116e+86 -1.564163e+87)
(-2.1495519e+88 1.488139e+86 -1.9206502e+87)
(-2.1251986e+88 2.1504575e+86 -1.5327056e+87)
(-2.1229253e+88 -4.7485633e+85 -1.5583954e+87)
(-2.1136679e+88 -1.360009e+84 -1.4471981e+87)
(-2.1209325e+88 2.4887018e+86 -1.3854763e+87)
(-2.1062392e+88 2.3177199e+86 -1.4758773e+87)
(-2.1113566e+88 3.9270535e+85 -1.4874756e+87)
(-2.1019573e+88 6.5204721e+85 -1.3820055e+87)
(-2.1035696e+88 2.5955804e+86 -1.3271561e+87)
(-2.0532358e+88 2.4218179e+86 -1.2709089e+87)
(-2.0706645e+88 2.4483549e+86 -1.3368588e+87)
(-2.0635041e+88 3.9070991e+85 -1.3813412e+87)
(-2.0592641e+88 9.3876526e+85 -1.3043595e+87)
(-2.065747e+88 2.6406236e+86 -1.2686709e+87)
(-2.1437742e+88 2.0391523e+86 -1.5770599e+87)
(-2.1491466e+88 -1.0971138e+85 -1.6262433e+87)
(-2.1357983e+88 3.2795505e+85 -1.4701085e+87)
(-2.1337857e+88 2.2445147e+86 -1.4534513e+87)
(-2.1293439e+88 3.0581153e+86 -1.5822346e+87)
(-2.128091e+88 3.3487188e+85 -1.5803766e+87)
(-2.1152148e+88 7.9933333e+85 -1.453846e+87)
(-2.1279892e+88 3.363305e+86 -1.4284129e+87)
(-2.0637515e+88 1.4940187e+86 -1.3139288e+87)
(-2.0656994e+88 1.1683321e+86 -1.3909009e+87)
(-2.0747483e+88 3.3064675e+86 -1.3949717e+87)
(-2.0745633e+88 3.1815613e+86 -1.2763209e+87)
(-2.0790602e+88 1.2998678e+86 -1.3055804e+87)
(-2.0825407e+88 8.1790816e+85 -1.4047077e+87)
(-2.0834313e+88 2.2338605e+86 -1.3748665e+87)
(-2.079104e+88 2.3776994e+86 -1.2871878e+87)
(-2.1455286e+88 2.4798774e+86 -2.8035566e+87)
(-2.1391332e+88 -9.038748e+85 -2.8301759e+87)
(-2.2253314e+88 -3.2896228e+85 -1.9815479e+87)
(-2.2343705e+88 2.6914967e+86 -1.9890522e+87)
(-2.1539802e+88 -2.37979e+85 -1.9491789e+87)
(-2.1726499e+88 3.5261792e+84 -1.6373915e+87)
(-2.1813484e+88 3.055361e+86 -1.6296188e+87)
(-2.1578526e+88 2.1902181e+86 -1.9893968e+87)
(-2.246228e+88 -1.0992065e+86 -1.9529223e+87)
(-2.145803e+88 -9.5701642e+85 -2.807359e+87)
(-2.1499962e+88 1.5217736e+86 -2.8119248e+87)
(-2.2392291e+88 1.4895856e+86 -2.0070652e+87)
(-2.1681106e+88 1.5647829e+86 -1.9708324e+87)
(-2.1762874e+88 -6.6189295e+85 -2.1095351e+87)
(-2.2003385e+88 -6.1827922e+85 -1.6622812e+87)
(-2.1889827e+88 2.0067516e+86 -1.6331709e+87)
(-2.1317827e+88 4.1772618e+86 -2.7991718e+87)
(-2.1352557e+88 -3.1218713e+84 -2.7864624e+87)
(-2.2260863e+88 -5.8145234e+85 -1.9235586e+87)
(-2.2153006e+88 3.8830241e+86 -1.9805227e+87)
(-2.1324034e+88 3.2115801e+86 -2.8238887e+87)
(-2.1358761e+88 6.2847984e+85 -2.8441583e+87)
(-2.2278417e+88 4.190472e+85 -1.934309e+87)
(-2.2211091e+88 3.2676817e+86 -1.993574e+87)
(-2.1796219e+88 7.2189517e+85 -1.5799401e+87)
(-2.1563404e+88 5.1351987e+85 -1.9252784e+87)
(-2.1495718e+88 2.7225915e+86 -1.9807116e+87)
(-2.1728997e+88 3.2840163e+86 -1.6406201e+87)
(-2.1513093e+88 3.6678899e+86 -1.9162064e+87)
(-2.1541598e+88 -6.7961785e+84 -1.9343624e+87)
(-2.1770452e+88 -7.852016e+84 -1.6193445e+87)
(-2.1705048e+88 3.8267828e+86 -1.6248918e+87)
(-2.0783865e+88 2.0010547e+86 -1.1947736e+87)
(-2.0707383e+88 1.4875934e+86 -1.3682848e+87)
(-2.0673398e+88 3.1247626e+86 -1.4136575e+87)
(-2.0647717e+88 3.1986656e+86 -1.3049601e+87)
(-2.1242119e+88 1.1846806e+86 -1.4006471e+87)
(-2.1287611e+88 8.5407852e+85 -1.5314238e+87)
(-2.1271057e+88 3.0463965e+86 -1.5869743e+87)
(-2.1176379e+88 3.2462373e+86 -1.4842825e+87)
(-2.0789765e+88 1.805315e+86 -1.243352e+87)
(-2.0684124e+88 1.2155753e+86 -1.4117408e+87)
(-2.066039e+88 3.7722409e+86 -1.4237417e+87)
(-2.0627227e+88 3.8592418e+86 -1.3402027e+87)
(-2.1219356e+88 8.1415558e+85 -1.4854264e+87)
(-2.1312948e+88 2.9982123e+85 -1.5754375e+87)
(-2.1265556e+88 3.6165439e+86 -1.5757013e+87)
(-2.1151189e+88 3.7850061e+86 -1.4946033e+87)
(-2.7270359e+88 4.0429693e+86 2.2367193e+87)
(-2.6004371e+88 5.8022634e+86 1.5737493e+87)
(-2.6027049e+88 2.4362679e+86 1.5677089e+87)
(-2.5878661e+88 5.6833878e+86 1.1004765e+87)
(-2.5689535e+88 2.832842e+86 1.0882437e+87)
(-2.5927782e+88 4.0060512e+86 6.0636963e+86)
(-2.5867316e+88 4.76145e+86 6.0372617e+86)
(-2.3743406e+88 5.6326719e+86 2.6336374e+86)
(-2.6423791e+88 5.0035142e+86 8.3803374e+86)
(-2.2831739e+88 5.9991564e+86 2.4571785e+86)
(-2.5942534e+88 5.0770166e+86 8.3177793e+86)
(-2.7286481e+88 5.1820122e+86 -6.6661759e+86)
(-2.72927e+88 4.3262356e+86 -6.8288589e+86)
(-2.2916065e+88 7.3665704e+86 2.034037e+86)
(-2.5899769e+88 6.1154338e+86 -3.2648109e+86)
(-2.2591582e+88 7.8144501e+86 2.4553925e+86)
(-2.5604038e+88 6.2569346e+86 -2.4280894e+86)
(-2.7327593e+88 5.0349772e+86 -6.5236311e+85)
(-2.7265683e+88 5.2594411e+86 -1.2612153e+84)
(-2.8765514e+88 3.5301737e+86 -1.6128991e+86)
(-2.4706878e+88 4.4924031e+86 -7.278173e+86)
(-2.493006e+88 7.3831263e+85 -7.4252089e+86)
(-2.8827127e+88 5.2026056e+86 -1.7857754e+86)
(-2.4897904e+88 7.1170388e+85 -6.9427148e+86)
(-2.4688423e+88 3.6106921e+86 -7.5562219e+86)
(-2.1516312e+88 7.6752555e+86 5.7934728e+86)
(-2.174908e+88 6.3918127e+86 5.2717922e+86)
(-2.3487189e+88 6.9322242e+86 2.8558807e+86)
(-2.6049299e+88 5.7610905e+86 1.5321256e+86)
(-2.1727351e+88 1.0360002e+87 5.6863674e+86)
(-2.1664391e+88 8.2657396e+86 5.4921415e+86)
(-2.3330753e+88 7.641263e+86 3.6259978e+86)
(-2.5871025e+88 5.8682746e+86 2.056667e+86)
(-2.694073e+88 4.677079e+86 4.8887541e+86)
(-2.6981184e+88 4.578897e+86 4.3592413e+86)
(-2.8270155e+88 5.4988451e+86 5.9371194e+86)
(-2.4702434e+88 5.6850737e+85 9.8482248e+86)
(-2.4673505e+88 3.5475225e+86 9.439298e+86)
(-2.5432613e+88 4.3043193e+86 -3.3950577e+84)
(-2.5146694e+88 1.5250924e+86 1.8998632e+86)
(-2.8206684e+88 3.3490615e+86 6.2749485e+86)
(-2.4570952e+88 2.9611869e+86 9.7724334e+86)
(-2.4707998e+88 9.3290177e+85 9.5030185e+86)
(-2.5119237e+88 1.8115693e+86 1.7683097e+86)
(-2.5351244e+88 3.6239039e+86 3.6541541e+85)
(-2.2319165e+88 9.5705788e+86 5.6169722e+86)
(-2.251642e+88 8.1834473e+86 5.6275337e+86)
(-2.4241361e+88 6.7351474e+86 4.455143e+86)
(-2.6460447e+88 5.2504653e+86 4.8208379e+86)
(-2.235681e+88 1.0319815e+87 5.9953775e+86)
(-2.2558756e+88 7.9236117e+86 6.0074366e+86)
(-2.3848673e+88 6.8940915e+86 5.0927924e+86)
(-2.6213112e+88 4.750284e+86 5.5559971e+86)
(-2.6874564e+88 4.7365469e+86 6.2727529e+86)
(-2.6941738e+88 4.3751104e+86 5.6977341e+86)
(-2.4154794e+88 6.3364667e+86 5.2009831e+86)
(-2.6214889e+88 5.1330384e+86 6.1637039e+86)
(-2.3998822e+88 7.9176813e+86 6.7599591e+86)
(-2.6140967e+88 5.4376828e+86 6.3086818e+86)
(-2.1389981e+88 7.6438551e+86 6.347046e+86)
(-2.4571395e+88 7.3092181e+86 3.6660178e+86)
(-2.1187311e+88 7.1433279e+86 5.7639592e+86)
(-2.3933434e+88 7.1113842e+86 3.7155612e+86)
(-2.6047188e+88 3.7933343e+86 -3.592863e+86)
(-2.5788973e+88 2.5611383e+86 -2.9717681e+86)
(-2.5660873e+88 4.3719392e+86 -1.4679724e+87)
(-2.5841621e+88 3.2408512e+86 -1.6197032e+87)
(-2.6089593e+88 4.0278914e+86 -4.2619548e+86)
(-2.2018906e+88 4.545748e+86 -1.3293659e+87)
(-2.2092927e+88 1.0497371e+86 -1.3160033e+87)
(-2.2065398e+88 1.3902625e+86 -2.0516498e+87)
(-2.2037475e+88 4.8779604e+86 -2.0855086e+87)
(-2.572425e+88 2.2247212e+86 -1.6683739e+86)
(-2.182754e+88 3.8477226e+86 -1.1393839e+87)
(-2.1992604e+88 1.909872e+86 -1.2161581e+87)
(-2.5732658e+88 3.285862e+86 -1.5790684e+87)
(-2.5742722e+88 2.7315951e+86 -1.4455017e+87)
(-2.4148493e+88 2.7173722e+86 1.2871207e+87)
(-2.4114426e+88 3.6965747e+86 1.2977034e+87)
(-2.5548525e+88 3.6847897e+86 6.6463704e+86)
(-2.7168078e+88 4.1518667e+86 -2.7812761e+87)
(-2.241471e+88 1.2076435e+86 -1.2742521e+87)
(-2.0070747e+88 1.6041106e+86 -9.9363079e+86)
(-2.0018226e+88 1.2382813e+86 -1.0919591e+87)
(-2.0026286e+88 1.5671856e+86 -1.0654078e+87)
(-2.0018422e+88 1.3616767e+86 -1.1286352e+87)
(-1.9928332e+88 3.2538952e+85 -1.1574805e+87)
(-1.9976199e+88 1.1369064e+86 -1.1574606e+87)
(-2.2439556e+88 6.4961077e+85 -1.2828744e+87)
(-2.233747e+88 2.2146093e+86 -1.363248e+87)
(-2.551802e+88 2.3763901e+86 -1.2671932e+87)
(-2.5429133e+88 1.2554175e+86 -1.1728898e+87)
(-2.1779253e+88 3.3468277e+86 -1.8437087e+87)
(-2.1834977e+88 2.6675892e+86 -1.7690765e+87)
(-2.3557753e+88 4.6560561e+86 -2.8441684e+87)
(-2.2810245e+88 1.2734438e+86 -2.4155541e+87)
(-2.2310737e+88 8.2022876e+85 -2.6449062e+87)
(-2.233954e+88 3.4841048e+84 -2.6329461e+87)
(-2.3771809e+88 3.5299901e+85 -1.550537e+87)
(-2.3772806e+88 9.2870325e+85 -1.5911982e+87)
(-2.2781559e+88 4.7640541e+85 -1.7153603e+87)
(-2.2756622e+88 1.1690059e+86 -1.7865853e+87)
(-2.2874487e+88 9.1318793e+85 -1.4333728e+87)
(-2.2898218e+88 2.0837304e+86 -1.4903218e+87)
(-2.2810313e+88 -1.34181e+85 -1.7254055e+87)
(-2.2796306e+88 3.4254466e+85 -1.6993006e+87)
(-2.3026805e+88 1.0281747e+85 -1.3635389e+87)
(-2.2989432e+88 7.8627749e+85 -1.3599139e+87)
(-2.2289706e+88 4.3247393e+85 -2.656622e+87)
(-2.2312552e+88 -3.1301198e+84 -2.6506322e+87)
(-2.3809085e+88 -3.6965086e+85 -1.5402201e+87)
(-2.3793945e+88 7.5710013e+84 -1.5134599e+87)
(-2.0664917e+88 -7.3821448e+85 -1.350331e+87)
(-2.3450317e+88 1.7444263e+86 -1.5590029e+87)
(-2.3795972e+88 2.2574444e+86 -1.5069525e+87)
(-2.0783037e+88 1.7092341e+86 -1.2698475e+87)
(-2.0828287e+88 -2.3184041e+86 -2.786855e+87)
(-2.091268e+88 5.0005029e+86 -2.7680867e+87)
(-2.3803387e+88 3.6300231e+85 -1.7148995e+87)
(-2.3812352e+88 1.5286158e+86 -1.6720112e+87)
(-2.0927128e+88 -6.7080407e+85 -1.3439143e+87)
(-2.1027296e+88 2.6125368e+86 -1.2923533e+87)
(-2.1768088e+88 5.348367e+86 6.3229912e+86)
(-2.0708992e+88 -1.4698095e+86 -2.7321622e+87)
(-2.0565277e+88 6.3522145e+86 -2.6949704e+87)
(-2.1679853e+88 6.18413e+85 5.9560984e+86)
(-2.3754319e+88 9.0761876e+85 -1.6552238e+87)
(-2.3874328e+88 2.2652815e+86 -1.6383161e+87)
(-2.0992265e+88 -6.1320845e+85 -1.259886e+87)
(-2.0993449e+88 2.8663014e+86 -1.2386912e+87)
(-2.3700447e+88 1.4590274e+86 -1.5548972e+87)
(-2.0872919e+88 4.8918125e+85 -1.1565621e+87)
(-2.3821385e+88 2.3901049e+85 -1.560971e+87)
(-2.0836231e+88 3.3424529e+86 -1.179569e+87)
(-2.145918e+88 -2.5381059e+85 -1.4028317e+87)
(-2.113218e+88 -9.2621835e+85 -1.9918402e+87)
(-2.1097301e+88 1.2972833e+86 -1.8246346e+87)
(-2.1406213e+88 1.6263621e+86 -1.38225e+87)
(-2.1733903e+88 -3.5488689e+85 -1.8636602e+87)
(-2.0747468e+88 -9.134406e+85 -2.8726048e+87)
(-2.0810771e+88 1.8196386e+86 -2.7584512e+87)
(-2.1813594e+88 2.5356862e+86 -1.8186536e+87)
(-2.108328e+88 -1.9217079e+85 -2.7016843e+87)
(-2.0975402e+88 -2.1499113e+86 -2.8009829e+87)
(-2.1607324e+88 -1.4783162e+86 -1.9452931e+87)
(-2.1713428e+88 8.6268946e+84 -1.8562043e+87)
(-2.1247711e+88 -1.741556e+86 -1.5264275e+87)
(-2.0934719e+88 -1.6376129e+86 -1.9341941e+87)
(-2.1033531e+88 -2.588955e+85 -1.8510243e+87)
(-2.1312394e+88 2.5863857e+85 -1.4849885e+87)
(-2.0483721e+88 1.0533463e+86 -1.0904533e+87)
(-2.0384459e+88 5.0576701e+85 -1.2447467e+87)
(-2.0407893e+88 1.3414791e+86 -1.2324319e+87)
(-2.0427199e+88 1.316716e+86 -1.1406804e+87)
(-2.0943766e+88 2.0098639e+85 -1.2677323e+87)
(-2.0904321e+88 -2.7079839e+85 -1.5243142e+87)
(-2.0973753e+88 1.276113e+86 -1.3916619e+87)
(-2.0920046e+88 1.5209142e+86 -1.2699188e+87)
(-2.0887216e+88 3.6777803e+85 -1.4553725e+87)
(-2.0813369e+88 -1.4096972e+86 -1.4725719e+87)
(-2.0810409e+88 -8.8210175e+85 -1.3026878e+87)
(-2.085933e+88 7.7605616e+85 -1.3151455e+87)
(-2.0321104e+88 -3.9876428e+84 -1.1917305e+87)
(-2.0333068e+88 -5.1701843e+85 -1.2447299e+87)
(-2.038728e+88 7.167558e+85 -1.255561e+87)
(-2.0353875e+88 9.983849e+85 -1.2009143e+87)
(-2.0684793e+88 1.0241388e+85 -1.1928951e+87)
(-2.0530951e+88 -5.4260398e+85 -1.4454266e+87)
(-2.0633959e+88 1.9778905e+86 -1.394836e+87)
(-2.0698981e+88 1.8470311e+86 -1.2704273e+87)
(-2.1081509e+88 -9.1307291e+85 -1.4196038e+87)
(-2.1197146e+88 -1.3337632e+86 -1.5492326e+87)
(-2.1252964e+88 2.0297897e+86 -1.5976168e+87)
(-2.1147938e+88 2.0135805e+86 -1.4592996e+87)
(-2.1326988e+88 1.2919327e+86 -1.5594449e+87)
(-2.1218452e+88 -1.0907487e+86 -1.5312798e+87)
(-2.12143e+88 -7.8778792e+85 -1.4046877e+87)
(-2.1209333e+88 1.3664677e+86 -1.4281618e+87)
(-2.0697156e+88 1.8734067e+85 -1.2379211e+87)
(-2.0689229e+88 -2.7998388e+85 -1.3423693e+87)
(-2.0710314e+88 1.3992742e+86 -1.3502482e+87)
(-2.0682374e+88 1.4257083e+86 -1.2743125e+87)
(-2.1401424e+88 2.2788619e+85 -2.8515077e+87)
(-2.1350288e+88 -2.1290623e+86 -2.8328342e+87)
(-2.2258792e+88 -2.2048017e+86 -1.9477461e+87)
(-2.2265941e+88 2.6285514e+85 -1.9892064e+87)
(-2.1350442e+88 1.3527619e+86 -2.8046468e+87)
(-2.1298957e+88 -2.471475e+86 -2.7978669e+87)
(-2.2170469e+88 -2.2851325e+86 -1.9314575e+87)
(-2.2224036e+88 1.8644263e+86 -1.9956525e+87)
(-2.1491918e+88 1.3601511e+86 -1.9844411e+87)
(-2.1464244e+88 -2.1118101e+86 -1.9048842e+87)
(-2.1640116e+88 -1.7142526e+86 -1.614953e+87)
(-2.172623e+88 2.1601208e+86 -1.637147e+87)
(-2.1749403e+88 -1.4883228e+86 -1.5965241e+87)
(-2.1492565e+88 -1.5847519e+86 -1.9591682e+87)
(-2.1538135e+88 4.3408886e+85 -1.9685065e+87)
(-2.1768029e+88 1.2428704e+86 -1.6266644e+87)
(-2.1779371e+88 -2.7955869e+85 -1.5107037e+87)
(-2.1537907e+88 -8.7327488e+85 -2.0521306e+87)
(-2.1448696e+88 9.496423e+85 -1.9585431e+87)
(-2.168983e+88 1.4164291e+86 -1.5688481e+87)
(-2.2255688e+88 -5.5072066e+85 -1.9163027e+87)
(-2.1324996e+88 -8.7612984e+85 -2.8736989e+87)
(-2.1324114e+88 1.5181562e+86 -2.8323264e+87)
(-2.2214348e+88 1.7520276e+86 -1.9735776e+87)
(-2.1438112e+88 9.7104114e+85 -2.8332278e+87)
(-2.141782e+88 -2.2288712e+86 -2.8393865e+87)
(-2.2314644e+88 -2.6003834e+86 -1.9540821e+87)
(-2.2289106e+88 6.5067598e+85 -2.0029491e+87)
(-2.1794657e+88 -2.3258258e+86 -1.6136023e+87)
(-2.1541902e+88 -2.2559529e+86 -1.9680887e+87)
(-2.1565861e+88 5.3596806e+85 -1.9763485e+87)
(-2.1770863e+88 9.4687462e+85 -1.6588177e+87)
(-2.1211823e+88 1.2701367e+85 -1.3706862e+87)
(-2.1199731e+88 -3.1598148e+85 -1.6027256e+87)
(-2.1183269e+88 1.4809656e+86 -1.395155e+87)
(-2.1235723e+88 1.268521e+86 -1.5371635e+87)
(-2.0618098e+88 6.4776285e+85 -1.2635451e+87)
(-2.063396e+88 3.9161321e+85 -1.3514676e+87)
(-2.0618629e+88 1.3964768e+86 -1.3650731e+87)
(-2.0629395e+88 1.4152708e+86 -1.257848e+87)
(-2.1274702e+88 -1.7122825e+86 -1.5578143e+87)
(-2.1210014e+88 -1.1339559e+86 -1.4319294e+87)
(-2.1218579e+88 1.5190971e+86 -1.4934712e+87)
(-2.1326498e+88 1.0731148e+86 -1.5988861e+87)
(-2.0700874e+88 1.6229959e+86 -1.416952e+87)
(-2.0693986e+88 -6.4003715e+85 -1.3734524e+87)
(-2.0641679e+88 5.0065242e+84 -1.3187278e+87)
(-2.1224246e+88 1.0251369e+86 -1.507816e+87)
(-2.1099354e+88 -3.4630442e+85 -1.5442052e+87)
(-2.1160162e+88 1.2996119e+86 -1.3921696e+87)
(-2.1144268e+88 2.0904134e+85 -1.3574275e+87)
(-2.1349959e+88 2.9507658e+86 -1.6309004e+87)
(-2.1333987e+88 -5.179307e+85 -1.5907696e+87)
(-2.1287345e+88 -2.4961837e+84 -1.4581577e+87)
(-2.1234302e+88 2.8796465e+86 -1.4842247e+87)
(-2.0716478e+88 2.843451e+86 -1.4157995e+87)
(-2.0776418e+88 4.7177918e+85 -1.3868458e+87)
(-2.1373558e+88 1.8831638e+86 -2.8670987e+87)
(-2.1372557e+88 -1.2980544e+86 -2.8454945e+87)
(-2.2295484e+88 -1.3900211e+86 -2.0324379e+87)
(-2.2369845e+88 2.1546272e+86 -1.9944665e+87)
(-2.1564897e+88 2.3008348e+86 -2.0455029e+87)
(-2.1779839e+88 -8.2353114e+85 -1.6754543e+87)
(-2.1557132e+88 -9.7415705e+85 -2.0131877e+87)
(-2.1814065e+88 3.0771946e+86 -1.6903026e+87)
(-2.1712915e+88 -7.0357165e+85 -1.4433725e+87)
(-2.1337837e+88 -8.9485647e+85 -1.9482136e+87)
(-2.1391981e+88 5.1728669e+85 -1.9344216e+87)
(-2.1637824e+88 8.1169843e+85 -1.5534709e+87)
(-2.2310029e+88 -1.5144037e+86 -1.7095425e+87)
(-2.1185114e+88 -1.1486844e+86 -2.8367224e+87)
(-2.1183075e+88 8.9637531e+85 -2.910429e+87)
(-2.2065569e+88 7.4163029e+85 -1.9869618e+87)
(-2.0244243e+88 -1.9488991e+86 -7.7983783e+85)
(-2.043838e+88 4.3172041e+86 3.8254492e+85)
(-1.8459153e+88 -4.2557154e+86 3.9597594e+86)
(-1.8644611e+88 5.8207089e+86 3.9466617e+86)
(-1.9387783e+88 -3.4118474e+86 -3.1595836e+87)
(-1.9842384e+88 4.8420191e+86 -3.0911157e+87)
(-1.9850851e+88 -3.4446595e+86 -3.1226634e+87)
(-1.9962118e+88 6.0213911e+86 -3.1217434e+87)
(-2.1373164e+88 4.5879134e+85 -2.6169194e+87)
(-2.025669e+88 -1.4575821e+86 -1.9665753e+87)
(-2.0435858e+88 3.8475053e+86 -1.8152017e+87)
(-2.1635153e+88 4.0809176e+86 -2.430066e+87)
(-2.1827511e+88 -1.4705082e+86 -2.5515731e+87)
(-2.0668669e+88 -2.2789823e+86 -1.9122128e+87)
(-2.0862694e+88 4.0722498e+86 -1.8721228e+87)
(-2.1912577e+88 3.082776e+86 -2.5005604e+87)
(-2.0929156e+88 4.2971073e+86 -1.8744319e+87)
(-2.0880611e+88 -2.4722246e+86 -1.9265916e+87)
(-2.1895805e+88 -1.1479712e+86 -2.5973459e+87)
(-2.204176e+88 3.9072596e+86 -2.5292055e+87)
(-2.089263e+88 4.170271e+86 -1.9522395e+87)
(-2.0887099e+88 -1.5561798e+86 -1.8775647e+87)
(-2.2053245e+88 -1.7408771e+86 -2.507751e+87)
(-2.197067e+88 2.3413861e+86 -2.5798221e+87)
(-1.8583784e+88 -2.1990779e+86 3.6785937e+86)
(-1.9779982e+88 -2.3551821e+86 -3.1854922e+87)
(-1.9886338e+88 6.8307637e+86 -3.1631025e+87)
(-2.1774548e+88 1.2910437e+85 -2.6480098e+87)
(-2.0700992e+88 -1.0897003e+86 -2.00055e+87)
(-2.0733361e+88 4.8635533e+86 -1.915728e+87)
(-2.1886269e+88 4.4760376e+86 -2.5561794e+87)
(-2.1904311e+88 -1.0535418e+86 -2.5560006e+87)
(-2.0777468e+88 -1.0558442e+86 -1.9185466e+87)
(-2.0771693e+88 6.1086167e+86 -1.9662355e+87)
(-2.1820706e+88 4.5683001e+86 -2.5952076e+87)
(-1.8627392e+88 7.353375e+86 3.3916239e+86)
(-2.0287235e+88 -4.1690868e+85 -8.614036e+84)
(-2.0207278e+88 5.8910781e+86 -1.2673307e+86)
(-2.1003856e+88 -2.0994577e+85 -3.2061563e+87)
(-2.0950219e+88 1.0931355e+86 -3.2474624e+87)
(-2.0476389e+88 -1.106588e+85 -2.4787596e+87)
(-2.0379092e+88 1.1411182e+86 -2.5523791e+87)
(-2.0758067e+88 1.9747043e+85 -3.3696083e+87)
(-2.0644219e+88 2.1762576e+86 -3.4147124e+87)
(-2.0211771e+88 1.0705669e+85 -2.6265972e+87)
(-2.012301e+88 1.5569325e+86 -2.5998203e+87)
(-1.9337457e+88 1.3479665e+86 -1.9183317e+87)
(-1.8763431e+88 1.5096701e+86 -1.3338869e+87)
(-1.8772474e+88 4.6450282e+85 -1.4673021e+87)
(-1.93712e+88 2.3893132e+85 -2.0180162e+87)
(-1.9552083e+88 1.3080758e+86 -1.9537716e+87)
(-1.8938817e+88 1.4903611e+86 -1.4374125e+87)
(-1.9058074e+88 6.7469894e+85 -1.3558679e+87)
(-1.9662778e+88 2.7408407e+85 -1.8806595e+87)
(-1.8557625e+88 1.0582915e+86 -1.1065941e+87)
(-1.8472465e+88 1.7314598e+86 -1.1345649e+87)
(-1.7987999e+88 1.9322899e+86 -9.4936059e+86)
(-1.8084123e+88 1.3738239e+86 -9.0274556e+86)
(-1.8292344e+88 7.0250864e+85 -1.1868493e+87)
(-1.8323362e+88 1.677445e+86 -1.0156801e+87)
(-1.7865249e+88 1.9071737e+86 -8.1550892e+86)
(-1.7838336e+88 1.0450905e+86 -9.5585144e+86)
(-1.7418536e+88 1.3596734e+86 -8.2428118e+86)
(-1.7650966e+88 1.6548583e+86 -7.8474776e+86)
(-1.7558357e+88 2.1254444e+86 -8.2817666e+86)
(-1.7167144e+88 2.3017195e+86 -7.0211735e+86)
(-1.7254082e+88 1.9441925e+86 -6.721843e+86)
(-1.8702511e+88 1.0087139e+86 -1.0753585e+87)
(-1.8562281e+88 1.6762638e+86 -1.2317569e+87)
(-1.8014979e+88 2.1193086e+86 -1.0637574e+87)
(-1.8190698e+88 1.4495855e+86 -9.2441136e+86)
(-1.8577919e+88 1.0508411e+86 -1.204911e+87)
(-1.863292e+88 1.7052871e+86 -1.108754e+87)
(-1.8119887e+88 1.8551346e+86 -9.4518167e+86)
(-1.8005387e+88 1.4473909e+86 -1.123737e+87)