/*--------------------------------*- C++ -*----------------------------------*\
  =========                 |
  \\      /  F ield         | OpenFOAM: The Open Source CFD Toolbox
   \\    /   O peration     | Website:  https://openfoam.org
    \\  /    A nd           | Version:  7
     \\/     M anipulation  |
\*---------------------------------------------------------------------------*/
FoamFile
{
    version     2.0;
    format      ascii;
    class       volScalarField;
    location    "1000";
    object      k;
}
// * * * * * * * * * * * * * * * * * * * * * * * * * * * * * * * * * * * * * //

dimensions      [0 2 -2 0 0 0 0];

internalField   nonuniform List<scalar> 
33730
(
1.5241895
1.5221609
1.5239579
1.5249437
1.523806
1.5239067
1.5239798
1.5237081
1.524611
1.524613
1.5246047
1.5245179
1.5190881
1.5218963
1.5217707
1.5224238
1.5218611
1.5224086
1.5224541
1.525129
1.5244584
1.5245104
1.5244769
1.5244805
1.5254257
1.5244742
1.5260481
1.5247957
1.5245991
1.5243592
1.5257459
1.5252125
1.5253554
1.5221435
1.5240903
1.522588
1.5239113
1.5212313
1.5237182
1.5256247
1.5257396
1.5253862
1.525269
1.5198031
1.5183272
1.5194863
1.5194834
1.5191803
1.5184748
1.5196774
1.5224147
1.522081
1.5219775
1.5227475
1.5215609
1.5221606
1.5229382
1.5223828
1.5223246
1.5223144
1.5259294
1.526403
1.5255673
1.5254036
1.5260723
1.5259468
1.5258012
1.5257262
1.5258224
1.5240144
1.5248932
1.5264151
1.5262129
1.524905
1.5245598
1.5250393
1.525755
1.5259125
1.5231258
1.5260907
1.5240195
1.5252623
1.52392
1.524809
1.5228908
1.5258931
1.5255155
1.5257097
1.5199903
1.5243105
1.521589
1.5225442
1.5247217
1.5199897
1.5153336
1.5240564
1.5258308
1.525933
1.5254883
1.5253254
1.5199834
1.5189138
1.5198457
1.5194909
1.5202221
1.5206342
1.5193113
1.5193772
1.5193304
1.5195676
1.5177441
1.520036
1.5200645
1.5195929
1.5195857
1.5188554
1.5194034
1.5199325
1.5177014
1.5207687
1.5225702
1.5201652
1.521382
1.5222085
1.5217579
1.5215058
1.5225936
1.5228238
1.5224899
1.5221379
1.5212599
1.5211328
1.5224179
1.5199037
1.5239879
1.5267587
1.526403
1.5266016
1.52698
1.5262679
1.5257303
1.5257481
1.5261829
1.5261316
1.5259307
1.5259086
1.5260695
1.5236969
1.5236338
1.5236436
1.525151
1.5245097
1.5244675
1.5249319
1.5239736
1.5238207
1.5240645
1.5261848
1.5257831
1.5237643
1.5248397
1.5233632
1.5238477
1.5249567
1.5256769
1.5259638
1.5222632
1.5261007
1.5236206
1.5226969
1.525376
1.5243495
1.5222935
1.5250339
1.5242388
1.5259182
1.5255593
1.5257521
1.5284374
1.5169546
1.5363534
1.5247987
1.5238445
1.5247196
1.5151289
1.5210673
1.509467
1.523983
1.5259503
1.5260963
1.5256463
1.5254614
1.5338019
1.5188885
1.520923
1.5200252
1.5199637
1.5212813
1.5178092
1.5188097
1.5187099
1.5191269
1.5192278
1.5190731
1.5189004
1.5188076
1.5193693
1.520077
1.5197557
1.5190474
1.5205327
1.5197907
1.5211656
1.5191271
1.5194993
1.5177461
1.5191797
1.5167472
1.520426
1.5205293
1.5206578
1.5206453
1.5232331
1.5209391
1.5186127
1.524836
1.5182498
1.5178464
1.5181986
1.5182539
1.5230742
1.5209711
1.5136953
1.5180733
1.5414474
1.5220193
1.5417199
1.5225543
1.5231411
1.5216764
1.5263541
1.5215336
1.5205982
1.5207541
1.5217567
1.5217416
1.5194843
1.5213083
1.5127769
1.5239836
1.5235809
1.5245112
1.524407
1.5250989
1.5253033
1.5256864
1.5257796
1.5262965
1.5263681
1.5262657
1.525713
1.5257518
1.5261912
1.5262855
1.5260321
1.5260135
1.5261926
1.5244512
1.5238931
1.5236579
1.5237066
1.5236884
1.5242712
1.524296
1.5242695
1.5242489
1.5226154
1.5224475
1.5253332
1.5253981
1.5251737
1.5240909
1.5252404
1.5243051
1.5229665
1.5231659
1.5238075
1.5260378
1.5255618
1.5226836
1.5244561
1.525202
1.5219774
1.5243077
1.523391
1.5253286
1.5255654
1.5259136
1.5203903
1.5260366
1.5205967
1.5242429
1.5265957
1.5253947
1.5251788
1.5242144
1.5152349
1.5252152
1.5314584
1.5259177
1.5256203
1.5257822
1.5334466
1.5236985
1.5239935
1.5248271
1.5108264
1.5164126
1.5215287
1.5241672
1.5249906
1.5321699
1.5224074
1.5187471
1.5176265
1.5189881
1.5189163
1.5192944
1.5193738
1.5215825
1.5201646
1.5201668
1.521809
1.5177771
1.5176797
1.5177645
1.5180132
1.5182241
1.5179953
1.5179771
1.5179641
1.5180326
1.5185272
1.5184848
1.518616
1.5191378
1.5192737
1.5193247
1.5196862
1.5202914
1.5197301
1.5210636
1.5201375
1.5192234
1.5198584
1.5178423
1.520823
1.5198202
1.5193017
1.5213624
1.5185371
1.5197074
1.5141312
1.5196223
1.5171887
1.5142417
1.5181695
1.5172271
1.5278424
1.5391123
1.5192261
1.5235922
1.5184665
1.5349831
1.5187003
1.5181533
1.5183826
1.5183603
1.5181538
1.518808
1.5178884
1.5190205
1.5214554
1.5135289
1.5236771
1.5231513
1.5457032
1.5210233
1.5313451
1.5227004
1.5226464
1.5214242
1.52117
1.5219625
1.5193022
1.5202731
1.5221511
1.5215316
1.5135648
1.5178008
1.5235101
1.5245853
1.5253807
1.52522
1.5244593
1.5247852
1.5242226
1.5241513
1.5241395
1.5241721
1.5255943
1.5254831
1.5252941
1.5252213
1.525458
1.5255422
1.5261431
1.5262105
1.5261673
1.5256917
1.5257572
1.5261048
1.5241454
1.5243166
1.5243198
1.5248408
1.5252445
1.5241973
1.5244165
1.5250753
1.524758
1.5250743
1.5236358
1.5224908
1.5239945
1.5225957
1.5238495
1.5255713
1.5255512
1.5251819
1.5251942
1.5191881
1.5177612
1.5252483
1.5255892
1.5246347
1.5253092
1.5228585
1.5248794
1.5252516
1.5227373
1.5215726
1.5219066
1.5448583
1.5259315
1.5253738
1.518365
1.523876
1.5389485
1.5251292
1.5388752
1.5227177
1.5209934
1.5238052
1.5252745
1.5254599
1.5258587
1.5164822
1.5227276
1.5243586
1.525404
1.5257492
1.5245881
1.5378399
1.5252554
1.5202773
1.5249428
1.5242267
1.5154657
1.5186061
1.5220865
1.5195507
1.5181077
1.5221428
1.5173653
1.519418
1.5190318
1.5190181
1.5194244
1.5175904
1.5176847
1.5177272
1.518353
1.5182977
1.5183905
1.5185318
1.5192326
1.5190248
1.5217311
1.520117
1.5201851
1.5219102
1.518988
1.5181538
1.5182903
1.517942
1.5176903
1.5179998
1.5179552
1.5179992
1.5180449
1.5173261
1.5174753
1.5185394
1.517789
1.5182236
1.5178148
1.51834
1.5190457
1.5186497
1.5181615
1.5183649
1.5183308
1.5183625
1.5186694
1.5190404
1.5189139
1.5196439
1.5191685
1.5187763
1.5217422
1.5216212
1.5226783
1.5201181
1.5194417
1.5176514
1.519862
1.5118773
1.5210082
1.520133
1.5182097
1.518887
1.5214634
1.5132585
1.5136685
1.5074785
1.5164652
1.5181811
1.5103646
1.540576
1.5200882
1.5204574
1.5185098
1.5285482
1.5199704
1.5192156
1.5188806
1.5185517
1.5189198
1.5177719
1.5184143
1.5177841
1.5172732
1.5202424
1.5169635
1.5233151
1.52433
1.5179352
1.5217949
1.5231521
1.5215481
1.5215103
1.5224628
1.5257499
1.521433
1.5218294
1.5231801
1.5148394
1.5169895
1.5224331
1.5195779
1.5082687
1.518028
1.5234408
1.5250705
1.5241833
1.5242228
1.5241018
1.5241274
1.5257698
1.5250187
1.5251141
1.5256779
1.5243136
1.5254339
1.5252216
1.524882
1.525055
1.5256367
1.5256029
1.5257125
1.5258748
1.5257339
1.52566
1.5251975
1.525131
1.5252244
1.525314
1.5260046
1.5260506
1.5230967
1.5234211
1.5251764
1.524888
1.5239073
1.5241838
1.5238258
1.5249395
1.5247169
1.5243897
1.5243683
1.5256411
1.5257642
1.5260523
1.5242815
1.5245429
1.5246725
1.525704
1.525566
1.5271688
1.5220256
1.5221986
1.51605
1.524413
1.5170201
1.5219065
1.5238391
1.5257446
1.5257396
1.525464
1.5253423
1.517296
1.5148607
1.525204
1.5256907
1.5239783
1.5247356
1.52544
1.5189699
1.5243025
1.5249065
1.525254
1.519739
1.5208386
1.5166005
1.5110177
1.5216657
1.5239479
1.5251265
1.515369
1.5212295
1.5237108
1.5252851
1.5311865
1.523561
1.5244222
1.5258462
1.5261516
1.5176281
1.5265757
1.519425
1.5346725
1.5174886
1.5175894
1.5176147
1.5182241
1.5181254
1.5174573
1.5178587
1.5167527
1.5164535
1.5188051
1.5180866
1.5182219
1.5185654
1.5189345
1.5180737
1.5180224
1.5176533
1.5176075
1.5171401
1.5172681
1.5178214
1.5177072
1.5182336
1.5183082
1.5190397
1.5188688
1.521792
1.5200275
1.5201514
1.5219797
1.5193871
1.5197276
1.5194457
1.5191586
1.5192206
1.5188209
1.5188128
1.5185983
1.5188073
1.5183836
1.5185544
1.5182313
1.5178053
1.5188333
1.5174331
1.517912
1.51768
1.5181
1.5186594
1.5171772
1.5182366
1.5173454
1.5206474
1.5176778
1.5180442
1.5189996
1.5176305
1.5172907
1.5202894
1.5197381
1.5168821
1.5182386
1.5183335
1.5181694
1.51825
1.5190804
1.5189401
1.5188959
1.51827
1.5180018
1.5190106
1.5112296
1.5570062
1.5229351
1.5168698
1.5195304
1.5181325
1.5125717
1.5054838
1.5202857
1.5188953
1.5140172
1.5133512
1.5199501
1.5441051
1.5188697
1.5195619
1.5194349
1.5188413
1.5196497
1.5195577
1.5182916
1.5182737
1.5179949
1.5181291
1.5166096
1.5190077
1.5166391
1.5140876
1.5164716
1.5191726
1.5219027
1.5206047
1.5211524
1.521109
1.5218169
1.5216926
1.5243399
1.5191191
1.5191874
1.5213383
1.5315745
1.5237251
1.5249739
1.5276906
1.5082815
1.5129286
1.5254402
1.5241217
1.5252251
1.5241246
1.5242111
1.524117
1.5242023
1.524465
1.5252769
1.5256562
1.5251399
1.5254769
1.5261351
1.5256317
1.5259992
1.5256303
1.5258454
1.5249265
1.5250422
1.5257824
1.522935
1.5249988
1.5248663
1.5251408
1.5253167
1.5263031
1.5261779
1.5258275
1.5258878
1.5257706
1.525772
1.5258773
1.5260083
1.5258127
1.5257542
1.5251195
1.5250323
1.5235893
1.522583
1.5228206
1.5241505
1.5240757
1.5240014
1.5239606
1.5230332
1.5230753
1.523502
1.5260749
1.5262039
1.5247392
1.5244603
1.5250772
1.5247776
1.5238411
1.5258024
1.5259603
1.5231273
1.5267551
1.524889
1.5253564
1.5259233
1.5262692
1.5286428
1.5260564
1.5242456
1.5250732
1.5259517
1.5258073
1.5286029
1.5203483
1.5170856
1.5224232
1.5084728
1.5244408
1.5107423
1.5176565
1.5204181
1.5238733
1.5259117
1.5258601
1.5256959
1.5255433
1.5257155
1.5242369
1.5248877
1.5122272
1.5234628
1.5246326
1.5249896
1.514089
1.5168309
1.5260117
1.5240296
1.5229851
1.521958
1.5236663
1.5333992
1.5242361
1.5240637
1.5189935
1.5180176
1.5179964
1.5175544
1.5175253
1.5175226
1.5178211
1.5170101
1.5173408
1.5168881
1.5175833
1.517
1.5175481
1.5174237
1.5180944
1.5186975
1.517966
1.5181313
1.518472
1.5195309
1.5190973
1.5197626
1.5196449
1.519219
1.5180327
1.5181682
1.5172792
1.5171243
1.5170262
1.5171256
1.5176127
1.5175415
1.5180627
1.5181588
1.518882
1.5187088
1.5194835
1.5198163
1.5195918
1.5193515
1.5196877
1.5185203
1.5187626
1.5186829
1.5187334
1.5205603
1.5199135
1.5184478
1.5197014
1.5187359
1.5199056
1.5186813
1.5176919
1.5169662
1.5186488
1.5184418
1.5186376
1.5184036
1.5178729
1.517826
1.5186592
1.5208317
1.517353
1.5176208
1.5159107
1.5170992
1.5177782
1.5170805
1.5178786
1.5213025
1.5172459
1.5239929
1.5176326
1.5180704
1.5190718
1.5222783
1.5175525
1.5218613
1.5473135
1.5259538
1.5129115
1.5183052
1.5178996
1.5180119
1.5301483
1.5188857
1.5181881
1.5145688
1.5108517
1.5185034
1.5152921
1.5068823
1.5192595
1.5192526
1.5085339
1.5195373
1.5182308
1.5191945
1.5190826
1.5191155
1.5194117
1.5182002
1.5171027
1.5179156
1.5178685
1.5155238
1.5167178
1.5159019
1.514715
1.515791
1.5384855
1.516273
1.5096597
1.5201824
1.5217429
1.5204984
1.5211501
1.5208251
1.5204819
1.5200529
1.5178096
1.5209319
1.5212141
1.52286
1.5143271
1.5153204
1.5167315
1.5337429
1.5536846
1.5254142
1.5402083
1.5246167
1.5257994
1.5254183
1.525323
1.5256672
1.5255983
1.5255615
1.5262325
1.526321
1.5228085
1.5255434
1.5252429
1.5252949
1.525016
1.5259485
1.5265587
1.5259181
1.5264272
1.5262449
1.525755
1.5261188
1.5257619
1.5259041
1.5248022
1.524927
1.5258531
1.5237783
1.5239713
1.5239136
1.5238643
1.5239925
1.5263961
1.5263183
1.5261518
1.5262008
1.5264264
1.5263392
1.5259478
1.525963
1.5258558
1.525863
1.526042
1.5261668
1.523156
1.5230802
1.5228375
1.5231646
1.5233427
1.5246258
1.5242941
1.5243141
1.5246847
1.5223229
1.5228848
1.5281849
1.5268178
1.5263668
1.5238383
1.5271618
1.523554
1.5223161
1.5234111
1.524367
1.5262444
1.5265238
1.5264789
1.5254189
1.5253747
1.5257354
1.5264747
1.5254669
1.5248429
1.5260038
1.526319
1.521589
1.5237383
1.5352572
1.5249944
1.5160988
1.5260466
1.526375
1.5410713
1.5455018
1.523678
1.5249423
1.5250487
1.5261477
1.5259611
1.5121609
1.5193134
1.5226717
1.5246559
1.5124412
1.5137224
1.5204452
1.5242028
1.5303913
1.5249332
1.5245179
1.5245742
1.5257366
1.5249254
1.5304115
1.5269473
1.5214229
1.522183
1.5353005
1.5194922
1.5199248
1.5197727
1.5192684
1.5194339
1.5192553
1.5196271
1.5184518
1.5188266
1.5178545
1.5179651
1.5179095
1.5169922
1.5168948
1.5175168
1.5175164
1.5177714
1.5168017
1.5168191
1.516922
1.5174525
1.5173426
1.5173545
1.5185066
1.5178454
1.5179357
1.5183175
1.5198666
1.5199576
1.5198586
1.5196844
1.5196818
1.5197864
1.5207722
1.5206953
1.5197481
1.5181381
1.5182831
1.517183
1.5170618
1.5169028
1.5170049
1.5174879
1.5174032
1.5179069
1.5194182
1.518672
1.5195291
1.5199634
1.5190704
1.5185661
1.5189683
1.5190275
1.5206185
1.5201274
1.5189622
1.5200074
1.518349
1.5205101
1.5170832
1.5169899
1.517197
1.5171172
1.52068
1.518949
1.5200946
1.5164478
1.5198916
1.5191837
1.5176884
1.5201123
1.5204884
1.5131856
1.5137869
1.5182139
1.5184135
1.5186592
1.5184223
1.5170979
1.517011
1.5177609
1.5183181
1.5200427
1.5236156
1.5172777
1.5205384
1.5140837
1.5200365
1.5208883
1.5176921
1.5194559
1.5249163
1.5247643
1.5180522
1.518899
1.5186074
1.5438928
1.5179825
1.5157665
1.5266425
1.5182559
1.5162036
1.5088325
1.5158128
1.5106262
1.5197437
1.519039
1.5175524
1.5195462
1.5186857
1.5184463
1.5186606
1.5187341
1.5180109
1.5176768
1.5169034
1.5182994
1.5157966
1.5118556
1.5134483
1.5152052
1.5165457
1.5125249
1.510489
1.5102452
1.5217699
1.5220234
1.521147
1.5215245
1.521984
1.5217185
1.5198677
1.5210034
1.5198873
1.5199716
1.5187976
1.5122884
1.5203838
1.523073
1.5120165
1.5082823
1.5095837
1.5131704
1.5255321
1.5252803
1.5255372
1.52578
1.5267478
1.5259379
1.5259469
1.5266614
1.5257342
1.5257057
1.5263543
1.5264568
1.5238426
1.5240579
1.5239558
1.5238615
1.5238059
1.5262441
1.5264632
1.5262215
1.5264224
1.5259876
1.5266201
1.5259766
1.5265178
1.5263914
1.5258392
1.5262785
1.525847
1.5231021
1.5244908
1.524435
1.5245314
1.5246458
1.5285207
1.5283869
1.5268943
1.5269354
1.526569
1.5265661
1.5262631
1.526269
1.5265153
1.5264395
1.5260465
1.5260452
1.5228009
1.523025
1.5232133
1.5232268
1.5231909
1.5241255
1.5240762
1.5239736
1.5241753
1.5228286
1.5218675
1.5215167
1.5237459
1.5226287
1.5239154
1.5291055
1.5279319
1.5278156
1.5292523
1.5218149
1.5235225
1.5288092
1.5273862
1.5254802
1.5269796
1.5243579
1.5256544
1.5277408
1.5222187
1.5204958
1.5253467
1.5372834
1.5263409
1.526731
1.5412107
1.5280027
1.5247972
1.5255094
1.5268554
1.5275202
1.5233273
1.5256224
1.5434577
1.5261593
1.5265423
1.5256653
1.5222443
1.5236164
1.525194
1.5221636
1.5237548
1.5254496
1.5251497
1.5215737
1.5208537
1.5230031
1.5097125
1.5165102
1.5209384
1.5317476
1.5252886
1.5274453
1.526352
1.5364987
1.5200526
1.5196228
1.51988
1.5198989
1.5195754
1.5194064
1.5195631
1.5195756
1.5193451
1.520989
1.5199483
1.5208623
1.5197561
1.5198343
1.5194656
1.5192714
1.519631
1.5178835
1.5178046
1.5179235
1.5179823
1.5169513
1.5168258
1.5168781
1.5175249
1.516708
1.5167124
1.5168026
1.5173052
1.5172262
1.5172662
1.517565
1.5199715
1.5197372
1.5201791
1.5204153
1.5211477
1.5209131
1.5206107
1.5206235
1.5200183
1.5209189
1.5208843
1.5199297
1.5181091
1.5182407
1.517127
1.517008
1.5189945
1.5177613
1.5179175
1.5178113
1.5181153
1.5180906
1.5176475
1.5179757
1.518195
1.5198558
1.5190797
1.5172837
1.5199981
1.5188079
1.5206051
1.5179989
1.5168933
1.5175192
1.5179426
1.5207629
1.5192843
1.5201314
1.5173244
1.5201845
1.5191635
1.5165732
1.5206452
1.5160414
1.512303
1.5140052
1.5132692
1.5208383
1.5193386
1.5176274
1.5203551
1.5108488
1.5200441
1.519317
1.5180511
1.5140731
1.5202024
1.521412
1.5094009
1.5101208
1.5164198
1.5184938
1.5168046
1.5119397
1.5224975
1.5181786
1.5193897
1.5201813
1.5202096
1.5188141
1.5242443
1.517744
1.5188536
1.5212763
1.5138854
1.5160383
1.5116066
1.5165354
1.5113574
1.5107536
1.5191705
1.5191454
1.5211416
1.5190198
1.5192658
1.5199941
1.5192348
1.5183649
1.5179677
1.5194402
1.5186668
1.5155783
1.5151451
1.5119946
1.5174429
1.5112858
1.5059354
1.5064756
1.5108655
1.5220028
1.5218628
1.5217506
1.5218611
1.5222454
1.5220851
1.5203702
1.5214288
1.5219476
1.5213739
1.5174261
1.5191255
1.5168182
1.5200682
1.5296236
1.5082612
1.5184383
1.5386757
1.5238305
1.5240091
1.5241485
1.5239538
1.5264982
1.5264816
1.5262356
1.5262202
1.5267887
1.5259707
1.5259841
1.5267093
1.5258247
1.5258082
1.5265024
1.5266151
1.5230431
1.5247432
1.524622
1.5245639
1.5244491
1.5269483
1.5285936
1.5269234
1.5285301
1.5262629
1.526559
1.5262626
1.5265518
1.5260458
1.5266861
1.5260456
1.526598
1.5229553
1.5236922
1.5237451
1.5239477
1.5238624
1.5299828
1.5295403
1.5297961
1.5301285
1.5289684
1.5289666
1.5273366
1.5272664
1.5267029
1.5267324
1.5263368
1.5263144
1.5219163
1.5223876
1.522902
1.5231099
1.5228114
1.5240746
1.5238541
1.523859
1.5240558
1.5234497
1.5239696
1.5234514
1.5238112
1.524265
1.5239073
1.5275702
1.5272266
1.5281615
1.5283942
1.5212425
1.5183481
1.5218931
1.5185978
1.5258543
1.518476
1.5241527
1.5261208
1.5298429
1.5286243
1.5285334
1.5299833
1.5186255
1.5206472
1.5293342
1.5277224
1.5240056
1.5256918
1.5273363
1.5246354
1.5238366
1.5260325
1.5284113
1.5185711
1.5158128
1.5272522
1.5329737
1.5223505
1.5245015
1.5256909
1.521497
1.5356308
1.5277329
1.5255832
1.5212577
1.5202227
1.5238509
1.5161643
1.5294308
1.5249557
1.5245885
1.5215644
1.5142259
1.5173313
1.5330443
1.5172263
1.5201829
1.5200694
1.5205222
1.5207154
1.5202192
1.5205504
1.5201983
1.5198376
1.5205926
1.5213596
1.5198088
1.5212734
1.5205493
1.5195251
1.5193908
1.5195222
1.5210633
1.5211145
1.5199513
1.5209807
1.5198901
1.5199163
1.5199077
1.519508
1.5178784
1.5178159
1.5177506
1.5179683
1.5168966
1.516807
1.5167659
1.5167947
1.5166225
1.5171535
1.5187593
1.5173763
1.5175857
1.5180996
1.5180979
1.5205177
1.5202759
1.5210533
1.5213602
1.5213179
1.521104
1.5206984
1.5206789
1.5201131
1.5210406
1.5209864
1.5200313
1.5206048
1.5192175
1.5191248
1.5184857
1.5184075
1.5189521
1.5190244
1.5192132
1.519466
1.5178666
1.5179794
1.517342
1.5181697
1.5166468
1.5184829
1.5167721
1.5164687
1.5172872
1.5183828
1.519945
1.5191589
1.5177091
1.5150719
1.5198884
1.519032
1.5170324
1.5206675
1.5197306
1.5158043
1.5149638
1.5174306
1.5209406
1.5192279
1.5179225
1.5202548
1.5122931
1.5203844
1.5194379
1.5187228
1.512228
1.5207634
1.5128635
1.5060516
1.5098145
1.509397
1.5196213
1.5192211
1.5138552
1.5048958
1.5194382
1.5186319
1.5170848
1.5096235
1.5170344
1.512532
1.5067509
1.5188727
1.5222047
1.5132945
1.5254571
1.524493
1.5221258
1.5176473
1.5113337
1.5120503
1.521345
1.5215788
1.5208745
1.5202183
1.521015
1.5211789
1.518206
1.5179235
1.5197501
1.5180217
1.5175997
1.5178559
1.5197786
1.5190675
1.51608
1.5103968
1.5055506
1.5278876
1.5219941
1.5211761
1.5212918
1.5213525
1.5218768
1.5215276
1.5218862
1.5215084
1.5224299
1.5221408
1.5193968
1.5213343
1.5213669
1.5204532
1.5114832
1.5189522
1.5126309
1.5192268
1.5229465
1.5265212
1.5261678
1.5261947
1.5265027
1.5229763
1.5245995
1.5247694
1.5248693
1.524692
1.5285632
1.5285104
1.52687
1.5269084
1.5265624
1.5265598
1.5262419
1.5262136
1.5268589
1.5260177
1.5260356
1.5267716
1.5230915
1.5237857
1.5235951
1.5237225
1.5235507
1.5306082
1.5306359
1.5303441
1.5302602
1.5271871
1.5290135
1.5271991
1.528977
1.5262592
1.5266421
1.5262866
1.5266636
1.5219702
1.5236477
1.52368
1.5238217
1.5237974
1.5287949
1.5284996
1.5284893
1.5288928
1.5305976
1.5302753
1.5304755
1.5307288
1.5294883
1.5294914
1.5276916
1.5276035
1.5214097
1.5213352
1.5217706
1.5220879
1.52182
1.5232142
1.5226674
1.5226605
1.5232288
1.5219564
1.5235689
1.525086
1.5240209
1.5229273
1.523727
1.5272933
1.5271442
1.528188
1.5282087
1.5230071
1.5250108
1.5236633
1.521903
1.5261409
1.5276993
1.5244348
1.5259083
1.5282013
1.5278618
1.5291315
1.5291993
1.5209632
1.516081
1.5175283
1.5240911
1.5137862
1.5264023
1.5103031
1.5265005
1.5245182
1.5263015
1.5305283
1.5294531
1.5294209
1.5306447
1.5241108
1.5214236
1.5259479
1.523178
1.5235147
1.524324
1.5264909
1.5123024
1.5204639
1.52165
1.524876
1.5335056
1.5379087
1.5269914
1.513412
1.5208511
1.5276
1.527375
1.5224588
1.5163486
1.5186379
1.5170199
1.5172003
1.5179094
1.5177363
1.5173775
1.5168543
1.5169972
1.5165787
1.5207079
1.5202836
1.5206226
1.5215396
1.5216911
1.5207868
1.5203114
1.520584
1.5206621
1.5215069
1.5214146
1.5197055
1.5214346
1.520485
1.5206324
1.5194588
1.5212138
1.5211927
1.5212369
1.5211088
1.5199861
1.5199611
1.5199796
1.5199876
1.5178108
1.5177691
1.5167013
1.5167235
1.5207316
1.5193302
1.5192115
1.5183636
1.5182547
1.5173981
1.5176587
1.5185711
1.5186041
1.520503
1.5202575
1.5211526
1.5214737
1.5214824
1.5212744
1.5208018
1.5207914
1.5210979
1.5206519
1.5206282
1.5202455
1.5202226
1.5206577
1.5206326
1.5205455
1.5202391
1.519516
1.5194651
1.5191037
1.5184572
1.5182651
1.5183606
1.519409
1.519901
1.5194175
1.5200964
1.5177833
1.5179657
1.5178589
1.5147315
1.5174284
1.5183476
1.5145402
1.5185259
1.512698
1.5144459
1.5151619
1.518286
1.5200392
1.5193615
1.5178892
1.5149963
1.5091807
1.5200618
1.5188965
1.5174139
1.5116612
1.5207897
1.5317078
1.516713
1.509945
1.5140701
1.5193136
1.5184203
1.5164418
1.5079023
1.5196503
1.5190502
1.5209333
1.5063107
1.5197168
1.5202131
1.5076753
1.5190132
1.5199352
1.5137967
1.5144218
1.5093741
1.5213894
1.5205833
1.530102
1.519669
1.521549
1.5219055
1.5215935
1.5212757
1.5213011
1.5213493
1.5199022
1.518798
1.520546
1.5208785
1.515784
1.5136372
1.5227143
1.5158458
1.5260873
1.5190005
1.5130903
1.5316413
1.5210015
1.5209619
1.5208824
1.5212916
1.5211354
1.5209765
1.5207332
1.5204086
1.5216546
1.5201995
1.52634
1.5203509
1.5200773
1.5241656
1.5153624
1.5175724
1.5217018
1.5195553
1.5229558
1.5243541
1.5233405
1.5244684
1.5241311
1.5243083
1.5246641
1.5284036
1.5284242
1.5268099
1.5267784
1.5265529
1.5265312
1.5261291
1.5260804
1.526551
1.5261221
1.5261787
1.5265468
1.5231772
1.5235004
1.5235128
1.5236863
1.5236564
1.5308471
1.5310144
1.5308875
1.5307581
1.5290238
1.5290027
1.527142
1.5271677
1.5266135
1.5266257
1.5262219
1.5261761
1.5220201
1.5234792
1.5235819
1.5236673
1.5237925
1.529257
1.5290289
1.5291033
1.5289247
1.5311307
1.5311106
1.5309192
1.5308502
1.5274531
1.5294893
1.5275044
1.5294927
1.5211493
1.5226175
1.522495
1.5230075
1.5230656
1.5289037
1.5286606
1.5287293
1.5290275
1.5292603
1.5292142
1.5293772
1.529472
1.531214
1.5309261
1.5311155
1.5313845
1.5214376
1.5220017
1.5215915
1.5213478
1.5216236
1.5220047
1.5223073
1.5220662
1.5220771
1.5201147
1.5212123
1.5220884
1.5231357
1.5231848
1.5211678
1.5268496
1.5258881
1.5271119
1.5278325
1.5219015
1.5215746
1.5273346
1.5256782
1.5258974
1.5249422
1.5208144
1.5257826
1.5277619
1.527704
1.5291044
1.5291415
1.5166203
1.5215226
1.5250283
1.5255405
1.5132309
1.5261931
1.5227076
1.5245098
1.5264075
1.5260077
1.5289288
1.5286154
1.5297259
1.5297915
1.51158
1.5271796
1.5247887
1.5270229
1.5224454
1.521782
1.5247075
1.526696
1.5243165
1.5236992
1.5139366
1.5370887
1.5234971
1.5246465
1.5159126
1.5238091
1.5467125
1.5340903
1.5160143
1.5270769
1.5208019
1.5193976
1.5192969
1.518267
1.5182587
1.5182938
1.5191259
1.5180105
1.5188214
1.5169318
1.5168971
1.5171474
1.5184962
1.5184047
1.5175904
1.5173098
1.5167822
1.5207963
1.5207354
1.5203875
1.5206391
1.5216525
1.5218128
1.5217887
1.5208327
1.5207704
1.5217065
1.5215981
1.5214565
1.5216134
1.5205889
1.5204139
1.5207388
1.5213593
1.5213721
1.5200392
1.5200524
1.5177628
1.5166171
1.5209758
1.5207161
1.5206899
1.5203187
1.5204006
1.5198888
1.5196889
1.5182805
1.5182074
1.5173145
1.5175454
1.5184735
1.5185386
1.5205475
1.5203146
1.5212647
1.5215626
1.5215999
1.521337
1.521318
1.5208389
1.5210061
1.5208502
1.5207399
1.5210593
1.5210445
1.5202277
1.5202755
1.5205471
1.5202744
1.5199936
1.5203128
1.520228
1.5206669
1.5217066
1.519808
1.5197136
1.519618
1.5194395
1.5199756
1.5185015
1.518421
1.5178718
1.5183467
1.5205738
1.5194563
1.5206534
1.5217605
1.5176906
1.5179053
1.5179603
1.5176567
1.5096235
1.5177595
1.5164026
1.5184471
1.5089784
1.5185258
1.5097493
1.5107358
1.5163149
1.5195931
1.5181527
1.5155223
1.509287
1.5042996
1.5189396
1.5176701
1.515563
1.5070297
1.5188553
1.5179908
1.5185359
1.5192902
1.5205483
1.527078
1.5222249
1.5176261
1.5206056
1.5252449
1.5115468
1.5270473
1.5220896
1.5219324
1.5221465
1.5215378
1.5214149
1.5218315
1.5220387
1.5205722
1.5203364
1.5208191
1.5174607
1.5164093
1.521971
1.5215279
1.5085609
1.5074477
1.5225733
1.5126876
1.5208063
1.5208365
1.5201609
1.5211524
1.5199187
1.521114
1.5226123
1.5215026
1.5215026
1.5203205
1.5204502
1.5197406
1.5195939
1.5227601
1.5171169
1.5298655
1.5202801
1.5183948
1.5353625
1.5232624
1.5230197
1.5234896
1.5234124
1.5235763
1.5236897
1.5247008
1.5253061
1.5254028
1.5251155
1.5250332
1.5314114
1.5311671
1.5309923
1.5311766
1.523921
1.5249352
1.524722
1.5244115
1.5246142
1.5283885
1.5283532
1.5267353
1.5267356
1.528907
1.5289435
1.5270954
1.527046
1.5265699
1.5265599
1.5260508
1.5259575
1.5265887
1.5260585
1.5261222
1.5265975
1.522039
1.523605
1.5237383
1.5237257
1.5237841
1.5289966
1.5289337
1.5292789
1.5292872
1.5313346
1.5315495
1.53149
1.5313154
1.5294801
1.5294537
1.5273695
1.5274095
1.5209306
1.522621
1.5229791
1.5228626
1.5225313
1.5290546
1.5291234
1.5292205
1.5293881
1.5296608
1.5294231
1.5295448
1.5293273
1.5317715
1.5317011
1.5315772
1.5314567
1.5217147
1.521807
1.5218098
1.5217645
1.5217172
1.5286265
1.5279594
1.5283235
1.5286307
1.5295858
1.5294839
1.5294134
1.5295371
1.5298198
1.5298069
1.5299351
1.5300052
1.5196279
1.5216588
1.521349
1.5209505
1.5216174
1.5214948
1.5213826
1.5219166
1.5221066
1.5232102
1.522213
1.5226446
1.5211166
1.5217036
1.5222384
1.5251309
1.5252773
1.5245147
1.5262553
1.5148546
1.5199377
1.5170119
1.5246615
1.5309044
1.5233358
1.5258283
1.5194934
1.528072
1.5270723
1.5283523
1.5290491
1.5161077
1.5137224
1.5198702
1.5263202
1.5261865
1.5260988
1.5293523
1.5254699
1.5145369
1.5259931
1.5284297
1.5283614
1.5297816
1.5298268
1.5248806
1.5255239
1.5254201
1.5264793
1.5158096
1.5272394
1.526633
1.5263066
1.5411426
1.5294726
1.5251777
1.5139197
1.5239852
1.5248006
1.5246494
1.5206289
1.5367019
1.5240601
1.5198729
1.5371336
1.520862
1.5213261
1.5209567
1.5207803
1.5207525
1.5204864
1.5205507
1.5205987
1.520929
1.5201397
1.5193524
1.5200175
1.5181444
1.5180558
1.5182593
1.5183036
1.5190703
1.5168995
1.5167174
1.5167772
1.5170975
1.5184759
1.5183266
1.5184197
1.5174403
1.5208904
1.5208415
1.5207857
1.5206814
1.5217433
1.5219164
1.521917
1.5218799
1.5218143
1.5216837
1.5207014
1.5205234
1.5215268
1.5201218
1.521529
1.5206649
1.5207816
1.5207424
1.5206808
1.520152
1.520199
1.5204227
1.5205741
1.5199842
1.5198586
1.5182653
1.5181982
1.5172273
1.5174513
1.5184578
1.5185091
1.5218833
1.5215187
1.5215775
1.5217696
1.5216917
1.5217949
1.5222976
1.5213206
1.521153
1.5204853
1.5218097
1.5212561
1.5204935
1.520708
1.5204043
1.5209185
1.520259
1.5213264
1.520856
1.5201353
1.5201712
1.5202993
1.5203993
1.5201095
1.5202949
1.5195607
1.5204053
1.5198029
1.5241022
1.5263412
1.5209526
1.5198441
1.5197491
1.5195253
1.5195907
1.5228743
1.5185813
1.5187844
1.5184165
1.5156862
1.5183429
1.5203466
1.5117407
1.5159126
1.5154988
1.5180009
1.5179615
1.5172176
1.5040591
1.5179708
1.5170283
1.5167309
1.5041937
1.5160738
1.5103304
1.504356
1.5180985
1.5155411
1.5148222
1.5193389
1.5138537
1.5192194
1.5285516
1.5225399
1.5276045
1.5218332
1.5227335
1.5217094
1.521957
1.5219517
1.5220034
1.5262432
1.5206811
1.519905
1.5226729
1.5229737
1.5197601
1.5197093
1.5206311
1.517031
1.5114265
1.5285699
1.5306729
1.5203571
1.520745
1.5211172
1.5230206
1.5205092
1.5195019
1.5201496
1.5178984
1.5221519
1.5224236
1.5216711
1.5222283
1.5221387
1.5219901
1.5213582
1.5183894
1.5212236
1.5135281
1.5176891
1.5237411
1.5115666
1.5221196
1.5236958
1.5237771
1.5233797
1.5237942
1.5237009
1.5231595
1.523634
1.5234358
1.5235386
1.523778
1.528851
1.528859
1.5292704
1.5293409
1.5251497
1.5253376
1.5255897
1.5256751
1.5254083
1.53202
1.5316333
1.5313588
1.5316604
1.5321087
1.5317916
1.5316309
1.5318185
1.5249193
1.5246898
1.5248904
1.5251383
1.5267168
1.5284075
1.5283385
1.5266964
1.5288683
1.5288777
1.5269988
1.5269673
1.5293481
1.529398
1.5273116
1.5272514
1.5265641
1.5265751
1.5259883
1.5259103
1.5207015
1.5226708
1.5230331
1.5229194
1.5226083
1.5291717
1.5291986
1.5294933
1.5295712
1.5294578
1.5294667
1.5297835
1.5297311
1.5319408
1.532189
1.5321451
1.5319537
1.5220204
1.5216206
1.5215967
1.5216
1.5216325
1.5296377
1.5289574
1.5288375
1.5292016
1.5296544
1.5297155
1.529696
1.529875
1.5301843
1.5299675
1.5300764
1.5298856
1.519893
1.5214559
1.5214777
1.5220958
1.5222036
1.5259375
1.5255314
1.5268838
1.5274061
1.5296277
1.5291224
1.5295641
1.5297414
1.530218
1.5301432
1.5300497
1.5301324
1.5178402
1.5195043
1.5201718
1.5193734
1.5190761
1.5190326
1.5190496
1.5201851
1.5203247
1.5218406
1.5213052
1.5207768
1.5206761
1.521984
1.5215717
1.5225534
1.5221346
1.5232648
1.5237721
1.5235249
1.5250193
1.5235903
1.5230049
1.5195833
1.5196641
1.5219488
1.5242187
1.5255076
1.5260342
1.5247899
1.5270526
1.5075145
1.5146632
1.5231186
1.5088951
1.525058
1.5433788
1.5248019
1.525071
1.5263133
1.5179697
1.5288146
1.5279032
1.5291574
1.5298121
1.5166344
1.525303
1.526237
1.5265319
1.5331308
1.5263448
1.5251688
1.5264106
1.5188269
1.5259427
1.525483
1.5175746
1.5311206
1.5263678
1.539411
1.5301651
1.5214643
1.5255881
1.5233213
1.5440591
1.5214266
1.5205712
1.5206399
1.5206854
1.5206537
1.52091
1.5206854
1.5207532
1.5208674
1.5208172
1.5209781
1.5200539
1.5201085
1.5207144
1.520853
1.5205822
1.5206271
1.5201909
1.5202214
1.5193061
1.5200668
1.5181347
1.5179488
1.5180488
1.5182786
1.5183185
1.5190139
1.5168693
1.5166855
1.5165178
1.5170488
1.5185062
1.5182738
1.5183659
1.518485
1.5209368
1.5208832
1.5220122
1.5220261
1.5219214
1.5206492
1.5214626
1.5219882
1.5215547
1.5210907
1.52086
1.5202885
1.520368
1.5201892
1.5201313
1.5200745
1.5201208
1.5205103
1.5206114
1.5201388
1.5200042
1.5182788
1.5182249
1.5220139
1.5217731
1.5214398
1.5217168
1.521875
1.5221077
1.5219936
1.5219327
1.5219243
1.5214792
1.5210232
1.5214971
1.521184
1.5220081
1.521374
1.5224993
1.5255969
1.5210989
1.5208949
1.5154349
1.5218287
1.521804
1.5209707
1.520346
1.5205644
1.5205867
1.5202635
1.5212399
1.5201288
1.5238771
1.5216475
1.5200502
1.5200972
1.5201804
1.5200771
1.5217884
1.5199715
1.5193271
1.5203733
1.5212726
1.5204739
1.5224296
1.5427384
1.5205217
1.5404473
1.5196369
1.5194987
1.5221355
1.5194906
1.5186029
1.5188437
1.5213053
1.511457
1.5181635
1.5183396
1.5144536
1.5174435
1.5177459
1.5165529
1.5122354
1.5051275
1.5161571
1.5126357
1.5166328
1.5312608