/*--------------------------------*- C++ -*----------------------------------*\
  =========                 |
  \\      /  F ield         | OpenFOAM: The Open Source CFD Toolbox
   \\    /   O peration     | Website:  https://openfoam.org
    \\  /    A nd           | Version:  7
     \\/     M anipulation  |
\*---------------------------------------------------------------------------*/
FoamFile
{
    version     2.0;
    format      ascii;
    class       volScalarField;
    location    "1000";
    object      nut;
}
// * * * * * * * * * * * * * * * * * * * * * * * * * * * * * * * * * * * * * //

dimensions      [0 2 -1 0 0 0 0];

internalField   nonuniform List<scalar> 
33730
(
3.5423908e-47
3.5975751e-46
2.4270999e-47
6.2331878e-47
2.6452643e-47
2.6301895e-47
3.8233795e-48
1.0370429e-47
1.2936888e-47
1.7069042e-47
1.7303378e-47
4.0544331e-48
1.2817194e-45
3.0317757e-46
3.005222e-46
5.7876678e-47
3.6290444e-47
5.4525816e-46
1.0331419e-46
2.9868658e-47
2.1417222e-47
3.035637e-47
4.0007453e-47
2.0186878e-47
3.5199115e-47
2.044205e-47
1.0830382e-47
5.2584826e-48
2.8104236e-47
2.2890347e-47
1.0722964e-47
1.6427265e-47
1.7393095e-47
7.6734785e-48
1.6988974e-47
4.084787e-48
9.9358817e-48
4.4291483e-48
1.1786405e-47
1.1806404e-47
2.1762485e-47
1.9465101e-47
5.7356434e-48
9.2280368e-47
1.1039334e-45
8.00516e-46
3.4176509e-46
4.6570855e-47
6.1300129e-46
3.340636e-46
2.9531883e-46
4.1033536e-47
1.8707017e-47
2.1333281e-46
2.418284e-47
3.542905e-47
1.5272502e-46
2.048309e-46
3.4083624e-46
1.105534e-46
4.9567022e-47
3.2468602e-47
2.8361391e-47
2.7296559e-47
3.7031228e-47
2.6014634e-47
3.1637755e-47
3.3060562e-47
2.275554e-47
3.3659197e-47
2.0357668e-47
1.5465841e-47
1.8839935e-47
1.5910141e-47
1.7573625e-47
4.6755873e-47
1.893458e-47
1.2256474e-47
9.4180312e-48
7.7528318e-48
4.4321831e-48
1.1184031e-47
6.8375724e-48
1.1036577e-47
1.0709101e-47
6.6818362e-48
1.8889307e-47
1.0377303e-47
7.7010273e-48
2.7121764e-47
9.4187849e-48
4.256402e-48
1.3801567e-47
3.6219576e-48
2.7402788e-48
9.0131122e-48
2.362889e-47
1.7535979e-47
1.1029768e-47
7.8919349e-48
1.8438596e-47
1.113384e-46
8.0776006e-47
6.7898965e-47
5.0815807e-47
2.4801869e-47
5.6785076e-47
4.260013e-47
8.5274436e-47
7.4524938e-47
1.3816865e-45
1.7944031e-46
5.8068075e-47
3.2847559e-46
6.8790076e-47
2.7246033e-46
4.536291e-46
2.5972999e-46
7.8768053e-46
3.1694947e-46
4.2168926e-46
5.51773e-47
2.3270267e-47
6.1193974e-47
6.7046493e-47
5.9587766e-47
2.1077204e-47
4.5672038e-47
4.3139794e-47
2.7331531e-46
3.572742e-46
1.9742621e-46
5.6934659e-47
5.7800496e-47
5.7424072e-47
4.0820414e-47
3.0596079e-47
3.7226605e-47
5.1619424e-47
3.6358029e-47
2.6859147e-47
3.5321472e-47
2.5587592e-47
2.5263324e-47
2.6076284e-47
2.9654202e-47
1.9448313e-47
6.7446263e-47
3.3035547e-47
3.6104455e-47
1.538933e-47
2.5229003e-47
1.5173127e-47
2.39814e-47
5.6384788e-48
2.7086139e-47
1.0637347e-47
1.2442198e-47
2.4014336e-47
6.1539138e-48
2.9898444e-47
7.0354798e-48
1.3168124e-47
8.8306271e-48
1.1761274e-47
4.7545398e-48
5.0186244e-47
5.3101704e-48
7.4282008e-48
5.0171301e-48
2.3612448e-48
3.9489844e-48
1.7937139e-47
8.482931e-48
3.6522677e-47
8.8644507e-48
3.6493483e-48
4.1281408e-48
1.0065988e-47
5.352565e-48
1.1427701e-47
5.2109517e-48
8.4601069e-48
8.8602443e-48
1.9926576e-48
4.4555095e-48
3.4709342e-49
2.0299602e-48
4.1900724e-47
2.5298597e-47
2.786922e-47
2.1705951e-47
2.4532544e-48
2.1305356e-47
1.4516836e-47
5.3465651e-48
1.8054112e-47
6.0303445e-48
5.9408233e-47
2.0086997e-47
1.7511896e-47
3.366672e-47
3.3343501e-47
5.7645886e-47
1.8314629e-47
4.9533492e-47
7.279646e-47
1.3711596e-47
3.9737735e-47
3.1434315e-47
1.5958988e-47
5.2353017e-47
1.0747635e-47
3.0993649e-47
8.4537061e-47
4.7766268e-47
1.1317984e-46
1.0982427e-45
9.6515453e-47
6.5993563e-47
1.3525637e-46
1.7061619e-46
6.1466344e-47
1.8771639e-46
1.430827e-46
1.1285121e-46
6.5541356e-47
5.5556998e-46
2.8176551e-46
3.0045975e-46
5.3626532e-46
4.204637e-46
3.0331313e-48
3.4762371e-47
4.3948122e-47
1.8727445e-47
6.3258183e-47
4.5794462e-47
2.1424477e-47
2.0764657e-46
7.5171255e-47
4.1242539e-46
1.0704709e-46
8.297732e-47
9.3804946e-47
9.5300034e-47
5.3311348e-47
2.4690066e-47
6.6597264e-48
3.5152888e-47
7.9503696e-47
3.0842435e-47
4.8723688e-47
2.8983289e-47
3.0517045e-47
5.4692032e-47
1.7804179e-47
2.4862626e-47
2.953121e-47
2.3935445e-47
2.0171239e-47
8.8138047e-48
1.0887826e-47
4.8095807e-47
4.849829e-47
3.1223661e-47
3.5917299e-47
9.1240133e-47
3.3146163e-47
3.244774e-47
2.5216569e-47
3.8088128e-47
5.0657641e-47
3.0525443e-47
2.100047e-47
3.083169e-47
2.6152041e-47
1.3910169e-47
2.0569294e-47
1.566663e-47
1.026034e-47
9.6496382e-48
2.2014909e-47
2.3063013e-47
1.3785347e-47
1.1593115e-47
7.5531441e-48
1.1543314e-47
2.0790039e-47
1.4244874e-47
1.4190804e-47
1.1522101e-47
1.3139225e-47
1.4659517e-47
1.2768631e-47
1.4243836e-47
1.1250236e-47
3.4467836e-48
4.9981953e-48
7.6056983e-48
9.4952414e-48
2.0384777e-48
3.2487341e-48
4.1705304e-48
4.4057461e-48
7.0424921e-48
1.4598198e-48
1.8102219e-47
9.0229554e-48
1.3377844e-47
3.9389515e-48
5.5767422e-48
2.5538004e-48
6.361896e-48
5.2419679e-48
8.6543255e-48
4.3959748e-49
9.5053667e-49
8.5920999e-49
2.6433866e-48
1.7250768e-48
2.4467054e-48
1.2679278e-48
1.5094684e-47
3.1840787e-47
1.1843764e-47
2.0263886e-47
3.124467e-47
1.1288918e-47
1.2356799e-47
1.2675982e-47
1.0376076e-47
8.6743174e-48
5.8934444e-47
2.8601694e-47
1.9110937e-47
7.2158196e-48
1.6070801e-47
1.1634191e-47
1.1056348e-47
6.7110639e-47
7.8903896e-47
1.5003435e-47
1.2895667e-47
2.0175364e-47
3.4948055e-47
7.2516659e-47
1.9272095e-47
5.1387418e-47
2.0702565e-47
1.6277201e-47
3.6268448e-47
6.4942362e-48
3.4386043e-47
1.5224589e-47
2.6974707e-47
1.0375142e-47
3.5683681e-47
6.7534359e-47
9.3080301e-48
4.9366316e-47
4.9641451e-47
3.7786059e-47
3.7531614e-47
1.3583965e-45
7.8941793e-48
9.3511656e-47
5.9180401e-47
1.4148569e-46
1.8603947e-46
5.3480011e-47
1.1383968e-46
1.0598207e-46
2.7128224e-46
9.0578699e-46
4.8673197e-46
2.6716669e-46
2.2405715e-46
3.3633088e-46
7.7120512e-47
1.3731677e-46
7.706671e-47
7.4850238e-46
1.9127585e-48
3.8953729e-48
2.0863541e-47
4.5087505e-47
3.9095386e-47
1.1872264e-47
8.3974886e-46
1.5328503e-46
7.7700206e-47
1.5549032e-46
8.4553421e-47
7.575237e-47
2.9345788e-47
7.1460916e-47
3.2915483e-47
3.6098023e-47
2.2821453e-47
3.8201251e-47
2.1035626e-47
1.9632329e-47
2.4401953e-47
4.4668427e-47
7.6669137e-47
3.3264061e-47
6.7577698e-47
4.2894834e-47
3.021221e-47
3.6630575e-47
2.9929992e-47
2.4542367e-47
2.9901619e-47
2.7159351e-47
3.3361029e-47
1.6154595e-47
2.498251e-47
3.2584696e-47
2.3743009e-47
1.5002213e-47
1.8803695e-47
6.4477653e-47
2.1058434e-47
6.0950024e-47
2.296331e-47
3.3828415e-47
6.3521818e-47
2.2307982e-47
2.284712e-47
1.6724517e-47
2.525329e-47
1.5466904e-47
4.0108269e-47
2.0530329e-47
1.89572e-47
2.3987961e-47
4.7015891e-47
4.7183866e-47
2.4317548e-47
1.9362787e-47
1.3405487e-47
3.2485659e-47
1.2929343e-47
1.7638771e-47
2.3784776e-47
9.2460515e-48
7.8405199e-48
9.5203534e-48
3.2558985e-47
1.2269964e-47
6.6260242e-48
3.6887957e-47
1.3636954e-47
1.6204603e-47
2.6457837e-47
1.2680654e-47
4.9972052e-48
1.8127345e-47
7.3332174e-48
1.3197344e-47
2.6515734e-48
5.3965624e-48
3.2332801e-48
1.8226318e-48
1.7926062e-47
7.3764983e-48
1.7278648e-48
6.7581043e-48
4.9247326e-48
2.6934314e-48
5.5536618e-48
1.1095814e-47
6.3891362e-48
3.1631271e-47
1.8686422e-48
3.8026725e-48
1.4322866e-47
7.2093103e-49
4.6234232e-49
7.3098066e-49
8.9974997e-49
5.4050594e-49
3.8328603e-48
1.4423e-47
4.1128313e-48
8.7964145e-48
6.7382058e-48
5.0840662e-48
3.4463146e-47
1.7480569e-47
4.6781256e-47
8.7087307e-47
1.7257639e-47
1.7907919e-47
2.3383356e-47
1.3463921e-47
1.0471203e-47
6.3741917e-48
4.2137066e-48
6.1023794e-48
3.3332803e-48
5.9984208e-47
2.4405165e-47
3.221143e-47
1.8871382e-47
2.2638396e-47
6.0804265e-47
2.6840393e-47
1.5781016e-47
1.6257148e-47
1.5278814e-47
1.4968978e-47
1.4835191e-47
1.0890032e-47
5.0925802e-48
6.8067314e-48
9.6160548e-48
1.4708004e-47
2.2875591e-47
5.0293129e-47
7.4812009e-48
9.80459e-48
5.6011236e-48
1.0456669e-47
1.0186189e-47
4.7506724e-47
2.9155648e-47
1.9964218e-47
1.4697981e-47
1.0605476e-46
2.6750686e-47
2.0481874e-46
8.5191522e-48
1.4754525e-47
4.4996595e-47
1.5604145e-47
8.7009549e-48
1.2452269e-47
2.1029472e-47
3.6347427e-47
2.654495e-47
1.2824292e-47
8.9783622e-48
7.7839196e-48
1.7505192e-48
9.8097007e-48
1.1202666e-45
2.3157954e-48
4.9899686e-47
4.6098137e-47
5.7228407e-47
7.7718046e-47
7.5366826e-47
1.036005e-45
1.3084744e-46
3.260679e-46
2.1931029e-46
2.8173235e-46
7.8147627e-47
8.0131898e-47
8.7428412e-47
6.1168041e-47
1.7312594e-46
9.1325328e-47
5.4129176e-46
2.5106907e-47
2.2659115e-47
5.5137086e-46
1.1212914e-46
1.5754973e-46
1.5682834e-46
8.5539161e-47
6.0787091e-47
4.7979399e-47
9.1278304e-47
3.3255788e-47
1.88804e-47
2.8470409e-47
3.7906186e-47
4.2599194e-47
1.4732943e-47
9.6323011e-48
1.5140567e-47
3.6776999e-47
2.011795e-47
2.2072473e-47
3.2099838e-47
5.0374093e-47
2.2672181e-47
2.4206709e-47
3.823387e-47
4.7545603e-47
7.974277e-47
3.1303355e-47
5.2060572e-47
5.2461581e-47
3.3848421e-47
4.36086e-47
4.3157139e-47
4.278463e-47
3.1535293e-47
2.4502952e-47
3.362944e-47
2.4461642e-47
2.5023515e-47
4.5878442e-47
3.0318474e-47
3.1820684e-47
3.2978525e-47
5.8683759e-47
1.6283908e-47
3.3840729e-47
2.8807634e-47
6.8761509e-48
2.0504617e-47
3.3157035e-47
2.5040406e-47
1.6077044e-47
1.6105703e-47
4.4242743e-48
9.7281164e-47
4.0514543e-47
6.4373918e-47
3.3929648e-47
9.8113552e-48
1.3450959e-47
1.2791709e-47
1.7069627e-47
5.7738081e-47
1.9405081e-47
6.7042629e-48
9.6194068e-48
7.3997238e-48
3.3596355e-47
8.4690743e-48
1.3684151e-47
2.105219e-47
1.9814544e-47
1.1573532e-47
1.623495e-47
2.2239322e-47
5.8848334e-48
2.1295553e-47
3.2874521e-47
6.3853689e-48
3.8645776e-48
1.4675699e-47
5.8711865e-48
4.8726268e-48
9.7398632e-48
4.3792652e-47
2.0731173e-47
9.8533947e-49
2.045886e-48
1.2659314e-48
5.3716048e-48
5.2663451e-48
1.0077176e-47
7.0162706e-49
7.7784371e-48
1.9614888e-48
2.3809009e-48
2.6999753e-48
1.1332217e-48
2.730754e-48
6.8697363e-48
1.6963021e-47
1.6866577e-48
1.7496812e-47
2.519903e-48
3.0509529e-48
1.52727e-47
8.794128e-48
1.020183e-47
8.6186554e-48
8.2442093e-48
1.3104686e-47
1.0787089e-47
1.3959599e-47
2.1704106e-47
1.4814756e-47
1.6135172e-47
1.8555018e-47
1.0921267e-47
2.6436573e-47
1.6376306e-47
2.7937933e-47
2.6526658e-47
1.4031131e-47
2.7957031e-47
4.8868452e-47
5.0296655e-47
2.0424338e-47
4.4552709e-48
1.8121348e-47
1.0020134e-47
3.3955423e-48
6.1813318e-48
5.4505829e-48
9.0989529e-48
3.4266589e-48
8.2433383e-47
1.8972836e-47
1.6521057e-47
3.0925068e-47
1.8390083e-47
3.8959556e-47
3.2718015e-47
1.0789597e-47
6.9287621e-47
2.0260908e-47
2.1822654e-47
4.0420812e-47
1.1123374e-47
8.790549e-48
1.6059635e-47
2.3044866e-47
1.8915939e-47
1.2353816e-47
1.4959199e-47
1.1533732e-47
1.3418494e-47
6.9170401e-48
1.5490681e-47
7.9537417e-48
6.7140641e-48
7.2186763e-48
8.222681e-48
3.6963535e-47
1.5859066e-46
3.6965649e-47
5.8946931e-47
1.1740796e-47
5.6977149e-48
5.9997711e-48
7.1282045e-48
1.2893273e-47
1.2383284e-47
8.4189459e-48
1.8217425e-47
9.8194513e-48
2.4345102e-47
2.541994e-48
1.0210684e-46
1.6696256e-47
1.2199815e-47
1.3838531e-47
1.8291052e-47
1.4064295e-47
8.7109168e-49
1.7473602e-47
4.5085107e-47
8.5082604e-48
1.3389324e-47
1.8226738e-45
1.5586692e-46
3.7208932e-48
1.3533313e-45
3.312701e-46
5.4173326e-46
1.6238315e-46
3.5870365e-46
5.8389473e-47
1.5932106e-46
1.9094579e-46
7.8048256e-47
1.1869974e-46
8.4840887e-47
4.5471332e-47
9.3550994e-47
1.0636832e-47
6.2344657e-47
6.6434157e-46
7.3198247e-46
5.8872781e-47
2.0781454e-46
1.3091392e-46
1.098507e-46
9.0205351e-47
5.8499429e-47
1.3773595e-46
2.9478168e-47
1.777066e-46
1.2106925e-46
1.1334999e-46
1.2897431e-46
1.5792456e-48
1.2030084e-47
2.9267966e-47
2.1145743e-47
1.4586974e-47
2.1913443e-47
1.1591072e-47
1.6446863e-47
1.0849566e-47
3.4376528e-47
2.151999e-47
2.032441e-47
4.3600994e-47
4.7216554e-47
2.4221136e-47
2.3435127e-47
4.9477903e-47
5.7288314e-47
4.2415448e-47
3.8661602e-47
2.2212696e-47
2.5861451e-47
3.7155489e-47
2.9940226e-47
3.2821717e-47
4.2944719e-47
3.3160279e-47
4.0578189e-47
4.1517632e-47
4.8961493e-47
4.7176717e-47
2.5974276e-47
3.2026381e-47
2.0802596e-47
2.8082387e-47
3.6112089e-47
4.8580288e-47
5.3115334e-47
3.6242196e-47
7.7418993e-47
3.8595779e-47
2.9142585e-47
2.9901787e-47
1.6599192e-47
1.4712897e-47
1.6470103e-47
1.7814011e-47
3.740731e-47
1.1517531e-47
1.7915421e-47
1.2545583e-47
7.1645957e-48
1.113741e-47
1.2528555e-47
3.5154402e-47
1.6486871e-47
9.9561044e-48
6.2129645e-48
5.0252187e-48
7.0268566e-48
1.2902781e-47
4.8271256e-47
2.1176498e-47
9.9118618e-48
5.4668214e-47
7.9454836e-48
1.1029481e-47
2.5061451e-47
8.804835e-48
4.8699892e-48
4.1447367e-47
2.241753e-47
6.5132757e-48
3.5160203e-48
1.8081614e-48
8.9303914e-48
2.1038939e-48
5.9711273e-48
3.3135801e-48
9.4824695e-48
3.0998223e-47
2.8851959e-47
1.4754525e-47
2.0741482e-47
7.12172e-48
8.2517287e-48
4.2630493e-48
1.3437367e-48
1.3808411e-47
1.7354492e-47
1.7213973e-47
2.3456066e-48
1.0809505e-48
8.216762e-48
6.1342392e-48
6.011958e-48
9.6472881e-49
1.823706e-48
2.0862335e-48
8.894332e-49
8.2722569e-49
1.4550077e-47
1.1709905e-47
1.6071989e-47
1.0462592e-47
1.1089572e-47
1.321577e-47
1.4628725e-47
1.5592222e-47
1.9687966e-47
1.5521998e-47
8.3419711e-48
2.1040787e-47
2.4283651e-47
1.6103407e-47
7.6620534e-48
2.2531295e-48
9.0362749e-48
2.9954947e-48
1.0266754e-47
6.5230732e-47
2.250601e-47
1.9394658e-47
2.5263519e-47
1.6757013e-47
2.1244649e-47
2.6429634e-47
3.3978172e-47
2.2423737e-47
6.0690152e-48
9.0645474e-48
1.1092677e-47
6.0963364e-48
6.8007876e-48
2.2557111e-47
1.4176526e-47
4.8939693e-48
1.4658261e-46
1.0624061e-46
3.5946934e-47
4.5549437e-47
3.5674659e-47
4.9880292e-47
1.0883452e-46
5.4558012e-47
9.0988544e-47
1.844559e-47
1.8965642e-47
2.6939737e-47
2.7852643e-47
3.7283609e-47
1.9955133e-47
1.8290012e-47
2.8574576e-47
2.6211291e-47
2.8080776e-47
9.65223e-48
8.0200205e-48
8.8642024e-48
1.1894362e-47
8.2681241e-48
1.2504722e-47
8.4830371e-48
1.0635831e-47
4.0366178e-47
2.0321485e-47
3.3752253e-47
2.1355981e-47
2.1037923e-47
1.7969515e-47
3.550286e-47
9.1833922e-48
1.9744042e-47
8.7574691e-48
5.7056715e-48
7.8170813e-48
2.8633459e-47
1.2642243e-47
1.0415982e-47
5.735053e-47
3.3609957e-47
6.5658322e-48
9.9985741e-48
2.0949929e-48
8.0367723e-48
3.3958537e-47
8.5323946e-48
1.0480029e-47
4.1262009e-48
1.6150519e-48
2.7175696e-47
6.3486024e-48
1.5306035e-48
5.3289049e-47
5.051049e-48
1.164567e-48
2.2722342e-45
1.7525133e-45
2.6799041e-46
3.2507716e-46
3.7102213e-46
2.8199153e-46
1.4262866e-46
3.4937006e-46
7.2610693e-47
1.1156878e-46
8.967301e-48
3.3186379e-47
2.4721554e-47
1.8548219e-47
3.599293e-47
2.2884363e-46
1.4444886e-47
7.0541879e-48
5.459214e-46
4.6182871e-46
2.1600056e-46
9.4165984e-47
1.3635557e-46
2.8335263e-46
3.5857845e-47
4.6488468e-47
9.3759381e-47
7.8690679e-47
4.3043714e-47
3.6481931e-47
1.6234936e-47
1.9107395e-47
2.6240134e-47
2.4091509e-46
2.3824041e-47
9.3817539e-47
1.3677074e-47
1.0511999e-47
1.0800293e-47
1.7397835e-47
1.8875221e-47
2.4392365e-47
2.1806024e-47
2.0666937e-47
2.1950233e-47
2.6995061e-47
2.2952894e-47
2.1750225e-47
5.0410641e-47
4.5640224e-47
2.6192825e-47
2.2772057e-47
5.8037385e-47
4.2278474e-47
3.5598121e-47
3.3606826e-47
2.648683e-47
2.6491038e-47
4.3475355e-47
3.2947764e-47
2.6585536e-47
3.3612536e-47
4.0118067e-47
3.8282899e-47
4.1974296e-47
2.8436856e-47
3.7726758e-47
3.4891082e-47
2.1095628e-47
3.1527244e-47
3.9159966e-47
2.2307416e-47
1.9927764e-47
2.5972214e-47
2.288356e-47
3.1794131e-47
5.6316167e-47
4.5692031e-47
3.3091044e-47
4.2656935e-47
5.9905833e-47
8.302011e-47
6.5173058e-48
1.5001618e-47
1.7562182e-47
2.734425e-47
2.641966e-47
3.3583673e-47
2.1514381e-47
2.6257095e-47
3.4218035e-47
1.557799e-47
8.6727881e-48
5.5803962e-48
1.9801785e-47
3.6873955e-47
1.0956612e-47
1.6230299e-47
5.6207101e-47
1.7481521e-47
1.2139318e-47
1.8805251e-47
7.4937346e-48
7.2505879e-48
1.7275482e-47
1.3457058e-47
8.8658922e-48
2.9250895e-47
3.3210852e-48
1.3939926e-47
1.1630964e-48
4.6160624e-48
1.2537981e-47
8.9666549e-48
7.0922197e-48
3.1480295e-47
1.6282817e-47
2.8360149e-47
4.4259559e-47
7.4110924e-48
1.4368872e-47
1.2256547e-47
3.0194663e-48
6.1508611e-48
1.4927298e-48
4.5885343e-48
5.3755514e-48
9.3053366e-48
1.2000837e-48
6.7890273e-48
4.7490408e-48
1.2726331e-47
3.2688346e-48
2.7398599e-48
7.0454004e-48
4.0213893e-48
5.299986e-48
4.8431292e-48
7.5998831e-48
1.4258439e-47
1.0430376e-48
1.4305615e-48
9.5215796e-48
1.6944961e-47
1.6553414e-47
2.2445396e-47
1.5275443e-47
1.5452589e-47
1.2890542e-47
1.4018872e-47
1.6622228e-47
1.7834212e-47
1.8959355e-47
1.0372558e-47
2.242755e-47
2.1847953e-47
1.6455654e-47
9.3342015e-48
8.2675629e-48
1.1028652e-47
1.5771175e-47
1.6704024e-47
4.6902056e-48
3.794703e-48
1.5950873e-47
1.892292e-47
3.1115783e-48
1.2440053e-47
4.6001681e-48
1.4154247e-47
4.4627738e-47
3.2972019e-47
5.7047311e-47
4.5246562e-47
2.9198406e-47
2.7311977e-47
2.6190376e-47
2.6295818e-47
2.4003083e-47
1.092923e-47
9.0350678e-48
8.9410368e-48
7.6129632e-48
1.0388229e-47
1.5272819e-47
1.715911e-47
1.0700442e-47
7.5796675e-47
3.3106521e-47
4.8634751e-47
6.0294347e-47
4.4449849e-47
1.3023813e-47
6.5393118e-47
1.174886e-46
7.6314511e-47
2.9131614e-47
2.028551e-47
1.6699049e-47
3.2310561e-47
4.0190477e-47
1.8329306e-47
2.4350586e-47
5.9719955e-47
1.8362229e-47
6.0586552e-47
2.4910958e-47
2.4228235e-47
2.0639067e-47
4.2825194e-47
2.6493307e-47
3.5136827e-47
5.9426967e-47
9.4173439e-48
2.0571586e-47
1.1081739e-47
5.4172544e-48
6.2444705e-47
1.3321016e-48
1.9015121e-48
8.8427575e-48
8.9053038e-48
1.362961e-47
1.062887e-47
1.4255692e-47
1.0344112e-47
1.1010814e-47
1.4813569e-48
2.6828013e-47
6.7080013e-48
8.3739706e-48
1.3930258e-47
1.4708166e-47
1.4113679e-47
3.631922e-47
6.6322695e-48
1.0279446e-47
6.1089647e-48
2.3975453e-47
2.2383896e-47
1.8389054e-48
1.122027e-47
8.9723539e-48
9.3043212e-48
4.4145038e-48
1.611519e-48
4.7681142e-48
1.6189665e-48
4.2866748e-48
7.6560864e-48
1.2079925e-45
5.6714243e-46
8.2242576e-47
4.2588685e-46
3.7535978e-46
2.4821423e-46
5.7170549e-47
1.1022986e-46
1.990759e-46
6.4894467e-47
6.0789756e-47
9.1489346e-47
1.344139e-47
4.4031838e-47
8.7055376e-48
1.4941236e-47
6.927667e-48
6.0480458e-48
4.8836008e-46
2.0371048e-46
1.8963815e-46
1.9476566e-46
9.9853396e-47
8.0537847e-47
8.6933829e-47
3.42994e-47
6.8536927e-47
3.3887419e-47
5.9979236e-47
4.8686765e-47
1.2730791e-47
4.8614911e-47
3.8712384e-48
3.3678255e-48
3.7616043e-48
1.1441984e-47
1.0204111e-47
1.7911798e-47
1.9118579e-47
1.089726e-47
2.0105752e-47
2.0767971e-47
2.0453909e-47
2.2554888e-47
4.4059369e-47
2.4775962e-47
6.8550079e-47
1.9942881e-47
2.213196e-47
2.3124115e-47
1.8731978e-47
6.27685e-47
4.4746207e-47
2.0305395e-47
1.9132973e-47
3.5774665e-47
3.7311059e-47
3.0628641e-47
2.8256205e-47
2.4391665e-47
2.3911191e-47
4.7258095e-47
4.9184948e-47
3.910019e-47
3.9829416e-47
2.5377511e-47
2.394098e-47
2.2024986e-47
3.427616e-47
2.8360118e-47
5.2638958e-47
3.7670999e-47
2.2597693e-47
4.5339975e-47
2.2403334e-47
2.1977413e-47
2.3591918e-47
2.3943983e-47
3.3557508e-47
2.8773012e-47
3.4004448e-47
3.269654e-47
3.7640012e-47
1.6497525e-47
2.7433686e-47
3.6696521e-47
9.6389716e-47
3.4743917e-47
3.3901633e-47
2.2766778e-47
1.688623e-47
1.988718e-47
1.8158824e-47
1.8336806e-47
1.7787593e-47
1.5039322e-47
3.4447683e-47
3.1395117e-47
2.1401326e-47
6.4538906e-47
5.6560966e-47
2.2639642e-47
4.4913882e-47
2.7116018e-47
1.7370015e-47
6.664306e-48
9.325307e-48
1.3771645e-47
1.2426346e-47
3.5702127e-47
1.8380066e-47
1.6060789e-47
1.8918215e-47
2.7400717e-47
3.4280365e-47
1.8051102e-47
1.4235601e-47
1.1999945e-47
3.5815924e-48
7.1302847e-48
2.0564949e-47
1.3067634e-47
7.6555481e-48
8.3110309e-48
3.8720784e-47
1.2970787e-48
5.9373289e-49
4.831894e-49
3.4867946e-48
4.8910002e-48
9.4371455e-48
5.3355366e-48
1.675279e-47
1.5027857e-47
1.0074127e-47
2.6472051e-48
9.6657308e-49
2.5863173e-48
1.1343078e-48
1.3252421e-48
3.1115669e-48
3.5234527e-48
3.142538e-48
6.8523395e-48
7.8035449e-48
1.9078561e-47
1.8396374e-47
2.2999486e-47
1.9708796e-47
2.733464e-47
2.0130492e-47
1.4369924e-47
1.3099103e-47
1.6246056e-47
1.7105087e-47
2.6553937e-47
1.2776976e-47
3.6089113e-47
2.8674849e-47
2.0783201e-47
1.1723281e-47
8.8796862e-48
1.1339824e-47
1.402684e-47
1.8698925e-47
1.3006808e-47
9.7484188e-48
6.8064962e-48
1.7837928e-47
1.0475432e-47
1.054086e-47
3.4289751e-47
1.9906053e-47
8.0160963e-48
6.1859835e-48
3.9095758e-47
1.6902228e-47
4.2990405e-47
2.5979154e-47
2.5404086e-47
4.5188873e-47
3.9205233e-47
4.3203975e-47
5.817555e-47
4.4000349e-47
3.7273136e-47
1.2055152e-47
2.3352155e-47
1.8938745e-47
1.6388905e-47
1.9804814e-47
1.0080109e-48
1.3786386e-47
1.2340404e-47
7.2115685e-47
2.5626883e-47
4.4588832e-47
4.8455821e-47
3.0970091e-47
9.4551943e-47
6.9206933e-47
5.4138947e-48
8.3748642e-47
2.8264639e-47
2.9428576e-47
7.1580665e-47
4.0606271e-47
3.8289491e-47
3.4834553e-47
2.4544668e-47
1.3268354e-47
4.1947315e-47
2.9389238e-47
4.1237787e-47
2.1876797e-47
2.366759e-47
7.93701e-48
4.0335564e-47
3.3450251e-47
3.0056538e-47
3.4885002e-47
4.3163128e-47
3.748282e-47
2.2750608e-47
3.2838037e-47
1.1926235e-48
1.9502674e-47
2.8172981e-47
1.8831509e-47
2.2775952e-48
2.0717963e-48
2.3892135e-47
1.7498674e-47
8.709627e-48
1.3849568e-48
1.8572555e-47
4.3222198e-48
3.1755678e-48
2.0401248e-47
1.3009976e-47
7.1920535e-48
4.2403469e-48
3.2411962e-47
1.5520712e-47
1.1052052e-47
8.34467e-48
5.5552268e-49
1.2831124e-47
2.9500631e-47
5.7820942e-48
5.8852716e-48
1.6760828e-47
2.9454535e-48
2.2233905e-48
2.730946e-48
4.9260598e-48
2.8727609e-48
1.9646841e-48
5.1946865e-48
1.2454795e-45
1.2266447e-45
5.516662e-46
2.7546069e-46
2.6780192e-46
2.8732745e-46
4.5245895e-47
6.1069085e-47
1.0738976e-46
7.2709848e-47
4.9594482e-47
2.3742511e-47
2.7067693e-47
6.1127409e-47
2.1306538e-47
8.8416918e-48
1.9368356e-48
2.0009271e-47
2.9712089e-46
4.9913773e-46
3.6556578e-47
3.1760005e-47
9.0000655e-47
1.0928023e-46
7.645306e-47
6.2067156e-47
3.7362004e-47
5.7429908e-47
8.3760451e-47
7.1225779e-47
8.4067596e-47
9.3601654e-47
4.2250979e-47
1.8700261e-48
8.9309543e-48
1.0187052e-46
1.5114286e-47
9.4467717e-48
1.146329e-47
2.0794073e-47
1.4503735e-47
1.8828708e-47
1.9114389e-47
1.9170732e-47
2.8725094e-47
2.5663511e-47
6.7358904e-47
4.9827697e-47
9.1849777e-47
4.9139626e-47
5.8756396e-47
4.3522349e-47
1.377368e-47
2.0593371e-47
1.7462915e-47
4.2978071e-47
2.3897385e-47
1.7568323e-47
1.8820446e-47
3.6137717e-47
3.3831748e-47
3.091251e-47
3.9942669e-47
2.6764554e-47
2.7057773e-47
4.585457e-47
4.3545685e-47
3.6007225e-47
3.5131785e-47
1.6008262e-47
3.7346543e-47
4.0626003e-47
1.2613908e-47
2.5755088e-47
2.7600623e-47
2.5139789e-47
3.5258324e-47
3.7897367e-47
3.0760462e-47
2.8866289e-47
2.394448e-47
2.1884024e-47
3.4611733e-47
3.4936432e-47
3.6753648e-47
3.8753761e-47
5.1195519e-47
2.2670265e-47
5.9293062e-47
6.7166148e-47
2.2291446e-47
2.8673745e-47
3.2096469e-47
2.8041318e-47
3.1254686e-47
4.7425646e-47
2.0043124e-47
1.7880929e-47
2.6363385e-47
1.215367e-47
2.9602883e-47
1.496748e-47
2.3880529e-47
3.4349254e-47
1.4522872e-47
1.3199397e-47
2.3226235e-47
7.7260692e-48
4.0800907e-48
1.8268516e-47
3.9587631e-48
2.2787284e-47
2.3399151e-47
2.231159e-47
3.2187345e-47
1.2800298e-47
1.6285269e-47
2.8039684e-48
9.1896627e-48
3.757157e-47
2.8183697e-47
7.8632931e-48
9.3133105e-48
1.3230728e-47
4.5166955e-48
8.4676573e-48
7.8708415e-48
4.2697294e-47
3.3504559e-48
1.603507e-48
5.6973096e-48
1.3701388e-47
1.8591174e-48
4.213696e-48
1.5446246e-47
1.2264733e-47
3.9475734e-47
8.7660943e-48
5.5245841e-48
2.6197663e-48
2.6836775e-48
5.759213e-48
9.6657645e-49
1.7211907e-47
1.4349553e-47
1.6909123e-48
1.4349846e-48
1.2016481e-48
2.0779579e-48
4.2480021e-48
2.7573094e-47
1.8279251e-47
1.955769e-47
2.5769237e-47
2.0821028e-47
1.2881192e-47
1.5140288e-47
1.9214319e-47
1.524343e-47
4.9914674e-47
3.0718951e-47
1.3598103e-47
5.1594387e-47
2.7309483e-47
1.3936778e-47
9.7236857e-48
1.0485153e-47
7.2521778e-48
2.7209652e-47
1.5936638e-47
2.022798e-47
1.1416584e-47
2.0468496e-47
9.2563569e-48
1.2717035e-47
2.7343811e-47
1.7191616e-47
1.2694399e-47
1.8570713e-47
1.178183e-47
1.436853e-47
1.2808777e-47
2.2608444e-47
2.9434091e-47
2.2598455e-47
2.3474996e-47
4.6473118e-47
2.1556452e-47
4.329753e-47
4.5408074e-47
3.8404869e-47
3.8927535e-47
4.2375326e-47
4.5651973e-47
3.8379072e-47
2.8336984e-47
1.9838659e-47
2.7887749e-47
1.0504974e-48
9.3499457e-49
1.1882098e-48
3.0518016e-47
4.4074069e-47
2.7862465e-47
4.2507214e-47
8.2511115e-47
3.4203175e-47
7.0600515e-47
5.3386106e-47
3.7348159e-47
7.8350411e-47
2.8457039e-47
1.4217222e-47
3.1203037e-47
3.5591684e-47
4.0656422e-47
4.7564641e-47
2.1264533e-47
1.0310771e-47
5.1915892e-48
1.7875444e-47
1.9460082e-47
2.9083957e-47
1.273472e-47
1.2284112e-47
2.9887296e-47
2.3638534e-47
1.4577239e-47
2.2640625e-47
5.172119e-47
1.4314198e-47
7.6800424e-48
5.1049338e-47
1.2499849e-48
5.1967178e-48
4.2888354e-48
3.6627163e-47
9.2844767e-48
2.6621729e-47
1.6158013e-47
1.7296884e-47
1.9037667e-47
3.8782972e-47
5.127576e-48
1.6545592e-48
5.9958311e-48
4.4249036e-48
1.2942586e-47
8.6852959e-48
7.5237866e-48
2.5679252e-49
3.5129296e-47
1.2962685e-47
2.7184436e-47
3.5886496e-48
5.5929857e-48
1.1403862e-48
5.0187263e-49
1.3850387e-47
5.5296827e-48
1.3997343e-48
1.6831388e-47
1.7489355e-47
1.7560356e-47
4.0042142e-48
1.4544016e-48
2.1485165e-48
4.8124752e-46
4.2240213e-46
1.8192936e-46
3.5817844e-46
2.5254608e-46
2.6525202e-46
1.2471575e-46
5.9259668e-47
1.5438947e-46
1.7752487e-46
1.9129655e-46
7.7153454e-47
1.0680017e-46
1.4066603e-46
2.2020044e-47
2.9633312e-48
3.5717308e-48
1.0510568e-46
1.5752582e-46
1.0226562e-46
6.4535262e-47
1.2810556e-46
2.077532e-46
1.0176314e-46
5.3151207e-47
6.4886085e-47
2.6543388e-47
3.4768663e-47
3.1435138e-47
5.6584372e-47
7.3598551e-47
3.1580597e-47
1.4112913e-47
2.039642e-47
4.540065e-48
6.5625321e-48
1.2926678e-47
3.4706168e-47
2.9639642e-47
3.7608468e-47
3.8612511e-47
1.0665018e-47
1.4279649e-47
9.9451173e-48
1.0642495e-47
1.9800873e-47
2.0911037e-47
1.6104028e-47
1.4406665e-47
1.6366863e-47
3.132331e-47
3.5448534e-47
2.6447967e-47
2.2851397e-47
4.5611134e-47
4.8046307e-47
4.3922683e-47
5.6053659e-47
1.3282222e-47
1.8557697e-47
1.7251023e-47
3.0333597e-47
3.0730242e-47
2.3946595e-47
2.3092264e-47
3.4069747e-47
3.9681564e-47
4.9238617e-47
3.7712046e-47
2.5644903e-47
4.1529022e-47
4.1745385e-47
3.627246e-47
3.3919152e-47
3.1316384e-47
8.9460946e-48
2.6396135e-47
3.3377323e-47
5.9267442e-47
4.6475667e-47
4.7718371e-47
4.0902218e-47
2.2149951e-47
3.0898552e-47
2.8974702e-47
3.1748316e-47
3.8860283e-47
3.3085815e-47
4.6170447e-47
4.3415888e-47
3.8728621e-47
3.6390515e-47
2.0178649e-47
1.4973364e-47
2.090785e-47
1.5358763e-47
1.7589042e-47
1.276973e-47
1.136833e-47
9.6023864e-48
1.0622197e-47
6.6614968e-47
1.3956469e-47
4.3428251e-47
2.1345591e-47
1.7290583e-47
3.5891695e-47
3.1994333e-47
3.0844733e-47
3.8745007e-47
5.1127046e-47
1.016743e-47
1.3071292e-47
5.4202138e-47
1.0092194e-47
1.8332626e-47
1.5215652e-47
9.4723886e-47
2.9932781e-47
1.2246027e-47
3.6377405e-47
3.6233618e-47
1.8247035e-47
1.5327311e-47
1.0537635e-47
3.4158816e-48
7.9562762e-48
3.4844085e-49
1.4809867e-47
6.0006547e-49
8.4919247e-48
1.1536952e-47
1.8650757e-47
3.6068601e-47
3.6138199e-47
1.4745553e-47
2.7455281e-47
3.8167225e-48
2.0789591e-48
1.66366e-47
4.0838795e-48
3.3488293e-48
3.8109329e-48
1.3699905e-47
1.5005467e-48
2.0593222e-48
2.5764835e-48
4.8577585e-48
7.9969785e-48
1.0659753e-47
5.7971085e-48
1.2977152e-48
7.1788933e-48
5.8073618e-48
4.6209647e-48
3.0704491e-48
2.5951873e-48
1.9792959e-47
2.1853001e-47
1.662813e-47
2.1159275e-47
2.0439965e-47
1.3921617e-47
1.1159893e-47
1.6802158e-47
1.2137942e-47
2.9432079e-47
1.21076e-47
7.4596335e-47
7.1237921e-47
2.8736737e-47
1.3839924e-47
1.0561318e-47
1.0121258e-47
2.4957315e-47
9.2110495e-48
3.1327579e-47
1.7306811e-47
2.8542333e-47
2.796258e-47
1.2362357e-47
1.5157317e-47
1.2870869e-47
2.7117205e-47
2.1668611e-47
3.2828163e-47
2.0398433e-47
9.2398573e-48
1.6104858e-47
1.7591431e-47
2.3894234e-47
2.742121e-47
2.201512e-47
2.7866369e-47
4.2903478e-47
4.0536784e-47
3.0703581e-47
2.5211572e-47
4.6100873e-47
6.498509e-47
3.5589715e-47
3.6154225e-47
5.8953854e-47
5.6538878e-47
2.2236828e-47
2.1251406e-47
5.8317422e-47
1.2103285e-48
1.2298264e-48
1.1301287e-48
1.0513624e-48
9.0062202e-47
3.4205362e-47
2.3342e-47
2.1565287e-47
2.9286169e-47
4.7385979e-47
5.6429452e-47
6.045199e-47
4.4537294e-47
2.2731163e-47
1.8375748e-47
3.4321929e-47
1.5477652e-47
3.2094788e-47
1.7859354e-47
3.7031306e-47
1.5285167e-47
2.2617642e-47
4.4669253e-47
2.2655393e-47
4.4808714e-48
6.2164461e-47
5.6269621e-48
1.0252422e-47
1.0373987e-47
1.6489397e-47
1.5168365e-47
1.9491664e-47
2.3549877e-47
2.7141556e-47
5.7692004e-47
2.771153e-47
1.9386138e-47
1.1689363e-47
1.1517248e-47
2.9241621e-48
1.5245235e-48
2.0023248e-47
9.5273507e-48
1.2012626e-47
1.3787639e-48
4.8276748e-47
1.7738108e-47
3.9386833e-48
1.248729e-47
1.6967842e-48
2.4388944e-48
4.4090706e-48
1.0084628e-48
1.3992433e-47
8.8097664e-48
1.0871314e-47
1.6231653e-48
3.7717595e-48
1.3984581e-47
1.1473553e-48
1.4215773e-47
1.9980828e-47
2.3434484e-48
1.6385243e-48
6.8262019e-49
3.5901081e-48
3.516694e-48
2.58785e-47
3.9838475e-48
7.6217126e-46
4.5376903e-46
1.580917e-46
9.999397e-47
2.8055924e-46
7.5878476e-47
4.2304416e-47
4.9203e-47
6.3128228e-47
1.1225518e-46
3.8023296e-47
4.2619843e-47
8.890286e-47
3.6571084e-47
5.1846522e-47
1.4086759e-47
1.1427051e-47
5.4879558e-46
2.8678035e-46
6.4143054e-47
3.7885527e-47
1.570172e-46
2.9792032e-47
8.9579882e-47
5.0410877e-47
3.2983542e-47
3.8993235e-47
2.3524684e-47
3.4145713e-47
1.4602952e-47
3.3570234e-47
6.4708589e-47
1.9118508e-47
3.1511113e-47
3.0296029e-47
1.8107292e-47
1.1496183e-47
1.3145244e-47
1.1482742e-47
9.1758832e-48
1.1268638e-47
1.2332081e-47
9.8278951e-48
3.2070356e-47
2.7017425e-47
2.9250859e-47
3.0883695e-47
2.4534459e-47
2.1228085e-47
3.0400798e-47
2.4012468e-47
2.0684903e-47
1.9710667e-47
2.1526688e-47
9.513921e-48
1.0217987e-47
1.3747849e-47
9.504694e-48
1.1176683e-47
1.8133729e-47
2.0354727e-47
1.3054683e-47
1.5103358e-47
1.9559738e-47
1.4140224e-47
1.7177116e-47
2.0710409e-47
2.5503359e-47
2.8914072e-47
6.8674827e-47
9.1942982e-47
3.989764e-47
8.9677937e-48
2.5974335e-47