/*--------------------------------*- C++ -*----------------------------------*\
  =========                 |
  \\      /  F ield         | OpenFOAM: The Open Source CFD Toolbox
   \\    /   O peration     | Website:  https://openfoam.org
    \\  /    A nd           | Version:  7
     \\/     M anipulation  |
\*---------------------------------------------------------------------------*/
FoamFile
{
    version     2.0;
    format      ascii;
    class       volScalarField;
    location    "1000";
    object      omega;
}
// * * * * * * * * * * * * * * * * * * * * * * * * * * * * * * * * * * * * * //

dimensions      [0 0 -1 0 0 0 0];

internalField   nonuniform List<scalar> 
33730
(
752.37762
2241.0683
668.50879
775.17808
880.54274
1035.5388
776.72323
773.73315
538.53351
530.37978
600.30575
613.24416
3511.2554
2326.5871
2464.4754
1971.1666
2320.3369
2270.6853
2061.6521
685.5042
477.92877
474.97796
526.08204
520.84925
846.1946
970.2743
543.69268
831.95929
817.43554
934.01756
616.21348
610.07409
540.21316
1008.4796
1361.886
863.68924
693.09911
829.66598
693.81424
490.11917
485.8787
547.03772
553.68594
1200.5465
3890.8261
3138.0139
3287.6529
3198.4419
3580.9702
3260.5629
2376.9731
2513.9502
1880.3302
1961.1366
2393.3133
2312.5011
1954.8744
2275.1576
2346.4644
2003.8806
709.56007
481.2104
477.30402
521.71784
534.43612
449.24938
446.95667
463.16866
464.70303
824.37983
1041.1225
564.51863
566.39242
900.77552
1122.0802
899.91654
656.44863
658.34502
1144.6693
485.00696
925.89183
702.92167
936.99924
700.22957
1111.7039
530.72813
544.75926
491.37648
1049.1145
1360.2424
883.9549
748.69528
643.35484
713.3965
708.67942
666.48393
532.65931
528.21286
560.85746
579.04537
656.20274
1120.9799
783.86351
938.50263
910.2027
750.23852
1699.4029
1346.5631
1810.4034
1367.4736
3924.8812
3042.9822
3108.4882
3262.1683
3046.0116
3332.375
3330.0815
3513.1432
3590.4598
3168.4738
2417.3533
2241.0282
1805.4525
1902.9237
2366.8491
2361.5104
1862.5108
2114.458
2397.3474
2352.404
2326.3189
2471.984
2214.4634
1698.7367
690.06437
487.57434
551.09802
542.49748
486.50935
450.00234
451.22326
466.83311
465.3064
501.07721
497.02672
508.27591
508.43997
782.97344
1152.1281
1107.5737
554.53654
549.79504
633.34929
644.52243
886.34153
931.11884
1274.5956
490.98447
500.16766
967.03447
761.60593
1353.0134
994.19724
764.8612
549.85275
539.73583
1240.8506
561.11402
788.75488
943.28564
638.87059
788.58869
972.33961
656.38643
1299.2945
572.87097
581.82982
545.09892
1649.7221
979.33029
1564.5651
865.59269
720.89098
651.07474
601.70458
701.07113
502.9759
690.89766
664.56134
653.71286
604.54357
627.28577
1009.4279
645.12487
624.72133
494.91661
636.78547
507.01894
1001.8529
708.89037
843.69119
891.93312
765.98181
1347.5138
1781.1231
1333.1434
1743.9235
579.9808
721.55671
1082.2242
688.0185
1078.0601
545.83583
1902.656
1569.0669
1846.2839
1528.4118
4092.0809
3058.9729
3042.5091
2990.7155
3255.75
3522.1372
3170.4795
3378.1823
3985.7138
3341.0528
3575.3954
3368.8945
3345.5545
3417.5959
2375.5645
1573.6811
1553.9952
3567.0779
2400.9376
4574.8263
2100.1673
1938.2048
2423.9958
2849.2573
2395.8894
2554.6784
2554.648
2229.9551
2249.3061
2353.468
2103.9913
1115.1511
552.18388
679.37683
475.85448
536.7066
534.06144
478.34213
457.63298
477.32014
470.69019
452.75746
511.28779
507.9918
520.56234
529.13056
630.51667
618.60259
632.6979
629.50524
878.13187
1036.3232
1011.625
893.11793
907.02698
542.54962
540.05297
614.99379
632.2083
1335.5791
1340.6572
491.84139
485.78856
544.67345
767.44008
550.3954
767.69517
1020.6308
1098.7732
1375.3948
557.9778
527.15246
813.3809
1101.5499
641.55289
1381.9403
1119.3013
815.80568
632.33495
552.1313
573.72023
1215.6418
703.66542
745.98204
738.56467
1175.6822
636.79712
786.25435
836.64394
708.88764
684.75518
1817.9848
674.47974
649.21021
665.50862
1211.7613
759.76888
711.08233
656.37419
472.91378
590.74998
705.93464
699.71338
745.14188
986.17449
741.33571
513.93428
658.59461
476.29808
586.04809
637.62676
519.28982
491.94545
456.72812
515.78345
456.91977
959.85595
628.53987
783.65412
793.10356
634.48202
1301.5533
1298.7543
1791.2062
1667.5483
511.30409
615.1551
992.1472
642.61351
1085.0949
546.14048
1550.0478
2298.7537
1603.2001
2227.3642
546.35816
864.50119
637.02024
1145.8061
623.35274
845.1333
1173.1521
538.31696
1994.0763
1601.6514
1580.3689
1568.2547
4131.2663
2145.3459
2620.5832
2471.7138
4223.8704
5805.2898
3166.0605
3478.7588
3165.4625
5442.7082
3625.3688
3223.2449
3429.3606
3346.4699
3337.6939
3105.9496
2923.1382
2803.418
2427.1452
1208.4216
2596.1841
2131.7788
3816.5485
2425.0745
3392.7214
2397.7091
2206.8404
2515.8039
2557.096
2227.4897
2409.5992
2495.478
2195.4998
2192.8919
1690.5165
1781.6716
567.32127
436.15907
437.07552
468.74088
470.16662
740.53962
478.46432
533.12246
527.68139
476.56072
445.73773
463.27859
469.28115
450.99216
505.10063
514.8005
536.38715
522.48119
627.09419
613.21004
639.71423
660.36981
766.88348
949.26173
1234.4622
546.35593
551.67632
1084.2772
916.10516
617.20121
598.39716
1435.167
1268.4581
1053.9275
755.45616
1035.2766
754.37758
482.36367
477.36494
529.5572
542.2739
1219.6241
1130.6138
509.80403
501.11323
657.75505
549.00826
874.29707
653.10446
547.37179
865.47948
1039.0213
1110.3814
2784.9765
699.30421
634.08385
732.2684
726.34209
1859.8458
648.26453
2496.7486
1111.7202
811.82382
705.5978
633.6879
607.46575
683.55386
645.68745
730.65295
712.43699
656.62391
802.11066
814.35541
1365.7218
684.67584
685.04165
765.41
708.98976
590.65566
633.38802
714.84482
645.40183
631.31146
696.5604
515.38734
455.91108
409.23268
441.60423
411.29808
674.04565
458.17888
567.8108
559.10148
459.77323
449.86923
475.94051
499.22429
457.8109
503.0074
481.7334
505.71955
493.90972
914.36992
583.62384
714.90803
773.59796
604.28903
1529.6331
1249.9182
1783.3686
1296.7484
486.40189
546.84976
1041.1797
560.42779
983.83474
489.95046
1585.8823
1538.8948
2117.4721
2146.744
526.74969
760.73144
584.65887
1133.2677
618.91486
816.68694
1215.3009
534.04681
1556.1516
2333.7149
1851.4692
2439.6495
612.643
786.9747
933.44032
630.04658
807.72299
641.51862
775.19907
915.68157
1187.9596
621.6478
1538.3703
1142.4165
896.5041
1336.806
4119.8957
1466.367
6089.0864
3192.7488
2982.0734
2989.501
4400.3766
3558.1039
3415.1147
3320.6823
3157.6674
3474.2008
2874.7899
3085.3777
2858.3753
2806.1462
3136.2877
2693.7793
2370.4256
2188.1937
2112.6808
2407.972
2302.2403
2561.8733
2566.2517
2265.9538
2353.4954
2581.2428
2742.4454
2218.759
1831.9172
2102.3647
2165.3209
1956.5288
1069.2143
1800.4287
468.75891
586.45584
437.14558
437.26536
470.55151
474.04922
421.63669
423.21215
435.93642
432.49153
692.81114
487.99871
556.14984
546.82926
483.54106
442.06196
457.01023
461.02577
444.02152
476.37965
483.44281
491.0054
480.30218
592.57319
609.54393
676.34957
646.20938
721.94095
1118.1166
539.06876
546.70277
894.21521
884.22579
1053.9415
628.81812
622.50041
1129.2548
751.57217
1721.6363
477.5786
481.22183
1425.5936
1078.3567
751.39918
557.125
522.62544
1769.9388
1337.5263
831.44458
833.73453
655.74196
867.46668
820.98656
637.02738
499.14788
501.63159
539.69885
544.84797
1139.5569
997.87189
604.75749
596.87163
766.31245
655.62542
579.21058
807.92058
756.43976
663.34796
609.405
796.58483
1055.2997
879.18243
485.67226
738.90217
728.97824
652.45971
652.24733
707.49385
702.14364
654.08579
1049.4458
721.4497
710.21611
791.17877
833.747
617.97915
821.26555
641.17109
1044.7149
524.30568
406.26076
436.7759
436.6765
408.90237
426.71724
428.25213
551.7358
552.81017
435.95341
429.32542
437.67581
427.39305
657.81638
454.28762
558.07571
554.78619
454.83019
447.20904
467.71175
468.17751
447.94395
489.40397
495.73537
499.83592
485.91294
608.2906
588.63897
595.24789
610.1461
1112.7169
550.04983
729.34146
717.89772
546.64287
1120.19
1488.0975
1178.2568
1374.4946
479.3714
544.87893
918.90647
590.80331
1075.734
484.83947
1876.7287
1396.7786
2074.9231
1551.2927
518.86539
746.7816
566.56379
1260.2813
617.61217
774.08573
1169.187
536.17269
1534.1605
1726.046
2259.1969
1939.7573
631.8685
714.82014
898.43066
629.50338
1238.8572
617.90143
770.93256
936.20559
1141.7935
598.87844
987.57345
6216.0522
2080.7308
1875.4081
748.52431
896.06507
685.0091
425.94538
748.22517
890.42826
768.72164
879.75019
3938.4563
6643.6445
2951.8562
3567.0902
3233.5378
3027.8982
3312.6102
3317.3986
3015.3085
2936.0049
2889.4893
3101.1571
2538.2482
3027.9804
2583.0865
2165.6344
2525.7027
2981.2433
2409.5759
2298.0899
2432.1319
2458.8213
2244.4606
2220.3918
2457.4649
2389.1519
2345.8997
2145.9011
2960.534
2867.7406
3053.6311
2677.042
1035.5331
1652.3715
2427.8903
2337.946
469.4203
431.92214
413.84252
431.30984
414.08229
591.59361
438.82562
440.39038
479.37697
484.26143
420.8277
419.40329
431.54166
429.99001
461.44911
459.16501
469.47544
469.55131
636.58063
478.167
525.58565
525.62559
479.45148
444.88001
459.63681
458.49713
442.83201
477.54565
485.69825
483.71989
478.01325
548.80583
562.20922
572.29847
553.70577
765.13132
1177.6049
1061.4098
525.9403
530.70523
600.38622
607.91151
892.56438
900.30485
1419.6473
480.41743
479.2857
1132.2514
772.58666
1145.5788
808.21004
1398.6685
545.47712
527.31122
850.07836
1260.4137
635.30441
1698.644
500.97079
506.50755
1750.4731
1240.5378
895.91915
709.29544
552.138
534.08211
1968.0141
1360.7173
698.89818
727.57541
498.06841
652.24616
591.53219
704.54796
656.80044
635.80014
582.37261
590.7992
604.84095
566.74382
851.55451
735.42194
655.21575
583.64241
773.27496
766.6719
667.67515
611.75464
623.19725
831.87889
727.87116
840.83255
699.33216
709.65166
1028.5967
731.21334
786.36898
527.69451
405.9369
437.96769
434.80007
406.40677
426.77939
426.14575
553.77537
551.71027
427.36445
397.32474
436.35573
438.20603
430.27604
400.11841
499.8158
502.02416
501.9964
502.59843
685.40247
521.09793
447.79087
515.95542
448.34948
447.8741
463.47316
465.50495
447.11175
493.16348
494.81629
495.52376
492.82399
586.1979
587.96052
568.6069
580.13362
966.92616
667.34684
864.82267
897.78505
624.56359
1356.7233
1727.3852
1408.8262
1741.8569
498.52295
667.12117
979.60125
577.50569
906.00627
477.87149
1351.6105
1800.7463
1306.189
1739.7465
520.85907
593.68065
708.06606
1066.7454
601.45985
858.66357
1339.0784
526.11432
1903.0893
1314.2529
1940.1339
1546.3521
646.07558
707.69473
1093.754
650.39336
1537.3399
666.18774
792.47847
996.80081
1462.8371
649.39528
1962.8605
4104.7316
2916.1919
1528.5271
726.01555
875.22722
967.79678
2045.6028
740.97196
888.4844
791.71973
733.70939
875.57912
763.64258
422.26634
865.08671
900.49364
501.51173
4033.6305
3703.1827
3219.8935
3049.5755
3273.3985
3392.8656
2871.854
2566.2394
2824.7323
2794.7913
2446.3715
2544.4476
2396.6528
2339.1569
2343.5437
5830.6592
2482.05
1474.273
2351.3887
2264.3048
2411.6754
2062.5113
2132.3997
2345.7459
2374.6597
2183.6592
2122.2183
2112.1748
2212.7419
1792.3084
1875.0461
1606.8917
3207.071
6311.704
3058.9037
3913.3289
468.93096
415.91252
415.049
432.71864
434.3155
410.08522
403.1959
411.70646
404.3267
572.09051
438.1361
437.63718
478.20351
478.5441
419.89967
422.53552
430.8941
433.19204
464.40351
465.27629
473.03576
471.98672
534.72364
530.28395
532.1104
538.65962
597.72221
473.10221
514.15528
518.57525
473.78439
439.40847
454.99064
455.8341
440.77439
469.95317
481.7244
484.53463
472.9847
559.52202
569.61006
560.11733
557.40858
706.41623
1260.4708
1263.1108
969.47778
973.89032
535.06237
638.00452
624.96929
526.62966
1472.5872
1463.9724
473.40258
473.37606
517.56504
748.05944
523.04729
744.61683
1122.8686
1138.4103
1538.4395
508.1956
503.4983
1287.8253
971.05078
657.13386
1044.6837
1343.3958
705.84294
1549.0583
565.92018
533.97256
825.30339
710.87845
1675.8653
628.71356
1098.9784
588.45309
594.48959
2549.8665
2275.8979
938.29819
842.82091
704.32389
594.12125
590.99444
545.65079
671.51818
706.6664
644.11175
543.41064
500.27092
649.38782
640.03381
1016.0325
772.53527
731.59235
842.93147
810.9944
765.34966
994.14246
844.83948
716.75062
705.35239
1119.6311
534.3524
403.92797
434.48087
433.01898
405.69101
425.78971
423.77681
551.53597
552.73414
427.89297
397.14974
437.74693
437.20872
429.32332
398.51954
418.79915
417.58119
500.55265
418.85802
501.30098
507.83399
507.13355
421.6401
605.00923
605.92434
622.77167
611.72227
655.06476
484.21699
587.91591
543.80728
460.06887
459.43917
443.63635
459.37451
445.29128
496.29295
500.15259
493.96314
489.21945
617.51666
602.73664
599.049
618.52437
964.80185
651.62501
883.67973
862.00974
658.81064
1497.4516
1232.6825
1276.105
1421.6888
568.26413
705.12405
1073.7876
691.61145
1116.7043
518.52068
1426.6341
1783.7007
1435.1443
1906.5069
534.79683
878.52556
646.68981
1035.148
583.86405
762.4163
1047.7245
513.72977
1595.4029
1466.2261
1106.1994
1874.0559
634.14184
650.36575
738.35312
823.95401
1084.8509
616.58412
796.77032
1105.3358
1536.9112
617.43529
2215.6049
1194.407
2260.2815
1812.313
698.53038
916.45163
1334.2798
1618.0284
791.58078
944.06103
1082.0185
2947.9983
850.59144
834.19189
1521.3428
861.88994
817.78943
554.50435
763.44267
560.66123
890.57231
901.31439
4166.8315
3786.9893
3448.6208
3374.2676
3409.1609
3456.1969
2942.791
2659.3641
2649.6612
3013.6098
2379.6803
1751.3716
2048.2207
2271.7589
2393.5452
1863.0975
1564.2135
1553.526
2255.4399
2099.2613
2437.3593
2420.8416
2156.1771
2157.029
2415.7164
2072.533
1999.3214
2360.3931
2269.864
1552.0641
1983.1699
2249.7909
1200.4375
1058.6906
1194.7317
1207.2432
414.37467
432.66413
432.5535
414.46934
406.43741
403.5035
410.81887
413.62662
453.8309
444.07546
453.09118
446.17063
553.09804
435.9277
436.65359
472.10331
472.11738
420.47735
419.62883
429.86906
428.50469
457.14492
457.74145
464.69262
463.13228
543.96128
542.64047
556.48569
555.98563
580.4891
470.93966
506.8837
507.99348
470.30394
437.99759
453.0411
453.06363
437.26544
471.30079
484.58073
483.99858
469.14672
552.10298
563.66937
566.88067
553.32263
689.20468
1016.9608
1029.0807
880.74668
877.55403
658.76297
614.21604
524.91171
567.19891
1520.977
1546.9113
1147.188
771.98036
1168.6143
788.01881
478.01626
536.71347
537.39783
476.53737
1493.6345
1668.2721
502.1816
504.70209
620.56111
530.64747
934.07048
635.71782
530.09382
915.02963
1143.7397
1306.4161
2426.5011
624.77219
606.16411
2053.7213
1119.7996
818.34838
646.73692
1159.0908
935.28023
1229.4305
717.93868
2764.9424
622.10303
611.95357
1016.2303
713.71518
701.55569
632.19644
925.31392
832.25009
824.40583
686.85784
803.35782
672.56412
698.61468
425.02833
562.38064
655.54494
988.18273
767.71858
871.10002
811.33886
1114.1191
531.38307
439.25917
412.73113
452.92536
407.05739
425.90048
427.55302
551.2575
552.42173
424.46667
395.70745
432.90236
435.59985
427.0866
397.96408
417.92215
415.1077
496.40664
419.65629
386.87327
499.09141
493.09965
421.93442
494.84204
388.07634
596.78111
494.39572
636.63929
637.32899
591.48943
506.22492
647.07747
461.50075
531.64093
562.30004
480.4319
468.7056
507.41274
476.37879
453.3393
501.01112
504.32372
516.40361
498.60543
628.9679
627.86085
582.5294
597.13096
1107.9645
579.60157
809.31016
872.84839
645.73237
1648.6325
1213.9426
1216.9255
1674.1965
553.73283
738.96218
1057.1784
712.93618
1096.626
566.11943
1846.3819
1331.3634
1418.8715
1794.3362
591.79355
907.74804
716.83883
1136.9153
654.95468
908.98514
1110.5424
533.61808
1334.1385
1397.342
1194.5534
1509.9504
611.6075
847.81868
942.25669
640.58971
744.56262
654.30374
768.68884
910.24588
907.88983
646.21514
1688.0224
1117.2934
842.86172
1734.6866
751.07608
833.66482
688.18398
1484.7543
763.77173
997.08926
1110.2223
1342.1658
852.50138
1134.3637
986.36538
923.64495
1119.5746
859.92782
820.19848
656.65412
815.65181
615.49698
549.90388
881.59129
4291.7478
3820.6889
3170.65
3144.8541
3440.2604
3438.6401
3075.1421
2988.3738
3231.545
3144.4817
2474.2085
2276.768
1862.2859
2772.5956
1682.69
902.41276
1007.5126
1629.4142
2158.6401
1995.2983
2238.7428
2283.8944
1966.3659
1936.2367
2450.1141
2502.5317
2167.0852
2144.4745
2182.7039
1951.1457
1722.7046
2464.9532
3597.5686
1073.8709
1746.7658
3682.4055
431.94071
414.24522
413.14076
430.70915
404.85017
411.57622
412.44578
405.2109
443.13485
437.80117
445.84982
450.12544
528.19665
514.37418
537.24162
532.7821
534.0453
436.30224
435.95777
467.44047
466.93707
416.55434
418.21481
425.93627
427.31916
456.01045
456.99341
461.16505
462.52892
525.0891
521.01411
543.73139
539.29913
572.85312
469.12081
502.4999
513.11865
469.7358
439.55241
455.6748
453.09459
438.35158
472.7643
483.76679
484.03014
471.14178
558.78479
585.79309
588.86001
563.62271
707.03164
1030.9438
1019.2615
844.76241
834.93592
586.71487
581.80242
518.79957
518.28701
1359.9489
1393.7339
1113.9899
793.54949
1138.4884
772.86195
533.44137
536.51828
475.52233
479.06877
1535.5526
1341.8693
937.81457
1052.9177
668.36389
1073.6524
1027.7134
667.50118
502.25341
537.5534
538.69693
503.91969
1311.7384
1509.3678
592.78838
616.52195
765.43549
623.57494
607.23143
1037.4905
763.57226
627.20218
583.94211
831.19502
936.82882
1445.4775
1357.1603
800.38569
784.66291
647.3125
961.27911
1244.4515
894.26966
683.22618
733.30375
653.44932
699.62234
601.79343
956.78145
781.59043
809.66137
677.28919
522.67222
578.02082
1003.2895
531.10245
407.83803
440.14105
448.95121
412.2129
427.08661
428.83673
554.52567
555.90842
439.54033
432.24268
399.25259
445.89813
430.04088
398.40221
417.18369
417.35214
500.72398
416.08148
385.74812
501.4536
499.77815
419.13652
501.14358
387.78176
622.14747
493.14809
410.91574
657.33654
632.11079
494.84743
412.91378
630.22555
589.91742
575.68987
673.8173
446.15798
510.20257
535.48814
449.51158
456.18216
478.02776
496.75555
467.28066
550.06062
553.48048
523.4625
522.31973
639.65522
656.69813
661.49138
644.05987
1191.3755
584.8709
796.12433
885.3787
626.88305
1777.8651
1383.6901
1325.001
1923.3244
503.34786
629.46011
961.19523
761.63415
1028.7503
572.105
1744.9778
1325.1762
1322.5131
1928.5675
568.53902
745.66599
939.24183
1045.3044
754.95417
959.76623
1169.7433
603.13602
2119.6787
1383.5692
1253.2157
1873.0382
664.00859
914.70212
1006.0515
715.59288
826.19203
634.01641
852.76466
996.97291
821.11289
590.82172
1085.3875
734.59831
880.32034
1094.0538
816.58073
954.5165
752.01964
404.51274
772.53442
892.21005
918.33136
677.58931
846.9999
692.9974
466.04467
916.06237
1102.8648
763.83384
1161.4421
1169.0207
1116.086
956.06105
621.81389
633.71208
4316.6314
3665.3992
3406.4135
3304.4132
3346.5045
3491.8686
2878.661
2739.6411
3053.2376
2979.7122
2836.22
2874.7765
3072.287
3076.2013
2451.3668
1555.5176
884.26401
4249.6729
2059.2801
1790.2927
2169.0169
2215.8412
1844.7247
1890.5013
2381.6548
2360.8299
1954.6325
1919.2857
2371.2831
2574.7829
2145.5813
2089.2145
1504.9487
1972.5689
1320.2837
2409.5162
386.56703
388.25864
387.84921
396.6197
396.50699
467.47168
430.9239
413.16935
413.75164
431.27337
409.72359
402.08837
400.35999
408.08563
443.02465
449.84387
449.252
441.5098
496.76839
491.883
507.03418
508.27602
522.57244
435.74557
436.35856
464.02935
463.45244
418.26811
417.34894
427.69832
428.05365
453.82652
458.4458
461.47794
465.05408
528.30791
529.2423
539.30941
540.05498
582.21735
475.40121
505.11756
503.4302
470.89206
439.41209
455.30284
459.80414
441.63817
475.02271
483.53247
487.4213
478.33169
562.48522
579.5063
597.9383
578.90029
603.17023
962.09921
810.62485
788.39962
908.47917
582.85066
602.53836
529.92308
528.2523
1319.8807
1352.8145
1150.67
756.35484
1051.1862
754.30254
535.29484
532.67777
477.45865
480.36823
1591.5891
1693.9305
932.756
1203.9464
658.81358
1436.7059
945.63276
677.85438
537.40923
537.61917
496.68054
499.26323
1574.0627
1204.1666
833.00619
804.36545
820.75898
649.75334
671.82791
1151.8822
820.40246
663.06403
579.89458
573.45026
577.86885
590.645
756.15044
781.69355
641.68533
1029.9531
811.8862
729.28577
636.44959
609.6491
786.55161
748.66775
751.81716
1181.1444
1208.1436
828.07108
481.05969
658.35441
915.20946
873.42978
728.15714
581.12056
557.93011
402.65503
434.58701
435.32648
405.31345
426.22468
425.53542
555.34421
556.64445
428.59142
398.10375
441.55397
450.22262
434.37404
400.628
416.10931
418.30782
523.26634
562.46742
418.85476
387.39334
561.84002
421.73742
517.91682
388.02726
652.40821
501.24635
405.44643
655.33873
661.15598
501.93486
408.3702
634.09743
589.30864
482.04779
626.79556
480.50326
836.88075
441.70918
521.60753
525.92404
442.60231
445.11704
462.45378
475.88374
450.22693
558.725
552.66666
564.84285
576.56926
742.97591
697.62308
658.23608
695.74453
1036.4148
555.00362
711.86643
742.88684
556.94308
1585.1768
1268.1856
2119.2149
1299.2827
484.68815
551.14038
935.7943
619.94417
1049.1202
503.96862
2038.1669
1607.2831
1411.166
2166.8436
515.70585
597.69484
771.30522
911.32017
922.87622
708.89479
1020.6299
565.35524
1413.1496
1279.6262
1222.1167
1948.6456
624.7651
725.97521
950.00513
883.35148
668.91125
751.75632
989.3511
1051.2149
836.95399
679.56655
3429.1968
1566.9483
887.85647
1543.9936
894.63857
968.37116
915.15732
579.59721
808.00401
952.12378
1089.6789
462.21607
943.93379
985.10904
454.40166
877.31073
965.85869
781.17375
763.04338
551.48766
1027.0827
1033.8606
1394.778
1018.6612
4155.2772
3197.856
3358.1394
3361.259
3356.4696
3328.4234
3066.9875
2860.0491
2977.7826
3225.3355
2380.4415
2060.5373
3414.5087
2461.4701
4022.5549
2966.3801
2027.484
4876.0033
1914.932
1631.8922
1842.195
1333.9907
1731.1414
1968.5741
2214.1925
2155.689
1835.509
1796.3323
3004.4765
2307.6071
1872.9414
2204.5242
1922.9277
2190.5986
2218.6065
2058.3988
426.5053
386.37545
358.47359
370.39545
381.08099
380.39916
369.63234
385.57685
393.64541
391.97976
383.77549
369.85603
379.53608
378.66084
369.29614
429.24704
431.13189
435.84464
437.24579
466.68572
430.71186
413.41162
412.81146
430.17608
408.47131
400.63093
401.72439
409.64689
450.9469
442.21265
435.70238
444.81776
503.67444
515.70742
513.35576
498.72514
512.77724
468.54668
441.72651
464.42876
437.86557
418.73679
418.79021
428.61596
428.0606
462.82999
458.18567
470.11031
466.75453
527.52867
526.11237
546.11597
542.71639
523.76004
477.55301
508.2875
513.22757
482.90175
445.44081
457.54587
457.70282
443.27997
468.17666
480.74514
486.41306
472.18797
546.15295
556.96619
593.51266
573.69547
482.83912
711.44645
740.53161
827.83002
750.18
490.31575
563.58552
532.80281
505.80206
1099.0994
892.25753
699.9791
971.72745
683.80646
1111.6663
518.4219
525.81051
476.00113
475.79521
1374.9429
1413.7903
1351.6692
999.47649
673.21759
953.97928
1012.9088
659.92331
541.70831
540.0206
515.63578
504.00476
1229.6909
1533.0741
1046.7271
835.98215
797.10853
660.43428
1231.0492
992.01982
853.85951
669.40021
575.43127
559.13485
567.69456
570.964
609.226
964.02782
772.69557
649.51638
1002.872
813.23655
788.95061
656.90896
754.0123
787.41036
572.08673
1341.1142
752.66888
729.40776
591.15949
775.36391
1496.6814
1058.1829
558.93407
887.71348
568.06667
400.01508
434.35135
432.98335
401.66233
425.48795
425.18513
559.14067
559.98981
423.71523
395.58535
433.97706
438.08825
426.54716
397.90116
416.10198
414.59806
415.75759
534.71791
386.69494
546.24399
580.01914
419.11133
566.25457
388.50899
688.98509
788.42168
543.7876
405.60319
804.01701
516.66435
410.54412
672.42413
637.24453
493.65859
626.45355
495.90797
580.57053
609.34766
830.91148
442.08819
530.50165
525.21138
442.56203
438.30367
455.2957
461.85409
442.26959
517.37091
527.11607
540.22971
533.42544
718.17169
698.69775
719.2856
761.74793
963.41498
1566.795
1222.2069
556.99391
738.20584
722.60024
565.09094
1202.1239
1504.1045
464.77309
502.05319
821.8215
520.18527
856.95131
470.95808
1970.9537
1489.8559
2358.7078
1395.9998
507.76175
546.10579
667.30174
1098.143
783.1379
563.21807
1103.994
504.81584
2203.4819
1608.9656
1634.3992
2377.3954
592.38372
602.65001
746.98254
874.76072
670.89919
872.72161
958.00858
670.08234
672.11405
583.75685
1142.5067
1001.6288
1384.3865
2132.4565
928.35838
870.62127
581.25642
375.53755
976.20711
1038.8908
924.16074
570.04215
946.58996
903.49603
1009.6346
915.5538
1008.5002
1385.69
1037.2632
857.82563
966.1517
1224.8984
642.26476
1308.0676
3841.1701
2284.8598
2769.5219
2671.3326
2942.2807
3004.4679
3076.5892
3048.9487
2916.8075
2964.552
2600.2239
2394.6149
3159.4283
3204.5695
1281.9357
1142.1671
3377.8692
1969.6761
2068.7626
1527.5306
1516.5562
1323.6297
1823.4236
1448.2557
639.7816
1206.2842
1279.8822
1656.2067
2021.2348
2190.931
2194.7348
2067.7967
1549.3631
3499.8704
2371.3737
1828.1913
3318.1259
426.78002
385.69915
388.72322
404.98586
404.68688
388.7631
358.07769
370.12306
369.60349
380.49285
380.5759
384.3104
392.11149
393.51019
385.92162
342.26837
351.98294
352.52172
361.34547
360.87667
367.88873
376.95664
375.85216
366.70205
424.46277
432.68496
427.63034
418.56094
412.60205
418.53107
419.4905
410.54631
476.17806
477.30877
486.64456
490.61739
463.40632
433.1877
413.78118
431.32443
413.45467
409.9672
402.35164
401.93006
409.87366
448.49428
437.73181
443.10446
453.51244
507.43273
490.42386
491.65794
508.03693
483.25534
446.86628
446.61563
473.59561
470.23114
434.80729
424.16942
432.12071
422.02347
456.66169
458.16779
463.42136
463.87615
539.92933
524.51008
551.11634
533.27717
452.28415
454.2606
476.27334
489.37451
467.45231
450.011
459.88491
459.87175
449.3233
486.82002
501.61529
484.1778
471.39402
535.14328
551.12983
560.75594
543.85155
433.56982
597.448
539.38874
529.64267
561.92991
447.13983
468.52824
492.64987
463.75576
824.13937
617.92355
892.80853
988.85341
850.6915
661.32001
462.34582
508.05414
493.33667
469.5028
884.41218
727.20727
786.95552
623.45742
1358.337
795.21855
605.73994
1123.4035
541.60895
531.57526
510.0208
526.09808
1057.3499
964.13404
1018.9385
1067.9921
857.35875
667.86178
1140.1249
821.06747
736.99017
650.12156
562.34554
572.57283
614.21166
577.80021
1079.0478
897.61893
783.29129
664.34274
685.23736
907.57971
823.67993
656.69152
1499.259
984.42703
758.3341
570.42928
811.20891
766.44334
814.56227
729.60661
1242.8041
758.06211
693.23862
1175.8819
577.73342
556.02138
425.52986
401.7564
437.02788
434.94289
401.27253
425.65288
560.38328
418.80464
393.5198
427.7564
431.53942
421.816
395.54554
415.27658
413.69647
492.79544
414.11933
386.02288
498.74124
517.08919
415.69709
510.18595
387.54742
404.03986
516.80081
689.39452
715.46735
793.61689
540.05881
406.2712
763.13875
755.78927
510.3967
640.72107
508.57528
609.30077
611.7383
783.06852
446.12658
532.91682
534.9105
447.92959
434.31156
447.43446
450.19256
436.1196
489.72111
494.07095
497.95059
497.15029
670.06472
676.39821
673.07659
682.71418
782.97469
730.11074
550.41587
1102.4922
1138.3267
1439.0854
1425.6516
763.85757
579.80226
1830.5588
1472.8351
956.311
468.90948
561.21445
523.50603
858.92733
463.86969
1431.3966
1839.1369
533.0184
572.5309
622.43123
950.33898
629.50848
561.11956
946.45713
520.50972
1955.7942
1777.8281
2731.7929
1541.317
648.47241
647.01928
661.78998
801.58564
1338.7322
680.96821
869.31703
596.7846
998.21646
595.94282
2212.1753
1008.7119
1279.098
1717.7374
729.44434
869.75602
933.30602
352.03066
830.94838
926.01657
969.44962
366.66012
865.75516
593.99151
323.93561
1012.3637
858.90817
866.85672
935.79025
694.39374
903.46832
1372.7824
1043.3855
1294.6791
2943.4049
807.99232
2136.2963
2174.432
1909.1661
1903.4064
2928.1659
2422.9687
2578.8904
2853.8831
3030.2323
2862.9587
2808.7684
2870.1802
2399.5393
1655.4101
4095.974
4419.0802
1694.3199
778.21584
771.98966
649.6624
1315.9161
1508.6829
1489.58
1690.8307
635.39515
667.29837
436.8351
803.56303
753.36553
1181.8847
1270.1255
1537.9239
2164.8982
1543.9386
2037.5579
2219.2699
1080.782
425.62603
403.444
386.58846
385.73951
388.14003
404.72702
357.65078
380.506
379.9772
369.68489
369.88493
384.64109
393.36637
393.50612
385.79397
342.2534
361.36223
352.79298
352.05716
360.91142
367.58817
368.73629
377.72878
376.01216
419.11797
426.61022
431.28559
422.76483
337.67104
344.81206
344.44107
337.13873
351.27019
351.63131
358.7974
358.17627
407.51061
415.92973
407.9332
401.62758
463.28936
476.45318
476.34114
459.75809
447.3858
458.98113
464.08415
453.66136
454.68496
414.54664
414.43642
435.15222
435.15454
414.00994
404.56211
412.84386
404.94227
447.23748
436.57842
436.15208
445.08042
511.30735
495.00509
503.35737
522.11966
435.30049
442.05811
433.33115
459.5982
449.24827
430.95582
428.775
439.67368
441.02917
481.88309
480.95746
468.02359
461.85055
515.74653
518.58413
524.65055
528.34925
410.92877
432.16033
440.75482
450.87861
437.67242
436.56553
446.83704
454.79668
447.36479
507.63336
510.00056
523.98454
511.57872
573.37717
597.65993
560.59474
541.9544
410.15087
470.28233
489.37629
491.20835
488.52523
429.04916
411.93154
442.61418
428.80857
709.2544
629.28207
586.07905
499.20856
660.28642
539.50837
443.27792
460.89432
478.09571
454.44523
730.15437
912.2721
562.3133
998.30011
1013.5891
820.63221
739.20661
583.91055
495.44221
518.87354
507.62638
500.53681
511.88507
586.96448
701.89566
454.69163
627.97841
1921.6691
886.84857
709.32847
612.63902
1095.8995
623.78847
585.81339
619.66742
666.18939
714.8763
866.17557
824.3034
647.05795
1293.4422
877.17199
762.05625
638.40939
704.06894
834.31866
768.77926
619.40243
955.34193
787.08564
1351.6614
965.1638
764.14691
828.6172
810.17455
1451.1153
582.57089
402.17071
439.75708
439.96643
401.72428
559.50648
424.41258
423.85634
560.04966
395.19526
414.18198
418.94403
426.83455
427.57923
418.90172
394.95144
415.43166
485.01364
409.40792
384.82415
487.66592
489.61311
412.66234
486.24088
386.57812
405.88481
405.03326
613.78479
487.88981
404.62999
626.11224
645.16479
405.26912
502.10142
632.97445
486.95824
666.28584
705.46909
509.02616
666.20839
629.24013
444.00579
687.6527
517.0864
539.90791
456.97262
433.69676
445.99741
445.47219
433.46283
490.47185
501.75435
498.56537
491.46615
639.66089
637.73153
645.60295
644.78102
515.39433
490.54796
529.62389
562.72741
599.31753
1164.7258
879.99393
1084.2369
827.24175
586.39404
911.3028
474.41112
1244.4475
1352.7335
945.92072
1757.0797
1851.3426
588.11094
477.61207
1461.6177
1538.0219
1159.5187
726.41335
528.3544
558.66768
654.18391
556.35405
1034.3581
541.05101
1683.2284
2152.3764
695.04707
700.56014
644.42413
768.43649
1093.8196
657.61555
741.18209
700.61603
1141.1594
699.37288
2152.6791
3122.6502
2142.0297
3081.2641
686.48272
799.72563
1055.3561
1177.8678
680.61375
804.26167
1035.0827
739.16486
862.9162
922.78508
827.71208
901.93562
951.71209
972.68083
660.7939
334.37571
844.12628
688.80859
797.326
1427.2578
3674.1877