/*--------------------------------*- C++ -*----------------------------------*\
  =========                 |
  \\      /  F ield         | OpenFOAM: The Open Source CFD Toolbox
   \\    /   O peration     | Website:  https://openfoam.org
    \\  /    A nd           | Version:  7
     \\/     M anipulation  |
\*---------------------------------------------------------------------------*/
FoamFile
{
    version     2.0;
    format      ascii;
    class       surfaceScalarField;
    location    "1000";
    object      phi;
}
// * * * * * * * * * * * * * * * * * * * * * * * * * * * * * * * * * * * * * //

dimensions      [0 3 -1 0 0 0 0];

internalField   nonuniform List<scalar> 
99138
(
-2.237696e+44
-1.4084303e+45
8.6894419e+44
4.040379e+44
3.1481266e+44
1.2895567e+44
7.3628636e+44
4.9107782e+42
-1.083268e+44
2.0809609e+43
2.3203526e+44
2.8208881e+44
-1.0536501e+45
-1.3647255e+44
3.1519632e+44
2.1467343e+44
8.2067103e+44
2.0286722e+44
-1.4393305e+44
4.7391464e+44
-7.1229547e+43
-1.6296258e+43
8.8061873e+43
2.2136023e+43
-2.47715e+44
-1.4953848e+45
5.294717e+44
9.4388933e+44
-3.1328234e+43
4.0063078e+44
1.4187455e+44
5.3735071e+44
1.8045718e+44
2.3187514e+43
-1.1348777e+44
-7.8922904e+42
-3.6392151e+44
1.3356249e+44
-2.162288e+44
8.5851864e+44
-1.4618716e+44
-1.3453351e+44
1.9115276e+44
-5.9654085e+43
8.8904827e+43
-2.8223868e+44
8.0824767e+43
5.0103696e+44
-2.6915077e+44
-1.5097529e+44
2.6859613e+44
-2.5610419e+44
1.4962218e+44
-6.2278146e+42
1.7669303e+44
-2.2957685e+44
-1.073539e+43
3.1671484e+44
8.0113341e+43
-2.001822e+43
5.3002384e+43
8.823812e+44
-1.1803712e+44
1.5265893e+44
-1.2114098e+45
2.241113e+44
2.6745934e+44
8.3769759e+44
5.562533e+44
1.3166593e+44
-5.2626097e+43
5.2309257e+44
2.3760337e+44
6.3775799e+43
1.3397084e+43
-2.1685073e+44
-1.2225621e+43
-3.4927219e+44
8.6279388e+44
-5.2536584e+43
1.1968734e+44
3.9209154e+44
-7.172709e+43
-8.9793233e+43
-1.1468428e+45
2.8190494e+44
1.614711e+44
5.2305539e+44
9.4913202e+43
7.4824924e+44
-1.6132294e+44
-1.6425405e+44
4.1612164e+44
-1.0182325e+43
-6.7685685e+43
3.9876097e+43
1.0868928e+44
9.7993421e+43
1.7596126e+44
-7.0429442e+41
1.9600925e+44
1.2282131e+44
5.0731245e+42
-1.2684599e+44
1.4762839e+44
7.1846554e+42
3.2260621e+42
-1.0493508e+44
-1.3913327e+45
5.4746537e+44
5.5380929e+44
-9.4513934e+43
-3.0498908e+43
3.0270183e+44
5.7334322e+44
2.0952292e+44
1.3934688e+43
-5.0024058e+43
-1.509469e+44
-1.68444e+44
3.2610676e+44
4.1947372e+44
5.1770079e+44
2.7878683e+44
-1.2810094e+44
-3.2152964e+44
1.3603977e+44
3.4758552e+42
-2.0227013e+44
1.1439752e+44
4.5045185e+44
-1.1289455e+44
8.1809102e+43
-1.4750157e+44
8.6122108e+43
1.1838605e+44
1.1610123e+44
-5.0918347e+43
1.3319913e+44
3.8180011e+44
-4.8353805e+42
-1.8261104e+44
2.8499345e+44
-7.7110601e+43
-2.6906348e+44
-5.5140111e+42
4.8912456e+43
-3.5846711e+44
1.0850562e+44
-2.6356371e+44
1.3231314e+45
4.2605478e+43
1.3931843e+43
-2.3135651e+44
-2.9440136e+44
2.1167256e+44
-1.3084458e+44
9.8411235e+43
-5.0251449e+44
2.2743904e+43
2.6076265e+44
-2.9561277e+44
-1.1698132e+44
2.8294554e+44
4.3541254e+44
-6.7162256e+42
-1.7922571e+44
2.1089719e+44
-1.7067934e+44
1.3097076e+44
1.8095037e+42
2.3721575e+44
-1.8706431e+44
-1.3664201e+42
3.1234082e+44
9.04083e+43
3.6235509e+43
7.8850243e+43
2.9358757e+44
3.2763213e+43
-7.6580525e+44
7.2709747e+44
1.6798965e+44
1.4278876e+44
9.3786042e+43
5.2214513e+43
2.5246001e+44
6.3886519e+43
1.2637674e+43
3.4394559e+43
-1.6115756e+44
5.0900992e+44
6.7890249e+44
-1.6691096e+44
-4.9096743e+43
2.0583806e+43
4.8518099e+44
-1.855294e+44
8.7699079e+43
-2.0339335e+41
-6.0906368e+44
3.0184515e+45
-4.0760641e+44
3.6527328e+44
-1.1738117e+45
8.8884776e+43
2.4443315e+44
5.9069424e+43
1.052009e+44
7.7741226e+44
-8.7314301e+43
-9.6116467e+43
5.5481955e+44
8.8710363e+43
6.1424878e+43
-1.7507101e+43
-2.3078814e+44
-7.4599947e+43
2.2887576e+42
-3.6903749e+44
1.4126484e+45
8.7503144e+42
2.7286728e+44
6.6137204e+43
4.7317192e+43
-5.6074352e+44
9.1962842e+44
1.4878144e+44
1.342448e+44
-1.8453158e+44
-2.0159541e+44
1.2161176e+45
1.0750765e+44
4.5919288e+43
-2.8177199e+44
2.779525e+44
-1.9366272e+44
-1.4237899e+45
4.2323831e+44
1.900608e+44
8.0677291e+44
3.0649348e+44
5.3420287e+44
-1.6313903e+44
-8.4649409e+43
3.9384824e+44
-1.0701357e+43
1.0351573e+44
5.7729622e+43
-6.1082102e+43
-9.8620669e+43
2.3843218e+44
1.1369639e+44
1.3892885e+43
2.1077994e+44
7.2622574e+42
1.209668e+44
8.2542232e+42
1.3023351e+44
1.6325132e+43
1.1152684e+44
1.454245e+44
1.2690551e+43
1.6592702e+44
1.1086101e+44
1.4447592e+43
-1.4597287e+44
1.3382403e+44
1.4581274e+43
9.1366518e+42
2.2809946e+44
-1.5287122e+45
3.1711493e+44
4.6944966e+44
6.4214358e+44
-1.455932e+44
-5.5941419e+43
8.6284876e+43
-4.9790028e+43
2.130046e+44
3.7140621e+44
3.3191483e+44
-3.2229623e+44
1.0117993e+44
8.624847e+44
1.0790157e+44
1.1082605e+44
-2.9579135e+44
1.1858959e+44
1.1081349e+44
-2.6252094e+44
1.58899e+44
7.0211166e+43
3.0435441e+44
-2.9010381e+44
1.1511819e+44
4.249391e+44
-2.5160558e+44
2.8483352e+42
1.2460083e+44
1.0821636e+45
-1.3297989e+44
-1.554996e+44
-1.7715034e+44
2.4065802e+44
-9.4614714e+43
1.5585551e+44
-1.6331699e+44
1.8016795e+44
2.4998748e+44
3.8361752e+43
3.5039189e+44
1.8543672e+44
-3.0647717e+44
1.6893897e+44
-1.4561153e+44
-2.3840863e+44
2.1046793e+44
8.0894498e+42
-1.9785305e+44
-2.5024791e+43
6.8133134e+42
9.1650415e+44
6.9746189e+42
1.5672352e+43
1.4081406e+44
1.0544524e+44
-8.4910881e+43
1.6645322e+44
-1.6613419e+44
8.0328214e+44
-1.4224609e+44
1.5210131e+44
-3.4611291e+44
-8.2007968e+43
3.4958758e+44
-1.4267656e+44
3.9200838e+43
-1.5521946e+44
1.005839e+44
-2.5632482e+43
-1.881426e+44
1.2768402e+43
5.2051103e+43
3.8527364e+43
1.4870526e+43
1.1772229e+43
1.2059103e+45
-3.5611834e+43
-1.1334741e+43
-1.0590663e+44
1.3290178e+43
1.0486616e+44
4.3328298e+43
-5.5056695e+43
-6.1662047e+44
5.9462285e+43
1.6644763e+44
-1.1767143e+44
1.421684e+44
3.2532947e+44
-5.5097168e+44
3.1038557e+44
3.0525461e+42
2.0385785e+43
-8.860217e+43
1.8813968e+44
-5.3853472e+43
3.1903324e+44
-1.4599007e+43
1.4315538e+43
-1.7813453e+43
1.1051834e+43
8.8547991e+42
4.7306618e+42
-1.1299205e+43
5.3488191e+42
1.7104192e+43
9.0453275e+42
2.4191383e+43
5.9522159e+42
4.1642986e+43
1.6587905e+43
4.9747189e+44
-3.7950315e+43
-1.381415e+43
4.0374012e+43
-5.385885e+43
-8.4013011e+44
8.3605444e+44
1.6610881e+44
2.9395815e+44
1.2952198e+44
1.2102696e+44
-3.0508123e+43
2.3696635e+44
1.4737767e+44
3.1995913e+43
-2.0623087e+44
-6.106726e+43
2.4806539e+44
9.6182855e+43
9.1039719e+43
2.3879048e+43
-6.9752375e+43
1.7471224e+44
-1.9228085e+44
1.6811342e+44
1.0535945e+44
-1.4732236e+44
2.0414143e+44
2.4286107e+43
2.8241678e+43
-3.0538506e+44
-1.7277097e+43
-6.2182722e+43
-9.1714476e+43
-2.4948727e+43
2.8671113e+44
-7.7919491e+43
8.6826052e+43
-2.7387359e+44
2.6334221e+44
-1.7589598e+44
-1.0818248e+44
5.898325e+44
3.4239803e+44
-6.1170792e+43
-1.9357715e+43
-1.1853742e+44
2.7496495e+44
3.1423327e+43
-1.5785258e+44
-1.3519371e+43
1.9011923e+44
1.3146064e+44
-9.8653155e+43
-2.3542498e+44
-2.8043486e+44
4.1516744e+45
-9.1556501e+43
-2.7064284e+43
1.4556704e+44
2.3003319e+43
-3.5115162e+43
2.4856172e+44
2.6655629e+44
-2.514978e+44
2.1590235e+43
2.1340208e+44
-1.3289843e+45
1.6571636e+44
2.503676e+43
9.4385022e+44
2.1237606e+44
3.5235381e+44
-1.1240969e+44
-9.5089023e+43
5.2556825e+44
-1.0565342e+44
-8.3126081e+41
3.055403e+42
-9.5923297e+43
-1.2966924e+44
2.2729628e+44
-2.4842616e+44
-2.304701e+42
3.81658e+43
4.2649301e+43
1.3490086e+45
4.5236444e+44
4.1459371e+44
-1.7419022e+45
2.9573604e+43
-1.5705516e+43
7.9780245e+44
-9.7595011e+43
-2.8526162e+43
1.9199269e+45
-4.1627674e+43
2.664962e+44
4.0705752e+44
1.6466155e+44
2.3646739e+44
-3.2813154e+44
2.3991263e+44
3.6102546e+43
1.5037077e+44
-1.7079142e+43
-1.8617778e+45
1.3572843e+44
4.6520734e+44
9.6005359e+44
7.3229914e+44
6.2044125e+44
2.0336392e+44
-1.8891293e+44
3.7035006e+44
1.6160556e+44
2.9874176e+44
7.0816956e+44
-1.3206968e+44
8.6271111e+42
-1.4427074e+45
2.9128782e+44
-3.8003237e+43
9.88932e+43
3.1958622e+43
-8.4920481e+43
2.2506514e+44
-8.7434955e+43
1.184425e+44
1.6732346e+43
-9.1530882e+43
1.3709369e+44
2.0497116e+43
-2.3728861e+44
3.7929508e+43
1.4518194e+43
-1.0622194e+44
2.2582783e+44
9.306404e+43
1.3563989e+43
1.8952782e+44
1.3407232e+43
1.3189681e+44
1.1566716e+43
1.2462489e+44
1.1016284e+43
8.7213638e+42
1.27795e+43
1.2042966e+43
1.6136393e+43
8.649519e+42
1.2480371e+43
-1.159414e+43
1.0687105e+43
1.3811453e+43
1.1085594e+43
9.6365244e+42
-1.7271971e+45
1.2057204e+44
4.9302248e+44
6.4789733e+44
3.9380831e+44
4.5868411e+44
-1.2467485e+44
-8.3744483e+43
1.0519211e+44
2.3919009e+43
2.9267026e+44
-2.928231e+44
1.5994716e+44
4.3425657e+44
-3.6597464e+44
1.4944589e+44
1.1320342e+44
1.0381394e+45
1.4417257e+44
1.6426595e+44
-3.124511e+44
1.7318508e+43
3.2117864e+44
-3.6760366e+44
1.3095151e+44
3.7047781e+42
-2.4050937e+44
1.5110993e+44
3.5108804e+43
4.6175456e+44
3.3834308e+43
8.079041e+43
2.5328773e+44
-5.6705955e+43
-1.6128209e+44
2.0289129e+44
-6.3023338e+43
1.1885149e+44
6.7460554e+44
1.2387628e+44
1.1048622e+44
1.3895346e+44
6.5901756e+43
5.7118442e+44
-3.0259403e+44
-5.43449e+42
2.1227819e+44
-1.7903808e+44
9.4194262e+43
8.6786242e+42
3.3503803e+43
-2.9684329e+44
-1.8615739e+44
-1.9645066e+44
1.0708866e+45
-2.6662578e+44
3.4067655e+44
-4.8819491e+44
6.7924274e+43
1.7722236e+43
-9.9905327e+43
1.8724561e+45
-2.5554391e+44
-7.5427704e+43
-6.9271182e+44
1.2294199e+44
-7.8831903e+43
1.17534e+44
3.0887049e+44
2.0561323e+43
9.742962e+44
4.7812036e+43
-1.6375985e+43
-2.5602256e+42
1.0281305e+42
-3.0260296e+43
-2.5830885e+44
7.3902047e+42
-1.0164794e+43
-1.6387567e+43
1.5054119e+43
1.2197705e+43
7.1638447e+43
6.0736063e+43
-2.1993699e+44
2.3519049e+44
2.209375e+43
3.3110266e+43
2.9057138e+43
8.1586729e+44
-1.3847496e+44
1.2039151e+44
-1.6162337e+44
1.4247676e+44
-1.9580442e+44
1.5625079e+45
1.104343e+42
-2.5900275e+43
-1.1619191e+44
-7.4036708e+43
8.2039468e+43
-1.0040205e+43
-3.2575638e+44
-8.792184e+42
1.9057918e+43
2.3297389e+43
1.3027968e+43
-1.27037e+43
2.0974382e+42
-1.7866057e+43
-1.4241742e+43
1.5193639e+43
2.1218291e+43
1.4401189e+43
1.4989995e+43
1.8758562e+43
-1.4995894e+43
-6.7648649e+42
1.8653546e+43
4.2122907e+43
8.3582334e+42
-5.4437097e+44
-1.01868e+42
1.6772996e+43
-2.2086002e+44
1.5344216e+44
1.2510527e+43
1.8596838e+43
1.2159006e+44
-5.7299948e+42
-4.6185337e+44
-5.4644263e+43
1.9693124e+44
-5.4141002e+43
1.3051514e+44
3.3178721e+42
9.6302115e+42
3.7403191e+42
1.9541649e+44
1.7403001e+44
-1.3105665e+43
1.2374141e+43
-1.5863792e+43
1.1266134e+43
2.9349476e+42
-1.0364897e+43
1.5027792e+43
3.8871486e+42
6.123527e+42
2.4595378e+43
1.6807507e+43
4.5022678e+43
9.1678917e+40
-1.1689117e+45
6.0330624e+44
4.6066683e+43
1.0030569e+44
-1.2730234e+43
-1.8876739e+43
4.5162743e+43
9.114815e+43
4.4660987e+43
-9.8747256e+43
-2.6209961e+43
1.5952771e+44
8.8109048e+43
1.4874654e+44
8.6108419e+43
7.1799216e+43
-1.1888442e+45
7.2382111e+44
-1.9071515e+42
5.9132683e+43
3.2250632e+44
3.3858662e+43
2.516282e+43
4.0522611e+44
5.2316512e+44
1.4733661e+44
1.1142597e+44
-6.9390436e+43
-7.9561825e+43
1.9297738e+44
1.0657999e+43
6.1287438e+43
-6.3629151e+43
1.2900589e+44
2.7872028e+44
4.2231441e+43
-5.6201437e+43
1.3502717e+44
2.0627014e+44
-1.6219254e+43
5.2347726e+43
-4.2816079e+43
1.4030857e+44
-2.0529667e+44
1.4531009e+44
-1.2379546e+44
9.951154e+43
3.8249675e+44
9.6407878e+43
2.5294926e+44
-4.3214912e+42
-1.7895697e+44
-8.877822e+43
-4.9741145e+43
-7.9729766e+40
1.7596376e+44
5.3675261e+43
-4.0362671e+42
3.4667285e+43
-8.7974702e+43
1.4327784e+44
1.3769811e+44
-3.2561923e+44
2.3781622e+44
4.4535321e+43
-1.290936e+43
7.5443868e+43
-7.865344e+43
2.2422271e+44
-8.840299e+43
-1.967167e+44
2.4881466e+43
-5.3788098e+42
-9.3334134e+43
4.5032549e+43
-2.4392724e+44
1.2616211e+44
-1.2563288e+44
1.6332001e+43
-1.0015946e+44
6.8909818e+43
-4.4676995e+44
1.0290908e+44
-1.25817e+44
-9.0131653e+43
5.8279721e+44
-4.7715911e+43
-1.3035314e+42
9.8032564e+42
-7.439228e+43
1.4136352e+44
1.8075729e+44
-1.6403285e+44
-1.6169482e+43
1.4391612e+43
-1.7744886e+42
1.9606551e+43
-7.5998588e+43
2.1021732e+44
-1.2772294e+44
-2.1229797e+42
7.2145588e+43
4.0177664e+45
3.7452035e+42
1.7414851e+44
1.3241007e+44
-1.3928599e+44
9.1806375e+43
4.9786074e+44
4.3556855e+44
-5.240819e+44
-2.3523811e+44
2.6938052e+44
1.5530894e+44
-5.1734827e+44
-1.8476033e+44
-1.7142706e+45
3.1064431e+44
7.5168934e+44
7.7161405e+44
5.4229793e+44
4.495574e+44
-4.3578071e+43
3.9119585e+44
2.9014288e+44
-1.5600359e+44
2.3671503e+44
-2.5045679e+43
-9.4795238e+43
-7.5645379e+43
2.8407718e+44
-5.8395924e+43
-9.3192614e+41
1.793157e+42
-5.5803054e+43
-4.9787423e+43
-1.1022685e+44
-7.779105e+42
3.164499e+43
2.8821253e+43
1.0701559e+44
1.052843e+44
-2.0257099e+45
3.2298786e+43
-2.4480701e+43
2.0398247e+44
5.0266398e+44
-2.176288e+44
6.1293207e+43
6.5907377e+42
1.8032838e+45
3.9194761e+44
1.1081812e+44
8.8054896e+43
-1.0429204e+43
-6.8684191e+41
-1.4870693e+44
7.219466e+43
-1.8200333e+45
1.8825318e+44
2.7289799e+44
4.7803824e+44
3.9685833e+44
5.5715705e+44
4.5570105e+44
1.7564861e+44
-2.7359042e+44
4.777983e+44
-9.7166327e+43
-1.5005394e+44
-3.1671749e+44
1.9796927e+45
-2.0187815e+44
-2.9320493e+43
1.0157774e+45
1.0529006e+45
4.2000384e+43
-7.5757038e+42
4.298713e+44
8.9257073e+43
2.3730666e+44
1.0332496e+45
2.0155024e+44
-6.0562659e+43
-9.2843222e+43
4.0151077e+43
8.6853067e+43
8.4322711e+41
-1.549439e+45
1.1517552e+44
-5.6913139e+43
9.7705124e+43
4.6999314e+43
-9.0280137e+43
2.7571024e+44
-8.8328794e+43
-3.2892529e+44
9.6238207e+43
7.3023882e+42
-1.0547743e+44
1.093113e+44
3.1659088e+42
-2.5090563e+44
2.0294147e+42
-3.0984633e+44
4.133908e+42
1.9761146e+44
-7.6444479e+43
8.5896031e+43
1.591985e+43
-7.440844e+43
9.8794809e+43
1.4684146e+43
-2.2782982e+44
1.338175e+43
1.4681479e+43
-8.2206192e+42
1.9298214e+43
7.0754543e+42
1.2587142e+43
1.756215e+43
1.2650892e+43
1.0081203e+43
1.549321e+43
9.4923375e+42
1.4515973e+43
7.8551852e+42
1.1749933e+43
1.4312527e+43
7.7207645e+42
-1.0212084e+43
9.750198e+42
-2.5033677e+43
-1.7277725e+45
9.1943556e+42
3.8466049e+44
1.9661526e+44
-1.2212408e+44
-1.015191e+44
5.3272132e+44
8.8451984e+44
7.2912127e+43
1.6398868e+43
1.034791e+44
-1.6160717e+44
-7.6956673e+43
-2.6180079e+44
8.8990836e+44
-2.5213425e+44
1.2304825e+42
1.1154837e+45
8.7950122e+43
2.8769691e+44
-3.1081599e+43
1.0251053e+44
3.1208143e+44
-2.9564847e+43
7.6182308e+43
3.2557574e+44
-3.8264668e+44
-1.2834633e+43
3.1907217e+44
-3.9186332e+44
7.0823643e+43
-5.5945799e+42
-7.6707783e+42
9.8592466e+43
2.9045016e+44
4.2892612e+43
5.1758065e+44
-2.464664e+43
5.0573284e+44
-2.086082e+44
3.1768809e+44
-2.8046175e+44
-4.081986e+44
7.2889486e+43
8.3447739e+43
1.7957336e+45
1.2411671e+44
1.8242179e+44
-2.036337e+44
8.6080508e+42
2.8666944e+44
-2.5161555e+44
9.2279424e+43
4.8826214e+41
-1.7654376e+44
8.5464125e+43
3.9430483e+44
1.8553195e+43
-3.1674149e+44
4.0659697e+44
5.1878824e+43
2.5699711e+44
1.368469e+44
2.0399576e+43
1.0787647e+44
-5.9856786e+43
3.078639e+44
2.7744772e+44
-1.141359e+45
2.0225365e+44
-4.0837736e+43
-1.4289915e+44
1.2567555e+43
5.8868249e+43
3.8615066e+42
3.3396448e+43
5.7271413e+42
2.4485821e+43
-2.41563e+43
3.5631111e+42
1.5707701e+43
-2.0293266e+43
6.7340237e+42
1.2257455e+43
-2.2101326e+44
-5.0125878e+43
-1.4658045e+44
-2.6692561e+44
1.6123734e+43
1.867147e+43
5.3712171e+42
-4.7645092e+41
1.0311967e+45
-1.4823893e+44
2.3936316e+44
1.8205394e+44
1.0361694e+44
6.9801007e+42
4.5719157e+43
1.8484483e+45
-1.5711482e+44
1.2220799e+43
-6.6937558e+44
-2.5904091e+44
8.4469033e+44
2.2470075e+44
-7.4096596e+42
8.5273206e+42
1.3609269e+43
2.1542282e+43
5.1580451e+43
3.2365699e+43
-2.834782e+43
-1.8117706e+42
-8.9882919e+42
-4.3284053e+43
1.2765511e+43
-1.0952786e+43
-2.045747e+43
1.5082117e+43
-1.0061818e+43
1.2541793e+43
-1.5900912e+44
-3.4350615e+43
-6.1399529e+43
-2.7344281e+44
4.2660914e+44
-1.820013e+43
2.4756141e+43
2.6152988e+43
1.3863375e+43
-8.7252651e+42
9.7096568e+42
8.8149694e+43
7.6640314e+43
1.8801722e+43
-1.5311081e+44
1.5215008e+43
1.505601e+45
4.596508e+42
-2.5461819e+43
6.0446058e+42
7.3107536e+43
-1.2403376e+43
-1.0908683e+43
2.107138e+43
3.2673073e+42
-2.0256082e+43
-1.743756e+43
-1.9637906e+43
5.6432629e+42
-2.4581292e+42
1.1145397e+42
-2.073277e+44
-7.144103e+42
6.3308279e+42
-3.0204063e+43
2.0000232e+44
1.2476242e+43
1.7526603e+43
-1.176019e+43
-1.6419513e+43
-4.0173893e+42
-3.1860123e+43
-7.1793013e+43
9.6253662e+42
1.5375002e+44
1.6888732e+44
3.9434904e+42
9.3431663e+43
7.0994972e+42
-9.2897662e+42
1.2498375e+41
1.8592756e+43
2.9789798e+43
-3.0922636e+41
-6.048653e+43
1.2207764e+43
1.1759163e+42
3.1744307e+44
-7.9094506e+43
-7.5982584e+43
1.3087678e+43
-1.2012117e+44
-1.2640954e+45
5.746184e+44
-1.8284215e+43
8.9316513e+43
2.0708974e+43
-7.7934083e+43
6.1394122e+43
-1.8069083e+44
-1.2099816e+44
2.5612669e+44
3.0234982e+43
-1.3888179e+44
2.1850812e+44
2.5117666e+42
1.745659e+44
2.8838789e+43
8.5180555e+43
4.9345522e+43
3.7001976e+43
-3.0238696e+44
2.2958327e+43
1.0276547e+44
-4.3352399e+43
1.2544334e+44
3.1526844e+43
1.8828539e+44
3.7510794e+43
1.848485e+43
-1.5535928e+45
5.5186235e+44
-1.4017759e+44
-1.2502974e+43
-1.0851914e+44
-2.0771631e+44
6.6551002e+44
4.7538805e+44
4.8704071e+44
3.8176884e+44
1.2967959e+44
-4.2857091e+43
-2.0618733e+44
1.8095482e+44
-6.3496923e+43
1.991667e+44
3.6865448e+43
-8.6737613e+43
3.9517947e+43
-5.0699209e+44
-9.2343326e+43
1.0573799e+45
-2.1628567e+44
-1.0672735e+44
1.3645608e+44
-5.8064926e+43
-1.9766294e+44
2.4084296e+44
2.5371887e+44
2.0779978e+44
-2.5333433e+44
3.3349772e+44
-4.1815322e+44
1.6917218e+44
1.4170611e+45
-7.4061153e+43
2.4660322e+44
-8.8588298e+43
-2.0053823e+44
4.5320262e+43
7.8612023e+42
5.9625306e+43
-9.1029466e+43
3.2430564e+44
8.2707804e+43
7.7281434e+43
-1.8290732e+44
2.8110023e+44
3.5619559e+44
-1.8479302e+44
3.128865e+43
1.915956e+44
1.5235788e+44
-1.2535985e+44
-1.1734762e+44
3.7108479e+42
-3.4453135e+43
-1.2077518e+44
-5.8436753e+43
-1.1726448e+44
1.4411459e+44
-8.8368608e+43
-2.0676186e+44
9.6908131e+44
1.359249e+44
-2.4373257e+43
-6.2116551e+42
-1.328509e+44
-7.378674e+42
-2.265732e+42
5.7745774e+41
1.2305645e+43
5.0436692e+43
9.0570725e+43
-1.5244855e+44
2.5422921e+44
-4.2509782e+43
2.3647428e+41
2.6053856e+42
-6.6086918e+42
1.3966607e+44
2.6867516e+44
-2.7934031e+44
1.469605e+44
-7.5427949e+43
-5.3229309e+42
7.5484873e+43
-9.3576302e+41
2.4019877e+44
-6.7589229e+43
9.4375551e+43
-1.3508056e+43
-5.8795824e+42
1.7143226e+43
6.2209334e+40
-1.0887238e+43
-1.8977528e+42
-2.3332744e+44
7.0765204e+42
-4.0342154e+42
1.6164888e+43
-1.1930443e+44
1.9194403e+42
-4.316025e+44
9.5139203e+42
-1.3128134e+44
-1.3194933e+44
3.9958931e+44
-2.8405143e+43
-5.4560116e+41
8.3911209e+42
7.3908269e+42
2.0494084e+43
-8.8408143e+43
-3.9415302e+43
1.3977148e+43
3.5196656e+41
-6.924918e+42
1.7557914e+43
-5.8819683e+43
-5.5541006e+42
5.8328669e+43
-3.5415861e+44
9.3177426e+43
1.0438086e+45
1.1773549e+43
1.8877651e+43
1.1182369e+44
5.4646354e+44
4.9236767e+44
-2.4344197e+45
-7.5533845e+42
-6.695062e+43
-1.5588557e+44
-3.0838286e+42
-2.1043076e+45
-1.3203612e+44
9.6404778e+44
6.3367332e+44
4.3848213e+44
5.8606376e+44
7.724472e+42
-4.754412e+44
-3.1738376e+43
4.9048678e+43
1.2020961e+45
-4.9361171e+44
9.1601159e+43
1.0312952e+45
7.4456301e+43
-6.2645414e+43
2.5720173e+44
8.1513819e+43
8.3873531e+43
2.4788643e+44
2.8958146e+44
-2.3088157e+44
2.1392942e+44
-6.9499882e+43
8.9754044e+42
8.231384e+43
-5.3969199e+43
-3.061687e+43
7.4008787e+43
7.8473271e+43
4.8341534e+43
1.865235e+43
-2.7417017e+44
4.7703065e+43
5.7124142e+42
2.9425881e+43
-1.3521312e+43
1.1980487e+44
1.0577661e+41
-2.0145232e+41
-2.1451742e+44
-1.9571472e+45
1.6414073e+44
2.5952756e+44
4.1155691e+44
4.7061087e+44
1.0290489e+45
1.286856e+44
2.8603245e+44
-1.3025133e+44
-8.8524851e+43
1.8168412e+43
1.9485926e+44
-3.7447779e+44
7.6817429e+44
9.6278985e+43
3.6493328e+42
-1.6188643e+42
9.1137843e+44
8.8768153e+44
1.1775916e+44
-5.3575295e+43
-4.4195861e+43
-4.8716845e+44
-1.4860417e+44
-3.1851097e+44
3.8216578e+45
-1.7405656e+44
1.174989e+44
6.5805615e+44
1.551598e+45
-5.0311624e+43
1.0664783e+43
2.3832527e+43
1.3449705e+44
2.1936897e+43
9.8663369e+44
-1.5880744e+45
1.1732389e+44
-9.5902718e+43
-7.0795958e+43
5.1659454e+43
8.9002609e+43
-6.0307564e+43
2.5532319e+44
6.6554171e+43
1.8733864e+42
2.4620601e+44
-1.4908171e+42
7.2127919e+43
8.4251096e+41
8.0491075e+43
4.8878157e+42
1.0222667e+43
-1.6407142e+45
-5.1750679e+43
-5.6905215e+43
1.2040532e+44
8.2437834e+43
-7.6292811e+43
2.9801298e+44
-6.1394211e+43
-3.5599378e+44
5.7851152e+43
4.6107034e+42
-6.7629503e+43
6.9676717e+43
1.8075702e+42
-2.8886746e+44
-5.0981096e+42
-3.4421551e+44
-8.8090004e+40
2.4163766e+44
-8.160698e+43
-2.3802556e+44
7.1932044e+43
1.3365222e+43
-1.0094225e+44
8.3933936e+43
1.0196347e+43
-2.1535709e+44
1.1605369e+43
-2.217323e+44
1.4798164e+43
2.0183329e+43
-5.7364448e+42
6.1216339e+42
1.3057353e+43
-5.3509958e+42
6.171897e+42
1.3753372e+43
-2.1303702e+43
1.4670542e+43
1.2766869e+43
-7.3062578e+42
1.8314293e+43
6.2992556e+42
1.6730698e+43
9.3818044e+42
8.606411e+42
-1.4101277e+43
-1.6197586e+45
-3.8525928e+44
4.2615071e+44
-1.0181552e+44
-7.6188716e+43
4.3811007e+44
5.0097208e+44
6.5322288e+44
8.4022608e+43
1.0384018e+44
7.9130471e+43
2.6271432e+44
2.653747e+44
-1.200482e+44
1.3270455e+44
6.2010869e+43
-1.8077016e+44
6.0868956e+43
2.848642e+44
-3.9591874e+44
-1.1147731e+42
3.8344269e+44
-4.3730562e+44
3.0419861e+43
-1.7207029e+43
5.8091575e+43
1.213288e+44
1.9376677e+44
2.9223895e+44
2.7602544e+42
1.3984067e+45
-1.9584119e+44
-1.5331079e+44
8.4284034e+43
5.3449684e+44
-9.1151392e+42
2.0136184e+44
4.5183056e+43
2.1966083e+44
-2.8401795e+44
-1.0846757e+43
-2.690338e+44
1.2341461e+45
-3.640848e+44
1.8535731e+43
1.7641414e+45
-5.6504825e+43
-7.4896769e+43
2.5726733e+44
-8.8798968e+43
9.9179132e+44
-9.8962658e+42
1.5241169e+44
-1.126128e+44
-6.8240183e+43
-7.8539689e+43
-8.4107926e+43
3.3473421e+44
5.8301192e+43
2.7595289e+44
-2.5757233e+44
2.7630845e+42
2.8229734e+44
-2.72365e+44
4.2038521e+43
7.3580575e+41
6.6831319e+42
1.9629017e+43
2.9159278e+44
7.2851332e+42
3.3074156e+44
1.2712007e+43
-1.5080812e+43
-5.4639449e+43
-2.5544406e+43
-1.3947824e+44
2.2821518e+43
5.1042642e+42
-2.1500815e+41
1.7529421e+45
8.4404943e+42
1.7284747e+43
-2.0997339e+43
1.0614286e+43
1.9714866e+43
-2.4243986e+43
6.4383894e+42
7.0196463e+42
-9.9388258e+43
2.3427161e+44
1.2525035e+44
1.8605012e+44
-1.3889498e+43
9.5744852e+42
3.2541493e+43
1.0041708e+43
-1.1074698e+44
3.2971803e+44
2.6074399e+43
-2.8886003e+43
2.9550512e+44
8.9193197e+43
1.8873981e+43
1.3448338e+43
2.3338705e+44
-1.7666896e+44
6.036335e+43
5.5423017e+43
-1.3064131e+45
-5.3755984e+42
3.1906756e+43
-8.6245555e+43
-1.1147254e+43
4.4442506e+43
-1.444528e+43
4.2131559e+42
2.0645592e+43
-2.4440443e+43
1.1082517e+43
-1.7445742e+43
5.2765733e+42
1.1950368e+42
-3.2933304e+42
-1.139658e+44
-3.0992775e+43
-2.9525585e+44
1.7387038e+44
-5.5351256e+43
9.1865338e+43
1.459269e+43
1.3968337e+43
1.1903834e+42
1.8602336e+42
-1.0888698e+43
1.4701188e+43
2.5107962e+43
8.8305924e+43
-1.1437827e+42
4.2154241e+43
8.3924264e+42
-6.0480319e+44
-3.8614718e+43
-3.4935501e+43
5.1886523e+43
1.4054803e+44
1.3455426e+44
-6.550544e+42
8.1410532e+42
9.2066527e+42
2.7080401e+43
-4.4398224e+42
7.5903546e+42
-3.3165662e+43
2.3397017e+43
2.6403029e+43
3.468574e+44
-4.4006832e+42
-3.6390495e+42
-2.7822827e+42
9.2551061e+43
-1.6178399e+43
-9.1953313e+42
9.5884464e+42
4.0064926e+43
4.4019505e+43
-1.3184647e+43
1.7743985e+42
-1.202906e+44
1.769629e+43
-1.7791863e+42
-2.0574432e+41
4.6913556e+39
5.5077143e+42
-7.4740894e+43
-2.8834224e+42
-1.3350471e+43
9.3986548e+43
1.3254438e+42
8.4541781e+43
9.4808213e+42
1.2967077e+42
1.3465616e+42
8.6946578e+42
-3.1940898e+42
-1.3612418e+42
2.9309842e+44
-7.5218765e+43
2.5174534e+43
-5.63141e+43
-1.0442798e+44
-2.8864492e+44
-2.918118e+44
-3.0409049e+44
-2.8506041e+44
1.5660177e+44
-8.5596402e+43
2.838022e+43
1.489756e+44
-8.0729477e+43
9.5386606e+43
-1.0623801e+43
1.9149804e+44
6.1688709e+42
-3.9703262e+42
-1.36589e+45
4.3894137e+44
-7.6823499e+43
6.1380273e+43
-2.9663035e+43
-1.3886864e+44
1.640813e+44
-1.8855297e+44
-2.0548013e+44
2.1137288e+44
2.9474085e+41
-1.6554636e+44
2.2819568e+44
-1.5438788e+43
-1.2076793e+44
-2.1846957e+43
-1.3838586e+44
7.25758e+42
1.8148702e+44
-1.6480199e+44
-1.5737694e+44
1.6775646e+44
3.170497e+42
-2.0095039e+44
1.8187921e+44
2.5317806e+42
-1.2646264e+44
2.5288835e+43
-1.3529851e+44
1.8822763e+43
9.6814034e+41
-3.6454487e+41
1.070452e+43
3.0188837e+42
-6.0348086e+41
8.8698155e+42
2.4805214e+43
1.1859749e+43
3.0215627e+43
1.2796979e+43
-2.0064828e+45
-1.2912165e+44
-2.1079837e+44
-7.0573862e+43
-8.2452228e+43
-2.5054585e+44
4.8814695e+44
1.1012779e+45
1.0041884e+45
7.0514085e+44
3.2515519e+44
-1.6538595e+44
-3.5932082e+44
1.3357444e+44
-7.4200379e+43
-1.6505848e+44
7.9608894e+43
-9.8603222e+43
4.9670508e+44
-1.4885476e+44
-1.1945063e+44
3.1593421e+43
-2.6282278e+44
-7.8179411e+43
-1.4750525e+44
-2.9918552e+44
9.8632585e+43
9.8183005e+44
-2.7936982e+44
1.1621046e+44
-1.8427525e+44
6.753173e+44
-2.1141667e+44
8.2564554e+44
-3.5555173e+44
4.5433387e+44
8.7945747e+43
-8.9650467e+43
-1.7281274e+44
1.214815e+44
-1.0460866e+43
6.6409542e+43
4.1513047e+43
-9.0582333e+43
-1.6131862e+43
1.520036e+44
-5.8693318e+43
5.2654859e+42
-3.1239171e+44
-3.8038005e+43
-3.6916333e+43
-4.2008736e+43
1.1894927e+44
7.0986395e+44
-1.6951771e+44
-1.9577811e+43
-1.1284859e+44
-3.7944691e+44
-1.6083438e+44
1.0298976e+45
2.54308e+44
1.3100861e+44
-3.3585445e+44
1.7118708e+44
-3.2835158e+44
2.8057856e+44
1.9670284e+45
-4.9625391e+44
1.1722142e+43
-1.1825726e+43
-1.2201926e+43
9.4475463e+42
1.0719326e+43
1.636405e+44
-2.4147701e+44
4.0023213e+43
6.4321923e+44
3.8754329e+42
-7.5488595e+42
2.1524975e+43
7.6578462e+43
1.3842427e+44
-3.8934688e+43
2.0624304e+44
2.6089658e+43
-8.6235504e+42
4.3531445e+43
2.8616476e+42
1.7905322e+44
1.7609223e+44
2.3323097e+43
-3.4803572e+44
-1.0752871e+43
6.3201643e+42
-9.4279168e+42
-2.7798842e+43
1.7686716e+43
-1.0175868e+44
4.2954153e+43
2.0178173e+43
6.1660477e+43
8.3673534e+44
-2.283408e+43
9.8397526e+42
4.0308791e+43
-1.2481146e+44
-4.0651338e+42
5.9938202e+41
-3.0594917e+42
9.9381714e+42
4.5866252e+42
-5.6110334e+42
2.3960018e+44
9.0447786e+42
2.1114069e+44
-2.1369581e+44
1.8199775e+44
-7.4991889e+43
2.1282761e+42
3.1545935e+42
-5.0315071e+42
-5.7251501e+42
6.9599722e+42
8.8850754e+42
-6.9382919e+43
-5.35451e+42
-3.6322198e+40
2.3133776e+44
7.7056178e+42
2.2553488e+44
-4.2360342e+43
-6.8815645e+42
-1.8500832e+43
-7.2486849e+42
-4.6743474e+42
-1.2046568e+43
-4.5496278e+42
3.5168014e+42
-3.7245734e+42
5.1909045e+42
2.0953268e+40
1.311944e+42
-8.9428428e+43
3.3548487e+43
2.0231625e+42
2.1879609e+43
-4.4718479e+42
8.7689703e+42
6.6710423e+41
4.2392946e+43
1.006105e+45
4.7754023e+42
1.5461273e+43
8.1035769e+43
1.1510248e+44
-2.6968407e+45
-1.6006532e+43
-5.9311925e+43
6.2749413e+43
-1.8063878e+45
-5.6153958e+43
4.3714357e+44
5.1847645e+43
5.8739348e+44
3.7685537e+44
-1.4391637e+44
-1.1491306e+44
-3.886683e+44
1.8064049e+45
-1.0666798e+44
1.2232354e+44
-1.8126119e+44
6.5536282e+44
2.8527755e+43
1.5484258e+44
1.9749262e+44
5.9492894e+44
1.2892916e+44
-3.7457013e+44
-3.1685096e+43
-8.8450541e+43
1.5678727e+45
-4.6580276e+44
-5.0337008e+43
1.52776e+45
5.2511482e+43
-4.2060553e+44
3.8120791e+44
-3.3217139e+44
8.8242502e+42
-3.8186677e+43
1.8222128e+43
-1.3870569e+44
1.0646287e+43
-1.8264256e+43
-3.1226422e+43
-1.1296462e+44
6.2141299e+43
1.6829265e+43
2.5140578e+43
-2.5663873e+43
-2.3553709e+44
-1.8457236e+45
-3.1901794e+44
4.594257e+44
3.7110558e+44
6.3980886e+44
1.0799795e+45
-3.8443203e+43
3.1598248e+44
-8.6251859e+43
-3.836871e+43
6.9680132e+43
-3.2675204e+43
1.573702e+44
-1.3658237e+44
-4.12259e+43
4.526805e+44
-1.8252093e+44
1.8062514e+45
9.1615645e+43
2.9655346e+44
-8.6523114e+43
-4.0101765e+44
-1.90444e+43
2.1785971e+44
-4.3606953e+44
1.0970443e+45
1.8109233e+44
-1.270696e+44
-3.93197e+44
1.5250589e+45
2.4869875e+43
-2.7817119e+43
1.6521264e+43
-3.3937519e+43
-2.7936405e+43
1.1330033e+43
4.2980615e+43
3.8201534e+45
-1.3091823e+43
3.1552719e+42
6.4516074e+44
1.5070817e+45
-5.4520747e+43
-3.514964e+40
6.9779967e+42
1.8407382e+43
8.4063493e+43
7.6608704e+43
-7.4696841e+43
4.896436e+43
-9.5670022e+43
-1.6444281e+45
-1.803167e+43
-9.6162686e+43
-8.2013211e+43
6.2030997e+43
8.2912097e+43
4.3800163e+43
2.6545811e+44
-3.3665562e+44
-1.9511372e+42
2.7144386e+44
-3.4282685e+44
4.2791554e+43
1.5956785e+42
5.3023848e+43
3.6928172e+41
5.2270306e+43
5.2062391e+42
-5.5405219e+43
2.379869e+44
4.9624251e+43
6.5399262e+42
2.2659414e+44
6.2462135e+42
6.4583817e+43
1.1722063e+43
5.8053463e+43
1.1379516e+43
-2.7674163e+42
-1.571344e+45
-2.1681295e+44
-5.7582057e+43
1.1446272e+44
1.1868772e+44
-5.6152991e+43
3.0983301e+44
-3.2136002e+43
-3.58722e+44
1.2994458e+43
1.1125306e+43
-4.6593556e+43
2.760965e+43
1.1916622e+43
-2.9751555e+44
7.1178004e+42
-3.536635e+44
5.5702882e+42
2.6291382e+44
-5.7553897e+43
-2.5740876e+44
4.5493949e+43
1.1165575e+43
-6.56825e+43
5.1599637e+43
6.4392621e+42
-2.5030053e+44
5.8815265e+42
-2.4684901e+44
1.0838536e+43
2.3068044e+43
-5.5841054e+42
-2.023287e+43
4.5829267e+42
1.1531221e+43
-6.0709781e+42
4.6481589e+42
1.0443261e+43
-2.1540004e+43
1.2248978e+43
-1.8896297e+43
1.2691981e+43
1.7860172e+43
-5.0185572e+42
5.2698473e+42
-4.5865516e+42
5.4361545e+42
-1.9601321e+43
2.5192378e+42
-1.3902085e+45
-6.4423332e+44
1.2212202e+44
6.237649e+44
-9.0479301e+43
1.8558863e+42
2.1004943e+44
8.651544e+43
2.0192612e+44
4.9091004e+44
1.1151131e+44
1.2888878e+44
-1.6159363e+44
-4.2701374e+44
7.7435847e+44
4.0570918e+42
3.5223502e+44
-4.3563866e+44
7.950949e+42
3.9968674e+44
-4.3806688e+44
-6.8519966e+43
3.4768556e+43
-4.1974297e+43
-2.104142e+44
6.0067206e+44
2.0133789e+44
8.8370582e+42
5.1481674e+44
-6.1895707e+43
-1.3296886e+44
1.1176844e+45
6.917855e+43
4.1778316e+44
3.3580025e+43
-5.7545386e+43
5.5930453e+44
7.0946434e+43
1.6009374e+44
4.5921608e+44
-2.0347365e+44
1.9500073e+42
2.3855587e+44
-6.8082138e+44
4.450393e+44
-1.8935001e+43
-7.4897759e+43
-1.9587743e+44
3.6402851e+43
2.8294588e+44
-2.7916581e+44
7.40876e+41
2.8886169e+44
-3.0303696e+44
4.4413453e+43
-1.104231e+43
2.1595493e+44
1.692296e+44
1.1823577e+44
-2.3011641e+44
-1.9441376e+44
2.6214082e+45