/*--------------------------------*- C++ -*----------------------------------*\
  =========                 |
  \\      /  F ield         | OpenFOAM: The Open Source CFD Toolbox
   \\    /   O peration     | Website:  https://openfoam.org
    \\  /    A nd           | Version:  7
     \\/     M anipulation  |
\*---------------------------------------------------------------------------*/
FoamFile
{
    version     2.0;
    format      ascii;
    class       volVectorField;
    location    "1000";
    object      U;
}
// * * * * * * * * * * * * * * * * * * * * * * * * * * * * * * * * * * * * * //

dimensions      [0 1 -1 0 0 0 0];

internalField   nonuniform List<vector> 
33730
(
(-2.0084855e+46 1.0898945e+47 -1.9268103e+46)
(-5.4815268e+46 8.9237073e+46 9.5347008e+45)
(-1.3403213e+47 5.0094922e+46 -1.4701911e+46)
(-1.4836588e+46 6.592596e+46 -4.9732755e+45)
(-1.2577412e+47 -4.862831e+45 1.1704191e+47)
(-7.2897998e+46 -1.1216374e+47 5.8627406e+46)
(7.3404293e+45 -8.2212196e+46 1.0349274e+47)
(-3.0068546e+47 4.3981394e+45 1.3754707e+47)
(-1.0170809e+47 6.2408092e+46 6.2430393e+45)
(-5.6624749e+46 7.4512032e+46 2.1964396e+46)
(-1.113426e+45 1.0525819e+47 3.2546878e+46)
(6.5185489e+46 8.9488953e+46 -1.1080278e+46)
(-1.4250455e+47 7.9728643e+46 3.4000626e+46)
(-9.4544048e+46 4.7180446e+46 -4.5618906e+45)
(1.0927234e+47 1.2332321e+47 -2.4620912e+46)
(-9.7746208e+46 3.3129787e+46 3.2302155e+45)
(-3.4518756e+46 1.1623656e+46 3.7898828e+45)
(-5.1323202e+46 8.0405639e+46 -1.7741543e+46)
(7.1143473e+46 1.1063346e+47 -8.0594734e+46)
(-1.5490188e+47 4.5296974e+46 -1.8082945e+46)
(-7.7949617e+46 4.7395537e+46 1.2847521e+46)
(-9.6438642e+46 4.0446111e+46 8.3323781e+45)
(-9.6627782e+46 5.6995276e+46 -1.4643001e+46)
(-9.3644678e+46 5.5291739e+46 -9.4307876e+45)
(-7.9341461e+46 6.6597465e+46 2.506567e+46)
(-2.7207652e+47 1.2124267e+47 1.0794535e+47)
(-9.5562101e+46 4.6141005e+46 1.2738678e+46)
(-1.6685977e+47 4.0186488e+46 5.5132701e+46)
(-1.532615e+46 8.9894077e+46 -5.2177819e+45)
(-1.4315522e+47 -3.0089401e+46 2.3997642e+46)
(7.3757346e+46 1.5356338e+46 -4.1040535e+46)
(4.3896484e+45 2.6096995e+46 1.6727384e+46)
(-8.5428017e+46 5.7985263e+46 2.0348022e+46)
(1.2132551e+47 -8.0011757e+46 1.4534841e+47)
(-1.2723687e+47 -7.4408971e+46 -2.7241313e+45)
(1.2827219e+48 -1.9640897e+47 6.3025252e+46)
(-1.250672e+47 -3.3189676e+46 7.5212602e+46)
(-4.1017282e+47 -2.9671856e+46 1.4085009e+47)
(-8.1341334e+47 1.032205e+47 3.0294033e+46)
(-7.1707261e+46 7.3588434e+46 3.655654e+45)
(-6.2404185e+46 1.0804916e+47 3.3372546e+45)
(-5.549333e+46 1.5978303e+47 -2.2453772e+46)
(7.9357947e+46 9.6659516e+46 1.1084846e+46)
(-2.9876109e+46 8.319919e+46 7.034971e+45)
(-9.966736e+46 4.4335395e+46 -8.220179e+45)
(-2.8096122e+46 2.3093495e+47 2.958393e+46)
(-4.4935677e+46 4.5596152e+46 1.7622641e+47)
(-1.5914536e+47 9.4806322e+46 2.4974446e+46)
(-7.1107503e+46 6.5348436e+46 2.5014808e+45)
(-4.2747534e+46 6.6142708e+46 4.9533619e+46)
(-1.1735851e+47 5.0991101e+46 -8.2624767e+45)
(-1.0900919e+46 8.9189203e+46 -1.3448597e+46)
(4.0444333e+47 -8.2818188e+46 2.5479467e+46)
(-5.2702684e+46 3.7663177e+46 2.7946063e+46)
(1.0084691e+48 -1.3602867e+47 -2.6406088e+46)
(-1.1944518e+46 1.689592e+46 2.7948134e+46)
(-1.2309103e+47 8.6483508e+46 1.9115355e+46)
(4.1069947e+46 8.4932475e+46 -5.0681731e+46)
(-1.1711789e+47 8.1857908e+46 -2.1111255e+46)
(-9.2528041e+46 -1.6066657e+46 -4.6901898e+46)
(-1.5620396e+47 4.3191705e+46 -1.2894729e+46)
(-1.0975712e+47 3.7679865e+46 6.82997e+45)
(-9.324591e+46 4.6520807e+46 1.0151937e+46)
(-1.1193702e+47 4.8693075e+46 -1.1724798e+46)
(-1.22258e+47 5.2404816e+46 -1.769213e+46)
(-7.2599405e+46 5.4618191e+46 -2.8054838e+45)
(-8.7179003e+46 5.2478857e+46 -3.4473828e+45)
(-8.5181177e+46 6.5517255e+46 -4.4850703e+44)
(-7.4293002e+46 7.8107996e+46 3.3744948e+44)
(-1.2904996e+47 6.0165569e+46 3.8069295e+46)
(6.5492588e+46 1.5208044e+47 1.0388707e+47)
(-7.0086865e+46 5.3175798e+46 4.2167036e+45)
(-6.7216965e+46 5.4012335e+46 2.4806616e+45)
(-6.5853996e+46 9.7609397e+46 1.1410253e+47)
(1.2672562e+46 9.5946534e+46 9.4950654e+46)
(-4.8988618e+46 1.0832622e+47 1.1261646e+47)
(7.8874138e+45 9.150865e+46 -1.1595957e+46)
(6.5582059e+45 9.7412421e+46 5.1996466e+45)
(-4.1812212e+47 2.5064053e+46 7.1349711e+46)
(-8.3542262e+46 8.5752596e+46 -5.4543154e+44)
(9.659841e+47 2.9920278e+46 -7.2485341e+46)
(-3.269732e+47 -6.6780816e+46 -3.8849449e+46)
(-2.1938525e+46 1.587589e+47 -1.1254449e+47)
(-2.207972e+47 8.2733046e+46 1.2006622e+46)
(-3.5999654e+47 -8.1276833e+46 1.7345779e+46)
(1.1564425e+47 1.2781474e+47 -9.2814411e+45)
(8.594194e+46 4.1494838e+46 3.2923807e+46)
(-7.1940508e+46 6.9534441e+46 1.1018986e+44)
(-5.7876041e+47 -5.2958812e+46 9.127178e+46)
(6.536877e+46 3.5332599e+46 8.5961447e+46)
(-1.9698289e+47 -3.3665893e+46 -1.8156503e+47)
(-3.3103457e+46 -1.1966466e+45 7.2893432e+46)
(-1.0610314e+47 6.5286669e+46 -6.9923769e+46)
(-1.0097503e+47 5.1796831e+46 1.0194197e+47)
(6.4285121e+46 2.6253616e+45 -4.6069876e+47)
(-4.5321575e+47 1.0436453e+47 -2.1641759e+47)
(-9.9289985e+46 8.176556e+46 -1.2258937e+45)
(-3.0628794e+46 8.8678178e+46 5.5196042e+41)
(2.1555132e+46 7.8026476e+46 -1.0803055e+46)
(-3.2391619e+46 8.0576506e+46 -8.2731268e+45)
(-8.8024376e+46 3.725932e+46 -3.134394e+46)
(-1.6577055e+46 8.0679216e+46 6.4326551e+46)
(8.874752e+46 4.4698208e+46 5.0010987e+46)
(1.0336498e+47 -1.3782998e+46 8.3469936e+46)
(7.9972919e+46 -1.9969203e+46 6.4166417e+46)
(7.297478e+46 1.0076248e+46 2.3948221e+46)
(-2.8563368e+46 6.3272244e+46 -2.1439024e+47)
(-7.0649744e+45 1.5580249e+46 1.0030191e+47)
(-3.8101006e+46 1.2565721e+47 -1.1974701e+46)
(-5.1245197e+46 4.9778597e+46 8.9847616e+46)
(-1.1327606e+47 5.3629102e+46 -9.7938536e+45)
(-7.7524198e+46 1.8046368e+47 3.8892991e+46)
(4.6622504e+46 -3.0283053e+46 1.6399767e+47)
(2.7849756e+45 1.4147415e+46 7.1677339e+46)
(-1.7328876e+48 3.1396681e+46 4.2218815e+46)
(-2.7039977e+46 -1.4653756e+47 4.6806188e+46)
(3.5989529e+46 8.1341474e+46 8.3943272e+45)
(4.7084016e+46 -4.0303306e+46 5.2123505e+46)
(-6.9571489e+46 9.0645125e+46 -1.005737e+46)
(1.2024115e+46 -2.8735136e+45 1.8705508e+46)
(-1.3733065e+47 5.2719443e+46 -4.2844288e+45)
(6.5358937e+46 -3.5879408e+47 3.9742201e+46)
(1.3137702e+46 -4.0696727e+46 1.412352e+46)
(-6.3036674e+47 -9.357086e+46 -1.2563779e+46)
(1.0407994e+48 -6.6302878e+46 7.5116241e+46)
(-4.4745057e+47 -7.0845748e+46 -2.8846222e+46)
(-9.7451178e+46 4.9185271e+46 9.5614392e+46)
(-5.569322e+46 5.9927923e+46 2.001969e+46)
(1.0099707e+47 1.8919737e+47 -7.613014e+45)
(-5.3631553e+46 1.0242462e+47 -2.8871368e+44)
(-2.1041529e+47 6.6875648e+46 1.4299655e+46)
(-4.6632632e+46 8.5940001e+46 -7.466447e+46)
(-6.7315169e+46 1.218168e+47 -5.508344e+46)
(6.1726397e+46 -7.8204171e+46 -2.6956669e+46)
(-1.582881e+47 4.0926467e+46 -1.3977376e+45)
(-1.0924013e+47 3.817687e+46 4.4144831e+45)
(-1.0604249e+47 5.1740326e+46 -1.4635642e+46)
(-1.2981184e+47 3.6012459e+46 -2.3080723e+46)
(-1.0104417e+47 4.2261411e+46 6.6816792e+45)
(-1.1103113e+47 4.6116558e+46 -4.8032305e+45)
(-9.681838e+46 5.1271596e+46 -4.4595328e+45)
(-9.6150151e+46 6.2957104e+46 -1.3578225e+45)
(-1.1676953e+47 5.9674619e+46 -1.7719351e+45)
(-7.7754236e+46 5.0778202e+46 -4.3856621e+45)
(-9.1484013e+46 4.9364525e+46 -4.6818552e+45)
(-1.0959059e+47 6.5168962e+46 -4.6170775e+45)
(-7.8406711e+46 6.9484575e+46 -3.3011091e+45)
(-1.5543534e+47 2.375529e+46 1.4228463e+46)
(2.2782525e+46 8.0104481e+46 1.196179e+47)
(-1.483377e+47 1.2396673e+47 1.033086e+47)
(-9.5583561e+46 6.6623338e+46 1.129633e+46)
(-1.3415391e+47 5.0892017e+46 1.2081926e+46)
(-6.8660341e+46 8.4753656e+46 -7.5966373e+45)
(-1.5786379e+46 1.084497e+47 3.8297725e+45)
(1.7047994e+46 6.5546848e+46 7.795133e+46)
(-2.3749339e+46 1.2318452e+47 1.2491504e+47)
(4.0040262e+47 2.5285212e+47 1.630931e+46)
(-1.5142804e+47 6.2458854e+46 -3.098278e+46)
(-4.7850588e+46 4.9450969e+46 -1.7193058e+46)
(3.4287774e+47 3.511017e+46 8.1751584e+46)
(9.6887941e+46 1.3597543e+47 4.407309e+46)
(5.3128731e+47 1.304227e+47 4.3121129e+46)
(3.0751226e+44 9.6384185e+46 -8.9056657e+45)
(9.5206391e+46 9.4723238e+46 3.2940718e+44)
(-7.7542925e+46 6.6649777e+46 -5.0337948e+46)
(-2.6708381e+47 9.2601182e+46 -7.3064286e+46)
(1.5796855e+47 -3.2516122e+46 4.8753805e+46)
(-5.2308425e+46 7.005531e+46 -2.5329726e+45)
(-1.2573848e+47 -4.9753388e+46 -5.8523785e+46)
(-5.2821884e+47 3.3412834e+46 -5.8910619e+46)
(1.899816e+47 7.3282746e+46 -1.0775384e+47)
(2.4269292e+47 1.1463542e+47 2.0048105e+46)
(6.9049988e+46 -2.4548624e+46 1.2877772e+47)
(-1.5696391e+47 9.5916313e+46 5.9448456e+45)
(1.8647572e+47 8.7132685e+46 1.4779249e+46)
(4.9260502e+46 8.352927e+46 -8.0447711e+45)
(-2.1648671e+46 5.0998107e+46 7.3798463e+45)
(-4.5730075e+46 6.0017018e+46 -4.0373796e+45)
(-4.1538923e+47 3.8516047e+46 1.3774978e+47)
(3.0458519e+46 2.4606799e+46 1.9701725e+46)
(-2.0111109e+46 5.029858e+45 -2.1778814e+47)
(3.3966663e+47 1.5770376e+47 1.9398269e+46)
(-1.2435366e+47 1.4842733e+46 -3.6286463e+46)
(-1.60875e+47 5.0248855e+46 -6.0441825e+46)
(2.8775765e+47 -3.0455527e+46 1.5069674e+47)
(-3.6854864e+47 8.7064994e+46 1.8646128e+46)
(3.752531e+46 7.155383e+46 -2.3784968e+47)
(-4.511887e+47 6.8554466e+46 -9.7410626e+46)
(-1.0080491e+47 8.0851854e+46 -3.7551294e+44)
(-3.5977464e+46 8.6470424e+46 -2.2370242e+45)
(3.4392197e+46 7.9038493e+46 -1.0032773e+46)
(-3.2601673e+46 7.8503424e+46 -5.0945759e+45)
(2.9951526e+47 2.9985637e+46 2.759855e+46)
(-1.1035522e+47 6.019117e+46 -1.0688901e+46)
(7.4791535e+46 4.2818601e+45 1.1463758e+46)
(-1.9634927e+45 3.3373037e+46 9.4257217e+45)
(8.8435001e+46 4.5890513e+46 4.6045485e+46)
(1.248517e+46 1.334046e+45 -9.4120008e+45)
(-5.1825532e+46 8.7935232e+46 7.431519e+45)
(-3.1101401e+46 6.4111992e+46 2.7160474e+46)
(1.5478573e+46 8.1037732e+45 7.7503303e+46)
(2.8408138e+46 -5.8492692e+46 3.2644331e+45)
(6.1860307e+46 9.9960982e+45 1.6534128e+46)
(1.1027944e+47 -9.8376966e+45 7.1455865e+46)
(-9.0514065e+46 3.0160973e+46 8.0841358e+46)
(4.4027546e+45 4.0733919e+46 8.9831543e+46)
(3.4832878e+46 2.228887e+46 -3.4638603e+46)
(1.2669207e+46 5.3873612e+46 2.6506036e+46)
(7.1932425e+46 7.9384689e+45 5.6111946e+46)
(6.0022567e+46 -8.9528778e+46 9.9920364e+46)
(3.6325459e+46 -4.2161697e+46 1.9688996e+46)
(3.2117207e+46 -6.2959627e+46 1.0234e+47)
(-9.4978819e+46 -2.7979017e+46 1.8633827e+46)
(-3.9031388e+47 3.9216283e+46 -9.9590306e+46)
(-8.5920382e+46 -6.5545099e+46 6.6762068e+46)
(-8.8486595e+46 5.3172698e+46 -4.0551426e+46)
(7.385711e+46 -4.0348316e+46 8.5192844e+46)
(-1.2830889e+47 5.783333e+46 -1.029226e+46)
(4.6598746e+46 -2.4910816e+47 1.0235057e+47)
(-3.2727305e+46 -3.5021502e+46 1.4916338e+47)
(-4.0775001e+46 -7.4766628e+46 9.5616447e+46)
(-1.6598161e+47 -1.664436e+47 1.0591361e+47)
(-1.5219825e+48 3.545502e+46 2.5882417e+46)
(3.4234361e+46 1.142777e+47 2.6640538e+46)
(-3.9295752e+46 5.3230714e+46 -3.7428771e+46)
(9.9311065e+46 -1.5046443e+47 1.0077899e+47)
(1.0801872e+47 8.767353e+46 -4.5231001e+45)
(-1.4359831e+47 7.8239774e+46 -1.3350983e+46)
(4.1098581e+46 5.7742941e+46 1.2086366e+47)
(-7.75747e+46 1.6721508e+46 -4.9159811e+46)
(4.4354691e+46 -2.568158e+46 5.9087491e+45)
(-1.5917205e+47 4.367914e+46 -3.0480144e+44)
(1.8204699e+46 -2.4538031e+47 1.8587958e+46)
(2.9584914e+46 -3.1772993e+46 -2.7622384e+47)
(-4.4385393e+47 -8.4878587e+46 -2.2672329e+46)
(5.7892399e+47 3.6714637e+46 5.0970326e+46)
(-2.4135491e+47 -3.7234248e+46 -7.7343691e+46)
(6.1839753e+47 9.8948426e+46 1.1091703e+47)
(-7.9234757e+47 3.639023e+46 2.2374935e+46)
(-9.0128508e+45 1.3554123e+47 9.1996543e+46)
(8.127466e+46 4.3633075e+47 2.571054e+47)
(-1.6138778e+47 5.0276031e+45 2.8670131e+44)
(-1.6482218e+47 1.9311041e+47 -1.2839629e+47)
(-3.9038514e+47 1.1616905e+47 -1.0736557e+46)
(-1.7999397e+47 7.1616575e+46 4.4441395e+46)
(-1.7754048e+47 9.1100361e+46 -2.1557771e+45)
(-6.1913812e+46 1.6621405e+47 1.2662019e+46)
(5.1268134e+47 1.8531219e+47 8.0637043e+45)
(4.013466e+46 -3.4236411e+46 -8.8523435e+44)
(-1.5653912e+47 2.7230879e+46 6.7216193e+45)
(-1.6607694e+47 2.3716379e+46 -1.7941356e+45)
(-1.2680475e+47 3.3526487e+46 7.8229164e+45)
(-1.3465556e+47 4.5985384e+46 -7.7081771e+45)
(-1.2614566e+47 4.4202263e+46 -8.9997613e+45)
(-1.1031195e+47 4.4314516e+46 7.8885483e+45)
(-1.0411808e+47 3.9912202e+46 -5.1325765e+45)
(-1.0171713e+47 4.4492951e+46 -4.1107881e+45)
(-1.2701004e+47 4.5619059e+46 -7.6265491e+45)
(-1.1117913e+47 3.9763388e+46 -5.8025413e+45)
(-1.1544686e+47 4.2634884e+46 -4.416354e+45)
(-1.1109003e+47 4.8468649e+46 -4.4605001e+45)
(-1.0509995e+47 5.9013262e+46 -3.9883912e+45)
(-1.2022345e+47 5.471945e+46 -3.6048344e+45)
(-8.0286268e+46 5.0428358e+46 -2.5364441e+45)
(-9.1836167e+46 4.8633247e+46 -2.3933493e+45)
(-1.0375117e+47 6.3087485e+46 -1.6820468e+45)
(-7.7419227e+46 6.7042468e+46 -1.8885289e+45)
(-1.3194933e+47 1.8792303e+46 3.7329049e+45)
(-1.810279e+47 -6.6542373e+46 1.9521e+46)
(-2.469513e+47 -1.9697493e+46 6.5484005e+46)
(-1.7492891e+47 6.0411536e+46 7.0718504e+46)
(-1.6650192e+47 3.4665456e+46 6.8435009e+46)
(-1.3828856e+47 4.7791472e+46 8.7688104e+45)
(-1.3655392e+47 2.3407449e+46 9.7096744e+45)
(-7.1112391e+46 -7.5137859e+45 -9.4683631e+45)
(-1.3246735e+47 4.4138911e+46 8.59331e+45)
(-2.6722829e+47 1.1545536e+47 1.9600074e+47)
(-1.6630434e+47 1.7746775e+47 8.0733855e+46)
(-8.0689596e+46 5.8461266e+46 -6.5787966e+45)
(-1.2471357e+47 5.139723e+46 -1.3667105e+45)
(-1.6534679e+46 5.8205838e+46 -2.30904e+46)
(-2.4327613e+47 1.6912824e+47 -8.3024363e+45)
(-5.8258259e+46 7.7727101e+46 -1.8471246e+46)
(-3.3950795e+45 1.3220485e+47 -1.9189532e+46)
(1.0658844e+48 8.4611043e+44 1.9159808e+46)
(-2.7750495e+47 1.5247945e+47 1.9339643e+47)
(-1.4942384e+47 -9.5058589e+46 -2.1289913e+47)
(-1.2912897e+47 6.0488054e+46 1.908804e+45)
(-7.9279971e+46 4.3441795e+46 -2.4677031e+45)
(9.4436012e+46 1.9368322e+46 1.9382366e+47)
(-5.2151078e+47 2.8008376e+46 7.0331002e+46)
(-2.5931598e+47 1.4278378e+47 -4.140641e+46)
(-9.2997926e+47 9.2683053e+46 -2.0596931e+45)
(9.4557718e+46 1.0063908e+46 -2.631411e+47)
(1.518082e+47 9.8465223e+46 4.7641749e+46)
(-7.2327618e+47 5.3729278e+46 -1.1505944e+47)
(-2.5185746e+46 5.1647831e+46 -7.3810198e+45)
(-1.0446828e+47 8.6716387e+46 -1.802907e+46)
(6.0896853e+46 -4.2890055e+46 2.4426062e+46)
(-1.0056576e+47 8.1522096e+46 -3.3385037e+44)
(1.0521091e+47 4.6009402e+46 -8.5751134e+46)
(1.7127578e+48 -8.3431674e+46 1.3800517e+46)
(-2.6269346e+47 1.7787489e+46 1.243435e+47)
(-3.3542985e+47 4.2713652e+46 -4.0712276e+46)
(-2.5507968e+46 5.7771374e+46 9.0791782e+46)
(-8.1088832e+47 1.9769414e+46 -2.1019896e+46)
(2.9354741e+46 -7.8317749e+46 1.6164598e+47)
(-2.3683765e+46 4.3160613e+46 -3.0220183e+46)
(9.3975589e+46 9.0804589e+46 6.8931762e+45)
(6.898713e+46 1.0855419e+47 -5.8458033e+45)
(7.9098226e+46 7.0545251e+46 2.2050156e+45)
(-1.059414e+47 7.4948783e+46 -1.2686514e+45)
(1.8076145e+47 1.2749275e+47 -1.97634e+46)
(1.614977e+47 5.3688066e+46 4.2225609e+45)
(-3.6275315e+46 3.7264802e+46 -1.060948e+47)
(-1.0617962e+47 6.137888e+46 -4.7193888e+46)
(1.6051503e+47 -3.4036846e+46 6.2258787e+46)
(1.6288095e+47 -4.5501244e+46 1.2250566e+48)
(-1.6355571e+48 6.9489374e+46 -1.074951e+47)
(-2.6197117e+47 7.5213177e+46 -6.3737832e+46)
(4.541347e+46 2.7093163e+46 -4.1435883e+46)
(8.6129088e+46 -4.2639671e+45 2.7900942e+47)
(-2.811914e+47 6.3086565e+46 3.5803915e+45)
(-1.2796431e+47 3.5131981e+46 -2.5060838e+46)
(-1.2733487e+47 6.5521441e+46 -8.3307217e+45)
(-2.0552916e+46 8.7441277e+46 -3.5182648e+45)
(-2.3887292e+46 7.6992571e+46 1.1238811e+46)
(8.9415877e+46 4.1829939e+46 1.4948414e+46)
(7.1013024e+46 6.4720763e+46 1.7400384e+45)
(-1.0437078e+47 -2.3250138e+46 2.5533267e+46)
(-6.513534e+46 3.7210967e+46 2.2500877e+46)
(-3.0575058e+46 5.9653839e+46 2.3470454e+46)
(-1.552359e+47 5.710084e+45 2.3452063e+46)
(-1.5205736e+47 8.2507294e+46 -5.209097e+46)
(-4.9909724e+46 4.8582209e+46 -2.5793233e+46)
(1.522081e+45 -2.9120691e+46 -2.3362553e+46)
(-2.2044978e+47 -1.0106296e+47 3.4827166e+46)
(-4.1511289e+46 3.4127034e+46 -1.1889898e+46)
(3.9650662e+46 6.2539091e+46 -4.0592987e+44)
(-1.1976953e+47 5.8305539e+46 -1.154544e+47)
(-1.1327832e+47 9.510545e+46 1.5951329e+46)
(-2.8624466e+46 1.3200709e+47 4.2627069e+46)
(-1.1747691e+47 -5.641288e+45 1.0873161e+46)
(-1.1026625e+47 -7.6441691e+46 5.3079216e+46)
(-2.3508795e+47 2.3319821e+46 1.4257749e+47)
(-9.5532279e+46 1.0436299e+46 -1.5522592e+46)
(-9.2792142e+46 -1.3510683e+47 3.0957991e+46)
(-6.9217314e+46 9.2108796e+46 -6.7379443e+45)
(-9.5647248e+46 -5.8533831e+46 1.569939e+47)
(1.2067894e+48 -3.9396155e+46 8.4336259e+46)
(2.389194e+47 4.7229824e+46 5.6547225e+44)
(-4.985241e+46 3.0310544e+46 2.1938244e+46)
(1.6750703e+46 4.7064808e+46 2.2214525e+46)
(6.0064938e+46 -6.0178675e+46 9.1794258e+46)
(6.0489444e+46 1.160266e+46 6.4120361e+46)
(-1.933581e+47 -1.2434007e+47 1.1827189e+46)
(-8.5734748e+45 -2.1853189e+46 3.7298251e+46)
(5.418325e+46 -7.2792419e+46 6.8702147e+46)
(-1.0272288e+46 -1.4810545e+47 4.5860016e+46)
(-7.2047671e+46 -1.5787542e+46 6.9948471e+45)
(1.6309539e+47 4.2869003e+46 -5.2711127e+46)
(6.7627497e+46 -1.5942097e+46 1.1012897e+47)
(2.1679442e+47 7.0121613e+46 -9.0044578e+46)
(6.6549393e+46 -7.2121473e+46 1.1276953e+47)
(-1.5602581e+47 5.0926852e+46 -1.1254321e+46)
(2.2257798e+46 -1.962585e+47 6.358992e+46)
(3.9686927e+46 -1.3291641e+46 5.0480676e+47)
(-1.9818201e+44 -6.6510339e+46 1.4018292e+46)
(2.6635174e+46 3.363789e+47 1.1435634e+47)
(-1.4244955e+48 7.2914467e+46 -3.9689971e+46)
(5.0307769e+47 5.3784639e+46 -5.219326e+46)
(-7.4766222e+46 1.5042811e+47 6.3557959e+46)
(1.2704476e+48 3.4578795e+46 -5.7512568e+46)
(7.4788018e+46 -1.2333725e+47 -1.4637193e+46)
(-2.1591028e+47 2.2202067e+46 3.4339785e+45)
(-2.3360114e+47 1.1223003e+47 1.7696464e+46)
(-2.7464887e+47 1.3736918e+47 -5.2052631e+46)
(-2.9193274e+47 1.9304476e+47 -4.1269548e+46)
(-1.5510519e+47 2.0155035e+47 9.0686788e+46)
(4.4439322e+46 1.8499329e+47 8.2740549e+46)
(-2.2153329e+46 2.9061132e+46 -5.0278055e+46)
(2.7208506e+46 -2.3982915e+46 6.5087742e+45)
(-1.551024e+47 1.7713501e+46 2.9540282e+45)
(5.4767341e+46 -8.9548537e+45 -2.5360099e+47)
(8.0951937e+47 -8.5430972e+46 2.0527427e+46)
(-1.6960669e+46 2.1932029e+46 1.0951896e+47)
(-5.9064594e+47 3.7849407e+46 -6.8835721e+46)
(-7.3953737e+46 8.5119099e+46 1.2194096e+47)
(1.7810505e+46 3.5897874e+47 3.1004797e+47)
(-1.6515829e+47 3.1994151e+46 -1.6638211e+46)
(-7.4922015e+46 -1.3839284e+47 1.0135748e+45)
(-1.6569925e+47 -4.0101878e+46 9.4687201e+46)
(-5.7815543e+46 -1.4707832e+47 -1.8805653e+46)
(-2.0269359e+47 -5.88289e+46 -5.1145015e+46)
(-1.9505344e+47 4.1632667e+47 -5.3428432e+46)
(-7.4413851e+47 1.7665522e+47 9.1602143e+46)
(7.617315e+46 1.1515582e+47 1.7865875e+47)
(8.1126598e+46 8.719219e+46 2.7190092e+46)
(-6.9695633e+46 1.6633369e+47 3.3505509e+47)
(-4.9264096e+47 1.7626365e+47 2.299201e+46)
(-1.6336914e+47 1.9292445e+46 6.9612657e+45)
(-1.245287e+47 2.1550061e+46 1.042505e+46)
(-1.1496679e+47 3.2219465e+46 1.0642675e+46)
(-1.2111246e+47 3.095856e+46 -8.9804297e+45)
(-1.1981699e+47 3.3032987e+46 -9.8574924e+45)
(-1.7580695e+47 3.8766217e+45 -5.3598621e+45)
(-1.3700058e+47 2.0567058e+46 6.4729778e+45)
(-1.4228776e+47 2.8751339e+46 -6.5374202e+45)
(-1.4491782e+47 3.2629102e+46 -6.139558e+45)
(-1.2750303e+47 3.3974489e+46 6.6958752e+45)
(-1.1993292e+47 3.7115329e+46 -3.2943307e+45)
(-1.2411518e+47 4.4006984e+46 -1.1687913e+45)
(-1.0613471e+47 5.003581e+46 -1.4916067e+45)
(-1.1077438e+47 4.0777172e+46 -3.8435244e+45)
(-1.1589231e+47 3.5306933e+46 -5.0325271e+45)
(-1.36852e+47 3.5140572e+46 -4.3521201e+45)
(-1.4131917e+47 4.2105396e+46 -3.9718549e+45)
(-1.2430887e+47 3.5991465e+46 -4.652175e+45)
(-1.1085845e+47 4.1598325e+46 -2.03215e+45)
(-1.0353746e+47 4.7358525e+46 -2.0849147e+45)
(-1.2328408e+47 6.0935129e+46 -1.6600571e+45)
(-1.3549279e+47 5.5259509e+46 -1.2235574e+45)
(-1.5720853e+47 -2.566966e+46 -2.8478995e+45)
(-1.5337689e+47 1.0663896e+47 2.3451607e+46)
(-4.2038919e+46 -3.2428611e+46 3.8254825e+46)
(-1.3761941e+47 3.1889099e+46 1.5809472e+45)
(-1.5708043e+47 2.0833058e+46 4.6665191e+45)
(-2.031025e+47 8.8862172e+46 9.207572e+45)
(-4.6571314e+47 6.3697088e+46 4.5688632e+45)
(-1.9228612e+47 6.4538139e+46 9.7219931e+45)
(-5.8780672e+46 8.7297708e+46 -5.0531916e+45)
(-1.1184389e+47 -1.1695444e+47 2.4581761e+46)
(-2.563523e+47 -8.2803849e+46 9.6097986e+46)
(9.4751627e+45 2.0075816e+46 1.7518863e+47)
(-1.8878185e+47 7.4502836e+46 -3.1315404e+45)
(-2.2355921e+47 7.1930474e+45 1.5084331e+47)
(-1.6504292e+47 -5.6320771e+46 -1.1795575e+47)
(-1.3225459e+47 4.4278587e+46 -7.9529283e+43)
(-1.3262756e+47 2.2045207e+46 -4.0652865e+44)
(-1.2280448e+47 -1.1960812e+46 -1.3917986e+46)
(-1.0401935e+47 3.9565191e+46 -3.5444366e+45)
(3.6747378e+46 5.9085045e+46 5.9504498e+46)
(-7.473086e+47 1.0450513e+47 -6.9913922e+45)
(-9.8831137e+46 4.9782411e+46 -2.535865e+45)
(-1.4339503e+47 3.9539027e+46 -4.8045156e+44)
(-3.7113494e+47 9.3564408e+46 -1.1572394e+47)
(-5.5094751e+46 7.3062178e+46 -3.7377163e+45)
(-5.3810317e+47 1.4719262e+47 -8.2030563e+46)
(-2.6349741e+46 7.9906205e+46 -6.3288994e+46)
(-7.5700787e+46 7.0217216e+46 -5.4146207e+45)
(-8.7856799e+46 2.5784106e+46 -1.2219712e+47)
(5.1117144e+47 2.3334896e+47 -5.2988795e+46)
(6.633258e+46 1.0712364e+47 -1.7873351e+47)
(4.4174327e+46 -3.2065863e+47 -2.1169588e+47)
(-1.5002112e+47 5.7367623e+46 3.1169261e+45)
(-7.1878364e+46 4.067833e+46 -3.0887715e+45)
(6.7454337e+46 -7.8983107e+46 4.6279009e+46)
(-1.446581e+47 1.934532e+47 5.8932911e+46)
(-3.9330538e+47 3.3817718e+46 9.7583695e+46)
(-1.9328888e+47 1.11252e+47 -4.2248254e+46)
(-6.1151055e+47 7.1461718e+46 -6.3553537e+45)
(5.0166577e+46 3.7081545e+45 -1.8175999e+47)
(3.3388904e+47 1.145045e+47 1.0472143e+47)
(-4.4996377e+47 5.7399335e+45 8.7916485e+46)
(-4.9788472e+47 6.7378632e+46 -7.9804287e+46)
(-1.0776219e+46 6.4315054e+46 -8.9609468e+45)
(-4.3645042e+46 8.4548192e+46 -1.2138497e+46)
(5.3047095e+46 4.8825526e+46 -5.6561396e+46)
(-4.4980462e+47 6.2202226e+46 1.58375e+47)
(3.3892606e+46 1.5603563e+46 1.9328916e+46)
(-1.6089748e+47 5.5546838e+46 -2.8314975e+46)
(-1.387869e+47 4.145706e+46 -1.0475928e+46)
(8.6900231e+46 -8.0562247e+46 -2.3840907e+46)
(-5.9635657e+47 -6.3088151e+46 -1.6309412e+46)
(-2.1910569e+46 4.7215662e+46 -3.2054165e+46)
(8.4854758e+46 2.0804735e+46 4.762085e+46)
(2.0096082e+47 1.9410856e+46 4.7684995e+46)
(-5.290983e+46 3.5956054e+46 -1.0493901e+47)
(-6.8953055e+46 -3.071579e+46 8.0903679e+47)
(-8.3604239e+47 7.2175849e+46 2.0505233e+47)
(-7.644105e+47 6.4782657e+46 -8.1822118e+46)
(-5.4768557e+47 6.4810783e+46 -7.8636335e+45)
(-2.740731e+47 6.4363792e+46 2.6454907e+47)
(5.0844301e+46 3.9513309e+45 -3.0036777e+46)
(-1.3848662e+47 3.6039045e+46 -2.0858576e+46)
(-3.9469139e+45 5.4423185e+46 9.1603067e+44)
(-8.2502456e+46 3.2346094e+46 -2.3298311e+46)
(-6.3034369e+46 7.177605e+46 -2.5098227e+45)
(-8.5801972e+46 3.1071125e+46 -2.4690488e+46)
(-1.4384473e+47 5.7739542e+46 -1.8113003e+46)
(-7.1778016e+46 7.7667315e+46 -1.4914793e+46)
(-7.2907545e+46 8.3998632e+46 -3.5392488e+45)
(-6.7099715e+46 7.3153654e+46 7.7423496e+45)
(-3.7836875e+46 9.4265027e+46 -8.4709299e+45)
(-7.5491066e+46 8.2647618e+46 1.5206958e+46)
(-8.5166442e+46 9.3731454e+46 4.3690825e+45)
(-5.2537121e+46 9.101079e+46 1.3107283e+46)
(-6.305437e+46 7.0494293e+46 2.026877e+46)
(5.9355032e+45 -2.6543102e+46 5.7968406e+45)
(-1.2912126e+46 2.2525523e+46 1.292611e+46)
(-1.8062108e+46 4.1396885e+46 1.2981682e+46)
(-1.0908691e+45 -1.3673732e+46 8.5478973e+45)
(-2.6551291e+47 4.0687072e+46 -4.0545807e+46)
(-1.3144832e+47 6.5297209e+46 -3.2272586e+46)
(-1.6958896e+47 6.982742e+46 -3.3341834e+46)
(-1.71141e+46 7.4113547e+46 -4.6558286e+46)
(-7.9946512e+46 8.5174878e+46 -3.4210979e+46)
(-2.0035697e+47 9.7328091e+46 -3.9150917e+46)
(-1.3991703e+47 1.0648068e+47 -6.6604759e+46)
(-1.6502936e+47 1.1612351e+47 3.5809967e+45)
(-1.3622299e+47 1.2432814e+47 -1.1154352e+47)
(-6.8232634e+46 5.8893829e+46 -1.1190427e+46)
(2.0034823e+46 7.5486222e+45 -2.3864053e+46)
(-3.9395204e+46 -5.7020485e+46 -6.2585234e+46)
(1.6204565e+47 -4.4823756e+46 -6.010212e+46)
(-6.6754965e+47 -1.2153086e+47 -8.0507991e+45)
(-6.8480738e+46 4.5240886e+46 -2.7868878e+46)
(9.9348919e+47 2.1413955e+46 5.3242346e+46)
(1.1748075e+48 -3.2765372e+46 -2.326987e+47)
(-3.7180474e+47 8.6474417e+46 2.9897953e+45)
(1.2612394e+47 6.2767858e+46 1.8622311e+47)
(-6.4997264e+46 5.4209611e+46 8.1643655e+44)
(-1.7988142e+47 -9.7745901e+46 6.4117664e+46)
(-6.9016696e+46 -4.8680169e+46 3.4060354e+46)
(-5.3832903e+46 4.1936933e+46 4.1451375e+46)
(-2.3258618e+46 4.7200154e+45 1.4026315e+46)
(-5.3487066e+46 -9.8208218e+46 6.1322355e+46)
(-3.5626811e+46 -1.8387495e+47 -1.4215658e+47)
(-7.2166448e+46 8.2370717e+46 1.0464026e+45)
(5.864297e+46 -3.4393993e+46 3.2426622e+47)
(-5.2025987e+47 -3.7582839e+44 1.0846269e+47)
(-8.9347083e+46 -1.7683171e+47 1.8842873e+47)
(6.076942e+46 -9.7475791e+46 1.3562195e+46)
(-9.6146556e+45 3.4470771e+46 1.7432159e+46)
(2.1238669e+46 -1.6744916e+46 1.1838573e+47)
(-9.416772e+46 -1.2160533e+47 8.7670391e+46)
(5.210617e+46 3.1365867e+45 5.3390324e+46)
(5.4254936e+46 1.6967018e+47 7.6995828e+46)
(-1.8879857e+46 -3.9447378e+46 2.733684e+46)
(4.6518516e+45 -5.3386603e+46 1.1471043e+47)
(-4.478722e+46 -1.3352807e+47 4.6333734e+46)
(1.4101045e+46 -5.313824e+46 5.3064442e+45)
(-6.2757517e+46 -3.6744497e+46 5.9988781e+45)
(5.4322844e+46 3.6937279e+46 -3.576311e+46)
(3.9463751e+46 -2.1790624e+46 4.4144212e+46)
(1.3952761e+47 1.0385112e+47 -3.2340925e+46)
(4.3233661e+46 -2.6777224e+46 4.4569268e+46)
(-1.6093948e+47 2.2685102e+46 -3.8791243e+45)
(1.9628296e+46 -7.5796371e+45 3.525726e+47)
(2.8231719e+46 2.818687e+47 4.4792828e+46)
(-4.5258743e+47 2.2390502e+47 1.9938662e+46)
(-1.8749301e+46 5.7109406e+46 5.0947301e+46)
(9.6345336e+47 2.5172061e+46 1.9374115e+47)
(3.3307201e+46 -1.2550757e+47 -9.7024719e+46)
(-1.330385e+47 -1.6887557e+46 -9.6588619e+45)
(-4.4666495e+47 -3.6603441e+46 -8.327835e+45)
(-2.3270805e+47 -2.7378917e+46 -6.868694e+45)
(-1.2874614e+47 3.8502331e+46 4.1274512e+46)
(-1.8937941e+47 3.5857396e+46 -5.6235836e+45)
(-1.9246688e+47 1.0498288e+47 -2.999566e+46)
(4.087516e+45 8.6172789e+46 -1.3518543e+47)
(-1.3736361e+45 2.2265329e+47 -2.4229468e+46)
(-1.6797422e+47 1.7041711e+47 1.1354184e+47)
(5.8306824e+46 2.4760125e+47 -2.1122804e+47)
(2.9667963e+46 1.4893502e+47 -6.1345981e+45)
(-1.6739471e+47 -1.836004e+45 2.7004712e+45)
(1.5688811e+47 7.7460347e+45 -5.4892175e+46)
(-4.1128666e+46 6.3019607e+46 2.3047689e+47)
(-1.4422151e+47 -1.1861167e+46 -1.1672287e+46)
(-7.4753332e+46 9.7841918e+46 -7.5351251e+45)
(-1.1046729e+47 -1.268253e+47 1.8878629e+46)
(-1.5701313e+47 1.6713025e+46 -6.901878e+46)
(-4.5303075e+47 3.5012364e+46 -3.6200978e+46)
(-1.9304226e+47 -1.6783473e+47 2.5024806e+46)
(3.3671995e+47 -1.0605603e+47 1.6774741e+47)
(-1.492372e+47 -1.509829e+47 -9.337164e+46)
(1.4957981e+47 -5.7229447e+46 -5.8294529e+46)
(-1.0118004e+46 7.6127569e+46 2.5642693e+47)
(-1.413174e+48 2.6880701e+47 2.3002906e+47)
(-3.1392684e+47 8.4640754e+46 1.760457e+46)
(-6.5736283e+47 7.0053023e+46 -6.2517265e+45)
(-4.985296e+46 1.3134263e+47 3.7054859e+47)
(-3.1070132e+47 1.9893581e+47 -3.2454561e+46)
(-1.7759281e+47 1.3359671e+46 1.7890723e+46)
(-1.6707761e+47 7.0578028e+45 9.2915607e+45)
(-1.2437542e+47 2.5101552e+46 1.0220166e+46)
(-1.3099174e+47 1.3627057e+46 1.003086e+46)
(-1.2856871e+47 2.3999828e+46 -8.9573248e+45)
(-1.2705512e+47 2.3076413e+46 -1.0324907e+46)
(-1.1835456e+47 2.5489901e+46 -1.3336159e+45)
(-1.1377092e+47 2.8685616e+46 -1.3385416e+45)
(-1.1404587e+47 3.2995076e+46 -2.2460837e+45)
(-1.210724e+47 2.9656177e+46 -1.9140443e+45)
(-1.7034806e+47 -1.394402e+46 -1.0238169e+46)
(-1.3800596e+47 8.2876632e+45 1.318014e+45)
(-1.4821773e+47 1.9133309e+46 -1.494272e+46)
(-1.4284624e+47 2.0693784e+46 -1.3106151e+46)
(-1.324131e+47 1.9151389e+46 1.4374032e+45)
(-1.2935758e+47 2.4362325e+46 -2.6040485e+45)
(-1.3354362e+47 2.7056742e+46 -8.2821343e+44)
(-1.2791033e+47 3.9051747e+46 -2.0510428e+44)
(-1.2465538e+47 3.1993904e+46 -2.415674e+45)
(-1.3232778e+47 2.9780047e+46 -4.4299757e+45)
(-1.5060011e+47 3.038978e+46 -3.2225446e+45)
(-1.4008771e+47 3.6639816e+46 -3.7200214e+45)
(-1.2418708e+47 3.4152226e+46 -4.8708768e+45)
(-1.1565014e+47 3.3448107e+46 -2.5227663e+45)
(-1.2989618e+47 3.4769302e+46 -1.8070784e+45)
(-1.4989335e+47 4.0218559e+46 -9.2197725e+44)
(-1.1959678e+47 3.5182309e+46 -1.9799559e+45)
(-9.5202744e+46 -6.7029068e+46 -9.1632511e+45)
(-1.6782052e+47 -1.0158412e+47 -5.8284187e+46)
(-1.5483808e+47 5.1808022e+45 -2.7874268e+45)
(-1.7514748e+47 -1.4978809e+46 -1.1180625e+46)
(-1.4584305e+47 -2.4850121e+46 -7.9709848e+46)
(-1.9768475e+47 -7.3411479e+45 -1.9357766e+45)
(-2.3961827e+47 -9.5618341e+45 -2.7934245e+46)
(-1.7691161e+47 2.3178974e+46 -2.122898e+46)
(-2.0644653e+47 4.3932494e+45 -3.1065912e+46)
(-4.7103151e+46 2.6630053e+47 4.2167166e+46)
(-4.9134557e+46 5.3867685e+46 -9.3007206e+46)
(3.6280727e+46 -8.9685737e+46 6.0433944e+46)
(-1.3573979e+47 1.9720947e+46 -8.4938126e+44)
(-1.4049489e+47 2.4807329e+46 6.7375109e+45)
(-1.1394426e+47 5.7968735e+46 -2.177594e+45)
(-5.8402721e+47 3.6424801e+46 -1.5114826e+45)
(-2.0104893e+47 7.788662e+46 2.7391433e+46)
(-1.4017104e+47 2.9462919e+46 -4.3959273e+45)
(-1.2855044e+47 1.3286975e+46 -1.2584869e+46)
(-4.9602497e+47 -1.8007139e+47 3.444228e+45)
(-7.1101019e+47 -1.2112286e+47 8.4156696e+46)
(-4.1353344e+46 1.1507172e+47 -3.5971977e+46)
(-1.5035482e+47 4.0559217e+46 4.7291497e+46)
(-1.6386413e+47 9.1560925e+46 -6.0661355e+46)
(5.7686671e+46 -1.332638e+46 -3.91477e+46)
(4.5193574e+46 -7.4529528e+46 -1.143268e+47)
(-1.3917985e+47 -1.6020084e+46 -9.0601599e+46)
(-1.3613192e+47 3.8816514e+46 -6.9012282e+44)
(-1.3693874e+47 1.5023452e+46 -8.6101369e+43)
(-1.2288415e+47 -2.0091791e+46 -9.6074091e+44)
(-1.3672305e+47 4.7074687e+46 -3.8069747e+45)
(6.52264e+46 1.6967555e+46 -6.1447293e+44)
(-6.4567116e+47 5.9369303e+46 -4.3957431e+46)
(-1.0626245e+47 4.2278339e+46 -2.1471713e+45)
(-1.4232247e+47 3.6093846e+46 -3.7323552e+44)
(-2.0501932e+47 7.5102057e+46 -3.4895529e+46)
(-3.2319953e+47 8.9791289e+46 -6.4746659e+46)
(-6.9208097e+46 6.4713112e+46 -3.8218143e+45)
(1.0024196e+47 5.5111947e+46 -2.4011705e+47)