/*--------------------------------*- C++ -*----------------------------------*\
  =========                 |
  \\      /  F ield         | OpenFOAM: The Open Source CFD Toolbox
   \\    /   O peration     | Website:  https://openfoam.org
    \\  /    A nd           | Version:  7
     \\/     M anipulation  |
\*---------------------------------------------------------------------------*/
FoamFile
{
    version     2.0;
    format      ascii;
    class       volVectorField;
    location    "1000";
    object      UMean;
}
// * * * * * * * * * * * * * * * * * * * * * * * * * * * * * * * * * * * * * //

dimensions      [0 1 -1 0 0 0 0];

internalField   nonuniform List<vector> 
33730
(
(-9.2044861e+44 2.4923099e+44 -1.1641463e+43)
(-8.6850347e+44 2.1364623e+44 8.6896468e+43)
(-1.301718e+45 1.5937918e+44 -2.7703359e+43)
(-1.1160804e+45 1.5746192e+44 -3.1557972e+43)
(-1.2383077e+45 6.5114487e+43 4.0617084e+43)
(-1.638657e+45 1.1932895e+44 -1.4681093e+44)
(-1.5821992e+45 1.7135499e+44 -1.3086728e+44)
(-1.231005e+45 3.3452529e+43 -2.017678e+44)
(-8.6376267e+44 1.4639535e+44 -3.7654543e+43)
(-9.9622155e+44 1.0051746e+44 -1.0878448e+43)
(-8.1179663e+44 1.6578524e+44 -1.8080942e+44)
(-5.9104023e+44 2.057672e+44 -1.7958993e+44)
(-9.2912125e+44 2.455494e+44 7.1539314e+43)
(-1.2674522e+45 1.5497593e+44 5.7665875e+43)
(-1.5085794e+45 9.7389503e+43 -1.9527842e+43)
(-1.6086943e+45 4.8845974e+43 4.0253362e+43)
(-1.6592414e+45 1.8017816e+44 -7.4736375e+41)
(-8.6259047e+44 9.735029e+43 8.1059382e+43)
(-1.1556741e+45 1.8137711e+44 -1.2715002e+44)
(-1.3792764e+45 1.2367685e+44 -2.4008006e+43)
(-8.9622437e+44 8.535594e+43 -3.5014791e+43)
(-9.5689539e+44 1.0435691e+44 -8.2264833e+42)
(-9.4517151e+44 1.2152798e+44 -6.2304482e+43)
(-9.6365738e+44 6.1519877e+43 -6.0100376e+43)
(-1.0385962e+45 9.79704e+43 -5.1744645e+43)
(-1.3659758e+45 1.4063544e+44 5.1453725e+43)
(-1.0413798e+45 1.2078832e+44 -1.8288307e+43)
(-1.345196e+45 6.9351301e+43 -3.3108544e+44)
(-1.4447688e+45 1.4135145e+44 -2.4574887e+44)
(-1.5058081e+45 1.1810829e+44 4.4884957e+43)
(-1.057064e+45 5.526096e+43 -1.3721246e+44)
(-1.0333407e+45 1.8510256e+44 -1.9161647e+44)
(-1.0027674e+45 1.6670715e+44 -4.3464242e+43)
(-1.3021234e+45 2.1783706e+44 1.8564643e+44)
(-1.3867931e+45 4.1739975e+43 -2.9783082e+44)
(-5.5904213e+44 -2.0696212e+43 -1.6550223e+44)
(-1.3357701e+45 2.8138885e+44 -4.5912192e+44)
(-3.9116344e+44 -2.4811994e+44 -7.7668589e+43)
(-9.2526517e+44 2.2007575e+44 -5.5158883e+44)
(-7.8819327e+44 1.3832931e+44 -3.3713066e+43)
(-8.8682184e+44 5.4390559e+43 -6.6669724e+42)
(-7.1991384e+44 1.1017173e+44 -1.7517295e+44)
(-4.9563134e+44 1.3490893e+44 -2.1601052e+44)
(-6.785458e+44 1.8002994e+44 1.1929495e+43)
(-1.1918485e+45 1.787896e+44 -3.5375477e+43)
(-1.4307718e+45 4.2664553e+44 9.6400295e+42)
(-1.3537595e+45 -5.4016725e+43 2.7220738e+44)
(-1.6428634e+45 1.3665711e+44 6.7714695e+43)
(-8.4737332e+44 1.3328259e+44 3.6894533e+43)
(-1.5771376e+45 3.0561845e+43 2.0099421e+44)
(-1.3174752e+45 1.2810686e+44 4.9221731e+43)
(-2.9703355e+44 1.398079e+44 -1.9580537e+44)
(-2.2162253e+45 3.8450155e+42 1.6407167e+44)
(-1.374629e+45 -3.7452649e+43 9.8098817e+43)
(-9.3871111e+44 2.2570769e+44 -1.1888779e+44)
(-1.6688464e+45 -5.5178486e+43 -2.5886851e+43)
(-1.7244131e+45 1.6438298e+44 1.8035308e+44)
(-1.8523231e+45 3.7583137e+43 2.863744e+42)
(-7.7638037e+44 5.6545566e+43 -1.8569917e+43)
(-4.339392e+44 2.010032e+43 -2.2683402e+44)
(-1.3415491e+45 8.3315773e+43 -4.2161537e+43)
(-9.2196649e+44 7.7940311e+43 -4.4125337e+43)
(-9.6069676e+44 9.7250146e+43 -7.7168354e+42)
(-9.769137e+44 1.2853769e+44 -5.0811554e+43)
(-9.8510891e+44 1.1831781e+44 -5.5272493e+43)
(-8.0121971e+44 1.0174305e+44 -9.7141568e+42)
(-8.4803018e+44 1.1310686e+44 -1.3454325e+43)
(-8.3099456e+44 1.2507377e+44 -2.5020883e+43)
(-8.1103996e+44 7.9767951e+43 -1.1115854e+43)
(-1.0803829e+45 1.2836247e+44 -1.70516e+43)
(-1.6501071e+45 1.398137e+43 -9.561422e+43)
(-1.0020876e+45 1.1403904e+44 5.1707872e+42)
(-9.9912597e+44 8.490571e+43 -1.9514995e+43)
(-1.5394331e+45 2.6444225e+42 -2.6366735e+44)
(-1.3773317e+45 -2.0834919e+44 -3.6692874e+44)
(-1.4353357e+45 1.3476378e+44 -1.9347225e+44)
(-7.3773995e+44 4.7317298e+43 -1.8915818e+44)
(-8.5701357e+44 7.2089911e+43 -9.8078709e+43)
(4.888396e+44 2.7167082e+44 4.9035805e+44)
(-1.0071473e+45 1.4608387e+44 3.2008666e+43)
(-1.2404481e+45 1.2555299e+44 -1.379957e+44)
(-1.6039908e+45 6.7723824e+42 -5.0872949e+44)
(-1.1573244e+45 3.0795062e+44 -3.2851963e+44)
(-1.6090573e+45 1.548823e+44 -5.0624164e+44)
(-7.5005293e+44 2.9312113e+44 1.1467511e+44)
(-9.972388e+44 1.5588114e+44 -7.5554697e+43)
(-7.7348366e+44 2.3842654e+44 -1.0980866e+44)
(-8.8356853e+44 1.9450529e+44 -5.2061252e+42)
(-6.8261633e+44 3.976886e+44 2.5095807e+44)
(-9.7907907e+44 9.270764e+43 -2.7056929e+44)
(-1.458853e+45 3.3587298e+44 -2.285556e+44)
(-3.3926089e+44 4.3847092e+44 -3.8797703e+44)
(-1.179491e+45 2.3074677e+44 -6.5277981e+44)
(-3.1195773e+44 9.4893487e+43 -5.2512356e+44)
(-5.2533658e+42 7.5895465e+44 -3.0641428e+44)
(-7.003138e+44 1.3473413e+44 -7.4921762e+44)
(-8.4149087e+44 1.5682495e+44 -2.9925227e+43)
(-9.4976592e+44 9.4272507e+43 -1.9497961e+43)
(-7.084897e+44 1.1097715e+44 -1.5767168e+44)
(-5.4313017e+44 1.5009996e+44 -2.0486843e+44)
(-1.2078914e+45 1.4794476e+44 -5.0606022e+43)
(-8.1581263e+44 1.506086e+44 4.284462e+43)
(-4.7621836e+44 8.8942867e+43 3.4174824e+43)
(-2.1442381e+44 1.1080775e+44 2.1022953e+44)
(-2.5713223e+44 -3.5153428e+43 1.4776807e+44)
(-5.4148025e+44 8.6155423e+43 -3.6638689e+43)
(-1.1680505e+45 9.8077641e+43 1.2012465e+44)
(-1.2494193e+45 1.0792623e+44 2.8391951e+44)
(-1.2721396e+45 2.3707438e+44 8.9284519e+43)
(-1.054549e+45 7.2838235e+43 3.3675156e+44)
(-1.2605355e+45 1.2823739e+44 -2.2804378e+43)
(-1.8882636e+45 3.2090948e+44 1.4322896e+44)
(-1.6970239e+45 -2.0506426e+44 2.4450368e+44)
(-1.23519e+45 -1.6499303e+44 2.1889043e+44)
(-2.5942301e+45 3.0839295e+44 1.2313207e+44)
(-1.9097302e+45 -8.378699e+43 1.2839016e+44)
(-1.5377274e+45 7.650447e+43 1.5028778e+44)
(-1.9764547e+45 -9.8938894e+43 2.7530589e+44)
(-6.2555724e+44 -1.3879717e+43 -1.0184173e+43)
(-7.029915e+44 -3.251376e+43 2.8536262e+44)
(-1.3440012e+45 8.4109834e+43 3.391846e+43)
(-2.9253118e+44 -3.9478626e+43 -1.6389075e+44)
(-6.9791688e+44 2.3469024e+44 -1.5664871e+44)
(-2.1492734e+45 2.5180991e+44 8.300541e+43)
(-2.982169e+44 -7.8535917e+43 -1.7992283e+43)
(-1.7407084e+45 1.3860265e+44 -2.4538692e+44)
(-7.3066864e+44 2.1693834e+44 1.7836079e+44)
(-1.7894945e+45 -6.874113e+43 -5.2743932e+43)
(-1.3548301e+45 -5.2352028e+43 2.6223223e+43)
(-1.8464017e+45 -2.0702338e+44 9.0920589e+43)
(-8.8491776e+44 1.4508941e+44 9.170988e+42)
(-1.2049789e+45 1.0226404e+44 -1.1915748e+44)
(-1.109127e+45 6.9916556e+43 -2.888677e+44)
(-6.7424695e+44 -1.4689077e+44 -1.8746218e+44)
(-1.3120498e+45 8.1638989e+43 -5.3490763e+43)
(-9.4295892e+44 7.7603131e+43 -5.4337146e+43)
(-1.0130162e+45 9.1523366e+43 -6.3877349e+43)
(-9.558761e+44 7.2599755e+43 -4.4253709e+43)
(-9.4906105e+44 7.4282116e+43 -3.3049371e+43)
(-9.2851753e+44 1.1597294e+44 -1.7088228e+43)
(-8.3374078e+44 9.3930136e+43 -1.8889548e+43)
(-8.3744978e+44 1.3188479e+44 -2.9620603e+43)
(-9.595499e+44 1.3491595e+44 -7.856029e+42)
(-9.5970906e+44 1.2444724e+44 -1.8570609e+43)
(-9.4120121e+44 1.3202115e+44 -2.1575223e+43)
(-9.1655053e+44 1.5389924e+44 -2.460375e+43)
(-9.1213921e+44 9.884068e+43 -1.9150032e+43)
(-1.1374962e+45 1.1293392e+44 7.701588e+42)
(-1.2110962e+45 5.3639409e+43 -1.6603236e+44)
(-1.4349666e+45 2.2315954e+44 -1.7238958e+44)
(-9.4987766e+44 1.2393527e+44 -2.2476234e+43)
(-1.0269148e+45 1.330339e+44 -4.7096283e+43)
(-8.8191856e+44 1.8794165e+44 -1.6755072e+44)
(-8.2840548e+44 1.1868691e+44 -1.8079461e+44)
(-1.2272266e+45 6.4188369e+42 -1.6074819e+44)
(-1.2247535e+45 1.3711556e+44 -1.5916402e+44)
(-7.2545241e+43 -1.6593625e+44 -2.3269639e+44)
(-9.8641794e+44 9.9244901e+43 -3.4227503e+42)
(-8.9682358e+44 9.9763496e+43 -5.0700322e+43)
(-1.7435424e+45 -3.3000756e+43 -2.0927701e+44)
(-1.1312021e+45 4.264106e+43 -3.0925255e+44)
(-1.3477278e+45 -4.8293198e+44 -6.8186079e+44)
(-6.0390437e+44 3.300803e+44 2.1664103e+43)
(-1.1494286e+45 7.9319754e+43 -4.066675e+44)
(-9.3461255e+44 9.2918002e+43 -1.5834332e+44)
(-9.8869594e+44 1.5068934e+44 -8.4243965e+43)
(-3.205883e+44 -4.7051224e+43 5.5423861e+44)
(-9.4941219e+44 1.6245364e+44 5.6049614e+42)
(-8.9399795e+44 5.775849e+42 -6.9885519e+44)
(-1.0220404e+45 -1.3766056e+44 2.7720624e+44)
(-1.290252e+45 1.1151714e+44 -6.5429051e+44)
(-1.577725e+45 7.8963755e+43 -6.1483365e+44)
(4.717282e+44 1.4761083e+44 2.4799172e+42)
(-1.2613013e+45 2.2675235e+44 -5.5193033e+44)
(-1.2734211e+45 4.1527507e+44 -5.525045e+44)
(-8.116856e+44 1.6473861e+44 -7.4451948e+43)
(-7.6996548e+44 2.3312049e+44 -1.1553381e+44)
(-1.0058473e+45 2.4273108e+44 -1.7385947e+43)
(-8.3843374e+44 3.3576426e+44 5.2337523e+44)
(-1.027942e+45 9.323714e+43 -3.2237418e+44)
(-1.5949552e+45 2.3305538e+44 -1.5474125e+44)
(-1.272212e+45 4.3850509e+44 -1.4514049e+44)
(-1.0785271e+45 1.6302616e+44 -4.1855594e+44)
(-1.1454433e+45 1.8657735e+44 -5.6853795e+44)
(1.7707742e+44 -6.9582756e+43 2.9204753e+44)
(-7.8182632e+44 1.5342461e+44 -5.7547792e+44)
(-2.6860125e+44 1.5840574e+45 4.3878954e+42)
(-7.7069777e+44 1.7077196e+44 -6.5455732e+44)
(-9.1802174e+44 1.8531782e+44 -2.7478123e+43)
(-9.6812653e+44 1.0807296e+44 -2.2770963e+43)
(-7.8514035e+44 4.9096656e+43 -1.4209169e+44)
(-6.3271813e+44 1.2911444e+44 -1.9720849e+44)
(-7.9475142e+44 1.558351e+44 -5.2018618e+44)
(-1.3162055e+45 1.6174471e+44 -5.0158625e+43)
(-6.7208898e+44 4.5986887e+43 3.4678858e+43)
(-7.6317958e+44 5.407386e+43 1.7357418e+42)
(-6.2943474e+44 6.3114062e+43 8.8561533e+43)
(-7.227595e+44 2.5371738e+43 1.2040699e+43)
(-8.4335086e+44 3.6731674e+43 2.1685205e+43)
(-6.7334685e+44 1.6695069e+44 -5.8840884e+43)
(-6.3798298e+44 1.4136827e+44 1.1309563e+44)
(-4.5707454e+43 7.8490353e+43 1.0694197e+44)
(-3.4408594e+44 1.5902913e+44 -2.9164972e+43)
(-1.1806441e+45 -1.7126841e+44 3.5296221e+44)
(-2.0485142e+45 1.5871721e+43 2.2404174e+44)
(-1.3378511e+45 1.0752778e+44 3.8394904e+44)
(-1.5457655e+45 2.9607118e+43 1.8397181e+44)
(-8.6012854e+44 7.8420248e+43 8.6344916e+43)
(-7.2130509e+44 4.075684e+43 1.6425682e+44)
(-3.6357619e+44 2.8218333e+43 3.9365886e+44)
(-5.3548936e+44 -6.036651e+43 8.1824616e+43)
(-8.5857877e+44 -7.8649329e+43 3.4757072e+44)
(-8.4401491e+44 1.1650035e+43 3.1996265e+43)
(-8.3574607e+44 3.310874e+44 2.1059001e+44)
(-9.8950501e+44 1.744382e+43 6.7047866e+44)
(-5.8099421e+44 -8.8510895e+43 6.3725703e+43)
(-1.2072705e+45 -2.4166443e+44 7.5595294e+44)
(-1.2750091e+45 6.4306958e+43 -1.589639e+43)
(-1.4541419e+45 -9.2037468e+44 8.7451416e+43)
(-1.1404859e+45 -7.0564876e+43 4.1185253e+44)
(-6.9519602e+44 -1.8439624e+44 2.9293827e+44)
(-9.7249401e+44 -1.9104083e+43 4.0076171e+44)
(-2.2097347e+45 2.4399041e+44 -7.4784829e+43)
(-3.6602599e+44 3.2708518e+44 2.1388258e+44)
(-1.7841266e+45 -3.43536e+43 5.7837485e+43)
(-9.226409e+44 -5.4441679e+44 5.7380095e+44)
(-1.4038061e+45 -6.8094449e+43 1.4141761e+44)
(-6.2310821e+44 -3.9070789e+43 -1.8590018e+43)
(-1.7958974e+45 -1.6725737e+44 2.1316233e+44)
(-1.6113989e+45 -2.167237e+44 1.1534596e+44)
(-9.5927385e+44 1.3815043e+44 8.2643274e+43)
(-1.3141842e+45 7.8687005e+43 3.8094862e+43)
(-3.2534333e+44 4.33843e+43 -6.5261232e+43)
(-3.8877504e+44 1.7883275e+44 -2.2777593e+44)
(-2.1669321e+45 2.2609763e+44 1.4601636e+44)
(-1.0701022e+45 -7.6290914e+43 1.4760473e+44)
(-1.7909116e+45 -6.2297079e+43 -2.8270588e+44)
(-3.16206e+44 -2.875264e+44 -3.6877826e+44)
(-2.4973087e+45 1.7730252e+44 2.3166107e+44)
(-6.8739911e+44 -4.0189412e+44 -7.1403227e+42)
(-1.8269089e+45 -9.7915479e+42 3.7607452e+44)
(-1.0471228e+45 8.4529391e+43 1.7070303e+43)
(-1.0063342e+45 3.2141255e+44 -2.6249361e+44)
(-1.169978e+45 2.9046795e+44 -1.6810558e+44)
(-1.4824537e+45 1.810819e+44 -1.0863326e+44)
(-1.3307522e+45 2.4554828e+44 -2.7146547e+44)
(2.1158577e+44 7.7359186e+43 -2.5567628e+44)
(-2.8342299e+44 5.9517685e+43 -5.1430099e+44)
(-6.9529589e+44 7.8906271e+43 -2.2835167e+44)
(-1.3346473e+45 5.3799685e+43 4.5051969e+43)
(-1.3223315e+45 5.949196e+43 -3.723528e+43)
(-9.7257363e+44 8.1283001e+43 -5.0810248e+43)
(-1.0422899e+45 1.0445436e+44 -8.6187476e+43)
(-9.6612993e+44 8.1515559e+43 -5.7125453e+43)
(-9.6804229e+44 6.8228409e+43 -3.5875557e+43)
(-8.6894191e+44 9.4315122e+43 -2.852109e+43)
(-8.9109248e+44 1.0354397e+44 -3.1482975e+43)
(-9.6278944e+44 8.3503686e+43 -9.4977524e+42)
(-9.5040895e+44 7.9052305e+43 -1.9103445e+43)
(-1.0193498e+45 1.2458269e+44 -1.8865938e+43)
(-9.4686713e+44 1.2539809e+44 -2.3122812e+43)
(-9.8990543e+44 1.7209767e+44 -2.1924241e+43)
(-1.0289327e+45 1.3590263e+44 -8.2016084e+42)
(-9.7556928e+44 1.3870568e+44 -1.6917778e+43)
(-9.8450325e+44 1.4045567e+44 -1.8337947e+43)
(-9.8661903e+44 1.7303719e+44 -1.9384535e+43)
(-9.6605718e+44 1.3178574e+44 -1.9130213e+43)
(-9.9571993e+44 1.0959685e+44 -7.3122088e+43)
(-1.6435413e+45 6.9843401e+43 -9.5863901e+43)
(-1.6423405e+45 1.1383583e+44 -5.7370088e+43)
(-1.3990527e+45 4.3428928e+43 -2.0310572e+44)
(-1.3763664e+45 3.2415608e+44 -2.6728359e+44)
(-9.7907543e+44 1.5088133e+44 2.0032259e+43)
(-1.0070397e+45 1.5302497e+44 3.0151954e+43)
(-8.1256954e+44 2.266735e+44 -4.9160335e+43)
(-7.521513e+44 1.2476186e+44 -8.1361788e+43)
(-8.9346793e+44 -1.3791396e+44 -1.898144e+44)
(-1.1148838e+45 6.4014457e+42 -4.9244767e+44)
(-9.5592542e+44 6.9675665e+43 -4.3990763e+43)
(-1.0485103e+45 1.4101412e+44 -3.0923214e+43)
(-9.4529909e+44 1.8264222e+44 -1.5057417e+44)
(-1.0431478e+45 3.2338118e+43 -4.2054518e+44)
(-9.7343344e+44 1.215884e+44 -1.7209864e+44)
(-9.2404352e+44 5.0205258e+43 -3.7429247e+44)
(-7.1403917e+44 -7.5895515e+42 -3.3117744e+44)
(-6.5023943e+44 3.4225646e+43 -1.9813936e+44)
(-2.4049277e+45 -5.0014009e+44 -4.0959821e+44)
(-9.8351077e+44 1.1126073e+44 2.1489581e+42)
(-9.632714e+44 8.8238935e+43 -1.4634602e+43)
(-8.984661e+44 -6.0978648e+43 -3.9308109e+41)
(-2.2129828e+45 2.3550375e+44 -3.0431349e+44)
(-1.4523794e+45 1.1785087e+44 -6.4285667e+44)
(-1.3376354e+45 -5.8834882e+44 -4.6828234e+44)
(-5.7849161e+44 3.6241928e+44 -3.0323649e+44)
(-3.6190817e+44 2.6338236e+44 -4.1091462e+44)
(-1.2599189e+45 3.2426913e+43 -5.5464574e+44)
(-7.4601699e+44 8.0975159e+43 -1.0721172e+44)
(-8.4209703e+44 1.5745068e+44 -6.0488781e+43)
(-7.835666e+44 -7.3060087e+43 5.31407e+44)
(-1.0074078e+45 1.7977718e+44 -4.9760067e+42)
(-1.356343e+44 -1.0291758e+44 -7.1886101e+44)
(-1.3265871e+45 -6.0685534e+43 -7.8231095e+44)
(-1.0818429e+45 -1.0745038e+44 6.0917246e+44)
(-1.1235656e+45 4.3755885e+43 -5.8175875e+44)
(-6.4195233e+44 3.0400799e+43 -3.4030559e+44)
(-1.8747883e+45 4.1214281e+43 -3.9730589e+43)
(-4.8767852e+44 1.3623065e+44 1.1088504e+44)
(-9.9506654e+44 2.0334207e+44 -6.0287615e+44)
(-1.4582009e+45 6.1871892e+44 -7.274503e+44)
(-8.6403505e+44 1.8067356e+44 -5.9773999e+43)
(-8.4631523e+44 2.3006481e+44 -1.0085785e+44)
(-1.0323336e+45 2.4431347e+44 -2.0140373e+43)
(-1.5076014e+45 5.254656e+44 -5.5526103e+43)
(-8.9064917e+44 -1.8654718e+44 9.7474301e+43)
(-1.8000866e+45 1.3118899e+44 -4.5136668e+44)
(-1.2906308e+45 1.4578494e+44 -5.0644176e+44)
(-5.6170489e+43 -1.3989258e+44 4.2746499e+44)
(-5.8534821e+44 4.8496607e+44 -2.2604636e+44)
(-1.8018357e+45 1.3124081e+44 -5.5378283e+44)
(-8.2325887e+44 1.5168551e+44 -6.1133373e+44)
(-1.0301653e+45 2.881999e+44 -5.1787159e+44)
(-7.5603842e+44 1.3757114e+44 -8.5160061e+43)
(-4.8071699e+44 2.5449937e+44 -3.9487565e+44)
(-1.1815038e+45 1.1185932e+44 -1.1747748e+44)
(-1.3224239e+45 1.120946e+44 -3.438663e+42)
(-7.5563096e+44 1.4619086e+44 -1.6369104e+43)
(-6.7315844e+44 1.9415756e+44 2.3489614e+43)
(-4.6907602e+44 1.5471594e+44 2.1519182e+43)
(-6.4323732e+44 1.2732186e+44 -3.0263826e+43)
(-8.7968958e+44 4.2106187e+43 6.5953286e+43)
(-8.161466e+44 7.765493e+43 4.5050998e+43)
(-7.5991961e+44 7.9748187e+43 7.7840398e+43)
(-8.3720584e+44 5.2183647e+43 4.3298871e+43)
(-9.1728948e+44 -1.2630931e+43 3.8065068e+43)
(-9.1100907e+44 7.5839349e+43 -8.4167563e+43)
(-6.3255707e+44 -1.0910939e+44 -1.4676956e+43)
(-7.2368371e+44 -4.2287798e+43 1.6113954e+43)
(-7.7876115e+44 1.3743004e+44 -5.509528e+43)
(-1.7001e+45 -8.5635043e+43 5.2810399e+44)
(-1.6740876e+45 -1.3593424e+44 3.9012175e+44)
(-1.7745803e+45 1.4515582e+43 2.9167397e+44)
(-1.7599899e+45 -7.2568234e+43 2.0377645e+44)
(-8.5038404e+44 1.5803014e+44 2.0689949e+43)
(-7.1895837e+44 1.4904365e+44 1.2863503e+44)
(-1.1779815e+45 1.6184889e+44 3.5181765e+44)
(-5.5435187e+44 2.1217793e+44 1.3855655e+44)
(-4.1181484e+44 1.1381864e+44 2.3749066e+44)
(-7.7942572e+44 1.9049044e+44 3.5798303e+43)
(-8.7565731e+44 -2.2978232e+44 4.752715e+44)
(-7.4256677e+44 -2.6853444e+44 1.5145485e+44)
(-1.2042412e+45 1.0403649e+44 3.5910099e+44)
(-5.8893641e+44 1.9248666e+44 3.753216e+43)
(-8.1732798e+44 1.3134482e+44 3.5986115e+43)
(-8.7279492e+44 5.0156662e+43 4.721668e+44)
(-5.9181722e+44 5.9580892e+43 1.4626362e+44)
(1.8018036e+44 -6.9034526e+43 4.9135953e+44)
(-5.9110604e+44 4.2346022e+43 1.0529629e+44)
(-8.6881553e+44 -4.053127e+43 5.8283858e+44)
(4.9405204e+44 -1.4043337e+44 1.862667e+44)
(-8.9713137e+44 3.572343e+43 2.4619516e+43)
(-4.8804148e+44 5.1893231e+43 -2.0975786e+44)
(-1.0253907e+45 -2.0948252e+44 8.1833084e+44)
(1.6190712e+44 -4.0760384e+44 -1.6071467e+44)
(-4.7710344e+44 -3.5866948e+44 1.1728693e+45)
(-1.289992e+45 5.3392012e+43 7.7678613e+42)
(-1.8021057e+45 -7.0799177e+44 2.9332512e+42)
(-2.3424664e+44 1.3694187e+44 7.1831832e+44)
(-1.0117451e+45 -7.2917419e+43 1.6680477e+44)
(-2.3375082e+45 7.7141779e+44 3.811422e+44)
(-2.3891551e+45 1.9068735e+44 -3.1369368e+44)
(-1.3491867e+45 -9.8148228e+43 8.0829713e+43)
(-4.7449839e+44 5.0173949e+44 3.6590062e+44)
(-8.9917642e+44 -1.1173887e+44 1.2032438e+44)
(-1.7715553e+45 -3.5471601e+44 2.9595246e+44)
(-9.0745765e+44 -6.2252957e+42 -4.5998521e+43)
(-1.3994442e+45 7.7289052e+43 -1.1111265e+43)
(-1.7680024e+45 8.2509705e+43 -1.213886e+44)
(-1.4446828e+45 2.1793606e+44 4.6042469e+42)
(-1.2022992e+45 1.1162971e+44 1.9064158e+44)
(-5.7112146e+44 2.1462697e+44 9.3618168e+43)
(1.424419e+44 -3.1287564e+44 1.7280591e+44)
(-8.9337057e+44 2.0173451e+44 1.888401e+44)
(-1.2861812e+45 1.2746579e+43 3.2267445e+43)
(-5.0470991e+44 2.3128138e+44 -1.3247553e+44)
(-1.0973953e+45 -1.0267091e+44 2.1593518e+44)
(-1.199463e+45 -3.7264426e+44 -1.6964735e+44)
(-2.5743429e+45 1.3015277e+44 3.7189799e+44)
(-7.2209308e+44 -4.3126886e+44 -1.6765846e+43)
(-2.2126498e+45 7.8734977e+43 4.1099676e+44)
(-4.6889576e+44 5.3011138e+43 -7.167504e+43)
(-1.5216306e+45 7.927573e+43 9.6846095e+43)
(-1.9037598e+45 -2.5347343e+43 -2.1321547e+44)
(-1.4059669e+45 2.3849349e+44 -2.9555731e+44)
(-1.9139703e+45 5.6398175e+43 -1.3199785e+44)
(-4.6638904e+44 2.5477005e+44 -3.5701956e+44)
(-1.4187228e+45 1.3477803e+44 2.2297344e+44)
(-1.3048514e+45 1.3074937e+44 3.7982233e+43)
(-1.0431038e+45 2.9758728e+43 -2.163217e+44)
(6.9130059e+43 5.2425064e+44 -7.5537379e+44)
(-5.1347637e+44 1.2158505e+44 -5.6203827e+44)
(-1.339318e+45 3.5104539e+43 3.8315708e+43)
(-9.7927725e+44 4.2611702e+43 -8.3388798e+42)
(-9.9139172e+44 5.5662482e+43 4.780934e+42)
(-9.3798925e+44 6.5555374e+43 -2.8536202e+43)
(-9.3260665e+44 6.5951505e+43 -3.6514206e+43)
(-1.2918732e+45 5.7494987e+43 -9.3614837e+43)
(-9.5150825e+44 7.8653913e+43 -3.8920709e+43)
(-1.0116662e+45 1.2514043e+44 -5.823646e+43)
(-9.502275e+44 9.694133e+43 -3.4345549e+43)
(-9.5629033e+44 6.88418e+43 -1.6806227e+43)
(-9.7979819e+44 7.4727774e+43 -3.7692099e+43)
(-1.0097873e+45 7.8056211e+43 -5.0247922e+43)
(-9.5593796e+44 8.570991e+43 -5.2625242e+43)
(-9.0563814e+44 8.9854594e+43 -3.9117804e+43)
(-1.0163481e+45 7.6667144e+43 -2.5568146e+43)
(-1.0343612e+45 8.7744875e+43 -1.8848102e+43)
(-1.0341186e+45 9.0567905e+43 -8.3714839e+42)
(-1.0180277e+45 8.9146577e+43 -1.6451904e+43)
(-1.0478417e+45 1.136697e+44 -1.4544109e+43)
(-1.0010741e+45 1.2677326e+44 -2.0354539e+43)
(-1.0427197e+45 1.7130462e+44 -2.0109971e+43)
(-1.0973224e+45 1.3832738e+44 -9.7263083e+42)
(-1.2539801e+45 -6.6418054e+42 -5.9464823e+43)
(-1.7088195e+45 2.663735e+44 -4.4153598e+44)
(-1.4634834e+45 1.41844e+44 -1.6785582e+44)
(-1.0309773e+45 1.6335727e+44 1.9573538e+43)
(-1.012917e+45 7.9598396e+43 1.8841605e+43)
(-1.7941519e+45 1.5340149e+44 -2.5937305e+44)
(-2.0148497e+45 2.0653141e+44 -3.5214697e+44)
(-9.5601045e+44 1.4317722e+44 -7.176322e+43)
(-8.3498776e+44 2.2062839e+44 -4.3403436e+43)
(-8.8963081e+44 2.6623906e+44 9.1896336e+43)
(-1.8864906e+45 1.3426678e+44 9.9721662e+42)
(-8.7602086e+44 9.0222404e+43 -2.9649517e+44)
(-1.0748752e+45 1.0559742e+44 -3.092504e+44)
(-7.6793233e+44 2.3242599e+44 -9.5474725e+43)
(-7.6919034e+44 1.6434063e+44 -3.6103115e+44)
(-9.2192193e+44 1.0988462e+44 -1.1575426e+43)
(-9.4511542e+44 1.4427052e+44 -1.1772568e+43)
(-7.2692616e+44 1.228662e+44 -8.1599778e+43)
(-7.3576138e+44 9.6224137e+43 -1.1367548e+44)
(-6.0940346e+44 -3.4080511e+44 -1.2338779e+44)
(-1.0949975e+45 -2.2057999e+44 -2.2629953e+44)
(-1.033439e+45 8.3220049e+43 -1.7528013e+43)
(-1.1272733e+45 1.0119169e+44 -2.0239824e+43)
(-1.2822351e+45 3.2799611e+42 -5.6870309e+44)
(-9.9562623e+44 1.5340648e+44 -1.1472041e+44)
(-6.1644859e+44 -1.84176e+44 -5.5947533e+44)
(-1.0289655e+45 1.1915372e+44 -5.4333984e+44)
(-8.764654e+44 9.9927076e+43 -9.1601211e+43)
(-5.2986596e+44 -2.1141296e+44 -6.232214e+44)
(-2.3403721e+44 1.2190503e+44 -5.3228141e+44)
(-9.2759208e+44 1.8430533e+44 -2.7325665e+44)
(-2.2829543e+45 -7.2665372e+44 -4.0844108e+44)
(-1.0038526e+45 1.0064402e+44 -6.1452764e+42)
(-9.6414919e+44 5.7296349e+43 -2.2238383e+43)
(-3.7117354e+44 -1.4234767e+44 1.1600893e+44)
(-1.1294645e+45 6.6047726e+43 -5.8406426e+44)
(-2.5715278e+45 3.7605381e+44 -2.0249311e+44)
(-1.226704e+45 1.6920861e+44 -5.8341701e+44)
(-1.3430064e+45 -4.2447349e+44 -2.6873111e+44)
(-7.1639645e+44 4.8029367e+44 -4.743345e+44)
(-3.0220997e+44 1.5945683e+44 -1.6363049e+44)
(-1.0749692e+45 -9.9548224e+43 -7.0520507e+44)
(-9.9693276e+44 8.8583737e+43 -5.1307497e+44)
(-8.2487437e+44 5.7461746e+43 -9.2360347e+43)
(-8.4408213e+44 1.3505466e+44 -5.1030006e+43)
(-4.1967683e+44 -1.4868859e+44 -5.0732665e+44)
(-1.6482128e+45 -8.7370758e+43 4.6498695e+43)
(-2.1859818e+45 -4.1410505e+43 -5.2883863e+44)
(-1.1040818e+45 2.3742741e+43 -5.2510794e+44)
(-1.4330122e+45 3.587894e+43 -6.3519639e+44)
(-2.9936288e+44 -1.1051702e+44 6.8384503e+43)
(-2.1589068e+45 5.3273037e+43 2.6818259e+43)
(-1.0661767e+45 1.9219512e+44 -5.8908228e+44)
(-9.9435465e+44 -2.51102e+44 1.2529947e+44)
(-1.0521726e+45 1.7345026e+44 -2.5820472e+44)
(-1.5924574e+45 1.136622e+44 -5.4034826e+44)
(-8.4584995e+44 4.3470165e+44 -7.5334517e+43)
(-6.2093443e+44 3.6226155e+44 -1.7201155e+44)
(-1.3617467e+45 1.0125844e+44 -6.105117e+44)
(-5.4138979e+44 2.8691183e+44 -5.390723e+44)
(1.3006074e+43 3.1882431e+44 7.4564804e+43)
(-6.5608073e+44 -1.194398e+44 -5.2305591e+44)
(-1.1689464e+45 6.94133e+43 -9.8449617e+43)
(-7.4488835e+44 9.2378366e+43 -4.4774634e+43)
(-9.3005738e+44 6.1991007e+43 -6.9699595e+43)
(-7.8917981e+44 1.0167557e+44 -4.5640679e+43)
(-9.1319859e+44 7.805757e+43 -7.5226827e+43)
(-1.2991499e+45 6.5980536e+43 1.5950682e+43)
(-8.6274152e+44 1.2895887e+44 5.287475e+42)
(-8.9482502e+44 1.7420601e+44 4.8773101e+43)
(-7.9703375e+44 1.8317035e+44 4.3386262e+43)
(-8.0943051e+44 1.4830703e+44 -6.010355e+42)
(-8.4531445e+44 1.6086095e+44 4.3923411e+43)
(-8.7194351e+44 1.9530162e+44 4.1129641e+43)
(-7.8466556e+44 1.7627741e+44 5.8088483e+43)
(-8.4031137e+44 1.4655242e+44 4.9974381e+43)
(-9.442061e+44 6.1749615e+43 2.2497239e+43)
(-9.1165487e+44 8.7196228e+43 2.807683e+43)
(-9.3340893e+44 1.1177713e+44 3.2079133e+43)
(-9.191177e+44 7.4944748e+43 2.0558363e+43)
(-1.0705196e+45 -3.1715437e+43 -2.1966883e+43)
(-9.8388315e+44 5.6973856e+43 -2.8547991e+43)
(-9.4024253e+44 -6.0393469e+43 1.4114339e+44)
(-7.8693494e+44 -1.589545e+44 6.6775406e+43)
(-1.0206059e+45 4.449555e+43 -1.8720802e+43)
(-1.270292e+45 -1.6150583e+41 7.1300949e+43)
(-1.2740844e+45 -3.3038184e+43 3.5268121e+44)
(-1.5301852e+45 1.5122662e+43 3.0593038e+44)
(-1.5821432e+45 -2.4556275e+44 3.350174e+44)
(-1.095027e+45 1.0739331e+44 2.2249472e+43)
(-9.8082643e+44 -4.1452957e+41 4.540813e+43)
(-1.4309448e+45 -2.7443249e+44 1.7031297e+44)
(-7.7293331e+44 1.4497638e+44 -1.2446447e+43)
(-1.3650229e+45 -1.6252162e+44 2.9787221e+44)
(-1.0062683e+45 1.8571666e+44 -4.4740652e+42)
(-6.4030599e+44 -5.1320685e+43 8.8770984e+44)
(-7.6173158e+44 -3.0417581e+43 3.7893317e+44)
(-6.9097484e+44 1.2798926e+44 3.6127343e+44)
(-2.1802398e+44 -3.2071844e+44 4.0806606e+44)
(-9.5744847e+44 1.7652757e+44 2.7042299e+43)
(-9.9316275e+44 1.2186967e+44 4.7699748e+44)
(-8.6632578e+44 1.2470665e+44 9.2695746e+43)
(-1.007212e+45 2.7879875e+44 3.928448e+44)
(-4.9965524e+44 1.8318849e+44 1.289413e+44)
(-9.6165637e+44 2.874472e+44 5.0850669e+44)
(8.0848596e+43 -9.184522e+43 1.1519733e+44)
(-8.5167999e+44 2.092972e+44 3.3615486e+43)
(-8.107945e+44 -8.7163818e+43 6.8397198e+44)
(-2.6362665e+45 -9.7018779e+44 1.0032434e+44)
(-8.7407584e+44 -2.092024e+44 3.0352175e+44)
(-5.3906291e+44 3.0884879e+44 3.329003e+43)
(-8.6167484e+44 6.8513633e+43 3.3143556e+43)
(-6.2860999e+44 5.4167356e+43 4.8982526e+44)
(6.6856333e+43 -4.3746277e+43 5.852866e+44)
(-6.7439113e+44 4.1104481e+43 1.2904769e+44)
(1.6847014e+44 6.4552035e+43 3.6049023e+44)
(-8.4796727e+44 -2.3148576e+42 9.4942499e+43)
(-6.3322424e+44 -2.6957197e+43 6.0140797e+44)
(-8.1778078e+44 -1.0810311e+44 2.2490383e+44)
(-8.8102347e+44 -6.5499128e+44 2.7145836e+44)
(-9.5626892e+44 1.6957957e+42 2.153468e+43)
(-4.502244e+44 8.3581261e+43 -2.5772474e+44)
(-1.0128828e+45 -2.6817247e+44 6.6922423e+44)
(7.223792e+43 -2.7655087e+44 -2.1407285e+44)
(-7.9773416e+44 -3.7930246e+44 1.2083335e+45)
(-1.201513e+45 1.8176073e+43 -1.2497276e+43)
(-2.9745479e+44 1.6649164e+44 6.5326972e+44)
(-2.4394113e+45 5.9000493e+44 4.514464e+44)
(-2.2363747e+45 2.9571414e+44 2.0330144e+44)
(-6.8427983e+44 4.3671502e+44 2.7242776e+44)
(2.2258208e+44 -4.0790993e+44 -3.8905272e+44)
(-1.9951824e+45 -4.4967919e+44 3.605829e+44)
(-6.7173914e+44 -2.7553042e+43 -7.877044e+42)
(-1.3756374e+45 -6.5664453e+43 -2.4564799e+44)
(-1.4803698e+45 -6.438183e+43 -3.7913851e+43)
(-1.1020204e+45 4.919025e+43 2.6042267e+43)
(-1.5128591e+45 -7.8974358e+43 -1.4894744e+44)
(-8.6040458e+44 -1.0079464e+44 -2.1897804e+44)
(-7.3243384e+44 -2.5747515e+44 -1.6346557e+44)
(5.7142284e+44 4.7202999e+44 -9.1819566e+43)
(-2.6435959e+44 6.0028088e+43 -9.5450908e+42)
(-1.4890371e+45 1.0079814e+44 -3.8857661e+44)
(-3.2807853e+44 -3.5565099e+44 1.8980931e+43)
(-1.2018645e+45 5.1802029e+43 2.1070663e+43)
(-1.2041273e+45 -3.6267176e+44 -2.3091597e+44)
(-7.0722106e+44 -7.8699835e+44 8.0978536e+43)
(-8.45712e+44 7.0915567e+43 -1.7104567e+42)
(-6.5220078e+44 -1.1898823e+44 -1.5147373e+44)
(-1.0904329e+45 -2.729876e+44 -1.3916648e+44)
(-1.2860453e+45 -3.4580684e+43 -1.3287447e+44)
(-1.3298235e+45 2.4003656e+43 -2.476123e+44)
(-8.3019807e+44 2.601801e+44 3.128936e+44)
(-3.0981813e+45 -2.512313e+44 -4.8311223e+44)
(-1.2581073e+45 4.1837929e+44 -3.8634328e+44)
(-1.9480027e+45 1.8784797e+44 -1.2772202e+44)
(-4.4928633e+44 2.6940377e+44 -6.1977601e+43)
(-1.225924e+45 -1.1615218e+44 1.817901e+44)
(-5.3402103e+44 8.612238e+43 -4.3450051e+43)
(-1.430693e+45 7.6659667e+43 -8.2305842e+41)
(3.6963742e+43 3.668053e+44 -6.0665649e+44)
(-6.1338772e+44 8.0778543e+43 -3.9659973e+44)
(-1.4713109e+45 2.8074141e+43 9.3131966e+43)
(-1.3220481e+45 3.4267543e+43 2.1523519e+43)
(-9.7187871e+44 3.7867596e+43 -3.3053858e+42)
(-9.7138889e+44 2.729641e+43 -8.9437427e+42)
(-9.3878722e+44 5.3595077e+43 -2.6179954e+43)
(-9.2418711e+44 5.0813106e+43 -3.3405263e+43)
(-9.3984981e+44 4.7453868e+43 -1.815261e+43)
(-9.4118073e+44 6.098673e+43 -1.6071663e+43)
(-9.2106146e+44 7.6910644e+43 -2.9599471e+43)
(-9.5931034e+44 6.63543e+43 -3.0062229e+43)
(-1.3700036e+45 2.726064e+43 -5.2786883e+43)
(-9.3353754e+44 6.7286978e+43 -7.3359198e+43)
(-1.0007247e+45 8.224874e+43 -8.4901435e+43)
(-9.9688137e+44 1.0480037e+44 -7.8299963e+43)
(-9.2482679e+44 5.5357502e+43 -5.841156e+43)
(-9.0531209e+44 6.9941092e+43 -2.750932e+43)
(-9.2044782e+44 1.0973705e+44 -2.7180708e+43)
(-8.739596e+44 9.5887781e+43 -3.1275977e+43)
(-9.2314583e+44 6.512968e+43 -3.0738696e+43)
(-1.0596634e+45 4.7551126e+43 -3.3515692e+43)
(-1.12198e+45 7.6843695e+43 -3.3430407e+43)
(-1.0785057e+45 9.0637398e+43 -3.175727e+43)
(-1.0167819e+45 5.8420173e+43 -3.3755151e+43)
(-1.0630478e+45 6.5849993e+43 -2.208083e+43)
(-1.0896301e+45 6.7514153e+43 -1.9230162e+43)
(-1.087676e+45 8.4035181e+43 -9.33223e+42)
(-1.0417315e+45 7.8762866e+43 -1.2690328e+43)
(-1.0792849e+45 -1.5673051e+44 -8.6059151e+43)
(-1.9491078e+45 -1.9240626e+44 -3.1012289e+44)
(-1.0601858e+45 6.7974554e+43 2.2666865e+43)
(-9.7748653e+44 1.2889355e+43 1.6776988e+43)
(-1.6668317e+45 -7.2456687e+43 -3.4949915e+44)
(-1.680398e+45 4.7888017e+43 -4.4252594e+44)
(-2.0856589e+45 -9.1768965e+43 -3.1018345e+44)
(-9.1645231e+44 1.0351563e+44 -1.7343733e+44)
(-8.2853916e+44 -2.8553266e+43 -8.1593374e+43)
(-9.6947328e+44 3.2097757e+44 -2.7691647e+44)
(-1.0506763e+45 1.5558722e+44 -3.9866085e+44)
(-7.0840548e+44 2.8578829e+44 -8.2134289e+43)
(-1.0381811e+45 1.3043168e+44 -4.1027104e+43)
(-1.0288648e+45 1.2040004e+44 -9.0685892e+42)
(-1.5232924e+45 8.4332229e+43 -4.6440415e+44)
(-1.4950116e+45 1.0553419e+44 -2.8443566e+44)
(-1.0829799e+45 6.4258469e+43 -3.7855215e+44)
(-8.5878012e+44 1.2759966e+44 -8.7205916e+43)
(-1.046873e+45 1.5226086e+44 -1.0757805e+44)
(-9.0220866e+44 3.5353978e+44 2.8664975e+44)
(-1.2529976e+45 3.4790294e+44 3.4567734e+44)
(-1.0320172e+45 1.0558524e+44 -3.2000788e+44)
(-3.9783677e+44 -8.2337799e+43 -7.5947485e+44)
(-1.0534573e+45 9.690638e+43 -5.1956097e+44)
(-6.7573562e+44 1.5263048e+44 6.2922877e+44)
(-6.4169008e+44 6.9193662e+42 -2.7719811e+44)
(-8.3156816e+44 5.8854655e+43 -4.5561656e+44)
(-1.0303402e+45 8.6261543e+43 -2.4984049e+43)
(-9.9628317e+44 1.1726791e+44 -1.7572407e+43)
(-7.3648917e+44 1.1658381e+44 -6.1058597e+43)
(-8.1401581e+44 5.9257195e+43 -1.1348055e+44)
(-6.3812615e+44 -5.1038874e+44 1.12934e+43)
(-1.0540853e+45 -1.8975525e+44 2.5924816e+44)
(-9.9970529e+44 6.5449878e+43 -2.2492841e+43)