/*--------------------------------*- C++ -*----------------------------------*\
  =========                 |
  \\      /  F ield         | OpenFOAM: The Open Source CFD Toolbox
   \\    /   O peration     | Website:  https://openfoam.org
    \\  /    A nd           | Version:  7
     \\/     M anipulation  |
\*---------------------------------------------------------------------------*/
FoamFile
{
    version     2.0;
    format      ascii;
    class       volScalarField;
    location    "6000";
    object      k;
}
// * * * * * * * * * * * * * * * * * * * * * * * * * * * * * * * * * * * * * //

dimensions      [0 2 -2 0 0 0 0];

internalField   nonuniform List<scalar> 
33730
(
1.5206656
1.5234917
1.5174137
1.5190952
1.521286
1.5190594
1.5220027
1.5212418
1.5234651
1.5203711
1.520334
1.5244486
1.516977
1.5165478
1.5168075
1.5170948
1.5186158
1.5182592
1.519135
1.5179028
1.519377
1.518262
1.5179117
1.5193237
1.520827
1.5191079
1.5213714
1.5225991
1.5229115
1.5222131
1.5246018
1.5203689
1.5194224
1.5250041
1.5247036
1.5248231
1.5251189
1.5203035
1.5194733
1.5189365
1.5186456
1.5188787
1.518615
1.5220373
1.5224596
1.5163686
1.5167819
1.5171777
1.5169118
1.5177284
1.5163768
1.5166307
1.5165425
1.5162439
1.5180626
1.5163341
1.5167784
1.516167
1.516506
1.5168145
1.5165593
1.5162627
1.5170767
1.5213154
1.5184502
1.5189422
1.5175581
1.5179116
1.5182597
1.5184855
1.5173808
1.5180286
1.5173969
1.5180451
1.5179762
1.519946
1.5184685
1.5175944
1.518257
1.5174219
1.5174022
1.5180635
1.5180357
1.5209245
1.5204254
1.5213284
1.5205983
1.5207932
1.5216585
1.5216666
1.521595
1.5225013
1.5217725
1.522507
1.5217027
1.5225531
1.5221091
1.5257828
1.525567
1.5255174
1.5258237
1.5222189
1.5189397
1.5186625
1.5184741
1.5181528
1.5180917
1.5178926
1.5181581
1.5183493
1.5195283
1.5195909
1.5181213
1.5183515
1.5188351
1.5186313
1.5181883
1.5179209
1.518243
1.518483
1.5197293
1.5196454
1.5197292
1.5197038
1.5204808
1.5196669
1.5197436
1.519653
1.5182981
1.5180246
1.5178139
1.5178269
1.5182761
1.5206163
1.518022
1.5178209
1.5178507
1.5211053
1.5213145
1.5214164
1.5221104
1.5171424
1.5167098
1.5163058
1.5166525
1.5171047
1.5168229
1.5177005
1.5179894
1.5177688
1.5174027
1.5163221
1.5165683
1.5164661
1.5161966
1.5176395
1.5173288
1.5182853
1.5179115
1.5162596
1.5163424
1.5163738
1.5162247
1.5164076
1.5161979
1.5165925
1.5169584
1.5161559
1.5161542
1.5161333
1.516132
1.5161155
1.5161148
1.5164862
1.5164752
1.5166106
1.516883
1.5169031
1.5164814
1.5161548
1.5162032
1.5165239
1.5164874
1.5162597
1.5162239
1.5162265
1.5161816
1.5164161
1.5169173
1.5166857
1.5171688
1.5215816
1.5210977
1.5218884
1.5215074
1.5184251
1.5186024
1.5183158
1.5179318
1.5184731
1.517862
1.5191732
1.5185224
1.517192
1.5176689
1.5172409
1.5177023
1.5174336
1.5177436
1.518097
1.5179206
1.5170712
1.5170675
1.5175043
1.5175054
1.5170718
1.5175166
1.5170891
1.5175239
1.5193742
1.517858
1.5175226
1.5181497
1.5179837
1.5197921
1.5203141
1.519974
1.5172894
1.5177512
1.5172263
1.5177024
1.5171125
1.51709
1.5175437
1.5175549
1.5170898
1.517092
1.5175248
1.5175344
1.5200169
1.5199495
1.5206698
1.5206137
1.5201454
1.5200989
1.5208254
1.5207848
1.5213464
1.5209004
1.5202316
1.5205064
1.5210004
1.5217014
1.52151
1.5216488
1.5215598
1.521729
1.5205313
1.5204058
1.5208913
1.5209699
1.5219492
1.5213802
1.5214512
1.5210828
1.5211783
1.5221542
1.5217695
1.5212386
1.5211271
1.5211711
1.5210525
1.5222445
1.5211482
1.520398
1.5209001
1.5207279
1.5180897
1.5177869
1.5180545
1.5183056
1.5175905
1.5175738
1.5178317
1.5178499
1.5180084
1.5176916
1.5178262
1.5181034
1.5176024
1.5175068
1.5174903
1.51762
1.5176959
1.5177693
1.5174982
1.5175717
1.5181064
1.5173948
1.5174574
1.5174423
1.5173779
1.5179454
1.5174119
1.5174311
1.517543
1.5175262
1.5175468
1.5177721
1.5178862
1.5176712
1.51779
1.5176091
1.5179634
1.5182708
1.517631
1.5175186
1.5176119
1.5174959
1.5176478
1.5178922
1.5180026
1.5177796
1.5177613
1.5180139
1.5182449
1.5180265
1.5178577
1.5176097
1.5175854
1.5178384
1.5175204
1.5174238
1.5174073
1.5175391
1.5174541
1.5174367
1.5173788
1.5173939
1.5175573
1.5176392
1.5178794
1.517935
1.5179241
1.5176011
1.5177308
1.5180221
1.519098
1.5191665
1.5193932
1.5194367
1.5191173
1.5191543
1.519401
1.5194188
1.5191453
1.5191799
1.5194107
1.5194325
1.5192254
1.5194554
1.5192587
1.5197908
1.5194811
1.5196216
1.5199577
1.5196364
1.5197537
1.5199115
1.5191535
1.5192308
1.5194423
1.5191188
1.5192051
1.5194166
1.5194676
1.5191157
1.5191721
1.5194139
1.5194408
1.5180117
1.5177981
1.5175554
1.5175919
1.5173989
1.5173978
1.5174092
1.5174184
1.5180651
1.5178652
1.5198001
1.5202057
1.5176403
1.5175847
1.5174288
1.5174197
1.517449
1.5174347
1.5204577
1.5205245
1.5206663
1.5206164
1.5207312
1.5208612
1.5214814
1.521554
1.5215818
1.5180208
1.5185935
1.5170395
1.5166446
1.51626
1.5161967
1.516234
1.5166571
1.5170466
1.5167507
1.5165384
1.5168622
1.5176592
1.5179546
1.5177033
1.5173776
1.5162788
1.5163289
1.5162319
1.5165425
1.5164507
1.516162
1.5161358
1.5161383
1.5176482
1.5176496
1.5176054
1.5176199
1.5174251
1.5172798
1.5174609
1.5172407
1.5184459
1.5176584
1.5176062
1.5183815
1.5172217
1.5182767
1.517485
1.5179199
1.5163613
1.5162124
1.5164917
1.5162981
1.5163254
1.5164387
1.5161826
1.5161526
1.5161822
1.516201
1.5162146
1.5161718
1.5166027
1.5165358
1.5165977
1.5171789
1.5163382
1.5167913
1.5161264
1.5161248
1.5161139
1.5160984
1.5161076
1.516088
1.5161084
1.5161138
1.5160881
1.5160971
1.5161257
1.5161136
1.516453
1.5164741
1.5161201
1.5164562
1.5164542
1.5161155
1.5168623
1.5164483
1.5161502
1.5161554
1.5161269
1.5161354
1.5161815
1.5162007
1.5161546
1.5161836
1.5161763
1.5164789
1.5162055
1.5164941
1.5161458
1.5164615
1.5161587
1.5164689
1.5162124
1.5161733
1.5163692
1.5164142
1.5163098
1.5163799
1.5167252
1.516976
1.5166355
1.517034
1.5163075
1.5165738
1.5163929
1.5166417
1.5166266
1.5170909
1.5168296
1.5172542
1.5214656
1.5214281
1.5219767
1.5207861
1.5212078
1.5218103
1.5211219
1.5221068
1.5220445
1.5219661
1.5212451
1.5219431
1.5213629
1.5183323
1.5185424
1.5182151
1.5178683
1.5182244
1.5184783
1.5186333
1.5181727
1.5178592
1.5178601
1.5178176
1.5177962
1.5188157
1.5195379
1.5181582
1.5188375
1.5177939
1.5186417
1.5178767
1.5185612
1.516783
1.5167692
1.5173874
1.5173976
1.5174307
1.5168038
1.5168402
1.5174467
1.5170329
1.5169528
1.5176194
1.5176501
1.5175317
1.5172614
1.5178332
1.5179409
1.5166839
1.516695
1.5172552
1.5172539
1.5166746
1.5166813
1.5172557
1.5172546
1.5166749
1.5166775
1.5172608
1.517262
1.5166859
1.5167097
1.5172723
1.5172799
1.5192462
1.5189182
1.519422
1.5196726
1.5173477
1.5176266
1.5180689
1.5179705
1.5171019
1.5170032
1.517766
1.5177206
1.519491
1.5194289
1.5199463
1.5199945
1.5168208
1.5168683
1.5175105
1.5174908
1.5167789
1.5167904
1.5174481
1.5174293
1.5166923
1.5167218
1.5173104
1.517302
1.5166799
1.5166733
1.5172913
1.5172882
1.5166878
1.5172847
1.5172845
1.5166824
1.5166923
1.5167081
1.5172848
1.5172807
1.5196464
1.5196091
1.5202013
1.5202185
1.5195792
1.5195512
1.5201284
1.5201644
1.5197672
1.5197402
1.5203413
1.5203283
1.5203025
1.5197184
1.5196914
1.5202732
1.5214263
1.5211842
1.5212745
1.5213887
1.5198776
1.5198252
1.5204272
1.5203924
1.5206746
1.5204042
1.5200635
1.5205567
1.5214693
1.5215262
1.5215097
1.521457
1.5215823
1.5215101
1.5215686
1.5215006
1.5195869
1.5200584
1.520095
1.5196793
1.520117
1.5196421
1.5201101
1.5196804
1.5205631
1.5203502
1.5203046
1.5203763
1.5203324
1.5209769
1.5203776
1.5202635
1.5203166
1.5203293
1.5204132
1.5208612
1.5204469
1.5204988
1.5206505
1.5206903
1.5205596
1.5206999
1.5215024
1.5207605
1.5208728
1.5204025
1.5204544
1.5205403
1.5204965
1.5213137
1.5205083
1.5206043
1.5206434
1.5207254
1.5213896
1.5215615
1.5213899
1.5212978
1.5212404
1.5213326
1.5218487
1.5206785
1.520485
1.5206024
1.5205662
1.520549
1.5206444
1.5206027
1.5205091
1.5212053
1.5205098
1.5203881
1.5204364
1.5204671
1.5204585
1.5204995
1.5204664
1.5204217
1.5211595
1.5210706
1.5210193
1.5215942
1.5211368
1.5211042
1.5203039
1.520368
1.5205401
1.5204878
1.5196975
1.520052
1.5195949
1.5200907
1.5204035
1.5202675
1.5203265
1.5203512
1.5202132
1.5196303
1.5200646
1.5198556
1.5176143
1.517866
1.5177057
1.5179174
1.5173699
1.5174491
1.5174081
1.5174837
1.5174283
1.517577
1.5174671
1.5176106
1.5176787
1.5178257
1.5179126
1.5180175
1.5172336
1.5172414
1.5173048
1.5173127
1.5172897
1.5172194
1.5172204
1.5172918
1.5172749
1.5172762
1.5174128
1.5174142
1.5172886
1.5172983
1.5174255
1.5174339
1.5175076
1.5177876
1.5175802
1.5178266
1.5172692
1.5173053
1.5173282
1.5173627
1.5173035
1.5173939
1.5173417
1.5174293
1.5175493
1.5178185
1.5176451
1.5178766
1.5171572
1.5172368
1.5171586
1.5172393
1.5171394
1.5171473
1.5171933
1.5172006
1.5171243
1.5171767
1.5171253
1.517179
1.5171727
1.517181
1.5172525
1.5172599
1.5175595
1.5173753
1.5176888
1.5173815
1.5175677
1.5175451
1.5173399
1.5175808
1.5173887
1.5172295
1.5171844
1.5175212
1.5171937
1.5172413
1.5171944
1.5171456
1.5172355
1.5171902
1.5175896
1.5174297
1.5171114
1.5171055
1.5174191
1.5171164
1.517122
1.5170754
1.5171145
1.5170678
1.5171078
1.5170688
1.5171075
1.5170587
1.5170981
1.5171053
1.5170963
1.5174073
1.5171073
1.5171167
1.5173233
1.5173363
1.5170824
1.517072
1.5171217
1.5171126
1.5170906
1.5171302
1.5170818
1.5171226
1.5171098
1.5171746
1.5171005
1.517167
1.5171007
1.5171653
1.5170909
1.5171566
1.5172144
1.5172575
1.5171644
1.5172114
1.5175809
1.5176203
1.5173684
1.5174236
1.5176258
1.5176863
1.5174085
1.517487
1.5172409
1.5173102
1.5171898
1.5172633
1.5175809
1.5175261
1.5174038
1.517447
1.5173228
1.5173551
1.517345
1.5173507
1.5173275
1.517405
1.5173422
1.5174222
1.5178218
1.5174931
1.5175937
1.5178918
1.5171954
1.5171845
1.5172763
1.5172676
1.5171569
1.5171469
1.5172125
1.517204
1.5171835
1.5172639
1.5171737
1.5172559
1.5171366
1.5171467
1.5172014
1.5171928
1.517297
1.5173571
1.517244
1.5173088
1.5176962
1.5177489
1.5174757
1.5175487
1.5177614
1.5178316
1.5175395
1.5176345
1.5173452
1.5174331
1.5172907
1.5173843
1.5174252
1.5173695
1.5175043
1.517456
1.5178478
1.5176297
1.5179085
1.5177205
1.5179287
1.5177197
1.5180382
1.5178617
1.5174998
1.517445
1.517641
1.5175941
1.5173229
1.5174581
1.5173107
1.517448
1.5172618
1.5173347
1.5172504
1.517325
1.5172481
1.5172387
1.5173194
1.5173121
1.5173064
1.5174407
1.5172981
1.5174339
1.5170811
1.5171436
1.5170816
1.5171458
1.5170809
1.5170892
1.5171187
1.5171263
1.5170671
1.5171025
1.5170664
1.5171035
1.5170961
1.517105
1.5171602
1.5171679
1.5170691
1.5171066
1.5170782
1.5171142
1.5170565
1.5170914
1.5170548
1.5170914
1.5170921
1.5170912
1.5171055
1.5171032
1.5171059
1.517114
1.5171262
1.517117
1.5172296
1.517257
1.5172668
1.5172381
1.5171891
1.5172342
1.5172199
1.5172637
1.5174659
1.5177448
1.5177622
1.5174673
1.5174172
1.5174711
1.5177215
1.5177453
1.5174349
1.5174925
1.517733
1.5177608
1.517205
1.5172481
1.5172374
1.5172795
1.5172224
1.5172939
1.5172574
1.5173275
1.5174599
1.5175396
1.5177522
1.5177983
1.5189337
1.5187548
1.5187892
1.5189079
1.5187578
1.5188099
1.518962
1.5189232
1.5192931
1.5193097
1.5192424
1.5192621
1.519252
1.5192795
1.5193067
1.5193295
1.518882
1.5187199
1.5187651
1.518837
1.5187356
1.5187867
1.518919
1.5188738
1.5192687
1.5192003
1.5192308
1.519238
1.5192226
1.5192521
1.5192682
1.5192955
1.518777
1.518641
1.5187077
1.5187033
1.5186809
1.5187489
1.518844
1.5187714
1.5191872
1.5191183
1.5191678
1.5191351
1.5191619
1.5192074
1.5191893
1.5192368
1.5185875
1.5186227
1.5186673
1.5187147
1.5191232
1.5191349
1.5190609
1.519071
1.5186268
1.519322
1.5192963
1.5195033
1.51952
1.5190677
1.5191979
1.5192011
1.5192727
1.5192762
1.5196694
1.5196443
1.5196712
1.5196948
1.5191936
1.5193583
1.5193505
1.5195395
1.5195413
1.5196756
1.5196643
1.5196879
1.5196994
1.5189051
1.5189503
1.5189259
1.51904
1.51885
1.5188943
1.5190183
1.5188683
1.5189331
1.5190718
1.5190315
1.5193835
1.519315
1.5193356
1.5193708
1.5189989
1.5188037
1.5188423
1.51898
1.518816
1.5188782
1.5190291
1.5189896
1.5193457
1.5193567
1.5192872
1.5193048
1.5192954
1.5193251
1.5193533
1.5193751
1.5189725
1.5187796
1.5188164
1.5189509
1.5187848
1.5188355
1.5189933
1.5189603
1.519339
1.519269
1.5192878
1.5193254
1.5192763
1.5192996
1.5193342
1.5193517
1.5177819
1.5179077
1.517568
1.5176019
1.5173381
1.5173479
1.51738
1.5173992
1.5172102
1.5172065
1.5172086
1.5172092
1.5172149
1.5172145
1.5172346
1.5172247
1.5193088
1.5180334
1.5179206
1.5176643
1.5177148
1.5196055
1.5199072
1.5198517
1.5174594
1.5174359
1.5173956
1.5173761
1.5172381
1.5172368
1.5172386
1.5172351
1.5172634
1.5172524
1.5172426
1.5172405
1.5200601
1.5200183
1.520112
1.5200885
1.520232
1.5202138
1.5201924
1.5201573
1.5203206
1.5202774
1.5206004
1.5212055
1.5204493
1.5213516
1.5214198
1.521435
1.5214789
1.521468
1.5212046
1.5207861
1.5180269
1.5185448
1.5165284
1.5169707
1.5163683
1.5164744
1.5162298
1.5161999
1.5162178
1.5161777
1.5162108
1.5168323
1.5165495
1.5166901
1.5164751
1.5168275
1.5176241
1.5176053
1.5176374
1.5179355
1.5177222
1.5173585
1.5174356
1.5172648
1.5162273
1.516315
1.5162388
1.5163095
1.5162031
1.5161368
1.5161347
1.5161314
1.5161215
1.5161244
1.5176426
1.5176031
1.5174693
1.5172551
1.5177665
1.5185368
1.517737
1.5184977
1.5176413
1.5176579
1.517667
1.5176395
1.517599
1.517612
1.5176152
1.5175956
1.5177119
1.517684
1.51847
1.5184403
1.5173199
1.5171861
1.5171427
1.5173558
1.5175823
1.518351
1.5176297
1.5184128
1.5174785
1.5175022
1.5175229
1.5174857
1.5174581
1.5171907
1.5182182
1.5178911
1.5163152
1.5163707
1.5163105
1.5164252
1.5163002
1.5164647
1.5162066
1.5162189
1.5162037
1.5161842
1.5161635
1.516188
1.516517
1.5164547
1.5164468
1.5165607
1.5162937
1.5162995
1.5162782
1.5162555
1.5161705
1.5161813
1.5161731
1.5161563
1.5161372
1.5161521
1.5161464
1.5161283
1.5161571
1.5161626
1.5161442
1.516134
1.5161159
1.5161262
1.5161155
1.5161037
1.5164958
1.5162524
1.5162166
1.516446
1.5161773
1.5161973
1.5164215
1.5164008
1.5165894
1.5164408
1.5166249
1.5164415
1.5172378
1.51684
1.5166026
1.5169419
1.5162914
1.5162893
1.5162401
1.5162279
1.5163239
1.5164279
1.5167158
1.5165889
1.5161294
1.5161249
1.5161129
1.5161198
1.516097
1.5161049
1.5161239
1.5161265
1.5161127
1.5161182
1.5161053
1.5160966
1.5160877
1.5160979
1.516094
1.5160809
1.5160858
1.5160853
1.5160729
1.5160724
1.5160721
1.5160853
1.5160857
1.5160728
1.5160794
1.5160929
1.5160852
1.5160961
1.5160736
1.51608
1.5160714
1.5160633
1.5160632
1.5160636
1.5160554
1.5160562
1.5161254
1.516327
1.5163295
1.5161259
1.5163733
1.5161541
1.5161367
1.5163442
1.5160701
1.5160772
1.5160706
1.5160624
1.5161249
1.516129
1.5163335
1.5163334
1.5163407
1.5161353
1.5161412
1.5163529
1.5160637
1.5160628
1.5160564
1.5160552
1.5169269
1.5167355
1.5166672
1.5169774
1.5166423
1.5170015
1.5164692
1.5164368
1.5163625
1.5164125
1.5163248
1.5163827
1.5161373
1.5161442
1.5161257
1.5161237
1.5161088
1.5161125
1.5161183
1.5161319
1.5161334
1.5161214
1.5161636
1.5161884
1.5161509
1.516149
1.5161339
1.5161374
1.5161547
1.5161716
1.5161818
1.5161722
1.5161285
1.5161241
1.516116
1.5161214
1.5163476
1.5161705
1.51618
1.5163536
1.5161367
1.5161444
1.5161651
1.51616
1.516216
1.5161952
1.5163673
1.5163875
1.5161034
1.5160983
1.516089
1.5160955
1.5163529
1.5161524
1.5161601
1.5163511
1.5161014
1.516109
1.5161129
1.5161059
1.5161665
1.5161647
1.5163487
1.5163502
1.5162197
1.5162019
1.5161814
1.5162048
1.5161786
1.5161747
1.5161623
1.5161563
1.5163033
1.5162941
1.5162647
1.516281
1.5163231
1.5163522
1.5163726
1.5163579
1.5165346
1.5165851
1.5166251
1.5166052
1.5170735
1.5169392
1.516888
1.5171221
1.5162672
1.5162461
1.5162291
1.5162551
1.5164274
1.5162659
1.5162967
1.5164528
1.5162929
1.5163067
1.5163481
1.5163405
1.5163753
1.5163301
1.516478
1.5165152
1.516479
1.5165055
1.5165948
1.5165893
1.5168479
1.5168633
1.5171494
1.517183
1.5166038
1.5164841
1.5166015
1.516707
1.5172067
1.5168449
1.5169394
1.5172775
1.5215638
1.5215144
1.5220457
1.5208393
1.5213447
1.5218915
1.5212105
1.5221126
1.5221199
1.5221637
1.5221537
1.5222073
1.5221979
1.5220594
1.5220481
1.5220043
1.5219547
1.5220062
1.5220691
1.5214783
1.5211117
1.5211024
1.5216607
1.5221267
1.5220583
1.5219965
1.5219452
1.5217753
1.5211171
1.5217682
1.5212066
1.5182495
1.5181684
1.5184662
1.5184961
1.5182051
1.5178181
1.5177952
1.5178405
1.5186018
1.5181434
1.5178501
1.5177905
1.5185415
1.518877
1.5190936
1.5185193
1.5193309
1.5186062
1.5199407
1.5192248
1.5180988
1.5181582
1.5181604
1.5180641
1.5182482
1.5189014
1.5181262
1.518788
1.5178024
1.5177802
1.5178062
1.5177715
1.5179848
1.5187068
1.5179386
1.518663
1.5178473
1.5178725
1.5178847
1.5178439
1.5179006
1.5178536
1.5186343
1.518587
1.5167192
1.5167052
1.5167389
1.5167764
1.5169644
1.5168821
1.517477
1.5171941
1.5166212
1.5166325
1.5166129
1.5166209
1.5166139
1.5166188
1.5166236
1.5166486
1.5195399
1.5187647
1.5186765
1.5195002
1.5182715
1.5184962
1.519285
1.519114
1.5172679
1.5175548
1.5170211
1.5169217
1.5197823
1.5189349
1.5189013
1.5197722
1.5188634
1.5188461
1.519739
1.519708
1.5167472
1.5167944
1.5167068
1.5167164
1.5166284
1.5166549
1.5166167
1.5166104
1.5166244
1.5166184
1.5166282
1.5166448
1.5190195
1.5190642
1.5199513
1.5199434
1.5189801
1.5189809
1.5199277
1.5199185
1.5189579
1.5189434
1.519898
1.5198906
1.5198676
1.5189339
1.5189413
1.5198507
1.519184
1.5191491
1.5200671
1.5200607
1.5200507
1.519122
1.5191247
1.5200433
1.5190887
1.5191098
1.5200276
1.5200198
1.5190849
1.5190782
1.5199995
1.5199874
1.5215338
1.5213805
1.5214933
1.5213567
1.5213527
1.5210585
1.5212299
1.5210974
1.5192642
1.5193255
1.5201711
1.5201557
1.5192289
1.5192324
1.5201242
1.5201117
1.5199337
1.5203012
1.520559
1.5204934
1.5194663
1.5196114
1.5203328
1.5202964
1.521619
1.5216141
1.5214556
1.5214588
1.5216121
1.5215936
1.5214464
1.5214379
1.5215111
1.5216804
1.521684
1.5215106
1.521675
1.5216591
1.5214951
1.521501
1.5193016
1.5189025
1.5193188
1.5189665
1.519586
1.5196231
1.5195254
1.5195687
1.5195814
1.5196452
1.5195209
1.5195916
1.5192909
1.5193422
1.5189098
1.5190069
1.5197102
1.5196537
1.5201659
1.5197772
1.5197169
1.5194069
1.5190108
1.5197362
1.5194843
1.5190523
1.519625
1.5196416
1.519564
1.5195869
1.5193371
1.518915
1.5193422
1.5189699
1.5201506
1.5196795
1.5198474
1.5198216
1.5204055
1.5199075
1.5198807
1.5198171
1.5197661
1.5203697
1.5198797
1.5198256
1.5197554
1.5197882
1.519727
1.5197627
1.5197239
1.5197545
1.5196707
1.5197054
1.5203625
1.5203278
1.5197293
1.5198094
1.5196988
1.5197842
1.5196907
1.5197388
1.5196375
1.5196903
1.5197262
1.519777
1.5196966
1.5197509
1.5196893
1.5197684
1.5196365
1.519721
1.5197951
1.520249
1.5202088
1.5197837
1.5204292
1.5204373
1.5204102
1.5204023
1.519978
1.5199316
1.5200759
1.520039
1.5200175
1.5199957
1.5201161
1.5200995
1.5200607
1.5200207
1.5202064
1.5201754
1.520101
1.5200817
1.5202454
1.5202313
1.5201064
1.5200529
1.5202024
1.520159
1.5202323
1.5204294
1.5204947
1.5203334
1.5211298
1.5212965
1.5213499
1.5212164
1.5201897
1.5201418
1.5203318
1.5202941
1.520321
1.5204953
1.5205982
1.5204607
1.5198525
1.5199279
1.5197993
1.5198823
1.5198896
1.519966
1.5198657
1.5199468
1.5199343
1.5199116
1.5200398
1.5200221
1.5198954
1.5198457
1.5200011
1.5199595
1.5211066
1.521278
1.5212917
1.5211416
1.5199766
1.5200511
1.5199187
1.5200008
1.5200221
1.5199662
1.520126
1.5200787
1.5203093
1.5203655
1.5200892
1.5201714
1.520144
1.5203568
1.5204325
1.5202515
1.5213744
1.5213584
1.5213453
1.5213621
1.5213818
1.5214314
1.5213674
1.5214198
1.5213479
1.521312
1.5213229
1.5213372
1.5212824
1.5212998
1.5210758
1.5212283
1.5212409
1.5212623
1.5210956
1.5210847
1.5212719
1.5212497
1.5211198
1.5211387
1.5202569
1.5203224
1.520036
1.5201237
1.5199271
1.5198711
1.5199767
1.5199255
1.520233
1.520276
1.5200209
1.5200788
1.5199313
1.5200126
1.5198743
1.5199615
1.519949
1.5199849
1.5198962
1.5199355
1.5202252
1.5202611
1.5200327
1.5200757
1.5202751
1.5201124
1.5203059
1.5206436
1.5201553
1.5200328
1.5199856
1.5205699
1.5200362
1.5200838
1.5205853
1.5205168
1.5198461
1.5198218
1.5199286
1.519909
1.5198101
1.5197549
1.5198599
1.5198103
1.5198447
1.5198945
1.5198205
1.519874
1.5198101
1.5197562
1.5198926
1.519845
1.5198391
1.5198736
1.5197839
1.5198232
1.5198713
1.5199063
1.519848
1.5198861
1.5199595
1.5199393
1.5205255
1.5200143
1.519993
1.5199295
1.5198781
1.5204883
1.5199865
1.5199326
1.5204775
1.520438
1.5206388
1.5206328
1.5205897
1.5205875
1.5205207
1.5205543
1.5205481
1.5205141
1.5214107
1.5214662
1.5214745
1.5214185
1.5211461
1.5207057
1.5207147
1.5206907
1.5206771
1.5206429
1.5206661
1.5206365
1.5206143
1.5205209
1.5204992
1.5198521
1.5198032
1.5199472
1.5199068
1.5199005
1.519998
1.5198726
1.5199762
1.5199842
1.5201225
1.5199594
1.5201035
1.5199336
1.5198891
1.5200712
1.5200347
1.5194271
1.5191236
1.5190019
1.5193558
1.5196142
1.5195539
1.5196768
1.5196232
1.5189578
1.5193236
1.5193642
1.5190427
1.5196542
1.5197345
1.5196828
1.5195938
1.5198178
1.5199209
1.5197884
1.5198974
1.5197291
1.5196767
1.5198029
1.5197567
1.5197719
1.5198479
1.5197422
1.519823
1.5197713
1.5197208
1.5198733
1.5198297
1.5197954
1.519907
1.5197384
1.5198596
1.5194264
1.5190915
1.5194799
1.5191974
1.5197219
1.5197991
1.5196635
1.5197492
1.5194876
1.519172
1.5195937
1.5193329
1.5173911
1.5174346
1.5174689
1.5174308
1.5177848
1.5176388
1.5176814
1.5178072
1.5175197
1.5174261
1.5174869
1.5174649
1.5178102
1.5178404
1.5176698
1.5177214
1.5172213
1.5171718
1.5172111
1.5171829
1.517204
1.5172582
1.5172685
1.5172159
1.5172698
1.5172153
1.5172556
1.5172315
1.5172499
1.5173028
1.5172669
1.5173175
1.5173007
1.5172516
1.5172908
1.5172633
1.5173533
1.5172844
1.5172958
1.5173627
1.5173143
1.5173511
1.5172971
1.5173361
1.5173958
1.5173303
1.5173483
1.5174115
1.5174786
1.5175219
1.5175528
1.5175151
1.5175858
1.5175143
1.5175494
1.5176156
1.51771
1.5178427
1.5177522
1.5178647
1.5178017
1.517868
1.5179111
1.517741
1.5170576
1.5170943
1.5170953
1.5170582
1.5170723
1.5170652
1.5171033
1.5171099
1.5170895
1.5171386
1.51714
1.517091
1.517107
1.5170988
1.5171485
1.5171555
1.5170792
1.5171283
1.5171277
1.5170785
1.5170832
1.5170471
1.5170837
1.5170463
1.5170517
1.5170882
1.517087
1.51705
1.5170841
1.5171325
1.5171314
1.5170833
1.5171245
1.51716
1.5171593
1.5171237
1.5171285
1.5171636
1.5171627
1.5171276
1.5172187
1.5171563
1.5172205
1.5171554
1.5171596
1.5172216
1.5172206
1.5171591
1.5171341
1.5171696
1.517171
1.5171356
1.5171523
1.5171439
1.5171804
1.5171877
1.5171651
1.5172278
1.5172282
1.5171667
1.5171847
1.5171757
1.5172381
1.5172459
1.5172467
1.5172856
1.5173238
1.517289
1.5176829
1.5175238
1.517562
1.5177054
1.5172711
1.5173225
1.5173608
1.5173139
1.5177043
1.5175447
1.5175895
1.517732
1.5170423
1.5170758
1.5170864
1.5170537
1.5170835
1.517118
1.5171319
1.517099
1.5170631
1.517107
1.517118
1.5170753
1.5171057
1.5171494
1.5171637
1.517122
1.5171416
1.5170961
1.5171311
1.517108
1.5171232
1.5171783
1.5171885
1.5171347
1.5171887
1.5171386
1.517174
1.517155
1.517166
1.5172211
1.5171831
1.5172352
1.5173093
1.5173497
1.517387
1.5173516
1.5177311
1.5175735
1.5176132
1.5177529
1.5174005
1.5174363
1.5173402
1.5173813
1.5177544
1.5175999
1.5176521
1.5177853
1.5170058
1.5169722
1.5170049
1.5169731
1.5169997
1.5170504
1.5170505
1.517
1.5169762
1.5170091
1.5169786
1.5170108
1.5170048
1.5170554
1.5170034
1.5170535
1.5169317
1.5169634
1.5169655
1.5169337
1.5169422
1.5169738
1.5169795
1.5169487
1.5169953
1.5169527
1.5169936
1.5169549
1.5170088
1.5169621
1.5170028
1.5169694
1.5169523
1.5169188
1.5169502
1.5169207
1.5169402
1.5169808
1.5169825
1.516942
1.516955
1.5169263
1.5169578
1.5169231
1.5169475
1.5169877
1.516945
1.5169854
1.5169844
1.5170171
1.5170179
1.5169857
1.5169926
1.5170256
1.5169999
1.5170324
1.5170616
1.5170623
1.5170108
1.5170115
1.5170266
1.5170183
1.5170696
1.5170758
1.5169737
1.5169501
1.5171
1.5170642
1.5168223
1.5168084
1.5166905
1.5166846
1.517562
1.5175208
1.5173451
1.5173947
1.516679
1.516947
1.5171243
1.5172276
1.5171751
1.5170751
1.5168344
1.5169419
1.5169177
1.5168136
1.5172673
1.5172481
1.5173323
1.5171827
1.5169189
1.517043
1.5169492
1.5170103
1.5166194
1.5166174
1.5167302
1.5167249
1.5166955
1.5166879
1.5165866
1.5165849
1.5171742
1.5172189
1.5172583
1.5172158
1.5165803
1.5166125
1.5167373
1.5168276
1.5168177
1.516728
1.5167011
1.5167885
1.5167747
1.5166893
1.5169095
1.51683
1.5168174
1.5168968
1.5167727
1.5168496
1.5167892
1.5168665
1.5175108
1.5174809
1.5173548
1.5173178
1.5171697
1.5172117
1.5172346
1.5171943
1.5165461
1.5165451
1.5166466
1.5166437
1.516637
1.5166325
1.5165328
1.5165325
1.5170983
1.5171039
1.5171419
1.5171377
1.5165277
1.5165403
1.5166518
1.516646
1.5167269
1.5167328
1.5167329
1.5168042
1.5167983
1.5167256
1.5167162
1.5166411
1.5167244
1.5166341
1.5167234
1.5167965
1.5167144
1.5167875
1.516638
1.5166338
1.5167208
1.5167167
1.5167153
1.5167937
1.5167898
1.51672
1.5166424
1.516637
1.5167173
1.5167239
1.516723
1.5167159
1.5167952
1.516788
1.5165302
1.5165303
1.5166332
1.5166315
1.5166381
1.5166352
1.5165362
1.5165369
1.5170983
1.5171371
1.517129
1.5170899
1.5165315
1.5165254
1.5170858
1.5170943
1.5171092
1.5171174
1.5170939
1.5171001
1.517122
1.5171172
1.5167899
1.5168408
1.5168384
1.516786
1.5167844
1.5167918
1.516842
1.5168353
1.5168824
1.5168337
1.5168835
1.5168316
1.5168289
1.5168786
1.5168356
1.5168847
1.5168452
1.5168011
1.5168506
1.5167944
1.5168439
1.5168925
1.5168876
1.5168378
1.5168351
1.5167926
1.5168433
1.5167833
1.516836
1.5168856
1.5168278
1.5168781
1.5169151
1.5168849
1.5169199
1.5168792
1.5169558
1.5169106
1.516905
1.5169512
1.5168697
1.5169063
1.5168774
1.5169131
1.5169487
1.5169031
1.5168963
1.5169428
1.5168757
1.5169114
1.5169107
1.5168744
1.5169476
1.5169019
1.5169012
1.5169476
1.5168774
1.5168711
1.5169126
1.5169069
1.5169486
1.5168979
1.5169434
1.5169037
1.5169514
1.5169088
1.5169644
1.5168942
1.51696
1.5170139
1.5170007
1.5169453
1.5168642
1.5168454
1.5169182
1.5169003
1.5169123
1.5168929
1.5169656
1.5169474
1.5173496
1.5172724
1.5174102
1.5173342
1.5173356
1.5173924
1.517424
1.5174774
1.5170763
1.5170472
1.5171128
1.5170092
1.5171131
1.5170715
1.5171763
1.5171362
1.5174907
1.5173932
1.5175316
1.5174384
1.5174374
1.5174882
1.5175439
1.5175882
1.5171306
1.5171794
1.5171763
1.5172227
1.5172208
1.5171719
1.5172765
1.5172308
1.5170341
1.5170088
1.5170483
1.5169935
1.5170912
1.5170415
1.5170251
1.5170759
1.5169389
1.5169788
1.5169589
1.5169973
1.5170383
1.5169887
1.5169686
1.5170195
1.5174737
1.5174415
1.5173308
1.5172972
1.5174354
1.5174083
1.5172901
1.5173136
1.5172309
1.5172156
1.5171834
1.517197
1.517171
1.5172085
1.5172308
1.517193
1.517105
1.5171116
1.5171252
1.5171187
1.5171212
1.5170935
1.5171001
1.5171215
1.5171161
1.5171169
1.517095
1.5170858
1.5171088
1.5170893
1.5170918
1.5171126
1.5171101
1.5171229
1.5171331
1.5170882
1.5170908
1.5171114
1.5171095
1.5170932
1.5171259
1.5171248
1.5170907
1.5171231
1.5171006
1.5171119
1.517133
1.5171146
1.5171036
1.5171392
1.5171481
1.5177387
1.5174218
1.5174698
1.5177514
1.5172361
1.5172111
1.51724
1.5172632
1.5172623
1.5172193
1.517246
1.5172883
1.5177477
1.5174433
1.5174983
1.5177716
1.5172355
1.5170083
1.5170431
1.5170374
1.5170015
1.5169982
1.5170329
1.5169927
1.5170284
1.5170846
1.5170389
1.5170912
1.5170319
1.517023
1.5170753
1.5170274
1.5170799
1.5169475
1.5169815
1.5169764
1.5169418
1.5169395
1.5169737
1.5169682
1.5169334
1.5170101
1.5169725
1.5170155
1.5169664
1.5170016
1.5169636
1.5170067
1.5169581
1.5170329
1.5169986
1.5170332
1.5169982
1.5170282
1.5170791
1.5170784
1.5170275
1.516994
1.5170282
1.516999
1.5170331
1.5170287
1.5170786
1.5170236
1.5170739
1.5169403
1.5169347
1.5169687
1.5169737
1.5169389
1.5169731
1.5169731
1.5169387
1.5169635
1.5169637
1.5170066
1.5170067
1.5170067
1.5169647
1.5169594
1.5170021
1.5171073
1.5170858
1.5171238
1.5170679
1.5171178
1.5171646
1.5171472
1.5170988
1.5170489
1.5170307
1.5170679
1.51701
1.5170596
1.5171069
1.5170389
1.5170879
1.5176022
1.5174888
1.5176376
1.5175316
1.5175321
1.51758
1.5176518
1.5176898
1.5172719
1.5172764
1.5173189
1.5172248
1.5173183
1.5172653
1.51737
1.5173215
1.5177065
1.5176283
1.5177385
1.5175834
1.5177581
1.5176352
1.5177966
1.5176877
1.5173176
1.5173655
1.5173722
1.5174147
1.517479
1.5174203
1.5173654
1.5174292
1.517181
1.5171609
1.5171995
1.5171406
1.5172556
1.5171992
1.5171778
1.5172363
1.5170796
1.5171202
1.5171008
1.5171393
1.5171946
1.5171367
1.5171157
1.5171749
1.5172582
1.5173
1.5172808
1.5172361
1.5171733
1.5171951
1.5172377
1.5172186
1.5173016
1.5173551
1.5173365
1.51728
1.5172166
1.5172375
1.5172937
1.5172753
1.5178171
1.5178464
1.517741
1.5176962
1.5174868
1.5175294
1.5174818
1.5174316
1.5178677
1.5179006
1.5177991
1.5177496
1.5175366
1.517592
1.5175464
1.5174836
1.5179227
1.5179473
1.5178505
1.5178089
1.5176003
1.5176413
1.5175973
1.5175487
1.5179701
1.5180122
1.5179164
1.5178604
1.5176495
1.5177137
1.5176703
1.5175995
1.5173573
1.5173971
1.5173788
1.517336
1.5172733
1.517294
1.5173349
1.517317
1.517399
1.5174645
1.5174454
1.5173779
1.5173151
1.517335
1.5174033
1.5173857
1.5171738
1.5172038
1.5172108
1.5171658
1.517272
1.5172089
1.5172006
1.5172638
1.5171929
1.5171589
1.517196
1.5171555
1.5172549
1.5171926
1.5171895
1.5172521
1.5170897
1.5171282
1.5171209
1.5170816
1.517176
1.5171258
1.5171175
1.5171692
1.5170771
1.5170724
1.5171155
1.5171116
1.5171624
1.5171083
1.5171592
1.5171121
1.5170755
1.5171128
1.5171124
1.5170748
1.5170708
1.5170756
1.5171123
1.5171084
1.517158
1.5171087
1.5171583
1.5171084
1.517105
1.5171543
1.517109
1.5171581
1.5171546
1.5171542
1.5171909
1.5171907
1.5172496
1.5171869
1.5172491
1.5171871
1.5171549
1.5171905
1.5171867
1.5171508
1.5172458
1.5171873
1.5172495
1.5171834
1.5168974
1.5168633
1.5168951
1.5168649
1.5168852
1.5169279
1.5169304
1.5168875
1.5168665
1.5168994
1.5168705
1.5169028
1.5168929
1.5169357
1.5168898
1.5169327
1.5168008
1.516847
1.5168472
1.5167999
1.5168179
1.516815
1.5168608
1.5168639
1.5168866
1.5168394
1.5168853
1.5168402
1.5168576
1.5169024
1.5168528
1.5168981
1.5168345
1.5167887
1.5168338
1.5167878
1.5168267
1.5168714
1.5168732
1.5168276
1.5168351
1.5167935
1.5168398
1.5167879
1.5168329
1.5168784
1.5168286
1.5168744
1.5168767
1.5169092
1.5169109
1.5168783
1.516889
1.5169214
1.5168946
1.5169267
1.5169418
1.5169438
1.5168989
1.5169008
1.5169172
1.5169106
1.5169531
1.5169588
1.5166628
1.5166604
1.5167382
1.516736
1.516735
1.5168047
1.5168032
1.5167371