/*--------------------------------*- C++ -*----------------------------------*\
  =========                 |
  \\      /  F ield         | OpenFOAM: The Open Source CFD Toolbox
   \\    /   O peration     | Website:  https://openfoam.org
    \\  /    A nd           | Version:  7
     \\/     M anipulation  |
\*---------------------------------------------------------------------------*/
FoamFile
{
    version     2.0;
    format      ascii;
    class       surfaceScalarField;
    location    "6000";
    object      phi;
}
// * * * * * * * * * * * * * * * * * * * * * * * * * * * * * * * * * * * * * //

dimensions      [0 3 -1 0 0 0 0];

internalField   nonuniform List<scalar> 
100394
(
4.4602133e+32
-1.9506606e+33
-2.0461867e+33
-1.8756958e+33
9.1701899e+30
-2.0485883e+33
6.3217016e+32
5.2785219e+32
-9.4184265e+33
-2.5282706e+32
-3.5937221e+32
-4.4611797e+32
-1.858565e+33
-1.8434996e+33
-1.5851262e+33
-1.6464112e+33
3.5838541e+32
-2.96711e+32
1.8532309e+31
1.7073726e+32
-4.0244544e+32
-5.0216299e+32
-4.0792507e+32
-4.773336e+32
-1.8280404e+32
-1.7228229e+33
-2.7064264e+32
1.5433985e+32
-3.8706952e+32
-4.0419821e+32
-4.5733921e+32
-2.4019442e+31
-4.682344e+32
5.5213106e+32
-1.8484546e+33
-1.813967e+33
-1.8728706e+33
-1.9388142e+33
-4.3555061e+31
-1.6654417e+33
-3.0874114e+32
-3.1178488e+32
5.7026071e+32
-5.504932e+32
-4.5527843e+32
4.3286809e+32
5.9325957e+32
-3.5432536e+32
4.7797247e+32
-4.8347129e+32
-1.7677315e+32
1.5258586e+32
1.6425938e+32
-2.1916423e+33
-3.1771373e+31
-5.416514e+31
1.2902421e+32
1.5652258e+32
-2.1371181e+33
-5.9338007e+31
-3.6470641e+31
-2.5420706e+32
6.329874e+32
5.2916175e+32
-9.12615e+33
-1.9833515e+32
-2.9819178e+32
-1.6649337e+31
1.1398664e+32
-4.1588036e+32
-4.510407e+32
-4.2670537e+32
-3.9793207e+32
1.104732e+32
-2.7176434e+31
-4.0298619e+32
-4.3344096e+32
-4.3664595e+32
-4.0731292e+32
-4.1937387e+31
2.6984161e+31
-3.5932541e+32
-2.7787377e+32
-3.7245538e+32
-2.9570542e+32
-3.6431063e+32
-2.8987952e+32
-3.7266209e+32
-2.8918655e+32
-1.839362e+33
-1.6274201e+33
1.029075e+32
-1.8332997e+33
-1.5785904e+33
1.1023007e+31
-6.4645392e+31
4.1672214e+31
-8.4625049e+31
-8.271877e+31
-1.1024061e+32
-1.0412864e+32
6.1602637e+31
2.7169179e+31
-4.6364867e+31
-3.9198408e+32
6.216955e+30
3.9478623e+31
-8.2406627e+31
-1.0505856e+32
-8.533371e+31
-1.0819612e+32
-3.9077338e+32
1.2754396e+30
-5.6469077e+31
3.6246447e+31
-8.0884421e+31
1.3247174e+30
-1.0054393e+32
-8.3929299e+31
-1.0408942e+32
-6.1537296e+31
4.2686731e+31
-8.4538357e+31
-8.2789849e+31
-1.0808498e+32
-1.0244208e+32
4.0575359e+31
-3.6931954e+32
-5.6039877e+31
-3.6427269e+31
-3.0423604e+32
1.8946122e+32
-3.9121724e+32
-4.4798573e+32
-3.999758e+32
-4.8209304e+32
-3.7903862e+32
-2.7709286e+32
1.7606316e+32
-3.9930048e+32
-3.855287e+32
-4.1194507e+31
-4.5796094e+32
-4.6537989e+32
-2.4958573e+32
-1.6032746e+33
-1.5842667e+33
-3.5206437e+32
6.3813955e+32
-1.7928526e+33
-1.770541e+33
-1.7822943e+33
-1.8473633e+33
-4.2531373e+32
4.8000544e+32
-5.148165e+32
-4.4098022e+32
3.5237938e+32
5.3933794e+32
-2.9745108e+32
5.7766866e+32
-1.5915102e+32
-1.6884752e+33
1.3781134e+32
1.2227145e+32
-7.9368395e+31
-9.802108e+31
1.6542729e+33
1.3592574e+32
-1.969362e+32
-1.1089999e+32
-9.5716174e+31
1.1045394e+32
8.8518723e+31
-2.1361122e+33
1.5245286e+33
1.7513362e+32
-2.5773677e+32
1.8678188e+32
-2.7897804e+32
-1.6240161e+33
-2.2270169e+32
-8.0829738e+31
-9.9654313e+31
1.0650836e+32
1.3265361e+32
-2.1621097e+33
9.4858304e+31
-1.2004833e+32
-9.8173663e+31
1.0979432e+32
-2.5948835e+31
3.4023426e+31
3.479256e+31
-4.7824069e+32
-7.0150471e+30
-1.0606645e+31
-3.5722044e+31
3.0970454e+31
3.4988209e+31
-4.8267068e+32
-1.1255924e+31
-8.4080582e+30
3.1898439e+31
2.8434818e+31
3.3274789e+31
-4.5783947e+32
-1.1629801e+31
-4.4574452e+31
-8.2218745e+30
3.2642137e+31
3.4244269e+31
-4.6895902e+32
-6.6091461e+30
-1.0651111e+31
-2.1948646e+32
1.617798e+32
1.4644606e+32
-2.0680842e+33
-2.4303427e+31
-5.2168606e+31
1.3258257e+32
1.6271505e+32
-2.0368821e+33
-2.7256309e+31
-5.1768626e+31
-2.8133553e+32
-5.8204665e+31
1.2320209e+31
-2.202533e+31
5.9460775e+31
-4.0743132e+32
3.4444106e+31
-5.3337841e+31
-1.3887738e+32
-3.5147425e+32
6.2864452e+31
-1.5576541e+32
-3.5106686e+32
6.2191366e+31
-4.0565881e+32
1.0064929e+32
-2.6579895e+31
-4.1264371e+32
-4.4333612e+32
-4.1793956e+32
-3.9348609e+32
-5.6288824e+31
2.1875607e+31
5.7164921e+31
-2.4095867e+31
-4.0164199e+32
4.299909e+31
-1.3281653e+32
-5.541498e+31
-3.4449735e+32
6.2439047e+31
-1.5757912e+32
-3.5184462e+32
6.1524151e+31
-4.0654775e+32
-3.3433974e+30
-3.7089919e+32
-3.6138665e+32
-2.875773e+32
-2.8711888e+32
2.2367811e+31
2.9298135e+30
-4.2966003e+29
-9.0749102e+31
-8.8931485e+31
-7.282479e+31
-7.4523075e+31
-2.6603886e+30
4.2977447e+30
-5.8722957e+31
-6.1157451e+31
-5.2119059e+31
-4.8897397e+31
2.2452527e+31
-5.7935989e+29
-8.9039637e+31
-9.2561895e+31
-7.3003908e+31
-7.5269137e+31
-8.8427621e+30
-6.1156183e+31
-6.0296832e+31
-5.140414e+31
-5.1526626e+31
5.8608262e+30
2.3947955e+31
-9.2621362e+31
-8.8880193e+31
-7.2534914e+31
-7.500086e+31
-2.3150712e+31
-1.135402e+31
-5.9729044e+31
-6.2005459e+31
-5.2912582e+31
-5.0091816e+31
-9.1842667e+31
-9.0362077e+31
-7.5134708e+31
-7.3731097e+31
-6.0894419e+31
-5.9643723e+31
-5.1259442e+31
-5.0620376e+31
-1.7897344e+33
-1.8284637e+33
-1.493499e+33
-1.5756404e+33
9.1818041e+31
-3.3596436e+31
-4.0091209e+32
-4.282435e+32
-4.2786696e+32
-4.0266051e+32
-2.4928006e+31
-3.5614688e+32
-3.6641008e+32
-2.7586164e+32
-2.907059e+32
-2.7909669e+30
-1.2868074e+31
2.2206665e+30
1.0091323e+31
-1.7189985e+31
-2.2758739e+31
-1.7750382e+31
-2.3578886e+31
-1.346342e+31
1.0548324e+31
-1.755395e+31
-1.7182178e+31
-2.2428007e+31
-2.3633474e+31
3.114442e+30
-5.1958126e+30
-8.700389e+31
-8.5549439e+31
-1.2567267e+31
-4.817049e+29
1.4960623e+30
9.7396488e+30
-1.7095085e+31
-1.768671e+31
-2.242023e+31
-2.3391342e+31
4.9405318e+30
-6.6340704e+30
-8.4961833e+31
-1.3132898e+31
1.0663469e+31
-1.7621911e+31
-2.3658311e+31
-1.723537e+31
-2.2609727e+31
-8.6596088e+31
-1.1712708e+31
2.5728277e+29
9.1542928e+30
8.887495e+29
-1.6975174e+31
-1.7528689e+31
-2.2021167e+31
-2.2947011e+31
-6.6132114e+31
5.7448085e+30
4.4013233e+31
-8.1531497e+31
-8.39716e+31
-1.0750496e+32
-1.0051037e+32
6.3286233e+30
-8.2040827e+31
-8.1096148e+30
-1.2477025e+31
-1.2902662e+30
1.0418653e+31
-1.7554582e+31
-2.333171e+31
-1.7143131e+31
-2.229396e+31
7.0522989e+30
-8.401533e+31
-2.049115e+30
-1.2565862e+31
9.8712873e+30
-1.7197437e+31
-1.7758459e+31
-2.3477708e+31
-2.2651331e+31
-1.3506422e+31
1.0845458e+31
-1.7598963e+31
-1.7196162e+31
-2.2317709e+31
-2.3569103e+31
4.2776828e+30
-8.5234087e+31
-8.4060616e+31
-3.6992394e+31
-3.7138553e+32
-6.1082407e+31
2.162558e+28
3.981112e+31
-8.1367615e+31
-8.4109119e+31
-1.0250918e+32
-1.0499542e+32
-5.6861667e+31
-3.7686012e+32
-4.6901454e+30
-6.6310237e+31
4.6782278e+31
-8.3611547e+31
-8.1726916e+31
-1.0782018e+32
-1.0190208e+32
-6.096006e+31
4.0732399e+31
-4.1071922e+29
-1.0438901e+32
-8.3282374e+31
-8.0623295e+31
-1.0128573e+32
-3.279449e+32
-1.2092479e+31
2.0441108e+32
-3.8927895e+32
-4.7194603e+32
-3.9684632e+32
-4.4034941e+32
4.513302e+31
-3.705998e+32
-6.087164e+31
-3.8070373e+32
-2.4266966e+32
-1.5399142e+33
-3.1257945e+32
1.6770441e+32
-4.0014578e+32
-4.4642002e+32
-1.6980231e+32
1.6026204e+33
1.1538268e+32
-8.4711739e+31
-1.0920699e+32
9.4933383e+31
-2.0714653e+33
-1.5713899e+33
1.9291717e+32
1.3811637e+32
1.1024857e+32
-7.4127701e+31
-9.4939339e+31
-2.5770188e+32
-2.2884313e+32
8.4024464e+31
-1.1070136e+32
1.075768e+32
-9.4942301e+31
-2.0131233e+33
1.4295792e+33
2.3219891e+32
2.6230218e+32
-1.4436421e+33
1.1271732e+32
-6.8286479e+31
-9.6325869e+31
1.3431536e+32
-2.6688961e+31
-3.7092585e+32
-1.5017488e+31
-1.8718338e+31
2.9288042e+31
3.1680841e+31
-3.7298619e+32
-3.7903507e+31
-1.6553386e+31
-1.8695146e+31
2.760937e+31
3.1440681e+31
-1.8806202e+31
-4.5649123e+32
-2.0136633e+31
-2.3444277e+31
2.3363984e+31
2.5514974e+31
-2.9405947e+31
-4.6138217e+32
2.1667038e+31
-2.1987014e+31
-2.3550888e+31
2.4845523e+31
2.071746e+31
3.3767019e+32
-3.0772726e+31
-2.5463334e+31
1.6107761e+31
-2.3823246e+31
1.9072317e+31
-4.2440842e+32
3.4795687e+32
2.645778e+31
-2.5038427e+31
1.8853473e+31
2.0971093e+31
-2.201315e+31
-4.4218634e+32
-2.4578002e+31
4.6008743e+32
3.0554795e+31
-2.1785811e+31
-2.5602163e+31
1.8648166e+31
2.1086403e+31
4.4957045e+32
-3.4359514e+31
-2.4080466e+31
-2.590145e+31
1.6511364e+31
1.9870515e+31
1.3608559e+32
-1.9499991e+32
7.2634243e+31
9.5293446e+31
-1.2894724e+32
-1.0974914e+32
7.0278257e+31
8.6458844e+31
-2.2695233e+31
3.6653916e+32
2.2976308e+31
-2.3104525e+31
2.5668407e+31
-1.9532368e+31
3.6021604e+32
-3.2409996e+31
-2.1506091e+31
-2.3639669e+31
2.0365754e+31
2.4194867e+31
3.2859995e+31
-4.4211124e+31
-1.6094725e+31
-1.9066725e+31
2.5340993e+31
3.0056511e+31
2.7598496e+31
-1.8552829e+31
-1.4549988e+31
3.0694566e+31
-3.4458684e+32
1.9313159e+31
1.7611757e+31
-2.3626453e+31
-2.5626935e+31
2.0946244e+31
1.8444464e+31
-4.370129e+32
1.8465874e+31
1.5157937e+31
-2.7521809e+31
-2.5710951e+31
3.4364082e+32
-4.343985e+32
-2.6027918e+31
1.8331659e+31
-2.3335489e+31
1.9783837e+31
-2.2256644e+31
-2.5187074e+31
1.9093512e+31
2.0750487e+31
-7.8640961e+31
1.0049081e+32
-2.5906878e+30
-5.3438937e+30
3.8853245e+30
-5.2028832e+30
4.3474091e+30
-9.9650904e+31
-1.6408309e+30
-5.4592325e+30
3.7508134e+30
-5.3898352e+30
4.1388092e+30
-7.7498484e+31
-1.7006614e+30
-5.6323584e+30
3.6550458e+30
-5.5586358e+30
4.0421638e+30
-1.219186e+30
3.3686987e+30
3.6555072e+30
-5.9650163e+30
-9.6364078e+31
-6.0173967e+30
-2.7880363e+31
1.716717e+31
1.9588822e+31
-2.5835365e+31
-2.505089e+31
-1.0280664e+32
-3.4508435e+30
-4.2322507e+30
5.5561317e+30
-4.0017829e+30
-7.9617872e+31
-3.6499667e+30
-4.8167201e+30
4.5624233e+30
-4.5789494e+30
5.1391288e+30
-2.2823663e+30
-4.9873228e+30
4.1836567e+30
-4.8350879e+30
4.6710741e+30
-3.3871789e+30
7.4051231e+30
7.4469546e+30
-1.049875e+32
-1.5662723e+30
-2.1096607e+30
-4.3806107e+30
6.8442502e+30
7.4551304e+30
-1.0662977e+32
-2.3032649e+30
-1.9834508e+30
3.7321257e+30
-5.3620718e+30
6.7002385e+30
7.4674063e+30
-1.045553e+32
-2.281836e+30
-1.9183146e+30
7.2810974e+30
7.3727111e+30
-1.0633742e+32
-2.2603384e+30
-1.7086787e+30
4.7487205e+30
6.4171466e+30
7.2495954e+30
-1.0102818e+32
-2.3424789e+30
-1.8954628e+30
-6.8199695e+30
-3.3937872e+31
3.3682784e+31
3.4847597e+31
-4.5997034e+32
-5.2420251e+30
-9.6435464e+30
5.4941579e+30
7.0559925e+30
7.2477537e+30
-1.033643e+32
-2.2721883e+30
-1.649902e+30
-4.1651223e+30
7.4828395e+30
7.439764e+30
-1.0332482e+32
-2.0562483e+30
-1.4082478e+30
7.4907649e+30
6.7683555e+30
-1.0460961e+32
-2.3015877e+30
-1.904089e+30
-4.3514444e+31
2.9847507e+31
3.4386256e+31
-4.6491839e+32
-7.6149744e+30
-1.1152545e+31
-3.4029209e+31
3.3439187e+31
3.5469014e+31
-4.703439e+32
-1.0231948e+31
-5.7776238e+30
3.4850008e+31
2.9881702e+31
-4.5785483e+32
-7.0784612e+30
-1.0755617e+31
-4.5440417e+31
1.5174521e+32
1.6998688e+32
-1.9781564e+33
-1.3524254e+31
-4.4228572e+31
-1.8355742e+32
-4.1886993e+31
-1.7063089e+31
-1.8674249e+33
-4.1980447e+31
-1.7335856e+31
-1.8108209e+32
-1.8494661e+33
-5.4764575e+31
1.3517698e+31
-1.6391529e+31
3.299146e+31
2.9927679e+31
-4.0512222e+32
-5.0909376e+30
-2.498867e+30
3.4434676e+31
-4.4729334e+31
-4.3783115e+32
6.0830665e+31
-4.382068e+32
3.1337746e+31
3.2925753e+31
-4.0403787e+32
-4.4699935e+30
-1.8800779e+30
-5.7052962e+31
1.4855537e+31
5.7105837e+31
-2.4614684e+31
-4.0293736e+32
3.6247637e+31
-5.4684157e+31
-1.3813648e+32
-3.4381604e+32
6.2343755e+31
-1.5587156e+32
-3.4357908e+32
6.0320014e+31
-4.0070265e+32
-5.3197309e+31
1.6158992e+31
3.2648722e+31
2.920253e+31
-1.8011614e+31
-4.0084977e+32
-5.2509696e+30
-2.3425408e+30
3.5976972e+31
-4.6280016e+31
-4.2937203e+32
6.066921e+31
-4.3860203e+32
3.3046283e+31
3.1080527e+31
-4.0413564e+32
-4.516909e+30
-1.5853208e+30
-3.3876855e+30
2.0519426e+31
-3.3419512e+30
-7.342145e+31
-8.913799e+31
-7.4636864e+31
-9.0386808e+31
2.0973345e+31
-9.1438583e+31
-8.7451876e+31
-7.4823845e+31
-7.214301e+31
-4.513133e+30
-1.0329526e+30
-4.9483955e+31
-5.9089345e+31
-6.1012131e+31
-5.2115224e+31
-5.94032e+31
-5.1355427e+31
-6.0857355e+31
-5.07317e+31
-5.5008973e+30
1.5581133e+31
6.1451055e+30
-7.432572e+31
1.4601176e+31
-7.3262505e+31
-6.5685188e+30
2.3394616e+30
1.3785348e+31
-2.2123773e+30
-7.2136042e+31
1.4395571e+31
1.9141587e+30
-7.2912205e+31
4.6141311e+29
2.7550764e+30
-7.5484943e+28
-1.0155493e+31
-1.0450029e+31
-1.3875707e+31
-1.3597379e+31
2.3103175e+30
-1.5292974e+29
-1.0487652e+31
-1.0228802e+31
-1.3615649e+31
-1.4125749e+31
5.3246889e+27
-9.6072972e+29
-9.0680194e+30
-8.9201668e+30
-1.032481e+31
-1.0121689e+31
6.3088489e+29
-8.6676058e+30
-9.7313665e+30
-9.0522116e+30
-1.0162402e+31
-3.7559703e+30
1.6162895e+31
6.2131479e+30
-7.4613422e+31
1.5173377e+31
-7.4265608e+31
-6.555274e+29
1.4879362e+31
1.8818975e+30
-7.2946737e+31
1.4197111e+31
-7.3034236e+31
-1.1235132e+30
2.6579148e+30
-1.3780979e+31
-1.0268072e+31
-1.4033401e+31
-1.0563949e+31
2.5471489e+30
-4.926756e+29
-1.4205969e+31
-1.3655364e+31
-1.0521819e+31
-1.0212301e+31
-1.5995607e+30
-8.8173944e+30
-9.1570286e+30
-1.0308871e+31
-9.9528122e+30
-1.3428158e+30
-8.8800343e+30
-1.0375737e+31
-1.0068799e+31
-9.0661909e+30
3.2315476e+30
1.5356431e+31
-5.3542283e+30
-7.4517352e+31
1.6299825e+31
-7.4991598e+31
-2.45469e+29
1.5115835e+31
-7.2862141e+31
-1.2152676e+30
1.4498047e+31
-7.3172659e+31
-7.9856105e+28
2.8718859e+30
-1.4206847e+31
-1.3799277e+31
-1.4110676e+31
-1.0283721e+31
-1.0613214e+31
2.585572e+30
-1.4906862e+31
-8.6560285e+29
-1.4257332e+31
-1.3754662e+31
-1.0553721e+31
-1.0332684e+31
5.9241245e+29
-1.7072443e+30
-9.0942239e+30
-1.0324222e+31
-8.9731904e+30
-1.0157064e+31
-8.8190612e+30
-9.9084409e+30
-9.2095215e+30
-1.0293661e+31
-4.9566803e+30
1.593891e+31
-7.5187659e+31
1.4976747e+31
-7.4154673e+31
-1.8719321e+30
-7.3445989e+31
-7.2951229e+31
-1.3382975e+30
2.7011125e+30
-1.3772904e+31
-1.4035208e+31
-1.0253913e+31
-1.0562751e+31
2.8607362e+30
-1.4195042e+31
-1.362118e+31
-1.0441888e+31
-1.0097326e+31
-1.9257743e+30
-8.7819369e+30
-9.933083e+30
-9.1849748e+30
-1.0348475e+31
-9.011513e+30
-8.7201798e+30
-1.0286701e+31
-9.8711065e+30
3.6880987e+31
8.1928897e+31
-4.1639053e+32
-4.1471838e+32
-3.9978791e+32
7.9228525e+31
-4.1464655e+32
-4.3831832e+32
-4.1065776e+32
-3.9399512e+32
3.6109062e+31
-3.5668155e+32
-2.7852584e+32
-3.6299026e+32
-3.5646856e+32
-2.8067142e+32
-2.806894e+32
-5.460801e+31
2.350207e+31
5.4360209e+31
-2.4725317e+31
-3.9944094e+32
4.3250465e+31
-1.3115474e+32
-5.4094783e+31
-3.408524e+32
6.05868e+31
-1.5631898e+32
-3.4356846e+32
5.7924688e+31
-4.01111e+32
5.955135e+30
1.8870306e+31
-2.7390407e+30
-8.9311132e+31
-8.7830986e+31
-7.2673287e+31
-7.4057596e+31
1.8573188e+31
-9.0734827e+31
-7.4645498e+31
-8.6974279e+31
-7.2090781e+31
5.6215614e+30
-4.2324406e+30
-5.7953809e+31
-4.8549407e+31
-6.0031268e+31
-5.1113522e+31
-5.9023795e+31
-5.0790964e+31
-6.0281503e+31
-5.0665557e+31
-2.7757526e+30
-1.3034253e+29
3.2623753e+29
2.9665384e+30
-3.6322994e+30
-3.5055788e+30
-5.1014833e+30
-5.3373048e+30
5.5927923e+29
-6.8425555e+29
-1.8565266e+31
-2.8569933e+30
-5.3370281e+29
3.1412426e+30
-5.3668572e+30
-3.5927032e+30
-3.5177585e+30
-5.1539511e+30
4.7597652e+29
-1.8897446e+31
-6.4385297e+29
-2.9028179e+30
3.1673605e+30
-3.6525416e+30
-3.5171434e+30
-5.1708658e+30
-5.3677901e+30
-3.0089089e+30
3.1160485e+30
-3.5014648e+30
-3.5762412e+30
-5.3464272e+30
-5.0892894e+30
-2.7336659e+29
-1.8507488e+31
-1.8886727e+31
4.5257133e+28
-2.7772532e+30
2.6813053e+29
2.9211345e+30
-3.6340793e+30
-3.5186836e+30
-5.0772306e+30
-5.3223599e+30
-2.8728696e+30
-2.1397485e+29
3.0979928e+30
-3.610606e+30
-3.5425374e+30
-5.3475416e+30
-5.1519159e+30
7.9183549e+29
-9.261745e+29
-1.8362906e+31
7.6428534e+29
-1.8769256e+31
-2.8343547e+30
-4.0820383e+29
3.0608381e+30
-3.6340117e+30
-3.5119024e+30
-5.1468314e+30
-5.3614197e+30
3.7750678e+29
-1.8824789e+31
-2.9896547e+30
3.1600161e+30
-3.5813314e+30
-3.493086e+30
-5.3331575e+30
-5.0801225e+30
-1.8533419e+31
2.1069223e+30
-1.3797327e+31
1.0936321e+31
-1.7456692e+31
-1.7027631e+31
-2.2050344e+31
-2.3353994e+31
1.1023299e+29
-2.6847723e+30
2.8687796e+30
1.9632173e+29
-3.6130145e+30
-3.4923901e+30
-5.0575232e+30
-5.3028073e+30
-2.7938475e+30
-1.393597e+29
3.0880938e+30
-3.5902765e+30
-3.5222633e+30
-5.328327e+30
-5.1324757e+30
9.2403945e+29
-1.8107421e+31
-1.1054106e+30
9.5660993e+29
-1.8523834e+31
-1.3152145e+31
1.7453918e+30
1.0223376e+31
-1.7122549e+31
-1.768412e+31
-2.3330891e+31
-2.2543738e+31
4.3703068e+30
-6.4013658e+30
-8.4943263e+31
-8.3199406e+31
-2.7693689e+30
-3.5799723e+29
3.0525563e+30
-3.6282241e+30
-3.5069933e+30
-5.1351468e+30
-5.3487672e+30
5.1760716e+29
-1.8606084e+31
-2.9376293e+30
-2.725835e+29
3.1616426e+30
-3.4844938e+30
-3.5737403e+30
-5.3253746e+30
-5.0689486e+30
8.7640683e+29
-1.8342635e+31
-8.1484862e+28
-2.7554684e+30
2.9388083e+30
-3.6270561e+30
-3.5052916e+30
-5.1037458e+30
-5.3357817e+30
-2.8542939e+30
-4.1265731e+29
3.1091555e+30
-3.5420141e+30
-3.5999908e+30
-5.3790832e+30
-5.1610597e+30
-6.9154367e+29
6.7592263e+29
-1.8825616e+31
-1.8453581e+31
-5.4171132e+29
-2.9049405e+30
3.1349577e+30
-3.5247952e+30
-5.1739848e+30
-5.3648985e+30
-3.6362468e+30
-3.0743131e+30
3.1944469e+30
-3.5966723e+30
-3.5368475e+30
-5.3502379e+30
-5.1061182e+30
-4.1967945e+29
-1.8415678e+31
-1.8778036e+31
3.6501591e+28
-1.245625e+31
6.5728773e+29
9.7651248e+30
-1.6918009e+31
-1.7441787e+31
-2.2956483e+31
-2.2054001e+31
-1.3215743e+31
1.0941525e+31
-1.7478204e+31
-1.7040562e+31
-2.2233155e+31
-2.3301084e+31
5.7538988e+30
-7.8807087e+30
-8.299111e+31
-8.4472375e+31
-1.3280776e+30
-1.3392118e+31
6.5808359e+29
1.0468138e+31
-1.6983072e+31
-1.7478244e+31
-2.2415602e+31
-2.3140653e+31
-1.4293694e+31
1.1477718e+31
-2.3321446e+31
-1.7388488e+31
-1.6877136e+31
-2.1994657e+31
4.8526213e+30
-7.5647733e+30
-8.5060958e+31
-8.3754848e+31
5.9197333e+30
-7.3135944e+31
5.0202059e+31
-8.3805464e+31
-8.1610967e+31
-1.0023554e+32
-1.0702346e+32
1.375688e+31
-6.5290632e+30
-8.4331595e+31
-4.0374876e+29
1.1350383e+31
-1.7358194e+31
-1.7021778e+31
-2.325387e+31
-2.2180199e+31
-1.2930793e+31
9.9804732e+30
1.043864e+30
-2.2016077e+31
-1.6800235e+31
-1.7406782e+31
-2.2897484e+31
-8.2461125e+31
-8.4027503e+30
6.5688055e+31
3.9358104e+31
-5.6078915e+31
-3.6916802e+32
2.8857394e+30
4.2154717e+31
-1.0159743e+32
-8.1032959e+31
-8.4003068e+31
-1.0364548e+32
-3.65012e+32
-6.8663598e+31
4.5182142e+31
-8.3711346e+31
-1.0605129e+32
-8.1884448e+31
-1.00738e+32
-3.6327357e+32
-3.3970491e+32
-2.6489984e+31
4.5167397e+32
-2.1237113e+31
-2.4835709e+31
1.9595423e+31
2.202151e+31
-2.2050242e+31
-2.4378309e+31
-2.1257945e+31
1.8928482e+31
2.0853415e+31
-4.2728477e+32
3.4104792e+32
-2.8128657e+31
-2.5808674e+31
-2.4148458e+31
1.6137556e+31
1.8869041e+31
-4.2922591e+32
-3.179673e+31
4.5453666e+32
1.6688795e+31
-2.3946883e+31
-2.5928298e+31
1.9937804e+31
-1.7273386e+32
9.4770219e+31
7.5810515e+31
-9.8475278e+31
-1.2715683e+32
-3.603185e+31
-3.6688215e+32
4.4807358e+31
-1.4470492e+31
-1.8843235e+31
3.1311779e+31
2.7881075e+31
-3.5883727e+32
-1.5724696e+31
-1.8892238e+31
-4.7101393e+31
3.0882695e+31
2.6034781e+31
-2.4192026e+31
-4.5365914e+32
2.9904535e+31
-1.9435633e+31
-2.2896742e+31
2.328808e+31
2.5981091e+31
-4.4329991e+32
-3.568113e+31
-2.1158813e+31
2.4510882e+31
-2.3117551e+31
2.0777906e+31
-1.5236144e+33
1.3450697e+32
-6.5740732e+31
-9.2161989e+31
1.1292094e+32
9.1470719e+31
-1.0724755e+32
-8.1054533e+31
1.1091273e+32
-1.9662381e+33
-3.3453615e+32
2.7422327e+31
-3.9300281e+31
1.6519149e+31
-2.3644074e+31
-2.5786404e+31
2.0049993e+31
2.3153755e+31
-3.2890329e+31
1.8725094e+31
1.5649833e+31
-2.5996118e+31
-2.4229179e+31
-4.1965056e+32
-3.4181932e+32
1.847772e+31
-2.2244556e+31
-2.5669629e+31
2.0799058e+31
1.9660433e+31
1.7737464e+31
-2.5991898e+31
-2.2975139e+31
-4.3016738e+32
-2.3077662e+32
7.2698231e+31
9.2019037e+31
-1.1987563e+32
-1.031062e+32
-3.6373939e+32
3.4393799e+31
-1.5838657e+31
-1.8910423e+31
2.6154628e+31
3.054633e+31
-2.3785339e+31
3.6417776e+32
2.6864833e+31
-2.208938e+31
-1.8237651e+31
2.4047269e+31
2.0699838e+31
-2.1171793e+31
-2.3346111e+31
2.4408663e+31
2.8344901e+31
-1.3365689e+31
-1.7895174e+31
3.1621414e+31
-2.618381e+30
8.2279889e+31
-1.0251242e+32
-4.1578925e+30
-3.5775653e+30
5.9266033e+30
6.1914465e+30
8.2798934e+31
-3.5185399e+30
-1.0379587e+32
-4.2738259e+30
5.4795094e+30
-4.0263852e+30
5.999469e+30
3.7797894e+30
-4.981909e+30
-3.4389015e+30
6.3083317e+30
-3.1199518e+30
6.9098543e+30
-3.3097475e+30
6.7192312e+30
-2.7200451e+30
7.0018206e+30
-2.6845105e+30
8.2706465e+31
-1.0380804e+32
-4.2932026e+30
-3.7607519e+30
5.7349957e+30
6.0331233e+30
8.1904072e+31
-1.022367e+32
-4.2478573e+30
5.430243e+30
-4.2557594e+30
-3.9960615e+30
6.0224149e+30
4.1456947e+30
-5.6923271e+30
-3.4249152e+30
-3.1203038e+30
6.1855017e+30
6.8644925e+30
-3.4686377e+30
-2.9005217e+30
6.4991584e+30
6.8435117e+30
-1.9369518e+30
7.916772e+31
-9.9528843e+31
-4.9515008e+30
-4.443028e+30
4.5263921e+30
4.7472189e+30
7.9723977e+31
-2.7420136e+30
-1.010275e+32
-5.0900128e+30
-4.883898e+30
4.0869636e+30
4.5512633e+30
2.774274e+30
-3.6989515e+30
-4.8256955e+30
4.5334918e+30
-4.5611809e+30
5.0701566e+30
-4.7048299e+30
-4.1429462e+30
4.9402907e+30
5.2020644e+30
-7.8809464e+31
3.1082727e+30
-4.8591272e+30
-4.8846433e+30
4.4414516e+30
-4.6092968e+30
5.0431518e+30
-2.3234516e+30
8.0049285e+31
-1.0160648e+32
-5.1098154e+30
-4.6501227e+30
4.3361799e+30
4.5753899e+30
-3.9551711e+30
-9.918383e+31
-5.1124405e+30
3.9525003e+30
-4.8904238e+30
4.5055665e+30
-4.873546e+30
-4.3722024e+30
4.7350523e+30
5.0067879e+30
7.664572e+31
1.3241355e+30
-2.4544226e+30
3.2320065e+30
3.6074392e+30
-9.5828953e+31
-5.9692191e+30
-6.0200473e+30
2.077686e+30
9.7871214e+31
-3.405306e+30
-5.6740387e+30
-5.4743732e+30
3.4390746e+30
3.9192237e+30
7.7846221e+31
1.505721e+30
3.5769274e+30
3.6961361e+30
-9.7339183e+31
-5.6876892e+30
-6.0972493e+30
2.2578518e+30
9.9931171e+31
-5.6572963e+30
-5.2554229e+30
3.7867841e+30
3.9331376e+30
2.5151295e+31
-3.2920925e+32
-3.5873265e+31
1.7273533e+31
1.9289848e+31
-2.4241041e+31
-2.4165302e+31
7.8559912e+31
1.5179753e+30
3.3303021e+30
3.7412195e+30
-9.8618148e+31
-5.9410513e+30
-6.1229185e+30
2.1414668e+30
1.0095213e+32
-5.6413948e+30
3.6115655e+30
-5.437886e+30
4.0453593e+30
-7.8249886e+31
9.9769815e+31
3.7944122e+30
-5.5007558e+30
4.072578e+30
-5.0157637e+30
4.2421616e+30
3.1178406e+30
3.7562377e+30
4.0022849e+30
-9.8240691e+31
-5.3830097e+30
-5.9977253e+30
-3.4139882e+32
2.9200152e+31
1.8100912e+31
2.0656138e+31
-2.1815473e+31
-2.6484506e+31
-1.9772322e+30
7.8159799e+31
3.4603481e+30
-5.3113226e+30
-4.8182784e+30
4.1348219e+30
4.3358705e+30
7.8642441e+31
-2.305016e+30
-5.4725571e+30
3.6874426e+30
-5.2985899e+30
4.1190124e+30
2.8123028e+30
-3.7061772e+30
1.0062643e+32
-5.357759e+30
3.7666543e+30
-5.1147088e+30
4.2638719e+30
9.9274794e+31
4.2652718e+30
-5.2537442e+30
4.1217609e+30
-4.7149269e+30
4.3653534e+30
-1.8947347e+30
7.7977427e+31
-5.4790084e+30
3.8984328e+30
-5.0493563e+30
4.0929293e+30
7.6705332e+31
-3.3576516e+30
-5.4918976e+30
3.515608e+30
-5.3083665e+30
4.0120063e+30
3.3611207e+30
9.7558189e+31
-4.8613544e+30
-5.4067754e+30
3.5580359e+30
-5.1331161e+30
4.1405989e+30
9.972437e+31
-5.3967848e+30
3.904004e+30
-4.9004379e+30
4.1717373e+30
2.5565247e+31
-3.6150312e+31
1.6338847e+31
-2.6347622e+31
-2.4486169e+31
1.8932024e+31
-2.6310363e+31
1.8844521e+31
2.0956913e+31
2.1363177e+31
-2.6847281e+31
1.4679496e+31
-2.5545923e+31
1.7576396e+31
-2.3423119e+31
-2.6170631e+31
1.7205305e+31
1.861642e+31
-7.9250825e+31
3.6185216e+30
-4.5714628e+30
1.0286451e+32
-4.8137278e+30
-4.4934401e+30
4.5161275e+30
5.1066078e+30
2.7333379e+30
-3.3417373e+30
-5.0351885e+30
-4.7850482e+30
4.0904668e+30
4.6092489e+30
-7.8498967e+31
1.015145e+32
-4.6794972e+30
4.9066873e+30
-4.0490178e+30
5.2341022e+30
-4.340051e+30
-4.914427e+30
4.4905159e+30
4.7855903e+30
-2.991257e+30
7.8606894e+31
-5.0608721e+30
4.2755969e+30
-4.5390037e+30
4.585185e+30
7.7304128e+31
-4.8225053e+30
-5.0924913e+30
3.8690083e+30
-4.808552e+30
4.477676e+30
4.0450868e+30
9.9869039e+31
-6.0909863e+30
-4.8758418e+30
4.2933401e+30
-4.5269603e+30
4.956204e+30
1.0177058e+32
-4.8507725e+30
4.646264e+30
-4.2791121e+30
4.988426e+30
-3.432028e+30
8.1068189e+31
4.1631511e+30
-4.2229415e+30
-3.635282e+30
5.6799549e+30
6.0548122e+30
7.9800498e+31
-5.4316152e+30
-4.2607882e+30
-3.9277916e+30
5.2532475e+30
5.9367356e+30
5.2997041e+30
-7.3219485e+30
-3.4851222e+30
-3.0508852e+30
5.9420095e+30
6.7295545e+30
6.269981e+30
-3.456693e+30
-2.8168974e+30
6.3144314e+30
6.7492865e+30
-8.190446e+31
4.6605873e+30
-3.4730178e+30
6.1791089e+30
-3.0772335e+30
6.8738894e+30
3.2163965e+30
-4.2214865e+30
5.4550307e+30
-3.9257867e+30
6.0462172e+30
8.129292e+31
-4.0871732e+30
-3.4406987e+30
5.9095468e+30
6.2584581e+30
-3.3061628e+30
6.5943898e+30
-2.6361528e+30
6.9788573e+30
-7.6964433e+31
2.6401402e+30
-5.4815945e+30
3.6119038e+30
-5.2631053e+30
4.1502916e+30
-1.6307581e+30
7.8671311e+31
-9.9572693e+31
1.4603155e+30
-5.4854051e+30
-5.1162145e+30
3.9598027e+30
4.0871926e+30
-9.7040469e+31
-5.5987715e+30
3.4148018e+30
-5.4355389e+30
3.8982004e+30
2.8776838e+30
-5.4111621e+30
-4.9865515e+30
3.9854597e+30
4.1857853e+30
-2.0436282e+30
-7.7397939e+31
1.454207e+30
-5.629147e+30
3.8447531e+30
-5.2762327e+30
3.9411708e+30
-7.5838161e+31
-5.7937385e+30
3.29832e+30
-5.5960525e+30
3.7978855e+30
1.5066389e+30
-9.5335073e+31
2.7829148e+30
3.4145964e+30
-6.4101669e+30
-6.2010397e+30
1.1085431e+30
-9.7458945e+31
3.409853e+30
3.470578e+30
-5.897835e+30
-6.2344462e+30
7.7515414e+31
6.8271657e+29
-9.777507e+31
3.3658573e+30
3.5336643e+30
-6.1145492e+30
-6.1274096e+30
9.7096142e+29
9.9814609e+31
-5.5799942e+30
3.5991783e+30
-5.4560126e+30
3.9525428e+30
7.6978825e+31
-9.6388188e+31
3.6377223e+30
3.6640931e+30
-5.7157688e+30
-6.0486401e+30
9.8551925e+31
-5.451557e+30
3.9804682e+30
-5.0896631e+30
4.0417899e+30
-1.060991e+30
7.7796462e+31
-5.3723363e+30
4.0651147e+30
-4.9564228e+30
4.1826257e+30
7.8279388e+31
-5.504935e+30
3.6295412e+30
-5.3833406e+30
4.0062078e+30
1.9084593e+30
-5.4009748e+30
3.7312399e+30
-5.2030737e+30
4.1874365e+30
-5.2784341e+30
4.1249854e+30
-4.8085971e+30
4.2979246e+30
1.6118616e+31
1.1968508e+29
-2.0776977e+31
-2.8253974e+29
8.6924382e+29
-1.0983024e+30
7.8003575e+29
-1.0736513e+30
2.5414019e+29
2.0555444e+31
-3.7183783e+29
-1.0832536e+30
8.023767e+29
8.9661538e+29
-1.0495417e+30
1.6440336e+31
-2.1283905e+31
-1.0267796e+30
8.8323786e+29
-1.1034525e+30
8.5889985e+29
2.1070281e+31
-1.0897498e+30
8.7651099e+29
-1.0113967e+30
9.0556455e+29
1.6355441e+31
9.110122e+28
-2.1072443e+31
-2.4502622e+29
8.6110642e+29
-1.1216698e+30
7.7388968e+29
-1.1016295e+30
1.3603871e+29
-2.6617943e+29
-1.1105639e+30
7.8289591e+29
8.702751e+29
-1.0831878e+30
1.6700089e+31
-2.1626897e+31
8.6961698e+29
-1.1298413e+30
8.5139227e+29
-1.0593475e+30
-1.1196539e+30
8.578986e+29
-1.0401774e+30
8.7978093e+29
1.6705661e+31
2.9103769e+28
-2.1602893e+31
-1.7656418e+29
8.7406152e+29
-1.1374088e+30
8.0065124e+29
-1.124968e+30
1.1886763e+29
-2.2311847e+29
-1.1381399e+30
7.8279306e+29
8.6535389e+29
-1.1174908e+30
1.7040053e+31
-2.2133109e+31
8.9749647e+29
-1.1391777e+30
8.7993448e+29
-1.0715352e+30
-1.1511647e+30
8.5446243e+29
-1.0792782e+30
8.753097e+29
2.9530021e+28
-1.7216029e+31
-1.3659146e+29
-1.2362987e+30
-1.2243321e+30
7.359206e+29
8.1360888e+29
-1.7536918e+31
-4.4177759e+28
7.9828571e+29
8.2068599e+29
-1.2789045e+30
-1.2070425e+30
4.6071923e+28
-1.6341849e+29
-1.203218e+30
-2.1860481e+31
6.098781e+29
-7.4725602e+31
-1.6613302e+30
3.64221e+30
-5.4466477e+30
-5.582297e+30
3.9668855e+30
3.3885468e+28
-2.2367406e+31
-1.1747209e+30
-1.7664476e+31
-1.2498743e+30
-1.2360609e+30
7.669345e+29
8.3185261e+29
-7.6468372e+31
4.0258845e+30
-5.4824421e+30
-5.3873892e+30
4.0064114e+30
-2.2567528e+31
-1.1483347e+30
-2.4432495e+29
-1.0372578e+30
3.8187719e+30
-5.6314936e+30
-5.6648501e+30
3.9834041e+30
3.993433e+30
-5.7681229e+30
-5.4606659e+30
4.0247248e+30
1.6652023e+31
3.2528317e+29
-2.1017142e+31
-5.4883032e+29
1.1361547e+30
-9.2314302e+29
1.0311987e+30
-8.877913e+29
-6.2594699e+29
-8.4752379e+29
1.1312269e+30
1.2358989e+30
-8.0919905e+29
-2.1551182e+31
1.1404638e+30
-9.3530119e+29
1.1052819e+30
-8.4830172e+29
1.6274707e+31
2.6017819e+29
-2.0703974e+31
-4.7451593e+29
9.7188681e+29
-1.0237643e+30
8.6721632e+29
-9.8845308e+29
4.2308077e+29
-6.2029253e+29
-9.9557671e+29
9.285511e+29
1.0369489e+30
-9.5272182e+29
1.6597224e+31
-2.120217e+31
-9.4452296e+29
9.8157004e+29
-1.0300234e+30
9.4388978e+29
-1.0033677e+30
1.0016312e+30
-9.1589184e+29
1.0390183e+30
1.6080709e+31
2.1249525e+29
-3.6238519e+29
9.0332485e+29
-1.0539416e+30
8.1207222e+29
-1.0241522e+30
3.2304656e+29
-4.7431406e+29
-1.0455497e+30
8.3231497e+29
9.3254206e+29
-1.0076479e+30
1.6402296e+31
9.1935771e+29
-1.0606035e+30
8.8631298e+29
-9.7933892e+29
-1.053817e+30
9.0473646e+29
-9.690714e+29
9.3920809e+29
-3.7717878e+29
1.6510762e+30
1.5827185e+30
-2.2486225e+31
-5.6015786e+29
-4.8311456e+29
-4.0108953e+29
1.5234098e+30
1.6081371e+30
-2.2928003e+31
-6.021808e+29
-5.7383955e+29
3.4250767e+29
-5.8065108e+29
1.4748247e+30
1.5870293e+30
-2.2494865e+31
-6.135589e+29
-5.8381654e+29
1.595794e+30
1.5504067e+30
-2.2920715e+31
-6.1633135e+29
-5.4863269e+29
4.9640346e+29
-7.6080455e+29
1.4531017e+30
1.6168134e+30
-2.2291474e+31
-6.0416467e+29
-5.5461558e+29
5.7598239e+29
1.5689129e+30
1.580242e+30
-2.2778865e+31
-5.2579542e+29
-6.1164352e+29
4.4011827e+29
1.4716103e+30
1.6093581e+30
-2.2830407e+31
-6.1990286e+29
-5.7992139e+29
1.6086814e+30
1.5688806e+30
-2.2485728e+31
-4.9759717e+29
-5.7686661e+29
5.9537751e+29
1.4309392e+30
1.5960805e+30
-2.1975674e+31
-9.2582252e+29
-6.1067008e+29
-5.6012951e+29
6.8543331e+29
1.5488549e+30
1.5677043e+30
-2.2486567e+31
-5.2377016e+29
-6.1557409e+29
-4.5811493e+30
7.5400706e+30
7.4947912e+30
-1.025341e+32
-1.2552872e+30
-1.9257233e+30
-5.3601826e+30
7.5844263e+30
6.9168818e+30
-1.0439871e+32
-2.1530745e+30
-1.7573035e+30
5.2913907e+29
1.455423e+30
1.6001472e+30
-2.2572967e+31
-6.2638209e+29
-5.7819788e+29
7.0707203e+29
1.5941582e+30
1.5613662e+30
-2.2251181e+31
-5.8139867e+29
-4.9341447e+29
5.0119694e+29
-5.3952308e+29