/*--------------------------------*- C++ -*----------------------------------*\
  =========                 |
  \\      /  F ield         | OpenFOAM: The Open Source CFD Toolbox
   \\    /   O peration     | Website:  https://openfoam.org
    \\  /    A nd           | Version:  7
     \\/     M anipulation  |
\*---------------------------------------------------------------------------*/
FoamFile
{
    version     2.0;
    format      ascii;
    class       volScalarField;
    location    "6000";
    object      pMean;
}
// * * * * * * * * * * * * * * * * * * * * * * * * * * * * * * * * * * * * * //

dimensions      [0 2 -2 0 0 0 0];

internalField   nonuniform List<scalar> 
33730
(
-1.0268765e+70
-9.9599536e+69
-1.0333506e+70
-1.0202883e+70
-1.014601e+70
-1.0212018e+70
-1.0235818e+70
-1.0136022e+70
-9.6030079e+69
-1.0130841e+70
-1.0113779e+70
-9.9720697e+69
-1.0191764e+70
-1.0187999e+70
-1.0222979e+70
-1.0225272e+70
-1.0341623e+70
-1.0335425e+70
-1.0365119e+70
-1.0335174e+70
-1.0367514e+70
-1.034066e+70
-1.0336935e+70
-1.0366447e+70
-1.0212861e+70
-1.0369534e+70
-1.0195266e+70
-1.0142647e+70
-1.0123073e+70
-1.0221716e+70
-9.6186618e+69
-9.8182654e+69
-9.5965166e+69
-9.4905338e+69
-9.6195779e+69
-9.5702686e+69
-9.4208197e+69
-9.8051429e+69
-9.6042414e+69
-1.0334063e+70
-1.0328875e+70
-1.0330719e+70
-1.0329634e+70
-1.0113056e+70
-1.0107758e+70
-1.0252135e+70
-1.0225262e+70
-1.0223197e+70
-1.0253304e+70
-1.0196954e+70
-1.0257252e+70
-1.0228563e+70
-1.022644e+70
-1.0253679e+70
-1.0235388e+70
-1.0232756e+70
-1.0304466e+70
-1.0228363e+70
-1.02999e+70
-1.0231987e+70
-1.0297316e+70
-1.0227384e+70
-1.0303323e+70
-1.0326696e+70
-1.0201834e+70
-1.0239521e+70
-1.0396833e+70
-1.0393312e+70
-1.0430053e+70
-1.0422087e+70
-1.0397504e+70
-1.0423249e+70
-1.0398212e+70
-1.0429927e+70
-1.039912e+70
-1.0338705e+70
-1.0424071e+70
-1.040004e+70
-1.0433241e+70
-1.0400102e+70
-1.0399394e+70
-1.0434248e+70
-1.0424676e+70
-1.0360248e+70
-1.0335985e+70
-1.0355402e+70
-1.0328691e+70
-1.0326095e+70
-1.0172407e+70
-1.0334422e+70
-1.0345343e+70
-1.0115081e+70
-1.0187872e+70
-1.01236e+70
-9.6017912e+69
-9.8150856e+69
-9.6136478e+69
-9.4809734e+69
-9.6063209e+69
-9.6202492e+69
-9.4994913e+69
-9.8126032e+69
-1.0111483e+70
-1.0113127e+70
-9.9320137e+69
-9.9378397e+69
-9.6205756e+69
-9.6146464e+69
-9.7654295e+69
-9.7640031e+69
-9.2703705e+69
-9.2695106e+69
-9.9244059e+69
-9.9199635e+69
-1.0105898e+70
-1.0109526e+70
-9.7727994e+69
-9.6287112e+69
-9.6204921e+69
-9.7640355e+69
-9.8509962e+69
-9.7716861e+69
-9.6791353e+69
-9.6091637e+69
-9.4156036e+69
-1.0211335e+70
-1.0078872e+70
-9.9746646e+69
-1.0443805e+70
-1.0447676e+70
-1.0441869e+70
-1.0444894e+70
-1.0444913e+70
-1.0322898e+70
-1.0448169e+70
-1.0441211e+70
-1.0449509e+70
-1.0324978e+70
-1.0314505e+70
-1.0308631e+70
-1.0091281e+70
-1.0080342e+70
-1.0080942e+70
-1.0269561e+70
-1.0211211e+70
-1.020496e+70
-1.0264773e+70
-1.0256348e+70
-1.0228476e+70
-1.0226482e+70
-1.0257173e+70
-1.0270963e+70
-1.0210976e+70
-1.020892e+70
-1.0267908e+70
-1.0233901e+70
-1.0235256e+70
-1.0306574e+70
-1.0307494e+70
-1.0283422e+70
-1.0282868e+70
-1.0330909e+70
-1.0327624e+70
-1.0312445e+70
-1.030965e+70
-1.0346734e+70
-1.0348523e+70
-1.0281164e+70
-1.0282586e+70
-1.0327229e+70
-1.0327019e+70
-1.0309399e+70
-1.0309429e+70
-1.0346321e+70
-1.0346725e+70
-1.0280413e+70
-1.0278125e+70
-1.0326592e+70
-1.0325474e+70
-1.0308848e+70
-1.030847e+70
-1.0344389e+70
-1.0344585e+70
-1.0281879e+70
-1.0280942e+70
-1.0326463e+70
-1.0327502e+70
-1.0307929e+70
-1.0309558e+70
-1.0343311e+70
-1.0344176e+70
-1.0218428e+70
-1.0198518e+70
-1.0244106e+70
-1.0225639e+70
-1.0260956e+70
-1.022877e+70
-1.0226582e+70
-1.0254849e+70
-1.0239189e+70
-1.0231973e+70
-1.0311529e+70
-1.0305496e+70
-1.0450764e+70
-1.0464462e+70
-1.0452704e+70
-1.0470137e+70
-1.045053e+70
-1.044498e+70
-1.0458597e+70
-1.0468103e+70
-1.0448484e+70
-1.0452319e+70
-1.0463204e+70
-1.0469617e+70
-1.0453971e+70
-1.0469272e+70
-1.0450747e+70
-1.0462443e+70
-1.039953e+70
-1.0448977e+70
-1.0452799e+70
-1.0461381e+70
-1.0469872e+70
-1.0401072e+70
-1.0428994e+70
-1.042147e+70
-1.0453565e+70
-1.0470232e+70
-1.0450932e+70
-1.0463613e+70
-1.0451769e+70
-1.0454516e+70
-1.0472521e+70
-1.0466209e+70
-1.0454516e+70
-1.0448871e+70
-1.046263e+70
-1.0471523e+70
-1.0396574e+70
-1.0399325e+70
-1.0414607e+70
-1.0427078e+70
-1.0390845e+70
-1.0391762e+70
-1.0409031e+70
-1.0405119e+70
-1.0307833e+70
-1.0406691e+70
-1.0386559e+70
-1.0384645e+70
-1.0397644e+70
-1.0326863e+70
-1.0314053e+70
-1.0319748e+70
-1.0309898e+70
-1.0330488e+70
-9.7606835e+69
-9.6120341e+69
-9.619019e+69
-9.763455e+69
-9.2783654e+69
-1.0100911e+70
-1.0092019e+70
-9.9236755e+69
-9.9203739e+69
-9.8074065e+69
-9.6102605e+69
-9.7634505e+69
-9.6080257e+69
-9.7635465e+69
-9.6083317e+69
-9.2955918e+69
-1.0105319e+70
-9.9178713e+69
-9.9217784e+69
-1.0101557e+70
-1.0208657e+70
-1.0211826e+70
-1.031176e+70
-1.0306479e+70
-1.0209161e+70
-1.0205565e+70
-1.0305081e+70
-1.0309974e+70
-9.976546e+69
-9.9789977e+69
-1.0080947e+70
-1.0077546e+70
-1.0077891e+70
-9.9779288e+69
-9.9778173e+69
-1.0080514e+70
-9.6022704e+69
-9.6752722e+69
-9.6041737e+69
-9.6772499e+69
-9.4186986e+69
-9.6046608e+69
-9.677788e+69
-9.6779309e+69
-9.6042906e+69
-9.421491e+69
-9.7717213e+69
-9.7705243e+69
-9.8511457e+69
-9.8504866e+69
-9.7680229e+69
-9.7661685e+69
-9.8470674e+69
-9.8494834e+69
-9.2607566e+69
-9.2636479e+69
-9.4227224e+69
-9.4142424e+69
-1.0077287e+70
-9.9736598e+69
-1.007343e+70
-9.9724479e+69
-9.9718447e+69
-9.9705484e+69
-1.0072654e+70
-1.0076205e+70
-1.02074e+70
-1.020328e+70
-1.0308115e+70
-1.031379e+70
-1.0314542e+70
-1.0208824e+70
-1.0204239e+70
-1.0305467e+70
-9.856104e+69
-9.7805923e+69
-9.7806222e+69
-9.857732e+69
-9.6851229e+69
-9.6846053e+69
-9.6128022e+69
-9.6130515e+69
-9.6122544e+69
-9.6836782e+69
-9.6078092e+69
-9.6785791e+69
-9.7733565e+69
-9.7782282e+69
-9.8577401e+69
-9.8531917e+69
-9.8605467e+69
-9.8984744e+69
-9.8593774e+69
-9.8977183e+69
-9.7685111e+69
-9.8001099e+69
-9.7661779e+69
-9.7983946e+69
-9.6715393e+69
-9.7030586e+69
-9.6690798e+69
-9.7006007e+69
-9.6159605e+69
-9.612804e+69
-9.5887067e+69
-9.4968479e+69
-9.5855108e+69
-9.6109977e+69
-9.4922425e+69
-9.5834237e+69
-9.4196564e+69
-9.4164602e+69
-1.024702e+70
-1.0304865e+70
-1.0248776e+70
-1.0093964e+70
-1.0153845e+70
-1.0094749e+70
-1.0155851e+70
-9.974089e+69
-1.0018677e+70
-9.9733069e+69
-1.0018953e+70
-1.0486038e+70
-1.049124e+70
-1.0489712e+70
-1.049196e+70
-1.0488134e+70
-1.0491196e+70
-1.0491223e+70
-1.0487417e+70
-1.0488522e+70
-1.0492759e+70
-1.0439179e+70
-1.0444274e+70
-1.0493505e+70
-1.0489583e+70
-1.0492278e+70
-1.0486524e+70
-1.0492051e+70
-1.0493881e+70
-1.0442717e+70
-1.0436454e+70
-1.0428072e+70
-1.0427121e+70
-1.0424838e+70
-1.0420423e+70
-1.0299578e+70
-1.0298612e+70
-1.0300732e+70
-1.0081515e+70
-1.0086903e+70
-9.9455817e+69
-9.9460208e+69
-1.0263511e+70
-1.033964e+70
-1.0339966e+70
-1.012259e+70
-1.0119827e+70
-1.0261368e+70
-1.034003e+70
-1.0336606e+70
-1.0272644e+70
-1.0213755e+70
-1.0208263e+70
-1.0268578e+70
-1.0266059e+70
-1.0341273e+70
-1.0342679e+70
-1.0123633e+70
-1.0120355e+70
-1.0261138e+70
-1.034245e+70
-1.0339989e+70
-1.0332788e+70
-1.0284772e+70
-1.0332584e+70
-1.0286471e+70
-1.0284936e+70
-1.0282774e+70
-1.033139e+70
-1.0331714e+70
-1.0350137e+70
-1.0313669e+70
-1.0313446e+70
-1.0350886e+70
-1.0313472e+70
-1.0350261e+70
-1.0312565e+70
-1.0351072e+70
-1.0396672e+70
-1.0394844e+70
-1.0374021e+70
-1.0372442e+70
-1.0365177e+70
-1.0364819e+70
-1.0372037e+70
-1.0372984e+70
-1.0363589e+70
-1.0363648e+70
-1.0402946e+70
-1.040228e+70
-1.0438652e+70
-1.0434939e+70
-1.0403614e+70
-1.0435752e+70
-1.0403292e+70
-1.0438718e+70
-1.0393845e+70
-1.0395414e+70
-1.03629e+70
-1.037276e+70
-1.0363972e+70
-1.0372411e+70
-1.0362032e+70
-1.0361888e+70
-1.0371117e+70
-1.0372364e+70
-1.0402527e+70
-1.0403102e+70
-1.0439681e+70
-1.0435993e+70
-1.0400466e+70
-1.0437801e+70
-1.0431151e+70
-1.0402152e+70
-1.0392827e+70
-1.039467e+70
-1.036116e+70
-1.0362209e+70
-1.0371161e+70
-1.0370003e+70
-1.0361897e+70
-1.036208e+70
-1.0370123e+70
-1.0371538e+70
-1.0402229e+70
-1.0440147e+70
-1.0401206e+70
-1.0434484e+70
-1.040022e+70
-1.0431052e+70
-1.0401051e+70
-1.0436284e+70
-1.0393634e+70
-1.0394405e+70
-1.0361533e+70
-1.0362302e+70
-1.0371048e+70
-1.0369996e+70
-1.0359912e+70
-1.0360645e+70
-1.0368594e+70
-1.0370955e+70
-1.0401109e+70
-1.0435367e+70
-1.0400778e+70
-1.0436679e+70
-1.0399408e+70
-1.0399717e+70
-1.0433608e+70
-1.0429245e+70
-1.0230832e+70
-1.0237684e+70
-1.0260877e+70
-1.0222104e+70
-1.0227686e+70
-1.0259021e+70
-1.0256216e+70
-1.0234497e+70
-1.0303458e+70
-1.0234424e+70
-1.0231544e+70
-1.0303443e+70
-1.0298949e+70
-1.0273639e+70
-1.021259e+70
-1.0211259e+70
-1.0269205e+70
-1.02835e+70
-1.0282782e+70
-1.0330659e+70
-1.0328402e+70
-1.0283673e+70
-1.0328814e+70
-1.0282701e+70
-1.033042e+70
-1.0311022e+70
-1.0344938e+70
-1.0308874e+70
-1.0343333e+70
-1.0311869e+70
-1.0346335e+70
-1.0311429e+70
-1.0348102e+70
-1.0455041e+70
-1.0453479e+70
-1.0489898e+70
-1.0495056e+70
-1.0494943e+70
-1.0456292e+70
-1.0454405e+70
-1.0490382e+70
-1.0454614e+70
-1.0454992e+70
-1.0490765e+70
-1.0494048e+70
-1.0448963e+70
-1.0454973e+70
-1.0491542e+70
-1.0483765e+70
-1.045579e+70
-1.0454891e+70
-1.0489124e+70
-1.0495155e+70
-1.0457565e+70
-1.0453921e+70
-1.0496004e+70
-1.0491422e+70
-1.0455959e+70
-1.045291e+70
-1.049187e+70
-1.0496626e+70
-1.045795e+70
-1.0455373e+70
-1.0494833e+70
-1.0488704e+70
-1.0451882e+70
-1.0447179e+70
-1.0458987e+70
-1.0467279e+70
-1.0454441e+70
-1.0452935e+70
-1.0485687e+70
-1.0492488e+70
-1.0457291e+70
-1.0454205e+70
-1.049386e+70
-1.0490116e+70
-1.0450073e+70
-1.0452223e+70
-1.0469005e+70
-1.0461589e+70
-1.0457747e+70
-1.0457656e+70
-1.0491994e+70
-1.0496102e+70
-1.045699e+70
-1.0460392e+70
-1.0495083e+70
-1.0489058e+70
-1.0455575e+70
-1.0458192e+70
-1.0490901e+70
-1.0494866e+70
-1.045554e+70
-1.0455293e+70
-1.0494945e+70
-1.0491326e+70
-1.0456071e+70
-1.0492022e+70
-1.0496269e+70
-1.045901e+70
-1.0457026e+70
-1.0455041e+70
-1.049371e+70
-1.0487894e+70
-1.0443235e+70
-1.0447472e+70
-1.0461438e+70
-1.0452804e+70
-1.0449752e+70
-1.0447596e+70
-1.0457092e+70
-1.0462306e+70
-1.044093e+70
-1.0444396e+70
-1.0447042e+70
-1.0454978e+70
-1.0454946e+70
-1.0446568e+70
-1.0441794e+70
-1.0447903e+70
-1.0381604e+70
-1.0379639e+70
-1.039219e+70
-1.0400632e+70
-1.0438858e+70
-1.0436448e+70
-1.0447491e+70
-1.0442244e+70
-1.043972e+70
-1.0434037e+70
-1.043621e+70
-1.0447609e+70
-1.0395012e+70
-1.0381188e+70
-1.0381256e+70
-1.0401866e+70
-1.0378679e+70
-1.0396058e+70
-1.0376169e+70
-1.0389232e+70
-9.7649998e+69
-9.7665388e+69
-9.8445435e+69
-9.8432179e+69
-9.6011712e+69
-9.599464e+69
-9.6732511e+69
-9.6715585e+69
-9.4179583e+69
-9.5994064e+69
-9.6007961e+69
-9.6718965e+69
-9.6727423e+69
-9.4279232e+69
-9.84529e+69
-9.7648466e+69
-9.764737e+69
-9.8453163e+69
-9.2669925e+69
-9.2745529e+69
-1.0196106e+70
-1.0194627e+70
-1.0291078e+70
-1.0292161e+70
-1.0192469e+70
-1.0187743e+70
-1.008471e+70
-1.0289834e+70
-1.0282775e+70
-9.9673953e+69
-9.9659587e+69
-1.0066013e+70
-1.006647e+70
-9.9127103e+69
-9.964209e+69
-1.0064452e+70
-9.9636995e+69
-1.0061849e+70
-9.9162048e+69
-1.0088546e+70
-9.7607137e+69
-9.6154124e+69
-9.6002792e+69
-9.7562343e+69
-9.2999099e+69
-9.8417472e+69
-9.7649981e+69
-9.7648377e+69
-9.8427532e+69
-9.6692435e+69
-9.6697559e+69
-9.596345e+69
-9.5969557e+69
-9.4267104e+69
-9.8438679e+69
-9.7646451e+69
-9.7660107e+69
-9.8432593e+69
-9.6684679e+69
-9.6695065e+69
-9.5976586e+69
-9.5967957e+69
-9.4310387e+69
-9.2842863e+69
-9.2844862e+69
-1.0088932e+70
-9.2141272e+69
-9.2102841e+69
-1.0203433e+70
-1.0200512e+70
-1.0299437e+70
-1.0306877e+70
-1.0068731e+70
-9.9672813e+69
-9.9674256e+69
-1.0070222e+70
-1.0069928e+70
-9.9689747e+69
-9.9694831e+69
-1.0071869e+70
-1.0307417e+70
-1.019978e+70
-1.0202175e+70
-1.0302003e+70
-1.0246588e+70
-1.0245309e+70
-1.030641e+70
-1.0303226e+70
-1.0246956e+70
-1.0305281e+70
-1.024764e+70
-1.0307508e+70
-1.0379831e+70
-1.0410858e+70
-1.0381853e+70
-1.0414569e+70
-1.0380977e+70
-1.041358e+70
-1.0377713e+70
-1.0407612e+70
-1.0245451e+70
-1.0245533e+70
-1.0305642e+70
-1.030398e+70
-1.0302223e+70
-1.024356e+70
-1.024454e+70
-1.0304737e+70
-1.0376129e+70
-1.0379199e+70
-1.0408295e+70
-1.0412834e+70
-1.0380309e+70
-1.037888e+70
-1.041335e+70
-1.0409198e+70
-9.9761235e+69
-9.9748172e+69
-1.0020598e+70
-1.0018611e+70
-9.9775692e+69
-9.9773072e+69
-1.0021435e+70
-1.0021663e+70
-1.0095979e+70
-1.0155585e+70
-1.0096464e+70
-1.0156728e+70
-1.0095252e+70
-1.0093674e+70
-1.0155671e+70
-1.0153154e+70
-1.0092497e+70
-1.0151143e+70
-1.0093984e+70
-1.0153225e+70
-9.975212e+69
-9.9762862e+69
-1.0019813e+70
-1.0020236e+70
-9.9744677e+69
-1.0018195e+70
-9.9748402e+69
-1.0019342e+70
-1.0094885e+70
-1.0095313e+70
-1.0154585e+70
-1.0154161e+70
-9.6103849e+69
-9.6100183e+69
-9.4971352e+69
-9.5829962e+69
-9.5829683e+69
-9.6661531e+69
-9.6668312e+69
-9.6978328e+69
-9.6982044e+69
-9.6107016e+69
-9.6117749e+69
-9.4970653e+69
-9.5854905e+69
-9.583996e+69
-9.6670104e+69
-9.6681395e+69
-9.6985028e+69
-9.6993823e+69
-9.4269322e+69
-9.4233523e+69
-9.6131051e+69
-9.6129983e+69
-9.4952342e+69
-9.5862825e+69
-9.5868473e+69
-9.6692515e+69
-9.7007049e+69
-9.6698465e+69
-9.7013636e+69
-9.6710394e+69
-9.7022985e+69
-9.6727657e+69
-9.7036652e+69
-9.6139241e+69
-9.6163778e+69
-9.4952716e+69
-9.5888718e+69
-9.5867237e+69
-9.4218544e+69
-9.4217616e+69
-9.7664818e+69
-9.7679492e+69
-9.7986224e+69
-9.7992506e+69
-9.7653817e+69
-9.7973799e+69
-9.7657568e+69
-9.79786e+69
-9.858293e+69
-9.8971066e+69
-9.8587274e+69
-9.8975379e+69
-9.8591107e+69
-9.8979214e+69
-9.8591243e+69
-9.8971838e+69
-9.7625841e+69
-9.7953062e+69
-9.7637758e+69
-9.7958572e+69
-9.7622557e+69
-9.7947316e+69
-9.7623387e+69
-9.7949156e+69
-9.8554058e+69
-9.8948691e+69
-9.8559968e+69
-9.8955014e+69
-9.8564135e+69
-9.8958075e+69
-9.8569508e+69
-9.8957997e+69
-9.3411278e+69
-9.2748869e+69
-9.2708947e+69
-9.3382919e+69
-9.269077e+69
-9.336424e+69
-9.3341624e+69
-9.3355052e+69
-9.4230598e+69
-9.5028876e+69
-9.4225677e+69
-9.503255e+69
-9.417201e+69
-9.4220912e+69
-9.5016676e+69
-9.4964176e+69
-1.0091154e+70
-1.0091836e+70
-1.0151695e+70
-1.0152739e+70
-9.9719882e+69
-9.9723023e+69
-1.0016252e+70
-1.0017055e+70
-1.0091638e+70
-1.0152381e+70
-1.0090326e+70
-1.0149334e+70
-9.9721224e+69
-9.972271e+69
-1.0017149e+70
-1.0015785e+70
-9.9700842e+69
-1.0015319e+70
-9.9705091e+69
-1.0014802e+70
-9.969342e+69
-1.0013576e+70
-9.9698634e+69
-1.0014902e+70
-1.0087617e+70
-1.0148042e+70
-1.0089368e+70
-1.0150824e+70
-1.0090156e+70
-1.0151673e+70
-1.0089891e+70
-1.0150487e+70
-1.0243241e+70
-1.0242881e+70
-1.0304839e+70
-1.0302345e+70
-1.0240454e+70
-1.0242393e+70
-1.0300574e+70
-1.0303998e+70
-1.0376121e+70
-1.0379831e+70
-1.0409889e+70
-1.041525e+70
-1.0380709e+70
-1.0378695e+70
-1.0415798e+70
-1.0411021e+70
-1.0379906e+70
-1.04128e+70
-1.0381386e+70
-1.0415758e+70
-1.0244221e+70
-1.0304049e+70
-1.0244754e+70
-1.0306007e+70
-1.0243634e+70
-1.0241674e+70
-1.0304849e+70
-1.0300676e+70
-1.0379775e+70
-1.0414314e+70
-1.0375499e+70
-1.0407291e+70
-9.8617386e+69
-9.8993829e+69
-9.862611e+69
-9.90004e+69
-9.7727474e+69
-9.7738732e+69
-9.8039623e+69
-9.8050606e+69
-9.7720827e+69
-9.8030987e+69
-9.7724901e+69
-9.8037264e+69
-9.8632079e+69
-9.8644732e+69
-9.9007294e+69
-9.901805e+69
-9.6788479e+69
-9.7096288e+69
-9.6797274e+69
-9.7104288e+69
-9.677612e+69
-9.7088175e+69
-9.6781949e+69
-9.709534e+69
-9.6208218e+69
-9.6213785e+69
-9.5934063e+69
-9.593824e+69
-9.6214002e+69
-9.6222839e+69
-9.5950792e+69
-9.5939852e+69
-9.6221264e+69
-9.6203275e+69
-9.5928326e+69
-9.5950354e+69
-9.6784612e+69
-9.7104021e+69
-9.6777817e+69
-9.7091353e+69
-9.6182685e+69
-9.6161522e+69
-9.5891264e+69
-9.5906291e+69
-9.6756217e+69
-9.7072568e+69
-9.6734314e+69
-9.7047204e+69
-9.7705781e+69
-9.803e+69
-9.7689483e+69
-9.8006462e+69
-9.7739004e+69
-9.8057492e+69
-9.7726314e+69
-9.8046654e+69
-9.8653486e+69
-9.9034686e+69
-9.8648219e+69
-9.903156e+69
-9.8632368e+69
-9.9019744e+69
-9.8611118e+69
-9.8996212e+69
-9.8656767e+69
-9.8494073e+69
-9.8665952e+69
-9.8486553e+69
-9.899625e+69
-9.9181447e+69
-9.9176627e+69
-9.8990757e+69
-9.8471696e+69
-9.8644537e+69
-9.8477957e+69
-9.8651545e+69
-9.8984569e+69
-9.917105e+69
-9.8977571e+69
-9.9161873e+69
-9.7693972e+69
-9.7575919e+69
-9.7706241e+69
-9.7564746e+69
-9.8014383e+69
-9.8151072e+69
-9.8143583e+69
-9.8006689e+69
-9.7675823e+69
-9.7553769e+69
-9.7685765e+69
-9.7546462e+69
-9.799712e+69
-9.8134675e+69
-9.7989701e+69
-9.8127753e+69
-9.6801907e+69
-9.6747044e+69
-9.6818065e+69
-9.6732428e+69
-9.7124187e+69
-9.7229495e+69
-9.7217342e+69
-9.711465e+69
-9.6778633e+69
-9.6716127e+69
-9.6789493e+69
-9.6707501e+69
-9.709951e+69
-9.7206541e+69
-9.7090321e+69
-9.7199659e+69
-9.6399729e+69
-9.6401604e+69
-9.6433293e+69
-9.6422737e+69
-9.6404649e+69
-9.6390133e+69
-9.6382485e+69
-9.6363905e+69
-9.5845198e+69
-9.538231e+69
-9.5101091e+69
-9.5067663e+69
-9.5347196e+69
-9.5820741e+69
-9.6350351e+69
-9.6348125e+69
-9.6381605e+69
-9.6372228e+69
-9.532745e+69
-9.5051409e+69
-9.5023592e+69
-9.5303991e+69
-9.5799598e+69
-9.4614527e+69
-9.4352253e+69
-9.4314079e+69
-9.4579302e+69
-9.4554623e+69
-9.4297322e+69
-9.4288371e+69
-9.4544308e+69
-1.0408905e+70
-1.0434438e+70
-1.0463399e+70
-1.0283199e+70
-1.0245357e+70
-1.0281773e+70
-1.024615e+70
-1.0325875e+70
-1.0361141e+70
-1.0363352e+70
-1.0327436e+70
-1.028261e+70
-1.0246394e+70
-1.0283617e+70
-1.0245827e+70
-1.0114065e+70
-1.008039e+70
-1.0113728e+70
-1.0080624e+70
-1.0157243e+70
-1.0193169e+70
-1.0194184e+70
-1.0157841e+70
-1.0079806e+70
-1.0113576e+70
-1.0080273e+70
-1.0114197e+70
-1.0158303e+70
-1.0194556e+70
-1.0157834e+70
-1.019372e+70
-9.9774267e+69
-9.9569601e+69
-9.9779042e+69
-9.9563939e+69
-1.0013232e+70
-1.0036333e+70
-1.0036422e+70
-1.0013179e+70
-9.9761846e+69
-9.9558012e+69
-9.9769144e+69
-9.9551322e+69
-1.0012639e+70
-1.0035997e+70
-1.0012062e+70
-1.0035293e+70
-1.0507196e+70
-1.0501956e+70
-1.0507544e+70
-1.050915e+70
-1.0507192e+70
-1.0510732e+70
-1.0510639e+70
-1.0507594e+70
-1.0505791e+70
-1.0509909e+70
-1.0507725e+70
-1.0510044e+70
-1.0508168e+70
-1.0511363e+70
-1.050603e+70
-1.0509797e+70
-1.0484639e+70
-1.0504206e+70
-1.0509393e+70
-1.0508696e+70
-1.0510239e+70
-1.048868e+70
-1.0486783e+70
-1.0489629e+70
-1.0510072e+70
-1.0512731e+70
-1.0511479e+70
-1.0507688e+70
-1.0509157e+70
-1.0510803e+70
-1.0508767e+70
-1.0504991e+70
-1.0509432e+70
-1.0511949e+70
-1.0511801e+70
-1.0509289e+70
-1.0485732e+70
-1.0483025e+70
-1.0478699e+70
-1.0483735e+70
-1.0471348e+70
-1.047508e+70
-1.0475479e+70
-1.047251e+70
-1.0469676e+70
-1.0467495e+70
-1.0464321e+70
-1.0414297e+70
-1.0468954e+70
-1.0418047e+70
-1.0417319e+70
-1.0414246e+70
-1.041687e+70
-1.041199e+70
-1.0094433e+70
-1.0088642e+70
-9.9500394e+69
-9.9555053e+69
-1.0043231e+70
-1.004997e+70
-1.0039659e+70
-1.0053552e+70
-1.0342259e+70
-1.0341281e+70
-1.0190225e+70
-1.0374023e+70
-1.0374002e+70
-1.03389e+70
-1.034103e+70
-1.0196644e+70
-1.0372586e+70
-1.0371789e+70
-1.0265206e+70
-1.0342392e+70
-1.034144e+70
-1.0124803e+70
-1.0122752e+70
-1.0264371e+70
-1.0342831e+70
-1.0340263e+70
-1.0344698e+70
-1.034165e+70
-1.0199433e+70
-1.0373949e+70
-1.0376754e+70
-1.0341192e+70
-1.0344047e+70
-1.0187968e+70
-1.0376325e+70
-1.037328e+70
-1.0396499e+70
-1.0396165e+70
-1.039709e+70
-1.0395477e+70
-1.0401234e+70
-1.0433612e+70
-1.0401899e+70
-1.0437372e+70
-1.0365e+70
-1.0363897e+70
-1.0371339e+70
-1.0370731e+70
-1.0365458e+70
-1.036513e+70
-1.0372119e+70
-1.0373807e+70
-1.0403715e+70
-1.0403341e+70
-1.0441609e+70
-1.0437291e+70
-1.03652e+70
-1.0365377e+70
-1.0375134e+70
-1.037406e+70
-1.0404798e+70
-1.044085e+70
-1.0403504e+70
-1.0436762e+70
-1.0366671e+70
-1.0365402e+70
-1.0373561e+70
-1.0374441e+70
-1.0404724e+70
-1.0403582e+70
-1.0440618e+70
-1.0434642e+70
-1.0431415e+70
-1.0426013e+70
-1.0465488e+70
-1.0464995e+70
-1.0425291e+70
-1.0425209e+70
-1.0426267e+70
-1.0430782e+70
-1.0465066e+70
-1.0464285e+70
-1.0423982e+70
-1.0424529e+70
-1.0412769e+70
-1.0414647e+70
-1.0424371e+70
-1.0424126e+70
-1.0424047e+70
-1.0414315e+70
-1.0413463e+70
-1.0424219e+70
-1.0424224e+70
-1.041319e+70
-1.041473e+70
-1.042449e+70
-1.04237e+70
-1.0413647e+70
-1.0412699e+70
-1.0423742e+70
-1.0413291e+70
-1.0416935e+70
-1.0417147e+70
-1.0414324e+70
-1.0412823e+70
-1.0415538e+70
-1.0415871e+70
-1.0412459e+70
-1.0393098e+70
-1.0412548e+70
-1.0413884e+70
-1.0392819e+70
-1.0411073e+70
-1.0413684e+70
-1.0394241e+70
-1.0391473e+70
-1.041654e+70
-1.0416375e+70
-1.0410687e+70
-1.041206e+70
-1.0388714e+70
-1.0408008e+70
-1.0411371e+70
-1.0389685e+70
-1.0412729e+70
-1.0416439e+70
-1.0417042e+70
-1.0413149e+70
-1.0411153e+70
-1.0412956e+70
-1.0392328e+70
-1.0389964e+70
-1.0424538e+70
-1.043017e+70
-1.046392e+70
-1.0463004e+70
-1.0422985e+70
-1.042251e+70
-1.043129e+70
-1.0426682e+70
-1.0464702e+70
-1.0464446e+70
-1.0423544e+70
-1.0423654e+70
-1.0423491e+70
-1.0412201e+70
-1.0413789e+70
-1.0423664e+70
-1.0413537e+70
-1.0412652e+70
-1.0423425e+70
-1.0423397e+70
-1.0423086e+70
-1.0411988e+70
-1.0413589e+70
-1.0423307e+70
-1.0422793e+70
-1.0412689e+70
-1.0422466e+70
-1.0411194e+70
-1.0412044e+70
-1.0415485e+70
-1.0415623e+70
-1.0413091e+70
-1.0415546e+70
-1.0415608e+70
-1.0412016e+70
-1.0413371e+70
-1.0411978e+70
-1.0390647e+70
-1.0390694e+70
-1.0410728e+70
-1.0392858e+70
-1.0412032e+70
-1.0412353e+70
-1.0390602e+70
-1.04138e+70
-1.0413817e+70
-1.0409587e+70
-1.0410051e+70
-1.0409746e+70
-1.04115e+70
-1.0393133e+70
-1.0390726e+70
-1.0390799e+70
-1.0409802e+70
-1.0408862e+70
-1.0389845e+70
-1.0415351e+70
-1.0415484e+70
-1.0411818e+70
-1.0412079e+70
-1.0423234e+70
-1.0427772e+70
-1.0462595e+70
-1.0462172e+70
-1.0421872e+70
-1.0421643e+70
-1.0429922e+70
-1.0424552e+70
-1.0462073e+70
-1.0463489e+70
-1.0422111e+70
-1.042236e+70
-1.0422493e+70
-1.0422639e+70
-1.0412366e+70
-1.0410857e+70
-1.0422505e+70
-1.0422479e+70
-1.042262e+70
-1.0412561e+70
-1.0411258e+70
-1.0422336e+70
-1.0422642e+70
-1.042201e+70
-1.0413256e+70
-1.0411664e+70
-1.0422749e+70
-1.0422786e+70
-1.0422017e+70
-1.0412362e+70
-1.0410957e+70
-1.0421634e+70
-1.0415153e+70
-1.0415647e+70
-1.0413177e+70
-1.0413166e+70
-1.0389282e+70
-1.0410662e+70
-1.0413073e+70
-1.0391445e+70
-1.0411494e+70
-1.0413442e+70
-1.041336e+70
-1.0410773e+70
-1.0410639e+70
-1.0412253e+70
-1.0391914e+70
-1.0390806e+70
-1.0414201e+70
-1.0414343e+70
-1.0410076e+70
-1.0411637e+70
-1.0389668e+70
-1.0408692e+70
-1.041144e+70
-1.038993e+70
-1.0412818e+70
-1.041474e+70
-1.0414983e+70
-1.0412712e+70
-1.0411145e+70
-1.0413058e+70
-1.0391916e+70
-1.038954e+70
-1.0423383e+70
-1.0428448e+70
-1.0463218e+70
-1.0461885e+70
-1.0429265e+70
-1.0424465e+70
-1.0462699e+70
-1.0462935e+70
-1.0412003e+70
-1.0410786e+70
-1.0421606e+70
-1.0421403e+70
-1.0421336e+70
-1.0412089e+70
-1.0410705e+70
-1.0420952e+70
-1.0420839e+70
-1.0410367e+70
-1.0411981e+70
-1.0420986e+70
-1.0409832e+70
-1.0410825e+70
-1.0420027e+70
-1.0420046e+70
-1.0413305e+70
-1.041375e+70
-1.0410568e+70
-1.0411548e+70
-1.0388965e+70
-1.0409102e+70
-1.041157e+70
-1.0389611e+70
-1.0412005e+70
-1.0413283e+70
-1.041333e+70
-1.0411511e+70
-1.0410779e+70
-1.0412059e+70
-1.0390591e+70
-1.038987e+70
-1.0410223e+70
-1.0413226e+70
-1.0412971e+70
-1.041058e+70
-1.0408115e+70
-1.041105e+70
-1.0411364e+70
-1.0406685e+70
-1.0390677e+70
-1.0409973e+70
-1.041091e+70
-1.0390201e+70
-1.0404619e+70
-1.040887e+70
-1.0388885e+70
-1.0384273e+70
-1.0211453e+70
-1.021448e+70
-1.0271824e+70
-1.0208091e+70
-1.0213503e+70
-1.0274188e+70
-1.0270238e+70
-1.0280672e+70
-1.028266e+70
-1.0329142e+70
-1.0328023e+70
-1.0309662e+70
-1.0307054e+70
-1.0340899e+70
-1.0338885e+70
-1.0284101e+70
-1.028406e+70
-1.0328826e+70
-1.0330994e+70
-1.0281779e+70
-1.0278632e+70
-1.0327223e+70
-1.032708e+70
-1.0311416e+70
-1.0308628e+70
-1.0343593e+70
-1.0340175e+70
-1.0306867e+70
-1.0305874e+70
-1.0339738e+70
-1.0338421e+70
-1.0264403e+70
-1.0340751e+70
-1.0339376e+70
-1.0123291e+70
-1.0126627e+70
-1.0264937e+70
-1.0339489e+70
-1.0341237e+70
-1.0392394e+70
-1.0391763e+70
-1.0394188e+70
-1.0394117e+70
-1.0358745e+70
-1.0357886e+70
-1.0366578e+70
-1.0364803e+70
-1.0395512e+70
-1.0396111e+70
-1.0428036e+70
-1.0430332e+70
-1.036001e+70
-1.0359266e+70
-1.0365336e+70
-1.0366817e+70
-1.0397308e+70
-1.0434166e+70
-1.0397708e+70
-1.0431609e+70
-1.0362509e+70
-1.0363374e+70
-1.0369302e+70
-1.0371098e+70
-1.0400143e+70
-1.0436105e+70
-1.0400965e+70
-1.0438474e+70
-1.0363018e+70
-1.0361906e+70
-1.0368266e+70
-1.0368371e+70
-1.0402312e+70
-1.040144e+70
-1.0441985e+70
-1.0435421e+70
-1.0504506e+70
-1.0502541e+70
-1.0505202e+70
-1.0503155e+70
-1.0503247e+70
-1.050317e+70
-1.0497425e+70
-1.0501784e+70
-1.0503815e+70
-1.0501777e+70
-1.0504958e+70
-1.0503252e+70
-1.0505157e+70
-1.0503175e+70
-1.0505005e+70
-1.0502318e+70
-1.0486974e+70
-1.0452083e+70
-1.0453353e+70
-1.0491222e+70
-1.045088e+70
-1.0453289e+70
-1.0489048e+70
-1.0483266e+70
-1.0502935e+70
-1.0500115e+70
-1.0505151e+70
-1.0503936e+70
-1.0486319e+70
-1.0456185e+70
-1.0456224e+70
-1.0491247e+70
-1.0453889e+70
-1.0452588e+70
-1.0490243e+70
-1.0486375e+70
-1.0506671e+70
-1.0505887e+70
-1.0504155e+70
-1.0506889e+70
-1.0505446e+70
-1.0505593e+70
-1.0504592e+70
-1.0505468e+70
-1.0504501e+70
-1.0505194e+70
-1.0503438e+70
-1.0501418e+70
-1.0448563e+70
-1.0447124e+70
-1.0478835e+70
-1.0485528e+70
-1.0449403e+70
-1.045212e+70
-1.0486633e+70
-1.0482616e+70
-1.0447968e+70
-1.0450943e+70
-1.0484897e+70
-1.048976e+70
-1.0488149e+70
-1.0452517e+70
-1.0450794e+70
-1.0482845e+70
-1.0438761e+70
-1.0441023e+70
-1.047401e+70
-1.0480134e+70
-1.048057e+70
-1.0444426e+70
-1.0439619e+70
-1.0476202e+70
-1.044035e+70
-1.0440561e+70
-1.0477337e+70
-1.0481759e+70
-1.0441684e+70
-1.0442092e+70
-1.047966e+70
-1.0474659e+70
-1.0433852e+70
-1.0439917e+70
-1.0435925e+70
-1.0446495e+70
-1.0436123e+70
-1.0432776e+70
-1.0445618e+70
-1.043791e+70
-1.043651e+70
-1.0435393e+70
-1.0471116e+70
-1.0475713e+70
-1.0436118e+70
-1.0437167e+70
-1.0475509e+70
-1.0471136e+70
-1.0433458e+70
-1.0432936e+70
-1.0464775e+70
-1.0470601e+70
-1.043272e+70
-1.0436395e+70
-1.0472295e+70
-1.046859e+70
-1.0427872e+70
-1.0431512e+70
-1.044382e+70
-1.0436141e+70
-1.0433165e+70
-1.043178e+70
-1.0444052e+70
-1.0437244e+70
-1.0432874e+70
-1.042596e+70
-1.0429832e+70
-1.0439523e+70
-1.0428657e+70
-1.0425688e+70
-1.0432421e+70
-1.0438541e+70
-9.7597137e+69
-9.760223e+69
-9.7920286e+69
-9.7922021e+69
-9.7602962e+69
-9.792003e+69
-9.7598802e+69
-9.791848e+69
-9.8528338e+69
-9.8907551e+69
-9.8529193e+69
-9.8908435e+69
-9.8530759e+69
-9.8912984e+69
-9.8533112e+69
-9.8916628e+69
-9.6083638e+69
-9.6080038e+69
-9.492069e+69
-9.5816635e+69
-9.5815625e+69
-9.6083144e+69
-9.6084168e+69
-9.4900343e+69
-9.5811839e+69
-9.581893e+69
-9.6640941e+69
-9.6952628e+69
-9.6642494e+69
-9.6950604e+69
-9.6639291e+69
-9.6644915e+69
-9.695199e+69
-9.695522e+69
-9.4188876e+69
-9.4201503e+69
-9.6078662e+69
-9.6069071e+69
-9.4926071e+69
-9.580817e+69
-9.580093e+69
-9.6074237e+69
-9.6078876e+69
-9.4925094e+69
-9.5802512e+69
-9.5815785e+69
-9.6633431e+69
-9.6948394e+69
-9.6632677e+69
-9.6943297e+69
-9.6629721e+69
-9.6941654e+69
-9.6638269e+69
-9.6945961e+69
-9.4193017e+69
-9.4176401e+69
-9.8528517e+69
-9.8916045e+69
-9.8528488e+69
-9.8917637e+69
-9.758678e+69
-9.7912414e+69
-9.7592439e+69
-9.7911978e+69
-9.759724e+69
-9.7919751e+69
-9.7589934e+69
-9.7914152e+69
-9.85254e+69
-9.8915125e+69
-9.8523616e+69
-9.890736e+69
-9.2733056e+69
-9.2806428e+69
-9.3418877e+69
-9.3384629e+69
-9.3417694e+69
-9.2819278e+69
-9.2828853e+69
-9.3422405e+69
-1.0230678e+70
-1.0231272e+70
-1.0290265e+70
-1.0289081e+70
-1.0228522e+70
-1.0230186e+70
-1.0286253e+70
-1.0289503e+70
-1.0365216e+70
-1.0363805e+70
-1.0396509e+70
-1.0392705e+70
-1.036104e+70
-1.0364288e+70
-1.0390637e+70
-1.0395704e+70
-1.0226606e+70
-1.0226378e+70
-1.0285524e+70
-1.0283652e+70
-1.0225609e+70
-1.0223819e+70
-1.0280974e+70
-1.0284247e+70
-1.0185625e+70
-1.0188616e+70
-1.0284446e+70
-1.027876e+70
-1.0360018e+70
-1.0358734e+70
-1.0391029e+70
-1.0387687e+70
-1.035857e+70
-1.0354779e+70
-1.0384198e+70
-1.0390106e+70
-9.9629173e+69
-1.0007101e+70
-9.9640071e+69
-1.0007398e+70
-9.9614854e+69
-1.0004734e+70
-9.9622969e+69
-1.0006128e+70
-1.0079448e+70
-1.0081051e+70
-1.0137269e+70
-1.0139453e+70
-1.0081899e+70
-1.0082209e+70
-1.0140568e+70
-1.014006e+70
-9.9598618e+69
-9.9618105e+69
-1.006049e+70
-1.0057551e+70
-9.9601225e+69
-1.0004106e+70
-9.9599912e+69
-1.0003153e+70
-1.0078688e+70
-1.0078092e+70
-1.0136965e+70
-1.0135532e+70
-9.9596641e+69
-1.0002508e+70
-9.9598665e+69
-1.0003496e+70
-1.0077838e+70
-1.0076311e+70
-1.0133546e+70
-1.0135892e+70
-1.0057475e+70
-9.9615742e+69
-9.9611001e+69
-1.0059484e+70
-1.0181996e+70
-1.027718e+70
-1.0185773e+70
-1.0283195e+70
-9.839249e+69
-9.7618357e+69
-9.7628042e+69
-9.8391433e+69
-9.5986577e+69
-9.6695505e+69
-9.5935996e+69
-9.5969313e+69
-9.6687169e+69
-9.4231036e+69
-9.6657789e+69
-9.7597347e+69
-9.8404714e+69
-9.7621032e+69
-9.8376247e+69
-9.2863864e+69
-9.8481463e+69
-9.885215e+69
-9.8484073e+69
-9.8855192e+69
-9.7566525e+69
-9.7567949e+69
-9.788085e+69
-9.7877435e+69
-9.7567706e+69
-9.7877791e+69
-9.7564055e+69
-9.7876796e+69
-9.8486528e+69
-9.8860239e+69
-9.8485232e+69
-9.8852483e+69
-9.6611284e+69
-9.6919023e+69
-9.6613242e+69
-9.6915668e+69
-9.6614421e+69
-9.6919618e+69
-9.6612233e+69
-9.6916912e+69
-9.6061435e+69
-9.6050966e+69
-9.579458e+69
-9.4895531e+69
-9.5786435e+69
-9.6059327e+69
-9.6059192e+69
-9.489345e+69
-9.5798224e+69
-9.5789999e+69
-9.4188294e+69
-9.4197251e+69
-9.8500953e+69
-9.8504059e+69
-9.8866495e+69
-9.8874332e+69
-9.7576319e+69
-9.7583629e+69
-9.7894191e+69
-9.7898943e+69
-9.7583513e+69
-9.78945e+69
-9.7578218e+69
-9.7892626e+69
-9.8505395e+69
-9.8511206e+69
-9.8883882e+69
-9.8889643e+69
-9.6615486e+69
-9.6924554e+69
-9.6624012e+69
-9.692872e+69
-9.6623029e+69
-9.6929076e+69
-9.6619334e+69
-9.6923386e+69
-9.6073534e+69
-9.6063056e+69
-9.4891725e+69
-9.5808635e+69
-9.5801048e+69
-9.6064164e+69
-9.6067908e+69
-9.4878178e+69
-9.5795597e+69
-9.5805551e+69
-9.4181063e+69
-9.4178735e+69
-9.3413706e+69
-9.2753037e+69
-9.2767805e+69
-9.3409078e+69
-9.2721904e+69
-9.2778776e+69
-9.3425341e+69
-9.3381394e+69
-1.0054576e+70