/*--------------------------------*- C++ -*----------------------------------*\
  =========                 |
  \\      /  F ield         | OpenFOAM: The Open Source CFD Toolbox
   \\    /   O peration     | Website:  https://openfoam.org
    \\  /    A nd           | Version:  7
     \\/     M anipulation  |
\*---------------------------------------------------------------------------*/
FoamFile
{
    version     2.0;
    format      ascii;
    class       volScalarField;
    location    "1000";
    object      k;
}
// * * * * * * * * * * * * * * * * * * * * * * * * * * * * * * * * * * * * * //

dimensions      [0 2 -2 0 0 0 0];

internalField   nonuniform List<scalar> 
33943
(
1.5692477
1.594885
1.5366648
1.5325697
1.5438158
1.6181819
1.6941558
1.5704563
1.59587
1.5960586
1.5378959
1.5377252
1.6444772
1.5532151
1.5534925
1.6472325
1.5251478
1.5294175
1.5337862
1.5339823
1.5383507
1.5533693
1.5532117
1.543616
1.5562911
1.5581966
1.5583076
1.5560918
1.6244005
1.5495315
1.5495366
1.7028899
1.6983355
1.5579665
1.5369619
1.6148346
1.6156873
1.8340451
1.8357249
1.5970869
1.5980245
1.5394673
1.5394258
1.6464861
1.6487953
1.5554697
1.554578
1.6481722
1.6479389
1.5554411
1.5558046
1.7044781
1.602891
1.6995455
1.6017594
1.7084002
1.70642
1.6034379
1.6041214
1.5353084
1.5268224
1.5308057
1.5265498
1.5305592
1.5336355
1.5282685
1.5335312
1.5280178
1.5459485
1.5411022
1.5461101
1.5410515
1.5549574
1.5551888
1.5543752
1.5550999
1.535272
1.5382774
1.5354017
1.5494436
1.5493082
1.5511482
1.5510578
1.6097561
1.6105792
1.6082489
1.6093022
1.5570982
1.5567116
1.5583212
1.5590273
1.6153528
1.6207416
1.6203141
1.6145829
1.5517958
1.551323
1.7130785
1.7083971
1.5353344
1.535293
1.5582606
1.5585622
1.5353267
1.5580052
1.5580925
1.53553
1.6187862
1.6192301
1.8511811
1.8512293
1.6173818
1.6171943
1.8396922
1.8426252
1.5557535
1.5347112
1.5917775
1.5916217
1.6525864
1.6526681
1.5924306
1.6535585
1.760509
1.7610238
2.010221
2.0165347
1.7624584
2.0180035
2.0121211
1.5404128
1.6508713
1.6471135
1.5559064
1.5570559
1.6509862
1.5572926
1.6518205
1.5569445
1.703906
1.7077333
1.6027746
1.6040522
1.7092535
1.707984
1.6055111
1.6060552
1.7053525
1.7068939
1.6050515
1.6057115
1.7063651
1.7039396
1.6055777
1.6050489
1.7549955
1.7610523
1.6616736
1.664303
1.7483685
1.751919
1.6593652
1.660978
1.7646336
1.7621593
1.6643927
1.664901
1.6638191
1.7605043
1.7617069
1.6657719
1.5348608
1.5320108
1.5279626
1.5276813
1.5446831
1.5455167
1.5454656
1.5444338
1.5321993
1.5301585
1.5299664
1.5351842
1.5352223
1.5426098
1.5470857
1.5477377
1.5426893
1.5354066
1.5298709
1.5299729
1.535142
1.547922
1.5475248
1.5426613
1.5429719
1.5741251
1.5672308
1.5668862
1.5741733
1.554286
1.5539053
1.5461352
1.546422
1.5750801
1.567416
1.5675039
1.5745992
1.5543102
1.5541961
1.5994305
1.6031409
1.6031872
1.5984086
1.5877788
1.5906079
1.5877223
1.5906141
1.6045462
1.5997473
1.600727
1.6046645
1.5919371
1.5890836
1.591696
1.5883733
1.6112096
1.6111366
1.6110605
1.6112104
1.609952
1.5565938
1.6089337
1.6111976
1.6116557
1.5567078
1.5365882
1.5496595
1.5517901
1.5520777
1.5498959
1.5567627
1.5556556
1.6018595
1.6019132
1.6080688
1.6084162
1.6738495
1.6744729
1.6731514
1.6751141
1.6684132
1.670437
1.6705718
1.6734985
1.6177293
1.6192846
1.6241458
1.6229655
1.6270888
1.6329582
1.6325723
1.6261505
1.5295756
1.5298087
1.5291153
1.53705
1.53732
1.5608343
1.5600936
1.5370098
1.536829
1.5597525
1.5602894
1.6228901
1.6238199
1.8698108
1.8706673
1.6223849
1.6212168
1.8635498
1.8561484
1.5329376
1.5329673
1.556051
1.5563788
1.5329685
1.5556802
1.5558085
1.5331543
1.5937647
1.5944334
1.6584103
1.6576511
1.657996
1.5939799
1.5951715
1.6589896
1.7733569
2.0497596
2.0421077
1.7731803
1.7732372
1.7744857
2.0411518
2.0486172
1.5928632
1.593445
1.6558812
1.6561457
1.6565149
1.5930429
1.5931874
1.6553168
1.768002
1.7644536
2.0251634
2.0166748
1.7678286
1.7665361
2.0311427
2.0276749
1.5526165
1.5986002
1.5987315
1.532083
1.5324551
1.5533202
1.5993623
1.660305
1.660219
1.6611347
1.7383253
1.7404461
1.8594121
1.8549398
1.8611366
1.7382367
1.740381
1.8540518
2.1207485
2.1294384
2.0282941
2.0363048
2.0397697
2.1338809
2.0285297
2.1368208
1.740276
1.7417318
1.8581237
1.8601373
2.0353291
2.1393921
2.0357992
2.1326197
2.0380344
2.1345382
1.6534916
1.5587926
1.7122048
1.6069376
1.7106309
1.6075164
1.7095452
1.6053718
1.7021062
1.6031302
1.7121617
1.709232
1.6065768
1.6071861
1.7125925
1.607224
1.7143959
1.6079261
1.7549615
1.7599066
1.6611924
1.6630712
1.7606608
1.7634872
1.6631843
1.66515
1.66569
1.7647724
1.7635906
1.666525
1.7597379
1.759247
1.6657268
1.6638426
1.7571765
1.7574913
1.6649511
1.6636519
1.7579644
1.7599549
1.6662142
1.6639561
1.7578531
1.7597899
1.6655955
1.664077
1.7560862
1.7522948
1.6637298
1.6632385
1.830514
1.8216588
1.7035233
1.7051793
1.8352397
1.8396177
1.7088078
1.7072631
1.7003055
1.8137365
1.8212005
1.7013643
1.8211287
1.8238184
1.7032311
1.7042168
1.8430347
1.8469494
1.7081528
1.70969
1.7091488
1.8421291
1.8368434
1.7101423
1.8413361
1.8334063
1.7072903
1.709081
1.8347795
1.8405741
1.7092257
1.7094919
1.5291854
1.5433937
1.5439997
1.545477
1.5449125
1.5331967
1.5492026
1.5492776
1.5442701
1.5442526
1.5311667
1.5367347
1.5310913
1.5363413
1.5309367
1.5363863
1.530794
1.5362845
1.5872106
1.5939188
1.5944211
1.587394
1.5438101
1.5494001
1.5483554
1.5443972
1.5484574
1.5479843
1.555282
1.5559482
1.5476167
1.5474602
1.5552533
1.5551667
1.5756148
1.5678479
1.5676572
1.575184
1.568402
1.5676767
1.5744559
1.5754761
1.588109
1.5891534
1.5920769
1.5907261
1.59899
1.6041193
1.6027773
1.600073
1.6016573
1.6052383
1.6058945
1.6013408
1.5930305
1.589005
1.5895615
1.5924937
1.5698693
1.5695357
1.5765746
1.5769434
1.5566765
1.5561396
1.5479812
1.5485173
1.5558645
1.5482467
1.5479499
1.5558945
1.5760264
1.5684559
1.5684519
1.5757581
1.6058067
1.6063125
1.601334
1.6014407
1.6053682
1.6059161
1.6012106
1.6013099
1.5931632
1.5899066
1.5895242
1.5927204
1.5936307
1.5905311
1.5905747
1.5934126
1.6495568
1.6482643
1.6516319
1.6505827
1.6315058
1.6330426
1.6350206
1.6370174
1.6304167
1.6338346
1.6317446
1.6355445
1.6501127
1.6490715
1.6523699
1.6517274
1.6081373
1.6144125
1.6089845
1.6157362
1.6070213
1.6134186
1.6076897
1.6144414
1.5893168
1.5897652
1.5762972
1.5765655
1.5904238
1.5911077
1.5780687
1.5775857
1.6556481
1.6548216
1.6545813
1.654119
1.6322379
1.6359136
1.6384393
1.6350984
1.6390629
1.6339386
1.6382716
1.6511486
1.6537165
1.6502361
1.6529314
1.6086235
1.6150239
1.6105472
1.6173491
1.6091315
1.6162694
1.6735789
1.6768224
1.661777
1.6647689
1.674454
1.671801
1.6634299
1.6658157
1.6730201
1.6764595
1.6647518
1.667973
1.6738807
1.671557
1.6598026
1.6618833
1.6623433
1.6592453
1.6652379
1.6623778
1.6725369
1.6697164
1.6619171
1.6645858
1.6612682
1.6579499
1.6638444
1.660598
1.6706081
1.6739271
1.6629672
1.6663329
1.6784936
1.6786584
1.6694158
1.6698506
1.6776712
1.6781025
1.6650575
1.6657003
1.6763496
1.6788593
1.664203
1.6664747
1.6756601
1.6785448
1.6673315
1.6700074
1.6730082
1.6759306
1.6653943
1.6683512
1.6683189
1.6649204
1.6678204
1.6647903
1.6765611
1.676446
1.6683562
1.6685313
1.6636869
1.6607584
1.6664236
1.6636215
1.6726138
1.6746931
1.6728476
1.674075
1.67232
1.6721523
1.6734017
1.6748641
1.6720858
1.6738658
1.6128971
1.6126809
1.6700309
1.6721896
1.6725283
1.6741262
1.6750177
1.675629
1.6137238
1.6138865
1.5580588
1.6042121
1.6117814
1.610612
1.6030535
1.6132034
1.6130976
1.6114815
1.6091987
1.6133
1.6130246
1.6192661
1.6199119
1.7125776
1.7146667
1.7147307
1.7137149
1.713881
1.711541
1.7137945
1.7138551
1.7043208
1.705612
1.7076545
1.7085312
1.7075053
1.7095306
1.7117237
1.7132248
1.6300136
1.6317875
1.6373639
1.63544
1.638761
1.6448381
1.6442559
1.6376434
1.5309716
1.5312478
1.5264133
1.5266284
1.5307226
1.5302776
1.5594932
1.5344583
1.5347249
1.5584516
1.5576682
1.5345034
1.5343093
1.5573824
1.5578667
1.623284
1.5965606
1.6621899
1.6637759
1.5974234
1.5974563
1.5983765
1.6638737
1.6638218
1.7862155
1.8756264
2.0681627
1.7834967
2.0779302
1.7840649
1.7870933
2.0791687
2.0685283
1.596567
1.5971624
1.6623778
1.6614775
1.595932
1.5960974
1.6596221
1.6613667
1.7796134
2.0636625
1.7811762
2.0643896
1.7802689
1.774657
2.0423686
2.0573152
1.5301186
1.5301269
1.5526113
1.6008199
1.6015351
1.5529213
1.6010378
1.6021753
1.5301585
1.5523001
1.5998309
1.6004149
1.5524662
1.60027
1.5999168
1.5303586
1.6662384
1.6655205
1.6655202
1.6667945
1.7509141
1.7494458
1.8717518
1.880176
2.073133
2.0736728
2.1783852
2.1768868
2.0742505
2.1723203
2.0563577
2.1644043
1.7504569
1.7479816
1.8748943
1.8776546
1.7471562
1.751523
1.873316
1.8815324
1.7517787
1.7489777
1.8844915
1.8732954
2.0670445
2.0798286
2.1537945
2.1690968
2.0856648
2.064452
2.1763556
2.173217
1.6636007
1.6637009
1.6642241
1.6628366
1.8654051
1.7447086
1.7476535
1.8697736
1.8676715
1.7412333
1.744487
1.8550194
2.0462738
2.0503271
2.1440625
2.1388283
2.0236383
2.1404782
2.1227634
2.0480986
1.7452676
1.8690506
1.8674819
1.745475
1.744449
1.7438358
1.8675797
1.8616992
2.0554907
2.0516698
2.1564479
2.1505636
2.0535881
2.0390117
2.1508421
2.145552
1.592628
1.5923966
1.548109
1.6016165
1.6013824
1.5932121
1.548783
1.602195
1.6413335
1.6410041
1.7015749
1.700363
1.7848076
1.7810696
1.6411773
1.6407921
1.7010862
1.6992628
1.7847744
1.7797492
1.6417661
1.6418708
1.7011022
1.7020069
1.7833212
1.7858531
1.8542864
1.9559972
1.855907
1.9548906
1.8541332
1.8472652
1.9429938
1.9565744
1.8549654
1.8580552
1.9614423
1.9558416
1.9473773
1.8475086
1.8487267
1.9453498
2.1360652
2.2798921
2.306983
2.1534472
2.153529
2.3071115
2.3021234
2.1499884
2.0548661
2.0365194
2.1897287
2.1645625
2.051133
2.0539993
2.1840272
2.1884556
2.0541838
2.0608241
2.188443
2.1964305
2.1470966
2.2984466
2.3115704
2.1587458
2.1802212
2.0446157
2.0400394
2.1694785
2.3016777
2.2945392
2.1678495
2.158289
1.855866
1.8513115
1.9491408
1.9577748
1.8568482
1.8548961
1.9546113
1.9545923
2.0551122
2.04448
2.1752689
2.188442
2.1688329
2.2963359
2.3085589
2.1734903
2.0485597
2.0502499
2.1814223
2.1770511
2.2937562
2.300205
2.1633134
2.1572219
2.0576182
2.0530668
2.1829866
2.1874992
2.156107
2.2962659
2.307736
2.1681346
1.7104601
1.7156282
1.6084732
1.6086234
1.6674225
1.768623
1.7678711
1.6680885
1.7634348
1.7643446
1.6678954
1.6658736
1.7624426
1.7656794
1.664514
1.6666934
1.7493333
1.7572104
1.6600047
1.6622777
1.768356
1.768187
1.6675113
1.6686135
1.7623853
1.758836
1.665818
1.6665264
1.7680272
1.7711059
1.6675111
1.6690425
1.7711857
1.6684239
1.7715657
1.6703327
1.8359243
1.8256521
1.7028322
1.7042663
1.8375346
1.8399616
1.7057078
1.7068767
1.8425876
1.8377737
1.7057908
1.7071282
1.8429003
1.8422491
1.7071709
1.7083626
1.8509784
1.8470621
1.7085476
1.7094751
1.8403994
1.8469958
1.7092055
1.7096691
1.8382565
1.835082
1.7057995
1.7072773
1.8317385
1.8344134
1.7065416
1.707201
1.8356586
1.8305776
1.7049858
1.7061719
1.8291272
1.832951
1.7066075
1.7072608
1.835181
1.8287094
1.705526
1.7072318
1.8319626
1.8336699
1.7073255
1.7083572
1.8359706
1.8287257
1.7059468
1.7075289
1.8327997
1.8349141
1.7081816
1.7090048
1.8274195
1.7056119
1.82936
1.7065308
1.82082
1.8162647
1.7044868
1.704449
1.8342192
1.8252335
1.8404363
1.8443287
1.8175288
1.8250745
1.8239925
1.8283939
1.8496742
1.8532128
1.8486686
1.8420462
1.8479286
1.8390708
1.84185
1.8479677
1.5329312
1.5383874
1.5879031
1.5874924
1.5945903
1.59531
1.5460661
1.5507379
1.6082624
1.6087245
1.603727
1.6039539
1.607455
1.6079103
1.6030124
1.6028679
1.5950393
1.5919187
1.5949731
1.5915574
1.5957624
1.5922936
1.5926069
1.5953912
1.549699
1.5568299
1.5498903
1.5574841
1.5713113
1.572035
1.5788826
1.5782894
1.5580512
1.5584467
1.550239
1.5499203
1.5701414
1.5692262
1.5757573
1.5771272
1.5499449
1.5497371
1.5574013
1.5577139
1.5703547
1.5703411
1.5773698
1.5773302
1.5493154
1.5572611
1.5569886
1.5491807
1.5779078
1.570487
1.5777819
1.5702399
1.5749099
1.5745517
1.5803303
1.5800071
1.5982743
1.6054135
1.605702
1.5982582
1.5940868
1.5892975
1.5908826
1.5916773
1.6075531
1.6082164
1.6032461
1.6032918
1.6036403
1.6061128
1.5993301
1.6016951
1.5920286
1.5929393
1.5953664
1.5948873
1.5938076
1.5931453
1.5799052
1.5807608
1.5918791
1.5917805
1.5783807
1.5787928
1.608846
1.6150061
1.608958
1.6156914
1.6109378
1.6172706
1.6101914
1.617043
1.5928589
1.5915744
1.5781711
1.579598
1.5904378
1.5913869
1.577988
1.5772391
1.6100128
1.6168801
1.6086547
1.6159198
1.6072833
1.6141393
1.6083822
1.6156412
1.6538914
1.6533304
1.6536283
1.653452
1.6334321
1.6325665
1.6371325
1.6375318
1.6305058
1.6321411
1.6346996
1.63669
1.6500641
1.6520998
1.6497868
1.6521263
1.6337397
1.6373284
1.6382868
1.6334364
1.6310696
1.6343172
1.6321335
1.6359477
1.649204
1.6481615
1.6512693
1.651275
1.6526769
1.6516981
1.6535785
1.6530313
1.6614132
1.6583904
1.664771
1.6617342
1.6652877
1.6621782
1.6665444
1.6637981
1.6738566
1.6660313
1.6753782
1.6679025
1.6698968
1.6624445
1.6733344
1.6656647
1.6729435
1.6612229
1.6755428
1.6635955
1.6756959
1.6670839
1.6774345
1.6690014
1.6721574
1.6639152
1.6752779
1.6667053
1.6753929
1.6633394
1.6772059
1.6653486
1.6789596
1.6664298
1.6794868
1.6672384
1.6755814
1.6778924
1.6673774
1.6696749
1.6790441
1.6702279
1.6794836
1.6709081
1.6756375
1.6638194
1.6776621
1.6658495
1.6766273
1.6688608
1.6769931
1.6694556
1.6634331
1.6609274
1.6657088
1.6634286
1.6670817
1.6642148
1.6672133
1.6646443
1.6726181
1.6750225
1.6653525
1.6679109
1.6371655
1.6347524
1.6405584
1.6384929
1.6362933
1.6401052
1.6379803
1.6420108
1.6556639
1.654543
1.6577446
1.6566934
1.6559323
1.6544068
1.6532303
1.6523663
1.6131083
1.6195393
1.6111568
1.6178117
1.6117764
1.6185823
1.6129465
1.6200307
1.5935006
1.5943765
1.5801171
1.5807481
1.594711
1.5933228
1.5801311
1.5813476
1.6098416
1.616472
1.6104662
1.6173657
1.5929644
1.5941656
1.5808753
1.5799063
1.5918995
1.5923463
1.5789597
1.5786185
1.6099709
1.616529
1.611399
1.6183925
1.6529511
1.652211
1.6545611
1.6539247
1.6329284
1.6367895
1.6350143
1.6392304
1.6329133
1.6367671
1.6340463
1.638142
1.6520863
1.6514127
1.6546446
1.6542148
1.6766375
1.6754898
1.6678341
1.6675026
1.6781747
1.6800352
1.6692296
1.6710018
1.6772467
1.6648768
1.6788653
1.6664834
1.6758633
1.6637207
1.6753501
1.663875
1.6759621
1.6786965
1.6676178
1.6702516
1.677157
1.6684823
1.6786785
1.6699785
1.6765532
1.6643918
1.6778939
1.6657793
1.6757644
1.6782007
1.6639604
1.6663366
1.6749368
1.6671464
1.67667
1.6688407
1.6657402
1.6674978
1.6627734
1.6645454
1.6648903
1.6677041
1.6620058
1.6649667
1.6734886
1.6763815
1.6659228
1.6688702
1.6766152
1.6787392
1.6683399
1.6703783
1.6680615
1.6702558
1.6646071
1.6668035
1.6651742
1.667687
1.6639753
1.6623201
1.6751574
1.6732159
1.6668563
1.6659091
1.710053
1.7100289
1.7061926
1.7137471
1.7140658
1.7075338
1.7114073
1.7180114
1.7181083
1.7140612
1.7164638
1.7125041
1.7211198
1.7141437
1.7224707
1.7154858
1.7041722
1.7003169
1.7008231
1.7035386
1.705815
1.704373
1.7011919
1.7028717
1.7064563
1.7106506
1.7051539
1.7112215
1.7136615
1.7088632
1.7118579
1.7068281
1.6991249
1.6996523
1.6959528
1.7023131
1.7058348
1.7004872
1.7040932
1.7091464
1.7030322
1.7044462
1.7008415
1.7058335
1.7115584
1.7061104
1.7135424
1.7079663
1.7143662
1.7104652
1.7122835
1.7156832
1.7126035
1.7206686
1.7188437
1.7137496
1.7163807
1.7185405
1.7128901
1.7151761
1.7156306
1.7240285
1.7176034
1.7216208
1.6896131
1.6894578
1.6850488
1.6849917
1.6967454
1.6922426
1.6914916
1.6967625
1.6893767
1.6899183
1.6861774
1.6852511
1.6971112
1.6981372
1.6921652
1.6935077
1.6837592
1.6868617
1.6821711
1.6873244
1.6935396
1.6881142
1.6906378
1.6953054
1.6870743
1.6901185
1.6855083
1.6904446
1.697508
1.6921306
1.6989913
1.6936404
1.6775323
1.6776125
1.6742167
1.6745039
1.6769923
1.6773502
1.6788728
1.678875
1.6612009
1.6618958
1.6798818
1.6797205
1.6767316
1.6765668
1.6764058
1.6768822
1.6778557
1.6779034
1.6611775
1.6632825
1.722726
1.7191611
1.7214728
1.7248817
1.7237292
1.7227118
1.7191628
1.7200548
1.7235006
1.7280754
1.721306
1.7302527
1.7289232
1.722076
1.7284188
1.721571
1.7057086
1.702012
1.7025603
1.7051206
1.7084874
1.7125229
1.7071364
1.7131238
1.7147981
1.709902
1.7139875
1.7088708
1.7078438
1.7086558
1.7057997
1.7102297
1.7168489
1.712026
1.7142848
1.7188237
1.70706
1.7079494
1.7051205
1.7091207
1.7165014
1.7116688
1.7180974
1.7130727
1.7165433
1.7127301
1.7146076
1.7179003
1.718475
1.7149191
1.7193635
1.7159476
1.7168372
1.7213427
1.7146664
1.723217
1.724625
1.723759
1.7172693
1.7182923
1.6905336
1.6904085
1.6861736
1.6861595
1.6980194
1.6936346
1.6929445
1.6979996
1.6890478
1.6915547
1.6881442
1.6914524
1.7004185
1.6960048
1.6976181
1.7013423
1.6885056
1.6904242
1.6869589
1.6907524
1.6994421
1.6950175
1.7008526
1.696409
1.7053343
1.7084695
1.7037273
1.7099752
1.7126608
1.7076444
1.7096285
1.7145865
1.707898
1.7008446
1.7095801
1.7025236
1.70486
1.7064669
1.7118657
1.7138159
1.7103215
1.7152686
1.7093954
1.7158097
1.7119403
1.7099576
1.7048936
1.7065155
1.7103442
1.7087925
1.7014408
1.7027477
1.7053466
1.7062709
1.7130902
1.7139322
1.7096409
1.7134548
1.7079233
1.7150829
1.7177885
1.7120499
1.7142967
1.7199744
1.7117266
1.7041176
1.7134762
1.7055914
1.7082712
1.7102428
1.715925
1.7181302
1.7052097
1.7091378
1.7040542
1.7099959
1.706683
1.7054447
1.7008344
1.7018857
1.6980523
1.7060419
1.7049982
1.6989541
1.7010621
1.7020802
1.7080883
1.7091905
1.7161848
1.7196403
1.7145252
1.7208831
1.7207838
1.7135278
1.7154041
1.7224929
1.7206675
1.7229869
1.7180702
1.7250787
1.7246377
1.7173746
1.7202172
1.7272539
1.7217502
1.7159943
1.7212136
1.7153501
1.7171776
1.714147
1.7090758
1.7116815
1.7159193
1.7132995
1.7056226
1.7077306
1.7111715
1.7118378
1.719624
1.7201254
1.7181275
1.7142337
1.7095261
1.7128917
1.7189372
1.7154913
1.7086335
1.7116304
1.7176922
1.7214034
1.7162107
1.7225099
1.7154699
1.7226491
1.7238324
1.716237
1.7152491
1.7187918
1.7132903
1.7206523
1.7228798
1.7173902
1.7201083
1.7256129
1.7176399
1.7092645
1.7196226
1.7108947
1.713542
1.7158203
1.7219282
1.724508
1.7215515
1.7153116
1.71668
1.7228639
1.7224914
1.7160851
1.716647
1.7225967
1.7190048
1.7106737
1.7120513
1.7203387
1.7198344
1.7113561
1.7122656
1.7203079
1.7145485
1.7092449
1.7106236
1.7158722
1.7152398
1.7098837
1.7110116
1.7160756
1.7134027
1.7057312
1.7074323
1.7147741
1.7140727
1.7066064
1.7078402
1.7151377
1.7125606
1.7076575
1.7095429
1.7145018
1.7161133
1.7155488
1.7103631
1.7109547
1.7120333
1.7046638
1.7067166
1.7139215
1.7151167
1.71464
1.706969
1.7074099
1.7174885
1.7118109
1.7138484
1.7195467
1.7215989
1.7211355
1.7152352
1.7158353
1.7158022
1.7079972
1.7099675
1.7178368
1.7197485
1.719231
1.711054
1.7117247
1.72264
1.7171468
1.7192014
1.7244981
1.7268613
1.7265687
1.72095
1.7214427
1.7217656
1.7131375
1.7152168
1.7238819
1.7260274
1.7257058
1.7167377
1.7173217
1.7288543
1.7308845
1.7237237
1.7253729
1.7303871
1.7319716
1.7227864
1.7241186
1.7294048
1.7242035
1.724717
1.7295047
1.7237774
1.723871
1.7311558
1.7312179
1.7283424
1.7223708
1.7238148
1.7296429
1.7295055
1.7233632
1.7234487
1.7292006
1.7268307
1.7175503
1.7189257
1.7282619
1.7280185
1.7184129
1.7186836
1.7277673
1.7220375
1.717108
1.7241695
1.71901
1.7256708
1.7237229
1.7165712
1.7183524
1.725718
1.7210696
1.7248913
1.7201506
1.7202933
1.7270533
1.7277573
1.7207757
1.7098139
1.7117875
1.711592
1.7124895
1.7093617
1.7108436
1.7111669
1.7115273
1.7099067
1.7109372
1.7086512
1.7082163
1.7103025
1.7121267
1.7127114
1.7133428
1.7117985
1.7101317
1.7116341
1.7126855
1.67703
1.6777052
1.6747448
1.6748241
1.7068984
1.7087135
1.7101583
1.7113319
1.7100338
1.7119179
1.7113315
1.7108844
1.713186
1.7143228
1.7138686
1.7140563
1.6782775
1.6767917
1.6772638
1.6789297
1.6141073
1.6145073
1.6167469
1.6243431
1.6227785
1.6148403
1.6766257
1.6769802
1.6745555
1.6762247
1.6732236
1.6753752
1.6685324
1.6712495
1.6245119
1.6240661
1.6305627
1.6313834
1.6417937
1.6440598
1.6498386
1.6473793
1.5277587
1.527921
1.5240839
1.5283055
1.5283281
1.5242909
1.5283589
1.5285757
1.5568784
1.5314505
1.5317231
1.5546908
1.6045655
1.6052468
1.5539357
1.6045323
1.6035366
1.5315131
1.5314047
1.5538046
1.6031901
1.6027709
1.554191
1.6035844
1.6041532
1.5964498
1.5969853
1.6634912
1.6642944
1.6701285
1.6717097
1.6718091
1.6716269
1.7583182
1.7598133
1.8998173
1.8921267
1.7915083
1.7855909
2.0926336
2.0719369
2.1012038
2.1794178
2.111335
2.1956269
1.7583012
1.7547791
1.8889287
1.8952905
2.1172272
2.1012259
2.2084133
2.2035634
1.7594234
1.7555574
1.8852732
1.8969592
1.7615674
1.7583779
1.894881
1.8991312
2.1104265
2.1125147
2.2102442
2.2047238
2.1098666
2.089245
2.1969114
2.1883231
1.6701925
1.6693254
1.6671134
1.6694291
1.8838364
1.7553363
1.7525958
1.8863116
2.0909687
2.0904429
2.1921603
2.1920133
1.7557468
1.7550846
1.8898292
1.8841915
2.085585
2.0985028
2.1953706
2.1900836
1.7550883
1.7559011
1.8861388
1.887783
1.7510246
1.7488123
1.8716122
1.8823006
2.0829894
2.0584739
2.1712692
2.1539664
2.0936529
2.1848284
2.0862165
2.1802276
1.5953099
1.5944046
1.5478181
1.6038824
1.6044749
1.5960017
1.5946465
1.5480819
1.6038747
1.6053516
1.5940885
1.5933755
1.5476077
1.6026837
1.6030217
1.5937625
1.5939307
1.5477789
1.6033758
1.6026978
1.6463383
1.6455348
1.7090983
1.7071425
1.7991164
1.7929267
1.6457589
1.6449074
1.7064105
1.7087782
1.7914311
1.798438
1.6455237
1.6448194
1.7079173
1.7063093
1.7927094
1.7966209
1.6472224
1.6461724
1.7081825
1.7091006
1.7976452
1.7934819
1.8649859
1.9718305
1.8653303
1.9669201
1.9826372
1.8725752
1.8761057
1.9871019
2.2306722
2.0794229
2.0932499
2.2452796
2.2402846
2.0880974
2.0865402
2.2336377
2.2038883
2.3569967
2.373809
2.2126157
2.2050333
2.3649769
2.3594128
2.1999202
2.0902804
2.0951423
2.243553
2.2378349
2.1934583
2.3567157
2.3659567
2.1978468
2.2234185
2.0768296
2.0676278
2.206941
2.1898132
2.3452138
2.3325517
2.1875468
1.9714524
1.8648909
1.8709842
1.9821493
1.9787663
1.8695722
1.8724
1.9790708
1.8621832
1.9671395
1.8703641
1.9825094
1.8764895
1.8725625
1.9843237
1.987092
1.8793375
1.8763518
1.9898934
1.9936199
1.8660632
1.8653545
1.9744492
1.9698164
2.2224846
2.0722686
2.0923727
2.2458834
2.2515232
2.0944979
2.0967041
2.2504507
2.1621474
2.3345551
2.3623263
2.1832752
2.368131
2.3672704
2.1877357
2.1878129
2.2614815
2.1021592
2.1055115
2.2608587
2.2359734
2.0826549
2.0736343
2.2189389
2.1899985
2.3727591
2.3799492
2.1984681
2.3485837
2.36004
2.195088
2.2001224
1.6438993
1.6435199
1.7051969
1.7050081
1.7901693
1.7897881
1.644619
1.6432263
1.704349
1.7043366
1.7890024
1.7864562
1.6445376
1.6440895
1.7051841
1.706808
1.788628
1.7934315
1.6434638
1.6429601
1.704668
1.7026097
1.7897769
1.78289
1.9564893
1.8568517
1.9684582
1.8633422
1.9686866
1.8645692
1.8658323
1.9667323
1.965389
1.861432
1.8646664
1.9693484
1.8497658
1.8497994
1.9427666
1.9482198
2.1907726
2.0539408
2.0690497
2.2072247
2.0647932
2.0683873
2.1993548
2.2046314
2.318618
2.1653967
2.1647753
2.3131776
2.1541941
2.3032562
2.3205617
2.1685496
2.0445846
2.0339356
2.1760524
2.1595807
2.3193436
2.322838
2.1616443
2.1561422
2.2741408
2.2906274
2.1454695
2.1396863
2.0697671
2.0658561
2.2056814
2.2025657
1.9645394
1.8606332
1.8661683
1.9739459
1.9669947
1.8615342
1.8616268
1.9620309
1.9622068
1.8591827
1.8646379
1.9714725
1.8553576
1.855752
1.952956
1.9574061
2.2094957
2.0666173
2.0782614
2.2211933
2.2136442
2.0693875
2.0609866
2.1988768
2.1812383
2.3299819
2.3428326
2.1880032
2.3188951
2.3319956
2.1763859
2.1703089
2.2060657
2.0634135
2.075212
2.2173949
2.1984478
2.0578812
2.0488512
2.1813792
2.1641794
2.3208361
2.3354156
2.1764619
2.3008439
2.316709
2.1679114
2.1643952
1.6538903
1.6540258
1.6542763
1.6547684
1.600397
1.599852
1.5938292
1.5939582
1.6621833
1.6630637
1.6487559
1.6481151
1.661683
1.6616031
1.6479298
1.6477048
1.6550184
1.6548132
1.6004162
1.5945101
1.6489619
1.6625888
1.6623953
1.6487754
1.7107349
1.7949486
1.7093902
1.791957
1.8928486
1.8934325
1.8828674
1.8946307
1.7099845
1.7954229
1.7077983
1.7887303
1.8981937
1.8926302
1.8842138
1.8843956
1.709868
1.7936312
1.7108107
1.7955006
1.887605
1.8954678
1.8927964
1.8940234
1.9873305
1.9843258
1.9721022
1.9887083
1.9932477
1.9861965
1.9768818
1.9732773
2.2435414
2.4071311
2.4353834
2.2601791
2.2612612
2.437108
2.4240126
2.2483361
2.0897966
2.0683403
2.2966114
2.2646046
2.0831243
2.0885071
2.286939
2.2940697
2.0873752
2.0956916
2.2934529
2.3048766
2.2500949
2.4265725
2.4396621
2.2636989
2.285962
2.0773365
2.0706606
2.2708279
2.4315428
2.4203899
2.2738363
2.2698517
1.9786148
1.989151
1.9850657
1.9836478
2.0893647
2.0767731
2.2784212
2.2952465
2.2828088
2.4286021
2.4377193
2.2844793
2.0801132
2.0836658
2.2857517
2.2783415
2.416393
2.4267823
2.2733586
2.2611703
2.2874264
2.2952694
2.2672439
2.4269812
2.4392638
2.2834766
1.7650922
1.7581308
1.6672418
1.6673775
1.7735391
1.7733794
1.6701372
1.6689862
1.8579819
1.8543191
1.7104364
1.711624
1.8475463
1.8529057
1.7110202
1.7117224
1.8450958
1.8412417
1.7086
1.7098627
1.8407655
1.8396765
1.7097229
1.7106815
1.8462913
1.8422403
1.7069177
1.7079817
1.8482038
1.845748
1.708934
1.7099069
1.8278835
1.814831
1.6999661
1.7015431
1.7043714
1.836017
1.8363329
1.7053285
1.8542978
1.8498317
1.7116412
1.7133709
1.8449205
1.850866
1.7126265
1.7132213
1.8404198
1.8389515
1.7093747
1.7104554
1.8260775
1.8316808
1.7080489
1.7080511
1.8577029
1.8477235
1.7106479
1.7122305
1.8533343
1.857251
1.7130243
1.713784
1.8587178
1.8534762
1.7123663
1.7138689
1.8506285
1.8543557
1.7137463
1.7143443
1.8406614
1.8294463
1.8421802
1.8451965
1.8480025
1.8427015
1.8472759
1.8476805
1.8569518
1.8530057
1.8446008
1.8529499
1.8429999
1.8393927
1.8356684
1.8394679
1.8406653
1.835827
1.8327152
1.8380875
1.8386897
1.8332393
1.835121
1.8378643
1.8391746
1.8335531
1.8357059
1.8389862
1.8313049
1.8324115
1.8236997
1.8183201
2.0077718
1.8018947
1.9912661
1.7944824
2.020732
1.8078216
2.0280045
1.8117645
1.9852598
1.7866991
2.0002886
1.7932508
1.9901235
1.7938685
2.0029069
1.7969818
2.0381484
1.8169622
2.0408182
1.8203209
2.0300222
1.8173729
2.0146232
1.8116332
2.0328908
1.8153605
2.0134339
1.8079787
2.028217
1.8110169
2.0384614
1.8159477
1.5517003
1.5520799
1.5598997
1.5596286
1.5723629
1.5796024
1.5728483
1.5799137
1.5739041
1.573865
1.5798289
1.5800413
1.6001406
1.5989568
1.6063347
1.6078509
1.5966519
1.5939189
1.5932256
1.5965566
1.6045648
1.6045894
1.6087487
1.608428
1.6805001
1.6822463
1.6720555
1.6740169
1.6809354
1.6722146
1.6824367
1.6737786
1.6805363
1.668087
1.6820114
1.6696547
1.6805097
1.6683349
1.6822819
1.6703113
1.6777566
1.6777789
1.6694053
1.6699157
1.6805232
1.6717793
1.6815869
1.6730304
1.677869
1.6780056
1.6658317
1.6664388
1.6681408
1.6802494
1.6812969
1.6690148
1.6782291
1.6702004
1.6792986
1.6714876
1.6691007
1.6700581
1.6658826
1.6670967
1.6753506
1.6751095
1.66751
1.6679364
1.6664587
1.6660012
1.6632148
1.6633561
1.6786887
1.670716
1.6801182
1.6722984
1.6691872
1.6704625
1.6661432
1.667837
1.6695624
1.6664123
1.670685
1.6677969
1.6778566
1.6794134
1.6701407
1.6720908
1.5934138
1.5939193
1.5805896
1.5803305
1.6103795
1.6162181
1.6110993
1.6174557
1.5950819
1.5967654
1.5833542
1.5818417
1.6122712
1.6185831
1.6141643
1.6207724
1.6360832
1.6370059
1.6394064
1.6406748
1.6409076
1.6444181
1.6393319
1.6431073
1.6599754
1.6585846
1.6584417
1.6574186
1.6544265
1.655621
1.6531798
1.654735
1.6127409
1.6189357
1.6133458
1.6199109
1.6166572
1.6231629
1.6151734
1.6218624
1.5981529
1.5968948
1.5846556
1.5834229
1.5947413
1.5953335
1.5819411
1.5815153
1.6349931
1.6385031
1.6373265
1.6410569
1.6320833
1.6349361
1.6337616
1.637167
1.649487
1.6481061
1.6522709
1.6512063
1.6537211
1.6526684
1.656341
1.6554659
1.5962753
1.596545
1.5830504
1.5830082
1.5960882
1.5954383
1.581839
1.5826657
1.6135153
1.619985
1.6129013
1.6198073
1.6136024
1.6200384
1.6138768
1.6207799
1.635224
1.6347363
1.6385582
1.6384514
1.6367511
1.6404088
1.6371849
1.6411873
1.6536628
1.6531435
1.6523869
1.6523755
1.655815
1.654759
1.6565944
1.6557955
1.595297
1.5952317
1.5816185
1.5819314
1.6117211
1.6179878
1.611244
1.6178729
1.6126325
1.619252
1.6126648
1.6196373
1.5936595
1.593432
1.5803549
1.5800606
1.656269
1.6552635
1.6569347
1.6562898
1.6366217
1.6402762
1.6373308
1.6414098
1.6556905
1.6547992
1.6567126
1.6562446
1.636535
1.6400969
1.6365202
1.6405393
1.5846663
1.5846746
1.5908992
1.5907287
1.6092021
1.6164919
1.6165455
1.6088175
1.6752537
1.6781376
1.6673617
1.6702744
1.661021
1.6578643
1.6645534
1.6614531
1.6661353
1.6630523
1.6689491
1.6659716
1.6690499
1.6616201
1.6729321
1.6652238
1.677454
1.6792735
1.6692404
1.6712079
1.6819099
1.6813981
1.6727283
1.6727231
1.6807818
1.680781
1.6681151
1.6685381
1.6775808
1.6657457
1.6794103
1.6676816
1.6711105
1.6631019
1.6747726
1.6663173
1.6769073
1.6683854
1.6797169
1.6710211
1.6713298
1.6599538
1.6745372
1.6627149
1.6765996
1.6645633
1.6791189
1.6669357
1.6664678
1.6678948
1.6633904
1.6651377
1.6722114
1.6708719
1.6677949
1.6686559
1.6802273
1.6718858
1.6792794
1.671417
1.6748546
1.6765113
1.6672473
1.6692214
1.6845082
1.6842558
1.6815077
1.6812358
1.6778774
1.6783925
1.6791754
1.6792325
1.6625084
1.667565
1.6813765
1.6815169
1.6776228
1.6780477
1.679382
1.6799146
1.6814477
1.6814988
1.6644456
1.6651257
1.6890386
1.6896063
1.6848836
1.6840634
1.6953262
1.6963756
1.6896768
1.6909619
1.6884783
1.6913013
1.6865576
1.6918669
1.6938684
1.6984689
1.7004254
1.6951045
1.6896805
1.6934533
1.688988
1.6931131
1.6965537
1.7009603
1.7015766
1.6962472
1.6875525
1.689674
1.6857291
1.6902044
1.6937044
1.6975689
1.6993635
1.6947487
1.681098
1.6810793
1.6788169
1.6788475
1.6776751
1.6779928
1.678776
1.6787407
1.6617418
1.6642792
1.6786917
1.6785543
1.6759862
1.6758985
1.6752
1.6757302
1.6762992
1.6763537
1.659709
1.6620574
1.6907504
1.6908567
1.6871458
1.6869198
1.698865
1.6992365
1.6943525
1.6948568
1.6875201
1.6898052
1.6859723
1.6900722
1.6946891
1.6982708
1.6997169
1.6953122
1.6847266
1.6878607
1.683771
1.687757
1.6918709
1.6957261
1.69665
1.691865
1.6852378
1.6870105
1.6833318
1.6875841
1.6917933
1.6952534
1.6971372
1.6929061
1.7185215
1.7195533
1.7161911
1.7213394
1.719361
1.7251114
1.7274863
1.7209791
1.7210667
1.7227227
1.7176064
1.719053
1.7209669
1.7280174
1.7214747
1.7269613
1.7043809
1.7056728
1.7027861
1.7063449
1.7064117
1.7034353
1.7049671
1.7069062
1.7120196
1.7147451
1.7099687
1.7160569
1.713613
1.7153445
1.7089738
1.7106008
1.7031742
1.6999485
1.7009066
1.7031726
1.7041612
1.7031005
1.7002827
1.7015878