/*--------------------------------*- C++ -*----------------------------------*\
  =========                 |
  \\      /  F ield         | OpenFOAM: The Open Source CFD Toolbox
   \\    /   O peration     | Website:  https://openfoam.org
    \\  /    A nd           | Version:  7
     \\/     M anipulation  |
\*---------------------------------------------------------------------------*/
FoamFile
{
    version     2.0;
    format      ascii;
    class       volScalarField;
    location    "1000";
    object      omega;
}
// * * * * * * * * * * * * * * * * * * * * * * * * * * * * * * * * * * * * * //

dimensions      [0 0 -1 0 0 0 0];

internalField   nonuniform List<scalar> 
33943
(
2178.5903
3968.5898
703.80031
731.62072
422.00282
4474.3235
9343.8867
2128.2834
3965.8674
4005.9084
706.77602
723.53908
7311.4922
1789.2289
1821.6079
7486.8595
548.59092
623.06907
748.51906
735.88738
329.55783
2038.4359
2004.2965
405.64657
311.44403
349.06202
348.31914
310.97027
4608.7471
1158.79
1159.6759
9508.8699
9431.4702
1888.602
563.55056
4375.6903
4412.6555
19292.359
19493.527
3871.4016
3936.147
702.90943
722.71946
7379.3808
7579.5676
1855.1176
1804.3696
7569.1068
7516.3693
1863.4295
1898.7928
12583.445
4385.2454
12239.343
4303.9099
12896.268
12542.718
4506.6306
4441.4798
279.81091
551.00093
626.54827
557.97092
639.35178
1450.3408
1270.8234
1463.4022
1263.0412
1801.4027
1786.3224
1836.2422
1808.8837
2052.3051
2085.9995
2012.6511
2058.1371
745.063
332.85364
734.98624
278.99525
278.19518
299.94432
301.33835
5107.9273
5022.6673
4881.068
4964.8438
313.89898
311.29795
343.68413
346.26125
303.32026
320.00594
319.51905
303.23305
1171.8674
1172.5038
9669.8148
9593.2965
566.47661
561.12839
1926.9749
1934.6849
563.9253
1909.7469
1948.7011
574.41804
4478.4807
4484.3901
19639.933
19602.666
4420.4885
4492.3197
19438.135
19480.933
2057.2743
582.5767
3473.9498
3498.5017
6551.6941
6521.536
3512.9412
6605.6244
12986.512
13045.842
35121.382
35371.382
13152.72
35648.722
35300.97
731.51761
7372.761
7247.3657
1786.1634
1825.0386
7391.3726
1872.0015
7458.9573
1837.6644
12329.99
12818.219
4318.3922
4449.4278
12931.45
12912.316
4525.9259
4573.821
12741.916
12895.202
4494.6168
4559.2447
12764.532
12477.32
4525.1137
4533.2495
20074.052
20186.066
7886.624
8074.8289
19316.206
19758.256
7685.7118
7824.3582
20561.895
20415.603
8204.479
8195.8758
7938.4303
19985.748
19964.07
8069.6719
282.86796
639.25225
554.30148
560.76857
243.13691
264.688
263.8286
242.65479
626.57459
1280.8997
1272.5711
1470.8243
1456.2842
1794.129
1807.0606
1851.4055
1819.9016
1514.942
1314.7849
1274.2776
1466.5205
1885.2021
1838.7918
1814.8806
1861.669
4240.008
4048.5845
4056.1851
4257.7812
3358.3086
3365.3967
3015.4214
2989.9744
4433.8181
4105.7087
4219.2572
4325.8158
3400.0375
3470.9755
4724.1363
5174.3266
5242.4671
4641.8689
4887.895
4730.732
4861.8059
4789.4617
5444.341
4865.7145
4791.0001
5319.5009
4867.7167
5102.1205
4972.9575
4961.7051
5103.057
5058.757
5061.5104
5115.2133
5017.8769
2054.1106
4883.5429
5100.7325
5098.78
2045.1318
765.98641
277.25174
301.35746
304.16405
282.05843
2029.969
1992.1814
273.92546
270.63649
286.09095
287.33971
9097.1115
9093.8145
8798.7575
8926.0491
8522.042
8697.9152
8714.2619
8943.6651
304.20726
305.30899
319.99148
319.35012
370.25174
376.74854
382.71212
375.03987
434.38795
437.58043
410.49958
564.10388
565.70721
1952.0459
1944.8268
561.62106
569.90282
1955.9915
1941.448
4532.3874
4549.7104
19885.344
19993.132
4511.4821
4528.164
19842.418
19607.871
584.11719
578.80263
2099.787
2111.3397
581.08492
2076.619
2123.4341
590.07816
3542.2223
3548.7203
6659.4626
6647.1733
6651.3983
3531.1796
3579.9097
6673.3983
13236.316
36234.994
35915.088
13326.047
13264.547
13324.547
35807.87
36133.658
3497.7423
3510.5029
6563.4916
6581.6355
6684.9863
3573.4801
3590.4598
6670.1123
13206.846
13155.046
35623.879
35302.721
13123.115
13155.261
35762.751
35802.203
2163.4286
4071.9156
4035.0241
560.30076
565.34254
2185.2646
4088.8384
7284.6172
7247.5756
7340.2995
12382.899
12512.651
19228.987
19006.061
19320.892
12476.815
12505.668
19138.842
51922.379
52488.023
31670.41
32022.905
32092.792
52717.439
31595.884
52652.222
12540.529
12654.996
19244.001
19421.875
32133.335
52806.546
32268.606
52707.662
32131.744
52481.179
7515.6985
1917.1082
12702.087
4450.6368
12411.682
4408.1735
12640.67
4384.7139
12096.344
4217.265
12552.176
12337.581
4426.174
4429.1995
12636.84
4446.6478
12808.225
4507.6283
19404.579
19949.381
7720.5317
7903.4782
20429.567
20477.194
8032.1562
8168.8931
8188.9957
20594.486
20723.659
8248.7549
20464.566
20425.808
8230.9741
8085.5407
20182.14
20414.65
8135.7698
8032.4117
20515.552
20531.444
8282.814
8118.2807
20218.832
20361.612
8208.984
8104.2076
19874.696
19515.221
7979.0116
7984.0202
35196.743
34781.861
11326.205
11431.296
35174.441
34921.183
11594.036
11500.164
10937.969
33108.917
34198.293
11114.373
34305.422
34714.716
11264.19
11334.973
35580.492
35925.435
11671.884
11759.891
11753.058
36085.846
35134.341
11727.578
34997.312
34844.751
11372.675
11436.567
34184.896
34864.323
11453.918
11486.974
576.61932
239.88963
244.64136
266.65218
262.2691
656.90507
1840.1379
1860.4619
1843.4741
1827.1906
1279.3305
1475.7784
1285.429
1447.7395
1289.5472
1503.7621
1310.9139
1478.7464
244.85322
259.51991
255.10788
241.79541
1780.6633
1833.6972
1789.3032
1814.8701
3053.7146
3014.5915
3354.0682
3419.8656
3017.7025
3016.0443
3413.2702
3411.4888
4369.7959
4142.0022
4122.5814
4360.6691
4118.382
4043.0853
4225.3746
4323.2243
4852.8941
4959.4022
4850.0853
4722.8787
4642.4249
5305.1548
5172.3287
4779.6476
4850.6616
5388.27
5411.4517
4866.7369
4934.7927
5009.899
5037.9777
4930.2087
4241.9095
4262.6197
4467.5594
4441.5731
3539.7315
3519.7291
3121.8542
3165.6865
3428.7243
3055.1454
3053.1141
3442.5762
4358.0543
4154.9792
4146.2115
4379.3231
5376.822
5453.577
4875.7924
4841.6049
5388.0567
5359.0786
4812.2293
4863.5794
4894.9085
5010.6776
5024.1645
4930.2729
4993.3916
5128.4444
5064.1735
4946.5882
10153.321
9674.7834
10553.196
10044.964
9685.1283
10008.596
9510.7233
9850.2449
9561.0072
9388.3749
9960.3089
9765.1758
10292.328
9822.3135
10659.144
10191.314
8518.8639
8704.48
8789.9013
9000.1734
8387.9449
8590.1147
8780.0321
8964.9307
7061.4402
7406.5707
5847.8629
6130.5145
7179.8649
7419.23
6159.0051
5952.926
11100.025
11133.141
10583.838
10610.333
9879.5641
9701.7114
9922.3351
10423.985
10253.967
10499.58
10311.593
10491.421
10710.453
10009.982
10232.92
8694.13
8885.2396
9129.5902
9359.8641
9260.5952
9462.0778
9457.0503
9752.9063
8461.6622
8708.8686
10136.398
9840.3465
8996.6121
9240.1912
10061.32
10415.421
9205.33
9510.4268
9481.6308
9253.3236
8281.3493
8464.2278
10470.238
9929.5971
10859.521
10305.077
10615.78
10262.006
9475.2039
9781.3932
10296.177
9747.629
10682.98
10096.838
10471.923
10859.845
9683.1859
10040.054
10720.294
10696.814
9748.8824
9743.7598
9985.0722
9970.3959
8875.1297
8877.1958
9589.6232
9747.9826
8560.7801
8705.6524
10228.264
10413.04
9346.9528
9517.7637
10659.744
10864.929
9854.8529
10053.074
11271.029
10665.6
11276.657
10672.073
11231.768
11216.765
10351.47
10343.111
10663.642
10115.029
10881.586
10331.168
8939.5124
9105.9436
8895.259
8986.1194
8842.9197
8775.6694
8984.4755
9088.2391
8868.9238
9002.4476
5012.4041
4950.5858
8527.2805
8738.3289
8910.9859
9048.412
9071.2935
9107.4721
5037.5695
5080.0222
2102.5471
275.6971
289.82745
289.98107
277.22334
5036.3718
4939.0912
4955.1421
4767.6497
346.83709
344.62725
361.72938
358.79577
12372.529
12495.767
12429.868
12493.219
12147.472
12061.09
12150.167
12158.949
11568.091
11800.143
11958.869
12003.16
11993.052
12135.132
12200.189
12267.11
370.26341
375.1356
380.4845
375.17074
494.01787
508.4109
515.86691
498.30457
434.3498
433.98847
410.60221
412.59471
582.53453
575.13629
1970.539
583.39273
584.05359
2128.9426
2115.8748
579.32159
584.96997
2130.2019
2112.9473
4584.2866
3570.0125
6695.0057
6710.4188
3575.8611
3575.876
3598.2615
6750.1344
6714.6091
13450.215
19920.2
36129.135
13425.692
36450.285
13412.967
13558.373
36689.258
36221.585
3546.5894
3578.3469
6699.0958
6639.1326
3578.6127
3593.4691
6673.3616
6704.9792
13312.355
36301.601
13389.066
36321.674
13367.648
13294.868
35541.857
36082.365
565.55923
558.69161
2199.4809
4105.0756
4108.3178
2207.9304
4089.2886
4138.3686
560.57445
2174.341
4056.2577
4064.5674
2227.3898
4155.2084
4152.8368
570.36543
7389.4445
7372.3932
7373.3878
7402.1853
12667.457
12661.402
19327.585
19578.773
32928.247
32920.153
53730.684
53975.545
32810.13
53770.494
32063.004
53688.978
12806.756
12661.475
19563.739
19710.63
12571.26
12777.109
19414.075
19693.711
12746.546
12736.328
19758.458
19512.472
32777.499
33101.583
52964.324
53556.446
33293.642
32454.975
54065.443
53839.163
7284.9265
7301.1307
7421.403
7399.1994
19302.268
12589.157
12735.597
19481.335
19429.565
12601.648
12633.784
19155.445
32249.84
32286.535
52872.358
52768.865
31400.398
52645.756
52285.41
32261.278
12471.617
19274.154
19473.089
12631.688
12585.13
12588.87
19492.449
19275.603
32296.627
32511.888
53124.879
53426.859
32601.408
31847.322
53538.934
53393.146
4007.7051
4040.4625
2160.4031
4794.4557
4718.2061
4057.9285
2176.526
4792.5679
6184.5743
6204.3147
10293.924
10257.928
16048.207
15807.086
6137.812
6112.2376
10267.371
10191.778
16069.409
15918.524
6219.2938
6212.3393
10320.551
10402.428
16010.032
16223.562
19743.732
25217.508
19880.012
25262.769
19677.039
19435.915
24758.056
25178.088
19844.572
19983.777
25514.409
25310.269
25049.077
19604.687
19709.31
25036.393
54525.54
75481.715
76663.422
55289.293
55528.168
76579.622
76371.811
55562.313
30586.754
30068.893
47401.099
46222.579
30586.133
30606.765
47053.014
47215.293
30690.019
30899.923
47079.909
47372.069
55592.991
76045.421
76506.874
55674.632
46715.545
30404.147
30296.314
46204.923
75866.891
75419.936
55891.8
55523.334
19900.774
19696.821
25057.948
25414.63
20062.463
19956.831
25429.129
25439.898
30808.63
30393.449
46625.955
47522.072
55914.394
75701.029
76390.79
56053.264
30732.159
30795.828
47316.635
46938.962
75612.886
75970.28
56160.1
55781.316
30844.574
30656.176
46863.63
47090.882
55391.631
75593.417
75811.75
55717.337
12417.72
12825.929
4537.7282
4483.1595
8105.7272
20334.255
20240.005
8080.5669
19670.802
19728
7951.2297
7794.311
20127.181
20264.76
7921.9988
8089.0119
18973.596
19716.372
7506.1753
7729.2542
19916.95
20068.92
7974.2319
8071.1228
19400.357
19342.856
7792.3144
7894.1898
19929.933
20433.279
7986.91
8124.5165
20453.311
8109.9023
20447.249
8236.5372
34553.996
33288.673
10936.931
11113.897
34686.586
35070.209
11292.15
11361.984
36123.86
35665.007
11493.562
11605.726
35533.374
35702.532
11559.713
11672.467
36399.456
36009.213
11666.7
11754.574
36106.372
36649.237
11771.682
11831.255
35951.94
35821.46
11528.081
11616.348
35185.897
35753.38
11598.125
11655.92
35488.459
35039.481
11411.038
11520.382
35490.505
35847.355
11597.265
11690.504
36070.136
35752.101
11564.212
11697.585
35244.055
35916.64
11706.928
11758.696
35539.023
34965.24
11492.78
11649.249
35048.142
35808.512
11720.97
11745.734
34637.202
11405.735
34531.567
11466.441
33804.133
33262.679
11238.552
11277.478
37563.424
37136.151
37708.861
37260.682
35359.891
36490.953
36501.413
37131.285
38166.006
38460.393
38734.008
37590.799
37556.043
37371.39
36691.292
37484.534
1351.8209
1550.1904
242.76799
247.41894
261.98281
258.47661
1894.2498
1909.3187
5394.6318
5367.1231
4804.0137
4855.2033
5255.2699
5357.685
4735.5987
4782.8096
4905.5867
5043.4302
4832.2895
4940.8248
4906.4199
5046.0266
5032.0466
4942.8403
2976.3502
3286.351
3040.4614
3402.3847
4097.0278
4217.5116
4407.0537
4293.8721
3409.6108
3486.3978
3100.1662
3041.8691
4100.362
3948.8892
4116.2876
4299.4806
3104.2686
3086.6272
3454.2205
3483.6079
4135.0358
4203.1504
4332.453
4396.6701
3105.4461
3451.4431
3480.7846
3088.9628
4379.2131
4192.4982
4407.1339
4171.7792
215.31482
218.4708
228.44658
231.30374
300.12919
324.40328
319.17669
296.81045
4813.4504
4725.2256
4933.5945
4596.8461
5232.7848
5378.2517
4803.2117
4719.1625
5035.5804
5260.5443
4527.326
4726.0447
4907.1369
5059.5637
4919.5428
4800.2107
7510.7413
7513.1498
6246.4662
6246.7789
7103.1629
7387.1284
6091.0098
5866.3962
8435.8881
8618.0917
8765.8005
8951.2883
8886.2028
9046.6057
8868.2933
9064.5064
7452.5809
7599.2937
6271.8703
6151.893
7267.8659
7526.8798
6224.4999
5977.8524
8852.155
9094.1838
8997.038
9217.9542
8631.741
8852.9406
8898.5832
9123.4829
10829.524
10367.654
10906.132
10435.636
10130.031
10239.692
10082.904
9989.2112
9856.3131
10127.77
9708.1335
9984.5792
10514.467
10788.944
10062.763
10340.305
10044.746
9836.7237
9891.3061
10052.037
9582.4776
9387.6538
9944.719
9744.1161
10147.613
9666.1036
10032.829
10530.805
10635.128
10128.317
10685.162
10221.922
10294.177
9745.2497
10675.981
10099.458
10792.3
10214.294
10882.593
10340.726
10769.299
9933.4019
10893.839
10086.273
10270.876
9483.3093
10633.448
9809.6503
9263.6351
8289.3196
9524.6699
8508.8648
10321.044
9413.4161
10467.306
9569.7664
9861.5012
9012.9976
10183.114
9288.1341
9666.7641
8627.2926
9815.6104
8778.2419
9927.7616
8842.1952
9951.8277
8886.0104
10349.38
10566.154
9458.919
9660.7079
10632.148
9691.0612
10650.143
9727.5413
9705.8283
8673.2783
9885.6231
8839.338
11084.892
10249.036
11110.563
10283.744
10735.234
10204.943
11004.731
10471.301
11065.129
10509.261
11113.105
10555.599
10769.395
11019.473
9971.9384
10211.787
10417.755
9891.6539
10172.567
9733.629
10325.988
10135.807
10622.913
10421.975
10950.534
10430.401
11246.297
10703.351
10968.747
10399.66
10477.655
10019.576
9249.8946
9395.9475
8751.7871
8945.3312
9075.4369
9287.3534
9364.005
9567.7924
7645.9021
7905.4924
6330.7473
6555.9213
7827.0256
7444.8613
6228.6961
6533.9063
8855.218
9053.9333
8986.0308
9176.4795
7385.1133
7769.3177
6469.9686
6120.1193
7456.9259
7585.8683
6277.3919
6168.4067
8747.9067
8946.1363
9166.1867
9357.4406
10693.565
10203.438
10809.266
10318.769
9940.5805
9772.0066
10361.096
10174.396
10067.49
9883.8699
10186.487
10000.955
10567.76
10099.482
10970.929
10481.22
10368.909
10143.306
9435.6401
9309.0637
10518.396
10693.202
9584.8805
9737.5579
9823.6361
8758.5227
9956.3359
8875.0671
9666.2074
8616.953
9535.3401
8563.0635
10352.572
10630.466
9469.1067
9713.1727
10372.129
9460.329
10468.449
9561.7381
9706.0619
8664.8423
9798.2992
8759.8061
9720.6483
9941.3105
8695.5634
8889.5303
10838.177
10005.003
10941.757
10110.017
10866.615
10977.736
10294.649
10407.204
10761.815
11136.171
10219.483
10568.333
10774.891
11108.767
9974.3329
10277.221
11026.043
11249.726
10161.341
10356.606
11092.421
11360.667
10490.191
10730.413
10621.007
11037.074
10395.607
10092.639
10911.97
10584.601
10026.781
9811.2994
15633.315
16126.505
15369.469
16403.31
15840.091
14966.79
15235.34
16129.893
17219.462
16407.395
17141.402
16313.718
16838.084
15869.719
16919.535
15968.21
17777.045
16687.425
16753.678
17819.402
18400.557
18166.041
17095.997
17350.791
16272.836
17231.962
16194.565
17306.17
17934.772
16910.389
17661.823
16621.93
16409.233
17217.74
16171.165
17463.845
16676.366
15669.01
15919.712
16938.128
17268.369
18315.474
17175.744
18384.158
17734.965
16632.262
17808.515
16724.897
16695.617
15921.746
16011.336
16780.01
15540.602
16544.725
16445.002
15650.155
17141.283
17449.533
16371.749
16685.365
15996.307
17246.401
16329.808
16913.102
20001.874
20019.682
18213.543
18238.947
18776.405
17255.657
17286.571
18744.09
20356.386
20475.992
18750.847
18579.323
19122.848
19310.456
17626.725
17847.304
17821.983
19326.408
17627.339
19493.367
18151.582
16717.187
16942.627
18375.255
18906.935
20721.834
18829.839
20748.902
19365.699
17782.339
19426.881
17868.361
20629.23
20713.207
18847.694
18979.485
20264.904
20307.598
22234.79
22226.327
19592.887
21144.457
21422.333
21427.98
19544.004
19555.788
19883.965
19989.633
21713.211
21739.719
20610.469
20363.117
18068.269
17263.325
17284.142
18097.5
18206.942
18199.145
17361.832
17386.053
16868.569
17826.992
16860.962
17841.534
17927.265
16946.104
17932.344
16931.45
18169.835
17069.964
17122.898
18199.826
16633.549
17625.733
16572.527
17682.156
17903.587
16873.883
17822.965
16769.731
18027.307
19055.297
17977.665
19117.941
18577.821
17518.026
17551.743
18621.867
18208.48
19290.72
18156.23
19322.435
18757.978
17648.009
18778.554
17685.988
17085.158
16297.569
16365.265
17147.484
17291.109
16504.259
17377.85
16604.807
15986.711
16834.069
15915.619
16905.847
17127.433
17047.766
16124.901
16218.082
20398.025
20405.195
18606.484
18623.247
19166.728
17641.674
17664.411
19147.84
19431.777
21096.639
19364.932
21152.328
19958.383
18473.612
18539.874
20031.738
19787.157
21582.125
19726.427
21597.733
20297.065
18721.331
20333.547
18780.814
12080.713
12714.872
12013.966
12798.723
12984.923
12268.739
12399.628
13144.302
12156.909
11501.984
12229.431
11607.851
11719.663
11805.624
12397.699
12521.668
13428.869
14130.496
13345.774
14218.262
13793.858
13562.254
12867.002
13057.992
13235.214
13053.891
12219.18
12367.747
12580.3
12667.177
13503.394
13579.099
13413.107
14088.954
13322.111
14196.337
14454.306
13664.884
13844.042
14660.571
13488.769
12602.546
13582.107
12685.954
12887.231
13051.228
13819.875
13996.136
12062.819
12699.684
11990.818
12780.826
12504.24
12362.995
11692.729
11813.567
11145.957
11958.387
11838.129
11306.417
11460.7
11517.238
12127.689
12194.8
15422.803
16002.088
15300.591
16125.588
15775.154
14953.121
15074.921
15910.441
16091.486
16472.584
15767.104
16820.625
16255.395
15407.934
15707.837
16588.564
15593.853
14816.577
15517.45
14726.107
15007.093
14693.286
13984.845
14273.284
14544.987
14239.493
13373.409
13616.355
13975.343
14071.397
14992.13
15074.539
15675.222
15383.976
14710.397
14989.934
15448.428
15140.22
14348.615
14637.872
15659.141
16325.734
15572.056
16410.036
15145.924
16039.472
16109.977
15238.688
14726.469
15352.328
14609.863
15479.591
15813.565
15056.516
15304.865
16106.972
14897.672
13924.518
15026.709
14031.25
14304.18
14516.631
15346.494
15581.888
15022.538
14140.255
14156.095
15043.489
15039.512
14148.349
14099.143
14963.09
14254.614
13265.399
13272.295
14268.327
14269.742
13271.938
13239.8
14211.39
13346.071
12573.846
12575.409
13349.95
13355.517
12579.594
12555.508
13315.601
12672.976
11933.442
11983.151
12678.013
12686.652
11993.213
11955.012
12655.231
12894.122
12167.652
12191.12
12926.955
13088.547
13006.112
12274.725
12357.183
12298.802
11606.005
11652.758
12320.559
12470.923
12397.15
11702.762
11753.083
14363.242
13558.605
13616.599
14436.361
14564.186
14506.089
13696.291
13772.053
13713.901
12795.433
12832.952
13767.182
13918.699
13846.147
12914.863
13001.334
15728.64
14959.406
15056.759
15830.244
15971.148
15921.465
15142.292
15206.296
15253.417
14218.648
14296.583
15358.589
15471.556
15430.656
14369.536
14435.395
17358.764
17360.588
16597.441
16610.881
17100.018
17116.423
16189.045
16216.688
17431.194
16645.036
16633.269
17414.982
16208.74
16186.86
17154.422
17109.717
16603.609
15771.292
15804.962
16634.741
16628.647
15791.153
15737.926
16572.218
16049.737
14922.314
14942.101
16093.909
16090.544
14934.3
14871.03
16002.727
16393.855
15676.478
16466.868
15758.996
16259.041
16170.107
15327.595
15421.887
16677.367
15969.096
16608.557
15892.241
15523.428
16389.546
16440.332
15599.445
12270.814
12424.661
12424.396
12446.02
12094.452
12238.542
12317.14
12394.686
12103.324
12175.083
11906.81
11911.663
12188.139
12371.147
12455.808
12450.678
12343.858
12191.819
12268.741
12372.954
8840.2463
8913.3604
8599.0545
8663.4314
11568.404
11805.667
11989.61
12042.297
12224.387
12342.367
12340.612
12309.239
12391.634
12507.905
12521.462
12554.01
8980.3682
8843.0454
8937.9879
9057.0114
5007.8744
5114.3194
339.9487
361.77354
360.72225
344.80768
8977.2848
8902.2635
8590.1776
8735.5608
8734.3267
8912.8081
8280.7874
8551.509
436.19635
425.6689
467.58121
467.59914
506.19481
496.08846
515.18164
516.75604
412.50554
412.22323
382.39691
582.31701
574.8968
383.38532
575.96535
586.67718
2143.5285
564.16637
566.6765
2223.4497
4135.9457
4142.7455
2211.6213
4127.6953
4124.1618
560.99377
566.77012
2230.3998
4151.4887
4139.8689
2208.6324
4097.2188
4134.9776
3602.4323
3631.9964
6769.0052
6766.4076
7413.6829
7432.7163
7476.591
7432.5471
12796.952
12844.801
19896.693
19639.465
13570.52
13495.623
36581.716
35953.022
32977.736
53343.164
33415.783
54175.654
12865.171
12702.223
19625.825
19863.11
33476.404
32827.347
54459.798
54385.869
12818.197
12737.501
19482.965
19835.396
12996.655
12840.302
19815.727
19998.977
33495.656
33606.4
54477.274
54580.665
33387.703
32541.605
53986.548
53933.076
7422.2802
7354.7207
7386.1636
7434.5683
19464.387
12773.014
12587.891
19696.615
33153.788
32942.918
53855.954
54297.989
12778.079
12767.135
19781.755
19539.976
32585.613
33434.305
54434.822
54165.521
12685.364
12828.191
19709.77
19584.707
12661.656
12679.836
19392.726
19632.038
32968.9
32084.126
53138.082
52916.419
33159.044
53554.039
33049.471
53833.006
4091.4759
4078.6867
2193.1026
4825.6903
4810.8924
4125.6554
4062.0876
2196.0596
4782.7694
4858.2165
4038.6696
4026.1809
2166.5119
4764.5917
4746.4696
4134.5212
4128.0335
2222.1108
4881.7275
4869.9824
6263.2424
6219.1861
10439.164
10365.565
16356.088
16223.972
6252.8755
6237.5761
10323.012
10419.134
16025.425
16372.711
6229.3485
6208.8707
10421.7
10349.474
16165.96
16414.076
6310.0057
6250.0181
10368.179
10416.018
16234.534
16100.601
19734.549
25278.407
19863.742
25232.396
25652.161
20031.694
20194.596
25824.284
48383.652
31055.164
31474.144
48941.236
48831.161
31402.808
31314.869
48489.801
56455.622
78515.27
78991.64
56669.073
56734.234
78752.96
78607.299
57029.1
31266.041
31394.097
48699.889
48490.595
56776.048
78256.754
78721.874
56645.494
48060.732
30821.245
30642.284
47452.702
56521.955
78163.779
77658.796
56650.956
25481.655
19924.934
20185.674
25869.262
25806.764
20168.846
20314.358
25820.163
19736.949
25276.16
20041.429
25732.439
20310.882
20119.216
25787.587
25875.1
20376.022
20207.841
25901.914
26070.547
20056.996
19911.78
25513.735
25492.933
48712.109
30868.867
31380.548
49498.07
49869.466
31448.154
31462.083
49354.894
54996.638
78929.46
79823.05
55778.968
79675.124
80135.955
55860.24
55966.109
49866.142
31601.102
31705.611
49671.081
48931.551
31105.212
30944.622
48046.838
56472.229
79923.169
80054.081
56685.506
78432.245
79284.513
56395.3
56778.918
6165.0392
6172.1775
10297.114
10245.712
16207.52
15932.281
6203.1426
6128.0589
10283.234
10272.384
16154.15
16049.707
6315.8548
6298.213
10390.108
10469.626
16043.446
16292.125
6307.471
6267.7281
10425.281
10355.573
16190.469
16016.39
25105.156
19710.216
25481.01
19954.923
25475.763
19978.512
20121.777
25496.096
25411.055
19940.414
20095.436
25602.585
19633.648
19722.207
24952.729
25042.385
47000.314
30500.111
30921.367
47909.688
30816.857
30906.974
47136.404
47676.113
76594.791
56078.653
55767.633
76112.749
55514.59
76165.266
76914.764
56030.101
30372.647
30162.8
46797.309
46320.354
76397.471
76911.58
55483.385
55411.963
75390.335
75792.058
55249.076
55212.174
30996.63
30826.544
47634.226
47327.723
25142.187
19645.139
19908.504
25542.288
25534.668
19944.886
20090.969
25542.363
25510.695
19957.176
20128.383
25729.609
19713.512
19831.834
25161.309
25221.17
47583.153
30657.893
31095.02
48204.245
48524.445
31074.772
30952.364
47653.297
55974.421
77405.631
77847.705
56176.217
77283.707
78030.246
56228.809
56378.93
47811.041
31011.244
31222.907
48196.394
47652.417
30670.079
30462.225
46765.319
56130.81
77236.35
77745.534
56525.752
76224.176
77165.272
56364.75
56314.404
7037.8706
7050.0005
7158.1345
7128.6685
5320.6425
5199.7097
4596.1374
4667.2108
8232.2457
8188.5371
7122.5378
7147.6543
8078.213
8072.0063
7035.9517
7022.0569
7148.2533
7155.7231
5270.223
4660.4677
7136.2937
8205.5349
8201.4739
7145.2066
11307.006
17205.678
11273.119
17021.282
22635.268
22750.8
22211.659
22656.834
11279.565
17280.774
11184.267
17037.552
22999.801
22726.11
22524.462
22473.944
11327.414
17198.294
11412.168
17375.089
22502.436
22881.239
22862.931
22930.559
27889.633
27869.509
27351.212
27889.583
28237.249
27957.077
27696.94
27600.362
60493.221
117255.18
118492.09
60820.361
61056.137
117844
117958.78
60664.944
33506.812
32845.748
66541.872
64471.817
33398.244
33485.047
65829.889
65778.905
33518.26
33826.445
65611.184
66286.721
61014.932
118043.69
118164.09
61120.395
65341.411
33256.14
33060.572
64504.485
117197.79
117086.3
61143.59
61362.991
27659.265
28112.34
28094.893
28045.761
33705.178
33173.404
65147.923
66740.59
61368.978
117687.19
118229.39
61216.159
33543.211
33663.727
66197.471
65639.171
116894.11
117220.94
61476.764
60928.492
65540.23
65933.321
61019.465
117263.49
116960.55
61521.874
19773.517
19340.414
7904.3253
7908.8538
20521.705
20437.47
8179.0436
8160.3769
35871.118
35734.411
11539.891
11584.397
35092.451
35829.349
11504.716
11517.518
34690.577
34469.37
11106.843
11199.611
34103.793
34390.666
11181.451
11287.762
35509.103
35444.946
11334.533
11398.425
35323.074
35516.551
11451.221
11559.339
33886.898
32650.868
10676.036
10815.123
11097.455
34850.441
34718.37
11211.288
35011.287
34774.447
11364.921
11434.319
34530.15
35427.565
11511.589
11518.31
33871.988
33856.416
11100.048
11167.359
32967.378
33515.368
11082.848
11124.999
35311.972
34536.356
11296.919
11430.111
35570.94
36035.606
11578.118
11657.407
36073.031
35745.683
11544.137
11657.316
35171.814
35902.573
11637.221
11682.918
36836.401
35440.706
36905.994
37422.087
38564.567
38027.262
37816.051
38123
38859.923
38507.467
38432.287
39171.749
38352.782
38195.909
37444.194
38203.67
37839.333
37440.087
37760.37
38294.171
38413.24
38211.496
37480.569
38355.096
37798.509
37406.618
37273.928
38232.518
37016.713
36777.092
36045.116
35329.001
69266.962
32898.473
68667.339
32486.343
69560.183
33140.319
68784.818
32770.09
66614.499
30778.799
68129.343
31864.667
67770.96
31944.094
68720.551
32524.324
69765.696
33722.362
69989.399
33971.691
70283.743
34321.723
68705.819
33195.091
69287.972
33035.293
68721.337
32900.529
68650.041
32288.576
69624.419
33027.558
3232.1055
3221.6436
3595.8008
3591.934
4278.0781
4464.6521
4321.239
4511.0425
213.10102
218.11423
233.35146
228.21142
300.32909
303.47445
323.63231
321.33565
4935.3821
5158.7944
5067.2956
5013.9047
4885.6995
4806.113
5463.8368
5343.9587
10419.383
10577.089
9514.3144
9675.369
10343.447
9433.275
10507.486
9590.6488
9674.7804
8624.6932
9825.8181
8765.7833
9759.0009
8708.0585
9901.9998
8852.2287
9999.7561
10020.522
9127.3594
9192.3056
10370.226
9448.9678
10458.044
9538.7308
9369.7115
9422.7748
8372.6291
8456.5056
8621.0621
9691.4373
9759.8677
8707.5234
10853.267
10007.102
10974.457
10121.739
10893.575
11053.966
10312.769
10461.83
10478.338
10456.088
9652.2414
9688.5999
10559.42
10494.917
9970.9448
9967.8728
10817.709
9981.0074
10978.765
10146.135
10887.336
11049.772
10318.93
10500.064
10855.46
10281.331
11004.425
10437.862
10871.97
11037.021
10046.327
10224.945
6841.9568
7200.5172
5940.8829
5643.8575
8132.4055
8301.497
8544.1243
8711.1744
7330.6879
7588.0806
6299.8862
6074.7802
8691.3885
8871.5295
8970.5166
9160.2636
9801.4124
9882.7503
9588.4977
9701.3291
10480.629
10266.114
10257.845
10059.556
11087.116
10543.793
10839.942
10331.281
10346.053
10453.577
9837.3637
9976.0106
8666.6073
8830.6493
8741.9016
8924.9304
9254.7303
9439.673
9088.0735
9267.822
7814.2618
7699.8168
6495.5372
6399.1287
7308.1432
7405.2451
6150.0796
6051.385
9865.4347
9677.1976
10160.558
9975.0561
9232.8687
9035.1758
9683.9613
9478.5296
9763.1749
9291.8089
10250.714
9756.1052
10468.777
9977.1284
10771.538
10280.426
7584.4801
7740.8967
6459.4521
6301.982
7502.5139
7621.4739
6303.4309
6212.1425
8891.5714
9085.8669
9019.388
9216.2785
8967.6695
9139.2749
9109.7448
9296.3462
9917.113
9798.7208
9695.6416
9628.3149
10133.105
9943.3396
10348.249
10148.299
10462.73
10365.246
9938.7743
9900.3428
10741.39
10237.726
10936.16
10419.32
7540.98
7756.3195
6442.0854
6259.8886
8775.6734
8933.4154
8664.6418
8854.6428
8924.7386
9122.065
9154.4966
9341.7495
7405.6699
7350.0608
6141.5703
6113.1946
10700.025
10202.91
10839.285
10348.224
10136.456
9934.3617
10280.177
10099.435
10728.166
10228.948
10882.505
10406.964
10093.336
9901.3927
10225.177
10037.502
264.82479
272.53069
278.955
282.13765
353.84635
392.37651
378.50773
343.90241
10614.94
10909.217
9790.2233
10070.06
9894.2141
9367.0196
10394.835
9829.3915
10634.481
10073.854
10939.119
10369.925
9872.09
9122.5128
10360.603
9551.1382
9969.6846
10137.688
9108.8276
9281.8749
10620.114
10432.426
9644.1224
9521.0835
9869.4486
9740.1198
8767.4348
8695.701
9348.9291
8360.3451
9516.0864
8523.1576
9493.0442
8696.3594
9927.7698
9054.201
10168.632
9277.3125
10438.389
9514.9818
8955.8828
8037.5008
9306.4721
8314.3692
9522.7091
8499.2954
9749.6311
8697.113
10459.995
10594.031
9895.7746
10055.957
11217.424
10971.166
10394.778
10595.624
11150.658
10261.078
10922.777
10088.336
10416.531
10573.732
9615.185
9790.3126
22413.69
22407.172
20434.811
20430.708
19971.101
20056.803
21818.585
21827.143
20743.07
21350.549
21011.718
21096.648
19121.201
19262.914
20212.825
20300.167
22170.092
22180.682
21053.197
20005.915
19557.088
19727.234
17969.255
17780.811
18280.109
18501.643
16792.119
17023.021
18929.452
20672.535
18780.105
20756.983
17732.269
19314.348
19464.159
17907.143
19002.655
20874.924
18998.021
20863.098
17966.645
19528.61
19527.198
17965.542
18778.317
20413.639
18628.593
20499.691
17673.217
19158.85
19310.269
17854.593
21804.914
21847.119
20039.818
20098.651
20656.612
20697.666
22587.45
22572.147
21478.815
20663.423
21687.181
21701.29
19823.334
19853.283
20040.59
20121.986
21888.457
21892.667
20820.475
20604.44
20538.015
20613.633
18894.363
18814.22
19388.663
19487.429
17949.4
18049.215
19338.904
21119.426
19257.222
21144.445
18282.333
19816.311
19881.747
18370.246
18571.438
20295.242
18516.256
20327.614
17604.044
19072.977
19129.675
17655.714
18860.438
20492.532
18717.939
20571.081
17796.193
19261.424
19397.454
17955.859
16988.835
17622.424
16860.987
17755.927
16532.665
17438.201
17565.156
16654.907
17841.034
17912.108
17036.217
17115.848
16665.588
17672.281
16741.849
17620.887
17593.132
18513.773
17474.42
18626.775
18843.435
17736.829
17834.856
18911.869
17373.734
18342.665
17274.214
18420.558
18072.136
18202.148
17063.996
17188.054
18150.396
17081.342
17146.177
18201.554
18485.956
18336.803
17284.342
17457.204
16705.234