/*--------------------------------*- C++ -*----------------------------------*\
  =========                 |
  \\      /  F ield         | OpenFOAM: The Open Source CFD Toolbox
   \\    /   O peration     | Website:  https://openfoam.org
    \\  /    A nd           | Version:  7
     \\/     M anipulation  |
\*---------------------------------------------------------------------------*/
FoamFile
{
    version     2.0;
    format      ascii;
    class       volScalarField;
    location    "1000";
    object      p;
}
// * * * * * * * * * * * * * * * * * * * * * * * * * * * * * * * * * * * * * //

dimensions      [0 2 -2 0 0 0 0];

internalField   nonuniform List<scalar> 
33943
(
-6.6411101e+18
-6.3943159e+18
-6.2919342e+18
-6.0510813e+18
-6.5637984e+18
-6.6901263e+18
-6.4330455e+18
-6.6797499e+18
-6.4614197e+18
-6.4314998e+18
-6.3390176e+18
-6.3171252e+18
-6.3000568e+18
-6.2207224e+18
-6.2030419e+18
-6.2779788e+18
-5.6026651e+18
-5.8266785e+18
-6.0722108e+18
-6.0911238e+18
-6.134687e+18
-6.0567603e+18
-6.0733878e+18
-6.5679348e+18
-6.4140859e+18
-6.6261165e+18
-6.6268097e+18
-6.4102728e+18
-6.7319797e+18
-6.5023573e+18
-6.4707316e+18
-6.5098638e+18
-6.4786324e+18
-6.3106712e+18
-6.2714066e+18
-6.3370059e+18
-6.3116506e+18
-6.3343649e+18
-6.3095121e+18
-6.4939203e+18
-6.4792224e+18
-6.3651903e+18
-6.3533888e+18
-6.36622e+18
-6.3540553e+18
-6.26315e+18
-6.2733327e+18
-6.3395037e+18
-6.3201253e+18
-6.2509384e+18
-6.2353046e+18
-6.2343187e+18
-6.1788679e+18
-6.2455687e+18
-6.1883813e+18
-6.2238862e+18
-6.2127323e+18
-6.1692796e+18
-6.1591701e+18
-5.6960077e+18
-5.6247451e+18
-5.8578805e+18
-5.6149304e+18
-5.8431455e+18
-5.7037959e+18
-5.6003441e+18
-5.6939084e+18
-5.5917721e+18
-5.9400823e+18
-5.8083789e+18
-5.9257662e+18
-5.7967138e+18
-6.099313e+18
-6.0857478e+18
-6.1198151e+18
-6.1101902e+18
-6.1031294e+18
-6.1401887e+18
-6.1116237e+18
-5.9933382e+18
-5.990928e+18
-6.2043509e+18
-6.2081372e+18
-6.0796007e+18
-6.0710076e+18
-6.0972162e+18
-6.088211e+18
-6.4146248e+18
-6.4133368e+18
-6.6226812e+18
-6.6227595e+18
-6.4074799e+18
-6.6128755e+18
-6.6143504e+18
-6.4046443e+18
-6.5345906e+18
-6.5206312e+18
-6.5425134e+18
-6.5279522e+18
-6.327619e+18
-6.3387792e+18
-6.3816004e+18
-6.3698924e+18
-6.3129024e+18
-6.3547481e+18
-6.3339698e+18
-6.2932582e+18
-6.4093113e+18
-6.3974529e+18
-6.3927437e+18
-6.4049288e+18
-6.3821081e+18
-6.3613275e+18
-6.3574161e+18
-6.3776589e+18
-6.1903037e+18
-6.1500337e+18
-6.2463329e+18
-6.2575342e+18
-6.2791142e+18
-6.2673522e+18
-6.2353193e+18
-6.2561947e+18
-6.2870574e+18
-6.2750552e+18
-6.2747476e+18
-6.2627881e+18
-6.2637487e+18
-6.251658e+18
-6.2397958e+18
-6.3733794e+18
-6.3891441e+18
-6.3946914e+18
-6.2983939e+18
-6.2932729e+18
-6.374404e+18
-6.2800486e+18
-6.3825752e+18
-6.2872619e+18
-6.3105593e+18
-6.305715e+18
-6.2450365e+18
-6.2406708e+18
-6.2998406e+18
-6.2925128e+18
-6.2351666e+18
-6.2287453e+18
-6.2850658e+18
-6.2763059e+18
-6.222482e+18
-6.2145482e+18
-6.2671872e+18
-6.256375e+18
-6.197013e+18
-6.2063703e+18
-6.2003732e+18
-6.1947642e+18
-6.1627041e+18
-6.1576121e+18
-6.2114654e+18
-6.2057157e+18
-6.1730129e+18
-6.1677157e+18
-6.189807e+18
-6.184628e+18
-6.1530025e+18
-6.147996e+18
-6.1432365e+18
-6.1797179e+18
-6.1745724e+18
-6.1385812e+18
-5.6977487e+18
-5.8667026e+18
-5.6347186e+18
-5.6308114e+18
-5.5697147e+18
-5.7832323e+18
-5.7806161e+18
-5.56718e+18
-5.8723075e+18
-5.6219101e+18
-5.6168482e+18
-5.725417e+18
-5.730646e+18
-5.8417611e+18
-5.9798886e+18
-5.9718033e+18
-5.8354525e+18
-5.7112516e+18
-5.6067917e+18
-5.6118689e+18
-5.7188462e+18
-5.9505679e+18
-5.9623312e+18
-5.8272143e+18
-5.8172534e+18
-5.7477722e+18
-5.6901951e+18
-5.6953797e+18
-5.7420347e+18
-5.6439811e+18
-5.6489053e+18
-5.6020173e+18
-5.5970808e+18
-5.7371534e+18
-5.6809182e+18
-5.6856031e+18
-5.7322151e+18
-5.6352785e+18
-5.6397383e+18
-6.0057574e+18
-5.9306651e+18
-5.9234231e+18
-6.0138074e+18
-5.7946621e+18
-5.863483e+18
-5.800684e+18
-5.8570384e+18
-5.9166997e+18
-5.9980566e+18
-5.9907256e+18
-5.9102365e+18
-5.845154e+18
-5.7892278e+18
-5.8509808e+18
-5.7840815e+18
-6.1200141e+18
-6.1283337e+18
-6.1044548e+18
-6.1124587e+18
-6.144537e+18
-6.1248252e+18
-6.148978e+18
-6.134218e+18
-6.1399794e+18
-6.129888e+18
-6.1167111e+18
-5.9925831e+18
-6.2078968e+18
-6.2089925e+18
-5.9935414e+18
-6.1342031e+18
-6.1398651e+18
-5.9864276e+18
-5.9847433e+18
-6.1940832e+18
-6.196674e+18
-6.0972199e+18
-6.092089e+18
-6.0877824e+18
-6.0837934e+18
-6.1158018e+18
-6.1105419e+18
-6.1059588e+18
-6.1013875e+18
-6.4075694e+18
-6.4051396e+18
-6.6090943e+18
-6.6099698e+18
-6.4081664e+18
-6.6151997e+18
-6.6170997e+18
-6.4058093e+18
-6.2100236e+18
-6.1836602e+18
-5.9166236e+18
-6.3665196e+18
-6.3619397e+18
-6.4055285e+18
-6.4104616e+18
-6.3556343e+18
-6.3470566e+18
-6.3901155e+18
-6.398992e+18
-6.4387734e+18
-6.4336254e+18
-6.4342378e+18
-6.4288604e+18
-6.4268535e+18
-6.4181985e+18
-6.4222189e+18
-6.413713e+18
-6.1967998e+18
-6.2079732e+18
-6.2516608e+18
-6.2403177e+18
-6.1838673e+18
-6.2266062e+18
-6.2094673e+18
-6.167401e+18
-6.3220165e+18
-6.3171218e+18
-6.3398417e+18
-6.3449596e+18
-6.3340862e+18
-6.3114485e+18
-6.3041122e+18
-6.326618e+18
-6.335432e+18
-6.3307417e+18
-6.3232908e+18
-6.3428641e+18
-6.3540161e+18
-6.3488336e+18
-6.3418354e+18
-6.3367107e+18
-6.2969837e+18
-6.2888638e+18
-6.3193159e+18
-6.3108412e+18
-6.3015716e+18
-6.2795174e+18
-6.2684529e+18
-6.2903242e+18
-6.3097902e+18
-6.2985349e+18
-6.2972922e+18
-6.2861704e+18
-6.3279076e+18
-6.3192108e+18
-6.315606e+18
-6.3067431e+18
-6.069785e+18
-6.1981579e+18
-6.1874811e+18
-6.0352042e+18
-6.0174489e+18
-6.0511457e+18
-6.177269e+18
-6.2252845e+18
-6.2142142e+18
-6.2035457e+18
-6.2525271e+18
-6.2469665e+18
-6.2532858e+18
-6.2591807e+18
-6.2477987e+18
-6.2354307e+18
-6.2413363e+18
-6.2417499e+18
-6.2364672e+18
-6.2305911e+18
-6.2543517e+18
-6.2484406e+18
-6.2429907e+18
-6.225125e+18
-6.2369094e+18
-6.2191999e+18
-6.2300366e+18
-6.2244811e+18
-6.2363853e+18
-6.230649e+18
-6.2316763e+18
-6.2141483e+18
-6.2259999e+18
-6.2087279e+18
-6.2206989e+18
-6.2035737e+18
-6.3983953e+18
-6.3014703e+18
-6.3311114e+18
-6.2627268e+18
-6.3275185e+18
-6.2592989e+18
-6.3340023e+18
-6.2659018e+18
-6.3365348e+18
-6.2686583e+18
-6.3180889e+18
-6.3141759e+18
-6.2505078e+18
-6.247343e+18
-6.324525e+18
-6.2567379e+18
-6.3213595e+18
-6.2537165e+18
-6.2746157e+18
-6.2727699e+18
-6.2314417e+18
-6.2297599e+18
-6.2705124e+18
-6.2674683e+18
-6.2273778e+18
-6.2246263e+18
-6.2222185e+18
-6.2647032e+18
-6.2616322e+18
-6.2192044e+18
-6.2583454e+18
-6.2544653e+18
-6.2125906e+18
-6.2160168e+18
-6.2507096e+18
-6.2465234e+18
-6.2052277e+18
-6.2093923e+18
-6.2422236e+18
-6.2373103e+18
-6.1963343e+18
-6.200868e+18
-6.2327753e+18
-6.2279158e+18
-6.1877125e+18
-6.1923631e+18
-6.2229792e+18
-6.2171487e+18
-6.1779059e+18
-6.1829977e+18
-6.1680133e+18
-6.1705953e+18
-6.1512239e+18
-6.1486253e+18
-6.1655214e+18
-6.1626414e+18
-6.1436222e+18
-6.1461674e+18
-6.1618515e+18
-6.1816619e+18
-6.1788159e+18
-6.1590656e+18
-6.1731003e+18
-6.1760609e+18
-6.1563339e+18
-6.1535769e+18
-6.1601899e+18
-6.1576805e+18
-6.1413567e+18
-6.1388228e+18
-6.1363135e+18
-6.1552823e+18
-6.1525589e+18
-6.1336827e+18
-6.1479881e+18
-6.1502901e+18
-6.1314557e+18
-6.1291411e+18
-6.1433335e+18
-6.1458342e+18
-6.1269755e+18
-6.1247005e+18
-5.6365328e+18
-5.5673172e+18
-5.5691954e+18
-5.7828111e+18
-5.7816885e+18
-5.8753613e+18
-5.9879448e+18
-5.9842906e+18
-5.8457327e+18
-5.8485588e+18
-5.6294227e+18
-5.7386493e+18
-5.6280643e+18
-5.740146e+18
-5.6260473e+18
-5.7340544e+18
-5.6248262e+18
-5.7362707e+18
-5.5656348e+18
-5.7729329e+18
-5.7706433e+18
-5.5631914e+18
-5.8534339e+18
-5.9908268e+18
-5.995448e+18
-5.8504642e+18
-5.6231279e+18
-5.6253315e+18
-5.6744736e+18
-5.6727737e+18
-5.6212211e+18
-5.6187254e+18
-5.6713973e+18
-5.6686144e+18
-5.7762427e+18
-5.7205848e+18
-5.7176328e+18
-5.7729802e+18
-5.7220089e+18
-5.7237365e+18
-5.7800443e+18
-5.7780911e+18
-5.8369322e+18
-5.8347766e+18
-5.9008455e+18
-5.9031604e+18
-6.0608205e+18
-5.970548e+18
-5.9734265e+18
-6.0571087e+18
-6.0531886e+18
-5.9625373e+18
-5.9672714e+18
-6.0478198e+18
-5.8980434e+18
-5.828769e+18
-5.8323975e+18
-5.8936698e+18
-5.6992431e+18
-5.7035187e+18
-5.756652e+18
-5.7518175e+18
-5.652547e+18
-5.6566075e+18
-5.6093473e+18
-5.6055309e+18
-5.6650229e+18
-5.6123475e+18
-5.6159591e+18
-5.6601797e+18
-5.7684222e+18
-5.7078014e+18
-5.7133338e+18
-5.7619697e+18
-5.9363055e+18
-5.9431279e+18
-6.0272144e+18
-6.0200665e+18
-5.9498305e+18
-5.957325e+18
-6.0422612e+18
-6.0343568e+18
-5.8887233e+18
-5.8239878e+18
-5.8171372e+18
-5.8816666e+18
-5.8751716e+18
-5.8109528e+18
-5.8053193e+18
-5.868641e+18
-5.7407466e+18
-5.7678293e+18
-5.7379545e+18
-5.7649277e+18
-5.6862576e+18
-5.6838979e+18
-5.710592e+18
-5.7080383e+18
-5.6913518e+18
-5.7157742e+18
-5.6886938e+18
-5.7131195e+18
-5.7352554e+18
-5.7621656e+18
-5.7326358e+18
-5.7593632e+18
-5.6396019e+18
-5.663075e+18
-5.6374131e+18
-5.6608191e+18
-5.6444309e+18
-5.6680633e+18
-5.6419407e+18
-5.6654408e+18
-5.6219533e+18
-5.6194781e+18
-5.5989882e+18
-5.5964067e+18
-5.6171598e+18
-5.6149884e+18
-5.5920336e+18
-5.5940122e+18
-5.7304682e+18
-5.7278307e+18
-5.7570223e+18
-5.7543073e+18
-5.6772941e+18
-5.7012185e+18
-5.6990063e+18
-5.6819201e+18
-5.7059603e+18
-5.6794351e+18
-5.7034494e+18
-5.7254784e+18
-5.7232352e+18
-5.7519551e+18
-5.749685e+18
-5.6312992e+18
-5.6544535e+18
-5.6355539e+18
-5.6589205e+18
-5.6334117e+18
-5.656547e+18
-6.0019925e+18
-5.9980138e+18
-6.0538154e+18
-6.0496136e+18
-5.9216073e+18
-5.925228e+18
-5.966327e+18
-5.9626256e+18
-5.9182109e+18
-5.914741e+18
-5.9591109e+18
-5.955234e+18
-6.0056817e+18
-6.009855e+18
-6.0628023e+18
-6.0579914e+18
-5.789049e+18
-5.8184213e+18
-5.7861278e+18
-5.8152706e+18
-5.8516113e+18
-5.8549062e+18
-5.8898286e+18
-5.8863522e+18
-5.7948512e+18
-5.8243859e+18
-5.7918409e+18
-5.8213032e+18
-5.8485719e+18
-5.8453767e+18
-5.8831556e+18
-5.8798437e+18
-5.9117054e+18
-5.9080681e+18
-5.9519807e+18
-5.9481731e+18
-5.9944147e+18
-5.9901922e+18
-6.0458136e+18
-6.0410546e+18
-5.9867646e+18
-5.983445e+18
-6.0371895e+18
-6.0336783e+18
-5.9050417e+18
-5.9021366e+18
-5.9448972e+18
-5.9416825e+18
-5.8368702e+18
-5.8343715e+18
-5.8707146e+18
-5.8680576e+18
-5.7835985e+18
-5.8126119e+18
-5.7807858e+18
-5.809725e+18
-5.842577e+18
-5.8394294e+18
-5.8769322e+18
-5.8734961e+18
-5.778434e+18
-5.8073038e+18
-5.776134e+18
-5.8048491e+18
-6.1414962e+18
-6.1370503e+18
-6.150203e+18
-6.1456144e+18
-6.1242238e+18
-6.1198628e+18
-6.1332288e+18
-6.1283823e+18
-6.1670317e+18
-6.1646639e+18
-6.1520882e+18
-6.1502887e+18
-6.1708543e+18
-6.1690492e+18
-6.1564005e+18
-6.1532905e+18
-6.1624023e+18
-6.159144e+18
-6.1577078e+18
-6.1546102e+18
-6.142582e+18
-5.9837536e+18
-6.1944028e+18
-6.1965704e+18
-5.9853897e+18
-6.1629758e+18
-6.160023e+18
-6.1660536e+18
-6.1697036e+18
-5.9851923e+18
-5.9834307e+18
-6.1939066e+18
-6.1962808e+18
-6.1069957e+18
-6.1043774e+18
-6.0995051e+18
-6.101898e+18
-6.0950885e+18
-6.0974271e+18
-6.093159e+18
-6.0913031e+18
-6.1264316e+18
-6.1235413e+18
-6.1209398e+18
-6.1183873e+18
-6.1161897e+18
-6.1135485e+18
-6.1112715e+18
-6.1090078e+18
-6.4081371e+18
-6.4054537e+18
-6.6110553e+18
-6.6121769e+18
-6.4083027e+18
-6.615514e+18
-6.6174558e+18
-6.4059789e+18
-6.2284186e+18
-6.2408069e+18
-5.9640667e+18
-5.9428606e+18
-5.8972083e+18
-5.9120144e+18
-6.4138726e+18
-6.235478e+18
-6.2299956e+18
-6.2747764e+18
-6.2802711e+18
-6.2243558e+18
-6.2161848e+18
-6.2601053e+18
-6.2683406e+18
-6.4427122e+18
-6.3501272e+18
-6.3730715e+18
-6.3709372e+18
-6.3480821e+18
-6.3453437e+18
-6.3415618e+18
-6.3682036e+18
-6.3645063e+18
-6.3796714e+18
-6.4382757e+18
-6.3689052e+18
-6.3817992e+18
-6.3666671e+18
-6.3734184e+18
-6.3769284e+18
-6.363955e+18
-6.3604814e+18
-6.338353e+18
-6.335082e+18
-6.3578575e+18
-6.361305e+18
-6.331003e+18
-6.3262168e+18
-6.3492716e+18
-6.354019e+18
-6.3702214e+18
-6.357341e+18
-6.366855e+18
-6.354075e+18
-6.3630731e+18
-6.3584614e+18
-6.3461997e+18
-6.3505204e+18
-6.0754426e+18
-6.0857329e+18
-6.1222492e+18
-6.257982e+18
-6.2528316e+18
-6.1118385e+18
-6.2474276e+18
-6.2404282e+18
-6.0639012e+18
-6.0994739e+18
-6.2338494e+18
-6.225933e+18
-6.0855563e+18
-6.2176744e+18
-6.2077436e+18
-6.0498433e+18
-6.2823306e+18
-6.2875171e+18
-6.2766277e+18
-6.2696598e+18
-6.2984264e+18
-6.2944686e+18
-6.3020549e+18
-6.3061269e+18
-6.3084314e+18
-6.3051623e+18
-6.2909508e+18
-6.2877619e+18
-6.3017423e+18
-6.2844103e+18
-6.2975215e+18
-6.2802134e+18
-6.3020486e+18
-6.3051778e+18
-6.312892e+18
-6.3096309e+18
-6.3158687e+18
-6.3136269e+18
-6.3235353e+18
-6.3212046e+18
-6.311008e+18
-6.3080226e+18
-6.318711e+18
-6.3157066e+18
-6.3189982e+18
-6.3167118e+18
-6.3012337e+18
-6.2991495e+18
-6.3143167e+18
-6.3112053e+18
-6.2968598e+18
-6.2937319e+18
-6.2625878e+18
-6.2544977e+18
-6.2458937e+18
-6.2357756e+18
-6.2808325e+18
-6.2737271e+18
-6.2689656e+18
-6.2757794e+18
-6.270654e+18
-6.258003e+18
-6.2637326e+18
-6.2647348e+18
-6.276056e+18
-6.2709876e+18
-6.253344e+18
-6.2583619e+18
-6.2599201e+18
-6.2482849e+18
-6.2422419e+18
-6.2659018e+18
-6.2907844e+18
-6.2983306e+18
-6.294224e+18
-6.2869432e+18
-6.282739e+18
-6.2781107e+18
-6.2900839e+18
-6.2852874e+18
-6.2937399e+18
-6.2895541e+18
-6.2763401e+18
-6.2721022e+18
-6.2854162e+18
-6.2804795e+18
-6.2679103e+18
-6.2628686e+18
-6.1270677e+18
-6.1368713e+18
-5.9517681e+18
-6.0712107e+18
-6.0623709e+18
-6.1176885e+18
-5.9355476e+18
-6.0536859e+18
-6.1721395e+18
-6.1776062e+18
-6.1849797e+18
-6.1904748e+18
-6.2194764e+18
-6.2250499e+18
-6.1619357e+18
-6.1669684e+18
-6.1797829e+18
-6.1745664e+18
-6.2140518e+18
-6.2084547e+18
-6.1517448e+18
-6.1572813e+18
-6.1696016e+18
-6.1642514e+18
-6.2031416e+18
-6.1976535e+18
-6.23428e+18
-6.2374098e+18
-6.2310655e+18
-6.2343068e+18
-6.2371027e+18
-6.2396465e+18
-6.2429954e+18
-6.2401931e+18
-6.2284288e+18
-6.2258723e+18
-6.2289471e+18
-6.2317163e+18
-6.2261634e+18
-6.2230383e+18
-6.2198651e+18
-6.2230875e+18
-6.2021261e+18
-6.2252008e+18
-6.2222267e+18
-6.199178e+18
-6.1964212e+18
-6.2194876e+18
-6.2164314e+18
-6.1934098e+18
-6.2390267e+18
-6.2419107e+18
-6.2341412e+18
-6.2371242e+18
-6.2332255e+18
-6.23627e+18
-6.2283759e+18
-6.2314004e+18
-6.2306332e+18
-6.2278013e+18
-6.2257764e+18
-6.2229832e+18
-6.1907503e+18
-6.2137818e+18
-6.2111223e+18
-6.1881606e+18
-6.220262e+18
-6.2250199e+18
-6.2220062e+18
-6.2172564e+18
-6.2085108e+18
-6.2054288e+18
-6.1826058e+18
-6.1856022e+18
-6.2147856e+18
-6.2172516e+18
-6.220519e+18
-6.2178336e+18
-6.2089306e+18
-6.2120356e+18
-6.2151414e+18
-6.2121584e+18
-6.2167383e+18
-6.2194704e+18
-6.2146841e+18
-6.2119653e+18
-6.1799532e+18
-6.2027593e+18
-6.2001374e+18
-6.1774098e+18
-6.2111635e+18
-6.2140818e+18
-6.2093879e+18
-6.2065299e+18
-6.1948398e+18
-6.1976561e+18
-6.175008e+18
-6.1722818e+18
-6.2059713e+18
-6.2086933e+18
-6.204069e+18
-6.20143e+18
-6.1699039e+18
-6.1923867e+18
-6.1899589e+18
-6.1676295e+18
-6.3380553e+18
-6.3399452e+18
-6.271361e+18
-6.269761e+18
-6.248273e+18
-6.2930683e+18
-6.2913461e+18
-6.2463898e+18
-6.2898394e+18
-6.2879267e+18
-6.2431488e+18
-6.2447407e+18
-6.2964639e+18
-6.2944608e+18
-6.2514667e+18
-6.2495577e+18
-6.2990768e+18
-6.2979561e+18
-6.2546364e+18
-6.2533061e+18
-6.280286e+18
-6.278923e+18
-6.236054e+18
-6.2345665e+18
-6.2776316e+18
-6.2759588e+18
-6.233271e+18
-6.2320878e+18
-6.2866348e+18
-6.2849928e+18
-6.2421392e+18
-6.2404257e+18
-6.2834699e+18
-6.2387455e+18
-6.2815714e+18
-6.2370747e+18
-6.2425183e+18
-6.2431751e+18
-6.2210821e+18
-6.2204624e+18
-6.2403976e+18
-6.2416419e+18
-6.2195393e+18
-6.2184973e+18
-6.2382719e+18
-6.2393984e+18
-6.2175524e+18
-6.2163184e+18
-6.2353789e+18
-6.2370114e+18
-6.2149702e+18
-6.2135782e+18
-6.2325003e+18
-6.2339537e+18
-6.2123965e+18
-6.2108787e+18
-6.2293106e+18
-6.2310595e+18
-6.2092688e+18
-6.207685e+18
-6.2261276e+18
-6.2277477e+18
-6.2062467e+18
-6.2045811e+18
-6.2223365e+18
-6.224475e+18
-6.2028863e+18
-6.2010016e+18
-6.218335e+18
-6.2203825e+18
-6.1993075e+18
-6.1972113e+18
-6.2138967e+18
-6.2162825e+18
-6.1950119e+18
-6.1927253e+18
-6.2095309e+18
-6.2117514e+18
-6.1906812e+18
-6.1884283e+18
-6.2046628e+18
-6.2073336e+18
-6.1861245e+18
-6.1836904e+18
-6.1998953e+18
-6.202293e+18
-6.1816036e+18
-6.1792189e+18
-6.1949673e+18
-6.1975716e+18
-6.1768008e+18
-6.1743196e+18
-6.1926155e+18
-6.1720866e+18
-6.1901768e+18
-6.16963e+18
-6.1875918e+18
-6.1845461e+18
-6.1671311e+18
-6.1644075e+18
-6.1266361e+18
-6.1291065e+18
-6.1241834e+18
-6.1216779e+18
-6.1395506e+18
-6.1368177e+18
-6.1315007e+18
-6.1341422e+18
-6.1194304e+18
-6.117035e+18
-6.1145783e+18
-6.1121279e+18
-6.1076814e+18
-6.1098991e+18
-6.1036168e+18
-6.1056854e+18
-5.6302602e+18
-5.7412403e+18
-5.562636e+18
-5.5645128e+18
-5.7718095e+18
-5.7704697e+18
-5.8549789e+18
-5.9974289e+18
-5.9775932e+18
-5.97959e+18
-6.0676061e+18
-6.0650449e+18
-5.9745706e+18
-5.9757737e+18
-6.0616938e+18
-6.0628998e+18
-5.9056165e+18
-5.8390681e+18
-5.9042059e+18
-5.8378637e+18
-5.9088439e+18
-5.8406096e+18
-5.8421293e+18
-5.9072132e+18
-5.6302058e+18
-5.6805043e+18
-5.6296634e+18
-5.6797186e+18
-5.7285383e+18
-5.7290212e+18
-5.7853315e+18
-5.784853e+18
-5.6787205e+18
-5.6793525e+18
-5.6294028e+18
-5.6287062e+18
-5.7296829e+18
-5.730926e+18
-5.7886962e+18
-5.786745e+18
-5.6275735e+18
-5.6284125e+18
-5.6780192e+18
-5.6770186e+18
-5.7249624e+18
-5.7257705e+18
-5.7808953e+18
-5.7818666e+18
-5.6271088e+18
-5.675664e+18
-5.676396e+18
-5.6262716e+18
-5.7846407e+18
-5.7265493e+18
-5.7831036e+18
-5.7277931e+18
-5.1735432e+18
-5.1712884e+18
-5.3628369e+18
-5.3629463e+18
-5.564196e+18
-5.771359e+18
-5.768966e+18
-5.5619482e+18
-5.9129402e+18
-5.8471377e+18
-5.8448287e+18
-5.9154067e+18
-5.9806656e+18
-5.9825791e+18
-6.0720758e+18
-6.0695167e+18
-5.988093e+18
-5.9851676e+18
-6.0785378e+18
-6.0750609e+18
-5.8419984e+18
-5.842755e+18
-5.910577e+18
-5.9090732e+18
-5.645614e+18
-5.6454489e+18
-5.6209084e+18
-5.6213731e+18
-5.6472933e+18
-5.6463962e+18
-5.6222583e+18
-5.6232563e+18
-5.6709461e+18
-5.69616e+18
-5.6700307e+18
-5.6951978e+18
-5.6693101e+18
-5.6945858e+18
-5.6693375e+18
-5.6946345e+18
-5.645374e+18
-5.644348e+18
-5.6191885e+18
-5.6204659e+18
-5.6431093e+18
-5.64156e+18
-5.6167851e+18
-5.6180109e+18
-5.6693034e+18
-5.6946352e+18
-5.6684748e+18
-5.6937718e+18
-5.6672014e+18
-5.6924632e+18
-5.6655309e+18
-5.6905424e+18
-5.7720093e+18
-5.800731e+18
-5.7708194e+18
-5.7993195e+18
-5.7194228e+18
-5.7184913e+18
-5.7445177e+18
-5.745545e+18
-5.7170982e+18
-5.7149715e+18
-5.7430144e+18
-5.7406744e+18
-5.7692037e+18
-5.7668628e+18
-5.7976542e+18
-5.7953053e+18
-5.7195762e+18
-5.7460139e+18
-5.7458051e+18
-5.7195345e+18
-5.720998e+18
-5.7472446e+18
-5.7201452e+18
-5.7465702e+18
-5.7740361e+18
-5.8032823e+18
-5.8025926e+18
-5.7733804e+18
-5.7727412e+18
-5.8018322e+18
-5.7724284e+18
-5.8013004e+18
-5.8321485e+18
-5.8633881e+18
-5.8314336e+18
-5.862682e+18
-5.8306201e+18
-5.861838e+18
-5.8299254e+18
-5.8609319e+18
-5.8936063e+18
-5.9300085e+18
-5.8927057e+18
-5.9289921e+18
-5.8953267e+18
-5.9319125e+18
-5.8945107e+18
-5.9310116e+18
-6.0582364e+18
-6.1143704e+18
-6.0571875e+18
-6.1129168e+18
-5.9668266e+18
-6.0100982e+18
-5.9656269e+18
-6.008406e+18
-5.968876e+18
-6.0122408e+18
-5.9679561e+18
-6.0114086e+18
-6.0555987e+18
-6.1110663e+18
-6.0537516e+18
-6.1089224e+18
-6.0518712e+18
-6.1067656e+18
-6.0492313e+18
-6.1037875e+18
-5.9598321e+18
-5.9570869e+18
-6.0021618e+18
-5.9991297e+18
-5.9643048e+18
-6.0067854e+18
-5.9620682e+18
-6.0045011e+18
-6.0466757e+18
-6.10119e+18
-6.043703e+18
-6.0982282e+18
-5.8916733e+18
-5.9278082e+18
-5.8897707e+18
-5.9256882e+18
-5.8258685e+18
-5.8565002e+18
-5.8234742e+18
-5.8539651e+18
-5.8291493e+18
-5.8600098e+18
-5.8276098e+18
-5.8583589e+18
-5.8877279e+18
-5.8851978e+18
-5.9235529e+18
-5.9209367e+18
-5.6953989e+18
-5.6932747e+18
-5.7200499e+18
-5.717766e+18
-5.7004583e+18
-5.7253196e+18
-5.6976157e+18
-5.7223652e+18
-5.7507249e+18
-5.7785931e+18
-5.7475289e+18
-5.7751332e+18
-5.7450733e+18
-5.7724834e+18
-5.7427672e+18
-5.7700068e+18
-5.6483124e+18
-5.6719504e+18
-5.6463159e+18
-5.6699325e+18
-5.6529279e+18
-5.6768016e+18
-5.6504224e+18
-5.6740951e+18
-5.6303608e+18
-5.6278908e+18
-5.6073935e+18
-5.6049189e+18
-5.6258231e+18
-5.6237667e+18
-5.6007313e+18
-5.6028054e+18
-5.663397e+18
-5.6880524e+18
-5.6604077e+18
-5.6847369e+18
-5.6346554e+18
-5.632356e+18
-5.609284e+18
-5.6110783e+18
-5.6396337e+18
-5.6369768e+18
-5.6129004e+18
-5.615177e+18
-5.6575403e+18
-5.6818534e+18
-5.6549654e+18
-5.6790459e+18
-5.7641404e+18
-5.7925907e+18
-5.7604793e+18
-5.7888265e+18
-5.7059016e+18
-5.7313434e+18
-5.7029313e+18
-5.7280617e+18
-5.7122395e+18
-5.7378871e+18
-5.7087736e+18
-5.7343537e+18
-5.7572198e+18
-5.7854289e+18
-5.7537612e+18
-5.7817967e+18
-5.9316501e+18
-5.9281657e+18
-5.9732587e+18
-5.9694801e+18
-5.9392122e+18
-5.9351174e+18
-5.9807367e+18
-5.9767477e+18
-6.0247326e+18
-6.0786522e+18
-6.0205032e+18
-6.0741065e+18
-6.0169584e+18
-6.0703176e+18
-6.0132124e+18
-6.0664079e+18
-5.9466367e+18
-5.9426762e+18
-5.9885668e+18
-5.9843176e+18
-5.9542634e+18
-5.9961521e+18
-5.9503051e+18
-5.9922764e+18
-6.0406177e+18
-6.0951583e+18
-6.0364776e+18
-6.0907205e+18
-6.0326667e+18
-6.0284548e+18
-6.0867212e+18
-6.0824379e+18
-5.8824854e+18
-5.9181886e+18
-5.8787158e+18
-5.9143156e+18
-5.8207273e+18
-5.8169436e+18
-5.8512207e+18
-5.8475093e+18
-5.8134773e+18
-5.8097499e+18
-5.8439921e+18
-5.8401069e+18
-5.8751216e+18
-5.8712604e+18
-5.9107012e+18
-5.9068056e+18
-5.86791e+18
-5.8640226e+18
-5.9033745e+18
-5.8993384e+18
-5.8064708e+18
-5.8028506e+18
-5.8367858e+18
-5.8330794e+18
-5.7972708e+18
-5.7999829e+18
-5.8300144e+18
-5.8269677e+18
-5.8607545e+18
-5.8575847e+18
-5.895956e+18
-5.8926249e+18
-5.7487035e+18
-5.7370224e+18
-5.749997e+18
-5.7356688e+18
-5.7630545e+18
-5.7769506e+18
-5.7754512e+18
-5.7616666e+18
-5.7329862e+18
-5.7459064e+18
-5.7343552e+18
-5.7473639e+18
-5.7603405e+18
-5.7741086e+18
-5.7588789e+18
-5.772663e+18
-5.6839022e+18
-5.6955222e+18
-5.6942666e+18
-5.6825756e+18
-5.6803371e+18
-5.6814003e+18
-5.6930799e+18
-5.6919278e+18
-5.7181692e+18
-5.7071881e+18
-5.719498e+18
-5.7059091e+18
-5.7035378e+18
-5.7157509e+18
-5.7047231e+18
-5.7169482e+18
-5.6992274e+18
-5.6887384e+18
-5.7004494e+18
-5.6874947e+18
-5.7121924e+18
-5.7245995e+18
-5.7232247e+18
-5.7108978e+18
-5.6965844e+18
-5.686209e+18
-5.6979397e+18
-5.6849225e+18
-5.7096273e+18
-5.7219534e+18
-5.7082963e+18
-5.7206257e+18
-5.7318094e+18
-5.7447042e+18
-5.7432888e+18
-5.7304367e+18
-5.7714488e+18
-5.7562062e+18
-5.7576647e+18
-5.7699399e+18
-5.7292047e+18
-5.7279715e+18
-5.7420493e+18
-5.7407363e+18
-5.7686279e+18
-5.7536036e+18
-5.7672633e+18
-5.7549341e+18
-5.6384732e+18
-5.6371211e+18
-5.6496654e+18
-5.6483129e+18
-5.6595373e+18
-5.6723986e+18
-5.6710446e+18
-5.6609051e+18
-5.6361061e+18
-5.6351638e+18
-5.6462419e+18
-5.6472277e+18
-5.6583859e+18
-5.657393e+18
-5.6698893e+18
-5.6688784e+18
-5.6530541e+18
-5.643025e+18
-5.6542545e+18
-5.6417696e+18
-5.6655614e+18
-5.6771694e+18
-5.6759151e+18
-5.6643576e+18
-5.6507649e+18
-5.6406914e+18
-5.6518822e+18
-5.6395926e+18
-5.6631171e+18
-5.6746514e+18
-5.6619597e+18
-5.6734115e+18
-5.6187055e+18
-5.6176506e+18
-5.6316707e+18
-5.6305001e+18
-5.6293974e+18
-5.6282667e+18
-5.6164791e+18
-5.6153278e+18
-5.6002099e+18
-5.5978864e+18
-5.6142303e+18
-5.6130454e+18
-5.627147e+18
-5.6258809e+18
-5.6248402e+18
-5.6238941e+18
-5.61195e+18
-5.6110009e+18
-5.5935751e+18
-5.5956173e+18
-5.7269336e+18
-5.7396668e+18
-5.7384106e+18
-5.7256248e+18
-5.7231896e+18
-5.7244104e+18
-5.7371665e+18
-5.7358663e+18
-5.7646291e+18
-5.7524604e+18
-5.7660776e+18
-5.7511114e+18
-5.7485945e+18
-5.7621253e+18
-5.7498892e+18
-5.7633951e+18
-5.6751268e+18
-5.6865263e+18
-5.6853782e+18
-5.6739325e+18
-5.7088164e+18
-5.6979701e+18
-5.7100379e+18
-5.6968056e+18
-5.694704e+18
-5.7067317e+18
-5.6957319e+18
-5.7077071e+18
-5.6898514e+18
-5.679454e+18
-5.6910039e+18
-5.6783033e+18
-5.7025484e+18
-5.7147368e+18
-5.7134144e+18
-5.7013114e+18
-5.6874878e+18
-5.6771512e+18
-5.6886781e+18
-5.6760342e+18
-5.7001504e+18
-5.7122438e+18
-5.6989729e+18
-5.711064e+18
-5.7221189e+18
-5.7347797e+18
-5.7335043e+18
-5.7208606e+18
-5.719731e+18
-5.7323914e+18
-5.7187412e+18
-5.7313571e+18
-5.7597857e+18
-5.7475189e+18
-5.7610638e+18
-5.7462358e+18
-5.7441128e+18
-5.7451408e+18
-5.7586855e+18
-5.7576586e+18
-5.6304224e+18
-5.6292095e+18
-5.6414777e+18
-5.6402723e+18
-5.6513362e+18
-5.6638303e+18
-5.6626261e+18
-5.6525379e+18
-5.6443822e+18
-5.6342533e+18
-5.6454139e+18
-5.6331961e+18
-5.6565772e+18
-5.668043e+18
-5.6669033e+18
-5.6555129e+18
-5.6425003e+18
-5.6324047e+18
-5.6434246e+18
-5.6315094e+18
-5.6544482e+18
-5.6657917e+18
-5.6534752e+18
-5.6647282e+18
-6.024437e+18
-6.0000134e+18
-6.0265185e+18
-5.9979067e+18
-5.9960509e+18
-6.0224872e+18
-6.0205714e+18
-5.9941702e+18
-6.0534875e+18
-6.0849091e+18
-6.0511765e+18
-6.0823738e+18
-6.0802866e+18
-6.0781816e+18
-6.0491818e+18
-6.0472297e+18
-5.9357201e+18
-5.9172865e+18
-5.9373694e+18
-5.9156084e+18
-5.9189492e+18
-5.9208325e+18
-5.9409635e+18
-5.9390761e+18
-5.9591318e+18
-5.9611489e+18
-5.9845729e+18
-5.9824535e+18
-5.9805908e+18
-5.9787032e+18
-5.9573497e+18
-5.9556463e+18
-5.9321854e+18
-5.9140847e+18
-5.9341184e+18
-5.9122071e+18
-5.9105891e+18
-5.9305115e+18
-5.9288977e+18
-5.9090196e+18
-5.9540711e+18
-5.977153e+18
-5.9520296e+18
-5.975054e+18
-5.9732804e+18
-5.9714225e+18
-5.9503137e+18
-5.9485958e+18
-6.0282416e+18
-6.0035888e+18
-6.0304881e+18
-6.0016085e+18
-6.0055866e+18
-6.0078114e+18
-6.0349237e+18
-6.0326511e+18
-6.0947074e+18
-6.0600753e+18
-6.0625985e+18
-6.0919359e+18
-6.0894454e+18
-6.0870029e+18
-6.057748e+18
-6.0554356e+18
-5.7977165e+18
-5.7849918e+18
-5.7992331e+18
-5.7834696e+18
-5.8134152e+18
-5.8288108e+18
-5.8271653e+18
-5.8118278e+18
-5.7948294e+18
-5.7821084e+18
-5.7963164e+18
-5.7807067e+18
-5.8103896e+18
-5.8256902e+18
-5.8241862e+18
-5.8089052e+18
-5.8454207e+18
-5.862153e+18
-5.8469716e+18
-5.863763e+18
-5.8485055e+18
-5.8502229e+18
-5.8670401e+18
-5.8653138e+18
-5.8820849e+18
-5.883886e+18
-5.9026064e+18
-5.9007649e+18
-5.8991361e+18
-5.8974564e+18
-5.8804891e+18
-5.8788732e+18
-5.7890529e+18
-5.7905939e+18
-5.8049534e+18
-5.8033777e+18
-5.8176204e+18
-5.8192629e+18
-5.8348065e+18
-5.8331099e+18
-5.8004746e+18
-5.7876716e+18
-5.8019759e+18
-5.7862159e+18
-5.8316202e+18
-5.816175e+18
-5.8146928e+18
-5.8301111e+18
-5.8591368e+18
-5.8440791e+18
-5.8607802e+18
-5.8424228e+18
-5.8409196e+18
-5.8576075e+18
-5.8559949e+18
-5.8393854e+18
-5.8774573e+18
-5.8959953e+18
-5.8757433e+18
-5.8941914e+18
-5.8926314e+18
-5.8910462e+18
-5.8742062e+18
-5.8726199e+18
-5.9075848e+18
-5.9273868e+18
-5.9256218e+18
-5.9057847e+18
-5.9040691e+18
-5.9238295e+18
-5.9220516e+18
-5.9024232e+18
-5.94709e+18
-5.969863e+18
-5.967739e+18
-5.9451286e+18
-5.9433655e+18
-5.9659193e+18
-5.9640115e+18
-5.9415251e+18
-5.9924507e+18
-6.0187382e+18
-6.0164419e+18
-5.9902165e+18
-5.9882765e+18
-6.0143738e+18
-6.0122063e+18
-5.9863159e+18
-6.0454412e+18
-6.0763749e+18
-6.0737865e+18
-6.0429808e+18
-6.0407758e+18
-6.071431e+18
-6.0691479e+18
-6.0385812e+18
-5.9847619e+18
-6.010554e+18
-6.0088371e+18
-5.9829248e+18
-5.9797405e+18
-5.9813301e+18
-6.0071514e+18
-6.005404e+18
-6.0367628e+18
-6.0671994e+18
-6.064976e+18
-6.0347953e+18
-6.031452e+18
-6.0331473e+18
-6.0632693e+18
-6.0615929e+18
-5.9010326e+18
-5.9205571e+18
-5.9189876e+18
-5.8994764e+18
-5.8965989e+18
-5.8980485e+18
-5.9174957e+18
-5.9159158e+18
-5.9400059e+18
-5.962472e+18
-5.9606187e+18
-5.938257e+18
-5.9352378e+18
-5.9367786e+18
-5.9591144e+18
-5.9575922e+18
-5.8324568e+18
-5.8488089e+18
-5.8474311e+18
-5.8310701e+18
-5.8286906e+18
-5.8298796e+18
-5.8462201e+18
-5.8449498e+18
-5.86516e+18
-5.8833263e+18
-5.8818426e+18
-5.8637138e+18
-5.8611802e+18
-5.8624749e+18
-5.8804966e+18
-5.8791351e+18
-5.7794776e+18
-5.7779905e+18
-5.7935718e+18
-5.7920583e+18
-5.8076239e+18
-5.8060465e+18
-5.8228844e+18
-5.8212539e+18
-5.7767238e+18
-5.7907707e+18
-5.789455e+18
-5.7754471e+18
-5.8198777e+18
-5.8185686e+18
-5.8047202e+18
-5.8034256e+18
-5.8380621e+18
-5.8546366e+18
-5.8529762e+18
-5.8363911e+18
-5.834943e+18
-5.8514775e+18
-5.8500041e+18
-5.8335931e+18
-5.8712499e+18
-5.8896615e+18
-5.8878741e+18
-5.8695033e+18
-5.867945e+18
-5.8862427e+18
-5.884651e+18
-5.8664342e+18
-5.774377e+18
-5.7883749e+18
-5.7731083e+18
-5.7871112e+18
-5.8010003e+18
-5.8023234e+18
-5.8174503e+18
-5.8160818e+18
-5.7709504e+18
-5.7848948e+18
-5.77201e+18
-5.786013e+18
-5.8149239e+18
-5.799875e+18
-5.7987615e+18
-5.8137852e+18
-6.1538393e+18
-6.1513982e+18
-6.1491425e+18
-6.1469186e+18
-6.1625248e+18
-6.160172e+18
-6.1579785e+18
-6.1557727e+18
-6.1357129e+18
-6.1332125e+18
-6.1309486e+18
-6.1285946e+18
-6.1449275e+18
-6.142346e+18
-6.1400126e+18
-6.1377296e+18
-6.1788038e+18
-6.1801103e+18
-6.1775928e+18
-6.1764446e+18
-6.1741453e+18
-6.1723489e+18
-6.1715133e+18
-6.1711125e+18
-6.1833248e+18
-6.1826138e+18
-6.1817836e+18
-6.1809157e+18
-6.169228e+18
-6.167498e+18
-6.1641775e+18
-6.1658483e+18
-6.1752371e+18
-6.1734459e+18
-6.1719168e+18
-6.1705258e+18
-6.1777866e+18
-6.179779e+18
-6.1763606e+18
-6.1751211e+18
-6.1709716e+18
-6.1717775e+18
-5.9822725e+18
-6.1937691e+18
-6.1961519e+18
-5.9840588e+18
-6.1859061e+18
-6.183653e+18
-6.1821626e+18
-6.1809163e+18
-6.1890339e+18
-6.1872861e+18
-6.1926108e+18
-6.1908345e+18
-5.9850977e+18
-5.9833308e+18
-6.1939138e+18
-6.1962758e+18
-6.4082653e+18
-6.4055649e+18
-6.6113579e+18
-6.6124887e+18
-5.9796944e+18
-5.9903253e+18
-5.7156392e+18
-5.9469488e+18
-5.9561321e+18
-5.7005305e+18
-5.9364539e+18
-5.924771e+18
-6.2836116e+18
-6.1115855e+18
-6.1066675e+18
-6.1436325e+18
-6.280844e+18
-6.27707e+18
-6.1491289e+18
-6.2835334e+18
-6.2860138e+18
-6.1011138e+18
-6.09325e+18
-6.1296608e+18
-6.2664533e+18
-6.2620404e+18
-6.1372769e+18
-6.2738562e+18
-6.270284e+18
-6.3540058e+18
-6.3517815e+18
-6.3748242e+18
-6.3770662e+18
-6.3157463e+18
-6.3132473e+18
-6.3104146e+18
-6.3067606e+18
-6.3394114e+18
-6.3409669e+18
-6.3481364e+18
-6.3466087e+18
-6.385745e+18
-6.3836271e+18
-6.3727731e+18
-6.3707693e+18
-6.345051e+18
-6.3263098e+18
-6.3440933e+18
-6.3253316e+18
-6.3422007e+18
-6.3430851e+18
-6.350288e+18
-6.3493308e+18
-6.3429181e+18
-6.3412644e+18