/*--------------------------------*- C++ -*----------------------------------*\
  =========                 |
  \\      /  F ield         | OpenFOAM: The Open Source CFD Toolbox
   \\    /   O peration     | Website:  https://openfoam.org
    \\  /    A nd           | Version:  7
     \\/     M anipulation  |
\*---------------------------------------------------------------------------*/
FoamFile
{
    version     2.0;
    format      ascii;
    class       volScalarField;
    location    "1000";
    object      pMean;
}
// * * * * * * * * * * * * * * * * * * * * * * * * * * * * * * * * * * * * * //

dimensions      [0 2 -2 0 0 0 0];

internalField   nonuniform List<scalar> 
33943
(
-1.4536872e+16
-1.4361226e+16
-1.4264464e+16
-1.4147657e+16
-1.4619831e+16
-1.4406843e+16
-1.4303348e+16
-1.4708385e+16
-1.4492704e+16
-1.4439611e+16
-1.4366845e+16
-1.4321094e+16
-1.4518529e+16
-1.451718e+16
-1.4500195e+16
-1.44978e+16
-1.3443983e+16
-1.3760875e+16
-1.4213726e+16
-1.4251327e+16
-1.4074485e+16
-1.4413757e+16
-1.4435894e+16
-1.4688714e+16
-1.4510557e+16
-1.4874145e+16
-1.4830993e+16
-1.4468927e+16
-1.463362e+16
-1.440652e+16
-1.4367068e+16
-1.4459554e+16
-1.4414082e+16
-1.4370964e+16
-1.4289428e+16
-1.4373065e+16
-1.4347704e+16
-1.447073e+16
-1.4440824e+16
-1.460119e+16
-1.4567878e+16
-1.4471198e+16
-1.4434697e+16
-1.4650698e+16
-1.4631361e+16
-1.4627252e+16
-1.4640749e+16
-1.460143e+16
-1.4575079e+16
-1.460397e+16
-1.4568226e+16
-1.4577116e+16
-1.4590734e+16
-1.4589147e+16
-1.4592873e+16
-1.4565698e+16
-1.4553154e+16
-1.4580288e+16
-1.4560038e+16
-1.3562651e+16
-1.3496136e+16
-1.3828068e+16
-1.3480601e+16
-1.3800197e+16
-1.3662242e+16
-1.3449105e+16
-1.3651897e+16
-1.3447284e+16
-1.4139275e+16
-1.3891519e+16
-1.4124097e+16
-1.3881323e+16
-1.4502343e+16
-1.446617e+16
-1.455014e+16
-1.4534079e+16
-1.4320115e+16
-1.4128643e+16
-1.4343639e+16
-1.3931114e+16
-1.392248e+16
-1.4114742e+16
-1.4142393e+16
-1.4564558e+16
-1.4547266e+16
-1.4587443e+16
-1.4580814e+16
-1.4562771e+16
-1.4564016e+16
-1.4902886e+16
-1.4908659e+16
-1.4499785e+16
-1.4870399e+16
-1.4829932e+16
-1.4464502e+16
-1.455856e+16
-1.4529154e+16
-1.4622201e+16
-1.4578605e+16
-1.4422782e+16
-1.444503e+16
-1.4524863e+16
-1.4501839e+16
-1.4384373e+16
-1.4463309e+16
-1.4436487e+16
-1.4352967e+16
-1.4511923e+16
-1.4496453e+16
-1.459288e+16
-1.4611494e+16
-1.4457354e+16
-1.4441957e+16
-1.4534635e+16
-1.4557888e+16
-1.4355287e+16
-1.4233188e+16
-1.4407113e+16
-1.4420851e+16
-1.4503601e+16
-1.448538e+16
-1.4395752e+16
-1.4472001e+16
-1.4485641e+16
-1.4471447e+16
-1.4533203e+16
-1.451949e+16
-1.4455062e+16
-1.4503746e+16
-1.4491029e+16
-1.4562755e+16
-1.4741034e+16
-1.4753204e+16
-1.47509e+16
-1.4742406e+16
-1.4698562e+16
-1.4687147e+16
-1.4715303e+16
-1.4715504e+16
-1.4711166e+16
-1.4704345e+16
-1.4712659e+16
-1.4713425e+16
-1.4691874e+16
-1.4680009e+16
-1.4705398e+16
-1.4682546e+16
-1.4657863e+16
-1.4648008e+16
-1.4660717e+16
-1.4655245e+16
-1.4629329e+16
-1.4612429e+16
-1.4613118e+16
-1.4637665e+16
-1.4615246e+16
-1.4606718e+16
-1.4629487e+16
-1.4616603e+16
-1.4628543e+16
-1.4625381e+16
-1.4634896e+16
-1.4636099e+16
-1.459917e+16
-1.4596991e+16
-1.460692e+16
-1.4607756e+16
-1.4602493e+16
-1.4588801e+16
-1.4579949e+16
-1.4588335e+16
-1.3589029e+16
-1.3867813e+16
-1.3534476e+16
-1.3530125e+16
-1.3337263e+16
-1.3541964e+16
-1.3535743e+16
-1.3336008e+16
-1.3886254e+16
-1.3503409e+16
-1.3496214e+16
-1.3717575e+16
-1.3728876e+16
-1.3969803e+16
-1.4231583e+16
-1.4220387e+16
-1.3968334e+16
-1.368335e+16
-1.3475384e+16
-1.3480349e+16
-1.3701327e+16
-1.4162965e+16
-1.4194909e+16
-1.3940832e+16
-1.3916495e+16
-1.3772582e+16
-1.3658908e+16
-1.3664489e+16
-1.3766755e+16
-1.3523719e+16
-1.3530016e+16
-1.3428669e+16
-1.3422082e+16
-1.3757148e+16
-1.3640844e+16
-1.3649592e+16
-1.3747743e+16
-1.3508105e+16
-1.351622e+16
-1.4392564e+16
-1.4261332e+16
-1.4255912e+16
-1.4397157e+16
-1.3934495e+16
-1.408136e+16
-1.3941944e+16
-1.4074372e+16
-1.4243444e+16
-1.4378845e+16
-1.4362776e+16
-1.4232637e+16
-1.4053088e+16
-1.3925128e+16
-1.40649e+16
-1.3916233e+16
-1.4639647e+16
-1.4651452e+16
-1.4602802e+16
-1.4622625e+16
-1.4699536e+16
-1.4576477e+16
-1.4707683e+16
-1.4667084e+16
-1.4687705e+16
-1.4608189e+16
-1.4385974e+16
-1.3940036e+16
-1.4159171e+16
-1.4173873e+16
-1.3965201e+16
-1.4631014e+16
-1.4643018e+16
-1.3875511e+16
-1.386403e+16
-1.4136438e+16
-1.4164503e+16
-1.4623735e+16
-1.4619416e+16
-1.4611557e+16
-1.4600462e+16
-1.4650468e+16
-1.4647514e+16
-1.4640247e+16
-1.4630342e+16
-1.4547469e+16
-1.4560553e+16
-1.4934903e+16
-1.4904374e+16
-1.4512979e+16
-1.4893097e+16
-1.4845362e+16
-1.4476477e+16
-1.4160516e+16
-1.4095276e+16
-1.3823536e+16
-1.4562294e+16
-1.4541905e+16
-1.4622089e+16
-1.4640398e+16
-1.4519835e+16
-1.4502289e+16
-1.4583231e+16
-1.459611e+16
-1.4621964e+16
-1.4606502e+16
-1.472463e+16
-1.4707317e+16
-1.457391e+16
-1.4566569e+16
-1.4680556e+16
-1.4663767e+16
-1.4354614e+16
-1.4376094e+16
-1.4493213e+16
-1.4467962e+16
-1.4315588e+16
-1.4432248e+16
-1.439928e+16
-1.428201e+16
-1.4550445e+16
-1.4540871e+16
-1.4621164e+16
-1.4632906e+16
-1.4608974e+16
-1.453069e+16
-1.451774e+16
-1.4599805e+16
-1.4584987e+16
-1.4636021e+16
-1.4628888e+16
-1.4590778e+16
-1.4613507e+16
-1.4605106e+16
-1.4658573e+16
-1.4650328e+16
-1.4495616e+16
-1.4484032e+16
-1.4577423e+16
-1.4562575e+16
-1.4546976e+16
-1.4468257e+16
-1.4450547e+16
-1.4532577e+16
-1.4527289e+16
-1.4515471e+16
-1.4574006e+16
-1.4560644e+16
-1.4559872e+16
-1.4547986e+16
-1.4605089e+16
-1.4594501e+16
-1.4326422e+16
-1.4474392e+16
-1.446235e+16
-1.4110264e+16
-1.408335e+16
-1.4291668e+16
-1.4444816e+16
-1.4564644e+16
-1.4549043e+16
-1.4532104e+16
-1.4544155e+16
-1.453713e+16
-1.4554676e+16
-1.4563259e+16
-1.4548094e+16
-1.4522239e+16
-1.4529953e+16
-1.4542383e+16
-1.4601392e+16
-1.4598091e+16
-1.4583874e+16
-1.4576116e+16
-1.4569608e+16
-1.4588878e+16
-1.4561605e+16
-1.4578764e+16
-1.451208e+16
-1.4505318e+16
-1.4530746e+16
-1.452323e+16
-1.4552514e+16
-1.4572528e+16
-1.4545342e+16
-1.4567996e+16
-1.4537749e+16
-1.4558035e+16
-1.4788449e+16
-1.4791082e+16
-1.4794063e+16
-1.4811048e+16
-1.4784733e+16
-1.4789655e+16
-1.4800633e+16
-1.4817161e+16
-1.4804273e+16
-1.4810633e+16
-1.4745671e+16
-1.4731766e+16
-1.4748635e+16
-1.4726125e+16
-1.4767793e+16
-1.4768846e+16
-1.4761381e+16
-1.4766522e+16
-1.4751691e+16
-1.4749888e+16
-1.4751848e+16
-1.4755692e+16
-1.474603e+16
-1.4736891e+16
-1.4751453e+16
-1.4737885e+16
-1.4731028e+16
-1.4729262e+16
-1.4726482e+16
-1.4730342e+16
-1.4718304e+16
-1.4707372e+16
-1.470769e+16
-1.4723101e+16
-1.4696191e+16
-1.4691926e+16
-1.4699355e+16
-1.4699172e+16
-1.46853e+16
-1.4676533e+16
-1.4679967e+16
-1.4694397e+16
-1.4666637e+16
-1.4661801e+16
-1.466912e+16
-1.4670543e+16
-1.4651368e+16
-1.4639219e+16
-1.4643669e+16
-1.4660661e+16
-1.4621289e+16
-1.4624832e+16
-1.4650631e+16
-1.4650529e+16
-1.4623258e+16
-1.4609243e+16
-1.4637602e+16
-1.4648375e+16
-1.4663027e+16
-1.4640124e+16
-1.4636499e+16
-1.46657e+16
-1.4625335e+16
-1.4638015e+16
-1.4665112e+16
-1.4655146e+16
-1.4611266e+16
-1.4606125e+16
-1.4635213e+16
-1.4637855e+16
-1.4637335e+16
-1.4609373e+16
-1.4600537e+16
-1.4628652e+16
-1.4598895e+16
-1.4600811e+16
-1.4623781e+16
-1.4624612e+16
-1.4586818e+16
-1.4595238e+16
-1.4619203e+16
-1.460844e+16
-1.3563213e+16
-1.3317608e+16
-1.334125e+16
-1.3557993e+16
-1.3544343e+16
-1.3913752e+16
-1.4281409e+16
-1.4255002e+16
-1.3997227e+16
-1.4012515e+16
-1.3537227e+16
-1.37719e+16
-1.3546304e+16
-1.377441e+16
-1.3527243e+16
-1.3749427e+16
-1.3528331e+16
-1.3760096e+16
-1.324975e+16
-1.3541555e+16
-1.35335e+16
-1.3242726e+16
-1.4025479e+16
-1.4298347e+16
-1.4305161e+16
-1.4024444e+16
-1.3479224e+16
-1.3483157e+16
-1.3589236e+16
-1.3587154e+16
-1.34721e+16
-1.3466044e+16
-1.35815e+16
-1.3572085e+16
-1.3839043e+16
-1.3723858e+16
-1.3715352e+16
-1.3829075e+16
-1.3727331e+16
-1.3728498e+16
-1.3846017e+16
-1.3843672e+16
-1.4024025e+16
-1.4019355e+16
-1.4166448e+16
-1.4170581e+16
-1.4506748e+16
-1.4356847e+16
-1.4360501e+16
-1.4502327e+16
-1.4491671e+16
-1.4332242e+16
-1.434826e+16
-1.4470153e+16
-1.4160343e+16
-1.400375e+16
-1.4013456e+16
-1.4145678e+16
-1.3674933e+16
-1.36845e+16
-1.3794315e+16
-1.3783098e+16
-1.3539102e+16
-1.3549085e+16
-1.3448115e+16
-1.3437358e+16
-1.356386e+16
-1.3454065e+16
-1.3460403e+16
-1.3555989e+16
-1.3817655e+16
-1.3693541e+16
-1.370295e+16
-1.3806527e+16
-1.4275373e+16
-1.4292343e+16
-1.4431144e+16
-1.4410227e+16
-1.4308191e+16
-1.4319717e+16
-1.4457431e+16
-1.444731e+16
-1.4133839e+16
-1.3991284e+16
-1.3979656e+16
-1.412182e+16
-1.4108257e+16
-1.3965456e+16
-1.3954239e+16
-1.4093036e+16
-1.3780364e+16
-1.3833155e+16
-1.3776489e+16
-1.3829073e+16
-1.3641725e+16
-1.3637931e+16
-1.3687945e+16
-1.3683285e+16
-1.3650159e+16
-1.3696391e+16
-1.3645907e+16
-1.3692093e+16
-1.3771639e+16
-1.3824492e+16
-1.3767219e+16
-1.3819164e+16
-1.3507813e+16
-1.355233e+16
-1.3504661e+16
-1.3548398e+16
-1.3515336e+16
-1.3560319e+16
-1.3511902e+16
-1.3556311e+16
-1.343949e+16
-1.3435358e+16
-1.3398249e+16
-1.3394104e+16
-1.3431418e+16
-1.3428365e+16
-1.3387703e+16
-1.3390084e+16
-1.3762957e+16
-1.3758376e+16
-1.3814727e+16
-1.3810278e+16
-1.3625179e+16
-1.3670867e+16
-1.3666677e+16
-1.363404e+16
-1.3679662e+16
-1.3628931e+16
-1.3674649e+16
-1.3754061e+16
-1.3749573e+16
-1.3806652e+16
-1.3802465e+16
-1.3493061e+16
-1.3536766e+16
-1.3501459e+16
-1.3545221e+16
-1.349731e+16
-1.3540371e+16
-1.4481516e+16
-1.4473398e+16
-1.4529214e+16
-1.4518195e+16
-1.4301515e+16
-1.4305623e+16
-1.4386118e+16
-1.438324e+16
-1.4296304e+16
-1.4290047e+16
-1.4378595e+16
-1.4369896e+16
-1.4486955e+16
-1.4489256e+16
-1.4536671e+16
-1.4535592e+16
-1.3925907e+16
-1.3988361e+16
-1.3920963e+16
-1.3982176e+16
-1.4096211e+16
-1.4099737e+16
-1.4181238e+16
-1.417823e+16
-1.3935335e+16
-1.3997139e+16
-1.393084e+16
-1.39932e+16
-1.4090893e+16
-1.4085263e+16
-1.417311e+16
-1.4166165e+16
-1.4284135e+16
-1.427888e+16
-1.4364083e+16
-1.4359926e+16
-1.4466582e+16
-1.4462453e+16
-1.4512154e+16
-1.4509379e+16
-1.4455837e+16
-1.4447448e+16
-1.4502519e+16
-1.4491302e+16
-1.4273583e+16
-1.4267809e+16
-1.4354642e+16
-1.4346646e+16
-1.4071223e+16
-1.4065974e+16
-1.4151898e+16
-1.4145604e+16
-1.3916161e+16
-1.3977726e+16
-1.3911521e+16
-1.3973502e+16
-1.408006e+16
-1.4075982e+16
-1.4161046e+16
-1.4156848e+16
-1.3907505e+16
-1.3969471e+16
-1.3903412e+16
-1.3964355e+16
-1.4703869e+16
-1.4690655e+16
-1.4714394e+16
-1.4710131e+16
-1.4670388e+16
-1.4657438e+16
-1.4683432e+16
-1.4678133e+16
-1.4763194e+16
-1.4751755e+16
-1.4731893e+16
-1.4715041e+16
-1.4769964e+16
-1.4769158e+16
-1.4733732e+16
-1.4721305e+16
-1.4745586e+16
-1.4740387e+16
-1.4755118e+16
-1.4747939e+16
-1.4665577e+16
-1.3873577e+16
-1.4194837e+16
-1.4206157e+16
-1.3899757e+16
-1.4787803e+16
-1.4770389e+16
-1.4797396e+16
-1.4799455e+16
-1.3880553e+16
-1.3868192e+16
-1.414984e+16
-1.4177406e+16
-1.4649652e+16
-1.4650687e+16
-1.4640722e+16
-1.4647419e+16
-1.4636178e+16
-1.4636822e+16
-1.463164e+16
-1.4623972e+16
-1.4676516e+16
-1.4676886e+16
-1.4674876e+16
-1.4667242e+16
-1.4664343e+16
-1.4663314e+16
-1.4659894e+16
-1.4651186e+16
-1.4557959e+16
-1.4574142e+16
-1.495467e+16
-1.4930294e+16
-1.451388e+16
-1.489506e+16
-1.4846893e+16
-1.447739e+16
-1.4234439e+16
-1.4285451e+16
-1.3940587e+16
-1.3880835e+16
-1.3976435e+16
-1.3994118e+16
-1.4671166e+16
-1.4482523e+16
-1.4458945e+16
-1.457878e+16
-1.4598823e+16
-1.4439124e+16
-1.4416282e+16
-1.4532531e+16
-1.4555324e+16
-1.4660468e+16
-1.464817e+16
-1.4730995e+16
-1.4721569e+16
-1.4641855e+16
-1.4634161e+16
-1.462403e+16
-1.4711905e+16
-1.4705189e+16
-1.4701031e+16
-1.4754598e+16
-1.4750455e+16
-1.470791e+16
-1.474352e+16
-1.4685687e+16
-1.4690069e+16
-1.4734987e+16
-1.4728195e+16
-1.4606752e+16
-1.4600923e+16
-1.4677944e+16
-1.4688274e+16
-1.4588225e+16
-1.4576348e+16
-1.4657227e+16
-1.4665593e+16
-1.4667419e+16
-1.4712875e+16
-1.4659651e+16
-1.470568e+16
-1.4642399e+16
-1.4636019e+16
-1.4681563e+16
-1.468959e+16
-1.4211942e+16
-1.4233385e+16
-1.4448353e+16
-1.4603557e+16
-1.4593017e+16
-1.4420831e+16
-1.4579702e+16
-1.4564179e+16
-1.4176135e+16
-1.4387821e+16
-1.4545886e+16
-1.4534408e+16
-1.435978e+16
-1.4515783e+16
-1.4497658e+16
-1.4147082e+16
-1.4680105e+16
-1.4691759e+16
-1.4665394e+16
-1.4653102e+16
-1.4630499e+16
-1.462438e+16
-1.4646768e+16
-1.4650631e+16
-1.4680579e+16
-1.4675286e+16
-1.4702986e+16
-1.4700194e+16
-1.4668781e+16
-1.4691737e+16
-1.4661409e+16
-1.4680538e+16
-1.463733e+16
-1.4641709e+16
-1.4661864e+16
-1.4656832e+16
-1.4665998e+16
-1.4661592e+16
-1.4686784e+16
-1.4680683e+16
-1.4656182e+16
-1.465069e+16
-1.4675202e+16
-1.467247e+16
-1.4706619e+16
-1.4700948e+16
-1.4727882e+16
-1.47249e+16
-1.4696032e+16
-1.4689809e+16
-1.4720249e+16
-1.4712197e+16
-1.4634049e+16
-1.4619886e+16
-1.460278e+16
-1.4586557e+16
-1.4601445e+16
-1.4581562e+16
-1.4575011e+16
-1.4593911e+16
-1.4584201e+16
-1.455788e+16
-1.4565512e+16
-1.4579055e+16
-1.4620166e+16
-1.4613679e+16
-1.4635229e+16
-1.4639458e+16
-1.459551e+16
-1.4622548e+16
-1.4612372e+16
-1.4603918e+16
-1.4612186e+16
-1.4633631e+16
-1.4626199e+16
-1.4606583e+16
-1.4599645e+16
-1.4592925e+16
-1.4618882e+16
-1.4614917e+16
-1.4650273e+16
-1.4644057e+16
-1.4668486e+16
-1.4664326e+16
-1.4636909e+16
-1.4630704e+16
-1.4656289e+16
-1.4649638e+16
-1.4449146e+16
-1.4460152e+16
-1.4211472e+16
-1.4476109e+16
-1.4464574e+16
-1.4431976e+16
-1.4185796e+16
-1.4449154e+16
-1.4586863e+16
-1.4588378e+16
-1.4644669e+16
-1.4652437e+16
-1.4607041e+16
-1.4615516e+16
-1.4564864e+16
-1.4578637e+16
-1.4636835e+16
-1.4627812e+16
-1.459919e+16
-1.459035e+16
-1.4555348e+16
-1.4556865e+16
-1.461897e+16
-1.4612266e+16
-1.4581269e+16
-1.4573188e+16
-1.4600585e+16
-1.4614925e+16
-1.4594284e+16
-1.461072e+16
-1.460385e+16
-1.460592e+16
-1.4622383e+16
-1.4618384e+16
-1.4590239e+16
-1.4588369e+16
-1.4603114e+16
-1.4606699e+16
-1.4599136e+16
-1.4584308e+16
-1.4578668e+16
-1.459535e+16
-1.4565323e+16
-1.4593155e+16
-1.4590376e+16
-1.4560747e+16
-1.4563786e+16
-1.4590082e+16
-1.4583801e+16
-1.4553367e+16
-1.4602679e+16
-1.4606556e+16
-1.4596001e+16
-1.459886e+16
-1.4595869e+16
-1.4598373e+16
-1.4590419e+16
-1.4592237e+16
-1.4591473e+16
-1.4587689e+16
-1.4585336e+16
-1.4583308e+16
-1.4550946e+16
-1.4580176e+16
-1.4579121e+16
-1.454704e+16
-1.4577919e+16
-1.4582025e+16
-1.4579704e+16
-1.4575359e+16
-1.4577175e+16
-1.4569197e+16
-1.4537082e+16
-1.4548337e+16
-1.4571859e+16
-1.4573477e+16
-1.4590304e+16
-1.458697e+16
-1.4562765e+16
-1.4568721e+16
-1.4583882e+16
-1.4579916e+16
-1.4572294e+16
-1.4575334e+16
-1.456998e+16
-1.4568763e+16
-1.4537596e+16
-1.4566171e+16
-1.4563832e+16
-1.4531662e+16
-1.4565847e+16
-1.4568534e+16
-1.4565644e+16
-1.4563034e+16
-1.455814e+16
-1.4562989e+16
-1.4534692e+16
-1.4528028e+16
-1.4558088e+16
-1.4561628e+16
-1.4557951e+16
-1.4556046e+16
-1.4526612e+16
-1.4554244e+16
-1.4553875e+16
-1.4524808e+16
-1.4818755e+16
-1.4824411e+16
-1.4842243e+16
-1.4826477e+16
-1.4837197e+16
-1.4833236e+16
-1.4832914e+16
-1.4838759e+16
-1.4827332e+16
-1.4816769e+16
-1.4818949e+16
-1.4834156e+16
-1.4842157e+16
-1.4836284e+16
-1.4852537e+16
-1.4841069e+16
-1.484139e+16
-1.4842798e+16
-1.4846034e+16
-1.4853598e+16
-1.4785338e+16
-1.4782882e+16
-1.4783866e+16
-1.4782851e+16
-1.4770947e+16
-1.4757075e+16
-1.4772737e+16
-1.4755601e+16
-1.4810164e+16
-1.480791e+16
-1.4809791e+16
-1.4810794e+16
-1.4802059e+16
-1.4805495e+16
-1.479348e+16
-1.4791836e+16
-1.4759186e+16
-1.4757966e+16
-1.4780672e+16
-1.4785882e+16
-1.4752094e+16
-1.4759205e+16
-1.478485e+16
-1.4776981e+16
-1.4751566e+16
-1.4751991e+16
-1.47748e+16
-1.4777007e+16
-1.4736095e+16
-1.4748457e+16
-1.4772474e+16
-1.4761746e+16
-1.4737298e+16
-1.4738912e+16
-1.476126e+16
-1.4764092e+16
-1.4726517e+16
-1.473738e+16
-1.4761276e+16
-1.475148e+16
-1.4721723e+16
-1.4722298e+16
-1.4746709e+16
-1.474846e+16
-1.4706859e+16
-1.4719739e+16
-1.4742594e+16
-1.4730635e+16
-1.4703978e+16
-1.4707357e+16
-1.4728548e+16
-1.4731459e+16
-1.4695539e+16
-1.4705095e+16
-1.4729947e+16
-1.4720453e+16
-1.4688971e+16
-1.4698203e+16
-1.4718664e+16
-1.471767e+16
-1.4674701e+16
-1.4687498e+16
-1.4712579e+16
-1.4701245e+16
-1.4667314e+16
-1.4678701e+16
-1.4699843e+16
-1.4699986e+16
-1.4660815e+16
-1.4668524e+16
-1.4697847e+16
-1.4688811e+16
-1.4660765e+16
-1.4684452e+16
-1.4654946e+16
-1.468368e+16
-1.4650164e+16
-1.4638608e+16
-1.4677287e+16
-1.4664842e+16
-1.4662308e+16
-1.4664459e+16
-1.4659289e+16
-1.4649954e+16
-1.4677158e+16
-1.4675479e+16
-1.4666059e+16
-1.4673667e+16
-1.4649989e+16
-1.464852e+16
-1.4646501e+16
-1.4640719e+16
-1.4636464e+16
-1.4638803e+16
-1.4625627e+16
-1.4632061e+16
-1.3550256e+16
-1.3785558e+16
-1.3227697e+16
-1.3244804e+16
-1.3548824e+16
-1.3527858e+16
-1.4039386e+16
-1.4320677e+16
-1.4398233e+16
-1.4403079e+16
-1.4548912e+16
-1.4544645e+16
-1.4372064e+16
-1.4384904e+16
-1.4513676e+16
-1.453122e+16
-1.4192584e+16
-1.4044026e+16
-1.4181072e+16
-1.4035201e+16
-1.4208866e+16
-1.4052736e+16
-1.406051e+16
-1.4202128e+16
-1.3512535e+16
-1.3625597e+16
-1.3514991e+16
-1.3624231e+16
-1.3760258e+16
-1.3765699e+16
-1.3885174e+16
-1.3878905e+16
-1.3615713e+16
-1.3621718e+16
-1.3513605e+16
-1.3506442e+16
-1.3770038e+16
-1.3770593e+16
-1.3892946e+16
-1.3891034e+16
-1.3500154e+16
-1.3502538e+16
-1.3611041e+16
-1.3607922e+16
-1.3739124e+16
-1.374505e+16
-1.3854384e+16
-1.3862089e+16
-1.349664e+16
-1.359694e+16
-1.3604054e+16
-1.3489444e+16
-1.3875135e+16
-1.3751001e+16
-1.3870077e+16
-1.3754058e+16
-1.264761e+16
-1.2630248e+16
-1.2909589e+16
-1.2908956e+16
-1.3246436e+16
-1.3542704e+16
-1.3535972e+16
-1.3238528e+16
-1.4230148e+16
-1.4078417e+16
-1.4075739e+16
-1.4232494e+16
-1.4411309e+16
-1.4422555e+16
-1.4577732e+16
-1.4560185e+16
-1.4432642e+16
-1.4431722e+16
-1.4586294e+16
-1.4586799e+16
-1.4062956e+16
-1.4068871e+16
-1.4224808e+16
-1.4214639e+16
-1.3489587e+16
-1.3488683e+16
-1.3447003e+16
-1.3447239e+16
-1.3493539e+16
-1.3491018e+16
-1.3449145e+16
-1.3451087e+16
-1.3574093e+16
-1.3622371e+16
-1.3572577e+16
-1.3620151e+16
-1.3570233e+16
-1.3618094e+16
-1.3569681e+16
-1.3616923e+16
-1.3487705e+16
-1.3483701e+16
-1.3440879e+16
-1.3445415e+16
-1.3479985e+16
-1.3477063e+16
-1.3435766e+16
-1.3437591e+16
-1.356849e+16
-1.3616683e+16
-1.3566362e+16
-1.3613648e+16
-1.3562163e+16
-1.3610113e+16
-1.3558673e+16
-1.3605967e+16
-1.3843317e+16
-1.3900095e+16
-1.3839667e+16
-1.3896132e+16
-1.3707476e+16
-1.3703888e+16
-1.3752561e+16
-1.3756342e+16
-1.370011e+16
-1.3696604e+16
-1.3748951e+16
-1.3744451e+16
-1.3835211e+16
-1.3830686e+16
-1.3892191e+16
-1.3887209e+16
-1.37109e+16
-1.3760684e+16
-1.3757957e+16
-1.3709232e+16
-1.3715453e+16
-1.3765375e+16
-1.3712837e+16
-1.3762845e+16
-1.385372e+16
-1.3911609e+16
-1.3909269e+16
-1.3851771e+16
-1.3848727e+16
-1.3905981e+16
-1.3846043e+16
-1.3902644e+16
-1.4018028e+16
-1.4083544e+16
-1.4015269e+16
-1.4081385e+16
-1.4011629e+16
-1.4077803e+16
-1.4008169e+16
-1.4072871e+16
-1.4184268e+16
-1.4271519e+16
-1.4179729e+16
-1.4265397e+16
-1.4190205e+16
-1.4276783e+16
-1.418832e+16
-1.4275617e+16
-1.459979e+16
-1.4651049e+16
-1.4599105e+16
-1.4651968e+16
-1.4399386e+16
-1.4486023e+16
-1.4393758e+16
-1.4476886e+16
-1.4405748e+16
-1.4491262e+16
-1.4403548e+16
-1.449047e+16
-1.4592824e+16
-1.4645773e+16
-1.4584278e+16
-1.4633543e+16
-1.4577937e+16
-1.4626827e+16
-1.4573203e+16
-1.4623001e+16
-1.4376851e+16
-1.4370061e+16
-1.4460867e+16
-1.4451631e+16
-1.4389117e+16
-1.4471915e+16
-1.4383692e+16
-1.4467567e+16
-1.4565434e+16
-1.4616803e+16
-1.4556059e+16
-1.4603948e+16
-1.417571e+16
-1.4261391e+16
-1.4171605e+16
-1.4257006e+16
-1.3996132e+16
-1.4061129e+16
-1.3991652e+16
-1.4055344e+16
-1.4004899e+16
-1.4069809e+16
-1.4000643e+16
-1.4065748e+16
-1.4165788e+16
-1.415999e+16
-1.4251227e+16
-1.4243863e+16
-1.3659141e+16
-1.3655381e+16
-1.3705727e+16
-1.3701471e+16
-1.3669052e+16
-1.3715802e+16
-1.3663698e+16
-1.3710164e+16
-1.380112e+16
-1.3854848e+16
-1.3795812e+16
-1.3848938e+16
-1.3790611e+16
-1.3843861e+16
-1.3785908e+16
-1.3838818e+16
-1.3524508e+16
-1.3568821e+16
-1.3520807e+16
-1.3565161e+16
-1.3533794e+16
-1.357837e+16
-1.3529296e+16
-1.3573075e+16
-1.3457115e+16
-1.3451911e+16
-1.3415537e+16
-1.3410794e+16
-1.3447296e+16
-1.3444104e+16
-1.3402688e+16
-1.3406173e+16
-1.3552229e+16
-1.3598948e+16
-1.354733e+16
-1.3593149e+16
-1.3464434e+16
-1.3461209e+16
-1.3420183e+16
-1.342314e+16
-1.3472626e+16
-1.3468073e+16
-1.342742e+16
-1.3432083e+16
-1.354188e+16
-1.3588257e+16
-1.3538114e+16
-1.3582943e+16
-1.3824829e+16
-1.3881144e+16
-1.3819423e+16
-1.3874998e+16
-1.3679216e+16
-1.3727406e+16
-1.3674204e+16
-1.3721175e+16
-1.3690289e+16
-1.3738621e+16
-1.3684544e+16
-1.3732769e+16
-1.3813447e+16
-1.3868822e+16
-1.3807508e+16
-1.3861735e+16
-1.432006e+16
-1.4312747e+16
-1.4403228e+16
-1.4393605e+16
-1.4334345e+16
-1.4327973e+16
-1.4415344e+16
-1.4410474e+16
-1.4519808e+16
-1.4567539e+16
-1.4515178e+16
-1.4563973e+16
-1.4507041e+16
-1.4556656e+16
-1.4497209e+16
-1.4543428e+16
-1.4350402e+16
-1.4342541e+16
-1.4433563e+16
-1.4423494e+16
-1.4363085e+16
-1.4444268e+16
-1.4357277e+16
-1.4439984e+16
-1.4548018e+16
-1.4597215e+16
-1.4544404e+16
-1.459467e+16
-1.4537278e+16
-1.4528e+16
-1.4588052e+16
-1.4574968e+16
-1.4153287e+16
-1.4237115e+16
-1.414811e+16
-1.4232189e+16
-1.398535e+16
-1.3979132e+16
-1.4049063e+16
-1.4043319e+16
-1.3972515e+16
-1.396605e+16
-1.4036663e+16
-1.4028881e+16
-1.4140854e+16
-1.4133721e+16
-1.4225377e+16
-1.4216734e+16
-1.4126405e+16
-1.4120707e+16
-1.4208896e+16
-1.4203184e+16
-1.3958663e+16
-1.3952565e+16
-1.4021812e+16
-1.4015675e+16
-1.3941657e+16
-1.3946661e+16
-1.4009711e+16
-1.4003389e+16
-1.4113371e+16
-1.4106775e+16
-1.4196148e+16
-1.418811e+16
-1.3785566e+16
-1.3763551e+16
-1.3788147e+16
-1.3761321e+16
-1.3833497e+16
-1.3859392e+16
-1.3857227e+16
-1.3831284e+16
-1.375674e+16
-1.3780957e+16
-1.3759091e+16
-1.3783577e+16
-1.3829035e+16
-1.3854911e+16
-1.3826435e+16
-1.3851922e+16
-1.3625649e+16
-1.3644759e+16
-1.3642167e+16
-1.3623189e+16
-1.361952e+16
-1.3621553e+16
-1.3640791e+16
-1.3638745e+16
-1.3705158e+16
-1.3687927e+16
-1.3707648e+16
-1.3685662e+16
-1.3681532e+16
-1.3701239e+16
-1.3683735e+16
-1.3703493e+16
-1.3650829e+16
-1.3634017e+16
-1.3653407e+16
-1.3631713e+16
-1.3696393e+16
-1.3716431e+16
-1.371419e+16
-1.369421e+16
-1.364643e+16
-1.362976e+16
-1.3648961e+16
-1.3627534e+16
-1.369211e+16
-1.3711953e+16
-1.3689815e+16
-1.3709577e+16
-1.3754763e+16
-1.3779186e+16
-1.3776641e+16
-1.3752169e+16
-1.3850076e+16
-1.3822048e+16
-1.3824498e+16
-1.3847647e+16
-1.3750398e+16
-1.3748222e+16
-1.3774961e+16
-1.3772507e+16
-1.3845642e+16
-1.381747e+16
-1.3842892e+16
-1.381997e+16
-1.350881e+16
-1.3506178e+16
-1.3519938e+16
-1.3517371e+16
-1.3560422e+16
-1.3578062e+16
-1.3575516e+16
-1.3562884e+16
-1.3504441e+16
-1.3502166e+16
-1.3514166e+16
-1.3516156e+16
-1.3558653e+16
-1.3556564e+16
-1.3574011e+16
-1.3572036e+16
-1.3525536e+16
-1.3516516e+16
-1.3527927e+16
-1.3514467e+16
-1.3570826e+16
-1.3586365e+16
-1.3584025e+16
-1.3568827e+16
-1.3521252e+16
-1.3512626e+16
-1.3523907e+16
-1.3510216e+16
-1.3566805e+16
-1.3582119e+16
-1.3564408e+16
-1.3579894e+16
-1.347117e+16
-1.3470778e+16
-1.3473757e+16
-1.3472061e+16
-1.3470121e+16
-1.3467172e+16
-1.3469227e+16
-1.3465915e+16
-1.339359e+16
-1.3389826e+16
-1.3464562e+16
-1.3462554e+16
-1.3466137e+16
-1.3463725e+16
-1.3461872e+16
-1.3459196e+16
-1.346044e+16
-1.3456658e+16
-1.3382181e+16
-1.3386045e+16
-1.3746381e+16
-1.3770836e+16
-1.3768185e+16
-1.3743989e+16
-1.3739922e+16
-1.3741893e+16
-1.3766306e+16
-1.3764109e+16
-1.3839106e+16
-1.3815506e+16
-1.3841262e+16
-1.3813197e+16
-1.3808952e+16
-1.3834443e+16
-1.3811163e+16
-1.3837001e+16
-1.3609568e+16
-1.3628721e+16
-1.3626205e+16
-1.3607345e+16
-1.3688724e+16
-1.3671244e+16
-1.3691036e+16
-1.3669134e+16
-1.3665058e+16
-1.3684784e+16
-1.3666878e+16
-1.3686576e+16
-1.363473e+16
-1.3617881e+16
-1.3637537e+16
-1.3615281e+16
-1.3679732e+16
-1.3699889e+16
-1.3697521e+16
-1.3677313e+16
-1.3630871e+16
-1.3613489e+16
-1.3632948e+16
-1.3611735e+16
-1.3675384e+16
-1.3695413e+16
-1.3673466e+16
-1.3693417e+16
-1.3737563e+16
-1.376192e+16
-1.3759672e+16
-1.3735247e+16
-1.3733147e+16
-1.375774e+16
-1.3731423e+16
-1.3755847e+16
-1.3830239e+16
-1.3806781e+16
-1.3832338e+16
-1.3804692e+16
-1.3800416e+16
-1.3802508e+16
-1.3828234e+16
-1.3825966e+16
-1.3493451e+16
-1.3491147e+16
-1.3505208e+16
-1.3502686e+16
-1.3545039e+16
-1.3562724e+16
-1.3560314e+16
-1.3547357e+16
-1.3510482e+16
-1.3500639e+16
-1.3513283e+16
-1.3498105e+16
-1.355501e+16
-1.3571085e+16
-1.3568455e+16
-1.3552573e+16
-1.3507051e+16
-1.3496665e+16
-1.3509012e+16
-1.3495027e+16
-1.3550704e+16
-1.356665e+16
-1.3548875e+16
-1.3564918e+16
-1.4554763e+16
-1.4519436e+16
-1.4556016e+16
-1.4517189e+16
-1.4513935e+16
-1.4551422e+16
-1.454548e+16
-1.4509463e+16
-1.4597526e+16
-1.4604906e+16
-1.4595939e+16
-1.4604065e+16
-1.4601172e+16
-1.4592958e+16
-1.4592048e+16
-1.4586461e+16
-1.4347919e+16
-1.4301097e+16
-1.4352083e+16
-1.4298183e+16
-1.4303842e+16
-1.4305894e+16
-1.4356039e+16
-1.435479e+16
-1.4414944e+16
-1.4416129e+16
-1.4464806e+16
-1.4464293e+16
-1.4461859e+16
-1.4457087e+16
-1.4412116e+16
-1.4408208e+16
-1.4343995e+16
-1.4295632e+16
-1.4345786e+16
-1.4293361e+16
-1.4290609e+16
-1.4341243e+16
-1.4336761e+16
-1.4287378e+16
-1.4406187e+16
-1.445525e+16
-1.4404291e+16
-1.445345e+16
-1.4450419e+16
-1.4445053e+16
-1.4401054e+16
-1.4396618e+16
-1.4558487e+16
-1.4525539e+16
-1.4564283e+16
-1.452141e+16
-1.4527868e+16
-1.4529179e+16
-1.4566827e+16
-1.4566558e+16
-1.4617624e+16
-1.4608666e+16
-1.460942e+16
-1.4617706e+16
-1.4614877e+16
-1.460755e+16
-1.4605592e+16
-1.4600625e+16
-1.3929212e+16
-1.3902645e+16
-1.3931784e+16
-1.390015e+16
-1.3980599e+16
-1.4012692e+16
-1.4010229e+16
-1.3978176e+16
-1.3924446e+16
-1.389798e+16
-1.3927219e+16
-1.3895459e+16
-1.3975769e+16
-1.4007975e+16
-1.4004998e+16
-1.3973117e+16
-1.4074837e+16
-1.4120728e+16
-1.4077575e+16
-1.412382e+16
-1.4080092e+16
-1.4082314e+16
-1.4128351e+16
-1.4126157e+16
-1.418611e+16
-1.4187895e+16
-1.4236432e+16
-1.4234915e+16
-1.4232319e+16
-1.422912e+16
-1.418361e+16
-1.4180926e+16
-1.3909785e+16
-1.391209e+16
-1.3941494e+16
-1.3939129e+16
-1.3987956e+16
-1.3990063e+16
-1.4022382e+16
-1.4020184e+16
-1.3933753e+16
-1.3907375e+16
-1.3936707e+16
-1.3904665e+16
-1.401764e+16
-1.3985348e+16
-1.3982673e+16
-1.4014689e+16
-1.4116154e+16
-1.407263e+16
-1.4118539e+16
-1.4070132e+16
-1.4067693e+16
-1.4113883e+16
-1.4110741e+16
-1.4065084e+16
-1.4178635e+16
-1.4226814e+16
-1.4176451e+16
-1.4224953e+16
-1.4222223e+16
-1.4218559e+16
-1.4173751e+16
-1.4170627e+16
-1.4284498e+16
-1.4334124e+16
-1.4332462e+16
-1.4282576e+16
-1.4279282e+16
-1.4329662e+16
-1.4325506e+16
-1.4276309e+16
-1.4393628e+16
-1.4442319e+16
-1.4440996e+16
-1.4391768e+16
-1.4389204e+16
-1.4438609e+16
-1.4433588e+16
-1.4385147e+16
-1.450591e+16
-1.4542004e+16
-1.4541472e+16
-1.4503902e+16
-1.450143e+16
-1.4539072e+16
-1.4533639e+16
-1.4497156e+16
-1.4583161e+16
-1.4591026e+16
-1.459142e+16
-1.4582626e+16
-1.4579522e+16
-1.4588529e+16
-1.4582132e+16
-1.4574967e+16
-1.4494032e+16
-1.4530285e+16
-1.4529939e+16
-1.4492537e+16
-1.4484217e+16
-1.4488578e+16
-1.4526259e+16
-1.4520563e+16
-1.4571516e+16
-1.4579282e+16
-1.4578919e+16
-1.4570383e+16
-1.45617e+16
-1.4566826e+16
-1.4575946e+16
-1.4568857e+16
-1.4273079e+16
-1.4322574e+16
-1.4321139e+16
-1.4271195e+16
-1.4265183e+16
-1.426822e+16
-1.4318443e+16
-1.4314451e+16
-1.4382437e+16
-1.4430814e+16
-1.4429551e+16
-1.4380774e+16
-1.4373746e+16
-1.4377726e+16
-1.4426355e+16
-1.4421353e+16
-1.4053167e+16
-1.4098597e+16
-1.4096426e+16
-1.4050937e+16
-1.4045786e+16
-1.4048328e+16
-1.4093992e+16
-1.4091085e+16
-1.4158049e+16
-1.4205263e+16
-1.4203797e+16
-1.4156232e+16
-1.4150093e+16
-1.415316e+16
-1.4200936e+16
-1.4197469e+16
-1.3893492e+16
-1.3891167e+16
-1.3922697e+16
-1.3920385e+16
-1.3971014e+16
-1.3968888e+16
-1.4003147e+16
-1.4001026e+16
-1.3889001e+16
-1.3918179e+16
-1.3915672e+16
-1.38867e+16
-1.3998654e+16
-1.3996019e+16
-1.3966518e+16
-1.3964177e+16
-1.4062907e+16
-1.4108657e+16
-1.4106455e+16
-1.4060639e+16
-1.4058157e+16
-1.4104058e+16
-1.4101207e+16
-1.4055783e+16
-1.4168272e+16
-1.4216224e+16
-1.4214738e+16
-1.4166408e+16
-1.41637e+16
-1.4211705e+16
-1.4208382e+16
-1.4160941e+16
-1.3884431e+16
-1.391344e+16
-1.3882299e+16
-1.391134e+16
-1.3959761e+16
-1.3961838e+16
-1.3993731e+16
-1.3991627e+16
-1.3877926e+16
-1.3906892e+16
-1.3880106e+16
-1.3909285e+16
-1.3989316e+16
-1.3957352e+16
-1.3954902e+16
-1.3986639e+16
-1.4731505e+16
-1.4729282e+16
-1.4723494e+16
-1.4714085e+16
-1.4742904e+16
-1.4743564e+16
-1.4741042e+16
-1.4732962e+16
-1.4696292e+16
-1.4694141e+16
-1.4688443e+16
-1.4678296e+16
-1.4711687e+16
-1.4710803e+16
-1.4707518e+16
-1.4699859e+16
-1.4790042e+16
-1.4790257e+16
-1.478517e+16
-1.4776725e+16
-1.479603e+16
-1.4790532e+16
-1.4784311e+16
-1.4773084e+16
-1.4796768e+16
-1.479953e+16
-1.4797859e+16
-1.4791731e+16
-1.4760393e+16
-1.4760177e+16
-1.4745177e+16
-1.4754308e+16
-1.4775026e+16
-1.4775071e+16
-1.4771633e+16
-1.4764012e+16
-1.481881e+16
-1.4821606e+16
-1.4812652e+16
-1.4802117e+16
-1.4810925e+16
-1.4822753e+16
-1.3870665e+16
-1.4204006e+16
-1.4210109e+16
-1.3900536e+16
-1.4849591e+16
-1.4845988e+16
-1.4839931e+16
-1.482865e+16
-1.486179e+16
-1.4852872e+16
-1.4862554e+16
-1.4865032e+16
-1.3880835e+16
-1.386835e+16
-1.4150313e+16
-1.4177952e+16
-1.4558767e+16
-1.4575038e+16
-1.4956479e+16
-1.4932487e+16
-1.3986123e+16
-1.4030691e+16
-1.3559783e+16
-1.4084698e+16
-1.4102193e+16
-1.3526034e+16
-1.4040861e+16
-1.4027425e+16
-1.4621648e+16
-1.4325047e+16
-1.4309636e+16
-1.4519022e+16
-1.4685439e+16
-1.4673081e+16
-1.4541717e+16
-1.4695453e+16
-1.4701599e+16
-1.428868e+16
-1.426117e+16
-1.4475637e+16
-1.4638781e+16
-1.4624369e+16
-1.449996e+16
-1.465796e+16
-1.4653284e+16
-1.4672467e+16
-1.4665284e+16
-1.4747716e+16
-1.4751597e+16
-1.4789031e+16
-1.4780887e+16
-1.4770452e+16
-1.4761938e+16
-1.4746918e+16
-1.4751331e+16
-1.4768375e+16
-1.4767171e+16
-1.4722847e+16
-1.4722678e+16
-1.4766809e+16
-1.4763959e+16
-1.4796722e+16
-1.4818242e+16
-1.4793328e+16
-1.4817717e+16
-1.4755357e+16
-1.4758032e+16
-1.477684e+16
-1.4772124e+16
-1.4791181e+16
-1.4787508e+16