/*--------------------------------*- C++ -*----------------------------------*\
  =========                 |
  \\      /  F ield         | OpenFOAM: The Open Source CFD Toolbox
   \\    /   O peration     | Website:  https://openfoam.org
    \\  /    A nd           | Version:  7
     \\/     M anipulation  |
\*---------------------------------------------------------------------------*/
FoamFile
{
    version     2.0;
    format      ascii;
    class       volScalarField;
    location    "6000";
    object      k;
}
// * * * * * * * * * * * * * * * * * * * * * * * * * * * * * * * * * * * * * //

dimensions      [0 2 -2 0 0 0 0];

internalField   nonuniform List<scalar> 
34251
(
1.5222342
1.5174496
1.521024
1.5227339
1.5212776
1.5229492
1.5214192
1.5222774
1.5225391
1.5172744
1.5166036
1.51665
1.5162406
1.5201309
1.5202007
1.5215358
1.521408
1.5204227
1.5203027
1.5217674
1.5216852
1.5225829
1.5222794
1.5220232
1.5223518
1.5202641
1.520368
1.5202043
1.5204202
1.5215626
1.5218692
1.5209053
1.5211901
1.5211324
1.5212735
1.5214849
1.5213872
1.5181945
1.5190276
1.515675
1.5176098
1.517997
1.5161605
1.51569
1.5151968
1.516162
1.5165735
1.5172236
1.5172395
1.5155768
1.5155167
1.5151665
1.5150846
1.5162192
1.5161078
1.5204519
1.5194415
1.5205138
1.51945
1.5205809
1.5194433
1.5205641
1.5208167
1.5195731
1.5207428
1.5195455
1.5195092
1.520696
1.5206505
1.5215317
1.5214537
1.5212946
1.521213
1.5212593
1.52133
1.5213332
1.5214015
1.5223784
1.5212181
1.521166
1.5210117
1.5210834
1.522153
1.5213294
1.5212034
1.5209655
1.5211096
1.5220388
1.5218192
1.5196271
1.5196747
1.519706
1.5203384
1.5196633
1.5195716
1.5195814
1.5196763
1.5196008
1.5196092
1.5196369
1.5196491
1.520285
1.519596
1.5196371
1.5197243
1.5196873
1.5201447
1.5200822
1.5202068
1.520425
1.5196536
1.5196914
1.5196675
1.5209925
1.5201514
1.520211
1.5201503
1.5200853
1.5211676
1.5202261
1.5202938
1.5202207
1.5202757
1.5202949
1.5203432
1.520328
1.5204841
1.5204545
1.5204055
1.5180705
1.5188026
1.5154099
1.5172016
1.5176363
1.5158578
1.5156627
1.515448
1.5152619
1.5156204
1.5151524
1.5151225
1.5150036
1.5150464
1.515078
1.5164022
1.5163921
1.5150327
1.5152651
1.5157083
1.5165492
1.5169048
1.5169442
1.5153495
1.5152788
1.5151087
1.5151545
1.5150837
1.5150014
1.5149487
1.5150423
1.515044
1.514954
1.5151373
1.5150348
1.5164226
1.5149933
1.514993
1.5164053
1.5163675
1.5187423
1.5187349
1.5197804
1.5197878
1.5187321
1.5187125
1.5198062
1.5198005
1.5198124
1.5187285
1.5187188
1.5197841
1.518825
1.5188152
1.5199422
1.5199143
1.5188126
1.5187941
1.5199088
1.5198999
1.5187885
1.5187744
1.5198841
1.519849
1.5201327
1.5202598
1.5205281
1.5201914
1.5202417
1.5204532
1.5205001
1.5203406
1.5202014
1.5201414
1.5201938
1.5203252
1.5202754
1.5202982
1.5203412
1.5203621
1.5203155
1.5213894
1.5204327
1.5203518
1.520368
1.5214493
1.5201726
1.5202212
1.5203114
1.5202607
1.5202273
1.5203178
1.5213116
1.5213759
1.5201946
1.5201134
1.5201117
1.5201944
1.5202453
1.5202525
1.5202544
1.5202465
1.521284
1.5201344
1.5202191
1.520225
1.5211375
1.5201516
1.5200257
1.5201096
1.5200927
1.5201687
1.5212233
1.5210565
1.5201271
1.5201326
1.5203732
1.5203849
1.5203357
1.5200504
1.520099
1.5202868
1.5201749
1.5200608
1.5200063
1.5201256
1.5202119
1.5200821
1.5200812
1.5202071
1.5220478
1.5214523
1.5214762
1.5214177
1.5213902
1.5219072
1.5213043
1.5213145
1.5211684
1.5211647
1.5215735
1.5215071
1.51909
1.5190732
1.5196935
1.51913
1.5191437
1.5191037
1.5191053
1.519739
1.5191682
1.5191772
1.5189985
1.5190455
1.5190115
1.5190598
1.5196377
1.5196845
1.518998
1.5190496
1.5189843
1.5190323
1.5189947
1.5189889
1.5190574
1.519049
1.5189939
1.5190561
1.5189913
1.5190516
1.5190138
1.519108
1.5190119
1.5191039
1.5190886
1.5190812
1.5196652
1.5191355
1.5191381
1.5190882
1.5190833
1.5196751
1.5191375
1.5191386
1.5190008
1.5190512
1.5189962
1.5190422
1.5190004
1.5190507
1.5189979
1.5190455
1.5196151
1.5196102
1.5189913
1.5190565
1.5189766
1.5190395
1.5189806
1.5190487
1.5190018
1.519067
1.5190019
1.5191027
1.519025
1.5191207
1.5190132
1.5191091
1.5189988
1.519092
1.5196792
1.5197246
1.5197403
1.5196958
1.5196507
1.5196539
1.5196728
1.5196658
1.5197384
1.5197091
1.5197246
1.5197538
1.5197238
1.5196652
1.5197553
1.5196998
1.5199105
1.5191549
1.5192022
1.5191132
1.5191252
1.5191797
1.519163
1.5190276
1.5190756
1.5190425
1.5190724
1.5190647
1.5191547
1.5190854
1.5201646
1.5202176
1.5201028
1.5200524
1.5197829
1.5198318
1.5197713
1.5198153
1.519775
1.5197579
1.5197132
1.519733
1.5197061
1.519683
1.5196814
1.5197015
1.5197557
1.519755
1.5197382
1.5197393
1.5201793
1.5203174
1.5202773
1.5198678
1.5198533
1.5198347
1.5198152
1.5197477
1.5197712
1.5197653
1.5197901
1.5199275
1.5199819
1.5200829
1.5201301
1.5196081
1.5195997
1.519617
1.5196089
1.5196291
1.519599
1.5197454
1.5197151
1.5197171
1.5197065
1.5196946
1.5196576
1.5180083
1.5186684
1.5152084
1.5150429
1.5150132
1.5172387
1.5176003
1.5156224
1.5152923
1.5155464
1.5152039
1.515548
1.514973
1.5150088
1.5150324
1.5150491
1.5150649
1.5150899
1.5152375
1.5152438
1.5166599
1.5166361
1.5152097
1.515216
1.5166519
1.5166387
1.5150389
1.5150084
1.5150026
1.5150475
1.5151874
1.5152269
1.5151929
1.5152574
1.515489
1.5156949
1.5154806
1.51535
1.5154201
1.5167507
1.5167282
1.5169095
1.5169579
1.5151736
1.515066
1.5150093
1.5150995
1.5149499
1.5149462
1.5150584
1.5149727
1.5149224
1.514927
1.5150857
1.5151349
1.515118
1.5150614
1.5150444
1.5150061
1.5150162
1.5152433
1.5152036
1.5167048
1.516659
1.5150103
1.5150155
1.5149708
1.5149667
1.5150142
1.5150104
1.5149658
1.5149675
1.5151977
1.515183
1.5166792
1.5166537
1.5151929
1.5151775
1.5166732
1.5166391
1.5173416
1.5175894
1.5176283
1.5193423
1.5193335
1.5176283
1.517563
1.5193309
1.5193294
1.5175599
1.5176054
1.5193404
1.5193316
1.5175615
1.5175213
1.5193298
1.519325
1.5175478
1.5175753
1.5193529
1.5193417
1.5175947
1.5175453
1.5193267
1.5193199
1.5176116
1.51764
1.5194583
1.519446
1.5176547
1.5176178
1.5194319
1.5194237
1.517615
1.5176496
1.5194342
1.5194278
1.517614
1.5175814
1.5194264
1.5194171
1.5175941
1.5176139
1.519417
1.5194056
1.5176315
1.5176061
1.5193879
1.5193719
1.5215082
1.5193647
1.5195515
1.5193292
1.5195192
1.519522
1.5197703
1.5194907
1.5197401
1.5193319
1.5192873
1.5195111
1.5194712
1.519349
1.5193427
1.5195316
1.5195237
1.519481
1.5197211
1.5194416
1.5196844
1.5195005
1.5194934
1.5197435
1.5197337
1.5192099
1.519174
1.5194115
1.5193752
1.5191232
1.5190871
1.5192756
1.5192384
1.519053
1.5191003
1.5192486
1.5192021
1.5191165
1.5191119
1.5192661
1.5192594
1.5192002
1.5191954
1.5193975
1.5193901
1.519184
1.5191381
1.5193794
1.5193345
1.5192546
1.5192055
1.5204374
1.5193419
1.5193856
1.5192729
1.5192597
1.5204774
1.5193945
1.5194028
1.5190755
1.5191519
1.5190662
1.5191401
1.5190561
1.5191329
1.5190089
1.519082
1.520439
1.5204031
1.5193484
1.5205572
1.5195752
1.5194876
1.5192727
1.5192374
1.5204896
1.5194027
1.5193734
1.5190735
1.5190413
1.5191517
1.5191141
1.5204569
1.5205182
1.5190014
1.5189528
1.519113
1.5190633
1.5190201
1.5191315
1.5190126
1.5191221
1.5190326
1.5191976
1.5190273
1.5191903
1.5190153
1.5191802
1.5189679
1.5191317
1.5189859
1.519097
1.5190014
1.519203
1.5191657
1.5220309
1.5205508
1.5205798
1.5205731
1.5205389
1.5206455
1.5206033
1.5206417
1.5205911
1.522162
1.5221264
1.5189222
1.5190872
1.518928
1.5190887
1.518968
1.5189145
1.5190755
1.5190217
1.5189067
1.5190168
1.5189125
1.5190189
1.5189803
1.5189308
1.5191395
1.5190892
1.5191567
1.5191571
1.5203828
1.5192933
1.519288
1.5190254
1.5190965
1.5189685
1.5190382
1.5189612
1.5190342
1.5189671
1.519036
1.5192208
1.5191589
1.5203806
1.5193521
1.5192925
1.5203568
1.5203584
1.5192167
1.5192244
1.520257
1.5193366
1.5193377
1.5192002
1.5191722
1.5203477
1.5193007
1.5193265
1.5190105
1.5190815
1.5189888
1.5190587
1.5203256
1.5202189
1.5190377
1.5191072
1.5190644
1.5191304
1.5189921
1.5190947
1.5190296
1.5191245
1.5190109
1.5191609
1.5190518
1.5191903
1.5189569
1.5190632
1.5189398
1.5190451
1.5189704
1.5191261
1.5189578
1.5191122
1.5205027
1.5205067
1.5204904
1.5204871
1.5204716
1.5204491
1.5203393
1.5203474
1.5192829
1.5192428
1.5194565
1.5194205
1.5192486
1.5194311
1.5192475
1.5194269
1.5194261
1.519656
1.5193927
1.519624
1.5194019
1.5196416
1.5193986
1.5196341
1.5194073
1.5196339
1.5194015
1.5196246
1.5193062
1.5193281
1.5194641
1.5194737
1.5192665
1.5194376
1.5192598
1.5194292
1.5194387
1.5194482
1.5191292
1.5193128
1.5191215
1.5193029
1.5190505
1.5190407
1.5191923
1.5191808
1.5190934
1.5191311
1.5192275
1.5192537
1.5191727
1.519205
1.5193464
1.5193651
1.5190979
1.5192941
1.5190996
1.5192917
1.5190622
1.519015
1.519206
1.5191596
1.5190111
1.5191608
1.5190149
1.5191606
1.5191424
1.5190988
1.5193298
1.519287
1.5214818
1.5214342
1.5213362
1.5212964
1.5209208
1.5209716
1.5209354
1.5208889
1.5207703
1.5207917
1.5207573
1.5207343
1.5207091
1.5207263
1.5207012
1.5206813
1.5208548
1.5209002
1.5208815
1.5208317
1.5212523
1.5213347
1.5212158
1.5211818
1.52082
1.5208273
1.5207772
1.5207724
1.520655
1.5206299
1.520626
1.5206506
1.5204769
1.5206119
1.520586
1.5204626
1.5206607
1.5207775
1.520724
1.5206007
1.5212588
1.5211911
1.5178773
1.5178781
1.5180933
1.5180872
1.5181131
1.5181028
1.5179034
1.5179046
1.5192054
1.5191591
1.5191508
1.5191919
1.5178966
1.5178697
1.517676
1.5176841
1.5179258
1.517931
1.5180577
1.5180486
1.5178274
1.5178296
1.5191849
1.5191982
1.5192425
1.5192295
1.5178215
1.5176766
1.5179298
1.5179417
1.5181457
1.5181339
1.51813
1.5181506
1.5183038
1.5183233
1.518238
1.5180632
1.5182475
1.5180568
1.5184026
1.5182446
1.5182403
1.5183951
1.5191818
1.519183
1.5192144
1.5192054
1.5192064
1.5192209
1.5192519
1.5192372
1.5182654
1.5180983
1.5182702
1.5180938
1.5184159
1.518267
1.5182662
1.5184139
1.5182718
1.5181171
1.5182833
1.5181088
1.5184235
1.5182794
1.518272
1.518413
1.5184397
1.5185391
1.5185389
1.5184402
1.5184506
1.5184546
1.5185517
1.5185457
1.5186235
1.5185279
1.5186231
1.5185298
1.5185375
1.5186276
1.5185412
1.518634
1.5185404
1.5184395
1.5185377
1.5184428
1.5185262
1.5186207
1.5186233
1.5185308
1.518534
1.5184445
1.5185434
1.5184364
1.5185321
1.5186265
1.5185246
1.5186164
1.5186771
1.5186081
1.5186752
1.5186119
1.5187387
1.5186598
1.5186627
1.51874
1.518605
1.5186707
1.5186141
1.5186812
1.5187442
1.5186659
1.5186564
1.5187336
1.517932
1.5179326
1.518139
1.5181333
1.518163
1.518155
1.5179611
1.5179628
1.5191967
1.5191498
1.5191541
1.5191945
1.5179545
1.5179242
1.5179333
1.5179335
1.51814
1.5181343
1.5181443
1.518133
1.5179365
1.5179364
1.5191974
1.5191508
1.5191519
1.519195
1.5179288
1.5179248
1.5181434
1.5181391
1.5183076
1.5183022
1.5183024
1.5184467
1.5184439
1.5183042
1.5181667
1.5181607
1.5183173
1.5183268
1.5183232
1.5183177
1.5184612
1.5184536
1.5183048
1.5181453
1.518309
1.5181409
1.5183057
1.5184466
1.5184466
1.5183053
1.5183005
1.5181491
1.5183135
1.518139
1.51831
1.5184513
1.5183007
1.5184399
1.5192024
1.5191739
1.5191759
1.519202
1.5191821
1.5191712
1.5192025
1.5192054
1.5185131
1.5184087
1.5185127
1.5184099
1.5185014
1.5186009
1.518601
1.5185035
1.5184089
1.5185076
1.5184159
1.5185167
1.5185051
1.5186015
1.5184982
1.518592
1.5184423
1.5182961
1.5184194
1.5183221
1.518407
1.5184339
1.5185235
1.5185448
1.5185014
1.5183956
1.5185066
1.5183924
1.5186005
1.5184952
1.5184925
1.5185941
1.5186137
1.5185107
1.5185949
1.5185345
1.5185792
1.5185999
1.5186741
1.5186897
1.5185831
1.5186559
1.5185879
1.5186629
1.5187327
1.5186471
1.5186417
1.5187251
1.5186582
1.5185881
1.5186587
1.5185894
1.5187251
1.518643
1.5186434
1.5187237
1.5185805
1.5186474
1.5185885
1.5186569
1.5187209
1.5186409
1.5186328
1.5187113
1.5192573
1.5192472
1.5192734
1.5192714
1.5192682
1.5192813
1.5193061
1.5192891
1.519231
1.5192461
1.5192777
1.5192616
1.5192413
1.519212
1.5192164
1.5192391
1.5192496
1.5192318
1.5192666
1.5192553
1.5192378
1.5192376
1.5192563
1.5192599
1.5192306
1.519203
1.5192021
1.5192292
1.5192273
1.5191975
1.5192127
1.5192362
1.5193348
1.5193152
1.5193352
1.5193506
1.5192931
1.5192894
1.5193057
1.5193098
1.5192706
1.5192492
1.5192563
1.519279
1.519297
1.5192772
1.5193047
1.5193195
1.5192238
1.5191851
1.5192019
1.5192375
1.519238
1.5192152
1.5192281
1.5192509
1.5192638
1.5192205
1.5192412
1.5192775
1.519275
1.5192487
1.5192681
1.5192909
1.519471
1.5194528
1.5194767
1.5194934
1.51804
1.5180407
1.518235
1.518229
1.5180337
1.5180173
1.5180179
1.5182058
1.5182018
1.5182225
1.5182123
1.5180288
1.5180292
1.5180224
1.5180108
1.5183606
1.5182111
1.5183624
1.5182087
1.5183598
1.5183618
1.5184906
1.5184926
1.5183704
1.5182273
1.5183818
1.5182187
1.5187672
1.5187094
1.5187696
1.5187087
1.5187422
1.5186593
1.5187298
1.5186764
1.518714
1.5187274
1.518797
1.5188059
1.5187728
1.5187171
1.5187801
1.5187111
1.5198236
1.5198273
1.5198272
1.5198242
1.5199001
1.5198545
1.5198556
1.5198974
1.5199105
1.5198631
1.5194577
1.5194612
1.5194213
1.5194226
1.5194708
1.5194849
1.5194433
1.5194388
1.5193544
1.5193488
1.51936
1.5193634
1.5193665
1.5193706
1.5193846
1.519377
1.5193365
1.5193038
1.5192927
1.519321
1.5193545
1.5193325
1.5193241
1.5193421
1.5193135
1.5193057
1.5193242
1.5193288
1.519302
1.5192733
1.5192825
1.5193074
1.5192893
1.519256
1.5192607
1.519287
1.519305
1.5192863
1.51929
1.5193049
1.5192931
1.5192787
1.5192999
1.5193111
1.519284
1.5192525
1.5192693
1.5192961
1.5194363
1.5194335
1.5193892
1.5193969
1.5194378
1.5194366
1.5193944
1.5194
1.5193302
1.5193184
1.5193292
1.5193387
1.5193327
1.519327
1.5193358
1.5193381
1.5199837
1.5199649
1.5199528
1.5199657
1.5199766
1.519542
1.5195347
1.5194814
1.5194906
1.5195205
1.519514
1.5194575
1.5194656
1.5194211
1.5194072
1.5194143
1.5194259
1.5193926
1.5193851
1.5193895
1.5193935
1.519342
1.5193471
1.5193596
1.5193577
1.5193824
1.5193653
1.5193979
1.5193838
1.5193139
1.5193386
1.51934
1.5193175
1.5193381
1.5193666
1.5193815
1.5193583
1.5195108
1.5194843
1.5194974
1.5195205
1.5194811
1.5194653
1.5195057
1.5195177
1.5195174
1.519534
1.5172255
1.5173866
1.519254
1.5192418
1.5192402
1.5192414
1.5192465
1.5192345
1.5192339
1.5192311
1.5192618
1.5192472
1.5192331
1.5192292
1.5193596
1.519344
1.5193315
1.5193256
1.5193385
1.5193291
1.5193302
1.5193219
1.5193232
1.5193089
1.5192933
1.5192782
1.5180625
1.516538
1.51661
1.5186656
1.5167918
1.5171984
1.5221893
1.5150385
1.5150156
1.5150424
1.5149351
1.5149615
1.5155193
1.5152998
1.5154337
1.5151707
1.5154433
1.5169672
1.5151952
1.5151687
1.5151311
1.5151757
1.515173
1.5152253
1.5155579
1.5154074
1.5153837
1.5154434
1.5156346
1.5149592
1.5149559
1.5149615
1.5149676
1.5150166
1.5150252
1.5149942
1.5149791
1.5149847
1.5150057
1.5150422
1.515063
1.515085
1.5150647
1.5150891
1.5150673
1.5150833
1.5150916
1.5151153
1.5151021
1.5151063
1.5150946
1.5150992
1.5151118
1.5151114
1.5151272
1.5151421
1.5151227
1.5165376
1.5155645
1.5155502
1.5165066
1.5165207
1.515569
1.5155727
1.5165455
1.5150725
1.5150781
1.5150837
1.5150912
1.5150972
1.5150838
1.5150845
1.5150979
1.5165514
1.5155431
1.5155415
1.516511
1.5155351
1.5155562
1.5165021
1.5165069
1.5150405
1.5150432
1.5150667
1.515062
1.5150731
1.5150504
1.5150514
1.5150737
1.5151904
1.5151819
1.5152038
1.5151892
1.5152337
1.515252
1.5152423
1.5152736
1.5154259
1.5154319
1.515466
1.5154902
1.5152
1.5151936
1.5152106
1.5152214
1.5152845
1.5152462
1.5153022
1.5152563
1.5156695
1.516564
1.5166327
1.5157143
1.5165996
1.5156417
1.5156418
1.516566
1.5150075
1.5150578
1.5150261
1.5149971
1.514934
1.514948
1.5149452
1.5149523
1.5148784
1.5148826
1.5150216
1.5150541
1.5150323
1.5150961
1.5150953
1.5149536
1.5149607
1.5149731
1.5149606
1.5150218
1.5150373
1.5149037
1.5149053
1.5149217
1.5149246
1.5149872
1.5149898
1.5149108
1.5149062
1.5149232
1.5149296
1.5149912
1.5149866
1.5151248
1.5151173
1.5151347
1.5151494
1.515068
1.5150662
1.5150902
1.5150938
1.5150511
1.5150474
1.515069
1.5150768
1.5151055
1.5151004
1.5151186
1.5151128
1.5150887
1.5150788
1.5151025
1.5150905
1.5165929
1.5155855
1.5155722
1.5165595
1.5155399
1.5155687
1.5165637
1.5165654
1.5150143
1.515016
1.5150416
1.5150389
1.5150186
1.5150199
1.5150444
1.5150434
1.5150201
1.5150199
1.5150457
1.5150465
1.5150164
1.5150157
1.5150397
1.5150421
1.5150594
1.5150575
1.5150732
1.5150722
1.5150542
1.5150509
1.5150699
1.5150653
1.5165803
1.5155443
1.51554
1.5165466
1.5155174
1.5155371
1.5165266
1.5165283
1.5150507
1.5150536
1.5150644
1.5150684
1.5150557
1.5150566
1.5150709
1.5150712
1.5165526
1.5155354
1.5155374
1.5165368
1.5155215
1.5155464
1.516548
1.5165435
1.5173491
1.5149138
1.517387
1.5174249
1.517429
1.5173594
1.5173531
1.5173975
1.5173572
1.5173107
1.5173447
1.5173689
1.5173926
1.5173373
1.517403
1.5174283
1.5174492
1.5174065
1.5174069
1.5174401
1.5174105
1.5173731
1.5173848
1.5174028
1.5174253
1.5173944
1.5189618
1.5188525
1.5189739
1.5188378
1.5189753
1.5191226
1.5191129
1.5189641
1.5189338
1.5188241
1.5189474
1.5188085
1.5189501
1.5190981
1.5189387
1.5190864
1.5192232
1.5191259
1.5192316
1.5191163
1.5193773
1.5192357
1.5192272
1.5193655
1.5190907
1.5191966
1.5191015
1.5192069
1.5193513
1.5192107
1.5192012
1.5193421
1.5188399
1.518956
1.5189443
1.5188252
1.5187812
1.5188083
1.5189255
1.5189017
1.5189562
1.5190977
1.5190885
1.5189458
1.5189048
1.5189277
1.5190695
1.519048
1.518845
1.5189626
1.5189589
1.5188395
1.5188507
1.5189688
1.5189539
1.5188336
1.5191044
1.5189621
1.5191064
1.5189604
1.5190991
1.5189699
1.519112
1.518957
1.5191931
1.5190999
1.5192011
1.519091
1.5193411
1.5192039
1.5191961
1.5193299
1.5190504
1.5191528
1.519072
1.5191722
1.5193119
1.5191752
1.5191555
1.5192933
1.5191084
1.519212
1.5192107
1.5191073
1.5191143
1.5192154
1.5191021
1.519204
1.5193551
1.5193499
1.5192149
1.5192144
1.5192076
1.5192184
1.5193515
1.5193415
1.5186842
1.5185785
1.5186989
1.5185643
1.5185532
1.5186723
1.518653
1.5185316
1.5186871
1.5188523
1.5186713
1.5188374
1.5188235
1.5188061
1.5186585
1.5186425
1.5184769
1.5183641
1.5184893
1.5183525
1.5183465
1.5184698
1.5184421
1.5183187
1.5184559
1.5186042
1.5184438
1.5185912
1.5185806
1.5185564
1.5184349
1.51841
1.5183423
1.5183075
1.51843
1.5184638
1.5183641
1.5184886
1.5184751
1.5183522
1.5184431
1.5184564
1.518602
1.5185877
1.5185738
1.5184309
1.518398
1.5185423
1.518367
1.518491
1.5184851
1.5183627
1.5183834
1.5185065
1.5184781
1.5183543
1.5184576
1.5186043
1.518598
1.518453
1.5184723
1.5186164
1.5185911
1.5184465
1.5185793
1.5186987
1.5186914
1.5185735
1.5185898
1.5187064
1.5186855
1.5185671
1.5186876
1.5188475
1.5188402
1.5186797
1.5186927
1.5188518
1.5188329
1.5186743
1.5185777
1.5186958
1.5186799
1.5185626
1.5185177
1.5185489
1.5186646
1.5186356
1.518685
1.5188425
1.5188264
1.5186677
1.5186247
1.5186526
1.5188091
1.5187814
1.5166969
1.5166972
1.5171407
1.5171256
1.5171562
1.5171288
1.51672
1.5167192
1.5193996
1.5194312
1.5195139
1.5194728
1.5167215
1.5166985
1.5167277
1.5167271
1.5171665
1.5171516
1.5171668
1.5171391
1.5167184
1.5167175
1.5194532
1.5195321
1.5195181
1.5194415
1.5167197
1.5167287
1.5171647
1.51715
1.5174998
1.5175163
1.5174965
1.5177978
1.517789
1.5174863
1.5174874
1.5171646
1.5175227
1.5171375
1.5175033
1.5178086
1.5174746
1.5177762
1.5171379
1.5171233
1.5174941
1.5174761
1.5174632
1.5177807
1.5177684
1.5174749
1.5171523
1.5171247
1.5174633
1.5175001
1.5174799
1.517449
1.5177782
1.5177433
1.5194976
1.5195101
1.5195648
1.5195501
1.5195432
1.5194885
1.5194667
1.5195148
1.5210546
1.5172186
1.5171888
1.5167612
1.5167591
1.5195329
1.5196158
1.5196096
1.5196902
1.5167608
1.5167155
1.5167153
1.5171534
1.5171376
1.5171665
1.5171401
1.5167316
1.5167317
1.519457
1.5195351
1.5195045
1.5194351
1.5167178
1.5167341
1.5171512
1.517503
1.5174855
1.5171355
1.5171625
1.5175102
1.5174764
1.5171371
1.5174839
1.5177868
1.5177758
1.5174721
1.5174627
1.5174895
1.5177881
1.5177571
1.5195034
1.5195156
1.5195502
1.5195741
1.5195744
1.5196507
1.5197107
1.5196353
1.5177551
1.517971
1.5179621
1.5177478
1.5177222
1.5177525
1.517963
1.5179297
1.5181359
1.5179399
1.5181458
1.5179332
1.5179007
1.5180979
1.5179319
1.5181328
1.5179788
1.5177713
1.5179838
1.5177674
1.5179512
1.5181549
1.5181501
1.5179488
1.5179687
1.517783
1.5179986
1.5177558
1.5179669
1.5181716
1.5179397
1.5181405
1.5182637
1.5181226
1.5182693
1.5181193
1.5184005
1.5182336
1.5182295
1.5183953
1.5181099
1.5182552
1.5181399
1.5182867
1.5184171
1.5182511
1.518221
1.5183865
1.5181147
1.5182626
1.5182511
1.5181057
1.5183963
1.5182282
1.5182176
1.5183842
1.5181017
1.5180672
1.5182456
1.5182099
1.5183753
1.5181758
1.51834
1.518211
1.5177361
1.5177616
1.5179724
1.5179437
1.5179139
1.5181412
1.5181115
1.5179396
1.5181081
1.51808
1.5182229
1.5182529
1.5182284
1.5183975
1.5182174
1.5183858
1.5183814
1.5182159
1.5181876
1.5183521
1.5213192
1.5213066
1.5211969
1.5212056
1.5196549
1.5196466
1.5196811
1.5196874
1.5196566
1.5196692
1.5197089
1.5196911
1.5195655
1.5195789
1.5196328
1.5196167
1.5195561
1.5196121
1.5195913
1.5195527
1.5198134
1.5197729
1.5197087
1.5197486
1.519685
1.5196916
1.5197258
1.519712
1.5196273
1.5196968
1.5197565
1.5196856
1.5196415
1.5195938
1.5195852
1.5196266
1.5222171
1.5220872
1.5213663
1.5214732
1.521455
1.5213493
1.5215675
1.5216494
1.5216055
1.521513
1.5181727
1.5180372
1.5181791
1.5180318
1.5181464
1.5183108
1.5183031
1.5181406
1.5180328
1.5181742
1.5180509
1.5181945
1.5181598
1.5183241
1.5181424
1.5183043
1.5177555
1.5179648
1.5179539
1.5177473
1.5177101
1.5177317
1.5179373
1.5179119
1.5181221
1.5179343
1.518134
1.517926
1.5178855
1.518077
1.5179067
1.518103
1.5178925
1.5176936
1.5178976
1.5176883
1.5178688
1.5180658
1.5180602
1.5178654
1.5178921
1.517704
1.5179127
1.5176863
1.5178823
1.5180814
1.5178661
1.5180607
1.5181036
1.5182465
1.5182329
1.5180927
1.5180718
1.5182125
1.5180487
1.5181872
1.518375
1.5183605
1.5182124
1.5181997
1.5181553
1.5181776
1.5183386
1.518314
1.5166841
1.516683
1.517102
1.517087
1.5171055
1.5170833
1.5166771
1.5166785
1.5194195
1.5193533
1.519351
1.5194194
1.5166796
1.5166859
1.5171579
1.5171419
1.5175024
1.5174828
1.5174708
1.5177801
1.517766
1.5174834
1.517144
1.5171221
1.5174518
1.5174833
1.5174643
1.5174408
1.5177562
1.5177276
1.5174247
1.5171032
1.517441
1.5170879
1.5174255
1.5177152
1.5177056
1.5174145
1.5174218
1.5171041
1.5174498
1.5170842
1.5174322
1.5177273
1.517412
1.5177028
1.5167293
1.516729
1.5171597
1.5171425
1.5171462
1.5171217
1.5167221
1.5167235
1.5193521
1.5194085
1.519481
1.5194212
1.516731
1.516724
1.5194174
1.51947
1.5195221
1.5194645
1.5194142
1.5194259
1.5194696
1.5194621
1.5168422
1.5168499
1.5172608
1.5172575
1.5174852
1.5174939
1.5171104
1.5171299
1.5194499
1.5193766
1.5193749
1.5194419
1.5171143
1.516843
1.516768
1.5167677
1.5171889
1.5171724
1.5171876
1.5171653
1.5167682
1.5167703
1.5194505
1.5193791
1.5193537
1.5194226
1.5167701
1.5167682
1.5171891
1.5171739
1.5175085
1.5175269
1.5175113
1.5174997
1.5178002
1.517788
1.5174962
1.5171855
1.517523
1.5171668
1.5177955
1.5175059
1.5174878
1.5177724
1.5194881
1.5194408
1.5194174
1.5194613
1.5194231
1.5194234
1.5194771
1.5194674
1.5175971
1.5172597
1.5175965
1.5172629
1.5178699
1.5175821
1.5175926
1.5178776
1.5178033
1.5174847
1.5177901
1.5175055
1.5180411
1.5177801
1.5178059
1.5180584
1.5180655
1.5178495
1.5180524
1.5178658
1.5180261
1.5182178
1.5182321
1.5180455
1.5180534
1.5182295
1.5180254
1.5182087
1.5181869
1.5183591
1.5182166
1.51838
1.5183438
1.5181911
1.5183292
1.5182105
1.5184544
1.5182992
1.5183186
1.5184688
1.5183645
1.5184812
1.5183365
1.5184602
1.5185738
1.5184345
1.5184622
1.5185933
1.5179732
1.5177779
1.5179814
1.5177714
1.5179528
1.5179474
1.5181469
1.5181378
1.5179579
1.5177723
1.5179769
1.5177567
1.5181421
1.5179477
1.5179337
1.5181232
1.5182471
1.5181181
1.5182577
1.5181105
1.5183833
1.5182254
1.5182158
1.5183715
1.5180972
1.5182344
1.5181122
1.518252
1.5183762
1.5182182
1.5182045
1.5183602
1.5196008
1.5196346
1.5196715
1.5196253
1.5195956
1.5196132
1.51964
1.5196225
1.5195123
1.5195509
1.5195345
1.519498
1.5194969
1.5195414
1.5195929
1.5195395
1.5195916
1.5196195
1.5196498
1.5196175
1.5195619
1.5195233
1.5194952
1.5195349
1.5195352
1.5194848
1.519482
1.5195258
1.5196075
1.5195806
1.5195653
1.5195915
1.5187997
1.5189126
1.5189005
1.5187851
1.5187484
1.5187612
1.5188778
1.5188654
1.5190395
1.5189118
1.5190491
1.5189013
1.5188695
1.5190081
1.5188793
1.5190191
1.5188634
1.5187554
1.5188709
1.5187457
1.5188707
1.5190134
1.519008
1.5188648
1.5188666
1.5187566
1.518874
1.5187487
1.5188745
1.519016
1.5188698
1.5190094
1.51905
1.5191481
1.5191402
1.5190411
1.5192809
1.5191422
1.5191495
1.5192695
1.5190208
1.5190114
1.5191201
1.5191107
1.5192536
1.519114
1.5192454
1.5191222
1.5191136
1.5190154
1.5191181
1.5190106
1.51926
1.5191207
1.5191167
1.5192526
1.5190125
1.519113
1.5190176
1.5191187
1.5192543
1.5191209
1.5191165
1.5192489
1.5191311
1.5190397
1.5191361
1.5190344
1.5191374
1.5192689
1.5192611
1.5191334
1.5190365
1.5191312
1.5190372
1.5191336
1.5191351
1.5192612
1.5191346
1.5192592
1.5188632
1.5189684
1.5189767
1.5188738
1.5189505
1.5189431
1.5190376
1.5190395
1.519102
1.518968
1.5190947
1.5189791
1.5190404
1.5191477
1.5190383
1.5191515
1.518897
1.5187971
1.5189061
1.5187856
1.5189045
1.5190392
1.5190326
1.5188976
1.5188971
1.518787
1.5189003
1.5187847
1.5189007
1.519036
1.5189009
1.5190331
1.5190954
1.5191858
1.5191917
1.5191044
1.5191518
1.519231
1.519147
1.5192229
1.5186495
1.5185525
1.5186638
1.5185386
1.5186529
1.5188011
1.5187872
1.5186379
1.5186448
1.5185396
1.5186511
1.5185336
1.5186368
1.5187886
1.5186351
1.5187833
1.5183531
1.5184696
1.5184566
1.518342
1.5183443
1.5184614
1.5184481
1.5183322
1.5184387
1.5185767
1.5185624
1.5184262
1.5184286
1.5185664
1.5185555
1.5184196
1.5184268
1.5185419
1.5185551
1.518445
1.5185749
1.5185501
1.518653
1.5186712
1.5185137
1.5186477
1.5186588
1.5185304
1.5186518
1.5186284
1.5187481
1.5187639
1.5186263
1.5187344
1.5187437
1.5186403
1.5187494
1.5187294
1.5188255
1.5188386
1.518866
1.5188732
1.5187249
1.5187357
1.5188329
1.5188172
1.518944
1.5189507
1.5185991
1.518492
1.5186089
1.5184819
1.5185995
1.5187568
1.5187463
1.5185885
1.518485
1.5186012
1.5184971
1.5186129
1.5185996
1.5187576
1.5185911
1.5187473
1.5183436
1.5184636
1.5184481
1.5183296
1.5183061
1.5184248
1.5184028
1.5182845
1.518556
1.5184315
1.5185726
1.5184163
1.5185124
1.5183915
1.5185322
1.5183729
1.5183932
1.5182809
1.5184022
1.5182732
1.5183714
1.5185151
1.5185053
1.5183625
1.5183961
1.5182922
1.5184138
1.5182751
1.5183808
1.5185234
1.5183664
1.518508
1.5185476
1.5186614
1.5186441
1.518531
1.518506
1.5186197
1.5184899
1.5186043
1.5188023
1.518786
1.5186492
1.5186312
1.5185941
1.5186059
1.5187618
1.5187473
1.5209929
1.5210568
1.521026
1.5209635
1.5209838
1.5209748
1.5209181
1.5209199
1.5209346
1.5208793
1.520048
1.5200471
1.5200144
1.5200133
1.5202153
1.5203046
1.5202828
1.5201861
1.5201857
1.5202708
1.5202596
1.5201612
1.5199908
1.5200068
1.5200097
1.5199884
1.5198884
1.5198376
1.5198271
1.5197791
1.519953
1.5199233
1.5198979
1.5198772
1.5198625
1.519874
1.5198966
1.5198828
1.5197674
1.5197733
1.5198174
1.5198042
1.5197963
1.5197453
1.5197298
1.5197766
1.51987
1.5198453
1.5198281
1.5198463
1.5198171
1.5198096
1.5198395
1.5198422
1.5197704
1.5197193
1.5197315
1.5197728
1.5199769
1.519974
1.5199595
1.5199562
1.5201424
1.5202234
1.5202247
1.5201305
1.5201963
1.5202103
1.5201065
1.5201024
1.5199403
1.519935
1.5199384
1.5199396
1.5208486
1.5207769
1.5207694
1.5207969
1.5209092
1.5209046
1.5208447
1.5208468
1.5207969
1.5207817
1.5201498
1.5201704
1.5200457
1.5200879
1.5201546
1.5201496
1.5200488
1.5200535
1.5198904
1.5198881
1.5198929
1.5198866
1.519927
1.519929
1.519883
1.5198834
1.5197646
1.5197725
1.5198007
1.5197855
1.5196732
1.5196902
1.5197299
1.5197108
1.5197576
1.5197086
1.5196786
1.5197191
1.5198269
1.519804
1.5197636
1.5197887
1.5196834
1.5197231
1.5197484
1.519711
1.5197486
1.5197746
1.5198029
1.5197682
1.5197374
1.5196962
1.519662
1.5197034
1.5196179
1.5196448
1.519689
1.5196613
1.520015
1.5200912
1.5199878
1.5199249
1.5201348
1.5201454
1.5200501
1.5200308
1.5198939
1.5198939
1.519866
1.5198714
1.5197791
1.5198346
1.5198355
1.5197854
1.51498
1.514981
1.5178416
1.5178419
1.5178505
1.5178518
1.5178735
1.5178791
1.5178636
1.5178683
1.5178636
1.5178604
1.5178902
1.517892
1.5178678
1.5178574
1.5178185
1.5178306
1.5178411
1.5178451
1.5178065
1.5178043
1.5176258
1.5176599
1.5176313
1.5176705
1.5177966
1.5178076
1.5177871
1.5177963
1.5178148
1.5176738
1.5176738
1.5178166
1.5178014
1.5177838
1.5177432
1.5177645
1.517574
1.5176261
1.5176857
1.5176486
1.5176346
1.5176799
1.5176885
1.517637
1.5176385
1.5176961
1.5176398
1.5177027
1.5178233
1.5178026
1.5178072
1.5178158
1.5178138
1.5178105
1.5178283
1.5178322
1.5179093
1.5178773
1.5178649
1.5178958
1.5178347
1.5176998
1.5176828
1.5178207
1.5178659
1.517857
1.517862
1.5178593
1.517869
1.5178656
1.5178701
1.5178732
1.5178926
1.5178796
1.5178841
1.5178863
1.5178903
1.5178873
1.5178962
1.517899
1.5179263
1.5179258
1.5179271
1.517927
1.5179647
1.5179527
1.5179526
1.517965
1.5179216
1.5179234
1.5179197
1.5179249
1.5179635
1.5179609
1.5179505
1.5179473
1.5179295
1.5179274
1.5179267
1.5179301
1.517924
1.5179201
1.5179222
1.5179265
1.5179282
1.517928
1.5179273
1.5179288
1.5179247
1.5179209
1.5179252
1.5179211
1.5179082
1.5179144
1.5179075
1.517916
1.5178894
1.5178989
1.5178993
1.51789
1.5179151
1.517908
1.5179153
1.5179084
1.5178903
1.5178999
1.5178993
1.5178902
1.5178979
1.5178969
1.5179066
1.5179064
1.517934
1.5179413
1.5179246
1.5179305
1.5179179
1.5179143
1.5179464
1.517949
1.5179323
1.5179204
1.5178843
1.5178981
1.5178937
1.5179001
1.5178639
1.5178587
1.5178999
1.5178992
1.5179089
1.5179087
1.5179102
1.51791
1.5179002
1.5178998
1.5179172
1.5179122
1.5179216
1.5179238
1.5178975
1.5178989
1.5178616
1.5178607
1.5179012
1.5179067
1.5178694
1.5178652
1.5179131
1.5179135
1.517918
1.5179189
1.5179226
1.5179248
1.5179254
1.5179215
1.5179402
1.517949
1.5179549
1.517945
1.5179484
1.5179592
1.5179511
1.5179625
1.5179222
1.5179155
1.5179204
1.5179159
1.5179237
1.5179262
1.517929
1.5179258
1.5179224
1.5179165
1.5179211
1.5179167
1.5179243
1.5179267
1.5179255
1.5179278
1.5179142
1.5179252
1.5179386
1.5179263
1.5179626
1.5179286
1.5179177
1.5179508
1.5178749
1.51787
1.5178697
1.5178746
1.5178674
1.5178638
1.5178691
1.5178727
1.5179
1.5178997
1.5178911
1.5178905
1.517888
1.5178842
1.5178975
1.5178941
1.5177104
1.51764
1.5176391
1.5177074
1.5176363
1.5177104
1.5176326