/*--------------------------------*- C++ -*----------------------------------*\
  =========                 |
  \\      /  F ield         | OpenFOAM: The Open Source CFD Toolbox
   \\    /   O peration     | Website:  https://openfoam.org
    \\  /    A nd           | Version:  7
     \\/     M anipulation  |
\*---------------------------------------------------------------------------*/
FoamFile
{
    version     2.0;
    format      ascii;
    class       volScalarField;
    location    "6000";
    object      omega;
}
// * * * * * * * * * * * * * * * * * * * * * * * * * * * * * * * * * * * * * //

dimensions      [0 0 -1 0 0 0 0];

internalField   nonuniform List<scalar> 
34251
(
2146.6216
4671.5399
3975.5761
748.91844
3936.3895
731.91391
662.53344
817.92664
805.08531
1284.4775
9625.3898
1280.7426
9647.8708
7375.7645
7567.21
1747.8557
1760.8607
7426.1436
7462.8491
1719.8997
1729.9212
721.10466
664.54764
669.97985
729.48393
1377.4517
1520.8972
1366.6033
1523.5717
554.7181
558.77678
484.45551
487.88854
2023.0248
2023.7801
2008.0578
2011.0903
533.08262
533.70027
2033.6033
651.29468
656.97624
2045.793
4720.4618
4695.4035
19250.901
19151.807
653.14997
652.23546
2041.6717
2043.3131
4718.5847
4719.9907
19166.825
19242.657
4141.7164
12931.872
4148.0685
13134.627
4248.2254
13087.01
4247.2332
4122.4066
13182.827
4246.9491
12955.106
12913.325
4140.6985
4232.1324
1837.8781
1828.5383
1849.1738
1832.1332
1369.1135
1390.1244
1522.6434
1541.292
556.71737
1541.4631
1384.7383
1394.3143
1546.3122
560.20254
1845.328
1845.1809
1851.4265
1853.2277
485.43011
487.90361
3030.5135
3004.0665
3310.1655
1145.2684
3361.0574
4012.4307
3911.6856
4055.9594
3061.0975
2987.8561
3383.0706
3290.3976
1133.826
3978.2266
3916.9141
4065.7739
4148.0597
1017.8578
1003.3427
1019.2791
1159.6327
3166.3689
3517.7893
4629.1679
415.72161
724.2783
854.89163
841.01932
717.88944
417.00424
713.66258
853.47044
351.95254
351.58857
4836.9655
4950.4939
4924.3755
4952.8006
4809.3506
4905.6831
526.57143
526.26393
2183.4016
671.37813
676.17245
2195.1137
3637.5016
3626.7024
6903.9312
6857.0274
3629.7155
3594.5365
6815.0481
6869.4935
13271.987
33275.902
33198.501
13216.037
13357.9
13280.891
33198.388
675.23119
672.91896
2197.78
2200.3363
3646.0801
3631.5184
6880.3907
6901.8985
6936.5549
3644.3617
3645.5828
6862.0776
13241.624
13293.213
33183.915
13222.93
13387.889
33177.255
33061.044
21276.177
21601.455
7937.6252
7870.2851
21521.488
21818.88
8037.6911
8074.0112
7922.9834
21634.882
21546.976
8061.5807
22010.894
21735.964
8040.683
8112.0903
21454.209
21552.981
7870.9429
7887.6741
21352.006
21126.337
7842.8246
7981.9511
318.50424
5198.9722
4687.2872
5135.0304
5027.7385
4637.4207
4538.7282
4733.2645
4836.9305
4771.8595
4665.9158
4560.2798
4669.0016
3070.446
3009.9785
3310.6651
3387.318
1134.1542
3053.6262
3096.0305
3433.9257
1153.1949
4015.9017
3930.556
4078.8382
4177.9553
4068.4191
4238.9089
1002.7576
1023.562
4263.1548
4018.4391
4102.753
4189.2709
3117.1079
3394.6198
3455.2484
3060.1688
1145.7482
3077.006
3062.9121
3368.9973
1158.4354
3377.2962
3981.6568
4130.6625
3998.6802
4142.7793
1012.3899
1027.193
5143.1829
5205.4755
4658.1536
4688.8545
4573.0547
5021.2662
5078.1173
4538.6756
4613.0446
4732.2997
4693.9206
4585.0826
4741.0097
4774.5127
4861.9608
4683.1547
416.39989
729.66681
860.85979
841.31144
719.86264
416.98396
717.83118
850.31295
859.76196
730.88887
352.78246
352.10061
7057.2776
7235.5204
2603.1958
6091.4337
5962.1816
6837.1962
7106.5656
2590.4783
5966.9114
5768.3081
7965.7024
8086.4061
8261.3754
8391.2675
2440.2631
2451.9815
8233.3817
8337.6704
8411.679
8553.4823
9248.7058
9375.578
9042.3064
9202.7098
9142.7927
8942.1639
9243.3548
9063.3705
9657.5154
9226.6933
9767.0569
9350.953
7099.2025
7211.2662
2629.9002
6081.7471
5996.6336
7022.7466
7112.3638
2561.3398
5979.5736
5937.9359
8287.2592
8384.0054
8385.7236
8522.3273
8191.2745
8291.2548
8275.2264
8401.9709
2415.0537
2471.7045
9190.3393
8988.9464
9401.8538
9225.1473
8895.0701
8705.9353
9214.5673
9022.9552
9373.7808
8972.1727
9702.3882
9288.4545
9706.9847
9286.4065
9933.4929
9529.034
1940.2551
1981.8983
2128.6261
2109.6085
1958.9752
1914.7852
2076.432
2131.6821
1952.4134
1990.4323
2176.3986
2145.9574
2706.2206
2526.8467
2677.6369
2490.0026
1866.4245
7470.1632
6327.9099
7504.523
7533.1575
6353.5619
6378.0228
8707.1106
8839.9635
8727.9292
9937.5845
9572.3952
9134.8294
9903.2227
619.59856
626.21261
502.66804
498.15506
1103.216
1136.7348
1272.3059
1312.9988
1711.2046
1533.1021
1486.005
1672.7432
1643.6472
1465.7857
1489.1678
1683.1648
1092.5339
1080.6553
1270.1073
1255.6426
495.78688
619.29458
492.91486
1066.3793
1087.0973
1249.0514
1280.8692
1501.8314
1466.3685
1710.1534
1675.8128
1423.0401
1604.9688
426.32077
419.24051
8853.2144
8943.6929
9038.3591
9086.6111
8890.7329
9039.1877
9046.8257
9112.2278
8848.7994
8860.995
8809.4112
8945.3814
509.62881
509.41998
2264.1103
4181.6424
4125.4166
654.15145
659.67013
2275.5919
4179.9394
4171.8404
7577.2089
7507.5145
7475.2197
7537.7618
12623.463
12644.137
18559.226
18434.07
28913.697
28296.613
48686.262
48584.762
28472.913
28817.691
48254.777
48781.006
18267.666
12650.918
12448.051
18553.437
12580.077
12791.099
18434.887
18698.66
12599.38
12644.47
18588.638
28757.09
28786.823
48652.154
48330.262
659.74854
656.55822
2283.0948
4173.6962
4203.3833
2282.9703
4187.2908
4199.846
7555.0279
7581.8328
7613.8112
7525.7207
12705.767
12512.356
18563.075
18579.719
18450.744
12682.561
12680.124
28889.458
28323.873
48682.347
48411.675
18535.686
18349.627
12600.533
12606.66
18467.433
18690.806
12814.013
12659.991
28650.799
28802.159
48240.236
48587.749
28860.896
28204.383
48423.654
48146.566
313.41783
38532.465
37377.671
11506.282
11646.677
38133.451
39215.922
11738.285
11737.468
38835.1
37679.399
11695.381
11821.11
38538.596
39306.587
11852.855
11882.789
38976.863
38303.583
11629.724
11751.732
37826.684
38767.584
11759.468
11787.061
39670.989
39096.768
11851.502
11955.624
38228.421
39156.306
11877.601
11890.829
38648.872
37976.133
11586.179
11667.718
38273.036
38854.28
11620.924
11676.936
38343.469
37979.481
11517.494
11610.676
37165.719
37715.761
11559.844
11642.678
319.04906
10232.856
9390.1263
10309.768
9471.284
9753.1697
8713.6363
9819.1999
8789.7993
9907.0021
10092.403
9110.8146
9278.0483
9954.0644
9936.2198
9149.0704
9148.8996
9468.2369
8478.8107
9624.4158
8624.5319
9514.4655
9504.2168
8514.3347
8524.964
10463.973
10530.524
9736.1322
9826.6108
10306.68
10351.792
9830.5286
9907.634
10148.983
9959.6292
9504.6084
9701.8476
9990.2162
9957.3255
9537.9967
9524.7141
10155.987
10128.472
9459.3544
9453.9198
10115.387
10308.522
9420.2803
9614.963
7079.723
7230.2236
2635.7816
6107.2209
5984.7429
7094.0162
7091.5495
2580.8138
5979.3191
6019.0888
8259.1081
8357.9311
8240.6021
8358.246
8256.3961
8351.5027
8402.9239
8525.9799
2430.5588
2478.2663
7204.1709
2632.4914
5929.258
6060.3911
7338.5114
7374.3855
2652.6848
6204.2828
6225.8386
8553.7864
8559.118
8653.662
8688.9699
2482.8034
2489.613
9208.4299
9377.5214
9005.1687
9194.0527
9214.0338
9018.1622
9191.8872
9012.7025
9743.1089
9324.5319
9714.0652
9310.5826
9726.8527
9300.5999
9907.8652
9495.1053
9543.2257
9362.4464
10085.711
9627.5159
9683.0024
1008.2296
1962.3919
1922.395
2088.071
2134.5361
2003.4464
1960.7611
2157.4931
2138.9796
843.62894
722.94884
10160.233
9713.7042
10140.424
9716.6098
9201.9487
9497.2304
9013.7919
9317.8002
9630.801
9429.6152
9605.6072
9425.165
9739.8197
10033.856
9326.4301
9621.2114
7425.8375
7429.7588
2667.8276
6258.6329
6284.2244
8230.6164
8344.7341
8510.6494
8644.5209
8639.4142
8759.3491
8617.4336
8753.5053
7061.5862
7334.4769
2629.5091
5969.1767
6195.1077
2463.5072
2497.59
7048.6673
7040.542
2662.3863
5951.068
5970.5913
7135.4721
7331.7638
2627.6507
6197.9612
6045.8384
8311.8352
8415.9981
8507.9761
8624.6672
2477.293
2524.1458
8216.2019
8294.2558
8166.1006
8282.5022
9135.2621
8911.6417
9087.6765
8901.7616
9613.854
9169.759
9566.1897
9159.6223
9272.4758
9074.1256
9477.3432
9283.7549
9795.5813
9368.7254
9995.7908
9565.0234
1949.9784
1971.2924
2149.0381
2125.7929
1964.4557
2132.6731
2191.2933
2028.7001
9963.0059
10200.254
9170.4303
9377.6598
10251.717
9405.6128
10272.329
9440.1011
9532.8035
8553.0769
9718.4305
8720.5203
9757.5265
8721.283
9784.2807
8764.947
9524.5976
8521.0556
9628.8045
8619.7411
9673.8416
9634.3789
8878.2764
8870.1139
9967.0199
9158.7534
10108.225
9284.1045
9220.5798
9187.4325
10177.024
9474.8948
10347.025
9635.9583
10026.027
10213.267
9562.9538
9745.8134
9802.721
9757.6408
9327.0247
9317.7386
9910.5568
9867.4713
9209.7105
9203.4835
10503.611
9768.7481
10512.626
9798.6631
9986.9593
10272.229
9538.7462
9818.5717
10374.563
9890.2212
10368.016
9907.1904
10154.657
10422.498
9472.5833
9729.2126
629.93883
622.24526
506.24973
502.03479
1320.4746
1144.4613
1112.3567
1280.228
1719.9637
1539.7227
1494.4818
1683.9809
1646.9958
1462.9582
1490.7876
1683.8002
1251.2819
1088.0473
1101.9012
1276.3353
625.26613
622.52526
500.49614
499.67127
1092.3118
1103.7974
1282.8709
1266.5859
1501.6694
1696.8027
1673.17
1482.4727
1557.1206
1499.4062
1687.8445
1752.4308
1139.1972
1106.4666
1287.6177
1328.113
428.40042
420.6615
20281.478
20298.888
18445.305
18552.49
18564.595
18689.321
20368.154
20366.658
5285.621
5235.1115
5303.6253
5393.3824
19548.029
19498.924
19406.967
19470.85
17659.887
17826.436
18551.888
18694.336
20428.796
20438.894
5244.2879
5086.3244
5137.6534
5311.026
19631.298
18660.495
17918.154
18101.126
16506.476
16309.113
16664.5
16845.334
15338.112
15513.418
17292.096
18830.396
17103.319
18961.676
16070.212
17495.137
17650.211
16254.883
4705.8399
4689.6515
4737.3274
4801.2485
4719.2027
4606.2484
4643.7819
4777.8713
17176.8
18737.784
17065.666
18832.658
16085.569
17472.672
17545.916
16163.73
17378.565
18878.675
17223.861
18979.605
16280.37
17658.357
17765.563
16419.645
16698.936
15689.327
15730.811
16717.588
16707.363
16568.603
15603.715
15769.222
15273.173
16190.035
15233.598
16209.595
16258.079
15366.716
16110.204
15186.635
15423.225
16373.849
15411.627
16382.092
15902.908
14982.425
14986.152
15888.367
15754.578
16572.293
15577.379
16727.315
16082.082
15137.432
16239.088
15324.55
14813.545
15469.057
14806.375
15454.16
14581.867
15348.672
15340.301
14591.075
15813.736
15153.784
15637.186
14958.774
14737.565
15520.926
15703.333
14928.711
20588.121
20594.946
18695.498
18778.513
18388.133
18536.667
20198.441
20216.065
5321.142
5286.2186
5320.0548
5393.7052
19402.462
19805.822
20134.436
20151.962
18298.703
18394.065
18539.038
18697.994
20415.294
20439.691
5264.9297
5223.7479
5240.9444
5308.5938
19625.701
19375.555
18989.543
19055.745
17270.443
17354.231
17727.161
16257.789
16311.568
17681.849
18693.46
18832.783
17236.178
17048.63
17479.471
17627.673
16116.282
16290.562
17005.677
18577.585
16915.251
18660.518
17315.154
15944.028
15991.516
17365.596
17321.14
18831.034
17124.559
18978.11
17541.676
16131.406
17701.509
16318.698
4739.4167
4692.1702
4687.3514
4759.1516
4745.2645
4747.0125
4788.8446
4826.2394
15597.729
16516.867
15535.298
16563.799
16027.747
15096.939
15164.778
16075.22
16833.723
15888.711
16731.722
15754.688
16269.61
15339.798
16377.288
15481.059
14933.514
15708.174
14765.963
15873.08
15190.131
15365.761
14303.556
14489.685
15647.595
16480.674
15466.457
16637.569
14983.441
15938.061
16104.872
15179.242
14284.464
14721.71
14081.004
14919.105
14550.862
14770.915
13834.306
14054.488
15636.715
14963.95
15451.599
14762.666
14516.451
15290.801
15481.55
14716.219
14992.708
15588.478
14918.811
15644.015
14697.275
15466.986
15530.179
14773.957
15973.136
15326.542
15853.281
15184.331
14980.514
15758.13
15878.215
15118.875
3536.3293
3584.5047
3690.4098
3704.9006
3633.8834
3647.7498
3734.8825
3773.1634
4198.2602
4140.4068
4198.0414
4288.4461
4232.3145
4144.5374
4120.3774
4246.323
3604.6051
3622.2095
3750.8786
3750.8758
3564.4179
3571.2017
3706.4951
3691.7364
4231.9606
4137.4425
4140.6996
4242.7871
4286.7912
4205.0015
4184.9075
4293.5412
3661.9224
3680.8592
3834.0767
3824.557
3744.7904
3747.0818
3903.5758
3903.9513
4486.7325
4362.1746
4355.1643
4478.7391
4276.0577
4310.0797
4421.1996
4400.6654
5654.7889
5560.7867
5525.4577
5642.5991
5048.7005
4966.1729
4940.7605
5029.2037
5591.3099
5522.2292
5466.8854
5582.186
4987.1869
4912.4758
4866.6136
4961.7233
3472.7421
3435.5169
3576.0649
3624.8786
21336.807
21338.96
19453.432
19544.831
20513.237
20792.81
20828.725
19037.744
19153.585
19265.84
19428.077
21109.789
21132.002
20297.05
19996.408
17816.249
19320.24
17691.122
19436.172
18094.949
18192.858
16752.836
16848.639
18068.158
19565.655
17863.21
19715.539
14731.888
15229.699
14644.889
15299.674
13987.607
14290.512
13750.742
14527.724
14236.995
14496.698
13572.293
13826.173
14633.074
15028.426
14440.24
15216.025
952.05705
954.60854
731.29867
731.07497
997.0522
972.64585
748.9705
762.27423
613.9361
585.70475
1426.2567
1405.4407
1648.4943
1644.9939
1501.0914
1522.2959
1774.6116
1713.508
1947.4584
1958.5897
2168.5661
2160.1958
2025.656
2093.2084
2297.9
2237.6559
3269.2216
3151.5619
3090.281
3248.2581
2787.5943
2619.4916
2549.2279
2732.2596
2460.9395
2484.1421
2660.449
2642.8909
3183.4496
3027.0955
2990.9804
3154.1403
3171.7121
3034.5354
3004.9684
3174.8771
2653.0562
2465.2224
2449.7822
2644.3554
2518.1108
2499.5503
2681.8782
2704.589
3211.8241
3056.0973
3061.2881
3220.3431
1424.3687
1391.7223
1647.2169
1664.8313
1392.7223
1378.4324
1622.7473
1610.1761
1980.7655
1961.0244
2182.0465
2206.9936
1912.8689
1925.3648
2151.2535
2142.5259
588.31439
731.833
957.10464
942.33862
722.92847
1362.8321
1352.0038
1596.8215
1602.615
1394.3547
1403.8176
1674.7033
1635.2997
1915.6586
1913.2044
2153.7026
2162.8432
1951.5231
1989.877
2233.6182
2207.3122
2564.2133
2536.3012
2760.3095
2773.3481
2481.8094
2483.3673
2696.2214
2689.3116
3151.6658
3335.7471
3335.8542
3137.9161
3075.9575
3255.6051
3256.4015
3063.9287
2539.1821
2351.8796
2383.2946
2579.3455
2927.3175
2897.7048
3048.5712
3095.1429
1833.5038
2052.6553
421.3779
411.46083
12158.882
12344.809
12445.345
12410.649
12369.408
12533.084
12565.151
12566.777
12300.735
12459.096
12451.282
12438.105
12557.507
12692.984
12592.117
12566.577
12265.202
12378.736
12312.551
12350.78
12184.521
12304.444
12222.487
12283.274
486.96724
692.83774
686.05508
486.4702
683.12757
689.2087
447.91656
4134.4156
4073.1979
2245.3889
4765.2639
4834.3758
4124.4978
4130.4432
2257.2424
4845.1976
4816.916
2087.8272
6380.3643
6377.8083
10567.395
10644.184
15770.113
16101.191
6332.261
6284.1823
10520.661
15878.38
10464.5
6291.6372
6277.7778
10413.247
10516.004
15617.91
15956.665
6360.9198
6321.7001
10570.697
10497.097
15900.871
15824.031
23372.479
19135.622
23515.272
19233.227
18997.167
19034.556
23168.946
23278.627
39721.168
27245.328
27410.323
39873.774
27185.31
27015.197
39047.577
39343.593
54149.759
64139.849
64376.313
54642.625
54455.465
63994.795
63662.391
54054.275
26809.608
27129.154
38886.012
39758.884
40178.608
27364.294
27242.639
39638.785
53609.157
63409.435
64244.368
54267.126
64132.634
64720.925
54440.792
54357.554
18776.886
18927.744
23217.365
22955.69
23463.008
19172.44
19224.181
23397.196
23136.184
18930.17
23383.843
19085.439
19307.45
19361.162
23612.223
23537.859
23434.105
19142.194
19255.717
23579.448
39213.596
27026.859
27318.696
39748.52
27400.123
27539.151
39256.044
40056.204
64551.347
54642.117
54161.398
63803.273
53629.457
63805.416
64258.009
54359.722
4157.7612
4127.4194
2268.565
4836.1349
4862.9504
4140.8405
4150.348
2262.5904
4859.0404
4836.7628
6370.7627
6358.5758
10623.234
10516.039
16017.73
6395.5753
6366.2937
10644.83
10567.487
15887.25
15986.512
6392.6126
6415.6416
10663.809
10646.796
16128.23
15882.482
6356.6038
6318.327
10557.622
10480.388
15768.319
15894.486
19226.246
19264.429
23392.47
23465.002
19207.036
19290.454
23535.058
23405.124
19063.755
19084.501
23169.319
23290.579
27234.249
27383.254
40110.719
40531.457
27142.5
26945.733
40145.093
39525.02
54534.344
64067.515
64584.375
54837.341
63626.178
64276.489
54441.653
54096.321
19135.911
19216.442
23485.648
23373.108
18931.556
18955.06
23048.131
23179.808
19027.078
19155.15
23387.539
23165.266
19333.043
19376.455
23511.039
23580.385
26975.11
27244.919
39481.695
40335.12
27441.115
27318.113
40673.544
40097.742
53826.273
63559.823
64344.417
54365.907
64237.337
64681.256
54576.845
54439.922
27241.056
27364.674
39847.995
40130.304
27065.699
26852.389
39722.38
39076.17
54069.657
64068.35
64533.037
54287.281
63433.555
64159.269
53892.235
53692.701
397.33954
313.64994
40995.778
39803.941
40558.032
41735.193
41318.942
40137.061
40942.891
41839.143
41390.929
40736.829
40188.667
41251.883
42064.418
41516.559
40505.5
41570.288
40997.791
40337.033
40525.339
41179.791
40716.873
40356.515
39467.516
40107.503
13932.184
14623.634
13850.816
14723.887
14111.882
13170.877
13230.503
14178.688
13890.246
14643.46
13846.351
14682.939
14090.378
13148.268
14110.821
13188.807
12686.469
13376.942
12633.057
13431.189
12024.306
12828.225
12876.802
12109.026
13382.116
12660.388
13351.284
12616.476
12032.069
12811.806
12848.645
12059.379
14092.5
13370.983
13446.792
14191.403
14335.684
14147.526
13409.185
13575.827
13639.946
12747.597
12797.587
13694.908
13805.977
13652.266
12765.078
12912.087
14222.323
13495.223
13511.493
14249.256
14121.957
13383.78
13481.271
14230.144
12866.987
13773.377
12865.975
13766.916
12840.932
13645.894
12755.949
13722.816
12297.713
12960.229
12251.625
13002.371
11676.09
12456.067
12494.965
11752.985
13112.227
12409.627
12968.295
12275.461
11709.381
12472.365
12605.251
11826.229
13083.399
12360.408
12364.216
13074.395
12970.862
12269.484
13047.271
12349.929
11766.13
11814.623
12565.124
12560.343
12549.589
12475.082
11745.536
11806.705
15050.567
15651.914
14948.509
15738.819
15644.862
14952.988
15015.955
15707.218
15346.853
14348.593
15461.278
14455.839
14379.012
14437.838
15375.84
15401.173
15351.593
15899.871
15290.272
15947.817
15802.329
15213.737
15332.852
15905.851
15884.634
15121.564
15943.46
15196.944
15093.626
15187.778
15827.909
15916.516
15255.605
15505.714
14926.978
14681.91
15248.552
14655.384
14737.132
15312.145
15303.636
15225.72
14496.349
14587.122
14547.741
15257.816
15496.058
14773.279
15362.089
14780.405
14791.596
15355.157
15165.09
14590.904
14783.28
15355.86
15362.755
14632.891
14651.252
15361.864
15181.619
14475.66
14643.457
15352.089
15145.353
14466.979
14505.141
15159.809
15003.638
14351.761
14488.917
15147.708
14851.702
13922.438
13968.31
14900.307
14767.586
13838.318
13965.252
14881.359
15000.264
14326.194
14439.8
15097.376
15273.358
15052.407
14394.978
14602.733
14707.379
13792.912
13912.125
14834.833
14978.716
14785.173
13875.262
14073.555
20388.932
20399.443
18528.721
18620.559
18328.668
18517.289
20149.232
20188.285
5351.7704
5272.1823
5309.3253
5418.9325
19368.528
19603.821
20154.394
20166.565
18361.93
18446.218
18320.457
18493.009
20184.069
20214.054
5285.4949
5336.4202
5319.3825
5260.9571
19401.645
19357.938
18653.304
18728.82
17099.131
17015.229
17430.871
16071.586
16117.345
17480.317
17130.065
18598.961
16912.814
18769.039
17318.938
15930.7
17505.281
16137.884
18816.581
18900.602
17119.419
17222.432
17594.62
16114.138
16190.486
17522.704
18616.544
18812.909
17214.873
16968.387
17380.535
17602.274
16015.09
16256.51
4707.7386
4733.6455
4793.3208
4779.7365
4782.6478
4730.8803
4774.6386
4851.2215
2441.9216
18712.416
18898.842
20612.97
20651.734
5330.1342
5240.843
5393.5436
5285.1883
19812.072
21137.533
21145.985
19238.447
19327.16
18848.546
18959.943
20707.237
20692.857
5422.7846
5485.4885
5518.4111
5433.2901
20321.711
19904.758
19528.732
17790.667
17882.539
19607.991
19140.497
17449.917
17592.071
19231.519
18202.771
16756.526
16814.978
18262.08
17965.795
17868.608
16468.174
16596.381
4826.7025
4840.4401
4920.0966
4898.5039
4805.3172
4760.5765
4789.1953
4857.8767
16545.734
15554.442
15618.428
16597.15
16672.416
16448.326
15488.502
15730.821
15179.406
16048.434
15110.492
16100.969
16220.383
15327.855
15982.279
15072.09
15586.858
16515.01
15559.397
16533.989
16066.402
15153.818
15173.797
16075.36
15588.296
16362.923
15386.944
16546.532
15883.784
14964.232
16073.955
15174.704
15018.346
15658.858
15002.874
15662.259
14806.472
15566.227
15565.605
14813.093
15664.77
15017.427
15460.504
14804.201
14612.024
15364.774
15568.906
14814.92
15604.839
14932.712
15005.838
15664.202
14707.01
15484.086
15546.967
14776.225
15564.759
15822.059
14915.72
15177.98
14712.393
15728.112
14965.406
15467.39
17007.644
16914.685
15934.856
16056.333
16552.487
15530.155
15657.403
16455.61
16055.467
16164.471
15524.944
15394.999
16136.867
15334.339
16182.387
15384.644
15219.942
15987.079
16096.347
15342.739
1925.9904
2093.0844
2114.1271
1956.6094
3605.7544
3611.5399
3758.6245
3740.2462
3586.5773
3618.9157
3736.1735
3724.5133
4159.8211
4184.2828
4274.0116
4260.8964
4189.7077
4272.6024
4314.1209
4198.9875
3865.7776
3775.4488
3722.6394
3851.5846
3626.1036
3645.2627
3791.0378
3786.6836
4284.0276
4284.9338
4336.6015
4368.0121
4358.0234
4251.0146
4228.9155
4356.2359
621.56281
499.47549
1506.9981
1465.3437
1649.2514
1687.4446
1120.6015
1085.5961
1253.6761
1294.4071
15620.818
16180.938
15510.006
16296.792
16058.163
15261.453
15376.489
16168.384
16299.05
15625.49
16239.845
15545.126
16124.325
15310.263
16176.078
15385.875
16502.88
15528.868
15627.925
16580.986
16948.234
16802.304
15826.293
15998.62
15213.975
16031.409
15108.324
16118.321
16487.456
15586.949
16340.664
15412.395
16256.14
17118.35
16141.168
17242.771
16629.058
15693.891
15807.163
16740.037
16260.688
17189.002
16172.211
17252.991
16687.005
15724.668
16740.515
15809.631
15607.929
14948.295
15063.17
15706.884
15924.582
15259.982
16077.542
15427.958
14739.742
14858.01
15506.82
15616.109
15975.958
15833.173
15052.271
15208.852
20942.317
20992.047
19126.225
19268.705
19258.85
19353.048
21162.7
21142.43
5566.9744
5485.5786
5477.1687
5561.0288
20345.696
20129.299
18680.914
18794.076
17027.73
17160.566
17541.133
16064.512
16169.677
17444.12
18997.646
19130.58
17514.938
17324.591
17747.978
17896.606
16355.075
16536.468
17876.345
19400.682
17714.483
19552.669
18102.157
16704.817
16841.913
18248.516
17908.507
19544.005
17788.375
19610.302
18197.725
16751.513
18269.976
16856.716
20196.161
20219.877
18384.447
18505.218
18700.455
18850.232
20532.613
20541.438
5419.5512
5232.8378
5289.3992
5494.9853
19401.128
19724.927
4838.7805
4681.661
4739.1307
4917.0309
4890.0254
4879.7482
4969.1456
4972.6627
20453.789
20453.639
18529.827
18614.362
17958.353
18061.466
19780.454
19761.993
5318.5007
5306.0415
5273.5071
5314.1271
19010.133
19690.379
20231.844
20276.719
18422.551
18575.184
18908.28
19054.59
20775.627
20783.528
5366.8102
5320.5947
5447.712
5510.9323
19953.056
19451.688
18706.205
18861.857
17226.061
17051.391
17443.632
17592.118
16067.555
16218.855
17677.358
19213.357
17498.134
19338.234
16496.636
17924.355
18056.982
16657.92
4832.6523
4776.1449
4868.8745
4949.7107
4771.4244
4806.711
4823.9573
4816.3048
17147.027
18808.786
17067.506
18869.254
16011.607
17454.076
17487.672
16055.601
16702.699
18238.838
16577.091
18315.858
15591.462
16964.661
17035.922
15689.665
15431.871
16425.802
15410.074
16430.268
15885.367
14927.985
14945.862
15880.587
16049.125
15105.307
15996.364
15024.224
15486.566
14572.686
15532.74
14651.276
14727.322
15401.444
14711.186
15395.2
14448.503
15238.75
15230.05
14458.653
15079.12
14441.789
15030.484
14371.583
14131.726
14883.688
14920.878
14189.521
15662.468
16485.741
15519.612
16618.487
16000.455
16141.07
15083.433
15239.998
16083.208
16947.795
15938.067
17068.852
15493.736
16453.679
16567.989
15635.696
15073.219
15562.483
14902.599
15720.365
14677.337
15437.088
15612.663
14857.063
16120.884
15443.945
16007.289
15313.648
15087.251
15888.349
15986.614
15198.19
3649.3843
3570.6985
3694.8372
3810.5804
3672.0177
3666.1554
3825.2314
3837.8092
4277.0845
4402.2757
4419.2416
4287.4315
4263.7856
4141.3346
4225.9223
4375.0399
3692.5371
3627.1431
3766.1825
3846.8696
4315.092
4213.7506
4293.9568
4405.0925
4356.112
4314.902
4272.2883
4343.4665
3865.08
3747.2534
3727.6223
3851.63
14164.977
13443.02
13544.27
14289.223
14499.574
14425.325
13650.595
13732.173
12901.586
13714.259
12826.022
13795.718
13952.199
13051.996
13893.276
12977.239
13853.216
14480.286
13744.907
14618.531
14008.021
13086.816
13165.738
14099.164
13838.667
14590.141
13809.079
14607.67
14062.019
13127.805
14068.196
13161.577
13043.823
12340.401
12408.245
13110.948
11784.477
12609.88
12549.363
11890.934
13183.597
13244.422
12469.425
12539.948
11910.135
12729.692
11957.984
12669.67
12628.666
13291.454
12559.675
13364.288
11930.335
12752.597
12816.48
12020.241
13357.118
12640.958
13334.572
12600.709
12025.409
12798.506
12829.676
12056.756
12376.68
12999.222
12297.871
13083.339
12506.93
11708.683
11815.854
12574.641
13172.956
12468.162
13175.523
12448.084
12654.623
11894.728
12657.836
11899.672
13740.48
13031.364
13035.826
13745.656
13488.485
13471.744
12777.103
12812.927
12414.453
13295.526
12421.493
13271.847
13039.408
12233.8
13021.431
12187.784
13515.016
14081.349
13382.458
14248.249
13660.341
12776.796
12873.53
13769.554
13650.958
14421.317
13637.892
14415.042
13891.685
12962.259
13874.38
12978.508
12635.913
11944.38
11940.75
12613.63
12396.149
11738.134
12432.778
11791.481
14503.232
14952.718
14296.929
15166.539
14668.632
13776.866
13969.793
14891.072
14739.625
15405.796
14714.109
15425.798
15132.408
14148.909
15112.207
14168.179
15200.279
14625.984
14818.121
15384.378
15644.77
15033.721
15124.416
15722.609
15178.39
14457.618
14664.171
15380.351
15627.84
14868.132
14936.155
15679.664
14958.326
14357.1
14374.296
14949.01
14651.977
14625.281
14055.243
14098.893
14895.714
14155.996
14185.38
14897.58
14592.851
14582.918
13880.565
13912.144
14632.165
13963.501
14004.426
14647.85
14340.919
14344.43
13703.587
13724.571
13446.34
13486.444
14327.576
14365.166
14051.716
14059.373
13207.808
13243.944
14935.735
15487.433
14794.1
15638.408
15151.539
14201.93
14347.733
15312.841
15634.776
14944.188
15607.273
14906.16
15311.808
14321.68
15320.426
14359.206
15280.152
14698.178
14826.549
15394.056
15606.49
15017.862
15157.309
15737.076
14689.096
15271.305
14548.059
15400.573
14991.835
15610.025
14871.254
15718.11
15316.211
15788.209
15186.99
15909.879
15746.879
14995.483
15136.166
15885.722
15313.94
15864.335
15245.326
15914.003
15838.059
15076.597
15876.635
15133.747
15059.547
14397.111
14553.673
15204.365
15398.768
14722.196
15483.943
14809.843
13872.414
14018.168
14788.43
14956.201
15183.996
15131.621
14163.432
14250.254
772.47222
1006.7261
980.76886
757.79832
959.51527
964.51056
739.68272
740.36482
620.05663
590.38606
2349.7298
2130.9787
2258.3401
2039.9928
1795.5983
1535.7855
1499.1535
1730.79
1661.9517
1421.0203
1424.9901
1658.0832
1967.1779
1983.7426
2188.894
2187.5886
3381.6543
3256.1834
3324.3032
3168.3453
2867.2731
2698.257
2790.5153
2602.1787
2496.9425
2510.1473
2693.3862
2688.5537
3050.881
3068.029
3232.7314
3227.7172
3213.0021
3065.5994
3032.1294
3195.916
2678.2611
2489.8227
2469.7087
2665.4532
2507.1145
2493.2887
2681.8546
2692.208
3207.4701
3054.3018
3049.2785
3214.7273
2163.4565
1944.8963
1938.4264
2163.5436
1630.9637
1415.4244
1409.9333
1633.0484
1438.271
1407.5959
1657.0227
1673.6264
2178.0752
1967.0518
1983.3838
2201.0213
972.70819
986.66462
742.21558
740.60271
973.37754
963.66147
741.37476
747.44473
596.06403
586.95086
1399.1248
1398.9194
1646.8063
1619.9809
1415.175
1424.9805
1685.662
1651.2725
1957.5365
1991.8727
2212.0925
2191.2453
1926.5567
2144.8993
2186.1165
1956.4736
2508.6729
2528.3971
2715.982
2710.93
3082.7146
3083.7859
3261.3137
3267.2668
3167.2986
3019.0683
3065.016
3243.681
2647.7181
2460.0336
2501.8404
2694.7318
2679.1152
2657.6449
2833.6468
2855.0652
2548.837
2511.4869
2691.0776
2756.2326
3219.7362
3055.4738
3126.3639
3292.2066
3215.8421
3212.2019
3345.961
3351.4222
1539.4978
1492.3153
1766.5894
1804.1156
1423.2586
1414.9727
1660.6675
1676.5444
1970.7553
2197.2252
2229.3077
1993.498
2137.3056
2105.9389
2325.409
2357.0322
422.93702
413.36733
26992.026
27257.807
27206.93
27445.967
27693.362
27551.205
27501.447
27383.69
18076.352
17083.179
16969.856
18031.424
28991.201
29414.178
35840.611
35356.015
28807.236
28223.123
34475.692
35108.914
25431
26013.622
25689.905
26259.362
27523.759
27499.657
27326.628
27336.314
17196.516
16483.207
17364.541
18191.102
28671.998
28843.756
35173.252
35003.855
31525.072
25744.544
26831.636
32939.877
26186.825
26759.204
27387.481
26797.138
27424.993
28057.14
28020.791
28705.171
28646.216
28075.527
28760.783
27984.945
30155.712
29476.298
29360.629
30055.37
14889.684
15120.353
16109.416
15933.273
15225.971
14766.095
15623.44
16218.873
28606.371
27732.367
28405.044
27945.051
29807.598
29118.299
29321.157
30019.748
28751.782
28274.716
29006.196
28056.881
30514.894
29778.36
29504.283
30236.038
30872.993
31549.666
31755.362
31054.967
30632.318
30823.344
31528.239
31338.623
33114.928
32246.208
32905.479
32457.162
32054.024
32724.429
32243.789
32915.398
30952.577
30118.799
30784.662
30295.283
31467.638
32116.452
32270.994
31625.67
31736.224
30983.006
31673.444
31027.896
32378.618
33045.384
32448.854
33128.951
33601.628
32782.107
33444.349
32935.96
34805.473
34139.989
34302.242
34977.026
33824.356
34514.472
33730.731
34414.496
35825.769
35135.652
35239.44
35926.263
27356.598
27588.076
27567.945
27764.474
27343.402
27274.622
27135.751
27084.595
18369.002
17366.295
16917.111
17937.707
28476.93
28739.807
35046.664
34759.025
29294.412
28814.269
35058.216
35583.453
26700.799
26948.506
26912.813
27131.969
27566.717
27631.256
27383.856
27470.868
17992.694
17029.725
17105.955
18139.705
29129.159
29102.192
35460.694
35505.88
28356.133
27878.828
34013.68
34574.612
28090.722
28252.167
28762.33
28901.823
29623.339
30175.71
30330.823
29481.012
27888.789
27756.831
28425.198
28596.642
29356.645
29166.684
30087.525
29893.231
28237.216
27411.717
28063.803
27602.435
28761.655
29435.159
29612.775
28929.787
28812.962
28119.392
28819.409
28130.033
29561.82
30270.915
29559.386
30287.648
16087.495
15115.696
15075.249
16096.943
14926.879
15382.466
16383.273
15924.648
31418.615
30492.757
31164.885
30727.621
31853.109
32509.957
32788.704
32122.552
30972.259
31683.836
31240.41
31944.568
32661.858
33342.467
32402.606
33077.392
29995.992
28616.344