/*--------------------------------*- C++ -*----------------------------------*\
  =========                 |
  \\      /  F ield         | OpenFOAM: The Open Source CFD Toolbox
   \\    /   O peration     | Website:  https://openfoam.org
    \\  /    A nd           | Version:  7
     \\/     M anipulation  |
\*---------------------------------------------------------------------------*/
FoamFile
{
    version     2.0;
    format      ascii;
    class       volScalarField;
    location    "9000";
    object      p;
}
// * * * * * * * * * * * * * * * * * * * * * * * * * * * * * * * * * * * * * //

dimensions      [0 2 -2 0 0 0 0];

internalField   nonuniform List<scalar> 
34251
(
-5.6827389e+106
-5.7083539e+106
-5.5412251e+106
-5.4848498e+106
-5.5488726e+106
-5.4704334e+106
-4.8720509e+106
-5.2704674e+106
-5.2630052e+106
-5.5730193e+106
-5.5688112e+106
-5.5734246e+106
-5.5861755e+106
-5.4232033e+106
-5.4336039e+106
-5.3838474e+106
-5.3779308e+106
-5.4484474e+106
-5.443506e+106
-5.3904676e+106
-5.3914158e+106
-5.0497453e+106
-4.8437744e+106
-4.8527249e+106
-5.059666e+106
-4.8478508e+106
-4.9403687e+106
-4.8582123e+106
-4.9285819e+106
-4.687234e+106
-4.6907721e+106
-4.4885658e+106
-4.4902695e+106
-5.2484156e+106
-5.2581917e+106
-5.2611774e+106
-5.2592113e+106
-5.5247754e+106
-5.5259469e+106
-5.4702888e+106
-5.441879e+106
-5.4401726e+106
-5.465737e+106
-5.4629618e+106
-5.4739635e+106
-5.4600649e+106
-5.4464335e+106
-5.4409072e+106
-5.4400543e+106
-5.4716635e+106
-5.4720304e+106
-5.4916344e+106
-5.4904928e+106
-5.4847752e+106
-5.4807418e+106
-5.3078123e+106
-5.3462614e+106
-5.3211062e+106
-5.3693367e+106
-5.3370166e+106
-5.3604946e+106
-5.3322462e+106
-5.3449318e+106
-5.3851452e+106
-5.3434699e+106
-5.3782066e+106
-5.3731519e+106
-5.3381284e+106
-5.3371164e+106
-5.1398591e+106
-5.1368327e+106
-5.0180388e+106
-5.0140761e+106
-4.8309052e+106
-4.8335639e+106
-4.9180486e+106
-4.9224905e+106
-4.6643834e+106
-4.9197108e+106
-4.8330629e+106
-4.8393799e+106
-4.9235117e+106
-4.6726482e+106
-5.1372081e+106
-5.1301596e+106
-5.01558e+106
-5.013654e+106
-4.4737012e+106
-4.4819098e+106
-4.8453656e+106
-4.8409596e+106
-4.8778735e+106
-4.7649839e+106
-4.8836477e+106
-4.927857e+106
-4.9241117e+106
-4.963659e+106
-4.8531273e+106
-4.8498626e+106
-4.8922676e+106
-4.8888911e+106
-4.7700738e+106
-4.9190465e+106
-4.9142917e+106
-4.9580892e+106
-4.9611672e+106
-4.6716019e+106
-4.673815e+106
-4.6747045e+106
-4.7705659e+106
-4.8537075e+106
-4.891443e+106
-5.0001725e+106
-4.3000911e+106
-4.4780029e+106
-4.5815375e+106
-4.5827406e+106
-4.477454e+106
-4.3003778e+106
-4.4766251e+106
-4.5831498e+106
-4.0965342e+106
-4.0973573e+106
-5.2388053e+106
-5.2566416e+106
-5.2476217e+106
-5.2656516e+106
-5.263043e+106
-5.2589683e+106
-5.343947e+106
-5.3405184e+106
-5.3565214e+106
-5.3338834e+106
-5.3281642e+106
-5.3470349e+106
-5.3805526e+106
-5.3877158e+106
-5.3928906e+106
-5.3832757e+106
-5.3927415e+106
-5.3984553e+106
-5.4070508e+106
-5.4001101e+106
-5.3962873e+106
-5.3785986e+106
-5.3890441e+106
-5.4056045e+106
-5.3839585e+106
-5.3738163e+106
-5.3655546e+106
-5.3354701e+106
-5.3395466e+106
-5.3691998e+106
-5.363346e+106
-5.4139451e+106
-5.4162817e+106
-5.4285654e+106
-5.4256194e+106
-5.4204769e+106
-5.4093028e+106
-5.4033429e+106
-5.4140363e+106
-5.4307968e+106
-5.4278553e+106
-5.4119706e+106
-5.414404e+106
-5.4216266e+106
-5.4044361e+106
-5.3969676e+106
-5.2979398e+106
-5.2874896e+106
-5.2720845e+106
-5.2803757e+106
-5.3308705e+106
-5.325619e+106
-5.3070543e+106
-5.3028921e+106
-5.2956445e+106
-5.3169656e+106
-5.3082677e+106
-5.288568e+106
-5.3507095e+106
-5.3484567e+106
-5.3213988e+106
-5.3199628e+106
-5.3454942e+106
-5.3425842e+106
-5.31747e+106
-5.3153665e+106
-5.338125e+106
-5.3347371e+106
-5.3116868e+106
-5.3095075e+106
-3.8609963e+106
-5.1215147e+106
-5.1948568e+106
-5.1171071e+106
-5.1184716e+106
-5.1902733e+106
-5.1925945e+106
-5.0628269e+106
-5.0063787e+106
-5.0011832e+106
-5.0031666e+106
-5.060426e+106
-5.0582543e+106
-4.8304577e+106
-4.830834e+106
-4.8703673e+106
-4.8689947e+106
-4.7493752e+106
-4.8349084e+106
-4.8325052e+106
-4.8720166e+106
-4.7507713e+106
-4.9079618e+106
-4.9091157e+106
-4.9568943e+106
-4.9550442e+106
-4.9119782e+106
-4.959386e+106
-4.661726e+106
-4.6614699e+106
-4.9545664e+106
-4.9075776e+106
-4.9070472e+106
-4.954402e+106
-4.8307355e+106
-4.8694096e+106
-4.8689265e+106
-4.8316391e+106
-4.7528793e+106
-4.8375992e+106
-4.833934e+106
-4.8713196e+106
-4.7576447e+106
-4.8749648e+106
-4.9116381e+106
-4.9568307e+106
-4.908515e+106
-4.9551785e+106
-4.6643461e+106
-4.6689001e+106
-5.1130808e+106
-5.1157368e+106
-5.1823692e+106
-5.1897055e+106
-5.1748777e+106
-5.1044986e+106
-5.1092721e+106
-5.1623723e+106
-5.0532934e+106
-5.0002653e+106
-5.00061e+106
-5.0513775e+106
-5.0565549e+106
-4.9997335e+106
-4.9995203e+106
-5.0553453e+106
-4.2931303e+106
-4.4660912e+106
-4.5720073e+106
-4.5724286e+106
-4.4659743e+106
-4.2975125e+106
-4.4685976e+106
-4.575043e+106
-4.578928e+106
-4.4739503e+106
-4.094149e+106
-4.0958194e+106
-4.8594307e+106
-4.8616546e+106
-4.8080922e+106
-4.842903e+106
-4.8408845e+106
-4.8557927e+106
-4.8574595e+106
-4.8054285e+106
-4.839055e+106
-4.8375206e+106
-4.8727377e+106
-4.8919164e+106
-4.8745831e+106
-4.8938532e+106
-4.767145e+106
-4.7657704e+106
-4.8766733e+106
-4.8959619e+106
-4.8792064e+106
-4.8985789e+106
-4.9219616e+106
-4.9229842e+106
-4.9411086e+106
-4.9422661e+106
-4.9183087e+106
-4.9371583e+106
-4.9204613e+106
-4.9395334e+106
-4.9555478e+106
-4.9769616e+106
-4.9575943e+106
-4.978412e+106
-4.8674111e+106
-4.8689649e+106
-4.8130382e+106
-4.8498307e+106
-4.8482891e+106
-4.8636759e+106
-4.8656981e+106
-4.8107549e+106
-4.8465937e+106
-4.8448082e+106
-4.8850516e+106
-4.9043848e+106
-4.8864357e+106
-4.9055669e+106
-4.8813729e+106
-4.9007756e+106
-4.8834836e+106
-4.9029679e+106
-4.7681529e+106
-4.7696829e+106
-4.9133619e+106
-4.9331147e+106
-4.9159626e+106
-4.93528e+106
-4.9094043e+106
-4.930084e+106
-4.9112196e+106
-4.9317074e+106
-4.9510057e+106
-4.9752349e+106
-4.9517514e+106
-4.9749175e+106
-4.9525736e+106
-4.9751619e+106
-4.9542033e+106
-4.9760915e+106
-4.6862648e+106
-4.6867868e+106
-4.7273413e+106
-4.7276914e+106
-4.6876778e+106
-4.6870804e+106
-4.7284605e+106
-4.7296305e+106
-4.6865173e+106
-4.687571e+106
-4.72988e+106
-4.7289252e+106
-4.813833e+106
-4.7699074e+106
-4.8114856e+106
-4.768554e+106
-4.6853505e+106
-4.8683963e+106
-4.8490896e+106
-4.869714e+106
-4.8695739e+106
-4.8502809e+106
-4.8506611e+106
-4.8869313e+106
-4.9058329e+106
-4.8866495e+106
-4.9952162e+106
-4.99547e+106
-5.0183989e+106
-4.9952721e+106
-4.3626421e+106
-4.3646966e+106
-4.225672e+106
-4.2212106e+106
-4.4895154e+106
-4.4921632e+106
-4.5473212e+106
-4.54912e+106
-4.6442499e+106
-4.5962557e+106
-4.5949095e+106
-4.643124e+106
-4.6436466e+106
-4.5949664e+106
-4.5952141e+106
-4.6437054e+106
-4.488803e+106
-4.4885482e+106
-4.5466603e+106
-4.5467552e+106
-4.2210914e+106
-4.3619119e+106
-4.2259585e+106
-4.4880368e+106
-4.4879281e+106
-4.5467008e+106
-4.5465108e+106
-4.5955264e+106
-4.5952736e+106
-4.6437282e+106
-4.643029e+106
-4.5957875e+106
-4.642729e+106
-4.0437202e+106
-4.0438479e+106
-5.2390392e+106
-5.2290023e+106
-5.2631033e+106
-5.2583185e+106
-5.2524309e+106
-5.2455926e+106
-5.2747804e+106
-5.2736693e+106
-5.271985e+106
-5.2698534e+106
-5.2672684e+106
-5.2653182e+106
-5.1502156e+106
-5.1468161e+106
-5.257743e+106
-5.3404558e+106
-5.348636e+106
-5.2362039e+106
-5.2317457e+106
-5.2516792e+106
-5.3337906e+106
-5.323659e+106
-5.3395269e+106
-5.3275316e+106
-5.3599921e+106
-5.3505977e+106
-5.3643972e+106
-5.3567302e+106
-5.3630259e+106
-5.3548365e+106
-5.3525709e+106
-5.3443496e+106
-5.3339416e+106
-5.3253048e+106
-5.3663136e+106
-5.3604996e+106
-5.3480649e+106
-5.3424343e+106
-5.3755322e+106
-5.3700998e+106
-5.3753237e+106
-5.3702109e+106
-5.3493844e+106
-5.3412132e+106
-5.3457596e+106
-5.3363269e+106
-5.33442e+106
-5.3283064e+106
-5.3276501e+106
-5.3354246e+106
-5.3259826e+106
-5.3058629e+106
-5.3159542e+106
-5.2392462e+106
-5.2439664e+106
-5.2699302e+106
-5.3669754e+106
-5.3635087e+106
-5.2637728e+106
-5.3532217e+106
-5.3598715e+106
-5.3829272e+106
-5.3790811e+106
-5.3743017e+106
-5.3672219e+106
-5.3991529e+106
-5.4003755e+106
-5.4004064e+106
-5.3981959e+106
-5.395396e+106
-5.3944649e+106
-5.3970672e+106
-5.3902707e+106
-5.3873022e+106
-5.3708846e+106
-5.3681206e+106
-5.3845443e+106
-5.3801205e+106
-5.3793739e+106
-5.3839478e+106
-5.3923468e+106
-5.3887507e+106
-5.388164e+106
-5.39172e+106
-5.3840852e+106
-5.3805067e+106
-5.3650166e+106
-5.3616577e+106
-5.3759952e+106
-5.3713129e+106
-5.3569364e+106
-5.3526796e+106
-3.8361441e+106
-5.2739031e+106
-5.2783809e+106
-5.26627e+106
-5.2617176e+106
-5.2623941e+106
-5.2675726e+106
-5.255601e+106
-5.2504287e+106
-5.3047619e+106
-5.3066247e+106
-5.2929756e+106
-5.291417e+106
-5.2986516e+106
-5.3014915e+106
-5.2880307e+106
-5.2851952e+106
-5.2916004e+106
-5.2949985e+106
-5.281792e+106
-5.2785667e+106
-5.2829555e+106
-5.2867501e+106
-5.2737756e+106
-5.2700706e+106
-5.3233349e+106
-5.3241898e+106
-5.3082086e+106
-5.307699e+106
-5.3208708e+106
-5.3219255e+106
-5.3062557e+106
-5.3055173e+106
-5.3186228e+106
-5.3197392e+106
-5.3044005e+106
-5.3036407e+106
-5.3151612e+106
-5.3167219e+106
-5.3016181e+106
-5.3003171e+106
-5.3119576e+106
-5.3134053e+106
-5.2986303e+106
-5.2976183e+106
-5.3082987e+106
-5.3097685e+106
-5.2954701e+106
-5.2942871e+106
-3.8607157e+106
-5.1141854e+106
-5.1497344e+106
-5.1136829e+106
-5.1489698e+106
-5.1862028e+106
-5.2317055e+106
-5.1856918e+106
-5.2307703e+106
-5.1098003e+106
-5.109662e+106
-5.145438e+106
-5.1450059e+106
-5.1121381e+106
-5.1113432e+106
-5.1475853e+106
-5.1467412e+106
-5.1810756e+106
-5.2259435e+106
-5.1807214e+106
-5.2249016e+106
-5.1839952e+106
-5.1831698e+106
-5.2296576e+106
-5.2282491e+106
-5.0539595e+106
-5.0533458e+106
-5.084491e+106
-5.0838303e+106
-5.0018334e+106
-5.0009869e+106
-5.0278835e+106
-5.0269089e+106
-4.995795e+106
-4.9963616e+106
-5.022594e+106
-5.0219652e+106
-4.9994269e+106
-4.998107e+106
-5.0253209e+106
-5.0240098e+106
-5.0515144e+106
-5.0505275e+106
-5.0826277e+106
-5.0817002e+106
-5.048735e+106
-5.0485697e+106
-5.0801445e+106
-5.0799106e+106
-4.8474164e+106
-4.8473685e+106
-4.7948992e+106
-4.8288745e+106
-4.8285174e+106
-4.8487438e+106
-4.8478825e+106
-4.7946829e+106
-4.8289355e+106
-4.8295673e+106
-4.8673145e+106
-4.8878946e+106
-4.8664642e+106
-4.886799e+106
-4.8655503e+106
-4.8858681e+106
-4.8654776e+106
-4.8855259e+106
-4.7561462e+106
-4.7573004e+106
-4.8517876e+106
-4.7981946e+106
-4.8333263e+106
-4.832269e+106
-4.8506171e+106
-4.8496278e+106
-4.7956518e+106
-4.831098e+106
-4.8304101e+106
-4.8692995e+106
-4.8684154e+106
-4.8898341e+106
-4.8888419e+106
-4.7570723e+106
-4.7591884e+106
-4.9051699e+106
-4.9048554e+106
-4.9271226e+106
-4.926567e+106
-4.9072787e+106
-4.9292431e+106
-4.9062179e+106
-4.9280752e+106
-4.9513635e+106
-4.9763666e+106
-4.9503008e+106
-4.975044e+106
-4.9488187e+106
-4.9734363e+106
-4.9484656e+106
-4.972804e+106
-4.908638e+106
-4.930544e+106
-4.9528206e+106
-4.9784033e+106
-4.9774745e+106
-4.6623288e+106
-4.681637e+106
-4.6805555e+106
-4.7197188e+106
-4.7206682e+106
-4.6843059e+106
-4.6811944e+106
-4.7225342e+106
-4.7200174e+106
-4.5715586e+106
-4.4646414e+106
-4.9477081e+106
-4.9724662e+106
-4.9475589e+106
-4.9723567e+106
-4.9037553e+106
-4.9046034e+106
-4.9255313e+106
-4.9262601e+106
-4.9042748e+106
-4.9259735e+106
-4.9039743e+106
-4.9256182e+106
-4.9470126e+106
-4.9481012e+106
-4.9719939e+106
-4.9730324e+106
-4.8474272e+106
-4.847585e+106
-4.7959512e+106
-4.829197e+106
-4.8290663e+106
-4.8654106e+106
-4.8851416e+106
-4.8663839e+106
-4.88599e+106
-4.8651274e+106
-4.8853347e+106
-4.8652959e+106
-4.8850925e+106
-4.8478903e+106
-4.848654e+106
-4.7966851e+106
-4.8293677e+106
-4.8302824e+106
-4.7593779e+106
-4.7582431e+106
-4.8525872e+106
-4.8543187e+106
-4.8020397e+106
-4.836055e+106
-4.8342035e+106
-4.8496378e+106
-4.8510202e+106
-4.7989432e+106
-4.8326845e+106
-4.8312897e+106
-4.8671003e+106
-4.8869916e+106
-4.8685143e+106
-4.888117e+106
-4.7612165e+106
-4.7638002e+106
-4.8697447e+106
-4.8893049e+106
-4.8715457e+106
-4.8907807e+106
-4.907162e+106
-4.928385e+106
-4.9084793e+106
-4.9295057e+106
-4.9497622e+106
-4.9747496e+106
-4.9506752e+106
-4.9751037e+106
-4.9051001e+106
-4.9267897e+106
-4.9062297e+106
-4.9278772e+106
-4.9485008e+106
-4.9739609e+106
-4.9495289e+106
-4.9746621e+106
-4.683417e+106
-4.6821949e+106
-4.7217067e+106
-4.7226225e+106
-4.6850136e+106
-4.7246711e+106
-4.7264889e+106
-4.6864705e+106
-5.1060502e+106
-5.105184e+106
-5.1402824e+106
-5.1386341e+106
-5.1085247e+106
-5.1437146e+106
-5.1079828e+106
-5.1427172e+106
-5.1732515e+106
-5.2152377e+106
-5.1707044e+106
-5.2106534e+106
-5.1789999e+106
-5.2236233e+106
-5.1771498e+106
-5.2201616e+106
-5.1665493e+106
-5.2059735e+106
-5.1618728e+106
-5.198007e+106
-5.0999404e+106
-5.0983334e+106
-5.1289591e+106
-5.1260825e+106
-5.1030996e+106
-5.1357618e+106
-5.1020178e+106
-5.1329468e+106
-5.1560969e+106
-5.1514522e+106
-5.045379e+106
-5.076217e+106
-5.0453594e+106
-5.0757979e+106
-4.99571e+106
-4.9963097e+106
-5.0209311e+106
-5.0212552e+106
-4.9959679e+106
-4.9960644e+106
-5.020094e+106
-5.0197831e+106
-5.0439111e+106
-5.0433583e+106
-5.0741281e+106
-5.0727895e+106
-5.0472985e+106
-5.0792351e+106
-5.0472933e+106
-5.0789601e+106
-4.9945522e+106
-4.9955545e+106
-5.0208555e+106
-5.0212906e+106
-4.9948751e+106
-5.0211244e+106
-4.9949158e+106
-5.0210771e+106
-5.0461855e+106
-5.0465485e+106
-5.0775698e+106
-5.0772412e+106
-4.3543505e+106
-4.353145e+106
-4.217396e+106
-4.2146587e+106
-4.5511082e+106
-4.4901162e+106
-4.486447e+106
-4.5475552e+106
-4.6443372e+106
-4.5987605e+106
-4.5952902e+106
-4.6409092e+106
-4.64043e+106
-4.5945745e+106
-4.5939164e+106
-4.6405762e+106
-4.5467875e+106
-4.4854981e+106
-4.4854661e+106
-4.5455193e+106
-4.3614895e+106
-4.3554923e+106
-4.2167749e+106
-4.2237937e+106
-4.4850809e+106
-4.4851972e+106
-4.5454088e+106
-4.5455771e+106
-4.5935251e+106
-4.6410715e+106
-4.641687e+106
-4.5939347e+106
-4.5965673e+106
-4.5955184e+106
-4.6431713e+106
-4.6442955e+106
-4.4914942e+106
-4.4872821e+106
-4.5474137e+106
-4.549023e+106
-4.0410166e+106
-4.0427276e+106
-4.855676e+106
-4.8565767e+106
-4.8660302e+106
-4.8669346e+106
-4.8680662e+106
-4.8690718e+106
-4.8575388e+106
-4.8585384e+106
-4.8245686e+106
-4.8064635e+106
-4.8077675e+106
-4.8262698e+106
-4.8440866e+106
-4.8423885e+106
-4.8527476e+106
-4.8534073e+106
-4.8630001e+106
-4.8635964e+106
-4.8644164e+106
-4.8651342e+106
-4.8541214e+106
-4.8548915e+106
-4.8054222e+106
-4.8043517e+106
-4.8218805e+106
-4.8231544e+106
-4.8409049e+106
-4.8395484e+106
-4.8714474e+106
-4.8721351e+106
-4.8811731e+106
-4.8804456e+106
-4.8892211e+106
-4.8899498e+106
-4.8987317e+106
-4.899397e+106
-4.882869e+106
-4.8729188e+106
-4.8819558e+106
-4.87378e+106
-4.9001038e+106
-4.8906756e+106
-4.8916793e+106
-4.9010775e+106
-4.7715407e+106
-4.7708748e+106
-4.789247e+106
-4.7901669e+106
-4.7702189e+106
-4.769866e+106
-4.7876368e+106
-4.7883577e+106
-4.8848857e+106
-4.8746293e+106
-4.8837615e+106
-4.8756624e+106
-4.9020703e+106
-4.8926066e+106
-4.8937618e+106
-4.9032001e+106
-4.8871972e+106
-4.8767821e+106
-4.8859979e+106
-4.877913e+106
-4.9043278e+106
-4.8948541e+106
-4.896138e+106
-4.9056426e+106
-4.9192972e+106
-4.9282332e+106
-4.928659e+106
-4.9196568e+106
-4.9204502e+106
-4.9200495e+106
-4.9292444e+106
-4.9296153e+106
-4.9473556e+106
-4.9369329e+106
-4.9466334e+106
-4.9374913e+106
-4.9385538e+106
-4.9486146e+106
-4.9381535e+106
-4.9480591e+106
-4.9258757e+106
-4.9153971e+106
-4.9245378e+106
-4.9166065e+106
-4.9331892e+106
-4.9428562e+106
-4.943837e+106
-4.9344158e+106
-4.9276148e+106
-4.9177135e+106
-4.9269171e+106
-4.9186973e+106
-4.9354555e+106
-4.9447776e+106
-4.93621e+106
-4.9457258e+106
-4.9628279e+106
-4.9519338e+106
-4.9620966e+106
-4.9527137e+106
-4.9832955e+106
-4.9721714e+106
-4.9727766e+106
-4.9837102e+106
-4.9545939e+106
-4.964426e+106
-4.9535763e+106
-4.9635099e+106
-4.9842553e+106
-4.9733637e+106
-4.9742391e+106
-4.985102e+106
-4.8629556e+106
-4.8637953e+106
-4.8735773e+106
-4.8743386e+106
-4.8752202e+106
-4.8760579e+106
-4.8646375e+106
-4.8654659e+106
-4.8306173e+106
-4.8109217e+106
-4.8122543e+106
-4.8321086e+106
-4.8509765e+106
-4.8493951e+106
-4.8593606e+106
-4.8603114e+106
-4.8699876e+106
-4.8709591e+106
-4.872005e+106
-4.8728155e+106
-4.8612534e+106
-4.8621736e+106
-4.8278467e+106
-4.8088806e+106
-4.8097671e+106
-4.8291641e+106
-4.8476794e+106
-4.8458035e+106
-4.8825661e+106
-4.8832608e+106
-4.8920359e+106
-4.8926802e+106
-4.9016141e+106
-4.910617e+106
-4.9110515e+106
-4.901048e+106
-4.8840097e+106
-4.8847198e+106
-4.8936983e+106
-4.8931644e+106
-4.90195e+106
-4.9024207e+106
-4.9113408e+106
-4.9117966e+106
-4.8893719e+106
-4.8788386e+106
-4.8881939e+106
-4.8799368e+106
-4.8971557e+106
-4.9067135e+106
-4.9078426e+106
-4.8983093e+106
-4.8914923e+106
-4.8810222e+106
-4.8904337e+106
-4.8819382e+106
-4.899321e+106
-4.9088872e+106
-4.9005151e+106
-4.9100957e+106
-4.7909214e+106
-4.7719337e+106
-4.772356e+106
-4.7914803e+106
-4.774358e+106
-4.773333e+106
-4.7925285e+106
-4.7936903e+106
-4.9211126e+106
-4.9107004e+106
-4.9200411e+106
-4.9118279e+106
-4.9291887e+106
-4.9395892e+106
-4.9402927e+106
-4.9301271e+106
-4.9142793e+106
-4.923428e+106
-4.9129628e+106
-4.9221916e+106
-4.9310695e+106
-4.9410948e+106
-4.9322283e+106
-4.9421063e+106
-4.917644e+106
-4.907347e+106
-4.9169615e+106
-4.9080136e+106
-4.9265073e+106
-4.9270807e+106
-4.9376037e+106
-4.938036e+106
-4.9191474e+106
-4.9087487e+106
-4.9183014e+106
-4.9097185e+106
-4.9384247e+106
-4.9276231e+106
-4.9284414e+106
-4.9390151e+106
-4.9597449e+106
-4.9479573e+106
-4.9595499e+106
-4.9482409e+106
-4.9707448e+106
-4.9707248e+106
-4.9830319e+106
-4.982722e+106
-4.9489141e+106
-4.9598324e+106
-4.9485147e+106
-4.959706e+106
-4.9823051e+106
-4.970466e+106
-4.970523e+106
-4.9821834e+106
-4.9605111e+106
-4.9493017e+106
-4.9600629e+106
-4.9498709e+106
-4.9822127e+106
-4.970619e+106
-4.970916e+106
-4.9822799e+106
-4.951397e+106
-4.9616552e+106
-4.9505631e+106
-4.9610027e+106
-4.9824408e+106
-4.9712268e+106
-4.971779e+106
-4.9828862e+106
-4.6990351e+106
-4.6994037e+106
-4.7177507e+106
-4.7179369e+106
-4.6998325e+106
-4.7007497e+106
-4.7184414e+106
-4.717941e+106
-4.7346485e+106
-4.7348224e+106
-4.753007e+106
-4.7529355e+106
-4.7533128e+106
-4.7348165e+106
-4.7349771e+106
-4.7537541e+106
-4.6996322e+106
-4.6991847e+106
-4.7192881e+106
-4.718501e+106
-4.6987357e+106
-4.6989648e+106
-4.7177392e+106
-4.7176956e+106
-4.7539013e+106
-4.7349427e+106
-4.7352302e+106
-4.7541715e+106
-4.7550841e+106
-4.7360904e+106
-4.7371151e+106
-4.7561644e+106
-4.6977694e+106
-4.6980653e+106
-4.7181954e+106
-4.7178261e+106
-4.6987065e+106
-4.6995044e+106
-4.7194048e+106
-4.7188214e+106
-4.7564225e+106
-4.7374353e+106
-4.7368445e+106
-4.7558005e+106
-4.7358761e+106
-4.7363095e+106
-4.7553042e+106
-4.7550746e+106
-4.8330484e+106
-4.8129857e+106
-4.8125792e+106
-4.8325649e+106
-4.7942333e+106
-4.7746998e+106
-4.7740779e+106
-4.7937655e+106
-4.831721e+106
-4.8120369e+106
-4.8109907e+106
-4.8304932e+106
-4.7932343e+106
-4.7735689e+106
-4.7731324e+106
-4.7925581e+106
-4.6966943e+106
-4.697174e+106
-4.716925e+106
-4.716319e+106
-4.8659087e+106
-4.8653025e+106
-4.8763545e+106
-4.8757851e+106
-4.8516492e+106
-4.8659357e+106
-4.8662645e+106
-4.8764769e+106
-4.876826e+106
-4.8769315e+106
-4.8768668e+106
-4.8664186e+106
-4.8663139e+106
-4.8523413e+106
-4.8520672e+106
-4.894248e+106
-4.8850756e+106
-4.8940577e+106
-4.8853321e+106
-4.902702e+106
-4.9027575e+106
-4.9120314e+106
-4.9119514e+106
-4.8938557e+106
-4.8853681e+106
-4.8941331e+106
-4.8852153e+106
-5.0031257e+106
-4.9923562e+106
-5.0032432e+106
-4.9923561e+106
-5.0042717e+106
-4.9933116e+106
-5.0044906e+106
-4.9930088e+106
-5.0151737e+106
-5.0148922e+106
-5.0280011e+106
-5.0276266e+106
-5.0034635e+106
-4.9926412e+106
-5.003845e+106
-4.992428e+106
-4.4182637e+106
-4.4191663e+106
-4.3266958e+106
-4.3244594e+106
-4.4232746e+106
-4.4196271e+106
-4.3263186e+106
-4.3319424e+106
-4.2032864e+106
-4.1988541e+106
-4.5043285e+106
-4.504937e+106
-4.5383623e+106
-4.5374597e+106
-4.5075914e+106
-4.5110556e+106
-4.5430312e+106
-4.5405399e+106
-4.5634926e+106
-4.5647318e+106
-4.5916397e+106
-4.5905986e+106
-4.5659542e+106
-4.5684562e+106
-4.5947168e+106
-4.5925556e+106
-4.6825772e+106
-4.6617565e+106
-4.6602146e+106
-4.6811168e+106
-4.6410026e+106
-4.6179298e+106
-4.6161129e+106
-4.6393064e+106
-4.6144195e+106
-4.6152082e+106
-4.6384402e+106
-4.6378042e+106
-4.6803941e+106
-4.6592914e+106
-4.6588196e+106
-4.6800199e+106
-4.6799971e+106
-4.6588022e+106
-4.6579595e+106
-4.6792789e+106
-4.6375092e+106
-4.6141469e+106
-4.6133541e+106
-4.6367504e+106
-4.6138217e+106
-4.6136166e+106
-4.6368913e+106
-4.6372317e+106
-4.6793704e+106
-4.6579171e+106
-4.6581853e+106
-4.6797477e+106
-4.5050494e+106
-4.5024957e+106
-4.5359195e+106
-4.5370813e+106
-4.5025072e+106
-4.5034084e+106
-4.5365234e+106
-4.535959e+106
-4.5626421e+106
-4.5625203e+106
-4.5896221e+106
-4.5897274e+106
-4.5621344e+106
-4.5631816e+106
-4.5903127e+106
-4.5892913e+106
-4.1991403e+106
-4.3268563e+106
-4.4188421e+106
-4.4183826e+106
-4.3248758e+106
-4.5043707e+106
-4.5024379e+106
-4.5355246e+106
-4.5367049e+106
-4.5026771e+106
-4.5045682e+106
-4.5366938e+106
-4.5355067e+106
-4.5629462e+106
-4.5620032e+106
-4.5889325e+106
-4.58954e+106
-4.5619692e+106
-4.5628825e+106
-4.5898453e+106
-4.5890001e+106
-4.6137884e+106
-4.6130874e+106
-4.6364637e+106
-4.6371738e+106
-4.6130352e+106
-4.6128844e+106
-4.6360858e+106
-4.6362123e+106
-4.6580921e+106
-4.6795579e+106
-4.6785746e+106
-4.6572906e+106
-4.6568936e+106
-4.6780922e+106
-4.6779605e+106
-4.6567377e+106
-4.6358831e+106
-4.6132698e+106
-4.6131876e+106
-4.6355257e+106
-4.6558973e+106
-4.6564401e+106
-4.6776522e+106
-4.6771134e+106
-4.5641267e+106
-4.5902306e+106
-4.0271245e+106
-4.0273715e+106
-5.2433023e+106
-5.2391543e+106
-5.2336371e+106
-5.2288831e+106
-5.2673594e+106
-5.2657749e+106
-5.2627195e+106
-5.2602093e+106
-5.257098e+106
-5.254164e+106
-5.2500903e+106
-5.2469431e+106
-5.2804309e+106
-5.2798357e+106
-5.278772e+106
-5.2782433e+106
-5.2773032e+106
-5.276427e+106
-5.2747099e+106
-5.273648e+106
-5.2722459e+106
-5.2712785e+106
-5.2695852e+106
-5.268661e+106
-4.9498117e+106
-5.1424651e+106
-5.1455488e+106
-4.9490374e+106
-5.1398547e+106
-5.1377166e+106
-4.7395216e+106
-5.2935782e+106
-5.3001189e+106
-5.167931e+106
-5.2520187e+106
-5.2481068e+106
-5.2826302e+106
-5.2886449e+106
-5.1653486e+106
-5.2452989e+106
-5.2430351e+106
-5.0760213e+106
-5.305522e+106
-5.3094412e+106
-5.3145673e+106
-5.3103192e+106
-5.3334159e+106
-5.3265136e+106
-5.29858e+106
-5.3011967e+106
-5.3059419e+106
-5.3200675e+106
-5.302729e+106
-5.3206957e+106
-5.3239237e+106
-5.3301608e+106
-5.3268189e+106
-5.3542727e+106
-5.3501543e+106
-5.3133184e+106
-5.3166005e+106
-5.322678e+106
-5.3188818e+106
-5.3455159e+106
-5.3392423e+106
-5.3500171e+106
-5.3514647e+106
-5.3464275e+106
-5.3479672e+106
-5.3442002e+106
-5.3401074e+106
-5.3385093e+106
-5.3424182e+106
-5.3376603e+106
-5.3451157e+106
-5.3413496e+106
-5.3337884e+106
-5.3373385e+106
-5.3332093e+106
-5.3254633e+106
-5.3295687e+106
-5.308967e+106
-5.3272667e+106
-5.3234987e+106
-5.3053456e+106
-5.3006177e+106
-5.3189535e+106
-5.3149513e+106
-5.2965378e+106
-5.3573094e+106
-5.3546893e+106
-5.3497421e+106
-5.3472021e+106
-5.344345e+106
-5.3517886e+106
-5.3485053e+106
-5.3409953e+106
-5.3210182e+106
-5.3395499e+106
-5.3372254e+106
-5.3189237e+106
-5.3309151e+106
-5.3342449e+106
-5.3157597e+106
-5.3125907e+106
-5.3621665e+106
-5.3599706e+106
-5.3593202e+106
-5.3617256e+106
-5.3564824e+106
-5.3573834e+106
-5.3541903e+106
-5.3532807e+106
-5.3344249e+106
-5.3366005e+106
-5.3303004e+106
-5.332415e+106
-5.3283521e+106
-5.3235585e+106
-5.325576e+106
-5.3207849e+106
-5.3158143e+106
-5.3196627e+106
-5.3151008e+106
-5.3105724e+106
-5.321394e+106
-5.3290297e+106
-5.3247734e+106
-5.3172483e+106
-5.3146743e+106
-5.3197942e+106
-5.3069543e+106
-5.3121174e+106
-5.3007082e+106
-5.2813551e+106
-5.2758438e+106
-5.2956256e+106
-5.2919703e+106
-5.3104721e+106
-5.3063447e+106
-5.2874915e+106
-5.3138477e+106
-5.3175604e+106
-5.176877e+106
-5.2666463e+106
-5.2636516e+106
-5.3043121e+106
-5.3102233e+106
-5.172036e+106
-5.260045e+106
-5.2554864e+106
-5.3425346e+106
-5.3441432e+106
-5.3500274e+106
-5.3516382e+106
-5.3755651e+106
-5.3385423e+106
-5.3402808e+106
-5.3477938e+106
-5.3457032e+106
-5.3710072e+106
-5.3734832e+106
-5.3333304e+106
-5.3361211e+106
-5.3402012e+106
-5.3429801e+106
-5.3650866e+106
-5.3682329e+106
-5.3270392e+106
-5.3297053e+106
-5.3366274e+106
-5.333623e+106
-5.3578578e+106
-5.3615187e+106
-5.3842323e+106
-5.3831395e+106
-5.3841325e+106
-5.3850679e+106
-5.3822956e+106
-5.3813049e+106
-5.3820975e+106
-5.3831569e+106
-5.3797773e+106
-5.3782451e+106
-5.3790974e+106
-5.3805128e+106
-5.3800951e+106
-5.3789018e+106
-5.3718801e+106
-5.3704339e+106
-5.3773682e+106
-5.3758401e+106
-5.3689969e+106
-5.3673078e+106
-5.3404474e+106
-5.3609367e+106
-5.359557e+106
-5.3393802e+106
-5.3566078e+106
-5.3582689e+106
-5.3380719e+106
-5.3367394e+106
-5.3702771e+106
-5.368466e+106
-5.3685972e+106
-5.3706e+106
-5.3662336e+106
-5.3638447e+106
-5.3637804e+106
-5.3661989e+106
-5.3770916e+106
-5.3756662e+106
-5.3762613e+106
-5.3777851e+106
-5.3737946e+106
-5.3718176e+106
-5.3723875e+106
-5.3743213e+106
-5.3744331e+106
-5.3727399e+106
-5.3660918e+106
-5.3643844e+106
-5.3708391e+106
-5.3687193e+106
-5.3626532e+106
-5.3605014e+106
-5.3356468e+106
-5.3554096e+106
-5.3537655e+106
-5.3342446e+106
-5.3499317e+106
-5.3520744e+106
-5.3324441e+106
-5.3305429e+106
-5.3667565e+106
-5.3645019e+106
-5.3586302e+106
-5.3563506e+106
-5.3620759e+106
-5.3595595e+106
-5.3540495e+106
-5.3517502e+106
-5.3287596e+106
-5.3480282e+106
-5.3458982e+106
-5.3269491e+106
-5.341516e+106
-5.3436611e+106
-5.3247116e+106
-5.3228264e+106
-4.0385506e+106
-3.8364542e+106
-5.2474279e+106
-5.2517032e+106
-5.2375432e+106
-5.242509e+106
-5.2741931e+106
-5.2760823e+106
-5.2688822e+106
-5.2716528e+106
-5.2626737e+106
-5.2659122e+106
-5.2554166e+106
-5.2590328e+106
-5.2897107e+106
-5.2905664e+106
-5.2878511e+106
-5.2887768e+106
-5.2858259e+106
-5.2869507e+106
-5.2830215e+106
-5.284413e+106
-5.2803433e+106
-5.2817001e+106
-5.2774347e+106
-5.278858e+106
-5.1262408e+106
-5.1096461e+106
-5.1265185e+106
-5.1093494e+106
-5.1434719e+106
-5.1631815e+106
-5.1628208e+106
-5.1431727e+106
-5.1253487e+106
-5.1086734e+106
-5.1255672e+106
-5.1085226e+106
-5.1423001e+106
-5.1619424e+106
-5.1422028e+106
-5.1616302e+106
-5.2048586e+106
-5.1824086e+106
-5.2052283e+106
-5.1819938e+106
-5.2554021e+106
-5.2283598e+106
-5.2280391e+106
-5.2549231e+106
-5.1808809e+106
-5.2036959e+106
-5.1811226e+106
-5.204057e+106
-5.2538914e+106
-5.2269248e+106
-5.2267581e+106
-5.2534165e+106
-5.1055159e+106
-5.1223384e+106
-5.1221701e+106
-5.1052854e+106
-5.104595e+106
-5.104546e+106
-5.1214499e+106
-5.121296e+106
-5.1390035e+106
-5.1585041e+106
-5.1583643e+106
-5.1389057e+106
-5.1379803e+106
-5.1380096e+106
-5.1574615e+106
-5.157229e+106
-5.1078182e+106
-5.1246138e+106
-5.1243453e+106
-5.1074666e+106
-5.1065626e+106
-5.1235012e+106
-5.1231255e+106
-5.1062774e+106
-5.1607247e+106
-5.1413463e+106
-5.1609403e+106
-5.141119e+106
-5.1593184e+106
-5.1401338e+106
-5.159727e+106
-5.1399318e+106
-5.1993043e+106
-5.1772181e+106
-5.1996043e+106
-5.1769626e+106
-5.2483299e+106
-5.2219815e+106
-5.2216319e+106
-5.2477511e+106
-5.1758039e+106
-5.1978837e+106
-5.176021e+106
-5.1983388e+106
-5.2461533e+106
-5.2202029e+106
-5.2198796e+106
-5.2455046e+106
-5.1800251e+106
-5.2028418e+106
-5.2024682e+106
-5.17969e+106
-5.1786656e+106
-5.2014108e+106
-5.1782703e+106
-5.2007274e+106
-5.2527031e+106
-5.2521065e+106
-5.2258063e+106
-5.225414e+106
-5.223343e+106
-5.2238774e+106
-5.2504811e+106
-5.2495375e+106
-5.0637958e+106
-5.0497567e+106
-5.0640857e+106
-5.0494404e+106
-5.0487329e+106
-5.0631553e+106
-5.0627783e+106
-5.0483216e+106
-5.0784167e+106
-5.0944257e+106
-5.0781578e+106
-5.0941416e+106
-5.0934533e+106
-5.0932359e+106
-5.0774083e+106
-5.0772525e+106
-5.010701e+106
-4.9986753e+106
-5.0110823e+106
-4.9982556e+106
-4.9975283e+106
-5.0100353e+106
-5.0095621e+106
-4.9971524e+106
-5.0232941e+106
-5.0367243e+106
-5.0229629e+106
-5.0363532e+106
-5.0356521e+106
-5.035176e+106
-5.0222116e+106
-5.0218225e+106
-4.9921448e+106
-4.9919835e+106
-5.0044308e+106
-5.0046368e+106
-4.993374e+106
-5.0057267e+106
-5.0052584e+106
-4.9928563e+106
-5.0175822e+106
-5.0179095e+106
-5.031523e+106
-5.0312106e+106
-5.0306129e+106
-5.0168647e+106
-5.0168446e+106
-5.0305692e+106
-4.9963954e+106
-5.008733e+106
-5.0081106e+106
-4.9957767e+106
-4.9948035e+106
-5.0072e+106
-5.0065479e+106
-4.9942043e+106
-5.0208628e+106
-5.0343253e+106
-5.0337304e+106
-5.0202784e+106
-5.0192874e+106
-5.0327946e+106
-5.0322534e+106
-5.0187982e+106
-5.0473809e+106
-5.0619178e+106
-5.0614432e+106
-5.0468164e+106
-5.0459091e+106
-5.0606389e+106
-5.0601368e+106
-5.0454558e+106
-5.0764702e+106
-5.0926739e+106
-5.0923575e+106
-5.0761086e+106
-5.0751688e+106
-5.0914165e+106
-5.0910386e+106
-5.0748565e+106
-5.0446137e+106
-5.0593002e+106
-5.0590354e+106
-5.0443234e+106
-5.0438055e+106
-5.0437552e+106
-5.0585153e+106
-5.0584806e+106
-5.0739441e+106
-5.0903336e+106
-5.0901326e+106
-5.0737605e+106
-5.0731978e+106
-5.0730716e+106
-5.0894131e+106
-5.0894301e+106
-4.8452929e+106
-4.8450878e+106
-4.8559129e+106
-4.8555663e+106
-4.8555464e+106
-4.8554433e+106
-4.845095e+106
-4.8451343e+106
-4.7964266e+106
-4.7957658e+106
-4.8126025e+106
-4.8130781e+106
-4.8311167e+106
-4.8309353e+106
-4.846692e+106
-4.8461613e+106
-4.8574937e+106
-4.8568743e+106
-4.8565117e+106
-4.8560458e+106
-4.8457908e+106
-4.8454492e+106
-4.7959061e+106
-4.8133243e+106
-4.8127598e+106
-4.795713e+106
-4.8312386e+106
-4.8318462e+106
-4.8667977e+106
-4.8662483e+106
-4.8757929e+106
-4.8763619e+106
-4.8860138e+106
-4.8960561e+106
-4.8954653e+106
-4.885479e+106
-4.8749048e+106
-4.8657768e+106
-4.8753003e+106
-4.8654185e+106
-4.884809e+106
-4.894789e+106
-4.8844786e+106
-4.8943715e+106
-4.865047e+106
-4.8647406e+106
-4.8744988e+106
-4.8741447e+106
-4.8836993e+106
-4.8939919e+106