/*--------------------------------*- C++ -*----------------------------------*\
  =========                 |
  \\      /  F ield         | OpenFOAM: The Open Source CFD Toolbox
   \\    /   O peration     | Website:  https://openfoam.org
    \\  /    A nd           | Version:  7
     \\/     M anipulation  |
\*---------------------------------------------------------------------------*/
FoamFile
{
    version     2.0;
    format      ascii;
    class       volVectorField;
    location    "1000";
    object      UMean;
}
// * * * * * * * * * * * * * * * * * * * * * * * * * * * * * * * * * * * * * //

dimensions      [0 1 -1 0 0 0 0];

internalField   nonuniform List<vector> 
33730
(
(-27733145 -6278110.5 2344166.6)
(-27310154 -1900033.1 1633915)
(-24116971 -7651308.3 -1212623.6)
(-24241718 -3688683.7 3285082.8)
(-25555071 -1704489 2452710.9)
(-20791454 -2544480.5 2292155)
(-26620596 -2682948.5 2673848.9)
(-24516551 -3882885.8 2949807.4)
(-26536791 -2093203.3 2519173.7)
(-27386050 -1343582.7 -916455.55)
(-28584635 -1628840.7 724508.26)
(-27123296 -2153594.1 1967612.2)
(-24581206 -1274915.9 1678759.1)
(-26756072 -1707147.9 1695471)
(-23823287 -3110579.3 -3564292.5)
(-23533031 -3259779.5 -3495643)
(-18975502 -4908229 -616427.66)
(-18357337 -4345343.2 -731704.95)
(-22746464 -1813687.8 -2923394.9)
(-19061419 -2264909.5 -3604266.3)
(-13636642 -3578384.4 -485130.93)
(-20644644 -2397794 2717921)
(-20834269 -2292766.5 2471172.6)
(-25620041 -1547480.8 2827204.5)
(-25332640 -2216844.1 2909326.1)
(-17369217 -1632074 1906546.2)
(-17364899 -1640934.8 1878938.6)
(-22284905 -1290240.1 2195961.1)
(-22323017 -1619700.2 2208059.3)
(-20605860 -2288236.1 2373267.5)
(-20282137 -2148185.4 2417298.5)
(-25228690 -1455045.3 2557070.6)
(-24879682 -1816313.3 2491648.7)
(-28188523 -1960419.1 913379.64)
(-27068172 -1218305.4 -797491.87)
(-27034173 -1411018 -733305.01)
(-28008526 -1497317.2 782456.12)
(-24905068 -942143.26 -1330831.9)
(-25658305 -1265145.3 -687018.74)
(-25127041 -1041976.6 -1320607.4)
(-25515052 -1071241.2 -702238.43)
(-27777645 -1113696.5 -744762.34)
(-25207020 -1344677.2 -158270.16)
(-25053674 -1147443.3 -213852.69)
(-25706039 -1224797.6 1140136.7)
(-25267363 -878607.11 -1539290.1)
(-25336887 -1124980.1 -1471927.3)
(-24488536 -1675621.5 1963281.8)
(-24604749 -1173356.3 1849549.7)
(-21287407 -1055299.4 1599050.4)
(-21396115 -1405772.5 1592684.2)
(-24265288 -1053600.3 1791235.4)
(-24117690 -1448407.9 1768706.9)
(-22713809 -1224865.2 -2515600.2)
(-23053490 -783032.68 -2590344.8)
(-22189351 -1255259.4 -2972446.1)
(-22049677 -1313782.5 -2975350.7)
(-23184069 -1072232.7 -2635515.1)
(-22387228 -1450731.1 -2917299.7)
(-22213873 -1735852.6 -3017311.4)
(-22786851 -1701739.4 -2540417.4)
(-18644621 -1805393.8 -3582039.6)
(-18421153 -1605930.6 -3574280.7)
(-13428778 -2617103 -344371.49)
(-13557981 -3214794.3 -356202.4)
(-18790951 -1911568.9 -3586324.2)
(-18498809 -1969037.6 -3601903.4)
(-13415564 -2876287.3 -265454.75)
(-13780399 -3249590.6 -229454.22)
(-24148009 -1497442.3 -3274921.1)
(-19609400 -974893.84 -3320760.1)
(-19567424 -1177786.2 -3308129.4)
(-16386126 -1295301.7 -3811506.2)
(-16407614 -1260481.2 -3809032.7)
(-11598174 -1586637 -3418822.3)
(-11548496 -1487949.8 -3379374.4)
(-9494601.5 -2260863.8 333067.58)
(-9568476.9 -1851762.5 470753.72)
(-22425793 -1272571.2 2520344.9)
(-17564343 -1504025.4 2080479.6)
(-17343845 -1555656 2159260.8)
(-22140328 -1673663 2485501.7)
(-17349102 -1456975.1 1955102.7)
(-17339024 -1447011.9 2033652.2)
(-22211879 -1111707.5 2297594.2)
(-22277473 -1458015.9 2354028)
(-15077375 -1211601.1 1761533.8)
(-14958341 -1137672 1815996.6)
(-19201454 -1150506 2096913)
(-19126745 -1347519 2113757.3)
(-14975276 -1169854.4 1801995.2)
(-14999593 -1193611.5 1837292.4)
(-19075972 -1036220.2 2133007.3)
(-19152804 -1251755.2 2146622.5)
(-17271764 -1417152.8 1932311.2)
(-17298860 -1452730.6 2038749.6)
(-22059432 -1044509 2273372)
(-22110987 -1375697.7 2329308.5)
(-17354116 -1459030.9 1942136.6)
(-21982360 -1146969 2267477.8)
(-17120117 -1416032.1 2016056.9)
(-21745179 -1468420.4 2247054.3)
(-21991719 -862902.58 -1043094.9)
(-22136084 -887610.58 -889736.98)
(-25401164 -898980.06 -1311136.3)
(-24712900 -745190.31 -1810284.9)
(-25785009 -1181890.5 1299422)
(-25436805 -1547618.3 1310594.9)
(-24950346 -1288663.9 -18948.442)
(-25025566 -1080918.9 -142735.75)
(-25160650 -920803.42 -543369.99)
(-24534035 -801530.43 -1135465.6)
(-24254259 -878043.61 -1191534.2)
(-24915321 -1112730.5 -563819.78)
(-25421926 -993077.02 -606757.01)
(-24891589 -867222.65 -1266101.4)
(-24807200 -1006496.2 -1120209.9)
(-27461584 -1355395.1 -635190.25)
(-25219759 -1224257.2 -531392.01)
(-24904012 -953764.33 -1454995.2)
(-25429690 -1048710.4 1262861.8)
(-24721410 -1006896.2 -69702.842)
(-24529706 -1183210 -88446.416)
(-25118036 -1397979.9 1186337.1)
(-21841448 -779976.07 -1136466.7)
(-21787653 -867225.75 -1107651.3)
(-21937306 -905470.42 -938062.66)
(-25292321 -855876.94 -1369486.6)
(-21993427 -880759.38 -967553.41)
(-21561695 -919993.58 -937467.32)
(-21609809 -922572.55 -958033.14)
(-21779264 -995749.26 -638060.8)
(-21858802 -938473.89 -638664.22)
(-21935922 -812238.51 -1148551.7)
(-22030368 -856951.77 -1137445.9)
(-22063562 -909259.34 -969802.01)
(-22136710 -891163.52 -967641.27)
(-25653650 -1027144.1 -1363671)
(-21463768 -903612.58 -939638.58)
(-21410376 -944343.54 -924310.98)
(-21661431 -943469.56 -624871.05)
(-21704521 -979366.42 -654010.62)
(-24869513 -885204.53 -1918657.2)
(-24725867 -714294.96 -1844108.1)
(-21504491 -949856.41 -495518.12)
(-22168115 -991114.02 104599.7)
(-21468967 -1031933 -466744.21)
(-21977379 -982040.28 132778.44)
(-21391821 -1020186.6 -476978.12)
(-21308833 -957070.9 -467775.47)
(-21994415 -1137559.3 103242.98)
(-21696565 -1212410.1 600005.9)
(-22458142 -1342181.4 1504478.9)
(-21612125 -1010110.8 605453.29)
(-22426432 -1036239.4 1550857.9)
(-21822768 -999425.31 549995.72)
(-24591725 -649974.25 -2699845.9)
(-27829720 -873200.83 -1087923)
(-23410235 -484188.18 -2298060.6)
(-25574844 -662608.45 -1759514.1)
(-25751750 -929057.18 -1855485.4)
(-23340786 -767291.77 -2384050.1)
(-23290923 -615928.61 -2306790.8)
(-25614785 -795115.2 -1726666)
(-21250338 -1362035.5 1773576.1)
(-21393903 -982203.97 1741096.3)
(-21365844 -1252304 1676087.5)
(-21222762 -882217.54 1644498.6)
(-18153034 -886196.72 1662880.6)
(-18276850 -1128014.6 1671272.8)
(-18254247 -935589.42 1578153.5)
(-18253341 -1151732.2 1628772.3)
(-21067386 -824195.88 1665988.6)
(-21201190 -1183067.5 1691577.7)
(-20995967 -876780.42 1594788.4)
(-20895901 -1184164.3 1632805.7)
(-26940547 -1913922.8 -2643915.3)
(-27089893 -2273304.6 -2675270.2)
(-22996663 -979838.95 -2094026.7)
(-23152080 -471755.47 -2109490.9)
(-23537109 -1064839.9 -3252572.6)
(-23603926 -1259334.6 -3283358.9)
(-23208351 -715238.63 -2095375.9)
(-23830527 -1268157.7 -3205119.2)
(-23843050 -1502957.8 -3343524.8)
(-23087138 -1269180.3 -2134560.6)
(-19191203 -548647.1 -3277151.5)
(-19056367 -756725.15 -3238739.7)
(-15952576 -932363.8 -3744239.5)
(-16092124 -874292.47 -3745136.2)
(-16123754 -895731.48 -3753636.7)
(-19212715 -595156.63 -3304780.2)
(-19050668 -920341.49 -3264698.5)
(-15962718 -1071013.7 -3804993.4)
(-11504201 -1265899.8 -3362415.3)
(-11217872 -1232760.7 -3356257)
(-9808420.7 -2015106.6 585195.77)
(-9538997.1 -1553069.3 589508.37)
(-11420822 -1242855.7 -3352223.8)
(-11276081 -1160467.2 -3293472.6)
(-9558692.8 -1967562.1 420145.52)
(-9637245.8 -1610204.5 637592.26)
(-19357708 -703359.64 -3258636.8)
(-19245162 -937486.12 -3219341.9)
(-16082626 -1077739.6 -3750065.8)
(-16224763 -1006629.3 -3762822)
(-19236078 -1190980.3 -3336940.9)
(-19418760 -788102.31 -3346121.7)
(-16282798 -1046518.2 -3797152.7)
(-16120585 -1311429.1 -3884808.2)
(-11267343 -1470403.1 -3399014.7)
(-9795390.2 -2050040 612421.39)
(-9525978.5 -1746926.6 609615.59)
(-11507350 -1356095.5 -3379467.1)
(-11473005 -1320118.7 -3370029.9)
(-11282277 -1244535.4 -3306927.8)
(-9586803.8 -1997673.5 452467.84)
(-9581913.6 -1589152.1 616044.49)
(-24789626 -1204622.7 -2706458.3)
(-19795728 -1137538.7 -3472164)
(-19762776 -808314.89 -3421438)
(-17291311 -1246051.8 -4184724.6)
(-17267822 -1155658.4 -4158957.6)
(-11839567 -779809.16 -3570798.4)
(-11896606 -856055.07 -3542315.8)
(-8734877.2 -1011120.7 -3749230.8)
(-8658767.7 -1064786.2 -3710617.4)
(-11883646 -785161.2 -3555258.2)
(-11892972 -926227.49 -3584231.6)
(-8773390.5 -1001130.8 -3677886.3)
(-8641122.7 -1124069.3 -3767579.8)
(-6404980.8 -1370790.3 -1580760.9)
(-8986019 -1257881.4 1090082.2)
(-6494724.7 -1456249.2 -1221204.4)
(-9127633.5 -1159153.7 1249733.4)
(-6531211.4 -1396804.2 -1412685.6)
(-6410361.2 -1444817.6 -1327762.9)
(-9157666 -1309739 1192426.2)
(-9077714.8 -1072847.5 1216704.8)
(-19140921 -941784.51 2211584.8)
(-15073909 -1057793.3 1878816.6)
(-15055325 -1035008.1 1923049.6)
(-19191726 -1128264.6 2250803.6)
(-15121367 -1069210.3 1880316.3)
(-15005421 -1073199.7 1965427.2)
(-19139144 -1035093.4 2264002.8)
(-19014033 -1279206.3 2275309.7)
(-14933123 -1023518.9 1819655.6)
(-14995703 -1053969.2 1880038.2)
(-18985618 -862739.53 2166749)
(-19095703 -1088333.2 2207436.2)
(-15005051 -997874.31 1920253.3)
(-15104216 -1060614.5 1842537)
(-19163581 -991732.66 2192464.9)
(-19077715 -1181466.5 2202656.3)
(-12703923 -913326.55 1715268)
(-12695625 -1049204.3 1694205.4)
(-16659206 -913101.77 1875836)
(-16664597 -987503.9 1849333.1)
(-12733961 -831016.23 1788356)
(-12707323 -953248.59 1689066)
(-16628201 -907806.69 1903276)
(-16595958 -1063242.4 1898348.1)
(-12719726 -957115.81 1763793.4)
(-12727030 -980252.32 1747227.4)
(-16568228 -843031.51 1941614.6)
(-16610949 -996712.44 1950531.3)
(-16647655 -946667.72 1919757.8)
(-12710270 -1000214.9 1692295.7)
(-12770708 -898062.6 1797996.7)
(-16683878 -1080062.3 1945568.3)
(-14940076 -1007815.6 1840293.7)
(-14942567 -1051825.6 1872889.4)
(-18952400 -820582.93 2173682.4)
(-19007984 -1045280.3 2186873.9)
(-19042026 -962175.99 2177262.9)
(-15025773 -1070606.4 1823086.1)
(-14979228 -1018650.1 1931268.8)
(-18971110 -1158590.2 2201504.8)
(-14920927 -1056710.2 1792441.4)
(-14858544 -1013531.3 1810269.3)
(-18876161 -904854.2 2091038.9)
(-18889241 -1059755.4 2101490.3)
(-18859850 -928360.58 2155899.9)
(-14913405 -1005522 1794479.9)
(-14787084 -965337.38 1871701.1)
(-18719507 -1131059.4 2155934.4)
(-22315997 -735960.8 -1084612.5)
(-18804869 -712555.54 -662806.19)
(-18888025 -760168.26 -684905.46)
(-22482905 -824509.7 -926616.99)
(-19103235 -743214 -888841.99)
(-19019607 -684247.82 -866395.64)
(-18164331 -714459.57 -680264.3)
(-18341790 -727696.84 -608932.62)
(-18252725 -739982.82 -683208.79)
(-22313223 -801833.83 -1140422.8)
(-22210109 -657106.72 -1284639.1)
(-22925706 -767095.4 -1158590.1)
(-22804188 -714090.15 -1489023.6)
(-22844431 -585519.15 -1568356.2)
(-22707426 -636432.26 -1385167.5)
(-21654589 -1106935.9 610537.82)
(-21571888 -905257.57 605045.31)
(-22413943 -904525.38 1601825)
(-22449093 -1242582 1580603)
(-22496426 -1007934.9 1653089.9)
(-21586197 -1201071.7 722731.16)
(-21640214 -934037.28 646670.97)
(-22251886 -1345825.6 1639511.1)
(-21960092 -921991.27 201832.6)
(-21329620 -883926.45 -414708.53)
(-21253960 -1025603.5 -367139.82)
(-21827956 -1151637.8 231687.6)
(-21995386 -894897.25 176114.85)
(-21345438 -936227.61 -451771.72)
(-21253354 -875813.11 -438746.22)
(-22017324 -1060929.2 164002.73)
(-21503755 -793577.98 -494251.64)
(-21168497 -788834.46 -851272.89)
(-21177051 -780266.75 -829376.3)
(-21486848 -875526.61 -525649.87)
(-21702652 -776109.06 -863785.99)
(-21524605 -682487.66 -1037675.9)
(-21270874 -718065.98 -1105630.7)
(-21404197 -783019.86 -1098801.5)
(-21513913 -810555.04 -931915.62)
(-24627431 -877600.21 -1229940.8)
(-21411319 -808255.72 -923926.11)
(-20940223 -828123.42 -901144.85)
(-21254564 -833481.17 -624661.58)
(-21019488 -832468.04 -927390.26)
(-21119527 -880371.5 -633199.06)
(-23864548 -747534.8 -1684902.2)
(-21643796 -856666.37 -556679.36)
(-21382961 -824271.7 -921886.9)
(-21335647 -851397.7 -890852.03)
(-21699266 -916308.13 -579627.67)
(-21928046 -810372.25 -947545.78)
(-21882103 -806502.98 -900871.53)
(-21745978 -784272.73 -1081186.3)
(-21768146 -708468.4 -1148409.1)
(-25378185 -838006.74 -1325798.9)
(-21727749 -822037.97 -995076.66)
(-21830076 -794697.81 -1004400.5)
(-21937580 -838009.31 -838505.02)
(-25245506 -953743.14 -1198575.5)
(-21847201 -919971.05 -823394.37)
(-24505088 -702699.92 -1906295.9)
(-24645177 -765114.12 -1670081.8)
(-21380291 -935824.46 -792429.14)
(-21509195 -980230.11 -549124.17)
(-21427934 -857285.88 -836717.76)
(-21628871 -871576.64 -556353.29)
(-24496094 -495047.24 -2587917.2)
(-24594954 -979328.84 -2613550.7)
(-27680176 -1097898 -1004218.7)
(-22538317 -576063.82 -2176206.4)
(-24691338 -746829.76 -1597590.8)
(-25389701 -723394.44 -1829366.8)
(-22753959 -532189.64 -2347805.7)
(-25423345 -800872.72 -1593626.4)
(-22956735 -649785.04 -2297459.1)
(-21477203 -1061898.9 660649.89)
(-21435614 -847665.39 672565.92)
(-22204382 -835358.59 1609654.5)
(-22258399 -1170044 1593530.9)
(-21128119 -817585.98 -365473.77)
(-21790670 -1012589.1 201358.1)
(-21794227 -826822.7 231421.97)
(-21158928 -907969.56 -391754.35)
(-20870429 -931305.32 -458888.85)
(-20974610 -857963.31 -478230.12)
(-21585102 -877055.12 126830.1)
(-21437320 -1044970.6 128921.57)
(-21221694 -1084655.3 621176.53)
(-21836662 -1176007.4 1476500.8)
(-21286687 -872135.32 573942.55)
(-22034046 -907937.66 1498353.2)
(-18709355 -760809.61 -752633.66)
(-18669060 -737887.17 -811385.65)
(-22300802 -755392.06 -1064184.3)
(-18875921 -713544.25 -1023928.9)
(-18908976 -731438.68 -969482.01)
(-18655755 -776637.32 -733363.49)
(-18749332 -778426.5 -730701.05)
(-22246011 -818474.14 -1020612.2)
(-18954273 -750983.32 -928716.99)
(-18868522 -743483.74 -943497.84)
(-18030953 -781445.47 -739089.98)
(-18206706 -789807.84 -656207.86)
(-18118364 -767591.8 -727649.98)
(-18313798 -794509.63 -654141.62)
(-22181824 -678923.82 -1269647.6)
(-22146083 -793076.68 -1228135.9)
(-18078339 -770229.08 -766416.58)
(-18246991 -772239.54 -687303.12)
(-18049218 -734214.75 -802727.89)
(-18226906 -755390.46 -724484.31)
(-17880591 -747696.42 -743034.15)
(-17845835 -731836.89 -758524.89)
(-18098205 -765962.35 -665276.36)
(-18069997 -771977.08 -676411.66)
(-17850291 -757066 -752616.68)
(-18078394 -779113.11 -677702.85)
(-17988658 -747938.94 -732225.53)
(-18215129 -784632.3 -661211.66)
(-17691297 -759628.02 -668005.4)
(-18070604 -763591.75 -513561.06)
(-17675134 -774076.48 -663540.56)
(-17652276 -775034.62 -680839.55)
(-18050001 -777723.02 -521013.24)
(-17789926 -784263.01 -652518.09)
(-18181586 -820670.75 -503795.97)
(-18777683 -738168.07 -753217.37)
(-18713384 -722647.6 -806952.58)
(-22376598 -795838.51 -1102542.4)
(-18931287 -703674.35 -1020396.1)
(-18991467 -711858.02 -967433.31)
(-18770323 -734321.14 -755002.48)
(-18893572 -750519.85 -765337.92)
(-22507307 -830487.92 -1069013.5)
(-19116798 -729050.64 -970433.31)
(-18987906 -703015.42 -962397.16)
(-18144584 -739822.08 -762175.51)
(-18306318 -743764.88 -684592.44)
(-18095918 -712961.71 -793192.53)
(-18265368 -735538.16 -717342.52)
(-18124073 -738040.86 -766846.74)
(-18292535 -750989.4 -687386.82)
(-18246015 -732621.24 -758077.71)
(-18433043 -760279.42 -682284.66)
(-22467755 -808658.55 -1277426.7)
(-22335719 -715543.52 -1292493.6)
(-17819675 -781607.87 -742767.31)
(-18040360 -796575.62 -667315.66)
(-17801744 -757702.09 -763398.99)
(-18025333 -791788.16 -684821.83)
(-17772602 -793179.2 -714963.75)
(-17999841 -812865.15 -640215.28)
(-17880351 -786399.85 -700089.2)
(-18103563 -820095.47 -634200.16)
(-17590423 -810317.75 -641214.23)
(-17961892 -805223.86 -491616.16)
(-17696966 -825170.5 -622975.46)
(-18068278 -854344.49 -485177.46)
(-17637118 -796284.34 -668071.94)
(-18006126 -797005.21 -522367.07)
(-17630770 -799936.87 -669101.59)
(-17982837 -826691.64 -535247.16)
(-22997583 -606568.63 -1585724.4)
(-23055497 -759335.1 -1602161.4)
(-23108120 -801287.72 -1293617.3)
(-22891273 -696257.65 -1370346.1)
(-22818310 -578117.96 -1574751.9)
(-22762222 -678977.24 -1515103.2)
(-22649699 -742676.95 -1310553)
(-22683749 -653067.57 -1384812.1)
(-17738914 -782311.28 -584548.65)
(-17880039 -813499.57 -554836.7)
(-18203244 -806104.88 -442453.48)
(-18323451 -852296.21 -419373.6)
(-17945987 -805793.03 -392394.33)
(-18609870 -813034.09 -10577.325)
(-18073279 -857487.25 -358278.07)
(-18719025 -905498.27 9119.3048)
(-17782399 -767615.21 -576721.49)
(-18226056 -796199.24 -434759.28)
(-17851665 -833394 -355164.42)
(-17958009 -896848.21 -332236.62)
(-18509855 -833356.29 32627.749)
(-18603392 -942619.19 40172.949)
(-17718250 -804589.67 -579636.36)
(-18155879 -829869.35 -438442.83)
(-17709164 -828599.8 -574196.97)
(-18141325 -873722.49 -432226.65)
(-17658357 -808698.17 -553246.48)
(-18106162 -831019.56 -412477.67)
(-17775887 -849506.3 -533722.91)
(-18204500 -883114.88 -401280.66)
(-17914157 -827849.91 -387331.44)
(-17923371 -882741.81 -361975.94)
(-18558526 -845765.64 -13375.898)
(-18532476 -933540.94 -2692.9351)
(-18370534 -842058.88 167030.9)
(-19024071 -892872.22 722405)
(-18368182 -953585.76 202244.38)
(-19004144 -1051738.9 754012.7)
(-18545369 -876193.83 1088752.7)
(-19253447 -948910.92 1720758.6)
(-18568176 -1080436.1 1150790.2)
(-19215879 -1171190.8 1741530.2)
(-18297726 -828256.58 217654.92)
(-18967890 -856812.85 776670.28)
(-18414914 -962184.04 234904.14)
(-19041663 -1024430.5 776186.72)
(-18476341 -851539.47 1166960.3)
(-19182636 -879638.42 1811786)
(-18573066 -1065287.5 1174671.5)
(-19262608 -1123189.7 1787493.7)
(-19098681 -843684.67 724639.88)
(-18403038 -812044.44 168806.69)
(-18531572 -916437.16 200423.79)
(-23621904 -878000.79 -2654149.6)
(-25348712 -630829.77 -1355268)
(-22607634 -693742.33 -1764742.7)
(-22656747 -746177.51 -1840760.2)
(-25420835 -866241.45 -1421682.8)
(-22946505 -444558.56 -2697233.8)
(-22926141 -393710.06 -2677717.6)
(-24237504 -463968.92 -1859231.1)
(-24283147 -486494.62 -1966581)
(-23338084 -501923.71 -2084968.3)
(-23297227 -513753.89 -1994617.5)
(-23338083 -621309.42 -1654435)
(-23420808 -531558.43 -1713676.7)
(-23823731 -756188.69 -1634717)
(-23592134 -634216.51 -2105191.5)
(-23544451 -487219.47 -2055181.1)
(-23642472 -582037.66 -1686780.9)
(-23121972 -510974.05 -2725309.5)
(-23193089 -579305.12 -2715392)
(-24570775 -660833.39 -1976452.1)
(-24517632 -558688.22 -1943596.1)
(-23099927 -656184.8 -2567869)
(-24451628 -680062.8 -1611519.8)
(-24451792 -647094.37 -1770037.7)
(-23461874 -703271.8 -1566427.2)
(-23398284 -636487.81 -1854070.8)
(-23353862 -577387.82 -2046908.5)
(-23498152 -600876.61 -1650070.6)
(-18201415 -826255.61 1712893.2)
(-18164301 -1092937.3 1769820.9)
(-18200694 -772111.74 1691478.4)
(-18310592 -999895.63 1714898.5)
(-18213203 -783218.19 1653251.1)
(-18205554 -989322.5 1701961.6)
(-18048777 -718391.4 1684408.3)
(-18223506 -978608.72 1711889.8)
(-15845622 -729134.08 1589630.5)
(-15902472 -938150.99 1585241.5)
(-15880567 -790969.78 1515148.9)
(-15957023 -975827.58 1547164.2)
(-15863288 -775566.1 1469194.8)
(-15919509 -922263.71 1469288.4)
(-15850939 -755289.1 1497458.9)
(-15902560 -971194.21 1542581.3)
(-18053842 -689776.87 1714335.7)
(-18164917 -938150.63 1718930.1)
(-18138442 -759814.61 1659489.7)
(-18137945 -978381.3 1722395.4)
(-17968545 -744147.8 1631559.6)
(-18035200 -939781.7 1635420.4)
(-17923755 -736861.42 1630385)
(-17875235 -953304.02 1678173.1)
(-27578834 -1471501.8 -1441643.8)
(-27735917 -1727382 -1407582.7)
(-28244386 -1433556 -396855.66)
(-23765271 -826160.02 -1468719.6)
(-24097747 -511128.46 -1526234)
(-24171321 -828933.78 -2679330.9)
(-19343284 -415084.21 -3365515.4)
(-19310159 -752400.41 -3401622.8)
(-24223591 -994274.68 -2644544.3)
(-19387255 -486242.78 -3373669.7)
(-19334351 -857878.09 -3418363.5)
(-24164617 -752267.97 -1496892.3)
(-24497004 -1019208.5 -2594988.8)
(-19535699 -578930.02 -3355638.4)
(-19488992 -910584.27 -3376291.8)
(-24493084 -1187325.4 -2715734.3)
(-19601901 -648070.97 -3425364.1)
(-19583939 -1079016.8 -3512570.8)
(-23905500 -1074572.2 -1486014)
(-16846013 -919438.45 -4125587.5)
(-16908247 -816746.95 -4090022.9)
(-16990049 -883044.99 -4101330)
(-16896476 -1001364.4 -4149315.4)
(-11673247 -486751.75 -3521206.8)
(-11693291 -566636.15 -3487165)
(-8624568.4 -740846.6 -3707443.8)
(-8474346.6 -768346.26 -3696709.6)
(-11647237 -505989.72 -3533255.2)
(-11619873 -680320.38 -3556414.9)
(-8407258.5 -878200.29 -3778930.2)
(-8555254.6 -699851.11 -3687466.9)
(-6425207.6 -1155475.9 -1544252.5)
(-9091952.2 -1079677.1 1130204.1)
(-6455835.4 -1198428.8 -1238686.2)
(-9155135.5 -925869.44 1244026.6)
(-6485750.4 -1110802.3 -1397458.4)
(-9262731.6 -1015557.7 1267680.2)
(-6376146.8 -1216897.5 -1292172.5)
(-9134171.4 -819593.68 1285017.7)
(-11674522 -461960.76 -3517273.9)
(-11690941 -539819.05 -3479246.7)
(-8620607.3 -729941.15 -3685174.3)
(-8476143.7 -770543.87 -3665786.4)
(-11600872 -458774.22 -3498374.1)
(-11597706 -610899.94 -3521521.6)
(-8541563.3 -689640.11 -3639684.7)
(-8398665.2 -827753.6 -3735799.7)
(-6359970.5 -1128297.6 -1572061.1)
(-6443978 -1227053.8 -1227110.1)
(-9174762.2 -998690.46 1287599)
(-9018046 -1049163.9 1138381.9)
(-9296772.9 -1119092.7 1286278.9)
(-9229885.7 -914981.18 1324092.5)
(-6477751.2 -1142643.7 -1374080.6)
(-6392620.8 -1218253.3 -1259412.9)
(-17019104 -1055575.5 -4119676.7)
(-17100631 -964101.49 -4105325.6)
(-17165000 -1006681.3 -4141247.5)
(-17071835 -1167707.9 -4221630.9)
(-11759759 -682969.09 -3580876.4)
(-8608077.4 -868409.81 -3730244.5)
(-8495528.1 -1074235 -3824300.1)
(-11751131 -876982.38 -3623549.2)
(-6495512.9 -1306077 -1152837.5)
(-6441933.6 -1213509.2 -1487176.8)
(-9164320 -1078392.9 1164169.3)
(-9279298.8 -974784 1307367.6)
(-6482788.7 -1237380.2 -1404060.9)
(-9286870 -1100398.8 1261986.8)
(-9171485 -984612.27 1306244)
(-6366969.6 -1384335.1 -1365976.8)
(-11797339 -711695.27 -3522390.6)
(-11762035 -606893.82 -3549293.7)
(-8643181 -829473.94 -3747872.1)
(-8520730 -913858.79 -3728198.4)
(-11745017 -563757.27 -3528524)
(-11772887 -643317.71 -3491360)
(-8661633.4 -805178.33 -3727669.8)
(-8520672.1 -854429.72 -3712642.1)
(-11675117 -576747.62 -3500262.4)
(-11652735 -714389.65 -3518195.4)
(-8560914.7 -788248.38 -3676749.7)
(-8397855 -910514.15 -3763406.8)
(-6447371.6 -1190158.7 -1517754.7)
(-6518290.8 -1280384.3 -1183287.5)
(-9254448.3 -994746.67 1294374.6)
(-9069504.3 -1052911.9 1143855)
(-6370160.5 -1258098.5 -1244120)
(-9368003.6 -1113188.6 1295825.8)
(-9223590.5 -880948.17 1278396.2)
(-6534959.1 -1211640.9 -1324804.4)
(-20811113 -1049650 -3178981.5)
(-20821617 -750950.41 -3154969.8)
(-25531468 -1013137.9 -1647358.4)
(-21050938 -610876.91 -2710877.2)
(-21131354 -1023124.6 -2775314.8)
(-17965362 -992618.8 -3678245.6)
(-18044623 -635222.62 -3661321.2)
(-15232712 -664894.96 -3890282.7)
(-15178704 -892310.84 -3988637.6)
(-11237910 -764736.18 -3816087.6)
(-11290178 -905002.32 -3909709.3)
(-18012222 -884709.67 -3652026)
(-18041498 -556322.78 -3708309)
(-11227564 -763316.23 -3871696.1)
(-15204524 -649621.66 -3982832)
(-15150960 -853656.2 -3908075.9)
(-11262086 -889772.76 -3854343.6)
(-8960102.8 -708282.1 -3690877.9)
(-8947986.8 -642479.5 -3705507.2)
(-7117478.6 -642732.86 -3726268.7)
(-7103439.3 -786871.17 -3685612.8)
(-7049396 -632436.84 -3631931.5)
(-8912979.9 -659207.43 -3654564.7)
(-8913138.4 -769805.75 -3661340.9)
(-7042282.6 -817973.92 -3681908.6)
(-7093168.7 -637933.59 -3678518.9)
(-8929666.1 -631864.28 -3651207.8)
(-7078093.3 -774085.94 -3644146.1)
(-8942467.5 -699063.3 -3641576.7)
(-8972831.8 -659379.43 -3696582.1)
(-8980842.5 -800730.2 -3719108.8)
(-7102789.1 -619380.46 -3662613.4)
(-7114441.9 -845767.86 -3732715.4)
(-5067747.1 -757958.62 -3549595.7)
(-5086461.6 -544482.95 -3595402.2)
(-2695482 -663057.84 -3037973.3)
(-2731473.9 -937096.74 -2912445.6)
(-9490184.8 -1065648.1 1575703.8)
(-2408001.2 -321272.94 -2297060.6)
(-2652261 -573446.95 -2177295.6)
(-9582310.4 -827804.35 1653855.7)
(-2708697.9 -721809.02 -2756106.4)
(-5018685.1 -558865.79 -3507005)
(-5008613.4 -779933.96 -3550630.4)
(-2617998.9 -902926.13 -2954724.4)
(-2341863.5 -456784.54 -2408094.2)
(-2606552.7 -311151.62 -2133632.1)
(-9673729.6 -1084524.4 1694005)
(-9448679.5 -705418.46 1538628)
(-2717825.2 -677707.79 -2939836)
(-5065660.8 -551171.33 -3557406.9)
(-5050569.4 -746872.29 -3518934)
(-2702387.7 -885639.82 -2881336)
(-2726333.1 -651528.08 -2810006.3)
(-5052406.4 -531358.87 -3532838)
(-5076442.5 -809869.46 -3591938.6)
(-2671931.2 -917009.51 -3022023.7)
(-9512576 -1123695.9 1563655.8)
(-2505220.7 -345165.01 -2253443.4)
(-2549216.5 -474909.69 -2251685.6)
(-9515111.6 -753176.87 1566208.2)
(-2402783.3 -475340.62 -2379065.8)
(-2590867.9 -252325.4 -2162179.6)
(-9677399.9 -1036474.3 1692233.5)
(-9461381.5 -612765.91 1565581.4)
(-12829643 -790118.63 1822558.3)
(-12776567 -874196.45 1797080.6)
(-16603256 -732812.53 1963299.7)
(-16676594 -874277.04 2008722.7)
(-12849223 -719177.73 1861598)
(-12823430 -868670.79 1761665.5)
(-16695898 -806925.99 1973664.8)
(-16668215 -929187.06 1956252.3)
(-12787395 -812805.33 1782640.6)
(-12721045 -874716.08 1715474)
(-16624722 -777883.58 1914646.5)
(-16679618 -896457.2 1965280.1)
(-12829413 -804533.77 1874130.4)
(-12787069 -885419.86 1752888.9)
(-16621526 -833049.69 2011972.9)
(-16571396 -1007681.3 2008361.7)
(-12731271 -787643.57 1792771.3)
(-12681219 -849813.9 1776560.5)
(-16512528 -696850.34 1984390.4)
(-16545952 -844349.53 1972135.7)
(-12802126 -755038.34 1847213.6)
(-12703448 -867526.63 1707964.6)
(-16648393 -799334.75 1971857.5)
(-16629963 -928827.68 1952714.3)
(-12743409 -815278.39 1731958)
(-12738072 -754495.39 1827121.6)
(-16646474 -770127.33 1983251.3)
(-16568524 -920537.47 1946516.7)
(-12676846 -885483.52 1702970.1)
(-16630306 -767416.88 1906382.1)
(-16640859 -852326.11 1900209.6)
(-12759781 -771968.61 1768665.1)
(-12919206 -894584.83 1686239.5)
(-12896598 -839567.78 1695003.9)
(-12938590 -847000.72 1744425.7)
(-12874643 -778744.18 1661967.7)
(-12955173 -919349.24 1737175.1)
(-12968147 -792591.57 1783105.9)
(-12890565 -823062.45 1682513.2)
(-12998562 -895556.54 1745462)
(-16506019 -672435.95 1990316.5)
(-12750114 -802781.89 1805322.1)
(-12758662 -781406.57 1819988.5)
(-16584220 -824661.65 2025866.1)
(-12790066 -756799.49 1858704.5)
(-12725561 -852697.7 1741278.9)
(-16621103 -785700.29 1992861.1)
(-16576605 -906221.71 1960575.7)
(-12652688 -894976.15 1699974.7)
(-12734847 -805794.04 1775017.4)
(-16529587 -756133.1 1887199.1)
(-16613945 -856933.42 1943301.5)
(-16569180 -776622.27 1986535.8)
(-12759846 -844003.12 1752756.3)
(-12807652 -729062.91 1879375.3)
(-16554656 -927275.48 2009300)
(-12672029 -810686.51 1753527.5)
(-12620364 -867882.13 1706869.6)
(-16433110 -734494.96 1909951.2)
(-16498815 -870779.92 1949042.3)
(-12685463 -718456.8 1795100.3)
(-12642949 -863443.96 1683434.3)
(-16513120 -788342.97 1930646)
(-16452657 -897053.85 1885711.2)
(-12563677 -838346.43 1667364.1)
(-12651599 -775852.46 1738525.5)
(-16434223 -828587.21 1878299.6)
(-16429882 -722691.01 1881537.6)
(-12668122 -796171.15 1740946.4)
(-12659603 -706254.83 1819288.9)
(-16423535 -736182.21 1979102.7)
(-16336621 -885760.3 1936850.5)
(-26744766 -779267.98 -2569094)
(-19279279 -697145.95 -929059.04)
(-19160335 -691621.07 -1020779.4)
(-19046725 -654505.7 -1109482.9)
(-19158348 -678130.47 -1013262.3)
(-14420971 -562002.87 -503497.66)
(-14430213 -631664.11 -498550.19)
(-14847122 -568677.92 -514866.4)
(-14912505 -642225.07 -506049.69)
(-14880538 -587438.27 -535647.51)
(-14911480 -664289.72 -540416.68)
(-14425959 -579385.97 -539081.42)
(-14424290 -647519.32 -540590.45)
(-19387352 -665380.81 -811603.95)
(-19243658 -647219.24 -901843.82)
(-19287671 -714906.88 -940650.06)
(-19426080 -745342.09 -847368.64)
(-15013271 -672288 -553145.63)
(-15008307 -638812.17 -510124.56)
(-15115321 -634156.59 -578033.33)
(-14607539 -557176.7 -590059.33)
(-15033493 -580461.08 -594022.67)
(-14664413 -631025.32 -573205.66)
(-14769885 -562917.88 -587517.71)
(-15212445 -576075.31 -528362.22)
(-15311679 -643173.99 -507898.09)
(-14846738 -631287.67 -563950.08)
(-15131553 -659734.63 -595288.22)
(-14627440 -572314.34 -604425.14)
(-15073986 -596771.3 -601762.73)
(-14663956 -652366.48 -600769.73)
(-19706504 -653555.58 -922582.34)
(-19608897 -627116.31 -999487.42)
(-19616741 -669143.17 -1051780.2)
(-19704857 -704707.3 -974374.18)
(-19431020 -623833.39 -1216915.8)
(-19532044 -676540.11 -1128542.6)
(-19568733 -683976.44 -1059967.7)
(-19439728 -636293.67 -1161811.4)
(-20080894 -628640.81 -984084.02)
(-19944963 -612798.15 -1117068.3)
(-19904788 -610294.16 -1191786)
(-20035189 -661343.25 -1059944.1)
(-20487697 -621375.66 -1134811.6)
(-20501097 -594725.16 -1209197.7)
(-20442370 -556666.07 -1283695.5)
(-20391512 -588151.07 -1246109.4)
(-20420611 -565343.13 -1351295)
(-20469002 -660333.75 -1315779.3)
(-20401634 -664139.99 -1254727.7)
(-20287443 -571568.23 -1359060.9)
(-19946902 -663558.56 -1141037.8)
(-19927064 -659163.31 -1200163.8)
(-19841925 -594020.7 -1280239.3)
(-19817887 -604329.19 -1251755.5)
(-18295583 -730773.59 194703.56)
(-18290170 -851948.24 223690.73)
(-18941269 -775978.69 748669.69)
(-18912820 -942428.04 774492.61)
(-18175898 -709579.94 223585.33)
(-18856995 -726069.97 783571.24)
(-18353797 -850878.34 253572.29)
(-18981724 -913071.47 799333.68)
(-18343818 -708103.37 1168189.7)
(-19080217 -721224.41 1822417.3)
(-18508180 -940944.99 1192579.2)
(-19198363 -989404.99 1816492.4)
(-18471581 -747290 1123119)
(-19193115 -813265.06 1769034.9)
(-18484707 -950308.56 1176589)
(-19138072 -1029726.4 1783418.9)
(-18499444 -746071.59 1155007.5)
(-18594837 -946714.06 1180797.3)
(-19218566 -782765.02 1832191.9)
(-19283787 -1023933 1829494.2)
(-18323594 -769795.21 240619.79)
(-18303187 -941638.26 287065.85)
(-18959447 -818740.13 806411.17)
(-18915912 -1033795.6 847365.13)
(-18305608 -734838.16 221782.95)
(-18992426 -763395.98 785710.74)
(-18420820 -864358.8 249069.15)
(-19068827 -928890.07 802349.18)
(-18490304 -780487.27 1184845.9)
(-18494752 -1046775 1259196.9)
(-19179435 -864707.74 1833171.1)
(-19100994 -1130234.6 1858669)
(-17852488 -742325.88 -345247.22)
(-18518669 -744783.96 53784.484)
(-17959753 -813810.77 -313717.18)
(-18613104 -859301 72651.613)
(-17659657 -727241.05 -534905.65)
(-17788481 -779846.08 -506308.23)
(-18107160 -748604.24 -392280.25)
(-18209346 -809737.74 -372346.56)