/*--------------------------------*- C++ -*----------------------------------*\
  =========                 |
  \\      /  F ield         | OpenFOAM: The Open Source CFD Toolbox
   \\    /   O peration     | Website:  https://openfoam.org
    \\  /    A nd           | Version:  7
     \\/     M anipulation  |
\*---------------------------------------------------------------------------*/
FoamFile
{
    version     2.0;
    format      ascii;
    class       volScalarField;
    location    "9000";
    object      k;
}
// * * * * * * * * * * * * * * * * * * * * * * * * * * * * * * * * * * * * * //

dimensions      [0 2 -2 0 0 0 0];

internalField   nonuniform List<scalar> 
33899
(
1.5191864
1.5195048
1.5206512
1.5194361
1.5196067
1.5198528
1.5194215
1.5192241
1.5195079
1.5183794
1.5183399
1.5198705
1.5198721
1.5199395
1.5207908
1.5201516
1.520048
1.5199444
1.5201665
1.5211264
1.5200442
1.5205118
1.5197425
1.5195011
1.519431
1.5195726
1.5212075
1.519867
1.5198489
1.5194677
1.5195264
1.5199656
1.5211692
1.5209852
1.5176704
1.5178174
1.5176012
1.5174755
1.5184148
1.5174597
1.5175773
1.517784
1.5176571
1.5184211
1.5173477
1.5172802
1.5175324
1.5177669
1.5194944
1.5194911
1.519734
1.5197148
1.5198674
1.5199397
1.5197752
1.5196022
1.5196166
1.5197613
1.5197648
1.519551
1.5195561
1.5197694
1.520069
1.5198128
1.5199229
1.5199233
1.5198947
1.5199086
1.5199354
1.5199296
1.5199048
1.5198977
1.5198737
1.5198729
1.5201282
1.5202886
1.5201348
1.52026
1.5200802
1.519412
1.5171545
1.5170765
1.5201086
1.5207548
1.5201529
1.5205317
1.5197412
1.5215208
1.5196962
1.5205204
1.5194736
1.5194296
1.5195433
1.5213266
1.521304
1.5198834
1.5198428
1.5199082
1.5195642
1.5190805
1.5172334
1.5206674
1.5212573
1.5211687
1.5205875
1.5205927
1.5205529
1.5204366
1.5204921
1.5202924
1.5202343
1.5171785
1.5173702
1.517523
1.5175654
1.517388
1.5176305
1.5175638
1.5173474
1.5175891
1.5173736
1.5172151
1.5172312
1.5172059
1.5172227
1.5172598
1.5172593
1.517488
1.5172494
1.5172493
1.5172477
1.5173827
1.517489
1.5172459
1.5172366
1.5172326
1.5172394
1.5172145
1.517202
1.517223
1.5172363
1.5175522
1.5173253
1.5173668
1.517581
1.5176373
1.5175573
1.5173566
1.5173345
1.51753
1.5173662
1.5172845
1.5173334
1.5172528
1.5171869
1.5172019
1.5172193
1.5175669
1.5173328
1.5173685
1.5175866
1.5191717
1.5191763
1.5193834
1.5194044
1.5191342
1.519125
1.5193493
1.519342
1.5195241
1.5195182
1.5195378
1.5195472
1.5194997
1.5194766
1.5194796
1.5195021
1.5196373
1.519633
1.5196292
1.5196349
1.5195869
1.5196754
1.5196843
1.5197706
1.5197771
1.5196577
1.5196334
1.5196406
1.5196633
1.519521
1.5193178
1.5193164
1.51952
1.519375
1.5194089
1.5195396
1.519533
1.5196576
1.5196405
1.5196443
1.5196639
1.5196434
1.519618
1.5196117
1.5196348
1.5195023
1.5192685
1.5192653
1.5194857
1.5192166
1.5194566
1.5194404
1.5192233
1.5195892
1.5195753
1.519601
1.5195685
1.5198689
1.5198865
1.5198507
1.51984
1.5197414
1.5198708
1.5197706
1.5197577
1.5197508
1.5197635
1.5197406
1.5197345
1.5197304
1.5197256
1.5196846
1.5196799
1.5196829
1.5196906
1.5197263
1.5197103
1.519708
1.5197223
1.5197969
1.5197794
1.5197902
1.5197859
1.5197637
1.5197583
1.519763
1.5197677
1.5197935
1.5197817
1.5197912
1.5198001
1.5197685
1.5197639
1.5197709
1.5197744
1.5189729
1.5191453
1.5200825
1.5200753
1.5200904
1.5200573
1.5200452
1.5199591
1.5199558
1.5199671
1.5199705
1.5199809
1.5207269
1.5193432
1.5195244
1.5195257
1.519374
1.5194533
1.5194507
1.5194073
1.5194011
1.5195997
1.5169693
1.5172252
1.5171054
1.5170105
1.5168376
1.5167672
1.5206359
1.5202149
1.521889
1.5207968
1.5202631
1.5205584
1.5198799
1.5194422
1.5190543
1.5191413
1.5216786
1.5215517
1.5196633
1.5206203
1.5204552
1.5194541
1.5194278
1.5195113
1.5214934
1.5214581
1.5214081
1.5199057
1.5198938
1.519916
1.5186514
1.5191754
1.5161036
1.5190182
1.520697
1.5208093
1.5212193
1.5209085
1.5205482
1.5206296
1.5205269
1.520507
1.52061
1.5204805
1.5203435
1.520293
1.5203762
1.5204434
1.5203447
1.5203309
1.5202894
1.5202958
1.5202368
1.5202503
1.5202519
1.5202381
1.5201264
1.5201205
1.5201088
1.5201122
1.5200918
1.5200739
1.5199818
1.5199667
1.5197497
1.5197744
1.5200186
1.5198319
1.5200056
1.5198142
1.5169325
1.5169333
1.5169455
1.5173664
1.5171965
1.5172113
1.5171903
1.5171725
1.5174804
1.5172945
1.5174154
1.5174296
1.5172841
1.5172376
1.5174193
1.517431
1.5172448
1.5171361
1.5171422
1.5171236
1.5171195
1.5173799
1.5172735
1.517415
1.5174121
1.5172006
1.5172152
1.5170774
1.5170937
1.5170953
1.5170789
1.5171746
1.5173892
1.5173993
1.5172054
1.5170784
1.5170594
1.5170426
1.517062
1.5169803
1.5169804
1.5169716
1.5169716
1.5169632
1.5169471
1.5169382
1.5169563
1.516975
1.5169765
1.5169776
1.5169767
1.5169456
1.5169452
1.5169616
1.5169607
1.517021
1.5170262
1.5170136
1.5170191
1.517272
1.5170745
1.5170993
1.5170939
1.5170672
1.5172659
1.517207
1.5172035
1.5170659
1.5170897
1.5170858
1.5170594
1.5170151
1.51702
1.5170161
1.5170117
1.5171954
1.5173446
1.517255
1.5172602
1.5172191
1.5172227
1.5170409
1.5170351
1.5170385
1.5170444
1.5170233
1.5170242
1.5170268
1.5170253
1.517062
1.5170802
1.5170814
1.5170607
1.5170712
1.5170868
1.5170922
1.5170743
1.5170192
1.5170098
1.5170138
1.5170235
1.5169973
1.5169978
1.5170017
1.5170013
1.5169747
1.5169745
1.5169876
1.5169879
1.5169979
1.5169855
1.5169979
1.5170095
1.5174751
1.5172569
1.5172855
1.5174889
1.5171375
1.5171199
1.5171295
1.5171471
1.5171237
1.5171058
1.5171268
1.5171439
1.5172988
1.5172664
1.5174865
1.517499
1.5173656
1.5175129
1.5173379
1.5174223
1.5174608
1.5172465
1.5172755
1.5174785
1.5171449
1.5171331
1.5171432
1.5171562
1.5171636
1.5171748
1.5171844
1.5171712
1.5172728
1.5172682
1.5174563
1.5174667
1.5173233
1.5172252
1.516178
1.5161922
1.5169705
1.5169614
1.5169618
1.5169719
1.5169829
1.5169698
1.5169805
1.516991
1.516962
1.5169509
1.5174934
1.5172767
1.5175015
1.5173026
1.5171203
1.5170971
1.5171306
1.5171091
1.517079
1.5171028
1.517121
1.5173041
1.5172762
1.517495
1.5175058
1.5186876
1.5186469
1.518985
1.5190153
1.5185754
1.5186093
1.518963
1.5189472
1.5191147
1.5190888
1.5191249
1.5191495
1.5191097
1.5190703
1.5190588
1.5191016
1.5192346
1.5192267
1.5192034
1.5191875
1.5194833
1.5195287
1.519569
1.5195966
1.5195986
1.5196973
1.5196673
1.5196607
1.5196572
1.5196682
1.5193542
1.5193291
1.5193001
1.5193265
1.5192231
1.5189984
1.5189434
1.5191968
1.5190628
1.5191757
1.5193146
1.5192498
1.5194362
1.5194174
1.5193562
1.5193795
1.5192938
1.519266
1.5192273
1.519257
1.5191655
1.5188899
1.5188365
1.5191291
1.5187848
1.5190901
1.519052
1.5187356
1.5191817
1.5191873
1.5192192
1.5191497
1.5197673
1.5197501
1.5197535
1.5197703
1.5197832
1.5197634
1.5197716
1.5197938
1.5197824
1.5197725
1.5188879
1.5190375
1.519413
1.5193984
1.5193579
1.5193749
1.5193855
1.5193777
1.5193443
1.5193366
1.5192961
1.5192594
1.519266
1.5193042
1.519338
1.5193187
1.5192837
1.519305
1.5194497
1.51947
1.5194811
1.5194369
1.5194579
1.51945
1.5194165
1.5194244
1.5195697
1.5195589
1.5195004
1.5195107
1.5195476
1.5195419
1.5194814
1.5194886
1.5188999
1.5190375
1.5191354
1.5191359
1.5199684
1.519982
1.5199529
1.5199473
1.5199639
1.5199706
1.5199828
1.5199623
1.5199673
1.5199885
1.5196035
1.5195663
1.5196431
1.5197165
1.5197257
1.5196554
1.5197358
1.5166993
1.5206775
1.5207582
1.5211351
1.5210095
1.5204846
1.5205993
1.5207275
1.5206135
1.5201572
1.522163
1.5220266
1.5195587
1.5202175
1.5193936
1.51948
1.5194199
1.5199287
1.5184924
1.518993
1.5181462
1.5186826
1.5163945
1.5169005
1.5178532
1.5171784
1.5170483
1.516943
1.5168283
1.5167098
1.516437
1.5165139
1.516756
1.5167457
1.516377
1.5165363
1.516605
1.5164503
1.5207428
1.5207618
1.5203089
1.5220026
1.5219774
1.5208346
1.520389
1.5206026
1.5200689
1.5190322
1.5191006
1.5194407
1.519349
1.5190654
1.518692
1.5219075
1.5217477
1.5216031
1.5196341
1.5207479
1.5205736
1.5204028
1.5194376
1.5216476
1.5216036
1.5215247
1.5199653
1.5161819
1.5165078
1.5185041
1.5185001
1.518834
1.5162902
1.5161131
1.5191613
1.5191816
1.519179
1.5191606
1.5162023
1.5161853
1.5175262
1.5189386
1.5189519
1.5190683
1.5190693
1.5208192
1.5208446
1.5209349
1.5209188
1.5208573
1.5208461
1.5209515
1.5208808
1.5209214
1.5209282
1.5208809
1.5176965
1.5203827
1.5203459
1.5203462
1.5203616
1.5203315
1.520321
1.5202957
1.5202878
1.5202908
1.5202859
1.5201689
1.5201613
1.520159
1.5201522
1.5200597
1.5199242
1.5200432
1.5199645
1.5201271
1.5202157
1.5174087
1.5200432
1.5200113
1.5199093
1.5199341
1.5200414
1.5200471
1.5199889
1.5199623
1.5199449
1.5199493
1.5199211
1.5199183
1.5198945
1.5198675
1.5198663
1.5198908
1.5197836
1.5198007
1.5198683
1.519884
1.5198558
1.5198381
1.5198904
1.5198922
1.5198649
1.5198609
1.5198066
1.5198119
1.5198356
1.5198289
1.5198288
1.519801
1.5197841
1.5198097
1.5197113
1.519674
1.5196632
1.5196943
1.5197277
1.5197498
1.5197475
1.5197185
1.5197365
1.5197504
1.5197285
1.5197068
1.5197029
1.5196729
1.5196512
1.5196799
1.5196811
1.5196632
1.5196482
1.5196704
1.5197058
1.5196822
1.5195714
1.5195417
1.5195869
1.5195999
1.5195684
1.5195429
1.5195716
1.5192362
1.5194558
1.5194675
1.5192607
1.5194614
1.5194322
1.5192085
1.519251
1.5196424
1.5196692
1.5196572
1.5196221
1.5194051
1.5195807
1.5195424
1.5193507
1.5195607
1.5195823
1.5196041
1.5195811
1.5194943
1.5194837
1.519269
1.5192879
1.5164187
1.5164167
1.5164016
1.5172403
1.5172071
1.5172018
1.5172281
1.5168988
1.5169097
1.5167881
1.5167771
1.5174013
1.517335
1.5172608
1.5173118
1.5169716
1.5170704
1.5169719
1.5168488
1.5167785
1.5169257
1.5168887
1.5167214
1.5166617
1.5167185
1.5167074
1.5166516
1.5172959
1.5171896
1.5168202
1.5168537
1.5166734
1.5166331
1.5166054
1.5166154
1.5165773
1.5165668
1.5166007
1.5167906
1.5167683
1.5165759
1.5165215
1.5165467
1.516535
1.5165092
1.5164985
1.5165356
1.5164883
1.5165277
1.5164451
1.5164694
1.5164573
1.5164325
1.5165349
1.5165311
1.5164939
1.5164979
1.5164667
1.5164632
1.5164381
1.5164409
1.5165801
1.516633
1.5165745
1.5166295
1.5171238
1.5171265
1.5171372
1.5171331
1.5166997
1.5168189
1.5168149
1.5166977
1.5171292
1.517119
1.517118
1.5171259
1.5171198
1.5171153
1.5166927
1.5168105
1.5168099
1.5166943
1.5166299
1.5166279
1.516576
1.5165791
1.5161519
1.5162199
1.5171171
1.5171169
1.5171174
1.5171176
1.5171216
1.517121
1.517124
1.5171258
1.5171361
1.5171421
1.5166902
1.5166784
1.5166361
1.51665
1.5166664
1.516662
1.5166189
1.5166225
1.5167171
1.516822
1.5168254
1.5167228
1.5167311
1.516831
1.5168384
1.5167415
1.5166138
1.5165981
1.5165622
1.5165791
1.5165843
1.5165812
1.5165464
1.5165492
1.5165167
1.5165145
1.5164857
1.5164874
1.5164967
1.5165287
1.5165461
1.5165158
1.5171203
1.5168604
1.5168333
1.5171108
1.5167427
1.5167174
1.516683
1.5167105
1.5166125
1.5166482
1.5166768
1.5166434
1.5167683
1.5168024
1.5170986
1.5170858
1.5172109
1.5172206
1.5172265
1.5172189
1.5173132
1.5173311
1.517416
1.5174597
1.517256
1.5173517
1.5171353
1.5169037
1.5168828
1.5171304
1.5168042
1.5167862
1.5167511
1.5167732
1.5168306
1.5169229
1.5169326
1.5168446
1.5169326
1.517013
1.5172052
1.5171504
1.5163324
1.5162291
1.5162153
1.5161524
1.5162281
1.5163275
1.5164369
1.5164603
1.5164615
1.516439
1.5164888
1.51647
1.516447
1.5164657
1.5164462
1.5164275
1.5170759
1.5167374
1.5170713
1.51671
1.5166123
1.5165812
1.5165849
1.5165532
1.5165292
1.5165616
1.5165428
1.5166688
1.5166874
1.5170722
1.5170773
1.5185247
1.5185169
1.5187183
1.5187041
1.5185053
1.518501
1.5186986
1.5186831
1.5189179
1.5189124
1.5189446
1.518948
1.5189474
1.5189161
1.5189229
1.5189515
1.518464
1.5184629
1.5186613
1.5186436
1.5184843
1.5184829
1.5186797
1.518663
1.518946
1.518912
1.5189162
1.5189484
1.5189169
1.5189129
1.5189497
1.5189515
1.5190341
1.5190234
1.5190316
1.5190408
1.5190313
1.5190248
1.5190349
1.5190409
1.5190727
1.5190648
1.5190773
1.5190839
1.519075
1.5190614
1.5190704
1.5190822
1.5190836
1.5190717
1.519079
1.5190896
1.5190347
1.5190285
1.5190389
1.5190443
1.5190417
1.5190353
1.5190458
1.5190511
1.5190887
1.5190812
1.5190926
1.5190984
1.5191591
1.5191573
1.5191657
1.5191673
1.5191532
1.5191461
1.5191539
1.5191599
1.5191549
1.5191487
1.5191552
1.5191611
1.5191595
1.5191534
1.5191601
1.5191655
1.5193238
1.5194672
1.5194143
1.5195308
1.518816
1.5189339
1.5195977
1.5196041
1.519503
1.5195154
1.5190658
1.5190493
1.5190899
1.5191032
1.5190645
1.5190259
1.5190392
1.5190747
1.519058
1.5190458
1.5190715
1.5190801
1.5190883
1.5190722
1.519099
1.5191122
1.5189479
1.5189179
1.5189603
1.5189857
1.5188112
1.5185643
1.518613
1.5188339
1.5188208
1.518581
1.5186143
1.5188258
1.5189721
1.518944
1.5189708
1.5189949
1.5187603
1.5185922
1.518541
1.51881
1.5186085
1.5185938
1.5187274
1.5187569
1.5188867
1.5188281
1.5188612
1.518846
1.5189203
1.5188596
1.5188891
1.5189463
1.5189689
1.5190056
1.5190147
1.518977
1.518951
1.5189831
1.5189896
1.5189542
1.5190317
1.5189769
1.51899
1.5190422
1.5190561
1.5190005
1.5190143
1.5190682
1.5190927
1.5190775
1.519096
1.519109
1.5190586
1.5190487
1.5190661
1.5190736
1.5190543
1.519043
1.5190517
1.5190631
1.5190867
1.5190744
1.519089
1.519101
1.5189759
1.5189494
1.5189674
1.5189907
1.5186005
1.5185797
1.5188086
1.5188052
1.5185829
1.5185669
1.5187883
1.51878
1.5189554
1.5189445
1.5189708
1.518981
1.5185636
1.5185515
1.5187649
1.5187534
1.5189626
1.518934
1.5189433
1.5189693
1.5189313
1.518925
1.5189543
1.5189594
1.5185446
1.5185351
1.5187412
1.518728
1.5190719
1.5190629
1.5190771
1.5190852
1.519043
1.5190339
1.5190439
1.519053
1.5190832
1.5190678
1.5190791
1.5190924
1.5190355
1.5190271
1.5190378
1.5190457
1.5196136
1.5196893
1.5196924
1.5196176
1.5196276
1.519702
1.5197086
1.5196392
1.5190254
1.5190153
1.5188208
1.5189338
1.5190151
1.5190252
1.519211
1.5191964
1.5192166
1.5192291
1.5191891
1.5191853
1.5192036
1.5192053
1.5191953
1.5191828
1.5191845
1.5191972
1.5192112
1.5191968
1.5192112
1.519225
1.5191724
1.5191724
1.5191894
1.5191885
1.5191804
1.5191642
1.5191711
1.5191866
1.519179
1.5191676
1.5191674
1.5191802
1.5191709
1.5191587
1.5191655
1.5191774
1.519162
1.5191526
1.5191595
1.5191688
1.5191563
1.5191482
1.5191553
1.5191632
1.5191661
1.5191574
1.5191588
1.5191681
1.5191626
1.5191611
1.5191719
1.5191731
1.5192099
1.5191951
1.5192077
1.5192204
1.5191885
1.5191783
1.5191799
1.5191902
1.5191851
1.5191761
1.5191773
1.5191864
1.5192055
1.5191957
1.5192091
1.5192178
1.5192051
1.5191905
1.5192191
1.5192312
1.5192025
1.519165
1.5191693
1.5192056
1.5192098
1.5191707
1.5191827
1.519221
1.5191885
1.5191829
1.5192092
1.5192121
1.5191564
1.5191546
1.5191923
1.5191914
1.5191817
1.5191433
1.519153
1.5191891
1.5191715
1.519162
1.5191885
1.5191944
1.5191733
1.5191724
1.5191971
1.5191961
1.5191493
1.51911
1.5191391
1.5191191
1.5191065
1.5191055
1.5191356
1.5191357
1.519175
1.5191241
1.5191278
1.5191755
1.5191283
1.5191789
1.5191882
1.5191411
1.5190962
1.5191282
1.5191233
1.5190922
1.519085
1.5191155
1.5191187
1.5190866
1.5191537
1.5191021
1.5191112
1.5191594
1.5191162
1.5191656
1.519116
1.5191631
1.5189385
1.5188349
1.5188466
1.5189388
1.519016
1.5190248
1.5190246
1.5190166
1.5191229
1.5191284
1.5191282
1.5191233
1.5191225
1.5191285
1.5191224
1.5191286
1.5198802
1.5198841
1.5198945
1.5198975
1.5198001
1.519805
1.5198149
1.5198204
1.5192758
1.5192631
1.5193076
1.5193166
1.5193016
1.5192901
1.519322
1.5193304
1.5192232
1.5192753
1.519283
1.5192341
1.5192472
1.5192211
1.5192448
1.5192215
1.5192547
1.5192298
1.5192544
1.5192285
1.5192376
1.519291
1.5192903
1.5192415
1.5192382
1.519234
1.5192641
1.5192575
1.5192469
1.5187481
1.516849
1.5164946
1.5165918
1.5168746
1.5167792
1.5167763
1.5167295
1.5167338
1.5212458
1.5205781
1.5213311
1.5225928
1.5224834
1.5209632
1.5202816
1.5205024
1.5206639
1.5204394
1.5202353
1.5226169
1.5224648
1.5218881
1.5195986
1.520268
1.5203532
1.5194173
1.5216636
1.5207322
1.5209902
1.5192913
1.5184469
1.5185176
1.5189348
1.518213
1.5175896
1.517713
1.5178028
1.5176907
1.5186531
1.5179768
1.5184932
1.5186008
1.5181228
1.516333
1.5162563
1.5168346
1.5179479
1.5178891
1.5171258
1.5169789
1.5168759
1.5168161
1.5164469
1.5163898
1.5166576
1.5166995
1.5165077
1.516199
1.5167306
1.5164724
1.5165262
1.5163917
1.5163402
1.5161305
1.5162891
1.520822
1.5208546
1.5208602
1.5204097
1.5221418
1.5221034
1.5220595
1.5208763
1.5193595
1.5193632
1.5191034
1.5192366
1.5190271
1.5187586
1.5187282
1.5190708
1.519067
1.519014
1.5190478
1.5185456
1.5188634
1.5188337
1.5185359
1.5220075
1.5218545
1.5216787
1.5207103
1.5205432
1.5203596
1.5218107
1.5217701
1.5160922
1.5160979
1.5161213
1.5161191
1.5166165
1.5163382
1.5163087
1.5166298
1.5186627
1.5186368
1.5183529
1.518343
1.5183491
1.5183319
1.5186433
1.5188803
1.5188741
1.5189213
1.5174302
1.5172579
1.5162895
1.5162814
1.5161125
1.5161374
1.5160354
1.516042
1.5160393
1.516034
1.5183
1.5176487
1.519371
1.5194032
1.5191507
1.5162318
1.5162317
1.5163232
1.5163166
1.517433
1.5162218
1.5161615
1.5161601
1.5162143
1.5219579
1.5177009
1.5191103
1.5189022
1.5190494
1.5192749
1.5218226
1.5209071
1.5208797
1.5209419
1.5209253
1.5209129
1.5208856
1.5208947
1.5208792
1.5210406
1.521042
1.5210538
1.5210517
1.5208913
1.5209535
1.5209551
1.5208813
1.5209915
1.5209967
1.5210048
1.5209981
1.5210254
1.5210214
1.5210123
1.5210155
1.5209619
1.5209644
1.5208737
1.5208691
1.5178201
1.5175839
1.5178359
1.5175845
1.5201376
1.5200972
1.5200584
1.5200517
1.5200996
1.5200999
1.520061
1.5200684
1.520036
1.5200387
1.5200264
1.5200225
1.5199732
1.5199937
1.5199931
1.5199734
1.5199652
1.5199832
1.5199782
1.5199556
1.5198515
1.5198544
1.5198364
1.5198341
1.5198308
1.5198476
1.5198446
1.519824
1.5199249
1.519924
1.5197582
1.5197628
1.5197528
1.5197448
1.5196551
1.5196576
1.5195855
1.5195259
1.519825
1.5197396
1.5173716
1.51742
1.5174202
1.5173738
1.5192171
1.5192355
1.5190162
1.518967
1.5192915
1.5194631
1.5193402
1.5191115
1.5192675
1.5192747
1.5190399
1.5190331
1.5189043
1.5189462
1.5189387
1.5188909
1.5187763
1.5187477
1.5187633
1.5191552
1.5191675
1.5189244
1.5189127
1.5191826
1.5191838
1.5189436
1.5189414
1.5188463
1.5188515
1.5188074
1.5187981
1.5187847
1.518829
1.518818
1.5187699
1.5186548
1.5186933
1.5186797
1.518633
1.5187798
1.5190247
1.5190226
1.518774
1.5190151
1.519027
1.5187807
1.5187689
1.5186385
1.5186834
1.5186738
1.5186262
1.5186327
1.5186102
1.5186018
1.5186139
1.5185995
1.5185868
1.5185073
1.5184711
1.5184544
1.518522
1.518539
1.5185089
1.5184868
1.5182233
1.5184298
1.5184013
1.5181745
1.5183602
1.5183792
1.5181306
1.5180895
1.5187108
1.5189582
1.5189475
1.5186974
1.5187307
1.5188745
1.5186271
1.5184677
1.518595
1.5186148
1.5185642
1.5185387
1.5184657
1.518523
1.5183501
1.5182755
1.5163322
1.5163298
1.5163397
1.5163423
1.5163265
1.5163317
1.516341
1.5163364
1.5163322
1.5163353
1.5170343
1.5171213
1.5171171
1.5170249
1.5162789
1.5162723
1.5162737
1.5162804
1.5162785
1.5162797
1.5162858
1.5162887
1.5163041
1.5162447
1.51624
1.5162978
1.5162372
1.5162963
1.5162338
1.516291
1.5171711
1.5172402
1.5171749
1.517092
1.5163289
1.5163279
1.5163221
1.516321
1.5164187
1.5164398
1.5163797
1.516371
1.5164936
1.5164121
1.5163353
1.5164084
1.5162778
1.516343
1.5162841
1.5163366
1.5163236
1.5163274
1.5163848
1.5163817
1.5165658
1.5164936
1.5163949
1.5164673
1.5164489
1.516557
1.5166096
1.5165083
1.5163655
1.5163667
1.5164119
1.51641
1.5163244
1.5163264
1.5163713
1.5163669
1.5163447
1.5162892
1.5162855
1.5163409
1.5162788
1.5162812
1.5163365
1.5163335
1.5163182
1.5163197
1.5163628
1.5163602
1.5162582
1.5162007
1.5166606
1.5166298
1.5165184
1.5165596
1.5166387
1.5165996
1.5164887
1.5165377
1.5163941
1.5163963
1.5164329
1.5164293
1.5164504
1.5164214
1.5164164
1.5164451
1.5163454
1.5163479
1.5163815
1.516378
1.5163521
1.5163569
1.5163923
1.5163857
1.5164085
1.5163814
1.5163735
1.5164005
1.5163946
1.5163692
1.5163651
1.5163907
1.5164351
1.5164422
1.5164649
1.5164574
1.5166799
1.5166564
1.5165445
1.5165791
1.5166977
1.5166794
1.5165674
1.5165973
1.5164756
1.5164589
1.5164494
1.5164665
1.5164275
1.5164128
1.5164024
1.5164179
1.5164202
1.5164002
1.5163907
1.5164113
1.5163797
1.5163845
1.5164035
1.516399
1.5164075
1.5163946
1.5163893
1.5164036
1.5163396
1.5163144
1.5163032
1.5163291
1.5163257
1.5162935
1.5162838
1.5163159
1.5163215
1.5162971
1.5162933
1.5163185
1.5162769
1.5162792
1.5163104
1.5163071
1.5163545
1.5163412
1.5163301
1.516345
1.516349
1.516331
1.5163195
1.516339
1.5163086
1.5163118
1.5163305
1.5163277
1.5163358
1.5163226
1.5163196
1.516334
1.5162913
1.5162852
1.5163161
1.5163198
1.5162825
1.5162848
1.5163158
1.5163118
1.5163271
1.5163033
1.5162984
1.5163222
1.5163261
1.5163023
1.5163054
1.5163286
1.5163171
1.5163152
1.5163341
1.5163354
1.5163351
1.5163172
1.5163115
1.51633
1.51634
1.5163268
1.5163211
1.5163353
1.5163385
1.516325
1.5163262
1.5163404
1.5162593
1.5162659
1.5163082
1.5162993
1.5162836
1.5162323
1.516226
1.5162764
1.5162563
1.5162562
1.5162962
1.5162941
1.5162257
1.5162241
1.5162756
1.5162745
1.5170448
1.5170471
1.5169473
1.5169432
1.5161862
1.5161921
1.5162482
1.5162394
1.5162253
1.5162325
1.5162353
1.516225
1.5162252
1.5162235
1.516225
1.5162238
1.5162411
1.5161861
1.5161876
1.5162392
1.516939
1.5170404
1.5170394
1.5169382
1.5161691
1.516169
1.516185
1.5162427
1.5161872
1.5162381
1.5162205
1.5162264
1.5162281
1.516221
1.5162292
1.5162272
1.5162288
1.5162276
1.5162436
1.5161904
1.5161951
1.5162478
1.5162377
1.5162295
1.5162808
1.5162871
1.5162792
1.5162284
1.5162272
1.5162772
1.5162618
1.5162619
1.5163016
1.5162994
1.5162721
1.5162636
1.5163029
1.5163088
1.5161691
1.5161692
1.5162568
1.5162007
1.5169411
1.5170448
1.5170453
1.5169423
1.5169461
1.5170502
1.5170527
1.5169519
1.5162331
1.5162404
1.5163418
1.5163264
1.516377
1.5163887
1.516368
1.5163194
1.5163203
1.5163669
1.5163519
1.5163517
1.5163863
1.5163838
1.516376
1.5163618
1.516397
1.5164079
1.5163068
1.5163008
1.5163488
1.5163521
1.5163429
1.5162916
1.5163034
1.5163519
1.5163381
1.5163271
1.516365
1.5163716
1.516337
1.5163326
1.516367
1.5163691
1.5163035
1.516248
1.5162559
1.5163103
1.5162752
1.5162756
1.516283
1.5162831
1.516291
1.5162803
1.516289
1.5162812
1.5163121
1.5162594
1.5162643
1.5163156
1.5163297
1.5162716
1.5162746
1.5163278
1.5162892
1.5162997
1.5162999
1.5162879
1.5163143
1.5162939
1.5163057
1.5163011
1.5163351
1.516279
1.5162926
1.5163467
1.5163904
1.5163785
1.5164036
1.5164126
1.5163651
1.5163676
1.5163918
1.5163878
1.5163903
1.5163733
1.5163686
1.5163865
1.5164024
1.5163846
1.516394
1.516411
1.5163513
1.516349
1.5163743
1.5163751
1.5163738
1.5163479
1.5163546
1.5163785
1.516377
1.5163572
1.5163613
1.5163798
1.5163752
1.5163566
1.5163573
1.5163763
1.5163603
1.5163595
1.5163747
1.5163752
1.5163772
1.5163624
1.5163643
1.5163786
1.5163759
1.5163648
1.5163653
1.5163767
1.5163721
1.5163612
1.5163615
1.5163734
1.5163825
1.5163714
1.5163677
1.5163797
1.5163867
1.5163736
1.5163692
1.5163835
1.5163938
1.5163851
1.5164002
1.5164072
1.5163964
1.5163854
1.5163928
1.516404
1.5170609
1.5168251
1.516866
1.5170792
1.5166715
1.5166402
1.5166612
1.5166878
1.5166505
1.5166379
1.5166659
1.5166757
1.5168825
1.5168501
1.5170821
1.5170909
1.5165291
1.5165165
1.516538
1.5165477
1.5165134
1.5164925
1.5165006
1.5165194
1.5165063
1.5164917
1.5164974
1.5165111
1.5165293
1.5165156
1.516526
1.5165392
1.5164856
1.5164761
1.5164809
1.5164905
1.5164961
1.5164854
1.5164901
1.5165008
1.516518
1.5165076
1.5165199
1.5165284
1.5165102
1.5165009
1.5165101
1.5165197
1.5166253
1.5166144
1.5166394
1.5166482
1.516637
1.5166269
1.5166531
1.5166609
1.5170923
1.5168673
1.5168983
1.5170962
1.5169168
1.516887
1.5171
1.5171029
1.5170376
1.5171521
1.5171576
1.5170465
1.517133
1.5172608
1.517343
1.5172879
1.5163624
1.5164669
1.5167776
1.5166986
1.5169504
1.517007
1.5166292
1.5165712
1.5165997
1.5166555
1.5166547
1.5166226
1.5166587
1.516687
1.5170235
1.5167789
1.5168359
1.5170566
1.5164757
1.5164612
1.5165139
1.5165253
1.5164913
1.516439
1.5164534
1.516502
1.5164908
1.5164781
1.516513
1.5165209
1.5165172
1.5165028
1.5165367
1.5165479
1.5164434
1.5163807
1.5163945
1.5164529
1.5163864
1.5164023
1.5164098
1.5163901
1.5163984
1.5164169
1.5164219
1.5164028
1.5164118
1.5164613
1.5164003
1.5164706
1.5165645
1.5164953
1.5165183
1.5165852
1.516482
1.5164908
1.5165026
1.5165181
1.5165772
1.516605
1.5168216
1.5167718
1.5168441
1.5166036
1.5166866
1.5169262
1.5163619
1.5164657
1.5162404
1.5162332
1.5161992
1.5162515
1.5162453
1.5161989
1.5161691
1.516169
1.5161686
1.5161687
1.516232
1.5162382
1.5162381
1.5162324
1.516354
1.5164472
1.5164407
1.5163548
1.5163678
1.5163626
1.5163625
1.5163681
1.5163729
1.5163652
1.5163653
1.5163735
1.5163617
1.5163606
1.5163693
1.5163704
1.5163645
1.5163591
1.5163603
1.5163665
1.5163923
1.5163841
1.5163932
1.5164008
1.5163677
1.516371
1.5163796
1.5163768
1.5163748
1.5163696
1.5163666
1.5163732
1.5163888
1.5163828
1.5163914
1.5163976
1.5163898
1.5163799
1.5163846
1.516394
1.5163695
1.5163661
1.5163643
1.5163687
1.5171114
1.5169105
1.5169388
1.5171146
1.5166339
1.5166089
1.5166198
1.5166425
1.5169618
1.516936
1.5171276
1.5171301
1.5166158
1.5166073
1.5166329
1.5166405
1.516505
1.5164948
1.5165038
1.5165131
1.5164756
1.5164707
1.5164788
1.5164832
1.5164978
1.5164914
1.5165019
1.5165085
1.5164715
1.5164665
1.5164711
1.5164767
1.5164646
1.5164613
1.5164668
1.5164704
1.5165
1.5164881
1.5164935
1.5165048
1.5164895
1.5164856
1.5164984
1.516502
1.5166129
1.5166063
1.5166374
1.5166421
1.5166136
1.5166065
1.5166346
1.5166406
1.517146
1.516961
1.5169829
1.5171474
1.5170028
1.5169828
1.5171651
1.5171652
1.5181758
1.5181787
1.5185604
1.5185635
1.5181629
1.5181693
1.5185664
1.5185683
1.5187259
1.5187177
1.5187781
1.5187881
1.518756
1.5187012
1.5187089
1.5187664
1.5181052
1.5181192
1.5185656
1.5185621
1.5181359
1.518149
1.5185684
1.518567
1.5187976
1.5187321
1.5187375
1.5188065
1.5187487
1.5187425
1.5188153
1.5188244
1.5188506
1.5188275
1.518836
1.5188601
1.5188532
1.5188444
1.5188696
1.5188784
1.5189039
1.5188942
1.5189213
1.5189305
1.5189004
1.5188737
1.5188837
1.5189104
1.5189395
1.5189125
1.5189211
1.5189482
1.5188692
1.5188607
1.518887
1.5188956
1.5188867
1.518877
1.5189045
1.5189139
1.5189403
1.51893
1.5189572
1.5189668
1.5189934
1.5189901
1.5189986
1.5190019
1.5189793
1.5189656
1.5189731
1.5189876
1.5189869
1.5189799
1.5189953
1.5190024
1.5190002
1.518993
1.5190094
1.5190166
1.5187539
1.5186657
1.5186816
1.5187242
1.5187413
1.518786
1.5188436
1.5188533
1.518793
1.5188285
1.5187318
1.5188302
1.5189013
1.5189108
1.5189097
1.5189009
1.518883
1.5189587
1.5189554
1.5188862
1.5188955
1.5189727
1.5189757
1.5189012
1.5189561
1.5189394
1.5189206
1.5189383
1.5188951
1.518917
1.5189316
1.5189114
1.5188895
1.5188727
1.5188518
1.5188692
1.5189192
1.5189005
1.5188817
1.5189018
1.518838
1.5188131
1.5187948
1.5188202
1.51872
1.5184664
1.5184388
1.5187013
1.5186776
1.5184049
1.5183693
1.5186531
1.5187996
1.5187733
1.5187518
1.5187797
1.5187112
1.5184851
1.5184986
1.5187306
1.5185554
1.5185228
1.5186817
1.5186956
1.5188218
1.5187832
1.5188007
1.5187998
1.5188252
1.5188139
1.5188364
1.5188501
1.5189224
1.5189416
1.5189547
1.5189335
1.518905
1.5189218
1.5189335
1.5189124
1.5189326
1.5189311
1.5189445
1.5189486
1.5189551
1.5189526
1.5189659
1.5189713
1.518887
1.5188654
1.5188529
1.518876
1.5188516
1.5188333
1.5188188
1.518838
1.5188019
1.5188083
1.5188286
1.5188237
1.5188402
1.5188446
1.518869
1.5188663
1.518762
1.5187319
1.5187149
1.518748
1.5182978
1.5183335
1.5186295
1.5186088
1.5182412
1.5182687
1.5185908
1.5185765
1.518691
1.5187013
1.5187378
1.518732
1.5182029
1.5182199
1.5185659
1.5185593
1.5187301
1.518686
1.518685
1.5187321
1.5186932
1.5186872
1.5187375
1.5187454
1.5181837
1.5181902
1.5185564
1.5185568
1.5188627
1.5188529
1.5188802
1.5188893
1.5188035
1.5188007
1.5188231
1.5188262
1.5188675
1.5188409
1.5188451
1.5188721
1.5188178
1.5188092
1.5188323
1.5188404
1.5190021
1.5190893
1.519005
1.5190856
1.5189985
1.5190031
1.5190973
1.5190098
1.5190087
1.5190908
1.5191033
1.5190204
1.5191081
1.5190211
1.5190135
1.5190205
1.5191169
1.5190275
1.5190336
1.5191115
1.519021
1.5190134
1.519003
1.5189979
1.518832
1.5187499
1.5188334
1.518757
1.5189099
1.518902
1.5189027
1.5189103
1.5190025
1.5189982
1.5189986
1.5190026
1.5190129
1.5190194
1.519013
1.5190193
1.5190135
1.5189934
1.518984
1.5190056
1.5189854
1.5189814
1.5189718
1.518975
1.5189651
1.5189664
1.518969
1.5189673
1.5189775
1.5189787
1.5190016
1.5190016
1.5189737
1.5189735
1.5189631
1.518964
1.5189434
1.5189557
1.5189679
1.518957
1.5189549
1.5189569
1.5189587
1.5189577
1.518934
1.5189368
1.5189503
1.5189479
1.5189408
1.5189356
1.5189495
1.5189544
1.5189566
1.5189476
1.5189615
1.5189697
1.5189802
1.5189708
1.5189747
1.5189836
1.5189604
1.5189573
1.5189627
1.5189661
1.5190052
1.5189804
1.5189863
1.5190117
1.5189747
1.5189682
1.5189697
1.5189751
1.5189926
1.5189827
1.5189828
1.5189916
1.5190042
1.5189941
1.5190202
1.5190301
1.5190412
1.5190245
1.5190083
1.5190267
1.5190339
1.5190548
1.5190575
1.5190387
1.5190445
1.5190635
1.5190753
1.5190594
1.5190193
1.5190144
1.5189971
1.5190017
1.5190462
1.5190464
1.5190272
1.5190267
1.519011
1.5190319
1.5190428
1.5190235
1.5190033
1.5189909
1.5189727
1.5189849
1.5190068
1.5190077
1.5189899
1.5189894
1.5190911
1.5190658
1.5190795
1.5190764
1.5190599
1.5190624
1.5190737
1.5190763
1.5190723
1.5190785
1.5190809
1.5190748
1.5190845
1.5190788
1.5190898
1.5190953
1.5190488
1.5190639
1.5190664
1.5190502
1.5190363
1.5190496
1.5190594
1.5190429
1.5190491
1.5190545
1.519065
1.5190601
1.5190712
1.519064
1.5190696
1.5190639
1.5189102
1.5187868
1.5187893
1.5189099
1.5190072
1.5190226
1.5190173
1.5190019
1.51913
1.5191376
1.5191335
1.5191261
1.5191273
1.5191232
1.5191235
1.5191272
1.5191334
1.5191318
1.5191317
1.5191332
1.5191277
1.5191229
1.5191282
1.519124
1.5191339
1.5191321
1.5191327
1.5191345
1.5191378
1.5192314
1.5191405
1.5192258
1.5192368
1.5191437
1.5191446
1.5192318
1.5192374
1.5191493
1.5192456
1.5191498
1.5192419
1.5191511
1.5191529
1.519246
1.5191608
1.5191482
1.5191316
1.5191439
1.519127
1.5191148
1.5190995
1.5191122
1.5191759
1.519164
1.5191768
1.5191879
1.5191873
1.519171
1.5191774
1.5191774
1.5191933
1.5191822
1.5191913
1.5191833
1.5191927
1.5191844
1.5191834
1.5191934
1.5191883
1.5191889
1.5191971
1.5191977
1.5191984
1.5209536
1.5190928
1.5191632
1.5184848
1.5185139
1.5186561
1.5188047
1.5187202
1.5185695
1.5181904
1.5154374
1.5155784
1.5166531
1.518117
1.5169424
1.5168857
1.5168197
1.516726
1.5167842
1.5211498
1.5214105
1.5205008
1.5215136