/*--------------------------------*- C++ -*----------------------------------*\
  =========                 |
  \\      /  F ield         | OpenFOAM: The Open Source CFD Toolbox
   \\    /   O peration     | Website:  https://openfoam.org
    \\  /    A nd           | Version:  7
     \\/     M anipulation  |
\*---------------------------------------------------------------------------*/
FoamFile
{
    version     2.0;
    format      ascii;
    class       surfaceScalarField;
    location    "9000";
    object      phi;
}
// * * * * * * * * * * * * * * * * * * * * * * * * * * * * * * * * * * * * * //

dimensions      [0 3 -1 0 0 0 0];

internalField   nonuniform List<scalar> 
100832
(
-6.8075108e+48
-3.2851777e+48
-9.319223e+49
-7.468788e+48
-3.384042e+48
-9.4455996e+49
-1.1109795e+49
-3.8904631e+48
3.5770687e+48
-8.8381968e+49
4.7011158e+48
-3.0191555e+48
-9.7540925e+48
-2.9996501e+48
-9.1329738e+49
-1.1636702e+49
-2.9131629e+48
-9.0185798e+49
6.4494545e+48
-6.8942519e+48
-9.4862919e+47
-8.6548593e+49
-1.5344401e+48
-8.4937642e+49
-7.0938763e+48
-1.8740501e+48
-7.8198742e+48
-2.0449268e+48
-9.3318294e+49
8.9475986e+48
-1.2285886e+49
-3.6376808e+48
3.53154e+48
4.7241968e+48
-2.6375109e+48
-8.5917336e+49
-3.6779814e+48
3.8941039e+48
4.9276999e+48
-2.5217014e+48
-8.6077128e+49
-1.9601793e+49
-1.6215768e+48
-1.2905797e+48
7.2214662e+47
-1.2330819e+48
8.4448503e+47
1.4662242e+49
1.3473407e+48
-1.9745432e+48
-1.8211034e+49
1.0016038e+48
9.0641837e+47
-8.7935899e+47
-7.4313001e+47
1.189821e+48
-1.7506304e+48
-1.149931e+48
-1.2228667e+48
7.2415291e+47
8.4697258e+47
-6.9737377e+49
8.4211048e+48
-1.1701388e+49
4.4506843e+48
5.5906723e+48
-3.559579e+48
-2.9083201e+48
-1.5063032e+49
-1.1109881e+48
-1.2357714e+48
8.5190086e+47
9.1382598e+47
-1.8676279e+49
1.0582384e+48
9.5736155e+47
-7.541097e+47
-9.2662782e+47
8.6992979e+48
-7.5521366e+49
-1.2835559e+49
-1.1426253e+49
6.9122604e+49
-7.9072835e+49
-1.0876802e+49
4.4924052e+48
-3.7089618e+48
-2.5542265e+48
1.3449233e+49
-1.4245877e+49
-2.5516815e+48
-8.6608961e+49
-2.4412666e+48
-8.7233723e+49
9.1601377e+48
-1.0719286e+49
-4.0394112e+47
-8.3029502e+49
-4.4951677e+47
-8.2665261e+49
-9.4304438e+48
-1.413543e+48
-8.9690265e+49
-1.0901835e+49
-1.2494323e+48
-8.894342e+49
5.8160807e+48
-6.2123772e+48
1.8114987e+48
-6.5336862e+49
6.0596372e+48
-6.6707573e+48
-1.1919673e+48
-8.6790429e+49
5.0809801e+47
-6.4072636e+49
-1.4749239e+48
-8.8945226e+48
-1.9660284e+48
-9.0149958e+49
6.4528821e+49
6.9681534e+49
-2.0192696e+49
-4.2095867e+49
1.0250041e+49
-8.0827272e+49
-3.1699224e+48
-2.0141579e+48
-8.3177271e+49
-3.4032551e+48
3.9089917e+48
4.9331553e+48
-2.2181433e+48
1.4278985e+49
1.5312897e+48
-2.1818286e+48
-6.7604462e+47
-8.383716e+47
8.5964952e+47
1.0428548e+48
-1.7654214e+49
1.3857064e+48
-1.9505064e+48
-1.2224585e+48
-1.1104006e+48
6.9528991e+47
8.4376998e+47
-1.4525262e+49
1.6401065e+48
-1.1984806e+48
8.4443521e+47
-1.0863205e+48
8.6769528e+47
1.9639002e+48
9.5919193e+47
-8.5705578e+47
-1.8067081e+49
-6.6826623e+47
1.0378282e+48
1.0048918e+49
-6.8121016e+49
-1.3294069e+49
4.4845966e+48
5.780545e+48
-2.5575313e+48
-3.3214179e+48
1.4651228e+49
1.5735452e+48
-1.8317866e+49
1.0610607e+48
9.1023851e+47
-8.7005745e+47
-7.2222905e+47
1.3648108e+48
1.961358e+49
-1.1374463e+48
-1.2239496e+48
7.2200669e+47
8.4643725e+47
-1.457959e+49
1.9576755e+49
-1.0533627e+48
-1.2016872e+48
8.6319013e+47
9.3657574e+47
-1.8003896e+49
1.0733431e+48
9.7565102e+47
-8.6533864e+47
-6.8204816e+47
-6.7850448e+49
4.6327644e+48
5.6936134e+48
-2.247798e+48
-3.5021597e+48
9.6217814e+48
-7.3263926e+49
-1.4063211e+49
-1.1184017e+49
-7.7199515e+49
-1.0637768e+49
1.117293e+48
-1.2844214e+48
-1.2196064e+48
8.1002929e+47
-1.1170035e+48
-1.2599573e+48
7.9876458e+47
8.8084533e+47
3.5168769e+48
6.1992526e+46
-4.5099252e+48
-1.4102369e+47
-2.7986036e+47
1.6062969e+47
1.7922163e+47
-2.7849102e+47
7.8423456e+46
-1.6439474e+47
1.5703308e+47
-2.7051871e+47
-2.5112222e+47
1.8359306e+47
3.5672418e+48
5.0316302e+46
-4.5982975e+48
-2.8540228e+47
1.7481883e+47
1.9044434e+47
-2.7021013e+47
-2.4772921e+47
-2.7668232e+47
1.6950003e+47
1.7894677e+47
-4.672457e+48
-2.7787377e+47
-2.8296506e+47
1.6662837e+47
1.9155225e+47
1.811788e+48
-1.438896e+49
-2.5087797e+48
1.050668e+48
-5.6216158e+47
-4.3134626e+47
1.2684443e+48
-1.2523599e+47
-3.342499e+48
4.4728067e+48
1.4291955e+47
-2.6203402e+47
-2.7907259e+47
1.9745517e+47
1.972643e+47
-3.3718204e+48
4.4832519e+48
-2.1759715e+47
-2.5903358e+47
-2.6259613e+47
1.9963692e+47
2.0934096e+47
1.8201468e+47
-3.1687022e+47
-4.11336e+48
2.0676383e+47
-2.2990075e+47
-2.0829686e+47
2.2847024e+47
2.8254575e+47
-4.127056e+48
-2.102966e+47
-2.3889396e+47
1.9089626e+47
1.9919059e+47
-7.8619811e+46
3.5230932e+48
7.4543396e+46
-2.7529764e+47
-2.859048e+47
1.8357973e+47
1.8148174e+47
3.5060018e+48
-1.3211828e+47
-2.7683586e+47
-2.7711389e+47
1.7318271e+47
1.8864898e+47
8.5661523e+46
-1.477822e+47
-2.8054922e+47
-2.7881719e+47
1.7988145e+47
1.6183517e+47
6.8881601e+46
1.7483321e+47
-2.8634704e+47
-2.7582726e+47
1.7588937e+47
-1.4638647e+49
2.1774246e+48
1.0508231e+48
1.2254208e+48
-4.2817175e+47
-6.6066579e+47
2.1992203e+48
-1.5475722e+49
-3.1476215e+48
-1.5244132e+48
-1.6904849e+49
2.9907401e+48
-1.4336356e+48
-4.8015859e+46
3.5556476e+48
-4.5678197e+48
-2.579096e+47
-2.7624039e+47
2.0033785e+47
2.0370132e+47
3.5844179e+48
-4.6077409e+48
-2.8508952e+47
-2.7962429e+47
1.9294277e+47
1.8585022e+47
3.4689009e+46
-2.765923e+47
1.7273408e+47
1.8298983e+47
-2.8107692e+47
-2.6571011e+47
-2.7401244e+47
1.851244e+47
1.8189433e+47
-1.0543085e+47
-3.4595299e+48
2.0693018e+47
-2.6769606e+47
-2.5879338e+47
2.0813862e+47
-3.4724088e+48
-2.6977769e+47
-2.6906476e+47
1.9369802e+47
2.0466271e+47
-1.9583454e+47
2.5200893e+47
-4.2174126e+48
-2.1891898e+47
-2.3836011e+47
2.0880389e+47
1.9607426e+47
-4.2543903e+48
-2.2414807e+47
-2.3570678e+47
2.0187277e+47
2.0004722e+47
1.0615802e+49
-1.3709766e+49
1.3249054e+49
1.4774809e+49
-4.2079012e+48
1.5973393e+49
1.6259144e+49
-3.988751e+48
1.3585052e+49
-1.4642847e+49
1.0148386e+48
1.2201901e+48
-4.8111185e+47
-6.1266172e+47
2.0569697e+48
-1.4446442e+48
-4.1485218e+48
1.8018656e+47
-2.4907848e+47
-2.3286202e+47
1.942193e+47
-3.2712275e+49
-4.1652149e+48
-8.1586471e+48
2.4129992e+49
2.6617287e+49
7.6827769e+49
7.5472679e+49
7.8569324e+49
8.0566772e+49
-1.5286146e+49
-2.2774023e+48
-8.5378898e+49
-2.2104686e+48
-8.3936836e+49
1.2647735e+49
-1.3497892e+49
-1.1046927e+47
-8.0747328e+49
-3.4770311e+45
-8.0847928e+49
1.2138232e+49
1.5397059e+48
-1.2912922e+49
-1.110468e+48
-8.6263511e+49
-8.0487052e+47
-8.646383e+49
-1.0223682e+49
-8.7916354e+49
-4.2909782e+48
-5.4553045e+48
4.2114913e+48
8.2698338e+48
-9.6625814e+48
2.0553741e+48
-6.2099087e+49
8.2095215e+48
-9.6231133e+48
-5.4730054e+46
-8.2810612e+49
2.4006316e+48
-6.1381543e+49
-2.3071947e+47
-8.230932e+49
-9.9067076e+48
-2.6210057e+48
-8.7518743e+49
-1.1079008e+49
-2.4043309e+48
-8.6974031e+49
5.052434e+47
-5.4395609e+47
1.7776418e+48
-4.1424641e+48
5.3693384e+48
-5.6510266e+48
1.3073206e+47
-6.6377871e+49
-7.4883044e+48
-1.5613368e+48
-8.5695222e+49
8.7408856e+47
-4.6817953e+48
-4.3517486e+47
-8.6685248e+49
-9.3049793e+48
-3.6205905e+48
6.0753271e+49
6.6212958e+49
3.1542197e+49
7.1968061e+49
-4.1754947e+49
6.6751809e+49
6.2269489e+49
6.7688286e+49
-1.9640084e+49
-4.4270201e+49
6.5198163e+49
1.038789e+49
-7.0415602e+49
-1.4594031e+49
-1.0738741e+49
1.1532059e+49
-1.392199e+49
4.3124207e+48
-3.0172184e+48
-2.2068863e+48
5.7294844e+48
-6.5515638e+49
4.5517266e+48
5.7531822e+48
-1.9264234e+48
-3.2643218e+48
-7.4670197e+49
-1.0244957e+49
1.7625897e+48
-2.5704275e+48
-1.6426824e+49
8.3801144e+47
-7.9845685e+47
-6.0834461e+47
1.0038079e+48
2.333132e+48
-1.669689e+49
-5.842622e+47
-8.0661851e+47
8.6506427e+47
1.0013174e+48
1.4305837e+49
1.7466866e+48
-1.7659562e+49
9.338378e+47
-8.0969396e+47
-6.5077921e+47
1.0635525e+48
1.5276748e+48
-1.1721602e+48
-1.0881258e+48
-1.4141434e+49
8.3938731e+47
-1.1891033e+48
-1.0134434e+48
9.0222865e+47
-1.7382303e+49
-8.107422e+47
-6.1174891e+47
9.4860336e+47
1.0614725e+48
-4.4630718e+48
1.2371844e+47
-2.6174798e+47
-2.7845149e+47
1.7819616e+47
-2.2530948e+47
3.3336003e+48
2.9370911e+47
-4.0876819e+48
-1.9414451e+47
-2.2238428e+47
2.1443092e+47
2.117352e+47
3.2715869e+48
-3.559208e+47
-3.9764826e+48
-1.9667459e+47
-2.2000845e+47
1.999206e+47
2.1389785e+47
1.6098041e+47
4.3712172e+48
-2.7343721e+47
-2.4963981e+47
-2.6149172e+47
1.8134279e+47
2.0226445e+47
4.4362316e+48
2.2822882e+47
1.9231335e+47
-2.6605672e+47
-2.4782439e+47
1.9454267e+47
2.0985877e+48
-1.393842e+49
-2.8347958e+48
1.3146609e+48
1.0535392e+48
-5.0791252e+47
-3.5527572e+47
1.2068925e+47
3.4244732e+48
-2.0120346e+47
1.6766133e+47
-2.7745631e+47
-2.7208801e+47
1.8668267e+47
3.4506668e+48
1.7295206e+47
-2.6552058e+47
-2.7517558e+47
1.8202396e+47
1.8157358e+47
1.2449051e+47
-2.0392179e+47
-2.7514142e+47
-2.7753524e+47
1.5928253e+47
1.7730826e+47
1.4324803e+47
1.6850205e+47
-2.8424544e+47
-2.7107819e+47
1.7048689e+47
3.5458207e+48
8.175607e+46
-4.5260288e+48
1.9428756e+47
-2.6736383e+47
2.0938722e+47
-2.6338752e+47
8.5843639e+46
1.746172e+47
-2.6662498e+47
-2.6343346e+47
1.8971987e+47
3.4487371e+48
-4.4057165e+48
1.2874323e+47
-2.6551672e+47
-2.8010937e+47
1.8509588e+47
1.8420197e+47
1.3129853e+47
-2.6338396e+47
-2.7809414e+47
1.7422139e+47
1.7516235e+47
-3.3758778e+48
1.3644692e+47
2.0439689e+47
-2.5993414e+47
2.1324796e+47
-2.5688805e+47
2.3111952e+47
-4.1347589e+48
1.9430974e+47
-2.2936242e+47
-2.0884262e+47
2.0831023e+47
-1.42369e+49
2.6606034e+48
1.067999e+48
1.273618e+48
-6.0173494e+47
-3.5153333e+47
3.3263027e+48
3.187198e+47
-4.0843067e+48
2.196481e+47
-2.2326306e+47
-1.9943759e+47
2.0518997e+47
2.251794e+47
-2.5097607e+47
-2.6365733e+47
1.9446703e+47
1.8984824e+47
-2.4561501e+48
3.3860137e+48
-1.6386676e+49
-1.337618e+48
-1.4863593e+49
-3.4483272e+48
-1.4040666e+48
2.1638881e+48
-1.4532384e+49
1.0496022e+48
1.2946285e+48
-5.822239e+47
-4.180082e+47
-1.4212064e+47
-3.4073205e+48
4.5246754e+48
2.0156563e+47
-2.5603139e+47
-2.6700573e+47
2.0820497e+47
1.9909302e+47
-3.3581476e+48
4.4708278e+48
-2.6078447e+47
-2.6250437e+47
1.9784939e+47
2.0605647e+47
2.2360721e+47
-4.1093315e+48
2.0612086e+47
-2.267317e+47
-2.0983521e+47
2.066852e+47
2.9408933e+47
-4.1836872e+48
2.1759785e+47
-2.3019202e+47
-2.0664816e+47
2.0289797e+47
-7.8733156e+46
3.5220455e+48
1.2848013e+47
-2.6963911e+47
-2.8019215e+47
1.8358693e+47
1.8168098e+47
3.4966797e+48
-2.7855887e+47
-2.7727932e+47
1.7118382e+47
1.8486303e+47
8.7419279e+46
4.4900144e+48
-2.8024632e+47
-2.8233035e+47
1.5903772e+47
1.7609018e+47
1.068269e+47
4.5583616e+48
1.7335899e+47
-2.8331518e+47
-2.7207899e+47
1.7274861e+47
-9.7954931e+46
3.5369396e+48
-4.4884884e+48
-2.627899e+47
-2.7466084e+47
2.0154093e+47
1.9993246e+47
3.5736872e+48
-4.5667456e+48
-2.8169195e+47
-2.779237e+47
1.8625517e+47
1.952568e+47
8.3142962e+46
4.6486359e+48
1.7604048e+47
-2.7319502e+47
-2.7700416e+47
1.8608394e+47
4.5626578e+48
1.8915825e+47
-2.7065107e+47
-2.593953e+47
1.8710635e+47
-1.4127966e+49
1.1056064e+48
1.2810926e+48
-5.8226796e+47
-3.3163918e+47
-1.6808564e+47
-3.3692616e+48
-2.5096848e+47
-2.6282647e+47
2.1298648e+47
2.0541319e+47
-3.4343572e+48
-2.653599e+47
-2.6413424e+47
2.0045814e+47
2.0577858e+47
2.4864809e+47
-4.2281432e+48
2.1151971e+47
-2.2842608e+47
-2.1580389e+47
2.0659896e+47
-4.1071587e+48
2.1940244e+47
-2.2912497e+47
-2.0740806e+47
2.0475752e+47
-2.2694987e+48
-1.5964156e+49
-1.2897303e+48
-1.552113e+49
-1.3968987e+48
1.1555192e+49
-1.4802322e+49
1.4402634e+49
1.2743868e+49
-4.0641664e+48
1.4193261e+49
1.3157737e+49
-3.9403389e+48
6.5519387e+46
1.5397713e+47
-2.8105208e+47
-2.7791704e+47
1.7233289e+47
3.5369716e+48
6.9743403e+46
-2.6853189e+47
-2.7797488e+47
1.7211095e+47
1.719553e+47
1.0834839e+47
-2.5870176e+47
-2.7400596e+47
-7.0426377e+46
3.5331237e+48
-2.5843782e+47
-2.6656011e+47
1.8243587e+47
1.8449527e+47
3.5849702e+48
-2.7633551e+47
-2.7058853e+47
1.7975683e+47
1.701926e+47
9.2808149e+46
-2.6832271e+47
-2.6502555e+47
1.7887424e+47
1.7639877e+47
-2.6463371e+47
-2.4932252e+47
1.782844e+47
8.3971944e+47
-2.1600047e+45
-1.0664701e+48
-5.1325521e+45
-4.5817174e+46
4.1627909e+45
1.045217e+48
-1.0373816e+46
-3.8656892e+46
-8.5343181e+47
1.0680813e+48
1.9180532e+45
-3.3183102e+46
-2.8164974e+45
-1.0909734e+48
-4.0293012e+46
-8.2341463e+47
1.1864294e+46
-1.7768024e+46
-4.076243e+46
3.1544443e+45
-1.1247328e+46
-4.0623395e+46
8.360217e+47
3.9189429e+45
-1.9827025e+46
1.0405214e+46
-3.1035541e+46
8.6137119e+47
-3.2699335e+45
-1.1012569e+48
-4.5063198e+46
-1.0277554e+45
1.0778263e+48
-3.8690417e+46
-8.497442e+47
1.059722e+48
-1.0425285e+44
-2.0456895e+46
-4.0813099e+45
-1.0799645e+48
-3.9178482e+46
-3.6184318e+45
8.3346266e+47
5.3433909e+45
-2.3194681e+46
8.4296604e+47
-4.1521455e+46
4.9445036e+45
-4.0677634e+46
-3.2973616e+46
7.5471957e+45
8.5678451e+47
-1.0954086e+48
-3.6678514e+46
8.4687801e+47
-1.0782666e+48
-4.8110539e+46
-9.5340586e+44
1.0549709e+48
-4.0615061e+46
-4.3725996e+46
-3.0821242e+48
3.08867e+47
-4.7439419e+47
2.0138558e+47
-1.4548933e+47
2.4900253e+47
-1.1993894e+47
4.7513174e+47
-3.3115798e+48
-6.4061812e+47
-1.6721904e+47
3.162497e+48
6.8144726e+47
-3.6522735e+48
-1.4788456e+47
4.5075211e+47
-1.1781286e+47
-1.6272902e+47
2.0555011e+47
2.3699223e+47
6.4429996e+44
8.6483045e+47
-1.0603291e+48
-1.0190225e+46
-5.6989473e+46
8.7454569e+47
-1.1980806e+46
-1.0752959e+48
-6.5697239e+46
-1.0384006e+46
-6.3485556e+43
1.1247072e+48
-4.2258846e+46
1.1032696e+48
-1.5281074e+46
-3.6277799e+46
-3.2321685e+44
8.7051067e+47
-1.0897171e+48
-5.1484755e+46
8.6927082e+47
-1.0803143e+48
-6.4922414e+45
-4.5383658e+46
-2.0237911e+45
1.0999166e+48
7.5754694e+44
-2.9742579e+46
1.1128653e+48
-3.5100873e+46
-8.1892387e+47
8.4331856e+45
-2.8636843e+46
-3.4422897e+46
2.6673071e+46
-5.2492854e+46
-9.5367573e+47
-6.9329082e+46
8.3328198e+47
3.5467833e+46
-9.8785588e+47
-6.2517669e+46
1.6484364e+46
-3.6015989e+46
-3.046347e+46
8.0936963e+47
3.9243714e+46
-9.6495842e+47
-6.3487996e+46
8.1742666e+47
-9.8076768e+47
-7.0548525e+46
5.6980527e+45
-5.6186667e+46
4.8719313e+45
-5.0942639e+46
1.0527741e+46
8.7604666e+47
-1.4713195e+46
-4.3889228e+46
8.9070028e+47
7.351648e+45
-4.8721794e+46
-1.1905355e+46
6.7394321e+45
1.1192332e+48
-3.978728e+46
1.0960835e+48
-1.4760641e+46
-3.5699812e+46
7.4692197e+45
8.7942649e+47
-4.3514625e+46
8.6945706e+47
6.6388607e+45
-4.5824022e+46
-3.4227085e+45
1.0850606e+48
2.4680668e+45
-4.1466166e+46
1.1070542e+48
-3.5661982e+46
-7.4123603e+45
8.5526561e+47
2.0849597e+45
-4.5426834e+46
8.6845013e+47
-8.4649855e+45
-3.9160515e+46
-1.1760893e+45
-2.6018877e+45
-3.8863773e+46
-5.2128997e+45
-4.533248e+46
-8.6458774e+47
7.6185063e+45
-7.5871608e+45
-4.0574851e+46
-9.3449186e+45
8.7757977e+47
-4.3813652e+46
-1.3616622e+46
-4.0059754e+46
-4.2771081e+46
3.5602093e+47
-3.245411e+48
1.9963055e+47
-1.635546e+47
-1.378442e+47
2.3834356e+47
-3.1787486e+48
4.0469682e+47
2.078271e+47
-1.7134847e+47
-1.259801e+47
2.2758294e+47
-4.5315352e+47
-3.5915869e+48
6.0418357e+47
-1.6636295e+47
-3.5047249e+48
-1.7305785e+47
2.4332372e+48
-3.206495e+48
2.8918864e+48
3.2767077e+48
-6.3454803e+47
3.0955334e+48
3.2241096e+48
3.0171985e+48
-6.5874051e+47
1.6726772e+46
8.7505314e+47
-1.0977555e+48
-2.8761805e+46
8.7723304e+47
2.3260996e+46
-1.1116846e+48
-4.8323053e+46
-1.867107e+46
2.3152255e+46
1.1045928e+48
-3.150296e+46
1.094176e+48
-1.8126394e+46
1.838063e+46
8.8142865e+47
-1.1157005e+48
-4.5937231e+46
8.7142838e+47
-1.0983816e+48
-4.9003549e+46
1.7543883e+46
1.1083504e+48
-2.8370518e+46
1.0913853e+48
-3.1323468e+46
8.6078216e+47
-1.7073175e+46
-4.2532518e+46
-8.0326736e+45
-4.4304808e+46
-8.6928429e+47
-1.2527893e+46
-3.863912e+46
-2.0359747e+46
-3.8724192e+46
1.5672487e+46
8.6067451e+47
-3.4863552e+46
8.6702299e+47
-4.1129853e+46
-1.2162072e+46
-4.0744697e+46
-3.7811351e+46
-8.545234e+47
1.3351602e+46
-3.452885e+46
-2.1840789e+45
8.7164764e+47
1.4256653e+46
-1.0950983e+48
-5.6317787e+46
-1.0510504e+48
-6.2366059e+46
1.9307089e+46
-3.7853776e+46
7.6695628e+45
8.6743387e+47
-1.0717496e+48
-5.8874811e+46
8.6847492e+47
-1.086841e+48
-5.3219318e+46
-1.3038334e+46
-3.8451394e+46
-3.7335163e+46
-2.7281262e+46
8.0903945e+47
4.3578335e+46
-9.7152156e+47
-7.2733866e+46
8.4341796e+47
-3.2558499e+46
-1.0083523e+48
-6.8148391e+46
8.066168e+45
-2.9627522e+45
-4.7979713e+46
1.9454448e+46
-5.7324924e+46
-1.9743922e+46
8.2322078e+47
-9.9604614e+47
-6.4137198e+46
8.3687828e+47
-9.8785494e+47
-6.5230255e+46
-2.8862831e+44
-4.2929282e+46
-5.1732922e+46
1.0890605e+49
5.437182e+48
-1.3899933e+49
1.2117227e+49
1.3694863e+49
1.3348476e+49
1.4956952e+49
5.3248776e+48
1.3683986e+49
1.2423761e+49
3.6785338e+48
3.4120778e+48
-6.5529914e+47
2.9753695e+48
3.2722555e+48
3.0091392e+47
-3.158938e+48
-1.3912286e+47
-1.6018847e+47
1.937986e+47
2.3455099e+47
-3.2054856e+48
2.0479976e+47
-1.7217428e+47
-1.3354123e+47
2.2527607e+47
-4.1446472e+47
-1.5306666e+47
-1.6980284e+47
-8.2234164e+47
-4.3274512e+44
-6.0410764e+46
2.4627031e+46
-9.756422e+47
-7.6826607e+46
8.3528845e+47
2.9740468e+46
-1.0023206e+48
-7.094324e+46
-5.967076e+46
-1.0108436e+48
-7.4028233e+46
-3.5785634e+49
2.3745341e+49
-8.5226787e+48
-3.6683212e+48
2.6556179e+49
7.5187934e+49
7.4077385e+49
7.7525712e+49
7.9395789e+49
-5.3307044e+48
6.2979865e+49
4.4159354e+48
6.4230767e+49
-7.8351699e+48
4.0142783e+48
5.6419656e+48
-6.9779954e+48
3.7431925e+48
8.59536e+49
4.1013574e+48
8.5213717e+49
5.1080492e+48
8.0770419e+48
-1.0584434e+49
8.7841235e+48
-9.9907021e+48
-6.1939695e+47
8.2406708e+49
-5.0634495e+48
1.1473987e+48
8.2680228e+49
-8.7589316e+48
-3.7102376e+48
1.4710761e+49
-1.8192019e+47
-7.7693136e+49
-1.822142e+47
-7.8256947e+49
-1.3587661e+49
1.6159745e+48
-1.1916438e+48
-8.5128488e+49
1.6814946e+48
-1.4007518e+49
-1.2995619e+48
-8.3898913e+49
-1.0998209e+49
-8.6368111e+49
-4.2241406e+48
-5.2162371e+48
4.3186601e+48
5.2385959e+48
-1.1506e+49
-8.5222243e+49
-4.0051798e+48
-5.3044681e+48
3.9948818e+48
5.3371209e+48
1.1387626e+49
-1.2278162e+49
2.190207e+48
-6.1184292e+49
1.0956726e+49
-1.2063097e+49
1.9049832e+47
-8.0941923e+49
2.3196422e+48
-6.047514e+49
3.8063633e+47
-8.0699822e+49
1.1664452e+49
1.9286825e+48
-1.2226766e+49
-2.3564208e+48
-8.5273459e+49
-2.0901496e+48
-8.5472945e+49
-1.017013e+49
-8.4745164e+49
-4.9842235e+48
3.6655069e+48
4.7432018e+48
-3.9132559e+48
-1.4191388e+48
-2.1672503e+49
-4.8316705e+47
1.738997e+49
-1.8965103e+48
-2.1506586e+49
-8.6131575e+47
-1.3273665e+46
-2.1463312e+48
6.8728433e+47
-7.8706472e+47
1.8863951e+48
-3.9855643e+48
7.1775831e+48
-8.6117951e+48
1.2049874e+48
-6.1924592e+49
8.2917475e+48
-9.4790605e+48
-1.4926819e+48
-8.2534946e+49
2.2594266e+48
-3.8768239e+48
1.3960436e+48
-6.148175e+49
-1.7294754e+48
-8.2397406e+49
-9.98504e+48
-8.5466123e+49
-4.0287092e+48
-8.4916637e+49
-1.071627e+49
-4.3278248e+48
4.0614487e+47
-4.395261e+47
-3.9927725e+48
4.7349314e+47
-4.8225449e+47
8.5163179e+47
-4.8545952e+48
-6.576694e+48
-1.0612007e+48
-6.5753368e+49
-8.5777051e+49
-7.6519984e+48
-2.1231583e+48
-4.3187108e+48
2.4677895e+47
-1.9329055e+49
-1.2911783e+48
-1.1617734e+48
9.7163301e+47
-1.0182186e+48
-1.0896209e+49
1.3152785e+49
1.5087099e+49
1.5667156e+49
1.6181702e+49
1.5302023e+49
5.8850901e+49
6.4391356e+49
3.1603856e+49
7.0190095e+49
6.4747913e+49
-4.3247392e+49
1.3423473e+49
-1.3932955e+49
1.4610941e+49
1.4935041e+49
1.6381508e+49
1.5874775e+49
5.992798e+49
6.5549144e+49
-1.8967905e+49
-4.4581205e+49
6.2566258e+49
-7.1667518e+49
-9.563464e+48
4.4536653e+48
5.7073062e+48
-2.9004073e+48
-1.5662609e+48
-1.6178883e+49
-5.27835e+47
-7.7132185e+47
9.0612516e+47
1.0591153e+48
1.3992641e+49
1.5564842e+49
1.2304311e+49
-1.4982524e+49
-3.6315779e+48
1.2097053e+49
1.3844498e+49
-1.3040488e+49
2.3594672e+48
-3.0832816e+48
-4.2622951e+47
1.0220705e+48
1.3119186e+48
-2.5786013e+47
2.6163342e+48
-3.561157e+48
-1.120242e+48
1.3337548e+49
3.718437e+48
-1.0816942e+48
3.1433498e+48
1.052241e+48
1.2868808e+48
-5.0637673e+47
-2.464843e+47
2.4456913e+48
-1.3913736e+49
1.046588e+48
1.3138816e+48
-5.1893001e+47
-3.3797878e+47
-1.3640242e+49
1.1013366e+48
1.3003038e+48
-5.2098564e+47
-2.58637e+47
-2.486833e+48
-1.5379416e+49
-1.1487428e+48
-1.4734511e+49
-1.2119426e+48
1.3765523e+49
1.2575509e+49
-3.6487811e+48
-3.1892326e+48
2.0819872e+47
-3.9163336e+47
1.9191987e+47
-2.6775818e+47
-2.4804609e+47
2.1070189e+47
2.9333888e+47
-4.5805821e+47
-3.8082965e+48
1.8196123e+47
-2.2527508e+47
-1.9109226e+47
2.1973257e+47
3.2262786e+48
3.7529758e+47
-3.9053529e+48
-1.8845317e+47
-2.2786794e+47
1.9206051e+47
2.1303162e+47
2.5881261e+47
1.7904146e+47
-2.7539347e+47
-2.4804012e+47
1.8851328e+47
-2.8876052e+47
3.229438e+48
3.7814473e+47
-3.9015056e+48
-1.8993756e+47
-2.2385762e+47
2.0141057e+47
2.1080642e+47
3.2729327e+48
-3.9670256e+48
-2.00666e+47
-2.2699582e+47
1.8904258e+47
2.1263084e+47
1.8789523e+47
-2.6344494e+47
-2.7584699e+47
1.6954033e+47
1.9042471e+47
2.5466143e+47
1.8598174e+47
-2.7183828e+47
-2.5150519e+47
1.8570965e+47
-3.3118395e+48
1.6092797e+47
4.4214345e+48
2.0546878e+47
-2.5239096e+47
-2.473905e+47
2.1228942e+47
2.558901e+47
-3.9911044e+48
1.9583541e+47
-2.2239502e+47
-1.9751892e+47
2.1590429e+47
3.3345309e+48
3.3263743e+47
-4.0728127e+48
-1.9366137e+47
-2.21654e+47
2.1512479e+47
2.1094608e+47
4.4283312e+48
2.564835e+47
1.9218258e+47
-2.6427697e+47
-2.4633607e+47
1.926275e+47
1.0997321e+47
-2.6415351e+47
-2.7299287e+47
1.9168062e+47
-2.6461101e+47
-2.7492915e+47
1.7935847e+47
1.7753969e+47
-3.4907359e+48
1.332662e+47
-2.5788335e+47
-2.728351e+47
1.9530759e+47
1.5419227e+47
-4.4574254e+48
1.7887107e+47
-2.7847104e+47
-2.748315e+47
1.8950607e+47
3.4327438e+48
-4.3783951e+48
-2.5478062e+47
-2.6569953e+47
2.0981707e+47
1.9585979e+47
1.82021e+47
-2.6736296e+47
-2.5542752e+47
1.8130735e+47
2.8420741e+47
3.3445997e+48
-4.0948219e+48
1.9734115e+47
-2.2318658e+47
-2.0076672e+47
2.1452213e+47
3.2799735e+48
-3.9811929e+48
-1.9129543e+47
-2.1818317e+47
2.1534201e+47
2.118936e+47
2.1240196e+47
-2.5160052e+47
-2.5801817e+47
1.8757309e+47
2.0190467e+47
1.9844178e+47
-2.5902979e+47
-2.3838742e+47
2.0099101e+47
-6.9071169e+45
8.3118764e+47
-1.0552556e+48
9.2155451e+45
-3.9988477e+46
-1.0770515e+48
-4.3650148e+46
1.6694895e+46
-3.162555e+46
-3.7226556e+47
-3.078374e+48
4.8583426e+47
2.0824236e+47
-1.5219662e+47
-1.0493609e+47
2.4067478e+47
-3.7645791e+46
7.9278132e+47
5.5950369e+46
-9.4722568e+47
-5.8004772e+46
8.2296152e+47
-5.2817051e+46
-9.716181e+47
-5.8556414e+46
1.9176413e+46
-2.5282382e+46
1.0774001e+48
-3.3901718e+46
1.0342802e+48
3.1256028e+46
-4.1843287e+46
-2.9821632e+48
-5.2625549e+47
2.0310782e+47
-1.3344657e+47
-1.0570092e+47
2.492496e+47
-3.7441441e+46
7.9222937e+47
-9.4543086e+47
-5.8848702e+46
8.0264139e+47
-6.3611978e+46
-9.3370946e+47
-6.2769851e+46
2.2737013e+46
1.0574586e+48
-4.1888243e+46
-3.5745424e+46
1.0456736e+48
-4.2091744e+46
-1.5755589e+46
8.5029436e+47
1.3547352e+46
-5.2052334e+46
8.5212722e+47
-2.3394476e+46
-4.8521518e+46
1.2804468e+46
1.0799438e+48
-1.9859043e+46
-3.9419265e+46
1.0579472e+46
1.0940442e+48
-3.9260462e+46
-8.6140567e+47
4.0849199e+45
1.0990328e+48
-3.8819275e+46
1.3916891e+46
-5.0431787e+46
8.3936344e+47
1.6354295e+46
-5.5345068e+46
1.0737293e+48
5.9002207e+45
-4.1638586e+46
5.1678556e+47
-3.1746912e+48
-6.9217807e+47
-1.3999168e+47
7.3583052e+47
-3.5259796e+48
-1.2671481e+47
-8.5832871e+47
7.0898165e+45
1.0736268e+48
-1.5762582e+46
-3.8964054e+46
4.4632302e+45
-1.3247202e+46
-4.7057287e+46
8.6722252e+47
4.0279582e+45
-4.4831034e+46
4.8310421e+45
1.0926172e+48
-3.6453239e+46
1.9160984e+44
8.554911e+47
-9.1571042e+44
-4.6558264e+46
8.6970043e+47
-4.1623585e+46
-2.6194381e+45
1.094984e+48
-3.5809151e+46
1.0750716e+48
-1.7494082e+45
-3.8877022e+46
-2.7819506e+45
8.5728065e+47
4.6070219e+45
-4.1629952e+46
8.471678e+47
-1.3079458e+46
-4.0778731e+46
1.052392e+46
-1.7949908e+46
-4.2993135e+46
9.8632916e+45
-4.1795715e+46
-8.5961258e+47
5.9794177e+44
-4.2893857e+46
-6.3957533e+44
-4.3627374e+46
8.5005526e+47
-3.4810931e+45
-4.3220285e+46
2.8810191e+45
-4.370648e+46
-8.7565733e+47
-3.3653308e+45
1.0952538e+48
-2.3693044e+46
-4.9224465e+45
-1.1050132e+48
-3.4001218e+46
-8.8194262e+47
1.1106953e+48
-2.9418905e+45
-1.9789004e+46
-7.0812254e+45
-1.111342e+48
-3.1829346e+46
-8.6162237e+47
3.713328e+45
-4.0921136e+46
-5.4194307e+45
-3.1055174e+46
8.6848207e+47
2.1466802e+43
-2.6661084e+46
7.6431279e+45
-3.6436894e+46
1.7777012e+45
8.5381842e+47
-1.069112e+48
-5.7679921e+45
-4.6232896e+46
8.6670204e+47
-1.0999852e+48
-5.2129772e+46
-2.0338755e+45
1.0899172e+48
-3.9027272e+46
1.0702661e+48
-7.2817504e+44
-3.3551427e+46
-1.0701407e+45
8.4520951e+47
1.3480807e+45
-3.8605328e+46
8.5562141e+47
-4.4847029e+46
3.4140768e+45
-4.2979647e+46
8.1481008e+45
-3.9617717e+46
-8.6637599e+47
-2.1072449e+44
-2.8129395e+46
-2.8444847e+44
-1.0577631e+48
-5.1908369e+46
-8.5876015e+47
-4.9429606e+45
-3.4601728e+46
-1.0570193e+48
-2.5325271e+45
-5.6380737e+46
4.0726251e+47
-3.156176e+48
-1.2156646e+47
-1.5106775e+47
1.9799858e+47
2.4262361e+47
-8.0089051e+47
1.2585782e+46
-4.3892513e+46
3.76492e+46
-9.4998926e+47
-6.1962502e+46
8.0972516e+47
4.8213343e+46
-9.7062141e+47
-5.8510467e+46
2.0064759e+46
-4.6462931e+46
-3.0868257e+48
5.0008079e+47
2.1010706e+47
-1.5648475e+47
-1.0721932e+47
2.3691587e+47
4.9790997e+47
-3.3710044e+48
-1.4898575e+47
-3.4842392e+48
6.8851486e+47
-1.4472456e+47
-8.3305545e+47
1.5949058e+46
1.0913059e+48
-3.4486593e+46
3.5990278e+46
-9.8322592e+47
-6.086955e+46
7.896011e+47
5.4181223e+46
-9.4356921e+47
-6.3660369e+46
1.0296896e+48
2.8691919e+46
-4.7641467e+46
-5.2240031e+45
8.3547807e+47
7.2341475e+45
-5.8774624e+46
8.6757859e+47
-4.7686527e+46
-6.0842157e+44
-4.2274087e+46
-3.1495625e+44
-4.407914e+46
-2.6989179e+48
3.4465454e+48
2.91425e+48
3.1575044e+48
-6.096075e+47
-3.4697833e+48
2.7897887e+48
3.1927639e+48
-5.7255512e+47
3.7969596e+47
-3.1114599e+48
1.9958071e+47
-1.4875213e+47
-1.2246877e+47
2.4375574e+47
-3.1659512e+48
4.9274589e+47
2.0720448e+47
-1.6230221e+47
-1.1675016e+47
2.3569083e+47
4.7774268e+47
-3.3209868e+48
-1.6192458e+47
6.5791535e+47
-3.6178803e+48
-1.4625167e+47
-3.3043361e+45
8.4630841e+47
-1.0407593e+48
9.1413564e+44
-5.919024e+46
8.7875495e+47
-7.0318871e+44
-1.1014942e+48
-4.6867668e+46
-4.8140011e+45
6.3891786e+45
1.1161735e+48
-3.0788808e+46
1.0848078e+48
-5.47205e+45
-3.8748296e+46
-2.7555311e+45
8.5674495e+47
-1.055962e+48
-5.9515014e+46
8.6913964e+47
-1.0823012e+48
-4.4864243e+46
-1.5752255e+45
1.0974414e+48
-2.9192061e+46
1.1060743e+48
-3.8458895e+46
-8.243086e+47
1.2261972e+46
-3.5441701e+46
3.0308341e+46
-9.6156441e+47
-6.5603013e+46
8.0850019e+47
4.7306474e+46
-9.7349359e+47
-6.183991e+46
2.034063e+46
-4.8855205e+46
-8.4112759e+47
1.3174958e+46
-3.5603057e+46
3.240141e+46
-9.9366246e+47
-6.2752061e+46
8.0018295e+47
5.0574687e+46
-9.6104213e+47
-6.3962234e+46
2.4357678e+46
-4.8861128e+46
7.2495625e+45
8.6223386e+47
-1.0452761e+46
-4.3862001e+46
8.780509e+47
1.0352402e+46
-4.5172356e+46
-8.5442943e+45
6.9533565e+45
1.102015e+48
-3.8786217e+46
1.0805e+48
-9.6031338e+45
-3.5526335e+46
7.2946233e+45
8.7497987e+47
-4.4406658e+46
8.6695695e+47
-4.5268272e+46
-2.693531e+45
1.0811734e+48
-4.1067285e+46
1.100647e+48
-3.6544234e+46
4.9631706e+45
8.6245771e+47
-6.5528587e+45
-4.0467378e+46
8.5137696e+47
-4.6222603e+46
3.6868973e+45
1.0614997e+48
-4.6623821e+46
9.9366714e+43
1.0827727e+48
-4.0637322e+46
-8.6332967e+47
-5.4182842e+45
1.0842243e+48
-4.2018022e+46
-7.2093362e+45
-4.3973375e+46
8.5235876e+47
-1.1948387e+46
-3.9198678e+46
-5.5625055e+45
1.064911e+48
-3.9659384e+46
6.0063284e+45
8.6920089e+47
-1.0905317e+48
-4.082658e+46
8.8210658e+47
1.4814544e+46
-1.1206836e+48
-4.489207e+46
-7.2832394e+45
1.3145106e+46
1.1073629e+48
-2.9577241e+46
1.0875526e+48
-2.3234425e+46
1.1423292e+46
8.8027344e+47
-1.1118132e+48
-4.6760908e+46
8.7356918e+47
-1.1041953e+48
-4.632706e+46
-1.0217531e+46
1.0910984e+48
-3.0659604e+46
1.1069654e+48
-2.8507606e+46
-8.5975619e+47
-4.9119339e+45
1.07541e+48
-4.0263919e+46
-1.3502987e+46
-4.0298207e+46
8.6776467e+47
-1.3714345e+46
-3.7592038e+46
-5.9808923e+45
1.0917186e+48
-3.6801039e+46
-8.678421e+47
-4.0857396e+45
1.09162e+48
-3.651479e+46
-6.288695e+45
-3.8555912e+46
8.5728586e+47
-3.3332261e+46
1.0694505e+48
-3.4356922e+46
4.028685e+47
-3.2044968e+48
2.0684004e+47
-1.5205312e+47
-1.2621567e+47
2.4326629e+47
-3.0916853e+48
2.158335e+47
-1.5209551e+47
-1.0673591e+47
2.3709155e+47
4.3750662e+47
-3.4180557e+48
-1.4830013e+47
-3.4881734e+48
-1.3826241e+47
-6.4703294e+45
8.5019275e+47
-1.0409182e+48
-6.0264972e+46
8.8075933e+47
5.8853049e+43
-1.1016887e+48
-4.8426364e+46
-2.047901e+45
6.7301877e+45
-3.1620076e+46
-3.6216063e+46
-1.0359272e+45
8.6161017e+47
-1.063169e+48
-6.2706293e+46
8.736777e+47
-1.0910293e+48
-4.6904391e+46
-3.2802281e+45
-3.225124e+46
-4.097449e+46
-8.350532e+47
1.5213648e+46
-3.53124e+46
3.1336941e+46
-9.8114886e+47
-6.3092665e+46
8.1484248e+47
4.7573465e+46
-9.8154249e+47
-6.5340431e+46
2.547678e+46
-5.1990694e+46
-8.3894841e+47
2.0027717e+46
-3.7888774e+46
3.7171847e+46
-9.9060601e+47
-6.7065767e+46
7.9350382e+47
-9.4451556e+47
-7.1717336e+46
-5.1265958e+46
-2.7643582e+48
2.9744581e+48
3.1596861e+48
-5.789782e+47
2.9067591e+48
3.2432544e+48
-6.4585436e+47
1.1543223e+49
5.4703639e+48
-1.4610079e+49
1.3361297e+49
1.1700634e+49
1.2811979e+49
1.4509322e+49
5.3893233e+48
1.3185788e+49
1.2034993e+49
1.3168689e+49
1.4315514e+49
-8.3513758e+47
9.7812031e+45
-4.2641784e+46
1.6111215e+45
-4.7085489e+46
8.4720948e+47
7.0836877e+44
-4.1451017e+46
6.7420889e+45
-3.7482897e+46
1.5974029e+45
8.3809747e+47
-3.2265532e+45
-4.0089252e+46
8.4879699e+47
-4.0241733e+46
1.2089857e+45
1.0629129e+48
-3.6471897e+46
1.0439001e+48
3.1064364e+45
-3.5744807e+46
-6.1451264e+45
6.9001438e+45
-3.5881888e+46
-3.8168753e+46
1.127913e+45
8.4072961e+47
-3.5977406e+46
8.5381644e+47
5.4773076e+45
-3.3105986e+46
-1.1997664e+45
1.0461893e+48
-3.2197848e+46
-9.7673808e+44
1.0696208e+48
-3.1532099e+46
6.3789793e+45
8.536439e+47
-3.9162476e+46
8.4538948e+47
-3.7415529e+46
-1.3904867e+45
1.0683906e+48
-3.457613e+46
1.0532595e+48
-3.5961459e+46
1.7822063e+45
-3.7485058e+46
8.3545717e+47
3.9668455e+45
-3.4276739e+46
1.1241214e+46
-3.4823016e+46