/*--------------------------------*- C++ -*----------------------------------*\
  =========                 |
  \\      /  F ield         | OpenFOAM: The Open Source CFD Toolbox
   \\    /   O peration     | Website:  https://openfoam.org
    \\  /    A nd           | Version:  7
     \\/     M anipulation  |
\*---------------------------------------------------------------------------*/
FoamFile
{
    version     2.0;
    format      ascii;
    class       volScalarField;
    location    "7000";
    object      k;
}
// * * * * * * * * * * * * * * * * * * * * * * * * * * * * * * * * * * * * * //

dimensions      [0 2 -2 0 0 0 0];

internalField   nonuniform List<scalar> 
33730
(
1.5222701
1.5203176
1.5207662
1.5205914
1.52094
1.5223994
1.5227376
1.5225645
1.5225929
1.5206184
1.5203075
1.5201933
1.5203801
1.5207512
1.5206142
1.5207282
1.5208467
1.5205432
1.5222435
1.5206614
1.5202954
1.520945
1.5220654
1.5202982
1.520101
1.5206194
1.5204871
1.5232534
1.5221503
1.5219512
1.5228286
1.5230184
1.5235135
1.5225824
1.5229402
1.5230934
1.522251
1.5222996
1.5233326
1.5232767
1.523574
1.5225113
1.5229271
1.5209257
1.5204309
1.5209558
1.5204533
1.520547
1.5208046
1.5202811
1.5201353
1.5205895
1.5210259
1.5205742
1.5210051
1.5210501
1.5210602
1.5207185
1.5206844
1.5203939
1.5202864
1.5215178
1.5215115
1.5217147
1.5202722
1.5201557
1.5205555
1.5216721
1.5201238
1.520141
1.5199679
1.5202906
1.5203681
1.519934
1.5200633
1.5199618
1.5198714
1.5200097
1.5201062
1.5203057
1.5204391
1.5204774
1.5205953
1.5221592
1.5217342
1.5217611
1.5204797
1.5205043
1.520348
1.5201869
1.5207018
1.5207401
1.5206211
1.5206043
1.521856
1.521631
1.5234105
1.5223475
1.5220995
1.5229693
1.5231693
1.523291
1.5229412
1.5228711
1.5235264
1.523561
1.5236255
1.5235742
1.5233179
1.5227666
1.522636
1.5222304
1.5236208
1.5235604
1.5227957
1.5227542
1.5232505
1.5223943
1.5224762
1.5234825
1.523447
1.523329
1.523353
1.5235618
1.5236169
1.5236145
1.5236711
1.523671
1.5232867
1.523577
1.5222926
1.522675
1.5236626
1.5236624
1.5227915
1.5227998
1.5207092
1.5213193
1.521342
1.5207124
1.5213501
1.5213591
1.5207418
1.5207322
1.5208516
1.5211126
1.5203286
1.520451
1.5212128
1.5212456
1.5205817
1.5206027
1.5213917
1.5213864
1.5208189
1.5208217
1.5213651
1.5213802
1.5208012
1.5208006
1.5213682
1.5208982
1.5208897
1.5212795
1.5213907
1.521392
1.5208746
1.5208723
1.5206794
1.5206256
1.5206778
1.5206373
1.5214618
1.5214616
1.5206189
1.5205652
1.5205416
1.5206115
1.5202246
1.5214642
1.5214679
1.5214591
1.5214585
1.5214692
1.5214737
1.5214681
1.521528
1.5214894
1.5216177
1.5215119
1.5205636
1.5205426
1.5205503
1.5205663
1.5204979
1.5204857
1.5204627
1.5204791
1.5201112
1.5199524
1.5200645
1.5215271
1.5216328
1.5215278
1.5216278
1.5201993
1.5203789
1.5202265
1.5203352
1.520466
1.5205211
1.520498
1.520486
1.5202161
1.5203913
1.5202544
1.5203439
1.5204994
1.5205235
1.5204881
1.5204676
1.5200636
1.5199737
1.5194026
1.5194479
1.5198284
1.519728
1.5198558
1.5199692
1.5197173
1.5196709
1.5197202
1.5197898
1.519901
1.5198084
1.5198813
1.5199875
1.5202221
1.52022
1.5203368
1.5203471
1.5201688
1.5202709
1.5201567
1.5202765
1.5203571
1.5203932
1.5203742
1.5203784
1.5204441
1.520466
1.5204452
1.5204645
1.5205894
1.5205984
1.5205759
1.5206165
1.5206823
1.5206679
1.5207009
1.5207244
1.5206057
1.520593
1.520622
1.5206066
1.520733
1.5206961
1.52069
1.5207213
1.52183
1.5218349
1.5215513
1.5215604
1.5216473
1.5216452
1.521644
1.5216039
1.5216947
1.5216709
1.5207903
1.5207946
1.5208248
1.5208121
1.5206676
1.5206927
1.5204083
1.5205503
1.5209322
1.5209348
1.5209525
1.520938
1.5208917
1.5208879
1.5208706
1.52087
1.5218401
1.5216551
1.5235196
1.5235872
1.523625
1.5223583
1.5221236
1.5230774
1.5229683
1.5232576
1.5233257
1.5228777
1.5236449
1.5235955
1.523363
1.5233014
1.5232752
1.5233811
1.5226526
1.5229087
1.522916
1.5224746
1.5225738
1.522517
1.5233168
1.5231877
1.5228699
1.5223563
1.5223536
1.5220067
1.5236343
1.5236274
1.5236058
1.5236181
1.5235889
1.5235647
1.5235745
1.5235346
1.522665
1.5226624
1.5235255
1.5235003
1.5226484
1.5226211
1.5234744
1.5234254
1.5233764
1.5234004
1.5235332
1.5224034
1.5224817
1.5235916
1.5236782
1.5236784
1.5234073
1.5235977
1.5236907
1.5236937
1.5233442
1.5234795
1.5234998
1.5232563
1.5236068
1.5236209
1.5235988
1.5236245
1.5230494
1.5221098
1.5224651
1.5233703
1.5225709
1.5226102
1.5234857
1.5235181
1.5236813
1.5236839
1.5236625
1.5236671
1.5236787
1.5236722
1.5236612
1.5236505
1.5235643
1.5226734
1.522678
1.5235577
1.5226757
1.5226726
1.5235579
1.5235424
1.5220537
1.5220213
1.5209318
1.5209351
1.5220703
1.5220807
1.5209451
1.5209423
1.522079
1.5220665
1.5209587
1.5209554
1.5220551
1.5220823
1.5209746
1.5209724
1.5216892
1.5213888
1.5204774
1.5205775
1.5219033
1.5218633
1.5207104
1.5207213
1.5219684
1.5219423
1.5208154
1.5208196
1.5219809
1.5219886
1.5208482
1.5208494
1.5220798
1.5220708
1.5210197
1.5210167
1.5220371
1.5220717
1.5210237
1.5210205
1.5220463
1.522029
1.5209984
1.5209963
1.5220637
1.5220781
1.5210039
1.5210011
1.5219146
1.5219536
1.5210611
1.5210547
1.5216615
1.5217991
1.5210353
1.521029
1.5220142
1.5220105
1.521051
1.5210475
1.5220039
1.5220301
1.5210508
1.5210468
1.5193914
1.521195
1.5211499
1.5211501
1.5211049
1.5212001
1.5211522
1.5211972
1.5211452
1.5211925
1.5211288
1.521143
1.5210835
1.5211979
1.5211308
1.5211916
1.5211219
1.5214841
1.5214515
1.5214974
1.5214906
1.5214527
1.5214911
1.5214847
1.5214492
1.5213613
1.5213759
1.5211599
1.5211359
1.5211289
1.5210981
1.5211601
1.5211364
1.5211634
1.5211336
1.5210587
1.5210632
1.5209788
1.5209893
1.5204819
1.5210662
1.5210481
1.5209942
1.5209918
1.5205502
1.520453
1.5205371
1.5214637
1.5215066
1.5215009
1.5214697
1.5215034
1.5214971
1.5214568
1.5214592
1.5213352
1.5213213
1.5213457
1.521311
1.5213435
1.5213636
1.5213305
1.5213519
1.5215024
1.5214832
1.5215028
1.5214752
1.5213234
1.5213162
1.5212948
1.5212894
1.5214918
1.5214744
1.5214948
1.5214718
1.5214964
1.521297
1.5215416
1.5215418
1.5215459
1.5215454
1.5215017
1.5214786
1.5214778
1.5214993
1.521189
1.5212024
1.5211334
1.5211436
1.5211686
1.521115
1.5211715
1.5211144
1.521164
1.5210899
1.5211651
1.5210879
1.5211829
1.5211067
1.5211941
1.5211151
1.5211534
1.5211211
1.5211695
1.5211337
1.5210468
1.5210621
1.5209871
1.5209692
1.5204214
1.5210214
1.5210261
1.5209474
1.5209398
1.5204018
1.52113
1.5211011
1.5211356
1.5211024
1.5203791
1.520401
1.5202856
1.5202661
1.5203018
1.5203201
1.5203357
1.520377
1.5204578
1.5204277
1.521484
1.521481
1.5215178
1.5215139
1.5215601
1.521558
1.5215597
1.5215611
1.5215082
1.5214805
1.5214834
1.5215066
1.5215516
1.521549
1.5215496
1.521552
1.5185249
1.5186742
1.5183389
1.5184549
1.5190274
1.5190446
1.5191133
1.5205039
1.5206471
1.5204172
1.5205384
1.5208381
1.5208721
1.5207433
1.5207697
1.5205992
1.5205086
1.5207414
1.5206325
1.5207571
1.5206567
1.520786
1.5206787
1.52103
1.5209345
1.5210298
1.5209328
1.5210852
1.5211124
1.5210086
1.5210312
1.5210781
1.521
1.5210765
1.5209971
1.5210406
1.5209468
1.5210651
1.5209665
1.5206906
1.5208294
1.5205967
1.5207196
1.5209673
1.5208865
1.5210095
1.5209218
1.5207573
1.5206774
1.5208904
1.5207976
1.5209175
1.5208175
1.5209558
1.5208487
1.520955
1.520956
1.5208627
1.5208628
1.520969
1.5208792
1.5209903
1.5208948
1.5208942
1.5207993
1.520811
1.5209109
1.5208759
1.5208784
1.5207799
1.5207813
1.5197735
1.5198141
1.5196782
1.5196967
1.5196667
1.5196994
1.5196193
1.5195991
1.519595
1.5196375
1.5201699
1.5201483
1.5201864
1.5202051
1.5200114
1.5199765
1.5201098
1.5200777
1.5201903
1.5200796
1.5201018
1.5202037
1.5202876
1.5202668
1.5202895
1.5203079
1.5199468
1.5198679
1.5199071
1.5199915
1.5198246
1.5198102
1.519849
1.5198818
1.5199054
1.5198932
1.5199375
1.519953
1.5200101
1.5200612
1.52003
1.5200804
1.5201439
1.520129
1.5201807
1.5201963
1.5199932
1.5200488
1.519997
1.520058
1.5201078
1.5200455
1.5201103
1.5201813
1.5202807
1.5201932
1.5202504
1.5203336
1.5208299
1.5207719
1.5209574
1.5208876
1.5208119
1.5207326
1.5209425
1.5208495
1.5210565
1.5210106
1.5209273
1.5209664
1.5210638
1.5210153
1.5209573
1.5210001
1.5208044
1.520771
1.5209266
1.5208831
1.5208244
1.5207756
1.5208607
1.5209077
1.5207061
1.5208108
1.5207317
1.5206292
1.5209759
1.5209424
1.5210259
1.5209878
1.5208771
1.520887
1.5209707
1.5209634
1.5210827
1.5211175
1.5210515
1.5210822
1.5210844
1.5210515
1.5210791
1.5210458
1.5209681
1.5210013
1.5209161
1.5208803
1.5211238
1.5210663
1.5211204
1.5210618
1.5211255
1.5210694
1.5211577
1.5210972
1.5211162
1.5211187
1.5210391
1.5210351
1.5211233
1.5210448
1.5211527
1.5210701
1.5210978
1.5211063
1.5210098
1.5210157
1.5211263
1.5210535
1.5211262
1.521051
1.5210805
1.5210811
1.5209943
1.5209917
1.5211438
1.5210697
1.5211535
1.5210768
1.5211646
1.521098
1.5211569
1.521089
1.5211233
1.521045
1.5211158
1.5210368
1.5211228
1.5210492
1.5210813
1.5210148
1.5211604
1.5211132
1.5210578
1.521099
1.5210127
1.5210121
1.5209276
1.5209297
1.5209418
1.5208601
1.5209414
1.5208587
1.5210292
1.5209458
1.5210362
1.5209501
1.5209588
1.5208767
1.520964
1.5208796
1.5210657
1.5209975
1.5210618
1.5209869
1.5210554
1.5209804
1.5209257
1.5209978
1.5209929
1.5209211
1.5209422
1.5210088
1.5209253
1.5217877
1.5217379
1.5217018
1.5217629
1.5217393
1.5214845
1.5214784
1.5215231
1.5215237
1.5214857
1.5214883
1.5215296
1.5215335
1.5215735
1.5215686
1.5215715
1.5215759
1.5215675
1.5215635
1.5215673
1.5215703
1.5215731
1.5215444
1.5215727
1.521597
1.5215053
1.5215173
1.5215518
1.5215444
1.5216179
1.5215991
1.5216007
1.5216179
1.521578
1.5215795
1.5215827
1.5215826
1.521609
1.5216282
1.5216452
1.5209764
1.5209803
1.5209903
1.5209868
1.5210173
1.52102
1.5209989
1.5210021
1.5208665
1.5208617
1.5208964
1.5208976
1.520521
1.5206327
1.5207619
1.5207728
1.5210806
1.5210858
1.521082
1.5210855
1.5210923
1.5210851
1.5210626
1.5210544
1.5210596
1.5210637
1.5210557
1.5210585
1.5210403
1.5210436
1.5210355
1.5210372
1.5223111
1.5217587
1.5226913
1.5225836
1.5216085
1.522305
1.5225812
1.5236014
1.5235963
1.5236279
1.5236754
1.5236386
1.5231684
1.5229972
1.5232613
1.5230014
1.5233455
1.5233118
1.5233513
1.5233993
1.5233267
1.5233038
1.5233944
1.5228367
1.5229965
1.5229463
1.5229863
1.5226671
1.5225396
1.5236522
1.5236566
1.5236476
1.5236555
1.5236238
1.5236339
1.5236006
1.5236194
1.5236166
1.5235855
1.5235927
1.5235567
1.5232967
1.5232927
1.5232455
1.5232729
1.5233828
1.5233955
1.5233972
1.5233728
1.5229537
1.522899
1.5228554
1.5229656
1.5224634
1.5224979
1.5222719
1.5224016
1.5226892
1.5231611
1.5231263
1.5226763
1.5226702
1.5230717
1.5230097
1.5226343
1.5233642
1.5233965
1.5233518
1.5233938
1.5232257
1.5232883
1.5232028
1.5232805
1.5229708
1.5228241
1.5229815
1.5227994
1.5225585
1.5228565
1.5226949
1.5224656
1.5224364
1.5224412
1.5221881
1.522125
1.5220813
1.5224021
1.5222775
1.5220292
1.5236094
1.5235954
1.5235923
1.5236081
1.523619
1.5236213
1.5236085
1.5236041
1.5235766
1.5235811
1.5235696
1.5235611
1.5235334
1.5235422
1.5235286
1.523512
1.5227549
1.5233052
1.523297
1.5227621
1.5227786
1.5232897
1.523292
1.5227731
1.5235929
1.5235994
1.523576
1.5235863
1.523581
1.5235857
1.5235621
1.523569
1.5227731
1.5232794
1.523267
1.5227724
1.5227547
1.5232343
1.523216
1.522726
1.5235496
1.5235611
1.5235295
1.5235467
1.5234968
1.5235189
1.5234754
1.5235018
1.5220531
1.5222148
1.5220372
1.5234751
1.52354
1.5234297
1.5234836
1.5236122
1.5236711
1.5236834
1.5236849
1.523729
1.5237259
1.5234922
1.5234147
1.5235443
1.5234029
1.5233433
1.5235322
1.5236104
1.5236009
1.5236327
1.5236469
1.5236201
1.5236386
1.5236996
1.5237042
1.5236917
1.5237006
1.5236778
1.5236676
1.5237076
1.5237054
1.5237037
1.5237061
1.5236814
1.5236841
1.5235268
1.5235169
1.5235423
1.5235459
1.5233683
1.5232782
1.5232113
1.5233796
1.5236155
1.5236098
1.5235976
1.5236079
1.5236225
1.5236321
1.5236352
1.5236288
1.5231631
1.5233768
1.5233388
1.5230714
1.523001
1.522715
1.5220634
1.5223909
1.5232258
1.5231541
1.5225778
1.5226534
1.5235436
1.5235064
1.5235269
1.523474
1.5232798
1.5232704
1.5226933
1.5227139
1.5233074
1.5232909
1.5227302
1.5227359
1.5236002
1.5235881
1.5235821
1.5235688
1.523622
1.5236147
1.523606
1.5235969
1.5236695
1.5236675
1.5236531
1.5236566
1.5236571
1.523671
1.5236711
1.5236576
1.5236516
1.523665
1.5236488
1.5236637
1.5236535
1.5236514
1.5236392
1.5236353
1.5236465
1.5236427
1.5236251
1.5236289
1.5233408
1.5233368
1.5227668
1.5227876
1.5228013
1.5233355
1.5233412
1.5227984
1.5236472
1.5236473
1.5236282
1.5236299
1.5227943
1.5233357
1.523333
1.5227986
1.522795
1.5233205
1.5233213
1.5227769
1.523638
1.5236421
1.5236191
1.5236262
1.5236234
1.5236291
1.5236058
1.5236123
1.5239779
1.5221724
1.5221377
1.5221876
1.5221999
1.5221946
1.522182
1.5221695
1.5221996
1.5218177
1.5215053
1.5220302
1.5219925
1.5220897
1.5220618
1.5221016
1.5221105
1.5221891
1.5221796
1.5221442
1.522182
1.5221574
1.5221364
1.5221747
1.522191
1.5220049
1.5220464
1.5218798
1.5221143
1.522111
1.5221039
1.5221329
1.5218365
1.5217246
1.5217016
1.5218148
1.5216586
1.521691
1.5215963
1.5215649
1.5216101
1.5217372
1.5216341
1.5217138
1.5215737
1.5214875
1.521608
1.5215194
1.5217559
1.5218935
1.5217757
1.5218761
1.5217892
1.5216798
1.521659
1.5217696
1.5217585
1.5218811
1.5217627
1.5218778
1.5217766
1.5216665
1.521773
1.5216626
1.5216457
1.5215697
1.5215461
1.5216216
1.5215004
1.5215585
1.5215825
1.521478
1.5215301
1.5214963
1.521465
1.5214339
1.5214055
1.5214437
1.5213762
1.5214766
1.521591
1.5216921
1.5216115
1.5216718
1.5215377
1.5216252
1.5216051
1.5215183
1.5216762
1.521595
1.5216793
1.5215985
1.521525
1.5216127
1.5216099
1.5215221
1.5216101
1.5214378
1.5215801
1.5215882
1.5214397
1.5215959
1.5216035
1.5214374
1.5212819
1.5212833
1.5212851
1.5221577
1.5221457
1.5219738
1.5219561
1.5219637
1.5218269
1.5218055
1.5219823
1.5219622
1.5219414
1.5217827
1.5218067
1.5218143
1.521786
1.5216822
1.5216533
1.5220243
1.5222321
1.5220387
1.5222238
1.5220473
1.5218837
1.5218657
1.5220333
1.5220231
1.5222207
1.5220265
1.5222192
1.5220353
1.5218708
1.5220322
1.5218668
1.522464
1.5224633
1.5222302
1.5222209
1.5222186
1.5222165
1.5224546
1.5224541
1.5224638
1.5209242
1.522456
1.5209335
1.5209661
1.5209765
1.5223795
1.5223773
1.5221553
1.5221437
1.5219601
1.5219436
1.5221512
1.5221422
1.5221531
1.520949
1.522381
1.5209436
1.5209835
1.5209937
1.5209213
1.5209593
1.5209643
1.5209276
1.5209549
1.5209802
1.5209435
1.5209947
1.5214486
1.5215487
1.521557
1.5214526
1.5215652
1.5215732
1.5214423
1.5214456
1.5212811
1.521281
1.5212581
1.521281
1.5212815
1.5215324
1.5214597
1.521541
1.5214566
1.5212818
1.5212624
1.5212818
1.521266
1.5215622
1.5215364
1.5214859
1.521419
1.5214123
1.521306
1.5214814
1.521302
1.5212539
1.5212753
1.5212642
1.5212358
1.5212508
1.5212572
1.5212555
1.5212704
1.5212638
1.5213159
1.5214737
1.5214774
1.5213109
1.5217897
1.5219295
1.5218025
1.5219184
1.5219259
1.5219253
1.5218012
1.5218013
1.5218175
1.5216992
1.5218053
1.5216858
1.5218174
1.5216996
1.5217005
1.5218165
1.5219092
1.5217828
1.5218994
1.5217705
1.5217855
1.5216665
1.521797
1.5216795
1.5217876
1.5219149
1.5217861
1.5219176
1.5218017
1.5216819
1.521683
1.5218038
1.5216926
1.5216062
1.5215931
1.5216805
1.521621
1.5215275
1.5215144
1.5216087
1.5216963
1.5216981
1.5216084
1.5216092
1.5216244
1.5216259
1.5215291
1.5215297
1.521613
1.521713
1.5216261
1.5217006
1.5215465
1.5216414
1.5216292
1.5215344
1.5216293
1.5217138
1.5216283
1.5217158
1.5215499
1.5216439
1.5216457
1.5215514
1.5222899
1.5222845
1.5220838
1.5220738
1.5220847
1.5219181
1.5219061
1.522094
1.5222767
1.5222773
1.5220751
1.5220752
1.5220857
1.5220861
1.5219135
1.5219134
1.5225357
1.5225356
1.5222865
1.5222796
1.5222723
1.5222718
1.5225168
1.5225163
1.5225169
1.520926
1.5225355
1.5209124
1.5209639
1.520974
1.5225229
1.5225232
1.5222714
1.5222656
1.5222786
1.5222793
1.5225355
1.5225358
1.5225352
1.520889
1.5225227
1.5208831
1.5209324
1.520939
1.5220575
1.5222738
1.5220659
1.5222699
1.5220747
1.5218993
1.5218883
1.5220674
1.5220731
1.5222829
1.5220715
1.5222851
1.522082
1.5219033
1.5220844
1.521905
1.520886
1.5209297
1.5209324
1.5208888
1.5209165
1.5209603
1.5209611
1.5209211
1.5208609
1.5208738
1.5208585
1.5208493
1.5208461
1.5208354
1.5208236
1.5208299
1.5208693
1.5209011
1.5209075
1.5208706
1.5209286
1.5209366
1.5208996
1.5208965
1.5208721
1.5208687
1.5208567
1.5208598
1.520902
1.5209294
1.5209335
1.5209042
1.5209301
1.5209603
1.5209441
1.5209771
1.5208909
1.5208957
1.5209244
1.5209099
1.5214663
1.5214637
1.521345
1.5213367
1.5212953
1.5213078
1.5212971
1.5212837
1.521329
1.5214687
1.5214711
1.5213222
1.5212783
1.5212874
1.5212733
1.5212641
1.5182434
1.5180802
1.5180575
1.5179756
1.5188317
1.5186548
1.5186846
1.5188643
1.5185809
1.518762
1.5187292
1.5189642
1.51894
1.5185029
1.5185341
1.518406
1.5184529
1.5185233
1.5184622
1.5185139
1.5185983
1.5186055
1.5185681
1.5187449
1.5186897
1.5192414
1.5191604
1.5193846
1.5196542
1.5195709
1.5192917
1.5194801
1.5194757
1.5197755
1.5197409
1.5195355
1.5195065
1.5198205
1.5197572
1.5198153
1.5197309
1.519775
1.5196899
1.5206465
1.5205974
1.5206924
1.5207569
1.5208975
1.5208837
1.5208231
1.5208346
1.5206244
1.5205851
1.5205301
1.5206944
1.5208374
1.520763
1.5208239
1.5207529
1.5211178
1.5210519
1.521051
1.5211176
1.5211696
1.5211589
1.5210904
1.5210984
1.5209748
1.5210514
1.5209753
1.5210516
1.5210984
1.5210166
1.5210902
1.5210105
1.5208376
1.5207998
1.5207389
1.5209131
1.5207256
1.5206594
1.5207556
1.520838
1.5209804
1.5210385
1.5209675
1.5210544
1.520967
1.5208836
1.5209816
1.5208956
1.520975
1.5209196
1.5209204
1.5209759
1.5209198
1.5208543
1.5208563
1.520922
1.5210109
1.5210177
1.5209536
1.5209586
1.5209547
1.5209603
1.5208865
1.5208892
1.5213156
1.5213895
1.5213215
1.5213839
1.5213264
1.5212369
1.5212328
1.5213223
1.5213954
1.5213263
1.5213907
1.5213234
1.5213314
1.5212415
1.5213341
1.5212439
1.5215263
1.5214523
1.5214416
1.5215157
1.5215571
1.5215499
1.5214765
1.5214826
1.5213748
1.521468
1.5213857
1.5214574
1.5214995
1.5214155
1.5214926
1.5214099
1.5214398
1.5215221
1.5214483
1.5215146
1.5214629
1.5213797
1.521372
1.5214554
1.5214499
1.5215182
1.5214445
1.5215254
1.5214608
1.5213782
1.5214665
1.5213826
1.5213978
1.5213308
1.5213207
1.5213873
1.5212498
1.5213281
1.5213375
1.5212414
1.5214226
1.5214288
1.5213554
1.5213598
1.5212731
1.521367
1.5212772
1.5213628
1.5209753
1.5210834
1.5210061
1.5209078
1.5212229
1.5211466
1.5212053
1.5211317
1.5208985
1.5208158
1.520915
1.5210121
1.5211373
1.5211538
1.521041
1.5210551
1.5213305
1.5214114
1.5213346
1.5214079
1.5213489
1.5212634
1.5212593
1.5213457
1.5214584
1.5214729
1.5213808
1.5213935
1.5213958
1.5214099
1.521308
1.5213202
1.5212282
1.521135
1.52106
1.5211466
1.5211626
1.5210611
1.5209798
1.5210723
1.5212866
1.5213513
1.521271
1.5213695
1.5211949
1.5212859
1.5213034
1.5212105
1.5212015
1.5212736
1.5212044
1.5212708
1.5211199
1.5212092
1.521208
1.5211184
1.5213326
1.5212593
1.5213191
1.5212486
1.5211612
1.5212545
1.5212657
1.5211712
1.5212338
1.5211675
1.5211649
1.5212313
1.5212402
1.5212427
1.521173
1.5211746
1.5210886
1.5211659
1.5210904
1.5211645
1.5211743
1.521097
1.5211727
1.5210962
1.5212485
1.5211832
1.521176
1.5212408
1.521102
1.5211829
1.5211084
1.5211762
1.5212073
1.5212712
1.5212042
1.5212759
1.5212036
1.5211268
1.5211293
1.521207
1.5211086
1.5210546
1.5210495
1.5211028
1.5209926
1.5210506
1.5210553
1.5209884
1.5210081
1.5210726
1.5210753
1.5210084
1.521127
1.5211301
1.5210717
1.5210739
1.5210892
1.5210344
1.521034
1.5210888
1.5210964
1.5210411
1.5210973
1.5210414
1.5209698
1.5209708
1.5210338
1.5210347
1.5210424
1.5210419
1.520979
1.5209775
1.519927
1.5199184
1.5199189
1.5199288
1.5199718
1.5200068
1.5199653
1.5199502
1.519895
1.5199107
1.5197822
1.519808
1.5198011
1.5198154
1.5198419
1.5198478
1.5198452
1.5198475
1.5198343
1.5198053
1.5238999
1.5238885
1.5207751
1.5207555
1.5207615
1.5207419
1.5207567
1.5207414
1.5207326
1.5207412
1.5208235
1.5208159
1.5207851
1.5207859
1.5207892
1.5208232
1.520844
1.5208099
1.5205716
1.5206093
1.5207053
1.5206585
1.520529
1.5205352
1.5206362
1.5206175
1.5207037
1.520746
1.5207782
1.5207359
1.5206608
1.5206725
1.5207037
1.5206893
1.5208013
1.5207637
1.5207532
1.5207146
1.5207234
1.5206266
1.5205793
1.520669
1.520722
1.5206224
1.5205766
1.5206674
1.5207143
1.5207642
1.5208073
1.5207575
1.5208755
1.5208513
1.5208075
1.5208334
1.5208487
1.5208506
1.5208108
1.5208046
1.5208215
1.5208649
1.5208572
1.5208123
1.5208891
1.5208596
1.5208162
1.5208471
1.520491
1.5205043
1.5204611
1.5204787
1.5204298
1.5203357
1.5203478
1.5204417
1.520444
1.5204378
1.5205443
1.5205381
1.5205801
1.5205782
1.5206055
1.5206045
1.5202603
1.5202604
1.5203272
1.520336
1.5201886
1.520153
1.5201861
1.5202379
1.5202211
1.5202078
1.5202583
1.5202829
1.5203673
1.5203503
1.5203813
1.5203966
1.5203015
1.5202832
1.5203739
1.5203453
1.5202693
1.5202652
1.520325
1.5203377
1.520442
1.520423
1.5204409
1.5204594
1.5204471
1.5204639
1.520496
1.5204813
1.5205525
1.5205325
1.5205481
1.5205647
1.520645
1.5206471
1.5206623
1.5206619
1.5205708
1.5205564
1.5205879
1.5205936
1.5206877
1.5206671
1.5206633
1.5206824
1.5206775
1.5206806
1.5206874
1.520694
1.5206658
1.5206608
1.5206669
1.520673
1.5207662
1.5207551
1.520749
1.5207579
1.5207844
1.5207866
1.5207773
1.5207726
1.5203795
1.5203808
1.5204541
1.5204525
1.5205579
1.5205727
1.5205748
1.5205593
1.5204549
1.5203789
1.5203892
1.5204645
1.52057
1.5205644
1.5205879
1.5205886
1.5204988
1.520455
1.5205797
1.5205273
1.5204193
1.5204152
1.5204899
1.5204955
1.5206018
1.5205935
1.5206104
1.5206179
1.5206507
1.520629
1.5206899
1.5207042
1.5207871
1.5207323
1.5207422
1.5207875
1.5207035
1.5206942
1.5207022
1.5207099
1.5207861
1.5207862
1.5207947
1.5207894
1.5208636
1.5208215
1.5208199
1.5208518
1.5215564
1.5214256
1.5216082
1.5214769
1.5214962
1.5214321
1.5213116
1.5213728
1.5217599
1.5217752
1.5216211
1.5216357
1.5215071
1.521654
1.5215226
1.5216381
1.5213165
1.5213906
1.5212969
1.5212263
1.5212315
1.5211349
1.5212133
1.5213161
1.5214422
1.5215227
1.5214268
1.5215399
1.521444
1.5214614
1.5213383
1.5213542
1.5215417
1.5216206
1.5216355
1.5215288
1.5215733
1.521569
1.5214821
1.5214768
1.5213984
1.5214949
1.5213936
1.5214994
1.5215468
1.5215608
1.5214574
1.5214446
1.5218577
1.5217246
1.5218442
1.5217116
1.5217982
1.5217999
1.5216659
1.5216619
1.5216791
1.5216826
1.5215581
1.521553
1.5216045
1.5216179
1.5217293
1.5217433
1.5219546
1.5217373
1.52198
1.5217645
1.5217754
1.5215941
1.5217369
1.5215549
1.5221692
1.5221588
1.521931
1.5219433
1.521955
1.5217616
1.5219414
1.5217477
1.5224754
1.5224476
1.52218
1.5224492
1.5224499
1.5221803
1.522214
1.5222215
1.5224771
1.5224781
1.5219789
1.5222249
1.5219635
1.522239
1.5224325
1.5221564
1.5224347
1.5221646
1.5224347
1.5222412
1.5221843
1.5221859
1.5219627
1.521963
1.5219739
1.5217874
1.5217852
1.5219741
1.5220134
1.5222194
1.5220023
1.5222285
1.5220145
1.5218304
1.5220265
1.5218431
1.5225161
1.5225074
1.522508
1.5225087
1.5222544
1.522252
1.5222562
1.5222613
1.5225171
1.5225174
1.5220506
1.5222703
1.5220555
1.5222692
1.5222801
1.5222846
1.5220702
1.5220752
1.5220672
1.5218854
1.5220629
1.5218782
1.5220881
1.5219037
1.5219095
1.5220826
1.522257
1.5222561
1.5220472
1.5220432
1.5220538
1.5218734
1.5220571
1.5218796
1.5220528
1.5222604
1.5220452
1.5222669
1.5220568
1.5218756
1.5218835
1.5220649
1.5225261
1.5225265
1.522266
1.522263
1.5222743
1.5222773
1.5225286
1.5225285
1.522528
1.5225259
1.521892
1.521764
1.5217562
1.5218864
1.5217803
1.5216608
1.5217731
1.5216522
1.5218895
1.5218976
1.521759
1.5217664
1.5216548
1.5217842
1.5216622
1.5217764
1.5217595
1.5218991
1.5217684
1.5218923
1.5217856
1.5216642
1.5216539
1.5217769
1.521795
1.5219177
1.5217893
1.5219242
1.5218067
1.5216861
1.5218129
1.521692
1.5216713
1.5216793
1.521589
1.521582
1.5215795
1.5216763
1.5215882
1.5216686
1.5216053
1.5215089
1.5215001
1.5215975
1.5216002
1.5216077
1.5215033
1.5215098
1.52158
1.5216805
1.5215911
1.5216704
1.5215119
1.5216089
1.5215979
1.5215007
1.5217093
1.5216198
1.5217025
1.5216139
1.5215351
1.5216318
1.5216385
1.5215413
1.5213546
1.5214291
1.5213647
1.5214192
1.5214358
1.521435
1.5213708
1.5213701
1.521369
1.521287
1.5213596
1.5212784
1.5213746
1.5212926
1.5212918
1.5213757
1.5215266
1.521539
1.5214677
1.5214555
1.5214685
1.52148
1.5214008
1.5213893
1.5214694
1.5215419
1.5214695
1.5215431
1.5214025
1.5214831
1.5214834
1.5214022
1.5214125
1.5213464
1.5214124
1.5213475
1.5213985
1.521409
1.5213443
1.5213345
1.5213383
1.5213471
1.5212663
1.5212579
1.5212697
1.5212686
1.5213525
1.5213512
1.5214756
1.5215587
1.5214868
1.5215476
1.5214997
1.5214201
1.5214093
1.5214893
1.5214926
1.5215625
1.5214916
1.5215649
1.521505
1.5214255
1.5215063
1.5214259
1.5215483
1.5215296
1.5214819
1.5214641
1.5214759
1.5214031
1.521493
1.5214194
1.521467
1.5215365
1.5214703
1.5215341
1.5214824
1.521409
1.5214055
1.5214796
1.5214268
1.5213666
1.5213525
1.5214114
1.5213688
1.5212943
1.5212827
1.5213558
1.5214178
1.5214146
1.5213583
1.5213544
1.5213623
1.5213583
1.5212875
1.5212839
1.5213242
1.5213976
1.5213421
1.5213779
1.521277
1.5213444
1.5213265
1.5212613
1.5213196
1.5212923
1.5212717
1.5212481
1.5212159
1.5212501
1.5211965
1.5212746
1.5214272
1.5215103
1.5214483
1.5214879
1.5214149
1.5213842
1.5213617
1.5213341
1.5213424
1.5212865
1.5213717
1.5213126
1.5214588
1.5214375
1.5213907
1.5213709
1.5212647
1.5212055
1.5211982
1.521257
1.5212684
1.5212678
1.5212077
1.5212068
1.5212071
1.5211375
1.5212077
1.5211383
1.5212053
1.5211984
1.5211371
1.5211305
1.5210823
1.5211372
1.5210877
1.5211312
1.5210883
1.5210309
1.5210269
1.5210834
1.5211388
1.5211384
1.5210887
1.521088
1.5210892
1.5210316
1.5210896
1.5210334
1.5212175
1.5212852
1.5212248
1.5212774
1.5212243
1.5211556
1.5211491
1.5212176
1.5212285
1.5212905
1.5212296
1.52129
1.5212291
1.5211595
1.5212283
1.5211585
1.5211005
1.5211555
1.5211057
1.5211497
1.5211061
1.5210498
1.5211014
1.5210456
1.5211591
1.5211597
1.5211095
1.5211088
1.5211097
1.5210535
1.5211101
1.5210515
1.5212134
1.5212761
1.5212265
1.5212609
1.5212264
1.5211698
1.5212136
1.5211587
1.5212923
1.5212376
1.5212817
1.5212283
1.5212281
1.5211667
1.5212368
1.5211745
1.5212282
1.5212861
1.5212313
1.521283
1.521231
1.5211688
1.5211662
1.5212282
1.5210778
1.521129
1.5211235
1.5210736
1.5211741
1.5211289
1.5211229
1.5211669
1.521169
1.5211241
1.5211668
1.521122
1.5211229
1.5210754
1.5211247
1.5210723
1.5210766
1.5210836
1.5211299
1.5211216
1.5211205
1.5211701
1.5211292
1.5211595
1.5210948
1.521054
1.5209859
1.5209897
1.5216852
1.5217044
1.5216769
1.5216527
1.521652
1.5216772
1.5216344
1.5216484
1.5216151
1.5216629
1.5214607
1.5214584
1.521354
1.5213628
1.5214582
1.521462
1.5213723
1.5213845
1.521349
1.5213567
1.5213429
1.5213342
1.521321
1.521331
1.5213195
1.5213083
1.5215198
1.5214989
1.5214607
1.5215077
1.5214707
1.5214841
1.5214282
1.5214028
1.5214987
1.5214409
1.5214349
1.5214959
1.5213758
1.5214038
1.5213969
1.5213691
1.5213703
1.5214122
1.5214843
1.5223582
1.5221772
1.5219738
1.5215997
1.5229089
1.5227993
1.5226816
1.5225892
1.5214869
1.5228208
1.522542
1.5223264
1.5225834
1.5236323
1.5236999
1.5236752
1.5236439
1.523664
1.5236355
1.5236132
1.5236734
1.5236684
1.5236769
1.5236761
1.5236816
1.5236727
1.5236457
1.5236219
1.5236209
1.5236399
1.5232253
1.5234141
1.523347
1.5230318
1.5230201
1.5230071
1.5228025
1.5233461
1.5233932
1.5227813
1.5230308
1.5230137
1.5228283
1.5234237
1.5233964
1.5233559
1.5233728
1.5234156
1.523407
1.523341
1.523313
1.5233039
1.5232687
1.5234023
1.5233857
1.5229696
1.5229641
1.5228879
1.5229936
1.522647
1.5225153
1.522335
1.5224835
1.523652
1.5236265
1.5236598
1.5236365
1.5236055
1.5236036
1.5236174
1.5236144
1.5236216
1.5235975
1.5235897
1.5235591
1.5235791
1.5235728
1.5235394
1.5235271
1.5232996
1.5232477
1.5234012
1.5233769
1.5228528
1.5229755
1.5224552
1.5222326
1.5229727
1.5232083
1.5231745
1.5229558
1.5229468
1.5231311
1.5230605
1.5229047
1.5233683
1.5233989
1.5233476
1.5233876
1.5232296
1.5232944
1.5231956
1.5232786
1.522978
1.5228242
1.5229792
1.5227846
1.5228203
1.5229259
1.5227615
1.5227118
1.5224029
1.5224328
1.5221567
1.5220527
1.522116
1.5224694
1.5225029
1.5222074
1.5235935
1.5235904
1.5236061
1.5236014
1.5235688
1.5235596
1.5235278
1.5235095
1.5230556
1.5233459
1.5233339
1.5230607
1.5230746
1.5233344
1.5233216
1.5230678
1.52359
1.5235965
1.5235614
1.5235725
1.5235788
1.5235836
1.5235476
1.5235572
1.5230625
1.5233151
1.5232958
1.5230575
1.5230445
1.5232762
1.5232455
1.5230118
1.5235481
1.5235598
1.5235162
1.5235348
1.5234951
1.523518
1.5234611
1.5234904
1.5215682
1.5220145
1.5222097
1.5218846
1.5221759
1.5223288
1.5221997
1.5221906
1.5224484
1.5235284
1.5235368
1.5235063
1.5236141
1.5236612
1.5236321
1.5236426
1.5234357
1.5235246
1.5234543
1.5235548
1.5234663
1.5235289
1.5236512
1.5236617
1.5236443
1.5236356
1.5237009
1.5237464
1.5237519
1.5237311
1.5237272
1.5237191
1.5237132
1.5237212
1.5237233
1.5237261
1.5237317
1.5237308
1.5237276
1.5237268
1.5237197
1.5237179
1.5237233
1.5235541
1.5235588
1.5233695
1.5234201
1.523274
1.5233928
1.5235343
1.5235529
1.5236433
1.5236278
1.5236574
1.5236462
1.5236092
1.523616
1.5236311
1.5236357
1.5236951
1.5236691
1.5237046
1.5236806
1.5236589
1.5236609
1.5236486
1.5236458
1.5237086
1.523685
1.5237104
1.5236869
1.5236638
1.5236661
1.5236666
1.5236671
1.5235242
1.5235515
1.5232283
1.5233966
1.5235983
1.5236078
1.5236218
1.5236285
1.5231851
1.5233893
1.523358
1.5231119
1.523052
1.5227651
1.522365
1.5227016
1.5232758
1.5232142
1.5228952
1.5229751
1.5235461
1.5235123
1.5235231
1.5234804
1.5233213
1.5233138
1.5230075
1.5230285
1.523347
1.5233363
1.5230466
1.5230554
1.5235988
1.523588
1.5235706
1.5235607
1.5236204
1.5236129
1.5235938
1.5235849
1.5236514
1.5236544
1.5236545
1.5236549
1.5236493
1.5236461
1.5236362
1.5236318
1.5236437
1.5236407
1.5236128
1.5236143
1.523375
1.5233715
1.5230744
1.5230928
1.5231049
1.5233801
1.5233695
1.5231003
1.5236441
1.5236442
1.5236129
1.5236164
1.5230965
1.5233748
1.5233657
1.5230989
1.5230984
1.5233657
1.5233548
1.5230797
1.5236349
1.5236393
1.5236037
1.5236122
1.5236199
1.5236258
1.5235901
1.5235978
1.5238324
1.5238439
1.522795
1.5221292
1.5227652
1.5220953
1.5228052
1.5221446
1.5228133
1.5221571
1.5228077
1.522151
1.522798
1.5221385
1.522784
1.5221289
1.5228104
1.5221581
1.5224087
1.5217892
1.5220503
1.5214843
1.5226733
1.5219906
1.5226057
1.5219583
1.5227212