/*--------------------------------*- C++ -*----------------------------------*\
  =========                 |
  \\      /  F ield         | OpenFOAM: The Open Source CFD Toolbox
   \\    /   O peration     | Website:  https://openfoam.org
    \\  /    A nd           | Version:  7
     \\/     M anipulation  |
\*---------------------------------------------------------------------------*/
FoamFile
{
    version     2.0;
    format      ascii;
    class       volVectorField;
    location    "7000";
    object      U;
}
// * * * * * * * * * * * * * * * * * * * * * * * * * * * * * * * * * * * * * //

dimensions      [0 1 -1 0 0 0 0];

internalField   nonuniform List<vector> 
33730
(
(-4.5743883e+41 -1.4443831e+41 -7.3885437e+38)
(-4.4175288e+41 -9.4538216e+40 4.5627288e+40)
(-4.1027441e+41 -5.921546e+40 5.566533e+40)
(-4.4942421e+41 -3.6304876e+40 2.2328216e+40)
(-4.4320294e+41 -2.1105656e+40 2.4618694e+40)
(-4.2154913e+41 -6.1718977e+40 -4.5341253e+40)
(-2.9254707e+41 -5.8966546e+40 1.6910435e+40)
(-4.4162147e+41 -9.4644192e+40 -5.3524921e+40)
(-3.2588361e+41 -9.2694258e+40 2.214047e+40)
(-3.530508e+41 -3.311632e+40 5.5812085e+40)
(-3.6579476e+41 -5.6288682e+40 4.9304043e+40)
(-3.517677e+41 -9.2824853e+39 9.2073308e+40)
(-3.3451057e+41 -8.8367692e+39 9.257416e+40)
(-3.6431962e+41 -5.1524747e+40 5.1722347e+40)
(-3.3699462e+41 -1.0930102e+40 9.0829087e+40)
(-3.2341673e+41 -1.7647299e+40 9.0902454e+40)
(-3.5395189e+41 -3.2021085e+40 5.7219709e+40)
(-4.318538e+41 -1.067586e+40 -4.4577048e+40)
(-4.3192821e+41 -4.6306895e+39 5.1512379e+40)
(-4.2500423e+41 -4.0298878e+39 6.2206131e+40)
(-4.3032243e+41 -2.2279568e+40 -5.0145774e+40)
(-4.1798842e+41 -3.1404516e+40 6.2444056e+40)
(-3.9778983e+41 -2.0860591e+40 -9.3832383e+39)
(-3.8368299e+41 -1.0973814e+40 4.4055801e+40)
(-3.8816863e+41 -1.3697006e+40 4.5819742e+40)
(-3.835084e+41 -1.7213606e+40 4.8290149e+40)
(-3.8416601e+41 -1.3839401e+40 4.3837067e+40)
(-3.3232668e+41 -3.1535394e+40 -1.5999511e+40)
(-3.3950979e+41 -1.8508324e+40 -6.0931095e+40)
(-3.2453074e+41 -1.94919e+40 -5.8325279e+40)
(-3.2181169e+41 -1.6359644e+40 -2.0276583e+40)
(-3.2801731e+41 -2.7094281e+40 -4.4700465e+40)
(-3.4088433e+41 -5.1821166e+40 -4.6227744e+40)
(-2.2278929e+41 -3.2774203e+40 2.1612899e+40)
(-2.309485e+41 -6.1323531e+40 2.2554095e+40)
(-3.3363838e+41 -2.886628e+40 -1.8116576e+40)
(-3.355408e+41 -1.2873812e+40 -5.966352e+40)
(-3.2119995e+41 -1.1390261e+40 -5.9080017e+40)
(-3.2095109e+41 -1.1193166e+40 -2.0201346e+40)
(-3.3885424e+41 -5.4985296e+40 -4.6915992e+40)
(-3.2760307e+41 -2.9413046e+40 -4.4583092e+40)
(-2.31341e+41 -6.3976295e+40 1.9809406e+40)
(-2.2407337e+41 -3.4614951e+40 2.0424798e+40)
(-3.0033938e+41 -3.1608749e+40 5.1501474e+40)
(-3.2048612e+41 -6.7693024e+39 6.9729204e+40)
(-2.9404664e+41 -1.811188e+40 5.4825326e+40)
(-3.1238545e+41 -9.1038494e+39 6.9060933e+40)
(-2.9953185e+41 -3.3344739e+40 4.9666679e+40)
(-2.9356651e+41 -2.0546271e+40 5.3968899e+40)
(-3.201135e+41 -8.7583108e+39 7.1588749e+40)
(-3.2661122e+41 -7.8350815e+39 7.1090957e+40)
(-3.160683e+41 -1.004041e+40 7.172939e+40)
(-2.958761e+41 -1.6934876e+40 5.4008411e+40)
(-3.1989989e+41 -7.6914412e+39 6.9975954e+40)
(-3.0018516e+41 -2.9904265e+40 5.1046123e+40)
(-2.9850573e+41 -1.8356278e+40 5.5363287e+40)
(-3.0211411e+41 -2.8664923e+40 5.1684407e+40)
(-3.130552e+41 -1.6452431e+40 7.2535414e+40)
(-3.1935055e+41 -1.1076829e+40 7.250635e+40)
(-3.8226484e+41 -1.9880254e+40 1.6161675e+40)
(-3.708217e+41 -7.852724e+39 -3.6242463e+40)
(-3.3980094e+41 -5.1115268e+39 4.0937853e+37)
(-3.3167482e+41 -1.0702465e+40 -2.5887226e+40)
(-3.8508277e+41 -5.6997489e+39 -2.925449e+38)
(-3.8536397e+41 -1.7505232e+39 1.6244833e+40)
(-3.7544146e+41 -1.2475607e+40 -3.6960271e+40)
(-4.2666638e+41 -2.6745421e+40 5.3498266e+40)
(-3.6638801e+41 -1.7159151e+40 -4.8817578e+40)
(-3.8210359e+41 1.635659e+39 4.9674181e+40)
(-3.7668466e+41 -4.5081791e+38 -2.2480386e+40)
(-3.8295849e+41 -1.3325251e+40 -1.6002443e+40)
(-3.7290186e+41 -1.5106936e+40 4.7147394e+40)
(-4.2805591e+41 2.7396012e+39 5.0433512e+40)
(-3.9532197e+41 -1.5410364e+40 -8.3878077e+39)
(-4.019817e+41 3.1095636e+38 -4.7874789e+39)
(-3.8068391e+41 1.1807123e+39 1.5238142e+40)
(-3.6858079e+41 -8.9538703e+39 -4.3765565e+40)
(-3.6381348e+41 -6.4343064e+38 -4.5210724e+40)
(-3.7430886e+41 -1.1793524e+40 1.3897057e+40)
(-3.8912749e+41 -1.4582259e+40 -1.5783032e+40)
(-3.9234336e+41 -1.0761127e+40 -1.3355754e+40)
(-3.7309803e+41 1.8189217e+39 4.525213e+40)
(-3.6871441e+41 -1.9247158e+40 4.5253e+40)
(-4.6366446e+41 -3.7243132e+39 6.2671769e+40)
(-3.8752527e+41 -1.2261698e+39 2.4370451e+40)
(-3.2299439e+41 -1.1012318e+40 -2.9945603e+38)
(-3.3598836e+41 -6.3368216e+39 4.3171411e+40)
(-3.3437128e+41 -8.7623582e+39 4.5160358e+40)
(-3.3850945e+41 -8.6190023e+39 4.5072721e+40)
(-3.3846424e+41 -7.4717907e+39 4.5350402e+40)
(-3.3747598e+41 -9.763629e+39 4.5636891e+40)
(-3.3762045e+41 -1.45185e+40 4.8932264e+40)
(-3.385388e+41 -1.1212981e+40 4.5668366e+40)
(-3.3563823e+41 -7.5679928e+39 4.3685719e+40)
(-4.4539224e+41 -4.4845883e+40 -4.4434436e+40)
(-4.5166355e+41 -4.7724913e+40 -4.1188198e+40)
(-3.834359e+41 -2.1436166e+40 -5.5780931e+40)
(-3.6469707e+41 -2.2491004e+40 -1.2320963e+39)
(-3.6384291e+41 -1.8383449e+40 -3.7087743e+39)
(-3.8091621e+41 -2.4096632e+40 -5.7869421e+40)
(-2.7068118e+41 -6.6129964e+39 -5.6183781e+40)
(-2.3527666e+41 -1.5527993e+40 -3.0124077e+40)
(-2.6396617e+41 -8.0612583e+39 -5.5471831e+40)
(-2.3078283e+41 -5.7993285e+39 -3.3067138e+40)
(-2.6564621e+41 -3.8953213e+39 -5.285284e+40)
(-2.7283429e+41 -5.647553e+39 -5.3413339e+40)
(-2.3637871e+41 -1.5927367e+40 -2.9330969e+40)
(-2.2964783e+41 -2.2877106e+39 -3.0251096e+40)
(-2.0245303e+41 -2.988441e+40 -3.6211649e+40)
(-1.962878e+41 -1.5339314e+40 -3.5372252e+40)
(-1.7009922e+41 -3.9913241e+40 2.8980812e+40)
(-1.6641147e+41 -1.7601299e+40 3.0027589e+40)
(-2.0110135e+41 -3.1938806e+40 -3.5456029e+40)
(-1.9682314e+41 -1.4821294e+40 -3.2805978e+40)
(-1.6753496e+41 -4.1856932e+40 2.6129772e+40)
(-1.6669919e+41 -1.7617956e+40 3.0799725e+40)
(-3.8142953e+41 -2.2074884e+40 -5.7006059e+40)
(-3.608651e+41 -1.9568753e+40 -2.353677e+39)
(-3.5885436e+41 -1.4794948e+40 -3.7638899e+39)
(-3.8029012e+41 -2.2867964e+40 -5.7709933e+40)
(-2.6848525e+41 -5.2007421e+38 -5.2719795e+40)
(-2.7578594e+41 -2.5727655e+39 -5.366539e+40)
(-2.3982975e+41 -1.5397721e+40 -3.06987e+40)
(-2.3220953e+41 -2.4464766e+39 -3.1895328e+40)
(-2.654273e+41 -2.8902598e+39 -5.3882338e+40)
(-2.7293439e+41 -2.919674e+39 -5.5227739e+40)
(-2.3149292e+41 -3.1384219e+39 -3.2095357e+40)
(-2.3780381e+41 -1.4321126e+40 -2.9946888e+40)
(-2.0285946e+41 -3.7267205e+40 -3.6769357e+40)
(-1.9766656e+41 -2.150042e+40 -3.3360802e+40)
(-1.6789162e+41 -4.7044935e+40 2.5422121e+40)
(-1.6627458e+41 -2.5016605e+40 2.9416931e+40)
(-2.050877e+41 -3.4809595e+40 -3.6203148e+40)
(-1.9827196e+41 -1.8174556e+40 -3.4098132e+40)
(-1.7205346e+41 -4.478172e+40 2.824107e+40)
(-1.6647499e+41 -2.0072426e+40 2.987634e+40)
(-2.8510341e+41 -4.6732628e+39 5.9052718e+40)
(-2.5702337e+41 -1.9261491e+40 5.0546294e+40)
(-2.5169217e+41 -1.0849516e+40 5.2001526e+40)
(-2.8249376e+41 -5.0548308e+39 5.9214589e+40)
(-2.5628038e+41 -1.6946597e+40 5.1135716e+40)
(-2.5282734e+41 -9.7430494e+39 5.3387617e+40)
(-2.8067563e+41 -7.7447067e+39 6.0628241e+40)
(-2.8406217e+41 -4.5968493e+39 5.9716783e+40)
(-2.548315e+41 -1.960811e+40 4.9343735e+40)
(-2.5150339e+41 -1.2353244e+40 5.1729743e+40)
(-2.8630026e+41 -5.9821493e+39 5.9710896e+40)
(-2.8524473e+41 -6.822845e+39 6.0231731e+40)
(-2.5716896e+41 -1.9386804e+40 5.0972796e+40)
(-2.5223589e+41 -1.1564409e+40 5.3406577e+40)
(-2.869675e+41 -5.0832782e+39 5.9798134e+40)
(-2.8253524e+41 -6.5899936e+39 5.9604513e+40)
(-2.5784503e+41 -1.7449394e+40 5.1348164e+40)
(-2.5515084e+41 -9.0286201e+39 5.3112432e+40)
(-2.8798258e+41 -6.9054262e+39 6.0435178e+40)
(-2.8431613e+41 -8.6512193e+39 6.0372148e+40)
(-2.5667489e+41 -1.7848334e+40 5.0184815e+40)
(-2.5397964e+41 -1.0405742e+40 5.1905077e+40)
(-2.8643369e+41 -6.1183321e+39 5.9178043e+40)
(-2.8515943e+41 -7.4424507e+39 5.9846068e+40)
(-2.5977376e+41 -1.7116442e+40 5.1407497e+40)
(-2.8840134e+41 -9.9537565e+39 6.3135249e+40)
(-2.8577824e+41 -1.3450158e+40 6.3541336e+40)
(-2.5682369e+41 -1.1182945e+40 5.3552131e+40)
(-2.589203e+41 -1.7669773e+40 5.0805497e+40)
(-2.5579801e+41 -9.216697e+39 5.1619812e+40)
(-2.8810091e+41 -8.2860373e+39 6.1730703e+40)
(-2.8579351e+41 -8.6231538e+39 6.1078622e+40)
(-3.2944463e+41 -6.1565912e+39 -2.002501e+40)
(-3.2836349e+41 -1.0204547e+40 -2.2354026e+40)
(-3.2972942e+41 -1.1851405e+40 3.418329e+39)
(-3.3118377e+41 -3.0143575e+39 2.3693612e+39)
(-2.7407036e+41 -7.8921777e+39 -1.5903167e+40)
(-2.8023816e+41 -5.0505352e+39 -2.0126068e+39)
(-3.3622613e+41 -1.1928824e+40 1.0064272e+39)
(-3.3733615e+41 -3.3284631e+39 9.9399274e+37)
(-3.2879383e+41 -8.4624048e+39 -2.5615806e+40)
(-3.3070226e+41 -5.6074849e+39 -2.4106181e+40)
(-3.7183038e+41 -1.6771118e+40 -1.7855003e+39)
(-2.790177e+41 -7.7852472e+39 -1.4219657e+40)
(-2.8214332e+41 -4.862886e+39 -3.5799357e+39)
(-2.7923339e+41 -4.3528992e+39 -1.3630436e+40)
(-2.8299297e+41 -8.5648319e+39 -3.4886138e+39)
(-2.9271508e+41 -4.3360727e+39 -1.5897505e+39)
(-2.9149783e+41 -8.0206654e+39 -1.9050778e+39)
(-2.895903e+41 -6.9493627e+39 -2.0046643e+40)
(-3.4080959e+41 -4.9506772e+39 -6.4000566e+39)
(-2.8921629e+41 -4.1968033e+39 -2.1548521e+40)
(-3.3367868e+41 -4.8758794e+39 -3.3520028e+40)
(-3.3552555e+41 -1.0873882e+40 -3.2384041e+40)
(-3.2868126e+41 -2.2975692e+39 -2.159151e+40)
(-3.2501024e+41 -6.2591011e+39 -2.374476e+40)
(-3.2894608e+41 2.499353e+38 2.4779742e+39)
(-3.3149398e+41 -9.1914366e+39 2.9202433e+39)
(-3.3781705e+41 -8.5662246e+39 6.0239978e+38)
(-3.2939188e+41 -2.561722e+39 -2.5395653e+40)
(-3.2743956e+41 -5.620416e+39 -2.46254e+40)
(-3.3647253e+41 5.8715147e+38 1.3502259e+39)
(-3.832162e+41 -1.0985417e+39 3.2362827e+39)
(-3.6591236e+41 -1.2470793e+40 -4.4432217e+40)
(-3.6088746e+41 -6.5110886e+39 -4.5451873e+40)
(-3.3681194e+41 -1.0514078e+40 -3.3021892e+40)
(-3.3474682e+41 -5.6556311e+39 -4.0379764e+40)
(-3.526816e+41 -3.3624762e+39 -3.079535e+39)
(-3.4711153e+41 -1.2064702e+40 -7.4693353e+39)
(-3.409909e+41 1.9632037e+39 4.6579987e+40)
(-3.3943202e+41 -2.5204702e+39 3.1038581e+39)
(-3.3834279e+41 -7.0069638e+39 4.3658736e+39)
(-3.3888297e+41 -1.1386191e+40 4.5651178e+40)
(-3.3071707e+41 1.1000741e+39 1.6962642e+40)
(-3.20232e+41 -4.5908633e+38 -1.6787603e+40)
(-3.206744e+41 -4.3758205e+39 -1.8390073e+40)
(-3.293125e+41 -8.4757228e+39 1.7629635e+40)
(-3.3502746e+41 2.1528334e+39 1.9437963e+40)
(-3.2454281e+41 -3.1081483e+39 -1.3625087e+40)
(-3.2215752e+41 -4.7886212e+39 -1.5603396e+40)
(-3.377334e+41 -9.4481692e+39 2.0802831e+40)
(-3.3723431e+41 -8.4414319e+39 3.9098176e+39)
(-3.3709266e+41 -4.4175544e+39 3.3257695e+39)
(-3.3202434e+41 -1.0233518e+40 4.2760369e+40)
(-3.3514395e+41 2.6187414e+39 4.3221857e+40)
(-4.602621e+41 -1.6939474e+40 6.3770138e+40)
(-4.5862138e+41 -4.1719105e+39 6.6488548e+40)
(-3.3389048e+41 -8.9020359e+39 -7.831829e+40)
(-3.3488043e+41 -2.7802124e+40 -8.1273753e+40)
(-3.5544687e+41 1.7093523e+38 -4.7624331e+40)
(-3.6460465e+41 -9.5207258e+39 -4.605438e+40)
(-3.8116557e+41 1.4190627e+39 1.2810755e+39)
(-3.7155989e+41 -1.2483822e+40 -2.2346825e+39)
(-3.8533692e+41 3.6839263e+39 2.3914268e+40)
(-3.2198341e+41 -6.6998911e+39 -9.3589626e+38)
(-3.2483937e+41 2.012921e+39 -2.4428836e+38)
(-3.8241499e+41 -1.2965782e+40 2.2410074e+40)
(-3.8669253e+41 1.6226264e+39 2.6564912e+40)
(-3.2619852e+41 -6.5041841e+39 1.6548375e+39)
(-3.291586e+41 -3.0844137e+39 2.7223578e+39)
(-3.8438573e+41 -2.0251947e+40 2.4894777e+40)
(-3.2022151e+41 -6.4598349e+39 -2.1680286e+40)
(-3.2780296e+41 2.0761951e+38 3.5638207e+39)
(-3.2505192e+41 -7.0130308e+39 3.2307139e+39)
(-3.1919134e+41 1.5797537e+39 -2.4508255e+40)
(-3.2931113e+41 1.2078707e+39 -9.8333455e+38)
(-3.2399187e+41 1.3586397e+39 -2.8809944e+40)
(-3.227056e+41 -3.5203478e+39 -2.9646817e+40)
(-3.2968735e+41 -5.5679819e+39 -5.6378845e+38)
(-3.2245401e+41 -4.1218404e+39 -3.1039616e+40)
(-3.2619702e+41 -4.7287535e+39 -2.1933636e+39)
(-3.2780062e+41 1.4052528e+39 -1.9415898e+39)
(-3.2104892e+41 1.3563211e+39 -3.0365585e+40)
(-3.181842e+41 -4.4645255e+39 -2.5555377e+40)
(-3.1960595e+41 -6.4520419e+38 -2.0749108e+40)
(-3.2139499e+41 2.9910023e+39 -1.8422943e+39)
(-3.2083828e+41 -4.0986306e+39 -9.3814617e+38)
(-3.3562714e+41 -1.0249501e+40 1.9547952e+40)
(-3.2515371e+41 -5.4862932e+39 -1.4997976e+40)
(-3.3488298e+41 1.2145605e+39 1.9122726e+40)
(-3.2906038e+41 -3.7468878e+39 -1.4327885e+40)
(-3.2857153e+41 -8.9185532e+39 -1.4602119e+40)
(-3.3577533e+41 -2.440643e+39 1.9710537e+40)
(-3.3429128e+41 -1.4564758e+40 2.1176372e+40)
(-3.2937115e+41 -7.0907085e+39 -1.2403557e+40)
(-3.4005612e+41 -8.0777848e+39 3.5658777e+39)
(-3.3721614e+41 9.5587064e+38 4.5364367e+40)
(-3.4315134e+41 -6.2681326e+39 5.2019731e+39)
(-3.3693549e+41 -1.3862188e+40 4.538227e+40)
(-3.4518228e+41 -1.0074955e+40 7.8336277e+39)
(-3.4238209e+41 -1.0804797e+40 4.51724e+39)
(-3.3691072e+41 -9.8708116e+38 4.5823109e+40)
(-3.3402026e+41 -1.5966981e+40 4.6513908e+40)
(-3.7343942e+41 -5.9637941e+39 6.1852996e+40)
(-2.608478e+41 -1.4955387e+40 -4.2566642e+40)
(-3.5478517e+41 -5.1746158e+39 -1.096964e+40)
(-3.3097882e+41 -1.2707611e+40 -4.10328e+40)
(-3.2906367e+41 -5.20646e+39 -4.0742851e+40)
(-3.5122727e+41 -1.2232953e+40 -1.3690771e+40)
(-3.040474e+41 -1.0879771e+40 -1.0531745e+40)
(-3.5716372e+41 -2.5148117e+39 8.1883339e+39)
(-3.0595682e+41 -6.605716e+39 -8.9279442e+39)
(-3.5582142e+41 -1.4321279e+40 8.128087e+39)
(-2.9033875e+41 -4.2471171e+39 4.1043592e+40)
(-2.9132066e+41 -6.1133193e+39 4.129185e+40)
(-2.8941453e+41 -7.0933997e+39 4.3474157e+40)
(-2.9082634e+41 -4.1232138e+39 4.1804119e+40)
(-2.9273777e+41 -3.9767322e+39 4.1649875e+40)
(-2.9160143e+41 -6.4673699e+39 4.301967e+40)
(-2.8971755e+41 -4.3229155e+39 4.1416127e+40)
(-2.9229307e+41 -6.5356289e+39 4.1987512e+40)
(-2.9435533e+41 -9.110147e+39 4.2630666e+40)
(-2.929925e+41 -6.8642145e+39 4.2228712e+40)
(-2.9463506e+41 -7.9587542e+39 4.3753619e+40)
(-2.9464947e+41 -1.2005805e+40 4.5883631e+40)
(-2.9335103e+41 -8.4419015e+39 4.3295337e+40)
(-2.9399199e+41 -5.8039061e+39 4.156563e+40)
(-2.9385872e+41 -7.6898988e+39 4.2151634e+40)
(-2.9144195e+41 -4.9596341e+39 4.153225e+40)
(-4.531677e+41 -3.4892308e+40 -2.4917628e+40)
(-4.5907251e+41 -3.6528272e+40 -2.1078585e+40)
(-3.9341398e+41 -1.6299363e+40 -4.2853621e+40)
(-2.9323806e+41 -5.1432472e+39 -2.8131164e+40)
(-2.9279784e+41 -7.8207268e+39 -2.6467561e+40)
(-3.6849421e+41 -5.6027155e+39 -3.5743005e+40)
(-3.6225419e+41 -2.3065451e+40 -3.5491337e+40)
(-3.920357e+41 -1.8408412e+40 -4.4425076e+40)
(-2.9385314e+41 -7.7775031e+39 -3.1039387e+40)
(-2.9245233e+41 -8.5586179e+39 -2.8278077e+40)
(-3.0458671e+41 -1.5655921e+40 -7.0665161e+40)
(-3.0164824e+41 -1.6889741e+40 -7.1626865e+40)
(-3.0343446e+41 -1.7473879e+40 -6.9962201e+40)
(-3.0210065e+41 -1.6470859e+40 -7.0872943e+40)
(-1.5180642e+41 1.3098713e+39 -4.8335212e+40)
(-1.4947925e+41 4.9354705e+38 -4.813863e+40)
(-1.4916056e+41 -7.8746954e+39 -3.0277491e+40)
(-1.516166e+41 -1.8502148e+40 -3.1736423e+40)
(-1.5011455e+41 -2.3453249e+39 -5.048786e+40)
(-1.5141582e+41 2.8454882e+38 -4.9651264e+40)
(-1.5153441e+41 -1.7721704e+40 -3.0876746e+40)
(-1.4861222e+41 -9.7948503e+39 -3.2910825e+40)
(-1.5845414e+41 -2.408486e+40 4.4381072e+40)
(-1.5706939e+41 -7.9116715e+39 4.7385303e+40)
(-1.0384672e+41 -2.4286616e+40 -5.0528945e+39)
(-1.0596026e+41 -1.4629984e+40 3.99989e+39)
(-1.0461715e+41 -2.3106861e+40 -2.3881312e+39)
(-1.5999619e+41 -2.3176716e+40 4.6327653e+40)
(-1.0535012e+41 -1.543452e+40 1.3143399e+39)
(-1.5722125e+41 -8.4686491e+39 4.7806047e+40)
(-1.5330373e+41 2.4601227e+39 -4.748521e+40)
(-1.5122643e+41 1.8011557e+39 -4.7347058e+40)
(-1.4877056e+41 -9.0962151e+39 -3.0040647e+40)
(-1.5144186e+41 -1.9569126e+40 -3.1661909e+40)
(-1.5002982e+41 2.6862008e+39 -4.8193934e+40)
(-1.4761241e+41 1.0861299e+39 -4.8654726e+40)
(-1.5296116e+41 -1.8675167e+40 -2.9248436e+40)
(-1.4809535e+41 -9.0719283e+39 -3.0219023e+40)
(-1.5741313e+41 -2.5837529e+40 4.3713749e+40)
(-1.5617594e+41 -1.0804201e+40 4.6803732e+40)
(-1.0202056e+41 -2.5933212e+40 -7.0066493e+39)
(-1.040238e+41 -1.6985334e+40 2.8357102e+39)
(-1.6119426e+41 -2.5188454e+40 4.7061189e+40)
(-1.5768535e+41 -7.5938246e+39 4.9067388e+40)
(-1.0533966e+41 -2.4422914e+40 -2.133007e+39)
(-1.0385389e+41 -1.4927901e+40 3.9904078e+39)
(-3.8965999e+41 -1.7873384e+40 -4.3475742e+40)
(-2.9372398e+41 -6.700884e+39 -2.8410735e+40)
(-2.9381018e+41 -4.1641508e+39 -2.9655751e+40)
(-3.6175067e+41 -2.9163283e+39 -3.7788382e+40)
(-3.5532375e+41 -1.8255102e+40 -3.6562481e+40)
(-3.8865426e+41 -1.6963504e+40 -4.418011e+40)
(-2.9311314e+41 -6.807946e+39 -2.8114626e+40)
(-2.914132e+41 -5.025447e+39 -2.9834695e+40)
(-3.0307967e+41 -2.3831196e+40 -7.0993034e+40)
(-3.0164098e+41 -2.1704273e+40 -7.1470354e+40)
(-3.0093152e+41 -1.8772057e+40 -7.1811753e+40)
(-3.029677e+41 -1.9949067e+40 -7.1080689e+40)
(-1.5765449e+41 4.2460888e+39 -4.7856183e+40)
(-1.5510146e+41 3.8337327e+39 -4.7897287e+40)
(-1.4914508e+41 -1.3901709e+40 -3.0960174e+40)
(-1.5324363e+41 -2.3729217e+40 -3.2710131e+40)
(-1.5505767e+41 4.8439963e+39 -4.8627763e+40)
(-1.5165228e+41 3.8303893e+39 -4.9244547e+40)
(-1.547878e+41 -2.2816012e+40 -3.01315e+40)
(-1.4876587e+41 -1.3463383e+40 -3.0762922e+40)
(-1.0085134e+41 -3.1123367e+40 -9.0670786e+39)
(-1.5672311e+41 -2.945194e+40 4.3535716e+40)
(-1.5531329e+41 -1.6054662e+40 4.7073048e+40)
(-1.0152863e+41 -2.3376182e+40 9.650705e+38)
(-1.613459e+41 -2.9890625e+40 4.6840683e+40)
(-1.5740475e+41 -1.336567e+40 4.8711122e+40)
(-1.0380147e+41 -2.9702323e+40 -5.6879298e+39)
(-1.0132168e+41 -2.1266035e+40 1.5245316e+39)
(-1.5403837e+41 4.6316872e+39 -4.7813588e+40)
(-1.510971e+41 4.3419948e+39 -4.7695636e+40)
(-1.5316014e+41 -2.164799e+40 -3.1263627e+40)
(-1.486066e+41 -1.0914878e+40 -2.9671911e+40)
(-1.5319061e+41 4.4631027e+39 -4.9161954e+40)
(-1.5092869e+41 2.4554861e+39 -4.9706756e+40)
(-1.5402341e+41 -1.9799681e+40 -2.9861676e+40)
(-1.4871457e+41 -1.0512461e+40 -3.1273454e+40)
(-1.0158377e+41 -2.8397807e+40 -7.6420386e+39)
(-1.5749454e+41 -2.7833922e+40 4.3821674e+40)
(-1.564658e+41 -1.244408e+40 4.7466914e+40)
(-1.018414e+41 -1.9392956e+40 2.0773451e+39)
(-1.6092943e+41 -2.5524152e+40 4.71707e+40)
(-1.5675467e+41 -9.472858e+39 4.8815484e+40)
(-1.034367e+41 -2.5590525e+40 -4.934098e+39)
(-1.0223574e+41 -1.7181393e+40 1.0776508e+39)
(-2.0261835e+41 -5.4390192e+39 5.3430494e+40)
(-2.0217573e+41 -1.1477366e+40 5.2239131e+40)
(-2.5540609e+41 -4.275423e+39 5.4234849e+40)
(-2.5540776e+41 -5.1447566e+39 5.4305048e+40)
(-2.018002e+41 -4.0063159e+39 5.4797469e+40)
(-2.0179097e+41 -1.1006988e+40 5.2436715e+40)
(-2.5594885e+41 -3.0519061e+39 5.2814145e+40)
(-2.5365046e+41 -3.8921014e+39 5.2378333e+40)
(-2.0224061e+41 -3.7519811e+39 5.3266638e+40)
(-2.0168957e+41 -1.0252191e+40 5.2410487e+40)
(-2.5543961e+41 -3.5684994e+39 5.4508535e+40)
(-2.5412891e+41 -3.6760883e+39 5.3192177e+40)
(-2.0586304e+41 -4.0417372e+39 5.5025499e+40)
(-2.0515396e+41 -9.3161061e+39 5.2566648e+40)
(-2.5716084e+41 -4.1437072e+39 5.586068e+40)
(-2.5258231e+41 -5.8454456e+39 5.4788076e+40)
(-2.0188345e+41 -5.9831872e+39 5.2787312e+40)
(-2.0213698e+41 -1.1740101e+40 5.1526137e+40)
(-2.5425701e+41 -4.6258112e+39 5.3211439e+40)
(-2.547373e+41 -5.8938061e+39 5.4101004e+40)
(-2.0277189e+41 -5.4940367e+39 5.4933673e+40)
(-2.0225379e+41 -1.1980013e+40 5.2097682e+40)
(-2.5611859e+41 -4.3083553e+39 5.3315203e+40)
(-2.542832e+41 -5.2889082e+39 5.3173285e+40)
(-2.0334742e+41 -5.2914701e+39 5.4113985e+40)
(-2.0206095e+41 -1.1879933e+40 5.2487451e+40)
(-2.5625118e+41 -3.6451668e+39 5.3297387e+40)
(-2.5628369e+41 -4.8781022e+39 5.4517321e+40)
(-2.0240869e+41 -4.6663801e+39 5.5559576e+40)
(-2.0267505e+41 -1.0636389e+40 5.3415781e+40)
(-2.5551491e+41 -3.1337108e+39 5.4229719e+40)
(-2.5301728e+41 -4.8440196e+39 5.3616698e+40)
(-2.0447235e+41 -4.5349557e+39 5.4078583e+40)
(-2.0313307e+41 -1.1619924e+40 5.2933665e+40)
(-2.5813489e+41 -4.9337771e+39 5.3642178e+40)
(-2.5759969e+41 -5.2894415e+39 5.3736319e+40)
(-2.0338395e+41 -3.7027569e+39 5.535077e+40)
(-2.0312064e+41 -1.0166367e+40 5.3426936e+40)
(-2.5786685e+41 -5.0986022e+39 5.5948653e+40)
(-2.5560572e+41 -6.2216767e+39 5.425148e+40)
(-2.0463616e+41 -5.5921325e+39 5.3111939e+40)
(-2.0229879e+41 -1.1281467e+40 5.1755291e+40)
(-2.5683257e+41 -4.4786507e+39 5.3247606e+40)
(-2.5796455e+41 -6.1991548e+39 5.4722638e+40)
(-2.038453e+41 -4.8704293e+39 5.513774e+40)
(-2.0300807e+41 -1.145566e+40 5.2399356e+40)
(-2.5868039e+41 -4.8988808e+39 5.3614301e+40)
(-2.5692794e+41 -5.964719e+39 5.3560236e+40)
(-2.0824259e+41 -5.2350278e+39 5.3323969e+40)
(-2.0811846e+41 -1.133315e+40 5.2349094e+40)
(-2.6159009e+41 -6.6866019e+39 5.5854923e+40)
(-2.6142144e+41 -7.548054e+39 5.6150113e+40)
(-2.0630568e+41 -6.8596863e+39 5.5226897e+40)
(-2.0891387e+41 -1.2136104e+40 5.2911029e+40)
(-2.5919704e+41 -8.0772653e+39 5.6940645e+40)
(-2.585179e+41 -1.0516818e+40 5.7340704e+40)
(-2.0777687e+41 -5.2634335e+39 5.311682e+40)
(-2.0710065e+41 -1.1070299e+40 5.1957165e+40)
(-2.6089325e+41 -6.0949401e+39 5.5487285e+40)
(-2.5897403e+41 -6.8015785e+39 5.4739807e+40)
(-2.0421846e+41 -4.2706091e+39 5.4620893e+40)
(-2.0344932e+41 -1.1683359e+40 5.2303051e+40)
(-2.5923331e+41 -6.325013e+39 5.5232467e+40)
(-2.5720528e+41 -6.6545774e+39 5.3762145e+40)
(-5.0596251e+41 -3.8277148e+39 -6.630245e+40)
(-2.7431514e+41 -5.8265295e+39 -1.4547911e+40)
(-2.7436413e+41 -4.0425632e+39 -1.3844388e+40)
(-2.7980037e+41 -3.2419771e+39 -5.8130177e+38)
(-2.7941176e+41 -8.1048092e+39 -1.2517248e+37)
(-2.7224449e+41 -5.2096358e+39 -1.6157645e+40)
(-2.7845748e+41 -2.2211117e+39 -2.1005263e+39)
(-2.7309866e+41 -2.2589769e+39 -1.6027235e+40)
(-2.7873118e+41 -6.0605794e+39 -1.876186e+39)
(-2.7382718e+41 -6.7666747e+39 -1.4582309e+40)
(-2.7669452e+41 -2.6259257e+39 -7.695782e+38)
(-2.7404634e+41 -4.5485554e+39 -1.3755127e+40)
(-2.7578601e+41 -7.7227684e+39 -4.1949359e+38)
(-2.7183574e+41 -5.8300209e+39 -1.6281938e+40)
(-2.7559367e+41 -2.1158465e+39 -2.0131754e+39)
(-2.7250752e+41 -2.2515875e+39 -1.5907379e+40)
(-2.757737e+41 -6.496293e+39 -1.8761456e+39)
(-2.3383963e+41 -7.3505806e+39 -1.3459002e+40)
(-2.3801434e+41 -7.2525096e+39 -5.2469913e+39)
(-2.3132794e+41 -6.4980778e+39 -1.3268747e+40)
(-2.3662303e+41 -4.980926e+39 -5.6552674e+39)
(-2.3326838e+41 -5.2994425e+39 -1.305219e+40)
(-2.3229339e+41 -7.0381703e+39 -1.3566728e+40)
(-2.3682089e+41 -5.2095191e+39 -5.7387387e+39)
(-2.3466719e+41 -5.1149491e+39 -1.2952017e+40)
(-2.3188066e+41 -6.3641865e+39 -1.3006228e+40)
(-2.3724187e+41 -4.831309e+39 -5.3987041e+39)
(-2.7841374e+41 -6.1075843e+39 -1.3016681e+40)
(-2.8132582e+41 -2.650974e+39 -2.7528436e+39)
(-2.7910416e+41 -3.7045805e+39 -1.233428e+40)
(-2.8111275e+41 -6.8569798e+39 -2.5121054e+39)
(-2.7662074e+41 -5.2822404e+39 -1.4736962e+40)
(-2.8009029e+41 -2.3648932e+39 -4.0974736e+39)
(-2.7721813e+41 -1.5933716e+39 -1.4663158e+40)
(-2.8047808e+41 -5.7851323e+39 -4.1967842e+39)
(-2.8994764e+41 -1.917233e+39 -2.2348454e+39)
(-2.9040902e+41 -5.5561903e+39 -2.3111522e+39)
(-2.867552e+41 -4.5396633e+39 -2.0922197e+40)
(-2.8668071e+41 -2.0632648e+39 -2.0988368e+40)
(-3.35747e+41 -1.9275558e+39 -5.6817968e+39)
(-2.9115789e+41 -2.5730397e+39 -7.655318e+38)
(-2.9132571e+41 -7.1997012e+39 -6.2943566e+38)
(-2.897598e+41 -3.6152269e+39 -1.9063114e+40)
(-2.87984e+41 -5.0772929e+39 -1.9004974e+40)
(-3.3812074e+41 -1.0371419e+40 -3.8365109e+39)
(-3.3011528e+41 -8.8464936e+39 -3.4023464e+40)
(-3.3135394e+41 -4.8025243e+39 -2.5127328e+40)
(-2.341512e+41 -6.8818369e+39 -5.1230174e+39)
(-2.2458071e+41 -5.8603234e+39 -1.203887e+40)
(-2.3366423e+41 -4.4353174e+39 -5.0954838e+39)
(-2.2504817e+41 -4.8807742e+39 -1.2084693e+40)
(-2.2863646e+41 -6.3516662e+39 -1.3301716e+40)
(-2.345604e+41 -4.5344453e+39 -5.981163e+39)
(-2.3571068e+41 -7.1605953e+39 -5.9692305e+39)
(-2.3034348e+41 -5.0189694e+39 -1.303304e+40)
(-2.3553155e+41 -7.7539628e+39 -4.8944499e+39)
(-2.2555462e+41 -6.3929108e+39 -1.1410177e+40)
(-2.3497998e+41 -4.4482159e+39 -4.9741965e+39)
(-2.2602489e+41 -5.5531491e+39 -1.1386358e+40)
(-2.2908831e+41 -6.2814987e+39 -1.310773e+40)
(-2.3519808e+41 -4.2088722e+39 -5.8241623e+39)
(-2.3080954e+41 -6.0096902e+39 -1.2698705e+40)
(-2.3577725e+41 -7.5662486e+39 -5.829957e+39)
(-2.1161901e+41 -2.3879422e+39 -1.3907754e+40)
(-2.1165486e+41 -5.3527558e+39 -1.3767319e+40)
(-2.2983828e+41 -4.205129e+39 -2.9216323e+39)
(-2.3011059e+41 -6.6155929e+39 -2.9900266e+39)
(-2.2857262e+41 -4.5963344e+39 -2.6832784e+39)
(-2.285319e+41 -6.3970244e+39 -2.8290259e+39)
(-2.083568e+41 -2.9918429e+39 -1.4943922e+40)
(-2.0842686e+41 -5.7887265e+39 -1.4785469e+40)
(-2.4327413e+41 -4.4079654e+39 -6.944413e+39)
(-2.9440643e+41 -3.9754916e+39 -9.1230716e+39)
(-2.9109683e+41 -3.6056353e+39 -2.2633783e+40)
(-2.9134527e+41 -6.952723e+39 -2.2602973e+40)
(-2.9392755e+41 -7.6775858e+39 -9.3301047e+39)
(-2.4102985e+41 -4.8238117e+39 -8.3645048e+39)
(-2.9305635e+41 -3.742134e+39 -2.5499415e+40)
(-2.9410865e+41 -6.2867906e+39 -2.4323562e+40)
(-2.9955875e+41 -3.242249e+39 -8.8584036e+39)
(-2.9780904e+41 -7.1957731e+39 -1.0954e+40)
(-2.9533168e+41 -3.8312119e+39 -2.4188977e+40)
(-2.9532064e+41 -6.3018069e+39 -2.3765819e+40)
(-3.005908e+41 -3.5458949e+39 -9.8969434e+39)
(-2.9980848e+41 -7.393758e+39 -1.0434362e+40)
(-2.735122e+41 -3.3047614e+39 -1.564227e+40)
(-2.7280155e+41 -1.1850734e+39 -1.5746104e+40)
(-2.7961163e+41 -4.1491766e+38 -1.7440514e+39)
(-2.7865487e+41 -5.023175e+39 -1.8484778e+39)
(-2.7133253e+41 -3.3324459e+39 -1.6241392e+40)
(-2.7774803e+41 1.6921528e+38 -2.1700023e+39)
(-2.7269973e+41 -1.3226778e+38 -1.6120052e+40)
(-2.7804627e+41 -3.6505473e+39 -2.2551006e+39)
(-2.7100265e+41 -3.5549625e+39 -1.6267094e+40)
(-2.7531714e+41 2.9843766e+38 -2.2341424e+39)
(-2.7205839e+41 -7.3590764e+37 -1.6089409e+40)
(-2.7580593e+41 -4.2897644e+39 -2.3798321e+39)
(-2.7274431e+41 -4.1866893e+39 -1.5612263e+40)
(-2.7670245e+41 -1.6553706e+37 -1.96792e+39)
(-2.724475e+41 -1.4291861e+39 -1.5544404e+40)
(-2.7554455e+41 -4.8788447e+39 -2.1733612e+39)
(-2.7788866e+41 -4.1538005e+39 -1.4169269e+40)
(-2.8151999e+41 -8.6292735e+37 -3.8164926e+39)
(-2.7750574e+41 -1.1527048e+39 -1.4315868e+40)
(-2.8054437e+41 -4.1038446e+39 -4.2561152e+39)
(-2.9123218e+41 -4.4255948e+38 -1.9202533e+39)
(-2.906185e+41 -4.6919149e+39 -2.1373804e+39)
(-2.8645875e+41 -9.9312101e+38 -2.0818548e+40)
(-2.8791728e+41 -3.1121449e+39 -2.0568771e+40)
(-3.3834153e+41 -8.099678e+39 -5.7212273e+39)
(-2.8946611e+41 1.2212339e+39 -8.4368398e+38)
(-2.9070077e+41 -3.5198185e+39 -1.1495176e+39)
(-2.8645185e+41 -1.1731013e+38 -2.0151451e+40)
(-2.8550542e+41 -2.0771843e+39 -2.0395388e+40)
(-3.3800969e+41 -3.7955018e+38 -4.2955265e+39)
(-2.7571424e+41 -2.4169329e+39 -1.3860534e+40)
(-2.7845585e+41 4.7891795e+38 -4.5205703e+39)
(-2.7741104e+41 2.3551063e+38 -1.3858182e+40)
(-2.7938234e+41 -3.2903617e+39 -4.7751269e+39)
(-3.3003385e+41 -6.980328e+39 -3.220524e+40)
(-3.3161121e+41 -8.2750618e+38 -3.3171379e+40)
(-3.3314463e+41 -1.8681205e+39 -3.8515604e+40)
(-3.3131934e+41 -7.0961778e+39 -3.8116086e+40)
(-3.4628809e+41 -4.7544008e+38 -3.8140666e+39)
(-3.4784313e+41 -8.9179615e+39 -5.0054007e+39)
(-3.3252062e+41 -8.155147e+39 -3.8698622e+40)
(-3.4422425e+41 -2.3036165e+39 -7.4753701e+39)
(-3.424759e+41 -1.0599597e+40 -7.7685182e+39)
(-3.3189967e+41 -4.2659027e+39 -3.8560595e+40)
(-3.1371433e+41 -1.756365e+39 -1.1082959e+40)
(-3.0549412e+41 -4.970681e+39 -2.5120833e+40)
(-3.0600908e+41 -4.158237e+39 -2.4227085e+40)
(-3.133905e+41 -7.2225604e+39 -1.1347307e+40)
(-3.0348715e+41 -3.8097428e+39 -3.0783623e+40)
(-3.0483918e+41 -7.3958027e+39 -3.0761414e+40)
(-3.1093613e+41 -3.5594352e+39 -1.5923697e+40)
(-3.0920012e+41 -6.7694772e+39 -1.6093411e+40)
(-3.0008396e+41 -3.2177662e+39 -2.4473731e+40)
(-3.0029043e+41 -4.9453076e+39 -2.2094652e+40)
(-3.0529465e+41 -2.9279241e+39 -1.3488038e+40)
(-3.0457229e+41 -7.4502635e+39 -1.4819916e+40)
(-3.0380484e+41 -2.9967883e+39 -1.6027377e+40)
(-2.9901204e+41 -6.8360288e+39 -2.7187419e+40)
(-2.9802825e+41 -3.3425257e+39 -2.6816227e+40)
(-3.0228805e+41 -6.3907871e+39 -1.6434636e+40)
(-3.6336373e+41 4.5907053e+39 -4.2568885e+40)
(-3.7231092e+41 -5.8647695e+39 -2.7279046e+37)
(-3.4839686e+41 5.3385082e+39 1.7771037e+39)
(-3.8794044e+41 -1.0247116e+40 2.5279889e+40)
(-3.2248777e+41 2.9271136e+39 -2.6347903e+40)
(-3.2774052e+41 -5.0763002e+39 3.0014536e+39)
(-3.2060984e+41 1.0514222e+39 -1.9583981e+40)
(-2.9455681e+41 -4.3375317e+39 1.6716254e+40)
(-2.9566477e+41 -3.0227404e+39 1.6680046e+40)
(-2.9591265e+41 1.1893904e+39 4.5663208e+40)
(-2.9655406e+41 -9.1454822e+39 4.5332453e+40)
(-2.8688527e+41 -2.5681947e+39 -1.3296196e+39)
(-2.8539579e+41 -1.7044734e+39 -9.785937e+38)
(-2.9437465e+41 1.1957714e+39 2.3982595e+40)
(-2.9302151e+41 -6.9248754e+39 2.4373466e+40)
(-2.8421536e+41 -3.5729389e+39 -1.512981e+39)
(-2.9436666e+41 7.3021805e+38 2.4616545e+40)
(-2.8572345e+41 -1.8354816e+39 -1.5254814e+39)
(-2.9463562e+41 -6.6873024e+39 2.4756844e+40)
(-2.9626809e+41 -3.8271897e+39 1.7014908e+40)
(-2.9586669e+41 2.1882274e+39 4.4271042e+40)
(-2.9611627e+41 -4.0634461e+39 1.7995755e+40)
(-2.9425487e+41 -8.0833581e+39 4.4447331e+40)
(-2.7567408e+41 -4.218222e+39 -1.2711111e+40)
(-2.8292277e+41 -3.9354922e+38 7.4277015e+39)
(-2.7582516e+41 -6.0573436e+38 -1.2479849e+40)
(-2.8338584e+41 -5.9917651e+39 7.7053406e+39)
(-2.702855e+41 -2.7495941e+39 -1.4542776e+40)
(-2.6887252e+41 -3.7186252e+38 -1.4536659e+40)
(-2.7762749e+41 4.0967942e+38 1.5261076e+39)
(-2.760861e+41 -4.4122923e+39 1.5199461e+39)
(-2.6908857e+41 -3.1684634e+39 -1.5537721e+40)
(-2.7705575e+41 5.5645773e+36 9.2740949e+38)
(-2.6974764e+41 -3.2638758e+38 -1.5332613e+40)
(-2.7738332e+41 -4.173239e+39 1.2082675e+39)
(-2.7662962e+41 -3.982595e+39 -1.1716254e+40)
(-2.8268385e+41 7.384751e+38 6.4813366e+39)
(-2.7585782e+41 -1.4609179e+39 -1.1361176e+40)
(-2.8098491e+41 -4.9256804e+39 6.5545124e+39)
(-2.7449082e+41 -3.3138263e+39 -1.2191092e+40)
(-2.7529971e+41 4.4093096e+38 -1.2039557e+40)