/*--------------------------------*- C++ -*----------------------------------*\
  =========                 |
  \\      /  F ield         | OpenFOAM: The Open Source CFD Toolbox
   \\    /   O peration     | Website:  https://openfoam.org
    \\  /    A nd           | Version:  7
     \\/     M anipulation  |
\*---------------------------------------------------------------------------*/
FoamFile
{
    version     2.0;
    format      ascii;
    class       volScalarField;
    location    "2000";
    object      k;
}
// * * * * * * * * * * * * * * * * * * * * * * * * * * * * * * * * * * * * * //

dimensions      [0 2 -2 0 0 0 0];

internalField   nonuniform List<scalar> 
33730
(
1.5216202
1.5212511
1.5215166
1.5216677
1.5210896
1.5210777
1.5220406
1.5214773
1.5218646
1.5210315
1.5212308
1.5219183
1.5210134
1.5217618
1.5213297
1.5210717
1.5216823
1.5213255
1.5215801
1.5216415
1.5215823
1.5215263
1.5215989
1.5217563
1.5216912
1.5210838
1.5211292
1.5210232
1.5209697
1.5214097
1.5215733
1.521498
1.5216967
1.5219463
1.5217294
1.5218189
1.521828
1.5208421
1.5208195
1.5207648
1.5208953
1.5210117
1.5208224
1.5209109
1.5209982
1.5207846
1.5207262
1.5216254
1.5217053
1.5210099
1.5209536
1.521464
1.5216669
1.5210095
1.5211964
1.5215587
1.5212016
1.5209553
1.5211375
1.5212191
1.5210047
1.5216465
1.5212538
1.5213582
1.5217411
1.5211902
1.5212815
1.5213487
1.5212933
1.5216198
1.5216423
1.5216714
1.5217155
1.5216708
1.5216896
1.5217485
1.5215469
1.5215993
1.5215728
1.5214936
1.5214445
1.5215214
1.5215277
1.5215207
1.5216335
1.5216315
1.5211925
1.5211945
1.5210071
1.5210063
1.5212122
1.5212063
1.5210684
1.5210419
1.5214397
1.5214772
1.5213896
1.5214949
1.521521
1.5216037
1.5215239
1.5216127
1.5207471
1.5207588
1.520711
1.5206463
1.5217063
1.521636
1.5215576
1.5216426
1.5214537
1.5214278
1.5215991
1.5216208
1.5216464
1.5216161
1.5215335
1.5218488
1.521572
1.5217035
1.521492
1.5214272
1.5216165
1.5216679
1.5208364
1.5208987
1.5209117
1.5208221
1.5208536
1.5208237
1.5208327
1.52084
1.5208484
1.5207942
1.5208026
1.5208062
1.5208145
1.5207571
1.5208701
1.5209317
1.520945
1.5208904
1.5206895
1.520756
1.5208644
1.52087
1.5208553
1.5209679
1.5209043
1.520962
1.5209165
1.5209261
1.5209493
1.5209822
1.520999
1.5208817
1.5204944
1.5207597
1.5206948
1.5207329
1.5206758
1.5206376
1.520592
1.5206306
1.5214938
1.5215537
1.5216052
1.5216087
1.521076
1.5210499
1.5210188
1.5210191
1.5213915
1.5214954
1.5215851
1.5215925
1.5209619
1.5208716
1.5210315
1.5212384
1.521555
1.5212271
1.5209853
1.5211675
1.5212474
1.5210436
1.5216209
1.5214672
1.521426
1.5216556
1.5212677
1.5212466
1.5212283
1.5212439
1.5212892
1.5212608
1.5213699
1.5213407
1.5217223
1.5214194
1.5218244
1.521467
1.5211846
1.5211864
1.5212078
1.5212055
1.5213021
1.5212517
1.5212557
1.5213432
1.5213684
1.5213187
1.5213818
1.5212626
1.5212231
1.5212239
1.5213102
1.5213033
1.5216519
1.5216915
1.5216592
1.5217245
1.5216831
1.521693
1.5217209
1.5216942
1.5217428
1.5217499
1.5217533
1.5217681
1.5217733
1.5216723
1.5214848
1.5217339
1.5215473
1.5217593
1.5217673
1.5215705
1.5215849
1.5215199
1.5214441
1.5214403
1.5215162
1.5214195
1.5214062
1.5214706
1.5214459
1.5214687
1.5214625
1.5215594
1.5215595
1.5214553
1.5214576
1.5215548
1.5215521
1.52141
1.5213987
1.5210666
1.521066
1.521408
1.5214117
1.5210672
1.521066
1.5213706
1.5213457
1.521124
1.5211097
1.5210932
1.5213927
1.5213991
1.5210912
1.5215679
1.5214851
1.5213981
1.5214295
1.5214833
1.5214704
1.5214595
1.521487
1.5214783
1.5214732
1.5215453
1.5215491
1.5215517
1.5214723
1.5214707
1.5215509
1.5207298
1.5208781
1.5208785
1.5207367
1.5208495
1.5208472
1.5209132
1.5209149
1.5209138
1.520729
1.5207214
1.5207189
1.5207159
1.5207081
1.5207115
1.5215751
1.5215797
1.521609
1.5216067
1.5215527
1.5214617
1.5215262
1.5214999
1.5215263
1.5215204
1.5214506
1.5214675
1.5215817
1.5215652
1.5215699
1.5215782
1.5213866
1.5214802
1.5213728
1.5214806
1.5214762
1.5214802
1.5215474
1.5215425
1.5215498
1.5216016
1.5215547
1.5215523
1.5215586
1.5215476
1.5215631
1.5215657
1.5215731
1.5215566
1.5215611
1.5215696
1.5215602
1.5215638
1.5215561
1.5215519
1.5216182
1.5214296
1.5215123
1.5215145
1.5215478
1.5214427
1.521578
1.5215065
1.5214375
1.521457
1.5215135
1.5215218
1.5215526
1.5215667
1.5217294
1.5215502
1.5215671
1.5215811
1.5215646
1.5215249
1.521515
1.5214818
1.5213859
1.5214026
1.5214924
1.5213852
1.5214783
1.5213891
1.5214838
1.5215602
1.5215558
1.5215652
1.5215702
1.521568
1.5215932
1.5215626
1.5215867
1.5209713
1.520974
1.5208249
1.5209437
1.5209407
1.5210325
1.5210024
1.5208821
1.5209717
1.5210087
1.5210618
1.5210603
1.5210349
1.5210375
1.5208117
1.5208713
1.5210062
1.5210078
1.5210099
1.521011
1.5210065
1.5210006
1.5209965
1.5209908
1.5210144
1.5210053
1.5210151
1.5210047
1.5210167
1.5210011
1.5210113
1.5210253
1.5210103
1.5210256
1.5210093
1.5209439
1.5209378
1.5207827
1.5209079
1.5209135
1.520952
1.5209518
1.5207904
1.5209221
1.5209212
1.5209807
1.5209801
1.5209743
1.5209741
1.5209885
1.5209885
1.5209891
1.520988
1.520782
1.520774
1.5210322
1.5210244
1.5210366
1.521028
1.5210811
1.5210737
1.5210598
1.5210541
1.5210901
1.5210783
1.5210708
1.5210598
1.5210431
1.5210308
1.5210479
1.5210346
1.5207595
1.5207667
1.5207703
1.5207628
1.5207916
1.5208443
1.5208537
1.5208003
1.5210267
1.5210266
1.5210104
1.5210091
1.5210241
1.5210035
1.5210236
1.5210019
1.5210178
1.5210008
1.5210923
1.5210728
1.5210771
1.5210576
1.5210461
1.5210321
1.5210509
1.5210357
1.5210922
1.5210805
1.5210733
1.5210617
1.5210448
1.5210492
1.5210281
1.5210312
1.5210374
1.5210191
1.521041
1.521021
1.5210259
1.5210121
1.521028
1.5210128
1.5210868
1.5210715
1.5210656
1.5210505
1.5210797
1.5210672
1.5210562
1.5210444
1.5209917
1.5210135
1.5210127
1.5205563
1.5206675
1.5206041
1.5205827
1.5206246
1.5207241
1.5207677
1.5207844
1.5207409
1.5207599
1.5208074
1.5208234
1.5207761
1.5207506
1.5207369
1.5207313
1.5207442
1.5206929
1.5206966
1.5207146
1.5207102
1.5206486
1.5206673
1.520661
1.5207009
1.5206884
1.5206816
1.5206938
1.5214614
1.5214341
1.5215071
1.5215031
1.5215385
1.5215355
1.5215436
1.5215431
1.5211287
1.5211148
1.5211001
1.5210981
1.5210746
1.5210743
1.5210763
1.5210745
1.5214116
1.5214356
1.5214804
1.5214831
1.5215342
1.5215371
1.5215387
1.5215375
1.5209307
1.5208623
1.5213703
1.5210309
1.5212121
1.5215487
1.5216125
1.5214489
1.5212503
1.5212557
1.5212371
1.5209881
1.5211945
1.521195
1.5211972
1.5212723
1.5212563
1.5213169
1.521037
1.5214168
1.5216235
1.52127
1.5212484
1.5212861
1.5212781
1.5213027
1.5212891
1.5212634
1.5212566
1.5212657
1.5212772
1.5213207
1.521389
1.5213016
1.5213647
1.5212902
1.5213547
1.5212767
1.5213457
1.5216835
1.5215555
1.5217737
1.5215431
1.5214144
1.5213948
1.5214209
1.5213887
1.5218954
1.5215661
1.5216509
1.5220349
1.5214901
1.5214278
1.5214378
1.5213939
1.5212111
1.5212091
1.5212554
1.5213441
1.5213359
1.521328
1.5214194
1.5213917
1.5212748
1.5212602
1.5213157
1.5213211
1.5213248
1.5213377
1.5213915
1.5214278
1.5212644
1.5212559
1.5212564
1.5212699
1.521222
1.5212191
1.5212335
1.5212282
1.5212204
1.5212238
1.5212281
1.5212332
1.5212464
1.5212387
1.5213133
1.5213272
1.5212422
1.5213089
1.5213081
1.521238
1.5216916
1.5216642
1.5216776
1.5216762
1.5217087
1.5217189
1.5217162
1.5217451
1.521749
1.5217644
1.5217686
1.5216925
1.521676
1.5217011
1.5216938
1.5217223
1.5217401
1.5217127
1.5216981
1.5216903
1.5217182
1.5217518
1.5217477
1.521751
1.5217582
1.5217772
1.5217722
1.5217795
1.5217735
1.5217772
1.5217782
1.521783
1.5217848
1.5217193
1.5216826
1.5216633
1.5217125
1.5214479
1.5215768
1.5216339
1.5215054
1.5217457
1.5217522
1.5217606
1.521758
1.5217003
1.5216728
1.5215524
1.5215823
1.5217751
1.5217786
1.5217813
1.5217789
1.5217819
1.5217849
1.521787
1.5217844
1.5215936
1.5217145
1.5217255
1.5216102
1.5217361
1.5217287
1.5216146
1.5216207
1.5213656
1.5213672
1.5214864
1.5214854
1.5213663
1.5213639
1.5214823
1.5214806
1.5213655
1.5213615
1.5214494
1.5214478
1.5213863
1.521375
1.5214276
1.5214106
1.5213789
1.5213873
1.5215155
1.5215154
1.52137
1.5213697
1.5215134
1.5215135
1.521362
1.521366
1.5215062
1.5215056
1.5213648
1.5215088
1.5215088
1.5213628
1.5214356
1.5214255
1.521432
1.5214392
1.5213891
1.5213582
1.5214161
1.5214224
1.5214247
1.5218823
1.5217282
1.5214477
1.5215079
1.5215869
1.5214436
1.5214396
1.5214726
1.5214503
1.5214726
1.5214739
1.521474
1.5214357
1.5214282
1.5214747
1.5214127
1.5214236
1.5215111
1.5215129
1.5213999
1.5214029
1.5215131
1.5215132
1.5213974
1.5213952
1.5215142
1.5215138
1.5213939
1.5213937
1.521513
1.521513
1.5216121
1.5208298
1.5208355
1.5208308
1.5208258
1.5212961
1.5212958
1.52123
1.5212289
1.5212254
1.5212266
1.5212911
1.521291
1.5208296
1.5208355
1.5208382
1.5208316
1.5212819
1.5212869
1.5211829
1.5212374
1.5211827
1.5212374
1.5211915
1.5211461
1.521147
1.5211926
1.5211824
1.5212332
1.5211789
1.5212354
1.5208249
1.5208338
1.5208362
1.5208267
1.5208267
1.5208324
1.520824
1.5208193
1.5208248
1.5208364
1.5208381
1.5208263
1.5208279
1.5208395
1.5208392
1.5208284
1.5208278
1.5208354
1.5208243
1.5208176
1.5208225
1.5208334
1.5208266
1.5208171
1.5215096
1.5215062
1.5215225
1.5215199
1.5215154
1.521528
1.5215141
1.5215275
1.5215259
1.5215456
1.521525
1.5215456
1.5215203
1.5215407
1.5215171
1.5215384
1.5214925
1.5214888
1.5215076
1.5215046
1.5214411
1.5214163
1.5214461
1.5214241
1.521484
1.5214931
1.5214806
1.5214901
1.5214469
1.5214211
1.5214607
1.5214383
1.5214771
1.5214856
1.5214738
1.5214829
1.5214729
1.5214696
1.5214795
1.5214769
1.5214313
1.521407
1.5214345
1.5214132
1.5214343
1.5214105
1.5214409
1.5214198
1.5215055
1.5215184
1.5215039
1.5215177
1.5214943
1.5214908
1.5215038
1.521501
1.5215002
1.5215095
1.5214983
1.5215085
1.5214996
1.5214961
1.5215128
1.5215101
1.5214547
1.5214497
1.5214399
1.5214372
1.5214751
1.5214742
1.5214763
1.5214754
1.5214367
1.5214332
1.5214767
1.5214752
1.521478
1.5214768
1.5214742
1.5214745
1.5214748
1.5214744
1.521475
1.5214768
1.521475
1.5214805
1.5214773
1.521506
1.5215031
1.5215467
1.5215089
1.5215117
1.5215041
1.5215049
1.5215418
1.5215101
1.5215089
1.5214975
1.5215016
1.5214975
1.5215019
1.5215287
1.5215332
1.5214982
1.5215024
1.5214945
1.5214992
1.5214976
1.5215035
1.5214938
1.5215002
1.5215002
1.521508
1.5214998
1.5215083
1.5214977
1.5215031
1.5214973
1.5215032
1.5214998
1.5215084
1.521496
1.5215053
1.5215252
1.5215212
1.5215273
1.5215317
1.5214943
1.5215046
1.5214921
1.5215034
1.521487
1.5214832
1.5214937
1.5214907
1.5214924
1.5214991
1.5214901
1.5214977
1.5214885
1.5214849
1.5214991
1.5214962
1.5214886
1.5214934
1.5214847
1.5214903
1.5214938
1.5214985
1.5214916
1.5214971
1.5215034
1.5215021
1.5215557
1.5215105
1.5215089
1.5214985
1.521495
1.5215524
1.5215013
1.5215055
1.5215422
1.5215384
1.5214294
1.52139
1.5214345
1.521385
1.5214353
1.5214793
1.5214748
1.5215105
1.5214807
1.5214866
1.5214714
1.5214731
1.5214668
1.5214696
1.521501
1.5214176
1.5214267
1.5214273
1.5213889
1.5213975
1.5215402
1.5215325
1.52153
1.5215372
1.5214179
1.5214964
1.5214984
1.5214239
1.5214262
1.5214272
1.5213963
1.5214025
1.5214268
1.5214317
1.521401
1.5214096
1.5214683
1.5214726
1.5214645
1.5214696
1.5214691
1.5214759
1.5214657
1.5214732
1.5215434
1.5215408
1.5215173
1.5215502
1.5215407
1.5215653
1.5215328
1.52152
1.5215202
1.5215162
1.5215231
1.5215189
1.5215218
1.5215173
1.5215207
1.5215255
1.5215319
1.5215258
1.5215243
1.5215301
1.5215272
1.5215236
1.5215262
1.5215225
1.5214951
1.5214916
1.5214247
1.5214275
1.5214924
1.5214916
1.5214387
1.5214463
1.5214778
1.5214781
1.5214777
1.5214788
1.5214436
1.5214283
1.5214411
1.5214333
1.5214256
1.5214357
1.5214162
1.5214331
1.5214773
1.5214785
1.5214812
1.5214832
1.521457
1.5214427
1.5214482
1.5214379
1.5214785
1.5214784
1.5214774
1.521478
1.5214526
1.5214418
1.5214424
1.5214373
1.5214781
1.5214766
1.521479
1.521478
1.5215047
1.5215012
1.5215123
1.5215096
1.5215049
1.5215048
1.5215116
1.5215122
1.5215085
1.5215088
1.5215176
1.5215188
1.5215089
1.5215058
1.5215192
1.5215169
1.5215164
1.5215265
1.5215138
1.5215248
1.5215246
1.5215407
1.5215226
1.5215397
1.5215151
1.5215239
1.5215161
1.5215256
1.5215218
1.5215237
1.5215365
1.5215392
1.5213909
1.5213911
1.5213243
1.5213231
1.5213253
1.521326
1.5213908
1.5213908
1.5209227
1.5209278
1.520929
1.5209244
1.5213825
1.521383
1.5213747
1.5213757
1.5213202
1.5213201
1.5213273
1.5213279
1.5213894
1.5213896
1.5209578
1.5209987
1.5209926
1.5209552
1.521382
1.5213691
1.5213249
1.5213263
1.5212807
1.5212804
1.5212864
1.5212881
1.5212491
1.5212496
1.5212846
1.5213335
1.5212821
1.5213354
1.521248
1.5212899
1.5212933
1.5212505
1.5209234
1.5209241
1.5209159
1.520916
1.5209507
1.520993
1.5209864
1.5209465
1.5212758
1.5213306
1.5212758
1.5213309
1.5212387
1.5212837
1.5212851
1.5212387
1.5212806
1.5213321
1.5212778
1.5213339
1.521242
1.5212866
1.5212903
1.521245
1.5212378
1.5212034
1.5212033
1.521238
1.5212221
1.5212233
1.5211903
1.5211889
1.5211803
1.5212134
1.5211808
1.5212136
1.5211987
1.5211669
1.5212009
1.5211694
1.5212092
1.5212419
1.5212088
1.5212435
1.5212185
1.5211872
1.5211869
1.5212193
1.5212137
1.5212435
1.5212093
1.5212483
1.5212194
1.521187
1.5212241
1.5211907
1.5211902
1.5211666
1.5211659
1.52119
1.5211504
1.5211759
1.5211764
1.5211491
1.5211794
1.5211761
1.5211564
1.521153
1.5211732
1.5211965
1.5211739
1.5211966
1.5211585
1.5211835
1.5211831
1.5211569
1.5212007
1.5211764
1.5211968
1.5211734
1.5211576
1.5211834
1.5211865
1.5211597
1.5213885
1.5213882
1.5213186
1.5213174
1.5212975
1.5212966
1.5213641
1.5213626
1.5208944
1.5209014
1.5208949
1.5208887
1.5213549
1.5213799
1.5213896
1.5213897
1.5213216
1.5213203
1.5213242
1.5213252
1.5213941
1.5213942
1.5209017
1.5209081
1.5209098
1.5209024
1.5213857
1.5213812
1.5213253
1.5213251
1.5212675
1.5212669
1.5212766
1.5212281
1.5212275
1.5212761
1.521305
1.5213039
1.521249
1.5212496
1.5212591
1.5212583
1.5212127
1.521212
1.5212716
1.5213281
1.5212717
1.5213283
1.5212798
1.5212327
1.5212332
1.5212811
1.5212764
1.5213311
1.5212731
1.5213333
1.521282
1.5212335
1.5212862
1.5212375
1.5208954
1.5209043
1.5209064
1.5208966
1.5208909
1.5208984
1.5208889
1.5208824
1.5212154
1.5212471
1.5212149
1.5212481
1.5212239
1.5211939
1.5211942
1.5212251
1.5212549
1.5212224
1.5212512
1.5212192
1.5212291
1.521199
1.5212326
1.5212018
1.5212301
1.5212557
1.5212299
1.5212571
1.5212372
1.5212379
1.521213
1.521212
1.5212287
1.5212559
1.5212257
1.5212592
1.5212066
1.5212341
1.5212375
1.5212089
1.5212009
1.5212201
1.5212031
1.5212192
1.5212105
1.5212082
1.5211915
1.5211878
1.5212171
1.5211961
1.5212145
1.5211942
1.5211809
1.5212023
1.5212044
1.521182
1.521181
1.5212025
1.5211808
1.5212033
1.5211664
1.5211897
1.5211903
1.5211659
1.5212114
1.5211889
1.5212084
1.5211866
1.5211726
1.5211962
1.5211986
1.521174
1.5208925
1.5209021
1.5208898
1.5208812
1.5209095
1.5209062
1.5208946
1.5208969
1.5208933
1.520905
1.5209079
1.5208952
1.5208878
1.5209001
1.5208913
1.5208803
1.5209207
1.5209252
1.5209147
1.520911
1.5209437
1.52098
1.5209744
1.5209374
1.5209476
1.5209885
1.5209807
1.5209408
1.520914
1.5209247
1.5209216
1.5209123
1.5211468
1.5211673
1.5211484
1.5211661
1.5211668
1.5211692
1.5211473
1.5211491
1.5211571
1.521135
1.5211559
1.5211332
1.5211584
1.5211341
1.5211352
1.5211565
1.5211422
1.521141
1.5211224
1.5211239
1.5211288
1.5211037
1.5211026
1.5211279
1.5211242
1.5211418
1.5211232
1.5211431
1.5211288
1.5211298
1.5211033
1.521104
1.5211388
1.5211594
1.5211397
1.5211584
1.5211486
1.5211258
1.5211815
1.5211687
1.5211615
1.5211753
1.5211685
1.5211676
1.5211524
1.5211526
1.5211466
1.5211733
1.5211552
1.5211653
1.5211569
1.5211365
1.5211567
1.5211364
1.5211747
1.5211747
1.521157
1.5211565
1.5211653
1.5211444
1.5211651
1.5211449
1.521165
1.5211815
1.5211636
1.5211831
1.5211723
1.5211514
1.5211526
1.5211738
1.52118
1.5211985
1.5211848
1.5211946
1.5211918
1.5211756
1.5211697
1.5211867
1.5211732
1.5211883
1.5211721
1.5211898
1.5211795
1.5211612
1.5211808
1.5211619
1.5211516
1.5211348
1.5211349
1.5211518
1.5211588
1.5211415
1.52116
1.5211419
1.5211176
1.5211395
1.5211172
1.5211402
1.5211469
1.5211466
1.5211234
1.5211236
1.5211194
1.5211031
1.5211201
1.5211032
1.5211057
1.5210864
1.5211053
1.5210868
1.5211264
1.5211256
1.5211084
1.521109
1.5211114
1.5210912
1.5211106
1.5210908
1.521089
1.5210757
1.5210888
1.5210751
1.5210777
1.5210664
1.5210655
1.5210783
1.5210929
1.5210787
1.5210934
1.5210789
1.5210812
1.5210671
1.5210812
1.5210681
1.521158
1.5211484
1.5211453
1.5211355
1.5211376
1.5211225
1.5211489
1.5211338
1.5211382
1.5211235
1.5211237
1.5211386
1.5211092
1.5211256
1.5211092
1.5211259
1.5211375
1.5211247
1.5211271
1.5211147
1.5211173
1.5211074
1.5211313
1.5211205
1.5211113
1.5210998
1.5210994
1.5211113
1.5210906
1.5211023
1.521092
1.5211018
1.5210686
1.5210896
1.5210888
1.5210671
1.521087
1.5211054
1.5211049
1.521086
1.5211054
1.5210864
1.5211067
1.5216141
1.5206822
1.5206621
1.5207466
1.5207239
1.5207064
1.5207129
1.52068
1.5206772
1.5206757
1.520674
1.5206267
1.5206166
1.5208491
1.5208531
1.5208711
1.5208658
1.520873
1.5209023
1.5209186
1.5208891
1.5209099
1.5209404
1.5209415
1.5209125
1.5208973
1.520895
1.5208892
1.5208913
1.520909
1.5209151
1.5209113
1.5209053
1.5209286
1.5209586
1.5209565
1.5209269
1.5209403
1.5209723
1.5209663
1.5209337
1.5209152
1.520925
1.5209194
1.5209106
1.5208969
1.5209094
1.520911
1.520899
1.5208957
1.5209007
1.5209007
1.5208964
1.5208883
1.5208963
1.5208912
1.5208825
1.5208929
1.5209053
1.5208953
1.5208836
1.5208279
1.5208311
1.5208511
1.5208467
1.5208333
1.5208364
1.5208562
1.520853
1.5208831
1.5208815
1.5208794
1.5208817
1.5208786
1.5208771
1.5208712
1.5208717
1.5207781
1.5207858
1.5208037
1.5207958
1.5208239
1.5208258
1.520819
1.5208184
1.5208144
1.520815
1.5208097
1.5208092
1.5208314
1.5208434
1.5208412
1.5208301
1.520832
1.520839
1.5208347
1.520829
1.5208244
1.5208309
1.5208259
1.5208186
1.520827
1.5208382
1.5208303
1.5208198
1.5214449
1.5214429
1.5214248
1.5214063
1.5214803
1.5214792
1.5214766
1.5214747
1.5215015
1.5215011
1.5214988
1.5214982
1.5215083
1.521508
1.5215061
1.5215062
1.5214343
1.5214561
1.5214455
1.5214408
1.5214717
1.5214726
1.5214721
1.5214727
1.5215062
1.5215075
1.5215075
1.5215076
1.521508
1.521508
1.5215066
1.5215068
1.5208863
1.5212679
1.5210651
1.5208386
1.5210831
1.5210273
1.521358
1.5215881
1.5215513
1.5215093
1.5215444
1.5215501
1.5214546
1.5215907
1.5215859
1.5214296
1.5212739
1.5212416
1.521257
1.5212634
1.5212467
1.5211992
1.5211978
1.5212194
1.5212061
1.5212044
1.5213123
1.5212591
1.5212945
1.5212577
1.5213259
1.5214082
1.5214237
1.5214089
1.5213856
1.5214116
1.5213848
1.5215403
1.5216171
1.5216443
1.5215196
1.5216974
1.5215274
1.5212602
1.5212661
1.5212813
1.5212734
1.5212939
1.5212836
1.5212431
1.5212477
1.521262
1.5212534
1.521272
1.5212615
1.5212985
1.5213029
1.521312
1.5213039
1.5212888
1.52129
1.521296
1.5212937
1.5212681
1.5212648
1.5212745
1.5212677
1.5212779
1.5212791
1.5212855
1.5212835
1.5213074
1.5213182
1.5213255
1.5213106
1.5213946
1.5213541
1.521337
1.5213764
1.5212966
1.5212999
1.521303
1.5212983
1.5213172
1.5213254
1.5213604
1.5213516
1.5212894
1.5212868
1.5212882
1.5212921
1.5213104
1.521307
1.5213426
1.5213447
1.5212804
1.5212783
1.5212695
1.5212695
1.5213392
1.5213013
1.5212898
1.5213335
1.5216813
1.5217531
1.5218225
1.5216868
1.5215187
1.5215338
1.5215442
1.5215158
1.5214121
1.5214177
1.5214253
1.5214148
1.5213883
1.5213935
1.5213815
1.5213808
1.5216946
1.5218778
1.5217207
1.5219807
1.5215157
1.5215537
1.5215198
1.5215751
1.5216961
1.521784
1.5216207
1.5215781
1.5218952
1.5221999
1.522342
1.5220311
1.5214903
1.5214474
1.5214713
1.5215265
1.5214375
1.5214187
1.5213942
1.5214162
1.5214172
1.5214316
1.5214206
1.5214427
1.5213811
1.5213974
1.5213815
1.5214014
1.5212094
1.521206
1.5212221
1.5212173
1.5212244
1.5212291
1.5212042
1.5212056
1.5212165
1.521219
1.5212281
1.5212241
1.5212577
1.5212507
1.521262
1.5212511
1.521266
1.5212542
1.5213571
1.5213178
1.5213204
1.5214098
1.5213248
1.5213928
1.5213203
1.5213282
1.5213285
1.5213139
1.5213997
1.5214075
1.5214354
1.5214535
1.5212648
1.5212742
1.5212735
1.5212628
1.5212521
1.5212544
1.5212575
1.5212562
1.5213005
1.5212657
1.5212689
1.5213017
1.5213026
1.5212738
1.5212821
1.5213069
1.5213098
1.5213286
1.5213277
1.5213047
1.521311
1.5213018
1.5213227
1.5213224
1.5213464
1.5213693
1.521441
1.5213886
1.5213948
1.5214637
1.5214684
1.5213894
1.521255
1.5212552
1.5212564
1.5212573
1.5212658
1.5212667
1.5212708
1.5212733
1.5212322
1.5212341
1.5212395
1.521236
1.5212286
1.5212285
1.5212323
1.5212319
1.5212311
1.5212282
1.5212285
1.5212316
1.5212343
1.5212326
1.5212349
1.521238
1.5212458
1.5212428
1.5212381
1.5212389
1.5212336
1.5212344
1.5212337
1.5212355
1.5212573
1.5213017
1.521299
1.5212545
1.5213239
1.5212735
1.5212645
1.5213133
1.521236
1.5212399
1.5212402
1.5212359
1.5212514
1.5212523
1.5212933
1.5212933
1.5212915
1.5212533
1.5212561
1.5212945
1.5212333
1.5212327
1.5212336
1.5212331
1.5217257
1.5217288
1.5216829
1.5217017
1.521693
1.5216847
1.5217188
1.5217084
1.5216798
1.5216843
1.5217083
1.521689
1.5217
1.5217317
1.5217348
1.5217275
1.521725
1.5217244
1.5217359
1.5217498
1.5217681
1.5217536
1.5217724
1.5217787
1.5217769
1.5217822
1.5217834
1.5216985
1.5217055
1.5217189
1.5216978
1.5217455
1.5217269
1.5217527
1.5217572
1.5216921
1.5217222
1.521755
1.5217617
1.5217801
1.5217826
1.521786
1.5217877
1.521722
1.521684
1.5216607
1.5217112
1.5214703
1.5215485
1.5216223
1.5215493
1.5217446
1.5217546
1.5217629
1.5217577
1.5217048
1.5216733
1.5216127
1.5216482
1.5217749
1.5217806
1.5217833
1.521779
1.5217817
1.521787
1.521789
1.5217846
1.5216693
1.5217256
1.5217355
1.5216832
1.5217439
1.5217399
1.5216926
1.5216939
1.5211856
1.521612
1.5213549
1.5213563
1.5213565
1.521354
1.5213579
1.5213551
1.5213847
1.52137
1.5213671
1.5213757
1.5213576
1.5213585
1.5213501
1.521354
1.5213535
1.52135
1.5216069
1.5214199
1.521594
1.5214104
1.5216124
1.5214156
1.5216155
1.5214235
1.5215045
1.5213817
1.5214367
1.5213547
1.5215579
1.5214053
1.5215812
1.5214087
1.521912
1.521743
1.5215097
1.5215896
1.5214694
1.5214463
1.5214311
1.5214234
1.5214032
1.5214155
1.5213901
1.5213934
1.5213879
1.5213842
1.5213827
1.5213831
1.5212626
1.521254
1.5212263
1.5212336
1.5213196
1.5213466
1.5213248
1.521324
1.5213303
1.5213294
1.5213273
1.5213265
1.5213214
1.5213206
1.5212762
1.5212684
1.5212624
1.5212706
1.5213251
1.5213275
1.5213548
1.5213522
1.5213252
1.5213249
1.521353
1.5213525
1.5213439
1.5213371
1.5213445
1.5213362
1.5213521
1.5213593
1.5213589
1.5213513
1.5213409
1.5213342
1.5213415
1.5213332
1.521349
1.5212619
1.5212567
1.5212494
1.5212551
1.5212159
1.5212413
1.5212469
1.5212203
1.5211369
1.521133
1.5211354
1.5211331
1.5211311
1.5211315
1.5212533
1.5212514
1.5212426
1.5212453
1.521251
1.5212517
1.5212418
1.5212419
1.5212146
1.5212341
1.521234
1.521213
1.5212372
1.5212349
1.5212124
1.5212135
1.5214696
1.5214781
1.5214776
1.5214689
1.5214652
1.5214666
1.521475
1.5214738
1.5214874
1.5214774
1.5214878
1.5214767
1.5214727
1.5214836
1.5214743
1.5214849
1.5214852
1.5214777
1.5214856
1.5214769
1.5214848
1.5214947
1.5214945
1.5214843
1.5214823
1.5214747
1.5214831
1.5214738
1.5214824
1.5214928
1.5214814
1.5214922
1.5215013
1.521494
1.5215013
1.5214938
1.5215107
1.5215005
1.5215004
1.5215109
1.5214914
1.5214992
1.5214922
1.5214998
1.5215092
1.521499
1.5214983
1.5215091
1.5214872
1.5214949
1.5214946
1.5214867
1.5215045
1.5214937
1.5214942
1.5215043
1.5214843
1.5214827
1.521492
1.5214906
1.5215018
1.5214897
1.521501
1.5214913
1.5214682
1.5214742
1.5214737
1.5214676
1.5214632
1.5214656
1.5214713
1.5214692
1.5214813
1.5214739
1.521482
1.5214732
1.5214686
1.5214769
1.521471
1.5214787
1.5214245
1.5214289
1.5214277
1.5214232
1.5213957
1.52141
1.5214119
1.5213988
1.5214328
1.5214294
1.5214341
1.5214279
1.5213971
1.521402
1.5214126
1.5214159
1.5214604
1.5214545
1.521461
1.5214538
1.5214607
1.5214684
1.5214679
1.5214599
1.5214563
1.521452
1.5214584
1.5214498
1.5214581
1.5214658
1.5214557
1.5214638
1.5214348
1.5214387
1.5214372
1.5214332
1.5214168
1.5214184
1.5214002
1.5214037
1.5214437
1.5214395
1.5214453
1.5214376
1.5214018
1.521409
1.5214194
1.5214245
1.5214471
1.5214412
1.5214473
1.5214409
1.5214462
1.5214547
1.5214543
1.5214457
1.5214437
1.5214396
1.5214454
1.5214377
1.521444
1.5214524
1.5214422
1.5214506
1.5214323
1.5214383
1.5214383
1.5214322
1.5214311
1.5214369
1.5214353
1.5214294
1.521436
1.5214431
1.521443
1.5214358
1.5214346
1.5214415
1.5214399
1.5214328
1.5214087
1.5214125
1.5214123
1.5214086
1.5213918
1.5214003
1.5214017
1.5213936
1.5214115
1.5214157
1.5214153
1.5214112
1.5213922
1.5214018
1.5214041
1.521395
1.521415
1.5214189
1.5214182
1.5214143
1.5213934
1.5214042
1.5214056
1.5213953
1.5214241
1.5214231
1.5214187
1.5214177
1.5213936
1.5214059
1.5214093
1.5213976
1.5214685
1.5214619
1.5214692
1.5214609
1.5214677
1.5214783
1.5214778
1.5214667
1.5214574
1.5214654
1.5214584
1.521466
1.5214642
1.5214755
1.5214634
1.5214748
1.5214422
1.5214497
1.5214498
1.5214421
1.52144
1.5214473
1.5214462
1.5214387
1.5214558
1.5214467
1.5214559
1.5214466
1.5214523
1.5214442
1.5214533
1.521443
1.5214574
1.5214509
1.5214581
1.5214498
1.5214554
1.5214642
1.5214636
1.5214544
1.5214539
1.521447
1.5214547
1.521446
1.5214517
1.521461
1.5214507
1.5214603
1.5214534
1.521461
1.5214606
1.521453
1.5214506
1.5214581
1.5214495
1.5214572
1.5214704
1.5214699
1.5214592
1.5214585
1.5214552
1.5214562
1.5214674
1.5214664
1.5215214
1.5215457
1.5215312
1.5215532
1.5215389
1.521516
1.5215263
1.5214627
1.5214601
1.5214699
1.5214673
1.5214702
1.5214665
1.5214619
1.5214587
1.5214594
1.5214634
1.5214623
1.521458
1.5214489
1.5214503
1.5214554
1.5214542
1.5214659
1.5214642
1.5214671
1.5214628
1.5214541
1.5214583
1.5214556
1.5214597
1.5215263
1.5214614
1.5214637
1.52147
1.5214665
1.521464
1.5214604
1.5214675
1.5214694
1.5214681
1.5214659
1.5214595
1.5214623
1.5214579
1.5214609
1.5214709
1.5214695
1.5214693
1.5214676
1.5214601
1.5214617
1.5214642
1.5214629
1.5214416
1.5214407
1.5214497
1.5214491
1.5214505
1.5214578
1.5214568
1.5214516
1.5214306
1.5214296
1.5214397
1.5214407
1.5214419
1.5214406
1.5214494
1.5214482
1.5214283
1.5214277
1.5214391
1.5214386
1.5214285
1.5214279
1.5214153
1.5214149
1.5214765
1.5214752
1.5214794
1.52148
1.5214123
1.5214249
1.5213769
1.5213768
1.5214005
1.521401
1.5213952
1.5213948
1.5213706
1.5213703
1.5215143
1.5215084
1.5215065
1.5215122
1.5213686
1.521375
1.5213889
1.5213884
1.5214102
1.5214102
1.5214042
1.5214041
1.521381
1.5213809
1.5215111
1.5215056
1.5215069
1.5215125
1.5213789
1.5213865
1.5214116
1.521411
1.5214283
1.5214285
1.5214291
1.5214284
1.521443
1.5214427
1.5214231
1.5214053
1.5214235
1.5214047
1.5214388
1.5214237
1.5214229
1.5214381
1.5215059
1.5215014
1.5215025
1.5215072
1.5215027
1.5215039
1.5215087
1.5215074
1.5214206
1.5214015
1.5214203
1.5214015
1.5214359
1.5214203
1.5214202
1.521436
1.5214145
1.5213961
1.5214154
1.5213952
1.5214313
1.5214153
1.5214139
1.52143
1.5214461
1.5214352
1.521446
1.521435
1.5214446
1.5214545
1.5214547
1.5214445
1.5214288
1.5214402
1.5214305
1.5214416
1.5214401
1.5214504
1.5214384
1.5214489
1.5214648
1.5214593
1.5214654
1.5214584
1.5214705
1.5214636
1.5214627
1.5214701
1.5214545
1.5214614
1.5214556
1.5214623
1.5214678
1.5214602
1.5214591
1.5214671
1.5214523
1.521443
1.5214526
1.5214422
1.5214518
1.521451
1.5214605
1.5214601
1.521448
1.5214383
1.5214488
1.5214373
1.5214572
1.5214476
1.5214466
1.5214564
1.5214599
1.5214528
1.5214599
1.5214527
1.5214656
1.5214577
1.5214575
1.5214658
1.5214468
1.5214544
1.5214485
1.5214558
1.5214617
1.5214535
1.5214519
1.5214606
1.5214921
1.5214912
1.5214969
1.5214974
1.5214909
1.5214903
1.5214953
1.5214961
1.5214963
1.5214956
1.521501
1.521502
1.5215035
1.5214973
1.5214973
1.5215029
1.5214457
1.521438
1.5214463
1.521437
1.5214437
1.5214534
1.5214528
1.5214427
1.5214324
1.5214416
1.5214336
1.5214425
1.5214396
1.5214499
1.5214385
1.5214492
1.5214094
1.5214222
1.5214224
1.5214093
1.5214069
1.5214083
1.5214207
1.5214195
1.5214322
1.52142
1.5214319
1.52142
1.521417
1.521429
1.5214185
1.5214302
1.5214299
1.5214176
1.5214302
1.5214169
1.5214284
1.5214401
1.5214396
1.5214276
1.521425
1.5214126
1.5214259
1.5214114
1.5214237
1.5214361
1.5214225
1.5214352
1.5214295
1.5214381
1.5214383
1.5214296
1.5214277
1.521436
1.5214263
1.5214349
1.5214451
1.5214454
1.5214352
1.5214351
1.5214317
1.5214331
1.521443
1.5214419
1.5213716
1.5213717
1.5213934
1.5213938
1.5213925
1.5214109
1.5214112
1.5213926
1.5213716
1.5213709
1.521392
1.5213928
1.5213919
1.5213908
1.5214098
1.5214088
1.521401
1.5213793
1.521401
1.5213789
1.5214006
1.5214187
1.5214185
1.5214
1.5213953
1.5213731
1.5213959
1.5213726
1.521395
1.5214141
1.5213941
1.5214133
1.5213514
1.521351
1.5213785
1.5213788
1.5213727
1.5213727
1.5213439
1.5213438
1.5215066
1.5215085
1.5215146
1.5215133
1.5213498
1.5213426
1.521344
1.5213441
1.5213712
1.5213718
1.5213712
1.521371
1.5213444
1.5213445
1.5215096
1.5215032
1.5214996
1.521506
1.5213433
1.521343
1.5215101
1.5215048
1.5215028
1.5215085
1.5214968
1.5214999
1.5215049
1.5215019
1.5213526
1.521353
1.5213672
1.5213679
1.5213727
1.5213738
1.5213668
1.5213679
1.5214347
1.5214334
1.5213778
1.5213864
1.5213645
1.5213514
1.5213483
1.5213484
1.5213718
1.5213723
1.5213716
1.5213715
1.5213482
1.5213483
1.5214892
1.5214857
1.5214794
1.5214836
1.521347
1.5213473
1.5213723
1.5213723
1.5213914
1.5213913
1.5213908
1.5213906
1.5214061
1.5214062
1.52139
1.5213721
1.5213906
1.5213716
1.5214053
1.5213902
1.5213891
1.5214042
1.5214862
1.5214829
1.5214764
1.5214803
1.521374
1.5214329
1.5214316
1.5213795
1.521381
1.5213682
1.5213803
1.5213687
1.5213903
1.5213807
1.5213812
1.5213907
1.5213793
1.5213746
1.5213791
1.5213753
1.5213858
1.5213809
1.5213804
1.5213845
1.5215055
1.521499
1.5214971
1.5215039
1.521499
1.5214923
1.5214908
1.5214974
1.521487
1.5214887
1.5214949
1.5214931
1.5215008
1.5214943
1.5214921
1.5214982
1.5213685
1.5214294
1.5214288
1.5213731
1.5214671
1.5214734
1.5214782
1.5214724
1.5214827
1.5214788
1.5214724
1.5214766
1.5214309
1.5214306
1.5213703
1.5213765
1.5213976
1.5213903
1.5213972
1.5213906
1.5213967
1.5214023
1.5214027
1.5213971
1.521385
1.5213874
1.5213873
1.5213903
1.5213915
1.5213945
1.5213875
1.5213901
1.5214062
1.5214017
1.521406
1.521402
1.5214096
1.521405
1.5214051
1.5214097
1.5213897
1.5213912
1.5213953
1.5213969
1.5214001