/*--------------------------------*- C++ -*----------------------------------*\
  =========                 |
  \\      /  F ield         | OpenFOAM: The Open Source CFD Toolbox
   \\    /   O peration     | Website:  https://openfoam.org
    \\  /    A nd           | Version:  7
     \\/     M anipulation  |
\*---------------------------------------------------------------------------*/
FoamFile
{
    version     2.0;
    format      ascii;
    class       volScalarField;
    location    "2000";
    object      nut;
}
// * * * * * * * * * * * * * * * * * * * * * * * * * * * * * * * * * * * * * //

dimensions      [0 2 -1 0 0 0 0];

internalField   nonuniform List<scalar> 
33730
(
6.2311611e-90
2.7288232e-91
1.6449452e-89
2.4291821e-90
4.6803722e-91
1.1815989e-90
6.2600829e-91
1.9445701e-90
3.6289055e-91
1.7420998e-91
2.6339722e-91
2.8231079e-91
2.0963577e-91
2.3885109e-91
2.6480058e-91
3.1534088e-91
6.7638729e-90
8.2254305e-90
4.6175584e-91
5.8878676e-91
5.2174872e-90
1.2834516e-90
1.2420484e-90
4.4058986e-91
5.6252728e-91
5.6677048e-91
5.0126136e-91
2.8984473e-91
2.967527e-91
1.0955838e-90
1.3074023e-90
3.6375934e-91
4.0094933e-91
3.0324786e-91
1.7337288e-91
1.9076459e-91
2.4773637e-91
9.0667625e-92
1.2101168e-91
9.1073862e-92
1.1228074e-91
8.2100173e-92
1.6855984e-91
1.6992149e-91
1.9381786e-91
1.0251074e-91
1.0548578e-91
2.3647971e-91
2.1821187e-91
1.7505207e-91
1.9085667e-91
1.9339935e-91
2.1741165e-91
1.5626443e-91
1.2511321e-91
4.3060694e-91
5.7873646e-91
1.6546533e-91
5.5005424e-91
6.4049408e-91
1.8800808e-91
5.1363533e-91
5.7164815e-91
5.0397993e-90
4.4138794e-90
6.1387088e-91
6.2684392e-91
5.2659399e-90
5.0607589e-90
1.8103085e-91
2.612266e-91
2.6907477e-91
4.271373e-91
4.0288982e-91
5.300809e-91
5.2982178e-91
2.1217356e-90
2.2678708e-90
2.9178407e-91
5.0183328e-91
5.2914436e-91
2.8865819e-91
5.0130544e-91
5.6538342e-91
2.6142328e-91
2.8448249e-91
2.2426279e-91
2.3647709e-91
1.7598601e-91
1.7390526e-91
2.0604542e-91
2.2073365e-91
1.6068014e-91
1.5976593e-91
4.5924321e-91
5.2273515e-91
2.4143097e-91
2.6118636e-91
5.593614e-91
3.1150647e-91
5.8920371e-91
2.967821e-91
5.7419352e-92
6.2581871e-92
7.0130061e-92
7.3559996e-92
2.0036407e-91
2.0335712e-91
1.7258608e-91
1.8068535e-91
1.094593e-91
8.2867391e-92
9.1906506e-92
1.0958061e-91
1.2156235e-91
9.42058e-92
9.6243658e-92
8.4486076e-92
1.1901588e-91
1.0566831e-91
1.8654933e-91
1.647703e-91
1.6720017e-91
1.9600736e-91
6.2415133e-92
6.0197088e-92
6.4727273e-92
6.7761554e-92
6.6499174e-92
8.7394246e-92
8.6774293e-92
8.3738296e-92
8.3752727e-92
6.2509817e-92
6.038157e-92
6.5314326e-92
6.4233556e-92
6.5451829e-92
8.6853892e-92
8.4743398e-92
8.2571008e-92
8.4969958e-92
7.4856817e-92
7.3027903e-92
1.1914875e-91
1.1543125e-91
1.254731e-91
1.1642391e-91
1.2370338e-91
1.1768947e-91
1.2291449e-91
1.6438344e-91
1.5729138e-91
1.580486e-91
1.4702579e-91
1.6169906e-91
2.404969e-91
6.3501576e-92
5.5938014e-92
4.4186354e-92
4.3724711e-92
7.017534e-92
6.0816681e-92
4.6086452e-92
1.8021259e-91
1.7764719e-91
1.9243173e-91
1.7175448e-91
1.145022e-91
1.2156553e-91
1.2200233e-91
1.2855502e-91
1.596268e-91
1.7539398e-91
1.8421585e-91
1.9620851e-91
1.8988464e-91
1.8634143e-91
1.5744888e-91
1.2952904e-91
1.8421885e-91
1.953139e-91
1.3652962e-91
1.9397668e-91
1.9193678e-91
1.4969175e-91
2.6555775e-91
2.7103354e-91
4.3952921e-91
4.1062622e-91
4.4465078e-91
2.800036e-91
2.8037137e-91
4.536505e-91
5.3102973e-91
5.2610077e-91
2.1845787e-90
2.1593962e-90
4.9009691e-91
4.9830852e-91
1.9671566e-90
2.1815986e-90
2.7245488e-91
2.8875485e-91
4.5827343e-91
4.2001074e-91
2.7725061e-91
2.7923819e-91
4.2845694e-91
4.3839244e-91
5.16255e-91
2.175659e-90
2.0397921e-90
5.3190051e-91
5.0514481e-91
5.1502987e-91
2.0683575e-90
2.2072656e-90
2.4465959e-91
3.0008879e-91
2.9327438e-91
1.8241671e-91
1.8222074e-91
2.5621277e-91
2.6039286e-91
1.9515443e-91
2.0057522e-91
2.5663449e-91
2.4881633e-91
1.998992e-91
1.9931187e-91
1.7544008e-91
5.7109511e-91
1.8598156e-91
6.2209157e-91
1.8933045e-91
1.8088949e-91
6.0725946e-91
6.0897006e-91
1.5659938e-91
2.020935e-91
2.1544982e-91
1.5443193e-91
2.1466009e-91
2.087017e-91
1.7163068e-91
1.5884041e-91
2.0411118e-91
2.1989565e-91
1.6084558e-91
1.6127931e-91
2.3426415e-91
2.2919282e-91
1.7896931e-91
1.7571634e-91
2.1561332e-91
2.056687e-91
6.0718521e-92
6.0804532e-92
2.2429409e-91
2.2781261e-91
6.5282756e-92
6.297256e-92
2.1872745e-91
1.9967238e-91
5.919359e-92
5.8294049e-92
6.0619745e-92
2.2052971e-91
2.1717165e-91
6.0777647e-92
1.8060008e-91
1.9897336e-91
1.4715597e-91
1.4476872e-91
1.6016343e-91
2.0972352e-91
2.1656724e-91
1.5796466e-91
2.1540631e-91
2.2687831e-91
1.7652065e-91
1.6829181e-91
1.8641931e-91
2.2774495e-91
2.2435925e-91
1.7727471e-91
4.7240606e-92
4.0327391e-92
4.4776952e-92
4.3070985e-92
4.7710871e-92
4.386551e-92
5.8290205e-92
5.7415412e-92
6.6125441e-92
4.4985578e-92
4.8834015e-92
4.1710663e-92
3.6676854e-92
3.6558992e-92
4.1152576e-92
1.604475e-91
1.5360229e-91
1.3771528e-91
1.5203878e-91
1.4731602e-91
1.5327551e-91
1.5441358e-91
1.4550223e-91
1.1625834e-91
1.1745916e-91
1.2198606e-91
1.1736544e-91
1.137998e-91
1.2302218e-91
1.1700465e-91
1.1856467e-91
7.7178303e-92
8.2310493e-92
8.0644806e-92
7.7967536e-92
6.2826652e-92
5.867921e-92
6.4358107e-92
6.0698614e-92
6.4137225e-92
6.8467744e-92
6.6829572e-92
8.7434034e-92
8.3060723e-92
8.4681463e-92
8.4950361e-92
7.6481879e-92
8.4695842e-92
9.0829036e-92
8.8135583e-92
8.5378573e-92
6.8952487e-92
6.695832e-92
6.0858756e-92
6.4361256e-92
6.9437027e-92
6.4609481e-92
6.1010699e-92
6.386668e-92
6.8499151e-92
6.6594118e-92
7.2877446e-92
7.6107191e-92
8.6591454e-92
8.3845405e-92
8.4580611e-92
8.2558585e-92
2.4113438e-91
2.6742938e-91
6.1645423e-92
5.9154602e-92
4.6966254e-92
4.4916512e-92
6.3842275e-92
4.3555731e-92
5.5208584e-92
1.5125112e-91
1.4503239e-91
1.3318248e-91
1.4307057e-91
1.054174e-91
1.1031227e-91
1.0370111e-91
1.1157883e-91
1.2556505e-91
1.1896816e-91
1.1606569e-91
1.2247467e-91
1.6192036e-91
1.5954942e-91
1.5932713e-91
1.5303487e-91
4.5633724e-92
4.90243e-92
4.6568234e-92
5.2951121e-92
4.9321655e-92
4.4306763e-92
4.6345704e-92
4.6201761e-92
4.8870218e-92
4.772783e-92
6.2955507e-92
6.1405875e-92
6.7522788e-92
6.537196e-92
4.8378974e-92
4.7509056e-92
6.5228252e-92
6.4202555e-92
7.0759928e-92
6.7718019e-92
9.0441009e-92
9.2204388e-92
8.3836436e-92
8.462243e-92
8.8347199e-92
8.2347367e-92
9.4672549e-92
8.7381344e-92
9.9983481e-92
8.2256091e-92
1.000615e-91
9.7836665e-92
8.0221532e-92
1.0398701e-91
8.4951584e-92
4.5410887e-92
4.6770616e-92
4.4886645e-92
5.1135256e-92
4.9716826e-92
4.4949591e-92
4.7289185e-92
4.3609159e-92
5.0671856e-92
4.8972324e-92
6.5054828e-92
6.394643e-92
6.7397157e-92
6.4532377e-92
6.4378e-92
6.3293859e-92
6.9032114e-92
6.6763196e-92
4.3552873e-92
4.620171e-92
9.0865466e-92
8.4180156e-92
9.7192359e-92
8.8953687e-92
8.5483081e-92
7.9423126e-92
9.2841958e-92
8.5752463e-92
9.4803472e-92
7.7722529e-92
1.022833e-91
8.32543e-92
1.0076668e-91
8.2717016e-92
1.0622542e-91
8.6729578e-92
3.6329656e-92
3.6008731e-92
3.674161e-92
3.9614747e-92
3.6573385e-92
3.6660676e-92
4.0330641e-92
4.0649846e-92
9.8879726e-92
1.0581185e-91
8.6050329e-92
9.1247734e-92
9.5852519e-92
7.6605341e-92
1.006941e-91
8.015769e-92
1.014471e-91
8.8085212e-92
9.2522008e-92
9.780818e-92
7.3294691e-92
7.6770425e-92
1.0195615e-91
8.8241921e-92
1.0877154e-91
9.3365643e-92
9.548753e-92
8.3344564e-92
1.0330602e-91
8.9278295e-92
9.8191985e-92
1.0280907e-91
7.8240051e-92
8.1630818e-92
1.0355789e-91
9.3554777e-92
1.0975146e-91
9.8960901e-92
1.1238102e-91
8.2285813e-92
1.1366385e-91
8.6113277e-92
9.6598605e-92
8.8193356e-92
1.019567e-91
9.3181312e-92
1.0650086e-91
7.7165486e-92
1.0854826e-91
8.1658338e-92
9.3227991e-92
1.0124366e-91
1.0674481e-91
6.032964e-92
1.9757946e-92
3.6171081e-92
3.6408057e-92
1.9982794e-92
3.0405387e-92
2.6049052e-92
2.3027548e-92
2.3080129e-92
3.0961685e-92
3.028433e-92
2.7661321e-92
2.6989239e-92
2.7462418e-92
3.0655564e-92
3.2201367e-92
2.6350669e-92
2.9186744e-92
2.8769661e-92
2.2830926e-92
2.2577615e-92
2.9011983e-92
2.2173623e-92
2.3164534e-92
2.7395262e-92
2.7159436e-92
2.9349925e-92
2.6423938e-92
1.1953208e-91
1.1491158e-91
1.1205113e-91
1.1471679e-91
1.2701994e-91
1.3109129e-91
1.1751073e-91
1.2529663e-91
5.9266652e-92
6.0898592e-92
5.967158e-92
6.4592018e-92
6.0084185e-92
6.1551737e-92
6.3699706e-92
6.362976e-92
1.0675336e-91
1.135029e-91
1.1551458e-91
1.1988738e-91
1.2219935e-91
1.2563363e-91
1.2831765e-91
1.2950175e-91
3.7353515e-91
4.077311e-91
4.4167358e-91
1.3442793e-91
1.1476895e-91
2.5304358e-91
3.0888958e-91
3.051939e-91
2.7199696e-91
3.2237467e-91
3.2690414e-91
1.1885613e-91
2.6353235e-91
3.0565588e-91
3.2495347e-91
2.6664604e-91
3.1107669e-91
3.0197538e-91
1.251476e-91
1.8582063e-91
1.8324874e-91
1.8943258e-91
1.9225268e-91
2.6444174e-91
2.6438481e-91
1.9124947e-91
1.949711e-91
2.618104e-91
2.5033668e-91
1.9300282e-91
1.9551964e-91
1.7467563e-91
5.7592997e-91
1.7775882e-91
6.188086e-91
1.7796565e-91
6.1179739e-91
1.7247035e-91
6.1024943e-91
2.560266e-91
2.5689207e-91
1.8923394e-91
1.9380669e-91
2.5738586e-91
2.4637047e-91
1.9393246e-91
1.929447e-91
1.7103075e-91
1.7814604e-91
5.8978608e-91
5.3787825e-91
5.9745395e-91
6.0661611e-91
1.812244e-91
1.768244e-91
1.9403565e-91
1.8548648e-91
1.8626386e-91
1.867482e-91
2.5774284e-91
1.9879736e-91
1.9537315e-91
2.4740868e-91
1.8030556e-91
1.7764899e-91
5.6803484e-91
5.9554232e-91
1.7803778e-91
5.8359859e-91
5.8559224e-91
1.6917205e-91
2.6105135e-91
2.5891514e-91
1.9302195e-91
1.9803055e-91
2.5935781e-91
2.6105626e-91
1.9320376e-91
1.9732273e-91
2.6597415e-91
2.5487497e-91
1.9829936e-91
1.9560261e-91
1.767378e-91
1.8079637e-91
6.0889494e-91
5.7065051e-91
1.7351101e-91
6.0773215e-91
6.1405214e-91
1.8152426e-91
1.1992889e-91
1.2024584e-91
1.9432437e-91
1.5010666e-91
1.4892995e-91
1.9596175e-91
1.9516226e-91
1.9081435e-91
1.9866954e-91
1.6580025e-91
1.6359717e-91
1.990554e-91
1.8947172e-91
1.6247821e-91
1.8864501e-91
2.0564754e-91
1.6758747e-91
2.0220521e-91
1.9913456e-91
9.3773439e-92
9.684263e-92
9.7828948e-92
2.0281369e-91
2.0330695e-91
9.8093798e-92
9.5726203e-92
2.0054654e-91
9.7851617e-92
2.0303176e-91
1.9787439e-91
1.9797077e-91
9.5177602e-92
9.5706643e-92
5.9137255e-92
5.8268311e-92
5.9534262e-92
6.4094485e-92
8.0178728e-92
6.60345e-92
6.9333808e-92
8.3003672e-92
6.4432116e-92
5.7814919e-92
5.7379053e-92
6.2583519e-92
6.7055425e-92
6.9957389e-92
8.2588714e-92
8.0329747e-92
5.9224907e-92
5.9842612e-92
6.0241656e-92
6.0879277e-92
5.9295903e-92
5.8078357e-92
5.7573723e-92
5.8067309e-92
7.8709948e-92
6.5508696e-92
6.7149838e-92
8.2173433e-92
6.3529593e-92
6.5703104e-92
8.1384888e-92
8.0142437e-92
2.0821875e-91
2.0749603e-91
5.7187166e-92
5.840187e-92
2.0784822e-91
2.2077688e-91
6.0758568e-92
5.7898691e-92
2.0768885e-91
1.9941753e-91
5.8014499e-92
5.9460207e-92
2.0403084e-91
2.1409438e-91
5.9754034e-92
5.6815802e-92
2.1663475e-91
2.0623141e-91
5.9518439e-92
6.0408072e-92
2.2653911e-91
2.2675818e-91
6.3302537e-92
5.986485e-92
2.4546411e-91
2.4536823e-91
6.940305e-92
6.3653514e-92
2.1754956e-91
6.3169645e-92
6.3523188e-92
2.3146755e-91
9.3902646e-92
8.9174656e-92
9.2994479e-92
9.5384074e-92
8.6887502e-92
8.017344e-92
9.0463651e-92
9.1260683e-92
5.2497682e-92
1.7487375e-91
1.8846024e-91
5.3044443e-92
2.0977959e-91
2.0537119e-91
5.6820485e-92
5.3714913e-92
1.9931803e-91
2.1621917e-91
5.5889699e-92
5.7783948e-92
6.1729258e-92
2.255281e-91
2.2009398e-91
5.9913667e-92
2.3041127e-91
2.1704659e-91
6.2063194e-92
6.3166227e-92
2.4362517e-91
2.3667954e-91
6.6659897e-92
6.2427397e-92
2.2410689e-91
2.386685e-91
6.3793264e-92
6.3979358e-92
2.4594219e-91
2.3337315e-91
6.747158e-92
6.2655199e-92
2.6772901e-91
3.4870878e-92
3.7999931e-92
4.0420887e-92
3.6118589e-92
1.6609424e-91
1.6199785e-91
1.1577261e-91
1.1470348e-91
1.3281899e-91
1.3158025e-91
1.8810358e-91
1.8870702e-91
2.9523518e-92
3.3082761e-92
3.5380817e-92
3.1564758e-92
1.1798857e-91
1.023108e-91
8.7008981e-92
1.0327365e-91
8.5526865e-92
1.0449147e-91
8.6205121e-92
6.6713484e-92
6.8400281e-92
8.8006933e-92
9.9130912e-92
1.1718919e-91
9.7773497e-92
1.1777428e-91
2.8743182e-92
3.033869e-92
3.2331887e-92
3.0340287e-92
3.5495808e-92
3.4734202e-92
3.2675141e-92
3.3961026e-92
2.4001542e-92
2.7286115e-92
2.8539614e-92
2.5143148e-92
2.2770185e-92
2.2627539e-92
2.4120769e-92
2.3670625e-92
2.4128806e-92
2.510686e-92
2.433338e-92
2.4335774e-92
2.6562848e-92
2.8623027e-92
2.970792e-92
2.691532e-92
1.05727e-91
1.0867744e-91
9.6672675e-92
9.8247018e-92
9.7719437e-92
8.8460164e-92
1.0115069e-91
9.1394253e-92
1.0644857e-91
7.7236058e-92
1.0649441e-91
8.1249692e-92
1.1317334e-91
8.3922812e-92
1.1085263e-91
8.5737707e-92
1.0378694e-91
1.0223291e-91
7.5221736e-92
7.6427817e-92
9.9908819e-92
9.7993247e-92
9.0776118e-92
8.837528e-92
9.515766e-92
8.590767e-92
9.6984786e-92
8.6581118e-92
1.0760303e-91
1.0040675e-91
7.9657047e-92
7.7839547e-92
9.2766176e-92
7.3278775e-92
9.4976131e-92
7.3959948e-92
9.4943655e-92
9.8952063e-92
8.3014014e-92
8.5348399e-92
9.9959367e-92
9.9040166e-92
8.6258669e-92
8.4885636e-92
9.5323619e-92
9.2250118e-92
7.542537e-92
7.2866782e-92
9.3359271e-92
7.3476117e-92
9.6383564e-92
7.5291106e-92
1.0350497e-91
1.0716994e-91
8.9696584e-92
9.1406888e-92
9.7502177e-92
8.4382712e-92
1.0267843e-91
8.7802194e-92
9.8523053e-92
9.9832123e-92
7.8687869e-92
7.9134992e-92
8.7631528e-92
7.1016765e-92
9.3356358e-92
7.4920806e-92
8.4972667e-92
8.9595106e-92
7.7912229e-92
8.1020037e-92
8.4895068e-92
7.8132282e-92
9.2804745e-92
9.6279543e-92
7.5839533e-92
7.8066914e-92
6.2115274e-92
5.9987958e-92
6.6525803e-92
6.2270841e-92
4.2757409e-92
4.5113266e-92
4.3041557e-92
4.8307376e-92
4.5774779e-92
4.6550907e-92
4.7532319e-92
4.7239638e-92
5.1427437e-92
4.9904408e-92
4.5163167e-92
4.5821107e-92
4.4718674e-92
4.8520397e-92
4.8548928e-92
6.5074837e-92
6.4145481e-92
6.7069066e-92
6.5021422e-92
4.5008025e-92
4.927062e-92
6.7225248e-92
6.6357362e-92
6.9029471e-92
6.646412e-92
9.3719965e-92
8.7011853e-92
9.4976846e-92
8.7352752e-92
1.0011726e-91
8.2432792e-92
1.0194235e-91
8.292985e-92
8.8994437e-92
8.3442655e-92
9.1539782e-92
8.4986041e-92
1.0441384e-91
8.6251768e-92
1.0422358e-91
8.587677e-92
3.8105702e-92
3.6870328e-92
3.9847449e-92
4.2093403e-92
9.7831279e-92
7.9663907e-92
1.0278664e-91
8.2850404e-92
9.2046352e-92
9.577926e-92
8.5016926e-92
8.7117195e-92
8.8273603e-92
8.2125512e-92
9.34855e-92
8.6177643e-92
1.0077991e-91
1.0306359e-91
8.2739376e-92
8.3831003e-92
6.7273152e-92
6.5455968e-92
7.1677105e-92
6.7241286e-92
6.5786957e-92
6.3767381e-92
6.9867252e-92
6.6591538e-92
4.4959478e-92
4.6739508e-92
4.4626249e-92
4.8018401e-92
5.0068472e-92
4.6433453e-92
4.8799779e-92
4.6894213e-92
5.3611225e-92
5.0926068e-92
4.6375931e-92
4.8184026e-92
4.4181635e-92
4.4730726e-92
4.7263742e-92
4.8937316e-92
4.8394086e-92
4.2544098e-92
4.3835641e-92
4.5055468e-92
4.732655e-92
4.6521074e-92
6.1482935e-92
6.0890012e-92
6.4335118e-92
6.2534444e-92
4.5629456e-92
4.9143501e-92
6.3664571e-92
6.2879426e-92
6.4405583e-92
6.2029646e-92
4.0250526e-92
3.5851885e-92
3.62263e-92
4.1653291e-92
3.6336641e-92
3.5171574e-92
3.7022498e-92
4.0525646e-92
8.8573638e-92
8.1938029e-92
8.835178e-92
8.0855066e-92
9.8727767e-92
8.1224699e-92
9.6579805e-92
7.9150586e-92
8.4299081e-92
7.9032827e-92
8.8060816e-92
8.1597764e-92
9.4579289e-92
7.8245786e-92
9.7899914e-92
8.0107466e-92
5.3839241e-92
1.9816851e-92
3.8256634e-92
5.2685356e-92
4.0884955e-92
1.9884459e-92
1.9100454e-92
4.1192753e-92
2.4027154e-92
3.1175209e-92
2.3288304e-92
2.8974891e-92
2.7921208e-92
2.8990403e-92
3.0634703e-92
2.7932627e-92
2.855575e-92
3.1295301e-92
3.2702261e-92
2.7682049e-92
2.3548663e-92
2.9078474e-92
2.3448847e-92
3.0724026e-92
2.8988103e-92
3.1462778e-92
3.3321368e-92
2.7798406e-92
2.3068836e-92
2.8212687e-92
2.2982934e-92
2.6000256e-92
9.7151782e-92
8.7020194e-92
1.0102131e-91
8.9236266e-92
8.8427999e-92
8.1386533e-92
9.3705407e-92
8.6143646e-92
9.8766607e-92
9.9913049e-92
7.1226259e-92
7.539557e-92
1.0332069e-91
1.0107529e-91
7.6114907e-92
7.8107524e-92
8.6420261e-92
9.2810749e-92
7.484985e-92
7.9604819e-92
9.1746498e-92
7.2551618e-92
9.4156817e-92
7.4138973e-92
8.4275856e-92
6.6961253e-92
8.8678394e-92
7.0033461e-92
9.4759662e-92
9.9588993e-92
8.1789063e-92
8.4924822e-92
1.0548374e-91
1.0686846e-91
9.1674224e-92
9.2306951e-92
9.9357431e-92
1.0153817e-91
8.7066246e-92
8.7981542e-92
9.7527586e-92
9.7577556e-92
7.8082695e-92
7.7676065e-92
1.0177647e-91
1.0100925e-91
8.1124374e-92
8.0664085e-92
1.0624619e-91
9.7117537e-92
1.0713046e-91
9.8315905e-92
1.1786082e-91
8.7420391e-92
1.1348143e-91
8.8530715e-92
1.0211018e-91
9.441288e-92
1.0276489e-91
9.5199731e-92
1.1500755e-91
1.1196503e-91
8.3733011e-92
8.5241855e-92
1.805217e-91
1.8371784e-91
1.2973424e-91
1.3076985e-91
1.385663e-91
1.3753511e-91
1.9381187e-91
1.9327715e-91
3.3359519e-92
3.6291536e-92
3.9219126e-92
3.4788782e-92
1.2135448e-91
1.1759987e-91
1.7226759e-91
1.7327946e-91
1.2346348e-91
1.2326775e-91
1.3418772e-91
1.34565e-91
1.875052e-91
1.9156804e-91
3.631832e-92
3.6006385e-92
3.2262799e-92
3.2510984e-92
1.2010648e-91
1.0767285e-91
1.089949e-91
1.1047295e-91
9.2539049e-92
9.1133881e-92
9.2245357e-92
9.3903293e-92
7.1324519e-92
7.2586915e-92
1.0002546e-91
1.1869691e-91
9.8550806e-92
1.2012581e-91
7.7222966e-92
9.9607188e-92
1.0154971e-91
7.7548896e-92
3.4588132e-92
3.33815e-92
3.1207082e-92
3.2918021e-92
3.1968601e-92
3.1697181e-92
3.0497954e-92
3.06001e-92
9.9161464e-92
1.1762329e-91
9.7747183e-92
1.1927887e-91
7.6847421e-92
9.9210215e-92
1.0025081e-91
7.7046123e-92
1.0357286e-91
1.2282737e-91
1.0267985e-91
1.236817e-91
8.1439402e-92
1.0462543e-91
1.0582513e-91
8.1369646e-92
8.3863728e-92
7.1614084e-92
7.325933e-92
8.4709212e-92
8.4304215e-92
8.4146302e-92
7.2069393e-92
7.1721095e-92
5.7336962e-92
7.1290113e-92
5.7142149e-92
7.2572298e-92
7.1157279e-92
5.6562813e-92
7.1869059e-92
5.7402155e-92
7.312003e-92
8.1897016e-92
7.0348222e-92
8.3880073e-92
7.0384298e-92
5.651615e-92
5.6957775e-92
7.2725068e-92
7.5985933e-92
8.6766481e-92
7.3810856e-92
8.8487549e-92
7.3743639e-92
5.8947545e-92
7.5091255e-92
5.8903784e-92
6.282708e-92
5.5849239e-92
5.6517611e-92
6.435278e-92
4.640071e-92
5.7209537e-92
5.6687786e-92
4.6454735e-92
6.3562903e-92
6.2972185e-92
5.6195057e-92
5.5491768e-92
5.6150059e-92
6.2740701e-92
5.5821049e-92
6.3772308e-92
4.6314799e-92
5.6712309e-92
5.6810943e-92
4.6136793e-92
6.6202028e-92
5.8239307e-92
6.564593e-92
5.7844648e-92
4.7773511e-92
5.8553354e-92
5.8740478e-92
4.780784e-92
1.809315e-91
1.839703e-91
1.2956226e-91
1.3030007e-91
1.3019209e-91
1.290615e-91
1.8187261e-91
1.8091898e-91
3.37646e-92
3.684707e-92
3.8372412e-92
3.4033368e-92
1.1304746e-91
1.1540863e-91
1.7789923e-91
1.7611754e-91
1.2643017e-91
1.2597488e-91
1.3608048e-91
1.3539566e-91
1.9028169e-91
1.9169871e-91
3.3047922e-92
3.6751675e-92
3.7842376e-92
3.3790175e-92
1.1964104e-91
1.101183e-91
1.1753279e-91
1.187962e-91
9.7817969e-92
9.8632115e-92
1.0023538e-91
7.7133542e-92
7.7495997e-92
9.9438362e-92
1.1554299e-91
1.1555135e-91
9.6834501e-92
9.7099453e-92
9.877728e-92
9.8893078e-92
7.6932062e-92
7.6425153e-92
9.6788608e-92
1.1428703e-91
9.5513898e-92
1.1538588e-91
9.6903585e-92
7.5224522e-92
7.6228902e-92
9.7951164e-92
1.0236746e-91
1.2078339e-91
1.0108234e-91
1.2182086e-91
1.0217696e-91
7.9316201e-92
1.0407412e-91
7.9874471e-92
3.1615149e-92
3.3094276e-92
3.3731285e-92
3.1918146e-92
3.4189308e-92
3.4092348e-92
3.1845876e-92
3.2546763e-92
7.2130552e-92
8.3267249e-92
7.1135044e-92
8.4566399e-92
7.140922e-92
5.686915e-92
5.7550168e-92
7.2137953e-92
9.0230574e-92
7.6372848e-92
8.9444999e-92
7.6035474e-92
7.6440129e-92
6.0790448e-92
7.626246e-92
6.058469e-92
6.8202715e-92
7.756354e-92
6.6423074e-92
8.0000811e-92
6.6771293e-92
6.8262233e-92
5.3227699e-92
5.4153139e-92
7.2615793e-92
8.4593694e-92
7.1452143e-92
8.6073429e-92
5.686523e-92
7.1538372e-92
7.245881e-92
5.7122487e-92
5.3533891e-92
5.8865916e-92
5.2272356e-92
6.0474489e-92
5.3214524e-92
5.4223443e-92
4.3521568e-92
4.422151e-92
6.4067346e-92
5.5955901e-92
6.3117577e-92
5.5171531e-92
4.5504762e-92
5.5854594e-92
5.6361382e-92
4.5703385e-92
5.6083818e-92
6.2584402e-92
5.531803e-92
6.3758107e-92
4.5703772e-92
5.5958637e-92
5.6837939e-92
4.6083917e-92
6.7730742e-92
5.9479834e-92
6.749568e-92
5.933008e-92
4.9193783e-92
6.0246347e-92
6.0018137e-92
4.8982138e-92
2.4339962e-92
2.5353437e-92
2.4383178e-92
2.427442e-92
2.4675186e-92
2.3693466e-92
2.300412e-92
2.4139814e-92
2.4873899e-92
2.7206919e-92
2.8305319e-92
2.5374828e-92
2.6080025e-92
2.8451228e-92
2.9011552e-92
2.6059611e-92
2.4121791e-92
2.4741079e-92
2.3848883e-92
2.4221286e-92
2.3237441e-92
2.2987903e-92
2.2995609e-92
2.3001407e-92
2.7425375e-92
2.7508152e-92
2.4736931e-92
2.4555272e-92
2.5628697e-92
2.7807559e-92
2.9290566e-92
2.6278012e-92
4.4956948e-92
4.9764471e-92
4.4854612e-92
4.9759197e-92
5.1338892e-92
5.1720722e-92
4.5916554e-92
4.6233816e-92
4.5044324e-92
3.7156785e-92
4.50496e-92
3.7188875e-92
4.6448221e-92
3.82099e-92
3.8217665e-92
4.6303353e-92
4.0959637e-92
4.1114922e-92
3.747899e-92
3.7230218e-92
3.6974814e-92
3.0182427e-92
3.0400939e-92
3.7137044e-92
3.8141241e-92
4.2155504e-92
3.8007672e-92
4.2346086e-92
3.7991472e-92
3.791668e-92
3.0955455e-92
3.1036691e-92
4.490703e-92
4.9518572e-92
4.4587294e-92
4.9811681e-92
4.4782561e-92
3.6940215e-92
3.8531375e-92
3.491705e-92
3.6594725e-92
3.9782214e-92
4.0424519e-92
4.0133091e-92
3.6044763e-92
3.622496e-92
2.9031643e-92
3.440446e-92
2.8215596e-92
3.6298885e-92
3.5803981e-92
2.9307847e-92
3.5917669e-92
2.9242093e-92
4.884389e-92
4.9543725e-92
4.3942571e-92
4.4494573e-92
4.454501e-92
3.6800141e-92
4.4055787e-92
3.6366368e-92
4.7337213e-92
5.2915076e-92
4.7325723e-92
5.290638e-92
4.7642564e-92
3.9162068e-92
3.8989743e-92
4.733742e-92
4.3217019e-92
4.6720957e-92
4.2268959e-92
4.7867184e-92
4.2382697e-92
3.5020876e-92
3.577336e-92
4.3275984e-92
4.4162192e-92
4.9008907e-92
4.3694826e-92
4.9548916e-92
4.4071631e-92
3.6300716e-92
4.4280753e-92
3.6334626e-92
3.982236e-92
3.6122652e-92
3.6790482e-92
4.0555387e-92
4.3113011e-92
3.8809054e-92
4.3010202e-92
3.8544027e-92
2.9995832e-92
3.5889587e-92
2.9403372e-92
3.6489886e-92
3.8316871e-92
3.8891613e-92
3.173316e-92
3.1574111e-92
3.1256943e-92
2.9223882e-92
3.2008719e-92
2.9790827e-92
3.0691122e-92
2.7330543e-92
3.0243684e-92
2.6893291e-92
3.389764e-92
3.3832386e-92
3.131004e-92
3.1707671e-92
3.275859e-92
2.9166667e-92
3.2552659e-92
2.8642445e-92
3.3123045e-92
3.2130667e-92
3.3658756e-92
3.2764923e-92
3.7748218e-92
3.070568e-92
3.1401445e-92
3.739192e-92
3.5335393e-92
3.3899427e-92
3.6034661e-92
3.4964463e-92
4.0423177e-92
3.3572684e-92
4.0048904e-92
3.2957756e-92
3.014335e-92
3.1315236e-92
2.8436261e-92
2.9094346e-92
2.966189e-92
2.6371849e-92
2.9359073e-92
2.6245679e-92
3.1298689e-92
2.8969322e-92
2.949928e-92
3.1627549e-92
2.72757e-92
3.0219591e-92
2.6736573e-92
3.0575147e-92
3.2580715e-92
3.2737406e-92
3.1932352e-92
3.2133523e-92
3.7066319e-92
3.0548977e-92
3.7377211e-92
3.0208209e-92
3.3186651e-92
3.1784454e-92
3.3106376e-92
3.4165333e-92
3.1630196e-92
3.7422141e-92
3.071904e-92
3.8637656e-92
2.7600665e-92
3.1036565e-92
3.0946255e-92
2.7481838e-92
2.9992982e-92
3.2087679e-92
3.2385936e-92
3.0310635e-92
3.2880365e-92
3.0352043e-92
3.3177225e-92
5.7230269e-92
2.681554e-92
2.6622922e-92
7.6730763e-93
1.3590359e-92
1.380788e-92
7.6815758e-93
7.5284733e-93
7.465978e-93
1.3918976e-92
1.3491937e-92
7.5473569e-93
1.2195046e-92
1.8905659e-92
1.9632449e-92
2.6071303e-92
2.8536118e-92
2.2246544e-92
1.7868239e-92
2.7061625e-92
2.8274875e-92
1.7482093e-92
1.6342632e-92
1.5293264e-92
1.5201974e-92
1.5323255e-92
1.6197072e-92
1.6869355e-92
1.5054909e-92
1.7054457e-92
1.7340453e-92
1.7618054e-92
1.7563361e-92
1.748801e-92
1.7352823e-92
1.7854278e-92
1.7846818e-92
2.063497e-92
2.0607141e-92
1.8653426e-92
1.850935e-92
1.9196405e-92
2.0621906e-92
2.0671739e-92
1.9003184e-92
1.8449042e-92
2.0323557e-92
2.1230185e-92
1.9031543e-92
1.8057563e-92
1.7874104e-92
1.7288258e-92
1.7899482e-92
1.7504911e-92
1.8236859e-92
1.7766379e-92
1.8022392e-92
1.9234125e-92
1.9986933e-92
2.0373364e-92
1.869695e-92
1.8288336e-92
1.7963514e-92
2.8529745e-92
2.7611572e-92
2.0446265e-92
1.956621e-92
2.9789131e-92
2.8312465e-92
1.4981843e-92
1.6365576e-92
1.6664551e-92
1.4740064e-92
1.5466684e-92
1.6479582e-92
1.7017988e-92
1.5220693e-92
2.1420085e-92
1.7522293e-92
3.0159922e-92
3.0624651e-92
1.3903332e-92
1.5158724e-92
1.5850069e-92
1.3688054e-92
1.6009528e-92
1.7436411e-92
1.7898346e-92
1.537412e-92
1.8512951e-92
2.0810635e-92
2.0583975e-92
1.8516939e-92
1.7118407e-92
1.6925414e-92
1.700472e-92
1.7209872e-92
1.6584526e-92
1.6448003e-92
1.6604537e-92
1.6813881e-92
1.9115553e-92
2.0569286e-92
2.0464692e-92
1.8687635e-92
5.7647997e-92
6.316702e-92
5.9873431e-92
5.7798767e-92
5.7787054e-92
6.4153194e-92
6.0639143e-92
6.0734851e-92
6.3532143e-92
6.6851969e-92
6.9240114e-92
6.6752038e-92
6.149997e-92
6.4386221e-92
6.2800585e-92
6.3041421e-92
5.3275997e-92
5.7740815e-92
5.6709322e-92
5.651718e-92
5.5778916e-92
6.2245531e-92
6.0928186e-92
6.2245271e-92
6.3366464e-92
6.9175092e-92
6.6249978e-92
6.6748982e-92
6.5092056e-92
6.8721365e-92
6.9327462e-92
6.7088448e-92
3.5097559e-91
1.0954991e-91
1.3214989e-91
3.650597e-91
1.2305369e-91
1.1856211e-91
1.8952127e-91
3.6712646e-91
2.1660098e-91
1.6491617e-91
1.9046977e-91
1.9803387e-91
1.2098504e-91
1.230923e-91
1.5056402e-91
1.5424899e-91
2.2239005e-91
1.289894e-91
1.274663e-91
1.5407907e-91
1.594611e-91
1.2802317e-91
1.2435257e-91
2.0907773e-91
1.5760631e-91
1.5094605e-91
1.2266409e-91
1.2551005e-91
2.1510916e-91
1.5311854e-91
1.5411699e-91
1.9883289e-91
1.9678681e-91
1.9719526e-91
2.116424e-91
1.6339985e-91
1.6084878e-91
2.1229601e-91
1.9942268e-91
1.9109112e-91
2.1590619e-91
1.5965001e-91
1.6471806e-91
2.1671596e-91
2.0113553e-91
1.9830936e-91
2.2045896e-91
1.6278116e-91
1.6677778e-91
2.1103789e-91
2.1187827e-91
2.0322131e-91
2.1446443e-91
1.6490367e-91
1.6195222e-91
2.0539581e-91
2.03831e-91
9.4875019e-92
9.7376235e-92
2.0497519e-91
2.067079e-91
9.8567002e-92
9.8995252e-92
1.9651841e-91
1.9835313e-91
9.4429356e-92
9.5716323e-92
2.0136075e-91
1.9889692e-91
9.3803878e-92
9.6213791e-92
5.9144197e-92
5.9240815e-92
5.9234038e-92
6.5277005e-92
7.7732399e-92
6.6387538e-92
7.0120227e-92
8.0072494e-92
5.6235096e-92
5.70665e-92
6.5296528e-92
6.610408e-92
6.9284839e-92
7.0984994e-92
8.1978143e-92
7.9930381e-92
5.7372849e-92
5.7493891e-92
6.3700617e-92
6.1121744e-92
6.7182742e-92
6.7872991e-92
7.9044653e-92
7.9235061e-92
6.0472482e-92
5.4879933e-92
5.5199784e-92
6.0163925e-92
7.874618e-92
6.6101584e-92
6.3568892e-92
7.7349853e-92
2.0204395e-91
2.0139722e-91
9.3732419e-92
9.6152722e-92
2.0386868e-91
2.0556284e-91
9.867339e-92
9.8761393e-92
2.0142157e-91
1.9976369e-91
9.3617881e-92
9.5301863e-92
1.9741495e-91
9.5154927e-92
1.9754958e-91
9.5415789e-92
5.8436518e-92
5.8482641e-92
6.4192791e-92
5.7907133e-92
5.6086334e-92
5.7059639e-92
6.6262535e-92
6.3757063e-92
6.9185763e-92
7.9756758e-92
7.7235524e-92
6.8418696e-92
6.7838213e-92
6.3737776e-92
7.3777064e-92
7.711046e-92
6.777629e-92
6.9769312e-92
7.8891678e-92
7.7830388e-92
7.8861105e-92
6.7814886e-92
6.6241586e-92
7.6860263e-92
5.7239716e-92
5.7952187e-92
6.3795582e-92
6.0975552e-92
5.5060657e-92
5.5603743e-92
6.0689374e-92
5.8931633e-92
2.1123732e-91
2.164787e-91
2.137971e-91
2.0465723e-91
1.6645595e-91
1.6575472e-91
2.0531639e-91
1.9249158e-91
2.0853942e-91
1.9287375e-91
1.6325734e-91
1.670906e-91
2.1115911e-91
1.9286296e-91
2.1104613e-91
1.9174454e-91
1.6842071e-91
1.6299536e-91
1.9826925e-91
2.0061637e-91
1.9689831e-91
1.6150385e-91
1.660973e-91
2.0412777e-91
2.0118954e-91
2.0334279e-91
9.7394901e-92
9.5585424e-92
9.4685077e-92
1.949054e-91
1.9644804e-91
9.518573e-92
5.856814e-92
5.840104e-92
5.9430412e-92
6.0240263e-92
5.790497e-92
5.8523344e-92
5.9770914e-92
6.1550019e-92
7.4794139e-92
6.3708097e-92
6.652101e-92
7.7144637e-92
7.7476499e-92
6.6905763e-92
6.4595014e-92
7.6151758e-92
5.8610368e-92
5.8864292e-92
5.9699689e-92
5.8471358e-92
7.8128661e-92
6.4061369e-92
6.4894256e-92
7.7809977e-92
7.7940054e-92
6.5520158e-92
6.4255958e-92
7.7355912e-92
5.63337e-92
5.6420875e-92
5.8742532e-92
5.7449001e-92
9.5032536e-92
1.9817478e-91
2.0244134e-91
9.7898717e-92
9.9520493e-92
2.065674e-91
2.0645511e-91
9.994288e-92
2.0361615e-91
1.9893463e-91
9.3753671e-92
9.6422685e-92
2.0895591e-91
2.0468794e-91
9.9196199e-92
9.8584155e-92
9.5814468e-92
2.0404944e-91
2.0411618e-91
9.7320917e-92
2.0279873e-91
2.0201411e-91
9.6031957e-92
9.6992258e-92
5.9092607e-92
5.851503e-92
5.885013e-92
6.4331635e-92
5.6455604e-92
5.7797408e-92
6.5744672e-92
6.3687181e-92
6.8577121e-92
8.1608339e-92
7.8463974e-92
6.7226807e-92
7.6206308e-92
6.4411919e-92
6.8264147e-92
7.9698231e-92
5.5587315e-92
5.5405584e-92
6.1701511e-92
6.1805401e-92
6.6702635e-92
6.8238102e-92
7.9273648e-92
7.8987097e-92
7.9879977e-92
6.6274805e-92
6.4012966e-92
7.8009127e-92
5.7769816e-92
5.7962542e-92
6.4316124e-92
6.1359357e-92
1.7610599e-91
1.7731241e-91
1.833119e-91
1.794165e-91
2.6413261e-91
1.2980694e-91
1.3244472e-91
1.111342e-91
1.132773e-91
1.273811e-91
1.1741417e-91
1.1162495e-91
1.2796039e-91
1.1232725e-91
1.1221181e-91
1.2474184e-91
1.2313085e-91
2.6394393e-91
1.2946219e-91
8.8217956e-92
1.2807464e-91
8.7752837e-92
1.2918667e-91
1.4583191e-91
1.3829897e-91
1.4235089e-91
1.4459722e-91
1.3770159e-91
1.2648829e-91
1.4426406e-91
8.9316325e-92
1.3430013e-91
8.9644725e-92
1.4558136e-91
1.4947635e-91
8.814546e-92
9.2076249e-92
8.9869401e-92
9.1745599e-92
9.0514242e-92
9.2856593e-92
8.7920642e-92
8.9754242e-92
2.4613445e-92
2.4408261e-92
1.4973241e-92
1.5505098e-92
1.6478091e-92
1.1982923e-92
1.0511328e-92
1.7049918e-92
1.6025395e-92
2.4432237e-92
2.4530233e-92
1.5863174e-92
9.1956196e-93
9.5172377e-93
1.7004997e-92
1.7207301e-92
1.6008766e-92
2.4752301e-92
2.4469574e-92
1.6379866e-92
1.6228317e-92
2.3875414e-92
2.3919224e-92
1.6000806e-92
1.6858912e-92
9.6211786e-93
8.4134156e-93
1.7978727e-92
8.4875507e-93
8.2912557e-93
1.7440135e-92
1.7472562e-92
2.788125e-91
7.3408662e-92
8.7948034e-92
8.3618807e-92
8.9187551e-92
8.9850058e-92
8.9963494e-92
8.4113281e-92
8.0866246e-92
8.5440683e-92
8.7803746e-92
8.2765833e-92
8.9224969e-92
8.9428625e-92
9.4789115e-92
9.1102736e-92
8.8858005e-92