/*--------------------------------*- C++ -*----------------------------------*\
  =========                 |
  \\      /  F ield         | OpenFOAM: The Open Source CFD Toolbox
   \\    /   O peration     | Website:  https://openfoam.org
    \\  /    A nd           | Version:  7
     \\/     M anipulation  |
\*---------------------------------------------------------------------------*/
FoamFile
{
    version     2.0;
    format      ascii;
    class       volScalarField;
    location    "2000";
    object      omega;
}
// * * * * * * * * * * * * * * * * * * * * * * * * * * * * * * * * * * * * * //

dimensions      [0 0 -1 0 0 0 0];

internalField   nonuniform List<scalar> 
33730
(
2335.4489
958.50205
4576.9033
4247.7483
2028.3335
8071.9047
906.98111
4197.0299
910.07097
786.11231
863.13893
952.03258
2213.5497
943.68801
1295.3004
1299.7597
9318.581
9392.4622
1968.4719
4496.5
18682.45
7797.738
8007.2501
1992.8258
1958.1233
14001.817
13637.721
4571.5111
4608.3599
7655.3847
7952.9164
1933.475
1959.55
859.92951
783.85868
789.53965
855.50287
1484.4518
1652.7811
1470.9009
1671.2609
685.08642
1974.6432
1988.4691
2022.6449
613.31906
616.66318
2179.3808
2208.4117
5097.4085
5171.4546
2115.0393
2163.4133
759.13074
756.41366
1978.7768
2024.1105
759.99131
2029.3615
2003.7564
755.67805
4493.4962
4579.186
18632.919
18360.684
4602.0324
4553.4822
18589.604
18745.776
2118.7608
3492.4813
3464.4803
6602.5899
6659.9515
12982.842
12913.586
32537.202
32892.995
4447.9348
13388.324
13357.272
4471.7566
13586.17
13973.693
4570.0501
4607.4044
22812.744
23194.39
8401.1599
8564.8545
22140.072
22677.685
8230.2905
8296.3248
12848.344
13314.068
4300.9939
4349.329
13657.873
4483.9739
13640.235
4507.1689
3133.9352
3474.07
1255.0463
1111.6631
2023.6071
1989.9407
1975.0652
1998.5295
1622.3557
1452.2635
1474.5552
1644.3383
1683.8586
1499.74
1488.0197
688.30949
1659.5967
615.95136
1940.9658
1916.3007
1957.8515
1971.6522
3162.2617
3166.8463
3513.5097
1253.0677
3508.5202
4194.5754
4167.2812
4377.3231
4371.09
3194.3244
3165.7126
3534.2346
3520.9386
1238.1288
4168.6573
4145.3521
4343.4787
4357.4315
1092.091
1107.8823
4971.0122
4911.8437
4989.4583
4863.9733
4976.6906
4927.644
4895.9953
5372.36
4888.7147
5300.7059
4848.9208
5371.8674
502.32383
551.61849
830.34879
950.2713
934.76493
815.08571
835.77397
953.31292
5054.8833
5019.121
5191.5582
5124.6291
9022.8855
9138.0247
9227.9913
9445.9147
4798.731
4899.8911
5032.0623
5092.5049
645.52096
645.93886
783.60336
776.15397
2131.6599
2188.1868
783.79535
2194.5761
2161.8297
777.9439
3490.6162
3488.8975
6613.5397
6629.5783
6765.4325
3566.1118
3572.9648
6732.7081
13083.705
12984.188
32712.978
32493.353
12896.707
12842.405
31963.983
32386.981
3558.9632
3594.9012
6812.7225
6734.1751
3539.2303
3537.229
6741.6526
6676.7952
12912.041
32787.122
32213.864
13093.919
13078.428
13118.948
32702.698
32712.336
2209.1108
3969.0305
3990.268
7257.1803
7319.4842
12376.488
12444.803
18378.888
18546.153
12381.684
12280.862
18494.01
18264.919
28038.222
49318.222
28736.253
49927.049
28757.969
28287.256
50078.033
49754.178
8169.9231
21867.393
22301.948
8175.6411
22162.089
21793.237
8162.7531
8159.546
21942.524
22552.376
8291.165
8313.7909
22993.88
22863.902
8478.0194
8561.4064
40852.277
39935.205
12304.28
12391.474
40729.513
41213.504
12580.247
12561.494
39378.211
38474.344
12066.809
12059.334
12257.408
40330.002
39905.695
12204.822
20524.913
21374.322
7731.4385
7796.4419
7988.5186
21749.898
21941.465
8084.9544
22268.503
22600.04
8279.1988
8246.0502
8283.1133
22443.809
22196.254
8305.0613
2783.9793
6943.4916
7295.3817
2711.7867
6142.9891
5842.3108
8086.8129
8242.6226
8557.4676
2545.0611
2603.1613
2222.0732
2041.0792
2064.3094
2256.2845
5413.7522
5343.1932
4879.7916
4912.5752
4771.8649
5276.3594
5228.0057
4788.0793
4792.9726
4859.2805
4920.265
4820.5843
4907.165
5025.7772
4975.9604
4936.0857
4119.3599
3994.473
3940.7841
4157.9493
3366.6619
3043.8284
3152.8969
3115.8158
3461.693
1247.6286
3491.2212
4145.9116
4281.8771
4086.4707
4325.7249
1113.8427
4394.7876
4231.8785
4202.9147
4408.7234
3573.3513
3568.6861
3222.1377
3231.6414
1268.176
3202.1215
3141.8687
3471.3503
1259.0536
3516.9288
1120.7245
1117.1878
4156.0181
4322.5915
4091.5822
4282.5344
502.97621
502.23265
553.37852
842.89554
959.95206
958.75716
836.15854
958.17137
839.29397
5101.6436
4993.596
4569.1441
4631.0931
4661.5577
4650.4932
4591.9104
4742.4051
4937.1188
4859.2138
4795.6622
4842.5367
5310.6942
4818.4671
5233.8417
4782.5367
7257.4771
7467.2345
2713.0154
6299.5539
6100.1607
7158.2464
7269.7953
2736.1354
6103.7213
6045.9831
8314.3823
8462.6238
8524.7288
8655.5045
2534.5332
2559.687
8471.211
8628.2532
8741.7773
8882.6951
9605.4728
9680.3082
9453.4484
9506.9817
9524.3683
9395.4679
9793.3882
9610.3424
10180.054
9780.7683
10258.053
10112.824
9746.0257
10382.222
9944.0351
7344.3348
7386.3047
2746.1085
6257.0836
6196.9127
7304.0128
7448.4791
2726.855
6295.3362
6176.7647
8560.9978
8717.5294
8623.1735
8765.1168
8494.1846
8657.6644
8715.2678
8853.7699
2540.4787
2568.6751
9504.543
9355.0038
9821.8537
9641.9229
9289.5854
9151.7671
9564.2984
9374.6379
9831.0207
9476.5712
10119.059
9690.5878
10072.883
9689.1104
10423.72
9996.83
2037.1795
2009.6987
2206.3251
2227.6038
2013.1273
2051.3591
2235.5705
2201.0166
10393.402
10635.834
9989.921
10160.121
10582.259
9937.1344
10792.881
10073.531
10433.96
10001.485
10258.461
10500.097
9630.7997
9791.8971
10335.714
9916.4133
10705.405
10230.833
10092.544
9705.6169
10358.658
9894.536
10503.21
10875.481
9846.2361
10145.933
10291.426
9517.7161
10636.907
9774.6754
9835.1133
8893.9465
10123.523
9088.9869
10047.324
9305.2697
10250.917
9433.8298
9605.4698
8704.5499
9765.5127
8787.9985
9608.2482
10384.598
10556.341
546.24078
731.90704
617.05913
614.3099
724.43483
1189.979
1234.5318
1395.1669
1346.7956
1549.3568
1598.7529
1788.5263
1744.1768
1740.1551
1539.4729
1558.7553
1762.0762
1185.6816
1174.8316
1334.8087
1348.7468
1240.6738
1393.6565
1380.7775
1778.5715
1595.516
1590.3788
1785.4721
9010.5805
9010.0675
9004.8451
9025.2591
9325.5136
9435.3362
9114.2522
9153.1627
12502.959
12574.133
12809.56
12728.385
12855.141
12948.265
13168.305
13096.789
8475.1204
8587.9275
8791.8131
8935.9246
9102.4324
9066.7873
9130.1448
9170.4704
633.4195
632.95433
607.59278
771.47774
764.47702
2221.5666
3985.3802
4001.5859
2285.873
4084.5888
4089.2642
773.45923
2288.4618
4052.8695
4122.8239
2257.1232
4052.0663
4049.969
765.49437
7272.4884
7285.6571
7442.3309
7397.6998
12495.222
12548.458
18450.46
18585.758
12453.646
12348.715
18231.598
18481.731
28544.171
49345.44
28737.969
49572.76
28594.594
49382.405
28185.502
49008.294
12278.263
12354.561
18199.016
18370.788
12298.918
12217.875
18309.478
18106.4
27948.979
28339.873
48561.394
47990.909
49059.883
48795.618
28516.375
28136.198
7486.0753
7386.6297
7415.0847
7338.3949
12394.183
18439.359
18183.2
12277.918
28711.465
28710.072
49269.691
49391.929
28328.631
49105.317
48946.436
27816.523
12545.647
12491.787
18489.19
18607.57
12453.548
12528.662
18445.852
18611.039
12581.481
12504.493
18611.1
18412.373
28529.967
28723.942
49524.215
49261.584
28273.815
49725.967
49354.676
28784.237
3926.2589
3961.7557
2208.907
4621.9894
4578.3499
6082.5052
6032.6548
10173.284
10125.986
15669.976
15407.361
6121.1584
6104.9227
15555.722
10192.832
10289.243
15679.106
18874.695
18748.652
23107.08
23370.123
23462.622
18997.717
19037.928
23413.059
23362.926
18940.848
23515.709
19021.335
18687.566
18716.155
23130.538
23048.557
27582.643
27282.087
41710.855
42341.246
55470.641
67335.088
67927.482
55462.11
42871.168
27710.393
27559.961
41938.795
67333.703
68633.873
55509.857
55408.178
42063.815
27566.723
27709.878
42283.022
42095.954
27348.847
27173.431
41442.542
55122.137
67656.887
67625.594
55824.66
66667.215
67669.993
55588.636
55703.783
39010.011
38448.784
11920.507
11902.138
39414.2
39987.074
12076.388
12023.319
39580.265
39504.089
12055.983
11976.853
37989.817
39050.62
11903.294
11861.304
38918.462
38202.532
12025.996
12057.766
39517.368
40200.33
12293.602
12188.32
41003.375
39997.526
12592.346
12451.313
40236.631
12487.48
12448.642
40637.34
42680.205
41874.109
42452.503
43242.689
40853.541
39459.146
42164.734
41701.086
11191.723
35576.502
36555.059
11233.837
37670.516
38039.939
11535.353
11452.759
38316.752
38871.99
11757.335
11726.061
11879.888
39186.486
38501.84
11835.069
39578.326
38993.075
12111.004
12104.275
39670.78
40123.335
12199.554
12120.802
39668.596
39976.261
12102.963
12187.378
39706.47
38680.811
12102.202
12034.869
477.56842
5627.3488
5561.3915
5646.0078
5720.0255
19396.178
19454.146
17635.665
17704.463
18980.134
19069.282
20902.9
20934.982
5217.8992
5169.5146
5414.8684
5449.1872
20088.243
18689.646
16461.778
17910.023
16327.738
18045.483
16702.925
15436.784
15605.748
16899.114
17756.601
19325.901
17596.537
19454.407
4728.9187
4673.7584
4867.0782
4915.3005
5012.9137
4978.1102
5060.7777
5114.6709
4263.5841
4181.5084
4323.8906
4407.5427
3775.7595
3634.8407
3716.6828
3873.3627
3778.6895
3808.3063
3967.9703
3948.7081
4516.3178
4404.3372
4397.3313
4526.7555
10430.025
10620.866
9640.8099
9769.9274
10188.812
9432.2754
10262.93
9450.0335
9737.9738
8807.9581
9785.6343
8805.0625
9961.7185
8992.334
10119.269
9083.3525
9615.5156
9648.7655
8691.8779
8679.2596
10109.13
10087.909
9329.4626
9298.3693
10059.693
9307.006
10109.74
9312.3263
9636.9758
9633.5695
8693.1728
8671.8914
10283.96
9637.5796
10345.786
9650.1322
10134.561
10206.878
9725.7365
9748.7406
10250.388
10175.417
9802.4363
9725.4675
10364.818
10315.283
9683.3196
9628.0748
10417.307
9772.7572
10514.888
9805.0584
10488.982
10687.471
10062.098
10218.898
10266.671
9860.3994
10389.639
9914.3499
10653.898
10855.149
9983.5524
10132.433
9313.9964
8952.9659
9548.7991
9121.9616
9072.3484
9348.715
8926.7383
9156.1218
9031.0323
8839.3608
9608.0122
9897.0988
9236.8399
9468.2428
8094.6194
8241.6141
8332.2629
8451.2594
6926.8292
7095.172
2620.6388
5962.8301
5800.6331
7273.1173
7239.3477
2710.6051
6098.4873
6091.4382
7216.0785
7141.7075
2692.5199
6023.0276
6093.7374
8390.4069
8548.9959
8354.1751
8481.5025
2515.8342
2539.0075
8502.7433
8663.5792
8477.2947
8615.6555
9546.0317
9388.3016
9522.4945
9348.6096
9956.117
9596.8523
9917.3504
9507.0678
9394.5021
9263.1063
9363.0404
9186.9607
10104.291
9706.6814
10101.821
9692.6738
2030.8845
2015.0128
2197.4661
2209.2562
10027.877
9652.5297
10179.286
9731.4344
9661.82
9821.2878
9513.2964
9646.2394
9477.189
9338.2756
9637.9127
9438.659
10235.255
10414.926
9841.3402
9988.921
8626.8281
8781.6589
8760.1695
8895.9877
8475.9328
8630.0687
8610.7433
8729.2742
7296.1055
7357.4719
2788.0638
6173.4633
6219.0021
7414.4373
7508.2731
2780.8173
6378.9563
6277.3695
2610.095
2600.9438
7281.1664
7221.0809
2767.9225
6119.754
6138.5232
7162.7341
7186.7817
2723.1559
6080.6977
6056.8058
8337.8303
8486.1866
8407.5188
8529.3754
2556.2612
2609.4921
8497.6582
8637.8211
8427.4639
8542.6302
2276.2959
2082.6155
2065.1249
2259.136
2095.1605
2050.4404
2232.2549
2273.3074
9512.6306
9335.3207
9415.67
9222.7689
10040.068
9625.8129
9939.3288
9524.0345
9337.1978
9193.2844
9422.6551
9236.4654
9888.9436
9515.3967
9969.6061
9548.097
551.64194
744.55902
623.22481
550.90577
619.31165
738.35852
740.33547
619.77801
1373.3814
1220.6211
1381.769
1226.778
1757.3176
1574.2534
1585.8007
1768.8259
1808.4958
1607.9723
1581.5749
1785.4877
1401.658
1241.7491
1374.4557
1217.6116
1783.1399
1590.8972
1621.6217
1817.2559
1385.5229
1228.7295
1410.2649
1246.1497
9804.3698
9066.4093
10050.66
9229.7084
9424.5803
8734.2582
9619.3934
8847.7933
9023.4368
9171.3266
8182.9182
8253.1749
9378.0278
9575.0884
8474.1009
8590.1228
9518.2648
9749.5029
9127.5832
9290.563
10006.177
9376.3038
10284.874
9575.6628
9637.9985
9036.8988
9859.4465
9181.0284
9850.8556
10138.75
9447.7885
9670.302
10347.594
10376.688
9911.9223
9922.5911
10227.71
10168.143
9828.3984
9726.9152
10402.384
10335.999
9759.133
9656.7955
10490.892
10544.814
9813.137
9837.1511
10254.261
9460.1462
10318.886
9489.9225
9770.7567
8810.4785
9833.4661
8829.2898
10192.947
9419.7105
10129.184
9332.7061
9727.4564
9674.7829
8787.2155
8708.837
20518.639
20534.831
18708.7
18691.002
19122.473
19130.075
20927.438
20919.931
5434.0988
5372.5419
5499.5538
5572.3887
20063.308
19707.902
19662.64
19723.625
17958.765
17998.404
18876.966
18884.319
20752.588
20752.383
5364.4076
5333.0774
5396.2062
5414.6929
19923.519
18943.11
18238.99
18349.822
16770.196
16683.929
17063.409
17216.298
15806.998
15921.706
17565.013
19215.284
17507.521
19260.996
16576.156
17958.287
18042.759
16638.14
4877.1225
4818.3173
4893.584
4974.0858
4792.1863
4778.9422
4863.6477
4865.934
17395.129
19025.666
17374.029
19063.334
16463.503
17801.694
17871.642
16494.868
17869.618
19475.268
17814.6
19513.078
16940.387
18289.781
18366.851
17000.816
17168.957
16217.144
16223.077
17197.475
17085.911
17071.533
16141.447
16143.289
15813.645
16739.383
15834.204
16753.475
16663.961
15758.519
16682.187
15789.695
15985.502
16863.179
15983.656
16920.849
16508.127
15671.337
15630.029
16517.677
16657.131
17503.962
16528.779
17653.045
17078.041
16147.173
17212.964
16253.022
16344.915
15693.412
15659.127
16331.869
15484.701
16232.518
16253.736
15449.224
16319.111
16269.271
15675.388
15613.873
15524.814
16185.235
15584.587
16156.919
15423.414
16146.922
16103.63
15357.233
16802.023
16106.347
16682.462
16010.3
15800.707
16593.768
16703.288
15886.467
20708.171
20703.39
18915.791
18891.413
18694.597
18701.183
20436.456
20415.694
5525.2084
5459.7712
5490.7324
5557.7852
19576.996
19869.866
20211.841
20224.246
18510.762
18488.927
19267.461
19317.529
21119.963
21138.275
5501.1597
5433.7694
5522.2565
5582.6084
20268.051
19402.57
19250.802
19262.325
17598.558
17597.766
18074.425
16695.691
16699.383
18043.534
19046.377
19059.589
17459.568
17430.953
17898.727
17924.355
16576.686
16599.911
17270.282
18829.435
17256.713
18861.808
17680.734
16403.143
16428.709
17742.376
18028.475
19619.566
17920.598
19707.037
18391.068
17002.851
18529.159
17128.233
4949.3487
4865.5691
4926.1016
5004.5902
4895.9408
4894.838
4974.8944
4985.411
16017.73
16916.838
15977.668
16986.413
16487.975
15604.769
15631.396
16554.702
17518.056
16552.383
17440.499
16488.954
17047.151
16137.711
17121.195
16192.951
15476.713
16219.19
15352.38
16386.136
15824.54
15988.814
15015.885
15128.7
16136.109
17042.946
16063.26
17128.22
15667.598
16584.578
16669.743
15728.114
15015.569
15485.64
14908.112
15636.229
15423.922
15569.503
14750.353
14851.034
16255.555
15569.09
16175.798
15511.154
15302.898
16068.021
16141.39
15352.278
15486.634
16105.89
15470.229
16154.761
15279.381
16019.829
16059.405
15288.907
16751.724
16075.517
16685.462
16028.918
15851.369
16624.364
16680.791
15887.323
3726.4129
3759.0621
3915.2101
3885.6459
3758.8158
3725.2059
3878.1102
3909.8746
4416.2358
4304.9469
4356.5784
4458.0995
4449.8834
4343.0837
4320.2297
4435.3708
3682.8724
3714.6176
3868.3674
3849.0485
3693.3654
3686.9722
3837.584
3835.3166
4252.9876
4244.6231
4349.513
4344.3725
4382.0239
4283.1793
4283.8962
4405.8458
15362.234
15970.571
15429.357
15923.573
16364.795
16465.163
15767.842
15843.645
16009.171
15323.031
15964.702
15259.789
16457.951
15630.837
15695.217
16370.847
15832.466
15798.761
15145.661
15186.646
15573.913
14580.189
14557.436
15569.606
15536.381
16168.269
15488.598
16245.092
15911.621
15957.55
14867.917
14910.637
15423.031
16025.528
15444.903
16010.42
16022.195
15307.139
15091.255
14482.668
14573.68
15236.583
15675.684
15628.813
14961.067
14975.619
13973.909
14823.887
13895.112
14950.175
15364.537
14367.752
15347.863
14340.183
15812.723
15853.873
15251.323
15272.632
15873.024
15150.222
15815.977
15120.048
15875.44
16428.84
15839.874
16478.796
16449.415
15705.721
15728.222
16493.022
14852.514
15255.228
14747.582
15397.063
15279.632
14637.573
14738.102
15426.687
15309.956
15844.188
15265.398
15910.5
15839.373
15124.663
15894.543
15154.323
15619.972
14971.051
15021.324
15688.156
16245.268
15553.896
16271.042
15549.308
14441.061
15353.692
14379.425
15443.535
15955.696
15967.058
14917.032
14924.119
14594.863
13846.53
14683.771
13898.654
14136.901
13222.541
14065.53
13192.933
15184.664
15135.531
14321.056
14369.748
14607.479
13638.588
14534.268
13586.071
13371.268
12679.653
13417.177
12697.907
12905.742
12242.24
12273.394
12870.528
13759.932
13021.086
13829.12
13067.838
13257.581
12508.881
13207.348
12534.128
14082.244
14193.755
13388.124
13456.339
13693.013
12833.12
13607.869
12796.117
14543.588
13774.391
13826.791
14608.354
13145.03
13987.11
13098.104
14059.122
12977.33
13028.914
12325.172
12344.694
12547.495
11927.535
12511.985
11896.982
13273.187
12574.693
12610.099
13334.294
12115.9
12767.071
12154.899
12804.672
13329.962
14209.742
14226.964
13319.617
13991.911
14769.456
14777.614
13989.908
15076.789
14256.988
15148.891
541.51917
695.78704
687.95724
1092.3773
853.70788
841.7358
1063.1807
1050.7479
1056.3224
828.34986
832.59691
1104.3842
864.80635
1567.6247
1574.1866
1784.673
1764.0213
1673.852
1709.3386
1919.7879
1874.935
2125.1275
2173.2299
2385.4307
2344.8114
2282.316
2043.3208
2016.0877
2249.4079
2548.0333
2586.864
2808.3752
2764.6442
2636.6864
2664.6436
2853.123
2834.6616
3168.6541
3172.739
3333.6685
3329.4795
3338.2023
3153.6178
3112.3925
3302.2918
3342.5747
3159.9239
3165.8499
3359.531
2798.393
2569.5868
2564.7972
2799.5326
2601.9918
2591.9773
2825.2174
2814.2389
3376.546
3189.0636
3164.6095
3345.8046
1569.6931
1562.5749
1774.8007
1793.2895
1534.9843
1549.3493
1763.2982
1740.851
2266.9612
2024.2876
2001.8368
2251.7872
2285.5745
2040.3692
2062.4457
2301.2643
1656.4052
1690.3257
1898.6388
1856.9939
2337.1416
2140.154
2104.1988
2320.388
2328.3737
2102.1933
2111.8978
2338.0544
3273.592
3112.1076
3153.1921
3329.3731
2789.9205
2609.0802
2612.0989
2813.8274
2638.2791
2644.9511
2868.1639
2845.7352
3416.6735
3227.4215
3199.9228
3386.6799
12596.208
12583.929
12487.149
12377.755
12493.538
12493.529
12671.676
12599.244
13030.571
13049.473
13179.125
13003.72
12579.775
12622.34
12832.444
12724.482
11687.66
11762.123
12047.828
11960.349
12278.119
12296.352
12453.741
12376.16
12651.991
12685.179
12742.674
12648.632
12729.86
12698.889
12699.78
12575.618
612.85114
779.17847
791.11334
612.48474
782.71189
793.58123
578.63491
782.10947
782.27003
763.84461
763.44799
2220.1396
3957.9077
3959.4696
4613.6181
4623.3225
2283.9558
4051.2514
4064.7675
4728.3657
4726.9602
4086.9606
4028.558
2283.3338
4768.6267
4670.5824
4009.1238
4027.0602
2256.6646
4689.1483
4686.1272
6119.5856
6066.7474
10177.28
10129.882
15541.703
15300.483
6104.3679
6075.3144
10121.84
10232.096
15415.511
15553.874
6243.1298
6223.6331
10339.093
10415.903
15682.952
15763.824
6223.9302
6195.7944
10345.755
10249.502
15724.121
15431.075
18943.674
18836.133
23134.967
23366.068
19057.994
19037.368
23448.376
23369.934
18653.498
18672.046
23024.195
22926.249
19003.128
18935.738
23304.588
23425.727
27534.592
27262.423
41434.323
42000.561
54423.419
67416.534
67664.859
54519.352
27479.468
27657.189
42575.432
41801.971
67608.976
68259.442
55233.539
54853.28
27479.359
27558.564
41449.044
41990.866
67909.005
67220.654
54554.27
55034.878
40899.986
27179.823
26975.101
40263.509
54454.849
66979.427
66079.78
54398.782
18662.919
18558.972
22846.912
23071.199
18843.282
18823.694
23223.56
23146.552
18812.706
18746.151
23106.338
23236.347
18519.396
22883.228
18546.627
22816.773
27215.283
26952.72
40890.965
40438.227
27245.859
27405.215
41051.388
41563.919
67202.06
54179.329
53767.506
66868.878
66536.178
66256.326
52932.055
53221.516
67792.355
67406.402
54209.307
54322.924
54247.238
66912.854
66443.37
53995.948
27394.07
27281.069
41308.262
41673.447
26906.595
27041.205
40296.427
40639.729
6305.0558
6257.193
10396.568
10443.583
15858.707
15625.192
6180.829
6152.09
10349.757
10236.712
15627.533
15764.722
6213.0214
6183.1691
10404.9
10309.072
15782.656
15697.791
6173.6038
6148.6661
10287.653
15359.442
15673.079
10178.392
18901.418
18982.131
23432.54
23281.508
22996.594
18595.839
18632.548
22941.887
27663.32
27510.202
41369.419
42214.134
41596.577
27341.257
27591.609
41883.712
53938.511
67396.304
67332.456
54594.801
55243.609
67596.118
66647.257
55043.215
27436.29
27570.445
41178.097
41642.81
55484.37
66929.625
66502.058
54794.027
54678.684
66805.72
66527.744
54729.488
27176.384
27041.87
40738.48
40877.037
23209.917
18888.514
19002.418
23444.047
23486.541
19072.627
19108.477
23430.744
18935.893
18806.402
23123.515
23397.36
19067.852
19100.278
23488.883
23435.028
23413.056
19067.035
19141.964
23549.767
18876.627
18844.984
23201.938
23127.82
41431.48
27245.739
27567.235
42116.217
27536.843
27664.525
41757.524
42476.22
67788.944
55503.569
54937.353
67115.234
54037.854
67250.28
67529.647
54562.969
27340.141
27168.294
41022.191
41727.464
67834.019
67516.998
55132.898
55407.53
55520.267
67231.198
66609.019
55000.753
27672.394
27563.364
41986.747
42252.136
6881.6645
6950.0736
6968.466
7008.9507
2045.1112
5066.852
4991.4938
4437.7202
4501.4011
6920.0833
7954.6736
7898.303
6946.0471
7789.0436
7868.7225
6883.8819
6829.1662
2047.3779
5079.7382
11066.171
16599.254
11012.599
16339.127
21459.334
21299.418
21060.142
20994.312
21045.382
16469.453
21283.944
11090.811
16620.294
11193.922
21379.841
21348.467
25035.07
25371.501
25451.616
25344.382
25328.867
25538.693
25129.485
24970.716
29748.559
29381.955
57350.705
57813.32
59723.746
97766.38
97698.353
60102.394
58716.76
29865.008
29641.633
57165.898
97431.785
98057.059
60190.246
60080.633
57389.183
29677.28
29885.976
57884.51
57864.038
29517.343
29256.456
56800.701
59974.295
97591.473
97856.39
60345.218
97532.57
97967.223
60115.976
59956.749
474.38261
527.87441
40968.596
40398.858
41321.303
41831.224
41605.311
40911.109
39604.669
41007.975
40694.453
40028.267
41392.269
41825.116
42906.425
41924.236
41909.819
42627.356
76089.973
37600.526
75066.371
36864.224
75283.85
37657.275
76289.547
38370.891
74344.72
35883.036
72504.227
34603.309
75557.348
37201.741
74963.679
36777.434
37171.784
38315.74
39509.157
39783.736
40100.118
40909.039
41252.989
40495.2
41505.785
40799.462
41516.426
41884.922
41373.585
42051.11
41833.865
40558.187
18713.22
17641.621
17403.552
18478.169
29512.903
35729.608
25578.186
26080.344
25823.688
26354.054
28105.695
28247.647
27820.303
27937.411
17379.084
16483.419
17493.914
18562.186
29643.115
29638.511
35812.725
35899.643
27388.404
26200.274
32024.547
33401.326
27583.998
26313.736
26938.022
26899.497
27632.605
28314.639
29046.713
28322.633
29592.973
28719.926
29463.631
28842.847
30287.727
15624.259
14752.216
15433.535
16463.451
15356.694
15588.432
16611.68
16373.624
15897.441
15003.096
11326.05
12283.288
14113.787
13199.628
13876.676
12964.903
13367.409
14406.902
12038.571
11070.411
11273.54
12325.149
11332.102
11480.221
12524.355
12346.208
14574.183
13545.701
13343.839
14349.977
14816.06
14051.706
14083.115
14887.728
15113.204
15108.801
14303.585
14306.853
13384.847
14271.344
13378.765
14318.664
14542.75
13588.084
14521.674
13580.926
13591.016
14356.041
13644.597
14325.648
13872.327
13033.344
12965.257
13832.586
13818.623
14544.514
13786.481
14595.621
14005.534
13121.431
14055.959
13148.362
12471.783
13214.94
12535.981
13161.646
12053.75
12720.429
12674.816
12024.12
13343.384
12624
13298.649
12600.303
12175.269
12793.452
12824.378
12132.773
13555.56
12848.6
12846.762
13578.64
12397.321
13056.162
13040.504
12398.425
13758.606
13779.332
13021.587
13027.304
12535.517
13216.671
12459.986
13211.899
13100.857
12427.545
12360.024
13050.646
13208.664
13134.038
12444.326
12493.574
11909.559
12622.701
11961.835
12560.635
12692.413
12008.582
12642.859
12029.925
14310.676
13584.393
13603.335
14363.477
14168.7
14197.945
13484.134
13464.973
12937.469
13809.078
12944.209
13837.673
13715.086
12849.944
13715.848
12855.524
13486.511
14226.326
13518.806
14225.453
13753.54
12914.516
12856.523
13725.809
13676.595
14361.709
13610.795
14443.15
13832.092
12956.276
13914.537
13015.102
13124.371
12435.929
12421.231
13128.589
13042.032
12360.915
13051.277
12361.783
11969.179
12624.792
11982.975
12621.399
12556.212
11847.027
12549.201
11900.754
14584.932
15257.524
14627.678
15243.506
14987.323
14025.483
13995.441
14972.171
14769.867
15381.227
14736.587
15465.527
15135.373
14149.806
15160.254
14189.867
15467.422
14925.378
14889.709
15457.064
15579.675
15009.448
15114.907
15710.839
15470.259
14794.146
14748.67
15453.358
15576.773
14880.561
14958.01
15690.708
15656.024
15065.823
15065.758
15669.134
15315.551
15372.266
14817.328
14753.448
15604.289
14888.959
14886.318
15627.33
15301.697
15371.618
14682.42
14601.585
15358.638
14695.219
14706.333
15383.58
15081.285
15167.626
14523.087
14423.628
14086.123
14115.38
15050.639
15093.824
14775.602
14890.134
13958.697
13889.407
14686.079
15404.069
14774.063
15337.225
15126.582
14165.057
14094.475
15071.901
15633.336
14938.989
15605.412
14946.94
15336.976
14337.414
15334.941
14346.673
16092.432
15519.335
15476.187
16072.743
16347.075
15773.932
15793.802
16393.611
15347.304
16092.145
15382.059
16074.17
15638.611
16379.491
15655.412
16395.201
14967.192
15610.381
15073.432
15533.961
15615.178
14944.891
14836.92
15531.262
15286.241
15841.496
15257.678
15901.297
15821.794
15109.191
15862.292
15116.95
15883.63
15224.719
15229.8
15892.95
16191.667
15515.741
16168.536
15465.064
14606.116
14645.028
15613.127
15665.022
15870.874
15931.255
14890.941
14856.911
14074
14098.291
14688.036
14565.809
13893.931
13867.649
14572.208
15299.701
14636.232
15257.484
14613.1
15131.326
14387.74
15179.759
14413.072
16180.041
15280.51
15225.804
16159.904
16635.27
16582.706
15659.451
15686.011
14849.965
15763.947
14922.734
15732.382
16220.724
15319.996
16172.458
15296.922
14231.001
15191.449
16156.698
15670.972
14781.582
15695.642
14791.481
15399.32
14796.029
14717.558
15349.71
15801.366
15172.215
15849.482
15196.489
14609.695
14532.769
15320.409
15268.075
15771.336
15724.203
14980.143
15001.373
18206.579
18201.441
16635.709
16579.887
17022.267
15753.336
15692.992
17036.646
18610.789
18630.432
17011.827
17006.187
17439.793
17479.053
16120.251
16140.418
19605.22
19611.978
17907.032
17843.168
18278.928
18250.337
20004.769
19996.691
5167.8927
5106.4739
5219.4363
5275.413
19159.689
18813.054
20712.339
20714.893
18912.164
18849.12
18425.557
18382.981
20153.736
20130.439
5417.7746
5346.1724
5334.1604
5400.4039
19314.644
19877.742
19907.608
19898.513
18267.815
18173.853
18332.776
18351.643
20086.455
20110.167
5426.374
5358.5439
5288.2694
5344.9073
19283.33
19104.642
18579.979
18534.079
16949.847
17047.048
17457.707
17398.066
16210.457
16102.172
17095.154
18644.361
17027.422
18716.633
16139.495
17447.246
17558.212
16221.574
4882.1724
4794.0244
4733.2807
4803.0719
4751.2144
4794.7086
4869.9844
4836.4408
17529.916
19238.949
17575.606
19226.815
16652.779
18007.646
18002.886
16602.327
17157.49
18763.214
17165.587
18754.557
16323.011
17617.309
17631.625
16311.365
16101.151
17106.836
16145.544
17090.827
16648.174
15741.481
15690.965
16632.254
16802.741
15867.637
16798.875
15885.216
16417.037
15551.369
16406.211
15515.628
15229.097
15970.838
15384.72
15850.154
15227.776
15932.076
15790.786
15065.055
15930.181
15275.251
15811.716
15188.703
15016.422
15737.093
15850.679
15096.757
15668.83
16656.595
15791.577
16574.678
16294.821
16190.104
15477.248
15333.235
15761.399
16586.098
15666.791
16704.78
15312.706
16170.493
16290.844
15398.086
15525.123
16232.862
15575.455
16209.459
15355.718
16114.282
16090.847
15304.765
16045.867
15395.363
16075.468
15449.268
15287.02
16019.263
15968.078
15211.635
3614.9462
3709.5258
3852.5412
3766.0969
3629.5305
3702.0429
3847.8345
3778.482
4200.5862
4259.1266
4360.4234
4293.3306
4360.3282
4259.8596
4182.8056
4297.1228
15211.134
15907.067
15301.934
15859.372
15827.808
15111.594
15003.504
15753.387
16295.977
15594.528
16224.973
15554.434
16096.066
15318.322
16157.495
15350.283
17206.355
16264.534
16233.78
17204.311
17419.878
17317.894
16390.38
16471.111
15843.39
16783.27
15893.494
16770.938
17028.258
16118.109
16937.452
16051.875
15741.811
16680.03
15785.109
16688.842
16275.455
15433.686
15360.718
16250.833
16204.484
17131.639
16145.267
17214.768
16654.493
15729.703
16729.956
15773.66
16399.469
15759.197
15704.172
16369.534
16588.436
15951.79
16665.694
16004.132
15557.026
15505.708
16314.554
16284.084
16597.468
16538.015
15777.54
15812.456
19254.208
19246.126
17635.14
17593.996
18076.659
16742.129
16703.212
18079.905
19286.426
19346.342
17748.859
17683.719
18151.638
18241.485
16824.074
16904.192
17099.701
18700.031
17126.942
18713.409
17535.98
16247.305
16219.626
17554.893
17664.617
19321.611
17622.156
19370.703
18067.539
16668.65
18139.977
16718.097
20099.196
20113.423
18390.6
18339.479
18975.319
18975.886
20837.046
20844.8
5483.6168
5454.2012
5510.4769
5527.6284
19319.745
20009.292
20662.151
20654.736
18911.591
18852.406
18925.093
18946.421
20649.012
20650.948
5600.9309
5533.9207
5589.7887
5662.5245
19789.802
19821.332
4988.2257
4926.654
4928.0208
4984.7352
4975.9071
4966.4273
5046.443
5071.2795
20736.185
20747.713
18881.343
18863.875
18264.343
18247.951
20036.203
20011.212
5488.2746
5450.8673
5418.6272
5455.8788
19235.188
19910.822
20040.367
20052.249
18291.816
18271.38
18554.485
18606.167
20384.856
20408.465
5409.8876
5365.2365
5381.4201
5415.2891
19568.619
19252.274
18611.749
18641.429
17017.154
17012.844
17430.275
17476.952
16122.15
16134.398
17336.008
18894.738
17225.21
18991.223
16307.094
17670.813
17814.426
16432.094
4901.3779
4839.6545
4843.1048
4896.3347
4875.836
4926.9804
4977.8911
4934.9353
17537.945
19223.011
17529.834
19248.934
16577.25
17968.848
18011.499
16583.337
16980.007
18589.998
16965.247
18596.045
16066.755
17392.687
17415.977
16074.603
4495.4221
4409.5758
4383.5568
4470.5879
3991.8203
3856.4096
3809.6516
3947.0024
3793.6035
3845.7874
3994.5077
3951.0894
4520.2694
4416.9523
4386.9328
4505.0676
3798.6369
3867.9398
3993.3554
3926.9205
3778.4803
3779.1314
3904.3839
3898.4526
4404.9761
4315.4514
4322.5065
4398.7018
4492.1198
4413.1939
4347.3036
4432.0429
16044.437
17026.35
16039.076
17058.55
16532.603
15599.264
15589.485
16556.729
16517.619
15566.099
16506.305
15568.733
16060.746
15179.345
16054.374
15157.437
15386.831
16077.541
15403.403
16085.752
15152.125
15927.707
15930.137
15134.933
15641.085
14994.537
15666.03
15035.533
14846.471
15572.112