/*--------------------------------*- C++ -*----------------------------------*\
  =========                 |
  \\      /  F ield         | OpenFOAM: The Open Source CFD Toolbox
   \\    /   O peration     | Website:  https://openfoam.org
    \\  /    A nd           | Version:  7
     \\/     M anipulation  |
\*---------------------------------------------------------------------------*/
FoamFile
{
    version     2.0;
    format      ascii;
    class       volScalarField;
    location    "2000";
    object      p;
}
// * * * * * * * * * * * * * * * * * * * * * * * * * * * * * * * * * * * * * //

dimensions      [0 2 -2 0 0 0 0];

internalField   nonuniform List<scalar> 
33730
(
-1.3903671e+183
-1.301239e+183
-1.4025126e+183
-1.3618757e+183
-1.33208e+183
-1.3483605e+183
-1.3397724e+183
-1.353592e+183
-1.3319631e+183
-1.2160814e+183
-1.2586605e+183
-1.2952647e+183
-1.3042162e+183
-1.2880665e+183
-1.3615003e+183
-1.3699794e+183
-1.3623786e+183
-1.3707456e+183
-1.352711e+183
-1.3566811e+183
-1.3553385e+183
-1.345285e+183
-1.341764e+183
-1.3254755e+183
-1.3289601e+183
-1.3386152e+183
-1.3369771e+183
-1.3253794e+183
-1.3269899e+183
-1.3335473e+183
-1.3379584e+183
-1.3175368e+183
-1.3216859e+183
-1.2535751e+183
-1.2065012e+183
-1.2115616e+183
-1.2471905e+183
-1.2141787e+183
-1.2364036e+183
-1.2164176e+183
-1.2338174e+183
-1.1767386e+183
-1.2565537e+183
-1.2539806e+183
-1.2789684e+183
-1.1343869e+183
-1.1377785e+183
-1.3013783e+183
-1.2977486e+183
-1.3082346e+183
-1.3097489e+183
-1.2906429e+183
-1.2943392e+183
-1.3351904e+183
-1.3306126e+183
-1.3375295e+183
-1.3420878e+183
-1.3392551e+183
-1.3460848e+183
-1.3496203e+183
-1.3427986e+183
-1.3416864e+183
-1.3461859e+183
-1.3449454e+183
-1.340463e+183
-1.3502073e+183
-1.3536802e+183
-1.3523588e+183
-1.3488537e+183
-1.3310834e+183
-1.3410473e+183
-1.3426679e+183
-1.3460851e+183
-1.3444765e+183
-1.3454216e+183
-1.3469862e+183
-1.3427185e+183
-1.3443091e+183
-1.322286e+183
-1.3339e+183
-1.3355618e+183
-1.3239569e+183
-1.3302522e+183
-1.3321935e+183
-1.3186293e+183
-1.3205016e+183
-1.3316495e+183
-1.3324007e+183
-1.3239089e+183
-1.3246905e+183
-1.3300614e+183
-1.3308714e+183
-1.3223418e+183
-1.3231059e+183
-1.3223483e+183
-1.3244875e+183
-1.3110038e+183
-1.3129504e+183
-1.3265235e+183
-1.3149736e+183
-1.3285116e+183
-1.3169246e+183
-1.2181456e+183
-1.2271608e+183
-1.2000822e+183
-1.1803752e+183
-1.2729279e+183
-1.2763754e+183
-1.2515134e+183
-1.2484489e+183
-1.223563e+183
-1.2049552e+183
-1.2072134e+183
-1.2261093e+183
-1.2287254e+183
-1.2094002e+183
-1.2118905e+183
-1.1730972e+183
-1.2314486e+183
-1.1315132e+183
-1.2663642e+183
-1.2425306e+183
-1.2454487e+183
-1.2697021e+183
-1.2150372e+183
-1.2139349e+183
-1.2227393e+183
-1.1957585e+183
-1.2239141e+183
-1.2352934e+183
-1.2340654e+183
-1.2455307e+183
-1.2442604e+183
-1.2171488e+183
-1.2160086e+183
-1.2261378e+183
-1.2249695e+183
-1.197873e+183
-1.2329076e+183
-1.2317241e+183
-1.2419183e+183
-1.2431141e+183
-1.1782908e+183
-1.1763531e+183
-1.2546203e+183
-1.2666827e+183
-1.2558844e+183
-1.2642273e+183
-1.2534925e+183
-1.2522852e+183
-1.2655356e+183
-1.2782707e+183
-1.2939438e+183
-1.2769324e+183
-1.2924938e+183
-1.2795062e+183
-1.0485316e+183
-1.0936686e+183
-1.1349771e+183
-1.1573122e+183
-1.1589594e+183
-1.1358392e+183
-1.1378959e+183
-1.1609394e+183
-1.3067904e+183
-1.3049485e+183
-1.3031999e+183
-1.3014093e+183
-1.3116522e+183
-1.3124003e+183
-1.3131579e+183
-1.3140032e+183
-1.2943592e+183
-1.2960889e+183
-1.2979108e+183
-1.2998921e+183
-1.3132277e+183
-1.3213418e+183
-1.3134992e+183
-1.3092092e+183
-1.3162872e+183
-1.3204744e+183
-1.3172875e+183
-1.3243351e+183
-1.3278879e+183
-1.3209158e+183
-1.3259716e+183
-1.3281948e+183
-1.3316946e+183
-1.3294434e+183
-1.3338071e+183
-1.3303612e+183
-1.3323777e+183
-1.3358525e+183
-1.3348443e+183
-1.3368548e+183
-1.3322322e+183
-1.3342305e+183
-1.3304905e+183
-1.3327078e+183
-1.3279526e+183
-1.3301441e+183
-1.3343147e+183
-1.3362852e+183
-1.3397552e+183
-1.337774e+183
-1.3395671e+183
-1.3380335e+183
-1.341466e+183
-1.3430411e+183
-1.3439866e+183
-1.3396974e+183
-1.3413013e+183
-1.3424285e+183
-1.3387612e+183
-1.340695e+183
-1.3360582e+183
-1.3379878e+183
-1.309303e+183
-1.3322513e+183
-1.3306644e+183
-1.3366726e+183
-1.3351283e+183
-1.3387561e+183
-1.339548e+183
-1.3396125e+183
-1.3403954e+183
-1.3403351e+183
-1.3410619e+183
-1.3411626e+183
-1.3418948e+183
-1.3383539e+183
-1.3348135e+183
-1.3391643e+183
-1.3356377e+183
-1.3399219e+183
-1.3406444e+183
-1.3364163e+183
-1.3371337e+183
-1.3190213e+183
-1.3267944e+183
-1.3277601e+183
-1.31994e+183
-1.3286112e+183
-1.3294003e+183
-1.3208372e+183
-1.3216645e+183
-1.3232198e+183
-1.3241615e+183
-1.3154745e+183
-1.3163173e+183
-1.3259848e+183
-1.3250735e+183
-1.3172431e+183
-1.3181829e+183
-1.3263858e+183
-1.3259498e+183
-1.3218355e+183
-1.3222633e+183
-1.3270882e+183
-1.3267721e+183
-1.3226679e+183
-1.3230215e+183
-1.3248351e+183
-1.3244137e+183
-1.3202987e+183
-1.3206778e+183
-1.3210701e+183
-1.3252188e+183
-1.325576e+183
-1.3214575e+183
-1.3155342e+183
-1.3165285e+183
-1.3080142e+183
-1.3088872e+183
-1.3098379e+183
-1.3175041e+183
-1.3185138e+183
-1.3108334e+183
-1.3194743e+183
-1.3205748e+183
-1.3117911e+183
-1.3128415e+183
-1.313838e+183
-1.3215436e+183
-1.3224463e+183
-1.3147381e+183
-1.2107018e+183
-1.2216051e+183
-1.2221502e+183
-1.209562e+183
-1.2176716e+183
-1.2171552e+183
-1.2260051e+183
-1.2306649e+183
-1.2265446e+183
-1.2009642e+183
-1.2021077e+183
-1.1927899e+183
-1.1844663e+183
-1.1856644e+183
-1.1939558e+183
-1.27206e+183
-1.2704246e+183
-1.2857737e+183
-1.2874944e+183
-1.2892754e+183
-1.2755684e+183
-1.2738023e+183
-1.2910851e+183
-1.2611971e+183
-1.2492994e+183
-1.2510122e+183
-1.2629071e+183
-1.2579572e+183
-1.2477042e+183
-1.2462863e+183
-1.2595243e+183
-1.2309272e+183
-1.2226218e+183
-1.2215778e+183
-1.2320946e+183
-1.2141954e+183
-1.2057772e+183
-1.2078441e+183
-1.2067374e+183
-1.2151876e+183
-1.1896478e+183
-1.2163913e+183
-1.2250748e+183
-1.2334111e+183
-1.2237329e+183
-1.2349411e+183
-1.1711538e+183
-1.2362157e+183
-1.2275966e+183
-1.2263147e+183
-1.2375321e+183
-1.218761e+183
-1.2174978e+183
-1.2087741e+183
-1.2099333e+183
-1.1916134e+183
-1.2127201e+183
-1.211186e+183
-1.2200238e+183
-1.1937365e+183
-1.2215308e+183
-1.1730189e+183
-1.1748995e+183
-1.2304878e+183
-1.2406762e+183
-1.2289272e+183
-1.2390042e+183
-1.0452917e+183
-1.0467888e+183
-1.0914854e+183
-1.1312068e+183
-1.1529549e+183
-1.154519e+183
-1.1323326e+183
-1.1563531e+183
-1.1341028e+183
-1.2656108e+183
-1.2640396e+183
-1.2791167e+183
-1.2807282e+183
-1.2404934e+183
-1.2533415e+183
-1.2518056e+183
-1.2418335e+183
-1.2449515e+183
-1.2433202e+183
-1.2548928e+183
-1.2565882e+183
-1.2690056e+183
-1.2843594e+183
-1.26723e+183
-1.2824563e+183
-1.2186973e+183
-1.2192042e+183
-1.2065155e+183
-1.2148264e+183
-1.2143547e+183
-1.2175813e+183
-1.2181923e+183
-1.2054656e+183
-1.213834e+183
-1.2132325e+183
-1.2218666e+183
-1.2263927e+183
-1.2224651e+183
-1.2269813e+183
-1.1979361e+183
-1.1969413e+183
-1.2229743e+183
-1.2275147e+183
-1.2235182e+183
-1.2280903e+183
-1.2342399e+183
-1.2348305e+183
-1.2390525e+183
-1.2396356e+183
-1.2331817e+183
-1.2379605e+183
-1.2336921e+183
-1.2384992e+183
-1.2439483e+183
-1.2492255e+183
-1.2445526e+183
-1.2428536e+183
-1.2481242e+183
-1.2433798e+183
-1.2486496e+183
-1.2206149e+183
-1.2211608e+183
-1.2085436e+183
-1.2167117e+183
-1.2161847e+183
-1.2196186e+183
-1.2201163e+183
-1.207403e+183
-1.2156734e+183
-1.2152279e+183
-1.2249703e+183
-1.2295919e+183
-1.225542e+183
-1.230184e+183
-1.2239617e+183
-1.2285653e+183
-1.2244643e+183
-1.2290638e+183
-1.1987244e+183
-1.1998911e+183
-1.2320872e+183
-1.2368811e+183
-1.2326711e+183
-1.2374597e+183
-1.2309396e+183
-1.2357012e+183
-1.2315356e+183
-1.2363242e+183
-1.2406076e+183
-1.2458827e+183
-1.2412197e+183
-1.2464941e+183
-1.2417872e+183
-1.2470657e+183
-1.2423684e+183
-1.2476547e+183
-1.1833413e+183
-1.1822201e+183
-1.1905223e+183
-1.191678e+183
-1.1814673e+183
-1.180671e+183
-1.1888321e+183
-1.1897831e+183
-1.2534063e+183
-1.2539365e+183
-1.25909e+183
-1.2596505e+183
-1.264957e+183
-1.2716077e+183
-1.2655053e+183
-1.2721532e+183
-1.2545149e+183
-1.260225e+183
-1.262568e+183
-1.26322e+183
-1.2691197e+183
-1.2697837e+183
-1.2523362e+183
-1.2580121e+183
-1.2529255e+183
-1.2586028e+183
-1.2511371e+183
-1.2567661e+183
-1.2517572e+183
-1.2574256e+183
-1.2638285e+183
-1.2644511e+183
-1.2704222e+183
-1.2710912e+183
-1.2771238e+183
-1.284951e+183
-1.2778147e+183
-1.2856671e+183
-1.2931918e+183
-1.3031476e+183
-1.2939676e+183
-1.3039857e+183
-1.2757709e+183
-1.2835042e+183
-1.2764565e+183
-1.2842596e+183
-1.2917151e+183
-1.3016497e+183
-1.2924648e+183
-1.302401e+183
-1.286251e+183
-1.2783678e+183
-1.2789156e+183
-1.0382379e+183
-1.1105092e+183
-1.0793475e+183
-1.07915e+183
-1.1109088e+183
-1.1419095e+183
-1.1426081e+183
-1.1546054e+183
-1.1544702e+183
-1.1640426e+183
-1.163847e+183
-1.1723838e+183
-1.172989e+183
-1.1737535e+183
-1.1646592e+183
-1.1657044e+183
-1.1747899e+183
-1.143556e+183
-1.1422088e+183
-1.1548531e+183
-1.1559661e+183
-1.1448102e+183
-1.1571018e+183
-1.1587834e+183
-1.17586e+183
-1.1666731e+183
-1.1683184e+183
-1.1771598e+183
-1.3099773e+183
-1.3109269e+183
-1.3081664e+183
-1.3090607e+183
-1.3063352e+183
-1.307344e+183
-1.304735e+183
-1.3054776e+183
-1.3137028e+183
-1.3140686e+183
-1.3144499e+183
-1.3148859e+183
-1.3152529e+183
-1.3156531e+183
-1.3160597e+183
-1.3164702e+183
-1.2976265e+183
-1.2983799e+183
-1.2992223e+183
-1.3002365e+183
-1.3011382e+183
-1.3021462e+183
-1.3031068e+183
-1.3040553e+183
-1.2718888e+183
-1.2790842e+183
-1.2414871e+183
-1.2931542e+183
-1.2891281e+183
-1.2951294e+183
-1.3158071e+183
-1.3178971e+183
-1.2989934e+183
-1.3199183e+183
-1.321966e+183
-1.2967141e+183
-1.3026548e+183
-1.3238587e+183
-1.3257969e+183
-1.3061416e+183
-1.3275157e+183
-1.3291295e+183
-1.3002278e+183
-1.3223946e+183
-1.3203071e+183
-1.3244292e+183
-1.3264566e+183
-1.328008e+183
-1.3290689e+183
-1.3289221e+183
-1.3299792e+183
-1.3300759e+183
-1.3310329e+183
-1.3319197e+183
-1.3309543e+183
-1.3277299e+183
-1.3242446e+183
-1.3288079e+183
-1.3253428e+183
-1.3297712e+183
-1.3263155e+183
-1.3307114e+183
-1.3272105e+183
-1.3238124e+183
-1.3248955e+183
-1.324737e+183
-1.3258219e+183
-1.3259698e+183
-1.3269936e+183
-1.3268641e+183
-1.3279072e+183
-1.323581e+183
-1.3246722e+183
-1.3212408e+183
-1.3201878e+183
-1.3222666e+183
-1.3232685e+183
-1.3257032e+183
-1.326732e+183
-1.3303081e+183
-1.3283917e+183
-1.3320256e+183
-1.3336285e+183
-1.3373387e+183
-1.3381711e+183
-1.3389082e+183
-1.3380537e+183
-1.3361455e+183
-1.3352646e+183
-1.3316628e+183
-1.3326012e+183
-1.3369191e+183
-1.3334107e+183
-1.3341507e+183
-1.3376589e+183
-1.3365491e+183
-1.335673e+183
-1.3365277e+183
-1.3373969e+183
-1.331967e+183
-1.3329721e+183
-1.3328449e+183
-1.3338425e+183
-1.3339373e+183
-1.3348318e+183
-1.3347745e+183
-1.33568e+183
-1.3315988e+183
-1.3326075e+183
-1.32903e+183
-1.3280318e+183
-1.3344344e+183
-1.3299731e+183
-1.3308489e+183
-1.3335352e+183
-1.3214266e+183
-1.3198615e+183
-1.2881631e+183
-1.3083093e+183
-1.3098275e+183
-1.3284176e+183
-1.3276258e+183
-1.3299405e+183
-1.3306831e+183
-1.335699e+183
-1.3364341e+183
-1.3268587e+183
-1.3261458e+183
-1.3341798e+183
-1.3284377e+183
-1.3291847e+183
-1.3349484e+183
-1.3364543e+183
-1.3360168e+183
-1.3364196e+183
-1.3368281e+183
-1.3372162e+183
-1.3368446e+183
-1.3371752e+183
-1.337577e+183
-1.3379411e+183
-1.3375398e+183
-1.3383441e+183
-1.3379796e+183
-1.3383453e+183
-1.3386388e+183
-1.3387022e+183
-1.3390272e+183
-1.3364135e+183
-1.3360164e+183
-1.3350294e+183
-1.3354397e+183
-1.3283903e+183
-1.3327895e+183
-1.3332254e+183
-1.3288123e+183
-1.3358246e+183
-1.3368122e+183
-1.3371792e+183
-1.3362025e+183
-1.3339701e+183
-1.3336107e+183
-1.3292099e+183
-1.3295617e+183
-1.3365584e+183
-1.3375409e+183
-1.3379255e+183
-1.3369493e+183
-1.3372934e+183
-1.3382838e+183
-1.3386151e+183
-1.3376305e+183
-1.3299297e+183
-1.3343309e+183
-1.3347367e+183
-1.330349e+183
-1.3353908e+183
-1.3350839e+183
-1.3307305e+183
-1.3310244e+183
-1.3214529e+183
-1.3210109e+183
-1.3168587e+183
-1.3172911e+183
-1.3223649e+183
-1.3219195e+183
-1.3177533e+183
-1.3182331e+183
-1.3232705e+183
-1.3227953e+183
-1.3186697e+183
-1.3191341e+183
-1.3240768e+183
-1.3236942e+183
-1.3195652e+183
-1.3199662e+183
-1.3179534e+183
-1.3175238e+183
-1.3133937e+183
-1.3137801e+183
-1.3187891e+183
-1.3183655e+183
-1.314183e+183
-1.3146131e+183
-1.3201689e+183
-1.3206144e+183
-1.3160166e+183
-1.3164716e+183
-1.3192093e+183
-1.3150383e+183
-1.3155307e+183
-1.3197093e+183
-1.3184422e+183
-1.3180231e+183
-1.3191974e+183
-1.318839e+183
-1.3168483e+183
-1.3164436e+183
-1.3172464e+183
-1.3176401e+183
-1.305997e+183
-1.3100124e+183
-1.3104661e+183
-1.3063966e+183
-1.3113568e+183
-1.3109066e+183
-1.30682e+183
-1.3072714e+183
-1.3118052e+183
-1.312333e+183
-1.3077149e+183
-1.3082153e+183
-1.3087239e+183
-1.3128292e+183
-1.3133038e+183
-1.309216e+183
-1.3143128e+183
-1.3137652e+183
-1.3096684e+183
-1.3101865e+183
-1.3153469e+183
-1.3148312e+183
-1.3107064e+183
-1.3112378e+183
-1.3158131e+183
-1.316328e+183
-1.3122007e+183
-1.3117046e+183
-1.3167705e+183
-1.3171652e+183
-1.3126551e+183
-1.3130571e+183
-9.9243753e+182
-1.2143759e+183
-1.2104811e+183
-1.2111456e+183
-1.2150231e+183
-1.2209534e+183
-1.2211953e+183
-1.2234797e+183
-1.2237256e+183
-1.2240438e+183
-1.2243412e+183
-1.2214978e+183
-1.2217948e+183
-1.2132785e+183
-1.2093754e+183
-1.2098766e+183
-1.2137786e+183
-1.2180685e+183
-1.2175086e+183
-1.2281369e+183
-1.2256752e+183
-1.2278715e+183
-1.2259314e+183
-1.2301394e+183
-1.2324426e+183
-1.2326951e+183
-1.230399e+183
-1.2286953e+183
-1.2262357e+183
-1.2284086e+183
-1.2265246e+183
-1.2055688e+183
-1.2018012e+183
-1.2023085e+183
-1.206078e+183
-1.2035913e+183
-1.2029281e+183
-1.206691e+183
-1.2073568e+183
-1.1980763e+183
-1.1943906e+183
-1.1949193e+183
-1.1985777e+183
-1.1908721e+183
-1.1873619e+183
-1.187882e+183
-1.1914038e+183
-1.1892068e+183
-1.1884708e+183
-1.19199e+183
-1.192669e+183
-1.1991844e+183
-1.195512e+183
-1.1961615e+183
-1.1998542e+183
-1.2705025e+183
-1.2714602e+183
-1.2782013e+183
-1.2791529e+183
-1.2690608e+183
-1.2767022e+183
-1.2697092e+183
-1.2773999e+183
-1.2848259e+183
-1.2947197e+183
-1.2855056e+183
-1.2954168e+183
-1.2863305e+183
-1.2962556e+183
-1.2873149e+183
-1.2972672e+183
-1.2881801e+183
-1.2890985e+183
-1.2981005e+183
-1.2990015e+183
-1.2741384e+183
-1.2750664e+183
-1.2818528e+183
-1.282776e+183
-1.2723241e+183
-1.280005e+183
-1.2732385e+183
-1.2809525e+183
-1.2900051e+183
-1.2909633e+183
-1.2999278e+183
-1.3009119e+183
-1.2591812e+183
-1.265691e+183
-1.2601186e+183
-1.2666049e+183
-1.247805e+183
-1.2487372e+183
-1.2534084e+183
-1.2543685e+183
-1.2496127e+183
-1.2504863e+183
-1.2552344e+183
-1.2560974e+183
-1.2609797e+183
-1.2618685e+183
-1.2674903e+183
-1.2684206e+183
-1.2560519e+183
-1.262486e+183
-1.2566708e+183
-1.2631118e+183
-1.2461341e+183
-1.2469764e+183
-1.2516925e+183
-1.2525653e+183
-1.2448693e+183
-1.2503657e+183
-1.2454524e+183
-1.2509919e+183
-1.2573946e+183
-1.2583102e+183
-1.2638739e+183
-1.2648313e+183
-1.2294756e+183
-1.2342932e+183
-1.2300024e+183
-1.2348404e+183
-1.2216466e+183
-1.2222251e+183
-1.2260371e+183
-1.2266591e+183
-1.2211447e+183
-1.2255155e+183
-1.230557e+183
-1.2312393e+183
-1.2354498e+183
-1.236206e+183
-1.2132378e+183
-1.2174319e+183
-1.21375e+183
-1.217983e+183
-1.2091694e+183
-1.2096545e+183
-1.1976901e+183
-1.2055091e+183
-1.2050378e+183
-1.2111081e+183
-1.2116531e+183
-1.1996724e+183
-1.207359e+183
-1.2068874e+183
-1.210088e+183
-1.2106083e+183
-1.1986177e+183
-1.2063985e+183
-1.2059381e+183
-1.2141832e+183
-1.2184785e+183
-1.2147122e+183
-1.2190414e+183
-1.1904087e+183
-1.1914434e+183
-1.2152446e+183
-1.2196219e+183
-1.2158575e+183
-1.2202835e+183
-1.2240223e+183
-1.2286369e+183
-1.2246958e+183
-1.2293211e+183
-1.2319212e+183
-1.2369239e+183
-1.2326558e+183
-1.2376982e+183
-1.2227839e+183
-1.2272777e+183
-1.2233935e+183
-1.227973e+183
-1.2333651e+183
-1.2384491e+183
-1.2340768e+183
-1.2392005e+183
-1.1758336e+183
-1.1749595e+183
-1.1826733e+183
-1.1836809e+183
-1.2346305e+183
-1.2397419e+183
-1.235186e+183
-1.2403016e+183
-1.2263991e+183
-1.2271082e+183
-1.2310359e+183
-1.2317611e+183
-1.2252507e+183
-1.2298667e+183
-1.2257979e+183
-1.2304379e+183
-1.2357918e+183
-1.2365574e+183
-1.2409401e+183
-1.2417566e+183
-1.2175134e+183
-1.2219542e+183
-1.2182037e+183
-1.2226547e+183
-1.216396e+183
-1.2208292e+183
-1.2169502e+183
-1.2213731e+183
-1.2121064e+183
-1.2126508e+183
-1.2004902e+183
-1.2077494e+183
-1.2082366e+183
-1.2132134e+183
-1.2138945e+183
-1.2015374e+183
-1.2094976e+183
-1.2088199e+183
-1.1922106e+183
-1.1931536e+183
-1.2160745e+183
-1.2169266e+183
-1.2042623e+183
-1.2125635e+183
-1.2117117e+183
-1.214511e+183
-1.2153014e+183
-1.2027248e+183
-1.210903e+183
-1.210135e+183
-1.2188096e+183
-1.2233112e+183
-1.2195848e+183
-1.2240966e+183
-1.1942266e+183
-1.1957406e+183
-1.2203513e+183
-1.2248818e+183
-1.2212154e+183
-1.2257491e+183
-1.1844403e+183
-1.1765645e+183
-1.1774026e+183
-1.1853192e+183
-1.1796881e+183
-1.1784048e+183
-1.186288e+183
-1.187718e+183
-1.2294332e+183
-1.2342044e+183
-1.2302901e+183
-1.2350539e+183
-1.2390976e+183
-1.2443625e+183
-1.2399606e+183
-1.2452419e+183
-1.2278112e+183
-1.2325031e+183
-1.2286243e+183
-1.2333803e+183
-1.2373456e+183
-1.2425694e+183
-1.2382438e+183
-1.2434927e+183
-1.0349903e+183
-1.1069807e+183
-1.0755098e+183
-1.0364277e+183
-1.0762387e+183
-1.1078442e+183
-1.1096543e+183
-1.0783521e+183
-1.150334e+183
-1.138209e+183
-1.1511457e+183
-1.1389756e+183
-1.167093e+183
-1.159068e+183
-1.1599149e+183
-1.1679196e+183
-1.1686994e+183
-1.16074e+183
-1.1616265e+183
-1.169507e+183
-1.1518333e+183
-1.1395614e+183
-1.1526953e+183
-1.1401618e+183
-1.1705685e+183
-1.1626774e+183
-1.1636443e+183
-1.1716622e+183
-1.1536817e+183
-1.1412226e+183
-1.154623e+183
-1.1425298e+183
-1.2641892e+183
-1.2717222e+183
-1.265077e+183
-1.2725956e+183
-1.2627325e+183
-1.2702327e+183
-1.2634281e+183
-1.2709728e+183
-1.2782074e+183
-1.2789201e+183
-1.2878908e+183
-1.2886022e+183
-1.2796851e+183
-1.2805993e+183
-1.2893933e+183
-1.2903697e+183
-1.2391567e+183
-1.2397337e+183
-1.2444565e+183
-1.2450898e+183
-1.2513741e+183
-1.2577176e+183
-1.2522355e+183
-1.2586088e+183
-1.2499847e+183
-1.2562899e+183
-1.2506305e+183
-1.2569634e+183
-1.2404052e+183
-1.2412009e+183
-1.2457944e+183
-1.2466182e+183
-1.2435292e+183
-1.244296e+183
-1.2490205e+183
-1.2497926e+183
-1.2419441e+183
-1.2427445e+183
-1.2473753e+183
-1.2482219e+183
-1.253005e+183
-1.2538478e+183
-1.2593934e+183
-1.2602573e+183
-1.254664e+183
-1.2554575e+183
-1.261091e+183
-1.2619096e+183
-1.2676215e+183
-1.2752738e+183
-1.2684495e+183
-1.276101e+183
-1.2833598e+183
-1.2931945e+183
-1.2842257e+183
-1.294117e+183
-1.2658802e+183
-1.273433e+183
-1.2667674e+183
-1.2743978e+183
-1.2814719e+183
-1.2824426e+183
-1.2912525e+183
-1.2922472e+183
-1.2182893e+183
-1.2184963e+183
-1.2207282e+183
-1.220937e+183
-1.2211945e+183
-1.2214101e+183
-1.2187207e+183
-1.2189103e+183
-1.2105249e+183
-1.206681e+183
-1.2071306e+183
-1.2109943e+183
-1.2153326e+183
-1.2149414e+183
-1.2171485e+183
-1.2174859e+183
-1.2196025e+183
-1.2199378e+183
-1.220264e+183
-1.2205385e+183
-1.2178047e+183
-1.2180691e+183
-1.2061917e+183
-1.2055948e+183
-1.2094244e+183
-1.2100194e+183
-1.2144793e+183
-1.2138551e+183
-1.2217227e+183
-1.2220652e+183
-1.2241762e+183
-1.2238362e+183
-1.2260262e+183
-1.2263573e+183
-1.2282502e+183
-1.2285749e+183
-1.2247545e+183
-1.222383e+183
-1.2244721e+183
-1.2226557e+183
-1.2288775e+183
-1.2266571e+183
-1.2269447e+183
-1.229168e+183
-1.1995618e+183
-1.1991651e+183
-1.2029239e+183
-1.203349e+183
-1.1987072e+183
-1.1981242e+183
-1.201848e+183
-1.2024519e+183
-1.2252222e+183
-1.2228576e+183
-1.2249844e+183
-1.2230787e+183
-1.229419e+183
-1.2271855e+183
-1.2274265e+183
-1.2296635e+183
-1.2257007e+183
-1.2233377e+183
-1.2254617e+183
-1.223562e+183
-1.2299241e+183
-1.2276754e+183
-1.2279258e+183
-1.2301832e+183
-1.233669e+183
-1.2359732e+183
-1.2362416e+183
-1.2339298e+183
-1.2345022e+183
-1.2342099e+183
-1.2365222e+183
-1.2368168e+183
-1.2409919e+183
-1.2382944e+183
-1.2407178e+183
-1.2385618e+183
-1.2391434e+183
-1.2415758e+183
-1.2388419e+183
-1.2412709e+183
-1.2352329e+183
-1.2326911e+183
-1.2349884e+183
-1.2329259e+183
-1.2373041e+183
-1.239721e+183
-1.2399302e+183
-1.2375278e+183
-1.2357284e+183
-1.2331603e+183
-1.2354636e+183
-1.2334214e+183
-1.2377755e+183
-1.2401828e+183
-1.2380454e+183
-1.2404632e+183
-1.2431473e+183
-1.245674e+183
-1.2459568e+183
-1.243423e+183
-1.2509309e+183
-1.248511e+183
-1.248233e+183
-1.2512096e+183
-1.2437087e+183
-1.2440118e+183
-1.2462487e+183
-1.2465444e+183
-1.24489e+183
-1.242147e+183
-1.2446696e+183
-1.2423573e+183
-1.2499171e+183
-1.2472247e+183
-1.2474391e+183
-1.2501305e+183
-1.2428889e+183
-1.2454159e+183
-1.2426086e+183
-1.2451385e+183
-1.2503818e+183
-1.2476888e+183
-1.2479722e+183
-1.2506708e+183
-1.2200096e+183
-1.2202452e+183
-1.2224959e+183
-1.222734e+183
-1.2230274e+183
-1.2232828e+183
-1.2205072e+183
-1.2207414e+183
-1.212292e+183
-1.2083757e+183
-1.2089292e+183
-1.2128354e+183
-1.2170618e+183
-1.2165844e+183
-1.21908e+183
-1.219276e+183
-1.2215666e+183
-1.221765e+183
-1.2220411e+183
-1.2223003e+183
-1.2195326e+183
-1.2197853e+183
-1.211379e+183
-1.2075083e+183
-1.2078817e+183
-1.2117894e+183
-1.2161202e+183
-1.2156717e+183
-1.224673e+183
-1.2249212e+183
-1.2268482e+183
-1.2271048e+183
-1.2293523e+183
-1.2313744e+183
-1.2316337e+183
-1.2290958e+183
-1.2252093e+183
-1.2254673e+183
-1.2276322e+183
-1.2273702e+183
-1.2296218e+183
-1.2298947e+183
-1.2319104e+183
-1.232198e+183
-1.2261227e+183
-1.2237373e+183
-1.2259033e+183
-1.2239452e+183
-1.2281403e+183
-1.2304085e+183
-1.23063e+183
-1.2283586e+183
-1.226619e+183
-1.2242121e+183
-1.2263598e+183
-1.2244681e+183
-1.2285976e+183
-1.2308683e+183
-1.228858e+183
-1.2311278e+183
-1.2036892e+183
-1.1998507e+183
-1.2001908e+183
-1.2040456e+183
-1.2013315e+183
-1.2007171e+183
-1.2045453e+183
-1.2051157e+183
-1.2342144e+183
-1.2316705e+183
-1.2339505e+183
-1.231922e+183
-1.2362681e+183
-1.2386937e+183
-1.238953e+183
-1.2365285e+183
-1.2324542e+183
-1.2347513e+183
-1.2321883e+183
-1.2344792e+183
-1.2367965e+183
-1.2392212e+183
-1.2370722e+183
-1.2395007e+183
-1.2330891e+183
-1.2304893e+183
-1.2327575e+183
-1.2308154e+183
-1.235063e+183
-1.2353877e+183
-1.2374801e+183
-1.2378e+183
-1.2336932e+183
-1.23112e+183
-1.2333916e+183
-1.2314142e+183
-1.2381104e+183
-1.2356963e+183
-1.2360062e+183
-1.2384301e+183
-1.2427589e+183
-1.2399036e+183
-1.2424264e+183
-1.2402266e+183
-1.2449773e+183
-1.2453023e+183
-1.2476633e+183
-1.2479859e+183
-1.2408534e+183
-1.2433784e+183
-1.2405365e+183
-1.2430655e+183
-1.2482964e+183
-1.2456112e+183
-1.2459287e+183
-1.2486192e+183
-1.2439242e+183
-1.2411219e+183
-1.2436477e+183
-1.2413851e+183
-1.2488893e+183
-1.2462005e+183
-1.2464707e+183
-1.2491573e+183
-1.2419279e+183
-1.2444543e+183
-1.2416536e+183
-1.2441894e+183
-1.2494318e+183
-1.2467408e+183
-1.2470105e+183
-1.2497067e+183
-1.1867865e+183
-1.1860639e+183
-1.1896114e+183
-1.190321e+183
-1.1855079e+183
-1.1851571e+183
-1.1886841e+183
-1.1890391e+183
-1.1960243e+183
-1.1922501e+183
-1.192596e+183
-1.1963525e+183
-1.1969025e+183
-1.1931646e+183
-1.1938542e+183
-1.1975706e+183
-1.1849224e+183
-1.184588e+183
-1.1881452e+183
-1.1884764e+183
-1.1842427e+183
-1.1837751e+183
-1.1872375e+183
-1.1877616e+183
-1.1912808e+183
-1.1907309e+183
-1.1944121e+183
-1.1949722e+183
-1.1954091e+183
-1.1916955e+183
-1.1920367e+183
-1.1957917e+183
-1.25556e+183
-1.2525655e+183
-1.255326e+183
-1.2527841e+183
-1.2530369e+183
-1.2533256e+183
-1.255812e+183
-1.256098e+183
-1.2580834e+183
-1.2610526e+183
-1.2583127e+183
-1.2612824e+183
-1.2588679e+183
-1.261546e+183
-1.2618527e+183
-1.2585721e+183
-1.2640061e+183
-1.2642427e+183
-1.2674713e+183
-1.267217e+183
-1.2704489e+183
-1.27401e+183
-1.2742582e+183
-1.2706957e+183
-1.2680249e+183
-1.2645078e+183
-1.2677339e+183
-1.2648113e+183
-1.2709612e+183
-1.2712512e+183
-1.274523e+183
-1.2748096e+183
-1.2566472e+183
-1.2535869e+183
-1.2563606e+183
-1.2538664e+183
-1.2591351e+183
-1.2621234e+183
-1.2616109e+183
-1.2647823e+183
-1.2651563e+183
-1.261969e+183
-1.2626234e+183
-1.2622869e+183
-1.2654656e+183
-1.2657961e+183
-1.2717871e+183
-1.2679567e+183
-1.2714519e+183
-1.2683038e+183
-1.2689771e+183
-1.2724906e+183
-1.2686315e+183
-1.2721277e+183
-1.2515281e+183
-1.2517992e+183
-1.2542797e+183
-1.254564e+183
-1.2573042e+183
-1.2602626e+183
-1.2570253e+183
-1.2599815e+183
-1.2551076e+183
-1.2520753e+183
-1.2548379e+183
-1.2523493e+183
-1.2575828e+183
-1.260544e+183
-1.2608296e+183
-1.2578597e+183
-1.253367e+183
-1.2502914e+183
-1.2530222e+183
-1.2506191e+183
-1.2557464e+183
-1.2586863e+183
-1.2590339e+183
-1.2560898e+183
-1.2540042e+183
-1.2509323e+183
-1.2536821e+183
-1.2512549e+183
-1.2564133e+183
-1.2593586e+183
-1.2567452e+183
-1.2596993e+183
-1.2629116e+183
-1.2660918e+183
-1.2664063e+183
-1.2632012e+183
-1.2634907e+183
-1.2667001e+183
-1.2637757e+183
-1.266982e+183
-1.2731368e+183
-1.2692869e+183
-1.2728101e+183
-1.2696031e+183
-1.270207e+183
-1.2699108e+183
-1.2734538e+183
-1.2737645e+183
-1.2762472e+183
-1.280074e+183
-1.27658e+183
-1.2804299e+183
-1.2842806e+183
-1.2887456e+183
-1.2839291e+183
-1.2883873e+183
-1.2772257e+183
-1.2769042e+183
-1.2807612e+183
-1.2810846e+183
-1.2849744e+183
-1.2894854e+183
-1.2846264e+183
-1.2891059e+183
-1.2927909e+183
-1.2979209e+183
-1.2931615e+183
-1.2983207e+183
-1.3035185e+183
-1.3092161e+183
-1.3096103e+183
-1.3031273e+183
-1.2935378e+183
-1.2987073e+183
-1.2939329e+183
-1.2991008e+183
-1.3043486e+183
-1.310458e+183
-1.3039271e+183
-1.3100243e+183
-1.2748572e+183
-1.2751967e+183
-1.278639e+183
-1.2790023e+183
-1.2828148e+183
-1.2872404e+183
-1.2824498e+183
-1.2868673e+183
-1.2755441e+183
-1.2793596e+183
-1.279738e+183
-1.2759185e+183
-1.2880368e+183
-1.283186e+183
-1.2876192e+183
-1.283585e+183
-1.2912514e+183
-1.2916317e+183
-1.2963718e+183
-1.2967719e+183
-1.3019586e+183
-1.3080367e+183
-1.3015829e+183
-1.3076727e+183
-1.2920141e+183
-1.2971506e+183
-1.2975613e+183
-1.2924319e+183
-1.308858e+183
-1.3023422e+183
-1.3084173e+183
-1.302769e+183
-1.2897876e+183
-1.2852538e+183
-1.2855074e+183
-1.2900164e+183
-1.2813516e+183
-1.2774838e+183
-1.2777356e+183
-1.2816205e+183
-1.2780011e+183
-1.2818835e+183
-1.2782825e+183
-1.0343877e+183
-1.0763472e+183
-1.0760556e+183
-1.1273481e+183
-1.1064585e+183
-1.1050432e+183
-1.1263877e+183
-1.1265593e+183
-1.1278777e+183
-1.1050244e+183
-1.1064204e+183
-1.129105e+183
-1.1075443e+183
-1.1497578e+183
-1.1497752e+183
-1.1569313e+183
-1.1568535e+183
-1.1503758e+183
-1.1514298e+183
-1.1579676e+183
-1.1573812e+183
-1.162189e+183
-1.1625843e+183
-1.1665345e+183
-1.1663484e+183
-1.1662234e+183
-1.1618869e+183
-1.1618571e+183
-1.1663345e+183
-1.1704395e+183
-1.170232e+183
-1.1738318e+183
-1.1741388e+183
-1.1702298e+183
-1.1702607e+183
-1.1735627e+183
-1.1737248e+183
-1.1771163e+183
-1.1768269e+183
-1.1802416e+183
-1.1806345e+183
-1.1809237e+183
-1.1773308e+183
-1.1776668e+183
-1.1812819e+183
-1.1815449e+183
-1.1779831e+183
-1.1783197e+183
-1.1818783e+183
-1.1744582e+183
-1.1707333e+183
-1.171088e+183
-1.174798e+183
-1.1723172e+183
-1.1716093e+183
-1.1752787e+183
-1.1759658e+183
-1.1823841e+183
-1.1787943e+183
-1.1794971e+183
-1.1831223e+183
-1.152129e+183
-1.1508493e+183
-1.1579902e+183
-1.1590036e+183
-1.1500438e+183
-1.1498262e+183
-1.1569779e+183
-1.1573387e+183
-1.1665565e+183
-1.1620466e+183
-1.1624015e+183
-1.1669058e+183
-1.1674584e+183
-1.1629825e+183
-1.163874e+183
-1.1682283e+183
-1.1529249e+183
-1.1528113e+183
-1.1596161e+183
-1.1601251e+183
-1.1687688e+183
-1.1644356e+183
-1.1650725e+183
-1.1694012e+183
-1.170195e+183
-1.1658255e+183
-1.1668006e+183
-1.1711577e+183
-1.1837206e+183
-1.1800845e+183
-1.1806187e+183
-1.1842238e+183
-1.1764883e+183
-1.172842e+183
-1.1734427e+183
-1.177068e+183
-1.1751144e+183
-1.1741501e+183
-1.1777058e+183
-1.1786623e+183
-1.1848088e+183
-1.1812167e+183
-1.1821061e+183
-1.1856313e+183
-1.3119643e+183
-1.3124364e+183
-1.312878e+183
-1.3133429e+183
-1.3101612e+183
-1.3105758e+183
-1.3110184e+183
-1.3115319e+183
-1.3083025e+183
-1.3087717e+183
-1.3092537e+183
-1.3097631e+183
-1.3067613e+183
-1.3070916e+183
-1.3074548e+183
-1.3078958e+183
-1.299576e+183
-1.2999287e+183
-1.300302e+183
-1.30075e+183
-1.3011608e+183
-1.3016381e+183
-1.3021194e+183
-1.3026542e+183
-1.3030922e+183
-1.303587e+183
-1.3040813e+183
-1.3046351e+183
-1.3050891e+183
-1.305559e+183
-1.3059996e+183
-1.3064317e+183
-1.2298475e+183
-1.2678084e+183
-1.2715263e+183
-1.2359354e+183
-1.2781755e+183
-1.2749133e+183
-1.1947987e+183
-1.2403556e+183
-1.2376812e+183
-1.2603351e+183
-1.2632906e+183
-1.2747222e+183
-1.3072737e+183
-1.3052783e+183
-1.2940681e+183
-1.2959801e+183
-1.2783357e+183
-1.3111911e+183
-1.3091813e+183
-1.2977625e+183
-1.2996895e+183
-1.3149606e+183
-1.3130471e+183
-1.2818287e+183
-1.3033823e+183
-1.3014997e+183
-1.3183282e+183
-1.3166873e+183
-1.2851074e+183
-1.3051283e+183
-1.3067872e+183
-1.314363e+183
-1.3133076e+183
-1.3156202e+183
-1.3166386e+183
-1.3213682e+183
-1.3223892e+183
-1.3123328e+183
-1.3113829e+183
-1.3136534e+183
-1.3146371e+183
-1.3193129e+183
-1.3203477e+183
-1.3162839e+183
-1.3153331e+183
-1.3176063e+183
-1.3185962e+183
-1.3233783e+183
-1.3244059e+183
-1.3183462e+183
-1.3172905e+183
-1.3196027e+183
-1.3206384e+183
-1.3254054e+183
-1.3264069e+183
-1.3257995e+183
-1.3252254e+183
-1.3256702e+183
-1.3262166e+183
-1.3267821e+183
-1.3263192e+183
-1.3267323e+183
-1.3272268e+183
-1.3283112e+183
-1.3287399e+183
-1.3287083e+183
-1.3291687e+183
-1.3278212e+183
-1.3272571e+183
-1.3276987e+183
-1.3282295e+183
-1.3258362e+183
-1.3253022e+183
-1.3243446e+183
-1.3248973e+183
-1.3177487e+183
-1.3221362e+183
-1.3227141e+183
-1.3183e+183
-1.3268603e+183
-1.326362e+183
-1.3254113e+183
-1.3259235e+183
-1.3237417e+183
-1.3232357e+183
-1.3188433e+183
-1.3193453e+183
-1.3273342e+183
-1.3278462e+183
-1.3269036e+183
-1.3263905e+183
-1.3242131e+183
-1.3247377e+183
-1.3203313e+183
-1.3198269e+183
-1.3273477e+183
-1.3283203e+183
-1.3287804e+183