/*--------------------------------*- C++ -*----------------------------------*\
  =========                 |
  \\      /  F ield         | OpenFOAM: The Open Source CFD Toolbox
   \\    /   O peration     | Website:  https://openfoam.org
    \\  /    A nd           | Version:  7
     \\/     M anipulation  |
\*---------------------------------------------------------------------------*/
FoamFile
{
    version     2.0;
    format      ascii;
    class       surfaceScalarField;
    location    "2000";
    object      phi;
}
// * * * * * * * * * * * * * * * * * * * * * * * * * * * * * * * * * * * * * //

dimensions      [0 3 -1 0 0 0 0];

internalField   nonuniform List<scalar> 
100335
(
7.8945423e+87
-1.2848881e+88
-1.4291392e+88
-1.390904e+88
-1.4729631e+88
1.0261175e+87
-1.5684878e+88
-1.2648604e+87
-3.8730889e+86
-1.4203442e+88
-1.277485e+88
-1.2830634e+88
-1.1345763e+88
-2.735824e+87
-2.3128506e+87
1.8067047e+87
-2.5880646e+87
-2.8290945e+87
-3.5642527e+87
-3.3024031e+87
5.0627239e+86
-2.7746903e+87
-2.6054387e+86
3.3498195e+86
-3.8763894e+86
-5.3842877e+86
-5.4391724e+86
-7.0044516e+86
-7.1921352e+86
-9.81834e+86
-1.2435746e+88
-2.5335828e+87
1.6382426e+87
-2.6963083e+87
-2.5587792e+87
-3.3087381e+87
-3.3058261e+87
-1.2067399e+88
1.2082077e+88
-6.3542051e+86
-9.1759398e+86
6.9785943e+86
-9.073336e+86
6.2282956e+86
-1.5138324e+88
-8.8536231e+86
-6.9746877e+86
-7.59702e+86
8.1167113e+86
-1.1567681e+87
1.1331872e+87
1.1594469e+87
-1.5623961e+88
-2.5307494e+86
-3.7732902e+86
2.1638699e+86
2.4290008e+86
-3.4402974e+87
-2.3517329e+86
-7.0781849e+85
-5.6218078e+85
1.0120215e+87
1.1321544e+87
-1.5307667e+88
-3.7765185e+86
-2.8191159e+86
2.281142e+87
4.4484452e+86
-3.2009532e+87
-3.2334861e+87
-2.8411854e+87
-2.7589084e+87
3.9034265e+86
-3.3565556e+87
-2.9436809e+87
-2.7218614e+87
-3.1316103e+87
2.8408192e+87
-2.5765761e+87
-2.431447e+87
-2.0061954e+87
-2.1638089e+87
-2.685185e+87
-2.4161571e+87
-2.0033975e+87
-2.2718287e+87
3.1151559e+86
-2.914646e+86
-2.8365704e+87
8.4962632e+85
-3.9039533e+86
-6.1493662e+86
-6.1917547e+86
-5.0756907e+86
-5.1230434e+86
-4.997495e+86
-4.2504193e+86
-4.128166e+86
-3.696643e+86
-3.5913566e+86
-2.9106236e+86
-5.637958e+86
4.2374863e+86
-7.5470876e+86
-5.6964902e+86
-5.2487663e+86
-6.9535935e+86
-5.4762243e+86
-4.4403593e+86
3.9885692e+86
-5.487044e+86
-5.3719814e+86
-7.1395999e+86
-7.2749276e+86
1.5814141e+86
-2.8168306e+86
-2.8551461e+87
-2.8091542e+87
-5.3530057e+85
-1.0932509e+86
9.8996541e+85
-1.1725544e+86
-1.0973295e+86
-1.5745946e+86
-1.4854064e+86
-1.053048e+86
8.8059421e+85
-5.6346813e+85
-1.1188205e+86
-1.1146293e+86
-1.4776842e+86
-1.5274161e+86
3.7037131e+85
-5.8132076e+86
-4.5079267e+85
-5.9576859e+86
4.05635e+86
-5.1286438e+86
3.6127572e+86
-5.3597943e+86
-5.2211564e+86
-6.8925787e+86
-7.0617872e+86
-5.3417854e+86
4.1057648e+86
-5.5684983e+86
-7.2676464e+86
-5.1248676e+86
-6.7747675e+86
2.261905e+86
-2.7199282e+87
-2.7633428e+87
-1.1954427e+88
-8.8356307e+86
8.5047622e+86
8.908264e+86
-6.7788516e+86
-7.65756e+86
5.7821921e+86
1.1901543e+88
6.1753279e+86
-9.0359267e+86
-8.6761029e+86
6.9707247e+86
6.3300797e+86
-9.4919634e+86
-8.6492094e+86
-1.4963823e+88
6.738534e+86
7.9564545e+86
-7.354833e+86
-6.7997205e+86
8.9293478e+86
9.9714653e+85
2.7099845e+87
-1.3974728e+86
-1.9124501e+86
-1.9536609e+86
1.2313125e+86
-3.4632833e+87
1.3921753e+86
-2.7723693e+87
-1.2773564e+86
3.5427141e+87
-1.7806568e+86
-1.9451787e+86
1.427401e+86
1.3541986e+86
-1.8949595e+86
-2.0519738e+86
1.3600665e+86
1.2804885e+86
-3.5760752e+87
3.4586538e+87
-1.6228718e+86
-1.7950713e+86
-1.8615698e+86
1.2882142e+86
1.4555469e+86
-1.116196e+88
-3.7869753e+86
5.6638068e+86
6.3941291e+86
-9.7781441e+86
-9.8638211e+86
-1.3334193e+86
-1.7201727e+86
1.615268e+86
-1.5464048e+86
2.7371785e+87
-1.7470962e+86
1.5417244e+86
-1.5833242e+86
-1.6465333e+86
1.7195483e+86
-1.8470334e+86
-1.227657e+86
2.1109873e+86
-1.3281392e+86
1.9084644e+86
-9.2119792e+84
-6.9172737e+85
-1.3845568e+88
-7.0611658e+86
5.9085525e+86
6.2506516e+86
-7.3740202e+86
-7.0366292e+86
6.1543875e+86
-2.1104924e+86
2.4342086e+86
2.4174909e+86
-3.4550215e+87
-4.7846046e+85
-6.8655345e+85
-2.6255751e+86
2.244722e+86
2.5042245e+86
-3.5336118e+87
-5.238601e+85
-6.986324e+85
3.3569566e+85
4.8032695e+85
5.3208311e+85
-7.2227469e+86
-4.2105894e+85
-1.2571112e+85
-9.9614207e+84
5.1226856e+85
5.1708323e+85
-7.3969478e+86
-1.3569806e+85
-9.8812597e+84
2.2207413e+86
2.1444466e+86
2.4473046e+86
-3.3762191e+87
-6.8515637e+85
-4.8711798e+85
2.2697664e+86
2.3329069e+86
-3.4246995e+87
-7.2429238e+85
-4.8876199e+85
-2.2591807e+86
3.081811e+86
2.8894719e+86
-9.4493124e+86
-2.627233e+87
3.1817427e+86
-8.45561e+86
-2.616894e+87
2.8342452e+86
3.3411746e+86
-2.7831679e+87
3.1986823e+86
3.3740826e+86
-2.8245791e+87
3.0621702e+86
1.5460595e+86
-8.6480991e+86
-2.6636209e+87
2.047328e+86
3.2365206e+86
-2.8459804e+87
-3.0131411e+86
3.3235632e+86
-2.8396349e+87
-9.0596724e+86
-2.6372627e+87
3.9992814e+86
8.2481824e+85
-6.0251875e+86
-6.0199515e+86
-4.9184049e+86
-5.0458302e+86
7.1129524e+85
4.6507462e+86
-5.2394041e+86
-6.2782633e+86
-5.9236458e+86
-4.8618325e+86
-5.1945075e+86
6.0250596e+86
-4.480611e+86
-4.0029507e+86
-4.0315089e+86
-3.5603711e+86
-4.2462991e+86
-4.0132671e+86
-3.7512749e+86
-3.5211637e+86
2.9020007e+86
6.6124637e+85
-6.1618976e+86
-6.1551821e+86
-5.0516044e+86
-5.1591449e+86
6.7819099e+85
-5.9694684e+86
-6.3547178e+86
-5.285505e+86
-4.9084591e+86
-3.9633402e+86
-4.041297e+86
-4.0363366e+86
-3.5936216e+86
-4.4811968e+86
-4.3436027e+86
-4.1397104e+86
-3.8495597e+86
-3.6738787e+86
1.9016949e+86
2.0841975e+86
-2.5454435e+86
-2.895476e+87
-3.016072e+85
-4.8803229e+85
3.5860383e+85
8.5714564e+85
-4.3477729e+85
-5.0286425e+86
8.6618563e+85
-5.0682421e+86
-4.2558995e+85
7.8803189e+85
-5.0598234e+86
7.7448624e+85
-4.7280913e+85
-4.9931634e+86
5.5297874e+85
2.5153508e+84
-6.5893531e+85
-9.2811453e+85
-9.3641835e+85
-7.7283233e+85
-7.5776275e+85
-2.1280085e+84
-9.7350787e+85
-9.2263705e+85
-8.0692414e+85
-7.4442922e+85
6.6680526e+85
-7.7585855e+85
-6.6971157e+85
-6.9203143e+85
-6.4715772e+85
-6.7294012e+85
-7.0863419e+85
-6.3860587e+85
-7.4128917e+85
-6.7758517e+85
1.1571245e+86
2.5559866e+85
-4.6715596e+85
-6.0584452e+86
3.9436663e+85
-5.9675946e+85
1.0244164e+86
-1.5267458e+86
-1.1434621e+86
-1.1293861e+86
-1.5617939e+86
-1.1563011e+86
1.0500673e+86
-1.1693781e+86
-1.0910177e+86
-1.5790036e+86
-1.4722339e+86
-5.8875974e+86
5.6722469e+85
-1.0883098e+86
-6.6467046e+85
9.4667723e+85
-1.1238613e+86
-1.1119256e+86
-1.481814e+86
-1.530364e+86
-1.1367856e+86
1.0696431e+86
-1.0968828e+86
-1.1709041e+86
-1.5798827e+86
-1.4867035e+86
3.7796649e+85
-5.0542627e+85
-5.855728e+86
-5.9966778e+86
6.5977392e+84
-2.5027037e+85
-1.0370165e+85
2.8748124e+85
-2.3068749e+85
-2.3186321e+85
-3.5055618e+85
-3.58934e+85
-2.5533322e+85
2.9852776e+85
-2.2362054e+85
-2.3616817e+85
-3.6273728e+85
-3.4073086e+85
4.5504641e+84
-8.433572e+84
-1.2737654e+86
-1.2565005e+86
9.4151445e+84
-2.4739405e+85
2.7500107e+85
-9.1493296e+84
-2.2698201e+85
-2.2812227e+85
-3.4113031e+85
-3.5285088e+85
-2.5324848e+85
2.944308e+85
-3.6117734e+85
-2.3545028e+85
-2.2461584e+85
-3.4411827e+85
6.6939679e+84
-1.2359797e+86
-7.5711327e+84
-1.2659775e+86
6.5493351e+85
-1.0531991e+86
9.086449e+85
-1.1109429e+86
-1.0924754e+86
-1.4584708e+86
-1.4976199e+86
-1.1168285e+86
7.6097541e+85
1.0389847e+86
-1.5539449e+86
-1.158984e+86
-1.07685e+86
-1.4595742e+86
4.4558267e+85
-5.6926187e+86
5.7954399e+85
-5.8652723e+86
-1.0947328e+86
5.091437e+85
9.9346886e+85
-1.1235975e+86
-1.1022369e+86
-1.4810253e+86
-1.5085423e+86
3.1896281e+85
-5.8320316e+86
-1.1294654e+86
1.0667046e+86
-1.5478115e+86
-1.1565018e+86
-1.0732356e+86
-1.4400844e+86
-5.7577893e+86
5.7315493e+86
-2.6805582e+85
2.4714682e+85
2.7431128e+85
-7.3202434e+86
-4.2021107e+85
-4.2179651e+85
-2.8745033e+85
-3.7860369e+85
2.727657e+85
-3.6925889e+85
-2.7262786e+87
-9.6125989e+85
1.2976657e+86
1.2250802e+86
-2.1010501e+86
-2.1415105e+86
-5.1915797e+85
-3.4795851e+87
1.1852002e+86
-2.3020778e+86
-2.3403298e+86
1.1947779e+86
1.703138e+86
-2.7876797e+87
-2.229795e+86
-1.2148692e+86
-1.3356988e+86
1.9556936e+86
2.166977e+86
-2.7369557e+87
2.0178553e+86
-1.1667692e+86
-1.3504675e+86
2.0830949e+86
-1.5691522e+86
-3.4406009e+87
1.601479e+86
-1.711408e+86
-1.5125765e+86
1.7021642e+86
-3.5091913e+87
-2.1241422e+86
1.5739663e+86
-1.5696419e+86
-1.6494623e+86
1.7576853e+86
-2.6601566e+87
1.4251484e+86
3.3873046e+87
1.2966002e+86
-1.7084993e+86
-1.7973973e+86
1.4832147e+86
1.1610472e+86
1.4079592e+86
-1.8422736e+86
2.689148e+87
1.4103497e+86
-1.8200148e+86
-2.0009173e+86
1.2286943e+86
-3.4563815e+87
1.3391659e+86
1.8472578e+86
3.4394846e+87
-1.7069123e+86
1.2756471e+86
-1.9040121e+86
1.3805273e+86
-2.7416528e+87
1.3469433e+86
1.3083252e+86
-1.7748296e+86
-1.8612685e+86
1.4827832e+86
1.1090459e+86
1.3866128e+86
1.2276808e+86
-1.9764516e+86
-1.9186569e+86
-3.5326373e+87
2.7036982e+87
-1.8352641e+86
-2.0116994e+86
1.2838358e+86
-3.477965e+87
1.3681597e+86
-1.101812e+88
6.0371898e+86
6.1338886e+86
-9.8301162e+86
-9.4236162e+86
-1.724172e+86
1.4004074e+86
-1.9086267e+86
1.3259706e+86
-1.3717446e+88
6.311512e+86
-6.8417083e+86
6.1403357e+86
-6.834752e+86
-2.6940892e+87
1.8325185e+86
-1.1535632e+86
-1.3058903e+86
1.8799259e+86
2.1430739e+86
1.6279607e+86
-1.6103071e+86
1.7362546e+86
1.5220792e+86
-1.5107026e+86
2.7097596e+87
-1.4921144e+86
-1.6976548e+86
1.5300381e+86
1.6610819e+86
-1.1526464e+86
2.0100397e+86
-1.3694806e+86
1.8947603e+86
-2.2327614e+85
5.776384e+86
2.7457492e+85
2.5016346e+85
2.6179211e+85
-7.3930279e+86
-4.1773426e+85
-4.4132652e+85
5.6690896e+86
-2.9361282e+85
2.3869269e+85
2.7400221e+85
-7.2190017e+86
-4.1849139e+85
-4.2761562e+85
2.4898277e+85
7.1520042e+86
-3.1801518e+85
-3.8174585e+85
2.656682e+85
-3.673397e+85
3.0084833e+85
8.4736866e+85
-2.6889861e+87
-1.0904696e+86
1.3012232e+86
1.1643093e+86
-2.137281e+86
-2.1643172e+86
2.9982725e+85
7.3221101e+86
-3.980068e+85
2.7511094e+85
-3.6821298e+85
2.8671345e+85
-2.3527125e+85
5.6224695e+86
-7.268963e+86
-3.8595248e+85
-3.5641431e+85
2.7419831e+85
2.8500815e+85
5.6774924e+86
-7.3671002e+86
-3.0549475e+85
-3.7741517e+85
2.6465269e+85
-3.6795164e+85
2.9536685e+85
-2.2345697e+85
7.151273e+86
-3.795616e+85
2.8146305e+85
-3.4995053e+85
-2.9487055e+85
7.2610658e+86
-3.7267032e+85
2.7275782e+85
-3.6079193e+85
3.0274461e+85
-2.208372e+85
5.7525591e+86
2.4878998e+85
2.57685e+85
-7.3367629e+86
-4.1935868e+85
-4.4509123e+85
5.8091448e+86
2.4139999e+85
2.6932967e+85
-7.453379e+86
-4.3026006e+85
-4.3447177e+85
-2.3146211e+85
-4.0052155e+85
2.7483775e+85
-3.6976674e+85
2.8312473e+85
-3.9232567e+85
2.6625462e+85
-3.7957262e+85
2.9654189e+85
-2.7613827e+87
1.2659585e+86
1.2192707e+86
-2.2428771e+86
-2.1090393e+86
-2.3478704e+85
5.6350782e+86
-3.8387021e+85
2.7294453e+85
-3.5490564e+85
2.8708482e+85
5.5365588e+86
-3.1495709e+85
-3.6816447e+85
2.6249252e+85
-3.5754309e+85
2.9726115e+85
2.4440837e+85
7.0286516e+86
-3.0287518e+85
-3.6469939e+85
2.6826317e+85
-3.518484e+85
3.0287413e+85
7.1992647e+86
-3.78833e+85
2.7864111e+85
-3.4968571e+85
2.9077631e+85
-5.4144938e+85
-3.5086101e+87
-2.3057102e+86
-2.3649181e+86
1.1925919e+86
1.1944561e+86
-3.4299547e+87
-5.577089e+85
-2.343334e+86
-2.3409718e+86
1.0691008e+86
1.1773287e+86
5.6853847e+86
2.3313955e+85
-2.9354901e+85
-3.5198904e+85
-3.4111822e+85
2.888575e+85
3.2016863e+85
-3.0997796e+85
7.3649116e+86
-3.3848262e+85
3.1664376e+85
-3.2391966e+85
3.4942026e+85
-3.5903935e+85
2.998674e+85
-5.5312135e+86
2.5819872e+85
7.1372462e+86
-3.4270644e+85
-3.2948074e+85
-3.1427878e+85
3.1341577e+85
3.5054449e+85
-2.370149e+85
5.6391552e+86
-3.5924192e+85
2.9662254e+85
-3.2914514e+85
3.1201638e+85
-3.1417256e+85
-3.4399757e+85
2.8448627e+85
-3.3260125e+85
3.201755e+85
7.3002794e+86
-3.4344516e+85
-3.1207085e+85
3.2442473e+85
3.3773627e+85
5.7960473e+86
-2.6626228e+85
3.3680648e+85
-3.0563195e+85
3.8274078e+85
-2.7170088e+85
4.0062346e+85
-2.9330902e+85
-2.444084e+85
4.423009e+85
-2.0901247e+85
4.5841754e+85
5.6938864e+86
-3.6149137e+85
-2.9082197e+85
3.6932446e+85
-2.7608933e+85
4.0803731e+85
-3.7288649e+85
-2.3184584e+85
4.3030391e+85
-2.1118917e+85
4.7191301e+85
3.7402589e+85
-2.9913358e+85
-2.8564493e+85
1.0910824e+88
6.9870226e+85
-1.0392405e+87
-2.8769763e+85
7.9949206e+86
-4.5886233e+86
-5.2712944e+86
7.8258232e+86
2.6068211e+87
-3.7966632e+85
5.195465e+85
-3.1829599e+87
-2.0327696e+86
-1.9337146e+86
1.246997e+86
1.2798292e+86
2.3524548e+85
8.0199763e+83
-2.4386675e+86
-2.4154013e+86
1.0974401e+86
1.1905788e+86
-2.6330062e+87
2.1589738e+85
1.21721e+86
-2.4846091e+86
-2.4164306e+86
1.1977909e+86
-3.4247912e+85
-3.2240909e+87
-2.0193895e+86
-2.0176039e+86
1.2866144e+86
1.2500192e+86
2.6194756e+87
-1.9689824e+86
1.3248017e+86
1.3100754e+86
1.1251699e+86
-2.4402587e+86
-2.4485977e+86
1.2076033e+86
-3.5845086e+85
5.306646e+85
5.2324585e+85
-7.2725229e+86
-1.2370769e+85
-8.6345075e+84
-4.5646994e+85
5.0703581e+85
5.5258168e+85
-7.4873436e+86
-1.2334019e+85
-9.59122e+84
-3.7146654e+85
5.2109183e+85
5.2500805e+85
-7.4269717e+86
-1.3219796e+85
-9.2470965e+84
-4.5303626e+85
4.8567473e+85
5.4097585e+85
-7.2824606e+86
-1.2358442e+85
-9.3395383e+84
5.6931294e+84
1.0972406e+85
1.2004476e+85
-1.5150083e+86
-7.0147393e+84
-3.3437522e+84
-2.9797617e+84
7.3155331e+84
1.1672134e+85
1.1802945e+85
-1.5521843e+86
-3.5537654e+84
-2.884459e+84
5.8567134e+84
1.1259892e+85
1.201416e+85
-1.5602543e+86
-3.5532091e+84
-3.1829481e+84
1.1804574e+85
1.1521159e+85
-1.5365494e+86
-3.5167091e+84
-2.8759786e+84
4.1411943e+85
4.7366543e+85
5.310748e+85
-7.0772736e+86
-1.2269378e+85
-8.8152641e+84
5.2695056e+85
5.0842624e+85
5.2091736e+85
-7.2794018e+86
-1.3083278e+85
-8.4329719e+84
4.0576962e+85
4.7822808e+85
5.3066571e+85
-7.2247602e+86
-1.2700708e+85
-9.2269238e+84
5.1583076e+85
5.1486805e+85
-7.1203046e+86
-1.2392521e+85
-8.0286559e+84
1.7772333e+87
-3.9706722e+86
-5.1237777e+86
-1.4063359e+88
-5.350623e+86
-4.2479901e+86
-1.4197226e+88
-2.1649662e+86
2.776998e+86
2.6428128e+86
-3.3497839e+87
2.8909562e+86
-3.3539819e+87
3.0317387e+86
1.8965323e+86
2.0787601e+86
-2.8289261e+87
-4.4061532e+85
-2.3979844e+85
2.8214699e+86
1.9563212e+86
2.0393548e+86
-2.8531129e+87
-4.6222171e+85
-2.6084541e+85
2.6822521e+86
1.9408121e+86
-3.3967081e+87
2.6683994e+86
1.8983028e+86
2.0617897e+86
-2.8795182e+87
-4.8748543e+85
-3.0190047e+85
-2.7189602e+86
2.0396525e+86
1.9842542e+86
-2.8820861e+87
-4.7058941e+85
-2.8688552e+85
-3.3816953e+87
3.7816785e+85
8.6097284e+85
-4.8876467e+86
8.6705488e+85
4.9330825e+85
-4.9233846e+86
-4.90394e+85
5.7140686e+85
8.0488482e+85
-4.9372431e+86
7.8796983e+85
-4.8944805e+86
-8.5943554e+85
3.7608274e+85
7.8782303e+85
-4.9724651e+86
2.6417921e+85
-4.9522478e+86
8.5456609e+85
4.6467511e+85
-4.939352e+86
7.967701e+85
5.3649082e+85
-4.9644435e+86
5.7945655e+85
-2.9035996e+84
-8.7722918e+85
-9.1839556e+85
-9.1964504e+85
-7.7787809e+85
-7.5005782e+85
-5.1418771e+84
7.9640625e+85
-9.5014567e+85
-8.9541337e+85
-7.2610428e+85
-8.0004763e+85
7.2498265e+85
-1.0683197e+86
-6.8249452e+85
-7.1613652e+85
-6.442012e+85
-6.8090541e+85
9.4074787e+85
-7.090508e+85
-7.5160977e+85
-6.2704812e+85
-6.731416e+85
7.0157133e+85
1.6816494e+84
-9.0341381e+85
-9.0802241e+85
-7.6031335e+85
-7.3240406e+85
-3.7773076e+84
-9.4103545e+85
-8.9015058e+85
-7.945669e+85
-7.2051303e+85
8.5610208e+85
-6.6486534e+85
-6.2472399e+85
-6.5546909e+85
-6.9529971e+85
-7.4521795e+85
-6.6376635e+85
-7.0448465e+85
-6.1870057e+85
3.4347832e+85
8.4203995e+85
-4.9844375e+86
8.3989492e+85
4.1507285e+85
-5.0048809e+86
-4.3433969e+85
4.6942558e+85
7.717485e+85
-5.0185431e+86
7.7109928e+85
-4.9860528e+86
-2.2211233e+85
8.6908144e+85
-5.0115615e+86
8.6443667e+85
-5.0419394e+86
3.0787151e+85
7.8162021e+85
-5.0411337e+86
8.0052412e+85
-5.0048388e+86
-3.2777388e+84
-4.6085102e+85
-9.6284301e+85
-7.9861235e+85
-7.3433375e+85
-9.1029001e+85
5.8305019e+85
3.8765455e+84
-8.5408499e+85
-6.6220565e+85
-6.9170555e+85
-7.2621275e+85
-6.9952618e+85
-7.0899477e+85
-7.4602859e+85
-6.7689268e+85
-6.3722389e+85
-7.0868822e+85
-9.3669153e+85
-9.3214995e+85
-7.8271767e+85
-7.6141443e+85
6.1054121e+85
-5.4581514e+83
-9.2330689e+85
-9.2818463e+85
-7.7684758e+85
-7.5284079e+85
-6.7585856e+84
-9.5515724e+85
-9.043335e+85
-8.0271044e+85
-7.3632163e+85
7.3898092e+85
-6.7742923e+85
-6.4454047e+85
-6.7695762e+85
-7.0764616e+85
-6.3663102e+85
-7.5445303e+85
-6.8359541e+85
-7.1224601e+85
-2.1409927e+86
2.309189e+86
2.1529915e+86
-3.0175366e+87
-8.148483e+85
-6.5555889e+85
-3.2002259e+85
1.0666612e+86
-6.5149926e+86
1.0597637e+86
-4.0101927e+85
-6.4954404e+86
-4.9724841e+85
4.1983958e+85
4.3388491e+85
-1.3998235e+86
-1.4550238e+86
-1.0721093e+86
-1.0457662e+86
6.3702662e+84
9.0997646e+84
4.043429e+85
4.3495544e+85
-4.7095846e+85
-1.4237831e+86
-1.4245878e+86
6.536468e+84
-1.0629324e+86
-1.0415934e+86
8.8545417e+84
4.9195862e+84
2.1487533e+85
-6.0247067e+84
-7.2759528e+85
2.1385607e+85
6.4682917e+84
-7.3080579e+85
8.3242579e+84
9.4727084e+84
-9.6515855e+84
-1.8796488e+85
-1.8523459e+85
-1.3408945e+85
-1.3212162e+85
9.9861138e+84
8.0657454e+84
-1.3773015e+85
-1.9254973e+85
-1.820208e+85
-1.2888158e+85
3.4205558e+84
2.1699179e+85
-7.4018225e+85
2.1788379e+85
-7.3470243e+85
6.5784708e+84
9.0879182e+84
-1.3546247e+85
-1.8752847e+85
-1.3365263e+85
-1.9009138e+85
9.0625661e+84
-1.9512528e+85
-1.8371113e+85
-1.3918082e+85
-1.3015966e+85
-1.3686093e+85
1.0378945e+85
-1.1981081e+85
-1.1535067e+85
-1.1881967e+85
-9.5067263e+84
-9.2864487e+84
9.7260435e+84
-1.0180839e+85
-1.8153695e+85
-9.4590189e+84
-9.3324959e+84
-1.7989122e+85
-1.6140288e+85
1.2687952e+85
-1.0115955e+85
-1.2288088e+85
-1.1362208e+85
-9.0524847e+84
1.1461139e+85
-9.0688707e+84
-9.8772383e+84
-1.906596e+85
-1.7714246e+85
8.545446e+84
-1.450068e+85
-9.7669704e+84
-1.2091207e+85
-1.1781875e+85
-9.4922406e+84
-1.5209707e+85
-1.0115382e+85
-1.242195e+85
-1.1534106e+85
-9.0678841e+84
7.3857788e+84
-1.8488677e+85
-9.7841791e+84
-9.4106336e+84
-1.8122617e+85
-9.1272829e+84
-9.8986374e+84
-1.9043464e+85
-1.772408e+85
2.5838117e+85
6.1042968e+84
-7.8832086e+84
-1.2603018e+86
8.8666088e+84
-9.7122865e+84
2.9108456e+85
-2.3178458e+85
-2.3045769e+85
-3.459463e+85
-3.5951988e+85
-2.6493029e+85
9.0403109e+84
3.1145962e+85
-2.2649477e+85
-2.387749e+85
-3.6588706e+85
-3.4649552e+85
7.278073e+84
-1.2858802e+86
5.7819485e+84
-2.6452564e+85
3.0619408e+85
-2.3322383e+85
-2.321017e+85
-3.5144273e+85
-3.6169449e+85
-2.6485381e+85
3.0596112e+85
-2.2436512e+85
-2.3701768e+85
-3.6353512e+85
-3.408808e+85
3.812623e+84
-1.2782101e+86
-1.251427e+86
1.0512943e+85
-2.5159746e+85
-1.0801428e+85
2.8251803e+85
-2.2794004e+85
-2.2850457e+85
-3.4227702e+85
-3.531753e+85
-2.6059219e+85
1.1588865e+85
3.0558631e+85
-2.2338176e+85
-2.369334e+85
-3.6359369e+85
-3.4376988e+85
7.3212524e+84
-8.7328153e+84
-1.2336211e+86
9.1716553e+84
-1.2684842e+86
-7.3416574e+84
-2.6565183e+85
3.1327589e+85
-2.3795644e+85
-2.235995e+85
-3.6491526e+85
-3.4174177e+85
-2.6033002e+85
3.0509777e+85
-2.317747e+85
-3.5098856e+85
-3.5920162e+85
-2.3123478e+85
4.8025877e+84
-1.2754302e+86
-1.2581535e+86
-1.7946963e+84
-4.9010528e+84
1.7402819e+84
1.1945198e+85
-3.0058481e+85
-4.8788356e+84
-1.9748353e+84
1.1606819e+85
-2.9734168e+85
1.2364872e+84
-1.5645494e+84
-2.8346501e+85
1.3074796e+84
-2.8851285e+85
-1.029124e+84
-4.9439985e+84
1.1912456e+85
-2.9915743e+85
-4.9435199e+84
1.1990043e+85
-2.9952179e+85
6.3396802e+83
-2.8739165e+85
-2.8215673e+85
-1.9453389e+84
-4.9471737e+84
2.0691109e+84
1.204179e+85
-2.9916591e+85
-4.8351683e+84
1.1578871e+85
-1.8355923e+84
-2.9665677e+85
1.3392591e+84
-2.7886685e+85
-1.428368e+84
1.6045063e+84
-2.8493033e+85
4.9025904e+84
8.6611303e+83
-2.8609797e+85
1.3176298e+84
1.1922455e+85
-2.9813413e+85
-5.0396334e+84
1.1972491e+85
-3.0051648e+85
-2.8346953e+85
1.1381066e+85
-2.4509773e+85
2.7608798e+85
-3.3830852e+85
-2.270912e+85
-2.2528245e+85
-3.5006742e+85
-2.5457702e+85
1.321774e+85
2.9688311e+85
-2.2026112e+85
-2.3481225e+85
-3.594086e+85
-3.3866592e+85
8.1532355e+84
-1.2161091e+86
1.0695809e+85
-1.2465477e+86
2.532221e+85
6.1654429e+84
-1.253437e+86
9.0710623e+84
2.9349731e+85
-2.2942587e+85
-2.2787515e+85
-3.4564425e+85
-3.5484711e+85
-2.6071569e+85
1.2710405e+85
3.0369507e+85
-3.6054241e+85
-2.3611504e+85
-2.215453e+85
-3.3801995e+85
1.0169656e+85
-1.2394146e+86
1.1092519e+85
-2.4722629e+85
2.8166022e+85
-2.2602433e+85
-2.2666814e+85
-3.3894204e+85
-3.5021813e+85
-2.5609505e+85
1.1538372e+85
3.0465428e+85
-2.2130936e+85
-2.356018e+85
-3.5962085e+85
-3.3872267e+85
7.5317284e+84
-1.2236443e+86
9.0742581e+84
-1.249397e+86
2.5955938e+85
4.8884556e+84
-1.2496821e+86
7.4060987e+84
3.0338962e+85
-2.2994511e+85
-2.2900499e+85
-3.5377066e+85
-3.4628845e+85
-2.6368362e+85
3.0794363e+85
-2.3554146e+85
-2.2100873e+85
-3.5924597e+85
-3.3565272e+85
-1.2273436e+86
-2.1609392e+85
-5.8095959e+86
2.5814878e+85
-4.3124369e+85
-4.0748074e+85
2.6521646e+85
4.3164713e+84
-1.2152896e+86
1.5058477e+86
-5.0412757e+84
-7.5246344e+84
-7.636201e+84
5.5641057e+84
5.9804092e+84
-1.2300445e+86
1.5336838e+86
5.7441849e+84
5.7732993e+84
-7.8483541e+84
-7.5717779e+84
-5.7965447e+86
-2.5377365e+85
2.6256222e+85
-4.059251e+85
-4.0470025e+85
2.8712423e+85
-3.5254078e+84
-1.5790708e+86
-8.3610524e+84
-4.4467013e+84
-1.5521699e+86
-7.5703347e+84
1.1562369e+86
3.4036314e+84
-4.3561618e+84
6.382468e+84
-7.1303645e+84
5.9828872e+84
-7.1817455e+84
-4.0567041e+84
-7.2828911e+84
5.9274537e+84
6.34687e+84
-7.3168193e+84
6.2545844e+84
-7.342247e+84
6.2277945e+84
-7.0193164e+84
1.9512241e+85
-7.5632107e+86
-2.5383531e+85
2.6747056e+85
-4.1618833e+85
-4.1756348e+85
2.9061031e+85
-7.6333713e+86
-4.2491457e+85
-4.4827739e+85
2.583457e+85
2.6205826e+85
-6.0141235e+86
1.9030548e+85
-2.5026178e+85
2.7268442e+85
-4.3443837e+85
-4.3724467e+85
2.9506771e+85
1.4966931e+85
-2.0425264e+85
-7.8578849e+86
2.6222512e+85
-4.6859903e+85
-4.7884687e+85
2.8148766e+85
6.0738014e+86
-8.006347e+86
-4.782351e+85
-5.0178526e+85
2.594733e+85
2.5750133e+85
2.554662e+85
-4.677791e+85
-4.4529417e+85
2.6034382e+85
-3.0716495e+85
5.803587e+86
4.0791104e+85
-7.3194758e+86
-3.0743817e+85
-2.7130698e+85
3.7925666e+85
3.9976339e+85
5.7413318e+86
-7.2034208e+86
-4.0056956e+85
-2.9103131e+85
3.7047566e+85
-2.7337076e+85
4.1372286e+85
3.31724e+85
-3.8699939e+85
-2.3188982e+85
4.3230811e+85
-2.0828104e+85
4.7770388e+85
4.2128526e+85
-2.4438457e+85
4.4354303e+85
-2.0659761e+85
4.6147072e+85
-5.8375865e+86
3.1373351e+85
-2.3609133e+85
-2.1385791e+85
4.429515e+85
4.8264844e+85
-3.113236e+85
5.7243382e+86
-7.1695267e+86
-3.0076402e+85
-2.6382231e+85
3.8808329e+85
4.0475576e+85
-7.3145461e+86
-2.937174e+85
3.7804499e+85
-2.7706346e+85
4.1581611e+85
-2.3723802e+85
-1.996095e+85
4.4994071e+85
4.6266418e+85
-5.6352198e+86
2.885614e+85
-3.8841553e+85
-3.3480785e+85
3.1899947e+85
-3.174008e+85
3.5521705e+85
2.7070437e+85
-3.5553862e+85
-7.1870251e+86
-3.4900742e+85
-3.357452e+85
2.8805533e+85
3.2193003e+85
5.5522097e+86
-7.0483739e+86
-3.5433861e+85
-3.2112221e+85
3.0017252e+85
3.1540842e+85
-3.3729461e+85
-3.0210596e+85
3.2849818e+85
3.4160467e+85
-5.5752412e+86
2.9989546e+85
-3.8062178e+85
-3.3099819e+85
3.1440651e+85
-3.1271457e+85
3.5582007e+85
-2.7352353e+85
5.6531339e+86
-7.2187889e+86
-3.6120231e+85
-3.2811302e+85
2.9214465e+85
3.1116965e+85
-7.0703255e+86
-3.6345579e+85
-3.4433139e+85
2.8443652e+85
-3.2964037e+85
3.2509009e+85
-3.4552672e+85
-3.1093773e+85
3.2139461e+85
3.3789317e+85
-5.4606158e+86
3.0352742e+85
6.9470762e+86
-3.5864702e+85
2.6860135e+85
-3.3915201e+85
3.1028407e+85
-2.8155688e+85
5.5463416e+86
-7.1836188e+86
3.6888421e+85
-3.7794986e+85
-3.407799e+85
2.6848279e+85
2.9169913e+85
-3.4501667e+85
3.0359237e+85
3.8498292e+85
7.0877485e+86
-3.7327982e+85
-3.3449773e+85
2.7302415e+85
2.9510657e+85
-5.6673805e+86
3.5046412e+85
-3.8996606e+85
2.7148614e+85
-3.5267604e+85
2.9125482e+85
3.2326935e+85
2.4593087e+85
2.6530831e+85
-7.2616463e+86
-4.0115732e+85
-4.3248617e+85
-2.5836182e+85
5.5919058e+86
3.0758974e+85
2.4139681e+85
2.5983529e+85
-7.1275355e+86
-4.0097845e+85
-4.3386692e+85
5.6322904e+86
2.2995059e+85
2.6658207e+85
-7.2283331e+86
-4.1246506e+85
-4.2403478e+85
2.8008981e+85
7.1317902e+86
-3.834229e+85
2.5346122e+85
-3.6284599e+85
2.9237696e+85
-2.6609861e+87
1.0959115e+86
1.2268242e+86
1.1599339e+86
-2.1981793e+86
-2.0544286e+86
7.0542985e+86
3.4930756e+85
-3.9055768e+85
2.6606115e+85
-3.5165055e+85
2.8370284e+85
-2.9371535e+85
5.4484484e+86
3.6217825e+85
-3.7663708e+85
2.6339742e+85
-3.3969465e+85
2.8340966e+85
-5.4864793e+86
2.8428726e+85
7.0220044e+86
-3.6732185e+85
2.5769713e+85
-3.4634769e+85
2.9679074e+85
-3.7013609e+85
2.4957799e+85
-3.5217588e+85
2.8920178e+85
3.4866245e+85
6.9193255e+86
-3.7247835e+85
2.6846875e+85
-3.3580756e+85
2.8509282e+85
7.4216768e+85
-3.3971404e+87
-2.2577122e+86
-2.3598255e+86
1.1252931e+86
1.1215716e+86
-5.5493042e+86
2.7520495e+85
-3.6548248e+85
2.6859605e+85
-3.4987563e+85
3.0752378e+85
-2.6286752e+85
5.6424872e+86
-7.3007138e+86
3.2902163e+85
-3.8479889e+85
-3.5424399e+85
2.6961886e+85
2.8666745e+85
-7.1480047e+86
-3.6796471e+85
2.6056819e+85
-3.5541667e+85
2.9955603e+85
3.4383914e+85
-3.8050064e+85
-3.4816329e+85
2.7540917e+85
2.9110236e+85
-2.7092685e+85
-5.7580572e+86
3.240291e+85
-3.9852667e+85
2.7153729e+85
-3.679206e+85
2.8576431e+85
-5.6637378e+86
-3.8017524e+85
2.6398378e+85
-3.6500645e+85
3.0299253e+85
2.4574436e+85
2.3360364e+85
2.723222e+85
-7.2397828e+86
-4.2705312e+85
-4.1743423e+85
3.0176131e+85
2.4290843e+85
2.5770732e+85
-7.3730848e+86
-4.1695655e+85
-4.4330577e+85
7.8966442e+85
-2.7170504e+87
1.1768626e+86
1.2849856e+86
-2.1321537e+86
-2.1421282e+86
-2.4635276e+85
5.686734e+86
2.5412875e+85
2.6689611e+85
-7.2459317e+86
-4.0867165e+85
-4.3567985e+85
5.7593752e+86
2.4432794e+85
2.7518329e+85
-7.3861807e+86
-4.2128954e+85
-4.2770706e+85
2.5878116e+85
7.2949762e+86
-3.8525318e+85
2.6823559e+85
-3.7044979e+85
3.009506e+85
-2.7178092e+87
1.2668568e+86
1.2160195e+86
-2.2021009e+86
-2.0492505e+86
7.1757137e+86
-3.9168755e+85
2.789979e+85
-3.5827014e+85
2.9090603e+85
5.2745677e+85
-3.4397135e+87
1.1119442e+86
-2.3127311e+86
-2.3650017e+86
1.1770133e+86
-3.4374773e+87
-2.2673319e+86
-2.3590136e+86
1.1822484e+86
1.1869091e+86
5.5559229e+86
-2.6400095e+85
-3.7790203e+85
2.7704874e+85
-3.4612021e+85
2.9163657e+85
-2.5262171e+85
-3.7395244e+85
2.80954e+85
-3.4193643e+85
2.9263803e+85
5.6189885e+86
-3.7120581e+85
2.6516021e+85
-3.5960452e+85
2.9803208e+85
-3.6942196e+85
2.7049014e+85
-3.5483562e+85
3.0291894e+85
-9.6336219e+84
-1.232346e+88
-1.0628206e+87
1.0890486e+88
-1.2400119e+88
-1.073423e+87
-4.5537633e+86
8.198602e+86
7.8309618e+86
-4.3596341e+86
2.5555534e+87
-3.2342592e+85
-3.143842e+87
1.3241826e+86
-1.9192503e+86
1.2860069e+86
-1.9156583e+86
3.4053867e+85
1.1390032e+86
-2.4222764e+86
-2.3477614e+86
1.1285362e+86
-2.5652061e+87
2.9436124e+85
1.170512e+86
-2.3954351e+86
-2.4132606e+86
1.2507987e+86
-2.4294735e+85
-3.1306486e+87
1.2886463e+86
-1.8919039e+86
1.321243e+86
-1.9857477e+86
-2.559038e+87
1.2314448e+86
-2.4365137e+86
-2.3470327e+86
1.2104241e+86
-3.090427e+87
1.3454902e+86
-1.9222708e+86
1.2663201e+86
-1.9338023e+86
-3.3906872e+85
5.6979412e+86
-7.1731391e+86
4.3821922e+85
-3.0041668e+85
3.7732891e+85
-2.5903841e+85
4.0461216e+85
5.5948779e+86
-7.0236708e+86
-2.862262e+85
3.6430185e+85
-2.6429127e+85
4.1014442e+85
3.6061427e+85
-2.2775899e+85
-1.9990361e+85
4.2375267e+85
4.7219552e+85
4.5910266e+85
-2.3880754e+85
-1.9568143e+85
4.3639006e+85
4.6122421e+85
5.4656534e+86
3.0788636e+85
-3.3811089e+85
-3.1923063e+85
2.8294902e+85
3.2642659e+85
-3.3276295e+85
-5.5445958e+86
4.1822339e+85
-3.3819275e+85
3.1809803e+85
-2.9829534e+85
3.4064185e+85
-3.2430969e+85
3.0896785e+85
-3.0148273e+85
3.5306915e+85
4.0526384e+85
-3.5410257e+85
-3.1514165e+85
2.8949952e+85
3.1481761e+85
-3.0775803e+85
5.4449046e+86
-3.5256597e+85
-3.1465162e+85
2.8680432e+85
3.0702243e+85
5.5053239e+86
-3.4616955e+85
-3.2662858e+85
2.74405e+85
3.1492499e+85
3.2136897e+85
7.1281358e+86
-3.3257132e+85
-3.0918722e+85
3.0236286e+85
3.4347676e+85
7.0319805e+86
-3.3626857e+85
-2.9711531e+85
3.1539256e+85
3.3274504e+85
5.6083313e+86
-3.4394454e+85
-2.9828515e+85
3.7432075e+85
-2.5707859e+85
3.9542158e+85
-3.4195944e+85
-2.3701153e+85
4.343598e+85
-1.9563798e+85
4.5131648e+85
5.656294e+86
-2.9303255e+85
3.588573e+85
-2.7067904e+85
4.0149045e+85
-2.3538621e+85
-2.0686439e+85
4.205005e+85
4.6518755e+85
4.4278639e+84
-1.2340829e+86
-5.9438581e+84
1.5401258e+86
-7.824322e+84
-7.8088237e+84
5.5382103e+84
6.023014e+84
-1.2206369e+86
1.5170362e+86
5.431363e+84
5.6515236e+84
5.741819e+84
-8.1374007e+84
-7.7201733e+84
-2.1965843e+85
-5.8146306e+86
2.5103512e+85
2.6107102e+85
-4.3259511e+85
-4.0748437e+85
2.7045734e+85
-3.809057e+84
4.6868851e+84
-1.5596728e+86
-8.7476318e+84
-5.145418e+84
-1.585216e+86
-7.6829811e+84
5.0670443e+84
-1.2058703e+86
1.4973743e+86
-6.3911717e+84
-7.7132067e+84
-7.7425469e+84
5.4748536e+84
6.023913e+84
-1.2289931e+86
1.5334061e+86
5.7566091e+84
5.9121926e+84
-7.9742979e+84
-7.6123995e+84
-5.7136984e+86
-2.7480583e+85
-4.0642045e+85
-4.1671123e+85
2.5203035e+85
2.8525452e+85
-4.0548932e+84
-1.577937e+86
-8.045249e+84
-5.3254469e+84
-1.5403232e+86
-8.0457211e+84
1.1509577e+86
4.2699048e+84
-5.6787557e+84
-7.2413792e+84
-7.1656246e+84
6.4054545e+84
5.8774856e+84
4.2979428e+84
1.4514611e+86
-5.1968236e+84
-7.4013486e+84
-7.3256456e+84
5.8061978e+84
6.3361578e+84
1.1736322e+86
5.2934949e+84
6.3926492e+84
-7.4297745e+84
6.2141717e+84
-6.9572098e+84
5.0829499e+84
1.490194e+86
6.1289285e+84
-7.6188585e+84
-7.1509182e+84
6.2844904e+84
-1.9621967e+85
2.3199052e+85
-7.6377639e+86
-4.2683685e+85
-4.5073539e+85
2.6150514e+85
2.6614811e+85
-7.4721508e+86
-2.6831485e+85
-4.26567e+85
-4.3363108e+85
2.477452e+85
2.7868288e+85
1.1762103e+86
4.1672243e+84
6.4320495e+84
-7.3841505e+84
5.9446406e+84
-7.2753989e+84
3.6618297e+84
1.4919581e+86
5.8915418e+84
-7.5196868e+84
-7.3942517e+84
6.3798359e+84
1.1654391e+86
4.8903581e+84
6.2109041e+84
-7.5989891e+84
6.0971198e+84
-7.0937616e+84
4.6577707e+84
1.4712467e+86
6.0187815e+84
-7.7541755e+84
-7.2644755e+84
6.0945227e+84
3.2128478e+84
1.1499885e+86
-4.2530934e+84
-1.4946951e+86
-7.4908373e+84