/*--------------------------------*- C++ -*----------------------------------*\
  =========                 |
  \\      /  F ield         | OpenFOAM: The Open Source CFD Toolbox
   \\    /   O peration     | Website:  https://openfoam.org
    \\  /    A nd           | Version:  7
     \\/     M anipulation  |
\*---------------------------------------------------------------------------*/
FoamFile
{
    version     2.0;
    format      ascii;
    class       volScalarField;
    location    "2000";
    object      pMean;
}
// * * * * * * * * * * * * * * * * * * * * * * * * * * * * * * * * * * * * * //

dimensions      [0 2 -2 0 0 0 0];

internalField   nonuniform List<scalar> 
33730
(
-1.8855054e+179
-1.8990747e+179
-1.8758601e+179
-1.9126683e+179
-1.9474242e+179
-1.9457576e+179
-1.8997253e+179
-1.9070183e+179
-1.8921821e+179
-1.8159494e+179
-1.8505715e+179
-1.8870343e+179
-1.9388011e+179
-1.8778997e+179
-1.898502e+179
-1.9063187e+179
-1.8985277e+179
-1.9066402e+179
-1.9338795e+179
-1.9286197e+179
-1.9381859e+179
-1.9382076e+179
-1.9348855e+179
-1.9367119e+179
-1.9403649e+179
-1.9571566e+179
-1.955171e+179
-1.9571348e+179
-1.9606181e+179
-1.926106e+179
-1.930553e+179
-1.9274272e+179
-1.9330808e+179
-1.8423156e+179
-1.7991548e+179
-1.8078244e+179
-1.8324039e+179
-1.8155394e+179
-1.8439743e+179
-1.8179545e+179
-1.8403413e+179
-1.7620981e+179
-1.8736148e+179
-1.8691591e+179
-1.899828e+179
-1.7106399e+179
-1.7151874e+179
-1.9334385e+179
-1.9283212e+179
-1.9585781e+179
-1.9616028e+179
-1.918058e+179
-1.9235937e+179
-1.9118783e+179
-1.9068738e+179
-1.9135275e+179
-1.9173937e+179
-1.9175155e+179
-1.9225105e+179
-1.9274668e+179
-1.92184e+179
-1.908288e+179
-1.9115263e+179
-1.921825e+179
-1.9181575e+179
-1.9168541e+179
-1.9216179e+179
-1.9314075e+179
-1.9268078e+179
-1.9359868e+179
-1.9372965e+179
-1.9395362e+179
-1.9474532e+179
-1.9458256e+179
-1.9405702e+179
-1.941638e+179
-1.9469747e+179
-1.9481222e+179
-1.9529388e+179
-1.9501473e+179
-1.9517246e+179
-1.95361e+179
-1.9457094e+179
-1.9481114e+179
-1.9473697e+179
-1.9508116e+179
-1.9642324e+179
-1.9647468e+179
-1.965906e+179
-1.9657978e+179
-1.9624425e+179
-1.9630155e+179
-1.9624634e+179
-1.9646849e+179
-1.9340173e+179
-1.9370701e+179
-1.9359948e+179
-1.9403826e+179
-1.9403838e+179
-1.9432807e+179
-1.9423791e+179
-1.9444038e+179
-1.8180237e+179
-1.8302334e+179
-1.7896438e+179
-1.7650651e+179
-1.891403e+179
-1.8951899e+179
-1.8650984e+179
-1.8615631e+179
-1.8238541e+179
-1.8000663e+179
-1.8043265e+179
-1.8280056e+179
-1.8323562e+179
-1.8067045e+179
-1.8099886e+179
-1.7563387e+179
-1.8363474e+179
-1.7056964e+179
-1.8812311e+179
-1.8514642e+179
-1.8559269e+179
-1.8865641e+179
-1.8134671e+179
-1.8116497e+179
-1.8234036e+179
-1.7820371e+179
-1.8254238e+179
-1.845826e+179
-1.8444405e+179
-1.8593928e+179
-1.8579963e+179
-1.8163615e+179
-1.815126e+179
-1.828395e+179
-1.8271368e+179
-1.7859438e+179
-1.8422372e+179
-1.8402508e+179
-1.8539843e+179
-1.8561396e+179
-1.7628217e+179
-1.7579983e+179
-1.880635e+179
-1.8988199e+179
-1.8823053e+179
-1.8941019e+179
-1.8784801e+179
-1.8764743e+179
-1.8966661e+179
-1.9204849e+179
-1.9377212e+179
-1.9178727e+179
-1.9345028e+179
-1.9226655e+179
-1.6332422e+179
-1.663383e+179
-1.7163407e+179
-1.7431863e+179
-1.7483634e+179
-1.7191243e+179
-1.7223528e+179
-1.7496165e+179
-1.9556213e+179
-1.9539766e+179
-1.9511241e+179
-1.9480782e+179
-1.9656353e+179
-1.9676413e+179
-1.9691279e+179
-1.969621e+179
-1.9373582e+179
-1.9408081e+179
-1.9438885e+179
-1.9458189e+179
-1.8750874e+179
-1.8852105e+179
-1.908396e+179
-1.902876e+179
-1.9159216e+179
-1.9206728e+179
-1.914224e+179
-1.9262528e+179
-1.9306872e+179
-1.9182208e+179
-1.9160083e+179
-1.9188662e+179
-1.9270366e+179
-1.9245692e+179
-1.9296896e+179
-1.9216139e+179
-1.9236685e+179
-1.932211e+179
-1.9246936e+179
-1.926935e+179
-1.9312509e+179
-1.9336214e+179
-1.919591e+179
-1.9214403e+179
-1.9257479e+179
-1.9278381e+179
-1.9272362e+179
-1.9298653e+179
-1.9378344e+179
-1.9355728e+179
-1.9337819e+179
-1.9317555e+179
-1.9397853e+179
-1.942484e+179
-1.9369287e+179
-1.9410324e+179
-1.9436722e+179
-1.934442e+179
-1.930579e+179
-1.9324565e+179
-1.937029e+179
-1.9392712e+179
-1.9368031e+179
-1.9504244e+179
-1.9479016e+179
-1.9596942e+179
-1.9575932e+179
-1.9498853e+179
-1.950938e+179
-1.9531066e+179
-1.9536024e+179
-1.951882e+179
-1.952822e+179
-1.9543603e+179
-1.9555575e+179
-1.9542293e+179
-1.9589209e+179
-1.9550479e+179
-1.9590664e+179
-1.9560229e+179
-1.9570553e+179
-1.9600411e+179
-1.960974e+179
-1.9579174e+179
-1.9568853e+179
-1.9582346e+179
-1.9599517e+179
-1.9592203e+179
-1.959841e+179
-1.9606537e+179
-1.9604746e+179
-1.9520208e+179
-1.9535707e+179
-1.952775e+179
-1.9549304e+179
-1.9549633e+179
-1.9548678e+179
-1.9559359e+179
-1.9558083e+179
-1.9643528e+179
-1.9642428e+179
-1.9683755e+179
-1.9694521e+179
-1.9642872e+179
-1.9651212e+179
-1.9698171e+179
-1.9690047e+179
-1.961014e+179
-1.9589969e+179
-1.9643615e+179
-1.9663263e+179
-1.9672185e+179
-1.9623226e+179
-1.9624195e+179
-1.9671429e+179
-1.9395142e+179
-1.941421e+179
-1.9405345e+179
-1.943135e+179
-1.9448871e+179
-1.9433844e+179
-1.9441444e+179
-1.9453531e+179
-1.9467245e+179
-1.9479327e+179
-1.9476356e+179
-1.9497545e+179
-1.9509633e+179
-1.9490382e+179
-1.949294e+179
-1.9508771e+179
-1.80022e+179
-1.8182355e+179
-1.8187081e+179
-1.798772e+179
-1.8143043e+179
-1.8137636e+179
-1.8282161e+179
-1.8335383e+179
-1.8288735e+179
-1.7873968e+179
-1.7888968e+179
-1.7734396e+179
-1.7640998e+179
-1.7643406e+179
-1.7746624e+179
-1.9109405e+179
-1.9081373e+179
-1.9244123e+179
-1.9276986e+179
-1.9305923e+179
-1.9155051e+179
-1.914007e+179
-1.9318008e+179
-1.8899833e+179
-1.8723921e+179
-1.8743729e+179
-1.8918275e+179
-1.8850253e+179
-1.8699534e+179
-1.8678604e+179
-1.8875584e+179
-1.8364889e+179
-1.8260117e+179
-1.8240305e+179
-1.8388624e+179
-1.8096865e+179
-1.7983445e+179
-1.8018022e+179
-1.8002408e+179
-1.8116831e+179
-1.7725444e+179
-1.8133237e+179
-1.829646e+179
-1.8411545e+179
-1.827991e+179
-1.8430945e+179
-1.7497212e+179
-1.8454987e+179
-1.8344603e+179
-1.8323783e+179
-1.8477081e+179
-1.8172768e+179
-1.8152368e+179
-1.8034703e+179
-1.8054761e+179
-1.7759604e+179
-1.809482e+179
-1.8075958e+179
-1.8194459e+179
-1.7780841e+179
-1.821301e+179
-1.7533278e+179
-1.7554863e+179
-1.8382587e+179
-1.8519884e+179
-1.8365917e+179
-1.850114e+179
-1.6321024e+179
-1.6327244e+179
-1.661443e+179
-1.709659e+179
-1.7346445e+179
-1.7394581e+179
-1.713806e+179
-1.742441e+179
-1.7166462e+179
-1.9010632e+179
-1.8978439e+179
-1.9142224e+179
-1.9178901e+179
-1.8576361e+179
-1.8778867e+179
-1.8749204e+179
-1.8601846e+179
-1.8650179e+179
-1.8628835e+179
-1.8804665e+179
-1.8824916e+179
-1.905729e+179
-1.9224496e+179
-1.9038719e+179
-1.9207875e+179
-1.8133679e+179
-1.8142359e+179
-1.7943488e+179
-1.8099584e+179
-1.8089906e+179
-1.8115054e+179
-1.812357e+179
-1.7923457e+179
-1.8080657e+179
-1.8072972e+179
-1.8213672e+179
-1.8266086e+179
-1.8222427e+179
-1.8274839e+179
-1.78304e+179
-1.7811745e+179
-1.8231905e+179
-1.8284025e+179
-1.8241056e+179
-1.8292845e+179
-1.8437586e+179
-1.8445262e+179
-1.8494106e+179
-1.8501485e+179
-1.8421547e+179
-1.8476838e+179
-1.8428256e+179
-1.8484507e+179
-1.8607274e+179
-1.8673929e+179
-1.8614121e+179
-1.8589638e+179
-1.865557e+179
-1.8597527e+179
-1.8664015e+179
-1.816682e+179
-1.8174081e+179
-1.7966514e+179
-1.8131207e+179
-1.8123042e+179
-1.8151968e+179
-1.8158035e+179
-1.7955819e+179
-1.8115179e+179
-1.8108713e+179
-1.8266074e+179
-1.8318293e+179
-1.8273683e+179
-1.8325891e+179
-1.8250639e+179
-1.8302361e+179
-1.8257695e+179
-1.8309228e+179
-1.783989e+179
-1.7853386e+179
-1.840144e+179
-1.8458179e+179
-1.8410698e+179
-1.8467007e+179
-1.8382796e+179
-1.8439141e+179
-1.8391163e+179
-1.8448277e+179
-1.8550446e+179
-1.8618537e+179
-1.855996e+179
-1.8628324e+179
-1.8570581e+179
-1.8638284e+179
-1.8579265e+179
-1.8646548e+179
-1.761333e+179
-1.7605347e+179
-1.7705419e+179
-1.7712622e+179
-1.7583549e+179
-1.7560749e+179
-1.7665935e+179
-1.7687791e+179
-1.8792657e+179
-1.8801043e+179
-1.8871626e+179
-1.8881251e+179
-1.9010257e+179
-1.9117167e+179
-1.9019782e+179
-1.9127802e+179
-1.8810742e+179
-1.8890866e+179
-1.8967671e+179
-1.8979296e+179
-1.9073949e+179
-1.908765e+179
-1.8773453e+179
-1.8853381e+179
-1.8782634e+179
-1.8861708e+179
-1.8753685e+179
-1.8832061e+179
-1.8763186e+179
-1.8843238e+179
-1.8990772e+179
-1.8999473e+179
-1.909931e+179
-1.910708e+179
-1.926251e+179
-1.9367364e+179
-1.9272084e+179
-1.9374395e+179
-1.9500148e+179
-1.955205e+179
-1.9508069e+179
-1.9556314e+179
-1.9237416e+179
-1.9339262e+179
-1.9250105e+179
-1.9355329e+179
-1.9469914e+179
-1.9516868e+179
-1.9486467e+179
-1.953866e+179
-1.9386664e+179
-1.9283598e+179
-1.9293292e+179
-1.5945445e+179
-1.6926164e+179
-1.6693286e+179
-1.667899e+179
-1.694054e+179
-1.725056e+179
-1.724343e+179
-1.7363537e+179
-1.7390575e+179
-1.7416011e+179
-1.7390466e+179
-1.7446174e+179
-1.7472656e+179
-1.7489106e+179
-1.7436257e+179
-1.7441331e+179
-1.7497157e+179
-1.7272729e+179
-1.7261176e+179
-1.7404146e+179
-1.741045e+179
-1.727621e+179
-1.7410255e+179
-1.7438385e+179
-1.7512513e+179
-1.744376e+179
-1.7462834e+179
-1.7527433e+179
-1.9638656e+179
-1.9642255e+179
-1.9610261e+179
-1.9625718e+179
-1.958927e+179
-1.9595373e+179
-1.9559606e+179
-1.957529e+179
-1.968219e+179
-1.9697348e+179
-1.9706648e+179
-1.9710288e+179
-1.9719801e+179
-1.972927e+179
-1.9734549e+179
-1.9730835e+179
-1.9446214e+179
-1.9465098e+179
-1.9481919e+179
-1.9491547e+179
-1.9508489e+179
-1.9526074e+179
-1.9540759e+179
-1.9546718e+179
-1.8566639e+179
-1.8665003e+179
-1.8300968e+179
-1.8945792e+179
-1.889077e+179
-1.9171783e+179
-1.9269146e+179
-1.9296924e+179
-1.9220884e+179
-1.9328312e+179
-1.9349007e+179
-1.8999194e+179
-1.9272808e+179
-1.9380379e+179
-1.9407974e+179
-1.9321607e+179
-1.9432372e+179
-1.9448875e+179
-1.9038571e+179
-1.9388731e+179
-1.9361329e+179
-1.9419971e+179
-1.9443607e+179
-1.9343479e+179
-1.9357655e+179
-1.9366147e+179
-1.9380141e+179
-1.9368045e+179
-1.937962e+179
-1.9403873e+179
-1.9390731e+179
-1.9386683e+179
-1.9428477e+179
-1.9400524e+179
-1.9443569e+179
-1.9412104e+179
-1.9452599e+179
-1.9422136e+179
-1.9453662e+179
-1.9283234e+179
-1.9299058e+179
-1.93055e+179
-1.9320416e+179
-1.9312354e+179
-1.932444e+179
-1.9332394e+179
-1.9346384e+179
-1.9322259e+179
-1.9339325e+179
-1.937813e+179
-1.9358234e+179
-1.9394748e+179
-1.9400762e+179
-1.9354503e+179
-1.9365338e+179
-1.9499192e+179
-1.947418e+179
-1.9524658e+179
-1.9547432e+179
-1.9469853e+179
-1.9495575e+179
-1.9512182e+179
-1.9481298e+179
-1.9503571e+179
-1.9492268e+179
-1.952898e+179
-1.9546643e+179
-1.9514867e+179
-1.9557721e+179
-1.9561949e+179
-1.9524603e+179
-1.945999e+179
-1.9446712e+179
-1.9470661e+179
-1.9483187e+179
-1.9397369e+179
-1.9412049e+179
-1.9421962e+179
-1.9435758e+179
-1.9422951e+179
-1.9433975e+179
-1.9446155e+179
-1.9460419e+179
-1.9441355e+179
-1.9456943e+179
-1.950088e+179
-1.9480276e+179
-1.9479932e+179
-1.95139e+179
-1.9516542e+179
-1.9470101e+179
-1.9522459e+179
-1.9495618e+179
-1.9236245e+179
-1.9562057e+179
-1.9583545e+179
-1.9674457e+179
-1.9671506e+179
-1.973806e+179
-1.974831e+179
-1.9645441e+179
-1.9655402e+179
-1.9659408e+179
-1.9637037e+179
-1.9622742e+179
-1.9712419e+179
-1.9726437e+179
-1.9633909e+179
-1.9595333e+179
-1.9586061e+179
-1.9596122e+179
-1.9602607e+179
-1.9606795e+179
-1.9598971e+179
-1.9602051e+179
-1.961253e+179
-1.961838e+179
-1.9607814e+179
-1.962478e+179
-1.9616782e+179
-1.9619986e+179
-1.9623092e+179
-1.9628533e+179
-1.9634281e+179
-1.9567507e+179
-1.9562167e+179
-1.9549792e+179
-1.9554972e+179
-1.9492862e+179
-1.9535855e+179
-1.9547049e+179
-1.9508021e+179
-1.9562068e+179
-1.9573659e+179
-1.9580157e+179
-1.9566759e+179
-1.9556791e+179
-1.9554226e+179
-1.9515675e+179
-1.9518714e+179
-1.9574115e+179
-1.9587134e+179
-1.9592877e+179
-1.9580775e+179
-1.9584858e+179
-1.9596121e+179
-1.9602408e+179
-1.9589474e+179
-1.9530784e+179
-1.9565052e+179
-1.9570359e+179
-1.9533602e+179
-1.9576312e+179
-1.9575797e+179
-1.9538654e+179
-1.9536894e+179
-1.9574209e+179
-1.9573353e+179
-1.9609733e+179
-1.9624499e+179
-1.9579761e+179
-1.9575265e+179
-1.9625411e+179
-1.9624885e+179
-1.9599655e+179
-1.9574947e+179
-1.9627343e+179
-1.9645821e+179
-1.9593133e+179
-1.9600764e+179
-1.9645397e+179
-1.9637709e+179
-1.9517135e+179
-1.9514607e+179
-1.9556265e+179
-1.9570977e+179
-1.9530577e+179
-1.9517828e+179
-1.9572941e+179
-1.9574474e+179
-1.9547104e+179
-1.9555307e+179
-1.9597038e+179
-1.9595197e+179
-1.9531949e+179
-1.958141e+179
-1.9598324e+179
-1.9551512e+179
-1.9720244e+179
-1.9715886e+179
-1.9722298e+179
-1.9726805e+179
-1.9682825e+179
-1.9667315e+179
-1.9696947e+179
-1.9701569e+179
-1.9431999e+179
-1.9393294e+179
-1.940599e+179
-1.9449788e+179
-1.9423372e+179
-1.9410306e+179
-1.9455851e+179
-1.9459528e+179
-1.9431167e+179
-1.9451058e+179
-1.9470426e+179
-1.9489194e+179
-1.9493955e+179
-1.9455024e+179
-1.9455476e+179
-1.949229e+179
-1.9471707e+179
-1.9460317e+179
-1.9503252e+179
-1.9520716e+179
-1.9480779e+179
-1.9470796e+179
-1.9522187e+179
-1.9523384e+179
-1.9482802e+179
-1.950547e+179
-1.9548991e+179
-1.9530615e+179
-1.9510311e+179
-1.9505695e+179
-1.9552083e+179
-1.9545771e+179
-1.5581363e+179
-1.8060827e+179
-1.8019305e+179
-1.8027922e+179
-1.8070832e+179
-1.8228496e+179
-1.8233968e+179
-1.8225968e+179
-1.8230108e+179
-1.8234416e+179
-1.8235809e+179
-1.8238713e+179
-1.8239273e+179
-1.8048287e+179
-1.8004279e+179
-1.8009673e+179
-1.8052641e+179
-1.8137849e+179
-1.8130514e+179
-1.8296649e+179
-1.8282558e+179
-1.8293485e+179
-1.828637e+179
-1.8348806e+179
-1.8366405e+179
-1.8369687e+179
-1.8352214e+179
-1.8303915e+179
-1.8290754e+179
-1.8300952e+179
-1.8293369e+179
-1.7921542e+179
-1.7881163e+179
-1.7886734e+179
-1.7925709e+179
-1.7904055e+179
-1.7895272e+179
-1.7934938e+179
-1.7943529e+179
-1.7797558e+179
-1.7766803e+179
-1.7773614e+179
-1.7802114e+179
-1.7692432e+179
-1.7661522e+179
-1.7669025e+179
-1.7697907e+179
-1.7678154e+179
-1.7672828e+179
-1.7704293e+179
-1.7712003e+179
-1.7811674e+179
-1.7780908e+179
-1.7787862e+179
-1.7821218e+179
-1.9167105e+179
-1.9178167e+179
-1.9270954e+179
-1.9279685e+179
-1.9140529e+179
-1.9241675e+179
-1.9153021e+179
-1.9257444e+179
-1.9372528e+179
-1.9420298e+179
-1.938798e+179
-1.9438649e+179
-1.9403114e+179
-1.9452357e+179
-1.941149e+179
-1.9457373e+179
-1.942367e+179
-1.9438117e+179
-1.9469689e+179
-1.9487831e+179
-1.9216432e+179
-1.9225284e+179
-1.9319561e+179
-1.932627e+179
-1.9191866e+179
-1.9292982e+179
-1.920517e+179
-1.9308825e+179
-1.9451236e+179
-1.9457023e+179
-1.950165e+179
-1.9503599e+179
-1.8922964e+179
-1.9027513e+179
-1.8935638e+179
-1.9042121e+179
-1.8708599e+179
-1.8720307e+179
-1.878606e+179
-1.8799118e+179
-1.8732307e+179
-1.8742495e+179
-1.8810923e+179
-1.8820072e+179
-1.8947236e+179
-1.8955788e+179
-1.9054426e+179
-1.9061871e+179
-1.8874517e+179
-1.8977362e+179
-1.8886467e+179
-1.8990859e+179
-1.8684544e+179
-1.8695847e+179
-1.8762396e+179
-1.8773328e+179
-1.866275e+179
-1.8739301e+179
-1.8672674e+179
-1.875083e+179
-1.8899493e+179
-1.891009e+179
-1.9004372e+179
-1.9014219e+179
-1.8373142e+179
-1.8434814e+179
-1.8383421e+179
-1.8445786e+179
-1.8236305e+179
-1.8246292e+179
-1.8289099e+179
-1.8299326e+179
-1.822557e+179
-1.8278243e+179
-1.8395653e+179
-1.840618e+179
-1.8458433e+179
-1.8469344e+179
-1.8073588e+179
-1.8123205e+179
-1.8083497e+179
-1.8132818e+179
-1.7978775e+179
-1.7988336e+179
-1.7796576e+179
-1.794706e+179
-1.7936241e+179
-1.8017996e+179
-1.8026976e+179
-1.7830006e+179
-1.7984527e+179
-1.7974881e+179
-1.7999885e+179
-1.8008135e+179
-1.7816032e+179
-1.7965306e+179
-1.7957418e+179
-1.8094196e+179
-1.8144762e+179
-1.8102818e+179
-1.8153686e+179
-1.770412e+179
-1.7719266e+179
-1.8112768e+179
-1.8164138e+179
-1.8122028e+179
-1.8173581e+179
-1.827744e+179
-1.8333015e+179
-1.8287229e+179
-1.8342707e+179
-1.8418942e+179
-1.848329e+179
-1.8429077e+179
-1.8495153e+179
-1.825793e+179
-1.831184e+179
-1.8266221e+179
-1.8321709e+179
-1.8441412e+179
-1.8507967e+179
-1.8450653e+179
-1.8517465e+179
-1.7475281e+179
-1.7472689e+179
-1.7569941e+179
-1.7580615e+179
-1.8463624e+179
-1.8527821e+179
-1.8473286e+179
-1.8537726e+179
-1.832012e+179
-1.8330926e+179
-1.8374075e+179
-1.8384908e+179
-1.8300303e+179
-1.8354134e+179
-1.8308816e+179
-1.8363351e+179
-1.8484676e+179
-1.8495353e+179
-1.8549092e+179
-1.8559898e+179
-1.8152125e+179
-1.8202552e+179
-1.8163009e+179
-1.8213233e+179
-1.8133888e+179
-1.818392e+179
-1.8141939e+179
-1.8192311e+179
-1.8036152e+179
-1.8043741e+179
-1.7846751e+179
-1.7994101e+179
-1.8001018e+179
-1.8054405e+179
-1.8065153e+179
-1.7863251e+179
-1.8023495e+179
-1.8011617e+179
-1.7736412e+179
-1.7753224e+179
-1.8093795e+179
-1.8103794e+179
-1.7901445e+179
-1.8062457e+179
-1.8051013e+179
-1.8074121e+179
-1.808341e+179
-1.788326e+179
-1.8041308e+179
-1.8031801e+179
-1.8172568e+179
-1.8224095e+179
-1.8182799e+179
-1.8234409e+179
-1.7770385e+179
-1.778999e+179
-1.8193174e+179
-1.8245281e+179
-1.8203178e+179
-1.8255186e+179
-1.7598179e+179
-1.7489629e+179
-1.7500839e+179
-1.7611767e+179
-1.7536582e+179
-1.7525467e+179
-1.7631885e+179
-1.7645427e+179
-1.8362427e+179
-1.8418397e+179
-1.8372036e+179
-1.8427908e+179
-1.8530665e+179
-1.8597785e+179
-1.8539645e+179
-1.8607392e+179
-1.8342008e+179
-1.8396516e+179
-1.8351578e+179
-1.8407244e+179
-1.8507602e+179
-1.8572974e+179
-1.8518629e+179
-1.8585292e+179
-1.5898672e+179
-1.6901352e+179
-1.6663589e+179
-1.5903389e+179
-1.6658274e+179
-1.6922424e+179
-1.6934891e+179
-1.6686774e+179
-1.7273036e+179
-1.7167022e+179
-1.7285389e+179
-1.7183228e+179
-1.7359875e+179
-1.7295551e+179
-1.730264e+179
-1.7365328e+179
-1.7378467e+179
-1.733225e+179
-1.7349813e+179
-1.7400546e+179
-1.7316002e+179
-1.7212229e+179
-1.7337864e+179
-1.7229927e+179
-1.7415864e+179
-1.7365766e+179
-1.7373116e+179
-1.7425815e+179
-1.7346467e+179
-1.7241953e+179
-1.7353244e+179
-1.7246097e+179
-1.906619e+179
-1.9169503e+179
-1.9078066e+179
-1.9179146e+179
-1.9037098e+179
-1.9137953e+179
-1.9050915e+179
-1.9154922e+179
-1.9266753e+179
-1.9283725e+179
-1.9314137e+179
-1.9334758e+179
-1.9299478e+179
-1.9309344e+179
-1.935007e+179
-1.9357706e+179
-1.8564734e+179
-1.8575719e+179
-1.86403e+179
-1.8652984e+179
-1.8800521e+179
-1.8905545e+179
-1.8811511e+179
-1.8916247e+179
-1.8772748e+179
-1.887633e+179
-1.8785729e+179
-1.8891279e+179
-1.8589157e+179
-1.8600724e+179
-1.866629e+179
-1.8677536e+179
-1.8639195e+179
-1.8649699e+179
-1.8717654e+179
-1.8727311e+179
-1.8614831e+179
-1.8626158e+179
-1.8691631e+179
-1.870485e+179
-1.882484e+179
-1.8837447e+179
-1.8930776e+179
-1.894545e+179
-1.8851018e+179
-1.8860259e+179
-1.8958543e+179
-1.8966155e+179
-1.9118301e+179
-1.9223376e+179
-1.9127497e+179
-1.9230055e+179
-1.9353913e+179
-1.9406953e+179
-1.9360361e+179
-1.9410484e+179
-1.9092349e+179
-1.9194347e+179
-1.9105693e+179
-1.921104e+179
-1.9324359e+179
-1.9340079e+179
-1.9373306e+179
-1.939277e+179
-1.8182433e+179
-1.8187936e+179
-1.8177366e+179
-1.8181825e+179
-1.818665e+179
-1.8189196e+179
-1.8191598e+179
-1.8192718e+179
-1.8001794e+179
-1.7961836e+179
-1.7969859e+179
-1.8011457e+179
-1.8093122e+179
-1.8085839e+179
-1.8162102e+179
-1.8168902e+179
-1.8158698e+179
-1.8164253e+179
-1.8169084e+179
-1.8172207e+179
-1.8174539e+179
-1.8177036e+179
-1.7952807e+179
-1.7944844e+179
-1.7986391e+179
-1.7994128e+179
-1.8077122e+179
-1.8068584e+179
-1.8215329e+179
-1.8220199e+179
-1.8230374e+179
-1.8225884e+179
-1.8280043e+179
-1.8284598e+179
-1.8297672e+179
-1.8301949e+179
-1.823939e+179
-1.8225147e+179
-1.8235267e+179
-1.8229002e+179
-1.8306754e+179
-1.8289763e+179
-1.8293971e+179
-1.8311206e+179
-1.7847246e+179
-1.7839271e+179
-1.7879153e+179
-1.7886348e+179
-1.783017e+179
-1.7823149e+179
-1.7862597e+179
-1.7870078e+179
-1.8247805e+179
-1.8233749e+179
-1.8244167e+179
-1.8237693e+179
-1.831621e+179
-1.829934e+179
-1.8303178e+179
-1.8320295e+179
-1.8256806e+179
-1.8242559e+179
-1.8252964e+179
-1.8246077e+179
-1.8325131e+179
-1.8307894e+179
-1.8311608e+179
-1.8329331e+179
-1.8414005e+179
-1.8436914e+179
-1.8440656e+179
-1.8417905e+179
-1.8426116e+179
-1.8422011e+179
-1.8445285e+179
-1.8449463e+179
-1.8522476e+179
-1.849463e+179
-1.8518511e+179
-1.8498692e+179
-1.8506611e+179
-1.8530705e+179
-1.8502825e+179
-1.8526823e+179
-1.8423624e+179
-1.8398054e+179
-1.8420594e+179
-1.8401534e+179
-1.8477749e+179
-1.8501793e+179
-1.8505496e+179
-1.8481377e+179
-1.8432111e+179
-1.8405728e+179
-1.8428169e+179
-1.840982e+179
-1.8486141e+179
-1.8509922e+179
-1.8490246e+179
-1.8514207e+179
-1.8581751e+179
-1.8612225e+179
-1.8616444e+179
-1.8585584e+179
-1.8704973e+179
-1.8677095e+179
-1.8672826e+179
-1.8709625e+179
-1.858976e+179
-1.8593784e+179
-1.8620765e+179
-1.8624531e+179
-1.8599401e+179
-1.8565217e+179
-1.8595594e+179
-1.856887e+179
-1.8688237e+179
-1.8655993e+179
-1.8660162e+179
-1.8692558e+179
-1.8577507e+179
-1.8607701e+179
-1.8573311e+179
-1.8603635e+179
-1.8696738e+179
-1.8664609e+179
-1.8668504e+179
-1.870043e+179
-1.8215169e+179
-1.8219239e+179
-1.8210163e+179
-1.821408e+179
-1.8218764e+179
-1.8221346e+179
-1.8222627e+179
-1.8224156e+179
-1.8032542e+179
-1.7991418e+179
-1.7997906e+179
-1.804073e+179
-1.8123563e+179
-1.8116353e+179
-1.819815e+179
-1.8203442e+179
-1.8194553e+179
-1.8198355e+179
-1.8202853e+179
-1.820586e+179
-1.8208487e+179
-1.8211313e+179
-1.8020361e+179
-1.7978788e+179
-1.7983661e+179
-1.8025422e+179
-1.8108988e+179
-1.8100637e+179
-1.8267002e+179
-1.8270741e+179
-1.827732e+179
-1.8280966e+179
-1.8336744e+179
-1.8349957e+179
-1.8353758e+179
-1.8333137e+179
-1.8274984e+179
-1.8278397e+179
-1.8289389e+179
-1.8285545e+179
-1.8340719e+179
-1.8344419e+179
-1.8358209e+179
-1.8362091e+179
-1.8264656e+179
-1.8251333e+179
-1.8261626e+179
-1.8254888e+179
-1.8317118e+179
-1.8334225e+179
-1.8337369e+179
-1.83205e+179
-1.8273078e+179
-1.8259454e+179
-1.8269154e+179
-1.8263203e+179
-1.8324861e+179
-1.8341604e+179
-1.8328652e+179
-1.8345537e+179
-1.7893606e+179
-1.7855097e+179
-1.785845e+179
-1.7897946e+179
-1.7874415e+179
-1.7866977e+179
-1.7906755e+179
-1.7913914e+179
-1.840639e+179
-1.837951e+179
-1.8402266e+179
-1.8383694e+179
-1.8459047e+179
-1.8483176e+179
-1.848746e+179
-1.8463383e+179
-1.8392978e+179
-1.8415839e+179
-1.8388586e+179
-1.8411408e+179
-1.8468334e+179
-1.8492512e+179
-1.8472593e+179
-1.8496805e+179
-1.8387737e+179
-1.8360375e+179
-1.838336e+179
-1.83648e+179
-1.8439398e+179
-1.844404e+179
-1.8463884e+179
-1.8468473e+179
-1.8397094e+179
-1.83697e+179
-1.8392501e+179
-1.8374318e+179
-1.8473414e+179
-1.8449275e+179
-1.8453849e+179
-1.8478065e+179
-1.8562215e+179
-1.8526577e+179
-1.8557435e+179
-1.8531228e+179
-1.8617294e+179
-1.862237e+179
-1.8650251e+179
-1.8655414e+179
-1.8541189e+179
-1.8571763e+179
-1.8536358e+179
-1.8567215e+179
-1.8660406e+179
-1.8627689e+179
-1.8632177e+179
-1.8664639e+179
-1.8581636e+179
-1.8546498e+179
-1.8577036e+179
-1.8551007e+179
-1.8669894e+179
-1.8637438e+179
-1.864212e+179
-1.8674878e+179
-1.8560198e+179
-1.8590628e+179
-1.8555851e+179
-1.8586495e+179
-1.8679778e+179
-1.8647115e+179
-1.8651011e+179
-1.8683499e+179
-1.7651982e+179
-1.7644134e+179
-1.7675137e+179
-1.7683645e+179
-1.7636945e+179
-1.7629266e+179
-1.7662937e+179
-1.7666248e+179
-1.777042e+179
-1.7738227e+179
-1.7742862e+179
-1.7773494e+179
-1.7782778e+179
-1.7753156e+179
-1.7760294e+179
-1.7791196e+179
-1.7620406e+179
-1.7614804e+179
-1.764782e+179
-1.7654805e+179
-1.7604264e+179
-1.7596339e+179
-1.7631326e+179
-1.7638768e+179
-1.7716267e+179
-1.7708528e+179
-1.7742801e+179
-1.7749513e+179
-1.7757355e+179
-1.7725174e+179
-1.7731305e+179
-1.7765303e+179
-1.8800568e+179
-1.8759286e+179
-1.8796235e+179
-1.8763529e+179
-1.8767698e+179
-1.8771714e+179
-1.8804752e+179
-1.8808657e+179
-1.8861645e+179
-1.8903e+179
-1.8866183e+179
-1.890775e+179
-1.8874614e+179
-1.8912171e+179
-1.8915831e+179
-1.8870713e+179
-1.8984695e+179
-1.8989222e+179
-1.9050947e+179
-1.9045895e+179
-1.912725e+179
-1.9191349e+179
-1.9197212e+179
-1.9132611e+179
-1.9059054e+179
-1.8993747e+179
-1.9055458e+179
-1.8997768e+179
-1.9137533e+179
-1.9140923e+179
-1.9201972e+179
-1.9204563e+179
-1.8817905e+179
-1.8775983e+179
-1.8813174e+179
-1.878052e+179
-1.8878875e+179
-1.8920082e+179
-1.8942338e+179
-1.9003167e+179
-1.9009166e+179
-1.8948452e+179
-1.8958836e+179
-1.8953928e+179
-1.9015206e+179
-1.9019779e+179
-1.915366e+179
-1.9082793e+179
-1.9146909e+179
-1.9089031e+179
-1.9100377e+179
-1.9163985e+179
-1.9095959e+179
-1.9160271e+179
-1.8740235e+179
-1.8745104e+179
-1.8777225e+179
-1.8782267e+179
-1.8847341e+179
-1.8889051e+179
-1.8842282e+179
-1.8883725e+179
-1.8791182e+179
-1.8750094e+179
-1.8787189e+179
-1.8754254e+179
-1.8852335e+179
-1.8894046e+179
-1.889771e+179
-1.8856308e+179
-1.8762376e+179
-1.8720109e+179
-1.8757097e+179
-1.8725191e+179
-1.8821074e+179
-1.8862264e+179
-1.886827e+179
-1.8826688e+179
-1.8771822e+179
-1.8730291e+179
-1.8767415e+179
-1.8734856e+179
-1.8832206e+179
-1.8873686e+179
-1.8836785e+179
-1.887819e+179
-1.8964723e+179
-1.9025785e+179
-1.903163e+179
-1.8970007e+179
-1.8974974e+179
-1.9036615e+179
-1.8979181e+179
-1.9040402e+179
-1.9177167e+179
-1.9106757e+179
-1.9170556e+179
-1.9112674e+179
-1.912129e+179
-1.9117989e+179
-1.9182636e+179
-1.9185418e+179
-1.9262071e+179
-1.932784e+179
-1.9268492e+179
-1.93354e+179
-1.9414524e+179
-1.947815e+179
-1.9407467e+179
-1.9470141e+179
-1.9277991e+179
-1.9274172e+179
-1.9341044e+179
-1.9343767e+179
-1.9423177e+179
-1.9484871e+179
-1.9420358e+179
-1.9483719e+179
-1.9553517e+179
-1.9596382e+179
-1.9560852e+179
-1.9605904e+179
-1.9654043e+179
-1.964575e+179
-1.9655972e+179
-1.9645678e+179
-1.956651e+179
-1.9611558e+179
-1.9568994e+179
-1.9612045e+179
-1.9661133e+179
-1.9659504e+179
-1.9660307e+179
-1.9661938e+179
-1.9238179e+179
-1.924425e+179
-1.9303611e+179
-1.9311385e+179
-1.9389824e+179
-1.9452861e+179
-1.9381883e+179
-1.9443548e+179
-1.925086e+179
-1.9317751e+179
-1.9321076e+179
-1.9255267e+179
-1.9463171e+179
-1.9396814e+179
-1.945985e+179
-1.9400639e+179
-1.9525763e+179
-1.9534166e+179
-1.9568471e+179
-1.9579007e+179
-1.9626348e+179
-1.9626298e+179
-1.9616273e+179
-1.9612442e+179
-1.9541421e+179
-1.958601e+179
-1.9589154e+179
-1.9546126e+179
-1.9638256e+179
-1.9634089e+179
-1.9634503e+179
-1.9638757e+179
-1.9492537e+179
-1.9430891e+179
-1.9437054e+179
-1.9500597e+179
-1.9350523e+179
-1.928426e+179
-1.9289557e+179
-1.9357041e+179
-1.9294185e+179
-1.9361652e+179
-1.9297372e+179
-1.5785498e+179
-1.6628503e+179
-1.6606236e+179
-1.7116417e+179
-1.7151388e+179
-1.7105278e+179
-1.7123648e+179
-1.7137421e+179
-1.7145622e+179
-1.7105776e+179
-1.7153661e+179
-1.7168671e+179
-1.7186969e+179
-1.7329049e+179
-1.7329083e+179
-1.7375304e+179
-1.7374619e+179
-1.7327363e+179
-1.7311467e+179
-1.73366e+179
-1.7365935e+179
-1.7347304e+179
-1.7322582e+179
-1.7329311e+179
-1.7349592e+179
-1.7360432e+179
-1.7356366e+179
-1.7357687e+179
-1.7363647e+179
-1.7428895e+179
-1.7423971e+179
-1.7455457e+179
-1.7459758e+179
-1.7413936e+179
-1.740079e+179
-1.7436022e+179
-1.7446629e+179
-1.7503935e+179
-1.7494495e+179
-1.7523226e+179
-1.7531134e+179
-1.7538497e+179
-1.7511261e+179
-1.7516787e+179
-1.7545733e+179
-1.7551035e+179
-1.752692e+179
-1.7535962e+179
-1.7556614e+179
-1.7464179e+179
-1.744024e+179
-1.744843e+179
-1.7475397e+179
-1.7459837e+179
-1.7455437e+179
-1.7482601e+179
-1.7490349e+179
-1.7565764e+179
-1.7543345e+179
-1.7551045e+179
-1.7575497e+179
-1.7342108e+179
-1.734914e+179
-1.7397903e+179
-1.7390685e+179
-1.7341356e+179
-1.7332274e+179
-1.7382129e+179
-1.7396844e+179
-1.7371514e+179
-1.7370839e+179
-1.7383419e+179
-1.7383487e+179
-1.7387826e+179
-1.7387457e+179
-1.7387587e+179
-1.739007e+179
-1.7349711e+179
-1.7332516e+179
-1.7380698e+179
-1.7404898e+179
-1.7391974e+179
-1.7388554e+179
-1.7405073e+179
-1.7405677e+179
-1.7400592e+179
-1.7401326e+179
-1.7401281e+179
-1.7404357e+179
-1.7584724e+179
-1.7561769e+179
-1.7567281e+179
-1.7590796e+179
-1.7499522e+179
-1.7465633e+179
-1.7477523e+179
-1.7507991e+179
-1.7484018e+179
-1.7480137e+179
-1.751373e+179
-1.7515271e+179
-1.7594077e+179
-1.7568406e+179
-1.7572821e+179
-1.7601765e+179
-1.9664916e+179
-1.967891e+179
-1.9680139e+179
-1.9676955e+179
-1.9642643e+179
-1.965556e+179
-1.9660228e+179
-1.9661987e+179
-1.9617461e+179
-1.963105e+179
-1.96343e+179
-1.9634621e+179
-1.95913e+179
-1.9603121e+179
-1.9608188e+179
-1.9610778e+179
-1.9474896e+179
-1.9489083e+179
-1.949621e+179
-1.950074e+179
-1.9509453e+179
-1.9524915e+179
-1.9530234e+179
-1.9532129e+179
-1.9538918e+179
-1.9554035e+179
-1.9559403e+179
-1.9562433e+179
-1.9568453e+179
-1.9582288e+179
-1.9586821e+179
-1.9584113e+179
-1.8163864e+179
-1.8771721e+179
-1.8816856e+179
-1.8237225e+179
-1.8905253e+179
-1.8870471e+179
-1.7760389e+179
-1.8415206e+179
-1.8382762e+179
-1.8683825e+179
-1.8723971e+179
-1.9057064e+179
-1.9318047e+179
-1.9289165e+179
-1.9357234e+179
-1.9383253e+179
-1.9097942e+179
-1.9370056e+179
-1.9347774e+179
-1.9412206e+179
-1.9435811e+179
-1.9426269e+179
-1.9398508e+179
-1.9147061e+179
-1.9489205e+179
-1.9464544e+179
-1.9469942e+179
-1.9452037e+179
-1.9191662e+179
-1.9516477e+179
-1.9535637e+179
-1.9462822e+179
-1.9455593e+179
-1.9523993e+179
-1.9537871e+179
-1.9436961e+179
-1.9450152e+179
-1.9441835e+179
-1.9416766e+179
-1.9491294e+179
-1.9508888e+179
-1.9406572e+179
-1.9422062e+179
-1.95021e+179
-1.947957e+179
-1.9552146e+179
-1.9568297e+179
-1.9466138e+179
-1.9480252e+179
-1.9519435e+179
-1.9514328e+179
-1.958129e+179
-1.9594655e+179
-1.9493805e+179
-1.9506459e+179
-1.943802e+179
-1.9427565e+179
-1.9437843e+179
-1.9445708e+179
-1.9448447e+179
-1.9443324e+179
-1.9451339e+179
-1.9458477e+179
-1.9469283e+179
-1.9474139e+179
-1.9478036e+179
-1.9485443e+179
-1.9465242e+179
-1.9454441e+179
-1.9464961e+179
-1.9473269e+179
-1.9414202e+179
-1.940726e+179
-1.9391955e+179
-1.9399712e+179
-1.9350909e+179
-1.9380296e+179
-1.9391058e+179
-1.936022e+179
-1.9427465e+179
-1.9420669e+179
-1.9408258e+179
-1.9414312e+179
-1.9405139e+179
-1.9398352e+179
-1.9362111e+179
-1.9371835e+179
-1.9435256e+179
-1.9442462e+179
-1.9427197e+179
-1.9422703e+179
-1.9410634e+179
-1.9422849e+179
-1.9393216e+179
-1.9376063e+179
-1.9430881e+179
-1.9446831e+179
-1.9454036e+179