/*--------------------------------*- C++ -*----------------------------------*\
  =========                 |
  \\      /  F ield         | OpenFOAM: The Open Source CFD Toolbox
   \\    /   O peration     | Website:  https://openfoam.org
    \\  /    A nd           | Version:  7
     \\/     M anipulation  |
\*---------------------------------------------------------------------------*/
FoamFile
{
    version     2.0;
    format      ascii;
    class       volVectorField;
    location    "2000";
    object      U;
}
// * * * * * * * * * * * * * * * * * * * * * * * * * * * * * * * * * * * * * //

dimensions      [0 1 -1 0 0 0 0];

internalField   nonuniform List<vector> 
33730
(
(-6.8728581e+90 -1.8004422e+90 8.3226909e+89)
(-5.6936641e+90 -4.6450253e+89 1.8484801e+89)
(-6.8063833e+90 -2.317343e+90 5.4314635e+89)
(-5.1419376e+90 -8.1357016e+89 8.0961832e+89)
(-4.8026518e+90 -3.346228e+89 9.283697e+89)
(-4.2404121e+90 -6.3666401e+89 6.0296565e+89)
(-5.0128754e+90 -5.279173e+89 1.2146892e+90)
(-5.2036014e+90 -1.2873234e+90 6.6924145e+89)
(-5.0587634e+90 -6.0184336e+89 1.053716e+90)
(-5.5813151e+90 -2.8386435e+89 -7.1694132e+89)
(-5.8601783e+90 -1.6014979e+89 5.14728e+89)
(-5.7438022e+90 -4.4125926e+89 3.6111085e+89)
(-4.9462495e+90 -3.1514416e+89 4.2161861e+89)
(-5.5541388e+90 -5.9102272e+89 1.6356157e+89)
(-5.5086932e+90 -1.3324236e+90 -5.2611345e+89)
(-5.3083636e+90 -7.6218522e+89 -4.3182568e+89)
(-4.4225993e+90 -1.7370399e+90 5.2555525e+89)
(-4.2301903e+90 -9.2356303e+89 5.0546388e+89)
(-4.1715535e+90 -5.2158659e+89 -2.0332106e+89)
(-4.0042559e+90 -6.4472688e+89 -4.9869717e+89)
(-3.0513089e+90 -9.1644317e+89 3.8353422e+89)
(-4.2273316e+90 -4.5489569e+89 7.2047363e+89)
(-4.2740523e+90 -6.9664183e+89 6.3753256e+89)
(-4.868376e+90 -3.7729088e+89 1.0000546e+90)
(-4.7935229e+90 -4.0639709e+89 1.0625405e+90)
(-3.424962e+90 -2.6012493e+89 6.0410946e+89)
(-3.4355335e+90 -3.9532041e+89 5.6273998e+89)
(-4.1201972e+90 -2.4738017e+89 7.7183394e+89)
(-4.0928665e+90 -2.6414191e+89 7.9855319e+89)
(-4.1703845e+90 -7.8968576e+89 5.9446023e+89)
(-4.0528452e+90 -5.4779926e+89 6.6360204e+89)
(-4.7187372e+90 -4.3800581e+89 9.4172301e+89)
(-4.5929793e+90 -4.1675114e+89 9.8556482e+89)
(-5.7665313e+90 -5.1882256e+89 5.8269232e+89)
(-5.5471047e+90 -3.6475548e+89 -7.1926842e+89)
(-5.5238942e+90 -1.9010033e+89 -6.4709874e+89)
(-5.7197344e+90 -2.6975833e+89 4.8923144e+89)
(-4.9700801e+90 -2.2795593e+89 -5.3876653e+89)
(-5.1828429e+90 -3.092112e+89 8.5931569e+88)
(-5.0363259e+90 -1.5707954e+89 -5.1717915e+89)
(-5.1677388e+90 -1.4229366e+89 6.1771695e+88)
(-5.5751083e+90 3.7555908e+87 3.1492386e+89)
(-5.1057138e+90 -2.1571053e+89 -2.056157e+89)
(-5.0314119e+90 -2.8433872e+89 -2.7628052e+89)
(-5.1303769e+90 -1.5971476e+89 4.8040437e+89)
(-4.9305771e+90 -1.1493948e+89 -2.332937e+89)
(-4.9142414e+90 1.059805e+89 -1.69831e+89)
(-4.9990222e+90 -3.6681548e+89 5.517536e+89)
(-4.9962055e+90 -3.6014085e+89 4.6787081e+89)
(-4.1575895e+90 -2.2544676e+89 4.6526072e+89)
(-4.1944659e+90 -2.5059201e+89 4.9533764e+89)
(-4.8526201e+90 -4.0094752e+89 4.4099016e+89)
(-4.8534667e+90 -3.820703e+89 4.877797e+89)
(-4.3646671e+90 -3.955317e+89 -6.9679777e+89)
(-4.4944176e+90 -4.3216617e+89 -6.349231e+89)
(-4.0912507e+90 -6.0655172e+89 -2.2412622e+89)
(-3.9994358e+90 -3.748639e+89 -2.3684761e+89)
(-4.5440744e+90 -3.949235e+89 -6.3365902e+89)
(-4.147488e+90 -5.4797889e+89 -1.8861142e+89)
(-4.0782073e+90 -3.3666451e+89 -2.3401088e+89)
(-4.4172925e+90 -3.7414783e+89 -6.7652527e+89)
(-3.9807493e+90 -8.1194911e+89 -5.2728718e+89)
(-3.8783897e+90 -5.3806317e+89 -4.868857e+89)
(-3.0361176e+90 -6.8049082e+89 4.7639067e+89)
(-3.1158056e+90 -1.1627567e+90 4.4646967e+89)
(-4.0437221e+90 -7.1885434e+89 -5.071372e+89)
(-3.9415812e+90 -4.421411e+89 -4.9005715e+89)
(-3.098395e+90 -5.2703153e+89 4.8678244e+89)
(-3.1979153e+90 -1.0305107e+90 4.9462674e+89)
(-4.7513009e+90 -3.938436e+89 -6.1276955e+89)
(-3.5070973e+90 -2.4694452e+89 -6.3670771e+89)
(-3.4645834e+90 -2.3633437e+89 -6.64473e+89)
(-2.9433136e+90 -2.0974791e+89 -4.1161843e+89)
(-2.9620634e+90 -3.4323485e+89 -4.0025847e+89)
(-2.4787218e+90 -4.3012083e+89 -4.0027657e+89)
(-2.4532285e+90 -2.8649222e+89 -3.7985471e+89)
(-2.1834916e+90 -6.2233823e+89 4.9014331e+89)
(-2.1965685e+90 -2.9897211e+89 5.4547761e+89)
(-4.2167072e+90 -2.5995089e+89 8.4036878e+89)
(-3.5067773e+90 -3.9950078e+89 6.0994826e+89)
(-3.4449017e+90 -2.5506589e+89 6.4799684e+89)
(-4.1282545e+90 -2.789776e+89 8.5751023e+89)
(-3.4336222e+90 -4.4133587e+89 5.6868935e+89)
(-3.4055021e+90 -2.8983775e+89 6.1668069e+89)
(-4.1280322e+90 -2.7862656e+89 7.9640149e+89)
(-4.1135593e+90 -2.8455577e+89 8.3875386e+89)
(-3.0060831e+90 -2.6138151e+89 6.0837317e+89)
(-2.9763191e+90 -1.4650185e+89 6.461412e+89)
(-3.5482842e+90 -1.7224943e+89 6.8758427e+89)
(-3.5203851e+90 -1.801944e+89 7.1073302e+89)
(-2.9658514e+90 -2.6942647e+89 6.0768937e+89)
(-2.9498982e+90 -1.6689703e+89 6.2750061e+89)
(-3.5125e+90 -1.7265745e+89 6.9238494e+89)
(-3.5031208e+90 -1.8191117e+89 7.050663e+89)
(-3.3774385e+90 -4.7749857e+89 5.4693152e+89)
(-3.3419965e+90 -3.5664961e+89 6.0164297e+89)
(-4.0415763e+90 -3.1726804e+89 7.7769358e+89)
(-4.0233946e+90 -3.3154139e+89 8.2195003e+89)
(-3.4114506e+90 -4.7015996e+89 5.687869e+89)
(-4.0459017e+90 -2.9798565e+89 7.7385176e+89)
(-3.3678906e+90 -3.1599696e+89 6.3130443e+89)
(-3.9884554e+90 -3.062029e+89 8.168129e+89)
(-4.2123067e+90 -1.8200314e+89 -3.2090038e+89)
(-4.2961571e+90 -1.2194663e+89 -3.2201413e+88)
(-5.1473569e+90 -3.4555318e+88 -1.9775478e+89)
(-4.9097351e+90 -1.0446933e+89 -7.2200186e+89)
(-5.1827204e+90 -2.0396607e+89 5.0602077e+89)
(-5.1216625e+90 -4.0012894e+89 5.3633639e+89)
(-5.0282163e+90 -2.3381967e+89 -2.2734147e+89)
(-5.0460323e+90 -3.3545622e+89 -2.5682711e+89)
(-5.042312e+90 -1.7779259e+89 6.1569565e+88)
(-4.8976106e+90 -2.485186e+89 -5.172667e+89)
(-4.8773922e+90 -1.8097193e+89 -4.8863639e+89)
(-5.052215e+90 -3.4648397e+89 1.010999e+89)
(-5.131312e+90 -1.7341501e+89 4.9432605e+88)
(-4.9806133e+90 -2.4029625e+89 -5.424352e+89)
(-4.9857834e+90 -1.7633254e+89 -4.9287643e+89)
(-5.516403e+90 -2.9805967e+89 3.6746406e+89)
(-5.117347e+90 -3.3295967e+89 9.4081025e+88)
(-4.8473377e+90 6.2015862e+88 -1.5020291e+89)
(-5.0333077e+90 -2.3493788e+89 4.8504363e+89)
(-4.964951e+90 -3.5153469e+89 -2.3589161e+89)
(-4.9308292e+90 -2.6262963e+89 -2.2753918e+89)
(-5.0016878e+90 -4.3968464e+89 5.0171661e+89)
(-4.2043301e+90 -1.4777158e+89 -3.2014921e+89)
(-4.1840236e+90 -1.9161847e+89 -3.2736786e+89)
(-4.2753916e+90 -1.3974159e+89 -4.1470779e+88)
(-5.1301431e+90 -7.9568025e+88 -2.0125142e+89)
(-4.2938101e+90 -2.1745155e+89 -3.3923162e+88)
(-4.1468424e+90 -1.400227e+89 -2.8654873e+89)
(-4.1380235e+90 -2.0275937e+89 -3.0992928e+89)
(-4.2126759e+90 -2.0838579e+89 -1.061812e+86)
(-4.2170411e+90 -1.2482373e+89 -1.6983794e+88)
(-4.2263702e+90 -1.4126954e+89 -3.2766473e+89)
(-4.2241035e+90 -1.8322054e+89 -3.4358836e+89)
(-4.313099e+90 -2.1313485e+89 -4.2427073e+88)
(-4.3099124e+90 -1.3114713e+89 -5.8480717e+88)
(-5.2238977e+90 -2.3300673e+89 -1.5783304e+89)
(-4.1226078e+90 -1.469134e+89 -2.7811965e+89)
(-4.1032653e+90 -2.0956043e+89 -2.9268496e+89)
(-4.165475e+90 -1.4016912e+89 -1.8108436e+88)
(-4.1775334e+90 -2.225972e+89 -9.5805819e+87)
(-4.965103e+90 -5.2689152e+88 -6.9434559e+89)
(-4.9088167e+90 -1.3361536e+89 -7.3708457e+89)
(-4.1357088e+90 -1.8915567e+89 -2.1298276e+89)
(-4.3053046e+90 -1.2000526e+89 1.6816837e+89)
(-4.1424362e+90 -1.5138359e+89 -1.8721438e+89)
(-4.2586895e+90 -1.3417347e+89 1.7822358e+89)
(-4.11549e+90 -1.6044555e+89 -1.9165415e+89)
(-4.0875674e+90 -2.0594898e+89 -2.0830767e+89)
(-4.2662162e+90 -2.4600831e+89 1.9077925e+89)
(-4.2573723e+90 -1.8310956e+89 2.1323873e+88)
(-4.351475e+90 -3.0505262e+89 5.316536e+89)
(-4.2314632e+90 -2.2849396e+89 1.8759821e+87)
(-4.3506145e+90 -1.3520206e+89 5.2630443e+89)
(-4.2750335e+90 -2.0787982e+89 -1.2234981e+88)
(-4.0628031e+90 1.6858673e+89 -7.3601681e+89)
(-5.4412501e+90 6.0721381e+88 6.922268e+89)
(-4.5680468e+90 4.7221842e+87 -2.6683503e+89)
(-5.1669819e+90 6.7683341e+88 -5.4212025e+88)
(-5.1769301e+90 -1.3172939e+89 1.5634354e+87)
(-4.510878e+90 8.1752192e+88 -2.4825063e+89)
(-4.511866e+90 3.8878522e+88 -2.5443467e+89)
(-5.1426655e+90 5.5578068e+88 -5.4685235e+88)
(-4.2079408e+90 -2.6037348e+89 5.4019117e+89)
(-4.2430828e+90 -2.3990952e+89 5.0645594e+89)
(-4.1970118e+90 -2.7291408e+89 5.1897326e+89)
(-4.15207e+90 -2.5141452e+89 4.7868816e+89)
(-3.4998727e+90 -1.4714219e+89 4.474741e+89)
(-3.5284085e+90 -1.7735408e+89 4.6961446e+89)
(-3.5341874e+90 -1.4598627e+89 4.3580129e+89)
(-3.5391661e+90 -1.7345819e+89 4.7050334e+89)
(-4.0695819e+90 -2.8294193e+89 4.7206939e+89)
(-4.1216898e+90 -3.1115481e+89 5.2277195e+89)
(-4.085245e+90 -2.7052779e+89 4.5863725e+89)
(-4.0999369e+90 -2.844647e+89 5.1914591e+89)
(-5.7666677e+90 -7.1098039e+89 -3.9118767e+89)
(-5.8251556e+90 -6.6529555e+89 -3.5429966e+89)
(-4.6522451e+90 -3.5170207e+89 -5.0628123e+88)
(-4.654202e+90 -4.0826533e+89 1.632573e+88)
(-4.6538553e+90 -4.612567e+89 -6.4975975e+89)
(-4.6929507e+90 -4.6483155e+89 -6.3317606e+89)
(-4.703e+90 -3.8820342e+89 4.1993155e+88)
(-4.7302538e+90 -4.2483241e+89 -6.1477686e+89)
(-4.7369209e+90 -4.2685718e+89 -6.2629576e+89)
(-4.6945341e+90 -3.2804212e+89 -2.7975454e+88)
(-3.4136462e+90 -2.7491077e+89 -6.3668161e+89)
(-3.3388709e+90 -2.5787244e+89 -6.7345498e+89)
(-2.8296196e+90 -2.5900963e+89 -4.1579678e+89)
(-2.8986608e+90 -3.9962215e+89 -3.9828964e+89)
(-2.918116e+90 -3.8567693e+89 -3.8129333e+89)
(-3.4343687e+90 -2.6700787e+89 -6.3806188e+89)
(-3.3741799e+90 -2.5704619e+89 -6.7284987e+89)
(-2.8656266e+90 -2.4548973e+89 -4.1199161e+89)
(-2.5029738e+90 -5.2974995e+89 -3.9682298e+89)
(-2.4175447e+90 -3.6189911e+89 -3.7564631e+89)
(-2.2784523e+90 -7.5199631e+89 5.793446e+89)
(-2.2035646e+90 -3.7938432e+89 6.0246273e+89)
(-2.4579326e+90 -5.4284958e+89 -4.0755857e+89)
(-2.3843898e+90 -3.943014e+89 -3.7492087e+89)
(-2.2023799e+90 -7.693445e+89 5.2332777e+89)
(-2.1580807e+90 -4.4656942e+89 5.7858168e+89)
(-3.4723361e+90 -2.5921247e+89 -6.2358424e+89)
(-3.4113792e+90 -2.3498477e+89 -6.5358935e+89)
(-2.8879162e+90 -2.1759868e+89 -3.9301357e+89)
(-2.9455431e+90 -3.7224901e+89 -3.8459352e+89)
(-3.4263378e+90 -2.421005e+89 -6.7646409e+89)
(-3.4923555e+90 -2.4181779e+89 -6.4526121e+89)
(-2.9627058e+90 -3.4023896e+89 -3.867793e+89)
(-2.9175318e+90 -2.130657e+89 -4.2230637e+89)
(-2.440989e+90 -2.9320544e+89 -3.8816898e+89)
(-2.294142e+90 -6.4779405e+89 5.7926035e+89)
(-2.2255336e+90 -2.8552154e+89 5.8550814e+89)
(-2.5105076e+90 -4.4949105e+89 -3.8968262e+89)
(-2.4947435e+90 -4.9427973e+89 -3.9466411e+89)
(-2.428567e+90 -3.2314516e+89 -3.5908679e+89)
(-2.2373e+90 -7.0405388e+89 5.4006182e+89)
(-2.2109473e+90 -3.4084315e+89 6.0231996e+89)
(-4.9490548e+90 -3.4467169e+89 -5.0650049e+89)
(-3.7074519e+90 -2.2528816e+89 -3.8957765e+89)
(-3.6896057e+90 -2.480779e+89 -3.4244653e+89)
(-3.599891e+90 -2.9170096e+89 -8.0992267e+89)
(-3.584292e+90 -2.9051496e+89 -8.0927809e+89)
(-2.0260622e+90 -1.3520703e+89 -5.8787885e+89)
(-2.0048653e+90 -1.4385864e+89 -6.0146718e+89)
(-1.9006994e+90 -2.5896231e+89 -3.5850831e+89)
(-1.8669124e+90 -1.5971115e+89 -3.523692e+89)
(-2.0519012e+90 -1.33707e+89 -5.90112e+89)
(-2.0257122e+90 -1.4839654e+89 -6.1749784e+89)
(-1.9194946e+90 -2.5441067e+89 -3.495334e+89)
(-1.8827945e+90 -1.60277e+89 -3.7047971e+89)
(-1.4352064e+90 -3.2137163e+89 4.034988e+88)
(-1.8217497e+90 -3.811052e+89 6.4397425e+89)
(-1.4294216e+90 -2.5265891e+89 1.2879805e+89)
(-1.8163881e+90 -1.5582597e+89 6.7591379e+89)
(-1.4704845e+90 -3.1545296e+89 6.1837792e+88)
(-1.4282064e+90 -2.3834324e+89 8.2729631e+88)
(-1.8710994e+90 -3.6371571e+89 6.5935092e+89)
(-1.8492405e+90 -1.2932409e+89 6.9382239e+89)
(-3.563749e+90 -1.7592061e+89 7.2269806e+89)
(-3.0125609e+90 -2.7332878e+89 6.2974096e+89)
(-2.9736249e+90 -1.560227e+89 6.4894298e+89)
(-3.5509252e+90 -1.7697011e+89 7.4500413e+89)
(-3.0270708e+90 -2.5525162e+89 6.387078e+89)
(-2.9893213e+90 -1.4677389e+89 6.7083426e+89)
(-3.5633852e+90 -1.662211e+89 7.2854068e+89)
(-3.5239289e+90 -1.7890926e+89 7.4379229e+89)
(-2.9790231e+90 -3.0139497e+89 6.1515331e+89)
(-2.9559568e+90 -1.984392e+89 6.4276279e+89)
(-3.5033209e+90 -1.977633e+89 7.0371746e+89)
(-3.4995367e+90 -2.0522229e+89 7.2562696e+89)
(-2.9941099e+90 -1.6906862e+89 6.7426702e+89)
(-3.0118526e+90 -2.9189315e+89 6.2827453e+89)
(-3.550974e+90 -1.909731e+89 7.1340644e+89)
(-3.5203398e+90 -1.904036e+89 7.3831402e+89)
(-2.3764671e+90 -9.2889888e+88 6.9782478e+89)
(-2.3846586e+90 -2.0834712e+89 6.7870653e+89)
(-3.123148e+90 -1.2397498e+89 6.5025556e+89)
(-3.109752e+90 -1.1390375e+89 6.3833341e+89)
(-2.3885198e+90 -7.3230103e+88 7.1806089e+89)
(-2.3823511e+90 -1.7977988e+89 6.8735731e+89)
(-3.1173418e+90 -1.0681289e+89 6.4428097e+89)
(-3.0942802e+90 -1.1573408e+89 6.4853642e+89)
(-2.3579238e+90 -1.0883266e+89 6.9362394e+89)
(-2.3755381e+90 -2.0914508e+89 6.8329034e+89)
(-3.0828765e+90 -1.2320516e+89 6.4279178e+89)
(-3.0730014e+90 -1.2385045e+89 6.477061e+89)
(-3.1036374e+90 -1.2141782e+89 6.4009679e+89)
(-2.3651568e+90 -2.0067845e+89 6.7823673e+89)
(-2.3942737e+90 -9.4619182e+88 7.1288102e+89)
(-3.1006571e+90 -1.2891397e+89 6.6892797e+89)
(-2.9462225e+90 -3.1883111e+89 6.0021462e+89)
(-2.9159177e+90 -2.2809414e+89 6.3036987e+89)
(-3.4613562e+90 -2.2044385e+89 6.8937507e+89)
(-3.4403251e+90 -2.3210423e+89 7.0823188e+89)
(-3.493861e+90 -2.2639972e+89 6.9447198e+89)
(-2.9709435e+90 -3.2770937e+89 6.1063858e+89)
(-2.9516998e+90 -2.2122395e+89 6.5898767e+89)
(-3.4640538e+90 -2.3256603e+89 7.2489886e+89)
(-2.9511765e+90 -3.3258301e+89 6.0347214e+89)
(-2.9240231e+90 -2.1220305e+89 6.3770645e+89)
(-3.453499e+90 -2.192237e+89 6.7946718e+89)
(-3.4348959e+90 -2.1280592e+89 7.0574037e+89)
(-3.478127e+90 -2.010883e+89 7.0874474e+89)
(-2.9832949e+90 -3.0003537e+89 6.3023461e+89)
(-2.9570628e+90 -1.8647455e+89 6.7216431e+89)
(-3.4418761e+90 -2.0781988e+89 7.332523e+89)
(-4.3435307e+90 -1.9205173e+89 -1.3480879e+89)
(-3.5722668e+90 -9.3986923e+88 -1.932495e+88)
(-3.5665592e+90 -1.3506368e+89 -1.7632526e+88)
(-4.3751961e+90 -1.1813252e+89 -1.0920698e+89)
(-3.548605e+90 -9.7974003e+88 -2.4433064e+89)
(-3.5587966e+90 -1.2666672e+89 -2.3306959e+89)
(-3.4027112e+90 -1.1994188e+89 -1.5366566e+89)
(-3.438636e+90 -7.9436142e+88 -3.9361746e+88)
(-3.4049942e+90 -7.9791749e+88 -1.4404469e+89)
(-4.3186458e+90 -1.7624028e+89 -3.6932097e+89)
(-4.2814354e+90 -1.0840089e+89 -4.3281846e+89)
(-4.5263591e+90 -9.8571937e+88 -1.4483099e+89)
(-4.4333873e+90 -1.3665191e+89 -5.2651444e+89)
(-4.4364213e+90 -8.9028272e+88 -5.4373022e+89)
(-4.5116389e+90 -1.6861686e+89 -2.061627e+89)
(-4.2452673e+90 -2.118487e+89 2.2533235e+88)
(-4.2381672e+90 -2.5885823e+89 1.088129e+88)
(-4.3758933e+90 -1.5999123e+89 5.4229868e+89)
(-4.3685685e+90 -3.3223089e+89 5.5277627e+89)
(-4.4160394e+90 -1.481662e+89 5.4405407e+89)
(-4.2643359e+90 -2.0074582e+89 3.7866505e+88)
(-4.2620726e+90 -2.4902014e+89 1.4283127e+88)
(-4.358972e+90 -3.1095774e+89 5.6335306e+89)
(-4.274102e+90 -1.5545224e+89 1.8051168e+89)
(-4.107506e+90 -2.1629452e+89 -2.1158485e+89)
(-4.1110838e+90 -1.7266979e+89 -1.7822606e+89)
(-4.2639387e+90 -2.7047625e+89 2.1145844e+89)
(-4.2808206e+90 -1.6651083e+89 1.882145e+89)
(-4.1069116e+90 -1.9126438e+89 -1.8736021e+89)
(-4.09087e+90 -2.3698287e+89 -1.9422141e+89)
(-4.2835316e+90 -2.8094074e+89 2.0388346e+89)
(-4.1180533e+90 -1.8407063e+89 8.4772849e+87)
(-4.0549672e+90 -1.852553e+89 -2.4594278e+89)
(-4.0432131e+90 -2.4116164e+89 -2.5639127e+89)
(-4.1220667e+90 -2.7323515e+89 2.031467e+88)
(-4.2025908e+90 -2.4114791e+89 -2.1110279e+88)
(-4.1276797e+90 -1.689894e+89 -2.9315619e+89)
(-4.1084519e+90 -1.6885932e+89 -3.1073798e+89)
(-4.0959739e+90 -2.1017789e+89 -3.3515427e+89)
(-4.176545e+90 -1.6532588e+89 -5.7325132e+88)
(-5.0368559e+90 -2.4409492e+89 -1.7631906e+89)
(-4.1914693e+90 -2.4712206e+89 -3.2203208e+88)
(-4.0269247e+90 -1.8287176e+89 -2.6932022e+89)
(-4.0657328e+90 -1.7245079e+89 -3.500401e+88)
(-4.0084476e+90 -2.4246727e+89 -3.02678e+89)
(-4.0689134e+90 -2.4582894e+89 -1.1667895e+88)
(-4.7831004e+90 -6.3095215e+88 -6.9793085e+89)
(-4.1656735e+90 -1.6677085e+89 -5.4772871e+87)
(-4.1124438e+90 -1.6578391e+89 -2.6919754e+89)
(-4.0860382e+90 -2.3176288e+89 -2.814969e+89)
(-4.1924849e+90 -2.5207771e+89 7.0972269e+87)
(-4.265594e+90 -2.3051963e+89 -4.2731749e+88)
(-4.2379327e+90 -1.5749584e+89 -4.838151e+88)
(-4.1630815e+90 -2.0637149e+89 -3.2967383e+89)
(-4.1816557e+90 -1.611129e+89 -3.2392418e+89)
(-5.1586427e+90 -8.2701154e+88 -1.9419634e+89)
(-4.2003769e+90 -1.5625349e+89 -3.0185e+89)
(-4.1967612e+90 -1.980118e+89 -3.2528809e+89)
(-4.2728976e+90 -1.4750412e+89 -4.6966197e+88)
(-5.1533261e+90 -2.378502e+89 -1.5195024e+89)
(-4.2814992e+90 -2.294048e+89 -2.1520946e+88)
(-4.8795897e+90 -1.4448402e+89 -7.3982675e+89)
(-5.0072725e+90 -5.9705972e+88 -6.9041705e+89)
(-4.127815e+90 -1.5801093e+89 -2.6137729e+89)
(-4.1655782e+90 -2.2356586e+89 -1.5356465e+87)
(-4.1134842e+90 -2.1647938e+89 -2.9179327e+89)
(-4.1671398e+90 -1.4543484e+89 -2.4873494e+88)
(-4.0160297e+90 9.04642e+88 -7.1611541e+89)
(-4.065335e+90 -1.0707883e+89 -6.9051681e+89)
(-5.4374436e+90 -7.6708667e+88 7.4405572e+89)
(-4.3977812e+90 7.3974112e+88 -2.0800345e+89)
(-5.0347924e+90 -1.3381552e+89 -3.4105417e+88)
(-5.0583618e+90 3.9739121e+88 -1.988784e+88)
(-4.3956051e+90 1.8845463e+88 -2.2614855e+89)
(-5.102221e+90 -1.2765969e+89 -2.2496461e+88)
(-4.4375663e+90 1.1526017e+89 -2.065415e+89)
(-4.1809642e+90 -2.3955935e+89 4.4159004e+88)
(-4.1586281e+90 -2.7775658e+89 1.3941319e+88)
(-4.2687017e+90 -1.8401489e+89 5.3198006e+89)
(-4.286433e+90 -3.6277534e+89 5.5789632e+89)
(-4.0523347e+90 -2.5536237e+89 -1.7457865e+89)
(-4.1882929e+90 -3.0169427e+89 2.0386387e+89)
(-4.1903856e+90 -1.8417269e+89 1.8840423e+89)
(-4.0474344e+90 -2.1940546e+89 -1.6553405e+89)
(-4.0130357e+90 -1.9951978e+89 -1.8268278e+89)
(-4.0107885e+90 -2.4845645e+89 -2.1220246e+89)
(-4.1646014e+90 -1.792974e+89 1.6282102e+89)
(-4.1586978e+90 -2.8940248e+89 1.9104021e+89)
(-4.1630433e+90 -2.2504264e+89 3.0810098e+88)
(-4.2395021e+90 -3.2105755e+89 5.2770664e+89)
(-4.1423145e+90 -2.6769716e+89 -1.332956e+88)
(-4.2534686e+90 -1.6762389e+89 5.0308256e+89)
(-3.585236e+90 -1.0877967e+89 -3.3786781e+88)
(-3.5800226e+90 -1.4144582e+89 -3.9453506e+88)
(-4.3514456e+90 -1.9882803e+89 -1.3396433e+89)
(-3.5549384e+90 -9.9378388e+88 -2.6636787e+89)
(-3.5561265e+90 -1.3628503e+89 -2.4922531e+89)
(-3.5562678e+90 -1.2042063e+89 -3.133972e+88)
(-3.5723816e+90 -1.5363694e+89 -1.8647289e+88)
(-4.3328711e+90 -1.247331e+89 -1.3217435e+89)
(-3.5481097e+90 -1.1235901e+89 -2.4568668e+89)
(-3.5326679e+90 -1.4361775e+89 -2.5918897e+89)
(-3.3906308e+90 -1.4773187e+89 -1.6082311e+89)
(-3.4304735e+90 -1.0761608e+89 -5.1911827e+88)
(-3.4082391e+90 -1.0624098e+89 -1.429813e+89)
(-3.4517225e+90 -1.4511464e+89 -3.9495629e+88)
(-4.2922104e+90 -1.1581269e+89 -4.3265785e+89)
(-4.2773779e+90 -1.7731663e+89 -4.3574728e+89)
(-3.4124665e+90 -1.3921919e+89 -1.6767468e+89)
(-3.4493159e+90 -9.2928407e+88 -5.8200529e+88)
(-3.4150842e+90 -9.7260476e+88 -1.6096441e+89)
(-3.4541309e+90 -1.2746651e+89 -5.5096142e+88)
(-3.3626229e+90 -1.1147803e+89 -2.0156838e+89)
(-3.3680148e+90 -7.6131886e+88 -1.8995325e+89)
(-3.4352613e+90 -8.0377927e+88 -4.4938579e+88)
(-3.4393675e+90 -1.2054924e+89 -3.2441732e+88)
(-3.3504594e+90 -1.2483669e+89 -2.0388873e+89)
(-3.4273409e+90 -8.9288978e+88 -4.9223722e+88)
(-3.3768764e+90 -8.5822588e+88 -1.9085378e+89)
(-3.449077e+90 -1.2815454e+89 -3.5115479e+88)
(-3.3461127e+90 -1.1765678e+89 -2.0781902e+89)
(-3.417464e+90 -7.0205045e+88 -4.0681122e+88)
(-3.3531067e+90 -7.343079e+88 -1.9183249e+89)
(-3.3323849e+90 -1.262025e+89 -2.1376334e+89)
(-3.4073192e+90 -8.3366861e+88 -4.3997561e+88)
(-3.3575995e+90 -8.1434667e+88 -1.9531403e+89)
(-3.4280149e+90 -1.3199763e+89 -2.9688889e+88)
(-3.5956911e+90 -9.7292836e+88 -4.2276061e+88)
(-3.5903841e+90 -1.3470875e+89 -4.3649113e+88)
(-4.3791598e+90 -1.8643633e+89 -1.4871238e+89)
(-3.5702658e+90 -9.4643498e+88 -2.6961997e+89)
(-3.5706678e+90 -1.2711798e+89 -2.5542872e+89)
(-3.5855353e+90 -1.018737e+89 -4.268782e+88)
(-3.594063e+90 -1.3842575e+89 -4.0643769e+88)
(-4.3875803e+90 -1.1206253e+89 -1.525444e+89)
(-3.5713677e+90 -9.9772037e+88 -2.6643489e+89)
(-3.5655457e+90 -1.3170341e+89 -2.5713873e+89)
(-3.4211211e+90 -1.2529584e+89 -1.747911e+89)
(-3.4560249e+90 -7.8160334e+88 -6.182456e+88)
(-3.4251094e+90 -8.6068813e+88 -1.6552956e+89)
(-3.4612732e+90 -1.1538001e+89 -5.5813604e+88)
(-3.4097851e+90 -1.3129379e+89 -1.7591281e+89)
(-3.4478428e+90 -9.3024028e+88 -6.2717968e+88)
(-3.4269548e+90 -8.7688478e+88 -1.6462322e+89)
(-3.4700095e+90 -1.2769779e+89 -5.5126021e+88)
(-4.3373106e+90 -1.7385157e+89 -4.2945234e+89)
(-4.3258376e+90 -1.1801996e+89 -4.3075656e+89)
(-3.3564915e+90 -1.2688469e+89 -1.955934e+89)
(-3.4251644e+90 -9.3086432e+88 -4.6384875e+88)
(-3.3601515e+90 -9.2645295e+88 -1.8651681e+89)
(-3.4264204e+90 -1.3369308e+89 -3.7039098e+88)
(-3.3356228e+90 -1.363089e+89 -1.9280194e+89)
(-3.4049316e+90 -1.0139194e+89 -4.2507869e+88)
(-3.3620352e+90 -1.0362469e+89 -1.7425284e+89)
(-3.4264009e+90 -1.4363296e+89 -2.5751154e+88)
(-3.3146053e+90 -1.3878794e+89 -2.0472796e+89)
(-3.3823578e+90 -9.6815775e+88 -3.6401763e+88)
(-3.3407201e+90 -9.8209952e+88 -1.8259232e+89)
(-3.4045902e+90 -1.4931621e+89 -2.0021575e+88)
(-3.3372631e+90 -1.3208626e+89 -2.0533657e+89)
(-3.4075923e+90 -8.5523468e+88 -4.0711919e+88)
(-3.3416886e+90 -8.8361206e+88 -1.9215321e+89)
(-3.4053313e+90 -1.3147097e+89 -3.1094604e+88)
(-4.4811725e+90 -9.8042887e+88 -5.4250182e+89)
(-4.5034994e+90 -1.4035826e+89 -4.9358693e+89)
(-4.6044075e+90 -9.6565451e+88 -1.7249574e+89)
(-4.5686124e+90 -1.8547449e+89 -1.928315e+89)
(-4.44201e+90 -9.7090993e+88 -5.4689595e+89)
(-4.4252349e+90 -1.4768457e+89 -5.5132584e+89)
(-4.5076986e+90 -1.0190597e+89 -2.0585798e+89)
(-4.5196859e+90 -1.7439135e+89 -2.1449872e+89)
(-3.3499282e+90 -1.2188838e+89 -1.9112047e+89)
(-3.3780965e+90 -8.933902e+88 -1.721519e+89)
(-3.4590531e+90 -8.1689565e+88 -6.1190089e+86)
(-3.4773495e+90 -1.3706719e+89 1.6506765e+88)
(-3.4206104e+90 -1.3034417e+89 -1.6874197e+89)
(-3.529701e+90 -8.1743529e+88 6.4893667e+88)
(-3.4450835e+90 -8.7689152e+88 -1.4782017e+89)
(-3.5442906e+90 -1.487963e+89 7.9219175e+88)
(-3.3684593e+90 -1.0844545e+89 -1.8444419e+89)
(-3.4716247e+90 -7.1010024e+88 5.3468092e+87)
(-3.3922767e+90 -1.4548909e+89 -1.6045918e+89)
(-3.4174163e+90 -1.0769463e+89 -1.3759135e+89)
(-3.5004245e+90 -9.8587339e+88 7.3698426e+88)
(-3.5155427e+90 -1.7218869e+89 8.9595e+88)
(-3.3553591e+90 -1.2639417e+89 -1.8550405e+89)
(-3.4574952e+90 -9.0279983e+88 3.1321115e+87)
(-3.356898e+90 -9.4992609e+88 -1.7001709e+89)
(-3.4552453e+90 -1.4668001e+89 1.7884641e+88)
(-3.3249642e+90 -1.3387728e+89 -1.848593e+89)
(-3.4298237e+90 -9.6811262e+88 6.0403461e+87)
(-3.3550674e+90 -1.0636776e+89 -1.6294248e+89)
(-3.4490999e+90 -1.5513748e+89 2.4475972e+88)
(-3.4230809e+90 -1.3937777e+89 -1.625158e+89)
(-3.4297531e+90 -1.0038013e+89 -1.426745e+89)
(-3.5266233e+90 -8.6520695e+88 6.6144353e+88)
(-3.5212967e+90 -1.5306469e+89 8.0549241e+88)
(-3.5303955e+90 -1.3646702e+89 -5.0378629e+88)
(-3.6532833e+90 -9.0740981e+88 2.6151161e+89)
(-3.5332975e+90 -1.1692586e+89 -2.746132e+88)
(-3.646922e+90 -1.883578e+89 2.8193788e+89)
(-3.6204923e+90 -1.5110177e+89 1.5756968e+89)
(-3.6898294e+90 -8.0586146e+88 5.2300136e+89)
(-3.6317834e+90 -1.4011814e+89 1.8877247e+89)
(-3.6780319e+90 -2.1710412e+89 5.3916441e+89)
(-3.4975439e+90 -1.4266373e+89 -4.8219928e+88)
(-3.6267372e+90 -9.123984e+88 2.6808638e+89)
(-3.5252293e+90 -1.276247e+89 -2.6414248e+88)
(-3.6350036e+90 -1.9008198e+89 2.8279264e+89)
(-3.5948352e+90 -1.5190412e+89 1.6528512e+89)
(-3.6632979e+90 -8.4666992e+88 5.3790913e+89)
(-3.6142598e+90 -1.403533e+89 1.860825e+89)
(-3.6676224e+90 -2.2738214e+89 5.4272858e+89)
(-3.6642905e+90 -7.4442457e+88 2.6303758e+89)
(-3.5277661e+90 -1.2833358e+89 -5.4292626e+88)
(-3.5554934e+90 -1.0303027e+89 -3.5623721e+88)
(-4.4538632e+90 2.3701479e+89 -9.6129909e+88)
(-4.8907968e+90 1.0476352e+89 4.4581422e+89)
(-3.7554489e+90 1.1707412e+89 -4.7233317e+89)
(-3.7591617e+90 -2.8643025e+88 -4.7886853e+89)
(-4.9172728e+90 4.6877335e+87 4.3958608e+89)
(-4.3427658e+90 6.8725113e+88 -3.9791778e+89)
(-4.3466066e+90 3.7848303e+88 -4.0667321e+89)
(-4.803007e+90 8.0273023e+88 -2.2631436e+89)
(-4.8059538e+90 -7.042377e+88 -2.0869497e+89)
(-4.5390246e+90 -4.1732154e+88 -6.4090881e+89)
(-4.5237189e+90 -7.2560358e+88 -6.60869e+89)
(-4.6584457e+90 -6.5051209e+88 -3.3399417e+89)
(-4.679723e+90 -1.4746405e+89 -3.3061475e+89)
(-4.760625e+90 -4.9276631e+88 -3.1098409e+89)
(-4.57813e+90 -7.6235073e+88 -6.5718779e+89)
(-4.5796746e+90 -1.393224e+88 -6.4540733e+89)
(-4.7522685e+90 -1.3470879e+89 -3.1055501e+89)
(-4.389263e+90 9.7381816e+88 -4.1485415e+89)
(-4.398845e+90 3.9925403e+88 -4.2317871e+89)
(-4.8579242e+90 5.0289414e+88 -2.2161188e+89)
(-4.8651298e+90 -6.9171758e+88 -2.0522687e+89)
(-4.3949974e+90 2.893466e+88 -4.4710613e+89)
(-4.9428722e+90 4.1172223e+88 -1.9412981e+89)
(-4.8351753e+90 -9.1829065e+88 -1.9795771e+89)
(-4.676973e+90 -4.6225643e+88 -3.1922979e+89)
(-4.5766089e+90 -6.9741543e+88 -6.4565041e+89)
(-4.6280605e+90 -5.4246878e+88 -6.2686181e+89)
(-4.700025e+90 -1.4907319e+89 -3.1508803e+89)
(-3.5510753e+90 -1.4404738e+89 4.6683119e+89)
(-3.5479091e+90 -1.7455379e+89 5.0045443e+89)
(-3.5343236e+90 -1.4786774e+89 4.6211749e+89)
(-3.5627514e+90 -1.7462732e+89 4.886868e+89)
(-3.5303123e+90 -1.6343581e+89 4.5040172e+89)
(-3.5365614e+90 -1.8155496e+89 4.8879722e+89)
(-3.4840176e+90 -1.6971734e+89 4.5414504e+89)
(-3.5268057e+90 -1.9913426e+89 4.8294083e+89)
(-3.0276139e+90 -9.5795545e+88 3.250933e+89)
(-3.0363576e+90 -1.2330183e+89 3.3318118e+89)
(-3.0378857e+90 -9.6713554e+88 3.1723601e+89)
(-3.0548128e+90 -1.2763792e+89 3.4125915e+89)
(-3.0497559e+90 -9.4947043e+88 3.1507904e+89)
(-3.0615149e+90 -1.1450841e+89 3.2362315e+89)
(-3.0547655e+90 -8.4025769e+88 3.2475155e+89)
(-3.0623516e+90 -1.2091761e+89 3.4365402e+89)
(-3.4442308e+90 -1.895649e+89 4.4912939e+89)
(-3.4759271e+90 -2.2101077e+89 4.7639726e+89)
(-3.4760826e+90 -1.9633521e+89 4.432212e+89)
(-3.4893206e+90 -2.218176e+89 4.8828495e+89)
(-3.4387334e+90 -1.9043819e+89 4.3897474e+89)
(-3.4663577e+90 -2.0961749e+89 4.6903803e+89)
(-3.467191e+90 -1.7698058e+89 4.529805e+89)
(-3.4742971e+90 -2.0359092e+89 4.9553329e+89)
(-5.7715698e+90 -5.2553208e+89 -1.0957828e+89)
(-5.8221794e+90 -5.0609467e+89 -8.1291906e+88)
(-5.9419239e+90 -2.8789033e+89 1.2118933e+89)
(-4.7534406e+90 -3.9545274e+89 -3.7073278e+89)
(-4.7684451e+90 -2.1643453e+89 -3.2839938e+89)
(-4.8282733e+90 -3.8330157e+89 -5.279655e+89)
(-3.593847e+90 -2.7341195e+89 -3.3962031e+89)
(-3.6121207e+90 -2.5261185e+89 -3.9874239e+89)
(-4.8664216e+90 -3.8988953e+89 -4.9978834e+89)
(-3.6185393e+90 -2.7495619e+89 -3.2879861e+89)
(-3.6258523e+90 -2.4927655e+89 -3.8718089e+89)
(-4.8359258e+90 -2.1148568e+89 -3.0970706e+89)
(-4.9129292e+90 -3.6682765e+89 -4.931837e+89)
(-3.6537752e+90 -2.6130379e+89 -3.2426844e+89)
(-3.6573497e+90 -2.2904019e+89 -3.687137e+89)
(-4.9210898e+90 -3.6911895e+89 -5.0484784e+89)
(-3.6812299e+90 -2.4611145e+89 -3.3690894e+89)
(-3.6937075e+90 -2.3062984e+89 -3.9394483e+89)
(-4.8006935e+90 -3.8844171e+89 -3.588569e+89)
(-3.531676e+90 -3.5965583e+89 -8.287215e+89)
(-3.5275866e+90 -3.5506487e+89 -8.2371694e+89)
(-3.5611531e+90 -3.5376974e+89 -8.1353235e+89)
(-3.5595043e+90 -3.4850633e+89 -8.2335376e+89)
(-1.9722004e+90 -1.4623082e+89 -5.737148e+89)
(-1.9407731e+90 -1.481253e+89 -5.976743e+89)
(-1.8867468e+90 -3.2152022e+89 -3.4265133e+89)
(-1.8348538e+90 -2.0547557e+89 -3.4231152e+89)
(-1.989064e+90 -1.3527522e+89 -5.847282e+89)
(-1.9594496e+90 -1.5242008e+89 -6.2034148e+89)
(-1.8460479e+90 -2.0734987e+89 -3.6468268e+89)
(-1.8992289e+90 -3.0097306e+89 -3.3479274e+89)
(-1.4386398e+90 -4.126103e+89 6.098569e+88)
(-1.8447552e+90 -4.5474249e+89 6.535842e+89)
(-1.4096151e+90 -3.2149777e+89 1.5680896e+89)
(-1.8175527e+90 -2.1119455e+89 6.9440732e+89)
(-1.4719181e+90 -3.8315407e+89 1.0191921e+89)
(-1.8905093e+90 -4.1320692e+89 7.0225473e+89)
(-1.4097199e+90 -3.0171853e+89 1.2424645e+89)
(-1.8387347e+90 -1.6907474e+89 7.1246451e+89)
(-1.9614064e+90 -1.4678015e+89 -5.7854622e+89)
(-1.9304668e+90 -1.5596776e+89 -6.0464642e+89)
(-1.862286e+90 -3.2237943e+89 -3.5359459e+89)
(-1.8098472e+90 -2.2143438e+89 -3.5478251e+89)
(-1.9666897e+90 -1.4440715e+89 -5.8289242e+89)
(-1.9373259e+90 -1.6115002e+89 -6.2020753e+89)
(-1.8850657e+90 -3.1916878e+89 -3.3687921e+89)
(-1.8297097e+90 -2.2687273e+89 -3.6602089e+89)
(-1.414126e+90 -4.1261053e+89 4.3819652e+88)
(-1.3805397e+90 -3.4532366e+89 1.3654774e+89)
(-1.780286e+90 -2.4320151e+89 6.7064731e+89)
(-1.820693e+90 -4.461182e+89 6.4151481e+89)
(-1.8660759e+90 -4.5636731e+89 6.7138106e+89)
(-1.8178031e+90 -2.2205136e+89 6.9057078e+89)
(-1.4577879e+90 -4.1437547e+89 9.0458681e+88)
(-1.3919648e+90 -3.3607369e+89 1.1924471e+89)
(-3.5799724e+90 -3.2226146e+89 -8.0959213e+89)
(-3.5837775e+90 -3.3305324e+89 -8.1221608e+89)
(-3.5975896e+90 -2.9978911e+89 -8.1211517e+89)
(-3.5797345e+90 -2.9763084e+89 -8.2605295e+89)
(-2.0264916e+90 -1.2599363e+89 -5.9694163e+89)
(-1.902064e+90 -2.5530054e+89 -3.5011574e+89)
(-1.8679348e+90 -1.6549022e+89 -3.7622406e+89)
(-2.0044235e+90 -1.4500581e+89 -6.2692228e+89)
(-1.4361158e+90 -2.6317576e+89 1.3430558e+89)
(-1.4662774e+90 -3.540702e+89 7.7090484e+88)
(-1.8911785e+90 -3.7831225e+89 6.6983819e+89)
(-1.8717691e+90 -1.3737994e+89 7.1478042e+89)
(-1.4673412e+90 -3.1408606e+89 6.7388478e+88)
(-1.9050642e+90 -3.5531867e+89 7.1267396e+89)
(-1.8499027e+90 -1.2256222e+89 7.1404565e+89)
(-1.4225483e+90 -2.4359933e+89 7.9231964e+88)
(-1.9861364e+90 -1.3495798e+89 -6.0222648e+89)
(-2.0118136e+90 -1.287719e+89 -5.8126355e+89)
(-1.9031049e+90 -2.7836485e+89 -3.4527181e+89)
(-1.8579312e+90 -1.6711113e+89 -3.4717899e+89)
(-2.0062865e+90 -1.3993694e+89 -5.7943236e+89)
(-1.9736731e+90 -1.4535106e+89 -6.0003929e+89)
(-1.9006876e+90 -3.0226479e+89 -3.5041658e+89)
(-1.8488702e+90 -1.9342054e+89 -3.4762606e+89)
(-2.0005053e+90 -1.3211447e+89 -5.7688325e+89)