/*--------------------------------*- C++ -*----------------------------------*\
  =========                 |
  \\      /  F ield         | OpenFOAM: The Open Source CFD Toolbox
   \\    /   O peration     | Website:  https://openfoam.org
    \\  /    A nd           | Version:  7
     \\/     M anipulation  |
\*---------------------------------------------------------------------------*/
FoamFile
{
    version     2.0;
    format      ascii;
    class       volVectorField;
    location    "2000";
    object      UMean;
}
// * * * * * * * * * * * * * * * * * * * * * * * * * * * * * * * * * * * * * //

dimensions      [0 1 -1 0 0 0 0];

internalField   nonuniform List<vector> 
33730
(
(-2.9851222e+88 -2.508808e+87 2.8335874e+87)
(-2.7843685e+88 -2.8087944e+85 1.7597605e+87)
(-2.6841597e+88 -2.9326753e+87 -3.8303074e+86)
(-2.5486534e+88 -7.7003588e+86 3.3885277e+87)
(-2.614828e+88 6.2253893e+85 2.6667048e+87)
(-2.1483404e+88 -4.8649904e+86 2.3930916e+87)
(-2.7939605e+88 -8.099243e+86 2.8648745e+87)
(-2.5669215e+88 -1.6838388e+87 3.258691e+87)
(-2.7560972e+88 -5.1278749e+86 2.7509959e+87)
(-2.7760347e+88 6.1087493e+85 -8.4862073e+86)
(-2.9060587e+88 8.2375173e+85 8.3503883e+86)
(-2.7882012e+88 -5.3579068e+86 1.9781616e+87)
(-2.4868868e+88 1.6599261e+86 1.7750375e+87)
(-2.7595686e+88 -3.260027e+86 1.8951054e+87)
(-2.4655518e+88 -1.1048079e+87 -3.203745e+87)
(-2.446914e+88 -1.8191165e+86 -3.1191346e+87)
(-2.0203464e+88 -2.2605618e+87 -3.791903e+86)
(-1.9634232e+88 -3.7325334e+86 -4.5967317e+86)
(-2.315675e+88 -8.3109151e+85 -2.9791215e+87)
(-1.9219043e+88 -1.8868633e+86 -3.7364117e+87)
(-1.4419368e+88 -9.7345078e+86 -3.3366575e+86)
(-2.143154e+88 -4.0099775e+86 2.6805433e+87)
(-2.1734619e+88 -5.4494839e+86 2.582298e+87)
(-2.655025e+88 -9.1055981e+85 3.0077254e+87)
(-2.6356158e+88 -6.7250836e+86 3.0195011e+87)
(-1.7975779e+88 -1.2939363e+86 1.8988811e+87)
(-1.8095888e+88 -2.5015215e+86 1.9864824e+87)
(-2.2942805e+88 1.1985942e+86 2.3828622e+87)
(-2.2963885e+88 -2.1751326e+86 2.3544249e+87)
(-2.15851e+88 -8.6738107e+86 2.5429019e+87)
(-2.126047e+88 -5.2136172e+86 2.5003623e+87)
(-2.6085235e+88 -2.3795987e+86 2.8529983e+87)
(-2.5837686e+88 -6.258621e+86 2.7740006e+87)
(-2.913057e+88 -5.1124609e+86 9.2427641e+86)
(-2.7713486e+88 -1.094383e+86 -7.7999007e+86)
(-2.7630583e+88 -1.8411391e+86 -8.6623025e+86)
(-2.8735874e+88 -1.8366966e+86 8.8880983e+86)
(-2.4941862e+88 6.3834087e+85 -1.2450816e+87)
(-2.5862211e+88 -1.306122e+86 -6.2990992e+86)
(-2.5236219e+88 -6.0617546e+85 -1.2739905e+87)
(-2.5586524e+88 8.3738902e+85 -6.292671e+86)
(-2.8114525e+88 2.4575414e+86 -7.2949701e+86)
(-2.5401343e+88 -1.4797527e+86 -9.4194014e+85)
(-2.5255833e+88 6.915564e+85 -8.8236078e+85)
(-2.5947372e+88 1.2293889e+86 1.251355e+87)
(-2.5584216e+88 2.7851042e+86 -1.5934311e+87)
(-2.5541642e+88 5.0299458e+85 -1.6128484e+87)
(-2.5037186e+88 -3.8585157e+86 1.9516546e+87)
(-2.5204463e+88 6.0784913e+85 1.9086943e+87)
(-2.1726975e+88 1.765441e+86 1.6290583e+87)
(-2.1782645e+88 -1.8500111e+86 1.6067368e+87)
(-2.4776136e+88 -2.5957282e+85 1.9320904e+87)
(-2.4656559e+88 -4.3387311e+86 1.9018211e+87)
(-2.3745809e+88 -2.091392e+86 -2.5989308e+87)
(-2.3864262e+88 1.3436883e+86 -2.6669923e+87)
(-2.2934778e+88 -1.9934927e+86 -2.998636e+87)
(-2.2887528e+88 -5.3911147e+85 -2.9266641e+87)
(-2.3926115e+88 1.6416222e+86 -2.6444316e+87)
(-2.3118794e+88 -9.8092485e+85 -2.8790077e+87)
(-2.2967614e+88 -5.4664792e+85 -2.9552954e+87)
(-2.3749055e+88 -2.6654747e+86 -2.5665388e+87)
(-1.8950847e+88 -3.773557e+86 -3.6931142e+87)
(-1.8847997e+88 2.3806923e+85 -3.6542705e+87)
(-1.4436788e+88 -3.3249299e+86 -1.5477948e+86)
(-1.4607882e+88 -1.4115373e+87 -1.6242066e+86)
(-1.9171304e+88 -2.0075214e+86 -3.6762746e+87)
(-1.8925736e+88 7.6736215e+85 -3.687439e+87)
(-1.4275223e+88 -7.7763167e+85 -1.7933242e+86)
(-1.4788903e+88 -1.0011649e+87 -3.8959964e+85)
(-2.4582163e+88 4.7239874e+85 -3.3554948e+87)
(-1.989355e+88 3.0173124e+86 -3.3546976e+87)
(-1.9880738e+88 7.7150949e+85 -3.3522482e+87)
(-1.6852383e+88 1.188047e+86 -3.9148307e+87)
(-1.6864334e+88 1.3873094e+86 -3.9326229e+87)
(-1.1802681e+88 7.4253826e+85 -3.5910977e+87)
(-1.1789669e+88 2.3284768e+86 -3.5599809e+87)
(-1.0114847e+88 -5.1709822e+86 4.9068378e+86)
(-1.01443e+88 1.3606422e+86 5.7909971e+86)
(-2.3275826e+88 8.0363957e+84 2.6630479e+87)
(-1.8312073e+88 -1.8218653e+86 2.1349617e+87)
(-1.798252e+88 -1.7183681e+86 2.1088336e+87)
(-2.2998439e+88 -4.0725851e+86 2.5853412e+87)
(-1.8284601e+88 -3.0161489e+86 2.1000463e+87)
(-1.8051145e+88 -1.7855198e+86 2.0000854e+87)
(-2.3167845e+88 4.9020361e+85 2.5249135e+87)
(-2.3148515e+88 -3.0212634e+86 2.4921739e+87)
(-1.5696384e+88 -8.433089e+85 1.8215512e+87)
(-1.5535862e+88 -1.5000549e+85 1.8304753e+87)
(-1.9896725e+88 4.8535602e+85 2.2245414e+87)
(-1.9796557e+88 -1.882231e+86 2.237884e+87)
(-1.5720637e+88 -1.8571823e+86 1.8776175e+87)
(-1.5638225e+88 -1.2091078e+86 1.8199943e+87)
(-1.9836498e+88 9.3020072e+85 2.2792719e+87)
(-1.9845837e+88 -1.1214129e+86 2.2512035e+87)
(-1.8169819e+88 -4.8087963e+86 2.0433573e+87)
(-1.8088287e+88 -4.0619061e+86 2.0294543e+87)
(-2.2971743e+88 -1.1204875e+86 2.4940956e+87)
(-2.2999397e+88 -4.2953087e+86 2.5166533e+87)
(-1.8100108e+88 -3.5045098e+86 1.9647389e+87)
(-2.2837977e+88 -1.0596169e+86 2.4483144e+87)
(-1.7958732e+88 -2.7912972e+86 2.0692089e+87)
(-2.2714494e+88 -4.6298626e+86 2.4875341e+87)
(-2.1950973e+88 7.2031365e+85 -1.0240491e+87)
(-2.2125967e+88 1.0607084e+86 -8.8437493e+86)
(-2.5325497e+88 9.4204727e+85 -1.3376145e+87)
(-2.4602722e+88 1.3296418e+86 -1.8283693e+87)
(-2.6400362e+88 -1.6474915e+85 1.3795888e+87)
(-2.6143535e+88 -3.5068693e+86 1.3963837e+87)
(-2.5377078e+88 -1.811382e+86 -3.8195796e+85)
(-2.5432281e+88 -4.6859659e+85 -1.320011e+86)
(-2.5432283e+88 -3.7690629e+85 -4.8778895e+86)
(-2.4740383e+88 -2.4997076e+85 -1.0850972e+87)
(-2.4538616e+88 -1.1463198e+86 -1.1654667e+87)
(-2.5313714e+88 -2.3527448e+86 -5.1668249e+86)
(-2.5813339e+88 -1.7678856e+85 -6.4801983e+86)
(-2.518933e+88 -5.0370068e+83 -1.3129933e+87)
(-2.5133653e+88 -7.3984094e+85 -1.1721727e+87)
(-2.8169149e+88 -1.7013229e+86 -7.6226223e+86)
(-2.5676027e+88 -1.7799322e+86 -5.8094687e+86)
(-2.5351504e+88 5.7324131e+85 -1.6332416e+87)
(-2.5885743e+88 -5.3455909e+85 1.3929194e+87)
(-2.5087131e+88 -8.7799471e+85 4.2380858e+85)
(-2.4935712e+88 -2.8004104e+86 3.0091164e+84)
(-2.5701371e+88 -4.0886348e+86 1.3370764e+87)
(-2.2012761e+88 1.1192783e+86 -1.0685969e+87)
(-2.1911426e+88 3.1550282e+85 -1.0622514e+87)
(-2.2086149e+88 4.9576987e+85 -9.0079284e+86)
(-2.5264764e+88 1.043437e+86 -1.3389571e+87)
(-2.2182575e+88 6.9009371e+85 -9.0263391e+86)
(-2.1749271e+88 6.4820331e+85 -8.9773511e+86)
(-2.1819395e+88 5.5205362e+85 -9.2928973e+86)
(-2.2015683e+88 2.2562385e+85 -5.8556874e+86)
(-2.2113507e+88 8.3354531e+85 -6.1079281e+86)
(-2.2074675e+88 9.0548295e+85 -1.1033969e+87)
(-2.216877e+88 4.3550748e+85 -1.1137111e+87)
(-2.2234147e+88 4.602054e+85 -9.2266675e+86)
(-2.2315951e+88 6.2685278e+85 -9.4733838e+86)
(-2.5798388e+88 -7.3090613e+85 -1.3348454e+87)
(-2.1687313e+88 6.5379974e+85 -8.8609787e+86)
(-2.1626359e+88 3.4587288e+85 -8.8279904e+86)
(-2.1868096e+88 6.6330613e+85 -6.0244569e+86)
(-2.1941783e+88 2.3387522e+85 -6.012653e+86)
(-2.4970878e+88 -6.9051651e+85 -1.9100233e+87)
(-2.4763036e+88 1.5383764e+86 -1.7792279e+87)
(-2.1807171e+88 9.2039525e+85 -4.6920701e+86)
(-2.2530236e+88 1.1072119e+86 1.5019302e+86)
(-2.17224e+88 1.4921851e+85 -4.3195685e+86)
(-2.229432e+88 1.1675349e+86 1.8607696e+86)
(-2.1678828e+88 2.5256379e+84 -4.3741712e+86)
(-2.1600648e+88 7.4389868e+85 -4.3744316e+86)
(-2.2340518e+88 -6.6301735e+85 1.7506587e+86)
(-2.2070898e+88 -1.0718297e+86 6.6877917e+86)
(-2.2924745e+88 -1.6267221e+86 1.6250069e+87)
(-2.2022813e+88 1.242384e+86 6.8471636e+86)
(-2.2859442e+88 1.6672839e+86 1.638284e+87)
(-2.2222407e+88 1.4277629e+86 6.1144266e+86)
(-2.4703308e+88 4.0417704e+86 -2.8398969e+87)
(-2.8151452e+88 4.3602912e+86 -1.1652694e+87)
(-2.3422059e+88 2.9428602e+86 -2.3422897e+87)
(-2.5649032e+88 2.2918605e+86 -1.7663997e+87)
(-2.594546e+88 -5.974321e+85 -1.881979e+87)
(-2.3359918e+88 -5.028427e+85 -2.4158415e+87)
(-2.3163794e+88 1.6086355e+86 -2.3701872e+87)
(-2.5578589e+88 1.1377553e+86 -1.7851777e+87)
(-2.1831964e+88 -2.2717546e+86 1.751574e+87)
(-2.2018711e+88 1.6488045e+86 1.7519526e+87)
(-2.1977034e+88 -2.3069306e+86 1.6652123e+87)
(-2.1963396e+88 1.3601654e+86 1.6954141e+87)
(-1.875942e+88 1.4691924e+86 1.6660878e+87)
(-1.8799915e+88 -1.1064295e+86 1.6590116e+87)
(-1.88237e+88 1.3481742e+86 1.6064075e+87)
(-1.8750098e+88 -1.1215604e+86 1.6403509e+87)
(-2.1749284e+88 1.2725161e+85 1.7332149e+87)
(-2.1821975e+88 -3.4112751e+86 1.7378947e+87)
(-2.1632407e+88 4.9680189e+85 1.6457257e+87)
(-2.1585995e+88 -2.9068585e+86 1.7180482e+87)
(-2.8333267e+88 -4.706077e+86 -2.7495061e+87)
(-2.8481209e+88 -4.6526914e+86 -2.7350531e+87)
(-2.3457493e+88 -8.1104774e+85 -2.0771771e+87)
(-2.3476558e+88 3.5213302e+86 -2.1457234e+87)
(-2.4220492e+88 -2.7715725e+85 -3.3341064e+87)
(-2.4333827e+88 -1.2176136e+86 -3.2925755e+87)
(-2.3485511e+88 3.2521337e+86 -2.0800527e+87)
(-2.4476887e+88 2.4441012e+85 -3.2384162e+87)
(-2.4475137e+88 -9.0524276e+85 -3.3489019e+87)
(-2.3475539e+88 -1.1115859e+86 -2.0788538e+87)
(-1.9695812e+88 2.6406494e+86 -3.3318506e+87)
(-1.9623007e+88 7.4728991e+85 -3.3198145e+87)
(-1.6593692e+88 2.7943201e+85 -3.896676e+87)
(-1.6695209e+88 3.3668941e+85 -3.8978232e+87)
(-1.6720666e+88 9.2084622e+85 -3.8601117e+87)
(-1.974804e+88 2.9438939e+86 -3.3072932e+87)
(-1.9664379e+88 2.0070591e+85 -3.3031896e+87)
(-1.6622799e+88 1.5032111e+85 -3.9190161e+87)
(-1.1806852e+88 -1.6917781e+85 -3.5253749e+87)
(-1.1607147e+88 1.0339268e+86 -3.5542905e+87)
(-1.0444404e+88 -6.380663e+86 7.4842121e+86)
(-1.0178394e+88 -9.06239e+84 6.7282753e+86)
(-1.1736934e+88 -9.6861065e+85 -3.5441888e+87)
(-1.1633058e+88 7.7543294e+85 -3.5190868e+87)
(-1.0250249e+88 -7.9095802e+86 5.825632e+86)
(-1.0231503e+88 -2.0064267e+86 7.1060999e+86)
(-1.9846139e+88 3.1820767e+86 -3.2779022e+87)
(-1.9771263e+88 1.1371503e+86 -3.2631968e+87)
(-1.66778e+88 1.1597209e+86 -3.86203e+87)
(-1.6796806e+88 1.1670561e+86 -3.8795938e+87)
(-1.9734543e+88 2.0593076e+85 -3.3435633e+87)
(-1.9866944e+88 3.3851819e+86 -3.3432039e+87)
(-1.682643e+88 1.8705049e+86 -3.8910754e+87)
(-1.6712518e+88 5.8277531e+85 -3.971446e+87)
(-1.163319e+88 1.5793365e+86 -3.5947636e+87)
(-1.0477759e+88 -3.7330027e+86 8.1050342e+86)
(-1.008418e+88 9.5631339e+85 6.3267718e+86)
(-1.1804311e+88 1.5653783e+86 -3.5391074e+87)
(-1.1773926e+88 4.5607896e+85 -3.5400017e+87)
(-1.1622117e+88 2.4228234e+86 -3.5098826e+87)
(-1.0310198e+88 -5.3842284e+86 6.3948079e+86)
(-1.0169646e+88 1.3760349e+86 6.6996995e+86)
(-2.5123538e+88 1.1670292e+86 -2.7948911e+87)
(-2.0062947e+88 4.42448e+85 -3.4933109e+87)
(-2.0037059e+88 3.6582018e+86 -3.4729917e+87)
(-1.764104e+88 9.7535329e+85 -4.2505408e+87)
(-1.7616192e+88 1.6872711e+86 -4.2374648e+87)
(-1.2312361e+88 2.8576391e+86 -3.6486736e+87)
(-1.2272029e+88 2.0654903e+86 -3.6009558e+87)
(-9.0293964e+87 2.3149517e+86 -3.9220527e+87)
(-8.9079001e+87 2.0025715e+86 -3.8674409e+87)
(-1.2340384e+88 2.8639493e+86 -3.6163122e+87)
(-1.2279772e+88 1.6135333e+86 -3.6523111e+87)
(-9.0083595e+87 2.6758124e+86 -3.869889e+87)
(-8.9230855e+87 1.610805e+86 -3.9438275e+87)
(-6.6374817e+87 1.0190432e+86 -1.8487992e+87)
(-9.5217951e+87 -2.1254119e+86 1.1351543e+87)
(-6.7334259e+87 1.0753373e+86 -1.5488141e+87)
(-9.5652348e+87 6.2704628e+85 1.2482412e+87)
(-6.9254266e+87 1.2743706e+86 -1.4803496e+87)
(-6.6823146e+87 9.8386346e+85 -1.6726131e+87)
(-9.7214046e+87 -7.5533968e+85 1.3561815e+87)
(-9.4519407e+87 1.6511468e+86 1.2005247e+87)
(-2.0045573e+88 9.5583935e+85 2.3857091e+87)
(-1.5916539e+88 -1.3251742e+86 2.0365313e+87)
(-1.5683612e+88 2.9922103e+84 1.8952578e+87)
(-1.9983564e+88 -7.2696347e+85 2.3364893e+87)
(-1.5771739e+88 -5.4261305e+85 1.9211181e+87)
(-1.5613982e+88 -1.9479002e+85 1.942061e+87)
(-1.9944223e+88 5.3233548e+85 2.3660703e+87)
(-1.980951e+88 -2.2317013e+86 2.3699773e+87)
(-1.5901423e+88 -2.0997645e+86 1.9923176e+87)
(-1.573659e+88 -1.3538195e+86 1.8709296e+87)
(-1.9975111e+88 5.9601554e+85 2.3582766e+87)
(-1.9962499e+88 -1.4581634e+86 2.3125542e+87)
(-1.5586423e+88 -6.9358009e+85 1.8817555e+87)
(-1.578384e+88 -1.2190506e+86 1.8696767e+87)
(-1.9997304e+88 -5.7047733e+83 2.2865181e+87)
(-1.9872342e+88 -2.2447551e+86 2.2894441e+87)
(-1.3283473e+88 8.2082264e+83 1.7241989e+87)
(-1.3417685e+88 -2.1336196e+86 1.8521951e+87)
(-1.7369772e+88 9.4521122e+85 1.9555799e+87)
(-1.7320418e+88 -2.89191e+84 1.9069459e+87)
(-1.3205813e+88 3.2783041e+85 1.764842e+87)
(-1.3301625e+88 -1.3194829e+85 1.7627589e+87)
(-1.7271473e+88 9.8810812e+85 1.9710524e+87)
(-1.7211083e+88 -1.1086381e+86 1.9476115e+87)
(-1.3198666e+88 -2.0139181e+86 1.6641025e+87)
(-1.3138158e+88 -1.3862058e+86 1.6409367e+87)
(-1.7263784e+88 1.0254906e+86 1.9213652e+87)
(-1.7284612e+88 -8.1493522e+85 1.9516127e+87)
(-1.731426e+88 2.8538517e+84 1.9228366e+87)
(-1.3289082e+88 -2.1225952e+86 1.712726e+87)
(-1.3342006e+88 -1.0369896e+86 1.8045735e+87)
(-1.7319721e+88 -1.4465361e+86 1.9711747e+87)
(-1.586087e+88 -3.4387417e+86 1.9768055e+87)
(-1.5719923e+88 -3.1290142e+86 1.8903029e+87)
(-1.9890693e+88 -6.5104953e+85 2.3383042e+87)
(-1.9889962e+88 -2.7571057e+86 2.31929e+87)
(-1.9928626e+88 -1.474899e+86 2.3090768e+87)
(-1.5811532e+88 -3.2494298e+86 1.900505e+87)
(-1.5696847e+88 -2.3850231e+86 1.956686e+87)
(-1.9832627e+88 -3.6709738e+86 2.33617e+87)
(-1.579818e+88 -2.817308e+86 1.9395697e+87)
(-1.5586456e+88 -1.4848561e+86 1.8102736e+87)
(-1.9793508e+88 -4.2297705e+85 2.2707383e+87)
(-1.97558e+88 -2.025208e+86 2.2255745e+87)
(-1.9773956e+88 -5.010613e+85 2.323648e+87)
(-1.5706999e+88 -1.8098398e+86 1.8887599e+87)
(-1.5589579e+88 -1.33962e+86 1.9518357e+87)
(-1.9662043e+88 -2.954607e+86 2.3452237e+87)
(-2.2286235e+88 1.868253e+86 -1.0522896e+87)
(-1.8936475e+88 1.833202e+86 -6.4676983e+86)
(-1.8907064e+88 1.5441253e+86 -6.8801301e+86)
(-2.2394479e+88 7.7237843e+85 -9.0921943e+86)
(-1.9113975e+88 1.5386793e+86 -8.8923922e+86)
(-1.9133302e+88 1.8820074e+86 -8.4242206e+86)
(-1.8336408e+88 1.7977473e+86 -6.6556349e+86)
(-1.8517065e+88 1.7390047e+86 -6.1005708e+86)
(-1.8313396e+88 1.7780713e+86 -6.9817874e+86)
(-2.2211596e+88 4.4369923e+85 -1.0937648e+87)
(-2.2177601e+88 2.0273469e+86 -1.2404095e+87)
(-2.2805513e+88 4.5333397e+85 -1.126096e+87)
(-2.2664516e+88 2.2954671e+85 -1.4374988e+87)
(-2.2798233e+88 1.7561811e+86 -1.5165713e+87)
(-2.2670336e+88 1.864743e+86 -1.3333753e+87)
(-2.2172564e+88 -1.5140642e+86 6.2592219e+86)
(-2.2208577e+88 3.8129856e+85 6.4190743e+86)
(-2.3150328e+88 1.0506237e+86 1.6920994e+87)
(-2.3122129e+88 -2.3385489e+86 1.6587299e+87)
(-2.3182332e+88 1.0669219e+86 1.7412867e+87)
(-2.2098698e+88 -1.3091336e+86 7.4514897e+86)
(-2.2159505e+88 1.1536684e+86 6.8278121e+86)
(-2.2962699e+88 -2.417726e+86 1.7419536e+87)
(-2.2450565e+88 8.2345281e+85 2.0297909e+86)
(-2.1757514e+88 6.7030782e+85 -4.1888736e+86)
(-2.1689273e+88 -3.3870997e+85 -3.7493976e+86)
(-2.2353193e+88 -1.2035736e+86 2.4392775e+86)
(-2.2564603e+88 3.3489015e+85 1.9142221e+86)
(-2.1763711e+88 -3.1655165e+85 -4.7137979e+86)
(-2.174866e+88 -6.3710844e+84 -4.5686118e+86)
(-2.251179e+88 -1.1861392e+86 1.6587336e+86)
(-2.1896199e+88 -1.7339794e+85 -4.6512233e+86)
(-2.1515397e+88 -3.8709316e+85 -8.075466e+86)
(-2.1550776e+88 -3.3580151e+85 -7.9459009e+86)
(-2.1855913e+88 -9.7881197e+85 -4.841551e+86)
(-2.201662e+88 -4.3469285e+85 -8.1109423e+86)
(-2.1801598e+88 6.0525494e+84 -9.8532996e+86)
(-2.164234e+88 5.5594112e+84 -1.0567512e+87)
(-2.1667898e+88 -6.7650327e+85 -1.0835512e+87)
(-2.1822939e+88 -5.6295893e+85 -9.1809331e+86)
(-2.4934468e+88 -1.3080806e+86 -1.2269234e+87)
(-2.180624e+88 -4.6690323e+85 -8.7769308e+86)
(-2.1358969e+88 -4.9927008e+85 -8.5280219e+86)
(-2.1632946e+88 -4.1912966e+85 -6.0771741e+86)
(-2.1364248e+88 -6.3226201e+85 -9.0432962e+86)
(-2.1588634e+88 -9.4610529e+85 -5.7247807e+86)
(-2.4111077e+88 -1.0733008e+86 -1.7049436e+87)
(-2.2073036e+88 1.140998e+84 -5.8382627e+86)
(-2.1740306e+88 4.1303001e+85 -9.3897295e+86)
(-2.1733454e+88 -2.4567188e+85 -9.1074799e+86)
(-2.208434e+88 -2.3989916e+85 -5.9880802e+86)
(-2.2258076e+88 3.304572e+85 -9.5609328e+86)
(-2.2230086e+88 4.8420561e+84 -9.2701561e+86)
(-2.2067501e+88 -1.9863318e+85 -1.0963758e+87)
(-2.2070358e+88 9.3512893e+85 -1.1540783e+87)
(-2.569079e+88 -6.094464e+83 -1.4035641e+87)
(-2.2039597e+88 4.5672671e+85 -9.9787887e+86)
(-2.2105621e+88 4.3979784e+85 -1.0157607e+87)
(-2.2257414e+88 4.6575576e+85 -8.5665991e+86)
(-2.5655565e+88 -5.4894411e+85 -1.2588688e+87)
(-2.2190938e+88 -7.2750393e+84 -8.2756369e+86)
(-2.4742294e+88 4.5790698e+85 -2.0050983e+87)
(-2.4936666e+88 4.2043268e+85 -1.765988e+87)
(-2.1736997e+88 9.9719401e+84 -8.0278552e+86)
(-2.1934673e+88 -2.2870708e+85 -5.4451718e+86)
(-2.1776149e+88 4.4769869e+85 -8.4319575e+86)
(-2.2017351e+88 5.7706873e+85 -5.744648e+86)
(-2.4735702e+88 4.1009472e+86 -2.7482305e+87)
(-2.4805098e+88 -5.4800008e+85 -2.797993e+87)
(-2.8336121e+88 5.23639e+85 -1.1677622e+87)
(-2.2679164e+88 5.669383e+84 -2.287551e+87)
(-2.5047874e+88 -4.9753095e+85 -1.6640817e+87)
(-2.5713272e+88 7.1526455e+85 -1.97566e+87)
(-2.2908031e+88 1.4377889e+86 -2.4952413e+87)
(-2.5859778e+88 3.7963406e+85 -1.7116331e+87)
(-2.3148845e+88 3.393518e+85 -2.4475855e+87)
(-2.2034229e+88 -2.557505e+86 7.4427836e+86)
(-2.2046654e+88 -3.0395135e+85 7.6015457e+86)
(-2.2869993e+88 1.258323e+85 1.7344437e+87)
(-2.2931352e+88 -3.2645055e+86 1.7364072e+87)
(-2.1590816e+88 -3.371654e+85 -3.3151089e+86)
(-2.2295243e+88 -2.1178012e+86 2.7237421e+86)
(-2.2316848e+88 -1.0751952e+85 2.9579551e+86)
(-2.1574254e+88 -1.2697054e+86 -3.501141e+86)
(-2.1374242e+88 -1.2476555e+86 -3.9961887e+86)
(-2.1404945e+88 -4.3960913e+85 -4.498459e+86)
(-2.2093067e+88 -3.2876047e+85 1.7741321e+86)
(-2.203477e+88 -2.1848494e+86 2.2025088e+86)
(-2.1843273e+88 -2.3318525e+86 7.229319e+86)
(-2.2621219e+88 -3.0775071e+86 1.6630826e+87)
(-2.1858442e+88 -8.5229831e+84 6.5416823e+86)
(-2.2709502e+88 -3.6364559e+84 1.6223219e+87)
(-1.9039098e+88 1.0769936e+86 -7.0994421e+86)
(-1.8947429e+88 1.087527e+86 -7.6041844e+86)
(-2.2445554e+88 1.0072904e+86 -9.8461586e+86)
(-1.9153092e+88 1.137071e+86 -9.7433198e+86)
(-1.9217903e+88 1.1313427e+86 -9.2242681e+86)
(-1.8939393e+88 8.2141379e+85 -7.2137498e+86)
(-1.8978121e+88 8.16386e+85 -6.9578031e+86)
(-2.2311723e+88 4.5165566e+85 -9.793162e+86)
(-1.9179803e+88 8.9546361e+85 -8.9131165e+86)
(-1.9140712e+88 9.0303356e+85 -9.221525e+86)
(-1.8350051e+88 8.0520575e+85 -7.3101346e+86)
(-1.8532071e+88 8.0038738e+85 -6.5859547e+86)
(-1.8380145e+88 9.7225179e+85 -7.0737173e+86)
(-1.856907e+88 7.7831222e+85 -6.353167e+86)
(-2.2336484e+88 1.1478838e+86 -1.1755354e+87)
(-2.2236306e+88 2.8478363e+85 -1.1368291e+87)
(-1.8428817e+88 9.6416135e+85 -7.3102157e+86)
(-1.8611694e+88 1.0269027e+86 -6.6052151e+86)
(-1.8344723e+88 1.1676607e+86 -7.6662631e+86)
(-1.8523572e+88 1.0159968e+86 -6.8545346e+86)
(-1.8183494e+88 1.4125825e+86 -7.2062047e+86)
(-1.8102907e+88 1.483911e+86 -7.2411286e+86)
(-1.8422324e+88 1.3910578e+86 -6.4393126e+86)
(-1.8339479e+88 1.2349254e+86 -6.3955851e+86)
(-1.8185879e+88 1.0124315e+86 -7.56956e+86)
(-1.843437e+88 1.0313223e+86 -6.7729423e+86)
(-1.821794e+88 1.3416912e+86 -7.4532361e+86)
(-1.8456965e+88 1.1137225e+86 -6.652553e+86)
(-1.8036424e+88 1.4332217e+86 -6.4528427e+86)
(-1.8437752e+88 1.5012713e+86 -4.915962e+86)
(-1.7962424e+88 1.2303884e+86 -6.3667535e+86)
(-1.80412e+88 1.0141452e+86 -6.8385625e+86)
(-1.8445478e+88 1.1511948e+86 -5.2546688e+86)
(-1.8061645e+88 1.0999018e+86 -6.6881256e+86)
(-1.8462852e+88 8.3335872e+85 -5.1367661e+86)
(-1.9019258e+88 1.511735e+86 -7.2210355e+86)
(-1.8924215e+88 1.4958184e+86 -7.572126e+86)
(-2.251047e+88 6.2639263e+85 -1.0449307e+87)
(-1.9137112e+88 1.511881e+86 -9.7225487e+86)
(-1.92087e+88 1.551602e+86 -9.3201385e+86)
(-1.9043593e+88 1.1987323e+86 -7.4771188e+86)
(-1.906005e+88 1.2733507e+86 -7.6149761e+86)
(-2.2620645e+88 3.1120115e+85 -1.0481972e+87)
(-1.927238e+88 1.3134313e+86 -9.6774407e+86)
(-1.9239875e+88 1.2625279e+86 -9.5378064e+86)
(-1.8404767e+88 1.4908594e+86 -7.3316454e+86)
(-1.8593514e+88 1.4804556e+86 -6.6165019e+86)
(-1.8325085e+88 1.6540994e+86 -7.5185258e+86)
(-1.850755e+88 1.4326125e+86 -6.7170939e+86)
(-1.842383e+88 1.1302864e+86 -7.6322568e+86)
(-1.8602267e+88 1.0967936e+86 -6.9448174e+86)
(-1.8443983e+88 1.4697978e+86 -7.6561843e+86)
(-1.8636162e+88 1.2387027e+86 -6.8709572e+86)
(-2.2559875e+88 -1.5489827e+84 -1.2475472e+87)
(-2.2436234e+88 9.4918075e+85 -1.2505116e+87)
(-1.8200675e+88 8.9580783e+85 -7.1895597e+86)
(-1.8439911e+88 9.1000925e+85 -6.4250313e+86)
(-1.8111354e+88 9.9572909e+85 -7.383574e+86)
(-1.8348758e+88 7.967781e+85 -6.533941e+86)
(-1.8129265e+88 7.3654093e+85 -7.1518533e+86)
(-1.8371812e+88 7.3727645e+85 -6.3488022e+86)
(-1.8162639e+88 8.316412e+85 -6.9124514e+86)
(-1.8395003e+88 6.1603087e+85 -6.166091e+86)
(-1.800318e+88 7.1848588e+85 -6.3836968e+86)
(-1.8363479e+88 8.5809829e+85 -4.9655624e+86)
(-1.8022068e+88 5.6059598e+85 -6.1972734e+86)
(-1.8385182e+88 3.5241177e+85 -4.8119463e+86)
(-1.8060987e+88 8.7223774e+85 -6.4902926e+86)
(-1.843259e+88 9.9369446e+85 -5.0719254e+86)
(-1.7976161e+88 7.3201405e+85 -6.5580271e+86)
(-1.8335158e+88 5.3773071e+85 -5.1223079e+86)
(-2.3097906e+88 1.1963364e+86 -1.5513681e+87)
(-2.311292e+88 -3.8163145e+85 -1.5852723e+87)
(-2.3189229e+88 -1.8041627e+85 -1.2764101e+87)
(-2.2997759e+88 8.6083216e+85 -1.333971e+87)
(-2.2949968e+88 1.3141512e+86 -1.4913175e+87)
(-2.2827426e+88 5.2436175e+85 -1.4267495e+87)
(-2.2691798e+88 4.1318276e+85 -1.2575021e+87)
(-2.28227e+88 1.1337175e+86 -1.2930611e+87)
(-1.8165176e+88 1.0628572e+86 -5.8972153e+86)
(-1.8189037e+88 8.9059552e+85 -5.76424e+86)
(-1.86449e+88 1.1409824e+86 -4.3789129e+86)
(-1.865473e+88 7.119461e+85 -4.3028671e+86)
(-1.8423712e+88 1.1076732e+86 -3.8859527e+86)
(-1.909183e+88 1.3293617e+86 1.6588418e+84)
(-1.8431711e+88 6.7664946e+85 -3.8135546e+86)
(-1.9103882e+88 4.3441035e+85 5.9940358e+84)
(-1.8169865e+88 1.4457466e+86 -5.5652383e+86)
(-1.8636721e+88 1.3966208e+86 -4.1111593e+86)
(-1.8348968e+88 8.0703312e+85 -3.4552758e+86)
(-1.8359648e+88 1.0346137e+85 -3.376012e+86)
(-1.9002701e+88 1.0917388e+86 4.9323242e+85)
(-1.9020494e+88 -1.0969166e+85 5.2379707e+85)
(-1.8166332e+88 9.0485745e+85 -5.6659495e+86)
(-1.8617861e+88 8.9201496e+85 -4.193658e+86)
(-1.8076789e+88 5.3942921e+85 -5.6776356e+86)
(-1.8530825e+88 2.8918182e+85 -4.1475479e+86)
(-1.8100683e+88 7.7670558e+85 -5.5549866e+86)
(-1.855727e+88 8.4070333e+85 -4.0596266e+86)
(-1.8124638e+88 3.8008624e+85 -5.3980728e+86)
(-1.8570481e+88 2.3955406e+85 -3.9703464e+86)
(-1.8404539e+88 9.0577742e+85 -3.6712234e+86)
(-1.8331049e+88 2.2874987e+85 -3.5746189e+86)
(-1.9058865e+88 9.8725204e+85 1.819132e+85)
(-1.8970498e+88 -1.0530573e+85 2.8012379e+85)
(-1.889657e+88 1.0811382e+86 2.0648175e+86)
(-1.9580789e+88 1.036102e+86 7.8663669e+86)
(-1.8816651e+88 -2.3798953e+85 2.2525486e+86)
(-1.9513063e+88 -7.9021979e+85 8.1458735e+86)
(-1.9112768e+88 1.3051326e+86 1.163522e+87)
(-1.9870771e+88 1.1649988e+86 1.814238e+87)
(-1.905811e+88 -9.6906172e+85 1.2044691e+87)
(-1.979603e+88 -1.384305e+86 1.8510023e+87)
(-1.8838676e+88 1.1373709e+86 2.4758922e+86)
(-1.9531359e+88 1.3826517e+86 8.3810098e+86)
(-1.8861109e+88 -3.2875917e+85 2.4651986e+86)
(-1.9543373e+88 -5.5060873e+85 8.2698922e+86)
(-1.9075657e+88 1.4512385e+86 1.2388251e+87)
(-1.9798891e+88 1.6554104e+86 1.8847668e+87)
(-1.9083054e+88 -9.4380502e+85 1.2189509e+87)
(-1.983332e+88 -1.0072159e+86 1.8668231e+87)
(-1.9643957e+88 1.7051743e+86 7.809135e+86)
(-1.8922347e+88 1.3934894e+86 1.9285201e+86)
(-1.8940256e+88 3.7005359e+85 1.9375769e+86)
(-2.375072e+88 8.763472e+85 -2.7268275e+87)
(-2.5493698e+88 2.9655806e+86 -1.3856245e+87)
(-2.2685808e+88 1.3819182e+86 -1.8482677e+87)
(-2.274627e+88 6.6856074e+85 -1.8958386e+87)
(-2.5652858e+88 4.113409e+85 -1.4359818e+87)
(-2.3050305e+88 1.6359397e+86 -2.7064809e+87)
(-2.2959555e+88 2.6144881e+86 -2.7465559e+87)
(-2.4353095e+88 2.2228916e+86 -1.862303e+87)
(-2.4500762e+88 1.8600079e+86 -1.9309707e+87)
(-2.3480669e+88 1.2666206e+86 -2.032754e+87)
(-2.3377352e+88 1.4418918e+86 -1.9403331e+87)
(-2.33862e+88 8.7180824e+85 -1.6176164e+87)
(-2.3573795e+88 1.7219711e+86 -1.6441817e+87)
(-2.39062e+88 -4.3717147e+85 -1.6294883e+87)
(-2.3652229e+88 2.2585986e+85 -2.1156817e+87)
(-2.36705e+88 1.6521562e+86 -2.0537719e+87)
(-2.3788397e+88 1.2770524e+86 -1.6524059e+87)
(-2.3242933e+88 1.1901124e+86 -2.7703182e+87)
(-2.3219689e+88 7.1100042e+85 -2.796815e+87)
(-2.4697411e+88 2.8029513e+85 -2.0079358e+87)
(-2.4735958e+88 1.254169e+86 -1.9447832e+87)
(-2.2925009e+88 -1.9004424e+83 -2.6200055e+87)
(-2.4384685e+88 1.2977016e+85 -1.584619e+87)
(-2.4489171e+88 5.877286e+85 -1.7342977e+87)
(-2.332792e+88 1.4038056e+85 -1.5374365e+87)
(-2.3268257e+88 2.5536234e+85 -1.8075844e+87)
(-2.3300155e+88 8.3395843e+85 -2.0091265e+87)
(-2.347684e+88 1.4388104e+86 -1.6002547e+87)
(-1.8873605e+88 1.7392409e+86 1.728581e+87)
(-1.878709e+88 -1.090358e+86 1.7623605e+87)
(-1.8951306e+88 1.7632553e+86 1.734375e+87)
(-1.8941722e+88 -4.6461971e+85 1.6954634e+87)
(-1.8914343e+88 1.0618454e+86 1.6576532e+87)
(-1.8842013e+88 -1.191015e+86 1.7020767e+87)
(-1.8892342e+88 1.1798133e+86 1.7453174e+87)
(-1.8932764e+88 -1.4391102e+86 1.7115335e+87)
(-1.6457188e+88 1.6843458e+86 1.5744629e+87)
(-1.6455233e+88 -8.5540259e+85 1.5641684e+87)
(-1.6452732e+88 9.0187099e+85 1.5014604e+87)
(-1.6472668e+88 -1.0897049e+86 1.536414e+87)
(-1.6482727e+88 1.4764988e+86 1.5004952e+87)
(-1.645872e+88 -2.5825455e+85 1.4800174e+87)
(-1.6413594e+88 1.7199249e+86 1.5397405e+87)
(-1.6408319e+88 -8.2360063e+85 1.5613015e+87)
(-1.8855766e+88 1.2513276e+85 1.7738068e+87)
(-1.8891107e+88 -2.4812393e+86 1.7561201e+87)
(-1.8896234e+88 -2.3960283e+85 1.7050254e+87)
(-1.883902e+88 -2.5975465e+86 1.7637763e+87)
(-1.8726151e+88 3.1973762e+85 1.6787471e+87)
(-1.8736537e+88 -1.712339e+86 1.6494339e+87)
(-1.8713365e+88 6.5561169e+85 1.7129824e+87)
(-1.8652549e+88 -1.905804e+86 1.7738143e+87)
(-2.8603142e+88 -2.089497e+86 -1.4969377e+87)
(-2.8682237e+88 -2.9854324e+86 -1.4327679e+87)
(-2.8839219e+88 5.4284428e+85 -3.096135e+86)
(-2.4402237e+88 -5.5088307e+84 -1.5110201e+87)
(-2.4509676e+88 2.7396535e+86 -1.5866503e+87)
(-2.4723787e+88 9.9701307e+85 -2.8055199e+87)
(-1.9794577e+88 3.703017e+86 -3.43024e+87)
(-1.9799563e+88 6.2596613e+85 -3.4613385e+87)
(-2.485189e+88 -2.6223495e+84 -2.7033549e+87)
(-1.9863779e+88 3.7063119e+86 -3.3897033e+87)
(-1.984103e+88 4.8843167e+85 -3.4299103e+87)
(-2.4495148e+88 2.1105562e+86 -1.5115018e+87)
(-2.5011672e+88 1.1134179e+86 -2.6652435e+87)
(-1.9971778e+88 3.8815058e+86 -3.3811104e+87)
(-1.9922708e+88 9.68007e+85 -3.3892994e+87)
(-2.5015939e+88 5.3746564e+84 -2.7761154e+87)
(-2.0003913e+88 4.1047362e+86 -3.443736e+87)
(-1.9977975e+88 4.655602e+85 -3.5026138e+87)
(-2.4432116e+88 -5.7475795e+85 -1.4977448e+87)
(-1.7316685e+88 2.8619195e+85 -4.2147823e+87)
(-1.7343891e+88 1.0137318e+86 -4.1798418e+87)
(-1.7423828e+88 1.1301534e+86 -4.1533673e+87)
(-1.7366056e+88 4.7051468e+85 -4.2095104e+87)
(-1.2217344e+88 2.5080555e+86 -3.5853268e+87)
(-1.2163544e+88 1.8237229e+86 -3.556786e+87)
(-8.9820635e+87 1.1963599e+86 -3.856267e+87)
(-8.8199101e+87 1.1195794e+86 -3.8289901e+87)
(-1.2216981e+88 2.7405047e+86 -3.6087103e+87)
(-1.2160365e+88 1.3437735e+86 -3.6494616e+87)
(-8.8101946e+87 7.7184529e+85 -3.9449354e+87)
(-8.9174083e+87 2.1094012e+86 -3.8539389e+87)
(-6.902522e+87 -9.3124431e+85 -1.5604544e+87)
(-9.7596585e+87 -2.883919e+86 1.3392036e+87)
(-6.7340505e+87 -1.1025148e+85 -1.5136395e+87)
(-9.5245705e+87 5.3141301e+85 1.2253462e+87)
(-6.8860896e+87 6.8254593e+85 -1.4897953e+87)
(-9.7114746e+87 -7.6749284e+85 1.3560115e+87)
(-6.6922929e+87 -3.3407782e+84 -1.6035727e+87)
(-9.4587091e+87 1.0276401e+86 1.2516652e+87)
(-1.2220237e+88 2.254075e+86 -3.6078218e+87)
(-1.2165513e+88 1.5657663e+86 -3.5727938e+87)
(-8.9879234e+87 6.3639231e+85 -3.8541856e+87)
(-8.8186264e+87 5.9848948e+85 -3.8264019e+87)
(-1.2169116e+88 2.4690246e+86 -3.5926897e+87)
(-1.213276e+88 1.1073352e+86 -3.6342548e+87)
(-8.9145047e+87 1.4916287e+86 -3.8198058e+87)
(-8.8144948e+87 2.628344e+85 -3.911117e+87)
(-6.8161964e+87 -1.8971002e+86 -1.6564343e+87)
(-6.7562872e+87 -1.3817287e+86 -1.5139692e+87)
(-9.5808746e+87 -1.7851319e+86 1.2542594e+87)
(-9.6164566e+87 -3.9359772e+86 1.2672275e+87)
(-9.8214871e+87 -3.0569799e+86 1.4127465e+87)
(-9.594677e+87 -6.4436638e+85 1.3172689e+87)
(-6.9425777e+87 -8.2470448e+85 -1.4241553e+87)
(-6.7474777e+87 -1.1140888e+86 -1.5457651e+87)
(-1.7450327e+88 9.9666497e+85 -4.1774349e+87)
(-1.751615e+88 1.4133673e+86 -4.1718127e+87)
(-1.7561127e+88 2.0165918e+86 -4.2019036e+87)
(-1.7501888e+88 9.9760899e+85 -4.2787394e+87)
(-1.2284841e+88 3.0443819e+86 -3.647505e+87)
(-8.9570711e+87 2.6522937e+86 -3.9036931e+87)
(-8.8857107e+87 1.1559334e+86 -3.9775839e+87)
(-1.2219364e+88 1.5863933e+86 -3.6951346e+87)
(-6.7803035e+87 1.17081e+86 -1.4539218e+87)
(-6.9087623e+87 1.0545602e+86 -1.4871332e+87)
(-9.8265083e+87 -8.2314878e+85 1.3794865e+87)
(-9.6569459e+87 1.6986499e+86 1.2927061e+87)
(-6.8944687e+87 1.7371683e+86 -1.5214834e+87)
(-9.7552057e+87 1.8350014e+85 1.3623853e+87)
(-9.4222251e+87 1.5406134e+86 1.2103449e+87)
(-6.6056242e+87 7.5717708e+85 -1.779773e+87)
(-1.2226721e+88 2.3311953e+86 -3.5847636e+87)
(-1.2278699e+88 3.321961e+86 -3.6111008e+87)
(-8.9525277e+87 2.7307664e+86 -3.9133105e+87)
(-8.8424177e+87 1.8693182e+86 -3.8752624e+87)
(-1.2294472e+88 2.7749192e+86 -3.6054868e+87)
(-1.2218645e+88 2.0183695e+86 -3.5638343e+87)
(-9.0214945e+87 1.6778795e+86 -3.8927921e+87)
(-8.8392084e+87 1.457255e+86 -3.8619016e+87)
(-1.2208333e+88 3.0190071e+86 -3.5682404e+87)
(-1.2154534e+88 1.9530117e+86 -3.6064197e+87)
(-8.8833469e+87 2.4851963e+86 -3.8529733e+87)
(-8.7784673e+87 1.7537619e+86 -3.9390963e+87)
(-6.8764821e+87 -1.3600695e+85 -1.6042261e+87)
(-6.7776715e+87 2.4284698e+85 -1.5080994e+87)
(-9.6670454e+87 3.6630403e+85 1.2434582e+87)
(-9.7423745e+87 -2.0656282e+86 1.3015205e+87)