/*--------------------------------*- C++ -*----------------------------------*\
  =========                 |
  \\      /  F ield         | OpenFOAM: The Open Source CFD Toolbox
   \\    /   O peration     | Website:  https://openfoam.org
    \\  /    A nd           | Version:  7
     \\/     M anipulation  |
\*---------------------------------------------------------------------------*/
FoamFile
{
    version     2.0;
    format      ascii;
    class       volScalarField;
    location    "2000";
    object      omega;
}
// * * * * * * * * * * * * * * * * * * * * * * * * * * * * * * * * * * * * * //

dimensions      [0 0 -1 0 0 0 0];

internalField   nonuniform List<scalar> 
34158
(
325.91515
324.88163
327.39438
330.82647
286.20887
289.43357
312.09003
310.99168
412.94798
407.99358
287.11053
287.10388
313.04967
313.19243
317.21613
272.19465
320.92216
274.88765
298.93387
297.63307
267.98149
268.40142
411.6443
411.35614
258.83836
332.83965
332.4379
259.31344
654.69214
783.55109
769.89266
641.56238
645.331
775.21342
224.41942
224.84896
310.01228
316.73731
328.73981
270.3779
323.12519
272.0902
299.69069
298.39142
452.3527
454.96295
366.90677
305.85974
258.53589
388.28328
308.09152
261.43672
285.22471
283.78749
269.50965
270.12379
234.35425
236.92392
253.75924
254.38321
219.27943
405.03657
332.37768
259.2915
258.60181
333.27875
654.79728
775.1349
770.76051
641.55281
636.98125
767.91455
782.17509
650.02499
335.49512
549.65712
546.08203
422.82194
420.52562
418.61527
546.04115
338.49524
1002.3588
1036.2902
1204.9386
1163.4273
1364.4413
1415.391
1563.0999
1375.1819
1347.3337
1550.2475
1589.0245
982.94307
1145.6812
990.02639
1163.4741
986.58227
994.35545
1163.1988
1154.6361
1572.1931
1371.7256
1561.7342
1357.9673
225.27433
225.27425
211.2497
212.97826
242.98835
243.85601
269.44918
272.1992
296.24529
299.36964
453.2608
452.37036
400.88949
309.67434
256.47285
379.98184
310.14064
258.7158
286.06026
284.48812
423.61661
661.10235
654.90765
425.35203
666.34007
667.43198
431.87831
361.10624
295.97117
246.77964
468.96164
382.64065
296.82577
249.45311
270.67761
269.62012
238.09573
238.85002
254.73531
255.3136
264.21986
226.14888
275.65843
228.82014
2203.3777
2237.4611
213.03167
219.26335
1857.3601
329.94258
257.94086
635.31036
756.77985
771.0806
647.07819
549.57313
421.78439
420.43921
545.48244
337.97733
332.22991
541.25317
549.83744
414.47464
419.62171
1196.1641
1031.1508
1004.8116
1163.3441
1593.7571
1409.5868
1365.7628
1549.8872
1550.1405
1353.6055
1370.0419
1582.6392
985.26182
981.32057
1149.5028
1158.4647
1148.5914
987.53297
976.49951
1142.3384
1363.9806
1569.4174
1351.8447
1560.0196
1438.0676
1388.9464
1602.0873
1000.8881
1171.9186
1208.6702
1035.4652
325.83504
517.38583
510.9874
927.77786
911.44296
701.09881
693.34006
893.97631
675.60062
679.01343
900.33621
505.88758
896.33588
895.16899
676.20766
674.6313
330.52477
1297.6378
1300.7208
1486.0874
1490.508
1359.728
1391.223
1555.8167
1610.3152
1914.6885
2145.7636
2065.3947
1838.1425
1768.2879
2007.461
2000.4561
1766.6297
2299.095
2305.8159
2506.888
2491.4508
2368.5407
2450.9781
2634.594
2555.1618
2894.5914
2828.3008
2844.7904
3021.8482
3006.0551
2366.2346
2373.6234
2596.1297
2575.8235
2276.6106
2269.6295
2470.4316
2492.8861
2989.9554
2809.318
2849.9952
3031.0517
3153.7672
2962.1195
2925.9431
3110.4461
1270.5539
1271.4186
1459.2051
1456.8105
1735.0287
1976.9669
1976.2147
1733.1883
1484.3588
1287.6781
1289.6969
1501.3381
1801.6652
1789.95
2051.4739
2055.5674
1261.7136
1266.7047
1444.7508
1469.0684
1298.2613
1293.9849
1497.2562
1489.9009
2023.4704
1785.3231
1770.4873
2016.1079
1750.0351
1716.2752
1959.8228
1998.5531
3029.9447
2866.0557
2891.141
3081.8979
2518.8398
2325.7212
2324.957
2536.9063
3005.8975
2826.4826
2887.3491
3089
2478.8535
2264.5408
2310.5918
2531.9785
213.49057
225.36218
225.7018
212.98685
213.23101
244.15312
243.74174
215.86169
218.78746
223.68954
221.36435
297.04628
295.54239
307.05297
256.04522
304.52177
257.65463
282.78387
284.7889
423.9653
670.01515
655.51257
423.69201
659.27567
658.87263
485.16769
392.345
292.62688
245.19079
448.22933
384.65749
298.89467
247.50903
270.77528
269.86707
378.06946
666.65403
662.43462
637.9633
646.23751
378.70103
677.63929
674.68588
652.01946
651.89752
434.90599
360.86768
283.4959
236.73961
471.37099
384.09879
284.14085
239.04506
255.74388
255.05865
284.57661
229.46809
271.15446
230.03989
330.96676
250.52648
343.83382
254.30003
2012.368
2039.812
2236.7327
2221.7701
2011.3221
5198.1112
5125.5975
4577.9742
4614.1296
2028.0862
5259.8789
5158.1717
2231.997
2236.309
314.26066
310.84944
211.58779
218.26397
1883.8294
3581.2366
3463.3691
3539.4328
3395.0969
3303.7205
3293.0807
1811.6714
1794.0191
539.47208
547.49217
411.54402
416.5665
333.40404
929.35449
977.35813
983.23326
1146.1703
1140.0901
1350.9126
1346.0211
1535.3851
1537.4914
1368.813
1428.4784
1557.2098
1621.2394
1037.4716
1000.4234
1162.854
1209.8779
691.30077
922.30901
908.55928
684.28978
509.36044
505.08974
890.12964
892.92511
667.10564
669.26572
327.17696
500.35563
521.37977
320.07075
891.07573
886.63139
670.52795
668.27508
929.46663
684.61254
907.90107
695.2987
2135.073
1918.4983
1836.6017
2052.3643
1612.0146
1391.4411
1361.6865
1556.8397
1296.8176
1305.1882
1503.8147
1488.2158
2000.999
1779.7742
1760.185
1978.8111
3093.8649
2955.1212
2851.1301
3015.3692
2620.9064
2449.2267
2340.5749
2517.7843
2258.6646
2282.846
2460.8102
2435.6586
2942.2903
2778.1049
2758.3992
2928.9383
2996.8269
2821.891
2833.3982
3012.9902
2473.9245
2272.7773
2278.9027
2489.0728
2361.808
2340.3617
2561.774
2569.3468
3104.631
2922.2998
2922.3499
3108.206
1279.9501
1281.3386
1483.245
1491.4769
1271.0994
1269.6942
1465.4498
1459.7616
1735.6181
1740.0042
1983.2573
1980.1575
2030.508
1775.8552
1790.5909
2047.076
2021.2805
1782.6408
1764.5248
2004.233
1487.6382
1287.5178
1292.9772
1484.3065
1260.4659
1257.4038
1446.0231
1454.0752
1970.0582
1724.0558
1740.5393
1992.6152
2547.5793
2344.7271
2502.4185
2305.5895
3093.8366
2906.6669
2857.2859
3040.5274
2272.2108
2482.2632
2522.3922
2304.4258
2879.8081
2825.5026
3020.3167
2565.882
2497.1788
2771.9835
2723.6255
2399.8228
2358.162
2581.1649
2622.1578
2994.282
2947.0934
1300.5762
1297.4711
1495.9704
1499.4929
1799.823
2041.5645
1786.6566
2067.0836
2145.0372
1897.3482
1982.9044
2234.9835
1588.5052
1375.255
1414.8983
1651.4717
520.79553
513.92996
528.97298
532.35908
819.41759
791.211
784.58586
803.10154
1252.015
1024.3246
1012.725
1245.3099
1193.8052
977.24375
976.57947
1194.3075
965.74061
966.7367
1174.9194
1178.3013
979.31568
983.18928
1196.7168
1186.328
521.72078
781.11694
785.58637
1173.7408
960.13023
966.59957
1192.1212
1177.219
972.70086
967.19656
1164.0833
529.92149
512.31784
527.30283
2072.4433
2089.0789
3349.402
3362.042
2158.2725
2246.114
3484.8909
3704.7248
4800.4234
5921.0884
5579.9218
4512.4168
4354.4038
5398.1954
5436.5109
4368.7001
6491.6672
6436.6666
7517.2767
7579.6323
6631.0788
7003.402
8088.9809
7713.1389
8800.9134
8672.7451
8610.8722
9723.8214
9778.0643
6656.62
6620.2913
7794.9716
7773.054
6352.8859
6366.3558
7454.4795
7466.4796
9664.2929
8544.1219
8572.3291
9693.3686
10180.876
8975.3893
8877.2793
9974.3876
2029.7305
2010.7809
3265.9455
3250.0061
4266.1438
5315.1091
5292.1209
4244.5896
3266.0427
2016.4978
2040.6413
3376.6187
4445.727
4344.9148
5478.8596
5555.2773
1931.9378
1954.0819
3174.239
3221.0792
2111.102
2048.1114
3375.0384
3352.2101
5498.6815
4407.9794
4357.1892
5431.5895
4270.0427
4166.3069
5231.1692
5376.1601
9808.3205
8729.1815
8753.8856
9903.33
7646.3119
6558.9558
6500.2918
7610.8064
9677.8964
8539.098
8727.8674
7406.8892
6294.2413
6469.616
7589.1567
213.4875
189.82798
189.65535
203.17967
203.76102
237.24187
226.44073
226.65178
238.07174
212.61795
213.68219
243.98582
244.14473
220.71204
221.19515
221.02876
221.87708
231.09032
262.88795
280.75259
245.58846
257.7327
258.98053
284.02952
283.03175
422.08722
418.13135
355.16325
297.98453
244.92141
359.90787
297.60912
246.49048
268.74527
269.97743
378.43029
664.56556
671.59133
652.4289
642.48213
377.86824
659.21968
640.51716
644.26515
662.24312
473.18244
382.19003
279.87084
235.84827
464.13141
400.26
285.34652
237.54745
255.53612
255.09386
327.47596
605.64736
562.28477
558.52555
608.48057
1680.9942
1683.6367
327.11052
616.04722
569.00454
564.27711
615.30326
1684.0788
1701.2766
431.20925
349.71133
272.9044
228.51925
477.24055
372.03393
276.76882
230.50757
362.28271
254.54393
373.14744
255.63198
416.50382
315.00259
437.93249
350.61578
4939.2309
4877.4425
4739.7517
4812.7572
10097.683
9964.0533
9902.0689
9900.5421
4988.1061
4844.4288
4803.193
4924.737
10102.164
10083.787
2025.0707
5160.7756
5253.5147
4701.1508
4619.8093
2023.5572
5133.2873
5219.4584
4650.0357
4579.4621
4814.6
4974.0638
4876.9829
4749.4075
10066.345
8903.4316
8896.6602
10039.163
9939.9579
8811.0061
8812.0653
9921.499
7964.611
9047.6156
9043.2575
9135.1388
8031.3701
8026.558
9129.7412
4985.0121
4889.7901
4783.3505
4864.0573
10155.102
9022.5233
10131.851
9952.1286
9992.1477
2027.2342
5213.792
5184.2818
2021.4699
5121.9574
5254.99
4598.9129
4699.2629
387.20534
343.38236
345.32112
389.59806
312.51558
347.76708
344.58604
389.47396
391.07041
210.56468
308.40497
3519.7088
3430.1183
3564.6665
3663.3346
11918.328
10969.173
10923.35
10679.706
10618.439
3410.6179
3263.4281
3394.2449
3550.918
3301.3678
3355.3884
3238.6366
3400.2482
3532.286
316.58827
839.00698
626.2112
879.47009
877.97309
653.379
653.30825
899.12287
922.98631
669.60557
680.44056
488.22022
511.35592
322.76571
1212.1975
1217.7463
1405.1463
1419.6906
1707.7174
1945.2226
1258.4462
1267.0081
1447.1808
1467.5403
1279.9743
1286.1591
1474.6789
1476.1217
1748.2508
1737.9185
1949.4426
1966.6079
1929.2194
1709.2816
1749.9177
1980.1399
2390.5773
2219.5415
2252.7733
2434.0642
2272.8291
2209.3534
2393.6974
2465.602
2761.1738
2929.7525
2879.8979
2708.2011
2798.8372
2980.9852
2427.2334
2246.3811
2330.9677
2516.5253
2504.3531
2389.2461
2577.7699
2672.1771
2857.0592
2758.1382
2914.4631
3018.1101
3069.018
2916.9089
3005.6586
3151.6588
1431.9005
1390.8507
1577.6576
1652.2742
1301.173
1300.5645
1483.845
1507.6823
1967.712
1750.3267
1797.4159
2028.6392
2090.5415
1865.3179
1966.3444
2194.8444
813.70524
1019.098
1254.0964
1240.585
1004.5953
970.95846
975.03484
1197.6013
1189.1261
785.93155
516.03968
517.21662
769.40768
780.10871
1165.4572
947.50343
946.72812
1173.2474
1179.1138
955.47857
950.64757
1168.1334
502.56593
521.24207
509.59895
530.42886
768.63322
765.7518
779.37551
824.24333
512.60196
506.99753
952.4406
948.91895
1172.2638
1185.7112
1164.9938
949.31794
949.43968
1162.6948
1261.7063
1018.5712
1029.9421
1276.0682
965.22893
1193.4736
1191.6893
966.26906
5888.0292
4772.812
4534.5668
5594.6337
3669.2837
2253.8429
2165.6191
3521.411
2066.874
2116.4872
3395.5819
3345.1184
5381.3141
4360.1737
4329.2767
5355.0916
9999.2094
8984.6706
8759.8007
9845.1476
7967.2742
6926.2959
6618.8642
7677.9654
6367.0833
6400.0216
7450.9778
7414.3875
9599.2166
8508.5962
8469.8623
9541.426
9612.3443
8506.5016
8509.6933
9631.8744
7411.7821
6327.3782
6319.5793
7402.5439
6627.5225
6538.5516
7678.5284
7750.8767
9941.8261
8799.9996
8870.1592
9992.1739
2031.958
2017.8512
3297.4675
3369.3088
2069.9232
2020.6481
3281.0666
3290.9649
4259.4985
4259.9898
5290.5144
5288.2268
5429.0295
4325.227
4421.7232
5523.5147
5496.1234
4387.8537
4319.0124
5388.83
3328.6983
2059.1529
2097.4209
3333.6413
1983.6256
1960.2645
3200.5229
3248.5534
5261.5896
4191.9544
4270.2401
5357.3816
7673.1572
6564.7133
7537.8594
6437.8248
9881.622
8764.2031
8647.328
9774.2186
6330.3405
7431.6722
7573.2782
6442.3817
8694.7899
8538.4658
9662.5091
7295.3647
6897.4084
8437.103
8072.7732
6654.745
6557.4526
7691.114
7820.1592
8981.5651
8798.6319
2066.1802
2033.1094
3314.8087
3343.1882
4383.9347
5445.3317
4340.6729
5512.6133
5740.0175
4568.1043
4968.9771
6149.0434
3471.8781
2159.7905
2339.8006
3823.6088
636.46289
641.12469
724.13116
717.44714
623.12005
620.55374
701.30967
704.67555
913.27709
952.33391
957.11581
940.78399
939.34354
919.31529
952.23281
989.13956
1174.5299
1155.0233
1132.9714
1134.1137
1130.3068
1129.6192
1146.2136
1136.8534
1749.9162
1720.9065
1691.0221
1679.0983
1651.9299
1663.1533
1680.5116
1656.0167
908.57288
908.00258
946.60992
954.46173
1113.3643
1141.4937
1126.4953
1104.9433
1645.9015
1720.1035
1635.1564
1575.9335
911.00492
906.23188
626.69346
625.18356
706.82553
707.57222
627.62417
633.22104
714.65968
708.29871
4639.9793
6178.666
5480.6921
4220.051
4396.3126
5715.1297
6036.1416
4634.9441
9278.7781
9254.4579
8798.3934
9087.0267
9109.1186
8961.1029
9234.6994
9470.4296
5750.4999
4729.4657
6212.6651
4408.7349
6104.0155
5133.6256
6758.9878
4679.3518
9535.7417
9191.0994
9713.9512
9442.8801
10434.88
10420.532
9864.2396
9710.4302
11030.299
11505.619
11598.647
11232.265
12332.714
12623.743
12479.103
12279.132
11733.051
12045.742
12086.715
11736.492
10512.308
10756.947
10997.47
10710.34
10407.508
10157.389
10503.795
10741.866
11797.779
11456.007
11498.764
11818.862
11509.719
11824.006
11896.222
11531.242
10220.624
10427.477
10766.541
10450.808
12587.845
12962.934
12926.902
12545.552
12878.73
12532.228
12542.553
12848.745
13633.301
13628.291
13969.854
13900.038
13953.128
14029.055
13625.952
13571.502
12766.34
13158.774
13128.728
12717.644
13305.947
13466.084
13336.58
13235.266
14214.175
14322.645
14327.925
14223.742
14192.308
14246.187
13788.189
13719.826
14805.665
15371.62
15293.243
14761.048
14656.966
15100.235
15026.803
14632.11
14772.978
14749.789
15060.14
14974.116
15876.368
15888.389
16143.927
16062.306
16124.265
16152.103
15742.686
15700.087
12949.229
13018.761
13019.858
12904.185
13454.106
12873.626
12956.24
13516.475
14227.76
14155.337
14750.784
14727.422
14072.125
14133.635
13976.564
13915.456
12622.481
12708.733
12736.626
12634.097
12293.062
12251.167
12593.333
12613.004
13419.583
13390.579
13738.457
13688.625
13767.57
13826.995
13776.447
13722.622
15634.283
15677.164
16009.435
15927.64
14530.192
14507.986
14852.733
14802.58
14877.482
14889.419
14822.989
14841.652
15918.628
15936.956
15981.549
15951.124
16822.499
16862.858
17293.051
17191.046
15562.879
15489.546
16005.054
15969.965
15006.999
15228.957
15160.709
14967.433
16260.907
16295.919
16059.268
15989.772
4452.9792
5944.263
5391.6608
4192.3685
4158.8962
5397.2283
5686.1575
4337.8847
8777.7403
8568.8159
8884.3839
9110.1128
9161.024
8991.8799
8462.0304
8843.0692
10111.779
9843.3177
10145.545
10413.36
11481.856
11142.935
11204.533
11538.936
11401.167
11577.577
11701.752
11529.223
9978.1676
10217.275
10573.365
10322.55
8776.504
8376.1989
8833.3572
9162.5601
4035.1493
5262.9055
5704.8506
4345.8466
4386.3687
5810.0332
5618.8915
4293.878
9142.1884
9294.5604
9054.468
9396.6902
10559.817
10455.054
10802.228
10796.624
10403.637
9979.2166
10428.569
10903.189
12122.48
11553.8
11720.147
12285.119
11878.023
11902.651
11962.313
11876.607
5294.2165
3966.6466
3955.6285
5282.1805
3912.1878
4118.9611
5117.5283
5431.7087
8510.0211
8564.4671
8300.9571
8740.2217
8820.8408
8531.9937
8732.9714
9010.3461
4672.8317
6130.7353
5523.7443
4345.4494
4383.0646
4465.9165
5686.7499
5928.3163
9156.9269
9014.6142
9280.8573
9417.7105
8709.6456
9336.5656
9575.9105
8994.1796
11861.569
11598.516
11542.278
11907.621
10527.58
10274.242
10492.617
10771.79
10948.894
10630.752
10104.024
10424.241
11526.947
12099.465
12167.217
11634.43
10158.045
9999.9867
10364.053
10441.863
9846.1691
9687.2338
10019.27
10213.335
11344.319
11109.032
11223.125
11482.597
11572.124
11512.574
11622.569
11651.359
15469.3
15591.819
16059.276
15908.334
14521.847
14588.871
15049.735
14921.543
15130.843
15562.246
15502.801
15159.514
16622.4
16704.972
16365.449
16377.487
13484.32
13542.189
14009.22
13916.794
12500.479
12547.343
12978.485
12919.058
12723.224
13249.752
13230.133
12765.019
14317.637
14364.835
13902.633
13913.6
15898.694
16005.967
16268.742
16137.471
14773.261
14781.987
15064.307
15037.404
15166.934
15261.568
15242.713
15157.125
13550.857
13499.206
13803.496
13832.528
12589.688
12296.43
12347.724
12640.109
12760.28
12737.813
12771.113
12774.466
13982.93
13947.245
13940.982
13933.225
213.21462
202.96874
189.65493
190.26319
204.16119
237.04935
226.77291
226.76906
237.97126
191.99238
191.40995
205.47805
212.09345
206.30286
212.57712
283.14413
244.60958
244.07888
281.84358
219.44063
220.63713
220.81977
222.41895
275.90205
237.54832
236.74485
279.43682
308.47741
295.76472
351.56916
341.37946
294.43715
246.75699
301.52555
248.40912
269.83617
269.18897
376.85781
664.52472
652.25974
633.51338
646.62203
374.22354
637.75813
621.36166
628.6979
647.93683
416.35878
348.97534
283.96035
235.53622
426.28777
360.8718
284.67073
237.00078
255.00514
255.31548
327.11125
560.10747
610.13824
609.02706
561.46505
1690.367
1679.5537
327.29937
553.56436
552.79676
603.91943
601.35725
1685.9695
1673.504
448.5023
365.90429
265.91484
227.72511
484.0604
374.9187
274.08601
228.87485
482.87776
483.03777
430.19808
433.39654
1317.9552
1000.9781
986.47577
1309.2156
4085.6905
4153.1316
4403.8671
4333.1442
4184.8962
4093.0076
4322.6472
4401.634
486.02165
485.97514
430.9528
433.03267
1319.886
1001.0581
1007.785
1332.4946
4139.7268
4096.9014
4318.025
4381.3534
4202.8411
4134.2326
4370.6837
4420.0814
426.06114
344.78433
251.61933
475.14623
370.48634
255.85439
486.02709
334.0499
457.91341
332.04677
435.90899
457.86773
10059.568
9604.6061
9764.8861
10227.768
9565.6902
10056.273
10014.007
9546.3371
10113.877
10131.114
9405.7494
9405.2023
10172.451
10327.686
9609.5936
9465.0526
14163.611
14178.392
14720.62
14789.901
14169.49
14001.61
14607.503
14691.027
14493.276
14542.959
13995.806
13852.329
14583.721
13977.601
14044.561
14593.002
10254.479
10212.512
9738.7338
9764.5903
9602.4082
10337.327
10307.212
9588.7692
9462.8435
10176.232
10062.854
10150.635
9687.7234
9605.6334
14789.481
14724.705
14101.854
14253.599
14807.467
14267.489
14198.548
14806.93
4891.2111
4772.3523
4869.6753
4983.7361
9921.5021
8811.4224
8866.6775
9983.2595
10165.077
10093.084
8978.3529
9038.8871
9263.2998
9214.5598
8177.1216
8135.0818
8035.2527
7985.9425
9043.3581
9103.6241
4894.4527
4755.3583
4848.115
4989.559
9858.4201
8741.414
8837.814
9974.5165
10085.205
8936.4047
8942.0446
10077.303
9164.5968
9168.3005
8065.8267
8073.831
8969.5853
7987.4366
7909.9598
9068.6536
10328.007
10281.257
9543.2483
9570.2101
9709.7997
9757.1696
10255.663
10187.037
10065.013
9588.3643
9569.1769
10023.869
10160.152
10131.648
9429.6911
9437.7933
14650.467
14739.285
14174.528
14005.419
14233.194
12648.472
12764.23
14403.751
12785.524
14437.062
12749.035
14353.006
14762.912
14205.74
14133.95
14751.667
14661.655
14679.101
14147.335
14038.802
14265.04
12659.921
12728.342
14372.176
12607.328
14218.595
14168.531
12596.539
14537.166
13992.627
13949.41
14580.449
10919.136
12020.985
11978.337
10947.158
11854.184
12807.803
12869.855
11897.532
12749.833
11804.548
11825.162
12748.478
11854.772
12796.135
12907.854
11935.502
12079.105
10998.526
11012.575
12078.598
11974.853
12056.118
10976.629
10919.802
12927.195
11955.142
11948.481
12895.645
10227.836
9781.9289
9760.9772
10200.339
10052.886
9590.8816
9646.6126
10103.655
10158.19
9453.504
9507.0576
10204.688
10360.325
9653.6126
9633.6433
10334.123
14769.976
14813.996
14316.331
14184.681
14398.135
14535.63
12908.653
12816.21
14839.558
14327.754
14264.42
14846.65
14171.719
14028.48
14632.479
14697.846
14614.236
14022.675
14065.099
14646.107
2009.8863
2048.0444
4826.5355
4968.3971
4922.8645
4802.2951
10108.238
10012.291
10027.984
8907.6743
8908.2181
10016.072
4982.8683
4861.1451
4748.1683
4857.8102
9885.4033
8778.2877
8802.3509
9906.5647
10182.056
9042.7001
8960.8143
10066.396
7957.2683
9012.5601
9028.6656
7975.6911
9274.8256
9193.7442
1965.3652
2010.23
514.36774
377.53906
375.01001
511.65515
342.31919
344.09938
387.67873
383.93264
377.96118
376.89467
512.02159
514.7625
311.20963
306.93516
346.01379
342.76673
386.84983
388.15546
11363.402
10926.583
11933.163
12331.804
17140.731
17285.909
17570.163
17427.906
16339.189
16512.122
16656.495
16513.929
17034.878
17420.82
17292.805
16956.328
17261.277
16773.687
16674.162
17119.937
16620.304
17080.815
16991.198
16569.171
11305.168
10323.316
10845.261
11883.48
10569.153
10732.128
10277.313
11314.958
11770.554
500.03558
501.84818
736.8935
1103.7512
895.65969
890.31841
1087.9109
1153.2765
925.30286
932.7664
1164.2429
1152.8484
920.44372
917.67101
1140.5528
746.80774
739.22304
1174.6447
943.31906
946.43179
1180.5222
1265.3125
1013.0468
1030.7862
1289.1719
761.06157
814.95074
490.32677
517.5271
496.08
515.34437
2009.5259
1992.0711
3272.8196
3359.8656
4389.1108
5460.8602
1998.8136
1968.9094
3200.8918
3317.4986
2062.8357
2021.7186
3317.9673
3304.1602
4275.7029
4258.4526
5243.0536
5308.053
5131.6215
4128.8392
4335.3409
5410.1897
7206.2008
6210.3036
6327.303
7373.4839
6466.5854
6131.4562
7156.7774
7540.2384
8421.7982
9491.3023
9231.7052
8178.8789
8605.7816
9673.1074
7335.9189
6281.2725
6545.3096
7640.0004
7182.9047
6667.8223
7775.9912
8275.992
8714.9762
8342.8442
9339.9629
9787.2775
9900.5346
8838.6022
9329.5495
10360.417
2433.6229
2181.6068
3459.6398
3848.8682
2078.9742
2000.8144
3264.9145
3360.054
5251.6415
4220.9556
4374.4259
5461.5186
5562.5543
4461.2536
4933.6038
6067.8338
947.33646
1180.7163
1151.1095
1766.134
1722.9492
1127.408
1143.1472
1720.9133
1673.5631
936.01172
940.25626
900.44879
893.57081
909.25467
919.5635
944.40275
1118.9536
1121.9528
1116.9478
1102.387
1656.0639
1687.7105
1659.1165
1626.1304
611.4898
615.03041
693.13561
690.23421
622.39057
700.77422
628.35681
711.70769
889.20517
877.47099
909.50241
917.73772
900.49002
957.84385
913.17304
971.58432
1102.9625
1117.1287
1103.5556
1102.9821
1121.9804
1128.3881
1183.0942
1203.7965
628.16745
634.28826
715.63353
708.38641
616.16804
693.64056
616.66286
695.89694
1643.8776
1694.3728
1627.7167
1615.1774
1769.538
1826.1398
1657.6193
1679.6405
11811.055
12551.564
12344.729
11709.79
11525.775
11430.812
10714.157
10801.145
10569.999
10835.866
11010.79
10707.017
11727.159
12026.152
11982.115
11685.457
9655.1416
10285.976
10181.556
9686.0971
5103.0521
6572.4868
4709.7695
6114.2554
5878.0583
4794.273
6354.5131
4459.4348
9854.8814
9812.7998
9446.8814
9573.9063
4550.3572
6002.5842
5503.342
4236.6739
4439.625
5756.5811
6104.432
4668.7684
9149.4772
9033.9817
9540.9419
9637.6664
9416.6544
9301.6296
8891.1179
9089.354
11779.273
11384.831
11408.098
11799.295
10354.253
10125.404
10579.837
10746.544
10150.466
10401.059
10629.246
10317.637
11364.469
11657.626
11690.478
11352.398
15553.521
15720.714
15714.032
15590.902
14734.038
14881.37
14693.108
14615.978
14819.583
15238.935
15158.181
14774.131
16232.404
16317.197
15895.65
15849.33
13863.127
14030.38
13674.346
13599.193
13077.855
13297.22
12711.91
12619.08
12713.383
13000.936
12952.563
12654.501
14025.42
14057.965
13737.536
13670.503
12402.958
12726.095
12696.475
12352.826
12885.418
12431.031
12413.949
12817.062
13451.715
13463.448
13941.764
13826.48
13697.2
13772.358
13426.37
13363.995
15620.809
15666.836
16097.618
16001.174
14551.658
14524.146
14990.64
14888.643
14447.683
14825.49
14769.606
14408.287
15875.881
15895.111
15504.596
15449.25
15589.683
15697.269
15772.102
15650.239
14568.324
14590.361
14634.755
14571.872
14741.114
15097.733
15046.875
14683.143
16134.029
16223.619
15844.415
15794.266
13409.332
13405.159
13478.277
13407.613
12293.73
12258.443
12342.346
12345.694
12503.85
12755.514
12804.664
12536.511
13893.6
13911.003
13637.476
13586.686
12874.839
13235.509
13269.38
12866.675
13414.109
12707.485
12730.338
13418.83
13831.021
13837.25
14655.26
14572.564
14376.256
14425.399
13990.101
13944.045
16112.52
16132.998
16988.827
16845.527
14977.416
14949.433
15810.396
15712.141
15094.052
15584.781
15498.038
15076.052
16629.88
16698.739
16230.151
16180.743
4394.5826
4251.7582
5896.3803
5619.6648
5796.5399
4097.6891
5404.4299
4391.5227
8618.0667
8893.0515
9306.0769
9104.0264
9061.5034
9257.4626
9468.895
9243.5868
4615.9663
4401.7414
6035.8156
5718.4133
4218.4538
5492.9127
5644.592
4365.1925
8894.2722
8886.7416
8707.2227
9017.5691
9201.7104
9067.6177
8837.1346
9048.9376
10074.284
10241.375
10586.374
10336.658
10126.309
9893.1387
9998.6062
10193.856
11234.865
11148.39
11208.643
11275.14
11389.109
11640.123
11736.89
11457.428
12077.024
11485.335
11611.748
12215.67
10353.676
9969.072
10487.56
10871.308
10380.843
10560.326
10902.114
10623.451
11721.283
12032.83
12132.947
11758.478
11688.631
11604.493
11583.418
11697.281
10559.942
10324.686
10300.353
10583.286
10129.209
10374.449
10746.854
10437.148
11518.932
11840.358
11906.979
11582.358
9191.0924
8958.4373
8962.2725
9159.7987
4405.7727
5734.3974
5983.3527
4621.8195
4607.6786
6007.9161
4496.0268
5827.2959
8883.3658
9295.5461
9118.4548
9074.8895
4261.4329
4068.1875
5329.7249
5653.8773
4186.6347
5577.6872
4008.3653
5289.5903
8683.4003
8444.9483
8820.7826
8986.6697
8789.4852
9046.5234
8648.2175
8850.6831
11479.729
11276.609
11367.479
11621.362
10158.189
9783.7161
10033.966
10362.528
9987.3558
10125.311
10484.536
10281.318
11408.374
11604.304
11724.305
11493.255
13675.83
13689.493
13902.022
13841.844
12606.031
12620.695
12796.308
12755.175
14119.172
14125.608
13769.398
13740.075
12651.788
12977.94
12986.393
12653.859
15880.106
15929.663
16206.696
16147.826
14790.961
14791.392
15005.212
14976.642
14892.358
15349.872
15277.799
14861.278
16407.411
16477.001
16029.419
16008.735
12756.483
12435.823
12448.067
12783.4
13537.197
13533.619
13957.86
13926.036
14037.925
14017.735
13811.339
13801.802
12604.488
12821.838
12858.266
12631.862
14956.63
15260.618
15185.19
14947.795
14698.29
14654.191
15146.258
15103.93
15851.565
15838.021
16346.408
16292.89
14132.736
13897.05
13844.144
13908.432
13495.129
13259.822
13250.928
13464.571
14964.365
15015.679
14969.299
14777.773
14380.173
14386.835
14653.971
14592.342
13475.303
13091.01
13173.504
13503.607
12644.026
12664.576
13114.206
13105.039
13730.05
13764.773
14318.064
14242.646
14364.991
14354.694
14739.818
14673.52
15942.624
15607.674
15575.901
15865.977
14786.531
14805.648
15460.703
15380.254
5715.4115
4420.4764
5831.5773
4374.9153
5634.8612
4293.583
5649.5363
4298.097
8962.7938
8916.6959
9074.1158
9179.098
9178.6556
8978.275
9241.9924
9057.0836
10313.994
10704.887
10872.927
10470.957
11818.639
11534.245
11588.412
11942.075
10422.373
10119.736
10314.774
10650.592
12118.12
11837.677
11979.894
12251.758
12303.146
12057.884
12135.61
12324.472
10573.681
10922.779
11140.834
10837.446
11374.327
11647.11
12237.794
12192.155
13315.527
12763.828
12771.915
13089.033
9376.3549
9638.2377
9097.177
9400.2004
4495.6458
4609.9046
5839.7315
6047.8875
6962.2585
4914.1538
6358.3229
5340.6341
9953.425
10185.788
10991.736
10953.851
742.93645
748.39789
1034.9129
1022.7748
728.62189
730.25356
1009.0673
1007.7354
1322.6757
1153.9552
1154.1834
1325.8686
1404.9585
1228.8799
1204.3389
1376.5513
1703.0249
1637.0271
1934.5337
1847.3174
1624.4246
1664.4822
1860.0608
1875.939
1342.6264
1167.6623
1166.9607
1347.0306
1163.815
1162.6473
1336.1985
1335.5568
1658.8623
1900.4758
1883.3256
1642.3196
1683.509
1925.9119
1716.557
1951.7079
3128.5008
3025.5372
4247.6624
4015.7543
3995.09
3801.1227
2942.0186
2904.7799
2948.9535
3841.1068
3945.5439
2933.958
2948.4979
3963.3296
2907.6051
3704.2991
3682.7037
2911.2033
2897.9299
3768.0623
3846.6769
3682.3235
2902.6861
2881.524
2921.4471
3634.1608
2938.2045
3800.0653
3828.9539
2946.8224
2973.34
3779.3458
1152.6381
1147.1967
1324.6397
1324.8044
1147.3188
1150.342
1322.6276
1323.0808
1610.3737
1626.2028
1866.925
1903.3097
1650.6817
1706.3835
1883.8335
1868.0179
3836.0811
2932.6969
3822.5231
2898.5821
3871.7615
3035.4719
4061.8821
3018.6619
2876.2459
3531.7066
3615.2144
2864.6653
2770.539
3490.0594
2788.9732
3457.9089
1558.5417
1569.1676
1154.728
1158.6548
1338.305
1335.5929
733.36283
733.29311
1009.1591
1009.0237
739.06657
738.23885
1023.693
11401.471
17166.525
14224.264
9525.6899
9786.1722
14606.675
16334.762
11045.88
31760.788
21573.498
19594.663
31738.469
31784.915
20095.91
21292.318
32816.265
14749.821
10883.364
16167.116
9853.4932
15225.693
11366.965
17052.777
10121.193
21378.441
20367.981
33488.855
32709.666
22694.379
35606.489
33901.145
21066.826
37462.787
38913.954
42021.489
40788.99
43747.914
44801.8
47174.471
46281.939
41896.452
43031.409
45714.621
44446.46
35977.408
36789.6
40060.256
39072.318
38180.625
34979.126
36035.731
39282.052
42326.489
41224.855
43873.789
44973.316
41176.748
42560.296
45386.737
43825.296
35053.837
35686.043
39353.916
38229.481
46421.279
48148.339
50661.177
48897.631
47650.796
46523.982
49041.377
50154.761
54477.072
51722.979
52882.888
55430.308
55880.939
53363.992
51522.132
54105.392
46995.261
48401.186
50916.087
49414.109
51758.636
49464.81
48780.367
51117.047
56486.373
54076.983
53633.106
56155.147
56184.617
53608.406
52007.629
54527.864
57197.525
58998.057
61596.762
59747.852
56788.878
58653.683
61153.316
59308.956
60016.171
57287.908
58176.31
60669.487
65182.746
62661.714
63240.674
65590.294
66178.757
63753.808
61992.458
64469.251
47229.073
47894.693
50506.489
49782.029
48485.736
46886.151
49704.526
51264.783
55669.087
52577.639
54113.417
56792.679
55798.131
53207.871
52382.782
54964.845
46480.94
47120.446
49697.868
49107.453
48256.971
45546.185
46798.308
49412.463
53718.275
50875.529
52144.003
54710.675
54797.114
52353.904
51828.55
54441.951
64161.261
61828.043
62608.422
65001.061
59152.528
56449.842
57428.432
59945.995
57209.931
57491.339
59960.752
59911.479
64885.283
62461.526
62633.071
65077.781
67049.399
64503.853
65145.498
67748.226
61611.471
58624.538
59631.88
62313.987
57683.936
58504.874
61128.654
60182.412
66226.152
63767.191
62779.275
65127.238
10870.049
16320.719
14381.203
9813.7488
9261.9143
13759.204
15218.198
10146.761
30550.145
19044.995
20449.826
31887.839
31831.116
21324.289
19278.482
30884.018
37032.038
33778.627
35034.693
38310.066
41408.434
40048.004
42791.276
44139.322
40776.93
41594.911
44455.899
43674.187
34258.305
35044.26
38481.411
37629.192
30445.614
18519.853
20181.968
31710.018
8826.0977
13311.263
15410.018
10206.853
10149.067
15441.689
14433.663
9591.6247
20061.489
32360.713
20718.878
32505.391
35902.916
35806.182
39277.411
39120.2
37511.162
33949.398
35557.008
39288.455
42660.883
40849.474
43873.048
45629.079
42028.866
42453.633
45218.383
44629.38