/*--------------------------------*- C++ -*----------------------------------*\
  =========                 |
  \\      /  F ield         | OpenFOAM: The Open Source CFD Toolbox
   \\    /   O peration     | Website:  https://openfoam.org
    \\  /    A nd           | Version:  7
     \\/     M anipulation  |
\*---------------------------------------------------------------------------*/
FoamFile
{
    version     2.0;
    format      ascii;
    class       volScalarField;
    location    "2000";
    object      p;
}
// * * * * * * * * * * * * * * * * * * * * * * * * * * * * * * * * * * * * * //

dimensions      [0 2 -2 0 0 0 0];

internalField   nonuniform List<scalar> 
34158
(
-6.3493042e+29
-6.3301851e+29
-6.2966768e+29
-6.2587569e+29
-6.2908469e+29
-6.3152876e+29
-6.1016331e+29
-6.0814949e+29
-4.9748583e+29
-4.9984711e+29
-6.2237539e+29
-6.2594697e+29
-6.0522112e+29
-6.0194168e+29
-6.2683396e+29
-6.0512438e+29
-6.2937098e+29
-6.0750221e+29
-5.8493809e+29
-5.829316e+29
-5.3721193e+29
-5.3749101e+29
-4.9291254e+29
-4.9532327e+29
-4.5036154e+29
-4.7493496e+29
-4.772053e+29
-4.523912e+29
-4.9672827e+29
-5.1000397e+29
-5.1116047e+29
-4.9766842e+29
-4.9889932e+29
-5.1222484e+29
-4.634685e+29
-4.6454238e+29
-5.9380643e+29
-5.9797691e+29
-6.2034252e+29
-5.9892665e+29
-6.2381866e+29
-6.022066e+29
-5.8035967e+29
-5.7736265e+29
-5.8098496e+29
-5.8391461e+29
-6.2656486e+29
-6.0384067e+29
-5.8116652e+29
-6.2894106e+29
-6.0627357e+29
-5.8332813e+29
-5.5949707e+29
-5.5747874e+29
-5.3647248e+29
-5.3529758e+29
-5.3742373e+29
-5.3769984e+29
-5.1212011e+29
-5.1278968e+29
-4.2258547e+29
-4.9040223e+29
-4.7045954e+29
-4.4831307e+29
-4.460756e+29
-4.7270983e+29
-4.9226454e+29
-5.052974e+29
-5.0661151e+29
-4.9311783e+29
-4.9429036e+29
-5.0773488e+29
-5.0920372e+29
-4.9580521e+29
-4.4426705e+29
-4.8289902e+29
-4.8371146e+29
-4.6577689e+29
-4.6631293e+29
-4.6742146e+29
-4.8498527e+29
-4.4627048e+29
-5.0018645e+29
-5.0017592e+29
-5.0784255e+29
-5.0805148e+29
-5.140681e+29
-5.1378535e+29
-5.196971e+29
-5.1511931e+29
-5.1453287e+29
-5.2014527e+29
-5.2073551e+29
-5.0050281e+29
-5.0841561e+29
-5.0126336e+29
-5.0905274e+29
-5.0266618e+29
-5.0187046e+29
-5.0956716e+29
-5.1027251e+29
-5.212636e+29
-5.1557548e+29
-5.217977e+29
-5.1617214e+29
-4.605308e+29
-4.6207915e+29
-4.6567786e+29
-4.6678129e+29
-4.87648e+29
-4.885601e+29
-5.909172e+29
-5.9508425e+29
-5.7018541e+29
-5.739008e+29
-5.7764307e+29
-5.7406978e+29
-6.2006166e+29
-5.9777344e+29
-5.7547245e+29
-6.2349109e+29
-6.0094437e+29
-5.7854838e+29
-5.5498247e+29
-5.5212269e+29
-5.5499402e+29
-5.7976123e+29
-5.7812464e+29
-5.576986e+29
-5.8254613e+29
-5.8108668e+29
-6.2654697e+29
-6.0363183e+29
-5.8029635e+29
-5.5665275e+29
-6.2891496e+29
-6.0600454e+29
-5.8251014e+29
-5.5867621e+29
-5.3366727e+29
-5.31605e+29
-5.3539203e+29
-5.3666315e+29
-5.1110454e+29
-5.0971453e+29
-5.3756714e+29
-5.129629e+29
-5.3780231e+29
-5.1365795e+29
-5.8176543e+29
-5.8339318e+29
-4.1987387e+29
-4.1858599e+29
-5.1920997e+29
-4.6796798e+29
-4.4378604e+29
-4.8956299e+29
-5.0247667e+29
-5.0425833e+29
-4.913151e+29
-4.7850633e+29
-4.6143006e+29
-4.6196352e+29
-4.7917267e+29
-4.4223814e+29
-4.4007752e+29
-4.8032197e+29
-4.8186556e+29
-4.6299116e+29
-4.6471681e+29
-5.0334326e+29
-4.9571384e+29
-4.9577723e+29
-5.0351843e+29
-5.1444479e+29
-5.0910464e+29
-5.0940106e+29
-5.1493715e+29
-5.1553143e+29
-5.0996814e+29
-5.1066014e+29
-5.1612693e+29
-4.9674709e+29
-4.9602077e+29
-5.0390626e+29
-5.0459962e+29
-5.0518008e+29
-4.9727337e+29
-4.9788377e+29
-5.0578585e+29
-5.1115568e+29
-5.166377e+29
-5.1182326e+29
-5.1740351e+29
-5.1355911e+29
-5.1267811e+29
-5.1813944e+29
-4.9876841e+29
-5.0664617e+29
-5.0765559e+29
-4.9989811e+29
-4.4231772e+29
-4.6357265e+29
-4.640425e+29
-4.9125504e+29
-4.9116365e+29
-4.7955122e+29
-4.7922728e+29
-4.914809e+29
-4.7948972e+29
-4.804471e+29
-4.922817e+29
-4.6514899e+29
-4.9296896e+29
-4.9371755e+29
-4.8110661e+29
-4.8158873e+29
-4.4431608e+29
-5.0426463e+29
-5.0416348e+29
-5.0890265e+29
-5.0881713e+29
-5.042958e+29
-5.0461661e+29
-5.0891848e+29
-5.0904512e+29
-5.1237017e+29
-5.1542587e+29
-5.1543584e+29
-5.1230153e+29
-5.1225127e+29
-5.1544504e+29
-5.1558969e+29
-5.1236996e+29
-5.1832214e+29
-5.1816508e+29
-5.205892e+29
-5.2076406e+29
-5.1809753e+29
-5.1802902e+29
-5.2032496e+29
-5.2047135e+29
-5.2258642e+29
-5.2292863e+29
-5.2273637e+29
-5.248957e+29
-5.2512392e+29
-5.192803e+29
-5.188756e+29
-5.2130268e+29
-5.216968e+29
-5.1863709e+29
-5.1845631e+29
-5.2090204e+29
-5.2106385e+29
-5.2525138e+29
-5.2305734e+29
-5.2319901e+29
-5.2537648e+29
-5.2563094e+29
-5.2344892e+29
-5.2384907e+29
-5.2602287e+29
-5.0454875e+29
-5.0435787e+29
-5.0900545e+29
-5.092526e+29
-5.1249025e+29
-5.1571374e+29
-5.1590144e+29
-5.1271701e+29
-5.0966695e+29
-5.0499883e+29
-5.0561393e+29
-5.1010696e+29
-5.1345721e+29
-5.130595e+29
-5.16164e+29
-5.1658237e+29
-5.070282e+29
-5.0632246e+29
-5.1086383e+29
-5.1139229e+29
-5.0596024e+29
-5.0586207e+29
-5.1033039e+29
-5.1055479e+29
-5.168405e+29
-5.1368598e+29
-5.1391418e+29
-5.1704538e+29
-5.1464929e+29
-5.1418944e+29
-5.1730937e+29
-5.1771826e+29
-5.263246e+29
-5.2414519e+29
-5.2437182e+29
-5.2653009e+29
-5.2195242e+29
-5.1952419e+29
-5.1973604e+29
-5.2218353e+29
-5.2678432e+29
-5.2461239e+29
-5.2490878e+29
-5.2706487e+29
-5.2243578e+29
-5.1998943e+29
-5.2036704e+29
-5.2277028e+29
-4.2290516e+29
-4.5670038e+29
-4.5870221e+29
-4.6268477e+29
-4.6434204e+29
-4.84931e+29
-4.8640871e+29
-4.6772466e+29
-4.8882077e+29
-4.6887492e+29
-4.8980622e+29
-5.6627915e+29
-5.6230289e+29
-5.89982e+29
-5.6811762e+29
-5.9407227e+29
-5.7195845e+29
-5.4566946e+29
-5.4893759e+29
-5.5196648e+29
-5.7504276e+29
-5.7663281e+29
-5.4873195e+29
-5.7352447e+29
-5.7169364e+29
-6.2004184e+29
-5.9749542e+29
-5.747285e+29
-5.5107546e+29
-6.2346852e+29
-6.0057368e+29
-5.7773612e+29
-5.5404295e+29
-5.2911395e+29
-5.2636697e+29
-5.2819834e+29
-5.536562e+29
-5.5231223e+29
-5.6569217e+29
-5.6718936e+29
-5.3076141e+29
-5.5494503e+29
-5.5609455e+29
-5.6980061e+29
-5.6849303e+29
-6.036219e+29
-5.8002046e+29
-5.5620772e+29
-5.3154846e+29
-6.0599195e+29
-5.8226411e+29
-5.5815996e+29
-5.3365071e+29
-5.0802964e+29
-5.0596781e+29
-5.3554407e+29
-5.1040903e+29
-5.3705183e+29
-5.1184777e+29
-5.3739188e+29
-5.1375638e+29
-5.376565e+29
-5.1444543e+29
-5.7221763e+29
-5.7365454e+29
-5.7879406e+29
-5.8027107e+29
-5.6940699e+29
-5.8057382e+29
-5.8143141e+29
-5.8788495e+29
-5.8697073e+29
-5.7092633e+29
-5.8220777e+29
-5.8293549e+29
-5.7560563e+29
-5.7730549e+29
-4.464493e+29
-4.44329e+29
-4.1576628e+29
-4.1427121e+29
-5.1863109e+29
-5.2317211e+29
-5.2134406e+29
-5.234552e+29
-5.2160498e+29
-5.2188368e+29
-5.2218189e+29
-5.1772504e+29
-5.1688661e+29
-4.7570523e+29
-4.7743985e+29
-4.5834482e+29
-4.6027746e+29
-4.3785809e+29
-4.9175554e+29
-4.9345813e+29
-4.9257155e+29
-4.9993994e+29
-5.0092278e+29
-5.0565578e+29
-5.0663902e+29
-5.1110355e+29
-5.1207505e+29
-5.0761343e+29
-5.0861193e+29
-5.1297125e+29
-5.1389251e+29
-4.9546882e+29
-4.944321e+29
-5.018892e+29
-5.0289488e+29
-4.7512931e+29
-4.8679761e+29
-4.8672103e+29
-4.7481101e+29
-4.5919128e+29
-4.5969447e+29
-4.8695062e+29
-4.8769579e+29
-4.7501e+29
-4.7591279e+29
-4.4025448e+29
-4.607934e+29
-4.6254036e+29
-4.3806133e+29
-4.8826685e+29
-4.8881741e+29
-4.765038e+29
-4.7686666e+29
-4.9086173e+29
-4.7767936e+29
-4.8968866e+29
-4.7907669e+29
-5.1078818e+29
-5.0784418e+29
-5.0776038e+29
-5.1083031e+29
-5.0445787e+29
-4.9997261e+29
-4.9969803e+29
-5.043261e+29
-4.9968582e+29
-4.9956356e+29
-5.042316e+29
-5.043202e+29
-5.1085494e+29
-5.0770011e+29
-5.078014e+29
-5.1100439e+29
-5.194418e+29
-5.1741445e+29
-5.1764367e+29
-5.1967929e+29
-5.1541409e+29
-5.1323361e+29
-5.1335702e+29
-5.1560808e+29
-5.137087e+29
-5.1349487e+29
-5.1579799e+29
-5.1608071e+29
-5.1993054e+29
-5.1786728e+29
-5.1817562e+29
-5.2024877e+29
-5.2045507e+29
-5.1841128e+29
-5.1858207e+29
-5.2062126e+29
-5.16294e+29
-5.1389875e+29
-5.1412456e+29
-5.1649618e+29
-5.1481104e+29
-5.1443599e+29
-5.1677173e+29
-5.1711289e+29
-5.2088397e+29
-5.1881982e+29
-5.1916876e+29
-5.2127036e+29
-5.0099852e+29
-5.0039201e+29
-5.0504256e+29
-5.0556966e+29
-4.999548e+29
-4.9978513e+29
-5.0441516e+29
-5.046692e+29
-5.0816942e+29
-5.0791853e+29
-5.111639e+29
-5.1139824e+29
-5.1173095e+29
-5.0851916e+29
-5.0903287e+29
-5.1216809e+29
-5.1245697e+29
-5.0938556e+29
-5.0953982e+29
-5.126822e+29
-5.0587829e+29
-5.0123571e+29
-5.0129326e+29
-5.0603211e+29
-5.0213208e+29
-5.0155753e+29
-5.0625795e+29
-5.0675578e+29
-5.1296064e+29
-5.0975092e+29
-5.1022523e+29
-5.1342456e+29
-5.1732796e+29
-5.1502797e+29
-5.1763274e+29
-5.1530694e+29
-5.215523e+29
-5.1942072e+29
-5.1974059e+29
-5.2186491e+29
-5.1564046e+29
-5.179952e+29
-5.184939e+29
-5.1612203e+29
-5.2059129e+29
-5.2010755e+29
-5.2224303e+29
-5.1786445e+29
-5.1741674e+29
-5.2007391e+29
-5.1961456e+29
-5.1699195e+29
-5.1654985e+29
-5.1888074e+29
-5.1924441e+29
-5.212449e+29
-5.2091932e+29
-5.0321922e+29
-5.0262623e+29
-5.0724234e+29
-5.0789168e+29
-5.1129424e+29
-5.1387688e+29
-5.1069492e+29
-5.1438957e+29
-5.1486914e+29
-5.1190195e+29
-5.1233299e+29
-5.1531842e+29
-5.0854061e+29
-5.0389927e+29
-5.0455086e+29
-5.0898927e+29
-4.6312184e+29
-4.6350722e+29
-4.6279285e+29
-4.6318257e+29
-4.8012859e+29
-4.7969693e+29
-4.7992464e+29
-4.8087981e+29
-4.9910144e+29
-4.9150975e+29
-4.9083257e+29
-4.9867062e+29
-4.9850344e+29
-4.9062813e+29
-4.9097458e+29
-4.9866687e+29
-4.9106683e+29
-4.9111033e+29
-4.9879315e+29
-4.9891286e+29
-4.9248558e+29
-4.914954e+29
-4.9935761e+29
-5.0009696e+29
-4.6424986e+29
-4.8154802e+29
-4.8201102e+29
-5.0038764e+29
-4.9281649e+29
-4.9257776e+29
-5.0038122e+29
-5.0072495e+29
-4.9284909e+29
-4.937409e+29
-5.0150711e+29
-4.6600374e+29
-4.64504e+29
-4.662731e+29
-5.085334e+29
-5.0845143e+29
-5.1357721e+29
-5.1353553e+29
-5.0866824e+29
-5.0907051e+29
-5.1370258e+29
-5.1393198e+29
-5.1710937e+29
-5.1948405e+29
-5.1950515e+29
-5.1700127e+29
-5.1689658e+29
-5.1947417e+29
-5.1951212e+29
-5.1692324e+29
-5.2171802e+29
-5.2166855e+29
-5.2353573e+29
-5.2360681e+29
-5.2162349e+29
-5.2150949e+29
-5.2322601e+29
-5.2343112e+29
-5.251545e+29
-5.254109e+29
-5.2530946e+29
-5.2703439e+29
-5.2717069e+29
-5.2258615e+29
-5.2218919e+29
-5.240445e+29
-5.2443624e+29
-5.2193765e+29
-5.2180165e+29
-5.2367629e+29
-5.2376694e+29
-5.2724744e+29
-5.2547459e+29
-5.2557375e+29
-5.2735414e+29
-5.2760593e+29
-5.2583734e+29
-5.2621271e+29
-5.279401e+29
-5.0878157e+29
-5.0860562e+29
-5.1364665e+29
-5.13849e+29
-5.1699842e+29
-5.1958775e+29
-5.1974139e+29
-5.1718636e+29
-5.1429647e+29
-5.0927216e+29
-5.09906e+29
-5.1476424e+29
-5.1795057e+29
-5.1752604e+29
-5.2000287e+29
-5.2042489e+29
-5.1123704e+29
-5.1051536e+29
-5.1544391e+29
-5.1597847e+29
-5.1017768e+29
-5.101272e+29
-5.150001e+29
-5.1514993e+29
-5.2075552e+29
-5.182387e+29
-5.1843427e+29
-5.2097181e+29
-5.1911101e+29
-5.1869963e+29
-5.2122328e+29
-5.2157337e+29
-5.2820666e+29
-5.2653315e+29
-5.2682481e+29
-5.2849347e+29
-5.2477549e+29
-5.2290709e+29
-5.231651e+29
-5.2505134e+29
-5.2873074e+29
-5.2707734e+29
-5.2731186e+29
-5.2530415e+29
-5.2341455e+29
-5.237191e+29
-5.2556119e+29
-4.1861549e+29
-4.2118696e+29
-4.1900874e+29
-4.3531051e+29
-4.3761296e+29
-4.4862231e+29
-4.5213624e+29
-4.5442624e+29
-4.5085135e+29
-4.5872515e+29
-4.608368e+29
-4.8113665e+29
-4.8313036e+29
-4.6473759e+29
-4.860249e+29
-4.6640898e+29
-4.8761377e+29
-4.8993196e+29
-4.6811372e+29
-4.6936654e+29
-4.9102443e+29
-5.6022346e+29
-5.6417366e+29
-5.4223259e+29
-5.3873586e+29
-5.453918e+29
-5.4197254e+29
-5.8981363e+29
-5.6732823e+29
-5.4431945e+29
-5.9379784e+29
-5.7124364e+29
-5.4773174e+29
-5.2051194e+29
-5.2344678e+29
-5.2541361e+29
-5.5097864e+29
-5.4931465e+29
-5.6270304e+29
-5.6429427e+29
-5.2251547e+29
-5.4611043e+29
-5.5942812e+29
-5.6119877e+29
-5.4779465e+29
-5.974814e+29
-5.7461325e+29
-5.5074826e+29
-5.2596253e+29
-6.0055784e+29
-5.7760522e+29
-5.5373911e+29
-5.2887012e+29
-5.0366298e+29
-5.0104657e+29
-5.0139504e+29
-5.3935686e+29
-5.2527601e+29
-5.2656377e+29
-5.4065205e+29
-5.5839047e+29
-5.570372e+29
-5.038512e+29
-5.4186346e+29
-5.276886e+29
-5.2891477e+29
-5.4300172e+29
-5.5967336e+29
-5.6091929e+29
-5.8000685e+29
-5.5586513e+29
-5.3171384e+29
-5.0636779e+29
-5.8225091e+29
-5.5787765e+29
-5.3372505e+29
-5.0863408e+29
-5.3555613e+29
-5.1110424e+29
-5.3736681e+29
-5.1254604e+29
-5.3737695e+29
-5.1403653e+29
-5.3763352e+29
-5.1490094e+29
-5.7221996e+29
-5.7142591e+29
-5.7762861e+29
-5.7842147e+29
-5.842297e+29
-5.8377323e+29
-5.8300218e+29
-5.8338277e+29
-5.7301904e+29
-5.7922928e+29
-5.8007949e+29
-5.7388103e+29
-5.8461413e+29
-5.8502827e+29
-5.6658075e+29
-5.7774162e+29
-5.7846794e+29
-5.8474197e+29
-5.84e+29
-5.68002e+29
-5.7909806e+29
-5.7985673e+29
-5.8621099e+29
-5.8544719e+29
-5.7478836e+29
-5.6871916e+29
-5.6951008e+29
-5.7559274e+29
-5.7996108e+29
-5.831037e+29
-5.8355448e+29
-5.8036293e+29
-5.8079651e+29
-5.840006e+29
-5.8448447e+29
-5.8128658e+29
-5.9063269e+29
-5.8713681e+29
-5.8762982e+29
-5.8622925e+29
-5.9017212e+29
-5.8971419e+29
-5.86684e+29
-5.7023802e+29
-5.7088376e+29
-5.7703321e+29
-5.7634202e+29
-5.8165824e+29
-5.8485579e+29
-5.8203754e+29
-5.8236473e+29
-5.8271614e+29
-5.6349953e+29
-5.7465478e+29
-5.7557051e+29
-5.6515904e+29
-5.7705675e+29
-5.7632428e+29
-5.8327587e+29
-5.8252845e+29
-4.6646974e+29
-4.6816808e+29
-4.6987565e+29
-4.6823689e+29
-4.4217201e+29
-4.6652483e+29
-4.6711916e+29
-4.6545758e+29
-4.6502036e+29
-4.1139655e+29
-4.3985862e+29
-5.2104313e+29
-5.2057943e+29
-5.2244776e+29
-5.2288288e+29
-5.2440495e+29
-5.2286364e+29
-5.2322241e+29
-5.2354603e+29
-5.2378066e+29
-5.2167903e+29
-5.1976524e+29
-5.2016038e+29
-5.2204921e+29
-5.1846591e+29
-5.1941004e+29
-5.1891307e+29
-5.2085561e+29
-5.2132846e+29
-4.3343935e+29
-4.8281428e+29
-4.7103982e+29
-4.8362876e+29
-4.8438269e+29
-4.7181995e+29
-4.7235392e+29
-4.853265e+29
-4.8645188e+29
-4.7322718e+29
-4.746353e+29
-4.5615952e+29
-4.580599e+29
-4.3581349e+29
-4.9589433e+29
-4.9511298e+29
-4.9961838e+29
-5.0028852e+29
-5.0359267e+29
-5.0661222e+29
-4.9760035e+29
-4.9694957e+29
-5.01433e+29
-5.0205705e+29
-4.9649884e+29
-4.963113e+29
-5.0066164e+29
-5.0104235e+29
-5.0435501e+29
-5.0391268e+29
-5.0697222e+29
-5.0740139e+29
-5.0781814e+29
-5.0471731e+29
-5.0537149e+29
-5.0843716e+29
-5.1183438e+29
-5.0955793e+29
-5.0999372e+29
-5.1229234e+29
-5.1103999e+29
-5.1043655e+29
-5.1274364e+29
-5.1333214e+29
-5.1437272e+29
-5.1646256e+29
-5.1691205e+29
-5.1482016e+29
-5.1538055e+29
-5.1744326e+29
-5.1379934e+29
-5.1152e+29
-5.1203179e+29
-5.1423848e+29
-5.1303797e+29
-5.125309e+29
-5.1471269e+29
-5.1518433e+29
-5.1621518e+29
-5.157982e+29
-5.178147e+29
-5.1821278e+29
-5.1864424e+29
-5.1665768e+29
-5.1713774e+29
-5.1912921e+29
-4.9989799e+29
-4.9936811e+29
-5.0374687e+29
-5.0429298e+29
-4.9868226e+29
-4.9817086e+29
-5.0255407e+29
-5.0318096e+29
-5.089151e+29
-5.0581658e+29
-5.0646478e+29
-5.094782e+29
-5.099838e+29
-5.0696085e+29
-5.0758941e+29
-5.1054785e+29
-4.7555527e+29
-4.8687687e+29
-4.9445884e+29
-4.9406673e+29
-4.8622422e+29
-4.8638231e+29
-4.8603584e+29
-4.9389976e+29
-4.9406958e+29
-4.7515699e+29
-4.5833312e+29
-4.5880496e+29
-4.7537688e+29
-4.763161e+29
-4.9418661e+29
-4.8649373e+29
-4.8643287e+29
-4.9428816e+29
-4.9471819e+29
-4.8684445e+29
-4.8781255e+29
-4.9543023e+29
-4.6013597e+29
-4.6201073e+29
-4.5992775e+29
-4.6173329e+29
-4.7696777e+29
-4.7736791e+29
-4.7825145e+29
-4.7969398e+29
-4.5853061e+29
-4.5904114e+29
-4.8782794e+29
-4.8810889e+29
-4.9567702e+29
-4.9562668e+29
-4.9586921e+29
-4.8802598e+29
-4.8882567e+29
-4.9651265e+29
-4.9818199e+29
-4.902533e+29
-4.9136021e+29
-4.9899682e+29
-4.8931515e+29
-4.9701633e+29
-4.9750132e+29
-4.8959252e+29
-5.1471051e+29
-5.1246603e+29
-5.1239796e+29
-5.1479758e+29
-5.0924189e+29
-5.0429069e+29
-5.039139e+29
-5.0901937e+29
-5.0381753e+29
-5.0371172e+29
-5.0884994e+29
-5.0889774e+29
-5.1485484e+29
-5.1229797e+29
-5.1233678e+29
-5.1493946e+29
-5.2129695e+29
-5.1974747e+29
-5.2007648e+29
-5.2164675e+29
-5.1815951e+29
-5.16544e+29
-5.1677096e+29
-5.1845199e+29
-5.1711473e+29
-5.169436e+29
-5.1869199e+29
-5.1891647e+29
-5.2196457e+29
-5.2035447e+29
-5.2058968e+29
-5.2219467e+29
-5.2229254e+29
-5.2072409e+29
-5.2091842e+29
-5.2249105e+29
-5.1908549e+29
-5.1727643e+29
-5.1748013e+29
-5.1925535e+29
-5.1805099e+29
-5.177444e+29
-5.1944545e+29
-5.1975388e+29
-5.2277312e+29
-5.2112057e+29
-5.2142998e+29
-5.2311035e+29
-5.0523608e+29
-5.0455206e+29
-5.0963951e+29
-5.1020929e+29
-5.0405536e+29
-5.0389221e+29
-5.0899228e+29
-5.0920821e+29
-5.126763e+29
-5.1244328e+29
-5.1507292e+29
-5.15293e+29
-5.1562354e+29
-5.1305188e+29
-5.1352604e+29
-5.1599764e+29
-5.1625261e+29
-5.1387342e+29
-5.1406776e+29
-5.1653205e+29
-5.1054557e+29
-5.0548957e+29
-5.0547738e+29
-5.1064113e+29
-5.0636077e+29
-5.0573306e+29
-5.1086959e+29
-5.1139112e+29
-5.1688118e+29
-5.1431387e+29
-5.1476609e+29
-5.1732431e+29
-5.1998379e+29
-5.1823234e+29
-5.2036611e+29
-5.1859323e+29
-5.2341461e+29
-5.2169648e+29
-5.2208185e+29
-5.2379126e+29
-5.1899663e+29
-5.2078984e+29
-5.212421e+29
-5.1946075e+29
-5.2293758e+29
-5.2251483e+29
-5.2421776e+29
-5.2117901e+29
-5.2066847e+29
-5.2278669e+29
-5.222641e+29
-5.2031294e+29
-5.1988892e+29
-5.2156867e+29
-5.2194681e+29
-5.2356264e+29
-5.2322961e+29
-5.0752892e+29
-5.0692123e+29
-5.1194385e+29
-5.1257969e+29
-5.15885e+29
-5.1780701e+29
-5.1528458e+29
-5.1831123e+29
-5.1878262e+29
-5.1649798e+29
-5.1698836e+29
-5.1925527e+29
-5.1329425e+29
-5.0832167e+29
-5.0906118e+29
-5.1386962e+29
-4.7909673e+29
-4.7936801e+29
-4.795293e+29
-4.7912357e+29
-4.8014056e+29
-4.7929709e+29
-4.7929911e+29
-4.8019229e+29
-4.7880019e+29
-4.792384e+29
-4.7994574e+29
-4.7946717e+29
-4.799072e+29
-4.7897583e+29
-4.7967093e+29
-4.8062208e+29
-4.9317865e+29
-4.924388e+29
-4.9219144e+29
-4.9249416e+29
-4.9263818e+29
-4.9258709e+29
-4.9302217e+29
-4.9402096e+29
-5.0212553e+29
-5.01557e+29
-5.0133196e+29
-5.014906e+29
-5.0161066e+29
-5.0168051e+29
-5.0218035e+29
-5.0297236e+29
-4.8055807e+29
-4.8092922e+29
-4.8129849e+29
-4.8171548e+29
-4.9436345e+29
-4.9408969e+29
-4.9432826e+29
-4.9520396e+29
-5.0324735e+29
-5.0314387e+29
-5.0348727e+29
-5.0430244e+29
-4.8262418e+29
-4.8175775e+29
-4.806965e+29
-4.8107126e+29
-4.8115614e+29
-4.8081104e+29
-4.8185777e+29
-4.8316436e+29
-4.8334749e+29
-4.8194578e+29
-5.1000101e+29
-5.1337007e+29
-5.1350329e+29
-5.1025574e+29
-5.1006485e+29
-5.1338045e+29
-5.1336794e+29
-5.0995983e+29
-5.1793136e+29
-5.1600469e+29
-5.1603969e+29
-5.1792599e+29
-5.1795058e+29
-5.1598656e+29
-5.1595521e+29
-5.1785825e+29
-5.1355161e+29
-5.1036605e+29
-5.1369533e+29
-5.1022236e+29
-5.1396422e+29
-5.110541e+29
-5.1417985e+29
-5.1065204e+29
-5.1627123e+29
-5.1610822e+29
-5.1819061e+29
-5.1802382e+29
-5.1663553e+29
-5.18393e+29
-5.183296e+29
-5.1647832e+29
-5.1947768e+29
-5.1948531e+29
-5.2047371e+29
-5.2052375e+29
-5.2139857e+29
-5.2130414e+29
-5.2213698e+29
-5.2227242e+29
-5.2135003e+29
-5.2140675e+29
-5.2230178e+29
-5.2227793e+29
-5.192776e+29
-5.1941281e+29
-5.2049438e+29
-5.2040809e+29
-5.2033685e+29
-5.1920479e+29
-5.191461e+29
-5.2029179e+29
-5.2126933e+29
-5.2129662e+29
-5.2224308e+29
-5.2222159e+29
-5.2127455e+29
-5.2126434e+29
-5.2221656e+29
-5.2223316e+29
-5.191593e+29
-5.1915343e+29
-5.2028087e+29
-5.2030123e+29
-5.2308518e+29
-5.2307516e+29
-5.2392006e+29
-5.2393335e+29
-5.2307862e+29
-5.2308643e+29
-5.2392388e+29
-5.2392293e+29
-5.2546623e+29
-5.2468346e+29
-5.2469561e+29
-5.2548961e+29
-5.2549931e+29
-5.2469819e+29
-5.2470451e+29
-5.2550967e+29
-5.2309673e+29
-5.2309482e+29
-5.2388138e+29
-5.2391219e+29
-5.2362408e+29
-5.2288224e+29
-5.2304149e+29
-5.2381061e+29
-5.2499699e+29
-5.2429729e+29
-5.2450472e+29
-5.2522741e+29
-5.2534498e+29
-5.2460169e+29
-5.2465562e+29
-5.2542423e+29
-5.2614524e+29
-5.2604521e+29
-5.2677914e+29
-5.2690128e+29
-5.2626846e+29
-5.262567e+29
-5.2705311e+29
-5.2707109e+29
-5.2697155e+29
-5.2620086e+29
-5.2623918e+29
-5.2702579e+29
-5.2847367e+29
-5.2770305e+29
-5.277716e+29
-5.2856029e+29
-5.2860792e+29
-5.2780927e+29
-5.2783483e+29
-5.2864211e+29
-5.2401316e+29
-5.2378782e+29
-5.246262e+29
-5.2484854e+29
-5.2357574e+29
-5.2336605e+29
-5.2420772e+29
-5.2441934e+29
-5.2576755e+29
-5.2496934e+29
-5.2518634e+29
-5.259818e+29
-5.2617842e+29
-5.2538857e+29
-5.2560379e+29
-5.2638852e+29
-5.2325072e+29
-5.2317525e+29
-5.2399054e+29
-5.2406884e+29
-5.2395495e+29
-5.2310764e+29
-5.2313981e+29
-5.2397607e+29
-5.2551844e+29
-5.247166e+29
-5.247355e+29
-5.2552845e+29
-5.255316e+29
-5.2474171e+29
-5.2481978e+29
-5.2561309e+29
-5.2866274e+29
-5.2785116e+29
-5.2787663e+29
-5.2869475e+29
-5.2708016e+29
-5.2627523e+29
-5.2628981e+29
-5.2710144e+29
-5.2638684e+29
-5.2630352e+29
-5.2712456e+29
-5.272118e+29
-5.2874071e+29
-5.279091e+29
-5.279991e+29
-5.2883248e+29
-5.2894559e+29
-5.2812468e+29
-5.2830425e+29
-5.2910471e+29
-5.2734654e+29
-5.2652969e+29
-5.2673931e+29
-5.2754059e+29
-5.2712134e+29
-5.2692341e+29
-5.2771367e+29
-5.2789071e+29
-5.292528e+29
-5.2846224e+29
-5.2862098e+29
-5.2939384e+29
-5.1015119e+29
-5.134972e+29
-5.1373592e+29
-5.1042627e+29
-5.1024935e+29
-5.1346939e+29
-5.1346582e+29
-5.1010519e+29
-5.1795981e+29
-5.1601748e+29
-5.1603424e+29
-5.1795882e+29
-5.1802702e+29
-5.1608345e+29
-5.162757e+29
-5.181528e+29
-5.2031873e+29
-5.1918905e+29
-5.1923163e+29
-5.20363e+29
-5.2133155e+29
-5.2128989e+29
-5.2225087e+29
-5.2228464e+29
-5.2145841e+29
-5.2137903e+29
-5.2232201e+29
-5.2240143e+29
-5.1939303e+29
-5.1930218e+29
-5.204105e+29
-5.2050309e+29
-5.1836579e+29
-5.1651612e+29
-5.1685846e+29
-5.1860329e+29
-5.1063864e+29
-5.13932e+29
-5.1430656e+29
-5.1094388e+29
-5.1134337e+29
-5.1459872e+29
-5.1493255e+29
-5.1181242e+29
-5.1736153e+29
-5.1887933e+29
-5.1709311e+29
-5.1912814e+29
-5.2027741e+29
-5.2003903e+29
-5.2108729e+29
-5.2134692e+29
-5.2061395e+29
-5.1953302e+29
-5.1976777e+29
-5.2083968e+29
-5.2177819e+29
-5.2155897e+29
-5.2250731e+29
-5.2271739e+29
-5.2226421e+29
-5.2201347e+29
-5.2294254e+29
-5.2318404e+29
-5.1621113e+29
-5.1253552e+29
-5.1321288e+29
-5.1572847e+29
-5.1191017e+29
-5.1213313e+29
-5.1513512e+29
-5.1537996e+29
-5.178806e+29
-5.1958665e+29
-5.1765108e+29
-5.1980748e+29
-5.2004914e+29
-5.1818621e+29
-5.1852859e+29
-5.2028914e+29
-5.116115e+29
-5.1491156e+29
-5.1505652e+29
-5.1178519e+29
-5.1187054e+29
-5.1167911e+29
-5.1498275e+29
-5.1492676e+29
-5.1926595e+29
-5.1743107e+29
-5.1743176e+29
-5.193324e+29
-5.1755164e+29
-5.1745797e+29
-5.1936212e+29
-5.1943514e+29
-5.2259518e+29
-5.2243673e+29
-5.2335621e+29
-5.2352036e+29
-5.215111e+29
-5.2042741e+29
-5.2055713e+29
-5.2165584e+29
-5.2173329e+29
-5.2062333e+29
-5.206857e+29
-5.2182571e+29
-5.2278987e+29
-5.2269215e+29
-5.2362811e+29
-5.2374773e+29
-5.2143508e+29
-5.2123194e+29
-5.2232215e+29
-5.225184e+29
-5.2103946e+29
-5.208159e+29
-5.2194907e+29
-5.2215187e+29
-5.230993e+29
-5.2290914e+29
-5.2387499e+29
-5.2404829e+29
-5.2343943e+29
-5.23256e+29
-5.2419563e+29
-5.2436349e+29
-5.2947111e+29
-5.2871687e+29
-5.2887642e+29
-5.2961253e+29
-5.2801119e+29
-5.2726745e+29
-5.2744431e+29
-5.2817631e+29
-5.2776314e+29
-5.2760176e+29
-5.2834041e+29
-5.2850426e+29
-5.2977809e+29
-5.2904116e+29
-5.2919631e+29
-5.2992467e+29
-5.2655211e+29
-5.2577266e+29
-5.2595018e+29
-5.2672403e+29
-5.2501636e+29
-5.2417653e+29
-5.2435089e+29
-5.2518619e+29
-5.2460783e+29
-5.2447771e+29
-5.2532192e+29
-5.2546768e+29
-5.268757e+29
-5.2609267e+29
-5.2624243e+29
-5.2703459e+29
-5.3000223e+29
-5.292874e+29
-5.2942397e+29
-5.3013135e+29
-5.2861458e+29
-5.2788477e+29
-5.2801961e+29
-5.2874082e+29
-5.2821312e+29
-5.2812113e+29
-5.2885807e+29
-5.289689e+29
-5.2716091e+29
-5.2637088e+29
-5.2651897e+29
-5.2729926e+29
-5.2490098e+29
-5.2473455e+29
-5.2559893e+29
-5.2575195e+29
-5.2518357e+29
-5.2503464e+29
-5.2587386e+29
-5.2600039e+29
-5.274018e+29
-5.2662713e+29
-5.2673065e+29
-5.2749149e+29
-4.1408901e+29
-4.3051795e+29
-4.1451127e+29
-4.1690094e+29
-4.3307084e+29
-4.4391571e+29
-4.4727303e+29
-4.4972817e+29
-4.4633015e+29
-4.2302176e+29
-4.20883e+29
-4.3703015e+29
-4.5405966e+29
-4.3927724e+29
-4.564509e+29
-4.7512716e+29
-4.7634061e+29
-4.7877804e+29
-4.7743546e+29
-4.6059265e+29
-4.8197643e+29
-4.6283234e+29
-4.8419894e+29
-4.6518484e+29
-4.8700812e+29
-4.8864612e+29
-4.6680817e+29
-4.904957e+29
-4.6814963e+29
-4.6940701e+29
-4.9188288e+29
-5.5952556e+29
-5.3739652e+29
-5.6337748e+29
-5.4084506e+29
-5.1744624e+29
-5.1426574e+29
-5.1954553e+29
-5.4459372e+29
-5.4301192e+29
-5.5592926e+29
-5.5777372e+29
-5.1647058e+29
-5.3963424e+29
-5.5225881e+29
-5.5426835e+29
-5.4148465e+29
-5.8980393e+29
-5.6718861e+29
-5.4372912e+29
-5.1978528e+29
-5.9378277e+29
-5.7113603e+29
-5.473142e+29
-5.2285274e+29
-4.956007e+29
-4.9837118e+29
-4.9886287e+29
-5.2249227e+29
-5.364424e+29
-5.3805836e+29
-5.2402319e+29
-5.5572441e+29
-5.5416503e+29
-4.9616671e+29
-5.1967421e+29
-5.2114997e+29
-5.3500281e+29
-5.3340089e+29
-5.5110628e+29
-5.5270883e+29
-5.7461357e+29
-5.5074185e+29
-5.2583286e+29
-5.0107943e+29
-5.7759951e+29
-5.5374931e+29
-5.2895381e+29
-5.0389743e+29
-5.1282246e+29
-5.1159958e+29
-4.9745709e+29
-4.9642876e+29
-5.4415009e+29
-5.3041003e+29
-5.3156423e+29
-5.4531783e+29
-5.5921665e+29
-5.5854015e+29
-5.645575e+29
-5.6518096e+29
-5.5719302e+29
-5.5784537e+29
-5.6384092e+29
-5.6309111e+29
-5.1522047e+29
-5.1391956e+29
-4.9994039e+29
-4.9859853e+29
-5.4658553e+29
-5.3269862e+29
-5.3393646e+29
-5.4772448e+29
-5.6048166e+29
-5.5975606e+29
-5.6571576e+29
-5.6648289e+29
-5.6120479e+29
-5.619462e+29
-5.6808738e+29
-5.6725465e+29
-5.5583739e+29
-5.3176382e+29
-5.0689353e+29
-5.5786172e+29
-5.3374071e+29
-5.0925238e+29
-5.355515e+29
-5.1177221e+29
-5.373634e+29
-5.1311255e+29
-5.1404393e+29
-5.1490044e+29
-5.7176516e+29
-5.7475494e+29
-5.7522065e+29
-5.7223689e+29
-5.7402818e+29
-5.7105817e+29
-5.713824e+29
-5.7436924e+29
-5.7723993e+29
-5.7687493e+29
-5.8003245e+29
-5.8040478e+29
-5.7761957e+29
-5.7807923e+29
-5.8124846e+29
-5.8078891e+29
-5.8551652e+29
-5.8529789e+29
-5.8366835e+29
-5.8391177e+29
-5.8509517e+29
-5.8486397e+29
-5.8323727e+29
-5.8346266e+29
-5.8246583e+29
-5.8265028e+29
-5.842682e+29
-5.8406865e+29
-5.8283305e+29
-5.8467367e+29
-5.8445896e+29
-5.8304969e+29
-5.7263814e+29
-5.7309577e+29
-5.7605835e+29
-5.7561237e+29
-5.8165149e+29
-5.7847321e+29
-5.7891668e+29
-5.8207819e+29
-5.824868e+29
-5.7933957e+29
-5.735254e+29
-5.7397649e+29
-5.7692496e+29
-5.7648959e+29
-5.8429312e+29
-5.8409385e+29
-5.8568015e+29
-5.8589408e+29
-5.8448724e+29
-5.8609093e+29
-5.8629642e+29
-5.8470983e+29
-5.6599393e+29
-5.7202187e+29
-5.7273506e+29
-5.6667952e+29
-5.7723467e+29
-5.8031316e+29
-5.8069141e+29
-5.7759306e+29
-5.7824411e+29
-5.7790257e+29
-5.8099841e+29
-5.8133673e+29
-5.8441492e+29
-5.8403464e+29
-5.8785101e+29
-5.874446e+29
-5.87107e+29
-5.8675314e+29
-5.83354e+29
-5.8371974e+29
-5.672391e+29
-5.7331696e+29
-5.7407055e+29
-5.6801415e+29
-5.7855239e+29
-5.8167389e+29
-5.8206329e+29
-5.789122e+29
-5.7924185e+29
-5.8239021e+29
-5.8277517e+29
-5.7963976e+29
-5.8587502e+29
-5.8547573e+29
-5.8892598e+29
-5.8933931e+29
-5.8476718e+29
-5.8857431e+29
-5.8820813e+29
-5.8514097e+29
-5.7406806e+29
-5.744417e+29
-5.7747911e+29
-5.7710352e+29
-5.7165439e+29
-5.712635e+29
-5.6835793e+29
-5.6873957e+29
-5.6910796e+29
-5.7201876e+29
-5.7247199e+29
-5.6955627e+29
-5.7480862e+29
-5.7526583e+29
-5.7836359e+29
-5.778872e+29
-5.7942408e+29
-5.7960648e+29
-5.8116416e+29
-5.8096988e+29
-5.8266489e+29
-5.8451993e+29
-5.8474313e+29
-5.8286884e+29
-5.8495914e+29
-5.8307764e+29
-5.8519194e+29
-5.8331352e+29
-5.7978743e+29
-5.8135909e+29
-5.8158484e+29
-5.8001e+29
-5.802217e+29
-5.804804e+29
-5.8206599e+29
-5.8179705e+29
-5.8352621e+29
-5.8541441e+29
-5.8568001e+29
-5.8379132e+29
-5.8591516e+29
-5.840313e+29
-5.8426006e+29
-5.8612358e+29
-5.807115e+29
-5.82306e+29
-5.8254248e+29
-5.8095634e+29
-5.9204852e+29
-5.9050863e+29
-5.9025589e+29
-5.9227952e+29
-5.8861087e+29
-5.8696966e+29
-5.8723442e+29
-5.8887605e+29
-5.8745942e+29
-5.890991e+29
-5.8931593e+29
-5.8767359e+29
-5.876991e+29
-5.8606844e+29
-5.8629615e+29
-5.8793556e+29
-5.897833e+29
-5.9157178e+29
-5.9183003e+29
-5.9003334e+29
-5.8933635e+29
-5.8956865e+29
-5.9134979e+29
-5.9112062e+29
-5.8650794e+29
-5.8814872e+29
-5.8838142e+29
-5.8674003e+29
-5.6990498e+29
-5.7281407e+29
-5.7316668e+29
-5.7022729e+29
-5.7049553e+29
-5.7345323e+29
-5.7377657e+29
-5.7081468e+29
-5.7627491e+29
-5.7940961e+29
-5.7975285e+29
-5.7660843e+29
-5.75618e+29
-5.787322e+29
-5.7909491e+29
-5.7597162e+29
-5.8113351e+29
-5.8134403e+29
-5.829272e+29
-5.8271142e+29
-5.8443087e+29
-5.8463776e+29
-5.8650645e+29
-5.8630532e+29
-5.815241e+29
-5.8310752e+29
-5.8328554e+29
-5.8170024e+29
-5.8363144e+29
-5.8344362e+29
-5.8184392e+29
-5.8201969e+29
-5.8216936e+29
-5.8393037e+29
-5.837743e+29
-5.823378e+29
-5.5971515e+29
-5.6175689e+29
-5.6903636e+29
-5.6310455e+29
-5.6398044e+29
-5.6991271e+29
-5.7412352e+29
-5.7457523e+29
-5.7503072e+29
-5.7812386e+29
-5.7860567e+29
-5.7551836e+29
-5.6468913e+29
-5.7065199e+29
-5.7138861e+29
-5.6538561e+29
-5.7652325e+29
-5.7959774e+29
-5.7998946e+29
-5.7690265e+29
-5.7586168e+29
-5.7893594e+29
-5.7929555e+29
-5.7621686e+29
-5.8600072e+29
-5.8261577e+29
-5.830218e+29
-5.8640611e+29
-5.8196018e+29
-5.8230354e+29
-5.5589286e+29
-5.5783401e+29
-4.8491981e+29
-4.8450954e+29
-4.8592685e+29
-4.8638988e+29
-4.6356785e+29
-4.6539247e+29
-4.6386749e+29
-4.6198454e+29
-4.8252221e+29
-4.8334737e+29
-4.8376361e+29
-4.8309488e+29
-4.3751795e+29
-4.3504718e+29
-4.6171254e+29
-4.6242971e+29
-4.6087672e+29
-4.6030249e+29
-5.225828e+29
-5.2218399e+29
-5.2374059e+29
-5.2413175e+29
-5.2533775e+29
-5.245964e+29
-5.2475441e+29
-5.254855e+29
-5.2390351e+29
-5.2318703e+29
-5.2335419e+29
-5.2406555e+29
-5.2377506e+29
-5.2355633e+29
-5.242574e+29
-5.2446634e+29
-5.2407702e+29
-5.2392917e+29
-5.2461537e+29
-5.2476897e+29
-5.2422956e+29
-5.2417552e+29
-5.2488257e+29
-5.2495098e+29
-5.2301826e+29
-5.213813e+29
-5.2179206e+29
-5.233927e+29
-5.2018621e+29
-5.2104907e+29
-5.2063185e+29
-5.2223768e+29
-5.2267567e+29
-4.541106e+29
-4.539709e+29
-4.7135912e+29
-4.8948344e+29
-4.8172836e+29
-4.8275911e+29
-4.903323e+29
-4.9079165e+29
-4.8318701e+29
-4.8306189e+29
-4.9086853e+29
-4.9126124e+29
-4.8336268e+29
-4.8421664e+29
-4.9196104e+29