/*--------------------------------*- C++ -*----------------------------------*\
  =========                 |
  \\      /  F ield         | OpenFOAM: The Open Source CFD Toolbox
   \\    /   O peration     | Website:  https://openfoam.org
    \\  /    A nd           | Version:  7
     \\/     M anipulation  |
\*---------------------------------------------------------------------------*/
FoamFile
{
    version     2.0;
    format      ascii;
    class       surfaceScalarField;
    location    "2000";
    object      phi;
}
// * * * * * * * * * * * * * * * * * * * * * * * * * * * * * * * * * * * * * //

dimensions      [0 3 -1 0 0 0 0];

internalField   nonuniform List<scalar> 
101481
(
2.0164972e+10
-4.1730267e+10
-2.4532609e+11
1.5552829e+10
-3.8096069e+10
-2.4475154e+11
1.9562489e+10
-3.0443756e+10
-2.304667e+11
-2.0028389e+10
-2.3528489e+11
-1.1632913e+10
1.9575265e+10
-1.1686109e+10
-2.1641993e+11
-1.778141e+10
-2.3545505e+11
1.8306711e+10
-2.8226292e+10
-2.4504965e+11
1.6749047e+10
-3.0775958e+10
-2.4176576e+11
-1.5692794e+10
2.4528386e+10
-2.6329343e+11
-4.4102654e+09
1.5268254e+10
1.3702641e+10
-7.5531352e+09
-2.7001127e+11
-5.5299032e+09
1.4693676e+10
-2.6359165e+10
-4.8339177e+09
-2.0756075e+11
-5.8215742e+09
-2.0241772e+11
2.1121258e+10
-2.7895655e+10
-2.3479642e+11
2.020453e+10
-2.5614298e+10
-2.3547889e+11
-9.2450069e+09
2.0630022e+10
1.2523076e+10
-1.3771498e+11
-9.8416867e+09
1.3745387e+10
-1.1875497e+10
-2.3922405e+11
7.7163566e+09
-1.5725255e+11
-1.4396004e+10
-2.4234042e+11
1.5902077e+10
-1.6910216e+10
-2.4978958e+11
1.7507899e+10
-1.8514559e+10
-2.4702588e+11
-1.3437463e+10
1.3043072e+10
-8.671668e+09
-2.7554109e+11
-8.5863084e+09
-2.7667482e+11
-2.0570158e+10
2.5418201e+10
-2.6712084e+11
-5.5753262e+09
1.5913731e+10
1.3649192e+10
-8.4693517e+09
-2.6197369e+11
-5.0374638e+09
1.4648458e+10
1.2730367e+10
-7.6927952e+09
2.1375539e+11
-2.7683456e+10
-2.4183535e+11
3.9753451e+10
-4.0138616e+10
-1.775993e+10
2.4843713e+10
1.9632531e+10
1.6730958e+10
-4.5069646e+09
-8.5231842e+09
-2.1815908e+11
-6.1140861e+09
1.9584728e+10
-2.3286053e+11
-4.2650759e+10
4.2134452e+10
-4.2345464e+09
5.6562716e+09
-5.1234777e+10
-2.0259386e+09
-1.4512916e+09
3.5059587e+09
3.2396255e+09
-2.5248288e+09
4.1840161e+09
-3.7270399e+09
-3.3313814e+09
2.5172873e+09
-4.3225646e+10
-3.5513144e+09
-3.7736313e+09
-3.4937246e+09
2.8244498e+09
2.4645306e+09
-4.9555049e+09
-5.2618788e+10
-1.6784607e+09
3.366925e+09
-2.108267e+09
2.9807799e+09
4.2477481e+10
-5.2674497e+10
-2.150036e+09
-1.5462815e+09
3.378243e+09
3.0699345e+09
2.6349819e+09
-3.4173735e+09
2.4682437e+09
-3.8572522e+09
-1.8721779e+10
1.9826344e+10
7.800606e+09
2.6837791e+11
4.2789861e+09
2.6854135e+11
-2.4951393e+10
-1.782894e+10
-2.3954516e+11
-2.1107974e+10
-2.3312084e+11
-2.6567582e+10
7.5275649e+09
-1.3795745e+11
-1.9397852e+10
2.1267528e+10
-8.2430426e+09
-2.2680164e+11
1.0539825e+10
-1.2994959e+11
-1.122628e+10
-2.2473955e+11
2.0385684e+10
2.1140248e+10
-1.8293531e+10
-2.405209e+11
1.9308028e+10
2.1677094e+10
-1.6814567e+10
-2.3926375e+11
-1.3668618e+10
1.3596838e+10
-2.6935261e+11
-1.1872493e+10
-9.0989477e+09
-2.6905586e+11
-1.1314701e+10
-8.7509035e+09
-2.1526767e+09
2.6788743e+09
1.1301312e+10
-3.6768998e+09
-7.4816642e+09
1.3413385e+10
9.9292162e+09
-1.6545138e+11
-1.1343195e+10
1.4464478e+10
-1.1590754e+10
-2.4926912e+11
9.4716356e+09
-3.5046408e+09
5.4707779e+09
-1.7011966e+11
-1.1591441e+10
-2.4629901e+11
1.5023313e+10
-1.0404467e+10
-2.5609689e+11
1.661166e+10
-1.0382548e+10
-2.5412465e+11
1.4169631e+10
-1.0021004e+10
-2.6987258e+11
1.4867084e+10
-9.5023802e+09
-2.6757491e+11
-1.1833717e+10
1.1543676e+10
-7.3123498e+09
-2.6527958e+11
-9.2856021e+09
-2.6214181e+11
-1.388786e+10
-2.7688657e+11
1.4175178e+10
-1.2404654e+10
-2.7686344e+11
-1.2557461e+10
2.0645372e+11
1.9453493e+11
-7.8699983e+10
7.1220081e+10
-2.7102822e+11
-7.0204704e+09
1.5064361e+10
1.2677517e+10
-9.4586237e+09
-2.1311276e+11
-2.458274e+10
2.8304714e+10
1.9865843e+10
-4.3495716e+09
-8.8498994e+09
1.6425521e+10
3.1250793e+10
2.160332e+11
-2.3303614e+11
-4.0020924e+10
-2.4277255e+11
4.3598332e+10
-3.6545989e+10
1.9861383e+10
1.6159575e+10
-5.6997768e+09
-8.0657208e+09
4.4375735e+10
-4.5351948e+09
5.5928596e+09
-5.4248017e+10
3.5807681e+09
-1.5922169e+09
-2.175587e+09
3.4263322e+09
-2.4542467e+09
4.2472376e+09
2.853937e+09
-3.2954076e+09
-3.7166011e+09
2.6270938e+09
-4.4354861e+10
-3.2779736e+09
2.8953454e+09
-3.655663e+09
-3.8043932e+09
2.5387213e+09
-5.3153726e+09
-5.4499934e+10
-2.195214e+09
-1.7724556e+09
3.3680632e+09
3.0555145e+09
4.3074742e+10
-3.8707997e+09
-5.2655333e+10
3.6106157e+09
-1.5808753e+09
-2.1361061e+09
3.2049277e+09
-1.8986247e+09
-3.475271e+09
2.6329077e+09
-3.8564946e+09
2.4432868e+09
-4.2592413e+10
-3.6707166e+09
-3.5222632e+09
2.7907705e+09
-5.1353627e+10
-1.6467595e+09
3.4215676e+09
3.1730835e+09
-2.0939969e+09
4.6117811e+10
4.467997e+10
-3.0961946e+10
4.0486186e+10
-1.3295102e+10
4.1288873e+10
3.7999364e+10
-6.0855652e+09
-4.0958095e+10
7.5930062e+09
4.6197735e+09
4.050017e+09
4243495.3
-8.256109e+08
-4.2750123e+10
-6.3958229e+09
4.5805619e+09
-3.6222528e+08
-8.9400567e+08
3.8482325e+09
-7.4421358e+09
1.1073925e+10
-2.9790223e+09
-1.0570507e+10
-3.4649605e+09
4.2447906e+10
-4.7881668e+10
-3.6473671e+09
4.4854085e+09
3.9784662e+09
-2.2534008e+08
-9.4554384e+08
4.218906e+10
-1.4703136e+10
7.6315433e+08
1.0449909e+10
-8.6524273e+08
-1.2516449e+10
-6.6119877e+08
-6.0294467e+08
6.6574114e+08
7.4109576e+08
1.0182805e+10
1.014807e+09
-1.2137994e+10
-6.465158e+08
-5.5668278e+08
7.040777e+08
7.5136771e+08
-4.1505509e+08
1.3770609e+10
6.2847163e+08
-7.7798777e+08
6.5414668e+08
6.5734845e+08
-8.287681e+08
1.4108409e+10
-4.261876e+08
-8.3361063e+08
6.5488561e+08
6.1527691e+08
-8.4429179e+08
2.4918447e+08
1.1063753e+10
-2.4077776e+08
-9.014206e+08
-9.2214354e+08
5.7768071e+08
5.5509301e+08
4.2429676e+08
-8.8929922e+08
-8.6599923e+08
5.7776561e+08
5.9675413e+08
-2.6306609e+08
-9.1348522e+08
-9.1867364e+08
5.5171971e+08
5.1616878e+08
2.4991965e+08
1.1007052e+10
-1.3860118e+10
-4.2391996e+08
-9.3007078e+08
-9.3528987e+08
5.8469075e+08
5.3410734e+08
1.1116233e+10
-1.402457e+10
-9.1419795e+08
-8.8547944e+08
5.8767488e+08
6.3575736e+08
-2.1645359e+08
5.5410751e+08
-8.768078e+08
-9.1512257e+08
5.5200493e+08
-3.0111607e+08
5.5371219e+08
-9.1419088e+08
-9.1536888e+08
5.0551627e+08
1.0363923e+10
-6.3534948e+08
-1.2408612e+10
-6.7529752e+08
-5.8518695e+08
7.1314568e+08
6.8367722e+08
-3.0012025e+08
-8.1020512e+08
6.2680225e+08
6.2623518e+08
-8.6262e+08
1.0199999e+10
-9.0417691e+08
-1.2158614e+10
7.337205e+08
-5.9555421e+08
-6.6294327e+08
6.4395477e+08
-5.1034352e+08
-8.5849463e+08
-8.3955538e+08
6.4732971e+08
5.8160599e+08
6.8207841e+08
1.0250742e+10
-1.2350155e+10
-6.7603967e+08
-6.0356827e+08
7.1915304e+08
6.2848877e+08
1.0171238e+10
-1.2110747e+10
-6.6509948e+08
-5.7270908e+08
7.2811579e+08
6.808237e+08
-3.6075087e+08
1.3777818e+10
6.4213716e+08
-7.9221025e+08
-8.5280854e+08
6.2495438e+08
1.3984052e+10
-8.6113242e+08
-8.2842912e+08
6.444702e+08
5.8008245e+08
-1.0895499e+10
-3.0439744e+08
6.1522332e+08
-8.3533922e+08
-9.2950728e+08
5.4562136e+08
-3.298251e+08
5.8834869e+08
-8.4898132e+08
-9.2720058e+08
5.5868538e+08
-1.1068355e+10
6.3325893e+08
-8.9238904e+08
-9.3713958e+08
5.094526e+08
5.7951331e+08
-9.1086733e+08
-9.3166254e+08
5.1777815e+08
-2.0485861e+10
2.2430071e+10
4.7176817e+09
2.6322759e+11
2.436562e+09
2.6432102e+11
-9.057156e+09
8.9439612e+09
6.8259485e+09
2.8219024e+11
6.2314503e+09
2.7447024e+11
-1.4602612e+10
1.4345938e+10
-1.4952323e+10
-1.5374609e+10
-2.6129017e+10
-1.0447094e+09
-2.2436024e+11
-4.6186396e+09
-2.2218708e+11
-2.4015371e+10
1.5685441e+10
2.6587302e+10
-1.3151265e+10
-2.4465135e+11
1.7366759e+10
-1.4804256e+10
-2.3802159e+11
1.4902187e+10
-2.66419e+11
-9.096474e+09
-1.2306067e+10
-2.669699e+11
-1.1980545e+10
-9.1508838e+09
-2.9304868e+09
6.9406261e+09
-7.4451529e+09
-2.0885632e+10
2.3866952e+10
3.1871582e+09
-1.5236894e+11
-1.7998279e+10
2.0232373e+10
-9.7921128e+09
-2.3605818e+11
9.7564843e+09
-5.6991003e+09
3.3425434e+09
-1.5199066e+11
-1.3061127e+10
-2.3350574e+11
1.9124223e+10
1.5454854e+10
-1.0652916e+10
-2.478354e+11
1.4333112e+10
2.0802603e+10
-9.2455398e+09
-2.4602973e+11
-1.4237819e+10
1.4534486e+10
-2.6180243e+11
-1.379728e+10
-1.0709115e+10
1.6989845e+10
1.4002802e+10
3.629694e+09
-4.8431341e+09
2.6406998e+09
-6.4340503e+10
3.5308455e+09
4.7786395e+09
-6.4491939e+10
-2.6159572e+11
-1.0438949e+10
-1.3498361e+10
1.4136615e+10
1.7043783e+10
3.4997774e+09
-6.3430893e+10
-6.3662662e+10
-1.6934808e+09
1.9796458e+09
-6.0110846e+09
-1.5989628e+09
1.9196415e+09
1.0121459e+10
-4.1897798e+09
-7.6641245e+09
1.1927862e+10
5.1092311e+08
-1.8181678e+11
-1.2831808e+10
1.3509396e+10
-9.9612561e+09
-2.5036799e+11
-5.891292e+09
8.1014197e+09
-6.0464934e+09
-1.9509352e+09
-1.7850732e+11
-1.0630881e+10
-2.4796112e+11
1.6383454e+10
-1.0711905e+10
-2.6303537e+11
1.7679254e+10
-9.5192938e+09
-2.6118195e+11
-1.1364901e+10
1.1557791e+10
-9.0192601e+09
-2.5395954e+11
-6.3429808e+09
-2.5523783e+11
1.474247e+10
-2.7060347e+11
-1.4474101e+10
-2.701959e+11
1.6456137e+10
-1.4269144e+10
-8.6409234e+09
1.1840959e+10
-1.4221699e+10
-2.0806849e+11
-1.0869024e+10
-2.7108416e+11
1.0084053e+10
-5.8150656e+09
-1.6393855e+10
-2.0730467e+11
-2.6531831e+11
-7.5226405e+09
-1.179662e+09
1.5884251e+09
-6.1382767e+10
-2.0747373e+09
-2.4352527e+09
3.8895944e+09
4.2075652e+09
-6.0313481e+10
-2.2154167e+09
-2.5144929e+09
1.9296872e+11
1.8017387e+11
1.2123125e+11
2.0117531e+11
2.1323517e+11
6.9046438e+10
1.9505569e+11
2.0817466e+11
-7.3972893e+10
8.5840254e+10
-1.4370168e+10
2.049787e+08
6.1860584e+08
-7.9937565e+08
6.0189437e+08
-8.9091552e+08
-2.1911138e+11
1.9893467e+10
1.6180542e+10
-5.9475419e+09
-8.6516285e+09
-2.3518807e+11
-3.707744e+10
4.5580232e+10
-3.6274856e+09
-5.6443429e+10
-2.4267965e+09
-1.914726e+09
3.504135e+09
3.2424573e+09
-2.2780265e+09
-3.5740158e+09
-3.9613613e+09
2.6539989e+09
2.4738981e+09
-4.4923457e+10
-3.5801689e+09
-3.7979219e+09
2.8795423e+09
2.5140461e+09
-5.4782387e+10
-2.3192394e+09
-1.9175469e+09
3.5163303e+09
3.0861359e+09
-4.2681004e+10
-7.0313457e+09
8.1382951e+09
-2.1766844e+08
4.5497849e+09
3.9779654e+09
-1.1181935e+09
-8.6908809e+09
-4.7543593e+10
1.2325642e+10
-3.1217362e+09
4.3878767e+10
-4.5355753e+10
-1.2571216e+10
-3.4925685e+09
-8.0360334e+09
4.5879114e+09
3.8094441e+09
-4.9797307e+08
-1.0903359e+09
3.5929855e+10
4.8349208e+10
4.3638009e+10
-1.3119372e+10
4.3005025e+10
3.7718248e+10
4.5663816e+10
4.2669937e+10
3.8735493e+10
-1.2410085e+10
-6.0337515e+09
-4.2040831e+10
4.5490366e+09
3.9230168e+09
-1.9664029e+08
-1.0308058e+09
-4.1213186e+10
3.8613178e+09
-2.0715008e+08
4.6578814e+09
-7.3365562e+08
-8.8187486e+09
-3.1438611e+09
-3.385719e+09
-1.0287765e+10
-4.0209575e+08
1.3985599e+10
4.2055436e+08
7.4092018e+08
-7.6566809e+08
-8.1771706e+08
7.069402e+08
-7.0678475e+08
9.6560604e+08
-1.2381977e+10
7.4129631e+08
-5.6252001e+08
-6.5037385e+08
7.147725e+08
1.0758913e+10
-8.3042948e+08
-1.2942337e+10
-6.5748113e+08
-6.1109691e+08
7.2498001e+08
6.7508085e+08
1.4425468e+10
-2.9670495e+08
6.6827727e+08
-8.2334978e+08
-8.2298164e+08
6.3244069e+08
-1.1091726e+10
-1.1797838e+08
2.2399957e+08
6.2847242e+08
-8.4099345e+08
-9.0372905e+08
5.857236e+08
-1.9649411e+08
2.6422536e+08
6.2952697e+08
-8.2368085e+08
-8.8987624e+08
6.1476357e+08
1.1161633e+10
-30115871
-8.8974983e+08
-8.9251369e+08
5.9919511e+08
5.6392402e+08
-34311862
5.4951631e+08
-9.1060337e+08
-9.0315945e+08
5.135012e+08
-1.1306644e+10
-1.1377138e+08
6.2561055e+08
-8.3728467e+08
-9.2956416e+08
5.9966157e+08
-89315643
-1.4203506e+10
5.7956188e+08
-9.129079e+08
-9.4674267e+08
5.8048823e+08
1.1164285e+10
-1.4115197e+10
-2.4800587e+08
-9.3900546e+08
-9.2649816e+08
6.2979033e+08
5.4092294e+08
-1.9618598e+08
5.5698918e+08
-9.1639764e+08
-9.2227313e+08
5.096117e+08
5.8258249e+08
1.0432658e+10
-8.5995182e+08
-1.2435477e+10
-6.7370562e+08
-6.1579926e+08
7.2338901e+08
6.510925e+08
1.0501726e+10
-1.2635531e+10
-6.8253952e+08
-5.9836411e+08
7.1317916e+08
6.8122875e+08
-1.5258488e+08
-8.7677638e+08
-8.3984582e+08
6.1397605e+08
6.2480972e+08
-2.8990957e+08
6.3641521e+08
-8.6152923e+08
-8.5753279e+08
5.9294786e+08
-1.0478639e+10
-2.6587714e+08
1.4293096e+10
7.2581065e+08
-7.9177446e+08
-8.4585877e+08
6.8395044e+08
-6.7051207e+08
-1.2421543e+10
7.3526575e+08
-5.8782166e+08
-6.7303173e+08
6.9817851e+08
1.0491587e+10
-8.0762866e+08
-1.2595254e+10
-6.7298847e+08
-6.169036e+08
7.3260413e+08
6.6196701e+08
1.4163353e+10
-2.6254967e+08
6.4349881e+08
-8.5523902e+08
-8.5813423e+08
5.9970845e+08
1.1271612e+10
-1.3572511e+08
6.1128508e+08
-8.5342435e+08
5.976033e+08
-9.2153139e+08
-52131506
5.5423254e+08
-8.6914299e+08
-9.1098112e+08
5.5777755e+08
1.1117576e+10
-1.7568428e+08
-9.2891529e+08
5.7105428e+08
5.2521481e+08
-9.3811196e+08
-1.7280912e+08
-9.341306e+08
-9.3845817e+08
5.3529184e+08
1.2876443e+08
-1.4195315e+10
-9.1728459e+08
-8.7633606e+08
5.8327968e+08
6.5898059e+08
1.115598e+10
-1.4104794e+10
-9.5653847e+08
-8.8265349e+08
6.4092627e+08
5.7789567e+08
-9.4556884e+08
-8.804563e+08
1.0352258e+10
-5.8125186e+08
-1.2390292e+10
-6.7518003e+08
-5.8641857e+08
7.1685792e+08
7.0963863e+08
-1.4782128e+08
-8.72967e+08
6.2836303e+08
-8.2765667e+08
6.2656453e+08
-1.0266321e+10
7.3895847e+08
-8.0912492e+08
-8.4123122e+08
6.3613708e+08
-1.2077857e+10
7.7685576e+08
-5.9247075e+08
-6.7169029e+08
6.3839904e+08
-3.3737434e+10
1.9909251e+10
4.3471127e+10
4.1308933e+10
3.7385702e+10
3.7635427e+10
3.3700648e+10
-8.7869348e+09
9.7464924e+09
9.3844647e+09
1.0984273e+10
-6.896365e+08
9.1885291e+09
8.4826806e+09
1.0141151e+10
9.2756801e+09
-1.0475644e+10
-1.0076451e+09
9.4219023e+09
8.3920465e+09
-1.2704894e+09
-8.9354409e+09
1.5229356e+09
8.5979478e+08
-1.6153878e+08
-3.1096837e+08
7.7748891e+08
-9.3147521e+09
-1.4751935e+09
8.6536313e+08
-2.3093263e+08
-3.2085028e+08
7.3944718e+08
-1.4970397e+09
2.3118052e+09
532167.64
-2.214339e+09
-38596587
-9.2344663e+09
-1.0865259e+09
-3.5286985e+08
-2.098329e+08
8.3674169e+08
7.4371189e+08
-1.6209922e+09
-48885615
9.0785316e+09
-2.2124689e+09
-1.0537775e+08
-1.3655747e+09
-3.1155884e+08
-2.2418609e+08
8.6098706e+08
7.2195771e+08
9.8108845e+09
9.4987103e+09
-1.1012127e+09
9.17055e+09
8.444186e+09
-1.0558986e+09
-8.9901491e+09
8.3700241e+08
-1.8800326e+08
-3.410122e+08
7.4714949e+08
-9.3447211e+09
8.5138315e+08
-2.4144888e+08
-3.3363374e+08
7.1917798e+08
-1.5336109e+09
-83461243
-1.2603529e+08
2.1248484e+10
3.790134e+10
3.3191937e+10
4.1609176e+10
3.6630537e+10
1.1308273e+08
2.5857585e+09
-1.5216005e+08
-3.0120581e+09
-1.9582107e+08
2.6314059e+09
1.3814523e+08
-3.0692875e+09
-1.9012506e+08
50017916
3.4206075e+09
-78192015
-1.4093337e+08
74289773
3.4844881e+09
-1.3625819e+08
1.3069737e+08
2.5956596e+09
-3.0403854e+09
-1.9434217e+08
2.5507569e+09
1.6587194e+08
-2.9482148e+09
-1.9439961e+08
68023024
3.4444355e+09
-1.3843131e+08
3.3978617e+09
89667815
-1.1738215e+08
2.7614225e+09
-27962952
48965033
-1.6255091e+08
-7058149.4
3.5240419e+09
16915134
-1.1832964e+08
-2.8009932e+09
-19883532
3.6034578e+09
-1.3229069e+08
-29569636
-1.8371893e+08
2.8181486e+09
-16350087
-1.8049044e+08
-16551707
3.6074571e+09
-1.3775477e+08
-2.7866706e+09
3.5564182e+09
-31239555
-1.3978274e+08
-42321657
-1.8438303e+08
1747720.7
2.8190879e+09
-19629305
-1.4620867e+08
2.843026e+09
2661523.5
-1.5862627e+08
-11734480
3320338.3
3.557584e+09
-1.2846312e+08
3.5096774e+09
-22947515
-1.2428361e+08
4832847.1
2.8471221e+09
-1.3513466e+08
2.7942399e+09
8555631.1
-1.3992003e+08
2531267.7
-1582146.9
-1.1603466e+08
3.5642847e+09
-1.145568e+08
93192.061
-1.3224977e+08
1558603.7
2.7555393e+09
-21998027
-1.3890758e+08
2.7780165e+09
-1.3745428e+08
-16369560
-1.3203747e+08
-29486577
-1.3897571e+08
7805726.7
2.7901726e+09
-3.5183981e+09
-35210646
-1.7444029e+08
2.8484986e+09
26161618
-3.6268902e+09
-1.752542e+08
-10374550
17501501
3.5545582e+09
-1.2849586e+08
3.4777003e+09
-33129650
-1.3066529e+08
17945305
2.8424836e+09
-3.5900004e+09
-1.5846458e+08
2.7966696e+09
-3.5239077e+09
-1.599252e+08
-10495486
3.4857416e+09
-1.1384893e+08
3.55808e+09
-72832971
-2.7371066e+09
-18572273
-1.2625941e+08
-21262939
-1.2890776e+08
2.7724395e+09
-20453016
-1.3029197e+08
-28249101
-1.3487797e+08
-2.7693731e+09
-27524998
-1.3985584e+08
-6660819.8
-1.4279792e+08
2.7323851e+09
-29369732
-1.4734483e+08
-37359347
-1.5017003e+08
1.167005e+08
2.6184829e+09
-1.4076319e+08
-3.0692301e+09
-2.0048672e+08
2.5804481e+09
-3.0092191e+09
-1.918752e+08
-47507688
3.4066421e+09
-1.4373184e+08
3.4593243e+09
-47114880
-1.575564e+08
2.7680475e+09
-31149781
-1.82782e+08
-18252811
-1.420445e+08
-2.7964021e+09
-30352634
-1.5526295e+08
-26240205
-2.0460713e+08
-2.6183865e+09
-47591659
3.4993083e+09
-1.467243e+08
-1.0903461e+08
-3.050896e+09
-1.9477285e+08
2.560835e+09
-1.5414514e+08
-2.9672456e+09
-2.1142222e+08
3.3919174e+09
-75111485
-1.5960743e+08
22219368
2.7622121e+09
-50043620
-2.0096472e+08
2.8430108e+09
-1.8727855e+08
-17130589
-1.4977154e+08
-35941607
-1.5576881e+08
1.2201189e+08
2.5415568e+09
-2.9701573e+09
-1.9777721e+08
2.6063209e+09
1.3874896e+08
-3.0409488e+09
-1.8567718e+08
-53621051
55778047
3.4574425e+09
-1.3412497e+08
3.3828308e+09
-1.4353037e+08
1.2221483e+08
2.5880641e+09
-3.0342549e+09
-2.0237466e+08
2.565725e+09
-2.9698089e+09
-2.0055509e+08
-48998655
3.4000853e+09
-1.3235727e+08
3.4288427e+09
-1.5317528e+08
-2.7644207e+09
-25306903
3.522662e+09
-1.2673846e+08
-34449363
-1.7213969e+08
2.7825536e+09
-45031815
-1.9593663e+08
-39360073
3.5694409e+09
-1.4787926e+08
46184170
2.7657195e+09
-1.7534346e+08
2.8033146e+09
-1.7314847e+08
-48432895
3.5919279e+09
-1.350697e+08
3.5276875e+09
-1.3778398e+08
-2.7519238e+09
-34439664
-67550254
-35750431
-3.4847534e+09
-96129011
2.7604652e+09
-3.5312271e+09
-40730347
-1.5376522e+08
-43118221
-1.4098972e+08
-2.7960838e+09
-23711335
-1.097389e+08
-28822314
-1.2879132e+08
2.8168143e+09
-35166323
-1.6822945e+08
-39954901
-1.3948342e+08
-2.7936127e+09
-56514895
-70074941
-42857566
-3.5565911e+09
-1.2728306e+08
2.746939e+09
-3.4883133e+09
-1.5486366e+08
-2.8376773e+09
-49307440
-1.3004736e+08
-38008956
-1.5377368e+08
2.798006e+09
-1.5979671e+08
-1.3896226e+08
4.3085045e+10
-1.5623505e+10
-4.9822966e+09
9.0990003e+10
8.4678079e+10
2.4344869e+11
2.4122699e+11
2.3629018e+11
2.3690927e+11
-2.3068435e+10
2.4655451e+10
3.0836099e+09
2.5784569e+11
-1.4037972e+09
2.6028258e+11
-8.6357446e+09
9.9763597e+09
5.7382395e+09
2.7289625e+11
5.0758208e+09
2.7377939e+11
-1.6116493e+10
1.6381902e+10
-1.6572971e+10
-1.6459488e+10
-4.6958793e+09
5.498112e+09
2.3020663e+11
5.3197922e+09
-9.0770005e+09
9.7340298e+09
-4.5032378e+09
4.4525775e+09
2.2451479e+11
-4.2223308e+09
3.1764578e+10
-1.1369314e+10
-2.4207801e+11
-1.0100359e+10
-2.4121093e+11
-2.8093507e+10
6.4118007e+09
-1.539483e+11
-2.1937982e+10
2.4980642e+10
-5.2528977e+09
-2.3530127e+11
4.010142e+09
-1.5142748e+11
-8.123083e+09
-2.3057386e+11
-2.3910592e+10
1.0948101e+10
2.603665e+10
-8.3977575e+09
-2.4932778e+11
1.2911347e+10
-8.5368971e+09
-2.4550402e+11
1.5589657e+10
-2.6062298e+11
-1.3667619e+10
-1.1066895e+10
1.6325565e+10
1.4469096e+10
-4.0998407e+09
5.1460916e+09
3.3282302e+09
-6.3803051e+10
2.5625628e+09
-6.5828286e+10
1.7557177e+10
-2.6130231e+11
-1.1634147e+10
1.6183901e+10
1.3438633e+10
-1.4675401e+10
3.8183822e+09
2.5317585e+09
-6.5537587e+10
3.3832221e+09
-6.4517977e+10
-2.1672641e+09
-8.5784015e+09
-2.3996146e+09
2.5660728e+09
5.1111279e+09
-9.5355053e+09
-1.6783286e+10
2.0235862e+10
-1.120941e+09
-1.6449267e+11
-1.6872889e+10
1.7557056e+10
-5.1949424e+09
-2.4079292e+11
-7.3205342e+09
7.1221027e+09
-9.9586021e+09
-1.9809468e+09
-1.6792626e+11
-7.2283744e+09
-2.4029377e+11
2.0226889e+10
1.6190781e+10
-1.1341506e+10
-2.5523237e+11
1.5535046e+10
2.2042799e+10
-1.0225686e+10
-2.5315498e+11
-1.6473544e+10
1.7099792e+10
-2.5448658e+11
1.543637e+10
-8.8619422e+09
-1.171081e+10
1.2729303e+10
3.6311447e+09
4.9875764e+10
-4.0924518e+09
-6.1249932e+10
-1.9617797e+09
5.0073535e+10
4.4085055e+09
-6.1017892e+10
-5.4212288e+08
-3.8968416e+09
1.5243417e+09
4.9439429e+09
-4.7783774e+09
4.1960188e+08
-2.543832e+11
1.5248393e+10
-8.5183365e+09
-1.1416879e+10
1.2635399e+10
-3.6171917e+09
4.9350751e+10
-5.9863694e+10
-4.0126528e+08
4.9176666e+10
-6.0213054e+10
-1.755592e+09
3.7626831e+09
7.8236098e+08
1.7161842e+09
-1.3876621e+09
1.4765732e+09
-4.1223126e+09
-9.8171097e+08
1.1948528e+09
5.2211675e+09
-9.1131491e+09
-1.0593855e+10
1.2372929e+10
-1.144278e+10
-1.8211433e+11
-1.4031024e+10
1.4268501e+10
-7.7578054e+09
-2.5236695e+11
-4.5363278e+09
3.0916229e+09
-1.1054384e+10
-1.1877641e+10
-1.8001861e+11
-8.8986713e+09
-2.5224758e+11
1.7746027e+10
-2.6476598e+11
-1.5455262e+10
-2.6381924e+11
1.9998237e+10
-1.4975914e+10
-5.3217721e+09
7.6991501e+09
-6.1835238e+09
-1.8662318e+11
-1.1245831e+10
-2.6132448e+11
1.2617553e+10
-8.2759126e+09
3.6391288e+09
-1.9760968e+11
-2.6353213e+11
-7.3415592e+09
15954866
1.1119306e+09
-7.3120306e+09
-2.7439066e+10
-7.7821868e+09
-2.171818e+11
5.7380668e+09
5.3423903e+09
-1.4054987e+10
-3.0428234e+10
-2.145246e+11
5.4501887e+09
-1.1753012e+09
1.7355068e+09
-6.006249e+10
-3.4318384e+09
-3.1492039e+09
3.367337e+09
3.1149189e+09
-5.8629927e+10
-3.1472605e+09
3.2675208e+09
3.0929343e+09
-3.4081811e+09
-1.6395179e+09
1.7658916e+09
-6.0232902e+10
-2.1284824e+09
-2.4207251e+09
3.7635635e+09
4.0627044e+09
-6.1414724e+10
-2.1905757e+09
-2.4373186e+09
3.806889e+09
4.0606243e+09
-1.2021596e+09
-6.0266636e+10
1.5376272e+09
3.4353338e+09
-3.1132972e+09
-3.4040934e+09
3.1548069e+09
-2.6227203e+08
1.0814611e+10
3.7733488e+08
-1.4059704e+10
-4.132753e+08
9.8798197e+08
9.6068337e+08
-4.8009521e+08
1.0779441e+10
-3.2124965e+08
-1.4070928e+10
-4.6433985e+08
9.6539873e+08
9.0161823e+08
-4.8746317e+08
3.6254163e+08
9.7883492e+08
-2.8435234e+08
-3.1679884e+08
5.1028971e+08
-2.4601271e+08
9.5029413e+08
9.805857e+08
-3.0873682e+08
-5.8767686e+10
-3.2632256e+09
-3.5066218e+09
2.969402e+09
3.2076111e+09
-3.1103174e+08
-1.3871014e+10
-4.3299054e+08
9.4661954e+08
-4.9675945e+08
-1.4005221e+10
-4.6849145e+08
-4.9641596e+08
-1.3946228e+09
-6.0276541e+10
-2.0506847e+09
-2.4629318e+09
-6.0018804e+10
-2.4838488e+09
-2.2123901e+09
3.6973102e+09
3.9661085e+09
3.3073425e+10
5.0198825e+10
4.7163333e+10
4.518683e+10
4.1539299e+10
4.2955851e+10
4.7211415e+10
4.2741351e+10
4.4334182e+10
4.2080016e+10
4.3343268e+10
4.6507648e+10
1.8137982e+11
1.9624931e+11
1.1124673e+11
2.0142645e+11
8.6164946e+10
2.1597473e+11
1.9748747e+11
-6.8494216e+10
1.0672691e+08
-1.4418532e+10
-9.0808624e+08
-8.7861921e+08
5.8984204e+08
4.9117597e+08
-2.6952172e+09
15713724
12230229
-50224089
9507188.1
-3.4441486e+09
5338410.5
-65289879
-2.7189305e+09
34300392
-3.4950136e+09
-1.3962521e+08
24507507
-3.4497406e+09
-1.2271363e+08
-3.3846358e+09
-1.5383486e+08
1.9356935e+08
-1.4702668e+10
5.7048383e+08
-8.528933e+08
-9.1847457e+08
5.4271651e+08
-1.4568018e+10
-9.2295784e+08
-8.8838212e+08
5.869838e+08
4.7881246e+08
-6.074579e+09
-4.4288778e+10
4.4593277e+09
3.8547094e+09
-4.9811858e+08
-1.3812847e+09
-4.3393561e+10
4.6157712e+09
3.7782231e+09
-4.7179999e+08
-1.0667622e+09
-9.3786824e+09
-5.0239029e+10
-3.2529445e+09
-4.538591e+10
-3.7123233e+09
4.4486349e+10
3.8975962e+10
-1.2876552e+10
-7.6504835e+08
-1.3484495e+10
-7.1066044e+08
-6.5102373e+08
7.4173769e+08
6.4496391e+08
5.2125807e+08
1.0810364e+10
-6.2707897e+08
-1.3178907e+10
-6.957517e+08
-6.3909001e+08
7.4402043e+08
6.3838726e+08
1.0745898e+10
-1.3017079e+10
-6.9898888e+08
-6.103393e+08
7.4767589e+08
6.7431726e+08
-1.8675142e+08
1.4363619e+10
-8.491419e+08
-8.0454059e+08
6.5771369e+08
6.556444e+08
1.4522258e+10
-2.1125778e+08
6.558772e+08
-8.5161419e+08
-8.5508032e+08
6.0588695e+08
-1.323307e+08
1.1153059e+10
5.9929114e+08
-8.595793e+08
-9.0441572e+08
5.9541378e+08
1.1257383e+10
-1.5500258e+08
-9.1516686e+08
-8.9890552e+08
5.9652589e+08
5.4373149e+08
-1.2475923e+08
-9.16673e+08
5.4959068e+08
-1.7989789e+08
5.5602133e+08
-9.0791567e+08
-9.2657229e+08
4.9686886e+08
-98661593
1.1314964e+10
-1.4498068e+10
6.8590005e+08
-8.4284566e+08
-9.1144117e+08
6.1498008e+08
1.1124789e+10
-1.4218985e+10
-8.9634505e+08
-8.7605526e+08
6.6824364e+08
5.6599374e+08
-1.2019778e+08
-9.1419241e+08
-8.1102816e+08
5.9950151e+08
5.5785696e+08
5.7941279e+08
-8.7427414e+08
-8.945881e+08
5.1355414e+08
4.7986976e+08
1.0476398e+10
-1.245485e+10
-6.7280826e+08
-6.0076917e+08
7.7466052e+08
6.4386585e+08
1.0697779e+10
-1.2911136e+10
-6.8907133e+08
-5.9824082e+08
7.5722574e+08
6.7868738e+08
-1.3238848e+08
6.5529003e+08
-8.1043438e+08
-8.5382326e+08
6.4613968e+08
6.6704938e+08
-8.2475836e+08
-8.226565e+08
6.120799e+08
9.2385586e+09
-1.6764507e+09
-1.0208065e+10
2.5578453e+09
-1.295551e+08
-1.3008392e+09
1.6424339e+09
-1.9021359e+08
8.4268461e+08
7.6154415e+08
-3.4924271e+08
-9.6248282e+09
-1.6048616e+09
-3.5443791e+08
-2.6024104e+08
8.4996276e+08
7.2919781e+08
-9.7629835e+09
-2.4909903e+09
-1.654964e+08
-1.0020018e+10
1.2176851e+10
9.5628129e+09
8.7339745e+09
-8.7646277e+08
1.0508876e+10
9.5268975e+09
-1.209376e+10
-1.0494705e+09
9.756661e+09
8.5737142e+09
-1.1747417e+09
-9.4356877e+09
8.3144499e+08
-2.2863745e+08
-3.7868517e+08
7.3382743e+08
-9.2725248e+09
-1.5174783e+09
8.5699453e+08
-2.4458691e+08
-3.3631081e+08
7.1313403e+08
-1.7918713e+09
-1.2390264e+08
-2.4662433e+09
-1.6158995e+08
3.8008284e+10
2.0047054e+10
4.3201122e+10
3.7576887e+10
3.9179824e+10
3.3718413e+10
-9.146097e+09
1.0067514e+10
9.5897496e+09
-7.5552752e+08
9.454335e+09
8.5574387e+09
1.0116606e+10
9.0275246e+09
-6.8921506e+08
9.5145686e+09
8.2012279e+09
1.8751707e+10
4.8133403e+10
3.9129084e+10
3.4662198e+10
4.2815225e+10
3.8355876e+10
-1.2100257e+09
-9.2087097e+09
-3.5895407e+08
-2.0076779e+08
8.3846191e+08
7.5001151e+08
-9.4441947e+09
-1.4237904e+09
8.5637571e+08
-2.4696e+08
-3.4529024e+08
7.2159832e+08
-1.7420478e+09
-62030630
-2.5557615e+09
-71536305
1.0449699e+09
-8.8457621e+09
8.7305055e+08
-1.9586216e+08
-2.8941574e+08
7.1941738e+08
9.1699831e+09
-1.8196765e+09
3388784.7
-1.9451419e+08
8.5087567e+08
7.4752679e+08
-3.4513575e+08
-59763791
-2.83636e+09
17286307
3.6211435e+09
-10570955
-50578532
-13323946
-3.4268458e+09
-16170174
-1.4568807e+08
2.8308619e+09
-3.4749605e+09
-7192317.6
-1.7974991e+08
19485288
3.6416101e+09
-1.0600706e+08
-2.5428946e+09
-56979129
31377077
-1.1705255e+08
-1.1800377e+08
1.4812482e+08
-2.9440155e+09
-1.9151998e+08
2.6156496e+09
-1.346374e+08
-3.0546736e+09
-1.9471593e+08
-65604742
-1.3591266e+08
97188001
2.5797937e+09
-1.2290961e+08
-3.0278691e+09
-1.8368375e+08
2.6038228e+09
-3.0693626e+09
-1.8300631e+08
-31142820
3.4267016e+09
-1.3236049e+08
3.3864622e+09
-31109519
-1.316208e+08
-2.7686189e+09
16903466
3.5681581e+09
-1.2868006e+08
9317716
-1.8177698e+08
2.7439406e+09
11425505
-1.825677e+08
3.5042357e+09
27363959
-1.3831483e+08
-2.7760303e+09
18392865
254549.51
-58293139
20126916
-3.5338287e+09
-12839072
-90482920
2.7962153e+09
-3.5826899e+09
39727043
-1.3685443e+08
28800156
-1.2348183e+08
-2.8461473e+09
30062195
-8417270
-79799252
22215319
-1263503
-69636506
2.8629504e+09
48387823
-1.3738893e+08
41016706
-1.159303e+08
-38481646
2.776618e+09
38496119
-1.6214659e+08
2.8197932e+09
-1.3424249e+08
32945463
3.5369198e+09
-1.0986025e+08
3.4697048e+09
37281946
-1.334992e+08
-2.7574413e+09
16034537
-1.3001721e+08
38816139
-1.3021384e+08
2.7200725e+09
36988545
-1.5169933e+08
18782573
-1.5381005e+08
-2.7632287e+09
20466709
-64949219
12824698
-3.5067161e+09
-69633384
2.7708439e+09
-3.5490227e+09
22645013
-1.6120556e+08
21322276
-1.087909e+08
-2.8093551e+09
26787279
-1.0730421e+08
21161673
-3.5446195e+09
-1.603089e+08
2.8349289e+09
27599638
-3.601508e+09
-1.8660149e+08
31402972
-1.3822108e+08
-17648961
2.8029387e+09
-3.531741e+09
-3781263.6
-1.8877283e+08
2.8554023e+09
-3.6160133e+09
-1.5593634e+08
18014405
3.5681955e+09
-69614213
3.4976548e+09
2923600.9
-1.3870241e+08
-2.7763458e+09
8470681.7
-1.330682e+08
25689559
-1.2759246e+08
2.7462135e+09
10227922
-1.5537001e+08
4257288.4
-1.548014e+08
90654993
2.5795944e+09
-1.3899073e+08
-2.9940334e+09
-2.1093066e+08
2.6424523e+09
1.1613093e+08
-3.0866374e+09
-1.9708987e+08
1697837.4
11516501
3.4950354e+09
-1.4240826e+08
3.417644e+09
-32346475
-1.5291245e+08
98898542
2.6338397e+09
-3.093291e+09
-2.058556e+08
2.6133321e+09
-3.0418561e+09
-1.9385093e+08
-11780917
3.4442602e+09
-1.3707741e+08
3.4751223e+09
-1.6031823e+08
-9504541.2
2.8121938e+09
5201389.8
-2.0954449e+08
2.7886862e+09
-1.8235068e+08
24315323
-1.3890843e+08
19648967
-1.5983796e+08
-2.8188904e+09
7625884.2
-1.4868437e+08
15120432
-1.9530317e+08
2.772319e+09
6798111
-2.0388525e+08
4548235.5
-1.6339632e+08
-2.8555471e+09
22515837
3.6358066e+09
-72416193
-8054837
-3.4678235e+09
-1.6464463e+08
2.8208372e+09
-3.4762827e+09
5323823.4
-2.0379158e+08
33374044
3.6255104e+09
-1.315807e+08
-2.5963482e+09
-35225506
-1.3333021e+08
-1.0718343e+08
-3.0137285e+09
-2.0224814e+08
2.6325133e+09
-1.1341465e+08
-3.0907978e+09
-2.0851583e+08
-19975859
-1.6084048e+08
89421689
2.5927297e+09
-1.309255e+08
-3.0239264e+09
-2.0028756e+08
2.6534964e+09
-3.1024796e+09
-1.9191325e+08
860638.01
3.5020313e+09
-1.3676686e+08
3.423812e+09
-22823578
-1.4543112e+08
-2.8237633e+09
18202606
3.6232897e+09
-1.4085601e+08
16594135
-1.8824122e+08
2.7833745e+09
-5826006.3
-1.9527642e+08
3.5484899e+09
8359605.4
-1.5556382e+08
-2.8487926e+09
29061834
3.5330018e+09
-99062132
22720163
-92911482
-2.8491238e+09
3.5725482e+09
38041743
-1.3480088e+08
44054899
-1.6647942e+08
-2.7623025e+09
20091498
-1.2089966e+08
18890791
-1.0710647e+08
2.7829268e+09
30675238
-1.3314404e+08
19744211
-1.3716235e+08
2.8560573e+09
29669329
-1.4729721e+08
21246810
3.5681665e+09
-1.2425991e+08
-2.80958e+09
3.5030593e+09
6300510.4
-1.5331829e+08
11640123
-1.8117281e+08
-21377438
-8056141.4
-1.536469e+08
2.7807469e+09
-1.4174066e+08
-1.396764e+08
-10967569
2.8043904e+09
-3.5390884e+09
-1.6306346e+08
2.8772535e+09
14320094
-3.6817967e+09
-97080675
-10302179
-1.0340776e+08
9113189.8
-70140328
6737980.4
2.8540756e+09
-3.6173659e+09
-1.8566595e+08
2.8373092e+09
-3.5612261e+09
-1.4035849e+08
284573.52
3.5380123e+09
-53760742
3.5776751e+09
-1.36306e+08
9557673.1
-1.5387783e+08
-1.1518879e+08
95186685
2.6399466e+09
-1.2618758e+08
-3.0732112e+09