/*--------------------------------*- C++ -*----------------------------------*\
  =========                 |
  \\      /  F ield         | OpenFOAM: The Open Source CFD Toolbox
   \\    /   O peration     | Website:  https://openfoam.org
    \\  /    A nd           | Version:  7
     \\/     M anipulation  |
\*---------------------------------------------------------------------------*/
FoamFile
{
    version     2.0;
    format      ascii;
    class       volVectorField;
    location    "2000";
    object      UMean;
}
// * * * * * * * * * * * * * * * * * * * * * * * * * * * * * * * * * * * * * //

dimensions      [0 1 -1 0 0 0 0];

internalField   nonuniform List<vector> 
34158
(
(-4.2091592e+12 1.4790395e+11 -2.4376495e+11)
(-4.2059932e+12 4.9854922e+10 -2.4152344e+11)
(-4.2023586e+12 1.1114784e+11 -2.1902669e+11)
(-4.1184713e+12 1.6866014e+10 -2.1809937e+11)
(-3.9499652e+12 1.3169929e+11 -1.2266896e+11)
(-3.837693e+12 1.2945941e+11 -9.4659705e+10)
(-4.3575212e+12 7.8753723e+10 -1.7269791e+11)
(-4.3636352e+12 7.7421367e+10 -1.6636325e+11)
(-3.9871148e+12 4.3439401e+10 -1.5744668e+11)
(-4.0861229e+12 -1.8199124e+10 -1.6074087e+11)
(-3.877031e+12 6.8713019e+10 -7.2945194e+10)
(-3.921036e+12 1.1600285e+11 -1.0544848e+11)
(-4.3621642e+12 5.3240007e+10 -1.6605969e+11)
(-4.324329e+12 4.9136855e+10 -1.7598622e+11)
(-3.70463e+12 1.4013655e+11 8.0145334e+10)
(-4.1049286e+12 1.0942479e+11 -8.8503978e+10)
(-3.77141e+12 1.2902544e+11 5.9117119e+10)
(-4.0616091e+12 9.8381507e+10 -7.9354194e+10)
(-4.4199802e+12 6.6532886e+10 -8.9189962e+10)
(-4.4319898e+12 6.8970156e+10 -8.7304421e+10)
(-4.3714521e+12 4.7275646e+10 5.9536561e+10)
(-4.3460747e+12 3.8253815e+10 6.5129195e+10)
(-4.101772e+12 5.6806729e+10 -1.7677528e+11)
(-3.9843202e+12 1.3655111e+10 -1.8326862e+11)
(-3.8977176e+12 5.7363673e+10 -4.0972489e+11)
(-4.4664365e+12 5.4653907e+10 -7.8217115e+10)
(-4.4938083e+12 -4.3751566e+10 -7.230315e+10)
(-3.897178e+12 -3.2623815e+10 -4.0609456e+11)
(-3.538426e+12 4.2521315e+10 -2.8659154e+11)
(-3.9954312e+12 4.0528303e+10 -2.0961932e+11)
(-4.0276006e+12 7.4118992e+09 -2.0684463e+11)
(-3.5349576e+12 -5.8886267e+09 -2.9824405e+11)
(-3.5525087e+12 2.7958736e+10 -3.0594744e+11)
(-3.9872343e+12 3.0304587e+10 -2.3168413e+11)
(-4.1748031e+12 6.4472456e+10 2.5604967e+11)
(-4.160038e+12 -6.1569832e+08 2.5138606e+11)
(-4.3469561e+12 4.5809208e+10 -1.8431856e+11)
(-4.3137065e+12 5.2063699e+10 -1.5588355e+11)
(-3.7861154e+12 1.2202172e+11 3.807344e+10)
(-4.0508988e+12 8.1323954e+10 -7.5529437e+10)
(-3.6437829e+12 1.7208189e+11 8.4056568e+10)
(-4.0554135e+12 7.7007496e+10 -8.3242327e+10)
(-4.4218623e+12 5.0081735e+10 -8.8236257e+10)
(-4.3958547e+12 4.1030492e+10 -9.7136101e+10)
(-4.6727533e+12 4.4315704e+10 -1.9397985e+11)
(-4.6704012e+12 2.7578908e+10 -1.8859451e+11)
(-3.3176474e+12 9.6626021e+10 1.3073056e+11)
(-3.878806e+12 1.3595972e+11 5.0820591e+10)
(-4.1922595e+12 8.3716007e+10 -2.0678318e+10)
(-3.292712e+12 2.6680907e+10 1.0709207e+11)
(-3.8399158e+12 1.4075679e+11 3.6474345e+10)
(-4.1629507e+12 7.6286306e+10 -2.5633897e+10)
(-4.4540283e+12 5.4688593e+10 1.0319659e+10)
(-4.469905e+12 5.7265117e+10 8.9184155e+09)
(-4.3772057e+12 4.4503396e+10 7.6240463e+10)
(-4.4011841e+12 4.7050707e+10 7.8623425e+10)
(-4.2529714e+12 5.6666795e+10 5.6608877e+10)
(-4.2127006e+12 3.2014572e+10 5.8700799e+10)
(-4.3236108e+12 3.5959792e+10 6.8960765e+10)
(-4.3031246e+12 3.6717807e+10 7.4436044e+10)
(-4.2981383e+12 1.773308e+10 -4.0245466e+11)
(-4.1170029e+12 -6.0883627e+08 -1.9938456e+11)
(-4.5112612e+12 8.6475967e+10 -9.0341473e+10)
(-3.9076792e+12 -6.6609433e+09 -4.2217477e+11)
(-3.9126856e+12 7.569929e+10 -4.2228318e+11)
(-4.4832774e+12 -2.0736346e+08 -9.8931921e+10)
(-3.6258051e+12 4.1863135e+10 -2.9265779e+11)
(-4.0336548e+12 3.5856087e+10 -1.8397623e+11)
(-4.0296636e+12 -1.1302953e+10 -2.3146422e+11)
(-3.5667503e+12 -1.4210355e+10 -3.1192887e+11)
(-3.5518251e+12 2.5227744e+10 -3.0685962e+11)
(-4.0035502e+12 1.7683537e+10 -2.4843922e+11)
(-4.0418348e+12 -1.4100302e+09 -2.2022833e+11)
(-3.545399e+12 -1.3003859e+10 -3.1023871e+11)
(-3.725608e+12 -4.8616432e+09 -3.8917267e+11)
(-3.9650957e+12 3.4834538e+10 -9.5348614e+10)
(-3.9876367e+12 -4.1168744e+09 -1.1069784e+11)
(-3.3928892e+12 7.0907951e+09 -1.4328339e+11)
(-3.3978634e+12 -1.2405095e+10 -1.5662705e+11)
(-3.4089166e+12 1.0506735e+10 -1.7823072e+11)
(-4.0130094e+12 3.3434528e+09 -1.1971579e+11)
(-3.7180734e+12 2.3716712e+10 -3.926608e+11)
(-3.5330621e+12 1.1250202e+10 -3.5689457e+11)
(-3.5262563e+12 1.8179619e+10 -3.6918587e+11)
(-3.8312401e+12 1.7167008e+10 -2.283308e+11)
(-3.8371744e+12 2.3032552e+10 -2.2505114e+11)
(-3.6720267e+12 1.9194633e+10 -2.7242735e+11)
(-3.6740957e+12 1.2169765e+10 -2.6840138e+11)
(-3.717477e+12 3.1356554e+10 -2.2268608e+11)
(-3.6818753e+12 1.6093844e+10 -2.8766717e+11)
(-3.672479e+12 -2.7693109e+09 -2.7913148e+11)
(-3.726005e+12 -4.2087791e+09 -2.1840986e+11)
(-3.7240241e+12 1.8715696e+10 -2.3253827e+11)
(-3.5283086e+12 -3.355488e+09 -3.679296e+11)
(-3.8278999e+12 -7.4586363e+09 -2.4109495e+11)
(-3.5250121e+12 8.4482801e+09 -3.7362003e+11)
(-3.8321785e+12 1.1350331e+10 -2.5665363e+11)
(-3.5083469e+12 3.599625e+10 -3.9261854e+11)
(-3.5193012e+12 9.8406286e+09 -3.7400233e+11)
(-3.8223564e+12 1.6837024e+09 -2.5342472e+11)
(-3.8156909e+12 3.9581629e+10 -2.6972029e+11)
(-3.7199987e+12 1.3016735e+09 -2.2997253e+11)
(-3.6715078e+12 1.7461628e+08 -2.8360694e+11)
(-3.719681e+12 4.440031e+10 -2.3689685e+11)
(-3.6645704e+12 3.8018935e+10 -2.9731989e+11)
(-4.184018e+12 5.8243199e+10 2.5543527e+11)
(-4.1753681e+12 -5.5540673e+09 2.5455913e+11)
(-4.2294362e+12 5.7003386e+10 1.8100295e+11)
(-4.1286592e+12 1.8977322e+10 1.6738743e+11)
(-4.2038946e+12 2.8775577e+10 8.1125554e+10)
(-4.1823338e+12 3.7974986e+10 8.1864789e+10)
(-4.0893933e+12 3.8609664e+10 -9.5359086e+10)
(-4.1393922e+12 5.3318894e+10 -8.9134625e+10)
(-4.3947665e+12 3.358833e+10 -9.3432174e+10)
(-4.3728251e+12 3.7322905e+10 -7.9609072e+10)
(-4.6651886e+12 1.1215822e+10 -1.8682249e+11)
(-4.6698434e+12 2.6184567e+10 -1.9028989e+11)
(-2.924145e+12 5.9935108e+10 1.2664998e+11)
(-3.7895996e+12 8.3537785e+10 1.0953502e+09)
(-4.1931256e+12 6.8399865e+10 -4.3116561e+10)
(-3.2294818e+12 1.2574512e+11 1.4318536e+11)
(-3.8475099e+12 1.335402e+11 4.6816827e+10)
(-4.1574358e+12 6.0377526e+10 -2.3134184e+10)
(-4.4301653e+12 3.951206e+10 7.2802001e+09)
(-4.3943036e+12 3.3358802e+10 1.8675824e+09)
(-4.6653012e+12 3.9549543e+10 -1.825366e+10)
(-4.0225293e+12 -3.0333958e+10 -1.0170689e+11)
(-4.0554456e+12 3.7071315e+10 -1.1345198e+11)
(-4.6647618e+12 1.6321137e+10 -1.2241218e+10)
(-4.0240305e+12 -2.6541335e+10 -9.7929826e+10)
(-4.0453787e+12 3.4159539e+10 -1.0581902e+11)
(-3.6695228e+12 6.3408505e+10 1.2250326e+11)
(-3.2122054e+12 5.1617646e+10 1.1143503e+11)
(-4.0159434e+12 1.2961408e+11 5.7826037e+10)
(-4.2782135e+12 6.242232e+10 4.1058882e+10)
(-3.629791e+12 2.3129635e+10 9.3890727e+10)
(-3.0998409e+12 -8.6665354e+09 8.9631335e+10)
(-3.9436636e+12 1.4190286e+11 3.5839928e+10)
(-4.2383369e+12 5.9468185e+10 3.6884567e+10)
(-4.4057026e+12 4.0534787e+10 8.5935013e+10)
(-4.4180024e+12 4.1200592e+10 8.0506542e+10)
(-4.2688376e+12 5.3901536e+10 7.6623743e+10)
(-4.23978e+12 5.2957088e+10 7.4171376e+10)
(-4.3338763e+12 4.2360649e+10 8.1669723e+10)
(-4.3534624e+12 3.4154818e+10 8.3103694e+10)
(-3.9645527e+12 8.1263766e+10 5.3514095e+10)
(-4.2692867e+12 4.3628228e+10 7.2195063e+10)
(-3.868584e+12 6.1715316e+10 4.6443519e+10)
(-4.1999914e+12 3.3268062e+10 7.663819e+10)
(-4.2037867e+12 2.341754e+10 -2.4842375e+11)
(-4.1744756e+12 3.782232e+09 -2.2069115e+11)
(-4.1187596e+12 1.6648342e+10 1.4114218e+11)
(-4.3075852e+12 2.8410015e+10 -4.0961865e+11)
(-3.6187615e+12 7.5580613e+09 -2.041658e+11)
(-4.5249583e+12 -2.7421379e+10 -1.0896147e+11)
(-3.930031e+12 -1.190374e+10 -4.3106131e+11)
(-3.6595588e+12 2.869662e+10 -3.1564957e+11)
(-4.0446273e+12 2.795436e+10 -2.1074586e+11)
(-4.0659652e+12 -1.4896511e+10 -1.9520189e+11)
(-3.6406972e+12 -1.6309967e+10 -3.2170484e+11)
(-4.0332438e+12 5.3265944e+10 -1.1509622e+11)
(-3.425553e+12 2.8685437e+10 -1.8006841e+11)
(-3.4177708e+12 1.5260646e+10 -1.8397411e+11)
(-4.0328873e+12 1.5724885e+10 -1.2614822e+11)
(-3.7342586e+12 5.0013226e+10 -3.9829401e+11)
(-3.7357381e+12 1.8526354e+10 -4.0170608e+11)
(-3.9967539e+12 3.2665657e+10 -1.2268714e+11)
(-3.9687605e+12 -3.506072e+09 -1.1354658e+11)
(-3.4041525e+12 4.4497394e+10 -1.7096613e+11)
(-3.3994654e+12 2.6203491e+10 -1.5675392e+11)
(-3.7956665e+12 8.6393818e+09 -2.3236576e+11)
(-3.499338e+12 6.5948159e+09 -3.8002523e+11)
(-3.541758e+12 -1.0475524e+10 -3.5040546e+11)
(-3.8083468e+12 -1.4817508e+09 -1.8838511e+11)
(-3.7072605e+12 5.3535176e+09 -2.0624988e+11)
(-3.6449859e+12 1.1315307e+09 -2.7918916e+11)
(-3.6409904e+12 -5.8138109e+09 -2.4475765e+11)
(-3.6792093e+12 7.7192346e+09 -2.0607664e+11)
(-3.7509487e+12 -2.7094721e+10 -2.2277263e+11)
(-3.6796235e+12 -2.647633e+10 -3.015612e+11)
(-3.6862385e+12 6.9154211e+09 -2.9654675e+11)
(-3.7350211e+12 7.6278011e+09 -2.338359e+11)
(-3.5402968e+12 -9.4775361e+09 -3.8401915e+11)
(-3.5307064e+12 -2.0159588e+10 -3.909999e+11)
(-3.8343593e+12 -2.6804282e+10 -2.7211304e+11)
(-3.8463397e+12 1.003557e+09 -2.6183575e+11)
(-3.872095e+12 -5.6993899e+09 -2.2108439e+11)
(-3.5438429e+12 -4.6147126e+09 -3.7507606e+11)
(-3.5386898e+12 5.9255344e+09 -3.7625562e+11)
(-3.8381299e+12 8.0096719e+09 -2.5591081e+11)
(-3.693698e+12 -9.9040373e+09 -2.8180112e+11)
(-3.7363574e+12 -6.9773561e+09 -2.2859911e+11)
(-3.6731643e+12 9.0922765e+09 -2.989879e+11)
(-3.7196935e+12 2.3634147e+10 -2.4986294e+11)
(-3.6909096e+12 1.3318578e+10 -2.8470759e+11)
(-3.6830952e+12 -3.7060323e+09 -3.0679813e+11)
(-3.7332555e+12 -2.0498316e+09 -2.4147912e+11)
(-3.5267319e+12 -7.6338816e+09 -3.8238316e+11)
(-3.8453615e+12 -1.2654186e+10 -2.6678945e+11)
(-3.8693844e+12 2.389476e+09 -2.2621415e+11)
(-3.5271859e+12 3.0274919e+08 -3.9432782e+11)
(-3.5543131e+12 -1.6612014e+10 1.4572287e+11)
(-3.2272317e+12 -5.7332259e+10 -3.4626058e+11)
(-3.2314645e+12 6.6644003e+10 -3.5043633e+11)
(-3.7718512e+12 1.5761124e+10 -1.6302508e+11)
(-3.8018316e+12 2.7967754e+10 -1.5583245e+11)
(-3.3378649e+12 -1.4986836e+10 -8.4971761e+10)
(-3.3485867e+12 2.2467678e+10 -7.5247552e+10)
(-3.7915939e+12 -8.8193734e+09 -1.7836441e+11)
(-3.3573822e+12 -2.0733254e+10 -9.448632e+10)
(-3.3692297e+12 3.1404009e+10 -9.7650537e+10)
(-3.7786924e+12 1.1562812e+10 -1.8301022e+11)
(-3.2479289e+12 -5.0917614e+10 -3.5850343e+11)
(-3.7666646e+12 -3.9362382e+09 -1.8826552e+11)
(-3.7801122e+12 2.0384654e+10 -1.9655574e+11)
(-3.3490946e+12 -1.9859938e+10 -1.035787e+11)
(-3.341265e+12 2.9950403e+10 -1.111321e+11)
(-3.5367896e+12 4.271942e+10 1.3848784e+11)
(-3.4038395e+12 2.0480477e+10 -3.8479897e+11)
(-3.4034639e+12 -2.5633703e+10 -3.8773458e+11)
(-3.5640901e+12 2.0768602e+10 -2.5419665e+11)
(-3.5676079e+12 -2.9248697e+10 -2.5246928e+11)
(-3.3938644e+12 2.8866108e+10 -3.8446199e+11)
(-3.3894194e+12 6.6356936e+09 -3.9995477e+11)
(-3.5561431e+12 3.5358493e+10 -2.4752963e+11)
(-3.5574753e+12 1.6769887e+09 -2.4937605e+11)
(-3.4470287e+12 -3.1739391e+09 -2.6839232e+11)
(-3.494423e+12 -3.6506273e+09 -2.1763689e+11)
(-3.4948654e+12 3.4121585e+10 -2.1213443e+11)
(-3.4392028e+12 2.318117e+10 -2.6912177e+11)
(-3.4489943e+12 -2.5693041e+10 -2.7386963e+11)
(-3.4971099e+12 -2.7056358e+10 -2.2485423e+11)
(-3.4968626e+12 2.2375396e+10 -2.2038136e+11)
(-3.4474923e+12 1.6116845e+10 -2.7146266e+11)
(-3.4247827e+12 2.3632677e+10 -2.2088302e+11)
(-3.4319723e+12 -2.2741892e+10 -2.2506184e+11)
(-3.423929e+12 -1.7906365e+10 -2.0802099e+11)
(-3.4257481e+12 2.6282182e+10 -1.9845404e+11)
(-3.423688e+12 2.9172364e+10 -2.1243101e+11)
(-3.4353282e+12 -1.2425041e+09 -2.1536118e+11)
(-3.4236571e+12 5.7292969e+08 -2.0048343e+11)
(-3.4239908e+12 3.0736558e+10 -1.9091066e+11)
(-3.3497063e+12 2.776839e+10 -1.861757e+11)
(-3.3518952e+12 2.5193194e+10 -1.9536912e+11)
(-3.3503828e+12 -1.3415757e+10 -2.0275179e+11)
(-3.3467646e+12 -5.5968616e+09 -1.9254985e+11)
(-3.3483579e+12 2.691086e+10 -1.8732307e+11)
(-3.4358898e+12 2.0066973e+10 -2.3337138e+11)
(-3.4496845e+12 -1.9231524e+10 -2.3966442e+11)
(-3.435411e+12 -1.4596591e+10 -2.1577347e+11)
(-3.4273847e+12 2.0797422e+10 -2.1530504e+11)
(-3.4216567e+12 3.7326886e+10 -2.309584e+11)
(-3.4257194e+12 -1.1740048e+10 -2.2742536e+11)
(-3.4127933e+12 -6.8569004e+09 -2.0818326e+11)
(-3.4284298e+12 3.9303592e+10 -2.0930276e+11)
(-3.3433176e+12 7.1545723e+08 -1.9239605e+11)
(-3.3410995e+12 -3.0072409e+09 -2.0320895e+11)
(-3.3506564e+12 3.7721231e+10 -2.0842478e+11)
(-3.3561387e+12 3.3122035e+10 -1.9050706e+11)
(-3.3570997e+12 -2.9605848e+09 -1.9581009e+11)
(-3.3584777e+12 -8.8831415e+09 -2.0983811e+11)
(-3.3550237e+12 1.9902762e+10 -2.0662711e+11)
(-3.3521346e+12 2.0246153e+10 -1.9515721e+11)
(-3.411068e+12 3.1210653e+10 -3.9281165e+11)
(-3.4053523e+12 -2.4292565e+10 -3.9074209e+11)
(-3.5625282e+12 -1.7423648e+10 -2.6260926e+11)
(-3.5695667e+12 3.2642582e+10 -2.7027134e+11)
(-3.4490923e+12 -1.6168292e+10 -2.7503975e+11)
(-3.4900026e+12 -1.5346517e+10 -2.3035896e+11)
(-3.4975953e+12 3.7070424e+10 -2.3339386e+11)
(-3.4489689e+12 2.6416228e+10 -2.8608886e+11)
(-3.5822959e+12 -3.3038123e+10 -2.6463399e+11)
(-3.4030391e+12 -2.8258939e+10 -3.9269989e+11)
(-3.4060205e+12 1.3473546e+10 -3.9975208e+11)
(-3.567945e+12 1.1321888e+10 -2.7763118e+11)
(-3.4570559e+12 1.5471098e+10 -2.8588879e+11)
(-3.4743855e+12 -2.3173619e+10 -3.0716361e+11)
(-3.5243911e+12 -2.627015e+10 -2.3936769e+11)
(-3.500287e+12 1.9838619e+10 -2.3742803e+11)
(-3.3885711e+12 5.3851931e+10 -3.8709531e+11)
(-3.3991571e+12 -1.8789362e+10 -3.8096241e+11)
(-3.5622668e+12 -2.9371184e+10 -2.5625005e+11)
(-3.5385813e+12 4.6596268e+10 -2.6750583e+11)
(-3.3994148e+12 3.7353456e+10 -3.9177663e+11)
(-3.4073671e+12 -3.6481319e+09 -3.9526555e+11)
(-3.5739812e+12 -8.2706427e+09 -2.5826671e+11)
(-3.5589793e+12 3.6761552e+10 -2.6849678e+11)
(-3.50616e+12 -6.894791e+09 -2.2327266e+11)
(-3.4604637e+12 -6.0723596e+09 -2.7332653e+11)
(-3.4456431e+12 3.0404152e+10 -2.8258966e+11)
(-3.4922725e+12 3.60081e+10 -2.3319295e+11)
(-3.4385184e+12 4.4788667e+10 -2.7140024e+11)
(-3.4491622e+12 -1.9904818e+10 -2.7308953e+11)
(-3.4948111e+12 -2.3489775e+10 -2.2806076e+11)
(-3.4777302e+12 4.3445955e+10 -2.3072678e+11)
(-3.3686319e+12 5.5682817e+09 -1.7622672e+11)
(-3.3512344e+12 -2.8267595e+08 -2.0319477e+11)
(-3.3439799e+12 2.9589644e+10 -2.086221e+11)
(-3.3439991e+12 2.7937222e+10 -1.9382836e+11)
(-3.4299215e+12 -3.6843493e+09 -2.0224025e+11)
(-3.430804e+12 -5.8117392e+09 -2.2146923e+11)
(-3.4255438e+12 3.203377e+10 -2.3059421e+11)
(-3.4170858e+12 3.2004899e+10 -2.1597685e+11)
(-3.3623891e+12 -1.5389871e+09 -1.8312348e+11)
(-3.341517e+12 -8.6487305e+09 -2.0716012e+11)
(-3.3302936e+12 3.6826646e+10 -2.107177e+11)
(-3.3291556e+12 3.537445e+10 -2.0056138e+11)
(-3.4199123e+12 -1.3170111e+10 -2.142734e+11)
(-3.4281846e+12 -1.8920221e+10 -2.2762143e+11)
(-3.4135026e+12 3.888537e+10 -2.2900759e+11)
(-3.401986e+12 3.8200703e+10 -2.178504e+11)
(-4.413803e+12 1.6479456e+10 3.7763411e+11)
(-4.1855264e+12 4.7292542e+10 2.6095331e+11)
(-4.1848769e+12 -1.2196903e+10 2.5965137e+11)
(-4.1872684e+12 4.4215985e+10 1.7230061e+11)
(-4.1475957e+12 1.175877e+09 1.6972367e+11)
(-4.2272238e+12 2.2268625e+10 8.659794e+10)
(-4.2124425e+12 3.9074428e+10 8.682792e+10)
(-3.8683016e+12 4.9370762e+10 3.4225117e+10)
(-4.288737e+12 3.853718e+10 1.1842521e+11)
(-3.7055755e+12 5.6254864e+10 3.6464607e+10)
(-4.1946269e+12 3.8862528e+10 1.1597715e+11)
(-4.398277e+12 1.3699774e+10 -8.4020245e+10)
(-4.4003509e+12 2.8545285e+09 -9.6210662e+10)
(-3.7788055e+12 7.3432925e+10 5.8906833e+10)
(-4.1784047e+12 3.6040068e+10 -3.326585e+10)
(-3.6995217e+12 7.5529193e+10 3.3112088e+10)
(-4.1901121e+12 4.8315189e+10 -3.3677336e+10)
(-4.4072433e+12 2.9200333e+10 1.7845405e+09)
(-4.4083921e+12 2.6884007e+10 9.9191995e+09)
(-4.6607138e+12 1.1791437e+08 -1.4478138e+10)
(-4.0293047e+12 3.5097088e+10 -1.0505285e+11)
(-4.0629472e+12 -3.2150985e+10 -1.0378686e+11)
(-4.660198e+12 2.8144786e+10 -1.5836329e+10)
(-4.0383803e+12 -3.2943158e+10 -9.1396582e+10)
(-4.0167828e+12 2.0534658e+10 -1.0579717e+11)
(-3.1766707e+12 7.7404422e+10 1.065696e+11)
(-2.5644129e+12 2.5943067e+10 6.8468881e+10)
(-3.8541659e+12 7.029327e+10 1.8833523e+09)
(-4.2238577e+12 4.8697711e+10 1.5515649e+10)
(-3.5327774e+12 1.3393612e+11 1.3210868e+11)
(-3.1032747e+12 7.0094463e+10 1.1547057e+11)
(-3.9134199e+12 9.0058129e+10 4.8100862e+10)
(-4.2080618e+12 4.399062e+10 2.8077096e+10)
(-4.3487568e+12 2.308207e+10 7.626532e+10)
(-4.3449491e+12 2.5639136e+10 6.6368568e+10)
(-4.5761153e+12 3.976016e+10 9.3042704e+10)
(-4.0205621e+12 -2.6009972e+10 1.6247272e+11)
(-4.0347131e+12 2.805051e+10 1.5162894e+11)
(-4.1546407e+12 3.2031936e+10 1.3878934e+10)
(-4.0893659e+12 -1.459585e+10 4.639437e+10)
(-4.5693573e+12 2.7697726e+09 1.0170488e+11)
(-4.0265673e+12 1.9404583e+10 1.5891294e+11)
(-4.0336393e+12 -1.8488504e+10 1.6141914e+11)
(-4.0931143e+12 -8.7228884e+09 4.8207748e+10)
(-4.1443933e+12 2.1654734e+10 2.2215701e+10)
(-3.6187077e+12 3.8042737e+10 1.0942377e+11)
(-3.3969742e+12 7.4580915e+10 8.7122841e+10)
(-3.9859114e+12 8.433535e+10 7.1487129e+10)
(-4.2929305e+12 4.1147428e+10 7.6055824e+10)
(-3.4620674e+12 1.161221e+10 8.6759445e+10)
(-3.2919719e+12 6.2601269e+10 6.9047131e+10)
(-3.9568099e+12 1.0790516e+11 5.9080284e+10)
(-4.2565877e+12 3.7827343e+10 7.8191996e+10)
(-4.349128e+12 3.4259215e+10 8.731209e+10)
(-4.3531375e+12 2.5294477e+10 8.0870465e+10)
(-3.9325002e+12 7.3564031e+10 6.3386886e+10)
(-4.2516679e+12 3.6272056e+10 8.5498306e+10)
(-3.9056021e+12 9.0770165e+10 6.9904149e+10)
(-4.2297794e+12 4.6133775e+10 8.5799654e+10)
(-3.5374067e+12 6.5736766e+10 7.3986641e+10)
(-3.9740621e+12 6.7843808e+10 3.6113054e+10)
(-3.5470403e+12 3.9997306e+10 6.5360092e+10)
(-3.8528019e+12 5.6680698e+10 3.8760926e+10)
(-4.2341711e+12 2.2053865e+10 -4.4239808e+10)
(-4.1871847e+12 6.334481e+09 -3.6156426e+10)
(-4.1727077e+12 2.4023348e+10 -2.1825221e+11)
(-4.2018508e+12 4.732585e+09 -2.4396433e+11)
(-4.2463138e+12 2.35536e+10 -5.6206675e+10)
(-3.5967511e+12 4.1815488e+10 -2.0306397e+11)
(-3.6045543e+12 -1.6172318e+10 -2.0137916e+11)
(-3.5941443e+12 -1.3277725e+10 -3.1727777e+11)
(-3.5924465e+12 4.4284601e+10 -3.2265075e+11)
(-4.184539e+12 -3.2568193e+09 -1.7857984e+10)
(-3.5635553e+12 3.2364283e+10 -1.7389797e+11)
(-3.5834837e+12 -1.9552924e+09 -1.8504149e+11)
(-4.1808173e+12 5.191809e+09 -2.3513526e+11)
(-4.1780735e+12 -6.4876056e+09 -2.1422195e+11)
(-3.8666037e+12 4.4821148e+09 2.3750509e+11)
(-3.8696234e+12 2.4690845e+10 2.3987164e+11)
(-4.1081097e+12 1.9797182e+10 1.369688e+11)
(-4.3225122e+12 2.8709156e+10 -4.1366727e+11)
(-3.6054855e+12 1.2020707e+10 -2.0392815e+11)
(-3.288264e+12 1.8219791e+10 -1.5593308e+11)
(-3.2798455e+12 1.2774895e+10 -1.7186861e+11)
(-3.280918e+12 1.8377708e+10 -1.6506565e+11)
(-3.2792485e+12 1.5626073e+10 -1.7379608e+11)
(-3.2483378e+12 -8.673332e+09 -1.7691575e+11)
(-3.2475362e+12 1.0194655e+10 -1.7779328e+11)
(-3.6127854e+12 3.918633e+09 -2.0127601e+11)
(-3.5967925e+12 2.6739048e+10 -2.166286e+11)
(-4.06954e+12 1.3562309e+10 -1.4122934e+11)
(-4.0446498e+12 -1.0680056e+10 -1.3048102e+11)
(-3.4381252e+12 4.2337546e+10 -2.0437342e+11)
(-3.443842e+12 2.959175e+10 -1.9824451e+11)
(-3.7595365e+12 5.5613792e+10 -4.106071e+11)
(-3.6188699e+12 1.0427968e+10 -3.5034758e+11)
(-3.5458928e+12 2.9682954e+09 -3.8987589e+11)
(-3.5646059e+12 -6.2505578e+09 -3.8183309e+11)
(-3.8125041e+12 -4.4334686e+09 -2.2181587e+11)
(-3.802133e+12 3.15733e+09 -2.3202817e+11)
(-3.660619e+12 1.5059396e+09 -2.568244e+11)
(-3.6456297e+12 1.0746537e+10 -2.7335202e+11)
(-3.6812565e+12 6.4585655e+09 -2.2051884e+11)
(-3.6757752e+12 2.4018869e+10 -2.3344447e+11)
(-3.6541079e+12 -6.7431831e+09 -2.5951547e+11)
(-3.6499567e+12 -2.2801506e+09 -2.5842865e+11)
(-3.6964651e+12 -5.4879103e+09 -2.0957059e+11)
(-3.6861705e+12 4.0762148e+09 -2.1380898e+11)
(-3.5373987e+12 -5.0207387e+09 -3.9154099e+11)
(-3.5467149e+12 -4.8195556e+09 -3.828891e+11)
(-3.8085655e+12 -1.6129782e+10 -2.1787962e+11)
(-3.8011827e+12 -1.2101188e+10 -2.1953212e+11)
(-3.3392508e+12 -1.0745512e+10 -1.1744395e+11)
(-3.7694479e+12 1.7057556e+10 -1.7428605e+11)
(-3.8138448e+12 2.3249467e+10 -1.6387323e+11)
(-3.3506702e+12 2.1167818e+10 -1.0714091e+11)
(-3.2798617e+12 -4.4688818e+10 -3.7237864e+11)
(-3.2660908e+12 7.554592e+10 -3.7029081e+11)
(-3.8023397e+12 -7.3118476e+09 -1.991282e+11)
(-3.7949347e+12 9.3149726e+09 -1.9867928e+11)
(-3.3601486e+12 -1.777584e+10 -1.1944239e+11)
(-3.3713698e+12 3.199032e+10 -1.1802261e+11)
(-3.5211218e+12 5.8636749e+10 1.4344733e+11)
(-3.2543344e+12 -3.3714709e+10 -3.628936e+11)
(-3.2336216e+12 9.1466136e+10 -3.6109218e+11)
(-3.5314735e+12 -9.2341439e+09 1.3767164e+11)
(-3.7972267e+12 -7.7798611e+08 -1.9159032e+11)
(-3.805223e+12 1.933292e+10 -1.911384e+11)
(-3.3724386e+12 -1.3386963e+10 -1.0971263e+11)
(-3.3636093e+12 3.6823751e+10 -1.0889036e+11)
(-3.7725522e+12 7.3889316e+08 -1.8556901e+11)
(-3.3443257e+12 -3.192395e+09 -9.3493214e+10)
(-3.8001457e+12 -1.5994922e+10 -1.7756175e+11)
(-3.3306623e+12 3.4982077e+10 -1.0159991e+11)
(-3.4955972e+12 -6.0471144e+09 -2.0277857e+11)
(-3.4410525e+12 -1.3658331e+10 -2.8794635e+11)
(-3.4304065e+12 2.1881659e+10 -2.5607489e+11)
(-3.4829418e+12 2.3312713e+10 -1.9368342e+11)
(-3.531071e+12 -6.848455e+09 -2.4774776e+11)
(-3.3545155e+12 -1.5211678e+10 -4.0391553e+11)
(-3.3661217e+12 2.8270266e+10 -3.8169939e+11)
(-3.5452482e+12 3.9623329e+10 -2.3738347e+11)
(-3.3729693e+12 -3.8764833e+09 -3.7651201e+11)
(-3.3621627e+12 -3.2595954e+10 -3.8760541e+11)
(-3.482875e+12 -2.3737023e+10 -2.5569089e+11)
(-3.4914741e+12 -2.5742021e+09 -2.4493602e+11)
(-3.432646e+12 -3.4606468e+10 -2.1634071e+11)
(-3.3736973e+12 -2.8291547e+10 -2.7489092e+11)
(-3.3797174e+12 -7.5015893e+09 -2.6431558e+11)
(-3.4335531e+12 -1.9476126e+09 -2.1191422e+11)
(-3.3517869e+12 9.9097903e+09 -1.681478e+11)
(-3.3359275e+12 2.630838e+09 -1.9165639e+11)
(-3.3380941e+12 1.6053553e+10 -1.8395675e+11)
(-3.3407835e+12 1.447023e+10 -1.7306291e+11)
(-3.4206739e+12 -1.4455797e+09 -1.8941267e+11)
(-3.411365e+12 -5.9775658e+09 -2.2891818e+11)
(-3.4194855e+12 1.7254996e+10 -2.0200732e+11)
(-3.4140483e+12 1.8714656e+10 -1.8583563e+11)
(-3.3724645e+12 -5.2331831e+08 -2.1334805e+11)
(-3.3700683e+12 -3.092896e+10 -2.1418295e+11)
(-3.375675e+12 -2.5136732e+10 -1.8890604e+11)
(-3.3744875e+12 3.9313726e+09 -1.925499e+11)
(-3.3059801e+12 -1.4055901e+10 -1.7900994e+11)
(-3.3064581e+12 -2.0720024e+10 -1.846703e+11)
(-3.3061593e+12 3.5010948e+09 -1.8726692e+11)
(-3.3028859e+12 7.4357386e+09 -1.8202592e+11)
(-3.3619958e+12 -1.42864e+10 -1.8193284e+11)
(-3.3334333e+12 -2.2846704e+10 -2.2078095e+11)
(-3.3412158e+12 2.6009419e+10 -2.1264192e+11)
(-3.3553798e+12 2.1694463e+10 -1.9677954e+11)
(-3.4149392e+12 -2.7933594e+10 -2.0944155e+11)
(-3.427302e+12 -3.2486126e+10 -2.292906e+11)
(-3.4267352e+12 2.8696164e+10 -2.3963097e+11)
(-3.4167213e+12 2.6113043e+10 -2.1876203e+11)
(-3.4351634e+12 1.8228009e+10 -2.3429644e+11)
(-3.4196845e+12 -2.4521248e+10 -2.2761373e+11)
(-3.4260668e+12 -2.200874e+10 -2.1095905e+11)
(-3.421234e+12 1.7346148e+10 -2.1591086e+11)
(-3.3513472e+12 -9.5984543e+09 -1.9158426e+11)
(-3.3479467e+12 -1.5411573e+10 -2.0626165e+11)
(-3.3471299e+12 1.7764847e+10 -2.0838647e+11)
(-3.3443174e+12 1.636697e+10 -1.9915046e+11)
(-3.4076936e+12 5.5822643e+08 -4.1227319e+11)
(-3.4036338e+12 -3.7073717e+10 -4.0315534e+11)
(-3.5702766e+12 -3.9551975e+10 -2.6985162e+11)
(-3.5669251e+12 -136069.17 -2.8002545e+11)
(-3.4047613e+12 2.1571248e+10 -4.0120655e+11)
(-3.4023364e+12 -4.1970929e+10 -3.9456643e+11)
(-3.5668194e+12 -4.207544e+10 -2.6225678e+11)
(-3.5646632e+12 2.7797314e+10 -2.7839122e+11)
(-3.4481885e+12 2.0998328e+10 -2.9086281e+11)
(-3.4534899e+12 -4.0199345e+10 -2.7426618e+11)
(-3.4912995e+12 -3.7456962e+10 -2.3384636e+11)
(-3.4949591e+12 3.0490808e+10 -2.4150629e+11)
(-3.4989949e+12 -3.0418434e+10 -2.329973e+11)
(-3.4493529e+12 -2.7992218e+10 -2.8536318e+11)
(-3.454563e+12 5.4754252e+09 -2.8875317e+11)
(-3.4986081e+12 1.6576204e+10 -2.4044542e+11)
(-3.5159679e+12 -1.2493769e+10 -2.1788469e+11)
(-3.4703357e+12 -1.7805069e+10 -2.971072e+11)
(-3.4469564e+12 1.2924859e+10 -2.8004905e+11)
(-3.4932495e+12 1.775084e+10 -2.2518487e+11)
(-3.5828303e+12 -1.3694717e+10 -2.5810137e+11)
(-3.4118854e+12 -1.8045675e+10 -4.0830398e+11)
(-3.4060828e+12 2.0256812e+10 -3.9960649e+11)
(-3.5696685e+12 2.3462317e+10 -2.6741204e+11)
(-3.4048893e+12 1.2864079e+10 -4.0201631e+11)
(-3.4089559e+12 -4.1435356e+10 -3.9664392e+11)
(-3.5750897e+12 -4.8749451e+10 -2.6364536e+11)
(-3.5619509e+12 6.0370919e+09 -2.7567216e+11)
(-3.5016335e+12 -4.6380796e+10 -2.308058e+11)
(-3.4518496e+12 -4.1879022e+10 -2.8113703e+11)
(-3.4479567e+12 7.0508769e+09 -2.8518418e+11)
(-3.489328e+12 1.1741892e+10 -2.4160086e+11)
(-3.4348625e+12 -9.825275e+09 -2.0499594e+11)
(-3.4265699e+12 -1.3748566e+10 -2.40925e+11)
(-3.4245129e+12 1.6714118e+10 -2.0628406e+11)
(-3.4267891e+12 1.5782269e+10 -2.2567931e+11)
(-3.3479397e+12 -4.1702315e+09 -1.9445951e+11)
(-3.3471531e+12 -7.036649e+09 -2.0802164e+11)
(-3.3403623e+12 1.5941856e+10 -2.0623982e+11)
(-3.3455761e+12 1.4256015e+10 -1.9183852e+11)
(-3.4243491e+12 -3.6817926e+10 -2.2722182e+11)
(-3.4211459e+12 -2.9501405e+10 -2.0968895e+11)
(-3.414721e+12 2.0357199e+10 -2.2344367e+11)
(-3.4253077e+12 1.4633515e+10 -2.3736587e+11)
(-3.3388704e+12 2.2990406e+10 -2.1539674e+11)
(-3.3454957e+12 -2.2528861e+10 -2.0520845e+11)
(-3.3402881e+12 -1.2367e+10 -1.9959422e+11)
(-3.4127129e+12 1.5599502e+10 -2.3084073e+11)
(-3.3923274e+12 -1.0041461e+10 -2.3555813e+11)
(-3.4064989e+12 1.8524452e+10 -2.1597828e+11)
(-3.4069725e+12 -3.550438e+09 -2.0748927e+11)
(-3.4368653e+12 4.4707523e+10 -2.4513484e+11)
(-3.4356603e+12 -1.6802327e+10 -2.3603945e+11)
(-3.4354909e+12 -1.0081366e+10 -2.175139e+11)
(-3.4240576e+12 4.1691299e+10 -2.2352199e+11)
(-3.3466711e+12 4.1850407e+10 -2.1781288e+11)
(-3.358906e+12 -2.9234903e+09 -2.1186155e+11)
(-3.4021572e+12 2.3606216e+10 -4.0672928e+11)
(-3.404397e+12 -2.8412124e+10 -4.0204256e+11)
(-3.5728723e+12 -3.2164059e+10 -2.8166916e+11)
(-3.5806044e+12 2.7698573e+10 -2.8123602e+11)
(-3.4559729e+12 3.4512322e+10 -3.0052976e+11)
(-3.5008267e+12 -2.2169998e+10 -2.4400454e+11)
(-3.4557566e+12 -2.2141986e+10 -2.9259338e+11)
(-3.5041146e+12 4.518198e+10 -2.4992106e+11)
(-3.4864518e+12 -1.6332375e+10 -2.1149267e+11)
(-3.4177592e+12 -1.6936169e+10 -2.845468e+11)
(-3.4260792e+12 6.7278792e+09 -2.874459e+11)
(-3.4718927e+12 1.1048663e+10 -2.3408291e+11)
(-3.5731163e+12 -3.1913996e+10 -2.3030945e+11)
(-3.3729926e+12 -2.5476087e+10 -4.0098055e+11)
(-3.3698476e+12 6.5065285e+09 -4.2515029e+11)
(-3.5298866e+12 4.8777898e+09 -2.8349996e+11)
(-3.2112646e+12 -5.2092752e+10 -1.0511132e+09)
(-3.2225838e+12 5.033051e+10 1.5055249e+10)
(-3.0510511e+12 -7.0643777e+10 1.0573656e+11)
(-2.9921147e+12 7.1535115e+10 1.1385446e+11)
(-3.1720416e+12 -5.7540707e+10 -4.207507e+11)
(-3.2121175e+12 6.3344201e+10 -4.0961847e+11)
(-3.1984005e+12 -7.2174812e+10 -4.1625286e+11)
(-3.2058554e+12 7.4870151e+10 -4.1611054e+11)
(-3.4781948e+12 -1.0086297e+09 -3.2485091e+11)
(-3.2904857e+12 -3.000179e+10 -2.2378198e+11)
(-3.3148475e+12 5.2264602e+10 -1.9771241e+11)
(-3.5140944e+12 5.5178147e+10 -2.9566775e+11)
(-3.5180935e+12 -3.3283258e+10 -3.1265281e+11)
(-3.331525e+12 -5.0150087e+10 -2.0761819e+11)
(-3.3577761e+12 5.339174e+10 -2.0404907e+11)
(-3.5233483e+12 3.8305499e+10 -3.0789812e+11)
(-3.3513322e+12 5.571086e+10 -2.087874e+11)
(-3.3475155e+12 -5.431376e+10 -2.1272639e+11)
(-3.5139435e+12 -3.2643746e+10 -3.2223529e+11)
(-3.5294353e+12 4.8624925e+10 -3.1784492e+11)
(-3.3300792e+12 5.0247754e+10 -2.2225453e+11)
(-3.3342593e+12 -4.2200338e+10 -2.0749666e+11)
(-3.5216794e+12 -4.5329918e+10 -3.1453562e+11)
(-3.5024924e+12 2.1468705e+10 -3.310721e+11)
(-3.0120093e+12 -5.71207e+10 1.0212593e+11)
(-3.2068117e+12 -5.5027924e+10 -4.2320889e+11)
(-3.1967178e+12 8.5966497e+10 -4.2004987e+11)
(-3.5033466e+12 -1.5961163e+10 -3.3086257e+11)
(-3.3329012e+12 -3.5488111e+10 -2.2612577e+11)
(-3.3338179e+12 5.8865464e+10 -2.1305772e+11)
(-3.5167641e+12 5.2383931e+10 -3.1763039e+11)
(-3.5103232e+12 -3.8953287e+10 -3.1617744e+11)
(-3.3344643e+12 -3.9186677e+10 -2.1033442e+11)
(-3.3293038e+12 7.7636865e+10 -2.2176444e+11)
(-3.4897777e+12 5.4758795e+10 -3.26878e+11)
(-3.027423e+12 9.1178541e+10 9.8686949e+10)
(-3.1909317e+12 -3.2877806e+10 7.3038159e+09)
(-3.1996443e+12 7.41761e+10 -1.3505648e+09)
(-3.3427175e+12 -7.3210948e+09 -4.5693838e+11)
(-3.3467963e+12 1.8991888e+10 -4.6307869e+11)
(-3.2739908e+12 -5.7310564e+09 -3.6441672e+11)
(-3.273683e+12 1.9508455e+10 -3.7733263e+11)
(-3.3363056e+12 4.3264038e+09 -4.7931578e+11)
(-3.3217721e+12 3.2498201e+10 -4.8548062e+11)
(-3.2703069e+12 4.384243e+09 -3.8767395e+11)
(-3.2620032e+12 3.0345365e+10 -3.8278237e+11)
(-3.1579884e+12 2.733864e+10 -2.8734427e+11)
(-3.0815865e+12 2.8528601e+10 -2.0281409e+11)
(-3.0743088e+12 6.2053062e+09 -2.2503565e+11)
(-3.1551255e+12 4.5474517e+09 -3.0552104e+11)
(-3.1581557e+12 1.9899793e+10 -2.9668326e+11)
(-3.0747686e+12 2.0552811e+10 -2.1962817e+11)
(-3.0767463e+12 3.5072678e+09 -2.0516483e+11)
(-3.1590811e+12 -1.1843939e+09 -2.8366641e+11)
(-3.0062383e+12 7.9302201e+09 -1.706759e+11)
(-3.0086665e+12 2.1779918e+10 -1.7571727e+11)
(-2.938704e+12 2.2983938e+10 -1.4859586e+11)
(-2.9390939e+12 1.1394532e+10 -1.4019987e+11)
(-3.006055e+12 7.8146042e+09 -1.8624057e+11)
(-3.0193415e+12 2.9682601e+10 -1.5755929e+11)
(-2.9511604e+12 3.248961e+10 -1.3044502e+11)
(-2.9394156e+12 1.1649083e+10 -1.5298378e+11)
(-2.8775162e+12 1.5403609e+10 -1.3206278e+11)
(-2.8773339e+12 1.4911705e+10 -1.2227439e+11)
(-2.8768567e+12 2.4743385e+10 -1.2927937e+11)
(-2.8198019e+12 2.6896337e+10 -1.104397e+11)
(-2.8208484e+12 1.9279753e+10 -1.0552964e+11)
(-3.0233327e+12 7.4343613e+09 -1.69412e+11)
(-3.0066733e+12 1.8021838e+10 -1.9285422e+11)
(-2.927828e+12 2.3320261e+10 -1.6943323e+11)
(-2.9516556e+12 1.2853443e+10 -1.4843563e+11)
(-3.0016742e+12 6.4187729e+09 -1.8421396e+11)
(-3.0199391e+12 1.8307505e+10 -1.6860952e+11)