/*--------------------------------*- C++ -*----------------------------------*\
  =========                 |
  \\      /  F ield         | OpenFOAM: The Open Source CFD Toolbox
   \\    /   O peration     | Website:  https://openfoam.org
    \\  /    A nd           | Version:  7
     \\/     M anipulation  |
\*---------------------------------------------------------------------------*/
FoamFile
{
    version     2.0;
    format      ascii;
    class       volVectorField;
    location    "7000";
    object      UMean;
}
// * * * * * * * * * * * * * * * * * * * * * * * * * * * * * * * * * * * * * //

dimensions      [0 1 -1 0 0 0 0];

internalField   nonuniform List<vector> 
34356
(
(-4.9953053e+39 -1.4967589e+38 3.7930167e+38)
(-4.2294869e+39 -9.7369349e+37 -1.5939086e+38)
(-4.4513003e+39 -2.7698646e+36 4.9998424e+38)
(-4.5049508e+39 -1.3586739e+38 5.0961811e+38)
(-5.136007e+39 -3.9335009e+37 4.9828905e+38)
(-5.049299e+39 -1.009753e+38 4.6374317e+38)
(-6.3033615e+39 -6.1070387e+37 9.2498677e+37)
(-4.8703184e+39 -9.011289e+37 2.9946209e+38)
(-4.9027072e+39 -2.7819421e+37 3.0603659e+38)
(-4.2944003e+39 -5.1330839e+37 -6.0925106e+38)
(-3.5435802e+39 2.3790536e+37 -1.4811714e+38)
(-4.2437846e+39 -1.130139e+38 -6.5328848e+38)
(-3.5546337e+39 -1.886737e+38 -1.5214207e+38)
(-3.7219657e+39 -5.9823023e+37 4.0846401e+38)
(-3.6873858e+39 -1.3137966e+37 4.0995334e+38)
(-4.6975588e+39 -1.0082473e+38 4.8959264e+38)
(-4.7193598e+39 -5.7699689e+36 4.8543193e+38)
(-3.692338e+39 -3.7484744e+37 4.0079114e+38)
(-4.7478045e+39 -9.6563362e+37 5.0340635e+38)
(-3.7256493e+39 -6.1680924e+37 4.2009542e+38)
(-4.7462349e+39 -7.7392829e+36 5.1004937e+38)
(-5.1968349e+39 -1.615112e+37 1.6896318e+38)
(-4.9036591e+39 -3.229882e+37 -1.3429288e+38)
(-4.9044919e+39 -5.0384195e+37 -1.2692695e+38)
(-5.1531046e+39 -8.6736226e+37 1.61739e+38)
(-6.1598203e+39 -4.2900636e+37 -1.2642356e+38)
(-4.2730794e+39 -2.1328462e+37 -4.5454546e+37)
(-4.2099668e+39 -5.5865458e+37 -4.9875287e+37)
(-4.1999623e+39 -6.2830567e+37 -3.9974507e+37)
(-4.2241746e+39 -4.2176256e+37 -4.8321657e+37)
(-4.5120108e+39 -2.5295245e+35 -2.7530776e+38)
(-4.9455939e+39 1.7946821e+37 -1.3175665e+38)
(-4.5407308e+39 -5.411688e+36 -1.1467788e+38)
(-4.4462993e+39 -7.8622514e+36 -2.2465847e+38)
(-4.4185202e+39 -8.3988827e+37 2.9763215e+38)
(-4.4302027e+39 3.4301923e+36 2.8807606e+38)
(-4.452333e+39 -8.6138369e+37 2.9491875e+38)
(-4.4586005e+39 -7.8508017e+36 3.0546501e+38)
(-4.1087938e+39 -9.4518771e+37 -5.7892107e+38)
(-4.2606332e+39 -7.7656832e+37 -5.4850405e+38)
(-4.2505197e+39 -1.4849454e+38 -5.4137392e+38)
(-4.0928038e+39 -8.8675484e+37 -5.9167792e+38)
(-3.334081e+39 -5.5383721e+37 -7.2059411e+38)
(-2.5493132e+39 2.8587255e+37 -6.7237488e+37)
(-3.3712188e+39 -9.9810836e+37 -7.2337304e+38)
(-2.5978684e+39 -1.5183113e+38 -5.4431545e+37)
(-4.1262153e+39 1.2939824e+37 -6.1153558e+38)
(-4.1250291e+39 -1.0395222e+38 -6.1409391e+38)
(-4.0610399e+39 -5.6474672e+37 -6.3034979e+38)
(-4.0619888e+39 -1.1445787e+37 -6.227042e+38)
(-3.343553e+39 -3.1575046e+37 -7.4343682e+38)
(-3.3429413e+39 -2.3751734e+37 -7.4654249e+38)
(-2.5620771e+39 -1.0451376e+38 -7.8527147e+37)
(-2.5567751e+39 2.9039015e+37 -8.3217287e+37)
(-4.092889e+39 -2.4691899e+36 4.4310485e+38)
(-3.1012431e+39 -4.6178344e+37 3.4713508e+38)
(-3.0685213e+39 -1.91019e+37 3.145516e+38)
(-4.0663776e+39 -5.7245044e+37 4.1232481e+38)
(-3.0934844e+39 -1.4710841e+37 3.3196967e+38)
(-4.0994684e+39 -5.1189684e+36 4.4111769e+38)
(-3.0569595e+39 -8.9044549e+36 3.2966202e+38)
(-4.055302e+39 -7.303131e+37 4.2976633e+38)
(-3.0991961e+39 -3.2038409e+37 3.3148971e+38)
(-3.075962e+39 -2.6423884e+37 3.3639252e+38)
(-4.0852933e+39 -1.8939773e+37 4.3438241e+38)
(-4.068797e+39 -8.7013614e+37 4.363512e+38)
(-4.0972391e+39 5.5240425e+35 4.6480612e+38)
(-3.1125833e+39 -3.6461031e+37 3.5609702e+38)
(-3.0840002e+39 -2.8501635e+37 3.2558883e+38)
(-4.0779677e+39 -6.6118634e+37 4.3775025e+38)
(-4.7246253e+39 -1.212464e+37 2.5883902e+38)
(-4.7017317e+39 -8.2219133e+37 2.4814083e+38)
(-4.5105376e+39 -5.9919049e+37 -1.9856952e+37)
(-4.5259454e+39 -3.6910819e+37 -1.8766069e+37)
(-4.601618e+39 -2.9280408e+37 -1.0104771e+38)
(-4.4529264e+39 -3.6317002e+37 -2.2569503e+38)
(-4.4661828e+39 -4.7743027e+37 -2.11873e+38)
(-4.579273e+39 -5.9628705e+37 -1.0364672e+38)
(-4.9670289e+39 -4.9467911e+36 -1.2238666e+38)
(-4.5910927e+39 -1.5024224e+37 -1.0192751e+38)
(-4.4498243e+39 -2.2881087e+37 -2.2178893e+38)
(-4.4749326e+39 -3.6137071e+37 -2.03789e+38)
(-4.5841132e+39 -5.5445638e+37 -9.1785592e+37)
(-4.96769e+39 -6.146687e+37 -1.192485e+38)
(-4.6486914e+39 -8.4295326e+37 2.3839432e+38)
(-4.6840752e+39 -2.9584628e+36 2.3911217e+38)
(-4.5033262e+39 -1.3168488e+37 -1.6918109e+37)
(-4.5078979e+39 -6.1617263e+37 -4.8567136e+36)
(-4.4935838e+39 1.7645263e+36 -2.7580017e+38)
(-4.4930769e+39 -4.1447691e+37 -2.7451211e+38)
(-4.2315413e+39 -2.9926594e+37 -1.6207832e+38)
(-4.1671967e+39 -4.4745085e+37 -1.4843654e+38)
(-4.1759128e+39 -6.1714432e+37 -2.7078639e+37)
(-4.2017704e+39 -7.5782256e+36 -5.3296686e+37)
(-3.8140888e+39 -2.1125447e+37 -8.1008234e+37)
(-4.3541344e+39 2.3504941e+37 -5.3462388e+38)
(-4.9732346e+39 1.4208222e+37 -1.9562449e+38)
(-4.1683211e+39 1.8816639e+37 -4.1743024e+38)
(-4.5752473e+39 1.8269731e+37 -2.965958e+38)
(-4.6083535e+39 -4.0712535e+37 -2.9637858e+38)
(-4.1798518e+39 -4.0477668e+37 -4.3637551e+38)
(-4.4372648e+39 -3.7523757e+37 -3.1341273e+38)
(-4.4173993e+39 1.3147747e+37 -3.0689431e+38)
(-4.4805782e+39 4.2898207e+36 -2.4237875e+38)
(-4.5159569e+39 -3.4482032e+37 -2.3701903e+38)
(-3.8811877e+39 -1.8711044e+37 -9.6056846e+37)
(-3.8050113e+39 -1.9038053e+37 -1.6635962e+38)
(-3.8071428e+39 -2.479781e+37 -1.5937487e+38)
(-3.8958848e+39 -1.7026793e+37 -1.7134593e+38)
(-3.8908986e+39 -1.7253175e+37 -1.6540537e+38)
(-3.88215e+39 -1.9494366e+37 -1.8515988e+38)
(-3.8830096e+39 -1.2384537e+37 -1.919093e+38)
(-3.887253e+39 -2.050405e+37 -1.9828587e+38)
(-3.8358534e+39 6.4608775e+36 2.6918639e+38)
(-3.8209831e+39 -5.9932173e+37 2.790512e+38)
(-3.8378607e+39 2.9377159e+36 2.7866429e+38)
(-3.8268006e+39 -5.7881473e+37 2.596986e+38)
(-3.8464236e+39 -6.6554648e+36 2.7251071e+38)
(-3.829717e+39 -6.9840775e+37 2.747374e+38)
(-3.8474907e+39 1.6258554e+36 2.9970441e+38)
(-3.8382093e+39 -7.0130662e+37 2.7863102e+38)
(-4.9608116e+39 -1.49292e+38 -5.4338567e+38)
(-4.8007952e+39 -6.8065087e+37 -6.8349439e+38)
(-4.3495365e+39 -6.2459341e+37 -6.3598267e+38)
(-4.1677989e+39 -5.2853305e+37 -4.4264788e+38)
(-4.1925179e+39 -1.2983523e+38 -4.4302517e+38)
(-4.3347893e+39 -9.3757224e+37 -6.3593543e+38)
(-2.9779564e+39 -4.9433839e+37 -7.3106944e+38)
(-3.5111111e+39 -3.883646e+37 -6.475943e+38)
(-3.5047688e+39 -9.3771892e+37 -6.507061e+38)
(-2.9707158e+39 -6.2821099e+37 -7.4281933e+38)
(-2.0606999e+39 -3.7038601e+37 -6.774758e+38)
(-1.7625433e+39 4.3231777e+37 8.8694917e+37)
(-1.8164356e+39 -7.4267144e+37 1.1744004e+38)
(-2.09075e+39 -5.5350142e+37 -6.6773685e+38)
(-2.9885331e+39 -4.4560594e+37 -7.4133131e+38)
(-3.5186452e+39 -2.9036749e+37 -6.5142141e+38)
(-3.5220509e+39 -7.4464456e+37 -6.4921284e+38)
(-2.9886623e+39 -5.1155504e+37 -7.3613776e+38)
(-2.0891943e+39 -4.9643222e+37 -6.7358355e+38)
(-2.0872716e+39 -2.8040428e+37 -6.6939067e+38)
(-1.8030824e+39 -9.4064983e+37 1.0221546e+38)
(-1.8039876e+39 2.5731312e+37 1.0912417e+38)
(-4.1044663e+39 3.4293883e+37 -4.9983653e+38)
(-4.1443402e+39 -1.0571272e+38 -5.0233961e+38)
(-4.3211475e+39 -7.2464422e+37 -6.7500198e+38)
(-4.3141487e+39 4.4591146e+36 -6.6742505e+38)
(-3.502356e+39 3.3973178e+37 -6.6989705e+38)
(-3.5045786e+39 -2.4320393e+37 -6.7066328e+38)
(-2.9842175e+39 -1.3020955e+37 -7.4915339e+38)
(-2.9799899e+39 8.9154459e+36 -7.5645053e+38)
(-2.9902555e+39 -1.7324645e+37 -7.4957165e+38)
(-3.5102289e+39 -6.7835164e+36 -6.7458773e+38)
(-3.5038785e+39 -7.2478056e+37 -6.7824698e+38)
(-2.9864107e+39 -4.6129681e+37 -7.6345239e+38)
(-2.0853536e+39 1.6295564e+36 -6.80602e+38)
(-2.0920887e+39 7.5970893e+36 -6.7510807e+38)
(-1.8065919e+39 -5.4492596e+37 9.9381671e+37)
(-1.8074788e+39 4.388632e+37 1.0562356e+38)
(-2.1013294e+39 -2.2472527e+37 -6.7694969e+38)
(-1.8179395e+39 -6.7834517e+37 1.0614977e+38)
(-2.080632e+39 -2.2169854e+37 -6.8833597e+38)
(-1.7922707e+39 2.9938301e+37 8.6397344e+37)
(-2.6681094e+39 -3.7648393e+37 3.3694163e+38)
(-2.6644999e+39 -2.2775634e+37 3.2502647e+38)
(-3.4695354e+39 -4.0640366e+37 4.1737839e+38)
(-3.4606448e+39 -5.5638105e+36 4.2187221e+38)
(-3.4591869e+39 -1.4767549e+37 3.9374157e+38)
(-2.6533086e+39 -2.5789875e+37 3.1021466e+38)
(-2.626581e+39 2.3981467e+36 3.0626568e+38)
(-3.4417085e+39 -4.858851e+37 3.9377644e+38)
(-3.4698391e+39 4.3284929e+36 4.1170827e+38)
(-2.6623738e+39 -2.0982252e+37 3.2856553e+38)
(-2.6412651e+39 4.3477729e+36 3.0942672e+38)
(-3.4696939e+39 -2.4292467e+37 4.0391533e+38)
(-2.6548899e+39 -7.355997e+36 3.1845422e+38)
(-2.6394322e+39 5.1858627e+36 3.1844162e+38)
(-3.4600963e+39 -4.4159654e+36 4.092977e+38)
(-3.4458996e+39 -5.2407992e+37 4.1336056e+38)
(-2.64796e+39 -8.2379206e+36 3.0768032e+38)
(-2.680627e+39 -3.5181889e+37 3.3610263e+38)
(-3.4735258e+39 -6.629796e+36 4.1695252e+38)
(-3.4618939e+39 -3.8851698e+37 4.0199837e+38)
(-3.4613762e+39 -1.7512442e+37 4.0983914e+38)
(-2.660641e+39 -1.9232871e+37 3.1736205e+38)
(-2.6341472e+39 -1.2771284e+37 3.1730943e+38)
(-3.4421991e+39 -6.1363991e+37 4.1117863e+38)
(-2.6882734e+39 -2.8266792e+37 3.454904e+38)
(-2.6833439e+39 -1.9221197e+37 3.315213e+38)
(-3.4739063e+39 7.6668262e+35 4.3790214e+38)
(-3.4810359e+39 -4.286799e+37 4.3201469e+38)
(-2.670364e+39 -3.4788106e+37 3.170867e+38)
(-2.6568641e+39 -8.1510305e+36 3.2291489e+38)
(-3.4682054e+39 -2.3956693e+37 4.0905666e+38)
(-3.456436e+39 -6.1020076e+37 4.1162402e+38)
(-4.0039635e+39 -2.478581e+37 -1.9032981e+38)
(-3.9926472e+39 -3.1471676e+37 -2.3768281e+38)
(-4.0967092e+39 -3.8298096e+35 3.2121257e+38)
(-3.8894342e+39 -6.223856e+37 1.0889668e+38)
(-3.9057788e+39 -2.0632078e+37 1.2403256e+38)
(-4.0789505e+39 -7.1400722e+37 3.0228398e+38)
(-3.8820543e+39 -5.3208017e+37 1.0923692e+38)
(-3.8884555e+39 -1.7924588e+37 1.0283365e+38)
(-4.0680598e+39 -7.2730108e+37 2.983933e+38)
(-4.0916785e+39 -1.2197002e+37 2.981036e+38)
(-3.9587188e+39 -2.1418447e+37 2.7795648e+37)
(-3.8245541e+39 -2.6477555e+37 -8.42649e+37)
(-3.81509e+39 -3.7892108e+37 -7.9376324e+37)
(-3.9447138e+39 -5.3626869e+37 3.1682762e+37)
(-3.9827893e+39 -2.1638241e+37 4.8480827e+37)
(-3.8248562e+39 -4.3858237e+37 -8.3720933e+37)
(-3.8316644e+39 -3.4259135e+37 -6.9373922e+37)
(-3.962639e+39 -5.7608822e+37 3.2977894e+37)
(-3.8980546e+39 -3.4109243e+37 -8.8014974e+37)
(-3.8196413e+39 -3.2275436e+37 -1.6542104e+38)
(-3.8318806e+39 -4.339388e+37 -1.4968126e+38)
(-3.8881812e+39 -4.2724149e+37 -1.0141188e+38)
(-3.916115e+39 -3.5150101e+37 -1.6372466e+38)
(-3.9267282e+39 -3.9420337e+37 -1.482413e+38)
(-3.8961332e+39 -4.570084e+37 -1.7634314e+38)
(-3.8770198e+39 -2.7172071e+37 -1.9750485e+38)
(-4.5096692e+39 -3.0204756e+37 -2.3525117e+38)
(-3.8768387e+39 -2.8858556e+37 -1.841203e+38)
(-3.8880981e+39 -3.4599145e+37 -1.8504612e+38)
(-3.9204807e+39 -2.977478e+37 -1.5438741e+38)
(-4.5637608e+39 -5.353561e+37 -2.1151003e+38)
(-3.9116875e+39 -3.7310843e+37 -1.5119624e+38)
(-3.8247962e+39 -3.3159346e+37 -1.5156875e+38)
(-3.8289365e+39 -3.0828148e+37 -1.5623074e+38)
(-3.8785751e+39 -2.6365578e+37 -1.0429833e+38)
(-3.8661206e+39 -3.8512441e+37 -1.0163415e+38)
(-4.4070362e+39 -4.7258704e+37 -3.1136241e+38)
(-4.3795025e+39 -2.7837689e+37 -3.3380865e+38)
(-3.8819709e+39 -1.906192e+37 -9.6584376e+37)
(-3.8217311e+39 -1.8394756e+37 -1.6350549e+38)
(-3.8238827e+39 -2.782368e+37 -1.5638365e+38)
(-3.8817475e+39 -2.8373275e+37 -1.0311676e+38)
(-3.8747008e+39 -1.1217846e+37 -1.9618924e+38)
(-3.8820582e+39 -3.0461509e+37 -1.841458e+38)
(-3.9136959e+39 -2.0324153e+37 -1.6279438e+38)
(-3.9128698e+39 -2.4390355e+37 -1.5525488e+38)
(-4.5146528e+39 -1.7689282e+37 -2.2884079e+38)
(-3.8955055e+39 -1.8293474e+37 -1.705607e+38)
(-3.8993878e+39 -1.9822587e+37 -1.7546719e+38)
(-3.9372061e+39 -1.6389407e+37 -1.4387408e+38)
(-4.5694215e+39 -3.8581641e+37 -2.0463256e+38)
(-3.9354999e+39 -2.9100253e+37 -1.3675917e+38)
(-3.8400507e+39 -3.014938e+37 -1.3714308e+38)
(-3.8914886e+39 -1.5750722e+37 -9.3617831e+37)
(-3.8419162e+39 -1.8294741e+37 -1.4504976e+38)
(-3.8821513e+39 -3.8864357e+37 -8.8179547e+37)
(-4.4340014e+39 -2.4028289e+37 -3.0281519e+38)
(-4.3704904e+39 -9.808769e+36 -3.261039e+38)
(-4.0761983e+39 -6.145395e+35 2.9701012e+38)
(-3.8927945e+39 -5.0115353e+37 1.2553562e+38)
(-3.8951662e+39 -2.7335977e+36 1.1460282e+38)
(-4.0519649e+39 -6.452454e+37 3.0156755e+38)
(-4.0822475e+39 5.3272328e+36 3.0177617e+38)
(-3.8874014e+39 -4.3356746e+37 1.0398e+38)
(-3.8919277e+39 -6.0082688e+36 1.1192555e+38)
(-4.067075e+39 -5.5505197e+37 2.8676186e+38)
(-3.9649339e+39 -6.3533286e+36 3.8170932e+37)
(-3.8151136e+39 -1.7091149e+37 -7.5373664e+37)
(-3.8202057e+39 -2.8845709e+37 -8.287715e+37)
(-3.957958e+39 -3.992179e+37 2.904005e+37)
(-3.8276314e+39 -4.0202545e+37 -6.339324e+37)
(-3.8338518e+39 -1.3382417e+37 -7.0986356e+37)
(-3.9595334e+39 -9.2775079e+36 3.7573691e+37)
(-3.9464623e+39 -5.4086815e+37 4.4304776e+37)
(-4.3669292e+39 3.2871461e+37 -5.3833797e+38)
(-4.9725611e+39 3.2418997e+37 -2.0516786e+38)
(-4.3673079e+39 -6.0621391e+37 -5.3535821e+38)
(-4.9623827e+39 -5.8546984e+37 -2.0440413e+38)
(-4.0631521e+39 -1.5828156e+36 -4.2872677e+38)
(-4.5352945e+39 -1.6394521e+37 -3.2930837e+38)
(-4.5625678e+39 -4.3918837e+37 -2.8881624e+38)
(-4.0836961e+39 -3.9480427e+37 -4.2381549e+38)
(-4.0846542e+39 2.9509753e+36 -4.2465736e+38)
(-4.5274297e+39 -6.1199302e+36 -3.1441328e+38)
(-4.5664574e+39 -3.5689741e+37 -2.8934851e+38)
(-4.0892983e+39 -3.3056431e+37 -4.2906152e+38)
(-3.171562e+39 -1.994648e+37 -6.2705884e+37)
(-3.2985171e+39 -1.2818727e+37 1.2690265e+37)
(-3.1371467e+39 -2.0745316e+37 -9.7017255e+37)
(-3.2227866e+39 -1.8272884e+37 -6.8247116e+37)
(-3.1463777e+39 -2.6043895e+37 -9.8566792e+37)
(-3.2291203e+39 -2.8810441e+37 -7.0755444e+37)
(-4.1697191e+39 -3.5390911e+37 -5.174819e+38)
(-4.5113691e+39 9.6085793e+36 -2.5810765e+38)
(-4.5459392e+39 -4.8873477e+37 -2.726214e+38)
(-3.9827707e+39 -1.8596391e+37 -3.6984923e+38)
(-3.9858383e+39 -4.6324789e+37 -3.8307254e+38)
(-4.334823e+39 6.4933631e+36 -2.9713452e+38)
(-4.0598835e+39 8.957439e+36 -4.937821e+38)
(-4.0729e+39 9.6604935e+35 -4.9279628e+38)
(-4.3179374e+39 -1.0594813e+36 -3.3083719e+38)
(-4.1808165e+39 -8.2609818e+36 -2.4929324e+38)
(-4.1405543e+39 -7.4112874e+36 -3.3662354e+38)
(-4.1398199e+39 -8.3302734e+36 -3.5202158e+38)
(-4.1605484e+39 -5.1658076e+35 -2.8224931e+38)
(-4.1772247e+39 -2.9111963e+37 -2.7144102e+38)
(-4.1353278e+39 -2.1342803e+37 -3.6628752e+38)
(-4.1143784e+39 -1.171444e+37 -3.2538785e+38)
(-4.1579633e+39 -1.8595368e+37 -2.5230677e+38)
(-4.0609697e+39 -1.0553021e+37 -5.1225387e+38)
(-4.307678e+39 -2.0115949e+37 -3.5321758e+38)
(-4.3159583e+39 -2.1194399e+37 -2.7989877e+38)
(-4.0301167e+39 -1.6834989e+37 -2.4643646e+38)
(-4.0447734e+39 -2.9099923e+37 -2.609795e+38)
(-4.0554544e+39 -2.4518563e+37 -2.0995917e+38)
(-4.0194201e+39 -2.0409222e+37 -2.1070925e+38)
(-4.0515327e+39 -1.3431374e+37 -2.4176029e+38)
(-4.0494488e+39 -6.3460635e+36 -2.5495333e+38)
(-4.0435063e+39 -1.0204035e+37 -1.9926709e+38)
(-4.0334563e+39 -7.7513101e+36 -2.1678272e+38)
(-3.9543166e+39 -1.423831e+37 -1.858064e+38)
(-3.9486691e+39 -9.2574801e+36 -1.994372e+38)
(-3.9436569e+39 -1.519368e+37 -1.7144502e+38)
(-3.9476202e+39 -1.3343117e+37 -1.786291e+38)
(-3.9547733e+39 -2.5240886e+37 -2.0507511e+38)
(-3.928333e+39 -2.0132487e+37 -2.0155097e+38)
(-3.9563422e+39 -2.0238689e+37 -1.8318956e+38)
(-3.9259486e+39 -2.1045024e+37 -1.8444895e+38)
(-3.1218175e+39 -2.2896225e+37 -1.1267637e+38)
(-3.193742e+39 -1.8404167e+37 -8.1212126e+37)
(-3.1286843e+39 -2.4043518e+37 -1.1431988e+38)
(-3.2016931e+39 -2.7511428e+37 -8.3155378e+37)
(-3.1578424e+39 -1.9287646e+37 -1.3381027e+38)
(-3.1487057e+39 -1.4431367e+37 -1.3694705e+38)
(-3.2018305e+39 -1.8665906e+37 -1.1924983e+38)
(-3.1541119e+39 -2.1001607e+37 -1.2321068e+38)
(-3.1994091e+39 -2.1601619e+37 -1.084749e+38)
(-3.1621852e+39 -1.9751345e+37 -1.2486498e+38)
(-3.2061259e+39 -2.3725836e+37 -1.1077184e+38)
(-3.1234032e+39 -2.024113e+37 -1.2357682e+38)
(-3.2020922e+39 -1.6067359e+37 -1.3417905e+38)
(-3.2378667e+39 -1.5162842e+37 -1.1780848e+38)
(-3.1941143e+39 -1.1667236e+37 -1.3976827e+38)
(-3.2286777e+39 -1.4887045e+37 -1.2163782e+38)
(-3.2021717e+39 -1.5494092e+37 -1.2322739e+38)
(-3.2333737e+39 -1.6934312e+37 -1.0765461e+38)
(-3.2066342e+39 -1.7362258e+37 -1.2637591e+38)
(-3.2421415e+39 -2.0521618e+37 -1.0981761e+38)
(-3.3133003e+39 -1.2472237e+37 -1.2327096e+38)
(-3.3195566e+39 -1.9617545e+37 -1.256749e+38)
(-3.3623342e+39 -9.8179863e+36 -1.5937838e+38)
(-3.3630019e+39 -1.9924994e+37 -1.6023634e+38)
(-3.3175247e+39 -1.2947207e+37 -1.3135331e+38)
(-3.3064875e+39 -1.2074801e+37 -1.3992587e+38)
(-3.347876e+39 -1.1177969e+37 -1.7713466e+38)
(-3.352198e+39 -1.1869837e+37 -1.7512849e+38)
(-3.3023859e+39 -8.9928443e+36 -1.3958057e+38)
(-3.3058657e+39 -8.2136693e+36 -1.3966079e+38)
(-3.3455394e+39 -7.0705047e+36 -1.7635598e+38)
(-3.3475824e+39 -7.3319237e+36 -1.7602153e+38)
(-3.1877337e+39 -1.0763463e+37 -1.3998944e+38)
(-3.2538089e+39 6.5905245e+36 2.8064009e+38)
(-3.2586313e+39 -2.9888761e+37 2.7370267e+38)
(-3.2396446e+39 -4.5820066e+37 2.9311965e+38)
(-3.2489549e+39 4.9963732e+36 2.8676276e+38)
(-3.2447441e+39 1.1680531e+34 2.9445269e+38)
(-3.2576621e+39 -4.4688886e+37 2.8892934e+38)
(-3.243958e+39 -1.5522014e+36 2.7196908e+38)
(-3.2328262e+39 -3.8807438e+37 2.7461496e+38)
(-3.2493731e+39 -4.17521e+37 2.7581835e+38)
(-3.2459753e+39 -2.6589597e+36 2.8519286e+38)
(-3.2339726e+39 -4.8304916e+37 2.908204e+38)
(-3.2448187e+39 -2.7122481e+36 2.8477038e+38)
(-3.2551253e+39 1.634844e+36 3.0800131e+38)
(-3.2661431e+39 -5.0834884e+37 2.9976238e+38)
(-3.2488573e+39 -1.2705842e+37 2.8213359e+38)
(-3.2405927e+39 -5.2978814e+37 2.877427e+38)
(-5.0623817e+39 -1.1781964e+38 -3.4101305e+38)
(-4.9747746e+39 -4.2355798e+37 -4.196744e+38)
(-4.4422669e+39 -5.3354189e+37 -5.3420215e+38)
(-3.5392692e+39 -7.7406171e+37 -6.6528024e+38)
(-3.5304428e+39 -1.4808177e+37 -6.6515597e+38)
(-4.3474711e+39 -5.5520318e+37 -3.5691696e+38)
(-4.3809063e+39 -1.2122207e+38 -3.7229738e+38)
(-4.4314469e+39 -8.2288844e+37 -5.2884279e+38)
(-3.5164987e+39 -2.1122707e+37 -6.5782997e+38)
(-3.5239072e+39 -8.8437486e+37 -6.6460066e+38)
(-3.0931905e+39 -3.8703038e+37 -7.7574327e+38)
(-3.0860456e+39 -5.7541304e+37 -7.80945e+38)
(-2.1621901e+39 -2.8786795e+37 -6.6214643e+38)
(-2.1606495e+39 -4.952578e+37 -6.7241529e+38)
(-1.5685001e+39 -3.8174621e+37 -7.2024057e+38)
(-1.5762247e+39 -2.2582328e+37 -7.0287985e+38)
(-1.1755148e+39 -1.4709263e+37 -3.2454779e+38)
(-1.6478591e+39 4.0555269e+37 2.0359158e+38)
(-1.2289505e+39 -1.6099557e+37 -2.5989241e+38)
(-1.6906964e+39 -1.4403632e+37 2.3876194e+38)
(-1.2142455e+39 -2.4652046e+37 -2.8044777e+38)
(-1.6853155e+39 -3.3770193e+37 2.250013e+38)
(-1.2175709e+39 -1.4014908e+37 -2.5583246e+38)
(-1.6779975e+39 2.9885116e+37 2.2708824e+38)
(-2.1580885e+39 -3.8047857e+37 -6.5838475e+38)
(-2.1579413e+39 -2.1801162e+37 -6.6374244e+38)
(-1.5741408e+39 -1.6487121e+37 -7.1163285e+38)
(-1.5697936e+39 -2.777686e+37 -7.0141317e+38)
(-3.1012542e+39 -3.4526971e+37 -7.8316488e+38)
(-3.1038599e+39 -5.2659766e+37 -7.807761e+38)
(-2.1741312e+39 -3.4249248e+37 -6.659524e+38)
(-2.1745615e+39 -1.7478503e+37 -6.7296015e+38)
(-1.5855552e+39 -1.3528819e+37 -7.1872569e+38)
(-1.5795027e+39 -2.634971e+37 -7.0780953e+38)
(-2.1732824e+39 -4.3045813e+37 -6.7116851e+38)
(-2.1732297e+39 -2.3525747e+37 -6.622805e+38)
(-1.5846845e+39 -1.8794741e+37 -7.044665e+38)
(-1.5780489e+39 -3.0971516e+37 -7.1998639e+38)
(-1.219306e+39 -2.9201653e+37 -2.9129075e+38)
(-1.2310586e+39 -2.5255552e+37 -2.5902435e+38)
(-1.706247e+39 -3.2555817e+35 2.3891363e+38)
(-1.6874651e+39 -4.92061e+37 2.2919737e+38)
(-1.7088418e+39 -3.6595977e+37 2.4255e+38)
(-1.6664945e+39 2.7635147e+37 2.1298086e+38)
(-1.2474569e+39 -2.5482664e+37 -2.5461975e+38)
(-1.1993847e+39 -1.9285797e+37 -3.1061497e+38)
(-4.2590449e+39 1.3034101e+37 -3.9968171e+38)
(-4.313954e+39 -9.0993833e+37 -4.1671579e+38)
(-4.4211327e+39 -6.0214843e+37 -5.5911112e+38)
(-3.5389415e+39 -6.9631275e+37 -6.9358041e+38)
(-3.5341462e+39 1.0216851e+37 -6.8536779e+38)
(-4.4087952e+39 1.4365074e+35 -5.5836485e+38)
(-3.532728e+39 -3.5953264e+37 -6.8460952e+38)
(-3.5262663e+39 3.8471002e+37 -6.8356114e+38)
(-3.0949468e+39 -1.6474223e+37 -7.9046543e+38)
(-3.0877293e+39 1.1483826e+37 -7.9397087e+38)
(-3.0990768e+39 -9.1888753e+36 -7.8991219e+38)
(-3.0970415e+39 -4.1124011e+37 -7.9988674e+38)
(-2.0686634e+39 2.650703e+37 -6.7004032e+38)
(-1.5772361e+39 2.35856e+37 -7.2561392e+38)
(-2.1733324e+39 3.6009651e+36 -6.745976e+38)
(-2.1746877e+39 2.5187719e+37 -6.8151211e+38)
(-1.5720016e+39 5.6768941e+36 -7.1445266e+38)
(-2.1764051e+39 -1.162325e+37 -6.7937035e+38)
(-2.1786365e+39 9.7091942e+36 -6.7083318e+38)
(-1.5786952e+39 1.3401956e+37 -7.1294327e+38)
(-1.5721076e+39 -4.1052818e+36 -7.2651932e+38)
(-1.2056977e+39 6.0227503e+36 -3.0559653e+38)
(-1.6982182e+39 -2.6031705e+37 2.2335258e+38)
(-1.224911e+39 4.4010892e+36 -2.6316275e+38)
(-1.7178196e+39 1.8508164e+37 2.330975e+38)
(-1.2345626e+39 7.3941212e+36 -2.6282381e+38)
(-1.7154354e+39 -2.335044e+37 2.3019317e+38)
(-1.6904223e+39 3.3585889e+37 2.2243291e+38)
(-1.2031322e+39 4.7814343e+36 -3.0029778e+38)
(-2.1782115e+39 6.071628e+36 -6.7674443e+38)
(-2.1807356e+39 -1.2643091e+37 -6.7286506e+38)
(-1.580811e+39 8.1087804e+36 -7.2230839e+38)
(-1.5800808e+39 -7.3784956e+36 -7.1394591e+38)
(-1.2157894e+39 -5.63925e+36 -2.8770897e+38)
(-1.7072404e+39 -3.7856127e+37 2.2821603e+38)
(-1.2234794e+39 -3.4885586e+36 -2.7018815e+38)
(-1.6978377e+39 2.5161459e+37 2.2453594e+38)
(-2.1864598e+39 -3.4304189e+37 -6.8998479e+38)
(-2.1859585e+39 -8.6707596e+36 -6.7881367e+38)
(-1.5882887e+39 -1.0045301e+36 -7.1739948e+38)
(-1.586559e+39 -2.3526282e+37 -7.3426817e+38)
(-1.2372269e+39 -2.660995e+36 -2.7263269e+38)
(-1.1940671e+39 -1.3177168e+37 -3.2881621e+38)
(-1.7007609e+39 -1.3401834e+37 2.2818277e+38)
(-1.6594316e+39 2.19522e+37 2.0569408e+38)
(-2.2663511e+39 -8.3169619e+36 3.1545245e+38)
(-2.2973761e+39 -4.2240969e+37 3.4799293e+38)
(-2.9771859e+39 -4.9333306e+36 3.7022796e+38)
(-2.9721376e+39 -3.1032701e+37 3.5755207e+38)
(-2.2872935e+39 -1.7385165e+36 3.306038e+38)
(-2.2769316e+39 -3.3202705e+37 3.1808098e+38)
(-2.9808174e+39 -1.8642243e+37 3.5032494e+38)
(-2.9847136e+39 -4.2528786e+37 3.5643246e+38)
(-2.2682025e+39 -4.5223894e+37 3.2074685e+38)
(-2.9707322e+39 -5.872713e+36 3.4023222e+38)
(-2.2798596e+39 3.5538366e+36 3.2415592e+38)
(-2.9834753e+39 -2.1060412e+37 3.5010457e+38)
(-2.9649664e+39 1.8722737e+36 3.4978082e+38)
(-2.2655814e+39 2.9719326e+36 3.182777e+38)
(-2.2156878e+39 1.5962049e+37 2.961774e+38)
(-2.946211e+39 -3.2985393e+37 3.3617737e+38)
(-2.283183e+39 -9.5975061e+35 3.2414802e+38)
(-2.2725969e+39 -3.5673539e+37 3.2900801e+38)
(-2.9716504e+39 3.0783226e+36 3.4950362e+38)
(-2.9853917e+39 -1.9874769e+37 3.581473e+38)
(-2.2348318e+39 2.7039462e+37 3.0507799e+38)
(-2.2734087e+39 -8.7548368e+36 3.2250513e+38)
(-2.981784e+39 -8.4885297e+35 3.4630833e+38)
(-2.9670397e+39 -2.4003766e+37 3.3470869e+38)
(-2.2613989e+39 -2.0430791e+37 3.2332808e+38)
(-2.2726144e+39 1.2090661e+37 3.1857547e+38)
(-2.981184e+39 6.8712512e+36 3.52382e+38)
(-2.9787736e+39 -1.3759317e+37 3.4743057e+38)
(-2.2719604e+39 1.6761704e+37 3.2608909e+38)
(-2.1818438e+39 1.3427104e+37 2.7316394e+38)
(-2.9803596e+39 2.5103727e+36 3.6752692e+38)
(-2.9502406e+39 -3.7290238e+37 3.3855486e+38)
(-2.2416228e+39 1.1812241e+37 3.0615539e+38)
(-2.2650378e+39 -1.5584448e+37 3.0912139e+38)
(-2.9785882e+39 -7.607663e+36 3.4401486e+38)
(-2.9672547e+39 -3.7087475e+37 3.3700795e+38)
(-2.3144195e+39 -7.301284e+36 3.3636018e+38)
(-2.2874085e+39 -4.1046119e+37 3.2494304e+38)
(-2.9704982e+39 -6.8469579e+36 3.4617912e+38)
(-2.9965446e+39 -2.7934343e+37 3.646046e+38)
(-2.2603944e+39 -3.7079455e+37 3.1802706e+38)
(-2.286585e+39 1.1036252e+36 3.2850352e+38)
(-2.9781244e+39 -3.7468461e+36 3.4968466e+38)
(-2.9862502e+39 -2.2537831e+37 3.5724055e+38)
(-2.2551745e+39 -2.8515338e+36 3.2310198e+38)
(-2.2728311e+39 -6.3869298e+36 3.2367361e+38)
(-2.9697549e+39 -4.4717872e+36 3.6126278e+38)
(-2.9572385e+39 -4.5618273e+37 3.5430272e+38)
(-2.3170329e+39 -5.2408591e+36 3.4082182e+38)
(-2.2922985e+39 -1.5670506e+37 3.3474786e+38)
(-2.9835582e+39 2.3526049e+36 3.6723973e+38)
(-2.9998683e+39 -2.8921507e+37 3.7839334e+38)
(-2.9958566e+39 -1.7355111e+37 3.5805982e+38)
(-2.2891257e+39 -2.1516608e+37 3.1823131e+38)
(-2.2796341e+39 4.2175924e+36 3.2273224e+38)
(-2.9910607e+39 -4.5030296e+37 3.5373784e+38)
(-2.2977688e+39 -1.546493e+37 3.2756051e+38)
(-2.2567371e+39 -4.7908425e+37 3.0958349e+38)
(-2.9804122e+39 -1.4966316e+37 3.4616236e+38)
(-2.9844369e+39 -3.3949038e+37 3.4830731e+38)
(-2.2527559e+39 1.432275e+37 3.1410581e+38)
(-2.2820953e+39 -1.5761853e+37 3.2428478e+38)
(-2.9833186e+39 -1.2397653e+37 3.6437496e+38)
(-2.9642256e+39 -4.4761771e+37 3.4888466e+38)
(-4.7835232e+39 -1.3306791e+37 -4.9882197e+38)
(-3.5118175e+39 -5.2292759e+36 -1.5597029e+38)
(-3.4835395e+39 -7.1520568e+36 -1.7789529e+38)
(-3.4615204e+39 -2.088779e+37 -1.9874008e+38)
(-3.4932098e+39 -2.006831e+37 -1.6966996e+38)
(-3.5750803e+39 -1.1010253e+37 -1.8333179e+38)
(-3.5776291e+39 -1.227842e+37 -1.9279073e+38)
(-3.5507101e+39 -2.1156618e+37 -2.0506872e+38)
(-3.8736735e+39 -4.6659965e+37 -1.7225899e+38)
(-4.5436425e+39 -8.1765477e+37 -1.9816448e+38)
(-3.907034e+39 -5.5324847e+37 -1.3812779e+38)
(-3.8180641e+39 -4.9986578e+37 -1.3840664e+38)
(-4.401421e+39 -6.8183852e+37 -2.9041833e+38)
(-4.9990462e+39 -5.3500015e+37 -1.987197e+38)
(-4.3449291e+39 2.5039853e+37 -5.2220767e+38)
(-4.3668061e+39 -5.0466968e+37 -5.2960015e+38)
(-4.5441975e+39 -7.3140012e+37 -2.858899e+38)
(-4.0913144e+39 -5.832121e+37 -4.2000495e+38)
(-3.3086649e+39 -7.1114998e+36 2.2544632e+38)
(-3.4670442e+39 4.5699561e+36 3.5632619e+38)
(-3.3156326e+39 -5.2963203e+37 2.1810518e+38)
(-3.4761661e+39 -5.2192766e+37 3.4832773e+38)
(-3.2624837e+39 -2.1256016e+37 3.4000468e+37)
(-3.2519049e+39 -4.2410041e+37 3.5304141e+37)
(-3.3926904e+39 -2.0565016e+37 1.3802116e+38)
(-3.3818739e+39 -5.2687376e+37 1.4041676e+38)
(-3.272119e+39 -1.765906e+37 5.0739679e+37)
(-3.406136e+39 -9.5537482e+36 1.5860999e+38)
(-3.2831602e+39 -4.5013773e+37 4.6912368e+37)
(-3.4115836e+39 -4.8636482e+37 1.5291125e+38)
(-3.2949533e+39 -1.457789e+37 2.0184891e+38)
(-3.4603535e+39 -1.4972875e+37 3.2923691e+38)
(-3.2894581e+39 -5.2094331e+37 2.0653862e+38)
(-3.4492339e+39 -6.1081641e+37 3.3270933e+38)
(-3.2634595e+39 -9.9512559e+36 3.5023008e+37)
(-3.2549746e+39 -3.3904982e+37 3.866641e+37)
(-3.3912749e+39 -9.319552e+36 1.3797742e+38)
(-3.3832386e+39 -4.3939943e+37 1.430649e+38)
(-3.2590762e+39 -1.5559229e+37 3.2886267e+37)
(-3.3954883e+39 -9.3442764e+36 1.3841666e+38)
(-3.270656e+39 -3.3758215e+37 3.1472642e+37)
(-3.4027078e+39 -3.900701e+37 1.356279e+38)
(-3.2937407e+39 -2.3973147e+36 2.0308756e+38)
(-3.2891771e+39 -4.4060187e+37 2.1119887e+38)
(-3.4573333e+39 -6.6370896e+36 3.3042147e+38)
(-3.4436494e+39 -5.5956905e+37 3.3640675e+38)
(-3.4593112e+39 -7.423233e+35 3.3138702e+38)
(-3.2961139e+39 -6.4916861e+36 2.0180702e+38)
(-3.3028399e+39 -4.1346453e+37 1.9792269e+38)
(-3.4628913e+39 -4.5940414e+37 3.2444173e+38)
(-3.1738373e+39 -2.1979013e+37 -6.7346342e+37)
(-3.299896e+39 -1.6505986e+37 5.739688e+36)
(-3.1838302e+39 -2.8891078e+37 -6.7789937e+37)
(-3.3103906e+39 -3.3570546e+37 4.5807e+36)
(-3.1358264e+39 -2.3855999e+37 -9.9985314e+37)
(-3.1490559e+39 -2.6964043e+37 -1.000453e+38)
(-3.2212638e+39 -2.1849235e+37 -7.3519614e+37)
(-3.231418e+39 -2.9332158e+37 -7.4520223e+37)
(-3.1436082e+39 -1.8803024e+37 -9.5942685e+37)
(-3.1354808e+39 -2.5793515e+37 -9.5855999e+37)
(-3.2262891e+39 -1.8092818e+37 -7.0901273e+37)
(-3.2168242e+39 -2.9554848e+37 -6.9918376e+37)
(-3.1777234e+39 -1.5626544e+37 -6.3750537e+37)
(-3.1720938e+39 -2.811941e+37 -6.1717696e+37)
(-3.3018502e+39 -1.346246e+37 6.6451032e+36)
(-3.2915397e+39 -3.4539442e+37 8.6426072e+36)
(-3.185575e+39 -2.7173028e+37 -5.234023e+37)
(-3.3126913e+39 -1.9380947e+37 2.2065623e+37)
(-3.1949273e+39 -3.9994083e+37 -5.5271708e+37)
(-3.3215523e+39 -4.3651248e+37 1.8719144e+37)
(-3.138148e+39 -2.9326387e+37 -9.9913176e+37)
(-3.1270426e+39 -3.2761387e+37 -1.0229869e+38)
(-3.2223131e+39 -2.767255e+37 -7.2500494e+37)
(-3.2125025e+39 -3.7270578e+37 -7.346406e+37)
(-3.146801e+39 -3.0099023e+37 -8.5010102e+37)
(-3.2350309e+39 -2.6732121e+37 -5.7396583e+37)
(-3.1580459e+39 -3.8217012e+37 -8.8121761e+37)
(-3.2435985e+39 -4.0118206e+37 -6.0581671e+37)
(-3.1740766e+39 -2.638244e+37 -6.6295817e+37)
(-3.1661094e+39 -3.619497e+37 -6.6451299e+37)
(-3.3002016e+39 -2.3424475e+37 5.5966659e+36)
(-3.2881599e+39 -4.2545677e+37 5.385375e+36)
(-3.1261673e+39 -3.4176912e+37 -9.9290547e+37)
(-3.201685e+39 -2.8886832e+37 -6.8144649e+37)
(-3.135834e+39 -3.8294059e+37 -1.0329467e+38)
(-3.2120223e+39 -4.1036252e+37 -7.1711043e+37)
(-3.1453716e+39 -3.4470623e+37 -1.2649806e+38)
(-3.1342336e+39 -2.7476082e+37 -1.3255986e+38)
(-3.1921346e+39 -3.1843134e+37 -1.112485e+38)
(-3.1818185e+39 -3.0925838e+37 -1.1533994e+38)
(-3.1543429e+39 -3.4776075e+37 -1.0814381e+38)
(-3.2021115e+39 -3.3658135e+37 -9.4792336e+37)
(-3.1658823e+39 -3.6914261e+37 -1.1346366e+38)
(-3.211458e+39 -3.929906e+37 -9.9571889e+37)
(-3.1156413e+39 -3.2020999e+37 -1.1501928e+38)
(-3.1061692e+39 -3.0318258e+37 -1.1881405e+38)
(-3.1916948e+39 -2.7997481e+37 -8.4691548e+37)
(-3.1804444e+39 -3.4833819e+37 -8.7679748e+37)
(-3.185623e+39 -3.4752259e+37 -1.2935484e+38)
(-3.2236235e+39 -3.2021185e+37 -1.1208996e+38)
(-3.174896e+39 -2.6127113e+37 -1.3795929e+38)
(-3.2123418e+39 -2.9199741e+37 -1.1872211e+38)
(-3.1983738e+39 -3.3215412e+37 -1.0653161e+38)
(-3.2338855e+39 -3.265334e+37 -9.2419771e+37)
(-3.2078606e+39 -3.822678e+37 -1.1465932e+38)
(-3.2452035e+39 -3.9733158e+37 -9.8756829e+37)
(-3.3137989e+39 -3.0544131e+37 -1.0228965e+38)
(-3.322463e+39 -4.1941542e+37 -1.1195903e+38)