/*--------------------------------*- C++ -*----------------------------------*\
  =========                 |
  \\      /  F ield         | OpenFOAM: The Open Source CFD Toolbox
   \\    /   O peration     | Website:  https://openfoam.org
    \\  /    A nd           | Version:  7
     \\/     M anipulation  |
\*---------------------------------------------------------------------------*/
FoamFile
{
    version     2.0;
    format      ascii;
    class       volScalarField;
    location    "3000";
    object      nut;
}
// * * * * * * * * * * * * * * * * * * * * * * * * * * * * * * * * * * * * * //

dimensions      [0 2 -1 0 0 0 0];

internalField   nonuniform List<scalar> 
33730
(
3.2668738e-18
3.2633044e-19
3.2900277e-19
2.5167931e-20
2.3576839e-20
5.9940489e-20
2.1641914e-18
5.8701695e-20
2.1496337e-18
2.1610737e-19
1.888851e-19
7.4357375e-20
1.2454336e-19
2.287095e-19
1.3605134e-19
1.7023974e-19
2.1039783e-19
1.4223546e-20
6.1522409e-21
2.7116695e-20
1.3192244e-20
2.7140638e-20
5.9622019e-21
5.800835e-20
5.5561205e-20
5.6163686e-20
5.4869718e-20
1.6493095e-19
1.9397524e-20
1.7771395e-20
1.5580197e-19
1.2492338e-19
1.2887638e-19
1.1138471e-18
1.1149888e-18
1.2411051e-19
1.466098e-20
1.6553496e-20
1.7332522e-19
1.2365523e-19
1.2762159e-19
1.1531004e-18
1.1478606e-18
9.1880769e-20
1.154875e-19
9.6176488e-20
1.1454397e-19
8.0630232e-20
8.6286619e-20
8.7317169e-20
6.795934e-20
1.0940966e-19
9.5896659e-20
8.9735731e-20
8.948278e-20
8.3454913e-20
9.2831102e-20
1.0648056e-19
1.1355519e-19
2.8714494e-20
1.8830839e-20
1.6480647e-20
1.4502439e-20
9.164187e-21
2.9953176e-20
1.8044749e-20
6.4520199e-21
1.0724828e-20
3.6627235e-20
6.1637859e-20
6.1190763e-20
3.5591853e-20
6.4891566e-21
6.2483829e-21
6.5655951e-21
3.3911204e-20
1.8160147e-20
1.8726249e-20
3.2660042e-20
4.54331e-20
4.5738174e-20
3.6520904e-20
3.3905938e-20
4.0566605e-21
4.2769693e-21
6.1625303e-21
5.0329859e-20
5.16792e-20
4.5668895e-20
4.5200612e-20
4.7266859e-20
4.6282073e-20
4.9606096e-20
4.6764438e-20
2.1276257e-20
2.0475969e-20
4.2957667e-20
2.5962115e-20
2.6660458e-20
3.9971957e-20
5.7019109e-20
8.7127081e-20
5.497304e-20
8.5163397e-20
5.8427383e-20
5.4659882e-20
8.7272928e-20
9.3872087e-20
1.095743e-19
1.0820276e-19
4.4391362e-19
3.9756832e-19
1.0325846e-19
1.0407798e-19
4.2089676e-19
4.4496183e-19
4.5124099e-20
2.5210952e-20
3.0252761e-20
4.221099e-20
5.9127159e-20
5.4955874e-20
8.3964332e-20
9.3562638e-20
5.8128685e-20
5.8607738e-20
9.3351697e-20
8.8196548e-20
1.1503626e-19
1.1282846e-19
4.4237761e-19
4.6550698e-19
1.0981622e-19
1.0743526e-19
4.5360063e-19
4.3291944e-19
4.1059609e-20
3.9228426e-20
4.1424699e-20
4.1188993e-20
4.1499063e-20
4.2481087e-20
4.5419434e-20
4.4248148e-20
3.6796707e-20
3.971054e-20
3.4240878e-20
3.7872075e-20
3.9151029e-20
4.0109775e-20
4.1357531e-20
4.0654146e-20
4.1352535e-20
4.1293601e-20
4.3074258e-20
4.3468213e-20
3.734777e-20
3.996441e-20
3.8361186e-20
4.140892e-20
3.7811673e-20
4.0630822e-20
3.8242183e-20
3.5004824e-20
3.8498793e-20
3.9587315e-20
3.8814194e-20
4.0442079e-20
1.9489653e-20
1.9508405e-20
1.7371651e-20
1.7559869e-20
1.5920278e-20
1.451967e-20
1.6593486e-20
1.6542564e-20
1.4838373e-20
1.4582859e-20
8.8225404e-21
1.2244719e-20
1.171624e-20
1.3771848e-20
1.2910117e-20
8.5723676e-21
9.4552606e-21
1.0255059e-20
1.1889466e-20
1.1007399e-20
1.3541772e-20
1.2191633e-20
2.1680935e-20
2.0260368e-20
1.8825796e-20
1.9434057e-20
1.7223789e-20
1.5185514e-20
1.4566445e-20
1.546184e-20
8.5004812e-21
9.2564679e-21
9.2478316e-21
1.1034953e-20
1.0498058e-20
1.0810169e-20
1.2098326e-20
4.453926e-20
4.1740798e-20
4.1136082e-20
4.3850734e-20
3.062787e-20
2.8454696e-20
2.8011663e-20
2.9658957e-20
2.7439871e-20
2.665593e-20
2.7431539e-20
2.5488291e-20
4.2271795e-20
4.3559649e-20
4.7534834e-20
4.7096535e-20
4.1084186e-21
4.1089448e-21
1.3303193e-20
1.4404685e-20
1.0783848e-20
1.1338759e-20
9.901272e-21
8.8880489e-21
4.6445043e-21
6.0874776e-21
6.9028081e-21
4.4335949e-21
4.1700883e-21
6.1479356e-21
6.4886191e-21
4.2414592e-21
2.4508349e-20
2.0343073e-20
2.0971485e-20
2.3100157e-20
1.9538799e-20
1.5187534e-20
1.5817561e-20
1.7705334e-20
1.5318884e-20
1.999285e-20
1.8296324e-20
1.5682144e-20
2.1813289e-20
2.2936359e-20
2.0462999e-20
2.0348569e-20
2.7473445e-20
2.4937031e-20
2.5935306e-20
2.6290186e-20
2.4154418e-20
2.4713024e-20
2.4412969e-20
2.3993048e-20
4.3156904e-20
5.3690024e-20
4.6718095e-20
5.4938046e-20
3.9295751e-20
4.0292429e-20
4.8905014e-20
4.4133158e-20
2.2517136e-21
3.7408501e-21
5.0178479e-21
5.5760982e-21
5.1929555e-21
4.0167756e-21
3.5036924e-21
2.3997514e-21
3.6621487e-21
2.319471e-21
2.6617482e-20
2.6111463e-20
2.8169134e-20
2.6659469e-20
2.5345663e-20
2.5574217e-20
2.439242e-20
2.486742e-20
2.4586588e-20
2.5440185e-20
2.535225e-20
2.3502578e-20
2.6421179e-20
2.6075056e-20
2.5565584e-20
2.4434607e-20
2.9440511e-20
3.1736076e-20
1.1503505e-19
6.7833326e-20
6.6628159e-20
4.3320254e-20
3.2674844e-20
9.6616402e-20
6.4427023e-20
6.7839654e-20
3.488264e-20
3.4910604e-20
3.5471193e-20
3.5909617e-20
4.9636032e-20
5.287189e-20
3.6486586e-20
3.5482012e-20
4.9404328e-20
5.0739963e-20
3.7257864e-20
3.7200126e-20
9.168695e-20
9.6401449e-20
3.2181544e-20
3.4665671e-20
3.4813555e-20
9.4384511e-20
3.5093748e-20
9.0636679e-20
5.0436812e-20
5.3451208e-20
3.6171467e-20
3.5289634e-20
5.2512417e-20
5.191783e-20
3.6419352e-20
3.6081641e-20
9.2640067e-20
9.8270891e-20
3.3078605e-20
3.4927622e-20
9.8098291e-20
9.7331623e-20
3.4417907e-20
3.3569724e-20
1.2991635e-19
6.8955011e-20
6.7172722e-20
4.6722493e-20
4.3224376e-20
1.0162617e-19
6.8898386e-20
6.8883274e-20
3.6498079e-20
3.617493e-20
3.6058762e-20
3.5582177e-20
5.1036522e-20
5.3498854e-20
3.7679461e-20
3.6748124e-20
5.3016055e-20
5.1961087e-20
3.657514e-20
3.5971766e-20
3.5553394e-20
8.9669371e-20
9.5378047e-20
3.7084354e-20
9.3282465e-20
9.7288132e-20
3.6576054e-20
3.5345842e-20
5.0297492e-20
5.3468286e-20
3.5455296e-20
3.6040083e-20
5.1999319e-20
5.1870812e-20
3.6054176e-20
3.5767637e-20
3.4677596e-20
9.2187096e-20
9.8691427e-20
3.5636052e-20
9.8989795e-20
9.7591381e-20
3.4600481e-20
3.3149235e-20
4.2319936e-20
3.9304355e-20
1.0973188e-20
1.2031254e-20
4.4612224e-20
4.5168045e-20
1.1778608e-20
1.1479613e-20
4.5377242e-20
4.1765715e-20
1.1253981e-20
1.1869539e-20
4.3115966e-20
4.2504778e-20
1.3268827e-20
1.3382693e-20
4.0850127e-20
3.6656888e-20
1.0382584e-20
1.1422536e-20
4.1635325e-20
4.3147893e-20
1.1631872e-20
1.1438915e-20
3.9892515e-20
3.7706476e-20
1.0345708e-20
1.1259167e-20
4.3997878e-20
4.3194723e-20
1.1624193e-20
1.1383887e-20
4.3716939e-20
4.1379192e-20
1.0980595e-20
1.1805122e-20
4.4744801e-20
4.5050346e-20
1.215621e-20
1.1749269e-20
4.0894539e-20
3.880668e-20
1.0098434e-20
1.131757e-20
4.388708e-20
4.4697428e-20
1.1335378e-20
1.1201376e-20
3.8881748e-20
3.4609237e-20
1.0827666e-20
1.1132673e-20
3.6752137e-20
3.9353981e-20
1.1689626e-20
1.0200095e-20
3.9744743e-20
3.5998493e-20
1.1181834e-20
1.2115403e-20
4.257264e-20
4.4688804e-20
1.1551041e-20
1.1203658e-20
8.9965744e-21
1.645644e-20
1.6367433e-20
1.4899294e-20
1.4867186e-20
1.7019864e-20
1.5533533e-20
1.7445553e-20
1.5934712e-20
1.7927083e-20
1.4679097e-20
1.776613e-20
1.4576779e-20
1.8568175e-20
1.5259871e-20
1.9089752e-20
1.5662467e-20
9.7937619e-21
1.2280294e-20
1.3762726e-20
1.159539e-20
1.4482953e-20
1.1346452e-20
8.9769423e-21
1.2100929e-20
1.5725547e-20
1.3146925e-20
1.2595424e-20
1.1857019e-20
1.2876504e-20
1.2009895e-20
1.3071599e-20
1.2373311e-20
1.3824656e-20
1.2943561e-20
9.2401908e-21
9.7157096e-21
1.0828499e-20
1.1343435e-20
1.2148752e-20
8.7710817e-21
8.9114956e-21
1.0649711e-20
1.035766e-20
1.0882904e-20
1.4472923e-20
1.5760232e-20
1.7267953e-20
2.0369902e-20
1.6588939e-20
2.0841979e-20
1.6587458e-20
1.2732208e-20
1.3276041e-20
1.7306143e-20
1.9558731e-20
2.2433449e-20
1.8781175e-20
2.3165066e-20
1.9127103e-20
1.4338753e-20
2.0275698e-20
1.4888776e-20
3.4129836e-20
3.3175075e-20
2.3025772e-20
2.3576978e-20
2.6482573e-20
2.7568832e-20
4.0772145e-20
4.0224487e-20
1.9867783e-20
7.1688492e-21
8.5868467e-21
7.9953092e-21
7.607926e-21
2.1900812e-20
8.2612738e-21
8.1528302e-21
7.5387005e-21
8.0403305e-21
7.6641919e-21
7.169549e-21
6.9041936e-21
7.3849329e-21
1.8314882e-20
1.8704513e-20
1.6402964e-20
1.6927599e-20
1.748518e-20
1.6004771e-20
1.8343543e-20
1.6905518e-20
1.9032401e-20
1.5692879e-20
2.0206291e-20
1.6587835e-20
1.9697457e-20
1.6074433e-20
2.0261075e-20
1.6536745e-20
1.4085488e-20
1.3137702e-20
1.4689164e-20
1.3658213e-20
9.9129064e-21
1.0338978e-20
1.2060272e-20
1.1577877e-20
1.1658278e-20
9.3017077e-21
1.0007074e-20
1.1634419e-20
1.105035e-20
1.1436618e-20
1.2875085e-20
1.2464216e-20
1.3987973e-20
1.3424525e-20
1.327825e-20
1.3508253e-20
1.0776483e-20
1.0597689e-20
1.1538449e-20
1.144545e-20
1.0840182e-20
1.2748067e-20
1.6456328e-20
1.2049654e-20
6.1786513e-21
6.0914964e-21
6.0943971e-21
6.1153449e-21
6.1054077e-21
6.0343005e-21
6.4267892e-21
6.5584077e-21
6.5169225e-21
6.2457828e-21
5.4304624e-21
5.965469e-21
6.3575922e-21
7.1046532e-21
7.2719679e-21
6.4574006e-21
9.2005561e-21
7.9752954e-21
5.7926335e-21
4.2493588e-21
1.4429415e-20
1.6223645e-20
1.8717028e-20
2.2686145e-20
2.2853004e-20
1.7474155e-20
1.7718561e-20
1.8904128e-20
1.9886783e-20
1.7619055e-20
1.8083265e-20
1.9568482e-20
1.7772746e-20
1.9558416e-20
1.7615079e-20
2.1933385e-20
1.7350429e-20
2.2589478e-20
1.7609046e-20
2.0519585e-20
1.5995792e-20
2.0007061e-20
1.5565125e-20
2.0193908e-20
2.0980819e-20
1.7402752e-20
1.802612e-20
2.0693948e-20
1.8200074e-20
2.0237327e-20
1.7659186e-20
1.9283688e-20
1.5296227e-20
1.9976308e-20
1.5727826e-20
1.9837902e-20
1.9855397e-20
1.5340443e-20
1.5289154e-20
1.914574e-20
1.615556e-20
2.0468116e-20
1.7065447e-20
2.1073759e-20
1.7904562e-20
2.0945775e-20
1.7859812e-20
1.7699457e-20
1.4063539e-20
1.8653299e-20
1.4650732e-20
1.9986594e-20
1.9718836e-20
1.8701671e-20
1.82624e-20
1.9961027e-20
1.8893638e-20
2.0732506e-20
1.9205948e-20
2.4074464e-20
1.9099193e-20
1.9500795e-20
2.4722994e-20
2.4223457e-20
2.4304147e-20
1.9397864e-20
1.9227988e-20
2.2122821e-21
2.1352796e-21
3.3627916e-21
2.8676368e-21
2.1377108e-21
2.1391661e-21
3.1931703e-21
3.6424084e-21
2.8266194e-21
3.1042568e-21
1.2487637e-20
1.1545306e-20
1.3513178e-20
1.3255432e-20
1.498083e-20
1.091155e-20
1.3623631e-20
1.0855321e-20
1.2936837e-20
1.3974017e-20
1.1716737e-20
1.0921316e-20
1.3520151e-20
1.3238002e-20
1.1746923e-20
1.1598475e-20
5.2313891e-21
5.9171122e-21
4.518797e-21
4.2247352e-21
2.4604842e-21
3.2052142e-21
3.7295286e-21
2.3709399e-21
3.5593483e-21
3.6121707e-21
2.2582842e-21
2.2501281e-21
4.3361442e-21
4.0611411e-21
4.6096308e-21
4.1232484e-21
5.0134221e-21
4.873523e-21
3.995455e-21
3.9549759e-21
3.2698841e-21
2.1995328e-21
3.7484602e-21
2.3141348e-21
3.3065164e-21
3.2837421e-21
2.1713728e-21
2.2605485e-21
4.4974191e-21
4.0759208e-21
3.9347579e-21
4.0978587e-21
1.9859895e-20
1.7755092e-20
1.9618696e-20
1.7652296e-20
2.1068015e-20
1.7264013e-20
2.1025012e-20
1.717909e-20
2.1217875e-20
1.9602831e-20
1.5678015e-20
1.6760303e-20
1.953618e-20
1.7955532e-20
1.6453361e-20
1.7771888e-20
1.5811151e-20
1.4483688e-20
1.5389715e-20
1.4307766e-20
1.2130812e-20
1.1124676e-20
9.2184257e-21
1.0229872e-20
1.070323e-20
1.0541818e-20
1.2225917e-20
1.2461069e-20
1.3143954e-20
1.285838e-20
1.4685747e-20
1.4070446e-20
1.1655381e-20
1.2010848e-20
1.0039419e-20
1.0023155e-20
1.4508913e-20
1.5672226e-20
1.3242109e-20
1.4062233e-20
1.416688e-20
1.3888724e-20
1.4295173e-20
1.3950498e-20
1.009005e-20
1.0669033e-20
1.224177e-20
1.1563216e-20
1.8826738e-20
1.7422725e-20
1.860397e-20
1.7235578e-20
1.8172585e-20
1.6559062e-20
1.9106676e-20
1.743786e-20
2.0672474e-20
2.0890481e-20
1.746367e-20
1.7173957e-20
2.0134207e-20
1.6585063e-20
2.1052277e-20
1.7335867e-20
1.9086618e-20
1.9393288e-20
1.5056391e-20
1.5175049e-20
1.8838909e-20
1.6244316e-20
1.9653116e-20
1.694402e-20
1.9142233e-20
1.8294557e-20
1.4668512e-20
1.517614e-20
1.967967e-20
1.674643e-20
2.0090914e-20
1.7153608e-20
1.8282292e-20
1.5765615e-20
1.8635954e-20
1.6015119e-20
1.7922722e-20
1.4316142e-20
1.8277487e-20
1.4432429e-20
1.7168292e-20
1.3474781e-20
1.6996858e-20
1.3202852e-20
1.7788625e-20
1.7590409e-20
1.5136454e-20
1.5217358e-20
1.837289e-20
1.9106022e-20
1.7971308e-20
1.7528236e-20
2.2713838e-20
1.8815586e-20
2.4056433e-20
1.9499627e-20
1.9217511e-20
1.790867e-20
1.9640956e-20
1.8123804e-20
2.3459054e-20
1.8895992e-20
2.3852795e-20
1.8907795e-20
1.7216012e-20
1.6244605e-20
1.796463e-20
1.7241294e-20
1.8186708e-20
1.7152623e-20
1.8564718e-20
2.2394711e-20
2.3006738e-20
1.8386486e-20
1.7295047e-20
2.1200085e-20
1.6177265e-20
2.9753249e-21
1.0259121e-21
1.0345438e-21
1.3760455e-21
1.563608e-21
4.9589401e-21
5.4298531e-21
5.0492629e-21
5.7571352e-21
5.9497388e-21
5.4831933e-21
6.771786e-21
4.9090824e-21
4.5121503e-21
5.0634885e-21
5.0767482e-21
5.4429916e-21
4.9955613e-21
4.4399242e-21
4.5350886e-21
4.7854655e-21
2.1532242e-21
2.1084832e-21
1.9172675e-21
2.3731297e-21
2.5875496e-21
2.2557846e-21
2.2264256e-21
2.3472308e-21
2.5324784e-21
2.2088079e-21
1.8642491e-21
2.2844572e-21
2.2820647e-21
2.1161009e-21
2.0953616e-21
2.1738135e-21
2.7486255e-21
2.0121542e-21
2.1491885e-21
1.2310433e-20
1.3153866e-20
1.2680346e-20
1.2740907e-20
1.4743071e-20
1.3974739e-20
1.2769796e-20
1.2616152e-20
1.2215338e-20
1.1169003e-20
1.2604934e-20
1.3078501e-20
1.1318437e-20
1.3060758e-20
1.227909e-20
1.2506299e-20
1.2322528e-20
1.2737815e-20
1.397695e-20
1.2232929e-20
1.1646902e-20
1.3174038e-20
1.2636613e-20
1.2388902e-20
1.3334882e-20
1.3512978e-20
1.2866031e-20
1.219121e-20
1.2590981e-20
1.2363081e-20
1.2679042e-20
1.122658e-20
3.1920058e-20
1.9824303e-20
3.0981559e-20
2.5781488e-20
2.1951745e-20
2.9499211e-20
2.5703696e-20
6.3482179e-20
2.6124549e-20
2.6047216e-20
3.2576548e-20
3.4466269e-20
6.7772347e-20
2.4971861e-20
2.5805867e-20
3.3151473e-20
3.2313486e-20
4.2164818e-20
4.1354209e-20
4.0513354e-20
4.2031126e-20
2.8423717e-20
2.7724047e-20
4.0855106e-20
4.1904059e-20
2.7842851e-20
4.1169439e-20
4.1834425e-20
2.7463811e-20
4.2864903e-20
4.0081157e-20
4.2887164e-20
4.0181513e-20
2.848664e-20
2.7843832e-20
4.1942287e-20
4.1926275e-20
4.1882979e-20
4.2459583e-20
2.840742e-20
2.7898542e-20
4.1712272e-20
2.0294608e-20
2.0331104e-20
4.0505302e-20
3.9310102e-20
3.8840191e-20
1.919532e-20
1.9620001e-20
3.9084904e-20
3.9695654e-20
1.9723294e-20
1.9221321e-20
1.9950341e-20
3.9971857e-20
1.9660854e-20
3.875862e-20
1.2499593e-20
1.0926902e-20
1.14364e-20
1.3389248e-20
1.3772158e-20
1.1705574e-20
1.1283939e-20
1.3856825e-20
1.1590423e-20
1.097698e-20
9.380128e-21
1.1953401e-20
1.1840037e-20
1.1543372e-20
8.7929861e-21
1.0526e-20
1.1312663e-20
1.195453e-20
1.1059695e-20
9.971302e-21
1.2544189e-20
1.0908377e-20
1.1057884e-20
1.3390636e-20
9.9565389e-21
1.1833734e-20
1.2074585e-20
9.4994037e-21
1.0555177e-20
1.0997969e-20
1.3432134e-20
1.3155384e-20
4.1211013e-20
2.0424117e-20
2.031205e-20
3.9987913e-20
3.8894919e-20
3.900865e-20
1.9218018e-20
1.9635521e-20
4.0249469e-20
4.0039984e-20
1.9589293e-20
1.979352e-20
3.9877994e-20
4.0562537e-20
1.9908381e-20
1.9779456e-20
1.2815899e-20
1.0996226e-20
1.1767949e-20
1.3512804e-20
1.3622593e-20
1.1739229e-20
1.1323757e-20
1.3634713e-20
1.170762e-20
1.1310897e-20
1.0048301e-20
1.3251785e-20
1.1619892e-20
1.1604575e-20
9.0618389e-21
1.120538e-20
1.3003622e-20
1.1176365e-20
1.1813762e-20
1.3739128e-20
1.3706738e-20
1.1605228e-20
1.1241555e-20
1.3729912e-20
1.1445898e-20
1.1198148e-20
9.1888983e-21
1.1734554e-20
1.1339304e-20
1.1178049e-20
8.5677555e-21
1.0206553e-20
6.0321734e-20
3.2572858e-20
1.0954567e-19
6.7258301e-20
2.618443e-20
2.7379881e-20
3.4852884e-20
3.4665594e-20
7.3680946e-20
2.6334521e-20
2.6503134e-20
3.3530542e-20
3.4086232e-20
4.3367808e-20
3.9259739e-20
4.3233668e-20
4.0086933e-20
2.8524962e-20
2.8987738e-20
4.1801467e-20
4.1272871e-20
4.0878355e-20
4.2130135e-20
2.8836142e-20
2.8148321e-20
4.3540086e-20
4.3090155e-20
4.2729253e-20
4.1087838e-20
2.8250244e-20
2.7798147e-20
4.2751356e-20
4.0460903e-20
3.967169e-20
4.2468836e-20
2.7954414e-20
2.8499759e-20
4.1019369e-20
2.0094944e-20
3.9851263e-20
2.0034101e-20
3.9327536e-20
3.8793196e-20
1.9062078e-20
1.9748133e-20
3.9909663e-20
4.0022958e-20
1.9278089e-20
1.9931782e-20
1.9968706e-20
3.9905294e-20
3.9679999e-20
1.9644275e-20
1.2185936e-20
1.2480642e-20
1.1833445e-20
1.5450094e-20
1.2013221e-20
1.097765e-20
1.2986354e-20
1.3822121e-20
1.1448328e-20
1.1946207e-20
1.371095e-20
1.3051934e-20
1.2022639e-20
1.2232133e-20
1.1399507e-20
1.278908e-20
1.1855161e-20
1.1177713e-20
1.2893066e-20
1.3253539e-20
1.1186588e-20
1.1578233e-20
1.3517335e-20
1.3325357e-20
1.2206549e-20
1.1953254e-20
1.1590652e-20
1.4457554e-20
1.173251e-20
1.1710689e-20
1.0940638e-20
1.2088127e-20
3.8745491e-20
3.8264989e-20
1.8887514e-20
1.960772e-20
2.0206173e-20
4.0525118e-20
3.97147e-20
1.992998e-20
1.9305377e-20
3.8919819e-20
1.9892604e-20
3.9355571e-20
3.8633883e-20
3.8343698e-20
1.9416405e-20
1.9223325e-20
1.2022616e-20
1.166333e-20
1.4056158e-20
1.1232472e-20
1.1722824e-20
1.0970193e-20
1.3073421e-20
1.356078e-20
1.3707634e-20
1.1810342e-20
1.1363414e-20
1.3637268e-20
1.1714282e-20
1.1693717e-20
1.0098227e-20
1.1963887e-20
1.305638e-20
1.1148951e-20
1.1722465e-20
1.3765926e-20
1.3565865e-20
1.1366189e-20
1.108902e-20
1.3502404e-20
1.1826843e-20
1.1378403e-20
1.0040988e-20
1.3263367e-20
1.1419775e-20
1.1423878e-20
9.5763437e-21
1.1704663e-20
9.6159669e-21
1.765616e-20
1.6579115e-20
1.7637216e-20
1.7568655e-20
1.8046069e-20
1.7066199e-20
1.7990211e-20
1.8381243e-20
1.7201969e-20
1.5792391e-20
1.7116204e-20
1.7258724e-20
1.6868672e-20
1.5916317e-20
1.6926518e-20
1.6825279e-20
1.7826009e-20
1.6901857e-20
1.709234e-20
1.7458164e-20
1.6526905e-20
1.5391534e-20
1.7115296e-20
1.7113777e-20
1.6651909e-20
1.5939051e-20
1.5756974e-20
1.7244951e-20
1.6035132e-20
1.6686749e-20
1.6818885e-20
1.4646203e-20
1.2280304e-20
1.2597159e-20
1.4894014e-20
1.4854302e-20
1.4818034e-20
1.2412929e-20
1.2573409e-20
9.721052e-21
1.2027452e-20
9.4632047e-21
1.2438602e-20
1.2405981e-20
9.7007344e-21
1.2278577e-20
9.5553228e-21
1.3204916e-20
1.4943295e-20
1.2570072e-20
1.5604461e-20
1.233031e-20
9.7699387e-21
1.0070898e-20
1.3015846e-20
1.3774641e-20
1.5996354e-20
1.3333489e-20
1.6240632e-20
1.3234235e-20
1.0389343e-20
1.3618693e-20
1.0583912e-20
1.0410606e-20
9.1314876e-21
9.3592892e-21
1.0765408e-20
7.6359772e-21
9.6404247e-21
9.3801363e-21
7.8033994e-21
1.0567449e-20
1.0619465e-20
9.253566e-21
9.3198528e-21
7.7152628e-21
9.5735915e-21
7.7930681e-21
9.5247911e-21
9.6040943e-21
1.0753571e-20
9.4369906e-21
1.104388e-20
7.9199261e-21
9.6768724e-21
9.8571591e-21
8.0135896e-21
1.1630541e-20
1.0202276e-20
1.1512402e-20
1.0036064e-20
8.3483777e-21
1.0331239e-20
1.0495357e-20
8.5155559e-21
1.3454501e-20
1.4051275e-20
1.3923754e-20
1.3119123e-20
1.4923317e-20
1.3662326e-20
1.3096899e-20
1.4911741e-20
1.5907843e-20
1.5036285e-20
1.5683872e-20
2.1770234e-20
2.2214659e-20
1.7625077e-20
1.8186642e-20
1.8194702e-20
1.3370468e-20
1.3819458e-20
1.7647824e-20
2.1315015e-20
2.1403653e-20
1.7804362e-20
1.7579774e-20
1.800693e-20
1.8143623e-20
1.3502811e-20
1.3711608e-20
1.8695049e-20
2.2042947e-20
1.7939213e-20
2.257117e-20
1.7892852e-20
1.3743009e-20
1.4278111e-20
1.8651261e-20
1.9465131e-20
2.3041457e-20
1.8896725e-20
2.3424363e-20
1.9378053e-20
1.4534301e-20
2.0319876e-20
1.4983333e-20
3.6645368e-20
3.6223815e-20
2.4731745e-20
2.5667748e-20
2.6256959e-20
2.6815083e-20
3.8684262e-20
3.7815853e-20
2.0621336e-20
7.411705e-21
2.1984176e-20
8.0678513e-21
8.4797807e-21
9.0325642e-21
3.6296226e-20
3.5779785e-20
2.4383683e-20
2.5303195e-20
2.4474734e-20
2.4628791e-20
3.6853752e-20
3.5315598e-20
2.002651e-20
7.1457181e-21
2.1015295e-20
6.9630688e-21
7.6797012e-21
8.2205595e-21
7.7452422e-21
8.0029488e-21
7.9504063e-21
7.9033718e-21
7.5940203e-21
7.525755e-21
6.9679998e-21
7.9955661e-21
1.5499453e-20
1.5331705e-20
1.4616114e-20
1.5807182e-20
1.4945239e-20
1.3606043e-20
1.453689e-20
1.6215401e-20
1.7331614e-20
1.5968198e-20
1.7439442e-20
1.6667932e-20
1.540431e-20
3.4603739e-20
3.3013909e-20
2.1321718e-20
2.1730015e-20
2.5573346e-20
2.5897091e-20
3.8518181e-20
3.6714279e-20
5.2305033e-21
4.2332179e-21
2.2810395e-20
4.4200745e-21
5.58259e-21
2.3956634e-20
2.1625997e-20
2.4878526e-20
5.0995878e-21
5.1186449e-21
6.2590248e-21
6.4067437e-21
2.4999783e-20
2.3674571e-20
2.2020101e-20
2.2153391e-20
2.1560123e-20
2.1445978e-20
1.9570111e-20
1.978137e-20
2.1573695e-20
1.4076014e-20
1.6353663e-20
1.3659699e-20
1.6618909e-20
1.729963e-20
1.7114324e-20
1.433836e-20
1.4662208e-20
1.3341377e-20
1.0495219e-20
1.3802121e-20
1.077709e-20
1.4496887e-20
1.1097023e-20
1.1370955e-20
1.4199156e-20
1.514411e-20
1.2760145e-20
1.5744379e-20
1.3500772e-20
1.3042222e-20
1.0295449e-20
1.250822e-20
9.8508556e-21
1.4472243e-20
1.6522286e-20
1.3748224e-20
1.6930774e-20
1.3668981e-20
1.0749587e-20
1.1142066e-20
1.434478e-20
1.0833761e-20
9.4726316e-21
9.8258229e-21
1.1201009e-20
9.6618869e-21
7.899456e-21
8.2080029e-21
1.0035729e-20
1.1847075e-20
1.2297773e-20
1.0329961e-20
1.0671078e-20
1.0621274e-20
1.094268e-20
8.5953199e-21
8.865808e-21
1.0438328e-20
1.1675636e-20
1.0184177e-20
1.1886416e-20
8.4890962e-21
1.0445957e-20
1.0713469e-20
8.7007044e-21
1.1016758e-20
1.232859e-20
1.0745043e-20
1.2520822e-20
8.9858358e-21
1.1098918e-20
1.1335395e-20
9.1901594e-21
2.4041555e-20
2.4578556e-20
1.952388e-20
2.0261973e-20
2.0126015e-20
1.4797833e-20
1.5334053e-20
1.9547657e-20
2.4393841e-20
2.4728195e-20
2.0528286e-20
2.0120339e-20
2.062149e-20
2.094692e-20
1.5496718e-20
1.5865453e-20
3.956454e-20
3.9411091e-20
2.697791e-20
2.799592e-20
2.7774021e-20
2.829881e-20
4.0355789e-20
3.979629e-20
2.3282553e-20
8.2023881e-21
2.2467228e-20
7.7103577e-21
9.0221285e-21
9.117018e-21
3.6148558e-20
3.6694757e-20
2.4888832e-20
2.6082306e-20
2.7434805e-20
2.8175268e-20
3.9963897e-20
3.9707766e-20
2.3102976e-20
8.020398e-21
2.0769678e-20
7.3683209e-21
8.4470912e-21
8.8249238e-21
1.8951622e-20
2.2245211e-20
1.8014366e-20
2.2990568e-20
1.8274011e-20
1.4024468e-20
1.4757495e-20
1.92171e-20
2.0226606e-20
2.4113057e-20
1.9412959e-20
2.4724682e-20
2.0170867e-20
1.5211092e-20
2.08513e-20
1.5807672e-20
7.6926891e-21
8.0752678e-21
8.0012296e-21
7.7679228e-21
8.1657718e-21
8.0345755e-21
8.1450816e-21
7.9373865e-21
6.1450524e-21
6.4495171e-21
6.2634949e-21
6.549074e-21
6.04702e-21
6.1025146e-21
6.3486649e-21
6.4170021e-21
6.2154816e-21
6.8984452e-21
7.0629197e-21
6.2814154e-21
7.0836063e-21
6.6679465e-21
6.1035779e-21
6.2970745e-21
6.1420012e-21
6.3593515e-21
6.2315972e-21
6.5822658e-21
6.3843735e-21
6.6933088e-21
7.282094e-21
6.5089634e-21
6.1808588e-21
7.7844462e-21
6.8157256e-21
7.8965678e-21
7.0401841e-21
6.1221302e-21
6.1591637e-21
6.5228494e-21
1.4550412e-20
1.4701826e-20
1.5386372e-20
1.4975114e-20
1.5130418e-20
1.4974945e-20
1.5991743e-20
1.5974414e-20
1.7983303e-20
1.6765529e-20
1.6758162e-20
1.8584654e-20
1.8953499e-20
1.8546197e-20
1.860921e-20
1.9002345e-20
2.1464814e-21
2.3745232e-21
2.8574236e-21
3.652567e-21
1.0930055e-20
9.7227079e-21
1.0851164e-20
1.1508757e-20
9.1772481e-21
1.0367962e-20
1.0347573e-20
1.0410562e-20
1.1460307e-20
4.0809814e-21
3.3883182e-21
3.2063077e-21
2.0983974e-21
2.9036285e-21
3.164904e-21
2.1014248e-21
2.1327856e-21
3.6775382e-21
3.7824898e-21
3.8788279e-21
4.1726126e-21
8.9387272e-21
1.0122932e-20
7.9115839e-21
8.8502095e-21
1.0470358e-20
9.1697021e-21
1.1245184e-20
1.0880824e-20
1.2443408e-20
1.1785429e-20
1.5116494e-20
1.3866057e-20
1.6339814e-20
1.4818683e-20
1.795184e-20
1.4684358e-20
1.7650418e-20
1.4912405e-20
6.4460126e-21
6.6046727e-21
7.1632022e-21
6.9415632e-21
6.7210468e-21
6.6368096e-21
6.7180477e-21
6.9504891e-21
7.1739221e-21
7.5662675e-21
6.747917e-21
8.7121033e-21
8.1484017e-21
6.9919702e-21
7.9040871e-21
6.8079752e-21
5.5554379e-21
5.2519939e-21
5.3817906e-21
5.6622118e-21
6.2731556e-21
6.0934232e-21
5.7372019e-21
5.8846744e-21
5.0774977e-21
5.4905131e-21
5.0098612e-21
5.6964634e-21
6.1561422e-21
5.4958744e-21
5.9489157e-21
5.3322596e-21
5.855909e-21
5.929023e-21
5.5611994e-21
6.2025698e-21
5.7118449e-21
5.1853804e-21
5.4804647e-21
6.294056e-21
5.7968828e-21
6.1235599e-21
5.7272004e-21
6.193028e-21
5.8885097e-21
5.2721689e-21
6.0071534e-21
5.3341364e-21
6.1407205e-21
6.3542598e-21
6.4525143e-21
6.3919275e-21
7.4436492e-21
6.5942506e-21
6.7251663e-21
7.8611566e-21
6.622584e-21
6.8484589e-21
6.807245e-21
7.0068777e-21
8.1904788e-21
8.4501325e-21
7.0244039e-21
7.243056e-21
7.1150009e-21
7.5465525e-21
6.7904262e-21
7.8719178e-21
6.8162366e-21
5.6616879e-21
5.8510921e-21
7.2966792e-21
7.871582e-21
7.1765772e-21
7.6874678e-21
6.9204868e-21
6.9559632e-21
5.7002214e-21
7.1936614e-21
5.8631601e-21
9.1226675e-21
8.131917e-21
8.4371356e-21
9.3048314e-21
9.9862639e-21
9.9140983e-21
8.8665652e-21
8.9679921e-21
6.9392843e-21
8.1339244e-21
6.7228286e-21
8.5056133e-21
8.9972325e-21
7.3895646e-21
8.849378e-21
7.2591228e-21
8.7080937e-21
9.2672828e-21
8.2933436e-21
9.5425236e-21
8.320135e-21
6.8970842e-21
7.1508997e-21
8.8464074e-21
8.6754133e-21
9.3366506e-21
8.312724e-21
9.6090865e-21
8.3773557e-21
6.9239552e-21
8.7209654e-21
7.1258026e-21
7.3867055e-21
6.6841456e-21
6.9162448e-21
7.7121909e-21
5.6372562e-21
7.0623508e-21
6.7841737e-21
5.7848939e-21
8.0288291e-21
8.1094226e-21
7.2638511e-21
7.3433207e-21
6.0702316e-21
7.4694257e-21
6.1386424e-21
7.3930481e-21
7.4552551e-21
7.7852442e-21
7.0440673e-21
6.7059934e-21
7.870496e-21
7.1276109e-21
7.7424059e-21
7.0022369e-21
6.7018433e-21
5.5387995e-21
5.814664e-21
7.0627722e-21
6.9749123e-21
7.1082126e-21
5.6988146e-21
5.7812221e-21
7.8511119e-21
8.4850973e-21
7.5875143e-21
8.7363196e-21
7.5240448e-21
6.1933432e-21
6.3935699e-21
7.8317142e-21
9.4801776e-21
9.8851698e-21
8.4724608e-21
8.7863421e-21
8.3799089e-21
8.6948338e-21
6.8287721e-21
7.0735634e-21
9.7920603e-21
9.3618267e-21
8.3507462e-21
8.7258581e-21
8.6964076e-21
8.3280743e-21
6.8200871e-21
7.1308295e-21
8.7912513e-21
9.5934625e-21
8.5407107e-21
9.7965177e-21
7.0102226e-21
8.5397969e-21
8.826119e-21
7.1332422e-21
6.4104345e-21
6.8098904e-21
6.1620537e-21
7.1551458e-21
5.2119652e-21
6.2591926e-21
6.5467645e-21
5.3708845e-21
7.8568599e-21
7.0663163e-21
7.5815448e-21
6.8535106e-21
5.703869e-21
6.9452071e-21
7.1854634e-21
5.890912e-21
6.033147e-21
5.6934685e-21
5.7625705e-21
6.2293955e-21
6.1177286e-21
6.2480093e-21
5.7135813e-21
5.7994276e-21
5.4374131e-21
5.9675382e-21
5.4155841e-21
6.0840057e-21
6.1030214e-21
5.4656099e-21
6.0016194e-21
5.3846088e-21
5.9634443e-21
5.6303024e-21
5.679082e-21
6.062086e-21
5.4496168e-21
5.9285032e-21
5.3928709e-21
6.042249e-21
6.1060673e-21
6.4538686e-21
6.0609625e-21
6.4938895e-21
6.3474784e-21
5.6859343e-21
5.7846654e-21
6.4292742e-21
6.5772325e-21
6.7780921e-21
6.7977081e-21
6.6805772e-21
6.9612894e-21
8.4327882e-21
7.9274334e-21
7.0789912e-21
7.5942657e-21
8.739943e-21
9.0019489e-21
7.7143793e-21
7.0365852e-21
7.1747449e-21
7.2363638e-21
7.3738935e-21
6.5915511e-21
6.7947214e-21
6.7993116e-21
6.7027004e-21
6.6650336e-21
6.7728547e-21
6.7871783e-21
6.8699131e-21
7.0890909e-21
7.214745e-21
7.948797e-21
8.3458173e-21
8.2818902e-21
8.1426018e-21
6.9670632e-21
7.0787536e-21
9.9117415e-22
1.5344273e-21
1.4253727e-21
1.0160039e-21
9.9861306e-22
9.6325028e-22
1.448413e-21
1.5767432e-21
2.7943703e-21
2.5307386e-21
9.6652228e-22
9.7520464e-22
1.4218947e-21
1.335809e-21
1.0048581e-21
9.8258905e-22
1.4427792e-21
1.2891591e-21
2.947126e-21
2.6704973e-21
2.959635e-21
3.2377583e-21
6.3104114e-21
6.2015911e-21
6.6698175e-21
6.395831e-21
6.4012643e-21
5.9774615e-21
6.3565656e-21
6.3619929e-21
6.8765489e-21
7.2121228e-21
6.4564861e-21
6.4703945e-21
6.3489034e-21
7.037281e-21
7.3698864e-21
6.4770533e-21
7.0487734e-21
8.234405e-21
7.8151544e-21
6.7706731e-21
7.4124607e-21
7.4002316e-21
6.5424489e-21
6.7452415e-21
6.0495283e-21
7.4099141e-21
7.0362876e-21
6.3000905e-21
6.8664545e-21
6.1314611e-21
6.5927138e-21
6.4490876e-21
7.9817687e-21
7.3685831e-21
7.7728617e-21
6.9639646e-21
8.088326e-21
8.5399088e-21
7.9026922e-21
7.8686062e-21
9.0934052e-21
9.2007791e-21
8.3108239e-21
8.2672694e-21
7.2307939e-21
8.0226869e-21
8.8631123e-21
7.9499996e-21
8.0299654e-21
7.7499351e-21
7.3864588e-21
7.8466343e-21
7.693047e-21
7.7927797e-21
7.6587727e-21
7.6260278e-21
7.9631561e-21
8.7479311e-21
8.7115796e-21
7.9575457e-21
8.9936916e-21
8.4874251e-21
7.6484866e-21
8.1487976e-21
4.8852779e-21
5.4150069e-21
5.3583526e-21
5.0875992e-21
4.7019595e-21
5.2952573e-21
5.397668e-21
5.3235002e-21
5.3220761e-21
5.3079234e-21
5.1032664e-21
4.9255738e-21
4.6582557e-21
4.6453004e-21
4.8958114e-21
5.0318762e-21
2.954017e-21
2.3928887e-21
2.259947e-21
2.335701e-21
1.8195071e-21
1.872291e-21
2.2439644e-21
2.2667915e-21
2.5121003e-21
1.9527106e-21
2.2135079e-21
2.1730525e-21
2.2196958e-21
2.014272e-21
2.0924105e-21
2.1866583e-21
2.4270267e-21
2.0450501e-21
2.1615235e-21
2.2009256e-21
2.8476734e-21
1.9550569e-21
2.2594119e-21
2.3141838e-21
2.116022e-21
1.9789618e-21
2.1370536e-21
2.1767303e-21
1.9442025e-21
2.0775505e-21
2.1966985e-21
2.0450434e-21
4.3642402e-21
4.2637845e-21
4.8939119e-21
5.1130051e-21
5.2509195e-21
4.9586821e-21
5.1396584e-21
5.3521674e-21
5.2832711e-21
4.4404536e-21
4.6585852e-21
5.1683245e-21
5.3265512e-21
5.3609377e-21
4.7797957e-21
4.9589064e-21
4.5009144e-21
4.4658416e-21
5.3487902e-21
5.1773557e-21
4.9025373e-21
4.5733836e-21
5.2082552e-21
4.9150986e-21
4.596103e-21
5.0188733e-21
4.7463234e-21
4.7302226e-21
4.7794301e-21
4.8587932e-21
4.8836631e-21
4.6235819e-21
2.7298942e-21
2.3272583e-21
2.197544e-21
2.2124771e-21
2.0668744e-21
2.1764622e-21
2.1798956e-21
2.1003441e-21
1.9334909e-21
2.5451716e-21
2.4088859e-21
2.1330685e-21
2.2069586e-21
2.1795217e-21
2.2581364e-21
2.262431e-21
2.2581663e-21
1.9428047e-21
2.097487e-21
2.1815872e-21
2.7640803e-21
2.4400592e-21
2.2713561e-21
2.2618596e-21
2.1225119e-21
2.0608643e-21
2.1267015e-21
2.1587189e-21
2.1981161e-21
1.9841192e-21
2.11843e-21
2.2589793e-21
4.82051e-21
4.5935e-21
5.0212241e-21
5.40911e-21
4.4229995e-21
4.3531043e-21
4.8914027e-21
5.0894956e-21
5.0089239e-21
5.2317382e-21
5.3878988e-21
5.0342308e-21
5.6666036e-21
5.2355479e-21
4.8999858e-21
5.194693e-21
1.709716e-20
1.429058e-20
1.7720717e-20
1.4887345e-20
1.4557841e-20
1.398205e-20
1.0964854e-20
1.1440591e-20
1.715248e-20