/*--------------------------------*- C++ -*----------------------------------*\
  =========                 |
  \\      /  F ield         | OpenFOAM: The Open Source CFD Toolbox
   \\    /   O peration     | Website:  https://openfoam.org
    \\  /    A nd           | Version:  7
     \\/     M anipulation  |
\*---------------------------------------------------------------------------*/
FoamFile
{
    version     2.0;
    format      ascii;
    class       volScalarField;
    location    "3000";
    object      p;
}
// * * * * * * * * * * * * * * * * * * * * * * * * * * * * * * * * * * * * * //

dimensions      [0 2 -2 0 0 0 0];

internalField   nonuniform List<scalar> 
33730
(
-3.6850058e+40
-3.5498418e+40
-3.556054e+40
-3.370373e+40
-3.3711729e+40
-3.564406e+40
-3.5723157e+40
-3.555501e+40
-3.5645071e+40
-3.492232e+40
-3.4883113e+40
-3.4509151e+40
-3.4542019e+40
-3.4945702e+40
-3.455468e+40
-3.4557938e+40
-3.4961154e+40
-3.120416e+40
-2.9965487e+40
-3.2482554e+40
-3.1233027e+40
-3.246784e+40
-2.8688326e+40
-3.3765415e+40
-3.3751772e+40
-3.3762574e+40
-3.3766565e+40
-3.4950193e+40
-3.4732539e+40
-3.4760047e+40
-3.497863e+40
-3.5122787e+40
-3.5093154e+40
-3.5122559e+40
-3.5096239e+40
-3.4878862e+40
-3.4660911e+40
-3.4700417e+40
-3.4919741e+40
-3.5021498e+40
-3.5061594e+40
-3.502711e+40
-3.5067359e+40
-3.4602902e+40
-3.4327783e+40
-3.46159e+40
-3.4335891e+40
-3.4562992e+40
-3.4585665e+40
-3.4314373e+40
-3.429518e+40
-3.4344404e+40
-3.4631567e+40
-3.4341701e+40
-3.4625469e+40
-3.4640202e+40
-3.4635369e+40
-3.4346558e+40
-3.4344285e+40
-3.1755562e+40
-3.1184759e+40
-3.1438569e+40
-3.1183333e+40
-3.060352e+40
-3.1781489e+40
-3.1208207e+40
-3.0021974e+40
-3.0002773e+40
-3.3067614e+40
-3.2368761e+40
-3.2372534e+40
-3.3070567e+40
-3.0071093e+40
-2.8837664e+40
-2.8760416e+40
-3.1806313e+40
-3.1234008e+40
-3.1224997e+40
-3.179973e+40
-3.2348121e+40
-3.2324132e+40
-3.3059411e+40
-3.3046212e+40
-2.7473524e+40
-2.9413338e+40
-2.8727376e+40
-3.3862748e+40
-3.3869947e+40
-3.3853128e+40
-3.3842301e+40
-3.3862406e+40
-3.3863248e+40
-3.3865251e+40
-3.3871988e+40
-3.4086854e+40
-3.414787e+40
-3.4298894e+40
-3.4077314e+40
-3.4093024e+40
-3.4313051e+40
-3.4654493e+40
-3.4770554e+40
-3.4663448e+40
-3.4780385e+40
-3.4646158e+40
-3.4636647e+40
-3.4751929e+40
-3.4761947e+40
-3.4821092e+40
-3.4831693e+40
-3.4771712e+40
-3.47809e+40
-3.4802948e+40
-3.4812952e+40
-3.4757168e+40
-3.4765398e+40
-3.4243204e+40
-3.4017852e+40
-3.4051875e+40
-3.4277082e+40
-3.4595122e+40
-3.4571227e+40
-3.4683377e+40
-3.4708416e+40
-3.4625789e+40
-3.4613703e+40
-3.4740563e+40
-3.4727261e+40
-3.4731605e+40
-3.4756154e+40
-3.468814e+40
-3.4712202e+40
-3.4776533e+40
-3.4790716e+40
-3.4731989e+40
-3.4745772e+40
-3.4226778e+40
-3.441472e+40
-3.4423947e+40
-3.4234216e+40
-3.443066e+40
-3.4434557e+40
-3.4243208e+40
-3.4239353e+40
-3.4375785e+40
-3.4387143e+40
-3.4193362e+40
-3.4202805e+40
-3.4397333e+40
-3.4406687e+40
-3.4211306e+40
-3.4219209e+40
-3.4443029e+40
-3.4443317e+40
-3.4246064e+40
-3.4244627e+40
-3.4438739e+40
-3.444156e+40
-3.4246273e+40
-3.4247082e+40
-3.4445471e+40
-3.4245885e+40
-3.4248406e+40
-3.4448481e+40
-3.4443677e+40
-3.4445549e+40
-3.4245087e+40
-3.4245838e+40
-3.1700939e+40
-3.171659e+40
-3.1985429e+40
-3.1998813e+40
-3.1668977e+40
-3.1800615e+40
-3.1452809e+40
-3.1470777e+40
-3.1220498e+40
-3.1199856e+40
-3.0633213e+40
-3.1418289e+40
-3.1544947e+40
-3.140613e+40
-3.1533037e+40
-3.1299017e+40
-3.1285524e+40
-3.1176295e+40
-3.0939094e+40
-3.1160471e+40
-3.0650033e+40
-3.0681924e+40
-3.1732751e+40
-3.1757473e+40
-3.2042244e+40
-3.2015575e+40
-3.1486794e+40
-3.1236112e+40
-3.1257384e+40
-3.1508953e+40
-3.0658233e+40
-3.0060787e+40
-3.0028214e+40
-3.0195055e+40
-3.0156096e+40
-3.0441702e+40
-3.0406954e+40
-3.3427128e+40
-3.3010432e+40
-3.3004697e+40
-3.3433891e+40
-3.2677095e+40
-3.2341616e+40
-3.235233e+40
-3.2669347e+40
-3.2665038e+40
-3.2350927e+40
-3.2342069e+40
-3.2672572e+40
-3.301509e+40
-3.3013356e+40
-3.3444654e+40
-3.3440281e+40
-2.756741e+40
-2.7664148e+40
-2.6293442e+40
-2.6189179e+40
-3.0082267e+40
-3.0107348e+40
-3.0690312e+40
-3.0676283e+40
-2.9542434e+40
-2.8891288e+40
-2.8837286e+40
-2.9508296e+40
-2.9479693e+40
-2.8797887e+40
-2.876215e+40
-2.9440939e+40
-3.1783039e+40
-3.2064728e+40
-3.2072711e+40
-3.1788659e+40
-3.1533643e+40
-3.1275873e+40
-3.1273924e+40
-3.1536569e+40
-3.1277293e+40
-3.152615e+40
-3.1536134e+40
-3.1270018e+40
-3.1786574e+40
-3.1774217e+40
-3.2071562e+40
-3.2059418e+40
-3.263542e+40
-3.232407e+40
-3.2655595e+40
-3.2298342e+40
-3.2282086e+40
-3.2620953e+40
-3.2609353e+40
-3.2269236e+40
-3.300515e+40
-3.3442812e+40
-3.2988397e+40
-3.3430829e+40
-3.297022e+40
-3.2977925e+40
-3.3423867e+40
-3.342103e+40
-2.7987278e+40
-2.7016545e+40
-2.9939363e+40
-2.9648407e+40
-2.9608777e+40
-2.9897088e+40
-2.8953257e+40
-2.9342506e+40
-2.8901165e+40
-2.930259e+40
-3.3942263e+40
-3.3946621e+40
-3.3956316e+40
-3.3951231e+40
-3.3926785e+40
-3.393482e+40
-3.3914518e+40
-3.3920162e+40
-3.394573e+40
-3.3948699e+40
-3.3946067e+40
-3.3947983e+40
-3.394821e+40
-3.3949842e+40
-3.395328e+40
-3.3957778e+40
-3.2810847e+40
-3.2848072e+40
-3.3637215e+40
-3.4321218e+40
-3.4317221e+40
-3.3450596e+40
-3.3458453e+40
-3.3640582e+40
-3.4332618e+40
-3.4327458e+40
-3.4471408e+40
-3.4477579e+40
-3.4460391e+40
-3.4465276e+40
-3.4613601e+40
-3.4617454e+40
-3.4661462e+40
-3.4657892e+40
-3.4624766e+40
-3.4620518e+40
-3.4664928e+40
-3.4669728e+40
-3.4566438e+40
-3.4568385e+40
-3.4641856e+40
-3.4645048e+40
-3.4647983e+40
-3.4569537e+40
-3.4651926e+40
-3.4571791e+40
-3.4600422e+40
-3.4605445e+40
-3.4649303e+40
-3.4644429e+40
-3.4608774e+40
-3.4610601e+40
-3.4652819e+40
-3.4654886e+40
-3.4557004e+40
-3.4561215e+40
-3.4629334e+40
-3.4634285e+40
-3.4564331e+40
-3.4564775e+40
-3.4637752e+40
-3.4639287e+40
-3.3598626e+40
-3.4257377e+40
-3.4280312e+40
-3.3402358e+40
-3.3432706e+40
-3.3626187e+40
-3.4297991e+40
-3.430898e+40
-3.4398781e+40
-3.4421889e+40
-3.4451825e+40
-3.4439857e+40
-3.452871e+40
-3.4542873e+40
-3.4585404e+40
-3.457181e+40
-3.4555729e+40
-3.4565852e+40
-3.4597699e+40
-3.4608034e+40
-3.4557276e+40
-3.4487634e+40
-3.4501293e+40
-3.4571388e+40
-3.451284e+40
-3.45219e+40
-3.4583138e+40
-3.4593251e+40
-3.4574986e+40
-3.4584249e+40
-3.4617587e+40
-3.462681e+40
-3.4591045e+40
-3.459546e+40
-3.4633998e+40
-3.4639052e+40
-3.4602653e+40
-3.4530916e+40
-3.4540672e+40
-3.4612156e+40
-3.4547929e+40
-3.4552265e+40
-3.4619195e+40
-3.462425e+40
-3.4262053e+40
-3.4257025e+40
-3.4158615e+40
-3.4162876e+40
-3.4269721e+40
-3.4266388e+40
-3.4166042e+40
-3.4169091e+40
-3.4277238e+40
-3.4272868e+40
-3.4172213e+40
-3.4175715e+40
-3.4281026e+40
-3.4279846e+40
-3.4178332e+40
-3.4179669e+40
-3.422511e+40
-3.4220388e+40
-3.4124172e+40
-3.4128014e+40
-3.4234124e+40
-3.423019e+40
-3.4132191e+40
-3.4136287e+40
-3.4244514e+40
-3.4238758e+40
-3.4140845e+40
-3.4146018e+40
-3.4253483e+40
-3.4249591e+40
-3.4150377e+40
-3.4154451e+40
-3.4283326e+40
-3.4282534e+40
-3.417864e+40
-3.417833e+40
-3.428319e+40
-3.4283439e+40
-3.417785e+40
-3.4177716e+40
-3.4283213e+40
-3.4282121e+40
-3.4180782e+40
-3.4181025e+40
-3.428279e+40
-3.4283522e+40
-3.4180204e+40
-3.4178832e+40
-3.4284627e+40
-3.4283657e+40
-3.4177758e+40
-3.4178113e+40
-3.4287474e+40
-3.4286369e+40
-3.4178931e+40
-3.4180381e+40
-3.4283819e+40
-3.4283311e+40
-3.417879e+40
-3.4178934e+40
-3.428379e+40
-3.4284469e+40
-3.4178137e+40
-3.4177209e+40
-2.4650148e+40
-3.1682818e+40
-3.1675231e+40
-3.1813588e+40
-3.1806235e+40
-3.1702472e+40
-3.1831817e+40
-3.1691152e+40
-3.1821422e+40
-3.1946455e+40
-3.209284e+40
-3.1940071e+40
-3.2086759e+40
-3.1964139e+40
-3.2110548e+40
-3.1953869e+40
-3.2100184e+40
-3.1914436e+40
-3.1713871e+40
-3.1655596e+40
-3.1718114e+40
-3.165089e+40
-3.178096e+40
-3.1847744e+40
-3.1776537e+40
-3.1645494e+40
-3.1708824e+40
-3.1434651e+40
-3.1559563e+40
-3.1425798e+40
-3.1551624e+40
-3.1456052e+40
-3.1580351e+40
-3.1444222e+40
-3.1568441e+40
-3.1339853e+40
-3.1327629e+40
-3.1221163e+40
-3.1207906e+40
-3.0980498e+40
-3.1317109e+40
-3.1306956e+40
-3.1184626e+40
-3.1195775e+40
-3.0959324e+40
-3.0729009e+40
-3.0707471e+40
-3.1467068e+40
-3.1412715e+40
-3.1472091e+40
-3.140717e+40
-3.1532063e+40
-3.1594059e+40
-3.158903e+40
-3.1527166e+40
-3.1456375e+40
-3.1402563e+40
-3.1461724e+40
-3.1396895e+40
-3.1521497e+40
-3.1583492e+40
-3.1516261e+40
-3.1578097e+40
-3.1283515e+40
-3.1278612e+40
-3.1352851e+40
-3.1347611e+40
-3.1342653e+40
-3.1336282e+40
-3.127202e+40
-3.1264926e+40
-3.1184691e+40
-3.1069445e+40
-3.093986e+40
-3.0958025e+40
-3.105228e+40
-3.117079e+40
-3.0692793e+40
-3.070771e+40
-3.0817824e+40
-3.0803908e+40
-3.0722762e+40
-3.0744177e+40
-3.0851724e+40
-3.0832049e+40
-3.1722817e+40
-3.1711014e+40
-3.1853257e+40
-3.1840533e+40
-3.1754161e+40
-3.1883981e+40
-3.1736903e+40
-3.1867657e+40
-3.2016741e+40
-3.2162906e+40
-3.2000213e+40
-3.2146053e+40
-3.1985719e+40
-3.2131595e+40
-3.1973098e+40
-3.211917e+40
-3.1475619e+40
-3.1599819e+40
-3.1465017e+40
-3.1588887e+40
-3.1359581e+40
-3.1348979e+40
-3.1230703e+40
-3.1240507e+40
-3.099485e+40
-3.1386561e+40
-3.1371261e+40
-3.1252033e+40
-3.1265524e+40
-3.1014604e+40
-3.1504085e+40
-3.1630777e+40
-3.1487304e+40
-3.1612798e+40
-3.075884e+40
-3.0740973e+40
-3.0245712e+40
-3.0262879e+40
-3.0515842e+40
-3.0499376e+40
-3.0232052e+40
-3.0487467e+40
-3.0467289e+40
-3.021374e+40
-3.0433063e+40
-3.0332055e+40
-3.0307983e+40
-3.0409184e+40
-3.0268238e+40
-3.0288037e+40
-3.0391736e+40
-3.0373121e+40
-3.0507687e+40
-3.0531014e+40
-3.0638629e+40
-3.0615629e+40
-3.0599846e+40
-3.0491134e+40
-3.0473966e+40
-3.0584328e+40
-3.0106826e+40
-3.0685993e+40
-2.889925e+40
-2.9542185e+40
-3.1265736e+40
-3.1520979e+40
-3.1767355e+40
-3.3394092e+40
-3.3398614e+40
-3.3656084e+40
-3.3660713e+40
-3.2979568e+40
-3.2984452e+40
-3.3186023e+40
-3.3190197e+40
-3.2972202e+40
-3.3177034e+40
-3.2975869e+40
-3.3181943e+40
-3.3402563e+40
-3.3665788e+40
-3.3408062e+40
-3.3672863e+40
-3.2638243e+40
-3.2812611e+40
-3.263703e+40
-3.2812273e+40
-3.2325897e+40
-3.2316384e+40
-3.2478462e+40
-3.2469802e+40
-3.2336184e+40
-3.248579e+40
-3.2332545e+40
-3.2483973e+40
-3.2632475e+40
-3.2809723e+40
-3.2625649e+40
-3.2805122e+40
-3.2620069e+40
-3.2624506e+40
-3.2795467e+40
-3.2799134e+40
-3.2326491e+40
-3.2476212e+40
-3.2332505e+40
-3.2481437e+40
-3.2315976e+40
-3.2466531e+40
-3.2321303e+40
-3.2471854e+40
-3.2627889e+40
-3.2802772e+40
-3.2633492e+40
-3.2808179e+40
-3.2987638e+40
-3.2988243e+40
-3.3193977e+40
-3.3196563e+40
-3.2987791e+40
-3.319774e+40
-3.2985032e+40
-3.3196291e+40
-3.3418464e+40
-3.3686839e+40
-3.3690647e+40
-3.3419579e+40
-3.3412877e+40
-3.3415929e+40
-3.3679457e+40
-3.3683171e+40
-2.8065494e+40
-2.8031611e+40
-2.7091893e+40
-2.7070105e+40
-2.8189525e+40
-2.8115771e+40
-2.7148301e+40
-2.7240292e+40
-2.5958297e+40
-2.5838589e+40
-3.0273965e+40
-3.0285338e+40
-3.0536127e+40
-3.0526877e+40
-3.0540389e+40
-3.0297879e+40
-3.0540827e+40
-3.0293706e+40
-3.0772634e+40
-3.077029e+40
-3.1025504e+40
-3.1026833e+40
-3.0767936e+40
-3.0773322e+40
-3.1028996e+40
-3.1024093e+40
-2.9758618e+40
-2.9777914e+40
-3.0047972e+40
-3.0038742e+40
-2.9496581e+40
-2.9132278e+40
-2.9094049e+40
-2.9468556e+40
-2.9041033e+40
-2.9064498e+40
-2.9443821e+40
-2.9423064e+40
-2.9736738e+40
-3.002499e+40
-2.9720752e+40
-3.0012245e+40
-2.9690151e+40
-2.9708983e+40
-3.0000603e+40
-2.9981898e+40
-2.9019674e+40
-2.9406204e+40
-2.8983091e+40
-2.938326e+40
-2.8975046e+40
-2.8975516e+40
-2.9369328e+40
-2.9359508e+40
-2.9660395e+40
-2.9670842e+40
-2.996596e+40
-2.9952143e+40
-3.1771122e+40
-3.1899991e+40
-3.1777495e+40
-3.1907012e+40
-3.203143e+40
-3.2175581e+40
-3.2037946e+40
-3.2181069e+40
-3.2051251e+40
-3.2044806e+40
-3.2186979e+40
-3.2193469e+40
-3.178959e+40
-3.1783821e+40
-3.191385e+40
-3.1919601e+40
-3.1522176e+40
-3.1649155e+40
-3.1526293e+40
-3.1654492e+40
-3.1283975e+40
-3.1277084e+40
-3.1405827e+40
-3.1411224e+40
-3.1399764e+40
-3.1402629e+40
-3.1273331e+40
-3.1271485e+40
-3.1529275e+40
-3.1659255e+40
-3.1534685e+40
-3.1664955e+40
-3.1287629e+40
-3.1289008e+40
-3.1415188e+40
-3.1413295e+40
-3.1529025e+40
-3.1518442e+40
-3.1654195e+40
-3.1643627e+40
-3.1537159e+40
-3.1666894e+40
-3.1534354e+40
-3.1661699e+40
-3.1409013e+40
-3.139899e+40
-3.1275495e+40
-3.1283638e+40
-3.1790808e+40
-3.1921082e+40
-3.1784804e+40
-3.1915117e+40
-3.1775441e+40
-3.1905798e+40
-3.1764698e+40
-3.1894484e+40
-3.2047272e+40
-3.2052901e+40
-3.2196675e+40
-3.219182e+40
-3.2038671e+40
-3.2184083e+40
-3.202778e+40
-3.2173952e+40
-3.2592657e+40
-3.2581947e+40
-3.2775775e+40
-3.2766828e+40
-3.2305593e+40
-3.246011e+40
-3.2289366e+40
-3.2445469e+40
-3.2603969e+40
-3.2617551e+40
-3.2798855e+40
-3.2786349e+40
-3.2275465e+40
-3.2432577e+40
-3.2263285e+40
-3.2420543e+40
-3.225492e+40
-3.2412549e+40
-3.2244882e+40
-3.2403347e+40
-3.2574215e+40
-3.2760327e+40
-3.256499e+40
-3.275134e+40
-3.2558837e+40
-3.2745645e+40
-3.2553519e+40
-3.2741787e+40
-3.2237666e+40
-3.2231571e+40
-3.2390189e+40
-3.2396491e+40
-3.2980318e+40
-3.296934e+40
-3.3184853e+40
-3.3193241e+40
-3.3418312e+40
-3.3691301e+40
-3.3410773e+40
-3.3684979e+40
-3.2959632e+40
-3.3176305e+40
-3.2951704e+40
-3.3168673e+40
-3.3403717e+40
-3.3679332e+40
-3.3397981e+40
-3.367587e+40
-3.2933709e+40
-3.315485e+40
-3.2946457e+40
-3.3164603e+40
-3.2938633e+40
-3.3158988e+40
-3.3674821e+40
-3.3394945e+40
-3.3389937e+40
-3.3670706e+40
-3.3669505e+40
-3.3387134e+40
-3.3670126e+40
-2.6893565e+40
-2.8418076e+40
-2.847805e+40
-2.7757356e+40
-2.782632e+40
-3.0230006e+40
-3.0121148e+40
-3.0205341e+40
-3.0095895e+40
-3.0013759e+40
-2.989389e+40
-2.9986116e+40
-2.9865295e+40
-2.9816141e+40
-2.9841989e+40
-2.9962105e+40
-2.9937275e+40
-3.0046945e+40
-3.0069924e+40
-3.0181834e+40
-3.0160945e+40
-2.9209628e+40
-2.9438288e+40
-2.9410574e+40
-2.9171844e+40
-2.9760417e+40
-2.9605619e+40
-2.957852e+40
-2.9730823e+40
-2.9140609e+40
-2.9382296e+40
-2.9362216e+40
-2.9121395e+40
-2.970812e+40
-2.955336e+40
-2.9532259e+40
-2.9683804e+40
-2.9519197e+40
-2.9345349e+40
-2.9103772e+40
-3.3986208e+40
-3.398901e+40
-3.3991354e+40
-3.3995021e+40
-3.4005742e+40
-3.4003723e+40
-3.4000583e+40
-3.399822e+40
-3.3972939e+40
-3.3968973e+40
-3.3976756e+40
-3.3981895e+40
-3.3954981e+40
-3.395744e+40
-3.3960438e+40
-3.3964814e+40
-3.3995135e+40
-3.399568e+40
-3.3997725e+40
-3.3999332e+40
-3.3996661e+40
-3.399641e+40
-3.3996289e+40
-3.399747e+40
-3.3997476e+40
-3.3996869e+40
-3.399772e+40
-3.3999695e+40
-3.4000503e+40
-3.4002206e+40
-3.4004617e+40
-3.4006339e+40
-3.2732216e+40
-3.1532769e+40
-3.277386e+40
-3.2750649e+40
-3.1545897e+40
-3.2782369e+40
-3.2783787e+40
-3.2996794e+40
-3.398452e+40
-3.3984202e+40
-3.3627463e+40
-3.3624795e+40
-3.299047e+40
-3.3989791e+40
-3.3987941e+40
-3.3623978e+40
-3.3624913e+40
-3.4194516e+40
-3.4194296e+40
-3.4262297e+40
-3.4262613e+40
-3.4457779e+40
-3.445549e+40
-3.4199296e+40
-3.4194931e+40
-3.4460682e+40
-3.4264657e+40
-3.4268304e+40
-3.4464582e+40
-3.4189585e+40
-3.4190276e+40
-3.4258375e+40
-3.4257591e+40
-3.4449198e+40
-3.4446285e+40
-3.419143e+40
-3.4189043e+40
-3.4258675e+40
-3.4260088e+40
-3.4451475e+40
-3.4453206e+40
-3.453996e+40
-3.4561239e+40
-3.4561666e+40
-3.4539559e+40
-3.4538901e+40
-3.4536073e+40
-3.4558288e+40
-3.4560229e+40
-3.4541235e+40
-3.4544586e+40
-3.456569e+40
-3.4563142e+40
-3.4567385e+40
-3.4546164e+40
-3.4569282e+40
-3.4547119e+40
-3.4386045e+40
-3.4492217e+40
-3.4493236e+40
-3.4387802e+40
-3.4388687e+40
-3.4493709e+40
-3.4492911e+40
-3.4388347e+40
-3.4559562e+40
-3.4557931e+40
-3.4543377e+40
-3.4541468e+40
-3.4560856e+40
-3.4560392e+40
-3.4544285e+40
-3.4543645e+40
-3.4562175e+40
-3.4564251e+40
-3.4544677e+40
-3.4546491e+40
-3.438731e+40
-3.4493825e+40
-3.4495337e+40
-3.4389505e+40
-3.4547686e+40
-3.4565616e+40
-3.456781e+40
-3.454995e+40
-3.4498093e+40
-3.4496733e+40
-3.4390934e+40
-3.4392601e+40
-3.4530264e+40
-3.4551639e+40
-3.4552411e+40
-3.453017e+40
-3.4528575e+40
-3.4525008e+40
-3.4546907e+40
-3.4549755e+40
-3.4534569e+40
-3.4531913e+40
-3.4554058e+40
-3.4555856e+40
-3.453457e+40
-3.4535305e+40
-3.4556741e+40
-3.4556891e+40
-3.4381658e+40
-3.448423e+40
-3.4486582e+40
-3.438373e+40
-3.4384815e+40
-3.4487986e+40
-3.4487847e+40
-3.4385004e+40
-3.4549374e+40
-3.4546746e+40
-3.4534447e+40
-3.4531059e+40
-3.4552368e+40
-3.455142e+40
-3.4537256e+40
-3.4535927e+40
-3.4384902e+40
-3.448921e+40
-3.4490518e+40
-3.438654e+40
-3.4387009e+40
-3.4491023e+40
-3.449078e+40
-3.4386947e+40
-3.4555568e+40
-3.4554053e+40
-3.4540201e+40
-3.4538074e+40
-3.4556612e+40
-3.4556362e+40
-3.4541167e+40
-3.4540434e+40
-3.3270694e+40
-3.3350827e+40
-3.3538671e+40
-3.2978114e+40
-3.3954317e+40
-3.3931685e+40
-3.3584989e+40
-3.3607142e+40
-3.2997478e+40
-3.3978929e+40
-3.3970748e+40
-3.3620835e+40
-3.3625856e+40
-3.4140097e+40
-3.4128228e+40
-3.4207711e+40
-3.419431e+40
-3.4379513e+40
-3.4393097e+40
-3.4162263e+40
-3.41504e+40
-3.4218487e+40
-3.4229085e+40
-3.4404658e+40
-3.4414925e+40
-3.4186751e+40
-3.4181521e+40
-3.4255004e+40
-3.4250339e+40
-3.4437975e+40
-3.4442702e+40
-3.4177096e+40
-3.4171819e+40
-3.4237901e+40
-3.4244942e+40
-3.442371e+40
-3.443177e+40
-3.446756e+40
-3.4487886e+40
-3.4472587e+40
-3.4493578e+40
-3.4460756e+40
-3.4452225e+40
-3.4473381e+40
-3.4481152e+40
-3.4485985e+40
-3.4478496e+40
-3.4499325e+40
-3.4505955e+40
-3.451115e+40
-3.4491047e+40
-3.4494279e+40
-3.4515215e+40
-3.4473154e+40
-3.4480611e+40
-3.4466746e+40
-3.4458429e+40
-3.4422378e+40
-3.4414816e+40
-3.4316389e+40
-3.4322538e+40
-3.4432603e+40
-3.4428181e+40
-3.4327951e+40
-3.4331797e+40
-3.4493455e+40
-3.4487649e+40
-3.4479047e+40
-3.4473069e+40
-3.4444428e+40
-3.4438303e+40
-3.4336782e+40
-3.434286e+40
-3.4452717e+40
-3.4448972e+40
-3.4348107e+40
-3.4352082e+40
-3.4505347e+40
-3.4499142e+40
-3.4490693e+40
-3.448399e+40
-3.4514906e+40
-3.451067e+40
-3.449972e+40
-3.4495244e+40
-3.4504908e+40
-3.4498649e+40
-3.4519632e+40
-3.4525175e+40
-3.4529641e+40
-3.4509179e+40
-3.451159e+40
-3.4532914e+40
-3.4536455e+40
-3.451503e+40
-3.4540461e+40
-3.4519696e+40
-3.4521897e+40
-3.4522505e+40
-3.4542904e+40
-3.4544371e+40
-3.4524606e+40
-3.4519364e+40
-3.4503674e+40
-3.4509723e+40
-3.4462895e+40
-3.4457401e+40
-3.4355364e+40
-3.4360637e+40
-3.4365332e+40
-3.4467071e+40
-3.4469836e+40
-3.4368895e+40
-3.4532753e+40
-3.4529321e+40
-3.4517803e+40
-3.4513915e+40
-3.4372038e+40
-3.4473879e+40
-3.4477676e+40
-3.4376563e+40
-3.4378773e+40
-3.4480096e+40
-3.4481487e+40
-3.4380534e+40
-3.4540111e+40
-3.45364e+40
-3.4525109e+40
-3.4520676e+40
-3.4544337e+40
-3.4542684e+40
-3.4529364e+40
-3.4527086e+40
-2.44923e+40
-3.4052207e+40
-3.4048254e+40
-3.4059192e+40
-3.4055756e+40
-3.4066106e+40
-3.4062636e+40
-3.4070791e+40
-3.4069253e+40
-3.4018365e+40
-3.4015135e+40
-3.4026803e+40
-3.4022741e+40
-3.4035831e+40
-3.4030998e+40
-3.4044298e+40
-3.4040144e+40
-3.4065399e+40
-3.406592e+40
-3.4064545e+40
-3.4064789e+40
-3.4069906e+40
-3.4070477e+40
-3.4066786e+40
-3.4068452e+40
-3.4064997e+40
-3.4064501e+40
-3.4065533e+40
-3.4065854e+40
-3.4065789e+40
-3.4063428e+40
-3.4064438e+40
-3.167151e+40
-3.1733403e+40
-3.1729257e+40
-3.1666581e+40
-3.1658498e+40
-3.1662177e+40
-3.1725077e+40
-3.1721084e+40
-3.1857897e+40
-3.1795699e+40
-3.1861843e+40
-3.1791714e+40
-3.1783971e+40
-3.1850601e+40
-3.1787851e+40
-3.1854203e+40
-3.1747764e+40
-3.1691642e+40
-3.1753172e+40
-3.1685895e+40
-3.1815012e+40
-3.1880794e+40
-3.1874691e+40
-3.1809345e+40
-3.1736938e+40
-3.1680129e+40
-3.1742218e+40
-3.1675006e+40
-3.1804123e+40
-3.1869726e+40
-3.179922e+40
-3.1865124e+40
-3.1927803e+40
-3.1997254e+40
-3.1993456e+40
-3.1923944e+40
-3.2142189e+40
-3.20635e+40
-3.206741e+40
-3.2138086e+40
-3.1920499e+40
-3.1917037e+40
-3.1990256e+40
-3.1986659e+40
-3.2134911e+40
-3.2056761e+40
-3.2131534e+40
-3.2060301e+40
-3.2010103e+40
-3.1946511e+40
-3.2015863e+40
-3.1940516e+40
-3.2160737e+40
-3.2086053e+40
-3.2080261e+40
-3.2154835e+40
-3.1931025e+40
-3.2000493e+40
-3.1935577e+40
-3.2005223e+40
-3.2149976e+40
-3.2075378e+40
-3.2070754e+40
-3.2145443e+40
-3.191732e+40
-3.1717414e+40
-3.1659852e+40
-3.1721387e+40
-3.1655637e+40
-3.178474e+40
-3.1849887e+40
-3.1780542e+40
-3.1650873e+40
-3.1712854e+40
-3.1776394e+40
-3.1431363e+40
-3.1425033e+40
-3.1490004e+40
-3.1484053e+40
-3.1543545e+40
-3.1610474e+40
-3.1605106e+40
-3.1549277e+40
-3.1420671e+40
-3.1416735e+40
-3.1475506e+40
-3.147946e+40
-3.153877e+40
-3.1535068e+40
-3.1600605e+40
-3.1597003e+40
-3.1505202e+40
-3.1453272e+40
-3.151129e+40
-3.1446562e+40
-3.1570115e+40
-3.1631077e+40
-3.1625042e+40
-3.1564213e+40
-3.1494705e+40
-3.1441255e+40
-3.1499481e+40
-3.1436412e+40
-3.1558256e+40
-3.1619205e+40
-3.155346e+40
-3.1614137e+40
-3.1328045e+40
-3.1321787e+40
-3.1395023e+40
-3.1388522e+40
-3.1382927e+40
-3.1377661e+40
-3.1315495e+40
-3.1310125e+40
-3.1233209e+40
-3.1118369e+40
-3.1220398e+40
-3.1103545e+40
-3.1011873e+40
-3.0995724e+40
-3.1304387e+40
-3.1298241e+40
-3.137238e+40
-3.1366255e+40
-3.1361474e+40
-3.1357094e+40
-3.1292178e+40
-3.1287687e+40
-3.1194555e+40
-3.1078633e+40
-3.1207245e+40
-3.1089937e+40
-3.0980822e+40
-3.096888e+40
-3.090989e+40
-3.0805143e+40
-3.0789396e+40
-3.0893074e+40
-3.0864885e+40
-3.0775122e+40
-3.0877975e+40
-3.0760518e+40
-3.1476039e+40
-3.1421109e+40
-3.1480813e+40
-3.1416204e+40
-3.1539468e+40
-3.1598862e+40
-3.1594392e+40
-3.1534899e+40
-3.1411906e+40
-3.1471445e+40
-3.1406254e+40
-3.1530134e+40
-3.1589494e+40
-3.1285127e+40
-3.1280782e+40
-3.1358436e+40
-3.1353825e+40
-3.1349291e+40
-3.1342845e+40
-3.1275201e+40
-3.1268227e+40
-3.1215883e+40
-3.1166602e+40
-3.1086495e+40
-3.1160735e+40
-3.1210501e+40
-3.0970848e+40
-3.0987406e+40
-3.107096e+40
-3.114628e+40
-3.1155065e+40
-3.1205039e+40
-3.1197084e+40
-3.1056417e+40
-3.0955863e+40
-3.0740463e+40
-3.0756075e+40
-3.0854629e+40
-3.0770967e+40
-3.0790233e+40
-3.0887837e+40
-3.0869802e+40
-3.1770113e+40
-3.1715476e+40
-3.1777367e+40
-3.1707818e+40
-3.1695919e+40
-3.1701391e+40
-3.1763627e+40
-3.1757621e+40
-3.1839573e+40
-3.1905579e+40
-3.1832181e+40
-3.1897735e+40
-3.1819687e+40
-3.189146e+40
-3.1885492e+40
-3.1825789e+40
-3.1748325e+40
-3.1809542e+40
-3.1739429e+40
-3.1801066e+40
-3.1862768e+40
-3.1928516e+40
-3.1871442e+40
-3.1937346e+40
-3.1784044e+40
-3.1730519e+40
-3.1792697e+40
-3.1721993e+40
-3.1854582e+40
-3.1920414e+40
-3.1912502e+40
-3.1846421e+40
-3.2003039e+40
-3.2072217e+40
-3.2063733e+40
-3.1994316e+40
-3.2142083e+40
-3.2216164e+40
-3.2207596e+40
-3.2133544e+40
-3.1986106e+40
-3.197812e+40
-3.2055513e+40
-3.2047011e+40
-3.2125308e+40
-3.2116918e+40
-3.2199416e+40
-3.2191124e+40
-3.2032988e+40
-3.1971404e+40
-3.2040499e+40
-3.1963545e+40
-3.2184615e+40
-3.2110331e+40
-3.210277e+40
-3.2176945e+40
-3.2020538e+40
-3.1957218e+40
-3.202664e+40
-3.1951283e+40
-3.2170786e+40
-3.2096469e+40
-3.2090581e+40
-3.2165042e+40
-3.1475667e+40
-3.1468527e+40
-3.1533649e+40
-3.152661e+40
-3.1585544e+40
-3.1654339e+40
-3.164665e+40
-3.1592949e+40
-3.1463265e+40
-3.1458334e+40
-3.1515815e+40
-3.1520948e+40
-3.1579404e+40
-3.1574329e+40
-3.1640453e+40
-3.1635272e+40
-3.1350642e+40
-3.1344346e+40
-3.1417579e+40
-3.141079e+40
-3.14054e+40
-3.1400255e+40
-3.1338576e+40
-3.1333598e+40
-3.1245208e+40
-3.1127154e+40
-3.1256326e+40
-3.1136986e+40
-3.1029104e+40
-3.1019772e+40
-3.1379435e+40
-3.1370935e+40
-3.1448736e+40
-3.1438684e+40
-3.1430789e+40
-3.1423789e+40
-3.1363381e+40
-3.1356918e+40
-3.1268565e+40
-3.114718e+40
-3.1281734e+40
-3.1160422e+40
-3.105108e+40
-3.1038385e+40
-3.1556117e+40
-3.1507801e+40
-3.1566774e+40
-3.1496848e+40
-3.162664e+40
-3.1687995e+40
-3.1678291e+40
-3.1616488e+40
-3.1539569e+40
-3.1488532e+40
-3.1547139e+40
-3.148153e+40
-3.1607335e+40
-3.1669217e+40
-3.1599433e+40
-3.1660857e+40
-3.0946227e+40
-3.0838461e+40
-3.0825349e+40
-3.0933397e+40
-3.0924305e+40
-3.0816607e+40
-3.0810914e+40
-3.0916422e+40
-3.0391548e+40
-3.0393933e+40
-3.0501555e+40
-3.0498336e+40
-3.0400619e+40
-3.0414325e+40
-3.0521584e+40
-3.0508023e+40
-3.0732175e+40
-3.0622843e+40
-3.0609483e+40
-3.0718374e+40
-3.0598616e+40
-3.0601979e+40
-3.0710265e+40
-3.070619e+40
-3.0376657e+40
-3.038841e+40
-3.0495196e+40
-3.0483013e+40
-3.0701859e+40
-3.0594895e+40
-3.0582655e+40
-3.0687299e+40
-3.0674921e+40
-3.0571024e+40
-3.0657841e+40
-3.0551324e+40
-3.0470762e+40
-3.0365284e+40
-3.0349188e+40
-3.0452099e+40
-3.0506889e+40
-3.0420949e+40
-3.0397045e+40
-3.0483507e+40
-3.0357261e+40
-3.0379685e+40
-3.0467866e+40
-3.0446986e+40
-3.0575286e+40
-3.0596618e+40
-3.069223e+40
-3.0671875e+40
-3.0656917e+40
-3.0559896e+40
-3.0540875e+40
-3.0639328e+40
-2.8217705e+40
-2.7295646e+40
-2.7299037e+40
-2.6095095e+40
-3.0295999e+40
-3.0285362e+40
-3.0522615e+40
-3.053249e+40
-3.0276611e+40
-3.1007146e+40
-3.0753e+40
-3.1019454e+40
-3.0763579e+40
-2.9752892e+40
-3.0028132e+40
-2.9109323e+40
-2.9469149e+40
-2.9131112e+40
-2.9115866e+40
-2.9474862e+40
-2.9489244e+40
-3.0035453e+40
-2.9756937e+40
-3.0046192e+40
-2.9770637e+40
-3.137706e+40
-3.125224e+40
-3.1384222e+40
-3.1393234e+40
-3.1266878e+40
-3.1259929e+40
-3.1502376e+40
-3.1627993e+40
-3.1513197e+40
-3.1639775e+40
-3.1750336e+40
-3.1880857e+40
-3.1762266e+40
-3.1891912e+40
-3.2024083e+40
-3.2168256e+40
-3.2308131e+40
-3.2459075e+40
-3.3376856e+40
-3.3509943e+40
-3.3513451e+40
-3.337931e+40
-3.3384239e+40
-3.3381495e+40
-3.3515346e+40
-3.3517579e+40
-3.3804581e+40
-3.3645503e+40
-3.3802608e+40
-3.3648139e+40
-3.365341e+40
-3.381118e+40
-3.3650392e+40
-3.3807211e+40
-3.2955398e+40
-3.3055311e+40
-3.3058036e+40
-3.2957589e+40
-3.29627e+40
-3.2960011e+40
-3.30603e+40
-3.3062602e+40
-3.3274325e+40
-3.3155594e+40
-3.3271972e+40
-3.315797e+40
-3.3163035e+40
-3.3279665e+40
-3.3160284e+40
-3.3276635e+40
-3.3049908e+40
-3.2946897e+40
-3.3046671e+40
-3.2949288e+40
-3.314641e+40
-3.3262076e+40
-3.326416e+40
-3.3149e+40
-3.3052982e+40
-3.2950856e+40
-3.3051286e+40
-3.2953015e+40
-3.3150902e+40
-3.326654e+40
-3.3153129e+40
-3.3269181e+40
-3.338681e+40
-3.3520409e+40
-3.3523435e+40
-3.338917e+40
-3.3656689e+40
-3.3815025e+40
-3.3818296e+40
-3.3659778e+40
-3.3391824e+40
-3.3395162e+40
-3.3526578e+40
-3.3529837e+40
-3.3663215e+40
-3.3667451e+40
-3.382201e+40
-3.3827081e+40
-3.2700256e+40
-3.2615631e+40
-3.269883e+40
-3.2616396e+40
-3.2782134e+40
-3.2874652e+40
-3.2875116e+40
-3.2783092e+40
-3.2614632e+40
-3.2698556e+40
-3.2615941e+40
-3.2699864e+40
-3.2783156e+40
-3.2875567e+40
-3.2782425e+40
-3.2875523e+40
-3.2310082e+40
-3.238363e+40
-3.2379047e+40
-3.2304762e+40
-3.2293527e+40
-3.2299543e+40
-3.2374145e+40
-3.2368353e+40
-3.2531104e+40
-3.2456336e+40
-3.2535166e+40
-3.2451962e+40
-3.24422e+40
-3.2522129e+40
-3.2447524e+40
-3.252692e+40
-3.2391133e+40
-3.2317925e+40
-3.239021e+40
-3.2318215e+40
-3.2461616e+40
-3.2539129e+40
-3.253947e+40
-3.2462204e+40
-3.2386527e+40
-3.231629e+40
-3.2389458e+40
-3.2313353e+40
-3.2461189e+40
-3.2538963e+40
-3.2458971e+40
-3.2537373e+40
-3.2612611e+40
-3.2697019e+40
-3.2693956e+40
-3.2608937e+40
-3.2875261e+40
-3.2778865e+40
-3.2781468e+40
-3.2873128e+40
-3.260523e+40
-3.2600772e+40
-3.2690842e+40
-3.2686651e+40
-3.2871049e+40
-3.2772816e+40
-3.2868314e+40
-3.2776289e+40
-3.259507e+40
-3.259783e+40
-3.2681794e+40
-3.2678928e+40
-3.2602804e+40
-3.2686208e+40
-3.2600246e+40
-3.2684008e+40
-3.2762959e+40
-3.2856254e+40
-3.2858476e+40
-3.2765402e+40
-3.2767268e+40
-3.2769716e+40
-3.2860203e+40
-3.286254e+40
-3.2382072e+40
-3.2306636e+40
-3.2379167e+40
-3.2309369e+40
-3.245077e+40
-3.2528378e+40
-3.2530768e+40
-3.2453448e+40
-3.2312071e+40
-3.2315248e+40
-3.2384653e+40
-3.2387577e+40
-3.245592e+40
-3.2459012e+40
-3.2533199e+40
-3.2536413e+40
-3.2296988e+40
-3.2293862e+40
-3.2367039e+40
-3.2370263e+40
-3.2442395e+40
-3.2439445e+40
-3.2517801e+40
-3.2520505e+40
-3.237635e+40
-3.2299798e+40
-3.2373086e+40
-3.2303444e+40
-3.252311e+40
-3.24451e+40
-3.2448265e+40
-3.2525937e+40
-3.2690693e+40
-3.2604955e+40
-3.2688352e+40
-3.2607213e+40
-3.2865037e+40
-3.2772064e+40
-3.2774333e+40
-3.2867168e+40
-3.261296e+40
-3.2696285e+40
-3.2609745e+40
-3.2693424e+40
-3.2869806e+40
-3.2776981e+40
-3.2779963e+40
-3.2872654e+40
-3.2964487e+40
-3.306445e+40
-3.3065435e+40
-3.2964949e+40
-3.2965535e+40
-3.2965925e+40
-3.3066282e+40
-3.3066791e+40
-3.3283484e+40
-3.3165155e+40
-3.3282213e+40
-3.3166191e+40
-3.3168563e+40
-3.3286728e+40
-3.3167309e+40
-3.3284861e+40
-3.2966133e+40
-3.3067408e+40
-3.306683e+40
-3.2964562e+40
-3.3287949e+40
-3.3169486e+40
-3.328815e+40
-3.3168994e+40
-3.3063432e+40
-3.2962893e+40
-3.3065534e+40
-3.2960658e+40
-3.3168126e+40
-3.3287541e+40
-3.3286948e+40
-3.3166797e+40
-3.3405045e+40
-3.3541504e+40
-3.3543147e+40
-3.3405409e+40
-3.384191e+40
-3.3682305e+40
-3.3680563e+40
-3.3843789e+40
-3.3845989e+40
-3.3683721e+40
-3.3684878e+40
-3.3848222e+40
-3.3405552e+40
-3.3405471e+40
-3.3543792e+40
-3.3543786e+40
-3.3397955e+40
-3.3533014e+40
-3.3535582e+40
-3.3399565e+40
-3.3401186e+40
-3.3537443e+40
-3.3403335e+40
-3.3539405e+40
-3.3831213e+40
-3.383346e+40
-3.3671052e+40
-3.3673434e+40
-3.3678168e+40
-3.3675413e+40
-3.3835518e+40
-3.3838986e+40
-2.8547216e+40
-2.7891778e+40
-2.784895e+40
-2.8508516e+40
-2.849931e+40
-2.850124e+40
-2.7848571e+40
-2.7835084e+40
-2.696601e+40
-2.6942732e+40
-2.8684879e+40
-2.8634886e+40
-2.8052086e+40
-2.7983978e+40
-2.8597662e+40
-2.8570827e+40
-2.7938895e+40
-2.7919771e+40
-2.7026226e+40
-2.7127866e+40
-2.5839967e+40
-2.5717954e+40
-3.0421589e+40
-3.0426731e+40
-3.0528754e+40
-3.0533577e+40
-3.0432237e+40
-3.0439028e+40
-3.0543108e+40
-3.0538111e+40
-3.0637704e+40
-3.0641389e+40
-3.0746854e+40
-3.0744316e+40
-3.0741844e+40
-3.0634157e+40
-3.0630025e+40
-3.0738714e+40
-3.0729806e+40
-3.0630122e+40
-3.0630805e+40
-3.0730834e+40
-3.0536424e+40
-3.0437282e+40
-3.0433967e+40
-3.0535172e+40
-3.0735365e+40
-3.063442e+40
-3.0639464e+40
-3.0742352e+40
-3.0537521e+40
-3.0435049e+40
-3.0439378e+40
-3.0542352e+40
-3.0842663e+40
-3.0833963e+40
-3.0949172e+40
-3.0939919e+40
-3.082955e+40
-3.0828186e+40
-3.0934337e+40
-3.0935439e+40
-3.1044471e+40
-3.1043591e+40
-3.1160257e+40
-3.1160995e+40
-3.1164903e+40
-3.1048469e+40
-3.1057313e+40
-3.1172835e+40
-3.0843965e+40
-3.0847059e+40
-3.095525e+40
-3.0951347e+40
-3.0848584e+40
-3.0849236e+40
-3.0956569e+40
-3.0956801e+40
-3.1178943e+40
-3.1064009e+40
-3.1064182e+40
-3.1177917e+40
-3.1057174e+40