/*--------------------------------*- C++ -*----------------------------------*\
  =========                 |
  \\      /  F ield         | OpenFOAM: The Open Source CFD Toolbox
   \\    /   O peration     | Website:  https://openfoam.org
    \\  /    A nd           | Version:  7
     \\/     M anipulation  |
\*---------------------------------------------------------------------------*/
FoamFile
{
    version     2.0;
    format      ascii;
    class       volVectorField;
    location    "3000";
    object      UMean;
}
// * * * * * * * * * * * * * * * * * * * * * * * * * * * * * * * * * * * * * //

dimensions      [0 1 -1 0 0 0 0];

internalField   nonuniform List<vector> 
33730
(
(-6.4597973e+17 -5.4145923e+16 -6.9101231e+15)
(-6.0937055e+17 -2.8518845e+16 7.7090394e+16)
(-5.9709965e+17 -6.0970946e+15 8.12973e+16)
(-6.6144025e+17 1.7211962e+16 4.3192733e+16)
(-6.6198108e+17 1.009756e+16 4.3501103e+16)
(-5.9734556e+17 1.4064194e+16 -6.6007944e+16)
(-4.7055128e+17 -1.1511058e+16 -7.9801775e+15)
(-6.080252e+17 -1.2400664e+16 -6.5285854e+16)
(-4.8351934e+17 -6.0823802e+16 -5.0652517e+15)
(-5.0018288e+17 -6.7442498e+15 6.2027866e+16)
(-5.0996317e+17 -1.535115e+16 6.3143265e+16)
(-6.335527e+17 1.1326013e+16 6.8397411e+16)
(-6.2721474e+17 2.5449666e+15 6.5603033e+16)
(-5.0908345e+17 -6.421239e+15 6.3443519e+16)
(-6.289324e+17 1.3622705e+16 6.799261e+16)
(-6.2600355e+17 -3.9137236e+14 6.9224107e+16)
(-5.033733e+17 -3.0936303e+15 6.5430685e+16)
(-6.6669392e+17 1.5036608e+16 -1.4665956e+16)
(-6.7284797e+17 2.2286777e+16 -1.4318898e+16)
(-6.8844455e+17 1.8360358e+16 2.1839065e+16)
(-6.6416506e+17 1.9816446e+16 -1.5845422e+16)
(-6.9239771e+17 8.8655226e+15 2.3021141e+16)
(-6.2120833e+17 2.2943576e+16 -3.4723114e+16)
(-6.0117976e+17 7.8738965e+15 4.1706022e+16)
(-6.0353455e+17 1.6715768e+16 4.3543996e+16)
(-6.0314026e+17 4.7033828e+15 4.5644403e+16)
(-6.0298581e+17 1.7569265e+16 4.36574e+16)
(-5.6389628e+17 1.1986373e+16 -6.1637645e+16)
(-6.0396438e+17 2.3075458e+16 -5.6148023e+16)
(-5.9988704e+17 1.445614e+16 -5.5170128e+16)
(-5.6017197e+17 1.3222777e+16 -6.4574357e+16)
(-4.4957073e+17 1.1015794e+16 -8.2570054e+16)
(-4.5532224e+17 3.1897001e+15 -8.1353194e+16)
(-3.3775695e+17 -2.7455367e+15 7.1789657e+13)
(-3.4506784e+17 -2.7924344e+16 2.8464267e+15)
(-5.6267719e+17 5.7211914e+15 -5.9605885e+16)
(-6.0223025e+17 1.9886854e+16 -5.4233329e+16)
(-5.9831937e+17 1.5052885e+16 -5.2979227e+16)
(-5.5853909e+17 1.2251737e+16 -6.0624245e+16)
(-4.5770971e+17 -6.5640614e+15 -7.9302532e+16)
(-4.4893598e+17 7.2555089e+15 -7.9418561e+16)
(-3.4103021e+17 -4.5914862e+16 -7.9169637e+14)
(-3.3460336e+17 -1.6966635e+16 -1.4887932e+15)
(-4.2494798e+17 -4.8660869e+15 5.0209903e+16)
(-5.470047e+17 8.1540724e+15 5.7250838e+16)
(-4.2005e+17 -3.1165608e+15 5.1059889e+16)
(-5.4298437e+17 -2.2310048e+13 5.7570296e+16)
(-4.273734e+17 -8.7684412e+15 5.3279906e+16)
(-4.2319646e+17 -5.6960882e+15 5.156651e+16)
(-5.4682845e+17 1.3508208e+15 5.8766636e+16)
(-5.500334e+17 8.0863822e+15 6.0980106e+16)
(-5.4909997e+17 2.8201256e+15 5.8425715e+16)
(-4.2405206e+17 -1.1223835e+15 5.0290375e+16)
(-5.5070075e+17 1.0487492e+16 5.9367115e+16)
(-4.2896077e+17 -3.5569826e+15 5.2625552e+16)
(-4.281027e+17 -2.1698382e+15 5.5247735e+16)
(-4.2886899e+17 -1.3690167e+15 5.1966799e+16)
(-5.4822328e+17 -1.9247493e+15 6.232204e+16)
(-5.5077315e+17 8.3830338e+15 6.0961703e+16)
(-6.2233607e+17 1.0350554e+16 -1.0241363e+16)
(-6.0607324e+17 1.351967e+16 -2.6567706e+16)
(-5.3666951e+17 1.0200861e+16 -2.0035139e+16)
(-5.3184052e+17 9.8958857e+15 -2.4723167e+16)
(-6.1608233e+17 1.7068448e+16 -2.7856758e+16)
(-6.2152916e+17 1.6450345e+16 -1.1450485e+16)
(-6.0752202e+17 1.6729131e+16 -2.687396e+16)
(-6.740166e+17 1.3751857e+16 -1.3372401e+16)
(-5.9983995e+17 1.7073785e+16 -3.9104804e+16)
(-6.3263947e+17 1.6523489e+16 3.344442e+16)
(-6.0691475e+17 1.3021132e+16 -3.0127907e+15)
(-6.077651e+17 1.5924951e+16 -1.2953889e+15)
(-6.2849492e+17 9.0022963e+15 3.1307385e+16)
(-6.6479088e+17 2.4525538e+16 -1.5159725e+16)
(-6.1875221e+17 2.6258475e+16 -3.3027877e+16)
(-6.229096e+17 1.8219184e+16 -3.4091618e+16)
(-6.151237e+17 1.8060732e+16 -1.3129649e+16)
(-6.0370264e+17 1.9201623e+16 -2.8459869e+16)
(-6.0280844e+17 1.7357212e+16 -2.9045652e+16)
(-6.130727e+17 1.4458884e+16 -1.4951242e+16)
(-6.1245697e+17 1.6107458e+16 4.0443038e+13)
(-6.1388155e+17 9.3744559e+15 1.3545023e+15)
(-6.3063564e+17 1.6763166e+16 3.2063172e+16)
(-6.3089166e+17 5.9953874e+15 3.3784735e+16)
(-6.7224172e+17 2.6368835e+16 -2.1322777e+16)
(-6.1691364e+17 2.0205393e+16 -3.4265132e+16)
(-5.6453123e+17 2.1432715e+16 -5.2765005e+16)
(-5.2231783e+17 1.1496354e+16 3.8435482e+16)
(-5.2020487e+17 3.5305452e+15 3.9436332e+16)
(-5.2355919e+17 3.1638245e+15 4.035583e+16)
(-5.2400771e+17 1.1251052e+16 4.1940264e+16)
(-5.2571026e+17 1.1413878e+16 4.1952934e+16)
(-5.246098e+17 1.2047363e+15 4.3872139e+16)
(-5.2523153e+17 3.6832361e+15 4.0078297e+16)
(-5.2531303e+17 1.2472653e+16 4.072973e+16)
(-6.8266755e+17 8.9592536e+15 -5.1342637e+16)
(-6.8870513e+17 1.1832323e+16 -5.2946038e+16)
(-5.9203432e+17 1.4629656e+16 -6.8402397e+16)
(-5.9371051e+17 2.723221e+16 -4.0665817e+16)
(-5.9325439e+17 1.8264868e+16 -4.0995385e+16)
(-5.9096224e+17 1.306669e+16 -7.1439739e+16)
(-4.842545e+17 1.8068194e+16 -7.5467943e+16)
(-3.9832154e+17 1.0020069e+16 -8.8715599e+16)
(-4.8080926e+17 1.0681079e+16 -7.5602567e+16)
(-3.9542458e+17 6.9156241e+15 -8.9840036e+16)
(-4.8110289e+17 1.246022e+16 -7.2929926e+16)
(-4.8455751e+17 1.7279778e+16 -7.3208121e+16)
(-3.9782989e+17 7.4536873e+15 -8.7254524e+16)
(-3.9386165e+17 7.7916103e+15 -8.7139938e+16)
(-2.7352096e+17 5.4634181e+15 -7.8985003e+16)
(-2.6945088e+17 7.0143362e+15 -7.9489083e+16)
(-2.3955216e+17 -9.1947017e+15 2.188943e+16)
(-2.3430811e+17 3.5294962e+15 1.898208e+16)
(-2.7226949e+17 1.8517388e+15 -7.7892708e+16)
(-2.6790568e+17 7.2129193e+15 -7.7188836e+16)
(-2.3821927e+17 -1.4804495e+16 2.0068119e+16)
(-2.3249541e+17 1.2351005e+15 1.9342149e+16)
(-5.8832097e+17 9.3504345e+15 -6.6759817e+16)
(-5.9066423e+17 2.5728865e+16 -3.866219e+16)
(-5.9097891e+17 1.8697371e+16 -3.8263838e+16)
(-5.8843104e+17 1.0922649e+16 -6.8222778e+16)
(-4.7956025e+17 9.9583811e+15 -7.1631386e+16)
(-4.8341531e+17 1.3533188e+16 -7.2381153e+16)
(-3.9671493e+17 9.1249436e+14 -8.516356e+16)
(-3.9272324e+17 2.8831368e+15 -8.5536394e+16)
(-4.7928195e+17 1.0153391e+16 -7.2782796e+16)
(-4.8286979e+17 1.6610158e+16 -7.3170162e+16)
(-3.9272945e+17 4.5544916e+15 -8.7306949e+16)
(-3.954997e+17 6.220897e+15 -8.6445556e+16)
(-2.7510793e+17 -7.7714888e+15 -7.5994893e+16)
(-2.6955348e+17 -5.5659528e+14 -7.5536369e+16)
(-2.3757637e+17 -2.635268e+16 1.7273996e+16)
(-2.3447486e+17 -1.1200043e+16 1.8377725e+16)
(-2.7260478e+17 -9.4460577e+14 -7.7199005e+16)
(-2.6712127e+17 3.0594428e+15 -7.7496698e+16)
(-2.3986837e+17 -1.9705208e+16 2.0333896e+16)
(-2.3249831e+17 -4.5938921e+15 1.8752383e+16)
(-4.6831909e+17 5.216933e+15 5.4400917e+16)
(-3.6815847e+17 -4.7708234e+15 4.9228015e+16)
(-3.6305866e+17 -2.2945874e+15 4.6823138e+16)
(-4.6659493e+17 1.1146405e+15 5.3407253e+16)
(-3.6482654e+17 -1.8088833e+15 4.7162948e+16)
(-3.6269817e+17 -2.0876133e+15 4.9095623e+16)
(-4.6490755e+17 -1.2644735e+15 5.5705322e+16)
(-4.6675416e+17 4.6046775e+15 5.4530019e+16)
(-3.6761266e+17 -6.4177703e+15 5.0375562e+16)
(-3.6518081e+17 -4.8314675e+15 4.9232707e+16)
(-4.6769563e+17 4.4806992e+15 5.6702199e+16)
(-4.6722615e+17 -2.1484938e+14 5.6126208e+16)
(-3.6785279e+17 -4.3852079e+15 4.8138261e+16)
(-3.6323607e+17 -3.4612646e+15 4.8524465e+16)
(-4.687884e+17 3.2604815e+15 5.4795138e+16)
(-4.6537474e+17 -1.95292e+15 5.4996098e+16)
(-3.690771e+17 -1.4466188e+15 4.7881672e+16)
(-3.6648833e+17 -4.2906431e+14 4.8623126e+16)
(-4.724196e+17 4.7593362e+15 5.5250482e+16)
(-4.6988813e+17 -6.7032737e+14 5.5653384e+16)
(-3.7109737e+17 -3.6114352e+15 5.0444995e+16)
(-3.6772948e+17 -1.8684574e+15 4.8127404e+16)
(-4.7189962e+17 6.621321e+15 5.6612785e+16)
(-4.7135286e+17 1.6216108e+15 5.5789787e+16)
(-3.7239018e+17 -1.110708e+15 5.03345e+16)
(-4.7446846e+17 3.9194077e+15 5.8724925e+16)
(-4.7200088e+17 -2.3413969e+15 5.9770843e+16)
(-3.7048473e+17 -2.0955015e+15 5.2087026e+16)
(-3.7316364e+17 -2.3086125e+15 5.1339092e+16)
(-3.6891999e+17 -2.9594828e+14 4.8366661e+16)
(-4.7478927e+17 6.0797697e+15 5.7806441e+16)
(-4.7275178e+17 1.285469e+15 5.6348698e+16)
(-5.2292858e+17 8.4862857e+15 -1.9567457e+16)
(-5.2421516e+17 9.5514566e+15 -2.0759976e+16)
(-5.3067752e+17 7.3125592e+15 -1.1290611e+16)
(-5.3278963e+17 1.0212326e+16 -1.2152783e+16)
(-4.3764893e+17 4.6775159e+15 -1.588695e+16)
(-4.4352726e+17 4.99504e+15 -1.3695721e+16)
(-5.347993e+17 9.3034134e+15 -1.9872931e+16)
(-5.3640886e+17 1.0765205e+16 -2.0975838e+16)
(-5.3145532e+17 1.0841088e+16 -2.5857757e+16)
(-5.3100128e+17 1.0799695e+16 -2.4237221e+16)
(-6.1213803e+17 1.4156941e+16 -2.8063976e+16)
(-4.4340024e+17 5.2847314e+15 -1.66094e+16)
(-4.479531e+17 5.603977e+15 -1.4089902e+16)
(-4.4338489e+17 4.7841295e+15 -1.7221639e+16)
(-4.4804818e+17 4.5950163e+15 -1.4551184e+16)
(-4.579659e+17 6.3989225e+15 -1.6275832e+16)
(-4.5786651e+17 5.3935606e+15 -1.6895591e+16)
(-4.6258554e+17 6.8158108e+15 -2.1183185e+16)
(-5.419236e+17 1.163397e+16 -2.254863e+16)
(-4.6270482e+17 5.8293346e+15 -2.155978e+16)
(-5.3726493e+17 1.2154991e+16 -2.9651825e+16)
(-5.396667e+17 1.1396268e+16 -2.7434762e+16)
(-5.2428967e+17 1.05218e+16 -2.1366068e+16)
(-5.2437029e+17 1.1536029e+16 -2.0720677e+16)
(-5.3256512e+17 1.238038e+16 -1.2345834e+16)
(-5.3299776e+17 9.4377958e+15 -1.2607624e+16)
(-5.3702645e+17 1.1341625e+16 -2.1461405e+16)
(-5.3190266e+17 1.2873195e+16 -2.6778131e+16)
(-5.3111348e+17 1.2615577e+16 -2.575202e+16)
(-5.3664016e+17 1.2702925e+16 -2.0668553e+16)
(-6.1651171e+17 1.8567638e+16 -2.7830325e+16)
(-6.0100603e+17 1.9501949e+16 -3.9291485e+16)
(-6.0229254e+17 1.5592568e+16 -3.8369074e+16)
(-5.4953344e+17 1.3088155e+16 -3.4947037e+16)
(-5.4934101e+17 1.543658e+16 -3.6201137e+16)
(-5.5308317e+17 1.2821608e+16 -2.7182374e+16)
(-5.4973052e+17 1.3499484e+16 -3.0145051e+16)
(-5.5223311e+17 1.1839033e+16 4.044836e+16)
(-5.2945677e+17 5.3249349e+15 1.4682899e+16)
(-5.2909299e+17 1.0069958e+16 1.5281865e+16)
(-5.5067906e+17 3.9712755e+15 3.9180565e+16)
(-5.3600418e+17 1.1629571e+16 2.2501355e+15)
(-5.1822955e+17 9.7624001e+15 -1.2046559e+16)
(-5.1976432e+17 1.1252858e+16 -1.2235291e+16)
(-5.3384778e+17 7.7541757e+15 2.6859906e+15)
(-5.3839612e+17 1.1293318e+16 4.9935841e+15)
(-5.1957485e+17 9.2235725e+15 -1.0327927e+16)
(-5.1920578e+17 1.097006e+16 -1.0009144e+16)
(-5.384071e+17 6.95374e+15 4.710456e+15)
(-5.2764631e+17 1.0741824e+16 1.309342e+16)
(-5.2660759e+17 6.3377302e+15 1.3643509e+16)
(-5.4694751e+17 4.2973914e+15 3.7613957e+16)
(-5.4985117e+17 1.1219817e+16 3.7103695e+16)
(-6.77601e+17 1.5219564e+16 -1.8903477e+16)
(-6.664849e+17 2.5634399e+16 -1.7554069e+16)
(-5.9204292e+17 1.9103966e+16 -4.9653309e+16)
(-5.9625086e+17 9.9073504e+15 -5.325151e+16)
(-5.9820543e+17 2.0111672e+16 -4.0085752e+16)
(-5.9831648e+17 2.1712654e+16 -3.8740063e+16)
(-6.1010229e+17 2.1526589e+16 -2.9318783e+16)
(-6.0682728e+17 1.8820762e+16 -3.0647677e+16)
(-6.1317597e+17 2.3118971e+16 -3.5458665e+16)
(-5.6539939e+17 2.4802178e+16 -5.4247321e+16)
(-5.6987474e+17 2.2472125e+16 -5.35043e+16)
(-6.1325837e+17 2.0655978e+16 -3.7099223e+16)
(-6.1699742e+17 2.1112559e+16 -3.5425029e+16)
(-5.685775e+17 2.3169898e+16 -5.326977e+16)
(-5.7270252e+17 1.7466193e+16 -5.2996088e+16)
(-6.1713435e+17 1.5648041e+16 -3.5903244e+16)
(-5.1694487e+17 1.2469609e+16 -2.0990157e+16)
(-5.2773267e+17 1.2607472e+16 -1.218805e+16)
(-5.2795021e+17 1.0660343e+16 -1.2779519e+16)
(-5.1815795e+17 1.2180951e+16 -2.1416569e+16)
(-5.2860163e+17 1.4389366e+16 -2.1987651e+16)
(-5.2697541e+17 1.4778951e+16 -2.6093134e+16)
(-5.256558e+17 1.4615754e+16 -2.6212315e+16)
(-5.2905677e+17 1.3470431e+16 -2.2200175e+16)
(-5.2757636e+17 1.3472642e+16 -2.7401647e+16)
(-5.2807652e+17 1.2830166e+16 -2.3484183e+16)
(-5.2957822e+17 1.3376775e+16 -2.3791312e+16)
(-5.2638861e+17 1.4039394e+16 -2.7293833e+16)
(-5.1898675e+17 1.2128829e+16 -2.2765051e+16)
(-5.1717888e+17 1.1854589e+16 -2.2460068e+16)
(-5.2676802e+17 1.2372383e+16 -1.5291996e+16)
(-5.2501904e+17 1.0905848e+16 -1.4932663e+16)
(-5.4172401e+17 7.2282585e+15 4.9136658e+15)
(-5.244693e+17 1.1429363e+16 -9.576352e+15)
(-5.4165708e+17 1.2544673e+16 5.3546124e+15)
(-5.2491581e+17 8.4682844e+15 -1.0111546e+16)
(-5.2536012e+17 9.4868844e+15 -9.2560602e+15)
(-5.4184879e+17 1.0353161e+16 5.8842831e+15)
(-5.4049444e+17 4.4823227e+15 7.0251045e+15)
(-5.2371655e+17 6.3605844e+15 -8.3194856e+15)
(-5.3337318e+17 1.1635307e+16 1.6005121e+16)
(-5.5312833e+17 1.3071282e+16 3.9411857e+16)
(-5.3327479e+17 5.7052105e+15 1.5456432e+16)
(-5.5337763e+17 4.7500384e+15 3.9147315e+16)
(-5.3363019e+17 3.4542753e+15 1.8169246e+16)
(-5.3425085e+17 1.0160993e+16 1.6747867e+16)
(-5.5401247e+17 1.1052188e+16 4.0515259e+16)
(-5.5209379e+17 1.9418091e+15 4.1863897e+16)
(-6.0947783e+17 2.286258e+16 -2.7661406e+16)
(-5.3418468e+17 1.7414199e+16 -3.1053539e+16)
(-5.638287e+17 1.4869201e+16 -3.5366693e+16)
(-5.5804014e+17 1.5625983e+16 -4.5816367e+16)
(-5.5890493e+17 1.8016784e+16 -4.620127e+16)
(-5.6322928e+17 1.6775073e+16 -3.6508215e+16)
(-5.4981192e+17 1.8688007e+16 -6.1956505e+16)
(-5.7672483e+17 1.7887513e+16 -4.2018792e+16)
(-5.5315018e+17 1.9436129e+16 -5.9478396e+16)
(-5.7919424e+17 1.942157e+16 -4.1038249e+16)
(-4.4582251e+17 7.0346529e+15 4.15701e+16)
(-4.4524098e+17 1.7369548e+15 4.0455107e+16)
(-4.4280297e+17 1.1588173e+15 4.22798e+16)
(-4.4447027e+17 7.4074486e+15 4.1186695e+16)
(-4.4707427e+17 6.1372463e+15 4.1853818e+16)
(-4.4473749e+17 2.6255975e+14 4.2411233e+16)
(-4.4569294e+17 6.659422e+15 4.3889872e+16)
(-4.4623805e+17 3.6889878e+14 4.3103312e+16)
(-4.4980435e+17 1.3065098e+15 4.2387104e+16)
(-4.5040592e+17 7.3340703e+15 4.3573585e+16)
(-4.5072001e+17 6.4309512e+15 4.4305697e+16)
(-4.4896779e+17 -5.2561572e+14 4.5361925e+16)
(-4.4786842e+17 9.5917052e+14 4.2234001e+16)
(-4.4963145e+17 6.8694709e+15 4.1428195e+16)
(-4.4938073e+17 1.4089031e+15 4.2437398e+16)
(-4.4922753e+17 8.0006641e+15 4.3511813e+16)
(-6.873546e+17 1.3952953e+16 -2.8014957e+16)
(-6.9366153e+17 1.4720911e+16 -2.8679213e+16)
(-6.0823628e+17 1.7468497e+16 -5.7064923e+16)
(-4.8283179e+17 1.1370287e+16 -7.4687578e+16)
(-4.8497666e+17 1.8733444e+16 -7.4250196e+16)
(-6.1896261e+17 2.5728249e+16 -3.1688786e+16)
(-6.1786626e+17 1.8613654e+16 -3.1888226e+16)
(-6.0773846e+17 1.5746703e+16 -6.0178377e+16)
(-4.8330471e+17 1.0764423e+16 -7.7366073e+16)
(-4.8492986e+17 1.9519492e+16 -7.6490083e+16)
(-4.1200294e+17 1.0142315e+16 -9.4413117e+16)
(-4.1030464e+17 7.7716979e+15 -9.5592408e+16)
(-4.1062022e+17 8.2101864e+15 -9.2992981e+16)
(-4.083883e+17 7.5200484e+15 -9.3416023e+16)
(-2.8770322e+17 1.0135882e+16 -8.1287958e+16)
(-2.8565367e+17 8.2084528e+15 -8.0211993e+16)
(-2.0078237e+17 5.6690932e+15 -8.6253362e+16)
(-2.0428169e+17 6.3506607e+15 -8.7256014e+16)
(-2.8548587e+17 6.8004886e+15 -8.2343756e+16)
(-2.8668349e+17 9.9568107e+15 -8.145571e+16)
(-2.0345019e+17 7.1508398e+15 -8.6852699e+16)
(-2.0190446e+17 4.5498398e+15 -8.8634046e+16)
(-2.2901789e+17 -3.4844984e+15 3.6010156e+16)
(-2.2649329e+17 2.8342993e+15 3.5339745e+16)
(-1.6025047e+17 6.870091e+13 -2.8339782e+16)
(-1.6017377e+17 1.9237406e+15 -2.3532293e+16)
(-1.6188734e+17 2.0235113e+15 -2.4733566e+16)
(-2.2908287e+17 -8.3026708e+14 3.6091819e+16)
(-1.5817415e+17 2.0916223e+15 -2.8174425e+16)
(-2.2534454e+17 2.1379987e+15 3.4671633e+16)
(-2.8687114e+17 8.2394973e+15 -8.0419611e+16)
(-2.8541028e+17 6.8350716e+15 -7.9313215e+16)
(-1.9993538e+17 4.2307633e+15 -8.5468458e+16)
(-2.0394271e+17 3.8298859e+15 -8.6085838e+16)
(-2.842807e+17 9.39425e+15 -7.9491071e+16)
(-2.828129e+17 6.8840312e+15 -8.0175464e+16)
(-2.0119924e+17 6.0780862e+15 -8.5252348e+16)
(-1.9853275e+17 4.2694346e+15 -8.7083243e+16)
(-2.265403e+17 -6.6577318e+15 3.4910404e+16)
(-2.2527987e+17 -3.3605961e+14 3.4568525e+16)
(-1.5864188e+17 -3.8428577e+15 -2.9783182e+16)
(-1.585764e+17 -1.2029228e+15 -2.5089508e+16)
(-2.2877085e+17 -3.3413718e+15 3.6516933e+16)
(-2.229205e+17 3.1598239e+15 3.3712917e+16)
(-1.6159875e+17 -1.0270227e+15 -2.3489419e+16)
(-1.5657711e+17 1.1128247e+15 -2.6141951e+16)
(-6.0283901e+17 1.2983025e+16 -5.6083614e+16)
(-4.8266538e+17 1.5458385e+16 -7.3150225e+16)
(-4.8067967e+17 8.9446273e+15 -7.3696475e+16)
(-6.1511771e+17 2.4080336e+16 -3.0448281e+16)
(-6.1470635e+17 1.9067856e+16 -3.003849e+16)
(-6.0381376e+17 1.4391914e+16 -5.7198259e+16)
(-4.82727e+17 1.7850689e+16 -7.3944341e+16)
(-4.8093683e+17 1.0160789e+16 -7.4542279e+16)
(-4.0899992e+17 1.7534751e+15 -9.2203823e+16)
(-4.0600105e+17 2.6269724e+15 -9.2785945e+16)
(-4.0662216e+17 5.2793045e+15 -9.341615e+16)
(-4.0793229e+17 6.1477707e+15 -9.2590145e+16)
(-2.8562698e+17 3.8734523e+15 -8.0049405e+16)
(-2.8416925e+17 2.9457338e+15 -7.8694441e+16)
(-2.0139605e+17 -1.5880469e+15 -8.3751626e+16)
(-2.0700477e+17 -2.9434362e+15 -8.4160496e+16)
(-2.8428126e+17 5.9065592e+15 -7.9713226e+16)
(-2.8264116e+17 3.4743999e+15 -8.0224002e+16)
(-2.0315338e+17 6.3678027e+14 -8.4062188e+16)
(-1.987876e+17 -5.301363e+14 -8.6013416e+16)
(-1.5842307e+17 -1.3835937e+16 -3.0968883e+16)
(-2.2243457e+17 -9.9497988e+15 3.3053361e+16)
(-2.2332206e+17 -4.7585311e+15 3.4566162e+16)
(-1.5912294e+17 -1.1123876e+16 -2.409542e+16)
(-2.2632703e+17 -7.4333189e+15 3.5177438e+16)
(-2.1984013e+17 -1.8236106e+15 3.2430828e+16)
(-1.6080745e+17 -9.7722536e+15 -2.6319027e+16)
(-1.5566122e+17 -7.6377728e+15 -2.7289787e+16)
(-2.8546965e+17 7.2317931e+15 -8.0375742e+16)
(-2.8344782e+17 5.8496289e+15 -7.8994736e+16)
(-2.0385114e+17 1.8708248e+15 -8.5543452e+16)
(-1.9846057e+17 2.2910828e+15 -8.4861773e+16)
(-2.850966e+17 8.069126e+15 -8.0143632e+16)
(-2.8353828e+17 4.9228186e+15 -8.0881295e+16)
(-2.0169382e+17 4.1918406e+15 -8.5171803e+16)
(-1.9906255e+17 1.6740711e+15 -8.7084924e+16)
(-1.5823232e+17 -7.3316229e+15 -3.015998e+16)
(-2.2366051e+17 -7.1269773e+15 3.2988056e+16)
(-2.2203525e+17 -9.7122284e+14 3.3665129e+16)
(-1.5693192e+17 -4.5171346e+15 -2.5053041e+16)
(-2.2484034e+17 -4.0218726e+15 3.506145e+16)
(-2.202261e+17 -1.7651452e+13 3.3163477e+16)
(-1.5952683e+17 -3.8718019e+15 -2.6820612e+16)
(-1.5472937e+17 -3.0952334e+15 -2.8985245e+16)
(-3.1646947e+17 -3.9102059e+15 4.7796256e+16)
(-3.1695184e+17 -5.6585798e+15 4.8529579e+16)
(-4.0558991e+17 3.1813551e+15 5.0444431e+16)
(-4.0532411e+17 -5.150512e+14 5.0371012e+16)
(-3.1552934e+17 -1.5458623e+15 4.8191636e+16)
(-3.1614426e+17 -4.2452922e+15 4.6616153e+16)
(-4.0481991e+17 2.7650361e+15 4.8712856e+16)
(-4.0291519e+17 -1.1837178e+15 4.8445668e+16)
(-3.1617586e+17 -1.3908405e+15 4.7327805e+16)
(-3.1671668e+17 -3.8834052e+15 4.8368934e+16)
(-4.0532037e+17 4.3850963e+15 4.9931665e+16)
(-4.0392258e+17 6.352867e+14 4.8953238e+16)
(-3.1867669e+17 -1.5394753e+15 5.0149285e+16)
(-3.1745215e+17 -2.5147777e+15 4.7490619e+16)
(-4.0450099e+17 3.3711799e+15 5.0858279e+16)
(-4.0167031e+17 -1.2052575e+15 5.0148297e+16)
(-3.1613496e+17 -5.2808591e+15 4.8551792e+16)
(-3.1686874e+17 -6.0881026e+15 4.9398254e+16)
(-4.0356939e+17 2.8578295e+15 5.1334391e+16)
(-4.0394412e+17 -1.4081521e+15 5.1793086e+16)
(-3.1685793e+17 -3.8042477e+15 4.9526142e+16)
(-3.1678124e+17 -6.0872646e+15 4.7748213e+16)
(-4.047357e+17 1.2803758e+15 5.0253472e+16)
(-4.031516e+17 -2.6279446e+15 5.0128505e+16)
(-3.1732555e+17 -3.4088207e+15 4.8074007e+16)
(-3.1778129e+17 -5.9624884e+15 4.8665628e+16)
(-4.0609614e+17 2.8629793e+15 4.965906e+16)
(-4.0615063e+17 -5.0143053e+14 5.0158101e+16)
(-3.1622759e+17 -3.1266646e+15 4.9461402e+16)
(-3.1665522e+17 -4.1207933e+15 4.7439734e+16)
(-4.0411468e+17 2.3778433e+15 5.0409012e+16)
(-4.0205437e+17 -2.7912961e+15 5.023493e+16)
(-3.1973464e+17 -5.9163734e+14 4.8065292e+16)
(-3.1965894e+17 -3.6475571e+15 4.885101e+16)
(-4.0944427e+17 4.0959033e+15 4.9594101e+16)
(-4.092059e+17 7.8153789e+14 4.9524599e+16)
(-3.1895087e+17 -9.2471655e+13 4.9414542e+16)
(-3.1839494e+17 -1.8098789e+15 4.750416e+16)
(-4.0882625e+17 3.2816167e+15 5.099429e+16)
(-4.0663702e+17 -1.4985604e+15 5.0396772e+16)
(-3.196553e+17 -2.9107873e+15 4.8260825e+16)
(-3.1911644e+17 -4.3260813e+15 4.9037425e+16)
(-4.0824079e+17 4.8338127e+15 5.1070724e+16)
(-4.0950782e+17 1.629069e+14 5.2065879e+16)
(-3.1879749e+17 -9.4189469e+14 4.9029884e+16)
(-3.185117e+17 -3.5246317e+15 4.7210418e+16)
(-4.0914051e+17 2.6969118e+15 4.9833519e+16)
(-4.0786205e+17 -1.2071849e+15 4.990954e+16)
(-3.2425427e+17 -6.7469889e+14 4.9545464e+16)
(-3.2443252e+17 -2.4944776e+15 5.0142048e+16)
(-4.1294355e+17 4.1458002e+15 5.2160843e+16)
(-4.1272237e+17 4.3456202e+14 5.2206709e+16)
(-3.2239612e+17 -1.0293646e+15 5.0830849e+16)
(-3.2520488e+17 -2.3524858e+15 4.9980629e+16)
(-4.1033174e+17 2.6329611e+15 5.2774204e+16)
(-4.0939156e+17 -2.5977971e+15 5.3291357e+16)
(-3.2407237e+17 -1.3470828e+15 4.9178832e+16)
(-3.2379412e+17 -3.4161626e+15 5.0240119e+16)
(-4.1198156e+17 4.2593683e+15 5.2319144e+16)
(-4.1109043e+17 4.8211959e+14 5.136933e+16)
(-3.1980826e+17 9.1099053e+14 4.8658828e+16)
(-3.1976798e+17 -2.3833922e+15 4.7306618e+16)
(-4.1099493e+17 2.9309882e+15 5.0633774e+16)
(-4.0892118e+17 -8.840772e+14 4.9881332e+16)
(-6.4805577e+17 1.840175e+16 -5.5323785e+16)
(-4.3742492e+17 5.6266177e+15 -1.6123259e+16)
(-4.3551299e+17 5.2069503e+15 -1.6215751e+16)
(-4.4294246e+17 5.8045593e+15 -1.4015093e+16)
(-4.4101386e+17 4.8601592e+15 -1.3983403e+16)
(-4.3720596e+17 6.4802432e+15 -1.7210095e+16)
(-4.4293709e+17 6.6931055e+15 -1.490407e+16)
(-4.3624688e+17 6.5720676e+15 -1.7670014e+16)
(-4.4195342e+17 6.1323845e+15 -1.530142e+16)
(-4.3313839e+17 5.2908082e+15 -1.4409939e+16)
(-4.4303178e+17 5.892027e+15 -1.0193617e+16)
(-4.3148974e+17 4.3901683e+15 -1.4412936e+16)
(-4.4092824e+17 4.1688073e+15 -1.0205481e+16)
(-4.3289192e+17 6.0811811e+15 -1.5314938e+16)
(-4.4289968e+17 6.7560814e+15 -1.097707e+16)
(-4.3201282e+17 5.5990791e+15 -1.5733732e+16)
(-4.4207299e+17 5.2891415e+15 -1.1367706e+16)
(-3.7290612e+17 2.8209338e+15 -1.3190228e+16)
(-3.7588794e+17 2.2837697e+15 -1.3579724e+16)
(-3.692803e+17 3.3664671e+15 -1.3755909e+16)
(-3.7615274e+17 3.328073e+15 -1.3567328e+16)
(-3.6884564e+17 1.9895196e+15 -1.3843556e+16)
(-3.6975353e+17 3.0693645e+15 -1.3604113e+16)
(-3.7820586e+17 3.3132593e+15 -1.1972809e+16)
(-3.6891695e+17 1.9844233e+15 -1.3679212e+16)
(-3.6901357e+17 2.5615563e+15 -1.4528911e+16)
(-3.7592254e+17 2.4653714e+15 -1.4308135e+16)
(-4.4302007e+17 6.381085e+15 -1.6906465e+16)
(-4.4758381e+17 6.5249288e+15 -1.439189e+16)
(-4.4125527e+17 5.9519328e+15 -1.7035108e+16)
(-4.454785e+17 5.6313821e+15 -1.4463683e+16)
(-4.4291864e+17 7.1989426e+15 -1.822009e+16)
(-4.4756785e+17 7.3214257e+15 -1.5529763e+16)
(-4.4180702e+17 7.5168796e+15 -1.8864239e+16)
(-4.4651387e+17 6.9453864e+15 -1.5969783e+16)
(-4.5746434e+17 8.2323808e+15 -1.7889815e+16)
(-4.5624167e+17 8.0645677e+15 -1.8457286e+16)
(-4.6178628e+17 8.6844421e+15 -2.2717935e+16)
(-4.6025704e+17 8.742557e+15 -2.3544915e+16)
(-5.4175286e+17 1.223e+16 -2.3413548e+16)
(-4.5741896e+17 7.4665884e+15 -1.6550853e+16)
(-4.5545927e+17 6.4965541e+15 -1.6700398e+16)
(-4.6004535e+17 7.0324329e+15 -2.1635532e+16)
(-4.6198389e+17 7.9310357e+15 -2.1326559e+16)
(-5.4166973e+17 1.1500887e+16 -2.1127874e+16)
(-5.3777114e+17 1.2682119e+16 -2.8668423e+16)
(-5.3658967e+17 1.3041595e+16 -2.7258527e+16)
(-3.7019759e+17 2.2145757e+15 -1.4230292e+16)
(-3.6032367e+17 3.5561271e+15 -1.4558066e+16)
(-3.7020564e+17 3.6718928e+15 -1.4157219e+16)
(-3.6022507e+17 1.8766989e+15 -1.4628366e+16)
(-3.6381362e+17 3.5064129e+15 -1.4020854e+16)
(-3.7448424e+17 3.8613581e+15 -1.2225016e+16)
(-3.744095e+17 2.0069224e+15 -1.2279375e+16)
(-3.6355556e+17 1.8153522e+15 -1.4134102e+16)
(-3.6974733e+17 1.4007964e+15 -1.4965712e+16)
(-3.6016879e+17 3.0290227e+15 -1.5426599e+16)
(-3.7023307e+17 3.0464971e+15 -1.4946764e+16)
(-3.5982208e+17 1.0732183e+15 -1.5486337e+16)
(-3.6361045e+17 2.878889e+15 -1.4880793e+16)
(-3.7434267e+17 3.1239308e+15 -1.2988982e+16)
(-3.6272342e+17 1.0369496e+15 -1.4962489e+16)
(-3.7337289e+17 1.2409408e+15 -1.3040237e+16)
(-3.5605911e+17 3.5021593e+15 -1.3365729e+16)
(-3.5612859e+17 1.7876899e+15 -1.3380018e+16)
(-3.6597368e+17 3.9018923e+15 -1.2854797e+16)
(-3.6596788e+17 2.0849825e+15 -1.2900422e+16)
(-3.6618218e+17 3.2857079e+15 -1.377956e+16)
(-3.6583915e+17 1.2538343e+15 -1.3789929e+16)
(-3.5614379e+17 2.7716946e+15 -1.4509661e+16)
(-3.5619546e+17 9.9309358e+14 -1.4534696e+16)
(-3.6902716e+17 3.1961568e+15 -1.3430533e+16)
(-4.7101905e+17 8.093706e+15 -1.9991814e+16)
(-4.6737538e+17 6.5623797e+15 -2.2695977e+16)
(-4.6811163e+17 8.2150905e+15 -2.2342586e+16)
(-4.7039781e+17 6.1956591e+15 -2.0234456e+16)
(-3.6918639e+17 2.1376412e+15 -1.4606179e+16)
(-4.7238706e+17 7.5657741e+15 -2.7613119e+16)
(-4.7532306e+17 7.4400892e+15 -2.7255521e+16)
(-4.7636969e+17 7.3781894e+15 -2.5256102e+16)
(-4.7311385e+17 7.2395369e+15 -2.5945796e+16)
(-4.7578275e+17 8.0050244e+15 -2.4653648e+16)
(-4.7653398e+17 9.4018759e+15 -2.4214108e+16)
(-4.7742712e+17 9.0855411e+15 -2.2931518e+16)
(-4.7682017e+17 7.4373342e+15 -2.3202528e+16)
(-4.3785389e+17 7.0455344e+15 -1.7699038e+16)
(-4.352825e+17 7.2797445e+15 -1.8276023e+16)
(-4.4353758e+17 7.2757135e+15 -1.5431591e+16)
(-4.4084486e+17 6.8630938e+15 -1.5849981e+16)
(-4.3670072e+17 8.2144695e+15 -1.7001159e+16)
(-4.4259041e+17 8.4309227e+15 -1.4809019e+16)
(-4.3664092e+17 7.8825153e+15 -1.7439551e+16)
(-4.4217404e+17 7.5542137e+15 -1.5219913e+16)
(-4.3256134e+17 7.6284703e+15 -1.5132001e+16)
(-4.426798e+17 8.3195446e+15 -1.0901249e+16)
(-4.3223071e+17 6.8717476e+15 -1.5595346e+16)
(-4.4225324e+17 6.6054216e+15 -1.1322878e+16)
(-4.3329791e+17 6.6290023e+15 -1.5897263e+16)
(-4.4339822e+17 7.237836e+15 -1.1643806e+16)
(-4.3096916e+17 6.3293178e+15 -1.6315498e+16)
(-4.4072223e+17 5.9965178e+15 -1.1978232e+16)
(-4.4341014e+17 7.628873e+15 -1.8765393e+16)
(-4.4834616e+17 7.9825415e+15 -1.5970739e+16)
(-4.4111327e+17 8.1025974e+15 -1.9481386e+16)
(-4.4551196e+17 7.6993176e+15 -1.6556603e+16)
(-4.5817981e+17 8.6864681e+15 -1.8488389e+16)
(-4.5549334e+17 8.661376e+15 -1.9144114e+16)
(-4.5974597e+17 9.2547513e+15 -2.4261911e+16)
(-4.6255326e+17 9.0200469e+15 -2.3321374e+16)
(-5.4308398e+17 1.3897665e+16 -2.4305536e+16)
(-4.5703686e+17 9.9946259e+15 -1.7307256e+16)
(-4.5663225e+17 9.229322e+15 -1.7804577e+16)
(-4.6048572e+17 9.8527749e+15 -2.2920592e+16)
(-4.6057434e+17 1.0456563e+16 -2.2421841e+16)
(-5.4221743e+17 1.4181887e+16 -2.3350478e+16)
(-4.4200858e+17 8.9187842e+15 -1.7791492e+16)
(-4.4717475e+17 9.1115981e+15 -1.5400097e+16)
(-4.4192902e+17 8.6570682e+15 -1.8288515e+16)
(-4.4688859e+17 8.301739e+15 -1.5785462e+16)
(-5.3748531e+17 1.3802591e+16 -2.9441719e+16)
(-5.3874482e+17 1.5443409e+16 -3.0857089e+16)
(-5.5017088e+17 1.8452468e+16 -3.7656616e+16)
(-5.4795513e+17 1.5280919e+16 -3.600728e+16)
(-5.4973807e+17 1.5136883e+16 -2.9764322e+16)
(-5.5143961e+17 1.66696e+16 -3.1148675e+16)
(-5.4971279e+17 1.4378769e+16 -3.5019122e+16)
(-5.4855292e+17 1.3875254e+16 -3.0284548e+16)
(-5.4885703e+17 1.362161e+16 -2.8374346e+16)
(-5.4914152e+17 1.4990133e+16 -3.4327123e+16)
(-4.959613e+17 1.1400004e+16 -2.6288868e+16)
(-4.9555499e+17 1.1810633e+16 -2.8837445e+16)
(-4.9448085e+17 1.1929252e+16 -2.9043194e+16)
(-4.9463893e+17 1.0904136e+16 -2.6766758e+16)
(-4.9370685e+17 1.1078425e+16 -3.1228218e+16)
(-4.9682423e+17 9.3287764e+15 -3.0994752e+16)
(-4.9453351e+17 9.3023734e+15 -3.0379579e+16)
(-4.9155065e+17 1.0269473e+16 -3.0460614e+16)
(-4.8303423e+17 9.6667072e+15 -2.6642502e+16)
(-4.8333821e+17 1.0367873e+16 -2.6261707e+16)
(-4.8613317e+17 1.0214214e+16 -2.3948835e+16)
(-4.8526973e+17 8.8766518e+15 -2.4490594e+16)
(-4.8500827e+17 8.5146735e+15 -2.7274682e+16)
(-4.8384865e+17 8.3510049e+15 -2.9313326e+16)
(-4.8078128e+17 8.9969612e+15 -2.9517769e+16)
(-4.8185968e+17 8.4069626e+15 -2.7490178e+16)
(-5.9808827e+17 2.2869742e+16 -3.4105956e+16)
(-6.0434297e+17 2.0689661e+16 -2.5956901e+16)
(-5.7980494e+17 2.4156541e+16 -4.567536e+16)
(-6.1406034e+17 2.1987171e+16 -3.192504e+16)
(-5.2507665e+17 1.6753557e+16 -2.4174095e+16)
(-5.2723554e+17 1.475811e+16 -1.9431919e+16)
(-5.1627492e+17 1.3021489e+16 -1.8597981e+16)
(-4.5264206e+17 6.2692027e+15 2.9195768e+16)
(-4.5285062e+17 9.1526893e+14 2.8589336e+16)
(-4.7039524e+17 7.6252841e+15 4.6575589e+16)
(-4.7050763e+17 9.4836409e+14 4.5852966e+16)
(-4.4982024e+17 6.0813202e+15 4.7984591e+15)
(-4.4728537e+17 3.072422e+15 4.7979433e+15)
(-4.6547242e+17 6.125757e+15 1.8607943e+16)
(-4.629679e+17 1.7289339e+15 1.8881447e+16)
(-4.473982e+17 6.127271e+15 5.4952526e+15)
(-4.6436118e+17 6.8148814e+15 1.9730087e+16)
(-4.4792533e+17 3.1577636e+15 5.1826606e+15)
(-4.6420159e+17 2.3807922e+15 1.9264266e+16)
(-4.5394615e+17 6.0955209e+15 2.7845597e+16)
(-4.7155642e+17 6.1692719e+15 4.4526265e+16)
(-4.5204853e+17 8.3582921e+14 2.8374763e+16)
(-4.6895657e+17 1.1394386e+14 4.5030575e+16)
(-4.3693469e+17 6.2478697e+15 -9.6482172e+15)
(-4.5363703e+17 7.1797402e+15 2.2942051e+14)
(-4.3639084e+17 5.2246093e+15 -9.9265169e+15)
(-4.5313429e+17 4.7838294e+15 -8.8589333e+13)
(-4.3206496e+17 7.1764369e+15 -1.4416088e+16)
(-4.2909407e+17 6.9237247e+15 -1.4880669e+16)
(-4.4257223e+17 7.4125254e+15 -1.0735079e+16)
(-4.3957271e+17 6.4469748e+15 -1.0981325e+16)
(-4.3199877e+17 6.8095347e+15 -1.4507409e+16)
(-4.4289797e+17 7.0885088e+15 -1.0765751e+16)
(-4.315893e+17 6.435513e+15 -1.4723872e+16)
(-4.422775e+17 6.0720362e+15 -1.1012435e+16)
(-4.3661755e+17 6.8697272e+15 -9.6008505e+15)
(-4.5280606e+17 7.518169e+15 -7.8260992e+13)
(-4.3407375e+17 5.7576041e+15 -9.8205649e+15)
(-4.500135e+17 5.1662375e+15 -1.7983283e+14)
(-4.34888e+17 5.9196467e+15 -8.6620273e+15)
(-4.3545096e+17 4.6988565e+15 -8.8089749e+15)
(-4.5259553e+17 6.8929861e+15 1.4796612e+15)
(-4.5255559e+17 4.2274444e+15 1.1783405e+15)
(-4.3303009e+17 6.7571551e+15 -1.3472845e+16)
(-4.4429981e+17 6.7417668e+15 -9.6221345e+15)
(-4.3018077e+17 6.1078538e+15 -1.3918545e+16)
(-4.4130521e+17 5.3773368e+15 -9.8817531e+15)
(-4.2924534e+17 6.8690443e+15 -1.3371325e+16)
(-4.4122419e+17 6.9498939e+15 -9.4268958e+15)