# Probe 0 (0.65 0.078 0)
# Probe 1 (0.65 0.1 0)
# Probe 2 (0.05 0.06 0)
# Probe 3 (1.02 0.01 0)
#         Probe               0               1               2               3
#          Time
              2               (43.884351 -0.41963067 1.4598518)               (43.884351 -0.41963067 1.4598518)               (0.12698131 0.00014695188 0.0051798713)               (44.828488 -0.37453838 0.10748432)
              4               (59.914144 -0.4924689 2.4775354)               (59.914144 -0.4924689 2.4775354)               (1.077606 0.003176982 0.050535029)               (62.512171 -0.39546163 0.033383425)
              6               (69.980644 -0.59910977 3.0744257)               (69.980644 -0.59910977 3.0744257)               (3.1373348 -0.034782989 0.11269969)               (74.298257 -0.52383169 0.21575991)
              8               (73.277464 -0.55242464 2.8258645)               (73.277464 -0.55242464 2.8258645)               (7.233947 -0.058279733 0.26232239)               (80.334712 -0.56480065 0.62463503)
             10               (71.515165 -0.39931517 1.9799395)               (71.515165 -0.39931517 1.9799395)               (7.3677154 0.0029212254 0.18554621)               (81.071857 -0.51860339 0.98009748)
             12               (70.869752 -0.32857349 0.53280371)               (70.869752 -0.32857349 0.53280371)               (8.6865463 0.049428479 0.10843347)               (82.94264 -0.51810372 1.3133298)
             14               (60.152321 -1.3908376 -0.89454878)               (60.152321 -1.3908376 -0.89454878)               (7.7567694 -0.33389421 -0.076798327)               (72.4028 -0.7301001 1.5437607)
             16               (58.663456 -2.788462 -2.8635746)               (58.663456 -2.788462 -2.8635746)               (9.5647526 -0.49778068 -0.14348218)               (70.980469 -1.89785 1.3339208)
             18               (50.221936 -2.0811296 -3.737496)               (50.221936 -2.0811296 -3.737496)               (10.566241 -0.49600844 -0.23487371)               (61.067713 -0.7437457 0.98519339)
             20               (52.570964 -1.6049934 -4.83505)               (52.570964 -1.6049934 -4.83505)               (13.632491 -0.44491014 -0.17841655)               (60.573282 -0.69953246 0.32919507)
             22               (52.065968 -2.4716466 -4.5577608)               (52.065968 -2.4716466 -4.5577608)               (16.769333 -0.65289319 -0.091182111)               (59.656323 -1.1022237 -0.27403132)
             24               (57.38577 -2.3937375 -4.5681291)               (57.38577 -2.3937375 -4.5681291)               (20.318032 -0.71059697 0.057187043)               (62.23758 -0.76566142 -1.1559626)
             26               (61.618558 -3.2636047 -3.8256163)               (61.618558 -3.2636047 -3.8256163)               (23.778677 -0.54262621 0.23418416)               (68.504698 -3.6673494 -1.6290109)
             28               (66.194865 6.3689857 -3.5208645)               (66.194865 6.3689857 -3.5208645)               (27.118053 0.37699062 0.44131561)               (71.271281 3.7581419 -2.1549022)
             30               (65.044222 -1.0765875 -3.0231794)               (65.044222 -1.0765875 -3.0231794)               (29.452584 -0.23484962 0.6269795)               (72.588436 -5.3498505 -2.3660705)
             32               (60.239319 -4.7891512 -2.9432175)               (60.239319 -4.7891512 -2.9432175)               (31.332344 -0.26183278 0.80784943)               (64.490562 -9.4481457 -2.7061707)
             34               (58.051558 -13.302952 -2.5695195)               (58.051558 -13.302952 -2.5695195)               (33.090144 -0.85803505 1.0099536)               (63.796346 -18.999906 -2.808408)
             36               (59.239269 -14.898366 -2.3410285)               (59.239269 -14.898366 -2.3410285)               (35.104499 -0.74572276 1.2331159)               (64.226153 -22.669153 -3.0413139)
             38               (49.695466 -1.3648826 -2.0009517)               (49.695466 -1.3648826 -2.0009517)               (36.34367 -0.62056284 1.4313416)               (46.635453 -3.3498096 -3.0143379)
             40               (61.124542 -9.7981111 -1.6884453)               (61.124542 -9.7981111 -1.6884453)               (38.189768 -0.6878807 1.6529729)               (65.01008 -14.814967 -3.0185254)
             42               (30.968827 7.4028594 -1.5823423)               (30.968827 7.4028594 -1.5823423)               (37.961558 -0.93262108 1.7574559)               (15.245679 15.077529 -3.3863766)
             44               (43.936178 0.63379892 -0.95681657)               (43.936178 0.63379892 -0.95681657)               (39.329 -0.63565293 1.9123416)               (-25.588293 15.679536 -0.082666898)
             46               (-13.159564 -78.054174 -1.2728441)               (-13.159564 -78.054174 -1.2728441)               (38.871725 -3.7893727 1.9543032)               (-93.344547 -83.256012 0.94705741)
             48               (-11.599257 -30.25696 -0.77152727)               (-11.599257 -30.25696 -0.77152727)               (40.25131 -1.6551363 2.021467)               (-89.01482 -66.861199 -1.7057114)
             50               (-83.330291 -162.03841 4.0487306)               (-83.330291 -162.03841 4.0487306)               (37.901564 -6.9938873 1.9535883)               (-88.93145 -91.056459 -10.834032)
             52               (-92.887134 -155.97763 6.0558346)               (-92.887134 -155.97763 6.0558346)               (39.913599 -3.7169576 2.0000838)               (-66.816689 -68.612624 -18.147203)
             54               (-154.97323 -219.69653 5.0929189)               (-154.97323 -219.69653 5.0929189)               (27.5109 -19.771837 1.4586989)               (-199.56961 -158.67523 -8.0551645)
             56               (-145.22128 -293.10135 2.7849623)               (-145.22128 -293.10135 2.7849623)               (30.696414 -33.454616 1.5385199)               (-183.21901 -283.01157 1.0508465)
             58               (-326.93213 -389.25576 2.8438677)               (-326.93213 -389.25576 2.8438677)               (-1.791025 -76.284696 -0.12516536)               (-396.41668 -323.56249 4.5596023)
             60               (-279.22811 -406.2156 4.9998064)               (-279.22811 -406.2156 4.9998064)               (8.3429433 -80.663648 0.14592506)               (-352.62132 -356.65328 5.1327252)
             62               (-425.58716 -459.78363 5.0261249)               (-425.58716 -459.78363 5.0261249)               (-21.851987 -118.33153 -0.72055202)               (-532.89541 -353.74286 7.7230534)
             64               (-397.49143 -438.88054 7.550815)               (-397.49143 -438.88054 7.550815)               (-18.290633 -124.91548 -0.52043649)               (-504.44027 -324.02858 10.847877)
             66               (-491.9026 -443.76452 7.8028453)               (-491.9026 -443.76452 7.8028453)               (-34.886726 -141.48364 -0.86536093)               (-596.301 -281.69682 17.644188)
             68               (-521.44452 -462.66627 9.3467694)               (-521.44452 -462.66627 9.3467694)               (-42.894384 -161.88137 -1.2437689)               (-624.97241 -286.34691 18.300382)
             70               (-513.10699 -399.60185 9.5474431)               (-513.10699 -399.60185 9.5474431)               (-40.864345 -159.04444 -1.3079499)               (-587.59919 -220.26477 25.132999)
             72               (-563.06442 -444.23301 10.355708)               (-563.06442 -444.23301 10.355708)               (-51.329429 -177.24128 -1.7057196)               (-644.45563 -260.2822 34.00343)
             74               (-517.51388 -365.03567 10.927907)               (-517.51388 -365.03567 10.927907)               (-49.468927 -176.28702 -1.7561624)               (-558.0115 -205.66703 52.760727)
             76               (-634.02883 -487.54707 10.961679)               (-634.02883 -487.54707 10.961679)               (-66.810379 -203.80824 -2.4586827)               (-732.99606 -281.43788 69.911283)
             78               (-597.39772 -380.49033 12.316726)               (-597.39772 -380.49033 12.316726)               (-70.048731 -206.77827 -2.7175134)               (-695.94963 -171.43655 81.039211)
             80               (-781.73299 -535.70479 15.169869)               (-781.73299 -535.70479 15.169869)               (-98.458627 -243.07817 -3.8308533)               (-1032.1748 -287.91221 87.180869)
             82               (-654.50445 -317.8869 19.385371)               (-654.50445 -317.8869 19.385371)               (-91.537233 -230.2865 -3.6433871)               (-942.05759 -119.26452 77.206316)
             84               (-911.69654 -538.28637 24.674029)               (-911.69654 -538.28637 24.674029)               (-125.55409 -270.65021 -4.9952342)               (-1414.3427 -318.83573 74.36192)
             86               (-907.62133 -397.45712 26.088252)               (-907.62133 -397.45712 26.088252)               (-139.68961 -282.76669 -5.5570949)               (-1412.4876 -223.44562 62.77706)
             88               (-1248.6881 -672.81729 26.172795)               (-1248.6881 -672.81729 26.172795)               (-185.45098 -335.17052 -7.4300941)               (-1727.8595 -347.88289 31.830399)
             90               (-1233.7132 -536.24678 32.306389)               (-1233.7132 -536.24678 32.306389)               (-197.01066 -347.88346 -7.9110031)               (-1680.1135 -280.22947 12.381783)
             92               (-1601.458 -799.66461 34.451493)               (-1601.458 -799.66461 34.451493)               (-248.56915 -405.51607 -10.048549)               (-1945.9902 -435.56075 -25.799001)
             94               (-1536.715 -610.69399 39.828055)               (-1536.715 -610.69399 39.828055)               (-257.68866 -411.06855 -10.423184)               (-1829.729 -359.41114 -36.88564)
             96               (-1915.983 -822.59698 24.394418)               (-1915.983 -822.59698 24.394418)               (-323.06527 -472.35047 -13.10612)               (-2098.204 -486.65755 -13.902656)
             98               (-1834.1175 -589.34766 20.72169)               (-1834.1175 -589.34766 20.72169)               (-344.54289 -480.87428 -13.98934)               (-1982.1387 -337.25932 7.0679806)
            100               (-2243.4055 -830.74426 2.600162)               (-2243.4055 -830.74426 2.600162)               (-424.51801 -545.44885 -17.24881)               (-2377.5883 -482.56895 21.712874)
            102               (-2048.4167 -431.56128 8.7399834)               (-2048.4167 -431.56128 8.7399834)               (-457.01713 -533.2874 -18.560669)               (-2110.3081 -207.22813 34.939982)
            104               (-2561.4915 -889.3341 1.5995004)               (-2561.4915 -889.3341 1.5995004)               (-546.67139 -609.38113 -22.191952)               (-2939.4577 -592.2837 62.701409)
            106               (-2076.8698 -136.46342 13.805206)               (-2076.8698 -136.46342 13.805206)               (-574.72356 -530.3451 -23.298998)               (-2329.9033 -118.32609 82.488446)
            108               (-2652.7576 -751.68138 0.8736759)               (-2652.7576 -751.68138 0.8736759)               (-682.67906 -584.68139 -27.323844)               (-3077.5512 -510.28763 144.5886)
            110               (-2451.8974 -356.94798 -2.3166665)               (-2451.8974 -356.94798 -2.3166665)               (-728.6559 -561.15606 -29.4439)               (-2909.3918 -305.11119 137.58582)
            112               (-3552.7093 -1124.3113 -2.4301822)               (-3552.7093 -1124.3113 -2.4301822)               (-910.35748 -636.22366 -36.443025)               (-3544.3639 -528.81661 132.06755)
            114               (-3595.4359 -877.2463 14.833596)               (-3595.4359 -877.2463 14.833596)               (-1001.1014 -618.12956 -40.373905)               (-3637.3759 -397.56086 89.343339)
            116               (-4305.7011 -1319.3507 7.0173321)               (-4305.7011 -1319.3507 7.0173321)               (-1169.5678 -667.82969 -47.284422)               (-4273.4604 -659.02453 40.570115)
            118               (-3793.9112 -1007.6461 14.244188)               (-3793.9112 -1007.6461 14.244188)               (-1042.7441 -585.08584 -43.148554)               (-3800.8601 -539.03164 32.917948)
            120               (-4960.1037 -1212.3994 -9.645938)               (-4960.1037 -1212.3994 -9.645938)               (-1422.0757 -613.21818 -56.513949)               (-5094.9875 -696.16728 49.310686)
            122               (-4586.1543 -245.08487 -3.6685354)               (-4586.1543 -245.08487 -3.6685354)               (-1352.9456 -419.74292 -53.980306)               (-4877.1244 -105.14841 56.883998)
            124               (-5882.6369 -705.17827 -31.722392)               (-5882.6369 -705.17827 -31.722392)               (-1537.8929 -332.27385 -60.335918)               (-6180.4053 -385.12883 62.498471)
            126               (-5632.8575 71.84743 -7.5581238)               (-5632.8575 71.84743 -7.5581238)               (-1482.4754 -286.40993 -57.019031)               (-6143.3759 114.23198 51.510101)
            128               (-6866.3755 -328.20223 -35.322308)               (-6866.3755 -328.20223 -35.322308)               (-1652.3731 -235.94354 -63.505932)               (-7158.0887 -116.9998 46.625629)
            130               (-6413.0543 447.71622 -4.5045793)               (-6413.0543 447.71622 -4.5045793)               (-1586.0569 -203.42926 -59.085724)               (-6886.246 366.25591 40.619378)
            132               (-7667.734 176.02939 -35.345433)               (-7667.734 176.02939 -35.345433)               (-1767.8413 -81.731929 -65.023926)               (-7978.4019 137.97818 43.66917)
            134               (-7059.9051 174.44791 -18.654612)               (-7059.9051 174.44791 -18.654612)               (-1854.5929 -152.04226 -67.968431)               (-7363.6882 140.55432 34.574191)
            136               (-8221.2716 -84.245115 -23.750349)               (-8221.2716 -84.245115 -23.750349)               (-1993.9948 -135.61141 -74.254066)               (-8495.5288 -44.539622 39.374917)
            138               (-7404.6309 -391.27044 -25.316932)               (-7404.6309 -391.27044 -25.316932)               (-2041.7349 -342.73611 -76.753563)               (-7620.4636 -233.89013 25.799373)
            140               (-8325.0662 -397.38483 -22.143367)               (-8325.0662 -397.38483 -22.143367)               (-2153.8815 -362.26292 -82.54376)               (-8544.6582 -219.16625 31.334421)
            142               (-7442.5524 -607.38187 0.092390473)               (-7442.5524 -607.38187 0.092390473)               (-2134.0654 -452.58155 -81.74611)               (-7582.1978 -378.7766 15.387885)
            144               (-7953.8953 -677.39879 -26.703451)               (-7953.8953 -677.39879 -26.703451)               (-2116.2875 -531.04175 -82.744785)               (-8198.7536 -417.81611 12.369871)
            146               (-6549.6714 -612.85657 -5.0502726)               (-6549.6714 -612.85657 -5.0502726)               (-1911.6479 -546.50861 -74.258495)               (-6841.1137 -412.63431 -7.542088)
            148               (-8175.1232 -393.05826 -62.83714)               (-8175.1232 -393.05826 -62.83714)               (-2113.9682 -502.46219 -81.793814)               (-8522.8009 -241.8704 -16.159637)
            150               (-6814.2653 -209.73261 -43.034348)               (-6814.2653 -209.73261 -43.034348)               (-1995.3694 -400.7336 -76.356206)               (-7265.1572 -170.7165 -42.343982)
            152               (-8629.3476 -751.21703 -113.48154)               (-8629.3476 -751.21703 -113.48154)               (-2235.8833 -490.9258 -85.65038)               (-8818.6234 -466.34691 -49.184737)
            154               (-7653.326 -247.18717 -77.004754)               (-7653.326 -247.18717 -77.004754)               (-2398.1681 -457.33646 -89.535269)               (-7826.0633 -148.49909 -68.606095)
            156               (-9222.2471 -318.58802 -135.56433)               (-9222.2471 -318.58802 -135.56433)               (-2659.8333 -467.01062 -103.40502)               (-9303.5906 -184.23168 -57.733539)
            158               (-8955.7866 -306.39054 -107.18686)               (-8955.7866 -306.39054 -107.18686)               (-2906.1883 -508.15187 -113.68058)               (-8852.2203 -202.95775 -60.48984)
            160               (-10753.196 -599.2272 -152.74226)               (-10753.196 -599.2272 -152.74226)               (-3238.8588 -508.91373 -130.5425)               (-10839.966 -400.29569 -34.337814)
            162               (-10405.653 -561.70659 -112.78581)               (-10405.653 -561.70659 -112.78581)               (-3317.2308 -544.00662 -136.04823)               (-10417.454 -368.0716 -28.961235)
            164               (-11493.831 -442.96973 -129.07055)               (-11493.831 -442.96973 -129.07055)               (-3616.8349 -470.24531 -150.91046)               (-11606.318 -296.74482 -4.8439027)
            166               (-10602.873 -382.9236 -85.376567)               (-10602.873 -382.9236 -85.376567)               (-3612.1298 -428.37792 -151.73713)               (-10672.344 -258.59144 -6.3337381)
            168               (-11942.207 -321.99891 -117.99554)               (-11942.207 -321.99891 -117.99554)               (-3786.84 -355.72215 -161.4199)               (-12247.502 -229.96983 10.799607)
            170               (-10283.727 155.51856 -82.767249)               (-10283.727 155.51856 -82.767249)               (-3504.5663 -186.0113 -149.6052)               (-10774.789 35.396725 3.6787856)
            172               (-12493.872 -87.235455 -124.62189)               (-12493.872 -87.235455 -124.62189)               (-3930.4252 -154.41617 -164.28136)               (-12893.845 -66.296295 19.229688)
            174               (-9686.6558 -228.30653 -66.446551)               (-9686.6558 -228.30653 -66.446551)               (-3612.3709 -209.69435 -148.23247)               (-10245.576 -164.31562 6.4742331)
            176               (-11810.767 299.03485 -167.7092)               (-11810.767 299.03485 -167.7092)               (-3676.9183 -194.27612 -152.36667)               (-12266.138 214.07538 16.267955)
            178               (-10032.501 677.87771 -139.07944)               (-10032.501 677.87771 -139.07944)               (-3735.986 -122.75067 -148.157)               (-10579.484 490.45277 -17.446849)
            180               (-12582.294 321.01024 -167.52492)               (-12582.294 321.01024 -167.52492)               (-4101.4557 -105.15237 -163.9192)               (-12854.343 210.21513 4.8461066)
            182               (-12143.199 228.92359 -106.76298)               (-12143.199 228.92359 -106.76298)               (-4474.8395 -147.21287 -176.0016)               (-12274.225 185.7252 -19.098294)
            184               (-14074.833 332.64838 -152.26783)               (-14074.833 332.64838 -152.26783)               (-4652.062 -145.66173 -188.82039)               (-14385.989 237.08475 -13.644733)
            186               (-13354.59 345.8642 -112.43422)               (-13354.59 345.8642 -112.43422)               (-4889.1162 -75.961401 -198.06494)               (-13389.977 254.06055 -38.815511)
            188               (-15092.566 -351.67661 -147.19616)               (-15092.566 -351.67661 -147.19616)               (-5134.4562 -191.66381 -213.49659)               (-15362.499 -242.02774 -32.616675)
            190               (-12861.528 -236.38543 -78.887955)               (-12861.528 -236.38543 -78.887955)               (-4844.1909 -200.64769 -202.32454)               (-12990.969 -201.57877 -48.804254)
            192               (-15278.767 -426.22071 -195.30197)               (-15278.767 -426.22071 -195.30197)               (-5381.2985 -269.03219 -224.67601)               (-15411.493 -303.59536 -35.272953)
            194               (-13735.447 49.27359 -163.5808)               (-13735.447 49.27359 -163.5808)               (-5376.4483 -170.2459 -221.62708)               (-13863.719 -21.225879 -48.213686)
            196               (-16727.508 -559.9579 -233.14991)               (-16727.508 -559.9579 -233.14991)               (-5871.6527 -294.90827 -243.05546)               (-17067.729 -391.54094 0.54010197)
            198               (-14030.951 -625.2194 -153.08775)               (-14030.951 -625.2194 -153.08775)               (-5677.2297 -367.91412 -229.13904)               (-14303.926 -463.81619 4.1252026)
            200               (-15675.552 -676.71322 -219.26729)               (-15675.552 -676.71322 -219.26729)               (-5789.8842 -398.61318 -237.6456)               (-16065.734 -479.56795 36.362688)
            202               (-14472.008 498.51897 -202.12529)               (-14472.008 498.51897 -202.12529)               (-5769.6656 -261.8097 -233.26199)               (-14899.355 288.73137 5.4559611)
            204               (-17179.985 -373.80445 -204.60018)               (-17179.985 -373.80445 -204.60018)               (-6007.3536 -261.42199 -244.85126)               (-17781.382 -312.08708 23.372142)
            206               (-16204.25 1078.3757 -134.26631)               (-16204.25 1078.3757 -134.26631)               (-6344.0307 -36.646132 -251.89161)               (-16568.028 643.48385 -11.298407)
            208               (-17838.405 727.03538 -170.89615)               (-17838.405 727.03538 -170.89615)               (-6605.6044 34.13957 -268.29029)               (-18206.008 327.30842 -12.607033)
            210               (-16378.202 147.04774 -104.03071)               (-16378.202 147.04774 -104.03071)               (-6391.1584 -105.83864 -257.42598)               (-16880.53 -12.595882 -46.179273)
            212               (-19052.405 65.958743 -180.08526)               (-19052.405 65.958743 -180.08526)               (-6625.7143 -66.813134 -270.55713)               (-19650.67 -40.078507 -40.254341)
            214               (-17267.813 -230.58609 -129.76737)               (-17267.813 -230.58609 -129.76737)               (-6705.9503 -152.12214 -267.35809)               (-17894.28 -224.32304 -58.874342)
            216               (-20116.684 -762.41363 -192.40959)               (-20116.684 -762.41363 -192.40959)               (-7042.0246 -370.02719 -288.45027)               (-20571.195 -474.18151 -35.427345)
            218               (-17948.88 -946.61912 -118.77166)               (-17948.88 -946.61912 -118.77166)               (-7048.9889 -536.94097 -284.39472)               (-18247.947 -578.948 -45.095144)
            220               (-19833.999 -1294.8906 -199.73505)               (-19833.999 -1294.8906 -199.73505)               (-7235.7407 -535.06398 -299.82072)               (-20415.7 -865.69217 -24.333197)
            222               (-19132.416 -1471.0426 -128.35149)               (-19132.416 -1471.0426 -128.35149)               (-7595.4586 -548.79693 -308.91579)               (-19371.157 -995.87467 -40.810358)
            224               (-21764.672 -841.1555 -211.144)               (-21764.672 -841.1555 -211.144)               (-7978.5142 -525.56433 -333.09208)               (-22333.459 -527.92805 -25.563883)
            226               (-19372.557 -509.02497 -157.70431)               (-19372.557 -509.02497 -157.70431)               (-7788.5378 -552.36756 -324.3783)               (-19675.232 -273.57702 -48.758736)
            228               (-21932.227 -1465.8839 -242.08744)               (-21932.227 -1465.8839 -242.08744)               (-8053.6635 -835.47932 -341.07843)               (-22613.172 -910.40166 -42.582732)
            230               (-19021.478 -1297.256 -208.00152)               (-19021.478 -1297.256 -208.00152)               (-7867.8565 -855.99245 -332.16817)               (-19409.465 -830.60497 -82.250442)
            232               (-22764.395 -1815.7908 -267.71736)               (-22764.395 -1815.7908 -267.71736)               (-8388.6637 -1016.8646 -357.19338)               (-23316.496 -1142.5865 -69.650589)
            234               (-19198.611 -618.98604 -252.02023)               (-19198.611 -618.98604 -252.02023)               (-7885.4224 -781.72903 -334.62285)               (-19853.565 -433.4888 -117.19487)
            236               (-23465.471 -1802.7674 -363.29665)               (-23465.471 -1802.7674 -363.29665)               (-8395.9253 -958.17428 -358.03492)               (-23971.724 -1110.7238 -93.408489)
            238               (-21514.171 390.13495 -366.78765)               (-21514.171 390.13495 -366.78765)               (-8734.8971 -622.17254 -365.82638)               (-21740.117 287.38463 -130.58846)
            240               (-25196.65 -542.67875 -349.36876)               (-25196.65 -542.67875 -349.36876)               (-9391.965 -395.31463 -397.65827)               (-25237.684 -369.49396 -88.065616)
            242               (-22856.444 -1.1190437 -229.90058)               (-22856.444 -1.1190437 -229.90058)               (-9525.7709 -326.52485 -393.32773)               (-22682.723 6.9132165 -104.1743)
            244               (-26082.815 -816.35412 -346.96898)               (-26082.815 -816.35412 -346.96898)               (-9922.674 -315.82856 -417.83689)               (-26289.874 -503.93446 -79.625489)
            246               (-23298.643 -422.35573 -302.80751)               (-23298.643 -422.35573 -302.80751)               (-9986.3385 -435.21847 -417.22366)               (-23378.496 -263.81257 -108.92092)
            248               (-26553.84 -328.23294 -357.35823)               (-26553.84 -328.23294 -357.35823)               (-10281.566 -258.07886 -437.77696)               (-27130.242 -226.01398 -71.568253)
            250               (-21974.85 -474.82254 -266.12024)               (-21974.85 -474.82254 -266.12024)               (-9808.8146 -318.77833 -411.87037)               (-22777.74 -305.84125 -94.424904)
            252               (-27898.352 -90.714801 -430.6891)               (-27898.352 -90.714801 -430.6891)               (-10525.858 -427.04224 -445.61145)               (-28629.926 31.105788 -44.002045)
            254               (-25297.38 778.48569 -361.19542)               (-25297.38 778.48569 -361.19542)               (-10407.344 -344.85148 -435.79417)               (-26365.298 582.02272 -69.30933)
            256               (-31476.931 581.33253 -404.65276)               (-31476.931 581.33253 -404.65276)               (-11044.457 -311.56647 -467.85595)               (-32148.866 356.31241 -2.4916418)
            258               (-30930.57 158.22136 -218.8179)               (-30930.57 158.22136 -218.8179)               (-11976.281 -387.97509 -494.08673)               (-31261.028 110.99814 -18.987841)
            260               (-34923.802 544.72339 -303.94352)               (-34923.802 544.72339 -303.94352)               (-12571.088 -322.33037 -531.13683)               (-35368.769 396.93758 9.8492789)
            262               (-32676.862 584.98936 -161.13726)               (-32676.862 584.98936 -161.13726)               (-12665.828 -83.065141 -531.08736)               (-32921.884 341.72278 -17.075309)
            264               (-36539.683 727.94422 -284.14468)               (-36539.683 727.94422 -284.14468)               (-13141.817 -104.59115 -555.9025)               (-37242.344 511.56715 -8.7835675)
            266               (-32680.921 -1255.2343 -151.66303)               (-32680.921 -1255.2343 -151.66303)               (-13000.554 -280.58857 -545.00359)               (-33048.668 -888.36049 -52.381268)
            268               (-37831.576 -1304.5911 -339.13974)               (-37831.576 -1304.5911 -339.13974)               (-13856.018 -368.98354 -586.2256)               (-38452.371 -810.47098 -42.051795)
            270               (-33944.492 -2139.9941 -279.73495)               (-33944.492 -2139.9941 -279.73495)               (-13630.442 -453.0167 -574.27817)               (-34733.66 -1376.3028 -100.25903)
            272               (-38284.952 785.72139 -442.99822)               (-38284.952 785.72139 -442.99822)               (-14025.932 25.568215 -599.53174)               (-39229.04 528.96209 -67.678581)
            274               (-34707.564 2991.8392 -379.78573)               (-34707.564 2991.8392 -379.78573)               (-13978.408 689.97551 -580.92083)               (-35434.922 1965.4868 -121.28815)
            276               (-40219.446 2494.7117 -501.63872)               (-40219.446 2494.7117 -501.63872)               (-15039.424 751.25465 -624.51274)               (-41065.457 1539.335 -71.740393)
            278               (-37479.793 3552.0169 -414.85508)               (-37479.793 3552.0169 -414.85508)               (-15466.798 1052.3719 -633.10745)               (-37742.498 2319.3872 -127.95632)
            280               (-42026.58 3925.2421 -528.83082)               (-42026.58 3925.2421 -528.83082)               (-16289.018 1312.8877 -675.16613)               (-42722.346 2462.6006 -84.180226)
            282               (-35528.494 1258.8279 -390.94811)               (-35528.494 1258.8279 -390.94811)               (-15481.765 890.46308 -634.79399)               (-35859.371 877.11216 -163.9146)
            284               (-39747.339 292.8813 -563.34031)               (-39747.339 292.8813 -563.34031)               (-16077.222 605.1374 -665.40834)               (-40217.813 148.97664 -119.68779)