/*--------------------------------*- C++ -*----------------------------------*\
  =========                 |
  \\      /  F ield         | OpenFOAM: The Open Source CFD Toolbox
   \\    /   O peration     | Website:  https://openfoam.org
    \\  /    A nd           | Version:  7
     \\/     M anipulation  |
\*---------------------------------------------------------------------------*/
FoamFile
{
    version     2.0;
    format      ascii;
    class       volScalarField;
    location    "2000";
    object      k;
}
// * * * * * * * * * * * * * * * * * * * * * * * * * * * * * * * * * * * * * //

dimensions      [0 2 -2 0 0 0 0];

internalField   nonuniform List<scalar> 
34377
(
1.5227602
1.5195883
1.5227821
1.5225219
1.5235349
1.5211979
1.5233548
1.5243321
1.5232368
1.5234115
1.5193708
1.5195771
1.5197395
1.5193266
1.5200815
1.520753
1.5229303
1.5222876
1.5225905
1.5231782
1.5225139
1.5219956
1.5226801
1.5230782
1.5219372
1.5199356
1.5213568
1.5233055
1.5234817
1.5233343
1.5231975
1.5244942
1.52466
1.5249658
1.5247943
1.5245235
1.5233313
1.5225834
1.5230305
1.5208561
1.5214873
1.5228345
1.523114
1.519594
1.5196025
1.5193727
1.5190909
1.5190206
1.5201354
1.5195862
1.5195004
1.5197456
1.519697
1.5197829
1.5197642
1.5197263
1.5191931
1.5188968
1.5194958
1.5196645
1.5201482
1.5197059
1.5202382
1.5204278
1.5199367
1.5206157
1.5210053
1.5218051
1.5220634
1.5224131
1.522606
1.5228129
1.5221968
1.5222154
1.5228186
1.5221835
1.5227798
1.5221152
1.5227363
1.5219445
1.5224527
1.5214653
1.5221014
1.5199628
1.5193239
1.5196902
1.5202275
1.5209884
1.5204272
1.5209317
1.521459
1.5234988
1.5241401
1.524533
1.5242727
1.52389
1.5228809
1.5231255
1.5230462
1.5227718
1.5228306
1.5227831
1.5230432
1.5230714
1.5233848
1.5229929
1.5229747
1.5225759
1.5226129
1.5232807
1.5231925
1.5231244
1.5251548
1.5247058
1.5249775
1.5248413
1.5230375
1.5229691
1.5225383
1.5226453
1.5219958
1.5224084
1.5227027
1.522654
1.5200261
1.5197343
1.5203485
1.5208041
1.5225455
1.522323
1.5227387
1.5227325
1.5197948
1.5195641
1.5196057
1.5196143
1.5193362
1.5191024
1.5192133
1.5193177
1.5188715
1.5189378
1.5196489
1.5195939
1.5203668
1.5202892
1.5195853
1.5196214
1.5195854
1.5196328
1.5193731
1.5195428
1.5201222
1.5194007
1.5199274
1.5199553
1.5194946
1.519689
1.5197666
1.5197553
1.5197273
1.5196555
1.5192779
1.5187448
1.5192279
1.518641
1.5191115
1.5186558
1.5191085
1.5192493
1.519362
1.5192587
1.5194851
1.5196891
1.5196572
1.5196408
1.5196912
1.5196376
1.519702
1.5202094
1.5203448
1.5197116
1.5197185
1.519704
1.519715
1.5197229
1.5197099
1.5203892
1.5203837
1.5199001
1.5202865
1.5206414
1.5203496
1.5196375
1.519692
1.5199882
1.520034
1.5213298
1.5215435
1.5220977
1.5219652
1.5216689
1.5217028
1.5222982
1.5222804
1.521787
1.5217879
1.5224475
1.5224407
1.5218047
1.5218202
1.5224613
1.5224567
1.5224336
1.5217993
1.5217561
1.5224193
1.5217133
1.521689
1.5223507
1.5223787
1.5216214
1.5215526
1.5222097
1.5221662
1.5218587
1.5213259
1.5209163
1.5215873
1.5193016
1.5195368
1.5193362
1.5189659
1.5194587
1.5195033
1.5197788
1.5197475
1.5204905
1.5203419
1.5198989
1.5200764
1.5209805
1.5195401
1.5193913
1.5196481
1.5205101
1.5197819
1.5197769
1.5200278
1.5197683
1.519493
1.5200556
1.5203572
1.5205154
1.5207626
1.5204216
1.5244551
1.5241816
1.5245097
1.524805
1.5224755
1.5222431
1.5223611
1.5225586
1.5226567
1.5226525
1.5227494
1.5227527
1.5226851
1.5226393
1.5226428
1.5226874
1.5222936
1.5224776
1.5222385
1.5225039
1.5223004
1.5225014
1.5222549
1.5225191
1.5225467
1.5223197
1.5222986
1.5225479
1.5228248
1.5226963
1.5226914
1.5227055
1.52306
1.5227098
1.5226595
1.5226553
1.5226848
1.5226877
1.5230125
1.5227509
1.5226478
1.5225827
1.5226247
1.5226065
1.5226277
1.5226632
1.5226358
1.5226715
1.52299
1.5224423
1.5224253
1.5223891
1.5223854
1.5219845
1.522947
1.5232644
1.522716
1.5227678
1.5230199
1.5229809
1.5229325
1.5229557
1.5227114
1.5226679
1.5226223
1.5225733
1.5226479
1.5226043
1.5226051
1.5225585
1.5219099
1.5223545
1.5223641
1.5219706
1.5219107
1.5223445
1.5224107
1.5220397
1.521479
1.5218046
1.5221425
1.5220916
1.5223511
1.5223329
1.5222948
1.5222632
1.5196645
1.5196999
1.5192448
1.519477
1.5198862
1.5199354
1.520562
1.5202168
1.5222049
1.522226
1.5218778
1.5220351
1.5223737
1.5223777
1.5223575
1.5223649
1.5201701
1.5197397
1.5197795
1.5196133
1.5195909
1.5196289
1.5189297
1.5192544
1.5193462
1.5196497
1.5196412
1.5196615
1.5196481
1.5196114
1.5195917
1.5196261
1.519596
1.5197614
1.5197419
1.5204589
1.5205125
1.5204339
1.5203869
1.5197283
1.5196845
1.5195937
1.5196363
1.5194155
1.5193689
1.5194639
1.5193925
1.5192688
1.5200934
1.5195864
1.5203554
1.5195041
1.520273
1.5193125
1.5198375
1.5198774
1.5194131
1.5196826
1.5196533
1.519691
1.5197576
1.5197548
1.5197274
1.5197196
1.5197117
1.5196147
1.5191908
1.5187019
1.5191577
1.5185241
1.518579
1.5187921
1.5188356
1.5190537
1.5191042
1.5191353
1.5190934
1.518464
1.518837
1.5184522
1.5189112
1.5190048
1.51905
1.5190552
1.5191062
1.5191779
1.5192438
1.5192582
1.5191969
1.5192521
1.5193314
1.5193812
1.5193419
1.519126
1.5191497
1.5191913
1.5192313
1.519319
1.5193212
1.5191994
1.5195492
1.5196439
1.5196939
1.5196248
1.5196597
1.51961
1.5196687
1.519698
1.519703
1.5197018
1.5197099
1.5201925
1.5203623
1.5196582
1.5197439
1.5204363
1.5204468
1.5197844
1.5197875
1.5197063
1.5197169
1.5197204
1.5197213
1.5197242
1.5197258
1.5197134
1.5197057
1.5197199
1.5197081
1.5198075
1.5204971
1.5198084
1.5204875
1.5198086
1.5197898
1.5205063
1.5205019
1.5196598
1.5197029
1.5200092
1.5199738
1.5198985
1.5202808
1.5201826
1.5204776
1.5194628
1.5194864
1.519709
1.5197233
1.5197582
1.5195082
1.519535
1.5197759
1.5207844
1.5206335
1.5216476
1.521725
1.5209488
1.5208952
1.5218854
1.5219038
1.5209908
1.5209914
1.5220436
1.5220503
1.5210506
1.5210151
1.5220732
1.5220815
1.5210747
1.521089
1.5221821
1.5221856
1.5210678
1.5210526
1.5221923
1.5221926
1.5222063
1.5210838
1.521075
1.5222065
1.5211345
1.5211028
1.5222128
1.5222111
1.521083
1.5211282
1.5221891
1.5221836
1.5210295
1.5210271
1.5221634
1.5221572
1.5209972
1.5221218
1.5209742
1.5221152
1.5220939
1.5209638
1.5209777
1.5220834
1.5209343
1.5209754
1.522005
1.521996
1.5219551
1.5208824
1.5208598
1.5219275
1.5206446
1.5207642
1.5217073
1.5216671
1.5200733
1.5203944
1.5214005
1.5212381
1.5191611
1.5192097
1.5193542
1.5193791
1.518647
1.5189781
1.5190007
1.5191531
1.5195226
1.5193063
1.5193265
1.5195342
1.5193479
1.5193721
1.5195628
1.5195753
1.5203278
1.5199394
1.5203713
1.5200271
1.5203147
1.5199557
1.519885
1.5202854
1.5203042
1.5196655
1.519663
1.5196209
1.5197039
1.5199153
1.5197004
1.519658
1.5197245
1.5197647
1.5197313
1.5201192
1.5193282
1.5193678
1.5193251
1.5193025
1.519441
1.5194793
1.5196544
1.5194722
1.5195074
1.5194895
1.5195083
1.5195583
1.5194774
1.51953
1.5192716
1.5193835
1.5194798
1.5195921
1.5195589
1.5196998
1.5196703
1.5195661
1.5195223
1.5195951
1.5195541
1.5193638
1.5193869
1.5197114
1.5197563
1.5198109
1.5197696
1.5198043
1.5197576
1.5198949
1.5199372
1.5200946
1.5200051
1.5203805
1.5204236
1.5204377
1.5200748
1.5202321
1.5205405
1.5197048
1.5197669
1.5200866
1.5199903
1.5220574
1.5220738
1.5221375
1.5221516
1.5217328
1.5218216
1.521902
1.5219675
1.52179
1.5219117
1.5219538
1.5220491
1.5221203
1.5222218
1.5221384
1.5222375
1.5222077
1.522201
1.5222962
1.5222895
1.5221896
1.5222788
1.522195
1.5222836
1.5222612
1.5223741
1.5222675
1.5223798
1.5222804
1.5222747
1.5223924
1.5223868
1.5221239
1.5222157
1.5221274
1.5222196
1.5220907
1.522092
1.5221604
1.5221625
1.5221036
1.5220952
1.5221745
1.5221655
1.5221396
1.522132
1.5222321
1.5222242
1.5216786
1.5217726
1.5218471
1.5219221
1.52197
1.5219843
1.5220348
1.5220467
1.5216582
1.5217262
1.5218226
1.5218754
1.5220001
1.5220151
1.5220826
1.5220952
1.5216367
1.5217121
1.5217974
1.5218579
1.5219549
1.521971
1.5219968
1.5220094
1.5216514
1.5216972
1.5218112
1.521842
1.521945
1.5219596
1.5220125
1.5220241
1.5220051
1.5220236
1.522024
1.5220384
1.5216937
1.5217255
1.5218599
1.5218724
1.5217931
1.5219506
1.5218531
1.5223494
1.5220297
1.5221051
1.5221229
1.522574
1.5222028
1.5221827
1.5223101
1.522547
1.5222326
1.5222302
1.5227245
1.5223117
1.5223135
1.5222253
1.5222232
1.5227198
1.5223026
1.5223064
1.5221204
1.5221419
1.5221179
1.5221404
1.5226782
1.5226836
1.5221276
1.5221504
1.5221243
1.5221449
1.5220789
1.522126
1.5220728
1.5221182
1.5220705
1.5221162
1.5220685
1.522115
1.5220623
1.5221351
1.5220614
1.5221353
1.5220726
1.522147
1.5220648
1.5221378
1.522685
1.5226784
1.5227015
1.5227074
1.5223598
1.5223467
1.5225634
1.5225679
1.5220396
1.5221129
1.5220062
1.5220844
1.5219867
1.5219487
1.5220335
1.5219963
1.5220467
1.5220926
1.5220098
1.5220607
1.5219796
1.5219404
1.5220547
1.5220169
1.5221441
1.5221098
1.5226605
1.52219
1.5222257
1.5222046
1.5221669
1.5226895
1.5222448
1.5222878
1.5220374
1.5220595
1.522001
1.5220238
1.5220986
1.5221183
1.5220584
1.5220837
1.5226547
1.5226274
1.5220496
1.5219946
1.5220767
1.522138
1.5219489
1.5219566
1.52189
1.5219038
1.5216115
1.5218813
1.5219408
1.5218242
1.5218887
1.5218907
1.521928
1.5218337
1.5218757
1.5215727
1.5216205
1.5211519
1.521241
1.5226745
1.5226531
1.522634
1.5226524
1.5229385
1.522737
1.5227419
1.5228482
1.5229045
1.522372
1.5223891
1.5226128
1.5226082
1.5225882
1.5223616
1.5223838
1.5225867
1.5227057
1.5226916
1.5226989
1.5227125
1.5227234
1.5227165
1.5227301
1.5227227
1.5226871
1.5226792
1.5226744
1.5226746
1.5226605
1.5226457
1.5226585
1.5222546
1.522364
1.5222334
1.5223467
1.5221952
1.5221604
1.5223081
1.5222778
1.5221791
1.5222685
1.5221548
1.522248
1.5221191
1.5222095
1.5220817
1.5221759
1.5221091
1.5220823
1.5222011
1.522178
1.522049
1.5220102
1.5221427
1.5221065
1.5220708
1.5221419
1.5220413
1.5221164
1.5220115
1.521972
1.5220832
1.5220458
1.5215905
1.5211773
1.5216306
1.5212616
1.5219044
1.521848
1.5219652
1.5219136
1.5219378
1.5218815
1.5220108
1.5219603
1.5216095
1.5212082
1.5216747
1.5213238
1.5216636
1.5217181
1.5212825
1.5213942
1.521994
1.5220679
1.521939
1.5220195
1.5220601
1.5221478
1.522007
1.5221025
1.5217162
1.5218035
1.521363
1.521509
1.5213623
1.5211752
1.5216689
1.5216234
1.5219619
1.5219512
1.5219112
1.5218824
1.5221409
1.522134
1.5221126
1.5221078
1.5220709
1.522063
1.522042
1.5220334
1.5194808
1.5194942
1.5195194
1.5195348
1.5189462
1.5191278
1.5193199
1.5193487
1.5196575
1.519674
1.5197051
1.5197258
1.520201
1.5204374
1.5199068
1.5199474
1.5219992
1.5220061
1.5220278
1.5220398
1.5215985
1.5216872
1.5218451
1.5218678
1.5221642
1.5221653
1.5221568
1.5221567
1.5221329
1.5221356
1.5221445
1.522142
1.5201857
1.519816
1.5197692
1.5197376
1.5197432
1.5195991
1.5196297
1.5196168
1.5196373
1.5196031
1.5192524
1.5193196
1.5193556
1.5194283
1.5193746
1.5194574
1.5193966
1.5196577
1.519646
1.519671
1.5196648
1.5196646
1.5196611
1.5196508
1.5196489
1.5196553
1.5196519
1.5196246
1.5195986
1.5196377
1.5196314
1.5196339
1.5196291
1.5196074
1.5195972
1.5196162
1.5195987
1.5196859
1.519675
1.5196667
1.5196757
1.5196534
1.5196578
1.5196606
1.5196674
1.5198906
1.5203567
1.5203487
1.5198809
1.5204486
1.5199439
1.5199148
1.5204053
1.5198721
1.5198626
1.5203202
1.5203346
1.5203085
1.5198529
1.5198218
1.5203044
1.5196363
1.5196412
1.5196443
1.5196513
1.5195992
1.5196209
1.5196044
1.5196305
1.5195884
1.5196042
1.5196159
1.5195927
1.5196316
1.5196379
1.5196482
1.5196383
1.5194694
1.5194792
1.5195001
1.5194836
1.5194415
1.5194187
1.5193991
1.5194084
1.5192913
1.5192565
1.5191712
1.5191861
1.5201421
1.5195988
1.5194652
1.5200117
1.5194924
1.5195136
1.5195325
1.5195081
1.5203083
1.5197965
1.5197686
1.5202764
1.5194765
1.5194558
1.5194145
1.5194255
1.5196732
1.5197384
1.5202352
1.5201912
1.5192395
1.5192245
1.5192092
1.5198299
1.51987
1.5193441
1.5192923
1.5193532
1.5196921
1.5196592
1.5196754
1.5196557
1.5196959
1.5197156
1.5197224
1.5197248
1.519723
1.5197148
1.5196067
1.5192393
1.5186697
1.5188066
1.5185595
1.5190963
1.519111
1.5190776
1.5185368
1.5188435
1.5190449
1.5190817
1.5183158
1.5186283
1.5186093
1.5184226
1.5188318
1.5188625
1.5188122
1.5188621
1.518214
1.518182
1.5186191
1.5186744
1.5187993
1.5188608
1.5188714
1.5189417
1.5189675
1.5190164
1.5190047
1.518986
1.5190425
1.5190555
1.5190067
1.5190283
1.5189489
1.5189725
1.5190192
1.519046
1.5189919
1.5190667
1.519017
1.5190921
1.519165
1.5191827
1.5192346
1.5193262
1.5191242
1.5191322
1.519089
1.519102
1.5191451
1.5191507
1.5191129
1.519122
1.5190742
1.5190923
1.519156
1.5191829
1.5191146
1.5191036
1.5191982
1.5192158
1.5192745
1.5193372
1.5193365
1.5192334
1.5191433
1.5191645
1.5192711
1.5192978
1.5191997
1.5191887
1.5191518
1.5191687
1.5192297
1.5193614
1.5193977
1.5196173
1.5196602
1.5196376
1.5196667
1.519628
1.5196205
1.5196702
1.5196954
1.5196919
1.5197031
1.5196977
1.5197024
1.519709
1.5196246
1.5196038
1.5195885
1.5196269
1.519669
1.5196699
1.5196751
1.5196786
1.519703
1.5197029
1.5197065
1.5197049
1.5197107
1.5197123
1.5197118
1.5197147
1.5200212
1.5196843
1.5197855
1.5201668
1.5202562
1.5198522
1.5198741
1.5203027
1.5196264
1.5195766
1.5196287
1.5195659
1.5196797
1.5196674
1.5196865
1.5196707
1.5203382
1.5199072
1.5199118
1.5203457
1.5203623
1.5199259
1.5199268
1.5203832
1.5197068
1.5197023
1.519713
1.5197075
1.5197156
1.5197119
1.519723
1.5197187
1.5197046
1.5197106
1.5197141
1.5197045
1.5197191
1.5197083
1.5197179
1.5197173
1.5197206
1.5197198
1.5197239
1.5197252
1.5197261
1.5197252
1.5197262
1.5197279
1.5197291
1.5197274
1.5197272
1.5197288
1.5197251
1.5197224
1.5197237
1.5197215
1.5197124
1.5197084
1.5197161
1.5197091
1.5197284
1.5197264
1.5197326
1.5197354
1.5204112
1.51995
1.5199518
1.5204096
1.5197292
1.5197296
1.5197376
1.5197368
1.5199414
1.5199458
1.5203884
1.5203925
1.5197245
1.5197264
1.5197346
1.5197323
1.5197091
1.5197179
1.5197268
1.519716
1.5199473
1.5199478
1.520406
1.520404
1.5199403
1.5199476
1.5204182
1.5204351
1.5194016
1.5193978
1.5197947
1.5198016
1.5194426
1.5194153
1.519836
1.5198545
1.5195864
1.5195333
1.5200601
1.5200857
1.5199659
1.5197609
1.5202861
1.5204027
1.519254
1.5192659
1.5195697
1.5195761
1.5192907
1.5192801
1.5195931
1.5195953
1.5192981
1.5192979
1.519619
1.5196209
1.5193361
1.5193135
1.519639
1.5196516
1.5206992
1.5205461
1.5208608
1.5208056
1.5208938
1.5208957
1.5209544
1.5209184
1.5209715
1.5209898
1.5209658
1.5209535
1.5209812
1.520971
1.5210328
1.5210009
1.5209783
1.5210222
1.5209234
1.5209237
1.5208921
1.5208682
1.5208597
1.5208745
1.5208343
1.5208783
1.5207824
1.5207611
1.5205493
1.5206702
1.5199582
1.5202957
1.5190033
1.5189751
1.5192543
1.5192643
1.5190627
1.5190382
1.5193017
1.5192931
1.5185087
1.5182254
1.518786
1.5188654
1.519062
1.5187722
1.5188718
1.5190858
1.5191269
1.5191147
1.5194114
1.5194058
1.5191477
1.519139
1.5194259
1.5194273
1.5191605
1.5191593
1.5194477
1.5194492
1.5192032
1.5191796
1.519465
1.5194725
1.5199307
1.5202214
1.5199762
1.5202351
1.5196818
1.5197079
1.5197164
1.5197397
1.5199479
1.5200083
1.5202315
1.5202613
1.5196875
1.5197354
1.5197235
1.5197688
1.51993
1.5199661
1.5202357
1.5202345
1.5196798
1.5197057
1.5197153
1.5197374
1.5197084
1.5197417
1.5197157
1.5197523
1.5198876
1.519975
1.5202595
1.5202918
1.5199778
1.5202544
1.5197951
1.5201917
1.5195101
1.519521
1.5195277
1.5195371
1.5195665
1.519584
1.5195955
1.5195759
1.5196542
1.5195288
1.5195456
1.5196162
1.5195564
1.5195385
1.519547
1.5195587
1.5195655
1.5195745
1.5195864
1.5195477
1.5195427
1.5195577
1.51956
1.5195729
1.519505
1.5195183
1.5195223
1.5195344
1.519505
1.5195342
1.5195224
1.5195505
1.5195445
1.5195751
1.5195616
1.5195904
1.5195019
1.5195374
1.5195737
1.5195392
1.5200937
1.5197231
1.519789
1.5201426
1.5192425
1.5192694
1.5192477
1.519272
1.5192373
1.5192642
1.5192539
1.5192781
1.5192527
1.5192542
1.5192808
1.5192789
1.5192919
1.519304
1.5193847
1.5193959
1.5194297
1.5194063
1.5193946
1.5193694
1.5193759
1.5193814
1.5193868
1.5193973
1.5193645
1.5194583
1.5194136
1.5194291
1.5194399
1.5194231
1.5193982
1.5194051
1.5194149
1.5194196
1.5193449
1.5193499
1.5193797
1.5193923
1.5194028
1.5194081
1.519417
1.5193923
1.5194155
1.519408
1.5194294
1.5193629
1.5193724
1.5193746
1.5193833
1.5193614
1.5193838
1.5193734
1.5193952
1.5188921
1.5189707
1.5190884
1.5191332
1.5192654
1.5192938
1.5192872
1.519312
1.519092
1.5192809
1.5193275
1.5193092
1.5193518
1.5194434
1.519459
1.5194737
1.519487
1.5194078
1.5194372
1.5194215
1.5194492
1.5194686
1.5194839
1.5195253
1.5195382
1.5194877
1.5194312
1.5194447
1.5194995
1.5193844
1.5194156
1.5193976
1.5194278
1.5193734
1.5193861
1.5193936
1.5194055
1.5194185
1.5194343
1.5194503
1.519464
1.5194057
1.5194214
1.5194271
1.519441
1.5192442
1.5192714
1.5192596
1.5192842
1.5192506
1.5192785
1.5192731
1.519298
1.5195215
1.5195472
1.5195395
1.5195637
1.5195628
1.5195904
1.5195805
1.5196062
1.5195795
1.5196205
1.5195979
1.5196367
1.5195359
1.519576
1.5195541
1.5195924
1.5196114
1.5196498
1.5196304
1.5196665
1.5195664
1.5196034
1.5195845
1.519619
1.519596
1.5196663
1.5196132
1.519681
1.5196428
1.5197133
1.5196626
1.5197302
1.5197399
1.5198023
1.5197797
1.519838
1.5197167
1.5197573
1.5197547
1.5197922
1.5199836
1.5200431
1.5202622
1.5202904
1.5200206
1.5200912
1.5202931
1.5203289
1.5200717
1.5203342
1.5201435
1.5203673
1.5198278
1.5197873
1.5198422
1.5198776
1.5198293
1.5198698
1.5199565
1.5199218
1.5201263
1.5202201
1.5203751
1.5204289
1.5199312
1.5194966
1.5195435
1.5195287
1.5195075
1.5194737
1.5195023
1.5195348
1.5197238
1.5196751
1.5200027
1.5200476
1.5197014
1.5197033
1.5199713
1.5199417
1.5217906
1.5218498
1.5218568
1.5217994
1.5218201
1.5218158
1.5218742
1.521877
1.5219232
1.521847
1.5219162
1.5218553
1.5218766
1.5219439
1.5218723
1.5219408
1.5215597
1.5214107
1.5214712
1.5215135
1.5214559
1.5215317
1.5216167
1.5215559
1.5217337
1.5216683
1.5217204
1.5216843
1.5217173
1.5217771
1.5217336
1.5217909
1.5216528
1.5215168
1.5215719
1.5216133
1.5216297
1.5215569
1.5216483
1.5217071
1.5217914
1.5218318
1.5217743
1.5218171
1.5218659
1.5218134
1.5218316
1.5218831
1.521914
1.5219638
1.5219713
1.5219227
1.5220199
1.5220262
1.5219698
1.521961
1.5219401
1.5219899
1.521945
1.5219941
1.5219951
1.5220541
1.5219887
1.5220467
1.5219239
1.5219874
1.5219882
1.5219259
1.5219274
1.5219333
1.5219937
1.5219872
1.522061
1.5219848
1.5220601
1.5219862
1.5219854
1.522059
1.5219914
1.5220652
1.5219713
1.5219023
1.5219661
1.5219089
1.521963
1.522038
1.5220432
1.5219692
1.5219715
1.5219133
1.5219769
1.5219087
1.5219747
1.5220498
1.5219699
1.5220451
1.5220956
1.5220356
1.5220901
1.5220422
1.5221566
1.522087
1.522153
1.5220935
1.522045
1.5220997
1.5220487
1.522103
1.5221007
1.5221638
1.5220989
1.5221636
1.5220587
1.5221135
1.5221149
1.5220605
1.5220646
1.5221179
1.5220589
1.5221127
1.5221766
1.5221771
1.5221115
1.5221134
1.5221122
1.5221171
1.522182
1.5221793
1.5218345
1.5217666
1.5218288
1.5217736
1.521818
1.5219047
1.5219101
1.5218247
1.5218335
1.5217778
1.5218396
1.5217711
1.5218288
1.5219154
1.5218244
1.5219098
1.5216653
1.5217305
1.5217354
1.5216713
1.5216739
1.5217401
1.5217304
1.5216648
1.5217085
1.5217846
1.5217902
1.5217152
1.521719
1.5217956
1.5217871
1.5217108
1.521678
1.5217459
1.5217477
1.5216814
1.5216833
1.5216907
1.5217566
1.5217487
1.521725
1.5218031
1.5218051
1.5217281
1.5217311
1.5217372
1.5218137
1.5218069
1.5217865
1.5218503
1.521852
1.5217896
1.521794
1.5217989
1.521861
1.5218559
1.5219269
1.521928
1.5218407
1.5218429
1.5218492
1.5218531
1.5219363
1.5219301
1.5214532
1.5213026
1.5213618
1.5214054
1.5213428
1.5214261
1.5215165
1.5214456
1.5215695
1.5216205
1.5215545
1.5216075
1.5215989
1.5216709
1.521615
1.5216841
1.5215671
1.5216299
1.5216377
1.5215763
1.521594
1.5216551
1.5216543
1.5215941
1.5216896
1.5216091
1.5216816
1.5216189
1.5217069
1.5216348
1.521706
1.5216368
1.5213718
1.521227
1.521287
1.5213182
1.5212572
1.5213297
1.5214191
1.5213558
1.5215331
1.5214655
1.521523
1.5214771
1.5215047
1.5215697
1.5215184
1.5215814
1.5216648
1.5217239
1.521731
1.5216741
1.5216898
1.521748
1.5216932
1.5217507
1.5217938
1.5218007
1.5217137
1.5217217
1.5217436
1.5217385
1.521818
1.5218204
1.5212713
1.5211391
1.5212073
1.5212029
1.5211764
1.521258
1.5213337
1.5212555
1.5213628
1.5214317
1.5213586
1.5214272
1.521407
1.5214842
1.5214156
1.5214919
1.5212899
1.5213975
1.5213953
1.521288
1.5213109
1.5213235
1.5214287
1.5214161
1.521477
1.521374
1.5214758
1.5213744
1.5213958
1.5214959
1.5214054
1.521505
1.5211413
1.5210099
1.5211073
1.5210428
1.5210765
1.5211709
1.5212192
1.5211228
1.5213028
1.5212092
1.5213086
1.5212038
1.5212865
1.5213796
1.5212851
1.5213791
1.5214537
1.5215279
1.5215322
1.5214578
1.5214829
1.5215555
1.5214771
1.5215502
1.5215885
1.5215951
1.521505
1.5215119
1.5215307
1.521533
1.521615
1.5216122
1.5210025
1.5210012
1.5211809
1.5211775
1.5211582
1.521312
1.5213089
1.5211616
1.5210396
1.521032
1.5212031
1.5212163
1.5211971
1.5211847
1.5213456
1.521331
1.5209443
1.5207664
1.5209267
1.5207855
1.5209009
1.5210399
1.5210636
1.5209251
1.5211031
1.5209465
1.521112
1.520943
1.5210922
1.5212314
1.5210851
1.5212229
1.5205941
1.5206029
1.5207889
1.5208005
1.5209617
1.5209565
1.5207589
1.5207606
1.5206165
1.5219026
1.5220406
1.5218481
1.5220707
1.5207725
1.520798
1.5207991
1.5210163
1.5210147
1.5210527
1.5210444
1.5208362
1.5208367
1.5222297
1.5221914
1.5222171
1.5222495
1.5208492
1.5208116
1.5218833
1.5218372
1.5220407
1.5220653
1.5222128
1.5221814
1.5222186
1.5222443
1.5208225
1.5208229
1.521062
1.5210589
1.5210829
1.5210712
1.5208435
1.5208423
1.5223602
1.5223165
1.5223185
1.5223594
1.520856
1.520836
1.5208463
1.5208459
1.5210777
1.5210742
1.5210692
1.5210587
1.5208313
1.5208308
1.5223556
1.5223137
1.5223088
1.5223509
1.5208438
1.5208596
1.5210651
1.5210611
1.5212481
1.5212545
1.5212363
1.5212291
1.5213958
1.5213885
1.5212335
1.5210571
1.5212507
1.5210466
1.5213942
1.5212319
1.5212143
1.5213749
1.5223417
1.5223008
1.5222976
1.5223378
1.5223077
1.5223017
1.522343
1.522346
1.5212393
1.5210499
1.5212456
1.5210471
1.521391
1.5212267
1.5212202
1.5213844
1.5212474
1.5210716
1.5212657
1.5210601
1.5214088
1.521247
1.5212287
1.5213887
1.5214815
1.5213699
1.5214873
1.5213644
1.5214638
1.5215743
1.5215709
1.5214598
1.5213692
1.5214839
1.5213879
1.5215031
1.5214799
1.5215884
1.5214631
1.5215721
1.5214816
1.5213749
1.5214876
1.5213683
1.521464
1.5214599
1.5215703
1.5215679
1.5214694
1.521373
1.5214885
1.5213547
1.5215735
1.5214651
1.5214479
1.5215575
1.5216255
1.5215475
1.5216248
1.5215476
1.5216879
1.521601
1.5216041
1.5216915
1.5215373
1.521617
1.5215512
1.5216303
1.5216957
1.5216072
1.5215958
1.5216847
1.5216319
1.5215521
1.5216328
1.521551
1.5216996
1.5216096
1.5216107
1.5217009
1.521553
1.5216325
1.5215667
1.5216454
1.521711
1.5216231
1.5216127
1.5217012
1.5222775
1.5222604
1.5223028
1.5223164
1.5222619
1.5222616
1.5223042
1.5223044
1.5223257
1.5222772
1.5222751
1.522323
1.5223255
1.5222758
1.522288
1.5223327
1.5218765
1.5218286
1.5220337
1.5220652
1.5218787
1.52185
1.5220419
1.522063
1.5221943
1.5221502
1.5221882
1.5222267
1.5222054
1.5221606
1.5221997
1.5222365
1.5216032
1.5215296
1.5216092
1.5215226
1.5215875
1.5216768
1.5216725
1.5215829
1.5214704
1.5215531
1.5214886
1.5215707
1.5215486
1.5216414
1.5215322
1.5216251
1.5212759
1.5213922
1.5213803
1.5212649
1.5212272
1.5212527
1.5213657
1.5213395
1.5214686
1.5213684
1.5214783
1.5213581
1.5213177
1.5214258
1.5213417
1.5214496
1.5214532
1.5213491
1.5214652
1.521336
1.5214427
1.5215514
1.5215426
1.5214322
1.5213987
1.5213016
1.5214209
1.5212805
1.521398
1.5215108
1.5213774
1.5214911
1.521456
1.5215361
1.5215284
1.5214481
1.5214268
1.5215051
1.5214055
1.5214844
1.5216031
1.5215967
1.5215129
1.5215064
1.5214632
1.5214816
1.5215713
1.5215527
1.5207355
1.5207349
1.5209733
1.520967
1.520955
1.5209391
1.520721
1.5207188
1.522277
1.5222371
1.5222063
1.5222451
1.520733
1.5207481
1.5207997
1.5207975
1.5210407
1.5210342
1.5209877
1.520976
1.5207405
1.5207395
1.5223369
1.5222959
1.522252
1.5222967
1.5207513
1.5208103
1.5209607
1.5209545
1.5211546
1.5211445
1.5211249
1.5212982
1.5212865
1.5211355
1.5209433
1.5209276
1.5211103
1.5211338
1.5211148
1.5210916
1.5212751
1.5212481
1.521213
1.5210281
1.5212241
1.5210206
1.5212062
1.52137
1.5213567
1.5211938
1.521156
1.5209749
1.5211746
1.5209635
1.5211556
1.5213237
1.5211366
1.5213018
1.5223235
1.5222819
1.5222405
1.5222845
1.5222066
1.5222311
1.5222684
1.522242
1.5206675
1.5206646
1.5209071
1.5208968
1.5208439
1.5208222
1.520598
1.520592
1.5206065
1.5206781
1.5208961
1.520885
1.5210761
1.5210916
1.5210752
1.5210586
1.521236
1.521218
1.5209999
1.5208341
1.5210326
1.5208102
1.5211797
1.5210162
1.5209813
1.5211421
1.5210777
1.5211713
1.5211158
1.5210166
1.5214597
1.5213959
1.5214731
1.5213816
1.5215363
1.5214526
1.5214403
1.5215251
1.5213037
1.5213827
1.5213412
1.5214191
1.5214838
1.5213985
1.5213615
1.5214484
1.5213137
1.5212175
1.5213318
1.5211995
1.5213108
1.5212936
1.521416
1.5214003
1.5212373
1.5211608
1.5212763
1.5211224
1.5213618
1.521255
1.5212158
1.5213241
1.5211694
1.5211549
1.5212239
1.521096
1.5212796
1.5212065
1.5211475
1.5212253
1.5205153
1.5206007
1.5207493
1.5208172
1.520884
1.5208021
1.5205658
1.520668
1.5223076
1.5222608
1.522223
1.5222713
1.5222883
1.5222477
1.5222163
1.5222562
1.5221949
1.522209
1.5222471
1.5222323
1.5222603
1.5222169
1.5221993
1.5222394
1.5227046
1.5227097
1.5226183
1.5226142
1.5223809
1.5225688
1.5224719
1.5223704
1.5224864
1.5225875
1.5195366
1.521954
1.5219679
1.5221716
1.5221472
1.5221028
1.5219046
1.5219229
1.5221038
1.5221897
1.5221774
1.5222109
1.5222243
1.5222338
1.5222616
1.5222857
1.5222605
1.5221898
1.5221492
1.5221722
1.522215
1.5220686
1.5218853
1.5219074
1.5220782
1.5220453
1.5218637
1.5218961
1.5220698
1.5221769
1.5221382
1.5221843
1.5222186
1.5222857
1.5222387
1.5222436
1.5222884
1.5222701
1.5222401
1.5222501
1.5222771
1.522259
1.5222425
1.522271
1.5222902
1.5222848
1.5222385
1.5222583
1.5223024
1.5222735
1.5222539
1.5222685
1.5222856
1.5223102
1.5223421
1.5223557
1.5223243
1.5222766
1.522257
1.5222701
1.5222912
1.5223146
1.5223467
1.5223521
1.5223236
1.522249
1.5222256
1.5222165
1.522235
1.5222739
1.5222998
1.5222709
1.5222225
1.5222012
1.5221881
1.5222097
1.5222724
1.5222283
1.5222024
1.5222455
1.5222532
1.5222192
1.5221996
1.5222317
1.5221753
1.5221901
1.5222198
1.5222083
1.5222342
1.522191
1.5221775
1.5222208
1.5220429
1.5220394
1.5220958
1.5220927
1.5221582
1.5220906
1.5221535
1.522094
1.5220165
1.5220712
1.5220616
1.5220052
1.5221269
1.5220693
1.5221333
1.5220604
1.5219717
1.5220274
1.5220221
1.5219657
1.5219246
1.5219393
1.5219957
1.5219822
1.5220842
1.5220255
1.5220906
1.5220196
1.5219812
1.5220508
1.5219946
1.5220613
1.5219099
1.521905
1.5219723
1.5219675
1.5219665
1.5220399
1.5219712
1.5220439
1.5218771
1.5219416
1.5219288
1.5218637
1.5220051
1.5219407
1.5220168
1.5219279
1.5218315
1.5218971
1.5218247
1.5218904
1.5218888
1.5218957
1.5219723
1.521966
1.5217837
1.5218484
1.5217975
1.5218626
1.5219392
1.5218612
1.5218464
1.5219248
1.5217678
1.5218313
1.5218262
1.5217631
1.5217192
1.5217339
1.521798
1.521784
1.5219045
1.5218244
1.5219094
1.5218187
1.5217758
1.5218639
1.5217893
1.5218774
1.521691
1.5217551
1.5217481
1.5216842
1.5216571
1.5217204
1.5216426
1.5217066
1.5218257
1.5217451
1.5218329
1.521738
1.5216981
1.5217104
1.5217987
1.5217848
1.52172
1.5216575
1.5217242
1.5216539
1.5217053
1.5217822
1.5217775
1.5217011
1.5216748
1.5216216
1.5216902
1.5216061
1.5216705
1.5217497
1.5216555
1.5217347
1.5215823
1.5216503
1.5216438
1.5215767
1.5215502
1.5216168
1.5215998
1.5215334
1.5217008
1.5216294
1.5217077
1.5216232
1.5216578
1.5215958
1.5216739
1.5215802
1.5212648
1.5213208
1.5212662
1.521206
1.5206364
1.520872
1.520927
1.5207121
1.5213068
1.5213673
1.5213128
1.5212469
1.5206814
1.5209163
1.5209861
1.5207737
1.5215182
1.5215816
1.5215708
1.5215076
1.5214656
1.521529
1.5214942
1.5214293
1.5215637
1.5216358
1.5216248
1.521553
1.521511
1.5215838
1.5215493
1.5214749
1.5216228
1.5216827
1.5216712
1.5216114
1.5215703
1.5216291
1.521596
1.5215345
1.5217418
1.5216764
1.5217527
1.5216641
1.5216671
1.5216221
1.5217002
1.5215875
1.5213584
1.5214098
1.5213562
1.5212989
1.52075
1.5209813
1.5210323
1.5208251
1.5214214
1.5214075
1.5214724
1.5213489
1.5208089
1.5210352
1.5211105
1.5209094
1.5214753
1.5215237
1.5214201
1.5214758
1.5214751
1.5215359
1.5215271
1.5215798
1.5208972
1.5211179
1.5211656
1.5209726
1.5209617
1.5210572
1.5211742
1.5212404
1.5217526
1.5217416
1.5218091
1.5217993
1.5217985
1.521865
1.5218084
1.5218734
1.5217003
1.5217569
1.5217244
1.5216648
1.5217927
1.5217569
1.521824
1.5217219
1.5218737
1.5218654
1.5219221
1.521915
1.5219141
1.5219682
1.5219217
1.5219766
1.5218254
1.5218735
1.5218441
1.5217916
1.5219014
1.5218737
1.5219279
1.521842
1.5215845
1.5216244
1.521537
1.5215844
1.5215851
1.5216378
1.5216293
1.5216766
1.521251
1.5210485
1.5212913
1.5211187
1.5211088
1.5211984
1.5213021
1.5213641
1.5193873
1.5193929
1.5194075
1.5194098
1.5194288
1.5194302
1.5194459
1.5194555
1.5188491
1.5187592
1.519076
1.5190481
1.5192396
1.5192504
1.5192784
1.519289
1.519554
1.5195473
1.519571
1.5195745
1.5195981
1.5195963
1.5196151
1.5196306
1.5200272
1.5200553
1.520251
1.5203879
1.519766
1.5197731
1.5198061
1.5198281
1.5202326
1.5197168
1.5197693
1.5191257
1.5195367
1.5197599
1.5197033
1.5197271
1.5197375
1.5197206
1.5196082
1.5195907
1.5196421
1.5196347
1.5196444
1.5196119
1.5196088
1.5196374
1.5196424
1.5196372
1.5196451
1.5196361
1.5196133
1.5195966
1.5195948
1.5196091
1.5193915
1.519443
1.5194694
1.519409
1.5194935
1.5194816
1.519436
1.5194118
1.5196596
1.5196637
1.5196685
1.5196475
1.5196539
1.5196514
1.5196732
1.5196664
1.5196572
1.5196538
1.5196284
1.5196333
1.5196361
1.5196026
1.519614
1.5196012
1.5196404
1.5196368
1.5196202
1.5196032
1.5196969
1.5196762
1.5196681
1.5196874
1.519655
1.519659
1.5196708
1.5196779
1.5198855
1.5201143
1.5201032
1.5198744
1.5201806
1.5199278
1.5199074
1.520151
1.5198657
1.5198538
1.5200785
1.5200905
1.5200691
1.5198414
1.5198279
1.5200693
1.5196387
1.519643
1.5196568
1.5196629
1.5196039
1.5196241
1.5196213
1.5196431
1.5196189
1.5195969
1.5196506
1.5196404
1.5195087
1.5194925
1.5194532
1.5194212
1.5193354
1.5192737
1.5191935
1.5192433
1.5199098
1.5196241
1.5195192
1.5197976
1.5195002
1.5195203
1.5195546
1.519533
1.5200656
1.5198044
1.5197783
1.5200332
1.519505
1.5194657
1.5194276
1.5194614
1.5197085
1.5197515
1.5199967
1.5199689