/*--------------------------------*- C++ -*----------------------------------*\
  =========                 |
  \\      /  F ield         | OpenFOAM: The Open Source CFD Toolbox
   \\    /   O peration     | Website:  https://openfoam.org
    \\  /    A nd           | Version:  7
     \\/     M anipulation  |
\*---------------------------------------------------------------------------*/
FoamFile
{
    version     2.0;
    format      ascii;
    class       volScalarField;
    location    "2000";
    object      nut;
}
// * * * * * * * * * * * * * * * * * * * * * * * * * * * * * * * * * * * * * //

dimensions      [0 2 -1 0 0 0 0];

internalField   nonuniform List<scalar> 
34377
(
8.7742697e-90
1.782929e-89
3.3412633e-90
3.730773e-90
2.1156074e-90
7.8794571e-90
1.3824512e-90
4.7539345e-91
2.7006803e-91
3.1356741e-91
4.6111244e-91
1.0186816e-89
4.1084661e-91
1.8347125e-89
9.2601764e-90
3.3989541e-90
4.7485577e-91
1.3160575e-90
1.3657697e-90
5.2365953e-91
1.6134382e-90
1.5525615e-90
5.46782e-91
5.7918956e-91
1.5549002e-90
2.8435773e-90
1.282309e-90
4.5535278e-91
3.5923253e-91
1.9232914e-91
2.0070192e-91
5.327266e-91
4.181688e-91
4.2371743e-91
5.5833208e-91
5.7784488e-91
2.8566076e-91
2.2208423e-91
2.4117784e-91
2.9551898e-91
2.7960025e-91
2.1049747e-91
2.1134623e-91
4.8856519e-91
1.8793265e-91
1.8100288e-91
4.948741e-91
6.5930679e-91
4.9864652e-90
6.4779696e-91
4.9995991e-90
3.8836357e-91
4.5570071e-91
1.5773898e-91
1.7361131e-91
4.5953981e-91
3.6294693e-91
8.5395168e-90
8.8577235e-90
5.5785275e-91
4.5165248e-90
5.7794114e-91
4.6724957e-90
1.6213413e-90
1.7311214e-90
6.6874753e-91
5.7010172e-91
4.9418319e-91
5.2891268e-91
2.6718219e-91
2.8246488e-91
2.869003e-91
5.4836056e-91
5.248215e-91
2.7370319e-91
5.1096969e-91
3.0344212e-91
5.4497424e-91
3.0798669e-91
5.4557195e-91
3.1322067e-91
5.2277162e-91
2.9149735e-91
5.8480667e-91
1.247852e-90
1.5084082e-90
5.9899655e-91
1.9511149e-91
1.9663317e-91
3.2223623e-91
3.0996058e-91
5.5159078e-91
4.2111788e-91
4.1790609e-91
5.8144155e-91
5.5930152e-91
1.876188e-91
1.9217523e-91
1.6778103e-91
1.7190508e-91
1.1328643e-91
9.1392681e-92
8.7208458e-92
1.0579256e-91
8.7669904e-92
1.2576691e-91
1.016661e-91
9.7384671e-92
1.1907752e-91
8.5267904e-92
1.0112247e-91
9.2159163e-92
4.3507041e-91
6.1587759e-91
6.3616081e-91
4.4688976e-91
2.0622614e-91
1.84588e-91
1.7864358e-91
1.9762221e-91
1.8042098e-91
1.8447909e-91
1.8400383e-91
1.8953475e-91
2.3341308e-91
2.2878166e-91
2.5226754e-91
2.2177982e-91
1.7355912e-91
1.6216288e-91
1.753079e-91
1.758583e-91
2.2197013e-91
2.111048e-91
1.9639815e-91
1.4851219e-91
1.4291074e-91
2.0328599e-91
2.7811235e-91
3.8578834e-91
3.977587e-91
2.8368642e-91
4.8064576e-91
4.8355228e-91
2.3279363e-90
2.5695011e-90
2.7620321e-91
2.6826696e-91
3.9686438e-91
3.8837028e-91
5.0315849e-91
2.3439901e-90
2.5397941e-90
4.9680117e-91
1.6817846e-91
1.6363642e-91
4.9416859e-91
1.8751389e-91
1.3380488e-91
1.211737e-91
1.8235959e-91
1.7156328e-91
1.4741527e-91
4.7419589e-91
5.0023693e-91
5.747729e-91
5.906474e-91
4.8177227e-90
4.8178701e-90
5.8936041e-91
5.8841486e-91
4.6002554e-90
4.480073e-90
2.631781e-91
2.5629252e-91
3.847099e-91
3.912693e-91
4.655587e-91
4.6358692e-91
2.129712e-90
2.3449493e-90
2.5878321e-91
2.5853185e-91
3.8180512e-91
3.799285e-91
4.8386886e-91
4.7085609e-91
2.4329189e-90
2.3153417e-90
5.4095374e-91
5.5272475e-91
2.9451598e-91
3.0280491e-91
6.1114795e-91
6.1249128e-91
3.449593e-91
3.2575533e-91
1.8494593e-91
1.9960775e-91
1.5730719e-91
1.4852984e-91
2.1670324e-91
2.106784e-91
1.5067925e-91
1.5790425e-91
2.1210803e-91
2.1462729e-91
1.5345422e-91
1.5536514e-91
2.1465126e-91
2.0273313e-91
1.5421721e-91
1.4838351e-91
1.5633098e-91
2.0046034e-91
2.1615269e-91
1.6638724e-91
2.3577535e-91
2.2664699e-91
1.6371087e-91
1.6746069e-91
2.1055716e-91
2.1136757e-91
1.6057897e-91
1.6185033e-91
1.5584747e-91
2.1111293e-91
1.9923239e-91
1.5513362e-91
5.5949652e-91
3.0163315e-91
2.7206884e-91
4.6568591e-91
5.6744773e-91
5.9634382e-91
3.0078043e-91
3.1416348e-91
1.2296677e-91
9.3584798e-92
1.0175588e-91
1.2421185e-91
8.5265312e-92
1.156826e-91
9.3205187e-92
9.0470499e-92
8.7225972e-92
1.1060448e-91
2.0678855e-91
2.2249218e-91
1.7243043e-91
1.7161747e-91
1.9036045e-91
2.293899e-91
1.7135842e-91
2.0337994e-91
1.0146114e-91
4.3871639e-91
6.3992838e-91
6.276873e-91
4.4766083e-91
1.4035641e-91
1.333367e-91
1.2287867e-91
1.3281215e-91
1.4299823e-91
1.4305473e-91
1.3173846e-91
1.3275075e-91
1.0881385e-91
1.0858619e-91
1.0968077e-91
1.0742221e-91
1.0008021e-91
1.0870655e-91
1.0510845e-91
1.0268736e-91
7.5606103e-92
8.1798096e-92
8.0740329e-92
7.5626487e-92
6.4047065e-92
6.3754196e-92
5.924351e-92
6.0381001e-92
6.4722365e-92
5.8712755e-92
5.7115394e-92
5.9945795e-92
6.2131879e-92
6.0839282e-92
7.8975213e-92
7.8647577e-92
7.6074999e-92
7.6014499e-92
6.7678522e-92
6.3887031e-92
8.2802749e-92
9.1194172e-92
8.7416259e-92
8.5168181e-92
6.7419203e-92
6.3937966e-92
6.9533188e-92
6.745485e-92
7.24272e-92
6.42621e-92
6.6605591e-92
8.194975e-92
8.5576513e-92
8.3106129e-92
7.572824e-92
5.9160743e-92
5.1881922e-92
4.0807895e-92
4.3199299e-92
5.6032848e-92
5.6623347e-92
4.3640616e-92
1.4458252e-91
1.5329257e-91
1.5086615e-91
1.63142e-91
1.0865723e-91
1.1490544e-91
1.1336726e-91
1.2020754e-91
1.1708363e-91
1.143895e-91
1.1235011e-91
1.136104e-91
1.5619975e-91
1.5504331e-91
1.4672519e-91
1.4807124e-91
1.1666238e-91
1.1758487e-91
1.1858588e-91
1.1901371e-91
1.103933e-91
1.1786212e-91
1.2849075e-91
1.253698e-91
1.8543087e-91
1.85459e-91
1.6401471e-91
1.7944026e-91
1.9761244e-91
1.9748656e-91
1.7720448e-91
1.7820059e-91
1.2127022e-91
1.1666375e-91
1.0354904e-91
1.1002637e-91
1.1453283e-91
1.2009016e-91
1.1484688e-91
1.1495242e-91
2.0149122e-91
1.9745426e-91
4.5979654e-91
2.4525834e-91
2.9103983e-91
2.9259835e-91
2.9717917e-91
3.0751066e-91
1.7799973e-91
2.4971016e-91
2.4592108e-91
1.8548266e-91
1.9627726e-91
2.5449454e-91
2.3796137e-91
1.9652511e-91
1.9999274e-91
1.6364113e-91
1.7489654e-91
6.3557389e-91
5.8852618e-91
6.7240972e-91
6.6669207e-91
1.7559158e-91
1.7114128e-91
1.8151e-91
1.7674009e-91
2.5213675e-91
2.4804121e-91
1.9102846e-91
2.0041682e-91
1.7508409e-91
6.6116041e-91
1.6262958e-91
6.1274283e-91
1.7432945e-91
6.5465593e-91
1.9546247e-91
1.4330495e-91
1.3813029e-91
1.9433039e-91
2.3782854e-91
2.771773e-91
2.8203605e-91
1.1871691e-91
1.1466928e-91
2.2674384e-91
2.8831286e-91
2.8271921e-91
1.2351623e-91
1.3285771e-91
1.9735711e-91
1.8881142e-91
4.017054e-91
2.6650007e-91
2.7299492e-91
4.1523177e-91
3.9973802e-91
2.6934249e-91
2.6772082e-91
4.0617852e-91
4.9885357e-91
4.9479708e-91
2.098326e-90
2.2667623e-90
4.791796e-91
4.6598974e-91
2.1873502e-90
2.1048167e-90
3.9506952e-91
2.6609556e-91
2.7566317e-91
4.1158988e-91
4.0224188e-91
2.741571e-91
2.7061144e-91
4.0827467e-91
4.6007137e-91
4.6271109e-91
2.1552671e-90
2.2947626e-90
4.4949946e-91
2.2248621e-90
4.6839128e-91
2.0158528e-90
1.723368e-91
1.7629017e-91
2.4590653e-91
2.4387788e-91
1.837393e-91
1.9126926e-91
2.4721166e-91
2.3300242e-91
1.9251546e-91
1.9341265e-91
5.5808541e-91
6.1034258e-91
1.5772052e-91
1.6762064e-91
6.4422394e-91
6.4229085e-91
1.7190172e-91
1.6739593e-91
1.753343e-91
1.7224778e-91
2.4512129e-91
2.4059789e-91
1.8635196e-91
1.9378635e-91
2.4544008e-91
2.3186697e-91
1.9230636e-91
1.9310687e-91
1.6223828e-91
6.0689796e-91
1.72961e-91
6.4800196e-91
1.7305788e-91
1.6566355e-91
6.5130048e-91
6.2304139e-91
1.9907998e-91
1.9961244e-91
1.5164808e-91
1.5466927e-91
2.0185319e-91
1.5298407e-91
1.8954004e-91
1.4985206e-91
2.2969261e-91
2.2626588e-91
1.8668271e-91
1.8275689e-91
1.7771042e-91
2.3691447e-91
2.2164102e-91
1.7182849e-91
2.1516658e-91
2.068932e-91
5.4480299e-92
5.8688699e-92
2.3533749e-91
2.4240585e-91
5.9337687e-92
5.7846907e-92
2.3959156e-91
2.4292726e-91
5.9552304e-92
6.2262341e-92
2.4321872e-91
2.5346633e-91
5.9331614e-92
5.8000375e-92
2.3519792e-91
2.3581195e-91
5.7724519e-92
6.2374381e-92
2.3837256e-91
2.4586086e-91
6.0022736e-92
5.818822e-92
5.7291603e-92
2.2508297e-91
2.2661712e-91
5.9832691e-92
2.2201834e-91
2.2584152e-91
5.7432448e-92
5.5936754e-92
2.2208189e-91
2.1710937e-91
5.7276581e-92
5.9843324e-92
2.3909667e-91
2.3773982e-91
6.2034459e-92
6.2470082e-92
2.4661036e-91
6.2996665e-92
2.4462973e-91
6.491331e-92
6.5201797e-92
2.5849371e-91
2.4692789e-91
6.3137625e-92
2.2505448e-91
2.1876144e-91
5.580528e-92
5.8270868e-92
5.8414205e-92
2.2660712e-91
2.1505438e-91
5.9533791e-92
2.1251713e-91
2.1469251e-91
5.437095e-92
5.549156e-92
2.0645498e-91
2.0689316e-91
5.615513e-92
5.5709108e-92
2.1304535e-91
2.0936925e-91
1.6123715e-91
1.5764363e-91
1.8455536e-91
1.9457466e-91
1.404848e-91
1.4203564e-91
1.6341486e-91
2.1295465e-91
2.1037984e-91
1.5726408e-91
2.146277e-91
2.1526489e-91
1.6235458e-91
1.5993526e-91
8.289482e-92
8.0495066e-92
7.6886425e-92
7.5342712e-92
6.5484039e-92
6.305977e-92
5.933561e-92
6.2349018e-92
6.6425894e-92
7.209422e-92
6.7007113e-92
6.7150842e-92
6.9860107e-92
7.1650041e-92
9.0407464e-92
9.1042702e-92
8.7113335e-92
8.763078e-92
7.6617498e-92
7.338756e-92
8.4820503e-92
7.7715051e-92
6.6551711e-92
6.342069e-92
5.9301564e-92
6.2601476e-92
6.4628709e-92
6.1704473e-92
6.6069945e-92
6.8586528e-92
8.5031902e-92
8.1624704e-92
8.2145872e-92
7.9281896e-92
1.4077741e-91
1.4867199e-91
1.4737088e-91
1.5635091e-91
1.5392281e-91
1.5405547e-91
1.520394e-91
1.1056496e-91
1.1266492e-91
1.142186e-91
1.1679206e-91
1.112983e-91
1.0715797e-91
1.2424901e-91
1.2440673e-91
1.213761e-91
1.209611e-91
1.6729178e-91
1.6701181e-91
1.6464532e-91
1.6630687e-91
1.0353589e-91
1.0543093e-91
1.0801609e-91
1.0500261e-91
1.4636893e-91
1.4590473e-91
1.4569659e-91
1.504224e-91
5.6298205e-92
4.3863908e-92
4.1393539e-92
5.2849683e-92
9.5750055e-92
9.5335891e-92
8.755104e-92
8.6239012e-92
8.1302805e-92
7.1605684e-92
8.8206865e-92
7.6745643e-92
8.5152375e-92
6.3367596e-92
9.144426e-92
6.8885301e-92
1.0135911e-91
7.4072269e-92
9.9245186e-92
7.3724197e-92
9.4138802e-92
9.0739009e-92
8.7633443e-92
8.3425557e-92
9.0076997e-92
7.9957288e-92
9.3590286e-92
8.2160107e-92
9.4273322e-92
6.8906671e-92
9.7083611e-92
7.131878e-92
1.0196516e-91
9.6765303e-92
7.4321762e-92
7.2478025e-92
8.6270794e-92
6.7502462e-92
9.0726238e-92
7.0332898e-92
8.9252389e-92
9.440266e-92
7.7428734e-92
8.1039047e-92
9.3363288e-92
9.0159332e-92
8.1654474e-92
7.8879026e-92
8.9341213e-92
8.5833607e-92
7.0901938e-92
6.8005232e-92
7.8167653e-92
5.9945975e-92
8.5406947e-92
6.5124963e-92
9.5319307e-92
9.4364672e-92
8.2308163e-92
8.101753e-92
8.4420284e-92
7.1306321e-92
9.2447327e-92
7.7507397e-92
8.9755428e-92
8.8605835e-92
7.0373373e-92
6.9332886e-92
8.5749145e-92
6.8369863e-92
9.3428672e-92
7.4265926e-92
8.6477311e-92
8.5022936e-92
7.9249989e-92
7.769417e-92
7.916982e-92
7.2307209e-92
8.5733603e-92
7.8067403e-92
9.3907756e-92
9.1971401e-92
7.5990697e-92
7.4368433e-92
6.4417802e-92
6.1488698e-92
6.4921199e-92
6.0231115e-92
6.0008285e-92
5.6899927e-92
6.5500491e-92
6.0996588e-92
4.1586747e-92
4.4298311e-92
4.6092969e-92
4.3379455e-92
4.7531777e-92
4.4742276e-92
4.4516268e-92
4.4670259e-92
4.8471627e-92
4.9033032e-92
4.943811e-92
4.6976928e-92
4.2228507e-92
4.1284427e-92
4.2808612e-92
4.4699906e-92
4.579215e-92
4.0753379e-92
4.2860202e-92
4.1518897e-92
4.5985066e-92
4.4655574e-92
5.8638425e-92
5.7329266e-92
6.2716604e-92
6.016307e-92
4.2317476e-92
4.4688466e-92
6.0534282e-92
5.9192924e-92
5.9482164e-92
5.706475e-92
8.2758288e-92
7.7086475e-92
7.9993301e-92
7.4204194e-92
7.9749369e-92
7.4207121e-92
8.4514558e-92
7.7905957e-92
8.8971654e-92
7.2866911e-92
9.3965632e-92
7.6417433e-92
9.2780262e-92
7.6411052e-92
8.8925941e-92
7.3524445e-92
3.3692507e-92
3.3540423e-92
3.4795725e-92
3.6949486e-92
4.2058039e-92
3.6949177e-92
3.4651631e-92
3.83044e-92
8.8622297e-92
7.1398192e-92
1.0110456e-91
8.0590226e-92
9.2129275e-92
9.5300487e-92
8.5631477e-92
8.7737542e-92
8.0159397e-92
7.4167793e-92
9.2222525e-92
8.4051201e-92
1.0114795e-91
1.0333382e-91
8.2315268e-92
8.3359141e-92
4.7386019e-92
4.9925265e-92
5.1451062e-92
5.4663308e-92
5.1963604e-92
4.0944778e-92
4.6828571e-92
4.8095418e-92
5.0862566e-92
4.5448296e-92
6.7287607e-92
6.5477373e-92
7.11229e-92
6.7100991e-92
5.8755843e-92
5.7315323e-92
6.8519469e-92
6.5266477e-92
5.096659e-92
5.3851331e-92
4.223014e-92
4.4899916e-92
4.8536712e-92
4.6222189e-92
6.0545234e-92
5.8988595e-92
6.5102487e-92
6.213133e-92
7.9852161e-92
9.1325941e-92
7.4457882e-92
9.6936721e-92
7.8258227e-92
8.1923861e-92
7.6080226e-92
8.7283262e-92
8.002925e-92
9.5336603e-92
7.795715e-92
9.5185635e-92
7.7818481e-92
4.7549291e-92
4.1840329e-92
4.0313355e-92
4.5920094e-92
1.7370992e-92
1.732759e-92
3.0015852e-92
2.9844071e-92
5.9333451e-92
2.3648923e-92
1.987072e-92
2.0502982e-92
2.6193946e-92
2.4871576e-92
2.5082768e-92
2.5376065e-92
2.3710517e-92
2.436298e-92
2.5541278e-92
2.699781e-92
2.3687274e-92
2.013798e-92
2.4188704e-92
2.0651641e-92
2.4981134e-92
2.3740934e-92
2.9924157e-92
2.145372e-92
3.1079626e-92
3.0970282e-92
3.0540532e-92
2.8380436e-92
9.2690569e-92
6.7411952e-92
1.0174957e-91
7.396889e-92
1.0839994e-91
1.0900207e-91
7.8191766e-92
7.8232362e-92
8.7743345e-92
7.8140556e-92
9.6450288e-92
8.5070725e-92
1.0257038e-91
9.33146e-92
1.0433647e-91
9.3489389e-92
8.3515556e-92
9.3236441e-92
6.4925596e-92
7.1376572e-92
9.735109e-92
9.8537306e-92
7.6559726e-92
7.6669264e-92
8.7857461e-92
7.535658e-92
9.9334433e-92
8.4007018e-92
1.0187161e-91
1.043048e-91
8.8566047e-92
8.9595702e-92
9.4341199e-92
9.4376557e-92
8.1942805e-92
8.1431526e-92
9.0310577e-92
9.5696616e-92
7.7974759e-92
8.1444974e-92
8.6461357e-92
9.0960793e-92
6.8471025e-92
7.1134638e-92
8.9912257e-92
8.9205894e-92
7.1139603e-92
7.0477926e-92
9.3212667e-92
8.597278e-92
9.2527477e-92
8.4756799e-92
9.1144903e-92
8.283635e-92
9.5166758e-92
8.5082621e-92
9.9189984e-92
7.3106922e-92
1.033191e-91
7.5398925e-92
1.034895e-91
7.5258132e-92
1.0184451e-91
7.6014949e-92
6.0778915e-92
6.2748395e-92
6.0394549e-92
6.20008e-92
6.1162022e-92
6.2817471e-92
6.3027792e-92
6.6639927e-92
6.5059206e-92
6.3504212e-92
6.6262821e-92
7.1168149e-92
6.9234398e-92
7.4194343e-92
7.2924997e-92
7.1745951e-92
1.1717323e-91
1.1347711e-91
1.2075638e-91
1.187582e-91
9.9159186e-92
9.9864839e-92
1.1674712e-91
1.1560215e-91
1.2554966e-91
1.2644221e-91
1.3121694e-91
1.2774499e-91
1.1420747e-91
1.0905254e-91
1.1296289e-91
1.1121036e-91
7.0902576e-92
7.2309172e-92
6.9108529e-92
6.8921483e-92
6.4515769e-92
6.5318427e-92
6.8264541e-92
6.5984102e-92
6.3676242e-92
6.3540582e-92
6.935631e-92
6.5849275e-92
6.5402196e-92
7.0272875e-92
6.6211216e-92
6.6665461e-92
4.1192284e-91
4.1999508e-91
3.8719972e-91
1.1981113e-91
1.3716872e-91
1.1926939e-91
1.2028761e-91
2.1261456e-91
1.4441715e-91
1.4558938e-91
1.2747148e-91
1.8132412e-91
1.6831066e-91
1.7459915e-91
1.864997e-91
1.5993174e-91
1.6380427e-91
1.5725413e-91
1.603753e-91
9.1951776e-92
1.9230004e-91
9.6024941e-92
1.9379577e-91
1.9764935e-91
1.9691304e-91
9.7664516e-92
9.9383348e-92
1.638988e-91
1.5878175e-91
9.4505629e-92
1.9868209e-91
9.8144672e-92
1.9932618e-91
1.9443522e-91
1.9279728e-91
9.6347167e-92
9.7620673e-92
5.5464485e-92
5.0569882e-92
5.3242326e-92
6.3174054e-92
5.3500577e-92
5.2823619e-92
6.5367192e-92
6.1845838e-92
5.7827013e-92
7.2946779e-92
7.2248242e-92
5.5516542e-92
6.5662827e-92
5.3508701e-92
5.4525195e-92
7.0180787e-92
5.6273395e-92
5.6618618e-92
7.5571201e-92
7.1672949e-92
7.5832707e-92
5.799361e-92
5.4462458e-92
7.3678892e-92
5.3794263e-92
5.146926e-92
6.6078798e-92
6.0575952e-92
5.2058874e-92
5.1879626e-92
6.3169811e-92
6.2340137e-92
1.8256361e-91
1.7890692e-91
1.8295964e-91
1.8698291e-91
1.8040926e-91
1.680758e-91
1.7484448e-91
1.8785696e-91
1.9725221e-91
1.9740288e-91
9.4077706e-92
9.7992032e-92
1.0023977e-91
2.036509e-91
2.0313988e-91
1.0171353e-91
6.0441197e-92
5.3633346e-92
5.5594326e-92
6.4172814e-92
6.9786264e-92
5.4890201e-92
5.5765505e-92
7.3826746e-92
5.390925e-92
5.1283118e-92
5.9762002e-92
6.6215491e-92
6.7651407e-92
5.2678154e-92
5.4123232e-92
7.2509549e-92
6.4002637e-92
5.3027759e-92
5.4396558e-92
6.4848025e-92
5.4793403e-92
5.7611901e-92
7.4406135e-92
7.3428028e-92
2.481711e-91
2.8829624e-91
2.9275408e-91
1.2549907e-91
1.2568109e-91
2.6139917e-91
2.9642572e-91
2.8696003e-91
1.1596193e-91
1.1601412e-91
2.059067e-91
1.4590762e-91
1.4122747e-91
1.16501e-91
1.17921e-91
2.0243823e-91
1.4313337e-91
1.4323634e-91
1.1896185e-91
1.2286136e-91
2.5942145e-91
2.9930554e-91
2.9785534e-91
2.4161261e-91
2.875834e-91
2.9868599e-91
1.7981869e-91
1.8268069e-91
1.7888119e-91
1.8010278e-91
1.8695703e-91
1.9413625e-91
2.5558694e-91
2.5508118e-91
2.5621598e-91
2.4516053e-91
1.9640961e-91
1.9711225e-91
1.6758955e-91
5.2993212e-91
1.7262517e-91
5.9678879e-91
1.6977906e-91
1.640393e-91
6.2614657e-91
6.205821e-91
1.9037703e-91
2.5102818e-91
2.5322907e-91
1.9592324e-91
2.5120757e-91
2.4259301e-91
1.9487679e-91
1.9572318e-91
1.5774876e-91
1.6637005e-91
5.7154012e-91
6.2838977e-91
1.6501864e-91
6.2582835e-91
1.5832918e-91
6.133494e-91
1.7685159e-91
1.8208506e-91
1.7951286e-91
1.7903079e-91
2.5077187e-91
2.5006223e-91
1.869758e-91
1.9585381e-91
2.55116e-91
2.4121939e-91
1.9744677e-91
1.9726712e-91
1.5967807e-91
1.6873518e-91
5.8483299e-91
6.3364194e-91
1.6513668e-91
1.7016486e-91
6.5217428e-91
6.4345591e-91
2.515019e-91
2.403923e-91
1.9121512e-91
1.9414965e-91
1.6067998e-91
1.67716e-91
5.8163843e-91
6.262292e-91
2.527795e-91
2.5409107e-91
1.8907718e-91
1.9622004e-91
1.6446076e-91
1.5592579e-91
6.267272e-91
5.8976117e-91
1.7304768e-91
1.6767387e-91
1.8349971e-91
1.7709802e-91
1.5683869e-91
1.5926308e-91
1.8107116e-91
1.8040124e-91
1.8331192e-91
1.8291441e-91
1.6052814e-91
1.5661481e-91
1.9031381e-91
1.8883135e-91
9.0013699e-92
9.3376054e-92
9.4985224e-92
1.9449872e-91
1.9427074e-91
9.584986e-92
9.1701343e-92
1.9100527e-91
9.49296e-92
1.9214591e-91
1.9060621e-91
1.8886147e-91
9.2967439e-92
9.3905836e-92
6.5378461e-92
5.4442029e-92
5.5163888e-92
6.8642895e-92
7.1501619e-92
5.8171373e-92
5.5766012e-92
7.1298721e-92
5.2921476e-92
5.0574224e-92
5.8934859e-92
5.2402651e-92
5.267381e-92
5.2217565e-92
6.2291628e-92
5.9613823e-92
7.0269366e-92
5.5986829e-92
5.635343e-92
7.3653981e-92
7.4229841e-92
5.7660662e-92
5.4990544e-92
7.1941565e-92
5.3397475e-92
5.1178985e-92
6.3141544e-92
5.7811659e-92
5.1320125e-92
5.1315559e-92
6.1246364e-92
5.9243213e-92
1.7873357e-91
1.782782e-91
1.7991211e-91
1.8135209e-91
1.6044748e-91
1.5488266e-91
1.7626143e-91
1.6578362e-91
1.8236455e-91
1.7161507e-91
1.5700001e-91
1.58579e-91
1.9168909e-91
1.9167016e-91
9.0945176e-92
9.4384464e-92
9.618615e-92
1.9413817e-91
1.9346075e-91
9.7207871e-92
9.266458e-92
1.9229268e-91
9.6164239e-92
1.9336277e-91
1.8971999e-91
1.8898025e-91
9.3941402e-92
9.506185e-92
5.2949454e-92
5.0598143e-92
5.7700361e-92
6.6471443e-92
6.8462718e-92
5.3779315e-92
5.5068418e-92
7.1827014e-92
5.2864004e-92
5.2272964e-92
6.2445851e-92
6.6869299e-92
5.6139347e-92
5.7692981e-92
7.4459304e-92
7.370276e-92
5.3520189e-92
5.1321881e-92
5.8936485e-92
6.4650745e-92
5.1177372e-92
5.1216212e-92
5.8330192e-92
5.9574936e-92
5.638645e-92
5.5426496e-92
7.07215e-92
7.3541285e-92
5.4029211e-92
5.6780956e-92
7.308269e-92
7.0328045e-92
2.1291147e-91
2.0885538e-91
5.5180727e-92
6.0040666e-92
2.119424e-91
2.1882383e-91
5.6151915e-92
5.4913905e-92
2.163743e-91
2.1497293e-91
5.3702727e-92
5.7914542e-92
1.9930525e-91
2.0911221e-91
5.5419003e-92
5.5718864e-92
2.3631992e-91
2.5268125e-91
6.542671e-92
6.963327e-92
2.460413e-91
2.561129e-91
6.7380681e-92
6.4202178e-92
2.4906854e-91
2.4944629e-91
6.4555304e-92
6.6834112e-92
2.3881357e-91
2.5109611e-91
6.5770595e-92
6.214455e-92
8.0601556e-92
7.4396303e-92
8.7945441e-92
8.7471819e-92
9.5823107e-92
9.2256004e-92
8.9814669e-92
9.3372588e-92
9.2299627e-92
8.826165e-92
9.3127574e-92
9.4408583e-92
9.1417744e-92
9.3296157e-92
8.1250756e-92
8.6361823e-92
8.5445773e-92
8.1153632e-92
9.4105165e-92
9.3051208e-92
9.7801462e-92
1.0024619e-91
9.9497937e-92
9.4292566e-92
8.6922902e-92
8.4441345e-92
9.0051866e-92
8.9710584e-92
8.6528431e-92
8.4839339e-92
7.6704086e-92
8.2143813e-92
2.2996237e-91
2.2730622e-91
5.8098827e-92
5.9943053e-92
2.2644941e-91
2.3610696e-91
5.7882817e-92
6.0905693e-92
2.0084034e-91
1.8626876e-91
5.2742521e-92
5.6491899e-92
5.5851117e-92
2.1752367e-91
2.1571512e-91
5.4626948e-92
2.1783072e-91
2.137087e-91
6.286535e-92
6.2216322e-92
2.3023463e-91
2.4113313e-91
5.905245e-92
5.6887902e-92
2.3205236e-91
2.2753857e-91
5.8183153e-92
6.1012749e-92
2.2759728e-91
2.3571026e-91
6.0936177e-92
5.9119548e-92
8.2173504e-92
7.9009385e-92
7.5596157e-92
7.2680582e-92
7.8036724e-92
7.1369461e-92
7.8934996e-92
7.245138e-92
8.9730379e-92
7.3028076e-92
8.5448585e-92
6.9982139e-92
8.4841339e-92
6.8923759e-92
8.6419955e-92
7.0418559e-92
6.1441755e-92
5.9052957e-92
5.9741018e-92
5.6776144e-92
5.9065471e-92
5.6255441e-92
5.9300738e-92
5.6448e-92
4.1239128e-92
4.0740695e-92
4.5104662e-92
4.4356066e-92
4.4099606e-92
4.2909111e-92
4.1564613e-92
4.5675132e-92
4.6592257e-92
4.6434711e-92
4.5319341e-92
4.8456936e-92
7.1594679e-92
6.7082038e-92
7.2860809e-92
6.7853688e-92
5.0320353e-92
4.8929342e-92
5.4079737e-92
5.5527736e-92
5.048353e-92
5.039171e-92
4.9994228e-92
5.0600291e-92
5.434138e-92
5.6112094e-92
7.0821439e-92
6.8609589e-92
6.9108907e-92
6.6336231e-92
5.3142767e-92
5.2522649e-92
9.5927975e-92
8.8601312e-92
9.3222486e-92
8.6012039e-92
9.3383589e-92
8.5378089e-92
9.4634241e-92
8.6619128e-92
1.0228582e-91
8.2658727e-92
1.0381562e-91
8.3945496e-92
1.0492833e-91
8.5361661e-92
1.0145053e-91
8.2687932e-92
4.028521e-92
4.0410585e-92
4.503505e-92
4.4503419e-92
3.5706054e-92
3.4949644e-92
3.6810428e-92
3.9795495e-92
8.7402403e-92
8.7737589e-92
7.9297575e-92
7.9602622e-92
9.3463186e-92
9.3529762e-92
7.5300256e-92
7.5431655e-92
6.5010718e-92
6.1565893e-92
6.5879556e-92
6.141288e-92
4.5780559e-92
4.8948469e-92
4.3893579e-92
4.2897615e-92
4.2484855e-92
4.6454026e-92
4.8614473e-92
6.2589987e-92
6.0600187e-92
6.2454097e-92
6.0107736e-92
4.6592855e-92
4.7424408e-92
4.3241418e-92
4.4373948e-92
4.6396516e-92
5.0794336e-92
4.8040713e-92
6.3445932e-92
6.154525e-92
6.6590606e-92
6.3440548e-92
3.5759943e-92
4.0063863e-92
3.8610081e-92
8.558087e-92
7.9372887e-92
8.8869939e-92
8.1994934e-92
9.4239222e-92
7.7301443e-92
9.6755068e-92
7.9225834e-92
8.4627409e-92
7.8077108e-92
8.4971708e-92
7.8420723e-92
9.2824962e-92
7.5625995e-92
9.3496932e-92
7.61502e-92
8.564669e-92
6.4861767e-92
8.7291301e-92
6.5745309e-92
9.2809043e-92
9.3624451e-92
8.400037e-92
8.4672663e-92
7.7080868e-92
9.9638311e-92
7.5757064e-92
9.8439822e-92
7.6447783e-92
9.4496676e-92
9.560339e-92
8.630557e-92
8.6201204e-92
9.2216523e-92
8.2865054e-92
9.240556e-92
8.2815753e-92
1.0175173e-91
9.9960564e-92
7.6821102e-92
7.8036902e-92
7.4546661e-92
9.8213473e-92
9.7461519e-92
7.4348859e-92
8.7647322e-92
6.90501e-92
8.8164166e-92
6.9282672e-92
9.2169936e-92
9.3418157e-92
7.9234786e-92
8.0036499e-92
9.0145389e-92
9.1341718e-92
7.1311135e-92
7.1902994e-92
9.4326292e-92
9.7147343e-92
8.1639071e-92
8.3505712e-92
9.4050921e-92
9.5274808e-92
8.0191996e-92
8.0979752e-92
8.8637121e-92
8.888094e-92
6.9667336e-92
6.9613525e-92
1.0225359e-91
8.7237872e-92
1.037661e-91
8.8605593e-92
1.0413438e-91
8.9673588e-92
1.01336e-91
8.732224e-92
9.8687077e-92
7.7722842e-92
9.5541521e-92
7.5466124e-92
9.5996225e-92
7.4839586e-92
9.7130287e-92
7.5716053e-92
1.0279724e-91
9.3428412e-92
1.0054507e-91
9.1421311e-92
1.0039381e-91
9.0164175e-92
1.0130099e-91
9.1117183e-92
1.0804952e-91
8.0362197e-92
1.0903185e-91
8.1705748e-92
1.1268078e-91
8.2964863e-92
1.090968e-91
8.1808907e-92
8.1924956e-92
6.4467411e-92
8.3597414e-92
6.5487388e-92
8.5723136e-92
7.3440627e-92
8.772034e-92
7.4944798e-92
9.0105676e-92
7.7537026e-92
8.6421985e-92
7.4529625e-92
8.5681365e-92
6.7689976e-92
8.1735832e-92
6.4856914e-92
8.8625572e-92
8.4814933e-92
8.1405434e-92
7.8119745e-92
8.6894231e-92
8.5654703e-92
7.7246346e-92
7.8057402e-92
9.4247521e-92
9.5786256e-92
7.1658095e-92
7.0192182e-92
9.9426416e-92
7.4048633e-92
9.4406112e-92
7.2770467e-92
1.7900783e-92
2.2627942e-92
2.7841102e-92
2.2331761e-92
3.1898495e-92
2.963927e-92
2.8899791e-92
2.967272e-92
2.6936112e-92
2.8197285e-92
3.2080165e-92
2.739792e-92
2.0918377e-92
2.569773e-92
2.1899738e-92
2.5312529e-92
3.1528656e-92
2.924362e-92
3.0179348e-92
3.1995751e-92
3.1689266e-92
3.1556715e-92
2.9681325e-92
2.9846343e-92
2.731906e-92
3.0089619e-92
2.6881337e-92
3.1882164e-92
3.0559412e-92
2.7164219e-92
3.0451659e-92
2.7009101e-92
2.6717005e-92
2.7541705e-92
2.5916807e-92
2.8486281e-92
2.6421476e-92
2.3498834e-92
2.3915068e-92
2.789673e-92
2.8521552e-92
2.9627867e-92
2.7679748e-92
3.0437086e-92
2.8318566e-92
2.505183e-92
2.9122487e-92
2.5468475e-92
3.0963794e-92
3.1134299e-92
3.1103898e-92
3.1777688e-92
2.9285974e-92
3.6301009e-92
3.7094138e-92
2.9238556e-92
3.3232223e-92
3.2784003e-92
3.2571118e-92
3.2153788e-92
3.0316262e-92
3.8298161e-92
3.8639559e-92
3.0716696e-92
3.4188181e-92
3.3630201e-92
3.3502417e-92
3.4930136e-92
3.129314e-92
3.128331e-92
3.9828236e-92
3.9229075e-92
3.4163982e-92
3.3777717e-92
3.4356854e-92
3.4054468e-92
3.9925766e-92
3.1891756e-92
4.0074104e-92
3.1627081e-92
3.0202521e-92
2.8150123e-92
2.8872365e-92
3.0520263e-92
2.8778721e-92
2.8878644e-92
2.7477463e-92
2.7448836e-92
2.638267e-92
2.9091776e-92
2.6091902e-92
3.0637429e-92
2.8304011e-92
2.5445869e-92
2.8329361e-92
2.5409462e-92
2.9082681e-92
3.0271765e-92
2.8096488e-92
3.1271112e-92
2.8431786e-92
2.5085293e-92
2.5566004e-92
3.0047547e-92
2.960003e-92
3.0934598e-92
2.8836704e-92
3.1603428e-92
2.9176067e-92
2.5748907e-92
2.9835029e-92
2.5977558e-92
3.2061992e-92
3.2699939e-92
3.2068045e-92
3.3469667e-92
3.0240478e-92
3.7657914e-92
3.0167724e-92
3.8404363e-92
3.3636976e-92
3.2806065e-92
3.3173575e-92
3.2368014e-92
3.8346834e-92
3.0485191e-92
3.8583135e-92
3.0582341e-92
3.306139e-92
3.2474532e-92
3.2306837e-92
3.3667709e-92
3.2159141e-92
3.2041661e-92
3.2176973e-92
3.2102552e-92
3.0393966e-92
3.042353e-92
3.7806982e-92
3.8515804e-92
3.7651536e-92
3.7932723e-92
3.0383798e-92
3.0655368e-92
3.5705975e-92
3.8148466e-92
3.4706142e-92
3.9452338e-92
3.4330873e-92
2.7804468e-92
2.8450728e-92
3.5990261e-92
3.6961425e-92
3.9117916e-92
3.5660328e-92
4.0733595e-92
3.5034571e-92
2.852639e-92
3.6833376e-92
2.9170762e-92
4.5780781e-92
4.1254697e-92
4.2135728e-92
4.6364337e-92
4.6997209e-92
4.2569629e-92
4.3732517e-92
4.8007081e-92
4.1465476e-92
3.4130186e-92
3.457944e-92
4.2650577e-92
4.255166e-92
3.5147734e-92
3.5675356e-92
4.3802224e-92
4.6476618e-92
4.1774918e-92
4.2148754e-92
4.6432152e-92
4.3161572e-92
4.3727934e-92
3.9734657e-92
3.9273517e-92
4.1924188e-92
3.4550062e-92
3.45928e-92
4.2498697e-92
3.9136325e-92
3.9508418e-92
3.280182e-92
3.2411677e-92
3.8006413e-92
3.4366417e-92
3.4752085e-92
3.8729846e-92
3.5564655e-92
3.5973117e-92
3.2864958e-92
3.236919e-92
2.8013276e-92
2.8222724e-92
3.4249521e-92
3.4707674e-92
3.1984815e-92
3.2499038e-92
2.6900523e-92
2.6694135e-92
3.2398895e-92
3.4625359e-92
3.1229011e-92
3.5908309e-92
3.0586845e-92
2.4899281e-92
2.5612744e-92
3.2400582e-92
3.8808088e-92
3.5251094e-92
3.7774526e-92
3.4078158e-92
3.3456479e-92
2.7092793e-92
3.4481583e-92
2.7752724e-92
4.8888989e-92
4.3774708e-92
4.4704393e-92
4.9374178e-92
4.7981543e-92
4.3480708e-92
4.41755e-92
4.8419426e-92
3.6501746e-92
4.388693e-92
3.6185629e-92
4.5428827e-92
3.5857357e-92
4.3491724e-92
3.588633e-92
4.3902783e-92
3.9136129e-92
4.2338447e-92
3.790905e-92
4.3748286e-92
3.762897e-92
3.0765873e-92
3.1548466e-92
3.942962e-92
4.2673868e-92
4.6179642e-92
4.1264598e-92
4.7518204e-92
4.1068797e-92
3.3642229e-92
4.240754e-92
3.4357262e-92
4.006619e-92
3.633544e-92
3.6681776e-92
4.0821461e-92
3.9778872e-92
3.6420294e-92
4.0516229e-92
3.647779e-92
2.9321639e-92
2.9594254e-92
3.6143938e-92
3.6667847e-92
3.6084953e-92
3.6140525e-92
2.9518554e-92
2.9537122e-92
4.9472064e-92
5.4324164e-92
4.783069e-92
5.6389055e-92
4.8150989e-92
3.8893824e-92
3.9712154e-92
5.0230396e-92
6.1053713e-92
5.3941832e-92
5.9681255e-92
5.2358791e-92
5.2547098e-92
4.2394891e-92
5.3958656e-92
4.336045e-92
8.245393e-92
7.0501068e-92
7.1614008e-92
8.3380511e-92
8.0777297e-92
7.9647208e-92
6.8347934e-92
6.9116642e-92
5.5709951e-92
7.0046908e-92
5.5599157e-92
7.1314639e-92
6.8401656e-92
5.4243648e-92
6.7815536e-92
5.4034558e-92
6.4604397e-92
7.226845e-92
6.1488384e-92
7.6481729e-92
6.1123081e-92
4.8340466e-92
4.9583986e-92
6.4237718e-92
7.0366228e-92
7.9775545e-92
6.7670006e-92
8.2373728e-92
6.7184661e-92
5.3142366e-92
6.9213831e-92
5.3886704e-92
6.1868016e-92
5.4675997e-92
5.5131701e-92
6.2995279e-92
6.0297969e-92
5.3639405e-92
6.0964412e-92
5.4057005e-92
4.5295089e-92
4.5429121e-92
5.5868672e-92
5.6326274e-92
5.4756944e-92
5.4481331e-92
4.4492738e-92
4.4600178e-92
1.1866724e-91
1.1993226e-91
9.7404806e-92
9.8600439e-92
9.8703722e-92
7.4761498e-92
7.5394753e-92
9.7421597e-92
1.1122955e-91
1.1125448e-91
9.4636759e-92
9.4237461e-92
9.4184132e-92
9.5164233e-92
7.2165929e-92
7.2614582e-92
8.8967637e-92
1.060424e-91
8.6502686e-92
1.0819212e-91
8.5751033e-92
6.540738e-92
6.7465105e-92
8.8590224e-92
9.7946006e-92
1.1443491e-91
9.5648583e-92
1.1561543e-91
9.4817632e-92
7.2025666e-92
9.9591767e-92
7.3633088e-92
1.7292163e-91
1.6979632e-91
1.1770113e-91
1.1760117e-91
1.3149115e-91
1.3124217e-91
1.8975286e-91
1.9175358e-91
1.0453528e-91
3.1203911e-92
3.5783907e-92
3.5912096e-92
3.1590987e-92
1.1641196e-91
1.8636034e-91
1.8828009e-91
1.3078959e-91
1.3090405e-91
1.2738163e-91
1.2693768e-91
1.8121701e-91
1.8143325e-91
3.3430986e-92
3.6885855e-92
3.6971108e-92
3.2471571e-92
1.0969461e-91
1.1657524e-91
3.2006491e-92
3.4325014e-92
3.3779169e-92
3.1479446e-92
3.3376863e-92
3.4682563e-92
3.2115959e-92
3.1518144e-92
1.7949646e-91
1.8090805e-91
1.2529885e-91
1.2530836e-91
1.1865449e-91
1.1727005e-91
1.6885696e-91
1.6741206e-91
3.1643573e-92
3.5015118e-92
3.4883451e-92
3.0520362e-92
1.034193e-91
1.1201578e-91
1.7133248e-91
1.7052904e-91
1.1821424e-91
1.182408e-91
1.271681e-91
1.2750289e-91
1.813592e-91
1.8462638e-91
3.02981e-92
3.415725e-92
3.5272418e-92
3.1066869e-92
1.1200388e-91
1.0329349e-91
1.0692021e-91
1.0844125e-91
8.9397669e-92
8.7962591e-92
8.9073945e-92
9.1210136e-92
6.8562241e-92
7.0000681e-92
9.4995434e-92
1.1255979e-91
9.3316128e-92
1.1340531e-91
7.2295102e-92
9.3678094e-92
9.6250141e-92
7.3448745e-92
2.9926493e-92
3.1846235e-92
3.2508053e-92