/*--------------------------------*- C++ -*----------------------------------*\
  =========                 |
  \\      /  F ield         | OpenFOAM: The Open Source CFD Toolbox
   \\    /   O peration     | Website:  https://openfoam.org
    \\  /    A nd           | Version:  7
     \\/     M anipulation  |
\*---------------------------------------------------------------------------*/
FoamFile
{
    version     2.0;
    format      ascii;
    class       volScalarField;
    location    "2000";
    object      omega;
}
// * * * * * * * * * * * * * * * * * * * * * * * * * * * * * * * * * * * * * //

dimensions      [0 0 -1 0 0 0 0];

internalField   nonuniform List<scalar> 
34377
(
2389.583
4637.6941
4183.0779
4290.1659
936.47306
2438.1727
958.59149
543.38699
966.11542
943.59792
1337.1215
9483.5279
1314.7822
4647.1788
9393.7089
4334.0875
1979.0815
7745.6735
7860.9191
1988.683
8078.2665
7878.7602
2059.6716
2070.0726
970.03223
4266.4254
949.48866
543.24692
849.4298
778.97366
795.27442
506.75358
505.6426
505.87256
520.71065
520.3606
869.74602
2203.2989
2219.28
954.46521
967.12494
2149.5818
2140.5707
2068.7645
754.53335
760.41263
2098.0692
4720.62
18776.632
4668.8424
18819.586
1334.2991
2034.3354
756.51464
752.90771
2031.1343
1335.8625
9497.6482
9516.5449
4592.1776
18674.913
4588.7646
18625.975
7712.6389
8228.7188
2110.7032
2020.3272
12986.801
13608.506
4436.5386
4552.4593
4537.646
13647.623
13416.92
4544.1546
13506.497
4634.6817
14034.899
4761.7915
13511.564
4576.3384
13214.183
4568.22
1998.5155
7751.1049
7976.6779
2035.4555
793.3472
786.54483
858.42866
868.9611
506.50178
505.01969
505.28157
519.99968
520.11397
1964.244
1949.5319
1919.6893
1945.6092
1636.6253
1469.8528
1446.6682
1613.7822
681.78015
1691.759
1517.4869
1522.0919
1688.4765
693.94148
614.29832
620.58721
490.19998
499.21913
499.44461
489.88047
2028.1758
2008.5907
1996.643
2017.541
5039.7385
5015.3869
5094.0371
5238.6837
2176.6855
2165.0191
2257.3435
2158.0055
5041.6838
4937.6564
4995.5158
4984.4925
645.34661
648.01345
2234.2901
773.16002
779.65883
2267.7306
3648.9605
6876.041
6904.2745
3679.6321
13250.067
13279.791
32980.977
33343.415
3624.1131
3614.0795
6837.4737
6810.4355
13343.047
32909.871
33141.463
2075.2647
758.10238
759.54994
2076.8636
2196.3949
774.64628
771.57211
2195.3273
759.18129
765.79435
2084.3365
2067.8138
4698.3121
4666.8411
18870.257
18848.314
4684.4494
4691.5472
18956.027
18790.444
3558.8283
3565.3776
6723.0102
6721.437
13118.814
13084.066
32680.394
33032.739
3565.6604
3547.7678
6721.6292
6718.9358
13133.901
13095.668
33077.51
32876.226
13133.03
12957.908
4458.6738
4447.1315
14003.671
13973.73
4800.358
4774.5149
20488.398
21656.341
8108.5767
7901.8873
22213.386
22132.43
8332.3344
8285.3052
21955.844
22413.876
8314.1461
8246.6778
22051.903
21339.186
8189.2132
8128.936
8176.8718
21207.51
22319.503
8397.2353
22820.827
22673.343
8654.0685
8593.9463
21621.919
21981.315
8196.2817
8245.3395
8112.5389
21537.92
20989.674
8107.9119
13490.459
4541.8514
4396.7278
12885.687
13515.732
13574.927
4627.1713
4549.1219
1647.4525
1479.5023
1526.97
1711.1731
691.40177
1662.3153
1499.7551
1481.1438
687.46638
1648.2935
1980.1743
1982.4166
1958.2573
1966.6902
2036.9948
2062.0418
1948.9449
1975.2226
617.74075
489.46749
498.65007
498.91515
489.64805
5259.0374
5170.7938
4691.9613
4781.5409
5192.031
5176.1565
4720.2578
4739.3779
4721.4694
4780.6453
4806.9552
4744.6734
4734.6017
4871.7387
4824.2668
4799.011
4242.7894
4094.955
4081.3249
4271.5004
3454.1182
3457.1386
3145.9515
3122.2327
1244.1651
3101.4941
3068.1711
3388.0765
1227.1245
3416.0045
4039.6866
4009.0827
4191.5706
4220.2844
1092.4455
1110.5451
4378.8213
4304.3491
4210.2638
4484.5425
3304.0974
3257.6362
3642.9997
3575.5117
1282.6429
3213.5735
3521.0476
4303.725
4140.6255
4379.7666
1139.3167
553.13357
840.45762
953.23353
939.71131
830.27455
844.42351
970.42179
4840.826
4978.4497
5319.8282
5472.7406
4877.9826
5011.0741
4965.8772
5094.3795
4951.7118
4878.8168
4790.5616
4851.5269
5275.2782
5225.5312
4762.7804
4803.1248
8868.7267
8873.1722
8924.072
9000.5364
8925.1037
9201.9998
9390.8964
9463.8009
5004.0847
5090.7733
4892.675
5023.2371
5277.1574
5247.3216
4924.7644
4897.5793
9097.7712
9134.4949
8673.6366
8928.2679
8896.0357
8979.9225
9014.2512
9097.9303
647.3404
647.70575
630.80044
2313.2361
4130.3458
4115.7327
4184.1796
4162.4683
7546.6804
12520.396
12637.249
18389
18634.32
12657.512
12589.818
18645.812
18476.401
29536.351
29779.087
49051.129
48285.346
49557.569
49354.311
29932.214
29213.236
7506.3631
7474.0523
12633.117
12726.993
18514.969
18694.703
29729.062
49071.21
29559.454
48782.042
29743.743
49247.978
2242.76
777.15954
777.95039
2247.2399
2279.7495
4062.6791
4064.0054
762.24068
759.62812
2275.2663
4050.7222
4059.4031
779.03453
786.03643
2252.3055
2237.5929
6879.0636
3660.2669
3650.7629
6871.5945
6838.1303
3626.4881
3631.4546
6815.1129
13329.697
13300.478
32737.083
33210.689
13273.97
13212.835
33221.993
33073.262
6813.2715
3621.8871
3649.1246
6875.6931
6885.1187
3645.3221
3632.44
6811.1501
13260.308
13298.206
33410.916
33425.597
13202.876
33088.318
13319.298
32713.442
7383.9096
7388.7857
12416.129
12482.01
18283.389
18450.192
12482.347
12401.171
18443.189
18251.212
47738.776
48777.191
28980.832
29298.591
49174.981
49014.253
29506.608
28885.98
7380.6271
7382.8439
12439.903
12518.117
18326.205
18487.11
12474.345
12403.044
18432.76
18247.724
29375.67
48902.704
29586.196
49357.384
29640.061
28986.673
49126.968
48518.387
21199.204
21411.144
8016.5787
8004.3328
21352.457
7965.3263
20577.75
7895.0226
22501.741
22669.031
8598.7284
8591.545
8617.3919
22898.04
22300.391
8555.1707
36578.298
35401.834
11298.903
11389.36
38585.16
38512.862
11762.67
11822.09
39858.531
39346.888
12072.833
12112.896
38870.997
39754.739
12052.899
12024.649
39174.848
38593.862
11944.489
11978.109
39857.467
40252.76
12129.953
12124.042
11960.722
39384.94
39469.232
11944.922
37138.512
38456.822
11684.852
11628.474
37903.217
36710.841
11659.619
11768.333
39676.906
39741.35
12137.545
12174.535
40295.764
12420.291
40799.504
12485.963
12474.043
40819.063
39620.944
12394.243
38480.575
37812.361
11761.152
11802.593
11904.442
39321.968
38850.955
11914.706
38528.27
38022.078
11685.139
11734.563
36197.399
37642.904
11548.727
11504.876
21962.756
21883.145
8192.6154
8250.8092
20638.291
21229.09
7857.0116
7936.0578
8228.1268
21932.684
22099.153
8236.6216
22045.072
21878.28
8241.8266
8325.4353
4083.5294
4003.5913
4244.6878
4172.1465
3469.9147
3400.5728
3091.845
3160.2172
1256.6613
3686.2934
3295.7708
3336.6731
3639.7716
1287.0004
4298.3343
4348.5557
4535.6984
4486.8391
1136.6987
1115.9853
4147.3983
4303.7164
3508.0806
3186.0788
3149.9508
3460.7224
1255.3968
3199.975
3518.9373
1118.0789
4155.8105
4330.6874
4078.6552
4250.5252
4648.7195
5240.2896
4762.7725
5298.7113
5197.7734
4829.425
4744.075
4757.2601
4830.3147
4847.6065
4925.8501
4890.8863
4794.7137
5147.1058
5096.0641
5017.8297
5061.351
5476.1826
5518.0833
5021.6568
4990.6669
4660.9101
4735.7947
4807.9606
4721.371
5143.8628
5089.8378
4648.829
4690.8569
840.02112
967.05551
957.90157
838.61205
10245.736
10280.408
9439.5868
9490.3386
9736.2409
8988.2552
10115.435
9299.9577
9296.0256
8374.7615
9613.7255
8620.0405
9768.6774
8772.4715
9814.1179
8823.2187
10075.784
9953.0659
9293.39
9214.989
10065.311
9300.9724
10211.818
9421.209
9638.5461
8684.9259
9753.5259
8771.2248
9622.5077
9529.3363
8656.4909
8597.4564
10249.152
9603.577
10425.118
9749.085
10040.916
10240.294
9641.7217
9813.1219
10136.555
9982.3771
9699.4569
9582.634
10298.182
10153.829
9618.5886
9514.3093
9980.527
9318.8227
10388.373
9675.296
10309.017
10292.799
9863.9185
9878.0595
9851.4097
9426.2369
10255.571
9795.1964
10476.431
10488.228
9781.5075
9818.6131
9638.1052
9235.4902
10022.309
9593.6057
9488.3238
9422.2837
9314.6514
9275.3631
9120.8548
8949.4901
9456.709
9277.6379
10054.339
10009.459
9636.0201
9622.9691
8462.4794
8593.8398
8387.4541
8537.9312
8176.9467
8286.4952
8436.2697
8558.4469
7014.1146
7197.2577
5921.3222
2727.2453
6039.9649
7230.1514
7173.5513
2691.7533
6035.1013
6072.5039
2585.6828
2532.9186
7082.8908
6980.583
2687.3158
5879.1436
5940.8439
6993.7086
7115.9075
2655.7476
5976.2682
5884.4816
8172.0176
8315.1183
8338.697
8484.3883
2504.0246
2539.1205
8295.0553
8435.1691
8157.6235
8308.9581
9319.84
9152.8531
9163.9623
9017.9721
9174.6161
9029.361
9378.3606
9220.3967
9750.2437
9380.2941
9963.8485
9568.2927
9884.0995
9476.27
9721.7314
9348.982
2047.6136
2016.488
2187.6414
2217.4623
2261.8184
2088.284
2031.1868
2207.5769
9786.0439
9404.3247
10410.696
9946.4345
9827.7616
9974.0403
9656.6956
9813.213
9236.8069
9088.4479
9872.7041
9666.554
10403.846
10556.683
9975.3747
10133.278
7538.3979
7656.4743
2856.2964
6499.6739
6382.304
7107.1919
7580.1695
2830.5091
6427.7411
6025.8094
8779.0138
8918.1864
8905.6317
9060.0046
8260.666
8394.7942
8843.0567
8955.6951
2680.2706
2688.7327
7155.2455
7334.7025
6210.727
6048.1553
8342.1717
8469.5909
8558.5619
8682.7926
9322.2913
9858.4766
9447.0572
10101.138
9664.5792
9327.4342
9153.4713
9567.3655
9379.8526
10024.41
9571.5506
10060.674
9624.909
2342.5265
2153.6345
2144.9871
2340.7693
735.13653
738.83134
623.16091
621.23883
547.44851
1242.6711
1412.6552
1364.1824
1207.2709
1573.7629
1629.8099
1816.24
1760.3205
1751.0208
1562.9581
1582.6328
1774.331
1354.4348
1194.4852
1367.5836
1204.1516
1418.7594
1241.4432
1401.9843
1858.0974
1648.8621
1634.1141
1847.2718
9533.3486
8614.0228
9890.041
8885.3787
10069.931
10181.294
9059.9135
9157.0851
9965.3765
9222.5161
10407.492
9579.3776
10559.559
9742.8392
10692.82
9869.7992
10188.716
10699.228
9541.0556
9970.2722
10802.807
10945.647
10096.114
10241.012
10030.965
9624.3339
10600.083
10112.477
10647.802
10797.168
10192.547
10345.149
10189.62
10223.138
9713.8815
9758.711
10076.688
10295.15
9636.5349
9828.718
10205.631
10395.271
9535.4096
9697.5343
10266.797
10289.282
9563.4287
9598.9425
9986.8447
9205.3639
10005.51
9236.732
9972.5002
9209.9254
10127.987
9339.0473
9531.105
8604.2849
9647.9323
8691.173
9510.8093
8569.4704
9526.6515
8590.787
12183.646
12077.973
12333.354
12384.568
12400.832
12457.766
12591.871
12550.421
12292.687
12431.584
12839.411
12835.334
13122.366
13202.872
13203.172
13043.246
9013.0414
8992.4157
9033.2385
9131.9242
8636.1403
8722.6231
8975.5454
9039.6418
9417.3929
9389.1744
9434.1236
9350.0871
8760.7012
8658.9833
8775.5485
8768.8165
12761.373
12819.322
12754.391
12660.453
11899.092
12024.286
12442.327
12469.005
12340.324
12215.422
12628.37
12646.971
12612.609
12670.449
12788.945
12841.441
632.41822
632.97631
611.45638
778.75165
776.08963
4111.7913
4095.7536
2298.4273
4758.3697
4767.8517
4146.2804
6324.1703
6302.1904
10410.885
10525.635
15819.625
16000.787
15677.902
15906.009
22942.367
18771.961
23171.206
18877.383
19099.687
19116.342
23403.34
23340.839
15944.005
15753.993
23335.26
19107.116
23462.308
19166.099
18924.102
18902.264
23210.761
23065.851
42472.228
26959.278
27204.135
42720.807
27313.132
27441.578
42458.49
43163.746
66503.538
54754.737
54869.872
65988.847
52972.637
65890.15
66267.788
53720.706
66619.598
66573.749
55404.687
55059.975
55545.533
66086.358
65610.243
55150.201
27465.173
27357.185
42574.663
42810.082
26987.951
27216.561
41407.845
42076.2
6285.1727
6269.0857
10455.931
10370.873
6259.6673
6245.8618
10324.291
10436.156
19016.072
18926.378
23092.507
23293.309
23429.942
19169.502
19185.642
23363.786
42203.678
27258.355
27362.557
42257.717
54269.471
66027
66264.128
54854.642
27285.439
27063.854
42002.341
42615.676
54122.381
65658.04
66407.049
54496.372
43170.617
27433.312
27277.022
42032.05
65809.001
66815.812
54997.524
55065.128
2325.3001
4163.6781
4119.4155
765.49194
765.90246
2331.3033
4164.2271
4130.524
4044.5925
4039.6628
2272.6153
4703.7911
4702.8762
4041.3121
4031.3595
2262.9396
4683.8157
4693.59
766.07979
772.84572
2338.6851
4166.785
4168.9448
2325.1189
4135.8363
4140.7739
7549.5897
7547.361
7511.8401
7484.8454
18565.024
18764.827
12711.602
12641.753
12701.73
12603.083
18737.788
18525.845
29031.87
47806.646
29420.205
48589.756
29635.605
29031.909
49349.533
49186.338
18514.882
12660.055
12587.227
18695.686
12590.103
12518.785
18603.182
18425.019
29165.901
29456.274
48997.403
49494.057
29525.635
49296.455
28934
48998.538
7476.0542
7554.4302
7566.6843
7478.5659
12559.606
12636.308
18498.762
18686.659
12692.494
12629.886
18705.352
18539.039
29347.578
29624.598
49302.282
49663.717
29251.234
29766.913
49803.887
49328.911
12575.543
12504.526
18350.406
18549.104
29515.272
29643.734
48589.276
48893.765
12714.475
12636.704
18527.38
18687.502
29465.739
28815.582
48757.557
48003.932
6169.46
6187.4442
10295.174
10257.475
15577.465
15729.45
6194.3489
6172.9608
10229.797
10306.876
15740.239
15537.135
18782.06
18685.059
22863.676
23080.366
23223.598
18922.698
18944.282
23171.281
23142.632
18908.052
23269.281
18967.13
18686.84
18689.387
22969.941
22868.405
52273.392
65079.105
65748.641
52953.132
53963.93
66079.538
66023.127
54173.888
27087.485
26837.581
41845.729
41161.215
27144.188
27252.22
42156.134
42463.448
54419.656
66112.882
66280.033
54746.204
54788.792
65902.278
65759.606
54482.503
27278.56
27162.093
42368.227
42411.732
26828.813
26994.984
41685.626
42078.775
6179.2994
6163.9231
10298.545
10200.933
15734.793
15523.763
6169.8467
6155.3544
10321.028
10231.213
15617.411
15771.32
18827.871
18731.524
22922.732
23131.143
23253.325
18954.094
18969.685
23188.789
23124.863
18893.318
23247.97
18950.353
18669.356
18664.848
22952.953
22839.084
27161.092
26928.834
42187.167
42722.115
54193.138
65841.905
66464.031
54405.951
27177.203
27304.504
43256.418
42827.726
66451.338
66654.778
55063.856
54976.753
27275.761
27162.287
42932.191
42947.112
26807.4
26994.704
42565.22
41891.386
66534.28
66432.924
54633.439
54795.09
65588.741
66121.092
54500.984
53846.142
37808.739
37255.42
11585.766
11615.881
37815.665
38332.49
11616.19
11630.804
38204.161
37895.977
11597.457
11621.188
35535.998
36976.459
11319.344
11264.277
39214.867
40209.805
12329.351
12399.881
39962.315
40476.823
12373.313
12367.187
40814.568
40507.872
12490.033
12506.901
38676.225
40134.858
12313.162
12196.192
38559.825
37339.059
40668.689
40606.447
42013.86
41466.839
40976.766
41910.429
41311.71
40634.699
41982.678
42319.914
41495.62
41603.641
39130.262
40516.619
39946.841
38785.464
41837.933
41831.325
42475.106
43013.71
43039.339
41763.023
40548.724
39822.548
41451.082
40913.9
40616.093
40144.32
38138.405
39735.039
39440.282
38726.128
11891.18
11946.015
38439.139
39124.705
11895.816
11904.454
36587.52
36084.964
11346.895
11337.331
11493.906
37756.757
37650.359
11544.434
39061.677
38708.285
11933.356
11950.459
39093.536
39580.566
11940.319
11946.318
39490.786
39083.13
11966.85
11996.08
38300.599
39104.341
11947.444
11952.492
9326.1134
9146.7923
9134.2432
8975.0627
9108.4404
8945.7951
9123.4743
8968.4673
9838.4351
9407.261
9643.6218
9245.5445
9646.5897
9257.2582
9674.9103
9285.3868
8350.8457
8464.3121
8189.3149
8318.5944
8148.6993
8269.4661
8131.6718
8267.7749
6995.2001
6959.2805
5920.5783
5874.459
2686.5454
7153.2706
7022.0465
5933.664
6034.4402
2745.7236
2535.8254
2596.8024
8969.4369
9087.5757
8892.082
9024.4969
7656.0706
7516.478
6363.4014
6484.802
2846.5824
7726.4525
7616.9828
2881.0141
6425.6613
6564.7669
8916.0029
9046.3268
8748.657
8903.5432
2673.0804
2703.988
9959.6297
9770.6036
9794.2205
9635.9875
9982.893
9797.1266
9931.2712
9742.0572
10532.712
10108.639
10476.75
10044.103
10519.305
10083.485
10362.025
9961.5853
2155.8199
2131.3659
2328.1159
2354.8653
2098.8986
2051.7538
2221.2445
2271.3954
9506.0692
9506.6396
9307.449
9330.2452
10020.239
10053.936
9578.5315
9628.203
8511.6497
8627.0289
8470.059
8612.8403
7227.7551
6068.6386
7206.7683
7108.2184
2736.5977
5988.3589
6095.4577
8393.7938
8514.3003
8311.2311
8445.8244
2619.304
2590.2508
2770.5683
7173.7785
7321.9923
6180.9909
6042.6583
8366.0529
8503.9144
8539.5995
8677.4496
2111.7882
2266.36
2286.0124
9374.5881
9215.1833
9562.5009
9392.942
9935.5157
9539.6716
10121.541
9714.7151
9373.4625
9202.0164
9320.32
9152.9492
9913.452
9515.5868
9872.4995
9471.7811
9229.4134
8327.7215
9338.0954
8405.3444
10073.745
10158.253
9288.6537
9369.1278
9025.5949
9607.5427
8652.7329
9689.4366
8722.6132
10118.79
10275.718
9343.7059
9481.4012
10088.684
9313.3676
10047.241
9279.945
9664.355
9800.8494
8712.2608
8822.7989
8688.8012
9637.2877
9605.2232
8664.1854
10313.172
9646.3616
10269.243
9601.7823
10159.109
10116.18
9730.1475
9685.014
10345.995
10515.839
9673.2917
9827.2156
10188.149
10367.701
9759.6964
9925.7741
10216.311
10273.83
9752.5424
9819.9183
10329.414
10403.434
9633.9237
9712.0661
10772.238
10317.09
10698.532
10240.886
10757.364
10287.534
10610.842
10176.488
10896.464
10175.851
10762.691
10081.242
10916.136
10203.423
10832.127
10127.039
10636.024
9800.0265
10525.224
9726.985
10645.986
9808.9596
10571.495
9756.6285
10117.363
9105.6757
10069.128
9071.2567
10122.713
9107.7026
10034.984
9048.4578
10029.034
9372.326
10047.246
9390.3071
9886.1374
9460.2357
9910.6802
9484.691
10032.23
9570.9628
9837.6175
9416.1722
10133.544
9443.1184
9949.6737
9306.225
9871.8762
9717.0631
9090.421
8985.7311
9819.5991
9809.0274
9053.3835
9066.4426
9374.1102
9376.7367
8459.2892
8459.1417
9397.2375
8457.859
9279.164
8379.6969
740.27739
1420.6226
1222.2249
1397.0976
1623.1383
1650.5646
1862.8419
1837.3891
1784.3946
1589.9349
1623.3371
1821.5509
1373.0174
1205.3792
1402.331
1227.1226
14660.444
13873.869
13879.125
14652.919
14648.254
14614.586
13845.704
13901.326
13184.407
14105.577
13183.815
14105.281
14133.437
13226.135
14083.515
13166.501
12999.803
13570.077
12905.283
13680.113
13144.48
12344.438
12407.803
13229.698
13682.377
14257.599
13508.938
14446.472
13733.096
12843.364
13901.124
12991.822
11930.197
12534.611
11885.663
12588.579
11399.134
12071.045
12113.56
11468.3
13157.43
12434.685
13018.464
12316.179
11828.757
12493.865
12603.007
11898.284
13366.163
12636.279
12630.398
13356.146
12135.252
12163.603
12816.171
12824.419
13347.627
12620.531
13394.344
12667.29
12831.601
12110.649
12800.638
12124.825
14453.434
13693.171
13649.015
14384.469
14030.544
14037.529
13344.6
13366.996
12989.099
13942.452
13036.68
13884.49
13611.188
12769.75
13598.76
12739.828
13616.957
14377.307
13624.165
14360.091
13870.505
12993.568
12977.223
13853.211
13922.164
14595.967
13819.023
14687.412
14060.219
13147.171
14155.979
13239.792
12465.118
13191.608
12488.88
13161.193
12029.221
12688.832
12014.402
12662.645
13412.565
12681.626
13334.154
12611.132
12812.503
12169.794
12857.932
12174.921
13231.583
12508.982
12456.336
13165.3
12929.036
12239.083
12944.624
12262.908
12025.329
11995.763
12706.663
12644.251
12433.396
12420.862
11759.688
11732.712
14717.54
15356.79
14721.117
15348.204
15127.902
14144.752
14139.773
15118.027
15061.734
15596.206
14945.423
15734.622
15369.108
14356.504
15456.627
14460.971
15449.024
14911.292
14921.713
15450.693
15736.616
15162.252
15342.67
15909.859
15507.418
14824.852
14826.67
15504.957
15763.846
15049.899
15211.354
15930.628
15691.354
15092.255
15022.34
15591.396
15073.313
15111.777
14563.322
14551.965
15680.472
14946.223
14876.317
15589.476
15080.65
15124.844
14442.004
14422.282
15469.684
14790.841
14724.653
15378.653
14878.047
14935.264
14299.389
14263.089
14192.596
14141.641
15187.554
15110.86
14607.654
14671.14
13761.066
13760.598
14051.747
14535.167
13909.192
14684.96
14233.038
13351.338
13462.91
14386.705
15545.992
14859.092
15340.432
14664.473
15030.259
14037.922
15221.588
14224.902
15934.971
15337.124
15294.994
15874.061
15742.747
15185.878
15245.564
15785.448
15159.949
15935.209
15193.332
15878.504
15126.461
15794.554
15083.257
15825.203
14382.757
14787.26
14245.269
14930.456
14762.37
14089.944
14227.393
14905.488
15226.362
15615.375
15017.988
15821.87
15583.672
14842.485
15790.642
15046.805
15724.027
15037.704
15031.643
15687.72
15623.917
14962.648
15640.014
14989.285
14420.373
14424.712
15439.409
15438.67
15373.136
15373.838
14367.918
14414.069
14665.964
15132.049
14517.221
15294.478
15024.927
14296.81
14435.078
15173.51
16168.862
15501.639
15974.13
15304.336
15868.851
15069.911
16066.821
15272.743
17033.733
16061.901
16079.061
17045.753
16745.906
16639.282
15721.48
15838.169
15670.985
16606.903
15685.955
16597.515
16353.536
15488.748
16267.5
15394.037
15220.924
15936.862
15030.464
16146.077
15510.366
14659.439
14824.633
15697.363
16041.719
16804.202
15827.148
17008.759
16366.483
15440.082
16566.746
15640.537
16223.347
15561.245
15524.982
16181.123
15935.343
15312.449
16001.331
15388.031
15361.381
15318.5
16148.424
16091.802
15955.034
15905.553
15159.052
15225.985
19173.813
19187.319
17478.386
17513.414
17961.648
16544.453
16572.424
17932.964
18656.692
18712.639
17144.588
17029.865
17480.78
17582.642
16150.786
16280.776
16639.286
18089.036
16453.623
18245.838
16835.792
15512.759
15715.963
17044.634
17476.869
19027.741
17285.697
19156.304
17730.383
16315.022
17921.195
16526.182
19629.85
19696.483
17806.466
17934.122
18701.332
18823.542
20646.73
20667.456
18944.137
5293.6604
5343.9707
5282.71
5373.0557
19858.866
20679.952
20670.84
18830.491
18848.606
18318.934
18388.531
20087.615
20074.93
5402.1019
5359.3556
5291.3938
5359.4542
19248.8
19844.243
4847.313
4827.0731
4835.7124
4875.5098
4733.7897
4840.0962
4892.9028
4815.6505
20519.287
20503.947
18658.088
18668.537
17872.652
17946.836
19643.335
19637.774
5302.5162
5267.5249
5207.0299
5251.6064
18807.296
19664.731
19768.025
19798.525
18011.841
18079.199
18601.022
18727.947
20477.348
20504.717
5239.489
5197.3884
5270.1734
5315.9069
19648.075
18975.6
18333.353
18414.178
16826.005
16723.923
17150.915
17266.298
15846.699
15959.199
17420.069
18932.914
17225.394
19064.163
16297.194
17678.313
17877.895
16513.56
4749.3859
4701.5595
4748.3304
4802.4669
4710.6767
4778.5547
4821.7917
4766.4025
17318.675
19004.614
17295.668
18999.767
16367.632
17758.763
17769.342
16378.102
16677.079
18195.306
16566.044
18249.003
15685.632
17002.068
17091.787
15792.579
15865.514
16854.803
15873.592
16841.101
16416.374
15484.861
15450.361
16379.362
16216.692
15303.63
16142.149
15217.928
15730.261
14860.313
15776.465
14915.575
15510.801
16311.57
15415.873
16419.863
15945.752
16025.11
15098.905
15160.63
16036.337
16780.746
15817
16989.936
15454.268
16360.962
16567.78
15657.581
15056.562
15626.335
15021.876
15668.679
14879.052
15598.46
15617.584
14898.294
16182.191
15530.633
15990.868
15338.588
15160.406
15924.257
16107.002
15344.312
15279.355
16013.562
15336.895
15947.492
15127.687
15914.918
15828.15
15055.172
15380.552
14766.867
15364.702
14740.925
14570.399
15293.695
15280.754
14571.34
3693.8611
3769.2311
3898.0143
3826.1975
3710.1091
3700.7865
3819.395
3834.9372
4289.7723
4218.651
4252.7124
4325.357
4369.4288
4303.3551
4227.0805
4304.8955
4418.989
4366.6271
4334.5377
4405.2534
3948.1819
3806.178
3765.726
3909.3099
3633.7442
3780.9293
3922.5495
3788.5676
4413.0226
4338.5103
4201.1485
4302.9522
14911.898
15394.925
14790.713
15534.72
15328.605
14610.162
14710.559
15438.993
16782.851
16074.188
16539.182
15829.687
16380.926
15548.242
16628.639
15795.647
17524.094
16529.252
16618.829
17604.404
17673.314
17595.821
16623.098
16721.187
16193.396
17077.204
16133.9
17142.094
17225.706
16312.044
17176.854
16244.768
15428.092
16127.026
15231.2
16351.423
15733.491
14896.084
15049.931
15917.951
16738.262
17519.289
16480.833
17765.886
17005.002
16023.035
17251.896
16269.155
16671.444
15990.481
16028.711
16705.038
16787.418
16113.636
16806.792
16148.794
15770.701
15805.513
16576.075
16597.012
16692.233
16704.526
15904.744
15918.436
21276.711
21281.904
19369.307
19426.727
19341.918
19433.022
21174.888
21160.318
5707.9861
5673.7949
5748.0749
5803.4204
20301.101
20443.386
19745.759
19820.521
17923.49
18055.354
19593.89
19748.168
21658.478
21698.729
5402.9506
5385.7628
5734.2665
5741.2635
20884.687
19050.535
19716.576
19766.721
17976.213
18063.415
18523.708
17025.372
17121.301
18439.88
19700.914
19754.975
18122.596
18002.274
18477.228
18560.575
17089.798
17211.454
16781.446
18217.223
16588.555
18380.669
16989.252
15683.876
15902.786
17212.31
18305.624
19917.47
18083.906
20073.442
18527.427
17040.014
18752.929
17290.335
4955.5724
4939.2378
5232.2365
5246.0324
5181.7101
5155.8068
5201.1485
5253.8112
20225.275
20266.19
18357.904
18466.257
18958.669
19123.375
20934.63
20972.006
20137.282
19452.764
18680.802
18792.395
17135.871
16986.796
17406.208
17559.76
16031.026
16194.444
17736.987
19284.95
17505.667
19442.432
16506.132
17945.66
18167.406
16750.433
16453.473
15475.395
15553.32
16543.001
15047.997
15618.425
14970.425
15703.54
14745.36
15504.112
15553.917
14796.78
16210.706
15523.691
16032.109
15337.033
15071.859
15874.22
16038.951
15244.924
15671.713
16476.623
15521.817
16630.886
16023.612
16152.11
15125.325
15239.995
16195.535
16970.444
15960.924
17193.353
15527.534
16477.929
16684.784
15735.068
15286.332
15951.671
15237.529
15998.087
14943.398
15757.037
15785.73
14986.856
15768.412
15096.704
15792.461
15101.688
14818.405
15612.503
15559.506
14790.283
4536.0829
4491.2648
4724.4073
4775.2191
4078.267
3954.8054
4115.8311
4257.3631
4027.4972
4060.3538
4203.3145
4182.6727
4714.8381
4639.1089
4626.1562
4725.5103
1063.2625
1068.2576
837.66003
834.59068
1095.5497
1075.4814
845.46145
854.53554
696.74549
691.95166
542.05418
1943.7074
1688.8798
1664.0261
1889.032
2169.6966
2244.9805
2466.836
2392.7757
2336.5722
2105.5553
2068.907
2284.2665
1822.1699
1575.0306
1579.0878
1802.491
2570.3433
2653.8696
2863.7717
2757.9963
2694.7643
2760.1308
2943.3748
2886.3534
3227.9093
3276.6104
3434.5416
3388.4599
3395.464
3218.3738
3091.7982
3264.5471
3333.5453
3173.2636
3162.253
3329.4247
2817.2728
2608.3273
2587.2359
2799.3227
2623.1169
2646.5664
2861.133
2815.22
3392.6485
3222.2392
3164.4936
3325.2756
2301.9201
2071.7955
2053.1224
2283.6814
1790.6905
1545.2427
1552.112
1777.9685
2333.2009
2098.2318
2103.362
2326.3723
1809.4164
1562.5564
1587.4496
1819.4778
2470.9196
2229.3952
2234.2772
2496.1139
1928.0575
1668.7879
1919.4988
2459.2674
2193.8237
2198.0198
2453.9745
3559.7206
3388.1887
3490.5474
3681.0866
3017.0019
2801.5825
2851.0669
3085.5177
2803.6241
2812.1293
3054.5646
3034.4826
3646.6104
3449.7354
3427.405
3618.2294
12858.039
12912.897
12201.844
12250.95
11747.548
12450.329
11832.458
12397.048
13360.435
12652.08
12771.138
13508.568
12241.657
12845.792
12200.135
12940.86
13699.215
12967.684
13000.488
13736.952
13801.688
13826.429
13070.041
13063.87
12546.678
13168.204
12491.326
13204.182
13216.921
12494.508
13255.733
12565.461
13944.685
14031.807
13245.763
13328.233
13557.844
12730.955
13479.861
12667.263
14646.631
13873.368
14066.377
14854.677
13352.601
14091.077
13189.404
14279.954
15025.655
14222.025
15066.937
14272.749
14497.866
14448.57
13519.703
13567.117
15117.045
14353.344
15187.22
14374.988
13653.032
14606.267
14571.254
13649.318
14939.496
14309.228
14417.185
15053.064
16017.036
15768.363
15084.94
15315.565
13827.966
14658.163
13739.419
14773.65
15680.887
14653.614
15460.215
14440.26
16110.678
15419.998
15478.891
16162.321
16280.956
15590.447
16211.015
15533.407
14853.01
15826.949
14794.865
15881.564
15893.578
16004.776
14956.704
14910.44
14695.099
15128.927
14591.753
15228.421
15136.399
14467.429
14576.228
15246.351
15708.225
16078.638
15460.157
16330.456
16022.654
15269.903
16275.265
15518.641
16335.227
15727.318
15772.647
16359.932
16477.954
15877.5
15873.31
16448.748
15636.686
16325.85
15579.486
16366.88
15720.34
16485.654
15739.096
16438.539
15440.829
14828.297
14877.668
15471.107
15234.076
15304.95
14706.62
14661.82
15356.433
14618.611
14674.896
15398.769
15131.59
15220.627
14492.076
14433.741
15262.206
14695.614
14740.51
15294.854
15591.713
14995.126
15152.717
15744.368
15241.684
14538.791
14587.922
15276.105
15547.901
14818.379
14962.932
15685.231
15014.968
14364.39
14421.534
15057.302
15306.626
14641.2
14754.495
15426.805
13840.111
14718.727
13796.521
14776.456
14151.388
15012.098
14041.196
15096.977
15076.971
14399.462
14457.5
15124.79
14830.985
14933.248
14263.624
14194.912
13863.572
14742.836
13813.113
14796.151
14493.024
14586.496
13688.463
13664.683
14059.827
13350.545
14098.973
13392.42
13621.839
12761.779
13592.989
12738.211
13920.087
13946.871
13260.426
13268.039
13495.857
12667.893
13499.078
12648.963
14038.336
14066.566
13338.545
13369.242
13604.118
12763.64
13590.499
12753.165
14278.038
13544.684
13651.387
14377.352
12996.166
13780.305
12904.256
13874.25
12956.231
12947.309
12282.375
12276.947
12474.833
11857.668
12487.557
11832.367
13087.272
12392.158
12457.631
13161.269
11967.38
12589.104
11963.72
12629.837
12929.383
12243.934
12936.812
12252.023
12436.966
11800.36
12436.352
11775.228
12829.684
12834.641
12149.304
12166.048
12330.072
11631.894
12322.76
11655.686
12602.249
12607.926
12613.86
12567.955
12620.732
12662.775
12599.3
12548.177
11947.37
11936.175
12146.369
12129.382
12534.956
12605.352
12566.774
12491.654
13100.678
12992.292
13076.561
13018.426
13209.411
13184.53
13015.051
12813.136
12244.539
12283.726
11944.572
11827.945
12217.752
12272.122
12277.353
12244.215
612.37702
783.65182
782.55481
790.14428
784.10868
582.14351
792.25065
769.74989
769.72297
792.99962
7139.2404
7146.9598
7113.9054
7135.2343
5198.499
5191.3234
4634.5517
4631.527
7071.0553
8096.5567
8067.2945
7090.3351
8092.3758
8088.0009
7103.1532
7095.6681
7166.7586
11307.54
16672.302
16860.048
21202.404
21406.948
21529.031
21487.464
16537.455
21267.703
21036.739
16769.018
21475.097
21432.876
24859.169
25153.694
25382.638
25257.903
16813.498
21580.125
21423.736
16601.405
21286.342
21173.19
25274.332
25454.024
25183.131
24956.804
59695.215
29036.938
29350.669
60066.841
29393.371
29588.454
59488.011
60811.893
99528.874
59330.359
59486.113
99281.305
58433.493
99434.445
99432.062
58804.901
99519.928
99314.706
60047.013
59680.098
60143.139
99281.224
99118.947
59967.325
29607.145
29446.527
59773.387
60176.812
29027.372
29332.787
57681.408
58686.862
11361.642
11267.057
11223.114
11342.323
25006.888
25268.069
25392.928
25264.954
59013.422
29316.423
29487.855
59251.706
59715.66
99237.595
99461.129
60079.07
29420.918
29128.145
59165.918
60190.769
59328.201
99645.61
99741.277
59767.595
61012.153
29551.912
29330.981
59237.114
99348.113
99951.892
60111.829
60043.538
4141.4708
4095.7333
2312.6549
4752.5159