/*--------------------------------*- C++ -*----------------------------------*\
  =========                 |
  \\      /  F ield         | OpenFOAM: The Open Source CFD Toolbox
   \\    /   O peration     | Website:  https://openfoam.org
    \\  /    A nd           | Version:  7
     \\/     M anipulation  |
\*---------------------------------------------------------------------------*/
FoamFile
{
    version     2.0;
    format      ascii;
    class       volScalarField;
    location    "2000";
    object      p;
}
// * * * * * * * * * * * * * * * * * * * * * * * * * * * * * * * * * * * * * //

dimensions      [0 2 -2 0 0 0 0];

internalField   nonuniform List<scalar> 
34377
(
-1.4428505e+183
-1.4562422e+183
-1.4066048e+183
-1.4122237e+183
-1.3842564e+183
-1.4320473e+183
-1.3899981e+183
-1.2628714e+183
-1.3446983e+183
-1.3393239e+183
-1.4218884e+183
-1.422165e+183
-1.4166698e+183
-1.4463719e+183
-1.4166879e+183
-1.4027439e+183
-1.3710625e+183
-1.3884108e+183
-1.3908095e+183
-1.3735238e+183
-1.3931338e+183
-1.3959196e+183
-1.3788797e+183
-1.3760511e+183
-1.3798823e+183
-1.3978732e+183
-1.3750466e+183
-1.2541108e+183
-1.294559e+183
-1.2491316e+183
-1.2537268e+183
-1.1778612e+183
-1.2419578e+183
-1.2371846e+183
-1.2782631e+183
-1.2833429e+183
-1.299423e+183
-1.3505044e+183
-1.3474813e+183
-1.3296551e+183
-1.334588e+183
-1.3425593e+183
-1.3449633e+183
-1.398467e+183
-1.3921902e+183
-1.3947298e+183
-1.4010902e+183
-1.4048676e+183
-1.4008144e+183
-1.4022277e+183
-1.4034469e+183
-1.4128173e+183
-1.3938018e+183
-1.3875599e+183
-1.3898955e+183
-1.3962129e+183
-1.4083741e+183
-1.4080235e+183
-1.4126519e+183
-1.3974731e+183
-1.395984e+183
-1.3998861e+183
-1.3984266e+183
-1.3867949e+183
-1.3845612e+183
-1.3670688e+183
-1.3693188e+183
-1.3777559e+183
-1.3787317e+183
-1.3652422e+183
-1.3661887e+183
-1.3673204e+183
-1.3797857e+183
-1.3809787e+183
-1.3685951e+183
-1.3820102e+183
-1.3697243e+183
-1.3834219e+183
-1.3711321e+183
-1.3847928e+183
-1.372598e+183
-1.3860911e+183
-1.3739618e+183
-1.3621869e+183
-1.379479e+183
-1.3822221e+183
-1.3647053e+183
-1.2452572e+183
-1.2409327e+183
-1.2855068e+183
-1.2901747e+183
-1.1707732e+183
-1.228757e+183
-1.2331778e+183
-1.2736712e+183
-1.2689503e+183
-1.3159513e+183
-1.3182365e+183
-1.2917656e+183
-1.2894979e+183
-1.2680859e+183
-1.2469876e+183
-1.2489781e+183
-1.2701924e+183
-1.2069718e+183
-1.2725751e+183
-1.2514069e+183
-1.2540919e+183
-1.2752004e+183
-1.2112263e+183
-1.1613477e+183
-1.164864e+183
-1.1561826e+183
-1.2013567e+183
-1.1970904e+183
-1.1597372e+183
-1.3206098e+183
-1.2940222e+183
-1.2968484e+183
-1.3235739e+183
-1.3560564e+183
-1.3545049e+183
-1.3517443e+183
-1.3531025e+183
-1.3362167e+183
-1.333869e+183
-1.3384273e+183
-1.3408012e+183
-1.3479599e+183
-1.3470371e+183
-1.3505718e+183
-1.3490855e+183
-1.3701748e+183
-1.3748058e+183
-1.3770655e+183
-1.3704225e+183
-1.3731289e+183
-1.3797377e+183
-1.3895408e+183
-1.3927477e+183
-1.3940378e+183
-1.3907977e+183
-1.3910112e+183
-1.3923955e+183
-1.388146e+183
-1.389526e+183
-1.3882757e+183
-1.3868496e+183
-1.3915329e+183
-1.3901063e+183
-1.3936419e+183
-1.3920721e+183
-1.3908308e+183
-1.3899291e+183
-1.3836388e+183
-1.3856973e+183
-1.3919831e+183
-1.3724879e+183
-1.3659634e+183
-1.3681469e+183
-1.3747199e+183
-1.381448e+183
-1.3791066e+183
-1.3854199e+183
-1.3878376e+183
-1.3888283e+183
-1.3912856e+183
-1.3870421e+183
-1.3896879e+183
-1.3935662e+183
-1.395653e+183
-1.3920562e+183
-1.394189e+183
-1.3834833e+183
-1.3823161e+183
-1.385585e+183
-1.3867378e+183
-1.3865053e+183
-1.3876134e+183
-1.3837758e+183
-1.3848103e+183
-1.3857202e+183
-1.3845679e+183
-1.3889929e+183
-1.387797e+183
-1.3887074e+183
-1.3898932e+183
-1.3859029e+183
-1.3870658e+183
-1.3762116e+183
-1.3771437e+183
-1.3645924e+183
-1.3636788e+183
-1.3739019e+183
-1.375153e+183
-1.3613291e+183
-1.3625483e+183
-1.3708077e+183
-1.3711895e+183
-1.3627993e+183
-1.3624663e+183
-1.3716084e+183
-1.3721081e+183
-1.363742e+183
-1.3632163e+183
-1.3725919e+183
-1.3732561e+183
-1.3649096e+183
-1.3642549e+183
-1.3738692e+183
-1.3744825e+183
-1.3655697e+183
-1.3662389e+183
-1.3667584e+183
-1.3749567e+183
-1.375581e+183
-1.3673589e+183
-1.3762097e+183
-1.3769236e+183
-1.3687124e+183
-1.3679869e+183
-1.3775733e+183
-1.378364e+183
-1.3693842e+183
-1.3701927e+183
-1.3708979e+183
-1.3790336e+183
-1.3796237e+183
-1.3715236e+183
-1.3702991e+183
-1.3577467e+183
-1.3565396e+183
-1.3689236e+183
-1.3715806e+183
-1.372863e+183
-1.3602707e+183
-1.3590267e+183
-1.2663709e+183
-1.2453203e+183
-1.2433209e+183
-1.2642059e+183
-1.2034572e+183
-1.2604178e+183
-1.2396996e+183
-1.2413045e+183
-1.1995635e+183
-1.2621916e+183
-1.307617e+183
-1.3097743e+183
-1.2833811e+183
-1.2814428e+183
-1.2854191e+183
-1.3118524e+183
-1.2876283e+183
-1.3141122e+183
-1.1580178e+183
-1.1493799e+183
-1.1894409e+183
-1.1934311e+183
-1.1527477e+183
-1.3145023e+183
-1.3134931e+183
-1.3301683e+183
-1.3310981e+183
-1.3170695e+183
-1.3157092e+183
-1.3322505e+183
-1.3336737e+183
-1.3021993e+183
-1.2894095e+183
-1.2908228e+183
-1.3035276e+183
-1.2999377e+183
-1.2881989e+183
-1.2872614e+183
-1.3009464e+183
-1.2763342e+183
-1.2664694e+183
-1.2656293e+183
-1.2771868e+183
-1.2569118e+183
-1.2560627e+183
-1.246526e+183
-1.2473427e+183
-1.2272927e+183
-1.2494193e+183
-1.2481947e+183
-1.2577928e+183
-1.229264e+183
-1.2589984e+183
-1.2687064e+183
-1.2674102e+183
-1.2782958e+183
-1.2797052e+183
-1.2084645e+183
-1.206483e+183
-1.280809e+183
-1.2712007e+183
-1.269854e+183
-1.2820483e+183
-1.2519967e+183
-1.2505195e+183
-1.2615362e+183
-1.2601138e+183
-1.231738e+183
-1.2533341e+183
-1.2628775e+183
-1.2834158e+183
-1.2725012e+183
-1.284937e+183
-1.2109104e+183
-1.1169551e+183
-1.1629023e+183
-1.1863096e+183
-1.1881787e+183
-1.1639946e+183
-1.1657285e+183
-1.1903094e+183
-1.3348725e+183
-1.3362409e+183
-1.3181694e+183
-1.3195493e+183
-1.3045454e+183
-1.3059151e+183
-1.2918092e+183
-1.2930863e+183
-1.2960326e+183
-1.2945127e+183
-1.3073549e+183
-1.3088264e+183
-1.322467e+183
-1.320945e+183
-1.3376414e+183
-1.3392066e+183
-1.3601946e+183
-1.3594976e+183
-1.3579674e+183
-1.3587857e+183
-1.3553156e+183
-1.3558851e+183
-1.356512e+183
-1.3572911e+183
-1.3410396e+183
-1.3423469e+183
-1.3388326e+183
-1.3398576e+183
-1.3433166e+183
-1.3444366e+183
-1.3464573e+183
-1.3454656e+183
-1.3516135e+183
-1.3522104e+183
-1.350893e+183
-1.3511673e+183
-1.3548054e+183
-1.3540516e+183
-1.3527177e+183
-1.353347e+183
-1.3659582e+183
-1.3613729e+183
-1.3265754e+183
-1.3550293e+183
-1.3778803e+183
-1.3764625e+183
-1.3804928e+183
-1.3791637e+183
-1.383347e+183
-1.384275e+183
-1.3849532e+183
-1.3850045e+183
-1.3856936e+183
-1.3856185e+183
-1.3862634e+183
-1.3863093e+183
-1.3869893e+183
-1.3838197e+183
-1.3845029e+183
-1.3808021e+183
-1.3801501e+183
-1.3814534e+183
-1.3821144e+183
-1.3851303e+183
-1.3857971e+183
-1.3820884e+183
-1.3807032e+183
-1.3868758e+183
-1.3875893e+183
-1.3875978e+183
-1.3883306e+183
-1.3877827e+183
-1.3841817e+183
-1.3864515e+183
-1.3827948e+183
-1.3871861e+183
-1.3835425e+183
-1.3685135e+183
-1.3618806e+183
-1.3641266e+183
-1.3706229e+183
-1.3506435e+183
-1.3719563e+183
-1.3730776e+183
-1.3450028e+183
-1.3470974e+183
-1.3526743e+183
-1.3741314e+183
-1.3753374e+183
-1.359704e+183
-1.357529e+183
-1.3642004e+183
-1.366399e+183
-1.3770183e+183
-1.3739164e+183
-1.3751344e+183
-1.378269e+183
-1.3794198e+183
-1.3762552e+183
-1.3773143e+183
-1.3805594e+183
-1.3777078e+183
-1.3789722e+183
-1.3748868e+183
-1.3762094e+183
-1.3802377e+183
-1.3814237e+183
-1.3775202e+183
-1.3787588e+183
-1.3816198e+183
-1.3783726e+183
-1.3795396e+183
-1.3828305e+183
-1.383814e+183
-1.3805504e+183
-1.3814586e+183
-1.3847411e+183
-1.3825351e+183
-1.383754e+183
-1.3798566e+183
-1.3810935e+183
-1.3857007e+183
-1.3821602e+183
-1.3847976e+183
-1.3830608e+183
-1.3761893e+183
-1.3772936e+183
-1.3798879e+183
-1.3804078e+183
-1.3806884e+183
-1.3811964e+183
-1.3809246e+183
-1.3814486e+183
-1.3816611e+183
-1.3821997e+183
-1.3759499e+183
-1.3763565e+183
-1.3795333e+183
-1.3800124e+183
-1.3768116e+183
-1.3772952e+183
-1.3804722e+183
-1.3809857e+183
-1.3795642e+183
-1.3783568e+183
-1.3819667e+183
-1.3825899e+183
-1.3827043e+183
-1.3833415e+183
-1.3831675e+183
-1.3837229e+183
-1.3838831e+183
-1.3844664e+183
-1.3815167e+183
-1.3778254e+183
-1.3821575e+183
-1.3784725e+183
-1.3827144e+183
-1.3832753e+183
-1.3790734e+183
-1.3796284e+183
-1.3692082e+183
-1.3697541e+183
-1.3613738e+183
-1.3608609e+183
-1.3702067e+183
-1.3618425e+183
-1.3705748e+183
-1.3622283e+183
-1.3670432e+183
-1.3676289e+183
-1.3587227e+183
-1.359275e+183
-1.3598231e+183
-1.3681848e+183
-1.3687561e+183
-1.3603982e+183
-1.3649376e+183
-1.3647899e+183
-1.3604098e+183
-1.3605423e+183
-1.365287e+183
-1.3651044e+183
-1.3606946e+183
-1.3609011e+183
-1.3657487e+183
-1.3654725e+183
-1.361098e+183
-1.3613595e+183
-1.3662601e+183
-1.3660169e+183
-1.36162e+183
-1.3619018e+183
-1.3667798e+183
-1.366478e+183
-1.3621355e+183
-1.362417e+183
-1.3674165e+183
-1.3670946e+183
-1.3627218e+183
-1.3630832e+183
-1.363384e+183
-1.3677091e+183
-1.3680757e+183
-1.363738e+183
-1.3686756e+183
-1.3684054e+183
-1.3640758e+183
-1.3643825e+183
-1.3691768e+183
-1.3688841e+183
-1.3645948e+183
-1.3648733e+183
-1.3697229e+183
-1.3694547e+183
-1.3651579e+183
-1.3654504e+183
-1.3700178e+183
-1.3657322e+183
-1.3703871e+183
-1.3660928e+183
-1.3664633e+183
-1.3707587e+183
-1.371104e+183
-1.3668398e+183
-1.3718297e+183
-1.3714113e+183
-1.367141e+183
-1.3675423e+183
-1.3679451e+183
-1.3722151e+183
-1.3725584e+183
-1.3683319e+183
-1.3732504e+183
-1.3728821e+183
-1.3686299e+183
-1.3690032e+183
-1.3737896e+183
-1.3735665e+183
-1.369332e+183
-1.3695758e+183
-1.3633633e+183
-1.3640552e+183
-1.3550306e+183
-1.3557324e+183
-1.3621772e+183
-1.3627201e+183
-1.3539514e+183
-1.3544065e+183
-1.3563321e+183
-1.3646154e+183
-1.3653305e+183
-1.3569939e+183
-1.3659561e+183
-1.3665629e+183
-1.3576254e+183
-1.3582319e+183
-1.2649146e+183
-1.2639743e+183
-1.2755799e+183
-1.2746472e+183
-1.2553818e+183
-1.254467e+183
-1.2449714e+183
-1.2458916e+183
-1.2257024e+183
-1.2526728e+183
-1.2441457e+183
-1.2432074e+183
-1.2535623e+183
-1.2238249e+183
-1.2630511e+183
-1.2621535e+183
-1.2729088e+183
-1.2737911e+183
-1.2033372e+183
-1.2053455e+183
-1.2594014e+183
-1.2699286e+183
-1.2500158e+183
-1.2406087e+183
-1.2411745e+183
-1.2506547e+183
-1.2218826e+183
-1.2422469e+183
-1.2517665e+183
-1.2014101e+183
-1.2613179e+183
-1.2720795e+183
-1.2601434e+183
-1.2708448e+183
-1.3224262e+183
-1.3068401e+183
-1.3233238e+183
-1.3091816e+183
-1.3079345e+183
-1.3256932e+183
-1.3244363e+183
-1.2944703e+183
-1.2817595e+183
-1.2956925e+183
-1.2830182e+183
-1.2807132e+183
-1.2933772e+183
-1.2838687e+183
-1.284739e+183
-1.297482e+183
-1.2965541e+183
-1.3110012e+183
-1.3100535e+183
-1.3266277e+183
-1.327656e+183
-1.2983208e+183
-1.2855413e+183
-1.2864692e+183
-1.299197e+183
-1.3128124e+183
-1.3118732e+183
-1.3286097e+183
-1.3295931e+183
-1.1593421e+183
-1.1833244e+183
-1.1854131e+183
-1.1616354e+183
-1.3129835e+183
-1.3136837e+183
-1.3213091e+183
-1.3219523e+183
-1.3121273e+183
-1.3204538e+183
-1.3124654e+183
-1.3208027e+183
-1.3293033e+183
-1.3400462e+183
-1.3296036e+183
-1.3403018e+183
-1.3300756e+183
-1.3407546e+183
-1.3307189e+183
-1.3413758e+183
-1.3155703e+183
-1.316273e+183
-1.3238413e+183
-1.3245426e+183
-1.3142681e+183
-1.3224991e+183
-1.3149118e+183
-1.3231643e+183
-1.3312357e+183
-1.3418845e+183
-1.3318824e+183
-1.3425135e+183
-1.3325737e+183
-1.3333308e+183
-1.3432266e+183
-1.344008e+183
-1.3001277e+183
-1.3071328e+183
-1.3008371e+183
-1.3077853e+183
-1.2878584e+183
-1.2885856e+183
-1.2939125e+183
-1.294654e+183
-1.2892699e+183
-1.2899376e+183
-1.2953208e+183
-1.295942e+183
-1.3014705e+183
-1.3021192e+183
-1.3084397e+183
-1.3091306e+183
-1.2979379e+183
-1.3049412e+183
-1.2983082e+183
-1.3052788e+183
-1.2866132e+183
-1.2872506e+183
-1.2926368e+183
-1.293293e+183
-1.2857641e+183
-1.2917462e+183
-1.2861388e+183
-1.292142e+183
-1.2987977e+183
-1.2994943e+183
-1.305799e+183
-1.30652e+183
-1.2746374e+183
-1.2801776e+183
-1.2750123e+183
-1.2805375e+183
-1.2652971e+183
-1.2657933e+183
-1.2702975e+183
-1.2708061e+183
-1.2645213e+183
-1.2694957e+183
-1.2648875e+183
-1.2698852e+183
-1.2754179e+183
-1.2759781e+183
-1.2809814e+183
-1.2815931e+183
-1.2557121e+183
-1.2605085e+183
-1.2561869e+183
-1.2609919e+183
-1.2549366e+183
-1.2597401e+183
-1.25534e+183
-1.2601112e+183
-1.2502887e+183
-1.2506755e+183
-1.2455866e+183
-1.2374527e+183
-1.2459115e+183
-1.2510645e+183
-1.251518e+183
-1.2381861e+183
-1.2467515e+183
-1.2463131e+183
-1.2283228e+183
-1.2289814e+183
-1.2529521e+183
-1.2535767e+183
-1.2402312e+183
-1.248791e+183
-1.248173e+183
-1.2518797e+183
-1.2524061e+183
-1.2389786e+183
-1.247608e+183
-1.2471202e+183
-1.2565432e+183
-1.2614121e+183
-1.2570699e+183
-1.2619539e+183
-1.2296496e+183
-1.2309548e+183
-1.2576102e+183
-1.2625347e+183
-1.2582593e+183
-1.2632032e+183
-1.2674628e+183
-1.2726327e+183
-1.268146e+183
-1.2733167e+183
-1.2662635e+183
-1.2713258e+183
-1.2668484e+183
-1.2719851e+183
-1.276549e+183
-1.2821967e+183
-1.2772443e+183
-1.2829136e+183
-1.2779143e+183
-1.2836051e+183
-1.2786149e+183
-1.2843013e+183
-1.2134057e+183
-1.2121195e+183
-1.2208946e+183
-1.2222002e+183
-1.2196882e+183
-1.2109301e+183
-1.2114643e+183
-1.2202742e+183
-1.2791027e+183
-1.2847352e+183
-1.2796675e+183
-1.2852442e+183
-1.2699499e+183
-1.2707224e+183
-1.2750801e+183
-1.2758184e+183
-1.2686771e+183
-1.2738316e+183
-1.269292e+183
-1.2744411e+183
-1.2802728e+183
-1.2810385e+183
-1.2858695e+183
-1.2866732e+183
-1.2554673e+183
-1.2562801e+183
-1.2429064e+183
-1.2515596e+183
-1.2507198e+183
-1.2540651e+183
-1.2547546e+183
-1.2414048e+183
-1.2499602e+183
-1.2492907e+183
-1.2601028e+183
-1.2650187e+183
-1.2609175e+183
-1.2658157e+183
-1.2587564e+183
-1.2637173e+183
-1.2594286e+183
-1.2643448e+183
-1.2321873e+183
-1.2337526e+183
-1.2569226e+183
-1.2577081e+183
-1.2529803e+183
-1.2522239e+183
-1.2615588e+183
-1.2664647e+183
-1.2623367e+183
-1.2672077e+183
-1.2779823e+183
-1.2817258e+183
-1.2873758e+183
-1.2825138e+183
-1.2881422e+183
-1.2713559e+183
-1.276471e+183
-1.2721016e+183
-1.2772514e+183
-1.2832253e+183
-1.2888615e+183
-1.2839333e+183
-1.2895714e+183
-1.2235256e+183
-1.2147817e+183
-1.2163793e+183
-1.2251273e+183
-1.1372133e+183
-1.136654e+183
-1.1019663e+183
-1.1018897e+183
-1.0564299e+183
-1.1717819e+183
-1.183809e+183
-1.1841323e+183
-1.1716585e+183
-1.1935144e+183
-1.1931794e+183
-1.2021617e+183
-1.2026009e+183
-1.2033563e+183
-1.1942789e+183
-1.1954882e+183
-1.2045655e+183
-1.1846729e+183
-1.1720448e+183
-1.1857789e+183
-1.1730562e+183
-1.1868202e+183
-1.1737325e+183
-1.1883584e+183
-1.2059319e+183
-1.1966746e+183
-1.1982802e+183
-1.2074938e+183
-1.3338751e+183
-1.3445373e+183
-1.3345018e+183
-1.3451185e+183
-1.3351365e+183
-1.3359144e+183
-1.3457525e+183
-1.3465253e+183
-1.316751e+183
-1.3250447e+183
-1.3173438e+183
-1.3256882e+183
-1.3180172e+183
-1.3263478e+183
-1.3188249e+183
-1.3271051e+183
-1.3025629e+183
-1.3031286e+183
-1.3095874e+183
-1.3101569e+183
-1.3037957e+183
-1.3046128e+183
-1.3108382e+183
-1.3116562e+183
-1.2903362e+183
-1.2963466e+183
-1.2908525e+183
-1.2969041e+183
-1.2915006e+183
-1.2923163e+183
-1.297572e+183
-1.2983708e+183
-1.2944901e+183
-1.2951938e+183
-1.3005517e+183
-1.301224e+183
-1.2930008e+183
-1.29377e+183
-1.2990458e+183
-1.299832e+183
-1.3052818e+183
-1.306058e+183
-1.3123351e+183
-1.3131072e+183
-1.3067596e+183
-1.3074379e+183
-1.3138185e+183
-1.3144929e+183
-1.320994e+183
-1.3293544e+183
-1.3216684e+183
-1.3300005e+183
-1.3194875e+183
-1.3277764e+183
-1.3202775e+183
-1.3286238e+183
-1.3365838e+183
-1.3472212e+183
-1.3374228e+183
-1.3480549e+183
-1.3381511e+183
-1.3487945e+183
-1.3388315e+183
-1.3494983e+183
-1.3622408e+183
-1.3625273e+183
-1.3615871e+183
-1.3619371e+183
-1.3600494e+183
-1.3604433e+183
-1.3608419e+183
-1.3612893e+183
-1.3574824e+183
-1.3577327e+183
-1.3580071e+183
-1.3583415e+183
-1.3586223e+183
-1.3589724e+183
-1.3593111e+183
-1.3597374e+183
-1.344993e+183
-1.3455827e+183
-1.3462078e+183
-1.3468554e+183
-1.3427395e+183
-1.3430632e+183
-1.3436556e+183
-1.3444124e+183
-1.3473085e+183
-1.3478179e+183
-1.3483497e+183
-1.348954e+183
-1.3502688e+183
-1.350692e+183
-1.3493789e+183
-1.3498165e+183
-1.3538815e+183
-1.3541399e+183
-1.3544002e+183
-1.3547361e+183
-1.3532327e+183
-1.3533111e+183
-1.3534435e+183
-1.3536751e+183
-1.3568919e+183
-1.3572577e+183
-1.3565712e+183
-1.3562191e+183
-1.3549597e+183
-1.3552277e+183
-1.3559121e+183
-1.3555167e+183
-1.322584e+183
-1.3181681e+183
-1.2801717e+183
-1.3222971e+183
-1.3244544e+183
-1.3669267e+183
-1.365524e+183
-1.3333717e+183
-1.3538109e+183
-1.3552179e+183
-1.3682986e+183
-1.3750146e+183
-1.3743714e+183
-1.3764852e+183
-1.3771767e+183
-1.3822242e+183
-1.3829244e+183
-1.3796061e+183
-1.3802568e+183
-1.3817342e+183
-1.3813759e+183
-1.3820896e+183
-1.3817521e+183
-1.3820684e+183
-1.382357e+183
-1.3823946e+183
-1.3827146e+183
-1.3809172e+183
-1.3815939e+183
-1.3830041e+183
-1.3826547e+183
-1.3833863e+183
-1.3830568e+183
-1.3833778e+183
-1.3836633e+183
-1.383699e+183
-1.3840196e+183
-1.3802247e+183
-1.3813704e+183
-1.3817129e+183
-1.3805342e+183
-1.3823363e+183
-1.3820154e+183
-1.3811431e+183
-1.3808428e+183
-1.3783775e+183
-1.3736655e+183
-1.3739464e+183
-1.3786746e+183
-1.3731094e+183
-1.3777768e+183
-1.378082e+183
-1.3733866e+183
-1.3789655e+183
-1.3793399e+183
-1.3746193e+183
-1.3742471e+183
-1.3749731e+183
-1.379673e+183
-1.3799845e+183
-1.375308e+183
-1.3830076e+183
-1.382636e+183
-1.3817979e+183
-1.3814438e+183
-1.3836409e+183
-1.3833174e+183
-1.3824454e+183
-1.3821263e+183
-1.373747e+183
-1.3729485e+183
-1.3751053e+183
-1.3758641e+183
-1.3722618e+183
-1.3716557e+183
-1.373801e+183
-1.3744384e+183
-1.3843735e+183
-1.38396e+183
-1.3843168e+183
-1.3847155e+183
-1.3850527e+183
-1.3847203e+183
-1.3850228e+183
-1.3853908e+183
-1.3841725e+183
-1.3853332e+183
-1.3856684e+183
-1.3844976e+183
-1.3770593e+183
-1.3817283e+183
-1.3820709e+183
-1.377414e+183
-1.3843595e+183
-1.3839629e+183
-1.3827786e+183
-1.3831687e+183
-1.3756229e+183
-1.3803083e+183
-1.380715e+183
-1.3760254e+183
-1.3835277e+183
-1.3846974e+183
-1.385041e+183
-1.383871e+183
-1.3814159e+183
-1.3810843e+183
-1.3763888e+183
-1.3767245e+183
-1.3466751e+183
-1.3691558e+183
-1.3680494e+183
-1.340908e+183
-1.343169e+183
-1.3488836e+183
-1.3701268e+183
-1.3710962e+183
-1.3621558e+183
-1.3611474e+183
-1.3290657e+183
-1.3496099e+183
-1.3504765e+183
-1.3643818e+183
-1.363193e+183
-1.3310276e+183
-1.3514759e+183
-1.3527022e+183
-1.3388707e+183
-1.3367392e+183
-1.3426583e+183
-1.364942e+183
-1.3638126e+183
-1.3445974e+183
-1.3670091e+183
-1.3659635e+183
-1.3679404e+183
-1.3690892e+183
-1.3701569e+183
-1.371242e+183
-1.3720968e+183
-1.3726968e+183
-1.3719966e+183
-1.3714018e+183
-1.3725844e+183
-1.373145e+183
-1.3732684e+183
-1.3738733e+183
-1.3708253e+183
-1.3672185e+183
-1.3714522e+183
-1.3678052e+183
-1.3720621e+183
-1.3726661e+183
-1.3684637e+183
-1.3690892e+183
-1.3744484e+183
-1.3743167e+183
-1.3737039e+183
-1.3750928e+183
-1.3748723e+183
-1.3753925e+183
-1.3756444e+183
-1.3762001e+183
-1.3732674e+183
-1.3739379e+183
-1.3697025e+183
-1.3703894e+183
-1.3745245e+183
-1.371028e+183
-1.3750684e+183
-1.3715842e+183
-1.3722786e+183
-1.3734009e+183
-1.3743639e+183
-1.3753122e+183
-1.3759131e+183
-1.3765183e+183
-1.3767212e+183
-1.3773407e+183
-1.3770847e+183
-1.377607e+183
-1.3778862e+183
-1.3784418e+183
-1.3755911e+183
-1.3762171e+183
-1.3720939e+183
-1.3726915e+183
-1.3773304e+183
-1.3767817e+183
-1.3732824e+183
-1.3738217e+183
-1.3790837e+183
-1.3794851e+183
-1.3803132e+183
-1.3799022e+183
-1.3778443e+183
-1.3783832e+183
-1.3743396e+183
-1.3748802e+183
-1.3786253e+183
-1.3780957e+183
-1.3789336e+183
-1.3794724e+183
-1.3788151e+183
-1.379188e+183
-1.3753327e+183
-1.3756725e+183
-1.3677135e+183
-1.3672653e+183
-1.3698844e+183
-1.3694213e+183
-1.3752067e+183
-1.3757032e+183
-1.3688661e+183
-1.3682496e+183
-1.3709932e+183
-1.3704117e+183
-1.3762177e+183
-1.3767641e+183
-1.3773615e+183
-1.3770684e+183
-1.3774571e+183
-1.37772e+183
-1.3779421e+183
-1.3775979e+183
-1.3778001e+183
-1.3781699e+183
-1.3783812e+183
-1.378019e+183
-1.3786809e+183
-1.3783443e+183
-1.3786004e+183
-1.3788231e+183
-1.3789236e+183
-1.3791766e+183
-1.3690675e+183
-1.3736795e+183
-1.3738596e+183
-1.3692087e+183
-1.3693711e+183
-1.3740415e+183
-1.3742226e+183
-1.3695483e+183
-1.377349e+183
-1.3771042e+183
-1.3762373e+183
-1.3760392e+183
-1.3777861e+183
-1.3775612e+183
-1.3766399e+183
-1.3764393e+183
-1.3697405e+183
-1.3744218e+183
-1.374698e+183
-1.3700084e+183
-1.3702665e+183
-1.3749469e+183
-1.375175e+183
-1.3705056e+183
-1.378291e+183
-1.3780039e+183
-1.3771206e+183
-1.3768566e+183
-1.3787799e+183
-1.378527e+183
-1.3776117e+183
-1.37737e+183
-1.371153e+183
-1.3705004e+183
-1.372673e+183
-1.3732889e+183
-1.3784676e+183
-1.3790455e+183
-1.3699011e+183
-1.369361e+183
-1.372085e+183
-1.3714911e+183
-1.3772915e+183
-1.3778908e+183
-1.379425e+183
-1.3790675e+183
-1.3794201e+183
-1.3797583e+183
-1.3800435e+183
-1.3797177e+183
-1.3799752e+183
-1.3803331e+183
-1.3805879e+183
-1.3802341e+183
-1.3809262e+183
-1.3805908e+183
-1.3808694e+183
-1.3811115e+183
-1.3811975e+183
-1.3814726e+183
-1.3793736e+183
-1.3790414e+183
-1.3778769e+183
-1.3781883e+183
-1.3707273e+183
-1.375416e+183
-1.3757442e+183
-1.3710304e+183
-1.3799532e+183
-1.3796599e+183
-1.3784931e+183
-1.3787818e+183
-1.3763432e+183
-1.3760484e+183
-1.3713364e+183
-1.3716479e+183
-1.3805518e+183
-1.3802219e+183
-1.3790672e+183
-1.3793915e+183
-1.3810976e+183
-1.3808225e+183
-1.3796858e+183
-1.3799562e+183
-1.3769764e+183
-1.376625e+183
-1.3719465e+183
-1.3723033e+183
-1.3775388e+183
-1.3772767e+183
-1.3726269e+183
-1.3728961e+183
-1.3634883e+183
-1.3632245e+183
-1.3588611e+183
-1.3590908e+183
-1.363955e+183
-1.3637294e+183
-1.3593144e+183
-1.3595672e+183
-1.3644126e+183
-1.3641641e+183
-1.3597739e+183
-1.3600056e+183
-1.3647247e+183
-1.3646125e+183
-1.3602025e+183
-1.3603401e+183
-1.3610898e+183
-1.3613893e+183
-1.3567374e+183
-1.3570208e+183
-1.3619352e+183
-1.3616637e+183
-1.3572956e+183
-1.3575857e+183
-1.3624997e+183
-1.3621814e+183
-1.3578267e+183
-1.3581283e+183
-1.3630333e+183
-1.362788e+183
-1.3584163e+183
-1.358673e+183
-1.3562615e+183
-1.3561392e+183
-1.3565997e+183
-1.3564051e+183
-1.3570813e+183
-1.3568174e+183
-1.3576182e+183
-1.3573329e+183
-1.3581643e+183
-1.3578716e+183
-1.3588e+183
-1.3584595e+183
-1.359123e+183
-1.3594702e+183
-1.3600778e+183
-1.3597713e+183
-1.3606244e+183
-1.3603336e+183
-1.3611833e+183
-1.360906e+183
-1.3614984e+183
-1.3618461e+183
-1.3621807e+183
-1.3625517e+183
-1.36331e+183
-1.3628971e+183
-1.3637081e+183
-1.3640898e+183
-1.3647576e+183
-1.364407e+183
-1.3652831e+183
-1.3650478e+183
-1.3577416e+183
-1.3573594e+183
-1.3529803e+183
-1.3533757e+183
-1.3584394e+183
-1.3581113e+183
-1.354094e+183
-1.3537513e+183
-1.3565379e+183
-1.3563364e+183
-1.3520143e+183
-1.3521803e+183
-1.3523966e+183
-1.3567903e+183
-1.3570573e+183
-1.3526766e+183
-1.3589865e+183
-1.3586968e+183
-1.3546536e+183
-1.3543643e+183
-1.3596554e+183
-1.3593361e+183
-1.3549729e+183
-1.3553174e+183
-1.3602957e+183
-1.3599461e+183
-1.3556046e+183
-1.3559328e+183
-1.3608764e+183
-1.360613e+183
-1.3562444e+183
-1.356519e+183
-1.263731e+183
-1.2641824e+183
-1.2687183e+183
-1.2691575e+183
-1.2629609e+183
-1.267946e+183
-1.2633183e+183
-1.268309e+183
-1.273824e+183
-1.2793714e+183
-1.274289e+183
-1.2798482e+183
-1.2730707e+183
-1.2786176e+183
-1.2734181e+183
-1.2789564e+183
-1.2541936e+183
-1.2589599e+183
-1.2546213e+183
-1.2594073e+183
-1.2533896e+183
-1.258183e+183
-1.2537943e+183
-1.2585493e+183
-1.2488006e+183
-1.2492099e+183
-1.2441639e+183
-1.2445459e+183
-1.2358442e+183
-1.2496114e+183
-1.2500154e+183
-1.2453474e+183
-1.2449392e+183
-1.2367743e+183
-1.2266424e+183
-1.2276022e+183
-1.2519489e+183
-1.2567208e+183
-1.2523109e+183
-1.2570268e+183
-1.2480779e+183
-1.2484723e+183
-1.2438555e+183
-1.243429e+183
-1.2350706e+183
-1.2472975e+183
-1.2477071e+183
-1.2341189e+183
-1.2429833e+183
-1.2425413e+183
-1.2526149e+183
-1.2573788e+183
-1.2530181e+183
-1.257821e+183
-1.2259773e+183
-1.22501e+183
-1.2621672e+183
-1.2672005e+183
-1.2626183e+183
-1.2676338e+183
-1.2614682e+183
-1.2664702e+183
-1.2617689e+183
-1.2667956e+183
-1.2716448e+183
-1.2772196e+183
-1.2719667e+183
-1.277542e+183
-1.2723588e+183
-1.2779296e+183
-1.2727847e+183
-1.2783448e+183
-1.2077019e+183
-1.2088672e+183
-1.2174691e+183
-1.2164161e+183
-1.2103645e+183
-1.2095753e+183
-1.2180934e+183
-1.2189781e+183
-1.2586737e+183
-1.258992e+183
-1.2635763e+183
-1.2639198e+183
-1.2685993e+183
-1.2689938e+183
-1.2740401e+183
-1.2744971e+183
-1.2492749e+183
-1.2539737e+183
-1.2495451e+183
-1.254272e+183
-1.2449716e+183
-1.2403227e+183
-1.2452119e+183
-1.2456468e+183
-1.2321244e+183
-1.2408846e+183
-1.2405429e+183
-1.2498015e+183
-1.2546057e+183
-1.2502909e+183
-1.25513e+183
-1.2240436e+183
-1.2230571e+183
-1.2331303e+183
-1.2462159e+183
-1.2468717e+183
-1.2420845e+183
-1.2414265e+183
-1.2508816e+183
-1.2557427e+183
-1.2515336e+183
-1.2563713e+183
-1.206741e+183
-1.2144895e+183
-1.2154188e+183
-1.2605655e+183
-1.2656055e+183
-1.2611623e+183
-1.2661708e+183
-1.2707604e+183
-1.2763231e+183
-1.2713343e+183
-1.276906e+183
-1.2593868e+183
-1.2643679e+183
-1.2599498e+183
-1.2649906e+183
-1.2694937e+183
-1.2750302e+183
-1.2701398e+183
-1.275694e+183
-1.3218573e+183
-1.3322782e+183
-1.3222026e+183
-1.3325719e+183
-1.3057197e+183
-1.3063218e+183
-1.3139753e+183
-1.3145537e+183
-1.3135713e+183
-1.3226288e+183
-1.3330963e+183
-1.3232565e+183
-1.3338077e+183
-1.3080929e+183
-1.3086695e+183
-1.3162917e+183
-1.3168595e+183
-1.3068782e+183
-1.3150845e+183
-1.3074973e+183
-1.3157073e+183
-1.3249578e+183
-1.3255788e+183
-1.3355366e+183
-1.3361933e+183
-1.334367e+183
-1.3237837e+183
-1.3243734e+183
-1.3349316e+183
-1.2927711e+183
-1.2997758e+183
-1.2934419e+183
-1.3004116e+183
-1.2805834e+183
-1.281258e+183
-1.2865739e+183
-1.2872672e+183
-1.2940459e+183
-1.2946079e+183
-1.3010123e+183
-1.3015844e+183
-1.2818864e+183
-1.2824684e+183
-1.2878879e+183
-1.2884463e+183
-1.2795356e+183
-1.2800336e+183
-1.285484e+183
-1.2860096e+183
-1.2916207e+183
-1.2921936e+183
-1.2985995e+183
-1.2992069e+183
-1.2827972e+183
-1.2887803e+183
-1.2831312e+183
-1.2891438e+183
-1.2835113e+183
-1.2895276e+183
-1.2839197e+183
-1.2899224e+183
-1.2956996e+183
-1.3027127e+183
-1.2961252e+183
-1.3031708e+183
-1.2949485e+183
-1.3019316e+183
-1.2953085e+183
-1.3023009e+183
-1.3098586e+183
-1.3182001e+183
-1.3103278e+183
-1.3186598e+183
-1.3090352e+183
-1.3172722e+183
-1.3094327e+183
-1.3177491e+183
-1.3260294e+183
-1.3366465e+183
-1.3265128e+183
-1.3371272e+183
-1.3269852e+183
-1.3376293e+183
-1.3274943e+183
-1.3381944e+183
-1.2964349e+183
-1.3034866e+183
-1.2968053e+183
-1.3038372e+183
-1.2841962e+183
-1.2902097e+183
-1.2845448e+183
-1.290588e+183
-1.2849597e+183
-1.2910006e+183
-1.2854348e+183
-1.2914424e+183
-1.2972012e+183
-1.3042478e+183
-1.2976484e+183
-1.3046931e+183
-1.3114388e+183
-1.3118808e+183
-1.3198463e+183
-1.3202446e+183
-1.3110152e+183
-1.3106465e+183
-1.3189905e+183
-1.319412e+183
-1.3278544e+183
-1.3282779e+183
-1.3390137e+183
-1.3385872e+183
-1.3287126e+183
-1.3394629e+183
-1.329127e+183
-1.3398864e+183
-1.1350496e+183
-1.1804785e+183
-1.1681162e+183
-1.1812427e+183
-1.1910503e+183
-1.1900843e+183
-1.1989731e+183
-1.2001679e+183
-1.2010404e+183
-1.1921379e+183
-1.1931316e+183
-1.2018126e+183
-1.182454e+183
-1.169475e+183
-1.1836861e+183
-1.1712712e+183
-1.3119028e+183
-1.3159924e+183
-1.3163241e+183
-1.3122321e+183
-1.3129401e+183
-1.3125574e+183
-1.3166368e+183
-1.3170023e+183
-1.3250901e+183
-1.3200865e+183
-1.3248181e+183
-1.3203845e+183
-1.3210748e+183
-1.3257864e+183
-1.3206982e+183
-1.3254144e+183
-1.3153628e+183
-1.3111273e+183
-1.3152258e+183
-1.3112462e+183
-1.3193425e+183
-1.3241012e+183
-1.3241835e+183
-1.3194509e+183
-1.3157502e+183
-1.3114031e+183
-1.3155121e+183
-1.3116537e+183
-1.3196102e+183
-1.3243492e+183
-1.3198522e+183
-1.3245893e+183
-1.3344894e+183
-1.3288526e+183
-1.3344008e+183
-1.3289307e+183
-1.3466847e+183
-1.34007e+183
-1.3401326e+183
-1.3467348e+183
-1.3293161e+183
-1.3348372e+183
-1.3290821e+183
-1.3346321e+183
-1.3468532e+183
-1.3402557e+183
-1.340478e+183
-1.347084e+183
-1.3295311e+183
-1.3350429e+183
-1.3353277e+183
-1.3298018e+183
-1.3472806e+183
-1.3475334e+183
-1.3409396e+183
-1.3406748e+183
-1.330119e+183
-1.3356403e+183
-1.3304862e+183
-1.3359773e+183
-1.341591e+183
-1.3481738e+183
-1.3412361e+183
-1.3478185e+183
-1.3144612e+183
-1.318517e+183
-1.3188891e+183
-1.3148222e+183
-1.3154873e+183
-1.3151414e+183
-1.3192058e+183
-1.3195445e+183
-1.3276207e+183
-1.3225795e+183
-1.327285e+183
-1.322929e+183
-1.3236202e+183
-1.3283468e+183
-1.3232571e+183
-1.3279714e+183
-1.3175871e+183
-1.3132141e+183
-1.3172722e+183
-1.3135178e+183
-1.3213371e+183
-1.3260304e+183
-1.3262963e+183
-1.3216236e+183
-1.3182212e+183
-1.313813e+183
-1.3178724e+183
-1.3141603e+183
-1.3219209e+183
-1.3266094e+183
-1.3222803e+183
-1.3269804e+183
-1.3364911e+183
-1.3307231e+183
-1.3362074e+183
-1.33099e+183
-1.3486496e+183
-1.3418187e+183
-1.3483954e+183
-1.3420829e+183
-1.3316734e+183
-1.3371624e+183
-1.3312969e+183
-1.3367986e+183
-1.3423785e+183
-1.3489426e+183
-1.3427688e+183
-1.3493439e+183
-1.331972e+183
-1.337462e+183
-1.3378323e+183
-1.3323161e+183
-1.3326714e+183
-1.3381943e+183
-1.3330575e+183
-1.3385631e+183
-1.3496553e+183
-1.3500085e+183
-1.3430744e+183
-1.3434336e+183
-1.3441787e+183
-1.3437883e+183
-1.350357e+183
-1.3507474e+183
-1.3027731e+183
-1.2990199e+183
-1.3024134e+183
-1.2993767e+183
-1.3058105e+183
-1.3095468e+183
-1.3098484e+183
-1.3061377e+183
-1.3034451e+183
-1.2997122e+183
-1.3030958e+183
-1.3000888e+183
-1.3064512e+183
-1.3101597e+183
-1.306794e+183
-1.3104944e+183
-1.2868365e+183
-1.2897977e+183
-1.290159e+183
-1.2871886e+183
-1.2875405e+183
-1.2905062e+183
-1.2908837e+183
-1.2879273e+183
-1.2927325e+183
-1.2958866e+183
-1.2962383e+183
-1.2930873e+183
-1.2934322e+183
-1.2965831e+183
-1.2969722e+183
-1.2938156e+183
-1.2882301e+183
-1.2911823e+183
-1.2915184e+183
-1.2885644e+183
-1.2891767e+183
-1.2888747e+183
-1.2918139e+183
-1.2920938e+183