/*--------------------------------*- C++ -*----------------------------------*\
  =========                 |
  \\      /  F ield         | OpenFOAM: The Open Source CFD Toolbox
   \\    /   O peration     | Website:  https://openfoam.org
    \\  /    A nd           | Version:  7
     \\/     M anipulation  |
\*---------------------------------------------------------------------------*/
FoamFile
{
    version     2.0;
    format      ascii;
    class       surfaceScalarField;
    location    "2000";
    object      phi;
}
// * * * * * * * * * * * * * * * * * * * * * * * * * * * * * * * * * * * * * //

dimensions      [0 3 -1 0 0 0 0];

internalField   nonuniform List<scalar> 
102259
(
8.1239895e+87
-1.2706968e+88
-1.2469908e+88
-1.4217371e+88
2.0898713e+87
-1.414329e+88
-1.3510073e+88
-1.2085233e+88
-1.3586486e+88
1.1870779e+87
-1.2238047e+88
-1.0969652e+85
-2.8528943e+87
2.3818899e+87
-2.2145008e+84
-3.3962332e+87
-2.6175928e+87
-2.6509538e+87
-3.5579961e+87
-2.5031531e+87
2.1415857e+87
-2.6112486e+87
-2.5208075e+87
-3.2581439e+87
-3.4188208e+87
-6.0205592e+86
-1.2492035e+88
6.914675e+86
9.6954042e+87
-1.2850057e+88
-1.4384136e+88
-1.3342786e+88
-1.443408e+88
-1.2171548e+88
2.909883e+85
3.9780848e+87
-3.4689892e+87
-3.7771648e+87
-6.304038e+88
-2.5477473e+87
-2.1554554e+87
3.6064521e+87
3.1705647e+87
3.5617369e+87
4.6592985e+86
1.0100212e+87
1.1551111e+87
-1.5568736e+88
-4.0027748e+86
-3.2956164e+86
1.1745216e+87
1.1597104e+87
-1.5839244e+88
3.7077944e+86
-2.7990936e+86
-3.5811812e+86
7.6006177e+85
2.9570141e+85
-2.9752164e+87
-3.4111011e+87
-3.3370353e+87
-2.9347655e+87
2.841648e+85
-2.5129392e+87
-2.1719266e+87
-2.5686393e+87
-2.1390936e+87
2.6909783e+85
-1.4478616e+86
-2.9341828e+87
-3.3612776e+87
-3.4667935e+87
-3.0274453e+87
-1.3838789e+88
-1.4213149e+88
-1.2680658e+88
-1.280886e+88
-2.2964695e+86
-2.5559046e+87
-2.1900807e+87
-2.5960967e+87
-2.2291015e+87
-2.8430711e+87
-4.681644e+86
2.4970321e+87
-2.5720849e+87
-2.6670562e+87
-3.4812913e+87
-3.3176401e+87
6.3644644e+86
-4.2691711e+85
-2.8988513e+87
8.3385434e+85
4.3467043e+85
5.562472e+86
-9.9760912e+84
-5.3909376e+86
-5.4813753e+86
-7.2287152e+86
-7.6078134e+86
-6.0770602e+86
-1.4364772e+85
5.6613173e+86
-7.540025e+86
-5.4471469e+86
-5.2768503e+86
-7.2514347e+86
-1.1867672e+86
-2.9300057e+87
-1.8248877e+85
-6.0458643e+86
5.4931177e+86
-5.3387557e+86
-7.2387375e+86
-5.4121927e+86
-7.5311939e+86
-5.6970412e+86
5.3149633e+86
-5.3685272e+86
-7.3033907e+86
-5.2069384e+86
-6.9728568e+86
1.1631051e+86
-2.7917625e+87
-2.870662e+87
3.0202415e+86
-1.2332243e+88
-2.9049957e+87
2.3609733e+87
-3.4286419e+87
-2.7161859e+87
-2.6982846e+87
-3.5347395e+87
-1.2365725e+88
-3.7270658e+87
-3.5955977e+87
3.8708769e+87
3.7057363e+87
-6.3503412e+88
-2.3066041e+87
-2.5813775e+87
3.2039451e+87
3.5122593e+87
-1.2240678e+88
-4.2446283e+86
3.5252922e+86
9.6392682e+86
9.1307911e+86
-7.5630954e+86
-6.6924301e+86
-4.0103917e+86
4.1156109e+86
7.3618948e+86
-8.4283887e+86
-9.2293658e+86
6.9181521e+86
-1.5382417e+88
1.2096206e+88
7.3007519e+86
-8.7364802e+86
-9.0589315e+86
6.5190954e+86
-1.5263843e+88
4.2950779e+86
3.3367062e+87
2.999112e+87
-2.8370971e+87
-3.1431401e+87
-2.3461101e+87
3.0614351e+87
3.5155304e+87
-2.7819746e+87
6.6020714e+86
9.8728907e+87
-1.2391672e+88
9.7028046e+87
7.5862068e+86
-1.228697e+88
-7.7798539e+86
8.1072744e+86
9.3162963e+86
-7.0103592e+86
-7.5680308e+86
8.1406971e+86
7.8594891e+85
2.5185957e+86
2.2588873e+86
-3.4927686e+87
-6.7644753e+85
-5.6720921e+85
8.6971758e+85
2.5534942e+86
2.5003118e+86
-3.5989882e+87
-4.9443822e+85
-6.5548272e+85
-1.5173465e+86
1.1698435e+87
1.1963708e+87
-1.5753107e+88
-3.2114588e+86
-2.8537617e+86
1.1972719e+87
1.095758e+87
-1.5739455e+88
-3.2004612e+86
-3.412065e+86
-4.9758709e+85
2.5821921e+86
2.6061094e+86
-3.6160803e+87
7.3315797e+85
-5.97612e+85
-4.5305731e+85
2.6299008e+86
2.418494e+86
-3.6360646e+87
-6.3770666e+85
-5.5914873e+85
-2.6048021e+86
-9.7528101e+85
2.3922542e+86
8.3731711e+85
-2.9401641e+87
-1.4930097e+86
1.4100379e+86
-8.7569136e+86
-2.7875927e+87
2.2050658e+86
-7.5596668e+86
-2.7557729e+87
2.2106997e+86
-2.9120609e+87
2.9021739e+85
7.0037629e+84
-6.4041791e+86
-5.2573851e+86
-5.1610751e+86
-6.2052218e+86
-8.9374813e+84
-2.9072794e+85
5.6404052e+84
-4.1033712e+86
-4.220343e+86
-3.743466e+86
-3.8352579e+86
4.3879869e+84
-6.4351292e+86
-6.2266342e+86
-5.3315287e+86
-5.1438786e+86
-4.1491453e+86
-3.7683327e+86
-3.8024479e+86
-4.6066055e+86
-3.5052766e+85
-3.0507281e+87
-3.4956597e+87
-3.3796362e+87
-2.9560688e+87
-2.6956342e+86
-1.2662237e+85
2.4980849e+86
3.8240299e+85
-2.9400054e+87
-5.3151253e+85
-8.6474127e+86
8.6054708e+85
-2.7990026e+87
2.4048084e+86
-8.0880017e+86
-2.8106211e+87
2.3204145e+86
-2.947936e+87
-2.3822676e+85
-3.4793771e+87
-3.4148787e+87
-2.9962899e+87
-3.0405472e+87
6.5195006e+86
-2.6200504e+87
-2.6139544e+87
-2.2007811e+87
-2.2859255e+87
-2.6893512e+87
-2.570446e+87
-2.3662289e+87
-2.2985521e+87
7.183764e+83
4.3922158e+85
-3.0132543e+85
-6.4626795e+86
-6.2443152e+86
-5.1540362e+86
-5.3450039e+86
4.3713682e+85
-4.5307516e+85
-4.1868097e+86
-4.2908455e+86
-3.8951098e+86
-3.942445e+86
2.7324425e+84
-6.2651226e+86
-6.4193945e+86
-5.2069144e+86
-5.2933405e+86
-4.2421945e+86
-4.1473883e+86
-3.8957843e+86
-3.8234642e+86
-2.1899208e+85
-6.3067416e+86
6.1037934e+86
-5.4835544e+86
-5.2886997e+86
-7.1212286e+86
-7.505198e+86
-6.38434e+86
-8.4029463e+85
5.8466118e+86
-5.3814967e+86
-5.4336121e+86
-7.206125e+86
-7.4903135e+86
-6.9185742e+85
3.9111713e+85
-2.89238e+87
-2.8383566e+87
5.1667826e+84
-1.3629257e+86
1.3308506e+86
3.8713964e+84
-1.1293518e+86
-1.161535e+86
-1.620551e+86
-1.5378057e+86
-1.2993816e+86
-2.7795107e+84
1.3058619e+86
-1.1482e+86
-1.1105247e+86
-1.5446013e+86
-1.6050657e+86
-5.1996688e+84
-6.105148e+86
1.4769554e+85
-1.5667567e+85
-6.1964059e+86
1.3141504e+86
-1.7338865e+85
-6.207561e+86
-6.6506753e+84
1.3195169e+86
-1.1189373e+86
-1.1422716e+86
-1.609388e+86
-1.5432042e+86
-1.2602305e+86
-4.0158926e+84
1.2917004e+86
-1.1341194e+86
-1.0999264e+86
-1.5875194e+86
-1.5131011e+86
-1.9512965e+85
-6.0714287e+86
-1.3289931e+86
4.493358e+84
1.2971555e+86
-1.5267753e+86
-1.1121265e+86
-1.143822e+86
-1.6092841e+86
-1.069012e+85
-6.1024641e+86
-1.2528546e+86
-3.2753171e+84
1.2643809e+86
-1.1285007e+86
-1.0985774e+86
-1.5300069e+86
-1.5889439e+86
-2.265168e+85
-6.1641197e+86
-1.2526505e+86
-7.5613542e+84
1.2752657e+86
-1.1039534e+86
-1.1364744e+86
-1.5213527e+86
-1.5864994e+86
-2.2492943e+85
-6.039032e+86
-1.2030164e+86
1.2289325e+86
-1.5623934e+86
-1.1203373e+86
-1.0963992e+86
-1.4923054e+86
-5.9144975e+86
6.2785675e+86
2.1628985e+85
-2.8795303e+87
1.3993927e+86
5.1688207e+86
-5.5334524e+86
-7.6012396e+86
-7.3551971e+86
-5.5122118e+86
-6.4024981e+86
5.83268e+86
-5.5981323e+86
-5.3270427e+86
-7.2886628e+86
-7.6401026e+86
-2.917878e+87
1.8019671e+86
1.2140799e+88
6.6604389e+86
-9.0426677e+86
-9.0611504e+86
7.0222769e+86
-1.5194389e+88
1.2260219e+88
7.2901571e+86
-8.5257364e+86
-9.1567576e+86
-1.547487e+88
7.0397376e+86
-1.4479784e+86
9.3107551e+86
9.14574e+86
-7.3536565e+86
-6.7906961e+86
-7.3416172e+86
9.1582356e+86
-7.2150717e+86
8.5465712e+86
3.0888839e+87
3.2802751e+87
-3.059454e+87
-2.4498028e+87
3.4576226e+87
3.1024732e+87
-2.7893931e+87
-4.4776645e+86
9.7883516e+87
-1.2394839e+88
9.915632e+87
-1.2455874e+88
5.1754648e+86
-4.4676094e+85
-2.8656039e+87
6.2068322e+85
-1.324986e+86
-1.1809837e+86
2.2610552e+86
2.2054979e+86
-2.8586387e+87
-8.2262262e+85
-1.3382775e+86
-1.2590737e+86
2.2530722e+86
2.0766775e+86
2.5394764e+85
-3.5910072e+87
-4.9605567e+85
1.7459818e+86
-1.6720899e+86
-1.6932322e+86
1.6220407e+86
-3.5588265e+87
1.5228054e+85
1.8075875e+86
-1.6787864e+86
-1.5390552e+86
1.7517213e+86
-2.7599536e+87
-2.5291941e+85
2.4632434e+85
1.5021245e+86
-1.8561586e+86
-1.7447409e+86
1.4785357e+86
-1.775622e+85
1.6507758e+85
1.397294e+86
1.4035915e+86
-1.8545211e+86
-1.947862e+86
-3.5013939e+87
2.7960334e+87
-2.0486142e+85
-1.9487145e+86
-1.9710954e+86
1.394579e+86
-3.5960123e+87
1.3229553e+86
-3.395608e+85
-1.8760239e+86
-1.8698321e+86
1.4553818e+86
1.3455307e+86
-4.6793709e+86
-1.1440364e+88
5.5841245e+86
6.3330949e+86
6.2397801e+86
-1.0099948e+87
-9.4311495e+86
-2.7776225e+87
-3.6790528e+85
3.5896122e+87
1.4854717e+86
-1.9151519e+86
-1.7860469e+86
1.4249322e+86
-2.7692896e+85
-1.9886128e+86
-1.8860204e+86
1.3536863e+86
1.3883136e+86
-3.5308002e+87
2.7412965e+87
-1.962742e+86
1.3952731e+86
3.5048633e+87
1.4593763e+86
-1.8462384e+86
1.3207653e+86
-1.1300671e+88
6.4931644e+86
-9.3112228e+86
-6.7116756e+86
7.3618507e+86
-1.4147497e+88
-6.8363826e+86
6.6966955e+86
6.2027412e+86
-8.0128478e+86
-6.3722981e+86
6.6400939e+86
9.3380912e+87
-6.9406771e+86
6.9105876e+86
7.4357141e+86
-9.3748497e+87
8.512706e+86
-2.8520934e+87
-7.3921463e+85
2.2130829e+86
2.1291802e+86
-1.211147e+86
-1.3671699e+86
-3.3387944e+85
1.7743797e+86
1.6847708e+86
-1.5483043e+86
-1.7081901e+86
2.7835798e+87
-1.6791652e+86
-1.6465634e+86
1.7304755e+86
1.5738533e+86
-1.3596385e+86
-1.2748842e+86
2.1560891e+86
1.941737e+86
1.627567e+85
5.6468491e+85
5.1516691e+85
-7.378118e+86
-1.1081772e+85
-9.1709845e+84
2.0632297e+85
5.5480806e+85
5.4863129e+85
-7.5514828e+86
-8.5237026e+84
-1.1652526e+85
-1.455432e+85
1.8726661e+85
5.6416831e+85
5.6969872e+85
-7.5864939e+86
-7.7464493e+84
-1.0853271e+85
5.3066162e+85
5.7547623e+85
-7.6545274e+86
-9.5182056e+84
-1.1525042e+85
-1.0442175e+85
-2.3054381e+85
2.5292019e+86
2.6864407e+86
-3.6171404e+87
-5.450293e+85
-5.5448932e+85
2.658941e+86
2.5770319e+86
-3.5743952e+87
-4.7365691e+85
-5.3463631e+85
-3.0468302e+85
2.5312023e+86
2.5619347e+86
-3.6023042e+87
-5.1564939e+85
-6.045696e+85
2.4295372e+86
2.6699371e+86
-3.537085e+87
-5.7501769e+85
-5.2076363e+85
1.1829696e+85
-1.5487801e+85
5.4482985e+85
5.8580883e+85
-7.6951179e+86
-8.821419e+84
-1.0474275e+85
5.8516032e+85
5.7413507e+85
-7.6142828e+86
1.7665161e+85
-6.7558599e+84
-9.4013482e+84
1.1205517e+85
5.7872282e+85
5.3077258e+85
-7.5447687e+86
-1.0769073e+85
-9.0959388e+84
5.6592529e+85
5.6500243e+85
-7.7428583e+86
-8.5114952e+84
-1.1248658e+85
-4.987792e+86
-5.3316862e+86
-6.1685121e+86
2.6123973e+86
-1.4598432e+88
-5.2728062e+86
-6.2772097e+86
-2.2741842e+86
-4.3732398e+85
1.8502016e+86
1.936116e+86
3.8217874e+85
-2.9757785e+87
-6.1233511e+85
-4.8850196e+85
-1.0676163e+86
1.1212624e+86
1.8415913e+86
1.9705916e+86
1.7525542e+86
-6.5151211e+85
-4.9861584e+85
7.6533301e+85
-2.4399079e+85
2.4399798e+85
-5.1989261e+86
-1.3978938e+85
1.3060256e+85
6.0539451e+85
-5.0882564e+86
-6.9396291e+85
-5.1167466e+86
-1.1066208e+84
-2.1031658e+85
-6.2382604e+85
8.1532786e+84
-8.9523126e+85
-9.3845967e+85
-7.4099544e+85
-7.650065e+85
-2.0513028e+85
-5.9316014e+85
-9.7158314e+84
-9.2341011e+85
-9.1224769e+85
-7.5800463e+85
-7.4229506e+85
-6.3431944e+84
1.5605596e+85
-6.6029183e+85
-6.7756887e+85
-7.1309314e+85
-6.9829559e+85
-1.3118197e+85
-6.9952504e+85
-6.8328479e+85
-6.7174431e+85
-6.5370149e+85
1.1303087e+85
7.1837719e+85
-5.1723364e+86
7.7264242e+85
2.1517268e+85
-5.1653017e+86
2.6398009e+84
-5.1021062e+86
1.0582856e+85
-5.0744922e+86
-2.1726863e+85
-8.8970752e+85
-9.2799068e+85
-7.305088e+85
-7.5525282e+85
1.5407374e+85
-6.6764056e+85
-6.9091643e+85
-6.5502021e+85
-6.8788884e+85
-6.75309e+85
-7.0334039e+85
-2.6936346e+86
-3.1942515e+85
-2.1592969e+85
2.4960043e+86
-2.9774298e+87
-7.2230464e+85
2.1598559e+85
-8.8887528e+86
-2.8255166e+87
2.3975236e+86
-8.138419e+86
-2.7917228e+87
2.3833832e+86
-2.948357e+87
-2.405336e+86
-1.0442883e+85
1.9057898e+86
1.9362258e+86
1.4196985e+85
-2.9815549e+87
-4.9290339e+85
-5.6581606e+85
-7.065035e+85
7.4923166e+85
-3.5769778e+87
2.1239586e+86
-3.5983922e+87
1.8215949e+86
1.9786576e+86
-2.9777565e+87
-4.9772194e+85
-6.0261644e+85
-2.7057492e+85
2.5653691e+86
-8.5509891e+86
-2.8321591e+87
2.6940724e+86
-8.6241941e+86
-2.811504e+87
7.2237021e+85
2.4073569e+86
-2.9522932e+87
2.3786199e+86
-2.9712284e+87
1.3392406e+86
-1.1531011e+84
-5.2299555e+86
-6.3287517e+86
-6.4765269e+86
-5.3252324e+86
-7.5920766e+84
1.0781842e+86
-5.3830535e+86
-6.526104e+86
-6.3033726e+86
-5.2114229e+86
1.8628756e+86
-4.2777667e+86
-4.2762678e+86
-3.9105486e+86
-4.0057723e+86
1.7320867e+86
-4.4580975e+86
-4.2415719e+86
-4.2260598e+86
-4.0459857e+86
2.3124885e+85
-9.1226217e+84
-5.2478717e+86
-6.3511979e+86
-6.499552e+86
-5.3607292e+86
-1.8599725e+85
-5.312717e+86
-6.4594015e+86
-6.2509503e+86
-5.1820894e+86
6.641438e+85
-4.3273294e+86
-4.3484353e+86
-4.0717672e+86
-4.0914335e+86
-4.2519474e+86
-4.1539539e+86
-4.364885e+86
-4.0858717e+86
4.6544926e+84
7.4766898e+85
-1.6651692e+85
-5.1845843e+86
7.8576693e+85
-5.1901602e+86
1.4284978e+85
1.5198151e+84
6.4331551e+85
5.5131007e+84
-5.0819107e+86
6.1633226e+85
-7.975762e+84
-5.1187089e+86
3.1454963e+84
-2.0679387e+85
2.5217808e+84
-9.0959983e+85
-9.4835696e+85
-7.5660032e+85
-7.7881391e+85
-2.0500442e+85
-4.6248109e+84
-9.3986885e+85
-9.2357081e+85
-7.7347098e+85
-7.5489358e+85
-2.5213888e+84
7.8990342e+84
-7.204159e+85
-7.3467339e+85
-6.7513094e+85
-6.9460903e+85
-9.9680863e+84
-7.1836761e+85
-7.0042351e+85
-6.8243298e+85
-6.6589577e+85
1.9428932e+85
7.2796092e+85
-5.1506046e+86
7.76028e+85
-5.188992e+86
1.0777243e+85
6.0038719e+85
-5.0812836e+86
6.2192435e+85
-5.1112214e+86
-8.7809456e+84
-2.1795815e+85
-9.0421555e+85
-9.4112215e+85
-7.4642368e+85
-7.6898867e+85
-2.1427817e+85
-9.2775478e+85
-9.0881831e+85
-7.5949922e+85
-7.4292681e+85
-1.3486361e+85
-6.6169412e+85
-7.0232174e+85
-6.8040965e+85
-7.1461692e+85
-6.6988134e+85
-6.599121e+85
-6.9903563e+85
-6.9602053e+85
-5.0920804e+84
-1.3577407e+86
-2.4381198e+84
1.4072867e+86
-1.1335064e+86
-1.1525814e+86
-1.61636e+86
-1.5553548e+86
-1.3314392e+86
1.4278959e+86
-1.1477956e+86
-1.6033326e+86
-1.1186939e+86
-1.5275424e+86
1.558944e+85
-6.03133e+86
1.2716497e+85
-6.1642734e+86
1.2187363e+85
-1.3577429e+86
-9.9929936e+84
1.3674489e+86
-1.1253488e+86
-1.1496114e+86
-1.5298668e+86
-1.6083227e+86
-1.3246367e+86
1.3959798e+86
-1.6043231e+86
-1.1471917e+86
-1.1149715e+86
-1.5409789e+86
-3.2210293e+84
6.2847177e+84
-6.063304e+86
-6.1580611e+86
6.2579221e+83
-3.0628805e+85
3.5753919e+85
1.2715429e+84
-2.4189074e+85
-2.3212776e+85
-3.5369212e+85
-3.7186562e+85
-3.00179e+85
-1.1431938e+84
3.5556979e+85
-2.3319658e+85
-2.3783784e+85
-3.7082728e+85
-3.5737404e+85
9.7893859e+83
-3.0485561e+84
-1.3148734e+86
-1.2912442e+86
3.1074879e+84
-1.8467802e+84
-2.9767511e+85
3.5779514e+85
-2.4014225e+85
-2.3144788e+85
-3.568535e+85
-3.7284034e+85
-2.9170789e+85
-8.1820806e+83
3.4938457e+85
-2.2897212e+85
-2.3355893e+85
-3.658305e+85
-3.5012532e+85
3.2885776e+84
-3.3438579e+84
-1.2909265e+86
-1.3145318e+86
6.5819128e+83
-2.9929425e+85
3.5568019e+85
-2.3899381e+85
-2.2909788e+85
-3.5108898e+85
-3.7090653e+85
-2.9110749e+85
-1.2290208e+84
3.5281352e+85
-2.2982647e+85
-2.3397532e+85
-3.6720472e+85
-3.5409908e+85
1.6558039e+84
-3.9762301e+84
-1.3113659e+86
-1.2943765e+86
-1.6401378e+84
-2.9510712e+85
3.5916899e+85
-3.5516648e+85
-2.2964664e+85
-2.384171e+85
-3.7083986e+85
-2.9320497e+85
-6.2669366e+83
3.6207884e+85
-2.2951863e+85
-2.3413434e+85
-3.6562406e+85
-3.4965738e+85
-3.8164398e+84
-1.3055014e+86
-3.5666174e+84
-1.2780315e+86
3.0031911e+85
-1.451239e+84
-1.2840796e+86
9.1466797e+83
3.564895e+85
-2.3708565e+85
-2.289962e+85
-3.5013048e+85
-3.6749794e+85
-2.9129071e+85
-9.9751763e+83
3.5461914e+85
-2.3240345e+85
-2.3505129e+85
-3.657718e+85
-3.5480184e+85
-3.8368153e+84
-1.3070203e+86
-1.8436889e+84
-2.9096393e+85
3.5780172e+85
-2.2905157e+85
-3.5185739e+85
-2.3720693e+85
-3.6876075e+85
-2.8662091e+85
-1.1444584e+84
3.5138175e+85
-3.623721e+85
-2.32294e+85
-2.2839493e+85
-3.4726919e+85
3.9212241e+84
-4.4382862e+84
-1.2807954e+86
-1.3035874e+86
3.8388461e+83
-2.9227879e+85
3.5114207e+85
-2.3577384e+85
-2.2743112e+85
-3.4809967e+85
-3.6679494e+85
-2.8123391e+85
-1.5506338e+84
3.4636655e+85
-3.6423842e+85
-2.3300961e+85
-2.3176771e+85
-3.5324552e+85
-2.428316e+84
-1.278923e+86
-4.8849203e+84
-1.2945358e+86
2.83032e+85
-4.2621795e+84
-1.2869677e+86
-1.9849677e+84
3.4606267e+85
-2.3520177e+85
-2.2730581e+85
-3.5074417e+85
-3.6577259e+85
-2.8259783e+85
-2.2979868e+85
-2.3366042e+85
-3.6276907e+85
-3.4741128e+85
-1.2619115e+86
-1.3457036e+86
-2.4425572e+85
1.778455e+85
1.3749643e+86
-1.1737633e+86
-1.1299434e+86
-1.6314304e+86
-1.5611692e+86
-8.4265637e+84
1.7090759e+84
-6.2208287e+86
1.3509726e+86
-6.1627305e+86
1.266725e+86
-1.1468611e+86
-1.1613069e+86
-1.5588733e+86
-1.6318874e+86
6.7610524e+84
-1.3698132e+86
1.3881958e+86
-1.5737832e+86
-1.1490622e+86
-1.1553845e+86
-1.6280526e+86
-1.3612839e+86
1.4263687e+86
-1.1575736e+86
-1.1117256e+86
-1.6196924e+86
-1.5354572e+86
6.9337349e+84
-6.1272357e+86
-6.2370476e+86
-2.7582995e+87
-3.289493e+84
3.532669e+87
-1.8283776e+86
-1.8562113e+86
1.393377e+86
1.4871766e+86
-1.7819733e+83
1.3332026e+86
1.3996774e+86
-1.9734918e+86
-1.9271159e+86
-3.5291074e+87
2.7861919e+87
-1.9296188e+85
1.3655958e+86
-1.9760821e+86
-1.9103288e+86
1.3765255e+86
-3.5587602e+87
-1.154445e+85
3.583549e+87
-1.8978524e+86
-1.813277e+86
1.4222921e+86
1.4200897e+86
3.1238129e+86
-1.1141962e+88
5.9190534e+86
6.305901e+86
-9.6000951e+86
-9.7999709e+86
-2.7631083e+87
6.0766219e+84
3.557057e+87
-1.8078988e+86
1.5306908e+86
5.3805413e+84
1.4440624e+86
-1.9175143e+86
2.7947722e+87
-1.9830633e+86
1.3899708e+86
-3.6012068e+87
-1.9644758e+86
1.3260001e+86
6.3336687e+86
-1.0118961e+87
3.5824477e+87
-1.8429709e+86
1.3752692e+86
-1.8710422e+86
1.4470463e+86
3.4062481e+84
-2.8420336e+87
2.2281486e+86
-1.275678e+86
2.2235581e+86
-2.8460519e+87
-2.5764842e+85
-1.2966904e+86
-1.2998961e+86
2.1127495e+86
2.2104022e+86
-1.1692889e+85
4.9898683e+84
1.7335724e+86
-1.6745564e+86
1.6658968e+86
-1.6475824e+86
-1.629651e+86
1.786211e+86
2.8421032e+87
3.2648809e+84
-1.6097772e+86
-1.7012166e+86
1.6940939e+86
1.7069915e+86
-3.5051928e+85
-1.3530471e+86
-1.2609335e+86
2.1430154e+86
2.1200627e+86
2.817539e+87
1.7649755e+86
-1.6576773e+86
-1.6411514e+86
1.6550118e+86
-1.3171075e+86
-1.283001e+86
2.1958778e+86
2.0255057e+86
-6.4467989e+86
6.4970834e+86
5.9543011e+86
-7.2209584e+86
9.4080195e+87
-5.0554812e+86
-5.4921439e+86
-9.4365397e+87
7.5300938e+84
5.9967157e+86
-7.4137758e+84
-7.5454213e+86
-2.899042e+85
-2.9709834e+85
4.1751797e+85
3.9204167e+85
6.0003495e+86
-7.4945598e+86
1.0777776e+85
-2.6651995e+85
4.2424266e+85
-2.9462959e+85
4.1765747e+85
-1.0001073e+85
1.7214866e+85
-1.9624335e+85
5.0073345e+85
-2.236566e+85
4.9415093e+85
-1.1809082e+85
-2.1536239e+85
4.9973897e+85
-2.2729796e+85
4.6809748e+85
6.3401428e+84
5.9162196e+86
-7.396237e+86
-1.319459e+85
-2.905133e+85
-2.9835861e+85
4.1509682e+85
3.840604e+85
6.0327695e+86
-7.5416454e+86
-2.7802018e+85
4.1466307e+85
-3.0415683e+85
4.0658045e+85
-9.6526684e+84
-2.1202415e+85
4.9031418e+85
-2.3743509e+85
4.805647e+85
-1.5648416e+85
-2.1652657e+85
-2.2869031e+85
4.9534503e+85
4.5795856e+85
-5.8073584e+86
-6.7535771e+84
5.5998943e+84
-3.2226354e+85
3.4876717e+85
-3.4629717e+85
3.4302569e+85
-4.5346826e+84
3.7682677e+84
-7.3939358e+86
-3.394029e+85
-3.6283768e+85
3.1534955e+85
3.0904321e+85
5.7124324e+86
-7.2516265e+86
-1.0989735e+85
-3.4838074e+85
-3.5389755e+85
3.2023935e+85
2.9255198e+85
-1.3635447e+85
-3.2895716e+85
-3.3710616e+85
3.5223799e+85
3.208807e+85
-5.7886519e+86
-5.9280215e+84
9.1256916e+84
-3.0943356e+85
3.5920294e+85
-3.3509166e+85
3.5502569e+85
4.2115489e+84
5.8152306e+86
-7.4176672e+86
-3.497195e+85
-3.5253306e+85
3.2090089e+85
3.0056983e+85
-7.3082624e+86
5.1315313e+84
-3.2638565e+85
3.2604052e+85
-3.508286e+85
3.2252989e+85
-3.3000544e+85
-3.3634108e+85
3.5486318e+85
3.2973271e+85
-5.7163845e+86
-2.3391309e+84
4.2468226e+84
-3.4899017e+85
3.0579153e+85
-3.710028e+85
3.0537182e+85
6.3467397e+83
5.7792236e+86
-7.4563075e+86
-5.4824399e+83
-3.7682936e+85
-3.7597707e+85
2.9439138e+85
2.7847634e+85
-7.3274019e+86
1.0247946e+84
-3.5404143e+85
2.9550112e+85
-3.7566268e+85
2.9657859e+85
-2.9367565e+84
-3.6967139e+85
-3.7095211e+85
3.0302071e+85
2.8367119e+85
-1.3455283e+84
-5.8529871e+86
7.9572096e+83
-3.8891002e+85
2.9574158e+85
-3.8735406e+85
2.7999439e+85
-5.7891145e+86
5.3691579e+83
-3.6644869e+85
2.9620204e+85
-3.8370232e+85
3.0042917e+85
3.1413007e+84
-1.2243182e+84
2.6747207e+85
2.696204e+85
-4.11478e+85
-7.3558535e+86
-4.32566e+85
3.8444861e+84
2.6525366e+85
2.5112133e+85
-7.455717e+86
-4.3388368e+85
-4.3465518e+85
-2.7664723e+85
-2.7301583e+87
3.9948605e+85
1.3295463e+86
1.2984492e+86
-1.9820395e+86
-2.148053e+86
-3.9546349e+84
5.8050429e+86
1.9863823e+84
2.6612203e+85
2.4838172e+85
-7.3796809e+86
-4.3366467e+85
-4.3523295e+85
5.8762285e+86
2.6336919e+85
2.6369929e+85
-7.5114953e+86
-4.4200537e+85
-4.219931e+85
1.23609e+84
7.4636059e+86
-3.7904788e+85
2.8788621e+85
-3.9517308e+85
2.8913275e+85
-2.7916662e+87
-3.5112255e+85
1.2400221e+86
1.3161018e+86
-2.1508202e+86
-2.1345077e+86
7.3543769e+86
-5.7992892e+83
-3.8951796e+85
2.9402076e+85
-3.8645436e+85
2.7373351e+85
-2.1922799e+83
5.6981616e+86
-3.1989298e+84
-3.7574379e+85
2.9303397e+85
-3.7509115e+85
2.7217444e+85
5.7637825e+86
-3.6531166e+85
2.870788e+85
-3.8501667e+85
2.8556619e+85
-4.6632113e+84
-3.6132081e+85
2.9488255e+85
-3.8194696e+85
2.9087837e+85
-8.7187823e+84
-3.6883753e+85
3.008547e+85
-3.7335681e+85
2.7396173e+85
4.311032e+85
-5.79478e+85
-3.5792538e+87
-2.2887821e+86
-2.2737421e+86
1.2912558e+86
1.195574e+86
-3.499982e+87
8.3612574e+85
1.215867e+86
-2.2346479e+86
-2.3283342e+86
1.2091818e+86
-5.7201765e+86
-5.2636644e+84
7.2911823e+86
-3.4824491e+85
3.0535286e+85
-3.7613938e+85
2.9894744e+85
2.793397e+84
5.7491164e+86
-7.445943e+86
-4.3207713e+84
-3.7664607e+85
-3.8329659e+85
2.9032419e+85
2.6656919e+85
-7.3597986e+86
-3.5398463e+85
2.9488387e+85
-3.8109109e+85
2.8971225e+85
-7.3345304e+84
7.3644519e+86
-3.6761603e+85
-3.7623262e+85
3.0027869e+85
2.7387674e+85
-4.0177419e+84
5.8528005e+86
3.1948967e+84
2.6096914e+85
2.4205289e+85
-7.4575946e+86
-4.4116146e+85
-4.374495e+85
5.8167575e+86
2.671892e+85
2.6584248e+85
-7.4047991e+86
-4.3832316e+85
-4.1300044e+85
-1.1705914e+84
-4.4226108e+82
-3.9112078e+85
2.906723e+85
-3.9454744e+85
2.6768907e+85
-3.6826322e+85
2.9381394e+85
-3.8983239e+85
2.9204909e+85
-2.7047348e+87
1.2546484e+86
1.3061039e+86
-2.0312086e+86
-2.1933315e+86
5.8695776e+86
2.682569e+85
2.6372131e+85
-4.4400893e+85
-4.2021692e+85
7.4563469e+86
-3.7580895e+85
2.9442206e+85
-3.9600396e+85
2.8942442e+85
-5.7541771e+86
-8.29125e+84
7.3651031e+86
-3.5436814e+85
3.022555e+85
-3.8134326e+85
2.9147513e+85
-3.5961655e+85
2.9481734e+85
-3.8546659e+85
2.8603313e+85
7.1962205e+86
-3.630597e+85
3.0425292e+85
-3.7338979e+85
2.7284256e+85
-3.4289471e+87
1.2655703e+86
-2.2157972e+86
-2.3506467e+86
1.1670045e+86
7.7902289e+86
8.7618873e+86
-3.9442081e+86
-5.371289e+86
2.664195e+87
-1.5853727e+86
2.043711e+86
-3.2821718e+87
-1.8325646e+86
1.4250027e+86
1.3688272e+86
-2.0762149e+86
-7.9396507e+85
1.4697094e+86
-2.4271629e+86
-2.324605e+86
1.2001868e+86
1.2146637e+86
-2.7083524e+87
-1.099935e+86
1.329275e+86
-2.3841591e+86
-2.3816974e+86
1.2362816e+86
-2.1309521e+86
-3.3405401e+87
1.4822993e+86
-1.908038e+86
1.3272956e+86
-2.0469474e+86
2.5570601e+87
1.4264742e+86
-1.7372815e+86
1.3220707e+86
1.2073372e+86
-2.2837718e+86
-2.4127373e+86
1.182125e+86
-1.2575724e+85
-5.9495033e+86
-2.0036139e+85
4.9357528e+85
-2.3126526e+85
4.8341786e+85
-5.9650337e+86
-1.8713948e+85
-2.1703085e+85
-2.3432952e+85
4.945988e+85
4.5783173e+85
-1.0136017e+85
-7.4381482e+86
-2.7048503e+85
4.1506907e+85
-3.0248105e+85
4.0481053e+85
-7.4918121e+86
-1.407519e+85
-2.910286e+85
4.1275231e+85
-3.0384706e+85
3.8112512e+85
-9.4322621e+84
-5.7485783e+86
-3.1067394e+85
-3.4104206e+85
3.5197759e+85
3.4251741e+85
-5.7724119e+86
-1.2241128e+85
-3.3024631e+85
-3.4383797e+85
3.5007362e+85
3.1747143e+85
-6.8145007e+84
-3.2613913e+85
3.2191754e+85
-3.5560593e+85
3.123754e+85
-8.1897143e+84
-3.4897763e+85
-3.580625e+85
3.1630202e+85
2.8834084e+85
7.3050468e+84
5.6679927e+86
-3.432277e+85
-3.5260279e+85
3.2242498e+85
2.8992758e+85
5.773879e+86
-3.3228728e+85
-3.6121643e+85
3.2166803e+85
3.0765056e+85
-1.0967057e+85
7.4701493e+86
-3.1648477e+85
-3.4638331e+85
3.4925095e+85
3.3508319e+85
7.3119792e+86
-3.2453532e+85
-3.3849028e+85
3.5253781e+85
3.15257e+85
1.0335798e+85
5.8305732e+86
-2.849204e+85
4.1486467e+85
-2.9788425e+85
3.7775587e+85
5.9277311e+86
-2.7339117e+85
4.1254345e+85
-3.0533379e+85
3.9632252e+85
-1.6090306e+85
-2.0608522e+85
4.8306672e+85
-2.3762974e+85
4.6675009e+85
-2.1309522e+85
4.8743479e+85
-2.3169555e+85
4.4413095e+85
3.3922216e+84
1.2759624e+85
1.1702164e+85
-1.5449258e+86
-2.6538853e+84
-2.9928566e+84
4.7136137e+84
1.2386666e+85
1.2379503e+85
-1.5817076e+86
-2.5803784e+84
-3.2041405e+84
-3.6181203e+84
4.7431497e+84
1.2342869e+85
1.2493729e+85
-1.5670412e+86
-2.4838786e+84
-3.189594e+84
1.2737383e+85
1.1897052e+85
-1.5863804e+86
-2.804161e+84
-3.2028297e+84
-3.2425741e+84
4.2989758e+84
1.262233e+85
1.2722295e+85
-1.5720912e+86
-2.3469774e+84
-2.999315e+84
-4.0451028e+84
1.2912158e+85
1.215011e+85
-1.6000421e+86
-2.7269167e+84
-3.0838931e+84
-3.2234982e+84
1.244586e+85
1.2657948e+85
-1.5994314e+86
-2.6292524e+84
-3.2299516e+84
1.2813159e+85
1.1736847e+85
-1.5682649e+86
-2.7116564e+84
-3.096776e+84
-1.1873728e+84
-7.8504144e+83
5.7327952e+85
5.8264967e+85
-7.7307018e+86
-8.6601969e+84
-1.0097927e+85
-7.4308494e+84
5.9630141e+85
5.55199e+85
-7.5917658e+86
-8.7423492e+84
-9.1602102e+84
1.4613254e+84
5.7074048e+85
5.9621631e+85
-7.633798e+86
-7.775407e+84
-8.8192669e+84
5.8895246e+85
5.62499e+85
-7.7139646e+86
-9.3650747e+84
-9.2538687e+84
-6.7377126e+84
5.5896746e+85
5.7675887e+85
-7.5425228e+86
-8.0149403e+84
-9.8939165e+84
-1.1411301e+85
5.8434162e+85
5.4749901e+85
-7.6545057e+86
-9.2115233e+84
-1.011154e+85
9.8847924e+84
5.9147386e+85
5.4606246e+85
-7.4887141e+86
-8.2924402e+84
-9.4442146e+84
5.7666209e+85
5.7499767e+85
-7.6701375e+86
-7.9452756e+84
-1.0237183e+85
-2.5812468e+84
3.1773174e+84
1.2836365e+85
1.3005693e+85
-1.6106504e+86
-2.5759124e+84
-3.0717626e+84
-3.7744108e+84
1.3078946e+85
1.2072031e+85
-1.5795617e+86
-2.6407103e+84
-2.9278405e+84
-2.8324804e+84
1.2858068e+85
1.3099458e+85
-1.577944e+86
3.8145233e+84
-2.2528414e+84
-2.7725955e+84
1.3366187e+85
1.238873e+85
-1.6083277e+86
-2.5950192e+84
-2.8709799e+84
2.8743833e+84
1.2991358e+85
1.194076e+85
-1.5650033e+86
-2.6324342e+84
-2.9469713e+84
3.6316533e+84
1.276725e+85
1.2857541e+85
-1.6035875e+86
-3.1058517e+84
-2.5635336e+84
-2.9643106e+84
1.2498449e+85
1.2934583e+85
-1.5862849e+86
-2.5063712e+84
-3.0574069e+84
1.2955894e+85
1.2025049e+85
-1.6078195e+86
-3.1222171e+84
-2.7946728e+84
-8.7851547e+85
-5.5457561e+86
-5.9790764e+86
-1.4736998e+88
-5.8160003e+86
-5.5494202e+86
-1.4780462e+88
8.4828652e+86
7.8307179e+86
3.7104459e+86
-1.4616307e+88
-7.3930111e+86
-7.9774616e+86
2.0888322e+85
2.1193881e+86
2.2469784e+86
-3.0855791e+87
-7.9046267e+85
-9.0135134e+85
1.1108647e+85
-1.6284471e+85
9.0642613e+85
-6.6393377e+86
9.6390926e+85
1.5526619e+85
-6.6618917e+86
1.488414e+85
9.4378885e+85
-6.6553337e+86
-2.8350889e+84
3.8042366e+85
3.666932e+85
-1.4510574e+86
-1.4269921e+86
-1.0549506e+86
-1.0625557e+86
4.9536383e+84
3.8408994e+84
-2.5985519e+84
1.8460496e+85
-3.8242162e+85
4.5948325e+84
-7.17377e+85
1.7686822e+85
-4.5711089e+84
-3.7272298e+85
-7.2287898e+85
-3.9933367e+83
3.5567669e+84
2.221666e+84
-1.2437698e+85
-1.738121e+85
-1.3017861e+85
-1.8181334e+85
-2.074151e+84
3.5463939e+84
-1.7945363e+85
-1.7443654e+85
-1.2651317e+85
-1.2645048e+85
-4.3732604e+84
1.8260825e+85
-3.8778297e+85
-7.2021362e+85
1.7679049e+85
-3.6086877e+85
-5.1526721e+84
-7.2037502e+85
-2.1366001e+84
3.1858093e+84
-1.2328747e+85
-1.7340026e+85
-1.2914651e+85
-1.8079563e+85
4.2468139e+84
-2.4086042e+84
-1.7953663e+85
-1.7387862e+85
-1.2590249e+85
-1.2593451e+85
8.9049203e+83
-2.25566e+85
3.2792114e+83
-8.7826771e+84
-1.1193932e+85
-1.1813264e+85
-9.3443336e+84
-2.2306287e+85
-3.3937315e+83
-1.146199e+85
-1.1275664e+85
-9.1417992e+84
-8.7948697e+84
1.0181894e+84
-2.7781343e+84
-8.2380638e+84
-1.9648729e+85
-1.9440029e+85
-9.0669113e+84
2.0289394e+84
-1.9570369e+85
-8.5601911e+84
-9.5280876e+84
-2.0089302e+85
-3.2278138e+84
2.3150639e+85
-8.1058186e+84
-9.3661386e+84
-2.0008707e+85
-1.9392619e+85
2.1731626e+85
-2.2510182e+84
-1.956264e+85
-8.1267345e+84
-8.9746009e+84
-1.9234719e+85
-7.688889e+83
-1.1712088e+85
-1.103806e+85
-9.2070445e+84
-8.4512592e+84
3.5075821e+83
-1.1445659e+85
-1.1259723e+85
-9.1033004e+84
-8.7026529e+84
-8.0253977e+84
4.648447e+84
3.9482497e+84
-1.4152179e+86
-1.4440469e+86
-1.0581312e+86
-1.060999e+86
-2.8605095e+84
5.1379207e+84
4.1564209e+84
-1.4539113e+86
-1.4287816e+86
-1.0603235e+86
-1.0673029e+86
-3.1208967e+84
1.8331272e+85
-7.1291402e+85
1.7489826e+85
-7.1414419e+85
-7.9739658e+83
3.6277012e+84
-1.7916929e+85
-1.7107899e+85
-1.2159274e+85
-1.2774387e+85
3.5911937e+84
-1.2389996e+85
-1.7652479e+85
-1.7177604e+85
-1.2420426e+85
-2.2034617e+85
7.9632498e+83
-8.4755624e+84
-1.0955831e+85
-1.1587153e+85
-9.2208424e+84
3.5173148e+84
-1.9261634e+85
-8.278076e+84
-9.20714e+84
-1.9742794e+85
-2.2568549e+85
9.5043303e+83
-1.1601913e+85
-1.0962457e+85
-8.3520356e+84
-8.9889987e+84
-1.5100289e+84
-1.9340422e+85
-8.1870505e+84
-9.4088077e+84
-2.0047913e+85
-2.2120144e+85
-8.6491005e+84
-1.1183888e+85
-1.1324874e+85
-8.9149089e+84
-8.9189785e+84
-8.1604093e+84
-1.9581409e+85
-1.9149439e+85
-2.3496041e+86
1.7401808e+85
-4.1508658e+85
1.9436074e+86
1.9206037e+86
-2.9961521e+87
-5.6917512e+85
-5.1714077e+85
-3.1741006e+85
5.6829911e+84
-3.5889945e+87
2.0499353e+86
-3.5514417e+87
1.9691229e+86
1.8345641e+86
-2.9795279e+87
-5.3254037e+85
-5.9351369e+85
-1.6761886e+86
-1.0720263e+85
8.3177653e+84
2.1598927e+86
2.2742878e+86
-3.0923853e+87
-7.6412842e+85
-8.6153231e+85
-6.6708301e+84
9.9033744e+85
1.0448389e+85
-6.7111747e+86
-1.1669878e+85
9.4690057e+85
-6.6473093e+86
-8.3370489e+85
-2.9039419e+87
9.1002334e+85
1.484245e+86
-2.9248631e+87
2.1295344e+86
2.2370214e+86
-3.0870489e+87
-7.9987529e+85
-8.8782997e+85
-1.0979971e+85
9.6134127e+85
-6.6549536e+86
9.2237905e+85
-6.6301334e+86
-7.7495339e+84
2.2961744e+86
-3.6299443e+87
2.3879439e+86
-3.5794123e+87
7.2872597e+85
1.9100995e+86
1.9527613e+86
-2.9842989e+87
-5.1781565e+85
-5.351699e+85
1.9791958e+86
1.8946066e+86