/*--------------------------------*- C++ -*----------------------------------*\
  =========                 |
  \\      /  F ield         | OpenFOAM: The Open Source CFD Toolbox
   \\    /   O peration     | Website:  https://openfoam.org
    \\  /    A nd           | Version:  7
     \\/     M anipulation  |
\*---------------------------------------------------------------------------*/
FoamFile
{
    version     2.0;
    format      ascii;
    class       volScalarField;
    location    "2000";
    object      pMean;
}
// * * * * * * * * * * * * * * * * * * * * * * * * * * * * * * * * * * * * * //

dimensions      [0 2 -2 0 0 0 0];

internalField   nonuniform List<scalar> 
34377
(
-1.9798585e+179
-1.9967005e+179
-1.9659275e+179
-1.9692017e+179
-1.95261e+179
-1.9807239e+179
-1.9552632e+179
-1.8462651e+179
-1.9449202e+179
-1.9444206e+179
-1.9724763e+179
-1.9751612e+179
-1.969004e+179
-1.9898549e+179
-1.9719149e+179
-1.9693373e+179
-1.9898606e+179
-1.9894069e+179
-1.9893764e+179
-1.9917123e+179
-1.9892382e+179
-1.9899663e+179
-1.9906453e+179
-1.9912762e+179
-1.9540857e+179
-1.9648158e+179
-1.9496238e+179
-1.8444302e+179
-1.8881301e+179
-1.847344e+179
-1.8478143e+179
-1.7440296e+179
-1.8193771e+179
-1.8180045e+179
-1.8433893e+179
-1.8427205e+179
-1.8883387e+179
-1.9836306e+179
-1.9841574e+179
-1.938915e+179
-1.9413028e+179
-1.9823405e+179
-1.9838426e+179
-1.9822806e+179
-1.9788684e+179
-1.9797919e+179
-1.9831897e+179
-1.9770081e+179
-1.9875918e+179
-1.9755586e+179
-1.988305e+179
-1.9687971e+179
-1.9817322e+179
-1.9768924e+179
-1.9775687e+179
-1.9821464e+179
-1.9634645e+179
-1.9666673e+179
-1.9721111e+179
-1.9754252e+179
-1.9870875e+179
-1.9761911e+179
-1.9877347e+179
-1.9894626e+179
-1.9888493e+179
-1.9889732e+179
-1.9888411e+179
-1.9988781e+179
-1.9986547e+179
-2.0011471e+179
-2.0024458e+179
-2.0019709e+179
-1.9985383e+179
-1.9978495e+179
-2.0008972e+179
-1.9977216e+179
-2.0007408e+179
-1.998194e+179
-2.0021837e+179
-1.9982269e+179
-2.0016848e+179
-1.9983052e+179
-2.0007548e+179
-1.9876143e+179
-1.9860092e+179
-1.9872227e+179
-1.9897978e+179
-1.8467732e+179
-1.8428852e+179
-1.8827641e+179
-1.8859983e+179
-1.7422605e+179
-1.8161391e+179
-1.8192557e+179
-1.8421469e+179
-1.8389074e+179
-1.9404877e+179
-1.9419436e+179
-1.9097051e+179
-1.9085473e+179
-1.8767466e+179
-1.8492834e+179
-1.8485641e+179
-1.8772705e+179
-1.7857798e+179
-1.8774558e+179
-1.8497416e+179
-1.8483936e+179
-1.8772382e+179
-1.7868738e+179
-1.7282133e+179
-1.7292944e+179
-1.7349688e+179
-1.7612493e+179
-1.7597964e+179
-1.7352401e+179
-1.942229e+179
-1.9093805e+179
-1.9087645e+179
-1.9415192e+179
-2.0034859e+179
-2.0038398e+179
-2.0032841e+179
-2.003916e+179
-1.9809856e+179
-1.9790509e+179
-1.9811599e+179
-1.9813642e+179
-2.0031881e+179
-2.0024264e+179
-2.0029249e+179
-2.0030793e+179
-1.9497992e+179
-1.9513075e+179
-1.9839711e+179
-1.9742124e+179
-1.9746655e+179
-1.9841558e+179
-1.9842349e+179
-1.9917009e+179
-1.9920705e+179
-1.9842368e+179
-1.9871421e+179
-1.9871092e+179
-1.9916758e+179
-1.9918163e+179
-1.9842059e+179
-1.9839984e+179
-1.9918753e+179
-1.9919568e+179
-1.9868298e+179
-1.9918127e+179
-1.9917593e+179
-1.979208e+179
-1.9743233e+179
-1.9759799e+179
-1.9812042e+179
-1.9833166e+179
-1.9726549e+179
-1.9725616e+179
-1.9835406e+179
-1.9725323e+179
-1.971574e+179
-1.9768237e+179
-1.9784176e+179
-1.9713167e+179
-1.9731667e+179
-1.9823495e+179
-1.9842038e+179
-1.9733912e+179
-1.9758305e+179
-1.9857064e+179
-1.9869963e+179
-1.9839962e+179
-1.9832979e+179
-1.9915555e+179
-1.991579e+179
-1.9866854e+179
-1.9869913e+179
-1.9916501e+179
-1.9917893e+179
-1.9840776e+179
-1.9841218e+179
-1.9920851e+179
-1.9916079e+179
-1.9869616e+179
-1.9874882e+179
-1.9919588e+179
-1.9918248e+179
-1.998158e+179
-1.9982869e+179
-2.0003999e+179
-2.0012787e+179
-1.997128e+179
-1.9976859e+179
-1.9993595e+179
-2.0010848e+179
-2.0045482e+179
-2.0047222e+179
-2.0081974e+179
-2.0071656e+179
-2.0045623e+179
-2.0038287e+179
-2.0062778e+179
-2.0077085e+179
-2.0036415e+179
-2.0038545e+179
-2.0065427e+179
-2.0057958e+179
-2.003659e+179
-2.003079e+179
-2.0065805e+179
-2.0054664e+179
-2.0056511e+179
-2.0033571e+179
-2.0036485e+179
-2.0066653e+179
-2.0037879e+179
-2.0034443e+179
-2.0057079e+179
-2.0065251e+179
-2.0035045e+179
-2.0038792e+179
-2.0056228e+179
-2.0069601e+179
-2.0072721e+179
-2.0041855e+179
-2.0035485e+179
-2.0063156e+179
-1.9954296e+179
-1.999828e+179
-1.9975531e+179
-1.9946302e+179
-1.9961744e+179
-1.9962266e+179
-1.9987682e+179
-1.9998259e+179
-1.875431e+179
-1.8468653e+179
-1.846672e+179
-1.8747177e+179
-1.7869624e+179
-1.8723239e+179
-1.8461085e+179
-1.8449787e+179
-1.7828111e+179
-1.8734322e+179
-1.9363842e+179
-1.9389036e+179
-1.905462e+179
-1.9034884e+179
-1.9061783e+179
-1.9392661e+179
-1.9067576e+179
-1.9396721e+179
-1.7272591e+179
-1.7328226e+179
-1.7582307e+179
-1.7602184e+179
-1.7332888e+179
-1.9591097e+179
-1.9580323e+179
-1.975622e+179
-1.9769152e+179
-1.9596242e+179
-1.9599119e+179
-1.9773265e+179
-1.9766765e+179
-1.9346632e+179
-1.9159433e+179
-1.9160419e+179
-1.9344758e+179
-1.9332909e+179
-1.9151911e+179
-1.9147326e+179
-1.9340422e+179
-1.8906442e+179
-1.8768196e+179
-1.8762545e+179
-1.8913127e+179
-1.8584626e+179
-1.8577151e+179
-1.8446358e+179
-1.8455125e+179
-1.811819e+179
-1.8453543e+179
-1.845557e+179
-1.8586401e+179
-1.8131279e+179
-1.8585111e+179
-1.8770194e+179
-1.8770749e+179
-1.8918537e+179
-1.8917744e+179
-1.7851896e+179
-1.783165e+179
-1.8916745e+179
-1.8774523e+179
-1.8771857e+179
-1.8919881e+179
-1.8458117e+179
-1.8451935e+179
-1.8591606e+179
-1.8587948e+179
-1.8137905e+179
-1.8459603e+179
-1.8593705e+179
-1.8923432e+179
-1.8776975e+179
-1.8921437e+179
-1.7861811e+179
-1.6774163e+179
-1.7324326e+179
-1.7627626e+179
-1.7641763e+179
-1.7333771e+179
-1.734787e+179
-1.7662612e+179
-1.9769898e+179
-1.9780286e+179
-1.9596785e+179
-1.9604341e+179
-1.9347177e+179
-1.9352877e+179
-1.9159286e+179
-1.9160995e+179
-1.91609e+179
-1.9161654e+179
-1.9353019e+179
-1.9348739e+179
-1.9598449e+179
-1.9603442e+179
-1.9780931e+179
-1.9773673e+179
-2.0113074e+179
-2.0118537e+179
-2.0111038e+179
-2.0118845e+179
-2.0108286e+179
-2.0113358e+179
-2.0113823e+179
-2.0109196e+179
-2.0011544e+179
-2.0009086e+179
-1.9989696e+179
-2.0004104e+179
-2.0014043e+179
-2.002337e+179
-2.0024358e+179
-2.0027091e+179
-2.0117446e+179
-2.0109213e+179
-2.0111924e+179
-2.0117332e+179
-2.0106759e+179
-2.0113554e+179
-2.0108587e+179
-2.0111524e+179
-1.9471894e+179
-1.9427794e+179
-1.9203874e+179
-1.9819432e+179
-1.9950871e+179
-1.9946707e+179
-1.994947e+179
-1.995198e+179
-2.003125e+179
-1.995079e+179
-1.9951646e+179
-1.99552e+179
-1.9955328e+179
-1.9951684e+179
-1.9951978e+179
-1.9953735e+179
-1.9958754e+179
-1.9985013e+179
-1.9986635e+179
-2.0011773e+179
-2.0005428e+179
-2.0013289e+179
-2.0008279e+179
-1.998694e+179
-1.9986914e+179
-2.0032246e+179
-2.0031718e+179
-1.9950961e+179
-1.9952418e+179
-1.9956276e+179
-1.9956147e+179
-1.998683e+179
-2.0011793e+179
-1.9987976e+179
-2.0010912e+179
-1.9988563e+179
-2.0012978e+179
-1.9813333e+179
-1.9704634e+179
-1.97162e+179
-1.9823206e+179
-1.9813207e+179
-1.9936901e+179
-1.9946399e+179
-1.9542179e+179
-1.9550313e+179
-1.981244e+179
-1.9947309e+179
-1.9945951e+179
-1.9671062e+179
-1.9669836e+179
-1.9782893e+179
-1.9795382e+179
-1.9871341e+179
-1.9790608e+179
-1.9802386e+179
-1.9878421e+179
-1.9885569e+179
-1.9809377e+179
-1.9813449e+179
-1.9896381e+179
-1.9821523e+179
-1.9830429e+179
-1.9872597e+179
-1.9880595e+179
-1.9835853e+179
-1.9848514e+179
-1.988837e+179
-1.9896302e+179
-1.9900922e+179
-1.9818313e+179
-1.9824283e+179
-1.9905657e+179
-1.9908267e+179
-1.982822e+179
-1.98316e+179
-1.9914996e+179
-1.9855682e+179
-1.98617e+179
-1.9905219e+179
-1.9909019e+179
-1.986775e+179
-1.9910407e+179
-1.9862289e+179
-1.9913966e+179
-2.0028223e+179
-2.0030233e+179
-1.9949959e+179
-1.9951663e+179
-1.9957432e+179
-1.9957285e+179
-1.9950507e+179
-1.9951735e+179
-1.9954851e+179
-1.9959797e+179
-2.0010673e+179
-2.0014905e+179
-1.9985666e+179
-1.9987477e+179
-2.0013907e+179
-2.0008041e+179
-1.9985833e+179
-1.9986277e+179
-2.0031437e+179
-2.0030192e+179
-1.9950886e+179
-1.9952122e+179
-1.9957496e+179
-1.9957417e+179
-1.9950248e+179
-1.9951307e+179
-1.9953876e+179
-1.9958177e+179
-1.9986893e+179
-2.0009823e+179
-1.9987712e+179
-2.0013279e+179
-1.9985063e+179
-1.9984801e+179
-2.0009436e+179
-2.0002844e+179
-2.0038626e+179
-2.0044608e+179
-2.0074234e+179
-2.0061697e+179
-2.0045808e+179
-2.0076222e+179
-2.0041301e+179
-2.0066167e+179
-2.0025256e+179
-2.003026e+179
-2.0047221e+179
-2.0060194e+179
-2.0063706e+179
-2.0036466e+179
-2.0034282e+179
-2.0057206e+179
-2.0068079e+179
-2.0066401e+179
-2.0116131e+179
-2.012686e+179
-2.0064362e+179
-2.0068544e+179
-2.0126876e+179
-2.0118615e+179
-2.0065346e+179
-2.0064351e+179
-2.0118903e+179
-2.0124539e+179
-2.0058652e+179
-2.0062979e+179
-2.0118964e+179
-2.010882e+179
-2.0059637e+179
-2.0057051e+179
-2.0107989e+179
-2.0116682e+179
-2.005637e+179
-2.0057227e+179
-2.0114188e+179
-2.0108131e+179
-2.0108825e+179
-2.0056909e+179
-2.0059062e+179
-2.0115517e+179
-2.0055873e+179
-2.0057782e+179
-2.0111701e+179
-2.0102571e+179
-2.006109e+179
-2.0062837e+179
-2.0106393e+179
-2.0114987e+179
-2.0055876e+179
-2.0059225e+179
-2.0115082e+179
-2.0108054e+179
-2.0059822e+179
-2.0109034e+179
-2.0061254e+179
-2.01153e+179
-2.0112742e+179
-2.0060286e+179
-2.0056825e+179
-2.0104086e+179
-2.0063623e+179
-2.0058461e+179
-2.010417e+179
-2.0114052e+179
-2.011601e+179
-2.0065822e+179
-2.0056788e+179
-2.0109002e+179
-2.0064569e+179
-2.0068185e+179
-2.011001e+179
-2.0116189e+179
-2.0057496e+179
-2.006439e+179
-2.0114602e+179
-2.0104586e+179
-2.0011465e+179
-2.0008821e+179
-2.0042957e+179
-2.0034975e+179
-1.999814e+179
-2.0005457e+179
-2.0023588e+179
-2.0040175e+179
-2.0041472e+179
-2.0013816e+179
-2.0021778e+179
-2.0051145e+179
-2.0023444e+179
-2.0019555e+179
-2.0050505e+179
-2.0040455e+179
-1.8759897e+179
-1.8757438e+179
-1.8903943e+179
-1.8903053e+179
-1.8574608e+179
-1.8572837e+179
-1.844121e+179
-1.8443782e+179
-1.8115169e+179
-1.8561865e+179
-1.8434269e+179
-1.8430782e+179
-1.8566693e+179
-1.8113553e+179
-1.8749249e+179
-1.8744393e+179
-1.8894965e+179
-1.8899781e+179
-1.7838968e+179
-1.7850877e+179
-1.8730715e+179
-1.8876182e+179
-1.8551082e+179
-1.8422085e+179
-1.8419275e+179
-1.8553548e+179
-1.8095262e+179
-1.8422509e+179
-1.8555615e+179
-1.7817202e+179
-1.8741593e+179
-1.8890115e+179
-1.873697e+179
-1.8886136e+179
-1.9724256e+179
-1.955781e+179
-1.9741259e+179
-1.9571625e+179
-1.9569446e+179
-1.9748548e+179
-1.9751098e+179
-1.931521e+179
-1.9123173e+179
-1.9317491e+179
-1.9129029e+179
-1.9110903e+179
-1.9304992e+179
-1.9133045e+179
-1.9136992e+179
-1.9328928e+179
-1.9322251e+179
-1.9581765e+179
-1.9574728e+179
-1.9753298e+179
-1.9764904e+179
-1.9331398e+179
-1.9138434e+179
-1.9141473e+179
-1.933053e+179
-1.9580822e+179
-1.9583496e+179
-1.9767103e+179
-1.9760579e+179
-1.7345158e+179
-1.7658125e+179
-1.7676083e+179
-1.7364368e+179
-1.9650463e+179
-1.9651999e+179
-1.9763237e+179
-1.9761342e+179
-1.964491e+179
-1.9755517e+179
-1.9647428e+179
-1.97605e+179
-1.9896339e+179
-1.9952528e+179
-1.990153e+179
-1.9960045e+179
-1.9903815e+179
-1.9961077e+179
-1.9901459e+179
-1.9953207e+179
-1.9658322e+179
-1.965799e+179
-1.9768759e+179
-1.9765774e+179
-1.965438e+179
-1.9762589e+179
-1.965727e+179
-1.9767577e+179
-1.9900999e+179
-1.9952354e+179
-1.9905309e+179
-1.9958329e+179
-1.990759e+179
-1.9904042e+179
-1.9960927e+179
-1.9953554e+179
-1.9369077e+179
-1.9480409e+179
-1.937235e+179
-1.9484597e+179
-1.9141043e+179
-1.9143616e+179
-1.9225195e+179
-1.9228619e+179
-1.914576e+179
-1.9146563e+179
-1.923054e+179
-1.9230073e+179
-1.9373353e+179
-1.9372708e+179
-1.9486197e+179
-1.9484258e+179
-1.9358565e+179
-1.9469712e+179
-1.9361571e+179
-1.947384e+179
-1.9135213e+179
-1.9137986e+179
-1.9220466e+179
-1.9222584e+179
-1.9131782e+179
-1.9215694e+179
-1.9133168e+179
-1.9218402e+179
-1.9364083e+179
-1.9366156e+179
-1.9477066e+179
-1.9477874e+179
-1.8916002e+179
-1.89872e+179
-1.8917601e+179
-1.8988977e+179
-1.8741937e+179
-1.8744121e+179
-1.8802924e+179
-1.8804944e+179
-1.8739152e+179
-1.8799927e+179
-1.8739717e+179
-1.8800951e+179
-1.8919406e+179
-1.8921738e+179
-1.8991105e+179
-1.8993491e+179
-1.8558723e+179
-1.8617107e+179
-1.8560988e+179
-1.8618988e+179
-1.8555641e+179
-1.8614283e+179
-1.8556957e+179
-1.8615226e+179
-1.8450213e+179
-1.8449892e+179
-1.8399373e+179
-1.8241652e+179
-1.8399865e+179
-1.8453176e+179
-1.84552e+179
-1.824764e+179
-1.8405782e+179
-1.8402976e+179
-1.8121368e+179
-1.8123476e+179
-1.8457918e+179
-1.8458462e+179
-1.824292e+179
-1.8409044e+179
-1.8407874e+179
-1.845615e+179
-1.8456213e+179
-1.8246156e+179
-1.8406912e+179
-1.8406555e+179
-1.8562152e+179
-1.8620748e+179
-1.8563407e+179
-1.862157e+179
-1.8119965e+179
-1.8118983e+179
-1.8564754e+179
-1.8623528e+179
-1.856547e+179
-1.8623945e+179
-1.874859e+179
-1.8810694e+179
-1.8749164e+179
-1.8810959e+179
-1.8745871e+179
-1.8806916e+179
-1.8746522e+179
-1.880836e+179
-1.8924492e+179
-1.8996656e+179
-1.8926644e+179
-1.8999416e+179
-1.8928887e+179
-1.9001943e+179
-1.8928717e+179
-1.9001976e+179
-1.7842692e+179
-1.7849767e+179
-1.7963989e+179
-1.7957193e+179
-1.7951207e+179
-1.7837846e+179
-1.7845873e+179
-1.7959366e+179
-1.8929107e+179
-1.9001184e+179
-1.8928914e+179
-1.9000855e+179
-1.8750709e+179
-1.8753005e+179
-1.8812623e+179
-1.8814189e+179
-1.8750308e+179
-1.8811898e+179
-1.874901e+179
-1.8810858e+179
-1.893026e+179
-1.8931844e+179
-1.900265e+179
-1.9004194e+179
-1.8461647e+179
-1.8464312e+179
-1.8250499e+179
-1.841492e+179
-1.8410979e+179
-1.8459707e+179
-1.8458513e+179
-1.8246052e+179
-1.8408532e+179
-1.8409091e+179
-1.856811e+179
-1.8626286e+179
-1.8570825e+179
-1.8628758e+179
-1.8566409e+179
-1.8625488e+179
-1.8566584e+179
-1.8624655e+179
-1.811651e+179
-1.8122843e+179
-1.8463925e+179
-1.8463534e+179
-1.8413979e+179
-1.8413714e+179
-1.8570495e+179
-1.8629081e+179
-1.8571213e+179
-1.8629664e+179
-1.8817329e+179
-1.8932461e+179
-1.9005097e+179
-1.893363e+179
-1.9006463e+179
-1.8753333e+179
-1.8814897e+179
-1.875381e+179
-1.8815706e+179
-1.893461e+179
-1.9007873e+179
-1.8933556e+179
-1.9006387e+179
-1.7960348e+179
-1.7846128e+179
-1.7846454e+179
-1.7967062e+179
-1.7098283e+179
-1.7092293e+179
-1.6857571e+179
-1.6834606e+179
-1.6067588e+179
-1.7408492e+179
-1.7534115e+179
-1.7543194e+179
-1.7408038e+179
-1.7620355e+179
-1.7607018e+179
-1.7694963e+179
-1.7707415e+179
-1.7706885e+179
-1.7626871e+179
-1.7620114e+179
-1.7699416e+179
-1.7544922e+179
-1.7407797e+179
-1.7542592e+179
-1.7419347e+179
-1.7572549e+179
-1.7443874e+179
-1.7598042e+179
-1.7706664e+179
-1.7624618e+179
-1.7639182e+179
-1.7717384e+179
-1.9903829e+179
-1.9953795e+179
-1.9908778e+179
-1.9961699e+179
-1.9909849e+179
-1.9908566e+179
-1.9962549e+179
-1.995757e+179
-1.9657703e+179
-1.9765698e+179
-1.966003e+179
-1.9770269e+179
-1.966173e+179
-1.977178e+179
-1.9662971e+179
-1.9770401e+179
-1.9371947e+179
-1.9373584e+179
-1.9483727e+179
-1.9486728e+179
-1.9375587e+179
-1.9376485e+179
-1.9488723e+179
-1.9488835e+179
-1.9145315e+179
-1.9229825e+179
-1.9144948e+179
-1.9230523e+179
-1.9146313e+179
-1.9148239e+179
-1.9231982e+179
-1.9232886e+179
-1.9150755e+179
-1.9150681e+179
-1.9236078e+179
-1.9234521e+179
-1.9148344e+179
-1.9149779e+179
-1.9232486e+179
-1.9234923e+179
-1.9375544e+179
-1.9378138e+179
-1.9488543e+179
-1.9492168e+179
-1.9378609e+179
-1.9376845e+179
-1.9492364e+179
-1.9488669e+179
-1.9664036e+179
-1.977541e+179
-1.9662459e+179
-1.9770923e+179
-1.9661535e+179
-1.9769366e+179
-1.966458e+179
-1.9775453e+179
-1.9908121e+179
-1.9959503e+179
-1.9914136e+179
-1.9969277e+179
-1.9914266e+179
-1.9969652e+179
-1.9909726e+179
-1.9961971e+179
-2.0151494e+179
-2.0144559e+179
-2.0150053e+179
-2.015392e+179
-2.0145123e+179
-2.0153014e+179
-2.0154274e+179
-2.015106e+179
-2.0143445e+179
-2.0149457e+179
-2.0150045e+179
-2.014578e+179
-2.0146966e+179
-2.0151757e+179
-2.014902e+179
-2.0143942e+179
-2.0087753e+179
-2.0091707e+179
-2.0095487e+179
-2.0090709e+179
-2.0064871e+179
-2.0074129e+179
-2.0083671e+179
-2.0082124e+179
-2.0096052e+179
-2.0104255e+179
-2.0107867e+179
-2.010593e+179
-2.0116592e+179
-2.0110368e+179
-2.0109413e+179
-2.0114871e+179
-2.0150722e+179
-2.0155211e+179
-2.0150538e+179
-2.0144077e+179
-2.0146799e+179
-2.0154235e+179
-2.0154642e+179
-2.0149672e+179
-2.0147059e+179
-2.0141062e+179
-2.0150969e+179
-2.0146056e+179
-2.0144052e+179
-2.01515e+179
-2.0146005e+179
-2.0149614e+179
-1.9182888e+179
-1.9144067e+179
-1.8692766e+179
-1.9394173e+179
-1.9407453e+179
-1.9954627e+179
-1.9949474e+179
-1.9677756e+179
-2.0013444e+179
-2.0017918e+179
-1.9956578e+179
-2.010034e+179
-2.0091783e+179
-2.0160355e+179
-2.0162991e+179
-2.0076985e+179
-2.0077629e+179
-2.0076125e+179
-2.0076533e+179
-2.0042424e+179
-2.0030047e+179
-2.0043854e+179
-2.0033245e+179
-2.0032898e+179
-2.0031116e+179
-2.0043592e+179
-2.0044049e+179
-2.0077273e+179
-2.0077038e+179
-2.0043549e+179
-2.0030575e+179
-2.0044759e+179
-2.0033848e+179
-2.0032723e+179
-2.003119e+179
-2.0043858e+179
-2.0044491e+179
-2.0000189e+179
-2.0019106e+179
-2.0020368e+179
-2.0002182e+179
-2.0021713e+179
-2.0020679e+179
-2.0002115e+179
-2.0003639e+179
-1.998591e+179
-1.9939254e+179
-1.9937622e+179
-1.9983839e+179
-1.9941598e+179
-1.9984424e+179
-1.9985135e+179
-1.9939913e+179
-1.9982527e+179
-1.9983818e+179
-1.9940557e+179
-1.9938838e+179
-1.9938348e+179
-1.9981823e+179
-1.9979452e+179
-1.9936641e+179
-2.0022376e+179
-2.0021999e+179
-2.0001023e+179
-2.0002139e+179
-2.0020633e+179
-2.0019682e+179
-1.9998757e+179
-1.9998578e+179
-2.0092317e+179
-2.0099877e+179
-2.0162029e+179
-2.0161835e+179
-2.009959e+179
-2.0089275e+179
-2.015882e+179
-2.0161473e+179
-2.003385e+179
-2.0030521e+179
-2.0044114e+179
-2.0045596e+179
-2.0045277e+179
-2.0033727e+179
-2.0032288e+179
-2.0046323e+179
-2.0006848e+179
-2.0024568e+179
-2.002497e+179
-2.0008324e+179
-1.9947688e+179
-1.9992513e+179
-1.999122e+179
-1.994364e+179
-2.0023369e+179
-2.0022179e+179
-2.000231e+179
-2.0004495e+179
-1.9938774e+179
-1.9983427e+179
-1.9987324e+179
-1.994153e+179
-2.0006077e+179
-2.0023282e+179
-2.0025439e+179
-2.0007523e+179
-1.9987351e+179
-1.9989993e+179
-1.9943122e+179
-1.9938053e+179
-1.9793734e+179
-1.9929055e+179
-1.9923437e+179
-1.9522739e+179
-1.9537774e+179
-1.9809112e+179
-1.9932747e+179
-1.9934212e+179
-1.9951395e+179
-1.9943399e+179
-1.9669489e+179
-2.0007841e+179
-2.0010971e+179
-1.9949949e+179
-1.99517e+179
-1.9674159e+179
-2.0014375e+179
-2.0013359e+179
-1.9504507e+179
-1.9493371e+179
-1.976775e+179
-1.9906716e+179
-1.9894268e+179
-1.977222e+179
-1.9915864e+179
-1.9914318e+179
-1.9985873e+179
-1.9994193e+179
-2.0001874e+179
-2.0007633e+179
-1.9917893e+179
-1.9921757e+179
-1.9913615e+179
-1.9907706e+179
-1.9915995e+179
-1.9920021e+179
-1.9922398e+179
-1.9931409e+179
-1.9940827e+179
-1.9962063e+179
-1.9946315e+179
-1.9970466e+179
-1.9948571e+179
-1.9952901e+179
-1.9975615e+179
-1.9974659e+179
-1.9933606e+179
-1.9928367e+179
-1.9922774e+179
-1.99378e+179
-1.9929053e+179
-1.9932561e+179
-1.9937566e+179
-1.9945021e+179
-1.9957302e+179
-1.9962298e+179
-1.9980933e+179
-1.9989121e+179
-1.9962991e+179
-1.9990547e+179
-1.996502e+179
-1.9986394e+179
-2.0013794e+179
-2.0018672e+179
-2.00226e+179
-2.0025331e+179
-1.9935412e+179
-1.9939304e+179
-1.9945695e+179
-1.9947635e+179
-1.9941155e+179
-1.9944564e+179
-1.9948145e+179
-1.9954326e+179
-1.9968213e+179
-1.9972669e+179
-1.9991663e+179
-1.9998971e+179
-1.997923e+179
-1.9975711e+179
-2.0005426e+179
-2.0003068e+179
-1.9947282e+179
-1.9950204e+179
-1.9959504e+179
-1.9953566e+179
-1.9981766e+179
-1.9984363e+179
-2.000832e+179
-2.0014178e+179
-1.9948479e+179
-1.9945604e+179
-1.9952863e+179
-1.9954678e+179
-1.9983953e+179
-1.9985004e+179
-2.0012087e+179
-2.0008551e+179
-2.0094719e+179
-2.0083397e+179
-2.0158139e+179
-2.015647e+179
-2.0074165e+179
-2.0075274e+179
-2.0091178e+179
-2.0097982e+179
-2.0159347e+179
-2.0159985e+179
-2.0075534e+179
-2.00759e+179
-2.0034754e+179
-2.0030978e+179
-2.0044369e+179
-2.0045844e+179
-2.0045467e+179
-2.003458e+179
-2.0032899e+179
-2.004586e+179
-2.0044794e+179
-2.0031597e+179
-2.0045743e+179
-2.003485e+179
-2.0033654e+179
-2.0031997e+179
-2.0044236e+179
-2.0044404e+179
-1.9945736e+179
-1.9986584e+179
-1.9986949e+179
-1.9945738e+179
-1.9945996e+179
-1.9988507e+179
-1.9983715e+179
-1.9942505e+179
-2.0020965e+179
-2.0019808e+179
-2.00017e+179
-2.000139e+179
-2.0021964e+179
-2.0021058e+179
-2.0001918e+179
-2.0003084e+179
-1.9942682e+179
-1.9984968e+179
-1.9985567e+179
-1.994309e+179
-1.9939644e+179
-1.998325e+179
-1.9979559e+179
-1.9936839e+179
-2.002187e+179
-2.0021751e+179
-2.0001915e+179
-2.0002972e+179
-2.0018702e+179
-2.001847e+179
-1.9997964e+179
-1.9999088e+179
-2.0090358e+179
-2.0099656e+179
-2.0160493e+179
-2.0159728e+179
-2.0075906e+179
-2.0075971e+179
-2.0099705e+179
-2.0090596e+179
-2.0160311e+179
-2.0157565e+179
-2.0075407e+179
-2.0075877e+179
-2.003409e+179
-2.0030984e+179
-2.0043538e+179
-2.00445e+179
-2.0043889e+179
-2.0033564e+179
-2.0031794e+179
-2.0044108e+179
-2.0042882e+179
-2.0030258e+179
-2.0043833e+179
-2.0033464e+179
-2.0032229e+179
-2.0030665e+179
-2.0042555e+179
-2.0042988e+179
-2.0019958e+179
-2.001959e+179
-2.0000948e+179
-2.000142e+179
-1.993673e+179
-1.9982216e+179
-1.9984622e+179
-1.9937914e+179
-2.0020629e+179
-2.0020109e+179
-2.0003636e+179
-2.0002274e+179
-1.9982936e+179
-1.9985378e+179
-1.9936598e+179
-1.9936258e+179
-2.0020631e+179
-2.0020563e+179
-2.0003119e+179
-2.0002511e+179
-2.0018221e+179
-2.0017699e+179
-2.0000119e+179
-1.9998976e+179
-1.9984965e+179
-1.9982764e+179
-1.9936025e+179
-1.9938389e+179
-1.9979882e+179
-1.9982103e+179
-1.9935693e+179
-1.9934985e+179
-2.0067108e+179
-2.0063633e+179
-2.0109806e+179
-2.0120386e+179
-2.0064768e+179
-2.0067362e+179
-2.012e+179
-2.0113833e+179
-2.0069558e+179
-2.0065792e+179
-2.0115407e+179
-2.0123541e+179
-2.0060625e+179
-2.0065711e+179
-2.01208e+179
-2.0111615e+179
-2.0050189e+179
-2.0055569e+179
-2.0096425e+179
-2.0107972e+179
-2.0055247e+179
-2.0057447e+179
-2.0110311e+179
-2.0104393e+179
-2.005894e+179
-2.0058269e+179
-2.0107097e+179
-2.0114863e+179
-2.0062028e+179
-2.0060693e+179
-2.0114431e+179
-2.0106769e+179
-2.0149212e+179
-2.0144947e+179
-2.0147204e+179
-2.0149804e+179
-2.015013e+179
-2.0147998e+179
-2.0142221e+179
-2.0146243e+179
-2.014627e+179
-2.0141985e+179
-2.0143335e+179
-2.0144614e+179
-2.0143897e+179
-2.0145922e+179
-2.0139709e+179
-2.0142769e+179
-2.0145425e+179
-2.0143723e+179
-2.0143179e+179
-2.014613e+179
-2.0146653e+179
-2.0147584e+179
-2.0145575e+179
-2.0142366e+179
-2.0148583e+179
-2.0143913e+179
-2.01507e+179
-2.0146989e+179
-2.0148958e+179
-2.0149329e+179
-2.0141535e+179
-2.0146752e+179
-2.0034032e+179
-2.0035606e+179
-2.0080602e+179
-2.0088494e+179
-2.0032614e+179
-2.0038639e+179
-2.0079347e+179
-2.0087707e+179
-2.0024638e+179
-2.0019455e+179
-2.0063783e+179
-2.007707e+179
-2.0079782e+179
-2.0029927e+179
-2.0027172e+179
-2.0075034e+179
-2.0038073e+179
-2.0035731e+179
-2.0094265e+179
-2.0085028e+179
-2.0041853e+179
-2.0045433e+179
-2.0094185e+179
-2.0088728e+179
-2.0047624e+179
-2.0044724e+179
-2.0091421e+179
-2.0100012e+179
-2.0046958e+179
-2.004832e+179
-2.0097258e+179
-2.0089234e+179
-1.8736425e+179
-1.8738111e+179
-1.8797526e+179
-1.8798603e+179
-1.8733542e+179
-1.8794057e+179
-1.8734846e+179
-1.8795919e+179
-1.8914711e+179
-1.8986164e+179
-1.8915355e+179
-1.8986697e+179
-1.8911431e+179
-1.898274e+179
-1.8913416e+179
-1.8984826e+179
-1.8553246e+179
-1.8611479e+179
-1.8554448e+179
-1.8612663e+179
-1.8550229e+179
-1.8608156e+179
-1.8551545e+179
-1.8609554e+179
-1.8445126e+179
-1.844631e+179
-1.8394743e+179
-1.8395296e+179
-1.8231161e+179
-1.8447891e+179
-1.8449486e+179
-1.8398824e+179
-1.8397077e+179
-1.8233319e+179
-1.8103128e+179
-1.8109314e+179
-1.8543816e+179
-1.8602057e+179
-1.8543872e+179
-1.8602278e+179
-1.8441198e+179
-1.8444818e+179
-1.8393989e+179
-1.8390936e+179
-1.8227226e+179
-1.8437312e+179
-1.8438122e+179
-1.822282e+179
-1.8388376e+179
-1.8388534e+179
-1.8545793e+179
-1.8604583e+179
-1.8548734e+179
-1.8607548e+179
-1.8101743e+179
-1.8096135e+179
-1.872883e+179
-1.879095e+179
-1.8732062e+179
-1.8793777e+179
-1.8725761e+179
-1.878766e+179
-1.8726047e+179
-1.8788659e+179
-1.8904799e+179
-1.8979058e+179
-1.8906176e+179
-1.8980438e+179
-1.8908928e+179
-1.8982122e+179
-1.8911244e+179
-1.8983879e+179
-1.781488e+179
-1.782754e+179
-1.7944793e+179
-1.7935797e+179
-1.7827942e+179
-1.7831158e+179
-1.7949914e+179
-1.7947812e+179
-1.8708491e+179
-1.8711148e+179
-1.8769263e+179
-1.8772264e+179
-1.8884966e+179
-1.8888322e+179
-1.8956435e+179
-1.8959967e+179
-1.8526699e+179
-1.8584905e+179
-1.8529142e+179
-1.8587119e+179
-1.8424467e+179
-1.8374404e+179
-1.8425503e+179
-1.8426457e+179
-1.8215716e+179
-1.8376346e+179
-1.8375448e+179
-1.8531282e+179
-1.8590361e+179
-1.853484e+179
-1.8593913e+179
-1.8090749e+179
-1.8094342e+179
-1.8216123e+179
-1.8429795e+179
-1.8432896e+179
-1.8383515e+179
-1.8379928e+179
-1.8539837e+179
-1.8598544e+179
-1.8542442e+179
-1.8600931e+179
-1.7811246e+179
-1.7926468e+179
-1.7927022e+179
-1.8721177e+179
-1.8783289e+179
-1.8724066e+179
-1.8785508e+179
-1.8901106e+179
-1.8974651e+179
-1.8903026e+179
-1.8976901e+179
-1.8714445e+179
-1.8775841e+179
-1.8717247e+179
-1.8779461e+179
-1.8893005e+179
-1.8965391e+179
-1.8897195e+179
-1.8970485e+179
-1.9855681e+179
-1.9910221e+179
-1.9864876e+179
-1.9922872e+179
-1.9617662e+179
-1.9620895e+179
-1.9729705e+179
-1.973085e+179
-1.9725774e+179
-1.9870262e+179
-1.9929789e+179
-1.9871964e+179
-1.9927403e+179
-1.96345e+179
-1.9635945e+179
-1.9745846e+179
-1.9744494e+179
-1.962604e+179
-1.9735386e+179
-1.963126e+179
-1.9742907e+179
-1.9885431e+179
-1.9883746e+179
-1.9942781e+179
-1.9937476e+179
-1.9932476e+179
-1.9876456e+179
-1.9882645e+179
-1.9939636e+179
-1.9336921e+179
-1.9451196e+179
-1.9342458e+179
-1.9457717e+179
-1.9108293e+179
-1.9112998e+179
-1.9192681e+179
-1.9198479e+179
-1.9346246e+179
-1.9347697e+179
-1.9461293e+179
-1.9461531e+179
-1.91172e+179
-1.9120234e+179
-1.9202656e+179
-1.9204533e+179
-1.9099269e+179
-1.9103113e+179
-1.9185105e+179
-1.9188036e+179
-1.9329002e+179
-1.9332195e+179
-1.9443983e+179
-1.9446299e+179
-1.9122052e+179
-1.9206669e+179
-1.9123106e+179
-1.9209147e+179
-1.9124774e+179
-1.9210607e+179
-1.9127224e+179
-1.9212147e+179
-1.9354523e+179
-1.9470058e+179
-1.9356114e+179
-1.9470632e+179
-1.9349311e+179
-1.9463596e+179
-1.935237e+179
-1.9468106e+179
-1.964282e+179
-1.9755715e+179
-1.9644922e+179
-1.975544e+179
-1.9636925e+179
-1.9746723e+179
-1.964036e+179
-1.9753089e+179
-1.9886194e+179
-1.9941324e+179
-1.9893159e+179
-1.9951812e+179
-1.9896281e+179
-1.9954832e+179
-1.9896542e+179
-1.9952198e+179
-1.935626e+179
-1.9469808e+179
-1.9359348e+179
-1.9473689e+179
-1.9126643e+179
-1.9211415e+179
-1.9128631e+179
-1.9214385e+179
-1.9129575e+179
-1.9215338e+179
-1.9130972e+179
-1.9215213e+179
-1.9359544e+179
-1.9473981e+179
-1.9358937e+179
-1.9471293e+179
-1.9647332e+179
-1.9646388e+179
-1.9761534e+179
-1.9757556e+179
-1.9647758e+179
-1.9644429e+179
-1.9755164e+179
-1.9761491e+179
-1.9897452e+179
-1.9903452e+179
-1.9962421e+179
-1.9954126e+179
-1.9903705e+179
-1.9963302e+179
-1.9899388e+179
-1.9955137e+179
-1.7087289e+179
-1.7558134e+179
-1.7434043e+179
-1.7573528e+179
-1.7618037e+179
-1.7604547e+179
-1.7684586e+179
-1.7700852e+179
-1.7698198e+179
-1.7617527e+179
-1.7614558e+179
-1.7696896e+179
-1.7568117e+179
-1.7433842e+179
-1.75608e+179
-1.7435592e+179
-1.964903e+179
-1.9719326e+179
-1.9722211e+179
-1.9651633e+179
-1.9652762e+179
-1.9652177e+179
-1.9723283e+179
-1.9722669e+179
-1.9874165e+179
-1.9803762e+179
-1.9871595e+179
-1.9806055e+179
-1.9806116e+179
-1.9872094e+179
-1.9806957e+179
-1.9874755e+179
-1.9718366e+179
-1.9645695e+179
-1.9716247e+179
-1.9647019e+179
-1.9800148e+179
-1.9867757e+179
-1.9871146e+179
-1.9802304e+179
-1.9717735e+179
-1.9647274e+179
-1.971898e+179
-1.9647323e+179
-1.9803357e+179
-1.9872387e+179
-1.9802472e+179
-1.9869985e+179
-2.0012307e+179
-1.9957473e+179
-2.0007887e+179
-1.9959783e+179
-2.0066502e+179
-2.0063235e+179
-2.006737e+179
-2.0073204e+179
-1.9959091e+179
-2.0008434e+179
-1.9960698e+179
-2.0012677e+179
-2.0071884e+179
-2.0066754e+179
-2.006372e+179
-2.0067013e+179
-1.9960449e+179
-2.0009284e+179
-2.0012624e+179
-1.9962241e+179
-2.0066644e+179
-2.0071051e+179
-2.0066413e+179
-2.0063682e+179
-1.9962115e+179
-2.00122e+179
-1.99605e+179
-2.0008257e+179
-2.006165e+179
-2.0063102e+179
-2.0065118e+179
-2.0068825e+179
-1.9656816e+179
-1.9726077e+179
-1.9728622e+179
-1.9658787e+179
-1.9657792e+179
-1.9658383e+179
-1.9728884e+179
-1.972715e+179
-1.9878994e+179
-1.9809795e+179
-1.9876238e+179
-1.9811821e+179
-1.9810053e+179
-1.9875418e+179
-1.9811905e+179
-1.9878979e+179
-1.9726145e+179
-1.9653885e+179
-1.9723648e+179
-1.9655785e+179
-1.9806834e+179
-1.9872616e+179
-1.9876166e+179
-1.9809373e+179
-1.9726282e+179
-1.9656314e+179
-1.972694e+179
-1.9656642e+179
-1.9810552e+179
-1.9877385e+179
-1.9810303e+179
-1.9876037e+179
-2.0012758e+179
-1.9960864e+179
-2.00084e+179
-1.9963492e+179
-2.0069024e+179
-2.0061283e+179
-2.0062492e+179
-2.0065559e+179
-1.9963835e+179
-2.001083e+179
-1.9964257e+179
-2.0013123e+179
-2.006517e+179
-2.0067757e+179
-2.0063817e+179
-2.0064564e+179
-1.9963841e+179
-2.0010854e+179
-2.0015257e+179
-1.9966007e+179
-1.9965378e+179
-2.0014913e+179
-1.9963129e+179
-2.001064e+179
-2.0064721e+179
-2.0070291e+179
-2.0063924e+179
-2.0067737e+179
-2.0063608e+179
-2.0067122e+179
-2.0069183e+179
-2.0064041e+179
-1.9407556e+179
-1.9341829e+179
-1.9406241e+179
-1.9343444e+179
-1.9490198e+179
-1.9557031e+179
-1.9559432e+179
-1.9491902e+179
-1.9408944e+179
-1.9344218e+179
-1.9408772e+179
-1.9345538e+179
-1.9493382e+179
-1.9560604e+179
-1.9493195e+179
-1.9560132e+179
-1.9105005e+179
-1.9145207e+179
-1.9146422e+179
-1.9106404e+179
-1.910735e+179
-1.9147574e+179
-1.9148574e+179
-1.9108672e+179
-1.9213619e+179
-1.9257566e+179
-1.9259352e+179
-1.9215356e+179
-1.9216315e+179
-1.9260184e+179
-1.9261256e+179
-1.9217688e+179
-1.9108876e+179
-1.9148994e+179
-1.914981e+179
-1.9109944e+179
-1.9110529e+179
-1.9110336e+179
-1.9150551e+179
-1.9150429e+179