/*--------------------------------*- C++ -*----------------------------------*\
  =========                 |
  \\      /  F ield         | OpenFOAM: The Open Source CFD Toolbox
   \\    /   O peration     | Website:  https://openfoam.org
    \\  /    A nd           | Version:  7
     \\/     M anipulation  |
\*---------------------------------------------------------------------------*/
FoamFile
{
    version     2.0;
    format      ascii;
    class       volVectorField;
    location    "2000";
    object      U;
}
// * * * * * * * * * * * * * * * * * * * * * * * * * * * * * * * * * * * * * //

dimensions      [0 1 -1 0 0 0 0];

internalField   nonuniform List<vector> 
34377
(
(-5.9207941e+90 4.3243557e+89 8.1026647e+89)
(-5.8607582e+90 4.9331051e+89 5.9056636e+89)
(-5.2590325e+90 -2.1359639e+89 8.7135676e+89)
(-4.8598872e+90 2.6622771e+89 8.0871939e+89)
(-5.396458e+90 2.4495055e+89 1.1745376e+90)
(-6.5342823e+90 -4.8520773e+88 9.9023758e+89)
(-5.1224022e+90 3.5523718e+89 1.0666558e+90)
(-6.8514304e+90 8.8119358e+88 2.5464982e+89)
(-5.5344289e+90 2.8293457e+89 1.7076635e+89)
(-5.7048286e+90 9.5910161e+88 2.570537e+89)
(-5.4178144e+90 3.0842436e+89 -2.2841839e+89)
(-4.2336176e+90 4.4855969e+89 6.8548786e+89)
(-5.7148765e+90 -2.6439866e+89 -3.0303227e+89)
(-6.4052197e+90 -2.813095e+89 7.5326257e+89)
(-4.6113912e+90 -3.820441e+89 8.1123691e+89)
(-5.0505169e+90 7.4076893e+88 9.5296153e+89)
(-5.0262906e+90 1.35255e+89 1.0955796e+90)
(-4.3151295e+90 -1.3577877e+89 8.4482305e+89)
(-4.1360234e+90 9.911899e+88 8.1201118e+89)
(-4.9704581e+90 1.291081e+89 1.075447e+90)
(-4.2016086e+90 -9.3711185e+88 7.7268337e+89)
(-4.07155e+90 9.8555156e+88 7.7414457e+89)
(-4.781483e+90 1.6416093e+89 1.0042507e+90)
(-4.9019972e+90 2.0194279e+89 1.0456577e+90)
(-5.0998364e+90 1.986755e+89 1.1469985e+90)
(-5.3541638e+90 -4.3748516e+89 9.5019574e+89)
(-5.2160182e+90 9.2191247e+88 1.1301906e+90)
(-6.9143513e+90 -3.769292e+88 2.8743713e+89)
(-5.8797744e+90 3.2154542e+89 6.0476069e+89)
(-5.6930201e+90 9.9146726e+88 -6.4028005e+89)
(-5.6191098e+90 2.6686386e+89 -6.297499e+89)
(-6.7441258e+90 1.1046572e+89 3.1992855e+89)
(-4.7347528e+90 4.3865047e+89 2.6351582e+89)
(-4.6884411e+90 1.6669446e+89 3.0762574e+89)
(-4.4793786e+90 4.1860936e+89 -6.823945e+89)
(-4.6009701e+90 2.6851813e+89 -6.9755563e+89)
(-5.8330781e+90 3.9622124e+88 5.9756784e+89)
(-4.9713799e+90 1.5515029e+89 4.3864799e+89)
(-5.0445639e+90 1.4122076e+89 4.6503924e+89)
(-5.6680924e+90 -1.2794724e+88 2.6516336e+89)
(-5.6466458e+90 1.3668159e+89 2.6080541e+89)
(-5.161935e+90 9.1487234e+88 5.6176105e+89)
(-5.0912447e+90 8.4445563e+88 5.1551461e+89)
(-4.3593607e+90 2.341103e+88 -8.3095177e+88)
(-4.8016537e+90 2.0163224e+89 -5.6842662e+89)
(-4.7391556e+90 2.3726796e+89 -5.2074922e+89)
(-4.2796371e+90 2.5465166e+89 -7.0282064e+88)
(-3.9676229e+90 1.3517697e+89 -3.608023e+89)
(-3.2797959e+90 -2.3348589e+89 7.4046294e+89)
(-4.0547414e+90 -1.2695819e+89 -3.9279148e+89)
(-3.1570784e+90 2.8298898e+89 7.1861765e+89)
(-5.6113476e+90 7.4207504e+88 -2.526653e+89)
(-4.3687579e+90 -4.3982937e+88 -1.161243e+89)
(-4.8152965e+90 1.250586e+89 -5.750152e+89)
(-4.7420007e+90 1.7082443e+89 -5.4181949e+89)
(-4.2922915e+90 2.0206475e+89 -9.7582255e+88)
(-5.7933687e+90 -5.0403019e+89 -3.1395098e+89)
(-4.5494257e+90 -6.8281117e+89 7.7561107e+89)
(-4.6079827e+90 1.2397134e+89 8.5154288e+89)
(-4.1115615e+90 -1.7302492e+89 -4.0154432e+89)
(-3.3481278e+90 -2.9922036e+89 7.5195042e+89)
(-3.9683572e+90 1.1427226e+89 -3.6168392e+89)
(-3.1882487e+90 2.4121519e+89 7.4708717e+89)
(-4.2035132e+90 3.1121633e+88 8.802095e+89)
(-4.2380448e+90 -1.9111846e+89 8.3856084e+89)
(-4.8979816e+90 1.090647e+89 1.0682919e+90)
(-4.8252803e+90 5.8531545e+88 1.0660558e+90)
(-3.5744499e+90 -6.6202355e+88 7.6738143e+89)
(-3.4418869e+90 8.9703336e+88 7.1140874e+89)
(-4.3102116e+90 9.4653192e+88 9.565745e+89)
(-4.2796525e+90 8.222806e+88 9.3331619e+89)
(-4.3111694e+90 1.1915699e+89 9.2746336e+89)
(-3.4812444e+90 -4.5829751e+88 7.0306314e+89)
(-3.3984078e+90 8.349614e+88 7.0412476e+89)
(-4.2597112e+90 8.613644e+88 9.1481334e+89)
(-3.5216364e+90 -7.6408655e+88 7.3985187e+89)
(-4.3176958e+90 1.2193104e+89 9.4538072e+89)
(-3.3864689e+90 8.0956374e+88 6.9443925e+89)
(-4.2596509e+90 1.0355791e+89 9.1118865e+89)
(-3.4459739e+90 -5.6841927e+88 6.8680883e+89)
(-4.1903262e+90 1.4780809e+89 8.7377601e+89)
(-3.3924561e+90 7.5464354e+88 6.9391135e+89)
(-4.1454826e+90 1.0751337e+89 8.6414104e+89)
(-4.9736742e+90 3.1560784e+87 1.0777667e+90)
(-4.3846757e+90 -3.0366172e+89 8.6506393e+89)
(-4.2310264e+90 -5.4642666e+88 8.7654375e+89)
(-4.8885796e+90 5.068194e+87 1.0942236e+90)
(-5.6140917e+90 1.708342e+89 -6.4390965e+89)
(-5.7216427e+90 3.0711007e+86 -6.4357682e+89)
(-5.8802029e+90 2.1676526e+89 6.0916612e+89)
(-5.8804974e+90 -7.9880741e+88 6.1834003e+89)
(-6.7785097e+90 2.1295493e+88 3.3429806e+89)
(-4.7258551e+90 6.4173479e+88 3.2610877e+89)
(-4.7666403e+90 3.3668113e+89 2.8340542e+89)
(-4.6055701e+90 1.4451916e+89 -6.9142431e+89)
(-4.523176e+90 3.0290419e+89 -6.7601877e+89)
(-5.3975437e+90 1.9588461e+89 6.1711859e+89)
(-5.3340253e+90 -3.5551762e+88 5.8517329e+89)
(-5.1588857e+90 9.8209665e+88 -2.5802739e+89)
(-5.2333609e+90 -9.321588e+87 -1.9840448e+89)
(-5.2701542e+90 1.3774381e+89 1.3647055e+89)
(-5.043783e+90 -4.5180252e+87 -4.8653431e+89)
(-5.0734991e+90 5.3278377e+88 -5.052093e+89)
(-5.2506887e+90 -4.9732682e+88 1.2321694e+89)
(-5.6494947e+90 3.5668618e+89 3.0465364e+89)
(-5.228962e+90 1.5622957e+89 1.1139271e+89)
(-5.0240578e+90 2.0653624e+88 -5.0972307e+89)
(-5.0418143e+90 7.9288575e+88 -5.1529805e+89)
(-5.2137474e+90 -3.6985702e+88 1.1872308e+89)
(-5.6411968e+90 8.8031312e+88 3.4875853e+89)
(-5.1256777e+90 1.8183655e+89 -2.4181685e+89)
(-4.9893933e+90 4.2162314e+89 -1.957996e+89)
(-4.5775876e+90 1.3646449e+89 4.473513e+89)
(-4.2746664e+90 2.4179808e+89 -7.2855587e+89)
(-4.2520154e+90 4.2702103e+89 -7.1891946e+89)
(-4.5662774e+90 4.5012545e+89 4.3835625e+89)
(-5.2682132e+90 2.582371e+89 5.4072693e+89)
(-5.1927196e+90 2.5000462e+88 -2.2318243e+89)
(-5.1245477e+90 1.1684301e+89 -2.6944451e+89)
(-5.2080943e+90 3.6251608e+88 5.1560809e+89)
(-4.2302682e+90 1.1304926e+89 5.1302618e+89)
(-4.246674e+90 1.3779673e+89 5.0913141e+89)
(-4.3256866e+90 1.0882534e+89 5.6470595e+89)
(-4.2961279e+90 8.341934e+88 5.3248997e+89)
(-5.1257799e+90 -6.9226944e+87 5.53017e+89)
(-5.1444421e+90 -2.004896e+88 5.6415746e+89)
(-5.0851068e+90 5.8263382e+88 5.0153254e+89)
(-5.0757235e+90 5.7907677e+88 5.3137188e+89)
(-4.3299382e+90 6.7142714e+88 5.694814e+89)
(-4.3617315e+90 9.7523609e+88 6.1292738e+89)
(-4.291124e+90 7.7346985e+88 5.4093981e+89)
(-4.3368663e+90 1.0085845e+89 5.4658916e+89)
(-5.9797191e+90 1.5424012e+89 -2.2701528e+89)
(-5.8819894e+90 2.4257498e+89 -1.9278961e+89)
(-4.8858837e+90 7.4371146e+88 -5.0939399e+89)
(-4.9014039e+90 1.3223809e+89 5.6758908e+88)
(-4.8352129e+90 2.298557e+89 1.1029207e+89)
(-4.8504253e+90 8.6161693e+88 -4.7738889e+89)
(-3.6266786e+90 1.157704e+89 -5.9882647e+89)
(-3.0182209e+90 -7.1617001e+87 -2.9449626e+89)
(-2.975185e+90 1.389638e+89 -2.9141377e+89)
(-3.566965e+90 1.425938e+89 -5.5651843e+89)
(-2.4526432e+90 -6.0200363e+88 -2.7307452e+89)
(-2.3629586e+90 1.2389263e+89 -2.455488e+89)
(-2.243074e+90 -1.3100457e+89 7.750923e+89)
(-2.0987007e+90 2.7445211e+89 7.5044766e+89)
(-3.5780422e+90 1.2861858e+89 -5.6921844e+89)
(-3.6125652e+90 1.1180132e+89 -5.9955712e+89)
(-2.9877852e+90 1.3097115e+89 -2.981147e+89)
(-3.022502e+90 -1.7768807e+88 -3.100501e+89)
(-2.4096986e+90 -4.4816056e+88 -2.6034547e+89)
(-2.1440269e+90 2.8895952e+89 7.5044095e+89)
(-2.2183028e+90 -1.238995e+89 7.8390903e+89)
(-4.3998616e+90 -1.1565302e+89 -1.027406e+89)
(-4.8394217e+90 4.5081077e+88 -5.7781562e+89)
(-4.7676399e+90 8.6732061e+88 -5.5447987e+89)
(-4.3181199e+90 1.3132667e+89 -9.526631e+88)
(-4.9072058e+90 2.8386937e+88 -5.3738967e+89)
(-4.9528267e+90 7.9486348e+88 3.6896755e+88)
(-4.9573611e+90 1.647249e+89 7.6163778e+88)
(-4.8922094e+90 3.6104062e+88 -5.1813805e+89)
(-4.7398644e+90 1.2105054e+88 -5.6748905e+89)
(-4.8274013e+90 -3.345863e+88 -5.6707e+89)
(-4.3966269e+90 -2.0916133e+89 -1.1463552e+89)
(-4.3346945e+90 4.4633425e+88 -1.1566782e+89)
(-4.1641998e+90 -3.4292132e+89 -3.9940217e+89)
(-4.0648984e+90 -4.4687642e+88 -3.7718182e+89)
(-3.241461e+90 -5.2761928e+89 6.6283254e+89)
(-3.3494796e+90 -3.1977625e+88 7.841441e+89)
(-4.1379007e+90 -2.4347666e+89 -4.0511584e+89)
(-4.0512526e+90 4.5916774e+88 -3.7598019e+89)
(-3.4667957e+90 -4.4348069e+89 8.2214316e+89)
(-3.4431107e+90 1.1831186e+89 8.6836399e+89)
(-3.5800773e+90 9.5991835e+88 -5.895537e+89)
(-3.6100353e+90 7.4101482e+88 -6.0863557e+89)
(-3.0197749e+90 -4.2747322e+88 -3.302702e+89)
(-2.9988663e+90 1.1416807e+89 -3.1595146e+89)
(-2.500986e+90 -8.3058663e+88 -2.8708331e+89)
(-2.4166802e+90 1.0675075e+89 -2.5732953e+89)
(-2.3660265e+90 -1.5818878e+89 8.0898278e+89)
(-2.2120235e+90 2.6012123e+89 7.8758329e+89)
(-3.5758097e+90 1.1316864e+89 -5.7987534e+89)
(-3.6128124e+90 9.8034296e+88 -6.0202839e+89)
(-2.9931169e+90 1.2499746e+89 -3.059877e+89)
(-3.0278101e+90 -1.9107576e+88 -3.0485912e+89)
(-2.4552114e+90 -5.5379929e+88 -2.6661811e+89)
(-2.3871117e+90 1.2163206e+89 -2.4853294e+89)
(-2.2798805e+90 -1.2549285e+89 8.1020798e+89)
(-2.1741163e+90 2.8230115e+89 7.8995382e+89)
(-3.520414e+90 -7.7788835e+88 7.5040296e+89)
(-3.4863452e+90 6.1597751e+88 7.6664747e+89)
(-4.2122864e+90 4.9565422e+88 9.2745117e+89)
(-4.2664095e+90 8.6651342e+88 9.4068989e+89)
(-3.5478872e+90 -1.3136554e+89 7.7488671e+89)
(-3.4473371e+90 3.1387557e+88 7.51048e+89)
(-4.2529518e+90 6.1676064e+88 9.1656406e+89)
(-4.2237228e+90 4.8392263e+88 9.1268759e+89)
(-3.0943814e+90 -4.0207926e+88 7.612621e+89)
(-3.0390521e+90 8.7035463e+88 7.3325919e+89)
(-3.6506051e+90 7.1319567e+88 8.3936056e+89)
(-3.6646972e+90 7.3412044e+88 8.5979714e+89)
(-3.0422697e+90 -2.2151983e+88 7.0948929e+89)
(-2.9798951e+90 7.7599134e+88 7.169321e+89)
(-3.6294879e+90 7.045039e+88 8.2162541e+89)
(-3.6642887e+90 8.6133578e+88 8.2740339e+89)
(-3.049822e+90 -5.0740589e+88 7.3346455e+89)
(-2.9791864e+90 7.7773223e+88 7.1565254e+89)
(-3.6359535e+90 8.1805693e+88 8.1301784e+89)
(-3.6627882e+90 8.1891387e+88 8.3336404e+89)
(-3.0232289e+90 -3.7091079e+88 7.1293387e+89)
(-3.0062487e+90 5.7164607e+88 7.4709413e+89)
(-3.641243e+90 8.899945e+88 8.156438e+89)
(-3.6085192e+90 6.8882153e+88 8.1665306e+89)
(-3.6534836e+90 8.3339062e+88 8.4493457e+89)
(-3.0499223e+90 -5.2354153e+88 7.4782138e+89)
(-2.9894995e+90 7.5955669e+88 7.2360604e+89)
(-3.6330485e+90 8.2948626e+88 8.2200495e+89)
(-2.9946926e+90 -2.7358613e+88 6.9982117e+89)
(-2.9550452e+90 7.5245727e+88 7.1425412e+89)
(-3.6060876e+90 8.3572168e+88 8.121178e+89)
(-3.6389628e+90 9.8309566e+88 8.1269809e+89)
(-3.0142575e+90 -4.5229968e+88 7.1933168e+89)
(-2.9690896e+90 7.7596858e+88 7.0198955e+89)
(-3.6183909e+90 1.0386348e+89 8.2127286e+89)
(-3.5900915e+90 9.9647207e+88 7.9412618e+89)
(-3.5852484e+90 1.0223405e+89 7.8981385e+89)
(-2.9782469e+90 -2.9013927e+88 6.891722e+89)
(-2.9957244e+90 6.417846e+88 7.2570601e+89)
(-3.5614511e+90 8.1527814e+88 7.9284064e+89)
(-3.5190135e+90 -3.7424619e+88 7.62034e+89)
(-4.2791927e+90 -2.2614976e+88 9.3652304e+89)
(-4.3586176e+90 -1.1783271e+88 9.5482236e+89)
(-3.6101197e+90 -1.8481918e+89 7.7776383e+89)
(-3.5743891e+90 -1.4682107e+89 7.5496896e+89)
(-3.4851833e+90 -9.0205431e+87 7.7845172e+89)
(-4.2704201e+90 -9.2446516e+86 9.4710553e+89)
(-4.3274028e+90 3.0967313e+88 9.4205294e+89)
(-5.2395239e+90 -9.488534e+88 1.0968075e+89)
(-5.061469e+90 3.3236266e+88 -5.1274791e+89)
(-5.0410442e+90 -4.2936063e+88 -5.1949026e+89)
(-5.2487734e+90 8.1826631e+88 9.6382923e+88)
(-5.5880865e+90 2.2087869e+88 3.6563338e+89)
(-5.2749264e+90 7.1990302e+88 1.4697334e+89)
(-5.056543e+90 -5.5881087e+88 -4.7052703e+89)
(-5.0742476e+90 7.0164899e+87 -4.9645947e+89)
(-5.686041e+90 2.7020847e+89 3.039661e+89)
(-5.2414577e+90 -1.0536788e+89 1.2854022e+89)
(-5.3038492e+90 1.0831522e+89 5.832333e+89)
(-5.2618837e+90 -1.1054413e+89 5.5680585e+89)
(-5.1586845e+90 2.2024919e+88 -2.3261039e+89)
(-5.2282025e+90 -6.8336801e+88 -1.8041455e+89)
(-5.1559608e+90 -3.5809888e+88 -2.6611222e+89)
(-5.2576457e+90 1.7906998e+89 5.2071619e+89)
(-5.2005467e+90 3.059541e+88 -2.1449483e+89)
(-5.2476257e+90 -4.6034847e+88 5.4351344e+89)
(-4.9001205e+90 3.5696103e+89 -1.7520892e+89)
(-4.6088842e+90 5.1442065e+88 4.5126394e+89)
(-4.2872357e+90 3.3366874e+89 -7.1779361e+89)
(-4.2867428e+90 1.5540032e+89 -7.2886364e+89)
(-4.6179636e+90 3.6135765e+89 4.4174877e+89)
(-4.3745333e+90 7.0793222e+88 1.9641441e+88)
(-4.4430266e+90 2.9031759e+88 6.0889218e+88)
(-4.5930671e+90 1.7038605e+89 6.4705908e+89)
(-4.5434168e+90 -2.690602e+88 6.1722836e+89)
(-4.3624355e+90 8.478934e+88 -7.6382727e+85)
(-4.3836779e+90 2.1754171e+88 2.2858231e+88)
(-4.5767717e+90 1.6528693e+89 5.9770229e+89)
(-4.5147926e+90 -1.1283407e+88 5.9312133e+89)
(-4.4034758e+90 1.0565232e+89 1.9908282e+89)
(-4.2238604e+90 1.2270398e+88 -2.1655289e+89)
(-4.202174e+90 7.5500058e+88 -2.2133397e+89)
(-4.384475e+90 -4.811839e+87 1.9740373e+89)
(-4.4717071e+90 1.0999327e+89 2.5356689e+89)
(-4.2273263e+90 4.0196218e+88 -1.980172e+89)
(-4.2645699e+90 1.7679771e+87 -1.6436612e+89)
(-4.427383e+90 -2.861666e+88 2.3087654e+89)
(-4.3200855e+90 6.6709521e+88 4.3625968e+88)
(-4.2149774e+90 2.7042776e+88 -2.7753415e+89)
(-4.2253298e+90 -2.5573053e+88 -2.5717294e+89)
(-4.311134e+90 -4.091811e+88 2.7185362e+88)
(-4.3576486e+90 -5.4468302e+88 -1.7280315e+88)
(-4.3608475e+90 4.5489341e+88 -1.015465e+86)
(-4.2677282e+90 -3.6086705e+88 -3.0314971e+89)
(-4.2500206e+90 -8.4763705e+87 -3.2330976e+89)
(-5.1745477e+90 1.4571112e+89 -1.2853473e+89)
(-4.2602937e+90 1.6962649e+87 -3.3257252e+89)
(-4.2697745e+90 -4.8625005e+88 -3.2571272e+89)
(-4.3610043e+90 3.3812204e+88 -3.0969468e+88)
(-5.2456825e+90 -4.934892e+88 -1.0828668e+89)
(-4.3615855e+90 -5.2263285e+88 -3.0646624e+88)
(-4.2078254e+90 3.8929311e+88 -2.9954975e+89)
(-4.209465e+90 -2.9679079e+88 -2.9920816e+89)
(-4.2731023e+90 7.7174422e+88 -1.4111856e+88)
(-4.2607575e+90 8.0471289e+86 -1.4986971e+88)
(-5.05064e+90 1.0557216e+89 -6.7561892e+89)
(-5.0086466e+90 6.4283319e+88 -6.8947413e+89)
(-4.2911052e+90 8.5319576e+88 2.7551328e+88)
(-4.1847863e+90 5.2745039e+88 -3.1056601e+89)
(-4.2084402e+90 -1.2900699e+88 -2.8107189e+89)
(-4.2790933e+90 -1.3485177e+88 7.9345979e+87)
(-4.2435636e+90 -2.6499662e+87 -3.418311e+89)
(-4.2736852e+90 -4.3228829e+88 -3.1339182e+89)
(-4.3561878e+90 -4.6290187e+88 -3.1839816e+88)
(-4.3618481e+90 4.4605231e+88 -1.2960886e+88)
(-5.1120607e+90 1.7160223e+89 -1.5563765e+89)
(-4.2724088e+90 -4.6345526e+88 -3.2665789e+89)
(-4.361987e+90 3.9091483e+88 -2.9962374e+88)
(-4.2664872e+90 1.0183915e+89 -1.1468608e+88)
(-4.2119466e+90 -1.1502416e+88 -2.9363316e+89)
(-4.2558413e+90 2.5896042e+88 -1.2819761e+88)
(-4.8735952e+90 7.2592926e+88 -6.9276318e+89)
(-5.4759442e+90 3.7216704e+89 7.763945e+89)
(-4.705958e+90 2.3194492e+89 -2.646282e+89)
(-5.2744091e+90 2.8292097e+89 -8.298829e+87)
(-5.3048334e+90 3.9981495e+88 -3.0557414e+86)
(-4.6858052e+90 3.0758935e+89 -2.6926077e+89)
(-4.3969882e+90 3.007961e+89 -2.0616774e+89)
(-5.0391362e+90 2.6818099e+89 -8.6337727e+87)
(-4.5339836e+90 1.8132686e+89 6.116964e+89)
(-4.5117209e+90 -3.3536029e+87 5.9431662e+89)
(-4.3856579e+90 4.6646707e+88 2.5210449e+88)
(-4.3414414e+90 9.6393388e+88 -2.9151539e+87)
(-4.4077245e+90 1.3505807e+89 2.2234767e+89)
(-4.3840027e+90 8.4688848e+87 1.9970842e+89)
(-4.2290259e+90 2.351463e+88 -1.7615142e+89)
(-4.1914022e+90 6.9359199e+88 -2.1770983e+89)
(-4.1959356e+90 9.3532955e+88 -2.1505174e+89)
(-4.2165851e+90 3.3153751e+88 -2.0780417e+89)
(-4.3727231e+90 1.3975506e+89 1.8952015e+89)
(-4.3604317e+90 2.8775958e+88 1.8962447e+89)
(-4.3396687e+90 1.1695802e+89 -3.7297686e+87)
(-4.3490536e+90 6.497282e+88 1.1558595e+87)
(-4.4609102e+90 2.1862487e+89 5.5771626e+89)
(-4.4418976e+90 4.7638051e+88 5.5751671e+89)
(-3.565323e+90 8.6937887e+88 5.0232831e+89)
(-3.5772714e+90 1.1354277e+89 4.9617128e+89)
(-3.5853231e+90 1.1631623e+89 5.0876455e+89)
(-3.5730562e+90 8.7448142e+88 4.9058917e+89)
(-3.6080508e+90 1.0258229e+89 5.363784e+89)
(-3.6023484e+90 7.1190233e+88 5.1270623e+89)
(-3.5973173e+90 1.0453688e+89 5.0072342e+89)
(-3.5765779e+90 8.0964084e+88 5.0077981e+89)
(-4.3623574e+90 2.5854873e+88 5.7127082e+89)
(-4.3483552e+90 2.4659212e+87 5.9073757e+89)
(-4.4134414e+90 5.467687e+86 6.2490904e+89)
(-4.3676152e+90 -2.8766584e+88 5.959753e+89)
(-4.3101929e+90 5.6801481e+88 5.6596928e+89)
(-4.3083111e+90 3.5204601e+88 5.5458409e+89)
(-4.3194863e+90 5.9912893e+88 5.8181629e+89)
(-4.3277979e+90 8.5654957e+88 5.679179e+89)
(-3.6339823e+90 8.9154378e+88 5.2721153e+89)
(-3.6149387e+90 6.2814342e+88 5.2535179e+89)
(-3.640797e+90 9.2535665e+88 5.7006819e+89)
(-3.6397205e+90 5.4814948e+88 5.4827379e+89)
(-3.5989369e+90 7.063481e+88 5.1937605e+89)
(-3.6165479e+90 9.5523666e+88 5.1645212e+89)
(-3.6221422e+90 9.1359446e+88 5.2622958e+89)
(-3.6138549e+90 6.4681691e+88 5.0819923e+89)
(-6.0867574e+90 1.7902517e+88 -2.3590775e+89)
(-6.0872524e+90 -7.0084143e+88 -2.5490935e+89)
(-5.9937768e+90 2.0119208e+89 -6.672162e+88)
(-5.0705516e+90 4.9859872e+88 -4.3449737e+89)
(-3.7448317e+90 1.091452e+89 -2.8372155e+89)
(-3.7690883e+90 7.6028888e+88 -3.0883481e+89)
(-3.7189086e+90 1.2976773e+89 -2.6390166e+89)
(-3.7775333e+90 7.7789491e+88 -3.0342218e+89)
(-3.610293e+90 -2.4806543e+88 -7.1000653e+89)
(-1.9908373e+90 1.069792e+89 -5.0577109e+89)
(-1.9754868e+90 1.0831182e+89 -4.9493688e+89)
(-1.8373426e+90 -3.0684523e+88 -2.7367061e+89)
(-1.7713033e+90 1.049029e+89 -2.6878521e+89)
(-1.9936934e+90 1.1316743e+89 -4.9834874e+89)
(-1.9781186e+90 1.1378862e+89 -4.9833565e+89)
(-1.8199685e+90 -2.6240392e+88 -2.5996527e+89)
(-1.7629551e+90 1.0553816e+89 -2.7765838e+89)
(-1.6087275e+90 -7.6576795e+88 3.3539253e+89)
(-1.5117532e+90 7.2110323e+88 3.4109926e+89)
(-1.8859469e+90 1.9877348e+89 7.9883474e+89)
(-1.9889583e+90 -9.0814951e+88 8.2248921e+89)
(-1.9591201e+90 -5.4698641e+88 8.2925891e+89)
(-1.8699582e+90 1.9818335e+89 8.199739e+89)
(-1.6041889e+90 -6.3871286e+88 3.5097533e+89)
(-1.5050166e+90 6.0640951e+88 3.129676e+89)
(-3.6089655e+90 -3.0328557e+88 -7.0585329e+89)
(-3.6214531e+90 -2.8539571e+88 -7.2547105e+89)
(-1.9762573e+90 1.1554968e+89 -5.0007557e+89)
(-1.9552985e+90 1.1695172e+89 -4.8964181e+89)
(-1.8019993e+90 -2.6182636e+88 -2.7188778e+89)
(-1.7420373e+90 1.086316e+89 -2.6886722e+89)
(-1.5831943e+90 -5.0519554e+88 3.2650223e+89)
(-1.9324873e+90 -4.4051083e+88 7.9635046e+89)
(-1.603223e+90 -8.6148778e+88 3.4288279e+89)
(-1.9665311e+90 -8.1956322e+88 8.0616197e+89)
(-1.5151547e+90 6.5784478e+88 3.4649615e+89)
(-1.860151e+90 2.0591089e+89 7.7870708e+89)
(-4.9359434e+90 -3.8323008e+88 -5.3274633e+89)
(-4.9711231e+90 -5.4462944e+87 5.8255652e+88)
(-4.9218222e+90 9.5663614e+88 8.5497155e+88)
(-4.9090437e+90 -1.5870994e+88 -5.1490738e+89)
(-5.083999e+90 1.8667134e+88 -4.5483246e+89)
(-3.8049183e+90 4.6140402e+88 -3.2393485e+89)
(-3.762297e+90 7.7642301e+88 -3.0805081e+89)
(-5.0800425e+90 2.2859641e+89 -3.4143414e+89)
(-5.1269622e+90 4.2575233e+88 -3.460478e+89)
(-5.0731876e+90 2.1822639e+88 -4.3903221e+89)
(-3.7718705e+90 6.052858e+88 -3.0379375e+89)
(-3.7494952e+90 9.6699039e+88 -2.870516e+89)
(-5.0299996e+90 1.9496012e+88 4.9349362e+88)
(-4.9807306e+90 -5.7840407e+88 4.6216348e+88)
(-4.9216985e+90 -1.1212956e+89 -5.3525026e+89)
(-4.924356e+90 -9.512701e+88 -5.3723402e+89)
(-3.0322513e+90 -1.5460714e+89 -3.3027241e+89)
(-3.639387e+90 -4.142069e+88 -5.9566032e+89)
(-3.5972369e+90 -1.8349068e+88 -5.9511057e+89)
(-3.0036421e+90 1.2141723e+87 -3.2688781e+89)
(-3.0467028e+90 -1.1632587e+89 -3.2489896e+89)
(-3.6376079e+90 -4.8674443e+87 -6.0490561e+89)
(-3.5908932e+90 1.1352041e+88 -6.0252069e+89)
(-3.0106686e+90 3.3084747e+88 -3.359748e+89)
(-2.5412049e+90 -2.3712678e+89 -2.9622004e+89)
(-2.4711336e+90 -5.4078694e+88 -2.773409e+89)
(-2.3539835e+90 -3.589799e+89 7.4201467e+89)
(-2.3697247e+90 5.4639405e+87 8.3753581e+89)
(-2.5239906e+90 -1.9203379e+89 -3.0366276e+89)
(-2.4664105e+90 -1.1967695e+88 -2.8791464e+89)
(-2.4489284e+90 -3.4651406e+89 8.5982835e+89)
(-2.3994928e+90 6.4405047e+88 8.9051314e+89)
(-3.0493023e+90 -9.2795597e+88 -3.3600673e+89)
(-3.6436178e+90 2.2960256e+88 -6.0551775e+89)
(-3.5964523e+90 4.3857526e+88 -5.9240041e+89)
(-3.0071257e+90 6.306601e+88 -3.2770377e+89)
(-3.012699e+90 -6.1267704e+88 -3.1545565e+89)
(-3.6091854e+90 4.8473442e+88 -6.0119861e+89)
(-3.5722418e+90 6.8909955e+88 -5.8812365e+89)
(-2.9912113e+90 9.1832144e+88 -3.2100708e+89)
(-2.5285619e+90 -1.6148678e+89 -3.0518132e+89)
(-2.4443857e+90 3.4040567e+88 -2.7557843e+89)
(-2.4148198e+90 -2.9192344e+89 8.40221e+89)
(-2.3134511e+90 1.3340448e+89 8.5260966e+89)
(-2.4586498e+90 7.7706982e+88 -2.7307431e+89)
(-2.3910312e+90 -2.2276404e+89 8.6949769e+89)
(-2.4768205e+90 -1.083269e+89 -2.8316175e+89)
(-2.3970162e+90 2.0620621e+89 9.030741e+89)
(-3.6345205e+90 -2.7936332e+88 -7.505372e+89)
(-3.627004e+90 -2.9319168e+88 -7.282413e+89)
(-2.0065153e+90 7.9796842e+88 -5.2778059e+89)
(-1.9914108e+90 8.1780299e+88 -5.1688594e+89)
(-1.8740888e+90 -3.5447104e+88 -2.8460523e+89)
(-1.8185428e+90 9.845951e+88 -2.7431957e+89)
(-2.0167501e+90 9.3691102e+88 -5.1561505e+89)
(-1.9987257e+90 9.2583961e+88 -5.1717971e+89)
(-1.8545293e+90 -1.9367598e+88 -2.6460918e+89)
(-1.8001148e+90 1.0736167e+89 -2.7765437e+89)
(-1.9877508e+90 -7.454046e+88 8.2657877e+89)
(-1.8961757e+90 2.0395865e+89 8.1583518e+89)
(-1.5895336e+90 -4.5057253e+88 2.7669355e+89)
(-1.5113152e+90 9.4715491e+88 2.8727487e+89)
(-1.9508817e+90 -4.9874277e+88 8.4060134e+89)
(-1.8686812e+90 2.0021187e+89 8.2406488e+89)
(-1.5764747e+90 -2.5653052e+88 3.0107768e+89)
(-1.4923712e+90 9.0677136e+88 2.7104711e+89)
(-3.6122344e+90 -2.9624458e+88 -7.1783987e+89)
(-3.6282632e+90 -2.3998202e+88 -7.2512233e+89)
(-1.9972189e+90 1.026629e+89 -5.0985745e+89)
(-1.978503e+90 1.0295174e+89 -4.9780386e+89)
(-1.8377764e+90 -2.0780125e+88 -2.6746262e+89)
(-1.7763594e+90 1.0997756e+89 -2.5996989e+89)
(-2.0004232e+90 1.0417004e+89 -5.0668311e+89)
(-1.9791493e+90 1.0094845e+89 -5.055949e+89)
(-1.8227076e+90 -1.8152166e+88 -2.5739598e+89)
(-1.7765708e+90 1.0570968e+89 -2.7315474e+89)
(-1.5823332e+90 -5.4097136e+88 3.1575908e+89)
(-1.9677629e+90 -8.3241217e+88 8.2674575e+89)
(-1.4944808e+90 9.0519868e+88 3.2425133e+89)
(-1.8599128e+90 2.1046326e+89 8.0473308e+89)
(-1.5725335e+90 -4.0436099e+88 3.2642251e+89)
(-1.511728e+90 7.429281e+88 3.0930624e+89)
(-1.9310072e+90 -5.4176426e+88 8.3363773e+89)
(-1.8989668e+90 1.8400586e+89 8.5272264e+89)
(-3.0936035e+90 -5.5938655e+88 7.5866764e+89)
(-3.0164021e+90 7.2981939e+88 7.3719885e+89)
(-3.649478e+90 6.5303773e+88 8.2925215e+89)
(-3.6790489e+90 6.9287436e+88 8.4936726e+89)
(-3.0434128e+90 -2.9818035e+88 7.2905734e+89)
(-3.6527458e+90 7.5535804e+88 8.3221806e+89)
(-3.0536058e+90 7.2129391e+88 7.626592e+89)
(-3.6284154e+90 5.5047664e+88 8.3573416e+89)
(-3.0801933e+90 -9.6262601e+88 7.6309251e+89)
(-3.0226554e+90 3.9372052e+88 7.4602857e+89)
(-3.6375966e+90 3.8111143e+88 8.2615936e+89)
(-3.6270701e+90 4.0816409e+88 8.1829475e+89)
(-3.6511483e+90 6.3271857e+88 8.1917474e+89)
(-3.0330368e+90 -5.9714722e+88 7.2578965e+89)
(-3.0196778e+90 4.942375e+88 7.5075303e+89)
(-3.6239105e+90 4.8087229e+88 8.2413401e+89)
(-2.4889183e+90 9.2553803e+88 7.9968767e+89)
(-2.479607e+90 -2.892538e+88 8.0844499e+89)
(-3.19152e+90 5.7528374e+88 7.7516918e+89)
(-3.1830338e+90 5.8377516e+88 7.4750166e+89)
(-2.4593734e+90 1.0178226e+89 8.118315e+89)
(-2.4666727e+90 -1.7687794e+88 7.9481159e+89)
(-3.197189e+90 6.0593461e+88 7.5732685e+89)
(-3.178613e+90 6.0392992e+88 7.3294389e+89)
(-2.4668928e+90 1.0269636e+89 8.027803e+89)
(-2.4727693e+90 -2.8109505e+88 8.1134141e+89)
(-3.2070707e+90 5.914209e+88 7.5955974e+89)
(-3.1997463e+90 6.2928797e+88 7.4794805e+89)
(-2.4444459e+90 9.6395549e+88 8.1708938e+89)
(-2.4407121e+90 -1.6227714e+88 7.933349e+89)
(-3.1732723e+90 7.1606635e+88 7.3060531e+89)
(-3.1604749e+90 5.7877158e+88 7.2904947e+89)
(-2.4514024e+90 9.9547437e+88 7.8983662e+89)
(-2.4533788e+90 -3.340181e+88 8.0218559e+89)
(-3.1829997e+90 5.9706998e+88 7.3671259e+89)
(-3.183518e+90 5.8095515e+88 7.4368338e+89)
(-2.4182343e+90 1.0858051e+89 7.9883639e+89)
(-2.4304708e+90 -1.3821539e+88 7.797175e+89)
(-3.1807031e+90 7.1574071e+88 7.1988807e+89)
(-3.1614327e+90 6.8403789e+88 7.1312954e+89)
(-3.1955242e+90 6.3887103e+88 7.5226686e+89)
(-2.4535152e+90 -2.4087828e+88 8.006431e+89)
(-2.4474239e+90 9.7804591e+88 7.9563275e+89)
(-3.1877933e+90 6.1481379e+88 7.4237577e+89)
(-2.4409585e+90 9.2586372e+88 8.0747084e+89)
(-2.4365821e+90 -1.8540655e+88 7.8640996e+89)
(-3.1656914e+90 7.0437641e+88 7.2524533e+89)
(-3.1516255e+90 6.135742e+88 7.2396226e+89)
(-2.4214702e+90 1.0403688e+89 7.7919227e+89)
(-2.4496732e+90 -2.4128729e+88 7.9338264e+89)
(-3.1717288e+90 6.0611174e+88 7.5898638e+89)
(-3.1498707e+90 6.6630617e+88 7.2504904e+89)
(-2.442325e+90 1.1013575e+89 7.9172934e+89)
(-2.43472e+90 -6.6840742e+87 7.7032019e+89)
(-3.1643551e+90 7.2091234e+88 7.1876462e+89)
(-3.1597391e+90 6.2704462e+88 7.3006739e+89)
(-2.4466221e+90 -1.9229533e+88 7.8845014e+89)
(-3.1696703e+90 7.4918537e+88 7.250227e+89)
(-2.4198648e+90 1.1454622e+89 7.7802625e+89)
(-3.1653963e+90 7.0648077e+88 7.3018024e+89)
(-3.1435201e+90 8.1343525e+88 7.124678e+89)
(-2.4194386e+90 -6.8346132e+87 7.6996476e+89)
(-2.4219351e+90 1.1005925e+89 7.9590716e+89)
(-3.1282826e+90 7.490477e+88 7.1152037e+89)
(-2.402981e+90 1.0505597e+89 7.6533229e+89)
(-2.438683e+90 -1.9700547e+88 7.8501877e+89)
(-3.161148e+90 8.0724169e+88 7.2592773e+89)
(-3.1461334e+90 8.0872505e+88 7.1202196e+89)
(-3.1563947e+90 8.3267905e+88 7.0226163e+89)
(-2.4103169e+90 2.000893e+87 7.5144823e+89)
(-2.42933e+90 1.1920305e+89 7.7485863e+89)
(-3.1504759e+90 7.5775582e+88 7.1387867e+89)
(-2.3986841e+90 1.0558631e+89 7.6384947e+89)
(-2.4245934e+90 -1.2575466e+88 7.7123329e+89)
(-3.1627512e+90 8.029648e+88 7.1926327e+89)
(-3.1473279e+90 7.7336244e+88 7.055332e+89)
(-2.4330073e+90 9.2541592e+88 7.8181261e+89)
(-2.4185419e+90 -1.2897638e+88 7.5963533e+89)
(-3.1400198e+90 7.2643162e+88 7.0835895e+89)
(-3.1286083e+90 6.8001382e+88 7.0773276e+89)
(-3.0882374e+90 -1.0325992e+89 7.336467e+89)
(-3.0648693e+90 3.7938037e+87 7.6023079e+89)
(-3.6950007e+90 1.3032644e+88 8.2341543e+89)
(-3.6640206e+90 -1.9133663e+87 8.297781e+89)
(-3.121305e+90 -1.1024345e+89 7.6371723e+89)
(-3.0604398e+90 -9.9240649e+86 7.5890255e+89)
(-3.7038359e+90 1.6603071e+87 8.4842944e+89)
(-3.6907483e+90 -8.7778632e+87 8.4604062e+89)
(-3.7053063e+90 1.7715511e+88 8.3921824e+89)
(-3.111167e+90 -1.1236477e+89 7.5908836e+89)
(-3.0233894e+90 1.6844875e+88 7.3993904e+89)
(-3.6687024e+90 2.1406006e+88 8.2148858e+89)
(-3.0649054e+90 -8.6681007e+88 7.3968654e+89)
(-3.045467e+90 8.979542e+87 7.7459571e+89)
(-3.6828418e+90 3.514477e+88 8.394305e+89)
(-3.6452841e+90 1.0105895e+88 8.4023934e+89)
(-4.2410078e+90 2.3095222e+88 -2.7993482e+89)
(-4.2451782e+90 -4.3742615e+88 -2.8028369e+89)
(-4.3152691e+90 -2.7224435e+88 1.4070897e+88)
(-4.3282429e+90 6.3360552e+88 1.1623415e+88)
(-4.3752148e+90 -5.6529131e+88 -3.0154267e+88)
(-4.3823567e+90 2.1705488e+88 -3.0679155e+88)
(-4.2838968e+90 -5.5372389e+88 -3.2362716e+89)
(-4.2738849e+90 1.9232378e+87 -3.2983515e+89)
(-5.2250855e+90 -5.0336578e+88 -1.2161191e+89)
(-4.3612763e+90 1.7626419e+88 -1.869244e+88)
(-4.2510668e+90 -1.9686294e+88 -3.3635711e+89)
(-4.2473987e+90 -6.3920377e+88 -3.1962633e+89)
(-4.3615426e+90 -7.0072419e+88 -3.4605138e+88)
(-5.1643367e+90 1.1917813e+89 -1.6265056e+89)
(-4.1932518e+90 1.8170021e+88 -3.0763911e+89)
(-4.2133989e+90 -4.820031e+88 -2.7609484e+89)
(-4.2752228e+90 4.6998725e+88 -1.8221544e+87)
(-4.266894e+90 -3.9181105e+88 -1.8246426e+88)
(-4.9123789e+90 2.5502434e+88 -7.1309281e+89)
(-5.062009e+90 1.1268754e+89 -6.8335291e+89)
(-4.2206267e+90 -1.1208423e+88 -2.5744743e+89)
(-4.3236356e+90 -8.451009e+88 3.6585918e+88)
(-4.3698905e+90 -8.6531791e+88 -7.3102845e+87)
(-4.2525292e+90 -3.2574568e+88 -3.1048971e+89)
(-4.2745369e+90 -7.4752306e+88 -3.181295e+89)
(-4.3596924e+90 6.9588426e+86 -2.2975384e+88)
(-5.2574102e+90 -8.6757062e+88 -1.0858997e+89)
(-4.2271375e+90 -1.38234e+88 -3.596537e+89)
(-4.3228719e+90 -7.7165791e+88 -3.379305e+88)
(-5.0664073e+90 6.8115616e+88 -6.7353099e+89)
(-4.1845386e+90 1.0658466e+88 -2.9551776e+89)
(-4.2580881e+90 -4.1616715e+88 -1.4309649e+88)
(-4.1992677e+90 -6.5962165e+88 -2.9070243e+89)
(-4.2731074e+90 3.188792e+88 -1.1321463e+88)
(-4.5763912e+90 7.7583079e+88 6.4333395e+89)
(-4.4024967e+90 -1.4957027e+86 4.21745e+88)
(-4.5391963e+90 -1.0639609e+89 6.0868096e+89)
(-4.3906047e+90 2.2504928e+88 1.9086624e+88)
(-4.3940768e+90 -2.7163256e+88 1.3500705e+88)
(-4.5278608e+90 -7.4255939e+88 6.0245553e+89)
(-4.5474018e+90 1.0080029e+89 5.9447629e+89)
(-4.4074424e+90 5.3849983e+88 1.9356638e+89)
(-4.2241754e+90 -3.7501757e+88 -2.06841e+89)
(-4.3896785e+90 -5.9337032e+88 1.9657676e+89)
(-4.2109825e+90 1.9165898e+88 -2.0659747e+89)
(-4.2446593e+90 -1.4736419e+88 -1.756954e+89)
(-4.4170859e+90 -8.5565761e+88 2.2651263e+89)
(-4.2035394e+90 -1.4408736e+88 -2.0721119e+89)
(-4.2089151e+90 3.6620994e+88 -2.2018992e+89)
(-4.3954942e+90 -3.1354639e+88 1.9159949e+89)
(-4.3958935e+90 8.6336809e+88 1.9841346e+89)
(-4.3767734e+90 5.3160377e+88 9.9947863e+86)
(-4.3706807e+90 2.0995707e+87 8.4219534e+87)
(-4.5127803e+90 1.326068e+89 5.8645948e+89)
(-4.5089751e+90 -4.4385828e+88 5.7817413e+89)
(-4.4217527e+90 1.0241683e+89 2.0251047e+89)
(-4.2543782e+90 5.952029e+87 -1.9873229e+89)
(-4.2406799e+90 4.7963955e+88 -1.9804406e+89)
(-4.4023707e+90 -2.1036018e+88 2.0549371e+89)
(-4.3995607e+90 6.9264581e+88 1.8429277e+88)
(-4.4115568e+90 2.0303656e+88 2.2296957e+88)
(-4.5238064e+90 1.6644855e+89 5.8710677e+89)
(-4.4926435e+90 -5.4012126e+87 5.8378627e+89)
(-4.4390667e+90 2.553773e+89 -2.2398792e+89)
(-5.0862385e+90 2.2668102e+89 -3.28458e+88)
(-5.1479448e+90 5.0649109e+88 2.7875073e+87)
(-4.4536458e+90 3.2813759e+89 -2.2620224e+89)
(-3.5995611e+90 4.7242211e+88 -4.1109132e+88)
(-3.5805734e+90 7.4773075e+88 -4.533063e+88)
(-3.73404e+90 1.0919555e+89 2.9818812e+89)