/*--------------------------------*- C++ -*----------------------------------*\
  =========                 |
  \\      /  F ield         | OpenFOAM: The Open Source CFD Toolbox
   \\    /   O peration     | Website:  https://openfoam.org
    \\  /    A nd           | Version:  7
     \\/     M anipulation  |
\*---------------------------------------------------------------------------*/
FoamFile
{
    version     2.0;
    format      ascii;
    class       volVectorField;
    location    "2000";
    object      UMean;
}
// * * * * * * * * * * * * * * * * * * * * * * * * * * * * * * * * * * * * * //

dimensions      [0 1 -1 0 0 0 0];

internalField   nonuniform List<vector> 
34377
(
(-2.7713309e+88 1.7701936e+87 2.3588693e+87)
(-2.4522732e+88 1.5726061e+87 -2.8630475e+86)
(-2.5461567e+88 4.0947611e+86 3.2779846e+87)
(-2.5250501e+88 1.2275892e+87 3.0886473e+87)
(-2.8172006e+88 4.9501237e+86 2.7813983e+87)
(-2.7773615e+88 1.3268712e+87 2.1539133e+87)
(-2.7877023e+88 2.7115112e+86 2.5962803e+87)
(-3.55793e+88 6.5445887e+86 4.2484516e+86)
(-2.7244599e+88 1.4453505e+86 1.7399059e+87)
(-2.7470146e+88 4.7494844e+86 1.8831892e+87)
(-2.4804778e+88 7.6078674e+86 -2.901084e+87)
(-1.951457e+88 1.5374057e+87 -3.5958932e+86)
(-2.4660802e+88 -1.4730559e+86 -2.9346719e+87)
(-2.4120338e+88 8.6544295e+86 -4.9927492e+86)
(-1.9538369e+88 -5.802345e+85 -3.2607566e+86)
(-2.4947237e+88 1.0371802e+87 2.9237075e+87)
(-2.6551755e+88 5.2497279e+86 3.1057634e+87)
(-2.1571519e+88 3.2550905e+86 2.6521375e+87)
(-2.1559334e+88 5.4050157e+86 2.5147261e+87)
(-2.6674549e+88 4.3687172e+85 3.0295245e+87)
(-2.1437451e+88 4.1233051e+86 2.4400409e+87)
(-2.1305205e+88 6.277404e+86 2.4159235e+87)
(-2.6220997e+88 3.9046748e+85 2.8136743e+87)
(-2.6380641e+88 5.558166e+86 2.8373151e+87)
(-2.7700304e+88 1.0385698e+86 2.393095e+87)
(-2.5398426e+88 2.2929234e+86 3.1402686e+87)
(-2.7692376e+88 4.3685615e+86 2.5052859e+87)
(-3.5605968e+88 5.4421887e+86 3.9642966e+86)
(-2.9059781e+88 5.348613e+86 1.0043726e+87)
(-2.7863287e+88 3.9049591e+86 -6.5708775e+86)
(-2.7778369e+88 1.7310977e+86 -6.9423213e+86)
(-3.4862075e+88 5.6833997e+86 -6.9069107e+86)
(-2.3622276e+88 3.9434277e+86 -3.8246868e+86)
(-2.3428533e+88 2.5702807e+86 -3.8717903e+86)
(-2.3053906e+88 2.9111856e+86 -3.2226095e+86)
(-2.3512457e+88 4.630376e+86 -3.2187438e+86)
(-2.8971404e+88 9.2968929e+85 9.1586381e+86)
(-2.4842764e+88 2.4184759e+85 1.8311021e+87)
(-2.4926323e+88 5.204643e+86 1.7869143e+87)
(-2.7294543e+88 4.6016483e+86 1.7781878e+87)
(-2.7222591e+88 2.2699869e+85 1.6584543e+87)
(-2.5094233e+88 4.8068156e+86 1.9804455e+87)
(-2.5074194e+88 2.4913249e+85 1.8691802e+87)
(-2.3098448e+88 4.3871546e+85 -2.6547452e+87)
(-2.404279e+88 1.3685482e+86 -2.4412066e+87)
(-2.4057787e+88 -1.6860567e+86 -2.4150538e+87)
(-2.3071181e+88 1.5027754e+86 -2.658739e+87)
(-1.8800866e+88 4.1481079e+86 -3.4944613e+87)
(-1.4298791e+88 9.6431504e+84 -3.9035032e+85)
(-1.8799858e+88 6.7027606e+85 -3.5134687e+87)
(-1.4124011e+88 1.0167702e+87 -1.3017511e+86)
(-2.4577812e+88 5.8448374e+86 -2.9292003e+87)
(-2.2990023e+88 1.0201401e+86 -2.7746213e+87)
(-2.401726e+88 2.0448802e+86 -2.4899292e+87)
(-2.4157349e+88 -1.7291914e+86 -2.5166358e+87)
(-2.3000125e+88 1.4336205e+86 -2.7437706e+87)
(-2.4621907e+88 -1.2714226e+86 -2.9909033e+87)
(-1.9629792e+88 -1.4928759e+86 -4.541969e+86)
(-1.9347696e+88 1.3290942e+87 -5.3657166e+86)
(-1.8711958e+88 1.123066e+86 -3.5804301e+87)
(-1.4397496e+88 2.0205939e+85 2.5919677e+85)
(-1.8708464e+88 3.7600364e+86 -3.5501292e+87)
(-1.4285616e+88 9.0684437e+86 -4.2536406e+85)
(-2.135139e+88 5.2446515e+86 2.440138e+87)
(-2.1198293e+88 3.6497569e+86 2.3065628e+87)
(-2.6074069e+88 5.0832771e+86 2.6431988e+87)
(-2.6190315e+88 -7.7050996e+85 2.7605798e+87)
(-1.8188913e+88 2.0738326e+86 2.1214872e+87)
(-1.8062372e+88 3.3016382e+86 1.9354142e+87)
(-2.3155682e+88 4.8075713e+86 2.6858151e+87)
(-2.3208778e+88 1.2574576e+86 2.6026214e+87)
(-2.3245843e+88 3.8099881e+86 2.5184983e+87)
(-1.7982939e+88 2.8291606e+86 1.8640506e+87)
(-1.8015279e+88 3.4195387e+86 1.9302206e+87)
(-2.3236505e+88 2.5629425e+85 2.5417191e+87)
(-1.8029527e+88 2.4543145e+86 1.9881844e+87)
(-2.3251823e+88 4.9134909e+86 2.5427998e+87)
(-1.7951458e+88 3.7627003e+86 1.8555875e+87)
(-2.3261226e+88 1.9510638e+86 2.4741485e+87)
(-1.793418e+88 3.4541393e+86 1.8223251e+87)
(-2.3053505e+88 4.3999144e+86 2.4241263e+87)
(-1.8068481e+88 3.7916407e+86 1.9950015e+87)
(-2.3049001e+88 4.242972e+85 2.5290095e+87)
(-2.6251001e+88 5.2615212e+86 2.8968603e+87)
(-2.1501991e+88 2.2509715e+86 2.5607666e+87)
(-2.1285933e+88 4.5271106e+86 2.3555708e+87)
(-2.6296686e+88 4.0460583e+85 2.7966375e+87)
(-2.7634242e+88 1.452652e+86 -8.0043604e+86)
(-2.7932485e+88 3.5228761e+86 -6.7365937e+86)
(-2.8836924e+88 4.9009001e+86 9.0110565e+86)
(-2.8923426e+88 2.8980161e+85 8.1554324e+86)
(-3.4852581e+88 5.1689261e+86 -6.6501526e+86)
(-2.3446464e+88 2.1677536e+86 -4.5495193e+86)
(-2.3668369e+88 3.849719e+86 -4.5442883e+86)
(-2.3599359e+88 3.6706697e+86 -4.3401018e+86)
(-2.3068003e+88 1.8394973e+86 -3.68104e+86)
(-2.6387358e+88 4.7384507e+86 1.5848652e+87)
(-2.641752e+88 4.9243609e+85 1.524668e+87)
(-2.5434899e+88 1.1843509e+86 5.3458614e+85)
(-2.539558e+88 3.5771954e+86 9.2496145e+85)
(-2.5733111e+88 3.8891317e+86 -3.972188e+86)
(-2.4975587e+88 3.2800656e+86 -1.0196937e+87)
(-2.5208451e+88 8.2782056e+85 -1.0048369e+87)
(-2.5808435e+88 9.4089101e+85 -4.3371146e+86)
(-2.8399416e+88 5.0663244e+86 -5.5136956e+86)
(-2.5727385e+88 3.0321798e+86 -5.1156999e+86)
(-2.4964062e+88 2.0159899e+86 -1.1730223e+87)
(-2.5047463e+88 6.5771704e+85 -1.0517581e+87)
(-2.575899e+88 4.397372e+85 -4.1722852e+86)
(-2.838698e+88 8.9948208e+85 -5.8847024e+86)
(-2.6189394e+88 3.3499573e+86 -1.5742031e+87)
(-2.5877321e+88 2.1848382e+86 -1.6010941e+87)
(-2.3537959e+88 1.1781991e+86 -2.358389e+86)
(-2.3536183e+88 3.3413072e+86 -9.3963539e+86)
(-2.323407e+88 2.4688343e+86 -8.6705795e+86)
(-2.3646452e+88 3.9902619e+86 -2.4775421e+86)
(-2.6240599e+88 4.5718017e+86 1.4129743e+87)
(-2.5335936e+88 3.551113e+86 3.776546e+84)
(-2.5358755e+88 8.3889306e+85 8.6550955e+85)
(-2.6100532e+88 1.8741391e+85 1.4344266e+87)
(-2.1789404e+88 7.676746e+85 1.7287916e+87)
(-2.1813538e+88 4.7962392e+86 1.6426974e+87)
(-2.1894945e+88 4.4076358e+86 1.6629263e+87)
(-2.1899924e+88 1.4616721e+86 1.6033398e+87)
(-2.4822052e+88 1.7980712e+84 1.7961182e+87)
(-2.4812333e+88 4.7852545e+86 1.8744478e+87)
(-2.4732381e+88 4.5645635e+86 1.6843892e+87)
(-2.4864222e+88 -3.6793446e+85 1.8267917e+87)
(-2.1887715e+88 6.1675002e+85 1.7166232e+87)
(-2.1882779e+88 4.3991929e+86 1.8109573e+87)
(-2.1914166e+88 4.6140234e+85 1.67529e+87)
(-2.1989997e+88 3.9946043e+86 1.6637042e+87)
(-2.8600482e+88 1.7709989e+86 -2.4496009e+87)
(-2.852961e+88 1.3627986e+86 -2.4285486e+87)
(-2.4545337e+88 1.540157e+86 -3.1122908e+87)
(-2.3575671e+88 1.7209009e+86 -1.9248768e+87)
(-2.3524607e+88 -1.7497443e+86 -1.9109145e+87)
(-2.4483131e+88 5.8879529e+85 -3.0733674e+87)
(-1.9817988e+88 1.9222829e+86 -3.2089986e+87)
(-1.6654916e+88 1.641708e+86 -3.7266603e+87)
(-1.6590587e+88 1.4129536e+86 -3.7426569e+87)
(-1.9742313e+88 -2.7905219e+85 -3.1776854e+87)
(-1.1471198e+88 1.580626e+86 -3.4124534e+87)
(-1.1512183e+88 2.6229116e+86 -3.405771e+87)
(-1.0017211e+88 -1.5373462e+85 6.9176237e+86)
(-1.0025465e+88 5.9834641e+86 7.0702305e+86)
(-1.9789154e+88 -1.6114535e+85 -3.204795e+87)
(-1.9720523e+88 2.3218014e+86 -3.2052731e+87)
(-1.6684834e+88 1.2370258e+86 -3.7629859e+87)
(-1.6666704e+88 1.736337e+86 -3.7907557e+87)
(-1.1467309e+88 1.5353681e+86 -3.3645617e+87)
(-9.9598633e+87 6.5127511e+86 6.2619977e+86)
(-9.9681588e+87 5.2096091e+85 6.8535695e+86)
(-2.3073819e+88 4.6965811e+85 -2.7250552e+87)
(-2.4155095e+88 9.4875279e+85 -2.4425132e+87)
(-2.4131709e+88 -2.3719358e+86 -2.4268168e+87)
(-2.2923528e+88 1.3831975e+86 -2.7438127e+87)
(-2.4408344e+88 2.1761504e+86 -3.1899887e+87)
(-2.3584218e+88 2.309651e+86 -1.9854584e+87)
(-2.3829307e+88 -1.7146061e+86 -1.9941004e+87)
(-2.4417663e+88 6.1900368e+85 -3.1425617e+87)
(-2.4205217e+88 -1.6732463e+86 -2.5062713e+87)
(-2.4022592e+88 2.4950432e+86 -2.4707669e+87)
(-2.298528e+88 1.1227548e+86 -2.8022883e+87)
(-2.3031726e+88 1.489087e+86 -2.8143529e+87)
(-1.8755674e+88 1.4329319e+86 -3.6107216e+87)
(-1.8759302e+88 4.1447103e+86 -3.6176355e+87)
(-1.4309114e+88 -4.1053731e+85 -7.7556451e+85)
(-1.4229192e+88 8.4650541e+86 -1.5140535e+86)
(-1.881032e+88 1.1833089e+86 -3.5961647e+87)
(-1.8634224e+88 4.1612666e+86 -3.5641298e+87)
(-1.4368732e+88 2.6371132e+85 -9.7234528e+85)
(-1.4228988e+88 9.5707034e+86 -1.0360174e+86)
(-1.9683264e+88 1.4326364e+85 -3.2737838e+87)
(-1.9613198e+88 2.6080469e+86 -3.2604558e+87)
(-1.6619818e+88 2.1387048e+86 -3.8503987e+87)
(-1.6660482e+88 1.544418e+86 -3.8166104e+87)
(-1.1497047e+88 2.014704e+86 -3.4621858e+87)
(-1.1518324e+88 2.7345748e+86 -3.4558673e+87)
(-1.0204708e+88 -3.2211807e+85 8.0645591e+86)
(-1.0085469e+88 5.6691405e+86 7.3451942e+86)
(-1.964899e+88 -3.0790526e+85 -3.2300136e+87)
(-1.9638917e+88 2.1020246e+86 -3.2155725e+87)
(-1.662518e+88 1.2591255e+86 -3.8160802e+87)
(-1.6622131e+88 1.791403e+86 -3.7753469e+87)
(-1.1471603e+88 1.5806595e+86 -3.41151e+87)
(-1.1418751e+88 2.6424241e+86 -3.4521252e+87)
(-1.0043737e+88 9.6835761e+84 6.9209193e+86)
(-9.8984481e+87 6.1388984e+86 5.9291326e+86)
(-1.8065836e+88 3.0279592e+86 1.9140727e+87)
(-1.8087546e+88 3.1974998e+86 1.9917313e+87)
(-2.3051436e+88 2.2728383e+84 2.524958e+87)
(-2.3102411e+88 4.0185546e+86 2.4629774e+87)
(-1.7792799e+88 2.1516868e+86 1.8328007e+87)
(-1.7864458e+88 3.2401123e+86 1.7869039e+87)
(-2.2866465e+88 4.71051e+86 2.3163889e+87)
(-2.2968718e+88 1.3539488e+86 2.3150241e+87)
(-1.5848641e+88 1.0069894e+86 2.0530175e+87)
(-1.5788018e+88 1.8870193e+86 1.9433831e+87)
(-2.0001489e+88 1.5394784e+86 2.4587095e+87)
(-1.9969438e+88 3.7614003e+86 2.5009072e+87)
(-1.5762342e+88 1.6416341e+86 1.9124043e+87)
(-1.5654591e+88 2.7286992e+86 1.9111136e+87)
(-1.9949622e+88 9.7456693e+85 2.379854e+87)
(-2.0016751e+88 2.8683175e+86 2.3747269e+87)
(-1.568585e+88 1.6162996e+86 1.9260741e+87)
(-1.5613624e+88 2.4417556e+86 1.8313907e+87)
(-2.0001471e+88 1.5929564e+86 2.3133977e+87)
(-1.9991916e+88 3.7169388e+86 2.3541981e+87)
(-1.5719563e+88 2.0586508e+86 1.9071258e+87)
(-1.5662503e+88 2.396286e+86 1.9472477e+87)
(-2.0026117e+88 2.7460102e+86 2.3596389e+87)
(-1.995729e+88 5.7953539e+85 2.387115e+87)
(-1.9961156e+88 3.7244181e+86 2.4077886e+87)
(-1.5670855e+88 1.409175e+86 1.9918316e+87)
(-1.5643872e+88 2.2670319e+86 1.9034901e+87)
(-1.9989459e+88 1.7695062e+86 2.365986e+87)
(-1.5609024e+88 2.1039045e+86 1.8781463e+87)
(-1.5558155e+88 3.322939e+86 1.8866818e+87)
(-1.9920635e+88 1.5440468e+86 2.3146564e+87)
(-1.9988185e+88 3.2573857e+86 2.3082146e+87)
(-1.563197e+88 2.2997049e+86 1.9019798e+87)
(-1.5660599e+88 3.0624384e+86 1.8499999e+87)
(-1.9948345e+88 4.2435983e+86 2.3190132e+87)
(-1.9978784e+88 2.2023847e+86 2.2927602e+87)
(-1.9963808e+88 3.2813837e+86 2.3706547e+87)
(-1.567786e+88 2.8321262e+86 1.8969587e+87)
(-1.5703018e+88 3.070042e+86 1.9719495e+87)
(-1.9920382e+88 9.9205458e+85 2.4175217e+87)
(-1.7944383e+88 2.4538141e+86 1.8422825e+87)
(-2.3089353e+88 1.0775997e+86 2.4550355e+87)
(-2.3185683e+88 4.4055954e+86 2.6546066e+87)
(-1.8130014e+88 1.3919282e+86 2.097362e+87)
(-1.8016214e+88 2.3785743e+86 1.8732795e+87)
(-1.788531e+88 2.9454891e+86 1.8881244e+87)
(-2.3080415e+88 2.4527815e+85 2.4299995e+87)
(-2.3145715e+88 3.8485137e+86 2.4125648e+87)
(-2.5817617e+88 1.1165123e+86 -4.7518819e+86)
(-2.5123065e+88 1.7081521e+86 -1.0894924e+87)
(-2.494556e+88 1.7427383e+86 -1.2681293e+87)
(-2.5572213e+88 2.552317e+86 -6.4665104e+86)
(-2.8150037e+88 8.5525169e+85 -7.4275753e+86)
(-2.5699616e+88 3.555884e+86 -3.7071118e+86)
(-2.4891158e+88 2.7017903e+86 -1.045014e+87)
(-2.5074464e+88 1.1211354e+86 -1.0366097e+87)
(-2.8373078e+88 4.9183644e+86 -5.545034e+86)
(-2.5675485e+88 9.5002407e+85 -4.589303e+86)
(-2.6097532e+88 4.5493094e+86 1.4850044e+87)
(-2.6103336e+88 2.3243253e+85 1.4155969e+87)
(-2.5286297e+88 9.2954434e+85 6.2825582e+85)
(-2.5314689e+88 3.7443579e+86 1.3231919e+86)
(-2.5250864e+88 2.9060183e+86 -1.0412386e+86)
(-2.599068e+88 3.8556888e+86 1.2633296e+87)
(-2.5378432e+88 1.0806898e+86 5.912501e+85)
(-2.61721e+88 -4.326353e+84 1.4145415e+87)
(-2.5370044e+88 1.1478994e+86 -1.6543639e+87)
(-2.3633659e+88 1.9392898e+86 -2.3961398e+86)
(-2.3217347e+88 2.6860599e+86 -8.928743e+86)
(-2.3486831e+88 3.3740238e+86 -9.4020465e+86)
(-2.3739192e+88 3.8175395e+86 -2.2244407e+86)
(-2.2112375e+88 1.0882373e+86 7.1553105e+86)
(-2.2184129e+88 3.524256e+86 7.8484797e+86)
(-2.3116739e+88 4.5265813e+86 1.8685069e+87)
(-2.3122639e+88 7.2336738e+85 1.7982739e+87)
(-2.2156985e+88 1.1680924e+86 7.2497992e+86)
(-2.2174268e+88 3.2322906e+86 6.859193e+86)
(-2.3240891e+88 3.6948911e+86 1.7679351e+87)
(-2.3166386e+88 3.7512653e+85 1.7864774e+87)
(-2.2484761e+88 2.958191e+86 2.3325252e+86)
(-2.1734029e+88 2.5530703e+86 -4.0148925e+86)
(-2.1709691e+88 1.7280476e+86 -3.71015e+86)
(-2.246529e+88 1.1393172e+86 2.6783329e+86)
(-2.248675e+88 3.5720075e+86 3.3428942e+86)
(-2.1664923e+88 2.018032e+86 -3.9314725e+86)
(-2.1650384e+88 2.8113777e+86 -3.4877034e+86)
(-2.2445825e+88 1.4651509e+86 2.702343e+86)
(-2.1927062e+88 2.9022699e+86 -4.6205561e+86)
(-2.1590616e+88 2.5435126e+86 -8.3650136e+86)
(-2.1569926e+88 2.5147795e+86 -7.8985833e+86)
(-2.196455e+88 2.1528432e+86 -4.955824e+86)
(-2.2088826e+88 2.3720677e+86 -8.1682746e+86)
(-2.2041718e+88 2.681006e+86 -7.781461e+86)
(-2.1823556e+88 2.2838348e+86 -9.2456011e+86)
(-2.1830436e+88 2.4259891e+86 -9.8556744e+86)
(-2.5246732e+88 3.5153119e+86 -1.106758e+87)
(-2.1952085e+88 1.4601315e+86 -9.4872317e+86)
(-2.1976165e+88 1.7180818e+86 -9.5510335e+86)
(-2.218401e+88 2.0719706e+86 -8.0121797e+86)
(-2.5736452e+88 2.6543275e+85 -1.0484447e+87)
(-2.2168534e+88 1.3244934e+86 -7.8051936e+86)
(-2.1700503e+88 1.6864448e+86 -7.8112008e+86)
(-2.1703802e+88 2.1422317e+86 -8.0575193e+86)
(-2.1981366e+88 2.4455229e+86 -5.2613353e+86)
(-2.1959754e+88 1.6034185e+86 -4.9816726e+86)
(-2.506164e+88 -2.5266301e+85 -1.5602686e+87)
(-2.4940399e+88 3.5058911e+86 -1.5254789e+87)
(-2.195264e+88 2.429604e+86 -5.405284e+86)
(-2.16102e+88 2.4586588e+86 -9.2308317e+86)
(-2.1645252e+88 1.8168863e+86 -8.6708772e+86)
(-2.1943434e+88 2.1696014e+86 -5.8032769e+86)
(-2.1876436e+88 2.271204e+86 -1.0998491e+87)
(-2.1944723e+88 1.2162811e+86 -1.0151452e+87)
(-2.2080913e+88 2.1448974e+86 -9.2385589e+86)
(-2.2099561e+88 1.770463e+86 -8.7103471e+86)
(-2.5250636e+88 1.7068629e+86 -1.2710187e+87)
(-2.2011606e+88 1.822269e+86 -9.4545598e+86)
(-2.2194064e+88 2.2451563e+86 -7.828268e+86)
(-2.1999227e+88 2.7637717e+86 -4.8658479e+86)
(-2.1717101e+88 2.4232344e+86 -7.7858187e+86)
(-2.1951935e+88 1.6411177e+86 -4.5535682e+86)
(-2.453369e+88 1.31434e+86 -1.8032215e+87)
(-2.840752e+88 5.4027985e+86 -1.0595286e+87)
(-2.4036916e+88 3.0187442e+86 -2.1961249e+87)
(-2.5795961e+88 4.029151e+86 -1.4436495e+87)
(-2.6116349e+88 -2.6021862e+85 -1.4007513e+87)
(-2.4101597e+88 2.8851352e+85 -2.2352506e+87)
(-2.2921629e+88 1.973342e+86 -2.3760181e+87)
(-2.5349449e+88 1.5407404e+86 -1.8101842e+87)
(-2.3136022e+88 4.3911158e+86 1.7473824e+87)
(-2.3178508e+88 1.4314518e+86 1.7180637e+87)
(-2.2156799e+88 3.5722162e+86 6.9193621e+86)
(-2.2129938e+88 1.8691711e+86 6.4172837e+86)
(-2.2468748e+88 3.4757861e+86 2.4487985e+86)
(-2.2451251e+88 1.926671e+86 1.9484504e+86)
(-2.1648911e+88 2.6989035e+86 -4.084174e+86)
(-2.1651538e+88 2.3082555e+86 -4.5661885e+86)
(-2.1679933e+88 1.74344e+86 -3.1092875e+86)
(-2.1736493e+88 3.1192773e+86 -3.4127978e+86)
(-2.2439041e+88 3.5675573e+86 2.8627191e+86)
(-2.2404047e+88 1.1387944e+86 3.3322215e+86)
(-2.2140693e+88 1.294169e+86 8.1415925e+86)
(-2.2161931e+88 4.1329707e+86 7.5826029e+86)
(-2.3046753e+88 4.3685263e+86 1.7429633e+87)
(-2.2996313e+88 6.4722416e+85 1.8034718e+87)
(-1.8811201e+88 1.1262838e+86 1.8071798e+87)
(-1.8858588e+88 3.8700585e+86 1.7499433e+87)
(-1.8829435e+88 4.0802869e+86 1.6992064e+87)
(-1.8854181e+88 1.8383651e+86 1.6707884e+87)
(-1.8820829e+88 3.5548991e+86 1.750556e+87)
(-1.8846012e+88 1.2222606e+86 1.7025123e+87)
(-1.8849171e+88 3.6265664e+86 1.6527929e+87)
(-1.8788144e+88 1.5969879e+86 1.6682826e+87)
(-2.1842961e+88 3.7354907e+86 1.5998722e+87)
(-2.1787894e+88 3.0486219e+85 1.6403256e+87)
(-2.1855092e+88 4.2229836e+86 1.7764349e+87)
(-2.179621e+88 3.7905793e+85 1.6475584e+87)
(-2.1627834e+88 4.0195203e+86 1.5429791e+87)
(-2.1706496e+88 7.8118524e+85 1.5410922e+87)
(-2.1822873e+88 4.4855839e+85 1.7573211e+87)
(-2.1861746e+88 4.3828835e+86 1.6775498e+87)
(-1.8850364e+88 3.0475594e+86 1.7200914e+87)
(-1.8783132e+88 8.4728404e+85 1.7296454e+87)
(-1.8817571e+88 3.4469921e+86 1.8473317e+87)
(-1.8838412e+88 6.9894327e+85 1.7935112e+87)
(-1.882076e+88 7.9055472e+85 1.7593232e+87)
(-1.888513e+88 3.3089896e+86 1.7281228e+87)
(-1.8846807e+88 3.4169784e+86 1.7101599e+87)
(-1.8856471e+88 1.1240271e+86 1.6634459e+87)
(-2.8572422e+88 -1.3343836e+85 -2.3889372e+87)
(-2.853724e+88 9.3379129e+85 -2.4287893e+87)
(-2.9110663e+88 2.1059552e+86 -1.4045054e+87)
(-2.5122129e+88 1.2262261e+86 -2.6322862e+87)
(-1.9859348e+88 -6.1260066e+85 -3.3269547e+87)
(-1.9825455e+88 2.5826219e+86 -3.3428239e+87)
(-1.980231e+88 -4.2890771e+85 -3.3092409e+87)
(-1.9841484e+88 2.4163752e+86 -3.3104075e+87)
(-1.7352878e+88 1.8353689e+86 -4.0345033e+87)
(-1.2086652e+88 1.8530132e+86 -3.5037965e+87)
(-1.2093328e+88 8.435188e+85 -3.4660627e+87)
(-8.6570392e+87 1.8841236e+86 -3.858454e+87)
(-8.6291934e+87 1.1787076e+86 -3.811654e+87)
(-1.2086675e+88 1.5727049e+86 -3.4478965e+87)
(-1.2083365e+88 7.2026175e+85 -3.4914556e+87)
(-8.6144906e+87 1.6171961e+86 -3.793375e+87)
(-8.6257758e+87 1.2502638e+86 -3.8641351e+87)
(-6.8355436e+87 1.6522303e+86 -1.1896677e+87)
(-6.8576291e+87 1.986287e+86 -1.137985e+87)
(-9.7963701e+87 2.8872293e+86 1.3969767e+87)
(-9.747448e+87 -5.7621779e+84 1.4072218e+87)
(-9.8245511e+87 7.8053804e+85 1.4371486e+87)
(-9.6320025e+87 4.0228665e+86 1.2955161e+87)
(-6.9354706e+87 1.8092047e+86 -1.030904e+87)
(-6.7278691e+87 2.353996e+86 -1.347465e+87)
(-1.7377062e+88 9.6146919e+85 -4.0613016e+87)
(-1.7381223e+88 1.7635534e+86 -4.0833575e+87)
(-1.2044078e+88 1.9264553e+86 -3.4646217e+87)
(-1.2030724e+88 1.0204148e+86 -3.4289519e+87)
(-8.5613827e+87 2.0236767e+86 -3.8400058e+87)
(-8.5497688e+87 1.4312393e+86 -3.7849559e+87)
(-6.9040106e+87 2.1944113e+86 -1.0034243e+87)
(-9.7954224e+87 1.7309661e+86 1.398569e+87)
(-6.7621064e+87 1.8943374e+86 -1.1881516e+87)
(-9.6761478e+87 5.4061e+85 1.3290283e+87)
(-6.8212938e+87 2.3481963e+86 -1.1015765e+87)
(-9.7146698e+87 3.8539389e+86 1.3442417e+87)
(-2.4507228e+88 1.5897297e+86 -3.1316792e+87)
(-2.3742721e+88 1.331274e+86 -1.9089012e+87)
(-2.3681592e+88 -2.0703373e+86 -1.920265e+87)
(-2.4349701e+88 7.9242814e+85 -3.1055121e+87)
(-2.4982907e+88 2.0599982e+86 -2.7197256e+87)
(-1.976463e+88 2.9115075e+86 -3.4000565e+87)
(-1.9764261e+88 -2.4080651e+85 -3.3985082e+87)
(-2.4638742e+88 1.687912e+86 -1.5315707e+87)
(-2.5034107e+88 -1.1609657e+86 -1.6345404e+87)
(-2.5027e+88 4.8583273e+85 -2.6542575e+87)
(-1.9730353e+88 2.6498085e+86 -3.3518277e+87)
(-1.9752776e+88 -4.8734887e+85 -3.3664609e+87)
(-2.4015529e+88 -1.8112698e+86 -1.9876449e+87)
(-2.3609164e+88 2.5193281e+86 -1.955349e+87)
(-2.4399904e+88 2.0621592e+86 -3.1587797e+87)
(-2.4451524e+88 6.9277698e+85 -3.1711113e+87)
(-1.6601456e+88 2.1566351e+86 -3.8487013e+87)
(-1.9652181e+88 2.6240047e+86 -3.2501512e+87)
(-1.9710599e+88 2.8895655e+85 -3.2665997e+87)
(-1.6654143e+88 1.7133256e+86 -3.8328053e+87)
(-1.6641946e+88 2.2029463e+86 -3.8210678e+87)
(-1.9673721e+88 2.4045353e+86 -3.2477435e+87)
(-1.9672482e+88 -1.7183224e+85 -3.2711514e+87)
(-1.6651542e+88 1.5665217e+86 -3.8752512e+87)
(-1.1553217e+88 2.3815252e+86 -3.4737622e+87)
(-1.157524e+88 3.3799846e+86 -3.4735889e+87)
(-1.0144966e+88 -4.5363752e+85 7.2141196e+86)
(-1.0030931e+88 5.5227401e+86 6.4885303e+86)
(-1.1588948e+88 2.3592755e+86 -3.4566521e+87)
(-1.1529439e+88 3.0118951e+86 -3.5104457e+87)
(-1.0103564e+88 2.1595075e+84 7.1052818e+86)
(-9.8980754e+87 5.7147591e+86 5.846628e+86)
(-1.6674796e+88 2.1192806e+86 -3.8406752e+87)
(-1.9700347e+88 2.4968888e+86 -3.2347838e+87)
(-1.972391e+88 1.3351497e+85 -3.237215e+87)
(-1.6658114e+88 1.7451941e+86 -3.8247847e+87)
(-1.6534642e+88 2.1752503e+86 -3.7832431e+87)
(-1.9558935e+88 2.2642777e+86 -3.1856674e+87)
(-1.9581585e+88 -2.3830182e+84 -3.2220032e+87)
(-1.6579359e+88 1.7942127e+86 -3.8415805e+87)
(-1.1543884e+88 2.0069202e+86 -3.4806958e+87)
(-1.1539446e+88 3.1854241e+86 -3.4640445e+87)
(-9.9302255e+87 -3.1162972e+85 6.0698776e+86)
(-9.9205027e+87 6.0383203e+86 6.1019907e+86)
(-1.1467462e+88 3.2329253e+86 -3.4845994e+87)
(-1.0062004e+88 4.5926227e+85 7.2355462e+86)
(-1.1481799e+88 2.2249786e+86 -3.4089409e+87)
(-1.0020373e+88 6.1077096e+86 6.4152972e+86)
(-1.733171e+88 2.30105e+86 -4.1354732e+87)
(-1.7376434e+88 1.4494313e+86 -4.1133619e+87)
(-1.2067358e+88 2.1534232e+86 -3.5538338e+87)
(-1.2066882e+88 1.1329085e+86 -3.5201104e+87)
(-8.6804021e+87 2.3341763e+86 -3.9055161e+87)
(-8.6654636e+87 1.6530135e+86 -3.8524297e+87)
(-1.2085996e+88 1.8089499e+86 -3.4932285e+87)
(-1.2077492e+88 8.4268895e+85 -3.5360542e+87)
(-8.6701319e+87 2.0752112e+86 -3.8349646e+87)
(-8.6680421e+87 1.47974e+86 -3.9000974e+87)
(-9.8434994e+87 -3.8336387e+85 1.3953328e+87)
(-9.8894703e+87 2.5134369e+86 1.4163797e+87)
(-6.8011093e+87 2.3294923e+86 -1.3328097e+87)
(-6.8985592e+87 2.669354e+86 -1.1973418e+87)
(-9.9211138e+87 5.3273432e+85 1.4576557e+87)
(-9.7068051e+87 3.6883477e+86 1.3102414e+87)
(-6.9503754e+87 2.5907619e+86 -1.0998028e+87)
(-6.7426791e+87 2.7901645e+86 -1.3852534e+87)
(-1.733859e+88 1.216785e+86 -4.0957903e+87)
(-1.7358934e+88 2.0915688e+86 -4.0769026e+87)
(-1.2045373e+88 2.0438921e+86 -3.4946044e+87)
(-1.2041154e+88 1.1077567e+86 -3.4618042e+87)
(-8.6252805e+87 2.1988729e+86 -3.8706378e+87)
(-8.6133468e+87 1.6488458e+86 -3.8156243e+87)
(-1.207923e+88 1.7655167e+86 -3.4720295e+87)
(-1.2063083e+88 7.320421e+85 -3.518437e+87)
(-8.6345486e+87 2.0338793e+86 -3.8158282e+87)
(-8.6378068e+87 1.3458333e+86 -3.8880232e+87)
(-6.7635506e+87 2.1546339e+86 -1.2640582e+87)
(-9.7264806e+87 1.401745e+85 1.3271291e+87)
(-6.8221857e+87 2.673916e+86 -1.1878637e+87)
(-9.7392157e+87 3.373369e+86 1.3311103e+87)
(-6.8990489e+87 2.4853647e+86 -1.0843739e+87)
(-6.7030335e+87 2.5670331e+86 -1.3648127e+87)
(-9.7778571e+87 1.1731483e+86 1.3777844e+87)
(-9.6111624e+87 3.5871749e+86 1.2710931e+87)
(-1.5811008e+88 1.8283385e+86 1.9932854e+87)
(-1.5725815e+88 2.7316842e+86 1.8720322e+87)
(-2.0020007e+88 1.9894749e+86 2.3291667e+87)
(-2.0008278e+88 4.0250594e+86 2.3594996e+87)
(-1.5814922e+88 2.3419556e+86 1.9504674e+87)
(-2.0023041e+88 3.1095285e+86 2.4078996e+87)
(-1.5814478e+88 2.5304587e+86 2.0001963e+87)
(-1.9970359e+88 6.2337415e+85 2.4511502e+87)
(-1.5554296e+88 8.0286609e+85 1.9080247e+87)
(-1.5554018e+88 1.7534347e+86 1.8348773e+87)
(-1.9737008e+88 3.3809069e+86 2.2719133e+87)
(-1.9807145e+88 1.4117366e+86 2.2581323e+87)
(-1.9863367e+88 2.9084717e+86 2.2345558e+87)
(-1.5587851e+88 1.7248001e+86 1.8369044e+87)
(-1.5584174e+88 2.5842306e+86 1.8719839e+87)
(-1.9836572e+88 9.9249902e+85 2.2634533e+87)
(-1.3798889e+88 1.019025e+86 2.0067192e+87)
(-1.3774318e+88 -5.3661284e+85 2.0867266e+87)
(-1.7466869e+88 2.8092539e+86 2.2136875e+87)
(-1.7470896e+88 1.1647439e+86 2.1905225e+87)
(-1.3690327e+88 1.5671694e+86 2.0023613e+87)
(-1.3676486e+88 -1.3542975e+85 1.9581854e+87)
(-1.7514385e+88 1.9979333e+86 2.1490757e+87)
(-1.7456951e+88 5.0128744e+85 2.1118959e+87)
(-1.3674284e+88 1.8498583e+86 1.9489496e+87)
(-1.3635021e+88 -4.5584985e+85 1.9919896e+87)
(-1.7485058e+88 2.6202193e+86 2.0985881e+87)
(-1.7500656e+88 1.5934998e+86 2.1068796e+87)
(-1.3609336e+88 2.1459243e+86 2.0055252e+87)
(-1.3577922e+88 8.065454e+85 1.9285685e+87)
(-1.7399447e+88 2.5884806e+86 2.0951392e+87)
(-1.7362528e+88 7.2052108e+85 2.0952007e+87)
(-1.3632579e+88 1.7055128e+86 1.967422e+87)
(-1.358688e+88 4.7798886e+83 2.0038519e+87)
(-1.7405931e+88 2.9793198e+86 2.0774099e+87)
(-1.7472367e+88 1.4339701e+86 2.1271234e+87)
(-1.3529279e+88 2.2346536e+86 1.9581753e+87)
(-1.3500347e+88 5.7790538e+85 1.8928267e+87)
(-1.7434689e+88 2.3979841e+86 2.0252567e+87)
(-1.7400484e+88 9.0837305e+85 2.028349e+87)
(-1.7490935e+88 2.9849791e+86 2.0946402e+87)
(-1.3588935e+88 3.6992067e+85 1.9962307e+87)
(-1.3614459e+88 2.3447337e+86 1.9464321e+87)
(-1.7497805e+88 1.7939929e+86 2.1024334e+87)
(-1.3622116e+88 1.6804616e+86 2.0380521e+87)
(-1.3560149e+88 1.212737e+86 1.9393927e+87)
(-1.7413773e+88 2.6088276e+86 2.1145221e+87)
(-1.7378615e+88 5.1981495e+85 2.122532e+87)
(-1.3582791e+88 1.8838418e+86 1.9760072e+87)
(-1.3663946e+88 -1.0979788e+85 2.0988459e+87)
(-1.7418729e+88 2.9221105e+86 2.169334e+87)
(-1.7397408e+88 1.4192278e+86 2.1162292e+87)
(-1.3641178e+88 2.2219376e+86 2.0180796e+87)
(-1.3541172e+88 6.9286168e+85 1.9347018e+87)
(-1.7412418e+88 2.3416758e+86 2.0482528e+87)
(-1.7418799e+88 9.2315691e+85 2.0894839e+87)
(-1.3574022e+88 2.7004899e+85 2.005512e+87)
(-1.7383805e+88 3.1833654e+86 2.0241043e+87)
(-1.3555546e+88 2.7110233e+86 1.9450097e+87)
(-1.7426004e+88 2.09238e+86 2.0689376e+87)
(-1.7341558e+88 3.1615895e+86 2.0476573e+87)
(-1.351462e+88 1.6901815e+86 1.9261259e+87)
(-1.3527465e+88 3.032719e+86 1.9863589e+87)
(-1.7301569e+88 1.4871715e+86 2.0487705e+87)
(-1.3574508e+88 2.1114987e+86 1.9406602e+87)
(-1.3596217e+88 9.5009772e+85 2.0155339e+87)
(-1.741861e+88 3.7184506e+86 2.0791768e+87)
(-1.7440966e+88 1.9924266e+86 2.0881735e+87)
(-1.7453867e+88 2.9093904e+86 2.0314215e+87)
(-1.3561355e+88 1.6595484e+86 1.9292231e+87)
(-1.3589906e+88 3.0291694e+86 1.9655586e+87)
(-1.7452114e+88 1.7227308e+86 2.0563125e+87)
(-1.359098e+88 3.2786442e+86 1.9279776e+87)
(-1.3659429e+88 1.2228949e+86 2.0378537e+87)
(-1.7458235e+88 3.7268254e+86 2.0957996e+87)
(-1.7458481e+88 2.412965e+86 2.0833678e+87)
(-1.3666489e+88 2.5661067e+86 2.0428166e+87)
(-1.3613797e+88 2.1810617e+86 1.9691086e+87)
(-1.7421147e+88 2.9822224e+86 2.1497186e+87)
(-1.7391535e+88 1.0253938e+86 2.1532004e+87)
(-1.5685262e+88 1.0202621e+86 1.8715652e+87)
(-1.5619196e+88 2.0102436e+86 1.8828173e+87)
(-1.9954463e+88 2.4389377e+86 2.2881829e+87)
(-1.9907383e+88 4.1453371e+85 2.3025319e+87)
(-1.5769179e+88 5.7402605e+85 2.0459426e+87)
(-1.5681223e+88 1.2406594e+86 1.9369004e+87)
(-1.994175e+88 3.4104465e+86 2.4552393e+87)
(-1.9959278e+88 1.3017189e+86 2.4325375e+87)
(-1.9986471e+88 3.3010218e+86 2.3156364e+87)
(-1.5716784e+88 8.2457269e+85 1.9425382e+87)
(-1.5576373e+88 1.9863047e+86 1.7991714e+87)
(-1.993578e+88 1.6009146e+86 2.2483861e+87)
(-1.5655611e+88 1.7713715e+86 1.8912344e+87)
(-1.5559598e+88 1.9930316e+86 1.907334e+87)
(-1.9931156e+88 2.7650662e+86 2.3208109e+87)
(-1.9850268e+88 3.2115435e+85 2.3430392e+87)
(-2.1736055e+88 2.4442185e+86 -7.7050755e+86)
(-2.1785297e+88 2.8129076e+86 -8.0274831e+86)
(-2.2048495e+88 1.9981248e+86 -4.4554168e+86)
(-2.211487e+88 3.1287889e+86 -4.776104e+86)
(-2.2236955e+88 2.220932e+86 -7.7451551e+86)
(-2.2286808e+88 2.8855679e+86 -8.069018e+86)
(-2.2077405e+88 2.6168629e+86 -9.7144989e+86)
(-2.202263e+88 2.4904041e+86 -9.5034776e+86)
(-2.563816e+88 1.6362515e+86 -1.1415733e+87)
(-2.2038954e+88 2.035283e+86 -9.2436175e+86)
(-2.189357e+88 3.0386059e+86 -1.1008677e+87)
(-2.1810451e+88 1.5553072e+86 -1.1095972e+87)
(-2.2102969e+88 2.6517971e+86 -9.2635317e+86)
(-2.5239693e+88 1.6465325e+86 -1.3551807e+87)
(-2.1612668e+88 2.747788e+86 -9.1911385e+86)
(-2.1557435e+88 2.0652731e+86 -9.1936666e+86)
(-2.1810555e+88 2.3441417e+86 -6.3527334e+86)
(-2.1883198e+88 2.2684767e+86 -6.2640242e+86)
(-2.449818e+88 1.6274703e+86 -1.8723735e+87)
(-2.4814876e+88 2.0285533e+86 -1.6363814e+87)
(-2.1622051e+88 2.6308031e+86 -7.9805368e+86)
(-2.2017878e+88 2.1232085e+86 -4.5114655e+86)
(-2.2155822e+88 2.490397e+86 -7.8313245e+86)
(-2.1877335e+88 2.5315686e+86 -9.6372353e+86)
(-2.1965316e+88 1.9488047e+86 -9.4073774e+86)
(-2.215955e+88 2.3173113e+86 -7.8909533e+86)
(-2.5601942e+88 5.1932417e+85 -1.0848961e+87)
(-2.1880831e+88 1.7480648e+86 -9.6319557e+86)
(-2.2041936e+88 1.6234665e+86 -8.1546817e+86)
(-2.4863414e+88 3.2254531e+85 -1.597663e+87)
(-2.1611896e+88 1.8646663e+86 -7.8931472e+86)
(-2.1883789e+88 1.5608965e+86 -5.1139471e+86)
(-2.1672277e+88 2.2765028e+86 -7.8801983e+86)
(-2.1936929e+88 2.4151312e+86 -5.1971142e+86)
(-2.3072302e+88 4.5115103e+86 1.8512868e+87)
(-2.2116976e+88 1.0157974e+86 7.6349483e+86)
(-2.3035485e+88 6.5403107e+85 1.7660224e+87)
(-2.2091525e+88 8.8633174e+85 7.4240548e+86)
(-2.2128061e+88 3.0297608e+86 7.0769789e+86)
(-2.3044404e+88 1.9844929e+85 1.7585052e+87)
(-2.3079762e+88 3.4281969e+86 1.7136986e+87)
(-2.2404984e+88 2.7752936e+86 2.4352094e+86)
(-2.1694776e+88 2.4570965e+86 -3.7458901e+86)
(-2.2379523e+88 9.1022396e+85 2.7340123e+86)
(-2.1633128e+88 1.5127669e+86 -3.6196658e+86)
(-2.1694043e+88 1.9001871e+86 -3.3430597e+86)
(-2.2439293e+88 1.3913224e+86 3.0777164e+86)
(-2.154665e+88 2.5096748e+86 -4.8649978e+86)
(-2.162777e+88 2.3002481e+86 -4.7535481e+86)
(-2.234395e+88 1.75832e+86 1.5945605e+86)
(-2.22548e+88 3.1649334e+86 1.5263848e+86)
(-2.2045056e+88 1.5707399e+86 6.351554e+86)
(-2.1985245e+88 3.3677944e+86 6.3709925e+86)
(-2.2848251e+88 4.0178867e+86 1.622134e+87)
(-2.2964662e+88 1.078188e+86 1.6374187e+87)
(-2.253091e+88 3.6229433e+86 2.8990058e+86)
(-2.1819536e+88 3.2751831e+86 -3.4808511e+86)
(-2.1744625e+88 1.8911802e+86 -3.1140569e+86)
(-2.2481549e+88 1.1765914e+86 3.3247956e+86)
(-2.2190527e+88 1.2021718e+86 8.1348391e+86)
(-2.2226942e+88 3.9897884e+86 7.6238077e+86)
(-2.3099477e+88 4.1773432e+86 1.7501963e+87)
(-2.3036091e+88 5.0819837e+85 1.8034187e+87)
(-2.2796604e+88 2.7862328e+86 -2.4610116e+87)
(-2.5319241e+88 2.1687015e+86 -1.8824182e+87)
(-2.5715858e+88 1.6772221e+86 -1.5602363e+87)
(-2.2933731e+88 5.9813713e+85 -2.342693e+87)
(-1.8854021e+88 2.4081354e+86 2.3424928e+86)
(-1.880258e+88 1.1701824e+86 2.4561072e+86)
(-1.9565992e+88 2.543588e+86 8.3511859e+86)
(-1.9529912e+88 7.7292207e+85 8.5419726e+86)
(-1.8855026e+88 2.7408169e+86 3.1025406e+86)
(-1.9584034e+88 3.2782069e+86 9.4021359e+86)