/*--------------------------------*- C++ -*----------------------------------*\
  =========                 |
  \\      /  F ield         | OpenFOAM: The Open Source CFD Toolbox
   \\    /   O peration     | Website:  https://openfoam.org
    \\  /    A nd           | Version:  7
     \\/     M anipulation  |
\*---------------------------------------------------------------------------*/
FoamFile
{
    version     2.0;
    format      ascii;
    class       volScalarField;
    location    "3000";
    object      k;
}
// * * * * * * * * * * * * * * * * * * * * * * * * * * * * * * * * * * * * * //

dimensions      [0 2 -2 0 0 0 0];

internalField   nonuniform List<scalar> 
33730
(
1.5204881
1.5237845
1.5173044
1.5189552
1.5211507
1.5189115
1.5223812
1.5210785
1.5238055
1.5201965
1.5200852
1.525001
1.5169276
1.5164961
1.516698
1.5170026
1.5186183
1.5182019
1.5188978
1.5178559
1.5191523
1.5183527
1.5179069
1.5191533
1.5212398
1.5189039
1.5217849
1.5229773
1.5234627
1.5225133
1.525144
1.5202087
1.5191677
1.5254551
1.5250838
1.5253276
1.5256814
1.5201549
1.5192892
1.5187375
1.5184329
1.5187348
1.5184565
1.5223898
1.5229606
1.5161684
1.5166637
1.5171664
1.5167272
1.5179895
1.5163143
1.5165793
1.5164862
1.5161075
1.5181695
1.5163496
1.516809
1.5160803
1.5164824
1.5166155
1.5165295
1.5161175
1.5170548
1.5214982
1.518746
1.5190248
1.5175423
1.5178779
1.5181133
1.5183493
1.5174171
1.5179486
1.5174242
1.5179499
1.5182297
1.5204819
1.5185736
1.5177191
1.5182961
1.517492
1.5174649
1.5180412
1.5180037
1.5214265
1.5208862
1.5218755
1.5209952
1.5211761
1.5219405
1.5221471
1.5220735
1.5228038
1.5220085
1.5227693
1.5219482
1.5230596
1.5225487
1.5263797
1.5260636
1.5260681
1.5263901
1.5225033
1.5187101
1.518456
1.5182573
1.5179246
1.5178605
1.5176527
1.5179355
1.5181534
1.5193473
1.5194104
1.5179436
1.5181886
1.5186935
1.5184442
1.5179474
1.5176442
1.5179914
1.5182438
1.5195196
1.5194187
1.5194649
1.519416
1.5200295
1.5195302
1.5195712
1.5194765
1.518176
1.5179064
1.5177684
1.5177699
1.5184229
1.5211581
1.5180956
1.5178256
1.5178611
1.521665
1.5218085
1.521888
1.5223923
1.5172615
1.5166734
1.5160758
1.5165002
1.5170802
1.5166115
1.5180962
1.5183363
1.5180008
1.517698
1.5162133
1.5164752
1.5163677
1.5160178
1.517987
1.5176343
1.5184923
1.5181049
1.5162357
1.5163572
1.5164633
1.5162316
1.5165191
1.5162288
1.5167115
1.5171376
1.5160365
1.5160432
1.5160567
1.5160691
1.5160973
1.5160844
1.5165882
1.5165661
1.516332
1.5166324
1.5166507
1.5162618
1.5161
1.516138
1.516615
1.5165782
1.5160727
1.5160432
1.5160941
1.5160626
1.5162898
1.516751
1.5167609
1.5172618
1.5218916
1.5213476
1.5222441
1.5217576
1.518828
1.5189375
1.5186965
1.5183373
1.5188628
1.5182151
1.519357
1.5187086
1.5172097
1.5176321
1.517254
1.517658
1.5174012
1.5177136
1.5180178
1.5178251
1.5171243
1.5171228
1.5175338
1.5175324
1.5171196
1.5175328
1.517133
1.5175361
1.5199369
1.5181508
1.5177087
1.5184514
1.518238
1.5202572
1.5209392
1.5206177
1.517397
1.5178943
1.5173251
1.5178357
1.5171823
1.5171561
1.5176154
1.5176298
1.5171495
1.5171542
1.517588
1.517599
1.5203979
1.5203467
1.5211734
1.5211317
1.5204825
1.5204474
1.5212621
1.5212263
1.5216675
1.5213163
1.5205623
1.5208756
1.5214377
1.5219666
1.5217832
1.5219505
1.5218237
1.5219676
1.5209584
1.5208075
1.5213911
1.5214776
1.5221094
1.5218575
1.5219397
1.521586
1.5216566
1.5224042
1.5220051
1.5217215
1.5215956
1.5216507
1.5215386
1.5226866
1.5216845
1.5208986
1.5214407
1.5212022
1.5179537
1.5176777
1.5179236
1.5181565
1.5175455
1.5175428
1.5177725
1.5177665
1.5178442
1.5175705
1.5176975
1.5179445
1.5175465
1.5174474
1.5174455
1.5175439
1.5177069
1.5177989
1.5174581
1.5175486
1.5178416
1.5173238
1.5174015
1.5173791
1.517301
1.5176537
1.5173901
1.5174115
1.5175228
1.5174951
1.5175682
1.5178585
1.517973
1.5176901
1.517486
1.5173196
1.5176779
1.5179933
1.5176263
1.5175251
1.5175975
1.5174991
1.5177039
1.5180261
1.5181185
1.5178216
1.5178379
1.5181727
1.5183626
1.5180689
1.5178515
1.5176294
1.5176013
1.5178138
1.5174495
1.5173363
1.517331
1.5174461
1.5173263
1.5173245
1.5172439
1.5172489
1.5173656
1.5174667
1.5176538
1.5177277
1.517737
1.5174553
1.5175894
1.51784
1.5189608
1.5190378
1.5193253
1.5193599
1.518956
1.5190022
1.5193116
1.5193269
1.5189661
1.5190062
1.5192969
1.5193169
1.5190325
1.5193093
1.5190539
1.519463
1.5193158
1.519509
1.5196137
1.5194981
1.5193926
1.5195396
1.519099
1.519181
1.5194224
1.5190368
1.5191294
1.5193823
1.5194221
1.5190032
1.5190703
1.5193595
1.5193819
1.517935
1.5177129
1.5175349
1.517565
1.5174408
1.5174402
1.5174395
1.5174449
1.5183895
1.5181296
1.5204684
1.520824
1.517789
1.517724
1.5175021
1.5174934
1.5175317
1.5175165
1.5209703
1.5210117
1.5210944
1.5210579
1.5211459
1.5212948
1.5217905
1.5218117
1.5218222
1.5182149
1.518845
1.5171696
1.5165953
1.5159992
1.5160167
1.5160462
1.5165198
1.5170403
1.516518
1.5162575
1.5165952
1.5180481
1.5183109
1.5179263
1.5176656
1.5161251
1.5163442
1.5161963
1.5164251
1.5163316
1.515944
1.5160208
1.516014
1.5179605
1.518037
1.517914
1.5180019
1.5178026
1.5176065
1.5177869
1.5175512
1.5187215
1.5179161
1.5178623
1.5186401
1.517496
1.5185625
1.5177562
1.5182209
1.51645
1.5162108
1.5166734
1.5164157
1.5164225
1.5165725
1.516249
1.5162054
1.5161979
1.516226
1.5163749
1.516315
1.5167702
1.5166962
1.5168567
1.5174314
1.5165311
1.5169739
1.5160471
1.5160588
1.5160834
1.5161202
1.5160756
1.5161076
1.5160653
1.5160681
1.5160999
1.5161029
1.5162486
1.5162363
1.5166117
1.5166312
1.5162256
1.5166117
1.516604
1.5162319
1.5165968
1.5162351
1.5160795
1.5160867
1.5161183
1.5161304
1.5161036
1.5161187
1.516147
1.5161684
1.5162864
1.5166429
1.516306
1.5166558
1.5162444
1.5166158
1.5162633
1.5166276
1.5160824
1.5160554
1.516225
1.5162639
1.5162546
1.5163155
1.5164966
1.5167432
1.5165105
1.5168804
1.5163819
1.5167233
1.5164597
1.5167895
1.5166549
1.5170954
1.5169595
1.5173979
1.5217567
1.5217037
1.5224103
1.5210332
1.5215327
1.5222807
1.5215496
1.5224815
1.5223903
1.5223802
1.5216844
1.5222917
1.5216946
1.5187317
1.5188763
1.5186042
1.5182647
1.5186857
1.5189632
1.5191128
1.5185594
1.5182557
1.5181835
1.5182092
1.5181132
1.5191857
1.5198525
1.5184613
1.519101
1.518056
1.5189128
1.5181401
1.5188206
1.5168062
1.5167891
1.5174076
1.5174157
1.5174447
1.5168231
1.5168549
1.5174575
1.5170174
1.5169439
1.5175776
1.5176022
1.5175223
1.5172319
1.5177603
1.5178872
1.5167163
1.5167179
1.5173251
1.5173235
1.5167063
1.5167157
1.5173256
1.5173255
1.5167065
1.5167096
1.5173215
1.5173221
1.5167116
1.5167327
1.5173287
1.5173348
1.5196692
1.5194157
1.5201021
1.5203188
1.5174663
1.5178403
1.5184548
1.5183398
1.5171533
1.5170413
1.5180444
1.5179961
1.5198267
1.5197886
1.5204935
1.5205185
1.5168338
1.516883
1.5176773
1.5176543
1.5167922
1.5168003
1.5175999
1.5175824
1.5167103
1.5167377
1.5174138
1.5174034
1.5166939
1.5166892
1.5173883
1.5173861
1.5167004
1.5173742
1.5173742
1.5166949
1.516705
1.5167208
1.5173774
1.5173737
1.5199403
1.5199054
1.5206324
1.5206451
1.5198747
1.5198548
1.5205828
1.5206092
1.5200264
1.5200057
1.5207205
1.5207127
1.5206959
1.5199861
1.5199659
1.5206723
1.5217271
1.5215539
1.5216317
1.5217039
1.5201302
1.5200812
1.520803
1.5207693
1.5210979
1.5207598
1.5203422
1.5209611
1.5217421
1.521796
1.5217878
1.5217359
1.5218453
1.5217727
1.5218384
1.5217669
1.5202544
1.5206638
1.5206933
1.5203187
1.5207181
1.5202715
1.5207045
1.5202967
1.5208449
1.5208755
1.5208473
1.5208984
1.5208617
1.5214181
1.520885
1.5207888
1.520823
1.5208432
1.5206539
1.5212715
1.5208964
1.5209339
1.5210908
1.5211329
1.5209813
1.5211456
1.5217911
1.5211786
1.5213224
1.5208632
1.5209015
1.5209913
1.5209489
1.521611
1.5209425
1.5210314
1.5211017
1.5211833
1.5216299
1.5218157
1.5216239
1.5215205
1.5215139
1.5216078
1.5220484
1.5211497
1.5209385
1.5210723
1.5210076
1.5210123
1.5211257
1.5210861
1.5209882
1.5216578
1.5209747
1.5208684
1.5209039
1.5209313
1.520946
1.5209854
1.5209596
1.5209271
1.5215978
1.5214886
1.521446
1.5218183
1.5215228
1.521476
1.5208153
1.520855
1.521041
1.5209964
1.5203531
1.5206559
1.5202675
1.5206975
1.5209051
1.5207807
1.5208192
1.5208616
1.5208244
1.5203088
1.520677
1.5204938
1.5175172
1.5177525
1.5176063
1.5178132
1.5173521
1.5174238
1.5173814
1.5174485
1.5174166
1.5175446
1.5174476
1.5175675
1.5175935
1.5177279
1.5178251
1.5179236
1.5172612
1.5172637
1.5173281
1.517329
1.5173279
1.5172603
1.5172619
1.5173268
1.5173247
1.5173258
1.5174447
1.5174415
1.517325
1.5173296
1.517443
1.5174436
1.5173913
1.517624
1.5174619
1.5176764
1.517245
1.5172695
1.5172983
1.5173198
1.5172845
1.5173637
1.5173124
1.5173863
1.5174432
1.5176828
1.5175343
1.5177476
1.5171959
1.5172673
1.5171976
1.5172659
1.5171582
1.5171594
1.517208
1.5172067
1.5171571
1.5172064
1.5171573
1.5172048
1.5171973
1.5171993
1.5172677
1.5172666
1.5178057
1.517535
1.5176256
1.5175353
1.5178054
1.5178268
1.5175213
1.5178503
1.5175655
1.5173188
1.5172695
1.5174189
1.5172794
1.5173277
1.5172971
1.5172448
1.5173321
1.5172791
1.5174815
1.5172888
1.5171683
1.5171575
1.5172949
1.5171696
1.5171783
1.517143
1.5171733
1.5171329
1.5171612
1.517131
1.51716
1.5171183
1.5171451
1.5171543
1.5171401
1.51727
1.5171527
1.5171656
1.5171557
1.5171747
1.5171436
1.5171308
1.5171781
1.5171639
1.5171571
1.5171927
1.5171462
1.5171803
1.5171792
1.5172375
1.5171682
1.5172244
1.5171646
1.5172212
1.5171526
1.5172069
1.5173217
1.517363
1.5172654
1.5173067
1.5178813
1.5179124
1.5175657
1.5176222
1.5179464
1.5179894
1.5176267
1.5177
1.5173563
1.5174213
1.5172963
1.5173612
1.5174037
1.5173094
1.5171589
1.5172441
1.5170627
1.5171377
1.5171174
1.5170838
1.5171076
1.5172244
1.5171159
1.5172262
1.5175533
1.5172334
1.5173662
1.5176457
1.5172685
1.517257
1.5173433
1.5173299
1.5172252
1.5172137
1.5172783
1.5172655
1.5172506
1.5173236
1.5172404
1.5173111
1.5171974
1.517209
1.5172606
1.5172476
1.5174166
1.5174761
1.517353
1.5174144
1.5180237
1.5180626
1.5177061
1.5177781
1.5180976
1.5181435
1.5177849
1.5178701
1.5174732
1.5175566
1.5174075
1.5174935
1.5175594
1.5174924
1.5176391
1.5175779
1.518182
1.5178822
1.518225
1.5179708
1.5182673
1.5179876
1.518341
1.5181086
1.5176475
1.517582
1.5177771
1.5177166
1.5174091
1.5175315
1.5173961
1.5175161
1.517337
1.517409
1.5173246
1.5173957
1.5173167
1.5173069
1.5173863
1.5173756
1.5173839
1.5175033
1.5173755
1.5174918
1.517113
1.5171686
1.517112
1.5171654
1.5170913
1.5170925
1.5171254
1.5171241
1.5170915
1.5171242
1.5170883
1.51712
1.5171134
1.5171149
1.517169
1.5171669
1.5170729
1.5171037
1.5170747
1.5171023
1.517075
1.5171042
1.51707
1.517098
1.5170948
1.5170877
1.5171028
1.5170963
1.5170926
1.5170923
1.5171004
1.5170989
1.517175
1.5171842
1.5171879
1.517179
1.517151
1.5171891
1.5171655
1.5172016
1.5173074
1.5175203
1.517526
1.5172993
1.5172746
1.5173267
1.5175029
1.5175344
1.5173025
1.5173577
1.5175288
1.5175678
1.5171726
1.5172107
1.5171906
1.517227
1.5171967
1.5172595
1.5172187
1.5172776
1.5173367
1.5174122
1.5175684
1.517624
1.5188029
1.5186329
1.518676
1.5187665
1.5186526
1.5187118
1.5188508
1.5188039
1.5192854
1.5193015
1.5192273
1.5192454
1.5192442
1.5192673
1.5193099
1.5193281
1.51872
1.518569
1.518623
1.5186706
1.5185996
1.5186581
1.5187687
1.5187174
1.5192481
1.5191823
1.5192069
1.5192236
1.5192058
1.5192286
1.5192561
1.5192773
1.5186104
1.5184717
1.518544
1.5185372
1.5185194
1.5185938
1.5186762
1.5186058
1.5191732
1.5191121
1.5191488
1.5191346
1.5191492
1.5191825
1.5191819
1.5192153
1.5184225
1.5184549
1.518501
1.518546
1.5191109
1.5191253
1.5190664
1.5190771
1.5184663
1.5191007
1.5190682
1.5193044
1.5193241
1.5190648
1.5192618
1.5192648
1.5193207
1.5193233
1.519493
1.519459
1.5194892
1.5195195
1.5192425
1.5191096
1.5190952
1.519303
1.519311
1.5194533
1.5194293
1.5194575
1.5194788
1.5189237
1.5189706
1.518958
1.5190265
1.5188345
1.5188855
1.5190013
1.5188732
1.5189385
1.5190682
1.5190305
1.5194305
1.5193553
1.519374
1.519421
1.5189529
1.5187505
1.5187979
1.5189269
1.5187832
1.5188497
1.5189979
1.518957
1.5193794
1.519389
1.5193069
1.5193247
1.5193273
1.5193515
1.5193978
1.5194118
1.5188839
1.51869
1.518735
1.5188527
1.5187135
1.5187716
1.5189251
1.518886
1.5193499
1.5192667
1.5192856
1.5193365
1.5192855
1.5193061
1.5193583
1.5193712
1.5177102
1.5178527
1.517532
1.5175586
1.517364
1.5173723
1.5174002
1.5174153
1.5172828
1.51728
1.5172833
1.5172821
1.5172785
1.5172784
1.5172926
1.5172842
1.5199903
1.5184254
1.5182938
1.5179395
1.5179922
1.5202328
1.5204071
1.5203822
1.5176254
1.5175989
1.5175454
1.5175286
1.5173283
1.5173277
1.5173318
1.5173299
1.5173676
1.5173551
1.5173403
1.5173395
1.5204888
1.5204611
1.5205246
1.5205098
1.5205997
1.5205917
1.5205751
1.5205501
1.5206867
1.5206477
1.5210255
1.5215791
1.5208496
1.5216683
1.5217043
1.521711
1.5217445
1.5217392
1.521419
1.5209371
1.5182217
1.5187963
1.5163464
1.5169504
1.5162064
1.5163117
1.5160291
1.5160031
1.5159303
1.5159891
1.5160159
1.5165661
1.5162712
1.516446
1.5162008
1.5165418
1.5180068
1.51798
1.5180173
1.5182725
1.5179226
1.5176368
1.5178145
1.5175953
1.5161647
1.5162964
1.5160433
1.5163047
1.5161356
1.5159936
1.515998
1.5158779
1.51599
1.5159846
1.5179462
1.5179021
1.5177868
1.517569
1.5180914
1.5188288
1.5180525
1.5187767
1.5178924
1.5179122
1.5179186
1.5178859
1.5178487
1.5178616
1.5178599
1.5178423
1.5180247
1.5179964
1.518744
1.5187115
1.5176147
1.5174763
1.5174398
1.5176422
1.5179122
1.5186483
1.5179536
1.5187018
1.5177479
1.5177699
1.5177807
1.5177485
1.517806
1.5175508
1.5185417
1.5182449
1.5163822
1.5164633
1.5163868
1.5165637
1.5163838
1.5166116
1.5161889
1.5162119
1.5162104
1.5161769
1.5161783
1.5162156
1.5167039
1.5166295
1.5166504
1.5167951
1.5164353
1.5164063
1.5163801
1.5163894
1.5162692
1.5162367
1.5162274
1.5162506
1.5162206
1.5161945
1.5161863
1.5162079
1.5164088
1.5163131
1.5162882
1.5163751
1.516346
1.5162589
1.5162444
1.5163258
1.5166334
1.5165551
1.5165123
1.5165859
1.5164592
1.5164824
1.5165568
1.5165391
1.516875
1.5166858
1.5169988
1.5167715
1.5174809
1.5172472
1.516959
1.5171188
1.5165736
1.5164768
1.5164195
1.5165001
1.5166384
1.5167426
1.5168553
1.5167299
1.5160348
1.516033
1.5160488
1.5160517
1.5160672
1.516071
1.5160425
1.5160467
1.5160578
1.516067
1.5160864
1.5160753
1.5161465
1.5161103
1.5161067
1.5161388
1.5160954
1.5160951
1.5161291
1.5161284
1.5161225
1.5160877
1.5160884
1.5161229
1.5161232
1.5160898
1.5161263
1.5160923
1.5162816
1.5161911
1.5161808
1.5162683
1.5161721
1.5161723
1.516263
1.5162618
1.5164015
1.5164767
1.5164779
1.5164035
1.5165148
1.5164273
1.5164091
1.5164916
1.5161661
1.5161695
1.5162553
1.5162527
1.5164019
1.5164047
1.516479
1.5164786
1.5164823
1.5163964
1.5163967
1.5164889
1.5161667
1.5161667
1.5162577
1.5162572
1.5166351
1.5164188
1.5164011
1.5166876
1.5164552
1.5167785
1.5162274
1.5162033
1.5161936
1.5162316
1.5162183
1.5162673
1.5160858
1.5160965
1.51611
1.5161065
1.5161407
1.5161468
1.5161559
1.5161192
1.5161221
1.51616
1.5161102
1.5161283
1.5161369
1.5161338
1.5161725
1.5161781
1.5161881
1.5161491
1.5161584
1.5162009
1.516228
1.5162199
1.5163152
1.5163295
1.516516
1.5164507
1.5164674
1.5165214
1.5163372
1.5162366
1.516251
1.516349
1.5164846
1.5164746
1.5165275
1.5165435
1.5161912
1.5161837
1.5162673
1.5162795
1.5164998
1.5164071
1.5164211
1.5165068
1.5162912
1.5162001
1.5162056
1.516297
1.5164344
1.5164307
1.516506
1.5165106
1.5160698
1.5160554
1.5160814
1.5160973
1.5160423
1.5160382
1.5160697
1.5160621
1.516244
1.5162341
1.5162666
1.5162844
1.5163208
1.5162838
1.5163024
1.516349
1.5164792
1.516453
1.516489
1.5165405
1.5168847
1.5167351
1.5167586
1.5169921
1.5163325
1.5163103
1.5163987
1.5164285
1.5165869
1.516525
1.5165564
1.5166128
1.5164651
1.5163677
1.5164013
1.5165032
1.5166275
1.5165903
1.5166367
1.5166704
1.5166145
1.5165217
1.5165988
1.516711
1.5169186
1.5168079
1.5170823
1.5172368
1.5167499
1.5167223
1.5168319
1.516851
1.5173937
1.517048
1.5170737
1.5174256
1.5219104
1.5218407
1.5225391
1.5211232
1.5217237
1.5224186
1.5216972
1.5225296
1.5225326
1.522513
1.5225115
1.5225224
1.5225209
1.5223919
1.5223844
1.5224751
1.5224286
1.5224174
1.5224677
1.5220451
1.5216202
1.5216154
1.5221647
1.522473
1.5224182
1.522331
1.5222957
1.5221974
1.5215735
1.5221329
1.5216128
1.5186462
1.5186197
1.5189575
1.518816
1.5185751
1.5182068
1.5181777
1.5182273
1.5190925
1.518518
1.5181638
1.5180977
1.5189633
1.5193417
1.5195439
1.5188879
1.5197979
1.5189925
1.5203384
1.5195221
1.5184062
1.5184799
1.5184631
1.5183492
1.5186012
1.5191834
1.5184626
1.5190672
1.5180592
1.5180371
1.5180573
1.5180261
1.5183149
1.5189945
1.5182641
1.5189516
1.5181078
1.5181358
1.5181435
1.5180979
1.518223
1.518177
1.5189181
1.5188698
1.5167391
1.5167201
1.5167545
1.5167876
1.5169478
1.5168726
1.517464
1.5171663
1.5166472
1.516648
1.5166375
1.5166481
1.5166386
1.5166424
1.5166428
1.5166652
1.5200778
1.5189769
1.5189081
1.5200553
1.5185872
1.5187593
1.5199107
1.5197842
1.5173652
1.517753
1.5170545
1.5169387
1.5202212
1.5191005
1.5190644
1.5202163
1.5190308
1.519027
1.520203
1.5201893
1.5167449
1.5167933
1.5167062
1.5167127
1.5166348
1.51666
1.5166204
1.5166143
1.5166267
1.5166213
1.5166311
1.516648
1.5191736
1.5192228
1.5203313
1.5203265
1.5191279
1.519128
1.5203152
1.5203107
1.5191064
1.5190879
1.520287
1.5202828
1.5202679
1.5190759
1.5190835
1.5202597
1.5193148
1.5192778
1.5204083
1.5204041
1.5204006
1.5192497
1.5192577
1.5203983
1.5192224
1.5192473
1.5203814
1.5203767
1.5192202
1.5192106
1.5203625
1.5203568
1.5218073
1.5216937
1.5217769
1.5216789
1.5216875
1.5214613
1.5216053
1.5215099
1.5193771
1.5194442
1.5205117
1.5204983
1.5193502
1.519347
1.5204665
1.5204598
1.5201531
1.5206443
1.5209741
1.520903
1.5195967
1.5197601
1.5207022
1.5206698
1.5218758
1.5218675
1.5217379
1.5217424
1.521869
1.5218598
1.5217358
1.5217326
1.5217853
1.5219284
1.5219337
1.5217848
1.5219286
1.5219203
1.5217781
1.5217808
1.5199087
1.5196146
1.5199373
1.5196612
1.5200526
1.5201062
1.520023
1.5200721
1.5200472
1.5201314
1.5200172
1.5200979
1.5198977
1.5199608
1.5196105
1.5196933
1.5202185
1.5201829
1.5207392
1.5202989
1.5202672
1.5200487
1.5197324
1.5202903
1.5201438
1.5197994
1.5201035
1.520129
1.5200729
1.5200942
1.5199571
1.5196387
1.5199618
1.51967
1.5207204
1.5202111
1.520293
1.5202583
1.5209355
1.520366
1.5203378
1.5202713
1.5202243
1.5209031
1.5203488
1.5203061
1.5201746
1.5202152
1.5201432
1.5201788
1.5201509
1.5201873
1.5201085
1.5201394
1.5208901
1.5208653
1.5201331
1.5202296
1.5201023
1.5201961
1.520105
1.5201637
1.5200618
1.5201167
1.5201347
1.5201963
1.5201023
1.5201608
1.5200998
1.5201938
1.5200575
1.5201477
1.5201807
1.5207412
1.520726
1.5202146
1.5209398
1.5209236
1.5208979
1.5209092
1.5203587
1.5203229
1.5204656
1.5204322
1.5203836
1.5203731
1.5204917
1.5204798
1.5204419
1.520412
1.5205987
1.5205694
1.5204667
1.5204584
1.5206249
1.5206135
1.5204719
1.5204207
1.5205751
1.5205291
1.5206429
1.5208863
1.5209426
1.5207432
1.521517
1.5216142
1.5216652
1.5215821
1.5205547
1.5205101
1.520707
1.5206661
1.5207262
1.5209349
1.5210338
1.520867
1.5202353
1.5203198
1.5201927
1.5202763
1.5202599
1.520346
1.5202449
1.5203285
1.5203019
1.5202891
1.5204188
1.5204033
1.5202768
1.5202371
1.5203922
1.5203519
1.5214945
1.5215889
1.5216049
1.5215179
1.5203468
1.5204286
1.5202886
1.5203717
1.5203896
1.5203342
1.5205016
1.5204482
1.5207986
1.5208458
1.5205086
1.5205906
1.5205593
1.5208305
1.5208978
1.5206662
1.5216452
1.5216298
1.521626
1.5216412
1.5216574
1.5217056
1.5216526
1.5216994
1.5216127
1.5215842
1.5215859
1.5216098
1.5215488
1.5215648
1.5214457
1.5215205
1.5215352
1.5215086
1.521461
1.5214641
1.5215761
1.5215502
1.5214923
1.5213884
1.5207549
1.5208158
1.5204541
1.5205445
1.5203029
1.5202462
1.5203592
1.5202999
1.5207356
1.5207751
1.5204382
1.520498
1.5203025
1.5203937
1.5202439
1.5203337
1.5203379
1.5203771
1.520286
1.5203196
1.5207276
1.5207646
1.5204538
1.5204968
1.5207769
1.5205444
1.5208037
1.5211316
1.5206
1.5204461
1.5203944
1.5210496
1.5204668
1.5205112
1.5210677
1.5210025
1.5202172
1.5202005
1.5203129
1.5202921
1.5201975
1.5201523
1.520255
1.5202067
1.5202219
1.5202807
1.5202037
1.5202585
1.5201931
1.5201488
1.5202866
1.5202393
1.52024
1.5202781
1.5201954
1.5202283
1.5202623
1.5203028
1.5202442
1.5202792
1.5203784
1.5203553
1.5210275
1.5204474
1.5204299
1.5203567
1.5203081
1.5209908
1.5204288
1.5203851
1.5209783
1.5209492
1.5211078
1.5210805
1.5210421
1.5210543
1.5209938
1.5210224
1.5210363
1.5210027
1.5216752
1.5217313
1.521736
1.5216894
1.5213715
1.5211236
1.5210985
1.5210788
1.5210914
1.521077
1.5210615
1.5210327
1.5210429
1.5209638
1.5209318
1.5202695
1.5202334
1.5203795
1.5203448
1.5203072
1.5204174
1.5202857
1.5203964
1.5203926
1.5205488
1.5203754
1.5205304
1.5203559
1.5203245
1.5205115
1.5204798
1.5200529
1.5198072
1.5196982
1.519969
1.5200853
1.5200559
1.5201669
1.520135
1.5196528
1.5199325
1.5199887
1.5197288
1.5201279
1.520231
1.5202011
1.5200995
1.5202223
1.5203411
1.5201974
1.5203147
1.5201422
1.5201007
1.520229
1.5201861
1.5201785
1.5202665
1.5201497
1.5202367
1.5201854
1.5201466
1.5203027
1.5202621
1.5202852
1.5204228
1.5202603
1.5203966
1.5200414
1.519779
1.5201142
1.5198798
1.5202039
1.5203044
1.520177
1.5202769
1.5201119
1.5198591
1.5202309
1.5200074
1.5173324
1.5173772
1.5174045
1.517364
1.5176839
1.5175266
1.5175751
1.5177149
1.5174619
1.5173788
1.5174359
1.5174103
1.5177277
1.5177607
1.5175735
1.5176275
1.5172316
1.517179
1.517221
1.5171918
1.5172214
1.5172735
1.5172836
1.5172345
1.5172695
1.5172175
1.5172592
1.5172296
1.5172618
1.5173118
1.5172748
1.517322
1.5173224
1.517274
1.5173124
1.5172865
1.5173735
1.5173132
1.5173251
1.5173802
1.5173274
1.5173627
1.5173144
1.5173518
1.5174091
1.5173542
1.5173678
1.5174202
1.5174369
1.517478
1.5175033
1.5174669
1.5175419
1.5174794
1.5175086
1.5175642
1.5176247
1.517772
1.5176693
1.517797
1.5177232
1.5178087
1.5178492
1.5176659
1.5170961
1.5171376
1.5171388
1.5170981
1.5171038
1.517098
1.5171402
1.5171445
1.5171394
1.5171895
1.5171909
1.5171419
1.517149
1.5171427
1.5171933
1.5171975
1.5171384
1.5171894
1.5171905
1.5171412
1.5171384
1.5170948
1.5171366
1.5170978
1.5171013
1.5171425
1.5171416
1.5171008
1.5171446
1.5171942
1.5171935
1.5171451
1.5171911
1.5172289
1.5172298
1.5171931
1.5171966
1.5172336
1.5172334
1.5171971
1.5172877
1.5172308
1.5172895
1.5172322
1.5172357
1.5172905
1.5172901
1.5172366
1.5171916
1.517229
1.5172309
1.5171943
1.5172023
1.5171962
1.5172344
1.5172391
1.517231
1.5172869
1.5172865
1.5172337
1.5172437
1.517237
1.517292
1.5172972
1.5171642
1.5172031
1.5172279
1.5171919
1.517512
1.5173539
1.5173983
1.5175457
1.5171941
1.5172432
1.5172691
1.517224
1.5175528
1.5173895
1.5174396
1.5175884
1.5170326
1.5170684
1.5170766
1.5170428
1.5170659
1.5171014
1.5171079
1.517074
1.517058
1.5171021
1.5171107
1.5170692
1.517093
1.5171357
1.5171429
1.5171025
1.5171397
1.5170937
1.5171308
1.5171052
1.517126
1.5171798
1.5171891
1.5171371
1.517174
1.5171292
1.5171654
1.5171394
1.517162
1.5172153
1.5171735
1.5172243
1.5172358
1.5172761
1.5173032
1.5172666
1.5175959
1.5174318
1.5174768
1.5176267
1.5173318
1.5173587
1.5172726
1.5173041
1.5176369
1.5174716
1.5175292
1.5176751
1.5170464
1.5170075
1.5170449
1.5170107
1.5170412
1.5170941
1.5170954
1.5170435
1.5170123
1.5170475
1.5170142
1.5170504
1.5170465
1.5170994
1.5170452
1.5170968
1.5169481
1.5169837
1.5169848
1.5169508
1.5169513
1.5169862
1.5169885
1.5169552
1.5170178
1.5169739
1.5170171
1.5169766
1.5170216
1.5169765
1.517019
1.5169813
1.5169836
1.5169453
1.5169813
1.5169492
1.5169713
1.5170153
1.517017
1.5169752
1.5169836
1.5169522
1.5169875
1.5169492
1.5169784
1.5170212
1.5169762
1.5170174
1.5170095
1.5170461
1.5170464
1.5170115
1.5170115
1.5170477
1.5170165
1.5170512
1.5170948
1.517095
1.5170419
1.5170431
1.517049
1.5170432
1.5170962
1.5170996
1.5172916
1.5172698
1.5174198
1.5173791
1.5169563
1.5169351
1.5168122
1.5168059
1.5177505
1.5177023
1.5174524
1.5175102
1.5167999
1.51725
1.5174488
1.5175549
1.5174986
1.5173969
1.5169664
1.517088
1.5170575
1.5169427
1.5175969
1.5175804
1.5176637
1.517513
1.517062
1.5172021
1.5170955
1.5171626
1.5166912
1.5166894
1.5168051
1.5167958
1.5167617
1.5167492
1.516651
1.516649
1.5172269
1.5172707
1.5173161
1.5172715
1.5166508
1.5166896
1.5168055
1.5169029
1.5168913
1.5167971
1.5167604
1.5168539
1.5168374
1.5167488
1.5169866
1.5169006
1.51689
1.5169735
1.5168342
1.5169139
1.5168496
1.5169326
1.517635
1.5175838
1.5174159
1.5173558
1.5171687
1.5172094
1.5172477
1.5172072
1.516593
1.516592
1.5166949
1.5166879
1.5166759
1.5166675
1.516572
1.5165717
1.5171239
1.5171327
1.5171736
1.5171639
1.5165733
1.5165932
1.5166925
1.516687
1.5167703
1.5167781
1.5167724
1.5168479
1.5168408
1.5167666
1.5167508
1.5166734
1.5167611
1.5166669
1.5167556
1.5168325
1.5167475
1.516822
1.516669
1.5166654
1.5167571
1.5167509
1.5167475
1.5168286
1.5168234
1.5167512
1.5166674
1.5166617
1.5167445
1.5167545
1.5167498
1.5167423
1.5168261
1.5168158
1.516568
1.5165679
1.5166717
1.5166658
1.5166689
1.516661
1.5165663
1.5165665
1.5171199
1.5171601
1.5171465
1.5171046
1.5165671
1.5165694
1.5170526
1.5170695
1.517087
1.5171033
1.5170725
1.5170825
1.5171164
1.5171067
1.5168214
1.5168782
1.5168749
1.5168189
1.5168125
1.5168204
1.5168763
1.5168667
1.5169203
1.5168682
1.5169225
1.5168672
1.5168604
1.516912
1.5168678
1.5169212
1.5168902
1.5168409
1.5168964
1.5168357
1.5168866
1.5169402
1.5169344
1.516882
1.5168727
1.5168258
1.5168822
1.5168175
1.5168726
1.5169268
1.516865
1.5169177
1.5169653
1.5169301
1.5169707
1.5169257
1.5170086
1.5169591
1.5169547
1.5170029
1.5169097
1.5169496
1.5169169
1.5169577
1.5169954
1.516946
1.5169397
1.5169879
1.5169122
1.5169533
1.5169523
1.5169123
1.516991
1.5169414
1.5169424
1.5169905
1.5169125
1.5169053
1.5169527
1.5169444
1.5169908
1.516936
1.5169828
1.5169424
1.5170343
1.5169833
1.5170472
1.5169712
1.5170411
1.5171021
1.5170884
1.5170285
1.5169271
1.5169097
1.5169884
1.5169691
1.5169798
1.5169616
1.5170395
1.5170195
1.517688
1.5176098
1.5177531
1.5176742
1.5176828
1.5177384
1.5177743
1.5178279
1.517244
1.5172086
1.5172874
1.5171661
1.5172904
1.5172428
1.5173648
1.5173154
1.5178492
1.5177457
1.517893
1.517792
1.5177949
1.5178415
1.5179123
1.5179533
1.5173134
1.5173701
1.5173675
1.5174243
1.5174241
1.5173644
1.5174875
1.5174289
1.5171281
1.5170959
1.5171429
1.5170821
1.5171908
1.5171349
1.5171193
1.5171735
1.5170116
1.5170559
1.5170308
1.5170759
1.5171206
1.5170654
1.5170458
1.5170998
1.5175111
1.5174462
1.5173147
1.5172476
1.5173716
1.5172991
1.5171406
1.5172046
1.5171068
1.517053
1.5170205
1.5170695
1.5170954
1.5171341
1.517181
1.5171424
1.5169416
1.5169553
1.5169985
1.5169855
1.5169807
1.517008
1.5170196
1.5170609
1.51705
1.5170478
1.5170025
1.5169872
1.5170296
1.516939
1.516951
1.5169929
1.5169812
1.5169903
1.5169916
1.5169996
1.51701
1.5170438
1.5170342
1.5170576
1.5170972
1.5170899
1.5170485
1.5170434
1.5170063
1.5170098
1.5170437
1.5170572
1.5170552
1.5170949
1.517095
1.5174607
1.5172006
1.5172569
1.5174931
1.517087
1.5170817
1.5171201
1.5171258
1.5171784
1.5171295
1.5171382
1.5171837
1.5174993
1.5172527
1.5173121
1.517534
1.5170665
1.5170663
1.5171069
1.5171
1.5170602
1.5170509
1.5170907
1.5170466
1.5170858
1.5171527
1.5171028
1.5171596
1.5170958
1.5170818
1.5171385
1.5170852
1.517143
1.5169984
1.5170375
1.5170316
1.5169937
1.5169851
1.5170239
1.5170175
1.5169794
1.5170676
1.5170269
1.5170744
1.5170215
1.5170536
1.5170127
1.5170598
1.5170079
1.5170866
1.5170467
1.5170866
1.5170482
1.5170817
1.5171381
1.5171383
1.5170829
1.5170437
1.5170816
1.5170487
1.5170875
1.5170839
1.5171391
1.5170795
1.5171334
1.5169819
1.5169759
1.5170127
1.5170198
1.5169806
1.5170196
1.5170196
1.516982
1.5170102
1.5170086
1.5170555
1.5170552
1.5170558
1.5170103
1.5170048
1.5170489
1.5172104
1.5171846
1.5172289
1.5171664
1.5172219
1.5172741
1.517254
1.517202
1.5171349
1.5171117
1.5171551
1.5170915
1.5171454
1.5171984
1.5171252
1.5171773
1.517974
1.5178451
1.518009
1.517887
1.5178884
1.5179323
1.5180286
1.5180617
1.5174785
1.5174887
1.5175387
1.5174248
1.5175379
1.5174719
1.5175959
1.517533
1.5180838
1.5179835
1.518115
1.5179369
1.5181406
1.5179919
1.5181719
1.5180424
1.5175299
1.5175847
1.5175978
1.5176473
1.5177194
1.5176532
1.517586
1.5176586
1.5172939
1.51727
1.5173152
1.5172483
1.5173787
1.5173154
1.5172918
1.5173564
1.5171705
1.5172158
1.5171914
1.5172365
1.5172995
1.5172334
1.5172129
1.5172788
1.5173853
1.5174354
1.5174146
1.5173619
1.5172836
1.517304
1.5173558
1.5173367
1.5174426
1.5175019
1.5174817
1.5174201
1.5173417
1.5173609
1.5174243
1.5174057
1.5182008
1.5182283
1.5181058
1.5180572
1.5177315
1.5177831
1.5177283
1.5176677
1.5182581
1.5182833
1.5181675
1.5181205
1.5177952
1.5178568
1.5178059
1.5177364
1.5183148
1.5183366
1.5182264
1.5181836
1.51787
1.5179175
1.5178699
1.5178145
1.5183686
1.518396
1.5182878
1.5182424
1.5179303
1.5179917
1.5179451
1.5178771
1.5175102
1.5175559
1.5175364
1.517488
1.5174115
1.5174304
1.5174783
1.5174609
1.5175641
1.5176283
1.5176062
1.517542
1.517466
1.5174841
1.5175514
1.5175342
1.5172677
1.5173024
1.5173092
1.5172606
1.5173739
1.5173127
1.517305
1.5173633
1.5172876
1.5172485
1.5172902
1.5172463
1.5173506
1.5172918
1.5172901
1.5173476
1.5171611
1.5172063
1.5172
1.5171548
1.517264
1.5172089
1.5172026
1.5172571
1.517144
1.5171412
1.5171894
1.5171861
1.5172461
1.5171888
1.5172426
1.5171909
1.5171381
1.517182
1.5171833
1.5171402
1.5171366
1.5171408
1.5171837
1.517179
1.517237
1.5171823
1.5172358
1.517185
1.517182
1.517233
1.5171855
1.5172377
1.5172367
1.5172392
1.5172771
1.5172785
1.5173379
1.5172802
1.5173367
1.517278
1.5172401
1.5172794
1.5172756
1.5172364
1.517336
1.5172817
1.5173396
1.5172785
1.5169216
1.5168832
1.5169201
1.5168858
1.5169093
1.516955
1.5169568
1.5169128
1.5168842
1.5169198
1.5168885
1.5169252
1.5169156
1.5169605
1.516912
1.5169555
1.5168048
1.5168552
1.5168532
1.5168037
1.5168109
1.5168103
1.5168597
1.5168587
1.5168945
1.516847
1.5168954
1.5168473
1.5168537
1.5168991
1.5168518
1.5168992
1.5168515
1.5168018
1.5168525
1.5168016
1.5168439
1.5168925
1.5168926
1.5168451
1.5168478
1.5168035
1.5168546
1.5167979
1.5168475
1.5168961
1.5168426
1.5168897
1.5168865
1.516923
1.5169231
1.5168879
1.5168906
1.5169264
1.5168933
1.5169277
1.5169575
1.5169579
1.5169126
1.5169147
1.51692
1.5169163
1.5169603
1.5169618
1.5166655
1.5166632
1.5167439
1.5167392
1.5167384
1.5168097
1.5168057
1.5167406
1.5166739
1.5166738
1.5167473