/*--------------------------------*- C++ -*----------------------------------*\
  =========                 |
  \\      /  F ield         | OpenFOAM: The Open Source CFD Toolbox
   \\    /   O peration     | Website:  https://openfoam.org
    \\  /    A nd           | Version:  7
     \\/     M anipulation  |
\*---------------------------------------------------------------------------*/
FoamFile
{
    version     2.0;
    format      ascii;
    class       volScalarField;
    location    "3000";
    object      nut;
}
// * * * * * * * * * * * * * * * * * * * * * * * * * * * * * * * * * * * * * //

dimensions      [0 2 -1 0 0 0 0];

internalField   nonuniform List<scalar> 
33730
(
7.2619285e-19
4.9459854e-20
6.0694023e-18
3.014715e-19
5.4604634e-20
3.2015916e-19
8.3561849e-19
5.8644702e-20
3.4238633e-20
2.6379954e-20
2.2370662e-20
4.1195178e-20
4.3243153e-20
4.6310892e-20
1.5939019e-18
1.4780728e-18
5.4363526e-18
2.0479152e-19
1.2667344e-19
2.3159544e-19
7.0147307e-20
2.4015866e-19
2.322217e-19
1.3431973e-19
3.1099665e-19
1.4172958e-19
3.5817628e-19
5.5992489e-20
7.5157115e-20
8.2243268e-19
3.5358726e-20
2.4443413e-20
1.2002664e-20
2.0308983e-20
2.4982076e-20
2.838471e-20
2.0487022e-20
2.0466689e-20
1.217475e-20
4.8289788e-20
4.8554726e-20
5.3214975e-20
5.413123e-20
2.6481077e-20
2.8779117e-20
2.1104778e-19
1.6996916e-20
1.393588e-20
1.2712673e-19
4.0324597e-20
2.6275097e-19
1.8479441e-20
1.6533461e-20
1.7018256e-19
1.3790024e-18
1.1784857e-19
9.3303469e-19
1.1232943e-19
8.9877952e-19
1.0592452e-19
9.078969e-19
1.0839709e-19
8.4646147e-19
2.6432406e-18
4.3255096e-20
1.5067762e-18
1.0706306e-19
1.0071158e-19
7.8882589e-20
7.0734956e-20
1.0688949e-19
8.239462e-20
1.1231036e-19
8.4986908e-20
9.7845854e-20
2.0625211e-19
9.9797912e-20
1.0627589e-19
1.0541497e-19
1.0763333e-19
1.0004391e-19
9.186531e-20
8.0674449e-20
8.0084541e-20
2.4338621e-19
1.054003e-19
2.3807776e-19
2.4039947e-19
3.2236032e-19
1.4190714e-19
1.1769552e-19
7.102451e-20
3.4442542e-19
5.9643528e-20
1.31662e-20
2.6582868e-20
1.30781e-20
2.1733037e-20
2.6911613e-20
2.6301404e-20
2.107242e-20
2.5056897e-20
3.4881484e-20
3.7044985e-20
4.0722476e-20
3.8734507e-20
1.7768089e-20
1.7318652e-20
2.5925431e-20
2.5971041e-20
6.1414141e-21
6.2619568e-21
4.5127873e-20
4.2569793e-20
4.0664765e-20
4.0074702e-20
2.6707947e-20
1.7319181e-20
1.6896998e-20
2.5352892e-20
1.7545079e-20
1.9182519e-20
1.6867616e-20
1.5667197e-20
9.5485279e-21
3.6025178e-20
2.3464807e-20
2.3178038e-20
4.1860664e-20
4.2898136e-20
4.2061458e-20
4.3125778e-20
4.4457355e-20
5.0445112e-20
4.6694309e-20
4.2815648e-20
4.6941781e-20
5.854597e-20
5.6311046e-20
5.6578199e-20
3.1423411e-20
1.9656923e-20
1.868914e-20
4.1408439e-20
2.9971051e-20
2.5300828e-20
4.2428541e-20
1.9292248e-19
1.6036044e-20
1.329873e-20
1.2161372e-19
4.2860685e-20
2.8787099e-20
2.5774945e-20
4.0716907e-20
1.0670853e-19
1.0335225e-19
9.1716576e-19
8.4883619e-19
6.0920877e-20
5.9672544e-20
9.9939549e-20
1.0438972e-19
9.4388464e-20
9.2260007e-20
3.8639533e-19
3.7866054e-19
5.7983701e-20
6.038752e-20
1.015772e-19
1.0120083e-19
9.1798339e-20
8.6159554e-20
3.9316738e-19
3.463082e-19
6.2411397e-20
5.98953e-20
1.0213623e-19
1.0349929e-19
9.2725973e-20
9.0345605e-20
3.795536e-19
3.7855039e-19
6.0203028e-20
5.718613e-20
1.0472512e-19
9.8143295e-20
9.2483723e-20
8.7495474e-20
3.885366e-19
3.4280834e-19
3.6124749e-20
3.6572831e-20
1.4047141e-18
1.3187823e-18
2.0841492e-19
1.6847813e-20
1.5597811e-20
1.6837636e-19
1.0982779e-19
1.1003724e-19
9.2327344e-19
9.178e-19
4.2848374e-20
4.0213418e-20
4.329389e-20
4.0189212e-20
4.1805578e-20
3.970414e-20
3.8996112e-20
3.8522709e-20
4.0402528e-20
4.2692434e-20
4.0337466e-20
4.2547362e-20
4.4089054e-20
4.1736722e-20
4.3470095e-20
4.0993056e-20
9.3978538e-20
3.6699952e-20
3.8945196e-20
4.0069713e-20
4.2844811e-20
1.008339e-19
8.8117578e-20
7.2813689e-20
4.0935432e-20
4.1715444e-20
4.107167e-20
4.1929965e-20
4.3093072e-20
4.3608596e-20
4.2487922e-20
4.2601545e-20
4.1561843e-20
3.931875e-20
3.9494036e-20
3.9794874e-20
1.0647568e-19
1.0981238e-19
1.0262766e-19
9.8938479e-20
1.0821395e-19
1.0441241e-19
9.1240376e-20
7.7824977e-20
2.0846377e-19
9.714121e-20
1.0825159e-19
9.8167625e-20
9.1047614e-20
1.2586596e-19
2.3803968e-19
9.5697245e-20
2.4076608e-19
1.2572986e-19
2.7143864e-20
1.7274919e-20
1.7778198e-20
2.565055e-20
6.3340402e-21
4.181687e-20
4.119102e-20
5.2708344e-20
4.9058456e-20
2.8170128e-20
1.3612175e-20
3.2258318e-20
1.8897467e-20
3.2367691e-20
1.892455e-20
6.2572734e-21
3.9387585e-20
4.1472223e-20
4.426928e-20
3.5531914e-20
3.6807254e-20
3.5861156e-20
3.8057022e-20
3.6867392e-20
3.827859e-20
3.4939592e-20
3.7137943e-20
3.9843771e-20
2.5259815e-20
2.5341253e-20
2.5984442e-20
2.61026e-20
2.5245786e-20
2.6252993e-20
2.5467022e-20
2.6222418e-20
1.5227495e-20
1.6671237e-20
1.5609669e-20
1.7187129e-20
9.8787004e-21
1.5129056e-20
1.5967515e-20
1.6468704e-20
1.4552207e-20
9.266041e-21
1.9496504e-20
1.9664821e-20
1.8748403e-20
1.8300759e-20
2.0726409e-20
1.9296049e-20
1.8580743e-20
1.9707159e-20
9.6319856e-21
9.8127234e-21
9.1881458e-21
9.1931165e-21
2.649578e-20
2.589109e-20
2.5893478e-20
2.5216998e-20
2.6299796e-20
2.4621104e-20
2.5299179e-20
2.6778863e-20
4.291462e-20
3.8207744e-20
4.9956914e-20
5.040553e-20
4.7345821e-20
3.921196e-20
3.8812697e-20
4.338755e-20
1.8925823e-20
2.2209705e-20
2.1922228e-20
1.9350073e-20
1.9540847e-20
1.959811e-20
1.5714146e-20
1.5699532e-20
1.4898022e-20
1.7161696e-20
1.4943885e-20
1.7596771e-20
2.0418891e-20
1.9783579e-20
1.8338017e-20
1.8845168e-20
1.8052638e-20
1.4562746e-20
1.8918456e-20
1.5287616e-20
1.6720588e-20
1.4948961e-20
1.7404943e-20
1.5781603e-20
1.3048019e-20
1.2076059e-20
1.4169596e-20
1.3020035e-20
9.510967e-21
1.0216756e-20
1.2068357e-20
1.3146822e-20
1.2433169e-20
1.0494262e-20
1.3431966e-20
1.2976857e-20
1.5684599e-20
1.5532444e-20
1.677203e-20
1.5081341e-20
1.6986862e-20
1.6904994e-20
1.3323475e-20
1.7518375e-20
1.3624267e-20
1.738994e-20
1.4750369e-20
1.7958648e-20
1.5331517e-20
2.3721064e-20
2.4069508e-20
2.4676178e-20
2.373584e-20
2.3806883e-20
2.4070523e-20
2.5765003e-20
2.4927812e-20
2.2958991e-20
2.3309775e-20
4.1298724e-20
4.447298e-20
2.4642716e-20
2.4594712e-20
2.4051995e-20
2.3270705e-20
2.5809368e-20
2.4542793e-20
4.7388626e-20
4.7603519e-20
4.6392492e-20
4.5475506e-20
4.7391477e-20
4.3817215e-20
6.0184429e-20
5.2529214e-20
6.3240879e-20
1.8881513e-20
1.8618363e-20
3.0889538e-20
3.1193985e-20
1.6387451e-19
7.2207678e-20
7.28283e-20
4.4756177e-20
3.175832e-20
1.9739841e-19
7.7425834e-20
7.3605977e-20
4.1063143e-20
3.022612e-20
2.5236702e-20
4.1350857e-20
1.8480739e-19
7.5552176e-20
7.7246391e-20
4.1159227e-20
3.421327e-20
1.3514189e-19
7.5907629e-20
7.4295566e-20
9.5545021e-20
5.6509703e-20
1.0180494e-19
5.9294907e-20
6.0898814e-20
5.8849271e-20
9.9243295e-20
9.9973273e-20
3.9466357e-19
9.3635752e-20
9.1837766e-20
3.9362291e-19
9.1071755e-20
4.0002375e-19
9.4514088e-20
3.5493241e-19
3.8558433e-20
3.8033702e-20
3.4584367e-20
3.4581777e-20
5.2119077e-20
4.8629698e-20
3.4750962e-20
3.411031e-20
5.0622947e-20
5.0293688e-20
3.298639e-20
3.1687433e-20
1.0455059e-19
1.0146354e-19
3.1465552e-20
9.515297e-20
3.2888392e-20
1.0080282e-19
3.7797337e-20
3.8076947e-20
4.8126089e-20
3.4500119e-20
5.1527703e-20
3.4657578e-20
4.9410606e-20
4.9413069e-20
3.433184e-20
3.3700122e-20
3.2123555e-20
3.296069e-20
1.0398699e-19
1.0310273e-19
3.1002559e-20
1.0468471e-19
9.7576683e-20
3.2722877e-20
3.8527067e-20
3.9204359e-20
4.7533523e-20
5.1083418e-20
3.3933522e-20
3.4153681e-20
5.0091108e-20
5.0431937e-20
3.4037306e-20
3.3869893e-20
3.2041412e-20
1.034695e-19
3.0996578e-20
1.0058968e-19
3.0878904e-20
9.8975058e-20
3.2306226e-20
1.0286952e-19
3.7695846e-20
3.742895e-20
4.9013041e-20
5.2239867e-20
3.5048251e-20
3.5381616e-20
5.0347411e-20
5.0517432e-20
3.5153994e-20
3.4467446e-20
3.1793816e-20
1.0071262e-19
3.2932932e-20
1.0440317e-19
3.2483905e-20
3.0750545e-20
1.0487777e-19
9.770904e-20
1.4497106e-20
1.3919624e-20
1.5666318e-19
1.3373603e-20
1.5300844e-20
1.7212745e-19
1.2470937e-19
1.0088061e-19
9.6286844e-19
1.0452257e-19
1.0120134e-19
9.499924e-19
8.8583766e-19
4.0978815e-20
2.9202758e-20
2.5543064e-20
4.1243491e-20
5.8263819e-20
5.6254555e-20
9.5065142e-20
1.0133917e-19
6.1121608e-20
1.0162613e-19
5.8297538e-20
1.0074367e-19
9.2802343e-20
3.868576e-19
9.2579072e-20
4.0357377e-19
8.9644443e-20
4.1488687e-19
9.4437934e-20
3.6932153e-19
4.5728366e-20
4.3008393e-20
1.2733771e-20
1.3955738e-20
1.3164716e-20
4.5856644e-20
4.380953e-20
1.2816001e-20
4.4497763e-20
4.3548777e-20
1.2478468e-20
1.3370382e-20
4.2005443e-20
4.3891276e-20
1.2771126e-20
1.2592018e-20
4.7372209e-20
4.3669838e-20
1.2333874e-20
1.4086567e-20
4.7744615e-20
4.3585828e-20
1.3187088e-20
1.3492768e-20
4.8781359e-20
4.5669418e-20
1.3043527e-20
1.4319783e-20
4.973989e-20
4.6704953e-20
1.3642873e-20
1.3462129e-20
3.9141641e-20
3.7038545e-20
3.7886708e-20
3.8583362e-20
4.1566875e-20
3.7220865e-20
1.1071899e-20
1.2627806e-20
4.2326836e-20
4.0756744e-20
1.1960685e-20
1.247489e-20
3.9702603e-20
4.0471966e-20
3.9761762e-20
3.9785086e-20
4.6655525e-20
4.5164414e-20
1.2077715e-20
1.336457e-20
4.6461588e-20
4.8016176e-20
1.2748878e-20
1.2972348e-20
4.7706832e-20
4.6199667e-20
1.2958118e-20
1.417598e-20
4.4987455e-20
4.6496909e-20
1.336036e-20
1.3190357e-20
4.4673423e-20
1.2549866e-20
1.2996297e-20
4.7461505e-20
4.5173741e-20
4.2273019e-20
1.2534402e-20
1.2700194e-20
4.0108019e-20
4.2137181e-20
4.5103685e-20
4.3458563e-20
4.2564094e-20
4.2084345e-20
4.2955036e-20
4.4184708e-20
4.3450938e-20
4.3932456e-20
4.435137e-20
4.4984219e-20
4.4519998e-20
4.3704777e-20
4.2277576e-20
4.3048115e-20
1.0107167e-19
9.5260949e-20
7.8777621e-20
8.958811e-20
4.3447393e-20
4.2374564e-20
4.4959949e-20
4.5694709e-20
4.0551062e-20
3.7703159e-20
4.0678741e-20
4.5926777e-20
9.9693884e-20
1.0225934e-19
1.1280068e-19
1.0974813e-19
1.0816933e-19
1.033714e-19
1.0348344e-19
8.7944264e-20
1.9674426e-20
1.8841204e-20
1.7100513e-20
1.771063e-20
1.4114484e-20
1.4687499e-20
1.5119111e-20
1.5887765e-20
8.8950552e-21
1.5093285e-20
1.5417906e-20
1.6696969e-20
1.6972576e-20
9.7792635e-21
1.9341185e-20
2.0619869e-20
1.989032e-20
1.9567907e-20
9.6043609e-21
9.7901535e-21
3.9391967e-20
3.7960351e-20
4.0300346e-20
4.2324422e-20
4.1653461e-20
3.6659033e-20
3.5082335e-20
4.6779996e-20
4.4401388e-20
2.6733521e-20
2.5858293e-20
2.5267247e-20
2.6429489e-20
4.7956869e-20
2.6935839e-20
2.6976813e-20
2.4745261e-20
2.4296703e-20
4.7540951e-20
3.8707794e-20
2.8516992e-20
1.7757097e-20
1.878269e-20
2.9942101e-20
6.313682e-21
1.9252083e-20
2.2220287e-20
2.0771029e-20
2.0361584e-20
1.7989849e-20
1.7339451e-20
1.5435696e-20
1.5975951e-20
1.0162065e-20
1.9393755e-20
2.147355e-20
2.082846e-20
1.9568996e-20
1.7408566e-20
1.6883885e-20
1.538918e-20
1.5526875e-20
9.4437619e-21
1.0639346e-20
1.0782223e-20
3.8384297e-20
4.5395674e-21
4.4692408e-21
4.2595091e-20
4.0113955e-20
4.8087001e-20
4.8292152e-20
2.3852e-20
2.322138e-20
2.4033141e-20
2.3123585e-20
2.6936855e-20
2.6338049e-20
2.5839902e-20
2.7337421e-20
4.0944319e-20
3.6759176e-20
3.5355318e-20
3.7485306e-20
1.8773448e-20
1.8787022e-20
1.7265203e-20
1.7018892e-20
1.9156781e-20
1.7870446e-20
1.9056367e-20
1.7500193e-20
2.0644929e-20
1.6465977e-20
2.1248889e-20
1.6384328e-20
2.0322226e-20
1.5775262e-20
2.06971e-20
1.5707952e-20
1.9936922e-20
2.0372597e-20
1.8360769e-20
1.8416293e-20
1.6765538e-20
1.8225693e-20
1.8393059e-20
1.6476773e-20
1.955834e-20
2.0635019e-20
1.593335e-20
1.6582315e-20
2.1643752e-20
2.2356223e-20
1.6985381e-20
1.7008091e-20
1.9145054e-20
1.9336449e-20
1.6474524e-20
1.6779034e-20
1.9554622e-20
1.9699741e-20
1.7001033e-20
1.7179044e-20
1.8509805e-20
1.4776907e-20
1.8864463e-20
1.4927914e-20
1.8057922e-20
1.8393179e-20
1.4221082e-20
1.4480655e-20
1.8121821e-20
1.4130545e-20
1.8501477e-20
1.4422062e-20
2.051962e-20
2.0897802e-20
1.7599404e-20
1.8094201e-20
1.9439943e-20
1.6525049e-20
1.9704822e-20
1.6878539e-20
1.9068569e-20
1.9735865e-20
1.5127393e-20
1.558047e-20
9.0169496e-21
1.0266912e-20
1.2358679e-20
1.2300844e-20
1.1134268e-20
1.2379483e-20
1.4279152e-20
1.1879226e-20
1.3458228e-20
9.8525404e-21
1.0688037e-20
1.3145932e-20
1.28672e-20
1.1803418e-20
1.3572271e-20
1.4794537e-20
1.2875948e-20
1.394923e-20
1.6951502e-20
1.5180748e-20
1.0287569e-20
1.0270704e-20
1.1050013e-20
1.2271292e-20
1.2371964e-20
1.413969e-20
1.3409138e-20
1.4232042e-20
1.3519593e-20
1.3621459e-20
1.2544157e-20
1.4077369e-20
1.3051016e-20
9.652616e-21
1.0029951e-20
1.0078314e-20
1.2186775e-20
1.1519711e-20
1.2867963e-20
1.2305402e-20
1.7299244e-20
1.7668428e-20
1.5833684e-20
1.6305885e-20
1.8644418e-20
1.7140375e-20
1.8270555e-20
1.6940035e-20
2.0620882e-20
1.6978284e-20
2.0273076e-20
1.6780374e-20
1.9300983e-20
1.5757786e-20
1.9619101e-20
1.607714e-20
1.7759921e-20
1.6257365e-20
1.8792005e-20
1.7322233e-20
1.6143115e-20
1.4873386e-20
1.7888265e-20
1.6392151e-20
1.7947953e-20
1.5150726e-20
1.9764526e-20
1.6390255e-20
1.9686808e-20
1.6187227e-20
2.0825804e-20
1.710493e-20
1.7124274e-20
1.2275687e-20
1.1515451e-20
1.351283e-20
9.9105281e-21
1.1084356e-20
1.2864484e-20
1.3580922e-20
1.4413608e-20
1.234992e-20
1.4698073e-20
1.2414123e-20
1.4324043e-20
1.3717518e-20
1.1244101e-20
1.1633007e-20
1.9415414e-20
1.9064457e-20
1.5330134e-20
1.4982133e-20
2.021353e-20
1.9664894e-20
1.7390779e-20
1.7062813e-20
1.8220987e-20
1.4250674e-20
1.8335771e-20
1.4292745e-20
1.9099192e-20
1.9033125e-20
1.6387508e-20
1.6576972e-20
1.9266242e-20
1.6540559e-20
2.0161836e-20
1.7373897e-20
1.7573943e-20
1.5321771e-20
1.8832432e-20
1.6206394e-20
1.6931449e-20
1.3628804e-20
1.8015705e-20
1.421519e-20
1.842431e-20
1.4539911e-20
1.9313673e-20
1.5175036e-20
1.8420784e-20
1.9200965e-20
1.7025619e-20
1.7544617e-20
1.6693954e-20
1.7486676e-20
1.5856065e-20
1.6132784e-20
1.9849979e-20
2.1137063e-20
1.6761881e-20
1.6978217e-20
2.1311556e-20
2.2333412e-20
1.6858615e-20
1.7156274e-20
2.2081734e-20
1.7559293e-20
2.2283392e-20
1.7323715e-20
1.932919e-20
1.7842887e-20
1.8773279e-20
1.7350531e-20
1.8262192e-20
1.8075618e-20
1.6955739e-20
1.6687827e-20
2.0879775e-20
1.6304973e-20
2.0946519e-20
1.620641e-20
1.9823515e-20
1.6087636e-20
2.046495e-20
1.6615193e-20
1.9016123e-20
1.9349616e-20
1.7255655e-20
1.7841736e-20
1.862894e-20
1.6975076e-20
1.9205489e-20
1.7638784e-20
2.0174533e-20
2.077501e-20
1.6478067e-20
1.7030929e-20
1.5095951e-20
1.3761866e-20
1.5742427e-20
1.4339564e-20
1.488513e-20
1.3760642e-20
1.5463387e-20
1.4539544e-20
1.0642329e-20
1.129845e-20
1.2683531e-20
1.3587316e-20
1.0824302e-20
1.1111064e-20
1.3226769e-20
1.2882801e-20
1.0006407e-20
1.0621343e-20
1.2718382e-20
1.2266805e-20
1.3356824e-20
1.2890757e-20
1.4553388e-20
1.3735523e-20
9.8966261e-21
1.0452091e-20
1.2501513e-20
1.1812728e-20
1.3589871e-20
1.2768416e-20
1.454964e-20
1.3606022e-20
1.7629663e-20
1.6274037e-20
1.8118232e-20
1.6911059e-20
1.7950027e-20
1.6724652e-20
1.8485961e-20
1.725902e-20
1.9717724e-20
1.6289174e-20
2.0306272e-20
1.6745062e-20
1.9378547e-20
1.5820771e-20
1.9948256e-20
1.6422051e-20
9.8858549e-21
1.0856309e-20
9.4854856e-21
1.1202323e-20
9.5164271e-21
7.7526465e-21
7.9923303e-21
1.0020986e-20
1.1915704e-20
1.0550022e-20
1.1716896e-20
1.0165986e-20
1.0278503e-20
8.2880856e-21
1.0642651e-20
8.599122e-21
1.3441716e-20
1.5095835e-20
1.2653649e-20
1.5847013e-20
1.2266061e-20
9.6538378e-21
1.0089756e-20
1.3035722e-20
1.4318138e-20
1.6356664e-20
1.36025e-20
1.6754096e-20
1.3404627e-20
1.0498794e-20
1.4021808e-20
1.0884465e-20
1.9278526e-20
2.2683616e-20
1.8072218e-20
2.3471579e-20
1.7908587e-20
1.3608417e-20
1.4404194e-20
1.8965329e-20
2.0616106e-20
2.3749423e-20
1.9538465e-20
2.4653392e-20
1.9800416e-20
1.4802349e-20
2.1087638e-20
1.5581609e-20
3.7619794e-20
3.8207935e-20
2.5644461e-20
2.676941e-20
2.8966022e-20
2.9939479e-20
4.4925529e-20
4.3345182e-20
2.1021772e-20
8.0932178e-21
9.4720437e-21
9.8183464e-21
8.5379543e-21
2.2653082e-20
4.3101751e-20
4.2657614e-20
2.9229499e-20
3.0014266e-20
8.6807219e-21
1.0416913e-20
1.019042e-20
8.7504332e-21
2.3554756e-20
8.835307e-21
9.5348375e-21
9.1259836e-21
8.8503934e-21
9.4861905e-21
9.5079238e-21
8.9624263e-21
8.848842e-21
6.0733682e-21
6.3549412e-21
7.1701665e-21
5.301299e-21
5.4209046e-21
5.1827652e-21
5.565362e-21
5.3314225e-21
4.8746891e-21
4.978256e-21
5.6670948e-21
5.4210685e-21
5.6512374e-21
5.3055092e-21
5.6965186e-21
6.2217929e-21
6.5970182e-21
5.9441464e-21
6.7915591e-21
5.9402108e-21
5.0139899e-21
5.1803641e-21
6.3657965e-21
7.2444267e-21
6.553326e-21
7.097212e-21
6.367024e-21
6.3691491e-21
5.2430091e-21
6.565759e-21
5.3789728e-21
7.5827887e-21
8.3348838e-21
7.4022679e-21
8.5430697e-21
7.3926097e-21
6.0367354e-21
6.2205436e-21
7.627542e-21
8.1545278e-21
8.8944225e-21
7.9052744e-21
9.1114398e-21
7.9562143e-21
6.4745782e-21
8.1943574e-21
6.6725763e-21
1.4418979e-20
1.410981e-20
1.4063756e-20
1.3744543e-20
1.3961445e-20
1.4046501e-20
1.5086502e-20
1.3781368e-20
1.338913e-20
1.4518243e-20
1.4637176e-20
1.4926945e-20
1.4528341e-20
1.4868749e-20
1.4911727e-20
1.5353352e-20
2.2705343e-20
1.1943519e-20
1.2993974e-20
1.3457431e-20
1.3202712e-20
2.3312493e-20
2.4020461e-20
2.3128778e-20
1.33709e-20
1.3902779e-20
1.4257001e-20
1.4294108e-20
1.391316e-20
1.3387144e-20
1.3919813e-20
1.411287e-20
1.4471855e-20
1.46639e-20
1.530329e-20
1.4303236e-20
2.6088457e-20
2.5455329e-20
2.4911712e-20
2.4788439e-20
2.618588e-20
2.5323524e-20
2.6639201e-20
2.5925851e-20
2.6056489e-20
2.6391972e-20
2.3195601e-20
4.4610313e-20
2.452539e-20
4.4412788e-20
4.9274538e-20
4.446828e-20
5.0534605e-20
4.9076418e-20
1.7462801e-20
1.8782186e-20
3.0069257e-20
2.9820968e-20
3.5769698e-20
2.6410065e-20
3.1923145e-20
2.8190322e-20
2.7008637e-20
2.6287039e-20
6.9980062e-20
3.3913592e-20
3.5852821e-20
2.71743e-20
2.7288736e-20
6.9787522e-20
3.5182391e-20
3.6433006e-20
1.6043428e-19
7.1206679e-20
6.9668315e-20
4.5424353e-20
3.0308814e-20
1.5981299e-19
7.5108157e-20
7.4598897e-20
2.7708126e-20
2.7014308e-20
7.3229955e-20
3.4977542e-20
3.635519e-20
2.669487e-20
2.6634727e-20
6.9879308e-20
3.475921e-20
3.5051246e-20
3.644624e-20
3.6771264e-20
3.7535818e-20
3.8127123e-20
3.1898925e-20
9.9502121e-20
3.347943e-20
1.0455693e-19
5.0864882e-20
4.714125e-20
3.3926711e-20
3.4413827e-20
4.9486017e-20
4.9816124e-20
3.4331004e-20
3.3649524e-20
3.3072609e-20
3.1816741e-20
1.0435022e-19
1.0186913e-19
5.02556e-20
4.9997245e-20
3.4422936e-20
3.5015448e-20
3.3422232e-20
1.0260894e-19
3.2409958e-20
1.0243881e-19
5.1120546e-20
4.7888738e-20
3.4376179e-20
3.4868621e-20
3.3539245e-20
3.2205818e-20
1.032374e-19
9.6195426e-20
4.7868696e-20
4.9661507e-20
4.6755223e-20
4.8445434e-20
2.9082494e-20
2.7955882e-20
4.4885627e-20
4.9181626e-20
4.9017196e-20
4.5457842e-20
2.8379498e-20
2.8371039e-20
3.8219206e-20
3.7585176e-20
1.9157836e-20
1.9072307e-20
1.984671e-20
4.0253885e-20
3.9123839e-20
1.9179275e-20
1.9836213e-20
3.8886762e-20
3.9173216e-20
1.9694001e-20
1.9798126e-20
4.0119535e-20
3.8693107e-20
1.8990248e-20
9.5411461e-21
1.1807191e-20
1.178476e-20
9.1253548e-21
9.6678685e-21
1.2145303e-20
1.1893384e-20
8.6698241e-21
1.3503034e-20
1.0847052e-20
1.1432236e-20
1.4065797e-20
1.0861007e-20
1.1184122e-20
1.4220039e-20
1.3954821e-20
1.147022e-20
1.1414014e-20
9.2749098e-21
9.0901306e-21
1.260053e-20
1.035788e-20
1.1072813e-20
1.3257677e-20
9.7123189e-21
1.1870476e-20
1.1777545e-20
8.8058351e-21
1.101011e-20
1.1185499e-20
1.3691629e-20
1.361215e-20
4.5742241e-20
4.9852867e-20
4.9328445e-20
4.5439082e-20
2.7905675e-20
2.7634175e-20
4.634599e-20
4.9261956e-20
4.6159709e-20
4.8668707e-20
2.7702513e-20
2.8622974e-20
1.9357997e-20
3.7920367e-20
3.7318478e-20
1.9154782e-20
3.9874242e-20
3.8570574e-20
1.972099e-20
1.9108406e-20
1.9354345e-20
3.7863135e-20
3.81844e-20
1.9256403e-20
1.955089e-20
3.8936408e-20
1.8820266e-20
3.7839872e-20
9.0705286e-21
1.159662e-20
1.1495637e-20
8.7584714e-21
1.18258e-20
1.2054756e-20
8.5545474e-21
9.592499e-21
1.1386791e-20
1.4213036e-20
1.397255e-20
1.1151308e-20
1.340988e-20
1.0589304e-20
1.1311592e-20
1.4056122e-20
1.2221123e-20
1.1846151e-20
8.3214038e-21
9.3506195e-21
1.1088854e-20
1.153773e-20
1.4124263e-20
1.3598301e-20
1.3838208e-20
1.1013893e-20
1.0571777e-20
1.3485599e-20
1.1706588e-20
1.1638672e-20
8.8865759e-21
9.5487327e-21
4.5131518e-20
4.99987e-20
4.9951531e-20
4.5806862e-20
2.860857e-20
2.8405013e-20
4.7299868e-20
5.0320497e-20
4.9353366e-20
4.6766745e-20
2.8282112e-20
2.9335688e-20
2.7367138e-20
2.8460139e-20
3.6705538e-20
3.7325314e-20
1.8910301e-20
1.8800364e-20
1.9751107e-20
3.9197136e-20
3.7749077e-20
1.8849824e-20
2.8025537e-20
2.8098563e-20
3.8342283e-20
3.8367164e-20
1.9466533e-20
1.948936e-20
1.9841503e-20
3.9438859e-20
3.7939806e-20
1.893891e-20
1.166356e-20
1.165196e-20
9.5760685e-21
8.8838901e-21
1.3495174e-20
1.0921493e-20
1.1501807e-20
1.4136728e-20
9.6132405e-21
1.2161782e-20
1.1849694e-20
8.2839616e-21
1.0858255e-20
1.1175375e-20
1.4197057e-20
1.398889e-20
1.1362861e-20
1.1527085e-20
8.7869996e-21
8.5954473e-21
1.2918561e-20
1.0273111e-20
1.1038054e-20
1.3545517e-20
9.3851944e-21
1.1944248e-20
1.1667128e-20
8.2848805e-21
1.1019614e-20
1.1141024e-20
1.3895126e-20
1.378849e-20
4.4817288e-20
4.8983724e-20
4.8675262e-20
4.5140839e-20
4.5436677e-20
4.679173e-20
4.5155932e-20
4.7264398e-20
3.7611906e-20
3.8443049e-20
1.9406482e-20
1.9281595e-20
2.0213519e-20
4.0436256e-20
3.9185086e-20
1.938536e-20
2.0082471e-20
3.9224671e-20
3.9104567e-20
1.9846978e-20
3.8497529e-20
3.977279e-20
1.9780808e-20
1.9117108e-20
1.1521307e-20
1.1684616e-20
9.1000433e-21
8.6436732e-21
1.3193539e-20
1.0575595e-20
1.1411058e-20
1.399841e-20
9.5510484e-21
1.216499e-20
1.1924048e-20
8.3330802e-21
1.1202103e-20
1.135369e-20
1.4225506e-20
1.4235963e-20
9.3238143e-21
1.194074e-20
1.1926922e-20
8.7433471e-21
9.414628e-21
1.2265522e-20
1.1996613e-20
8.1168838e-21
1.3553311e-20
1.0899744e-20
1.147081e-20
1.4114416e-20
1.064666e-20
1.1033602e-20
1.3957129e-20
1.3612526e-20
2.6513923e-20
2.5520921e-20
3.7119959e-20
2.5046995e-20
2.8745337e-20
3.8994083e-20
3.9253341e-20
5.1825958e-20
5.4553713e-20
9.9102131e-20
9.2940474e-20
1.0049841e-19
9.2804259e-20
4.4316675e-19
3.9650623e-19
5.4241444e-20
5.7186111e-20
1.011183e-19
9.3781538e-20
5.7831948e-20
5.5580749e-20
9.5653118e-20
1.022059e-19
9.6315452e-20
9.4939598e-20
4.0691534e-19
4.1851021e-19
9.9699555e-20
9.2824132e-20
4.1967797e-19
3.8014909e-19
1.5335345e-19
7.4776261e-20
7.3250968e-20
4.4771213e-20
3.4426125e-20
1.5848296e-19
7.4274692e-20
7.5654305e-20
3.6375788e-20
3.6715683e-20
3.7538338e-20
3.7441886e-20
5.0856335e-20
4.8056312e-20
3.3995632e-20
3.4218377e-20
3.2031263e-20
3.3477487e-20
9.669373e-20
1.0161935e-19
4.9987197e-20
5.0373321e-20
3.4480298e-20
3.3864553e-20
3.3758062e-20
1.0594628e-19
3.2716205e-20
1.0098764e-19
5.0382583e-20
4.9851845e-20
3.4601712e-20
3.3907069e-20
3.2824281e-20
1.0266156e-19
3.4101672e-20
1.0646858e-19
5.174655e-20
4.8630171e-20
3.3921179e-20
3.4421866e-20
3.3846074e-20
3.2572413e-20
1.0640286e-19
1.0137879e-19
1.8388412e-20
1.744419e-20
1.8675261e-20
1.8382922e-20
1.8284115e-20
1.7593025e-20
1.679285e-20
1.7594058e-20
1.7560788e-20
1.6320146e-20
1.8069025e-20
1.8148777e-20
1.9305707e-20
1.8250988e-20
1.9148465e-20
1.8617261e-20
1.1620088e-20
4.2003988e-20
4.3597728e-20
1.2574354e-20
3.9599515e-20
4.2563748e-20
1.1936499e-20
1.21376e-20
1.5573368e-20
1.4648371e-20
1.6068313e-20
1.6578315e-20
1.2090219e-20
4.3791735e-20
4.5499249e-20
1.2824736e-20
4.3597696e-20
4.2252873e-20
1.2403432e-20
1.2315094e-20
1.7955081e-20
1.6885384e-20
1.7831994e-20
1.7816052e-20
1.871649e-20
1.7604201e-20
1.8560576e-20
1.8774572e-20
1.7367365e-20
1.7774487e-20
1.7303955e-20
1.6777984e-20
4.7360731e-20
4.3435192e-20
1.2366055e-20
1.3644992e-20
4.5920331e-20
4.8724029e-20
1.3220015e-20
1.2905173e-20
4.5524407e-20
4.8857713e-20
1.2860902e-20
1.3915284e-20
1.342207e-20
4.9584529e-20
4.7802068e-20
1.332832e-20
4.6865393e-20
5.1252101e-20
1.3191816e-20
1.4757454e-20
1.3801732e-20
5.2512757e-20
4.6266933e-20
1.3884557e-20
5.0207238e-20
4.7252752e-20
1.324651e-20
1.4488145e-20
4.8256835e-20
5.0984471e-20
1.3994369e-20
1.3742668e-20
4.0671966e-20
4.1234526e-20
4.1463175e-20
4.2696347e-20
4.0690445e-20
3.8573863e-20
4.2561866e-20
4.1294283e-20
5.1657991e-20
4.9059291e-20
1.3150863e-20
1.4289631e-20
4.8255138e-20
5.0463467e-20
1.4283276e-20
1.4133759e-20
4.5595102e-20
3.943358e-20
1.1413122e-20
1.2503031e-20
4.5201702e-20
4.6085294e-20
1.3204529e-20
1.3105038e-20
3.8883021e-20
4.0955455e-20
4.6169326e-20
4.3258111e-20
4.4579704e-20
4.4019944e-20
4.8806987e-20
4.6653777e-20
4.4375039e-20
4.354527e-20
4.4948058e-20
4.723862e-20
4.3724554e-20
4.1852388e-20
4.4669319e-20
4.6995952e-20
1.6742708e-20
1.7499611e-20
1.5297981e-20
1.6057952e-20
1.6802059e-20
1.5447729e-20
1.7133158e-20
1.579867e-20
1.8248729e-20
1.4914822e-20
1.8686968e-20
1.5286654e-20
1.8167625e-20
1.4787717e-20
1.9043487e-20
1.5441457e-20
9.0247604e-21
9.5823761e-21
1.0863978e-20
1.0832823e-20
1.1206151e-20
9.1578799e-21
9.9561897e-21
1.1397446e-20
1.1083927e-20
1.190542e-20
1.2513042e-20
1.2042813e-20
1.3338699e-20
1.2668001e-20
1.2617601e-20
1.3795736e-20
1.2031133e-20
1.2928375e-20
1.1802423e-20
1.3300806e-20
9.5616567e-21
1.0602826e-20
1.1876761e-20
1.1695134e-20
1.2494802e-20
9.8038296e-21
1.0672962e-20
1.2517196e-20
1.1839763e-20
1.2597871e-20
1.3293509e-20
1.289897e-20
1.4943117e-20
1.4225013e-20
1.3596439e-20
1.306061e-20
1.4909293e-20
1.4138775e-20
1.2946409e-20
1.2967067e-20
1.9726788e-20
1.6594033e-20
2.1195131e-20
1.7532333e-20
1.7963971e-20
1.6569134e-20
1.9007634e-20
1.7655437e-20
1.755566e-20
1.6312003e-20
1.8941651e-20
1.7547019e-20
1.997609e-20
1.6450222e-20
2.1155887e-20
1.7433175e-20
1.0748719e-20
1.0707498e-20
1.0316792e-20
1.2212835e-20
1.4044446e-20
1.1661929e-20
1.077761e-20
1.2747534e-20
1.978938e-20
2.0364157e-20
1.8389707e-20
1.8429204e-20
1.9249997e-20
1.9181777e-20
1.7995879e-20
1.7680304e-20
2.1953236e-20
2.2552414e-20
1.7371571e-20
1.7225927e-20
2.1661796e-20
2.2073647e-20
1.7780726e-20
1.7605055e-20
1.945861e-20
2.0410036e-20
1.7977951e-20
1.8613672e-20
1.8289516e-20
1.7039889e-20
1.6133335e-20
1.6972845e-20
3.7949437e-20
3.644098e-20
4.1146639e-20
3.9507098e-20
2.1890276e-20
2.3036056e-20
1.7609312e-20
1.7940716e-20
2.1585817e-20
1.9712096e-20
1.6721444e-20
1.7524002e-20
2.0493441e-20
1.764432e-20
2.1229151e-20
1.833082e-20
1.9803832e-20
1.6858576e-20
1.9834072e-20
1.7076035e-20
1.8582311e-20
1.8940613e-20
1.4867406e-20
1.4961461e-20
1.9206787e-20
2.0018995e-20
1.515374e-20
1.5576804e-20
2.5643347e-20
2.496991e-20
2.5541946e-20
2.6482488e-20
2.0413286e-20
1.7543529e-20
2.150445e-20
1.8507026e-20
1.9237637e-20
2.0275042e-20
1.5160057e-20
1.589399e-20
1.7831311e-20
1.5260027e-20
1.9555081e-20
1.6753743e-20
1.8452773e-20
1.6755771e-20
1.3443827e-20
1.4514635e-20
2.4313292e-20
2.4100342e-20
2.7169443e-20
2.7286906e-20
3.4707581e-20
4.1438812e-20
4.0850782e-20
4.7038201e-20
1.8287393e-20
2.1855725e-20
1.9376185e-20
2.0201995e-20
1.5513276e-20
1.7437652e-20
1.5042229e-20
1.4203587e-20
1.5428144e-20
9.1269253e-21
1.6339585e-20
1.9997461e-20
1.8230812e-20
1.8863885e-20
1.8825633e-20
9.9221957e-21
1.8428352e-20
1.5127023e-20
2.0763674e-20
1.6824284e-20
1.8921232e-20
2.0065966e-20
1.7194629e-20
1.8364695e-20
1.6679547e-20
1.526407e-20
1.8978854e-20
1.7293405e-20
2.0583058e-20
1.6863952e-20
2.1884196e-20
1.7971464e-20
1.4793874e-20
1.3819029e-20
1.6231242e-20
1.4970478e-20
1.3044253e-20
1.2361662e-20
1.5603582e-20
1.4414839e-20
9.2111885e-21
1.0860917e-20
1.1293124e-20
1.2345754e-20
1.2920185e-20
1.047403e-20
1.1365793e-20
1.2994796e-20
1.3597183e-20
1.2811794e-20
1.4101346e-20
1.422519e-20
2.0378783e-20
2.0687124e-20
1.6575712e-20
1.6836886e-20
1.8660874e-20
1.9489703e-20
1.7043938e-20
1.7909911e-20
1.8410403e-20
1.6928792e-20
1.8706758e-20
1.7283445e-20
2.0382274e-20
2.1351429e-20
1.6734379e-20
1.7532458e-20
1.4540787e-20
1.3576448e-20
1.5748344e-20
1.4488155e-20
1.4232644e-20
1.3445109e-20
1.5117558e-20
1.4057964e-20
1.0122923e-20
1.0637884e-20
1.2004799e-20
1.2343309e-20
1.2523168e-20
1.0353918e-20
1.1070956e-20
1.2104774e-20
1.2634713e-20
1.3255442e-20
1.2464992e-20
1.3351121e-20
1.386968e-20
1.1596124e-20
1.0504275e-20
1.3268197e-20
1.0609388e-20
1.1426612e-20
1.2206226e-20
1.3488723e-20
2.7171161e-20
4.7294836e-20
5.00931e-20
4.2075858e-20
4.3579823e-21
5.5241673e-21
6.4409643e-21
5.9177586e-21
4.730283e-21
5.0833618e-21
5.5054022e-21
6.0986774e-21
4.8422222e-21
4.5903942e-21
4.5679838e-21
1.9153908e-20
1.9862626e-20
1.7779304e-20
1.8032106e-20
1.8416214e-20
1.7120754e-20
1.8876276e-20
1.7212733e-20
2.0743498e-20
1.7436419e-20
2.1889102e-20
1.7508098e-20
2.184674e-20
2.2743466e-20
1.7384636e-20
1.7417294e-20
1.3484518e-20
1.3780397e-20
1.7701859e-20
1.7098919e-20
1.7980698e-20
1.8153061e-20
1.5481228e-20
1.5628593e-20
1.8674174e-20
1.8020697e-20
1.545839e-20
1.6004478e-20
1.7221588e-20
1.367505e-20
1.377883e-20
1.747092e-20
1.8656798e-20
1.4987708e-20
1.9464056e-20
1.5294054e-20
1.9543382e-20
2.0476134e-20
1.6897398e-20
1.7763693e-20
1.914782e-20
1.6695771e-20
2.0077618e-20
1.7409118e-20
1.8823496e-20
1.9770124e-20
1.497185e-20
1.5593931e-20
2.0071579e-20
1.6259805e-20
2.0742897e-20
1.6242554e-20
1.7143378e-20
1.7732745e-20
1.5853022e-20
1.5961379e-20
1.738953e-20
1.6293675e-20
1.7395109e-20
1.6148345e-20
1.9672336e-20
2.0218348e-20
1.5462805e-20
1.5324217e-20
6.1081701e-21
5.761001e-21
5.8849476e-21
6.1950053e-21
6.2084722e-21
6.3156365e-21
5.9281472e-21
5.8630937e-21
5.4440063e-21
5.9117068e-21
5.3448408e-21
6.2825892e-21
6.1036586e-21
5.4413395e-21
6.0731833e-21
5.407818e-21
5.9674928e-21
6.1768434e-21
5.8430999e-21
6.2771203e-21
6.0138755e-21
5.4910474e-21
5.5426575e-21
6.3647868e-21
6.0174198e-21
6.3910458e-21
5.9363663e-21
6.3971708e-21
6.1186372e-21
5.4871685e-21
6.2828658e-21
5.5129045e-21
6.818766e-21
6.7793163e-21
6.9406886e-21
6.9151497e-21
6.8492306e-21
8.1127764e-21
8.4802747e-21
6.6966587e-21
6.8589734e-21
6.8255158e-21
6.8443104e-21
6.8875248e-21
6.6030478e-21
8.2852428e-21
8.3084109e-21
6.4951818e-21
6.656188e-21
6.8056643e-21
6.7168997e-21
6.8186832e-21
6.5640207e-21
7.9878172e-21
8.3555582e-21
6.451002e-21
6.7868689e-21
6.8011798e-21
6.931269e-21
6.9187472e-21
6.5706835e-21
8.4756875e-21
6.5815024e-21
8.3083952e-21
6.5131424e-21