/*--------------------------------*- C++ -*----------------------------------*\
  =========                 |
  \\      /  F ield         | OpenFOAM: The Open Source CFD Toolbox
   \\    /   O peration     | Website:  https://openfoam.org
    \\  /    A nd           | Version:  7
     \\/     M anipulation  |
\*---------------------------------------------------------------------------*/
FoamFile
{
    version     2.0;
    format      ascii;
    class       volVectorField;
    location    "3000";
    object      UMean;
}
// * * * * * * * * * * * * * * * * * * * * * * * * * * * * * * * * * * * * * //

dimensions      [0 1 -1 0 0 0 0];

internalField   nonuniform List<vector> 
33730
(
(-6.4769232e+17 2.7409473e+16 4.2021095e+16)
(-8.2901869e+17 2.6247617e+16 4.9526824e+16)
(-5.8404165e+17 2.9563186e+16 -2.4361508e+16)
(-6.0865095e+17 2.6609479e+16 7.7896786e+16)
(-6.9033203e+17 2.073853e+16 6.759304e+16)
(-6.0438209e+17 1.0300017e+16 7.5540792e+16)
(-6.5650384e+17 2.0502522e+16 5.2299256e+16)
(-6.8025911e+17 2.7522086e+16 6.3013757e+16)
(-8.4752073e+17 2.4187263e+16 1.2902548e+16)
(-6.6524306e+17 1.8964647e+16 4.1374362e+16)
(-6.6069692e+17 2.6507122e+16 4.0039199e+16)
(-8.2419847e+17 2.1521537e+16 5.027354e+16)
(-5.9573764e+17 3.2044267e+16 -7.392648e+16)
(-5.9723705e+17 1.6591826e+16 -7.4144672e+16)
(-4.7491976e+17 2.1106903e+15 -7.4125474e+15)
(-4.7466987e+17 3.3352394e+16 -5.9712035e+15)
(-5.9122084e+17 2.3054655e+16 -1.7731165e+16)
(-5.0598463e+17 1.3429478e+16 6.1770399e+16)
(-6.3836304e+17 2.2922e+16 6.8963039e+16)
(-5.0666311e+17 1.0087973e+16 6.1080144e+16)
(-6.3662739e+17 1.0947874e+16 6.9571941e+16)
(-5.0460184e+17 8.2693352e+15 6.0243646e+16)
(-5.0605245e+17 1.1592001e+16 5.9197087e+16)
(-6.2893155e+17 2.4542536e+16 6.5784889e+16)
(-6.025137e+17 2.2290022e+16 7.6337557e+16)
(-6.3159507e+17 1.1806358e+16 6.5093964e+16)
(-6.1138208e+17 4.5441053e+15 7.8553718e+16)
(-6.7743411e+17 1.9685992e+16 6.2196695e+16)
(-6.8893973e+17 2.6148992e+16 6.6364071e+16)
(-6.7223487e+17 7.7652434e+15 6.4673433e+16)
(-8.4421454e+17 2.0614724e+16 1.3539239e+16)
(-7.0201888e+17 1.7235369e+16 2.2904217e+16)
(-6.7217516e+17 2.349834e+16 -1.6859789e+16)
(-5.7107134e+17 1.7136412e+16 -4.8118165e+15)
(-5.6170236e+17 2.2135719e+16 -6.0252505e+15)
(-5.8613529e+17 2.4258707e+16 -7.737892e+15)
(-5.7894611e+17 2.3896366e+16 -2.7369024e+15)
(-6.9760402e+17 2.683696e+16 2.2036733e+16)
(-6.7267131e+17 2.0366259e+16 -1.8573926e+16)
(-6.0309099e+17 1.1968863e+16 4.2230497e+16)
(-6.075407e+17 2.2153137e+16 4.2540422e+16)
(-6.003837e+17 2.2726962e+16 4.256992e+16)
(-6.0285615e+17 1.126825e+16 4.1222238e+16)
(-6.608251e+17 1.9104053e+16 4.0089032e+16)
(-6.6484911e+17 2.7513982e+16 4.1059482e+16)
(-5.5703748e+17 1.8494736e+16 -6.8191113e+16)
(-5.8982721e+17 2.7601129e+16 -5.9542535e+16)
(-5.8776963e+17 1.7891407e+16 -5.8428445e+16)
(-5.5488892e+17 1.8590995e+16 -6.828809e+16)
(-5.9390084e+17 3.2166583e+16 -7.302535e+16)
(-5.5680555e+17 1.8101441e+16 -6.7875927e+16)
(-5.8972411e+17 2.837157e+16 -5.8623782e+16)
(-5.9032467e+17 1.9037952e+16 -5.8169334e+16)
(-5.5579163e+17 1.8808592e+16 -6.7629189e+16)
(-4.7125851e+17 3.1232514e+16 -8.6238996e+15)
(-4.5100815e+17 1.2265037e+16 -8.8003723e+16)
(-3.3899289e+17 -1.23885e+14 -1.4137424e+15)
(-4.5178052e+17 1.8351994e+16 -8.8143499e+16)
(-3.4139784e+17 2.0549145e+16 -4.1342758e+14)
(-4.5101206e+17 1.7694172e+16 -8.8436917e+16)
(-3.4480185e+17 1.7055299e+15 5.2324169e+14)
(-4.538632e+17 1.265926e+16 -8.8819971e+16)
(-3.4040514e+17 2.2064176e+16 6.8594858e+13)
(-6.1032766e+17 3.066537e+15 -9.6626769e+15)
(-5.9711266e+17 1.4130271e+16 -7.2902738e+16)
(-4.7704419e+17 -4.9144289e+15 -5.6236342e+15)
(-4.2460117e+17 7.2181e+15 4.812594e+16)
(-4.2359826e+17 9.0054978e+15 4.9374341e+16)
(-5.5272936e+17 1.5319463e+16 5.9935899e+16)
(-5.5015558e+17 6.9009013e+15 6.0615396e+16)
(-4.2522855e+17 6.2759696e+15 5.0359177e+16)
(-5.531085e+17 1.7506543e+16 6.1027116e+16)
(-4.2263355e+17 7.1599087e+15 4.712611e+16)
(-5.5240766e+17 8.6627881e+15 5.8932536e+16)
(-4.2673811e+17 4.478995e+15 5.026411e+16)
(-5.0512935e+17 1.1011e+16 6.0894566e+16)
(-5.5085058e+17 1.69758e+16 6.039351e+16)
(-4.2363679e+17 5.2252984e+15 4.672228e+16)
(-5.5071853e+17 7.8650494e+15 5.8507978e+16)
(-4.2607461e+17 5.4033515e+15 4.7901134e+16)
(-4.252732e+17 7.5789335e+15 4.9083691e+16)
(-5.5417272e+17 1.4145024e+16 5.8806202e+16)
(-5.4986405e+17 6.6814066e+15 5.8309095e+16)
(-6.2880442e+17 1.0150915e+16 6.6147377e+16)
(-5.0648296e+17 8.4922941e+15 6.0112121e+16)
(-6.3382308e+17 2.32282e+16 6.6721874e+16)
(-5.0432801e+17 9.7569796e+15 6.0020327e+16)
(-5.0813006e+17 5.2972273e+15 6.356894e+16)
(-6.0120632e+17 1.685202e+16 7.9578425e+16)
(-6.4000607e+17 2.2407864e+16 7.0458485e+16)
(-6.4055878e+17 1.150944e+16 6.8345986e+16)
(-6.8676149e+17 1.5405707e+16 6.7841185e+16)
(-6.0711886e+17 -2.6444239e+15 7.7809241e+16)
(-6.8163909e+17 2.1479271e+16 6.4980291e+16)
(-6.7129539e+17 1.981943e+16 -1.7642881e+16)
(-7.0236268e+17 2.7335381e+16 2.1707712e+16)
(-6.6711526e+17 2.410271e+16 -1.9341451e+16)
(-5.7743963e+17 1.9302001e+16 -3.9552758e+15)
(-5.6941161e+17 2.1097307e+16 -5.9529482e+15)
(-5.6720332e+17 2.3381781e+16 -6.3017019e+15)
(-5.7059418e+17 2.2151946e+16 -3.9032372e+15)
(-6.9879206e+17 1.6966097e+16 2.1772616e+16)
(-6.343545e+17 1.2955554e+16 3.370336e+16)
(-6.398022e+17 2.1775961e+16 3.4276135e+16)
(-6.0947492e+17 1.5666081e+16 -2.7264031e+15)
(-6.1126729e+17 1.8606013e+16 -3.2564929e+15)
(-6.026967e+17 1.9484854e+16 -2.6932128e+16)
(-6.0698451e+17 1.6309141e+16 -2.7516827e+16)
(-6.2183395e+17 1.4396974e+16 -1.2635498e+16)
(-6.1950319e+17 2.0549828e+16 -1.1661845e+16)
(-6.7802069e+17 2.6730879e+16 -1.2706624e+16)
(-6.760347e+17 1.7170233e+16 -1.5080167e+16)
(-6.1221005e+17 1.2821841e+16 -1.344976e+15)
(-6.116161e+17 1.9370345e+16 2.8889294e+14)
(-6.2956436e+17 2.2258677e+16 3.2757795e+16)
(-6.3231319e+17 1.1695719e+16 3.1854617e+16)
(-6.1912127e+17 1.9510296e+16 -1.4879435e+16)
(-6.0252688e+17 1.8441754e+16 -3.0869709e+16)
(-6.0380385e+17 1.6497031e+16 -2.9620561e+16)
(-6.1698558e+17 1.5381198e+16 -1.4147883e+16)
(-5.3060216e+17 1.3875861e+16 -1.0813522e+16)
(-5.2063604e+17 1.2002036e+16 -1.9865208e+16)
(-5.3364567e+17 1.3342089e+16 -1.9371317e+16)
(-5.2714498e+17 1.2130333e+16 -2.4186152e+16)
(-6.081723e+17 2.0433599e+16 -2.75276e+16)
(-5.3195175e+17 1.4686241e+16 1.8104236e+16)
(-5.4022541e+17 1.5566635e+16 7.6821477e+15)
(-5.2179977e+17 1.3115352e+16 -7.9630534e+15)
(-5.2135668e+17 7.0924286e+15 3.9569948e+16)
(-5.2422349e+17 1.5836991e+16 3.9067637e+16)
(-5.2497672e+17 1.5819962e+16 4.0157036e+16)
(-5.2402706e+17 7.3452476e+15 3.7912385e+16)
(-5.2254825e+17 1.5627482e+16 4.1016463e+16)
(-6.0142201e+17 1.1491066e+16 4.3077144e+16)
(-5.2249307e+17 6.3276871e+15 3.8780304e+16)
(-5.2256368e+17 6.7457232e+15 3.8897906e+16)
(-5.2497856e+17 1.4544805e+16 3.8293789e+16)
(-6.0270302e+17 2.3348377e+16 4.1782628e+16)
(-6.0874795e+17 1.1904683e+16 4.1263843e+16)
(-6.0789533e+17 2.2117764e+16 4.3738384e+16)
(-6.6706391e+17 1.5470587e+16 4.1813667e+16)
(-6.8616033e+17 2.5439696e+16 -5.8171923e+16)
(-6.8652938e+17 2.6612457e+16 -5.7604384e+16)
(-5.9182718e+17 1.9517802e+16 -7.6031307e+16)
(-5.8189631e+17 2.7753344e+16 -4.591267e+16)
(-5.7976457e+17 1.8056466e+16 -4.4774818e+16)
(-5.8957781e+17 1.7062728e+16 -7.5384609e+16)
(-5.5820286e+17 1.7735558e+16 -6.7065852e+16)
(-5.9243699e+17 2.7834156e+16 -5.8317634e+16)
(-5.8959273e+17 1.8025644e+16 -5.6907865e+16)
(-5.5513084e+17 1.7838532e+16 -6.7429965e+16)
(-5.9091893e+17 1.9235009e+16 -7.5089535e+16)
(-5.8152533e+17 2.876887e+16 -4.5318811e+16)
(-5.8308274e+17 1.8448616e+16 -4.4570448e+16)
(-5.9032317e+17 1.6511279e+16 -7.5226307e+16)
(-4.5322079e+17 1.2105596e+16 -8.8089377e+16)
(-4.4924117e+17 1.7199865e+16 -8.7633212e+16)
(-3.4331006e+17 -9.6417016e+14 2.7927842e+14)
(-3.3730847e+17 1.8764745e+16 -2.154779e+15)
(-4.778579e+17 1.1628999e+16 -7.7752523e+16)
(-4.7804203e+17 1.7928742e+16 -7.8213478e+16)
(-3.964474e+17 1.1257705e+16 -9.2910852e+16)
(-3.9644206e+17 9.6292145e+15 -9.1750537e+16)
(-2.7288141e+17 8.2622619e+15 -8.3542289e+16)
(-2.7408686e+17 1.0474786e+16 -8.3068018e+16)
(-2.379143e+17 1.2111314e+16 1.824716e+16)
(-2.3729277e+17 -1.2887436e+15 1.814304e+16)
(-4.7626499e+17 1.0717414e+16 -7.8191915e+16)
(-4.7838644e+17 1.7260219e+16 -7.8341151e+16)
(-3.9639072e+17 9.2651408e+15 -9.3109177e+16)
(-3.9763986e+17 1.1528006e+16 -9.2538866e+16)
(-2.7585132e+17 8.6262784e+15 -8.3773798e+16)
(-2.7464955e+17 1.0096785e+16 -8.4632624e+16)
(-2.4056373e+17 -2.004857e+13 1.9594416e+16)
(-2.3909803e+17 1.4265122e+16 1.845595e+16)
(-4.7720171e+17 1.7226171e+16 -7.8449964e+16)
(-4.7546792e+17 1.0441751e+16 -7.8383725e+16)
(-3.9564939e+17 9.4803497e+15 -9.334119e+16)
(-3.9699274e+17 1.1692313e+16 -9.2635465e+16)
(-2.765728e+17 8.261636e+15 -8.5238581e+16)
(-2.7575727e+17 1.0482353e+16 -8.4195016e+16)
(-2.3933423e+17 1.3588361e+16 1.8084419e+16)
(-2.3973393e+17 -1.05812e+14 1.725159e+16)
(-4.7750026e+17 1.1352967e+16 -7.8608404e+16)
(-4.7878242e+17 1.8114781e+16 -7.9237829e+16)
(-3.9708342e+17 9.6291285e+15 -9.2765039e+16)
(-3.9908088e+17 1.1718763e+16 -9.3918209e+16)
(-2.7541334e+17 9.0071384e+15 -8.3697187e+16)
(-2.738209e+17 1.0356685e+16 -8.4493895e+16)
(-2.4016784e+17 1.7485887e+15 1.9677021e+16)
(-2.3826343e+17 1.5828977e+16 1.8462356e+16)
(-6.0280456e+17 1.1395415e+16 -7.3680823e+16)
(-5.9368935e+17 3.0762823e+16 -7.2064016e+16)
(-4.8316075e+17 -1.3738041e+16 -4.1624743e+15)
(-4.7228074e+17 2.5387941e+16 -5.800518e+15)
(-5.5939652e+17 1.688485e+16 -6.7545907e+16)
(-5.9365526e+17 2.8319129e+16 -5.8006493e+16)
(-5.9237995e+17 1.9724077e+16 -5.6803086e+16)
(-5.56117e+17 1.8340421e+16 -6.5745211e+16)
(-4.5315194e+17 1.0538515e+16 -8.7530367e+16)
(-4.5006232e+17 1.7727807e+16 -8.6563177e+16)
(-3.40524e+17 -4.1287066e+15 -7.9388607e+13)
(-3.3834486e+17 1.7526721e+16 1.7221016e+14)
(-3.6826697e+17 3.9963506e+15 4.7830543e+16)
(-4.7266841e+17 1.1592038e+16 5.6755322e+16)
(-3.658808e+17 5.681203e+15 4.5084434e+16)
(-4.7203487e+17 6.7504078e+15 5.5401995e+16)
(-3.6706725e+17 5.5416252e+15 4.6555334e+16)
(-3.6567229e+17 7.1760202e+15 4.7075704e+16)
(-4.6908119e+17 4.834547e+15 5.6835171e+16)
(-4.7135644e+17 1.0000368e+16 5.6536267e+16)
(-3.6828014e+17 3.2507477e+15 4.9062342e+16)
(-3.6731043e+17 4.0613063e+15 4.6575454e+16)
(-4.7181862e+17 1.1565934e+16 5.8385368e+16)
(-4.7212758e+17 5.7443447e+15 5.7094993e+16)
(-3.6664734e+17 3.1915081e+15 4.5907185e+16)
(-4.7211423e+17 9.0311265e+15 5.5390278e+16)
(-3.6435173e+17 5.6604263e+15 4.5996552e+16)
(-4.6969156e+17 4.3505029e+15 5.5307841e+16)
(-4.2399443e+17 6.5801048e+15 4.949009e+16)
(-3.7111664e+17 1.7506824e+15 4.971012e+16)
(-3.6888921e+17 2.5421287e+15 4.7026897e+16)
(-4.7325313e+17 1.0613651e+16 5.8465397e+16)
(-4.7312448e+17 5.0871197e+15 5.7141053e+16)
(-4.2684631e+17 6.712424e+15 4.8827932e+16)
(-5.5415846e+17 1.5234766e+16 6.0386755e+16)
(-5.4936875e+17 5.8588342e+15 6.014811e+16)
(-3.6825453e+17 2.319461e+15 4.6116648e+16)
(-4.7288967e+17 7.9718447e+15 5.5331526e+16)
(-3.6541038e+17 3.8199583e+15 4.6157016e+16)
(-4.7044601e+17 3.0299536e+15 5.5354091e+16)
(-3.6810118e+17 2.6573993e+15 4.7202897e+16)
(-3.6658096e+17 4.255904e+15 4.4740901e+16)
(-4.7405469e+17 5.5833522e+15 5.4876808e+16)
(-4.7421046e+17 1.0056491e+16 5.5992548e+16)
(-3.6855105e+17 3.8704933e+15 4.6534553e+16)
(-3.6760323e+17 5.5167831e+15 4.7468353e+16)
(-4.7027604e+17 3.8759982e+15 5.6293564e+16)
(-4.7270602e+17 8.9652779e+15 5.6097697e+16)
(-4.2672896e+17 5.3214813e+15 5.0322856e+16)
(-4.2122267e+17 7.0780865e+15 4.5679982e+16)
(-5.5421261e+17 1.6761306e+16 6.0212187e+16)
(-5.5241149e+17 9.0463293e+15 5.7460409e+16)
(-4.2546742e+17 4.8025456e+15 4.8780009e+16)
(-4.2227445e+17 6.722959e+15 4.9125633e+16)
(-5.5515015e+17 1.4117588e+16 5.9467172e+16)
(-5.5242191e+17 5.6766683e+15 5.9518334e+16)
(-5.0345183e+17 8.6264107e+15 6.3580312e+16)
(-5.5357057e+17 7.7191946e+15 6.0561925e+16)
(-4.2265512e+17 5.2679114e+15 4.8244668e+16)
(-4.2778319e+17 4.3318643e+15 5.2687298e+16)
(-5.5448136e+17 1.6419136e+16 6.2919476e+16)
(-6.359874e+17 1.97693e+16 6.8575849e+16)
(-5.0701179e+17 5.7338345e+15 6.2734932e+16)
(-6.3689726e+17 6.789827e+15 7.0822838e+16)
(-5.0437725e+17 6.9891866e+15 6.1452853e+16)
(-6.3814468e+17 8.2662518e+15 6.7697555e+16)
(-6.2220882e+17 1.4357394e+16 -1.1365852e+16)
(-6.0698864e+17 1.614341e+16 -2.6769829e+16)
(-6.0584653e+17 1.9496435e+16 -2.8264583e+16)
(-6.2143881e+17 2.0446124e+16 -1.3152243e+16)
(-6.8011425e+17 1.6244324e+16 -1.4002298e+16)
(-6.4144941e+17 1.2755659e+16 3.2486022e+16)
(-6.3952597e+17 2.196669e+16 3.4181742e+16)
(-6.1621253e+17 1.5149954e+16 -4.6850943e+15)
(-6.1590449e+17 1.8479263e+16 -1.9945517e+15)
(-7.0357988e+17 1.3252326e+16 2.2182498e+16)
(-6.6579608e+17 1.7345178e+16 -1.9430011e+16)
(-6.2515316e+17 1.9697969e+16 -1.3493297e+16)
(-6.0903383e+17 1.8108717e+16 -2.9180792e+16)
(-6.2633252e+17 1.5633904e+16 -1.5866299e+16)
(-6.1110453e+17 1.7089316e+16 -3.2012942e+16)
(-6.7326019e+17 2.5490053e+16 -1.650233e+16)
(-6.3258613e+17 2.2493762e+16 3.1902642e+16)
(-6.1329439e+17 1.4089121e+16 5.0391647e+14)
(-6.1272634e+17 2.0332746e+16 -1.2135333e+15)
(-6.3206304e+17 1.1895467e+16 3.355935e+16)
(-5.2803403e+17 8.9481561e+15 1.4904463e+16)
(-5.2986531e+17 1.4062335e+16 1.4418527e+16)
(-5.5399458e+17 1.5911518e+16 4.0103513e+16)
(-5.5130294e+17 7.4641608e+15 4.0681319e+16)
(-5.2976356e+17 8.408272e+15 1.2648155e+16)
(-5.3165372e+17 1.2674261e+16 1.4524937e+16)
(-5.5591074e+17 1.6327162e+16 4.087229e+16)
(-5.5424383e+17 8.1270642e+15 3.8891191e+16)
(-5.1897294e+17 1.0791122e+16 -1.1375525e+16)
(-5.2130371e+17 1.2526407e+16 -1.1345587e+16)
(-5.3772362e+17 1.4142567e+16 3.4932965e+15)
(-5.3586575e+17 9.7139012e+15 3.9918009e+15)
(-5.4143136e+17 1.3271813e+16 4.32258e+15)
(-5.2088119e+17 1.0322705e+16 -1.2950428e+16)
(-5.2127945e+17 1.0792647e+16 -1.1949219e+16)
(-5.3921186e+17 9.4522234e+15 2.6372133e+15)
(-5.2837868e+17 1.24379e+16 -2.336689e+16)
(-5.3286727e+17 1.299263e+16 -1.9396354e+16)
(-5.2756894e+17 1.2950609e+16 -2.5548874e+16)
(-5.3253151e+17 1.1949893e+16 -2.1151941e+16)
(-6.0814595e+17 2.0978652e+16 -2.8328595e+16)
(-5.307261e+17 1.1436894e+16 -2.5515336e+16)
(-5.3561687e+17 1.1869931e+16 -2.1118597e+16)
(-5.3412468e+17 1.019317e+16 -2.0237776e+16)
(-5.2903473e+17 1.1364157e+16 -2.4659364e+16)
(-6.1799729e+17 1.7156779e+16 -2.745421e+16)
(-5.2153332e+17 9.2532496e+15 -2.0300092e+16)
(-5.2359455e+17 1.0525548e+16 -2.1120412e+16)
(-5.3090514e+17 1.1574903e+16 -1.3689234e+16)
(-5.2890507e+17 8.8089358e+15 -1.3028072e+16)
(-5.2079172e+17 1.1006963e+16 -2.1306028e+16)
(-5.2146475e+17 1.1633146e+16 -1.9275421e+16)
(-5.2817938e+17 1.2757371e+16 -1.1994711e+16)
(-5.2811252e+17 1.0345067e+16 -1.3573161e+16)
(-5.9698905e+17 2.0896208e+16 -3.8623694e+16)
(-5.9956398e+17 1.8046036e+16 -4.0145169e+16)
(-6.0635408e+17 2.013949e+16 -3.2365228e+16)
(-6.0880061e+17 1.6475585e+16 -2.9250408e+16)
(-5.4055204e+17 1.2214055e+16 4.2328447e+15)
(-5.2362729e+17 1.0889789e+16 -1.0710569e+16)
(-5.3821482e+17 7.1665239e+15 4.6580575e+15)
(-5.2143418e+17 8.1431189e+15 -1.0302394e+16)
(-5.2109631e+17 9.207116e+15 -1.0514251e+16)
(-5.2134571e+17 1.1991215e+16 -8.5712969e+15)
(-5.3866333e+17 1.4017124e+16 6.6316282e+15)
(-5.3820937e+17 8.5223904e+15 4.8485662e+15)
(-5.3049173e+17 7.0834025e+15 1.5540548e+16)
(-5.3140627e+17 1.332264e+16 1.7847267e+16)
(-5.5208963e+17 1.616465e+16 4.1556531e+16)
(-5.5235748e+17 7.2800749e+15 3.9940388e+16)
(-5.5494217e+17 1.4322465e+16 3.9178448e+16)
(-5.322913e+17 1.2184537e+16 1.4808202e+16)
(-5.3056406e+17 6.8552026e+15 1.5243643e+16)
(-5.5182609e+17 6.5930223e+15 3.9429784e+16)
(-5.2968683e+17 1.1665543e+16 -1.4262753e+16)
(-5.1833198e+17 1.1833233e+16 -2.4097704e+16)
(-5.1835405e+17 1.0222921e+16 -2.3421937e+16)
(-5.2936035e+17 1.098904e+16 -1.4967048e+16)
(-5.3053063e+17 1.2466624e+16 -2.4260625e+16)
(-5.2947716e+17 1.1738134e+16 -2.4081933e+16)
(-5.2637332e+17 1.1374309e+16 -2.7460053e+16)
(-5.268587e+17 1.3166755e+16 -2.7950895e+16)
(-5.2907411e+17 1.2597498e+16 -2.5944826e+16)
(-5.3173244e+17 1.2863462e+16 -2.264498e+16)
(-5.2696916e+17 1.2450935e+16 -2.5838262e+16)
(-5.2922265e+17 1.1829173e+16 -2.2415595e+16)
(-5.180266e+17 1.14713e+16 -2.1846013e+16)
(-5.1997005e+17 1.2177698e+16 -2.1977907e+16)
(-5.2806768e+17 1.3159866e+16 -1.4458223e+16)
(-5.2545774e+17 1.1235623e+16 -1.4302309e+16)
(-4.2880195e+17 7.5321623e+15 -1.3831607e+16)
(-4.3894008e+17 8.6375672e+15 -9.2388929e+15)
(-4.2947408e+17 6.4629614e+15 -1.4620657e+16)
(-4.3957122e+17 6.421883e+15 -9.937174e+15)
(-4.3254353e+17 7.4589505e+15 -1.5726837e+16)
(-4.3892987e+17 8.1445833e+15 -1.3358432e+16)
(-4.3364148e+17 6.9575128e+15 -1.6429367e+16)
(-4.3960183e+17 6.9793252e+15 -1.4065078e+16)
(-4.3778892e+17 7.6141872e+15 -1.6409676e+16)
(-4.4301744e+17 8.2697523e+15 -1.3911638e+16)
(-4.3909846e+17 7.2304691e+15 -1.7248557e+16)
(-4.4408362e+17 7.2492736e+15 -1.4538806e+16)
(-4.5288001e+17 8.6170024e+15 -1.5908352e+16)
(-4.5388217e+17 7.7517305e+15 -1.6736684e+16)
(-4.567412e+17 8.6572302e+15 -2.1114667e+16)
(-5.3713385e+17 1.3539731e+16 -2.1044858e+16)
(-4.5830358e+17 7.8030342e+15 -2.1586164e+16)
(-4.5489039e+17 7.7808457e+15 -1.7799594e+16)
(-5.3879104e+17 1.3317602e+16 -2.2735336e+16)
(-4.5884269e+17 7.8045253e+15 -2.2966064e+16)
(-5.3276677e+17 1.2660882e+16 -2.5826841e+16)
(-5.3442924e+17 1.3868412e+16 -2.8517585e+16)
(-4.4914131e+17 8.9956234e+15 7.523896e+15)
(-4.663065e+17 1.0629647e+16 2.1966632e+16)
(-4.4978354e+17 4.9205818e+15 6.3352647e+15)
(-4.3737746e+17 8.141514e+15 -6.2972874e+15)
(-4.5378944e+17 9.5707761e+15 3.4817575e+15)
(-4.3776817e+17 5.6096931e+15 -7.3233882e+15)
(-4.5455603e+17 5.7821033e+15 2.6021165e+15)
(-4.3165462e+17 7.9048896e+15 -1.1152689e+16)
(-4.4339155e+17 8.8063914e+15 -7.1424221e+15)
(-4.3231862e+17 6.0613303e+15 -1.1950653e+16)
(-4.4389961e+17 6.2958568e+15 -7.9976411e+15)
(-4.4319602e+17 4.6605585e+15 4.1366537e+16)
(-4.4538659e+17 1.0790894e+16 4.088024e+16)
(-4.4621285e+17 1.0873919e+16 4.0940524e+16)
(-4.4592246e+17 5.3492524e+15 3.946603e+16)
(-4.4565691e+17 1.0158886e+16 4.2624091e+16)
(-4.459201e+17 3.6187814e+15 4.09529e+16)
(-4.4581904e+17 9.5714667e+15 3.9489252e+16)
(-4.4359582e+17 4.3189816e+15 3.9477293e+16)
(-4.4748794e+17 9.9978735e+15 4.3237476e+16)
(-4.4749742e+17 3.4451354e+15 4.1649476e+16)
(-5.2222913e+17 6.7579398e+15 4.0892633e+16)
(-5.2532285e+17 1.6578552e+16 4.0366008e+16)
(-4.4723156e+17 8.5772049e+15 3.9850067e+16)
(-4.447523e+17 3.0574451e+15 3.9812745e+16)
(-4.4705532e+17 9.4635421e+15 4.0668843e+16)
(-4.449289e+17 3.415302e+15 4.1310942e+16)
(-4.4768156e+17 9.1693818e+15 4.0309745e+16)
(-4.4771187e+17 4.1172929e+15 3.897958e+16)
(-5.2355416e+17 8.386274e+15 3.7840584e+16)
(-5.2470435e+17 1.6397752e+16 4.0114602e+16)
(-5.2683042e+17 1.5040723e+16 3.891826e+16)
(-5.2427349e+17 6.7240328e+15 3.8935609e+16)
(-5.2557488e+17 6.292228e+15 4.0290126e+16)
(-5.2611262e+17 1.5768287e+16 4.2655674e+16)
(-6.0529814e+17 9.5322144e+15 4.3277807e+16)
(-6.0694141e+17 2.0469496e+16 4.2589334e+16)
(-6.0814273e+17 9.1230726e+15 4.1373676e+16)
(-6.8676143e+17 2.3367075e+16 -5.6233201e+16)
(-6.8657366e+17 2.5282619e+16 -5.5303408e+16)
(-6.9580095e+17 2.3369156e+16 -3.1891322e+16)
(-6.9696255e+17 2.5628742e+16 -3.1744369e+16)
(-6.0727667e+17 1.861001e+16 -6.3023484e+16)
(-4.8180076e+17 1.7850959e+16 -8.1474987e+16)
(-4.8072528e+17 9.3977228e+15 -8.0482484e+16)
(-6.0669917e+17 2.5729603e+16 -3.4342666e+16)
(-6.0396881e+17 1.897303e+16 -3.3322133e+16)
(-6.0504262e+17 1.6789135e+16 -6.2534073e+16)
(-4.7962496e+17 1.7404781e+16 -8.0372906e+16)
(-4.7901501e+17 9.1289135e+15 -8.0397027e+16)
(-5.9199804e+17 1.8629509e+16 -7.4430818e+16)
(-5.8402487e+17 2.8848566e+16 -4.465502e+16)
(-5.817575e+17 1.8642221e+16 -4.3487683e+16)
(-5.8942776e+17 1.5967438e+16 -7.4329592e+16)
(-6.0644575e+17 1.8976446e+16 -6.2428712e+16)
(-4.8016934e+17 1.7758247e+16 -8.01558e+16)
(-4.7970021e+17 9.7547641e+15 -7.9399675e+16)
(-6.0638462e+17 2.696896e+16 -3.3786178e+16)
(-6.0798057e+17 1.9514714e+16 -3.339406e+16)
(-6.067184e+17 1.6403305e+16 -6.2636111e+16)
(-4.8076514e+17 1.7655803e+16 -8.0606206e+16)
(-4.789747e+17 9.3293531e+15 -8.0519782e+16)
(-3.9872485e+17 1.1652365e+16 -9.2780922e+16)
(-4.8004248e+17 1.8673227e+16 -7.8234659e+16)
(-3.9652309e+17 9.6531426e+15 -9.1874539e+16)
(-4.7847491e+17 1.2102509e+16 -7.7526736e+16)
(-4.7866315e+17 1.756481e+16 -7.7938649e+16)
(-4.7647685e+17 1.0853578e+16 -7.7424193e+16)
(-3.9723286e+17 1.1484908e+16 -9.2203016e+16)
(-3.9517124e+17 8.9125736e+15 -9.2457995e+16)
(-2.3901534e+17 -4.298293e+14 1.9080367e+16)
(-2.747131e+17 8.9035752e+15 -8.3308186e+16)
(-2.738837e+17 1.1158146e+16 -8.2625402e+16)
(-2.3613503e+17 1.3885189e+16 1.7761224e+16)
(-2.7192828e+17 9.9637401e+15 -8.3416539e+16)
(-2.4010493e+17 1.1704845e+15 2.0034265e+16)
(-2.7477375e+17 9.0895552e+15 -8.2830675e+16)
(-2.3509793e+17 1.3246077e+16 1.7099673e+16)
(-4.1305072e+17 1.0536601e+16 -9.8870881e+16)
(-4.1387038e+17 8.896379e+15 -9.8276465e+16)
(-2.0329815e+17 7.4434032e+15 -9.2121217e+16)
(-2.0233678e+17 5.1898396e+15 -9.0390337e+16)
(-2.8526696e+17 6.4288213e+15 -8.3630248e+16)
(-2.8620767e+17 9.1642636e+15 -8.4932564e+16)
(-2.0359524e+17 7.166981e+15 -9.0453713e+16)
(-2.0351019e+17 5.3418516e+15 -9.1594824e+16)
(-2.8515622e+17 5.9949205e+15 -8.4162119e+16)
(-2.8601643e+17 8.548869e+15 -8.3549089e+16)
(-1.6317749e+17 5.661764e+15 -2.5439385e+16)
(-1.6011668e+17 6.5937056e+15 -2.9429498e+16)
(-2.3150187e+17 4.5098225e+14 3.4255178e+16)
(-2.2772277e+17 6.5255162e+15 3.2254695e+16)
(-1.6027118e+17 4.6906825e+15 -2.9132715e+16)
(-2.2981542e+17 -1.1340738e+15 3.3661489e+16)
(-1.6218834e+17 4.8878724e+15 -2.5037954e+16)
(-2.3040004e+17 4.0936534e+15 3.381201e+16)
(-4.1444859e+17 8.9514244e+15 -9.9623991e+16)
(-4.1561777e+17 1.1048932e+16 -9.9059619e+16)
(-2.878687e+17 9.2529342e+15 -8.5168017e+16)
(-2.0548018e+17 7.59407e+15 -9.2412735e+16)
(-2.8653665e+17 6.5127415e+15 -8.3996428e+16)
(-2.0447588e+17 5.6036262e+15 -9.0864642e+16)
(-2.8687794e+17 8.6662182e+15 -8.4727115e+16)
(-2.8651371e+17 5.8322057e+15 -8.5629906e+16)
(-2.0551598e+17 7.8793837e+15 -9.1329158e+16)
(-2.0561801e+17 5.491561e+15 -9.2962541e+16)
(-1.6045715e+17 5.6966191e+15 -3.0232907e+16)
(-1.6167573e+17 6.1165046e+15 -2.7723804e+16)
(-2.2979045e+17 6.0098919e+15 3.2089214e+16)
(-2.2846524e+17 3.3773812e+14 3.2449137e+16)
(-1.6056254e+17 7.3055289e+15 -3.1701225e+16)
(-2.3197634e+17 2.6515913e+15 3.4117299e+16)
(-2.286881e+17 8.4682077e+15 3.2271996e+16)
(-1.6340675e+17 7.8186781e+15 -2.6849688e+16)
(-4.1379045e+17 9.0106757e+15 -9.975941e+16)
(-4.1528188e+17 1.0971883e+16 -9.9243153e+16)
(-2.8981403e+17 9.1119554e+15 -8.6459127e+16)
(-2.8867161e+17 6.1414746e+15 -8.5017986e+16)
(-2.0791749e+17 7.6024093e+15 -9.3481077e+16)
(-2.0652462e+17 5.2553392e+15 -9.1641582e+16)
(-2.8699101e+17 8.3123276e+15 -8.4582258e+16)
(-2.8590641e+17 5.8813391e+15 -8.5025358e+16)
(-2.0541081e+17 7.3766745e+15 -9.1457459e+16)
(-2.0518902e+17 5.7795873e+15 -9.2331541e+16)
(-1.6386904e+17 6.3059007e+15 -2.6450408e+16)
(-2.3226626e+17 4.0483267e+14 3.3894415e+16)
(-1.6095984e+17 7.1834145e+15 -3.0045698e+16)
(-2.2869003e+17 8.2073041e+15 3.2404063e+16)
(-1.618058e+17 5.6442182e+15 -3.1873506e+16)
(-2.299502e+17 3.613747e+14 3.2876408e+16)
(-1.6390152e+17 5.1410764e+15 -2.7526649e+16)
(-2.3114515e+17 4.8941835e+15 3.3077966e+16)
(-4.1543977e+17 8.8176302e+15 -9.947017e+16)
(-4.1721225e+17 1.1063171e+16 -1.0018464e+17)
(-2.8672378e+17 9.1734061e+15 -8.5175651e+16)
(-2.8564028e+17 6.5345898e+15 -8.3891649e+16)
(-2.0469134e+17 7.9947933e+15 -9.2685044e+16)
(-2.0410771e+17 6.1257615e+15 -9.0973414e+16)
(-2.8631126e+17 8.6652899e+15 -8.4718962e+16)
(-2.851527e+17 5.671879e+15 -8.5416757e+16)
(-2.0489423e+17 8.0773414e+15 -9.1488706e+16)
(-2.0464378e+17 5.2726309e+15 -9.2776723e+16)
(-1.5995981e+17 6.3762543e+15 -3.0520435e+16)
(-2.2952856e+17 1.232434e+15 3.242091e+16)
(-1.6238142e+17 7.1109566e+15 -2.7099379e+16)
(-2.3018248e+17 7.4555867e+15 3.2711582e+16)
(-1.6361052e+17 8.0603061e+15 -2.5882219e+16)
(-1.598889e+17 7.2185198e+15 -3.0891273e+16)
(-2.3150707e+17 4.09944e+15 3.4523685e+16)
(-2.2714948e+17 9.8930877e+15 3.1965779e+16)
(-5.9417486e+17 2.0988822e+16 -5.8212485e+16)
(-5.9492926e+17 2.8799784e+16 -5.9054608e+16)
(-5.6078178e+17 1.8759651e+16 -6.6429933e+16)
(-5.9424352e+17 1.876316e+16 -5.6745816e+16)
(-5.9646024e+17 2.8849638e+16 -5.8346741e+16)
(-5.6158262e+17 1.7369159e+16 -6.6518076e+16)
(-5.5797291e+17 1.7505066e+16 -6.7109309e+16)
(-4.544719e+17 1.8147979e+16 -8.6312032e+16)
(-3.3834472e+17 1.5186117e+16 5.7755205e+14)
(-4.5665043e+17 1.1327037e+16 -8.6796886e+16)
(-4.5121323e+17 1.6881798e+16 -8.6801492e+16)
(-3.4486534e+17 -3.1186542e+15 3.2607163e+15)
(-3.3763656e+17 1.6934621e+16 8.906754e+14)
(-5.9248288e+17 1.7871952e+16 -7.4480558e+16)
(-5.8611542e+17 2.9442268e+16 -4.4617362e+16)
(-5.8435695e+17 1.9723757e+16 -4.2587581e+16)
(-5.9030881e+17 1.5588384e+16 -7.2620898e+16)
(-4.8012387e+17 1.2011781e+16 -7.7414715e+16)
(-4.8102535e+17 1.8249734e+16 -7.8392731e+16)
(-3.9913024e+17 1.0721509e+16 -9.2183707e+16)
(-3.9737203e+17 9.1366391e+15 -9.0985018e+16)
(-4.7870931e+17 1.7659488e+16 -7.6570856e+16)
(-3.9641182e+17 1.082881e+16 -9.0541028e+16)
(-4.7633317e+17 1.1642137e+16 -7.6187481e+16)
(-3.9457207e+17 9.420944e+15 -9.1208789e+16)
(-2.7411688e+17 7.5737119e+15 -8.2641747e+16)
(-2.3762602e+17 -1.3915142e+15 1.9875896e+16)
(-2.7388876e+17 1.0301634e+16 -8.133214e+16)
(-2.3599853e+17 1.2290898e+16 1.9046298e+16)
(-2.7088506e+17 1.0715623e+16 -8.1770946e+16)
(-2.3925138e+17 -5.3056393e+14 2.1356088e+16)
(-2.7339229e+17 8.2705778e+15 -8.0958298e+16)
(-2.3468306e+17 1.3606313e+16 1.8727436e+16)
(-3.1758676e+17 4.232395e+15 4.6255459e+16)
(-3.1723891e+17 8.5370883e+14 4.8262466e+16)
(-4.0875651e+17 8.2640366e+15 5.0225917e+16)
(-4.0819755e+17 4.1687104e+15 4.9084249e+16)
(-4.0899099e+17 6.767544e+15 4.8513667e+16)
(-3.1525206e+17 2.2045809e+15 4.5554139e+16)
(-3.1363019e+17 5.9553931e+15 4.5232637e+16)
(-4.0676761e+17 3.37829e+15 4.7095724e+16)
(-3.1639051e+17 6.2702691e+15 4.5617929e+16)
(-3.1665327e+17 1.605678e+15 4.7988179e+16)
(-4.0862027e+17 8.510637e+15 4.9671363e+16)
(-4.0755931e+17 5.3591849e+15 4.8393298e+16)
(-3.155874e+17 7.2661109e+15 4.7390492e+16)
(-3.1517835e+17 3.5828382e+15 4.6401131e+16)
(-4.0714772e+17 7.5205842e+15 5.0453222e+16)
(-4.0524547e+17 3.4222704e+15 4.9372447e+16)
(-3.1890292e+17 3.0954496e+15 4.7808372e+16)
(-3.1893075e+17 4.5533363e+14 4.964645e+16)
(-4.0725478e+17 7.5500757e+15 5.0849559e+16)
(-4.0847812e+17 2.9885878e+15 5.152648e+16)
(-3.1698837e+17 9.0190659e+14 4.6467905e+16)
(-3.1747571e+17 5.1602891e+15 4.7385128e+16)
(-4.0834691e+17 5.3257973e+15 4.895506e+16)
(-4.0828924e+17 1.7596567e+15 4.927394e+16)
(-3.1571179e+17 3.460559e+15 4.5536683e+16)
(-3.1521783e+17 -2.5524754e+14 4.6497917e+16)
(-4.0761874e+17 7.0849271e+15 4.7720106e+16)
(-4.0843515e+17 3.7682816e+15 4.8523169e+16)
(-3.1481872e+17 1.5452109e+15 4.5948866e+16)
(-3.1385724e+17 5.5578022e+15 4.6415176e+16)
(-4.0613038e+17 6.6665699e+15 4.8485779e+16)
(-4.0467556e+17 2.4359407e+15 4.7938294e+16)
(-3.6982128e+17 4.7368333e+15 4.7677578e+16)
(-3.6779937e+17 4.4483617e+15 4.8581528e+16)
(-4.7089251e+17 3.2830028e+15 5.7821629e+16)
(-4.7356363e+17 9.4136617e+15 5.752667e+16)
(-3.2134025e+17 1.4817411e+15 4.8195045e+16)
(-3.2069747e+17 -8.5825971e+14 4.9439643e+16)
(-4.0988955e+17 6.9979187e+15 5.119109e+16)
(-4.1139147e+17 2.5771551e+15 5.1972285e+16)
(-3.1798483e+17 -4.3466601e+14 4.651062e+16)
(-3.1896485e+17 2.528715e+15 4.7952257e+16)
(-4.1024858e+17 4.5697194e+15 4.9273062e+16)
(-4.1017145e+17 9.21582e+14 4.9805265e+16)
(-3.7130406e+17 4.099699e+15 4.9598264e+16)
(-3.6846249e+17 5.7115121e+15 4.6510857e+16)
(-4.7527019e+17 6.9169949e+15 5.6177483e+16)
(-4.7629773e+17 1.1437938e+16 5.7563888e+16)
(-3.1741016e+17 2.9215872e+15 4.5796373e+16)
(-3.1762362e+17 -1.2559748e+15 4.7563383e+16)
(-4.0920871e+17 6.0801132e+15 4.8277856e+16)
(-4.1030587e+17 2.9596046e+15 4.8785239e+16)
(-3.150678e+17 3.0970605e+15 4.6856417e+16)
(-3.1555009e+17 8.6209235e+13 4.5898249e+16)
(-4.0739662e+17 5.3281492e+15 4.8691683e+16)
(-4.0606928e+17 9.8130047e+14 4.8355384e+16)
(-3.1749159e+17 3.815765e+15 4.6318208e+16)
(-3.1775095e+17 -7.7869504e+14 4.8687624e+16)
(-4.0968794e+17 6.6954257e+15 5.0018446e+16)
(-4.0933066e+17 2.9724853e+15 4.8746538e+16)
(-3.1558845e+17 4.8143473e+15 4.5412124e+16)
(-3.1564685e+17 1.0899935e+15 4.5288757e+16)
(-4.1033827e+17 5.4404474e+15 4.8124132e+16)
(-4.0825735e+17 2.1830203e+15 4.6781412e+16)
(-3.1729285e+17 -2.8924764e+14 4.7230652e+16)
(-4.1009821e+17 7.2008162e+15 4.925641e+16)
(-4.0923777e+17 3.870245e+15 4.8420902e+16)
(-3.1645994e+17 4.0833381e+15 4.5272776e+16)
(-3.1687765e+17 1.9536518e+15 4.6328073e+16)
(-3.1908105e+17 4.7068372e+15 4.8828986e+16)
(-4.0795002e+17 5.9821072e+15 4.9616356e+16)
(-4.0776923e+17 1.6888479e+15 5.053328e+16)
(-3.7050401e+17 2.8652312e+15 5.0162427e+16)
(-3.672225e+17 4.6027125e+15 4.6930335e+16)
(-4.7342086e+17 6.293816e+15 5.6829069e+16)
(-4.7410362e+17 1.1201469e+16 5.8415895e+16)
(-3.6736026e+17 3.9761586e+15 4.6134177e+16)
(-3.6362482e+17 5.377342e+15 4.5928111e+16)
(-4.7044185e+17 4.6224003e+15 5.4736293e+16)
(-4.7339321e+17 9.5104084e+15 5.4848606e+16)
(-3.7015173e+17 1.6162971e+15 4.9877544e+16)
(-3.6781407e+17 4.8856439e+15 4.7617001e+16)
(-4.7448705e+17 1.0141688e+16 5.7380613e+16)
(-4.7391648e+17 5.7947013e+15 5.6231641e+16)
(-4.7320211e+17 9.2627829e+15 5.6979317e+16)
(-3.6789912e+17 4.6975412e+15 4.7739583e+16)
(-3.6431446e+17 5.2583831e+15 4.7653958e+16)
(-4.7007948e+17 3.4976332e+15 5.6905605e+16)
(-4.2619185e+17 5.8782408e+15 5.1009542e+16)
(-4.2280015e+17 6.2760637e+15 5.180475e+16)
(-5.5040095e+17 4.8274023e+15 6.1883537e+16)
(-5.5401635e+17 1.3823379e+16 6.1635249e+16)
(-3.6806295e+17 2.6406238e+15 4.7760264e+16)
(-3.671555e+17 3.8130626e+15 4.895606e+16)
(-4.7372435e+17 8.2473848e+15 5.7006398e+16)
(-4.7198419e+17 2.9072766e+15 5.7361955e+16)