/*--------------------------------*- C++ -*----------------------------------*\
  =========                 |
  \\      /  F ield         | OpenFOAM: The Open Source CFD Toolbox
   \\    /   O peration     | Website:  https://openfoam.org
    \\  /    A nd           | Version:  7
     \\/     M anipulation  |
\*---------------------------------------------------------------------------*/
FoamFile
{
    version     2.0;
    format      ascii;
    class       volScalarField;
    location    "4000";
    object      pMean;
}
// * * * * * * * * * * * * * * * * * * * * * * * * * * * * * * * * * * * * * //

dimensions      [0 2 -2 0 0 0 0];

internalField   nonuniform List<scalar> 
34356
(
-1.3806162e+48
-1.3963898e+48
-1.3792538e+48
-1.3794559e+48
-1.3676373e+48
-1.36741e+48
-1.2865146e+48
-1.3578218e+48
-1.3586217e+48
-1.3770205e+48
-1.3810101e+48
-1.3774821e+48
-1.384089e+48
-1.3932965e+48
-1.3927207e+48
-1.3948453e+48
-1.3954703e+48
-1.392983e+48
-1.3946107e+48
-1.39315e+48
-1.3933961e+48
-1.3173967e+48
-1.2873557e+48
-1.287033e+48
-1.3168634e+48
-1.2128772e+48
-1.2655455e+48
-1.2660038e+48
-1.2833203e+48
-1.2830668e+48
-1.2003731e+48
-1.2424782e+48
-1.3083885e+48
-1.2874401e+48
-1.3857013e+48
-1.3859877e+48
-1.3861011e+48
-1.384976e+48
-1.3809289e+48
-1.376411e+48
-1.3757385e+48
-1.381347e+48
-1.3816024e+48
-1.3887879e+48
-1.3807984e+48
-1.3888591e+48
-1.3758234e+48
-1.3751237e+48
-1.3803032e+48
-1.3811712e+48
-1.3825515e+48
-1.3808366e+48
-1.3915346e+48
-1.3891579e+48
-1.4015138e+48
-1.3996647e+48
-1.3999738e+48
-1.4027827e+48
-1.3995432e+48
-1.4028208e+48
-1.3991844e+48
-1.4015419e+48
-1.3994738e+48
-1.3995719e+48
-1.4012024e+48
-1.401019e+48
-1.399216e+48
-1.3983016e+48
-1.398936e+48
-1.4004494e+48
-1.3536178e+48
-1.3547627e+48
-1.3308599e+48
-1.3302534e+48
-1.3078571e+48
-1.2872951e+48
-1.2864529e+48
-1.3080038e+48
-1.2430108e+48
-1.3080819e+48
-1.287401e+48
-1.2864668e+48
-1.3079305e+48
-1.2437045e+48
-1.3545742e+48
-1.3549358e+48
-1.3305375e+48
-1.3304514e+48
-1.2006942e+48
-1.2013859e+48
-1.2268705e+48
-1.226002e+48
-1.2051096e+48
-1.2072741e+48
-1.3357224e+48
-1.137434e+48
-1.1626782e+48
-1.205794e+48
-1.2265934e+48
-1.2267072e+48
-1.2055086e+48
-1.2398257e+48
-1.2396886e+48
-1.2615e+48
-1.2618646e+48
-1.3197488e+48
-1.3096051e+48
-1.3093066e+48
-1.2960341e+48
-1.2958978e+48
-1.2856956e+48
-1.2858641e+48
-1.2856303e+48
-1.4006087e+48
-1.3995724e+48
-1.3998048e+48
-1.4004247e+48
-1.3992313e+48
-1.3994136e+48
-1.3982403e+48
-1.3989342e+48
-1.3553333e+48
-1.3554852e+48
-1.3786732e+48
-1.3705322e+48
-1.3690717e+48
-1.3780907e+48
-1.390204e+48
-1.3839013e+48
-1.3836772e+48
-1.3903302e+48
-1.3893389e+48
-1.3934072e+48
-1.3935177e+48
-1.3892143e+48
-1.3905986e+48
-1.3839598e+48
-1.3840372e+48
-1.3903145e+48
-1.3898313e+48
-1.3894604e+48
-1.3944154e+48
-1.3940843e+48
-1.3704326e+48
-1.3698102e+48
-1.3784769e+48
-1.3785691e+48
-1.3836739e+48
-1.3837982e+48
-1.3904039e+48
-1.3909363e+48
-1.3904938e+48
-1.3840164e+48
-1.3838068e+48
-1.3904791e+48
-1.3907e+48
-1.3897729e+48
-1.3949401e+48
-1.3943251e+48
-1.3899519e+48
-1.3946762e+48
-1.3897874e+48
-1.3944913e+48
-1.4056491e+48
-1.4062879e+48
-1.4062986e+48
-1.4052598e+48
-1.406534e+48
-1.4065021e+48
-1.4064515e+48
-1.4059065e+48
-1.4060202e+48
-1.4065451e+48
-1.4066186e+48
-1.4066467e+48
-1.4064694e+48
-1.4061643e+48
-1.4064187e+48
-1.4055432e+48
-1.4055759e+48
-1.4047487e+48
-1.4043946e+48
-1.4053105e+48
-1.4057349e+48
-1.4055576e+48
-1.4053578e+48
-1.4050383e+48
-1.4033954e+48
-1.4043097e+48
-1.4029691e+48
-1.4040453e+48
-1.4045694e+48
-1.4046077e+48
-1.4045352e+48
-1.4040895e+48
-1.2497924e+48
-1.2409726e+48
-1.377925e+48
-1.3654087e+48
-1.3648247e+48
-1.3788499e+48
-1.365875e+48
-1.3659602e+48
-1.3792097e+48
-1.3794036e+48
-1.3485083e+48
-1.335131e+48
-1.3352591e+48
-1.3484265e+48
-1.3478011e+48
-1.3347294e+48
-1.3345912e+48
-1.3481204e+48
-1.3180967e+48
-1.3076653e+48
-1.3074758e+48
-1.3183693e+48
-1.2947746e+48
-1.2945397e+48
-1.284519e+48
-1.2849665e+48
-1.2615559e+48
-1.2847782e+48
-1.2847965e+48
-1.2947289e+48
-1.2617571e+48
-1.2947388e+48
-1.3077445e+48
-1.3076872e+48
-1.3186814e+48
-1.3187328e+48
-1.2420929e+48
-1.2409884e+48
-1.3186498e+48
-1.3080969e+48
-1.3078644e+48
-1.3189274e+48
-1.2852904e+48
-1.2847561e+48
-1.2952498e+48
-1.294882e+48
-1.2622802e+48
-1.2855172e+48
-1.2853346e+48
-1.2953625e+48
-1.2612231e+48
-1.295631e+48
-1.3085777e+48
-1.3192225e+48
-1.3082409e+48
-1.3193847e+48
-1.2415914e+48
-1.2418138e+48
-1.3805093e+48
-1.3658266e+48
-1.3664614e+48
-1.3793482e+48
-1.3795761e+48
-1.366322e+48
-1.3659188e+48
-1.3803523e+48
-1.3485709e+48
-1.3351608e+48
-1.3352949e+48
-1.3490022e+48
-1.33552e+48
-1.3354441e+48
-1.3491144e+48
-1.3487872e+48
-1.1361429e+48
-1.1628849e+48
-1.1365857e+48
-1.1630695e+48
-1.2057607e+48
-1.2270392e+48
-1.2282761e+48
-1.2060733e+48
-1.205794e+48
-1.2277235e+48
-1.2283643e+48
-1.2066726e+48
-1.3498358e+48
-1.3573644e+48
-1.3346394e+48
-1.3405044e+48
-1.3346084e+48
-1.3405133e+48
-1.1090651e+48
-1.1865803e+48
-1.1867241e+48
-1.1638933e+48
-1.163125e+48
-1.2192092e+48
-1.2104458e+48
-1.2098173e+48
-1.2195666e+48
-1.2309761e+48
-1.2243139e+48
-1.2245816e+48
-1.2316167e+48
-1.2312081e+48
-1.224632e+48
-1.2238571e+48
-1.2306557e+48
-1.2096651e+48
-1.2194237e+48
-1.2181755e+48
-1.2404411e+48
-1.2408971e+48
-1.2500067e+48
-1.2497005e+48
-1.2406341e+48
-1.2409146e+48
-1.2499294e+48
-1.2500422e+48
-1.2611845e+48
-1.2614767e+48
-1.2714314e+48
-1.2716991e+48
-1.2612551e+48
-1.2613147e+48
-1.2714386e+48
-1.2709759e+48
-1.3199091e+48
-1.3251717e+48
-1.31995e+48
-1.3251719e+48
-1.3079807e+48
-1.308046e+48
-1.3124304e+48
-1.3078246e+48
-1.3122728e+48
-1.3078728e+48
-1.3123327e+48
-1.3199975e+48
-1.2951112e+48
-1.2997417e+48
-1.2951697e+48
-1.2997319e+48
-1.2950718e+48
-1.2996093e+48
-1.2951579e+48
-1.2997022e+48
-1.2875837e+48
-1.2876524e+48
-1.2836188e+48
-1.283672e+48
-1.2877329e+48
-1.2877359e+48
-1.2837568e+48
-1.2837748e+48
-1.2876072e+48
-1.28733e+48
-1.2836638e+48
-1.2833674e+48
-1.2950243e+48
-1.4050647e+48
-1.4052873e+48
-1.4044785e+48
-1.4050533e+48
-1.404455e+48
-1.405077e+48
-1.4053589e+48
-1.4050558e+48
-1.4042695e+48
-1.4038928e+48
-1.4042312e+48
-1.4046087e+48
-1.4028336e+48
-1.4033381e+48
-1.4037225e+48
-1.4036104e+48
-1.330855e+48
-1.3310157e+48
-1.3726445e+48
-1.3879759e+48
-1.3877785e+48
-1.3548064e+48
-1.3543152e+48
-1.3721543e+48
-1.387723e+48
-1.3874323e+48
-1.396035e+48
-1.3959839e+48
-1.3941334e+48
-1.3941442e+48
-1.3968913e+48
-1.3966197e+48
-1.3999379e+48
-1.4058469e+48
-1.400087e+48
-1.406371e+48
-1.4002296e+48
-1.4065214e+48
-1.4002279e+48
-1.4064889e+48
-1.3943516e+48
-1.3943292e+48
-1.3967166e+48
-1.3967079e+48
-1.3961206e+48
-1.3961275e+48
-1.3944478e+48
-1.3944392e+48
-1.3967017e+48
-1.3966156e+48
-1.3944047e+48
-1.3944201e+48
-1.3965447e+48
-1.3968608e+48
-1.4002374e+48
-1.4003144e+48
-1.4064676e+48
-1.4057431e+48
-1.4064083e+48
-1.4062595e+48
-1.4002283e+48
-1.4002569e+48
-1.3548693e+48
-1.354628e+48
-1.372258e+48
-1.3877632e+48
-1.3879782e+48
-1.3725901e+48
-1.3879406e+48
-1.3875675e+48
-1.3960261e+48
-1.3959176e+48
-1.3960835e+48
-1.3960483e+48
-1.3906e+48
-1.3963939e+48
-1.3945e+48
-1.39449e+48
-1.3962042e+48
-1.3944353e+48
-1.3944617e+48
-1.3961067e+48
-1.3963746e+48
-1.4000867e+48
-1.4045734e+48
-1.4000914e+48
-1.4053797e+48
-1.4000872e+48
-1.4053521e+48
-1.4052333e+48
-1.4000682e+48
-1.3945813e+48
-1.3945834e+48
-1.3965396e+48
-1.396498e+48
-1.4002541e+48
-1.4055163e+48
-1.4002785e+48
-1.4061611e+48
-1.3944325e+48
-1.3944348e+48
-1.3964269e+48
-1.3968591e+48
-1.4001861e+48
-1.4002738e+48
-1.4058128e+48
-1.4055938e+48
-1.3996033e+48
-1.4001269e+48
-1.4062663e+48
-1.4067451e+48
-1.3997517e+48
-1.4000465e+48
-1.407095e+48
-1.4066815e+48
-1.4001432e+48
-1.4068832e+48
-1.4015171e+48
-1.4079172e+48
-1.4077072e+48
-1.4014582e+48
-1.400052e+48
-1.4066086e+48
-1.4004987e+48
-1.4002284e+48
-1.4067847e+48
-1.4073797e+48
-1.4003458e+48
-1.4005798e+48
-1.4072557e+48
-1.4067153e+48
-1.3996394e+48
-1.4002899e+48
-1.4063975e+48
-1.4070837e+48
-1.4011996e+48
-1.3982548e+48
-1.4072022e+48
-1.4053827e+48
-1.3990555e+48
-1.3995483e+48
-1.406378e+48
-1.4058455e+48
-1.399338e+48
-1.3985943e+48
-1.4053797e+48
-1.4062907e+48
-1.3993057e+48
-1.4004422e+48
-1.4061249e+48
-1.4070327e+48
-1.3987177e+48
-1.4004483e+48
-1.4067701e+48
-1.4055178e+48
-1.3979956e+48
-1.3975202e+48
-1.4039471e+48
-1.4048687e+48
-1.4052972e+48
-1.398584e+48
-1.397246e+48
-1.4043862e+48
-1.3992424e+48
-1.3985312e+48
-1.4051449e+48
-1.4060499e+48
-1.3980492e+48
-1.3999984e+48
-1.4063062e+48
-1.4049831e+48
-1.0834309e+48
-1.2560625e+48
-1.2527263e+48
-1.2527681e+48
-1.2559594e+48
-1.2467978e+48
-1.2435443e+48
-1.2467057e+48
-1.2844062e+48
-1.2605633e+48
-1.2942561e+48
-1.307198e+48
-1.2411212e+48
-1.163271e+48
-1.1363121e+48
-1.1363068e+48
-1.2265717e+48
-1.2047813e+48
-1.3857019e+48
-1.3905225e+48
-1.386084e+48
-1.3911442e+48
-1.3684555e+48
-1.3685778e+48
-1.3763652e+48
-1.3763194e+48
-1.3681168e+48
-1.3758196e+48
-1.3682696e+48
-1.3761542e+48
-1.3863104e+48
-1.3914925e+48
-1.3863171e+48
-1.3912754e+48
-1.3690859e+48
-1.369122e+48
-1.3770827e+48
-1.3769465e+48
-1.3687672e+48
-1.3765187e+48
-1.3690217e+48
-1.3769629e+48
-1.3871116e+48
-1.3869792e+48
-1.3924567e+48
-1.3920519e+48
-1.3915209e+48
-1.386455e+48
-1.3868784e+48
-1.3921172e+48
-1.3494241e+48
-1.3571386e+48
-1.3496372e+48
-1.357438e+48
-1.333851e+48
-1.3339994e+48
-1.3398745e+48
-1.3400785e+48
-1.3340768e+48
-1.3341354e+48
-1.3401613e+48
-1.3401141e+48
-1.3496486e+48
-1.3496278e+48
-1.3575374e+48
-1.3574325e+48
-1.3488591e+48
-1.3564433e+48
-1.3490133e+48
-1.356678e+48
-1.3335197e+48
-1.3336829e+48
-1.339617e+48
-1.339713e+48
-1.3334087e+48
-1.3393895e+48
-1.3334222e+48
-1.3394885e+48
-1.3491446e+48
-1.3492592e+48
-1.3569075e+48
-1.3569461e+48
-1.3184342e+48
-1.3237429e+48
-1.3184691e+48
-1.3237624e+48
-1.3060987e+48
-1.306236e+48
-1.3106946e+48
-1.310805e+48
-1.3060348e+48
-1.3105813e+48
-1.3059796e+48
-1.3105546e+48
-1.3185783e+48
-1.3187263e+48
-1.3239129e+48
-1.3240423e+48
-1.2932578e+48
-1.2977191e+48
-1.2934221e+48
-1.2978136e+48
-1.293187e+48
-1.29765e+48
-1.2931963e+48
-1.2976122e+48
-1.2858305e+48
-1.2857901e+48
-1.2818687e+48
-1.2703128e+48
-1.2818883e+48
-1.2859871e+48
-1.2861466e+48
-1.2706426e+48
-1.2822891e+48
-1.2820379e+48
-1.2605284e+48
-1.2609575e+48
-1.2862452e+48
-1.2863335e+48
-1.2704219e+48
-1.2824511e+48
-1.2822927e+48
-1.2861439e+48
-1.2861398e+48
-1.2704194e+48
-1.2822733e+48
-1.2822492e+48
-1.2934055e+48
-1.2978847e+48
-1.2934815e+48
-1.2979362e+48
-1.2607137e+48
-1.2611842e+48
-1.2935347e+48
-1.2980533e+48
-1.2936557e+48
-1.2981195e+48
-1.306433e+48
-1.3111406e+48
-1.306526e+48
-1.3111781e+48
-1.3063095e+48
-1.3109247e+48
-1.306339e+48
-1.3110043e+48
-1.3188771e+48
-1.3242472e+48
-1.3190076e+48
-1.3244124e+48
-1.3191118e+48
-1.3245472e+48
-1.3191319e+48
-1.3245397e+48
-1.241359e+48
-1.2415993e+48
-1.2501184e+48
-1.2501348e+48
-1.2496151e+48
-1.240719e+48
-1.2410468e+48
-1.2499631e+48
-1.3191749e+48
-1.3244889e+48
-1.3192218e+48
-1.3245378e+48
-1.3067044e+48
-1.3068946e+48
-1.3113523e+48
-1.3114743e+48
-1.3066373e+48
-1.3112499e+48
-1.3066095e+48
-1.3112437e+48
-1.3193003e+48
-1.3194506e+48
-1.3246602e+48
-1.324791e+48
-1.2865786e+48
-1.2867734e+48
-1.2711297e+48
-1.2829295e+48
-1.282644e+48
-1.2864222e+48
-1.286392e+48
-1.2708561e+48
-1.2824963e+48
-1.2824747e+48
-1.2938647e+48
-1.2983286e+48
-1.2940948e+48
-1.2985174e+48
-1.293726e+48
-1.2982233e+48
-1.2937896e+48
-1.2982331e+48
-1.2616795e+48
-1.2616959e+48
-1.2871032e+48
-1.2873185e+48
-1.2709332e+48
-1.2834231e+48
-1.2831326e+48
-1.286789e+48
-1.2868978e+48
-1.2709628e+48
-1.2830209e+48
-1.2828971e+48
-1.2941228e+48
-1.29858e+48
-1.2943128e+48
-1.2987661e+48
-1.2614749e+48
-1.2613124e+48
-1.2944848e+48
-1.2990276e+48
-1.2948014e+48
-1.2993014e+48
-1.3073208e+48
-1.3119657e+48
-1.3075508e+48
-1.3120732e+48
-1.3195477e+48
-1.3249032e+48
-1.3197225e+48
-1.3250754e+48
-1.3069696e+48
-1.3115657e+48
-1.3071141e+48
-1.311745e+48
-1.3198547e+48
-1.3252243e+48
-1.3198899e+48
-1.3252008e+48
-1.2412983e+48
-1.2409789e+48
-1.250179e+48
-1.2499173e+48
-1.2503379e+48
-1.2414644e+48
-1.2416122e+48
-1.250536e+48
-1.3875711e+48
-1.3929035e+48
-1.3877525e+48
-1.3932655e+48
-1.3693947e+48
-1.3691447e+48
-1.3774116e+48
-1.3768996e+48
-1.3694891e+48
-1.3773879e+48
-1.3695987e+48
-1.3776355e+48
-1.3874548e+48
-1.3930738e+48
-1.3869529e+48
-1.3923159e+48
-1.387055e+48
-1.3921717e+48
-1.3875538e+48
-1.3929817e+48
-1.3694378e+48
-1.3775366e+48
-1.3694985e+48
-1.377398e+48
-1.3691492e+48
-1.3769978e+48
-1.3693821e+48
-1.3774563e+48
-1.3876502e+48
-1.3875684e+48
-1.3932083e+48
-1.3928881e+48
-1.3496028e+48
-1.3497917e+48
-1.3574118e+48
-1.3576915e+48
-1.3340711e+48
-1.3401091e+48
-1.3341196e+48
-1.3402514e+48
-1.3341953e+48
-1.3343499e+48
-1.3403379e+48
-1.3403912e+48
-1.3498941e+48
-1.3499706e+48
-1.3578145e+48
-1.3578023e+48
-1.3346293e+48
-1.3346688e+48
-1.3406909e+48
-1.3405666e+48
-1.3344177e+48
-1.3345678e+48
-1.3404179e+48
-1.3406272e+48
-1.3499597e+48
-1.3578312e+48
-1.3501493e+48
-1.3580436e+48
-1.3501243e+48
-1.3499725e+48
-1.357983e+48
-1.357624e+48
-1.105373e+48
-1.163518e+48
-1.186967e+48
-1.1875918e+48
-1.1619033e+48
-1.1059479e+48
-1.1875927e+48
-1.1875082e+48
-1.1616864e+48
-1.1634976e+48
-1.2199603e+48
-1.2109179e+48
-1.2106012e+48
-1.2208773e+48
-1.2308907e+48
-1.2242889e+48
-1.2250167e+48
-1.2318926e+48
-1.2317091e+48
-1.2251512e+48
-1.2248692e+48
-1.2314067e+48
-1.2104299e+48
-1.2101694e+48
-1.2205798e+48
-1.2203353e+48
-1.2104753e+48
-1.2101625e+48
-1.220196e+48
-1.2208599e+48
-1.2246672e+48
-1.2253205e+48
-1.2316778e+48
-1.2322342e+48
-1.225395e+48
-1.2248972e+48
-1.2318334e+48
-1.2311268e+48
-1.2109211e+48
-1.21092e+48
-1.2210667e+48
-1.2204463e+48
-1.3482495e+48
-1.3482406e+48
-1.3524459e+48
-1.3524596e+48
-1.3577974e+48
-1.3622852e+48
-1.3623408e+48
-1.3578328e+48
-1.3325279e+48
-1.3325307e+48
-1.3353727e+48
-1.3353554e+48
-1.3397907e+48
-1.339784e+48
-1.3428443e+48
-1.3428374e+48
-1.335301e+48
-1.3325003e+48
-1.3353359e+48
-1.3325085e+48
-1.3428098e+48
-1.3397588e+48
-1.3397332e+48
-1.3427534e+48
-1.1589193e+48
-1.1568254e+48
-1.2021613e+48
-1.202323e+48
-1.200053e+48
-1.1971965e+48
-1.2018984e+48
-1.1964274e+48
-1.2191244e+48
-1.2178022e+48
-1.2184992e+48
-1.2202873e+48
-1.2175034e+48
-1.2158059e+48
-1.2162446e+48
-1.2184628e+48
-1.2152301e+48
-1.2158221e+48
-1.217855e+48
-1.2172882e+48
-1.2204035e+48
-1.2182742e+48
-1.2180732e+48
-1.2202307e+48
-1.2377295e+48
-1.2348105e+48
-1.2349627e+48
-1.2378514e+48
-1.2298679e+48
-1.2259499e+48
-1.2265703e+48
-1.2301327e+48
-1.2260419e+48
-1.2262382e+48
-1.2300587e+48
-1.2297922e+48
-1.2378514e+48
-1.2348671e+48
-1.2348545e+48
-1.2378497e+48
-1.237632e+48
-1.2347968e+48
-1.2346609e+48
-1.2373926e+48
-1.2293148e+48
-1.2256717e+48
-1.226008e+48
-1.2295222e+48
-1.2260951e+48
-1.226283e+48
-1.229578e+48
-1.2295473e+48
-1.2373853e+48
-1.2346006e+48
-1.234793e+48
-1.2376535e+48
-1.2174115e+48
-1.2152383e+48
-1.2156467e+48
-1.2178951e+48
-1.2181791e+48
-1.2179931e+48
-1.2200635e+48
-1.2203671e+48
-1.2202548e+48
-1.2185611e+48
-1.2348111e+48
-1.237821e+48
-1.2434946e+48
-1.2433243e+48
-1.246764e+48
-1.2468735e+48
-1.243406e+48
-1.2434998e+48
-1.2469325e+48
-1.2466944e+48
-1.2561642e+48
-1.2525754e+48
-1.2524657e+48
-1.2559232e+48
-1.2560052e+48
-1.2526314e+48
-1.2527527e+48
-1.2561104e+48
-1.2472806e+48
-1.2438414e+48
-1.2438474e+48
-1.2471648e+48
-1.2435971e+48
-1.2436499e+48
-1.24707e+48
-1.2469857e+48
-1.2529992e+48
-1.252984e+48
-1.2565795e+48
-1.2564621e+48
-1.2563777e+48
-1.2529126e+48
-1.252849e+48
-1.256389e+48
-1.2665189e+48
-1.2627559e+48
-1.2627461e+48
-1.2664882e+48
-1.2627681e+48
-1.2627461e+48
-1.2665236e+48
-1.2665082e+48
-1.2728095e+48
-1.2727846e+48
-1.277102e+48
-1.277083e+48
-1.2770551e+48
-1.2727958e+48
-1.2728175e+48
-1.2770904e+48
-1.2663794e+48
-1.2626309e+48
-1.2623956e+48
-1.2660938e+48
-1.2623792e+48
-1.2623837e+48
-1.2660514e+48
-1.2658896e+48
-1.272421e+48
-1.2727171e+48
-1.2770249e+48
-1.2766082e+48
-1.2764138e+48
-1.2722355e+48
-1.2720255e+48
-1.2761956e+48
-1.3209466e+48
-1.3185005e+48
-1.3209722e+48
-1.3185351e+48
-1.325126e+48
-1.3277197e+48
-1.3277288e+48
-1.3251281e+48
-1.3185818e+48
-1.3209789e+48
-1.3185334e+48
-1.3209661e+48
-1.3251199e+48
-1.3277321e+48
-1.3251354e+48
-1.3276973e+48
-1.306454e+48
-1.3084295e+48
-1.308398e+48
-1.3064551e+48
-1.306469e+48
-1.3064643e+48
-1.3084457e+48
-1.3084336e+48
-1.3143367e+48
-1.3123166e+48
-1.3143461e+48
-1.3123329e+48
-1.3082762e+48
-1.3062293e+48
-1.3082642e+48
-1.3062879e+48
-1.3121608e+48
-1.3142129e+48
-1.3142539e+48
-1.3122031e+48
-1.3083807e+48
-1.3063365e+48
-1.3083414e+48
-1.3064118e+48
-1.3122473e+48
-1.3142953e+48
-1.3123016e+48
-1.3143375e+48
-1.3185905e+48
-1.3209994e+48
-1.3209849e+48
-1.3185841e+48
-1.2951671e+48
-1.2951359e+48
-1.2965096e+48
-1.296471e+48
-1.3003654e+48
-1.3021499e+48
-1.3021219e+48
-1.3003856e+48
-1.2952214e+48
-1.2951211e+48
-1.2964389e+48
-1.2965222e+48
-1.3003365e+48
-1.3002909e+48
-1.3021469e+48
-1.3021242e+48
-1.2964053e+48
-1.2950854e+48
-1.2963561e+48
-1.2951884e+48
-1.3001462e+48
-1.3019036e+48
-1.3019677e+48
-1.3002336e+48
-1.296455e+48
-1.2952375e+48
-1.2964847e+48
-1.2951894e+48
-1.300281e+48
-1.3020489e+48
-1.3003034e+48
-1.3021001e+48
-1.2900618e+48
-1.2901712e+48
-1.2911062e+48
-1.291217e+48
-1.2913078e+48
-1.2912064e+48
-1.2902679e+48
-1.2901677e+48
-1.2831849e+48
-1.2832369e+48
-1.2902651e+48
-1.2902052e+48
-1.2912893e+48
-1.2912459e+48
-1.291347e+48
-1.2911985e+48
-1.2902041e+48
-1.2900004e+48
-1.2830862e+48
-1.2832306e+48
-1.2899895e+48
-1.2898486e+48
-1.291222e+48
-1.2910572e+48
-1.2910379e+48
-1.2908158e+48
-1.2898352e+48
-1.289662e+48
-1.282897e+48
-1.2827001e+48
-1.2962948e+48
-1.2951122e+48
-1.2964342e+48
-1.2949924e+48
-1.4059734e+48
-1.4063736e+48
-1.4062955e+48
-1.4059859e+48
-1.4059581e+48
-1.404888e+48
-1.406095e+48
-1.4057549e+48
-1.4053925e+48
-1.4057886e+48
-1.4059923e+48
-1.4058599e+48
-1.406073e+48
-1.4067609e+48
-1.4065373e+48
-1.405938e+48
-1.4052572e+48
-1.4050979e+48
-1.4053333e+48
-1.4046708e+48
-1.4056463e+48
-1.4050086e+48
-1.4058802e+48
-1.4052933e+48
-1.4040344e+48
-1.4034543e+48
-1.4038066e+48
-1.4042068e+48
-1.4042891e+48
-1.4049435e+48
-1.4043729e+48
-1.4049976e+48
-1.3308158e+48
-1.2925032e+48
-1.3410399e+48
-1.3420366e+48
-1.2930457e+48
-1.3415458e+48
-1.3424539e+48
-1.3850058e+48
-1.3848072e+48
-1.3586327e+48
-1.3848834e+48
-1.3848731e+48
-1.3843245e+48
-1.384721e+48
-1.3593304e+48
-1.3846694e+48
-1.384238e+48
-1.3979269e+48
-1.3972384e+48
-1.4017083e+48
-1.4019039e+48
-1.3992145e+48
-1.3991921e+48
-1.397071e+48
-1.3977583e+48
-1.4018181e+48
-1.4017063e+48
-1.3991109e+48
-1.3990552e+48
-1.3996227e+48
-1.3994741e+48
-1.400642e+48
-1.4006705e+48
-1.4007785e+48
-1.3995519e+48
-1.3996941e+48
-1.4007619e+48
-1.399155e+48
-1.3995651e+48
-1.3996506e+48
-1.399145e+48
-1.3956354e+48
-1.3987332e+48
-1.397919e+48
-1.3941259e+48
-1.3999969e+48
-1.399869e+48
-1.3996052e+48
-1.3997435e+48
-1.3983354e+48
-1.3986078e+48
-1.3951706e+48
-1.3947705e+48
-1.3999792e+48
-1.3999889e+48
-1.3995987e+48
-1.3998034e+48
-1.3949523e+48
-1.398145e+48
-1.3987745e+48
-1.3953047e+48
-1.3999517e+48
-1.3999512e+48
-1.3997219e+48
-1.3995406e+48
-1.3983515e+48
-1.3988017e+48
-1.3953097e+48
-1.3951957e+48
-1.3997421e+48
-1.3995662e+48
-1.4007694e+48
-1.4008078e+48
-1.4007965e+48
-1.3997281e+48
-1.3996173e+48
-1.4007889e+48
-1.3978785e+48
-1.3970733e+48
-1.401887e+48
-1.4016423e+48
-1.3993466e+48
-1.3993936e+48
-1.3973652e+48
-1.3978908e+48
-1.4019003e+48
-1.4018951e+48
-1.3993921e+48
-1.399316e+48
-1.4006808e+48
-1.3994871e+48
-1.4007718e+48
-1.3996932e+48
-1.3997062e+48
-1.3996297e+48
-1.4007933e+48
-1.4008319e+48
-1.4008374e+48
-1.3996295e+48
-1.4008774e+48
-1.3998248e+48
-1.3997263e+48
-1.3996289e+48
-1.4008141e+48
-1.4008279e+48
-1.3993956e+48
-1.3998002e+48
-1.3998836e+48
-1.3996457e+48
-1.4000565e+48
-1.3999033e+48
-1.3995853e+48
-1.3995998e+48
-1.3987435e+48
-1.3948957e+48
-1.39477e+48
-1.3983332e+48
-1.3946854e+48
-1.3984294e+48
-1.3985566e+48
-1.3944409e+48
-1.398385e+48
-1.3988828e+48
-1.3958385e+48
-1.3949219e+48
-1.3957783e+48
-1.3987158e+48
-1.3978335e+48
-1.3950452e+48
-1.4000058e+48
-1.4000435e+48
-1.3996134e+48
-1.3996569e+48
-1.3999457e+48
-1.3998468e+48
-1.3992393e+48
-1.3993973e+48
-1.3548481e+48
-1.3550205e+48
-1.3727001e+48
-1.3848053e+48
-1.3850517e+48
-1.3588868e+48
-1.3849624e+48
-1.3847025e+48
-1.3849412e+48
-1.3845433e+48
-1.3598381e+48
-1.3847071e+48
-1.3848471e+48
-1.3957716e+48
-1.3969913e+48
-1.3973478e+48
-1.4013548e+48
-1.3993542e+48
-1.4014551e+48
-1.3993418e+48
-1.3971731e+48
-1.3963918e+48
-1.4009324e+48
-1.4012123e+48
-1.3992016e+48
-1.3993045e+48
-1.3977681e+48
-1.3970893e+48
-1.4015448e+48
-1.4017118e+48
-1.3993697e+48
-1.3993804e+48
-1.3971432e+48
-1.3977729e+48
-1.4017671e+48
-1.4017473e+48
-1.3993735e+48
-1.3993238e+48
-1.3943639e+48
-1.3941219e+48
-1.3958555e+48
-1.396461e+48
-1.3999159e+48
-1.4040154e+48
-1.398831e+48
-1.3989615e+48
-1.3998932e+48
-1.3998153e+48
-1.3990568e+48
-1.3989919e+48
-1.4000683e+48
-1.399993e+48
-1.3990801e+48
-1.3992425e+48
-1.4002257e+48
-1.4001714e+48
-1.4002123e+48
-1.3992216e+48
-1.3991515e+48
-1.400271e+48
-1.398927e+48
-1.3990372e+48
-1.3977566e+48
-1.3980345e+48
-1.3925811e+48
-1.3965426e+48
-1.3969877e+48
-1.3928859e+48
-1.3991482e+48
-1.3982093e+48
-1.3993926e+48
-1.3984997e+48
-1.3971504e+48
-1.3974512e+48
-1.3935071e+48
-1.3929155e+48
-1.3994453e+48
-1.3994446e+48
-1.3986407e+48
-1.3985502e+48
-1.393579e+48
-1.3974445e+48
-1.3977987e+48
-1.3939885e+48
-1.3943758e+48
-1.3977395e+48
-1.3969621e+48
-1.3932996e+48
-1.3992971e+48
-1.3994988e+48
-1.3983803e+48
-1.3982588e+48
-1.3993805e+48
-1.3992606e+48
-1.4003772e+48
-1.4004272e+48
-1.3994288e+48
-1.3994453e+48
-1.4005093e+48
-1.4006066e+48
-1.3995306e+48
-1.3994814e+48
-1.3986384e+48
-1.3989451e+48
-1.3934868e+48
-1.3974521e+48
-1.3981106e+48
-1.3940914e+48
-1.399812e+48
-1.3996285e+48
-1.3991262e+48
-1.3992905e+48
-1.3981701e+48
-1.3984061e+48
-1.3944581e+48
-1.39423e+48
-1.4006237e+48
-1.3994267e+48
-1.3996292e+48
-1.4006941e+48
-1.4006209e+48
-1.3995369e+48
-1.3994868e+48
-1.4007005e+48
-1.3998347e+48
-1.3998226e+48
-1.3992969e+48
-1.3994159e+48
-1.3998802e+48
-1.3996298e+48
-1.3990754e+48
-1.3991924e+48
-1.3987138e+48
-1.3982124e+48
-1.3942314e+48
-1.3950118e+48
-1.397808e+48
-1.3985216e+48
-1.3949588e+48
-1.3940257e+48
-1.0757656e+48
-1.403705e+48
-1.4038044e+48
-1.4038829e+48
-1.4040615e+48
-1.4042149e+48
-1.4051152e+48
-1.4049275e+48
-1.4039604e+48
-1.404398e+48
-1.4041815e+48
-1.4041742e+48
-1.4044759e+48
-1.4036709e+48
-1.4040817e+48
-1.4042335e+48
-1.4022758e+48
-1.4031111e+48
-1.4033787e+48
-1.4033894e+48
-1.4028002e+48
-1.4034589e+48
-1.4042151e+48
-1.4028934e+48
-1.4040042e+48
-1.4019783e+48
-1.4015093e+48
-1.4023549e+48
-1.4014769e+48
-1.4031372e+48
-1.4024083e+48
-1.4022163e+48
-1.4034046e+48
-1.0824304e+48
-1.2569269e+48
-1.2527943e+48
-1.2528008e+48
-1.2568912e+48
-1.2479368e+48
-1.2436667e+48
-1.2479376e+48
-1.2856788e+48
-1.2857304e+48
-1.2698467e+48
-1.281826e+48
-1.2816901e+48
-1.2699163e+48
-1.2601548e+48
-1.2603628e+48
-1.2929972e+48
-1.2975065e+48
-1.293067e+48
-1.2975251e+48
-1.3058393e+48
-1.3058857e+48
-1.3104706e+48
-1.2401711e+48
-1.2405297e+48
-1.2493642e+48
-1.2491636e+48
-1.1615635e+48
-1.1843806e+48
-1.1639374e+48
-1.186218e+48
-1.1054425e+48
-1.208861e+48
-1.2309271e+48
-1.2245923e+48
-1.2242626e+48
-1.2305224e+48
-1.2103423e+48
-1.2097143e+48
-1.2199728e+48
-1.21984e+48
-1.3923662e+48
-1.3885957e+48
-1.3920536e+48
-1.3888139e+48
-1.3960851e+48
-1.3966915e+48
-1.397153e+48
-1.3963441e+48
-1.3888086e+48
-1.3922225e+48
-1.3888205e+48
-1.3923579e+48
-1.3963569e+48
-1.397241e+48
-1.3962944e+48
-1.3969509e+48
-1.3678868e+48
-1.3725621e+48
-1.3727586e+48
-1.368076e+48
-1.3681689e+48
-1.3680891e+48
-1.3728303e+48
-1.3728476e+48
-1.3830099e+48
-1.3781468e+48
-1.3827988e+48
-1.3783255e+48
-1.3784168e+48
-1.3830084e+48
-1.3784008e+48
-1.383103e+48
-1.3724736e+48
-1.3676623e+48
-1.3723368e+48
-1.3677642e+48
-1.3778688e+48
-1.3824342e+48
-1.3826769e+48
-1.3780232e+48
-1.3724683e+48
-1.3677603e+48
-1.3725036e+48
-1.3678005e+48
-1.378076e+48
-1.3827536e+48
-1.3780678e+48
-1.3826726e+48
-1.388925e+48
-1.392385e+48
-1.3927209e+48
-1.3891168e+48
-1.3972196e+48
-1.3964564e+48
-1.3968047e+48
-1.3978319e+48
-1.3891685e+48
-1.3891666e+48
-1.3927892e+48
-1.392657e+48
-1.3978898e+48
-1.3967489e+48
-1.3974831e+48
-1.3968645e+48
-1.3685617e+48
-1.3732491e+48
-1.3734225e+48
-1.3687092e+48
-1.3686789e+48
-1.3686682e+48
-1.3734449e+48
-1.3733859e+48
-1.3837839e+48
-1.3788757e+48
-1.3835762e+48
-1.3790314e+48
-1.3789834e+48
-1.3836384e+48
-1.3790454e+48
-1.3838147e+48
-1.3731337e+48
-1.3682376e+48
-1.3729268e+48
-1.3684095e+48
-1.3785032e+48
-1.3830952e+48
-1.383396e+48
-1.3787259e+48
-1.3732299e+48
-1.3684573e+48
-1.373216e+48
-1.3685287e+48
-1.3788369e+48
-1.3835332e+48
-1.3788744e+48
-1.3835067e+48
-1.3897459e+48
-1.3932907e+48
-1.3936271e+48
-1.3899261e+48
-1.3899091e+48
-1.393631e+48
-1.3898359e+48
-1.3934273e+48
-1.3983004e+48
-1.3988661e+48
-1.3974542e+48
-1.3977817e+48
-1.3975576e+48
-1.3977657e+48
-1.3988044e+48
-1.3983103e+48
-1.3968853e+48
-1.3976709e+48
-1.3983999e+48
-1.3974194e+48
-1.3932273e+48
-1.3892763e+48
-1.3927833e+48
-1.3895459e+48
-1.3896828e+48
-1.389637e+48
-1.3932721e+48
-1.3932052e+48
-1.3973581e+48
-1.3973547e+48
-1.3982392e+48
-1.3981516e+48
-1.3520047e+48
-1.3475984e+48
-1.3519028e+48
-1.3477357e+48
-1.357346e+48
-1.3618695e+48
-1.3620588e+48
-1.3574823e+48
-1.3520918e+48
-1.3477529e+48
-1.3520706e+48
-1.34785e+48
-1.3575686e+48
-1.3621609e+48
-1.3575744e+48
-1.3621557e+48
-1.3315387e+48
-1.3344623e+48
-1.3345575e+48
-1.3316529e+48
-1.3316769e+48
-1.3346075e+48
-1.3346621e+48
-1.3317558e+48
-1.3389992e+48
-1.3421363e+48
-1.3422713e+48
-1.3391341e+48
-1.3391572e+48
-1.3423076e+48
-1.3423748e+48
-1.3392458e+48
-1.3317526e+48
-1.3346766e+48
-1.3347295e+48
-1.3318283e+48
-1.33186e+48
-1.3318276e+48
-1.3347596e+48
-1.3347668e+48
-1.3392229e+48
-1.3423583e+48
-1.3424359e+48
-1.3392978e+48
-1.3392831e+48
-1.3392648e+48
-1.3424477e+48
-1.342443e+48
-1.3478116e+48
-1.3521106e+48
-1.3522199e+48
-1.3478861e+48
-1.3479225e+48
-1.3478712e+48
-1.3522402e+48
-1.3522449e+48
-1.3622022e+48
-1.3623512e+48
-1.357596e+48
-1.3577149e+48
-1.3576639e+48
-1.3576861e+48
-1.3623335e+48
-1.3622565e+48
-1.3513765e+48
-1.3470596e+48
-1.3513262e+48
-1.3471385e+48
-1.356703e+48
-1.3612345e+48
-1.3613678e+48
-1.3568049e+48
-1.3471991e+48
-1.3514435e+48
-1.3471419e+48
-1.351416e+48
-1.3568541e+48
-1.3614334e+48
-1.3569034e+48
-1.3614205e+48
-1.3312281e+48
-1.3341559e+48
-1.3342232e+48
-1.331337e+48
-1.3313716e+48
-1.334308e+48
-1.334406e+48
-1.3314882e+48
-1.3419309e+48
-1.3386921e+48
-1.3418316e+48
-1.3387768e+48
-1.3420943e+48
-1.3388517e+48
-1.3420376e+48
-1.3389601e+48
-1.3340179e+48
-1.3310804e+48
-1.3340014e+48
-1.3311361e+48
-1.3385077e+48
-1.341612e+48
-1.34168e+48
-1.3385583e+48
-1.3340756e+48
-1.3311236e+48
-1.3340407e+48
-1.3311746e+48
-1.338579e+48
-1.3417276e+48
-1.3386326e+48
-1.3417546e+48
-1.3472704e+48
-1.3515416e+48
-1.3516792e+48
-1.3473824e+48
-1.3474541e+48
-1.3517681e+48
-1.3475296e+48
-1.3518303e+48
-1.3615439e+48
-1.3617432e+48
-1.3570043e+48
-1.3571688e+48
-1.3572466e+48
-1.3572063e+48
-1.3617941e+48
-1.3617855e+48
-1.3193221e+48
-1.3168151e+48
-1.3193327e+48
-1.3168553e+48
-1.3235554e+48
-1.3261871e+48
-1.3262277e+48
-1.323579e+48
-1.316919e+48
-1.3193856e+48
-1.3168608e+48
-1.3193527e+48
-1.323586e+48
-1.3262521e+48
-1.3236266e+48
-1.3262536e+48
-1.3045126e+48
-1.3065429e+48
-1.3065647e+48
-1.3045505e+48
-1.3047072e+48
-1.3046033e+48
-1.3066615e+48
-1.3067567e+48
-1.312674e+48
-1.3105227e+48
-1.3126206e+48
-1.3105918e+48
-1.3107275e+48
-1.3128418e+48
-1.3106333e+48
-1.3127495e+48
-1.3063954e+48
-1.3043679e+48
-1.3064134e+48
-1.3043849e+48
-1.3103829e+48
-1.3124597e+48
-1.3124881e+48
-1.3104052e+48
-1.3064637e+48
-1.3044002e+48
-1.3064361e+48
-1.3044536e+48
-1.3104314e+48
-1.3125264e+48
-1.3104781e+48
-1.3125623e+48
-1.3169722e+48
-1.3194694e+48
-1.3195369e+48
-1.317029e+48
-1.3170864e+48
-1.3196227e+48
-1.3172116e+48
-1.3197226e+48
-1.3263347e+48
-1.3264288e+48
-1.3236924e+48
-1.3237827e+48
-1.3239298e+48
-1.3238366e+48
-1.3265048e+48
-1.3265817e+48
-1.2931978e+48
-1.29321e+48
-1.2945265e+48
-1.2945312e+48
-1.2984401e+48
-1.300148e+48
-1.3001557e+48
-1.2984247e+48
-1.2932825e+48
-1.2933037e+48
-1.2946497e+48
-1.2946106e+48
-1.298456e+48
-1.2985147e+48
-1.3002257e+48
-1.3003032e+48
-1.2944065e+48
-1.2931171e+48
-1.2943958e+48
-1.293175e+48
-1.2982768e+48
-1.2999793e+48
-1.299987e+48
-1.2983193e+48
-1.2944085e+48
-1.2932063e+48
-1.2944464e+48
-1.2931643e+48
-1.2983169e+48
-1.3000338e+48
-1.2983159e+48
-1.300057e+48
-1.2882418e+48
-1.2883101e+48
-1.289163e+48
-1.2892127e+48
-1.2892984e+48
-1.2891786e+48
-1.2884211e+48
-1.2882863e+48
-1.2812466e+48
-1.2753017e+48
-1.2713819e+48
-1.2714129e+48
-1.2752742e+48
-1.2813517e+48
-1.2883838e+48
-1.2883184e+48
-1.289253e+48
-1.2892329e+48
-1.2893702e+48
-1.2893416e+48
-1.2884117e+48
-1.2883463e+48
-1.2754102e+48
-1.2716393e+48
-1.2718793e+48
-1.2756775e+48
-1.2815607e+48
-1.2814434e+48
-1.2652504e+48
-1.2616828e+48
-1.2617057e+48
-1.265227e+48
-1.2621052e+48
-1.2618555e+48
-1.2654378e+48
-1.2656374e+48
-1.288695e+48
-1.2886688e+48
-1.2895354e+48
-1.2895594e+48
-1.2897098e+48
-1.2896383e+48
-1.2887524e+48
-1.2886508e+48
-1.2756664e+48
-1.2718859e+48
-1.2719859e+48
-1.2758227e+48
-1.2818629e+48
-1.2817527e+48
-1.2884295e+48
-1.2884915e+48
-1.2893881e+48
-1.2894249e+48
-1.2895322e+48
-1.2894769e+48
-1.2886629e+48
-1.2886156e+48
-1.2756946e+48
-1.2718625e+48
-1.2718162e+48
-1.2756438e+48
-1.2817209e+48
-1.281548e+48
-1.2933427e+48
-1.2934062e+48
-1.2947023e+48
-1.2946845e+48
-1.2985754e+48
-1.2986066e+48
-1.3003435e+48
-1.3003573e+48
-1.294774e+48
-1.2934644e+48
-1.2947502e+48
-1.2934737e+48
-1.3003834e+48
-1.2986189e+48
-1.2986592e+48
-1.3004192e+48
-1.2656231e+48
-1.2621071e+48
-1.2620221e+48
-1.2655702e+48
-1.2624464e+48
-1.262209e+48
-1.2657696e+48
-1.2659168e+48