/*--------------------------------*- C++ -*----------------------------------*\
  =========                 |
  \\      /  F ield         | OpenFOAM: The Open Source CFD Toolbox
   \\    /   O peration     | Website:  https://openfoam.org
    \\  /    A nd           | Version:  7
     \\/     M anipulation  |
\*---------------------------------------------------------------------------*/
FoamFile
{
    version     2.0;
    format      ascii;
    class       volScalarField;
    location    "8000";
    object      omega;
}
// * * * * * * * * * * * * * * * * * * * * * * * * * * * * * * * * * * * * * //

dimensions      [0 0 -1 0 0 0 0];

internalField   nonuniform List<scalar> 
34356
(
2355.3246
4459.6477
4219.5911
4201.5941
857.6649
870.83775
427.65019
873.85889
871.17102
1231.8229
9309.4892
1228.8203
9275.9678
7961.483
7823.3374
1984.9459
1979.9623
8000.5876
1988.1652
7832.3205
1974.4501
768.54053
702.66213
702.72678
774.36931
386.76007
389.36554
388.98419
405.28522
405.21646
509.04591
583.08594
1565.5036
1397.758
2122.0642
2132.7319
2137.9526
2147.6362
1970.8189
669.49278
673.10591
1994.3592
4574.4295
18599.945
4511.9324
18605.423
676.2795
670.73344
1957.6644
1987.8775
4539.2986
4488.3052
18535.121
18569.155
4565.5316
13399.373
13927.256
4702.8195
13461.984
4523.1691
13244.473
4538.5395
13802.827
13673.941
4627.7213
4647.284
4475.9994
12942.882
13836.048
4690.498
1945.6629
1937.3503
1918.5534
1949.6134
1617.7736
1451.081
1418.3841
1595.0294
590.47259
1592.4943
1424.5853
1430.043
1600.353
594.11522
1931.0159
1926.4612
1919.9428
1911.9644
515.27599
515.19965
381.32227
380.70684
369.89607
370.97591
4833.723
386.51027
443.03242
726.25719
853.38039
850.48029
718.99254
1015.5401
1023.7873
1161.5417
1163.1494
4216.4888
4086.1913
4036.3088
3426.8734
3381.3001
3051.3926
3058.3553
3096.9665
5017.2267
4999.4091
5071.7469
5186.9306
5126.1697
5141.4949
4995.6729
5215.2827
549.29286
550.59486
2119.241
693.62626
695.34493
2149.2632
6806.8001
3585.8883
3598.491
6777.0301
12940.332
32691.832
32888.295
12963.356
6702.3286
3531.634
3540.2074
6696.7486
12813.996
12847.985
32627.184
33026.207
700.34087
693.04903
2108.7576
2139.2817
3572.954
3556.8806
6711.7901
6769.2379
6714.6413
3521.3762
3511.8758
6621.4426
12874.639
12830.548
32320.976
32939.368
12836.52
32949.69
12719.047
32650.048
21323.207
22208.118
8352.2304
8221.2892
8505.2936
22645.137
22791.622
8630.2571
8238.7917
21694.698
22204.172
8311.0198
21674.749
21327.675
8109.825
8127.357
22736.814
22256.921
8450.9178
8500.1951
8391.5255
22410.538
22140
8423.0314
20475.938
21359.069
7977.7286
8117.818
22316.612
22741.159
8466.1313
8633.3073
2139.6635
2006.643
4725.0523
5488.6992
5250.7052
4943.1895
5378.2414
5354.1282
4873.0008
4830.9747
4863.4204
4948.235
4985.5648
4915.2383
4795.0152
5106.7208
4909.64
5013.65
4308.7791
4275.916
4150.2386
4475.874
3593.8122
3499.3005
3187.7534
3229.5573
1205.5944
3153.2424
3125.0838
3457.3099
1186.7726
3501.5412
4160.8787
4124.5362
4314.2292
4371.2495
1042.5666
1065.1469
4315.1268
4197.3663
4137.9251
4407.1908
3171.1109
3145.6488
3528.901
3472.9865
1185.5719
3144.1573
3101.2735
3417.8997
1203.6672
3471.1186
4101.9055
4248.6287
4069.3284
4295.3285
1060.1367
1047.0031
4732.0859
5225.9962
5234.7885
4751.3095
4786.111
5421.164
5303.7076
4913.1065
4829.6324
4933.3415
5027.7755
4951.7803
4874.3762
4861.4325
4765.6196
4795.8827
387.87236
447.18109
388.74714
448.2804
743.23994
883.42191
873.46239
735.76405
734.49982
869.89879
886.98366
745.04633
10208.521
9515.8625
10049.352
9607.9365
10408.294
9954.4025
444.82925
629.80837
632.05708
516.42161
517.05963
1298.7851
1108.0945
1077.1731
1271.1943
1752.8872
1556.1803
1507.3651
1718.0701
1724.4868
1518.9407
1527.2537
1742.2809
1074.2058
1267.372
1282.8277
2012.672
2005.8009
2161.1129
2171.3086
2032.5371
1987.4712
2171.5235
2149.4273
2486.7338
2462.1727
2620.6815
2625.3433
2489.9061
2483.3525
2644.6177
2646.8624
9786.3022
9385.344
10175.785
9768.6722
9510.948
9733.1732
9360.7379
9189.9454
9038.1556
9586.6161
9440.5872
10148.281
8421.4991
8575.854
8582.7363
8805.8708
8152.4203
8298.2139
8521.2204
8693.625
6953.5801
7278.9856
5847.9179
6066.5579
7166.7036
7341.7819
6147.4612
6009.7187
7386.5391
7537.0067
6217.5241
6293.4862
8671.5998
9045.1698
9115.0635
8898.6299
8900.5126
9035.4859
9187.5435
9312.7355
9454.9773
9344.079
9317.2901
9240.1089
9222.4836
8790.2237
8962.1566
9303.3898
9511.7849
533.0763
535.19868
2211.9148
4083.6845
4072.9706
676.03297
679.52421
2247.9991
4147.8461
4143.5487
7504.7752
7469.5097
12563.279
12496.046
18372.504
18595.747
28982.974
48540.227
29426.909
48790.344
29107.025
48457.562
29543.658
49146.404
12653.052
12507.481
18395.647
18644.348
7386.9378
7379.6741
12495.603
12347.395
18191.503
18457.309
12418.102
12451.531
18459.354
18305.483
28920.258
29275.941
48681.035
48107.794
49190.298
49162.759
29283.505
28868.611
682.95316
677.18122
2203.6689
4040.9508
4074.3631
2234.1978
4105.1303
4123.9129
7400.8861
7463.9709
7411.2655
7297.5765
12835.804
18198.918
12555.606
12408.899
18458.338
12401.777
12454.859
18387.975
18207.277
28826.083
47188.531
29453.843
48036.356
29424.165
48777.163
48910.988
28992.093
12396.073
12520.577
18230.134
18457.051
29153.685
48462.159
29424.449
49066.093
12280.678
12333.337
18298.183
18113.139
29157.122
28645.678
48909.786
48647.994
38458.532
37463.014
11830.688
11916.717
39802.094
39994.168
12172.109
12156.764
40123.625
12348.355
40792.851
12423.795
12496.704
41067.584
40371.977
12454.047
38930.445
38520.429
11943.353
11942.264
39793.837
40017.521
12097.475
12114.116
38586.187
39069.515
11805.611
11839.596
38389.23
37484.034
11684.632
11676.256
40734.53
41020.789
12457.836
12445.42
39949.069
39538.247
12330.19
12321.831
39927.727
40346.884
12258.577
12270.442
38907.04
39992.137
12165.589
12090.292
36539.785
35975.755
11484.535
11506.065
11802.868
38152.081
38460.777
11860.462
40312.496
39280.691
12265.431
12360.911
40402.576
40854.675
12539.666
12511.688
357.80712
4039.4777
4019.3956
4238.1456
4274.4697
3661.2387
3597.8333
3847.8803
3161.5801
1204.2941
3486.1548
4124.8142
1064.1554
449.71981
387.58489
389.37426
890.77546
748.11493
9424.8633
8460.6991
9654.1074
8643.0292
10529.715
10870.86
9676.3016
9978.1086
9860.8048
9089.7506
10171.92
9345.0867
10015.086
8959.876
10295.474
9194.5346
10389.359
10457.908
9551.8296
9637.5765
10480.584
9639.7193
10556.706
9714.6719
9904.4488
9953.3853
8868.5804
8930.0461
8956.3118
10006.453
10048.967
9003.5036
10730.289
9992.0691
10841.669
10106.495
10578.869
10718.244
10099.358
10245.181
10537.922
10640.98
10047.258
10176.145
10659.413
10743.831
9916.0724
10026.662
10125.82
9424.7495
10508.941
9760.8201
10720.276
11101.073
10218.744
10600.165
10036.718
9569.8586
10474.022
9966.7247
10826.721
11200.255
10067.626
10426.967
9848.8424
9411.9923
10335.83
9859.6138
9896.5185
10238.94
9709.4649
10081.916
9311.2962
9129.8059
9823.1451
9616.5698
10490.58
10865.874
10033.403
10421.051
8814.3246
8950.7086
9103.4352
9282.7337
8309.298
8431.0484
8795.5906
8922.9559
7110.1292
7526.094
6011.7403
2757.8606
6325.8112
7524.6014
7794.4647
2775.8888
6557.2713
6332.2433
2638.0883
2613.5793
7321.0178
7442.8031
2722.6048
6238.8144
6143.5554
7364.1048
7456.678
2684.9953
6241.5109
6208.8113
8632.0542
8764.8074
8739.0666
8914.333
2542.8559
2572.1303
8599.6934
8743.3776
8707.9042
8896.4639
9687.6472
9505.8104
9814.7761
9666.5845
9702.8615
9522.1895
9849.7842
9694.8455
10309.42
9876.2102
10466.842
10045.403
10290.18
9846.9737
10413.4
9998.7991
2084.5089
2055.8941
2212.8597
2250.2469
2309.1948
2161.8789
2105.026
2279.7121
10033.292
9601.0673
10486.781
10031.374
9765.2916
10035.937
9587.2877
9900.436
9451.7248
9279.4809
9915.7527
9737.3885
10376.128
10675.253
9931.917
10256.834
7404.1415
7622.3214
2730.1035
6413.7818
6230.5836
7183.0096
7557.1813
2708.0328
6339.844
6061.8628
8678.2774
8818.4298
8897.8458
9092.3187
8407.5102
8543.8621
8836.5804
8993.1981
2571.781
2567.329
7149.8092
7297.1751
2736.1784
6133.7876
5997.7369
7109.5187
7439.637
2676.2523
6230.9225
5987.4227
8343.3013
8484.2881
8716.7726
8885.4818
2546.2761
2603.1185
8402.902
8540.0062
8507.8567
8678.5366
9460.1981
9269.226
9545.7974
9387.363
10006.434
9582.5706
10397.152
9954.7947
9402.8331
9233.081
9811.7972
9641.3523
10022.626
9572.5489
10080.211
9668.5834
2072.1754
2139.4664
2224.1904
2292.6214
2241.629
2081.2312
2066.641
2240.3386
9687.3326
8693.1419
9804.3565
8798.311
10017.22
10034.658
9207.0723
9260.6542
10136.966
9329.2819
10329.589
9496.5944
9544.1145
8561.14
9556.8078
8604.8459
9680.6762
8689.349
9890.2742
8863.1246
10484.719
9639.961
10741.261
9880.4746
10127.163
9328.7481
10419.315
9575.6235
9991.4434
10195.945
8956.3495
9141.2635
10380.146
10742.877
9665.0687
9993.6323
10258.972
9790.1575
10675.002
10176.476
10625.926
10927.205
10135.393
10449.689
10755.171
11041.863
10010.202
10302.446
10223.428
10258.439
9725.8464
9801.6656
10258.435
10595.902
9783.7329
10096.214
10385.303
9666.8422
10656.682
9912.7695
10301.535
10324.778
9569.6691
9638.9189
451.53952
523.65915
642.92179
643.79654
523.71077
455.37834
640.62527
648.03763
520.18562
524.16444
1363.1825
1149.4677
1117.4657
1327.684
1860.5696
1642.3572
1584.4397
1813.895
1769.469
1557.1382
1575.9677
1801.7601
1099.121
1112.834
1298.1515
1322.3761
1103.7417
1111.4903
1310.5045
1309.3305
1570.0402
1557.3377
1789.8183
1783.236
1576.5077
1636.455
1787.3937
1857.662
1155.2186
1121.1732
1320.3395
1376.9339
14988.457
15054.702
14426.387
14321.074
14673.294
13751.015
13826.756
14770.31
15285.647
15245.271
14668.99
14745.302
15272.471
15219.031
14502.91
14593.851
15494.658
15913.735
15284.904
16097.409
15070.102
15846.183
16028.45
15286.656
593.64391
596.02809
974.03118
962.00216
741.0389
734.50155
954.56529
726.80506
2423.8705
2176.2056
2121.7678
2393.7155
1802.8446
1520.9045
1492.153
1770.2004
1429.1256
1424.7312
1677.965
1690.603
2279.0051
2015.3814
2018.5567
2287.7179
3420.1164
3335.5791
3342.8861
3465.853
2971.0286
2797.8235
2758.7907
2966.4497
2632.7856
2630.7761
2835.5383
2848.3548
3333.9516
3198.2033
3207.3255
3359.9372
3435.9788
3324.1391
3324.8965
3467.9337
2932.9009
2718.4459
2719.2403
2946.5084
2688.0524
2684.1961
2884.5898
2893.7641
3384.1139
3261.7571
3257.5861
3390.3998
1709.1446
1435.6129
1432.9021
1709.6759
2056.2585
2069.014
2346.9395
2345.8471
2306.6093
2048.8196
3164.8951
3268.8615
3731.4147
3743.2403
3832.2696
3830.2901
3841.1731
3803.7849
3880.4921
3940.3162
4346.815
4286.385
4349.0172
4418.0545
4281.5389
4224.9943
4201.2694
4278.5096
3811.4001
3763.3597
3824.0652
3904.859
3713.4032
3690.4541
3787.5677
3828.8555
4293.2484
4180.5116
4213.2855
4343.037
4234.7874
4175.0458
4216.5267
4304.4274
4637.5509
4610.1865
4753.5625
4795.3466
4724.7152
4653.3366
4708.3544
4806.6815
5262.4091
5084.6886
5165.7613
5359.9179
5285.6753
5184.7619
5286.9878
5420.5965
4846.318
4787.963
4852.8233
4920.1787
4683.1013
4706.4075
4766.3719
4767.1857
5419.6705
5351.0464
5457.2932
5540.8979
5361.1247
5253.5686
5233.0311
5371.1489
15014.061
15556.083
14915.92
15637.897
15470.432
14709.953
14791.29
15528.423
16505.915
15841.892
16326.586
15626.117
16197.488
15369.346
16379.836
15589.299
17155.234
16181.799
16314.001
17241.464
17536.985
17342.1
16421.207
16667.822
15948.175
16764.536
15839.787
16843.507
15536.1
16272.903
15361.334
16436.215
15898.281
15028.145
15163.616
16021.156
16422.475
17201.555
16190.05
17383.488
16740.858
15785.358
16924.721
16012.317
16411.219
15733.888
15815.895
16465.563
19210.636
19307.678
17518.278
17692.167
18125.806
16624.643
16777.705
18012.009
19197.644
19342.389
17839.777
17578.31
18109.538
18305.493
16775.56
17042.158
16902.766
18238.406
16631.775
18453.349
17092.73
15780.151
16011.032
17308.163
17948.553
19508.159
17712.893
19633.303
18172.055
16707.439
18344.191
16950.336
19580.641
19692.14
17846.161
18115.298
19113.024
19312.717
21016.454
21023.536
18787.723
20084.723
20581.46
20599.521
18789.379
18952.42
18749.166
18966.146
20460.927
20482.202
19520.052
19639.857
20872.432
20942.723
19099.005
19329.278
19705.306
19922.226
21574.968
21586.717
19960.099
20581.33
18140.322
19540.461
17896.779
19717.974
12694.702
12697.051
12889.963
12854.901
12417.752
12339.768
12574.129
12547.85
12583.859
12676.044
12966.886
12905.743
13130.261
13227.82
13317.268
13204.618
13275.815
13199.722
13118.341
13130.021
12941.218
12805.386
13052.099
13041.15
12250.791
12208.98
12599.951
12579.807
13051.963
13154.387
13289.55
13371.325
534.009
512.38899
704.30251
708.83967
515.05808
703.78091
711.49881
4028.7189
4013.3218
2213.4208
4723.1053
4721.4094
4093.6849
4087.9187
2252.4809
4809.2294
4801.8702
6333.669
6321.1134
10459.453
10555.861
15668.678
15946.885
6302.907
6301.551
10522.973
10385.749
15836.306
15657.123
18942.815
18874.796
23132.832
23354.713
23498.301
19169.841
19212.106
23619.533
43804.343
27494.913
27203.539
43060.103
54985.352
68560.049
67687.987
55089.924
27579.167
27735.132
43809.569
43557.245
68315.578
68580.58
55674.376
55244.886
27412.535
27192.69
42835.85
43340.774
54793.398
67344.11
67950.675
55156.662
27578.433
27740.955
44082.889
43592.371
68594.235
68730.202
55698.489
55879.409
18986.97
18916
23155.669
23333.247
23636.866
19248.608
19227.547
23515.776
6229.8003
6211.2842
10420.471
10303.825
15478.799
15775.176
6222.1737
6190.9824
10376.378
10298.986
15707.084
15585.634
22912.601
18702.389
23109.093
18781.472
19066.833
19052.202
23428.792
23321.859
23337.817
19029.682
23463.731
19078.263
18875.211
18824.288
23269.125
23070.049
42484.039
26908.655
27154.923
43055.194
27349.16
27489.649
43103.637
43423.817
67910.726
55739.68
55675.623
67590.032
54244.508
67041.21
67376.031
55032.645
67755.915
68250.634
56007.589
55757.552
55944.837
68136.763
67520.136
55856.903
27544.082
27387.487
43423.148
43072.802
27088.823
27363.666
42259.512
42980.763
675.82659
684.00032
2241.2622
3988.6907
4016.2296
2207.5104
4729.6739
4674.0329
4051.7522
4066.8215
2237.2145
4791.5599
4747.9314
7438.6692
6241.2815
6225.8378
10422.276
15715.855
10310.83
15556.701
6300.5696
6295.9832
10418.337
10507.369
15549.361
15833.177
6229.2844
6250.6053
10389.382
10422.992
15556.337
15794.469
6140.5987
6137.7275
10301.231
10162.942
15584.91
15413.982
12395.845
12447.217
18355.53
18149.721
28667.679
47751.314
18722.818
18829.527
23095.868
22866.966
19085.118
19089.499
23287.031
23370.077
18991.238
19040.969
23336.236
23223.008
23095.098
18796.893
18767.911
22933.639
26784.365
27066.849
42144.257
42889.244
53522.322
65968.673
66353.531
53919.558
27349.272
43662.484
27235.853
43512.797
67244.656
67410.958
54755.585
55265.849
27197.558
27321.879
43617.317
43621.818
55411.953
67334.316
67554.668
56036.871
55883.125
67657.063
67085.429
55842.675
27099.603
26868.231
42400.295
43188.677
18850.079
18766.961
22948.88
23142.289
19071.561
19074.529
23402.856
23307.194
27145.175
26909.449
42769.03
43061.832
55235.737
66943.271
67037.842
55612.26
27282.468
27425.854
43771.289
43461.84
67768.337
68122.568
56103.818
56199.859
23167.791
18889.881
18929.638
23269.199
23040.473
18681.969
18637.24
22846.226
27295.243
27180.966
43105.75
43280.629
26819.766
27089.465
42702.933
42100.25
67782.812
67591.918
55649.392
55921.278
66896.396
67605.905
55680.406
55288.734
351.75218
40326.268
39628.678
41762.075
41963.054
42205.43
42817.37
43191.334
42350.392
40880.886
40567.343
41678.959
42065.467
40573.265
40852.52
40409.033
39173.299
42548.917
43000.194
41900.924
41637.834
41960.403
42291.888
40864.685
42032.131
38313.802
37861.088
40014.797
40203.236
42211.334
41298.879
42407.035
42958.493
358.19659
13135.366
12330.241
13119.441
14021.888
11567.868
10811.909
12259.217
7192.215
7345.7068
2746.7675
6171.2344
6031.9704
2653.613
2524.9099
2616.4676
8436.8415
8572.3885
8579.356
8746.8545
9482.3478
9636.621
9471.1739
2147.8931
2060.9497
2208.6814
2301.0513
521.53053
641.68465
526.10549
649.76774
455.05492
1100.452
1780.1697
1573.9699
1640.5599
1862.6283
1151.4572
1115.5648
1319.09
1376.901
12030.302
12739.934
12072.36
12681.631
12285.011
11601.587
11589.614
12233.495
13104.839
12401.078
13006.881
12312.693
12523.779
11858.628
12589.725
11912.985
14813.194
14035.17
14097.516
14883.929
15404.551
15332.239
14489.404
14577.953
13389.977
14271.622
13352.613
14312.367
14776.132
13806.993
14707.9
13725.585
13038.103
13717.881
13062.479
13681.535
13333.02
12520.994
12485.393
13284.382
13595.261
14176.852
13452.246
14333.387
13687.795
12817.089
13811.334
12935.796
13542.6
12809.555
12832.965
13562.98
12314.103
13016.382
13041.844
12372.108
13900.478
13960.689
13126.294
13187.875
12595.032
13355.315
12606.709
13326.862
14748.615
13975.397
13939.484
14695.185
14682.723
14715.916
13948.373
13953.762
13263.515
14236.583
13310.133
14166.751
14174.02
13284.279
14194.492
13269.176
14026.675
14865.471
14096.464
14777.747
14367.632
13442.045
13361.417
14261.449
14217.91
14975.417
14167.557
15008.246
14409.421
13462.721
14432.61
13508.703
13518.238
12776.39
12729.016
13444.513
13461.925
12723.667
13452.214
12734.596
12289.775
12278.318
12998.493
12940.982
12909.246
12928.202
12219.629
12191.518
13138.275
12400.202
12362.162
13046.699
12834.298
13659.276
12914.594
13549.781
13679.067
13657.965
12909.571
12942.891
13139.438
13139.388
12456.546
12452.286
15186.579
15929.004
15216.266
15874.144
15604.579
14596.322
14551.002
15552.179
15484.941
16112.506
15396.302
16209.417
15796.797
14735.295
15836.441
14809.051
16227.426
15600.198
15596.528
16194.436
16456.937
15805.232
15970.491
16598.134
16185.021
15403.679
15388.575
16144.177
16387.33
15587.524
15731.463
16517.206
16213.721
15555.645
15549.214
16168.096
16119.344
16162.174
15522.127
15525.647
16129.342
15328.649
15319.037
16085.678
16032.677
16079.201
15295.483
15295.784
15840.636
15113.241
15104.923
15795.937
15738.568
15790.191
15077.581
15059.014
14482.612
14469.193
15491.412
15465.172
15378.928
15444.62
14452.05
14448.977
13995.094
14650.088
13989.424
14631.426
14299.58
13450.289
13443.21
14299.218
15513.721
14807.434
15293.864
14594.872
14915.112
13950.625
15107.142
14131.796
16367.057
15708.796
15775.876
16410.967
16968.05
16304.557
16431.782
17070.172
15544.828
16267.288
15465.185
16316.506
16175.431
16893.669
16064.476
16982.787
14437.903
15045.549
14449.046
15011.692
14944.379
14219.262
14216.756
14911.417
15379.254
15783.509
15134.111
16027.671
15637.923
14853.88
15869.623
15092.103
15959.792
15230.037
15337.777
16034.544
16584.152
15829.706
16660.008
15925.008
14577.754
14675.915
15590.523
15707.185
16275.726
16216.329
15114.127
15217.287
14876.391
15546.271
14862.265
15549.13
15363.903
14566.571
14566.346
15342.631
16651.621
15918.978
16413.773
15663.593
16173.814
15302.371
16416.881
15561.682
17740.415
16705.708
16826.881
17832.52
18350.923
18246.604
17224.377
17373.053
16375.805
17264.137
16277.806
17345.557
17919.433
16969.48
17819.945
16826.313
15594.233
16471.901
15497.938
16567.042
15995.926
15067.804
15119.424
16042.402
16722.776
17543.962
16460.752
17775.613
16961.408
15934.23
17197.199
16195.277
16820.315
16097.335
16178.385
16881.382
17397.856
16666.62
17499.28
16801.726
15818.021
15892.934
16674.628
16727.18
17368.875
17270.461
16393.161
16531.288
20013.436
20118.432
18233.571
18394.563
18826.189
17232.002
17373.541
18706.504
20404.06
20469.055
18810.015
18648.754
19165.123
19266.237
17697.206
17861.235
17157.403
18663.067
16964.365
18809.404
17402.555
16008.046
16162.948
17551.31
18457.032
20069.351
18194.528
20246.291
18634.012
17083.968
18856.889
17353.02
20167.965
20244.82
18295.421
18484.162
19690.329
19910.154
21722.548
21768.326
19401.005
5349.5645
5334.635
5576.4822
5611.3697
20841.609
21501.047
21535.183
19608.628
19758.353
19959.473
20093.523
21795.668
21774.096
5598.3733
5534.2067
5683.7028
5787.1962
20784.523
20564.875
4888.5594
4903.0743
5079.4026
5088.1361
5070.129
4988.5821
5034.5068
5160.4582
21276.813
21296.545
19363.718
19507.069
19201.696
19329.395
21015.384
20985.173
5440.3903
5389.1129
5448.7696
5530.4523
20008.396
20323.426
21047.564
21093.53
19176.408
19337.291
19591.637
19779.262
21504.007
21520.484
5484.876
5436.8695
5442.5048
5517.7974
20522.615
20145.372
19571.278
19687.905
17999.007
17836.241
18318.175
18433.001
16886.823
17021.817
18449.936
20014.613
18216.181
20150.755
17243.794
18723.332
18905.428
17471.071
4940.8134
4907.3147
4890.1218
4946.2428
4904.6215
4868.8295
4908.6977
4971.8928
18150.567
19778.086
17996.651
19867.728
17031.979
18499.952
18598.906
17151.943
18048.366
19631.16
17901.551
19678.662
16981.854
18409.994
18477.611
17098.38
16600.587
17551.838
16512.01
17614.236
17085.988
16091.428
16150.929
17121.977
17541.76
16571.412
17499.626
16485.947
17050.981
16073.947
17067.354
16135.114
16501.352
17399.038
16405.605
17480.522
16976.006
17022.739
16021.227
16083.975
16943.048
17770.735
16730.477
17945.724
16319.901
17311.656
17479.183
16517.21
15913.931
16577.798
15880.28
16592.925
15651.933
16473.566
16465.619
15666.901
17037.819
16333.777
16880.267
16149.979
15888.755
16744.874
16893.617
16067.487
15940.24
16645.667
15913.293
16651.304
15649.786
16503.915
16480.55
15654.574
16611.117
15925.965
16612.387
15891.101
15619.575
16460.309
16435.39
15636.388
3936.6698
3923.5439
4008.3407
4036.2046
3904.6586
3946.2628
4014.248
3995.2576
4468.0727
4422.5611
4403.8775
4462.1125
4449.4093
4407.7879
4427.3732
4491.8003
4506.1776
4519.118
4628.1777
4648.1742
4131.5537
4094.8869
4122.6269
4205.2631
3979.1019
4011.4787
4098.4279
4104.5669
4553.8069
4503.3696
4520.6141
4616.6451
15325.402
15922.228
15246.304
15992.93
15788.553
14986.416
15044.308
15828.244
17020.07
16297.881
16830.833
16080.026
16637.629
15751.185
16826.187
15970.259
17601.576
16578.426
16707.321
17694.696
18002.444
17944.414
16943.892
17054.197
16275.062
17155.564
16174.635
17232.293
17590.442
16666.668
17548.168
16570.943
15964.1
16755.647
15795.437
16924.223
16324.936
15405.102
15527.705
16444.024
17015.53
17847.092
16776.778
18042.716
17325.533
16301.565
17520.706
16531.771
16735.189
16016.354
16090.315
16784.225
17148.444
16427.394
17184.164
16505.229
15760.624
15820.493
16612.971
16643.454
17057.959
17036.203
16171.778
16245.229
21317.796
21345.216
19412.827
19580.702
19535.222
19663.977
21328.438
21287.337
5510.2415
5447.2835
5580.9857
5678.0013
20304.377
20390.264
20341.355
20445.133
18509.929
18752.982
19847.208
20044.484
21827.95
21842.09
5373.8863
5334.0692
5548.8614
5613.4302
20879.532
19532.588
19808.446
19924.874
18034.465
18218.381
18653.212
17071.393
17230.776
18524.116
19982.202
20025.373
18413.028
18267.12
18803.484
18868.342
17380.027
17516.385
17453.107
18880.173
17195.609
19088.283
17647.747
16269.291
16496.71
17863.653
18634.961
20246.501
18393.763
20384.764
18871.29
17343.542
19058.677
17592.561
4865.7955
4844.9065
5002.1972
5049.2634
4987.663
4895.0273
4950.3956
5076.9923
20980.603
20993.977
19027.379
19192.826
18821.918
18938.49
20691.138
20630.4
5335.4808
5308.6719
5410.8033
5470.6801
19753.613
20045.402
20307.47
20411.871
18482.964
18747.338
19673.235
19859.598
21629.067
21624.162
5305.7415
5263.4723
5475.6999
5530.5385
20623.496
19440.157
18878.42
19106.795
17476.134
17191.129
17672.118
17909.51
16286.394
16542.956
18479.945
20102.315
18256.385
20213.047
17245.352
18763.229
18915.483
17456.927
4791.6259
4752.1701
4948.3987
4992.3827
4920.7931
4839.341
4856.2644
4963.6143
17805.195
19434.22
17626.962
19531.538
16638.857
18116.574
18227.752
16783.57
17603.524
19217.566
17472.637
19234.912
16521.533
17951.739
17989.097
16627.357
16195.24
17137.482
16083.588
17214.265
16626.682
15624.889
15705.736
16677.68
17025.003
16061.881
17001.753
15979.861
16497.972
15520.263
16506.46
15587.912
15433.467
15983.536
15299.324
16104.761
15058.336
15863.475
15951.696
15161.492
16896.224
16171.592
16770.652
16003.251
15669.244
16561.458
16688.531
15841.664
16035.111
16789.276
15821.197
16991.964
16373.893
16540.746
15442.47
15620.386
16883.472
17764.714
16689.174
17909.252
16228.448
17255.351
17392.159
16408.626
15446.622
16141.826
15399.83
16162.266
15095.198
15946.178
15939.537
15124.226
16011.851
15335.941
16008.782
15285.561
14976.385
15804.175
15794.859
15022.86
3901.5557
3827.6903
3982.8237
4072.0681
4023.3714
3993.2308
4047.4952
4103.9221
4478.0499
4293.73
4338.6196
4527.1889
4442.44
4428.2835
4483.3239
4526.8692
4427.325
4401.0515
4497.7724
4560.2604
3998.3753
3908.746
3966.9915
4077.4735
3924.7812
3900.8924
3996.7746
4048.7148
4460.5537
4402.9817
4457.048
4549.0282
12425.318
13202.851
12497.07
13103.116
12724.965
12028.034
11996.711
12635.37
13338.672
12628.981
13297.851
12576.144
12800.765
12139.772
12818.169
12161.034
14150.985
13431.813
13399.716
14099.241
14024.176
14026.558
13319.258
13350.383
12776.678
13698.189
12818.073
13628.484
13570.645
12740.692
13568.126
12703.135
13537.13
14278.18
13570.505
14236.39
13850.729
12977.143
12919.786
13771.679
13868.749
14559.539
13788.277
14628.209
14024.105
13109.533
14072.587
13180.988
13030.976
12323.09
12281.335
12959.212
11859.972
12490.044
12544.119
11861.843
12901.425
12912.941
12208.087
12240.425
11744.073
12420.933
11747.893
12414.503
13118.168
13066.504
12423.427
12396.431
11941.813
12609.886
11969.201
12643.191
13375.042
12650.961
12714.813
13442.278
12211.618
12871.789
12200.274
12900.199
14851.241
14064.191
14865.373
14089.754
14311.501
14313.989
13385.741
13401.58
15206.358
14410.78
15198.962
14368.71
13628.938
14598.849
14613.222
13676.61
14178.697
14150.694
13480.675
13467.198
13708.894
12873.896
13752.119
12897.504
14644.349
13868.862
13988.997
14765.586
13284.355
14102.705
13186.442
14195.644
13586.569
12848.68
12857.062
13579.776
13832.601
13813.198
13048.019
13083.787
12427.255
13072.738
12381.96
13074.933
13256.211
12541.416
13261.15
12554.656
15159.129
14477.275
14518.594
15184.15
16006.827
15825.708
15099.942
15286.512
13921.77
14818.874
13908.037
14842.812
15606.314
14580.584
15454.083
14419.547
14950.153
15501.396
14898.738
15527.987
15431.073
14690.343
14744.336
15460.931
15814.75
16274.515
15607.056
16466.935
16151.958
15345.792
16337.947
15558.463
16322.807
15670.358
15725.312
16344.683
16746.216
16089.021
16151.6
16768.871
15517.309
16253.717
15457.291
16278.126
15932.707
16683.408
15871.623
16697.711
15974.448
15243.241
15313.193
16008.642
16398.585
15655.629
16410.049
15697.462
14659.237
15625.826
14601.843
15685.671
16039.312
16050.89
14966.895
15018.981
15608.387
14957.344
14977.687
15591.642
15460.799
15468.484
14845.19
14882.759
15490.086
14707.753
14733.483
15475.224
15347.554
15360.34
14605.745
14643.84
15592.184
14980.382
15060.151
15653.396
16191.191
15518.039
15680.286
16326.578
15532.343
14774.786
14844.778
15577.4
16061.212
15248.876
15407.575
16188.5
14624.064
15259.214
14563.926
15295.908
14918.917
13993.196
14009.905
14954.827
15123.712
15727.174
14995.557
15847.821
15349.628
14325.787
15435.905
14443.997
15174.988
14459.873
14488.666
15167.296
15046.295
15058.135
14368.911
14398.323
13873.129
13874.827
14802.41
14809.494
14687.245
14696.097
13768.239
13810.15
444.53039
605.0552
603.53764
1005.6063
994.10237
762.095
757.27411
976.50447
989.77249
744.53238
750.73858
448.07633
598.66738
616.73183
982.87303
984.06826
748.43008
748.73033
994.95803
1017.5038
755.26543
766.00365
2644.3189
2369.3129
2275.0688
2567.7416
1949.7307
1614.2942
1575.7219
1889.0605
1502.1976
1503.611
1792.8344
1791.3627
2467.9253
2170.1397
2148.4524
2439.7915
3730.6934
3644.7747
3600.1946
3730.9446
3246.9183
3054.3296
2963.7467
3188.0232
2815.2626
2862.3815
3091.8428
3049.7978
3632.137
3490.3835
3438.994
3602.7097
3577.2344
3468.9634
3392.2422
3532.4316
3060.4218
2831.9733
2774.9252
3005.5646
2843.0501
2813.8215
3037.7427
3060.7852
3555.8177
3429.6702
3440.1488
3577.9172
1757.8094
1467.1192
1462.3194
1746.3366
1504.7706
1492.0209
1771.789
1805.7092
2101.1555
2137.1178
2434.6113
2394.1732
2427.6672
2139.5024
2171.621
2463.347
1476.3112
1471.8169
1752.2709
1759.9955
1488.4419
1498.6893
1783.927
1772.699
2127.0267
2149.964
2430.0484
2415.4882
2394.003
2111.9613
2111.5812
2401.7664
3021.5763
2808.3463
2798.186
3031.3191
2775.5756
2771.5437
2992.9937
3011.3936
3426.775
3402.9801
3538.5361
3582.9206
3525.1709
3379.7542
3394.5289
3555.0102
2989.5039
2782.5688
2857.0038
3084.5396
2998.5753
2952.8007
3161.8516
3197.5824
3477.0659
3367.3742
3475.824
3611.7562
3641.8411
3546.0712
3565.2879
3677.2036
1621.2576
1583.3091
1881.2817
1947.6661
1504.1255
1500.6197
1773.3873
1796.7271
2408.6697
2131.4186
2164.0173
2464.1271
2558.1893
2270.8371
2331.98
2617.7878
37544.432
38209.326
38726.871
38044.777
38449.87
38653.537
39352.052
39137.675
35563.656
34945.462
35591.267
36217.383
36873.494
36234.871
36895.364
37547.4
38492.738
37637.675
38270.495
37828.319
39511.279
38891.201
39149.173
39822.997
600.14967
602.68351
847.04163
825.85956
820.14548
1029.0236
1036.2131
1313.8491
1306.5044
1249.3476
989.62481
994.50207
1254.2823
990.17058
989.04209
1252.7636
1255.8535
6692.4702
5404.6354
5245.9008
6555.1317
4091.4982
2343.6947
2249.6147
3944.8402
2140.1207
2106.4461
3737.0573
3762.1661
6230.9686
4976.7396
4979.6965
6186.7859
10609.208
9796.4961
9906.5831
10819.884
8905.7401
7859.1012
7786.3795
8913.3406
7327.1224
7402.9043
8483.2163
8380.8369
10352.487
9449.9921
9328.1701
10218.191
10661.905
9744.2093
9691.4559
10658.919
8758.0825
7646.0875
7550.612
8673.8772
7610.0672
7715.2331
8823.5053
8660.5972
10671.101
9784.244
9579.5306
10427.887
3874.7218
2184.9986
2183.2079
3815.7733
5071.6456
5165.2611
6438.1057
6334.8206
6483.4228
5166.5186
9235.9011
10055.001
11227.346
11519.316
12377.861
12027.798
11581.867
11527.6
12398.478
12515.559
14194.341
13276.91
13459.959
14443.856
14181.323
13257.024
12846.196
13714.451
12137.075
11373.336
11681.808
12548.958
11071.393
11215.04
12083.718
11931.098
13429.281
12915.42
13733.669
14351.506
13886.779
12966.041
12804.751
13719.953
15459.81
14576.502
15303.818
16307.805
14667.524
14836.979
15839.808
15673.312
17346.313
16367.244
17337.557
18454.154
18001.774
16880.464
16722.09
17852.882
16150.791
15143.653
15455.333
16524.091
14626.024
15145.963
16172.601
17637.508
17192.955
18312.637
18834.074
18423.847
17249.769
33521.205
32210.962
32906.193
32829.538
33612.631
34266.393
34882.266
34230.344
34903.176
35653.194
34837.924
35564.859
36296.872
36961.838
36413.872
37109.568