/*--------------------------------*- C++ -*----------------------------------*\
  =========                 |
  \\      /  F ield         | OpenFOAM: The Open Source CFD Toolbox
   \\    /   O peration     | Website:  https://openfoam.org
    \\  /    A nd           | Version:  7
     \\/     M anipulation  |
\*---------------------------------------------------------------------------*/
FoamFile
{
    version     2.0;
    format      ascii;
    class       volScalarField;
    location    "4000";
    object      omega;
}
// * * * * * * * * * * * * * * * * * * * * * * * * * * * * * * * * * * * * * //

dimensions      [0 0 -1 0 0 0 0];

internalField   nonuniform List<scalar> 
33730
(
887.80006
2196.1876
630.59495
773.57305
1211.1277
1335.7919
937.40576
909.64691
500.37528
485.93033
612.57615
627.09285
3264.9338
2282.7869
2211.8881
2040.1114
2290.4917
2177.7473
2045.7355
621.95006
413.87032
412.74145
464.41401
466.00317
663.12189
1005.026
485.37307
817.10615
825.53278
1139.624
616.47786
620.20017
526.48192
1440.5753
1459.617
1025.064
736.31098
1048.098
743.26401
429.8385
422.95262
482.9063
510.63443
1116.3338
3711.1391
3031.2874
3067.9173
3100.0755
3251.0935
3224.5688
2309.999
2284.0182
2077.7705
1990.4607
2433.8951
2329.7186
2004.2246
2341.4388
2130.3393
2005.7088
568.27112
415.4862
417.20641
471.73203
465.17991
387.81437
385.85554
403.34818
403.68548
613.59426
985.25108
475.34059
472.47471
818.34285
930.29078
815.06833
557.90028
567.55865
1332.2596
435.09407
1004.9154
780.92341
1025.4124
747.82944
1386.6459
553.70975
534.70612
447.45387
1319.4261
1158.7397
943.1873
797.59007
620.00236
815.77716
1177.745
647.71604
460.67934
458.07373
488.78744
513.05225
707.89768
1128.2479
562.68489
706.10111
693.57381
543.52746
1549.8532
1130.6351
1672.4257
1137.8868
3819.9078
3130.9526
2634.9063
3114.0203
2860.704
3010.9881
3137.393
2970.2778
3327.5265
2984.6218
2251.7248
2189.451
2014.1109
2008.5174
2428.5008
2355.3697
1864.3261
1967.9933
2387.298
2311.6493
2024.1977
2173.7545
1949.3089
1584.8228
514.88683
414.80319
457.87894
457.25591
414.40542
387.84934
388.9635
411.51103
408.36771
430.70887
435.56262
449.46786
445.23841
695.78156
891.80376
877.28404
472.82609
477.22949
566.95787
551.15529
783.32214
783.47545
1292.0958
434.05374
433.33428
928.47801
703.73016
1138.8019
998.20603
691.14223
485.35997
492.22725
1302.0528
471.79867
934.87483
903.85591
733.26976
879.74804
1175.0429
670.15461
1495.4159
538.9198
522.024
464.146
898.83938
617.9477
1209.1572
676.1117
714.19852
617.2652
706.42813
736.66163
1565.3609
633.86722
561.43585
576.98268
529.7357
537.69902
629.37778
855.72416
482.13801
418.12662
508.81585
404.53745
1158.0826
554.30125
736.7902
701.75436
569.98075
1121.1377
1539.9929
1139.1239
1727.6802
451.72009
541.83544
810.3067
533.46191
847.90697
452.69383
1718.881
1080.7881
1859.1204
1151.1909
3905.3258
3653.8289
2798.6316
2240.7972
2936.2556
2863.1171
2830.9936
3145.8051
2723.8027
2918.5936
3358.5713
2947.2792
3117.3078
3019.7642
2132.7404
1467.7094
1856.6955
1342.54
2134.7465
1409.0547
1861.7122
1483.5476
2423.6594
2214.5928
1995.0827
2059.0804
2068.9083
1871.7375
1871.1089
2146.8188
1683.9873
821.01684
462.50788
527.30119
408.39077
446.16299
450.37399
417.47459
394.3907
413.96742
415.92992
396.49164
441.8393
447.66214
455.79831
461.46769
565.83111
584.23422
611.06568
579.46462
671.58598
995.11593
995.17946
856.99116
846.76388
511.3766
509.71063
603.62736
607.20467
1137.8893
1080.3919
429.33615
441.45744
509.0044
696.52965
487.83284
688.27264
971.66981
848.66589
1376.763
478.60417
481.78014
825.63898
622.61867
602.76132
900.28611
1144.2917
827.41194
609.73103
506.21657
499.68846
965.19163
565.60599
870.50164
867.78077
609.09366
696.165
777.96064
857.5487
928.5762
644.76253
1005.3354
552.2022
541.10023
547.0366
461.57248
638.11746
707.32645
614.4296
754.94573
672.1018
721.73275
623.19166
683.15857
546.57506
583.75941
576.03939
876.55247
438.77915
548.76428
542.05083
430.88461
414.80794
392.15462
413.99152
396.06738
1150.177
559.32919
721.63079
721.07659
546.40369
1173.694
1205.0689
1459.4483
1460.1988
451.17354
548.41775
861.67562
535.75596
856.7728
446.4964
1162.6363
1708.833
1198.0555
1716.8681
514.20287
679.94482
552.44133
849.10413
532.4583
676.65607
1007.6697
510.16399
1721.8977
760.02904
1546.6729
720.97623
3879.8538
3337.949
2549.9964
1602.7758
3121.3326
1846.5566
2907.1907
2253.1456
2755.8945
2228.1063
3192.1662
3087.2037
3130.7824
3097.3396
3114.7236
2982.3403
2869.7465
6078.5294
2098.4881
1034.3162
1108.927
1644.0122
1129.6815
2483.2821
2068.0844
2103.3211
1795.6709
2225.8011
2089.2229
1842.9645
2162.7133
2040.7104
1685.8345
1735.0158
1778.698
1248.9255
464.49555
370.90305
372.67457
403.55052
397.87171
537.51955
418.79935
463.66328
470.58167
420.211
386.58319
407.52303
411.20465
398.35443
447.76313
456.46741
459.78396
448.95083
581.51019
589.94611
610.01775
605.7771
696.65464
774.51603
962.51477
491.74756
478.49827
1082.5995
803.3676
574.15325
584.38176
1197.3579
1194.0364
972.88052
727.17604
912.60783
708.89257
460.57111
447.37901
513.13357
530.82454
1085.7054
1026.4911
458.99497
463.78045
620.82309
518.07996
778.29334
620.81087
502.27132
822.52463
967.04097
628.42368
2228.6096
623.37907
633.77933
900.44341
756.13669
339.28479
618.43986
633.08863
1000.7255
940.30492
750.19458
607.95621
573.90325
556.21367
598.34118
809.10585
812.16704
668.1987
756.91933
713.50167
652.63628
631.97058
439.11414
665.56611
700.92762
532.82741
646.43943
710.10159
666.69158
432.07983
801.25554
583.95856
398.16256
338.62899
401.82866
341.79102
879.70645
414.443
540.60333
522.41994
418.59466
393.0307
420.75768
415.96709
392.27424
478.08379
441.49278
473.16361
457.34166
1234.9344
596.95435
845.89401
833.0062
593.51948
1667.5993
1267.7123
1572.7617
1268.2309
438.81867
549.35565
852.28252
566.81567
848.24734
455.42527
1263.1331
1325.4224
1809.9962
1665.7439
484.50686
674.95916
545.64582
961.19586
541.4667
690.85439
959.49794
496.87978
1078.3329
1829.249
1167.9002
1475.5708
634.97071
666.0029
735.81254
602.47102
631.43537
577.91504
663.04997
744.50983
1143.854
637.67759
1510.3262
384.55777
859.60082
351.0193
3781.7019
1779.3793
1852.4414
2616.2481
1243.6589
3015.4875
2025.7893
3354.6417
2997.4744
2856.9142
2999.0912
2990.6802
2888.3907
2856.0299
2899.6903
2991.2556
3468.9023
2877.209
2132.6654
1779.2876
3475.697
2149.6068
1924.4437
2301.2623
2453.4817
2009.7754
1661.6737
2168.7454
2037.5012
1743.4298
2271.7527
1964.7073
1338.3515
1394.6005
1397.8115
784.48324
400.02858
475.24875
371.83141
377.57846
401.63443
405.51288
356.34151
361.22937
383.38033
371.08734
550.69056
423.4836
458.53985
461.53867
419.24233
388.24429
411.61908
426.62138
399.92555
466.90785
456.09337
453.36084
460.43855
596.83722
605.06864
625.67641
601.08636
646.25719
1022.3261
506.50225
508.56634
858.77955
844.9095
1119.9191
584.35723
595.36754
837.46496
678.83512
1134.327
431.25758
416.88719
1280.4106
935.68239
709.98989
469.3278
492.91476
1060.6928
1257.1119
799.61094
830.29314
648.16275
717.71897
741.23589
610.07831
473.81353
467.35687
511.75194
530.59067
894.95322
962.77902
562.77074
525.11256
738.97029
635.71368
536.16348
768.52554
817.05625
633.4289
551.03208
847.76361
875.8215
382.49106
948.33893
909.03034
737.75755
635.29338
1663.3879
835.79257
744.30437
619.39601
574.47395
784.52766
789.93898
732.89484
754.67393
696.74022
738.13591
788.20369
618.30277
587.85887
338.40808
399.96838
394.092
340.83847
365.96284
368.99414
517.53214
517.9368
378.71957
364.49107
378.43452
366.9246
902.25704
413.50302
534.4089
537.6924
410.34812
385.83222
409.32678
409.51524
389.63348
434.41332
446.94081
446.69003
432.33966
660.54762
604.78112
636.87438
648.02595
1310.6927
577.40729
799.73655
780.30451
563.59004
1294.1432
1567.3105
1285.2362
1675.267
484.89587
636.26651
969.9045
591.80287
966.44357
466.55034
1899.2637
1307.7277
1880.7255
1423.684
495.97365
713.07114
555.04589
1077.1879
573.48617
702.03043
1037.271
503.62941
1375.6315
1462.9928
2038.9093
1836.1563
615.95801
674.23238
779.6463
632.13591
892.93764
604.74657
660.6811
790.21177
1078.7491
628.42119
738.61406
2442.214
835.7642
860.17196
652.41924
727.12271
650.6861
407.80035
654.81052
749.3244
577.6897
936.40819
3889.4128
2823.6429
6888.5204
3389.3745
3155.8652
3279.1822
3096.8434
3126.9374
2946.1288
3003.0328
2875.7964
2805.5906
2751.6335
2721.5001
3005.4226
3352.7937
3474.5252
4716.7631
2133.2339
2040.7178
2460.7973
2490.1859
2144.2445
1976.1963
1926.1785
2496.7715
2513.6965
1996.8264
1268
1887.4496
1676.9826
1387.7377
2041.0725
2406.2231
1067.0204
962.74251
401.57592
367.01116
345.97734
364.77272
345.23699
472.37334
381.31114
391.50901
410.98903
421.31294
366.78104
361.8584
381.73518
374.85922
464.4804
470.65113
472.02094
473.81828
536.7905
429.71845
473.03147
471.98628
428.22781
387.95859
398.30534
405.48268
388.18422
424.27987
434.80877
447.14986
433.96131
623.82315
569.0506
577.08976
627.54025
670.36823
873.26521
820.04882
488.80587
502.63983
577.63611
560.93183
736.51279
782.58096
1325.8071
427.69411
426.98092
1033.6296
710.64067
1027.831
696.31019
1507.2056
481.46177
471.82617
688.1194
772.96148
585.07782
1213.8777
462.4125
452.02356
1293.3003
1013.0988
727.92925
610.94423
490.41609
516.67005
799.92919
1018.4494
748.83009
747.66125
514.97036
648.96243
580.77583
657.86446
659.62354
608.68881
520.05853
531.9206
543.30007
537.58496
857.52615
745.83403
636.88057
1156.2173
1083.2721
762.65364
636.8869
1178.4752
844.57445
956.01269
727.19583
981.76464
872.70858
742.65608
554.29988
796.73914
1385.5819
618.3916
341.11293
399.83997
389.31472
339.12607
365.66006
366.2054
519.30835
517.44083
363.48871
328.07861
373.27713
375.77463
364.163
330.5278
436.89814
447.93394
439.11537
457.16761
861.88872
509.37468
428.81698
540.15762
423.46957
405.67002
442.82576
425.55725
393.80938
443.28337
462.51081
448.84419
432.33189
534.72421
550.19601
567.73171
537.1059
1296.8566
571.81036
772.56063
807.36925
562.43439
1198.1374
1930.47
1199.1249
1654.5991
482.12325
593.75286
941.52837
639.31776
990.36032
499.97135
1368.7916
1871.3338
1375.3067
1911.269
526.65079
573.92721
796.38741
1055.8948
565.78728
751.55536
1084.3113
521.5063
1952.1478
1214.0971
1938.2936
1708.7675
628.80051
669.81203
903.51321
624.41702
1402.676
642.97827
687.20101
877.42585
1219.3291
608.5437
1593.7526
1513.5549
1649.5994
3431.0438
685.33876
774.88393
902.92093
641.33795
650.08758
756.10933
740.2751
1431.984
712.71044
670.13749
486.88051
741.08949
562.80576
347.29974
3899.4457
3577.876
3199.1541
3264.0973
3221.8258
3111.6196
3046.2443
3418.2678
3158.172
3145.0089
2965.247
3258.8513
2911.7355
2868.5887
2860.5107
4114.1198
6839.3601
4067.2327
2084.0764
2184.675
2225.8078
1911.3088
1946.3249
2278.2568
2441.2897
2543.6849
2281.862
1983.0284
2035.8731
2981.0877
1768.3707
1722.4773
1048.0546
2463.5054
1656.0973
972.55713
400.05136
356.37857
349.65198
372.04027
379.23699
345.80021
333.17868
349.40188
339.58818
458.98807
391.08447
380.19493
421.75884
419.66502
371.54773
378.17346
380.81777
383.6201
495.08166
431.70245
466.80587
431.02784
643.75167
593.22598
626.18952
647.41062
537.59023
423.07648
464.60315
463.74979
421.46875
403.01622
416.38863
405.69277
396.57093
432.52426
435.02821
432.56806
426.53652
501.54712
503.87268
512.68806
519.5712
701.60715
905.03204
864.57956
771.42742
768.61001
467.45966
538.74548
548.85205
477.41777
1273.2338
1107.2371
445.62116
429.86049
469.13775
680.32978
489.41503
672.10077
863.93018
931.51693
1756.0006
452.21203
462.81476
1053.4951
810.91832
583.55156
788.1453
1282.998
587.06091
2359.8913
494.42496
489.98829
575.99948
600.71034
699.39221
611.74117
1562.9878
551.29862
550.30991
1954.2616
1059.5856
586.68789
678.19407
602.13829
554.33677
574.87181
906.0982
770.82471
771.62413
640.98515
491.46865
629.58245
670.90699
617.20933
1184.752
840.41439
735.61437
1358.8678
795.32945
739.16005
1307.1499
774.19944
1395.8442
844.98135
1090.8412
553.87175
340.21849
410.4106
414.69217
344.8657
367.67594
364.27669
520.49819
520.5721
371.93116
328.79462
388.45456
381.06457
368.33074
328.77133
352.80718
353.17162
435.53823
355.13134
427.7396
429.59282
434.73263
357.68257
553.37822
556.12938
549.81452
558.78297
846.7207
427.47075
549.99028
523.12364
410.51834
435.97047
403.52163
434.06945
404.9022
465.83065
514.94984
491.02193
457.24461
558.124
593.70575
564.17287
524.27709
915.10396
663.819
887.33841
825.80208
590.177
1785.8176
1315.6715
1289.8716
1974.5068
457.97376
531.93794
850.89741
557.43141
896.71407
462.33811
1292.0512
1973.3593
1243.0042
1877.0196
513.12727
761.90853
577.97552
1057.5181
603.80524
839.22413
1006.4058
520.41758
1276.8145
2439.102
1428.1036
2333.2743
605.7111
604.79789
733.32176
882.10772
1012.6347
588.713
691.60142
830.7147
1131.1504
607.26518
2743.8015
1071.5651
3132.4014
1311.9324
666.856
806.76571
1358.0988
1257.2599
694.47419
797.04488
1203.6833
1413.7688
770.01312
802.5756
1007.4676
727.1315
726.82742
591.14026
664.67278
669.40764
614.47324
327.46444
4042.8842
3815.6653
3219.2106
3326.6558
3342.9489
3271.003
3152.0237
3509.5598
3346.0477
2794.7846
3817.3721
4683.6841
3695.7079
2781.2623
2412.4355
2032.2968
2734.7093
4481.3102
2150.8387
2109.0551
2316.2583
2391.2029
2017.0252
2039.3223
2415.486
1912.941
2027.0615
2404.8728
1789.4837
1699.7848
2124.8482
1712.2836
2590.3467
3487.4967
820.43745
1319.6863
349.95133
369.39207
391.32107
359.90075
356.75049
341.73933
356.74726
373.58165
407.04272
394.8514
453.54245
437.45831
451.75144
374.57266
377.04216
407.29683
408.31996
394.62123
374.10709
402.57424
387.13571
433.59437
444.12745
429.04555
437.40851
639.54024
520.39356
592.72304
517.83394
526.63238
412.76388
450.74973
457.58744
417.16898
392.14502
420.93926
407.80609
387.67714
439.06428
446.02866
437.46913
438.27177
526.71611
527.02233
512.14025
507.99887
619.57824
1124.2476
1015.0139
806.87516
802.33058
556.86677
554.53088
480.58388
472.81938
1089.5698
1075.2714
892.19211
653.10128
885.2198
641.01185
416.04823
467.86222
480.1542
432.31279
1594.1704
1466.3163
489.49248
465.17199
574.71105
487.38434
762.4876
565.6758
498.31879
779.35302
834.78109
697.98301
1928.7451
551.11238
566.81831
739.97593
806.14893
708.15645
575.19246
920.75699
716.58986
1642.7027
613.16384
3819.1311
554.48223
549.72533
490.00975
419.31225
604.90046
635.30081
379.10364
638.00714
677.29949
625.71813
812.41674
929.1616
765.61815
723.86252
625.967
680.59606
916.06817
763.69822
1693.6241
751.59893
1634.3193
523.72897
390.64636
342.16023
393.17307
341.05831
365.31053
364.08862
507.33775
515.91769
367.03052
327.73838
384.71917
387.98654
371.76144
330.59428
355.06005
351.3575
466.4857
359.99144
314.3003
494.71427
440.57769
357.19335
445.56544
315.71294
528.47631
435.3483
526.2654
519.43087
519.09784
444.18286
656.28532
440.02533
558.23982
527.47493
414.2546
407.12038
429.60854
422.37958
399.68885
508.25426
483.79453
491.82915
481.75894
595.18232
616.09561
593.47441
569.81852
828.51268
535.68978
687.53998
763.5365
587.81977
1493.6111
1164.213
1107.7948
1348.3367
513.71278
661.06577
1008.6651
614.65541
945.81724
494.73904
2184.2048
1524.0052
1386.0767
2169.398
535.23537
680.30197
543.15688
990.31799
544.05579
693.36638
1031.4706
518.39907
1379.8189
1993.6952
1059.8277
2222.5166
601.43312
730.35704
808.09588
584.61049
946.35576
608.58024
793.5521
875.99037
731.6052
603.31602
920.27861
2257.6516
1209.4849
2256.354
698.34884
870.96163
917.59991
657.55698
671.88305
801.06889
871.60322
811.85527
810.12497
1156.89
1970.2849
796.6207
874.86707
1667.4076
776.88505
1520.4712
685.84413
888.88904
648.8419
393.95395
4253.4094
3795.3551
3393.8083
3539.5843
3548.5126
3504.2894
3001.9794
3125.7292
3059.2179
3068.2638
3151.7712
3853.6204
3635.2868
1957.8816
2980.6283
4739.4163
2450.5246
1511.5824
2090.1528
2005.737
2303.5014
2288.2443
2003.2266
2052.8304
2429.5311
2518.6075
1969.4614
1945.4217
2830.2109
2373.9329
3121.0486
2519.5199
993.06232
841.62023
1250.0975
1110.7012
366.42792
346.1198
346.02379
365.33685
341.8527
362.08108
400.74586
378.55266
460.24988
420.28197
439.70915
449.19389
494.8857
481.82381
633.39665
626.52038
441.44365
375.08105
372.59195
404.01318
399.89999
368.73758
366.52317
379.00677
376.99183
444.3952
424.18693
451.00199
432.77318
513.91704
581.72808
511.42907
556.80876
503.64531
400.33456
445.92723
448.12745
404.72618
380.28063
395.2858
403.8948
384.52871
429.91857
445.04692
441.19382
429.92263
545.10397
550.10557
530.08003
531.92101
582.46814
898.39653
946.42464
717.66776
718.25579
538.41469
506.10589
443.01046
469.51504
1232.2578
1239.878
933.34867
648.10535
890.62471
640.54737
449.93288
451.95225
412.22798
408.28288
1185.372
1202.3462
861.90025
943.44598
563.55607
1095.8944
751.28111
556.19961
491.31371
505.14205
522.06912
523.77716
1252.1632
1729.7072
595.1292
585.57905
667.15942
553.31431
575.26067
781.19347
665.76774
565.02656
562.14648
870.093
514.39593
384.1629
558.25424
737.44459
673.75504
574.32948
1152.0118
766.11999
676.01181
612.6203
265.04148
397.35808
606.1156
617.95966
588.36149
695.93756
983.736
900.13723
552.2621
657.30828
1248.3272
477.07314
352.52637
408.91932
393.35837
346.79306
364.36448
365.33907
507.28242
502.83063
387.02598
380.64865
329.6204
392.84095
375.82275
329.16197
353.90918
352.65714
479.94969
352.11716
314.16432
490.27619
499.71902
356.18088
498.64231
316.10067
606.48948
469.87243
345.63928
615.22828
556.53412
440.23579
345.74217
554.25733
527.32078
523.05398
592.89354
399.09846
478.91793
500.55696
412.66246
428.28871
452.39481
443.01238
416.01663
478.68844
509.46537
500.83977
480.80502
634.14595
614.1341
609.38886
631.85065
848.12554
481.89313
609.41185
646.44741
502.65513
1383.1979
1047.3165
1023.7718
1521.2838
467.35035
585.67873
901.67003
610.68866
957.94586
499.43062
1802.05
1303.7731
1159.7566
1699.7995
506.58241
617.65413
842.26243
1187.6424
584.95177
771.36071
1075.7673
512.01757
2145.9406
1497.9753
1267.9685
1941.2404
688.71126
672.46913
779.93822
631.84616
928.01686
610.57513
664.337
808.85482
1165.255
674.89177
1583.8249
1834.4156
762.60147
1700.3919
698.50519
751.70107
703.85086
1017.9668
756.22104
847.55317
813.88492
465.2843
857.24796
996.11604
750.51454
794.34871
1009.4445
658.12064
1016.0452
1335.9462
899.76624
1306.9835
1631.8189
801.11253
4167.756
3542.2333
3446.7009
3484.0369
3487.2869
3363.6672
3227.1665
3452.7183
3495.8225
3398.9457
2962.671
3323.0986
2901.398
3009.2856
1886.6897
2471.8825
2808.7123
1142.6388
2046.1725
1869.7429
2167.9631
2215.6505
1932.5586
1792.6307
2602.2867
2400.7673
1974.2017
2171.1433
2680.3954
2779.9473
2203.4398
1862.8936
6062.3323
7291.6146
5478.7416
3551.3909
311.92404
320.11169
320.05144
343.57478
330.3635
393.6092
363.7247
344.18855
345.35443
365.28381
344.82709
331.04602
333.93848
346.7952
396.05574
406.98182
424.54228
397.84551
549.4185
523.64872
526.8318
570.12725
435.73911
369.14652
365.84234
393.75883
389.63395
353.89886
353.4806
370.60838
367.93778
498.15118
498.93662
439.61644
441.77171
514.24849
500.83321
542.03303
533.84314
468.06816
390.67652
424.3525
437.94437
396.81703
370.36191
387.42745
389.15629
375.0515
445.66075
465.40716
470.64814
453.63973
537.5019
545.63363
551.09488
546.24428
512.25051
833.31504
694.44211
711.07074
985.35958
485.98917
480.9547
432.70713
437.66588
1183.8504
1194.9674
834.08474
606.91233
864.48838
577.72087
455.32496
435.75982
394.46762
411.16419
1178.8479
1137.4554
792.42831
815.38368
543.615
830.54651
743.6509
520.78452
509.51934
510.97334
488.06099
484.84314
2430.5884
2160.9005
1037.2779
706.67609
823.49024
568.21447
1617.1572
859.22192
689.08487
547.13088
638.71075
612.81575
599.61029
673.65426
635.58729
696.6698
567.75074
565.7101
641.98391
638.85859
572.0529
642.86322
587.50474
699.49841
650.71536
572.87931
619.30921
649.82769
219.25806
401.95169
402.75189
646.78467
1110.8069
622.15733
472.1806
342.26888
382.0396
388.31416
347.32788
363.48549
362.95484
500.62983
499.36216
407.43808
334.29134
417.37206
400.41564
384.19
332.66143
352.54624
354.14565
477.54707
497.61749
365.70758
315.71519
481.59511
361.46216
481.12929
316.07718
591.11199
468.17796
337.60894
615.50795
656.76213
494.24328
340.99584
635.52011
591.00427
453.60198
547.30644
440.61425
609.54145
384.75216
448.62187
458.64417
396.03863
405.49104
427.44654
450.03259
424.30406
488.56222
485.13419
504.40428
477.07509
624.10695
669.46658
677.59036
648.20095
719.33098
463.73154
568.08605
568.49058
467.27471
1275.7298
938.19969
1220.0746
970.08224
428.17242
489.97343
762.83229
543.13636
820.95623
446.52822
1870.6634
1282.5771
1304.9245
2170.0414
505.10588
596.37543
800.33901
967.876
804.63979
596.61126
1088.9288
507.32522
2063.3675
1210.1724
863.30191
1739.2156
524.23952
584.68575
790.32282
991.5225
1014.7448
571.9649
727.74594
853.15407
809.06194
579.33705
1124.3151
1326.0851
843.08852
1178.1514
666.6543
754.29117
672.45441
723.49898
647.96602
750.72195
918.53682
1115.6057
723.81358
694.23666
831.6162
820.7619
829.30854
1010.8676
1038.2426
1206.5058
1004.5726
1195.3848
1009.1074
1148.5055
3995.612
3100.5861
3066.4479
3264.3264
3333.9103
3208.2719
3154.1869
3245.4065
3217.8351
2993.5884
2814.1314
3224.7397
4074.7112
3733.5195
5652.3023
4300.1389
3518.1005
5683.5346
1906.1891
1679.6112
1836.2595
1354.0379
1706.9872
1963.2483
2207.6661
2377.7341
2148.8622
1912.3733
3161.382
2290.9585
2020.2252
2392.9252
8050.6101
5612.9612
4432.7683
3451.3668
354.86877
310.88073
278.29269
293.40498
306.37057
305.96465
292.39217
311.39624
319.17135
321.50905
312.71997
301.09082
311.00817
311.43919
302.58848
397.006
379.91458
403.14158
404.70456
391.1556
358.58243
340.89127
343.13919
361.12631
340.15896
329.10897
326.98955
339.30349
424.92556
396.8357
398.07288
416.71586
493.18525
485.98008
488.25875
464.39706
426.38945
382.69187
361.18867
386.75669
364.55014
351.52301
345.77876
363.4046
357.9245
426.25332
410.02025
438.87803
422.32105
574.74351
552.12185
538.60064
537.8149
450.56209
390.63655
417.52917
422.00305
391.65971
361.99216
375.48985
386.98515
373.79556
457.35595
468.74593
462.00738
440.43246
579.23657
609.36915
615.04053
599.37317
412.24535
572.09102
659.04232
697.79669
646.17602
420.29859
468.03082
446.58164
433.28435
1021.5676
765.27173
576.82734
849.16226
567.26197
1238.3869
434.52869
431.15192
398.69632
398.15122
1299.4837
1485.9079
867.4689
689.34981
528.96996
689.03578
940.22742
517.47291
489.76655
478.77593
460.76784
456.10463
1426.0541
1227.5932
865.46666
663.88702
559.33824
536.45112
964.27024
999.75376
611.48551
547.03419
639.62969
620.83212
614.59933
633.73391
953.03741
798.74865
657.27032
588.35435
930.9701
768.40374
647.31863
563.62034
622.07576
612.91503
564.46712
516.48221
594.79704
621.05565
657.15066
676.75894
429.52983
549.15227
220.75397
407.86588
472.25751
338.04395
372.25703
380.46537
343.37051
362.73303
361.41256
497.8377
498.29246
375.23339
329.77652
389.66876
403.37897
382.71462
333.66501
352.48275
350.96222
388.95564
514.76806
316.86471
481.46951
470.79166
369.38135
473.91475
317.24854
624.47171
597.05399
498.75683
347.30418
624.41192
482.39851
345.07413
588.69436
556.87878
448.15995
615.98328
464.97715
551.52744
547.64946
575.84409
377.99923
441.38582
446.39674
383.98246
392.41705
404.88634
415.19349
399.27931
479.24135
493.38163
495.09286
486.97477
585.21612
552.27699
629.19778
594.02114
673.6146
1251.7701
871.71059
457.87053
539.0757
543.77124
461.81178
856.44052
1145.0568
414.40883
466.19986
689.9993
471.53138
713.20028
418.02684
1612.0567
1169.7135
1855.7043
1261.7144
457.50634
512.47884
665.12
932.04416
703.88387
545.27134
961.9162
482.2714
1783.8589
1269.9559
1254.2656
2226.944
614.32751
611.85185
784.11457
851.79283
810.06947
786.15527
935.67729
590.11914
1046.2537
558.21837
3625.0787
1082.3482
592.16285
1387.0631
734.99453
948.55848
883.69417
551.28646
691.19249
809.8473
667.77681
480.08371
742.63284
724.81021
492.75794
715.96032
775.44603
1314.3252
686.26862
1009.2388
807.38919
1168.2946
1285.1549
1350.3381
3605.2143
2042.4129
2674.2164
2699.9034
2871.0683
2851.771
2717.2549
3031.0411
3213.7642
2882.5903
3375.8606
3193.233
3049.1119
2471.2106
2144.5045
1939.7223
4290.3829
6508.6019
1976.3156
1465.9389
1575.3458
1310.7893
1807.2422
1467.8118
603.91853
1188.9132
1278.7728
1691.2565
1851.5438
2210.7929
2774.5262
2592.9603
1962.8263
2434.4785
2348.7414
1895.3338
1672.4771
353.89263
309.48781
313.57826
331.231
333.02626
315.31998
277.53501
292.44895
291.84522
305.22305
304.92081
311.03728
319.11017
315.77236
309.43409
257.94489
269.7151
270.74933
282.3721
281.35197
296.14416
303.63283
304.23415
295.30025
372.97689
380.16721
378.32331
372.11446
374.5454
388.989
371.06243
364.44026
543.65959
492.08451
485.42144
535.03113
389.85435
354.07846
336.67431
357.50288
339.72906
333.52351
325.02308
331.42772
341.05252
400.55099
389.68082
390.51961
410.13828
490.68421
458.93483
470.50427
497.72102
408.89317
364.17685
364.02943
383.9039
382.45089
350.31825
338.80103
366.50116
352.71058
406.23677
438.57157
422.28503
455.929
516.97683
505.04981
564.44955
531.18423
384.19517
383.96114
409.16178
418.08479
389.9965
367.4231
381.07391
381.65608
369.38831
440.91962
450.00056
457.34146
475.24378
615.86359
604.96031
618.73615
587.99869
357.7747
511.35634
468.51643
456.95026
482.59833
372.45092
397.19953
416.80701
390.49269
652.1999
509.63103
838.02508
876.5209
692.70231
561.51459
391.03773
428.74046
420.69632
395.79362
887.97582
663.67844
706.55017
504.41003
1006.3172
680.61845
504.86925
1277.3906
476.36599
479.91741
463.15573
469.39311
1231.2673
1311.2417
1160.2902
787.82409
585.79398
546.0883
861.95739
598.16077
1759.9416
527.36191
570.5857
572.02218
587.21891
554.49254
620.62138
626.47072
654.97814
564.72753
1201.4828
676.94093
614.48039
589.99003
823.7992
684.6556
643.65001
637.10943
671.66056
637.7515
604.54605
566.37058
820.44678
591.88327
657.02664
360.92297
464.45985
488.69269
359.86394
335.08166
367.28896
372.96909
338.62132
361.93715
497.42588
371.01872
327.2483
381.84585
386.70301
371.9957
330.07274
351.37402
349.61392
477.1155
360.82261
315.21391
473.16074
482.16746
365.60002
485.92149
317.67575
359.71859
546.30073
607.55718
585.1299
575.89155
473.34394
351.18999
583.29739
575.66236
471.98465
567.66137
466.44013
535.89176
568.47837
513.30416
371.87456
427.22428
435.14604
375.81093
384.8341
395.81636
400.10857
389.7476
426.64571
433.94205
469.78918
459.5362
609.94244
627.90754
593.23886
587.56472
521.6068
498.03487
440.39237
782.2049
835.91976
1206.057
1075.8851
531.65484
458.51866
1677.0448
1066.8119
668.06701
395.47863
432.97005
447.00053
660.97245
406.83203
1025.0267
1390.9363
539.61754
594.52528
617.39904
936.13823
655.16711
514.59138
948.1924
467.04705
2148.7898
1372.0658
2389.6972
1546.7781
544.0173
571.32602
695.00231
817.3574
845.00582
710.60828
833.9363
581.67727
919.60755
620.2629
1299.6053
1333.5719
2124.6037
1524.8621
756.00643
833.42003
731.39132
594.63305
750.37236
938.64218
931.90018
1294.0219
902.24838
948.01904
629.85984
767.22165
698.32519
451.36275
740.17157
670.50743
747.82258
1346.6478
968.27379
1248.9188
2583.8707
706.319
2087.2008
2035.0311
1872.6802
1580.5838
2320.1476
2431.0814
2587.7127
2505.7012
2453.7365
3799.048
3409.4093
3038.1933
5221.306
4038.3707
3933.2865
1430.2577
1593.6652
712.20373
691.822
595.74865
1341.6211
1547.012
1801.4991
1970.4235
596.40812
627.93483
366.21774
709.42226
651.91716
1136.4989
1316.9292
1466.3494
1456.5506
2292.5055
2675.5056
1974.5365
1748.9345
352.8689
327.40788
310.15048
308.77127
312.53616
330.1518
276.83531
304.94597
303.30382
291.76272
292.21256
311.59222
317.55774
322.6803
314.53708
257.71796
281.74556
270.81928
269.60625
281.14679
296.30867
294.63965
302.36418
303.32675
367.40725
374.38041
378.88657
370.61932
251.38904
260.86849
259.93673
250.34675
275.7439
278.53113
286.69838
284.90931
355.24311
363.97419
366.49293
356.08019
451.07296
446.84492
453.50424
449.78861
502.91413
533.17483
503.13367
473.06064
383.83235
339.76589
338.48402
356.59597
356.67262
327.10331
318.19381
332.45046
322.76822
412.91703
395.89512
380.47035
391.93473
486.78803
473.07574
536.17071
509.24587
362.80164
362.85362
361.02024
379.95285
375.42406
345.39322
345.9955
358.55739
356.12598
429.97085
418.9828
494.44068
474.2716
499.30728
630.74168
540.70899
639.69734
335.27085
352.9884
366.40753
380.48851
365.37087
362.53929
375.354
379.37895
365.50458
428.805
440.07088
457.50953
448.82885
606.67746
601.92631
592.16225
647.28949
335.44686
397.59743
403.86517
420.66193
403.46084
363.70858
338.24911
374.18721
349.9258
643.30288
545.6289
525.00892
455.78873
569.95789
475.89481
366.20121
391.67341
412.96046
381.151
566.32591
737.11789
487.15997
1202.8577
973.87593
595.18102
651.57657
507.10332
442.45434
470.00429
461.48478
452.95356
484.97302
555.64552
587.74397
522.83933
512.32775
1455.7867
780.62626
598.16342
515.18591
989.81495
575.61198
601.56311
621.50079
622.05813
1167.7543
598.75248
586.61
578.60271
1276.1021
673.93917
598.50712
567.41309
435.06784
651.62919
649.57733
622.785
615.45944
626.28656
817.5576
681.02153
636.78651
656.4829
583.60702
868.52326
442.23073
330.5683
359.62158
366.64916
334.14386
488.96522
359.21262
360.1523
491.59299
324.71056
349.31821
362.40884
374.14222
381.23633
372.31449
327.28176
351.47982
437.18066
359.12241
313.66587
428.66819
454.28601
358.90326
449.36063
315.73694
339.39806
338.61996
602.10358
474.53705
346.28182
595.08119
578.89142
349.79936
480.00484
587.03453
526.44883
616.94774
575.42075
465.75075
557.78832
549.28495
370.39372
446.84771
412.28851
423.11234
373.94463
364.02404
376.99679
388.15928
375.88502
456.32205
481.13583
441.72161
431.49801
521.5984
526.69381
629.66804
619.55568
419.57009
403.38681
454.81111
441.58301
467.2158
892.56136
696.59354
717.39904
624.20612
416.22542
597.08538
385.98856
994.33931
1021.2301
646.55241
1454.5291
1337.3073
429.2566
391.43359
2272.163
1313.9533
781.7141
518.71872
518.21682
546.90936
567.71908
596.60805
837.28072
554.29822
1061.4212
1576.148
747.16642
754.20548
684.75109
917.20454
1177.491
684.9712
855.94535
627.80664
1107.6504
597.45006
3299.0992
1924.2127
2592.8818
2216.3859
704.28178
838.7883
702.60365
608.45839
703.51253
819.10857
801.92375
1022.5499
820.46506
673.03565
518.4713
916.73434
996.98298
948.90613
993.21803
590.62643
717.17974
603.04068
911.37186
1397.8166
3284.8651