/*--------------------------------*- C++ -*----------------------------------*\
  =========                 |
  \\      /  F ield         | OpenFOAM: The Open Source CFD Toolbox
   \\    /   O peration     | Website:  https://openfoam.org
    \\  /    A nd           | Version:  7
     \\/     M anipulation  |
\*---------------------------------------------------------------------------*/
FoamFile
{
    version     2.0;
    format      ascii;
    class       volScalarField;
    location    "4000";
    object      pMean;
}
// * * * * * * * * * * * * * * * * * * * * * * * * * * * * * * * * * * * * * //

dimensions      [0 2 -2 0 0 0 0];

internalField   nonuniform List<scalar> 
33730
(
-1.5282468e+48
-1.4572035e+48
-1.4236018e+48
-1.5665548e+48
-1.1811859e+48
-1.1036216e+48
-1.6458146e+48
-1.5105994e+48
-1.4800329e+48
-1.5163063e+48
-1.6283025e+48
-1.6277456e+48
-1.5230787e+48
-1.3936403e+48
-1.0299449e+48
-1.3082889e+48
-1.1617285e+48
-1.5121871e+48
-1.2826128e+48
-1.4276163e+48
-1.4320492e+48
-1.4222595e+48
-1.4403642e+48
-1.4662807e+48
-1.5416308e+48
-1.2705977e+48
-1.4742505e+48
-1.3999671e+48
-1.4951313e+48
-1.2530565e+48
-1.5584628e+48
-1.6235891e+48
-1.4612475e+48
-1.0929989e+48
-1.1648178e+48
-1.8504458e+48
-1.5593739e+48
-1.5953316e+48
-1.6701729e+48
-1.4762468e+48
-1.5160449e+48
-1.6029469e+48
-1.6213317e+48
-1.4548054e+48
-1.3753522e+48
-1.3315453e+48
-9.5048447e+47
-1.2609586e+48
-1.57805e+48
-1.4529458e+48
-1.4063754e+48
-1.0658741e+48
-1.2752685e+48
-1.3083006e+48
-1.4079656e+48
-1.232969e+48
-1.2922746e+48
-1.2079574e+48
-1.5362631e+48
-1.0865118e+48
-1.4369826e+48
-1.4365136e+48
-1.4249202e+48
-1.4248099e+48
-1.446608e+48
-1.4285409e+48
-1.4209763e+48
-1.4426162e+48
-1.4691283e+48
-1.5208479e+48
-1.4841498e+48
-1.5356621e+48
-1.5451243e+48
-1.3980671e+48
-1.3486648e+48
-1.5581234e+48
-1.7010742e+48
-1.7134371e+48
-1.3969572e+48
-1.4560186e+48
-8.997884e+47
-1.5478599e+48
-1.2746902e+48
-1.6172763e+48
-1.3660019e+48
-1.5268174e+48
-1.5673243e+48
-1.4577751e+48
-2.1809127e+48
-6.9399559e+48
-3.3187036e+48
-1.2769231e+48
-1.5956918e+48
-1.5429094e+48
-3.2948831e+48
-1.7607493e+48
-1.4667037e+48
-1.5094417e+48
-1.5942639e+48
-1.6153444e+48
-1.3919334e+48
-1.5479516e+48
-1.438848e+48
-1.4469107e+48
-1.486414e+48
-1.4329699e+48
-1.3196893e+48
-1.2709107e+48
-1.3861753e+48
-1.3158425e+48
-1.3912497e+48
-1.229836e+48
-6.5376104e+47
-1.0682225e+48
-1.0948898e+48
-1.4405199e+48
-1.0571563e+48
-1.4911528e+48
-1.6204232e+48
-1.7704057e+48
-1.4138367e+48
-5.2388668e+48
-1.44015e+48
-2.623118e+48
-1.2769691e+48
-3.4601624e+48
-1.3397869e+48
-1.4468505e+48
-1.3040955e+48
-1.6003229e+48
-1.5510925e+48
-1.5877085e+48
-1.4236117e+48
-2.0814362e+48
-1.431314e+48
-1.4328017e+48
-1.4789372e+48
-1.4762196e+48
-1.4382423e+48
-1.4313159e+48
-1.4241091e+48
-1.4345299e+48
-1.4485264e+48
-1.4291589e+48
-1.420108e+48
-1.4402527e+48
-1.467161e+48
-1.5717484e+48
-1.577133e+48
-1.462077e+48
-1.543035e+48
-1.5685945e+48
-1.6961238e+48
-1.6566108e+48
-1.5346275e+48
-1.4452876e+48
-2.1564774e+48
-1.540752e+48
-1.5530778e+48
-1.2436647e+48
-1.6368521e+48
-1.1312058e+48
-1.6648965e+48
-1.7268637e+48
-1.6978312e+48
-1.709646e+48
-3.1886149e+48
-1.4522449e+48
-1.3424389e+48
-5.2104658e+48
-1.6578802e+48
-1.6755884e+48
-3.5049044e+48
-1.6804137e+48
-2.6254853e+48
-1.5103693e+48
-1.5746174e+48
-1.4482526e+48
-2.0254394e+48
-7.3601892e+48
-2.4756287e+48
-2.6791808e+48
-1.3278123e+48
-1.7363182e+48
-1.5160162e+48
-1.9787704e+48
-3.0078276e+48
-1.8308453e+48
-1.4658297e+48
-1.5089377e+48
-1.5941546e+48
-1.6154959e+48
-2.5400388e+48
-1.4159278e+48
-1.4220019e+48
-1.4257762e+48
-1.4250398e+48
-1.4156522e+48
-1.6393836e+48
-1.5308659e+48
-1.6172755e+48
-1.5879158e+48
-1.4822136e+48
-1.4253029e+48
-1.5485111e+48
-1.4664292e+48
-1.3352464e+48
-1.437698e+48
-1.4953168e+48
-1.246334e+48
-1.4453727e+48
-1.3913635e+48
-1.4181908e+48
-1.4789772e+48
-1.0900426e+48
-1.2404411e+48
-1.1332916e+48
-1.4281056e+48
-2.5140232e+48
-8.8726868e+47
-4.6028611e+48
-1.635442e+48
-2.6831686e+48
-1.0830764e+48
-1.5619915e+48
-1.5671582e+48
-1.8565724e+48
-1.6260471e+48
-1.4892537e+48
-1.7376817e+48
-3.6197188e+48
-1.413552e+48
-4.9376459e+48
-2.9247113e+48
-2.4689237e+48
-1.4846965e+48
-3.3492486e+48
-1.6000798e+48
-1.6853885e+48
-2.7307962e+48
-3.0106682e+48
-1.5748842e+48
-1.5351021e+48
-1.5602149e+48
-1.2980141e+48
-1.4883427e+48
-1.3765194e+48
-1.1507697e+48
-2.0380692e+48
-1.3708308e+48
-1.4282971e+48
-1.4412527e+48
-1.4931654e+48
-1.4756531e+48
-1.4362492e+48
-1.4362181e+48
-1.4852768e+48
-1.4812136e+48
-1.4378799e+48
-1.4308916e+48
-1.4235642e+48
-1.4308151e+48
-1.4460677e+48
-1.4292657e+48
-1.4201622e+48
-1.4400516e+48
-1.4670289e+48
-1.6189795e+48
-1.3284385e+48
-1.3191904e+48
-1.1833447e+48
-1.7800856e+48
-1.6076019e+48
-1.5400554e+48
-1.6321409e+48
-1.7464054e+48
-1.7543586e+48
-1.6567744e+48
-1.5489114e+48
-1.5619574e+48
-1.7292718e+48
-1.8441395e+48
-1.6728069e+48
-1.703085e+48
-1.8571397e+48
-1.3626682e+48
-2.789612e+48
-1.5348116e+48
-1.547997e+48
-1.754158e+48
-7.6508341e+47
-1.6452169e+48
-1.6484755e+48
-1.894462e+48
-1.9216918e+48
-1.6304158e+48
-1.6876939e+48
-1.7163368e+48
-2.916352e+48
-1.4520818e+48
-2.0279645e+48
-1.4594167e+48
-5.6761117e+48
-1.7146635e+48
-1.8874213e+48
-5.2988644e+48
-3.4294353e+48
-1.847977e+48
-2.5080059e+48
-1.5097107e+48
-1.5772037e+48
-1.4476582e+48
-2.4784776e+48
-2.6188726e+48
-1.7838216e+48
-1.7487569e+48
-1.3250237e+48
-2.8232449e+48
-1.9116389e+48
-1.83965e+48
-2.6848271e+48
-2.46236e+48
-2.0819124e+48
-1.3848031e+48
-1.4649058e+48
-1.4438523e+48
-1.4720375e+48
-1.4416046e+48
-1.4343506e+48
-1.4156195e+48
-1.4209472e+48
-1.4265928e+48
-1.4135982e+48
-1.6429179e+48
-1.5227675e+48
-1.5947929e+48
-1.6191379e+48
-1.5311066e+48
-1.4357615e+48
-1.2938909e+48
-1.3935252e+48
-1.5771417e+48
-1.5263391e+48
-1.6592072e+48
-1.5021564e+48
-1.5704324e+48
-1.5546583e+48
-1.4844164e+48
-1.1885454e+48
-2.2949926e+48
-1.4242545e+48
-1.4377042e+48
-1.4339192e+48
-1.221892e+48
-1.4996227e+48
-9.1639133e+47
-1.4486657e+48
-1.3459847e+48
-1.7754908e+48
-1.4136123e+48
-3.267647e+48
-3.4450165e+48
-2.2691821e+48
-2.0979156e+48
-1.4344759e+48
-2.3478789e+48
-6.9205172e+48
-4.9170953e+48
-4.5372681e+48
-2.5580119e+48
-1.7868457e+48
-1.1543662e+49
-2.7238529e+48
-1.8472346e+48
-1.6365624e+48
-1.530324e+48
-1.5977427e+48
-1.775244e+48
-1.3703713e+48
-1.6528299e+48
-2.4372248e+48
-2.9824945e+48
-1.4133048e+48
-2.2600396e+48
-1.3425126e+48
-1.7968626e+48
-1.5022867e+48
-4.9783522e+48
-2.9715847e+48
-1.5967932e+48
-1.216427e+48
-1.8388691e+48
-1.3489235e+48
-1.3286708e+48
-1.9456264e+48
-1.988746e+48
-1.0641876e+48
-1.6436491e+48
-7.2216505e+47
-2.0020497e+48
-1.3613363e+48
-1.3612479e+48
-1.3575086e+48
-1.3879138e+48
-1.3872831e+48
-1.4385676e+48
-1.4161345e+48
-1.4588395e+48
-1.4849946e+48
-1.4160818e+48
-1.4334157e+48
-1.4832496e+48
-1.478826e+48
-1.4339988e+48
-1.4372807e+48
-1.4836111e+48
-1.4792556e+48
-1.4387388e+48
-1.4309353e+48
-1.4235854e+48
-1.4305782e+48
-1.445922e+48
-1.5684956e+48
-1.5128176e+48
-1.3380597e+48
-1.543918e+48
-1.4953829e+48
-1.4717557e+48
-1.6065894e+48
-1.5640012e+48
-1.6208353e+48
-1.3751186e+48
-1.249561e+48
-1.9415738e+48
-1.6069527e+48
-2.2823289e+48
-1.6109753e+48
-1.5586647e+48
-1.5420766e+48
-1.7081174e+48
-1.7049766e+48
-2.1729304e+48
-3.2627794e+48
-1.5520475e+48
-1.5690654e+48
-2.0539923e+48
-1.7301351e+48
-2.3185063e+48
-1.8390094e+48
-1.6575491e+48
-2.1356915e+48
-2.932064e+48
-2.7230225e+48
-1.9361105e+48
-1.5347335e+48
-1.5479021e+48
-3.8620581e+48
-1.9842351e+48
-5.9371709e+47
-1.8120834e+48
-1.6301507e+48
-1.5044927e+48
-3.2328844e+48
-1.7831771e+48
-1.8934955e+48
-1.6877701e+48
-1.7180517e+48
-2.0479526e+48
-2.1733917e+48
-1.5205857e+48
-1.7191634e+48
-1.7822315e+48
-3.6095668e+48
-5.3548446e+48
-1.8623227e+48
-2.5624731e+48
-2.6241586e+48
-1.8266833e+48
-2.6182426e+48
-1.925437e+48
-1.9232433e+48
-2.1930244e+48
-1.809404e+48
-1.7444009e+48
-1.4062928e+48
-1.4018148e+48
-1.3674064e+48
-1.405292e+48
-1.3649903e+48
-1.4537915e+48
-1.4704899e+48
-1.4867404e+48
-1.4937535e+48
-1.4617898e+48
-1.441917e+48
-1.469319e+48
-1.446594e+48
-1.4322048e+48
-1.4122579e+48
-1.4199765e+48
-1.4245857e+48
-1.4125841e+48
-1.6624394e+48
-1.5519963e+48
-1.6100692e+48
-1.5539901e+48
-1.4970778e+48
-2.4389324e+48
-1.3917253e+48
-1.6878859e+48
-1.2413569e+48
-1.4855808e+48
-1.5518471e+48
-1.2210084e+48
-1.6320083e+48
-1.4102527e+48
-1.5061593e+48
-1.4411979e+48
-1.449852e+48
-1.3289363e+48
-2.2579062e+48
-1.5204067e+48
-1.6602234e+48
-1.6449256e+48
-1.1776696e+48
-1.5652971e+48
-1.5247448e+48
-1.3719338e+48
-1.4777524e+48
-1.3648921e+48
-2.8897567e+48
-2.2139972e+48
-2.8112331e+48
-1.4337367e+48
-1.3593617e+48
-9.7733251e+47
-1.4997606e+48
-1.7354534e+48
-1.4492757e+48
-1.5171172e+48
-1.4651514e+48
-5.2303957e+48
-1.4132816e+48
-3.0024103e+48
-3.6725068e+48
-2.3050529e+48
-2.1655863e+48
-1.4247306e+48
-7.137093e+48
-3.9337249e+48
-9.9995194e+47
-1.247251e+49
-3.8300682e+48
-1.5316644e+48
-1.610876e+48
-1.3261975e+48
-1.4357157e+48
-1.5630601e+48
-1.5008736e+48
-1.1966305e+48
-1.9238303e+48
-2.6770306e+48
-1.3434257e+48
-1.7001484e+48
-3.7453001e+48
-1.418167e+48
-1.5703933e+48
-3.3320718e+48
-1.496536e+48
-1.1903498e+48
-1.3316457e+48
-1.2994115e+48
-1.2035074e+48
-1.0353522e+48
-3.3219765e+48
-1.1419727e+48
-1.0595627e+48
-2.2242436e+48
-2.4568687e+48
-4.4663366e+48
-2.1939729e+48
-5.3082655e+47
-2.0090031e+48
-1.3335195e+48
-1.3648652e+48
-1.3589826e+48
-1.3582814e+48
-1.374034e+48
-1.3756342e+48
-1.3626827e+48
-1.3589732e+48
-1.3929453e+48
-1.3902414e+48
-1.4156713e+48
-1.4157127e+48
-1.4510117e+48
-1.4627107e+48
-1.4185201e+48
-1.4090839e+48
-1.4542414e+48
-1.4693078e+48
-1.4148406e+48
-1.4362887e+48
-1.4893801e+48
-1.4825873e+48
-1.436074e+48
-1.4374226e+48
-1.4835686e+48
-1.4792244e+48
-1.4388641e+48
-1.5457638e+48
-1.3741678e+48
-1.445643e+48
-1.4497732e+48
-1.4593948e+48
-1.5878915e+48
-1.3762003e+48
-1.5258645e+48
-1.5006837e+48
-1.2498588e+48
-1.4450565e+48
-1.5645302e+48
-1.5343273e+48
-1.4978347e+48
-1.6097295e+48
-1.3635961e+48
-1.525636e+48
-1.5795214e+48
-1.6296655e+48
-2.6221112e+48
-5.6317641e+48
-1.7001411e+48
-5.858484e+48
-1.7959375e+48
-3.8410119e+48
-1.561122e+48
-1.8513416e+48
-1.5576362e+48
-1.5245961e+48
-1.7241252e+48
-1.7090599e+48
-1.932494e+48
-3.0262935e+48
-1.5525489e+48
-1.5700986e+48
-2.2258771e+48
-2.5173675e+48
-1.7313894e+48
-5.0062469e+48
-2.2420507e+48
-1.8767691e+48
-1.6579734e+48
-3.1057264e+48
-2.6604628e+48
-2.8000802e+48
-3.6180727e+48
-3.2893887e+48
-2.0928164e+48
-1.8292389e+48
-2.6859727e+48
-4.6467728e+48
-2.1648685e+48
-1.9096986e+48
-2.0542205e+48
-3.5117397e+48
-1.546798e+48
-1.7740567e+48
-2.1857823e+48
-3.5185423e+48
-1.854741e+48
-2.0225568e+48
-3.4151435e+48
-1.413982e+48
-1.3816914e+48
-1.4185122e+48
-1.4124249e+48
-1.3758643e+48
-1.3659289e+48
-1.364229e+48
-1.3663223e+48
-1.3678704e+48
-1.4035002e+48
-1.3748096e+48
-1.41033e+48
-1.3698628e+48
-1.4589768e+48
-1.4538331e+48
-1.4756405e+48
-1.4540734e+48
-1.4567706e+48
-1.4557094e+48
-1.473379e+48
-1.4732229e+48
-1.4533746e+48
-1.4397817e+48
-1.4710063e+48
-1.4446749e+48
-1.4306535e+48
-1.4119616e+48
-1.4199691e+48
-1.4243972e+48
-1.4125554e+48
-1.6523809e+48
-1.578393e+48
-1.7172299e+48
-1.6491059e+48
-1.5603335e+48
-9.4935436e+47
-1.3024605e+48
-1.1603009e+48
-1.5020554e+48
-1.5196016e+48
-1.5709288e+48
-1.4922261e+48
-1.5378714e+48
-1.2633896e+48
-1.471551e+48
-3.8114864e+48
-1.3971165e+48
-1.9705952e+48
-1.9183998e+48
-1.4768068e+48
-1.2061832e+48
-1.5218489e+48
-1.4130867e+48
-1.6238167e+48
-1.4924524e+48
-1.608092e+48
-1.5053859e+48
-5.892501e+48
-1.6435156e+48
-4.2130743e+48
-2.7911061e+48
-1.5199984e+48
-1.706124e+48
-1.5964245e+48
-1.6447866e+48
-1.5736529e+48
-1.5661018e+48
-1.797314e+48
-1.3995858e+48
-2.6994634e+48
-1.4775702e+48
-1.2202497e+48
-2.2637571e+48
-1.7087422e+48
-2.7455194e+48
-1.3694578e+48
-1.9753171e+48
-1.363085e+49
-1.7409164e+48
-1.5329326e+48
-2.0506268e+48
-2.3975942e+48
-4.6889981e+48
-1.4149724e+48
-6.277301e+47
-2.6822687e+48
-1.5582634e+48
-1.4335177e+48
-1.1883129e+48
-1.363234e+48
-1.23754e+48
-1.1484491e+48
-8.2680323e+47
-1.4240071e+48
-1.9069474e+48
-3.499587e+48
-2.0547014e+48
-4.7202645e+48
-4.5353841e+48
-1.3194793e+48
-3.021784e+48
-1.3846813e+48
-1.6997521e+48
-1.3142609e+48
-1.2956208e+48
-1.21246e+48
-1.2698253e+48
-1.3731549e+48
-1.6211207e+48
-1.1617882e+48
-9.7123548e+47
-2.367264e+48
-4.1830532e+48
-4.4837422e+48
-2.0180097e+48
-1.749118e+48
-1.995091e+48
-4.733338e+48
-1.9280212e+48
-1.333133e+48
-1.3345159e+48
-1.3172923e+48
-1.3323242e+48
-1.3168171e+48
-1.3701235e+48
-1.3590007e+48
-1.363809e+48
-1.3744049e+48
-1.3740356e+48
-1.3585686e+48
-1.3594878e+48
-1.3769079e+48
-1.3782119e+48
-1.3617186e+48
-1.3583102e+48
-1.3950805e+48
-1.3908422e+48
-1.4252635e+48
-1.415052e+48
-1.4242704e+48
-1.4233853e+48
-1.4117362e+48
-1.405253e+48
-1.4502885e+48
-1.46728e+48
-1.4205503e+48
-1.413604e+48
-1.45622e+48
-1.4716051e+48
-1.4201562e+48
-1.4364515e+48
-1.4898523e+48
-1.4828822e+48
-1.4362001e+48
-1.6414313e+48
-1.3303812e+48
-1.4056192e+48
-1.4843888e+48
-1.4560225e+48
-1.504787e+48
-1.5182634e+48
-1.4142453e+48
-1.3054349e+48
-1.7145175e+48
-1.4695618e+48
-1.4602147e+48
-1.5297444e+48
-1.4893253e+48
-1.8929494e+48
-1.7511571e+48
-2.1237999e+48
-1.5408594e+48
-1.5048567e+48
-1.4483053e+48
-4.502614e+48
-1.5914976e+48
-3.7349395e+48
-1.5179644e+48
-1.4931384e+48
-1.9873426e+48
-2.2860376e+48
-1.327636e+48
-1.6016414e+48
-1.5738501e+48
-1.5939731e+48
-2.4760408e+48
-5.8661569e+48
-7.0241449e+48
-1.7999848e+48
-5.7809637e+48
-2.0791339e+48
-2.990108e+48
-1.622717e+48
-2.0174225e+48
-2.0051981e+48
-1.5579467e+48
-1.5238922e+48
-1.7287887e+48
-1.7121077e+48
-6.3539856e+48
-3.1220786e+48
-2.5452645e+48
-4.0376317e+48
-3.7832974e+48
-2.2602655e+48
-1.8808401e+48
-2.8896363e+48
-2.813593e+48
-1.7429931e+48
-2.1072495e+48
-4.4350501e+48
-1.352181e+48
-2.1832312e+48
-3.6450416e+48
-3.422952e+48
-5.2359082e+47
-1.416406e+48
-1.3883418e+48
-1.4161933e+48
-1.4169659e+48
-1.3875047e+48
-1.3707005e+48
-1.3730608e+48
-1.3729374e+48
-1.375189e+48
-1.3861641e+48
-1.3546048e+48
-1.4160903e+48
-1.4153984e+48
-1.3819109e+48
-1.3504864e+48
-1.4038674e+48
-1.3754779e+48
-1.4097486e+48
-1.3702702e+48
-1.4539875e+48
-1.4870957e+48
-1.4668349e+48
-1.4975501e+48
-1.4742658e+48
-1.440902e+48
-1.4715389e+48
-1.4551833e+48
-1.4504491e+48
-1.4537706e+48
-1.4706491e+48
-1.4713539e+48
-1.451411e+48
-1.4397144e+48
-1.4710818e+48
-1.4445332e+48
-1.4306097e+48
-1.5549682e+48
-1.5949999e+48
-1.7688437e+48
-1.7823059e+48
-1.5551343e+48
-1.2043498e+48
-1.3952778e+48
-1.4022763e+48
-1.0892539e+48
-1.5596094e+48
-1.7280008e+48
-1.4141412e+48
-1.6443233e+48
-1.3843359e+48
-1.5372207e+48
-9.0641582e+47
-1.3119353e+48
-1.5460628e+48
-1.5772764e+48
-1.5113312e+48
-1.5542542e+48
-1.566526e+48
-1.7001205e+48
-1.4916111e+48
-1.4402477e+48
-1.6309737e+48
-1.4700484e+48
-5.5217963e+48
-4.5382247e+48
-2.2960851e+48
-4.964025e+48
-1.4763054e+48
-1.2103343e+48
-1.5545213e+48
-1.5202031e+48
-2.5740599e+48
-1.6232602e+48
-1.5589587e+48
-1.5384215e+48
-3.2473265e+48
-1.505562e+48
-5.8929058e+48
-1.2606447e+48
-4.2455588e+48
-1.9950657e+48
-1.7101666e+48
-1.5782633e+48
-3.4356503e+48
-1.4381396e+48
-1.8230442e+48
-1.9528777e+48
-3.8444041e+48
-2.3797136e+48
-2.0356796e+48
-4.9238452e+48
-1.5343181e+49
-2.1148803e+48
-3.0794883e+48
-2.4010352e+48
-1.4057179e+48
-1.6812152e+48
-1.4018107e+48
-1.2895652e+48
-1.185842e+48
-1.3352111e+48
-1.1882115e+48
-1.4132812e+48
-1.5799078e+48
-1.2170725e+48
-2.7958341e+48
-5.753013e+48
-2.9022577e+48
-2.1170129e+48
-3.6952536e+48
-1.6528037e+48
-3.3855975e+48
-4.5016886e+48
-1.4198583e+48
-1.7199516e+48
-1.4943618e+48
-1.5709338e+48
-1.3687573e+48
-1.4655918e+48
-1.4395321e+48
-1.3065035e+48
-1.3420322e+48
-1.1537862e+48
-2.5702942e+48
-2.5836919e+48
-2.3449906e+48
-1.4416476e+48
-2.4455105e+48
-2.2812978e+48
-4.7439526e+48
-1.8567468e+48
-1.3342334e+48
-1.3180976e+48
-1.3171722e+48
-1.3368928e+48
-1.3409583e+48
-1.3373921e+48
-1.3114306e+48
-1.3338419e+48
-1.3101712e+48
-1.3760839e+48
-1.3756536e+48
-1.3678071e+48
-1.3830451e+48
-1.3815912e+48
-1.3613598e+48
-1.3725806e+48
-1.3850196e+48
-1.3784646e+48
-1.3571601e+48
-1.3601617e+48
-1.379591e+48
-1.3794373e+48
-1.3616557e+48
-1.3583709e+48
-1.3951997e+48
-1.3908506e+48
-1.4539141e+48
-1.4196349e+48
-1.4455686e+48
-1.4257297e+48
-1.4200197e+48
-1.4176067e+48
-1.4357266e+48
-1.4333136e+48
-1.4052738e+48
-1.406792e+48
-1.4507494e+48
-1.4672397e+48
-1.4213123e+48
-1.4140409e+48
-1.4565543e+48
-1.4719486e+48
-1.4205113e+48
-1.5557991e+48
-1.6624889e+48
-1.2608296e+48
-1.3046257e+48
-1.5259279e+48
-1.5233798e+48
-1.5885714e+48
-1.6298541e+48
-1.5211697e+48
-1.3241604e+48
-1.5295468e+48
-1.4958492e+48
-1.4807545e+48
-1.5016995e+48
-1.3015112e+48
-1.5451017e+48
-1.326122e+48
-1.1522415e+48
-1.1617306e+48
-4.2036397e+48
-1.4668778e+48
-1.4583327e+48
-2.5704166e+48
-1.5937838e+48
-1.436626e+48
-2.2705594e+48
-4.6957336e+48
-1.5969905e+48
-6.6919666e+48
-1.5395945e+48
-1.4946361e+48
-5.0754851e+48
-1.4774226e+48
-4.8604827e+48
-1.5887834e+48
-3.4282398e+48
-1.5169862e+48
-1.4931069e+48
-1.6456838e+48
-2.2347378e+48
-2.6574711e+48
-1.7888685e+48
-1.6662435e+48
-1.5736706e+48
-1.5919348e+48
-7.1158925e+48
-2.6841313e+48
-2.2250264e+48
-2.1051073e+48
-1.3461175e+48
-2.6293819e+48
-2.0730168e+48
-2.0210406e+48
-6.5863909e+48
-1.6867123e+48
-3.2295981e+48
-3.4177318e+48
-1.0416449e+48
-2.2562923e+48
-1.3870622e+48
-1.4773758e+48
-7.3050698e+47
-9.9503443e+47
-1.1928592e+48
-1.4113543e+48
-1.385451e+48
-1.4229509e+48
-1.432152e+48
-1.3901389e+48
-1.3759675e+48
-1.3749396e+48
-1.3774952e+48
-1.3763103e+48
-1.3909705e+48
-1.359599e+48
-1.4117637e+48
-1.4158072e+48
-1.3892502e+48
-1.3586492e+48
-1.3428494e+48
-1.3441119e+48
-1.3870236e+48
-1.3547061e+48
-1.41658e+48
-1.4157002e+48
-1.3825307e+48
-1.3506677e+48
-1.4039468e+48
-1.3755573e+48
-1.4097997e+48
-1.3703436e+48
-1.4551337e+48
-1.4789472e+48
-1.521316e+48
-1.5004699e+48
-1.4757558e+48
-1.4836961e+48
-1.4576349e+48
-1.4821545e+48
-1.4627196e+48
-1.4430263e+48
-1.4696788e+48
-1.4541645e+48
-1.4489129e+48
-1.4536717e+48
-1.4704009e+48
-1.4713301e+48
-1.4513019e+48
-1.6419139e+48
-1.5802391e+48
-1.7139454e+48
-1.721033e+48
-1.5929134e+48
-1.5275248e+48
-1.7129933e+48
-1.3291848e+48
-1.1838518e+48
-1.5856798e+48
-1.661915e+48
-1.5406858e+48
-1.7376591e+48
-1.2345259e+48
-1.5574967e+48
-1.8958128e+48
-1.2388829e+48
-1.3504346e+48
-6.9250808e+47
-1.5499634e+48
-1.6993825e+48
-1.7286934e+48
-1.9760797e+48
-1.6015374e+48
-1.7254075e+48
-1.4858616e+48
-1.5281181e+48
-1.3725306e+49
-4.4465079e+48
-4.7553628e+48
-3.358781e+48
-1.5111401e+48
-1.5540438e+48
-1.6438714e+48
-1.6129333e+48
-3.4249709e+48
-1.4891044e+48
-1.4954862e+48
-1.4305829e+48
-4.6964011e+48
-1.4701125e+48
-3.5645577e+48
-4.5109827e+48
-1.9775535e+48
-4.5440952e+48
-1.2123959e+48
-1.43982e+48
-4.0257087e+48
-2.3081391e+48
-1.5631777e+48
-1.5297877e+48
-4.3497826e+48
-2.7510278e+48
-1.5755943e+48
-8.9935351e+47
-3.1774976e+48
-1.9932279e+48
-2.544964e+48
-3.8156905e+48
-4.2714299e+48
-4.5385534e+48
-3.270422e+48
-3.023711e+48
-1.4330329e+48
-1.6439441e+48
-1.7857594e+48
-1.6803414e+48
-1.6115815e+48
-1.7181328e+48
-1.5294616e+48
-1.3021698e+48
-9.4308202e+47
-9.8670309e+47
-3.0185078e+48
-5.3511032e+48
-3.2740961e+48
-3.0843921e+48
-2.7151268e+48
-6.1496521e+48
-2.821138e+48
-1.6208737e+48
-1.4661214e+48
-1.6329879e+48
-1.6870391e+48
-1.4954018e+48
-1.5133313e+48
-1.2704516e+48
-2.1161019e+48
-1.904578e+48
-2.0700385e+48
-1.6946759e+48
-2.5267951e+48
-1.8327365e+48
-2.1667987e+48
-3.6432014e+48
-1.9035093e+48
-2.0821296e+48
-2.3906182e+48
-1.173655e+48
-1.31911e+48
-1.3394681e+48
-1.3471166e+48
-1.3146245e+48
-1.3112027e+48
-1.3080416e+48
-1.3344618e+48
-1.3471814e+48
-1.3386949e+48
-1.3109358e+48
-1.3339569e+48
-1.309897e+48
-1.3790687e+48
-1.3653519e+48
-1.3640443e+48
-1.3842757e+48
-1.3824667e+48
-1.3994017e+48
-1.3653733e+48
-1.3969813e+48
-1.3886864e+48
-1.3626227e+48
-1.3723298e+48
-1.3853494e+48
-1.3802688e+48
-1.3570999e+48
-1.3602355e+48
-1.3796443e+48
-1.3794891e+48
-1.4334325e+48
-1.4323308e+48
-1.4710391e+48
-1.4670541e+48
-1.4324254e+48
-1.4062933e+48
-1.4404328e+48
-1.4335205e+48
-1.4163099e+48
-1.4164689e+48
-1.4331968e+48
-1.431747e+48
-1.4042767e+48
-1.4069972e+48
-1.4508898e+48
-1.4673323e+48
-1.4214219e+48
-1.605001e+48
-1.5071253e+48
-1.2063121e+48
-1.2682691e+48
-1.5993883e+48
-1.5645043e+48
-1.66769e+48
-1.5434507e+48
-1.5117046e+48
-2.1065682e+48
-2.6713701e+48
-1.2855342e+48
-1.355988e+48
-1.5695712e+48
-1.4213562e+48
-1.4936481e+48
-1.5350354e+48
-1.6289725e+48
-1.5063447e+48
-2.6795983e+48
-1.1704335e+48
-1.4779003e+48
-1.4735621e+48
-1.2376915e+48
-1.4789004e+48
-1.4690928e+48
-1.3218354e+48
-1.5165534e+48
-1.1693101e+48
-2.1118678e+48
-1.767915e+48
-3.8011682e+48
-1.4669375e+48
-1.4583418e+48
-2.4705625e+48
-2.4545736e+48
-1.3106914e+48
-1.4929992e+48
-3.0992093e+48
-1.7910635e+48
-4.4333172e+48
-1.6469009e+48
-5.9928282e+48
-1.540914e+48
-1.4940128e+48
-4.8799446e+48
-1.776917e+48
-1.5782146e+48
-1.5832708e+48
-2.6470528e+48
-3.802646e+48
-2.1251479e+48
-1.6703105e+48
-2.6008424e+48
-2.0076397e+48
-2.2790636e+48
-2.2679475e+48
-1.7890547e+48
-2.0843204e+48
-1.0126447e+48
-1.255575e+48
-7.2086053e+47
-7.5104623e+47
-3.2316727e+47
-1.4097047e+48
-1.4290794e+48
-1.380395e+48
-1.4271555e+48
-1.3840167e+48
-1.3729223e+48
-1.3707987e+48
-1.3727114e+48
-1.3743706e+48
-1.3911717e+48
-1.3627186e+48
-1.4225153e+48
-1.4196006e+48
-1.3899766e+48
-1.3635708e+48
-1.3461717e+48
-1.3454677e+48
-1.3908024e+48
-1.3602427e+48
-1.3314666e+48
-1.4136247e+48
-1.4161401e+48
-1.358006e+48
-1.3895085e+48
-1.32976e+48
-1.3870837e+48
-1.3544727e+48
-1.4166997e+48
-1.4157705e+48
-1.3825877e+48
-1.3504103e+48
-1.4721956e+48
-1.4717877e+48
-1.502751e+48
-1.5193853e+48
-1.4794408e+48
-1.4713391e+48
-1.5207408e+48
-1.503892e+48
-1.4702122e+48
-1.4801682e+48
-1.4602047e+48
-1.4809705e+48
-1.4611932e+48
-1.4432704e+48
-1.4695882e+48
-1.4541206e+48
-1.448908e+48
-1.6308414e+48
-1.5682384e+48
-1.6286685e+48
-1.7117729e+48
-1.5886261e+48
-1.636357e+48
-1.7202961e+48
-1.5346062e+48
-1.5404537e+48
-1.5646854e+48
-1.67839e+48
-1.6730103e+48
-1.7185851e+48
-1.6571098e+48
-1.5782902e+48
-1.6700116e+48
-1.9265099e+48
-1.4407807e+48
-1.4225867e+48
-1.5751227e+48
-1.5404714e+48
-1.6556177e+48
-1.6312066e+48
-1.7274899e+48
-1.489288e+48
-1.3921287e+48
-1.5563072e+48
-3.5659438e+48
-2.2962923e+48
-2.2812743e+48
-8.6070137e+48
-1.5492821e+48
-1.8694594e+48
-1.7359801e+48
-1.7291579e+48
-2.9825805e+48
-1.6001114e+48
-1.7799307e+48
-2.0737287e+48
-3.6211515e+48
-1.5276658e+48
-1.4891566e+49
-4.3013355e+48
-4.6299359e+48
-2.9142095e+48
-1.6579313e+48
-1.749273e+48
-2.6081398e+48
-3.3252718e+48
-1.5026008e+48
-1.6609325e+48
-2.2582717e+48
-4.7364484e+48
-1.4210894e+48
-1.5797227e+48
-3.4608676e+48
-1.5247024e+48
-6.4773943e+47
-4.3790024e+48
-7.4953504e+47
-5.8526677e+47
-2.3826216e+48
-2.3189181e+48
-3.8443067e+48
-3.1163115e+48
-1.4364458e+48
-1.6535077e+48
-1.5563208e+48
-1.4921672e+48
-1.5432699e+48
-1.7580439e+48
-2.5896867e+48
-2.2085677e+48
-1.5713536e+48
-2.6968288e+48
-2.844906e+48
-3.773355e+48
-7.1944325e+48
-5.4011321e+48
-2.873876e+48
-5.2399913e+48
-3.0904706e+48
-3.1519398e+48
-1.442819e+48
-1.6356813e+48
-1.3776554e+48
-1.5373656e+48
-1.1163457e+48
-1.4308304e+48
-3.0684972e+48
-2.0447976e+48
-1.919562e+48
-1.6794324e+48
-5.2436843e+48
-2.914392e+48
-3.7877464e+48
-2.6936923e+48
-2.4353166e+48
-1.7286395e+48
-1.929322e+48
-3.7372975e+48
-1.3335938e+48
-1.3167309e+48
-1.317424e+48
-1.3344756e+48
-1.309682e+48
-1.3410197e+48
-1.3506057e+48
-1.2806976e+48
-1.3123075e+48
-1.3082645e+48
-1.3357003e+48
-1.3464241e+48
-1.3387943e+48
-1.3109506e+48
-1.3339852e+48
-1.3098745e+48
-1.3674084e+48
-1.3595716e+48
-1.3607864e+48
-1.3861017e+48
-1.3880463e+48
-1.3653295e+48
-1.3645454e+48
-1.388809e+48
-1.3804978e+48
-1.3951779e+48
-1.3677219e+48
-1.3970936e+48
-1.3909532e+48
-1.3627161e+48
-1.372272e+48
-1.3854058e+48
-1.3804116e+48
-1.4267933e+48
-1.4228008e+48
-1.4721449e+48
-1.4682222e+48
-1.4294534e+48
-1.4300118e+48
-1.4629907e+48
-1.4497426e+48
-1.4256645e+48
-1.4151498e+48
-1.4436849e+48
-1.4338127e+48
-1.4183336e+48
-1.4164241e+48
-1.4331248e+48
-1.4317172e+48
-1.4042583e+48
-1.5055476e+48
-1.2688372e+48
-1.5033115e+48
-1.4392519e+48
-1.2658506e+48
-1.7266967e+48
-1.7195582e+48
-1.5379945e+48
-1.547715e+48
-1.9462584e+48
-1.3407279e+48
-8.1047538e+47
-1.4797609e+48
-2.127456e+48
-1.6051071e+48
-1.5187674e+48
-1.5866817e+48
-1.5290819e+48
-1.4824776e+48
-2.2521336e+48
-5.1032811e+48
-1.7514896e+48
-2.3416992e+48
-1.5544891e+48
-2.5436395e+48
-1.3987666e+48
-1.4079682e+48
-1.48781e+48
-1.5269815e+48
-1.6073222e+48
-1.4988714e+48
-2.7193715e+48
-7.9187427e+47
-1.4767009e+48
-1.4730501e+48
-1.1700653e+48
-1.3379266e+48
-1.4774446e+48
-2.4172605e+48
-1.2460977e+48
-1.6929025e+48
-1.5147499e+48
-1.7548557e+48
-2.0934862e+48
-1.7601345e+48
-2.2062523e+48
-3.6818539e+48
-1.6869737e+48
-1.5000137e+48
-2.463129e+48
-4.346969e+48
-2.1030959e+48
-1.649355e+48
-1.7124008e+48
-2.9080533e+48
-1.5827541e+48
-3.573346e+48
-2.0932029e+48
-2.1563497e+48
-1.7178497e+48
-1.8888034e+48
-1.6870566e+48
-1.7573567e+48
-5.2544051e+47
-1.4077031e+48
-1.3754279e+48
-1.4209195e+48
-1.4308085e+48
-1.3818961e+48
-1.369075e+48
-1.3702484e+48
-1.3727074e+48
-1.3728764e+48
-1.4278783e+48
-1.385305e+48
-1.3560047e+48
-1.4267781e+48
-1.3896818e+48
-1.3596131e+48
-1.345588e+48
-1.3445975e+48
-1.3905553e+48
-1.3620866e+48
-1.3321535e+48
-1.4229335e+48
-1.4213163e+48
-1.3619137e+48
-1.3893158e+48
-1.3333712e+48
-1.3908592e+48
-1.3594335e+48
-1.3301972e+48
-1.4137814e+48
-1.4162303e+48
-1.3576857e+48
-1.3281297e+48
-1.3895185e+48
-1.3544574e+48
-1.3504115e+48
-1.471908e+48
-1.4785729e+48
-1.5128097e+48
-1.516661e+48
-1.4803105e+48
-1.4635121e+48
-1.4996433e+48
-1.5133693e+48
-1.4758558e+48
-1.4710878e+48
-1.5184726e+48
-1.5027871e+48
-1.4694197e+48
-1.4797671e+48
-1.460429e+48
-1.4808139e+48
-1.461049e+48
-1.6687338e+48
-1.589468e+48
-1.6847528e+48
-1.6730872e+48
-1.5831558e+48
-1.507296e+48
-1.6131976e+48
-1.7610267e+48
-1.4454423e+48
-1.5563059e+48
-1.5976461e+48
-1.5456618e+48
-1.7096347e+48
-1.8308772e+48
-1.575825e+48
-2.4164673e+48
-1.8112119e+48
-1.315519e+48
-1.3717814e+48
-1.5566619e+48
-1.6449855e+48
-1.8473889e+48
-1.7827569e+48
-1.7035579e+48
-1.8924389e+48
-1.6472359e+48
-1.5520595e+48
-2.7739436e+48
-2.1995878e+48
-4.0447582e+48
-3.433057e+48
-1.5744972e+48
-1.8501763e+48
-1.2858137e+48
-1.6558298e+48
-3.3766888e+48
-1.7276782e+48
-1.8602973e+48
-1.3575321e+48
-9.447161e+48
-1.5563702e+48
-3.0322689e+48
-2.0907041e+48
-2.1987097e+48
-9.3548393e+48
-1.8838229e+48
-2.0820824e+48
-2.902161e+48
-2.2778773e+48
-1.788416e+48
-1.8946892e+48
-4.0313021e+48
-3.6070181e+48
-1.7615e+48
-1.8277351e+48
-2.4939185e+48
-1.6898543e+48
-1.4037326e+48
-2.1436339e+48
-1.3572636e+48
-1.1731021e+48
-3.707762e+47
-2.6159131e+47
-5.2168254e+47
-2.0353946e+48
-1.4380011e+48
-1.6071077e+48
-1.7720027e+48
-1.7078348e+48
-1.572727e+48
-1.2373775e+48
-1.4524022e+48
-1.3032345e+48
-1.7908768e+48
-2.6043776e+48
-2.6761593e+48
-3.4728024e+48
-2.1108541e+48
-3.0231151e+48
-2.7345689e+48
-3.6375893e+48
-7.4785985e+48
-5.9047843e+48
-1.403454e+48
-1.5192673e+48
-1.6777423e+48
-1.3521335e+48
-1.4702021e+48
-1.5951537e+48
-1.4074653e+48
-1.6946362e+48
-4.1652927e+47
-1.5943228e+48
-4.1800573e+48
-2.4039155e+48
-4.7274866e+48
-4.7791004e+48
-5.1012111e+48
-2.5266337e+48
-3.192745e+48
-2.4356146e+48
-1.2096227e+48
-1.2533923e+48
-1.2507863e+48
-1.2581567e+48
-1.2757779e+48
-1.3301132e+48
-1.3310186e+48
-1.3134933e+48
-1.3154869e+48
-1.3305542e+48
-1.3384365e+48
-1.3109535e+48
-1.3109501e+48
-1.3372123e+48
-1.311366e+48
-1.3431417e+48
-1.3525913e+48
-1.2956862e+48
-1.3122711e+48
-1.3082819e+48
-1.3358032e+48
-1.3462021e+48
-1.352487e+48
-1.355435e+48
-1.3529668e+48
-1.3842307e+48
-1.3771781e+48
-1.3591587e+48
-1.3593555e+48
-1.3895953e+48
-1.3897164e+48
-1.3657644e+48
-1.3648537e+48
-1.3895967e+48
-1.3823527e+48
-1.3949728e+48
-1.3678974e+48
-1.3971129e+48
-1.391107e+48
-1.3871693e+48
-1.4042014e+48
-1.456434e+48
-1.4537081e+48
-1.4051306e+48
-1.4221219e+48
-1.4733166e+48
-1.4651362e+48
-1.4292642e+48
-1.4299529e+48
-1.4623935e+48
-1.4480824e+48
-1.425333e+48
-1.4157517e+48
-1.4440326e+48
-1.4338759e+48
-1.4185046e+48
-1.4471524e+48
-1.2941239e+48
-1.4404836e+48
-1.6447578e+48
-1.3085197e+48
-1.6272361e+48
-1.5055701e+48
-1.4578272e+48
-1.4988963e+48
-1.7246715e+48
-1.7802328e+48
-1.5584862e+48
-1.5816146e+48
-1.9963548e+48
-1.488346e+48
-1.6904285e+48
-1.6790602e+48
-1.5233903e+48
-1.5319426e+48
-2.479688e+48
-4.9552752e+48
-1.3423395e+48
-2.0899898e+48
-1.3629835e+48
-2.6844431e+48
-2.2589801e+48
-1.4633638e+48
-1.5078618e+48
-1.568604e+48
-1.5187755e+48
-1.4767173e+48
-1.7059618e+48
-3.6631388e+48
-4.6766164e+48
-2.9012091e+48
-2.3188913e+48
-1.677241e+48
-2.1669153e+48
-2.2035337e+48
-1.4452435e+48
-1.4535212e+48
-1.4874253e+48
-1.5263329e+48
-1.6065715e+48
-1.4984321e+48
-1.7530487e+48
-3.6694204e+48
-1.3450672e+48
-2.2061376e+48
-5.8623398e+48
-2.2778161e+48
-1.7199434e+48
-1.6236973e+48
-3.8054724e+48
-2.9374484e+48
-1.7328021e+48
-4.2640286e+48
-2.9144269e+48
-2.1149928e+48
-3.0927713e+48
-3.2579442e+48
-1.8630649e+48
-1.7393206e+48
-1.6029129e+48
-1.6099311e+48
-1.4050383e+48
-1.3788528e+48
-1.4216912e+48
-1.4229249e+48
-1.3779957e+48
-1.3684987e+48
-1.3689183e+48
-1.373322e+48
-1.3740053e+48
-1.3697928e+48
-1.3496989e+48
-1.4172896e+48
-1.4277515e+48
-1.3782171e+48
-1.3524738e+48
-1.3421775e+48
-1.3434574e+48
-1.4293833e+48
-1.3866431e+48
-1.3545595e+48
-1.3297727e+48
-1.4286795e+48
-1.3594685e+48
-1.3909625e+48
-1.331754e+48
-1.3905973e+48
-1.361143e+48
-1.3304365e+48
-1.4230559e+48
-1.4214765e+48
-1.3601309e+48
-1.3320862e+48
-1.3893313e+48
-1.3593981e+48
-1.3297839e+48
-1.3576668e+48
-1.3274672e+48
-1.4599983e+48
-1.4678446e+48
-1.5136398e+48
-1.5133492e+48
-1.474253e+48
-1.4707439e+48
-1.5053547e+48
-1.5107847e+48
-1.471753e+48
-1.4602062e+48
-1.4898677e+48
-1.5064992e+48
-1.4741403e+48
-1.4711596e+48
-1.5183716e+48