/*--------------------------------*- C++ -*----------------------------------*\
  =========                 |
  \\      /  F ield         | OpenFOAM: The Open Source CFD Toolbox
   \\    /   O peration     | Website:  https://openfoam.org
    \\  /    A nd           | Version:  7
     \\/     M anipulation  |
\*---------------------------------------------------------------------------*/
FoamFile
{
    version     2.0;
    format      ascii;
    class       volVectorField;
    location    "4000";
    object      UMean;
}
// * * * * * * * * * * * * * * * * * * * * * * * * * * * * * * * * * * * * * //

dimensions      [0 1 -1 0 0 0 0];

internalField   nonuniform List<vector> 
33730
(
(-9.9667563e+22 1.1461402e+22 -2.0815861e+22)
(-1.0154827e+23 1.07546e+22 -2.1163806e+21)
(-1.3294826e+23 4.3380417e+21 -5.397815e+21)
(-1.0457336e+23 1.5636753e+22 -6.0384541e+21)
(-1.2801586e+23 2.9141932e+22 -3.974348e+22)
(-1.166237e+23 1.9676079e+22 -6.0519587e+22)
(-1.256896e+23 3.0289697e+22 -6.3495598e+22)
(-1.4387091e+23 1.0943768e+22 -5.6455986e+22)
(-9.0513841e+22 4.0388806e+21 -3.2676495e+21)
(-9.6638283e+22 -6.4400081e+21 -3.7475322e+21)
(-8.1071958e+22 -5.7189975e+21 -2.0455486e+22)
(-6.7547232e+22 1.0473851e+22 -1.8701108e+22)
(-7.0104712e+22 9.8983801e+21 3.4458714e+21)
(-1.3176484e+23 7.4326892e+21 2.7743304e+21)
(-1.2403351e+23 3.7235892e+22 4.892135e+21)
(-1.1106388e+23 3.0766286e+22 -1.0243705e+22)
(-8.344321e+22 2.3544053e+22 -1.8559667e+22)
(-8.7116297e+22 2.0557973e+22 6.24239e+21)
(-1.182309e+23 3.1530794e+22 -2.9589461e+22)
(-1.3149153e+23 6.2844342e+21 -3.4099464e+21)
(-9.0642162e+22 -3.8657067e+21 -8.1882648e+21)
(-9.496458e+22 1.262632e+21 -6.117899e+21)
(-9.2783965e+22 5.6025609e+20 -7.4146879e+21)
(-9.9342503e+22 -5.0136216e+21 -8.7190906e+21)
(-1.094728e+23 5.15848e+21 -7.494078e+21)
(-1.2817394e+23 2.4225498e+22 -2.1011432e+22)
(-9.9642068e+22 1.8814312e+22 -1.6491954e+21)
(-1.3367644e+23 2.26981e+22 -5.9769554e+22)
(-1.6710503e+23 2.9974633e+21 -4.7938414e+22)
(-1.3704815e+23 2.9418388e+22 -1.1803732e+22)
(-6.9247609e+22 2.9445874e+22 -2.1854558e+22)
(-5.5684205e+22 1.3452353e+22 -1.8266586e+22)
(-7.566103e+22 7.0500238e+21 -2.0926224e+21)
(2.0488944e+22 2.0732042e+22 -3.5078098e+22)
(3.3212815e+21 1.9210154e+21 -6.0721223e+22)
(-1.9129545e+23 2.066802e+22 -3.8860016e+22)
(-1.0984153e+23 1.7173098e+22 -5.5097919e+22)
(-1.5819319e+23 -2.4242624e+22 -4.488852e+22)
(-8.4164857e+22 3.7985821e+21 -5.325937e+22)
(-9.8696228e+22 -1.1752963e+21 -3.1865471e+21)
(-1.0460809e+23 -1.0856915e+22 -3.5905891e+21)
(-8.6324731e+22 -1.5799787e+22 -1.5454377e+22)
(-6.5722343e+22 4.5045528e+20 -1.9785676e+22)
(-8.1972736e+22 1.5855499e+22 6.2247568e+20)
(-1.2579485e+23 1.257029e+22 -9.6110458e+20)
(-1.5982538e+23 2.3908088e+21 1.2357107e+22)
(-7.8137385e+22 1.1019715e+22 1.8340608e+22)
(-1.2332987e+23 1.3917868e+22 1.5891335e+22)
(-6.014341e+22 2.7879255e+22 7.0214978e+21)
(-1.7991936e+23 1.1618283e+22 2.6258282e+22)
(-1.1884605e+23 8.8711131e+21 4.152414e+21)
(2.8866739e+22 7.3513917e+22 2.6872272e+22)
(-1.8481753e+23 4.7647035e+22 -3.706488e+22)
(-1.1298975e+23 9.2403561e+21 -4.8940958e+21)
(-4.4871001e+22 2.6340908e+22 -1.7127147e+22)
(-1.4351822e+23 3.5843179e+22 -1.92713e+22)
(-9.9896752e+22 1.3461859e+22 -1.5194869e+22)
(-1.3992005e+23 4.7304636e+22 -1.3968549e+22)
(-8.7062785e+22 1.5458403e+22 1.6059294e+22)
(-8.4653548e+22 5.8669116e+22 -5.4746512e+22)
(-1.2895261e+23 5.3655675e+21 -4.315556e+21)
(-9.5329077e+22 4.8616721e+21 -6.036005e+21)
(-8.8857616e+22 3.9773659e+21 -6.2880591e+21)
(-9.2295904e+22 7.0228615e+21 -6.2968467e+21)
(-1.0974693e+23 1.0791071e+22 -1.093111e+22)
(-9.0187347e+22 1.0955111e+21 -3.5816345e+21)
(-9.6904516e+22 5.5916945e+21 -3.4492073e+21)
(-9.5246867e+22 2.5733106e+21 -3.8241963e+21)
(-9.0775023e+22 -3.2231696e+21 -4.2735435e+21)
(-1.1087914e+23 1.6274015e+21 -5.3613713e+21)
(-1.6644446e+23 1.0631261e+22 -3.5536391e+22)
(-1.0765958e+23 1.9455888e+22 -3.9013602e+21)
(-1.0065391e+23 9.3929366e+21 -5.6555347e+21)
(-8.5141677e+22 1.2935962e+22 -4.79229e+22)
(-1.2204963e+23 -3.6428457e+21 -2.9826247e+22)
(-1.3276625e+23 8.8180185e+21 -3.9861237e+22)
(-9.4240113e+22 1.8736493e+22 -2.2151092e+22)
(-1.046499e+23 2.1760861e+22 -2.3113559e+22)
(-8.3021272e+22 4.5290725e+22 -1.3472788e+22)
(-1.0823323e+23 2.31442e+22 -4.4445731e+21)
(-1.1041957e+23 3.2317279e+22 -7.0756268e+22)
(-6.6687464e+22 3.7489859e+22 -8.0654706e+22)
(-1.3959749e+23 -1.8344298e+22 -6.6821087e+22)
(-8.5728572e+22 1.5046429e+22 -5.8689765e+22)
(-1.0163417e+23 4.6974292e+22 2.046868e+21)
(-7.3757481e+22 2.3526303e+22 -1.8546228e+22)
(-7.7836312e+22 4.5072381e+21 -2.1985505e+22)
(-1.0205726e+23 8.0801045e+21 -5.4819855e+21)
(-5.3097578e+21 -2.1752324e+22 -6.9915816e+21)
(5.1264225e+22 -1.9555043e+22 2.2633604e+22)
(-1.4980202e+23 2.0638743e+22 3.1604672e+21)
(-6.8184214e+22 5.778478e+21 -3.7688692e+22)
(-1.0466077e+23 -4.9725319e+21 -5.7095003e+22)
(-9.8072244e+22 2.1847907e+21 -4.67817e+22)
(-1.7201207e+23 -1.6740835e+22 1.1831789e+22)
(-8.8821955e+22 -7.7238931e+21 -6.5581731e+22)
(-9.4087783e+22 -2.9452723e+21 -3.2394409e+21)
(-1.0570863e+23 -8.3300534e+21 -9.5993468e+20)
(-7.7445834e+22 -1.5263273e+22 -1.1471712e+22)
(-5.9395956e+22 2.8363616e+21 -1.6120062e+22)
(-1.2229351e+23 1.4910989e+22 -1.6212411e+20)
(-8.7121323e+22 3.0969859e+22 -2.0904529e+20)
(-9.1941667e+22 1.2188502e+22 4.8128892e+18)
(-7.519884e+22 1.8083905e+22 9.7357838e+21)
(-8.3267118e+22 8.6143242e+21 1.1785572e+22)
(-9.9139255e+22 1.263057e+22 -1.3855383e+21)
(-1.3706596e+23 1.7998189e+22 1.1332894e+22)
(-6.7303951e+22 2.6087276e+22 1.4061661e+22)
(-1.2369743e+23 -1.0624105e+22 1.4442797e+22)
(-7.0097598e+22 -4.4547172e+21 2.3578452e+22)
(-1.1525013e+23 1.6595033e+22 3.4333937e+21)
(-9.9463796e+22 -1.5575456e+22 -2.6764502e+21)
(9.0769286e+22 2.0475633e+22 2.8461146e+22)
(-1.1809813e+23 3.8864677e+22 1.7994147e+22)
(-7.0010363e+22 3.7172658e+22 1.8490741e+22)
(-1.6052158e+23 3.2832243e+22 2.2204796e+22)
(-8.8365926e+22 5.2310948e+22 -4.4269505e+21)
(-1.4792228e+23 6.5412842e+22 2.2098142e+22)
(-1.0024844e+23 1.8374914e+22 1.7115041e+22)
(-2.2905718e+23 -2.0802604e+21 4.4500214e+22)
(-1.2496884e+23 6.9136842e+21 1.1210691e+22)
(-5.5771801e+22 -9.0769805e+21 3.0567202e+22)
(-1.4206134e+23 1.0591964e+22 -1.9860823e+22)
(-1.1771097e+23 2.2452541e+22 -9.5526977e+22)
(-4.5307452e+22 1.1564738e+22 -2.7999694e+22)
(-8.2170462e+22 4.509937e+22 2.6228974e+22)
(-4.7099946e+22 -4.4760406e+21 -3.6593994e+22)
(-7.8212756e+22 9.1527223e+21 -4.7967245e+21)
(-7.4926494e+22 9.794184e+22 8.1868107e+19)
(-1.6814531e+23 3.4530096e+22 2.8768392e+21)
(-8.0264007e+22 9.9585819e+21 2.1696922e+22)
(-1.4269111e+23 2.7279934e+22 2.4307614e+22)
(-9.2124223e+22 1.192274e+22 7.1617898e+21)
(-2.751267e+22 7.531437e+21 -1.1082754e+23)
(-1.4357034e+23 3.5379809e+21 -3.0594129e+21)
(-9.2980416e+22 4.3397686e+21 -8.1330462e+21)
(-9.1965831e+22 7.2988411e+21 -8.7907379e+21)
(-1.028275e+23 8.1323643e+21 -1.0414382e+22)
(-9.3498087e+22 1.2577061e+21 -7.5932231e+21)
(-9.7102806e+22 5.7510542e+21 -3.2970558e+21)
(-9.452892e+22 5.9419665e+21 -4.5852323e+21)
(-1.034875e+23 8.6997266e+21 -5.4236319e+21)
(-1.0457249e+23 1.0827555e+22 -4.7353993e+21)
(-1.076406e+23 4.315644e+21 -2.8639404e+21)
(-1.0378655e+23 6.050225e+21 -2.3217948e+21)
(-1.0048749e+23 3.2717905e+21 -1.568577e+21)
(-1.0523948e+23 3.2559941e+20 -1.7612254e+21)
(-8.0608053e+22 1.0798179e+22 2.8741002e+21)
(-1.309166e+23 6.830829e+20 -1.580699e+22)
(-1.1887958e+23 -3.3825399e+21 -1.4527253e+22)
(-1.0859247e+23 4.3559603e+21 -6.536505e+21)
(-1.1323275e+23 6.8667867e+21 -5.6890373e+21)
(-1.1713122e+23 1.01254e+22 -2.7858872e+22)
(-1.1196453e+23 1.1171612e+22 -2.2980919e+22)
(-1.0261001e+23 -1.5299668e+22 -1.9987362e+22)
(-7.3420664e+22 -3.6707146e+21 -3.434032e+22)
(-1.0920356e+23 3.1202908e+21 -2.3206448e+22)
(-1.191203e+23 2.4275271e+22 -3.5362854e+21)
(-1.1248928e+23 1.5705289e+22 -1.2940231e+21)
(-4.9563623e+22 8.5286293e+21 -5.4995706e+22)
(-1.4683587e+23 3.4807449e+22 -5.7624428e+22)
(-2.1161111e+22 -3.1573189e+22 -1.4450155e+21)
(-1.2649386e+23 2.6319103e+22 -1.5792055e+22)
(-1.6503239e+23 2.6934207e+22 -6.4428923e+22)
(-1.0351688e+23 2.0304441e+22 -1.4389297e+22)
(-1.1028626e+23 3.5202958e+22 -1.5197178e+22)
(-7.0076134e+22 3.0146901e+22 -1.8694994e+22)
(-9.5289269e+22 2.4408635e+22 -2.709243e+21)
(-5.3852603e+22 4.6090432e+22 -1.0588981e+23)
(5.9222336e+22 7.9950988e+22 -7.1086444e+22)
(-6.8714029e+22 1.8617579e+22 -8.2418e+22)
(-6.4687115e+22 1.869487e+22 -5.9343308e+22)
(-8.9274858e+22 3.5665136e+22 -4.6865969e+22)
(-7.9026464e+22 1.0269598e+22 -6.4613015e+22)
(-8.1388403e+22 5.8911566e+22 4.5954352e+22)
(-6.5746139e+22 2.0468318e+22 -1.7246995e+22)
(-6.4503884e+22 1.2028466e+22 -1.822196e+22)
(-9.7114961e+22 9.166831e+21 -5.179403e+21)
(-1.9916008e+22 -3.1688176e+22 -1.4578137e+22)
(3.3571654e+21 -7.5102299e+21 2.7013464e+22)
(-1.9794856e+23 3.3564799e+22 2.550124e+22)
(-4.2284329e+22 -1.881417e+22 1.849297e+22)
(-1.0278861e+23 5.0701529e+21 -5.6477331e+22)
(-8.2891063e+22 -1.3292283e+22 -5.8151648e+22)
(-2.3268604e+22 1.9557837e+22 -1.1882983e+22)
(-8.030117e+22 -4.0094708e+21 -6.9940242e+22)
(-1.7312705e+23 -3.2345087e+21 3.7956521e+22)
(-5.2556e+22 -7.6920368e+21 -5.9219841e+22)
(-9.0569152e+22 -2.3680766e+21 -3.6284258e+21)
(-1.0296481e+23 -7.5718282e+21 -1.9650939e+21)
(-7.8297989e+22 -1.5502745e+22 -1.0950458e+22)
(-5.9007773e+22 -6.2658009e+20 -1.5498899e+22)
(-5.8938264e+22 -2.4181744e+22 -5.0535476e+22)
(-1.2698816e+23 1.7829255e+22 5.0547424e+21)
(-9.4515375e+22 1.1709904e+22 2.5964111e+21)
(-8.660458e+22 8.5351523e+21 5.1418022e+21)
(-9.3270496e+22 1.0760932e+22 4.7602719e+21)
(-8.6511285e+22 9.9939992e+21 3.1677782e+21)
(-1.1234278e+23 1.3150891e+22 7.3165712e+21)
(-9.3592883e+22 1.4733773e+22 -1.2522513e+21)
(-9.9693891e+22 2.6850649e+22 3.0402263e+22)
(-7.8256621e+22 3.2675131e+22 2.658742e+21)
(-9.7062683e+22 1.8127891e+22 -4.5118497e+21)
(-1.0209901e+23 4.4389134e+22 3.237791e+22)
(-1.6725921e+23 3.4994049e+22 5.3062422e+21)
(-1.5286911e+23 1.8160534e+22 1.8480691e+22)
(-1.0984212e+23 4.0191047e+22 1.7223436e+22)
(-9.5493055e+22 1.7776341e+22 -3.0205586e+21)
(-6.3444778e+22 2.0197254e+22 1.9203647e+21)
(-7.6346102e+22 2.2937047e+22 3.5916446e+22)
(-8.2832576e+22 2.5696848e+21 8.1152165e+20)
(-1.5403752e+23 -1.3089563e+22 4.1179302e+22)
(-1.013526e+23 1.3485242e+22 -3.407077e+21)
(-6.8833812e+22 3.383377e+22 -1.2140273e+22)
(-3.1240631e+22 3.9793655e+22 -8.9786456e+21)
(-1.1273282e+23 -1.3718182e+22 -6.0182746e+21)
(-6.8205226e+22 -2.4940557e+22 5.8054468e+22)
(-1.2273813e+23 1.1576501e+22 8.0038071e+21)
(-1.3783612e+23 -4.1486533e+22 -2.0231193e+22)
(-3.3837067e+22 3.521454e+22 3.5258066e+22)
(9.4721128e+22 9.1864115e+22 5.2354811e+22)
(-1.0128141e+23 5.1160986e+22 -6.4895277e+20)
(-5.0848932e+22 4.9075076e+22 -1.1536632e+22)
(-5.2432512e+22 5.4075302e+22 -1.0867027e+22)
(-1.4791021e+23 4.0134562e+22 1.5056989e+22)
(-8.042677e+22 8.7348483e+22 1.9273071e+22)
(-2.0112004e+23 2.081473e+22 7.069218e+21)
(-9.4240713e+22 1.1003839e+22 1.261021e+22)
(-1.441593e+23 4.8291423e+20 4.6868014e+21)
(-1.8701567e+23 4.7156192e+22 1.773645e+22)
(-2.4233527e+23 -2.8758584e+22 -3.4984825e+21)
(-1.2592955e+23 7.641506e+21 1.4883146e+22)
(-6.3096552e+22 2.7293589e+21 4.9416329e+22)
(-1.523446e+23 1.967155e+22 -3.5027243e+22)
(-1.4447821e+23 2.8042471e+22 -7.2501889e+22)
(-7.0100448e+22 1.7326537e+21 -1.7051213e+22)
(-9.3536644e+22 4.7296554e+22 3.1272947e+22)
(-7.9666859e+21 2.3321869e+20 -6.3083451e+21)
(-4.8367684e+22 -1.9113896e+22 -5.0324255e+20)
(-9.0418182e+22 4.5543081e+22 1.2093876e+22)
(-3.1305899e+22 1.3103172e+23 8.4382949e+22)
(-7.5774513e+22 1.3591343e+22 1.7154792e+22)
(-1.4997204e+23 1.0113648e+22 3.5524152e+22)
(-1.4061585e+23 -2.0767197e+21 2.3584459e+22)
(-9.9055471e+22 -6.5420725e+21 1.93279e+22)
(-1.0868286e+23 1.0618919e+22 2.1778761e+22)
(-1.3704202e+23 -2.0676348e+22 6.6897988e+22)
(-3.9966745e+22 -2.1140478e+22 -2.6986408e+22)
(-4.0870737e+22 -4.5741373e+20 -7.0659867e+22)
(-1.4965007e+23 5.9863652e+21 8.4620615e+21)
(-1.3426829e+23 8.5583073e+21 1.4432703e+21)
(-1.0660323e+23 8.9072857e+19 -2.3906171e+21)
(-1.1617113e+23 1.8684e+21 -6.232332e+21)
(-1.0714365e+23 3.8762004e+21 -7.424958e+21)
(-9.7484834e+22 5.3921571e+21 -6.0891772e+21)
(-9.628571e+22 4.1557749e+21 -4.8608138e+21)
(-9.7482627e+22 1.0149192e+22 -4.7975015e+21)
(-9.8526261e+22 1.3931388e+22 -4.9553313e+21)
(-9.3879012e+22 4.4090008e+21 -4.4424178e+21)
(-9.9884759e+22 8.4358072e+21 -2.3079374e+21)
(-1.0234108e+23 6.7373037e+21 -2.1554807e+21)
(-1.0360614e+23 8.9806196e+21 -1.854847e+21)
(-1.0095585e+23 1.2990422e+22 -1.4971164e+21)
(-1.0996237e+23 4.8123396e+21 -2.1229338e+21)
(-1.0756162e+23 6.8955357e+21 -1.7853272e+21)
(-1.0751577e+23 4.1399144e+21 -1.5360639e+21)
(-1.1068473e+23 1.323008e+21 -1.8103565e+21)
(-1.0496825e+23 9.7951487e+21 3.7182386e+21)
(-9.7366053e+22 1.1436174e+22 -9.225498e+21)
(-1.2116912e+23 2.4880092e+21 -1.2222737e+22)
(-6.1949711e+22 1.1432446e+22 -1.0259656e+22)
(-8.0829331e+22 3.2219814e+20 -7.0837011e+21)
(-8.6616693e+22 8.4027226e+21 -2.1017749e+22)
(-8.6071657e+22 9.8425327e+21 -1.8492315e+22)
(-7.0549675e+22 6.4408498e+21 -3.4953885e+22)
(-8.7388883e+22 5.172221e+21 -4.3178454e+22)
(-1.3313249e+23 1.1053317e+22 -7.3282647e+21)
(-1.2405266e+23 -1.6511689e+22 -3.9407251e+21)
(-1.0980401e+23 1.4072904e+22 -2.2594039e+21)
(-1.0122682e+23 8.6599857e+21 -1.1069411e+21)
(-9.1196581e+22 6.5067887e+21 -1.543438e+22)
(-1.2082496e+23 1.1874975e+22 -6.9885826e+22)
(-1.0780827e+23 1.8006658e+22 -1.5329159e+22)
(-1.3646389e+23 1.8927021e+22 -7.6966229e+22)
(-6.9271785e+22 1.5294902e+22 -3.4262229e+22)
(-4.154921e+22 1.9476785e+22 -3.6421207e+22)
(-2.5474666e+23 -1.6166247e+22 3.1154688e+22)
(-1.1341902e+23 2.1473225e+22 -2.423254e+20)
(-1.0420671e+23 8.1380738e+21 -5.5731765e+20)
(-1.1847156e+23 1.9715743e+22 -7.8354072e+22)
(1.6993153e+22 -3.3808744e+22 -5.7670724e+22)
(-1.5729827e+23 3.1334788e+22 -8.0426038e+22)
(-1.8664063e+22 -8.125794e+21 6.9648025e+22)
(-1.3465175e+23 -3.1147116e+22 -1.5746905e+21)
(-1.4114338e+23 4.7295614e+22 -5.3997006e+22)
(-1.6376909e+23 4.6743348e+22 -7.4918283e+22)
(-8.2612137e+22 1.7273088e+22 -1.1529995e+22)
(-9.4823779e+22 2.9496347e+22 -1.3224082e+22)
(-9.4024335e+22 2.297532e+22 -9.0667378e+21)
(-9.6773775e+22 2.5971353e+22 -3.2897408e+21)
(-5.8821675e+21 1.2150524e+22 -4.4482016e+22)
(-6.1773442e+22 4.2254437e+22 -8.8138502e+22)
(1.9864295e+22 5.4313903e+22 -1.9230609e+22)
(-8.4592818e+22 1.0260102e+22 -7.4873711e+22)
(-7.2093912e+22 2.8181803e+21 -5.2481481e+22)
(-3.2041057e+22 4.4490318e+22 -3.741147e+22)
(-9.3916279e+22 3.6103486e+22 -2.9570149e+22)
(-8.8984676e+22 1.0398778e+22 -6.4138254e+22)
(-9.5419984e+22 4.8556569e+22 5.2036634e+22)
(-6.8086162e+22 1.7381735e+22 -1.4915076e+22)
(-6.4758806e+22 1.0116148e+22 -1.770426e+22)
(-9.2633943e+22 8.0916497e+21 -5.1497357e+21)
(-5.4466987e+22 1.4597204e+22 2.675126e+22)
(-5.0387074e+22 1.6932598e+22 3.7927796e+22)
(-1.8082798e+23 -1.6440371e+22 -6.4951977e+22)
(-8.9323723e+22 -2.0038411e+22 -5.4352398e+22)
(-2.7022851e+22 1.7336649e+22 -2.5511494e+22)
(-8.0986969e+22 3.4249344e+22 -1.9837794e+22)
(-1.6415742e+23 -1.539271e+20 -5.6765564e+22)
(-5.7288072e+22 -8.1981029e+21 -5.3121203e+22)
(-7.4083437e+22 -1.6365486e+22 -6.6355691e+22)
(-2.9862527e+22 -2.8075573e+22 8.713476e+20)
(-4.4993049e+22 2.059956e+22 -4.3657888e+22)
(-1.1410389e+23 9.966524e+21 -4.9569668e+21)
(-1.3586137e+23 9.6225601e+21 4.680606e+20)
(-8.9593301e+22 9.5850475e+21 1.6233525e+21)
(-8.7211627e+22 1.1877187e+22 1.1446806e+21)
(-9.9695827e+22 8.9385878e+21 7.0047252e+21)
(-9.3260173e+22 4.9917252e+21 4.3018196e+21)
(-9.8743742e+22 1.4343776e+22 4.6982341e+20)
(-9.1227097e+22 1.0263641e+22 2.1705861e+21)
(-9.2329419e+22 1.2756491e+22 2.0749602e+20)
(-9.1556038e+22 1.1556841e+22 2.679178e+21)
(-9.671753e+22 2.146852e+21 9.3541971e+21)
(-1.2741059e+23 -2.1888676e+21 -5.1950841e+20)
(-1.2615596e+23 8.6564459e+21 2.4532144e+22)
(-1.1032736e+23 1.6814185e+22 1.5496695e+22)
(-1.1244898e+23 9.8031522e+21 -6.2240068e+21)
(-1.7341917e+23 -2.9653903e+21 3.2818437e+22)
(-1.7652522e+23 -5.0765506e+21 4.2659088e+22)
(-1.8042748e+23 2.924917e+20 1.8319432e+22)
(-1.9242402e+23 -7.447187e+20 -1.743902e+22)
(-9.2191242e+22 2.1108543e+22 -5.1060512e+21)
(-7.8289206e+22 2.7432469e+22 1.9584743e+22)
(-1.3217319e+23 2.5616489e+21 5.5670317e+22)
(-8.0784915e+22 3.1462551e+22 1.1051148e+22)
(-1.1762128e+23 4.2678226e+22 3.9457177e+22)
(-1.015207e+23 2.1184697e+22 -5.6592664e+20)
(-8.6414161e+22 7.25362e+22 4.5192792e+22)
(-1.6247185e+23 6.9824354e+22 8.0077987e+21)
(-1.1576248e+23 6.1018732e+22 -6.8018042e+21)
(-2.2669262e+22 9.9689791e+22 -9.2204951e+21)
(-9.6609821e+22 2.1193241e+22 -6.1880034e+20)
(-7.9041811e+22 1.3615715e+22 4.0338105e+22)
(-5.4300455e+22 2.526348e+22 6.6178296e+21)
(-1.4234565e+22 -2.7773285e+21 4.5131124e+22)
(-7.6667966e+22 9.6528438e+21 8.5905356e+21)
(-9.0053569e+22 -2.7265057e+22 4.1638233e+22)
(-1.13111e+23 -3.6993515e+22 4.6587146e+22)
(-1.0476415e+23 2.0044212e+22 -3.4378344e+20)
(-6.0104339e+22 2.743294e+22 -3.124664e+22)
(5.5417344e+22 5.0870536e+22 -8.0976583e+22)
(-4.4552913e+22 1.077052e+22 -6.3240491e+22)
(2.6605854e+22 -2.72105e+22 6.0373845e+22)
(-1.2476429e+23 8.5836381e+21 9.032287e+21)
(-1.4399583e+23 -1.3470285e+22 -3.3339154e+22)
(-1.7630435e+22 -4.9222521e+22 5.6801564e+22)
(8.7088555e+22 7.2154464e+22 2.8289958e+22)
(-1.4247209e+23 8.6115982e+21 -4.8601806e+22)
(-9.2066597e+22 5.1778552e+22 6.6996839e+21)
(-8.231844e+22 4.9196407e+22 6.1212889e+21)
(2.2293673e+22 7.104256e+21 -7.1745818e+22)
(-2.9917331e+23 5.9455308e+22 3.9930065e+22)
(-6.4353623e+22 2.7066008e+22 -1.2365539e+22)
(-8.3633896e+22 9.879238e+21 1.4407217e+22)
(-1.4319248e+23 -8.4954533e+21 5.5530776e+22)
(-1.8480529e+23 7.5230409e+21 1.0082719e+22)
(-2.14905e+23 1.60767e+22 1.6738828e+22)
(-1.0883425e+23 3.1370144e+21 1.0692377e+22)
(-8.7942186e+22 -3.4885327e+22 -1.621983e+22)
(-1.5643239e+23 6.2693523e+22 3.7325205e+22)
(-2.6601985e+23 -2.072105e+22 -6.6172199e+21)
(-1.3411182e+23 9.5607543e+21 1.3758278e+22)
(-1.9299448e+23 1.4089262e+22 -2.4717924e+22)
(-5.6313289e+22 7.1363933e+21 -3.8511934e+22)
(-5.2518602e+22 8.0959577e+21 3.2391437e+22)
(-5.458426e+22 -1.600992e+22 1.7155338e+22)
(-2.8597315e+23 2.4932099e+22 1.5123873e+21)
(-5.8777929e+22 1.0532408e+23 7.9959718e+22)
(-7.9095296e+22 2.3079239e+21 1.1399397e+22)
(-1.3257722e+23 1.2398274e+22 1.7058524e+22)
(-1.5527765e+23 1.6528723e+22 5.9593162e+21)
(-1.4282195e+23 1.1895603e+22 2.6123328e+22)
(-1.3397232e+23 2.003903e+21 1.0710276e+22)
(-5.855941e+22 -2.3709777e+21 8.9162345e+22)
(-9.8852377e+22 -3.9149395e+22 4.8198398e+22)
(-5.0144155e+22 -3.6925004e+22 2.6088272e+22)
(-8.0496712e+22 -5.2694242e+21 1.5144553e+22)
(-5.9390112e+22 -4.7089719e+22 7.4576939e+22)
(2.1216812e+22 -4.5391938e+22 -9.71555e+22)
(-1.4526274e+23 3.6110747e+21 7.8873516e+21)
(-1.044924e+23 4.2605729e+21 2.1603556e+21)
(-1.021637e+23 6.6244592e+21 2.421889e+21)
(-9.2975873e+22 5.5036343e+21 -2.6771092e+21)
(-9.8239669e+22 2.1867848e+21 -2.5021411e+21)
(-1.3428685e+23 8.7431458e+21 -2.0664187e+20)
(-9.1912876e+22 9.9591885e+21 -6.469124e+21)
(-8.7995517e+22 1.0663169e+22 -1.3060367e+22)
(-8.4920208e+22 6.7835108e+21 -1.5085895e+22)
(-9.056929e+22 3.8795803e+21 -7.4343102e+21)
(-1.0124583e+23 3.5281946e+21 -1.7168628e+21)
(-1.01738e+23 5.0502717e+21 -1.2362971e+21)
(-1.0416137e+23 1.1707187e+22 -3.6272097e+21)
(-1.03064e+23 8.0828871e+21 -2.8762452e+21)
(-1.0494697e+23 3.7151169e+21 -2.9649662e+21)
(-1.1142643e+23 4.1507123e+21 -2.0883986e+21)
(-1.1263395e+23 9.3708983e+21 -1.5732711e+21)
(-1.0695579e+23 5.7107242e+21 -2.6192766e+21)
(-1.0662619e+23 7.9318541e+21 -1.9000987e+21)
(-1.0660642e+23 7.478896e+21 -1.7214499e+21)
(-1.0550304e+23 9.1291153e+21 -1.5572858e+21)
(-1.0893948e+23 1.3194911e+22 -1.5340937e+21)
(-9.5966258e+22 1.0572431e+22 7.925341e+20)
(-1.177286e+23 -7.0628719e+21 -1.7153471e+22)
(-1.608357e+23 2.8590566e+22 2.4960846e+21)
(-8.9003867e+22 5.7681734e+21 -8.4488781e+21)
(-9.5291685e+22 7.7867183e+21 2.0102967e+21)
(-1.4178343e+23 1.8264114e+22 -1.9489764e+22)
(-1.097201e+23 1.060518e+22 -3.0548212e+22)
(-5.9727214e+22 1.1548631e+22 -1.5451934e+22)
(-8.1832751e+22 -1.5408743e+22 -1.9859807e+22)
(4.3410976e+21 1.997692e+22 -2.6510139e+22)
(-1.079977e+23 1.7048391e+22 -2.9458428e+22)
(6.7186002e+22 3.4361067e+22 -1.5561016e+22)
(-9.2144584e+22 8.0347041e+21 -7.7052265e+22)
(-1.6771722e+23 -2.9966889e+22 -1.0832979e+22)
(-8.697696e+22 1.8082441e+21 -4.6089006e+22)
(-9.4795887e+22 8.7026212e+21 -1.1568884e+22)
(-9.7005967e+22 8.2387667e+21 -1.2136362e+22)
(-1.1429728e+23 -7.9545114e+21 -3.1325301e+22)
(-9.3818455e+22 -3.9309573e+21 -3.5725153e+22)
(-1.1919923e+23 1.5194007e+22 5.4476354e+22)
(-8.0665713e+22 1.3166459e+22 2.9546142e+22)
(-1.1154745e+23 1.4470571e+22 -2.869286e+21)
(-1.062429e+23 8.3961072e+21 -6.3158258e+21)
(-1.0779445e+23 5.1565167e+21 -7.1624732e+22)
(-1.0324252e+23 1.1159931e+22 -2.3237318e+22)
(-1.9585803e+23 2.5508634e+22 -5.8403523e+22)
(-1.5437753e+23 3.9613042e+22 -7.1262187e+22)
(-9.8933646e+22 1.6481212e+22 -1.1253867e+22)
(-1.0413911e+23 1.7950196e+22 -8.7066852e+22)
(-7.7897401e+22 3.0436785e+22 -6.642829e+22)
(5.4007217e+22 4.8422524e+22 -4.6039183e+22)
(-2.6022582e+23 -1.5772939e+22 3.3813816e+22)
(-1.1547623e+23 2.1947026e+22 -1.0899051e+21)
(-1.0950133e+23 7.5097963e+21 -9.7795776e+20)
(-9.4530622e+22 2.8988415e+22 -1.0468702e+23)
(-9.3693208e+22 2.2227413e+22 -5.7674189e+22)
(2.5042693e+22 -2.4683358e+22 -4.0699687e+22)
(-1.3784713e+23 3.6257404e+22 -5.8423636e+22)
(-2.8920845e+22 -6.1524445e+21 7.6160523e+22)
(-1.539979e+23 -2.6063124e+22 -3.1984845e+21)
(-1.8397747e+23 4.9385211e+22 -3.970986e+22)
(-1.1506213e+23 5.9090254e+22 -4.1532224e+22)
(-1.6014051e+23 4.1595038e+22 -5.6806304e+22)
(-9.0082164e+22 2.1092931e+22 -8.9072994e+21)
(-9.9535916e+22 3.1594506e+22 -1.0386614e+22)
(-2.5646148e+22 6.4830661e+22 -1.9571768e+22)
(-6.9707349e+22 5.5202406e+22 -4.0017978e+22)
(-1.8377367e+23 1.5519573e+22 -5.2927204e+22)
(-9.5284477e+22 5.6733756e+21 -6.6646083e+22)
(-1.6885639e+23 -4.4411752e+21 -4.6802577e+22)
(-4.0560034e+22 2.6946963e+22 -1.5036617e+21)
(-6.2875607e+22 4.0535442e+22 -1.7665125e+22)
(-1.1162351e+23 5.6222628e+21 -5.9337782e+22)
(-5.7785675e+22 6.0311357e+21 3.4996335e+22)
(-8.472629e+22 1.7640678e+21 -1.7868569e+22)
(-1.5709924e+23 -2.2358825e+22 -7.5365659e+22)
(-8.7274035e+22 1.4494595e+22 -1.2609219e+22)
(-4.8842121e+22 2.0322168e+22 -1.6678713e+22)
(-1.1955777e+23 -7.1095635e+21 -6.2679386e+22)
(-8.3942855e+22 1.9839681e+22 -5.4261286e+22)
(-8.0526583e+21 4.7646024e+21 2.0651727e+21)
(-3.9310606e+22 1.3123035e+22 -1.6956858e+22)
(-1.2161998e+23 1.0177629e+22 -4.5278548e+21)
(-8.9869595e+22 5.6725679e+21 -1.1872193e+20)
(-1.0140809e+23 6.1994804e+21 -2.6951182e+21)
(-8.6185773e+22 5.9020674e+21 3.8667587e+19)
(-1.0044886e+23 8.6941414e+21 -3.5113887e+21)
(-1.4217752e+23 6.9504527e+21 4.4745691e+21)
(-9.656442e+22 3.0404992e+21 -8.1489123e+18)
(-1.24108e+23 3.5183487e+21 1.0331863e+22)
(-1.0231809e+23 1.1691657e+22 1.0326419e+21)
(-9.0029847e+22 1.0094981e+22 -9.5256912e+20)
(-9.6595331e+22 1.1835816e+22 2.4270041e+21)
(-8.8365253e+22 1.2462781e+22 -3.2455114e+20)
(-9.6618631e+22 1.2210881e+22 2.4278041e+21)
(-9.3922092e+22 9.5563231e+21 2.4215071e+21)
(-1.080611e+23 1.9209317e+22 5.9863815e+20)
(-1.1103314e+23 1.5109334e+22 1.708437e+21)
(-1.091051e+23 1.6359458e+22 4.6678591e+20)
(-1.092489e+23 1.6252017e+22 1.4511588e+21)
(-9.6193536e+22 1.2803285e+22 9.5839856e+21)
(-8.668227e+22 -4.2960296e+21 -1.3268917e+21)
(-9.6703532e+22 -1.262493e+22 3.0917135e+22)
(-8.2561193e+22 -7.0576977e+21 2.2339372e+22)
(-8.5458622e+22 -9.5798041e+19 -4.1028114e+21)
(-1.9163726e+23 -2.072276e+22 3.5262108e+22)
(-1.1940151e+23 -1.6767695e+22 2.1462041e+21)
(-1.5290068e+23 2.3726289e+22 2.1596123e+22)
(-1.3764754e+23 -1.0350177e+22 3.2419187e+22)
(-1.2295148e+23 4.547991e+21 -5.595951e+20)
(-8.9493211e+22 3.2447567e+20 1.8819737e+22)
(-2.0294178e+23 4.2525437e+21 6.2900401e+22)
(-7.2693433e+22 1.4865076e+22 1.4803029e+22)
(-1.5418585e+23 1.3684584e+22 4.9685794e+22)
(-9.6844424e+22 1.0579677e+22 -8.4518251e+21)
(-8.2580228e+22 -7.1056173e+21 3.0898487e+22)
(-1.0016626e+23 -1.2450643e+21 3.4399291e+22)
(-5.6326184e+22 -2.7572154e+22 3.783726e+22)
(-9.114058e+22 -8.8447975e+21 -3.0902353e+22)
(-1.0403527e+23 2.1763389e+22 1.5503821e+21)
(-1.5674157e+23 1.315557e+22 7.9326382e+22)
(-6.1715526e+22 2.8181237e+22 1.1546808e+22)
(-6.778557e+22 1.2003389e+22 5.5601132e+22)
(-6.2492885e+22 3.4975679e+22 7.8106627e+21)
(-1.0323513e+23 3.0373673e+22 7.6573185e+22)
(-1.7349548e+23 2.9336269e+22 7.4331255e+22)
(-1.0792902e+23 2.2768061e+22 -6.0662142e+20)
(-2.9757424e+22 7.1709913e+22 2.9677888e+22)
(-2.5733171e+23 8.4619514e+22 1.0261622e+22)
(-1.0384707e+23 9.6427011e+22 -3.4179323e+22)
(-1.536471e+22 9.1947738e+22 -6.9960614e+22)
(-9.3047359e+22 2.2696476e+22 7.4935786e+20)
(-8.1088548e+22 2.309061e+22 5.2646752e+22)
(-2.5505727e+22 -2.3551975e+21 4.8334138e+22)
(-5.9343709e+22 2.0198948e+22 7.0332912e+21)
(5.997457e+22 -3.8257374e+22 1.0283626e+23)
(-7.2271472e+22 7.6587047e+21 8.3178716e+21)
(-8.584465e+22 -1.2816983e+22 5.7271384e+22)
(-1.9039525e+22 -5.8637826e+22 2.8813955e+22)
(-1.564776e+23 -1.5751898e+22 5.5288715e+22)
(-9.7773554e+22 1.9429844e+22 5.1224626e+20)
(-8.9945673e+22 2.255912e+22 -6.2087913e+22)
(4.8667482e+22 4.4623556e+22 -9.7042369e+22)
(-4.8913858e+22 -2.0662536e+21 -6.2627324e+22)
(1.6668553e+22 -2.7891457e+22 8.14702e+22)
(-1.2791481e+23 7.4221258e+21 7.653902e+21)
(-4.4815912e+22 -6.0800208e+22 6.3250642e+22)
(-1.8302525e+23 -1.4537684e+21 -1.3793555e+22)
(-8.3642608e+22 -1.7309523e+21 -1.7779181e+22)
(-3.6128226e+22 5.8254712e+21 -6.5812376e+22)
(-3.5934086e+23 6.9852391e+22 3.9004171e+22)
(-5.8977172e+22 1.5495072e+22 -5.2597425e+21)
(-6.8316877e+22 6.9293602e+21 1.4220526e+22)
(-1.397812e+23 3.1824792e+21 -1.2404903e+22)
(-1.5938954e+23 5.4357649e+19 6.6229966e+21)
(-1.3545442e+23 3.9428504e+21 3.6887862e+22)
(-1.7728771e+23 3.4717731e+21 1.9317503e+22)
(-7.5724331e+22 -6.0560035e+22 7.2967729e+22)
(-9.475221e+22 -2.6981576e+22 1.3880296e+22)
(-1.9111701e+23 4.3037587e+21 2.7701342e+22)
(-4.668687e+22 -2.9254783e+22 -1.3450472e+22)
(-1.4718561e+23 -4.4827355e+22 2.6145683e+22)
(-2.2674411e+23 5.414513e+22 2.3224247e+22)
(-1.3499145e+23 4.4791508e+21 1.0067356e+22)
(-5.78271e+22 -6.0931983e+21 6.0445572e+22)
(-3.1542844e+23 7.3339907e+21 2.0393677e+22)
(-6.9388836e+22 1.5376179e+22 7.0207909e+21)
(-1.9049831e+23 1.5611395e+22 2.1157761e+21)
(-2.1056134e+23 -1.3076088e+22 -2.8073366e+21)
(-1.1979058e+23 1.3796924e+22 -6.1662155e+21)
(-1.3431617e+23 6.4887304e+21 -1.1944297e+22)
(-4.2923584e+22 2.2479988e+22 3.0296932e+22)
(-2.5572758e+23 3.267564e+22 3.5015025e+21)
(-4.1204776e+22 4.4416883e+22 3.8427116e+22)
(2.3534977e+23 -2.5431338e+22 1.1000685e+22)
(-1.4345965e+23 3.7776976e+21 1.1430316e+23)
(-1.4973984e+23 -2.97308e+22 2.7582081e+22)
(3.2238994e+22 -2.1809633e+22 2.4213919e+22)
(-6.979873e+22 3.7581521e+22 6.1930876e+21)
(-5.9942976e+22 -4.1619664e+22 4.6984007e+22)
(9.214059e+21 -4.4072141e+22 -6.4467216e+22)
(-1.5844182e+23 3.3170892e+21 1.1034929e+22)
(-1.4092186e+23 5.2507403e+21 6.8377761e+21)
(-1.0313783e+23 4.7178842e+21 1.5849955e+21)
(-1.0271665e+23 4.3893778e+21 8.0587112e+20)
(-9.8343107e+22 2.0530725e+21 -2.5251169e+21)
(-9.2676968e+22 7.0766163e+21 -2.0108182e+21)
(-9.9530975e+22 6.2425415e+21 2.3425737e+20)
(-1.0091259e+23 7.9990857e+21 -4.7427651e+19)
(-9.961384e+22 8.4370984e+21 -2.445048e+21)
(-1.0266094e+23 4.5968798e+21 -5.2706727e+20)
(-1.3912462e+23 8.4992038e+21 -2.3306995e+21)
(-8.8138131e+22 1.2688792e+22 -5.3584727e+21)
(-9.6870934e+22 1.2726406e+22 -6.360341e+21)
(-9.3549147e+22 1.1723099e+22 -9.62602e+21)
(-9.1426556e+22 1.1673546e+22 -4.6458292e+21)
(-9.5582334e+22 1.2068847e+22 -5.4616866e+21)
(-8.9451002e+22 1.3562959e+22 -8.6435771e+21)
(-9.2608125e+22 1.071463e+22 -1.0433256e+22)
(-9.0291895e+22 7.3585443e+21 -7.2223098e+21)
(-9.9587502e+22 1.8798196e+21 -2.4783443e+21)
(-1.0766925e+23 2.8653979e+21 -3.3445686e+21)
(-1.1042483e+23 6.4601701e+21 -2.7493273e+21)
(-1.011105e+23 4.155748e+21 -2.567744e+21)
(-1.1196258e+23 4.4936638e+21 -2.0690466e+21)
(-1.1727126e+23 3.2014375e+21 -1.8137224e+21)
(-1.1591695e+23 8.7835554e+21 -1.661757e+21)
(-1.1058439e+23 5.3759551e+21 -2.1382583e+21)
(-1.1806264e+23 1.1094729e+22 7.1916607e+21)
(-1.8502049e+23 -9.6995933e+20 -1.8013536e+22)
(-8.6074757e+22 1.0133062e+22 1.920846e+21)
(-9.0690303e+22 1.277975e+22 2.8969719e+21)
(-1.0833244e+23 -6.4566219e+21 -1.9522607e+22)
(-1.1895357e+23 -1.3034498e+22 -2.0140455e+22)
(-2.1278127e+23 6.0446259e+21 -2.9293213e+22)
(-4.8395319e+22 1.6556485e+22 -7.8840789e+21)
(-6.0493526e+22 1.370122e+22 -1.2840419e+21)
(-1.2235404e+23 -3.4320234e+22 -8.41176e+21)
(-8.0787724e+22 -1.6862058e+22 -2.4772831e+22)
(-1.1625967e+23 2.1173646e+22 2.9822161e+22)
(-1.0533991e+23 1.3636816e+22 -6.9709383e+21)
(-1.1142272e+23 2.0950511e+22 -4.6069416e+21)
(-1.4070063e+23 4.617281e+22 -4.3504101e+22)
(-1.8477447e+23 3.1578498e+22 -3.7775996e+22)
(-4.7737726e+22 2.665736e+22 -3.4109386e+22)
(-9.2932657e+22 2.295073e+22 -1.4367656e+22)
(-1.0495979e+23 -4.437226e+21 -1.8921998e+22)
(-4.8593498e+21 3.2412505e+22 -3.8276631e+22)
(-7.3414387e+22 4.4199822e+22 -1.5985129e+22)
(-3.3421487e+22 1.4023839e+21 -7.7867269e+22)
(1.8486706e+22 2.3331888e+22 -3.6554681e+22)
(-1.2666337e+23 -1.6191386e+22 -1.0519061e+23)
(-1.3981577e+23 -3.166037e+22 -5.7634087e+21)
(-6.6007209e+22 -3.4098031e+22 -3.8354732e+22)
(-1.2938023e+23 -3.2018927e+22 -6.7146041e+22)
(-9.0003986e+22 6.8108239e+21 -1.1739636e+22)
(-1.0110026e+23 8.3093359e+21 -4.967861e+21)
(-8.3768099e+22 -4.9749088e+20 -2.4346269e+22)
(-7.2426651e+22 -2.6040416e+21 -3.2763835e+22)
(-1.2820743e+23 1.5053563e+22 3.6294283e+22)
(-9.5419374e+22 1.6800231e+22 4.1860224e+22)
(-1.0909393e+23 1.1178268e+22 -2.5241472e+21)
(-1.0777053e+23 7.7153124e+21 -5.9928634e+21)