/*--------------------------------*- C++ -*----------------------------------*\
  =========                 |
  \\      /  F ield         | OpenFOAM: The Open Source CFD Toolbox
   \\    /   O peration     | Website:  https://openfoam.org
    \\  /    A nd           | Version:  7
     \\/     M anipulation  |
\*---------------------------------------------------------------------------*/
FoamFile
{
    version     2.0;
    format      ascii;
    class       volScalarField;
    location    "9000";
    object      pMean;
}
// * * * * * * * * * * * * * * * * * * * * * * * * * * * * * * * * * * * * * //

dimensions      [0 2 -2 0 0 0 0];

internalField   nonuniform List<scalar> 
33730
(
-1.2602103e+103
-1.2602463e+103
-1.2672665e+103
-1.2658198e+103
-1.2899712e+103
-1.2910275e+103
-1.2572947e+103
-1.2586352e+103
-1.2495994e+103
-1.1990895e+103
-1.2257879e+103
-1.2492373e+103
-1.2833008e+103
-1.240468e+103
-1.2580509e+103
-1.2658866e+103
-1.2567412e+103
-1.2650486e+103
-1.2858198e+103
-1.2820628e+103
-1.2872569e+103
-1.2829152e+103
-1.2787044e+103
-1.2777401e+103
-1.2821943e+103
-1.2982221e+103
-1.2954827e+103
-1.2961949e+103
-1.2996063e+103
-1.2687783e+103
-1.2737679e+103
-1.2681576e+103
-1.2735695e+103
-1.2174632e+103
-1.1839425e+103
-1.1907759e+103
-1.2091398e+103
-1.1976384e+103
-1.2195977e+103
-1.2002715e+103
-1.2158446e+103
-1.1609827e+103
-1.2400842e+103
-1.2358354e+103
-1.2573012e+103
-1.1246199e+103
-1.1283995e+103
-1.2775682e+103
-1.2722012e+103
-1.2959869e+103
-1.2991333e+103
-1.262013e+103
-1.267338e+103
-1.2632423e+103
-1.25853e+103
-1.2642875e+103
-1.2682564e+103
-1.268973e+103
-1.2738654e+103
-1.2784161e+103
-1.273335e+103
-1.260867e+103
-1.2643799e+103
-1.2696675e+103
-1.2650862e+103
-1.2703962e+103
-1.2742824e+103
-1.2796279e+103
-1.2753423e+103
-1.2835739e+103
-1.2848176e+103
-1.2872632e+103
-1.2923263e+103
-1.2901093e+103
-1.2871489e+103
-1.2891303e+103
-1.2893789e+103
-1.2917139e+103
-1.2905781e+103
-1.2893319e+103
-1.2916894e+103
-1.2924225e+103
-1.2842319e+103
-1.2868448e+103
-1.2847942e+103
-1.2880708e+103
-1.3020289e+103
-1.3030964e+103
-1.303225e+103
-1.3037778e+103
-1.2989933e+103
-1.3005628e+103
-1.2997828e+103
-1.301834e+103
-1.2729883e+103
-1.2759211e+103
-1.2738243e+103
-1.2773701e+103
-1.2787976e+103
-1.2799286e+103
-1.2809449e+103
-1.2816255e+103
-1.2019046e+103
-1.210733e+103
-1.1819914e+103
-1.1634986e+103
-1.2480896e+103
-1.2522914e+103
-1.2313379e+103
-1.2278389e+103
-1.2003396e+103
-1.1835094e+103
-1.1870741e+103
-1.2041478e+103
-1.2079715e+103
-1.189569e+103
-1.1925273e+103
-1.1545982e+103
-1.2115374e+103
-1.1191583e+103
-1.2385228e+103
-1.2189095e+103
-1.2229317e+103
-1.2434497e+103
-1.1972833e+103
-1.1955573e+103
-1.2038343e+103
-1.1753808e+103
-1.2057156e+103
-1.2210002e+103
-1.2194228e+103
-1.2306019e+103
-1.2289071e+103
-1.2002143e+103
-1.1988132e+103
-1.208862e+103
-1.2073632e+103
-1.1786612e+103
-1.2174096e+103
-1.2155216e+103
-1.2249653e+103
-1.2270285e+103
-1.1611629e+103
-1.1576183e+103
-1.2441594e+103
-1.2566328e+103
-1.2460399e+103
-1.2520366e+103
-1.2421104e+103
-1.2400738e+103
-1.2545464e+103
-1.2706363e+103
-1.2827863e+103
-1.2680273e+103
-1.2796369e+103
-1.2729501e+103
-1.0759959e+103
-1.095035e+103
-1.1280561e+103
-1.1461141e+103
-1.1498274e+103
-1.130186e+103
-1.1328908e+103
-1.1513055e+103
-1.2928579e+103
-1.2904943e+103
-1.2877075e+103
-1.2845943e+103
-1.3010628e+103
-1.3028702e+103
-1.3043369e+103
-1.3052716e+103
-1.2739967e+103
-1.2770828e+103
-1.2798395e+103
-1.2821102e+103
-1.2394779e+103
-1.2497898e+103
-1.2589327e+103
-1.253859e+103
-1.2628575e+103
-1.2674719e+103
-1.2648601e+103
-1.2731966e+103
-1.2777127e+103
-1.2690955e+103
-1.2635692e+103
-1.2660281e+103
-1.2708037e+103
-1.2685343e+103
-1.2734964e+103
-1.268764e+103
-1.2708376e+103
-1.2758462e+103
-1.2705743e+103
-1.2726734e+103
-1.272702e+103
-1.2748292e+103
-1.2653619e+103
-1.2672887e+103
-1.2672126e+103
-1.2695292e+103
-1.2743594e+103
-1.2766795e+103
-1.2814813e+103
-1.2792914e+103
-1.2810725e+103
-1.2789477e+103
-1.2838551e+103
-1.2863925e+103
-1.2832138e+103
-1.2832893e+103
-1.2856303e+103
-1.2810352e+103
-1.2763846e+103
-1.2783062e+103
-1.2783526e+103
-1.2806324e+103
-1.2809963e+103
-1.2927622e+103
-1.2900715e+103
-1.2987315e+103
-1.2962131e+103
-1.2916524e+103
-1.2928267e+103
-1.2929271e+103
-1.2939025e+103
-1.2942569e+103
-1.2954039e+103
-1.2953835e+103
-1.2965232e+103
-1.2937566e+103
-1.2951604e+103
-1.2950965e+103
-1.296881e+103
-1.2964805e+103
-1.2977884e+103
-1.2983605e+103
-1.2996247e+103
-1.2943099e+103
-1.2936549e+103
-1.2951926e+103
-1.296194e+103
-1.2964468e+103
-1.2974363e+103
-1.2973869e+103
-1.2979782e+103
-1.2880136e+103
-1.2897464e+103
-1.288706e+103
-1.2906886e+103
-1.292238e+103
-1.2913714e+103
-1.2920255e+103
-1.2926509e+103
-1.3041173e+103
-1.3035336e+103
-1.3053229e+103
-1.3063639e+103
-1.3048912e+103
-1.3048566e+103
-1.3068772e+103
-1.3068463e+103
-1.3015297e+103
-1.3006483e+103
-1.3021119e+103
-1.3033982e+103
-1.3041869e+103
-1.3024011e+103
-1.3023307e+103
-1.3043639e+103
-1.2763735e+103
-1.2782528e+103
-1.2773493e+103
-1.2794285e+103
-1.28098e+103
-1.2801085e+103
-1.2811863e+103
-1.2818055e+103
-1.2828523e+103
-1.2843689e+103
-1.2836333e+103
-1.2854304e+103
-1.2865135e+103
-1.2855919e+103
-1.2864324e+103
-1.2870524e+103
-1.1902276e+103
-1.2026266e+103
-1.203336e+103
-1.1887838e+103
-1.2000046e+103
-1.199289e+103
-1.2094968e+103
-1.2132647e+103
-1.2103006e+103
-1.18056e+103
-1.181901e+103
-1.1706217e+103
-1.1633278e+103
-1.1637197e+103
-1.1716992e+103
-1.2604566e+103
-1.257804e+103
-1.2687574e+103
-1.2718983e+103
-1.2746999e+103
-1.2652415e+103
-1.2632392e+103
-1.2767245e+103
-1.2473288e+103
-1.2356316e+103
-1.2376676e+103
-1.2494464e+103
-1.242582e+103
-1.2334428e+103
-1.2313248e+103
-1.2450466e+103
-1.2085154e+103
-1.2021341e+103
-1.200305e+103
-1.2106188e+103
-1.1910923e+103
-1.1833477e+103
-1.1864312e+103
-1.1849235e+103
-1.1927762e+103
-1.1661488e+103
-1.1943278e+103
-1.2054158e+103
-1.212607e+103
-1.203871e+103
-1.2144156e+103
-1.1494391e+103
-1.2166196e+103
-1.209646e+103
-1.2077343e+103
-1.2187341e+103
-1.1979673e+103
-1.1961267e+103
-1.1880343e+103
-1.1897855e+103
-1.1692888e+103
-1.1933621e+103
-1.1915486e+103
-1.1998193e+103
-1.1713313e+103
-1.2016442e+103
-1.1526208e+103
-1.1544085e+103
-1.2132289e+103
-1.2227396e+103
-1.2115343e+103
-1.2208629e+103
-1.0737266e+103
-1.0742453e+103
-1.0917975e+103
-1.1211477e+103
-1.1379807e+103
-1.1418345e+103
-1.1246103e+103
-1.1438447e+103
-1.1266774e+103
-1.2509569e+103
-1.2482104e+103
-1.2588396e+103
-1.2619905e+103
-1.2222937e+103
-1.2358829e+103
-1.2333409e+103
-1.224537e+103
-1.2287877e+103
-1.2267661e+103
-1.2380827e+103
-1.2401541e+103
-1.2553758e+103
-1.2665788e+103
-1.2534205e+103
-1.2645838e+103
-1.1977845e+103
-1.1986537e+103
-1.1843926e+103
-1.1955634e+103
-1.1946428e+103
-1.1960652e+103
-1.1969311e+103
-1.1826458e+103
-1.193845e+103
-1.1930251e+103
-1.2026521e+103
-1.206222e+103
-1.2035776e+103
-1.2071593e+103
-1.1764359e+103
-1.1748463e+103
-1.2044233e+103
-1.2080036e+103
-1.2053287e+103
-1.2089104e+103
-1.2194892e+103
-1.2203404e+103
-1.2234431e+103
-1.2243056e+103
-1.2178428e+103
-1.2216949e+103
-1.2186211e+103
-1.2225638e+103
-1.2311037e+103
-1.2357378e+103
-1.2319363e+103
-1.2293172e+103
-1.2338701e+103
-1.2301689e+103
-1.2347915e+103
-1.2009867e+103
-1.201808e+103
-1.186929e+103
-1.1985964e+103
-1.1977378e+103
-1.1994982e+103
-1.2002079e+103
-1.1857259e+103
-1.1970366e+103
-1.1963418e+103
-1.2077379e+103
-1.2114557e+103
-1.2085846e+103
-1.2123016e+103
-1.2062199e+103
-1.2098427e+103
-1.206975e+103
-1.2106431e+103
-1.1774809e+103
-1.178783e+103
-1.2158764e+103
-1.2197847e+103
-1.2167903e+103
-1.2206913e+103
-1.2140472e+103
-1.2178994e+103
-1.2149474e+103
-1.2188751e+103
-1.2253858e+103
-1.2299642e+103
-1.2263826e+103
-1.2310056e+103
-1.2273807e+103
-1.2319881e+103
-1.2282672e+103
-1.2328882e+103
-1.1612433e+103
-1.1604091e+103
-1.167877e+103
-1.1687909e+103
-1.1588632e+103
-1.1572156e+103
-1.1647244e+103
-1.1664377e+103
-1.2430327e+103
-1.2439309e+103
-1.2484156e+103
-1.2494361e+103
-1.2577224e+103
-1.2648515e+103
-1.2587111e+103
-1.2659806e+103
-1.2449081e+103
-1.2503985e+103
-1.2532963e+103
-1.2544879e+103
-1.2602174e+103
-1.2615851e+103
-1.2410215e+103
-1.246417e+103
-1.2419597e+103
-1.2473373e+103
-1.2389839e+103
-1.2442337e+103
-1.2399929e+103
-1.2453923e+103
-1.2556453e+103
-1.2565706e+103
-1.2627792e+103
-1.2637132e+103
-1.2736515e+103
-1.2808255e+103
-1.2747007e+103
-1.2817916e+103
-1.2901524e+103
-1.2944886e+103
-1.2911573e+103
-1.2953334e+103
-1.2710922e+103
-1.2780426e+103
-1.272374e+103
-1.2795862e+103
-1.2871716e+103
-1.2912e+103
-1.2887495e+103
-1.2931264e+103
-1.2831477e+103
-1.2759965e+103
-1.2770672e+103
-1.0546096e+103
-1.1145413e+103
-1.1009632e+103
-1.1013663e+103
-1.1163906e+103
-1.1329304e+103
-1.1319669e+103
-1.1396931e+103
-1.1417343e+103
-1.1453914e+103
-1.1434706e+103
-1.148891e+103
-1.1507314e+103
-1.1520207e+103
-1.1470223e+103
-1.1473832e+103
-1.1526489e+103
-1.1344565e+103
-1.1339083e+103
-1.1429507e+103
-1.1434637e+103
-1.134876e+103
-1.1435939e+103
-1.1454125e+103
-1.1539701e+103
-1.1478128e+103
-1.1490135e+103
-1.1550555e+103
-1.2984748e+103
-1.2994338e+103
-1.2953817e+103
-1.2970356e+103
-1.2929895e+103
-1.2940044e+103
-1.2899374e+103
-1.2915826e+103
-1.3029069e+103
-1.3040474e+103
-1.3048579e+103
-1.3053581e+103
-1.3061369e+103
-1.3070505e+103
-1.3076574e+103
-1.3078723e+103
-1.2789213e+103
-1.2805674e+103
-1.2819999e+103
-1.2830912e+103
-1.2846155e+103
-1.2862608e+103
-1.2875978e+103
-1.2885529e+103
-1.2221618e+103
-1.2320466e+103
-1.2096466e+103
-1.2484901e+103
-1.2435897e+103
-1.2611782e+103
-1.2689151e+103
-1.2714754e+103
-1.2658281e+103
-1.2744151e+103
-1.2765926e+103
-1.2538214e+103
-1.271097e+103
-1.2796854e+103
-1.2822711e+103
-1.2758343e+103
-1.2848627e+103
-1.2869001e+103
-1.2579286e+103
-1.2772639e+103
-1.2747068e+103
-1.2801989e+103
-1.2825188e+103
-1.2757067e+103
-1.2768469e+103
-1.2768482e+103
-1.2778106e+103
-1.2780327e+103
-1.2791062e+103
-1.280121e+103
-1.2790597e+103
-1.2776781e+103
-1.2794902e+103
-1.278979e+103
-1.2813334e+103
-1.2802035e+103
-1.2825987e+103
-1.2813248e+103
-1.2832253e+103
-1.2700104e+103
-1.2712637e+103
-1.2711149e+103
-1.2722064e+103
-1.2727011e+103
-1.2738526e+103
-1.2736808e+103
-1.2748506e+103
-1.2716289e+103
-1.2730649e+103
-1.2749074e+103
-1.2728224e+103
-1.2768168e+103
-1.2778708e+103
-1.2746537e+103
-1.2758771e+103
-1.288018e+103
-1.2855327e+103
-1.2906888e+103
-1.2931123e+103
-1.2886183e+103
-1.2896337e+103
-1.2908234e+103
-1.289701e+103
-1.2897462e+103
-1.2884755e+103
-1.2902045e+103
-1.2920738e+103
-1.291003e+103
-1.2933262e+103
-1.2939838e+103
-1.2920746e+103
-1.2873735e+103
-1.2862011e+103
-1.287328e+103
-1.2882641e+103
-1.2809596e+103
-1.2821646e+103
-1.2821059e+103
-1.2831497e+103
-1.2835097e+103
-1.2846126e+103
-1.2845159e+103
-1.2855917e+103
-1.2829949e+103
-1.2844138e+103
-1.2865887e+103
-1.2844887e+103
-1.2870576e+103
-1.2883246e+103
-1.2892438e+103
-1.2858755e+103
-1.2921272e+103
-1.2893779e+103
-1.2710217e+103
-1.2921448e+103
-1.2945125e+103
-1.3026933e+103
-1.3019759e+103
-1.3059463e+103
-1.3071448e+103
-1.3006313e+103
-1.3019558e+103
-1.3004965e+103
-1.2987049e+103
-1.2979166e+103
-1.3031437e+103
-1.3045282e+103
-1.2993007e+103
-1.2973487e+103
-1.2965547e+103
-1.2974352e+103
-1.2980858e+103
-1.2988299e+103
-1.2980885e+103
-1.2985354e+103
-1.2994219e+103
-1.3002581e+103
-1.2993681e+103
-1.3008681e+103
-1.3001255e+103
-1.3007233e+103
-1.301181e+103
-1.3014848e+103
-1.3020909e+103
-1.296193e+103
-1.2956105e+103
-1.2950263e+103
-1.295796e+103
-1.2940089e+103
-1.2952903e+103
-1.2961613e+103
-1.2947518e+103
-1.2966814e+103
-1.2970934e+103
-1.2977369e+103
-1.2973224e+103
-1.2973007e+103
-1.297069e+103
-1.295742e+103
-1.2956702e+103
-1.2980552e+103
-1.2985204e+103
-1.2990732e+103
-1.2986886e+103
-1.2993177e+103
-1.2997733e+103
-1.3004309e+103
-1.2999185e+103
-1.2968734e+103
-1.2983034e+103
-1.2988547e+103
-1.2972853e+103
-1.299807e+103
-1.2995801e+103
-1.2980772e+103
-1.2981136e+103
-1.2956265e+103
-1.2951702e+103
-1.2967471e+103
-1.2979458e+103
-1.2964363e+103
-1.2963827e+103
-1.2986052e+103
-1.2987873e+103
-1.2981634e+103
-1.2973958e+103
-1.2995986e+103
-1.3006994e+103
-1.2995504e+103
-1.2990934e+103
-1.3011911e+103
-1.3012734e+103
-1.2898651e+103
-1.2892847e+103
-1.2910231e+103
-1.2922777e+103
-1.2907659e+103
-1.2905943e+103
-1.2930204e+103
-1.2931688e+103
-1.2931962e+103
-1.2937192e+103
-1.2957634e+103
-1.2958545e+103
-1.2918228e+103
-1.294151e+103
-1.2952252e+103
-1.2925371e+103
-1.3072551e+103
-1.3064889e+103
-1.3082205e+103
-1.3078819e+103
-1.3042917e+103
-1.3033348e+103
-1.3051474e+103
-1.3056403e+103
-1.2793766e+103
-1.2778012e+103
-1.2785718e+103
-1.2806037e+103
-1.2795048e+103
-1.2793183e+103
-1.2814383e+103
-1.2816978e+103
-1.2806305e+103
-1.2813574e+103
-1.2827184e+103
-1.2838318e+103
-1.2844577e+103
-1.2821141e+103
-1.2825512e+103
-1.284698e+103
-1.2842109e+103
-1.2835893e+103
-1.285663e+103
-1.2868679e+103
-1.2850673e+103
-1.2848521e+103
-1.2875446e+103
-1.287716e+103
-1.2860042e+103
-1.286814e+103
-1.2896123e+103
-1.2885603e+103
-1.2877812e+103
-1.2880387e+103
-1.2901718e+103
-1.2901926e+103
-1.0239256e+103
-1.1945797e+103
-1.1915109e+103
-1.1923538e+103
-1.195502e+103
-1.2052376e+103
-1.2058408e+103
-1.2055219e+103
-1.2060406e+103
-1.2063895e+103
-1.2067372e+103
-1.20622e+103
-1.2064931e+103
-1.1932006e+103
-1.1900579e+103
-1.1907244e+103
-1.193843e+103
-1.199542e+103
-1.1987768e+103
-1.2106636e+103
-1.2093128e+103
-1.2102448e+103
-1.2097471e+103
-1.2139954e+103
-1.2153641e+103
-1.2157808e+103
-1.2144178e+103
-1.2114411e+103
-1.2101435e+103
-1.2110554e+103
-1.2105235e+103
-1.1843982e+103
-1.1814817e+103
-1.1821432e+103
-1.1849854e+103
-1.1836613e+103
-1.182823e+103
-1.1857284e+103
-1.1865541e+103
-1.1757755e+103
-1.1734052e+103
-1.1741021e+103
-1.17638e+103
-1.168226e+103
-1.1657229e+103
-1.1663838e+103
-1.1688113e+103
-1.1672262e+103
-1.1666503e+103
-1.1692796e+103
-1.1699935e+103
-1.1771001e+103
-1.1746528e+103
-1.175336e+103
-1.1779421e+103
-1.2634984e+103
-1.2646245e+103
-1.2703183e+103
-1.2713814e+103
-1.2609346e+103
-1.2675414e+103
-1.2621685e+103
-1.2690387e+103
-1.2764484e+103
-1.2802959e+103
-1.2779134e+103
-1.2820398e+103
-1.2793414e+103
-1.2833854e+103
-1.2803757e+103
-1.2842832e+103
-1.281727e+103
-1.2831952e+103
-1.2855641e+103
-1.2873855e+103
-1.2685519e+103
-1.2696371e+103
-1.2754757e+103
-1.2765298e+103
-1.2660139e+103
-1.2727503e+103
-1.2673404e+103
-1.2742899e+103
-1.2845788e+103
-1.2855852e+103
-1.2888341e+103
-1.2896778e+103
-1.2484551e+103
-1.2552073e+103
-1.2496844e+103
-1.2566178e+103
-1.2343898e+103
-1.2355115e+103
-1.2394756e+103
-1.2407215e+103
-1.2366402e+103
-1.2377168e+103
-1.2418437e+103
-1.2429022e+103
-1.250852e+103
-1.2518691e+103
-1.2578481e+103
-1.2588211e+103
-1.2438155e+103
-1.2503536e+103
-1.244968e+103
-1.2516497e+103
-1.2321222e+103
-1.2331756e+103
-1.2371776e+103
-1.2382456e+103
-1.2300155e+103
-1.2349728e+103
-1.231024e+103
-1.2361111e+103
-1.2461567e+103
-1.2471882e+103
-1.2528793e+103
-1.2539058e+103
-1.2088814e+103
-1.2128052e+103
-1.2098827e+103
-1.2138667e+103
-1.2004663e+103
-1.2013908e+103
-1.2038819e+103
-1.2048423e+103
-1.1995624e+103
-1.2029784e+103
-1.2108954e+103
-1.2118483e+103
-1.2149123e+103
-1.2158997e+103
-1.1898238e+103
-1.1930603e+103
-1.1907246e+103
-1.1939632e+103
-1.1835656e+103
-1.184448e+103
-1.1710241e+103
-1.1816134e+103
-1.1806671e+103
-1.1869211e+103
-1.1877854e+103
-1.1739994e+103
-1.1848522e+103
-1.1839429e+103
-1.1853566e+103
-1.1861249e+103
-1.1726702e+103
-1.1831789e+103
-1.1824414e+103
-1.1916243e+103
-1.194958e+103
-1.1923997e+103
-1.1957744e+103
-1.1650307e+103
-1.1663434e+103
-1.1931799e+103
-1.1965927e+103
-1.1940621e+103
-1.1974902e+103
-1.2040784e+103
-1.2077299e+103
-1.2049961e+103
-1.2086687e+103
-1.2129632e+103
-1.2170911e+103
-1.2138818e+103
-1.2181534e+103
-1.2024152e+103
-1.2059292e+103
-1.2031929e+103
-1.2068283e+103
-1.21488e+103
-1.2192127e+103
-1.2157869e+103
-1.2201603e+103
-1.1492183e+103
-1.14871e+103
-1.1557525e+103
-1.1567575e+103
-1.2169852e+103
-1.2211986e+103
-1.2179486e+103
-1.2222208e+103
-1.207976e+103
-1.2089545e+103
-1.2116051e+103
-1.2126115e+103
-1.2061426e+103
-1.2097315e+103
-1.2070114e+103
-1.2106756e+103
-1.2189538e+103
-1.2199322e+103
-1.2232424e+103
-1.2242528e+103
-1.1967791e+103
-1.2002118e+103
-1.1977485e+103
-1.201185e+103
-1.1950997e+103
-1.1984458e+103
-1.1959216e+103
-1.1993338e+103
-1.1886144e+103
-1.1894053e+103
-1.175581e+103
-1.1856811e+103
-1.1863772e+103
-1.1902907e+103
-1.1912645e+103
-1.1770547e+103
-1.1882572e+103
-1.1872397e+103
-1.1679181e+103
-1.169384e+103
-1.1939705e+103
-1.1949793e+103
-1.1805024e+103
-1.1919814e+103
-1.1908815e+103
-1.1921065e+103
-1.1930428e+103
-1.1788129e+103
-1.1899733e+103
-1.1890342e+103
-1.198631e+103
-1.2021716e+103
-1.1995812e+103
-1.2031636e+103
-1.1708812e+103
-1.1726395e+103
-1.200495e+103
-1.2041003e+103
-1.201513e+103
-1.205103e+103
-1.1583521e+103
-1.150655e+103
-1.1517544e+103
-1.1595901e+103
-1.1548942e+103
-1.1536355e+103
-1.1612197e+103
-1.1626203e+103
-1.2118875e+103
-1.215709e+103
-1.212877e+103
-1.2167089e+103
-1.2231784e+103
-1.2277358e+103
-1.2241562e+103
-1.2287629e+103
-1.2099846e+103
-1.2136905e+103
-1.2109195e+103
-1.2147314e+103
-1.2210629e+103
-1.2254477e+103
-1.2221054e+103
-1.226617e+103
-1.0508557e+103
-1.1104171e+103
-1.097148e+103
-1.0512027e+103
-1.097538e+103
-1.1126444e+103
-1.1138305e+103
-1.0992008e+103
-1.1319963e+103
-1.1252121e+103
-1.132944e+103
-1.1263385e+103
-1.1407587e+103
-1.1353216e+103
-1.1360157e+103
-1.1413643e+103
-1.1427431e+103
-1.1383954e+103
-1.1396142e+103
-1.1443646e+103
-1.1353578e+103
-1.1285212e+103
-1.1367506e+103
-1.1296668e+103
-1.1457081e+103
-1.1408304e+103
-1.1415365e+103
-1.1467617e+103
-1.1375387e+103
-1.1306353e+103
-1.1381315e+103
-1.131154e+103
-1.2538023e+103
-1.2603686e+103
-1.2549345e+103
-1.261437e+103
-1.2512386e+103
-1.2576317e+103
-1.2524729e+103
-1.2590949e+103
-1.2662084e+103
-1.267681e+103
-1.269832e+103
-1.271573e+103
-1.2690675e+103
-1.2701116e+103
-1.2729105e+103
-1.2738625e+103
-1.2212307e+103
-1.2222641e+103
-1.2260034e+103
-1.227158e+103
-1.236962e+103
-1.243476e+103
-1.2379858e+103
-1.2445292e+103
-1.2345672e+103
-1.2409599e+103
-1.2357266e+103
-1.2422568e+103
-1.2233958e+103
-1.2244277e+103
-1.2282694e+103
-1.2293203e+103
-1.2277851e+103
-1.2287863e+103
-1.2328038e+103
-1.2337894e+103
-1.2256653e+103
-1.2266863e+103
-1.2305671e+103
-1.2317158e+103
-1.2392105e+103
-1.2403154e+103
-1.245839e+103
-1.2471066e+103
-1.2414813e+103
-1.2424352e+103
-1.248266e+103
-1.2491614e+103
-1.2586214e+103
-1.265395e+103
-1.2596026e+103
-1.2662886e+103
-1.2741999e+103
-1.2782963e+103
-1.2751022e+103
-1.2791238e+103
-1.2562883e+103
-1.2628472e+103
-1.2574746e+103
-1.2642673e+103
-1.2715304e+103
-1.2729168e+103
-1.2752756e+103
-1.2769823e+103
-1.2005788e+103
-1.2010474e+103
-1.200643e+103
-1.2010899e+103
-1.2014579e+103
-1.2018928e+103
-1.2013606e+103
-1.2017246e+103
-1.1887095e+103
-1.1859018e+103
-1.186674e+103
-1.1896006e+103
-1.195082e+103
-1.1943189e+103
-1.1987396e+103
-1.1993708e+103
-1.1988635e+103
-1.1994308e+103
-1.1998054e+103
-1.2002329e+103
-1.1998068e+103
-1.2001839e+103
-1.1851713e+103
-1.184348e+103
-1.1872081e+103
-1.1880101e+103
-1.1934846e+103
-1.1926266e+103
-1.20253e+103
-1.2030273e+103
-1.2038817e+103
-1.2033914e+103
-1.2070329e+103
-1.2075005e+103
-1.2083299e+103
-1.2087917e+103
-1.2047762e+103
-1.2034718e+103
-1.2043216e+103
-1.2039257e+103
-1.2092565e+103
-1.2079872e+103
-1.2084171e+103
-1.2097136e+103
-1.1782846e+103
-1.1775308e+103
-1.1803186e+103
-1.1810442e+103
-1.1768495e+103
-1.1761176e+103
-1.1788385e+103
-1.1796087e+103
-1.2056516e+103
-1.2043708e+103
-1.2052489e+103
-1.2047588e+103
-1.2102091e+103
-1.2089253e+103
-1.2093164e+103
-1.2106314e+103
-1.20653e+103
-1.2051724e+103
-1.2060854e+103
-1.2056201e+103
-1.2110785e+103
-1.2097564e+103
-1.2101678e+103
-1.2115239e+103
-1.2179141e+103
-1.2195956e+103
-1.2200056e+103
-1.2183098e+103
-1.2191745e+103
-1.218746e+103
-1.2204504e+103
-1.2208916e+103
-1.2255938e+103
-1.2234369e+103
-1.2251603e+103
-1.2238507e+103
-1.224713e+103
-1.2264904e+103
-1.2243038e+103
-1.2260486e+103
-1.2182414e+103
-1.216216e+103
-1.2178467e+103
-1.216612e+103
-1.2216654e+103
-1.2234049e+103
-1.2238249e+103
-1.2220748e+103
-1.2190969e+103
-1.2170514e+103
-1.2186879e+103
-1.2174526e+103
-1.2225575e+103
-1.2242619e+103
-1.222966e+103
-1.2247029e+103
-1.2293891e+103
-1.2315387e+103
-1.2319869e+103
-1.229798e+103
-1.2378489e+103
-1.2360363e+103
-1.235599e+103
-1.2383285e+103
-1.2302705e+103
-1.2307045e+103
-1.2324406e+103
-1.2328714e+103
-1.2301808e+103
-1.227619e+103
-1.2297447e+103
-1.2280197e+103
-1.2360178e+103
-1.2337822e+103
-1.2342308e+103
-1.236494e+103
-1.2289077e+103
-1.2310495e+103
-1.2284886e+103
-1.2306151e+103
-1.2369379e+103
-1.2347082e+103
-1.2351175e+103
-1.237358e+103
-1.2037409e+103
-1.2041431e+103
-1.2038893e+103
-1.2043115e+103
-1.2046784e+103
-1.2051203e+103
-1.2044436e+103
-1.2048188e+103
-1.191629e+103
-1.188632e+103
-1.1893594e+103
-1.1924567e+103
-1.1980317e+103
-1.1972859e+103
-1.2021469e+103
-1.2026698e+103
-1.2023122e+103
-1.2027672e+103
-1.2031152e+103
-1.2035323e+103
-1.2030424e+103
-1.2034269e+103
-1.1903725e+103
-1.1874147e+103
-1.1879925e+103
-1.1909843e+103
-1.1965685e+103
-1.1958118e+103
-1.2076669e+103
-1.208035e+103
-1.208581e+103
-1.2089762e+103
-1.2127014e+103
-1.213655e+103
-1.214062e+103
-1.2123259e+103
-1.2084198e+103
-1.2088664e+103
-1.209824e+103
-1.2093792e+103
-1.2131061e+103
-1.2135161e+103
-1.2144912e+103
-1.2149211e+103
-1.2073545e+103
-1.2060876e+103
-1.2069748e+103
-1.2064715e+103
-1.2106866e+103
-1.211992e+103
-1.2123833e+103
-1.2110735e+103
-1.2081564e+103
-1.2068641e+103
-1.2077395e+103
-1.2072874e+103
-1.2114893e+103
-1.212791e+103
-1.2118723e+103
-1.2132008e+103
-1.1816734e+103
-1.1789314e+103
-1.1793614e+103
-1.1822113e+103
-1.1808031e+103
-1.1800141e+103
-1.1829029e+103
-1.1836719e+103
-1.2164581e+103
-1.2143984e+103
-1.2160365e+103
-1.2148012e+103
-1.2198168e+103
-1.22153e+103
-1.2219732e+103
-1.2202325e+103
-1.2157174e+103
-1.2173787e+103
-1.2152743e+103
-1.2169233e+103
-1.2207199e+103
-1.2224577e+103
-1.2211524e+103
-1.2229108e+103
-1.21457e+103
-1.2124814e+103
-1.2141015e+103
-1.2129294e+103
-1.2178386e+103
-1.2183108e+103
-1.2195406e+103
-1.2200271e+103
-1.2155171e+103
-1.2134285e+103
-1.2150466e+103
-1.2138802e+103
-1.2205288e+103
-1.2188417e+103
-1.2192948e+103
-1.2210095e+103
-1.2263109e+103
-1.2236957e+103
-1.2258039e+103
-1.2241683e+103
-1.229793e+103
-1.2303108e+103
-1.2320246e+103
-1.2325645e+103
-1.2251814e+103
-1.2273012e+103
-1.2247044e+103
-1.2268198e+103
-1.2330875e+103
-1.2308633e+103
-1.2313261e+103
-1.2335561e+103
-1.2283148e+103
-1.2257299e+103
-1.2278471e+103
-1.2261682e+103
-1.2341031e+103
-1.2318701e+103
-1.2323272e+103
-1.2346005e+103
-1.2271044e+103
-1.2292408e+103
-1.226663e+103
-1.2287936e+103
-1.2350951e+103
-1.2328387e+103
-1.2332624e+103
-1.2355241e+103
-1.1649217e+103
-1.1641747e+103
-1.1666485e+103
-1.1674784e+103
-1.1636681e+103
-1.163e+103
-1.1655939e+103
-1.1659914e+103
-1.173191e+103
-1.1707712e+103
-1.1712334e+103
-1.1736111e+103
-1.1743187e+103
-1.1719829e+103
-1.1727415e+103
-1.1751455e+103
-1.1623894e+103
-1.1618355e+103
-1.1643418e+103
-1.1649981e+103
-1.1611424e+103
-1.1604382e+103
-1.1630133e+103
-1.163697e+103
-1.1689542e+103
-1.1682293e+103
-1.1706573e+103
-1.1713606e+103
-1.1719891e+103
-1.1696143e+103
-1.1702255e+103
-1.1727123e+103
-1.2437574e+103
-1.240732e+103
-1.2432752e+103
-1.2411838e+103
-1.2416525e+103
-1.2420792e+103
-1.2442042e+103
-1.2446461e+103
-1.2476551e+103
-1.2504558e+103
-1.2481313e+103
-1.2509628e+103
-1.2490556e+103
-1.251437e+103
-1.2518683e+103
-1.248631e+103
-1.255836e+103
-1.2563047e+103
-1.2603757e+103
-1.2598394e+103
-1.2652193e+103
-1.2694337e+103
-1.2700324e+103
-1.2657573e+103
-1.2613044e+103
-1.2568141e+103
-1.2608643e+103
-1.2572516e+103
-1.2663147e+103
-1.2667277e+103
-1.270576e+103
-1.2709646e+103
-1.2456481e+103
-1.242583e+103
-1.2451579e+103
-1.2430335e+103
-1.2495647e+103
-1.2523681e+103
-1.2513767e+103
-1.2552712e+103
-1.255913e+103
-1.2519876e+103
-1.2531095e+103
-1.2525923e+103
-1.2565438e+103
-1.2570654e+103
-1.2653204e+103
-1.2604904e+103
-1.2646462e+103
-1.2611326e+103
-1.262342e+103
-1.2664755e+103
-1.2618516e+103
-1.2660017e+103
-1.2387725e+103
-1.2392414e+103
-1.2412933e+103
-1.2417978e+103
-1.2461182e+103
-1.2489445e+103
-1.2456323e+103
-1.2484161e+103
-1.2427464e+103
-1.2397564e+103
-1.2422928e+103
-1.2402017e+103
-1.2466414e+103
-1.2494579e+103
-1.2499e+103
-1.2470856e+103
-1.2397029e+103
-1.2366607e+103
-1.2391494e+103
-1.2371768e+103
-1.2434063e+103
-1.246129e+103
-1.2467429e+103
-1.2439745e+103
-1.2407173e+103
-1.2377242e+103
-1.2402288e+103
-1.2381991e+103
-1.2445593e+103
-1.2473134e+103
-1.2450438e+103
-1.2478214e+103
-1.2537482e+103
-1.2577143e+103
-1.2582738e+103
-1.2542503e+103
-1.2547812e+103
-1.2587925e+103
-1.2552483e+103
-1.2592546e+103
-1.2677992e+103
-1.263029e+103
-1.2671789e+103
-1.263574e+103
-1.264582e+103
-1.2641509e+103
-1.2683894e+103
-1.2688065e+103
-1.2732303e+103
-1.277575e+103
-1.2738319e+103
-1.2782632e+103
-1.2835986e+103
-1.2879204e+103
-1.282955e+103
-1.2871966e+103
-1.2749264e+103
-1.2744499e+103
-1.2788619e+103
-1.2793038e+103
-1.2846744e+103
-1.2888845e+103
-1.2842348e+103
-1.2885264e+103
-1.2929637e+103
-1.2962059e+103
-1.2936316e+103
-1.2970394e+103
-1.3008187e+103
-1.3008756e+103
-1.3018211e+103
-1.3000589e+103
-1.2942583e+103
-1.2976272e+103
-1.2946888e+103
-1.2979697e+103
-1.3018336e+103
-1.3026785e+103
-1.3014632e+103
-1.302418e+103
-1.2706786e+103
-1.2713085e+103
-1.2749637e+103
-1.2757174e+103
-1.2810131e+103
-1.285253e+103
-1.2802486e+103
-1.2843869e+103
-1.2720022e+103
-1.2763754e+103
-1.2768468e+103
-1.2725075e+103
-1.2864549e+103
-1.2817409e+103
-1.2859709e+103
-1.2822244e+103
-1.2900729e+103
-1.2908738e+103
-1.2933286e+103
-1.2942888e+103
-1.2980805e+103
-1.2990427e+103
-1.297152e+103
-1.2979042e+103
-1.2916273e+103
-1.2949863e+103
-1.2954553e+103
-1.2921792e+103
-1.300228e+103
-1.2988305e+103
-1.2997417e+103
-1.2993567e+103
-1.289672e+103
-1.2854684e+103
-1.2860973e+103
-1.2904571e+103
-1.2799996e+103
-1.2755953e+103
-1.2761496e+103
-1.280659e+103
-1.2767068e+103
-1.2812e+103
-1.277124e+103
-1.0458623e+103
-1.0997681e+103
-1.0999271e+103
-1.1259198e+103
-1.130199e+103
-1.1283177e+103
-1.1270986e+103
-1.128283e+103
-1.1288122e+103
-1.1289809e+103
-1.1320924e+103
-1.1309929e+103
-1.1354766e+103
-1.1385135e+103
-1.13835e+103
-1.1406361e+103
-1.1407582e+103
-1.1380188e+103
-1.1366198e+103
-1.1378822e+103
-1.1398251e+103
-1.1400637e+103
-1.1383783e+103
-1.1401538e+103
-1.141518e+103
-1.1423958e+103
-1.1408809e+103
-1.1410935e+103
-1.1426414e+103
-1.1476077e+103
-1.1472112e+103
-1.1500751e+103
-1.1504624e+103
-1.1465126e+103
-1.1455961e+103
-1.1486955e+103
-1.1494377e+103
-1.1537987e+103
-1.1531023e+103
-1.1553892e+103
-1.1560812e+103
-1.1566387e+103
-1.1543116e+103
-1.1547922e+103
-1.157233e+103
-1.1576329e+103
-1.1554702e+103
-1.1561009e+103
-1.1581447e+103
-1.1508621e+103
-1.1484283e+103
-1.1488798e+103
-1.1515456e+103
-1.1496116e+103
-1.149271e+103
-1.1520131e+103
-1.1526203e+103
-1.158786e+103
-1.1565896e+103
-1.1572396e+103
-1.1595747e+103
-1.1392427e+103
-1.1397534e+103
-1.1423349e+103
-1.1417596e+103
-1.1393304e+103
-1.1389673e+103
-1.1414908e+103
-1.1421335e+103
-1.1433047e+103
-1.1420943e+103
-1.1426559e+103
-1.1439047e+103
-1.1442357e+103
-1.1429983e+103
-1.1429506e+103
-1.144362e+103
-1.1398521e+103
-1.1388217e+103
-1.1411481e+103
-1.1426244e+103
-1.1447169e+103
-1.1431819e+103
-1.1440905e+103
-1.1454799e+103
-1.1451881e+103
-1.1439323e+103
-1.1440966e+103
-1.1455607e+103
-1.1603184e+103
-1.1581007e+103
-1.1584943e+103
-1.1608471e+103
-1.1533581e+103
-1.1502255e+103
-1.1509033e+103
-1.1539011e+103
-1.1515894e+103
-1.1511001e+103
-1.1542879e+103
-1.1545946e+103
-1.1611188e+103
-1.1586128e+103
-1.1590975e+103
-1.1617721e+103
-1.3002082e+103
-1.3012906e+103
-1.3018264e+103
-1.3021642e+103
-1.2973538e+103
-1.2984563e+103
-1.299149e+103
-1.2995927e+103
-1.2947358e+103
-1.2957481e+103
-1.2963806e+103
-1.2967005e+103
-1.2917753e+103
-1.2928584e+103
-1.2935872e+103
-1.2939742e+103
-1.2804696e+103
-1.281561e+103
-1.2823381e+103
-1.2827596e+103
-1.283523e+103
-1.284586e+103
-1.2852117e+103
-1.2856475e+103
-1.2863424e+103
-1.2875046e+103
-1.2882312e+103
-1.2886295e+103
-1.2892892e+103
-1.2902476e+103
-1.2908491e+103
-1.2910955e+103
-1.1938629e+103
-1.2336786e+103
-1.2378354e+103
-1.2020113e+103
-1.2468591e+103
-1.2433145e+103
-1.1722011e+103
-1.2161878e+103
-1.2129473e+103
-1.234277e+103
-1.2381284e+103
-1.2524731e+103
-1.271408e+103
-1.2687797e+103
-1.2717393e+103
-1.2741762e+103
-1.2564207e+103
-1.2764798e+103
-1.2741291e+103
-1.2769093e+103
-1.2792638e+103
-1.2818917e+103
-1.2792569e+103
-1.2617546e+103
-1.2844667e+103
-1.2820714e+103
-1.2866487e+103
-1.2844578e+103
-1.2658576e+103
-1.2871359e+103
-1.2893586e+103
-1.2812281e+103
-1.2804247e+103
-1.2843061e+103
-1.2855558e+103
-1.2791473e+103
-1.2804478e+103
-1.2790128e+103
-1.2771576e+103
-1.2814033e+103
-1.2828433e+103
-1.2763861e+103
-1.2777946e+103
-1.2845952e+103
-1.2828708e+103
-1.2870288e+103
-1.2883898e+103
-1.2819019e+103
-1.2832148e+103
-1.28662e+103
-1.2859345e+103
-1.2897279e+103
-1.2909474e+103
-1.2844736e+103
-1.2857484e+103
-1.2812331e+103
-1.2804599e+103
-1.2812233e+103
-1.2818576e+103
-1.2823583e+103
-1.2818742e+103
-1.2825361e+103
-1.2831353e+103
-1.2844155e+103
-1.2849091e+103
-1.2851173e+103
-1.2857548e+103
-1.2838526e+103
-1.2830688e+103
-1.2838891e+103
-1.2845189e+103
-1.2800035e+103
-1.2794363e+103
-1.2789552e+103
-1.2797077e+103
-1.2769715e+103
-1.2786782e+103
-1.2794077e+103
-1.2774707e+103
-1.2814795e+103
-1.2808722e+103
-1.2806471e+103
-1.281255e+103
-1.2806451e+103
-1.2802541e+103
-1.2781963e+103
-1.2784204e+103
-1.2822644e+103
-1.2828198e+103
-1.2825575e+103
-1.2820308e+103
-1.2815599e+103
-1.2823306e+103
-1.2802679e+103
-1.2794897e+103
-1.2831459e+103
-1.2834991e+103