/*--------------------------------*- C++ -*----------------------------------*\
  =========                 |
  \\      /  F ield         | OpenFOAM: The Open Source CFD Toolbox
   \\    /   O peration     | Website:  https://openfoam.org
    \\  /    A nd           | Version:  7
     \\/     M anipulation  |
\*---------------------------------------------------------------------------*/
FoamFile
{
    version     2.0;
    format      ascii;
    class       volVectorField;
    location    "9000";
    object      UMean;
}
// * * * * * * * * * * * * * * * * * * * * * * * * * * * * * * * * * * * * * //

dimensions      [0 1 -1 0 0 0 0];

internalField   nonuniform List<vector> 
33730
(
(-2.777706e+50 -3.3789494e+49 1.7668203e+49)
(-2.7647859e+50 -7.3233757e+48 1.7433815e+49)
(-2.4186891e+50 -4.8965137e+49 -1.1118618e+49)
(-2.5072491e+50 -2.0172277e+49 3.2306312e+49)
(-2.6285802e+50 -7.6626531e+48 2.6994246e+49)
(-2.1308652e+50 -1.5624835e+49 2.437722e+49)
(-2.792365e+50 -1.5438883e+49 2.7781877e+49)
(-2.5307636e+50 -2.7553187e+49 2.8872746e+49)
(-2.7730525e+50 -1.1964318e+49 2.5472634e+49)
(-2.7783442e+50 -3.977885e+48 -7.7148148e+48)
(-2.9193276e+50 -5.521319e+48 8.8669157e+48)
(-2.7659305e+50 -1.1317724e+49 1.9510487e+49)
(-2.5033684e+50 -4.3398209e+48 1.7619132e+49)
(-2.7334534e+50 -7.7801304e+48 1.7003605e+49)
(-2.4727436e+50 -2.3929878e+49 -3.2746036e+49)
(-2.4535704e+50 -1.587537e+49 -3.1195974e+49)
(-1.9668847e+50 -4.2116483e+49 -5.8191089e+48)
(-1.9155117e+50 -2.67334e+49 -5.3146901e+48)
(-2.3155243e+50 -1.0738236e+49 -2.9087239e+49)
(-1.905308e+50 -1.4264681e+49 -3.6790217e+49)
(-1.4140081e+50 -2.6661497e+49 -2.3151644e+48)
(-2.1207374e+50 -1.426033e+49 2.7791033e+49)
(-2.1356834e+50 -1.4874459e+49 2.5501064e+49)
(-2.6451111e+50 -7.8378917e+48 2.9798071e+49)
(-2.6229011e+50 -1.4055179e+49 3.1033933e+49)
(-1.7704904e+50 -9.2897289e+48 1.9529866e+49)
(-1.7795416e+50 -1.0302675e+49 2.0003886e+49)
(-2.2891184e+50 -5.7396598e+48 2.4211311e+49)
(-2.2886555e+50 -9.1715366e+48 2.4082592e+49)
(-2.1148943e+50 -1.6442184e+49 2.4528839e+49)
(-2.0760542e+50 -1.3365258e+49 2.4550674e+49)
(-2.5977362e+50 -7.9579201e+48 2.69354e+49)
(-2.5630088e+50 -1.1673584e+49 2.6448733e+49)
(-2.9049688e+50 -1.0701889e+49 1.0312771e+49)
(-2.7603814e+50 -4.1670477e+48 -7.0263204e+48)
(-2.756581e+50 -6.0044931e+48 -6.6668026e+48)
(-2.8745362e+50 -5.9682593e+48 8.8736794e+48)
(-2.5247267e+50 -2.3660478e+48 -1.2802322e+49)
(-2.6139565e+50 -5.2664387e+48 -6.0612676e+48)
(-2.549875e+50 -3.5310874e+48 -1.2738685e+49)
(-2.5936446e+50 -2.9733961e+48 -6.333843e+48)
(-2.8115536e+50 -1.95022e+48 -6.4693635e+48)
(-2.5681551e+50 -5.9751526e+48 -7.9214769e+47)
(-2.552666e+50 -3.7429748e+48 -1.2456297e+48)
(-2.6288766e+50 -4.0086406e+48 1.2885323e+49)
(-2.5402288e+50 -6.2031486e+47 -1.3946007e+49)
(-2.5452961e+50 -3.4575698e+48 -1.3463693e+49)
(-2.5094211e+50 -9.2333858e+48 1.9928923e+49)
(-2.5201231e+50 -4.517013e+48 1.855995e+49)
(-2.1689611e+50 -3.9432069e+48 1.6942098e+49)
(-2.1767308e+50 -7.7156784e+48 1.6866526e+49)
(-2.4777095e+50 -4.2534868e+48 1.809567e+49)
(-2.4661516e+50 -8.370972e+48 1.8248691e+49)
(-2.3729211e+50 -8.8659175e+48 -2.610734e+49)
(-2.3932503e+50 -5.5363493e+48 -2.6219866e+49)
(-2.2721841e+50 -1.0113755e+49 -2.9862355e+49)
(-2.2682573e+50 -8.8051896e+48 -2.9490191e+49)
(-2.4119045e+50 -5.5438717e+48 -2.6092964e+49)
(-2.2991633e+50 -9.6638929e+48 -2.8503178e+49)
(-2.2837293e+50 -1.0068284e+49 -2.9387012e+49)
(-2.3826813e+50 -1.032181e+49 -2.5724091e+49)
(-1.8703391e+50 -1.3626729e+49 -3.6696496e+49)
(-1.8564506e+50 -1.0001406e+49 -3.6366225e+49)
(-1.3756372e+50 -1.8622081e+49 -2.8418632e+48)
(-1.3916672e+50 -2.7711728e+49 -3.1782805e+48)
(-1.8923388e+50 -1.2878613e+49 -3.6337898e+49)
(-1.862682e+50 -1.1198507e+49 -3.634947e+49)
(-1.3812356e+50 -1.8504549e+49 -1.2993541e+48)
(-1.4203589e+50 -2.5772122e+49 -9.2775645e+47)
(-2.4607526e+50 -8.1692754e+48 -3.2807134e+49)
(-1.9729047e+50 -4.5914166e+48 -3.308192e+49)
(-1.9696499e+50 -6.7444015e+48 -3.3141203e+49)
(-1.6531894e+50 -7.963077e+48 -3.8510877e+49)
(-1.6547471e+50 -7.9171486e+48 -3.8449037e+49)
(-1.1563727e+50 -1.0548978e+49 -3.4587357e+49)
(-1.1529811e+50 -8.9806983e+48 -3.4312974e+49)
(-9.8021501e+49 -1.7120111e+49 5.4282688e+48)
(-9.7786187e+49 -1.1054466e+49 6.067426e+48)
(-2.3090319e+50 -6.3171351e+48 2.7020056e+49)
(-1.7923704e+50 -9.47406e+48 2.1385723e+49)
(-1.7695743e+50 -9.4170954e+48 2.1940315e+49)
(-2.2803696e+50 -1.0493387e+49 2.6764874e+49)
(-1.7775072e+50 -9.9470278e+48 2.0628918e+49)
(-1.763518e+50 -8.8117806e+48 2.0510966e+49)
(-2.2869377e+50 -5.3282833e+48 2.4851972e+49)
(-2.2869709e+50 -8.8399373e+48 2.5039844e+49)
(-1.5385046e+50 -7.5845202e+48 1.9047711e+49)
(-1.5250992e+50 -6.6272933e+48 1.9564366e+49)
(-1.9643264e+50 -5.781629e+48 2.2960567e+49)
(-1.9548765e+50 -8.1325854e+48 2.3230028e+49)
(-1.5340908e+50 -7.8956467e+48 1.9792862e+49)
(-1.5319801e+50 -7.3352254e+48 1.9693508e+49)
(-1.9545089e+50 -5.0087291e+48 2.3424887e+49)
(-1.9585738e+50 -7.1714069e+48 2.3403631e+49)
(-1.768228e+50 -1.0506431e+49 2.0139543e+49)
(-1.7618128e+50 -9.7642551e+48 2.0559389e+49)
(-2.2640432e+50 -5.6201531e+48 2.4256529e+49)
(-2.2655604e+50 -8.8372092e+48 2.4782518e+49)
(-1.7654399e+50 -9.9100165e+48 1.9680111e+49)
(-2.2540788e+50 -6.1223978e+48 2.4179702e+49)
(-1.7437747e+50 -9.0072355e+48 2.0609839e+49)
(-2.2353366e+50 -9.7306546e+48 2.4507074e+49)
(-2.217253e+50 -2.4443461e+48 -1.0365354e+49)
(-2.236692e+50 -2.4571456e+48 -8.6968687e+48)
(-2.5680768e+50 -1.7403534e+48 -1.283447e+49)
(-2.4894692e+50 -6.6622923e+47 -1.7899025e+49)
(-2.6514784e+50 -4.5743181e+48 1.384018e+49)
(-2.6217952e+50 -8.3800108e+48 1.4498219e+49)
(-2.5529435e+50 -5.8012444e+48 6.005e+46)
(-2.5583829e+50 -3.8928571e+48 -1.4949647e+48)
(-2.5652577e+50 -2.7525541e+48 -5.072899e+48)
(-2.4947302e+50 -2.000228e+48 -1.1176619e+49)
(-2.4693815e+50 -2.9351276e+48 -1.161502e+49)
(-2.5453488e+50 -4.9152339e+48 -5.0891458e+48)
(-2.5969763e+50 -3.0651407e+48 -6.1551868e+48)
(-2.5351141e+50 -2.2292307e+48 -1.3002787e+49)
(-2.5284826e+50 -3.4640634e+48 -1.1225601e+49)
(-2.7995593e+50 -5.9007555e+48 -5.9728779e+48)
(-2.5791912e+50 -5.3213215e+48 -5.0579201e+48)
(-2.5147443e+50 -2.7702464e+48 -1.3716031e+49)
(-2.6057183e+50 -3.9789769e+48 1.3478674e+49)
(-2.5234001e+50 -3.6810024e+48 -3.4115279e+47)
(-2.5069249e+50 -5.6995885e+48 -3.2889296e+47)
(-2.5797883e+50 -7.8097205e+48 1.3144481e+49)
(-2.2078533e+50 -1.8578023e+48 -1.1013008e+49)
(-2.2016469e+50 -2.6539998e+48 -1.0931755e+49)
(-2.2211568e+50 -2.805036e+48 -9.0911403e+48)
(-2.5585927e+50 -1.5634373e+48 -1.3254688e+49)
(-2.2266677e+50 -2.7087779e+48 -9.1740271e+48)
(-2.1833664e+50 -3.0999495e+48 -9.1153361e+48)
(-2.1898516e+50 -3.1153516e+48 -9.4475478e+48)
(-2.2098464e+50 -3.8137474e+48 -5.848169e+48)
(-2.2198625e+50 -3.094698e+48 -6.0657259e+48)
(-2.2163244e+50 -2.0936956e+48 -1.1303507e+49)
(-2.226739e+50 -2.556897e+48 -1.1352067e+49)
(-2.2334629e+50 -2.9691488e+48 -9.2841549e+48)
(-2.2423817e+50 -2.6910294e+48 -9.4869734e+48)
(-2.6026549e+50 -3.4614418e+48 -1.3058745e+49)
(-2.1737251e+50 -2.9983471e+48 -9.03155e+48)
(-2.1692678e+50 -3.310533e+48 -9.0249656e+48)
(-2.197521e+50 -3.1599077e+48 -5.9122035e+48)
(-2.2011104e+50 -3.6812387e+48 -6.0032202e+48)
(-2.5140717e+50 -2.5981145e+48 -1.8801875e+49)
(-2.4986414e+50 -6.3336818e+47 -1.7864747e+49)
(-2.1847579e+50 -3.3256527e+48 -4.7576411e+48)
(-2.2594548e+50 -3.5327776e+48 1.5886449e+48)
(-2.1786365e+50 -4.2114702e+48 -4.3532306e+48)
(-2.2376544e+50 -3.3910012e+48 1.9296552e+48)
(-2.1704108e+50 -4.1583724e+48 -4.3947433e+48)
(-2.163448e+50 -3.4147424e+48 -4.4202091e+48)
(-2.2389749e+50 -5.2436757e+48 1.7862744e+48)
(-2.2078564e+50 -6.0259264e+48 6.731193e+48)
(-2.2979611e+50 -7.1233967e+48 1.6709828e+49)
(-2.2018527e+50 -3.750531e+48 6.7469006e+48)
(-2.2944973e+50 -3.6852474e+48 1.6935566e+49)
(-2.2236631e+50 -3.64736e+48 6.0727328e+48)
(-2.4709585e+50 9.5527671e+47 -2.6087637e+49)
(-2.8074251e+50 2.0622334e+47 -9.1663284e+48)
(-2.3446462e+50 1.3355575e+48 -2.2074671e+49)
(-2.5837363e+50 1.0231026e+47 -1.6957389e+49)
(-2.604442e+50 -2.8661968e+48 -1.7863919e+49)
(-2.3350515e+50 -2.019855e+48 -2.263812e+49)
(-2.3236372e+50 1.8088747e+46 -2.2192133e+49)
(-2.5800216e+50 -9.349288e+47 -1.6877297e+49)
(-2.1715682e+50 -7.7068868e+48 1.8479404e+49)
(-2.1864803e+50 -3.7144954e+48 1.8002522e+49)
(-2.1767144e+50 -7.1451042e+48 1.7177596e+49)
(-2.1687991e+50 -3.349558e+48 1.7033258e+49)
(-1.8475297e+50 -3.8050369e+48 1.7739131e+49)
(-1.85691e+50 -6.4252872e+48 1.7747068e+49)
(-1.8566408e+50 -4.0925351e+48 1.6848826e+49)
(-1.8533216e+50 -6.5829619e+48 1.7360332e+49)
(-2.1468739e+50 -3.5694928e+48 1.7177921e+49)
(-2.156903e+50 -7.2326311e+48 1.7489384e+49)
(-2.136998e+50 -3.6985819e+48 1.6360019e+49)
(-2.131271e+50 -7.0969675e+48 1.7187151e+49)
(-2.7928376e+50 -1.3581092e+49 -2.6505789e+49)
(-2.822432e+50 -1.4242876e+49 -2.6113463e+49)
(-2.3652882e+50 -6.284201e+48 -2.0794221e+49)
(-2.3678152e+50 -1.7273423e+48 -2.0601374e+49)
(-2.403302e+50 -7.1391321e+48 -3.2830869e+49)
(-2.4190643e+50 -8.4005453e+48 -3.2797947e+49)
(-2.3788833e+50 -2.4057791e+48 -1.9809645e+49)
(-2.4379444e+50 -7.4902764e+48 -3.1776356e+49)
(-2.4414801e+50 -9.0160567e+48 -3.3105164e+49)
(-2.3734889e+50 -7.0651427e+48 -2.0578759e+49)
(-1.936104e+50 -3.2788458e+48 -3.2959153e+49)
(-1.9257723e+50 -5.1304404e+48 -3.2922199e+49)
(-1.616172e+50 -6.7225506e+48 -3.8218825e+49)
(-1.6269074e+50 -6.7809175e+48 -3.8113615e+49)
(-1.6326812e+50 -6.4049401e+48 -3.7930154e+49)
(-1.9438569e+50 -3.0605964e+48 -3.3020849e+49)
(-1.9316501e+50 -6.1447676e+48 -3.2968742e+49)
(-1.6199017e+50 -7.4499628e+48 -3.8582221e+49)
(-1.1486956e+50 -9.0174349e+48 -3.4043169e+49)
(-1.1225789e+50 -8.1232616e+48 -3.4022704e+49)
(-9.9191435e+49 -1.6654298e+49 6.5375855e+48)
(-9.5748477e+49 -1.0379056e+49 6.0668917e+48)
(-1.1364261e+50 -9.3472733e+48 -3.4107799e+49)
(-1.1258441e+50 -7.7330518e+48 -3.3711969e+49)
(-9.6682342e+49 -1.7135141e+49 4.4795899e+48)
(-9.6688728e+49 -1.166486e+49 6.2313927e+48)
(-1.9564627e+50 -3.426797e+48 -3.2352811e+49)
(-1.946286e+50 -5.4904452e+48 -3.2209669e+49)
(-1.6277921e+50 -6.8265659e+48 -3.7810416e+49)
(-1.6413704e+50 -6.8652522e+48 -3.7896617e+49)
(-1.9465197e+50 -7.1390519e+48 -3.3330673e+49)
(-1.9631681e+50 -3.4646038e+48 -3.3222738e+49)
(-1.6469602e+50 -6.4891261e+48 -3.8209725e+49)
(-1.6328902e+50 -8.2945482e+48 -3.9127819e+49)
(-1.1274595e+50 -9.2165184e+48 -3.4361866e+49)
(-9.9772374e+49 -1.5633049e+49 7.3508075e+48)
(-9.6674817e+49 -1.1102279e+49 6.9795447e+48)
(-1.1497357e+50 -8.7928641e+48 -3.4134511e+49)
(-1.1451634e+50 -9.1778906e+48 -3.4101145e+49)
(-1.1277991e+50 -7.5364104e+48 -3.3433029e+49)
(-9.7392139e+49 -1.6090426e+49 5.4670289e+48)
(-9.6399515e+49 -1.0048348e+49 6.6064742e+48)
(-2.5237799e+50 -5.9787317e+48 -2.7318044e+49)
(-1.9906598e+50 -6.6428022e+48 -3.4754585e+49)
(-1.985788e+50 -3.2921671e+48 -3.4142813e+49)
(-1.7416744e+50 -7.6973682e+48 -4.2135165e+49)
(-1.7378301e+50 -6.8460582e+48 -4.1851841e+49)
(-1.1818757e+50 -4.5421655e+48 -3.5126746e+49)
(-1.1842214e+50 -5.2289588e+48 -3.4848107e+49)
(-8.7386164e+49 -7.0471482e+48 -3.7580578e+49)
(-8.6589173e+49 -7.1715108e+48 -3.715555e+49)
(-1.1883731e+50 -4.5522953e+48 -3.5005753e+49)
(-1.1871451e+50 -5.8356853e+48 -3.5402854e+49)
(-8.7769837e+49 -6.690983e+48 -3.6987926e+49)
(-8.6454018e+49 -7.590166e+48 -3.7970921e+49)
(-6.5732577e+49 -1.0522852e+49 -1.3827322e+49)
(-9.2680307e+49 -1.0117988e+49 1.2799077e+49)
(-6.6985135e+49 -1.026776e+49 -1.0352861e+49)
(-9.3873018e+49 -7.3847773e+48 1.3898561e+49)
(-6.7782849e+49 -1.0312099e+49 -1.1822627e+49)
(-6.6332546e+49 -9.9619036e+48 -1.1620525e+49)
(-9.4617558e+49 -9.7102962e+48 1.3802842e+49)
(-9.3258217e+49 -6.2040303e+48 1.3509568e+49)
(-1.9633249e+50 -4.495605e+48 2.4082401e+49)
(-1.543035e+50 -7.3080905e+48 2.0554938e+49)
(-1.5341018e+50 -6.4044282e+48 2.0391373e+49)
(-1.964283e+50 -6.488767e+48 2.422732e+49)
(-1.5431105e+50 -6.9985303e+48 2.0177715e+49)
(-1.5309143e+50 -6.7717332e+48 2.0993322e+49)
(-1.9617585e+50 -5.3065931e+48 2.4511201e+49)
(-1.9486214e+50 -8.0509439e+48 2.4766983e+49)
(-1.5294646e+50 -7.5747801e+48 1.9835997e+49)
(-1.526605e+50 -7.0625262e+48 1.9776319e+49)
(-1.9463039e+50 -4.3411625e+48 2.3532519e+49)
(-1.9515263e+50 -6.5931466e+48 2.3643141e+49)
(-1.5210224e+50 -6.3158997e+48 2.0112274e+49)
(-1.5354368e+50 -7.3291594e+48 1.9478963e+49)
(-1.9577666e+50 -5.2798972e+48 2.3451873e+49)
(-1.9465002e+50 -7.4434989e+48 2.3637989e+49)
(-1.3203315e+50 -5.8247274e+48 1.9446927e+49)
(-1.3213622e+50 -7.5739986e+48 1.9575438e+49)
(-1.6998723e+50 -4.4920914e+48 2.0711526e+49)
(-1.6986943e+50 -5.6027962e+48 2.0361733e+49)
(-1.3219643e+50 -4.9914836e+48 2.0231141e+49)
(-1.3199392e+50 -6.2871832e+48 1.9271741e+49)
(-1.6947622e+50 -4.5538796e+48 2.0944536e+49)
(-1.6891551e+50 -6.5023615e+48 2.0825539e+49)
(-1.3212073e+50 -6.6137515e+48 1.9821881e+49)
(-1.3247803e+50 -7.3403861e+48 2.0005169e+49)
(-1.6892899e+50 -4.1928745e+48 2.1216954e+49)
(-1.6917621e+50 -5.9692502e+48 2.1298647e+49)
(-1.6968204e+50 -5.1248282e+48 2.0941972e+49)
(-1.3204795e+50 -7.0466977e+48 1.9241782e+49)
(-1.3278451e+50 -5.807453e+48 2.03239e+49)
(-1.6988773e+50 -6.6871308e+48 2.1270789e+49)
(-1.524881e+50 -7.7761607e+48 1.9530335e+49)
(-1.5202956e+50 -7.485182e+48 1.9460824e+49)
(-1.9365744e+50 -4.5054032e+48 2.3180116e+49)
(-1.9386035e+50 -6.7553482e+48 2.3256281e+49)
(-1.9429987e+50 -5.6244954e+48 2.3153346e+49)
(-1.5290888e+50 -7.9335878e+48 1.9119972e+49)
(-1.519073e+50 -7.1072774e+48 2.0003817e+49)
(-1.9333905e+50 -7.8535678e+48 2.3520824e+49)
(-1.519756e+50 -7.9180256e+48 1.9144585e+49)
(-1.5090698e+50 -6.7521389e+48 1.8973195e+49)
(-1.9271924e+50 -4.934471e+48 2.2455775e+49)
(-1.9263835e+50 -6.6000451e+48 2.2478197e+49)
(-1.9282874e+50 -5.1007686e+48 2.3348864e+49)
(-1.5187138e+50 -7.0159789e+48 1.9160181e+49)
(-1.5063493e+50 -6.4916477e+48 2.002939e+49)
(-1.9149864e+50 -7.6091294e+48 2.3615986e+49)
(-2.2501452e+50 -1.0717608e+48 -1.076534e+49)
(-1.8940245e+50 -1.6769941e+48 -6.343242e+48)
(-1.8941666e+50 -2.0985414e+48 -6.8060357e+48)
(-2.2655705e+50 -1.9986147e+48 -9.1725991e+48)
(-1.9148139e+50 -1.9563732e+48 -8.9485185e+48)
(-1.9139926e+50 -1.4672037e+48 -8.4330202e+48)
(-1.8291962e+50 -1.8417799e+48 -6.5564664e+48)
(-1.8497504e+50 -1.9315519e+48 -5.8303319e+48)
(-1.8304175e+50 -1.9701975e+48 -6.8705552e+48)
(-2.2456568e+50 -2.0018163e+48 -1.1336096e+49)
(-2.2386407e+50 -4.8300018e+47 -1.2866594e+49)
(-2.3073579e+50 -1.6243314e+48 -1.1504672e+49)
(-2.2898759e+50 -1.438646e+48 -1.4851471e+49)
(-2.2996354e+50 3.8965721e+46 -1.5730621e+49)
(-2.2878117e+50 -2.9857304e+47 -1.3784727e+49)
(-2.203987e+50 -5.5964255e+48 6.2103296e+48)
(-2.20277e+50 -3.6334315e+48 6.2311744e+48)
(-2.3000471e+50 -3.3513297e+48 1.7011642e+49)
(-2.2993943e+50 -6.9028958e+48 1.6829639e+49)
(-2.3103668e+50 -3.8863593e+48 1.7722252e+49)
(-2.2030147e+50 -6.0205673e+48 7.6584329e+48)
(-2.2082558e+50 -3.3441099e+48 6.7589581e+48)
(-2.2869546e+50 -7.5108455e+48 1.789976e+49)
(-2.2417325e+50 -3.2333439e+48 2.2486692e+48)
(-2.171153e+50 -3.0143618e+48 -4.1653341e+48)
(-2.1634735e+50 -4.2922746e+48 -3.5401342e+48)
(-2.2293951e+50 -5.5398792e+48 2.7822523e+48)
(-2.2466337e+50 -3.3534729e+48 1.9278085e+48)
(-2.1673637e+50 -3.7739699e+48 -4.6934194e+48)
(-2.1637572e+50 -3.367641e+48 -4.5577627e+48)
(-2.2429539e+50 -5.0045574e+48 1.7659248e+48)
(-2.1856608e+50 -2.6813383e+48 -4.6922359e+48)
(-2.1446717e+50 -2.7743317e+48 -8.2578086e+48)
(-2.1490475e+50 -2.6584301e+48 -8.1791327e+48)
(-2.1799925e+50 -3.5941895e+48 -4.873444e+48)
(-2.1993158e+50 -2.5736474e+48 -8.2636361e+48)
(-2.1774768e+50 -1.7166131e+48 -1.0140218e+49)
(-2.1575805e+50 -1.9596837e+48 -1.0802483e+49)
(-2.1655645e+50 -2.609806e+48 -1.1077063e+49)
(-2.1809759e+50 -2.7542775e+48 -9.2658748e+48)
(-2.5059467e+50 -3.0763274e+48 -1.1861588e+49)
(-2.1747515e+50 -2.8006635e+48 -8.8317945e+48)
(-2.1271583e+50 -3.0673671e+48 -8.7178563e+48)
(-2.1583495e+50 -3.0703648e+48 -6.1235954e+48)
(-2.1307692e+50 -3.1129125e+48 -9.2790282e+48)
(-2.1489534e+50 -3.6871506e+48 -5.8045922e+48)
(-2.4212056e+50 -2.2332133e+48 -1.6531456e+49)
(-2.2029422e+50 -2.9985752e+48 -5.6195067e+48)
(-2.1675214e+50 -2.5736399e+48 -9.3709296e+48)
(-2.1673394e+50 -3.0537401e+48 -9.109835e+48)
(-2.2035162e+50 -3.4715891e+48 -5.7950045e+48)
(-2.2229855e+50 -2.4147816e+48 -9.4799055e+48)
(-2.2222113e+50 -2.4613018e+48 -9.1421933e+48)
(-2.2041355e+50 -2.4343276e+48 -1.1075988e+49)
(-2.2027563e+50 -1.4607148e+48 -1.1646049e+49)
(-2.5837092e+50 -2.0105862e+48 -1.351484e+49)
(-2.2026514e+50 -2.306298e+48 -9.9244144e+48)
(-2.2117242e+50 -2.1126691e+48 -1.0171527e+49)
(-2.2272728e+50 -2.3887415e+48 -8.3807071e+48)
(-2.574386e+50 -3.1195893e+48 -1.1835903e+49)
(-2.2184699e+50 -3.2133519e+48 -8.0146425e+48)
(-2.4848949e+50 -1.039664e+48 -1.9572038e+49)
(-2.5033097e+50 -1.5251876e+48 -1.6827044e+49)
(-2.1714205e+50 -3.3534445e+48 -7.8500298e+48)
(-2.1896531e+50 -3.8784081e+48 -5.1276868e+48)
(-2.1761198e+50 -2.707297e+48 -8.3871043e+48)
(-2.2009646e+50 -2.7854428e+48 -5.4718528e+48)
(-2.4684731e+50 1.6644659e+48 -2.5198997e+49)
(-2.4776999e+50 -3.5622262e+48 -2.5580685e+49)
(-2.8093011e+50 -3.4949092e+48 -8.8879735e+48)
(-2.2655758e+50 -9.3861546e+47 -2.1048416e+49)
(-2.504755e+50 -1.98157e+48 -1.5573428e+49)
(-2.5758219e+50 -1.1232252e+48 -1.8600673e+49)
(-2.2841416e+50 5.9612619e+46 -2.3240961e+49)
(-2.5856489e+50 -1.8327673e+48 -1.566991e+49)
(-2.3108825e+50 -1.2374463e+48 -2.2493068e+49)
(-2.1842569e+50 -5.855302e+48 7.0611992e+48)
(-2.1841112e+50 -3.6086825e+48 7.086833e+48)
(-2.2705904e+50 -3.3775728e+48 1.7047085e+49)
(-2.2753672e+50 -6.9050454e+48 1.7111692e+49)
(-2.1477542e+50 -3.1129816e+48 -3.5416799e+48)
(-2.2176562e+50 -5.193703e+48 2.4999963e+48)
(-2.2209215e+50 -3.139161e+48 2.6834249e+48)
(-2.1465607e+50 -4.0758965e+48 -3.6991448e+48)
(-2.1234986e+50 -4.2463304e+48 -4.2471135e+48)
(-2.1298917e+50 -3.4075974e+48 -4.7866876e+48)
(-2.1984772e+50 -3.5753851e+48 1.5483499e+48)
(-2.1880806e+50 -5.4903903e+48 1.9732909e+48)
(-2.164259e+50 -5.9212411e+48 6.8289848e+48)
(-2.2402014e+50 -6.9738703e+48 1.6290764e+49)
(-2.1669941e+50 -3.668434e+48 6.0223203e+48)
(-2.2541637e+50 -3.9233451e+48 1.5949278e+49)
(-1.8881516e+50 -2.268861e+48 -7.2653513e+48)
(-1.8796181e+50 -2.1264528e+48 -7.7919769e+48)
(-2.2536378e+50 -1.6709242e+48 -1.0201413e+49)
(-1.9000915e+50 -1.9100387e+48 -1.0024799e+49)
(-1.9067072e+50 -2.0447985e+48 -9.5150616e+48)
(-1.8818716e+50 -2.4558297e+48 -7.2194709e+48)
(-1.8854905e+50 -2.458448e+48 -7.0468937e+48)
(-2.2466285e+50 -2.1706272e+48 -1.0038158e+49)
(-1.9055386e+50 -2.2093823e+48 -9.1099892e+48)
(-1.9020117e+50 -2.1972413e+48 -9.3911338e+48)
(-1.8178721e+50 -2.6306115e+48 -7.3114059e+48)
(-1.838316e+50 -2.6783693e+48 -6.4115396e+48)
(-1.8212826e+50 -2.4180586e+48 -7.1097345e+48)
(-1.8430393e+50 -2.6907975e+48 -6.2776018e+48)
(-2.2410323e+50 -1.1451117e+48 -1.2289945e+49)
(-2.2365299e+50 -2.116999e+48 -1.2007366e+49)
(-1.8233097e+50 -2.4909219e+48 -7.4693962e+48)
(-1.843029e+50 -2.4730949e+48 -6.6140232e+48)
(-1.8164042e+50 -2.1446661e+48 -7.8159099e+48)
(-1.8361953e+50 -2.3790035e+48 -6.9048659e+48)
(-1.8030195e+50 -2.2720798e+48 -7.3075493e+48)
(-1.7966536e+50 -2.1442341e+48 -7.4091189e+48)
(-1.8277082e+50 -2.3820347e+48 -6.4615304e+48)
(-1.8212001e+50 -2.5157494e+48 -6.4804942e+48)
(-1.8014496e+50 -2.5307082e+48 -7.4255021e+48)
(-1.8276561e+50 -2.6362729e+48 -6.5976491e+48)
(-1.8095862e+50 -2.2681934e+48 -7.3375233e+48)
(-1.8348703e+50 -2.6044264e+48 -6.5071383e+48)
(-1.7859706e+50 -2.4463278e+48 -6.5595786e+48)
(-1.8276799e+50 -2.422079e+48 -4.8931503e+48)
(-1.7811619e+50 -2.6106139e+48 -6.4837041e+48)
(-1.7840195e+50 -2.7404655e+48 -6.7107507e+48)
(-1.8273135e+50 -2.6599064e+48 -5.0098194e+48)
(-1.7919395e+50 -2.6942159e+48 -6.5394409e+48)
(-1.8342808e+50 -3.0424842e+48 -4.8984084e+48)
(-1.8919536e+50 -1.9351985e+48 -7.3464456e+48)
(-1.8823828e+50 -1.8871259e+48 -7.8181521e+48)
(-2.2607278e+50 -2.0170286e+48 -1.0719488e+49)
(-1.9036098e+50 -1.7205826e+48 -1.007436e+49)
(-1.9116335e+50 -1.7372897e+48 -9.559982e+48)
(-1.8930299e+50 -2.0960177e+48 -7.3610254e+48)
(-1.8985255e+50 -2.1193198e+48 -7.5937681e+48)
(-2.2741979e+50 -2.3236245e+48 -1.064705e+49)
(-1.9196856e+50 -1.9262442e+48 -9.7534792e+48)
(-1.9129648e+50 -1.87198e+48 -9.5214639e+48)
(-1.8271137e+50 -2.0743343e+48 -7.4861796e+48)
(-1.8468084e+50 -2.101171e+48 -6.6333048e+48)
(-1.8197844e+50 -1.8431138e+48 -7.7610875e+48)
(-1.8392819e+50 -2.1147215e+48 -6.8489908e+48)
(-1.8267528e+50 -2.2663882e+48 -7.5307729e+48)
(-1.8468402e+50 -2.3391551e+48 -6.6986223e+48)
(-1.833075e+50 -2.0106616e+48 -7.6027351e+48)
(-1.8545349e+50 -2.2995676e+48 -6.7216105e+48)
(-2.2676491e+50 -2.3388372e+48 -1.2847645e+49)
(-2.2534037e+50 -1.3201403e+48 -1.2902471e+49)
(-1.798869e+50 -2.6960625e+48 -7.2622482e+48)
(-1.8238086e+50 -2.7773638e+48 -6.4317023e+48)
(-1.7926803e+50 -2.4710783e+48 -7.4555862e+48)
(-1.8172935e+50 -2.7960149e+48 -6.5520034e+48)
(-1.7936558e+50 -2.8501527e+48 -7.0663256e+48)
(-1.8193922e+50 -2.9556157e+48 -6.2106693e+48)
(-1.7989251e+50 -2.7079953e+48 -6.8597052e+48)
(-1.8237266e+50 -3.0298074e+48 -6.0867516e+48)
(-1.7774235e+50 -3.072722e+48 -6.2959543e+48)
(-1.8170778e+50 -2.9382347e+48 -4.6972509e+48)
(-1.7825397e+50 -3.1736329e+48 -6.0945274e+48)
(-1.8221096e+50 -3.4528694e+48 -4.5856847e+48)
(-1.7823293e+50 -2.9046427e+48 -6.5309082e+48)
(-1.8221682e+50 -2.8350895e+48 -4.9724801e+48)
(-1.7772165e+50 -2.9446638e+48 -6.5542496e+48)
(-1.8149191e+50 -3.2147471e+48 -5.0454139e+48)
(-2.317076e+50 -3.6255572e+47 -1.5871726e+49)
(-2.3215312e+50 -2.0456051e+48 -1.6185601e+49)
(-2.3321358e+50 -2.1993787e+48 -1.2997494e+49)
(-2.309059e+50 -1.115573e+48 -1.3613008e+49)
(-2.3014669e+50 -3.2058171e+47 -1.5433474e+49)
(-2.2956779e+50 -1.2340504e+48 -1.4932967e+49)
(-2.2853972e+50 -1.6228307e+48 -1.2942667e+49)
(-2.2904116e+50 -9.0150508e+47 -1.341201e+49)
(-1.7955207e+50 -2.8545144e+48 -5.7683056e+48)
(-1.8040542e+50 -3.0705773e+48 -5.5779858e+48)
(-1.845785e+50 -2.9583589e+48 -4.23547e+48)
(-1.852075e+50 -3.422201e+48 -4.0971576e+48)
(-1.8190789e+50 -3.1151066e+48 -3.8396824e+48)
(-1.8899519e+50 -3.039203e+48 1.8911563e+47)
(-1.8264298e+50 -3.5728428e+48 -3.6351557e+48)
(-1.8960841e+50 -4.0012238e+48 3.0508157e+47)
(-1.7981637e+50 -2.6005092e+48 -5.6650968e+48)
(-1.846313e+50 -2.8058016e+48 -4.143706e+48)
(-1.8081149e+50 -3.4019582e+48 -3.4262744e+48)
(-1.8140466e+50 -4.0594324e+48 -3.2328411e+48)
(-1.877907e+50 -3.241085e+48 6.6201545e+47)
(-1.8832129e+50 -4.4469749e+48 7.4070785e+47)
(-1.7926517e+50 -3.0434453e+48 -5.6795323e+48)
(-1.8397595e+50 -3.2069481e+48 -4.157437e+48)
(-1.7872537e+50 -3.3018752e+48 -5.6429377e+48)
(-1.8338129e+50 -3.7291274e+48 -4.0778748e+48)
(-1.7862235e+50 -3.1227764e+48 -5.4265383e+48)
(-1.834366e+50 -3.2197146e+48 -3.8986148e+48)
(-1.792818e+50 -3.5070233e+48 -5.2335866e+48)
(-1.8391313e+50 -3.8065288e+48 -3.7856089e+48)
(-1.8147036e+50 -3.3321793e+48 -3.7513516e+48)
(-1.8114027e+50 -3.8988865e+48 -3.5502576e+48)
(-1.8834221e+50 -3.385866e+48 2.1208137e+47)
(-1.8770249e+50 -4.3894878e+48 3.4509108e+47)
(-1.8640113e+50 -3.4789357e+48 1.9327567e+48)
(-1.935752e+50 -3.8017706e+48 7.8707995e+48)
(-1.8599174e+50 -4.6739149e+48 2.242881e+48)
(-1.9310807e+50 -5.5853106e+48 8.2222138e+48)
(-1.8855012e+50 -3.7255437e+48 1.1592445e+49)
(-1.9669402e+50 -4.1465253e+48 1.8592783e+49)
(-1.88451e+50 -5.9441057e+48 1.2164675e+49)
(-1.9611574e+50 -6.7243014e+48 1.8942857e+49)
(-1.8563922e+50 -3.3499632e+48 2.4538518e+48)
(-1.9298922e+50 -3.3962562e+48 8.4416626e+48)
(-1.8640628e+50 -4.785912e+48 2.5812575e+48)
(-1.9341637e+50 -5.30733e+48 8.4218502e+48)
(-1.8792243e+50 -3.5124054e+48 1.2418336e+49)
(-1.959494e+50 -3.5176692e+48 1.9497811e+49)
(-1.8850742e+50 -5.8539841e+48 1.2418288e+49)
(-1.9653231e+50 -6.2466661e+48 1.9299155e+49)
(-1.945017e+50 -3.2036513e+48 7.8835213e+48)
(-1.8686277e+50 -3.1632638e+48 1.9268228e+48)
(-1.8768542e+50 -4.2206792e+48 2.1065491e+48)
(-2.3589857e+50 -2.0181186e+48 -2.5631577e+49)
(-2.5520977e+50 6.8747289e+47 -1.176325e+49)
(-2.2610928e+50 -4.9426459e+47 -1.5775822e+49)
(-2.2675186e+50 -1.3302375e+48 -1.6289292e+49)
(-2.5633224e+50 -2.1594612e+48 -1.2112654e+49)
(-2.2944604e+50 7.6879282e+47 -2.5939003e+49)
(-2.292845e+50 1.5470187e+48 -2.63002e+49)
(-2.4418811e+50 9.093047e+47 -1.8055477e+49)
(-2.4459738e+50 6.3141354e+47 -1.8902008e+49)
(-2.3466117e+50 1.4243961e+47 -2.0595374e+49)
(-2.3443408e+50 1.1480992e+47 -1.9723418e+49)
(-2.3517911e+50 -6.9025803e+47 -1.6572934e+49)
(-2.3618608e+50 2.0306212e+47 -1.6853934e+49)
(-2.4006606e+50 -1.9579266e+48 -1.6334153e+49)
(-2.3672845e+50 -1.0036406e+48 -2.1201853e+49)
(-2.3659783e+50 6.5824482e+47 -2.0534059e+49)
(-2.3835406e+50 -9.8726478e+46 -1.6670806e+49)
(-2.3109101e+50 1.7907885e+47 -2.6403825e+49)
(-2.3134403e+50 -3.6585633e+47 -2.6567142e+49)
(-2.4686783e+50 -1.0252625e+48 -1.9480782e+49)
(-2.4662957e+50 1.3492626e+47 -1.9045196e+49)
(-2.3037968e+50 -1.0845961e+48 -2.4846875e+49)
(-2.4527763e+50 -1.0753926e+48 -1.5482217e+49)
(-2.4574062e+50 -5.7188552e+47 -1.7266364e+49)
(-2.3565907e+50 -1.2887288e+48 -1.553472e+49)
(-2.3443758e+50 -8.4767028e+47 -1.8314366e+49)
(-2.3428579e+50 -1.538635e+47 -2.0561648e+49)
(-2.3654592e+50 -8.0390318e+46 -1.6433994e+49)
(-1.8539756e+50 -3.4419813e+48 1.8052772e+49)
(-1.8490228e+50 -6.3262276e+48 1.8712258e+49)
(-1.8543273e+50 -3.0646105e+48 1.7811028e+49)
(-1.8622819e+50 -5.5395808e+48 1.7905609e+49)
(-1.8488446e+50 -3.4952101e+48 1.7105812e+49)
(-1.8452547e+50 -5.7212225e+48 1.7684291e+49)
(-1.8378544e+50 -3.1213036e+48 1.7693818e+49)
(-1.8507501e+50 -5.8709113e+48 1.7804288e+49)
(-1.6094046e+50 -3.1839947e+48 1.6788462e+49)
(-1.6128455e+50 -5.5335997e+48 1.6718988e+49)
(-1.611004e+50 -3.7994524e+48 1.5897792e+49)
(-1.6163638e+50 -5.774391e+48 1.6253518e+49)
(-1.6103743e+50 -3.4212847e+48 1.554534e+49)
(-1.6143675e+50 -5.1580783e+48 1.5509716e+49)
(-1.6075548e+50 -3.2504061e+48 1.5874341e+49)
(-1.6103392e+50 -5.6925488e+48 1.628786e+49)
(-1.8321575e+50 -3.3082404e+48 1.7696839e+49)
(-1.8408123e+50 -5.9601553e+48 1.7766266e+49)
(-1.8390539e+50 -3.8537917e+48 1.7049546e+49)
(-1.8363457e+50 -6.2289225e+48 1.7775497e+49)
(-1.8210727e+50 -3.5796529e+48 1.6838977e+49)
(-1.8268531e+50 -5.6772954e+48 1.6870943e+49)
(-1.8209608e+50 -3.3825207e+48 1.713166e+49)
(-1.8162394e+50 -5.9378523e+48 1.7837219e+49)
(-2.8347839e+50 -8.8106371e+48 -1.4553539e+49)
(-2.8563537e+50 -1.0368717e+49 -1.3820716e+49)
(-2.8946799e+50 -6.4872339e+48 -2.9538908e+48)
(-2.4501221e+50 -5.0537716e+48 -1.5412889e+49)
(-2.469049e+50 -1.7078631e+48 -1.5438259e+49)
(-2.4607127e+50 -4.5713683e+48 -2.7352045e+49)
(-1.9451207e+50 -1.672696e+48 -3.3802506e+49)
(-1.9476196e+50 -4.9223568e+48 -3.4498762e+49)
(-2.475546e+50 -5.8857646e+48 -2.668641e+49)
(-1.9545598e+50 -1.8747005e+48 -3.3700393e+49)
(-1.9544873e+50 -5.4737381e+48 -3.4433085e+49)
(-2.4792926e+50 -2.7742093e+48 -1.4741846e+49)
(-2.4993555e+50 -5.2642251e+48 -2.6029332e+49)
(-1.9687973e+50 -2.2080348e+48 -3.3320497e+49)
(-1.9660067e+50 -5.3066274e+48 -3.3711437e+49)
(-2.5016794e+50 -6.5957627e+48 -2.7300914e+49)
(-1.9758872e+50 -2.2811136e+48 -3.4076481e+49)
(-1.9755115e+50 -6.3482845e+48 -3.5056712e+49)
(-2.4632098e+50 -6.0600948e+48 -1.5161024e+49)
(-1.6988849e+50 -6.3246064e+48 -4.1748437e+49)
(-1.7009853e+50 -5.4507399e+48 -4.1235667e+49)
(-1.7129835e+50 -5.7138899e+48 -4.121023e+49)
(-1.7071318e+50 -6.6633354e+48 -4.1811456e+49)
(-1.1664636e+50 -3.1143424e+48 -3.4657765e+49)
(-1.1656871e+50 -3.709167e+48 -3.4376353e+49)
(-8.6393391e+49 -5.708285e+48 -3.7079364e+49)
(-8.4796183e+49 -5.5371551e+48 -3.6872774e+49)
(-1.1674463e+50 -3.0480278e+48 -3.4839745e+49)
(-1.1637877e+50 -4.6518964e+48 -3.5260049e+49)
(-8.4524345e+49 -6.5545625e+48 -3.7874521e+49)
(-8.589477e+49 -5.0796938e+48 -3.6858358e+49)
(-6.552766e+49 -9.6334102e+48 -1.3855892e+49)
(-9.2064853e+49 -9.6946116e+48 1.2198927e+49)
(-6.5596815e+49 -8.8827463e+48 -1.0998596e+49)
(-9.2417849e+49 -6.5436914e+48 1.3035432e+49)
(-6.6600925e+49 -8.7005628e+48 -1.1871405e+49)
(-9.413962e+49 -8.3138462e+48 1.3865922e+49)
(-6.5074589e+49 -8.9347619e+48 -1.1485259e+49)
(-9.2072474e+49 -5.3587262e+48 1.3508126e+49)
(-1.1651882e+50 -3.1655631e+48 -3.4741846e+49)
(-1.1647581e+50 -3.7468653e+48 -3.4494596e+49)
(-8.6209705e+49 -5.9740328e+48 -3.6939803e+49)
(-8.478407e+49 -5.8841039e+48 -3.6752418e+49)
(-1.1616726e+50 -2.9655824e+48 -3.4673764e+49)
(-1.1601245e+50 -4.3798543e+48 -3.5126004e+49)
(-8.5760298e+49 -5.3173853e+48 -3.6528558e+49)
(-8.4359934e+49 -6.4023258e+48 -3.7610213e+49)
(-6.4771037e+49 -9.8626615e+48 -1.4313049e+49)
(-6.5487793e+49 -9.7506134e+48 -1.1435854e+49)
(-9.2288386e+49 -7.8213705e+48 1.2956977e+49)
(-9.0875122e+49 -9.7281358e+48 1.1837879e+49)
(-9.4078439e+49 -9.8454192e+48 1.3551159e+49)
(-9.2389385e+49 -6.8126487e+48 1.3258603e+49)
(-6.6581473e+49 -9.5656603e+48 -1.2123269e+49)
(-6.4875977e+49 -9.3830653e+48 -1.2050206e+49)
(-1.7166381e+50 -6.6265147e+48 -4.1330187e+49)
(-1.7244517e+50 -6.0015616e+48 -4.1189011e+49)
(-1.7301878e+50 -5.846925e+48 -4.1539111e+49)
(-1.7219782e+50 -7.2166036e+48 -4.2416138e+49)
(-1.1773103e+50 -3.8240019e+48 -3.5204144e+49)
(-8.6233378e+49 -5.8193204e+48 -3.7355577e+49)
(-8.5247896e+49 -7.5009019e+48 -3.8278437e+49)
(-1.1746636e+50 -5.5544413e+48 -3.5734314e+49)
(-6.6610307e+49 -9.23591e+48 -9.8029792e+48)
(-6.6191024e+49 -9.3538558e+48 -1.2848727e+49)
(-9.3845473e+49 -8.7857906e+48 1.3123021e+49)
(-9.4506166e+49 -6.3119228e+48 1.4046267e+49)
(-6.6831706e+49 -9.262652e+48 -1.1714077e+49)
(-9.4979699e+49 -8.5209052e+48 1.4086752e+49)
(-9.3529018e+49 -6.2706899e+48 1.4240767e+49)
(-6.5431225e+49 -9.7954564e+48 -1.1871681e+49)
(-1.1767775e+50 -4.2264237e+48 -3.4619903e+49)
(-1.1765839e+50 -3.309442e+48 -3.487643e+49)
(-8.6646527e+49 -5.6757408e+48 -3.7491588e+49)
(-8.5363907e+49 -6.1313748e+48 -3.7207573e+49)
(-1.1748751e+50 -3.4315884e+48 -3.4675679e+49)
(-1.1737042e+50 -4.0396191e+48 -3.433025e+49)
(-8.6949057e+49 -6.0404632e+48 -3.727147e+49)