/*--------------------------------*- C++ -*----------------------------------*\
  =========                 |
  \\      /  F ield         | OpenFOAM: The Open Source CFD Toolbox
   \\    /   O peration     | Website:  https://openfoam.org
    \\  /    A nd           | Version:  7
     \\/     M anipulation  |
\*---------------------------------------------------------------------------*/
FoamFile
{
    version     2.0;
    format      ascii;
    class       volScalarField;
    location    "0";
    object      alphat;
}
// * * * * * * * * * * * * * * * * * * * * * * * * * * * * * * * * * * * * * //

dimensions      [1 -1 -1 0 0 0 0];

internalField   uniform 0;

boundaryField
{
    frontAndBack
    {
        type            calculated;
        value           uniform 0;
    }
    inlet
    {
        type            calculated;
        value           nonuniform 0();
    }
    outlet
    {
        type            calculated;
        value           uniform 0;
    }
    solidWall
    {
        type            compressible::alphatWallFunction;
        value           nonuniform 0();
    }
    procBoundary1to0
    {
        type            processor;
        value           uniform 0;
    }
    procBoundary1to4
    {
        type            processor;
        value           uniform 0;
    }
    procBoundary1to6
    {
        type            processor;
        value           uniform 0;
    }
    procBoundary1to7
    {
        type            processor;
        value           uniform 0;
    }
    procBoundary1to8
    {
        type            processor;
        value           uniform 0;
    }
    procBoundary1to9
    {
        type            processor;
        value           uniform 0;
    }
    procBoundary1to10
    {
        type            processor;
        value           uniform 0;
    }
    procBoundary1to11
    {
        type            processor;
        value           uniform 0;
    }
    procBoundary1to12
    {
        type            processor;
        value           uniform 0;
    }
    procBoundary1to13
    {
        type            processor;
        value           uniform 0;
    }
    procBoundary1to14
    {
        type            processor;
        value           uniform 0;
    }
    procBoundary1to15
    {
        type            processor;
        value           uniform 0;
    }
}


// ************************************************************************* //
