/*--------------------------------*- C++ -*----------------------------------*\
  =========                 |
  \\      /  F ield         | OpenFOAM: The Open Source CFD Toolbox
   \\    /   O peration     | Website:  https://openfoam.org
    \\  /    A nd           | Version:  7
     \\/     M anipulation  |
\*---------------------------------------------------------------------------*/
FoamFile
{
    version     2.0;
    format      ascii;
    class       volVectorField;
    location    "5000";
    object      U;
}
// * * * * * * * * * * * * * * * * * * * * * * * * * * * * * * * * * * * * * //

dimensions      [0 1 -1 0 0 0 0];

internalField   nonuniform List<vector> 
34222
(
(-1.5243665e+30 2.1550015e+29 -1.4213758e+29)
(-1.8046151e+30 1.3459482e+29 1.2707949e+29)
(-1.5600539e+30 1.8954229e+29 -6.9240794e+28)
(-1.2481918e+30 1.2239521e+29 9.2199036e+28)
(-1.1723189e+30 2.0193682e+29 8.5801927e+28)
(-1.1317274e+30 2.0198254e+29 -2.7585782e+29)
(-1.1047651e+30 2.3791962e+29 -2.7758484e+29)
(-1.8756743e+30 1.0596173e+29 9.0490383e+28)
(-1.8008718e+30 1.405494e+29 1.3524176e+29)
(-1.1522075e+30 1.6269009e+29 1.5883561e+29)
(-1.2184583e+30 8.020145e+28 1.3940196e+29)
(-1.1265626e+30 1.6971786e+29 -1.8503702e+29)
(-1.1309781e+30 1.056264e+29 -1.687526e+29)
(-1.6192408e+30 1.1962597e+29 -2.3734894e+28)
(-1.2040021e+30 1.9655122e+29 -2.0693706e+29)
(-1.187542e+30 2.1340941e+29 1.1912143e+29)
(-1.3048784e+30 1.0868721e+29 1.2366898e+29)
(-1.1272626e+30 1.6466451e+29 -2.300105e+29)
(-1.070153e+30 1.7688881e+29 -5.8076525e+28)
(-1.0507766e+30 1.7541623e+29 -4.6027949e+28)
(-1.0645517e+30 2.5456622e+29 -8.0780195e+28)
(-1.0740215e+30 2.2439138e+29 -8.7602608e+28)
(-1.7085342e+30 1.3847763e+29 -1.7305852e+28)
(-1.8668691e+30 1.1683578e+29 9.1304692e+28)
(-1.8591164e+30 9.5336042e+28 9.4612577e+28)
(-1.0802028e+30 1.4204804e+29 -1.7105652e+29)
(-1.1785233e+30 5.5813763e+28 1.4147124e+29)
(-1.172992e+30 1.3600912e+29 1.5041511e+29)
(-1.156461e+30 7.82771e+28 -1.5217322e+29)
(-1.8558135e+30 1.1245628e+29 1.6568468e+29)
(-1.1836547e+30 1.5870816e+29 -1.6873506e+29)
(-1.2418475e+30 7.6824879e+28 1.3922406e+29)
(-1.1649334e+30 1.7386624e+29 1.5733893e+29)
(-1.1512983e+30 1.2293617e+29 -1.5248185e+29)
(-1.1035401e+30 1.3293953e+29 1.8345262e+28)
(-1.1285701e+30 1.3934985e+29 2.0134838e+28)
(-1.1346004e+30 1.5201921e+29 1.4933754e+28)
(-1.095916e+30 1.4013557e+29 2.1818275e+28)
(-1.6318543e+30 4.4658187e+28 2.9529158e+28)
(-1.2392626e+30 1.1021912e+29 -1.9615404e+29)
(-1.3022975e+30 4.5065239e+28 1.3445063e+29)
(-1.2538763e+30 1.5598342e+29 1.315779e+29)
(-1.2116452e+30 1.0144705e+29 -1.9541025e+29)
(-1.17485e+30 1.8258351e+29 -6.7284248e+28)
(-1.0541215e+30 1.9108851e+29 -5.2607544e+28)
(-1.1801097e+30 1.6269518e+29 -5.2582947e+28)
(-1.0604571e+30 2.1236174e+29 -7.8897959e+28)
(-7.8609436e+29 1.8852362e+29 -6.1481239e+28)
(-7.5304705e+29 1.9057781e+29 -5.3494416e+28)
(-9.3696232e+29 2.6429357e+29 -8.4100194e+28)
(-9.9473739e+29 2.3457651e+29 -8.552212e+28)
(-1.5912955e+30 1.5345834e+29 -7.2493585e+28)
(-1.3832378e+30 1.4791336e+29 6.2638197e+28)
(-1.4102593e+30 3.7835187e+28 8.5233583e+28)
(-1.8156942e+30 6.9988628e+28 2.738433e+28)
(-1.3770508e+30 1.2190152e+29 2.4332914e+29)
(-1.3208445e+30 9.827004e+28 2.4845814e+29)
(-1.8902457e+30 1.1413033e+29 9.6639212e+28)
(-1.8546156e+30 1.0397162e+29 9.2909229e+28)
(-1.1067526e+30 1.4522124e+29 -1.6633559e+29)
(-1.1897574e+30 6.6761338e+28 1.3575703e+29)
(-1.1746823e+30 1.4549871e+29 1.5597125e+29)
(-1.1380169e+30 8.6819217e+28 -1.4596814e+29)
(-1.1978462e+30 4.8773222e+28 1.520575e+29)
(-1.0683495e+30 1.2794081e+29 -1.8134202e+29)
(-1.1221965e+30 5.8959829e+28 -1.6910227e+29)
(-1.1962843e+30 1.2539462e+29 1.7189952e+29)
(-1.1139341e+30 1.2333718e+29 3.3622273e+28)
(-1.1269528e+30 1.0999231e+29 -5.074123e+27)
(-1.1561813e+30 1.0633072e+29 -1.4315835e+28)
(-1.1790594e+30 1.1806406e+29 2.2783139e+28)
(-1.4657284e+30 1.0789996e+29 3.1737833e+28)
(-1.45036e+30 6.3785269e+28 3.5481745e+28)
(-1.8824609e+30 8.753589e+28 2.0425278e+29)
(-1.1924484e+30 1.4794997e+29 1.5532526e+29)
(-1.2502511e+30 3.9546531e+28 1.4768761e+29)
(-1.208737e+30 1.0842392e+29 -1.6307586e+29)
(-1.1862925e+30 7.9965224e+28 -1.4760109e+29)
(-1.1783207e+30 1.4112662e+29 3.2776828e+27)
(-1.1496239e+30 1.3041084e+29 1.4871146e+28)
(-1.0859694e+30 1.5067887e+29 1.5652481e+28)
(-1.0763164e+30 1.7004663e+29 8.6746713e+27)
(-1.1557404e+30 1.2652984e+29 2.5361672e+27)
(-1.056543e+30 1.3107452e+29 -1.3834174e+27)
(-8.0928868e+29 1.5627761e+29 -3.1905003e+28)
(-8.8279603e+29 1.3692105e+29 -2.2365919e+28)
(-1.2637194e+30 -4.1273082e+28 1.6014918e+29)
(-1.2566488e+30 8.3338963e+28 1.4116659e+29)
(-1.2197072e+30 -3.2267161e+27 -1.905895e+29)
(-1.1963442e+30 -9.9535587e+27 -1.767926e+29)
(-1.2335693e+30 9.2953576e+28 -3.7696328e+28)
(-1.2043694e+30 9.2837631e+28 -2.5387269e+28)
(-1.1426089e+30 1.2920475e+29 -3.6149723e+28)
(-1.1634797e+30 1.4153263e+29 -5.1225027e+28)
(-1.0625788e+30 1.9124815e+29 -7.9472348e+28)
(-8.226568e+29 1.9638231e+29 -5.4890324e+28)
(-9.2541716e+29 1.6562399e+29 -5.9093098e+28)
(-9.9787979e+29 2.2127632e+29 -7.9664509e+28)
(-9.3838991e+29 1.7200083e+29 -3.6290892e+28)
(-8.9882259e+29 1.7288133e+29 -2.8740468e+28)
(-1.1008363e+30 2.1260575e+29 -4.0867131e+28)
(-1.1322055e+30 1.9310446e+29 -4.6821729e+28)
(-1.4028494e+30 1.4072405e+29 -1.9860878e+29)
(-1.1495438e+30 1.936676e+29 3.5794688e+28)
(-1.4149314e+30 2.1438337e+28 -1.9911637e+29)
(-1.5258301e+30 7.2976908e+28 -6.4579049e+28)
(-1.1964931e+30 8.3580167e+27 5.8953161e+28)
(-1.1319095e+30 9.1296306e+28 7.9761229e+28)
(-9.4558458e+29 9.8546305e+27 1.0698964e+29)
(-1.3107546e+30 8.2089988e+28 2.2170688e+29)
(-1.1491916e+30 3.1335039e+28 9.3630188e+28)
(-1.3082977e+30 8.2836912e+28 2.292435e+29)
(-1.1560821e+30 8.0822438e+28 9.0893312e+28)
(-1.164394e+30 1.9802018e+28 1.0749853e+29)
(-1.2815517e+30 7.3297114e+28 2.4348968e+29)
(-1.3963441e+30 1.2510098e+29 7.4942771e+28)
(-1.2937937e+30 6.6602442e+28 2.2986075e+29)
(-1.4490712e+30 -2.6276571e+27 1.1359996e+29)
(-1.3235389e+30 8.1693973e+28 2.4515588e+29)
(-1.3160172e+30 4.9933763e+28 2.8262588e+29)
(-1.7206516e+30 -2.2268672e+27 7.0244611e+28)
(-1.5116552e+30 3.6802997e+28 1.6172991e+29)
(-1.4408538e+30 9.1394494e+28 -1.6519339e+29)
(-1.9164622e+30 1.110599e+29 9.7151951e+28)
(-1.4239766e+30 5.0863569e+28 -1.5304846e+29)
(-1.8694124e+30 1.08911e+29 9.0781045e+28)
(-1.1365263e+30 1.2189184e+29 -1.7003611e+29)
(-1.2266025e+30 5.3345601e+28 1.3844157e+29)
(-1.1834337e+30 1.4382221e+29 1.4794827e+29)
(-1.1426794e+30 7.6565339e+28 -1.4992425e+29)
(-1.4740496e+30 1.2268403e+29 1.6505627e+29)
(-1.2012242e+30 1.2943012e+29 1.4748055e+29)
(-1.206809e+30 4.569499e+28 1.4450843e+29)
(-1.0792781e+30 1.3243797e+29 -1.8058541e+29)
(-1.1480537e+30 6.5657955e+28 -1.6674245e+29)
(-1.1146306e+30 1.3057369e+29 3.4584863e+28)
(-1.1150294e+30 1.2539337e+29 -2.5095752e+27)
(-1.1340001e+30 1.181725e+29 -7.8117027e+27)
(-1.1147672e+30 1.3101969e+29 3.085405e+28)
(-1.1138628e+30 1.110339e+29 -3.7195053e+28)
(-1.125435e+30 1.0757171e+29 -1.9144756e+28)
(-1.1540177e+30 1.0213697e+29 -1.0275096e+28)
(-1.1571976e+30 9.4953153e+28 -2.246805e+28)
(-1.2211316e+30 1.1468267e+29 5.8604098e+27)
(-1.2085146e+30 1.0615906e+29 -4.031076e+27)
(-1.0416319e+30 1.0572117e+29 -6.2724319e+27)
(-1.2453023e+30 1.162471e+29 2.2502869e+27)
(-1.3161729e+30 7.4387609e+28 8.9070031e+28)
(-1.1419167e+30 5.6352638e+28 1.1254252e+29)
(-1.3445226e+30 6.5647844e+28 9.6244847e+28)
(-1.3266865e+30 6.2195556e+28 8.604576e+28)
(-1.3260748e+30 5.7587074e+28 1.0360697e+29)
(-1.4433251e+30 8.6747725e+28 2.1136253e+28)
(-1.4643809e+30 4.0094489e+28 5.7862018e+28)
(-1.9258143e+30 8.5191281e+28 2.5140604e+29)
(-1.2735609e+30 8.0146539e+27 1.7004127e+29)
(-1.1900761e+30 1.1544462e+29 1.6675708e+29)
(-1.163851e+30 2.8927832e+28 -1.4937702e+29)
(-1.2026596e+30 5.8216934e+28 -1.5312327e+29)
(-1.1169942e+30 1.1873087e+29 2.2376746e+28)
(-1.1642961e+30 8.8267681e+28 2.1810162e+28)
(-1.2224494e+30 8.5791051e+28 2.9402797e+28)
(-1.1374553e+30 1.1616054e+29 2.3081366e+28)
(-8.9582121e+29 1.3801626e+29 -3.472551e+28)
(-9.8184683e+29 1.2090248e+29 -1.3950886e+27)
(-9.8936327e+29 1.4407853e+29 -1.7199056e+27)
(-8.1923726e+29 1.7152547e+29 -2.9796864e+28)
(-7.7494806e+29 1.2876994e+29 -1.0233354e+28)
(-8.3013791e+29 1.3613155e+29 -1.3238676e+28)
(-8.6968396e+29 1.533985e+29 -2.4547707e+28)
(-7.8443208e+29 1.4463553e+29 -2.0802951e+28)
(-1.1887919e+30 5.4749233e+27 7.9278352e+26)
(-1.1362364e+30 4.302929e+28 -2.4896081e+28)
(-1.1799249e+30 2.8324544e+28 -3.8543909e+28)
(-1.1861238e+30 -3.8492596e+28 -2.3852665e+28)
(-1.0546061e+30 9.5831869e+28 -6.8329498e+28)
(-9.4547693e+29 9.1054214e+28 -4.0301848e+28)
(-9.0908008e+29 1.2824451e+29 -4.6118588e+28)
(-1.053406e+30 1.4794371e+29 -6.9485903e+28)
(-1.1369365e+30 1.6937048e+29 -5.1502847e+28)
(-9.4687865e+29 1.8180636e+29 -3.3088e+28)
(-9.8498775e+29 1.5178811e+29 -4.2306583e+28)
(-1.1069652e+30 1.8896602e+29 -4.5374517e+28)
(-1.2377092e+30 3.684315e+28 -8.6227005e+28)
(-1.2172882e+30 1.670742e+29 -8.8650638e+28)
(-1.1199319e+30 3.5154599e+28 -1.1876804e+29)
(-1.0939233e+30 6.8269035e+28 -2.4985671e+29)
(-1.1102027e+30 6.0385973e+28 -2.3819359e+29)
(-1.1102261e+30 9.3477523e+28 -1.1624957e+29)
(-1.057925e+30 8.1920149e+28 -1.9378065e+29)
(-6.2678975e+29 -9.022251e+27 9.4699206e+28)
(-8.333191e+29 1.3550188e+29 4.2496206e+28)
(-1.0684229e+30 2.3533837e+28 -1.953922e+29)
(-8.7424713e+29 1.0423043e+28 6.8085858e+28)
(-1.3870169e+30 1.1189747e+29 -1.9360752e+29)
(-1.1305328e+30 2.837076e+28 -1.2557777e+29)
(-1.1032199e+30 6.2954012e+28 -2.5530575e+29)
(-1.1188326e+30 5.0706759e+28 -2.4540728e+29)
(-1.1200672e+30 8.2599596e+28 -1.159983e+29)
(-1.4112715e+30 -5.7991239e+27 -1.9439845e+29)
(-1.6502943e+30 2.1371207e+28 3.3212195e+28)
(-1.2333873e+30 -2.3797285e+28 7.5912088e+28)
(-1.1533179e+30 1.6846576e+29 2.7435537e+28)
(-1.0769007e+30 1.6435503e+28 -2.0195315e+29)
(-1.0680978e+30 7.238783e+28 -1.9510543e+29)
(-8.8757883e+29 -2.5089489e+27 7.0095289e+28)
(-8.5791565e+29 1.2581671e+29 5.5290634e+28)
(-9.2825495e+29 5.3527263e+28 8.375544e+28)
(-9.297833e+29 1.7178103e+28 8.8779113e+28)
(-1.1368249e+30 5.8841148e+28 1.8117481e+29)
(-1.1374634e+30 5.625912e+28 1.7698005e+29)
(-8.2088413e+29 -7.3134867e+27 1.3254155e+29)
(-8.0524392e+29 2.8154629e+28 1.1838082e+29)
(-9.7497755e+29 3.566489e+28 1.6723255e+29)
(-9.7475442e+29 3.5231842e+28 1.7398093e+29)
(-1.1434951e+30 5.5632118e+28 1.906529e+29)
(-9.4278015e+29 1.105659e+28 1.0132019e+29)
(-9.2730479e+29 5.0710113e+28 8.1410169e+28)
(-1.1435861e+30 5.2319241e+28 1.7858539e+29)
(-9.4326509e+29 9.4140661e+27 9.3985704e+28)
(-9.3656752e+29 5.0307211e+28 8.6057325e+28)
(-1.1583957e+30 4.6821733e+28 1.9075179e+29)
(-1.1417296e+30 4.6456495e+28 1.7787896e+29)
(-9.5331608e+29 5.673467e+27 1.107238e+29)
(-9.3850759e+29 4.3735302e+28 9.0714854e+28)
(-1.1415947e+30 4.7030838e+28 2.0009013e+29)
(-1.143003e+30 4.0860294e+28 1.8859106e+29)
(-1.1513171e+30 7.9323032e+28 8.8332292e+28)
(-1.2827642e+30 5.4434346e+28 2.1436333e+29)
(-1.1499263e+30 1.8927928e+28 9.6470385e+28)
(-1.276704e+30 6.1413432e+28 2.261097e+29)
(-1.4284323e+30 8.9048356e+28 1.312943e+29)
(-1.2838495e+30 4.583988e+28 2.6767702e+29)
(-1.1778116e+30 5.728e+27 1.2683047e+29)
(-1.2951311e+30 3.7364329e+28 2.4970162e+29)
(-1.1747397e+30 6.8686272e+28 1.0922414e+29)
(-1.2611354e+30 4.1953361e+28 2.8376268e+29)
(-1.2741046e+30 3.2387699e+28 3.1136961e+29)
(-1.4433928e+30 -2.2239871e+28 1.578902e+29)
(-1.1618859e+30 4.4382019e+28 4.9137366e+27)
(-1.1809288e+30 7.9281132e+28 1.4557423e+29)
(-1.3640541e+30 3.8932545e+28 1.346306e+29)
(-1.1233185e+30 3.9353501e+28 -5.4216424e+28)
(-1.3206372e+30 7.1375551e+28 -8.2446131e+28)
(-1.1555572e+30 6.7929544e+28 5.8451722e+28)
(-1.3790303e+30 9.6086388e+28 1.3453669e+29)
(-1.3463312e+30 3.3857402e+28 -7.1270553e+28)
(-1.2771734e+30 5.5851905e+28 -1.3412833e+29)
(-1.1584028e+30 5.2007097e+28 -1.6999506e+27)
(-1.3436437e+30 2.7529192e+28 3.3793753e+28)
(-1.1366907e+30 3.3137424e+28 -6.7109179e+28)
(-1.1312932e+30 5.6934738e+28 -2.2494679e+27)
(-1.3463811e+30 7.2693475e+28 2.9406896e+28)
(-1.2768407e+30 3.0049016e+28 -1.3981957e+29)
(-1.4677169e+30 2.7295658e+28 1.3949863e+29)
(-1.4613361e+30 3.8022453e+28 -1.5131617e+29)
(-1.4952193e+30 1.1061445e+29 1.8323776e+29)
(-1.4133687e+30 7.7071414e+28 -1.7570468e+29)
(-1.9486406e+30 1.1039052e+29 1.1014747e+29)
(-1.1791999e+30 1.0554695e+29 -1.7892496e+29)
(-1.2422733e+30 4.2959366e+28 1.3043204e+29)
(-1.896891e+30 1.1459487e+29 8.5922125e+28)
(-1.191702e+30 1.4103218e+29 1.5200681e+29)
(-1.1362013e+30 5.9811439e+28 -1.5384643e+29)
(-1.4984325e+30 2.0218105e+28 1.5638673e+29)
(-1.3421963e+30 7.1849492e+28 4.1203651e+28)
(-1.2757016e+30 2.6012134e+28 -1.2815226e+29)
(-1.3534623e+30 1.8349077e+28 3.1656659e+28)
(-1.2895961e+30 4.5449398e+28 -1.4072796e+29)
(-1.4140053e+30 1.2053856e+29 1.6016256e+29)
(-1.2095715e+30 1.3865001e+29 1.632255e+29)
(-1.2459778e+30 4.7348368e+28 1.3628407e+29)
(-1.1462455e+30 1.2967814e+29 -1.8294908e+29)
(-1.1308512e+30 7.0388829e+28 -1.6704003e+29)
(-1.1491001e+30 9.9231296e+28 1.367071e+28)
(-1.1570488e+30 1.048388e+29 -2.4136699e+28)
(-1.1190856e+30 1.1916495e+29 -2.6440584e+28)
(-1.1189073e+30 1.2026469e+29 1.465652e+28)
(-1.3491341e+30 8.8202315e+28 1.3557807e+29)
(-1.3635117e+30 2.3959675e+28 1.2820933e+29)
(-1.3466753e+30 5.6476242e+28 -7.0368833e+28)
(-1.35494e+30 3.6684531e+28 -5.8122983e+28)
(-1.145303e+30 9.9894681e+28 -3.417463e+28)
(-1.1217989e+30 9.7625818e+28 -4.82544e+28)
(-1.1194738e+30 1.086931e+29 -2.0840881e+28)
(-1.1724361e+30 1.0596142e+29 -1.9854026e+28)
(-1.1966713e+30 1.2477965e+29 1.1802662e+28)
(-1.2320194e+30 1.2465954e+29 -9.3980835e+26)
(-1.215634e+30 1.1123701e+29 -6.4194993e+27)
(-1.2042801e+30 1.2165733e+29 7.320016e+27)
(-8.1794071e+29 1.1613814e+29 -1.4846631e+28)
(-9.9604844e+29 1.1335787e+29 -1.9916903e+28)
(-8.8182102e+29 1.0333344e+29 -1.1943892e+28)
(-9.1482154e+29 9.3582289e+28 9.1165889e+26)
(-9.3853004e+29 1.1367531e+29 -2.8660057e+27)
(-1.0742404e+30 1.0190606e+29 -1.0802809e+27)
(-1.0520599e+30 9.551639e+28 5.1029143e+26)
(-9.8771675e+29 1.0615167e+29 3.2499284e+26)
(-1.1290328e+30 5.2728861e+28 9.2679981e+28)
(-1.1368308e+30 5.2096263e+28 9.7897468e+28)
(-9.6046006e+29 3.4769895e+28 1.0016433e+29)
(-9.5886316e+29 2.906401e+28 9.0191368e+28)
(-1.1377246e+30 4.5737628e+28 8.8696922e+28)
(-1.1484256e+30 4.7982481e+28 1.044624e+29)
(-1.1404429e+30 4.4783128e+28 9.1806984e+28)
(-1.1635858e+30 4.3445947e+28 1.0672993e+29)
(-1.1430423e+30 3.7273887e+28 9.7504087e+28)
(-1.1458869e+30 4.2540338e+28 1.1318775e+29)
(-1.3141834e+30 5.5485395e+28 8.0515195e+28)
(-1.3236353e+30 4.9816544e+28 9.0862304e+28)
(-1.3232647e+30 3.843129e+28 1.1682503e+29)
(-1.4487881e+30 7.3466154e+28 5.6926414e+28)
(-1.3297507e+30 4.1955226e+28 9.8546769e+28)
(-1.4602703e+30 3.2235811e+28 9.6830437e+28)
(-1.1767167e+30 7.4209302e+27 -1.5425865e+29)
(-1.1035223e+30 7.043402e+28 -1.7506653e+29)
(-1.1920031e+30 7.4716916e+27 1.8068355e+29)
(-1.2668648e+30 9.0793972e+28 1.8913809e+29)
(-1.2289826e+30 5.9182499e+28 2.0013424e+28)
(-1.0912777e+30 7.9683862e+28 2.7331775e+28)
(-1.1182681e+30 5.474776e+28 3.7212896e+28)
(-1.2481229e+30 3.3024223e+28 4.7356123e+28)
(-1.1931644e+30 1.0677312e+29 1.095918e+28)
(-1.2159718e+30 8.0042884e+28 1.4045225e+28)
(-1.0249775e+30 7.9608714e+28 -6.6769778e+27)
(-9.1711934e+29 1.0772167e+29 -1.4707706e+28)
(-8.9319535e+29 1.305089e+29 -2.924154e+28)
(-8.6623205e+29 1.1953555e+29 -1.361553e+28)
(-8.0120273e+29 1.4905007e+29 -1.2920771e+28)
(-8.5394047e+29 1.6905627e+29 -2.2987915e+28)
(-8.7500215e+29 -8.7437502e+27 -2.5456595e+28)
(-8.4781172e+29 3.8430638e+28 -4.2597515e+28)
(-1.0183561e+30 3.6410674e+28 -7.3903095e+28)
(-1.0091554e+30 -4.0015742e+28 -6.3269312e+28)
(-1.0830815e+30 8.6542869e+28 -4.5713866e+28)
(-9.4946642e+29 8.5270506e+28 -2.9800487e+28)
(-9.6525659e+29 1.1756099e+29 -3.1588834e+28)
(-1.1104549e+30 1.3345159e+29 -4.3481123e+28)
(-1.4404494e+30 8.6359602e+28 -1.6094697e+29)
(-1.4257333e+30 8.7543175e+28 -1.6130522e+29)
(-1.2738046e+30 5.963958e+28 -2.1060852e+29)
(-1.2075912e+30 4.5910873e+28 -5.5599024e+28)
(-1.2045227e+30 5.7912418e+28 -4.1216577e+28)
(-1.2666891e+30 5.4545019e+28 -2.0400048e+29)
(-9.2803941e+29 4.5545001e+28 -2.3008718e+29)
(-8.2897731e+29 1.9559098e+28 -1.6789639e+29)
(-8.2965649e+29 5.3709108e+28 -1.7012161e+29)
(-9.3534124e+29 3.952923e+28 -2.2564074e+29)
(-6.5611138e+29 5.4090315e+28 -1.6333701e+29)
(-5.0581713e+29 1.5584835e+28 -1.4767808e+29)
(-3.8900244e+29 2.6494313e+28 -1.1250631e+28)
(-3.8294471e+29 3.1086945e+28 -1.4869987e+28)
(-5.493704e+29 -2.5583465e+28 1.3803944e+29)
(-6.0218526e+29 8.8018843e+28 6.9456044e+28)
(-5.4087924e+29 4.3980226e+28 1.2748626e+29)
(-6.6203322e+29 2.5766051e+28 -1.5475998e+29)
(-6.2018876e+29 -8.7862948e+25 9.1761454e+28)
(-9.3931964e+29 3.6841781e+28 -2.3067964e+29)
(-9.3231841e+29 4.6538871e+28 -2.365672e+29)
(-8.3512647e+29 1.9242812e+28 -1.7271615e+29)
(-8.3446756e+29 4.9745221e+28 -1.6820882e+29)
(-6.66194e+29 2.2521873e+28 -1.6266708e+29)
(-6.6210816e+29 5.1399865e+28 -1.6127556e+29)
(-6.3454394e+29 -6.6659591e+27 9.488466e+28)
(-6.1045695e+29 8.7161589e+28 7.5341484e+28)
(-1.1261167e+30 1.6281888e+28 -1.189121e+29)
(-1.0973419e+30 4.9490246e+28 -2.5408801e+29)
(-1.1126287e+30 4.2049815e+28 -2.4173332e+29)
(-1.119199e+30 7.5198029e+28 -1.2234533e+29)
(-1.2810459e+30 5.3240882e+28 -2.1622667e+29)
(-1.2147601e+30 3.9757488e+28 -5.8616056e+28)
(-1.2154814e+30 5.1008982e+28 -4.379785e+28)
(-1.2775231e+30 4.7692666e+28 -2.0263134e+29)
(-1.4235393e+30 9.3194475e+28 -1.8944799e+29)
(-1.1087442e+30 3.4366023e+28 -2.4926981e+29)
(-1.0925855e+30 4.8469643e+28 -2.5977697e+29)
(-1.121334e+30 1.2412857e+28 -1.1995043e+29)
(-1.1247117e+30 6.3740284e+28 -1.186454e+29)
(-1.4377256e+30 -1.4805903e+28 -1.9042725e+29)
(-1.2524005e+30 -2.6455408e+28 1.2616763e+29)
(-1.2518756e+30 1.4547183e+29 1.1388587e+29)
(-1.0810105e+30 5.6676679e+27 -2.0390388e+29)
(-1.0788068e+30 6.1299629e+28 -2.0283059e+29)
(-9.1372738e+29 -1.5662109e+28 9.0281866e+28)
(-8.9568354e+29 1.1344905e+29 7.5555902e+28)
(-1.0755589e+30 1.1959544e+28 -2.0114594e+29)
(-1.0688341e+30 6.9513977e+28 -2.0174111e+29)
(-8.5639622e+29 1.2383724e+29 4.2544725e+28)
(-8.8884036e+29 -1.7527274e+27 7.052278e+28)
(-9.5021761e+29 3.0827266e+28 -2.3710797e+29)
(-9.389742e+29 4.2048442e+28 -2.4184462e+29)
(-8.4010593e+29 1.5474747e+28 -1.7654408e+29)
(-8.4602583e+29 4.3244097e+28 -1.7270221e+29)
(-9.4077368e+29 3.5232476e+28 -2.2729205e+29)
(-9.3224801e+29 4.0105615e+28 -2.3240914e+29)
(-8.3457525e+29 1.3467204e+28 -1.6877519e+29)
(-8.3900487e+29 5.0399999e+28 -1.7061694e+29)
(-6.7050694e+29 1.8514813e+28 -1.6847446e+29)
(-6.7337462e+29 4.3283137e+28 -1.6934686e+29)
(-6.4005655e+29 -1.5313817e+28 1.007927e+29)
(-6.2681027e+29 7.6277771e+28 8.5208039e+28)
(-6.6553943e+29 5.0831352e+28 -1.6668432e+29)
(-6.6817507e+29 1.8380742e+28 -1.606394e+29)
(-6.3284042e+29 -8.0801739e+27 9.6990136e+28)
(-6.1267912e+29 8.7391168e+28 7.1686294e+28)
(-8.0700921e+29 3.2102548e+27 1.146093e+29)
(-8.0224721e+29 3.2191956e+28 1.0923478e+29)
(-9.7495114e+29 3.6802941e+28 1.5839983e+29)
(-9.7279792e+29 3.7355929e+28 1.5542798e+29)
(-8.1260315e+29 -2.0748876e+27 1.2836151e+29)
(-8.0406299e+29 3.4382183e+28 1.1197137e+29)
(-9.7567067e+29 3.8553696e+28 1.5828551e+29)
(-9.7550929e+29 3.6349384e+28 1.6776271e+29)
(-6.4339576e+29 1.8660482e+28 1.6324494e+29)
(-6.3363464e+29 -1.6523368e+28 1.6571239e+29)
(-8.5809518e+29 1.6040348e+28 1.5764923e+29)
(-8.6726792e+29 1.7981612e+28 1.6471494e+29)
(-6.2993408e+29 2.4912551e+28 1.6309855e+29)
(-6.3107853e+29 -1.9688637e+28 1.6212973e+29)
(-8.6175018e+29 1.360212e+28 1.5267856e+29)
(-8.6286722e+29 2.0091919e+28 1.516132e+29)
(-8.1521767e+29 -6.1458615e+27 1.3077686e+29)
(-8.0984533e+29 2.8148446e+28 1.1772316e+29)
(-9.8003112e+29 3.1459848e+28 1.6418691e+29)
(-9.7704787e+29 3.0957718e+28 1.7190942e+29)
(-8.0013378e+29 -4.5998751e+27 1.1341788e+29)
(-8.0812172e+29 3.2651827e+28 1.1505877e+29)
(-9.766046e+29 3.5005504e+28 1.5655488e+29)
(-9.7706636e+29 3.0833291e+28 1.588015e+29)
(-8.1368181e+29 -7.241699e+27 1.276035e+29)
(-8.0874487e+29 2.8427036e+28 1.1773299e+29)
(-9.926608e+29 2.8335655e+28 1.6534387e+29)
(-9.9080072e+29 2.7257213e+28 1.7254102e+29)
(-8.1215825e+29 -3.9231649e+27 1.1835665e+29)
(-8.137465e+29 3.1310379e+28 1.1976701e+29)
(-9.8007287e+29 2.9878618e+28 1.5963745e+29)
(-9.8090321e+29 2.760879e+28 1.6130581e+29)
(-8.3667355e+29 -9.4966468e+27 1.4251124e+29)
(-8.2513683e+29 2.5675147e+28 1.2824636e+29)
(-9.8680812e+29 2.5940524e+28 1.7065135e+29)
(-9.8443988e+29 2.5311648e+28 1.7782578e+29)
(-9.3397937e+29 4.6826481e+28 8.5273505e+28)
(-8.1466173e+29 -5.1694904e+27 1.2150063e+29)
(-8.1460923e+29 3.065117e+28 1.1996973e+29)
(-9.8361227e+29 2.7901688e+28 1.6212703e+29)
(-9.8283778e+29 2.4670474e+28 1.6404082e+29)
(-1.1362881e+30 3.8847802e+28 1.7385198e+29)
(-1.1422035e+30 4.3783552e+28 1.8468111e+29)
(-9.4073515e+29 1.2128062e+28 8.9760442e+28)
(-9.4033727e+29 4.3718779e+28 9.0443364e+28)
(-9.4497023e+29 4.581925e+27 1.051269e+29)
(-1.1359711e+30 4.120113e+28 1.9066665e+29)
(-1.1431075e+30 3.5965228e+28 1.809881e+29)
(-1.1614186e+30 6.1831054e+28 1.2064188e+29)
(-1.1708264e+30 8.6731643e+27 1.3235163e+29)
(-1.2745157e+30 4.0959356e+28 2.7212642e+29)
(-1.275913e+30 2.1564967e+28 2.602702e+29)
(-9.6662043e+29 -6.0802349e+26 1.2893614e+29)
(-1.149446e+30 2.9741112e+28 2.1494709e+29)
(-9.5114271e+29 4.0597324e+28 1.0853768e+29)
(-1.150085e+30 2.510164e+28 2.032321e+29)
(-9.4744218e+29 7.3823673e+27 1.0430329e+29)
(-9.4418728e+29 4.3258152e+28 9.828044e+28)
(-1.1692041e+30 3.3642352e+28 2.0491444e+29)
(-1.1503476e+30 2.7783518e+28 1.9173666e+29)
(-1.2123329e+30 -6.8518339e+27 1.6635022e+29)
(-1.1960205e+30 6.0045176e+28 1.4827591e+29)
(-1.2763933e+30 3.4893742e+28 2.7804338e+29)
(-1.2842219e+30 2.3424181e+28 2.683115e+29)
(-1.1573917e+30 5.4591856e+28 -7.9881215e+27)
(-9.6745815e+29 2.9321376e+28 -7.5087118e+27)
(-9.6670616e+29 3.096278e+28 -1.3756219e+28)
(-9.9557043e+29 5.0049787e+28 8.0975929e+28)
(-9.9957018e+29 1.8316358e+28 7.6007259e+28)
(-9.9129608e+29 3.0565204e+28 4.5185184e+28)
(-1.0022598e+30 5.5003064e+28 1.3939384e+29)
(-9.8779915e+29 3.2322933e+28 3.7439049e+28)
(-1.0079922e+30 1.4148137e+28 1.3541475e+29)
(-1.1914309e+30 3.1200869e+28 1.3736587e+29)
(-1.157957e+30 3.7649752e+28 -7.6119836e+27)
(-1.1840742e+30 7.6767784e+28 1.3620329e+29)
(-9.2867576e+29 2.7089908e+28 -4.5507546e+28)
(-9.5188692e+29 4.1358568e+28 8.7290966e+27)
(-9.2930356e+29 3.1554441e+28 -4.9304485e+28)
(-9.5609115e+29 2.0895083e+28 5.199986e+27)
(-1.1232526e+30 5.2473094e+28 -6.2275211e+28)
(-1.1681727e+30 2.9450367e+28 5.1000555e+28)
(-1.1216088e+30 3.5010289e+28 -6.347296e+28)
(-1.1558472e+30 6.0489523e+28 4.6253691e+28)
(-9.453392e+29 2.5990892e+28 -3.8094564e+28)
(-9.6316154e+29 4.3616027e+28 2.496547e+28)
(-9.4384043e+29 3.2827374e+28 -4.32407e+28)
(-9.6733261e+29 1.9668381e+28 2.164788e+28)
(-1.1656732e+30 4.8398491e+28 -1.5274235e+28)
(-1.200704e+30 2.1937595e+28 1.3243781e+29)
(-1.1858304e+30 3.5415731e+28 -1.5681724e+27)
(-1.2063247e+30 7.0688993e+28 1.4007344e+29)
(-1.1872628e+30 5.842268e+28 5.1777379e+28)
(-1.1381349e+30 2.8442376e+28 -5.7927319e+28)
(-1.1323088e+30 4.3517495e+28 -6.5068506e+28)
(-1.1864941e+30 2.4277842e+28 4.5364129e+28)
(-1.1276244e+30 2.8243716e+28 -8.5802619e+28)
(-1.1357372e+30 4.4334471e+28 -8.5722929e+28)
(-1.156067e+30 4.874916e+28 -8.5648404e+27)
(-1.1632287e+30 2.7162347e+28 -7.2328725e+27)
(-1.315997e+30 1.7618506e+28 -4.5621551e+27)
(-9.9712837e+29 3.5878017e+28 -5.9826585e+27)
(-9.5532669e+29 2.3713903e+28 -4.1020186e+28)
(-9.5349059e+29 2.9056267e+28 -4.6452091e+28)
(-9.6161561e+29 3.550276e+28 -1.2784575e+28)
(-9.6923923e+29 1.8628642e+28 -1.4041849e+28)
(-1.124542e+30 2.8869119e+28 -8.1487464e+28)
(-1.1288994e+30 5.6320466e+28 -1.0944408e+28)
(-1.1378254e+30 3.5777025e+28 -9.7354423e+27)
(-1.1277967e+30 5.1655469e+28 -8.2469994e+28)
(-9.3475886e+29 2.0572117e+28 -5.6385072e+28)
(-9.5294295e+29 3.331453e+28 -1.3742158e+28)
(-9.3020635e+29 2.1063184e+28 -5.6998651e+28)
(-9.3883501e+29 2.8740619e+28 -5.3121025e+28)
(-9.3720987e+29 2.5967575e+28 -4.9480106e+28)
(-9.546663e+29 3.8724094e+28 -7.2242569e+27)
(-9.5752083e+29 2.0712686e+28 -1.0212619e+28)
(-9.3248292e+29 2.5582112e+28 -5.1505503e+28)
(-9.4116948e+29 3.9522719e+28 -6.4767169e+27)
(-9.316693e+29 3.3132961e+28 -5.5767373e+28)
(-9.4517824e+29 2.1069089e+28 -8.8320734e+27)
(-1.144844e+30 4.5222659e+28 -7.1260572e+27)
(-1.1501891e+30 2.5292232e+28 -1.1170904e+28)
(-1.1337431e+30 2.3505804e+28 -8.6947064e+28)
(-1.131132e+30 4.7561227e+28 -9.4089475e+28)
(-1.1457337e+30 2.3810378e+28 -8.9658284e+28)
(-1.1392715e+30 4.2199577e+28 -9.655179e+28)
(-1.1696248e+30 4.522588e+28 -1.2112981e+28)
(-1.1729787e+30 2.5573641e+28 -1.7471658e+28)
(-1.2850854e+30 6.7455982e+28 -2.7512728e+28)
(-1.2111269e+30 2.7526576e+28 -1.7028547e+29)
(-1.2789894e+30 1.7900794e+28 -1.2427972e+29)
(-1.2990275e+30 3.1555858e+28 -1.3728863e+29)
(-1.3572979e+30 3.7395203e+27 3.7588584e+28)
(-1.3491443e+30 6.315311e+28 5.1045563e+28)
(-1.4644847e+30 1.1056906e+29 1.559128e+29)
(-1.460862e+30 8.1066427e+28 -1.6593002e+29)
(-1.36381e+30 7.8285452e+27 1.349621e+29)
(-1.3518562e+30 7.3374408e+28 1.4669348e+29)
(-1.3458707e+30 2.5133753e+28 -6.4138235e+28)
(-1.3467072e+30 4.8346451e+28 -7.8974745e+28)
(-1.504463e+30 1.9758362e+28 1.8699321e+29)
(-1.3539881e+30 5.7156248e+28 3.0605674e+28)
(-1.2828001e+30 1.4924249e+28 -1.3875205e+29)
(-1.2960693e+30 4.3351482e+28 -1.417499e+29)
(-1.3576396e+30 1.2682505e+28 2.7663471e+28)
(-1.4363151e+30 2.1695786e+28 1.4981791e+29)
(-1.4683721e+30 1.1503458e+29 2.0045921e+29)
(-1.9275934e+30 1.1353134e+29 7.6077588e+28)
(-1.4189861e+30 5.0332849e+28 -1.5232246e+29)
(-1.2392119e+30 3.0254286e+28 1.5367119e+29)
(-1.1736806e+30 9.3242424e+28 -1.7818366e+29)
(-1.1962627e+30 3.3729379e+28 -1.6327911e+29)
(-1.2716903e+30 1.178812e+29 1.5729171e+29)
(-1.2256729e+30 7.5862216e+28 6.1196406e+27)
(-1.1887458e+30 9.0630927e+28 -3.5376522e+28)
(-1.1345859e+30 1.3623896e+29 -1.9301979e+29)
(-1.2147409e+30 1.3732614e+29 1.6297266e+29)
(-1.250649e+30 5.8706221e+28 1.5449241e+29)
(-1.1315683e+30 7.0013801e+28 -1.741919e+29)
(-1.1261684e+30 1.1497528e+29 -2.7872199e+28)
(-1.1154766e+30 9.8260219e+28 1.1926991e+28)
(-1.356161e+30 2.299198e+28 -6.8331549e+28)
(-1.3418233e+30 5.6881818e+28 -8.5611771e+28)
(-1.3634009e+30 8.3229465e+28 1.2961626e+29)
(-1.3607229e+30 2.3548618e+28 1.21597e+29)
(-1.156255e+30 4.8161103e+28 4.0810274e+27)
(-1.1421414e+30 4.0108295e+28 -8.1595739e+28)
(-1.144391e+30 2.3814031e+28 -7.1982611e+28)
(-1.159839e+30 2.0213476e+28 -2.9904281e+27)
(-1.1770749e+30 1.8117532e+28 -8.9200511e+27)
(-1.1720319e+30 4.2353176e+28 -2.659779e+27)
(-1.1473544e+30 2.1020961e+28 -8.2639003e+28)
(-1.1428433e+30 3.4290642e+28 -8.9145553e+28)
(-1.2851996e+30 6.0393258e+28 -1.7112238e+28)
(-1.1579957e+30 4.6687366e+28 -4.6229423e+27)
(-1.1436641e+30 3.9816463e+28 -8.294667e+28)
(-1.1439798e+30 2.0163314e+28 -8.067027e+28)
(-1.1594012e+30 2.2469318e+28 -6.0896607e+27)
(-1.1793013e+30 2.0646491e+28 -1.2841859e+28)
(-1.174742e+30 4.0917331e+28 -1.1195381e+28)
(-1.144125e+30 2.0240782e+28 -9.0277529e+28)
(-1.1458863e+30 3.8920375e+28 -9.2435149e+28)
(-1.3229341e+30 6.9954664e+27 -1.0935942e+28)
(-1.2147834e+30 1.9812194e+28 -1.6499499e+29)
(-1.2535539e+30 3.6693129e+28 -1.6821116e+29)
(-1.123969e+30 1.0270485e+29 -2.5299968e+28)
(-1.1698687e+30 9.8031483e+28 -3.2474816e+28)
(-1.2057732e+30 9.8897425e+28 -1.8520757e+28)
(-1.1318676e+30 1.0982541e+29 -2.2782495e+28)
(-1.2768587e+30 9.4857689e+28 -7.2129924e+27)
(-1.0750212e+30 1.0204232e+29 -2.3819625e+28)
(-1.0589451e+30 1.2495003e+29 -2.5913937e+28)
(-1.3062389e+30 1.2058249e+29 -6.6597457e+27)
(-1.1735662e+30 4.2223414e+28 -7.8027184e+27)
(-1.1829501e+30 3.2872133e+28 5.4001475e+27)
(-1.1953483e+30 6.5774557e+28 1.4809524e+29)
(-1.1971944e+30 1.3575441e+28 1.3742974e+29)
(-1.2052594e+30 6.8299253e+28 1.3835265e+29)
(-1.1737882e+30 4.6891477e+28 -1.1610981e+28)
(-1.1837852e+30 3.0128392e+28 -4.5611601e+27)
(-1.1994775e+30 2.4121421e+28 1.319935e+29)
(-1.1810443e+30 5.2929261e+28 4.8105805e+28)
(-1.1515967e+30 2.7052257e+28 -5.5683631e+28)
(-1.1390175e+30 4.0126474e+28 -6.3371956e+28)
(-1.1793231e+30 2.0991346e+28 4.3717283e+28)
(-1.1771754e+30 5.873575e+28 5.8471755e+28)
(-1.1413029e+30 4.0014144e+28 -6.2049046e+28)
(-1.1485233e+30 3.1016254e+28 -4.7551317e+28)
(-1.1790376e+30 2.0509948e+28 4.8356228e+28)
(-8.7817889e+29 1.0634079e+29 -8.8980614e+27)
(-9.0022319e+29 1.0153138e+29 -2.8490459e+28)
(-1.0984115e+30 1.0939188e+29 -2.5099886e+28)
(-1.0005132e+30 1.0915115e+29 -2.0721214e+28)
(-1.0275702e+30 1.2672306e+29 -2.3071181e+27)
(-1.185206e+30 1.2473178e+29 -3.2278963e+27)
(-1.0869e+30 1.1020988e+29 -3.6428821e+27)
(-9.468368e+29 1.2371096e+29 -3.1249453e+27)
(-9.1363926e+29 1.1363784e+29 -8.9958877e+27)
(-1.011596e+30 1.0892643e+29 -7.025593e+27)
(-1.0055508e+30 9.662636e+28 -4.8240133e+27)
(-1.0548695e+30 9.112723e+28 -6.5348823e+27)
(-9.6402605e+29 3.4533247e+28 9.0817153e+28)
(-9.5703142e+29 3.3375118e+28 8.6760944e+28)
(-9.6000628e+29 3.3805841e+28 9.3802841e+28)
(-9.5692239e+29 3.2031993e+28 8.4275259e+28)
(-8.2088176e+29 1.8343493e+28 6.4920882e+28)
(-8.1935081e+29 1.4470266e+28 6.0935114e+28)
(-8.151165e+29 1.5097154e+28 5.3650649e+28)
(-8.1753378e+29 1.4251748e+28 5.5761357e+28)
(-9.6499372e+29 2.9094531e+28 8.7561993e+28)
(-9.5665905e+29 3.0177354e+28 8.3393647e+28)
(-9.6425162e+29 2.8983437e+28 9.8106726e+28)
(-9.6453628e+29 2.488409e+28 8.9882197e+28)
(-9.7065992e+29 2.6449822e+28 9.2217206e+28)
(-9.6471917e+29 2.5540934e+28 8.8564233e+28)
(-9.7253821e+29 2.5900007e+28 9.7046412e+28)
(-9.7154023e+29 2.336102e+28 8.7955905e+28)
(-9.719415e+29 2.3562954e+28 9.2928594e+28)
(-9.6666219e+29 2.3501505e+28 8.9454254e+28)
(-1.1389645e+30 3.7720586e+28 9.4231212e+28)
(-9.7143907e+29 2.5448116e+28 1.0459256e+29)
(-9.735414e+29 2.0562857e+28 9.624763e+28)