/*--------------------------------*- C++ -*----------------------------------*\
  =========                 |
  \\      /  F ield         | OpenFOAM: The Open Source CFD Toolbox
   \\    /   O peration     | Website:  https://openfoam.org
    \\  /    A nd           | Version:  7
     \\/     M anipulation  |
\*---------------------------------------------------------------------------*/
FoamFile
{
    version     2.0;
    format      ascii;
    class       volScalarField;
    location    "6000";
    object      k;
}
// * * * * * * * * * * * * * * * * * * * * * * * * * * * * * * * * * * * * * //

dimensions      [0 2 -2 0 0 0 0];

internalField   nonuniform List<scalar> 
34377
(
1.5239134
1.519691
1.5236089
1.523475
1.5247205
1.5224414
1.5245983
1.5255752
1.5243942
1.5245385
1.5191505
1.5198744
1.5195217
1.5195619
1.5203444
1.5216366
1.5238088
1.5228708
1.5232658
1.5240736
1.5232384
1.5228075
1.5236972
1.5240218
1.5234809
1.5209174
1.5230307
1.5253256
1.5246897
1.524597
1.5243926
1.5257121
1.5258681
1.5262399
1.5261263
1.5257823
1.5245369
1.5235367
1.5239174
1.5223
1.5228022
1.5236394
1.5239469
1.5194848
1.5193046
1.5190833
1.518987
1.5189958
1.5204297
1.5195567
1.5198483
1.5196808
1.5196137
1.5194884
1.5194647
1.5196275
1.5193415
1.5191457
1.5197195
1.5196534
1.5204145
1.5196864
1.5205459
1.5210378
1.5205897
1.5216461
1.5219746
1.5222196
1.5225972
1.522994
1.5232436
1.5235025
1.5227913
1.5228233
1.5235196
1.5228105
1.5235082
1.5227401
1.5234726
1.5225959
1.5232389
1.522207
1.5229655
1.5210601
1.5199393
1.5203463
1.5213073
1.5222272
1.5217611
1.5224376
1.5228722
1.5255965
1.5264767
1.5265484
1.5262635
1.5261461
1.5237607
1.524021
1.5239043
1.5236352
1.5237888
1.5237917
1.5240065
1.5240145
1.5247581
1.5239476
1.5239632
1.523568
1.5235989
1.5245661
1.52464
1.5244452
1.5263364
1.5258847
1.5262138
1.5259666
1.5239623
1.5238647
1.5234739
1.5236299
1.5228147
1.5231383
1.5233747
1.5233306
1.520962
1.5207002
1.5212495
1.5216422
1.5231325
1.5228372
1.5233884
1.5233699
1.5194126
1.5191923
1.519519
1.5193495
1.5190785
1.5190268
1.5191868
1.5193169
1.5188856
1.5189195
1.5196803
1.5196241
1.5207099
1.5206351
1.5195499
1.5195876
1.5195852
1.5196365
1.5194036
1.5199767
1.5204759
1.5193773
1.5198792
1.5198667
1.5194604
1.5196304
1.5195077
1.5194888
1.5196505
1.5197336
1.5194989
1.5189062
1.5192441
1.5187164
1.5191184
1.518844
1.5193407
1.5192517
1.5193648
1.5195014
1.5197341
1.5196664
1.5196423
1.5196517
1.519697
1.5196698
1.519734
1.5204718
1.5206835
1.5196831
1.5196916
1.5197098
1.5197218
1.5197561
1.5197428
1.5207389
1.5207488
1.5204435
1.5207561
1.5212602
1.5210297
1.5201682
1.5202308
1.5206825
1.5207325
1.5216292
1.5219457
1.5225425
1.5223449
1.5221383
1.5221929
1.5228378
1.5228031
1.5223027
1.5223157
1.5230383
1.5230167
1.522336
1.5223566
1.5230602
1.523061
1.5230465
1.5223498
1.5223048
1.5230375
1.5222537
1.5222305
1.5229713
1.5229938
1.5221777
1.5221169
1.5228517
1.5228216
1.5225777
1.5219281
1.5216113
1.5223808
1.5197778
1.5202216
1.5199906
1.5193422
1.5199748
1.5200324
1.5204793
1.5204459
1.521364
1.5212069
1.5207793
1.5209785
1.5223767
1.5205294
1.520367
1.5205573
1.5219634
1.5207281
1.5208022
1.5210343
1.52065
1.5204218
1.5209036
1.5213092
1.5213204
1.5216696
1.5216195
1.5268612
1.5265151
1.5265663
1.5268931
1.5230411
1.5227418
1.5229186
1.5231809
1.523273
1.5232585
1.5234097
1.5234255
1.5233184
1.5232439
1.5232515
1.52333
1.5228426
1.5230515
1.5227675
1.5231075
1.5228878
1.523097
1.5228425
1.5231374
1.5231973
1.5229767
1.5229801
1.5232012
1.5239641
1.5233497
1.5233493
1.5233666
1.5241439
1.5233687
1.5232761
1.5232726
1.5233246
1.5233306
1.5241622
1.523994
1.5232944
1.5231978
1.523244
1.5232535
1.5232769
1.5233152
1.523292
1.5233302
1.5240767
1.5231341
1.5231265
1.5230807
1.5230482
1.5227418
1.5241136
1.5247097
1.5241713
1.524145
1.5243018
1.5243469
1.5242738
1.5242218
1.5234009
1.5233633
1.5232538
1.5232057
1.5233028
1.5232612
1.5232249
1.523177
1.5226509
1.5230188
1.5230681
1.5227515
1.5226808
1.5230289
1.5231561
1.5228674
1.5222539
1.5224844
1.5227462
1.5227111
1.5229308
1.5229166
1.5228732
1.5228475
1.5202918
1.5203273
1.519815
1.5200851
1.5205123
1.5205622
1.5211063
1.5208283
1.5226976
1.5227372
1.5222147
1.5224517
1.5229458
1.5229434
1.5229001
1.5229233
1.5201249
1.519922
1.5194091
1.5195483
1.5195689
1.5196089
1.5189268
1.5192477
1.5193519
1.5196796
1.5196711
1.5197126
1.519698
1.5196387
1.5196195
1.519674
1.5196441
1.5198416
1.519823
1.5208195
1.5208687
1.5207851
1.5207519
1.5198069
1.5197718
1.5195983
1.5196439
1.5194436
1.5194006
1.5195143
1.5194453
1.5193751
1.5204927
1.5196674
1.5207073
1.519594
1.5206456
1.5193185
1.5198121
1.5198024
1.5194072
1.5196459
1.5196494
1.5196792
1.5195027
1.519488
1.5196698
1.5197049
1.5196951
1.519678
1.5194233
1.5188793
1.5191943
1.5185594
1.5186852
1.5188485
1.518856
1.5190711
1.5191046
1.5191299
1.5191118
1.5184688
1.5188841
1.5185958
1.5191662
1.5190729
1.5191247
1.5193404
1.5194025
1.5192047
1.5192363
1.5192505
1.5192271
1.5192852
1.519323
1.5193721
1.5193667
1.5192085
1.5192376
1.5194842
1.5195384
1.5193861
1.5196332
1.5192873
1.519826
1.5196563
1.5197028
1.5196525
1.5196872
1.5196551
1.5197162
1.5197264
1.5197313
1.5197519
1.5197598
1.5204296
1.5206763
1.5197351
1.5198327
1.5207883
1.5208218
1.5198754
1.5198868
1.5197156
1.519727
1.5197504
1.5197522
1.519775
1.5197781
1.5197437
1.5197363
1.5197719
1.5197598
1.5198886
1.5208438
1.5198989
1.5208594
1.5198997
1.5198858
1.5208814
1.520884
1.5201396
1.5201835
1.5205687
1.5205328
1.5203514
1.5207901
1.5205705
1.5209276
1.5199179
1.5199511
1.5202553
1.5202779
1.5203175
1.5199784
1.5200038
1.5203333
1.5210644
1.5208315
1.5219171
1.5220535
1.5213081
1.5212182
1.5222834
1.5223182
1.5213994
1.5213588
1.5225107
1.5225369
1.5214662
1.521423
1.5225722
1.5225835
1.5214926
1.5214854
1.5227047
1.5227209
1.5214874
1.5214666
1.5227365
1.522742
1.5227551
1.521492
1.5215071
1.5227614
1.5215804
1.5215339
1.5227672
1.5227705
1.5215315
1.5215749
1.5227558
1.5227547
1.5214729
1.5214548
1.5227317
1.5227309
1.5214059
1.5226831
1.5214115
1.5226817
1.5226587
1.5213964
1.521419
1.5226539
1.5213767
1.5214093
1.5225849
1.5225798
1.5225451
1.5213211
1.5213123
1.5225307
1.5211421
1.5212318
1.5223414
1.522312
1.5206991
1.5209287
1.5221074
1.5220012
1.5195551
1.5196307
1.5198485
1.5198886
1.51887
1.519295
1.5193789
1.5195842
1.5200554
1.5197456
1.5197787
1.5200768
1.5198074
1.5198304
1.5201113
1.5201224
1.5208276
1.5204762
1.5209051
1.5205985
1.5208592
1.5205318
1.5204538
1.5208229
1.5212745
1.5202479
1.5202404
1.5202024
1.5202878
1.520871
1.5202476
1.5202038
1.5203023
1.5203464
1.5206492
1.5210848
1.5198773
1.5199586
1.5199291
1.5198996
1.5200285
1.5200752
1.5206574
1.5200535
1.5200985
1.5204357
1.5200566
1.5201457
1.5200305
1.5201204
1.5198857
1.5199407
1.5201295
1.5201619
1.5201295
1.5203581
1.5203261
1.5201671
1.5200803
1.5201952
1.520108
1.5199126
1.519986
1.5202633
1.5203099
1.5204071
1.5203619
1.5203766
1.5203274
1.520543
1.520591
1.5206769
1.52055
1.5208786
1.5209595
1.5209406
1.5206339
1.5208656
1.5211197
1.5206641
1.52074
1.5211146
1.5209945
1.5225073
1.5225403
1.5226099
1.5226414
1.5220333
1.52215
1.5222893
1.522373
1.5220985
1.522269
1.5223473
1.5224795
1.5225859
1.5227222
1.5226231
1.5227558
1.5227177
1.5227178
1.5228327
1.5228341
1.5226792
1.5227938
1.5227015
1.5228151
1.5227716
1.5229217
1.5227952
1.5229432
1.5228134
1.5228154
1.5229619
1.5229642
1.5225893
1.5227119
1.522609
1.5227323
1.5225412
1.5225568
1.5226332
1.5226507
1.52257
1.5225669
1.522665
1.5226633
1.5226239
1.5226228
1.5227478
1.5227476
1.52197
1.5220957
1.5222239
1.522325
1.5223899
1.5224154
1.5224751
1.5225001
1.5219548
1.5220412
1.5221999
1.5222681
1.5224313
1.5224608
1.5225418
1.5225699
1.521936
1.5220337
1.5221704
1.5222531
1.5223555
1.5223761
1.5224163
1.5224351
1.5219663
1.522026
1.5221892
1.5222347
1.5223509
1.5223736
1.5224439
1.5224656
1.5224046
1.5224423
1.5224259
1.5224597
1.5220307
1.5220738
1.5222448
1.5222733
1.5221772
1.5223672
1.5222635
1.5231157
1.5224613
1.5225312
1.52255
1.5233026
1.5226414
1.5226174
1.5231057
1.5232901
1.5226805
1.5226765
1.5234434
1.5227657
1.5227657
1.5226655
1.5226654
1.5234436
1.5227529
1.522752
1.5225379
1.522581
1.5225394
1.5225845
1.5234145
1.5234131
1.5225528
1.5225986
1.5225486
1.5225927
1.5225127
1.5225822
1.5225071
1.5225771
1.5224943
1.5225604
1.5224997
1.5225685
1.5224947
1.5225947
1.5225052
1.5226084
1.5225182
1.5226215
1.5225138
1.5226181
1.523546
1.5235457
1.5235272
1.5235256
1.5232559
1.5233038
1.5234435
1.5234084
1.522494
1.5225941
1.522461
1.5225687
1.5224164
1.522375
1.5224861
1.522448
1.5224899
1.5225542
1.5224498
1.5225225
1.5224226
1.522383
1.5225278
1.5224919
1.5225793
1.5225409
1.5233731
1.5226255
1.5226621
1.5226527
1.5226048
1.5234008
1.5226853
1.5227387
1.5224533
1.5225001
1.5224129
1.5224609
1.5225302
1.5225703
1.5224818
1.5225311
1.5233786
1.5233555
1.5225109
1.5224524
1.5225381
1.5226004
1.5223885
1.522423
1.5223277
1.5223702
1.5221357
1.5223444
1.5224367
1.5222952
1.5223959
1.5223426
1.5224036
1.5222876
1.5223565
1.5220857
1.5221727
1.5217651
1.521892
1.5234869
1.5235223
1.5235113
1.523473
1.5244125
1.524228
1.5241124
1.524319
1.5241326
1.5238037
1.5237266
1.5238288
1.5239225
1.5236681
1.5235581
1.5234799
1.5235944
1.5236913
1.5237593
1.5237566
1.523693
1.5239197
1.5239942
1.5239176
1.5239907
1.5239018
1.5239721
1.5238959
1.5236669
1.5237557
1.5237463
1.5236617
1.5227976
1.5229453
1.5227812
1.5229336
1.5227347
1.5227061
1.5228891
1.5228656
1.5227003
1.5228145
1.5226799
1.5227997
1.5226336
1.5227527
1.5226002
1.5227255
1.5226036
1.5225792
1.5227261
1.5227079
1.5225345
1.5224982
1.5226618
1.5226306
1.5225473
1.5226407
1.5225195
1.5226188
1.5224776
1.5224392
1.5225747
1.5225407
1.5221353
1.5218319
1.5222109
1.5219457
1.5223914
1.5223475
1.5224796
1.5224422
1.5224443
1.5224034
1.5225553
1.5225211
1.5221838
1.521896
1.5222906
1.5220444
1.5222739
1.5223651
1.5220056
1.5221407
1.5225321
1.5226374
1.5224943
1.5226059
1.5226233
1.5227567
1.5225879
1.5227271
1.5223578
1.5224906
1.5221106
1.5222862
1.5220506
1.5219352
1.5222871
1.5222531
1.5225267
1.5225185
1.5224839
1.5224705
1.5226936
1.5226893
1.5226637
1.5226645
1.5226155
1.5226118
1.5225894
1.5225873
1.5199851
1.5200084
1.5200395
1.5200527
1.5192755
1.5195228
1.519784
1.5198305
1.5201753
1.5201997
1.5202357
1.5202534
1.5206835
1.520848
1.5204387
1.5204775
1.5224518
1.5224789
1.5225126
1.5225273
1.5218482
1.522004
1.5222288
1.52227
1.5227023
1.522709
1.5226949
1.5226896
1.5226399
1.5226553
1.5226767
1.5226695
1.5201668
1.5199884
1.5193994
1.5195323
1.5195241
1.519572
1.5196039
1.5195754
1.5196233
1.5195873
1.519239
1.5193262
1.519359
1.5194482
1.5193966
1.5194962
1.5194388
1.5196982
1.5196859
1.5197377
1.5197179
1.5197313
1.5197146
1.5197028
1.5197005
1.5197199
1.5197152
1.5196622
1.5196361
1.5196998
1.5196812
1.5196961
1.5196792
1.5196569
1.5196468
1.5196777
1.5196598
1.5197738
1.5197509
1.519742
1.5197633
1.5197247
1.5197308
1.5197419
1.5197521
1.5200326
1.5206519
1.5206634
1.5200288
1.5207569
1.5200879
1.5200622
1.5207128
1.5199917
1.5200143
1.5206288
1.5205999
1.5206291
1.5200109
1.5199825
1.5206246
1.5197063
1.5197112
1.5197246
1.5197318
1.5196686
1.51969
1.5196848
1.5197079
1.5195869
1.5196049
1.5196352
1.5196099
1.519633
1.5196389
1.519669
1.5196585
1.5195237
1.5195325
1.5195661
1.5195499
1.5195074
1.5194738
1.5194548
1.5194738
1.5193722
1.5193367
1.5192528
1.5192676
1.5204559
1.5197413
1.5196395
1.5203595
1.519565
1.519587
1.5196145
1.5195889
1.5205957
1.5199163
1.5199003
1.5205692
1.5195535
1.5195265
1.5194861
1.5195048
1.5198161
1.5198804
1.5205368
1.5204966
1.5192748
1.5192252
1.5192096
1.5198316
1.5198299
1.5193667
1.519292
1.5193531
1.5196782
1.5196513
1.5196639
1.5196568
1.5196908
1.5196942
1.5197024
1.5196886
1.5197137
1.5197038
1.5197101
1.5194842
1.5188652
1.5188496
1.5186586
1.5191585
1.5191089
1.5190806
1.5185693
1.5188658
1.5190679
1.5191063
1.5182893
1.5186561
1.5186205
1.518408
1.5188695
1.5189081
1.5188854
1.5189467
1.5182098
1.5182671
1.518698
1.5188729
1.5189317
1.5190073
1.5191557
1.5192498
1.5190698
1.5190799
1.5190637
1.5190966
1.5191097
1.5191227
1.5191219
1.5191417
1.5191045
1.5191405
1.5193289
1.5193693
1.5191644
1.5193957
1.5191857
1.5194167
1.5191988
1.51922
1.5192744
1.5193566
1.5191989
1.5192093
1.5192068
1.5192246
1.5192261
1.5192314
1.5192392
1.5192471
1.5192407
1.5192659
1.5194704
1.5195082
1.5192931
1.5192814
1.5195291
1.5195512
1.5193443
1.5193936
1.5194232
1.5193448
1.5193189
1.5193427
1.5196075
1.5196437
1.5192808
1.5192709
1.5192766
1.5192925
1.5193968
1.5194958
1.5197353
1.5199088
1.5196636
1.5196468
1.5196827
1.5196471
1.5196549
1.5197062
1.5196988
1.5196952
1.5197217
1.5197163
1.5197408
1.5197471
1.5196691
1.5196494
1.5196468
1.519684
1.5197331
1.519719
1.5197246
1.5197431
1.5197694
1.5197544
1.519774
1.5197569
1.5197624
1.5197637
1.5197788
1.5197805
1.5201861
1.5197856
1.5199064
1.5203768
1.5204966
1.5199793
1.5200154
1.5205659
1.5196936
1.5196444
1.519709
1.5196447
1.5197552
1.5197421
1.5197766
1.5197584
1.5205887
1.5200275
1.5200704
1.5206428
1.520667
1.5200839
1.5200883
1.5206881
1.5197853
1.5197793
1.5198061
1.519798
1.5197918
1.51979
1.5198123
1.5198096
1.5197077
1.5197141
1.5197351
1.5197249
1.5197597
1.5197487
1.5197215
1.5197213
1.5197416
1.5197403
1.5197636
1.5197664
1.5197787
1.5197772
1.519792
1.5197946
1.5197975
1.5197815
1.5197813
1.5197967
1.5197927
1.5197758
1.5197918
1.5197753
1.5197653
1.5197612
1.519783
1.519775
1.5198051
1.5198021
1.5198211
1.5198262
1.5206797
1.5200729
1.5200939
1.5206952
1.5198069
1.519808
1.5198293
1.5198271
1.5200864
1.5200911
1.5206806
1.5206848
1.5198024
1.5198038
1.5198247
1.5198222
1.5197847
1.5197945
1.5198145
1.5198028
1.5201029
1.5200775
1.5206788
1.5207108
1.5201044
1.5201127
1.5207349
1.5207559
1.5197779
1.5197631
1.5203095
1.5203245
1.5198182
1.5197885
1.5203585
1.5203713
1.5199489
1.5198978
1.520542
1.5205684
1.5202559
1.5200971
1.5207167
1.5207903
1.5195933
1.5196078
1.520065
1.5200764
1.5196411
1.5196229
1.5201004
1.5201053
1.5196547
1.5196476
1.5201304
1.5201365
1.5196976
1.5196683
1.520152
1.5201621
1.5209693
1.5207326
1.5212154
1.5211227
1.5212863
1.5212725
1.521348
1.5213045
1.5213867
1.5213907
1.5213796
1.5213627
1.5213892
1.521381
1.5214505
1.5214019
1.5214199
1.5214544
1.52135
1.5213502
1.5213041
1.5212791
1.5212578
1.5212821
1.5212605
1.5212969
1.5211961
1.5211898
1.5210149
1.5211087
1.5205797
1.5208001
1.5193148
1.5192605
1.5196772
1.5197029
1.5193913
1.5193625
1.5197598
1.519749
1.518649
1.5182851
1.5190185
1.5191457
1.5194063
1.5189627
1.5191191
1.5194484
1.5194665
1.5194454
1.5198961
1.5198821
1.5194917
1.519477
1.5199191
1.5199231
1.5195136
1.5195052
1.5199476
1.5199524
1.5195557
1.5195306
1.5199654
1.5199721
1.5203075
1.5205448
1.5203706
1.5205778
1.5200783
1.5201259
1.5201142
1.5201592
1.5203388
1.5204222
1.5205607
1.5206153
1.5201044
1.5201797
1.5201412
1.5202139
1.5202899
1.5203484
1.5205494
1.5205725
1.5200573
1.5201072
1.520094
1.5201406
1.520101
1.5201349
1.5201107
1.5201477
1.5205141
1.5203487
1.5205955
1.5206323
1.5203539
1.5208585
1.520423
1.5208144
1.5198644
1.5199016
1.5198898
1.5199258
1.5199486
1.5199641
1.5199761
1.5199582
1.5202882
1.5199016
1.5199251
1.5202531
1.5199382
1.5199141
1.5199125
1.5199511
1.5199296
1.5199657
1.5202285
1.5201953
1.5199289
1.5199679
1.5199451
1.5199826
1.5198788
1.5199162
1.5199046
1.5199406
1.5198993
1.5199586
1.5199256
1.5199841
1.5199518
1.5200123
1.5199684
1.5200273
1.5202406
1.5202671
1.5202761
1.520247
1.5208403
1.5204347
1.520485
1.5208499
1.519587
1.5196223
1.5196175
1.5196509
1.5195979
1.5196364
1.5196486
1.5196842
1.5195823
1.5196131
1.5196152
1.5196438
1.5196499
1.5196649
1.5197487
1.5197635
1.5200811
1.5197743
1.5197592
1.5197131
1.5197494
1.5197297
1.5197655
1.5200457
1.5200211
1.5201043
1.519785
1.5197966
1.5198085
1.5197955
1.5197503
1.5197863
1.5197633
1.5197976
1.5200883
1.5200746
1.5200962
1.5197649
1.5198011
1.5197775
1.5198127
1.519786
1.5198419
1.519799
1.5198536
1.5197271
1.5197625
1.5197446
1.5197796
1.5197459
1.5198016
1.5197649
1.5198203
1.5191819
1.5193253
1.5194509
1.5195487
1.5196869
1.519732
1.5197304
1.519771
1.5194744
1.5197135
1.5198049
1.5197602
1.5198453
1.5199119
1.5199248
1.5199634
1.5199753
1.5198634
1.5199141
1.5198864
1.5199353
1.519954
1.5199677
1.5200513
1.5200633
1.52
1.5199017
1.5199254
1.5200215
1.5198158
1.5198776
1.5198377
1.5198988
1.5197869
1.5198072
1.5198303
1.51985
1.5198613
1.5198742
1.5199235
1.5199354
1.5198289
1.5198415
1.5198733
1.519885
1.5196306
1.519671
1.5196692
1.5197069
1.5196515
1.5196948
1.5197061
1.5197457
1.5199439
1.5199911
1.5199708
1.5200167
1.5199983
1.5200474
1.5200147
1.5200625
1.5200344
1.5201032
1.5200513
1.5201185
1.5199769
1.5200455
1.5200045
1.5200714
1.5200911
1.5201497
1.5201081
1.5201653
1.5200324
1.5200904
1.5200597
1.5201148
1.520079
1.5201886
1.5201053
1.5202122
1.5201397
1.5202481
1.5201576
1.5202641
1.5202019
1.5202886
1.5202399
1.5203239
1.5201604
1.5202201
1.5201974
1.5202545
1.520394
1.5204679
1.5206012
1.5206486
1.5204418
1.5205347
1.520638
1.5207035
1.5205109
1.5206958
1.5205973
1.5207544
1.52031
1.5202713
1.5203435
1.5203784
1.5203289
1.5203681
1.5204912
1.5204561
1.5205768
1.5207055
1.5207516
1.5208517
1.5209817
1.5203581
1.5204031
1.5203788
1.5203182
1.5202961
1.5203002
1.5203235
1.5205035
1.5204665
1.5208803
1.520885
1.520546
1.5205541
1.5209096
1.5208873
1.5221936
1.5222634
1.5222907
1.5222232
1.5222532
1.5222431
1.5223145
1.5223242
1.522371
1.5222607
1.5223441
1.5222909
1.522327
1.5224079
1.5223153
1.5223978
1.5218442
1.5216197
1.5216909
1.5217933
1.5216672
1.5217639
1.5219124
1.5218392
1.5221089
1.5220113
1.5220723
1.5220519
1.5220683
1.5221397
1.52211
1.5221755
1.5219522
1.5217408
1.5218103
1.5219074
1.5218888
1.5217879
1.5219483
1.5220262
1.5221758
1.522221
1.5221355
1.5221865
1.5222526
1.5221837
1.5222229
1.522287
1.5223416
1.5224017
1.5224278
1.5223713
1.5224763
1.5225004
1.5224291
1.5224001
1.5223983
1.5224581
1.5224098
1.5224679
1.5224708
1.522544
1.5224596
1.5225329
1.5223909
1.5224679
1.5224786
1.5224024
1.5224078
1.5224034
1.5224803
1.5224845
1.5225695
1.5224682
1.5225595
1.5224794
1.5224864
1.5225757
1.5224816
1.5225721
1.5224447
1.5223471
1.5224225
1.5223713
1.522421
1.5225121
1.5225334
1.5224451
1.5224605
1.522379
1.5224562
1.5223829
1.5224571
1.5225473
1.5224625
1.5225516
1.5225969
1.5225112
1.5225771
1.5225341
1.5226783
1.5225768
1.5226619
1.5225984
1.522553
1.5226174
1.5225482
1.5226134
1.5226149
1.522694
1.5226196
1.522699
1.5225604
1.5226266
1.5226351
1.5225704
1.5225731
1.5226383
1.5225767
1.522641
1.5227115
1.5227173
1.5226281
1.5226368
1.5226428
1.52264
1.5227221
1.5227259
1.5222769
1.5221762
1.5222525
1.522202
1.5222449
1.5223483
1.5223709
1.5222703
1.5222849
1.5222043
1.5222813
1.5222064
1.5222732
1.5223779
1.5222782
1.5223811
1.5220394
1.5221195
1.5221435
1.5220648
1.5220644
1.5221465
1.522146
1.5220632
1.5220983
1.5221925
1.522217
1.5221242
1.5221257
1.5222206
1.5222218
1.5221262
1.5220677
1.5221513
1.5221652
1.5220826
1.5220847
1.5220821
1.5221653
1.5221682
1.5221314
1.5222285
1.5222422
1.5221458
1.5221493
1.5221454
1.5222419
1.5222458
1.5222133
1.5222924
1.5223049
1.5222272
1.5222316
1.5222268
1.5223055
1.5223097
1.5223906
1.5224014
1.5222864
1.5222984
1.5223047
1.5222994
1.5224023
1.5224061
1.5217265
1.521502
1.5215712
1.5216725
1.5215458
1.5216454
1.5217996
1.5217187
1.5219147
1.5219752
1.521876
1.5219395
1.5219307
1.5220159
1.5219712
1.5220513
1.5219091
1.5219848
1.5220133
1.5219387
1.521952
1.522028
1.5220342
1.5219579
1.5220814
1.5219637
1.5220527
1.5219946
1.5221045
1.5220079
1.5220966
1.522016
1.5216315
1.5214145
1.5214843
1.5215715
1.5214473
1.5215364
1.5216884
1.5216129
1.5218675
1.5217667
1.5218354
1.5218007
1.5218147
1.5218932
1.5218516
1.5219273
1.5220361
1.5221081
1.5221357
1.5220665
1.5220809
1.5221534
1.5220906
1.5221628
1.5221961
1.5222229
1.5220996
1.5221291
1.5221572
1.5221461
1.5222424
1.5222511
1.5215211
1.5213132
1.5213928
1.5214458
1.5213539
1.5214529
1.5215912
1.5215006
1.5216634
1.521745
1.5216344
1.5217173
1.5216943
1.521788
1.5217263
1.5218176
1.5215479
1.5216797
1.5217005
1.5215669
1.5215893
1.521587
1.521719
1.5217219
1.5218073
1.5216573
1.5217831
1.5216814
1.5217026
1.5218267
1.5216974
1.5218227
1.5213716
1.5211602
1.5212746
1.5212524
1.5212372
1.521352
1.5214659
1.521353
1.5215843
1.5214406
1.5215636
1.5214599
1.5215413
1.5216565
1.5215674
1.5216811
1.5217612
1.5218518
1.5218775
1.5217877
1.5218017
1.5218927
1.5218069
1.5218972
1.5219307
1.5219579
1.5218283
1.5218563
1.5218759
1.5218703
1.5219724
1.5219774
1.5211786
1.5211786
1.5213958
1.5214005
1.5213899
1.5215668
1.5215811
1.5213804
1.5212167
1.5212095
1.5214274
1.5214347
1.5214192
1.5214161
1.5216053
1.5216038
1.521097
1.5208655
1.5210567
1.5208939
1.5210272
1.521195
1.521266
1.5210869
1.5213044
1.5210975
1.5213022
1.5210971
1.5212856
1.52146
1.5212949
1.5214723
1.5206447
1.5206592
1.520884
1.5209046
1.5211059
1.5211043
1.5208554
1.5208592
1.5206698
1.5223659
1.5225048
1.5223178
1.5225428
1.5208665
1.5209157
1.5209173
1.5211837
1.5211844
1.5212228
1.5212162
1.5209554
1.5209567
1.5226984
1.5226506
1.5226806
1.5227224
1.5209629
1.5209231
1.5224085
1.5223737
1.5225465
1.5225739
1.5227133
1.5226766
1.5227193
1.5227467
1.5209678
1.5209681
1.5212586
1.5212578
1.5212802
1.5212724
1.5209896
1.5209897
1.5228419
1.5227832
1.5227909
1.5228449
1.5209952
1.5209733
1.5209871
1.5209875
1.5212692
1.5212689
1.5212644
1.5212554
1.5209761
1.5209757
1.5228299
1.5227746
1.522776
1.5228309
1.5209813
1.5209929
1.5212655
1.521264
1.5214973
1.5214942
1.5214795
1.5214868
1.5216746
1.5216871
1.5214841
1.5212598
1.5214947
1.5212493
1.521681
1.5214803
1.5214729
1.5216752
1.5228365
1.5227893
1.5227931
1.5228387
1.5228102
1.522794
1.5228458
1.5228542
1.5214922
1.5212539
1.5214902
1.5212517
1.5216781
1.5214756
1.5214809
1.5216876
1.5215007
1.521274
1.5215093
1.5212647
1.5216945
1.5214935
1.5214885
1.5216917
1.5218182
1.5216602
1.5218042
1.5216724
1.5217828
1.5219197
1.521935
1.5217981
1.5216762
1.5218204
1.5216763
1.5218199
1.5217985
1.5219348
1.5218005
1.5219362
1.5218133
1.5216563
1.5217942
1.5216728
1.5217718
1.5217935
1.5219032
1.5219251
1.5218043
1.5216635
1.5218065
1.5216604
1.5219204
1.5217852
1.5217843
1.5219187
1.5219998
1.5218816
1.521977
1.5219052
1.5220608
1.5219533
1.5219779
1.5220848
1.5218981
1.5219961
1.5218996
1.5219979
1.522085
1.5219751
1.5219737
1.5220837
1.5220135
1.5218989
1.5219985
1.5219147
1.5220879
1.5219759
1.5219915
1.5221028
1.5219159
1.5220149
1.5219141
1.5220134
1.5221023
1.521991
1.5219933
1.5221046
1.5228853
1.5228556
1.5228941
1.5229159
1.5228637
1.5228576
1.5228943
1.5228957
1.5228597
1.5228126
1.5228148
1.5228633
1.5228634
1.522812
1.5228361
1.522881
1.5224748
1.5224379
1.5225933
1.5226248
1.5225515
1.5225432
1.5226753
1.5226854
1.5228177
1.5227709
1.5228011
1.5228364
1.5227525
1.5227134
1.5227543
1.5227866
1.5219999
1.5218906
1.5219878
1.5219024
1.5219684
1.5220788
1.5220898
1.5219798
1.5218353
1.5219369
1.5218447
1.5219459
1.5219246
1.5220392
1.5219146
1.5220297
1.5215584
1.5217008
1.5217094
1.521566
1.5215216
1.5215306
1.5216716
1.5216627
1.5218244
1.5216792
1.5218157
1.5216884
1.5216402
1.5217748
1.5216483
1.5217843
1.5218061
1.5216534
1.5217935
1.5216632
1.5217746
1.521908
1.5219209
1.5217872
1.5217377
1.5215996
1.5217452
1.5215909
1.5217251
1.5218637
1.5217176
1.5218556
1.521795
1.5218943
1.5219014
1.521803
1.5217617
1.5218607
1.5217517
1.5218505
1.5219853
1.521991
1.5218721
1.5218783
1.521826
1.5218364
1.5219499
1.5219395
1.5208743
1.5208739
1.5211602
1.5211573
1.5211448
1.5211331
1.5208616
1.5208606
1.5227397
1.5226834
1.5226548
1.5227088
1.5208665
1.5208791
1.520961
1.5209594
1.5212484
1.5212463
1.5211856
1.5211754
1.5208928
1.5208911
1.5228091
1.5227534
1.5226987
1.5227596
1.5208957
1.5209641
1.5211567
1.5211521
1.5213896
1.521388
1.5213772
1.5215757
1.5215806
1.5213758
1.5211389
1.5211256
1.5213536
1.5213688
1.5213523
1.5213402
1.52155
1.5215386
1.5214818
1.5212479
1.5214815
1.5212431
1.52147
1.5216676
1.5216757
1.5214726
1.5214095
1.5211834
1.5214225
1.5211707
1.5214102
1.5216146
1.5213991
1.5216046
1.5228086
1.5227569
1.5227059
1.52276
1.5226816
1.5227009
1.5227503
1.5227248
1.5208235
1.5208214
1.5211135
1.5211077
1.5210438
1.5210281
1.5207473
1.5207439
1.5207494
1.5208264
1.5211121
1.5211039
1.5213417
1.5213471
1.5213345
1.521332
1.5215322
1.5215337
1.5212604
1.5210411
1.5212812
1.521022
1.5214718
1.5212681
1.5212489
1.5214532
1.5214266
1.5215536
1.5215338
1.5214043
1.5218542
1.5217513
1.521848
1.5217575
1.5219355
1.5218277
1.521834
1.5219414
1.5216801
1.5217806
1.5216995
1.5217996
1.5218902
1.5217789
1.5217586
1.5218706
1.5216627
1.5215163
1.5216571
1.5215202
1.5216372
1.5216436
1.5217698
1.5217761
1.5215842
1.5214558
1.5216009
1.5214383
1.5217182
1.5215812
1.521564
1.5217003
1.5216098
1.5215387
1.5216324
1.521515
1.5217193
1.5216161
1.5215891
1.5216941
1.5210859
1.5211936
1.5212218
1.5213196
1.5214179
1.5213053
1.5211642
1.521289
1.52282
1.5227651
1.5227217
1.5227764
1.5228438
1.5228085
1.5227771
1.5228084
1.5227774
1.5227815
1.5228174
1.5228056
1.5227749
1.5227295
1.5227182
1.5227589
1.5240829
1.5240831
1.5240572
1.5240559
1.5238832
1.5240301
1.5239911
1.5238088
1.5237668
1.524012
1.5197372
1.5232283
1.5233212
1.5234033
1.5233019
1.5231282
1.5230451
1.5229936
1.5230734
1.523149
1.5231943
1.5232171
1.5231763
1.5233714
1.5234622
1.5234712
1.5233854
1.5230399
1.523004
1.522989
1.5230196
1.522931
1.5228311
1.5228024
1.5229013
1.5227801
1.5226639
1.5226675
1.5227804
1.5228755
1.5228661
1.5229058
1.5229153
1.5229554
1.5229292
1.5229392
1.5229619
1.5230545
1.5230761
1.5230868
1.5230632
1.5230871
1.5230678
1.5230544
1.5230713
1.5229542
1.5229336
1.5229572
1.5229801
1.5232289
1.5232787
1.523283
1.5232368
1.5234483
1.5235363
1.52354
1.523452
1.5232203
1.5232657
1.5232672
1.5232303
1.523437
1.5235275
1.5235199
1.5234322
1.523192
1.5232542
1.5232488
1.5231814
1.5234235
1.5235167
1.5234259
1.5231866
1.5232503
1.5232327
1.5231781
1.5229029
1.5228842
1.5228655
1.5228795
1.5230112
1.5230421
1.52303
1.5229976
1.5230206
1.5230288
1.5230046
1.5229931
1.5228862
1.5228748
1.5228667
1.5228811
1.522557
1.5225612
1.5226213
1.522625
1.5227087
1.5226274
1.5227086
1.522624
1.5225341
1.5226007
1.5225972
1.5225296
1.5226842
1.5226034
1.5226857
1.5225997
1.5224789
1.522547
1.5225469
1.5224784
1.5224432
1.5224487
1.5225187
1.5225136
1.5226331
1.52255
1.5226356
1.5225488
1.5225161
1.5226051
1.5225215
1.5226089
1.5223915
1.5223962
1.5224648
1.5224697
1.5224709
1.5225593
1.5224662
1.5225547
1.522359
1.5224373
1.5224327
1.5223524
1.5225277
1.5224393
1.5225317
1.5224347
1.5223009
1.5223803
1.5223007
1.5223808
1.5223823
1.5223823
1.5224763
1.5224766
1.5222555
1.52234
1.5222621
1.5223454
1.522446
1.5223483
1.5223433
1.5224409
1.5222135
1.522291
1.5222981
1.5222201
1.5221643
1.5221735
1.5222538
1.5222468
1.5223947
1.5222889
1.5223893
1.5222944
1.5222419
1.5223493
1.5222488
1.5223559
1.5221151
1.522195
1.5221975
1.5221169
1.5220743
1.5221556
1.5220666
1.5221499
1.5222987
1.5221893
1.5222976
1.5221906
1.522143
1.5221477
1.5222593
1.522253
1.522154
1.5220627
1.522145
1.5220724
1.5221288
1.5222241
1.522232
1.5221367
1.5220975
1.522021
1.5221066
1.5220105
1.5220881
1.5221869
1.5220785
1.5221784
1.521966
1.5220506
1.5220546
1.5219705
1.5219283
1.5220131
1.5220034
1.5219175
1.5221326
1.5220312
1.5221295
1.5220342
1.5220829
1.5219915
1.5220912
1.5219821
1.5217062
1.5217836
1.5217569
1.5216766
1.5212625
1.5214056
1.5214852
1.5213565
1.5217705
1.5218569
1.5218297
1.5217397
1.521331
1.5214729
1.5215685
1.5214429
1.5219188
1.5219999
1.5220047
1.521924
1.5218726
1.5219554
1.5219363
1.5218514
1.5219833
1.5220767
1.5220806
1.5219877
1.5219376
1.5220329
1.522015
1.5219176
1.5220656
1.5221423
1.5221449
1.5220688
1.5220202
1.5220976
1.5220813
1.5220014
1.5222375
1.52214
1.5222358
1.5221413
1.5221781
1.5220932
1.5221941
1.5220763
1.521849
1.5219206
1.5218925
1.5218177
1.5214236
1.5215615
1.5216359
1.5215134
1.5219822
1.5219209
1.5220102
1.5218882
1.5215033
1.5216379
1.5217382
1.521621
1.5220146
1.5220807
1.5219836
1.5220543
1.5220547
1.5221351
1.5220845
1.5221604
1.5216159
1.5217452
1.5218152
1.5217037
1.5216975
1.521803
1.5218214
1.521909
1.5222372
1.5222391
1.5223081
1.5223101
1.5223114
1.5223954
1.5223097
1.5223942
1.5221972
1.5222708
1.5222562
1.5221802
1.5223453
1.5222732
1.5223595
1.5222574
1.5223969
1.5223973
1.5224584
1.5224583
1.5224606
1.5225363
1.5224616
1.5225403
1.5223619
1.5224236
1.5224096
1.522346
1.5224898
1.5224263
1.5225026
1.5224107
1.5221649
1.5222202
1.5221359
1.5221954
1.5221959
1.5222709
1.5222246
1.5222977
1.5219146
1.5217957
1.5219726
1.5218706
1.5218627
1.5219624
1.5219782
1.5220625
1.5198518
1.5198665
1.5198891
1.5198942
1.5199173
1.5199215
1.5199345
1.5199427
1.5191131
1.5189666
1.5194273
1.5193782
1.5196502
1.5196783
1.5197235
1.5197361
1.5200422
1.5200306
1.5200664
1.5200726
1.5201011
1.5200966
1.5201159
1.5201281
1.5204978
1.5205261
1.520672
1.5207544
1.520269
1.5202841
1.5203169
1.520332
1.5202378
1.5197455
1.519746
1.5193862
1.519631
1.5193747
1.5195811
1.519536
1.5195287
1.5195828
1.5196149
1.519595
1.519649
1.5196419
1.5196321
1.5195977
1.5195892
1.5196194
1.5196455
1.5196433
1.5196511
1.5196392
1.5196187
1.5196001
1.5195954
1.5196113
1.5194
1.519464
1.5195126
1.5194534
1.5195532
1.5195418
1.5194961
1.519472
1.5197029
1.5197241
1.5197285
1.5196895
1.5197126
1.5197091
1.5197451
1.5197383
1.5197271
1.5197219
1.5196692
1.51969
1.5196923
1.5196419
1.5196696
1.5196565
1.5197073
1.5197041
1.5196866
1.5196685
1.5197996
1.5197574
1.5197485
1.5197882
1.5197311
1.5197374
1.5197636
1.5197776
1.5201217
1.5204226
1.5204028
1.5200893
1.520487
1.5201602
1.520141
1.5204644
1.5200865
1.5200562
1.5203642
1.5203808
1.5203479
1.5200321
1.5200284
1.5203508
1.5197137
1.5197179
1.519747
1.5197574
1.5196772
1.519698
1.5197094
1.5197307
1.5196393
1.5196154
1.5196728
1.5196618
1.5195794
1.5195626
1.5195223
1.5194891
1.5194172
1.5193557
1.5192744
1.5193136
1.5201917
1.5198181
1.5196972
1.5200888
1.5195762
1.519598
1.5196461
1.5196194
1.5203552
1.5200139
1.5199849
1.5203249
1.5195871
1.5195395
1.5195009
1.5195401
1.5199008
1.5199507