/*--------------------------------*- C++ -*----------------------------------*\
  =========                 |
  \\      /  F ield         | OpenFOAM: The Open Source CFD Toolbox
   \\    /   O peration     | Website:  https://openfoam.org
    \\  /    A nd           | Version:  7
     \\/     M anipulation  |
\*---------------------------------------------------------------------------*/
FoamFile
{
    version     2.0;
    format      ascii;
    class       volScalarField;
    location    "6000";
    object      nut;
}
// * * * * * * * * * * * * * * * * * * * * * * * * * * * * * * * * * * * * * //

dimensions      [0 2 -1 0 0 0 0];

internalField   nonuniform List<scalar> 
34377
(
5.0243804e-35
2.6001869e-34
1.6108711e-35
1.6317461e-35
4.702337e-36
6.273572e-35
4.2687822e-36
2.1662955e-36
1.4261716e-36
1.3220552e-36
3.2014011e-36
8.1662778e-35
3.1867e-36
2.3615808e-34
8.4987752e-35
1.6055534e-35
4.4649455e-36
7.1809153e-36
7.2153444e-36
3.8647754e-36
7.6658355e-36
7.030511e-36
3.4951648e-36
3.6311163e-36
4.5165246e-36
1.5958093e-35
4.0254305e-36
3.2300349e-36
9.6183761e-37
6.2366555e-37
6.5095627e-37
2.0615602e-36
1.5507248e-36
1.7144888e-36
1.5645497e-36
1.4435596e-36
1.0396644e-36
2.2482255e-36
2.3993064e-36
1.1008212e-36
1.2242767e-36
2.0449433e-36
2.143413e-36
5.9398347e-36
1.0305852e-36
9.1897204e-37
4.8103362e-36
4.8178893e-36
3.8311882e-35
4.9492834e-36
3.4297396e-35
3.0633812e-36
5.5728463e-36
1.1760283e-36
1.1957917e-36
4.6613228e-36
3.2448679e-36
8.8125929e-35
8.005341e-35
5.0259833e-36
3.8190721e-35
4.9379489e-36
3.6612156e-35
6.5715548e-36
7.8102811e-36
3.4316428e-36
3.6409821e-36
2.5791051e-36
2.934842e-36
2.2432076e-36
2.474917e-36
2.1966039e-36
2.7956619e-36
2.7538534e-36
2.062009e-36
2.791803e-36
2.3703796e-36
3.1153227e-36
2.5986613e-36
2.8540163e-36
2.390234e-36
2.7499636e-36
2.2592514e-36
3.5099774e-36
7.1269536e-36
7.3102328e-36
3.8242558e-36
6.1187568e-37
5.9058528e-37
8.2249607e-37
9.8714409e-37
2.5475409e-36
1.8414636e-36
1.6471877e-36
2.0350212e-36
2.3223569e-36
1.2398779e-36
1.3798786e-36
1.1491954e-36
1.155842e-36
7.8104695e-37
6.7070322e-37
6.3885093e-37
7.7415292e-37
3.5977237e-37
8.6995162e-37
7.4977501e-37
6.974319e-37
8.5076431e-37
3.7689633e-37
4.1510919e-37
3.810967e-37
1.3841597e-36
1.6161342e-36
1.6850327e-36
1.3564384e-36
1.4814812e-36
1.2971267e-36
1.2346701e-36
1.5161641e-36
1.4161324e-36
1.4530833e-36
1.4559535e-36
1.5577939e-36
2.0338889e-36
1.8456255e-36
1.9971586e-36
1.8647761e-36
1.4682197e-36
1.3762396e-36
1.3540636e-36
1.3554794e-36
9.6565412e-37
9.7156597e-37
2.0667259e-36
1.7676121e-36
1.2786422e-36
2.1698508e-36
2.2304136e-36
2.9024297e-36
3.0270304e-36
2.2704449e-36
4.1740324e-36
4.0350517e-36
1.3695389e-35
1.4056962e-35
2.2259009e-36
2.1533784e-36
3.0758022e-36
2.9506213e-36
4.0411225e-36
1.2498442e-35
1.4128815e-35
5.5529136e-36
9.5949608e-37
8.5734057e-37
4.3773563e-36
2.0573129e-36
1.4362096e-36
1.3123722e-36
1.9393362e-36
1.2656888e-36
1.0862364e-36
5.609316e-36
4.8832127e-36
5.609133e-36
5.361844e-36
4.0399908e-35
3.7512634e-35
4.9903377e-36
4.749481e-36
3.9436907e-35
3.4312487e-35
2.1905395e-36
2.1454691e-36
2.9081512e-36
3.0188732e-36
4.1744194e-36
3.9942068e-36
1.3353541e-35
1.3552847e-35
2.1701512e-36
2.1565537e-36
2.9501981e-36
2.8944766e-36
4.0172255e-36
3.750943e-36
1.3678984e-35
1.2382077e-35
2.5710396e-36
2.5170441e-36
2.083154e-36
2.2603494e-36
3.0067214e-36
3.115837e-36
2.5605018e-36
3.0023296e-36
1.0025361e-36
1.0911061e-36
1.0296526e-36
1.0049973e-36
1.1481222e-36
1.1777928e-36
1.039875e-36
1.056905e-36
1.1288999e-36
1.185386e-36
1.0177204e-36
1.0100619e-36
1.1591028e-36
1.1123171e-36
1.0287345e-36
9.5885324e-37
9.9862477e-37
1.0690389e-36
1.1703481e-36
1.041717e-36
1.2407488e-36
1.2657693e-36
1.0765488e-36
1.0832467e-36
1.1415604e-36
1.210365e-36
1.035794e-36
1.0747819e-36
1.0339271e-36
1.1878461e-36
1.0891434e-36
9.5781577e-37
2.8630347e-36
2.536235e-36
2.1136221e-36
2.5130051e-36
2.6769327e-36
2.7054333e-36
2.0359939e-36
2.2725549e-36
8.5461414e-37
6.4798617e-37
6.8918561e-37
8.2253917e-37
3.725475e-37
7.7649959e-37
6.701402e-37
6.3983185e-37
3.5064599e-37
7.7865487e-37
1.1992694e-36
1.3976558e-36
1.0928168e-36
1.1014713e-36
1.2508365e-36
1.4476808e-36
1.1426354e-36
1.4941221e-36
4.016928e-37
1.4252453e-36
1.9290689e-36
2.0909035e-36
1.4617828e-36
1.2255666e-36
1.1452043e-36
1.0430023e-36
1.1651965e-36
1.1626943e-36
1.1719731e-36
1.0660958e-36
1.0989047e-36
8.9557888e-37
9.0389884e-37
9.1734725e-37
9.0145284e-37
8.6161495e-37
9.4085022e-37
8.9672022e-37
9.2932879e-37
6.2342821e-37
7.048497e-37
6.852788e-37
6.4500604e-37
6.1108888e-37
5.8681865e-37
5.4592283e-37
5.6354066e-37
3.3958751e-37
5.3522622e-37
5.2741181e-37
5.2573473e-37
3.2911247e-37
5.4572748e-37
6.5880727e-37
6.5183074e-37
6.2443012e-37
6.4302519e-37
2.8924694e-37
2.9429928e-37
6.8397365e-37
7.9261496e-37
7.3098662e-37
7.3487371e-37
6.3220639e-37
5.7633019e-37
6.6892403e-37
6.0883638e-37
4.06939e-37
5.8174728e-37
5.7584739e-37
6.6210978e-37
6.9730871e-37
6.7860513e-37
3.6593218e-37
2.3871631e-37
2.3231955e-37
2.0168424e-37
2.2208452e-37
2.3599585e-37
2.3387328e-37
2.2298045e-37
1.1912146e-36
1.3289104e-36
1.2502789e-36
1.3861308e-36
9.0125285e-37
1.0248793e-36
9.5140694e-37
1.0313898e-36
9.5184543e-37
9.3629299e-37
9.0944613e-37
9.4235673e-37
1.2399953e-36
1.248002e-36
1.2156241e-36
1.2415744e-36
6.8263561e-37
7.2573954e-37
7.3541668e-37
7.4128555e-37
7.1146104e-37
7.3959492e-37
7.7728581e-37
7.748229e-37
1.4185772e-36
1.407476e-36
1.3358115e-36
1.4662778e-36
1.5839972e-36
1.6273826e-36
1.3296068e-36
1.3253762e-36
7.5287756e-37
7.4255147e-37
7.074232e-37
7.182442e-37
6.8272186e-37
7.2208074e-37
7.2532749e-37
7.1830226e-37
9.993102e-37
9.8040308e-37
9.2371475e-37
4.5054726e-36
2.4274344e-36
2.3405855e-36
2.4490959e-36
2.4594734e-36
1.4411557e-36
1.8630387e-36
1.989286e-36
1.52633e-36
1.5592763e-36
1.9262526e-36
1.9610639e-36
1.5231264e-36
1.4731019e-36
1.5778949e-36
1.6076908e-36
3.0144e-36
2.8672901e-36
3.104399e-36
3.1640956e-36
1.6140427e-36
1.4548595e-36
1.4164196e-36
1.4459359e-36
1.8490084e-36
1.9746332e-36
1.5306269e-36
1.5436133e-36
1.5684175e-36
3.2121111e-36
1.5961633e-36
3.0160101e-36
1.5811299e-36
3.1577254e-36
2.1845754e-36
1.7077373e-36
1.1865585e-36
2.1604655e-36
4.697842e-36
2.2694356e-36
2.3962033e-36
1.248281e-36
1.4639864e-36
3.5859628e-36
2.3304873e-36
2.3796299e-36
1.4003047e-36
1.2362816e-36
2.301995e-36
2.0922732e-36
3.0627574e-36
2.3336258e-36
2.4001434e-36
3.2186865e-36
3.0390115e-36
2.3361702e-36
2.3327826e-36
3.1073175e-36
4.5313402e-36
4.3316465e-36
1.4444225e-35
1.4586111e-35
4.2573921e-36
3.9854107e-36
1.4501271e-35
1.2882028e-35
2.9766834e-36
2.2313124e-36
2.3131369e-36
3.167465e-36
3.0432439e-36
2.3264769e-36
2.3106464e-36
3.0687739e-36
4.4699344e-36
4.3330048e-36
1.4991866e-35
1.4486569e-35
3.8943029e-36
1.4018346e-35
4.2469344e-36
1.2237666e-35
1.43627e-36
1.3870251e-36
1.8426123e-36
1.9887238e-36
1.5503915e-36
1.5653689e-36
1.8950176e-36
1.9381558e-36
1.5360901e-36
1.4688512e-36
2.7268633e-36
2.8718984e-36
1.6198687e-36
1.6276304e-36
2.9226173e-36
2.9784472e-36
1.6591771e-36
1.4886016e-36
1.379202e-36
1.4176146e-36
1.841767e-36
1.9732334e-36
1.5522798e-36
1.5604439e-36
1.877167e-36
1.9122029e-36
1.5136326e-36
1.4510392e-36
1.6601122e-36
2.8675452e-36
1.6522671e-36
2.9860538e-36
1.6375696e-36
1.45773e-36
2.9824694e-36
2.9363805e-36
1.0437401e-36
1.0824258e-36
9.8328465e-37
9.9325819e-37
1.0643857e-36
9.7503164e-37
1.0064898e-36
8.9260957e-37
1.179865e-36
1.2239802e-36
1.1249704e-36
1.1761247e-36
1.1302835e-36
1.2066434e-36
1.1814297e-36
1.1204967e-36
8.130211e-37
7.9894306e-37
3.0165391e-37
3.071956e-37
8.4416402e-37
8.9009923e-37
3.0149077e-37
2.9527379e-37
9.7154492e-37
8.3659538e-37
3.0547903e-37
3.269044e-37
1.0159131e-36
1.0410189e-36
3.2803619e-37
3.2359743e-37
9.0680089e-37
9.0245603e-37
3.0365293e-37
3.1309835e-37
9.1298701e-37
9.3860691e-37
3.0154333e-37
3.01959e-37
2.9767251e-37
8.4601406e-37
9.7214696e-37
3.1414187e-37
9.472121e-37
9.9870317e-37
3.0915582e-37
3.0527073e-37
8.5641817e-37
9.0118783e-37
3.1039341e-37
3.053551e-37
9.6978207e-37
8.9420216e-37
3.0838679e-37
3.2030002e-37
9.1116579e-37
3.2784713e-37
1.0755863e-36
3.4600785e-37
3.5975162e-37
1.1616443e-36
1.1115852e-36
3.5361745e-37
9.1711406e-37
9.2344936e-37
3.1115123e-37
3.1208625e-37
3.1795061e-37
9.9865732e-37
9.6492007e-37
3.279817e-37
1.0628518e-36
9.9158345e-37
3.1552162e-37
3.203655e-37
8.9990728e-37
1.0835635e-36
3.1008981e-37
2.9984805e-37
1.1566579e-36
1.1352595e-36
1.068844e-36
1.0423922e-36
1.0186087e-36
1.0963106e-36
9.7646258e-37
9.8329979e-37
1.0726658e-36
1.1388386e-36
1.1695702e-36
1.0583095e-36
1.1294058e-36
1.1144042e-36
1.0350227e-36
9.4196605e-37
6.5989303e-37
6.4149181e-37
6.1202585e-37
5.871865e-37
5.6939424e-37
5.421306e-37
5.2409236e-37
5.3792865e-37
3.6886732e-37
6.6849241e-37
6.0408182e-37
6.2077038e-37
6.5760823e-37
3.9248396e-37
7.5112125e-37
7.5643544e-37
7.0655232e-37
7.4104676e-37
3.5707461e-37
3.4042118e-37
7.1444283e-37
6.4714265e-37
6.5567628e-37
6.0813425e-37
5.4276597e-37
5.5759572e-37
3.4674728e-37
5.6036982e-37
6.135188e-37
3.0267797e-37
7.0409981e-37
6.8085249e-37
6.7474634e-37
6.4162156e-37
1.0874728e-36
1.2352131e-36
1.1540031e-36
1.2459777e-36
1.2507142e-36
1.1523e-36
1.141606e-36
9.0198594e-37
9.2638289e-37
9.6260514e-37
9.5547066e-37
9.4231656e-37
9.5832969e-37
1.0473348e-36
1.0447781e-36
1.08876e-36
1.0356024e-36
1.3672346e-36
1.3643658e-36
1.2184989e-36
1.3216988e-36
8.1208949e-37
8.2642554e-37
8.4934665e-37
8.5160368e-37
1.1351838e-36
1.1202e-36
1.0868376e-36
1.1643237e-36
2.4574764e-37
2.2370307e-37
2.6273616e-37
2.9037401e-37
7.1300819e-37
7.0566413e-37
6.4382914e-37
6.4712749e-37
6.3845494e-37
5.7447756e-37
6.5835738e-37
6.0287583e-37
6.9125053e-37
5.1497727e-37
7.0734127e-37
5.4371044e-37
7.6232982e-37
5.6512087e-37
7.4450051e-37
5.7475588e-37
6.7845914e-37
6.410638e-37
6.0257812e-37
5.7927934e-37
6.8140435e-37
6.0225292e-37
6.7485654e-37
6.06117e-37
7.1141294e-37
5.2262808e-37
7.0572492e-37
5.32094e-37
7.1403363e-37
6.6909844e-37
5.3188268e-37
5.2069234e-37
6.5770976e-37
5.1747427e-37
6.6413403e-37
5.2410799e-37
6.6809214e-37
6.7745266e-37
5.7358134e-37
5.8690824e-37
6.7485214e-37
6.4599879e-37
5.7207691e-37
5.5564503e-37
6.5042527e-37
6.1986891e-37
5.1451404e-37
4.9670821e-37
6.1210385e-37
4.86334e-37
6.4141185e-37
5.1144374e-37
6.9742719e-37
6.9147337e-37
5.9659852e-37
5.9840625e-37
6.3509328e-37
5.4441332e-37
6.7039793e-37
5.7842283e-37
6.7654616e-37
6.7342369e-37
5.4493457e-37
5.5007851e-37
6.3972302e-37
5.2101998e-37
6.8406687e-37
5.5787766e-37
6.4268869e-37
6.3325795e-37
5.7600389e-37
5.751729e-37
5.9422136e-37
5.4037445e-37
6.3608701e-37
5.8364774e-37
6.8944325e-37
6.8339617e-37
5.6655942e-37
5.673613e-37
5.0718143e-37
4.7175185e-37
5.1365539e-37
4.7198601e-37
4.7088934e-37
4.3655076e-37
5.1753264e-37
4.7422226e-37
3.5868257e-37
3.9268511e-37
4.1398339e-37
3.6763628e-37
4.3688969e-37
3.7658782e-37
3.8131308e-37
4.0601468e-37
4.2275624e-37
4.3637167e-37
4.8951768e-37
4.4446508e-37
3.4954839e-37
3.4898242e-37
3.8862744e-37
3.8899438e-37
4.0293869e-37
3.4904418e-37
3.6868739e-37
3.6614725e-37
4.0966732e-37
4.0308799e-37
4.6092462e-37
4.3297436e-37
4.8772905e-37
4.5479381e-37
3.7064027e-37
4.0761926e-37
4.7138323e-37
4.437706e-37
4.6621574e-37
4.340593e-37
6.1037477e-37
5.4974487e-37
5.8669977e-37
5.3528266e-37
6.0117475e-37
5.4630949e-37
6.1996794e-37
5.6656096e-37
6.5718753e-37
5.396792e-37
6.757179e-37
5.572622e-37
6.7457024e-37
5.5416124e-37
6.4579233e-37
5.3943173e-37
2.7910729e-37
3.0014859e-37
2.8830102e-37
3.2276058e-37
4.006528e-37
3.4332664e-37
3.3122734e-37
3.6853403e-37
6.5376529e-37
5.376368e-37
7.2443865e-37
5.9248874e-37
6.9844975e-37
7.133142e-37
6.3062227e-37
6.4988179e-37
5.9296285e-37
5.4673281e-37
6.6785804e-37
6.1299185e-37
7.4940498e-37
7.6494143e-37
6.1525886e-37
6.3293731e-37
4.1010067e-37
4.3262674e-37
4.7952022e-37
4.7886282e-37
4.7058693e-37
3.4535967e-37
4.0520928e-37
4.1422576e-37
4.4895833e-37
3.9201004e-37
5.408407e-37
5.1199287e-37
5.6548119e-37
5.2938552e-37
4.538729e-37
4.3363426e-37
5.2925145e-37
4.9578175e-37
4.6665519e-37
5.1242026e-37
3.5931408e-37
3.9809634e-37
4.4244078e-37
4.1210288e-37
4.7082977e-37
4.4292808e-37
5.1888068e-37
4.8099342e-37
5.6996526e-37
6.7041909e-37
5.4887889e-37
7.0905615e-37
5.7713806e-37
6.1526147e-37
5.5730028e-37
6.562916e-37
5.93857e-37
6.916249e-37
5.6174517e-37
6.9031432e-37
5.6590809e-37
4.4171727e-37
3.4929425e-37
3.5966245e-37
4.4686571e-37
1.1584318e-37
1.1322918e-37
1.714708e-37
1.7455692e-37
1.8038432e-37
1.1982827e-37
1.0055505e-37
1.0826106e-37
1.2689595e-37
1.3716954e-37
1.4742785e-37
1.4970614e-37
1.460564e-37
1.526042e-37
1.4413304e-37
1.3328178e-37
1.3410421e-37
9.9184119e-38
1.2358875e-37
9.9242032e-38
1.1678818e-37
1.1949536e-37
1.3644013e-37
1.2424596e-37
1.8931355e-37
1.9062303e-37
1.5929142e-37
1.6973286e-37
7.1747291e-37
5.3271822e-37
7.5658048e-37
5.7095487e-37
7.9415912e-37
7.9610752e-37
5.8808952e-37
6.0005772e-37
6.6464745e-37
6.0050759e-37
7.0206526e-37
6.456177e-37
7.5133834e-37
6.6609578e-37
7.5699168e-37
6.7787777e-37
6.3255642e-37
6.8054046e-37
5.1163276e-37
5.4837937e-37
7.2481143e-37
7.3778973e-37
5.8325409e-37
5.9534354e-37
6.4721163e-37
5.5742027e-37
7.0396565e-37
6.0801385e-37
7.4203874e-37
7.5724558e-37
6.3434495e-37
6.5274818e-37
6.7877423e-37
6.720143e-37
5.7306514e-37
5.7383426e-37
6.6837319e-37
6.9070331e-37
5.7062316e-37
5.8960181e-37
6.4948665e-37
6.644661e-37
5.19841e-37
5.3115974e-37
6.5645067e-37
6.4512999e-37
5.2052602e-37
5.1683518e-37
6.6983282e-37
5.9731352e-37
6.5059473e-37
5.9173867e-37
6.8118769e-37
6.1250889e-37
6.8191742e-37
6.209931e-37
7.3928367e-37
5.5417497e-37
7.4440477e-37
5.7290301e-37
7.2898229e-37
5.5785556e-37
6.9804262e-37
5.5145168e-37
3.0665877e-37
2.9343512e-37
3.0191009e-37
3.0312768e-37
3.0035807e-37
2.9665592e-37
2.9849847e-37
3.0939741e-37
2.987619e-37
2.8604931e-37
2.9623915e-37
3.0874492e-37
3.138332e-37
3.2974381e-37
3.3596819e-37
3.3100305e-37
7.5978338e-37
7.2355575e-37
7.264685e-37
6.920529e-37
6.9998889e-37
6.8439769e-37
7.4703269e-37
7.2724648e-37
7.9710135e-37
7.9787369e-37
7.8821712e-37
7.8113649e-37
6.9111581e-37
6.4711346e-37
6.9888783e-37
6.8658308e-37
3.0199004e-37
3.0742565e-37
3.0633598e-37
3.0267739e-37
2.9127389e-37
2.8360435e-37
2.9458792e-37
2.8220416e-37
2.8851198e-37
2.8413159e-37
2.9693786e-37
2.8948946e-37
2.9817611e-37
2.9953955e-37
2.8756724e-37
2.906e-37
9.586927e-37
9.9463114e-37
7.0193665e-37
1.0236367e-36
9.6477419e-37
1.1062668e-36
1.0619052e-36
2.7663311e-36
1.2604308e-36
1.2698707e-36
1.1200314e-36
1.4419457e-36
1.3855315e-36
1.3722523e-36
1.3502449e-36
1.2863149e-36
1.3262381e-36
1.2724709e-36
1.3127154e-36
7.0139936e-37
1.409233e-36
7.1107061e-37
1.4638643e-36
1.4547625e-36
1.4857185e-36
7.0679092e-37
6.9496186e-37
1.3123704e-36
1.2865084e-36
7.1873495e-37
1.4394405e-36
7.2369512e-37
1.4859799e-36
1.407541e-36
1.4373382e-36
6.9158616e-37
6.794925e-37
3.1804964e-37
5.1930795e-37
5.2486591e-37
3.2781743e-37
5.289944e-37
5.4839738e-37
3.1685729e-37
3.3254203e-37
4.3787509e-37
5.3383561e-37
5.0031112e-37
4.0336818e-37
4.8003986e-37
3.924145e-37
4.155997e-37
4.981775e-37
4.3892216e-37
4.243072e-37
5.2612799e-37
5.3843906e-37
5.2880596e-37
4.0160807e-37
3.792983e-37
4.938085e-37
5.3252444e-37
5.3482702e-37
3.3905287e-37
3.3003169e-37
4.9641546e-37
5.1646037e-37
3.1646706e-37
3.2678433e-37
1.3948369e-36
1.4344845e-36
1.4153419e-36
1.3253662e-36
1.4536379e-36
1.4040678e-36
1.3820846e-36
1.3586671e-36
1.4490781e-36
1.4067569e-36
7.0711466e-37
7.1335275e-37
7.1245493e-37
1.4496028e-36
1.4825452e-36
6.9682049e-37
3.1187107e-37
5.1304447e-37
5.10399e-37
3.2008064e-37
4.9730324e-37
3.9189444e-37
3.9539266e-37
4.9656017e-37
5.2312759e-37
5.1949851e-37
3.1911364e-37
3.3036241e-37
4.926665e-37
3.9979513e-37
4.1721904e-37
5.0749821e-37
3.3248712e-37
5.293962e-37
5.0928601e-37
3.2074174e-37
3.9624755e-37
4.1269071e-37
5.2350162e-37
4.8930743e-37
4.4827446e-36
2.5068515e-36
2.4310398e-36
1.2738152e-36
1.1641242e-36
4.422886e-36
2.4693475e-36
2.5042418e-36
1.1116734e-36
1.0474633e-36
2.5987714e-36
1.3078909e-36
1.2572621e-36
1.1018063e-36
1.0489356e-36
3.389075e-36
1.2557008e-36
1.2697645e-36
1.4063793e-36
9.8801633e-37
5.5062976e-36
2.6091447e-36
2.5068494e-36
3.768033e-36
2.5052853e-36
2.5026173e-36
1.5403594e-36
1.472974e-36
1.5176869e-36
1.447884e-36
1.6266732e-36
1.6501443e-36
2.0827165e-36
1.8935258e-36
1.9699366e-36
2.0425028e-36
1.6144528e-36
1.5511091e-36
1.7597553e-36
2.7211891e-36
1.747871e-36
2.8142757e-36
1.7990254e-36
1.6172499e-36
2.887132e-36
2.8408909e-36
1.6540699e-36
2.0700902e-36
1.8961012e-36
1.6465443e-36
1.9487792e-36
2.0253535e-36
1.6057005e-36
1.5413357e-36
1.7900478e-36
1.7617201e-36
2.7550577e-36
2.8414155e-36
1.7662515e-36
2.8677017e-36
1.5910972e-36
2.8320449e-36
1.4941033e-36
1.449623e-36
1.5006737e-36
1.4210446e-36
1.9021046e-36
2.0681943e-36
1.6414451e-36
1.6567212e-36
1.9811234e-36
2.0334398e-36
1.6140322e-36
1.5346575e-36
1.825252e-36
1.8026968e-36
2.8111915e-36
2.8660092e-36
1.6306468e-36
1.811803e-36
2.9139349e-36
2.8918501e-36
1.9165324e-36
1.969545e-36
1.4822984e-36
1.5637187e-36
1.800157e-36
1.7505931e-36
2.7555356e-36
2.8840918e-36
2.06255e-36
1.9093683e-36
1.6223097e-36
1.6266337e-36
1.7026929e-36
1.5121543e-36
2.9239383e-36
2.780239e-36
1.416997e-36
1.4017234e-36
1.3325397e-36
1.3997578e-36
1.2974827e-36
1.3274134e-36
1.3902231e-36
1.4639238e-36
1.2944252e-36
1.4087845e-36
1.3118284e-36
1.2841807e-36
1.4919165e-36
1.4274255e-36
7.1608937e-37
7.2148304e-37
7.1218875e-37
1.4708471e-36
1.5181346e-36
6.9649251e-37
7.2652614e-37
1.4409648e-36
7.2984175e-37
1.4991153e-36
1.416033e-36
1.4540073e-36
6.8897547e-37
6.7452975e-37
4.6067313e-37
3.9194136e-37
4.0470825e-37
4.7442912e-37
5.0324588e-37
4.1411887e-37
4.0843709e-37
4.8942187e-37
5.2506313e-37
5.2713794e-37
3.3288022e-37
3.3388898e-37
5.2696113e-37
5.5130847e-37
3.2676394e-37
3.4022972e-37
5.2852239e-37
4.3385662e-37
4.2261236e-37
5.1927277e-37
5.2316436e-37
4.0110286e-37
3.8376435e-37
4.877292e-37
5.446439e-37
5.4676682e-37
3.3969437e-37
3.2779922e-37
5.0481137e-37
5.3054803e-37
3.2362304e-37
3.3287872e-37
1.3707461e-36
1.4467184e-36
1.4013016e-36
1.293083e-36
1.298597e-36
1.2664708e-36
1.4346669e-36
1.3840196e-36
1.3311916e-36
1.3633702e-36
1.2858763e-36
1.3114442e-36
1.4898231e-36
1.4295971e-36
7.0919403e-37
7.159589e-37
7.0710253e-37
1.4582816e-36
1.4967871e-36
6.9153287e-37
7.1687524e-37
1.4237016e-36
7.1927726e-37
1.4687324e-36
1.3953295e-36
1.4296743e-36
6.8431132e-37
6.7019642e-37
5.3959013e-37
5.4020545e-37
3.2273849e-37
3.3448512e-37
5.0786853e-37
4.133261e-37
4.2768112e-37
5.1757979e-37
5.3808706e-37
5.5946348e-37
3.4156175e-37
3.2549907e-37
4.1885235e-37
4.3428794e-37
5.4125052e-37
5.118406e-37
5.4072128e-37
5.4208733e-37
3.2820478e-37
3.3152128e-37
4.9631228e-37
5.2131026e-37
3.261996e-37
3.1180285e-37
4.2218054e-37
4.3764415e-37
5.3194613e-37
5.1652743e-37
3.7924544e-37
4.0201117e-37
5.1618824e-37
4.7338674e-37
7.894666e-37
7.7706489e-37
2.9023321e-37
2.9700987e-37
7.9564496e-37
8.1113304e-37
2.791989e-37
2.8344838e-37
9.0740264e-37
7.831402e-37
2.8396943e-37
3.0744926e-37
7.9379334e-37
8.8896299e-37
2.9117795e-37
2.9081899e-37
8.4954049e-37
8.7447822e-37
3.2658474e-37
3.3804009e-37
8.2588184e-37
8.931047e-37
3.2219443e-37
3.123474e-37
9.3068177e-37
8.4682727e-37
3.1647894e-37
3.3785101e-37
9.1400491e-37
9.2376353e-37
3.2690485e-37
3.2845043e-37
4.5708308e-37
4.4367434e-37
5.0277467e-37
5.0100392e-37
5.4645762e-37
5.1559967e-37
5.422506e-37
5.5770088e-37
5.2798938e-37
5.1869204e-37
5.4396403e-37
5.4651671e-37
5.2400308e-37
5.4714673e-37
5.0407428e-37
5.3466555e-37
4.9083405e-37
4.8638699e-37
5.5387373e-37
5.3751196e-37
5.5980687e-37
5.9098855e-37
6.0832104e-37
5.8229807e-37
5.1820858e-37
5.1491233e-37
5.5435403e-37
5.5489428e-37
5.370869e-37
5.268795e-37
4.8773243e-37
5.3128277e-37
9.0253585e-37
8.1623072e-37
3.1704165e-37
3.3434139e-37
8.1777742e-37
9.5005884e-37
3.0185075e-37
3.2006474e-37
7.6201206e-37
7.8446808e-37
3.0732611e-37
3.0994331e-37
2.9371722e-37
8.0529863e-37
7.5826751e-37
2.9099658e-37
8.1727185e-37
8.0281877e-37
3.2507377e-37
3.2726686e-37
7.9500391e-37
8.6947647e-37
2.9925634e-37
2.9459468e-37
8.9501074e-37
7.9145129e-37
2.9787184e-37
3.1682296e-37
8.577573e-37
9.1845634e-37
3.0555261e-37
2.9738095e-37
6.0636073e-37
5.7477167e-37
5.3891439e-37
5.1956536e-37
5.879372e-37
5.2751986e-37
5.7967128e-37
5.2965324e-37
6.4811822e-37
5.2605234e-37
6.1402726e-37
5.0752628e-37
6.2313719e-37
5.0442841e-37
6.1977038e-37
5.0995405e-37
4.764653e-37
4.4062066e-37
4.6005885e-37
4.2601999e-37
4.579478e-37
4.2103408e-37
4.5526957e-37
4.2398086e-37
3.4680992e-37
3.4214632e-37
3.9491615e-37
3.8530327e-37
3.8422097e-37
3.5129618e-37
3.4171599e-37
3.8592899e-37
4.0141508e-37
4.1025579e-37
3.8436866e-37
4.2670929e-37
5.5888702e-37
5.108271e-37
5.546664e-37
5.1187967e-37
4.1546382e-37
4.0814311e-37
4.5894393e-37
4.7352456e-37
4.6653359e-37
4.396657e-37
4.316705e-37
4.5333581e-37
4.6735409e-37
4.9551462e-37
5.4384107e-37
5.1508262e-37
5.3220594e-37
5.0999595e-37
5.1188129e-37
5.0276898e-37
6.9951719e-37
6.3428346e-37
6.7729284e-37
6.27404e-37
6.9767751e-37
6.3293143e-37
6.8608272e-37
6.3419864e-37
7.5420363e-37
6.2213177e-37
7.4574359e-37
6.2667913e-37
7.6156068e-37
6.3013727e-37
7.4006275e-37
6.2455127e-37
3.4213763e-37
3.7117736e-37
4.6520676e-37
4.0748845e-37
3.0848106e-37
3.2392545e-37
3.0844337e-37
3.4269992e-37
6.3630918e-37
6.2378387e-37
5.6468493e-37
5.636841e-37
6.7417522e-37
6.6484376e-37
5.5018894e-37
5.5223836e-37
5.0238303e-37
4.6044631e-37
5.0083357e-37
4.5990733e-37
3.8433172e-37
4.2073103e-37
3.6887701e-37
3.6964439e-37
3.7179043e-37
4.2004209e-37
4.4128547e-37
4.799324e-37
4.4538912e-37
4.8031884e-37
4.4868798e-37
4.2029754e-37
4.6424147e-37
3.8391495e-37
3.7784184e-37
3.9222084e-37
4.4004702e-37
4.3122695e-37
5.0007859e-37
4.6028523e-37
5.1379887e-37
4.7627968e-37
3.4279232e-37
4.0775665e-37
3.6586024e-37
6.305686e-37
5.639227e-37
6.3869975e-37
5.8036632e-37
6.849219e-37
5.5911676e-37
6.8874261e-37
5.6952145e-37
6.2779703e-37
5.6298482e-37
6.2099024e-37
5.6787716e-37
6.7400744e-37
5.471136e-37
6.7057849e-37
5.5320271e-37
6.8556385e-37
5.0385075e-37
6.7589057e-37
5.0036157e-37
6.9687323e-37
6.8408758e-37
6.1326613e-37
6.2281381e-37
6.0917488e-37
7.3784914e-37
5.4522603e-37
7.1702512e-37
5.5461137e-37
6.866678e-37
6.7034752e-37
5.9030005e-37
5.8611158e-37
7.0437396e-37
6.1674418e-37
6.8450437e-37
6.221119e-37
7.0584661e-37
6.7777584e-37
5.2119356e-37
5.1777794e-37
5.2967333e-37
7.2467901e-37
7.0699917e-37
5.3284499e-37
6.5859811e-37
5.1933401e-37
6.5119708e-37
5.2159117e-37
6.8215168e-37
6.7432332e-37
5.7621487e-37
5.818272e-37
6.621911e-37
6.56515e-37
5.1985176e-37
5.2066527e-37
6.806121e-37
6.8123423e-37
5.7222211e-37
5.8252087e-37
6.773115e-37
6.7115879e-37
5.7142681e-37
5.7740882e-37
6.6212686e-37
6.552717e-37
5.3129528e-37
5.360949e-37
7.6229007e-37
6.5391577e-37
7.5107749e-37
6.6063667e-37
7.5068465e-37
6.3974729e-37
7.2660625e-37
6.3466745e-37
7.3473878e-37
5.9403889e-37
7.1337738e-37
5.9108471e-37
7.3633455e-37
5.9050687e-37
7.2844519e-37
5.9737213e-37
7.5661851e-37
6.6915703e-37
7.3182753e-37
6.717467e-37
7.7184744e-37
6.8113699e-37
7.5958881e-37
7.0268806e-37
8.1322503e-37
5.8367237e-37
8.0613064e-37
6.0452611e-37
8.0777537e-37
5.9366909e-37
7.8126945e-37
6.0662425e-37
6.1126932e-37
4.8367413e-37
6.057549e-37
4.8514594e-37
6.340097e-37
5.3507619e-37
6.2510955e-37
5.3815946e-37
6.4634862e-37
5.4371088e-37
6.1236265e-37
5.2651547e-37
6.256644e-37
4.9328186e-37
5.9234766e-37
4.7722493e-37
6.3564595e-37
5.9803471e-37
5.6330569e-37
5.5043042e-37
6.217477e-37
6.3793469e-37
5.6537352e-37
5.6979296e-37
6.8435106e-37
6.7687115e-37
5.1869985e-37
5.0425283e-37
6.9133186e-37
5.1971425e-37
6.4955859e-37
5.1379122e-37
1.318382e-37
1.1122073e-37
1.5656631e-37
1.2395236e-37
1.7321165e-37
1.6940287e-37
1.6961658e-37
1.8091544e-37
1.6881325e-37
1.6557448e-37
1.6205691e-37
1.5072117e-37
1.0669376e-37
1.4687003e-37
1.1720563e-37
1.3826267e-37
2.1842038e-37
2.0340395e-37
2.0819071e-37
2.1924784e-37
2.2059028e-37
2.2241509e-37
2.0710288e-37
2.0744728e-37
1.9263928e-37
2.1088401e-37
1.8975634e-37
2.1815909e-37
2.1554742e-37
1.9471889e-37
2.1679572e-37
1.9371767e-37
1.8780816e-37
1.92949e-37
1.8416373e-37
1.9448894e-37
1.9084386e-37
1.7496911e-37
1.7602229e-37
1.9484074e-37
1.9253544e-37
2.0146102e-37
1.8929812e-37
2.0281815e-37
1.9857339e-37
1.8055036e-37
2.002055e-37
1.819682e-37
2.1760234e-37
2.1936452e-37
2.1781458e-37
2.1828517e-37
1.957078e-37
2.4138483e-37
2.3890278e-37
1.9516052e-37
2.2151315e-37
2.1888913e-37
2.2177084e-37
2.1693507e-37
1.9522451e-37
2.4375827e-37
2.4023004e-37
1.9699363e-37
2.3588942e-37
2.2825942e-37
2.2912934e-37
2.3707598e-37
1.9646191e-37
2.0313862e-37
2.5193306e-37
2.515582e-37
2.3760764e-37
2.3036959e-37
2.3615246e-37
2.3255407e-37
2.5471037e-37
2.1165529e-37
2.5736229e-37
2.0855312e-37
2.1173239e-37
1.9638252e-37
1.9912645e-37
2.1024663e-37
1.9825724e-37
2.0338084e-37
1.8914688e-37
1.8714913e-37
1.8459558e-37
2.0431224e-37
1.8316623e-37
2.1014488e-37
1.9603218e-37
1.7706269e-37
1.9940165e-37
1.7811472e-37
2.0173808e-37
2.1202135e-37
1.9921389e-37
2.1206185e-37
2.0413539e-37
1.8466894e-37
1.8522441e-37
2.0812218e-37
1.9849107e-37
2.1125494e-37
1.9622436e-37
2.1107658e-37
2.0406754e-37
1.8371718e-37
2.0479148e-37
1.8378067e-37
2.2328626e-37
2.3059095e-37
2.2469229e-37
2.2964492e-37
1.9718855e-37
2.4824867e-37
1.9715492e-37
2.4613443e-37
2.2523559e-37
2.1857838e-37
2.2662142e-37
2.175869e-37
2.43563e-37
1.926834e-37
2.4097885e-37
1.9538565e-37
2.2931573e-37
2.2078528e-37
2.2076291e-37
2.2977353e-37
2.2184909e-37
2.155244e-37
2.1853761e-37
2.1628204e-37
1.9141579e-37
1.9726832e-37
2.4289947e-37
2.4400075e-37
2.3810334e-37
2.4147247e-37
1.9839989e-37
1.9983748e-37
2.4215212e-37
2.6800334e-37
2.4172731e-37
2.6637084e-37
2.3690443e-37
1.957053e-37
1.9604626e-37
2.3954389e-37
2.4449538e-37
2.6885259e-37
2.4017832e-37
2.7229467e-37
2.3915365e-37
1.9668165e-37
2.4482334e-37
1.9850216e-37
3.2685536e-37
2.9197487e-37
2.8976103e-37
3.1889088e-37
3.2877475e-37
2.9190651e-37
2.9520787e-37
3.2810361e-37
2.9121577e-37
2.4108691e-37
2.3850643e-37
2.8953865e-37
2.9436988e-37
2.4331562e-37
2.4495014e-37
2.9757921e-37
3.3041329e-37
2.916138e-37
2.9023838e-37
3.2311329e-37
3.0317901e-37
3.1453783e-37
2.7726402e-37
2.7032679e-37
2.9157453e-37
2.3855987e-37
2.366642e-37
2.9059237e-37
2.7207974e-37
2.8003694e-37
2.2912437e-37
2.2369224e-37
2.6653184e-37
2.372183e-37
2.3622578e-37
2.6473466e-37
2.4560482e-37
2.5432542e-37
2.2626302e-37
2.2090182e-37
1.9332837e-37
1.9314245e-37
2.3543902e-37
2.34516e-37
2.2065455e-37
2.2766653e-37
1.8764049e-37
1.8385345e-37
2.2037931e-37
2.4028299e-37
2.1619309e-37
2.4194408e-37
2.105698e-37
1.7684861e-37
1.7911226e-37
2.1585381e-37
2.6011504e-37
2.3455474e-37
2.577754e-37
2.3000975e-37
2.2737734e-37
1.8809937e-37
2.3032078e-37
1.9105158e-37
3.4569054e-37
3.0615505e-37
3.0885782e-37
3.4309795e-37
3.4691708e-37
3.0742801e-37
3.082032e-37
3.4268844e-37
2.5133481e-37
3.0488618e-37
2.5050667e-37
3.0941686e-37
2.5237081e-37
3.105176e-37
2.5454141e-37
3.0856122e-37
2.7042207e-37
2.9958985e-37
2.674785e-37
2.9955281e-37
2.6376516e-37
2.1771325e-37
2.1924686e-37
2.6733039e-37
2.9114755e-37
3.214968e-37
2.8441447e-37
3.2565388e-37
2.8481173e-37
2.3477047e-37
2.8986445e-37
2.3830315e-37
2.7845901e-37
2.4948977e-37
2.5031847e-37
2.7836787e-37
2.8154294e-37
2.5258956e-37
2.8060601e-37
2.5088376e-37
2.0204243e-37
2.0384266e-37
2.4651059e-37
2.4722934e-37
2.5036719e-37
2.5360084e-37
2.0825971e-37
2.076325e-37
3.4860504e-37
3.9482991e-37
3.445689e-37
3.9519405e-37
3.4277265e-37
2.7917036e-37
2.7939328e-37
3.4605858e-37
4.3190639e-37
3.7813359e-37
4.2844211e-37
3.6940557e-37
3.7165073e-37
3.0095629e-37
3.7851614e-37
3.0738548e-37
6.2532628e-37
5.1710914e-37
5.2162514e-37
6.1605531e-37
6.0356407e-37
6.1070315e-37
5.0679622e-37
5.0433266e-37
3.970832e-37
5.0520643e-37
3.9706223e-37
5.0866584e-37
5.0083329e-37
3.9567947e-37
5.0695364e-37
3.977376e-37
4.6725852e-37
5.4522955e-37
4.56425e-37
5.5506633e-37
4.4815316e-37
3.5488788e-37
3.5566044e-37
4.5325989e-37
5.0826966e-37
5.9719057e-37
4.9441716e-37
6.0194058e-37
4.9219867e-37
3.8803648e-37
5.0055938e-37
3.9305605e-37
4.4705899e-37
3.8857689e-37
3.888491e-37
4.4663328e-37
4.4684107e-37
3.8737652e-37
4.4134996e-37
3.8579695e-37
3.1765e-37
3.1779288e-37
3.9270383e-37
3.9147485e-37
3.9230313e-37
3.9627977e-37
3.2121319e-37
3.1979197e-37
9.5186015e-37
9.5887892e-37
7.5259101e-37
7.6125927e-37
7.5045147e-37
5.5825267e-37
5.6217364e-37
7.4926358e-37
9.0729835e-37
9.1409736e-37
7.2848571e-37
7.2132337e-37
7.3821002e-37
7.3887176e-37
5.5077664e-37
5.5105683e-37
6.9040867e-37
8.4786076e-37
6.7141477e-37
8.5957526e-37
6.6401291e-37
4.9950833e-37
5.0632416e-37
6.7270401e-37
7.5379228e-37
9.2382737e-37
7.2829633e-37
9.4206919e-37
7.3830245e-37
5.4939953e-37
7.6809937e-37
5.6053554e-37
1.3620185e-36
1.346831e-36
9.2815248e-37
9.3918519e-37
1.0899124e-36
1.1076413e-36
1.6091108e-36
1.5865156e-36
7.8908699e-37
2.8383415e-37
3.4374488e-37
3.3506371e-37
2.9817135e-37
8.7984507e-37
1.4626961e-36
1.4798438e-36
1.0128209e-36
1.0373904e-36
1.0483024e-36
1.0524831e-36
1.533839e-36
1.4941491e-36
3.0937178e-37
3.396521e-37
3.429758e-37
2.9864304e-37
8.4839192e-37
8.9294283e-37
3.2429135e-37
3.4483037e-37
3.5317427e-37
3.3032431e-37
3.156502e-37
3.4085735e-37
3.0567525e-37
3.0021271e-37
1.4155143e-36
1.4262353e-36
9.7457871e-37
9.9309343e-37
9.5730819e-37
9.4288085e-37
1.3881389e-36
1.3575689e-36
2.8287236e-37
3.1351052e-37
3.1677081e-37
2.7356472e-37
7.9904144e-37
8.7000098e-37
1.3532996e-36
1.3628492e-36
9.3778851e-37
9.5454782e-37
1.0361221e-36
1.0439654e-36
1.5052266e-36
1.4829983e-36
2.7078789e-37
3.1369442e-37
3.2624719e-37
2.8116108e-37
8.4881689e-37
7.9888283e-37
8.6391446e-37
8.7148984e-37
6.9334783e-37
6.8578966e-37
6.9301097e-37
6.9350171e-37
5.2145514e-37
5.232467e-37
7.1626206e-37
8.9068643e-37
6.9921991e-37
9.0214646e-37
5.4054494e-37
7.1946389e-37
7.3088075e-37
5.4713176e-37
2.8940111e-37
3.1127728e-37