/*--------------------------------*- C++ -*----------------------------------*\
  =========                 |
  \\      /  F ield         | OpenFOAM: The Open Source CFD Toolbox
   \\    /   O peration     | Website:  https://openfoam.org
    \\  /    A nd           | Version:  7
     \\/     M anipulation  |
\*---------------------------------------------------------------------------*/
FoamFile
{
    version     2.0;
    format      ascii;
    class       volVectorField;
    location    "6000";
    object      UMean;
}
// * * * * * * * * * * * * * * * * * * * * * * * * * * * * * * * * * * * * * //

dimensions      [0 1 -1 0 0 0 0];

internalField   nonuniform List<vector> 
34377
(
(-9.8443225e+33 2.5640284e+32 8.8793537e+32)
(-9.3227386e+33 5.4392059e+32 -1.9395781e+31)
(-9.4347034e+33 -5.2712634e+31 1.4204757e+33)
(-9.4153227e+33 2.5371053e+32 1.3444851e+33)
(-1.027976e+34 8.8814963e+31 1.2375593e+33)
(-9.5304832e+33 1.2804216e+32 9.278664e+32)
(-1.0214586e+34 -5.8244751e+30 1.1784324e+33)
(-1.294297e+34 1.6833686e+32 3.516815e+32)
(-9.8540466e+33 -4.1312933e+31 8.1957351e+32)
(-9.8859681e+33 7.787535e+31 8.6656376e+32)
(-9.096546e+33 3.9574391e+32 -1.1115896e+33)
(-7.3854898e+33 5.0733984e+32 8.9811952e+31)
(-9.0589373e+33 1.1268855e+32 -1.1125142e+33)
(-9.1540839e+33 5.4069447e+32 -1.1630039e+32)
(-7.3813741e+33 -6.4276352e+31 1.1473203e+32)
(-9.293662e+33 1.8897703e+32 1.3667809e+33)
(-9.7160031e+33 1.3067596e+32 1.2970144e+33)
(-7.9196133e+33 -2.4272541e+31 1.1188863e+33)
(-7.9400494e+33 3.8490353e+31 1.0716218e+33)
(-9.7647528e+33 -5.8046106e+31 1.2757044e+33)
(-7.942507e+33 1.2061027e+31 1.0566322e+33)
(-7.9134677e+33 9.561038e+31 1.0514709e+33)
(-9.6124659e+33 -5.3891985e+31 1.1945515e+33)
(-9.6629796e+33 1.5114713e+32 1.1868732e+33)
(-1.0073628e+34 -7.788615e+31 1.185203e+33)
(-9.2466275e+33 -8.8768522e+31 1.3785211e+33)
(-9.9803844e+33 4.1568578e+31 1.1562701e+33)
(-1.2971495e+34 1.1053176e+32 4.365053e+32)
(-1.0440738e+34 1.2628587e+32 5.1779007e+32)
(-9.9110746e+33 1.0130867e+32 -1.2969851e+32)
(-9.925855e+33 2.1345375e+31 -1.2476255e+32)
(-1.2640193e+34 1.8823126e+32 -1.4070576e+32)
(-8.3647029e+33 -6.6249578e+31 3.0451886e+31)
(-8.2284398e+33 -1.8795754e+32 6.740267e+31)
(-7.8715978e+33 -2.623596e+32 1.840961e+31)
(-8.1552691e+33 -1.2548316e+32 1.8365118e+30)
(-1.0418583e+34 -3.0889592e+31 4.9255125e+32)
(-9.1177991e+33 -6.1762016e+31 8.038656e+32)
(-9.1395383e+33 1.2573707e+32 7.7545417e+32)
(-9.7045412e+33 7.5905043e+31 8.7304055e+32)
(-9.7262734e+33 -1.084532e+32 8.5456637e+32)
(-9.1839162e+33 9.1497875e+31 8.4361691e+32)
(-9.1962506e+33 -7.408819e+31 8.1960562e+32)
(-8.4509888e+33 1.4876622e+32 -1.0082925e+33)
(-8.7900729e+33 2.1166227e+32 -9.1100795e+32)
(-8.7937341e+33 8.7745112e+31 -9.2387391e+32)
(-8.4429216e+33 1.879975e+32 -1.018242e+33)
(-6.9007944e+33 2.2280766e+32 -1.3197989e+33)
(-5.3650166e+33 -5.4641731e+31 1.5111244e+32)
(-6.8998644e+33 9.495264e+31 -1.3142423e+33)
(-5.3170081e+33 3.2324349e+32 1.1459486e+32)
(-9.1286452e+33 3.8904245e+32 -1.0802483e+33)
(-8.4334439e+33 1.6075014e+32 -1.0372878e+33)
(-8.8064655e+33 2.3770939e+32 -9.2513209e+32)
(-8.8504254e+33 7.629258e+31 -9.5052428e+32)
(-8.4313015e+33 1.7397958e+32 -1.0304432e+33)
(-9.078393e+33 6.4074663e+31 -1.0599976e+33)
(-7.277272e+33 -1.4402122e+32 1.0294832e+32)
(-7.3913278e+33 4.7552153e+32 1.2802703e+32)
(-6.8779804e+33 9.902869e+31 -1.3233057e+33)
(-5.3646763e+33 -7.214325e+31 1.8401625e+32)
(-6.8912223e+33 2.0284058e+32 -1.3222435e+33)
(-5.3889813e+33 2.7020046e+32 1.759474e+32)
(-7.9013571e+33 3.4299179e+31 1.1033691e+33)
(-7.8001291e+33 -1.5170022e+31 1.0259553e+33)
(-9.523341e+33 9.9358461e+31 1.1698211e+33)
(-9.5760647e+33 -1.2119254e+32 1.2405508e+33)
(-6.737312e+33 -6.0640337e+31 9.3216641e+32)
(-6.7062797e+33 -3.9418523e+31 8.7040324e+32)
(-8.5348459e+33 8.4407267e+31 1.1341948e+33)
(-8.552832e+33 -5.8321009e+31 1.1112116e+33)
(-8.5672073e+33 4.8804197e+31 1.070258e+33)
(-6.7109708e+33 -4.4737017e+31 8.6113085e+32)
(-6.7155585e+33 -1.8047114e+31 8.7974096e+32)
(-8.5560581e+33 -9.1872893e+31 1.0826486e+33)
(-6.734485e+33 -3.9851449e+31 8.9409395e+32)
(-8.576689e+33 1.0160588e+32 1.0800686e+33)
(-6.7168908e+33 1.0017065e+31 8.4441105e+32)
(-8.5799644e+33 -1.0692283e+31 1.0597885e+33)
(-6.7179129e+33 2.0397865e+31 8.3759856e+32)
(-8.5045588e+33 9.9686035e+31 1.0293909e+33)
(-6.72219e+33 4.6978903e+31 8.7306495e+32)
(-8.4895351e+33 -5.4431237e+31 1.0587003e+33)
(-9.5304995e+33 1.3417532e+32 1.2455047e+33)
(-7.8123965e+33 -2.1521566e+31 1.0934675e+33)
(-7.8151384e+33 2.0382389e+31 1.0448567e+33)
(-9.57417e+33 -6.5646968e+31 1.2320948e+33)
(-9.8278666e+33 1.992182e+31 -1.2352172e+32)
(-9.9307898e+33 1.2752001e+32 -9.6468129e+31)
(-1.0266675e+34 1.3601967e+32 5.4311821e+32)
(-1.0286945e+34 -6.8284698e+31 5.153497e+32)
(-1.2646467e+34 1.7838334e+32 -9.9592092e+31)
(-8.3148275e+33 -1.4336408e+32 7.6948739e+31)
(-8.3108444e+33 -1.5400424e+32 2.5247875e+30)
(-7.9054375e+33 -3.2782361e+32 -8.9555385e+31)
(-6.3841802e+33 -1.7437369e+32 -2.467814e+32)
(-9.6154562e+33 1.115308e+32 6.7532045e+32)
(-9.6220879e+33 -3.9720137e+31 6.6096222e+32)
(-9.2334513e+33 5.2211706e+30 8.5343624e+31)
(-9.2228298e+33 8.1261235e+31 8.602212e+31)
(-9.2884398e+33 1.1840168e+32 -9.9497263e+31)
(-8.9650587e+33 1.1812402e+32 -3.4110397e+32)
(-9.0486894e+33 3.9429538e+31 -3.1609016e+32)
(-9.3091668e+33 1.9277378e+31 -9.9368324e+31)
(-1.0063604e+34 1.752512e+32 -7.1258965e+31)
(-9.3068076e+33 1.0018648e+32 -1.4003632e+32)
(-8.9714377e+33 8.078825e+31 -3.9966734e+32)
(-9.0102208e+33 2.9693275e+31 -3.3967194e+32)
(-9.3215659e+33 -1.2274241e+30 -9.3524598e+31)
(-1.0077172e+34 6.5911715e+30 -6.6546016e+31)
(-9.2249978e+33 1.1850828e+32 -4.5629944e+32)
(-9.1567494e+33 5.619479e+31 -4.4926012e+32)
(-8.3590644e+33 -6.2689898e+31 8.2312371e+31)
(-8.2283623e+33 -4.3638343e+31 -2.2222316e+32)
(-8.0712141e+33 -7.1995732e+31 -1.5739844e+32)
(-8.4243614e+33 6.3815203e+31 3.7343587e+31)
(-9.5834517e+33 1.2310155e+32 6.1313049e+32)
(-9.2109321e+33 9.9979214e+31 5.287716e+31)
(-9.2214488e+33 -5.0315458e+30 9.2380138e+31)
(-9.5305573e+33 -4.6622531e+31 6.2865553e+32)
(-8.0287374e+33 -6.1384081e+31 7.3973687e+32)
(-8.0472061e+33 9.7928057e+31 7.0909525e+32)
(-8.0794068e+33 6.9596353e+31 7.1892831e+32)
(-8.0817504e+33 -4.1934088e+31 7.0252009e+32)
(-9.0553784e+33 -6.8570837e+31 8.2875632e+32)
(-9.0361009e+33 1.1252972e+32 8.3711605e+32)
(-9.0427932e+33 9.0123098e+31 7.7752234e+32)
(-9.1019743e+33 -1.080562e+32 8.5233732e+32)
(-8.0679125e+33 -9.0260411e+31 7.4548862e+32)
(-8.0672395e+33 5.3113485e+31 7.7379182e+32)
(-8.0724722e+33 -9.1272743e+31 7.3008634e+32)
(-8.0996921e+33 4.8034718e+31 7.1643624e+32)
(-1.0381684e+34 1.9870969e+32 -9.5763558e+32)
(-1.0339896e+34 1.8959404e+32 -9.5455592e+32)
(-9.0133482e+33 1.8518856e+32 -1.1742957e+33)
(-8.6188103e+33 2.0853886e+32 -7.1091875e+32)
(-8.6082313e+33 6.7207043e+31 -7.2276856e+32)
(-8.9892573e+33 1.4714197e+32 -1.1674738e+33)
(-7.2053579e+33 1.6722253e+32 -1.1971499e+33)
(-6.0288036e+33 1.2754454e+32 -1.3980939e+33)
(-6.0010437e+33 1.1844946e+32 -1.403274e+33)
(-7.1651795e+33 7.323318e+31 -1.193772e+33)
(-4.1889544e+33 6.4303759e+31 -1.2430561e+33)
(-4.222558e+33 1.1590763e+32 -1.2282275e+33)
(-3.8213311e+33 -1.0681184e+32 3.9046521e+32)
(-3.8699423e+33 1.3884037e+32 4.1922201e+32)
(-7.1825949e+33 7.5582571e+31 -1.1981733e+33)
(-7.1676581e+33 1.7691295e+32 -1.1883942e+33)
(-6.0283768e+33 1.0758858e+32 -1.4026184e+33)
(-6.0278757e+33 1.2347866e+32 -1.4171301e+33)
(-4.2045554e+33 7.3219087e+31 -1.2236135e+33)
(-3.7700451e+33 1.7947817e+32 3.5611044e+32)
(-3.8135497e+33 -5.2912057e+31 3.8521945e+32)
(-8.4606482e+33 1.1307752e+32 -9.8501917e+32)
(-8.9071323e+33 1.7113706e+32 -8.8919314e+32)
(-8.8968661e+33 5.0152801e+31 -9.1024123e+32)
(-8.4173612e+33 1.6525994e+32 -1.0105313e+33)
(-8.9831202e+33 1.9756275e+32 -1.1941079e+33)
(-8.6368054e+33 2.3209521e+32 -7.234044e+32)
(-8.7277617e+33 6.4770696e+31 -7.3874951e+32)
(-8.9770097e+33 1.3753914e+32 -1.1819671e+33)
(-8.9384875e+33 5.567991e+31 -9.0724571e+32)
(-8.8920896e+33 2.2609872e+32 -8.7650552e+32)
(-8.4441434e+33 1.3471855e+32 -9.8138251e+32)
(-8.4432718e+33 1.4507937e+32 -9.9321709e+32)
(-6.8355715e+33 5.39483e+31 -1.2694783e+33)
(-6.8661741e+33 1.7213476e+32 -1.2866646e+33)
(-5.2583026e+33 -1.5277934e+32 1.8677019e+32)
(-5.3020644e+33 1.8866645e+32 1.788357e+32)
(-6.89054e+33 6.0045853e+31 -1.295234e+33)
(-6.8782292e+33 2.1007657e+32 -1.3057213e+33)
(-5.3129637e+33 -1.1452069e+32 1.5512682e+32)
(-5.3590986e+33 2.6701652e+32 1.854803e+32)
(-7.1611526e+33 7.5008467e+31 -1.2133243e+33)
(-7.1465269e+33 1.7890349e+32 -1.1988986e+33)
(-6.0227921e+33 1.229588e+32 -1.4240216e+33)
(-6.0290543e+33 1.0086552e+32 -1.4084681e+33)
(-4.1918485e+33 6.0573943e+31 -1.2424928e+33)
(-4.2146427e+33 9.862255e+31 -1.2331864e+33)
(-3.8348171e+33 -1.3716786e+32 4.3857891e+32)
(-3.8642123e+33 7.8553964e+31 4.453771e+32)
(-7.1384989e+33 6.2101432e+31 -1.2027887e+33)
(-7.1453053e+33 1.6009025e+32 -1.1876949e+33)
(-6.0170585e+33 9.9573439e+31 -1.4190092e+33)
(-6.0204589e+33 1.1515228e+32 -1.4039981e+33)
(-4.2009351e+33 5.323076e+31 -1.233338e+33)
(-4.1943015e+33 1.055001e+32 -1.2407547e+33)
(-3.8452977e+33 -1.1716466e+32 4.1051293e+32)
(-3.8314619e+33 1.1875601e+32 3.9825083e+32)
(-6.7286389e+33 -2.7864456e+31 8.8260206e+32)
(-6.7382957e+33 -2.3542419e+31 9.215568e+32)
(-8.4997715e+33 -1.0249202e+32 1.1172074e+33)
(-8.5172618e+33 5.1298281e+31 1.0817187e+33)
(-6.5972866e+33 -4.8347381e+31 8.3406821e+32)
(-6.6261919e+33 -2.9188276e+31 8.1816811e+32)
(-8.4351669e+33 9.0111105e+31 1.0239705e+33)
(-8.4686007e+33 -4.4441988e+31 1.0314913e+33)
(-5.8959454e+33 -8.4739931e+31 8.7177868e+32)
(-5.8803633e+33 -7.8028978e+31 8.296747e+32)
(-7.3958937e+33 -6.5272841e+31 1.029301e+33)
(-7.3804964e+33 2.8707778e+31 1.0407929e+33)
(-5.8729767e+33 -9.5178606e+31 8.1755891e+32)
(-5.8593629e+33 -4.8611846e+31 8.3301572e+32)
(-7.379439e+33 -9.1935097e+31 9.9888576e+32)
(-7.3939807e+33 -1.3927518e+31 9.8808271e+32)
(-5.8612067e+33 -7.8559651e+31 8.2224331e+32)
(-5.8470203e+33 -5.8397261e+31 7.8950683e+32)
(-7.3984821e+33 -5.6874949e+31 9.7353988e+32)
(-7.388106e+33 2.5517856e+31 9.8257259e+32)
(-5.8727976e+33 -6.2112952e+31 8.1392379e+32)
(-5.8542494e+33 -3.4649667e+31 8.3100196e+32)
(-7.3974041e+33 -2.5438861e+30 9.8238562e+32)
(-7.3771649e+33 -9.1693369e+31 9.9519025e+32)
(-7.3831198e+33 4.028679e+31 9.9939724e+32)
(-5.8575753e+33 -6.1999543e+31 8.3695553e+32)
(-5.8543385e+33 -5.3638388e+31 8.007473e+32)
(-7.397565e+33 -4.393741e+31 9.8749954e+32)
(-5.8361839e+33 -6.0783573e+31 7.9137486e+32)
(-5.8288265e+33 -6.5995365e+29 8.0700678e+32)
(-7.3685761e+33 -4.8170868e+31 9.6336045e+32)
(-7.3867694e+33 2.089892e+31 9.5500666e+32)
(-5.8576015e+33 -2.2815828e+31 8.1008754e+32)
(-5.8678441e+33 2.652433e+30 7.8669304e+32)
(-7.3733693e+33 7.3897785e+31 9.6361837e+32)
(-7.3875965e+33 -4.8517548e+30 9.5466475e+32)
(-7.3677951e+33 4.8044097e+31 9.7586691e+32)
(-5.8578382e+33 7.0014564e+30 8.0903272e+32)
(-5.8578902e+33 3.4389953e+31 8.2856305e+32)
(-7.3513901e+33 -4.5555156e+31 9.8828332e+32)
(-6.6008912e+33 -2.831302e+31 8.4040428e+32)
(-8.4722061e+33 -2.8609046e+31 1.0722665e+33)
(-8.4998542e+33 1.1363785e+32 1.1315255e+33)
(-6.6460517e+33 -2.8786367e+31 9.2096828e+32)
(-6.6559829e+33 -3.6230481e+31 8.5387755e+32)
(-6.640344e+33 -2.3030234e+31 8.7649818e+32)
(-8.4881122e+33 -7.6120018e+31 1.0719396e+33)
(-8.5069727e+33 6.3558077e+31 1.049556e+33)
(-9.3014561e+33 2.1885445e+31 -7.6026682e+31)
(-9.0013063e+33 7.3026951e+31 -3.2119972e+32)
(-8.9176223e+33 8.8879198e+31 -4.0249786e+32)
(-9.202198e+33 9.501168e+31 -1.5221222e+32)
(-9.9331174e+33 1.4274772e+31 -1.018315e+32)
(-9.2318883e+33 1.4898661e+32 -5.9300181e+31)
(-8.895852e+33 1.3324794e+32 -3.2916751e+32)
(-8.958211e+33 7.5573676e+31 -3.0067467e+32)
(-1.000871e+34 1.883625e+32 -3.8992961e+31)
(-9.2137959e+33 4.6442243e+31 -7.6355559e+31)
(-9.4381787e+33 1.3617576e+32 6.7250272e+32)
(-9.4470894e+33 -3.1341976e+31 6.6244985e+32)
(-9.14092e+33 2.2176789e+31 1.2732486e+32)
(-9.1616448e+33 1.3418895e+32 1.3596043e+32)
(-9.1433612e+33 8.6175411e+31 5.8693216e+31)
(-9.4452406e+33 9.1281081e+31 6.0930321e+32)
(-9.1970469e+33 -4.4560519e+30 1.2916406e+32)
(-9.5115611e+33 -7.3857375e+31 6.7555987e+32)
(-8.9164451e+33 2.8837119e+31 -4.4887568e+32)
(-8.3442725e+33 -1.0743404e+31 1.1467893e+32)
(-8.1276434e+33 -1.9131288e+30 -1.9294471e+32)
(-8.2384049e+33 -2.0782708e+31 -2.0319513e+32)
(-8.4347349e+33 1.0019444e+32 8.6927461e+31)
(-8.1031115e+33 -5.4179233e+31 3.1157682e+32)
(-8.1362442e+33 3.1803102e+31 3.3526914e+32)
(-8.4924084e+33 7.0711481e+31 7.6133259e+32)
(-8.4903246e+33 -6.9141444e+31 7.3705787e+32)
(-8.113625e+33 -4.7668629e+31 3.117943e+32)
(-8.1258337e+33 3.3456512e+31 2.9349543e+32)
(-8.5368246e+33 5.1725875e+31 7.2140579e+32)
(-8.503462e+33 -7.8635719e+31 7.3073936e+32)
(-8.211404e+33 3.7472251e+31 1.2510936e+32)
(-7.9133771e+33 2.4327615e+31 -1.2472327e+32)
(-7.8985792e+33 -1.1190315e+31 -1.0860643e+32)
(-8.1994146e+33 -3.8245645e+31 1.4186091e+32)
(-8.2125266e+33 4.7905578e+31 1.6186719e+32)
(-7.8863674e+33 -2.2015207e+29 -1.1758487e+32)
(-7.8868918e+33 2.2594977e+31 -1.0479272e+32)
(-8.1920803e+33 -2.7349087e+31 1.4102001e+32)
(-7.9667195e+33 4.1453014e+31 -1.5223356e+32)
(-7.8339946e+33 4.8265139e+31 -2.9474589e+32)
(-7.8304132e+33 3.7853524e+31 -2.8434346e+32)
(-7.9764668e+33 2.0526249e+31 -1.5938162e+32)
(-7.9983874e+33 5.9294137e+31 -2.8658994e+32)
(-7.9857486e+33 6.4113008e+31 -2.800309e+32)
(-7.8953574e+33 6.1899285e+31 -3.452364e+32)
(-7.8941102e+33 7.6249783e+31 -3.5677863e+32)
(-8.9969099e+33 1.4935029e+32 -3.5953299e+32)
(-7.9371945e+33 3.7042158e+31 -3.3972131e+32)
(-7.9491263e+33 4.905481e+31 -3.4996937e+32)
(-8.0398099e+33 5.1764165e+31 -2.8090067e+32)
(-9.1793965e+33 3.770814e+31 -3.2188705e+32)
(-8.0281194e+33 1.8161418e+31 -2.6796366e+32)
(-7.8705813e+33 1.4709002e+31 -2.725613e+32)
(-7.8778556e+33 3.4748052e+31 -2.870523e+32)
(-7.9874969e+33 3.4909708e+31 -1.7157049e+32)
(-7.9738017e+33 -1.7498805e+30 -1.5677243e+32)
(-8.8712612e+33 3.7789735e+31 -4.9191638e+32)
(-8.8336597e+33 1.7542193e+32 -4.9874062e+32)
(-7.9885217e+33 3.3570889e+31 -1.8092794e+32)
(-7.8473649e+33 4.5461589e+31 -3.2694815e+32)
(-7.8687986e+33 1.8447581e+31 -3.1323732e+32)
(-7.9783288e+33 2.4639655e+31 -1.9047162e+32)
(-7.9200285e+33 6.8526824e+31 -3.9983992e+32)
(-7.95545e+33 2.5932908e+31 -3.8109348e+32)
(-8.0049949e+33 5.0767843e+31 -3.2629819e+32)
(-8.021296e+33 3.5475869e+31 -3.1511588e+32)
(-9.017413e+33 8.49073e+31 -4.2373e+32)
(-7.9725474e+33 5.290954e+31 -3.4991763e+32)
(-8.0537384e+33 5.6772988e+31 -2.7784675e+32)
(-8.005738e+33 4.7641615e+31 -1.5877199e+32)
(-7.891202e+33 4.4840183e+31 -2.7949584e+32)
(-7.9842282e+33 -9.8613843e+29 -1.4376249e+32)
(-8.6804621e+33 9.0364836e+31 -6.1954664e+32)
(-1.017459e+34 2.0787871e+32 -2.7158233e+32)
(-8.3815304e+33 1.5972005e+32 -7.0480329e+32)
(-9.116589e+33 2.1062277e+32 -4.3807411e+32)
(-9.2262127e+33 4.5827286e+31 -4.1095872e+32)
(-8.41469e+33 3.5857482e+31 -6.9219314e+32)
(-7.9397176e+33 1.0087426e+32 -7.834966e+32)
(-8.9470051e+33 1.0445188e+32 -6.0836016e+32)
(-8.5043412e+33 8.2921024e+31 7.1158455e+32)
(-8.5160118e+33 -2.7455345e+31 7.0184444e+32)
(-8.1310276e+33 4.8098091e+31 2.9769696e+32)
(-8.1134905e+33 -1.4392281e+31 2.8084773e+32)
(-8.2146365e+33 5.8324545e+31 1.2696773e+32)
(-8.2012152e+33 -1.3850942e+30 1.1047023e+32)
(-7.8969859e+33 2.9146436e+31 -1.2693065e+32)
(-7.8893731e+33 1.4899769e+31 -1.4189585e+32)
(-7.8989153e+33 -9.8762836e+30 -8.9261331e+31)
(-7.9249596e+33 4.829999e+31 -1.041607e+32)
(-8.2025534e+33 6.4969909e+31 1.4146307e+32)
(-8.1830905e+33 -3.5315583e+31 1.6058117e+32)
(-8.1102862e+33 -3.6760011e+31 3.4078116e+32)
(-8.1267546e+33 7.5670039e+31 3.1870461e+32)
(-8.4726707e+33 8.8958059e+31 7.1064806e+32)
(-8.4456192e+33 -5.8797121e+31 7.3285992e+32)
(-6.9354645e+33 -5.7172711e+31 7.3602369e+32)
(-6.9548361e+33 5.1263128e+31 7.1815709e+32)
(-6.9551956e+33 4.97914e+31 7.0153185e+32)
(-6.9685683e+33 -3.6520712e+31 6.9335041e+32)
(-6.9564195e+33 2.128623e+31 7.2207332e+32)
(-6.9697795e+33 -7.3727245e+31 7.0530522e+32)
(-6.9588002e+33 2.2168435e+31 6.7744622e+32)
(-6.9414196e+33 -5.5469565e+31 6.9107221e+32)
(-8.0264325e+33 6.5592817e+31 7.1182385e+32)
(-8.0116645e+33 -7.4116867e+31 7.388006e+32)
(-8.0219469e+33 9.8015889e+31 7.8183289e+32)
(-8.0041597e+33 -5.1201516e+31 7.3976586e+32)
(-7.9680322e+33 5.829395e+31 6.9091557e+32)
(-8.0012429e+33 -6.9923358e+31 7.0045366e+32)
(-8.0472392e+33 -1.0057347e+32 7.9375787e+32)
(-8.0546191e+33 6.0669334e+31 7.4812579e+32)
(-6.9555388e+33 -1.2203986e+31 7.0794658e+32)
(-6.9420434e+33 -9.8890718e+31 7.2098009e+32)
(-6.9509891e+33 5.1802539e+30 7.6472123e+32)
(-6.9635046e+33 -1.0210968e+32 7.4594951e+32)
(-6.9501597e+33 -9.2291225e+31 7.270196e+32)
(-6.9675111e+33 7.0803395e+30 7.0937275e+32)
(-6.9573821e+33 6.2164845e+30 7.0512645e+32)
(-6.9692463e+33 -8.3770849e+31 6.9235184e+32)
(-1.0390676e+34 1.2149919e+32 -9.2506401e+32)
(-1.0392783e+34 1.556999e+32 -9.2534372e+32)
(-1.0520261e+34 1.8364089e+32 -5.6062463e+32)
(-9.2051279e+33 1.656316e+32 -9.5670449e+32)
(-7.2255626e+33 4.993215e+31 -1.2371443e+33)
(-7.2216112e+33 1.7582676e+32 -1.2378412e+33)
(-7.2080186e+33 5.9006603e+31 -1.2365618e+33)
(-7.2323929e+33 1.7651135e+32 -1.2321321e+33)
(-6.3218732e+33 1.337681e+32 -1.5173725e+33)
(-4.3145276e+33 9.2206439e+31 -1.3030437e+33)
(-4.3073812e+33 4.6814659e+31 -1.2892872e+33)
(-3.1018101e+33 7.6314119e+31 -1.4440674e+33)
(-3.0956552e+33 4.5168869e+31 -1.415758e+33)
(-4.3042154e+33 8.3955944e+31 -1.2794952e+33)
(-4.2968649e+33 4.6701952e+31 -1.2943682e+33)
(-3.0953705e+33 7.718762e+31 -1.4093497e+33)
(-3.1016528e+33 5.876856e+31 -1.4287e+33)
(-2.4997749e+33 3.4406513e+31 -3.9699046e+32)
(-2.5283174e+33 3.1233832e+31 -3.4182785e+32)
(-3.7510523e+33 -4.1049016e+31 5.8147843e+32)
(-3.7026961e+33 -1.1242096e+32 5.6529495e+32)
(-3.7530566e+33 -9.1678259e+31 5.9052498e+32)
(-3.7229412e+33 3.0337373e+31 5.8553753e+32)
(-2.5349599e+33 5.1856877e+31 -3.2870179e+32)
(-2.51256e+33 6.6202126e+31 -3.7553303e+32)
(-6.3191965e+33 9.5133508e+31 -1.5207952e+33)
(-6.3309682e+33 1.2372414e+32 -1.5331349e+33)
(-4.3060273e+33 1.0153871e+32 -1.2899408e+33)
(-4.2897777e+33 6.0836028e+31 -1.2747703e+33)
(-3.080398e+33 9.5058128e+31 -1.431151e+33)
(-3.080698e+33 7.2565378e+31 -1.3960721e+33)
(-2.5578072e+33 8.9939537e+31 -2.62544e+32)
(-3.7671375e+33 -2.2137136e+31 6.1690074e+32)
(-2.4771237e+33 6.3302454e+31 -3.8436229e+32)
(-3.7012592e+33 -7.9729993e+31 5.5575133e+32)
(-2.532965e+33 8.2815995e+31 -3.0137302e+32)
(-3.7510696e+33 3.8743055e+31 5.9144249e+32)
(-9.0063131e+33 1.6197125e+32 -1.1431653e+33)
(-8.7204135e+33 1.8157739e+32 -6.7627339e+32)
(-8.7079561e+33 4.8122479e+31 -7.0211183e+32)
(-8.9600027e+33 1.3347362e+32 -1.1539718e+33)
(-9.1782918e+33 1.8809051e+32 -9.8782307e+32)
(-7.2141128e+33 1.8000385e+32 -1.2504089e+33)
(-7.20327e+33 5.3107031e+31 -1.2560474e+33)
(-9.0029967e+33 2.0108481e+32 -5.6151563e+32)
(-9.1531042e+33 8.0742563e+31 -6.1141165e+32)
(-9.1869887e+33 1.2821003e+32 -9.6622942e+32)
(-7.1954368e+33 1.7255391e+32 -1.2372643e+33)
(-7.1943151e+33 4.8718004e+31 -1.2492517e+33)
(-8.8290494e+33 5.0349292e+31 -6.9656561e+32)
(-8.6949796e+33 2.2547102e+32 -6.6975203e+32)
(-8.9705686e+33 1.7653187e+32 -1.1265944e+33)
(-8.9787932e+33 1.1742492e+32 -1.1424139e+33)
(-5.976569e+33 9.3574234e+31 -1.3706158e+33)
(-7.1519247e+33 1.6319259e+32 -1.1415188e+33)
(-7.1617706e+33 6.3914563e+31 -1.1584803e+33)
(-5.9892142e+33 7.6027094e+31 -1.3631996e+33)
(-5.9952988e+33 9.322331e+31 -1.3684797e+33)
(-7.1445994e+33 1.4797895e+32 -1.1496536e+33)
(-7.1368454e+33 4.3593583e+31 -1.1714357e+33)
(-5.9993425e+33 7.5145611e+31 -1.3920801e+33)
(-4.1125347e+33 1.4124904e+31 -1.1905289e+33)
(-4.1348655e+33 6.5107018e+31 -1.189064e+33)
(-3.746264e+33 -1.5716648e+32 4.372645e+32)
(-3.7436938e+33 4.3244426e+31 4.292804e+32)
(-4.1473209e+33 1.8491405e+31 -1.20195e+33)
(-4.1471633e+33 7.1289729e+31 -1.2174094e+33)
(-3.7561559e+33 -1.635019e+32 4.166954e+32)
(-3.762182e+33 5.7731906e+31 4.1215519e+32)
(-6.0234542e+33 9.7423115e+31 -1.3890668e+33)
(-7.164354e+33 1.5646893e+32 -1.158674e+33)
(-7.161908e+33 6.2304615e+31 -1.1722298e+33)
(-6.0108047e+33 9.2518921e+31 -1.3824271e+33)
(-5.9869199e+33 1.1096401e+32 -1.3833808e+33)
(-7.1202151e+33 1.5489919e+32 -1.1594475e+33)
(-7.1225181e+33 6.5732287e+31 -1.1849341e+33)
(-6.0011846e+33 1.065371e+32 -1.4081471e+33)
(-4.1441243e+33 2.2218165e+31 -1.2325036e+33)
(-4.1772992e+33 9.1676065e+31 -1.2109341e+33)
(-3.7238039e+33 -1.6339727e+32 3.7640112e+32)
(-3.7873651e+33 7.5692784e+31 4.1322214e+32)
(-4.1998216e+33 1.1456064e+32 -1.2257028e+33)
(-3.8297117e+33 -1.123695e+32 4.2877818e+32)
(-4.1763417e+33 4.9933009e+31 -1.2062109e+33)
(-3.8287579e+33 1.0171735e+32 4.2060124e+32)
(-6.3252607e+33 1.2966262e+32 -1.5401503e+33)
(-6.3312639e+33 9.6023393e+31 -1.5306224e+33)
(-4.3052022e+33 8.8126253e+31 -1.3021754e+33)
(-4.2957187e+33 4.3067037e+31 -1.2913067e+33)
(-3.0957363e+33 6.7893021e+31 -1.4469072e+33)
(-3.0870137e+33 3.7013916e+31 -1.4212221e+33)
(-4.3014497e+33 7.5457387e+31 -1.2810533e+33)
(-4.2905562e+33 3.3410808e+31 -1.29746e+33)
(-3.0987693e+33 6.2936391e+31 -1.4182904e+33)
(-3.0992086e+33 3.530786e+31 -1.4376536e+33)
(-3.7313661e+33 -1.4595669e+32 5.878082e+32)
(-3.7784892e+33 -8.4612794e+31 6.0708957e+32)
(-2.5098236e+33 2.7023891e+31 -3.8970384e+32)
(-2.5578784e+33 1.6560651e+31 -3.2087155e+32)
(-3.7758125e+33 -1.4026551e+32 6.0361586e+32)
(-3.7642846e+33 -3.1947123e+31 6.0735911e+32)
(-2.5666507e+33 3.0365443e+31 -3.1787591e+32)
(-2.5385348e+33 3.2811059e+31 -3.6025394e+32)
(-6.3184102e+33 9.6752163e+31 -1.5334519e+33)
(-6.3330728e+33 1.2654681e+32 -1.5260748e+33)
(-4.301071e+33 8.8066923e+31 -1.2922797e+33)
(-4.2908998e+33 4.8336451e+31 -1.2820119e+33)
(-3.0899081e+33 7.0413268e+31 -1.4438298e+33)
(-3.0945348e+33 5.120676e+31 -1.4126428e+33)
(-4.3051094e+33 8.3664297e+31 -1.28475e+33)
(-4.2914039e+33 3.9660525e+31 -1.3015783e+33)
(-3.106558e+33 7.8088542e+31 -1.415497e+33)
(-3.101828e+33 4.688878e+31 -1.4382522e+33)
(-2.4831763e+33 2.4837607e+31 -4.1370751e+32)
(-3.7046058e+33 -1.4121263e+32 5.4416456e+32)
(-2.5422244e+33 3.8437735e+31 -3.3574844e+32)
(-3.7654482e+33 -4.3898e+31 5.8493662e+32)
(-2.5565965e+33 5.3992305e+31 -3.2326459e+32)
(-2.5174875e+33 5.1105135e+31 -3.7495069e+32)
(-3.7721232e+33 -9.0688971e+31 5.9957401e+32)
(-3.7261842e+33 2.3335049e+30 5.8653305e+32)
(-5.8969624e+33 -6.1235274e+31 8.5202957e+32)
(-5.8876486e+33 -4.5389766e+31 8.194338e+32)
(-7.4125185e+33 -3.9790291e+31 9.9944768e+32)
(-7.3966311e+33 4.1416178e+31 9.9793721e+32)
(-5.9142086e+33 -5.3229273e+31 8.5613202e+32)
(-7.4058961e+33 3.9162773e+30 1.0257582e+33)
(-5.9145822e+33 -3.5666575e+31 8.7939008e+32)
(-7.3911545e+33 -9.4915841e+31 1.0463977e+33)
(-5.7934157e+33 -7.3762281e+31 8.1499104e+32)
(-5.7981566e+33 -6.6107522e+31 7.8561584e+32)
(-7.3009607e+33 3.7688257e+31 9.6792144e+32)
(-7.3295122e+33 -4.7668608e+31 9.6702679e+32)
(-7.3439879e+33 2.9596195e+30 9.4822888e+32)
(-5.817095e+33 -7.5575564e+31 7.9337621e+32)
(-5.83278e+33 -4.1557113e+31 8.234687e+32)
(-7.3404292e+33 -7.5559798e+31 9.6751162e+32)
(-5.1395131e+33 -8.8368483e+31 7.9274397e+32)
(-5.1331033e+33 -1.2367955e+32 8.199004e+32)
(-6.4499591e+33 -6.836696e+30 8.9139532e+32)
(-6.4541662e+33 -7.567611e+31 8.8223194e+32)
(-5.0971989e+33 -7.4284936e+31 7.8436965e+32)
(-5.0872613e+33 -1.3729374e+32 7.6414083e+32)
(-6.4667222e+33 -4.8122903e+31 8.5626412e+32)
(-6.4554143e+33 -1.0423787e+32 8.4696509e+32)
(-5.1041192e+33 -1.0532207e+32 7.6996391e+32)
(-5.0215273e+33 -1.6978495e+32 7.3668559e+32)
(-6.4447317e+33 -3.2320835e+31 8.2830191e+32)
(-6.4667242e+33 -7.6922875e+31 8.4575746e+32)
(-5.1028874e+33 -3.7207381e+31 8.0352927e+32)
(-5.0873659e+33 -1.2322659e+32 7.7155006e+32)
(-6.4314213e+33 -3.3337868e+31 8.3908547e+32)
(-6.4236492e+33 -9.2722566e+31 8.4217208e+32)
(-5.0619199e+33 -8.6439347e+31 7.471238e+32)
(-5.0264654e+33 -1.1301076e+32 7.4846677e+32)
(-6.42119e+33 -4.7377891e+30 8.2295691e+32)
(-6.4546768e+33 -7.0354401e+31 8.4467046e+32)
(-5.0549997e+33 -5.6266879e+31 7.6169727e+32)
(-5.0312331e+33 -1.298652e+32 7.2648911e+32)
(-6.4419339e+33 -3.6200908e+31 8.0216394e+32)
(-6.4400299e+33 -8.8032093e+31 8.0893911e+32)
(-6.4502424e+33 -8.4199587e+30 8.2542321e+32)
(-5.0323485e+33 -1.3575151e+32 7.4701408e+32)
(-5.0980061e+33 -7.4329916e+31 7.6771521e+32)
(-6.4672837e+33 -5.7657805e+31 8.417816e+32)
(-5.1110638e+33 -3.1554007e+31 8.1080202e+32)
(-5.0905735e+33 -9.0555882e+31 7.7754853e+32)
(-6.4322127e+33 -1.732048e+31 8.4336022e+32)
(-6.4227776e+33 -8.6896315e+31 8.4685528e+32)
(-5.0600826e+33 -5.2941101e+31 7.5340388e+32)
(-5.0916296e+33 -9.3162419e+31 8.0197044e+32)
(-6.4311693e+33 9.2093377e+30 8.5767115e+32)
(-6.4314331e+33 -5.7833711e+31 8.4113255e+32)
(-5.1111746e+33 -4.3505154e+31 7.8853536e+32)
(-5.0281248e+33 -1.1276974e+32 7.2514103e+32)
(-6.4332486e+33 -3.0328487e+31 8.0504092e+32)
(-6.4476598e+33 -8.1220473e+31 8.3034693e+32)
(-5.0141665e+33 -1.2864544e+32 7.3262208e+32)
(-6.4120051e+33 5.5971414e+29 7.9340555e+32)
(-5.0788474e+33 -6.7388663e+31 7.6207885e+32)
(-6.4417746e+33 -4.7898208e+31 8.2523626e+32)
(-6.4067969e+33 3.5343546e+30 8.181552e+32)
(-5.0839528e+33 -7.6167653e+31 7.7277004e+32)
(-5.0901648e+33 1.6850622e+31 7.9625925e+32)
(-6.3961101e+33 -5.1065094e+31 8.2016616e+32)
(-5.0782718e+33 -4.2270565e+31 7.4827978e+32)
(-5.0754797e+33 -5.0974714e+31 7.723823e+32)
(-6.4245253e+33 4.3428547e+31 8.2248137e+32)
(-6.4433347e+33 -3.0920992e+31 8.2916627e+32)
(-6.4470908e+33 5.8651067e+30 8.0564201e+32)
(-5.0830814e+33 -6.4236624e+31 7.5540941e+32)
(-5.1133237e+33 3.1861617e+30 7.8106948e+32)
(-6.4564422e+33 -3.8087944e+31 8.2098412e+32)
(-5.1148392e+33 8.0150032e+30 7.7813618e+32)
(-5.119834e+33 -6.232186e+31 8.0297972e+32)
(-6.4342392e+33 4.5819786e+31 8.3060219e+32)
(-6.4445726e+33 -6.7996924e+30 8.3502064e+32)
(-5.0975858e+33 4.0415751e+31 7.9332493e+32)
(-5.1073256e+33 1.7949243e+28 7.878936e+32)
(-6.422439e+33 2.7301393e+31 8.5370057e+32)
(-6.4133891e+33 -4.2586564e+31 8.4812797e+32)
(-5.8319105e+33 -5.6641561e+31 8.3291341e+32)
(-5.8198956e+33 -2.4241664e+31 8.3984574e+32)
(-7.3455968e+33 1.83115e+31 9.7686965e+32)
(-7.3347942e+33 -6.2584054e+31 9.8723638e+32)
(-5.8489435e+33 -3.6518352e+31 8.9465776e+32)
(-5.8189458e+33 -4.6903541e+31 8.5309449e+32)
(-7.3369514e+33 7.6136459e+31 1.0415183e+33)
(-7.3438939e+33 -1.747227e+31 1.0342268e+33)
(-7.368895e+33 4.2779534e+31 9.8119253e+32)
(-5.827361e+33 -6.6529184e+31 8.2963965e+32)
(-5.8114531e+33 -4.934464e+31 7.9331047e+32)
(-7.359492e+33 -3.1304648e+31 9.6596166e+32)
(-5.8418567e+33 -5.7045966e+31 8.2607894e+32)
(-5.8111276e+33 -4.0802046e+31 8.3573792e+32)
(-7.3566135e+33 1.1875501e+31 9.8409964e+32)
(-7.3302841e+33 -7.9849384e+31 9.9818203e+32)
(-7.867608e+33 3.8718281e+31 -2.4820644e+32)
(-7.8849746e+33 6.4547153e+31 -2.6585646e+32)
(-7.9930305e+33 8.4541324e+30 -1.1357264e+32)
(-8.0182936e+33 6.4802696e+31 -1.3075721e+32)
(-8.0357129e+33 4.9279816e+31 -2.4731522e+32)
(-8.0539522e+33 8.6001505e+31 -2.6478009e+32)
(-7.9581479e+33 8.7657947e+31 -3.400238e+32)
(-7.9405039e+33 7.5149571e+31 -3.2558262e+32)
(-9.140213e+33 9.3749627e+31 -3.337038e+32)
(-7.9668855e+33 6.3016559e+31 -3.1239622e+32)
(-7.8838411e+33 1.0974842e+32 -3.8443121e+32)
(-7.8683429e+33 5.2949445e+31 -3.9534003e+32)
(-7.974731e+33 8.254276e+31 -3.0878326e+32)
(-8.9649971e+33 9.9563766e+31 -4.2804921e+32)
(-7.8126635e+33 6.7995292e+31 -3.0669204e+32)
(-7.8077678e+33 4.6287548e+31 -3.0981927e+32)
(-7.908066e+33 4.7197346e+31 -1.9212183e+32)
(-7.9222674e+33 3.8922885e+31 -1.8568813e+32)
(-8.618553e+33 1.1978674e+32 -6.2190249e+32)
(-8.7747052e+33 1.3346042e+32 -5.1414085e+32)
(-7.813553e+33 9.1503787e+31 -2.6546612e+32)
(-7.9630367e+33 6.222939e+31 -1.2444377e+32)
(-7.9919377e+33 1.0209486e+32 -2.6115865e+32)
(-7.878558e+33 1.1524175e+32 -3.3947818e+32)
(-7.9129345e+33 8.5567309e+31 -3.2742923e+32)
(-8.0002556e+33 9.0110635e+31 -2.5756575e+32)
(-9.0847834e+33 6.814533e+31 -3.1127155e+32)
(-7.8758207e+33 7.0047544e+31 -3.2881139e+32)
(-7.9492631e+33 5.2718978e+31 -2.615992e+32)
(-8.7566363e+33 7.9425942e+31 -4.8307863e+32)
(-7.8082673e+33 4.6826838e+31 -2.5520361e+32)
(-7.9163395e+33 2.4568238e+31 -1.3869862e+32)
(-7.8364147e+33 7.0537606e+31 -2.6051934e+32)
(-7.9408841e+33 6.5655368e+31 -1.4719672e+32)
(-8.4401225e+33 1.1968508e+32 7.7690586e+32)
(-8.0803369e+33 -9.8975835e+30 3.5223607e+32)
(-8.4255427e+33 -2.6733858e+31 7.4923226e+32)
(-8.0727882e+33 -2.9721741e+31 3.4495127e+32)
(-8.0896826e+33 5.8857849e+31 3.2673487e+32)
(-8.440699e+33 -6.0349755e+31 7.5045332e+32)
(-8.4531082e+33 6.9852943e+31 7.2797032e+32)
(-8.1578829e+33 6.2688363e+31 1.5616499e+32)
(-7.8712018e+33 5.4537343e+31 -9.1091267e+31)
(-8.146747e+33 -1.9374804e+31 1.7279772e+32)
(-7.843755e+33 9.4646324e+30 -8.1199825e+31)
(-7.865276e+33 3.9385731e+31 -7.5066036e+31)
(-8.1616825e+33 1.4628608e+31 1.798863e+32)
(-7.8335742e+33 3.9235285e+31 -1.3239832e+32)
(-7.8507668e+33 2.527007e+31 -1.2604527e+32)
(-8.1409172e+33 4.7445964e+29 1.2544651e+32)
(-8.1188436e+33 6.1168382e+31 1.2146892e+32)
(-8.0663971e+33 -1.8321155e+31 3.0257299e+32)
(-8.0548411e+33 5.3776957e+31 3.0188538e+32)
(-8.388117e+33 7.4650049e+31 6.9388869e+32)
(-8.4264491e+33 -4.1262807e+31 7.0296213e+32)
(-8.2167062e+33 6.3666369e+31 1.7306094e+32)
(-7.9289957e+33 5.6106732e+31 -8.120341e+31)
(-7.8999945e+33 -1.1755533e+31 -6.1408271e+31)
(-8.1974149e+33 -4.5994799e+31 1.9521162e+32)
(-8.120773e+33 -5.5802226e+31 3.7418457e+32)
(-8.1363298e+33 6.4306017e+31 3.4765991e+32)
(-8.4794887e+33 6.5815486e+31 7.4717391e+32)
(-8.4558223e+33 -8.6892006e+31 7.7519261e+32)
(-7.8348081e+33 1.4846719e+32 -7.9056379e+32)
(-8.8919005e+33 1.4620564e+32 -6.105902e+32)
(-9.0777092e+33 1.2152379e+32 -4.6885072e+32)
(-7.9354577e+33 3.5045769e+31 -7.4790515e+32)
(-6.8871748e+33 -2.7407114e+31 1.071971e+32)
(-6.8711831e+33 -7.2677403e+31 1.1435743e+32)