/*--------------------------------*- C++ -*----------------------------------*\
  =========                 |
  \\      /  F ield         | OpenFOAM: The Open Source CFD Toolbox
   \\    /   O peration     | Website:  https://openfoam.org
    \\  /    A nd           | Version:  7
     \\/     M anipulation  |
\*---------------------------------------------------------------------------*/
FoamFile
{
    version     2.0;
    format      ascii;
    class       volScalarField;
    location    "4000";
    object      k;
}
// * * * * * * * * * * * * * * * * * * * * * * * * * * * * * * * * * * * * * //

dimensions      [0 2 -2 0 0 0 0];

internalField   nonuniform List<scalar> 
33730
(
1.5221835
1.5205021
1.5209951
1.5210054
1.5213781
1.5222305
1.5226795
1.522453
1.5224869
1.520729
1.520399
1.5204699
1.5206604
1.5208638
1.5208981
1.5210263
1.5209711
1.5209681
1.5226471
1.5211006
1.5206852
1.5214032
1.5224013
1.5205461
1.5203562
1.520891
1.5207344
1.5230786
1.5220031
1.521791
1.5226107
1.5228511
1.5233768
1.5225673
1.5229015
1.522986
1.5221779
1.5221901
1.5231872
1.523154
1.5234511
1.5223857
1.5228742
1.5209762
1.5205731
1.5210023
1.5205928
1.5205778
1.5208583
1.5204379
1.5202862
1.5207296
1.5210754
1.5207136
1.5210562
1.52111
1.521112
1.5208801
1.5208336
1.5206864
1.5205809
1.521778
1.5217674
1.5220773
1.5205315
1.5204069
1.5209966
1.5220192
1.5203994
1.5203753
1.5202183
1.5205541
1.5207783
1.5202958
1.5204813
1.5202366
1.5201438
1.5202621
1.5203626
1.5205397
1.5207068
1.5207447
1.5208867
1.52248
1.5220693
1.5220575
1.5205936
1.5206148
1.5204779
1.5203194
1.5208212
1.5208775
1.5207331
1.5207165
1.5217515
1.521471
1.5232336
1.5221988
1.5219296
1.5227408
1.5229831
1.523152
1.5227414
1.522725
1.5233787
1.5234143
1.5234987
1.5234496
1.523218
1.5226977
1.5226079
1.5222643
1.5235013
1.5234499
1.5227412
1.5227079
1.5231475
1.522321
1.5223608
1.5233355
1.5233743
1.5232502
1.5232331
1.5234667
1.5234929
1.5234931
1.5235552
1.5235556
1.5230979
1.5234492
1.5221205
1.5225889
1.5235396
1.5235445
1.522729
1.5227432
1.520774
1.5213414
1.5213598
1.5207766
1.521365
1.5213753
1.5208021
1.5207917
1.5208376
1.5211338
1.5203957
1.5205338
1.521233
1.5212667
1.5206558
1.520677
1.5214131
1.5214101
1.5208805
1.5208847
1.5213884
1.5214029
1.5208636
1.5208648
1.5213965
1.5209677
1.5209635
1.521315
1.5214147
1.5214163
1.5209378
1.5209365
1.5208299
1.5207348
1.5208336
1.5207567
1.5215938
1.5216039
1.5207954
1.5207015
1.5206791
1.5207917
1.5205412
1.5215983
1.5216121
1.5215836
1.5215944
1.5216207
1.5216149
1.5216291
1.521798
1.5216364
1.5218418
1.5217762
1.5206642
1.5206454
1.52066
1.5206758
1.5206231
1.5206135
1.520592
1.5206053
1.5203866
1.5202199
1.5203817
1.5218064
1.5218688
1.5218063
1.5218656
1.5203445
1.5204872
1.5203447
1.5204756
1.5205702
1.5206092
1.5205888
1.5205889
1.5203482
1.5204985
1.5203767
1.520466
1.5205908
1.520612
1.5206099
1.5205917
1.5205014
1.5203815
1.5197411
1.5198292
1.5200902
1.5200003
1.5201431
1.5202383
1.5199948
1.5199458
1.5200024
1.5200649
1.520194
1.5201152
1.520238
1.5203277
1.5203604
1.5203619
1.5204646
1.5204688
1.5203306
1.5204199
1.5203265
1.520423
1.52049
1.520522
1.5205026
1.5205119
1.520549
1.5205696
1.5205559
1.5205744
1.5206935
1.5206892
1.5206802
1.5207062
1.5207798
1.5207829
1.5208442
1.5208579
1.5206969
1.5207164
1.5207122
1.5207304
1.520858
1.5207948
1.5208236
1.5208745
1.5220985
1.5220661
1.5218422
1.5218484
1.5218995
1.5218959
1.5219059
1.5218881
1.5219403
1.5219275
1.5208399
1.5208425
1.5208692
1.5208552
1.5207253
1.5207506
1.5204635
1.520619
1.5209806
1.5209823
1.5210045
1.5209956
1.5209395
1.520934
1.5209195
1.5209175
1.5217181
1.5214859
1.5233465
1.523444
1.5234824
1.5221984
1.5219443
1.5228414
1.52277
1.5230793
1.5231908
1.5227381
1.5235184
1.5234719
1.523251
1.5232001
1.5232067
1.5232886
1.5225706
1.5228291
1.5228963
1.5224665
1.5225106
1.5224721
1.5232376
1.5231405
1.5228878
1.5223544
1.5224094
1.5220622
1.5235134
1.5235077
1.5234887
1.5234987
1.523474
1.5234535
1.5234642
1.5234326
1.5225852
1.5225826
1.5234094
1.5233872
1.5225746
1.5225525
1.5233709
1.5233328
1.5232835
1.5233254
1.5234614
1.5223184
1.5223599
1.52345
1.5235579
1.5235554
1.5232958
1.5235
1.5235732
1.5235767
1.5231846
1.5233563
1.5233495
1.5230404
1.5234902
1.5235066
1.523464
1.5234944
1.5227766
1.5219154
1.5223529
1.5231934
1.522479
1.5225158
1.5233413
1.5233826
1.5235606
1.5235642
1.5235348
1.5235413
1.5235598
1.5235554
1.5235379
1.5235311
1.523435
1.522587
1.522591
1.5234325
1.5225879
1.5225829
1.5234355
1.5234234
1.5220425
1.5220153
1.5209699
1.5209727
1.5220555
1.522068
1.5209795
1.5209771
1.5220618
1.5220519
1.5209894
1.5209864
1.5220427
1.5220685
1.521006
1.5210049
1.5216553
1.5213094
1.5204992
1.5206128
1.5218977
1.5218528
1.5207541
1.5207663
1.5219528
1.5219338
1.5208553
1.5208592
1.5219678
1.5219756
1.5208887
1.5208905
1.5220722
1.5220652
1.521054
1.5210517
1.5220361
1.5220674
1.5210593
1.5210573
1.5220422
1.5220252
1.5210338
1.5210326
1.5220592
1.5220745
1.5210398
1.5210377
1.5219301
1.5219588
1.5210954
1.5210899
1.5216937
1.5218197
1.5210688
1.5210657
1.5220124
1.522011
1.5210857
1.5210825
1.5220068
1.5220303
1.5210846
1.5210817
1.5197713
1.5212037
1.5211962
1.5211658
1.5211554
1.5211868
1.5211434
1.5211916
1.5211453
1.5211917
1.5211428
1.5211773
1.5211284
1.5211763
1.5211231
1.521178
1.5211227
1.521537
1.5215053
1.5215201
1.5215324
1.5214904
1.5215304
1.5215412
1.5215
1.5213958
1.5214251
1.5211825
1.5211649
1.5211889
1.521163
1.5211613
1.5211405
1.5211701
1.5211457
1.5210804
1.5210901
1.5210117
1.5210258
1.5206479
1.5211119
1.5211279
1.5210831
1.5210458
1.5207564
1.5206223
1.5207479
1.5214741
1.5214639
1.5214934
1.5214457
1.5214966
1.5215199
1.5214951
1.5214713
1.5213528
1.5213079
1.5213598
1.521302
1.5213568
1.5214004
1.5213483
1.5213917
1.5214115
1.5214023
1.521457
1.5214439
1.5213085
1.5213039
1.5212411
1.5212389
1.5213949
1.5216461
1.5216399
1.5216309
1.5216549
1.5212375
1.5216651
1.5216689
1.5216841
1.5216796
1.5216429
1.5216342
1.5216451
1.5216534
1.5211732
1.5211885
1.5211224
1.5211361
1.521158
1.521108
1.5211651
1.5211129
1.5211453
1.5210833
1.5211508
1.5210867
1.5211597
1.521097
1.5211736
1.521109
1.5211515
1.521122
1.5211679
1.5211371
1.5210649
1.5210808
1.5210146
1.5209974
1.5205753
1.5210445
1.5210529
1.5209846
1.5209743
1.5205558
1.5211342
1.5211064
1.5211429
1.5211129
1.5205393
1.5205598
1.5204811
1.5204633
1.5204873
1.5205055
1.5205394
1.5205741
1.5206938
1.5206716
1.5216501
1.5216411
1.5216546
1.5216617
1.5216781
1.521679
1.5216888
1.521687
1.5216442
1.5216336
1.5216482
1.5216572
1.5216848
1.5216693
1.5216669
1.5216818
1.5185348
1.5187037
1.5183746
1.5184805
1.518989
1.5190026
1.5190538
1.5205485
1.5207021
1.5204805
1.5206122
1.5208647
1.5208986
1.5207861
1.5208126
1.5206361
1.5205587
1.5207859
1.5206909
1.5207971
1.5207185
1.5208261
1.5207408
1.5210276
1.5209518
1.5210258
1.5209491
1.5210646
1.521093
1.5210033
1.5210278
1.5210628
1.5209996
1.5210604
1.5209965
1.5210318
1.5209583
1.5210577
1.5209798
1.5207142
1.5208583
1.5206375
1.5207668
1.5209629
1.5208982
1.521004
1.520933
1.5207745
1.5207066
1.5209084
1.5208303
1.5209256
1.5208463
1.5209633
1.5208773
1.5209717
1.5209707
1.5208949
1.5208934
1.5209788
1.520905
1.5210015
1.5209225
1.5209182
1.5208454
1.5208588
1.5209367
1.520907
1.5209074
1.520832
1.520832
1.5201117
1.520195
1.5200123
1.5200711
1.5199718
1.5200075
1.5199254
1.5199037
1.519914
1.5200046
1.520378
1.520357
1.5203802
1.5204005
1.5202429
1.5202258
1.52032
1.5203036
1.520373
1.5202859
1.5202967
1.5203792
1.5204559
1.5204342
1.5204486
1.5204689
1.5201951
1.5201286
1.5201684
1.5202359
1.5200814
1.5200606
1.5201024
1.5201346
1.5201599
1.5201474
1.5201818
1.5201974
1.5202442
1.520289
1.5202626
1.5203079
1.5203657
1.5203515
1.520397
1.5204125
1.5202576
1.5202917
1.5202648
1.5203031
1.5204285
1.5203268
1.520368
1.520478
1.5205521
1.5204253
1.5204766
1.5205981
1.5208596
1.5208027
1.5209756
1.5209118
1.5208287
1.5207595
1.5209544
1.5208749
1.5210439
1.5209996
1.5209307
1.520969
1.5210596
1.5210125
1.5209601
1.5210021
1.5208512
1.5208173
1.5209573
1.5209178
1.5208673
1.5208186
1.5208932
1.5209403
1.5207726
1.5208614
1.5207917
1.5207094
1.5209874
1.5209571
1.5210367
1.5210022
1.5209122
1.5209167
1.5209891
1.5209863
1.5210806
1.5211149
1.5210517
1.5210834
1.5210827
1.5210522
1.5210803
1.5210498
1.5209884
1.5210221
1.5209485
1.520913
1.5211085
1.5210561
1.5211066
1.5210534
1.5211078
1.5210568
1.5211402
1.5210861
1.5210944
1.5210967
1.5210303
1.5210271
1.5210971
1.5210322
1.5211275
1.5210594
1.5210931
1.521104
1.5210249
1.5210336
1.5211132
1.5210542
1.5211173
1.5210566
1.5210825
1.5210793
1.5210111
1.5210127
1.5211271
1.521068
1.5211395
1.5210784
1.521149
1.5210972
1.5211483
1.521095
1.5211187
1.5210614
1.5211165
1.5210582
1.5211317
1.5210793
1.5211119
1.5210618
1.5211624
1.5211447
1.5210998
1.5211167
1.5210283
1.5210308
1.520961
1.5209602
1.5209711
1.5209101
1.5209727
1.5209108
1.5210429
1.5209749
1.5210522
1.5209816
1.5209864
1.5209257
1.5209936
1.5209307
1.5210894
1.5210387
1.5210759
1.5210172
1.5210729
1.5210137
1.5209769
1.5210258
1.5210228
1.5209742
1.5210013
1.5210442
1.5209911
1.5219947
1.521963
1.52194
1.5219626
1.521951
1.5216613
1.5216521
1.5216756
1.5216697
1.5216764
1.5216763
1.5216948
1.5216977
1.5217183
1.5217159
1.5217174
1.5217187
1.5216936
1.5216925
1.5217012
1.5217009
1.5217645
1.5217399
1.5217589
1.5217813
1.5217022
1.5217056
1.5217268
1.5217227
1.5217968
1.5217743
1.521777
1.5217973
1.5217409
1.5217416
1.5217448
1.5217435
1.5217546
1.5217892
1.5218113
1.521012
1.5210155
1.5210218
1.5210183
1.5210464
1.5210486
1.521027
1.52103
1.5209028
1.5208986
1.5209336
1.5209349
1.5205406
1.5206658
1.5208031
1.5208148
1.5211122
1.5211163
1.5211141
1.5211176
1.5211235
1.521117
1.5210913
1.5210864
1.5210931
1.5210964
1.5210881
1.5210902
1.5210737
1.5210768
1.5210692
1.5210699
1.5224425
1.5216303
1.5225648
1.5225003
1.5214384
1.5221095
1.5224184
1.5234344
1.5234461
1.5234785
1.523531
1.5234936
1.5229282
1.5227892
1.5230732
1.5227947
1.5231691
1.5231641
1.5232013
1.5232803
1.5232174
1.5232193
1.5232925
1.5226662
1.5228438
1.5228995
1.5228948
1.5225546
1.5224902
1.5235199
1.523524
1.5235273
1.5235337
1.5235067
1.5235147
1.5234701
1.523489
1.5235008
1.5234714
1.5234813
1.5234506
1.5232257
1.5232323
1.5231983
1.5232074
1.5232907
1.5233009
1.523308
1.5232896
1.5229308
1.5228877
1.5228821
1.5229634
1.5225119
1.5224965
1.5222985
1.5223866
1.5226152
1.5230808
1.52305
1.522601
1.522603
1.5230132
1.5229733
1.522578
1.5232862
1.5233101
1.5232778
1.52331
1.5231904
1.523234
1.5231781
1.5232301
1.5229808
1.5228753
1.5230001
1.5228694
1.5225175
1.5228531
1.5227377
1.5224555
1.5225431
1.5225213
1.5222438
1.522211
1.5221684
1.5224836
1.5223063
1.5220905
1.5234922
1.523477
1.5234757
1.5234918
1.5234994
1.5235017
1.523488
1.5234834
1.5234672
1.5234705
1.5234586
1.5234525
1.523432
1.5234393
1.5234276
1.5234144
1.5226673
1.5231953
1.5231825
1.5226724
1.5226904
1.5231794
1.5231832
1.5226854
1.5234714
1.5234781
1.5234547
1.523465
1.5234641
1.5234664
1.5234462
1.5234496
1.5226854
1.5231783
1.5231618
1.5226809
1.5226709
1.5231413
1.523128
1.5226468
1.5234415
1.5234496
1.5234238
1.5234354
1.5234017
1.5234189
1.5233842
1.5234041
1.5220887
1.5222402
1.521887
1.5233933
1.5234589
1.5233502
1.5234059
1.5235284
1.5235368
1.5235535
1.5235572
1.5236024
1.5235971
1.5234195
1.5233284
1.5234392
1.523275
1.5231641
1.5233966
1.5235192
1.5235113
1.5235227
1.5235369
1.5234941
1.5235153
1.5235788
1.5235831
1.5235746
1.523582
1.5235569
1.5235499
1.5235881
1.5235864
1.5235848
1.523587
1.5235577
1.5235613
1.5233796
1.5233581
1.5234002
1.5233955
1.5231975
1.5230706
1.5229713
1.5231989
1.5234829
1.5234756
1.5234563
1.5234688
1.5234843
1.5235008
1.5235045
1.5234917
1.5229003
1.5231842
1.5231233
1.5227723
1.5227993
1.5224418
1.5218605
1.5222406
1.5230816
1.522995
1.5224615
1.5225507
1.5233882
1.5233398
1.5233668
1.5232945
1.5231447
1.5231403
1.5225926
1.5226071
1.5231762
1.5231608
1.5226257
1.5226334
1.5234575
1.5234429
1.5234385
1.5234202
1.5234816
1.5234729
1.5234643
1.5234535
1.5235426
1.5235399
1.5235212
1.5235256
1.5235263
1.5235443
1.523545
1.5235278
1.5235245
1.5235412
1.5235224
1.5235404
1.5235334
1.5235323
1.5235163
1.5235143
1.5235129
1.5235081
1.5234888
1.5234948
1.5232163
1.5232156
1.5226714
1.5226877
1.5227012
1.5232142
1.5232164
1.522697
1.5235154
1.5235141
1.5234968
1.5234963
1.522695
1.5232197
1.5232101
1.5226958
1.5226966
1.5232056
1.5232076
1.5226809
1.5235099
1.5235132
1.5234913
1.5234966
1.5235013
1.5235046
1.5234835
1.5234868
1.5236359
1.5221647
1.5221354
1.5221775
1.5221911
1.5221821
1.5221715
1.5221612
1.5221899
1.5217883
1.5214297
1.5220306
1.521988
1.5220787
1.5220581
1.5220925
1.5221018
1.522186
1.5221781
1.5221471
1.522182
1.5221577
1.5221366
1.522175
1.5221918
1.5220239
1.5220545
1.5219027
1.522116
1.5221143
1.52211
1.5221365
1.521752
1.52165
1.5216391
1.5217419
1.5216305
1.5216488
1.5215621
1.5215463
1.5215536
1.5216582
1.5215668
1.5216453
1.5215485
1.5214719
1.5215674
1.521488
1.5216726
1.5217882
1.5216808
1.5217817
1.5216914
1.5215938
1.5215836
1.5216819
1.5216798
1.5217836
1.5216758
1.5217881
1.5216862
1.521588
1.521689
1.5215913
1.5215758
1.5215091
1.5214951
1.5215612
1.5214517
1.5215059
1.5215212
1.5214381
1.5214937
1.521475
1.5214358
1.5214194
1.5213828
1.5214246
1.5213666
1.5214438
1.5215244
1.5216055
1.521535
1.5215947
1.5214755
1.5215501
1.521539
1.5214652
1.5216024
1.5215316
1.5215996
1.5215287
1.5214687
1.5215435
1.521546
1.5214713
1.5215503
1.5214006
1.5215111
1.5215209
1.5214013
1.5215308
1.5215404
1.5213998
1.5212356
1.5212354
1.5212349
1.5220559
1.5220513
1.5218864
1.5218813
1.5218821
1.521748
1.5217402
1.5218895
1.5219009
1.5218863
1.5217498
1.521762
1.5217653
1.5217485
1.5216462
1.5216317
1.5219286
1.5221101
1.5219297
1.5221108
1.5219332
1.5217827
1.5217777
1.5219308
1.5219316
1.522105
1.521925
1.5221097
1.5219288
1.5217779
1.5219339
1.5217839
1.5223329
1.5223328
1.5221129
1.5221137
1.5221072
1.5221124
1.5223286
1.5223274
1.5223406
1.5209721
1.5223356
1.5209865
1.5210092
1.5210249
1.5222643
1.5222609
1.5220582
1.522055
1.5218991
1.5218888
1.5220648
1.5220527
1.5220593
1.5210533
1.522269
1.5210151
1.5210467
1.5210907
1.520981
1.5210203
1.5210321
1.5209947
1.5210676
1.5210573
1.5210257
1.5211043
1.5214006
1.5214691
1.5214795
1.521398
1.5214901
1.5215004
1.5214018
1.5214015
1.5212332
1.5212343
1.5212167
1.5212349
1.5212355
1.5214488
1.5213888
1.521458
1.5213938
1.5212313
1.5212168
1.5212281
1.5212151
1.5214873
1.5214542
1.5213798
1.5213628
1.5213602
1.5212296
1.5213647
1.5212343
1.521211
1.5212258
1.5212135
1.5211902
1.5211955
1.5211922
1.5211711
1.5211839
1.521188
1.5212175
1.5213345
1.5213491
1.5212235
1.5217005
1.5218184
1.5217034
1.5218169
1.5218235
1.5218162
1.5217035
1.5217111
1.5217161
1.5216108
1.521712
1.5216061
1.5217226
1.5216121
1.5216191
1.5217161
1.5218032
1.5216884
1.5218018
1.5216859
1.5216973
1.5215917
1.5217002
1.5215953
1.5217028
1.5218108
1.5216942
1.5218199
1.5217068
1.5216003
1.5216079
1.5217148
1.5216085
1.5215327
1.5215284
1.5216047
1.5215492
1.5214683
1.5214638
1.521545
1.5216144
1.5216218
1.5215377
1.5215447
1.5215552
1.5215623
1.5214732
1.5214797
1.5215433
1.5216247
1.5215488
1.5216195
1.5214848
1.5215663
1.5215604
1.5214791
1.5215576
1.5216261
1.5215516
1.5216326
1.5214886
1.5215691
1.5215745
1.5214938
1.5221587
1.5221603
1.5219676
1.5219691
1.5219731
1.521811
1.5218108
1.5219726
1.5221484
1.5221544
1.5219706
1.5219612
1.5219665
1.5219744
1.5218085
1.5218174
1.5223945
1.5223943
1.5221607
1.5221623
1.5221499
1.5221566
1.5223811
1.5223801
1.5223883
1.5209698
1.5224019
1.5209548
1.5210006
1.5210131
1.5223823
1.522383
1.5221469
1.5221497
1.5221557
1.5221635
1.5223963
1.5223964
1.5224037
1.5209404
1.5223903
1.5209299
1.5209747
1.5209857
1.5219556
1.5221456
1.5219536
1.5221486
1.5219578
1.5217968
1.5217961
1.5219592
1.521971
1.5221554
1.5219608
1.5221631
1.5219663
1.5218032
1.5219756
1.5218133
1.5209431
1.5209882
1.5209956
1.5209524
1.5209693
1.5210133
1.5210194
1.5209794
1.5209852
1.5209885
1.5209635
1.5209643
1.5209707
1.5209591
1.520936
1.520945
1.5209491
1.5209895
1.5209982
1.5209561
1.5210176
1.5210167
1.5209748
1.5209795
1.5209998
1.5209897
1.5209688
1.5209794
1.5209848
1.5210185
1.5210293
1.5209954
1.5210304
1.5210619
1.521074
1.5211082
1.5210194
1.5210302
1.521082
1.5210642
1.5212979
1.5212916
1.5212073
1.5212053
1.5211724
1.5211819
1.5211776
1.5211673
1.521207
1.5213077
1.5213196
1.5212113
1.5211798
1.5211773
1.5211661
1.5211677
1.5183149
1.5181608
1.5181048
1.5180604
1.518826
1.5186107
1.5186415
1.5188554
1.5185172
1.5187116
1.5186764
1.5189405
1.518919
1.5184354
1.5184726
1.5183623
1.5183932
1.5185456
1.5184435
1.5184794
1.5186065
1.5185662
1.5185236
1.5187454
1.5186892
1.5191142
1.5190422
1.5192544
1.5195464
1.5194778
1.5191702
1.5193328
1.5193324
1.5196477
1.5196109
1.5193791
1.5193567
1.5196742
1.5196133
1.5196588
1.5195834
1.5196201
1.5195464
1.5206628
1.5206171
1.5207216
1.5207828
1.520931
1.5209163
1.5208597
1.520872
1.5206593
1.5206004
1.5205535
1.5207217
1.520873
1.5208065
1.5208586
1.520796
1.5211279
1.5210668
1.5210656
1.5211272
1.5211792
1.5211685
1.5211053
1.5211138
1.5209971
1.5210674
1.5209981
1.5210672
1.5211154
1.5210402
1.5211064
1.5210335
1.5208579
1.5208082
1.5207526
1.520928
1.5207372
1.5206782
1.5207824
1.5208581
1.5210085
1.5210618
1.5209953
1.5210775
1.520994
1.5209173
1.5210092
1.5209299
1.5209986
1.5209475
1.5209478
1.5209989
1.5209479
1.5208908
1.5208926
1.5209497
1.5210348
1.5210423
1.5209819
1.5209875
1.5209834
1.5209896
1.5209236
1.5209262
1.5213046
1.521368
1.521308
1.5213648
1.5213179
1.521237
1.5212344
1.5213156
1.5213711
1.5213101
1.5213643
1.5213054
1.5213177
1.5212369
1.5213217
1.5212405
1.5214621
1.5213994
1.5213957
1.5214584
1.5214952
1.5214863
1.5214243
1.5214326
1.5213449
1.52142
1.5213495
1.5214159
1.5214532
1.5213813
1.5214453
1.5213744
1.5213979
1.521465
1.5214028
1.521461
1.5214229
1.5213517
1.5213471
1.5214185
1.5214039
1.5214568
1.521395
1.5214673
1.5214162
1.5213459
1.5214247
1.5213529
1.5213667
1.5213078
1.5213034
1.5213621
1.5212407
1.5213147
1.5213188
1.5212362
1.5213923
1.5213988
1.5213333
1.5213382
1.5212655
1.521349
1.5212695
1.521345
1.5209648
1.5210773
1.5210084
1.5209048
1.5212265
1.5211581
1.5212085
1.5211427
1.5208965
1.5208232
1.5209286
1.5210167
1.5211511
1.5211676
1.5210632
1.5210772
1.5212972
1.5213636
1.5212984
1.521363
1.5213179
1.5212447
1.5212425
1.5213167
1.5214069
1.5214232
1.5213413
1.5213559
1.5213613
1.5213767
1.5212861
1.5212992
1.521192
1.5210986
1.5210339
1.521122
1.5211405
1.5210364
1.5209664
1.5210626
1.52127
1.5213219
1.5212531
1.5213408
1.5211936
1.521272
1.5212903
1.5212097
1.5211974
1.5212602
1.521199
1.5212586
1.5211274
1.5212079
1.5212074
1.5211259
1.5213163
1.5212514
1.5213025
1.5212404
1.5211673
1.5212504
1.5212613
1.5211769
1.5212379
1.5211771
1.5211752
1.5212362
1.521239
1.5212426
1.5211779
1.5211804
1.5211076
1.5211782
1.5211091
1.5211772
1.5211823
1.5211118
1.5211797
1.5211101
1.5212431
1.5211837
1.5211793
1.5212386
1.5211139
1.5211861
1.5211184
1.5211817
1.5212116
1.521268
1.5212073
1.5212726
1.5212096
1.5211393
1.5211433
1.5212143
1.5211206
1.5210709
1.5210672
1.5211165
1.521019
1.52107
1.5210735
1.5210154
1.5210362
1.5210929
1.5210967
1.5210368
1.5211414
1.5211459
1.5210903
1.5210937
1.5211101
1.5210592
1.5210588
1.5211097
1.521112
1.5210613
1.5211139
1.5210624
1.5210038
1.5210048
1.5210602
1.5210611
1.5210647
1.5210638
1.5210093
1.5210078
1.5202283
1.5202333
1.5202351
1.5202341
1.5202902
1.5203644
1.5203318
1.5202825
1.520206
1.520261
1.5200515
1.5200799
1.5200894
1.5201019
1.5201226
1.5201314
1.5201406
1.5201451
1.520126
1.5200959
1.5235856
1.5235136
1.5209083
1.5208843
1.5208845
1.5208597
1.5208887
1.5208725
1.5208507
1.5208616
1.5209162
1.5209065
1.5208679
1.5208726
1.520872
1.5209136
1.5209391
1.5208989
1.5206949
1.5207428
1.5208143
1.5207625
1.5206919
1.5207172
1.5207897
1.5207586
1.5207894
1.5208375
1.5208742
1.5208279
1.5207845
1.5208103
1.5208439
1.5208179
1.5208697
1.5208273
1.5208235
1.5207813
1.520804
1.5207298
1.520682
1.520752
1.5207889
1.5207112
1.5206691
1.5207414
1.5207718
1.5208149
1.5208603
1.5208169
1.5209408
1.5209119
1.5208689
1.5208985
1.520913
1.5209107
1.5208693
1.5208686
1.5208664
1.5209069
1.5209043
1.5208638
1.5209354
1.5209038
1.5208652
1.5208976
1.5207139
1.5207162
1.5206861
1.5206893
1.5206722
1.5205993
1.5205997
1.5206704
1.5206552
1.5206701
1.5207467
1.5207245
1.5207647
1.5207478
1.5207774
1.5207916
1.5205313
1.5205313
1.5205927
1.5205972
1.5204517
1.5204012
1.5204382
1.5205024
1.5204681
1.520456
1.5205119
1.5205358
1.5206105
1.5206011
1.5206283
1.5206382
1.520537
1.5205177
1.5206057
1.5205759
1.520508
1.5205028
1.5205606
1.5205747
1.5206684
1.5206506
1.5206615
1.5206803
1.5206679
1.5206785
1.5207086
1.5207001
1.5207568
1.5207373
1.520742
1.5207598
1.5208177
1.5208066
1.520823
1.5208357
1.5207597
1.5207556
1.5207844
1.5207837
1.5208578
1.5208351
1.5208202
1.5208433
1.520854
1.520854
1.5208601
1.520861
1.5208458
1.5208404
1.5208396
1.5208477
1.520923
1.5209113
1.520896
1.5209067
1.5209239
1.5209357
1.5209329
1.5209214
1.5206135
1.5206161
1.5206743
1.5206734
1.5207618
1.5207682
1.5207707
1.5207624
1.5206714
1.5206143
1.5206224
1.5206835
1.5207694
1.5207627
1.5207783
1.5207819
1.5207697
1.5207003
1.5208315
1.5207536
1.5206609
1.5206554
1.5207095
1.520718
1.5207997
1.5207902
1.5207977
1.5208087
1.5208432
1.5208297
1.5209135
1.5209198
1.5209833
1.5209079
1.5209173
1.520982
1.5208775
1.5208653
1.5208677
1.5208801
1.5209288
1.5209361
1.5209491
1.5209392
1.5210418
1.5209801
1.520977
1.5210292
1.5214772
1.5213589
1.5215321
1.5214131
1.5214256
1.5213604
1.5212534
1.5213153
1.521671
1.5216876
1.5215466
1.5215633
1.5214452
1.521578
1.5214624
1.5215608
1.5212556
1.5213293
1.5212469
1.5211763
1.5211803
1.521097
1.5211756
1.5212644
1.5213945
1.5214606
1.5213774
1.521479
1.521396
1.5214144
1.5213048
1.521322
1.5214715
1.5215349
1.5215522
1.5214559
1.5214916
1.521492
1.5214127
1.5214122
1.5213459
1.5214316
1.5213447
1.521432
1.5214756
1.5214918
1.5214034
1.5213884
1.5217492
1.5216308
1.5217331
1.5216145
1.5216943
1.5216912
1.5215715
1.5215733
1.5215872
1.5215856
1.5214763
1.5214766
1.5215192
1.5215356
1.5216288
1.5216454
1.5218518
1.5216534
1.5218773
1.5216837
1.5216883
1.5215249
1.5216471
1.5214815
1.522047
1.522036
1.5218299
1.5218449
1.5218513
1.5216783
1.5218364
1.521662
1.5223341
1.5222972
1.5220436
1.522291
1.522292
1.52205
1.5220829
1.5220949
1.5223274
1.5223283
1.5218826
1.5221082
1.5218653
1.5221198
1.5222899
1.522037
1.5222908
1.5220478
1.5222979
1.5221324
1.5220435
1.5220499
1.52185
1.5218434
1.5218498
1.5216823
1.5216862
1.5218557
1.5218995
1.5220822
1.5218842
1.522094
1.5218905
1.5217241
1.5219052
1.5217406
1.522368
1.5223587
1.5223523
1.5223528
1.5221181
1.5221214
1.5221193
1.52213
1.5223612
1.5223616
1.5219362
1.5221299
1.5219324
1.5221342
1.5221381
1.5221471
1.521945
1.521958
1.5219381
1.5217722
1.521941
1.5217741
1.5219627
1.5217879
1.5218016
1.521951
1.5221168
1.52212
1.5219249
1.5219279
1.5219322
1.5217693
1.52193
1.5217686
1.5219352
1.5221182
1.5219217
1.5221286
1.5219275
1.5217632
1.5217762
1.52194
1.5223731
1.5223735
1.5221319
1.5221363
1.52214
1.5221498
1.5223781
1.5223781
1.5223862
1.5223811
1.5217775
1.5216626
1.5216606
1.5217774
1.5216763
1.5215708
1.521674
1.5215675
1.5217724
1.5217845
1.5216552
1.5216676
1.5215618
1.5216812
1.5215742
1.5216691
1.5216627
1.5217811
1.5216631
1.5217822
1.521677
1.5215694
1.5215673
1.521676
1.521694
1.5217973
1.521682
1.5218097
1.5216963
1.5215902
1.5217074
1.5216014
1.5215775
1.52159
1.5215121
1.5215005
1.521506
1.5215863
1.5215101
1.521583
1.5215293
1.5214468
1.5214422
1.5215253
1.5215201
1.5215316
1.5214376
1.5214481
1.521504
1.5215848
1.5215071
1.5215824
1.5214435
1.5215264
1.5215231
1.5214398
1.5216169
1.5215399
1.5216062
1.5215297
1.5214671
1.5215493
1.5215592
1.5214764
1.5213427
1.5214049
1.521348
1.5213996
1.5214136
1.5214112
1.5213547
1.521356
1.5213571
1.5212838
1.5213517
1.5212784
1.5213642
1.5212907
1.5212913
1.5213641
1.5214796
1.521484
1.5214233
1.5214189
1.5214364
1.5214406
1.5213723
1.5213679
1.5214339
1.5214898
1.5214285
1.5214963
1.521378
1.5214469
1.521452
1.5213822
1.521397
1.5213385
1.5213932
1.5213361
1.5213819
1.521386
1.5213288
1.521325
1.5213328
1.521336
1.5212634
1.5212595
1.521271
1.5212724
1.5213453
1.521347
1.5214348
1.5215013
1.5214401
1.5214955
1.5214584
1.5213898
1.5213846
1.521453
1.5214496
1.5215053
1.5214453
1.5215102
1.5214637
1.5213956
1.5214674
1.5213987
1.5214898
1.5214791
1.5214339
1.5214239
1.5214394
1.5213776
1.5214499
1.5213873
1.5214287
1.5214829
1.521427
1.521485
1.521443
1.5213807
1.5213818
1.5214441
1.5213998
1.5213473
1.5213388
1.52139
1.5213539
1.5212884
1.5212808
1.5213456
1.5213938
1.5213943
1.5213421
1.521342
1.5213498
1.5213488
1.5212839
1.5212833
1.521316
1.5213762
1.521328
1.5213626
1.5212756
1.5213327
1.5213201
1.521264
1.5213098
1.5212909
1.5212683
1.5212521
1.5212214
1.5212526
1.5212081
1.5212704
1.5213971
1.5214629
1.5214104
1.5214482
1.52139
1.5213713
1.5213446
1.5213281
1.5213341
1.521287
1.5213533
1.5213036
1.5214232
1.521409
1.5213663
1.5213535
1.5212651
1.5212115
1.5212072
1.5212611
1.5212724
1.5212739
1.5212165
1.5212176
1.5212194
1.5211559
1.5212182
1.5211551
1.5212141
1.5212096
1.5211526
1.5211479
1.5211053
1.5211548
1.5211093
1.5211503
1.5211114
1.5210616
1.5210591
1.5211079
1.521157
1.521158
1.5211111
1.5211116
1.5211139
1.521064
1.5211135
1.5210653
1.5212258
1.5212856
1.5212304
1.5212806
1.5212325
1.52117
1.5211655
1.5212279
1.5212384
1.5212927
1.5212372
1.5212938
1.5212391
1.5211757
1.5212404
1.5211767
1.5211226
1.521172
1.5211263
1.5211679
1.5211286
1.5210799
1.5211252
1.5210769
1.521179
1.5211778
1.5211317
1.5211325
1.521135
1.5210851
1.5211341
1.5210839
1.5212224
1.5212766
1.5212327
1.5212646
1.5212339
1.5211853
1.5212232
1.5211761
1.5212901
1.5212415
1.5212823
1.5212344
1.5212363
1.5211818
1.5212438
1.5211885
1.5212353
1.521285
1.5212356
1.5212845
1.521237
1.5211819
1.5211817
1.5212367
1.5211086
1.5211516
1.5211465
1.5211048
1.5211904
1.5211494
1.5211441
1.5211837
1.5211836
1.5211434
1.5211835
1.5211431
1.5211451
1.5211052
1.5211457
1.5211031
1.5211087
1.5211148
1.5211519
1.5211444
1.5211428
1.5211865
1.5211503
1.5211772
1.5211152
1.5210842
1.5207802
1.5207841
1.5218585
1.5218637
1.5218403
1.521834
1.5218337
1.5218406
1.5218174
1.5218216
1.5218063
1.5218277
1.5212909
1.5212964
1.5212148
1.5212287
1.5213079
1.5213262
1.5212495
1.5212769
1.5212513
1.521257
1.5212286
1.5212221
1.5211994
1.5212068
1.5211915
1.521183
1.5215175
1.5214297
1.5214097
1.5215114
1.5213511
1.5213843
1.5213538
1.5213111
1.5215103
1.5213998
1.5213964
1.5215089
1.5212931
1.521339
1.5213348
1.5212883
1.5213108
1.5213755
1.5214956
1.5224829
1.5221696
1.5219758
1.5214729
1.5227846
1.5227114
1.5225584
1.5224987
1.5213253
1.5226548
1.522322
1.522125
1.5224153
1.5234687
1.5235542
1.5235263
1.5234944
1.5235173
1.5235091
1.5234868
1.5235439
1.5235395
1.5235445
1.5235458
1.5235503
1.5235408
1.5235184
1.523495
1.5234913
1.5235101
1.522981
1.52324
1.5231611
1.5228145
1.5228004
1.5228671
1.52264
1.52321
1.5232541
1.5226241
1.5228969
1.5228645
1.5226605
1.5232864
1.523252
1.523214
1.5232388
1.5233009
1.5233064
1.5232366
1.5232307
1.5232358
1.5232094
1.523309
1.5232965
1.5229545
1.5229233
1.5228936
1.5229091
1.5225429
1.5224693
1.5223355
1.522504
1.523533
1.5235098
1.5235391
1.5235176
1.5234875
1.5234869
1.5234971
1.5234941
1.5235072
1.5234868
1.5234773
1.5234535
1.5234679
1.5234633
1.5234366
1.5234265
1.5232384
1.5232014
1.5233108
1.5232932
1.5228876
1.5229756
1.5225156
1.5222681
1.5228851
1.5231403
1.5231134
1.5228683
1.5228696
1.5230865
1.5230356
1.5228401
1.5232883
1.5233103
1.5232741
1.5233019
1.5231934
1.5232379
1.5231751
1.5232295
1.5229887
1.522881
1.5230012
1.5228679
1.5227736
1.5229228
1.5228062
1.522702
1.5225286
1.522523
1.5222211
1.5221567
1.5221988
1.5225488
1.5225403
1.5222801
1.5234737
1.5234727
1.5234844
1.5234795
1.5234564
1.5234498
1.5234257
1.5234112
1.5229513
1.5232523
1.5232423
1.5229557
1.5229717
1.5232465
1.5232374
1.5229661
1.523467
1.5234737
1.5234403
1.5234506
1.5234603
1.5234625
1.523433
1.5234379
1.5229606
1.5232346
1.5232204
1.5229556
1.5229504
1.5232097
1.5231823
1.522924
1.5234382
1.5234466
1.5234123
1.5234242
1.5233986
1.5234163
1.5233723
1.5233945
1.5214029
1.5218587
1.5219991
1.5216759
1.5219751
1.5220782
1.5219565
1.5218981
1.5221447
1.523453
1.5234579
1.5234268
1.5235248
1.5235651
1.523537
1.523546
1.5233441
1.5234483
1.5233646
1.5234692
1.5233681
1.5234504
1.5235487
1.5235578
1.5235478
1.5235403
1.5235709
1.5236133
1.5236208
1.5236005
1.5235948
1.5235977
1.5235923
1.5236017
1.5236033
1.5236041
1.5236073
1.5236067
1.5236051
1.5236016
1.5235953
1.5235946
1.5235995
1.523422
1.5234505
1.5231988
1.523289
1.5230572
1.5232202
1.5233828
1.5234075
1.5235311
1.5235021
1.5235454
1.5235223
1.523472
1.5234805
1.5234964
1.5235022
1.5235779
1.5235512
1.5235858
1.5235595
1.523534
1.5235354
1.523527
1.5235257
1.5235892
1.5235614
1.5235908
1.5235637
1.5235343
1.5235372
1.5235376
1.5235391
1.5233645
1.5233996
1.5229908
1.5232144
1.523456
1.5234669
1.5234818
1.5234899
1.5229306
1.5231968
1.5231579
1.5228487
1.5228949
1.522553
1.5221488
1.5225358
1.5231594
1.5230866
1.5227622
1.5228546
1.5233898
1.5233464
1.5233669
1.5233124
1.5232151
1.5232065
1.5228883
1.5229044
1.5232415
1.5232321
1.5229253
1.5229368
1.5234546
1.5234424
1.5234284
1.523416
1.5234787
1.5234696
1.5234534
1.5234433
1.5235183
1.5235216
1.5235219
1.5235236
1.5235208
1.5235182
1.5235119
1.5235097
1.5235083
1.523505
1.523478
1.5234807
1.5232752
1.5232709
1.5229605
1.522975
1.522989
1.5232834
1.5232751
1.5229853
1.5235107
1.5235092
1.523483
1.5234834
1.5229818
1.5232811
1.5232714
1.5229821
1.5229862
1.5232742
1.5232636
1.5229712
1.5235051
1.5235088
1.5234771
1.5234837
1.5234965
1.5234997
1.5234689
1.5234738
1.5234617
1.5235333
1.5227257
1.522135
1.5227027
1.5221061
1.5227377
1.5221478
1.5227454
1.5221616
1.5227374
1.522153
1.5227309
1.5221412
1.5227232
1.5221339
1.5227451
1.5221627
1.5223025
1.5217776
1.5218894
1.5214276
1.5226098
1.5220069
1.5225319
1.5219708
1.5226467
1.5220503
1.5226302
1.5220306
1.5226758