/*--------------------------------*- C++ -*----------------------------------*\
  =========                 |
  \\      /  F ield         | OpenFOAM: The Open Source CFD Toolbox
   \\    /   O peration     | Website:  https://openfoam.org
    \\  /    A nd           | Version:  7
     \\/     M anipulation  |
\*---------------------------------------------------------------------------*/
FoamFile
{
    version     2.0;
    format      ascii;
    class       volVectorField;
    location    "4000";
    object      U;
}
// * * * * * * * * * * * * * * * * * * * * * * * * * * * * * * * * * * * * * //

dimensions      [0 1 -1 0 0 0 0];

internalField   nonuniform List<vector> 
33730
(
(-9.6151881e+24 -4.0801316e+24 -9.1807588e+23)
(-7.8053592e+24 -2.4210077e+24 3.7186572e+23)
(-7.317206e+24 -1.5209159e+24 5.8636337e+23)
(-7.4257578e+24 -9.60798e+23 1.7712136e+23)
(-7.4284442e+24 -6.5842578e+23 4.3178048e+23)
(-7.5056415e+24 -1.3445669e+24 -1.3901798e+24)
(-5.4597134e+24 -1.8504148e+24 -1.8307401e+23)
(-7.9095573e+24 -2.3226406e+24 -1.4755282e+24)
(-5.8417793e+24 -2.8331372e+24 -1.0009602e+22)
(-5.7688918e+24 -9.0944318e+23 6.5045096e+23)
(-6.0459395e+24 -1.3863737e+24 5.4646765e+23)
(-6.1244991e+24 -4.6063958e+23 1.3649782e+24)
(-5.8136111e+24 -4.2938101e+23 1.4907256e+24)
(-6.1448108e+24 -1.1916882e+24 5.9713128e+23)
(-5.9664541e+24 -4.0119539e+23 1.4269711e+24)
(-5.747249e+24 -4.6007093e+23 1.5403844e+24)
(-5.9228464e+24 -7.4723325e+23 6.9730592e+23)
(-7.0668478e+24 -2.9494419e+23 -7.7001134e+23)
(-7.0543416e+24 -6.0283006e+22 8.112405e+23)
(-7.1321681e+24 -3.772152e+23 9.308332e+23)
(-7.0254057e+24 -5.7397232e+23 -9.6927048e+23)
(-7.2982312e+24 -8.027054e+23 1.1635099e+24)
(-6.4204749e+24 -3.102615e+23 -1.6851218e+23)
(-6.3452401e+24 -3.8914261e+23 6.254868e+23)
(-6.4593565e+24 -4.6805343e+23 5.6496454e+23)
(-6.424339e+24 -3.9514881e+23 7.1043144e+23)
(-6.4396333e+24 -4.1327336e+23 5.591435e+23)
(-5.6064935e+24 -8.3686152e+23 -5.3887614e+23)
(-5.9742391e+24 -4.8315136e+23 -1.2336161e+24)
(-5.7348454e+24 -4.6327374e+23 -1.3317446e+24)
(-5.3988589e+24 -5.0157038e+23 -6.2326222e+23)
(-5.5974943e+24 -7.7573976e+23 -1.1164631e+24)
(-5.8546275e+24 -1.3281465e+24 -1.1459084e+24)
(-4.0593581e+24 -1.1044887e+24 2.1403866e+23)
(-4.2441704e+24 -1.8433622e+24 2.48814e+23)
(-5.5330497e+24 -9.1540316e+23 -5.3447868e+23)
(-5.8159623e+24 -5.2355793e+23 -1.1687695e+24)
(-5.5601567e+24 -4.7998173e+23 -1.3022896e+24)
(-5.2927681e+24 -5.6676995e+23 -6.0121654e+23)
(-5.7057504e+24 -1.4838814e+24 -1.1010757e+24)
(-5.4663658e+24 -9.7513877e+23 -1.0672011e+24)
(-4.0409147e+24 -1.992155e+24 1.7010915e+23)
(-3.9409153e+24 -1.3733002e+24 1.7619285e+23)
(-4.8419474e+24 -7.8310244e+23 6.399733e+23)
(-5.3369985e+24 -2.7596187e+23 1.0553436e+24)
(-4.7006092e+24 -5.0837275e+23 7.085556e+23)
(-5.1877296e+24 -2.8205474e+23 1.1228368e+24)
(-4.791114e+24 -8.4036948e+23 6.1650493e+23)
(-4.6452873e+24 -5.9837795e+23 6.9345487e+23)
(-5.2474075e+24 -3.1487594e+23 1.1426197e+24)
(-5.3967512e+24 -3.0092953e+23 1.0737757e+24)
(-5.2635522e+24 -2.6639769e+23 1.1551744e+24)
(-4.7510479e+24 -4.4127284e+23 6.9650142e+23)
(-5.3515347e+24 -2.4475009e+23 1.0768788e+24)
(-4.8645614e+24 -7.0694553e+23 6.4566543e+23)
(-4.8503609e+24 -3.9807915e+23 7.3634743e+23)
(-4.9249336e+24 -6.3588299e+23 6.6141447e+23)
(-5.263226e+24 -2.9962051e+23 1.1947467e+24)
(-5.3673652e+24 -2.4633591e+23 1.1264003e+24)
(-6.4488168e+24 -3.6335213e+23 3.1108101e+23)
(-6.1266581e+24 -1.0839897e+23 -6.3348675e+23)
(-5.5422173e+24 -7.4319655e+22 7.1569617e+21)
(-5.4074475e+24 -1.7106454e+23 -4.4811561e+23)
(-6.3588414e+24 -7.6813162e+20 -1.38609e+22)
(-6.3964592e+24 -8.1185442e+22 2.2995294e+23)
(-6.2053944e+24 -2.2742435e+23 -6.9281361e+23)
(-7.0986273e+24 -5.596085e+23 8.9198664e+23)
(-6.0490301e+24 -1.3888606e+23 -8.006874e+23)
(-6.4993824e+24 -1.7614919e+23 7.7593812e+23)
(-6.2550258e+24 -1.5398518e+23 -3.7873277e+23)
(-6.3587109e+24 -3.6666521e+23 -3.4104121e+23)
(-6.4242431e+24 -4.5396613e+23 8.3353849e+23)
(-6.8837308e+24 -1.163704e+23 6.6681259e+23)
(-6.304636e+24 -3.3929633e+23 -2.0333353e+23)
(-6.3886226e+24 -2.943766e+22 -4.0434459e+22)
(-6.2865448e+24 -1.0802934e+23 1.8225138e+23)
(-6.0983734e+24 -2.4174543e+23 -7.8541366e+23)
(-6.0092443e+24 -9.3939781e+22 -7.5066767e+23)
(-6.2840307e+24 -3.1932712e+23 2.487177e+23)
(-6.4860937e+24 -3.3287276e+23 -3.4067143e+23)
(-6.5162509e+24 -2.1360553e+23 -2.5054172e+23)
(-6.3735255e+24 -1.08192e+23 7.2205509e+23)
(-6.3975582e+24 -4.414728e+23 8.1846322e+23)
(-7.2824402e+24 -5.064875e+22 1.169027e+24)
(-6.3248191e+24 1.5704642e+23 3.8982458e+23)
(-5.3130332e+24 1.8775712e+22 -4.9542776e+22)
(-5.4553e+24 -2.6508665e+23 5.7903256e+23)
(-5.4198701e+24 -2.5717755e+23 6.6414207e+23)
(-5.4627873e+24 -3.0177013e+23 6.8266223e+23)
(-5.4829558e+24 -2.8919834e+23 6.3640745e+23)
(-5.5263527e+24 -2.3617141e+23 6.4095732e+23)
(-5.5176054e+24 -2.6726035e+23 7.3449316e+23)
(-5.516771e+24 -2.6675484e+23 6.9468691e+23)
(-5.494667e+24 -2.3590455e+23 6.2411244e+23)
(-7.3316595e+24 -1.1282583e+24 -1.1066249e+24)
(-7.5241929e+24 -1.080082e+24 -1.106234e+24)
(-6.49633e+24 -6.1366653e+23 -1.2178104e+24)
(-6.1366015e+24 -4.568742e+23 -1.6314544e+23)
(-6.0996429e+24 -3.8449583e+23 -2.9240096e+23)
(-6.5040793e+24 -6.0290106e+23 -1.2502387e+24)
(-4.6527836e+24 -2.7790045e+23 -1.090519e+24)
(-3.9340248e+24 -5.4202637e+23 -6.8592817e+23)
(-4.5161283e+24 -2.8927821e+23 -1.147697e+24)
(-3.8055169e+24 -3.2417773e+23 -7.3868081e+23)
(-4.4901287e+24 -2.8381536e+23 -1.1105993e+24)
(-4.6360195e+24 -3.0709619e+23 -1.0411557e+24)
(-3.9174328e+24 -5.9990217e+23 -6.670942e+23)
(-3.760742e+24 -3.4102846e+23 -7.0115602e+23)
(-3.5331319e+24 -8.9605107e+23 -8.4002826e+23)
(-3.3595289e+24 -5.6129593e+23 -8.0424877e+23)
(-3.0778889e+24 -1.1791619e+24 5.2457126e+23)
(-2.942584e+24 -6.2561786e+23 5.3061686e+23)
(-3.4793102e+24 -9.8125711e+23 -8.1711996e+23)
(-3.3364683e+24 -6.3860228e+23 -7.7363578e+23)
(-2.9743225e+24 -1.2675564e+24 4.4729435e+23)
(-2.9272772e+24 -7.4322424e+23 5.3801959e+23)
(-6.3686471e+24 -7.1387133e+23 -1.2008538e+24)
(-6.0197422e+24 -5.0449796e+23 -1.5562772e+23)
(-5.9824821e+24 -4.3042784e+23 -2.9313455e+23)
(-6.412866e+24 -6.9502792e+23 -1.2229498e+24)
(-4.4128594e+24 -3.118026e+23 -1.0905175e+24)
(-4.5657282e+24 -3.2976519e+23 -1.0195347e+24)
(-3.8791587e+24 -6.5546498e+23 -6.7311518e+23)
(-3.7132195e+24 -4.3062871e+23 -7.191697e+23)
(-4.4525794e+24 -3.1090239e+23 -1.1184062e+24)
(-4.5985989e+24 -3.1579232e+23 -1.052162e+24)
(-3.7602104e+24 -3.9573948e+23 -7.2804606e+23)
(-3.9107828e+24 -6.1893166e+23 -6.771283e+23)
(-3.4138413e+24 -1.1077026e+24 -8.1499523e+23)
(-3.2573961e+24 -8.3346573e+23 -7.6002706e+23)
(-2.8745227e+24 -1.4180215e+24 3.7654719e+23)
(-2.8145133e+24 -9.9564599e+23 4.6915303e+23)
(-3.5234166e+24 -1.0717901e+24 -8.3542166e+23)
(-3.32622e+24 -7.3533014e+23 -7.8855442e+23)
(-3.0807505e+24 -1.4036997e+24 5.0038855e+23)
(-2.8999204e+24 -8.528571e+23 5.2915163e+23)
(-4.6064933e+24 -2.0018278e+23 9.0128756e+23)
(-4.0939433e+24 -5.0671618e+23 7.0912735e+23)
(-3.9645858e+24 -3.2858856e+23 7.3897736e+23)
(-4.5416608e+24 -1.9242789e+23 9.4288418e+23)
(-4.1000602e+24 -4.512671e+23 7.2388527e+23)
(-4.0224251e+24 -2.830915e+23 7.753095e+23)
(-4.5442526e+24 -1.906099e+23 9.8566819e+23)
(-4.6115826e+24 -1.771722e+23 9.2006128e+23)
(-4.0212338e+24 -5.2412496e+23 6.8298207e+23)
(-3.9243415e+24 -3.8229532e+23 7.2698141e+23)
(-4.5903906e+24 -2.1733059e+23 9.1168064e+23)
(-4.5445347e+24 -2.3278213e+23 9.5926284e+23)
(-4.082592e+24 -5.2640184e+23 7.0873773e+23)
(-3.9810589e+24 -3.5489336e+23 7.6902581e+23)
(-4.6253114e+24 -2.2140958e+23 9.1215685e+23)
(-4.5379707e+24 -2.2363438e+23 9.6056696e+23)
(-4.1401291e+24 -4.2642398e+23 7.2932148e+23)
(-4.0829671e+24 -2.4154641e+23 7.7679353e+23)
(-4.6963364e+24 -1.8397509e+23 9.4425495e+23)
(-4.6251799e+24 -1.8858003e+23 9.8703166e+23)
(-4.1046022e+24 -4.447964e+23 7.1586218e+23)
(-4.0226311e+24 -2.8617463e+23 7.4098966e+23)
(-4.652231e+24 -1.7203048e+23 9.2879127e+23)
(-4.6065188e+24 -1.8857284e+23 9.6745453e+23)
(-4.2018686e+24 -3.7478745e+23 7.5108352e+23)
(-4.7264765e+24 -1.7637897e+23 9.9899994e+23)
(-4.6720898e+24 -1.9952937e+23 1.0436768e+24)
(-4.1319241e+24 -2.2295504e+23 7.9226046e+23)
(-4.1672922e+24 -4.09456e+23 7.3604164e+23)
(-4.0809201e+24 -2.2577686e+23 7.469296e+23)
(-4.7044449e+24 -1.7709534e+23 9.74632e+23)
(-4.6428093e+24 -1.7583018e+23 9.8645047e+23)
(-5.3534838e+24 -1.0587325e+23 -3.517283e+23)
(-5.3644862e+24 -1.9933957e+23 -4.0072778e+23)
(-5.4213151e+24 -2.1040348e+23 7.0678947e+22)
(-5.4259215e+24 -7.2981815e+22 2.4498545e+22)
(-4.3984352e+24 -1.0411509e+23 -2.5177629e+23)
(-4.5025209e+24 -5.4066845e+22 -1.0524968e+22)
(-5.5103604e+24 -1.9957671e+23 2.5449645e+22)
(-5.5128318e+24 -6.716415e+22 -1.4161196e+22)
(-5.3673588e+24 -1.499654e+23 -4.6713429e+23)
(-5.380755e+24 -7.7207864e+22 -4.3151591e+23)
(-6.2430837e+24 -2.4938072e+23 4.4849106e+21)
(-4.4686339e+24 -1.0043604e+23 -2.1898729e+23)
(-4.5233473e+24 -4.8356952e+22 -3.3589274e+22)
(-4.4617473e+24 -5.2339068e+22 -1.9877839e+23)
(-4.5388216e+24 -1.2072309e+23 -1.7145108e+22)
(-4.6904361e+24 -4.4449631e+22 -1.2318761e+22)
(-4.6762868e+24 -1.2190949e+23 -3.7413768e+21)
(-4.6341551e+24 -8.8066491e+22 -3.3398691e+23)
(-5.5506073e+24 -6.3802333e+22 -1.2369754e+23)
(-4.6197934e+24 -6.1861526e+22 -3.4714764e+23)
(-5.410253e+24 -4.5842866e+22 -5.7038126e+23)
(-5.4672668e+24 -1.5862153e+23 -5.5642739e+23)
(-5.3490266e+24 -7.3652915e+22 -3.5915968e+23)
(-5.3203184e+24 -1.6512428e+23 -4.1890422e+23)
(-5.3911441e+24 -5.367511e+22 3.1376442e+22)
(-5.4418836e+24 -1.9645942e+23 7.005536e+22)
(-5.5276969e+24 -1.7310349e+23 2.3448343e+22)
(-5.3486275e+24 -5.6594735e+22 -4.4241915e+23)
(-5.350026e+24 -1.31954e+23 -4.4495142e+23)
(-5.5049375e+24 -3.3258163e+22 7.8855204e+21)
(-6.3104159e+24 -1.5061646e+21 -9.8337905e+21)
(-6.0264267e+24 -1.3922599e+23 -7.7568188e+23)
(-5.9353467e+24 -1.81241e+22 -7.5153667e+23)
(-5.4844848e+24 -8.0379772e+22 -5.3988404e+23)
(-5.4255638e+24 -3.8086095e+21 -6.6699768e+23)
(-5.7486021e+24 2.7783124e+21 -5.0967914e+22)
(-5.671565e+24 -1.3950527e+23 -1.0445836e+23)
(-5.6097906e+24 -1.0639702e+23 7.404471e+23)
(-5.4954203e+24 -1.7487986e+23 3.8030959e+22)
(-5.5040123e+24 -2.569416e+23 1.4616756e+22)
(-5.5959025e+24 -3.3904621e+23 7.7719539e+23)
(-5.418676e+24 -9.1709364e+22 2.4322199e+23)
(-5.2112796e+24 -8.4570206e+22 -3.0609815e+23)
(-5.2275229e+24 -1.8309116e+23 -3.593793e+23)
(-5.4315688e+24 -2.3506364e+23 2.9813863e+23)
(-5.4742512e+24 -9.4463116e+22 2.9410528e+23)
(-5.2572568e+24 -1.4797344e+23 -2.239485e+23)
(-5.2458225e+24 -2.0806226e+23 -2.95607e+23)
(-5.5396998e+24 -2.740352e+23 3.5810706e+23)
(-5.4823859e+24 -2.5616078e+23 -1.2918497e+22)
(-5.4692889e+24 -1.6334544e+23 9.7147949e+21)
(-5.5345343e+24 -2.9623191e+23 7.3559368e+23)
(-5.5392189e+24 -8.4938621e+22 6.7926924e+23)
(-7.3176251e+24 -3.4255699e+23 1.2638387e+24)
(-7.0510627e+24 -1.4311235e+23 1.1877092e+24)
(-4.823136e+24 -1.7250875e+23 -1.203133e+24)
(-4.941124e+24 -4.8911954e+23 -1.2058765e+24)
(-5.8672905e+24 6.5930443e+21 -7.7110097e+23)
(-6.0258784e+24 -1.3455949e+23 -7.9924607e+23)
(-6.2652268e+24 -2.0895517e+22 -7.1314828e+22)
(-6.2042287e+24 -2.5481018e+23 -2.7585967e+22)
(-6.2768725e+24 1.1598581e+23 2.7632831e+23)
(-5.3286162e+24 -4.0100932e+21 -1.137456e+23)
(-5.3447904e+24 1.5038253e+23 -5.0402489e+22)
(-6.324838e+24 -1.5521052e+23 3.4692475e+23)
(-6.2953418e+24 1.3622722e+23 3.4720528e+23)
(-5.3664003e+24 5.7075342e+22 -7.2569464e+22)
(-5.3667296e+24 1.2974456e+23 -3.963471e+20)
(-6.3447252e+24 -2.0080277e+23 4.0824658e+23)
(-5.2003977e+24 -2.0345888e+23 -3.7275955e+23)
(-5.3312227e+24 -1.0141784e+23 4.3021936e+22)
(-5.314908e+24 -2.180661e+23 7.9853057e+22)
(-5.1795546e+24 -7.6938721e+22 -3.913095e+23)
(-5.3392282e+24 -7.2611573e+22 -4.1632499e+22)
(-5.2534088e+24 -6.1163866e+22 -4.8324543e+23)
(-5.2514907e+24 -1.4865842e+23 -5.165202e+23)
(-5.3755221e+24 -1.8310737e+23 2.3566631e+21)
(-5.2587923e+24 -1.4191092e+23 -5.6206295e+23)
(-5.3512163e+24 -1.4265621e+23 -3.5278564e+22)
(-5.3458011e+24 -5.2726444e+22 -7.1599364e+22)
(-5.223071e+24 -2.8629153e+22 -5.3915137e+23)
(-5.1966088e+24 -1.6894131e+23 -4.686145e+23)
(-5.1942265e+24 -6.2481324e+22 -3.663017e+23)
(-5.2621766e+24 -5.0556287e+22 -5.9646972e+22)
(-5.2843496e+24 -1.5203052e+23 1.4476021e+21)
(-5.5407703e+24 -2.4162631e+23 3.3483714e+23)
(-5.333196e+24 -1.6585077e+23 -2.835934e+23)
(-5.5095556e+24 -5.6725936e+22 2.9530192e+23)
(-5.3662525e+24 -1.1481887e+23 -2.4566949e+23)
(-5.3808917e+24 -1.9397811e+23 -2.8990538e+23)
(-5.5314162e+24 -8.3445728e+22 2.9404139e+23)
(-5.5354054e+24 -2.6967748e+23 3.4942678e+23)
(-5.3688668e+24 -1.3152891e+23 -2.3641422e+23)
(-5.575616e+24 -2.2388502e+23 3.9641948e+21)
(-5.5995526e+24 -7.2229167e+22 7.3402666e+23)
(-5.5975109e+24 -1.6641731e+23 6.3773702e+22)
(-5.6246771e+24 -3.2096246e+23 7.8210287e+23)
(-5.6333931e+24 -1.8493109e+23 8.0994222e+22)
(-5.6066476e+24 -2.4046509e+23 1.5874842e+21)
(-5.6130129e+24 -6.409513e+22 7.3882139e+23)
(-5.6083462e+24 -3.1079619e+23 8.0025059e+23)
(-6.0181494e+24 7.3511742e+22 9.711521e+23)
(-3.9993165e+24 -8.4391713e+22 -6.4287035e+23)
(-5.7618406e+24 6.1603509e+22 -1.6268541e+23)
(-5.3787689e+24 -6.951564e+21 -6.475111e+23)
(-5.3599154e+24 9.1456003e+22 -6.4276874e+23)
(-5.7552803e+24 -7.0485613e+22 -1.6728433e+23)
(-4.950664e+24 1.0441195e+23 -1.6015637e+23)
(-5.7535864e+24 2.1196609e+23 1.4460299e+23)
(-4.9913312e+24 1.8806488e+23 -1.3672558e+23)
(-5.8032054e+24 2.4754992e+21 1.6742169e+23)
(-4.6054744e+24 -1.8095786e+23 5.5590472e+23)
(-4.6152446e+24 -1.9764183e+23 5.9131909e+23)
(-4.597499e+24 -1.7807247e+23 6.1406859e+23)
(-4.6246884e+24 -1.6464014e+23 5.5705088e+23)
(-4.6266548e+24 -1.9647838e+23 5.5378517e+23)
(-4.6078539e+24 -2.1491599e+23 6.1102096e+23)
(-4.5670212e+24 -1.8808427e+23 5.6471452e+23)
(-4.5991582e+24 -2.2699303e+23 6.0728357e+23)
(-4.7055776e+24 -1.7933318e+23 6.2139326e+23)
(-4.6994263e+24 -1.5304529e+23 5.9482413e+23)
(-4.7365171e+24 -1.5343664e+23 6.0611287e+23)
(-4.7207892e+24 -1.844479e+23 6.5998174e+23)
(-4.6860745e+24 -1.8263255e+23 6.2540956e+23)
(-4.7033847e+24 -1.6177847e+23 5.6934256e+23)
(-4.6790514e+24 -1.8795775e+23 6.1559628e+23)
(-4.6557062e+24 -1.4634146e+23 5.846053e+23)
(-7.4842023e+24 -8.6849501e+23 -6.3918544e+23)
(-7.6151153e+24 -8.299571e+23 -6.1306003e+23)
(-6.5957921e+24 -4.7047153e+23 -8.7939229e+23)
(-4.8785349e+24 -2.7857741e+23 -6.071327e+23)
(-4.8766313e+24 -3.0108742e+23 -5.1566694e+23)
(-6.1128811e+24 -1.5699568e+23 -6.6434313e+23)
(-6.1031594e+24 -4.5324599e+23 -7.644556e+23)
(-6.6272399e+24 -4.6978308e+23 -9.1048451e+23)
(-4.9157542e+24 -2.6983401e+23 -6.3841107e+23)
(-4.91182e+24 -2.7535942e+23 -5.4286121e+23)
(-5.1294807e+24 -4.6358154e+23 -1.4105936e+24)
(-5.0958685e+24 -4.6001799e+23 -1.4201533e+24)
(-5.0690773e+24 -5.3455973e+23 -1.3889106e+24)
(-5.0751874e+24 -5.0561898e+23 -1.4050597e+24)
(-2.5432905e+24 -1.9150069e+23 -9.1983013e+23)
(-2.4703865e+24 -2.0888551e+23 -9.6395666e+23)
(-2.5039194e+24 -3.3549219e+23 -6.6414571e+23)
(-2.5863462e+24 -5.3779952e+23 -6.5529314e+23)
(-2.4877169e+24 -2.211456e+23 -9.8925212e+23)
(-2.5453406e+24 -1.8688263e+23 -9.354837e+23)
(-2.6016117e+24 -5.0824791e+23 -6.4387596e+23)
(-2.5016778e+24 -3.3227364e+23 -6.9006619e+23)
(-2.7228423e+24 -6.3301063e+23 6.8004965e+23)
(-2.6728559e+24 -3.1620095e+23 7.1410777e+23)
(-1.9769829e+24 -7.041226e+23 -1.1120745e+23)
(-1.9787436e+24 -5.240632e+23 3.5320459e+22)
(-2.0230477e+24 -6.6775492e+23 -5.643434e+22)
(-2.7781054e+24 -5.8972281e+23 7.254793e+23)
(-1.9553402e+24 -4.9017508e+23 -5.102584e+21)
(-2.6775353e+24 -2.7514001e+23 7.2190361e+23)
(-2.5387875e+24 -2.1125142e+23 -8.9987216e+23)
(-2.4682504e+24 -2.2939917e+23 -9.5146211e+23)
(-2.4694038e+24 -4.0361485e+23 -6.6420881e+23)
(-2.5571292e+24 -5.9395513e+23 -6.5026884e+23)
(-2.5142044e+24 -1.9838022e+23 -9.1253826e+23)
(-2.4404494e+24 -2.2048979e+23 -9.7100837e+23)
(-2.6075459e+24 -5.6866173e+23 -6.306082e+23)
(-2.483532e+24 -3.7569941e+23 -6.692454e+23)
(-2.659649e+24 -6.977001e+23 6.477973e+23)
(-2.6119568e+24 -4.0676657e+23 6.849277e+23)
(-1.9186258e+24 -7.6860047e+23 -1.3530177e+23)
(-1.9136683e+24 -6.1818646e+23 1.858644e+22)
(-2.7700135e+24 -6.8066783e+23 7.191483e+23)
(-2.6735939e+24 -3.3040653e+23 7.361642e+23)
(-2.0296032e+24 -7.5053393e+23 -6.7924416e+22)
(-1.9446827e+24 -5.588123e+23 2.8180666e+22)
(-6.4640765e+24 -5.6984138e+23 -8.7103329e+23)
(-4.7970883e+24 -3.545131e+23 -5.292077e+23)
(-4.8052066e+24 -3.3749744e+23 -6.3013422e+23)
(-5.9521538e+24 -1.8783965e+23 -6.5523542e+23)
(-5.9480881e+24 -4.5604034e+23 -7.615879e+23)
(-6.5056978e+24 -5.3300232e+23 -8.8778059e+23)
(-4.8419623e+24 -3.3101345e+23 -5.3056094e+23)
(-4.8139649e+24 -3.0920227e+23 -6.2828622e+23)
(-4.9706459e+24 -6.9949755e+23 -1.3685948e+24)
(-4.9771955e+24 -6.6296517e+23 -1.3806037e+24)
(-5.0263525e+24 -5.7815644e+23 -1.4056667e+24)
(-5.0327204e+24 -6.1690214e+23 -1.3940897e+24)
(-2.5412541e+24 -2.2174857e+23 -8.8604816e+23)
(-2.4569427e+24 -2.4167073e+23 -9.4528053e+23)
(-2.4209926e+24 -5.2990966e+23 -6.6096514e+23)
(-2.5378261e+24 -6.9110789e+23 -6.4656731e+23)
(-2.5355575e+24 -2.1876602e+23 -9.0131002e+23)
(-2.4424824e+24 -2.3740456e+23 -9.699615e+23)
(-2.5910111e+24 -6.8357664e+23 -6.2907255e+23)
(-2.4426903e+24 -5.1283798e+23 -6.717691e+23)
(-1.8342437e+24 -8.8624878e+23 -1.854426e+23)
(-2.5684573e+24 -7.9942703e+23 6.157715e+23)
(-2.4959496e+24 -5.4872763e+23 6.5727381e+23)
(-1.8030257e+24 -7.7831627e+23 -1.0107207e+22)
(-2.6997922e+24 -8.2233791e+23 6.9193977e+23)
(-2.5960699e+24 -4.949607e+23 7.0486042e+23)
(-1.9536436e+24 -8.9059734e+23 -1.2285824e+23)
(-1.847474e+24 -7.3948232e+23 -2.3722301e+21)
(-2.5373646e+24 -2.0938895e+23 -8.9869332e+23)
(-2.4526091e+24 -2.2080862e+23 -9.5476652e+23)
(-2.578369e+24 -6.5501097e+23 -6.4703741e+23)
(-2.4553977e+24 -4.6224963e+23 -6.6184137e+23)
(-2.5474191e+24 -1.9853425e+23 -9.1965346e+23)
(-2.4702636e+24 -2.2788791e+23 -9.7977165e+23)
(-2.6118904e+24 -6.1369825e+23 -6.3678829e+23)
(-2.4663791e+24 -4.3375288e+23 -6.805992e+23)
(-1.91648e+24 -8.4562779e+23 -1.5144386e+23)
(-2.6620858e+24 -7.7483584e+23 6.5368498e+23)
(-2.5953078e+24 -4.7126838e+23 6.9448695e+23)
(-1.8679353e+24 -6.9181749e+23 9.7425009e+21)
(-2.7566022e+24 -7.2650755e+23 7.2586474e+23)
(-2.6303715e+24 -3.9312644e+23 7.3205486e+23)
(-1.9880083e+24 -7.9899256e+23 -1.0346376e+23)
(-1.8823613e+24 -6.2924286e+23 -1.0274905e+22)
(-3.1601963e+24 -2.0477555e+23 8.128142e+23)
(-3.1721621e+24 -3.4583518e+23 7.8942867e+23)
(-4.0469311e+24 -1.6286773e+23 8.3002053e+23)
(-4.0325158e+24 -1.5642344e+23 8.5357935e+23)
(-3.1581529e+24 -1.6850052e+23 8.4187775e+23)
(-3.1862771e+24 -3.3422414e+23 7.9229654e+23)
(-4.0712762e+24 -1.4665743e+23 8.0858726e+23)
(-4.0179114e+24 -1.3349969e+23 8.2347289e+23)
(-3.1808376e+24 -1.6229918e+23 8.2109938e+23)
(-3.1882853e+24 -3.1736284e+23 7.9971817e+23)
(-4.0713516e+24 -1.4254001e+23 8.3796244e+23)
(-4.0376052e+24 -1.255207e+23 8.3481778e+23)
(-3.2453861e+24 -1.4903462e+23 8.5125684e+23)
(-3.2689481e+24 -2.9203114e+23 8.0765294e+23)
(-4.118875e+24 -1.3340565e+23 8.6582661e+23)
(-4.0181444e+24 -1.263497e+23 8.6286408e+23)
(-3.105804e+24 -2.2797095e+23 7.951105e+23)
(-3.1356975e+24 -3.5082427e+23 7.6763335e+23)
(-3.9904687e+24 -1.6904484e+23 8.0509427e+23)
(-3.9834313e+24 -1.7514146e+23 8.4806821e+23)
(-3.1293371e+24 -2.131958e+23 8.2907491e+23)
(-3.1504152e+24 -3.6220309e+23 7.7473512e+23)
(-4.0368898e+24 -1.7861075e+23 8.0757557e+23)
(-3.9879487e+24 -1.6982598e+23 8.2822154e+23)
(-3.1551887e+24 -2.0896495e+23 8.1632244e+23)
(-3.1526996e+24 -3.5835948e+23 7.8249249e+23)
(-4.0472196e+24 -1.7127137e+23 8.0231173e+23)
(-4.0345258e+24 -1.6374091e+23 8.5141998e+23)
(-3.1494701e+24 -1.8766163e+23 8.4325421e+23)
(-3.1838612e+24 -3.3471708e+23 7.9755993e+23)
(-4.0544616e+24 -1.5571984e+23 8.2188607e+23)
(-3.9943086e+24 -1.5392554e+23 8.3470785e+23)
(-3.2391567e+24 -1.5034812e+23 8.4112663e+23)
(-3.2315847e+24 -3.1355739e+23 8.1691725e+23)
(-4.1331101e+24 -1.433462e+23 8.2546221e+23)
(-4.1124238e+24 -1.2605828e+23 8.4966902e+23)
(-3.227297e+24 -1.2234263e+23 8.6889183e+23)
(-3.2496447e+24 -2.8254826e+23 8.3198332e+23)
(-4.1426493e+24 -1.3032738e+23 8.7631319e+23)
(-4.0888959e+24 -1.2440207e+23 8.6314192e+23)
(-3.2051404e+24 -1.7684807e+23 8.1691755e+23)
(-3.1822378e+24 -3.1139123e+23 7.9260831e+23)
(-4.0844487e+24 -1.2944147e+23 8.2270158e+23)
(-4.0889704e+24 -1.3993329e+23 8.7113642e+23)
(-3.2060192e+24 -1.5327298e+23 8.5368354e+23)
(-3.2178952e+24 -3.1277297e+23 8.0147505e+23)
(-4.1277315e+24 -1.4539055e+23 8.2706355e+23)
(-4.0844768e+24 -1.3589663e+23 8.4533088e+23)
(-3.3211909e+24 -1.2339147e+23 8.4401104e+23)
(-3.3446088e+24 -2.6971506e+23 8.2887953e+23)
(-4.2205517e+24 -1.2600391e+23 8.7842027e+23)
(-4.2006989e+24 -1.1889294e+23 8.9926702e+23)
(-3.2717721e+24 -1.2289735e+23 8.7010107e+23)
(-3.3570282e+24 -2.6894827e+23 8.3661739e+23)
(-4.1740535e+24 -1.3195161e+23 8.8860037e+23)
(-4.1460911e+24 -1.3635933e+23 9.0796937e+23)
(-3.2957262e+24 -1.4734393e+23 8.3057794e+23)
(-3.308664e+24 -2.8772475e+23 8.1351347e+23)
(-4.1869586e+24 -1.3260199e+23 8.7048438e+23)
(-4.1358183e+24 -1.2653224e+23 8.7240524e+23)
(-3.2448847e+24 -1.1273948e+23 8.6496522e+23)
(-3.2558113e+24 -2.9157241e+23 8.1938728e+23)
(-4.1641473e+24 -1.3361212e+23 8.6729867e+23)
(-4.1165571e+24 -1.1704557e+23 8.5830685e+23)
(-8.0597841e+24 -2.8318241e+23 -1.1832834e+24)
(-4.3765443e+24 -9.8413619e+22 -2.6161199e+23)
(-4.3697301e+24 -4.6490445e+22 -2.3603207e+23)
(-4.4723549e+24 -5.1877626e+22 -2.1235996e+22)
(-4.4748028e+24 -1.1675485e+23 7.3875802e+21)
(-4.3517589e+24 -9.019532e+22 -2.6695433e+23)
(-4.4579711e+24 -4.0573741e+22 -2.600518e+22)
(-4.3543963e+24 -4.7662302e+22 -2.4916708e+23)
(-4.466244e+24 -1.1465916e+23 -4.2097035e+21)
(-4.3740209e+24 -1.1987355e+23 -2.6854233e+23)
(-4.4330996e+24 -4.4092452e+22 -2.5684749e+22)
(-4.3679953e+24 -5.5535701e+22 -2.4005115e+23)
(-4.4286825e+24 -1.1335184e+23 1.1076875e+21)
(-4.3458415e+24 -1.0817826e+23 -2.7527476e+23)
(-4.4134453e+24 -4.4337181e+22 -2.9487453e+22)
(-4.3460329e+24 -5.1686763e+22 -2.508826e+23)
(-4.4226786e+24 -1.2460068e+23 -6.3211739e+21)
(-3.6975723e+24 -6.0186188e+22 -2.146935e+23)
(-3.7489638e+24 -6.619672e+22 -5.3489525e+22)
(-3.6477008e+24 -3.609245e+22 -2.0946406e+23)
(-3.7355414e+24 -1.3299889e+22 -7.2985932e+22)
(-3.6593628e+24 -2.7596954e+22 -1.9405101e+23)
(-3.6682223e+24 -5.1349452e+22 -2.1480225e+23)
(-3.7439531e+24 -2.2653595e+22 -7.3593454e+22)
(-3.6850275e+24 -2.9653317e+22 -1.9375172e+23)
(-3.6659936e+24 -4.6592193e+22 -2.119793e+23)
(-3.7533525e+24 -2.5893171e+22 -7.4310236e+22)
(-4.4386347e+24 -9.9313495e+22 -2.3008806e+23)
(-4.4918126e+24 -3.6234505e+22 -5.0771873e+22)
(-4.4405729e+24 -4.3139142e+22 -2.0719157e+23)
(-4.4971045e+24 -9.6261035e+22 -2.790319e+22)
(-4.4253051e+24 -8.4628368e+22 -2.3668365e+23)
(-4.4836312e+24 -3.5654774e+22 -5.5284399e+22)
(-4.422639e+24 -3.3326996e+22 -2.2321687e+23)
(-4.4922202e+24 -1.0320621e+23 -3.9548137e+22)
(-4.6514013e+24 -2.9320654e+22 -3.6049812e+22)
(-4.6574114e+24 -1.0263609e+23 -2.1122103e+22)
(-4.6008119e+24 -7.0039346e+22 -3.5705528e+23)
(-4.5814855e+24 -3.9513402e+22 -3.4437231e+23)
(-5.4886512e+24 -2.6949674e+22 -1.2918153e+23)
(-4.6543399e+24 -3.8738693e+22 -2.8607694e+22)
(-4.6624722e+24 -1.0955711e+23 -1.0146041e+22)
(-4.6135751e+24 -4.7658628e+22 -3.3542491e+23)
(-4.6023835e+24 -8.1654658e+22 -3.454565e+23)
(-5.5613543e+24 -1.4887523e+23 -5.8146316e+22)
(-5.3766106e+24 -1.3762864e+23 -6.031616e+23)
(-5.3856238e+24 -3.4193931e+22 -4.4126697e+23)
(-3.6717392e+24 -4.328145e+22 -4.7612118e+22)
(-3.507446e+24 -1.2147184e+22 -1.8978289e+23)
(-3.6674904e+24 9.7482964e+21 -6.3299343e+22)
(-3.5030788e+24 -2.1743286e+21 -1.7490006e+23)
(-3.5942991e+24 -2.6842693e+22 -2.0871235e+23)
(-3.6984607e+24 -2.3568163e+21 -7.8226567e+22)
(-3.7085302e+24 -5.9049734e+22 -6.3036703e+22)
(-3.6046373e+24 -1.0907924e+22 -1.9080854e+23)
(-3.6995322e+24 -5.1494671e+22 -4.991802e+22)
(-3.5349163e+24 -2.0797382e+22 -1.8520039e+23)
(-3.7004426e+24 1.6084002e+21 -6.6565536e+22)
(-3.5283763e+24 -6.7599297e+20 -1.7059665e+23)
(-3.613633e+24 -3.5649391e+22 -2.1237518e+23)
(-3.7173044e+24 -8.0638704e+21 -8.0737986e+22)
(-3.622012e+24 -2.3324286e+22 -1.9375254e+23)
(-3.7172184e+24 -6.4830067e+22 -6.7259844e+22)
(-3.2633271e+24 2.5677078e+22 -2.3451822e+23)
(-3.2757896e+24 -2.5520485e+22 -2.2138135e+23)
(-3.5844224e+24 1.2229128e+22 -3.3561843e+22)
(-3.5864027e+24 -3.3224493e+22 -1.76154e+22)
(-3.5729153e+24 4.1312589e+21 -3.5086103e+22)
(-3.5745359e+24 -2.6705914e+22 -2.0402988e+22)
(-3.2287695e+24 1.16495e+22 -2.602719e+23)
(-3.242035e+24 -3.7312174e+22 -2.4901148e+23)
(-3.8174356e+24 -6.2957218e+22 -1.0724082e+23)
(-4.7113738e+24 -4.7482681e+22 -1.5126924e+23)
(-4.6510485e+24 -6.5798432e+22 -3.657172e+23)
(-4.6565418e+24 -1.0645469e+23 -3.8258484e+23)
(-4.7108304e+24 -1.2223566e+23 -1.3641795e+23)
(-3.806965e+24 -7.6614871e+22 -1.4065188e+23)
(-4.6847861e+24 -5.5651939e+22 -4.4110289e+23)
(-4.7146212e+24 -1.0398495e+23 -4.2594483e+23)
(-4.8056644e+24 -4.4564326e+22 -1.624708e+23)
(-4.7784215e+24 -1.1093897e+23 -1.8860402e+23)
(-4.7234267e+24 -7.2781311e+22 -3.9312441e+23)
(-4.7266847e+24 -9.6896718e+22 -4.0097329e+23)
(-4.8133855e+24 -4.7941833e+22 -1.7013175e+23)
(-4.8106419e+24 -1.2815851e+23 -1.6015856e+23)
(-4.3654429e+24 -7.7215729e+22 -2.7226264e+23)
(-4.3459778e+24 -2.8209083e+22 -2.566802e+23)
(-4.4701998e+24 -2.9218938e+22 -3.2703422e+22)
(-4.4613113e+24 -9.7859879e+22 -1.2256526e+22)
(-4.3280823e+24 -7.2060544e+22 -2.6521025e+23)
(-4.4382816e+24 -1.7059618e+22 -2.5566828e+22)
(-4.3424528e+24 -2.8908482e+22 -2.4851924e+23)
(-4.4496187e+24 -9.2129056e+22 -7.6733417e+21)
(-4.3259679e+24 -8.5609688e+22 -2.7129191e+23)
(-4.4027701e+24 -2.2429179e+22 -2.7885417e+22)
(-4.3315655e+24 -3.3045074e+22 -2.5090653e+23)
(-4.4143798e+24 -1.0729771e+23 -1.0215498e+22)
(-4.3529427e+24 -1.010482e+23 -2.7871401e+23)
(-4.425963e+24 -2.9354657e+22 -3.7998706e+22)
(-4.3401875e+24 -3.8149876e+22 -2.5700452e+23)
(-4.4170951e+24 -1.0227299e+23 -1.620738e+22)
(-4.4307822e+24 -8.4524345e+22 -2.4507259e+23)
(-4.4978013e+24 -1.5893478e+22 -6.3366049e+22)
(-4.4182529e+24 -2.1327848e+22 -2.3330561e+23)
(-4.4884404e+24 -7.587568e+22 -5.0762232e+22)
(-4.6553581e+24 -2.2661693e+22 -4.7408924e+22)
(-4.6505569e+24 -8.4501653e+22 -3.2529603e+22)
(-4.5670606e+24 -1.5558479e+22 -3.5708658e+23)
(-4.6006218e+24 -6.4000462e+22 -3.6701909e+23)
(-5.538134e+24 -1.4114226e+23 -1.0121985e+23)
(-4.6462134e+24 5.5271069e+21 -1.5248989e+22)
(-4.6548119e+24 -8.2444307e+22 -4.3248845e+21)
(-4.5680393e+24 -1.9336633e+22 -3.3104745e+23)
(-4.5787257e+24 -4.580775e+22 -3.4761001e+23)
(-5.5185356e+24 -3.4102204e+22 -1.099416e+23)
(-4.4077442e+24 -5.1890826e+22 -2.2209918e+23)
(-4.4532419e+24 -7.9517497e+21 -6.2050505e+22)
(-4.4166841e+24 -1.6987469e+22 -2.1046505e+23)
(-4.4705728e+24 -8.226476e+22 -4.8094814e+22)
(-5.3818998e+24 -1.3742557e+23 -5.6702775e+23)
(-5.3778956e+24 -1.3328897e+22 -5.7341018e+23)
(-5.3952761e+24 1.6077288e+22 -6.4893377e+23)
(-5.3940289e+24 -8.695181e+22 -6.4057313e+23)
(-5.6406036e+24 -6.0286717e+21 -9.3621928e+22)
(-5.6722951e+24 -1.2658544e+23 -9.193065e+22)
(-5.4007231e+24 -7.6024889e+22 -6.5691675e+23)
(-5.5944255e+24 -3.2515918e+21 -1.5792483e+23)
(-5.6166568e+24 -1.1486402e+23 -1.1559298e+23)
(-5.3960158e+24 1.7380703e+22 -6.4341734e+23)
(-5.0637643e+24 -7.5440561e+21 -1.7367556e+23)
(-4.9289475e+24 -5.424087e+22 -4.0821213e+23)
(-4.9103608e+24 -4.3555378e+22 -4.0009239e+23)
(-5.0444572e+24 -1.0702106e+23 -1.7530073e+23)
(-4.8764028e+24 -3.4756028e+22 -5.2603459e+23)
(-4.9126413e+24 -1.1158124e+23 -5.3078672e+23)
(-5.0099491e+24 -5.0119054e+22 -2.7982506e+23)
(-4.9807121e+24 -9.3865151e+22 -2.7009961e+23)
(-4.8060751e+24 -5.805917e+22 -3.9970584e+23)
(-4.825363e+24 -7.2223636e+22 -3.5967661e+23)
(-4.906046e+24 -3.8508153e+22 -2.2307816e+23)
(-4.8952463e+24 -1.2734375e+23 -2.3080009e+23)
(-4.8863618e+24 -4.7923561e+22 -2.8269469e+23)
(-4.802524e+24 -1.1716938e+23 -4.7361919e+23)
(-4.7726064e+24 -4.7468896e+22 -4.6264495e+23)
(-4.8624094e+24 -9.9137279e+22 -2.7469294e+23)
(-5.9262244e+24 1.2960221e+22 -7.0918092e+23)
(-6.1637098e+24 -2.2487324e+23 -1.5958407e+22)
(-5.6417849e+24 1.2233065e+23 -2.0301061e+22)
(-6.3257472e+24 -1.7980443e+23 3.4253203e+23)
(-5.2218133e+24 -3.8477621e+22 -4.4641173e+23)
(-5.3258036e+24 -1.8481282e+23 4.7218555e+22)
(-5.1678101e+24 -9.6259143e+22 -3.3480017e+23)
(-4.6568821e+24 -1.7264075e+23 2.1835593e+23)
(-4.6667898e+24 -1.549266e+23 2.4888958e+23)
(-4.7193406e+24 -6.9282068e+22 7.1292484e+23)
(-4.7403564e+24 -2.6218109e+23 7.3824266e+23)
(-4.5429195e+24 -1.4382345e+23 -6.5192532e+22)
(-4.5187084e+24 -1.1139994e+23 -3.1046644e+22)
(-4.6807132e+24 -7.8048914e+22 3.6533842e+23)
(-4.6776659e+24 -2.0855953e+23 4.0383484e+23)
(-4.4962421e+24 -1.458993e+23 -5.2097005e+22)
(-4.6709744e+24 -6.8139858e+22 3.892821e+23)
(-4.5126685e+24 -1.2298106e+23 -2.3942122e+22)
(-4.6872023e+24 -2.081808e+23 4.1783289e+23)
(-4.6906593e+24 -1.791565e+23 2.056783e+23)
(-4.73295e+24 -7.0377603e+22 6.7660545e+23)
(-4.687714e+24 -1.5985093e+23 2.5329514e+23)
(-4.728892e+24 -2.438894e+23 7.186974e+23)
(-4.3730521e+24 -1.4319495e+23 -2.2949782e+23)
(-4.4977801e+24 -7.1599e+22 1.12969e+23)
(-4.368793e+24 -7.8800309e+22 -1.9997495e+23)
(-4.5154436e+24 -1.6767574e+23 1.4372355e+23)
(-4.2919747e+24 -1.022197e+23 -2.7183398e+23)
(-4.2664753e+24 -3.6093465e+22 -2.5084646e+23)
(-4.4189009e+24 -4.6828727e+22 9.8518657e+21)
(-4.4112731e+24 -1.1286025e+23 3.6654935e+22)
(-4.2690528e+24 -1.1619186e+23 -2.7144295e+23)
(-4.4011492e+24 -6.4258691e+22 1.0920682e+22)
(-4.2718185e+24 -6.6060852e+22 -2.4508156e+23)
(-4.4167167e+24 -1.3901157e+23 4.1486652e+22)
(-4.3919056e+24 -1.3062061e+23 -2.3001012e+23)
(-4.5025687e+24 -4.6315744e+22 8.6942313e+22)
(-4.3752645e+24 -5.9477167e+22 -2.0310667e+23)
(-4.4949599e+24 -1.285063e+23 1.1586666e+23)
(-4.3433818e+24 -1.4128765e+23 -2.1434731e+23)