/*--------------------------------*- C++ -*----------------------------------*\
  =========                 |
  \\      /  F ield         | OpenFOAM: The Open Source CFD Toolbox
   \\    /   O peration     | Website:  https://openfoam.org
    \\  /    A nd           | Version:  7
     \\/     M anipulation  |
\*---------------------------------------------------------------------------*/
FoamFile
{
    version     2.0;
    format      ascii;
    class       volVectorField;
    location    "4000";
    object      UMean;
}
// * * * * * * * * * * * * * * * * * * * * * * * * * * * * * * * * * * * * * //

dimensions      [0 1 -1 0 0 0 0];

internalField   nonuniform List<vector> 
33730
(
(-1.2553325e+23 -3.0111045e+22 -3.2578726e+21)
(-1.1686311e+23 -1.4609837e+22 1.5840814e+22)
(-1.1485801e+23 -1.0443224e+22 1.7743272e+22)
(-1.2442843e+23 -2.5383253e+21 9.8466097e+21)
(-1.246541e+23 -3.3415971e+21 1.0460192e+22)
(-1.1309302e+23 -7.5508489e+21 -1.5274698e+22)
(-8.8629784e+22 -1.3795244e+22 -1.7715428e+21)
(-1.1539455e+23 -1.2030069e+22 -1.5582123e+22)
(-9.0747655e+22 -2.0465547e+22 -1.5401412e+21)
(-9.5600808e+22 -6.5190863e+21 1.2931772e+22)
(-9.7111341e+22 -8.4652826e+21 1.254411e+22)
(-1.1671026e+23 -2.4836343e+21 1.4188232e+22)
(-1.1559547e+23 -4.0592471e+21 1.4048712e+22)
(-9.7704617e+22 -6.5096776e+21 1.2969159e+22)
(-1.1631731e+23 -1.600795e+21 1.4764193e+22)
(-1.1541816e+23 -4.4948641e+21 1.5015094e+22)
(-9.6366704e+22 -5.5457132e+21 1.3698279e+22)
(-1.2451682e+23 -8.1637507e+20 -2.7176654e+21)
(-1.2624208e+23 1.2655092e+21 -2.7147329e+21)
(-1.2795096e+23 -1.1839434e+21 4.7062714e+21)
(-1.2374832e+23 -1.8394404e+20 -3.4033748e+21)
(-1.2876499e+23 -2.8059335e+21 5.2727287e+21)
(-1.1578594e+23 2.0395714e+21 -7.2119755e+21)
(-1.1138463e+23 -2.2778943e+21 9.6363463e+21)
(-1.1167644e+23 -7.3639016e+20 9.6980021e+21)
(-1.1211671e+23 -2.667453e+21 1.0652617e+22)
(-1.1199129e+23 -6.9210008e+19 1.0065639e+22)
(-1.0455156e+23 -2.474286e+21 -1.2981388e+22)
(-1.1026539e+23 -4.3642765e+20 -1.2557057e+22)
(-1.0915465e+23 -2.4947804e+21 -1.2321175e+22)
(-1.0373483e+23 -2.444718e+21 -1.3762607e+22)
(-8.4828827e+22 -3.2349921e+21 -1.6344879e+22)
(-8.6452495e+22 -4.7206055e+21 -1.6087986e+22)
(-6.4378312e+22 -8.3029034e+21 -3.0226228e+20)
(-6.5934487e+22 -1.2489037e+22 1.6034813e+20)
(-1.0396961e+23 -3.9328247e+21 -1.2716363e+22)
(-1.0877798e+23 -1.1211167e+21 -1.2149696e+22)
(-1.0793702e+23 -2.2333679e+21 -1.1976224e+22)
(-1.0310868e+23 -2.6131224e+21 -1.3072333e+22)
(-8.721558e+22 -6.8283954e+21 -1.5855119e+22)
(-8.5128762e+22 -4.0748251e+21 -1.585455e+22)
(-6.4008438e+22 -1.473617e+22 -8.8918023e+20)
(-6.3621143e+22 -1.0397134e+22 -7.1199004e+20)
(-8.0720105e+22 -4.4315958e+21 1.0250807e+22)
(-1.0127084e+23 -1.5429531e+21 1.2047155e+22)
(-7.9846581e+22 -3.7858058e+21 1.0679495e+22)
(-1.0047996e+23 -3.1378009e+21 1.2177519e+22)
(-8.0421003e+22 -5.1692174e+21 1.0428785e+22)
(-7.9927466e+22 -4.4855368e+21 1.0561303e+22)
(-1.0112181e+23 -3.0527581e+21 1.2243071e+22)
(-1.0145573e+23 -1.7057003e+21 1.2314022e+22)
(-1.0193781e+23 -2.3747567e+21 1.2349503e+22)
(-8.0605894e+22 -3.1570943e+21 1.0405626e+22)
(-1.0218407e+23 -8.6538293e+20 1.2345201e+22)
(-8.1571213e+22 -3.859461e+21 1.0602756e+22)
(-8.1265268e+22 -3.2876903e+21 1.1258982e+22)
(-8.1573813e+22 -3.2417769e+21 1.043958e+22)
(-1.0178086e+23 -3.3564358e+21 1.3184424e+22)
(-1.0237107e+23 -1.175647e+21 1.2879837e+22)
(-1.1469995e+23 -9.9938257e+20 -1.4611334e+21)
(-1.1157509e+23 -1.2141052e+20 -4.7187569e+21)
(-9.8402605e+22 1.9988706e+20 -3.5659974e+21)
(-9.734922e+22 2.2230291e+20 -4.477122e+21)
(-1.1420339e+23 6.6527111e+20 -5.1894222e+21)
(-1.1454306e+23 2.2878534e+20 -1.7809985e+21)
(-1.1179107e+23 4.8322654e+20 -4.8813288e+21)
(-1.2602385e+23 -7.1200418e+20 -2.4244522e+21)
(-1.1101599e+23 8.1308522e+20 -7.5210733e+21)
(-1.1639896e+23 -5.7432481e+20 6.8818685e+21)
(-1.1150272e+23 -5.976869e+20 -1.9151897e+20)
(-1.116784e+23 -3.3097897e+20 -3.2782073e+19)
(-1.1555108e+23 -1.7906148e+21 6.6033181e+21)
(-1.2402369e+23 1.3268034e+21 -3.0657167e+21)
(-1.1468747e+23 2.3683741e+21 -6.9939325e+21)
(-1.1558697e+23 9.3695251e+20 -7.0114366e+21)
(-1.1296921e+23 2.3870659e+20 -2.3655235e+21)
(-1.1069099e+23 6.8325744e+20 -5.4527214e+21)
(-1.105333e+23 5.4076522e+20 -5.4197531e+21)
(-1.1251983e+23 -2.4720195e+20 -2.6163616e+21)
(-1.1299177e+23 9.6192816e+19 5.1026323e+20)
(-1.1347847e+23 -1.2477004e+21 9.4747707e+20)
(-1.1621586e+23 -5.4908409e+19 6.8206183e+21)
(-1.1616961e+23 -2.111728e+21 7.21149e+21)
(-1.2605916e+23 2.6582416e+21 -4.7594026e+21)
(-1.1476376e+23 1.5004094e+21 -6.627091e+21)
(-1.0408982e+23 2.2091658e+21 -1.0560894e+22)
(-9.6680259e+22 -3.6869387e+20 8.3946101e+21)
(-9.640447e+22 -1.8807915e+21 8.7376949e+21)
(-9.6955538e+22 -2.1827344e+21 8.8031021e+21)
(-9.6709661e+22 -6.3328259e+20 8.8250668e+21)
(-9.7591538e+22 -6.5120487e+19 9.0926852e+21)
(-9.7530588e+22 -2.1427347e+21 9.6168295e+21)
(-9.7577196e+22 -1.6946919e+21 8.8396804e+21)
(-9.7343788e+22 3.9076989e+19 8.765299e+21)
(-1.2747928e+23 -5.9468473e+21 -1.2419013e+22)
(-1.2951339e+23 -5.3443662e+21 -1.2552698e+22)
(-1.1016812e+23 -1.6421401e+21 -1.4624906e+22)
(-1.0877249e+23 9.0348475e+20 -9.2856989e+21)
(-1.0864897e+23 -1.0047783e+21 -9.5439728e+21)
(-1.100924e+23 -1.9252326e+21 -1.5386845e+22)
(-8.9148088e+22 6.181128e+20 -1.5388468e+22)
(-7.4075667e+22 -9.9726219e+20 -1.7324157e+22)
(-8.8414718e+22 -9.8190371e+20 -1.5422092e+22)
(-7.3441644e+22 -1.7331742e+21 -1.7730258e+22)
(-8.8348447e+22 -5.1928962e+20 -1.4749136e+22)
(-8.9038476e+22 3.3448277e+20 -1.4797098e+22)
(-7.402722e+22 -1.6981791e+21 -1.6937642e+22)
(-7.3126059e+22 -1.4404105e+21 -1.703136e+22)
(-5.2384844e+22 -2.7775882e+21 -1.5373192e+22)
(-5.140999e+22 -2.6006703e+21 -1.5454994e+22)
(-4.6795225e+22 -6.7585457e+21 4.0493042e+21)
(-4.5423002e+22 -4.4112595e+21 3.6145684e+21)
(-5.2553408e+22 -3.782958e+21 -1.5067731e+22)
(-5.123743e+22 -2.5522959e+21 -1.4926029e+22)
(-4.6057766e+22 -7.8840241e+21 3.4733905e+21)
(-4.5411998e+22 -5.0030701e+21 3.7379419e+21)
(-1.0919096e+23 -3.0277317e+21 -1.4509154e+22)
(-1.0727755e+23 4.2461271e+20 -8.9843935e+21)
(-1.0732693e+23 -1.1210874e+21 -9.1157075e+21)
(-1.0920694e+23 -2.6229436e+21 -1.4924542e+22)
(-8.773798e+22 -1.186442e+21 -1.4534266e+22)
(-8.8414349e+22 -5.7331633e+20 -1.4629625e+22)
(-7.3608467e+22 -3.0340955e+21 -1.644655e+22)
(-7.2819556e+22 -2.547758e+21 -1.6654435e+22)
(-8.7803106e+22 -1.1870718e+21 -1.491763e+22)
(-8.851692e+22 1.6222915e+20 -1.4997792e+22)
(-7.2817455e+22 -2.2540641e+21 -1.7155898e+22)
(-7.350924e+22 -1.9106988e+21 -1.6847354e+22)
(-5.3054843e+22 -5.8604433e+21 -1.4604987e+22)
(-5.2036022e+22 -4.5437357e+21 -1.445483e+22)
(-4.4684685e+22 -9.8829138e+21 2.7147287e+21)
(-4.4685294e+22 -7.3916801e+21 3.3038095e+21)
(-5.284749e+22 -4.5203722e+21 -1.4954025e+22)
(-5.1478065e+22 -3.6823644e+21 -1.496991e+22)
(-4.6167529e+22 -8.9431966e+21 3.5142266e+21)
(-4.5165501e+22 -6.2324851e+21 3.6824642e+21)
(-8.6675729e+22 -1.2448493e+21 1.0828954e+22)
(-6.9514175e+22 -3.2319645e+21 9.6947455e+21)
(-6.8746112e+22 -2.7563183e+21 9.50928e+21)
(-8.6504012e+22 -2.0398485e+21 1.0800933e+22)
(-6.9276361e+22 -2.5814277e+21 9.5032136e+21)
(-6.8748685e+22 -2.4287244e+21 9.9762627e+21)
(-8.6302589e+22 -2.4009646e+21 1.1363603e+22)
(-8.6673877e+22 -1.2329231e+21 1.1126799e+22)
(-6.8861477e+22 -3.5438966e+21 9.7133411e+21)
(-6.8540874e+22 -3.3716168e+21 9.7465973e+21)
(-8.6231857e+22 -1.4831541e+21 1.1097927e+22)
(-8.6338352e+22 -2.4551346e+21 1.1194916e+22)
(-6.9450495e+22 -3.3901041e+21 9.6404927e+21)
(-6.8827812e+22 -3.0284372e+21 9.9945408e+21)
(-8.6769598e+22 -1.7347178e+21 1.1080976e+22)
(-8.6242463e+22 -2.7589481e+21 1.1201269e+22)
(-6.9998354e+22 -2.3804379e+21 9.5261996e+21)
(-6.9498828e+22 -2.0267388e+21 9.8349771e+21)
(-8.793626e+22 -1.0674813e+21 1.1226286e+22)
(-8.7465627e+22 -2.164892e+21 1.134542e+22)
(-7.0006208e+22 -2.6927364e+21 9.8015565e+21)
(-6.952223e+22 -2.3964294e+21 9.5901091e+21)
(-8.7618981e+22 -7.5543229e+20 1.1276326e+22)
(-8.7614882e+22 -1.759459e+21 1.1243629e+22)
(-7.0464914e+22 -2.1399201e+21 9.9023628e+21)
(-8.8380377e+22 -1.148582e+21 1.191157e+22)
(-8.7876804e+22 -2.4855102e+21 1.2131728e+22)
(-6.9955228e+22 -2.2514948e+21 1.0353571e+22)
(-7.0533472e+22 -2.4035465e+21 1.0024228e+22)
(-6.9828756e+22 -1.9629859e+21 9.6699885e+21)
(-8.8303047e+22 -7.6634695e+20 1.15277e+22)
(-8.7993935e+22 -1.6998578e+21 1.137518e+22)
(-9.5725418e+22 -9.0564258e+19 -3.2915236e+21)
(-9.5758371e+22 9.7584518e+19 -3.6731548e+21)
(-9.7240044e+22 -4.3472584e+20 -1.6979893e+21)
(-9.7451497e+22 1.1133302e+20 -1.9824426e+21)
(-7.961186e+22 -9.7182319e+19 -2.9429422e+21)
(-8.0783584e+22 -1.2866153e+20 -2.4933134e+21)
(-9.7870619e+22 -2.088103e+19 -3.3432107e+21)
(-9.8002397e+22 2.4453467e+20 -3.657074e+21)
(-9.6939043e+22 3.3756645e+20 -4.6251727e+21)
(-9.7024889e+22 3.4375938e+20 -4.2087507e+21)
(-1.1277526e+23 2.1665068e+19 -5.1616615e+21)
(-8.0608389e+22 6.3829756e+19 -3.0469438e+21)
(-8.1526214e+22 5.283984e+19 -2.5461761e+21)
(-8.0712257e+22 2.9304762e+19 -3.0649142e+21)
(-8.1686557e+22 -1.0241867e+20 -2.5467775e+21)
(-8.3335583e+22 2.0480471e+20 -2.9175185e+21)
(-8.3427163e+22 5.4849227e+19 -2.9660024e+21)
(-8.4106713e+22 3.084588e+20 -3.835759e+21)
(-9.9318329e+22 4.4904923e+20 -3.9925055e+21)
(-8.424218e+22 1.5915999e+20 -3.8424687e+21)
(-9.831743e+22 6.2483976e+20 -5.3716164e+21)
(-9.8783031e+22 3.8070817e+20 -4.9951036e+21)
(-9.5792056e+22 2.7633556e+20 -3.6805959e+21)
(-9.5672105e+22 4.1730815e+20 -3.6945329e+21)
(-9.7358473e+22 4.7300873e+20 -2.0434931e+21)
(-9.7599832e+22 -7.2079061e+19 -1.9662699e+21)
(-9.8185272e+22 3.2943604e+20 -3.7000016e+21)
(-9.704012e+22 7.1547586e+20 -4.7485982e+21)
(-9.679748e+22 6.2633714e+20 -4.6119562e+21)
(-9.797437e+22 5.6542118e+20 -3.6449091e+21)
(-1.1370452e+23 8.5219789e+20 -5.1235156e+21)
(-1.1081814e+23 1.2058132e+21 -7.4579118e+21)
(-1.1111978e+23 4.3156409e+20 -7.2273314e+21)
(-1.0069592e+23 5.4284836e+20 -6.4837479e+21)
(-1.0067238e+23 1.0645771e+21 -6.7099978e+21)
(-1.0144251e+23 5.1625555e+20 -4.950915e+21)
(-1.0077145e+23 7.2586459e+20 -5.5130254e+21)
(-1.0144628e+23 -4.9641039e+20 8.0867278e+21)
(-9.7257356e+22 -1.3834025e+21 3.2620774e+21)
(-9.6937306e+22 -5.5222453e+20 3.1621929e+21)
(-1.0134035e+23 -1.9395746e+21 8.0063931e+21)
(-9.8062622e+22 -1.6190501e+19 8.0282982e+20)
(-9.4662576e+22 -7.7616455e+19 -1.8827002e+21)
(-9.478541e+22 1.1831168e+20 -2.0752543e+21)
(-9.7747143e+22 -6.8890236e+20 9.7894829e+20)
(-9.845212e+22 -3.1957277e+20 1.1939367e+21)
(-9.4854836e+22 -3.7472924e+20 -1.6198689e+21)
(-9.4602567e+22 -1.5155446e+20 -1.7357591e+21)
(-9.8641475e+22 -1.0808279e+21 1.3133637e+21)
(-9.6865717e+22 -2.0180656e+20 2.8941926e+21)
(-9.6875918e+22 -1.0059264e+21 3.170782e+21)
(-1.0064606e+23 -1.6530565e+21 7.7667963e+21)
(-1.0112169e+23 -3.9682705e+20 7.5953998e+21)
(-1.2667404e+23 2.6266876e+20 -4.1727688e+21)
(-1.2448496e+23 2.3689532e+21 -4.129722e+21)
(-1.0988674e+23 2.0407317e+21 -1.0674871e+22)
(-1.1082309e+23 1.4926358e+20 -1.1236698e+22)
(-1.098723e+23 1.2138657e+21 -7.7575688e+21)
(-1.098841e+23 1.3242377e+21 -7.5083815e+21)
(-1.1219506e+23 1.1741139e+21 -5.5444773e+21)
(-1.1146368e+23 8.3134286e+20 -5.7779741e+21)
(-1.1325707e+23 1.66697e+21 -6.897844e+21)
(-1.0361438e+23 2.4365426e+21 -1.0846295e+22)
(-1.0438466e+23 2.0335554e+21 -1.0829293e+22)
(-1.1323207e+23 1.2438223e+21 -7.281964e+21)
(-1.1431415e+23 1.5458303e+21 -6.7661591e+21)
(-1.0444645e+23 2.3549866e+21 -1.0631808e+22)
(-1.0534309e+23 1.2134523e+21 -1.0551578e+22)
(-1.1441342e+23 3.9844035e+20 -6.7684152e+21)
(-9.3946446e+22 2.4719767e+20 -3.8463979e+21)
(-9.6148422e+22 1.3024686e+20 -2.1269589e+21)
(-9.6297995e+22 -1.2418631e+20 -2.1249728e+21)
(-9.4268239e+22 3.4440954e+20 -3.7992492e+21)
(-9.6118227e+22 5.6643979e+20 -3.9846783e+21)
(-9.5812968e+22 8.5330124e+20 -4.6820917e+21)
(-9.5452631e+22 6.8032248e+20 -4.7991726e+21)
(-9.6281293e+22 5.2928239e+20 -3.9501339e+21)
(-9.586426e+22 6.4151159e+20 -5.0050777e+21)
(-9.6121351e+22 5.6651148e+20 -4.1675994e+21)
(-9.6293809e+22 5.7543893e+20 -4.2880357e+21)
(-9.576774e+22 8.5037442e+20 -4.8687875e+21)
(-9.4352083e+22 3.9592433e+20 -4.113819e+21)
(-9.4183818e+22 4.4471629e+20 -3.9166244e+21)
(-9.5918738e+22 3.2408422e+20 -2.6750518e+21)
(-9.5716254e+22 1.4850286e+20 -2.5244954e+21)
(-9.9598306e+22 -6.7935923e+20 1.4896904e+21)
(-9.5911789e+22 3.3049528e+20 -1.5170966e+21)
(-9.9434003e+22 3.322029e+20 1.4198878e+21)
(-9.6213152e+22 -2.2092054e+20 -1.4498318e+21)
(-9.6218905e+22 2.1540306e+19 -1.415735e+21)
(-9.9562968e+22 -9.616572e+18 1.6151957e+21)
(-9.9444539e+22 -1.187998e+21 1.964304e+21)
(-9.6135761e+22 -5.9951136e+20 -1.0634495e+21)
(-9.8166619e+22 1.3577472e+20 3.4622428e+21)
(-1.0207643e+23 1.3954778e+20 8.1056486e+21)
(-9.8386384e+22 -9.8232346e+20 3.5664199e+21)
(-1.0221293e+23 -1.4438563e+21 8.155009e+21)
(-9.8664803e+22 -1.4122393e+21 4.1776067e+21)
(-9.853679e+22 -5.8412195e+19 3.7008685e+21)
(-1.0227331e+23 -1.58266e+20 8.353503e+21)
(-1.0193024e+23 -1.9155236e+21 8.6761204e+21)
(-1.1343028e+23 2.3725331e+21 -5.7408477e+21)
(-9.8554608e+22 1.9601712e+21 -6.9325112e+21)
(-1.036674e+23 7.4918163e+20 -6.6070398e+21)
(-1.0251096e+23 9.5180265e+20 -8.7637619e+21)
(-1.0263077e+23 1.4341664e+21 -8.8740088e+21)
(-1.0348636e+23 1.1787785e+21 -6.8972669e+21)
(-1.0088256e+23 1.7056647e+21 -1.2211867e+22)
(-1.0638715e+23 1.3543013e+21 -8.1531218e+21)
(-1.0150598e+23 1.7331717e+21 -1.1786148e+22)
(-1.0687368e+23 1.5862199e+21 -7.970739e+21)
(-8.2558908e+22 -5.9851545e+20 8.4239447e+21)
(-8.2660901e+22 -1.5738097e+21 8.3425371e+21)
(-8.2271554e+22 -1.6031438e+21 8.7695847e+21)
(-8.2517413e+22 -4.0666042e+20 8.4830922e+21)
(-8.2782184e+22 -8.7303681e+20 8.5314081e+21)
(-8.2542925e+22 -1.9758221e+21 8.7806173e+21)
(-8.2258491e+22 -8.3318813e+20 8.7356429e+21)
(-8.260885e+22 -2.0182827e+21 8.7396597e+21)
(-8.3733911e+22 -1.3707559e+21 8.6903076e+21)
(-8.3683027e+22 -2.3512231e+20 8.7972653e+21)
(-8.3874394e+22 -3.7233183e+20 9.0595856e+21)
(-8.3633853e+22 -1.7853546e+21 9.3629106e+21)
(-8.340609e+22 -1.5042286e+21 8.7559468e+21)
(-8.3623739e+22 -3.5514965e+20 8.502246e+21)
(-8.3576344e+22 -1.4586943e+21 8.6948735e+21)
(-8.3338554e+22 -1.9883698e+20 8.7681224e+21)
(-1.2775454e+23 -3.3492222e+21 -6.3065548e+21)
(-1.2960187e+23 -2.9735674e+21 -6.2781238e+21)
(-1.1230913e+23 -4.45739e+20 -1.1796321e+22)
(-8.8830385e+22 -4.9086431e+20 -1.5188109e+22)
(-8.919243e+22 8.8463668e+20 -1.4954636e+22)
(-1.1310128e+23 7.8193699e+20 -6.9274458e+21)
(-1.1267658e+23 -5.6204461e+20 -7.04331e+21)
(-1.123245e+23 -6.722699e+20 -1.2522469e+22)
(-8.9113212e+22 -5.944301e+20 -1.5820716e+22)
(-8.9334195e+22 1.2009438e+21 -1.5463794e+22)
(-7.7201491e+22 -8.0246359e+20 -1.884325e+22)
(-7.6888942e+22 -1.2878819e+21 -1.9208435e+22)
(-7.6983555e+22 -1.355912e+21 -1.8575536e+22)
(-7.6469636e+22 -1.3641718e+21 -1.8745258e+22)
(-5.3342668e+22 4.0442222e+19 -1.602725e+22)
(-5.3106687e+22 -3.4315182e+20 -1.5856835e+22)
(-3.8464184e+22 -1.4982434e+21 -1.6497241e+22)
(-3.940929e+22 -1.4507726e+21 -1.6623471e+22)
(-5.3113569e+22 -7.5485904e+20 -1.6369146e+22)
(-5.3245371e+22 -6.2063726e+18 -1.6148288e+22)
(-3.8988646e+22 -1.2020701e+21 -1.6554674e+22)
(-3.8613795e+22 -1.9070946e+21 -1.7013649e+22)
(-4.293603e+22 -3.3317231e+21 6.6544013e+21)
(-4.274486e+22 -2.2759165e+21 6.8805529e+21)
(-3.0053915e+22 -3.620574e+21 -6.2759875e+21)
(-2.9980332e+22 -3.4965693e+21 -4.91601e+21)
(-3.0330052e+22 -3.3156528e+21 -5.405905e+21)
(-4.3248864e+22 -2.9087821e+21 6.9673264e+21)
(-2.9821462e+22 -3.586133e+21 -5.4704482e+21)
(-4.2544227e+22 -2.2088492e+21 6.8582109e+21)
(-5.3086331e+22 -4.2304127e+20 -1.582743e+22)
(-5.3002185e+22 -6.5152669e+20 -1.5659099e+22)
(-3.850365e+22 -1.9088399e+21 -1.627491e+22)
(-3.9466363e+22 -2.1328721e+21 -1.6328378e+22)
(-5.2717955e+22 -8.5475359e+19 -1.5784191e+22)
(-5.2508338e+22 -6.611783e+20 -1.5921285e+22)
(-3.8786018e+22 -1.4542236e+21 -1.6259587e+22)
(-3.8026922e+22 -1.8762499e+21 -1.6666847e+22)
(-4.236161e+22 -3.9579561e+21 6.3972501e+21)
(-4.2438941e+22 -2.999394e+21 6.6783278e+21)
(-2.9685671e+22 -4.4126343e+21 -6.3931359e+21)
(-2.97474e+22 -4.2078782e+21 -5.0620236e+21)
(-4.3208201e+22 -3.5632079e+21 6.9451257e+21)
(-4.2429211e+22 -2.2575299e+21 6.8010402e+21)
(-3.0175825e+22 -3.8762424e+21 -5.5087269e+21)
(-2.9450245e+22 -3.7666761e+21 -5.2195301e+21)
(-1.1086509e+23 -1.6983137e+21 -1.168845e+22)
(-8.8489899e+22 -6.1995706e+18 -1.4809036e+22)
(-8.8202591e+22 -1.2165419e+21 -1.5069271e+22)
(-1.1136966e+23 3.4193168e+20 -6.7314127e+21)
(-1.1101854e+23 -6.5142786e+20 -6.7119753e+21)
(-1.1103474e+23 -1.2505464e+21 -1.2023751e+22)
(-8.8650875e+22 6.3560773e+20 -1.5068866e+22)
(-8.8335184e+22 -9.0593302e+20 -1.5338906e+22)
(-7.6936915e+22 -2.9520891e+21 -1.8471198e+22)
(-7.6250629e+22 -2.6556672e+21 -1.8698115e+22)
(-7.625903e+22 -1.9996159e+21 -1.8898937e+22)
(-7.6642342e+22 -1.8818263e+21 -1.8614858e+22)
(-5.2593671e+22 -1.3996289e+21 -1.5555495e+22)
(-5.2610824e+22 -1.5642234e+21 -1.5408424e+22)
(-3.8935186e+22 -3.4550844e+21 -1.5689782e+22)
(-3.9844053e+22 -3.7417609e+21 -1.5743944e+22)
(-5.2510667e+22 -9.577342e+20 -1.5723934e+22)
(-5.2337358e+22 -1.4810529e+21 -1.5843411e+22)
(-3.9411923e+22 -2.9667234e+21 -1.5734309e+22)
(-3.846021e+22 -3.2331928e+21 -1.6165e+22)
(-2.8875555e+22 -6.3375222e+21 -6.3525873e+21)
(-4.1118892e+22 -5.0419392e+21 6.1336324e+21)
(-4.1595081e+22 -4.3878052e+21 6.6918084e+21)
(-2.917988e+22 -6.2228771e+21 -4.713359e+21)
(-4.2558149e+22 -4.9424633e+21 6.8275912e+21)
(-4.2034986e+22 -3.7238929e+21 6.8512049e+21)
(-2.9620472e+22 -5.7498515e+21 -5.5748085e+21)
(-2.9095409e+22 -5.693878e+21 -4.9782108e+21)
(-5.2813635e+22 -6.6829171e+20 -1.585611e+22)
(-5.2653601e+22 -9.0934658e+20 -1.5648421e+22)
(-3.9639461e+22 -2.6932211e+21 -1.6140732e+22)
(-3.8443009e+22 -2.4593157e+21 -1.609806e+22)
(-5.2796916e+22 -4.2216285e+20 -1.5929949e+22)
(-5.2613066e+22 -1.1623935e+21 -1.6102175e+22)
(-3.8994548e+22 -2.0108164e+21 -1.6148329e+22)
(-3.8307655e+22 -2.5919107e+21 -1.6604559e+22)
(-2.9339012e+22 -5.2135618e+21 -6.4925989e+21)
(-4.1879279e+22 -4.4777638e+21 6.1413592e+21)
(-4.2176169e+22 -3.5573003e+21 6.7597187e+21)
(-2.9437582e+22 -5.0347171e+21 -4.9789292e+21)
(-4.2858328e+22 -3.9336146e+21 6.9575116e+21)
(-4.2071518e+22 -2.9176565e+21 6.8380854e+21)
(-2.9945853e+22 -4.6028536e+21 -5.6862189e+21)
(-2.9246581e+22 -4.6876463e+21 -5.4027603e+21)
(-5.9363005e+22 -2.5882874e+21 9.0415014e+21)
(-5.9384541e+22 -2.7737521e+21 9.079874e+21)
(-7.4936172e+22 -1.0986249e+21 9.8006117e+21)
(-7.5009191e+22 -1.8320326e+21 9.8514764e+21)
(-5.951946e+22 -2.1227492e+21 9.3147304e+21)
(-5.9475686e+22 -2.674027e+21 8.8807213e+21)
(-7.5013741e+22 -1.1913127e+21 9.6172225e+21)
(-7.470194e+22 -1.9076318e+21 9.558489e+21)
(-5.9638828e+22 -2.0037336e+21 9.1072639e+21)
(-5.9560079e+22 -2.401732e+21 9.1172078e+21)
(-7.508081e+22 -7.9847382e+20 9.7727558e+21)
(-7.4944383e+22 -1.4832577e+21 9.6515278e+21)
(-6.016862e+22 -1.900468e+21 9.7101736e+21)
(-6.0023221e+22 -2.1250435e+21 9.1827854e+21)
(-7.5101904e+22 -9.0674974e+20 1.013003e+22)
(-7.4549036e+22 -1.7731821e+21 9.9859362e+21)
(-5.8953067e+22 -2.8933847e+21 9.1868943e+21)
(-5.911979e+22 -2.9358574e+21 9.2667921e+21)
(-7.4278989e+22 -1.2676818e+21 9.9262317e+21)
(-7.4456794e+22 -2.0930559e+21 1.0060163e+22)
(-5.9251402e+22 -2.6668401e+21 9.4610343e+21)
(-5.9123036e+22 -3.0718623e+21 9.0239252e+21)
(-7.464594e+22 -1.6087977e+21 9.8337656e+21)
(-7.4421961e+22 -2.3505101e+21 9.8114833e+21)
(-5.9395148e+22 -2.6011472e+21 9.141443e+21)
(-5.9229338e+22 -2.9856393e+21 9.0574628e+21)
(-7.4845398e+22 -1.3161326e+21 9.6225881e+21)
(-7.5029816e+22 -1.9256492e+21 9.7852241e+21)
(-5.9497234e+22 -2.3940368e+21 9.5305405e+21)
(-5.9520972e+22 -2.6696087e+21 9.0870676e+21)
(-7.4814547e+22 -1.3293416e+21 9.9625873e+21)
(-7.4432774e+22 -2.2632259e+21 9.9081653e+21)
(-6.0382202e+22 -1.8005488e+21 9.2693634e+21)
(-6.0227041e+22 -2.2641315e+21 9.2547633e+21)
(-7.5967149e+22 -7.2571554e+20 9.7472829e+21)
(-7.6006846e+22 -1.3502906e+21 9.7746002e+21)
(-6.033695e+22 -1.5995631e+21 9.6269269e+21)
(-6.0321376e+22 -1.9108807e+21 9.2294823e+21)
(-7.6021055e+22 -8.3412303e+20 1.0168037e+22)
(-7.558305e+22 -1.7417722e+21 1.0035735e+22)
(-6.0137272e+22 -2.1964607e+21 9.2077171e+21)
(-6.001292e+22 -2.3210188e+21 9.2825235e+21)
(-7.564102e+22 -5.8504569e+20 1.0009282e+22)
(-7.594284e+22 -1.5052059e+21 1.0213594e+22)
(-6.0221553e+22 -1.861691e+21 9.484245e+21)
(-6.0100263e+22 -2.3184156e+21 9.0308596e+21)
(-7.5967746e+22 -1.0242769e+21 9.8749155e+21)
(-7.5739913e+22 -1.7657838e+21 9.8723102e+21)
(-6.1196219e+22 -1.6417083e+21 9.583054e+21)
(-6.1160565e+22 -1.8794407e+21 9.5811012e+21)
(-7.667318e+22 -5.9377583e+20 1.0289432e+22)
(-7.67092e+22 -1.3149187e+21 1.0351207e+22)
(-6.093612e+22 -1.7143877e+21 9.9306064e+21)
(-6.1480096e+22 -1.8853954e+21 9.7118364e+21)
(-7.6328676e+22 -9.0302416e+20 1.0581471e+22)
(-7.6125292e+22 -1.9480825e+21 1.0667999e+22)
(-6.1076666e+22 -1.8607874e+21 9.4447098e+21)
(-6.0930008e+22 -2.1089742e+21 9.5160796e+21)
(-7.6434655e+22 -6.1571531e+20 1.0257167e+22)
(-7.6352778e+22 -1.3536987e+21 1.0137603e+22)
(-6.0567105e+22 -1.4230845e+21 9.5452169e+21)
(-6.0510866e+22 -2.0110381e+21 9.1653373e+21)
(-7.6412486e+22 -8.7917907e+20 1.0065057e+22)
(-7.602118e+22 -1.5815774e+21 9.9182469e+21)
(-1.2038265e+23 1.5840334e+21 -1.0976182e+22)
(-7.954151e+22 1.3235026e+20 -2.8260454e+21)
(-7.9306484e+22 1.2902226e+19 -2.7680547e+21)
(-8.0663936e+22 7.9298446e+19 -2.3727797e+21)
(-8.0427247e+22 -1.5911303e+20 -2.2995665e+21)
(-7.9277552e+22 2.2333204e+20 -3.1396679e+21)
(-8.0449695e+22 1.7839898e+20 -2.6583774e+21)
(-7.9279546e+22 2.9679423e+20 -3.1203229e+21)
(-8.0450394e+22 1.1378002e+20 -2.6387877e+21)
(-7.8902837e+22 9.813136e+17 -2.4905579e+21)
(-8.0816384e+22 1.7882323e+19 -1.6518767e+21)
(-7.8716668e+22 -2.3005946e+20 -2.404428e+21)
(-8.0527004e+22 -3.6517234e+20 -1.5909747e+21)
(-7.8633802e+22 8.3409735e+19 -2.7791456e+21)
(-8.0600731e+22 1.1871422e+20 -1.9033912e+21)
(-7.8647212e+22 4.955457e+19 -2.7449788e+21)
(-8.0619498e+22 -1.1641147e+20 -1.8881321e+21)
(-6.75061e+22 -3.2396213e+20 -2.4406883e+21)
(-6.8158688e+22 -3.0973199e+20 -2.4631528e+21)
(-6.6817352e+22 -1.1440793e+20 -2.5354891e+21)
(-6.8095695e+22 -1.6577801e+20 -2.4938738e+21)
(-6.6843629e+22 -3.2036946e+20 -2.5190626e+21)
(-6.689481e+22 -2.2159341e+20 -2.5206377e+21)
(-6.8488384e+22 -2.2222158e+20 -2.1948798e+21)
(-6.6848661e+22 -3.5349097e+20 -2.4985023e+21)
(-6.6852929e+22 -2.0375817e+20 -2.5954532e+21)
(-6.8147025e+22 -2.5543952e+20 -2.5468072e+21)
(-8.045774e+22 3.1369827e+20 -2.9609579e+21)
(-8.137962e+22 2.6338296e+20 -2.4686683e+21)
(-8.0259272e+22 2.0721321e+20 -2.9177084e+21)
(-8.1119073e+22 6.533903e+19 -2.4249329e+21)
(-8.0215502e+22 3.9328348e+20 -3.3182349e+21)
(-8.1170574e+22 3.4644822e+20 -2.7795273e+21)
(-8.0176528e+22 5.1330353e+20 -3.3449615e+21)
(-8.1160132e+22 3.1797331e+20 -2.7776798e+21)
(-8.2907492e+22 5.0663808e+20 -3.2022318e+21)
(-8.2855425e+22 5.1850402e+20 -3.2411542e+21)
(-8.3613055e+22 6.1164472e+20 -4.1060798e+21)
(-8.3495498e+22 6.7569014e+20 -4.2055618e+21)
(-9.8900295e+22 4.7790254e+20 -4.120371e+21)
(-8.3095611e+22 4.3595943e+20 -2.8472486e+21)
(-8.2882752e+22 2.2693602e+20 -2.8295984e+21)
(-8.3660758e+22 3.5263618e+20 -3.7732267e+21)
(-8.3847326e+22 5.4168805e+20 -3.7493254e+21)
(-9.9008933e+22 3.3879106e+20 -3.6201213e+21)
(-9.813867e+22 5.6603361e+20 -5.1357444e+21)
(-9.7991551e+22 6.340093e+20 -4.7876179e+21)
(-6.7100822e+22 -2.3457275e+20 -2.5742585e+21)
(-6.5200022e+22 7.6781608e+19 -2.6610527e+21)
(-6.7015483e+22 2.5864327e+19 -2.5831148e+21)
(-6.5244177e+22 -2.2854664e+20 -2.6533866e+21)
(-6.5812942e+22 -1.6098498e+19 -2.5747335e+21)
(-6.7792405e+22 -9.2071385e+18 -2.2236465e+21)
(-6.7885432e+22 -3.2387689e+20 -2.2082268e+21)
(-6.5853449e+22 -2.9913163e+20 -2.5672181e+21)
(-6.7082474e+22 -3.843039e+20 -2.6162869e+21)
(-6.5207132e+22 -6.9416962e+18 -2.7339169e+21)
(-6.7087137e+22 -6.087877e+19 -2.6398507e+21)
(-6.5194689e+22 -3.7563949e+20 -2.7246488e+21)
(-6.5844205e+22 -9.3240943e+19 -2.6460528e+21)
(-6.7851722e+22 -9.6984694e+19 -2.283782e+21)
(-6.5765189e+22 -4.4853592e+20 -2.6307208e+21)
(-6.7770404e+22 -4.6619479e+20 -2.2673838e+21)
(-6.4441957e+22 1.8037711e+20 -2.4410989e+21)
(-6.4461098e+22 -1.3799164e+20 -2.4320333e+21)
(-6.6262757e+22 1.5872948e+20 -2.3171805e+21)
(-6.6316711e+22 -1.8193059e+20 -2.3126256e+21)
(-6.6323272e+22 6.0222541e+19 -2.405795e+21)
(-6.6300668e+22 -3.2201255e+20 -2.3997087e+21)
(-6.4418149e+22 6.4489915e+19 -2.5684794e+21)
(-6.4431158e+22 -2.6939409e+20 -2.5641708e+21)
(-6.6920431e+22 7.6249515e+19 -2.4283065e+21)
(-8.5661309e+22 4.9194611e+20 -3.5501092e+21)
(-8.4978152e+22 2.7382987e+20 -4.0111315e+21)
(-8.5059849e+22 5.3675371e+20 -4.001612e+21)
(-8.562605e+22 1.7017e+20 -3.5478319e+21)
(-6.6922505e+22 -1.0892367e+20 -2.5600082e+21)
(-8.5813915e+22 4.365728e+20 -4.9484787e+21)
(-8.6213714e+22 3.933033e+20 -4.8874036e+21)
(-8.6468185e+22 3.8558026e+20 -4.4914401e+21)
(-8.5988911e+22 3.7034196e+20 -4.6233196e+21)
(-8.6503382e+22 4.7365244e+20 -4.3669334e+21)
(-8.6620976e+22 6.9115554e+20 -4.3327607e+21)
(-8.681506e+22 6.242019e+20 -4.0848503e+21)
(-8.6745201e+22 3.4995449e+20 -4.0993062e+21)
(-7.941011e+22 3.1666958e+20 -3.1461345e+21)
(-7.9063564e+22 3.5373542e+20 -3.1858157e+21)
(-8.0568958e+22 2.7899549e+20 -2.6723048e+21)
(-8.0209159e+22 1.7885404e+20 -2.6858523e+21)
(-7.9145703e+22 4.6186075e+20 -3.1009481e+21)
(-8.0331335e+22 4.1570573e+20 -2.6509468e+21)
(-7.9276766e+22 4.4433178e+20 -3.083224e+21)
(-8.0400259e+22 2.8659048e+20 -2.6452887e+21)
(-7.8502383e+22 2.7965343e+20 -2.7453061e+21)
(-8.0493779e+22 3.2818783e+20 -1.8972017e+21)
(-7.8589881e+22 1.8562707e+20 -2.7248057e+21)
(-8.0568209e+22 3.6988587e+19 -1.8930537e+21)
(-7.8724868e+22 1.7949043e+20 -2.7900634e+21)
(-8.0714021e+22 2.0085748e+20 -1.9459847e+21)
(-7.8432071e+22 1.059433e+20 -2.7864471e+21)
(-8.0347016e+22 -5.3169204e+19 -1.9467631e+21)
(-8.0321035e+22 4.6061724e+20 -3.3382119e+21)
(-8.1323037e+22 4.5444714e+20 -2.7965709e+21)
(-8.001552e+22 5.5125973e+20 -3.4198822e+21)
(-8.0929212e+22 3.9897807e+20 -2.8586684e+21)
(-8.3044774e+22 5.7787225e+20 -3.2433909e+21)
(-8.2677162e+22 5.6969358e+20 -3.3380942e+21)
(-8.3367639e+22 7.1575995e+20 -4.3137914e+21)
(-8.3761892e+22 6.5897655e+20 -4.1497687e+21)
(-9.9201611e+22 7.8031583e+20 -4.2817328e+21)
(-8.2830032e+22 7.643729e+20 -3.0777205e+21)
(-8.2886958e+22 6.459827e+20 -3.1058752e+21)
(-8.3491486e+22 7.9877475e+20 -4.066225e+21)
(-8.3378604e+22 8.8216215e+20 -4.033697e+21)
(-9.8977139e+22 8.0574746e+20 -4.1014573e+21)
(-8.0026923e+22 6.4014104e+20 -3.2278889e+21)
(-8.1075801e+22 6.0256172e+20 -2.7585222e+21)
(-8.0141518e+22 6.3230687e+20 -3.2291528e+21)
(-8.1166915e+22 4.8180332e+20 -2.7563928e+21)
(-9.7973916e+22 7.3586341e+20 -5.3275666e+21)
(-9.8287666e+22 1.1089497e+21 -5.5887016e+21)
(-1.0054524e+23 1.5348795e+21 -7.0042797e+21)
(-1.0005466e+23 8.7487945e+20 -6.6361867e+21)
(-1.0041543e+23 8.7354368e+20 -5.3876514e+21)
(-1.0080772e+23 1.2047377e+21 -5.6874751e+21)
(-1.0051619e+23 7.6410461e+20 -6.4306834e+21)
(-1.0026978e+23 6.8450899e+20 -5.4410042e+21)
(-1.0035412e+23 5.997816e+20 -5.1004938e+21)
(-1.0043614e+23 8.351049e+20 -6.2570765e+21)
(-9.0286543e+22 8.3486536e+20 -4.7034729e+21)
(-9.0162748e+22 8.8258102e+20 -5.2051468e+21)
(-8.9928859e+22 9.4295556e+20 -5.1971277e+21)
(-9.0035323e+22 7.8080909e+20 -4.7507045e+21)
(-8.9811798e+22 8.2091466e+20 -5.6681584e+21)
(-9.0316017e+22 4.4443204e+20 -5.6098089e+21)
(-8.9871986e+22 4.980452e+20 -5.4806042e+21)
(-8.940347e+22 7.172336e+20 -5.5272271e+21)
(-8.7796332e+22 6.8712502e+20 -4.7278996e+21)
(-8.7841453e+22 7.880227e+20 -4.7114855e+21)
(-8.8449402e+22 7.4702352e+20 -4.2518777e+21)
(-8.830404e+22 5.2616817e+20 -4.3226714e+21)
(-8.8063897e+22 4.867367e+20 -4.8818086e+21)
(-8.7806127e+22 4.4995951e+20 -5.2765418e+21)
(-8.7349494e+22 6.0178936e+20 -5.3155978e+21)
(-8.7589539e+22 4.941037e+20 -4.9400866e+21)
(-1.0954725e+23 1.4985638e+21 -6.4002325e+21)
(-1.1051149e+23 9.3387867e+20 -4.7880104e+21)
(-1.0623891e+23 2.2441481e+21 -9.0718376e+21)
(-1.1313887e+23 1.3431264e+21 -6.04479e+21)
(-9.515217e+22 1.017298e+21 -4.2419611e+21)
(-9.5655299e+22 5.6343304e+20 -3.3279179e+21)
(-9.3709032e+22 2.7755185e+20 -3.1535821e+21)
(-8.3086646e+22 -7.7267068e+20 5.6248685e+21)
(-8.3285158e+22 -1.6939456e+21 5.6287671e+21)
(-8.648754e+22 -6.7769556e+20 9.0007564e+21)
(-8.6669079e+22 -1.8869206e+21 8.9439738e+21)
(-8.2194808e+22 -5.0455207e+20 1.0834931e+21)
(-8.1912863e+22 -1.087297e+21 1.213142e+21)
(-8.5321405e+22 -6.4372307e+20 3.772139e+21)
(-8.5005105e+22 -1.499632e+21 3.9191467e+21)
(-8.1674569e+22 -6.500895e+20 1.1167749e+21)
(-8.5035242e+22 -6.6459209e+20 3.8575228e+21)
(-8.191313e+22 -1.1110172e+21 1.1659917e+21)
(-8.5127605e+22 -1.4169072e+21 3.860908e+21)
(-8.3463825e+22 -6.6129523e+20 5.4883627e+21)
(-8.6835493e+22 -8.5790102e+20 8.7295504e+21)
(-8.3324891e+22 -1.6733561e+21 5.733741e+21)
(-8.6502932e+22 -1.988872e+21 8.8969139e+21)
(-7.9507166e+22 -3.2050536e+20 -1.7109468e+21)
(-8.2774407e+22 -2.5099908e+20 2.2301952e+20)
(-7.957468e+22 -4.3615308e+20 -1.6553056e+21)
(-8.2848724e+22 -6.4562935e+20 2.465052e+20)
(-7.853685e+22 7.6937869e+19 -2.5256228e+21)
(-7.8089111e+22 3.1185206e+19 -2.542908e+21)
(-8.0611573e+22 2.1230623e+19 -1.7695386e+21)
(-8.0145048e+22 -1.7260953e+20 -1.7587637e+21)
(-7.8344845e+22 -1.0974099e+20 -2.6423488e+21)
(-8.051062e+22 -1.6237286e+20 -1.8748241e+21)
(-7.8449832e+22 -1.0844879e+20 -2.5819276e+21)
(-8.0554109e+22 -2.8834198e+20 -1.841541e+21)
(-7.9635331e+22 -8.2582237e+19 -1.6049541e+21)
(-8.2778195e+22 -8.0030013e+19 2.3731465e+20)
(-7.9277039e+22 -3.0085098e+20 -1.5598211e+21)
(-8.2334641e+22 -5.2129087e+20 2.7424748e+20)
(-7.9071533e+22 -5.6392141e+20 -1.5705711e+21)
(-7.928013e+22 -6.9123395e+20 -1.4925351e+21)
(-8.2501704e+22 -5.0606637e+20 3.8742447e+20)
(-8.2609861e+22 -9.1383885e+20 4.1718502e+20)
(-7.8547945e+22 -1.6970944e+20 -2.3974107e+21)