/*--------------------------------*- C++ -*----------------------------------*\
  =========                 |
  \\      /  F ield         | OpenFOAM: The Open Source CFD Toolbox
   \\    /   O peration     | Website:  https://openfoam.org
    \\  /    A nd           | Version:  7
     \\/     M anipulation  |
\*---------------------------------------------------------------------------*/
FoamFile
{
    version     2.0;
    format      ascii;
    class       volScalarField;
    location    "10000";
    object      k;
}
// * * * * * * * * * * * * * * * * * * * * * * * * * * * * * * * * * * * * * //

dimensions      [0 2 -2 0 0 0 0];

internalField   nonuniform List<scalar> 
33730
(
1.520129
1.5224628
1.5173593
1.5185395
1.5205117
1.5189018
1.5217061
1.5206055
1.522391
1.5196843
1.5197802
1.5235567
1.516697
1.5167138
1.5169689
1.5166672
1.5192655
1.5178098
1.5186653
1.5176184
1.5188128
1.5183589
1.5177393
1.5190976
1.5207772
1.518766
1.5211319
1.5221599
1.5223173
1.5218397
1.5236731
1.5196887
1.5189915
1.5237832
1.5235768
1.5236321
1.5238534
1.5197506
1.5189166
1.5184588
1.518263
1.5187337
1.5183536
1.5216707
1.5218705
1.5162836
1.5167016
1.5169489
1.5166251
1.517975
1.5165819
1.5168027
1.5166181
1.5162746
1.518321
1.5165615
1.5170061
1.5161765
1.5164711
1.5164517
1.5163971
1.5161494
1.5166125
1.5214716
1.518963
1.5194429
1.5172836
1.517484
1.517899
1.5180251
1.5171904
1.5177462
1.5171857
1.5177519
1.5182069
1.5200589
1.518534
1.5176063
1.5182087
1.5173096
1.5172521
1.5178718
1.5178314
1.5208728
1.5203035
1.5210834
1.5204446
1.5207077
1.5214057
1.5213227
1.521265
1.5219761
1.5215297
1.5220206
1.5213249
1.5219183
1.5214966
1.5245747
1.5243917
1.5244781
1.5247031
1.5217573
1.5184635
1.5182898
1.5180931
1.5178861
1.5180772
1.5177741
1.5179852
1.5182847
1.5190345
1.5189887
1.5179575
1.5183163
1.5186884
1.5183648
1.5179266
1.5177296
1.5179284
1.5181077
1.5190327
1.518955
1.5190416
1.5190152
1.5198082
1.5189618
1.5190365
1.518955
1.5178675
1.5177063
1.5175662
1.5175713
1.5183767
1.5206026
1.5179926
1.5176471
1.5176868
1.5208611
1.521034
1.5211176
1.521666
1.5169187
1.5168049
1.5162367
1.5166189
1.5169252
1.5165846
1.5178355
1.5181384
1.5179493
1.5175626
1.5165041
1.5167296
1.5165311
1.5162204
1.5177846
1.5175201
1.5182669
1.5180443
1.5164023
1.5165593
1.5166302
1.5163373
1.5166788
1.5163023
1.5166374
1.5171906
1.5161453
1.516168
1.5160975
1.5161355
1.516122
1.5160769
1.5164334
1.5163833
1.5164163
1.5165473
1.5164721
1.5162681
1.5160765
1.5160939
1.5163905
1.5163726
1.5161582
1.5161482
1.5161073
1.516094
1.516208
1.5164436
1.516478
1.5167255
1.521528
1.5212361
1.5217462
1.5216174
1.5189869
1.5190179
1.5186171
1.5181898
1.5191159
1.518114
1.5196549
1.5185802
1.5169853
1.5173918
1.5170237
1.517418
1.5171342
1.5173174
1.5176431
1.5175535
1.5169246
1.5169184
1.5173012
1.5173015
1.5169131
1.5172964
1.5169237
1.5173005
1.5195618
1.518129
1.5176812
1.5183718
1.5181326
1.5197409
1.5202972
1.520154
1.5173105
1.5177527
1.5171956
1.5176833
1.5170283
1.5169817
1.5174118
1.5174356
1.5169625
1.5169658
1.5173737
1.5173776
1.519883
1.5198319
1.5205106
1.5204895
1.5199945
1.5199538
1.5206507
1.5206301
1.5212112
1.5207498
1.520138
1.5205517
1.5208831
1.5214041
1.5212974
1.5213715
1.5213521
1.5214563
1.5204284
1.5203003
1.5205626
1.5206756
1.5214899
1.5210465
1.521124
1.5208073
1.5208975
1.5216656
1.5213679
1.5209085
1.520788
1.5208317
1.5207127
1.5216103
1.5208798
1.5203675
1.520643
1.520642
1.5176955
1.5175165
1.5177331
1.5178785
1.5173794
1.5173745
1.5175869
1.517592
1.5176399
1.517446
1.5175515
1.5177164
1.5174025
1.517313
1.5173064
1.5174081
1.5178546
1.517913
1.5175061
1.5175836
1.5180439
1.5173116
1.5173638
1.5173365
1.5172828
1.5177977
1.5173034
1.5173345
1.5174315
1.5174025
1.5175565
1.5179312
1.51802
1.5176751
1.5177701
1.5175373
1.5177628
1.5179285
1.517504
1.5174057
1.5174733
1.517373
1.5176515
1.5180414
1.518131
1.517782
1.5177652
1.5181625
1.5183348
1.5179974
1.5176963
1.5174846
1.5174483
1.5176626
1.5173407
1.5172539
1.5172471
1.5173473
1.5172929
1.5172856
1.5172394
1.5172478
1.5173772
1.5174325
1.5175967
1.5176271
1.517596
1.5173891
1.5174859
1.5176654
1.5183922
1.5184605
1.5187548
1.5187866
1.5184221
1.5184547
1.5187732
1.518779
1.5184647
1.5184938
1.5187964
1.518805
1.5185488
1.5188381
1.5185833
1.5191054
1.5188693
1.5190606
1.5193652
1.5190762
1.5190705
1.5193418
1.5184493
1.5185284
1.5187829
1.5184102
1.5185004
1.5187628
1.5188032
1.5184056
1.5184643
1.5187659
1.5187832
1.5175647
1.5174519
1.5172946
1.517324
1.5172113
1.5172102
1.5172043
1.5172102
1.5183037
1.5180189
1.5200004
1.5201791
1.5176474
1.5175698
1.5172832
1.5172807
1.5173404
1.517314
1.5203521
1.5203796
1.5205093
1.5204862
1.5206089
1.5207837
1.5212556
1.5212974
1.5213474
1.5182053
1.5188575
1.5168497
1.5167274
1.5162107
1.5161231
1.5161341
1.5166141
1.5168884
1.5165568
1.516369
1.5165307
1.5177747
1.5180775
1.5178594
1.5175117
1.5164427
1.5165365
1.516349
1.5166843
1.5165205
1.5161859
1.5161411
1.5161184
1.5177586
1.5177762
1.5177012
1.5177423
1.5175408
1.5174592
1.5175669
1.5174438
1.5182851
1.5176986
1.5176283
1.5182099
1.5174023
1.5181527
1.5175322
1.5180085
1.5165981
1.5163045
1.51677
1.5164864
1.5165341
1.5166995
1.5162724
1.5162071
1.5162526
1.5162908
1.5163018
1.5162119
1.5166154
1.5164987
1.51688
1.5173727
1.516527
1.51691
1.516087
1.5161191
1.516115
1.5161081
1.5160968
1.5160777
1.516073
1.5160724
1.51606
1.5160592
1.5161309
1.5160977
1.5163778
1.5164143
1.5160803
1.5163691
1.5163685
1.5160832
1.5164624
1.5162513
1.5160729
1.516077
1.5160642
1.516072
1.5160885
1.516095
1.5160826
1.5160934
1.51611
1.5163828
1.5161231
1.5163954
1.5160851
1.5163656
1.5160994
1.5163767
1.5160999
1.516086
1.5161962
1.5162216
1.5161644
1.5162068
1.516381
1.5164943
1.5163341
1.5165236
1.5161771
1.5164455
1.516231
1.5165006
1.5163432
1.5165668
1.5166085
1.5168654
1.5214316
1.5213809
1.5218779
1.5209242
1.5212218
1.5217597
1.52125
1.5220249
1.5218763
1.5219496
1.5214698
1.5218301
1.521526
1.5188459
1.5189273
1.5184757
1.5180889
1.5186911
1.5190865
1.5193502
1.5185783
1.518084
1.518059
1.5180139
1.5179411
1.5195489
1.5200056
1.5184895
1.5188989
1.5178545
1.5185254
1.5180021
1.5183997
1.5166663
1.5166513
1.517148
1.5171595
1.5171837
1.5166891
1.5167183
1.5171933
1.51683
1.5167839
1.5172916
1.5173115
1.5171435
1.5169645
1.5174222
1.5174784
1.5165909
1.5165995
1.5170929
1.5170896
1.5165855
1.5165948
1.5170851
1.5170869
1.5165842
1.5165904
1.5170781
1.5170804
1.5165932
1.5166127
1.517085
1.5170897
1.5192373
1.5191066
1.5197095
1.5197952
1.5175588
1.5178591
1.5183686
1.5182337
1.5172461
1.5170866
1.5179446
1.5178938
1.5193519
1.5193269
1.5199427
1.5199491
1.5167968
1.5168861
1.5175548
1.5175114
1.5167298
1.5167427
1.5174336
1.5174215
1.5166222
1.516659
1.5172304
1.5172112
1.5165927
1.5165942
1.517182
1.5171808
1.5165932
1.5171542
1.5171554
1.5165849
1.516594
1.516613
1.5171533
1.517154
1.5194756
1.5194398
1.5200976
1.5201021
1.5194002
1.519387
1.5200537
1.5200644
1.5195794
1.5195479
1.5202084
1.5202044
1.5201809
1.5195251
1.5195131
1.5201713
1.5212464
1.5211321
1.5211662
1.5212156
1.5197709
1.5196658
1.5203441
1.5202994
1.5206997
1.5205393
1.5200921
1.5205531
1.5212628
1.5213133
1.5212991
1.521257
1.521372
1.5213139
1.5213611
1.5213066
1.5197172
1.5199803
1.5200353
1.5198093
1.5199791
1.5196985
1.5200071
1.5197586
1.5203801
1.5201653
1.5201343
1.5202048
1.5201758
1.5206015
1.5202338
1.5201402
1.520172
1.5202043
1.5202495
1.5204631
1.5203426
1.5203698
1.5205006
1.5205225
1.5204671
1.5206627
1.5212523
1.5206198
1.5207802
1.520298
1.5203271
1.5203969
1.5203716
1.5211182
1.5204159
1.5204917
1.5206047
1.5206638
1.5211673
1.5212932
1.5211525
1.5210756
1.5210309
1.521108
1.5213906
1.52061
1.5203811
1.520547
1.520448
1.5204125
1.5205506
1.5205042
1.5203664
1.5208008
1.5203621
1.5202693
1.5202987
1.520334
1.5203052
1.5203329
1.5202922
1.5202626
1.5207385
1.5206523
1.5205988
1.5213418
1.5206696
1.5206331
1.5202143
1.5202452
1.5203903
1.5203653
1.5198676
1.5200088
1.5197726
1.520063
1.5202685
1.5201687
1.5202005
1.5202403
1.5201857
1.5198388
1.5200451
1.5200183
1.5172935
1.5174283
1.5173712
1.5174834
1.5171361
1.5172091
1.5171662
1.5172355
1.5171902
1.5173157
1.5172193
1.5173414
1.5173506
1.5174733
1.5174734
1.5175737
1.5170507
1.5170545
1.5171161
1.5171197
1.51712
1.5170547
1.5170549
1.5171203
1.5171081
1.5171073
1.5172246
1.5172245
1.5171024
1.5171067
1.5172195
1.5172237
1.5171973
1.5173497
1.51726
1.5173927
1.5170404
1.5170687
1.517098
1.5171243
1.5170745
1.5171577
1.5171038
1.5171845
1.5172337
1.5173775
1.517317
1.51744
1.5169951
1.5170697
1.5169951
1.5170706
1.5169577
1.5169605
1.5170101
1.5170126
1.5169607
1.5170124
1.5169603
1.517013
1.5169919
1.5169949
1.517067
1.5170697
1.517762
1.5174785
1.5178311
1.5174814
1.517775
1.5177526
1.5174344
1.5177849
1.5174933
1.5172168
1.5171622
1.5175285
1.5171744
1.5172325
1.517177
1.5171171
1.5172196
1.5171645
1.5177526
1.5174417
1.5170283
1.5170156
1.5173388
1.5170301
1.5170442
1.516988
1.5170227
1.5169731
1.5170102
1.5169576
1.5169927
1.516947
1.5169834
1.5169987
1.5169888
1.5173133
1.5170042
1.5170154
1.517247
1.5172737
1.516965
1.5169554
1.5170023
1.5169942
1.5169964
1.5170346
1.5169814
1.5170214
1.5170144
1.5170762
1.5169985
1.5170624
1.5169805
1.5170424
1.5169722
1.5170351
1.5171958
1.5172418
1.5171342
1.5171842
1.517795
1.5178365
1.5174693
1.517539
1.5178551
1.517909
1.5175233
1.5176118
1.5172255
1.517299
1.5171599
1.5172379
1.5177217
1.5176686
1.5174127
1.5174592
1.5172782
1.5172984
1.5172763
1.517256
1.5172205
1.5172768
1.5172289
1.5172846
1.517568
1.5173513
1.5174163
1.5176162
1.5170991
1.5170809
1.5171758
1.5171596
1.5170591
1.5170426
1.5171133
1.5170986
1.5170595
1.5171357
1.5170536
1.5171306
1.5170165
1.5170236
1.5170765
1.5170705
1.5172869
1.517351
1.5172175
1.5172868
1.5179316
1.5179807
1.5176017
1.5176876
1.5180083
1.5180667
1.5176819
1.5177834
1.5173431
1.5174351
1.5172692
1.5173681
1.5174313
1.5173547
1.5175122
1.5174447
1.5180983
1.5177827
1.5181497
1.5178814
1.5181858
1.5178845
1.5182636
1.5180138
1.5175137
1.5174356
1.5176447
1.5175782
1.5172286
1.5173465
1.5172048
1.5173258
1.5171652
1.5172349
1.517145
1.5172163
1.5171214
1.5171165
1.5171886
1.5171848
1.5171772
1.5172955
1.5171732
1.5172925
1.5169198
1.5169803
1.5169179
1.5169801
1.5169038
1.5169067
1.5169399
1.5169421
1.5169068
1.5169425
1.5169042
1.5169413
1.5169163
1.5169188
1.5169778
1.5169799
1.5169008
1.5169341
1.5169041
1.5169365
1.5169034
1.516936
1.5168997
1.5169341
1.5169471
1.5169442
1.5169667
1.516962
1.5169454
1.5169483
1.5169676
1.5169644
1.517037
1.517059
1.5170795
1.5170568
1.5169857
1.5170233
1.5170097
1.5170461
1.5172133
1.5173864
1.5174197
1.5172368
1.5171538
1.5171894
1.5173398
1.5173522
1.5171472
1.5171917
1.5173194
1.517342
1.5169874
1.5170281
1.5170124
1.5170519
1.5169992
1.517066
1.5170255
1.5170912
1.5171581
1.517226
1.5173186
1.5173665
1.5182146
1.5180419
1.518078
1.5181872
1.518046
1.5180998
1.518243
1.5182028
1.5186885
1.5187006
1.5186121
1.5186279
1.5186159
1.5186388
1.5187002
1.5187161
1.5181684
1.5180167
1.5180605
1.5181278
1.5180261
1.5180763
1.5181998
1.5181545
1.5186676
1.5185909
1.5186135
1.5186451
1.5186013
1.518624
1.5186671
1.5186881
1.5181025
1.5179659
1.5180258
1.5180375
1.5179903
1.5180529
1.5181456
1.5180845
1.5186182
1.5185477
1.518583
1.5185805
1.5185708
1.5186035
1.5186147
1.5186476
1.5179325
1.5179592
1.5180019
1.5180506
1.5185582
1.5185804
1.5185138
1.5185265
1.5179737
1.5186456
1.5186179
1.5189
1.5189041
1.5185253
1.5187249
1.5187293
1.518783
1.5187925
1.5191088
1.5190932
1.5191377
1.5191509
1.5187202
1.5186755
1.5186645
1.5189441
1.5189332
1.5191246
1.5191196
1.519162
1.5191653
1.518214
1.5182577
1.5182326
1.5183364
1.5181559
1.5182019
1.5183129
1.5181776
1.5182408
1.5183696
1.5183289
1.5187477
1.5186592
1.5186786
1.5187407
1.5182881
1.518103
1.5181438
1.5182672
1.5181189
1.5181815
1.518321
1.5182797
1.5187275
1.518732
1.5186391
1.5186546
1.5186436
1.5186697
1.5187295
1.5187432
1.5182549
1.51807
1.5181091
1.5182316
1.5180793
1.5181325
1.5182783
1.5182433
1.5187228
1.5186272
1.5186436
1.5187148
1.5186313
1.5186515
1.5187204
1.5187304
1.5173821
1.5174488
1.5172505
1.5172723
1.5171093
1.517121
1.5171441
1.517156
1.5170564
1.5170516
1.51705
1.5170474
1.5170413
1.5170429
1.5170533
1.5170468
1.5196066
1.5183379
1.518189
1.5178436
1.5178985
1.5197123
1.5198602
1.5198522
1.5175082
1.5174607
1.5173841
1.517372
1.5171147
1.5171157
1.5171133
1.5171151
1.5171895
1.5171683
1.5171402
1.5171401
1.5199611
1.5199487
1.5200024
1.5199939
1.5201038
1.5200975
1.5200738
1.520063
1.5202443
1.5201912
1.5206546
1.5211341
1.5204633
1.5211979
1.5212405
1.5212471
1.521298
1.5212905
1.521239
1.5209735
1.5181707
1.518718
1.5165306
1.5168465
1.5164412
1.5166156
1.5161398
1.5161303
1.516196
1.5161079
1.5161194
1.5165303
1.5163832
1.516536
1.5163294
1.5165187
1.5177259
1.5177174
1.5177557
1.5180512
1.5178619
1.5174741
1.517537
1.5174372
1.516343
1.5165089
1.5163958
1.5165008
1.5162926
1.5161214
1.5161388
1.5161642
1.5161182
1.516099
1.5177403
1.517685
1.5175608
1.5174349
1.5176854
1.5183169
1.5176355
1.5182666
1.5176757
1.5177017
1.517654
1.5176073
1.5176233
1.5176308
1.51757
1.517557
1.5175979
1.5175821
1.5182281
1.5182063
1.5174308
1.5173779
1.5173191
1.5174053
1.5175099
1.5181592
1.5175356
1.5181932
1.517523
1.5175375
1.5174987
1.5174732
1.5174515
1.5173491
1.5180977
1.5179494
1.5165042
1.5166086
1.5164857
1.5166879
1.5164783
1.5167293
1.5162829
1.516309
1.5162825
1.5162358
1.5162143
1.5162679
1.5167835
1.51671
1.5166908
1.5168275
1.516466
1.5164733
1.5164399
1.5164004
1.5162531
1.5162634
1.5162454
1.5162198
1.5161771
1.5161971
1.5161923
1.5161678
1.5162374
1.5162436
1.5162027
1.5161881
1.5161491
1.5161628
1.5161508
1.5161343
1.5165206
1.5163066
1.5162407
1.5164358
1.5161798
1.5162022
1.5163901
1.5163661
1.5168507
1.5166807
1.5168834
1.5166835
1.5173999
1.5170376
1.5168002
1.5171164
1.516468
1.5164612
1.5163757
1.516358
1.5164212
1.5165723
1.5168468
1.5166618
1.5160882
1.5160894
1.5160721
1.5160709
1.5160636
1.5160634
1.5161079
1.5161208
1.516089
1.5161108
1.5161062
1.5160809
1.5161
1.5161049
1.5160967
1.5160854
1.5160733
1.5160713
1.5160644
1.5160605
1.5160499
1.5160574
1.5160566
1.5160483
1.5160486
1.5160566
1.5160506
1.5160576
1.5160896
1.5160947
1.5160774
1.5160699
1.5160527
1.5160578
1.5160452
1.5160517
1.5161084
1.5162823
1.5162757
1.5161015
1.5163328
1.5161493
1.5161262
1.516304
1.5160426
1.5160452
1.5160396
1.5160365
1.5160959
1.5160951
1.5162701
1.5162743
1.5162762
1.516099
1.5161012
1.5162889
1.516042
1.5160441
1.516036
1.5160384
1.5165185
1.5164351
1.5163549
1.516505
1.5163358
1.5165132
1.5162809
1.5162615
1.5161911
1.5162224
1.5161717
1.5162092
1.516067
1.5160737
1.5160642
1.5160622
1.5160569
1.516061
1.516068
1.516071
1.5160724
1.5160709
1.5160836
1.5160935
1.5160824
1.5160813
1.5160789
1.5160812
1.5160893
1.5160917
1.5160944
1.5160947
1.5160799
1.5160771
1.516075
1.5160785
1.5162992
1.5161326
1.5161358
1.5162988
1.5160859
1.5160876
1.5160945
1.5160941
1.5161554
1.5161465
1.5163103
1.5163249
1.5160582
1.5160528
1.5160478
1.5160547
1.5162908
1.5161091
1.5161153
1.5162905
1.5160626
1.5160656
1.5160695
1.5160677
1.5161269
1.5161244
1.5162946
1.5162995
1.5161053
1.5161002
1.516085
1.5160934
1.5160905
1.516089
1.5160756
1.5160716
1.5161656
1.5161569
1.5161456
1.5161617
1.5161941
1.5162007
1.5162081
1.5162085
1.5162979
1.5163142
1.5163333
1.5163345
1.5165542
1.5165022
1.5164896
1.5165931
1.5161595
1.5161393
1.5161328
1.5161571
1.5163547
1.5161885
1.5162148
1.5163773
1.5161874
1.5161908
1.5162093
1.5162104
1.5162723
1.5162467
1.5164065
1.5164356
1.5162825
1.51629
1.5163369
1.516339
1.5164748
1.5164828
1.5166174
1.5166358
1.5164935
1.5163377
1.516404
1.5165572
1.5167472
1.516545
1.516702
1.5169266
1.5214948
1.5214393
1.5219244
1.5209335
1.5213043
1.5218095
1.5212916
1.5220304
1.5220259
1.5220703
1.52208
1.5220607
1.5220739
1.5218356
1.5218412
1.5219478
1.5219233
1.5219864
1.5220227
1.5215204
1.5213314
1.5214278
1.521728
1.5220256
1.5219821
1.5217927
1.5217501
1.5218028
1.5214702
1.5216422
1.5213693
1.5187135
1.5185878
1.5190588
1.5188268
1.5184354
1.5180092
1.5179702
1.5180441
1.5192774
1.5185023
1.5180206
1.5179172
1.5191264
1.5196075
1.5198703
1.5190343
1.5201165
1.5190967
1.520356
1.5194348
1.5183457
1.5184599
1.5184111
1.5182104
1.5184553
1.5188667
1.5181855
1.5186252
1.5178547
1.5178408
1.5177872
1.5177632
1.5179671
1.5184993
1.5178691
1.5184373
1.5179333
1.5179846
1.5179387
1.5178503
1.5178106
1.5177795
1.5184036
1.5183687
1.5166212
1.5166058
1.5166434
1.5166738
1.5167848
1.5167371
1.517107
1.5169196
1.5165421
1.5165507
1.5165381
1.5165477
1.5165384
1.5165454
1.5165471
1.5165674
1.5195987
1.5185982
1.5185539
1.5195895
1.5183951
1.5184719
1.5194873
1.5194451
1.5174756
1.5177818
1.5171631
1.5170025
1.5197162
1.5186869
1.5186605
1.5197167
1.5186295
1.5186323
1.519706
1.5197041
1.5167252
1.5168134
1.5166618
1.516674
1.5165652
1.5166009
1.516538
1.516539
1.5165409
1.5165317
1.5165413
1.51656
1.5187796
1.5188227
1.5198364
1.5198355
1.5187242
1.518729
1.5198203
1.5198209
1.5186932
1.5186721
1.5197855
1.5197857
1.5197727
1.5186655
1.51868
1.5197724
1.5189377
1.5188949
1.5199316
1.5199264
1.5199151
1.5188566
1.5188597
1.5199164
1.5188239
1.5188467
1.5198926
1.519893
1.5188323
1.5188164
1.5198814
1.5198821
1.5213148
1.5212125
1.5212834
1.5212
1.5212143
1.5210759
1.5211397
1.5210879
1.5190773
1.5192046
1.5200996
1.5200735
1.5189927
1.5190051
1.5200176
1.5200123
1.5201495
1.5205549
1.5206393
1.5205698
1.5194462
1.5197111
1.5203536
1.5203122
1.5213905
1.5213725
1.5212586
1.5212668
1.5213686
1.5213618
1.5212536
1.5212518
1.5213201
1.5214487
1.5214492
1.5213166
1.5214436
1.5214342
1.5213071
1.5213101
1.5193921
1.5191722
1.519421
1.519233
1.5195676
1.5196022
1.51955
1.5195884
1.5195659
1.5196248
1.5195512
1.5196136
1.519396
1.519454
1.5192001
1.519287
1.5196652
1.519642
1.5199947
1.5197193
1.5196895
1.5194604
1.5192267
1.5197373
1.5195099
1.5192545
1.5195961
1.5196133
1.5195734
1.5195959
1.5194062
1.5191606
1.5194248
1.5192131
1.5199384
1.5196637
1.5197949
1.5197708
1.5201815
1.5198477
1.5198193
1.5197532
1.519723
1.5201542
1.5198064
1.5197703
1.5197177
1.5197425
1.5196925
1.5197218
1.5196762
1.5197015
1.5196466
1.5196762
1.5201155
1.5200889
1.5196875
1.5197556
1.5196671
1.5197389
1.5196471
1.5196885
1.5196215
1.519666
1.5196884
1.5197303
1.5196661
1.5197117
1.5196445
1.5197132
1.5196209
1.5196918
1.5197052
1.5199484
1.5199629
1.5197218
1.5201363
1.5201087
1.5200881
1.5201136
1.5198914
1.5198722
1.5199804
1.5199653
1.5199208
1.5199138
1.5200098
1.5200047
1.5199623
1.5199467
1.5200905
1.5200793
1.5199929
1.5199859
1.5201188
1.5201145
1.520062
1.5199989
1.5201461
1.520093
1.5202924
1.5205558
1.5205876
1.5203745
1.521094
1.52117
1.5211955
1.5211348
1.5201343
1.5200749
1.5202541
1.5202067
1.5203651
1.5205934
1.5206491
1.5204713
1.5197939
1.5198589
1.5197694
1.5198374
1.5198237
1.5198886
1.5198135
1.5198816
1.5198553
1.5198469
1.5199454
1.51994
1.5198253
1.5198029
1.5199167
1.5198978
1.5210783
1.5211624
1.5211632
1.5210918
1.5199569
1.52002
1.5198944
1.5199631
1.5199931
1.5199287
1.520081
1.5200246
1.5204802
1.5205093
1.5201705
1.5202402
1.5202208
1.5205131
1.5205512
1.5203061
1.5212144
1.5212132
1.5212084
1.5212094
1.5212216
1.5212445
1.5212155
1.5212391
1.5211988
1.5211812
1.5211852
1.5211948
1.5211418
1.521158
1.5210011
1.5210963
1.5211116
1.5210152
1.5210268
1.521044
1.5211486
1.5211341
1.5210694
1.5209126
1.5204412
1.5204769
1.5201234
1.5201944
1.5199252
1.5198697
1.5199639
1.5199116
1.520409
1.5204371
1.520102
1.520153
1.5199241
1.5199898
1.5198645
1.5199346
1.5199464
1.5199731
1.5198947
1.5199242
1.5203777
1.520406
1.5200993
1.5201385
1.5203861
1.5201542
1.5203918
1.5205016
1.5201793
1.5200126
1.5199669
1.5203839
1.5200087
1.5200554
1.5204388
1.5203202
1.519797
1.5197841
1.5198631
1.5198539
1.5197724
1.5197432
1.5198113
1.5197855
1.5198044
1.519843
1.5197894
1.5198315
1.5197654
1.5197386
1.5198328
1.5198089
1.5198027
1.5198272
1.5197696
1.5197981
1.519835
1.5198591
1.5198173
1.5198454
1.5199095
1.5198929
1.5203118
1.519959
1.5199388
1.5198775
1.5198442
1.5202834
1.5199281
1.5198899
1.5202516
1.5202217
1.5204389
1.5204055
1.5203146
1.5203399
1.520228
1.520256
1.5202756
1.5202471
1.5212578
1.5212884
1.5212948
1.5212645
1.5208893
1.5204133
1.520379
1.5203212
1.5203424
1.5202923
1.5202792
1.5202586
1.520267
1.5201455
1.5201277
1.5197783
1.5197593
1.5198668
1.5198515
1.5198223
1.5199098
1.5198088
1.5198995
1.5198948
1.5200158
1.5198835
1.5200082
1.5198512
1.519835
1.5199752
1.5199629
1.5195505
1.5194189
1.5193165
1.5194736
1.5195954
1.5195835
1.5196539
1.5196449
1.51926
1.519435
1.5194869
1.5193385
1.5196305
1.5197077
1.5197005
1.5196206
1.5197549
1.5198445
1.5197392
1.5198322
1.5196762
1.5196537
1.5197422
1.5197224
1.5197193
1.5197853
1.5197013
1.5197709
1.5197106
1.5196896
1.5198013
1.5197832
1.5197599
1.519867
1.5197516
1.5198607
1.5195422
1.5194027
1.5196098
1.5194966
1.519692
1.5197679
1.5196835
1.5197611
1.5196068
1.5194855
1.5197146
1.5196174
1.5170966
1.5171362
1.517156
1.5171197
1.5173237
1.5172402
1.5172784
1.5173489
1.5172009
1.5171292
1.517182
1.5171511
1.5173489
1.5173828
1.5172714
1.5173182
1.5170083
1.5169608
1.5169974
1.5169734
1.5169927
1.517041
1.5170516
1.5170046
1.5170419
1.5169976
1.5170335
1.5170078
1.5170296
1.5170765
1.5170389
1.5170844
1.5170792
1.5170354
1.5170689
1.5170473
1.5171209
1.5170629
1.5170743
1.5171315
1.5170811
1.5171127
1.517072
1.5171048
1.5171552
1.5170998
1.517109
1.5171644
1.5171747
1.5172119
1.5172301
1.517196
1.5172641
1.517204
1.5172246
1.517283
1.5173114
1.5173829
1.5173469
1.5174062
1.5173936
1.5174062
1.5174503
1.51734
1.5168965
1.5169304
1.5169328
1.5168991
1.5169053
1.5169003
1.5169344
1.5169384
1.5169282
1.5169719
1.5169741
1.5169304
1.5169364
1.5169321
1.5169762
1.5169797
1.5169378
1.5169817
1.5169801
1.5169358
1.5169382
1.5169049
1.5169392
1.516904
1.5169017
1.5169357
1.5169371
1.5169039
1.5169334
1.5169775
1.5169785
1.5169347
1.5169799
1.5170111
1.5170089
1.5169775
1.5169749
1.5170061
1.517007
1.516976
1.51706
1.5170093
1.5170628
1.517006
1.5170031
1.5170562
1.5170579
1.5170042
1.5169691
1.5170001
1.5170022
1.5169715
1.5169777
1.5169737
1.517005
1.5170085
1.5169972
1.51705
1.5170519
1.5169993
1.5170062
1.5170022
1.5170553
1.5170598
1.5169533
1.5169921
1.5170143
1.5169778
1.5172051
1.5171103
1.5171473
1.5172319
1.5169812
1.5170293
1.5170512
1.5170055
1.517229
1.5171353
1.5171788
1.5172614
1.5168259
1.516861
1.5168728
1.5168386
1.5168605
1.5168955
1.5169032
1.5168688
1.5168522
1.5168957
1.5169077
1.5168652
1.5168879
1.5169306
1.5169387
1.5168969
1.5169325
1.5168878
1.516921
1.5169009
1.516915
1.5169653
1.5169767
1.5169274
1.516965
1.5169239
1.5169564
1.5169334
1.516951
1.5170009
1.5169612
1.5170096
1.5170196
1.5170565
1.5170778
1.5170437
1.5172599
1.5171685
1.5172045
1.5172846
1.5171028
1.5171237
1.5170486
1.5170719
1.5172849
1.5171965
1.5172466
1.5173221
1.5168629
1.5168305
1.5168624
1.5168315
1.5168597
1.516906
1.5169058
1.5168591
1.5168312
1.5168624
1.5168293
1.5168604
1.5168566
1.5169036
1.516859
1.5169057
1.5167627
1.5167959
1.5168001
1.5167669
1.5167667
1.5167995
1.5168026
1.51677
1.5168336
1.5167896
1.5168298
1.5167935
1.5168367
1.516793
1.5168331
1.5167969
1.5168041
1.5167681
1.5168015
1.5167709
1.5167953
1.5168357
1.5168375
1.5167973
1.516802
1.5167677
1.5168008
1.5167685
1.5167944
1.5168349
1.5167959
1.5168364
1.5168243
1.5168555
1.5168584
1.5168278
1.5168276
1.5168586
1.5168321
1.5168628
1.5168983
1.5169009
1.5168519
1.5168542
1.5168599
1.5168548
1.516902
1.5169061
1.5171724
1.5171515
1.5172986
1.5172651
1.5168588
1.516844
1.5167196
1.5167106
1.5177636
1.5177279
1.5174365
1.5174984
1.5167102
1.517144
1.5173223
1.5174295
1.5173742
1.517271
1.5168664
1.5169832
1.5169591
1.5168446
1.517473
1.5174536
1.517543
1.517382
1.5169591
1.5170984
1.5169913
1.5170642
1.5165731
1.5165701
1.5166816
1.5166797
1.5166264
1.5166242
1.5165208
1.5165194
1.5171517
1.5172069
1.5172499
1.5171977
1.5165233
1.5165732
1.516682
1.5167752
1.5167701
1.5166772
1.5166243
1.5167139
1.5167092
1.516621
1.5168604
1.5167749
1.5167655
1.5168505
1.516703
1.5167851
1.5167104
1.5167938
1.5177118
1.5176813
1.5174487
1.5173954
1.5171429
1.5171935
1.5172208
1.5171718
1.5164544
1.5164531
1.5165487
1.5165494
1.5165243
1.5165238
1.5164265
1.5164259
1.5170145
1.5170293
1.5170655
1.5170531
1.5164286
1.5164559
1.5165464
1.516546
1.5166261
1.516626
1.5166223
1.5166952
1.5166935
1.5166204
1.5166021
1.5165214
1.5166033
1.5165208
1.516599
1.516674
1.5165964
1.5166708
1.51651
1.5165126
1.5165911
1.5165943
1.516589
1.5166611
1.5166634
1.5165868
1.5165041
1.516504
1.5165843
1.5165853
1.5165816
1.5165797
1.516656
1.5166531
1.5164169
1.5164167
1.5165129
1.5165152
1.5165064
1.5165059
1.51641
1.5164098
1.5169995
1.5170369
1.5170265
1.5169887
1.5164123
1.5164194
1.5169854
1.5169956
1.5170087
1.5170186
1.5170104
1.517025
1.5170476
1.5170349
1.5166561
1.5167092
1.5167113
1.5166576
1.5166481
1.5166517
1.5167047
1.5167011
1.5167565
1.5167023
1.516754
1.5167039
1.5166946
1.516747
1.5166985
1.5167504
1.5167402
1.5166907
1.5167433
1.5166871
1.516737
1.5167885
1.5167848
1.5167322
1.5167182
1.5166688
1.5167224
1.5166646
1.5167151
1.5167679
1.5167104
1.5167637
1.5168159
1.5167822
1.5168203
1.5167771
1.5168604
1.5168133
1.5168073
1.5168554
1.5167563
1.5167954
1.5167605
1.5167988
1.5168384
1.5167906
1.516787
1.5168355
1.5167471
1.516785
1.516788
1.5167496
1.5168241
1.5167772
1.5167801
1.5168274
1.5167442
1.516741
1.5167818
1.5167793
1.5168214
1.5167724
1.5168196
1.5167747
1.516908
1.5168595
1.5169219
1.5168454
1.5169194
1.51698
1.5169625
1.5169008
1.5167892
1.5167781
1.5168489
1.5168377
1.5168419
1.5168287
1.5169018
1.5168892
1.5175664
1.5174806
1.5176344
1.5175499
1.5175543
1.5176169
1.5176567
1.5177154
1.5171406
1.5171055
1.5171823
1.5170633
1.5171875
1.5171367
1.5172623
1.5172133
1.5177373
1.5176207
1.5177834
1.5176723
1.5176753
1.5177301
1.5178047
1.5178494
1.5172097
1.517268
1.5172673
1.5173224
1.5173269
1.5172639
1.5173913
1.5173336
1.5170027
1.5169778
1.5170237
1.5169558
1.5170768
1.5170211
1.5169953
1.5170524
1.5168807
1.5169257
1.5168949
1.5169388
1.516987
1.5169312
1.5169164
1.5169734
1.5176667
1.5176359
1.51741
1.5173597
1.5176226
1.5175931
1.5173374
1.5173784
1.5172033
1.5171859
1.5171468
1.5171636
1.5171367
1.5171818
1.5172106
1.5171657
1.5170257
1.5170384
1.5170513
1.5170396
1.5170259
1.5170104
1.5170244
1.5170469
1.5170345
1.5170187
1.5169969
1.5169862
1.5170096
1.5169631
1.5169643
1.5169874
1.5169856
1.5169876
1.516995
1.5169593
1.516962
1.5169834
1.5169806
1.5169612
1.5169931
1.5169893
1.5169571
1.5169824
1.5169618
1.5169694
1.5169885
1.516965
1.5169592
1.5169916
1.516995
1.5174463
1.5172336
1.5172656
1.5174515
1.5170775
1.5170536
1.5170795
1.5171007
1.5170888
1.5170527
1.5170754
1.5171099
1.5174326
1.5172364
1.5172731
1.5174449
1.517083
1.5169246
1.5169599
1.5169504
1.5169145
1.5168968
1.5169313
1.5168946
1.5169298
1.5169984
1.5169588
1.5170092
1.5169465
1.5169256
1.5169771
1.5169271
1.5169786
1.5168548
1.5168909
1.5168845
1.516848
1.5168314
1.5168672
1.5168648
1.5168285
1.5169208
1.5168851
1.5169287
1.5168766
1.516901
1.5168595
1.5169032
1.5168569
1.516918
1.516882
1.5169158
1.5168845
1.5169123
1.5169612
1.5169633
1.516914
1.5168804
1.5169139
1.5168805
1.5169138
1.5169107
1.5169596
1.5169113
1.51696
1.5168154
1.5168139
1.5168491
1.5168502
1.5168174
1.5168528
1.5168559
1.5168206
1.5168483
1.5168455
1.5168879
1.5168907
1.5168858
1.5168435
1.5168427
1.5168852
1.5170918
1.5170762
1.5171194
1.5170468
1.5171192
1.5171695
1.517139
1.5170858
1.5170094
1.516981
1.5170232
1.5169659
1.517017
1.517069
1.5170014
1.5170549
1.5178718
1.517735
1.5179086
1.5177829
1.5177877
1.5178377
1.5179314
1.5179676
1.5173875
1.5173975
1.5174465
1.517332
1.5174527
1.5173859
1.5175108
1.517451
1.5179922
1.5178923
1.5180243
1.5178445
1.5180527
1.5179025
1.518086
1.5179544
1.517452
1.5175059
1.5175189
1.5175651
1.5176385
1.5175768
1.5175108
1.5175806
1.5171794
1.5171716
1.5172131
1.5171352
1.5172759
1.5172186
1.5171786
1.5172405
1.5170492
1.5170927
1.5170649
1.5171065
1.5171672
1.5171054
1.5170902
1.5171536
1.5172844
1.5173276
1.517291
1.5172432
1.5171541
1.5171694
1.5172148
1.5172013
1.5173365
1.5173887
1.5173515
1.5172933
1.5172008
1.5172166
1.5172754
1.5172617
1.5181163
1.5181429
1.5180129
1.5179669
1.5176521
1.5176965
1.517641
1.5175874
1.5181735
1.518198
1.5180709
1.5180248
1.5177102
1.5177662
1.5177133
1.5176472
1.5182282
1.5182487
1.5181234
1.5180823
1.5177793
1.5178196
1.5177697
1.5177197
1.5182803
1.5183078
1.5181824
1.5181349
1.5178331
1.5178918
1.5178443
1.517776
1.5173976
1.5174367
1.5173986
1.5173539
1.5172619
1.5172775
1.5173203
1.5173071
1.5174461
1.5175052
1.517466
1.517401
1.5173073
1.5173225
1.5173892
1.5173775
1.5171004
1.5171203
1.5171353
1.5170838
1.5171928
1.5171376
1.5171188
1.5171759
1.5170934
1.5170604
1.5170956
1.5170581
1.5171492
1.5170937
1.5170911
1.5171483
1.5170112
1.5170493
1.517037
1.5169978
1.5170987
1.5170513
1.5170358
1.5170852
1.5169776
1.516976
1.5170154
1.5170138
1.5170623
1.5170116
1.5170604
1.5170138
1.5169598
1.5169959
1.5169975
1.5169617
1.5169587
1.5169582
1.5169936
1.5169937
1.5170411
1.5169938
1.5170399
1.516995
1.5169913
1.5170373
1.5169913
1.5170375
1.5170376
1.5170387
1.5170711
1.5170722
1.5171233
1.5170696
1.5171245
1.5170688
1.5170353
1.5170686
1.5170683
1.5170351
1.517122
1.5170663
1.5171215
1.5170659
1.5167394
1.5167009
1.5167364
1.5167034
1.5167295
1.5167741
1.5167772
1.5167323
1.5166984
1.5167347
1.5166993
1.516735
1.5167283
1.5167734
1.5167283
1.5167738
1.5166092
1.5166588
1.5166617
1.5166117
1.5166165
1.5166162
1.5166647
1.5166649
1.5167048
1.5166525
1.5167013
1.5166551
1.5166589
1.5167072
1.5166582
1.5167064
1.5166671
1.5166153
1.516665
1.5166167
1.5166586
1.5167073
1.5167099
1.5166603
1.5166601
1.5166115
1.5166618
1.5166097
1.5166558
1.5167052
1.516654
1.5167041
1.516695
1.5167305
1.5167346
1.5166987
1.5167001
1.516735
1.5167017
1.5167369
1.5167685
1.5167728
1.5167237
1.5167278
1.5167308
1.5167282
1.5167725
1.516775
1.5164735
1.5164769
1.5165487
1.516553
1.5165477
1.5166139
1.5166173
1.5165444
1.5164835
1.5164852
1.5165586
1.5165574