/*--------------------------------*- C++ -*----------------------------------*\
  =========                 |
  \\      /  F ield         | OpenFOAM: The Open Source CFD Toolbox
   \\    /   O peration     | Website:  https://openfoam.org
    \\  /    A nd           | Version:  7
     \\/     M anipulation  |
\*---------------------------------------------------------------------------*/
FoamFile
{
    version     2.0;
    format      ascii;
    class       volScalarField;
    location    "10000";
    object      nut;
}
// * * * * * * * * * * * * * * * * * * * * * * * * * * * * * * * * * * * * * //

dimensions      [0 2 -1 0 0 0 0];

internalField   nonuniform List<scalar> 
33730
(
2.1344481e-57
2.0342299e-58
1.6334536e-56
9.3699247e-58
3.2240007e-58
8.7211485e-58
2.6208072e-57
2.0941153e-58
1.5274032e-58
8.4754542e-59
8.1727269e-59
1.713252e-58
1.7741708e-58
1.6952086e-58
4.4433097e-57
4.8016571e-57
9.2576517e-57
4.887951e-58
2.8811588e-58
4.8734966e-58
5.7533015e-58
4.6328786e-58
5.1656467e-58
2.3115245e-58
9.6539349e-58
3.1211925e-58
9.3268198e-58
2.7798217e-58
2.0198904e-58
5.7484772e-57
1.5250933e-58
7.4967563e-59
4.5519745e-59
1.2086851e-58
1.1608251e-58
1.5216822e-58
1.3830313e-58
7.4103741e-59
4.3650452e-59
1.5935393e-58
1.4703879e-58
1.3421018e-58
1.4873624e-58
8.8208918e-59
1.1667365e-58
3.6807302e-58
6.7091957e-59
7.4550269e-59
5.0852337e-58
1.6396932e-58
3.1512375e-58
5.7625122e-59
6.6405311e-59
4.2634192e-58
4.1603405e-57
3.1488475e-58
2.447892e-57
3.2425961e-58
2.5188671e-57
3.4556278e-58
2.4592577e-57
3.2813015e-58
2.4714726e-57
1.2427599e-56
1.53284e-58
3.8904718e-57
1.9819832e-58
1.9514934e-58
1.8524771e-58
1.7829048e-58
1.8555948e-58
1.4547541e-58
2.04321e-58
1.6734359e-58
1.7420135e-58
5.2952005e-58
1.4709164e-58
2.0020686e-58
1.6706309e-58
2.0490275e-58
2.0414818e-58
1.9158031e-58
1.8216193e-58
9.2874323e-58
5.3850783e-58
6.7970649e-58
5.4920828e-58
4.9515143e-58
1.0766684e-57
2.4730537e-58
4.1864834e-58
2.7909069e-58
1.0172974e-57
1.6347133e-58
4.8734765e-59
9.4558935e-59
5.2904531e-59
1.1863892e-58
1.1524036e-58
1.1743968e-58
1.2262597e-58
7.2832536e-59
9.9515846e-59
1.1238299e-58
1.0689251e-58
1.1151126e-58
5.4719819e-59
5.576378e-59
7.2822593e-59
7.3351769e-59
2.34222e-59
2.3353907e-59
1.1176137e-58
1.1889181e-58
1.2962618e-58
1.2294833e-58
8.0506273e-59
5.7631851e-59
5.752476e-59
7.4333361e-59
4.3809632e-59
4.9176585e-59
4.3922118e-59
4.2091161e-59
2.8012157e-59
8.9313927e-59
5.8692802e-59
5.8456702e-59
1.0348476e-58
1.0572454e-58
9.5873393e-59
1.0042842e-58
9.3303444e-59
1.4505088e-58
1.0076353e-58
1.0449402e-58
1.1059223e-58
1.7852275e-58
1.4710508e-58
1.395679e-58
1.1760417e-58
7.8685415e-59
9.4522722e-59
1.2056828e-58
1.0762985e-58
1.1025745e-58
1.2546339e-58
3.2628164e-58
6.5817189e-59
7.0083493e-59
4.0983734e-58
1.2120141e-58
9.7827848e-59
1.017888e-58
1.1627856e-58
3.0503726e-58
3.1702933e-58
2.4509693e-57
2.4224898e-57
1.4213088e-58
1.3770999e-58
1.839763e-58
1.9599279e-58
2.470654e-58
2.4643784e-58
9.686713e-58
9.0935808e-58
1.4179305e-58
1.442897e-58
1.9406543e-58
1.8888688e-58
2.4722656e-58
2.3928025e-58
9.642638e-58
9.036049e-58
1.5018972e-58
1.5094107e-58
2.0060214e-58
1.9298614e-58
2.36202e-58
2.3852686e-58
9.4799862e-58
8.9592573e-58
1.4505911e-58
1.386586e-58
1.9772084e-58
1.826567e-58
2.4701987e-58
2.4016097e-58
9.459034e-58
8.7414222e-58
1.3922326e-58
1.5851995e-58
3.5966942e-57
3.9563298e-57
2.7806482e-58
5.5460632e-59
6.3221298e-59
3.8242679e-58
2.7711684e-58
2.9426485e-58
2.2779832e-57
2.4508825e-57
8.4393923e-59
7.8934473e-59
8.6572078e-59
7.8115284e-59
8.5264705e-59
8.0951046e-59
7.9348569e-59
8.3198468e-59
7.8887471e-59
8.4678587e-59
7.1927576e-59
7.5986092e-59
8.9501295e-59
8.289895e-59
8.9779963e-59
7.9699186e-59
1.9655021e-58
7.3787088e-59
7.8267705e-59
6.742852e-59
7.0204654e-59
1.9854137e-58
1.9305509e-58
1.8276521e-58
8.4643717e-59
7.8164443e-59
8.6421832e-59
7.6008999e-59
8.5604712e-59
8.8514095e-59
7.8405033e-59
7.7236037e-59
8.7163996e-59
8.2254404e-59
7.7512527e-59
8.228347e-59
1.9739793e-58
2.1684982e-58
1.6447807e-58
1.7732472e-58
2.1866574e-58
2.2523982e-58
1.7076867e-58
1.6890197e-58
5.6492154e-58
1.4813548e-58
2.175309e-58
1.9006884e-58
1.2690196e-58
3.5277162e-58
5.7263021e-58
4.982299e-58
5.8349957e-58
2.9725289e-58
8.0055508e-59
5.976539e-59
6.1379838e-59
7.6596882e-59
2.3594414e-59
1.1646346e-58
1.2573139e-58
1.2011017e-58
1.1982928e-58
8.4020523e-59
5.2949068e-59
9.2449638e-59
6.1666982e-59
9.2248826e-59
6.3800703e-59
2.401526e-59
1.2375427e-58
9.4648754e-59
1.1415073e-58
1.0335134e-58
9.3571296e-59
9.8027721e-59
9.6848849e-59
9.1853404e-59
8.8694937e-59
8.8409961e-59
8.1950247e-59
8.6725571e-59
6.7447548e-59
6.7696682e-59
6.8936915e-59
6.7817735e-59
6.2907517e-59
6.4191525e-59
6.4345203e-59
6.2172341e-59
4.019769e-59
4.2946035e-59
4.2953187e-59
4.3762813e-59
2.9049152e-59
4.2446175e-59
4.2890458e-59
4.2816772e-59
3.9903042e-59
2.690434e-59
4.8001441e-59
5.0392586e-59
4.8141674e-59
4.4971098e-59
4.9820651e-59
4.8225118e-59
4.5495493e-59
4.6907027e-59
2.8017918e-59
2.8065796e-59
2.7594351e-59
2.6730775e-59
6.8412873e-59
6.6777551e-59
6.5628473e-59
6.4222544e-59
6.4289846e-59
6.0788567e-59
6.1489295e-59
6.4094686e-59
9.1840682e-59
8.8902633e-59
9.2391284e-59
9.632492e-59
1.0675173e-58
9.9341525e-59
9.2817121e-59
1.0001964e-58
4.8615012e-59
5.6223846e-59
5.7864961e-59
4.6787844e-59
5.2087596e-59
5.279256e-59
4.2991918e-59
4.4188794e-59
4.3860777e-59
4.8842808e-59
4.4462368e-59
4.901249e-59
5.4396985e-59
5.4584788e-59
5.0137194e-59
4.993397e-59
4.2426322e-59
3.3856113e-59
4.2525476e-59
3.4041535e-59
4.026053e-59
3.587673e-59
4.024855e-59
3.5950114e-59
3.1851916e-59
2.9426735e-59
3.2357504e-59
2.9497277e-59
2.4216924e-59
2.4492315e-59
2.8596446e-59
3.4748323e-59
2.7969368e-59
2.6315578e-59
3.5991427e-59
3.0485633e-59
4.15e-59
4.1863351e-59
4.0642019e-59
3.655861e-59
4.0619697e-59
3.97109e-59
3.1493174e-59
3.9551446e-59
3.1323404e-59
4.1086156e-59
3.4746816e-59
4.1232348e-59
3.4787128e-59
5.2983583e-59
5.4171379e-59
5.3200409e-59
5.2875805e-59
4.990679e-59
5.2064856e-59
5.5188121e-59
5.4560169e-59
4.7003915e-59
4.833564e-59
9.8975317e-59
1.0704047e-58
5.2202086e-59
5.2289875e-59
5.4068766e-59
5.2325839e-59
5.414601e-59
5.4451943e-59
1.0736214e-58
1.0320871e-58
1.0531342e-58
1.0447719e-58
1.0162259e-58
9.0517344e-59
1.7807318e-58
1.6315926e-58
1.7558547e-58
9.1936783e-59
1.1134192e-58
1.1220235e-58
1.2787963e-58
3.2135815e-58
1.524295e-58
1.5030077e-58
1.5115191e-58
1.2032778e-58
5.2346401e-58
1.6781628e-58
1.5760078e-58
1.1577656e-58
9.7822854e-59
1.0236628e-58
1.1615946e-58
3.1015585e-58
1.5305136e-58
1.5279155e-58
1.5012751e-58
1.2876131e-58
3.0161147e-58
1.5814047e-58
1.5362661e-58
1.7694977e-58
1.2847582e-58
1.9285866e-58
1.3627872e-58
1.3797413e-58
1.4046178e-58
1.8413077e-58
1.9402708e-58
9.3501796e-58
2.3275381e-58
2.3351573e-58
9.7945153e-58
2.3767063e-58
9.5175896e-58
2.4167565e-58
8.8178388e-58
8.7376709e-59
8.7521995e-59
8.6581214e-59
8.7284702e-59
1.1009021e-58
1.1021675e-58
8.7817774e-59
8.6835493e-59
1.0745167e-58
1.1226461e-58
9.2183228e-59
9.0316755e-59
2.0784372e-58
2.1284384e-58
8.836911e-59
1.9153027e-58
9.246436e-59
2.0540002e-58
8.6768314e-59
8.6713964e-59
1.1004869e-58
8.5724474e-59
1.1020717e-58
8.7438693e-59
1.1148096e-58
1.0617007e-58
8.6648688e-59
8.5308256e-59
8.755286e-59
9.0589722e-59
2.1354766e-58
2.0633524e-58
8.6085101e-59
2.1001547e-58
2.0767861e-58
8.9250168e-59
8.8549632e-59
8.7953831e-59
1.0737608e-58
1.0867754e-58
8.409526e-59
8.6333644e-59
1.1180069e-58
1.0727176e-58
8.6305805e-59
8.5714799e-59
8.9404951e-59
2.0411212e-58
8.7936989e-59
2.0882225e-58
8.4690637e-59
1.9728586e-58
8.9783204e-59
2.0897931e-58
8.6018492e-59
8.4436503e-59
1.1136342e-58
1.1135287e-58
8.6283197e-59
8.7744524e-59
1.1271831e-58
1.0830416e-58
8.802189e-59
8.6715926e-59
8.6321841e-59
1.9756733e-58
8.9458143e-59
2.086653e-58
8.8934139e-59
8.5742945e-59
2.0491492e-58
2.027649e-58
5.9716767e-59
4.9995126e-59
3.1249916e-58
7.5557712e-59
6.6674265e-59
2.8518595e-58
3.477013e-58
2.6712235e-58
2.3712394e-57
2.8671711e-58
2.9410371e-58
2.3310832e-57
2.3939154e-57
1.1195989e-58
8.9313212e-59
9.6866418e-59
1.1379007e-58
1.3185612e-58
1.25238e-58
1.7787421e-58
1.931437e-58
1.3612789e-58
1.8858188e-58
1.3490551e-58
1.9482231e-58
2.2771112e-58
9.2967001e-58
2.3218867e-58
9.9548155e-58
2.345934e-58
9.986822e-58
2.4248876e-58
9.509126e-58
6.2699163e-59
5.9881509e-59
2.2306522e-59
2.2718411e-59
2.2731201e-59
6.572745e-59
6.309502e-59
2.1695804e-59
6.1918444e-59
6.1114328e-59
2.2068982e-59
2.2220696e-59
5.9458878e-59
6.3398627e-59
2.2287956e-59
2.1270155e-59
6.043894e-59
5.7399885e-59
2.1126733e-59
2.1984949e-59
6.5821344e-59
6.2988594e-59
2.2275718e-59
2.2381798e-59
6.5144553e-59
6.2814085e-59
2.2959484e-59
2.3631972e-59
6.9065259e-59
6.5995027e-59
2.4035459e-59
2.3058799e-59
8.4096448e-59
8.0094666e-59
7.6501003e-59
8.0797977e-59
5.5769766e-59
5.3338789e-59
1.9469152e-59
2.0268862e-59
5.9803818e-59
5.7674978e-59
2.0423999e-59
2.055448e-59
8.3032824e-59
8.5103674e-59
7.621235e-59
7.5207702e-59
6.252071e-59
6.0354571e-59
2.145364e-59
2.226789e-59
6.5014778e-59
6.7096112e-59
2.2909739e-59
2.2146917e-59
6.5996943e-59
6.2487743e-59
2.2645639e-59
2.3204418e-59
6.6734255e-59
6.8119096e-59
2.3616711e-59
2.293796e-59
6.2126956e-59
2.2327834e-59
2.1944647e-59
6.5104853e-59
6.4451002e-59
6.0286645e-59
2.2033998e-59
2.1977372e-59
8.2831197e-59
8.8282369e-59
7.7695871e-59
7.4365079e-59
9.2692175e-59
9.3916794e-59
8.2290191e-59
8.6046947e-59
8.9759314e-59
9.3738971e-59
8.0100334e-59
8.088809e-59
8.8693725e-59
9.5549143e-59
9.4577731e-59
8.553229e-59
2.1848097e-58
2.1600749e-58
1.5901615e-58
1.6026598e-58
9.1279136e-59
9.2651524e-59
7.9108287e-59
8.1021249e-59
6.5281607e-59
7.6674482e-59
8.2551122e-59
6.9642275e-59
1.5049752e-58
2.0366586e-58
2.3297084e-58
1.6332798e-58
2.2845377e-58
1.6320607e-58
2.3306189e-58
1.6402037e-58
4.9903203e-59
5.0251414e-59
4.5615934e-59
4.4793832e-59
4.158596e-59
4.2255776e-59
4.2057791e-59
4.1969907e-59
2.5882747e-59
4.2175106e-59
4.4333946e-59
4.4549298e-59
4.423919e-59
2.9824454e-59
4.9095043e-59
5.0979382e-59
5.1066565e-59
4.8189329e-59
2.6551783e-59
2.8593373e-59
8.7794935e-59
8.9431882e-59
8.7794581e-59
9.0569702e-59
8.6438049e-59
8.0779848e-59
1.1073527e-58
8.7425039e-59
7.9741466e-59
6.6182996e-59
6.6058942e-59
6.4232681e-59
6.4332244e-59
1.0614844e-58
6.5060078e-59
6.3395417e-59
6.0982601e-59
5.8389094e-59
1.1172075e-58
1.1716982e-58
8.4741182e-59
6.3281416e-59
6.5937095e-59
8.4231141e-59
2.4191842e-59
4.5507478e-59
5.2425727e-59
5.0383101e-59
4.6973586e-59
4.5077676e-59
4.4109917e-59
4.1198353e-59
4.3379332e-59
2.9895345e-59
4.8955313e-59
5.2515695e-59
5.2913273e-59
4.7011223e-59
4.5258665e-59
4.5624264e-59
4.3287934e-59
4.3212285e-59
2.792285e-59
3.0324646e-59
3.0708205e-59
1.2907379e-58
1.3833571e-59
1.3640101e-59
9.6547806e-59
9.6922272e-59
1.0201659e-58
1.0420361e-58
5.8770199e-59
6.0661013e-59
6.0355366e-59
5.9569279e-59
6.6669459e-59
6.606857e-59
6.5492072e-59
6.6230924e-59
1.0219143e-58
8.7391022e-59
9.1957907e-59
9.4121174e-59
4.6817889e-59
4.5683591e-59
4.3446335e-59
4.1990424e-59
4.7064211e-59
4.3582609e-59
4.6284151e-59
4.2339828e-59
5.2041892e-59
3.8804184e-59
5.0593315e-59
3.8529194e-59
5.2392045e-59
3.9122614e-59
5.004837e-59
3.8358564e-59
4.7820068e-59
4.7708378e-59
4.4144137e-59
4.3361777e-59
4.0039315e-59
4.4129487e-59
4.4053847e-59
3.9129726e-59
4.7294246e-59
4.7415448e-59
3.4948558e-59
3.6831383e-59
5.241444e-59
5.1017995e-59
3.9397421e-59
3.9158043e-59
4.7162148e-59
4.6575716e-59
4.0742235e-59
3.9888952e-59
4.6462521e-59
4.6595768e-59
4.0370938e-59
3.9890924e-59
4.480683e-59
3.6422519e-59
4.4181483e-59
3.5554916e-59
4.49074e-59
4.3527736e-59
3.6212446e-59
3.5056434e-59
4.2768019e-59
3.3547495e-59
4.2569015e-59
3.3406542e-59
4.8052993e-59
4.7814139e-59
4.1172173e-59
4.0469291e-59
4.5773633e-59
3.8495414e-59
4.600244e-59
3.8353256e-59
4.5068118e-59
4.4407657e-59
3.6198648e-59
3.5484438e-59
2.3281634e-59
2.4288353e-59
3.201071e-59
2.7606357e-59
2.6911095e-59
3.0711545e-59
3.2214556e-59
2.9153983e-59
3.0050103e-59
2.5894342e-59
2.7566252e-59
3.5158646e-59
3.2123482e-59
2.9590114e-59
3.3553463e-59
3.5632122e-59
3.1767038e-59
3.2912432e-59
4.5082415e-59
4.1478203e-59
2.6445776e-59
2.5474431e-59
3.1435986e-59
2.9606446e-59
3.0240124e-59
3.4601755e-59
3.2738332e-59
3.3460943e-59
3.1384788e-59
3.329619e-59
3.0950548e-59
3.3180646e-59
3.0541093e-59
2.4983458e-59
2.4713549e-59
2.7141934e-59
3.0079703e-59
2.8854843e-59
3.5794101e-59
3.4673077e-59
4.2185444e-59
4.197588e-59
3.8434747e-59
3.780495e-59
4.4455953e-59
4.0508487e-59
4.2934727e-59
3.8953999e-59
4.8093332e-59
3.972474e-59
4.6376253e-59
3.8269038e-59
4.5973639e-59
3.8234307e-59
4.5019722e-59
3.7307331e-59
4.3334785e-59
3.9343579e-59
4.5235184e-59
4.0468699e-59
3.9307705e-59
3.5661524e-59
4.0991994e-59
3.6832593e-59
4.20359e-59
3.4614453e-59
4.3617376e-59
3.5542414e-59
4.6371553e-59
3.8074738e-59
4.7688764e-59
3.8796859e-59
4.9282883e-59
3.4424544e-59
3.2014836e-59
3.6444823e-59
2.9398237e-59
3.1450498e-59
3.7792586e-59
3.932463e-59
4.0161486e-59
3.4164188e-59
4.0067096e-59
3.359316e-59
4.082386e-59
4.0423253e-59
3.3176046e-59
3.3207404e-59
4.5948911e-59
4.4347937e-59
3.7177584e-59
3.5795497e-59
4.7343095e-59
4.6021374e-59
4.0780908e-59
3.9343815e-59
4.4457284e-59
3.6139126e-59
4.2889114e-59
3.4871789e-59
4.5116162e-59
4.5951623e-59
3.9662152e-59
3.8556703e-59
4.5499028e-59
3.8930621e-59
4.7018082e-59
3.9696558e-59
4.1110335e-59
3.5209787e-59
4.2577208e-59
3.5934813e-59
3.9109095e-59
3.1552989e-59
3.982604e-59
3.1899371e-59
4.3381042e-59
3.5008711e-59
4.4055667e-59
3.5357352e-59
4.4669827e-59
4.5805971e-59
4.119732e-59
4.1743444e-59
3.988776e-59
4.0724304e-59
3.7150972e-59
3.7399446e-59
4.5713611e-59
4.5626015e-59
3.4727379e-59
3.5760339e-59
5.090993e-59
5.0489864e-59
3.8491354e-59
3.8915561e-59
5.3724825e-59
3.9785812e-59
5.2192063e-59
3.9962242e-59
4.7047085e-59
4.3073902e-59
4.5706818e-59
4.182182e-59
4.5536877e-59
4.4049977e-59
4.2181935e-59
4.0657023e-59
5.2721588e-59
4.0076575e-59
5.0111576e-59
3.9362831e-59
4.6613962e-59
3.7407367e-59
4.6795855e-59
3.7412748e-59
4.5714284e-59
4.5773835e-59
4.138621e-59
4.0807665e-59
4.4641027e-59
4.024971e-59
4.5119662e-59
4.0281576e-59
4.7393583e-59
4.6676302e-59
3.8640676e-59
3.7753575e-59
3.6608215e-59
3.3537234e-59
3.8031734e-59
3.3392355e-59
3.6381913e-59
3.3391668e-59
3.6061533e-59
3.3440217e-59
2.6776666e-59
2.7486904e-59
3.0206726e-59
3.2490797e-59
2.7563968e-59
2.8490862e-59
3.3023864e-59
3.1413115e-59
2.5850941e-59
2.7214442e-59
3.1386859e-59
3.0027644e-59
3.3316885e-59
3.2171074e-59
3.5706717e-59
3.2903056e-59
2.6829758e-59
2.8006077e-59
3.2145216e-59
3.0434919e-59
3.5076178e-59
3.2994898e-59
3.6368296e-59
3.3420529e-59
4.4583878e-59
4.0722314e-59
4.4963674e-59
4.0634377e-59
4.356721e-59
4.0068559e-59
4.4670029e-59
4.0404757e-59
4.6962907e-59
3.8899419e-59
4.7384799e-59
3.8784412e-59
4.791897e-59
3.9654487e-59
4.7405781e-59
3.9172094e-59
2.1168561e-59
2.4471743e-59
2.1169536e-59
2.4440868e-59
2.0997884e-59
1.7010774e-59
1.6769942e-59
2.0992673e-59
2.4753327e-59
2.1452058e-59
2.4764401e-59
2.1301445e-59
2.1270255e-59
1.7175238e-59
2.1327648e-59
1.7154707e-59
2.9400046e-59
3.4881533e-59
2.8842917e-59
3.5576151e-59
2.7830732e-59
2.1881308e-59
2.180422e-59
2.8162651e-59
2.9788187e-59
3.5320599e-59
2.9124702e-59
3.5663863e-59
2.8401979e-59
2.2298038e-59
2.875543e-59
2.2211194e-59
4.4164619e-59
5.5621105e-59
4.3707181e-59
5.549365e-59
4.2274308e-59
3.1699021e-59
3.1823308e-59
4.2439984e-59
4.4712285e-59
5.5674652e-59
4.3983136e-59
5.6112075e-59
4.3052332e-59
3.2260729e-59
4.4348808e-59
3.2424468e-59
8.8985551e-59
8.8584911e-59
6.1182737e-59
6.130207e-59
6.5895725e-59
6.5284779e-59
9.4345623e-59
9.416305e-59
5.3021439e-59
1.9717827e-59
2.3203043e-59
2.2779172e-59
1.9427765e-59
5.420362e-59
9.7188586e-59
9.8011565e-59
6.8010922e-59
6.850425e-59
2.1375508e-59
2.5862694e-59
2.5157538e-59
2.1228967e-59
5.713777e-59
2.230004e-59
2.4295403e-59
2.1991044e-59
2.0830617e-59
2.4135907e-59
2.4173257e-59
2.3053699e-59
2.2152232e-59
1.3045082e-59
1.2952201e-59
1.4147611e-59
1.0986386e-59
1.1632802e-59
1.102928e-59
1.1553996e-59
1.1472451e-59
1.0474548e-59
1.0277289e-59
1.1525866e-59
1.0951567e-59
1.1524114e-59
1.0783616e-59
1.148219e-59
1.2837638e-59
1.4316557e-59
1.2781389e-59
1.4186979e-59
1.2618961e-59
1.0632103e-59
1.0530594e-59
1.2787425e-59
1.4307673e-59
1.2763672e-59
1.4404962e-59
1.2827889e-59
1.2760165e-59
1.0634286e-59
1.261748e-59
1.0540821e-59
1.5946294e-59
1.8359612e-59
1.6213699e-59
1.8111455e-59
1.6077787e-59
1.3136581e-59
1.2944637e-59
1.5818597e-59
1.6153591e-59
1.8408289e-59
1.6190616e-59
1.8366268e-59
1.6186644e-59
1.3229537e-59
1.6081545e-59
1.3125002e-59
2.003425e-59
1.9260861e-59
1.9597447e-59
1.9327458e-59
1.984139e-59
1.9767252e-59
2.0084765e-59
1.9208064e-59
1.9129414e-59
1.9875708e-59
2.0314649e-59
1.9628978e-59
2.0034057e-59
2.0943315e-59
2.0654164e-59
2.1194387e-59
5.0561068e-59
1.7745057e-59
1.850903e-59
1.8696509e-59
1.8033313e-59
5.2517247e-59
5.1862031e-59
5.1850595e-59
1.8833086e-59
1.9852908e-59
2.0343354e-59
1.9855857e-59
1.9858386e-59
1.9483487e-59
1.9694151e-59
1.9979112e-59
2.0465805e-59
2.0768827e-59
2.1022033e-59
2.0665989e-59
5.6891728e-59
5.6243072e-59
5.1574476e-59
5.3679374e-59
5.585649e-59
5.6730542e-59
5.8616959e-59
5.766839e-59
5.4753585e-59
5.6842922e-59
4.7920716e-59
1.0261374e-58
5.1191734e-59
1.041604e-58
1.0669158e-58
9.7122152e-59
1.112837e-58
1.1211794e-58
1.098728e-58
9.984194e-59
1.4202661e-58
1.5286208e-58
1.5188852e-58
9.3556941e-59
1.3656142e-58
1.044122e-58
6.8453419e-59
6.9713468e-59
2.2040714e-58
8.5142313e-59
8.7081077e-59
7.1344313e-59
7.401455e-59
2.1233882e-58
8.8927883e-59
9.0311674e-59
2.5891059e-58
1.4252657e-58
1.4245923e-58
1.3028537e-58
1.0812699e-58
3.1892838e-58
1.5360037e-58
1.5189835e-58
6.901512e-59
6.9518967e-59
2.3369009e-58
8.4797432e-59
8.5299607e-59
6.8378532e-59
7.0807757e-59
2.0498767e-58
8.6879743e-59
8.3710871e-59
8.267144e-59
8.4620872e-59
8.4553623e-59
8.7286316e-59
8.6996538e-59
2.0258531e-58
9.196542e-59
2.1718359e-58
1.0651197e-58
1.0504977e-58
8.1869872e-59
8.4538099e-59
1.0408737e-58
1.102072e-58
8.4899369e-59
8.3056809e-59
9.1334504e-59
8.8691769e-59
2.0996686e-58
2.1603519e-58
1.1105999e-58
1.0588962e-58
8.5044592e-59
8.6226619e-59
9.0579334e-59
2.0802198e-58
8.7678893e-59
2.0331788e-58
1.0770243e-58
1.0758786e-58
8.3579014e-59
8.5768964e-59
9.0203895e-59
8.7413447e-59
2.0354233e-58
2.0123066e-58
1.0173925e-58
9.5100574e-59
8.9662792e-59
8.5504574e-59
7.4057764e-59
7.379975e-59
1.0238018e-58
1.0316861e-58
8.756253e-59
8.8535479e-59
7.268335e-59
7.5356882e-59
8.8621448e-59
8.9723966e-59
4.4700692e-59
4.3744507e-59
4.5599765e-59
9.1680718e-59
8.9652128e-59
4.53651e-59
4.497726e-59
9.1124699e-59
9.1652835e-59
4.5599805e-59
4.5001724e-59
8.9375425e-59
8.8400751e-59
4.4498824e-59
2.1744355e-59
3.0202015e-59
3.0596084e-59
2.2084075e-59
2.1522101e-59
2.9247884e-59
2.8902844e-59
2.1151983e-59
2.882846e-59
2.3491651e-59
2.378457e-59
2.961154e-59
2.3182359e-59
2.3989362e-59
2.9906115e-59
2.958443e-59
2.9892241e-59
3.0217417e-59
2.1638185e-59
2.1959501e-59
2.7489464e-59
2.3135464e-59
2.3826201e-59
2.8289219e-59
2.19654e-59
2.9512071e-59
2.9270731e-59
2.1788611e-59
2.3380591e-59
2.4319978e-59
2.885438e-59
2.8134308e-59
1.0483396e-58
1.0668885e-58
8.7920386e-59
8.901598e-59
7.4071231e-59
7.0649254e-59
1.0411454e-58
9.820514e-59
8.9326406e-59
8.5141435e-59
7.3007964e-59
7.3053836e-59
4.3726533e-59
8.7469427e-59
8.9147707e-59
4.4458435e-59
9.1004688e-59
8.8727222e-59
4.5305516e-59
4.5065207e-59
4.3833093e-59
8.9757004e-59
8.9413404e-59
4.4142436e-59
4.3877351e-59
8.6610624e-59
4.3653124e-59
8.6298746e-59
2.0926247e-59
2.9571424e-59
2.9755258e-59
2.0980713e-59
2.9237003e-59
2.9438756e-59
2.1698522e-59
2.1556155e-59
2.4345718e-59
2.9987485e-59
2.9153975e-59
2.3443437e-59
2.9296119e-59
2.3324269e-59
2.3897302e-59
3.001369e-59
2.8760775e-59
2.8350243e-59
2.0508275e-59
2.0988036e-59
2.3608923e-59
2.4095288e-59
3.0191486e-59
2.9075939e-59
2.9649529e-59
2.3593671e-59
2.2507403e-59
2.8855832e-59
2.9238343e-59
2.9163058e-59
2.1805149e-59
2.1195302e-59
1.0610564e-58
1.0758523e-58
8.8888475e-59
8.9521614e-59
7.5296086e-59
7.2624777e-59
1.0949323e-58
1.026054e-58
8.5340882e-59
9.0441464e-59
7.3278215e-59
7.375902e-59
7.1350891e-59
7.1910719e-59
8.7405976e-59
8.541487e-59
4.2501962e-59
4.3404114e-59
4.4883164e-59
8.9402548e-59
8.7540194e-59
4.4513843e-59
7.3687755e-59
7.1194452e-59
8.9986712e-59
9.1238681e-59
4.4113497e-59
4.4424645e-59
4.4390589e-59
8.7618311e-59
8.7227567e-59
4.3862317e-59
2.949483e-59
2.9517743e-59
2.0577031e-59
2.1306216e-59
2.8361435e-59
2.2811246e-59
2.331046e-59
2.9171997e-59
2.105374e-59
2.8550453e-59
2.8221518e-59
2.0708521e-59
2.2617295e-59
2.3461019e-59
2.9457003e-59
2.8927239e-59
2.9506599e-59
2.9270112e-59
2.0462849e-59
2.0740257e-59
2.8306428e-59
2.2524894e-59
2.3354979e-59
2.9107679e-59
2.0918513e-59
2.9169207e-59
2.8665533e-59
2.0663466e-59
2.2763451e-59
2.3757934e-59
2.938932e-59
2.8169069e-59
9.9886997e-59
1.0251489e-58
8.6247061e-59
8.7208424e-59
1.0140341e-58
9.2287161e-59
8.607872e-59
8.202908e-59
8.9983839e-59
8.9455682e-59
4.370353e-59
4.4352667e-59
4.5573104e-59
9.1788569e-59
9.0129022e-59
4.501299e-59
4.4673315e-59
9.1527259e-59
9.1120334e-59
4.4935328e-59
8.8344317e-59
8.86348e-59
4.4188947e-59
4.3917484e-59
2.9459092e-59
2.9373662e-59
2.0071574e-59
2.0770836e-59
2.8180432e-59
2.2444029e-59
2.3283378e-59
2.9168852e-59
2.1333887e-59
2.9029922e-59
2.8744052e-59
2.1473087e-59
2.3001675e-59
2.3809769e-59
2.9604998e-59
2.8946149e-59
2.1146409e-59
2.9439131e-59
2.9634202e-59
2.1921509e-59
2.1742158e-59
2.8712729e-59
2.8418943e-59
2.1079381e-59
2.8597567e-59
2.2759501e-59
2.3310238e-59
2.9295061e-59
2.2089849e-59
2.3089892e-59
2.9433734e-59
2.833566e-59
8.8739962e-59
7.9121428e-59
1.0329617e-58
8.539276e-59
8.3936088e-59
1.07902e-58
1.0856706e-58
1.2121734e-58
1.2326585e-58
1.9050799e-58
1.8308296e-58
2.3759264e-58
2.2262093e-58
1.0334319e-57
9.9315274e-58
1.2252468e-58
1.2842755e-58
1.9448066e-58
1.7974806e-58
1.2937649e-58
1.286519e-58
1.8989123e-58
1.9723619e-58
2.20027e-58
2.2260196e-58
9.5032828e-58
1.032595e-57
2.3500524e-58
2.2283723e-58
9.9836317e-58
9.4570402e-58
2.2689079e-58
1.4637672e-58
1.455188e-58
1.1451242e-58
1.150879e-58
2.68146e-58
1.4810182e-58
1.535521e-58
8.331764e-59
8.5365723e-59
8.5716519e-59
8.6282665e-59
1.0664354e-58
1.0723579e-58
8.3187384e-59
8.4153807e-59
8.1871175e-59
8.6610099e-59
2.079845e-58
2.1975054e-58
1.0479887e-58
1.1080131e-58
8.4679553e-59
8.3263004e-59
8.9776842e-59
2.1984269e-58
8.7628862e-59
2.2265486e-58
1.1125759e-58
1.0467044e-58
8.4138145e-59
8.159308e-59
8.7509843e-59
2.1095135e-58
9.090877e-59
2.2407362e-58
1.0906024e-58
1.0980887e-58
8.2837963e-59
8.4034177e-59
8.9959236e-59
8.6593318e-59
2.1705339e-58
2.1850428e-58
3.4362499e-59
3.3065132e-59
3.5028599e-59
3.4513183e-59
3.4168747e-59
3.3157415e-59
3.1474416e-59
3.3345111e-59
3.2877572e-59
3.1249834e-59
3.4102624e-59
3.4492976e-59
3.6265523e-59
3.4383508e-59
3.6271319e-59
3.519663e-59
2.1235899e-59
6.097711e-59
6.2413785e-59
2.1762174e-59
5.8576512e-59
6.3179573e-59
2.1712464e-59
2.1403456e-59
3.0153907e-59
2.8956539e-59
3.1056724e-59
3.1806994e-59
2.1970297e-59
6.4025749e-59
6.6804252e-59
2.2056646e-59
6.6226717e-59
6.3524243e-59
2.236064e-59
2.1817957e-59
3.4561128e-59
3.2373565e-59
3.4528249e-59
3.4973701e-59
3.6038745e-59
3.4207631e-59
3.6648509e-59
3.6688575e-59
3.3936943e-59
3.4693525e-59
3.3841794e-59
3.2540368e-59
6.6502724e-59
6.3159872e-59
2.2281844e-59
2.2950323e-59
7.0507231e-59
7.2290834e-59
2.3575771e-59
2.2850945e-59
6.7495222e-59
7.0678688e-59
2.3821274e-59
2.4423852e-59
2.5059913e-59
7.4421093e-59
7.2246606e-59
2.4032448e-59
6.8326435e-59
7.2070071e-59
2.451995e-59
2.5362284e-59
2.5400519e-59
7.8054382e-59
7.463891e-59
2.5335373e-59
7.4108692e-59
7.0877399e-59
2.4966763e-59
2.5848821e-59
7.3727723e-59
7.7409642e-59
2.6298241e-59
2.5106328e-59
8.9267153e-59
7.4806238e-59
8.9706277e-59
7.4378228e-59
8.9182975e-59
8.4854902e-59
7.9153101e-59
7.6534988e-59
7.2686119e-59
6.6680871e-59
2.3844808e-59
2.4709865e-59
7.3436642e-59
7.6028126e-59
2.6062976e-59
2.5614653e-59
6.3669756e-59
6.1019838e-59
2.0994966e-59
2.1125494e-59
6.5382617e-59
6.6534823e-59
2.2499339e-59
2.2586896e-59
8.4477215e-59
8.8311227e-59
7.1361886e-59
7.0528017e-59
9.8501102e-59
1.0065332e-58
8.3267051e-59
8.2051958e-59
7.5691568e-59
9.4621773e-59
9.9125935e-59
7.8721042e-59
9.8965993e-59
9.5383023e-59
8.1161032e-59
8.3234663e-59
4.12941e-59
4.2225815e-59
3.7401099e-59
3.7633546e-59
4.0714146e-59
3.6887592e-59
4.1108528e-59
3.6758987e-59
4.3420409e-59
3.5522267e-59
4.3354389e-59
3.5314634e-59
4.3716401e-59
3.5759238e-59
4.3856239e-59
3.5506315e-59
2.361489e-59
2.4420622e-59
3.2375746e-59
2.7050244e-59
2.7920122e-59
2.4311126e-59
2.5912811e-59
3.2476857e-59
2.8374169e-59
3.0111721e-59
3.1441316e-59
3.0015554e-59
3.2296628e-59
3.0098899e-59
3.186651e-59
3.3518341e-59
3.0385838e-59
3.0861627e-59
3.3973819e-59
3.6709043e-59
2.4342086e-59
2.5931468e-59
3.3166087e-59
2.8056785e-59
2.9745325e-59
2.5707562e-59
2.739292e-59
3.508411e-59
3.0038163e-59
3.1825684e-59
3.261803e-59
3.1258744e-59
3.4846324e-59
3.2558168e-59
3.3887856e-59
3.2403437e-59
3.5718313e-59
3.2974277e-59
3.603916e-59
3.6087165e-59
4.5695141e-59
3.7678808e-59
4.7714793e-59
3.8808216e-59
4.3978866e-59
4.013409e-59
4.5016614e-59
4.0434704e-59
4.1902544e-59
3.8378114e-59
4.4098383e-59
3.9711475e-59
4.7650892e-59
3.9390324e-59
4.8049621e-59
3.9360149e-59
3.3519439e-59
3.4734537e-59
2.9355356e-59
3.2989801e-59
4.0731355e-59
3.6999223e-59
3.2972577e-59
3.5342532e-59
4.7545973e-59
4.7610867e-59
4.4594324e-59
4.3850081e-59
4.6788138e-59
4.65254e-59
4.313158e-59
4.2717548e-59
5.3229275e-59
5.2054136e-59
4.136695e-59
4.1032533e-59
5.1832565e-59
5.1133783e-59
3.9670867e-59
4.0392868e-59
4.6261251e-59
4.7703032e-59
4.2334141e-59
4.3543837e-59
4.2244746e-59
4.023958e-59
3.679938e-59
3.8526297e-59
8.7584627e-59
8.7850581e-59
9.2671393e-59
9.0640517e-59
5.0494967e-59
5.1067415e-59
3.8539747e-59
3.9979374e-59
4.5607206e-59
4.3965726e-59
3.3580558e-59
3.5639693e-59
4.8026091e-59
4.1662633e-59
4.8160815e-59
4.1290446e-59
4.6683986e-59
3.9959616e-59
4.6931091e-59
3.9786613e-59
4.4082038e-59
4.3900393e-59
3.5804369e-59
3.5435661e-59
4.5184631e-59
4.4908697e-59
3.6716668e-59
3.6091107e-59
6.5106314e-59
6.3860644e-59
6.340644e-59
6.4468168e-59
4.7690987e-59
4.0828869e-59
4.9014901e-59
4.1729105e-59
4.4555185e-59
4.5440704e-59
3.5671663e-59
3.6350854e-59
4.1359667e-59
3.4945553e-59
4.3907739e-59
3.6744579e-59
4.010841e-59
3.8215759e-59
3.0549601e-59
3.1957453e-59
5.801592e-59
5.9785475e-59
6.5580485e-59
6.2232216e-59
7.9524371e-59
8.2143301e-59
8.5997151e-59
9.1461773e-59
4.4882597e-59
5.2816411e-59
4.8193245e-59
4.7921163e-59
4.3817799e-59
4.409623e-59
4.3387372e-59
4.1289772e-59
4.1862182e-59
2.7127993e-59
4.3276195e-59
5.0360002e-59
4.687678e-59
4.8850694e-59
4.7354027e-59
2.8048661e-59
4.242348e-59
3.4139853e-59
4.5126509e-59
3.6137668e-59
4.588654e-59
4.6944185e-59
4.1438042e-59
4.2058546e-59
4.0213824e-59
3.6103195e-59
4.2918837e-59
3.8199105e-59
4.8187443e-59
3.925929e-59
4.8944752e-59
3.983499e-59
3.6565351e-59
3.4139343e-59
3.8499155e-59
3.4738473e-59
3.2400991e-59
3.0164589e-59
3.5127007e-59
3.1961298e-59
2.4129197e-59
2.5972127e-59
2.8089017e-59
3.2164534e-59
2.9986334e-59
2.7530465e-59
2.8982539e-59
3.4015761e-59
3.3676615e-59
3.2299422e-59
3.7341595e-59
3.7946542e-59
4.7727994e-59
4.8033809e-59
3.8891902e-59
3.8899778e-59
4.5278857e-59
4.5314337e-59
4.1265906e-59
4.0821574e-59
4.4539199e-59
4.0574722e-59
4.5103205e-59
4.066032e-59
4.7998613e-59
4.7632886e-59
3.9676702e-59
3.912527e-59
3.5965573e-59
3.3897256e-59
3.7183402e-59
3.3755175e-59
3.5579932e-59
3.3513457e-59
3.6788123e-59
3.3768543e-59
2.6576529e-59
2.7337136e-59
3.4217461e-59
3.0512098e-59
3.1114217e-59
2.7139977e-59
2.813902e-59
3.3694488e-59
3.1413993e-59
3.2584151e-59
3.4714851e-59
3.6849822e-59
3.8580846e-59
3.2838489e-59
3.0910061e-59
3.7047556e-59
3.1789068e-59
3.5389593e-59
3.564318e-59
3.8408674e-59
6.4069918e-59
9.7691847e-59
9.8561971e-59
8.9999852e-59
1.3491162e-59
1.4868777e-59
1.8765336e-59
1.6857884e-59
1.3018151e-59
1.5147602e-59
1.6996898e-59
1.8728099e-59
1.4389328e-59
1.2843575e-59
1.283279e-59
4.674735e-59
4.7019698e-59
4.3491931e-59
4.3007723e-59
4.3758483e-59
4.0000403e-59
4.4958668e-59
4.0444446e-59
4.8371398e-59
3.7345934e-59
4.898025e-59
3.8578442e-59
5.3324995e-59
5.2219138e-59
4.0938433e-59
4.0659128e-59
3.3317368e-59
3.2970809e-59
4.0593231e-59
4.1200511e-59
4.2919924e-59
4.2892526e-59
3.6689779e-59
3.622369e-59
4.3272155e-59
4.3059506e-59
3.6825522e-59
3.6432933e-59
4.1227105e-59
3.3272307e-59
3.272402e-59
4.0612157e-59
4.2994196e-59
3.4500401e-59
4.4057875e-59
3.4942758e-59
4.6868345e-59
4.7415044e-59
4.0327834e-59
4.0292071e-59
4.4537783e-59
3.8362211e-59
4.6261375e-59
3.9146845e-59
4.5114313e-59
4.5035045e-59
3.655443e-59
3.6232161e-59
4.9612184e-59
3.7762018e-59
4.8848889e-59
3.8018823e-59
4.1831259e-59
4.1738297e-59
3.866637e-59
3.7709399e-59
4.263292e-59
3.9340306e-59
4.2137476e-59
3.8744014e-59
4.9628967e-59
4.7561262e-59
3.8352608e-59
3.7527123e-59
1.3067332e-59
1.2201775e-59
1.2334598e-59
1.2988415e-59
1.2855326e-59
1.3156695e-59
1.2380473e-59
1.2200702e-59
1.1581561e-59
1.2739745e-59
1.164474e-59
1.3073608e-59
1.2743232e-59
1.1629368e-59
1.2943843e-59
1.1698002e-59
1.2638786e-59
1.3323036e-59
1.2498897e-59
1.3343495e-59
1.3000768e-59
1.1821957e-59
1.1715138e-59
1.3258801e-59
1.2490749e-59
1.3302866e-59
1.2363943e-59
1.3250924e-59
1.2912857e-59
1.1599587e-59
1.2957488e-59
1.1512369e-59
1.3943159e-59
1.4442918e-59
1.4170495e-59
1.442486e-59
1.3092206e-59
1.6034671e-59
1.5908987e-59
1.2771132e-59
1.4143676e-59
1.3696341e-59
1.4191967e-59
1.3682323e-59
1.2582051e-59
1.5648801e-59
1.5432354e-59
1.2531463e-59
1.4154526e-59
1.3819509e-59
1.3597475e-59
1.4130791e-59
1.2731737e-59
1.5700526e-59
1.5525677e-59
1.2439395e-59
1.42389e-59
1.4125885e-59
1.388491e-59
1.3890967e-59
1.2802923e-59
1.5686566e-59
1.280907e-59