/*--------------------------------*- C++ -*----------------------------------*\
  =========                 |
  \\      /  F ield         | OpenFOAM: The Open Source CFD Toolbox
   \\    /   O peration     | Website:  https://openfoam.org
    \\  /    A nd           | Version:  7
     \\/     M anipulation  |
\*---------------------------------------------------------------------------*/
FoamFile
{
    version     2.0;
    format      ascii;
    class       volScalarField;
    location    "10000";
    object      omega;
}
// * * * * * * * * * * * * * * * * * * * * * * * * * * * * * * * * * * * * * //

dimensions      [0 0 -1 0 0 0 0];

internalField   nonuniform List<scalar> 
33730
(
2225.9383
497.44741
4787.0895
4016.024
808.25853
4041.63
2279.208
823.42843
460.54871
877.69735
882.93685
497.90488
1329.4132
1332.8539
9614.7765
9608.34
4717.6463
7497.932
1840.1746
7597.6599
1820.4144
7451.8691
7619.5426
1849.7367
4042.4785
1837.1263
4139.4634
814.02712
835.81747
2280.0913
460.55895
788.2588
728.33342
422.8087
439.84452
438.52655
421.52515
791.65552
726.90808
2096.668
2114.7905
2094.8933
2092.7531
873.3779
898.16677
2123.4876
706.96421
707.95251
2156.1556
1330.1985
2160.1489
712.37739
705.29706
2132.399
9545.8881
4747.5252
19029.314
4689.0606
19048.76
4727.8251
18990.501
4658.8803
18993.962
4689.6194
1337.3117
9570.9335
13102.953
12830.321
4297.4353
4253.2513
12959.241
4344.6971
13270.664
4350.701
12485.337
7412.4585
4201.5626
13002.894
4260.7312
13309.34
12961.211
4349.5076
4269.454
1802.0338
7703.3927
1850.2966
7865.8619
7682.4251
4092.5555
1917.7157
1911.6037
816.91475
4206.0167
830.10229
721.24171
805.3128
738.63639
421.51297
438.15733
438.67935
421.68002
783.82408
1924.2586
1932.4776
1940.6288
1948.0135
1481.5284
1465.5158
1619.8981
1632.7845
614.80048
613.01009
1922.9406
1933.8115
1918.9089
1913.7604
1632.5332
1473.405
1479.4101
1633.3185
4249.3141
4130.9365
3532.3038
3248.6551
1242.0396
5072.8421
4650.9166
4790.6726
4909.0407
4957.0763
5005.3871
5023.3735
4809.0216
2052.3436
4911.2898
4905.2346
5008.7214
2110.1605
2172.8618
2166.7691
881.82572
585.36044
584.44629
2288.82
730.76967
731.82584
2326.8531
2135.511
708.70995
707.3936
2146.9098
2328.3703
734.75024
727.60209
2298.8785
4696.4568
4714.6187
19106.11
18931.017
3702.9582
3743.3228
6922.7446
6877.6379
13064.863
13035.468
33226.191
32788.268
3660.348
3682.8243
6788.3497
6840.2086
12976.638
12861.392
33339.143
33018.996
3715.861
3715.0827
6860.8127
6878.9434
12842.861
12896.881
33170.035
32853.883
3655.6306
3646.1251
6796.1476
6747.0105
12986.093
12926.585
33142.47
32806.743
1302.5111
1321.4821
9659.2251
9555.1123
2148.3805
710.78178
709.90542
2164.8908
4737.172
4765.0773
19069.002
19239.184
21489.759
8080.615
21646.272
7998.8968
21298.49
20879.198
7878.8698
7918.9402
20968.259
21407.917
8039.7709
8009.159
21799.015
8157.1107
21865.853
8199.1874
12591.089
20130.881
20485.91
7668.2492
7636.6306
12913.067
4187.5942
4136.1831
21159.486
7902.8131
21475.976
8004.4801
21779.94
21997.648
8100.9835
8193.1851
21496.657
21006.758
7879.7741
7949.4593
13144.213
13405.073
4362.5348
4348.0667
13558.494
13515.495
4493.5057
4480.8493
7593.5362
4436.7863
13423.998
12843.341
4366.0907
1874.1193
7779.027
1857.029
7966.4808
1900.7496
1608.1146
1462.98
1472.0894
1628.1294
610.01958
1991.2242
1986.7586
2003.123
2002.3652
790.4084
724.47421
1688.077
1523.7869
1686.0219
1515.5267
619.12067
1927.8328
1901.5311
1938.697
1885.9688
5167.9705
5186.9089
4692.4215
4666.4719
5267.6851
5258.77
4745.5864
4756.4134
4866.9038
4851.2016
4738.8267
4740.949
4809.7004
4921.698
4932.1744
4807.16
3233.0714
3515.579
3252.3547
3554.1496
1235.2956
3276.1628
3576.3932
3525.7271
3235.4774
1223.3251
4127.9664
4192.7534
4333.8036
4265.1221
4168.1876
4108.1339
4231.8094
4300.2876
1088.5449
1072.7829
1223.3551
1234.1708
4785.1908
4902.8373
4696.7586
4815.3804
4857.9988
4766.5624
4634.0874
4724.535
5160.8486
5048.0555
4565.2563
4657.5573
4741.5425
5237.3087
5132.1115
4652.433
4356.8231
4195.0207
4210.4674
4342.5273
3568.3869
3579.9277
3261.7425
3253.6019
3232.1638
3534.8707
3275.8391
3575.8
4182.2282
4144.6696
4288.5653
4319.5914
9738.0261
9280.8886
9707.3014
9246.3822
9334.0147
9095.6675
9288.2799
9052.5477
8508.3394
8558.0829
8440.8697
8497.1472
7377.7731
7298.2314
6311.1503
2830.1704
6221.0589
7552.1224
2840.179
6442.3032
2697.5641
2695.542
9652.4531
8893.1438
9598.9627
9906.86
9216.7385
9859.9771
9166.4264
9852.7708
9371.3791
9820.0659
9328.3271
8813.8213
8869.947
9027.8523
8953.6092
8976.7455
8972.2439
9138.9654
9186.5577
8528.5124
8532.447
4760.3392
4819.9369
8828.5498
8959.3106
8891.4289
8792.7187
9143.9745
9050.8136
4997.0852
4998.1276
5159.4438
5143.9147
5108.4689
4981.6797
2115.8999
2138.2035
2154.5279
585.55401
585.32825
568.7735
568.77669
2355.3923
4159.8115
4185.8957
719.08178
721.11017
2398.8716
4258.2503
4242.2395
2303.0491
733.28922
731.0338
2316.9056
2397.3864
4277.9248
4234.5471
722.43094
716.64771
2368.8782
4218.4357
4179.5475
6799.5658
3664.4607
6844.6414
3675.4773
3686.9504
3704.2335
6832.9262
6868.3318
33319.303
13038.41
13035.074
33400.733
13009.825
33163.796
13003.309
32711.445
7597.9938
7551.7555
18157.411
18271.988
12521.012
12553.095
18332.618
18084.581
12405.374
12597.751
28893.04
28697.466
48386.439
48520.536
28322.836
47311.414
28950.285
47845.918
7460.144
7517.3104
12476.905
18119.705
12468.847
18242.314
12457.516
12250.91
18180.272
17880.842
28463.305
28936.609
48811.293
48682.621
28316.259
48525.173
47988.795
28773.656
7539.812
7563.714
12330.738
12348.526
17944.767
18127.599
12474.755
12335.93
18173.221
17997.607
28735.729
48324.333
28643.663
48369.964
28035.162
47776.833
28759.905
48238.446
7472.8891
7404.3504
12511.052
12512.318
18109.791
18243.311
12537.071
12345.717
18224.925
17964.257
28419.329
48100.994
28946.999
48450.249
28700.151
28395.54
48090.776
47741.759
695.09332
699.50945
2078.5122
704.93097
706.31538
2126.4701
2139.9138
4639.781
19370.309
4704.0007
4720.5545
19253.759
19059.083
2317.4279
731.86519
734.06731
2336.5576
3689.4229
3708.5914
6873.3676
6881.6306
3733.2276
6934.7015
3714.6863
6896.7784
13114.328
33087.332
13165.925
33537.755
13118.934
33745.275
13213.86
33542.621
38516.969
38182.528
11818.984
11722.665
11781.819
39061.711
38692.275
11701.658
38287.382
38054.864
11634.041
11548.076
36703.586
37872.947
11482.747
11368.782
37558.232
36908.252
11610.3
11597.2
38482.221
38230.869
11736.738
11665.71
39333.031
38720.109
11949.047
11928.309
39447.143
38800.989
12008.025
11921.572
20844.335
20411.962
7647.9009
7672.2403
35847.324
35509.798
11106.775
11036.879
36649.853
36597.958
11183.608
11129.381
21188.382
21230.194
7775.3726
7887.6424
38264.656
37455.917
11543.663
11535.513
38277.956
38590.431
11708.28
11659.609
39159.826
38509.788
11950.066
11903.314
39215.079
39705.676
11957.872
11835.992
38450.092
11707.111
11597.81
38658.038
38103.553
36944.222
11480.259
11368.543
21247.326
21634.19
8031.6087
8068.0451
21978.831
22007.044
8184.8641
8134.9798
22081.559
22198.967
8387.6095
8295.654
8288.3674
22138.255
22026.172
8318.4729
13195.744
12932.455
4309.6273
4331.457
21868.343
22046.003
8225.6096
8310.5835
7905.4022
20515.177
21053.528
7915.1533
4362.3614
13082.452
13674.315
4467.737
13787.55
4514.8388
13660.149
4495.5336
4095.3805
4069.6653
4193.4592
4211.2723
3197.6604
3233.3959
3480.1204
3511.7973
1225.3383
3302.7593
3283.083
3597.2014
3582.5564
1221.0854
4348.4304
4200.0352
4217.8961
4333.8542
1075.5818
1068.3918
5403.5285
5407.3329
4885.1166
4892.8837
5383.4421
5241.523
1942.6657
4850.1601
4736.0512
5071.7415
5067.4808
4949.3554
4951.4453
1954.5001
5068.9917
4930.1921
4958.7398
4818.2907
1957.2855
1952.1446
1640.0194
1470.9918
1488.7088
1647.5027
609.92766
4416.9794
4368.8241
4309.7798
4494.3756
3736.0312
3707.0369
3433.2605
3434.3463
1264.864
4493.7466
4363.4866
4356.6024
4504.8189
3739.9537
3729.1942
3420.5701
3429.1065
1259.0945
1097.25
1086.7661
1963.7131
903.4398
896.74291
5232.2477
5236.3937
4733.3459
4730.874
4596.4103
4735.0297
4738.1794
4611.3086
4787.6294
4902.3578
4916.6406
4779.1775
4563.6971
5006.3247
5039.7794
4524.6706
9945.1279
9937.094
9167.8534
9156.5838
10083.438
9300.3404
10040.424
9251.0414
9668.5523
8694.2518
9611.5602
8629.8998
9519.1541
8553.1528
9495.1549
8522.5941
10265.841
10343.179
9455.3874
9523.8887
9309.4745
10113.162
10118.67
9307.7362
9653.5579
9660.232
8665.2757
8656.7496
9817.6433
9893.5948
8809.9713
8865.4734
10067.777
10114.513
9611.346
9647.9629
10120.409
10145.033
9679.2557
9677.9719
10272.524
9605.9941
10261.627
9574.2235
10172.877
10193.743
9494.6391
9503.7396
10362.759
9660.727
10375.43
9657.729
10370.591
10407.962
9901.2588
9950.454
10260.368
9789.231
10285.23
9794.6752
10496.537
10561.541
9792.534
9860.5368
7241.4619
7338.7029
2819.4981
6258.3271
6177.6533
8361.7737
8496.4135
8422.8989
8544.5306
7426.9573
7672.8639
2820.3735
6565.9253
6314.4077
8585.9605
8854.4843
8667.7442
8906.96
2691.7449
2670.5996
7669.7742
7512.1369
2841.3914
6429.9267
6559.0017
8853.6453
8917.4818
8674.9536
8731.4588
8568.6072
8633.8781
8579.7168
8640.565
7419.6307
7433.3436
2816.9843
6349.8809
6320.5125
2676.024
2689.3795
9431.556
9431.0901
9205.9516
9195.0009
9737.6058
9503.9325
9544.67
9317.292
10194.15
9752.2065
10009.288
9580.6155
9873.0595
9443.2262
9850.9453
9418.1884
9467.2101
9249.5424
9721.6457
9473.5326
9186.0014
8953.7641
9340.1938
9085.7252
9574.9023
9135.7264
9735.2621
9263.518
9911.4683
9472.9372
10156.572
9695.3321
2344.1929
2171.7044
2130.2546
2314.8791
2130.4442
2323.0576
2322.4497
2305.3066
2659.9226
2816.324
2657.7332
2813.4266
2711.3791
2658.6124
2802.5224
2851.0531
10496.655
10339.733
9794.5167
9653.0727
10378.338
10207.964
9905.4931
9746.8149
10149.463
9471.7086
10086.758
9411.5502
10002.957
10043.4
9583.9287
9538.8038
10060.423
9592.179
10305.949
9809.2792
9685.4149
9228.3571
9828.5807
9330.142
9747.2178
9091.0883
9856.3382
9160.1359
10142.353
9457.1364
10383.187
9663.3529
9897.5772
10118.76
9124.3241
9297.8434
9513.6623
9585.5804
8782.4932
8820.6744
9116.4503
9153.9767
8218.7323
8224.7708
9463.6785
9647.7887
8513.039
8646.153
9808.3636
8814.4871
9699.2372
8717.4229
10262.297
9449.2224
10126.37
9334.3617
9928.4526
9854.3633
9157.031
9089.5506
9513.3623
8562.7913
9433.2624
8488.9772
10087.931
9650.5219
10118.872
9665.3596
9652.2766
9666.2061
9458.1371
9470.6463
9606.2499
9400.9849
9634.5964
9415.5637
10165.974
10181.42
9738.6544
9764.9629
8727.4419
8821.3891
8759.7101
8845.395
8688.7065
8781.5357
8722.1689
8797.8993
7507.4559
7529.6464
6377.4136
6412.2949
7551.1103
7598.8439
6495.1207
6424.4139
7381.2795
7475.7605
6376.2455
6284.0099
8536.3936
8622.6946
8639.2637
8701.8199
7451.7916
7550.4631
6456.5075
6340.1028
8600.1219
8678.2102
8696.2097
8768.0784
9467.0417
9246.7828
9552.5994
9322.8227
9426.6149
9223.6836
9510.9072
9281.9593
9904.0063
9499.1606
9963.9001
9531.5997
9903.3106
9478.2998
9972.3611
9539.5456
14511.408
15346.954
14682.15
15190.289
15160.815
14388.156
14202.944
14975.065
15410.066
14717.865
15358.624
14684.109
15157.864
14371.234
15190.762
14391.941
15309.171
16407.861
15416.482
16321.85
15838.714
14925.977
14786.827
15723.144
15517.471
16461.125
15452.567
16537.962
15877.862
14943.59
15948.056
14997.821
17088.219
18901.52
17186.064
18830.451
17496.851
16075.851
15980.868
17415.591
17283.41
19022.808
17267.768
19035.732
17581.476
16127.407
17625.212
16182.319
20493.02
20498.728
18672.072
18609.51
18787.121
18795.162
20638.878
20653.414
19777.71
5681.4966
5682.412
5571.6452
5587.4171
19877.055
21189.478
21203.925
19350.29
19300.995
5790.8573
5773.5218
5763.5039
5794.669
20403.936
5220.4297
5212.278
5086.2152
5106.8951
5294.131
5251.3635
5242.6503
5283.5289
12637.615
11975.999
12197.943
12777.101
13588.794
12922.764
13421.759
13203.556
12393.196
12254.682
13050.656
12868.037
13541.703
12877.937
13517.766
13630.911
14434.393
13785.906
14263.8
14120.624
13308.062
13153.934
13967.562
14382.277
13732.225
14403.586
13767.677
14113.81
13269.652
14062.818
13234.849
14057.661
14834.899
14237.978
14639.295
14724.35
14006.282
13840.846
14540.141
14206.513
14807.932
14207.041
14824.076
14687.991
13973.169
14684.179
13963.24
12221.846
12048.08
12344.603
12266.785
12514.153
12433.309
12536.047
12417.789
12276.684
12305.674
12378.405
12475.545
12673.991
12681.749
12651.109
12782.236
8546.9932
11716.522
11673.178
11783.445
11854.489
8581.1996
8795.3292
8682.7918
12220.754
12241.081
12438.578
12356.339
12415.96
12308.085
12202.545
12049.811
12650.641
12627.38
12715.871
12550.361
9086.7719
9148.1747
8978.5231
8983.5933
9345.535
9260.4426
9257.1563
9289.9489
9186.6574
9302.6108
8777.2939
4944.9738
8840.5558
4964.6879
5143.6039
4983.7273
5177.9998
5155.1471
577.14258
584.42246
568.86276
569.88538
747.58924
749.54281
742.72855
751.18648
4180.0427
4145.8111
2318.7488
4801.6833
4854.4404
4236.8895
4250.1578
2365.3464
4929.102
4917.2886
2368.9415
4204.8585
4174.7114
722.07408
720.45101
2388.272
4216.988
4229.6765
4227.1395
4267.7523
2358.6479
4955.2041
4897.7069
4173.7812
4207.8863
2332.8978
4882.4173
4842.7877
7452.2356
7520.3838
7505.164
7546.6565
28566.428
48213.254
29267.989
48736.503
12437.372
12427.414
18099.542
18264.944
12387.544
12556.881
18301.427
18056.263
29091.725
28898.699
48739.716
48689.83
12561.509
12392.605
18049.153
18275.295
29060.533
48321.757
28647.956
48258.436
12473.467
12437.467
18067.359
18246.547
28838.763
28536.581
47892.525
47422.265
6405.55
6435.4161
10583.377
10524.746
15762.374
15696.303
6357.4233
6375.7041
10563.986
10435.251
15546.569
15865.297
18766.436
18714.645
22814.041
22749.467
23074.116
18939.243
18843.609
22943.962
23039.854
18996.379
18926.696
23059.267
22890.44
18723.132
18584.81
22660.449
39633.085
26802.408
26848.324
39793.174
39883.837
26731.94
26449.853
39201.782
54335.609
64240.567
64309.815
54742.71
63926.064
64650.164
54853.04
54729.788
26477.24
26579.768
38800.588
39122.367
53110.69
63404.75
63764.738
53201.547
39894.485
26879.386
26728.259
39491.061
63901.408
64651.558
53728.884
53925.329
6281.9489
6307.4037
10456.527
10303.177
15709.77
15348.459
6320.862
6351.3094
10487.745
10426.651
15626.014
15719.473
22726.641
18717.385
18673.899
22803.976
18913.669
18822.1
23072.154
22949.868
22916.348
18850.003
18765.617
22909.418
22682.99
18516.55
22427.53
18363.885
39121.185
26476.4
26598.745
39471.306
26760.704
26892.123
39847.561
39967.596
64760.839
55188.233
55037.32
64297.927
54623.724
64073.341
64350.176
54825.278
26526.118
26216.401
38817.09
39682.059
64695.551
64938.677
54736.251
54693.174
54577.832
64331.726
63603.716
53943.188
26734.903
26711.692
39976.867
39753.797
6368.7994
6380.3727
10543.597
10410.958
15791.111
15456.616
6372.6237
6395.1521
10479.591
10549.936
15657.928
15758.609
15441.415
15592.666
18483.315
18526.919
22520.706
22606.978
22937.067
18788.839
18710.2
22842.762
15724.835
15483.551
18772.022
18844.376
22870.312
22886.099
22795.57
18645.691
18525.189
22602.057
26686.701
26628.428
39575.816
39989.657
54588.712
63917.565
64341.948
54716.573
40081.15
26632.412
26406.909
39405.318
63975.779
64688.042
54691.44
54488.592
26392.48
26244.274
38376.986
38887.023
53783.383
63198.501
63665.044
53893.153
39753.364
26736.197
26647.265
39519.337
63947.137
64610.238
54279.878
54271.231
6303.2377
6302.4593
10453.036
10373.201
6213.7053
6245.8336
10345.569
10268.721
18678.778
18725.499
22702.249
22773.222
23030.092
18916.35
18835.512
22926.585
22930.846
18907.839
18833.85
22944.974
18470.154
18609.998
22752.245
22521.383
26563.344
26434.864
39113.385
39594.537
54288.83
63635.341
64180.675
54452.283
40238.882
26835.985
26724.776
39893.763
64271.947
64916.055
54728.785
54713.311
39790.808
26693.881
26738.865
39941.615
39811.379
26587.026
26307.984
39008.925
54342.115
64204.546
64324.819
54409.749
63613.98
64462.587
54144.653
53610.04
715.3544
717.93592
2240.8203
727.77096
730.38762
2296.514
2310.1577
3575.6218
3613.4837
6814.8893
6713.4361
13139.081
12978.659
34140.093
33780.45
3648.7469
3682.8197
6894.2008
6807.498
3695.8566
3676.7691
6830.0471
6891.6796
13133.483
13187.826
33535.599
33873.225
13167.035
13056.495
33580.585
33247.424
2387.372
4214.5928
4227.4055
720.34262
724.06234
2405.7236
4233.2543
4268.4028
7532.4947
7549.9397
7609.4173
7564.814
12512.778
12538.04
18230.672
18355.382
28526.246
29163.337
47831.888
48233.953
12457.937
12658.275
18467.368
18199.371
29250.794
48821.782
29111.017
48790.933
12604.206
12407.994
18344.421
18063.801
28970.838
48851.873
29635.253
49119.746
12601.189
12625.513
18295.416
18395.62
29362.12
29006.797
48889.469
48729.944
40966.783
40573.403
41593.148
41166.931
40746.312
40478.172
39134.616
40388.339
40065.694
39299.482
41024.526
40739.354
41859.829
41154.021
42016.391
41311.957
11311.848
37234.587
37437.09
11238.186
35868.109
36997.684
11177.377
11062.259
38120.653
37684.053
38974.31
38933.583
11596.701
37742.303
37918.628
11482.869
38385.379
37823.685
11480.738
11385.253
40695.268
39794.875
40736.682
41068.525
41665.28
40954.289
41686.439
42218.85
40832.87
41112.491
40547.162
39375.74
37901.439
37584.132
11724.897
11623.572
38773.13
38908.7
11784.421
11730.376
39205.151
39567.381
11961.045
11914.037
12003.622
39655.37
39027.819
11922.643
39133.914
39475.244
12186.667
12121.33
12155.102
39981.138
39486.278
12059.984
39813.993
39373.614
12123.933
12078.215
38778.242
39783.995
12125.555
12010.688
21600.477
8104.4524
21547.988
7980.0016
21263.3
20995.067
7934.3284
7937.1977
39577.794
38796.685
11983.418
11979.839
39124.543
39803.995
12131.026
12043.392
36542.242
36165.234
11390.924
11326.71
37729.29
37726.898
11555.899
11511.482
21156.154
21397.191
7972.3181
8020.6252
22226.356
22575.265
8309.9333
8458.9834
8447.0062
22434.735
22766.157
8405.4718
22534.531
22239.011
8368.4585
8376.7817
9207.7718
9361.4247
8975.503
9114.9047
9263.4598
9038.2398
9281.477
9040.4891
9695.8188
9271.3621
9699.7773
9255.7969
9604.8009
9169.5483
9747.5734
9291.2477
7285.2539
7314.3368
2782.0522
6205.3494
6244.478
7273.5827
7425.1751
2823.3853
6188.149
6360.4922
8423.3287
8485.0307
8456.1543
8501.2912
8395.8945
8553.3551
8454.0704
8602.2135
2644.9252
2690.3034
7517.2176
7662.103
2865.4051
6424.2566
6549.7231
7534.1278
7701.2145
2846.3242
6421.9359
6613.8995
8685.4204
8740.0806
8866.5389
8909.9595
8706.6096
8780.2835
8867.9224
8919.9814
2720.0038
2691.5224
9976.4145
9527.0667
10172.18
9689.9222
9595.8257
9373.8748
9729.9229
9492.4833
9546.5618
9308.9988
9744.5353
9482.585
10056.818
9619.681
10180.133
9739.1414
2165.101
2112.0241
2290.5919
2340.0897
2346.1286
2147.249
2124.4741
2322.2512
10355.973
10457.177
9561.1409
9639.0452
10458.407
10387.813
9652.8737
9576.2929
9921.9305
9998.9278
8923.7027
8969.9605
10018.302
9940.7258
9012.4869
8926.7037
10331.004
10531.945
9523.7669
9681.7219
9966.9083
9786.6969
9048.171
9167.9241
5203.5932
5179.8086
4701.688
4703.526
9870.9949
10043.24
8867.9446
8984.1919
9507.1612
9385.1786
8467.9247
8529.6029
10466.323
9999.8422
10574.933
10107.202
10537.076
10074.669
10536.821
10042.016
10672.827
10630.943
9983.2488
9916.7414
10580.684
10696.849
9890.778
9991.8964
4914.7169
4845.9318
4737.3272
4780.541
10524.831
10029.024
10715.754
10207.477
10596.702
10805.84
9879.5383
10058.877
9967.7941
9502.4477
10262.61
9730.1851
10268.415
10027.215
9363.5431
9535.119
4754.2291
4863.9286
5076.3783
4940.3362
5197.9191
4719.4781
5405.0788
4876.0439
4303.2934
4358.7852
4163.5366
4490.7268
3399.5688
3714.9439
3369.0877
3275.9306
3563.4011
1240.6048
3654.9725
4257.1155
4294.3772
4161.6249
4376.4829
1077.0506
9881.1159
9418.9667
10202.307
9687.8836
9967.6692
10114.413
9720.3379
9856.8082
9530.1923
9268.4638
9833.2287
9542.9459
10399.678
9923.5734
10562.652
10082.384
9103.6422
9152.668
9249.7166
9286.0224
8769.4677
8782.8435
9025.5028
9028.9923
7656.107
7851.4448
6608.5637
3000.5919
6772.7253
7916.0686
8050.9882
2980.969
6938.1537
6789.1362
2861.0239
2816.3716
10350.995
10387.969
9910.8421
9916.4817
9873.8542
9956.2335
9638.0978
9723.1581
9892.3629
9664.8827
9954.2428
9698.4851
10310.767
10404.455
9861.3176
9961.0979
9013.7317
9072.875
9106.373
9158.6454
9017.9875
9079.5131
9093.2489
9132.6185
7839.6192
7899.1631
2970.7768
6729.6555
6787.9666
7842.5011
7952.9909
2982.1876
6721.3767
6867.1089
2802.9289
2811.3076
2478.3217
2270.0197
2204.3806
2426.0945
2207.246
2191.206
2413.2971
2428.8966
4920.9818
4885.5853
4898.0158
5385.3799
889.70468
1917.3201
1665.3853
1605.0032
1857.505
1841.2669
1582.9245
1605
1862.0962
1814.0977
1797.5277
10157.789
10277.561
9366.6721
9462.7508
10015.538
9241.0774
10113.772
9300.4605
9604.843
8643.5068
9658.3534
8656.2589
9732.2258
9832.2644
8747.4327
8817.2515
9145.7244
9195.8669
9886.7819
9812.8439
9868.8926
9846.0262
9420.0061
9376.2667
9849.5847
9735.0168
9279.0845
9365.3335
9988.2639
9324.4756
9254.2828
9933.4578
10236.592
9552.0667
10374.654
9649.7185
10238.505
10366.704
9778.7249
9897.7722
10129.339
9664.6896
10304.405
9797.7542
10367.81
10496.973
9683.0475
9798.4444
9392.6905
8455.8622
9296.0862
8356.1691
9583.8853
9625.0647
8837.2246
8857.0402
9785.4455
9025.3085
9705.5056
8941.8598
9181.4258
9189.6999
8262.1254
8251.1091
14179.082
13456.299
13357.138
14062.562
13928.692
14073.48
13374.288
13272.863
12775.701
13730.966
12871.227
13631.032
13554.928
12721.186
13651.657
12791.466
13526.197
14392.987
13652.207
14250.827
13928.535
13052.198
12929.248
13797.235
13607.796
14363.903
13620.222
14337.732
13891.484
13002.674
13886.555
13002.268
12467.438
13292.905
12589.97
13157.105
12042.549
12816.412
12687.233
11948.23
13223.849
12507.84
13227.626
12517.616
12012.815
12735.043
12718.48
11955.389
13103.359
12404.599
12306.639
12997.62
11869.171
12621.339
12517.382
11789.667
13012.31
12936.418
12309.572
12246.626
11762.89
12440.287
11669.57
12511.361
14631.329
13867.745
13847.416
14617.309
14722.598
14775.661
14005.456
13972.45
14124.779
13229.626
13200.444
14109.936
14252.326
14274.603
13353.093
13343.161
13785.503
12916.648
12870.075
13748.189
13493.65
14277.357
13538.653
14234.224
14402.661
13652.63
13637.286
14369.951
13911.444
13016.475
13013.308
13906.314
13130.711
12435.727
12387.417
13083.817
13231.307
12518.481
12504.397
13224.824
11838.189
12638.949
11870.197
12595.184
12725.548
11980.781
11926.796
12706.991
13449.093
12733.453
12695.423
13418.144
13564.59
13573.452
12836.952
12826.807
12942.585
12181.886
12163.458
12907.936
13029.637
13044.28
12278.818
12220.543
15400.101
14805.982
14687.208
15277.468
15257.132
15351.633
14770.34
14683.322
15342.242
14631.614
14508.275
15217.858
15175.498
15289.785
14581.339
14472.84
15462.838
14889.056
14748.08
15315.04
15536.737
14946.485
14987.05
15584.871
15457.02
14751.761
14606.537
15304.297
15501.939
14783.336
14804.779
15535.568
14479.305
15265.087
14611.959
15110.964
15017.557
14112.256
13979.443
14890.072
14629.124
15289.911
14638.53
15297.108
15051.449
14095.876
15024.445
14076.74
15114.782
14455.212
14336.988
14985.044
14897.937
15042.688
14385.513
14241.558
13917.867
13801.396
14835.047
14720.187
14559.187
14741.626
13812.274
13669.432
14527.785
15245.588
14571.963
15192.124
14932.153
14027.314
13983.647
14911.594
15362.236
14679.47
15381.268
14712.18
15104.291
14144.59
15056.657
14104.186
15942.81
15322.223
15238.06
15856.261
15975.631
15392.42
15377.592
15958.234
15065.847
15875.83
15130.285
15803.471
15212.885
15973.416
15241.566
15946.382
14874.765
15567.666
14967.499
15475.278
15497.504
14772.074
14700.061
15418.237
15101.062
15702.948
15091.715
15727.367
15633.455
14891.762
15636.073
14884.171
15629.108
14947.331
14917.035
15583.419
15763.151
15091.518
15717.507
15042.651
14377.823
14356.579
15339.911
15339.174
15438.6
15508.921
14510.29
14468.869
20192.997
20207.941
18372.251
18320.2
18987.116
19001.834
20888.187
20908.304
5567.8571
5570.5367
5627.6133
5625.5435
20137.869
19517.458
18602.243
16903.429
16821.85
18547.792
19226.854
17440.108
17462.272
19250.163
15721.189
17199.032
15790.84
17141.81
17798.928
16257.109
17747.486
16325.1
20836.141
20845.649
19052.473
18991.775
19517.865
19524.657
21367.732
21374.094
5842.6479
5630.4063
5667.9818
5881.8797
20570.398
20024.036
19308.976
17585.662
17499.995
19253.527
19752.449
17982.266
17996.206
19760.888
16469.03
17909.434
17854.3
16411.44
18334.086
16886.242
18296.729
16829.904
5122.6171
5113.4565
5162.3118
5159.5635
5277.5052
5107.6788
5157.4926
5339.1791
21238.181
21234.757
19436.155
19357.689
19244.088
19240.431
21108.957
21114.489
5752.633
5846.3126
5878.0589
5772.3576
20331.866
20431.391
19704.026
19620.661
17864.691
17976.698
18321.6
16879.06
16771.079
18228.111
17729.594
19499.785
17740.816
19490.08
18079.532
16623.582
18085.421
16643.352
19391.314
19326.272
17627.109
17539.308
17887.214
16486.743
16415.822
17957.19
19231.465
19203.245
17463.765
17477.979
17790.984
17784.651
16335.445
16348.905
21002.69
21005.246
19147.751
19090.15
18995.687
18984.834
20832.706
20824.774
5665.9288
5683.3818
5707.4609
5686.9907
20056.64
20233.286
5186.0572
5172.5317
5217.6522
5198.403
5230.8106
5299.2436
5346.8568
5266.8948
16845.645
15826.558
15746.195
16786.105
16689.075
16672.958
15659.911
15677.184
15244.552
16277.925
15345.506
16198.432
16095.175
15165.146
16086.385
15160.075
16137.897
17254.999
16250.783
17160.534
16723.144
15796.109
15663.509
16610.879
16011.996
16996.095
15988.173
17027.64
16459.448
15536.323
16484.475
15553.171
15462.906
16277.365
15610.804
16140.11
15374.439
16156.644
16008.322
15229.1
16028.646
15358.587
16017.925
15360.759
15141.419
15908.821
15899.926
15130.385
15800.785
15127.849
15004.957
15693.293
14874.73
15646.951
15519.102
14747.171
15590.184
15581.849
14925.948
14909.082
14663.044
15387.086
14634.831
15419.127
15762.186
16821.167
15818.243
16785.961
16257.382
15334.533
15268.147
16213.798
17180.616
17256.337
16161.67
16238.446
16606.072
16694.428
15665.468
15749.156
16106.261
16052.045
15119.959
15049.401
15443.928
14519.83
15513.05
14610.304
15630.346
16587.47
15549.665
16679.434
15956.1
16055.823
14996.79
15087.577
15005.214
14907.771
14353.448
14241.656
14687.152
13940.322
14805.561
14063.682
15500.851
14790.185
15395.6
14700.957
15151.267
15255.098
14362.016
14451.951
15025.728
15772.933
15100.669
15713.484
14816.691
15594.818
15531.647
14754.185
16207.156
15521.582
16114.641
15438.713
15163.009
15949.046
16042.344
15254.189
4684.3582
4643.141
4715.242
4667.3609
4201.7614
4080.7692
4081.8162
4209.4376
4147.2186
4019.6892
4080.5963
4236.1405
4705.6467
4593.0131
4666.8682
4807.4096
4086.5689
4132.8317
4272.2311
4221.9881
4201.7622
4696.5059
4749.7337
4831.0633
4770.5653
4731.0723
4662.9379
4669.3107
4737.987
4609.1575
4598.128
4655.0374
4676.8451
4710.8103
4744.2059
5133.7776
5106.2937
5147.1215
5173.791
5629.3666
5695.2245
5724.1953
5664.6187
5203.1335
5160.8255
5197.6597
5249.9791
5736.252
5684.2387
5747.1898
5811.6822
5262.9137
5210.0745
5214.1674
5286.5471
5175.8809
5094.0337
5112.338
5193.3534
5629.1832
5583.0095
5672.0117
5713.9813
5753.7442
5671.7952
5707.7916
5806.6765
4651.932
15610.213
14926.393
14818.284
15496.743
15437.199
14782.422
15381.104
14711.616
14258.138
15315.734
14364.303
15222.697
15107.242
14161.507
15200.228
14232.84
15886.743
15283.687
15151.714
15748.35
15660.571
15074.267
15045.265
15641.687
14990.004
15844.795
15108.259
15720.441
14884.615
15641.621
14923.241
15604.695
14291.408
15068.123
14407.75
14943.907
14784.85
13881.322
13758.199
14669.413
14735.249
14093.249
14822.179
14178.388
14534.437
13648.755
14422.286
13557.234
15130.58
15086.266
14507.843
14555.08
15361.971
14766.981
14639.57
15233.737
15174.783
15302.504
14589.988
14466.513
14368.083
15066.912
15000.823
14306.987
14633.763
15276.417
14678.351
15233.132
15184.386
14474.172
14448.648
15161.619
15131.3
15644.773
15046.091
15745.606
15572.843
14843.405
15668.251
14927.355
14490.866
14363.457
13925.741
13802.262
14277.686
13612.841
14400.413
13725.986
14261.242
14783.142
14185.476
14882.938
14654.943
14740.369
13950.641
14020.026
14146.043
13437.659
13534.091
14040.735
13866.531
13775.997
13077.3
12975.259
14445.272
13788.434
14374.085
13743.931
13237.269
14081.547
14118.027
13262.044
14271.896
14925.571
14274.502
14922.105
13747.455
14630.618
14654.383
13740.182
15401.329
14712.882
15315.038
14651.124
14075.139
15022.35
15073.971
14120.476
13999.174
13297.73
13287.831
14000.881
14375.387
14327.935
13600.164
13642.498
13553.185
12716.05
12700.274
13555.044
13915.384
13859.34
12976.222
13022.507
13346.057
12705.803
12604.551
13240.166
13497.997
12837.63
12870.089
13533.336
12979.824
12199.545
12098.52
12876.747
13101.229
12289.507
12321.597
13145.111
12436.108
11797.472
11699.088
12329.351
12509.896
11856.314
11869.269
12541.14
12019.733
11311.604
11229.06
11919.982
12069.117
11377.827
11351.676
12079
12931.719
12255.781
12233.618
12920.809
13239.833
13189.191
12482.886
12515.352
12462.902
11748.438
11736.19
12447.291
12716.657
12684.402
11947.026
11928.811
13442.818
12647.209
12728.341
13355.454
12176.196
12943.301
12867.48
12129.884
12602.946
13363.916
12648.883
13312.2
12162.486
12872.873
12818.889
12073.293
14617.793
13853.685
13756.884
14511.339
13216.468
14109.412
14021.047
13128.482
14499.806
14419.448
13750.136
13686.249
13132.141
13964.104
13084.354
14022.818
14151.02
13440.674
13324.914
14022.928
13828.312
13919.882
13242.246
13176.684
12758.728
13721.435
12871.555
13603.726
13460.933
12638.306
13522.423
12685.141
13110.943
12987.935
12419.927
12304.124
11912.93
12522.768
11812.679
12645.885
12913.602
12231.331
12184.421
12861.073
11638.11
12442.108
11723.926
12386.476
15235.413
15991.36
15333.587
15910.881
15855.199
15080.226
14980.688
15760.593
16203.069
15513.965
16157.325
15481.356
16010.283
15211.456
16045.873
15237.933
17217.082
16238.21
16160.234
17152.156
17096.195
17076.43
16131.002
16152.267
15733.515
16738.281
15832.21
16660.828
16642.87
15759.12
16629.932
15750.633
15889.948
16922.515
15951.872
16883.213
16422.505
15522.774
15443.041
16365.491
16190.292
17139.33
16137.643
17197.107
16615.55
15685.285
16673.765
15731.217
16330.594
15668.573
15560.274
16231.067
16256.923
15625.953
16252.964
15617.968
15431.759
15334.225
16221.665
16120.032
16178.063
16194.921
15438.707
15429.935
19552.834
19482.165
17856.138
17760.818
18149.161
16815.406
16736.095
18225.554
19375.828
19352.497
17699.831