/*--------------------------------*- C++ -*----------------------------------*\
  =========                 |
  \\      /  F ield         | OpenFOAM: The Open Source CFD Toolbox
   \\    /   O peration     | Website:  https://openfoam.org
    \\  /    A nd           | Version:  7
     \\/     M anipulation  |
\*---------------------------------------------------------------------------*/
FoamFile
{
    version     2.0;
    format      ascii;
    class       surfaceScalarField;
    location    "10000";
    object      phi;
}
// * * * * * * * * * * * * * * * * * * * * * * * * * * * * * * * * * * * * * //

dimensions      [0 3 -1 0 0 0 0];

internalField   nonuniform List<scalar> 
100394
(
6.0299353e+54
-3.0500014e+55
-2.8691401e+55
-3.1763673e+55
-2.49589e+55
-2.8982077e+55
1.0623997e+55
1.0139795e+55
-1.4931673e+56
-2.7468959e+54
-3.7472765e+54
-1.6831093e+55
-2.8708184e+55
-2.9979728e+55
-2.5647196e+55
-2.4314158e+55
-2.1557901e+55
-5.8775263e+54
-2.4070816e+54
2.7752501e+54
-6.3957435e+54
-7.807062e+54
-6.7811302e+54
-7.3525014e+54
-3.3459391e+53
-2.476605e+55
-5.7632001e+54
2.6869637e+54
-6.5085481e+54
-6.5286573e+54
-7.3018364e+54
-3.2217646e+54
-7.5337061e+54
1.2563015e+55
-2.9874803e+55
-3.1681633e+55
-2.8953922e+55
-3.0781653e+55
-2.8945304e+55
-2.4272135e+55
-6.6793976e+53
-1.2915069e+55
9.1923519e+54
-7.2070679e+54
-7.4462547e+54
4.8027786e+54
5.5237397e+54
-6.9256478e+54
8.5782723e+54
-6.654446e+54
-1.1100156e+54
2.7558188e+54
2.6421942e+54
-3.2250137e+55
-4.4592556e+53
-5.2721918e+53
2.468025e+54
2.5797372e+54
-3.1968647e+55
-5.6162681e+53
-5.7381241e+53
-1.0730988e+54
1.0675731e+55
1.1082595e+55
-1.4297862e+56
-2.6344315e+54
-3.0115244e+54
-1.6255117e+54
1.6163657e+54
-6.5678165e+54
-7.1661267e+54
-6.9025051e+54
-6.3154797e+54
1.4926438e+54
-2.100112e+54
-6.4428591e+54
-7.0089234e+54
-7.1910988e+54
-6.5236049e+54
2.7460098e+54
-3.4713293e+54
-5.7974879e+54
-4.5637055e+54
-5.7969651e+54
-4.5841094e+54
-5.6707541e+54
-4.8425117e+54
-6.028474e+54
-4.5037294e+54
-2.9977588e+55
-2.5750182e+55
-2.8997109e+55
-3.1197005e+55
-2.7542896e+55
-2.4790781e+53
-1.203556e+54
7.3436191e+53
-1.3842405e+54
-1.3136537e+54
-1.7439883e+54
-1.6423134e+54
1.2125777e+54
9.3074755e+51
-6.2751826e+52
-6.2103751e+54
-3.8376684e+53
7.108426e+53
-1.3526446e+54
-1.6910158e+54
-1.3581631e+54
-1.7417111e+54
-6.0423952e+54
4.1367914e+53
-1.119269e+54
6.5854402e+53
-1.3369297e+54
-4.2476151e+53
-1.6446154e+54
-1.3445893e+54
-1.7106054e+54
-1.1289224e+54
7.2063601e+53
-1.3856141e+54
-1.3145005e+54
-1.7419914e+54
-1.6483511e+54
7.720691e+52
-5.9764617e+54
-5.3825345e+52
-2.7207268e+54
-6.1730554e+54
3.5629861e+54
-6.2713739e+54
-7.1565957e+54
-6.6744129e+54
-7.6633942e+54
-6.0684361e+54
-6.3215269e+54
3.707894e+54
-6.4199365e+54
-6.3975962e+54
-3.6198513e+54
-7.5539339e+54
-7.7974072e+54
-3.242278e+53
-2.4794957e+55
-2.5447892e+55
-8.9691669e+53
1.6989279e+55
-2.9444504e+55
-2.9883308e+55
-3.1311644e+55
-3.0320051e+55
-6.2034159e+54
9.0563861e+54
-6.7275766e+54
-7.5957425e+54
4.622981e+54
5.1373382e+54
-7.2110667e+54
9.2772194e+54
-9.447426e+53
-2.4511073e+55
1.9670848e+54
2.0779344e+54
-1.3283279e+54
-1.3286735e+54
2.4419761e+55
7.7492404e+53
-9.8189101e+53
-1.5724561e+54
-1.6336567e+54
1.6451075e+54
1.6058343e+54
-3.1464681e+55
1.950037e+55
1.0066924e+54
-1.0770274e+54
9.2580905e+53
-1.0866012e+54
-2.0339185e+55
-9.7588574e+53
-1.4050181e+54
-1.3896752e+54
1.9032631e+54
1.9519608e+54
-3.1432741e+55
1.672229e+54
-1.6961215e+54
-1.6092453e+54
1.6133995e+54
-1.1112807e+53
5.761089e+53
5.46459e+53
-7.3745562e+54
-1.2240064e+53
-1.3470772e+53
-8.4678496e+52
5.602201e+53
5.7832931e+53
-7.6422162e+54
-1.2752086e+53
-1.3285541e+53
7.4187476e+52
5.3065798e+53
5.5648359e+53
-7.3693104e+54
-1.2721836e+53
-6.7637853e+52
-1.3525002e+53
5.614184e+53
5.3004721e+53
-7.4647833e+54
-1.3763974e+53
-1.4178166e+53
-7.0681382e+53
2.501467e+54
2.7178841e+54
-3.2009438e+55
-4.995768e+53
-5.0600725e+53
2.5991651e+54
2.7104672e+54
-3.2462019e+55
-5.305958e+53
-5.0026132e+53
-9.8298113e+53
-8.6789655e+53
-1.8358388e+52
-3.6281432e+52
8.9803032e+53
-6.5433079e+54
-1.9865283e+53
2.0237171e+53
-2.3612358e+54
-5.6765057e+54
8.2522141e+53
-2.1918544e+54
-5.5929151e+54
8.9293528e+53
-6.4828101e+54
1.3695555e+54
-1.8395856e+54
-6.6741822e+54
-7.344107e+54
-7.0895874e+54
-6.4139865e+54
-8.1588024e+53
9.9637208e+52
8.29935e+53
-2.5328766e+52
-6.5312206e+54
-1.0912006e+53
-2.2484012e+54
2.3919402e+53
-5.7064758e+54
7.8169983e+53
-2.1754039e+54
-5.7041424e+54
8.4388799e+53
-6.5224364e+54
-3.0636368e+54
-6.080723e+54
-5.6955053e+54
-4.9018512e+54
-4.5472534e+54
2.7868327e+53
3.222402e+53
-3.4067469e+53
-1.4557055e+54
-1.4181133e+54
-1.1665067e+54
-1.1874754e+54
5.0470314e+53
-5.6625331e+53
-9.5616723e+53
-9.6004917e+53
-8.2632092e+53
-8.2238973e+53
2.7431344e+53
3.3185983e+53
-1.4117074e+54
-1.4639461e+54
-1.1572303e+54
-1.2041251e+54
5.7135927e+53
-1.0065974e+54
-9.4912022e+53
-8.7596195e+53
-8.2413566e+53
-1.7812001e+53
2.8845114e+53
-1.4635236e+54
-1.4056313e+54
-1.1513039e+54
-1.2007834e+54
-2.8858513e+53
3.897236e+53
-9.8488899e+53
-9.8105978e+53
-8.4588927e+53
-8.4960891e+53
-1.4602679e+54
-1.4308241e+54
-1.1935798e+54
-1.1806168e+54
-1.0082117e+54
-9.4821235e+53
-8.7873862e+53
-8.2268667e+53
-3.1390797e+55
-2.981954e+55
-2.8297084e+55
-2.6318797e+55
1.2725633e+54
-2.7193119e+54
-6.508084e+54
-7.1913381e+54
-7.3566788e+54
-6.607907e+54
-4.4688772e+54
-5.8710262e+54
-5.8378271e+54
-4.7447163e+54
-4.7036284e+54
2.7213915e+52
-2.3562948e+53
-5.3397597e+52
1.8158189e+53
-2.7901525e+53
-3.6553751e+53
-2.816241e+53
-3.7783196e+53
-2.3418562e+53
1.8457395e+53
-2.8427537e+53
-2.7191691e+53
-3.5593648e+53
-3.7677444e+53
-2.5605811e+51
-1.340918e+52
-1.387539e+54
-1.351879e+54
-2.3907923e+53
6.0946242e+52
-5.2930574e+52
1.7625409e+53
-2.7668619e+53
-2.8118053e+53
-3.6184404e+53
-3.7812402e+53
1.7272204e+52
-8.6889381e+51
-1.3784581e+54
-2.3531179e+53
1.8617384e+53
-2.8580058e+53
-3.8052226e+53
-2.728378e+53
-3.6231568e+53
-1.3948305e+54
-2.2968294e+53
7.3538731e+52
1.7221919e+53
-6.1477457e+52
-2.7681341e+53
-2.8023795e+53
-3.5929279e+53
-3.7518293e+53
-1.2024562e+54
-2.8769084e+53
8.2395123e+53
-1.2999062e+54
-1.3781873e+54
-1.7307332e+54
-1.6211131e+54
2.4386906e+52
-1.3545432e+54
-1.3483993e+52
-2.2802903e+53
6.8869893e+52
1.8416052e+53
-2.8582331e+53
-3.7842969e+53
-2.7173539e+53
-3.6006329e+53
2.1582233e+52
-1.3793461e+54
3.8610451e+52
-2.3117062e+53
1.8019955e+53
-2.7870369e+53
-2.8100275e+53
-3.7876416e+53
-3.6591277e+53
-2.2984732e+53
1.8957701e+53
-2.8382791e+53
-2.7116508e+53
-3.5629729e+53
-3.7725997e+53
-1.3519747e+51
-1.3888094e+54
-1.3581921e+54
3.194012e+52
-5.9433503e+54
-1.2583607e+54
-4.4753516e+53
8.3266795e+53
-1.3396954e+54
-1.3429186e+54
-1.6790759e+54
-1.7271859e+54
-5.7061195e+52
-6.1148696e+54
-4.4051597e+53
-1.253297e+54
9.1151278e+53
-1.3663647e+54
-1.2982464e+54
-1.7538316e+54
-1.6667287e+54
-1.2416432e+54
8.5918979e+53
-4.5986822e+53
-1.7286054e+54
-1.3142654e+54
-1.2973581e+54
-1.6555612e+54
-6.5980966e+54
-2.8946974e+54
4.2720115e+54
-6.1254031e+54
-7.7922342e+54
-6.5442538e+54
-7.3816762e+54
8.4812569e+52
-6.207151e+54
-7.4073669e+52
-6.3124853e+54
-3.6780718e+53
-2.5520982e+55
-6.2973204e+54
4.1071979e+54
-6.3337956e+54
-7.7440823e+54
-5.1655175e+53
2.4369511e+55
1.6283405e+54
-1.5511734e+54
-1.5831617e+54
1.6667641e+54
-3.1199033e+55
-2.4377911e+55
5.4778497e+53
2.0716643e+54
2.0398453e+54
-1.419814e+54
-1.3632439e+54
-9.0395469e+53
-8.1734846e+53
1.5703897e+54
-1.6566922e+54
1.5834544e+54
-1.7375105e+54
-3.0564328e+55
1.9729575e+55
7.1688695e+53
9.3671933e+53
-1.9919648e+55
1.9827514e+54
-1.2927814e+54
-1.3769599e+54
1.8961825e+54
-6.6392767e+52
-5.7864425e+54
-2.6846889e+53
-2.8243818e+53
4.7266756e+53
4.5669906e+53
-5.9745461e+54
-7.3462873e+52
-2.7936288e+53
-2.6687448e+53
4.7958651e+53
4.8398594e+53
-8.2070268e+52
-7.1433262e+54
-3.4689112e+53
-3.6349173e+53
3.8390267e+53
3.7305348e+53
-1.3404119e+53
-7.3519703e+54
3.9777754e+53
-3.5658366e+53
-3.4185437e+53
4.0138303e+53
2.7617482e+52
5.5269042e+54
-7.0126724e+52
-3.92235e+53
3.0301843e+53
-4.0103466e+53
3.1231373e+53
-6.8789121e+54
5.6290039e+54
7.9266225e+52
-4.083176e+53
3.130048e+53
3.0879934e+53
-3.9409437e+53
-7.1336998e+54
-6.8316392e+52
7.3856143e+54
1.2515088e+53
-3.8177653e+53
-4.0365704e+53
3.1216757e+53
3.0492961e+53
7.2937666e+54
-7.1886406e+52
-3.9683553e+53
-3.8594763e+53
3.0859076e+53
3.1673463e+53
6.9555113e+53
-9.2453589e+53
1.4104399e+54
1.5341181e+54
-1.6648081e+54
-1.6583315e+54
1.3568234e+54
1.3502708e+54
-7.065229e+52
5.8763236e+54
3.8346449e+53
-3.641274e+53
3.7295021e+53
-3.5140339e+53
5.8588361e+54
-9.6728428e+52
-3.5660684e+53
-3.4439834e+53
3.8220213e+53
3.9013504e+53
5.5142333e+52
-4.2676734e+52
-2.7840778e+53
-2.6865261e+53
4.5926811e+53
4.6811602e+53
4.6175889e+53
-2.8414329e+53
-2.7608218e+53
4.4364718e+53
-5.506177e+54
4.6304596e+52
3.2400437e+53
-3.7954657e+53
-3.7276103e+53
3.3358616e+53
3.4112801e+52
-6.9171934e+54
3.0409039e+53
2.9131958e+53
-4.1358263e+53
-4.2177796e+53
5.4120633e+54
-6.8328725e+54
-4.1350464e+53
3.0732615e+53
-4.0056375e+53
2.9477481e+53
-3.7519654e+53
-3.8965701e+53
3.1312735e+53
2.9871572e+53
-1.2749813e+54
1.6234434e+54
-9.530063e+51
-8.1627112e+52
6.7589514e+52
-8.2939748e+52
7.0959419e+52
-1.61562e+54
-1.7251103e+52
-8.2465379e+52
6.6426341e+52
-8.3910908e+52
6.99388e+52
-1.2611788e+54
-1.5720186e+52
-8.5783021e+52
6.4667889e+52
-8.6318669e+52
6.8642255e+52
-1.5270702e+52
5.8662599e+52
6.1941381e+52
-9.3647472e+52
-1.5712223e+54
-9.5917993e+52
-5.1332659e+52
2.9061817e+53
2.9806761e+53
-4.0641179e+53
-4.2338263e+53
-1.6582696e+54
-1.7810483e+52
-6.2799364e+52
9.5537849e+52
-6.446611e+52
-1.2857018e+54
-1.0551033e+52
-7.2335745e+52
7.9462324e+52
-7.3676278e+52
8.2842923e+52
-8.9661431e+51
-7.5883785e+52
7.3093987e+52
-7.7496835e+52
7.632516e+52
-1.5127916e+52
1.141919e+53
1.2092118e+53
-1.6503485e+54
-2.9270689e+52
-3.1783606e+52
-1.6908983e+52
1.1662627e+53
1.2102038e+53
-1.6953016e+54
-3.0913263e+52
-3.1897317e+52
1.1111081e+52
-4.28448e+51
1.1669328e+53
1.2307266e+53
-1.6932261e+54
-2.8989622e+52
-3.035553e+52
1.2150883e+53
1.1624637e+53
-1.7075659e+54
-3.2830199e+52
-3.0842842e+52
1.3574228e+52
1.1546654e+53
1.220437e+53
-1.6629751e+54
-2.8195494e+52
-2.9486671e+52
-1.2188652e+52
-5.8030432e+52
5.8249225e+53
5.396739e+53
-7.3339234e+54
-1.1768655e+53
-1.2309052e+53
1.8897949e+52
1.1991214e+53
1.1512917e+53
-1.6918685e+54
-3.260463e+52
-3.0487885e+52
-1.1815865e+52
1.1357212e+53
1.2072984e+53
-1.6604136e+54
-3.2068658e+52
-3.0120049e+52
1.2160235e+53
1.1622709e+53
-1.6978099e+54
-3.137171e+52
-3.2156786e+52
-8.0781337e+52
5.6420179e+53
5.8124878e+53
-7.5056453e+54
-1.2400924e+53
-1.1392151e+53
-6.2116131e+52
5.8428535e+53
5.5805147e+53
-7.746369e+54
-1.3206192e+53
-1.2565229e+53
5.9079169e+53
5.5987844e+53
-7.6269682e+54
-1.1977068e+53
-1.1397793e+53
-5.9481284e+52
2.8276088e+54
2.6791019e+54
-3.2345922e+55
-4.2242885e+53
-4.8796094e+53
-1.1176922e+53
-5.4949216e+53
-6.3618166e+53
-2.9687613e+55
-5.9842825e+53
-7.1349108e+53
-8.8337338e+51
-2.9607472e+55
-8.6972978e+53
5.4002549e+52
-4.0432025e+52
4.9546889e+53
4.9632861e+53
-6.5495512e+54
-6.0760877e+52
-6.8632466e+52
-1.3140177e+53
1.8669134e+53
-7.1510164e+54
8.3569688e+53
-7.0479829e+54
5.0893613e+53
4.8458632e+53
-6.5069594e+54
-6.0188687e+52
-6.6108954e+52
-8.1065116e+53
-3.6121494e+52
8.2930347e+53
-3.6656017e+52
-6.6200563e+54
-2.5159377e+53
2.4057872e+53
-2.3248684e+54
-5.8188735e+54
7.4686625e+53
-2.1134593e+54
-5.7353935e+54
8.1305964e+53
-6.54163e+54
-8.2975609e+53
7.0539009e+52
4.8615239e+53
4.8355074e+53
-2.3180251e+52
-6.574961e+54
-6.8624682e+52
-7.4939163e+52
-1.5371364e+53
2.2510128e+53
-7.2060468e+54
8.0021726e+53
-7.1848723e+54
4.784479e+53
5.004902e+53
-6.5352533e+54
-6.5538654e+52
-7.0257801e+52
2.2150315e+53
2.1295294e+53
-4.1378645e+53
-1.1811339e+54
-1.4329014e+54
-1.1950486e+54
-1.4630052e+54
2.2185688e+53
-1.4629787e+54
-1.4066817e+54
-1.2014389e+54
-1.1523748e+54
4.2308897e+53
-6.3506294e+53
-8.533285e+53
-9.719872e+53
-9.6817363e+53
-8.5076693e+53
-9.3694109e+53
-8.8486868e+53
-1.0000009e+54
-8.2279906e+53
-7.2433452e+51
2.2504592e+53
-4.3379522e+51
-1.1830175e+54
2.2835896e+53
-1.1813005e+54
1.1135757e+52
3.3983128e+52
2.1534194e+53
-2.4220216e+52
-1.1632524e+54
2.161412e+53
2.6042899e+52
-1.1706301e+54
6.8314476e+52
3.0471068e+52
-7.1655953e+52
-1.6546264e+53
-1.6643207e+53
-2.2084032e+53
-2.152196e+53
2.3495727e+52
7.442251e+52
-1.7170318e+53
-1.6297111e+53
-2.1580929e+53
-2.2302787e+53
-8.1960679e+52
9.3317269e+52
-1.5515914e+53
-1.453591e+53
-1.7048473e+53
-1.5901804e+53
-7.951846e+52
-1.4790649e+53
-1.6261006e+53
-1.4816765e+53
-1.6345747e+53
1.8680551e+52
2.2872872e+53
-8.7432958e+51
-1.1719253e+54
2.3513342e+53
-1.1842465e+54
-8.4343132e+51
2.2387245e+53
2.2780914e+52
-1.1667203e+54
2.2495035e+53
-1.1763333e+54
4.2387484e+52
2.9891785e+52
-2.1884135e+53
-1.6851713e+53
-2.2348408e+53
-1.6866111e+53
2.5263415e+52
6.6018329e+52
-2.2352746e+53
-2.1577921e+53
-1.7206604e+53
-1.6276921e+53
5.7971844e+52
-1.5194474e+53
-1.5080124e+53
-1.6357724e+53
-1.6420188e+53
7.748937e+52
-1.4581446e+53
-1.6923082e+53
-1.5865987e+53
-1.551075e+53
-1.9927848e+52
2.4149692e+53
1.0110119e+52
-1.1862663e+54
2.3629502e+53
-1.1764254e+54
-5.5670895e+51
2.3395261e+53
-1.1703104e+54
-1.796344e+52
2.3530725e+53
-1.1821969e+54
5.9618947e+52
3.7161352e+52
-2.3154089e+53
-2.1975815e+53
-2.2571659e+53
-1.6869894e+53
-1.6993596e+53
2.9498529e+52
-2.3101438e+53
6.1641655e+52
-2.2542847e+53
-2.1814726e+53
-1.7324511e+53
-1.6474507e+53
-7.3116766e+52
7.8841745e+52
-1.5723831e+53
-1.7028816e+53
-1.4794412e+53
-1.6047092e+53
-1.5171986e+53
-1.6285513e+53
-1.5259626e+53
-1.6464956e+53
-2.8742949e+51
2.3457652e+53
-1.1863909e+54
2.385435e+53
-1.1846565e+54
-2.8144513e+52
-1.1798364e+54
-1.1789777e+54
3.6649817e+52
3.31794e+52
-2.1939012e+53
-2.2411575e+53
-1.6853866e+53
-1.6904715e+53
3.2406521e+52
-2.2491609e+53
-2.1653369e+53
-1.7163079e+53
-1.6245101e+53
4.9831327e+52
-1.5291034e+53
-1.6445817e+53
-1.527611e+53
-1.6483717e+53
-1.5628852e+53
-1.4686913e+53
-1.6877975e+53
-1.594372e+53
2.1843474e+54
1.263928e+54
-7.4294688e+54
-7.2509555e+54
-6.6354962e+54
1.2905243e+54
-7.2268458e+54
-7.4799912e+54
-6.7057466e+54
-6.4339086e+54
3.6750822e+54
-5.8303276e+54
-4.7725715e+54
-6.0849123e+54
-5.7003211e+54
-5.0885967e+54
-4.6762256e+54
-7.7955983e+53
1.0815139e+53
8.0374735e+53
-4.7112846e+52
-6.5933083e+54
-1.2177321e+53
-2.223046e+54
2.370603e+53
-5.8631379e+54
7.1417058e+53
-2.1181245e+54
-5.8339192e+54
7.8739754e+53
-6.6096382e+54
4.0466951e+53
2.051242e+53
-4.4163732e+53
-1.4586827e+54
-1.4198338e+54
-1.1682693e+54
-1.1886486e+54
1.8231805e+53
-1.4658956e+54
-1.2050155e+54
-1.4134806e+54
-1.1574726e+54
5.6556964e+53
-6.5427282e+53
-9.523422e+53
-8.4057332e+53
-9.5556954e+53
-8.4321351e+53
-9.40798e+53
-8.963189e+53
-1.0013425e+54
-8.4083132e+53
-4.9895358e+52
9.597992e+51
-8.3056835e+51
5.3792017e+52
-5.8015195e+52
-5.6668849e+52
-8.3006403e+52
-8.6513743e+52
3.7499623e+51
-2.7862704e+51
-2.9977027e+53
-4.9159473e+52
6.8204194e+51
5.5324114e+52
-8.7211687e+52
-5.8263473e+52
-5.6279639e+52
-8.3256309e+52
2.085782e+51
-3.0430686e+53
1.9094233e+51
-4.9884687e+52
5.5686758e+52
-5.811342e+52
-5.6814788e+52
-8.3743947e+52
-8.6494249e+52
-4.9010053e+52
5.4019135e+52
-5.5944729e+52
-5.7857678e+52
-8.6358704e+52
-8.1785967e+52
1.1676879e+51
-2.9508622e+53
-3.0248447e+53
1.1432966e+52
-4.9952013e+52
-7.807869e+51
5.2391178e+52
-5.7672062e+52
-5.6430175e+52
-8.2406005e+52
-8.6242188e+52
-5.0167515e+52
1.0870288e+52
5.5298302e+52
-5.8376717e+52
-5.6758467e+52
-8.705612e+52
-8.3557294e+52
5.3580043e+51
-2.4391182e+51
-2.9802164e+53
4.713196e+51
-3.0457407e+53
-5.0582887e+52
4.8747259e+51
5.6724978e+52
-5.8107701e+52
-5.7019185e+52
-8.3846822e+52
-8.6973372e+52
-7.5785913e+48
-3.0487553e+53
-5.0150053e+52
5.608702e+52
-5.792512e+52
-5.5767494e+52
-8.6535249e+52
-8.1977843e+52
-2.9901321e+53
-3.537691e+52
-2.4233905e+53
2.0223714e+53
-2.8415944e+53
-2.7073165e+53
-3.5464402e+53
-3.763698e+53
1.3003913e+52
-5.0424609e+52
5.3679043e+52
-9.30419e+51
-5.7942777e+52
-5.662347e+52
-8.2682928e+52
-8.6518356e+52
-5.0396372e+52
1.2793997e+52
5.6344397e+52
-5.8485553e+52
-5.6713599e+52
-8.7191579e+52
-8.358527e+52
6.0694929e+51
-2.9697496e+53
-3.3453678e+51
5.9238153e+51
-3.0338991e+53
-2.4928778e+53
-6.0655602e+52
2.0188565e+53
-2.7894201e+53
-2.8172374e+53
-3.7869019e+53
-3.6615063e+53
-6.4345288e+51
-7.8905198e+51
-1.3832037e+54
-1.3436968e+54
-5.0259359e+52
6.5100844e+51
5.6466005e+52
-5.8034183e+52
-5.6935131e+52
-8.3849799e+52
-8.6926871e+52
9.9533752e+50
-3.0384841e+53
-4.9715265e+52
1.0292782e+52
5.5817356e+52
-5.5536012e+52
-5.7832058e+52
-8.6459754e+52
-8.1792305e+52
4.4331212e+51
-2.9808715e+53
1.1107342e+52
-4.9692584e+52
5.3241686e+52
-5.7593551e+52
-5.640835e+52
-8.2809472e+52
-8.6255959e+52
-4.9686543e+52
9.1814781e+51
5.5716337e+52
-5.6430967e+52
-5.8256473e+52
-8.720361e+52
-8.3215632e+52
-4.8384342e+51
2.8834701e+51
-3.0489339e+53
-2.9978357e+53
2.8713471e+51
-5.0443084e+52
5.7196787e+52
-5.6656441e+52
-8.3683868e+52
-8.6397778e+52
-5.7533402e+52
-4.9382208e+52
5.5229588e+52
-5.7714277e+52
-5.6123498e+52
-8.612957e+52
-8.1981629e+52
1.2868761e+51
-2.9583337e+53
-3.0280286e+53
6.9125928e+52
-2.5447487e+53
-6.4189051e+52
2.0351282e+53
-2.7568953e+53
-2.7932207e+53
-3.7742951e+53
-3.6122909e+53
-2.4870187e+53
2.1200863e+53
-2.855721e+53
-2.7145065e+53
-3.6102458e+53
-3.7970775e+53
1.4813525e+52
-1.0973742e+52
-1.3731887e+54
-1.3877159e+54
4.6843599e+52
-2.5834579e+53
-7.8818249e+52
2.2138053e+53
-2.7621181e+53
-2.7835356e+53
-3.6518791e+53
-3.776713e+53
-2.5729858e+53
2.2818345e+53
-3.7838229e+53
-2.8290833e+53
-2.6854892e+53
-3.5663713e+53
8.0291112e+50
-2.5861258e+52
-1.4028336e+54
-1.3761466e+54
-3.0464442e+53
-1.3285346e+54
1.0037058e+54
-1.3357801e+54
-1.2600347e+54
-1.6282809e+54
-1.7317019e+54
2.6199063e+53
-2.6479041e+52
-1.3991865e+54
-7.4065131e+52
2.3379208e+53
-2.8143581e+53
-2.6962114e+53
-3.7876392e+53
-3.6099888e+53
-2.5948299e+53
2.2025291e+53
-5.9946179e+52
-3.5654985e+53
-2.6863016e+53
-2.7392006e+53
-3.7314678e+53
-1.3682123e+54
-1.3432558e+52
1.3487891e+54
-2.9057075e+52
-4.657499e+52
-6.2377814e+54
-4.9028208e+53
9.9644203e+53
-1.6722182e+54
-1.3071363e+54
-1.3079771e+54
-1.7189368e+54
-6.1342396e+54
-1.2986357e+54
9.9768046e+53
-1.3482231e+54
-1.748713e+54
-1.2740334e+54
-1.6655782e+54
-6.2759055e+54
-5.5398771e+54
-4.8606968e+52
7.2804629e+54
-3.8218171e+53
-3.9364321e+53
3.2769305e+53
3.1260775e+53
-2.0465472e+52
-4.0032527e+53
-3.8782566e+53
3.1793359e+53
3.0536268e+53
-6.9758572e+54
5.5996813e+54
-2.2453362e+52
-3.9411498e+53
-4.0713939e+53
3.0939929e+53
3.1177673e+53
-7.000776e+54
-1.8643938e+52
7.3934047e+54
3.1342105e+53
-3.9935605e+53
-3.8625587e+53
3.1526889e+53
-6.3079718e+53
1.4891651e+54
1.4911366e+54
-1.5663107e+54
-1.6086879e+54
-3.2643257e+52
-6.0575227e+54
3.7510167e+52
-2.8159223e+53
-2.8884512e+53
4.6641815e+53
4.8197085e+53
-6.0123702e+54
-2.8021366e+53
-2.6925443e+53
-2.7256666e+52
4.8992699e+53
4.7940192e+53
-2.7793953e+52
-7.5205112e+54
3.023085e+52
-3.6179872e+53
-3.6680173e+53
3.9240734e+53
3.7693092e+53
-7.4267686e+54
-6.3309439e+52
-3.6124446e+53
3.9711807e+53
-3.4236053e+53
3.9315791e+53
-2.4205484e+55
1.9795465e+54
-1.3728615e+54
-1.3707036e+54
2.0917483e+54
1.6539358e+54
-1.6392802e+54
-1.6157182e+54
1.5653427e+54
-3.0329747e+55
-5.6800781e+54
3.2650051e+52
-7.0477548e+52
3.1982608e+53
-3.9847182e+53
-3.8582119e+53
3.2599422e+53
2.4341372e+52
-4.5594911e+52
3.1105502e+53
3.038929e+53
-4.0393805e+53
-4.1524273e+53
-7.1112829e+54
-5.7355151e+54
3.1958182e+53
-4.0170264e+53
-4.0848246e+53
3.0306802e+53
2.9150086e+53
3.0484889e+53
-4.24892e+53
-4.1667397e+53
-7.2259209e+54
-9.140348e+53
1.4853885e+54
1.5088435e+54
-1.613058e+54
-1.6662621e+54
-5.9020527e+54
1.1472562e+52
-2.7836446e+53
-2.6346321e+53
4.7448866e+53
4.7253576e+53
-6.384069e+52
5.8516505e+54
3.8783931e+53
-3.4989785e+53
-3.3577447e+53
4.0097669e+53
3.8963221e+53
-3.5767235e+53
-3.4100095e+53
3.8982335e+53
4.719709e+53
-2.6400828e+53
-2.7522995e+53
4.4997279e+53
-1.8771337e+52
1.3026389e+54
-1.6257021e+54
-6.6901681e+52
-6.3389533e+52
9.4022734e+52
9.1823824e+52
1.3272286e+54
-2.1761654e+52
-1.6644905e+54
-6.465053e+52
9.3188644e+52
-6.6221775e+52
9.5498037e+52
1.2738624e+52
-1.612505e+52
-5.1579946e+52
1.050302e+53
-5.2737611e+52
1.072685e+53
-5.2987944e+52
1.0611173e+53
-5.0035203e+52
1.0293933e+53
-1.1770696e+52
1.3361598e+54
-1.6792488e+54
-6.7766073e+52
-6.5110974e+52
9.4205415e+52
9.2406969e+52
1.3370309e+54
-1.6692191e+54
-1.1004863e+52
9.525911e+52
-6.2886454e+52
-6.543069e+52
9.7606085e+52
8.5347226e+51
1.0211652e+51
-4.9713989e+52
-5.2282291e+52
1.0671149e+53
1.0912027e+53
-5.3968738e+52
-5.1762232e+52
1.0671547e+53
1.0400507e+53
-1.4875204e+52
1.2548117e+54
-1.5783216e+54
-8.0588468e+52
-7.7272491e+52
7.1262736e+52
6.9126255e+52
1.2813689e+54
-2.2364861e+52
-1.6233165e+54
-7.8455411e+52
-7.9763456e+52
7.0902519e+52
7.3262182e+52
1.395026e+52
-2.1542724e+52
-7.4047335e+52
7.7536337e+52
-7.5095709e+52
7.9980369e+52
-7.5891879e+52
-7.2621886e+52
7.8333059e+52
7.5742971e+52
-1.2895457e+54
1.1514974e+52
-8.1622132e+51
-7.2613637e+52
7.9797165e+52
-7.4839057e+52
8.2406955e+52
-1.3373667e+52
1.2932166e+54
-1.6412722e+54
-8.1375058e+52
-7.8645878e+52
7.1935937e+52
7.0565933e+52
-1.4613935e+52
-1.6224031e+54
-7.6567106e+52
7.25231e+52
-7.8937343e+52
7.5224768e+52
-7.6633637e+52
-7.4141012e+52
7.9131803e+52
7.6965966e+52
1.2683962e+54
1.6966077e+52
-1.9734459e+52
5.8563546e+52
6.1453214e+52
-1.5868906e+54
-9.6871113e+52
-9.4117898e+52
1.8949684e+52
1.6143769e+54
-2.0581426e+52
-8.5833307e+52
-8.6648931e+52
6.3888929e+52
6.7262856e+52
1.27545e+54
1.9938798e+52
5.7658305e+52
5.6817648e+52
-1.5970257e+54
-9.6740804e+52
-1.0016677e+53
2.1662759e+52
1.63617e+54
-9.0256936e+52
-8.7145514e+52
6.3945601e+52
6.2337517e+52
8.7682399e+51
-5.2161957e+54
-4.5932299e+52
2.9855643e+53
2.9290443e+53
-3.8203637e+53
-4.2453586e+53
1.2838815e+54
1.9710384e+52
5.7164992e+52
6.0792271e+52
-1.6146327e+54
-9.8058972e+52
-9.7236261e+52
2.1331349e+52
1.644041e+54
-8.7775954e+52
6.2896774e+52
-8.802076e+52
6.6076719e+52
-1.2669703e+54
1.6127921e+54
2.9918999e+52
-8.9093425e+52
6.5502706e+52
-8.5667552e+52
6.3648271e+52
2.8039769e+52
5.8554819e+52
5.8621104e+52
-1.5936331e+54
-9.360566e+52
-9.9331138e+52
-5.3946938e+54
1.6718369e+52
3.00042e+53
3.0130195e+53
-3.88863e+53
-4.2531776e+53
-2.1241777e+52
1.2622617e+54
2.8317219e+52
-8.602902e+52
-8.2783879e+52
6.6147067e+52
6.4344298e+52
1.2798464e+54
-2.1489807e+52
-8.4540774e+52
6.4328711e+52
-8.5915636e+52
6.6913316e+52
1.0871542e+52
-1.6837992e+52
1.6349847e+54
-8.3696516e+52
6.4785632e+52
-8.5074421e+52
6.6980972e+52
1.6007468e+54
1.7179335e+52
-8.564729e+52
6.5797609e+52
-8.3050046e+52
6.3036572e+52
-1.5490775e+52
1.2753742e+54
-8.7127889e+52
6.53112e+52
-8.4243197e+52
6.4021098e+52
1.2646615e+54
-1.8784313e+52
-8.2336422e+52
6.5293424e+52
-8.4214576e+52
6.8318944e+52
1.646149e+52
1.6050868e+54
-1.7587798e+52
-8.1683142e+52
6.5600763e+52
-8.3226886e+52
6.8601147e+52
1.6304475e+54
-8.5887886e+52
6.5998885e+52
-8.3154012e+52
6.4327898e+52
-2.3293206e+52
2.7847825e+52
2.8859372e+53
-4.0846319e+53
-4.2495448e+53
2.8691284e+53
-4.1742791e+53
3.1078778e+53
3.0104078e+53
5.9197536e+51
-4.1115243e+53
2.6187902e+53
-4.278981e+53
2.7050897e+53
-4.0250904e+53
-4.1304788e+53
2.8572815e+53
2.6999027e+53
-1.2894967e+54
1.030839e+52
-1.5316586e+52
1.6712568e+54
-7.449e+52
-7.5888817e+52
7.7422578e+52
7.9668838e+52
1.4876597e+52
-1.9139767e+52
-7.8337144e+52
-7.9917233e+52
7.0835505e+52
7.3042642e+52
-1.2664946e+54
1.6372701e+54
-7.6130936e+52
7.8641166e+52
-7.3672638e+52
7.5483295e+52
-7.7627866e+52
-8.0423028e+52
7.1797663e+52
6.9364689e+52
-1.5195632e+52
1.2858393e+54
-8.0694288e+52
7.2015369e+52
-7.787543e+52
7.0611602e+52
1.2734891e+54
-2.04021e+52
-7.6111329e+52
7.1864919e+52
-7.8041049e+52
7.4693317e+52
1.2966798e+52
1.6445511e+54
-1.5754562e+52
-7.204371e+52
7.8574495e+52
-7.3902863e+52
8.1300042e+52
1.6682075e+54
-7.6351135e+52
7.8929478e+52
-7.3847768e+52
7.6686455e+52
-1.3188378e+52
1.3293064e+54
1.8315764e+52
-6.7087357e+52
-6.4359952e+52
9.4321093e+52
9.2492186e+52
1.3181753e+54
-1.8984602e+52
-6.2618716e+52
-6.4745665e+52
9.4065707e+52
9.6818168e+52
9.3871226e+51
-7.6745669e+51
-4.9701389e+52
-5.1510367e+52
1.0556011e+53
1.0840747e+53
1.1454106e+52
-5.3888885e+52
-5.1671659e+52
1.058539e+53
1.0319364e+53
-1.3331957e+54
4.6990278e+51
-5.2638015e+52
1.0418949e+53
-5.4094947e+52
1.0644336e+53
1.5841426e+52
-6.47502e+52
9.2756796e+52
-6.6519266e+52
9.490485e+52
1.3116055e+54
-6.6853231e+52
-6.3982622e+52
9.4024616e+52
9.1230281e+52
-5.391799e+52
1.0520527e+53
-5.1950328e+52
1.0122228e+53
-1.2662261e+54
1.5608438e+52
-8.2220398e+52
6.6591081e+52
-8.4338421e+52
6.9366129e+52
-1.657256e+52
1.2736766e+54
-1.6128692e+54
1.6890903e+52
-8.6791067e+52
-8.4236787e+52
6.5906325e+52
6.4449424e+52
-1.5933932e+54
-8.2571714e+52
6.5326386e+52
-8.4835165e+52
6.8231305e+52
1.9616842e+52
-8.5933168e+52
-8.3263626e+52
6.6415791e+52
6.4763224e+52
-1.8723163e+52
-1.2564452e+54
1.4029414e+52
-8.8708061e+52
6.4648438e+52
-8.6222541e+52
6.2642549e+52
-1.2483976e+54
-8.5479175e+52
6.3357514e+52
-8.70696e+52
6.6711147e+52
1.5773506e+52
-1.567736e+54
5.4395871e+52
6.0189654e+52
-9.7635139e+52
-9.8928222e+52
1.2498847e+52
-1.5856735e+54
5.6164177e+52
5.4064683e+52
-9.8713088e+52
-1.0079061e+53
1.2596634e+54
1.1725955e+52
-1.5947774e+54
5.8506365e+52
5.9155533e+52
-9.8886459e+52
-9.6393029e+52
1.1901373e+52
1.6126725e+54
-8.5962212e+52
6.3077659e+52
-8.6379152e+52
6.5708964e+52
1.2325815e+54
-1.5503633e+54
5.6275829e+52
5.4182187e+52
-9.6881691e+52
-9.9902924e+52
1.5724077e+54
-8.8044196e+52
6.3274753e+52
-8.4823597e+52
6.0722974e+52
-1.5774422e+52
1.2383348e+54
-8.6466637e+52
6.4507059e+52
-8.3096616e+52
6.245594e+52
1.2630268e+54
-8.4211631e+52
6.409958e+52
-8.5406361e+52
6.6623617e+52
9.506081e+51
-8.3643266e+52
6.4417626e+52
-8.4628866e+52
6.6802978e+52
-8.5613239e+52
6.4755123e+52
-8.2547439e+52
6.2110486e+52
2.6122155e+53
2.0607002e+51
-3.3657077e+53
-2.4377753e+51
1.4518701e+52
-1.6945857e+52
1.367837e+52
-1.7152001e+52
2.4448021e+51
3.3270549e+53
-1.4425934e+51
-1.6764708e+52
1.397383e+52
1.4775234e+52
-1.6880972e+52
2.6549761e+53
-3.4402596e+53
-1.6877239e+52
1.4109923e+52
-1.7716187e+52
1.4092386e+52
3.4031093e+53
-1.7513404e+52
1.440465e+52
-1.6713327e+52
1.4365383e+52
2.6489147e+53
2.1585391e+51
-3.4099679e+53
-2.3853705e+51
1.4635702e+52
-1.7153138e+52
1.3754489e+52
-1.7370248e+52
2.436352e+51
-1.960135e+51
-1.7042118e+52
1.3824394e+52
1.464991e+52
-1.7161346e+52
2.6959043e+53
-3.4888056e+53
1.4186422e+52
-1.7903578e+52
1.4197426e+52
-1.7127904e+52
-1.7801754e+52
1.4278218e+52
-1.6878007e+52
1.4250909e+52
2.7059079e+53
3.0119661e+51
-3.4987223e+53
-3.5045907e+51
1.4807954e+52
-1.7312657e+52
1.4026161e+52
-1.7530364e+52
2.8831714e+51
-2.1926213e+51
-1.7374628e+52
1.3817808e+52
1.4640955e+52
-1.7512776e+52
2.7474163e+53
-3.5700188e+53
1.4614326e+52
-1.7853485e+52
1.4581935e+52
-1.7039745e+52
-1.8094008e+52
1.4292467e+52
-1.7262856e+52
1.4283094e+52
3.9451633e+51
-2.7979629e+53
-3.3026324e+51
-1.901241e+52
-1.925803e+52
1.2678194e+52
1.3536412e+52
-2.8344545e+53
5.3376632e+51
1.3108953e+52
1.3175307e+52
-2.004857e+52
-1.9243228e+52
3.5570451e+51
-3.5509489e+51
-1.786788e+52
-3.5558196e+53
9.5735186e+51
-1.2252157e+54
-1.3560213e+52
6.1432191e+52
-8.7322173e+52
-9.0290597e+52
6.4778984e+52
5.6179275e+51
-3.617815e+53
-1.9642776e+52
-2.8394746e+53
-1.9695279e+52
-1.9791202e+52
1.248132e+52
1.3320544e+52
-1.2395799e+54
6.1810921e+52
-9.203317e+52
-9.1198581e+52
6.0113126e+52
-3.6295822e+53
-1.8991899e+52
4.3166539e+51
-1.5649967e+52
6.3994673e+52
-9.0155459e+52
-9.1263888e+52
6.5624217e+52
6.0821281e+52
-9.720115e+52
-9.2608697e+52
6.0461204e+52
2.6955201e+53
2.1016428e+51
-3.4014004e+53
-2.6923987e+51
1.8706515e+52
-1.39627e+52
1.7894422e+52
-1.4258778e+52
-2.4824413e+51
-1.2679929e+52
1.9442208e+52
2.0231427e+52
-1.2909211e+52
-3.4774638e+53
1.8061354e+52
-1.4926061e+52
1.8175262e+52
-1.4198674e+52
2.6352697e+53
2.1901949e+51
-3.3490132e+53
-2.9188925e+51
1.60339e+52
-1.5628255e+52
1.521591e+52
-1.5854243e+52
2.4800488e+51
-2.2555695e+51
-1.5160098e+52
1.616727e+52
1.695074e+52
-1.5333128e+52
2.6776075e+53
-3.4220187e+53
-1.5710356e+52
1.5485898e+52
-1.646501e+52
1.5526075e+52
-1.5984424e+52
1.6529456e+52
-1.5271956e+52
1.6364396e+52
2.6014175e+53
2.0922918e+51
-1.8495979e+51
1.4936198e+52
-1.6245506e+52
1.4211138e+52
-1.6464569e+52
2.5217231e+51
-2.015478e+51
-1.600181e+52
1.4605406e+52
1.5380043e+52
-1.6155474e+52
2.6467639e+53
1.4578395e+52
-1.7044774e+52
1.4583995e+52
-1.6238254e+52
-1.6790093e+52
1.4989e+52
-1.6023373e+52
1.4885519e+52
-2.510459e+51
2.6265246e+52
2.4555493e+52
-3.5699893e+53
-9.4362075e+51
-8.8424573e+51
-2.8743826e+51
2.5148739e+52
2.5907773e+52
-3.6608858e+53
-9.3524087e+51
-9.5196459e+51
2.2184992e+51
-2.7696998e+51
2.5034222e+52
2.6177452e+52
-3.6296549e+53
-9.0378691e+51
-9.3406208e+51
2.6137786e+52
2.4736293e+52
-3.6839349e+53
-9.9050365e+51
-9.4355958e+51
2.4191558e+51
-1.6017777e+51
2.4892335e+52
2.6800814e+52
-3.6199837e+53
-8.6826249e+51
-8.8407625e+51
4.0007331e+51
2.6043015e+52
2.5545803e+52
-3.6944439e+53
-8.9991546e+51
-9.6564265e+51
3.0942278e+51
2.4805247e+52
2.638155e+52
-3.6903502e+53
-9.4339641e+51
-9.5170239e+51
2.6061436e+52
2.4619393e+52
-3.6168393e+53
-9.0161778e+51
-9.5122271e+51
3.1415161e+51
2.5142372e+52
2.7068115e+52
-3.6050431e+53
-2.9768841e+51
-8.4326775e+51
-8.6085642e+51
4.6759135e+51
2.6188324e+52
2.5699997e+52
-3.6801663e+53
-8.8125212e+51
-9.470128e+51
-1.0930683e+52
1.1612916e+53
1.2381281e+53
-1.6468887e+54
-2.6804784e+52
-2.88898e+52
-1.0850795e+52
1.2475181e+53
1.2045014e+53
-1.6943406e+54
-2.7974715e+52
-2.9260714e+52
3.7883574e+51
2.4829523e+52
2.6473439e+52
-3.68087e+53
-9.3781912e+51
-9.4032364e+51
3.6426837e+51
2.6039133e+52
2.4650843e+52
-3.6075964e+53
-9.4665488e+51
-8.8931238e+51
2.3610953e+51
-2.8677649e+51