/*--------------------------------*- C++ -*----------------------------------*\
  =========                 |
  \\      /  F ield         | OpenFOAM: The Open Source CFD Toolbox
   \\    /   O peration     | Website:  https://openfoam.org
    \\  /    A nd           | Version:  7
     \\/     M anipulation  |
\*---------------------------------------------------------------------------*/
FoamFile
{
    version     2.0;
    format      ascii;
    class       volVectorField;
    location    "10000";
    object      U;
}
// * * * * * * * * * * * * * * * * * * * * * * * * * * * * * * * * * * * * * //

dimensions      [0 1 -1 0 0 0 0];

internalField   nonuniform List<vector> 
33730
(
(-1.5180316e+58 -2.3449723e+57 1.0659034e+57)
(-1.6068933e+58 -1.6549055e+57 2.2539879e+57)
(-1.3683767e+58 -2.2688203e+57 4.0389732e+56)
(-1.2103885e+58 -7.3204118e+56 1.6165404e+57)
(-9.2849078e+57 -3.1230106e+56 2.9185274e+57)
(-1.2261958e+58 -1.4851075e+57 1.4701052e+57)
(-1.5315338e+58 -2.6258429e+57 1.5419228e+57)
(-9.4334664e+57 -2.3370885e+56 2.6609186e+57)
(-1.6385543e+58 -1.3433293e+57 1.2503578e+57)
(-1.2218594e+58 -3.4959447e+56 1.0132959e+57)
(-1.1893981e+58 -6.0713013e+56 6.1632768e+56)
(-1.5344098e+58 -1.6483418e+57 2.3067394e+57)
(-1.200403e+58 -3.9559953e+56 -1.3465024e+57)
(-1.2371823e+58 -1.1383057e+57 -1.3340517e+57)
(-9.3810078e+57 -1.7477817e+57 4.4176881e+56)
(-9.1786786e+57 -8.3497695e+56 3.3512161e+56)
(-1.4479436e+58 -2.5736587e+57 7.2813114e+56)
(-1.0223307e+58 -3.4042172e+56 1.5173224e+57)
(-1.0374125e+58 -6.0419172e+55 2.4262141e+57)
(-1.0374133e+58 -7.8536915e+56 1.4534544e+57)
(-1.018079e+58 -2.5585819e+56 2.4933891e+57)
(-1.0234887e+58 -8.5433728e+56 1.395416e+57)
(-1.0132974e+58 -3.3207958e+56 1.4424321e+57)
(-1.0144198e+58 -4.0491381e+55 2.180695e+57)
(-1.1866359e+58 -8.1388202e+56 1.8041921e+57)
(-9.9893922e+57 -1.0988922e+56 2.2304702e+57)
(-1.2260209e+58 -1.6069578e+57 1.6343674e+57)
(-9.4914076e+57 -2.6159649e+56 2.9790837e+57)
(-1.0323019e+58 -2.6704327e+56 2.9932428e+57)
(-1.5024865e+58 -2.7204567e+57 2.004345e+57)
(-1.5837692e+58 -1.3098044e+57 1.3949444e+57)
(-1.1591132e+58 -7.6591825e+56 1.8582416e+57)
(-1.1586145e+58 -5.5395584e+56 -1.1532719e+57)
(-9.3548809e+57 -8.6777644e+56 1.8901407e+57)
(-9.374796e+57 -2.0070725e+56 -9.3898861e+56)
(-9.666828e+57 -6.1973345e+56 -1.2461587e+57)
(-9.832006e+57 -2.3009387e+55 1.6488732e+57)
(-1.1716852e+58 -2.9063221e+55 1.6820633e+57)
(-1.1685383e+58 -2.0577838e+56 -9.4606345e+56)
(-1.0996828e+58 -2.2551889e+56 1.3161016e+57)
(-1.1153503e+58 -1.3056266e+56 1.2415432e+57)
(-1.0914693e+58 -1.2145561e+56 1.1096289e+57)
(-1.0895559e+58 -1.3768081e+56 1.1205893e+57)
(-1.1854009e+58 -2.107459e+56 9.2957921e+56)
(-1.2018351e+58 -5.0305962e+56 8.2436491e+56)
(-9.595121e+57 -2.5183796e+56 -6.8064711e+56)
(-9.6129952e+57 2.5908649e+56 -1.8081242e+57)
(-9.404084e+57 1.9543476e+56 -1.7817742e+57)
(-9.4259439e+57 8.1972064e+55 -7.1542188e+56)
(-1.2272004e+58 -3.8077095e+56 -1.3330222e+57)
(-9.6536143e+57 -2.6823548e+56 -6.2858128e+56)
(-9.7462902e+57 2.9668059e+56 -1.7015554e+57)
(-9.5547896e+57 2.8907861e+56 -1.6888522e+57)
(-9.423811e+57 1.3689235e+56 -6.3679112e+56)
(-9.4290418e+57 -7.8200341e+56 6.8311278e+56)
(-9.2146231e+57 -7.2062094e+56 -1.3609154e+57)
(-6.7580322e+57 -1.2452597e+57 4.3232171e+56)
(-9.0571878e+57 -2.1663532e+56 -1.3549616e+57)
(-6.8195284e+57 -4.1005504e+56 5.0125959e+56)
(-9.0899198e+57 -2.2566489e+56 -1.4375401e+57)
(-6.9894022e+57 -1.2031999e+57 4.6151369e+56)
(-9.2804026e+57 -6.7576708e+56 -1.4505203e+57)
(-6.8883969e+57 -4.0624267e+56 4.7362765e+56)
(-1.4895725e+58 -2.8149067e+57 9.8883942e+56)
(-1.2578045e+58 -1.3215822e+57 -1.3425596e+57)
(-9.8764507e+57 -2.086342e+57 9.331947e+56)
(-8.5466343e+57 -4.5569072e+56 1.3476089e+57)
(-8.4529465e+57 -1.6139836e+56 1.3943116e+57)
(-9.6627875e+57 -5.8570168e+55 1.8644316e+57)
(-9.5485809e+57 -1.7513386e+56 1.8924385e+57)
(-8.5621971e+57 -4.880542e+56 1.3911106e+57)
(-9.7239754e+57 -2.5539051e+55 1.8871762e+57)
(-8.4335436e+57 -1.8224756e+56 1.3712068e+57)
(-9.6284153e+57 -1.137677e+56 1.8826702e+57)
(-8.5232185e+57 -5.3232398e+56 1.3743291e+57)
(-1.0102977e+58 -4.0317988e+56 1.6027787e+57)
(-9.5952742e+57 -5.1249221e+55 1.7825136e+57)
(-8.4009658e+57 -2.3621864e+56 1.3553067e+57)
(-9.5182947e+57 -1.2468634e+56 1.7769796e+57)
(-8.542151e+57 -4.9949892e+56 1.3257463e+57)
(-8.4169224e+57 -1.7713194e+56 1.3896169e+57)
(-9.661378e+57 -5.2804379e+55 1.791762e+57)
(-9.4895403e+57 -1.1381517e+56 1.7818803e+57)
(-9.8770003e+57 -1.5157687e+56 2.3300676e+57)
(-1.0286043e+58 -8.4157241e+56 1.5342129e+57)
(-1.0182907e+58 1.9185059e+55 2.4246026e+57)
(-1.0030202e+58 -4.2474808e+56 1.5762601e+57)
(-1.0106455e+58 -9.0534551e+56 1.5055096e+57)
(-1.1690119e+58 -9.4412409e+56 1.9220336e+57)
(-1.0636009e+58 -6.5661029e+55 2.3844362e+57)
(-1.0475882e+58 -1.4347348e+56 2.4524188e+57)
(-9.9848025e+57 -3.4174917e+56 3.1850376e+57)
(-1.2115177e+58 -1.698689e+57 1.7402642e+57)
(-1.0145296e+58 -2.7831835e+56 2.8827456e+57)
(-1.1485247e+58 -1.515008e+56 -9.3032753e+56)
(-1.2008375e+58 7.2263048e+55 1.6564652e+57)
(-1.1205234e+58 -4.2855957e+56 -1.2413823e+57)
(-9.4575003e+57 -6.7813159e+56 1.915679e+57)
(-9.4128097e+57 -1.0020124e+56 -8.2019169e+56)
(-9.4859807e+57 -6.7440026e+56 -1.1102297e+57)
(-9.5692633e+57 3.6252707e+55 1.8441677e+57)
(-1.1757018e+58 -6.9142206e+56 1.8318466e+57)
(-1.0706726e+58 -3.5336258e+56 1.2928005e+57)
(-1.0950979e+58 1.5361842e+56 1.3371069e+57)
(-1.0703835e+58 -2.9036883e+55 -4.8533035e+56)
(-1.0921309e+58 -2.6784823e+56 -3.8753694e+56)
(-1.0064127e+58 -1.9602532e+56 -1.0107566e+57)
(-1.0163601e+58 2.3603627e+54 -9.5620401e+56)
(-1.070215e+58 -3.4368934e+56 4.6391538e+56)
(-1.0714729e+58 7.7291828e+55 4.1770093e+56)
(-1.1553566e+58 6.0899084e+55 1.7208968e+57)
(-1.1425642e+58 -7.4935492e+56 1.7938852e+57)
(-1.0806902e+58 -3.7745375e+55 -4.7244494e+56)
(-1.08921e+58 -2.5065435e+56 -4.8041573e+56)
(-1.076061e+58 1.303465e+56 1.1701411e+57)
(-1.0674371e+58 -3.4713235e+56 1.1624079e+57)
(-1.0474354e+58 8.2631934e+55 4.8227138e+56)
(-9.9445562e+57 -1.7003025e+56 -1.1749587e+57)
(-9.9762358e+57 2.0912894e+55 -1.0620249e+57)
(-1.0403233e+58 -3.3211033e+56 5.0670378e+56)
(-9.5820234e+57 -1.3697884e+55 6.8601421e+55)
(-9.4079074e+57 -2.0191493e+56 -5.5049111e+56)
(-9.5818484e+57 -2.0373527e+55 1.1131794e+55)
(-9.2157156e+57 -1.9082466e+56 -6.7306644e+56)
(-1.0025182e+58 1.3000616e+56 8.4852195e+55)
(-9.9441808e+57 -1.6052917e+56 1.8121921e+56)
(-9.7887986e+57 3.8079677e+55 5.0720464e+56)
(-9.5437308e+57 -1.5536078e+56 -3.2370723e+56)
(-9.6905303e+57 -1.5613034e+56 1.1453061e+57)
(-9.7713984e+57 -4.7975136e+55 1.1061107e+57)
(-9.8361527e+57 -2.8734937e+55 1.1581584e+57)
(-9.8024532e+57 -1.3242281e+56 1.1421429e+57)
(-9.755553e+57 -5.1639422e+55 1.1526161e+57)
(-1.0883545e+58 -1.4002519e+56 1.2807e+57)
(-9.7486514e+57 -1.4977728e+56 1.1302953e+57)
(-9.7043967e+57 -9.8194571e+55 1.1092059e+57)
(-9.7735185e+57 -4.6591944e+55 1.0923392e+57)
(-1.098138e+58 -5.3071926e+55 1.2566623e+57)
(-1.1200348e+58 -1.5486881e+56 1.3251038e+57)
(-1.1233744e+58 -1.1917578e+56 1.3311989e+57)
(-1.2019377e+58 -2.5531014e+56 1.1790924e+57)
(-1.2101901e+58 -8.9618578e+55 -1.5983081e+57)
(-1.2078387e+58 2.7283677e+55 -1.5057714e+57)
(-1.0913205e+58 -4.363137e+55 -1.6261258e+57)
(-1.0114898e+58 1.4970723e+56 -3.7247066e+56)
(-1.0000971e+58 2.6854547e+56 -3.6159522e+56)
(-1.0848483e+58 -1.0589978e+56 -1.6283151e+57)
(-9.7054477e+57 -2.5230297e+56 -5.838006e+56)
(-9.9256326e+57 3.2284353e+56 -1.6848842e+57)
(-9.7107682e+57 3.0359092e+56 -1.6531738e+57)
(-9.472867e+57 1.4232539e+56 -6.0294776e+56)
(-1.0956263e+58 -4.9688315e+55 -1.5690567e+57)
(-1.0201224e+58 2.0330431e+56 -3.2303413e+56)
(-1.0121512e+58 3.311162e+56 -3.1646722e+56)
(-1.0871523e+58 -1.0121884e+56 -1.5775856e+57)
(-9.3662453e+57 -7.8975596e+56 -1.3242751e+57)
(-9.1090717e+57 -2.6332886e+56 -1.2996571e+57)
(-7.0289268e+57 -1.2940325e+57 7.5234812e+56)
(-6.8569529e+57 -4.2828598e+56 6.8081769e+56)
(-8.0955999e+57 2.3708868e+55 -1.5944792e+57)
(-8.1929891e+57 6.3860792e+55 -1.6039187e+57)
(-6.9857456e+57 -2.7810767e+56 -1.21636e+57)
(-6.9089912e+57 -2.2076932e+55 -1.2067943e+57)
(-5.5502807e+57 -5.4379944e+56 -1.1463215e+57)
(-5.5045098e+57 -2.5920143e+56 -1.1061044e+57)
(-4.9592427e+57 -2.0944021e+56 7.7386308e+56)
(-4.9413884e+57 -8.1602485e+56 6.7122071e+56)
(-8.0326575e+57 9.7871716e+54 -1.6365335e+57)
(-8.1522341e+57 6.5768304e+55 -1.6394867e+57)
(-6.9033994e+57 -2.1872879e+55 -1.2480781e+57)
(-7.0129113e+57 -2.4902742e+56 -1.2272989e+57)
(-5.6250225e+57 -5.0200556e+56 -1.1913049e+57)
(-5.5207917e+57 -2.3021979e+56 -1.1748474e+57)
(-5.0670914e+57 -8.058977e+56 7.5322114e+56)
(-5.0132299e+57 -1.3528728e+56 8.233046e+56)
(-8.1515893e+57 5.4060989e+55 -1.691007e+57)
(-8.0436965e+57 -2.6912931e+55 -1.6849264e+57)
(-6.9395668e+57 -4.4442039e+55 -1.3111481e+57)
(-7.0205405e+57 -2.4197581e+56 -1.2781124e+57)
(-5.657263e+57 -4.9557018e+56 -1.2543395e+57)
(-5.5593818e+57 -2.2551408e+56 -1.2000663e+57)
(-5.0135514e+57 -1.6072019e+56 7.5056962e+56)
(-5.0537801e+57 -7.8490166e+56 6.6588606e+56)
(-8.066509e+57 2.069639e+55 -1.6604578e+57)
(-8.1830036e+57 6.8944171e+55 -1.6704405e+57)
(-6.9372952e+57 -8.929227e+54 -1.2687987e+57)
(-7.0606857e+57 -2.5568522e+56 -1.2779419e+57)
(-5.6273292e+57 -4.6636612e+56 -1.2518621e+57)
(-5.5345034e+57 -2.3051491e+56 -1.2461888e+57)
(-5.082337e+57 -7.4898308e+56 7.3155457e+56)
(-5.0287621e+57 -1.2920046e+56 7.483909e+56)
(-1.2595286e+58 -1.4851764e+57 -1.318231e+57)
(-1.217494e+58 -5.7052896e+56 -1.2512981e+57)
(-1.0190662e+58 -2.3947544e+57 1.0791044e+57)
(-9.673514e+57 -1.0903677e+57 9.8084396e+56)
(-9.7194113e+57 -2.9912973e+56 -5.6766299e+56)
(-1.0122724e+58 2.9935778e+56 -1.625719e+57)
(-9.8636548e+57 3.2783306e+56 -1.5874123e+57)
(-9.4889062e+57 1.3913716e+56 -5.4499211e+56)
(-9.3601267e+57 -8.7838604e+56 -1.2730584e+57)
(-9.1379844e+57 -3.4257452e+56 -1.2174926e+57)
(-7.0424218e+57 -1.4321058e+57 8.9720591e+56)
(-6.9334882e+57 -4.8965761e+56 8.825388e+56)
(-7.3023181e+57 -3.0815148e+56 1.2623343e+57)
(-8.4953558e+57 -5.2982579e+55 1.5205514e+57)
(-7.2148072e+57 -8.0311946e+55 1.2397994e+57)
(-8.4685848e+57 -7.2086457e+55 1.5172414e+57)
(-7.2761535e+57 -2.6064951e+56 1.2464075e+57)
(-7.2183553e+57 -5.1117361e+55 1.2629067e+57)
(-8.387907e+57 -1.0170669e+56 1.5234087e+57)
(-8.4662324e+57 -6.0171168e+55 1.5218622e+57)
(-7.2587094e+57 -3.1272139e+56 1.2609076e+57)
(-7.2238685e+57 -1.2095503e+56 1.2610357e+57)
(-8.486456e+57 -5.4981405e+55 1.5501561e+57)
(-8.4756359e+57 -1.0002052e+56 1.5520825e+57)
(-7.294465e+57 -3.1400458e+56 1.2585141e+57)
(-8.5159442e+57 -7.1531024e+55 1.5255943e+57)
(-7.1981025e+57 -8.9050983e+55 1.2865403e+57)
(-8.4351265e+57 -9.6191372e+55 1.5301014e+57)
(-8.4156566e+57 -2.2163598e+56 1.4935652e+57)
(-7.2906236e+57 -3.400938e+56 1.2929711e+57)
(-7.2336022e+57 -1.6146206e+56 1.2881865e+57)
(-8.4608197e+57 -7.2264162e+55 1.5398016e+57)
(-8.4483331e+57 -1.1455203e+56 1.5330679e+57)
(-8.5632407e+57 -5.0260691e+56 1.4492193e+57)
(-9.5944026e+57 -2.973442e+55 1.9127687e+57)
(-9.4131101e+57 -1.3884571e+56 1.8711027e+57)
(-7.2947668e+57 -3.4288715e+56 1.2676116e+57)
(-8.4945073e+57 -8.9874499e+55 1.4881965e+57)
(-7.1835436e+57 -1.2725419e+56 1.2945217e+57)
(-8.4048103e+57 -1.1340775e+56 1.4896849e+57)
(-7.2673622e+57 -3.3807544e+56 1.2536577e+57)
(-7.1994122e+57 -1.1742211e+56 1.2532988e+57)
(-8.5003087e+57 -8.9641948e+55 1.5224551e+57)
(-8.5173381e+57 -7.9266695e+55 1.5110577e+57)
(-7.2651216e+57 -2.8848733e+56 1.2623002e+57)
(-7.2030853e+57 -7.1927375e+55 1.2825464e+57)
(-8.3846465e+57 -8.7956157e+55 1.5046462e+57)
(-8.4684624e+57 -5.1339416e+55 1.5105832e+57)
(-8.5230748e+57 -5.3756611e+56 1.4789146e+57)
(-8.3890974e+57 -2.4115226e+56 1.4633095e+57)
(-9.6561443e+57 -5.8676369e+54 1.9419643e+57)
(-9.5369595e+57 -9.2161771e+55 1.9322295e+57)
(-8.4757693e+57 -5.6424903e+56 1.469651e+57)
(-8.3810205e+57 -2.3064729e+56 1.537452e+57)
(-9.7370921e+57 -6.7989614e+55 1.9367639e+57)
(-9.6191824e+57 -1.3484785e+56 1.9533519e+57)
(-9.9136737e+57 -4.4726221e+56 1.7101117e+57)
(-9.6627603e+57 -1.7078931e+56 1.9836036e+57)
(-8.3150355e+57 -2.9036437e+56 1.5062006e+57)
(-8.332842e+57 -5.275422e+56 1.4630557e+57)
(-9.7037082e+57 -5.7805537e+55 1.9653009e+57)
(-1.0510823e+58 3.2024186e+55 2.5079583e+57)
(-1.0148659e+58 -8.830078e+56 1.6597144e+57)
(-1.0386547e+58 -1.9263027e+56 2.5675557e+57)
(-9.9311465e+57 -5.0705091e+56 1.674462e+57)
(-1.045327e+58 -1.4689415e+56 2.4755511e+57)
(-1.0627648e+58 -3.2923601e+56 4.7943327e+56)
(-1.0163013e+58 1.9117223e+54 -9.1524262e+56)
(-1.0103043e+58 -1.0779815e+56 -9.6178721e+56)
(-1.066642e+58 1.5567697e+56 4.2165823e+56)
(-1.144565e+58 -7.1082958e+56 1.8695273e+57)
(-1.1176474e+58 -3.4387654e+56 1.3211808e+57)
(-1.1201076e+58 1.513592e+56 1.3218405e+57)
(-1.1004555e+58 4.4194718e+55 -4.3567321e+56)
(-1.1065235e+58 -2.0068133e+56 -4.0749655e+56)
(-1.1867907e+58 -7.3366414e+56 1.8303967e+57)
(-1.1149867e+58 -1.5004584e+56 -9.6431394e+56)
(-1.0903824e+58 1.0414685e+56 3.4728747e+56)
(-1.0352859e+58 -1.804757e+56 -1.0616666e+57)
(-1.0886629e+58 -2.3489916e+56 3.4138101e+56)
(-1.0314301e+58 6.3208937e+55 -1.0896388e+57)
(-1.128851e+58 7.3399622e+55 1.763443e+57)
(-1.0718334e+58 2.5685537e+56 1.1866704e+57)
(-1.0956287e+58 -7.1132461e+55 -2.5261811e+56)
(-1.0865318e+58 -1.454071e+56 -4.4465814e+56)
(-1.0669506e+58 -2.9343785e+56 1.2437836e+57)
(-9.7548528e+57 -1.0061089e+56 9.7667974e+55)
(-9.7914432e+57 -1.4535321e+56 6.9766321e+55)
(-9.8832315e+57 1.0722154e+56 1.2129491e+57)
(-9.8114495e+57 -2.8120435e+56 1.2326614e+57)
(-9.82244e+57 -6.5611069e+55 1.0089787e+56)
(-9.9287535e+57 -1.3100407e+56 1.7062913e+56)
(-1.0051689e+58 1.3224045e+56 1.2631729e+57)
(-9.9507303e+57 -2.6351505e+56 1.2338412e+57)
(-9.2858201e+57 -4.1658953e+55 -4.7907374e+56)
(-9.359733e+57 -1.5005539e+56 -4.8539983e+56)
(-9.6590817e+57 3.1383736e+55 4.3409475e+56)
(-9.6023504e+57 -2.3735346e+56 4.4635432e+56)
(-9.8404703e+57 5.3346176e+55 5.1048297e+56)
(-9.3923088e+57 -6.5771462e+55 -4.4267162e+56)
(-9.4620535e+57 -1.613959e+56 -3.8016766e+56)
(-9.7634019e+57 -2.2758667e+56 4.8979022e+56)
(-9.3087459e+57 -2.1229538e+56 -6.9096211e+56)
(-9.5834196e+57 -5.2710103e+55 -3.3133562e+55)
(-9.2038472e+57 -6.2835859e+55 -7.0959865e+56)
(-9.5451751e+57 -2.2729315e+56 -3.7251246e+55)
(-1.0020983e+58 1.4157494e+56 2.653079e+55)
(-9.2704869e+57 -2.1273275e+56 -7.2020705e+56)
(-9.5717772e+57 -5.4397968e+55 -5.2342546e+55)
(-9.537982e+57 -2.5610533e+56 -1.8154646e+55)
(-9.2359561e+57 -7.7563785e+55 -7.0222539e+56)
(-1.0301449e+58 -2.4037662e+56 1.8718767e+56)
(-9.3216446e+57 -8.1121245e+55 -5.7996147e+56)
(-9.34933e+57 -2.1254871e+56 -6.7654247e+56)
(-9.4268662e+57 1.2354685e+55 -9.8257038e+55)
(-9.3895524e+57 -1.6547031e+56 -6.3013711e+55)
(-9.3129133e+57 -5.1136746e+55 -6.4257576e+56)
(-9.3762089e+57 -2.0737437e+56 -6.1728276e+56)
(-9.458122e+57 -3.7741127e+55 -4.1755858e+55)
(-9.4231732e+57 -2.1729561e+56 -5.8428066e+55)
(-9.4353794e+57 -7.2883781e+55 -1.1284527e+57)
(-9.5988882e+57 1.7059882e+56 -1.0181567e+57)
(-9.8707036e+57 2.0695345e+56 -3.4555403e+55)
(-9.9139069e+57 -2.5137058e+56 1.0084552e+56)
(-9.6822932e+57 5.7879798e+55 3.9042951e+56)
(-9.4056624e+57 -1.4542446e+56 -4.6439817e+56)
(-9.618018e+57 -1.9732637e+56 4.0667759e+56)
(-9.3360828e+57 -4.0281728e+55 -4.4243283e+56)
(-9.3857783e+57 -8.4605323e+55 -4.2583626e+56)
(-9.4324833e+57 -1.7815569e+56 -4.0165415e+56)
(-9.7227675e+57 3.8833112e+55 4.5915505e+56)
(-9.6801307e+57 -2.3630434e+56 4.4527007e+56)
(-9.813909e+57 -8.5119545e+55 1.2552065e+56)
(-9.8652715e+57 -1.4426504e+56 1.4611391e+56)
(-9.9085597e+57 1.0965815e+56 1.2048167e+57)
(-9.8662815e+57 -2.7179291e+56 1.1766508e+57)
(-9.8821533e+57 1.4685997e+56 1.122455e+57)
(-9.8247805e+57 -1.3004737e+56 8.9186453e+55)
(-9.7833983e+57 -6.0376167e+55 1.1214001e+56)
(-9.8062118e+57 -1.9265613e+56 1.1285522e+57)
(-9.5251655e+57 -2.7818549e+55 3.5082353e+55)
(-9.2175721e+57 -3.509825e+55 -6.0655484e+56)
(-9.2557688e+57 -2.1247178e+56 -5.9353336e+56)
(-9.5047567e+57 -2.2085827e+56 3.6753518e+55)
(-9.3563868e+57 -1.9030375e+56 -4.9961019e+55)
(-9.3725603e+57 -5.2403324e+55 -8.7285163e+55)
(-9.1235553e+57 -2.1522306e+56 -8.911416e+56)
(-9.0663076e+57 -9.5430902e+54 -8.9027986e+56)
(-9.138856e+57 -1.510169e+56 -8.4096955e+56)
(-9.3815308e+57 6.2813842e+54 -4.3939159e+55)
(-9.0637121e+57 -9.8230558e+54 -8.594012e+56)
(-9.3171432e+57 -1.897488e+56 -5.397243e+55)
(-9.171812e+57 -3.7619999e+55 -6.727585e+56)
(-9.2232006e+57 -1.7299337e+56 -6.7724111e+56)
(-9.3573777e+57 1.8459292e+55 -8.6819943e+55)
(-9.2834438e+57 -1.5886779e+56 -9.2553338e+55)
(-7.8389254e+57 -1.1086118e+56 -4.1238698e+56)
(-8.0047534e+57 -1.0091677e+55 -3.5556688e+55)
(-7.8671569e+57 -5.259623e+55 -4.1365357e+56)
(-8.0207246e+57 -1.5675793e+56 -4.2175504e+55)
(-7.8379827e+57 -1.0116534e+56 -4.1628837e+56)
(-8.0485314e+57 -1.1693452e+55 -6.4352465e+55)
(-7.874406e+57 -6.7813993e+55 -4.1976064e+56)
(-8.0630762e+57 -1.4644781e+56 -7.201993e+55)
(-7.9417064e+57 -1.2174587e+56 -3.8065501e+56)
(-8.0755132e+57 -2.755828e+55 -1.1933964e+56)
(-7.9576275e+57 -7.574938e+55 -3.8089665e+56)
(-8.0921345e+57 -1.542926e+56 -1.2940825e+56)
(-8.2947e+57 -3.8203786e+55 -7.5756055e+55)
(-8.2825485e+57 -1.7944121e+56 -1.068873e+56)
(-8.1640571e+57 -1.3480386e+56 -5.6106875e+56)
(-9.3673492e+57 -2.4192903e+55 -1.3023572e+56)
(-8.1568169e+57 -1.1650508e+56 -6.1626396e+56)
(-8.2873444e+57 -5.9061058e+55 -1.346221e+56)
(-9.344312e+57 -1.6276577e+56 -1.8394812e+56)
(-8.1516904e+57 -1.6038589e+56 -6.1481042e+56)
(-9.080005e+57 -1.9068107e+56 -8.9047385e+56)
(-9.0679501e+57 6.50017e+55 -9.584437e+56)
(-8.3338728e+57 -9.1668569e+55 1.5689757e+55)
(-8.6151553e+57 4.2756561e+55 7.1508972e+56)
(-8.3634405e+57 -8.5359356e+55 8.4018837e+54)
(-8.0727165e+57 -1.1607264e+56 -2.6791808e+56)
(-8.2997412e+57 1.361741e+54 2.3305348e+56)
(-8.0934892e+57 -6.2686302e+55 -2.7193475e+56)
(-8.3125659e+57 -1.7700506e+56 2.2562593e+56)
(-7.8743372e+57 -9.6226889e+55 -3.3556692e+56)
(-8.1210744e+57 -3.0603631e+54 6.7727115e+55)
(-7.9091488e+57 -7.4416603e+55 -3.3817256e+56)
(-8.1357357e+57 -1.6518084e+56 6.0927917e+55)
(-8.3674839e+57 -1.0262601e+56 1.0027722e+57)
(-8.4174283e+57 -3.3870981e+55 9.7619615e+56)
(-8.4399154e+57 -3.6500579e+55 9.9332434e+56)
(-8.4465325e+57 -9.7314517e+55 9.8038916e+56)
(-8.4407708e+57 -2.8172318e+55 1.0399202e+57)
(-8.4728618e+57 -1.2076793e+56 1.0288011e+57)
(-8.4561323e+57 -4.6763878e+55 9.7661028e+56)
(-8.4117249e+57 -1.0186823e+56 9.9925742e+56)
(-8.4384988e+57 -4.8640163e+55 1.0628103e+57)
(-8.4622325e+57 -1.3600831e+56 1.0466387e+57)
(-9.6834539e+57 -1.3141615e+56 1.2125637e+57)
(-9.7792146e+57 -2.0979266e+55 1.1869979e+57)
(-8.4444598e+57 -6.8578293e+55 9.7971538e+56)
(-8.3950042e+57 -1.2423728e+56 1.0011615e+57)
(-8.4144836e+57 -2.7065615e+55 9.7794598e+56)
(-8.3756389e+57 -9.2513325e+55 1.0041767e+57)
(-8.4240329e+57 -5.9509516e+55 9.8018022e+56)
(-8.4378286e+57 -1.0511983e+56 9.7367095e+56)
(-9.7670055e+57 -1.1905724e+56 1.2109923e+57)
(-9.8134385e+57 -1.021456e+55 1.2509798e+57)
(-9.8602295e+57 -4.439271e+55 1.2043152e+57)
(-9.7952216e+57 -1.1213564e+56 1.2393105e+57)
(-9.8475939e+57 -1.6953581e+56 1.278403e+57)
(-9.8224688e+57 -4.5090895e+55 1.2872933e+57)
(-1.10432e+58 -1.6065165e+56 1.449899e+57)
(-1.1097688e+58 -2.7100863e+55 1.315847e+57)
(-1.1133183e+58 -1.3731339e+56 1.3181255e+57)
(-1.2203833e+58 -1.9455269e+55 -1.4520325e+57)
(-1.2237376e+58 4.8788463e+55 -1.3512349e+57)
(-1.2212326e+58 -1.2265745e+56 -1.2676465e+57)
(-1.2165636e+58 4.5765235e+55 -1.2157989e+57)
(-1.1082671e+58 -1.3001248e+54 -1.2864158e+57)
(-8.7044506e+57 2.1923129e+55 -1.0463561e+57)
(-8.6925906e+57 2.6727871e+54 -1.0436927e+57)
(-9.9996546e+57 4.7052625e+56 -1.2697684e+57)
(-9.8200771e+57 1.3722435e+55 -1.2687591e+57)
(-1.1022216e+58 -4.1163205e+55 -1.2759222e+57)
(-8.6819253e+57 7.5285171e+54 -1.0373353e+57)
(-8.6713307e+57 -2.0580429e+55 -1.0564143e+57)
(-1.1028157e+58 -6.0995766e+55 -1.5427245e+57)
(-1.0300292e+58 2.1973343e+56 -2.7161705e+56)
(-1.0153479e+58 3.5669563e+56 -2.4381195e+56)
(-1.0942525e+58 -8.4568879e+55 -1.5392943e+57)
(-1.1143583e+58 1.8132166e+55 -1.2621847e+57)
(-8.6823354e+57 1.4546148e+55 -1.0023536e+57)
(-8.6435068e+57 -8.4835336e+53 -1.0032634e+57)
(-1.0062638e+58 5.6075928e+56 -1.2328448e+57)
(-1.0070069e+58 1.1775412e+56 -1.2087312e+57)
(-1.1070758e+58 -2.1952051e+55 -1.2557472e+57)
(-8.6688456e+57 5.0225754e+54 -1.006436e+57)
(-8.5995455e+57 -2.994182e+54 -1.0208091e+57)
(-6.9765143e+57 -2.8415118e+56 -1.148626e+57)
(-8.1895365e+57 7.9159417e+55 -1.5802841e+57)
(-6.860767e+57 -1.6913476e+55 -1.1450104e+57)
(-8.0677005e+57 5.1834618e+55 -1.5637093e+57)
(-8.1508543e+57 8.3131153e+55 -1.6087122e+57)
(-8.0401677e+57 2.652953e+55 -1.5840319e+57)
(-6.964753e+57 -2.526201e+56 -1.1689049e+57)
(-6.8670286e+57 -3.2651384e+55 -1.1896973e+57)
(-5.0903886e+57 -8.5856374e+56 8.9818169e+56)
(-5.6190675e+57 -5.8924069e+56 -1.0537895e+57)
(-5.5222737e+57 -2.8524214e+56 -1.0061553e+57)
(-5.0291018e+57 -1.964968e+56 9.5833828e+56)
(-5.4923862e+57 -2.7329763e+56 -1.068955e+57)
(-5.1202529e+57 -8.1428584e+56 8.8172923e+56)
(-5.6104421e+57 -5.4413929e+56 -1.090307e+57)
(-5.0019958e+57 -1.5759439e+56 8.8888026e+56)
(-8.3279033e+57 -2.3473952e+56 -1.9806758e+57)
(-8.3233497e+57 -2.4163977e+56 -1.965198e+57)
(-4.1923398e+57 -3.5103594e+56 -1.1570444e+57)
(-4.1346431e+57 -1.6106636e+56 -1.1140479e+57)
(-4.7216578e+57 -5.4097182e+55 -1.6135214e+57)
(-4.7591267e+57 -1.2542335e+55 -1.6263855e+57)
(-4.2026278e+57 -3.3456769e+56 -1.111957e+57)
(-4.1468913e+57 -1.5566887e+56 -1.1437074e+57)
(-4.7177424e+57 -5.2481792e+55 -1.6380114e+57)
(-4.7470165e+57 -5.7769794e+54 -1.6159182e+57)
(-3.2085933e+57 -3.8680058e+56 -1.9756202e+56)
(-3.1454113e+57 -3.0193208e+56 -1.6005357e+56)
(-4.6437565e+57 -4.1898651e+56 1.1382528e+57)
(-4.5131584e+57 -2.5822183e+55 1.1338133e+57)
(-3.1394272e+57 -4.1800085e+56 -2.8755859e+56)
(-4.579462e+57 -4.3560437e+56 1.0506926e+57)
(-3.166449e+57 -3.4598804e+56 -8.2313827e+55)
(-4.5672623e+57 -6.4900192e+55 1.1130822e+57)
(-8.3364678e+57 -2.2421621e+56 -2.0002599e+57)
(-8.3722955e+57 -2.0927455e+56 -1.9918497e+57)
(-4.7987778e+57 -3.4664737e+53 -1.6494471e+57)
(-4.2527119e+57 -3.2775194e+56 -1.178438e+57)
(-4.7510843e+57 -4.1623913e+55 -1.6367853e+57)
(-4.1709182e+57 -1.3421904e+56 -1.1418031e+57)
(-4.7582113e+57 2.7315689e+54 -1.6549645e+57)
(-4.7409334e+57 -5.914166e+55 -1.6809334e+57)
(-4.2417737e+57 -3.07537e+56 -1.139791e+57)
(-4.1855698e+57 -1.5251323e+56 -1.1885241e+57)
(-3.2219741e+57 -3.8032017e+56 -2.8765785e+56)
(-3.1902216e+57 -2.8443251e+56 -1.3004521e+56)
(-4.5295427e+57 -2.3673681e+55 1.1017115e+57)
(-4.5679826e+57 -4.3617731e+56 1.0480953e+57)
(-3.1751487e+57 -2.7173491e+56 -2.0876228e+56)
(-4.627857e+57 -3.7922281e+56 1.170249e+57)
(-4.5071982e+57 1.4777619e+55 1.1232935e+57)
(-3.2293776e+57 -3.2055707e+56 -2.1122288e+56)
(-8.3688063e+57 -2.175772e+56 -2.0357073e+57)
(-8.4299443e+57 -1.9856908e+56 -2.0245782e+57)
(-4.8496984e+57 -1.1081098e+55 -1.6860448e+57)
(-4.8148815e+57 -5.7294243e+55 -1.6718945e+57)
(-4.2965105e+57 -3.2917127e+56 -1.2244413e+57)
(-4.2348357e+57 -1.4620201e+56 -1.183707e+57)
(-4.7860469e+57 -1.048136e+55 -1.6719801e+57)
(-4.7583359e+57 -5.9920382e+55 -1.6932873e+57)
(-4.2617649e+57 -3.2275429e+56 -1.1682604e+57)
(-4.2095302e+57 -1.4454701e+56 -1.2002595e+57)
(-3.2763552e+57 -3.5392074e+56 -2.1800027e+56)
(-4.6673977e+57 -4.0718503e+56 1.1223534e+57)
(-3.2247891e+57 -2.8020789e+56 -1.7660481e+56)
(-4.5740656e+57 -9.3122536e+52 1.1228533e+57)
(-3.2381821e+57 -3.756134e+56 -3.3155133e+56)
(-4.5523304e+57 -4.3494704e+56 1.0109987e+57)
(-3.2655148e+57 -3.0896171e+56 -1.396576e+56)
(-4.5747487e+57 -5.0284966e+55 1.0690179e+57)
(-8.3980739e+57 -2.2260493e+56 -2.014355e+57)
(-8.4325465e+57 -1.9783543e+56 -2.0269778e+57)
(-4.8038146e+57 -1.5300059e+55 -1.6920087e+57)
(-4.7632475e+57 -5.9780095e+55 -1.6790375e+57)
(-4.2701609e+57 -3.2396921e+56 -1.2162163e+57)
(-4.1972005e+57 -1.3623454e+56 -1.1812896e+57)
(-4.7934734e+57 -2.4611774e+55 -1.6979809e+57)
(-4.7724023e+57 -9.2263191e+55 -1.7241528e+57)
(-4.2399392e+57 -3.0749558e+56 -1.1955694e+57)
(-4.1971635e+57 -1.602377e+56 -1.2362638e+57)
(-3.2631472e+57 -3.6539008e+56 -3.0789479e+56)
(-4.6140066e+57 -4.0831671e+56 1.0428778e+57)
(-3.2553217e+57 -2.7697518e+56 -1.4289914e+56)
(-4.5793463e+57 9.733435e+54 1.0865805e+57)
(-3.2528388e+57 -3.1586228e+56 -2.6147592e+56)
(-3.2163656e+57 -2.7655008e+56 -2.3717716e+56)
(-4.6259493e+57 -3.4217762e+56 1.1104132e+57)
(-4.5469196e+57 2.2346771e+55 1.0817028e+57)
(-1.0028786e+58 3.0918351e+56 -1.5524213e+57)
(-1.0263234e+58 2.5210867e+56 -1.5722502e+57)
(-9.5358246e+57 1.2128178e+56 -5.6413053e+56)
(-1.0047027e+58 3.0292591e+56 -1.5853769e+57)
(-1.0245229e+58 3.1892748e+56 -1.5988904e+57)
(-9.7659125e+57 -2.7418153e+56 -5.5245813e+56)
(-9.5056071e+57 1.2514338e+56 -5.9546808e+56)
(-9.05912e+57 -3.8390242e+56 -1.2040987e+57)
(-6.9350526e+57 -6.254362e+56 1.0352254e+57)
(-9.3337128e+57 -8.772111e+56 -1.2654359e+57)
(-9.1263639e+57 -3.7746129e+56 -1.2223309e+57)
(-7.285532e+57 -1.4829711e+57 1.1093073e+57)
(-6.9999805e+57 -4.9737704e+56 1.0833116e+57)
(-1.1072109e+58 -9.1798453e+55 -1.5536674e+57)
(-1.0392959e+58 2.2935365e+56 -2.3425672e+56)
(-1.0232513e+58 3.7822219e+56 -1.9723666e+56)
(-1.1006705e+58 -1.2413741e+56 -1.5048153e+57)
(-8.0709193e+57 3.1099596e+55 -1.5296869e+57)
(-8.1665258e+57 5.4720823e+55 -1.5493781e+57)
(-6.8959175e+57 -3.0720641e+56 -1.0910877e+57)
(-6.8152251e+57 -4.1728176e+55 -1.0909501e+57)
(-8.1364211e+57 5.8058371e+55 -1.5501457e+57)
(-6.9067232e+57 -2.9764069e+56 -1.0849172e+57)
(-8.0064662e+57 3.5204063e+55 -1.5301477e+57)
(-6.7893659e+57 -3.2802433e+55 -1.1063587e+57)
(-5.583521e+57 -6.3304884e+56 -1.0207643e+57)
(-5.0872564e+57 -8.9864772e+56 1.1232076e+57)
(-5.5243391e+57 -3.4988902e+56 -9.4018024e+56)
(-5.048597e+57 -2.3815113e+56 1.1455852e+57)
(-5.5073832e+57 -3.1406908e+56 -9.4374549e+56)
(-5.1749508e+57 -9.1177721e+56 1.0546983e+57)
(-5.6229899e+57 -6.3472632e+56 -9.8969433e+56)
(-5.075291e+57 -1.6611511e+56 1.0980583e+57)
(-5.7483086e+57 -1.197692e+55 1.2532021e+57)
(-5.7498255e+57 -2.1608414e+56 1.276789e+57)
(-7.4854149e+57 -7.1305714e+55 1.3101487e+57)
(-7.464664e+57 -7.3097675e+55 1.2701429e+57)
(-7.5124821e+57 -8.2193834e+55 1.2860919e+57)
(-5.7247755e+57 -2.0647701e+56 1.2471801e+57)
(-5.7096012e+57 4.3325928e+55 1.3069805e+57)
(-7.4667386e+57 -6.4517842e+55 1.2410402e+57)
(-5.7420117e+57 3.7303792e+55 1.264251e+57)
(-5.7334377e+57 -2.0415946e+56 1.2731315e+57)
(-7.4818789e+57 -6.7367257e+55 1.2950371e+57)
(-7.4595525e+57 -4.9216704e+55 1.2568693e+57)
(-5.7288988e+57 6.7414302e+55 1.3175561e+57)
(-5.7175521e+57 -1.6780034e+56 1.2668347e+57)
(-7.4645023e+57 -5.903848e+55 1.3167084e+57)
(-7.4189298e+57 -6.082814e+55 1.2721381e+57)
(-5.7438553e+57 -3.4232536e+55 1.2764307e+57)
(-5.7432421e+57 -2.116332e+56 1.2932083e+57)
(-7.4516597e+57 -7.3221259e+55 1.3064444e+57)
(-7.4633758e+57 -1.0095808e+56 1.3441139e+57)
(-5.7402856e+57 -2.351162e+56 1.2638999e+57)
(-5.803639e+57 1.4694167e+55 1.3332979e+57)
(-7.4938918e+57 -1.0694327e+56 1.2797635e+57)
(-7.4920264e+57 -1.0851096e+56 1.3172317e+57)
(-5.7421519e+57 9.4304094e+53 1.2799248e+57)
(-5.7376861e+57 -2.4843995e+56 1.2764532e+57)
(-7.4813363e+57 -9.3505329e+55 1.2561499e+57)
(-7.4880713e+57 -7.9629909e+55 1.2968315e+57)
(-5.7207197e+57 -2.0175983e+56 1.2777914e+57)
(-5.7038317e+57 4.5068107e+55 1.3290774e+57)
(-7.4649251e+57 -6.2210711e+55 1.2769665e+57)
(-7.4164159e+57 -6.8919161e+55 1.2641564e+57)
(-7.3149029e+57 -2.9439054e+56 1.3438469e+57)
(-7.2362913e+57 -1.0682272e+56 1.3609953e+57)
(-8.3490777e+57 -1.0419007e+56 1.5694772e+57)
(-8.4515173e+57 -5.1664588e+55 1.5829855e+57)
(-5.7921371e+57 -6.0591867e+55 1.2995971e+57)
(-5.7713773e+57 -2.3583806e+56 1.3183636e+57)
(-7.4703405e+57 -8.8229542e+55 1.3271622e+57)
(-7.4862077e+57 -1.1650223e+56 1.3603004e+57)
(-5.7619483e+57 -2.6030444e+56 1.2792148e+57)
(-5.8169443e+57 -2.705497e+55 1.3440632e+57)
(-7.5062948e+57 -1.2459545e+56 1.2888271e+57)
(-7.4970859e+57 -1.2767619e+56 1.3232228e+57)
(-7.3230257e+57 -3.1800253e+56 1.3531497e+57)
(-7.2498048e+57 -1.0901856e+56 1.3441684e+57)
(-8.4777021e+57 -7.7988494e+55 1.6057087e+57)
(-8.5022709e+57 -5.2767196e+55 1.6057271e+57)
(-5.7627249e+57 -2.1261827e+55 1.2933881e+57)
(-5.7392303e+57 -2.708917e+56 1.2775206e+57)
(-7.484468e+57 -1.1846214e+56 1.2595452e+57)
(-7.4958154e+57 -1.023866e+56 1.2978183e+57)
(-5.7080842e+57 8.0123327e+54 1.3366917e+57)
(-5.7253922e+57 -2.2444233e+56 1.2900618e+57)
(-7.4594337e+57 -8.7140445e+55 1.2766058e+57)
(-7.4082629e+57 -9.3407919e+55 1.2606168e+57)
(-5.7245707e+57 -2.1957815e+55 1.2623499e+57)
(-5.7271864e+57 -2.4315543e+56 1.2713564e+57)
(-7.4786698e+57 -1.0020834e+56 1.3052335e+57)
(-7.4632651e+57 -9.6657118e+55 1.2679387e+57)
(-5.7587349e+57 2.1757944e+55 1.3215214e+57)
(-5.7352051e+57 -2.3272272e+56 1.2604982e+57)
(-7.5154808e+57 -1.0295232e+56 1.288985e+57)
(-7.4715159e+57 -7.9417905e+55 1.2490116e+57)
(-5.7217086e+57 -2.2806813e+56 1.2865032e+57)
(-7.4750488e+57 -7.5879888e+55 1.3009269e+57)
(-7.4517119e+57 -5.6481284e+55 1.2612038e+57)
(-5.6891424e+57 2.0782258e+55 1.2840414e+57)
(-5.7176727e+57 -1.7539358e+56 1.2890349e+57)
(-5.7809417e+57 5.1790058e+55 1.3425074e+57)
(-7.4473573e+57 -6.085473e+55 1.2826637e+57)
(-7.4415052e+57 -7.5438163e+55 1.3194444e+57)
(-7.3002189e+57 -3.4387009e+56 1.3891181e+57)
(-7.2351651e+57 -1.6287247e+56 1.378913e+57)
(-8.4555438e+57 -9.0667059e+55 1.6405038e+57)
(-8.4747559e+57 -3.7915103e+55 1.6435673e+57)
(-7.3313768e+57 -3.5103465e+56 1.3562507e+57)
(-7.2048578e+57 -1.2027211e+56 1.3857772e+57)
(-8.3992038e+57 -9.0352069e+55 1.594551e+57)
(-8.4982168e+57 -6.9200497e+55 1.5944381e+57)
(-7.2495516e+57 -4.0014706e+56 1.3849506e+57)
(-7.2158862e+57 -1.7082749e+56 1.4118714e+57)
(-8.4730074e+57 -1.0795812e+56 1.6418402e+57)
(-8.4578764e+57 -1.1575067e+56 1.6495314e+57)
(-8.4751788e+57 -6.3931355e+55 1.6549027e+57)