/*--------------------------------*- C++ -*----------------------------------*\
  =========                 |
  \\      /  F ield         | OpenFOAM: The Open Source CFD Toolbox
   \\    /   O peration     | Website:  https://openfoam.org
    \\  /    A nd           | Version:  7
     \\/     M anipulation  |
\*---------------------------------------------------------------------------*/
FoamFile
{
    version     2.0;
    format      ascii;
    class       volVectorField;
    location    "10000";
    object      UMean;
}
// * * * * * * * * * * * * * * * * * * * * * * * * * * * * * * * * * * * * * //

dimensions      [0 1 -1 0 0 0 0];

internalField   nonuniform List<vector> 
33730
(
(-9.9083711e+55 -7.6234758e+54 1.063833e+55)
(-1.1842331e+56 -4.8138892e+54 9.1385071e+54)
(-8.8965046e+55 -1.3198401e+55 1.4570711e+54)
(-8.8952825e+55 -4.3018551e+54 1.3641785e+55)
(-9.5032287e+55 -3.2047854e+54 1.0757593e+55)
(-8.8899346e+55 -6.2800131e+54 1.2737515e+55)
(-9.6278514e+55 -7.9992761e+54 9.9363505e+54)
(-9.4200253e+55 -1.91916e+54 1.0061259e+55)
(-1.216715e+56 -3.5790485e+54 2.2622945e+54)
(-9.5099168e+55 -2.3312939e+54 7.9092044e+54)
(-9.4310147e+55 -1.1043707e+54 7.2846217e+54)
(-1.165827e+56 -5.4597563e+54 8.9100341e+54)
(-8.6937912e+55 -3.9671174e+54 -9.6149944e+54)
(-8.7151081e+55 -5.7323873e+54 -9.6168575e+54)
(-6.8352771e+55 -9.7607595e+54 4.8434527e+52)
(-6.839843e+55 -5.8781011e+54 1.5831866e+53)
(-8.9041825e+55 -1.473064e+55 1.9753379e+54)
(-7.5324273e+55 -2.9215126e+54 1.0677695e+55)
(-9.2183778e+55 -1.2515781e+54 1.1740716e+55)
(-7.5844906e+55 -3.2154034e+54 1.0289125e+55)
(-9.1667819e+55 -3.4285366e+54 1.1919473e+55)
(-7.51861e+55 -3.6906611e+54 9.9501144e+54)
(-7.5121965e+55 -3.0027518e+54 1.0065618e+55)
(-9.059015e+55 -1.1959721e+54 1.0699366e+55)
(-8.6881523e+55 -4.8955152e+54 1.3301829e+55)
(-9.0686059e+55 -3.0157816e+54 1.0655213e+55)
(-8.8353095e+55 -6.6140638e+54 1.2861386e+55)
(-9.3008365e+55 -3.3436329e+54 1.0089732e+55)
(-9.5353162e+55 -1.8523849e+54 1.0806981e+55)
(-9.825558e+55 -8.727709e+54 1.0418674e+55)
(-1.1992266e+56 -3.9069738e+54 2.4838731e+54)
(-9.9340333e+55 -2.2482548e+54 3.8491404e+54)
(-9.5787764e+55 -7.9431607e+53 -2.2037099e+54)
(-8.0075363e+55 -1.0584369e+54 -6.7474692e+53)
(-7.9948977e+55 -1.0130175e+54 -2.4064968e+53)
(-8.1806752e+55 -2.0388431e+53 -7.0977341e+53)
(-8.1536778e+55 7.4227943e+52 -6.5305735e+53)
(-9.8913827e+55 -9.4633288e+53 3.4474289e+54)
(-9.5980139e+55 -1.2907157e+54 -2.0396335e+54)
(-8.7349681e+55 -2.2472067e+54 7.8181308e+54)
(-8.7780853e+55 -4.92331e+53 7.6937161e+54)
(-8.6526247e+55 -4.1244756e+53 7.3954348e+54)
(-8.69798e+55 -2.2419663e+54 7.3291672e+54)
(-9.3646143e+55 -2.1892884e+54 7.514435e+54)
(-9.3959639e+55 -7.9339433e+53 7.167724e+54)
(-8.0927654e+55 -2.0873544e+54 -9.2068285e+54)
(-8.5987604e+55 -1.0839624e+54 -8.3035977e+54)
(-8.5381091e+55 -2.6689842e+54 -7.9967782e+54)
(-8.0569378e+55 -2.3644951e+54 -9.334494e+54)
(-8.5339273e+55 -3.9824028e+54 -9.4223831e+54)
(-8.0459719e+55 -2.2955198e+54 -9.1252473e+54)
(-8.5449943e+55 -1.0601477e+54 -7.9653981e+54)
(-8.52445e+55 -2.2763772e+54 -7.826544e+54)
(-8.0280443e+55 -2.1575934e+54 -9.178147e+54)
(-6.6584095e+55 -6.5342362e+54 4.508267e+53)
(-6.5680775e+55 -3.3686838e+54 -1.2007656e+55)
(-4.9307249e+55 -6.6454446e+54 4.491474e+53)
(-6.5441813e+55 -2.4439288e+54 -1.1987099e+55)
(-4.9385941e+55 -3.9001748e+54 6.5232769e+53)
(-6.5438464e+55 -2.537335e+54 -1.2015824e+55)
(-5.0608023e+55 -6.260963e+54 9.6980302e+53)
(-6.6247683e+55 -3.0893082e+54 -1.2096311e+55)
(-4.956838e+55 -3.6705519e+54 1.0076323e+54)
(-8.5923318e+55 -1.1875276e+55 2.7107203e+53)
(-8.6187483e+55 -5.8417986e+54 -9.5898415e+54)
(-6.7453151e+55 -1.0394452e+55 8.9705024e+53)
(-6.3777983e+55 -1.8513626e+54 8.1443841e+54)
(-6.3514058e+55 -1.7817027e+54 8.4935779e+54)
(-8.0978942e+55 -1.0519281e+54 1.0031102e+55)
(-8.0621099e+55 -2.5561405e+54 1.0150392e+55)
(-6.3637852e+55 -2.1031441e+54 8.2779201e+54)
(-8.0759364e+55 -7.3841571e+53 9.8426819e+54)
(-6.339643e+55 -1.8685078e+54 8.1531799e+54)
(-8.0822488e+55 -2.0745552e+54 9.7402279e+54)
(-6.3461989e+55 -2.4225145e+54 8.099329e+54)
(-7.4311534e+55 -3.2292659e+54 1.0439555e+55)
(-8.011548e+55 -9.4738189e+53 9.5258261e+54)
(-6.3137749e+55 -2.2365182e+54 7.8685205e+54)
(-8.0157916e+55 -2.2621618e+54 9.3813492e+54)
(-6.3567904e+55 -2.2246292e+54 7.8411528e+54)
(-6.3320234e+55 -1.9171589e+54 8.183122e+54)
(-8.073594e+55 -1.2599077e+54 9.5292545e+54)
(-8.0135956e+55 -2.4765441e+54 9.5043604e+54)
(-8.9547596e+55 -3.4288755e+54 1.113181e+55)
(-7.4838533e+55 -3.3548601e+54 1.0056413e+55)
(-9.0621634e+55 -1.1352916e+54 1.1272538e+55)
(-7.3987149e+55 -3.1708329e+54 1.012253e+55)
(-7.4324992e+55 -3.8357618e+54 1.0073586e+55)
(-8.5904214e+55 -5.0122123e+54 1.2804648e+55)
(-9.1126625e+55 -1.3310403e+54 1.1002158e+55)
(-9.1110812e+55 -2.9380281e+54 1.0959663e+55)
(-9.4596951e+55 -3.3620129e+54 1.0723691e+55)
(-8.77306e+55 -7.1175612e+54 1.1971186e+55)
(-9.4296822e+55 -2.023471e+54 1.0310895e+55)
(-9.502389e+55 -1.2900201e+54 -1.8781266e+54)
(-9.8909296e+55 -7.2560718e+53 3.3448108e+54)
(-9.4261381e+55 -4.3760495e+53 -2.4870316e+54)
(-8.0322632e+55 -7.037623e+53 -4.0905747e+53)
(-7.9381852e+55 -7.5880933e+53 -2.1926963e+53)
(-7.9290017e+55 -5.064339e+53 -3.9819694e+53)
(-8.0129558e+55 -4.7989629e+53 -4.9481881e+53)
(-9.8243327e+55 -2.1924646e+54 3.5912376e+54)
(-9.0904774e+55 -1.9638698e+54 5.5824417e+54)
(-9.1848762e+55 -6.6076071e+53 5.6858641e+54)
(-8.7850395e+55 -1.3033648e+54 4.2091503e+53)
(-8.8101614e+55 -6.8937047e+53 2.5141999e+53)
(-8.6355959e+55 -4.7146403e+53 -3.7122926e+54)
(-8.6899486e+55 -8.8905245e+53 -3.7803895e+54)
(-8.9141067e+55 -1.3503225e+54 -1.5875659e+54)
(-8.8911268e+55 -5.4484307e+53 -1.4824299e+54)
(-9.6603921e+55 -1.8578827e+53 -1.8951609e+54)
(-9.6228202e+55 -1.5136739e+54 -1.9691407e+54)
(-8.8058868e+55 -1.5818833e+54 3.4355232e+53)
(-8.7906335e+55 -6.6972744e+53 4.4628181e+53)
(-9.0423944e+55 -5.2581913e+53 5.2700513e+54)
(-9.0593709e+55 -2.0392973e+54 5.124336e+54)
(-8.8855766e+55 -5.7327303e+53 -1.6854313e+54)
(-8.641924e+55 -4.5354882e+53 -4.0278137e+54)
(-8.6580078e+55 -9.4124801e+53 -3.8324161e+54)
(-8.8389615e+55 -1.2763637e+54 -1.639465e+54)
(-7.6924643e+55 -3.7948869e+53 -1.3614387e+54)
(-7.5343937e+55 -5.5585188e+53 -2.7047768e+54)
(-7.7175293e+55 -5.0798371e+53 -2.6630237e+54)
(-7.6135461e+55 -6.351511e+53 -3.3694155e+54)
(-8.762617e+55 -3.8948047e+53 -3.8846279e+54)
(-7.7679536e+55 -3.2081084e+53 3.1316153e+54)
(-7.866805e+55 -2.3998456e+53 1.5097078e+54)
(-7.5719187e+55 -3.8394891e+53 -8.6281257e+53)
(-7.6640196e+55 -1.799604e+54 6.9012781e+54)
(-7.6792191e+55 -3.7842823e+53 6.6950436e+54)
(-7.6635641e+55 -3.3809636e+53 6.7082795e+54)
(-7.6883806e+55 -1.7121917e+54 6.6052452e+54)
(-7.604627e+55 -4.3916927e+53 6.7071624e+54)
(-8.6345393e+55 -2.224719e+54 7.7274016e+54)
(-7.6308243e+55 -1.8800067e+54 6.5386875e+54)
(-7.6371419e+55 -1.7599167e+54 6.5863121e+54)
(-7.6513858e+55 -5.6409668e+53 6.3790491e+54)
(-8.640551e+55 -1.8245404e+53 7.3998661e+54)
(-8.7157285e+55 -2.0255446e+54 7.1259511e+54)
(-8.6783377e+55 -4.3174055e+53 7.2612041e+54)
(-9.3815022e+55 -2.392546e+54 7.3728462e+54)
(-9.9008525e+55 -2.714211e+54 -8.3051124e+54)
(-9.8548429e+55 -2.2534079e+54 -8.0230737e+54)
(-8.6009552e+55 -1.6602331e+54 -1.0599219e+55)
(-8.4897615e+55 -4.4713629e+53 -6.2999774e+54)
(-8.4530338e+55 -1.9051731e+54 -6.1636975e+54)
(-8.5839998e+55 -2.0728313e+54 -1.0633583e+55)
(-8.0151539e+55 -2.099103e+54 -8.9423853e+54)
(-8.5280276e+55 -8.8437824e+53 -7.934667e+54)
(-8.4506696e+55 -2.5190208e+54 -7.6070999e+54)
(-7.9588307e+55 -2.3975743e+54 -9.14021e+54)
(-8.5484534e+55 -1.7365779e+54 -1.0478119e+55)
(-8.4428824e+55 -3.475779e+53 -6.1664517e+54)
(-8.4559021e+55 -1.753002e+54 -6.1166615e+54)
(-8.5553779e+55 -2.1291186e+54 -1.0608633e+55)
(-6.5537725e+55 -3.2000308e+54 -1.1904714e+55)
(-6.4430093e+55 -2.662151e+54 -1.186e+55)
(-4.9931119e+55 -6.5936944e+54 1.2878293e+54)
(-4.8621332e+55 -4.1680167e+54 8.6096929e+53)
(-6.8783418e+55 -1.6148179e+54 -1.0774259e+55)
(-6.878437e+55 -8.2334091e+53 -1.0880256e+55)
(-5.6799044e+55 -1.6800004e+54 -1.3073488e+55)
(-5.6765789e+55 -1.820941e+54 -1.299038e+55)
(-3.9423825e+55 -2.4176566e+54 -1.1556203e+55)
(-3.9323082e+55 -2.0472313e+54 -1.1410081e+55)
(-3.4755279e+55 -2.4446485e+54 2.9628682e+54)
(-3.4742018e+55 -4.0707011e+54 2.7358226e+54)
(-6.8746862e+55 -1.8192085e+54 -1.0933873e+55)
(-6.9043266e+55 -7.8335314e+53 -1.1004027e+55)
(-5.6824876e+55 -1.9496004e+54 -1.3227052e+55)
(-5.7104803e+55 -1.4618557e+54 -1.3064344e+55)
(-3.9834712e+55 -2.1838352e+54 -1.1544702e+55)
(-3.928607e+55 -2.111923e+54 -1.163209e+55)
(-3.5392088e+55 -3.928808e+54 3.1448018e+54)
(-3.4856885e+55 -2.1177401e+54 3.1470642e+54)
(-6.9253083e+55 -7.6307637e+53 -1.1036632e+55)
(-6.9005575e+55 -1.8768325e+54 -1.0994718e+55)
(-5.7013755e+55 -1.9640747e+54 -1.3303543e+55)
(-5.7228667e+55 -1.424192e+54 -1.3069674e+55)
(-4.0146553e+55 -2.2838899e+54 -1.1754535e+55)
(-3.9733355e+55 -1.943915e+54 -1.1501866e+55)
(-3.5283248e+55 -2.107943e+54 3.2044474e+54)
(-3.5490457e+55 -3.8969658e+54 2.9331066e+54)
(-6.9106074e+55 -1.5926023e+54 -1.0898152e+55)
(-6.9274317e+55 -7.217798e+53 -1.1039873e+55)
(-5.7099698e+55 -1.7438765e+54 -1.3117137e+55)
(-5.7436649e+55 -1.5312402e+54 -1.3215175e+55)
(-3.9907459e+55 -2.0962895e+54 -1.1472951e+55)
(-3.9392411e+55 -2.1083117e+54 -1.1632925e+55)
(-3.5690454e+55 -3.564282e+54 3.4536938e+54)
(-3.5089631e+55 -1.8828488e+54 3.3316719e+54)
(-8.6077376e+55 -5.863462e+54 -9.6800727e+54)
(-8.4443471e+55 -3.7773954e+54 -9.2690777e+54)
(-6.7102826e+55 -1.0477709e+55 -4.8417536e+52)
(-6.4812954e+55 -6.3310717e+54 -2.8433543e+53)
(-7.9875265e+55 -2.3804863e+54 -8.9611629e+54)
(-8.4934725e+55 -9.3279937e+53 -7.7163068e+54)
(-8.4414958e+55 -2.0214191e+54 -7.463124e+54)
(-7.9407047e+55 -2.0938418e+54 -8.7904142e+54)
(-6.5221194e+55 -3.5660889e+54 -1.1778285e+55)
(-6.454624e+55 -2.4667581e+54 -1.1615553e+55)
(-4.8865307e+55 -7.0348252e+54 8.0567723e+53)
(-4.8619497e+55 -4.2518676e+54 1.1108677e+54)
(-5.5324164e+55 -1.4608376e+54 7.6327289e+54)
(-6.9595604e+55 -6.3873884e+53 8.8357647e+54)
(-5.506335e+55 -1.1571805e+54 7.4452395e+54)
(-6.9655542e+55 -1.3516077e+54 8.7439765e+54)
(-5.5309451e+55 -1.1412895e+54 7.5199778e+54)
(-5.5183246e+55 -1.1168447e+54 7.7935901e+54)
(-6.9458335e+55 -1.7835352e+54 9.1096919e+54)
(-6.9682702e+55 -8.4792488e+53 9.0197296e+54)
(-5.504571e+55 -1.6905395e+54 7.6073396e+54)
(-5.5015407e+55 -1.5527189e+54 7.5129643e+54)
(-6.9289628e+55 -6.7608209e+53 8.9385345e+54)
(-6.9450889e+55 -1.5305599e+54 8.8850801e+54)
(-5.5204056e+55 -1.5488317e+54 7.4162194e+54)
(-6.9597483e+55 -1.001518e+54 8.7648905e+54)
(-5.4899395e+55 -1.2628555e+54 7.5953943e+54)
(-6.934722e+55 -1.7716952e+54 8.7966465e+54)
(-6.2922475e+55 -2.0928826e+54 8.3873263e+54)
(-5.5120631e+55 -1.8854234e+54 7.5780367e+54)
(-5.4954015e+55 -1.7775833e+54 7.4300521e+54)
(-6.9142369e+55 -8.7187594e+53 8.827349e+54)
(-6.9254144e+55 -1.688815e+54 8.7490599e+54)
(-6.3331324e+55 -1.9162656e+54 8.0419975e+54)
(-8.0293079e+55 -1.0333667e+54 9.8511522e+54)
(-7.9586148e+55 -2.6522761e+54 9.8358683e+54)
(-5.5069588e+55 -1.7681208e+54 7.2493667e+54)
(-6.932478e+55 -1.2287498e+54 8.561313e+54)
(-5.4619627e+55 -1.5626917e+54 7.3722749e+54)
(-6.9019912e+55 -2.0122396e+54 8.5768795e+54)
(-5.4899866e+55 -1.7799263e+54 7.3058651e+54)
(-5.4779921e+55 -1.5036766e+54 7.2143507e+54)
(-6.9541717e+55 -1.5518622e+54 8.4746518e+54)
(-6.940209e+55 -9.1460333e+53 8.4990038e+54)
(-5.5141247e+55 -1.410166e+54 7.3426524e+54)
(-5.4961909e+55 -1.299004e+54 7.580543e+54)
(-6.9151773e+55 -1.8605117e+54 8.7947129e+54)
(-6.9452919e+55 -9.8929806e+53 8.757628e+54)
(-6.3202786e+55 -2.1278423e+54 8.2269674e+54)
(-6.2529689e+55 -1.855116e+54 7.8446444e+54)
(-8.0126182e+55 -7.4419532e+53 9.5744373e+54)
(-7.9979928e+55 -1.9343637e+54 9.3344833e+54)
(-6.2941544e+55 -2.2199258e+54 7.9761967e+54)
(-6.2465296e+55 -1.9573696e+54 8.2655536e+54)
(-8.0113832e+55 -1.1465981e+54 9.4940673e+54)
(-7.9749478e+55 -2.4637262e+54 9.5541788e+54)
(-7.2934012e+55 -3.282984e+54 1.0190424e+55)
(-7.9778405e+55 -2.1817487e+54 9.5120371e+54)
(-6.2415934e+55 -2.2327442e+54 8.0667618e+54)
(-6.2632464e+55 -2.3601841e+54 8.1749138e+54)
(-7.9642636e+55 -9.2668675e+53 9.5484024e+54)
(-9.0222041e+55 -1.2509235e+54 1.0900433e+55)
(-7.3763141e+55 -3.3165637e+54 9.6904215e+54)
(-8.9978209e+55 -3.5561353e+54 1.1262147e+55)
(-7.2931029e+55 -3.0433011e+54 9.4487145e+54)
(-9.0124049e+55 -2.8412058e+54 1.025303e+55)
(-8.8656509e+55 -1.4376825e+54 -1.2141545e+54)
(-8.6550457e+55 -1.00783e+54 -3.4392083e+54)
(-8.6385895e+55 -3.0613672e+53 -3.6955389e+54)
(-8.8591594e+55 -3.9493187e+53 -1.5084142e+54)
(-9.6185868e+55 -1.5754515e+54 -1.7290044e+54)
(-9.1233324e+55 -1.8271283e+54 5.0893731e+54)
(-9.1008504e+55 -5.1332975e+53 5.2908619e+54)
(-8.7874442e+55 -1.1326287e+54 -2.66821e+53)
(-8.7737507e+55 -6.6577232e+53 6.7284719e+52)
(-9.8462881e+55 -2.4205979e+54 3.5797549e+54)
(-9.3620176e+55 -1.2611839e+54 -2.1722576e+54)
(-8.9038766e+55 -5.2777965e+53 -1.7305998e+54)
(-8.6614263e+55 -5.7003444e+53 -3.9958678e+54)
(-8.9097946e+55 -1.0464914e+54 -2.1166229e+54)
(-8.6899426e+55 -6.8776918e+53 -4.4341833e+54)
(-9.5285906e+55 -1.457184e+53 -2.3685631e+54)
(-9.0086107e+55 -3.575634e+53 5.1646037e+54)
(-8.7848914e+55 -1.513885e+54 7.8048657e+53)
(-8.7619634e+55 -3.4443062e+53 3.9407638e+53)
(-8.9835133e+55 -2.0038913e+54 5.386885e+54)
(-7.7218924e+55 -1.2595174e+54 2.8810177e+54)
(-7.7237866e+55 -4.1677303e+53 2.6707358e+54)
(-8.0597873e+55 -4.9204973e+53 6.4377931e+54)
(-8.0329954e+55 -1.7355029e+54 6.5694171e+54)
(-7.7302785e+55 -1.2685707e+54 2.5047307e+54)
(-7.7228468e+55 -5.6180719e+53 2.6328802e+54)
(-8.072656e+55 -3.6816856e+53 6.4976475e+54)
(-8.0696432e+55 -1.6040185e+54 6.3087142e+54)
(-7.529868e+55 -7.9377609e+53 -1.1885256e+54)
(-7.545723e+55 -4.7419563e+53 -1.2790269e+54)
(-7.8017777e+55 -4.5026152e+53 1.0009475e+54)
(-7.7839027e+55 -1.1502083e+54 1.1108767e+54)
(-7.840029e+55 -5.4246251e+53 1.053222e+54)
(-7.5510413e+55 -8.1913712e+53 -1.4447111e+54)
(-7.5320066e+55 -6.7094241e+53 -1.3692993e+54)
(-7.8299892e+55 -1.1385337e+54 9.1030984e+53)
(-7.5871453e+55 -6.3530858e+53 -3.2798022e+54)
(-7.6589778e+55 -5.7926799e+53 -2.6811342e+54)
(-7.57807e+55 -4.7391538e+53 -3.5856243e+54)
(-7.6613484e+55 -6.6631781e+53 -2.9012701e+54)
(-8.7158957e+55 -3.1109856e+53 -3.9649214e+54)
(-7.6165852e+55 -6.7804307e+53 -3.6148991e+54)
(-7.6943376e+55 -6.6228842e+53 -2.9168423e+54)
(-7.6945418e+55 -8.422339e+53 -2.7406861e+54)
(-7.6132495e+55 -6.0725696e+53 -3.4468407e+54)
(-8.8345706e+55 -8.166231e+53 -3.9469408e+54)
(-7.5240705e+55 -8.5677737e+53 -2.6966976e+54)
(-7.5280742e+55 -7.1622236e+53 -2.9166482e+54)
(-7.6342737e+55 -6.4930928e+53 -1.8290069e+54)
(-7.6236171e+55 -9.8898034e+53 -1.6871367e+54)
(-7.498419e+55 -6.7352254e+53 -2.8727896e+54)
(-7.4945142e+55 -6.4574781e+53 -2.6606484e+54)
(-7.6061441e+55 -5.5115541e+53 -1.5578735e+54)
(-7.6121551e+55 -8.4231737e+53 -1.7499626e+54)
(-8.5306403e+55 -1.4944879e+53 -5.4635096e+54)
(-8.5515407e+55 -5.3901964e+53 -5.6581205e+54)
(-8.6754051e+55 -2.7529179e+53 -4.4477323e+54)
(-8.7010538e+55 -9.3635113e+53 -4.0325469e+54)
(-7.8014378e+55 -6.7760768e+53 9.5249162e+53)
(-7.5436199e+55 -6.56811e+53 -1.2879214e+54)
(-7.7805192e+55 -1.3959619e+54 1.0782113e+54)
(-7.5364323e+55 -1.0522378e+54 -1.1149325e+54)
(-7.5252986e+55 -9.6096545e+53 -1.1789336e+54)
(-7.5125683e+55 -5.8028312e+53 -1.0024369e+54)
(-7.7802764e+55 -4.922914e+53 1.2649362e+54)
(-7.7802499e+55 -1.2514711e+54 1.072984e+54)
(-7.6991817e+55 -1.4629881e+54 2.787452e+54)
(-7.6906729e+55 -5.5415587e+53 2.9694812e+54)
(-7.9992978e+55 -4.3253776e+53 6.4837826e+54)
(-8.0050347e+55 -1.7227427e+54 6.2721642e+54)
(-8.0310848e+55 -6.8918466e+53 6.1170873e+54)
(-7.7120808e+55 -6.3397375e+53 2.6002812e+54)
(-7.7126508e+55 -1.4523927e+54 2.8164807e+54)
(-7.9928638e+55 -1.7606469e+54 6.1813333e+54)
(-7.6460743e+55 -6.5209918e+53 -1.7740656e+54)
(-7.4851869e+55 -5.4517301e+53 -3.2178524e+54)
(-7.4750432e+55 -7.3901086e+53 -3.1493588e+54)
(-7.6550611e+55 -7.8668667e+53 -1.8484388e+54)
(-7.6495302e+55 -5.5163561e+53 -3.302114e+54)
(-7.6309065e+55 -6.2286739e+53 -3.2432754e+54)
(-7.576512e+55 -6.4780079e+53 -3.8125349e+54)
(-7.5876292e+55 -4.1622003e+53 -3.8596295e+54)
(-7.6163261e+55 -5.3794526e+53 -3.5453665e+54)
(-7.6596219e+55 -5.3669382e+53 -3.0546296e+54)
(-7.5963949e+55 -5.9971411e+53 -3.5403734e+54)
(-7.6338875e+55 -7.0179134e+53 -3.0476103e+54)
(-7.4937115e+55 -6.6020719e+53 -2.8500711e+54)
(-7.504293e+55 -4.9966477e+53 -2.9317042e+54)
(-7.6245624e+55 -4.7366557e+53 -1.8224016e+54)
(-7.5959922e+55 -7.5804816e+53 -1.8063569e+54)
(-6.2189637e+55 -3.4522987e+53 -1.9554872e+54)
(-6.3749263e+55 -2.7270502e+53 -1.2757985e+54)
(-6.2538982e+55 -4.975184e+53 -1.9644734e+54)
(-6.4089255e+55 -5.8602074e+53 -1.2929628e+54)
(-6.2614308e+55 -3.3802946e+53 -2.2310643e+54)
(-6.359779e+55 -3.2802194e+53 -1.8922544e+54)
(-6.3009339e+55 -4.1493111e+53 -2.2403262e+54)
(-6.3940276e+55 -4.8547724e+53 -1.911814e+54)
(-6.3297037e+55 -3.4256666e+53 -2.3380804e+54)
(-6.409524e+55 -3.0469874e+53 -1.9712428e+54)
(-6.3684522e+55 -4.0261984e+53 -2.3808378e+54)
(-6.4474949e+55 -4.5257105e+53 -1.9964445e+54)
(-6.5424754e+55 -3.4242491e+53 -2.2604563e+54)
(-6.577736e+55 -4.7173335e+53 -2.334308e+54)
(-6.5936687e+55 -3.5403911e+53 -3.010091e+54)
(-7.758211e+55 -6.0609274e+53 -2.9613521e+54)
(-6.6376182e+55 -5.0356535e+53 -3.0323062e+54)
(-6.5713716e+55 -4.428788e+53 -2.4732555e+54)
(-7.7766289e+55 -5.7168281e+53 -3.246105e+54)
(-6.6226612e+55 -4.6009598e+53 -3.2259926e+54)
(-7.6848815e+55 -7.859255e+53 -3.6716222e+54)
(-7.7039937e+55 -5.2595187e+53 -4.0288752e+54)
(-6.5882733e+55 -3.1761665e+53 1.3045649e+54)
(-6.8561351e+55 -2.6014401e+53 3.4825161e+54)
(-6.6227026e+55 -9.2050978e+53 1.2469945e+54)
(-6.3842714e+55 -3.4555656e+53 -8.0023384e+53)
(-6.6430125e+55 -2.6974833e+53 6.9033656e+53)
(-6.4161663e+55 -7.1287726e+53 -8.2800132e+53)
(-6.6741999e+55 -8.1603504e+53 6.4462197e+53)
(-6.2756851e+55 -3.1547917e+53 -1.5329373e+54)
(-6.4602918e+55 -2.9570757e+53 -9.1974316e+53)
(-6.3129771e+55 -5.8606748e+53 -1.5430581e+54)
(-6.4915787e+55 -6.5494704e+53 -9.4834811e+53)
(-6.5933459e+55 -1.3598755e+54 6.837666e+54)
(-6.6019124e+55 -3.5961409e+53 6.6601053e+54)
(-6.5894725e+55 -3.3947814e+53 6.5535409e+54)
(-6.6099983e+55 -1.1806101e+54 6.4572942e+54)
(-6.5616035e+55 -4.2503842e+53 6.6923643e+54)
(-6.5916878e+55 -1.4321939e+54 6.6263644e+54)
(-6.5926027e+55 -5.2365045e+53 6.4301358e+54)
(-6.5826499e+55 -1.3369919e+54 6.5333575e+54)
(-6.5557241e+55 -5.273834e+53 6.6825137e+54)
(-6.5816008e+55 -1.513668e+54 6.5939627e+54)
(-7.5979451e+55 -1.7924677e+54 6.9356224e+54)
(-7.6159731e+55 -2.1284303e+53 6.6992195e+54)
(-6.5765246e+55 -7.1961924e+53 6.3213191e+54)
(-6.5603086e+55 -1.5509747e+54 6.4167902e+54)
(-6.5831746e+55 -5.2021184e+53 6.4599722e+54)
(-6.5729148e+55 -1.4532561e+54 6.6411617e+54)
(-6.5715022e+55 -6.2441324e+53 6.2902774e+54)
(-6.5940729e+55 -1.3703873e+54 6.2246954e+54)
(-7.604375e+55 -1.4580618e+54 6.4047739e+54)
(-7.59587e+55 -1.7148063e+53 6.6043803e+54)
(-7.6088354e+55 -3.948606e+53 6.3480493e+54)
(-7.5991932e+55 -1.6393693e+54 6.5084816e+54)
(-7.5974496e+55 -1.7793619e+54 6.5721214e+54)
(-7.564692e+55 -3.6750656e+53 6.6658453e+54)
(-8.6127432e+55 -2.2441771e+54 7.3033354e+54)
(-8.6276003e+55 -3.7892836e+53 7.0138795e+54)
(-8.6360026e+55 -1.9737109e+54 6.6852453e+54)
(-9.84166e+55 -2.7169636e+54 -7.816817e+54)
(-9.7820871e+55 -2.2685301e+54 -7.5288235e+54)
(-1.0005223e+56 -1.9551336e+54 -4.5371918e+54)
(-9.9737665e+55 -1.3980745e+54 -4.44239e+54)
(-8.8258471e+55 -1.2677577e+54 -8.8058309e+54)
(-6.9787488e+55 -4.2506672e+53 -1.1471034e+55)
(-6.9804666e+55 -1.6159458e+54 -1.1438738e+55)
(-8.8548861e+55 -5.8690264e+53 -4.7809746e+54)
(-8.7889462e+55 -1.5791321e+54 -4.5523815e+54)
(-8.8012598e+55 -1.5990604e+54 -8.8089556e+54)
(-6.965063e+55 -4.385674e+53 -1.1367117e+55)
(-6.9724349e+55 -1.6753581e+54 -1.1493038e+55)
(-8.5162306e+55 -1.7635402e+54 -1.0295597e+55)
(-8.4283753e+55 -2.5213202e+53 -6.0054014e+54)
(-8.3894199e+55 -1.7355764e+54 -5.8948546e+54)
(-8.496608e+55 -2.1911078e+54 -1.0444739e+55)
(-8.7718299e+55 -1.2456244e+54 -8.73225e+54)
(-6.9242291e+55 -4.7553562e+53 -1.1290643e+55)
(-6.9330986e+55 -1.5993796e+54 -1.127868e+55)
(-8.8075381e+55 -3.984176e+53 -4.6705504e+54)
(-8.8016657e+55 -1.40735e+54 -4.5605191e+54)
(-8.7806608e+55 -1.6248884e+54 -8.8017836e+54)
(-6.9498303e+55 -4.4670039e+53 -1.1385518e+55)
(-6.9382317e+55 -1.662977e+54 -1.1477629e+55)
(-5.6710636e+55 -1.51147e+54 -1.2958593e+55)
(-6.8570159e+55 -5.9756471e+53 -1.0780794e+55)
(-5.6357374e+55 -1.7558829e+54 -1.2928195e+55)
(-6.8365431e+55 -1.4680978e+54 -1.0644467e+55)
(-6.8545264e+55 -7.0556471e+53 -1.0891358e+55)
(-6.8247646e+55 -1.8549858e+54 -1.078059e+55)
(-5.6603147e+55 -1.4405607e+54 -1.299281e+55)
(-5.6275086e+55 -2.0772998e+54 -1.3135058e+55)
(-3.5167299e+55 -3.9066822e+54 3.1386404e+54)
(-3.9525517e+55 -2.2972812e+54 -1.1411523e+55)
(-3.8942613e+55 -1.9342239e+54 -1.1322475e+55)
(-3.4462714e+55 -2.0920403e+54 3.0796707e+54)
(-3.8639734e+55 -2.2374589e+54 -1.1509911e+55)
(-3.5289757e+55 -3.6693339e+54 3.3559879e+54)
(-3.9340799e+55 -2.1377567e+54 -1.1431213e+55)
(-3.4340945e+55 -2.2137209e+54 3.0846579e+54)
(-5.9555805e+55 -1.5404813e+54 -1.4109303e+55)
(-5.967152e+55 -1.7424978e+54 -1.4103772e+55)
(-2.915849e+55 -1.4634033e+54 -1.3156588e+55)
(-2.886201e+55 -1.6785711e+54 -1.2994232e+55)
(-4.0794687e+55 -1.1901301e+54 -1.192242e+55)
(-4.0707444e+55 -8.792778e+53 -1.2072873e+55)
(-2.9139353e+55 -1.3367737e+54 -1.2906075e+55)
(-2.8879833e+55 -1.751249e+54 -1.3206319e+55)
(-4.0871743e+55 -1.295221e+54 -1.2060471e+55)
(-4.0805626e+55 -8.4044402e+53 -1.1949943e+55)
(-2.3426248e+55 -2.3768885e+54 -3.2575003e+54)
(-2.2771209e+55 -2.4224789e+54 -3.6341916e+54)
(-3.4407967e+55 -2.1976342e+54 5.2187778e+54)
(-3.3691728e+55 -1.3857502e+54 4.8879833e+54)
(-2.2889836e+55 -2.4772338e+54 -4.1220339e+54)
(-3.3962994e+55 -2.3464877e+54 4.9086805e+54)
(-2.327942e+55 -2.6572518e+54 -2.9273045e+54)
(-3.4288425e+55 -1.7614066e+54 5.2490816e+54)
(-5.9829647e+55 -1.7404517e+54 -1.4306943e+55)
(-5.9970218e+55 -1.4178172e+54 -1.4134959e+55)
(-4.1052453e+55 -7.8380397e+53 -1.2117476e+55)
(-2.945984e+55 -1.3225352e+54 -1.3157076e+55)
(-4.1060626e+55 -1.1309226e+54 -1.1963917e+55)
(-2.9086021e+55 -1.5724531e+54 -1.3040913e+55)
(-4.0972788e+55 -8.2980919e+53 -1.209601e+55)
(-4.1100064e+55 -1.3987118e+54 -1.227355e+55)
(-2.9328185e+55 -1.2691432e+54 -1.3000813e+55)
(-2.9153998e+55 -1.8504021e+54 -1.3401453e+55)
(-2.2993417e+55 -2.283653e+54 -4.0850805e+54)
(-2.3196132e+55 -2.3807981e+54 -3.1298695e+54)
(-3.4176624e+55 -1.526179e+54 5.148488e+54)
(-3.3793781e+55 -2.2525989e+54 4.8335128e+54)
(-2.2877495e+55 -2.3278719e+54 -3.8194324e+54)
(-3.4551662e+55 -1.8479886e+54 5.3712047e+54)
(-3.3853066e+55 -1.0688063e+54 4.947438e+54)
(-2.3465386e+55 -2.095516e+54 -3.2272585e+54)
(-6.0005058e+55 -1.6941905e+54 -1.4368346e+55)
(-6.0175342e+55 -1.4098175e+54 -1.4177422e+55)
(-4.1372129e+55 -8.8684076e+53 -1.227597e+55)
(-4.1442674e+55 -1.2159856e+54 -1.2108149e+55)
(-2.9849702e+55 -1.4288901e+54 -1.3299261e+55)
(-2.9558063e+55 -1.6478014e+54 -1.3145466e+55)
(-4.1098794e+55 -8.562676e+53 -1.2078196e+55)
(-4.1106567e+55 -1.2936415e+54 -1.2166855e+55)
(-2.9491685e+55 -1.3092555e+54 -1.3033909e+55)
(-2.9195892e+55 -1.6825273e+54 -1.3316742e+55)
(-2.3751853e+55 -2.2332982e+54 -3.1578676e+54)
(-3.4798689e+55 -2.0846581e+54 5.4110633e+54)
(-2.3241591e+55 -2.2907007e+54 -3.3511237e+54)
(-3.4203247e+55 -1.1210391e+54 5.1792519e+54)
(-2.3180105e+55 -2.2885601e+54 -4.3369073e+54)
(-3.3977864e+55 -2.2230245e+54 4.9097689e+54)
(-2.3758476e+55 -2.5064545e+54 -3.0353423e+54)
(-3.452622e+55 -1.6176936e+54 5.3504766e+54)
(-6.0152666e+55 -1.7152191e+54 -1.4280707e+55)
(-6.031122e+55 -1.440096e+54 -1.4281856e+55)
(-4.0989633e+55 -7.8749401e+53 -1.2106196e+55)
(-4.1027519e+55 -1.1455321e+54 -1.1952555e+55)
(-2.9468522e+55 -1.2857683e+54 -1.3199846e+55)
(-2.911396e+55 -1.5514361e+54 -1.3077517e+55)
(-4.1071534e+55 -8.3852882e+53 -1.2137686e+55)
(-4.1107397e+55 -1.4130802e+54 -1.2294692e+55)
(-2.9293434e+55 -1.2392704e+54 -1.3114771e+55)
(-2.9146162e+55 -1.8513255e+54 -1.3447934e+55)
(-2.3290246e+55 -2.1709772e+54 -3.7663602e+54)
(-3.4383095e+55 -1.9942492e+54 5.1314513e+54)
(-2.3544061e+55 -2.2436211e+54 -2.7767178e+54)
(-3.4507014e+55 -1.0897048e+54 5.3400322e+54)
(-2.356621e+55 -1.965129e+54 -3.1714636e+54)
(-2.308509e+55 -2.2623285e+54 -3.5067181e+54)
(-3.4694319e+55 -1.5027636e+54 5.3884246e+54)
(-3.4143409e+55 -8.8029841e+53 5.1491325e+54)
(-8.3382811e+55 -1.7085278e+54 -7.4886077e+54)
(-8.3754307e+55 -6.3195975e+53 -7.6859557e+54)
(-7.8877272e+55 -1.7911844e+54 -8.8324767e+54)
(-8.4014604e+55 -2.2910248e+54 -7.3513201e+54)
(-8.461484e+55 -6.2403046e+53 -7.6760814e+54)
(-7.9482477e+55 -1.9457814e+54 -8.7557011e+54)
(-7.8945603e+55 -2.3476518e+54 -8.9819234e+54)
(-6.3915898e+55 -1.9779829e+54 -1.1435906e+55)
(-4.7140957e+55 -3.9406839e+54 2.6606122e+53)
(-6.4755488e+55 -2.9111202e+54 -1.1544133e+55)
(-6.3708159e+55 -2.5705031e+54 -1.1569503e+55)
(-4.8607152e+55 -6.3227145e+54 8.7223117e+53)
(-4.725745e+55 -4.1728864e+54 7.4741524e+53)
(-8.4752282e+55 -1.8781947e+54 -1.0258291e+55)
(-8.4124814e+55 -1.5946245e+53 -5.9648473e+54)
(-8.3800728e+55 -1.4983571e+54 -5.7422769e+54)
(-8.4652632e+55 -2.2145907e+54 -1.0138921e+55)
(-6.8275937e+55 -1.5324852e+54 -1.058024e+55)
(-6.8338808e+55 -7.8710528e+53 -1.0721462e+55)
(-5.6462797e+55 -1.7470677e+54 -1.2812091e+55)
(-5.6274744e+55 -1.8713448e+54 -1.2740574e+55)
(-6.8200333e+55 -6.9941526e+53 -1.061492e+55)
(-5.6265787e+55 -1.5547615e+54 -1.2661999e+55)
(-6.7850562e+55 -1.6502113e+54 -1.0496718e+55)
(-5.5898518e+55 -1.9217408e+54 -1.2852234e+55)
(-3.9126629e+55 -2.5246583e+54 -1.1349885e+55)
(-3.4380708e+55 -4.1427145e+54 2.9061428e+54)
(-3.894908e+55 -2.1277839e+54 -1.1146789e+55)
(-3.4506958e+55 -2.4579605e+54 3.2031821e+54)
(-3.8468202e+55 -2.1206447e+54 -1.120029e+55)
(-3.5261802e+55 -4.020158e+54 3.4975695e+54)
(-3.9241103e+55 -2.3621021e+54 -1.1094881e+55)
(-3.428868e+55 -2.1515613e+54 3.2751294e+54)
(-4.7647855e+55 -1.071467e+54 6.9972917e+54)
(-4.7561012e+55 -1.3841859e+54 7.1123817e+54)
(-6.0426701e+55 -5.2248644e+53 7.7016736e+54)
(-6.0401912e+55 -1.0839415e+54 7.5821208e+54)
(-6.0626121e+55 -7.1548571e+53 7.5899467e+54)
(-4.7501605e+55 -1.1855598e+54 6.8619038e+54)
(-4.7529158e+55 -6.5835459e+53 7.0918342e+54)
(-6.0407629e+55 -1.1943174e+54 7.4135542e+54)
(-4.775059e+55 -6.9930096e+53 7.0248597e+54)
(-4.7638672e+55 -1.1477383e+54 7.1236607e+54)
(-6.0587324e+55 -4.4654429e+53 7.6698739e+54)
(-6.0534635e+55 -9.2094359e+53 7.5468176e+54)
(-4.7907887e+55 -6.9162306e+53 7.3772723e+54)
(-4.7723371e+55 -9.3674834e+53 7.0481139e+54)
(-6.0605858e+55 -6.2944793e+53 7.9433422e+54)
(-6.0397704e+55 -1.3141039e+54 7.8293483e+54)
(-4.7493393e+55 -1.3850753e+54 7.0717278e+54)
(-4.7484164e+55 -1.6019852e+54 7.1565413e+54)
(-6.0070926e+55 -6.5993283e+53 7.7142956e+54)
(-6.0233685e+55 -1.296605e+54 7.8411705e+54)
(-4.747407e+55 -1.5514436e+54 6.9159475e+54)
(-4.780011e+55 -1.0448854e+54 7.2941429e+54)
(-6.0338081e+55 -9.7771969e+53 7.5920675e+54)
(-6.0395594e+55 -1.5043322e+54 7.6674358e+54)
(-4.754753e+55 -1.0808319e+54 6.9896397e+54)
(-4.7458907e+55 -1.6011361e+54 6.9941516e+54)
(-6.0311896e+55 -7.0559859e+53 7.4112784e+54)
(-6.0470673e+55 -1.1360862e+54 7.5118869e+54)
(-4.7486581e+55 -1.2252053e+54 6.9249755e+54)
(-4.7521683e+55 -8.1788985e+53 7.2124079e+54)
(-6.0288697e+55 -7.096846e+53 7.6204891e+54)
(-6.0119149e+55 -1.3709322e+54 7.5492431e+54)
(-5.5010046e+55 -1.270954e+54 7.3967392e+54)
(-5.4807307e+55 -1.4553613e+54 7.720422e+54)
(-6.8887728e+55 -1.9599754e+54 8.9992406e+54)
(-6.924338e+55 -9.1393321e+53 8.9475813e+54)
(-4.7500198e+55 -1.5378339e+54 6.9622877e+54)
(-4.7328033e+55 -1.7825633e+54 6.992766e+54)
(-6.0112237e+55 -7.8781021e+53 7.6366461e+54)
(-6.0336239e+55 -1.388821e+54 7.7591297e+54)
(-4.7287393e+55 -1.6918991e+54 6.7442689e+54)
(-4.7568852e+55 -1.3420949e+54 7.1155686e+54)
(-6.0315568e+55 -1.1224983e+54 7.4900908e+54)
(-6.0348565e+55 -1.6498017e+54 7.5586871e+54)
(-5.4953031e+55 -1.3743172e+54 7.5445032e+54)
(-5.4658579e+55 -1.1073284e+54 7.3178558e+54)
(-6.9356561e+55 -1.2754352e+54 8.6320905e+54)
(-6.9342544e+55 -5.7523104e+53 8.7227458e+54)
(-4.7350378e+55 -1.274886e+54 6.8414217e+54)
(-4.7170939e+55 -1.8523122e+54 6.809726e+54)
(-6.0176161e+55 -9.1546712e+53 7.2817462e+54)
(-6.0379678e+55 -1.313029e+54 7.3805986e+54)
(-4.7084539e+55 -1.2221862e+54 6.9799512e+54)
(-4.7146563e+55 -1.4441903e+54 6.7515383e+54)
(-6.0090461e+55 -9.4038996e+53 7.4755706e+54)
(-5.9900379e+55 -1.6198418e+54 7.3920514e+54)
(-4.7226205e+55 -1.2941244e+54 6.8175562e+54)
(-4.7089587e+55 -1.8045768e+54 6.8994978e+54)
(-6.0169982e+55 -8.2222696e+53 7.4621092e+54)
(-6.019921e+55 -1.3255205e+54 7.355903e+54)
(-4.7497286e+55 -1.0230644e+54 7.0515393e+54)
(-4.713219e+55 -1.5379674e+54 6.6628255e+54)
(-6.0431618e+55 -9.7373648e+53 7.3575456e+54)
(-6.0256587e+55 -1.4068482e+54 7.2309646e+54)
(-4.733988e+55 -1.4877547e+54 6.9256902e+54)
(-6.0416624e+55 -6.4134441e+53 7.4771923e+54)
(-6.0383212e+55 -1.0922005e+54 7.3901675e+54)
(-4.7366576e+55 -9.4794661e+53 6.8619506e+54)
(-4.743956e+55 -1.1148944e+54 6.8465142e+54)
(-4.7770679e+55 -9.7367758e+53 7.3134208e+54)
(-6.0297771e+55 -7.7919344e+53 7.6519635e+54)
(-6.0297658e+55 -1.4869785e+54 7.7805733e+54)
(-5.4795523e+55 -1.580115e+54 7.6397646e+54)
(-5.4507749e+55 -1.3097858e+54 7.4260165e+54)
(-6.8966223e+55 -1.3442216e+54 8.7133996e+54)
(-6.8897862e+55 -5.8577846e+53 8.8037297e+54)
(-5.4643788e+55 -1.3439066e+54 7.197547e+54)
(-5.4087236e+55 -1.1835388e+54 7.2806346e+54)
(-6.8683066e+55 -1.6202065e+54 8.4900227e+54)
(-6.9072806e+55 -8.3004802e+53 8.5025814e+54)
(-5.4541445e+55 -1.7961439e+54 7.4925259e+54)
(-5.4339803e+55 -1.3094618e+54 7.3928437e+54)
(-6.8739536e+55 -7.8864603e+53 8.5495983e+54)