/*--------------------------------*- C++ -*----------------------------------*\
  =========                 |
  \\      /  F ield         | OpenFOAM: The Open Source CFD Toolbox
   \\    /   O peration     | Website:  https://openfoam.org
    \\  /    A nd           | Version:  7
     \\/     M anipulation  |
\*---------------------------------------------------------------------------*/
FoamFile
{
    version     2.0;
    format      ascii;
    class       volScalarField;
    location    "5000";
    object      nut;
}
// * * * * * * * * * * * * * * * * * * * * * * * * * * * * * * * * * * * * * //

dimensions      [0 2 -1 0 0 0 0];

internalField   nonuniform List<scalar> 
33899
(
7.1776209e-31
6.3281461e-31
1.8790366e-31
6.9931518e-31
7.157599e-31
8.2496417e-31
1.1533789e-30
6.3636997e-31
8.8878153e-31
1.8591619e-31
1.8184676e-31
1.9888399e-31
1.5072042e-31
1.0788973e-31
1.1524209e-31
1.0810991e-31
1.6565407e-31
3.6642261e-31
4.1802179e-31
1.14037e-31
6.4963381e-31
6.5066597e-31
9.9009483e-31
9.2822924e-31
7.0175907e-31
8.6356541e-31
1.2395384e-30
9.1202677e-31
4.8228414e-31
1.0930494e-30
1.1736258e-30
3.1346851e-31
1.9471647e-31
1.9204409e-31
1.6028746e-31
1.0597218e-31
1.0705842e-31
1.6031115e-31
1.1643867e-31
1.5426399e-31
1.1173406e-31
1.138067e-31
1.4637661e-31
1.1489208e-31
3.5491106e-31
4.103958e-31
1.8263579e-31
1.8511211e-31
1.8794942e-31
1.8902924e-31
1.829534e-31
1.9139274e-31
1.556237e-31
5.121234e-32
6.3764516e-32
6.493293e-32
1.1168162e-31
9.8664648e-32
1.0627223e-31
9.4468512e-32
8.9966293e-32
9.2589798e-32
5.1935175e-32
7.1236062e-32
7.570129e-32
9.6866415e-32
9.2274268e-32
7.9778317e-32
8.1435927e-32
6.0326077e-32
5.8481641e-32
1.0199132e-31
9.5387187e-32
8.4117442e-32
7.8346571e-32
5.4320617e-32
8.5818595e-32
8.7393358e-32
1.0573001e-31
6.0192807e-31
6.5342772e-31
7.0564033e-31
9.1275109e-31
9.289756e-31
1.0897158e-30
1.0403334e-30
5.7597264e-31
4.4930763e-31
1.2322349e-30
8.5084951e-31
9.3374536e-31
1.3689852e-30
1.5703904e-30
2.0261761e-31
1.81419e-30
1.4917922e-30
2.8268279e-31
8.6703461e-31
1.4051154e-30
3.1295228e-31
3.1504954e-31
3.6011459e-31
1.2242146e-31
1.1785567e-31
4.1132345e-31
1.8847152e-31
1.8804668e-31
1.5486796e-31
1.0801221e-31
1.089166e-31
1.4622388e-31
1.6388543e-31
1.0607388e-31
9.9417444e-32
6.2190867e-32
5.966136e-32
5.1446468e-32
9.4125568e-32
9.1316686e-32
8.8813572e-32
8.5198117e-32
9.8023376e-32
8.2668269e-32
9.4741894e-32
8.5408483e-32
6.1798633e-32
9.7169165e-32
5.248324e-32
1.0177583e-31
6.0720124e-32
7.5375776e-32
7.2436756e-32
5.1462991e-32
5.9497754e-32
6.0122399e-32
1.0298786e-31
1.1058901e-31
8.8882792e-32
8.8507887e-32
8.7018521e-32
8.672946e-32
1.0467487e-31
9.7984333e-32
8.3724833e-32
8.767653e-32
5.1601858e-32
6.4321505e-32
6.1602124e-32
1.0554103e-31
9.973307e-32
8.3974373e-32
7.6589075e-32
8.6079288e-32
8.0902024e-32
1.7686417e-31
1.6816641e-31
1.8264974e-31
1.5198832e-31
1.511041e-31
1.7265198e-31
1.7052233e-31
1.0841557e-31
1.0529371e-31
1.1288918e-31
1.0849132e-31
1.008036e-31
1.1509023e-31
1.1949977e-31
9.4967512e-32
1.0755455e-31
1.0722648e-31
1.0775228e-31
1.1003448e-31
1.1231183e-31
1.2026697e-31
1.0636143e-31
9.7884084e-32
1.147094e-31
1.0504121e-31
1.0447617e-31
1.0349921e-31
1.1937065e-31
2.1633614e-32
2.9903119e-32
3.2172249e-32
2.2428173e-32
5.9413075e-32
6.0296464e-32
5.9335829e-32
5.7019714e-32
4.9986851e-32
5.6500511e-32
5.3060751e-32
5.2018379e-32
7.0055718e-32
5.0993454e-32
5.8310524e-32
7.1580395e-32
6.0908811e-32
7.0712913e-32
7.185767e-32
6.2463328e-32
7.9217097e-32
8.4625049e-32
9.6699984e-32
8.953859e-32
8.8139034e-32
8.3433401e-32
9.3747487e-32
9.5499605e-32
1.0092415e-31
1.0138823e-31
8.7121582e-32
8.7659265e-32
8.6879366e-32
9.9826874e-32
9.4888862e-32
8.8612253e-32
2.1343816e-32
2.161367e-32
3.1506097e-32
2.8854947e-32
5.0215667e-32
5.286431e-32
8.9221496e-32
8.5120426e-32
9.2788745e-32
8.6453917e-32
8.8924215e-32
8.6025274e-32
9.4083768e-32
9.0870687e-32
8.6713511e-32
7.8657607e-32
8.4668544e-32
9.0494789e-32
8.4772606e-32
8.8334612e-32
8.1184859e-32
7.9537629e-32
5.4984284e-32
4.5017541e-32
5.2417225e-32
4.8051644e-32
5.0123584e-32
4.6052686e-32
4.7875575e-32
4.8827889e-32
5.9861967e-32
5.5156908e-32
7.6374261e-32
7.9141451e-32
7.3223795e-32
5.2004026e-32
7.370835e-32
7.5138568e-32
8.0595906e-32
7.5541236e-32
5.0184769e-32
2.2086554e-32
2.226788e-32
3.1407909e-32
2.9634295e-32
6.5624853e-32
6.07074e-32
6.8083934e-32
7.4307628e-32
6.148689e-32
6.2058106e-31
9.3787666e-31
8.9213812e-31
6.6955814e-31
6.1492216e-31
6.2498126e-31
6.5066065e-31
6.3442771e-31
6.2158752e-31
4.6123535e-31
1.3175631e-30
1.0488521e-30
9.8637327e-31
9.5703678e-31
5.614394e-31
6.3633253e-31
1.0159971e-30
1.3394913e-30
4.6720715e-31
1.1934665e-30
1.6342679e-30
1.6147203e-30
3.1935051e-31
8.478032e-31
7.9546487e-31
5.0308221e-31
6.1902357e-31
4.0390935e-31
1.6353938e-30
7.7794044e-31
5.7069272e-31
1.2307717e-30
2.1970335e-30
1.7796221e-30
2.6819196e-31
4.4544743e-31
7.3599369e-31
1.5736001e-30
3.244216e-31
4.322551e-31
1.1733997e-30
9.4038605e-32
3.1395188e-31
1.0133749e-31
3.2269042e-31
4.3095105e-31
1.2342459e-31
1.553612e-31
8.8187563e-32
5.4856551e-32
8.1294686e-32
8.35973e-32
5.585274e-32
5.1272136e-32
5.2375252e-32
8.6030446e-32
7.7451175e-32
8.403781e-32
6.7203719e-32
1.0164588e-31
1.0192772e-31
6.2909483e-32
9.9690711e-32
1.0641324e-31
6.5062853e-32
6.5151022e-32
5.8974404e-32
8.8463402e-32
1.0417672e-31
5.7353812e-32
8.2585717e-32
8.5012918e-32
9.285111e-32
9.2697533e-32
9.823222e-32
8.6426058e-32
9.4679213e-32
9.6489961e-32
6.1150157e-32
6.3592701e-32
1.0614343e-31
1.0803844e-31
1.0558422e-31
2.2519074e-32
6.7177057e-32
5.5560074e-32
7.5831959e-32
7.6545411e-32
2.2008127e-32
7.6471148e-32
5.388514e-32
7.9548691e-32
7.5289399e-32
5.3847284e-32
5.2437517e-32
5.350653e-32
5.4087353e-32
5.0705243e-32
4.6314e-32
5.0100072e-32
4.9977347e-32
3.0999929e-32
3.2648936e-32
1.0484739e-31
9.5881173e-32
9.9311091e-32
1.0438767e-31
8.5451983e-32
8.9393827e-32
9.3776286e-32
9.1483714e-32
1.0688884e-31
1.0542477e-31
8.86996e-32
9.2507277e-32
8.738918e-32
9.5801489e-32
9.7356816e-32
8.6871385e-32
9.0906988e-32
8.3932024e-32
9.151992e-32
8.9424028e-32
7.8136783e-32
8.5309986e-32
8.5298166e-32
7.5894406e-32
9.0133805e-32
8.6868465e-32
9.5710553e-32
9.7315534e-32
9.5912128e-32
9.3833722e-32
8.5440541e-32
8.5192767e-32
5.2098469e-32
5.1453797e-32
5.0843956e-32
4.9308239e-32
2.2010761e-32
6.4548135e-32
6.8201146e-32
7.3038654e-32
6.8477203e-32
2.2131732e-32
3.0124506e-32
3.2668558e-32
7.035309e-32
5.4844918e-32
6.2845278e-32
7.1568556e-32
4.9450772e-32
4.7399448e-32
4.8388125e-32
5.2668891e-32
5.2367195e-32
5.0452547e-32
2.1768791e-32
2.2192678e-32
2.8710341e-32
3.075687e-32
4.8779843e-32
5.0366446e-32
4.8388706e-32
4.9702523e-32
4.9906837e-32
5.4167569e-32
4.8884134e-32
5.0607584e-32
6.763128e-32
4.920681e-32
7.5362754e-32
7.2316005e-32
7.0647028e-32
5.2699417e-32
6.5982706e-32
7.4990208e-32
8.0076186e-32
7.463165e-32
8.7695524e-32
8.8155044e-32
8.6420499e-32
7.7049095e-32
8.8963196e-32
9.4084778e-32
1.015038e-31
9.6515769e-32
8.5627036e-32
8.8917084e-32
8.6514655e-32
9.4613899e-32
9.6435284e-32
8.6207469e-32
9.5054425e-32
8.397769e-32
9.324231e-32
9.9128372e-32
9.3727063e-32
8.1660264e-32
8.9832384e-32
9.6248206e-32
8.0404352e-32
8.675223e-32
9.1986002e-32
8.2707115e-32
8.2390451e-32
8.8197962e-32
9.2512974e-32
8.261334e-32
2.131123e-32
2.1439931e-32
2.9500045e-32
3.2118083e-32
5.4431874e-32
5.33189e-32
5.1352398e-32
5.6404517e-32
4.9866556e-32
5.1267608e-32
4.8689209e-32
5.1110274e-32
6.7481359e-32
5.0369385e-32
7.4062466e-32
7.311211e-32
7.1564978e-32
5.3484227e-32
5.9780874e-32
7.5303291e-32
4.6125195e-32
5.0493884e-32
8.2487646e-32
7.6980973e-32
1.0735133e-31
1.0703916e-31
1.0949033e-31
1.0774705e-31
1.0364442e-31
1.0493871e-31
1.0350334e-31
1.0390471e-31
1.2192892e-31
1.1924107e-31
1.0342659e-31
1.0251118e-31
1.0030092e-31
9.7712177e-32
1.0712853e-31
1.028843e-31
1.03121e-31
9.8550539e-32
1.1354044e-31
1.1916332e-31
1.0144604e-31
9.6976267e-32
1.1041457e-31
1.1286233e-31
9.7449465e-32
2.4858859e-31
2.5388321e-31
2.8407125e-31
2.5839259e-31
3.0261675e-31
2.97686e-31
3.3410032e-31
3.0357901e-31
2.6355716e-31
2.7738091e-31
2.878031e-31
2.6967541e-31
3.1059163e-31
3.307089e-31
3.3131662e-31
3.074228e-31
2.7725592e-31
2.5564533e-31
2.6859584e-31
3.1626158e-31
2.0085083e-32
1.7137332e-32
2.0568946e-32
1.8469213e-32
3.333647e-32
4.1995556e-32
1.8308915e-32
1.738147e-32
2.0823178e-32
2.1390685e-32
1.2811399e-31
1.4602054e-31
1.3505568e-31
1.2142078e-31
1.459366e-31
1.4514867e-31
1.2716409e-31
1.3225916e-31
9.7192942e-32
1.4979169e-31
1.0595256e-31
8.6421206e-32
1.0291851e-31
1.4184662e-31
1.1446435e-31
9.6183553e-32
1.5889596e-31
1.7180998e-31
1.6712762e-31
1.5948267e-31
1.7713357e-31
1.6970578e-31
1.6723218e-31
1.6813383e-31
2.0605834e-31
2.0950057e-31
2.1068698e-31
2.0522494e-31
2.0893129e-31
2.0968938e-31
2.0090866e-31
2.1314151e-31
1.9493453e-32
1.6214616e-32
1.7310969e-32
2.1359398e-32
1.8823593e-32
1.5969726e-32
1.7575915e-32
2.0535344e-32
4.2114321e-32
4.0328505e-32
5.0522984e-32
5.3187814e-32
1.8877631e-31
1.6928393e-31
1.6569368e-31
1.5090339e-31
1.7858887e-31
1.6832141e-31
1.6961097e-31
1.6058041e-31
2.0174337e-31
2.041878e-31
2.1580363e-31
2.0740925e-31
1.8794207e-31
2.0630012e-31
2.0835893e-31
1.9707561e-31
1.4469451e-31
1.2112261e-31
1.4350198e-31
1.1990664e-31
1.4326317e-31
1.2450697e-31
1.1960911e-31
1.3040728e-31
9.6397535e-32
1.1035422e-31
7.1914267e-32
1.0534106e-31
8.1816164e-32
1.5292687e-31
7.2478231e-32
1.0718539e-31
5.7174315e-32
5.9375255e-32
5.6972049e-32
5.0417536e-32
3.9278323e-32
4.5836504e-32
1.7906011e-32
1.7108057e-32
2.0078678e-32
2.0565666e-32
1.9218824e-32
1.6236052e-32
1.7633591e-32
2.0318819e-32
1.3774447e-31
1.1761962e-31
1.1080082e-31
1.3841087e-31
1.0890577e-31
9.5022223e-32
1.4744563e-31
6.4543454e-31
6.5488813e-31
9.96544e-31
9.6925985e-31
6.5284072e-31
6.6107764e-31
6.7989298e-31
6.3870726e-31
6.1676361e-31
1.1978735e-30
1.0909679e-30
7.0329991e-31
1.1210262e-30
9.0437489e-31
1.2713018e-30
4.4977833e-31
4.8631776e-31
1.1775638e-30
8.1545437e-31
8.7281027e-31
7.0805183e-31
7.7349506e-31
9.0746151e-31
1.1940122e-30
1.79529e-30
1.140461e-30
1.3817007e-30
1.926806e-30
3.1858451e-31
6.1501181e-31
1.0888419e-30
6.0905746e-31
4.6140698e-31
3.2095749e-31
6.6157664e-31
7.3107855e-31
5.0360636e-31
5.8407011e-31
9.0436746e-31
5.4335782e-31
2.3370765e-30
5.2647267e-31
3.9533043e-31
2.2673599e-30
1.5140714e-30
1.7853978e-30
2.7167178e-31
2.7490115e-31
2.6845571e-31
2.6005535e-31
2.7362186e-31
8.9620176e-31
1.1690353e-30
5.2359883e-31
1.7852669e-30
4.0572872e-31
1.6047185e-30
7.879787e-31
7.1818634e-31
4.3158171e-31
1.3378595e-30
8.2576606e-31
7.4122088e-31
1.6510736e-30
5.1456437e-31
1.1186605e-30
1.5556952e-30
5.3455941e-31
5.5806148e-31
5.0369156e-31
1.0528973e-30
1.3237313e-30
2.4272766e-31
2.5970238e-31
1.0271215e-31
9.7758471e-32
9.6947693e-32
1.0383055e-31
3.2091042e-31
1.7602668e-31
9.0307591e-32
9.7520834e-32
2.6290582e-31
3.3683138e-31
8.5916898e-32
5.6375975e-32
5.6709268e-32
9.4544739e-32
1.0033618e-31
9.8983732e-32
9.2949276e-32
9.4005094e-32
6.3305886e-32
6.4846574e-32
8.5054272e-32
5.304592e-32
5.5003744e-32
3.2955836e-32
2.2766358e-32
2.3461989e-32
3.4358737e-32
2.3047882e-32
2.3157663e-32
3.2442055e-32
3.5230074e-32
2.2226307e-32
2.2782062e-32
2.9766283e-32
3.2105834e-32
2.2061934e-32
2.200361e-32
3.1461627e-32
3.4032753e-32
4.7458211e-32
5.2065871e-32
7.9772079e-32
6.4587451e-32
6.5475434e-32
5.6454369e-32
5.4540315e-32
6.8228314e-32
6.3472479e-32
6.7000525e-32
7.166216e-32
6.3432431e-32
6.9093208e-32
7.5193015e-32
6.9923353e-32
5.6670888e-32
5.3529409e-32
5.3501763e-32
5.2795401e-32
8.3289836e-32
9.6544062e-32
5.9861297e-32
6.8389038e-32
7.0688676e-32
6.7001142e-32
7.1893982e-32
6.2556416e-32
6.6924248e-32
7.0802949e-32
5.2570039e-32
5.1460639e-32
5.2240971e-32
5.2255312e-32
5.7241585e-32
5.3538203e-32
5.4156782e-32
5.4807359e-32
5.1044444e-32
5.1753364e-32
4.8923658e-32
4.7604805e-32
6.6450218e-32
6.9775226e-32
7.3416912e-32
6.7729461e-32
6.5206732e-32
5.6543906e-32
7.6393213e-32
7.8507817e-32
4.7757032e-32
4.2913158e-32
4.8664269e-32
4.9317853e-32
7.8628745e-32
8.3230072e-32
8.3311427e-32
8.392798e-32
8.8740535e-32
8.8766881e-32
1.0216465e-31
1.0415119e-31
8.6965878e-32
1.101414e-31
9.1011079e-32
9.2703283e-32
9.4311615e-32
9.5943081e-32
1.0455321e-31
9.3999758e-32
9.9831872e-32
8.5114933e-32
8.5394379e-32
9.490096e-32
8.468299e-32
6.682255e-32
6.9710041e-32
7.3272829e-32
6.961361e-32
6.0194066e-32
5.8016637e-32
7.7606394e-32
7.4975546e-32
4.8409538e-32
4.8134029e-32
4.7258751e-32
5.0032804e-32
5.2863507e-32
4.8077873e-32
5.332638e-32
5.4688463e-32
2.5506092e-31
2.5909133e-31
2.6487509e-31
2.0289904e-32
1.7230234e-32
1.895966e-32
2.2194306e-32
8.9551715e-32
1.5089733e-31
7.6866644e-32
9.6916487e-32
2.0545702e-32
1.7827574e-32
1.9181932e-32
2.1915578e-32
1.0099089e-31
1.5758182e-31
9.9715357e-32
1.1695212e-31
1.7503362e-31
1.5927474e-31
1.5186432e-31
1.5591868e-31
1.3619243e-31
1.3612219e-31
1.4345545e-31
1.3160077e-31
3.2725842e-32
4.031874e-32
1.8594315e-31
2.0178506e-31
1.9753083e-31
1.8282424e-31
1.6904572e-31
1.7944169e-31
1.6469645e-31
1.6548595e-31
2.2489508e-31
2.2307155e-31
2.1216527e-31
2.2288908e-31
2.1143259e-31
2.0995974e-31
2.0384813e-31
2.0898474e-31
1.6245041e-31
1.7640706e-31
1.5949601e-31
1.9147673e-31
2.1013e-31
2.0914647e-31
1.9947559e-31
1.9521483e-31
1.7956199e-31
1.752151e-31
1.750453e-31
1.7099786e-31
2.0658689e-31
2.1598334e-31
2.1388887e-31
2.078412e-31
1.2752319e-31
1.5101336e-31
1.4105383e-31
1.3838684e-31
1.7924903e-32
1.6964305e-32
2.1153191e-32
2.2081385e-32
1.0536713e-31
1.2373624e-31
8.6247359e-32
9.9230528e-32
1.9222707e-32
1.6610618e-32
1.8348551e-32
2.1336624e-32
3.8113752e-32
3.8171927e-32
7.2865386e-32
1.4155647e-31
9.1151573e-32
1.0680341e-31
1.5110295e-31
1.144714e-31
1.2094262e-31
1.4356224e-31
5.3091214e-32
5.0769094e-32
1.961307e-32
1.699444e-32
1.8265552e-32
2.1557401e-32
1.9157511e-32
1.6462292e-32
1.8279863e-32
2.1389759e-32
3.6388883e-32
4.1554715e-32
1.4063468e-31
1.1923034e-31
1.1149682e-31
1.3256045e-31
1.6045469e-31
1.3348326e-31
1.181993e-31
1.3959495e-31
7.8317123e-32
1.794702e-31
9.1210943e-32
1.1131046e-31
7.2879204e-32
1.3376222e-31
7.3308372e-32
1.0033368e-31
1.7154514e-31
1.5502719e-31
1.590068e-31
1.6438335e-31
1.7922164e-31
1.6127071e-31
1.6282875e-31
1.7026599e-31
2.1213206e-31
2.0589247e-31
2.087518e-31
2.1574511e-31
2.1088441e-31
2.0610976e-31
2.0401324e-31
2.0708104e-31
2.0354482e-31
1.6536502e-31
1.6008427e-31
1.7888361e-31
1.8339648e-31
1.6469761e-31
1.6059868e-31
1.6712495e-31
2.0697022e-31
2.0325938e-31
2.0283704e-31
2.0533782e-31
2.0182965e-31
1.9933079e-31
2.0922179e-31
2.0839391e-31
1.9080224e-32
1.5704282e-32
1.7151672e-32
2.1213277e-32
1.8587682e-32
1.5813655e-32
1.7055715e-32
2.0535291e-32
3.8376e-32
3.5218896e-32
1.8619921e-31
1.2941778e-31
1.1644835e-31
1.5715423e-31
1.5198674e-31
1.2167703e-31
1.1468081e-31
1.3634375e-31
7.618922e-32
1.5007288e-31
8.2249126e-32
1.050371e-31
8.3581528e-32
1.2141994e-31
9.6873677e-32
1.3016635e-31
4.7465188e-32
5.102223e-32
5.774551e-32
5.9565271e-32
5.7914693e-32
5.2120963e-32
2.6411096e-31
2.5611049e-31
2.6357126e-31
2.7184528e-31
2.5281483e-31
2.5878745e-31
2.6309841e-31
2.6272687e-31
3.0961185e-31
3.1109561e-31
2.5352292e-31
2.4650644e-31
2.6058443e-31
2.4684601e-31
2.5230886e-31
2.5408393e-31
2.6118639e-31
2.520803e-31
2.9831785e-31
3.0791154e-31
3.0847376e-31
2.9756124e-31
2.9330867e-31
3.0464761e-31
3.0652738e-31
3.8382009e-32
4.214033e-32
4.3167954e-32
3.9179788e-32
4.0146729e-32
4.4145485e-32
4.5848192e-32
4.2270545e-32
4.4743793e-32
4.7891186e-32
5.0521271e-32
4.575311e-32
4.5697706e-32
4.5393275e-32
4.0892055e-32
4.192062e-32
4.8302956e-32
5.0946977e-32
5.4344635e-32
5.0724135e-32
4.3508864e-32
4.6501402e-32
4.9442113e-32
4.6146806e-32
5.2679364e-32
5.0956896e-32
4.6967562e-32
4.8765368e-32
5.1197333e-32
5.4560768e-32
5.699033e-32
5.3268707e-32
4.6085789e-32
4.5988083e-32
4.1744796e-32
4.231957e-32
4.5042257e-32
4.8236458e-32
5.0207661e-32
4.664386e-32
4.5268732e-32
4.8493624e-32
4.7248465e-32
4.3624625e-32
4.3882361e-32
4.4954496e-32
4.1247073e-32
4.0313767e-32
5.0035603e-32
5.2197706e-32
4.8032217e-32
4.6761175e-32
4.9474866e-32
5.2558414e-32
5.4941016e-32
5.1589999e-32
5.474591e-32
5.7807302e-32
6.0955113e-32
5.7338581e-32
5.328721e-32
5.6612775e-32
5.4753365e-32
5.1587257e-32
4.6216272e-32
5.0319979e-32
4.4875394e-32
4.1717264e-32
4.5630574e-32
4.2987617e-32
3.9377411e-32
4.1820546e-32
4.2764224e-32
4.5496952e-32
4.9148004e-32
4.5280087e-32
4.7059271e-32
5.0018521e-32
5.2822385e-32
4.9029429e-32
1.8149567e-32
3.7068217e-32
1.8615427e-32
4.1250674e-32
2.7165239e-32
3.2282804e-32
3.3035831e-32
3.9861245e-32
1.8789223e-32
1.9206148e-32
3.4162468e-32
3.665359e-32
3.3921551e-32
3.3639704e-32
4.1496138e-32
4.4873252e-32
4.0444093e-32
3.8716818e-32
4.1824367e-32
4.096626e-32
3.3994621e-32
3.4832735e-32
3.6660707e-32
3.5882665e-32
3.1024954e-32
3.1022979e-32
3.8953022e-32
4.7153346e-32
4.2497045e-32
3.7616727e-32
4.5548895e-32
5.2650281e-32
4.5052396e-32
4.3948847e-32
4.7954091e-32
4.8672985e-32
3.9333819e-32
3.8138718e-32
4.044371e-32
4.2405298e-32
3.5866527e-32
3.3864896e-32
9.1910248e-32
4.1611375e-32
1.5420875e-31
3.278338e-32
3.8930586e-32
1.1557932e-31
3.0882821e-32
8.6559014e-32
5.747993e-32
3.8377999e-32
1.1822909e-31
2.5354444e-32
3.6420971e-32
1.3163764e-31
7.7162233e-32
3.0765555e-32
3.4857594e-32
6.6554141e-32
5.6373461e-32
2.7811282e-32
3.5358984e-32
7.5547229e-32
6.9961111e-32
3.3549414e-32
3.8135191e-32
1.148265e-31
1.0840706e-31
3.3311924e-32
2.9996614e-32
9.8690034e-32
9.198566e-32
2.7300252e-32
3.4802433e-32
3.4946831e-32
3.0633164e-32
3.0513571e-32
3.8983643e-32
3.8529227e-32
3.3617852e-32
3.3561104e-32
3.4436147e-32
3.9057864e-32
3.8974289e-32
3.415082e-32
3.1744646e-32
3.5560254e-32
3.5443083e-32
3.1666242e-32
3.8720734e-32
4.0774972e-32
3.496709e-32
3.3384871e-32
3.7050852e-32
4.4271454e-32
4.3206838e-32
3.6092317e-32
3.5859047e-32
4.2205783e-32
4.1751299e-32
3.5356583e-32
3.5298732e-32
4.068763e-32
3.9122064e-32
3.4188991e-32
3.5429209e-32
4.0744385e-32
4.0921423e-32
3.5644563e-32
4.0298088e-32
4.1191256e-32
3.6476263e-32
3.5959778e-32
3.8339384e-32
4.2777706e-32
4.2673345e-32
3.8529211e-32
3.6264449e-32
4.0834115e-32
4.1597325e-32
3.6914897e-32
3.7744808e-32
4.0706583e-32
4.0348392e-32
3.6718975e-32
3.6525896e-32
4.0361951e-32
4.0253665e-32
3.6148325e-32
3.7192157e-32
3.7386692e-32
3.4057104e-32
3.3863199e-32
3.8745292e-32
4.2835731e-32
4.2945796e-32
3.8956354e-32
1.8297899e-32
3.1543887e-32
3.4345422e-32
1.8775006e-32
1.7328173e-32
2.7548081e-32
3.7753241e-32
1.8734693e-32
3.1712555e-32
3.1535842e-32
2.7687095e-32
3.385608e-32
3.3878971e-32
3.2651015e-32
3.5966085e-32
3.6834811e-32
3.1665979e-32
3.0265397e-32
4.187608e-32
3.4770788e-32
3.0648066e-32
3.5897692e-32
3.2393055e-32
3.5756137e-32
4.1953838e-32
3.6972379e-32
3.2199898e-32
3.6380012e-32
3.4348145e-32
3.0197985e-32
3.7922882e-32
4.1870237e-32
3.6351854e-32
3.2865528e-32
3.0724057e-32
3.4420318e-32
3.7182825e-32
3.2148607e-32
3.7739469e-32
4.2445479e-32
3.8167494e-32
3.375609e-32
3.1075442e-32
3.5276179e-32
3.7772386e-32
3.3458134e-32
3.3627557e-32
3.6888362e-32
3.9771722e-32
3.5930561e-32
3.6394941e-32
3.994065e-32
4.2909003e-32
3.8693377e-32
4.290475e-32
4.7745841e-32
4.331334e-32
3.8790512e-32
4.0039408e-32
4.451647e-32
3.9603061e-32
3.6150539e-32
3.5563297e-32
3.807879e-32
3.3958172e-32
3.1927396e-32
3.5102532e-32
3.8243347e-32
4.4150496e-32
3.9542275e-32
3.8431122e-32
4.1943791e-32
4.7566552e-32
4.2561947e-32
3.6448763e-32
4.0174299e-32
3.7695227e-32
3.4533955e-32
3.9468261e-32
4.4471957e-32
3.2870819e-32
3.2436386e-32
3.571704e-32
3.7174026e-32
4.2813241e-32
4.1136474e-32
4.1260936e-32
4.1586432e-32
3.8379016e-32
3.6203959e-32
4.4277133e-32
3.5774781e-32
2.991481e-32
3.6245962e-32
3.7756835e-32
4.4735665e-32
4.162213e-32
3.6289398e-32
3.5382317e-32
3.7942197e-32
3.5280906e-32
3.4327614e-32
3.7779666e-32
3.5544454e-32
2.9572885e-32
3.1787106e-32
3.9453222e-32
4.2596097e-32
3.6412628e-32
3.3131838e-32
7.0389684e-32
3.3034866e-32
8.7075499e-32
2.9279642e-32
2.6692952e-32
2.3563199e-32
6.8023453e-32
6.2258837e-32
2.7789117e-32
9.7046215e-32
6.7418767e-32
3.0904338e-32
1.152063e-31
3.279375e-32
2.8211778e-32
9.3933173e-32
2.7897406e-32
7.3316035e-32
7.7975005e-32
2.6832027e-32
3.1728737e-32
7.1962847e-32
6.9384966e-32
2.85512e-32
3.0548771e-32
9.4296249e-32
9.419936e-32
2.6844166e-32
1.0726001e-31
3.5223276e-32
9.201996e-32
2.9180778e-32
7.1187031e-32
5.4112174e-32
4.436468e-32
4.8569129e-32
5.6919983e-32
7.1581051e-32
4.9837458e-32
4.3218752e-32
5.0881988e-32
6.7181717e-32
4.5358266e-32
4.1346158e-32
3.2060876e-32
3.4739395e-32
3.0467951e-32
3.3036581e-32
3.473753e-32
3.5366501e-32
2.7713554e-32
3.4951861e-32
1.8394702e-32
1.7972602e-32
1.7173404e-32
1.8529867e-32
3.9756345e-32
4.2869228e-32
4.0647299e-32
3.7542879e-32
4.0884609e-32
4.2895379e-32
3.5498717e-32
3.444301e-32
1.2553317e-31
3.3457917e-32
3.1312459e-32
1.3507151e-31
7.3786253e-32
3.3983564e-32
9.2549467e-32
3.3294853e-32
8.4576555e-32
3.4415372e-32
9.7895775e-32
3.0587259e-32
1.1606629e-31
3.241567e-32
2.8416546e-32
1.0595453e-31
3.1574807e-32
2.9485618e-32
7.0561847e-32
8.4331386e-32
1.0220642e-31
6.7479782e-31
9.8390718e-31
9.0718237e-31
6.3665988e-31
6.2184703e-31
6.3425518e-31
7.2072863e-31
6.8388512e-31
6.6544731e-31
9.3353121e-31
1.1783459e-30
1.3822718e-30
9.4258753e-31
6.2245911e-31
1.0528836e-30
1.9567549e-31
4.648873e-31
4.6765341e-31
2.045095e-31
8.6665733e-31
1.1291418e-30
9.1911905e-31
1.8381835e-30
1.3864242e-30
2.2762049e-30
8.1302625e-31
1.1735433e-30
4.5579279e-31
7.6298599e-31
8.0450979e-31
1.2362468e-30
1.0710039e-30
1.5656315e-30
1.6704366e-30
3.3613239e-31
5.1397189e-31
6.5764074e-31
5.6458925e-31
4.0986521e-31
3.5395586e-31
5.4208466e-31
6.1180519e-31
4.9394005e-31
4.7483698e-31
5.4061026e-31
1.040692e-30
1.6474214e-30
8.2531988e-31
2.7391576e-30
1.6504169e-30
1.1467053e-30
1.2992739e-30
2.7872576e-31
2.6093214e-31
2.7967927e-31
2.9140747e-31
2.6679693e-31
1.0793899e-30
8.9617362e-31
2.8122057e-31
2.9181466e-31
2.6791657e-31
2.5981275e-31
2.7680948e-31
8.9977996e-31
1.1659691e-30
1.2302856e-30
1.0774092e-30
4.3409931e-31
2.1340796e-30
4.6857769e-31
1.6010805e-30
3.7945313e-31
2.0736622e-30
1.7640499e-31
1.8291638e-31
1.7918115e-31
1.8679792e-31
1.7816377e-31
5.721648e-31
3.2369553e-31
2.9679438e-31
5.4053012e-31
3.8378348e-31
3.6484388e-31
3.9423116e-31
4.1872768e-31
3.9997369e-31
4.2447098e-31
7.5971527e-31
1.1183412e-30
7.147859e-31
7.0406244e-31
6.1055488e-31
3.7533363e-31
6.4454317e-31
3.9601021e-31
4.5511382e-31
4.7473461e-31
4.497717e-31
4.9482924e-31
5.2003083e-31
5.9557522e-31
5.3689204e-31
5.7658498e-31
2.9650679e-31
2.8138169e-31
2.971018e-31
3.0316268e-31
2.9963412e-31
3.378815e-31
3.4135694e-31
2.8627003e-31
2.7737764e-31
2.8575486e-31
1.0407562e-30
1.4021698e-30
5.7645348e-31
5.3919986e-31
5.1746067e-31
4.7629426e-31
4.5831919e-31
4.7818346e-31
4.5788156e-31
5.01363e-31
1.1190307e-30
1.4718197e-30
2.1841594e-31
2.5071451e-31
6.4872117e-32
9.9585676e-32
2.3204087e-31
2.6696177e-31
1.0640344e-31
1.0103585e-31
1.7587276e-31
2.5906951e-31
1.0113959e-31
9.3754873e-32
3.3304121e-31
1.082314e-31
2.2338797e-31
6.8022323e-32
6.8959476e-32
2.7791811e-31
8.1599506e-32
5.4371081e-32
4.9097345e-32
2.3985569e-32
3.4911357e-32
2.281855e-32
2.2921677e-32
3.3674076e-32
3.6603303e-32
6.1464156e-32
6.4697198e-32
7.3731007e-32
7.27602e-32
5.7739371e-32
6.6757276e-32
7.3017131e-32
7.1475262e-32
6.9533392e-32
6.1938581e-32
6.867812e-32
6.9934919e-32
5.4063814e-32
5.0940115e-32
5.1827798e-32
5.2267113e-32
5.7073652e-32
5.2366757e-32
5.6086723e-32
5.7605215e-32
6.0786332e-32
6.2277886e-32
5.2541889e-32
5.485703e-32
3.5438941e-32
4.3088768e-32
3.9907545e-32
3.9707252e-32
1.8663214e-32
2.1103622e-32
2.1282167e-32
1.9525162e-32
1.9687174e-32
1.8017453e-32
2.093673e-32
2.2070416e-32
2.0962492e-32
1.7891517e-32
1.9024356e-32
2.2119919e-32
2.0285364e-32
1.8044185e-32
1.9785864e-32
2.1643152e-32
1.9066138e-32
1.8103449e-32
2.1256721e-32
2.2281484e-32
1.9852e-32
1.7556797e-32
1.9820579e-32
2.2282929e-32
3.7328009e-32
4.0895558e-32
1.8381073e-32
1.699711e-32
2.0768307e-32
2.2171047e-32
1.915413e-32
1.6840684e-32
1.8276055e-32
2.125051e-32
3.7165408e-32
3.3774522e-32
4.90236e-32
5.2027364e-32
5.9986288e-32
5.3786605e-32
1.4576124e-31
1.6171723e-31
1.4000088e-31
1.3505732e-31
1.2377778e-31
1.9187516e-31
9.7250877e-32
9.6321846e-32
8.8397521e-32
1.279641e-31
8.5865031e-32
9.3061755e-32
1.3683383e-31
1.2271779e-31
1.1962254e-31
1.2717546e-31
1.6670695e-31
1.6529561e-31
1.9628839e-31
8.7513325e-32
1.2218978e-31
8.9265956e-32
9.2730829e-32
8.3215492e-32
1.283405e-31
8.4958712e-32
9.2656599e-32
1.1549275e-31
1.2339744e-31
1.3010419e-31
1.2518521e-31
1.4201731e-31
1.3262594e-31
1.254728e-31
1.297854e-31
1.3036768e-31
1.4686747e-31
1.474064e-31
1.3680529e-31
1.0953781e-31
1.2850997e-31
8.065264e-32
1.0038844e-31
8.4738852e-32
1.2190166e-31
6.9082395e-32
1.0054982e-31
1.2844886e-31
1.1750579e-31
1.3717041e-31
1.3512114e-31
1.6679563e-31
1.8488573e-31
1.7590687e-31
1.7368471e-31
1.6495373e-31
1.7005923e-31
2.3980536e-31
2.2567697e-31
2.2008319e-31
1.8293466e-31
1.7962797e-31
1.8568553e-31
1.7392969e-31
2.0021861e-31
2.075465e-31
1.7671644e-31
1.8474523e-31
2.1368614e-31
2.0818511e-31
2.2157958e-31
2.1494276e-31
1.0412475e-31
1.1340169e-31
8.1396956e-32
1.0507726e-31
8.5918511e-32
1.8663826e-31
8.3104722e-32
1.2304847e-31
1.4939734e-31
1.2680682e-31
1.27242e-31
1.4113427e-31
1.4222801e-31
1.4521438e-31
1.7563667e-31
1.5571713e-31
4.2641144e-32
4.5443859e-32
4.1315632e-32
3.9034277e-32
5.0826278e-32
5.53055e-32
4.9170516e-32
4.5826196e-32
4.7840195e-32
4.6031576e-32
1.8869895e-32
3.2562674e-32
4.2870961e-32
2.0354411e-32
3.1505657e-32
2.6027246e-32
5.4639973e-32
5.8188163e-32
3.3158274e-32
6.2248924e-32
3.115645e-32
6.3275926e-32
3.7032261e-32
9.9472607e-32
9.6905617e-32
3.4198901e-32
9.0301844e-32
3.3653792e-32
8.5677897e-32
3.4067201e-32
1.8791574e-32
3.8251048e-32
4.2166335e-32
1.9595612e-32
3.3209508e-32
7.2373924e-32
3.142778e-32
7.1119836e-32
3.5931918e-32
8.4565622e-32
8.1801906e-32
2.848452e-32
4.3711275e-32
1.2807383e-31
1.0181329e-31
3.5550584e-32
1.0143097e-31
4.2344977e-32
1.1302148e-31
3.8002206e-32
4.4002978e-32
4.9816577e-32
4.724322e-32
4.2891379e-32
5.1313102e-32
5.3426308e-32
4.7020374e-32
4.6301645e-32
5.1040872e-32
5.4496586e-32
4.304094e-32
4.1003053e-32
4.6152412e-32
5.1576169e-32
4.2423963e-32
3.8076082e-32
4.1837723e-32
4.5335388e-32
3.5423229e-32
3.4675806e-32
4.0395671e-32
4.2169279e-32
3.9666479e-32
3.7946827e-32
3.9429005e-32
3.8701275e-32
3.6930674e-32
3.8562811e-32
4.148472e-32
4.0161318e-32
3.3612377e-32
3.4549565e-32
2.7354693e-32
3.1519196e-32
3.9006868e-32
4.6958322e-32
4.3530238e-32
3.6336183e-32
4.0393432e-32
4.8383811e-32
4.6042064e-32
3.8115247e-32
4.2546731e-32
4.7456448e-32
3.9972827e-32
3.6260859e-32
3.8985182e-32
4.5835786e-32
4.1795559e-32
3.6159347e-32
3.8609168e-32
3.7786175e-32
3.2809335e-32
3.3343269e-32
3.8982182e-32
3.848941e-32
3.3432919e-32
3.3564784e-32
3.3851855e-32
3.8840941e-32
3.9293815e-32
3.4400709e-32
3.3604234e-32
3.8149564e-32
3.8499491e-32
3.3916154e-32
4.2092248e-32
4.5018756e-32
3.9399252e-32
3.739969e-32
3.6637348e-32
4.3292764e-32
4.1658815e-32
3.6007776e-32
3.6952826e-32
4.2179627e-32
4.1690062e-32
3.667362e-32
4.1037422e-32
4.5923201e-32
4.4022574e-32
3.9639116e-32
3.8136183e-32
4.2310677e-32
4.3547183e-32
3.9100396e-32
3.5551992e-32
3.9505453e-32
4.0576658e-32
3.6476299e-32
3.9779948e-32
3.9577586e-32
3.5711005e-32
3.5992849e-32
3.8359722e-32
4.2269369e-32
4.2231232e-32
3.8224408e-32
3.6089908e-32
4.1522315e-32
4.203354e-32
3.7241738e-32
3.5231949e-32
4.002367e-32
3.9809226e-32
3.4674998e-32
3.772492e-32
4.2121706e-32
4.1026319e-32
3.5957624e-32
3.9762902e-32
4.0459223e-32
3.5266097e-32
3.4234526e-32
4.1893755e-32
4.6303242e-32
4.9191954e-32
4.3870022e-32
3.8193358e-32
4.2394457e-32
4.4534404e-32
4.0484135e-32
4.3041283e-32
4.4673496e-32
3.9499269e-32
3.8562133e-32
4.2686051e-32
4.7645116e-32
4.6548569e-32
4.1521696e-32
3.7971039e-32
3.8765773e-32
3.3513105e-32
3.2533418e-32
4.2943404e-32
4.4947413e-32
3.9371245e-32
3.6890209e-32
4.1885327e-32
4.6579373e-32
4.342631e-32
3.7903064e-32
3.4325124e-32
3.8811204e-32
3.7694445e-32
3.2821581e-32
3.8411317e-32
3.991639e-32
3.556885e-32
3.4239059e-32
4.4082327e-32
4.9461912e-32
4.492848e-32
3.9956767e-32
4.625807e-32
5.2206837e-32
4.7649269e-32
4.2560815e-32
3.8123853e-32
4.2036841e-32
4.0276426e-32
3.6209384e-32
4.0793587e-32
4.4417871e-32
3.4360157e-32
3.3970863e-32
4.1494044e-32
4.208651e-32
3.6416454e-32
3.5643902e-32
4.3615025e-32
4.1624494e-32
3.5378961e-32
3.5302055e-32
3.8626317e-32
4.006153e-32
3.8512516e-32
3.8572633e-32
3.5240489e-32
3.2648744e-32
1.9786033e-32
1.922603e-32
9.7545224e-32
9.252478e-32
3.4847047e-32
3.0832332e-32
5.2508444e-32
2.7452554e-32
5.4716717e-32
2.9063426e-32
6.7422601e-32
2.687329e-32
5.3126919e-32
2.5087364e-32
3.1621757e-32
7.1019448e-32
8.0620338e-32
2.9459071e-32
1.7659951e-32
2.8964162e-32
4.0328224e-32
1.9734106e-32
3.029708e-32
3.0529818e-32
9.6955275e-32
3.4526304e-32
8.3031271e-32
3.1352776e-32
2.7871375e-32
2.7563183e-32
5.6646556e-32
7.7285032e-32
5.4945581e-32
3.0491834e-32
6.8019117e-32
2.6038836e-32
3.4490817e-32
1.0021694e-31
9.0474242e-32
3.073664e-32
3.7445254e-32
4.0515353e-32
3.8403387e-32
3.7163874e-32
3.9552549e-32
4.0339594e-32
3.913506e-32
3.9494072e-32
4.5378025e-32
4.5623775e-32
3.806587e-32
3.7144764e-32
4.0437922e-32
4.1382876e-32
3.4461793e-32
3.3644242e-32
3.2977483e-32
3.1889247e-32
2.7734597e-32
3.368417e-32
1.9207173e-32
3.5469092e-32
3.8673937e-32
1.9457231e-32
1.8172649e-32
2.9661702e-32
4.0664694e-32
1.9244568e-32
3.0096035e-32
3.2740548e-32
3.8383908e-32
3.8071973e-32
3.7030653e-32
3.792558e-32
3.309443e-32
3.4530957e-32
3.974343e-32
3.7830945e-32
4.2451968e-32
3.6634146e-32
3.099286e-32
3.5066373e-32
4.1311749e-32
3.8473686e-32
3.3242704e-32
3.4472003e-32
3.8072177e-32
4.8280006e-32
4.4986373e-32
3.8044543e-32
3.8701677e-32
4.285917e-32
4.2502273e-32
3.9881904e-32
4.4281667e-32
4.1725465e-32