/*--------------------------------*- C++ -*----------------------------------*\
  =========                 |
  \\      /  F ield         | OpenFOAM: The Open Source CFD Toolbox
   \\    /   O peration     | Website:  https://openfoam.org
    \\  /    A nd           | Version:  7
     \\/     M anipulation  |
\*---------------------------------------------------------------------------*/
FoamFile
{
    version     2.0;
    format      ascii;
    class       volVectorField;
    location    "7000";
    object      U;
}
// * * * * * * * * * * * * * * * * * * * * * * * * * * * * * * * * * * * * * //

dimensions      [0 1 -1 0 0 0 0];

internalField   nonuniform List<vector> 
33899
(
(-4.8993575e+41 -1.8651905e+40 -1.400513e+40)
(-4.8786604e+41 -2.2470212e+40 -1.7555766e+40)
(-4.1781019e+41 -3.0121898e+40 -1.2128937e+40)
(-4.8000706e+41 -2.7978528e+40 -1.4946448e+40)
(-4.7106793e+41 -3.2779011e+40 -1.7432888e+40)
(-4.8539154e+41 -2.9116633e+40 -7.6479869e+39)
(-4.8307502e+41 -2.4505451e+40 -4.5598043e+39)
(-4.810475e+41 -1.6529382e+40 -8.620429e+39)
(-5.0111114e+41 -1.7700356e+40 -1.1573001e+40)
(-4.0894841e+41 -3.030114e+40 -1.0545529e+40)
(-4.1781436e+41 -1.4795182e+40 -5.318038e+39)
(-3.7895302e+41 -2.3658388e+40 -5.2359017e+40)
(-3.3636302e+41 -1.4751885e+40 -2.2759441e+39)
(-4.045218e+41 -3.5412837e+39 2.0592675e+40)
(-4.845152e+41 -1.3818319e+40 5.8347391e+40)
(-4.0510559e+41 -2.2554959e+40 2.518939e+40)
(-3.4433687e+41 -5.6209208e+39 7.2006753e+38)
(-3.5556978e+41 -2.7574518e+40 -8.8418078e+40)
(-3.5320223e+41 -4.63301e+40 -9.0237421e+40)
(-4.7761226e+41 -3.1643714e+40 5.7482438e+40)
(-4.5984807e+41 -3.5031472e+40 -2.0051606e+40)
(-4.6248067e+41 -3.520695e+40 -1.8217456e+40)
(-4.6808408e+41 -3.7242069e+40 -1.4187754e+40)
(-4.727488e+41 -3.4263826e+40 -9.3199454e+39)
(-4.7017671e+41 -2.4194616e+40 -8.5514888e+39)
(-4.6410728e+41 -2.4764388e+40 -1.071657e+40)
(-4.4863144e+41 -3.5438467e+40 4.8952423e+39)
(-4.9651963e+41 -2.3849529e+40 -3.1351712e+39)
(-4.3926083e+41 -2.8113468e+40 1.3188493e+40)
(-4.7150131e+41 -2.0793319e+40 4.9684397e+37)
(-4.8945034e+41 -1.6303415e+40 -7.4504511e+39)
(-5.3063997e+41 -2.8803485e+40 -7.0382421e+40)
(-3.8701337e+41 -3.1928855e+40 -5.0959821e+39)
(-4.1282045e+41 -1.3324997e+40 -4.8127756e+39)
(-3.3296715e+41 -1.52537e+40 -1.0580193e+39)
(-3.9988261e+41 -3.6429152e+39 2.153768e+40)
(-3.9706702e+41 -2.3291766e+40 2.4466551e+40)
(-3.3509665e+41 -8.4319271e+39 1.958114e+39)
(-4.7952695e+41 -1.4906308e+40 6.2410792e+40)
(-3.360444e+41 -1.2843328e+40 -1.1967992e+39)
(-4.0161171e+41 -2.4245272e+39 2.1587485e+40)
(-4.0098249e+41 -2.7006695e+40 2.6117638e+40)
(-3.3941169e+41 -9.3015687e+39 2.7332647e+39)
(-4.7432821e+41 -3.1264089e+40 6.2763852e+40)
(-3.5010037e+41 -2.3745281e+40 -8.7838693e+40)
(-3.4896385e+41 -4.22202e+40 -8.915456e+40)
(-3.7460252e+41 -1.9603161e+40 -5.1894129e+40)
(-3.8700682e+41 -1.5381875e+40 -4.4454714e+40)
(-3.4959475e+41 -1.8683428e+40 -4.1059195e+40)
(-3.631336e+41 -1.265776e+40 -7.8259402e+39)
(-3.5092384e+41 -1.0950417e+40 -4.0817623e+40)
(-3.6158285e+41 -1.9257351e+40 -9.7468328e+39)
(-3.535406e+41 -1.582419e+40 -4.0943247e+40)
(-3.9460619e+41 -1.4488378e+40 6.0760073e+40)
(-3.627107e+41 -1.0796893e+40 8.3959153e+39)
(-3.7853204e+41 1.8040769e+39 1.1907997e+40)
(-3.1427693e+41 -4.9705156e+39 -1.1295979e+40)
(-3.0678745e+41 -5.0260847e+39 -9.2417805e+39)
(-3.4751002e+41 -5.1507509e+39 -4.1807954e+40)
(-3.5017651e+41 -1.1680593e+40 -4.0307832e+40)
(-3.6658259e+41 -9.6177378e+39 -1.4285609e+40)
(-3.6426815e+41 -1.6094687e+40 -1.6191748e+40)
(-3.9716296e+41 -2.1770856e+40 5.7251042e+40)
(-2.7813322e+41 -3.3438349e+40 -5.1913776e+40)
(-2.7387636e+41 -4.8053597e+40 -5.5465853e+40)
(-3.5136585e+41 -4.4823432e+39 -3.812829e+40)
(-3.5049303e+41 -9.2584505e+39 -4.1501563e+40)
(-3.7441637e+41 -5.3935915e+39 -9.9615145e+39)
(-3.7135718e+41 -1.4950687e+40 -8.7889014e+39)
(-3.7963686e+41 -1.0741595e+40 1.3754112e+40)
(-3.8123698e+41 3.7518646e+39 1.1563347e+40)
(-3.1694392e+41 3.2721133e+39 -1.1067067e+40)
(-3.1565761e+41 -4.2607073e+39 -1.3601096e+40)
(-3.8845832e+41 -2.0508266e+40 -3.1934002e+40)
(-3.8076181e+41 -5.4551972e+40 -3.0700291e+40)
(-3.916036e+41 -8.9917357e+39 5.8786428e+40)
(-2.7749953e+41 -1.7140185e+40 -5.1104261e+40)
(-2.7848841e+41 -3.4053755e+40 -4.9209982e+40)
(-3.1267188e+41 -8.3665155e+39 -1.3093048e+40)
(-5.5472034e+41 -2.9819213e+40 6.4824875e+40)
(-4.5461684e+41 -3.6883122e+40 -1.7455108e+40)
(-4.4977391e+41 -3.6380405e+40 -1.6503126e+40)
(-4.6051575e+41 -3.7909693e+40 -1.5286796e+40)
(-4.5807933e+41 -3.8499939e+40 -1.294295e+40)
(-4.5577378e+41 -2.4883181e+40 -1.1255278e+40)
(-4.5775348e+41 -2.7782226e+40 -1.0480636e+40)
(-4.875826e+41 -2.3684574e+40 -1.6203129e+40)
(-4.272557e+41 -4.4130353e+40 -3.0121736e+39)
(-4.5907624e+41 -2.8590492e+40 -7.6661853e+39)
(-4.2836077e+41 -4.2482144e+40 2.6667616e+39)
(-4.5950474e+41 -2.9636751e+40 -4.4369406e+39)
(-4.7074105e+41 -2.6637903e+40 -1.2351137e+40)
(-4.6914996e+41 -2.6265524e+40 -1.2731537e+40)
(-3.1740763e+41 -4.4174965e+40 1.2312231e+40)
(-4.590257e+41 -3.0585106e+40 -2.3690851e+39)
(-4.8049807e+41 -2.0158435e+40 -1.5342845e+39)
(-3.1898196e+41 -3.6223723e+40 2.0733249e+40)
(-4.3149098e+41 -2.3068325e+40 5.7118247e+39)
(-4.8451443e+41 -2.5532107e+40 -1.1404395e+40)
(-5.1362001e+41 -2.9214262e+40 1.9297236e+40)
(-5.2664405e+41 -2.5302063e+40 -7.0254782e+40)
(-3.430085e+41 -1.9860309e+40 -8.7159839e+40)
(-4.7089846e+41 -1.5639567e+40 6.2105469e+40)
(-4.6821697e+41 -3.1555137e+40 6.3742332e+40)
(-3.4291772e+41 -3.8473299e+40 -8.7720656e+40)
(-3.1970028e+41 -1.8742774e+40 3.2836831e+39)
(-3.1841454e+41 -1.2971115e+40 5.5602009e+39)
(-3.3528282e+41 -1.4213532e+40 1.709788e+39)
(-3.9856088e+41 -1.5206054e+39 2.5131385e+40)
(-3.9589582e+41 -2.7654439e+40 2.7524083e+40)
(-3.3643587e+41 -1.0838316e+40 3.4385425e+39)
(-3.4682742e+41 -1.0857395e+40 -3.9547008e+40)
(-3.111384e+41 -2.4779214e+39 -9.4067404e+39)
(-3.1014203e+41 -8.2097102e+39 -1.1792757e+40)
(-3.7447209e+41 -7.8663206e+38 1.0351207e+40)
(-3.7251856e+41 -1.3490259e+40 1.1389089e+40)
(-3.8711659e+41 -1.5215615e+40 6.3956381e+40)
(-3.433392e+41 -1.2955947e+40 -4.209343e+40)
(-3.4190705e+41 -7.1362015e+39 -4.0755808e+40)
(-3.6184601e+41 -9.166425e+39 -1.4948525e+40)
(-3.5904229e+41 -1.6383946e+40 -1.615657e+40)
(-3.4778647e+41 -1.1439974e+40 -4.0758117e+40)
(-3.7162643e+41 -6.4121871e+39 -9.973283e+39)
(-3.4221434e+41 -4.4061643e+39 -4.1540353e+40)
(-3.6252783e+41 -1.5115524e+40 -1.281407e+40)
(-3.7676551e+41 7.699863e+38 1.3184489e+40)
(-3.0944623e+41 -5.1892966e+39 -1.1725862e+40)
(-3.90841e+41 -2.5094714e+40 6.1775851e+40)
(-3.1061927e+41 5.3813713e+37 -9.5393866e+39)
(-3.7214817e+41 -1.1988725e+40 1.0936686e+40)
(-2.685427e+41 -4.6976947e+40 -5.2570941e+40)
(-2.7195482e+41 -3.0628298e+40 -4.8689907e+40)
(-3.9730464e+41 -9.8944431e+39 6.1906184e+40)
(-3.7631823e+41 -1.1822961e+40 1.1328055e+40)
(-3.7809662e+41 1.1377051e+39 1.1221752e+40)
(-3.1341262e+41 -8.0663724e+39 -1.2476554e+40)
(-3.1343284e+41 -2.4394066e+39 -1.164931e+40)
(-3.4874698e+41 -4.7157172e+39 -4.0408889e+40)
(-3.49421e+41 -9.789918e+39 -4.131121e+40)
(-3.6504986e+41 -7.0138354e+39 -1.499815e+40)
(-3.6314311e+41 -1.4698146e+40 -1.5178471e+40)
(-3.5172903e+41 -6.2933787e+39 -3.8296506e+40)
(-3.5014547e+41 -1.0700741e+40 -4.0766525e+40)
(-3.7379847e+41 -5.8623761e+39 -8.5191205e+39)
(-3.7233787e+41 -1.6722622e+40 -7.3269259e+39)
(-3.9123658e+41 -2.0074304e+40 6.4388909e+40)
(-3.7807925e+41 -1.3779782e+40 1.2716499e+40)
(-3.7960834e+41 4.1676813e+38 1.1818773e+40)
(-3.152751e+41 -6.7490148e+39 -1.2435723e+40)
(-3.1362097e+41 -2.9680306e+39 -1.0881619e+40)
(-2.763146e+41 -2.8797402e+40 -4.809854e+40)
(-2.7385305e+41 -1.4380186e+40 -4.9862276e+40)
(-3.8386445e+41 -1.6337039e+40 -3.0461802e+40)
(-3.7759176e+41 -4.828242e+40 -2.9738998e+40)
(-3.4797169e+41 -1.6034839e+40 -4.1325051e+40)
(-3.4893109e+41 -8.9879632e+39 -4.029078e+40)
(-3.5790217e+41 -1.8438565e+40 -1.0527183e+40)
(-3.5363428e+41 -1.2297583e+40 -3.6225356e+40)
(-3.5314311e+41 -1.4838492e+40 -3.8667332e+40)
(-3.6350668e+41 -1.0356475e+40 -8.4594167e+39)
(-3.6094402e+41 -2.1161002e+40 -7.5292689e+39)
(-3.1339891e+41 -1.4296038e+40 -3.1461444e+40)
(-3.212217e+41 -1.1165564e+40 -1.5841017e+40)
(-3.209927e+41 -1.6120124e+40 -1.5218334e+40)
(-3.1417056e+41 -1.2097045e+40 -2.998272e+40)
(-3.1438234e+41 -1.1593141e+40 -1.5717306e+40)
(-3.0800824e+41 -1.4167404e+40 -2.743148e+40)
(-3.0863403e+41 -1.1770291e+40 -2.0877044e+40)
(-3.1443141e+41 -1.6495777e+40 -1.352601e+40)
(-3.1686115e+41 -1.4115656e+40 -3.3161037e+40)
(-3.2431662e+41 -1.0429876e+40 -1.718809e+40)
(-3.2484771e+41 -1.4855557e+40 -1.2186679e+40)
(-3.1839751e+41 -1.1456277e+40 -3.0559747e+40)
(-3.1356901e+41 -1.1377534e+40 -2.2637409e+40)
(-3.1085623e+41 -1.4122793e+40 -2.8939216e+40)
(-3.1680109e+41 -1.0165475e+40 -1.6999473e+40)
(-3.1693042e+41 -1.4522161e+40 -1.4889854e+40)
(-3.1872493e+41 -1.1195358e+40 -2.8933519e+40)
(-3.1720744e+41 -1.4018873e+40 -3.1749744e+40)
(-3.2478829e+41 -1.0615729e+40 -1.5828807e+40)
(-3.2533696e+41 -1.5137455e+40 -1.176858e+40)
(-3.1090116e+41 -1.4420351e+40 -2.7926032e+40)
(-3.5426557e+41 -8.7019138e+39 5.127443e+40)
(-2.3397404e+41 -2.9863724e+40 -2.9065352e+40)
(-2.2996899e+41 -3.9406441e+40 -3.2018568e+40)
(-3.5600252e+41 -1.3631926e+40 4.8798974e+40)
(-3.2014402e+41 5.2064803e+37 -4.2619633e+40)
(-3.1861421e+41 -9.5793063e+39 -4.4626196e+40)
(-3.4535576e+41 -4.9866574e+39 -2.1123759e+40)
(-3.4497696e+41 -6.7765682e+39 -2.0609167e+40)
(-3.1858093e+41 -4.5394053e+39 -3.9103327e+40)
(-3.2286954e+41 -4.4097875e+39 -3.9150669e+40)
(-3.4523918e+41 -2.7681901e+39 -1.7228158e+40)
(-3.4092709e+41 -1.036466e+40 -1.8778176e+40)
(-3.500748e+41 4.3354072e+39 -5.6661684e+39)
(-2.9353959e+41 -2.9687173e+39 -3.9812249e+40)
(-2.9571501e+41 2.6202549e+39 -3.7615098e+40)
(-3.4633696e+41 -5.4485521e+39 -7.0032626e+39)
(-2.9334768e+41 1.4682316e+39 -3.8744709e+40)
(-2.9194466e+41 -6.3032304e+39 -3.986493e+40)
(-3.3583769e+41 6.6440306e+38 -1.3303288e+40)
(-3.3707783e+41 -3.2707717e+39 -1.1303066e+40)
(-3.2907272e+41 -6.1607989e+39 -3.8241702e+40)
(-3.2844216e+41 -1.1642718e+40 -3.9943984e+40)
(-3.413276e+41 -8.3089544e+39 -2.212906e+40)
(-3.4076643e+41 -1.1666398e+40 -2.1787154e+40)
(-3.2358944e+41 -7.4372372e+39 -3.6623837e+40)
(-3.2473202e+41 -9.6815704e+39 -3.7655241e+40)
(-3.3731379e+41 -8.0289979e+39 -2.0441398e+40)
(-3.3605504e+41 -1.3133331e+40 -2.0331264e+40)
(-3.1992245e+41 -1.3375372e+40 -3.4426021e+40)
(-3.199941e+41 -9.9897969e+39 -3.3206268e+40)
(-3.2741873e+41 -1.587329e+40 -2.1181453e+40)
(-3.2806629e+41 -1.1269467e+40 -2.1354709e+40)
(-3.3174681e+41 -1.3840962e+40 -2.2491482e+40)
(-3.2399595e+41 -1.3679597e+40 -3.6368618e+40)
(-3.2528584e+41 -9.5206226e+39 -3.4636987e+40)
(-3.3191029e+41 -9.9599677e+39 -2.2637041e+40)
(-3.6064695e+41 -4.2426838e+39 4.6814007e+40)
(-3.5854883e+41 -7.8107143e+39 4.7384754e+40)
(-2.3963121e+41 -2.2838232e+40 -3.2497446e+40)
(-2.3859194e+41 -1.3235556e+40 -3.2328758e+40)
(-3.2713112e+41 -2.5901107e+40 -1.4060402e+40)
(-3.1637905e+41 -5.0458201e+40 -1.5531047e+40)
(-3.2777916e+41 -5.60914e+39 -3.1767258e+40)
(-3.2428776e+41 -9.4170417e+39 -3.9147243e+40)
(-3.3951993e+41 -6.3717808e+39 -1.6771486e+40)
(-3.4309975e+41 -1.2250309e+40 -1.3142179e+40)
(-3.2697733e+41 -4.8165257e+39 -3.7965855e+40)
(-3.2565268e+41 -9.6354473e+39 -3.9281976e+40)
(-3.4127393e+41 -1.0915124e+40 -1.7352184e+40)
(-3.408972e+41 -6.5917972e+39 -1.7521538e+40)
(-3.2282135e+41 -1.2549198e+40 -3.4438619e+40)
(-3.3219896e+41 -1.0091164e+40 -2.1306241e+40)
(-3.3206921e+41 -1.4524536e+40 -2.1288737e+40)
(-3.2422039e+41 -8.6218261e+39 -3.3212414e+40)
(-3.2470589e+41 -1.0047589e+40 -3.1371458e+40)
(-3.2187435e+41 -1.2717262e+40 -3.3899058e+40)
(-3.3090975e+41 -9.3155357e+39 -2.0559992e+40)
(-3.3154388e+41 -1.4470943e+40 -1.9945299e+40)
(-3.429196e+41 -7.7282905e+39 -1.8311123e+40)
(-3.2004807e+41 -5.3085925e+39 -4.1775519e+40)
(-3.1488524e+41 -2.1416426e+39 -4.2662829e+40)
(-3.4291183e+41 -2.3409985e+39 -1.9548497e+40)
(-3.1651537e+41 4.5281786e+38 -4.2938685e+40)
(-3.2283704e+41 -4.2780352e+39 -4.1261389e+40)
(-3.4447451e+41 -2.1857092e+39 -2.0093416e+40)
(-3.4390437e+41 -6.8808231e+39 -2.0199632e+40)
(-2.9228604e+41 3.3231664e+39 -4.0087019e+40)
(-2.9760543e+41 -1.0776364e+39 -4.011595e+40)
(-3.5040254e+41 3.7732997e+39 -7.263565e+39)
(-3.3489261e+41 -5.3975635e+39 -1.1196542e+40)
(-2.9503258e+41 2.3304686e+39 -3.9568714e+40)
(-3.0081671e+41 -1.4404357e+39 -3.9103611e+40)
(-3.5282103e+41 6.1572407e+39 -6.7171425e+39)
(-3.3666544e+41 -3.0801595e+39 -1.1248986e+40)
(-3.7672743e+41 -2.0405133e+40 -2.3132865e+39)
(-3.6829539e+41 -5.5569374e+40 -1.4661336e+39)
(-3.1946371e+41 -1.4856416e+40 -1.3976521e+40)
(-3.5608716e+41 -6.8019193e+39 4.6166149e+40)
(-3.5602152e+41 -1.2486296e+40 4.4652905e+40)
(-2.3745761e+41 -3.2012651e+40 -3.3024335e+40)
(-2.4109545e+41 -2.0400719e+40 -3.1396931e+40)
(-3.4092689e+41 2.9280548e+39 -1.2666523e+40)
(-2.9565423e+41 -5.7260544e+39 -4.2452163e+40)
(-2.9688393e+41 1.5546449e+39 -4.177337e+40)
(-3.3933461e+41 -3.296435e+39 -1.3596887e+40)
(-2.9802959e+41 -2.7346277e+39 -4.1890642e+40)
(-5.5258403e+41 -2.8670634e+40 6.5152748e+40)
(-3.830581e+41 -2.0754331e+40 2.7963719e+39)
(-3.8403203e+41 -2.4335868e+40 -1.2176548e+39)
(-4.4135163e+41 -4.2760324e+39 6.0651864e+40)
(-4.2795786e+41 -4.3238673e+40 6.3367563e+40)
(-4.1322401e+41 -1.2985896e+40 3.4486965e+40)
(-4.0922528e+41 -1.9391074e+40 5.195372e+40)
(-4.0318502e+41 -5.3929195e+40 5.1009121e+40)
(-4.066177e+41 -5.8416531e+40 3.4992903e+40)
(-4.6609831e+41 -3.8939048e+40 -7.3402763e+39)
(-4.4896496e+41 -3.8902662e+40 -1.3928574e+40)
(-4.495355e+41 -3.8279793e+40 -1.440701e+40)
(-4.5550621e+41 -2.7915766e+40 -8.5055569e+39)
(-4.5027563e+41 -2.5183813e+40 -6.990836e+39)
(-4.8432004e+41 -2.9776126e+40 -1.432229e+40)
(-4.8152523e+41 -2.6079033e+40 -1.2979173e+40)
(-4.184545e+41 -4.4544122e+40 -6.588753e+38)
(-4.5670997e+41 -2.7762706e+40 -5.9636472e+39)
(-4.1089068e+41 -4.366647e+40 3.1999371e+39)
(-4.5064147e+41 -2.9595301e+40 -6.0551676e+39)
(-4.6008389e+41 -2.5469095e+40 -1.1279741e+40)
(-4.6077762e+41 -2.5493904e+40 -1.1522967e+40)
(-4.7608813e+41 -2.2051016e+40 -2.4333856e+40)
(-4.1054964e+41 -1.566265e+40 3.967977e+40)
(-4.0391023e+41 -2.4906465e+40 4.7242418e+40)
(-4.2166222e+41 -1.7023659e+40 -1.6243947e+40)
(-3.4675675e+41 -4.6179246e+40 3.7157912e+39)
(-4.2436475e+41 -3.3501857e+40 -4.7750524e+39)
(-4.6507897e+41 -2.7872546e+40 -7.6421107e+39)
(-3.060858e+41 -4.9705512e+40 8.4408563e+39)
(-4.1465507e+41 -3.5786783e+40 -2.6968608e+39)
(-4.6027668e+41 -3.0694001e+40 -7.691592e+39)
(-4.7057114e+41 -2.5192195e+40 -1.1567271e+40)
(-4.6786711e+41 -2.8859785e+40 -1.1263165e+40)
(-3.2499918e+41 -4.1334749e+40 1.1166607e+40)
(-3.4892245e+41 -3.7112564e+40 3.9499491e+39)
(-4.4254495e+41 -2.583754e+40 -8.3746527e+39)
(-4.7928277e+41 -2.4104995e+40 -5.8849215e+39)
(-3.4073247e+41 -2.9406838e+40 1.8906628e+40)
(-3.0818781e+41 -3.2896496e+40 1.3783666e+40)
(-4.3049804e+41 -2.2301933e+40 6.969035e+38)
(-4.0110088e+41 -5.5118514e+40 7.2938636e+40)
(-5.111179e+41 -2.5370603e+40 1.8849827e+40)
(-4.0842438e+41 -1.7136078e+40 7.3717068e+40)
(-5.2275469e+41 -2.0737051e+40 -7.0349475e+40)
(-3.3805473e+41 -3.3310264e+40 -8.6057101e+40)
(-4.6198359e+41 -2.6321229e+40 6.1834912e+40)
(-3.2488064e+41 -1.1947066e+40 7.1450124e+39)
(-3.7760492e+41 -1.1355297e+40 -2.8597431e+40)
(-3.692837e+41 -1.641375e+40 6.5701967e+40)
(-2.6479942e+41 -2.7132502e+40 -4.4182508e+40)
(-2.617004e+41 -4.436764e+40 -4.7788306e+40)
(-3.7203518e+41 -2.8254151e+40 6.3938736e+40)
(-3.8996082e+41 -1.2822793e+40 6.3330648e+40)
(-3.8515041e+41 -2.1369817e+40 6.5393131e+40)
(-2.7173206e+41 -2.5926378e+40 -4.4901556e+40)
(-2.6771127e+41 -1.2626847e+40 -4.651682e+40)
(-3.7236556e+41 -4.4256101e+40 -2.8237269e+40)
(-3.6615868e+41 -5.4257182e+39 8.4128183e+39)
(-3.0473328e+41 -1.478382e+40 -1.1166627e+40)
(-3.0743803e+41 -8.6324484e+39 -8.985742e+39)
(-3.6087689e+41 -1.3669779e+40 6.2137941e+39)
(-3.0813932e+41 -4.8960138e+39 -7.4374733e+39)
(-3.0920154e+41 -9.984127e+39 -9.0198903e+39)
(-3.6547793e+41 -9.9940428e+38 6.9845133e+39)
(-3.6328641e+41 -1.2437461e+40 8.07401e+39)
(-3.7772311e+41 1.7800563e+39 1.43623e+40)
(-3.1231419e+41 -9.3066573e+39 -1.0234721e+40)
(-3.1295211e+41 -4.9757975e+39 -1.0020548e+40)
(-3.7286526e+41 -1.3319068e+40 1.1380912e+40)
(-3.4761453e+41 -7.8150829e+39 -4.048147e+40)
(-3.409608e+41 -4.9677075e+39 -4.1632549e+40)
(-3.6616229e+41 -6.6886151e+39 -9.7848786e+39)
(-3.4317443e+41 -1.1915264e+40 -4.083564e+40)
(-3.4435048e+41 -7.6789911e+39 -3.8374982e+40)
(-3.6319391e+41 -1.7017362e+40 -1.0486723e+40)
(-3.1291489e+41 -8.8779702e+39 -1.0190587e+40)
(-3.1274242e+41 -6.2788107e+39 -9.1476121e+39)
(-3.758219e+41 -1.955239e+39 1.2778436e+40)
(-3.7400095e+41 -1.6744454e+40 1.2449155e+40)
(-3.1319107e+41 -1.121861e+40 -3.0706849e+40)
(-3.1233386e+41 -1.3165059e+40 -3.187586e+40)
(-3.1986612e+41 -1.5039233e+40 -1.4490395e+40)
(-3.5248817e+41 -1.5080906e+40 5.0208749e+40)
(-2.9083216e+41 -7.2422573e+38 -3.6567866e+40)
(-2.9525531e+41 -4.0161499e+39 -3.7133803e+40)
(-3.4682835e+41 8.4294241e+37 -6.579522e+39)
(-3.3234725e+41 -7.589976e+39 -9.7361604e+39)
(-3.4820837e+41 -1.0661288e+40 5.1629319e+40)
(-2.8881521e+41 -5.0360684e+39 -3.6439231e+40)
(-2.940025e+41 -4.7057908e+39 -3.8327416e+40)
(-3.4635248e+41 1.0085068e+39 -7.007985e+39)
(-3.3033353e+41 -8.1325921e+39 -1.1040698e+40)
(-3.1282765e+41 -4.9185049e+39 -4.0420379e+40)
(-3.183351e+41 -7.4909603e+39 -3.9930816e+40)
(-3.3874076e+41 -4.7461249e+39 -2.1121867e+40)
(-3.3627692e+41 -1.0887316e+40 -2.16225e+40)
(-3.385449e+41 -5.2709353e+39 -2.1211157e+40)
(-3.1778706e+41 -9.2257022e+39 -4.0092725e+40)
(-3.1349321e+41 -4.5430235e+39 -4.0336935e+40)
(-3.3543604e+41 -8.9843927e+39 -2.2124244e+40)
(-2.2935995e+41 -2.7430505e+40 -2.5500703e+40)
(-2.2647989e+41 -3.7376049e+40 -2.8689291e+40)
(-3.3413657e+41 -7.2245559e+39 -2.0178068e+40)
(-3.2048759e+41 -9.7838802e+39 -3.8597837e+40)
(-3.2120641e+41 -7.3410216e+39 -3.7472182e+40)
(-3.3393998e+41 -1.2487098e+40 -2.0636179e+40)
(-3.2123725e+41 -6.2339828e+39 -3.8137226e+40)
(-3.2173351e+41 -1.0750316e+40 -3.7055604e+40)
(-3.3480178e+41 -6.9638101e+39 -2.0118916e+40)
(-3.3389637e+41 -1.0836081e+40 -2.1426129e+40)
(-3.1799075e+41 -9.0045709e+39 -3.406984e+40)
(-3.1703547e+41 -1.2067275e+40 -3.3355738e+40)
(-3.2553166e+41 -9.7236359e+39 -2.0807051e+40)
(-3.2525647e+41 -1.4509862e+40 -2.1700493e+40)
(-3.2605718e+41 -8.3664339e+39 -2.1722499e+40)
(-3.1770116e+41 -1.2428239e+40 -3.5368524e+40)
(-3.1929934e+41 -7.7360831e+39 -3.4695985e+40)
(-3.2580915e+41 -1.1841681e+40 -2.2557106e+40)
(-3.408425e+41 -6.108886e+39 -1.443553e+40)
(-3.2663337e+41 -9.6498573e+39 -3.3522515e+40)
(-3.4157527e+41 -1.2436771e+40 -1.3414631e+40)
(-3.267128e+41 -6.9192089e+39 -3.181721e+40)
(-3.2946153e+41 -8.4831723e+39 -1.9408148e+40)
(-3.2125451e+41 -1.0890083e+40 -2.9636459e+40)
(-3.2299474e+41 -8.9159235e+39 -2.805886e+40)
(-3.2957835e+41 -1.4285766e+40 -1.9234046e+40)
(-3.2189413e+41 -6.0431381e+39 -3.8099399e+40)
(-3.2238191e+41 -1.025678e+40 -3.9136901e+40)
(-3.3593868e+41 -7.5659649e+39 -1.8498847e+40)
(-3.3550613e+41 -1.2228965e+40 -1.8673832e+40)
(-3.1981713e+41 -9.929267e+39 -3.30667e+40)
(-3.1875384e+41 -1.3379166e+40 -3.4470772e+40)
(-3.2684382e+41 -9.4575456e+39 -2.0968667e+40)
(-3.2654365e+41 -1.4209415e+40 -2.086068e+40)
(-3.4656287e+41 -3.8051376e+39 -1.5775521e+40)
(-3.2254394e+41 -6.6493067e+39 -3.9697586e+40)
(-3.4172251e+41 -8.642422e+39 -1.8693833e+40)
(-3.1347907e+41 -4.8738959e+38 -4.1776194e+40)
(-3.5547921e+41 -4.5571928e+39 4.9187136e+40)
(-3.3585048e+41 1.0002244e+39 -8.8781377e+39)
(-2.9204907e+41 -7.3629106e+39 -3.7558574e+40)
(-2.9267411e+41 -3.5337448e+38 -3.695017e+40)
(-3.3345366e+41 -5.0725827e+39 -1.0711207e+40)
(-3.5332639e+41 -1.1454276e+40 5.0587161e+40)
(-2.3408487e+41 -1.0915734e+40 -2.8800355e+40)
(-2.3531759e+41 -2.2662427e+40 -2.8568367e+40)
(-3.5073593e+41 2.0730894e+39 -4.942292e+39)
(-2.9632945e+41 -3.1952357e+39 -3.7138737e+40)
(-2.8977592e+41 8.4866624e+38 -3.7335266e+40)
(-3.3153739e+41 -6.7107265e+39 -1.0326234e+40)
(-3.1318427e+41 -2.2163616e+39 -4.1435932e+40)
(-3.2255045e+41 -5.4174657e+39 -3.9269225e+40)
(-3.4003362e+41 -3.1317337e+39 -2.1657876e+40)
(-3.3538233e+41 -8.0757236e+39 -2.2884018e+40)
(-3.1250009e+41 -4.860654e+40 -1.2807113e+40)
(-3.2066133e+41 -2.2680872e+40 -1.1083023e+40)
(-3.5739678e+41 -8.6160257e+39 4.8634338e+40)
(-3.5873986e+41 -1.5354552e+40 4.7827101e+40)
(-2.3937347e+41 -1.979222e+40 -2.9665946e+40)
(-2.3681261e+41 -3.1890774e+40 -3.0704082e+40)
(-3.1314441e+41 -8.5182576e+38 -4.2025882e+40)
(-3.2382241e+41 -6.6659173e+39 -3.9754081e+40)
(-3.4521251e+41 -3.6093092e+39 -1.7962906e+40)
(-3.4051224e+41 -7.8181537e+39 -2.0039269e+40)
(-3.1302967e+41 -2.2755302e+39 -4.1862852e+40)
(-3.2406005e+41 -5.801671e+39 -3.9029086e+40)
(-3.4517462e+41 -3.1660751e+39 -1.7604841e+40)
(-3.4071545e+41 -8.8063769e+39 -2.0032506e+40)
(-3.5169243e+41 2.8302934e+39 -6.1437986e+39)
(-2.9762812e+41 -3.1929485e+39 -3.8520753e+40)
(-2.9208603e+41 -1.1640271e+39 -3.8254797e+40)
(-3.3246487e+41 -6.078628e+39 -1.1679474e+40)
(-3.5226142e+41 1.1540481e+39 -6.1977448e+39)
(-2.9831551e+41 -3.4735542e+39 -3.8728393e+40)
(-2.9176218e+41 1.6750575e+39 -3.85224e+40)
(-3.3273289e+41 -5.4549058e+39 -1.0904792e+40)
(-3.2420678e+41 -5.6787714e+39 -3.7174082e+40)
(-3.2517538e+41 -1.0158529e+40 -3.8131752e+40)
(-3.3769703e+41 -6.9571466e+39 -2.0695233e+40)
(-3.3674879e+41 -1.1004044e+40 -2.0663437e+40)
(-3.2462711e+41 -6.0898464e+39 -3.695024e+40)
(-3.2466007e+41 -9.2738346e+39 -3.7941117e+40)
(-3.3715626e+41 -7.2321841e+39 -2.0566664e+40)
(-3.3688887e+41 -1.2050776e+40 -2.0524367e+40)
(-3.2114485e+41 -8.9303356e+39 -3.3746409e+40)
(-3.1999228e+41 -1.2750665e+40 -3.491801e+40)
(-3.2799181e+41 -1.0236958e+40 -2.1447304e+40)
(-3.2796767e+41 -1.4671204e+40 -2.1412157e+40)
(-3.2853873e+41 -8.4414956e+39 -2.1324953e+40)
(-3.2037641e+41 -1.2357371e+40 -3.5161408e+40)
(-3.2120174e+41 -8.1536212e+39 -3.3987646e+40)
(-3.2808462e+41 -1.2483119e+40 -2.1643281e+40)
(-3.2598233e+41 -6.0424907e+39 -3.6554005e+40)
(-3.2619624e+41 -8.5662199e+39 -3.7112629e+40)
(-3.4036602e+41 -6.4028097e+39 -1.5801162e+40)
(-3.4079171e+41 -1.2336041e+40 -1.5471025e+40)
(-3.252567e+41 -4.5545063e+39 -3.7247722e+40)
(-3.2546519e+41 -8.7743962e+39 -3.7722413e+40)
(-3.3976741e+41 -6.20507e+39 -1.6822019e+40)
(-3.4013392e+41 -1.1044945e+40 -1.6413497e+40)
(-3.3059568e+41 -8.6261121e+39 -1.9948556e+40)
(-3.2128065e+41 -1.1015671e+40 -3.3181946e+40)
(-3.2269239e+41 -8.1023461e+39 -3.2276037e+40)
(-3.3091274e+41 -1.3992876e+40 -2.0163129e+40)
(-3.3073344e+41 -8.8089618e+39 -1.9380651e+40)
(-3.2181664e+41 -1.205892e+40 -3.2485665e+40)
(-3.2322035e+41 -1.0232124e+40 -3.1409435e+40)
(-3.3089192e+41 -1.4731861e+40 -1.9478806e+40)
(-3.6075941e+41 -5.3302982e+39 4.8988471e+40)
(-3.5411534e+41 -1.0515031e+40 5.2193238e+40)
(-2.3449195e+41 -4.5785098e+39 -2.8742027e+40)
(-2.3653316e+41 -1.2784758e+40 -2.6242783e+40)
(-3.1479612e+41 -1.6122347e+39 -4.2195351e+40)
(-3.2450835e+41 -4.9094613e+39 -3.8894412e+40)
(-3.4663143e+41 -2.1395145e+39 -1.6973074e+40)
(-3.4285472e+41 -8.0671144e+39 -1.9481671e+40)
(-3.1344522e+41 3.2967598e+37 -4.3047298e+40)
(-3.2465633e+41 -4.7038733e+39 -3.9164734e+40)
(-3.4573904e+41 -2.6872643e+39 -1.7687426e+40)
(-3.4193633e+41 -7.4262392e+39 -2.0271964e+40)
(-3.534237e+41 2.397302e+39 -5.5728957e+39)
(-2.9918904e+41 -5.0558768e+39 -3.8871364e+40)
(-2.9226042e+41 8.1949727e+38 -4.0234662e+40)
(-3.341407e+41 -5.8681091e+39 -1.1569383e+40)
(-3.5299563e+41 1.4828899e+39 -5.1815526e+39)
(-2.9791797e+41 -4.4916952e+39 -3.9365863e+40)
(-2.8954497e+41 4.695327e+38 -4.0054202e+40)
(-3.3370929e+41 -6.9050869e+39 -1.1092952e+40)
(-3.1994749e+41 -3.3569556e+40 -1.0707293e+40)
(-3.1737671e+41 -1.1319294e+40 -1.2434471e+40)
(-3.7373145e+41 -1.5329338e+40 -2.688635e+39)
(-3.6595452e+41 -4.9017433e+40 -1.8241676e+39)
(-3.2078223e+41 -1.0536082e+40 -1.7562809e+40)
(-3.1347942e+41 -1.3409297e+40 -3.1883056e+40)
(-3.1485198e+41 -1.0810269e+40 -3.0737412e+40)
(-3.2100532e+41 -1.5137504e+40 -1.7250385e+40)
(-3.1479817e+41 -1.007506e+40 -3.10733e+40)
(-3.1377621e+41 -1.2601475e+40 -3.0970937e+40)
(-3.2125932e+41 -9.0079418e+39 -1.6886254e+40)
(-3.2119202e+41 -1.3886558e+40 -1.716928e+40)
(-3.090001e+41 -1.042438e+40 -2.7711513e+40)
(-3.0749557e+41 -1.3038083e+40 -2.8756229e+40)
(-3.1691163e+41 -1.2172515e+40 -2.901502e+40)
(-3.1594392e+41 -1.2751512e+40 -2.8227895e+40)
(-3.2334257e+41 -1.5907133e+40 -1.5445584e+40)
(-3.2328298e+41 -9.4378947e+39 -1.5001227e+40)
(-3.1734977e+41 -1.068122e+40 -2.9625011e+40)
(-3.1565461e+41 -1.2119421e+40 -2.8779129e+40)
(-3.2374417e+41 -1.5072722e+40 -1.6034108e+40)
(-3.2347335e+41 -9.2314849e+39 -1.5525557e+40)
(-3.0969763e+41 -1.2745348e+40 -2.719056e+40)
(-3.1136618e+41 -1.1049536e+40 -2.6317815e+40)
(-3.1586371e+41 -1.5800072e+40 -1.5234092e+40)
(-3.1540529e+41 -9.4834424e+39 -1.4704231e+40)
(-3.0972725e+41 -1.3223388e+40 -2.6616221e+40)
(-3.1141591e+41 -1.2250042e+40 -2.5634078e+40)
(-3.1556069e+41 -1.5573766e+40 -1.470697e+40)
(-2.6788269e+41 -1.1340274e+40 -8.7509504e+39)
(-2.6234315e+41 -1.0464745e+40 -7.8057352e+39)
(-2.6455662e+41 -1.0717624e+40 -8.8489533e+39)
(-2.7022278e+41 -1.1520806e+40 -1.0122307e+40)
(-2.5403493e+41 -9.3932088e+39 -8.0917687e+39)
(-2.5793902e+41 -9.6779713e+39 -7.7524021e+39)
(-2.6018861e+41 -9.4995053e+39 -4.7012936e+39)
(-2.5698892e+41 -9.2527848e+39 -7.435062e+39)
(-2.7348884e+41 -1.0598394e+40 -1.0550481e+40)
(-2.6768866e+41 -9.7615763e+39 -9.429048e+39)
(-2.6783447e+41 -9.1173311e+39 -5.0993605e+39)
(-2.7384174e+41 -1.0568366e+40 -9.6487664e+39)
(-2.6477152e+41 -8.4006313e+39 -5.1767349e+39)
(-2.6349211e+41 -9.5554683e+39 -9.0681865e+39)
(-2.592811e+41 -8.9688036e+39 -9.1314136e+39)
(-2.5939905e+41 -8.4346583e+39 -7.4186214e+39)
(-2.7505152e+41 -1.0494399e+40 -9.2979741e+39)
(-2.7389371e+41 -1.0411558e+40 -9.8918752e+39)
(-2.6796451e+41 -9.8799734e+39 -8.7749333e+39)
(-2.6325057e+41 -9.6016847e+39 -8.6763647e+39)
(-3.0778504e+41 -8.2472768e+39 6.4580764e+38)
(-2.2313131e+41 -2.3885304e+40 -3.5424754e+40)
(-3.134121e+41 -6.6018385e+39 1.8883577e+39)
(-2.2065054e+41 -2.5816727e+40 -3.6900383e+40)
(-2.8312087e+41 -2.2931986e+40 -1.1123258e+40)
(-2.7563819e+41 -3.913869e+40 -1.263357e+40)
(-2.284747e+41 -1.4473423e+40 -3.5526622e+40)
(-2.2761528e+41 -9.2943773e+39 -3.5321618e+40)
(-3.1054736e+41 -3.4094859e+39 6.5955978e+38)
(-3.0881221e+41 -3.1936075e+39 -1.1840026e+38)
(-3.019744e+41 -3.9699582e+39 -2.5074391e+40)
(-3.0036998e+41 -4.9913912e+39 -2.623382e+40)
(-2.9969954e+41 -6.8964477e+39 -2.2051615e+40)
(-3.0113649e+41 -7.0180496e+39 -2.1539809e+40)
(-2.9712121e+41 -6.8562776e+39 -2.4472578e+40)
(-3.0328267e+41 -2.5858912e+39 -2.0131153e+40)
(-2.9754688e+41 -5.6975314e+39 -1.5315866e+40)
(-2.9880033e+41 -9.2228993e+39 -2.0184077e+40)
(-3.0023381e+41 7.5638914e+38 -1.8815199e+40)
(-2.9322983e+41 -4.2743597e+39 -1.4487387e+40)
(-2.96539e+41 -1.3446304e+39 -1.5112611e+40)
(-3.0163594e+41 -1.9344874e+39 -2.2195717e+40)
(-2.9798676e+41 1.2733384e+39 -1.3869433e+40)
(-2.9754246e+41 -2.3470255e+39 -1.5308945e+40)
(-3.0281261e+41 -2.0536327e+39 -2.3943327e+40)
(-3.0420022e+41 -3.7289482e+38 -2.1712168e+40)
(-2.9807169e+41 -9.0609056e+39 -1.7385331e+40)
(-2.9724102e+41 -9.0744839e+39 -1.745273e+40)
(-2.9231952e+41 -1.0165674e+40 -1.4391642e+40)
(-2.9298162e+41 -1.022126e+40 -1.4494594e+40)
(-2.9435726e+41 -1.0214166e+40 -1.6359053e+40)
(-2.9200488e+41 -8.4664894e+39 -1.3924634e+40)
(-2.8581646e+41 -1.0790309e+40 -1.1782528e+40)
(-2.888295e+41 -1.1071145e+40 -1.3748275e+40)
(-2.8023218e+41 -1.1562792e+40 -9.8870246e+39)
(-2.8305682e+41 -1.1663123e+40 -1.1617652e+40)
(-2.7678187e+41 -1.1789361e+40 -1.0661362e+40)
(-2.7421503e+41 -1.1687257e+40 -9.1625878e+39)
(-2.8099687e+41 -1.1121414e+40 -1.0816494e+40)
(-2.8684107e+41 -1.077252e+40 -1.1939535e+40)
(-2.8751384e+41 -1.0973763e+40 -1.1831486e+40)
(-2.8032174e+41 -1.0919124e+40 -1.0944558e+40)
(-3.1477362e+41 -4.2576972e+39 -1.1127377e+39)
(-2.3225719e+41 -1.6094778e+40 -3.6022324e+40)
(-2.3032322e+41 -2.1085742e+40 -3.787402e+40)
(-3.1493499e+41 -3.8449018e+39 -1.6825226e+39)
(-3.1413101e+41 2.6170556e+38 -1.4490658e+39)
(-2.2788211e+41 -5.6760758e+38 -3.808919e+40)
(-2.291851e+41 -3.8977744e+39 -3.6912707e+40)
(-3.0976225e+41 1.0257421e+39 -1.623387e+39)
(-2.8222035e+41 -2.5720195e+40 -1.2746286e+40)
(-2.8218327e+41 -8.3540511e+39 -1.2717603e+40)
(-3.0698827e+41 -2.7338107e+40 3.2066938e+39)
(-2.9561602e+41 -5.4715005e+40 3.7446798e+39)
(-2.996498e+41 -8.5064478e+39 -1.1728437e+40)
(-2.9550046e+41 -7.559886e+39 -1.741563e+40)
(-2.9102677e+41 -9.3966635e+39 -1.1942009e+40)
(-2.965225e+41 -1.0501142e+40 -7.6266199e+39)
(-2.9863766e+41 -8.3778116e+39 -1.7962109e+40)
(-2.9884386e+41 -8.2386105e+39 -1.6260386e+40)
(-2.9474843e+41 -9.383028e+39 -1.2532604e+40)
(-2.9339908e+41 -9.3075148e+39 -1.1623136e+40)
(-2.8781127e+41 -1.0304012e+40 -1.0665114e+40)
(-2.8104134e+41 -1.0607871e+40 -1.0192206e+40)
(-2.8223719e+41 -1.0770381e+40 -1.0752289e+40)
(-2.890965e+41 -1.0354817e+40 -1.1292958e+40)
(-2.8937405e+41 -1.1442249e+40 -8.9038879e+39)
(-2.8603346e+41 -1.0662577e+40 -1.075331e+40)
(-2.7947693e+41 -1.1254424e+40 -1.0029234e+40)
(-2.8192398e+41 -1.178743e+40 -9.3082823e+39)
(-3.0036144e+41 -6.4373219e+39 -2.0552506e+40)
(-3.0034115e+41 -3.0191834e+39 -2.3296578e+40)
(-3.0126786e+41 -4.1574654e+39 -2.5164438e+40)
(-3.0093219e+41 -5.5578806e+39 -2.0417002e+40)
(-3.0299262e+41 -4.3866153e+39 -2.4925746e+40)
(-3.0403996e+41 -2.9669082e+39 -2.2300907e+40)
(-3.0447898e+41 -5.7726306e+39 -1.9634867e+40)
(-3.0184524e+41 -6.5601849e+39 -2.1578371e+40)
(-2.9720818e+41 2.378912e+39 -1.6006872e+40)
(-3.0129274e+41 -8.4831237e+38 -1.646179e+40)
(-3.0618813e+41 -3.7671445e+38 -1.9899627e+40)
(-3.0374931e+41 -1.4443742e+39 -2.2371071e+40)
(-3.0145163e+41 5.6458475e+38 -1.5316614e+40)
(-3.0218925e+41 -8.7288189e+38 -1.3815126e+40)