/*--------------------------------*- C++ -*----------------------------------*\
  =========                 |
  \\      /  F ield         | OpenFOAM: The Open Source CFD Toolbox
   \\    /   O peration     | Website:  https://openfoam.org
    \\  /    A nd           | Version:  7
     \\/     M anipulation  |
\*---------------------------------------------------------------------------*/
FoamFile
{
    version     2.0;
    format      ascii;
    class       volScalarField;
    location    "2000";
    object      k;
}
// * * * * * * * * * * * * * * * * * * * * * * * * * * * * * * * * * * * * * //

dimensions      [0 2 -2 0 0 0 0];

internalField   nonuniform List<scalar> 
33730
(
1.5191604
1.5212159
1.5169946
1.5179464
1.5194907
1.5179399
1.5209349
1.5194727
1.5210968
1.5188804
1.5188734
1.5226842
1.5167223
1.516357
1.516368
1.5166952
1.5182718
1.5174828
1.5178887
1.5170622
1.518176
1.5174135
1.5170541
1.5181372
1.5200597
1.5178776
1.5205804
1.521354
1.5216717
1.5213123
1.5227764
1.51886
1.5182932
1.5221905
1.5220148
1.5221593
1.5223515
1.5188544
1.5182869
1.5179158
1.5175773
1.5178592
1.5175687
1.5210239
1.5213829
1.5161623
1.5165672
1.5169274
1.5167103
1.5173859
1.5161738
1.5164492
1.5163226
1.5160297
1.517371
1.5160957
1.5163271
1.5159564
1.5161201
1.5166351
1.5161961
1.5160594
1.5167698
1.5211261
1.518269
1.5183049
1.516934
1.5173594
1.5174054
1.5176815
1.516737
1.5171366
1.5167583
1.5171578
1.5172064
1.5193573
1.5175665
1.5168894
1.5173595
1.5167486
1.516738
1.5171531
1.5171377
1.520186
1.5198023
1.5205328
1.5199629
1.5201446
1.5209275
1.5208378
1.5207829
1.5213791
1.5211224
1.52146
1.5208026
1.5214187
1.5211284
1.5235965
1.5233974
1.5233515
1.5235401
1.5211168
1.5178977
1.5176
1.5175962
1.5172645
1.5174183
1.517144
1.5173144
1.5175691
1.5182964
1.5182848
1.5172647
1.517555
1.5178485
1.5175966
1.5173087
1.5171413
1.5174423
1.5175948
1.5191289
1.5190581
1.5190774
1.5190328
1.5194285
1.5191367
1.5191613
1.5191047
1.517588
1.5172549
1.517008
1.5170318
1.5174408
1.5199936
1.5172063
1.5170113
1.5170252
1.5203899
1.5205971
1.5206688
1.5211588
1.5168955
1.516544
1.516098
1.5164523
1.5168613
1.5166207
1.5171793
1.5176702
1.5174967
1.5169552
1.5161211
1.5163916
1.516247
1.5159836
1.5170482
1.5168221
1.5175505
1.5172635
1.5160287
1.5161005
1.5160943
1.515983
1.5161126
1.5159684
1.5161854
1.5164382
1.5159442
1.5159421
1.5159268
1.5159213
1.515917
1.5159232
1.5161175
1.5161164
1.51645
1.5167223
1.5167556
1.5163054
1.515972
1.5160212
1.5161821
1.5161436
1.5160608
1.5160267
1.5160325
1.5159876
1.5162406
1.5167818
1.5163525
1.5169043
1.5214451
1.5209634
1.5215457
1.5210571
1.5181066
1.5185054
1.518107
1.5174461
1.5179575
1.5172604
1.5184403
1.5177686
1.5166815
1.5170077
1.5167298
1.5170428
1.5169508
1.5173479
1.5175374
1.5173179
1.5165468
1.5165455
1.5168187
1.5168206
1.5165536
1.5168361
1.5165746
1.5168478
1.5188151
1.5171018
1.5168424
1.5173337
1.5171968
1.5192205
1.5197263
1.5194334
1.5166802
1.5170016
1.5166389
1.516972
1.5165546
1.516542
1.5168313
1.5168372
1.516546
1.5165499
1.5168245
1.5168276
1.5194278
1.519364
1.5200331
1.519996
1.5195501
1.5195039
1.520185
1.5201561
1.5207583
1.5202518
1.5196272
1.519885
1.5203389
1.5209398
1.5209128
1.5208906
1.5209782
1.5210019
1.5199486
1.5198698
1.5202413
1.5202959
1.5208876
1.5206262
1.5206859
1.5204379
1.5205104
1.521161
1.5209545
1.5205502
1.5204729
1.5204911
1.5204111
1.5211515
1.520411
1.5198573
1.520252
1.5200663
1.5174465
1.5170873
1.5172724
1.5175735
1.5168718
1.5168478
1.5170199
1.517042
1.5173778
1.5170122
1.5171102
1.5174342
1.5168664
1.5168151
1.5167905
1.516889
1.51715
1.5171855
1.5168747
1.5169355
1.517426
1.5167392
1.5167813
1.5167685
1.5167246
1.5171821
1.5167396
1.5167538
1.5168336
1.5168226
1.5168991
1.5171691
1.5172315
1.5169949
1.5172533
1.5169866
1.5171775
1.5174339
1.516883
1.516809
1.5168722
1.5167963
1.516962
1.5172186
1.5172835
1.5170601
1.517036
1.5172825
1.5174301
1.517222
1.5170346
1.5168667
1.5168539
1.5170235
1.5168153
1.5167566
1.516734
1.5168384
1.5167827
1.516762
1.5167203
1.5167406
1.5169112
1.5169739
1.5172608
1.5172974
1.5173029
1.516944
1.5170402
1.517368
1.5188249
1.5188625
1.5190591
1.5190697
1.5188283
1.5188474
1.5190689
1.5190626
1.5188312
1.5188524
1.5190797
1.519074
1.5188553
1.519084
1.5188557
1.5190465
1.5190981
1.5192655
1.519288
1.519275
1.5189822
1.5192373
1.5188712
1.5189136
1.519082
1.5188481
1.5188946
1.519068
1.5190856
1.51884
1.5188711
1.5190663
1.5190711
1.5175076
1.5172371
1.5169368
1.5169767
1.5167582
1.5167598
1.5167743
1.5167885
1.5172705
1.5171142
1.5193025
1.5196481
1.5169312
1.5168986
1.5167667
1.5167641
1.5167752
1.5167689
1.5198831
1.5199235
1.5200619
1.5200284
1.5201223
1.5202313
1.5208037
1.5208644
1.520919
1.517869
1.518567
1.516811
1.5164891
1.5160538
1.5159999
1.5160357
1.5164596
1.516811
1.5165485
1.5163796
1.5167029
1.5171259
1.5176176
1.5174241
1.5169129
1.516081
1.5160813
1.5159982
1.5163782
1.5162499
1.5159511
1.5159234
1.5159268
1.5170398
1.517042
1.5170096
1.5170215
1.5168684
1.5167748
1.5169025
1.5167399
1.5177277
1.5170867
1.5170501
1.5176659
1.5167558
1.5175976
1.5169618
1.5172949
1.5160817
1.5159719
1.5161637
1.5160375
1.5160479
1.5161217
1.5159653
1.5159471
1.5159547
1.5159656
1.5159938
1.5159666
1.5162106
1.5161661
1.5162389
1.516594
1.516069
1.516321
1.5159206
1.5159146
1.5159124
1.5159134
1.5159097
1.5159089
1.5159146
1.5159208
1.5159123
1.5159217
1.5159374
1.5159316
1.5161175
1.5161316
1.5159423
1.5161245
1.5161273
1.5159357
1.516718
1.5162691
1.5159661
1.5159716
1.5159575
1.5159661
1.5159996
1.5160184
1.515986
1.516015
1.5159996
1.5161577
1.5160297
1.516179
1.5159714
1.5161436
1.5159827
1.5161476
1.5160191
1.5159791
1.5161957
1.5162402
1.5161445
1.5162126
1.516586
1.5168576
1.5164865
1.5169254
1.516132
1.5162576
1.5162099
1.5163179
1.516449
1.5169615
1.5165158
1.5170358
1.5214433
1.5214065
1.5216285
1.5207938
1.5211707
1.5214392
1.5207553
1.5216916
1.5216151
1.5215294
1.5207806
1.5214932
1.5208604
1.5179979
1.5184306
1.5179719
1.5173611
1.5176828
1.5179712
1.5179916
1.5175365
1.5172476
1.5172245
1.5172042
1.5171664
1.518104
1.5187512
1.5175203
1.518095
1.5172025
1.5179133
1.5172702
1.5178278
1.5163946
1.516387
1.5168318
1.5168385
1.5168722
1.5164158
1.5164536
1.5168916
1.5166696
1.5165719
1.5171011
1.5171339
1.5173248
1.5169546
1.5173797
1.5175173
1.5162895
1.5162954
1.51668
1.5166797
1.5162844
1.5162895
1.516681
1.5166809
1.5162883
1.5162909
1.5166908
1.5166915
1.5163025
1.516327
1.5167046
1.5167144
1.5186575
1.5183345
1.5189158
1.5191304
1.5167109
1.5169091
1.5172562
1.5171869
1.516525
1.5164712
1.5170274
1.5170053
1.5189014
1.5188428
1.5194055
1.5194415
1.5163579
1.5163858
1.5168431
1.5168334
1.5163315
1.516339
1.516805
1.5167949
1.5162741
1.5162923
1.5166973
1.5166926
1.5162686
1.5162645
1.5166873
1.5166862
1.5162776
1.5166878
1.5166873
1.5162726
1.516283
1.5162959
1.516688
1.516687
1.5190438
1.5190036
1.5196367
1.5196487
1.5189795
1.5189497
1.5195782
1.5196059
1.519156
1.5191272
1.5197655
1.5197578
1.5197336
1.5191078
1.5190775
1.5197103
1.5208944
1.5206603
1.5206812
1.5207847
1.5192511
1.5192041
1.5198402
1.5198145
1.5200611
1.5197515
1.5194131
1.5199543
1.520854
1.5209822
1.520973
1.5208465
1.5210521
1.5209129
1.5210371
1.5209034
1.5191535
1.519552
1.5195795
1.5192275
1.5196057
1.5192046
1.5195995
1.5192386
1.5199586
1.5198118
1.5197818
1.5198295
1.519802
1.5202749
1.5198192
1.5197414
1.5197745
1.5197899
1.5198704
1.5201849
1.5198959
1.5199321
1.5200505
1.5200791
1.5199887
1.5201081
1.5208099
1.5201419
1.5202385
1.5198607
1.5198965
1.5199655
1.5199347
1.5207105
1.5199477
1.5200252
1.5200652
1.5201294
1.5207711
1.5208632
1.5207675
1.520719
1.5206705
1.5207182
1.5209525
1.5201017
1.5199373
1.5200494
1.5200005
1.5199986
1.5200949
1.5200721
1.5199703
1.520504
1.5199459
1.5198559
1.5198898
1.519916
1.5199192
1.5199477
1.5199257
1.5198945
1.5204538
1.5204047
1.5203538
1.5209195
1.5204124
1.5203721
1.5197676
1.5198065
1.5199352
1.5199027
1.5192355
1.5195404
1.5191536
1.5195712
1.5198347
1.5197378
1.5197733
1.5198031
1.5196571
1.5191783
1.5195475
1.5193485
1.5170982
1.5174237
1.5171686
1.5174415
1.5168012
1.5168576
1.5168429
1.516894
1.5168481
1.5169482
1.5168889
1.5169833
1.5171547
1.517253
1.5174529
1.5174973
1.516654
1.5166678
1.5166992
1.5167112
1.5166815
1.5166368
1.5166395
1.5166837
1.5166779
1.5166799
1.5167629
1.5167649
1.5166947
1.5167086
1.5167802
1.516792
1.5170007
1.5173547
1.5170602
1.5173736
1.5167188
1.5167583
1.5167616
1.5167982
1.5167478
1.5168129
1.5167889
1.5168503
1.5170426
1.5173863
1.5171141
1.5174115
1.5165914
1.5166428
1.5165945
1.516646
1.5165832
1.5165973
1.5166186
1.516631
1.5165653
1.5165996
1.5165687
1.5166031
1.5166092
1.5166232
1.5166611
1.5166733
1.5170065
1.5168265
1.5171587
1.5168349
1.5170389
1.5169703
1.5167819
1.5169845
1.5168215
1.5166551
1.5166235
1.5169099
1.5166309
1.5166667
1.5166235
1.5165904
1.5166552
1.5166258
1.517104
1.5168387
1.5165403
1.5165383
1.5167665
1.5165454
1.5165486
1.5165136
1.51654
1.5165107
1.5165382
1.5165087
1.5165358
1.5165073
1.5165345
1.516535
1.5165339
1.5167539
1.5165411
1.5165431
1.5166945
1.5167105
1.5165183
1.5165167
1.5165446
1.516543
1.5165221
1.5165487
1.5165193
1.5165465
1.5165361
1.5165811
1.5165328
1.5165788
1.5165323
1.5165776
1.5165305
1.5165757
1.5166341
1.5166654
1.5166022
1.5166364
1.5169654
1.5169905
1.5167901
1.5168345
1.5169815
1.5170246
1.516811
1.5168727
1.516651
1.5167043
1.516619
1.516675
1.5171097
1.5170909
1.5168405
1.5168728
1.5167228
1.516737
1.5167235
1.5167228
1.5166944
1.5167484
1.5167108
1.5167665
1.5171939
1.5168656
1.516939
1.5172499
1.5165996
1.5165956
1.5166535
1.5166502
1.5165703
1.5165669
1.5166076
1.5166048
1.5165957
1.5166492
1.5165934
1.516647
1.5165649
1.5165669
1.5166036
1.5166016
1.5166917
1.516735
1.5166591
1.5167053
1.5170209
1.5170604
1.5168525
1.5169089
1.517062
1.5171151
1.5168932
1.5169659
1.516726
1.5167907
1.5166927
1.5167608
1.5167844
1.5167508
1.51684
1.5168106
1.5171215
1.5169548
1.5171693
1.5170249
1.5171801
1.5170186
1.5172576
1.5171208
1.5168378
1.5168047
1.5169346
1.5169064
1.5166933
1.5167784
1.5166877
1.5167739
1.516648
1.5166954
1.5166434
1.5166913
1.5166435
1.5166409
1.5166893
1.5166869
1.5166863
1.5167708
1.5166837
1.5167685
1.5165334
1.5165756
1.5165366
1.5165793
1.5165389
1.5165533
1.5165633
1.5165761
1.5165217
1.516545
1.5165251
1.5165486
1.516551
1.5165653
1.5165943
1.5166069
1.5165304
1.5165557
1.5165451
1.5165687
1.5165138
1.516538
1.5165171
1.5165418
1.5165375
1.5165411
1.5165448
1.5165473
1.5165544
1.5165676
1.5165739
1.5165604
1.5166819
1.5167146
1.5167184
1.5166839
1.5166543
1.5166882
1.5166896
1.5167208
1.5169504
1.5172772
1.517285
1.5169457
1.5169147
1.516957
1.517276
1.5172843
1.5169305
1.5169777
1.5172898
1.5173028
1.5166676
1.5166985
1.5167031
1.5167318
1.516682
1.5167343
1.5167192
1.5167694
1.5169569
1.5170199
1.517315
1.5173411
1.5187415
1.5186227
1.5186443
1.5187239
1.5186252
1.5186561
1.5187615
1.5187392
1.5190113
1.5190192
1.5189861
1.518995
1.5189888
1.5190007
1.5190174
1.5190272
1.5187039
1.5186099
1.5186345
1.5186813
1.5186149
1.518643
1.518726
1.5186998
1.5190077
1.5189816
1.5189915
1.5189984
1.5189834
1.5189933
1.519004
1.5190136
1.5186689
1.5185899
1.5186187
1.5186399
1.5185984
1.518631
1.5186896
1.5186602
1.5190013
1.5189807
1.5189911
1.5189916
1.5189806
1.5189913
1.5189938
1.5190044
1.5185911
1.5186126
1.5186144
1.5186486
1.5189934
1.5190005
1.5189888
1.5189933
1.5186255
1.518864
1.5188313
1.5190892
1.5190906
1.5190063
1.51908
1.5190815
1.5191038
1.5191056
1.5192728
1.5192607
1.5192928
1.5193001
1.5190938
1.5188357
1.5188119
1.5190797
1.5190757
1.5192503
1.5192372
1.5192728
1.5192804
1.5187264
1.5187546
1.5187404
1.518811
1.5186887
1.5187176
1.5187994
1.5187034
1.5187417
1.518828
1.5188066
1.5190553
1.5190183
1.5190295
1.5190489
1.518787
1.518654
1.5186798
1.5187769
1.5186647
1.5187035
1.5188038
1.5187825
1.5190354
1.5190412
1.5190033
1.5190127
1.519008
1.5190226
1.5190398
1.5190499
1.5187705
1.5186374
1.5186608
1.5187582
1.5186419
1.5186728
1.5187826
1.5187656
1.5190324
1.518995
1.5190046
1.5190256
1.5189986
1.5190092
1.5190303
1.5190375
1.5173484
1.5175125
1.5170674
1.5171047
1.5168017
1.5168086
1.5168406
1.5168643
1.5166543
1.5166532
1.5166555
1.5166546
1.5166646
1.516665
1.5166899
1.5166772
1.5188145
1.5172282
1.5171531
1.5169706
1.5169937
1.5190722
1.5193709
1.5193303
1.5168122
1.5168014
1.5167736
1.5167638
1.5166618
1.5166611
1.516662
1.5166621
1.5166704
1.5166649
1.5166601
1.51666
1.5195215
1.5194895
1.5195618
1.5195467
1.5196736
1.519664
1.519642
1.5196147
1.5197496
1.5197187
1.5199959
1.5206477
1.5198626
1.5207759
1.5208377
1.520846
1.5209055
1.5208956
1.5213323
1.5209712
1.5178783
1.518479
1.5163556
1.5167458
1.5161816
1.5163283
1.5160298
1.5160015
1.5160162
1.5159787
1.5160107
1.5166649
1.5163818
1.5164859
1.5163068
1.5166613
1.5170863
1.5169954
1.5170182
1.5176281
1.5174644
1.5168845
1.5168614
1.51675
1.5160016
1.5160741
1.5160499
1.516062
1.5159733
1.5159257
1.5159225
1.5159253
1.5159084
1.5159129
1.5170362
1.5170083
1.5169099
1.5167465
1.5172137
1.5178591
1.5171903
1.5178102
1.5170684
1.5170795
1.5171237
1.5171051
1.517039
1.5170479
1.5170881
1.5170733
1.5171741
1.5171497
1.5177908
1.5177601
1.5168216
1.5167153
1.5167105
1.5168883
1.5170818
1.5177037
1.5171156
1.5177665
1.516951
1.5169669
1.5170186
1.5169937
1.5169862
1.5167583
1.5176006
1.5172889
1.5160434
1.5160897
1.5160275
1.5161083
1.5160292
1.5161367
1.5159685
1.5159761
1.5159615
1.5159495
1.5159446
1.5159594
1.5161738
1.5161333
1.5161373
1.5162126
1.5160423
1.5160347
1.5160234
1.5160211
1.5159673
1.5159628
1.5159587
1.5159599
1.5159479
1.5159455
1.515942
1.5159414
1.5159798
1.515972
1.5159624
1.5159676
1.5159564
1.5159511
1.5159426
1.5159457
1.5161729
1.5160456
1.5160236
1.5161437
1.5159949
1.5160112
1.5161276
1.5161124
1.5162413
1.5161434
1.5162771
1.516155
1.5166683
1.5164276
1.5162625
1.51646
1.5160625
1.5160498
1.5160219
1.5160259
1.5160866
1.5161471
1.5162991
1.516225
1.5159221
1.5159169
1.5159109
1.5159195
1.5159088
1.5159182
1.5159121
1.5159141
1.5159066
1.5159094
1.515909
1.5159053
1.5159147
1.5159115
1.5159095
1.5159112
1.5159062
1.5159063
1.5159081
1.5159082
1.5159099
1.5159089
1.5159096
1.515911
1.5159174
1.5159175
1.5159232
1.5159207
1.5159241
1.5159182
1.5159138
1.5159185
1.5159107
1.5159107
1.5159155
1.5159157
1.5159646
1.5160695
1.5160682
1.5159636
1.5160955
1.5159807
1.5159696
1.5160788
1.5159189
1.5159258
1.5159303
1.5159227
1.5159655
1.5159668
1.516073
1.5160746
1.5160796
1.5159721
1.5159764
1.5160881
1.5159133
1.5159119
1.5159182
1.5159165
1.5167978
1.5166002
1.5165141
1.516864
1.516483
1.5168902
1.5162984
1.5162623
1.5161801
1.516234
1.5161492
1.5162087
1.5159578
1.5159651
1.5159561
1.515954
1.5159511
1.5159549
1.5159605
1.5159624
1.5159639
1.5159632
1.5159843
1.5160102
1.5159814
1.5159795
1.5159757
1.515979
1.5159972
1.5160038
1.5160135
1.5160144
1.515979
1.5159748
1.515976
1.5159812
1.5161011
1.516012
1.5160163
1.5161028
1.5159954
1.5159947
1.5160158
1.5160193
1.5160518
1.5160301
1.516116
1.5161361
1.5159552
1.5159504
1.5159512
1.5159575
1.5160965
1.5159934
1.5159991
1.5160982
1.5159629
1.5159605
1.5159639
1.5159666
1.5160037
1.5160031
1.5160973
1.516097
1.5160253
1.5160097
1.5159919
1.5160157
1.5159837
1.5159788
1.5159718
1.5159652
1.5161367
1.5161285
1.5161089
1.5161227
1.5161645
1.5161874
1.5162064
1.5161978
1.5163818
1.516433
1.5164712
1.5164487
1.5169778
1.5168344
1.5167675
1.5170313
1.5161151
1.5160978
1.5160884
1.5161096
1.5161802
1.5161048
1.5161257
1.516196
1.5161424
1.5161518
1.5161927
1.5161895
1.5161986
1.5161543
1.5162186
1.5162529
1.5163248
1.5163514
1.5164356
1.5164268
1.5166963
1.5167269
1.5170588
1.5170849
1.516343
1.5163048
1.5164243
1.5164576
1.5171191
1.5166911
1.5167332
1.5171577
1.5214929
1.5214512
1.5216639
1.5208144
1.5212573
1.5214909
1.5208181
1.5216883
1.5216984
1.5217357
1.5217191
1.5217657
1.5217475
1.5216057
1.521588
1.5215545
1.5215093
1.521552
1.5216145
1.5209845
1.5206303
1.5205835
1.5211779
1.5216586
1.5215891
1.5215221
1.5214704
1.5212942
1.5205879
1.5212869
1.5206793
1.517905
1.5175912
1.5179281
1.5183931
1.5179865
1.5172979
1.5171635
1.5172094
1.5179481
1.5175031
1.5172143
1.517161
1.5178459
1.5181238
1.5183171
1.5178352
1.5185363
1.5179204
1.5191776
1.5184913
1.5174662
1.5175096
1.5175376
1.5174645
1.5176277
1.5182069
1.5175295
1.5180985
1.5172033
1.5171846
1.5172486
1.5172171
1.5174057
1.5180303
1.51737
1.5179794
1.5172405
1.5172583
1.5173067
1.5172783
1.5173397
1.5172937
1.5179503
1.5178969
1.5163548
1.516347
1.5163749
1.5164155
1.5166288
1.5165263
1.51731
1.5169179
1.5162522
1.5162589
1.5162474
1.5162536
1.5162519
1.5162547
1.5162657
1.5162921
1.5189843
1.5181491
1.5180639
1.5189533
1.5176527
1.5178794
1.5187244
1.5185943
1.5166587
1.5168574
1.5164735
1.5164217
1.5192462
1.5183044
1.5182665
1.5192378
1.5182315
1.5182208
1.519204
1.5191813
1.5163147
1.5163413
1.5162897
1.5162958
1.5162362
1.5162531
1.5162317
1.5162269
1.5162399
1.516235
1.5162456
1.5162592
1.5183649
1.5184117
1.5194095
1.5194032
1.5183208
1.5183246
1.5193865
1.5193791
1.5183157
1.5182938
1.5193606
1.5193539
1.5193305
1.5182887
1.5182922
1.5193192
1.5185234
1.5184894
1.519513
1.5195087
1.519499
1.5184614
1.518454
1.519492
1.5184308
1.5184593
1.5194788
1.5194714
1.5184188
1.5184215
1.5194503
1.5194434
1.5210183
1.5208367
1.5209886
1.52082
1.5208564
1.5205429
1.5206963
1.5205711
1.5185914
1.518645
1.5195974
1.5195868
1.5185612
1.5185646
1.5195588
1.5195526
1.5192197
1.5195658
1.5199439
1.5198896
1.5187632
1.5188831
1.5197324
1.5197086
1.5210992
1.5210979
1.5209043
1.5209068
1.5210965
1.521083
1.5209001
1.5208954
1.5209721
1.5211748
1.5211807
1.5209704
1.5211679
1.5211532
1.5209563
1.5209609
1.5188303
1.5184865
1.5188505
1.5185452
1.5190923
1.5191306
1.5190494
1.5190929
1.5190925
1.519153
1.5190493
1.5191152
1.5188201
1.5188707
1.5184864
1.518575
1.5192148
1.5191776
1.5196434
1.5192847
1.5192438
1.5189425
1.5186133
1.5192838
1.5190211
1.5186627
1.5191292
1.5191464
1.5190869
1.5191094
1.5188684
1.5185125
1.5188756
1.5185605
1.519625
1.5192395
1.519337
1.5193203
1.5198554
1.5194027
1.519384
1.519316
1.5192763
1.5198315
1.5193835
1.5193399
1.5192434
1.5192751
1.5192232
1.5192586
1.5192229
1.5192532
1.5191804
1.5192145
1.5198188
1.5197945
1.5192205
1.5192965
1.5192011
1.5192815
1.5191918
1.5192397
1.5191497
1.5192012
1.519214
1.519264
1.5191941
1.519248
1.5191954
1.5192701
1.5191532
1.519232
1.5193267
1.519675
1.5196627
1.5193263
1.5198593
1.5198511
1.5198309
1.5198401
1.5194572
1.5194192
1.5195447
1.519514
1.5194869
1.5194761
1.5195755
1.5195676
1.519532
1.5194991
1.5196551
1.5196297
1.5195636
1.5195534
1.5196854
1.5196786
1.5195632
1.5195242
1.5196501
1.5196183
1.519671
1.5198394
1.5199029
1.5197635
1.520607
1.5207512
1.5207717
1.5206535
1.5196395
1.5196042
1.5197606
1.5197332
1.5197531
1.5199048
1.5199937
1.5198731
1.5193425
1.5194125
1.519299
1.5193745
1.5193685
1.5194397
1.5193569
1.5194315
1.5194115
1.5194005
1.5195057
1.5194982
1.5193832
1.5193419
1.5194776
1.5194428
1.5205926
1.5207381
1.5207427
1.5206128
1.5194422
1.5195132
1.5194005
1.5194768
1.5194867
1.5194459
1.5195812
1.5195468
1.5197223
1.5197785
1.5195379
1.5196167
1.5195902
1.5197693
1.5198417
1.5196888
1.5208118
1.5208057
1.5207977
1.5208042
1.5208226
1.5208403
1.5208142
1.5208333
1.5207908
1.5207675
1.5207754
1.5207836
1.5207398
1.5207517
1.5205706
1.5206919
1.5207
1.5206731
1.5205828
1.5205772
1.5207265
1.5207126
1.520599
1.520612
1.5196749
1.5197383
1.5194863
1.5195723
1.5193856
1.5193452
1.5194376
1.5194013
1.5196573
1.5196992
1.5194697
1.5195299
1.519396
1.5194759
1.5193547
1.5194394
1.5194069
1.519444
1.5193677
1.5194087
1.5196685
1.5196966
1.5194869
1.5195304
1.5197367
1.5195801
1.5197871
1.5201101
1.5196338
1.519497
1.5194627
1.520023
1.5195211
1.5195577
1.5200705
1.5199797
1.5193252
1.5193127
1.5194037
1.5193952
1.5192949
1.5192505
1.5193449
1.5193048
1.519318
1.5193685
1.5193056
1.5193596
1.5193005
1.5192563
1.519379
1.5193397
1.5193218
1.5193559
1.5192779
1.519316
1.519343
1.5193775
1.5193309
1.519369
1.5194342
1.5194259
1.5199744
1.519496
1.5194855
1.5194144
1.5193748
1.5199486
1.519478
1.5194359
1.5199352
1.5199074
1.5201057
1.5200936
1.5200195
1.5200297
1.5199515
1.519975
1.5199816
1.5199586
1.5208611
1.5208908
1.5208991
1.5208721
1.5206057
1.5201247
1.5201098
1.520053
1.5200636
1.5200189
1.5200134
1.5199952
1.5199993
1.5198889
1.5198721
1.519345
1.5193061
1.5194298
1.5193971
1.5193797
1.5194669
1.5193624
1.5194531
1.5194564
1.5195717
1.5194403
1.5195595
1.5194182
1.5193827
1.5195331
1.5195041
1.518938
1.5186655
1.5185561
1.5188716
1.5191235
1.5190804
1.5191813
1.5191433
1.5185227
1.5188471
1.518887
1.518601
1.5191593
1.5192312
1.519194
1.5191161
1.5193048
1.519397
1.5192873
1.5193831
1.5192341
1.5191924
1.519302
1.5192648
1.5192615
1.5193315
1.5192437
1.5193173
1.5192736
1.519233
1.5193642
1.5193288
1.5192831
1.5193754
1.5192413
1.5193409
1.5189296
1.5186312
1.5189822
1.5187313
1.5192182
1.5192879
1.5191758
1.5192516
1.5189808
1.5187037
1.5190733
1.518844
1.5169287
1.5169639
1.5170047
1.5169773
1.5174572
1.5172595
1.5172912
1.5174605
1.5170444
1.51696
1.5170072
1.5170046
1.5174701
1.5174738
1.517283
1.5173159
1.5167111
1.516675
1.5167039
1.5166833
1.5167037
1.5167407
1.5167478
1.5167118
1.5167646
1.5167158
1.5167452
1.5167385
1.516745
1.5167815
1.516767
1.5168002
1.5167737
1.5167403
1.5167667
1.5167484
1.5168094
1.5167661
1.5167741
1.5168158
1.5168029
1.5168268
1.5167813
1.5168083
1.5168491
1.5168078
1.5168295
1.5168687
1.5170032
1.5170367
1.5170708
1.5170443
1.5170808
1.517032
1.5170701
1.5171131
1.5173079
1.5174834
1.5173382
1.5174856
1.5173639
1.5174953
1.5175058
1.5173299
1.516552
1.5165767
1.5165777
1.5165531
1.5165747
1.5165643
1.5165894
1.5165981
1.5165779
1.5166087
1.5166098
1.5165789
1.5166003
1.5165902
1.5166212
1.5166298
1.516566
1.516596
1.5165968
1.5165667
1.5165647
1.5165393
1.5165638
1.5165404
1.5165431
1.5165672
1.5165663
1.5165421
1.5165689
1.5165989
1.5165981
1.516568
1.5165978
1.5166198
1.5166205
1.5165985
1.5166007
1.5166225
1.5166221
1.5166
1.5166579
1.5166214
1.5166579
1.516622
1.5166241
1.5166593
1.5166599
1.5166239
1.5166101
1.5166325
1.5166338
1.5166114
1.5166325
1.5166224
1.5166456
1.5166542
1.5166337
1.5166698
1.5166707
1.5166351
1.5166569
1.5166466
1.5166827
1.5166927
1.5168032
1.5168345
1.5168841
1.5168585
1.5173848
1.5171744
1.5172029
1.5173931
1.5168255
1.5168663
1.5169151
1.5168808
1.5174046
1.5171926
1.5172223
1.5174116
1.5165713
1.5165948
1.5166026
1.5165798
1.5166112
1.5166358
1.5166545
1.5166319
1.5165886
1.5166188
1.5166271
1.5165977
1.5166299
1.5166602
1.5166795
1.5166515
1.516646
1.5166137
1.516638
1.5166229
1.5166353
1.5166746
1.5166821
1.516644
1.5167
1.5166551
1.5166799
1.5166774
1.5166769
1.5167158
1.5167001
1.5167357
1.5168581
1.5168902
1.5169375
1.5169122
1.5174227
1.5172123
1.5172416
1.5174286
1.5169325
1.5169769
1.5168843
1.5169364
1.5174402
1.517233
1.5172679
1.517447
1.5165062
1.5164831
1.5165042
1.5164855
1.5165037
1.5165366
1.5165381
1.5165054
1.516488
1.5165087
1.5164891
1.5165097
1.5165087
1.5165411
1.5165078
1.5165401
1.5164585
1.5164794
1.5164815
1.5164607
1.5164735
1.5164942
1.5165023
1.5164826
1.516503
1.5164749
1.516501
1.5164772
1.5165237
1.5164893
1.5165151
1.516499
1.516467
1.5164439
1.5164643
1.5164468
1.5164604
1.5164857
1.5164883
1.5164631
1.5164693
1.5164505
1.5164708
1.5164488
1.5164668
1.5164921
1.5164655
1.5164908
1.5164976
1.5165189
1.5165204
1.5164996
1.5165112
1.5165324
1.5165214
1.5165416
1.5165507
1.5165516
1.5165175
1.5165188
1.5165413
1.5165305
1.5165633
1.5165723
1.5164951
1.5164853
1.5165939
1.5165772
1.5163799
1.5163734
1.5162775
1.5162756
1.5170555
1.51704
1.5168147
1.5168609
1.5162739
1.5164843
1.5165998
1.5166768
1.5166503
1.5165748
1.5163802
1.5164599
1.5164487
1.5163712
1.5167121
1.516681
1.516745
1.5166473
1.5164443
1.5165289
1.5164579
1.5165142
1.5162342
1.5162335
1.5163099
1.5163083
1.5162882
1.5162843
1.5162144
1.5162136
1.5166164
1.5166526
1.5166851
1.5166521
1.5162124
1.5162318
1.5163104
1.5163707
1.5163675
1.5163075
1.5162883
1.5163463
1.5163396
1.5162832
1.5164236
1.5163691
1.5163646
1.5164192
1.5163362
1.5163886
1.5163442
1.5163973
1.517047
1.5170365
1.5168341
1.5167977
1.5166148
1.5166501
1.5166676
1.5166345
1.5161864
1.5161861
1.5162482
1.5162475
1.5162453
1.5162431
1.5161806
1.5161805
1.5165317
1.5165368
1.5165647
1.5165617
1.516179
1.5161845
1.5162484
1.5162471
1.5162966
1.5162982
1.5162966
1.5163418
1.5163399
1.5162944
1.5162927
1.5162452
1.5162963
1.5162427
1.5162943
1.5163405
1.5162904
1.5163362
1.5162441
1.5162436
1.5162951
1.5162942
1.516292
1.5163397
1.5163384
1.5162932
1.5162523
1.5162519
1.5163004
1.5163019
1.5162998
1.5162984
1.5163451
1.516343
1.5161802
1.5161804
1.516244
1.5162437
1.5162528
1.516252
1.51619
1.516191
1.5165281
1.5165578
1.5165563
1.5165265
1.5161889
1.5161787
1.5165216
1.5165232
1.516539
1.5165402
1.5165281
1.5165347
1.5165504
1.5165456
1.5163371
1.5163699
1.5163688
1.5163357
1.5163404
1.5163424
1.5163744
1.5163721
1.5163987
1.5163666
1.5163991
1.5163656
1.5163692
1.516401
1.5163712
1.5164031
1.5163693
1.5163393
1.5163712
1.5163369
1.516368
1.5163999
1.5163984
1.5163658
1.5163658
1.5163375
1.51637
1.5163331
1.5163664
1.5163988
1.5163622
1.516395
1.5164186
1.5163966
1.51642
1.5163949
1.5164463
1.5164164
1.5164147
1.5164447
1.5163915
1.5164153
1.5163952
1.5164186
1.5164448
1.5164147
1.5164115
1.5164418
1.5163959
1.5164197
1.5164198
1.5163957
1.5164463
1.5164162
1.5164165
1.5164467
1.5164
1.5163983
1.5164232
1.5164216
1.5164495
1.5164185
1.516448
1.5164199
1.5164545
1.516421
1.5164595
1.5164155
1.5164561
1.5164942
1.5164891
1.5164502
1.516394
1.5163842
1.5164311
1.5164213
1.5164269
1.5164162
1.5164646
1.5164543
1.5167491
1.5167085
1.5167952
1.5167547
1.5167494
1.5167923
1.5167993
1.5168414
1.5165574
1.5165254
1.5165746
1.5165083
1.5165703
1.5165506
1.5166194
1.5166002
1.5168461
1.5167865
1.5168774
1.5168193
1.5168133
1.5168518
1.5168823
1.5169172
1.516593
1.5166288
1.5166148
1.5166497
1.5166448
1.5166212
1.5166877
1.5166656
1.5165133
1.5164909
1.5165188
1.5164849
1.5165503
1.5165149
1.5165086
1.5165443
1.5164492
1.5164768
1.5164603
1.5164873
1.5165178
1.5164826
1.5164713
1.516507
1.5170408
1.5170263
1.5168195
1.5167837
1.5170292
1.5170166
1.5167787
1.5168079
1.5166658
1.5166559
1.5166264
1.5166374
1.5166142
1.5166464
1.5166677
1.5166362
1.5165339
1.5165421
1.5165517
1.5165448
1.5165391
1.5165249
1.5165327
1.5165505
1.5165446
1.5165382
1.51652
1.5165178
1.5165372
1.5165202
1.5165189
1.5165387
1.5165404
1.5165498
1.5165625
1.5165273
1.516526
1.5165432
1.5165449
1.5165328
1.5165589
1.5165614
1.5165343
1.5165558
1.5165376
1.5165512
1.5165683
1.5165597
1.5165459
1.5165739
1.5165862
1.5172433
1.5168897
1.516932
1.5172488
1.5166812
1.5166478
1.5166734
1.5167043
1.5166993
1.5166622
1.5166958
1.5167308
1.5172617
1.5169184
1.5169656
1.5172748
1.5166614
1.5164873
1.51651
1.5165079
1.5164848
1.5164843
1.5165066
1.5164822
1.5165049
1.5165422
1.51651
1.5165445
1.5165074
1.5165043
1.5165383
1.5165059
1.5165402
1.5164429
1.5164651
1.5164634
1.5164409
1.516441
1.5164632
1.5164607
1.5164381
1.5164874
1.5164617
1.5164893
1.5164594
1.5164847
1.5164593
1.5164869
1.5164569
1.5165105
1.5164879
1.5165103
1.516488
1.5165104
1.5165437
1.5165438
1.5165103
1.5164893
1.5165112
1.5164905
1.5165124
1.5165127
1.5165451
1.5165114
1.5165433
1.5164465
1.5164451
1.516467
1.5164683
1.5164431
1.5164656
1.5164661
1.5164436
1.5164626
1.5164623
1.5164898
1.5164901
1.5164923
1.5164651
1.516464
1.5164909
1.5165665
1.5165467
1.5165731
1.5165397
1.5165696
1.5166019
1.5165947
1.5165617
1.516528
1.5165132
1.5165389
1.5165015
1.5165343
1.5165669
1.5165225
1.516556
1.5169228
1.5168469
1.5169495
1.5168786
1.5168746
1.5169115
1.5169559
1.516986
1.5166914
1.5166831
1.5167144
1.5166583
1.5167103
1.5166847
1.5167498
1.5167262
1.5169942
1.5169434
1.5170191
1.5169098
1.5170302
1.5169454
1.5170625
1.5169884
1.5167212
1.5167551
1.5167475
1.5167789
1.516826
1.5167801
1.5167537
1.5168019
1.5166184
1.5165998
1.5166263
1.5165912
1.5166666
1.5166267
1.5166174
1.5166581
1.5165517
1.5165789
1.5165637
1.5165897
1.5166297
1.516589
1.5165772
1.5166185
1.5166695
1.5166992
1.5166907
1.5166598
1.516619
1.5166316
1.5166613
1.51665
1.5167024
1.5167395
1.5167314
1.5166926
1.5166507
1.5166634
1.5167022
1.5166911
1.5170754
1.5170993
1.5170281
1.5169929
1.5168299
1.5168631
1.5168396
1.5168029
1.5171124
1.5171398
1.517072
1.5170329
1.5168675
1.5169107
1.5168883
1.5168413
1.517153
1.5171736
1.5171092
1.5170772
1.5169155
1.5169466
1.5169254
1.5168905
1.5171868
1.517218
1.5171549
1.5171145
1.5169515
1.5169967
1.516977
1.5169277
1.5167431
1.5167706
1.5167627
1.5167338
1.5166924
1.5167048
1.5167326
1.5167221
1.5167738
1.5168158
1.5168076
1.5167647
1.5167232
1.516735
1.5167787
1.5167695
1.5166109
1.5166313
1.5166343
1.5166072
1.5166737
1.5166368
1.5166331
1.5166696
1.5166257
1.5166041
1.5166273
1.516602
1.5166653
1.5166293
1.5166277
1.5166645
1.5165474
1.5165732
1.5165704
1.5165443
1.5166079
1.5165758
1.5165724
1.5166048
1.5165421
1.5165402
1.5165675
1.5165656
1.5166016
1.5165674
1.5165995
1.5165695
1.5165456
1.5165703
1.5165703
1.5165455
1.5165446
1.5165468
1.5165706
1.5165685
1.5166033
1.5165722
1.516603
1.5165721
1.5165701
1.5166009
1.5165724
1.516603
1.5166052
1.5166055
1.5166278
1.5166281
1.516666
1.5166299
1.5166657
1.5166298
1.5166052
1.5166274
1.5166256
1.516603
1.5166651
1.5166295
1.5166658
1.5166276
1.5164269
1.5164038
1.5164245
1.5164058
1.5164205
1.5164476
1.5164504
1.5164232
1.5164077
1.5164289
1.5164101
1.516431
1.516427
1.5164543
1.5164251
1.5164525
1.5163678
1.5163968
1.5163971
1.516368
1.5163914
1.5163865
1.5164147
1.5164192
1.516423
1.5163927
1.5164219
1.5163935
1.5164165
1.5164444
1.5164103
1.5164388
1.5163837
1.5163546
1.5163829
1.5163549
1.5163792
1.5164074
1.5164091
1.5163803
1.5163858
1.5163602
1.5163889
1.516357
1.5163852
1.5164138
1.5163824
1.5164112
1.5164179
1.5164392
1.5164409
1.5164194
1.5164344
1.5164555
1.5164417
1.5164623
1.5164627
1.5164647
1.5164347
1.5164368
1.5164592
1.5164508
1.5164782
1.5164857
1.5162889
1.5162895
1.516333
1.5163333
1.5163306
1.5163711
1.5163713
1.5163303
1.5163118
1.516315