/*--------------------------------*- C++ -*----------------------------------*\
  =========                 |
  \\      /  F ield         | OpenFOAM: The Open Source CFD Toolbox
   \\    /   O peration     | Website:  https://openfoam.org
    \\  /    A nd           | Version:  7
     \\/     M anipulation  |
\*---------------------------------------------------------------------------*/
FoamFile
{
    version     2.0;
    format      ascii;
    class       volScalarField;
    location    "2000";
    object      nut;
}
// * * * * * * * * * * * * * * * * * * * * * * * * * * * * * * * * * * * * * //

dimensions      [0 2 -1 0 0 0 0];

internalField   nonuniform List<scalar> 
33730
(
1.0862991e-89
4.5465599e-91
1.8043365e-89
2.7504247e-90
1.0608072e-90
2.357983e-90
7.9141625e-90
6.8596933e-91
4.4598699e-91
2.8917023e-91
2.7383581e-91
4.2517391e-91
3.6283636e-91
3.3879268e-91
8.3939281e-90
8.806758e-90
2.607008e-89
1.4199224e-90
5.5322302e-91
1.3564591e-90
5.8921925e-91
1.1942187e-90
1.3912419e-90
5.0451525e-91
2.2695472e-90
4.9606329e-91
2.0583548e-90
7.0495903e-91
5.4587933e-91
7.6102122e-90
4.2803557e-91
3.1649443e-91
1.7633141e-91
3.9603115e-91
4.9755972e-91
5.6527949e-91
4.0209279e-91
2.7590408e-91
1.8183419e-91
2.3443666e-91
2.2461605e-91
2.1188969e-91
2.2285801e-91
2.7965815e-91
3.1452685e-91
4.9192862e-91
1.6396136e-91
1.7129442e-91
5.3686499e-91
3.9466492e-91
4.5152648e-91
1.4067354e-91
1.6527371e-91
5.1461459e-91
1.0038622e-89
6.0893818e-91
5.2018469e-90
6.2461899e-91
5.3271013e-90
6.1777342e-91
4.9900177e-90
5.9595459e-91
5.0206987e-90
2.7415547e-89
3.66423e-91
9.5788163e-90
5.7419555e-91
5.7060396e-91
3.1682311e-91
3.0304753e-91
5.2574545e-91
2.8804321e-91
5.9854032e-91
3.0321401e-91
4.628962e-91
1.2368938e-90
2.752333e-91
5.6246234e-91
2.8313359e-91
5.6865963e-91
5.6829121e-91
3.1607327e-91
2.9055402e-91
6.4762386e-91
1.208685e-90
7.3461355e-91
1.2298881e-90
1.0900324e-90
2.2367342e-90
4.5238759e-91
5.409957e-91
6.3488645e-91
2.0424123e-90
4.2601611e-91
1.8386419e-91
3.1536856e-91
1.7159359e-91
4.0345811e-91
5.2813232e-91
5.1414068e-91
3.9146863e-91
2.8966619e-91
2.1038722e-91
2.0448395e-91
1.710211e-91
1.7423326e-91
8.9296689e-92
8.7436139e-92
1.0723921e-91
1.0646822e-91
8.4250246e-92
8.3970306e-92
1.6564313e-91
1.6620793e-91
1.9054386e-91
2.0349036e-91
1.1996772e-91
9.2583934e-92
9.1443314e-92
1.1242543e-91
7.4628425e-92
8.0219899e-92
6.3685214e-92
6.053591e-92
6.619648e-92
1.3934341e-91
1.0032409e-91
1.0367056e-91
1.835938e-91
1.8420556e-91
1.7274571e-91
1.8395589e-91
1.632512e-91
2.1976334e-91
1.7844921e-91
1.8011448e-91
1.8484886e-91
2.3699156e-91
2.2645054e-91
2.1079172e-91
3.0157373e-91
1.9550639e-91
1.9790121e-91
1.9213243e-91
1.3813388e-91
1.4951382e-91
2.0084262e-91
5.0291853e-91
1.7092655e-91
1.8939524e-91
5.6834449e-91
1.9567107e-91
1.3233521e-91
1.4793884e-91
1.9386836e-91
6.3554695e-91
6.6123949e-91
5.469827e-90
5.440432e-90
2.7789517e-91
2.7372113e-91
4.051669e-91
4.2749507e-91
5.32533e-91
5.2626623e-91
2.3036586e-90
2.1433039e-90
2.7014995e-91
2.7397734e-91
4.1795278e-91
4.1055571e-91
5.1047851e-91
4.9380367e-91
2.2194199e-90
2.1371951e-90
2.7808348e-91
2.7720128e-91
4.2211956e-91
4.1271053e-91
4.8577154e-91
4.8997329e-91
2.253209e-90
2.1170273e-90
2.7236196e-91
2.6148882e-91
4.2334665e-91
3.9253136e-91
5.0233889e-91
4.844379e-91
2.2156324e-90
2.0663378e-90
3.4093088e-91
3.8576659e-91
9.3582479e-90
1.0115203e-89
4.648724e-91
1.4781693e-91
1.775521e-91
5.6631286e-91
6.2543709e-91
6.6169764e-91
5.3466609e-90
5.6871045e-90
2.1855483e-91
1.6664882e-91
2.2388913e-91
1.6581488e-91
2.1520618e-91
2.0524095e-91
1.6263603e-91
1.6450157e-91
2.0645365e-91
2.2287539e-91
1.6288482e-91
1.6555261e-91
2.3495819e-91
1.7405294e-91
2.3115741e-91
1.6856189e-91
5.2151381e-91
1.7996831e-91
1.9966963e-91
1.4451188e-91
1.4784954e-91
5.0829928e-91
3.1126658e-91
2.9099599e-91
2.1737399e-91
1.5812425e-91
2.2313775e-91
1.5580452e-91
2.1782291e-91
2.1955963e-91
1.6240466e-91
1.6468273e-91
2.1626381e-91
2.0370777e-91
1.5345299e-91
1.5888612e-91
4.9835065e-91
5.6525575e-91
3.031114e-91
2.9551846e-91
5.2848252e-91
5.6560963e-91
3.1091964e-91
3.0289067e-91
1.1828724e-90
2.9155413e-91
5.3867062e-91
4.6022827e-91
2.7175927e-91
5.3735042e-91
1.1941274e-90
5.7303901e-91
1.2608397e-90
5.0454129e-91
1.1391538e-91
8.899872e-92
9.1997086e-92
1.0903736e-91
8.349261e-92
2.1428008e-91
1.9669274e-91
1.8414901e-91
1.7755999e-91
3.0087272e-91
1.8241215e-91
1.2002717e-91
9.1824107e-92
1.2632696e-91
9.5015337e-92
8.2872115e-92
2.1804554e-91
1.6245808e-91
1.7547803e-91
1.9848678e-91
1.506057e-91
1.5317532e-91
1.5003867e-91
1.4829353e-91
1.5068554e-91
1.4605897e-91
1.3464227e-91
1.4647943e-91
1.1561853e-91
1.1513698e-91
1.1269735e-91
1.1303552e-91
1.0807035e-91
1.1551689e-91
1.1261959e-91
1.1067281e-91
5.8550553e-92
6.2046954e-92
6.1035949e-92
6.3437832e-92
6.5632957e-92
5.8734737e-92
6.1268508e-92
6.3358029e-92
5.934937e-92
6.3875503e-92
8.0586106e-92
8.094607e-92
7.8663786e-92
7.7409392e-92
8.1911167e-92
7.9604559e-92
7.6145354e-92
7.8767861e-92
6.4946646e-92
6.7578514e-92
6.5326512e-92
6.4223797e-92
1.1109781e-91
1.1349049e-91
1.1144185e-91
1.1341955e-91
1.1376269e-91
1.072778e-91
1.0393388e-91
1.1056969e-91
1.5003988e-91
1.4209343e-91
1.3644315e-91
1.4927372e-91
1.5332704e-91
1.5308872e-91
1.4843301e-91
1.5144754e-91
8.1021331e-92
8.8274123e-92
8.801824e-92
8.052284e-92
6.9858576e-92
6.9098659e-92
6.1033326e-92
6.2271277e-92
6.0894446e-92
6.6178803e-92
6.2209118e-92
6.7321729e-92
8.5264507e-92
8.4867047e-92
8.134668e-92
8.1393105e-92
8.467489e-92
6.7123952e-92
8.975163e-92
7.1045177e-92
7.8585487e-92
7.1238643e-92
8.338016e-92
7.5524718e-92
5.8385289e-92
5.5394975e-92
6.2947731e-92
5.8797852e-92
4.0738161e-92
4.282478e-92
4.573069e-92
4.5469418e-92
4.5773643e-92
4.5449066e-92
4.7331173e-92
4.9588482e-92
4.8131215e-92
4.9924526e-92
8.1543269e-92
7.21563e-92
8.5328548e-92
7.8478409e-92
6.0638608e-92
8.2632855e-92
6.3509293e-92
8.3345917e-92
7.0431253e-92
8.8188657e-92
7.4457033e-92
1.167609e-91
1.1672804e-91
1.1547969e-91
1.1894868e-91
1.1306721e-91
1.2050563e-91
1.2465576e-91
1.2468378e-91
1.0114728e-91
1.0898145e-91
1.7228816e-91
1.74918e-91
1.1478323e-91
1.1934578e-91
1.1507886e-91
1.1462855e-91
1.173287e-91
1.1954606e-91
1.8017501e-91
1.7418371e-91
1.8140382e-91
1.8667613e-91
1.8565242e-91
1.6820682e-91
2.3735782e-91
2.1725261e-91
2.3436401e-91
2.0073694e-91
1.9948765e-91
3.9484202e-91
3.8613978e-91
2.4335854e-91
2.8414992e-91
2.9034363e-91
1.214215e-91
1.3135256e-91
2.6885159e-91
3.116388e-91
2.9759382e-91
1.9231991e-91
1.3489284e-91
1.5189098e-91
1.9825512e-91
2.5152388e-91
2.9506016e-91
3.0111262e-91
1.2257191e-91
1.2882249e-91
2.463625e-91
2.9563784e-91
2.971188e-91
3.9692476e-91
2.6690891e-91
4.335962e-91
2.8011094e-91
2.8109665e-91
2.8204842e-91
4.1704005e-91
4.3146258e-91
2.1238165e-90
5.2451368e-91
5.2849587e-91
2.2143752e-90
5.2232074e-91
2.1772046e-90
5.3116687e-91
2.0467425e-90
1.850715e-91
1.8603871e-91
1.9304945e-91
1.9606095e-91
2.6266826e-91
2.6198612e-91
1.9592766e-91
1.9670944e-91
2.5264844e-91
2.6221365e-91
1.7232256e-91
1.6900828e-91
6.1585808e-91
6.3305905e-91
1.7511919e-91
5.3427117e-91
1.8018588e-91
5.9458324e-91
1.8250632e-91
1.8080463e-91
2.5709535e-91
1.8796281e-91
2.563486e-91
1.9396967e-91
2.5530086e-91
2.4604027e-91
1.9147928e-91
1.9130583e-91
1.6415861e-91
1.6866649e-91
6.1526142e-91
5.7589103e-91
1.6239745e-91
6.0983836e-91
5.9414537e-91
1.669418e-91
1.8342886e-91
1.8220239e-91
2.500254e-91
2.5261951e-91
1.8359695e-91
1.9121962e-91
2.5749363e-91
2.4764027e-91
1.9173514e-91
1.9348334e-91
1.6776425e-91
6.1418657e-91
1.6536325e-91
6.3042802e-91
1.6773882e-91
5.5585683e-91
1.7445492e-91
6.0888329e-91
1.817319e-91
1.7486776e-91
2.5929707e-91
2.5763411e-91
1.887571e-91
1.9538129e-91
2.5653117e-91
2.4850861e-91
1.9358338e-91
1.9218864e-91
1.6439593e-91
5.6294919e-91
1.6985619e-91
6.173933e-91
1.6917561e-91
1.6327561e-91
6.1280007e-91
5.8911619e-91
1.755938e-91
1.4458956e-91
5.7484457e-91
1.9251185e-91
1.6906122e-91
5.3100859e-91
5.988051e-91
6.1406652e-91
5.5073482e-90
6.4802051e-91
6.6050072e-91
5.5339943e-90
5.4771695e-90
1.9037604e-91
1.298217e-91
1.5343707e-91
1.977442e-91
2.8138392e-91
2.713584e-91
4.0147848e-91
4.3419623e-91
2.8660695e-91
4.2747104e-91
2.8345923e-91
4.3918079e-91
5.4318359e-91
2.0649438e-90
5.4813883e-91
2.208162e-90
5.3510307e-91
2.2421896e-90
5.5213486e-91
2.0995595e-90
2.344455e-91
2.1885324e-91
6.050503e-92
6.3507456e-92
6.3802307e-92
2.4626437e-91
2.3820867e-91
6.095247e-92
2.2611471e-91
2.2219214e-91
5.802618e-92
6.0210397e-92
2.1124367e-91
2.2679059e-91
6.0819248e-92
5.7871654e-92
2.2265358e-91
2.0525703e-91
5.9450417e-92
6.2663043e-92
2.4137159e-91
2.3518233e-91
6.326779e-92
6.4071058e-92
2.460908e-91
2.3416456e-91
6.2099388e-92
6.5787036e-92
2.56088e-91
2.4127648e-91
6.5846884e-92
6.2989479e-92
2.0383237e-91
1.9160146e-91
1.5010767e-91
1.5598703e-91
1.8310577e-91
1.6645147e-91
5.0760632e-92
5.4081517e-92
2.0336366e-91
2.0235155e-91
5.5838674e-92
5.6816342e-92
1.9615422e-91
2.067878e-91
1.5253637e-91
1.515062e-91
2.1751439e-91
2.0559418e-91
5.672235e-92
6.0247535e-92
2.3067993e-91
2.3638066e-91
6.2376329e-92
6.0316344e-92
2.2405924e-91
2.1210272e-91
5.9824904e-92
6.2028104e-92
2.2783031e-91
2.3041026e-91
6.2311176e-92
6.0646055e-92
2.0818825e-91
5.7076423e-92
5.7384033e-92
2.1960014e-91
2.168892e-91
1.9960379e-91
5.7815066e-92
5.8380536e-92
2.0086991e-91
2.1636429e-91
1.5701383e-91
1.5954726e-91
2.2348567e-91
2.2037866e-91
1.5143738e-91
1.6305443e-91
2.1389002e-91
2.2384429e-91
1.7027022e-91
1.6346477e-91
1.7484291e-91
2.2809787e-91
2.2109127e-91
1.6533695e-91
4.947809e-91
5.1445021e-91
3.0416087e-91
3.0432053e-91
2.2321309e-91
2.2162098e-91
1.7059748e-91
1.7091916e-91
1.5059051e-91
1.8738198e-91
2.0880793e-91
1.5988129e-91
2.9683659e-91
4.7401636e-91
5.6647477e-91
3.1324514e-91
5.3372411e-91
3.1680776e-91
5.4546711e-91
3.1750603e-91
8.1863982e-92
8.0063274e-92
7.5963643e-92
7.7052814e-92
5.7591618e-92
6.0439806e-92
6.0124327e-92
6.2227546e-92
6.3543297e-92
5.9799626e-92
6.1004807e-92
6.4247632e-92
6.379149e-92
6.7660902e-92
8.23671e-92
8.2966001e-92
8.4130027e-92
8.0809641e-92
6.8224098e-92
6.6351073e-92
1.5557372e-91
1.5388232e-91
1.5017417e-91
1.4635547e-91
1.5465776e-91
1.4687692e-91
2.0982804e-91
1.4929039e-91
1.3551144e-91
1.2204757e-91
1.1754977e-91
1.1223339e-91
1.1733092e-91
1.7229711e-91
1.2027004e-91
1.1673159e-91
1.1356994e-91
1.0829461e-91
1.7430915e-91
1.9056098e-91
1.1583505e-91
9.3774275e-92
9.4951339e-92
1.166741e-91
8.321538e-92
8.167642e-92
8.9103984e-92
8.6306439e-92
8.3390466e-92
6.8452557e-92
6.6585165e-92
6.1743032e-92
6.4516082e-92
6.8347334e-92
8.4358681e-92
9.0144744e-92
8.7898788e-92
8.4509684e-92
6.9645903e-92
6.7159434e-92
6.2981859e-92
6.5790624e-92
6.8822878e-92
7.0679893e-92
7.6463543e-92
2.0330846e-91
4.2773994e-92
4.2619586e-92
1.5526144e-91
1.5570369e-91
1.4813104e-91
1.5417758e-91
1.0442625e-91
1.0595158e-91
1.0819983e-91
1.0196746e-91
1.1284821e-91
1.1559321e-91
1.1511264e-91
1.136498e-91
1.4696721e-91
1.4412949e-91
1.4598945e-91
1.4626852e-91
9.1850378e-92
9.1554006e-92
8.4079598e-92
8.3235783e-92
9.2928604e-92
8.4592979e-92
9.6102108e-92
8.6687492e-92
9.9118833e-92
7.4998919e-92
1.0100619e-91
7.797241e-92
9.9253541e-92
7.6041261e-92
9.6544073e-92
7.613804e-92
9.9254592e-92
1.0029824e-91
9.0585546e-92
9.0485576e-92
8.1723233e-92
9.0754554e-92
9.4602749e-92
8.3306361e-92
9.5027761e-92
9.8306799e-92
7.0858135e-92
7.664188e-92
1.0532323e-91
1.0337469e-91
8.0174821e-92
8.0620014e-92
9.2653674e-92
9.3291115e-92
8.0147202e-92
8.046064e-92
9.2353575e-92
9.7512883e-92
7.9986076e-92
8.3565305e-92
8.7482172e-92
6.9381994e-92
9.1096217e-92
7.1604118e-92
8.727227e-92
8.6534955e-92
6.8983918e-92
6.8290059e-92
8.6238699e-92
6.677325e-92
9.0446262e-92
6.9741459e-92
9.9541442e-92
1.0019846e-91
8.5626715e-92
8.5463329e-92
9.2495369e-92
7.8482036e-92
9.8208868e-92
8.2744508e-92
9.287399e-92
9.2657476e-92
7.3359912e-92
7.2973842e-92
3.9498632e-92
4.2528756e-92
4.3760006e-92
4.515224e-92
4.3197063e-92
5.6690166e-92
6.2483408e-92
5.5265584e-92
6.0085584e-92
4.2228324e-92
4.6422538e-92
4.5426525e-92
5.0981896e-92
4.5266185e-92
6.0378389e-92
6.6515898e-92
5.901817e-92
6.3327113e-92
4.9362479e-92
4.7426562e-92
4.4403663e-92
4.2651086e-92
4.2593762e-92
4.6528442e-92
4.8420183e-92
6.3447513e-92
6.1484588e-92
6.1873035e-92
5.9758416e-92
6.1322629e-92
5.8863704e-92
6.2893213e-92
5.9470025e-92
4.2002748e-92
4.3105579e-92
4.1800412e-92
4.8048765e-92
4.5250678e-92
4.6679095e-92
4.4160966e-92
8.3259437e-92
8.4737928e-92
7.6795161e-92
7.7644023e-92
8.6425517e-92
7.9779758e-92
8.5138225e-92
7.8834495e-92
9.5379798e-92
7.7725743e-92
9.430527e-92
7.6941969e-92
9.2438177e-92
7.5730108e-92
9.2557966e-92
7.573116e-92
8.3685208e-92
7.7237639e-92
9.1062668e-92
8.2989408e-92
7.7496654e-92
7.1543512e-92
8.5510282e-92
7.8382548e-92
8.4636732e-92
6.8826652e-92
9.2771334e-92
7.4760178e-92
9.1863551e-92
7.4886346e-92
9.8577253e-92
7.9656047e-92
4.1819692e-92
3.7013901e-92
3.6232853e-92
3.8912495e-92
3.3748674e-92
3.6387682e-92
4.0200693e-92
3.9665116e-92
4.7008275e-92
4.4390591e-92
4.728918e-92
4.4535855e-92
4.8133754e-92
4.7038013e-92
4.3859033e-92
4.4742321e-92
9.1486099e-92
9.0463718e-92
7.2100978e-92
7.1061034e-92
9.543198e-92
9.5208807e-92
8.2286431e-92
8.1878944e-92
8.8288747e-92
6.9830477e-92
8.7154414e-92
6.8990052e-92
9.3633328e-92
9.3128014e-92
8.020987e-92
8.0232797e-92
9.2499221e-92
7.9657778e-92
1.0000926e-91
8.5090521e-92
8.4121776e-92
7.2284543e-92
9.2297216e-92
7.8514544e-92
7.9073425e-92
6.2041463e-92
8.5390324e-92
6.6573856e-92
8.8019878e-92
6.9540519e-92
9.3276861e-92
7.31567e-92
9.2409573e-92
9.8738238e-92
8.3838596e-92
8.8810232e-92
8.1842116e-92
8.8376772e-92
7.4914386e-92
7.9991886e-92
9.0103241e-92
9.4170831e-92
6.7452732e-92
7.2883177e-92
1.0110596e-91
1.0381101e-91
7.6227769e-92
8.0103906e-92
1.0502808e-91
7.760777e-92
1.0326005e-91
7.9226241e-92
9.5334845e-92
8.6092804e-92
9.4396665e-92
8.568222e-92
9.1403937e-92
9.0223623e-92
8.3175873e-92
8.2298889e-92
1.0125181e-91
7.7367821e-92
9.7743086e-92
7.8060695e-92
9.2254313e-92
7.3850358e-92
9.8043328e-92
7.8096233e-92
9.1207856e-92
9.1239928e-92
8.3652336e-92
8.2973676e-92
8.5857677e-92
7.8651076e-92
9.1447646e-92
8.3488241e-92
9.7158225e-92
9.6245989e-92
7.8668515e-92
7.776667e-92
6.7944848e-92
6.451845e-92
6.990936e-92
6.3959426e-92
6.5245515e-92
6.1804919e-92
6.8252486e-92
6.4807732e-92
4.4507842e-92
4.7120303e-92
4.8114881e-92
5.1648883e-92
4.6567901e-92
4.7514943e-92
5.2509751e-92
5.0444491e-92
4.3327079e-92
4.5557051e-92
4.9690495e-92
4.7883304e-92
6.0940856e-92
5.9786619e-92
6.644013e-92
6.3295962e-92
4.2520495e-92
4.4129879e-92
4.8134246e-92
4.569986e-92
6.1150028e-92
5.9762936e-92
6.3429544e-92
6.0613421e-92
8.3771086e-92
7.7805218e-92
8.5067589e-92
7.8692368e-92
8.3447472e-92
7.7713878e-92
8.9263022e-92
8.2211237e-92
9.1687183e-92
7.5081143e-92
9.7075835e-92
7.8686881e-92
9.2134934e-92
7.5536026e-92
9.2476342e-92
7.5943872e-92
4.9230066e-92
5.4386399e-92
4.7782042e-92
5.6071244e-92
4.7677419e-92
3.8463229e-92
3.8930916e-92
4.922546e-92
5.7158102e-92
5.0287268e-92
5.5611668e-92
4.8553515e-92
4.8333464e-92
3.9091123e-92
4.9810995e-92
4.0089042e-92
6.4215964e-92
7.1768923e-92
6.1031183e-92
7.5867988e-92
6.0303027e-92
4.7711837e-92
4.883699e-92
6.3120502e-92
6.6609472e-92
7.4837081e-92
6.3149818e-92
7.8132435e-92
6.2269408e-92
4.931352e-92
6.4797802e-92
5.0335329e-92
8.7029769e-92
1.0283586e-91
8.4009453e-92
1.0512677e-91
8.3105965e-92
6.3715085e-92
6.5888835e-92
8.5995324e-92
9.3281018e-92
1.0717995e-91
8.9561799e-92
1.10296e-91
8.8101785e-92
6.726075e-92
9.4039087e-92
6.9588557e-92
1.6470634e-91
1.6300154e-91
1.1378467e-91
1.1476052e-91
1.245197e-91
1.2594198e-91
1.7696439e-91
1.8158139e-91
1.0066283e-91
3.0325114e-92
3.4553823e-92
3.4270147e-92
3.0270337e-92
1.129017e-91
1.8449736e-91
1.9229033e-91
1.3083622e-91
1.3344235e-91
3.3402393e-92
3.8234923e-92
3.7208142e-92
3.2535749e-92
1.1589223e-91
3.059482e-92
3.2716842e-92
3.1467066e-92
2.9652215e-92
3.338151e-92
3.4439424e-92
3.3706789e-92
3.2020577e-92
3.0729755e-92
3.0654438e-92
3.4385341e-92
2.6450557e-92
2.725296e-92
2.5670966e-92
2.801085e-92
2.6184475e-92
2.3303955e-92
2.3628721e-92
2.7490583e-92
2.6872722e-92
2.7543787e-92
2.5788715e-92
2.8296378e-92
3.1699557e-92
3.4146755e-92
3.0695635e-92
3.478017e-92
3.008413e-92
2.4628044e-92
2.5139877e-92
3.1506319e-92
3.5631899e-92
3.2048114e-92
3.4670796e-92
3.1180002e-92
3.071249e-92
2.5152678e-92
3.1460423e-92
2.568737e-92
3.8062599e-92
4.2139131e-92
3.7661736e-92
4.2840814e-92
3.7569654e-92
3.0571896e-92
3.0903161e-92
3.8019448e-92
3.9019452e-92
4.2498309e-92
3.7920899e-92
4.372331e-92
3.8021013e-92
3.1164642e-92
3.9038174e-92
3.1855117e-92
6.8387301e-92
6.6054422e-92
6.5775894e-92
6.8274255e-92
6.6440399e-92
7.0049107e-92
7.1167601e-92
7.00362e-92
6.4927965e-92
7.1522494e-92
7.5684854e-92
6.8805029e-92
6.788443e-92
7.593463e-92
7.2426127e-92
7.4432298e-92
1.0815976e-91
5.3122409e-92
6.0138843e-92
6.4309153e-92
5.8439065e-92
1.0959509e-91
1.067139e-91
1.114856e-91
5.9342572e-92
6.6913332e-92
6.8177246e-92
6.7110108e-92
6.1066744e-92
6.2787485e-92
6.2688492e-92
6.3806285e-92
6.4935389e-92
6.9071686e-92
6.7918484e-92
6.9786962e-92
1.1787067e-91
1.1914764e-91
1.1011798e-91
1.1539061e-91
1.1884128e-91
1.2192649e-91
1.2337689e-91
1.2211017e-91
1.1896499e-91
1.2410857e-91
1.0582876e-91
1.8341897e-91
1.1715218e-91
1.7522164e-91
1.9200769e-91
1.7115171e-91
1.9025078e-91
1.9805057e-91
1.8837507e-91
1.9434428e-91
4.1051334e-91
4.3271306e-91
1.2183429e-91
1.2963286e-91
1.2750143e-91
1.2038919e-91
1.2182232e-91
1.2064877e-91
2.014997e-91
1.4446583e-91
1.5080038e-91
1.2387842e-91
1.2675231e-91
2.2690582e-91
1.5040685e-91
1.5244151e-91
2.4212555e-91
2.9456202e-91
2.8366275e-91
1.1767208e-91
1.3216623e-91
2.6120759e-91
3.0492285e-91
3.0637815e-91
1.255343e-91
1.2429675e-91
2.1929091e-91
1.4987932e-91
1.5254476e-91
1.2274084e-91
1.2384852e-91
2.0625595e-91
1.4954219e-91
1.4807049e-91
1.7890145e-91
1.8522516e-91
1.8313933e-91
1.8828377e-91
1.7512664e-91
5.5961084e-91
1.8151163e-91
6.2022529e-91
2.5922109e-91
2.5377169e-91
1.9030757e-91
1.9707486e-91
2.5249579e-91
2.6524e-91
1.9674173e-91
1.9548317e-91
1.7247034e-91
1.6981714e-91
6.1988312e-91
6.4034256e-91
2.6366221e-91
2.5303513e-91
1.9522659e-91
1.9532306e-91
1.736091e-91
6.003749e-91
1.6899166e-91
5.6591785e-91
2.6059585e-91
2.603368e-91
1.9039299e-91
1.9628825e-91
1.7329254e-91
1.6849704e-91
5.9098976e-91
5.7174737e-91
1.8982611e-91
1.8680608e-91
1.9893557e-91
1.8779461e-91
1.7112436e-91
1.6695913e-91
1.9002496e-91
1.8990659e-91
1.8978195e-91
1.953688e-91
1.6723141e-91
1.6959259e-91
1.9722728e-91
1.9864908e-91
9.5552728e-92
9.2234143e-92
9.7139689e-92
2.0444673e-91
2.0242189e-91
9.7464105e-92
9.5141317e-92
1.9967264e-91
2.0133655e-91
9.6840878e-92
9.5489922e-92
1.9922944e-91
1.9754287e-91
9.5684006e-92
5.1651375e-92
5.3994316e-92
5.5233051e-92
5.4378868e-92
5.2040093e-92
5.3179189e-92
5.2918785e-92
5.0788975e-92
7.2394564e-92
5.665082e-92
5.7516758e-92
7.5359847e-92
5.7161831e-92
5.7894422e-92
7.5386792e-92
7.6331103e-92
5.5423146e-92
5.6730262e-92
5.0532862e-92
5.4146423e-92
6.9553845e-92
5.6733803e-92
5.7599953e-92
7.1769069e-92
5.3544974e-92
5.4278796e-92
5.4434118e-92
5.5440317e-92
5.7525918e-92
5.8563667e-92
7.3551911e-92
7.3558235e-92
1.8743933e-91
1.8983486e-91
1.8921158e-91
1.9371394e-91
1.6534975e-91
1.6053738e-91
1.8693667e-91
1.8113497e-91
1.947984e-91
1.8327849e-91
1.638402e-91
1.6584977e-91
9.2963654e-92
1.9403382e-91
1.9556283e-91
9.5452331e-92
1.9999586e-91
1.9732665e-91
9.7067759e-92
9.7309744e-92
9.2942448e-92
1.9424291e-91
1.9545324e-91
9.4757915e-92
9.3644146e-92
1.9191808e-91
9.4055438e-92
1.9128209e-91
4.8675884e-92
5.3870383e-92
5.5532115e-92
5.2544854e-92
5.3600998e-92
5.3942327e-92
5.5130672e-92
5.2730009e-92
5.8275213e-92
7.4823062e-92
7.4111385e-92
5.8266273e-92
7.3287272e-92
5.6302002e-92
5.7358289e-92
7.5709395e-92
5.2460139e-92
5.2245225e-92
4.7283903e-92
4.9450215e-92
5.6952752e-92
5.8605034e-92
7.5312815e-92
7.2389556e-92
7.3132329e-92
5.8122085e-92
5.634542e-92
7.2878247e-92
5.3540197e-92
5.2786228e-92
5.1617763e-92
4.9261259e-92
1.8670621e-91
1.8785735e-91
1.90551e-91
1.9328519e-91
1.6670669e-91
1.6289232e-91
1.9226074e-91
1.8483541e-91
1.846267e-91
1.9768134e-91
1.6337659e-91
1.6606999e-91
1.5948773e-91
1.6257107e-91
1.9031676e-91
1.880627e-91
9.0107642e-92
9.2791035e-92
9.6594117e-92
1.9712413e-91
1.9402383e-91
9.5769268e-92
1.6462577e-91
1.6102721e-91
1.9827042e-91
1.9816048e-91
9.382375e-92
9.5944235e-92
9.5663713e-92
1.9514494e-91
1.9176436e-91
9.4821632e-92
5.4480596e-92
5.3221636e-92
5.0251035e-92
5.3653658e-92
7.1515702e-92
5.5545097e-92
5.6232443e-92
7.4092747e-92
5.0480301e-92
5.2949412e-92
5.2326471e-92
4.8629525e-92
5.6577533e-92
5.6883306e-92
7.4355279e-92
7.4515862e-92
5.5232784e-92
5.4085887e-92
4.6641863e-92
5.0568839e-92
7.1977936e-92
5.5499366e-92
5.6851079e-92
7.3398856e-92
5.0442423e-92
5.3827434e-92
5.3501469e-92
5.2131529e-92
5.6306641e-92
5.7639861e-92
7.3825603e-92
7.2487418e-92
1.8045304e-91
1.8337579e-91
1.8723174e-91
1.9097312e-91
1.7946258e-91
1.7037616e-91
1.8730432e-91
1.7629346e-91
1.9806038e-91
1.9899837e-91
9.3416973e-92
9.5616913e-92
9.8526207e-92
2.0374915e-91
2.0137686e-91
9.7823421e-92
9.5416996e-92
2.0004513e-91
2.0149156e-91
9.741365e-92
1.9510252e-91
1.9569478e-91
9.399969e-92
9.456367e-92
5.5780706e-92
5.4292736e-92
4.7919731e-92
5.230454e-92
7.1274074e-92
5.5439246e-92
5.6603676e-92
7.4064276e-92
5.0466673e-92
5.4201988e-92
5.3854278e-92
5.096776e-92
5.7376128e-92
5.810303e-92
7.520464e-92
7.4961645e-92
4.8260271e-92
5.395349e-92
5.5077113e-92
5.0841273e-92
4.8577158e-92
5.2652072e-92
5.2476916e-92
4.7081868e-92
7.1324229e-92
5.6350744e-92
5.7680532e-92
7.3964313e-92
5.6551501e-92
5.7936125e-92
7.3258286e-92
7.1898417e-92
1.4734956e-91
1.2763617e-91
1.8524102e-91
1.466177e-91
1.3194034e-91
1.8914678e-91
1.9215502e-91
2.6695714e-91
2.7042865e-91
4.401257e-91
4.2483514e-91
5.5605972e-91
5.2549604e-91
2.2276891e-90
2.0734038e-90
2.7334725e-91
2.8534344e-91
4.4797717e-91
4.081244e-91
2.8226936e-91
2.7866303e-91
4.3359683e-91
4.4589124e-91
5.4159517e-91
5.443727e-91
2.095523e-90
2.2174297e-90
5.6287572e-91
5.2923036e-91
2.1678675e-90
2.0234847e-90
2.3991772e-91
3.0828267e-91
2.997073e-91
1.1449955e-91
1.3597535e-91
2.600043e-91
3.1053888e-91
3.0933847e-91
1.8288554e-91
1.8704699e-91
1.8632019e-91
1.8890053e-91
2.5936583e-91
2.5897682e-91
1.963769e-91
1.9871092e-91
1.7953639e-91
1.8735258e-91
5.3507122e-91
5.7855668e-91
2.5212654e-91
2.6452904e-91
1.9890145e-91
1.9692331e-91
1.8565445e-91
5.9532003e-91
1.7884828e-91
5.8650693e-91
2.6661314e-91
2.5477284e-91
1.9661971e-91
1.93964e-91
1.7909805e-91
5.6718154e-91
1.8247088e-91
6.1807235e-91
2.6484849e-91
2.6614768e-91
1.9254673e-91
1.9737583e-91
1.7589523e-91
1.7081157e-91
6.1194845e-91
6.1013689e-91
9.5499151e-92
8.9101368e-92
9.66904e-92
9.4060923e-92
9.2496813e-92
8.8995527e-92
8.1648732e-92
8.8054155e-92
9.2558924e-92
8.5459721e-92
9.5605285e-92
9.6541718e-92
1.002867e-91
9.4657872e-92
9.7967463e-92
9.3385632e-92
5.3505442e-92
1.9655036e-91
2.0184872e-91
5.6498655e-92
1.8252151e-91
2.032093e-91
5.6013e-92
5.5310355e-92
8.0018687e-92
7.2121577e-92
8.4509951e-92
8.6345662e-92
5.3716836e-92
1.9143473e-91
2.1239512e-91
5.5540761e-92
2.1514075e-91
2.080771e-91
5.7219472e-92
5.6254901e-92
9.2845214e-92
8.6090163e-92
9.2324723e-92
9.4049359e-92
9.6428274e-92
9.1055056e-92
9.4513274e-92
9.530763e-92
8.6370308e-92
8.9550034e-92
8.5703933e-92
8.3057728e-92
2.1700145e-91
1.9513128e-91
5.6214088e-92
5.8303509e-92
2.2995576e-91
2.3726057e-91
6.0316667e-92
5.820087e-92
2.1867223e-91
2.3214112e-91
5.8970965e-92
6.1259218e-92
6.0509543e-92
2.4208205e-91
2.3043001e-91
5.7861729e-92
1.9925486e-91
2.1866718e-91
5.9933389e-92
6.2309825e-92
6.2150769e-92
2.3885194e-91
2.2570581e-91
6.2591767e-92
2.2739559e-91
2.1736438e-91
6.0489555e-92
6.382436e-92
2.2163857e-91
2.3916153e-91
6.3291178e-92
6.0090887e-92
1.9823099e-91
1.5783524e-91
2.1050668e-91
1.5976434e-91
2.0717303e-91
2.0042527e-91
1.6763891e-91
1.6394533e-91
2.1858581e-91
2.0541806e-91
6.0242597e-92
6.2327451e-92
2.1415518e-91
2.2826283e-91
6.6029908e-92
6.4241266e-92
1.8954191e-91
1.6721938e-91
5.2579652e-92
5.4321244e-92
2.0441185e-91
2.0754031e-91
5.9518085e-92
5.9870908e-92
1.903779e-91
2.1285723e-91
1.580052e-91
1.5938068e-91
2.3308316e-91
2.3102604e-91
1.8087556e-91
1.7129052e-91
1.6895769e-91
2.1395399e-91
2.3387492e-91
1.736117e-91
2.2186796e-91
2.1432483e-91
1.7351757e-91
1.805836e-91
8.1205138e-92
8.2809662e-92
7.4781221e-92
7.5527872e-92
7.8980984e-92
7.2961724e-92
8.2449028e-92
7.5635052e-92
8.6493078e-92
7.0446784e-92
8.984903e-92
7.301505e-92
8.8533221e-92
7.20163e-92
8.8859485e-92
7.2041866e-92
4.0187433e-92
4.1343253e-92
4.2481126e-92
4.3805404e-92
4.4195862e-92
4.0712398e-92
4.2351401e-92
4.4581357e-92
4.3997834e-92
4.5907164e-92
5.7625469e-92
5.6352645e-92
6.0156866e-92
5.798319e-92
5.8304159e-92
6.0643571e-92
5.7321472e-92
5.8064555e-92
4.3161716e-92
4.6170772e-92
4.2513103e-92
4.5622317e-92
4.405982e-92
4.6443051e-92
4.8422465e-92
4.3096184e-92
4.6080249e-92
4.4718554e-92
4.6730857e-92
5.0073067e-92
6.1623311e-92
6.0673372e-92
6.7381988e-92
6.5151476e-92
6.1804132e-92
6.0759281e-92
6.6216191e-92
6.3246884e-92
4.5713252e-92
4.5036515e-92
9.3970423e-92
7.6761096e-92
1.0123294e-91
8.1747079e-92
8.5496217e-92
7.935939e-92
9.0042715e-92
8.2649615e-92
8.4466696e-92
7.8772981e-92
9.183405e-92
8.4764747e-92
9.4621507e-92
7.769882e-92
9.8328575e-92
8.0209908e-92
3.6561391e-92
3.6098749e-92
3.5560509e-92
3.8676277e-92
4.1006402e-92
3.7256199e-92
3.6928524e-92
3.9414521e-92
1.0009675e-91
1.0170096e-91
9.1798227e-92
9.2289845e-92
9.6978491e-92
1.001019e-91
8.8694054e-92
9.1228672e-92
1.089076e-91
1.06202e-91
8.2374075e-92
8.2656661e-92
1.0593703e-91
1.0669289e-91
7.8973085e-92
8.2149308e-92
9.9322999e-92
1.0372987e-91
8.9761857e-92
9.3917833e-92
9.6806749e-92
8.8221006e-92
8.0315648e-92
8.7907909e-92
1.5335289e-91
1.5130316e-91
1.4502185e-91
1.4999555e-91
1.055599e-91
1.0636986e-91
7.9469133e-92
8.2861204e-92
1.0103594e-91
9.4840699e-92
7.0438032e-92
7.764632e-92
1.0017419e-91
8.7011609e-92
1.0274938e-91
8.8602276e-92
9.5731835e-92
8.2579528e-92
1.0042911e-91
8.6151291e-92
9.1056834e-92
9.4463452e-92
7.271549e-92
7.4840184e-92
9.499746e-92
9.5850621e-92
7.5734734e-92
7.5782599e-92
1.1947525e-91
1.1476897e-91
1.1133393e-91
1.1680221e-91
9.9982077e-92
8.6283058e-92
1.0510989e-91
9.0338594e-92
9.4618752e-92
9.7799333e-92
7.4859633e-92
7.7336943e-92
8.8886344e-92
7.6276851e-92
9.9576366e-92
8.461926e-92
9.1737217e-92
8.3365306e-92
6.5886482e-92
7.2007661e-92
1.078896e-91
1.1088352e-91
1.2152736e-91
1.1720976e-91
1.4503475e-91
1.3574702e-91
1.5679928e-91
1.5334123e-91
8.0154754e-92
8.9067402e-92
8.2787933e-92
8.4844616e-92
6.3363348e-92
6.6830237e-92
6.4364525e-92
6.0050561e-92
6.2931311e-92
6.7201025e-92
6.5973529e-92
8.5731159e-92
8.1135504e-92
8.3040383e-92
8.3012612e-92
7.2260706e-92
8.9189413e-92
7.2247765e-92
1.0011303e-91
8.0292399e-92
9.0211059e-92
9.4793717e-92
8.3082712e-92
8.6545033e-92
8.0434221e-92
7.470386e-92
9.1194979e-92
8.3808665e-92
9.845862e-92
8.028421e-92
1.0202152e-91
8.3242099e-92
6.5861937e-92
6.3908976e-92
7.0932031e-92
6.6580311e-92
5.8823749e-92
5.7534833e-92
6.7392797e-92
6.4481737e-92
4.0102369e-92
4.4612621e-92
4.3681621e-92
4.5514684e-92
4.7282905e-92
4.5231329e-92
4.8188271e-92
4.7020898e-92
5.2603744e-92
4.9314295e-92
4.8322815e-92
4.8923413e-92
9.6114266e-92
1.007228e-91
7.8311647e-92
8.144031e-92
8.9490071e-92
9.1463837e-92
8.2745934e-92
8.3904626e-92
8.6697095e-92
8.0593691e-92
9.1362412e-92
8.4359491e-92
9.8331685e-92
9.9459249e-92
8.0914705e-92
8.1701821e-92
6.5940688e-92
6.4136022e-92
6.8918223e-92
6.4998114e-92
6.4588625e-92
6.2771639e-92
6.8736072e-92
6.5439238e-92
4.4738072e-92
4.6455133e-92
4.6121339e-92
4.9205595e-92
4.9951547e-92
4.5702128e-92
4.7244201e-92
4.7865676e-92
4.9901733e-92
5.1646434e-92
4.6289407e-92
4.932194e-92
4.0214903e-92
3.6202922e-92
3.6312388e-92
4.0500564e-92
3.8539036e-92
3.8694603e-92
4.0126711e-92
4.3140329e-92
1.1905903e-91
1.5766448e-91
1.5343941e-91
1.5936053e-91
4.1354477e-92
2.883273e-92
3.2340973e-92
3.3455614e-92
2.7794126e-92
3.0142105e-92
3.29852e-92
3.4774842e-92
2.9226796e-92
2.5508215e-92
2.6120211e-92
9.5718283e-92
9.9036943e-92
8.7562085e-92
8.953986e-92
9.1949987e-92
8.3191355e-92
9.6696006e-92
8.6616673e-92
9.8863136e-92
7.3454253e-92
1.0115465e-91
7.7346786e-92
1.0461907e-91
1.0429788e-91
7.8167574e-92
7.965744e-92
6.6426675e-92
6.6664162e-92
8.3913821e-92
8.4229121e-92
8.6892123e-92
9.0832775e-92
7.4774705e-92
7.7570591e-92
8.9952936e-92
8.8856931e-92
7.6099348e-92
7.6561774e-92
8.2881219e-92
6.5463544e-92
6.7274013e-92
8.5455263e-92
8.9082691e-92
7.0163577e-92
9.3936442e-92
7.320529e-92
9.5055966e-92
9.9542278e-92
8.2435699e-92
8.5427525e-92
9.3130883e-92
8.0704297e-92
9.9744012e-92
8.5653163e-92
9.1204677e-92
9.3744657e-92
7.2559227e-92
7.402386e-92
9.6000514e-92
7.1414112e-92
9.8087536e-92
7.4955243e-92
8.6033509e-92
8.6896225e-92
7.8078058e-92
7.7613298e-92
8.6491761e-92
7.8710009e-92
8.9325361e-92
8.1347804e-92
9.6432925e-92
9.3252865e-92
7.3475053e-92
7.3614557e-92
3.0153e-92
2.8024056e-92
2.9102365e-92
3.0694004e-92
2.993634e-92
3.0034328e-92
2.8392912e-92
2.8478093e-92
2.6375257e-92
2.872478e-92
2.5776116e-92
3.0566245e-92
2.9239664e-92
2.6254776e-92
2.9202539e-92
2.6062394e-92
3.0784683e-92
3.1517721e-92
2.9214692e-92
3.2752666e-92
2.9647586e-92
2.6237309e-92
2.702769e-92
3.1813089e-92
3.062473e-92
3.2147433e-92
2.9795242e-92
3.2582906e-92
3.0464186e-92
2.6846847e-92
3.125557e-92
2.7198928e-92
3.3716845e-92
3.3725651e-92
3.3218133e-92
3.5054962e-92
3.1588773e-92
3.8899499e-92
4.0242809e-92
3.1954391e-92
3.4973585e-92
3.4167802e-92
3.4306641e-92
3.335252e-92
3.2154236e-92
3.9770223e-92
4.0229165e-92
3.2551161e-92
3.2934873e-92
3.2399662e-92
3.2777691e-92
3.3987232e-92
3.0977284e-92
3.807898e-92
3.9358289e-92
3.1196158e-92
3.3289086e-92
3.3530634e-92
3.304329e-92
3.3469283e-92
3.1963915e-92
3.9640544e-92
3.2413996e-92