/*--------------------------------*- C++ -*----------------------------------*\
  =========                 |
  \\      /  F ield         | OpenFOAM: The Open Source CFD Toolbox
   \\    /   O peration     | Website:  https://openfoam.org
    \\  /    A nd           | Version:  7
     \\/     M anipulation  |
\*---------------------------------------------------------------------------*/
FoamFile
{
    version     2.0;
    format      ascii;
    class       volScalarField;
    location    "2000";
    object      omega;
}
// * * * * * * * * * * * * * * * * * * * * * * * * * * * * * * * * * * * * * //

dimensions      [0 0 -1 0 0 0 0];

internalField   nonuniform List<scalar> 
33730
(
2427.2576
580.33448
4680.8615
4310.8967
945.68882
4274.9611
2439.281
942.59736
543.01108
960.24806
952.94939
578.57066
1332.1443
1325.6605
9469.383
9463.0418
4678.9076
7956.2225
2037.7256
8059.3028
2031.1524
7820.7397
7951.3423
2000.1995
4273.9617
2001.1181
4343.2746
937.31157
938.83899
2415.3397
543.2942
863.97455
786.14702
505.53936
521.32098
520.4602
504.96577
858.05092
790.17982
2192.6631
2206.1505
2161.0376
2161.8697
953.09069
965.60382
2050.9387
758.82207
763.25117
2088.2595
1320.0177
2063.6104
763.76023
758.9051
2049.7908
9466.4746
4669.2902
18757.084
4639.9333
18736.942
4728.8156
18818.605
4641.7506
18815.604
4615.3897
1319.2726
9442.1789
13683.135
13357.422
4579.3572
4541.2761
13583.459
4609.7551
13940.335
4678.5942
12959.981
7725.9385
4394.1376
13658.289
4520.8211
13743.36
13360.786
4550.9612
4499.6018
1974.0593
7987.378
2007.1689
8096.6029
7960.0472
4287.7557
2026.6209
2037.06
921.93529
4365.5942
929.81424
786.04503
871.1942
797.33307
504.70865
519.23003
520.29312
505.31023
857.2527
2004.0537
2016.492
1982.3147
1993.5939
1491.7727
1473.4134
1638.5998
1655.4519
687.76358
689.34709
1946.7828
1958.382
1976.4869
1968.906
1674.4858
1494.1422
1495.4895
1668.3209
4235.4128
4087.0402
3473.3952
3168.2659
1272.9145
5114.1644
4695.6674
4795.5241
5027.2589
5061.4225
5115.0429
5175.2275
4875.531
2143.303
5020.2928
4981.4745
5039.1194
2184.5761
2236.654
2220.1852
957.51328
647.06592
646.55657
2213.2618
777.97572
782.89793
2257.6999
2034.551
760.5227
762.56022
2056.6828
2227.4988
783.50456
778.60645
2213.5305
4604.7073
4652.5222
18749.036
18609.652
3626.9439
3647.9627
6866.5952
6840.2524
13219.394
13235.605
33052.337
32734.815
3611.2536
3605.1569
6797.098
6819.0962
13262.294
13169.569
33237.479
32772.442
3671.2881
3680.9689
6901.2902
6925.757
13169.401
13277.864
33190.662
33032.705
3626.7248
3583.056
6854.0847
6745.0784
13400.377
13323.215
33207.553
32823.422
1282.1573
1305.9558
9408.814
9418.3329
2030.4496
762.5869
763.35079
2058.7535
4587.2726
4648.6715
18554.943
18806.668
22134.542
8299.0721
22473.466
8350.0398
21867.396
21374.966
8130.9975
8144.6188
21756.629
22397.673
8280.712
8378.2817
22677.108
8474.5403
22594.757
8535.7684
13050.599
20595.999
21475.631
7786.2296
7930.8609
13257.625
4400.0025
4397.6201
21985.935
8136.2328
22464.681
8348.9281
22457.251
22455.238
8295.2583
8356.2426
21813.86
21369.544
8075.165
8070.7439
13576.112
13854.264
4565.697
4598.8001
13840.283
13903.439
4649.492
4691.3938
7809.8079
4616.471
13857.291
13343.995
4526.5316
2007.9238
8001.9777
1992.4455
8088.4553
2010.4524
1639.7317
1478.9052
1483.4184
1659.0003
687.58733
2038.8549
2033.4399
2020.8173
2014.5161
862.58047
790.85989
1698.1456
1520.0905
1696.3077
1515.9269
693.40845
1995.5191
1940.9227
1970.957
1957.1544
5244.537
5269.1257
4805.4439
4778.3012
5396.5688
5348.524
4867.5854
4909.9695
4879.8023
4885.7815
4822.6123
4805.7831
4902.283
4996.1551
4973.2779
4927.3632
3144.2636
3445.6023
3145.7043
3464.5712
1267.6433
3137.2624
3460.586
3461.3977
3149.7092
1249.5919
4088.1064
4087.8343
4268.6292
4250.0217
4100.3315
4050.1376
4206.0268
4267.764
1135.4173
1115.7196
1263.0357
1267.5061
4787.3273
4857.1638
4743.7269
4830.5848
4861.8883
4762.338
4672.6931
4774.1001
5227.5274
5086.9181
4636.065
4753.8872
4777.4711
5236.5204
5183.6956
4725.317
4377.3734
4193.4413
4185.2209
4383.6833
3535.0956
3539.2418
3185.9922
3179.974
3144.0748
3480.0319
3165.8352
3490.7293
4118.4702
4108.9642
4298.2137
4297.0876
9618.825
9207.9368
9784.999
9344.1331
9110.2971
8935.579
9280.8015
9082.2477
8171.5426
8279.6597
8310.7082
8416.6396
7010.1477
7092.1581
5918.159
2754.7592
5949.7902
7278.0642
2756.9578
6116.8495
2618.3285
2608.0538
9660.4086
8921.2336
9792.0334
9914.1593
9248.9456
10055.54
9368.269
9813.3801
9374.8684
9961.7634
9499.9774
8934.446
8941.2802
9094.0344
9153.7484
9090.6372
9209.2318
9291.6575
9366.5453
8524.4674
8720.7425
4890.6307
4883.0266
8908.5383
9171.9994
8854.4865
8866.2884
9162.5831
9075.3247
5087.2546
5074.8073
5185.5578
5246.3794
5179.4182
5051.3412
2192.9852
2204.5839
2202.5837
646.96953
647.25101
632.04012
632.17227
2297.3729
4073.5482
4143.5647
765.11325
769.66193
2345.8424
4192.5874
4191.6466
2193.9829
780.94775
783.37348
2220.3446
2318.9955
4160.8063
4144.238
770.5184
765.18905
2301.112
4115.7849
4117.2434
6715.6654
3562.5808
6809.0446
3600.9658
3612.0033
3641.0048
6814.0187
6853.6715
32920.696
13036.216
13108.726
32754.93
13193.36
32831.017
13160.333
32388.331
7540.9026
7514.4321
18535.104
18700.923
12655.937
12604.83
18716.998
18523.787
12569.697
12664.261
29376.031
28849.385
49355.562
49352.95
28783.386
48030.347
29264.348
48981.254
7466.767
7493.063
12602.382
18589.208
12651.964
18724.126
12570.697
12465.626
18599.446
18364.694
29152.557
29379.034
49533.133
49375.091
28596.728
49217.506
48524.604
29338.631
7575.5252
7608.0894
12467.366
12567.548
18431.863
18663.523
12657.743
12604.902
18682.992
18556.793
29502.574
49316.798
29078.791
49310.893
28874.58
48549.15
29407.217
49209.528
7531.8514
7400.7329
12706.803
12772.181
18653.355
18813.214
12695.27
12601.299
18710.266
18497.991
29269.373
48940.395
29549.55
49376.494
29463.633
28923.936
48964.86
48451.986
749.71532
751.97192
1974.2594
759.82061
758.4609
2016.2563
2026.5941
4504.5984
18748.187
4581.5343
4584.0717
18757.68
18516.322
2186.1461
782.06612
785.63636
2222.6857
3577.0686
3570.7326
6722.3496
6758.4691
3622.2541
6837.4545
3629.2325
6823.6391
12973.705
32365.181
13043.67
32804.107
13085.229
33188.529
13159.96
32695.865
39611.572
38834.668
12039.275
12081.78
12183.746
40286.912
39729.031
12179.895
39027.283
38767.097
11871.939
11880.476
37063.729
38367.76
11742.022
11663.615
38829.738
37858.459
11911.378
11989.255
39899.711
39620.364
12162.914
12200.329
40570.91
40009.243
12324.984
12391.036
40414.056
39559.917
12363.544
12330.555
21410.969
20916.691
7900.6456
7890.5515
36703.13
35613.079
11216.505
11277.502
38151.76
38074.111
11557.839
11611.931
21575.165
21921.355
8044.1451
7995.568
39473.259
38623.844
11824.397
11926.758
39573.68
39912.835
12126.048
12160.366
40126.058
39511.791
12170.854
12202.635
39572.744
40266.324
12136.253
12095.065
38676.713
11775.237
11790.504
39052.165
38192.644
37214.405
11630.014
11625.92
21894.504
22635.23
8329.3667
8221.5808
22657.883
22711.102
8452.0827
8336.1866
22512.432
22948.084
8455.3768
8504.2991
8493.3005
22853.122
22741.305
8582.2609
13406.851
13295.381
4509.4515
4482.2197
22716.196
22779.444
8404.4655
8515.52
8065.9557
21370.17
22374.148
8226.706
4512.3493
13348.389
14073.657
4669.3988
13991.675
4621.9122
13761.736
4604.8626
4055.9295
3995.6495
4164.9997
4208.2342
3079.3889
3136.3151
3390.2391
3437.7732
1257.5106
3192.9751
3157.5407
3526.9172
3485.9814
1256.1457
4349.0419
4127.0405
4165.9273
4306.3372
1124.3923
1118.9881
5473.095
5400.6319
4974.5938
4925.2334
5413.8131
5282.463
2001.6116
4906.5179
4808.1107
5083.8409
5016.6316
4947.4031
5000.3135
1986.8613
5038.9629
4941.7466
4941.4485
4853.6736
1988.7424
2015.5758
1671.8887
1486.4135
1500.2723
1670.5018
688.97369
4366.3555
4257.5424
4200.2361
4422.7968
3595.8848
3572.7574
3255.8784
3264.1108
1285.1443
4421.9791
4289.2233
4233.9711
4468.2931
3629.1326
3591.534
3248.6806
3290.1199
1278.3261
1140.5731
1130.9393
2001.4613
977.55778
966.96839
5285.5476
5291.885
4823.8767
4816.8392
4674.2026
4726.9361
4774.6064
4648.8742
4855.2875
4905.161
4936.2028
4827.559
4632.3772
5100.3568
5075.039
4641.1377
10005.5
10030.519
9241.3835
9268.3479
10165.38
9395.1626
10280.774
9482.2231
9719.6443
8768.9343
9807.2202
8825.2313
9561.2406
8620.9091
9579.0131
8632.8708
10434.302
10540.119
9631.4604
9728.9112
9438.7599
10223.531
10386.806
9568.318
9747.5029
9891.0176
8785.5142
8887.1245
9955.6136
10057.22
8964.0427
9045.2272
10071.947
10124.311
9650.0533
9699.5869
10172.091
10360.701
9772.6969
9918.2074
10367.262
9721.4789
10515.372
9830.9337
10227.041
10262.221
9567.5616
9600.3382
10459.245
9798.0186
10640.576
9936.9391
10501.333
10557.859
10061.819
10134.65
10283.508
9878.5341
10485.891
10035.522
10666.13
10754.163
9980.4009
10073.451
6875.7263
7089.3911
2737.5482
5941.0761
5784.4648
8012.5584
8316.4904
8126.9881
8421.8725
7023.6922
7311.0828
2716.4815
6158.4968
5892.1346
8209.6664
8554.5495
8349.453
8687.4318
2603.9441
2563.6013
7277.5601
7096.8558
2716.1731
5981.0095
6147.4422
8482.9332
8619.6323
8301.7792
8440.7394
8289.6473
8416.5395
8385.1483
8501.1515
7081.1989
7152.7852
2728.5942
6011.2347
5937.434
2584.3955
2559.2619
9281.2987
9371.0984
9101.2127
9171.0651
9500.1551
9340.5042
9326.1438
9167.8349
10071.034
9674.5797
9901.898
9507.0936
9804.5268
9389.9962
9873.5445
9445.4431
9203.9981
9045.5646
9595.9235
9417.6357
8929.3282
8757.4141
9292.2735
9079.6417
9406.4918
9020.5839
9779.3339
9335.1515
9745.2027
9355.759
10169.074
9746.4614
2286.8487
2121.4643
2071.9973
2240.605
2064.2694
2238.4731
2256.724
2262.3304
2584.0611
2748.1235
2569.5652
2736.4331
2602.3636
2569.3828
2722.6035
2745.5105
10501.687
10340.664
9821.4765
9671.799
10335.387
10166.503
9903.4563
9739.2964
10134.306
9465.8506
10176.149
9499.6151
10067.003
10013.903
9571.7853
9613.8733
9987.1261
9572.5152
10423.919
9963.7207
9601.6228
9196.5137
9957.6438
9493.8516
9718.8488
9093.1098
10055.312
9364.9394
10145.602
9495.5818
10577.809
9867.2849
9934.1957
10335.421
9184.2736
9507.701
9491.6949
9793.501
8784.4818
9016.2205
9078.5992
9328.2224
8220.7048
8397.1857
9499.6195
9839.5686
8580.861
8837.9682
9796.9689
8830.3542
9686.7452
8734.376
10274.733
9475.377
10132.264
9356.0792
9899.1879
9935.5867
9139.9306
9170.5636
9453.1776
8534.2745
9486.0437
8555.8137
10012.126
9642.402
10232.502
9817.4752
9639.6108
9630.6987
9496.3218
9502.6982
9421.4139
9297.7378
9631.363
9478.2111
10238.78
10255.791
9837.0071
9875.3579
8573.3463
8737.2049
8559.5759
8727.938
8403.4093
8562.14
8568.8747
8718.5945
7218.4754
7319.6158
6076.5565
6151.4855
7335.8106
7333.1612
6175.1084
6155.9883
7112.8087
7253.9316
6098.641
6001.9466
8282.0161
8432.6854
8482.0988
8632.8805
7050.093
7134.3416
6002.8095
5909.4495
8238.3618
8394.1401
8326.0744
8477.8947
9256.829
9108.4199
9337.237
9182.2751
9287.5703
9158.7483
9526.7155
9367.7379
9876.4523
9520.3357
10103.383
9701.4783
9818.1804
9434.6367
9884.4586
9497.207
14567.62
15163.159
14541.903
15203.413
15054.212
14314.766
14315.96
15062.67
15601.36
14930.652
15399.674
14741.016
15258.905
14485.41
15446.415
14664.406
15143.38
15942.617
15040.791
16068.793
15532.118
14681.922
14740.38
15616.343
15572.119
16315.499
15338.884
16553.029
15828.31
14915.379
16050.177
15122.931
16545.81
18033.938
16414.313
18145.514
16813.449
15503.878
15635.232
16956.99
17094.413
18619.666
16876.196
18783.673
17283.28
15873.917
17510.484
16110.424
19539.815
19585.988
17731.802
17821.271
18317.553
18462.476
20283.318
20324.781
18827.033
5291.0714
5281.957
5285.1561
5302.2485
19537.809
20805.691
20809.135
18889.047
18926.917
5459.1836
5438.8402
5363.9466
5404.5581
19993.074
4847.9486
4822.9666
4807.3728
4830.6643
4970.3921
4918.3403
4846.4675
4898.6143
12532.265
11886.938
12091.185
12871.056
13531.222
12871.539
13525.524
13123.054
12328.129
12310.993
13113.505
13178.925
13717.044
13036.957
13873.695
13856.329
14500.45
13858.034
14498.959
14177.094
13301.165
13290.576
14175.604
14850.979
14191.404
14684.852
14042.272
14385.009
13482.074
14528.449
13626.86
14246.608
14804.472
14246.655
14796.663
14757.361
14065.404
14066.076
14754.626
14577.418
14980.869
14403.891
15160.914
14928.724
14224.282
15103.001
14390.68
12386.526
12227.683
12514.403
12524.582
12683.662
12753.594
12882.919
12810.642
12534.66
12661.084
12846.108
12853.039
12988.722
13081.537
12949.516
13061.796
8669.8126
11761.2
11866.403
12190.045
12179.769
8651.6609
8761.7164
8797.8599
12430.806
12555.894
12778.752
12750.444
12394.092
12416.344
12241.465
12186.047
12814.816
12863.131
12804.121
12707.064
9097.9615
9239.2058
9005.7267
9137.5461
9283.3532
9338.7126
9313.5807
9418.8138
9231.8843
9388.5858
8830.069
5059.0594
9068.4029
5010.6194
5236.3851
5038.8935
5177.0092
5174.5504
640.48402
645.48454
632.35664
633.53838
781.47304
786.9892
781.70516
787.51083
4110.9164
4044.0523
2288.7076
4691.2605
4787.9521
4163.8434
4170.5908
2336.7318
4847.6705
4844.2731
2282.8272
4121.5028
4053.827
768.17673
770.11545
2312.2635
4126.8721
4155.7547
4109.7637
4133.7468
2315.2502
4816.3608
4780.4506
4086.5139
4089.3061
2294.8272
4753.5032
4758.7806
7372.269
7488.576
7488.9593
7529.7133
28644.449
49065.705
29051.499
49646.746
12505.435
12414.263
18358.179
18576.791
12501.914
12585.254
18590.736
18405.676
29001.956
28455.667
49627.496
49301.663
12638.804
12558.439
18468.464
18651.629
29057.537
49163.71
28928.217
49027.399
12635.788
12523.321
18450.421
18677.992
29073.258
28451.846
48812.757
48162.093
6330.3149
6330.5789
10519.271
10444.803
15917.594
15794.824
6311.7253
6286.3524
10472.903
10402.742
15729.95
15965.007
18941.41
19051.157
23426.597
23174.898
23520.413
19169.73
19202.762
23490.565
23489.11
19189.057
19248.419
23626.1
23295.821
18958.461
18972.205
23219.363
42043.521
27545.987
27671.726
42176.656
42070.434
27365.412
27206.392
41369.781
54066.178
66139.335
66200.888
54658.5
65547.927
66282.236
54621.718
54687.598
27186.914
27486.708
41047.019
41875.685
52588.984
65169.285
65724.61
53047.948
42584.852
27604.193
27502.821
41990.065
65916.438
66477.867
53779.858
54262.995
6271.0961
6262.273
10420.117
10311.841
15854.052
15583.711
6275.7199
6262.6171
10469.123
10381.102
15815.172
15923.783
23245.23
18991.901
19103.137
23501.383
19194.552
19215.07
23567.345
23520.3
23365.406
19062.651
19119.903
23497.645
23112.155
18788.316
23012.635
18789.725
41493.97
27277.514
27574.053
42166.17
27554.817
27653.222
42316.099
42454.518
66435.324
54898.963
54900.003
66221.096
54128.068
65774.427
66220.188
54687.427
27167.689
26984.937
40813.325
41543.811
66354.105
66587.529
54508.262
54184.584
54132.082
65732.072
65035.685
53653.766
27568.59
27442.362
42365.574
42032.366
6374.9245
6356.4598
10544.118
10453.636
15993.868
15742.357
6385.6848
6372.3683
10517.298
10607.265
15920.754
16047.557
15640.905
15843.02
18930.225
18807.817
23054.708
23335.702
23495.48
19122.355
19155.177
23471.603
15947.105
15773.601
19211.948
19143.123
23420.853
23576.149
23325.243
18988.625
19002.505
23249.811
27626.275
27461.491
42049.256
42433.989
54364.069
65840.005
66224.154
54731.243
42342.002
27395.643
27247.979
41753.601
65761.245
66336.222
54655.137
54630.427
27402.708
27058.376
40756.539
41661.911
53409.282
64983.737
65617.528
53687.209
42404.294
27568.799
27498.357
42081.926
65835.482
66288.653
54165.444
54435.169
6335.8945
6300.1745
10483.53
10441.564
6194.0886
6171.1754
10362.872
10225.802
19167.908
19058.707
23280.33
23528.462
23613.389
19279.316
19304.843
23573.828
23451.109
19180.688
19242.945
23595.523
18934.459
18932.475
23245.298
23143.161
27581.135
27283.22
41450.739
42291.556
54025.843
65453.633
66137.035
54462.258
42757.462
27672.735
27575.422
42369.123
66115.254
66569.61
54680.136
54871.122
42051.023
27482.159
27623.14
42342.353
42017.005
27289.773
27100.179
41222.15
54046.311
65917.506
66196.672
54348.836
65353.545
66101.117
53937.89
53464.941
771.05094
771.12097
2127.8058
781.31716
780.3406
2175.6881
2183.5159
3485.1527
3497.7438
6681.8408
6607.3943
13007.52
12860.701
33030.099
32513.603
3536.45
3587.8888
6805.1618
6696.1849
3574.8082
3568.5466
6713.3032
6770.1281
13021.925
13083.934
32606.891
32776.632
13051.605
12951.619
32647.651
32253.47
2279.35
4096.3198
4072.2908
769.30907
772.51919
2315.5515
4142.8834
4140.0112
7384.3049
7430.0222
7512.8901
7496.2145
12474.156
12411.53
18334.166
18502.942
28212.647
28776.187
48525.755
49305.858
12434.571
12547.638
18557.208
18327.27
29021.334
49738.755
28473.866
49270.024
12572.051
12468.119
18526.81
18317.065
28995.62
49516.874
29187.971
49754.47
12635.142
12585.695
18482.669
18625.961
28951.884
28312.061
49704.691
49201.053
41658.788
40860.07
42411.723
41672.66
41009.068
40784.512
38959.413
40418.129
40928.299
39854.849
42054.667
41668.407
42661.544
42072.435
42557.967
41555.841
11538.377
37784.749
38186.92
11592
36067.764
37382.869
11438.62
11375.649
38562.481
37284.73
40125.82
39917.44
11662.699
37820.398
38736.321
11734.952
39235.623
38505.763
11794.935
11782.302
41414.167
40577.035
41522.712
41971.549
42125.616
41585.405
41485.262
42258.102
40627.237
41018.166
40155.602
39108.199
39234.861
38049.43
11890.445
11967.244
40019.161
40325.997
12183.427
12260.594
39822.056
40425.67
12204.85
12282.016
12309.084
40350.033
39512.837
12291.221
39416.057
40098.028
12306.425
12345.611
12436.013
40762.031
40598.826
12533.673
40715.378
40044.597
12395.461
12495.707
39307.633
40391.491
12463.923
12401.271
21880.667
8141.1424
22342.995
8215.7004
21933.424
21670.148
8130.4334
8183.1515
40613.961
39956.353
12320.744
12382.996
39763.825
40653.801
12460.665
12423.427
38123.023
36706.07
11658.819
11805.535
39595.623
39712.906
12114.302
12163.058
21373.813
22543.531
8263.3624
8056.3756
23104.627
23203.828
8551.8238
8674.9556
8460.8724
22724.519
23537.135
8579.9962
22847.52
22455.16
8431.1053
8427.9659
9115.8388
9197.3601
8942.9113
9010.6168
9067.6207
8915.7802
9178.354
9008.7427
9606.6792
9223.7777
9722.8197
9310.9859
9626.4993
9212.8588
9696.2999
9274.23
6945.3661
6976.9212
2676.138
5855.961
5872.8413
6951.4314
7031.2365
2722.8173
5826.238
5924.2157
8097.2675
8231.3141
8168.4161
8302.6901
8130.8525
8217.5236
8266.2379
8342.4064
2528.9316
2582.8837
7219.03
7376.6242
2762.8671
6089.6175
6199.1263
7149.8082
7313.0995
2725.5311
6016.2037
6175.8514
8417.2843
8557.3875
8650.1112
8780.9662
8346.0834
8493.8295
8537.8611
8687.379
2604.5633
2566.3781
9959.2471
9563.0655
10232.433
9776.4542
9361.3054
9207.6865
9587.1446
9428.7521
9419.756
9260.947
9696.9805
9495.7278
9918.492
9529.6644
10172.123
9768.6462
2101.7791
2053.4029
2217.3865
2261.6132
2272.5904
2088.8643
2061.5556
2237.2331
10412.521
10602.256
9626.2459
9775.2191
10378.345
10467.202
9598.6323
9651.3664
9949.3791
10106.681
8976.8841
9085.9628
9918.4049
9987.2988
8955.685
8988.4982
10336.302
10589.767
9547.5869
9742.7268
10221.4
9832.5203
9106.4622
9394.4425
5286.3763
5213.9641
4759.7904
4798.701
9867.2006
10082.011
8895.6259
9044.2692
9717.1288
9406.0943
8515.7166
8726.126
10485.974
10049.314
10677.983
10226.096
10433.861
10015.129
10569.036
10101.284
10604.033
10710.852
9940.6354
10003.884
10641.961
10842.857
9964.3691
10134.174
4934.05
4848.9303
4779.3343
4837.1435
10436.49
9990.6061
10700.973
10220.215
10577.639
10844.245
9893.091
10112.076
9951.3117
9535.0137
10432.149
9926.2012
10513.564
10072.184
9431.6164
9778.2894
4810.0702
4873.9792
5080.354
4986.9542
5245.3306
4793.2263
5468.1079
4958.6651
4296.3997
4269.263
4102.037
4452.5512
3244.4917
3593.6038
3225.5373
3145.8578
3470.5653
1269.958
3536.7586
4173.783
4274.0352
4089.4781
4339.6279
1128.3291
9749.8443
9355.5906
10259.641
9777.6872
9665.661
9888.4526
9488.6481
9692.0666
9241.3834
9075.7303
9741.3459
9513.0382
10212.042
9789.9484
10456.361
10009.651
8642.004
8774.0072
8835.541
8956.3044
8292.5155
8411.1099
8717.1146
8815.3672
7126.2088
7426.099
6030.9861
2828.3254
6258.9214
7399.0259
7552.2454
2809.5688
6386.0761
6234.8077
2677.924
2640.5956
10176.106
10337.226
9789.5029
9899.1481
9700.0984
9831.0249
9528.3978
9659.7266
9601.0306
9456.611
9768.048
9584.2226
10251.409
10413.383
9837.7933
9995.9625
8673.2865
8811.8537
8774.4685
8914.6886
8583.6711
8729.7012
8720.1576
8849.603
7382.597
7459.9345
2809.6601
6255.6339
6312.2181
7442.0075
7522.9589
2838.4156
6288.9262
6381.7722
2633.4472
2664.0464
2342.6463
2163.8363
2104.3093
2291.5105
2120.7354
2100.5997
2293.6515
2314.6166
4905.4756
4897.0067
4911.8529
5379.6911
966.82931
1881.988
1687.2039
1627.5966
1822.914
1821.5694
1616.2268
1628.4994
1834.9825
1814.9962
1789.734
10132.494
10371.788
9368.822
9560.8612
10073.535
9310.1776
10270.126
9456.5613
9617.3389
8688.5247
9780.1642
8798.115
9691.0775
9888.8755
8756.3576
8901.7803
9252.7831
9305.0589
9981.9167
9919.0229
9842.1419
9944.2632
9425.1474
9499.6168
9882.3902
9816.7596
9376.2104
9434.3075
9984.4953
9336.5927
9396.3161
10072.49
10322.686
9658.2473
10538.682
9824.8123
10171.441
10437.538
9755.4078
9995.1652
10187.308
9764.498
10426.182
9949.6835
10341.423
10601.927
9688.1137
9911.3585
9328.4615
8434.2654
9384.5268
8461.3657
9670.518
9725.2817
8922.7114
8965.464
9762.515
9017.1587
9834.6879
9065.9111
9227.7437
9271.8884
8333.4965
8360.4961
14237.199
13499.611
13496.77
14223.032
14073.318
14108.458
13403.183
13397.917
12858.267
13740.982
12871.93
13731.729
13634.353
12790.587
13647.784
12787.723
13724.804
14454.344
13685.448
14507.855
13910.361
13040.288
13058.289
13945.469
13922.748
14651.409
13855.853
14695.494
14078.555
13172.115
14145.832
13239.608
12539.77
13230.382
12539.252
13239.19
12076.754
12737.758
12734.054
12111.149
13411.701
12690.77
13352.872
12638.978
12210.981
12833.344
12869.737
12194.943
13066.541
12373.232
12349.396
13041.273
11909.596
12572.999
12541.372
11904.975
12975.986
12967.552
12287.369
12287.198
11806.449
12461.245
11743.28
12473.492
14876.664
14077.83
14127.209
14938.749
15005.096
14981.115
14174.614
14222.747
14297.739
13382.706
13416.596
14350.209
14447.566
14397.796
13466.847
13520.082
13876.302
13013.299
13045.419
13934.816
13721.538
14440.92
13672.045
14507.18
14713.904
13921.194
14037.956
14836.361
14133.697
13228.164
13329.57
14255.824
13188.885
12498.553
12517.317
13220.489
13401.146
12687.545
12763.72
13498.826
12049.14
12680.7
11993.625
12704.277
12868.238
12223.599
12236.644
12939.545
13561.352
12838.888
12856.837
13591.59
13688.886
13642.776
12908.674
12949.978
13028.242
12359.64
12403.939
13046.382
13118.5
13090.221
12423.714
12385.989
15470.565
14895.962
14874.669
15436.176
15249.135
15289.989
14733.354
14709.773
15461.872
14753.101
14724.186
15426.981
15225.91
15285.683
14591.447
14546.222
15620.123
15082.663
15139.215
15683.221
15893.141
15310.581
15411.954
15986.811
15668.587
14982.25
15025.229
15720.753
15898.952
15176.458
15256.896
15980.152
14902.961
15502.677
14856.428
15547.362
15245.836
14252.599
14305.298
15305.842
15093.934
15707.509
15043.037
15765.233
15454.006
14437.171
15481.937
14488.603
15256.713
14596.603
14568.875
15215.01
14989.793
15076.54
14429.497
14355.147
14001.992
13989.491
14976.43
14946.787
14686.028
14792.704
13859.533
13819.248
14954.985
15576.372
14923.113
15616.183
15286.686
14274.273
14319.238
15341.994
15962.927
15276.195
15822.347
15153.834
15550.172
14517.349
15669.709
14634.731
16202.662
15607.722
15619.403
16214.666
16162.33
15601.144
15656.478
16207.59
15476.613
16197.566
15459.52
16210.121
15529.877
16214.939
15496.978
16244.665
15213.431
15736.375
15196.815
15764.246
15769.822
15085.144
15102.575
15797.064
15594.006
16016.087
15437.979
16185.572
16025.53
15303.2
16178.571
15442.312
15982.58
15298.727
15341.861
16013.397
16041.923
15371.676
16050.813
15383.574
14660.249
14726.287
15698.141
15762.826
15779.424
15792.23
14762.147
14788.91
19370.145
19444.156
17502.515
17619.36
18519.496
18583.923
20519.467
20513.594
5182.996
5176.2145
5300.4085
5296.5934
19742.12
18721.004
17756.134
16107.637
16287.747
17922.709
18831.113
17048.958
17172.423
18905.507
15353.63
16460.155
15145.423
16685.092
17595.039
16030.612
17465.22
16167.906
19907.07
19934.939
18102.68
18154.733
18693.892
18779.193
20545.243
20552.082
5419.8041
5211.3869
5255.2596
5467.5371
19716.524
19109.598
18421.445
16774.899
16875.005
18505.466
19027.167
17343.243
17495.809
19125.489
15865.917
17196.753
17327.98
15981.903
17960.201
16613.099
17795.348
16431.352
4756.4515
4736.0697
4845.6603
4829.9353
4846.4281
4698.0787
4757.9729
4922.6367
20363.85
20359.217
18615.785
18611.815
18286.311
18385.869
20109.386
20132.767
5294.6288
5418.9885
5470.8304
5331.7567
19285.161
19527.187
18959.21
18965.711
17345.316
17337.219
17786.159
16460.599
16471.143
17804.843
17114.148
18618.874
16953.089
18733.608
17400.143
16055.762
17572.359
16233.219
18852.106
18914.141
17133.044
17205.448
17652.11
16159.643
16234.12
17564.723
18779.241
18832.381
17144.206
17049.742
17467.374
17556.072
16048.004
16158.375
20405.391
20423.925
18520.857
18563.991
18448.671
18507.594
20350.193
20338.245
5276.7258
5303.488
5354.6402
5325.9023
19531.488
19592.952
4827.6023
4788.1463
4862.6966
4826.4595
4773.3262
4868.8861
4937.7914
4829.2026
16608.108
15622.059
15692.651
16688.925
16579.211
16475.173
15485.477
15596.003
15245.33
16124.467
15198.436
16191.679
16063.113
15139.572
15964.19
15039.931
16016.965
16943.118
16024.901
16952.195
16566.846
15687.476
15644.408
16546.582
15771.956
16532.329
15599.601
16709.028
16134.078
15254.732
16294.049
15397.594
15513.164
16218.375
15581.991
16161.617
15398.027
16156.358
16077.893
15318.015
15908.714
15259.972
15778.872
15145.695
14974.177
15713.969
15815.828
15064.679
15684.556
15012.075
15036.918
15724.036
14769.941
15541.193
15560.953
14779.415
15505.599
15595.57
14841.286
14928.726
14597.97
15429.643
14674.538
15351.322
15502.628
16310.909
15381.582
16446.692
15883.146
15011.528
15114.526
16013.009
16911.217
17099.297
15964.206
16153.969
16500.175
16693.2
15598.619
15788.295
15529.908
15763.042
14625.958
14826.786
15282.94
14409.361
15065.274
14228.868
15599.881
16459.156
15447.626
16602.302
15925.297
16077.239
14984.439
15134.011
14661.198
14854.86
14061.085
14227.187
14715.259
14001.681
14532.66
13845.101
15605.299
14923.444
15450.321
14773.72
15282.955
15440.414
14515.134
14667.117
14959.638
15502.488
14873.585
15609.53
14679.666
15410.187
15502.914
14754.891
16317.039
15659.365
16121.771
15471.768
15277.397
16038.644
16232.369
15461.353
4340.9451
4293.9331
4400.9354
4346.2493
3887.54
3758.5703
3795.7578
3925.1582
3838.5051
3712.0724
3726.8469
3876.9822
4300.1121
4233.2794
4295.3166
4396.5274
3749.9398
3809.2469
3943.759
3875.4242
3902.7378
4286.7519
4361.0386
4438.5156
4353.5934
4379.7252
4316.9894
4337.0629
4401.886
4319.1879
4306.7929
4376.8145
4395.6192
4403.7195
4393.0022
4828.4455
4791.9445
4846.9822
4883.4386
5303.5946
5390.3252
5440.5592
5359.7069
4902.8611
4834.7798
4829.4211
4901.9023
5378.6863
5378.3161
5460.9558
5472.6983
4803.6545
4762.2348
4793.5939
4844.5175
4840.5533
4782.1951
4826.8137
4886.9131
5337.1188
5274.3299
5355.268
5417.1159
5288.8621
5224.2037
5275.1158
5348.1933
4366.0325
15775.301
15099.833
15016.81
15695.961
15387.822
14745.921
15435.384
14776.104
14394.533
15485.791
14462.575
15406.107
15164.077
14213.816
15149.985
14176.888
15960.003
15391.688
15309.327
15874.073
15527.245
14971.025
15046.689
15608.443
15181.018
15981.755
15261.646
15899.236
14925.682
15556.934
14863.551
15623.066
14372.638
15012.061
14356.001
15031.094
14714.461
13788.624
13804.795
14740.423
14875.193
14232.935
14822.786
14178.834
14517.371
13632.04
14574.065
13718.273
15092.618
15163.945
14599.175
14529.55
15280.501
14698.533
14710.699
15291.166
15259.648
15241.933
14534.621
14548.041
14364.043
15055.606
15118.5
14424.09
14737.506
15201.772
14651.965
15292.085
15205.291
14524.754
14617.918
15310.058
15443.468
15828.802
15256.642
16022.898
15838.505
15118.081
16032.693
15296.42
14307.066
14483.446
13796.525
13955.422
14468.583
13816.019
14285.11
13652.489
14598.001
15013.907
14443.63
15175.199
14973.042
15134.7
14274.884
14426.803
14073.86
13651.387
13478.631
14265.861
13782.16
13985.033
12956.908
13110.754
14899.774
14236.568
14738.971
14094.035
13517.356
14435.968
14582.958
13667.687
14477.798
15012.479
14375.179
15124.634
13813.569
14742.637
14867.786
13918.678
15813.32
15119.037
15631.006
14962.074
14351.875
15345.537
15497.742
14513.996
14052.149
13343.017
13433.969
14165.151
14768.38
14588.563
13833.882
13996.81
13576.17
12733.991
12805.233
13678.205
14236.145
14061.588
13156.25
13302.43
13183.446
12566.599
12683.445
13341.387
13744.228
13051.824
13200.306
13911.672
12806.889
12054.811
12131.733
12924.469
13278.901
12448.461
12578.196
13435.839
12248.725
11636.154
11685.373
12324.375
12630.095
11972.019
12075.069
12762.213
11830.804
11218.155
11273.651
11880.97
12159.312
11557.815
11592.771
12260.816
12920.658
12249.26
12302.192
12996.354
13483.338
13334.785
12623.558
12740.875
12443.297
11817.93
11883.8
12501.286
12918.938
12804.521
12144.294
12176.284
13406.634
12655.502
12692.93
13369.185
12211.171
12890.233
12854.749
12218.262
12555.734
13220.091
12521.539
13263.833
12118.35
12723.029
12745.246
12090.489
14677.316
13894.831
13851.482
14619.906
13220.485
14121.693
14086.866
13184
14419.316
14458.335
13671.849
13719.853
13030.818
13963.817
13079.073
13912.003
14038.34
13332.712
13344.353
14057.627
13993.925
13888.257
13213.332
13316.444
12721.822
13578.966
12729.996
13587.941
13565.249
12713.643
13454.661
12618.319
12925.286
12910.998
12243.418
12224.522
11790.9
12419.093
11791.399
12440.556
12804.11
12137.887
12215.452
12900.501
11679.385
12318.84
11671.118
12398.459
15379.621
15941.629
15350.798
15993.697
15911.874
15195.743
15210.756
15942.776
16486.148
15827.401
16298.014
15653.155
16227.665
15457.684
16403.667
15622.312
17256.918
16310.701
16358.046
17305.685
17052.593
16953.695
16060.232
16167.847
15984.303
16860.939
15959.393
16899.682
16705.087
15859.444
16623.174
15770.7
15787.026
16564.684
15703.844
16677.007
16233.789
15421.531
15471.387
16315.275
16309.816
17040.69
16099.779
17250.869
16645.5
15758.6
16850.374
15947.219
16495.157
15840.853
15851.941
16511.73
16326.306
15712.466
16392.233
15784.001
15640.485
15651.018
16420.713
16429.902
16364.704
16314.927
15573.995
15636.63
19266.923
19296.632
17629.356
17672.493
18152.188
16756.185
16802.382
18101.673
18850.626
18905.936
17374.295