/*--------------------------------*- C++ -*----------------------------------*\
  =========                 |
  \\      /  F ield         | OpenFOAM: The Open Source CFD Toolbox
   \\    /   O peration     | Website:  https://openfoam.org
    \\  /    A nd           | Version:  7
     \\/     M anipulation  |
\*---------------------------------------------------------------------------*/
FoamFile
{
    version     2.0;
    format      ascii;
    class       volScalarField;
    location    "2000";
    object      p;
}
// * * * * * * * * * * * * * * * * * * * * * * * * * * * * * * * * * * * * * //

dimensions      [0 2 -2 0 0 0 0];

internalField   nonuniform List<scalar> 
33730
(
-1.4244534e+183
-1.3266431e+183
-1.438766e+183
-1.393697e+183
-1.3708256e+183
-1.3890214e+183
-1.4184935e+183
-1.3665859e+183
-1.2456696e+183
-1.3254338e+183
-1.3205188e+183
-1.3178321e+183
-1.4039018e+183
-1.3988525e+183
-1.3986689e+183
-1.4035733e+183
-1.4282729e+183
-1.3774082e+183
-1.3579878e+183
-1.374968e+183
-1.3602639e+183
-1.3695571e+183
-1.3724724e+183
-1.3526979e+183
-1.3848914e+183
-1.3554461e+183
-1.3797179e+183
-1.3628244e+183
-1.358089e+183
-1.4065825e+183
-1.2373454e+183
-1.2815228e+183
-1.2328098e+183
-1.2205428e+183
-1.2601988e+183
-1.2648748e+183
-1.2249585e+183
-1.2766253e+183
-1.2370655e+183
-1.3320596e+183
-1.3295275e+183
-1.3243914e+183
-1.3271389e+183
-1.3162952e+183
-1.3117222e+183
-1.3808156e+183
-1.3745194e+183
-1.3769168e+183
-1.3832373e+183
-1.3934159e+183
-1.375439e+183
-1.3690966e+183
-1.3718804e+183
-1.3782119e+183
-1.3936325e+183
-1.3787461e+183
-1.3769126e+183
-1.3814815e+183
-1.3797191e+183
-1.38658e+183
-1.3823272e+183
-1.3841443e+183
-1.3847834e+183
-1.4161722e+183
-1.3879687e+183
-1.3883091e+183
-1.3669426e+183
-1.3680511e+183
-1.3546792e+183
-1.3557278e+183
-1.3642739e+183
-1.3520745e+183
-1.3657085e+183
-1.3534127e+183
-1.3587627e+183
-1.3672373e+183
-1.3466606e+183
-1.3603748e+183
-1.3481148e+183
-1.3618471e+183
-1.3631893e+183
-1.3496366e+183
-1.3509683e+183
-1.3506074e+183
-1.364496e+183
-1.3480897e+183
-1.3617463e+183
-1.3588888e+183
-1.3747249e+183
-1.3427244e+183
-1.3453812e+183
-1.352945e+183
-1.3687457e+183
-1.3469182e+183
-1.2288426e+183
-1.2683869e+183
-1.2248657e+183
-1.2123285e+183
-1.2512287e+183
-1.2560556e+183
-1.2165172e+183
-1.2724981e+183
-1.3059492e+183
-1.3034481e+183
-1.2799279e+183
-1.2775855e+183
-1.2313627e+183
-1.233442e+183
-1.2540721e+183
-1.2515823e+183
-1.1922999e+183
-1.1960903e+183
-1.274992e+183
-1.2723534e+183
-1.2982897e+183
-1.3009915e+183
-1.256574e+183
-1.2357165e+183
-1.2380273e+183
-1.2587587e+183
-1.2694471e+183
-1.2589283e+183
-1.2495319e+183
-1.2401352e+183
-1.2201806e+183
-1.3060205e+183
-1.2926046e+183
-1.2801191e+183
-1.3380385e+183
-1.3368252e+183
-1.3343028e+183
-1.335562e+183
-1.3291343e+183
-1.3221989e+183
-1.3305358e+183
-1.3333481e+183
-1.3319586e+183
-1.3194557e+183
-1.3169652e+183
-1.3145645e+183
-1.3070423e+183
-1.356631e+183
-1.3514495e+183
-1.3595069e+183
-1.3527486e+183
-1.3553455e+183
-1.3620133e+183
-1.3702651e+183
-1.3638999e+183
-1.3665174e+183
-1.3728995e+183
-1.3543231e+183
-1.3475546e+183
-1.3502469e+183
-1.3569543e+183
-1.3736202e+183
-1.3762379e+183
-1.3717522e+183
-1.3744289e+183
-1.3652412e+183
-1.3638518e+183
-1.3669147e+183
-1.3683283e+183
-1.3674896e+183
-1.3689147e+183
-1.3661245e+183
-1.3646107e+183
-1.3678765e+183
-1.3666049e+183
-1.3709856e+183
-1.3696765e+183
-1.3703198e+183
-1.3716458e+183
-1.367577e+183
-1.3689117e+183
-1.371763e+183
-1.3728541e+183
-1.3759591e+183
-1.374815e+183
-1.3729193e+183
-1.3742686e+183
-1.3714961e+183
-1.3701241e+183
-1.3705178e+183
-1.3691549e+183
-1.3736216e+183
-1.3722529e+183
-1.3754932e+183
-1.3766366e+183
-1.3727466e+183
-1.3738772e+183
-1.3764167e+183
-1.3824886e+183
-1.3770732e+183
-1.383059e+183
-1.364411e+183
-1.3580038e+183
-1.3610113e+183
-1.367409e+183
-1.3678963e+183
-1.3707819e+183
-1.3661358e+183
-1.3689817e+183
-1.360137e+183
-1.3519428e+183
-1.3608196e+183
-1.3525941e+183
-1.3613652e+183
-1.3618276e+183
-1.3536272e+183
-1.353164e+183
-1.3574666e+183
-1.3581338e+183
-1.3493495e+183
-1.34993e+183
-1.35884e+183
-1.3506175e+183
-1.3595398e+183
-1.3513308e+183
-1.3576459e+183
-1.3520209e+183
-1.3528222e+183
-1.3439534e+183
-1.3446573e+183
-1.3563276e+183
-1.3443379e+183
-1.3455993e+183
-1.3536281e+183
-1.3454365e+183
-1.3544033e+183
-1.3462424e+183
-1.3550807e+183
-1.3558567e+183
-1.3476991e+183
-1.3469574e+183
-1.3565208e+183
-1.3570351e+183
-1.3489213e+183
-1.3483655e+183
-1.3531654e+183
-1.3548881e+183
-1.3412421e+183
-1.3428549e+183
-1.3503099e+183
-1.3518144e+183
-1.3384568e+183
-1.3398731e+183
-1.3566732e+183
-1.3370819e+183
-1.3488924e+183
-1.3475014e+183
-1.3358569e+183
-1.3380658e+183
-1.3541688e+183
-1.3405614e+183
-1.3514753e+183
-1.3352299e+183
-1.2496155e+183
-1.2293743e+183
-1.2271042e+183
-1.247264e+183
-1.188686e+183
-1.2912572e+183
-1.2890272e+183
-1.2658128e+183
-1.2636742e+183
-1.2640335e+183
-1.2206811e+183
-1.2430687e+183
-1.2228567e+183
-1.2452937e+183
-1.225008e+183
-1.1847634e+183
-1.2935146e+183
-1.2702481e+183
-1.2678339e+183
-1.2961128e+183
-1.3053524e+183
-1.3042015e+183
-1.3204121e+183
-1.3216268e+183
-1.3029135e+183
-1.3016822e+183
-1.3179049e+183
-1.3191281e+183
-1.2797044e+183
-1.2786402e+183
-1.2910255e+183
-1.2920852e+183
-1.2884988e+183
-1.2773679e+183
-1.2761263e+183
-1.289746e+183
-1.2312244e+183
-1.2403196e+183
-1.2322557e+183
-1.2414479e+183
-1.2124167e+183
-1.2332667e+183
-1.2425778e+183
-1.2440608e+183
-1.2346034e+183
-1.2142866e+183
-1.2534937e+183
-1.2519725e+183
-1.2626097e+183
-1.2641453e+183
-1.2507484e+183
-1.2496079e+183
-1.2601162e+183
-1.2613241e+183
-1.192398e+183
-1.1942126e+183
-1.2162171e+183
-1.2184436e+183
-1.2859838e+183
-1.2734383e+183
-1.2874226e+183
-1.2749454e+183
-1.2721071e+183
-1.2708265e+183
-1.2832531e+183
-1.2846303e+183
-1.2978932e+183
-1.2965233e+183
-1.3128282e+183
-1.3142042e+183
-1.3155872e+183
-1.299247e+183
-1.3006645e+183
-1.3169785e+183
-1.2654372e+183
-1.2562762e+183
-1.2549058e+183
-1.2666808e+183
-1.2468806e+183
-1.2454444e+183
-1.2359153e+183
-1.2373151e+183
-1.2384328e+183
-1.2479544e+183
-1.2395133e+183
-1.2489604e+183
-1.2583858e+183
-1.2573588e+183
-1.2678773e+183
-1.2689517e+183
-1.268385e+183
-1.2737788e+183
-1.2684201e+183
-1.273813e+183
-1.2584563e+183
-1.2633402e+183
-1.2584998e+183
-1.2633937e+183
-1.2490071e+183
-1.2537496e+183
-1.2491347e+183
-1.2538159e+183
-1.2444064e+183
-1.2445454e+183
-1.2397242e+183
-1.2310655e+183
-1.239864e+183
-1.2447095e+183
-1.2315852e+183
-1.2400565e+183
-1.2218859e+183
-1.2224879e+183
-1.3050427e+183
-1.3131935e+183
-1.3053079e+183
-1.2911103e+183
-1.2979951e+183
-1.2912713e+183
-1.2982032e+183
-1.2791913e+183
-1.2850285e+183
-1.2792536e+183
-1.2851593e+183
-1.3424379e+183
-1.3418995e+183
-1.3406888e+183
-1.3413247e+183
-1.3381725e+183
-1.3386533e+183
-1.3392905e+183
-1.3400762e+183
-1.3329354e+183
-1.3336041e+183
-1.328006e+183
-1.3265655e+183
-1.3343412e+183
-1.3351913e+183
-1.3372003e+183
-1.3378206e+183
-1.3358611e+183
-1.336556e+183
-1.3251019e+183
-1.323521e+183
-1.3206896e+183
-1.3221903e+183
-1.3194868e+183
-1.3184273e+183
-1.3125207e+183
-1.3097049e+183
-1.3071801e+183
-1.3460681e+183
-1.3404537e+183
-1.3133053e+183
-1.3081313e+183
-1.3377987e+183
-1.3590251e+183
-1.3603257e+183
-1.331814e+183
-1.3344681e+183
-1.340449e+183
-1.3615551e+183
-1.3627323e+183
-1.3489735e+183
-1.3421772e+183
-1.3450014e+183
-1.3517426e+183
-1.3328838e+183
-1.3539245e+183
-1.3552812e+183
-1.3267575e+183
-1.3293662e+183
-1.335303e+183
-1.3565374e+183
-1.3578013e+183
-1.3615146e+183
-1.3584794e+183
-1.3630099e+183
-1.3599618e+183
-1.3613594e+183
-1.3626167e+183
-1.3643744e+183
-1.3656768e+183
-1.3590662e+183
-1.3620474e+183
-1.363543e+183
-1.3606721e+183
-1.3662441e+183
-1.3620816e+183
-1.3649426e+183
-1.3634008e+183
-1.3580472e+183
-1.3594032e+183
-1.3619293e+183
-1.3626442e+183
-1.3620223e+183
-1.3613111e+183
-1.3633378e+183
-1.3640489e+183
-1.3633969e+183
-1.3627258e+183
-1.3620987e+183
-1.3628094e+183
-1.3585701e+183
-1.3592925e+183
-1.3606142e+183
-1.3569862e+183
-1.3613672e+183
-1.3577636e+183
-1.3619513e+183
-1.3606854e+183
-1.3640557e+183
-1.3647244e+183
-1.3647495e+183
-1.3654301e+183
-1.3653925e+183
-1.3659931e+183
-1.3660534e+183
-1.3666875e+183
-1.3635068e+183
-1.36424e+183
-1.3607714e+183
-1.3600155e+183
-1.3654563e+183
-1.3614378e+183
-1.3619601e+183
-1.3648684e+183
-1.366853e+183
-1.3656696e+183
-1.3666009e+183
-1.3672707e+183
-1.3672943e+183
-1.3679609e+183
-1.3679195e+183
-1.3685224e+183
-1.3685844e+183
-1.369221e+183
-1.3673759e+183
-1.3638562e+183
-1.3680032e+183
-1.3644984e+183
-1.3660339e+183
-1.3624661e+183
-1.3667188e+183
-1.3631377e+183
-1.3644585e+183
-1.363176e+183
-1.3691209e+183
-1.3697663e+183
-1.3698221e+183
-1.3704702e+183
-1.3703547e+183
-1.3708837e+183
-1.3710343e+183
-1.3715795e+183
-1.3686133e+183
-1.3651196e+183
-1.3692742e+183
-1.3657831e+183
-1.3698315e+183
-1.3703383e+183
-1.3663505e+183
-1.3668078e+183
-1.3493616e+183
-1.3460051e+183
-1.3559933e+183
-1.3552785e+183
-1.3524806e+183
-1.3589943e+183
-1.3617529e+183
-1.3598144e+183
-1.3584387e+183
-1.362753e+183
-1.3653802e+183
-1.3612147e+183
-1.3637701e+183
-1.3430246e+183
-1.3363171e+183
-1.3393916e+183
-1.34607e+183
-1.3541158e+183
-1.3525761e+183
-1.3557029e+183
-1.357218e+183
-1.3556576e+183
-1.358702e+183
-1.3570733e+183
-1.3601331e+183
-1.3563276e+183
-1.3533738e+183
-1.3577721e+183
-1.3547847e+183
-1.3606675e+183
-1.3562429e+183
-1.3592623e+183
-1.3576947e+183
-1.3545955e+183
-1.354231e+183
-1.3499393e+183
-1.3502815e+183
-1.3506103e+183
-1.3549343e+183
-1.3552343e+183
-1.3509321e+183
-1.3557851e+183
-1.3554931e+183
-1.3511829e+183
-1.3514695e+183
-1.3562066e+183
-1.3560299e+183
-1.3517158e+183
-1.3518943e+183
-1.3518913e+183
-1.3516298e+183
-1.3473538e+183
-1.3475825e+183
-1.352216e+183
-1.352519e+183
-1.3478836e+183
-1.3482129e+183
-1.3532506e+183
-1.3528508e+183
-1.3485343e+183
-1.3489306e+183
-1.3536287e+183
-1.3539511e+183
-1.3493065e+183
-1.3496587e+183
-1.3509204e+183
-1.3514948e+183
-1.3434445e+183
-1.3428427e+183
-1.346599e+183
-1.3462266e+183
-1.3419686e+183
-1.3422995e+183
-1.3470182e+183
-1.3474034e+183
-1.3426919e+183
-1.3431011e+183
-1.3494184e+183
-1.3502405e+183
-1.3421531e+183
-1.3413691e+183
-1.348245e+183
-1.3478006e+183
-1.3434867e+183
-1.3439285e+183
-1.3489969e+183
-1.3486583e+183
-1.3443404e+183
-1.34471e+183
-1.3496535e+183
-1.3492782e+183
-1.345004e+183
-1.3453665e+183
-1.3503574e+183
-1.350023e+183
-1.345735e+183
-1.3460923e+183
-1.3506677e+183
-1.3463878e+183
-1.3467279e+183
-1.3510275e+183
-1.3512994e+183
-1.3514822e+183
-1.3470152e+183
-1.3472115e+183
-1.3461463e+183
-1.347027e+183
-1.3389434e+183
-1.3381341e+183
-1.3478806e+183
-1.3486734e+183
-1.340605e+183
-1.3397872e+183
-1.3432016e+183
-1.3440466e+183
-1.3352107e+183
-1.3359918e+183
-1.3367748e+183
-1.34482e+183
-1.3454987e+183
-1.3374817e+183
-1.34539e+183
-1.3465392e+183
-1.3349376e+183
-1.3338236e+183
-1.3418844e+183
-1.3425506e+183
-1.3339229e+183
-1.3345715e+183
-1.3327541e+183
-1.3405711e+183
-1.3412045e+183
-1.3332947e+183
-1.3310419e+183
-1.342639e+183
-1.3441371e+183
-1.3324751e+183
-1.340068e+183
-1.328529e+183
-1.341432e+183
-1.3298504e+183
-1.2486208e+183
-1.2473276e+183
-1.2577572e+183
-1.2590623e+183
-1.2289136e+183
-1.2302598e+183
-1.2380528e+183
-1.2393379e+183
-1.2105356e+183
-1.2265721e+183
-1.2277396e+183
-1.2356777e+183
-1.2368695e+183
-1.2083339e+183
-1.2553106e+183
-1.2461e+183
-1.2449038e+183
-1.2565512e+183
-1.1908085e+183
-1.1885861e+183
-1.2899373e+183
-1.288551e+183
-1.3059686e+183
-1.3045117e+183
-1.2875014e+183
-1.2865491e+183
-1.2869898e+183
-1.3033888e+183
-1.3023954e+183
-1.2647332e+183
-1.2635052e+183
-1.275609e+183
-1.276899e+183
-1.2615949e+183
-1.2624737e+183
-1.2745943e+183
-1.2615852e+183
-1.2736266e+183
-1.2590264e+183
-1.2841652e+183
-1.2387068e+183
-1.2187003e+183
-1.2208946e+183
-1.2409978e+183
-1.1808775e+183
-1.2511037e+183
-1.2417538e+183
-1.2407546e+183
-1.2519999e+183
-1.2325731e+183
-1.2315115e+183
-1.2223777e+183
-1.2234085e+183
-1.2042125e+183
-1.2530484e+183
-1.2439357e+183
-1.2427893e+183
-1.2542325e+183
-1.2347451e+183
-1.2336077e+183
-1.2244443e+183
-1.2256271e+183
-1.2063583e+183
-1.1849705e+183
-1.1868771e+183
-1.2817083e+183
-1.1657071e+183
-1.167438e+183
-1.2926578e+183
-1.2912304e+183
-1.3072824e+183
-1.3088133e+183
-1.282095e+183
-1.2683627e+183
-1.2696848e+183
-1.2807602e+183
-1.2781227e+183
-1.2671701e+183
-1.2658771e+183
-1.279531e+183
-1.310231e+183
-1.2953617e+183
-1.2939644e+183
-1.3116853e+183
-1.3043833e+183
-1.3048087e+183
-1.3124734e+183
-1.3129152e+183
-1.3032171e+183
-1.3112588e+183
-1.3038551e+183
-1.3119336e+183
-1.3197974e+183
-1.3301958e+183
-1.3204487e+183
-1.3308354e+183
-1.321008e+183
-1.3314174e+183
-1.3215181e+183
-1.3319616e+183
-1.3017437e+183
-1.3025495e+183
-1.3098295e+183
-1.3106038e+183
-1.3087495e+183
-1.300651e+183
-1.3011059e+183
-1.3092055e+183
-1.3173027e+183
-1.3177393e+183
-1.3276976e+183
-1.3281415e+183
-1.31836e+183
-1.3191523e+183
-1.3287697e+183
-1.3295673e+183
-1.2788336e+183
-1.2791524e+183
-1.2846496e+183
-1.2849564e+183
-1.2776826e+183
-1.2783383e+183
-1.283491e+183
-1.28416e+183
-1.289469e+183
-1.2962706e+183
-1.2901184e+183
-1.2969068e+183
-1.2906112e+183
-1.2909646e+183
-1.2974173e+183
-1.2978152e+183
-1.2868773e+183
-1.2936808e+183
-1.2873688e+183
-1.2941385e+183
-1.2762104e+183
-1.2770025e+183
-1.2820223e+183
-1.2828148e+183
-1.2750194e+183
-1.2808495e+183
-1.2755644e+183
-1.2813839e+183
-1.2879871e+183
-1.2887942e+183
-1.2947755e+183
-1.2955963e+183
-1.2348983e+183
-1.2354101e+183
-1.2226056e+183
-1.2308687e+183
-1.2304308e+183
-1.2393545e+183
-1.2398973e+183
-1.2440796e+183
-1.2446205e+183
-1.2359698e+183
-1.2366191e+183
-1.2235055e+183
-1.23203e+183
-1.2314061e+183
-1.2404696e+183
-1.2411449e+183
-1.2452083e+183
-1.2459023e+183
-1.2139708e+183
-1.2147691e+183
-1.2371591e+183
-1.2377906e+183
-1.2243709e+183
-1.2331028e+183
-1.232543e+183
-1.2417144e+183
-1.2464905e+183
-1.2423809e+183
-1.2471616e+183
-1.2431108e+183
-1.2478849e+183
-1.2439538e+183
-1.2487313e+183
-1.2384696e+183
-1.2392966e+183
-1.225593e+183
-1.2345634e+183
-1.2337427e+183
-1.2166369e+183
-1.2155019e+183
-1.2526225e+183
-1.2534545e+183
-1.2576176e+183
-1.2584184e+183
-1.2512533e+183
-1.2562274e+183
-1.251927e+183
-1.256922e+183
-1.2613414e+183
-1.2668422e+183
-1.2620356e+183
-1.2675439e+183
-1.2627442e+183
-1.2682642e+183
-1.2635324e+183
-1.2690354e+183
-1.2499468e+183
-1.2549133e+183
-1.250648e+183
-1.2556144e+183
-1.2487952e+183
-1.2537066e+183
-1.2493478e+183
-1.2543054e+183
-1.2587625e+183
-1.2642119e+183
-1.2593744e+183
-1.2648408e+183
-1.2599986e+183
-1.2654804e+183
-1.2607185e+183
-1.2662168e+183
-1.2057229e+183
-1.1973963e+183
-1.1980574e+183
-1.2064699e+183
-1.1986507e+183
-1.2071025e+183
-1.2082153e+183
-1.2091622e+183
-1.2176831e+183
-1.2267691e+183
-1.2189097e+183
-1.2281063e+183
-1.2211133e+183
-1.2199547e+183
-1.2292026e+183
-1.2303537e+183
-1.2843762e+183
-1.2850821e+183
-1.2912737e+183
-1.2919555e+183
-1.2723438e+183
-1.2730536e+183
-1.2782629e+183
-1.2789927e+183
-1.2857642e+183
-1.2926366e+183
-1.2864414e+183
-1.2932889e+183
-1.2745121e+183
-1.2737688e+183
-1.2796946e+183
-1.280389e+183
-1.2709638e+183
-1.2768751e+183
-1.2717104e+183
-1.2776215e+183
-1.2696631e+183
-1.2755325e+183
-1.270309e+183
-1.2762085e+183
-1.2815944e+183
-1.2884557e+183
-1.2822591e+183
-1.2891246e+183
-1.2829411e+183
-1.2898255e+183
-1.2837178e+183
-1.2906272e+183
-1.2968231e+183
-1.2976241e+183
-1.3049941e+183
-1.3057737e+183
-1.295416e+183
-1.2961124e+183
-1.30354e+183
-1.3042773e+183
-1.3121716e+183
-1.3128744e+183
-1.322573e+183
-1.3232455e+183
-1.3135928e+183
-1.3143991e+183
-1.3239709e+183
-1.324808e+183
-1.3150466e+183
-1.3254577e+183
-1.315725e+183
-1.3261312e+183
-1.2982625e+183
-1.3064079e+183
-1.2989406e+183
-1.3071108e+183
-1.2996087e+183
-1.3002454e+183
-1.3077657e+183
-1.3083622e+183
-1.3163679e+183
-1.3267804e+183
-1.316969e+183
-1.3273967e+183
-1.2641344e+183
-1.2695651e+183
-1.2647655e+183
-1.2701279e+183
-1.2556202e+183
-1.2563551e+183
-1.260448e+183
-1.2611765e+183
-1.2541803e+183
-1.2590801e+183
-1.2549176e+183
-1.2597809e+183
-1.2653946e+183
-1.2661498e+183
-1.2707651e+183
-1.2715523e+183
-1.246274e+183
-1.2509695e+183
-1.2470099e+183
-1.2517051e+183
-1.244734e+183
-1.249487e+183
-1.2455545e+183
-1.2502466e+183
-1.2400612e+183
-1.2409141e+183
-1.2352896e+183
-1.2361008e+183
-1.2416171e+183
-1.2423596e+183
-1.2375517e+183
-1.2368164e+183
-1.2428825e+183
-1.2433826e+183
-1.2385808e+183
-1.2380874e+183
-1.24749e+183
-1.2522369e+183
-1.2480076e+183
-1.2527808e+183
-1.2438507e+183
-1.244255e+183
-1.2395237e+183
-1.2390708e+183
-1.2484631e+183
-1.2532531e+183
-1.2488519e+183
-1.2536265e+183
-1.2579918e+183
-1.2629251e+183
-1.2583482e+183
-1.2632569e+183
-1.2569372e+183
-1.2618057e+183
-1.2575122e+183
-1.2624373e+183
-1.2668192e+183
-1.2722398e+183
-1.2674687e+183
-1.2728952e+183
-1.2679662e+183
-1.2733993e+183
-1.2683045e+183
-1.2737326e+183
-1.2704037e+183
-1.2678455e+183
-1.2704272e+183
-1.2678078e+183
-1.2730328e+183
-1.2757781e+183
-1.2757289e+183
-1.2729945e+183
-1.2678643e+183
-1.2704472e+183
-1.2678132e+183
-1.2704034e+183
-1.273002e+183
-1.2757488e+183
-1.2730585e+183
-1.2758252e+183
-1.260518e+183
-1.2582063e+183
-1.2605336e+183
-1.2581899e+183
-1.2628875e+183
-1.2653538e+183
-1.2653078e+183
-1.2628559e+183
-1.2605538e+183
-1.2581918e+183
-1.2605187e+183
-1.258227e+183
-1.262865e+183
-1.2653221e+183
-1.2629068e+183
-1.2653738e+183
-1.2513344e+183
-1.2490684e+183
-1.2513078e+183
-1.2490918e+183
-1.2535844e+183
-1.2558858e+183
-1.2558706e+183
-1.2535918e+183
-1.2514346e+183
-1.249187e+183
-1.2513843e+183
-1.2492376e+183
-1.2536102e+183
-1.2558813e+183
-1.2536551e+183
-1.2559157e+183
-1.244083e+183
-1.2441056e+183
-1.2467624e+183
-1.2467791e+183
-1.246886e+183
-1.2469409e+183
-1.2441998e+183
-1.2442569e+183
-1.2403627e+183
-1.2356312e+183
-1.2314833e+183
-1.2316682e+183
-1.2357831e+183
-1.240526e+183
-1.2443079e+183
-1.2443695e+183
-1.2469538e+183
-1.2469984e+183
-1.2360008e+183
-1.2318992e+183
-1.2321071e+183
-1.2362298e+183
-1.24066e+183
-1.2274457e+183
-1.223383e+183
-1.2236182e+183
-1.2276481e+183
-1.2278742e+183
-1.2238603e+183
-1.2241376e+183
-1.2281129e+183
-1.3215134e+183
-1.3269143e+183
-1.3323979e+183
-1.3083303e+183
-1.3042045e+183
-1.3082033e+183
-1.3042876e+183
-1.3122212e+183
-1.3168691e+183
-1.3169899e+183
-1.3123426e+183
-1.3086673e+183
-1.3044103e+183
-1.3084647e+183
-1.3046059e+183
-1.2936422e+183
-1.2902508e+183
-1.2935722e+183
-1.2902888e+183
-1.2969088e+183
-1.3005892e+183
-1.3006485e+183
-1.2969668e+183
-1.2904915e+183
-1.2938471e+183
-1.2903527e+183
-1.2937117e+183
-1.2970604e+183
-1.3007641e+183
-1.297218e+183
-1.3009434e+183
-1.281292e+183
-1.278488e+183
-1.2813095e+183
-1.2784488e+183
-1.2841367e+183
-1.2871913e+183
-1.2872029e+183
-1.2841306e+183
-1.2814302e+183
-1.2784746e+183
-1.2813309e+183
-1.2785654e+183
-1.2841816e+183
-1.2872648e+183
-1.2843006e+183
-1.2873994e+183
-1.3447362e+183
-1.3449621e+183
-1.3442367e+183
-1.3444961e+183
-1.3429915e+183
-1.3433054e+183
-1.3436266e+183
-1.3439825e+183
-1.3404605e+183
-1.3406349e+183
-1.3412424e+183
-1.3408882e+183
-1.3415387e+183
-1.341921e+183
-1.3427047e+183
-1.3422961e+183
-1.3323904e+183
-1.3351562e+183
-1.335475e+183
-1.3362775e+183
-1.3358341e+183
-1.3316768e+183
-1.3302351e+183
-1.3309883e+183
-1.3366373e+183
-1.3370611e+183
-1.3374637e+183
-1.3378811e+183
-1.3394895e+183
-1.3398024e+183
-1.3400889e+183
-1.3403405e+183
-1.3381798e+183
-1.3384967e+183
-1.3388404e+183
-1.339215e+183
-1.3286022e+183
-1.3295006e+183
-1.3270123e+183
-1.3277808e+183
-1.3240708e+183
-1.3247835e+183
-1.3255374e+183
-1.3263498e+183
-1.3228218e+183
-1.3234933e+183
-1.3218322e+183
-1.3175304e+183
-1.322292e+183
-1.316238e+183
-1.3149143e+183
-1.3135663e+183
-1.3111633e+183
-1.3125222e+183
-1.3283165e+183
-1.3346743e+183
-1.3028257e+183
-1.2973506e+183
-1.309101e+183
-1.3117817e+183
-1.3066839e+183
-1.3041839e+183
-1.3496751e+183
-1.3483733e+183
-1.3163128e+183
-1.3368461e+183
-1.3382119e+183
-1.3521364e+183
-1.3509144e+183
-1.3190842e+183
-1.3394706e+183
-1.3407783e+183
-1.327361e+183
-1.3498111e+183
-1.348344e+183
-1.3213051e+183
-1.3241909e+183
-1.330272e+183
-1.3512287e+183
-1.3526439e+183
-1.3447741e+183
-1.3434527e+183
-1.3116358e+183
-1.3321519e+183
-1.3334261e+183
-1.347142e+183
-1.3459438e+183
-1.3138716e+183
-1.3345213e+183
-1.3356133e+183
-1.3524434e+183
-1.3539e+183
-1.3553308e+183
-1.3567314e+183
-1.3549004e+183
-1.3511375e+183
-1.3557076e+183
-1.35198e+183
-1.3564704e+183
-1.3557126e+183
-1.3563021e+183
-1.3570712e+183
-1.3579204e+183
-1.3572146e+183
-1.3578024e+183
-1.3585505e+183
-1.3564843e+183
-1.3572422e+183
-1.3528383e+183
-1.3536144e+183
-1.3600558e+183
-1.3606844e+183
-1.3613018e+183
-1.3606517e+183
-1.3587052e+183
-1.3551303e+183
-1.3579547e+183
-1.3543547e+183
-1.3593723e+183
-1.358626e+183
-1.3592553e+183
-1.3599985e+183
-1.3593607e+183
-1.3599908e+183
-1.3558167e+183
-1.3564039e+183
-1.3501271e+183
-1.3495137e+183
-1.3523247e+183
-1.3516866e+183
-1.3577117e+183
-1.3570277e+183
-1.3514917e+183
-1.3507989e+183
-1.3529945e+183
-1.3536659e+183
-1.3590593e+183
-1.3583845e+183
-1.3586287e+183
-1.3590289e+183
-1.3592824e+183
-1.3589061e+183
-1.3596339e+183
-1.3593792e+183
-1.3596842e+183
-1.3599773e+183
-1.3603164e+183
-1.3600123e+183
-1.360422e+183
-1.3607056e+183
-1.3610425e+183
-1.3607597e+183
-1.3610457e+183
-1.3613617e+183
-1.358804e+183
-1.3598916e+183
-1.3602788e+183
-1.359201e+183
-1.3595473e+183
-1.3606168e+183
-1.3609374e+183
-1.3598873e+183
-1.3519379e+183
-1.3564538e+183
-1.3568692e+183
-1.3523629e+183
-1.3575727e+183
-1.3572318e+183
-1.3527559e+183
-1.3531025e+183
-1.3584306e+183
-1.3588045e+183
-1.3573259e+183
-1.357701e+183
-1.3503752e+183
-1.3549544e+183
-1.3553349e+183
-1.3507421e+183
-1.3580708e+183
-1.3591747e+183
-1.3595338e+183
-1.3584418e+183
-1.3560722e+183
-1.3557062e+183
-1.3511506e+183
-1.351529e+183
-1.3538853e+183
-1.3532234e+183
-1.35542e+183
-1.3560701e+183
-1.3609363e+183
-1.3615572e+183
-1.3526163e+183
-1.3520731e+183
-1.3548279e+183
-1.3542702e+183
-1.3596871e+183
-1.3603211e+183
-1.3616831e+183
-1.3613594e+183
-1.36175e+183
-1.3620516e+183
-1.3620738e+183
-1.362349e+183
-1.3623771e+183
-1.3626851e+183
-1.3629801e+183
-1.3626438e+183
-1.3630135e+183
-1.3633227e+183
-1.3636295e+183
-1.3633248e+183
-1.3639144e+183
-1.363585e+183
-1.3602153e+183
-1.3612648e+183
-1.3616301e+183
-1.3605818e+183
-1.3622851e+183
-1.3619705e+183
-1.3612506e+183
-1.3609235e+183
-1.3586092e+183
-1.3541322e+183
-1.3544646e+183
-1.3589401e+183
-1.3534097e+183
-1.3579021e+183
-1.3582648e+183
-1.3537673e+183
-1.363209e+183
-1.3634821e+183
-1.3624432e+183
-1.362172e+183
-1.3592558e+183
-1.3596015e+183
-1.3551505e+183
-1.3548061e+183
-1.3554084e+183
-1.3598762e+183
-1.3601328e+183
-1.3556285e+183
-1.3629171e+183
-1.3625877e+183
-1.3618879e+183
-1.3615548e+183
-1.3587874e+183
-1.3581543e+183
-1.3603101e+183
-1.3609256e+183
-1.3658255e+183
-1.3664064e+183
-1.357562e+183
-1.3569869e+183
-1.3591073e+183
-1.3597196e+183
-1.3646116e+183
-1.3652362e+183
-1.3621665e+183
-1.3627885e+183
-1.3642494e+183
-1.3638806e+183
-1.3642049e+183
-1.3645458e+183
-1.3648623e+183
-1.3645663e+183
-1.364827e+183
-1.3651548e+183
-1.3634024e+183
-1.3640131e+183
-1.3654918e+183
-1.365119e+183
-1.3654502e+183
-1.3658015e+183
-1.3661101e+183
-1.3658011e+183
-1.3660571e+183
-1.3663955e+183
-1.3653944e+183
-1.3650448e+183
-1.3639747e+183
-1.3643299e+183
-1.3570479e+183
-1.361605e+183
-1.3619857e+183
-1.3574332e+183
-1.3646466e+183
-1.3657008e+183
-1.3659857e+183
-1.3649551e+183
-1.3626225e+183
-1.362318e+183
-1.3577929e+183
-1.358114e+183
-1.3640972e+183
-1.3637628e+183
-1.362706e+183
-1.363032e+183
-1.3558133e+183
-1.3603675e+183
-1.3606796e+183
-1.3560828e+183
-1.363351e+183
-1.3644257e+183
-1.3647315e+183
-1.3636633e+183
-1.3612817e+183
-1.3609881e+183
-1.356404e+183
-1.3567006e+183
-1.3563847e+183
-1.3556988e+183
-1.3578845e+183
-1.3585174e+183
-1.3550809e+183
-1.3544834e+183
-1.3572663e+183
-1.3566831e+183
-1.3667254e+183
-1.366352e+183
-1.3666891e+183
-1.3670381e+183
-1.3673518e+183
-1.3670409e+183
-1.367297e+183
-1.3676373e+183
-1.3679102e+183
-1.3675712e+183
-1.3679256e+183
-1.3682325e+183
-1.3684262e+183
-1.3682045e+183
-1.3684997e+183
-1.3687467e+183
-1.3666258e+183
-1.3662796e+183
-1.3652441e+183
-1.3655898e+183
-1.3584012e+183
-1.362912e+183
-1.3632688e+183
-1.3587482e+183
-1.3659109e+183
-1.3669462e+183
-1.3672371e+183
-1.3662144e+183
-1.363885e+183
-1.363593e+183
-1.359086e+183
-1.3593782e+183
-1.3664832e+183
-1.3675108e+183
-1.3678162e+183
-1.366782e+183
-1.3670314e+183
-1.3680697e+183
-1.3683054e+183
-1.3672619e+183
-1.3596512e+183
-1.3641549e+183
-1.3644632e+183
-1.359938e+183
-1.3649229e+183
-1.3647156e+183
-1.360192e+183
-1.3603868e+183
-1.3274715e+183
-1.3241471e+183
-1.3342621e+183
-1.3335002e+183
-1.3304785e+183
-1.3372363e+183
-1.3401422e+183
-1.345676e+183
-1.3442271e+183
-1.3475896e+183
-1.3490188e+183
-1.3485013e+183
-1.3498699e+183
-1.3457842e+183
-1.3471466e+183
-1.3471052e+183
-1.3485832e+183
-1.3518512e+183
-1.3503954e+183
-1.3499902e+183
-1.3512494e+183
-1.3544457e+183
-1.3531808e+183
-1.3511973e+183
-1.3525954e+183
-1.3484029e+183
-1.3498261e+183
-1.3539098e+183
-1.3551194e+183
-1.3511016e+183
-1.3522829e+183
-1.3213214e+183
-1.3439535e+183
-1.3423382e+183
-1.3154891e+183
-1.3185923e+183
-1.3244686e+183
-1.3469454e+183
-1.3454618e+183
-1.3465112e+183
-1.3480732e+183
-1.3495777e+183
-1.3510449e+183
-1.35062e+183
-1.3498705e+183
-1.3505398e+183
-1.3512528e+183
-1.3491591e+183
-1.3498692e+183
-1.3454623e+183
-1.3461402e+183
-1.3521157e+183
-1.3513856e+183
-1.351972e+183
-1.3527104e+183
-1.3505804e+183
-1.3468651e+183
-1.3513013e+183
-1.3475421e+183
-1.3543558e+183
-1.3550357e+183
-1.3549043e+183
-1.3556134e+183
-1.3520287e+183
-1.3482494e+183
-1.352804e+183
-1.3490452e+183
-1.3536292e+183
-1.3528534e+183
-1.3534339e+183
-1.354202e+183
-1.353518e+183
-1.3542167e+183
-1.3498062e+183
-1.3504804e+183
-1.3462335e+183
-1.3458853e+183
-1.3465593e+183
-1.3468714e+183
-1.3474143e+183
-1.3471402e+183
-1.3478224e+183
-1.3476369e+183
-1.3435336e+183
-1.3433172e+183
-1.3438164e+183
-1.3441332e+183
-1.344831e+183
-1.3444468e+183
-1.3452026e+183
-1.3455649e+183
-1.3407899e+183
-1.3450546e+183
-1.345426e+183
-1.3411524e+183
-1.3459861e+183
-1.3457394e+183
-1.3414747e+183
-1.3417382e+183
-1.3383597e+183
-1.3379965e+183
-1.3387565e+183
-1.3391627e+183
-1.3392856e+183
-1.3435461e+183
-1.343993e+183
-1.3397067e+183
-1.3443949e+183
-1.3447229e+183
-1.3401138e+183
-1.3404681e+183
-1.3399821e+183
-1.3395492e+183
-1.3407459e+183
-1.3403819e+183
-1.3414093e+183
-1.34106e+183
-1.3420888e+183
-1.3417584e+183
-1.3423697e+183
-1.3426948e+183
-1.34297e+183
-1.3431801e+183
-1.3406676e+183
-1.3402348e+183
-1.3359894e+183
-1.3363948e+183
-1.3415481e+183
-1.3411128e+183
-1.3368209e+183
-1.337272e+183
-1.3419552e+183
-1.3424215e+183
-1.3376832e+183
-1.338133e+183
-1.3385389e+183
-1.3428379e+183
-1.3432019e+183
-1.3389333e+183
-1.3372537e+183
-1.3376555e+183
-1.3330295e+183
-1.3333977e+183
-1.3338027e+183
-1.338087e+183
-1.3384618e+183
-1.3342058e+183
-1.3392511e+183
-1.3388346e+183
-1.3345694e+183
-1.3349814e+183
-1.3399378e+183
-1.3396185e+183
-1.3353466e+183
-1.3356852e+183
-1.3383917e+183
-1.3305872e+183
-1.3390893e+183
-1.3312598e+183
-1.3396727e+183
-1.3401569e+183
-1.3318698e+183
-1.3323594e+183
-1.3363601e+183
-1.3359812e+183
-1.3317577e+183
-1.3321136e+183
-1.3369731e+183
-1.3366944e+183
-1.3324593e+183
-1.3327556e+183
-1.3350777e+183
-1.3347848e+183
-1.3306352e+183
-1.3308765e+183
-1.3356687e+183
-1.3353803e+183
-1.3311648e+183
-1.3314596e+183
-1.3356217e+183
-1.3363819e+183
-1.32852e+183
-1.3278618e+183
-1.337101e+183
-1.3377889e+183
-1.3292528e+183
-1.3299525e+183
-1.3253761e+183
-1.3330299e+183
-1.3338424e+183
-1.3261039e+183
-1.3345069e+183
-1.3350882e+183
-1.3273619e+183
-1.3267849e+183
-1.2476663e+183
-1.2483021e+183
-1.25255e+183
-1.2531834e+183
-1.2463792e+183
-1.2512676e+183
-1.2470283e+183
-1.2519235e+183
-1.2562728e+183
-1.2616667e+183
-1.2569057e+183
-1.2622916e+183
-1.2575344e+183
-1.2629321e+183
-1.2582024e+183
-1.2636315e+183
-1.2324839e+183
-1.2331815e+183
-1.2201848e+183
-1.2279916e+183
-1.2286713e+183
-1.2338213e+183
-1.2344532e+183
-1.2215951e+183
-1.229349e+183
-1.2299851e+183
-1.2369421e+183
-1.2416586e+183
-1.2376238e+183
-1.2423127e+183
-1.2382437e+183
-1.2388918e+183
-1.2429457e+183
-1.2435959e+183
-1.2114155e+183
-1.2129157e+183
-1.2300634e+183
-1.2306129e+183
-1.2179036e+183
-1.225546e+183
-1.226063e+183
-1.2312017e+183
-1.2318975e+183
-1.2190408e+183
-1.2266786e+183
-1.2273822e+183
-1.2345198e+183
-1.2391764e+183
-1.2350643e+183
-1.2397289e+183
-1.2356422e+183
-1.2403305e+183
-1.2363528e+183
-1.2410515e+183
-1.209263e+183
-1.2103314e+183
-1.2536933e+183
-1.2590693e+183
-1.254339e+183
-1.2597163e+183
-1.2450315e+183
-1.2499508e+183
-1.2457547e+183
-1.2506619e+183
-1.2438319e+183
-1.2486843e+183
-1.2444112e+183
-1.249321e+183
-1.2549765e+183
-1.2603714e+183
-1.2556898e+183
-1.2610953e+183
-1.1965444e+183
-1.1952332e+183
-1.2032445e+183
-1.20469e+183
-1.201128e+183
-1.1929469e+183
-1.1941438e+183
-1.2021746e+183
-1.28839e+183
-1.2891815e+183
-1.2963952e+183
-1.2971729e+183
-1.2871019e+183
-1.2877023e+183
-1.2950347e+183
-1.2956942e+183
-1.3048419e+183
-1.3056545e+183
-1.3151281e+183
-1.3159594e+183
-1.3034611e+183
-1.3041165e+183
-1.3137004e+183
-1.3143818e+183
-1.2860542e+183
-1.2866041e+183
-1.2939972e+183
-1.2945252e+183
-1.2855978e+183
-1.2852107e+183
-1.2931047e+183
-1.293539e+183
-1.2856883e+183
-1.2843836e+183
-1.3002211e+183
-1.3015284e+183
-1.3023686e+183
-1.3029308e+183
-1.3125363e+183
-1.313156e+183
-1.3018926e+183
-1.3014812e+183
-1.3116165e+183
-1.3120394e+183
-1.263121e+183
-1.2688531e+183
-1.2638326e+183
-1.2695776e+183
-1.2619647e+183
-1.2676442e+183
-1.2625045e+183
-1.2682209e+183
-1.2735304e+183
-1.2740991e+183
-1.2802362e+183
-1.2808163e+183
-1.2747542e+183
-1.2755186e+183
-1.2814907e+183
-1.2822808e+183
-1.2607063e+183
-1.2594459e+183