/*--------------------------------*- C++ -*----------------------------------*\
  =========                 |
  \\      /  F ield         | OpenFOAM: The Open Source CFD Toolbox
   \\    /   O peration     | Website:  https://openfoam.org
    \\  /    A nd           | Version:  7
     \\/     M anipulation  |
\*---------------------------------------------------------------------------*/
FoamFile
{
    version     2.0;
    format      ascii;
    class       surfaceScalarField;
    location    "2000";
    object      phi;
}
// * * * * * * * * * * * * * * * * * * * * * * * * * * * * * * * * * * * * * //

dimensions      [0 3 -1 0 0 0 0];

internalField   nonuniform List<scalar> 
100394
(
9.0046474e+87
-1.3304235e+88
-1.4725278e+88
-1.3617993e+88
-5.9740916e+87
-1.4835705e+88
4.8631981e+87
4.7855667e+87
-6.3614088e+88
-1.7643617e+87
-1.8931538e+87
-3.0091499e+87
-1.3680262e+88
-1.4193656e+88
-1.2315759e+88
-1.2113457e+88
-1.3032922e+88
-3.011014e+87
-1.0101494e+87
2.3279414e+87
-2.6405102e+87
-3.6318735e+87
-2.804827e+87
-3.4228764e+87
-1.0313246e+86
-1.2679709e+88
-2.7243407e+87
1.9054279e+87
-2.7331912e+87
-2.7120367e+87
-3.39481e+87
-1.4861778e+87
-3.483013e+87
5.2121565e+87
-1.3537073e+88
-1.4360602e+88
-1.4795365e+88
-1.5640857e+88
-1.3022083e+88
-1.2491539e+88
-3.8607308e+86
-2.3984944e+87
3.8440878e+87
-3.7588233e+87
-2.4690436e+87
3.4412683e+87
3.3727523e+87
-2.5812069e+87
3.7809373e+87
-3.7950463e+87
-2.4011589e+86
1.248025e+87
1.1911023e+87
-1.6043259e+88
-2.8345556e+86
-3.133013e+86
1.101249e+87
1.1735228e+87
-1.5849409e+88
-3.3273228e+86
-3.1996858e+86
-3.9746879e+86
5.0041129e+87
4.9775945e+87
-6.3887459e+88
-1.7009897e+87
-1.8825194e+87
-1.1278533e+87
-1.0468198e+85
-3.0835806e+87
-3.5167406e+87
-3.3556223e+87
-2.9373725e+87
7.036075e+85
-1.9721846e+87
-2.9812242e+87
-3.3765978e+87
-3.4095561e+87
-2.9760456e+87
1.3579715e+87
-2.2991593e+87
-2.5836123e+87
-2.1165951e+87
-2.550367e+87
-2.1482092e+87
-2.5339009e+87
-2.3017476e+87
-2.7108043e+87
-2.1663076e+87
-1.2779698e+88
-1.093122e+88
-1.5950215e+88
-1.3550377e+88
-1.1595692e+88
-1.135365e+86
-6.4889408e+86
5.5275188e+86
-5.5933609e+86
-5.3229704e+86
-7.6362795e+86
-7.2051071e+86
6.3813828e+86
1.0450178e+85
-6.9710999e+85
-2.9627253e+87
-1.95571e+86
5.0759637e+86
-5.4980212e+86
-7.3638612e+86
-5.488363e+86
-7.5722552e+86
-2.898972e+87
2.1672221e+86
-5.6497998e+86
4.0732394e+86
-5.5096623e+86
-2.3589543e+86
-7.1778854e+86
-5.4543354e+86
-7.4217351e+86
-6.0249789e+86
4.9209482e+86
-5.6625026e+86
-5.3171741e+86
-7.6253267e+86
-7.1998145e+86
8.6619559e+85
-2.8361222e+87
-1.0903824e+86
-1.5051967e+87
-2.8137532e+87
1.7697513e+87
-2.6653986e+87
-3.3355414e+87
-2.8706598e+87
-3.6024566e+87
-2.8950794e+87
-2.668883e+87
1.4910699e+87
-2.7568963e+87
-2.8030306e+87
-2.0817609e+87
-3.485739e+87
-3.5605589e+87
-4.81353e+86
-1.2509724e+88
-1.2824777e+88
-9.8872038e+86
4.752606e+87
-1.3407693e+88
-1.4939748e+88
-1.4348368e+88
-1.5334479e+88
-3.7012969e+87
3.8137115e+87
-3.75165e+87
-2.6858569e+87
3.2476888e+87
3.3168554e+87
-2.6105943e+87
3.8597051e+87
-1.6512585e+86
-1.237161e+88
9.0576896e+86
9.5616111e+86
-7.1423861e+86
-7.1855232e+86
1.2339592e+88
1.4986971e+85
-1.3895984e+86
-8.7934851e+86
-9.1289898e+86
7.1455119e+86
6.9391693e+86
-1.5590661e+88
9.8978557e+87
-1.7277963e+86
9.3542447e+85
-1.9575283e+86
1.3586857e+86
-1.012659e+88
-2.6545431e+86
-7.2163309e+86
-7.1685321e+86
8.865824e+86
9.2335332e+86
-1.5554912e+88
7.1180745e+86
-9.3828865e+86
-9.1308646e+86
6.7732321e+86
-5.3426568e+85
2.7028765e+86
2.5569159e+86
-3.5746585e+87
-4.9748217e+85
-5.4294557e+85
-6.5345758e+85
2.5557056e+86
2.6640973e+86
-3.6771955e+87
-5.4647439e+85
-5.4244489e+85
7.4889235e+85
2.38397e+86
2.5517727e+86
-3.5297997e+87
-5.7552571e+85
-9.5394362e+85
-5.4571075e+85
2.5978856e+86
2.4908086e+86
-3.6003787e+87
-5.3898832e+85
-6.0096255e+85
-4.9250633e+86
1.1393419e+87
1.1803966e+87
-1.5785433e+88
-2.9530025e+86
-3.5468124e+86
1.1042047e+87
1.2108965e+87
-1.5977736e+88
-3.0549619e+86
-3.5074749e+86
-8.8092264e+86
-2.7743162e+86
6.1657595e+85
-1.5255011e+86
2.4952118e+86
-2.9647766e+87
1.2372714e+85
-1.0775146e+86
-8.8233244e+86
-2.8164608e+87
2.5662106e+86
-8.5387907e+86
-2.7834115e+87
2.3927167e+86
-2.9459269e+87
1.6573417e+86
-1.5924821e+87
-3.0270716e+87
-3.4463823e+87
-3.2495634e+87
-2.8347293e+87
-2.7278411e+86
1.6866947e+86
2.4797786e+86
-2.1270751e+86
-2.9123791e+87
1.2033677e+86
-8.2892149e+86
-1.6833872e+86
-2.7724583e+87
2.6508312e+86
-8.7871194e+86
-2.7833417e+87
2.4559406e+86
-2.9404368e+87
-1.9446604e+87
-2.673218e+87
-2.4486413e+87
-2.2021944e+87
-2.0261804e+87
3.3029805e+85
2.2718645e+86
-2.9128899e+86
-6.3623257e+86
-6.2676223e+86
-5.1987698e+86
-5.2168975e+86
2.7740316e+86
-3.530042e+86
-4.2361367e+86
-4.1950365e+86
-3.8082891e+86
-3.7669379e+86
1.0397161e+85
2.4111203e+86
-6.2335573e+86
-6.5304748e+86
-5.1270516e+86
-5.3998673e+86
3.0308025e+86
-4.4866957e+86
-4.1718686e+86
-4.1808785e+86
-3.8744974e+86
-1.2531183e+86
-1.5800399e+85
-6.5283202e+86
-6.2429421e+86
-5.1445162e+86
-5.3797728e+86
-2.2161487e+84
1.7891954e+86
-4.3754607e+86
-4.317186e+86
-4.0086446e+86
-3.9764465e+86
-6.4727908e+86
-6.3937053e+86
-5.3118792e+86
-5.2986139e+86
-4.4328919e+86
-4.177352e+86
-4.185981e+86
-3.9511834e+86
-1.3417611e+88
-1.2425359e+88
-1.1723798e+88
-1.0618698e+88
2.4586245e+86
-2.2646638e+87
-2.9065224e+87
-3.2975229e+87
-3.2991144e+87
-2.8715027e+87
-2.7164827e+87
-2.5468972e+87
-2.4699589e+87
-2.0554485e+87
-2.0146323e+87
1.0062062e+85
-1.3699087e+86
-2.2742662e+85
1.3636143e+86
-1.1373702e+86
-1.5597689e+86
-1.1496687e+86
-1.6134516e+86
-1.3653727e+86
1.3989765e+86
-1.1603805e+86
-1.117748e+86
-1.5333791e+86
-1.6177368e+86
-1.4772423e+84
-7.8176255e+84
-6.210363e+86
-6.0790097e+86
-1.3176976e+86
2.8877075e+85
-2.7439837e+85
1.22767e+86
-1.1331653e+86
-1.1454925e+86
-1.5393367e+86
-1.6043709e+86
1.159296e+85
-1.2291555e+85
-6.118867e+86
-1.345381e+86
1.3626072e+86
-1.1644243e+86
-1.6224234e+86
-1.1113077e+86
-1.546089e+86
-6.2157854e+86
-1.21041e+86
3.7652718e+85
1.075651e+86
-3.3815034e+85
-1.1427067e+86
-1.1476097e+86
-1.5308441e+86
-1.5921193e+86
-5.9495971e+86
-1.8101271e+86
4.470778e+86
-5.3355846e+86
-5.7081655e+86
-7.5945969e+86
-7.0856494e+86
1.9014501e+85
-5.9984953e+86
-1.959752e+85
-1.2494756e+86
3.6352063e+85
1.2273029e+86
-1.1715156e+86
-1.6111562e+86
-1.1062352e+86
-1.5302488e+86
1.9558288e+85
-6.1248757e+86
2.0094042e+85
-1.3073034e+86
1.2858185e+86
-1.1468238e+86
-1.1507011e+86
-1.6160589e+86
-1.5648536e+86
-1.2988868e+86
1.3303821e+86
-1.1655819e+86
-1.1131376e+86
-1.5270221e+86
-1.6163857e+86
5.1486421e+84
-6.1906479e+86
-6.0793217e+86
-6.8271407e+85
-2.8319261e+87
-5.7869474e+86
-2.8287913e+86
3.9885998e+86
-5.5962961e+86
-5.4896619e+86
-7.3330202e+86
-7.4706113e+86
-1.6298537e+86
-2.906041e+87
-2.7239272e+86
-5.8071337e+86
4.1892064e+86
-5.7692785e+86
-5.3964334e+86
-7.6654267e+86
-7.2247639e+86
-5.4421896e+86
3.530812e+86
-3.0023934e+86
-7.4716254e+86
-5.5484763e+86
-5.5872041e+86
-7.233155e+86
-2.7602305e+87
-1.8144315e+87
1.5881808e+87
-2.6620432e+87
-3.597661e+87
-2.8696634e+87
-3.3736037e+87
1.4719731e+86
-2.8773346e+87
-1.9561626e+86
-2.9461637e+87
-7.5333146e+86
-1.2722728e+88
-2.5826242e+87
1.3788655e+87
-2.7112788e+87
-3.4601771e+87
-1.3476067e+86
1.2247942e+88
6.9640618e+86
-8.8252794e+86
-9.209902e+86
6.9375032e+86
-1.5540076e+88
-1.2245922e+88
2.7200089e+86
9.4775036e+86
8.842291e+86
-7.1532542e+86
-7.2770628e+86
-5.7905006e+86
-3.6968309e+86
6.5969912e+86
-9.1176825e+86
6.9862884e+86
-9.2760588e+86
-1.5281603e+88
9.8854775e+87
4.243487e+85
1.0396481e+86
-9.7627379e+87
8.8534146e+86
-6.8606764e+86
-7.5070269e+86
8.8018928e+86
-3.5239527e+85
-2.8086696e+87
-1.2664493e+86
-1.3187845e+86
2.190599e+86
2.1197934e+86
-2.8837434e+87
-5.62808e+85
-1.305024e+86
-1.2657952e+86
2.1812303e+86
2.2270943e+86
-4.2904093e+85
-3.5005796e+87
-1.6268086e+86
-1.6944791e+86
1.7068313e+86
1.6648151e+86
-7.6687319e+85
-3.5920889e+87
1.737105e+86
-1.6625549e+86
-1.6085876e+86
1.7698042e+86
4.7033917e+85
2.7487878e+87
-7.0177595e+85
-1.884284e+86
1.3470923e+86
-1.9063123e+86
1.4242963e+86
-3.5030714e+87
2.8026146e+87
5.5005757e+85
-1.9920888e+86
1.3725464e+86
1.3949704e+86
-1.8943036e+86
-3.6115974e+87
-6.2678123e+85
3.5858857e+87
7.406109e+85
-1.7717128e+86
-1.887997e+86
1.4281071e+86
1.4305765e+86
3.5246065e+87
-7.5331685e+85
-1.8091198e+86
-1.7828376e+86
1.4138076e+86
1.4856667e+86
-1.4520447e+86
6.3606503e+85
6.0581068e+86
6.3609836e+86
-9.8205866e+86
-1.0159945e+87
5.946125e+86
5.6073533e+86
-6.3560836e+85
2.8368893e+87
1.7105748e+86
-1.6822258e+86
1.7085208e+86
-1.594502e+86
2.807269e+87
-8.9903494e+85
-1.6087617e+86
-1.5800232e+86
1.6898028e+86
1.7672537e+86
6.1659424e+85
-7.4449081e+85
-1.2571486e+86
-1.2522965e+86
2.0913404e+86
2.1865194e+86
2.1342247e+86
-1.3247551e+86
-1.2542338e+86
2.0971895e+86
-2.7735446e+87
3.1954339e+85
1.4505283e+86
-1.8121504e+86
-1.7893218e+86
1.5046458e+86
2.544954e+85
-3.5506966e+87
1.3671208e+86
1.3043419e+86
-1.9768388e+86
-2.0104257e+86
2.7265425e+87
-3.4991762e+87
-2.0225838e+86
1.3400178e+86
-1.9468098e+86
1.3064715e+86
-1.7942272e+86
-1.8629269e+86
1.4219717e+86
1.3707324e+86
-5.7186946e+86
7.3080865e+86
-1.4130094e+84
-3.4859305e+85
3.0615569e+85
-3.6207069e+85
3.1492315e+85
-7.3171298e+86
-5.3314516e+84
-3.5190356e+85
2.9671787e+85
-3.6582994e+85
3.064984e+85
-5.760081e+86
-6.3642679e+84
-3.6318231e+85
2.9693716e+85
-3.728048e+85
3.0941209e+85
-7.405444e+84
2.6781948e+85
2.7775112e+85
-4.0714093e+85
-7.2983383e+86
-4.2145263e+85
1.3934042e+84
1.3063986e+86
1.3357006e+86
-2.0438369e+86
-2.130772e+86
-7.4553642e+86
-2.4894757e+84
-2.7272765e+85
4.1943583e+85
-2.879087e+85
-5.7673984e+86
-3.2195248e+83
-3.1252306e+85
3.5318516e+85
-3.26676e+85
3.6086267e+85
-2.4761193e+83
-3.2729492e+85
3.2372519e+85
-3.4214509e+85
3.3073825e+85
-5.0325891e+84
5.5914587e+85
5.9296439e+85
-7.5239278e+86
-8.4356569e+84
-8.8204371e+84
-7.8003788e+84
5.64909e+85
5.8375455e+85
-7.6911803e+86
-8.9148162e+84
-9.3965047e+84
7.7220482e+84
-7.8586471e+84
5.51285e+85
5.8220996e+85
-7.617533e+86
-8.935983e+84
-9.0576849e+84
5.8439319e+85
5.6061207e+85
-7.7144893e+86
-9.7967075e+84
-9.1562257e+84
1.3616019e+85
5.3168807e+85
5.6813252e+85
-7.4583564e+86
-9.6808873e+84
-9.2593612e+84
-1.6224241e+85
-1.0268104e+86
2.5893538e+86
2.4746926e+86
-3.5170463e+87
-4.9251812e+85
-6.0046126e+85
1.6706153e+85
5.6498746e+85
5.4893893e+85
-7.6173137e+86
-1.0608294e+85
-9.2017436e+84
-1.0969486e+85
5.5264856e+85
5.8119897e+85
-7.5355116e+86
-9.8216653e+84
-8.732078e+84
5.7983626e+85
5.5098723e+85
-7.6672591e+86
-1.006941e+85
-9.7114026e+84
-1.4810424e+86
2.4088346e+86
2.5605823e+86
-3.5920763e+87
-5.694817e+85
-6.3215994e+85
-1.3269839e+86
2.5242312e+86
2.5034051e+86
-3.6478907e+87
-6.7957542e+85
-5.3981219e+85
2.5846437e+86
2.3470193e+86
-3.5633324e+87
-5.3934571e+85
-6.4068297e+85
-1.7261115e+86
1.1546718e+87
1.1759171e+87
-1.5876377e+88
-2.6791695e+86
-3.7704052e+86
-6.5794585e+86
-5.6167762e+86
-5.4980592e+86
-1.4729737e+88
-5.6824751e+86
-5.2610999e+86
-9.0065078e+86
-1.4603384e+88
-2.434564e+86
1.1366115e+86
-1.4046489e+86
1.9804504e+86
1.924223e+86
-2.9817465e+87
-5.4049766e+85
-4.9186716e+85
4.9225767e+85
-9.5393019e+85
-3.5754273e+87
2.2190353e+86
-3.5394727e+87
1.9597118e+86
1.8990788e+86
-2.9724571e+87
-5.490993e+85
-5.1933862e+85
-2.846587e+86
1.4251826e+86
2.7321939e+86
-2.4156837e+86
-2.9165818e+87
9.0313543e+85
-2.0211995e+86
-8.5294639e+86
-2.7662876e+87
2.7097756e+86
-8.6465181e+86
-2.733914e+87
2.6385136e+86
-2.8977924e+87
-2.4084082e+86
1.7183029e+86
1.9864374e+86
1.8689668e+86
-1.7701021e+86
-2.9513553e+87
-5.543936e+85
-4.5103421e+85
9.7784585e+85
-1.3834057e+86
-3.5409901e+87
2.3414959e+86
-3.5412093e+87
1.942577e+86
1.9465376e+86
-2.962333e+87
-5.5301386e+85
-4.6198686e+85
2.0447934e+86
4.1208824e+85
-3.3561701e+86
-5.2460449e+86
-6.3121802e+86
-5.198058e+86
-6.3444154e+86
2.5322544e+85
-6.4645709e+86
-6.1274163e+86
-5.3451235e+86
-5.032112e+86
2.7306842e+86
-4.1432234e+86
-3.854006e+86
-4.3277832e+86
-4.2109955e+86
-3.8159348e+86
-4.0792515e+86
-4.081731e+86
-4.4415431e+86
-3.7346341e+86
-2.355817e+85
7.9032219e+85
2.4922085e+85
-5.1798487e+86
7.9622206e+85
-5.1518031e+86
-2.7865555e+85
2.9545296e+85
6.5763668e+85
-3.299456e+85
-5.0256909e+86
6.5160174e+85
2.9720274e+85
-5.0799252e+86
3.9820685e+85
-9.0709469e+84
-4.7430766e+85
-7.7246849e+85
-7.6879738e+85
-9.4257606e+85
-9.278468e+85
-1.5381545e+85
4.5865593e+85
-8.0363421e+85
-7.5394071e+85
-9.2626858e+85
-9.6622383e+85
-4.8364258e+85
5.8352921e+85
-7.2502136e+85
-6.6071215e+85
-7.5723949e+85
-6.9171446e+85
-5.257248e+85
-6.7175438e+85
-7.0572352e+85
-6.6508725e+85
-6.9734921e+85
-8.5222686e+84
7.8306246e+85
1.8597777e+85
-5.1747971e+86
7.9972486e+85
-5.2196634e+86
-1.5927694e+85
6.4946759e+85
2.5051174e+85
-5.0846902e+86
6.5192707e+85
-5.1141431e+86
2.7226658e+85
-1.823286e+85
-9.4300053e+85
-7.8801407e+85
-9.5552377e+85
-7.7951166e+85
-2.0478794e+85
4.0349364e+85
-9.6504147e+85
-9.2561534e+85
-8.0287034e+85
-7.5531284e+85
3.584695e+85
-7.019347e+85
-6.8660664e+85
-7.2485433e+85
-7.3893317e+85
4.7405497e+85
-6.6521255e+85
-7.6535961e+85
-7.088313e+85
-7.2508506e+85
-6.6672758e+83
7.7759202e+85
-1.1547586e+85
-5.2240553e+86
7.5779743e+85
-5.188483e+86
-7.414355e+84
6.2330577e+85
-5.089591e+86
-1.7693036e+85
6.2659078e+85
-5.1259821e+86
3.1772743e+85
-1.5267654e+85
-6.6012659e+85
-9.4153203e+85
-9.6131477e+85
-7.8781189e+85
-7.8623048e+85
-2.1344429e+85
-6.4159662e+85
3.2229824e+85
-9.6659977e+85
-9.3157852e+85
-8.0482184e+85
-7.63712e+85
-3.906596e+85
4.1580679e+85
-7.2656742e+85
-7.6651377e+85
-6.7461358e+85
-7.1693245e+85
-6.8498259e+85
-7.2511788e+85
-6.8430652e+85
-7.2365053e+85
-1.444525e+85
7.7696982e+85
-5.2403324e+86
7.9905142e+85
-5.2270078e+86
-2.1270295e+85
-5.1407323e+86
-5.12188e+86
1.7506192e+85
-2.3046219e+85
-9.257369e+85
-9.4489544e+85
-7.7877456e+85
-7.7919394e+85
-2.4246229e+85
-9.5381894e+85
-9.1824591e+85
-7.9297828e+85
-7.5622383e+85
2.2675629e+85
-6.908703e+85
-7.4289319e+85
-6.9227858e+85
-7.3773604e+85
-7.154576e+85
-6.7039983e+85
-7.5858744e+85
-7.2531893e+85
1.8282774e+87
3.9024359e+86
-3.2353977e+87
-3.2452252e+87
-2.8126142e+87
3.2470289e+86
-3.1778388e+87
-3.3843826e+87
-2.9652702e+87
-2.7579263e+87
2.2163121e+87
-2.460656e+87
-2.0041225e+87
-2.6508512e+87
-2.4132763e+87
-2.1796604e+87
-1.9621963e+87
-2.832846e+86
2.2324921e+86
2.8060741e+86
-2.67399e+86
-2.8596942e+87
1.7349976e+86
-8.0603659e+86
-2.3082807e+86
-2.7174419e+87
2.721206e+86
-8.7963973e+86
-2.7202154e+87
2.6992482e+86
-2.8876259e+87
2.9118461e+86
6.4380076e+85
-3.4808947e+86
-6.2551614e+86
-6.2005846e+86
-5.1587777e+86
-5.1231206e+86
3.806224e+85
-6.4224764e+86
-5.3209371e+86
-6.0860052e+86
-4.9958682e+86
3.5268878e+86
-4.1736104e+86
-4.2317427e+86
-3.6993811e+86
-4.1343265e+86
-3.6676969e+86
-4.0653929e+86
-4.0046684e+86
-4.4313958e+86
-3.6913721e+86
-3.0199255e+85
3.5264012e+84
-3.2886336e+84
3.5902503e+85
-2.392936e+85
-2.3286457e+85
-3.5435347e+85
-3.7026878e+85
1.0297261e+84
-7.3764339e+83
-1.2997732e+86
-3.0208475e+85
1.8541469e+84
3.6970777e+85
-3.7277815e+85
-2.3912871e+85
-2.3185701e+85
-3.5680508e+85
-1.591652e+83
-1.3198928e+86
1.7913541e+83
-3.0453121e+85
3.6653627e+85
-2.4060687e+85
-2.3382588e+85
-3.592192e+85
-3.7198342e+85
-3.0378691e+85
3.65849e+85
-2.3257101e+85
-2.3977225e+85
-3.717896e+85
-3.5313362e+85
1.1978709e+84
-1.2914298e+86
-1.3189165e+86
5.2194639e+84
-2.9144185e+85
-4.1551789e+84
3.3695171e+85
-2.3789203e+85
-2.3294382e+85
-3.5084436e+85
-3.6763785e+85
-2.9856992e+85
4.5711599e+84
3.6195897e+85
-2.4050173e+85
-2.3359701e+85
-3.7127109e+85
-3.5702861e+85
2.4896813e+84
-1.9087293e+84
-1.2853031e+86
1.7902707e+84
-1.3137368e+86
-3.0279454e+85
1.9552301e+84
3.7051106e+85
-2.3963961e+85
-2.3481365e+85
-3.5861358e+85
-3.7291467e+85
-2.7158435e+83
-1.3202062e+86
-3.0239815e+85
3.6815102e+85
-2.3839002e+85
-2.2984071e+85
-3.7059105e+85
-3.5157276e+85
-1.2979674e+86
-2.1053931e+85
-1.2723766e+86
1.2251927e+86
-1.1713614e+86
-1.1141795e+86
-1.5184263e+86
-1.6120455e+86
6.5544541e+84
-2.7659739e+85
3.1584104e+85
-5.3254949e+84
-2.3922413e+85
-2.3450444e+85
-3.5197376e+85
-3.6853762e+85
-2.8539082e+85
6.420348e+84
3.4378594e+85
-2.418639e+85
-2.3361809e+85
-3.7219075e+85
-3.5699091e+85
3.4102795e+84
-1.2804311e+86
-2.9425092e+84
3.3098844e+84
-1.3083736e+86
-1.2760575e+86
-3.4728424e+85
1.175777e+86
-1.1502286e+86
-1.1510534e+86
-1.6075679e+86
-1.5622915e+86
7.7677536e+84
-2.1031932e+85
-6.1486594e+86
-6.0016311e+86
-2.9022186e+85
3.5612731e+84
3.5437254e+85
-2.3972329e+85
-2.3590995e+85
-3.5901635e+85
-3.724257e+85
9.8020087e+83
-1.3130937e+86
-2.9069507e+85
5.7344381e+84
3.5196817e+85
-2.2891027e+85
-2.3921919e+85
-3.7064084e+85
-3.5046952e+85
2.8952436e+84
-1.2911554e+86
5.4387592e+84
-2.8850167e+85
3.4098716e+85
-2.3814789e+85
-2.3384986e+85
-3.5485807e+85
-3.6949675e+85
-2.9389042e+85
4.3796666e+84
3.6090886e+85
-2.3346308e+85
-2.4152108e+85
-3.7463799e+85
-3.5750664e+85
-2.4995611e+84
1.6597619e+84
-1.3217151e+86
-1.2984112e+86
1.6894488e+84
-3.0054834e+85
3.6877591e+85
-2.3547077e+85
-3.6055346e+85
-3.7221239e+85
-2.3867086e+85
-2.9718951e+85
3.5925161e+85
-2.4054176e+85
-2.3361406e+85
-3.717788e+85
-3.5392246e+85
7.8546528e+82
-1.2914358e+86
-1.318352e+86
3.7715084e+85
-1.2018858e+86
-3.913888e+85
1.0312133e+86
-1.1434724e+86
-1.142024e+86
-1.5918252e+86
-1.534065e+86
-1.2234206e+86
1.1589252e+86
-1.1680244e+86
-1.0958885e+86
-1.5242254e+86
-1.6071625e+86
2.0328348e+85
-2.6775939e+85
-6.0615956e+86
-6.1404854e+86
2.9316386e+85
-1.2096225e+86
-4.6530109e+85
1.0699079e+86
-1.1564835e+86
-1.1471768e+86
-1.5562957e+86
-1.5974703e+86
-1.2437075e+86
1.1590515e+86
-1.6143236e+86
-1.1742477e+86
-1.1040192e+86
-1.5174119e+86
1.5150701e+85
-3.2957017e+85
-6.1727546e+86
-6.0813186e+86
-2.2180477e+86
-5.7413958e+86
4.0743429e+86
-5.7385104e+86
-5.3591372e+86
-7.0678333e+86
-7.57224e+86
1.2135487e+86
-2.8566699e+85
-6.1444332e+86
-4.3821778e+85
1.1014766e+86
-1.1846129e+86
-1.1261238e+86
-1.6175944e+86
-1.5351558e+86
-1.1510968e+86
9.4592648e+85
-4.1390329e+85
-1.5258721e+86
-1.1428614e+86
-1.152232e+86
-1.5853821e+86
-5.9924524e+86
-3.3044687e+85
5.4762989e+86
1.1853926e+86
-2.2732248e+86
-2.8818353e+87
-3.4409726e+86
3.680058e+86
-7.2305462e+86
-5.5943003e+86
-5.5008038e+86
-7.3518139e+86
-2.8489032e+87
-5.492797e+86
3.9622922e+86
-5.7662041e+86
-7.5476169e+86
-5.3978141e+86
-7.1269946e+86
-2.8686247e+87
-2.7552111e+87
-7.4040564e+85
3.5245765e+87
-1.7631037e+86
-1.8756036e+86
1.4489722e+86
1.4472337e+86
-5.9344385e+85
-1.9875984e+86
-1.8686642e+86
1.3639878e+86
1.3768774e+86
-3.5370325e+87
2.7860894e+87
-8.2474155e+85
-1.9383123e+86
-1.9392769e+86
1.3260797e+86
1.4085439e+86
-3.5696528e+87
-8.8657579e+85
3.5780106e+87
1.3812205e+86
-1.8367748e+86
-1.8448893e+86
1.4649081e+86
-2.4647194e+85
6.1263013e+86
6.1755196e+86
-9.8485799e+86
-1.0019959e+87
-1.0789158e+86
-2.8627977e+87
1.1275226e+86
-1.259686e+86
-1.39078e+86
2.1321298e+86
2.0963073e+86
-2.8187999e+87
-1.2499777e+86
-1.3065681e+86
-1.3908728e+86
2.2165791e+86
2.0488907e+86
-9.5013016e+85
-3.5924755e+87
1.013364e+86
-1.6062351e+86
-1.7216127e+86
1.6855925e+86
1.722548e+86
-3.5271884e+87
-1.3864853e+86
-1.6005377e+86
1.7893329e+86
-1.6089425e+86
1.6633305e+86
-1.2121164e+88
8.9528466e+86
-6.9304968e+86
-7.6246894e+86
8.7354704e+86
6.6556321e+86
-9.3544085e+86
-8.7858405e+86
6.8077122e+86
-1.5177782e+88
-2.7622062e+87
8.8819337e+85
-1.2645819e+86
1.3995395e+86
-1.7872884e+86
-1.8100128e+86
1.5213217e+86
7.5483499e+85
-1.0273925e+86
1.4324984e+86
1.3137389e+86
-1.9268364e+86
-1.9185721e+86
-3.536801e+87
-2.8039069e+87
1.4076049e+86
-1.8101465e+86
-1.9238816e+86
1.428645e+86
1.3575761e+86
1.3228057e+86
-2.0446013e+86
-1.931213e+86
-3.6089599e+87
-1.8067815e+86
6.1315189e+86
6.4053339e+86
-9.6652381e+86
-9.8907026e+86
-2.8310923e+87
7.4478758e+85
-1.2875709e+86
-1.3099767e+86
2.0648586e+86
2.1590001e+86
-8.4796807e+85
2.8048953e+87
1.7455057e+86
-1.6574396e+86
-1.5375978e+86
1.7346022e+86
1.6539691e+86
-1.6343279e+86
-1.6331431e+86
1.7410541e+86
2.1132156e+86
-1.2063895e+86
-1.3202207e+86
2.0940737e+86
-5.843131e+84
5.9077206e+86
-7.3741751e+86
-2.9423908e+85
-2.8639723e+85
4.1475964e+85
3.9941948e+85
5.9916497e+86
-8.7077425e+84
-7.5126396e+86
-2.8662817e+85
4.0406603e+85
-2.9799746e+85
4.1141247e+85
4.5891551e+84
-8.1928194e+84
-2.179964e+85
4.8103215e+85
-2.2577018e+85
4.8984032e+85
-2.2088053e+85
4.9268728e+85
-2.151127e+85
4.7298636e+85
-6.7195145e+84
6.0094627e+86
-7.5493993e+86
-3.0004654e+85
-2.9176678e+85
4.0815925e+85
3.9868516e+85
5.9885731e+86
-7.481946e+86
-8.963877e+84
4.0591632e+85
-2.8169258e+85
-2.9215634e+85
4.1795451e+85
7.0201183e+84
-5.4386807e+84
-2.1379982e+85
-2.2247724e+85
4.7933581e+85
4.9339776e+85
-2.2875898e+85
-2.2159113e+85
4.869563e+85
4.7373455e+85
-5.0190804e+84
5.6840104e+86
-7.1829919e+86
-3.5280755e+85
-3.4502995e+85
3.1604325e+85
3.0168249e+85
5.7749812e+86
-9.4909676e+84
-7.3442965e+86
-3.455792e+85
-3.5644414e+85
3.073332e+85
3.142464e+85
4.8907778e+84
-9.7541782e+84
-3.2860429e+85
3.3819669e+85
-3.3792543e+85
3.4614053e+85
-3.3343726e+85
-3.2655788e+85
3.4863192e+85
3.3170188e+85
-5.7727483e+86
7.3104345e+84
-8.3765154e+84
-3.242102e+85
3.4149479e+85
-3.3358773e+85
3.5487138e+85
-7.0226616e+84
5.8096379e+86
-7.4059554e+86
-3.5784291e+85
-3.4914539e+85
3.1200006e+85
3.0406846e+85
-9.4315954e+84
-7.2984917e+86
-3.3897474e+85
3.0861401e+85
-3.4985035e+85
3.2145647e+85
-3.3965706e+85
-3.3219126e+85
3.4443453e+85
3.3301923e+85
5.7443979e+86
1.3489113e+85
-1.6577101e+85
2.6155048e+85
2.7871807e+85
-7.3076657e+86
-4.188348e+85
-4.1157066e+85
1.4112889e+85
7.2577355e+86
-1.6781311e+85
-3.6699853e+85
-3.675741e+85
2.8807169e+85
3.0693987e+85
5.8213723e+86
1.6490885e+85
2.6073576e+85
2.6105841e+85
-7.4213178e+86
-4.2111969e+85
-4.3705972e+85
1.6690243e+85
7.3999638e+86
-3.8579274e+85
-3.7229766e+85
2.914794e+85
2.8654216e+85
2.8242668e+85
-2.7336802e+87
-4.1530757e+85
1.2941541e+86
1.3288599e+86
-2.0086469e+86
-2.1172881e+86
5.858586e+86
1.3495331e+85
2.5404768e+85
2.7199842e+85
-7.4871887e+86
-4.3168629e+85
-4.2789064e+85
1.3958298e+85
7.4409549e+86
-3.8128925e+85
2.8172886e+85
-3.8159107e+85
2.9864834e+85
-5.812791e+86
7.3459511e+86
1.6278082e+85
-3.8458338e+85
2.986228e+85
-3.6885909e+85
2.9343214e+85
1.5558565e+85
2.6572403e+85
2.6908778e+85
-7.4135312e+86
-4.126042e+85
-4.3640359e+85
-2.8068187e+87
1.8260213e+85
1.2989465e+86
1.3220055e+86
-2.0281662e+86
-2.1797602e+86
-1.2846883e+85
5.6970206e+86
1.5220135e+85
-3.7366203e+85
-3.584211e+85
2.9530681e+85
2.9026168e+85
5.7434076e+86
-1.5176484e+85
-3.6866964e+85
2.8026967e+85
-3.7364926e+85
2.9489549e+85
8.822994e+84
-1.3263455e+85
7.3631421e+86
-3.6560766e+85
2.8754735e+85
-3.7004031e+85
3.0087768e+85
7.2477795e+86
1.0710678e+85
-3.7027592e+85
2.9957053e+85
-3.5814762e+85
2.8979389e+85
-1.1610205e+85
5.7153843e+86
-3.7452064e+85
2.8973369e+85
-3.6164606e+85
2.8623009e+85
5.6352018e+86
-1.519384e+85
-3.5424652e+85
2.8640673e+85
-3.6015822e+85
3.0353054e+85
1.1962369e+85
7.1822614e+86
-1.4491585e+85
-3.5242118e+85
2.9222343e+85
-3.569317e+85
3.0916993e+85
7.3285274e+86
-3.7028874e+85
2.9657604e+85
-3.5789622e+85
2.9112144e+85
1.689113e+84
1.9490061e+84
1.1815e+86
-2.2632036e+86
-2.3149648e+86
1.2261078e+86
-2.3557458e+86
1.2393472e+86
1.2369968e+86
2.8916198e+84
-2.1055587e+86
1.2051055e+86
-2.1523824e+86
1.2538245e+86
-2.0839439e+86
-2.1668567e+86
1.2526341e+86
1.2062473e+86
-5.7867618e+86
9.1987155e+84
-1.3249355e+85
7.5136298e+86
-3.3022954e+85
-3.3439596e+85
3.3743542e+85
3.5140294e+85
9.7299992e+84
-1.3352335e+85
-3.4516816e+85
-3.510429e+85
3.068055e+85
3.1978319e+85
-5.7152241e+86
7.40013e+86
-3.3395678e+85
3.5013806e+85
-3.2266739e+85
3.3832298e+85
-3.3837584e+85
-3.5088896e+85
3.1949113e+85
3.1081113e+85
-1.0829494e+85
5.7578222e+86
-3.5176247e+85
3.1557418e+85
-3.3877257e+85
3.1167584e+85
5.6764834e+86
-1.4941886e+85
-3.3261671e+85
3.1120569e+85
-3.390453e+85
3.2733508e+85
1.1317915e+85
7.3433219e+86
-1.4719749e+85
-3.1807401e+85
3.4049676e+85
-3.2277366e+85
3.5733354e+85
7.4782789e+86
-3.3511927e+85
3.4627671e+85
-3.2289827e+85
3.3922336e+85
-1.0880054e+85
5.9562174e+86
1.3860928e+85
-2.9632025e+85
-2.8257727e+85
4.0916728e+85
4.0483428e+85
5.878999e+86
-1.5330002e+85
-2.7939837e+85
-2.8482164e+85
4.0167938e+85
4.1906664e+85
1.1462937e+85
-1.3343732e+85
-2.1486352e+85
-2.1630792e+85
4.7072286e+85
4.9123965e+85
1.3211429e+85
-2.2896612e+85
-2.1589519e+85
4.7983501e+85
4.7296468e+85
-5.9897532e+86
7.835075e+84
-2.2480466e+85
4.7307418e+85
-2.2686872e+85
4.8908164e+85
1.0682973e+85
-2.8885287e+85
4.0025301e+85
-2.9430883e+85
4.1380977e+85
5.9232242e+86
-2.9519523e+85
-2.8182014e+85
4.1343771e+85
4.0344077e+85
-2.2758076e+85
4.84353e+85
-2.1726098e+85
4.6935482e+85
-5.6903418e+86
8.6999109e+84
-3.6112325e+85
2.9026635e+85
-3.704387e+85
3.0378212e+85
-9.7660655e+84
5.7471666e+86
-7.3754735e+86
9.9505359e+84
-3.8077715e+85
-3.716185e+85
2.867961e+85
2.7991236e+85
-7.2628455e+86
-3.6345093e+85
2.8027181e+85
-3.7347967e+85
2.9438167e+85
9.7911605e+84
-3.763876e+85
-3.6751529e+85
2.9389029e+85
2.8495749e+85
-1.1809161e+85
-5.8016886e+86
1.0874512e+85
-3.8830823e+85
2.8926815e+85
-3.792116e+85
2.8093504e+85
-5.73945e+86
-3.7336309e+85
2.8214723e+85
-3.8093301e+85
2.9778464e+85
1.0952284e+85
-7.3216432e+86
2.4578588e+85
2.6816673e+85
-4.2742804e+85
-4.3510699e+85
1.1229978e+85
-7.4339327e+86
2.520693e+85
2.4618968e+85
-4.3443571e+85
-4.4478159e+85
5.8024811e+86
8.3602581e+84
-7.4486469e+86
2.5802994e+85
2.6153272e+85
-4.3976147e+85
-4.2752146e+85
7.5804053e+84
7.3629023e+86
-3.779306e+85
2.821069e+85
-3.8335317e+85
2.9171544e+85
5.7059862e+86
-7.2766911e+86
2.5671503e+85
2.4776153e+85
-4.3000072e+85
-4.4103219e+85
7.216278e+86
-3.8432031e+85
2.8996674e+85
-3.7440771e+85
2.7710263e+85
-7.4386708e+84
5.6223832e+86
-3.7678133e+85
2.8817312e+85
-3.6705972e+85
2.7640802e+85
5.7048901e+86
-3.6877693e+85
2.7924635e+85
-3.7813248e+85
2.8786729e+85
4.12293e+84
-3.6609663e+85
2.8623271e+85
-3.7491622e+85
2.9402795e+85
-3.7214397e+85
2.9470799e+85
-3.6462806e+85
2.7928709e+85
1.1295681e+86
-3.8320116e+83
-1.4570792e+86
6.531669e+83
6.1256258e+84
-7.0851649e+84
6.0292479e+84
-7.4478366e+84
-2.5455704e+83
1.445642e+86
1.1000617e+84
-6.9976949e+84
6.20648e+84
6.2892277e+84
-7.3353296e+84
1.1517249e+86
-1.4938514e+86
-7.3191937e+84
6.0415234e+84
-7.4039076e+84
6.3209328e+84
1.4826049e+86
-7.2953872e+84
6.5022066e+84
-7.238929e+84
6.2034469e+84
1.1456805e+86
-1.5313089e+83
-1.4797264e+86
3.7927757e+83
6.300098e+84
-7.0593021e+84
6.1793656e+84
-7.4320477e+84
-5.3571261e+82
5.7163463e+83
-7.0584301e+84
6.1795524e+84
6.2815273e+84
-7.3887872e+84
1.1702642e+86
-1.518965e+86
6.162154e+84
-7.3976766e+84
6.4574725e+84
-7.3512145e+84
-7.3780897e+84
6.4702132e+84
-7.2683818e+84
6.1770072e+84
1.1706439e+86
4.1878563e+83
-1.5215515e+86
-3.3336739e+83
6.4581778e+84
-6.8895224e+84
6.395883e+84
-7.2774086e+84
2.9576979e+83
2.3654565e+83
-7.0422209e+84
6.3052215e+84
6.4007701e+84
-7.4106112e+84
1.1919965e+86
-1.5543708e+86
6.3762956e+84
-7.154743e+84
6.6913983e+84
-7.1472517e+84
-7.386942e+84
6.5743088e+84
-7.3581497e+84
6.2657901e+84
1.0005824e+84
-1.2247605e+86
-5.7272345e+83
-7.4315519e+84
-7.782272e+84
5.9041503e+84
5.9846941e+84
-1.2413259e+86
1.1598654e+84
6.1255935e+84
5.8188683e+84
-7.8411873e+84
-7.7919301e+84
8.7516488e+83
-8.1795359e+83
-7.1986306e+84
-1.5604871e+86
7.3062647e+84
-5.7555838e+86
-8.4453533e+84
2.7908859e+85
-3.8967149e+85
-4.0412425e+85
2.8974302e+85
1.4144702e+84
-1.5880874e+86
-8.0083905e+84
-1.2509284e+86
-7.7948723e+84
-8.1057016e+84
5.8708117e+84
5.8987563e+84
-5.8552585e+86
2.7980165e+85
-4.1552338e+85
-4.1294069e+85
2.7128667e+85
-1.6033661e+86
-7.8208548e+84
8.2998968e+84
-1.2072935e+85
2.7838773e+85
-4.0906974e+85
-4.1746802e+85
2.8669744e+85
2.6767453e+85
-4.4394559e+85
-4.2740758e+85
2.6742993e+85
1.1712684e+86
-6.5185602e+83
-1.4789228e+86
9.7088804e+83
7.7916561e+84
-5.9620722e+84
7.6789994e+84
-6.3349229e+84
8.4711239e+83
-5.3708848e+84
8.404266e+84
8.5337492e+84
-5.6934916e+84
-1.5139735e+86
7.6100552e+84
-6.2936009e+84
7.9173034e+84
-6.2349283e+84
1.1414972e+86
-6.5374728e+83
-1.4529018e+86
9.6497083e+83
6.6516239e+84
-6.6325369e+84
6.5553932e+84
-6.99755e+84
-4.2967192e+83
1.1040434e+84
-6.4190869e+84
6.9952869e+84
7.0910638e+84
-6.7656769e+84
1.1619138e+86
-1.4874048e+86
-6.8850739e+84
6.5291271e+84
-6.9373145e+84
6.8264853e+84
-6.7078557e+84
7.2673204e+84
-6.6743066e+84
6.9313078e+84
1.1271996e+86
-5.603942e+83
1.2011899e+84
6.2697603e+84
-6.827687e+84
6.2331527e+84
-7.2012796e+84
-4.2368961e+83
1.1811735e+84
-6.7309466e+84
6.38706e+84
6.4640054e+84
-7.0753107e+84
1.1498791e+86
6.2344706e+84
-7.1371642e+84
6.5263573e+84
-7.0664078e+84
-7.0176027e+84
6.6820769e+84
-6.9771447e+84
6.3534714e+84
9.5795157e+82
1.3358127e+85
1.2347622e+85
-1.5733821e+86
-2.6543665e+84
-2.6468615e+84
1.3657133e+83
1.2801539e+85
1.3039746e+85
-1.6104545e+86
-2.6643802e+84
-2.8843077e+84
8.3058376e+81
-2.2328524e+83
1.2500705e+85
1.2976508e+85
-1.5862446e+86
-2.6486949e+84
-2.881215e+84
1.3251001e+85
1.2416698e+85
-1.6120785e+86
-2.849219e+84
-2.851532e+84
9.795112e+83
-9.3909131e+83
1.2120867e+85
1.3036727e+85
-1.572525e+86
-2.6808183e+84
-2.7309843e+84
1.2484223e+84
1.2962226e+85
1.263682e+85
-1.6070229e+86
-2.7149721e+84
-2.8820543e+84
8.0356925e+83
1.2462764e+85
1.315891e+85
-1.6128443e+86
-2.797478e+84
-2.9122422e+84
1.3138864e+85
1.2295763e+85
-1.5830711e+86
-2.7320225e+84
-2.7681771e+84
1.9015449e+84
1.1902174e+85
1.2875938e+85
-1.5661632e+86
-2.1002223e+84
-2.8396584e+84
-2.8474474e+84
2.5509543e+84
1.2718435e+85
1.2485376e+85
-1.6010915e+86
-2.7921772e+84
-3.0486207e+84
-1.5060442e+85
5.4831253e+85
5.7298791e+85
-7.4440637e+86
-8.3171843e+84
-9.9852235e+84
-1.9972097e+85
5.7178344e+85
5.4408728e+85
-7.6144522e+86
-1.0401078e+85
-9.7411849e+84
2.0529947e+84
1.2178997e+85
1.2980776e+85
-1.606056e+86
-2.9934377e+84
-2.9804437e+84
2.0317466e+84
1.289712e+85
1.2188371e+85
-1.5770942e+86
-2.9348441e+84
-2.7372563e+84
1.2787584e+84
-1.4788573e+84
1.2578628e+85