/*--------------------------------*- C++ -*----------------------------------*\
  =========                 |
  \\      /  F ield         | OpenFOAM: The Open Source CFD Toolbox
   \\    /   O peration     | Website:  https://openfoam.org
    \\  /    A nd           | Version:  7
     \\/     M anipulation  |
\*---------------------------------------------------------------------------*/
FoamFile
{
    version     2.0;
    format      ascii;
    class       volScalarField;
    location    "2000";
    object      pMean;
}
// * * * * * * * * * * * * * * * * * * * * * * * * * * * * * * * * * * * * * //

dimensions      [0 2 -2 0 0 0 0];

internalField   nonuniform List<scalar> 
33730
(
-1.9604761e+179
-1.8995661e+179
-1.9661492e+179
-1.9609729e+179
-1.9462163e+179
-1.957035e+179
-1.9414419e+179
-1.9403887e+179
-1.8394206e+179
-1.9355664e+179
-1.928645e+179
-1.882823e+179
-1.9600766e+179
-1.9521705e+179
-1.954306e+179
-1.9621303e+179
-1.9364641e+179
-1.9840478e+179
-1.98286e+179
-1.9818569e+179
-1.9848445e+179
-1.9776459e+179
-1.9796894e+179
-1.978271e+179
-1.950257e+179
-1.9814186e+179
-1.9401954e+179
-1.934877e+179
-1.9265056e+179
-1.9107237e+179
-1.829087e+179
-1.8803266e+179
-1.8364036e+179
-1.8109344e+179
-1.8293597e+179
-1.8373059e+179
-1.8143737e+179
-1.874929e+179
-1.841496e+179
-1.9767844e+179
-1.9738488e+179
-1.9688037e+179
-1.9721174e+179
-1.9210542e+179
-1.9151834e+179
-1.9717263e+179
-1.9676019e+179
-1.9700349e+179
-1.9750002e+179
-1.9427669e+179
-1.9661472e+179
-1.9616384e+179
-1.9650432e+179
-1.9692581e+179
-1.9440037e+179
-1.961258e+179
-1.9722748e+179
-1.9641035e+179
-1.9749192e+179
-1.9699612e+179
-1.9774814e+179
-1.9661581e+179
-1.9806264e+179
-1.906631e+179
-1.9347587e+179
-1.935247e+179
-1.9927494e+179
-1.9931239e+179
-1.9951783e+179
-1.9949468e+179
-1.9903374e+179
-1.9923192e+179
-1.9914157e+179
-1.9943013e+179
-1.9854111e+179
-1.9730897e+179
-1.9880695e+179
-1.9866701e+179
-1.9908155e+179
-1.9882258e+179
-1.9889237e+179
-1.9920743e+179
-1.991336e+179
-1.9736666e+179
-1.9691361e+179
-1.9707921e+179
-1.9649718e+179
-1.9613854e+179
-1.9328976e+179
-1.9626261e+179
-1.9673342e+179
-1.9212718e+179
-1.9262609e+179
-1.9137365e+179
-1.8318101e+179
-1.8647953e+179
-1.8289094e+179
-1.8006227e+179
-1.8160646e+179
-1.8271611e+179
-1.8078761e+179
-1.869742e+179
-1.9349337e+179
-1.9332263e+179
-1.9032718e+179
-1.9021508e+179
-1.8383979e+179
-1.8398163e+179
-1.8668579e+179
-1.8642719e+179
-1.7780184e+179
-1.7814909e+179
-1.8982729e+179
-1.8948643e+179
-1.927223e+179
-1.931036e+179
-1.8697387e+179
-1.8435446e+179
-1.8445526e+179
-1.8707693e+179
-1.8867527e+179
-1.8725572e+179
-1.8545862e+179
-1.8421428e+179
-1.8079661e+179
-1.9546735e+179
-1.9294115e+179
-1.9102938e+179
-1.9973786e+179
-1.9967705e+179
-1.9938017e+179
-1.9953617e+179
-1.9893481e+179
-1.9653331e+179
-1.991479e+179
-1.9930917e+179
-1.993057e+179
-1.9628708e+179
-1.9584808e+179
-1.9542562e+179
-1.9069129e+179
-1.9380614e+179
-1.9316882e+179
-1.9740106e+179
-1.9632225e+179
-1.9651784e+179
-1.9761727e+179
-1.9572522e+179
-1.9533338e+179
-1.957103e+179
-1.9617762e+179
-1.9679733e+179
-1.9567761e+179
-1.9602979e+179
-1.9712066e+179
-1.9521303e+179
-1.9568757e+179
-1.9629863e+179
-1.9674928e+179
-1.9708432e+179
-1.9690386e+179
-1.9772928e+179
-1.9785972e+179
-1.9722127e+179
-1.973597e+179
-1.9791569e+179
-1.9778923e+179
-1.9734888e+179
-1.9723039e+179
-1.9816487e+179
-1.9799419e+179
-1.9748234e+179
-1.9765476e+179
-1.980549e+179
-1.9818703e+179
-1.9772321e+179
-1.9779633e+179
-1.9862506e+179
-1.9848975e+179
-1.9778395e+179
-1.9791499e+179
-1.9843649e+179
-1.9832322e+179
-1.9761252e+179
-1.9747122e+179
-1.9840622e+179
-1.9828347e+179
-1.9797678e+179
-1.9811083e+179
-1.9853222e+179
-1.9862377e+179
-1.9171468e+179
-1.9247935e+179
-1.916969e+179
-1.9248648e+179
-1.9502931e+179
-1.9451673e+179
-1.9494629e+179
-1.953607e+179
-1.9452461e+179
-1.9481979e+179
-1.9555821e+179
-1.9586853e+179
-1.9981143e+179
-1.9999602e+179
-1.9988905e+179
-2.0014318e+179
-1.999193e+179
-1.9989541e+179
-2.0010169e+179
-2.0016393e+179
-1.995374e+179
-1.996364e+179
-1.9979936e+179
-1.9995982e+179
-1.9971979e+179
-1.9997052e+179
-1.9972583e+179
-1.9990837e+179
-1.9832737e+179
-1.9903022e+179
-1.9913251e+179
-1.9931783e+179
-1.9952302e+179
-1.982134e+179
-1.9854427e+179
-1.9853043e+179
-1.9921943e+179
-1.995626e+179
-1.9922217e+179
-1.995005e+179
-1.9932721e+179
-1.9942869e+179
-1.9975889e+179
-1.9960537e+179
-1.9949196e+179
-1.994508e+179
-1.9970259e+179
-1.9977793e+179
-1.9790031e+179
-1.980518e+179
-1.9812063e+179
-1.9840945e+179
-1.9748536e+179
-1.9766477e+179
-1.9779865e+179
-1.9784489e+179
-1.9562431e+179
-1.9759238e+179
-1.9722476e+179
-1.9705319e+179
-1.9726055e+179
-1.9548386e+179
-1.9528894e+179
-1.9576799e+179
-1.9482087e+179
-1.9518951e+179
-1.86186e+179
-1.8352613e+179
-1.8336768e+179
-1.859526e+179
-1.7744108e+179
-1.9190639e+179
-1.9145066e+179
-1.8881673e+179
-1.8845656e+179
-1.8585266e+179
-1.8232308e+179
-1.8541285e+179
-1.826783e+179
-1.8571352e+179
-1.8296874e+179
-1.772443e+179
-1.9223028e+179
-1.8923709e+179
-1.8901847e+179
-1.9247037e+179
-1.9539466e+179
-1.9534438e+179
-1.9708725e+179
-1.9712223e+179
-1.9519724e+179
-1.9504511e+179
-1.9676691e+179
-1.9694915e+179
-1.9103211e+179
-1.9096136e+179
-1.9283838e+179
-1.928931e+179
-1.9258668e+179
-1.9084049e+179
-1.9074705e+179
-1.9272368e+179
-1.8336162e+179
-1.8463457e+179
-1.8351352e+179
-1.8478539e+179
-1.8013824e+179
-1.8362552e+179
-1.849016e+179
-1.8500507e+179
-1.8371641e+179
-1.8042476e+179
-1.8681801e+179
-1.866918e+179
-1.8815065e+179
-1.8826015e+179
-1.8654684e+179
-1.863992e+179
-1.8784193e+179
-1.8800389e+179
-1.7742572e+179
-1.7771932e+179
-1.8059638e+179
-1.8069281e+179
-1.9239275e+179
-1.9050403e+179
-1.9246244e+179
-1.9060245e+179
-1.9034273e+179
-1.901926e+179
-1.9204215e+179
-1.9223681e+179
-1.9474393e+179
-1.9453761e+179
-1.9632079e+179
-1.9656999e+179
-1.9672102e+179
-1.9490557e+179
-1.9495642e+179
-1.9672363e+179
-1.8840635e+179
-1.8715187e+179
-1.8703826e+179
-1.8853739e+179
-1.8528761e+179
-1.8515395e+179
-1.8389382e+179
-1.8402162e+179
-1.8411183e+179
-1.8538188e+179
-1.8415729e+179
-1.854166e+179
-1.8724445e+179
-1.8721479e+179
-1.8864839e+179
-1.886881e+179
-1.8881241e+179
-1.8951423e+179
-1.8882428e+179
-1.8953262e+179
-1.8706967e+179
-1.8766623e+179
-1.8706598e+179
-1.8767284e+179
-1.8525674e+179
-1.8583587e+179
-1.8525217e+179
-1.8583172e+179
-1.8420567e+179
-1.8419457e+179
-1.8371449e+179
-1.8212056e+179
-1.8370519e+179
-1.8421352e+179
-1.8214329e+179
-1.8372218e+179
-1.8083479e+179
-1.8088235e+179
-1.9607858e+179
-1.9716072e+179
-1.9614601e+179
-1.9320892e+179
-1.9433194e+179
-1.932532e+179
-1.9440043e+179
-1.9094159e+179
-1.9178199e+179
-1.9096014e+179
-1.9182002e+179
-2.0057805e+179
-2.005851e+179
-2.004402e+179
-2.0053662e+179
-2.0022309e+179
-2.00329e+179
-2.0037585e+179
-2.0036785e+179
-1.9972174e+179
-1.9987447e+179
-1.9873557e+179
-1.98677e+179
-1.9995447e+179
-1.9996087e+179
-2.0019092e+179
-2.0017304e+179
-2.0005348e+179
-2.0015305e+179
-1.9848878e+179
-1.9823882e+179
-1.9787614e+179
-1.9799174e+179
-1.9766983e+179
-1.9741656e+179
-1.9508799e+179
-1.9467648e+179
-1.9436571e+179
-1.9232495e+179
-1.9144695e+179
-1.9099685e+179
-1.904165e+179
-1.9725408e+179
-1.9852384e+179
-1.9865444e+179
-1.9453123e+179
-1.9476637e+179
-1.9749277e+179
-1.9878133e+179
-1.9882971e+179
-1.9606285e+179
-1.9496103e+179
-1.9529462e+179
-1.9641678e+179
-1.9674529e+179
-1.9794231e+179
-1.9813386e+179
-1.9396117e+179
-1.9428131e+179
-1.9699361e+179
-1.9829305e+179
-1.9840122e+179
-1.9700378e+179
-1.9616822e+179
-1.9718821e+179
-1.9637615e+179
-1.9654597e+179
-1.9668562e+179
-1.9733326e+179
-1.9753406e+179
-1.9712564e+179
-1.9649789e+179
-1.9668593e+179
-1.9731322e+179
-1.9702783e+179
-1.9743895e+179
-1.9682221e+179
-1.9761833e+179
-1.9888267e+179
-1.9902742e+179
-1.982428e+179
-1.9830118e+179
-1.9819425e+179
-1.9810426e+179
-1.9835058e+179
-1.9846246e+179
-1.9832899e+179
-1.9825766e+179
-1.9857377e+179
-1.9864572e+179
-1.9882722e+179
-1.9885824e+179
-1.9844351e+179
-1.9865698e+179
-1.9852183e+179
-1.9876152e+179
-1.9930212e+179
-1.9916922e+179
-1.9838662e+179
-1.9850446e+179
-1.9847496e+179
-1.9857729e+179
-1.9851783e+179
-1.9858e+179
-1.9860321e+179
-1.9871042e+179
-1.9871508e+179
-1.9880583e+179
-1.9908788e+179
-1.9894017e+179
-1.9888399e+179
-1.9912182e+179
-1.9908597e+179
-1.9884135e+179
-1.9975393e+179
-1.9966621e+179
-1.9864437e+179
-1.9872691e+179
-1.987555e+179
-1.9881056e+179
-1.987822e+179
-1.988406e+179
-1.9885367e+179
-1.9895589e+179
-1.9910605e+179
-1.9939807e+179
-1.9916355e+179
-1.9940901e+179
-1.9895727e+179
-1.9915239e+179
-1.9904321e+179
-1.9928423e+179
-1.9955328e+179
-1.9943181e+179
-1.9888605e+179
-1.989527e+179
-1.9898575e+179
-1.9903674e+179
-1.9897828e+179
-1.9903152e+179
-1.9905026e+179
-1.9913868e+179
-1.9922695e+179
-1.9949744e+179
-1.9928497e+179
-1.995808e+179
-1.9930356e+179
-1.993475e+179
-1.9958946e+179
-1.9956246e+179
-1.9324696e+179
-1.9286592e+179
-1.9369929e+179
-1.9398154e+179
-1.9359528e+179
-1.9406519e+179
-1.9453492e+179
-1.9306288e+179
-1.9404031e+179
-1.934938e+179
-1.9395608e+179
-1.9451339e+179
-1.9499692e+179
-1.9527631e+179
-1.9408507e+179
-1.9454797e+179
-1.9565651e+179
-1.9558646e+179
-1.9537718e+179
-1.9623077e+179
-1.9638837e+179
-1.9579364e+179
-1.9657098e+179
-1.9595207e+179
-1.9679361e+179
-1.9572377e+179
-1.9632787e+179
-1.9586215e+179
-1.9645982e+179
-1.9628373e+179
-1.9667745e+179
-1.9607921e+179
-1.9691652e+179
-2.000267e+179
-1.9999092e+179
-2.0044732e+179
-2.0056412e+179
-2.0058761e+179
-2.0010493e+179
-2.0001746e+179
-2.0051599e+179
-2.0012373e+179
-2.0012479e+179
-2.0056307e+179
-2.0064885e+179
-2.0011886e+179
-2.0018576e+179
-2.0065202e+179
-2.0056144e+179
-1.9984326e+179
-1.9977518e+179
-2.0022832e+179
-2.0037687e+179
-1.9992249e+179
-1.9981024e+179
-2.0041573e+179
-2.0034383e+179
-1.9991327e+179
-1.9989022e+179
-2.0037799e+179
-2.0047127e+179
-1.9997651e+179
-1.9989477e+179
-2.0046113e+179
-2.0036988e+179
-1.9889446e+179
-1.9889302e+179
-1.9913661e+179
-1.9918634e+179
-1.9925941e+179
-1.9915415e+179
-1.9965394e+179
-1.9982213e+179
-1.9936719e+179
-1.9925855e+179
-1.9988388e+179
-1.9982694e+179
-1.987367e+179
-1.9882468e+179
-1.9915469e+179
-1.9898501e+179
-1.9942062e+179
-1.9944266e+179
-1.9990196e+179
-1.9999107e+179
-1.9943476e+179
-1.9949805e+179
-1.9998966e+179
-1.999108e+179
-1.9956336e+179
-1.9957791e+179
-2.0000675e+179
-2.0011327e+179
-1.9957285e+179
-1.9961075e+179
-2.0014326e+179
-2.0009404e+179
-1.9966545e+179
-2.0014104e+179
-2.0023686e+179
-1.9971884e+179
-1.9972063e+179
-1.9967657e+179
-2.002308e+179
-2.0015142e+179
-1.9838166e+179
-1.9850546e+179
-1.9882213e+179
-1.9864106e+179
-1.9858516e+179
-1.9859201e+179
-1.988116e+179
-1.9884963e+179
-1.9808949e+179
-1.9821398e+179
-1.9828516e+179
-1.9846297e+179
-1.9850628e+179
-1.9828254e+179
-1.9825709e+179
-1.984501e+179
-1.9667939e+179
-1.9681196e+179
-1.9696838e+179
-1.9694083e+179
-1.9789332e+179
-1.9791749e+179
-1.9813226e+179
-1.9811657e+179
-1.9780181e+179
-1.9767533e+179
-1.9778681e+179
-1.9804081e+179
-1.9656186e+179
-1.9636981e+179
-1.9652546e+179
-1.9682219e+179
-1.9595817e+179
-1.9627658e+179
-1.9609643e+179
-1.9631298e+179
-1.8630689e+179
-1.8622267e+179
-1.8762739e+179
-1.8771348e+179
-1.8317991e+179
-1.8326846e+179
-1.8444139e+179
-1.8452298e+179
-1.7994617e+179
-1.8288188e+179
-1.8304814e+179
-1.8414164e+179
-1.8429815e+179
-1.7984104e+179
-1.8734052e+179
-1.8606128e+179
-1.859155e+179
-1.874972e+179
-1.7735674e+179
-1.7717696e+179
-1.9378246e+179
-1.9362676e+179
-1.9544567e+179
-1.9533382e+179
-1.9345265e+179
-1.9322241e+179
-1.9110018e+179
-1.951493e+179
-1.9486446e+179
-1.8954898e+179
-1.894016e+179
-1.912223e+179
-1.9135809e+179
-1.8808048e+179
-1.8922184e+179
-1.9104534e+179
-1.8907246e+179
-1.9085412e+179
-1.8778177e+179
-1.9080967e+179
-1.848054e+179
-1.8228105e+179
-1.8237227e+179
-1.8509467e+179
-1.7682459e+179
-1.8677266e+179
-1.8554595e+179
-1.854007e+179
-1.8692858e+179
-1.8373678e+179
-1.8360295e+179
-1.8234198e+179
-1.8249274e+179
-1.7930351e+179
-1.8709014e+179
-1.8580485e+179
-1.8570251e+179
-1.87209e+179
-1.8399883e+179
-1.8388423e+179
-1.8263996e+179
-1.8275114e+179
-1.7967963e+179
-1.7691547e+179
-1.7720326e+179
-1.9051894e+179
-1.7544701e+179
-1.7564982e+179
-1.9418123e+179
-1.9398055e+179
-1.956738e+179
-1.9595123e+179
-1.9191121e+179
-1.8995198e+179
-1.9006464e+179
-1.9182831e+179
-1.9151043e+179
-1.8983349e+179
-1.8968893e+179
-1.9170262e+179
-1.9611511e+179
-1.9438736e+179
-1.9430782e+179
-1.9616894e+179
-1.9601687e+179
-1.9604859e+179
-1.9712213e+179
-1.9712954e+179
-1.9591291e+179
-1.9698477e+179
-1.9597977e+179
-1.9708249e+179
-1.9837769e+179
-1.9890155e+179
-1.9846961e+179
-1.9902514e+179
-1.9851637e+179
-1.9907498e+179
-1.9852177e+179
-1.9905444e+179
-1.9579811e+179
-1.9585481e+179
-1.9690084e+179
-1.9693166e+179
-1.967519e+179
-1.9567918e+179
-1.9573054e+179
-1.9683564e+179
-1.9812828e+179
-1.9821904e+179
-1.9867107e+179
-1.9879277e+179
-1.982903e+179
-1.9832196e+179
-1.9885053e+179
-1.9883925e+179
-1.9091774e+179
-1.9094747e+179
-1.9175921e+179
-1.9177644e+179
-1.9082529e+179
-1.9087848e+179
-1.9165794e+179
-1.9172016e+179
-1.9308417e+179
-1.9419869e+179
-1.9314692e+179
-1.9427541e+179
-1.9318251e+179
-1.9320226e+179
-1.9431328e+179
-1.9432284e+179
-1.9284981e+179
-1.9394947e+179
-1.9290931e+179
-1.9401807e+179
-1.9070158e+179
-1.9076831e+179
-1.9154407e+179
-1.9160524e+179
-1.9060108e+179
-1.9143114e+179
-1.9064384e+179
-1.9148724e+179
-1.9297579e+179
-1.9303509e+179
-1.940912e+179
-1.9413995e+179
-1.8336149e+179
-1.8339888e+179
-1.8139845e+179
-1.8292368e+179
-1.8288058e+179
-1.844047e+179
-1.8446069e+179
-1.8498193e+179
-1.8503679e+179
-1.8346839e+179
-1.8354187e+179
-1.8151277e+179
-1.8307709e+179
-1.8299998e+179
-1.845247e+179
-1.84595e+179
-1.851015e+179
-1.8517125e+179
-1.8023885e+179
-1.8031594e+179
-1.8360673e+179
-1.8366075e+179
-1.8158252e+179
-1.8319404e+179
-1.8314968e+179
-1.846633e+179
-1.8523705e+179
-1.8472405e+179
-1.8530411e+179
-1.847997e+179
-1.8537513e+179
-1.8486363e+179
-1.8544132e+179
-1.8372779e+179
-1.8380792e+179
-1.8167976e+179
-1.8332438e+179
-1.8325474e+179
-1.8046549e+179
-1.8036621e+179
-1.8659847e+179
-1.8666729e+179
-1.8720431e+179
-1.8726576e+179
-1.8646423e+179
-1.8706335e+179
-1.8652523e+179
-1.8713213e+179
-1.8822655e+179
-1.889412e+179
-1.8829298e+179
-1.8901281e+179
-1.8836142e+179
-1.8908113e+179
-1.884106e+179
-1.8912675e+179
-1.8631579e+179
-1.8692543e+179
-1.8639063e+179
-1.869947e+179
-1.8619704e+179
-1.8680121e+179
-1.8624733e+179
-1.8685744e+179
-1.8794954e+179
-1.8866994e+179
-1.8801221e+179
-1.8873785e+179
-1.8808323e+179
-1.8880657e+179
-1.8815229e+179
-1.8887218e+179
-1.7859651e+179
-1.7753159e+179
-1.7762257e+179
-1.7871413e+179
-1.7766875e+179
-1.787726e+179
-1.7882012e+179
-1.788763e+179
-1.8053504e+179
-1.8184369e+179
-1.8065779e+179
-1.8198326e+179
-1.807535e+179
-1.8072456e+179
-1.8205907e+179
-1.8208807e+179
-1.9261629e+179
-1.9269471e+179
-1.9374405e+179
-1.9383226e+179
-1.9035898e+179
-1.9042821e+179
-1.9118991e+179
-1.9127145e+179
-1.9275799e+179
-1.9389367e+179
-1.9279597e+179
-1.9390919e+179
-1.9054715e+179
-1.9049217e+179
-1.9133645e+179
-1.9137768e+179
-1.9021055e+179
-1.9105533e+179
-1.9028456e+179
-1.9111867e+179
-1.9007329e+179
-1.9090087e+179
-1.9013926e+179
-1.9098271e+179
-1.923031e+179
-1.9342697e+179
-1.9239013e+179
-1.9353435e+179
-1.9247243e+179
-1.9361674e+179
-1.9253875e+179
-1.9367303e+179
-1.9532637e+179
-1.9539708e+179
-1.9644415e+179
-1.9648309e+179
-1.9514645e+179
-1.952407e+179
-1.962346e+179
-1.9636047e+179
-1.9762321e+179
-1.9775326e+179
-1.9818055e+179
-1.9835206e+179
-1.978405e+179
-1.9788354e+179
-1.9843154e+179
-1.9843312e+179
-1.9796101e+179
-1.9851097e+179
-1.9805772e+179
-1.9863316e+179
-1.9547148e+179
-1.9655847e+179
-1.9554995e+179
-1.9666456e+179
-1.9560001e+179
-1.9563205e+179
-1.9671304e+179
-1.9671396e+179
-1.9810265e+179
-1.9868096e+179
-1.9810125e+179
-1.9864867e+179
-1.8847153e+179
-1.8917297e+179
-1.8852426e+179
-1.8922153e+179
-1.8686786e+179
-1.8693445e+179
-1.8745768e+179
-1.8752366e+179
-1.8675447e+179
-1.8734407e+179
-1.8680358e+179
-1.8739776e+179
-1.8858891e+179
-1.88656e+179
-1.8928519e+179
-1.8935176e+179
-1.850981e+179
-1.8566389e+179
-1.851695e+179
-1.8572917e+179
-1.8496578e+179
-1.8554144e+179
-1.8502271e+179
-1.8560104e+179
-1.8389478e+179
-1.8395591e+179
-1.8341902e+179
-1.8347486e+179
-1.8401272e+179
-1.8408719e+179
-1.8360335e+179
-1.8353349e+179
-1.8412425e+179
-1.8414872e+179
-1.8365935e+179
-1.8364404e+179
-1.8519275e+179
-1.8577174e+179
-1.852379e+179
-1.8581046e+179
-1.8417215e+179
-1.8419105e+179
-1.8370388e+179
-1.8367788e+179
-1.8526346e+179
-1.8584198e+179
-1.852753e+179
-1.8585138e+179
-1.8703802e+179
-1.8764758e+179
-1.8706126e+179
-1.8766126e+179
-1.8697353e+179
-1.8757108e+179
-1.8700939e+179
-1.8761349e+179
-1.8871348e+179
-1.8941847e+179
-1.88763e+179
-1.8947483e+179
-1.8879845e+179
-1.8951621e+179
-1.8881176e+179
-1.8952997e+179
-1.8891204e+179
-1.8858794e+179
-1.8891549e+179
-1.8858864e+179
-1.8953788e+179
-1.8988464e+179
-1.8989044e+179
-1.8954011e+179
-1.8859614e+179
-1.8892132e+179
-1.8859036e+179
-1.8891782e+179
-1.8954466e+179
-1.8989461e+179
-1.8954854e+179
-1.8989429e+179
-1.8708944e+179
-1.8684714e+179
-1.8709697e+179
-1.868434e+179
-1.8768064e+179
-1.8793993e+179
-1.8794134e+179
-1.8768036e+179
-1.8709415e+179
-1.8684513e+179
-1.8709381e+179
-1.8684944e+179
-1.8768434e+179
-1.8794381e+179
-1.8768867e+179
-1.8794863e+179
-1.8541787e+179
-1.8529398e+179
-1.8542746e+179
-1.8528772e+179
-1.8600029e+179
-1.861935e+179
-1.861888e+179
-1.8599999e+179
-1.8541768e+179
-1.8529195e+179
-1.8542249e+179
-1.8529007e+179
-1.8599934e+179
-1.8619148e+179
-1.8599856e+179
-1.8619437e+179
-1.8468251e+179
-1.8469541e+179
-1.8470256e+179
-1.8469891e+179
-1.8470458e+179
-1.8469212e+179
-1.8470774e+179
-1.8469426e+179
-1.8363823e+179
-1.8278169e+179
-1.8229299e+179
-1.8228267e+179
-1.8276877e+179
-1.8364986e+179
-1.8469804e+179
-1.8470549e+179
-1.8469962e+179
-1.846974e+179
-1.8278463e+179
-1.8230662e+179
-1.823008e+179
-1.827861e+179
-1.8365627e+179
-1.8138978e+179
-1.8093534e+179
-1.8091526e+179
-1.8137879e+179
-1.8138796e+179
-1.8094064e+179
-1.8096132e+179
-1.8141579e+179
-1.9914298e+179
-1.9962493e+179
-2.0016578e+179
-1.9680742e+179
-1.9607471e+179
-1.9676598e+179
-1.9610411e+179
-1.9759429e+179
-1.9825801e+179
-1.9831957e+179
-1.9763749e+179
-1.9683363e+179
-1.9612286e+179
-1.9683032e+179
-1.9613398e+179
-1.9361548e+179
-1.9295645e+179
-1.9359636e+179
-1.929744e+179
-1.9442546e+179
-1.9510173e+179
-1.9513547e+179
-1.9444847e+179
-1.929921e+179
-1.9363799e+179
-1.9298123e+179
-1.9363027e+179
-1.9446953e+179
-1.9515553e+179
-1.9447953e+179
-1.9515917e+179
-1.9101911e+179
-1.9061576e+179
-1.9101161e+179
-1.9062064e+179
-1.9168162e+179
-1.9211956e+179
-1.9213607e+179
-1.916942e+179
-1.9102778e+179
-1.9062461e+179
-1.9102395e+179
-1.9062991e+179
-1.9169943e+179
-1.9214268e+179
-1.9170662e+179
-1.9214838e+179
-2.0097749e+179
-2.0092252e+179
-2.0091391e+179
-2.0097836e+179
-2.0078998e+179
-2.0088584e+179
-2.0091643e+179
-2.0088301e+179
-2.0055857e+179
-2.0067027e+179
-2.0067996e+179
-2.0070121e+179
-2.0070574e+179
-2.0078906e+179
-2.0073734e+179
-2.0078493e+179
-1.9960793e+179
-1.9999763e+179
-2.0013764e+179
-2.0019229e+179
-2.0019189e+179
-1.9959575e+179
-1.9941185e+179
-1.9953041e+179
-2.0024593e+179
-2.0033268e+179
-2.0034253e+179
-2.0030566e+179
-2.0049615e+179
-2.0056231e+179
-2.0056012e+179
-2.0051929e+179
-2.003699e+179
-2.0045678e+179
-2.0049183e+179
-2.0047376e+179
-1.9924884e+179
-1.9927657e+179
-1.9900564e+179
-1.9914797e+179
-1.9863129e+179
-1.9876306e+179
-1.9884722e+179
-1.9886129e+179
-1.9845108e+179
-1.9850407e+179
-1.981606e+179
-1.9722604e+179
-1.9834268e+179
-1.9711472e+179
-1.9691997e+179
-1.9669796e+179
-1.9642688e+179
-1.9654119e+179
-1.8954356e+179
-1.904753e+179
-1.8976097e+179
-1.8902403e+179
-1.9295612e+179
-1.9336538e+179
-1.9268581e+179
-1.9260452e+179
-1.9873706e+179
-1.9859739e+179
-1.957438e+179
-1.9921537e+179
-1.9933106e+179
-1.9889784e+179
-1.9882863e+179
-1.9614146e+179
-1.9941479e+179
-1.9949917e+179
-1.960401e+179
-1.9743629e+179
-1.9724105e+179
-1.9327361e+179
-1.9364051e+179
-1.9641196e+179
-1.9762791e+179
-1.9776143e+179
-1.9823844e+179
-1.9801795e+179
-1.9540074e+179
-1.986215e+179
-1.9882505e+179
-1.9848539e+179
-1.9838201e+179
-1.9548965e+179
-1.9898651e+179
-1.9907576e+179
-1.9819182e+179
-1.983731e+179
-1.9854422e+179
-1.9870146e+179
-1.9778485e+179
-1.9802205e+179
-1.9787698e+179
-1.9818183e+179
-1.975225e+179
-1.9741883e+179
-1.9758038e+179
-1.9765888e+179
-1.9769118e+179
-1.9760904e+179
-1.9774451e+179
-1.9786913e+179
-1.9796817e+179
-1.9805335e+179
-1.9829386e+179
-1.9832225e+179
-1.9792769e+179
-1.9801065e+179
-1.9817808e+179
-1.9805928e+179
-1.9822414e+179
-1.9853538e+179
-1.9812234e+179
-1.9837323e+179
-1.9786361e+179
-1.9776314e+179
-1.9790184e+179
-1.9800347e+179
-1.9828772e+179
-1.9835453e+179
-1.9858284e+179
-1.9858312e+179
-1.9964743e+179
-1.9948268e+179
-2.0030433e+179
-2.0022032e+179
-1.9942817e+179
-1.9934836e+179
-1.9971252e+179
-1.9972254e+179
-2.0037951e+179
-2.0043961e+179
-1.9956857e+179
-1.9950296e+179
-1.9892542e+179
-1.9900166e+179
-1.9910395e+179
-1.9905331e+179
-1.9913234e+179
-1.990318e+179
-1.9905067e+179
-1.9917485e+179
-1.9920181e+179
-1.9907648e+179
-1.9914312e+179
-1.9924701e+179
-1.9926561e+179
-1.9916263e+179
-1.9917942e+179
-1.9930462e+179
-1.9877576e+179
-1.98937e+179
-1.9897775e+179
-1.9882389e+179
-1.988308e+179
-1.9897692e+179
-1.9902165e+179
-1.988669e+179
-1.9824374e+179
-1.986355e+179
-1.9866573e+179
-1.9823678e+179
-1.9869049e+179
-1.9869998e+179
-1.9828608e+179
-1.9826815e+179
-1.9877481e+179
-1.9881992e+179
-1.9859315e+179
-1.9865235e+179
-1.9798701e+179
-1.9841281e+179
-1.9850691e+179
-1.9806529e+179
-1.987013e+179
-1.9885308e+179
-1.9890763e+179
-1.987474e+179
-1.9855471e+179
-1.9857535e+179
-1.9814837e+179
-1.9810532e+179
-1.9995836e+179
-1.9999231e+179
-2.0064361e+179
-2.0069657e+179
-1.9976938e+179
-1.9982845e+179
-1.9992997e+179
-1.9978444e+179
-2.0058083e+179
-2.0050764e+179
-1.9963538e+179
-1.9970429e+179
-1.9933162e+179
-1.9920477e+179
-1.9927091e+179
-1.9937623e+179
-1.9929906e+179
-1.9931436e+179
-1.9940371e+179
-1.9943745e+179
-1.9945973e+179
-1.9933347e+179
-1.9939636e+179
-1.9949919e+179
-1.9952449e+179
-1.9942012e+179
-1.9955771e+179
-1.9942868e+179
-1.9890297e+179
-1.9905616e+179
-1.9909896e+179
-1.989502e+179
-1.9916507e+179
-1.9913033e+179
-1.99007e+179
-1.9899024e+179
-1.9884705e+179
-1.9842357e+179
-1.9841716e+179
-1.9884465e+179
-1.9837871e+179
-1.9877359e+179
-1.9879972e+179
-1.9837189e+179
-1.9922978e+179
-1.9926781e+179
-1.9909989e+179
-1.9906714e+179
-1.9886167e+179
-1.9891322e+179
-1.9853012e+179
-1.9847491e+179
-1.9852195e+179
-1.9892926e+179
-1.9893247e+179
-1.9851858e+179
-1.9922558e+179
-1.9919567e+179
-1.9905916e+179
-1.990331e+179
-2.0037458e+179
-2.0041153e+179
-2.0108272e+179
-2.0112445e+179
-2.0022781e+179
-2.002733e+179
-2.0038936e+179
-2.0024901e+179
-2.0096374e+179
-2.0104032e+179
-2.0012098e+179
-2.0017564e+179
-1.998945e+179
-1.9995704e+179
-1.9952324e+179
-1.9946044e+179
-1.9959225e+179
-1.9963254e+179
-1.99663e+179
-1.995553e+179
-1.9955999e+179
-1.9969242e+179
-2.0002284e+179
-2.000667e+179
-1.9964895e+179
-1.9958953e+179
-1.9972165e+179
-1.9975694e+179
-1.9977245e+179
-1.9966568e+179
-1.9967048e+179
-1.9979944e+179
-1.9949631e+179
-1.9946868e+179
-1.9931202e+179
-1.993453e+179
-1.9872315e+179
-1.9914223e+179
-1.9918737e+179
-1.9874484e+179
-1.9934532e+179
-1.9949037e+179
-1.9952406e+179
-1.9937214e+179
-1.9919602e+179
-1.9921333e+179
-1.987783e+179
-1.9875226e+179
-1.9935232e+179
-1.993139e+179
-1.991531e+179
-1.991987e+179
-1.9859696e+179
-1.9900079e+179
-1.9906176e+179
-1.9863985e+179
-1.9924444e+179
-1.9938627e+179
-1.9943058e+179
-1.9927874e+179
-1.9909624e+179
-1.9912829e+179
-1.9871041e+179
-1.9865044e+179
-2.0017208e+179
-2.0021115e+179
-2.008846e+179
-2.0091487e+179
-2.0015577e+179
-2.000186e+179
-2.0080942e+179
-2.0075562e+179
-1.9975072e+179
-1.9969739e+179
-1.9982537e+179
-1.9985787e+179
-1.998814e+179
-1.9977754e+179
-1.9977891e+179
-1.999062e+179
-1.9992438e+179
-1.9979513e+179
-1.9985387e+179
-1.9995957e+179
-1.9987229e+179
-1.9986509e+179
-1.9997128e+179
-2.0000201e+179
-1.9959248e+179
-1.9956134e+179
-1.9940558e+179
-1.9944624e+179
-1.9882321e+179
-1.9924702e+179
-1.9929804e+179
-1.9884621e+179
-1.9947595e+179
-1.9961125e+179
-1.9964722e+179
-1.9951154e+179
-1.9934113e+179
-1.9935463e+179
-1.9891355e+179
-1.9887952e+179
-1.9952051e+179
-1.996678e+179
-1.9969482e+179
-1.9955568e+179
-1.9954584e+179
-1.9968618e+179
-1.9972186e+179
-1.9956388e+179
-1.9896099e+179
-1.9937966e+179
-1.9941377e+179
-1.9896256e+179
-1.9939924e+179
-1.9942868e+179
-1.9899582e+179
-1.9896522e+179
-1.928269e+179
-1.9236335e+179
-1.9401565e+179
-1.9363194e+179
-1.9327656e+179
-1.9446034e+179
-1.948532e+179
-1.9430654e+179
-1.9415191e+179
-1.9494047e+179
-1.9513751e+179
-1.9440172e+179
-1.9457662e+179
-1.9505679e+179
-1.9525488e+179
-1.9456274e+179
-1.9476621e+179
-1.9557342e+179
-1.9538297e+179
-1.9493191e+179
-1.9508289e+179
-1.9596662e+179
-1.957373e+179
-1.9488103e+179
-1.9506192e+179
-1.9554341e+179
-1.9571585e+179
-1.9523354e+179
-1.9543879e+179
-1.9589055e+179
-1.9608224e+179
-1.9529292e+179
-1.9668033e+179
-1.9645267e+179
-1.9246808e+179
-1.9296928e+179
-1.957171e+179
-1.9703563e+179
-1.9688474e+179
-1.9741114e+179
-1.9759752e+179
-1.9780364e+179
-1.9798972e+179
-1.9672859e+179
-1.9662326e+179
-1.9685578e+179
-1.9691335e+179
-1.9703223e+179
-1.971328e+179
-1.9738105e+179
-1.9748938e+179
-1.9691797e+179
-1.9682523e+179
-1.9698227e+179
-1.9710766e+179
-1.972275e+179
-1.9757865e+179
-1.9732277e+179
-1.9764392e+179
-1.9721192e+179
-1.9731298e+179
-1.973646e+179
-1.975049e+179
-1.9744432e+179
-1.9777392e+179
-1.9753382e+179
-1.979183e+179
-1.9713103e+179
-1.9703211e+179
-1.9718629e+179
-1.9726977e+179
-1.9763583e+179
-1.9771018e+179
-1.9800713e+179
-1.9800124e+179
-2.0084396e+179
-2.0078211e+179
-2.0088908e+179
-2.0084619e+179
-2.0093534e+179
-2.0090603e+179
-2.0090265e+179
-2.0094622e+179
-2.0062722e+179
-2.0054516e+179
-2.006803e+179
-2.0064572e+179
-2.0073676e+179
-2.0069367e+179
-2.0075597e+179
-2.0070467e+179
-1.9949347e+179
-1.98969e+179
-1.9900328e+179
-1.9959907e+179
-1.989988e+179
-1.9905782e+179
-1.9960673e+179
-1.9953531e+179
-2.0004889e+179
-1.9993893e+179
-2.0013249e+179
-2.0010904e+179
-1.9934797e+179
-1.988928e+179
-1.9891808e+179
-1.994741e+179
-1.9891115e+179
-1.9884525e+179
-1.9947871e+179
-1.9942353e+179
-2.0024992e+179
-2.0021453e+179
-2.0025266e+179
-2.0028459e+179
-2.0038783e+179
-2.0034935e+179
-2.00417e+179
-2.0042736e+179
-2.0046364e+179
-2.0050455e+179
-2.0050402e+179
-2.0048036e+179
-1.9854095e+179
-1.9847177e+179
-1.9897528e+179
-1.9913244e+179
-1.9847764e+179
-1.9863619e+179
-1.9917221e+179
-1.9908205e+179
-1.9858358e+179
-1.9864137e+179
-1.9916365e+179
-1.9926517e+179
-1.9926699e+179
-1.9873555e+179
-1.9861477e+179
-1.9917676e+179
-1.9805078e+179
-1.9815878e+179
-1.9863429e+179
-1.9879433e+179
-1.9883521e+179
-1.9827463e+179
-1.9803392e+179
-1.9872203e+179
-1.9822215e+179
-1.9821074e+179
-1.9879704e+179
-1.9889311e+179
-1.9820787e+179
-1.9830618e+179
-1.9889238e+179
-1.9879961e+179
-1.9734559e+179
-1.9746256e+179
-1.9741397e+179
-1.9762618e+179
-1.9746487e+179
-1.9751005e+179
-1.97676e+179
-1.9764042e+179
-1.9788326e+179
-1.9782319e+179
-1.9840934e+179
-1.9853838e+179
-1.9785509e+179
-1.9793036e+179
-1.9857578e+179
-1.9850351e+179
-1.9757477e+179
-1.9749324e+179
-1.9807461e+179
-1.9822562e+179
-1.9762908e+179
-1.9771535e+179
-1.9833978e+179
-1.9829225e+179
-1.9700377e+179
-1.9713303e+179
-1.9734483e+179
-1.9716568e+179
-1.971823e+179
-1.9719997e+179
-1.9739121e+179
-1.9731803e+179
-1.9678134e+179
-1.9664612e+179
-1.9677869e+179
-1.9694877e+179
-1.9681817e+179
-1.9685534e+179
-1.9699353e+179
-1.9702219e+179
-1.8608523e+179
-1.8613761e+179
-1.8668612e+179
-1.8673396e+179
-1.8597107e+179
-1.8655994e+179
-1.8602076e+179
-1.8661755e+179
-1.8771188e+179
-1.8840503e+179
-1.8777182e+179
-1.8846922e+179
-1.8784101e+179
-1.8854236e+179
-1.8788857e+179
-1.8859535e+179
-1.8314251e+179
-1.8319261e+179
-1.811466e+179
-1.8267485e+179
-1.827274e+179
-1.8325868e+179
-1.8330548e+179
-1.8122935e+179
-1.8277992e+179
-1.8284085e+179
-1.8418328e+179
-1.8474654e+179
-1.8424139e+179
-1.8480206e+179
-1.8430013e+179
-1.8435231e+179
-1.8486951e+179
-1.8492005e+179
-1.7990737e+179
-1.8004647e+179
-1.8289032e+179
-1.8293576e+179
-1.8090038e+179
-1.8242506e+179
-1.8247275e+179
-1.8301555e+179
-1.8308434e+179
-1.810372e+179
-1.8254293e+179
-1.8262512e+179
-1.839201e+179
-1.8447994e+179
-1.8397993e+179
-1.8453594e+179
-1.8404736e+179
-1.8460604e+179
-1.8412246e+179
-1.8467904e+179
-1.7967954e+179
-1.7979986e+179
-1.874372e+179
-1.8814106e+179
-1.8750344e+179
-1.8821152e+179
-1.8582364e+179
-1.8642195e+179
-1.858978e+179
-1.8649212e+179
-1.8570016e+179
-1.8628955e+179
-1.8575167e+179
-1.8634863e+179
-1.8757731e+179
-1.8828493e+179
-1.8764486e+179
-1.8834768e+179
-1.7747296e+179
-1.7746787e+179
-1.7845228e+179
-1.7850424e+179
-1.7818514e+179
-1.7719973e+179
-1.7739414e+179
-1.783563e+179
-1.9437959e+179
-1.9445554e+179
-1.9545717e+179
-1.9550702e+179
-1.9419957e+179
-1.9429459e+179
-1.9524519e+179
-1.9537136e+179
-1.9682673e+179
-1.9686787e+179
-1.973472e+179
-1.973532e+179
-1.9661476e+179
-1.9673803e+179
-1.9710839e+179
-1.9726413e+179
-1.9403167e+179
-1.9410513e+179
-1.9509748e+179
-1.951476e+179
-1.9393624e+179
-1.9383619e+179
-1.9486689e+179
-1.9499895e+179
-1.9308811e+179
-1.9296776e+179
-1.9465171e+179
-1.9472314e+179
-1.9645481e+179
-1.9651356e+179
-1.9696985e+179
-1.9700398e+179
-1.963496e+179
-1.9620664e+179
-1.9667661e+179
-1.9686958e+179
-1.8938551e+179
-1.9020248e+179
-1.8946689e+179
-1.9027473e+179
-1.8922477e+179
-1.9002661e+179
-1.8929981e+179
-1.9011482e+179
-1.9143166e+179
-1.9152215e+179
-1.925047e+179
-1.9260923e+179
-1.9161223e+179
-1.9168085e+179
-1.9270101e+179
-1.9276113e+179