/*--------------------------------*- C++ -*----------------------------------*\
  =========                 |
  \\      /  F ield         | OpenFOAM: The Open Source CFD Toolbox
   \\    /   O peration     | Website:  https://openfoam.org
    \\  /    A nd           | Version:  7
     \\/     M anipulation  |
\*---------------------------------------------------------------------------*/
FoamFile
{
    version     2.0;
    format      ascii;
    class       volVectorField;
    location    "2000";
    object      U;
}
// * * * * * * * * * * * * * * * * * * * * * * * * * * * * * * * * * * * * * //

dimensions      [0 1 -1 0 0 0 0];

internalField   nonuniform List<vector> 
33730
(
(-6.948963e+90 -5.402419e+89 1.0587647e+90)
(-6.8491795e+90 -2.3957419e+89 8.0774985e+89)
(-6.4548481e+90 -1.0407209e+90 6.91958e+89)
(-5.308754e+90 -2.1234771e+89 1.0370549e+90)
(-5.2325829e+90 -3.3523292e+88 1.2069531e+90)
(-5.2776852e+90 -6.5172746e+89 8.8382335e+89)
(-7.2788104e+90 -9.8925242e+89 9.7101439e+89)
(-5.250205e+90 -1.0820609e+89 1.1028801e+90)
(-7.0406358e+90 -1.8548288e+89 2.9520691e+89)
(-5.8422098e+90 -3.3836924e+88 3.6277154e+89)
(-5.7062554e+90 -1.6459829e+89 2.3821145e+89)
(-6.9114513e+90 -4.573299e+89 8.5753583e+89)
(-5.696957e+90 -2.2073107e+89 -2.9995734e+89)
(-5.6814039e+90 -8.0799387e+89 -3.3260994e+89)
(-4.2512558e+90 -9.9724648e+89 5.699603e+89)
(-4.4099422e+90 -2.3605435e+89 7.164952e+89)
(-6.0010074e+90 -1.5118719e+90 4.7284557e+89)
(-4.29092e+90 -1.4410373e+89 9.1229866e+89)
(-5.0361869e+90 -5.8381553e+88 1.0943592e+90)
(-4.3583218e+90 -3.5864609e+89 8.5219394e+89)
(-4.9631763e+90 -1.1263585e+89 1.1250723e+90)
(-4.3269161e+90 -4.3298704e+89 7.6315918e+89)
(-4.2741734e+90 -1.9895905e+89 8.3548454e+89)
(-4.9057498e+90 -1.2209778e+89 9.899854e+89)
(-5.3234956e+90 -4.1860724e+89 9.0340213e+89)
(-4.8515755e+90 -1.2863269e+89 1.0275455e+90)
(-5.421994e+90 -8.7904501e+89 7.6892868e+89)
(-5.1363513e+90 -2.0453198e+89 1.2140059e+90)
(-5.4276808e+90 -3.3054971e+89 1.1876218e+90)
(-7.2062224e+90 -1.4455963e+90 8.5213765e+89)
(-7.053949e+90 -3.2668456e+89 3.4022679e+89)
(-5.929345e+90 -1.9651403e+89 6.4506997e+89)
(-5.7624523e+90 -1.029196e+89 -6.7701595e+89)
(-4.7657105e+90 -7.8633326e+88 3.5119614e+89)
(-4.582074e+90 1.5586217e+89 -6.6253723e+89)
(-4.7037994e+90 1.8632588e+88 -7.0491759e+89)
(-4.847357e+90 2.2934586e+89 2.9038586e+89)
(-5.9250765e+90 7.428785e+88 5.7829937e+89)
(-5.7579275e+90 8.035041e+88 -6.37256e+89)
(-5.1606904e+90 -9.6437938e+88 5.9976452e+89)
(-5.1920771e+90 -7.6210439e+88 5.5248321e+89)
(-5.0660715e+90 -1.2194442e+89 4.9891986e+89)
(-5.1006067e+90 -1.214121e+89 5.2963701e+89)
(-5.744963e+90 -1.4493117e+89 2.9805044e+89)
(-5.8410793e+90 -3.226798e+89 2.6020633e+89)
(-4.4003966e+90 -2.9082218e+89 -1.2035492e+89)
(-4.8200476e+90 -1.2124614e+89 -5.7934741e+89)
(-4.7324467e+90 -8.0167058e+88 -5.8341834e+89)
(-4.3311473e+90 -5.1835524e+88 -1.1832135e+89)
(-5.4975657e+90 -5.1028123e+89 -3.3305744e+89)
(-4.353433e+90 -3.9153277e+89 -1.3596147e+89)
(-4.7689078e+90 -2.1597771e+89 -5.5558189e+89)
(-4.6957315e+90 -1.6821284e+89 -5.8579167e+89)
(-4.3063825e+90 -1.4252929e+89 -1.3412243e+89)
(-4.1538949e+90 -6.1356239e+89 4.8451044e+89)
(-4.078221e+90 -4.9795883e+89 -4.2582513e+89)
(-3.0640674e+90 -6.9197879e+89 4.7527228e+89)
(-4.0513854e+90 -2.2100682e+89 -3.9710266e+89)
(-3.1777033e+90 -2.2226515e+89 6.2056909e+89)
(-4.0990759e+90 -1.4746496e+89 -3.8056813e+89)
(-3.2900238e+90 -6.2210139e+89 6.5386042e+89)
(-4.1749595e+90 -4.1985258e+89 -4.1614242e+89)
(-3.2565573e+90 -1.2183455e+89 7.3176092e+89)
(-6.047821e+90 -1.6828199e+90 4.6707572e+89)
(-5.5017747e+90 -9.4674077e+89 -3.6224848e+89)
(-4.0754546e+90 -1.1836337e+90 4.0626482e+89)
(-3.5532569e+90 -1.8850294e+89 7.7044626e+89)
(-3.522026e+90 -5.3616525e+88 8.0297657e+89)
(-4.312571e+90 -2.5895564e+88 9.4167678e+89)
(-4.2686059e+90 -7.1749862e+88 9.5232092e+89)
(-3.560242e+90 -2.3669994e+89 7.5327678e+89)
(-4.3049951e+90 -5.5299987e+88 9.1747812e+89)
(-3.4935937e+90 -8.2963772e+88 7.7221457e+89)
(-4.2647795e+90 -7.1062972e+88 9.2604666e+89)
(-3.5641934e+90 -2.747117e+89 6.9675688e+89)
(-4.3239552e+90 -2.6005465e+89 8.2003903e+89)
(-4.2470052e+90 -9.6975134e+88 8.52201e+89)
(-3.469885e+90 -1.3496453e+89 7.1037003e+89)
(-4.2066727e+90 -1.1344347e+89 8.6624173e+89)
(-3.575378e+90 -2.474687e+89 7.2919203e+89)
(-3.4884481e+90 -1.0556382e+89 7.5957042e+89)
(-4.2979117e+90 -7.2608209e+88 8.8903349e+89)
(-4.2236801e+90 -1.0023455e+89 8.943856e+89)
(-4.8084332e+90 -2.1576806e+89 1.0601088e+90)
(-4.3888557e+90 -4.7701092e+89 7.3581745e+89)
(-4.9345192e+90 -1.8116216e+89 1.0523567e+90)
(-4.3218761e+90 -3.0665915e+89 7.5775016e+89)
(-4.3698976e+90 -5.3995775e+89 6.9421564e+89)
(-5.2788938e+90 -6.0151092e+89 8.2407449e+89)
(-4.9967173e+90 -2.5200779e+89 1.0274122e+90)
(-4.9482945e+90 -2.6169662e+89 1.0847689e+90)
(-5.1921288e+90 -3.9489216e+89 1.2540535e+90)
(-5.3597755e+90 -1.0478311e+90 6.818796e+89)
(-5.2610908e+90 -4.7489345e+89 1.1148241e+90)
(-5.7348712e+90 2.2186376e+86 -6.4523495e+89)
(-5.9294405e+90 -1.5329914e+88 5.382144e+89)
(-5.6516082e+90 -1.6825139e+89 -7.1821017e+89)
(-4.8080291e+90 -1.7895024e+89 3.9296231e+89)
(-4.521367e+90 1.6762268e+88 -6.4121069e+89)
(-4.456216e+90 -1.0070372e+89 -7.1728268e+89)
(-4.7517973e+90 1.3045986e+89 3.3588706e+89)
(-5.8580803e+90 -2.8307207e+89 5.9506507e+89)
(-5.2892417e+90 -1.6383756e+89 5.7020799e+89)
(-5.3772121e+90 5.1809763e+88 5.7463103e+89)
(-5.1315532e+90 -2.2232653e+88 -2.4631103e+89)
(-5.2023965e+90 -1.2781855e+89 -2.2338967e+89)
(-5.035261e+90 -1.276089e+89 -4.9351913e+89)
(-5.0873714e+90 -6.5257751e+88 -4.8787467e+89)
(-5.2537079e+90 -2.0041723e+89 1.3121923e+89)
(-5.2485027e+90 -1.7162783e+88 1.1884529e+89)
(-5.73694e+90 1.8658738e+89 2.8384229e+89)
(-5.7159991e+90 -6.3660799e+88 3.0233392e+89)
(-5.1516605e+90 -7.3656904e+88 -2.1734392e+89)
(-5.1520357e+90 -1.5701088e+89 -2.2295001e+89)
(-5.2544144e+90 4.5729208e+87 5.4128559e+89)
(-5.2417469e+90 -2.1457589e+89 5.44832e+89)
(-5.2167362e+90 1.3127493e+88 1.1446489e+89)
(-5.0179002e+90 -8.3768445e+88 -5.6512417e+89)
(-5.0166461e+90 -9.1297028e+87 -5.3854324e+89)
(-5.1874824e+90 -1.5225526e+89 1.2276008e+89)
(-4.3265977e+90 2.3932178e+88 5.4811901e+88)
(-4.2165343e+90 -6.5252817e+88 -2.3481015e+89)
(-4.358857e+90 6.9721177e+87 1.4064838e+88)
(-4.2316369e+90 -7.0474826e+88 -2.8703825e+89)
(-5.1881633e+90 8.807824e+88 -1.3087974e+89)
(-4.4261301e+90 -4.1203437e+88 6.469553e+88)
(-4.4340999e+90 5.1770791e+88 2.4398847e+89)
(-4.2658208e+90 -4.1652282e+88 -1.4397888e+89)
(-4.3368846e+90 -5.1086275e+88 5.999635e+89)
(-4.3438558e+90 -1.5471743e+88 5.6910422e+89)
(-4.336683e+90 -3.9567896e+88 5.6987346e+89)
(-4.346208e+90 -6.9230333e+88 5.8002963e+89)
(-4.2952954e+90 -7.8319165e+88 5.4948151e+89)
(-5.0873047e+90 -1.808725e+89 5.5411492e+89)
(-4.31595e+90 -1.1406955e+89 5.6602641e+89)
(-4.3303439e+90 -8.3217652e+88 5.7527584e+89)
(-4.3322693e+90 -6.273597e+88 5.4583178e+89)
(-5.1056948e+90 -1.7159049e+89 4.931654e+89)
(-5.1845124e+90 -2.3917357e+89 5.5390169e+89)
(-5.1320619e+90 -2.3498679e+89 5.1448598e+89)
(-5.8461385e+90 -3.1981235e+89 3.5163451e+89)
(-6.0600227e+90 -2.0404792e+89 -2.6387245e+89)
(-5.9978717e+90 -2.9129689e+89 -2.6487698e+89)
(-4.9127991e+90 -1.8999782e+89 -5.4341098e+89)
(-4.9604794e+90 -1.4066212e+89 5.1029731e+88)
(-4.9223569e+90 -5.0269125e+88 5.057785e+88)
(-4.898804e+90 -1.6676429e+89 -5.2706658e+89)
(-4.3153981e+90 -4.2726938e+89 -1.5491501e+89)
(-4.7294043e+90 -2.6113181e+89 -5.7639099e+89)
(-4.6251784e+90 -2.5036652e+89 -6.0044489e+89)
(-4.2457368e+90 -2.2586277e+89 -1.5984594e+89)
(-4.8606087e+90 -2.6513197e+89 -5.3854061e+89)
(-4.9183559e+90 -2.0636925e+89 5.2874944e+88)
(-4.9190386e+90 -1.3128911e+89 2.4194992e+88)
(-4.8759433e+90 -2.5320423e+89 -5.3731733e+89)
(-4.0848442e+90 -5.4689042e+89 -4.574044e+89)
(-4.0080467e+90 -3.0107787e+89 -4.2260431e+89)
(-3.0947354e+90 -7.5750239e+89 4.5318544e+89)
(-3.0886928e+90 -3.1971412e+89 5.282091e+89)
(-3.568733e+90 -1.3163601e+89 -6.0877724e+89)
(-3.6082693e+90 -1.5314404e+89 -5.9457651e+89)
(-3.0211796e+90 -2.5338635e+89 -3.5635831e+89)
(-2.9927268e+90 -1.0428192e+89 -3.5368727e+89)
(-2.4968141e+90 -3.2979694e+89 -3.2820584e+89)
(-2.4705024e+90 -1.6657724e+89 -3.0030064e+89)
(-2.298494e+90 -1.4009651e+89 7.4309046e+89)
(-2.2551126e+90 -4.7965344e+89 6.1537276e+89)
(-3.5759806e+90 -1.1232065e+89 -6.1365878e+89)
(-3.6334556e+90 -1.2288008e+89 -5.9950797e+89)
(-2.998208e+90 -8.492342e+88 -3.5048702e+89)
(-3.0477425e+90 -2.2124406e+89 -3.3899082e+89)
(-2.5527961e+90 -3.0690724e+89 -3.1481836e+89)
(-2.4891284e+90 -1.4686721e+89 -2.9532618e+89)
(-2.4311624e+90 -4.9268831e+89 7.992689e+89)
(-2.3613643e+90 -9.8604596e+88 8.2682835e+89)
(-3.6292459e+90 -6.7434668e+88 -5.9810597e+89)
(-3.5791446e+90 -5.4245211e+88 -6.0164569e+89)
(-2.9931306e+90 -3.0905421e+88 -3.3271979e+89)
(-3.0270273e+90 -1.7041662e+89 -3.1814445e+89)
(-2.564803e+90 -2.8990666e+89 -3.2121582e+89)
(-2.4971711e+90 -1.1358396e+89 -2.8749078e+89)
(-2.3598582e+90 -6.6152046e+88 8.2894826e+89)
(-2.353873e+90 -4.4481433e+89 7.2256259e+89)
(-3.5914331e+90 -7.6388353e+88 -6.0785522e+89)
(-3.6476279e+90 -9.495363e+88 -6.039904e+89)
(-3.0030699e+90 -5.2621755e+88 -3.3802277e+89)
(-3.0582348e+90 -2.0333527e+89 -3.4578673e+89)
(-2.5283063e+90 -2.4843671e+89 -2.9021754e+89)
(-2.4848374e+90 -8.7680117e+88 -2.7715125e+89)
(-2.4306556e+90 -4.0407443e+89 8.4164954e+89)
(-2.3941513e+90 -1.1395998e+88 8.6598523e+89)
(-5.4337797e+90 -1.0371314e+90 -4.1633301e+89)
(-5.3527696e+90 -6.2718879e+89 -3.6103805e+89)
(-4.1863685e+90 -1.3220016e+90 4.0778231e+89)
(-4.0952884e+90 -7.4762343e+89 4.1751769e+89)
(-4.2439914e+90 -4.7787428e+89 -1.7658277e+89)
(-4.6615713e+90 -3.0929674e+89 -5.6480055e+89)
(-4.5701981e+90 -2.8317519e+89 -5.9919434e+89)
(-4.1944149e+90 -2.5849309e+89 -1.5949328e+89)
(-4.0167554e+90 -5.8921023e+89 -4.6719379e+89)
(-3.9691204e+90 -3.4709161e+89 -4.270974e+89)
(-2.9758529e+90 -8.0288145e+89 3.5692158e+89)
(-3.0381722e+90 -3.9813808e+89 4.6167515e+89)
(-3.0825595e+90 -1.3384521e+89 7.5680731e+89)
(-3.6631866e+90 -8.7845362e+87 8.2422309e+89)
(-3.0351879e+90 -3.9721827e+87 7.5654089e+89)
(-3.6431696e+90 -1.276028e+88 8.2482568e+89)
(-3.06604e+90 -9.7330442e+88 7.4994994e+89)
(-3.0656131e+90 3.536866e+87 7.7681276e+89)
(-3.6446392e+90 -2.2186059e+88 8.4459435e+89)
(-3.6698166e+90 2.719932e+87 8.3623718e+89)
(-3.0618733e+90 -1.6104094e+89 7.3267252e+89)
(-3.0321355e+90 -4.1686118e+88 7.4733166e+89)
(-3.6444142e+90 -4.0124464e+88 8.1469273e+89)
(-3.6270738e+90 -4.4838486e+88 8.1868869e+89)
(-3.068966e+90 -1.3881139e+89 7.4327178e+89)
(-3.6647089e+90 -1.776277e+88 8.1909245e+89)
(-3.0259199e+90 -2.6762451e+88 7.6569967e+89)
(-3.630272e+90 -3.4726941e+88 8.308025e+89)
(-3.5211684e+90 -1.3963256e+89 7.4432518e+89)
(-3.07416e+90 -1.872503e+89 6.9746446e+89)
(-3.038143e+90 -7.9887339e+88 7.1777274e+89)
(-3.6367033e+90 -6.3881596e+88 7.736134e+89)
(-3.6192399e+90 -7.1505109e+88 7.8120591e+89)
(-3.591519e+90 -2.6440316e+89 7.0327114e+89)
(-4.2641584e+90 -1.0590173e+89 8.9105885e+89)
(-4.1921108e+90 -1.4692303e+89 8.9474781e+89)
(-3.0788802e+90 -1.7400698e+89 7.1786498e+89)
(-3.6537048e+90 -5.1132493e+88 7.7431756e+89)
(-3.0185585e+90 -7.3619723e+88 7.4193139e+89)
(-3.6120659e+90 -7.1602233e+88 7.8913558e+89)
(-3.0739806e+90 -1.7993143e+89 7.2039088e+89)
(-3.0352545e+90 -5.3983887e+88 7.3477555e+89)
(-3.6521221e+90 -5.1661078e+88 8.0581831e+89)
(-3.6700966e+90 -5.3198994e+88 7.9391875e+89)
(-3.0822519e+90 -1.4067264e+89 7.4491923e+89)
(-3.0630083e+90 -4.3145681e+88 7.6674154e+89)
(-3.6333644e+90 -5.9680076e+88 8.1958235e+89)
(-3.6646936e+90 -3.0092312e+88 8.1128129e+89)
(-3.5779286e+90 -2.9472638e+89 6.6688121e+89)
(-3.4644552e+90 -1.4571121e+89 6.7218236e+89)
(-4.2678298e+90 -1.2634659e+89 8.5881926e+89)
(-4.2049612e+90 -1.4182766e+89 8.7402524e+89)
(-3.5835704e+90 -3.0787274e+89 6.5648783e+89)
(-3.5272672e+90 -1.6659986e+89 7.0359349e+89)
(-4.2854937e+90 -1.5100774e+89 8.6450848e+89)
(-4.2368961e+90 -1.8139274e+89 8.9264838e+89)
(-4.3161736e+90 -3.3307423e+89 7.539598e+89)
(-4.2347592e+90 -1.9556419e+89 8.8272284e+89)
(-3.5300533e+90 -1.8995516e+89 6.7836461e+89)
(-3.567542e+90 -3.2058218e+89 6.4255917e+89)
(-4.2542115e+90 -1.75508e+89 8.5099882e+89)
(-4.908522e+90 -2.8434938e+89 1.017162e+90)
(-4.3376215e+90 -5.6485386e+89 6.6473256e+89)
(-4.8823241e+90 -3.2719641e+89 1.0930685e+90)
(-4.2757019e+90 -3.9939701e+89 6.8713198e+89)
(-4.803866e+90 -3.5548975e+89 1.0384095e+90)
(-5.2174285e+90 -2.262333e+89 1.2053329e+89)
(-5.0745406e+90 -8.3766984e+88 -4.8801467e+89)
(-5.0472209e+90 -1.424911e+89 -5.1204811e+89)
(-5.2391617e+90 -4.1350786e+88 8.900469e+88)
(-5.7337877e+90 -1.4472814e+89 3.2329238e+89)
(-5.3151693e+90 -3.1116373e+89 5.5803753e+89)
(-5.3070143e+90 -9.2621797e+88 5.5044956e+89)
(-5.1802895e+90 -1.3071078e+89 -2.1955419e+89)
(-5.1563013e+90 -2.28325e+89 -2.237295e+89)
(-5.8488455e+90 -4.1675183e+89 5.8654136e+89)
(-5.6018711e+90 -9.6035138e+88 -6.5298847e+89)
(-5.2403345e+90 -8.0489434e+88 8.7656298e+88)
(-5.0706511e+90 -1.8107795e+89 -5.1780112e+89)
(-5.2429664e+90 -2.3139257e+89 8.5776677e+88)
(-5.0871785e+90 -9.898476e+88 -5.2490881e+89)
(-5.6224787e+90 1.0149974e+89 3.2731871e+89)
(-5.2326604e+90 -1.8814447e+88 5.0595676e+89)
(-5.1938964e+90 -1.2423377e+89 -1.7070439e+89)
(-5.1435525e+90 -1.746506e+89 -2.5135435e+89)
(-5.198795e+90 -2.4641386e+89 5.4564128e+89)
(-4.3805464e+90 -1.5305689e+88 2.1754017e+88)
(-4.3697932e+90 -5.7223746e+88 2.705382e+87)
(-4.5346421e+90 5.9697485e+88 5.9177764e+89)
(-4.5158655e+90 -1.1995175e+89 6.0651497e+89)
(-4.374463e+90 -2.9653471e+88 1.6795124e+88)
(-4.4016623e+90 -8.0115054e+88 3.5276673e+88)
(-4.5736715e+90 4.0329553e+88 6.0432686e+89)
(-4.540997e+90 -1.4364429e+89 5.9866108e+89)
(-4.1922963e+90 3.0792469e+86 -2.137979e+89)
(-4.1975425e+90 -5.9980761e+88 -2.2355981e+89)
(-4.3983791e+90 2.0608715e+88 1.9131522e+89)
(-4.3887945e+90 -9.1476557e+88 2.0307692e+89)
(-4.447724e+90 6.7117337e+87 2.1727902e+89)
(-4.2070987e+90 -3.5953868e+88 -2.0458958e+89)
(-4.2198593e+90 -8.2161503e+88 -1.8884654e+89)
(-4.4217992e+90 -1.1555193e+89 2.1384829e+89)
(-4.2364427e+90 -1.223255e+89 -2.9766679e+89)
(-4.3313022e+90 -5.569159e+88 -2.6064785e+87)
(-4.2272757e+90 -8.2452861e+88 -3.0477247e+89)
(-4.3364555e+90 -1.4239542e+89 -5.8000149e+87)
(-5.1835523e+90 2.7882099e+88 -1.5785788e+89)
(-4.2513479e+90 -1.2219384e+89 -3.1962316e+89)
(-4.3534807e+90 -5.9180578e+88 -2.5180854e+88)
(-4.3568351e+90 -1.4531227e+89 -4.7151535e+87)
(-4.2631211e+90 -7.6637467e+88 -3.0375301e+89)
(-5.2687224e+90 -1.354213e+89 -1.1927252e+89)
(-4.2071084e+90 -6.2633642e+88 -2.4759364e+89)
(-4.1872906e+90 -1.1955179e+89 -2.9138701e+89)
(-4.2619024e+90 -2.3941416e+88 -1.3501236e+88)
(-4.2604499e+90 -1.0436706e+89 8.481198e+87)
(-4.1713642e+90 -5.8998561e+88 -2.6371481e+89)
(-4.1700216e+90 -1.1968557e+89 -2.5723185e+89)
(-4.2479391e+90 -4.2921552e+88 1.9018503e+88)
(-4.2480757e+90 -1.3296014e+89 1.3760067e+88)
(-5.0016917e+90 -3.7105551e+88 -7.0316549e+89)
(-5.0693218e+90 4.2676011e+88 -6.7602914e+89)
(-5.1527201e+90 7.6602078e+88 -1.9023528e+89)
(-5.1725515e+90 -9.2897242e+88 -1.6410379e+89)
(-4.3870951e+90 -8.409251e+87 1.8765685e+89)
(-4.2039496e+90 -9.0668351e+88 -2.0557194e+89)
(-4.3745765e+90 -1.2211645e+89 2.0546153e+89)
(-4.2022165e+90 -4.0653898e+88 -1.8208767e+89)
(-4.1920316e+90 -6.5854872e+88 -1.7803499e+89)
(-4.1883782e+90 -1.0732287e+89 -1.7419444e+89)
(-4.3756361e+90 -1.9205236e+88 2.1827624e+89)
(-4.368387e+90 -1.4440008e+89 2.1876503e+89)
(-4.3611614e+90 -6.6847119e+88 4.1213629e+88)
(-4.3590776e+90 -1.0503793e+89 3.7563588e+88)
(-4.4857303e+90 5.7112228e+87 5.8299955e+89)
(-4.47761e+90 -1.7919557e+89 5.8169647e+89)
(-4.5058525e+90 2.9894558e+88 5.5721212e+89)
(-4.3712669e+90 -9.2610934e+88 1.3955622e+88)
(-4.3826253e+90 -4.8436586e+88 3.8942243e+88)
(-4.4855044e+90 -1.3442132e+89 5.6885964e+89)
(-4.3037786e+90 -2.0550093e+88 1.7218952e+88)
(-4.1646909e+90 -3.8676494e+88 -2.7669466e+89)
(-4.1618633e+90 -1.055199e+89 -2.76204e+89)
(-4.3055641e+90 -1.1414366e+89 1.901457e+88)
(-4.3020734e+90 -1.1662352e+89 -2.5691634e+88)
(-4.3002934e+90 -3.7748317e+88 -3.3979806e+88)
(-4.2120808e+90 -1.0396925e+89 -3.635775e+89)
(-4.2090573e+90 -5.172399e+88 -3.6720894e+89)
(-4.2240223e+90 -8.8476367e+88 -3.6283885e+89)
(-4.3085186e+90 -1.9412197e+88 -3.4177218e+88)
(-4.2118619e+90 -2.8355508e+88 -3.6298449e+89)
(-4.2982147e+90 -9.4159207e+88 -2.9991414e+88)
(-4.1608858e+90 -1.3582155e+88 -2.9360605e+89)
(-4.159717e+90 -8.3928175e+88 -3.0280709e+89)
(-4.2559244e+90 7.1010718e+87 -2.2306281e+88)
(-4.2426752e+90 -6.5548524e+88 -1.7247254e+88)
(-3.3850154e+90 -1.3606598e+88 -1.8084434e+89)
(-3.4795385e+90 3.8710347e+88 8.4991261e+87)
(-3.4088209e+90 2.1518855e+88 -1.780985e+89)
(-3.4957603e+90 -2.9475971e+88 7.9439721e+87)
(-3.3931291e+90 -1.6046395e+88 -1.6884171e+89)
(-3.4888103e+90 2.7722343e+88 -3.2053579e+87)
(-3.421495e+90 1.0377261e+88 -1.6946631e+89)
(-3.5057448e+90 -2.7396375e+88 -4.9922815e+87)
(-3.4365668e+90 -3.334644e+88 -1.3506645e+89)
(-3.505818e+90 1.5642817e+88 -1.0381374e+88)
(-3.4505878e+90 3.5399808e+87 -1.3627999e+89)
(-3.5249508e+90 -3.4704155e+88 -1.560744e+88)
(-3.6186865e+90 -7.7626161e+86 1.0399697e+88)
(-3.6163964e+90 -4.9493803e+88 -9.6757924e+86)
(-3.5819801e+90 -4.4084297e+88 -2.2232726e+89)
(-4.3775118e+90 -1.2996945e+88 -7.9239831e+88)
(-3.5786718e+90 -2.0436223e+88 -2.4125899e+89)
(-3.6366238e+90 -5.1393363e+87 -1.8866741e+88)
(-4.3907258e+90 -9.6574198e+88 -1.0801733e+89)
(-3.5996903e+90 -4.865031e+88 -2.4526958e+89)
(-4.2946586e+90 -9.3800396e+88 -3.8937744e+89)
(-4.3126222e+90 -3.4982326e+88 -4.2240987e+89)
(-3.6122683e+90 6.746927e+87 -1.6292034e+88)
(-3.7669858e+90 7.0330087e+88 3.3468333e+89)
(-3.6304387e+90 1.6124373e+88 -1.5052171e+88)
(-3.4919044e+90 -3.6443528e+87 -1.3405388e+89)
(-3.6170431e+90 5.4063139e+88 1.1678048e+89)
(-3.5087379e+90 2.6435659e+88 -1.3106819e+89)
(-3.6268953e+90 -3.5593921e+88 1.1634044e+89)
(-3.4131939e+90 1.4078157e+87 -1.5374311e+89)
(-3.5305941e+90 4.9086954e+88 4.7074084e+88)
(-3.4384e+90 1.6397189e+88 -1.5031287e+89)
(-3.5436247e+90 -2.7461236e+88 4.7235071e+88)
(-3.6472462e+90 -1.2053837e+88 5.6163778e+89)
(-3.6585549e+90 2.2270022e+88 5.4436319e+89)
(-3.6427725e+90 1.2141635e+88 5.3859531e+89)
(-3.652031e+90 -1.8976803e+88 5.4319413e+89)
(-3.6219194e+90 -1.2539219e+88 5.3895491e+89)
(-3.6418069e+90 -4.9784301e+88 5.4655563e+89)
(-3.6504678e+90 -1.5496232e+87 5.280191e+89)
(-3.6399439e+90 -3.0963253e+88 5.4672725e+89)
(-3.6231469e+90 -3.5811121e+88 5.2324353e+89)
(-3.640655e+90 -7.5386343e+88 5.3591171e+89)
(-4.3108129e+90 -1.2656281e+89 5.860389e+89)
(-4.3169523e+90 -8.9013569e+88 5.4248772e+89)
(-3.6406807e+90 -3.5987328e+88 5.1001946e+89)
(-3.6296613e+90 -6.9301324e+88 5.3500077e+89)
(-3.6557425e+90 -1.2645413e+88 5.3037356e+89)
(-3.6489289e+90 -5.2366102e+88 5.5284584e+89)
(-3.6356275e+90 -3.1111518e+88 5.1553167e+89)
(-3.6518229e+90 -5.5740465e+88 5.2922964e+89)
(-4.3082482e+90 -1.3625864e+89 5.4491778e+89)
(-4.30101e+90 -1.1038641e+89 5.2772527e+89)
(-4.3184804e+90 -1.3079855e+89 5.173656e+89)
(-4.3239279e+90 -1.584405e+89 5.6252981e+89)
(-4.3203847e+90 -1.8108853e+89 5.5984883e+89)
(-4.2815816e+90 -1.5116206e+89 5.277236e+89)
(-5.0789647e+90 -2.8530416e+89 5.6125121e+89)
(-5.0429116e+90 -2.6695691e+89 4.6387983e+89)
(-5.0464429e+90 -3.1632337e+89 5.0456927e+89)
(-5.9521489e+90 -4.051588e+89 -2.7144457e+89)
(-5.8842196e+90 -4.4173031e+89 -2.6725327e+89)
(-6.0772601e+90 -1.295422e+89 -7.0221027e+88)
(-6.0274926e+90 -1.7842303e+89 -7.7367666e+88)
(-5.0844058e+90 -1.7304625e+89 -4.6313578e+89)
(-3.8166926e+90 -1.0374959e+89 -3.2617757e+89)
(-3.8195873e+90 -7.6211157e+88 -3.3706641e+89)
(-5.0721043e+90 1.3556818e+88 -3.0832232e+89)
(-5.0096772e+90 -1.4448759e+89 -3.0943527e+89)
(-5.0743624e+90 -1.5225074e+89 -4.3915521e+89)
(-3.7969548e+90 -8.4330095e+88 -3.0722376e+89)
(-3.8004373e+90 -5.0572355e+88 -3.2415226e+89)
(-4.8420539e+90 -3.1319308e+89 -5.506953e+89)
(-4.8795746e+90 -2.5822329e+89 5.6678685e+88)
(-4.856824e+90 -1.8900375e+89 2.4295173e+88)
(-4.8300607e+90 -3.058951e+89 -5.4182636e+89)
(-5.0431442e+90 -2.3257781e+89 -4.6282154e+89)
(-3.7667004e+90 -1.5704875e+89 -3.2030364e+89)
(-3.7733079e+90 -1.2735592e+89 -3.4412362e+89)
(-5.0201312e+90 -3.9437683e+88 -3.0964127e+89)
(-5.0156835e+90 -2.0620909e+89 -3.2216916e+89)
(-5.056013e+90 -2.2056967e+89 -4.5805099e+89)
(-3.795885e+90 -1.3508717e+89 -3.1697365e+89)
(-3.7793885e+90 -1.0503688e+89 -3.4292859e+89)
(-3.0315415e+90 -2.8365234e+89 -3.7502896e+89)
(-3.5974453e+90 -1.8342538e+89 -6.1107421e+89)
(-2.9794902e+90 -1.4083962e+89 -3.7296121e+89)
(-3.5407008e+90 -1.6883992e+89 -6.2835268e+89)
(-3.5940509e+90 -1.6351935e+89 -6.0766668e+89)
(-3.5432769e+90 -1.6169322e+89 -6.2130841e+89)
(-3.019811e+90 -2.5441172e+89 -3.5683874e+89)
(-2.9777351e+90 -1.323249e+89 -3.6802141e+89)
(-2.2943513e+90 -5.245456e+89 5.8324105e+89)
(-2.5151206e+90 -3.6307163e+89 -3.5984187e+89)
(-2.4616611e+90 -2.0542849e+89 -3.2923035e+89)
(-2.3071843e+90 -1.7085695e+89 6.98421e+89)
(-2.4555019e+90 -1.9278213e+89 -3.1272101e+89)
(-2.3774967e+90 -5.0223132e+89 7.0874816e+89)
(-2.519528e+90 -3.3461405e+89 -3.3701515e+89)
(-2.3076102e+90 -1.385915e+89 7.3663226e+89)
(-3.5864741e+90 -2.0770615e+89 -7.5720214e+89)
(-3.602468e+90 -2.0109761e+89 -7.5359077e+89)
(-1.8948291e+90 -1.9768621e+89 -3.041121e+89)
(-1.8543091e+90 -8.6429992e+88 -2.960199e+89)
(-2.0152202e+90 -7.7730371e+88 -5.4862952e+89)
(-2.040892e+90 -7.71524e+88 -5.3946485e+89)
(-1.9010564e+90 -1.8552245e+89 -2.8806486e+89)
(-1.8582618e+90 -8.1412823e+88 -3.1011313e+89)
(-2.0285511e+90 -7.0449341e+88 -5.5699707e+89)
(-2.0512056e+90 -6.4221039e+88 -5.3266288e+89)
(-1.5908655e+90 -2.5695011e+89 2.5633277e+89)
(-1.5002091e+90 -1.6344073e+89 2.3914482e+89)
(-1.9808676e+90 -2.8007436e+89 8.3747727e+89)
(-1.8826474e+90 -4.2985244e+88 8.3368951e+89)
(-1.496051e+90 -2.5442487e+89 1.7272841e+89)
(-1.9121174e+90 -2.8003585e+89 7.216446e+89)
(-1.4800901e+90 -1.6931624e+89 2.5913062e+89)
(-1.8898376e+90 -4.9333419e+88 7.9890853e+89)
(-3.6240939e+90 -1.8109807e+89 -7.6192302e+89)
(-3.6295445e+90 -1.856e+89 -7.5773938e+89)
(-2.0549263e+90 -5.6444527e+88 -5.3673685e+89)
(-1.9156825e+90 -1.830487e+89 -2.9851588e+89)
(-2.0248026e+90 -5.7801615e+88 -5.4287045e+89)
(-1.8553804e+90 -6.5077393e+88 -2.9367412e+89)
(-2.045459e+90 -4.7291553e+88 -5.3617317e+89)
(-2.0302271e+90 -5.6823248e+88 -5.5924206e+89)
(-1.9016867e+90 -1.6733397e+89 -2.8695809e+89)
(-1.8695888e+90 -6.8314378e+88 -3.1108437e+89)
(-1.5651444e+90 -2.5328036e+89 2.223931e+89)
(-1.5147564e+90 -1.4096441e+89 2.7934393e+89)
(-1.9128995e+90 -1.9237163e+88 8.3675041e+89)
(-1.9569101e+90 -2.8286871e+89 7.9051118e+89)
(-1.5090821e+90 -1.253617e+89 2.3500687e+89)
(-1.9975558e+90 -2.3535382e+89 8.6363457e+89)
(-1.9110114e+90 7.0073955e+87 8.3485454e+89)
(-1.5997045e+90 -2.2136515e+89 2.7039839e+89)
(-3.6370222e+90 -1.4016804e+89 -7.5701383e+89)
(-3.652818e+90 -1.4870574e+89 -7.5172512e+89)
(-2.0626073e+90 -4.338963e+88 -5.432129e+89)
(-2.0370319e+90 -4.4138459e+88 -5.4607769e+89)
(-1.9329673e+90 -1.7231488e+89 -3.0340471e+89)
(-1.8790534e+90 -5.3629932e+88 -2.9562116e+89)
(-2.0437313e+90 -3.2050499e+88 -5.32545e+89)
(-2.0226962e+90 -3.5932198e+88 -5.4946398e+89)
(-1.9037673e+90 -1.5707483e+89 -2.8380068e+89)
(-1.8683538e+90 -4.5790069e+88 -3.0175242e+89)
(-1.6068209e+90 -2.1895447e+89 2.8136994e+89)
(-2.004899e+90 -2.3679445e+89 8.676461e+89)
(-1.531363e+90 -1.1449901e+89 2.6736922e+89)
(-1.9317089e+90 1.8393673e+88 8.6881034e+89)
(-1.5344291e+90 -2.2087344e+89 1.969666e+89)
(-1.9431155e+90 -2.4785287e+89 7.6990703e+89)
(-1.5175016e+90 -1.2736925e+89 2.7452904e+89)
(-1.9270235e+90 -3.9235569e+87 8.3594229e+89)
(-3.6527433e+90 -1.6379275e+89 -7.56068e+89)
(-3.6557784e+90 -1.6398605e+89 -7.6538232e+89)
(-2.0126526e+90 -2.3628503e+88 -5.2938506e+89)
(-1.9904119e+90 -2.3168262e+88 -5.3069056e+89)
(-1.9000665e+90 -1.5447367e+89 -2.8273194e+89)
(-1.8477594e+90 -3.1640683e+88 -2.7875863e+89)
(-2.0214666e+90 -1.3618326e+88 -5.3266842e+89)
(-2.0045944e+90 -2.2936161e+88 -5.4696998e+89)
(-1.8832949e+90 -1.3320699e+89 -2.8166891e+89)
(-1.8624025e+90 -3.1928681e+88 -2.9538518e+89)
(-1.548927e+90 -2.0598857e+89 2.3891243e+89)
(-1.988853e+90 -2.2499128e+89 8.3422957e+89)
(-1.5208096e+90 -9.2834569e+88 2.9454139e+89)
(-1.9272927e+90 4.5793062e+88 8.5746863e+89)
(-1.5736771e+90 -1.6831296e+89 2.6476605e+89)
(-1.5117242e+90 -7.6237526e+88 2.5658008e+89)
(-1.9712998e+90 -1.7211467e+89 8.50424e+89)
(-1.941102e+90 6.7738879e+88 8.5889217e+89)
(-4.4566669e+90 -3.4892876e+89 -6.5517055e+89)
(-4.5542782e+90 -3.657434e+89 -6.0419491e+89)
(-4.1191662e+90 -3.2137015e+89 -2.178289e+89)
(-4.5195208e+90 -3.3146184e+89 -6.3600993e+89)
(-4.6190803e+90 -3.3548684e+89 -5.9984844e+89)
(-4.2027432e+90 -4.9770291e+89 -1.788586e+89)
(-4.1499622e+90 -3.0170963e+89 -2.0586957e+89)
(-3.9505313e+90 -4.1073209e+89 -4.7325819e+89)
(-3.0529267e+90 -4.7884963e+89 4.431084e+89)
(-4.0369943e+90 -6.1721323e+89 -4.8207618e+89)
(-3.9631771e+90 -3.7300687e+89 -4.6516799e+89)
(-3.0632543e+90 -8.4834277e+89 4.0845739e+89)
(-3.0242807e+90 -4.0535289e+89 4.4136808e+89)
(-4.7857344e+90 -3.5268309e+89 -5.7278691e+89)
(-4.8278019e+90 -2.9433521e+89 5.0316602e+88)
(-4.821279e+90 -2.3219008e+89 2.1797423e+88)
(-4.7982623e+90 -3.5437118e+89 -5.41604e+89)
(-3.5113083e+90 -2.0634432e+89 -6.4339053e+89)
(-3.5535466e+90 -2.1900255e+89 -6.2419765e+89)
(-2.9988942e+90 -3.102137e+89 -3.9495451e+89)
(-2.9683607e+90 -1.7717992e+89 -3.9066634e+89)
(-3.5586258e+90 -2.017089e+89 -6.0434203e+89)
(-2.9916525e+90 -2.9915095e+89 -3.5845098e+89)
(-3.499408e+90 -1.9425373e+89 -6.2685053e+89)
(-2.948136e+90 -1.6549868e+89 -3.7364586e+89)
(-2.4774789e+90 -3.7834366e+89 -3.8225159e+89)
(-2.2055508e+90 -5.2783018e+89 5.0203678e+89)
(-2.4483969e+90 -2.4449836e+89 -3.4260525e+89)
(-2.2487301e+90 -2.1742484e+89 6.1337105e+89)
(-2.4404211e+90 -2.302891e+89 -3.2851357e+89)
(-2.3050077e+90 -5.5177334e+89 6.1088507e+89)
(-2.495679e+90 -3.8446094e+89 -3.4509814e+89)
(-2.2901707e+90 -1.9015279e+89 6.7969572e+89)
(-2.4705936e+90 2.1775247e+88 7.9128745e+89)
(-2.4649525e+90 -9.5864253e+88 7.8485525e+89)
(-3.1839609e+90 2.2926506e+86 7.39016e+89)
(-3.1722267e+90 1.6502042e+87 7.2519052e+89)
(-3.2014518e+90 1.1046934e+88 7.4353545e+89)
(-2.4667912e+90 -7.6556695e+88 7.9153209e+89)
(-2.4567837e+90 4.4897804e+88 8.1465006e+89)
(-3.1762138e+90 1.1017914e+88 7.2463518e+89)
(-2.4883652e+90 4.2453616e+88 8.064583e+89)
(-2.4795013e+90 -7.5502389e+88 8.0081626e+89)
(-3.2074428e+90 1.4357982e+88 7.4997504e+89)
(-3.19188e+90 1.4485593e+88 7.3189027e+89)
(-2.4846729e+90 4.414899e+88 8.152878e+89)
(-2.4852524e+90 -6.2101872e+88 8.0385993e+89)
(-3.1997608e+90 1.8147314e+88 7.5465442e+89)
(-3.1771505e+90 9.1748123e+87 7.3398807e+89)
(-2.4675958e+90 -1.064653e+88 7.82102e+89)
(-2.4580656e+90 -1.2043113e+89 7.6917543e+89)
(-3.1602986e+90 -2.4904386e+88 7.1397442e+89)
(-3.1651156e+90 -3.3069884e+88 7.3894606e+89)
(-2.4736039e+90 -1.085565e+89 7.8733763e+89)
(-2.4939471e+90 1.1733703e+88 8.1885497e+89)
(-3.1867482e+90 -1.4095075e+88 7.2368259e+89)
(-3.1826231e+90 -2.4844254e+88 7.4727876e+89)
(-2.476727e+90 1.2989612e+88 8.0342835e+89)
(-2.4727842e+90 -1.1317338e+89 7.8932395e+89)
(-3.1951611e+90 -5.5881808e+87 7.2093537e+89)
(-3.1951809e+90 -1.0358055e+88 7.4606654e+89)
(-2.4701283e+90 -8.7331273e+88 8.0042649e+89)
(-2.4587482e+90 2.7959725e+88 8.1645744e+89)
(-3.188832e+90 8.8735096e+87 7.344339e+89)
(-3.1615246e+90 -4.9175578e+87 7.2798966e+89)
(-3.0809358e+90 -1.5547174e+89 7.1503128e+89)
(-3.0588665e+90 -6.4689093e+88 7.4266282e+89)
(-3.6153964e+90 -8.1847135e+88 8.0336497e+89)
(-3.6506045e+90 -5.2493077e+88 7.9160345e+89)
(-2.4795499e+90 -3.9115895e+88 7.5261178e+89)
(-2.4620859e+90 -1.3764741e+89 7.4111001e+89)
(-3.1758871e+90 -3.8057438e+88 6.9230682e+89)
(-3.182543e+90 -4.8149857e+88 7.1927821e+89)
(-2.4727218e+90 -1.3482546e+89 7.529706e+89)
(-2.4926593e+90 -2.6211386e+88 7.8571928e+89)
(-3.1993518e+90 -3.62973e+88 7.0050308e+89)
(-3.191612e+90 -4.7329959e+88 7.2611363e+89)
(-3.0709351e+90 -1.8617499e+89 6.947017e+89)
(-3.0230914e+90 -5.9117114e+88 7.0531123e+89)
(-3.6311705e+90 -6.7222236e+88 7.8825196e+89)
(-3.6555753e+90 -6.7016748e+88 7.7938996e+89)
(-2.478725e+90 -2.0644335e+88 7.7510681e+89)
(-2.4682409e+90 -1.3986692e+89 7.5512241e+89)
(-3.1996308e+90 -3.4110638e+88 6.9592691e+89)
(-3.1998971e+90 -3.6035089e+88 7.2331577e+89)
(-2.4588607e+90 -1.5828136e+88 7.9613907e+89)
(-2.4693738e+90 -1.1966281e+89 7.7724297e+89)
(-3.191352e+90 -2.1984586e+88 7.1509939e+89)
(-3.1624965e+90 -3.8454045e+88 7.1084468e+89)
(-2.4630617e+90 -1.4967786e+88 7.6817318e+89)
(-2.4592195e+90 -1.3223315e+89 7.5451926e+89)
(-3.1950368e+90 -3.5188932e+88 7.1669317e+89)
(-3.182804e+90 -3.4079227e+88 7.0584618e+89)
(-2.4877221e+90 1.7218878e+87 8.0208075e+89)
(-2.4808233e+90 -1.1819303e+89 7.7612266e+89)
(-3.2199126e+90 -2.4424819e+88 7.2860663e+89)
(-3.1942276e+90 -2.4234012e+88 7.1593238e+89)
(-2.4761175e+90 -1.1509717e+89 7.7909012e+89)
(-3.2093309e+90 -1.6949373e+88 7.3311304e+89)
(-3.1938037e+90 -1.71783e+88 7.1708131e+89)
(-2.4627625e+90 3.6063809e+87 7.8756475e+89)
(-2.4847915e+90 -9.3756257e+88 7.8808544e+89)
(-2.512757e+90 3.8993833e+87 8.0699488e+89)
(-3.1993178e+90 -1.2610358e+88 7.2715781e+89)
(-3.1941788e+90 -3.4138502e+88 7.4460944e+89)
(-3.059975e+90 -1.9511343e+89 6.713593e+89)
(-2.9920201e+90 -7.1442515e+88 6.758868e+89)
(-3.6030601e+90 -7.7246364e+88 7.616433e+89)
(-3.6287028e+90 -7.5229348e+88 7.5407601e+89)
(-3.052028e+90 -1.7583191e+89 6.7832745e+89)
(-2.9514003e+90 -7.3704376e+88 6.8191878e+89)
(-3.5909483e+90 -8.121615e+88 7.724045e+89)
(-3.6360782e+90 -6.0128496e+88 7.5560485e+89)
(-3.0653727e+90 -2.1080568e+89 6.6060894e+89)
(-3.0029624e+90 -8.018697e+88 6.7086089e+89)
(-3.6349672e+90 -9.5647099e+88 7.5093112e+89)
(-3.6083338e+90 -9.4755722e+88 7.588224e+89)
(-3.6404684e+90 -7.4828589e+88 7.6636841e+89)
(-3.0631918e+90 -1.7975045e+89 6.8047356e+89)