/*--------------------------------*- C++ -*----------------------------------*\
  =========                 |
  \\      /  F ield         | OpenFOAM: The Open Source CFD Toolbox
   \\    /   O peration     | Website:  https://openfoam.org
    \\  /    A nd           | Version:  7
     \\/     M anipulation  |
\*---------------------------------------------------------------------------*/
FoamFile
{
    version     2.0;
    format      ascii;
    class       volVectorField;
    location    "2000";
    object      UMean;
}
// * * * * * * * * * * * * * * * * * * * * * * * * * * * * * * * * * * * * * //

dimensions      [0 1 -1 0 0 0 0];

internalField   nonuniform List<vector> 
33730
(
(-2.8160649e+88 6.3005144e+86 2.1579326e+87)
(-3.4839842e+88 3.7315197e+86 1.9971114e+87)
(-2.4948152e+88 4.0734963e+85 -4.6631458e+86)
(-2.5455068e+88 7.3671425e+86 3.1851669e+87)
(-2.8256718e+88 1.9817696e+85 2.6994522e+87)
(-2.5414298e+88 -8.8672793e+85 3.1490637e+87)
(-2.8758812e+88 1.7675127e+85 2.1171386e+87)
(-2.7781779e+88 2.7055936e+86 2.4969504e+87)
(-3.5825211e+88 3.7689356e+86 4.1944264e+86)
(-2.7725979e+88 3.1904453e+85 1.8050813e+87)
(-2.7639978e+88 2.9620296e+86 1.7566684e+87)
(-3.4922629e+88 -6.2465948e+85 2.1519177e+87)
(-2.4587966e+88 5.9027251e+86 -3.0115844e+87)
(-2.4672536e+88 -2.7050783e+86 -3.0851684e+87)
(-1.9887872e+88 -5.2142818e+86 -4.1195173e+86)
(-1.9572568e+88 1.1561697e+87 -4.1486319e+86)
(-2.5115988e+88 -7.3015787e+86 -7.5438947e+86)
(-2.1241803e+88 3.7235642e+86 2.4487626e+87)
(-2.659283e+88 3.9769162e+86 2.9233176e+87)
(-2.1386164e+88 2.2102226e+86 2.4628348e+87)
(-2.6536488e+88 -1.2546345e+86 2.9356626e+87)
(-2.1321765e+88 7.9900217e+85 2.4252759e+87)
(-2.137105e+88 3.0879034e+86 2.4049019e+87)
(-2.5997012e+88 4.309602e+86 2.7137244e+87)
(-2.525513e+88 3.1468682e+86 3.0343963e+87)
(-2.6190246e+88 -1.0426223e+86 2.7438811e+87)
(-2.5769694e+88 -5.3009163e+86 3.1260268e+87)
(-2.7674457e+88 -6.7772332e+85 2.4046644e+87)
(-2.834421e+88 2.5608505e+86 2.7077559e+87)
(-3.0308484e+88 -1.2323201e+87 2.4061214e+87)
(-3.5868186e+88 1.355088e+86 4.665591e+86)
(-2.928588e+88 3.3857136e+84 9.5262913e+86)
(-2.8131629e+88 2.8023799e+86 -7.030478e+86)
(-2.3894877e+88 1.5829008e+86 -3.9636923e+86)
(-2.3321981e+88 4.2195066e+85 -4.6430917e+86)
(-2.3698527e+88 2.2789961e+86 -4.2887506e+86)
(-2.3806628e+88 3.7317199e+86 -4.7282469e+86)
(-2.9060335e+88 3.875516e+86 9.1453542e+86)
(-2.8154387e+88 1.5119802e+86 -7.6658694e+86)
(-2.5008778e+88 -4.0832232e+85 1.8388705e+87)
(-2.5121923e+88 3.856851e+86 1.8255843e+87)
(-2.4739408e+88 4.2020581e+86 1.8526983e+87)
(-2.489585e+88 -9.3852251e+85 1.8275193e+87)
(-2.7663611e+88 1.2524667e+85 1.7739964e+87)
(-2.7853685e+88 3.352969e+86 1.8264055e+87)
(-2.3065644e+88 4.810778e+85 -2.7908145e+87)
(-2.4148758e+88 1.7384674e+86 -2.5311081e+87)
(-2.4095914e+88 -2.0052707e+86 -2.4931371e+87)
(-2.2975836e+88 1.1137966e+86 -2.8075885e+87)
(-2.4476254e+88 3.1631714e+86 -3.0692759e+87)
(-2.3000843e+88 2.5783429e+85 -2.8609171e+87)
(-2.4020962e+88 2.2822785e+86 -2.5415444e+87)
(-2.4145854e+88 -1.5629494e+86 -2.550336e+87)
(-2.300639e+88 9.9226185e+85 -2.8424206e+87)
(-1.9741027e+88 5.3728826e+86 -5.7452401e+86)
(-1.8856811e+88 4.9387648e+85 -3.6777964e+87)
(-1.4271694e+88 -2.3334843e+86 -1.7251292e+86)
(-1.8832902e+88 3.8199583e+86 -3.652771e+87)
(-1.4249578e+88 7.4473761e+86 -1.5744692e+86)
(-1.8715072e+88 3.9169858e+86 -3.6115199e+87)
(-1.4432346e+88 -5.6149658e+85 -9.2185385e+85)
(-1.88839e+88 1.1533166e+86 -3.6462329e+87)
(-1.4076855e+88 8.3823452e+86 -1.5660111e+86)
(-2.551496e+88 -1.4723865e+87 -7.2734687e+86)
(-2.4648309e+88 -5.1282143e+86 -3.1417199e+87)
(-1.9904964e+88 -1.1675243e+87 -5.330441e+86)
(-1.7915307e+88 2.310239e+86 1.8963447e+87)
(-1.7859888e+88 2.6331864e+86 1.9524975e+87)
(-2.3124832e+88 3.394686e+86 2.4894052e+87)
(-2.3074607e+88 -5.6505241e+85 2.5495144e+87)
(-1.7986571e+88 1.6078074e+86 2.0017106e+87)
(-2.3107538e+88 4.2430096e+86 2.5253785e+87)
(-1.7830785e+88 2.5693972e+86 1.8585714e+87)
(-2.3107261e+88 6.8229434e+85 2.4518772e+87)
(-1.8072283e+88 9.9247763e+85 1.9735768e+87)
(-2.1305584e+88 1.9999849e+86 2.4265739e+87)
(-2.2954925e+88 4.0364081e+86 2.4768758e+87)
(-1.7919892e+88 1.7675321e+86 1.8347174e+87)
(-2.3001062e+88 3.356006e+85 2.4378892e+87)
(-1.8031968e+88 1.6854204e+86 1.8810941e+87)
(-1.7936494e+88 2.5216137e+86 1.9260885e+87)
(-2.3165993e+88 3.0454499e+86 2.4573191e+87)
(-2.3015279e+88 -3.7680914e+85 2.4534425e+87)
(-2.6100035e+88 -1.7539531e+86 2.7308881e+87)
(-2.1501574e+88 2.8216335e+85 2.4182501e+87)
(-2.6368072e+88 4.1410405e+86 2.7877337e+87)
(-2.1472861e+88 7.0696113e+85 2.4758849e+87)
(-2.1550174e+88 -1.6994861e+86 2.5458924e+87)
(-2.5429686e+88 -7.4839045e+85 3.1401443e+87)
(-2.6537695e+88 3.5835723e+86 2.9095799e+87)
(-2.661682e+88 -1.2443899e+86 2.8822461e+87)
(-2.8379787e+88 -3.1861386e+86 2.832882e+87)
(-2.5835592e+88 -1.0766777e+87 3.0544406e+87)
(-2.8200522e+88 -1.9933776e+86 2.7327947e+87)
(-2.8066893e+88 1.064652e+86 -7.3621931e+86)
(-2.9275804e+88 3.7507951e+86 8.9948649e+86)
(-2.7855569e+88 2.793085e+86 -8.356302e+86)
(-2.4085815e+88 8.9178495e+85 -2.0554608e+86)
(-2.3988648e+88 1.1692927e+86 -3.8620938e+86)
(-2.4099707e+88 2.4336942e+86 -5.1779813e+86)
(-2.3925373e+88 3.1806807e+86 -3.647689e+86)
(-2.9121217e+88 -4.072472e+85 8.8730965e+86)
(-2.6280735e+88 -1.1920654e+85 1.4666685e+87)
(-2.64879e+88 3.424594e+86 1.4796039e+87)
(-2.5231341e+88 1.2056824e+86 -1.1767776e+85)
(-2.5279915e+88 2.5026285e+86 -7.7063949e+85)
(-2.4841773e+88 2.4779402e+86 -1.0332993e+87)
(-2.5083026e+88 9.229876e+85 -1.0432624e+87)
(-2.5727344e+88 3.6980378e+85 -4.5421311e+86)
(-2.556038e+88 2.9986971e+86 -4.3900669e+86)
(-2.8511709e+88 4.5875701e+86 -5.5799585e+86)
(-2.8448181e+88 4.9026894e+85 -6.7678273e+86)
(-2.5306635e+88 -3.2571627e+84 6.4780014e+85)
(-2.5249707e+88 2.9686224e+86 1.0068408e+86)
(-2.5936868e+88 3.690328e+86 1.4009887e+87)
(-2.6095356e+88 -7.5806322e+85 1.3866894e+87)
(-2.5617117e+88 2.4970579e+86 -5.9619371e+86)
(-2.4907487e+88 2.0194037e+86 -1.2337148e+87)
(-2.4976071e+88 9.7811505e+85 -1.1542798e+87)
(-2.5548828e+88 8.1726286e+85 -5.5340273e+86)
(-2.1971287e+88 3.1377447e+86 -4.1236263e+86)
(-2.1546772e+88 2.5434202e+86 -7.6930823e+86)
(-2.2070812e+88 2.5497525e+86 -7.383648e+86)
(-2.1763739e+88 1.9484239e+86 -9.1342372e+86)
(-2.5153544e+88 2.3217253e+86 -1.1108175e+87)
(-2.2126738e+88 3.8634485e+86 8.2070434e+86)
(-2.2421904e+88 3.8972586e+86 3.7034304e+86)
(-2.1635157e+88 3.2465422e+86 -2.8762893e+86)
(-2.1785936e+88 1.8720274e+85 1.6818933e+87)
(-2.181891e+88 3.8749607e+86 1.6011573e+87)
(-2.182296e+88 3.9119189e+86 1.6413433e+87)
(-2.182996e+88 3.8324542e+85 1.5880396e+87)
(-2.1664118e+88 3.8851995e+86 1.6758245e+87)
(-2.4880378e+88 -6.0578915e+85 1.8849431e+87)
(-2.1708992e+88 -9.8705288e+83 1.6275174e+87)
(-2.1775896e+88 5.1071476e+84 1.65932e+87)
(-2.1818153e+88 3.4650949e+86 1.5893292e+87)
(-2.4917067e+88 4.521056e+86 1.8081889e+87)
(-2.5200038e+88 -6.1706095e+85 1.8380238e+87)
(-2.5106256e+88 3.8216176e+86 1.9005888e+87)
(-2.7925439e+88 -2.1471976e+86 1.8725749e+87)
(-2.8478929e+88 -5.0154514e+85 -2.4827161e+87)
(-2.843159e+88 2.7261895e+85 -2.5440483e+87)
(-2.4502691e+88 1.3865273e+86 -3.1971568e+87)
(-2.3670665e+88 2.0980437e+86 -1.9868902e+87)
(-2.3629096e+88 -1.7305703e+86 -1.9657087e+87)
(-2.4402173e+88 3.742387e+85 -3.1552086e+87)
(-2.306639e+88 -4.7028245e+84 -2.8664888e+87)
(-2.4075364e+88 2.0883237e+86 -2.570418e+87)
(-2.396874e+88 -2.3062865e+86 -2.5207239e+87)
(-2.2920361e+88 1.7373401e+85 -2.8939444e+87)
(-2.4436054e+88 1.2503889e+86 -3.2363006e+87)
(-2.3540054e+88 2.6977869e+86 -2.0326411e+87)
(-2.3728065e+88 -1.5419112e+86 -2.0247055e+87)
(-2.4460083e+88 9.9833979e+84 -3.2107407e+87)
(-1.9002921e+88 -9.5417865e+84 -3.7220858e+87)
(-1.8753872e+88 2.5235325e+86 -3.6814443e+87)
(-1.460496e+88 -4.4080116e+86 -8.3877118e+85)
(-1.4202694e+88 5.232773e+86 -2.0420674e+86)
(-1.9722018e+88 3.3882797e+85 -3.2891441e+87)
(-1.9678315e+88 2.7086699e+86 -3.2862647e+87)
(-1.6630247e+88 1.9819932e+86 -3.8982574e+87)
(-1.6656762e+88 1.6278286e+86 -3.8659024e+87)
(-1.1571486e+88 2.2665347e+86 -3.525128e+87)
(-1.1621076e+88 3.5386562e+86 -3.4996483e+87)
(-1.0041358e+88 5.2502997e+86 6.224596e+86)
(-1.0114394e+88 -7.3923076e+85 6.4615923e+86)
(-1.9707744e+88 -1.1766088e+85 -3.2906526e+87)
(-1.9749865e+88 2.4543031e+86 -3.2752349e+87)
(-1.6655457e+88 1.4553331e+86 -3.9028524e+87)
(-1.6685616e+88 2.193413e+86 -3.8546253e+87)
(-1.1662237e+88 2.6131986e+86 -3.4858205e+87)
(-1.1595022e+88 3.3054969e+86 -3.538525e+87)
(-1.0177245e+88 4.6785326e+84 7.2378969e+86)
(-9.981242e+87 5.9306399e+86 6.0104165e+86)
(-1.9673543e+88 2.279811e+86 -3.2347328e+87)
(-1.9659463e+88 -2.0354657e+85 -3.258873e+87)
(-1.6589721e+88 1.4778403e+86 -3.8774643e+87)
(-1.6597966e+88 2.0889693e+86 -3.8143589e+87)
(-1.166044e+88 2.4181163e+86 -3.5285289e+87)
(-1.1625443e+88 3.5442553e+86 -3.5073106e+87)
(-1.0019718e+88 5.6635172e+86 6.1556971e+86)
(-1.0149537e+88 -3.4606793e+85 6.5031789e+86)
(-1.975146e+88 1.5430911e+85 -3.280581e+87)
(-1.9753286e+88 2.7202113e+86 -3.2877121e+87)
(-1.6668763e+88 1.5470322e+86 -3.8673236e+87)
(-1.6713518e+88 2.1965248e+86 -3.8901889e+87)
(-1.1570655e+88 2.7684465e+86 -3.4466996e+87)
(-1.1527236e+88 3.357183e+86 -3.5067026e+87)
(-1.0107833e+88 5.3337326e+85 7.4975259e+86)
(-9.9446221e+87 6.1150294e+86 6.4130869e+86)
(-2.4860403e+88 -7.2822121e+86 -3.25791e+87)
(-2.4407812e+88 1.0298558e+86 -3.0727805e+87)
(-2.0004418e+88 -1.5607973e+87 -6.6269054e+86)
(-1.9563284e+88 1.026581e+86 -7.0286386e+86)
(-2.3062853e+88 -5.1090374e+85 -2.9511998e+87)
(-2.3986433e+88 2.4542428e+86 -2.5598255e+87)
(-2.3973424e+88 -1.4814421e+86 -2.5295255e+87)
(-2.2928979e+88 3.4754334e+85 -2.852147e+87)
(-1.8996964e+88 -1.2098984e+86 -3.7355116e+87)
(-1.8840773e+88 2.2643947e+86 -3.6598996e+87)
(-1.436338e+88 -6.640546e+86 -2.385859e+86)
(-1.4361673e+88 3.1894333e+86 -1.1151358e+86)
(-1.5595744e+88 9.7428284e+85 1.9026638e+87)
(-1.9874893e+88 3.3961901e+86 2.3004452e+87)
(-1.5515441e+88 2.4097871e+86 1.8098465e+87)
(-1.9868909e+88 1.642561e+86 2.2632621e+87)
(-1.5597183e+88 1.9385342e+86 1.8874272e+87)
(-1.5560915e+88 2.2836632e+86 1.9336285e+87)
(-1.9822652e+88 2.9659642e+85 2.3785496e+87)
(-1.9879923e+88 2.8437641e+86 2.3353011e+87)
(-1.5627385e+88 4.4010443e+85 1.953525e+87)
(-1.559594e+88 1.7421342e+86 1.875448e+87)
(-1.9835212e+88 3.2989684e+86 2.3634682e+87)
(-1.9861681e+88 1.2651257e+86 2.3320852e+87)
(-1.5581664e+88 1.3191831e+86 1.8515505e+87)
(-1.9883944e+88 2.7023259e+86 2.2784716e+87)
(-1.5435437e+88 2.3962132e+86 1.8267824e+87)
(-1.9789938e+88 5.1952019e+85 2.2815528e+87)
(-1.7932848e+88 1.987567e+86 1.9354918e+87)
(-1.5776834e+88 1.1349525e+85 1.9471227e+87)
(-1.5685845e+88 1.3983126e+86 1.8412349e+87)
(-1.9892546e+88 3.0818848e+86 2.3501615e+87)
(-1.9908595e+88 1.106635e+86 2.3239043e+87)
(-1.8128622e+88 2.1111012e+86 1.917357e+87)
(-2.3194257e+88 3.7037639e+86 2.5007877e+87)
(-2.2990869e+88 -6.6502081e+85 2.4925345e+87)
(-1.5672985e+88 9.4873973e+85 1.8237393e+87)
(-1.9920118e+88 2.3545703e+86 2.267917e+87)
(-1.5494755e+88 1.6990837e+86 1.8055463e+87)
(-1.9820147e+88 1.0297797e+85 2.2712907e+87)
(-1.5668141e+88 7.5739294e+85 1.8821699e+87)
(-1.5603042e+88 1.9829319e+86 1.7971292e+87)
(-1.9974066e+88 1.4111528e+86 2.245243e+87)
(-1.9971361e+88 3.003039e+86 2.2780854e+87)
(-1.5687468e+88 1.8267587e+86 1.8751637e+87)
(-1.562746e+88 2.1418819e+86 1.9159341e+87)
(-1.9846958e+88 1.8007091e+85 2.3454261e+87)
(-1.9928044e+88 2.6864443e+86 2.3183731e+87)
(-1.8166268e+88 9.7957867e+85 1.9942007e+87)
(-1.7879245e+88 2.2899313e+86 1.7943784e+87)
(-2.3161686e+88 4.1006962e+86 2.4611124e+87)
(-2.3115184e+88 9.6969471e+85 2.3693031e+87)
(-1.8175151e+88 3.5662163e+85 1.9596603e+87)
(-1.8004472e+88 1.405292e+86 1.9809895e+87)
(-2.3249063e+88 2.7871302e+86 2.4812564e+87)
(-2.3150451e+88 -9.456617e+85 2.5013899e+87)
(-2.128616e+88 2.0137009e+85 2.5064605e+87)
(-2.3157446e+88 -2.6516654e+85 2.5269603e+87)
(-1.8032913e+88 3.7477301e+85 1.9561339e+87)
(-1.8168993e+88 -1.2828607e+84 2.0632703e+87)
(-2.3142953e+88 3.5368201e+86 2.5648056e+87)
(-2.6448087e+88 2.1246903e+86 2.8437429e+87)
(-2.1557402e+88 -1.7618523e+86 2.4542115e+87)
(-2.6437509e+88 -3.4212628e+86 2.9371394e+87)
(-2.1464105e+88 -1.4339238e+86 2.4320665e+87)
(-2.6455778e+88 -3.641292e+86 2.7916222e+87)
(-2.5755418e+88 2.9030549e+85 -4.2820128e+86)
(-2.5074394e+88 7.1659036e+85 -1.0311976e+87)
(-2.5033091e+88 2.4109303e+86 -1.1258522e+87)
(-2.5704914e+88 2.8836313e+86 -5.3051193e+86)
(-2.861441e+88 -1.3442673e+85 -6.1008044e+86)
(-2.6517782e+88 -3.271116e+85 1.399186e+87)
(-2.6379505e+88 3.3508747e+86 1.4518197e+87)
(-2.5460215e+88 9.8174327e+85 -1.2531935e+86)
(-2.5393737e+88 2.2283514e+86 -2.5886989e+85)
(-2.9321011e+88 -2.742035e+86 9.2835929e+86)
(-2.7727497e+88 -3.7664235e+85 -8.3228087e+86)
(-2.5784552e+88 2.3493226e+86 -5.2701542e+86)
(-2.5070851e+88 1.6651674e+86 -1.1386129e+87)
(-2.5886151e+88 8.3032094e+85 -6.3322968e+86)
(-2.5221436e+88 1.1925087e+86 -1.2724826e+87)
(-2.8264686e+88 3.8407457e+86 -7.0467875e+86)
(-2.6107163e+88 3.8054297e+86 1.3294303e+87)
(-2.5373893e+88 5.3307155e+85 1.1275316e+86)
(-2.5338083e+88 3.3005593e+86 3.4667602e+82)
(-2.6100371e+88 -4.7777053e+85 1.4220955e+87)
(-2.2031615e+88 1.3806199e+86 7.2992411e+86)
(-2.2034119e+88 3.4623483e+86 6.5046959e+86)
(-2.3043793e+88 3.6590637e+86 1.6994369e+87)
(-2.300927e+88 2.8725931e+85 1.7721642e+87)
(-2.2043915e+88 1.0920903e+86 6.0846043e+86)
(-2.2067154e+88 2.782637e+86 6.360403e+86)
(-2.3094561e+88 3.8199445e+86 1.7246393e+87)
(-2.3074016e+88 5.1150685e+85 1.6785887e+87)
(-2.1587705e+88 2.2103575e+86 -3.8466707e+86)
(-2.1614194e+88 2.8475333e+86 -4.3897757e+86)
(-2.2314518e+88 3.2123134e+86 1.7833277e+86)
(-2.2316167e+88 1.5234135e+86 2.4775138e+86)
(-2.2443988e+88 2.6738302e+86 1.9527696e+86)
(-2.1626577e+88 2.0139616e+86 -4.7910952e+86)
(-2.1569186e+88 1.9227898e+86 -4.9024778e+86)
(-2.2409619e+88 1.3567617e+86 1.6504641e+86)
(-2.1807049e+88 2.0172592e+86 -8.7218358e+86)
(-2.2006479e+88 2.3041108e+86 -7.4199573e+86)
(-2.1800911e+88 2.4402458e+86 -9.4465093e+86)
(-2.2034244e+88 2.1216885e+86 -7.8755736e+86)
(-2.5104115e+88 2.523537e+86 -1.1406305e+87)
(-2.194603e+88 1.6427061e+86 -9.7862558e+86)
(-2.2167145e+88 1.8334153e+86 -8.1528673e+86)
(-2.2176746e+88 1.2536142e+86 -7.4075269e+86)
(-2.1943836e+88 1.6512969e+86 -9.015746e+86)
(-2.560712e+88 9.4074547e+85 -1.1004311e+87)
(-2.1652939e+88 1.2294812e+86 -7.3427468e+86)
(-2.1676959e+88 1.7406175e+86 -8.1304139e+86)
(-2.1959259e+88 1.973205e+86 -5.3340171e+86)
(-2.1946139e+88 9.0015921e+85 -4.6452967e+86)
(-2.1556831e+88 2.1364301e+86 -7.8998923e+86)
(-2.1550345e+88 2.22197e+86 -7.4061024e+86)
(-2.1803268e+88 2.4659359e+86 -4.7633262e+86)
(-2.1850235e+88 1.708289e+86 -5.032529e+86)
(-2.471478e+88 2.4782702e+86 -1.5424416e+87)
(-2.4856482e+88 9.362711e+85 -1.6121494e+87)
(-2.5085072e+88 2.2363405e+86 -1.3613398e+87)
(-2.5242722e+88 6.7015616e+85 -1.2012086e+87)
(-2.2408517e+88 2.3123164e+86 2.3074994e+86)
(-2.169431e+88 2.0909634e+86 -3.9173999e+86)
(-2.2371813e+88 2.0073709e+85 2.8952205e+86)
(-2.166452e+88 8.5353196e+85 -3.2512646e+86)
(-2.1592814e+88 1.5108148e+86 -3.5603949e+86)
(-2.1560021e+88 2.5644766e+86 -3.2111172e+86)
(-2.2279185e+88 3.106656e+86 3.0675436e+86)
(-2.230747e+88 9.5829338e+85 2.729541e+86)
(-2.2028003e+88 5.7295075e+85 7.5037534e+86)
(-2.2028717e+88 3.1993231e+86 7.9783943e+86)
(-2.287243e+88 3.8205838e+86 1.7521075e+87)
(-2.2927935e+88 2.0559542e+85 1.72365e+87)
(-2.3039169e+88 2.9942038e+86 1.6781635e+87)
(-2.211042e+88 2.6974349e+86 6.9644681e+86)
(-2.2094658e+88 2.7786508e+85 7.6580128e+86)
(-2.29569e+88 -2.0490423e+85 1.7233541e+87)
(-2.1894257e+88 1.8862523e+86 -5.8845891e+86)
(-2.1470057e+88 2.5250513e+86 -9.4136031e+86)
(-2.1399606e+88 1.4953721e+86 -9.5542261e+86)
(-2.1957515e+88 1.9990327e+86 -5.7665326e+86)
(-2.1972792e+88 2.3344993e+86 -9.578481e+86)
(-2.184874e+88 1.6463569e+86 -9.8304138e+86)
(-2.172673e+88 1.4583871e+86 -1.0822626e+87)
(-2.1811406e+88 2.4578034e+86 -1.0727298e+87)
(-2.1891572e+88 2.057635e+86 -1.0003571e+87)
(-2.2001552e+88 2.2459482e+86 -9.0264745e+86)
(-2.1854972e+88 1.9732415e+86 -9.6173076e+86)
(-2.1958879e+88 1.9480412e+86 -8.5793769e+86)
(-2.150938e+88 2.2549948e+86 -8.1423546e+86)
(-2.1526814e+88 2.5099003e+86 -8.6772795e+86)
(-2.185607e+88 2.7119392e+86 -5.8441197e+86)
(-2.1819955e+88 2.0969416e+86 -5.3315169e+86)
(-1.7907627e+88 2.7423977e+86 -5.6497687e+86)
(-1.8317469e+88 2.9550776e+86 -3.8560641e+86)
(-1.7958176e+88 2.3450014e+86 -5.6092829e+86)
(-1.83727e+88 2.1135343e+86 -3.8177817e+86)
(-1.8020474e+88 2.6311175e+86 -6.3760096e+86)
(-1.8293374e+88 2.7874584e+86 -5.4395895e+86)
(-1.8094008e+88 2.5192235e+86 -6.2861841e+86)
(-1.8351597e+88 2.4015604e+86 -5.3982275e+86)
(-1.8209446e+88 2.565154e+86 -6.4231391e+86)
(-1.8427571e+88 2.71037e+86 -5.5802179e+86)
(-1.8289001e+88 2.5443753e+86 -6.4137566e+86)
(-1.8505259e+88 2.4322257e+86 -5.4927183e+86)
(-1.8811987e+88 2.5704653e+86 -6.0802707e+86)
(-1.8884733e+88 2.368962e+86 -6.1236905e+86)
(-1.8953661e+88 2.4502547e+86 -8.1941518e+86)
(-2.2162914e+88 1.853084e+86 -7.7355154e+86)
(-1.9055976e+88 2.1989978e+86 -8.0645904e+86)
(-1.8926402e+88 2.394362e+86 -6.5403488e+86)
(-2.2294384e+88 2.0418322e+86 -8.2652305e+86)
(-1.9068759e+88 2.2671707e+86 -8.6437933e+86)
(-2.1968176e+88 1.270195e+86 -9.3032607e+86)
(-2.2087559e+88 1.9708931e+86 -1.0368845e+87)
(-1.884688e+88 3.0392029e+86 3.2505619e+86)
(-1.956913e+88 3.500774e+86 9.370882e+86)
(-1.8894457e+88 1.4048108e+86 3.088477e+86)
(-1.8328629e+88 2.869433e+86 -2.5756142e+86)
(-1.9000081e+88 3.1428214e+86 1.4702466e+86)
(-1.836248e+88 1.8408107e+86 -2.6625156e+86)
(-1.9058572e+88 1.6621724e+86 1.4007085e+86)
(-1.804913e+88 2.8307033e+86 -4.6257505e+86)
(-1.8539012e+88 2.9866616e+86 -2.9638457e+86)
(-1.8098324e+88 2.0962325e+86 -4.601785e+86)
(-1.858543e+88 2.0097758e+86 -3.0174052e+86)
(-1.8719052e+88 7.0005256e+85 1.7553115e+87)
(-1.8766966e+88 3.4295966e+86 1.6957967e+87)
(-1.8734763e+88 3.4297994e+86 1.6516178e+87)
(-1.875038e+88 1.2937018e+86 1.6231682e+87)
(-1.870371e+88 3.0975009e+86 1.720048e+87)
(-1.8727759e+88 5.9943586e+85 1.6803487e+87)
(-1.87485e+88 3.1405889e+86 1.6273036e+87)
(-1.8671513e+88 8.1855171e+85 1.6425253e+87)
(-1.8762963e+88 3.2353695e+86 1.7253092e+87)
(-1.8781418e+88 6.9833185e+85 1.6849288e+87)
(-2.1771844e+88 2.6676161e+85 1.7131496e+87)
(-2.1856648e+88 4.4764897e+86 1.652524e+87)
(-1.8792306e+88 2.8001184e+86 1.6241543e+87)
(-1.8708145e+88 3.9537961e+85 1.6487721e+87)
(-1.8818181e+88 3.0786889e+86 1.6904537e+87)
(-1.875521e+88 3.3710871e+85 1.7449688e+87)
(-1.8815482e+88 2.8728117e+86 1.6327874e+87)
(-1.88344e+88 9.3408868e+85 1.6070616e+87)
(-2.1801636e+88 9.6444302e+85 1.5666327e+87)
(-2.1817348e+88 4.1886049e+86 1.6250746e+87)
(-2.1956391e+88 3.5636676e+86 1.6111878e+87)
(-2.1886747e+88 2.945937e+84 1.6475599e+87)
(-2.1893715e+88 -3.1186616e+85 1.6949015e+87)
(-2.1858604e+88 3.6931904e+86 1.7273784e+87)
(-2.5012375e+88 -1.7505057e+86 1.8837433e+87)
(-2.5085987e+88 2.7746642e+86 1.8234877e+87)
(-2.5137213e+88 -2.5170765e+86 1.823537e+87)
(-2.8438415e+88 -1.3915764e+86 -2.5749586e+87)
(-2.8439431e+88 -5.4918153e+85 -2.5950133e+87)
(-2.8990948e+88 -4.4562183e+85 -1.3864577e+87)
(-2.8938604e+88 8.4600146e+85 -1.4323659e+87)
(-2.5083707e+88 1.1428185e+86 -2.6957607e+87)
(-1.9877582e+88 3.0178983e+86 -3.4175803e+87)
(-1.990916e+88 -1.8756127e+85 -3.4096102e+87)
(-2.4777729e+88 1.1324664e+86 -1.4944505e+87)
(-2.4701807e+88 -1.3662583e+86 -1.4630253e+87)
(-2.4972779e+88 2.6054772e+85 -2.6612274e+87)
(-1.9761519e+88 2.7759762e+86 -3.3520298e+87)
(-1.9819955e+88 -2.6585311e+85 -3.3933109e+87)
(-2.452648e+88 8.2709327e+85 -3.2580867e+87)
(-2.3587604e+88 2.8272803e+86 -2.0463468e+87)
(-2.3551423e+88 -1.6172054e+86 -2.026197e+87)
(-2.4403849e+88 -4.0130551e+85 -3.2370134e+87)
(-2.4972524e+88 1.3686908e+86 -2.7150696e+87)
(-1.9793548e+88 3.0591962e+86 -3.4108607e+87)
(-1.9844154e+88 1.7620958e+84 -3.4115795e+87)
(-2.4627505e+88 1.8717541e+86 -1.5142403e+87)
(-2.4818647e+88 -9.3491261e+85 -1.512697e+87)
(-2.5052231e+88 2.1775886e+85 -2.7020966e+87)
(-1.9860588e+88 3.0339872e+86 -3.4083178e+87)
(-1.9852339e+88 -1.8594192e+85 -3.4384808e+87)
(-1.6767318e+88 1.9207179e+86 -3.9412553e+87)
(-1.978036e+88 3.0056901e+86 -3.3182029e+87)
(-1.6697867e+88 1.3220948e+86 -3.9202375e+87)
(-1.9761291e+88 3.7737112e+85 -3.3103021e+87)
(-1.9718298e+88 2.5122935e+86 -3.2932077e+87)
(-1.9664332e+88 -2.2401852e+85 -3.2931255e+87)
(-1.6677097e+88 2.0081332e+86 -3.8879548e+87)
(-1.6609796e+88 1.118175e+86 -3.923658e+87)
(-1.0325943e+88 -1.5991657e+86 6.7972623e+86)
(-1.17268e+88 2.0048722e+86 -3.5851757e+87)
(-1.1654371e+88 3.2244165e+86 -3.5671904e+87)
(-1.0098283e+88 5.0255041e+86 5.8373235e+86)
(-1.1517157e+88 2.9796895e+86 -3.5690377e+87)
(-1.0271882e+88 4.1247466e+84 7.3120238e+86)
(-1.1650049e+88 2.5197476e+86 -3.5373836e+87)
(-9.9919252e+87 5.3520121e+86 5.8412853e+86)
(-1.7342736e+88 2.1491716e+86 -4.1779961e+87)
(-1.7395731e+88 1.5807586e+86 -4.1608321e+87)
(-8.7222707e+87 2.8480027e+86 -3.9284726e+87)
(-8.6651743e+87 2.071539e+86 -3.8747108e+87)
(-1.2091859e+88 1.6775293e+86 -3.5608402e+87)
(-1.2112886e+88 2.6618387e+86 -3.5962567e+87)
(-8.714741e+87 2.8709952e+86 -3.8554032e+87)
(-8.7207087e+87 2.0392124e+86 -3.9170556e+87)
(-1.2124274e+88 1.456674e+86 -3.5872877e+87)
(-1.2141586e+88 2.5146457e+86 -3.5436463e+87)
(-6.868835e+87 2.687162e+86 -1.2565288e+87)
(-6.6677441e+87 2.7614025e+86 -1.5306761e+87)
(-9.7444689e+87 6.1607376e+85 1.3589036e+87)
(-9.4630489e+87 3.3350854e+86 1.1800101e+87)
(-6.7493611e+87 2.2206192e+86 -1.4584213e+87)
(-9.6846424e+87 -6.4708007e+85 1.2877057e+87)
(-6.7286001e+87 2.4387051e+86 -1.4010181e+87)
(-9.6716445e+87 2.7958206e+86 1.2760199e+87)
(-1.7400222e+88 1.5467215e+86 -4.1851805e+87)
(-1.7424857e+88 2.419131e+86 -4.1503666e+87)
(-1.2167759e+88 2.7190025e+86 -3.5706694e+87)
(-8.7485791e+87 2.9692104e+86 -3.9019636e+87)
(-1.2129264e+88 1.705535e+86 -3.5391031e+87)
(-8.6979463e+87 2.1681388e+86 -3.8532352e+87)
(-1.216181e+88 2.4195781e+86 -3.5590656e+87)
(-1.2164011e+88 1.2471859e+86 -3.6209387e+87)
(-8.7459925e+87 2.7744533e+86 -3.8554558e+87)
(-8.7666558e+87 1.7797914e+86 -3.9476154e+87)
(-6.7546098e+87 2.6009006e+86 -1.3986401e+87)
(-6.765203e+87 2.8091627e+86 -1.3216555e+87)
(-9.6483969e+87 3.2159606e+86 1.2863534e+87)
(-9.6317885e+87 1.3807037e+85 1.2887706e+87)
(-6.6614745e+87 2.6398963e+86 -1.5928193e+87)
(-9.7578572e+87 1.5461574e+86 1.3869573e+87)
(-9.4862319e+87 3.8779353e+86 1.1710174e+87)
(-6.8847236e+87 3.0511634e+86 -1.2176826e+87)
(-1.7321746e+88 1.5136853e+86 -4.1608059e+87)
(-1.7339457e+88 2.2117881e+86 -4.1152469e+87)
(-1.2217531e+88 2.4907152e+86 -3.6049619e+87)
(-1.2189519e+88 1.4184523e+86 -3.564773e+87)
(-8.8187675e+87 2.7212631e+86 -3.924668e+87)
(-8.7615839e+87 1.8850469e+86 -3.8671699e+87)
(-1.2144294e+88 2.1707564e+86 -3.5412236e+87)
(-1.2113231e+88 1.197968e+86 -3.5826579e+87)
(-8.7140189e+87 2.467907e+86 -3.8490538e+87)
(-8.7160298e+87 1.8989128e+86 -3.90915e+87)
(-6.8918936e+87 2.4184405e+86 -1.1979294e+87)
(-9.792e+87 2.3179109e+85 1.3969189e+87)
(-6.6533706e+87 2.6435003e+86 -1.5186789e+87)
(-9.4937272e+87 3.7248001e+86 1.1978203e+87)
(-6.7766211e+87 2.3243631e+86 -1.4627394e+87)
(-9.6477498e+87 -5.0865388e+85 1.2855051e+87)
(-6.8533844e+87 2.2480398e+86 -1.2972699e+87)
(-9.7217912e+87 2.5763207e+86 1.3375434e+87)
(-1.7423478e+88 1.4160151e+86 -4.1624547e+87)
(-1.7455355e+88 2.3077877e+86 -4.173413e+87)
(-1.2048843e+88 2.4431067e+86 -3.5341078e+87)
(-1.2025432e+88 1.483124e+86 -3.5021522e+87)
(-8.6498527e+87 2.8367879e+86 -3.8713105e+87)
(-8.6269446e+87 2.128031e+86 -3.8219756e+87)
(-1.2085965e+88 2.2417481e+86 -3.5364268e+87)
(-1.2059032e+88 1.0337317e+86 -3.5869297e+87)
(-8.6664313e+87 2.7318812e+86 -3.8439851e+87)
(-8.6820204e+87 1.6406132e+86 -3.9141932e+87)
(-6.6911895e+87 2.6255292e+86 -1.3619531e+87)
(-9.6309377e+87 1.0585753e+85 1.2955594e+87)
(-6.738941e+87 2.8527799e+86 -1.2768049e+87)
(-9.6224403e+87 3.6108258e+86 1.3016188e+87)
(-6.8637975e+87 3.0710059e+86 -1.1679488e+87)
(-6.65284e+87 2.5189384e+86 -1.461934e+87)
(-9.7123678e+87 1.5256109e+86 1.3895124e+87)
(-9.4852863e+87 3.8101263e+86 1.2351524e+87)
(-2.3841202e+88 -1.5324612e+86 -2.6255795e+87)
(-2.3845721e+88 2.1972316e+86 -2.6469306e+87)
(-2.3068507e+88 7.4476249e+84 -2.9537488e+87)
(-2.3954517e+88 -2.2113534e+86 -2.5150349e+87)
(-2.4059937e+88 2.4175684e+86 -2.5938578e+87)
(-2.3130736e+88 -4.6027998e+85 -2.9146413e+87)
(-2.2975932e+88 -2.4476539e+85 -2.9626594e+87)
(-1.9091928e+88 1.6798011e+86 -3.7000699e+87)
(-1.4410623e+88 7.7938274e+85 -1.9924621e+86)
(-1.9131699e+88 -9.9946469e+85 -3.7189169e+87)
(-1.8834801e+88 1.6474617e+86 -3.7060889e+87)
(-1.4685484e+88 -7.0961406e+86 -1.1891769e+86)
(-1.4250948e+88 2.6079008e+86 -2.0181158e+86)
(-2.450888e+88 3.5688535e+85 -3.3226398e+87)
(-2.359534e+88 3.2396418e+86 -2.0979584e+87)
(-2.3566896e+88 -1.1416182e+86 -2.0228715e+87)
(-2.4427021e+88 -7.0467416e+85 -3.2084016e+87)
(-1.978323e+88 1.5998786e+85 -3.3367668e+87)
(-1.9782091e+88 2.7487197e+86 -3.3564317e+87)
(-1.6793228e+88 1.4147493e+86 -3.9583366e+87)
(-1.6738026e+88 8.3814268e+85 -3.9165844e+87)
(-1.9682796e+88 2.4874164e+86 -3.2557638e+87)
(-1.6654567e+88 1.4394178e+86 -3.8510551e+87)
(-1.9617892e+88 -1.9488102e+84 -3.257802e+87)
(-1.6591619e+88 9.8478555e+85 -3.9079959e+87)
(-1.1677338e+88 1.2706676e+86 -3.60563e+87)
(-1.0089455e+88 -2.4848575e+86 5.3359042e+86)
(-1.1666864e+88 2.3766095e+86 -3.5469721e+87)
(-1.0116218e+88 3.1905818e+86 6.1031793e+86)
(-1.1514334e+88 2.5575328e+86 -3.559333e+87)
(-1.0305815e+88 -2.3270246e+86 7.5646517e+86)
(-1.163398e+88 1.485366e+86 -3.4959004e+87)
(-1.0092835e+88 3.9985859e+86 6.2521415e+86)
(-1.3467185e+88 1.1535662e+86 1.8815958e+87)
(-1.3416063e+88 -7.7619919e+85 1.9307931e+87)
(-1.7310009e+88 2.7161228e+86 2.0432715e+87)
(-1.7299196e+88 1.3995063e+86 2.0217777e+87)
(-1.7352838e+88 2.5904242e+86 2.0172977e+87)
(-1.3415827e+88 9.6574289e+85 1.872703e+87)
(-1.3228888e+88 2.2588001e+86 1.7804687e+87)
(-1.7247284e+88 1.1663842e+86 1.9389072e+87)
(-1.3491675e+88 2.131831e+86 1.8864926e+87)
(-1.3477856e+88 -1.4005203e+84 1.9590393e+87)
(-1.7361931e+88 3.0656329e+86 2.0585571e+87)
(-1.7326198e+88 1.9058667e+86 2.0257629e+87)
(-1.3436382e+88 1.9315682e+86 1.9303198e+87)
(-1.3481562e+88 1.3642271e+86 1.9286056e+87)
(-1.7332548e+88 2.6834284e+86 2.1252939e+87)
(-1.7258487e+88 6.5478747e+85 2.0808704e+87)
(-1.3543185e+88 5.9015302e+85 1.9371343e+87)
(-1.3496158e+88 -7.9595793e+85 1.9704652e+87)
(-1.7248486e+88 2.4144088e+86 2.0617715e+87)
(-1.7313486e+88 8.5663402e+85 2.1208632e+87)
(-1.3521344e+88 4.1547684e+85 1.9208588e+87)
(-1.3416804e+88 2.1535095e+86 1.8808466e+87)
(-1.73197e+88 2.0032427e+86 2.0332795e+87)
(-1.7301328e+88 6.2778125e+85 2.0297688e+87)
(-1.3438964e+88 1.6341815e+86 1.8685791e+87)
(-1.3421665e+88 -3.846931e+85 1.9007676e+87)
(-1.7301365e+88 2.7337188e+86 1.9733282e+87)
(-1.7341476e+88 1.6150716e+86 2.0216229e+87)
(-1.3410744e+88 1.5496077e+86 1.8807075e+87)
(-1.3138262e+88 2.0658871e+86 1.7548186e+87)
(-1.7254105e+88 2.7986272e+86 2.0274862e+87)
(-1.7157367e+88 6.7313424e+85 1.9592431e+87)
(-1.5715096e+88 2.0162933e+86 1.8435109e+87)
(-1.5606389e+88 1.7808512e+86 1.8837602e+87)
(-1.9867153e+88 8.2809823e+84 2.3563464e+87)
(-1.9980574e+88 2.998202e+86 2.3402415e+87)
(-1.3636152e+88 3.9605691e+85 1.9116406e+87)
(-1.3587255e+88 -9.8708103e+85 1.9358969e+87)
(-1.7386278e+88 2.474353e+86 2.0579908e+87)
(-1.7453711e+88 9.9887962e+85 2.1166803e+87)
(-1.355678e+88 7.6271783e+85 1.8709658e+87)
(-1.3286722e+88 1.1308688e+86 1.7255351e+87)
(-1.7423468e+88 2.0729066e+86 2.0215174e+87)
(-1.7372008e+88 4.4298699e+85 1.9855174e+87)
(-1.5803706e+88 1.3686704e+86 1.9254036e+87)
(-1.5624938e+88 2.7951726e+86 1.7739115e+87)
(-2.0032352e+88 2.1014344e+86 2.2581229e+87)
(-2.0078866e+88 3.7290825e+86 2.3115481e+87)
(-1.34856e+88 1.4199657e+86 1.8293361e+87)
(-1.3502435e+88 -1.3107621e+86 1.9030122e+87)
(-1.7381516e+88 2.261982e+86 1.9717102e+87)
(-1.7424637e+88 1.3955265e+86 2.0072758e+87)
(-1.3335092e+88 1.1748957e+86 1.8415415e+87)
(-1.3417258e+88 6.9908817e+85 1.8404217e+87)
(-1.7310439e+88 2.263231e+86 2.0183699e+87)
(-1.725076e+88 1.7586608e+85 1.9935232e+87)
(-1.3479256e+88 1.5652868e+86 1.8459271e+87)
(-1.3517411e+88 -7.0496466e+85 1.9569711e+87)
(-1.7399601e+88 2.4226489e+86 2.042004e+87)
(-1.7380421e+88 1.2171443e+86 1.9943395e+87)
(-1.3453894e+88 2.1326382e+86 1.8590148e+87)
(-1.3419122e+88 5.3170294e+85 1.8165197e+87)
(-1.7432952e+88 2.1960859e+86 1.9844374e+87)
(-1.7357355e+88 9.482034e+85 1.9445398e+87)
(-1.3502938e+88 1.8657027e+85 1.9116577e+87)
(-1.7429774e+88 2.9625033e+86 2.0404966e+87)
(-1.7400164e+88 1.696344e+86 2.018195e+87)
(-1.34849e+88 2.0995304e+86 1.847368e+87)
(-1.350904e+88 1.552101e+86 1.8825889e+87)
(-1.3496157e+88 1.6552287e+86 1.9300899e+87)
(-1.7352238e+88 2.3949337e+86 2.0811345e+87)
(-1.7333647e+88 2.5812605e+85 2.1048087e+87)
(-1.5783636e+88 2.6317196e+85 1.9358295e+87)
(-1.5612546e+88 2.1649667e+86 1.7947753e+87)
(-1.9947134e+88 1.6116908e+86 2.2827901e+87)
(-1.9971857e+88 3.2879197e+86 2.3321089e+87)
(-1.5630014e+88 1.7114107e+86 1.7623654e+87)
(-1.5423412e+88 2.3769604e+86 1.7340833e+87)
(-1.9848661e+88 8.2136206e+85 2.2149694e+87)
(-1.997003e+88 3.0864111e+86 2.2164324e+87)
(-1.5837925e+88 -2.6416397e+85 1.9471617e+87)
(-1.569225e+88 2.1513551e+86 1.8349111e+87)
(-2.0029214e+88 2.7640619e+86 2.3147521e+87)
(-2.0005389e+88 1.226442e+86 2.2799832e+87)
(-1.9997359e+88 2.694191e+86 2.3233773e+87)
(-1.567337e+88 1.6597585e+86 1.8143138e+87)
(-1.5487246e+88 1.825968e+86 1.8091176e+87)
(-1.9866357e+88 -3.5524021e+84 2.3247897e+87)
(-1.8137161e+88 9.8687977e+85 1.9953911e+87)
(-1.7957938e+88 1.2438523e+86 2.0482409e+87)
(-2.3023883e+88 -1.5212852e+86 2.5728164e+87)
(-2.3171628e+88 2.5338037e+86 2.5504287e+87)
(-1.572587e+88 2.5700483e+85 1.8457562e+87)
(-1.5675828e+88 9.4655768e+85 1.9061658e+87)