/*--------------------------------*- C++ -*----------------------------------*\
  =========                 |
  \\      /  F ield         | OpenFOAM: The Open Source CFD Toolbox
   \\    /   O peration     | Website:  https://openfoam.org
    \\  /    A nd           | Version:  7
     \\/     M anipulation  |
\*---------------------------------------------------------------------------*/
FoamFile
{
    version     2.0;
    format      ascii;
    class       volScalarField;
    location    "1000";
    object      k;
}
// * * * * * * * * * * * * * * * * * * * * * * * * * * * * * * * * * * * * * //

dimensions      [0 2 -2 0 0 0 0];

internalField   nonuniform List<scalar> 
34387
(
1.5208534
1.5209795
1.5199453
1.5198973
1.5282712
1.5223814
1.522114
1.5215232
1.5213229
1.519808
1.5198195
1.5197102
1.5197806
1.5194234
1.5195063
1.519786
1.5198
1.5197924
1.5197188
1.5194804
1.5194288
1.5200362
1.5194396
1.5192693
1.5192278
1.5193922
1.5193921
1.5192317
1.5192969
1.5194552
1.5199626
1.5187556
1.5187743
1.5187276
1.5231018
1.5228425
1.5218402
1.5216875
1.5301409
1.5306708
1.5296118
1.5300562
1.5212078
1.5209605
1.5209455
1.5211757
1.5209084
1.5210961
1.5207017
1.5208733
1.5209638
1.520824
1.5208149
1.5216203
1.5209439
1.5214314
1.5208701
1.5207522
1.5206094
1.5207145
1.5205867
1.5205101
1.5203512
1.5203781
1.5197505
1.5202804
1.520255
1.5203652
1.5197599
1.520314
1.5202678
1.5197017
1.5196943
1.5203391
1.5198235
1.5203984
1.5200196
1.5197605
1.519958
1.519639
1.5196106
1.5196455
1.5196142
1.5198245
1.5196646
1.5197012
1.5198704
1.5198215
1.5197772
1.5197166
1.5197651
1.5204504
1.5203309
1.5203377
1.5202442
1.5197449
1.5202476
1.5202885
1.5203344
1.5197383
1.5202379
1.5201958
1.5196859
1.51968
1.5196753
1.5197071
1.5196661
1.5196322
1.5195997
1.5196007
1.519632
1.5196293
1.5190244
1.5192446
1.5192045
1.5190078
1.5196071
1.5195459
1.5195734
1.519513
1.5193666
1.5193967
1.5194631
1.5194364
1.5193506
1.5194126
1.5194185
1.519354
1.5194868
1.5195415
1.5195441
1.5194911
1.5195036
1.5195019
1.519552
1.5195556
1.5193688
1.5193698
1.5192121
1.5194306
1.519428
1.5194124
1.5195006
1.5192598
1.5195754
1.519474
1.5196033
1.5195477
1.5196711
1.5197376
1.5190186
1.5190671
1.5190009
1.5190441
1.5223598
1.5234199
1.5205758
1.5214755
1.5213438
1.5211031
1.5209988
1.5212705
1.5212304
1.5209342
1.5209222
1.5210861
1.520874
1.5207914
1.5209893
1.5219518
1.5209337
1.5207415
1.5207408
1.5209162
1.5217761
1.5203809
1.5203654
1.5209082
1.5209088
1.5208452
1.5208471
1.5208203
1.5208201
1.5208456
1.5208455
1.5208148
1.5208204
1.5208454
1.520839
1.5208412
1.5208475
1.5209061
1.5208973
1.5207783
1.5206516
1.5207383
1.5206048
1.5208551
1.5208661
1.5208028
1.520812
1.5207206
1.520729
1.5206084
1.5205972
1.520777
1.5207844
1.5208064
1.520798
1.5207806
1.5207817
1.5208186
1.5208166
1.5208208
1.5207328
1.5207684
1.5207316
1.5207663
1.5207293
1.5207323
1.5207664
1.5207625
1.5208046
1.5206175
1.5206164
1.520816
1.5207795
1.5208103
1.5207755
1.5207493
1.5206257
1.5205655
1.5204808
1.5207379
1.5207436
1.5207765
1.5207697
1.5206835
1.5206886
1.5207241
1.5207188
1.5206341
1.5206614
1.5205653
1.5205373
1.5205758
1.5206846
1.5207085
1.5205985
1.5206119
1.5205337
1.5218435
1.5218457
1.5215782
1.5215941
1.5216128
1.5216311
1.5218823
1.5218821
1.5201772
1.5201968
1.520225
1.5202037
1.5218897
1.5218533
1.5218774
1.521879
1.5216098
1.5216253
1.5202535
1.5202096
1.5201898
1.5202342
1.5219259
1.5218858
1.5202161
1.5201767
1.5201492
1.5201913
1.5201938
1.5201664
1.5201373
1.5201655
1.5220101
1.5202577
1.5202742
1.5203342
1.5203151
1.5220959
1.5204389
1.5204478
1.5202111
1.5202365
1.5202949
1.5202681
1.5203813
1.5203931
1.5207198
1.5201075
1.5201375
1.5201617
1.5201338
1.520074
1.5200974
1.5201174
1.5200973
1.5201169
1.5201459
1.5201792
1.5201543
1.5200812
1.5201008
1.5201313
1.5201141
1.5205701
1.5202835
1.520272
1.5205532
1.5202093
1.5201559
1.5201329
1.5201883
1.5201745
1.5201985
1.5202577
1.5202309
1.5206512
1.5203418
1.520328
1.5206267
1.5201741
1.5201905
1.5201918
1.5202079
1.5201663
1.5201372
1.5201556
1.5201825
1.5201565
1.5201358
1.520131
1.5201057
1.5201851
1.5201688
1.5201426
1.5201593
1.5215059
1.5215267
1.5213366
1.5213064
1.5217071
1.5217087
1.5214704
1.5214836
1.5214867
1.5215028
1.5217309
1.5217303
1.521714
1.5201692
1.5201933
1.5201877
1.5201756
1.5217359
1.5217136
1.5217157
1.5214601
1.5214762
1.5215059
1.5215303
1.5217621
1.5217657
1.5201242
1.5201412
1.5201804
1.5201643
1.5217704
1.521721
1.5201294
1.5201544
1.5201607
1.520137
1.5200866
1.5201113
1.5201486
1.5201246
1.5200951
1.5201201
1.5201271
1.5201066
1.5201617
1.520148
1.5201196
1.5201361
1.5200864
1.5201179
1.5201303
1.5201052
1.5200628
1.5200879
1.5200939
1.5200739
1.5200805
1.5200493
1.5200263
1.5200608
1.5200855
1.5200689
1.5200529
1.5200678
1.5200956
1.5201149
1.5201273
1.5201055
1.5201195
1.520084
1.5200578
1.5200947
1.5192878
1.5193295
1.5193068
1.5193066
1.5192919
1.5192903
1.5192873
1.5192761
1.5192776
1.5192874
1.5200618
1.5200858
1.5200852
1.5200684
1.5200173
1.520024
1.5200209
1.5200186
1.520031
1.5200556
1.5200367
1.5200541
1.5199879
1.5199954
1.5199932
1.5199909
1.5197426
1.5197418
1.5198075
1.519811
1.5197614
1.51978
1.5198398
1.5198293
1.5199476
1.5199393
1.5199301
1.519945
1.5199079
1.5199092
1.5199208
1.5199215
1.5197351
1.5197349
1.5197923
1.5198058
1.5198955
1.5198903
1.5199069
1.5199159
1.5198923
1.5198919
1.5199212
1.5199187
1.5197898
1.5197345
1.5198139
1.5197476
1.5199579
1.5199676
1.5199881
1.5199803
1.5200444
1.5200243
1.5200088
1.5200278
1.5199927
1.5200166
1.5200445
1.5200241
1.5199529
1.5199651
1.5199938
1.5199826
1.5200319
1.5200061
1.5199948
1.5200231
1.5200255
1.5200083
1.5199933
1.5200136
1.5200358
1.5200575
1.5200794
1.5200575
1.52009
1.5200611
1.5200403
1.5200708
1.5193055
1.5197736
1.5198319
1.5198357
1.5197725
1.519308
1.5197638
1.5198219
1.5198391
1.519775
1.5192932
1.5192949
1.5199467
1.5199235
1.5199305
1.5199561
1.5199427
1.5199322
1.5199347
1.5199499
1.5193479
1.5198158
1.5198709
1.5198902
1.5198277
1.5194172
1.519893
1.5199508
1.5201011
1.5200165
1.5193389
1.5193973
1.520245
1.5200572
1.5200682
1.5202636
1.5200031
1.5199729
1.5199788
1.5200143
1.5200926
1.5201168
1.5201639
1.5201432
1.5200471
1.5200561
1.5200969
1.5200907
1.5203772
1.5201512
1.5201514
1.5203816
1.5202162
1.5202263
1.5204875
1.520475
1.5193057
1.5193805
1.5233171
1.5236739
1.5223991
1.522533
1.522448
1.5226327
1.5227192
1.5227827
1.5229756
1.5210869
1.5236071
1.5233035
1.5203128
1.5211086
1.5210152
1.5210203
1.520927
1.5209361
1.520917
1.5208382
1.5208543
1.5210107
1.5209699
1.5208939
1.5209299
1.5208306
1.520859
1.5208439
1.5208169
1.5208631
1.5208714
1.520792
1.5207865
1.5208632
1.5208658
1.5207942
1.5207874
1.5207653
1.5207701
1.5207969
1.5207909
1.5207654
1.5207913
1.520796
1.5207711
1.520947
1.5208785
1.5208265
1.520886
1.5207298
1.5207761
1.5208368
1.5207933
1.5208452
1.5207461
1.5206853
1.5206805
1.5207367
1.5207695
1.5207737
1.5207634
1.5208257
1.5208129
1.5205122
1.5204828
1.5207218
1.5207684
1.5207186
1.5207635
1.5206421
1.5206441
1.5206966
1.5207265
1.5206938
1.5206506
1.5206436
1.5207171
1.520695
1.5207003
1.5207236
1.5207177
1.5207629
1.5207666
1.5204423
1.5204513
1.5204377
1.5204229
1.5208718
1.5208563
1.5208554
1.5208706
1.5208672
1.5208506
1.5208519
1.5208676
1.5208447
1.5208387
1.5208403
1.5208461
1.5208501
1.5208441
1.5208433
1.5208493
1.5208192
1.5208207
1.5208257
1.5208245
1.5208185
1.5208177
1.5208219
1.520823
1.5208339
1.5208262
1.5208277
1.5208353
1.5208298
1.5208309
1.5208386
1.5208377
1.5208171
1.5208183
1.5208231
1.5208224
1.5208207
1.5208207
1.520826
1.5208261
1.5208395
1.5208315
1.5208317
1.5208395
1.5208363
1.5208288
1.5208282
1.5208357
1.5208414
1.5208419
1.5208473
1.5208469
1.5208448
1.520845
1.5208509
1.5208506
1.5208716
1.5208567
1.5208562
1.5208708
1.5208527
1.5208531
1.5208672
1.5208666
1.5208127
1.5208107
1.5208079
1.5208058
1.5206936
1.5207493
1.5206881
1.5207515
1.5207974
1.5207977
1.520796
1.520796
1.5207471
1.5207361
1.520676
1.5206796
1.5208459
1.5208467
1.5208348
1.5208356
1.5208398
1.5208395
1.5208512
1.5208514
1.520823
1.5208243
1.5208277
1.520827
1.5208283
1.5208276
1.5208319
1.5208325
1.5207735
1.520775
1.5207758
1.5207747
1.5207872
1.5207863
1.5207849
1.5207858
1.5207318
1.5207401
1.5206682
1.5206685
1.5207247
1.5207332
1.5206598
1.5206575
1.5207974
1.5207988
1.5208027
1.5208016
1.5208022
1.5208013
1.520806
1.5208069
1.5208145
1.5208137
1.52082
1.5208207
1.5208163
1.5208106
1.5208094
1.5208152
1.5207987
1.5207999
1.5208033
1.5208021
1.5208002
1.5208011
1.5208033
1.520803
1.5208137
1.5208079
1.5208079
1.5208142
1.5208155
1.5208088
1.5208075
1.5208142
1.520709
1.5206572
1.5206579
1.5207067
1.520756
1.5207563
1.5207727
1.5207722
1.5207868
1.5207938
1.5207932
1.5207859
1.5207711
1.5207541
1.5207551
1.5207709
1.520784
1.5207849
1.5207922
1.5207913
1.5207042
1.5207532
1.5207549
1.5207694
1.520769
1.5207081
1.5207546
1.5207549
1.5207704
1.5207705
1.5207913
1.5207838
1.5207837
1.520791
1.520782
1.5207824
1.5207891
1.5207888
1.5206588
1.520657
1.5206462
1.5206464
1.5208153
1.5208084
1.5208083
1.5208152
1.5208023
1.5207986
1.5207984
1.5208022
1.5208127
1.5208062
1.520805
1.5208114
1.5208001
1.5207966
1.5207959
1.5207992
1.5206625
1.5206571
1.5206187
1.5206158
1.5206076
1.5205692
1.520497
1.5205175
1.5205997
1.5205225
1.520775
1.5207753
1.5207776
1.5207779
1.5207786
1.5207778
1.5207805
1.5207816
1.5207891
1.5207881
1.5207937
1.5207947
1.520791
1.5207857
1.5207849
1.5207899
1.520721
1.5207231
1.5207409
1.5207403
1.5207245
1.5207265
1.5207441
1.5207438
1.5207681
1.520761
1.5207612
1.5207687
1.5207654
1.5207582
1.5207579
1.5207651
1.5206882
1.5206897
1.520711
1.5207103
1.5207336
1.5207341
1.5207402
1.5207403
1.5207069
1.5207068
1.5206425
1.520645
1.5206772
1.5206602
1.5206032
1.5206196
1.5206552
1.5207233
1.520715
1.5206499
1.520753
1.5207532
1.5207537
1.5207535
1.520765
1.5207637
1.520763
1.520764
1.5206563
1.520728
1.52072
1.5206529
1.521071
1.5211905
1.5218861
1.5218964
1.5218751
1.521886
1.5219207
1.5219211
1.5219321
1.5219329
1.5218598
1.521867
1.5218989
1.5218945
1.5219458
1.5219449
1.5219903
1.5219919
1.5219082
1.5218828
1.5219279
1.5219551
1.5219238
1.5219307
1.5219135
1.5219208
1.5219316
1.5218943
1.5218902
1.5219292
1.5219883
1.5219722
1.5220184
1.522037
1.521943
1.5219261
1.5219725
1.5219906
1.5219233
1.5218903
1.5218952
1.5219306
1.5218955
1.5218684
1.5218705
1.5219001
1.5220173
1.5220648
1.5220346
1.5220784
1.522111
1.5220237
1.5221009
1.5220992
1.5221549
1.5221295
1.5221734
1.5222031
1.5223006
1.5222961
1.5220251
1.5220201
1.5220892
1.5220986
1.5222864
1.5222703
1.5229749
1.5218607
1.5218457
1.5218671
1.5218849
1.5218227
1.5217907
1.5218068
1.5218412
1.5218794
1.5218608
1.521889
1.5219099
1.5218342
1.5217988
1.5218233
1.5218602
1.5227289
1.5221258
1.5221742
1.5228046
1.521975
1.5219244
1.5219604
1.5220162
1.522008
1.521988
1.5220486
1.5220729
1.5228694
1.5222144
1.5222465
1.5229275
1.5215874
1.5216849
1.521596
1.5216924
1.5216948
1.5216853
1.5216931
1.521701
1.5217026
1.5216986
1.5217042
1.5216982
1.5216967
1.5216029
1.5216019
1.521697
1.5217923
1.5218032
1.5217983
1.5217871
1.5217543
1.521762
1.5217457
1.5217537
1.5217741
1.5217726
1.5217831
1.5217825
1.5217179
1.5217787
1.5217594
1.5218051
1.5218255
1.5217419
1.5217234
1.5217385
1.5217974
1.5217995
1.5218454
1.5218437
1.5217614
1.5217676
1.5217525
1.5217594
1.5217995
1.52181
1.5218099
1.5218194
1.5217246
1.5217297
1.5217757
1.521773
1.5218303
1.5218137
1.5218601
1.5218798
1.5217772
1.5217638
1.521811
1.5218251
1.5217262
1.5217247
1.5217396
1.5217432
1.5217318
1.5217295
1.5217713
1.5217761
1.5215724
1.5215463
1.5216273
1.5216578
1.5216786
1.5215896
1.5215996
1.5216914
1.5216943
1.5216827
1.5216822
1.5216959
1.5216625
1.5216323
1.5216292
1.5216602
1.5216871
1.5216546
1.5216851
1.5217199
1.5216588
1.5216514
1.5216818
1.5216914
1.5217176
1.5217036
1.5217149
1.5217307
1.5217442
1.5217071
1.5217216
1.5217612
1.5232191
1.5196414
1.519639
1.5196718
1.5196688
1.5196582
1.5196596
1.5196361
1.519641
1.5196409
1.5196415
1.5196303
1.5196384
1.5196416
1.5196423
1.5196299
1.5196341
1.5196333
1.5196336
1.5196309
1.5196416
1.5232689
1.5215102
1.5214622
1.521529
1.5215843
1.5214
1.5213201
1.5213697
1.5214576
1.5215908
1.5215357
1.5215863
1.5215304
1.5214653
1.5213766
1.5213719
1.5214595
1.5206396
1.5206432
1.5209509
1.5209477
1.5206558
1.5206529
1.5209374
1.5209546
1.5212197
1.5210944
1.5211239
1.5212595
1.5211222
1.5211262
1.5212652
1.5212609
1.5206485
1.5206515
1.5209667
1.5209651
1.521288
1.5211456
1.5211457
1.5212886
1.5212863
1.5211395
1.5213146
1.5211667
1.5209572
1.5206434
1.5209823
1.5206639
1.5214875
1.5213991
1.5214009
1.5214894
1.5215595
1.521556
1.5216096
1.521615
1.521613
1.5215585
1.5215888
1.5216437
1.5214888
1.5213997
1.5214291
1.5215181
1.5215506
1.5215325
1.521625
1.5216445
1.5215392
1.5215329
1.5216233
1.5216324
1.5217484
1.5216933
1.521705
1.5217619
1.5217179
1.521697
1.5217536
1.5217763
1.5196673
1.5196762
1.519675
1.5196703
1.5207406
1.5210749
1.5210689
1.520738
1.5196612
1.5196729
1.5196761
1.5196724
1.5207249
1.521062
1.521074
1.5207391
1.5196641
1.5196711
1.5212714
1.5212567
1.5214111
1.521428
1.5212636
1.5212647
1.5214147
1.5214179
1.5197118
1.5197248
1.5197278
1.5197229
1.5208144
1.5211583
1.5211721
1.5208303
1.5197809
1.5197959
1.5198629
1.5198765
1.5209277
1.5212771
1.5215529
1.5211529
1.5197199
1.5198268
1.5218075
1.5214815
1.5216516
1.5220325
1.521377
1.5213571
1.521517
1.5215431
1.5218775
1.5218178
1.5218586
1.5219227
1.5217415
1.5216426
1.521674
1.5217766
1.522227
1.5217901
1.5219016
1.5223918
1.5220656
1.5219912
1.5225265
1.5226379
1.5235372
1.5239045
1.523218
1.523267
1.5235335
1.5238728
1.5224971
1.5224185
1.5225893
1.5226689
1.5227271
1.5229371
1.5175368
1.5181355
1.5224397
1.5228249
1.5226728
1.5225746
1.5227312
1.5228031
1.5229725
1.5222104
1.5231089
1.5227312
1.5228772
1.5229786
1.5229737
1.5230086
1.5230178
1.5214341
1.5209955
1.5211046
1.5234927
1.5234926
1.5237999
1.5237722
1.5232063
1.523252
1.5232521
1.5232117
1.5209718
1.5210197
1.5210392
1.5209981
1.5209058
1.5209302
1.5209219
1.5208976
1.5210164
1.5210101
1.5209598
1.5209711
1.5208878
1.5208962
1.5208952
1.5209033
1.5208775
1.5208567
1.5208737
1.5208528
1.5208401
1.5208433
1.5208641
1.5208608
1.5208302
1.5208337
1.5208378
1.5208346
1.5208435
1.520847
1.5208516
1.5208481
1.5210058
1.5209974
1.5209475
1.5209597
1.520991
1.5209846
1.5209384
1.5209467
1.5208774
1.5208854
1.5208879
1.5208802
1.5208959
1.5208881
1.5208796
1.520888
1.5208371
1.5208385
1.5208387
1.5208368
1.5208374
1.52084
1.5208452
1.5208422
1.5208318
1.5208281
1.520824
1.5208284
1.5208278
1.5208299
1.5208253
1.5208242
1.5208307
1.5208106
1.5208115
1.520831
1.5208343
1.520814
1.5208129
1.5208328
1.5208056
1.5208021
1.5208011
1.520805
1.5208019
1.5207983
1.5207988
1.5208028
1.5208293
1.5208092
1.5208111
1.5208301
1.5208153
1.5208114
1.5208307
1.520833
1.5208039
1.5207995
1.5208037
1.5208079
1.5207992
1.5207964
1.5208006
1.5208029
1.5207905
1.5207896
1.5207877
1.5207884
1.5207936
1.5207932
1.5207916
1.5207915
1.5207978
1.5207945
1.5207939
1.5207974
1.520791
1.5207905
1.520794
1.5207945
1.5207915
1.5207872
1.5207856
1.5207894
1.520792
1.5207884
1.5207919
1.5207952
1.5207954
1.5207923
1.5207956
1.5207995
1.5207902
1.5207924
1.5207936
1.5207929
1.520974
1.5209627
1.5209237
1.5209346
1.5209449
1.5209307
1.520904
1.5209141
1.5208647
1.5208706
1.5208737
1.5208681
1.5208844
1.5208794
1.5208724
1.5208776
1.5206878
1.520772
1.5207766
1.5208076
1.5208045
1.520728
1.5207967
1.5208204
1.5208486
1.5208308
1.5208621
1.5208809
1.5209031
1.5208838
1.5208549
1.5208379
1.520834
1.5208499
1.5206319
1.5206093
1.5208175
1.5208063
1.5208047
1.5208165
1.5206418
1.520775
1.5207427
1.5207422
1.520774
1.5206367
1.5207394
1.5207419
1.5207712
1.5207704
1.5208116
1.5208
1.5207985
1.5208095
1.5205683
1.5205665
1.5208303
1.5208305
1.5208295
1.5208303
1.5208219
1.5208245
1.5208216
1.5208238
1.520835
1.5208353
1.5208376
1.520837
1.5208287
1.5208296
1.5208258
1.5208256
1.5205609
1.5205391
1.5207906
1.5207883
1.5207863
1.5207886
1.5207916
1.5207917
1.5207925
1.5207937
1.5207827
1.5207854
1.5207872
1.5207855
1.5207904
1.5207886
1.5207882
1.5207897
1.5205991
1.5207103
1.5207102
1.5207395
1.5207371
1.520602
1.5207114
1.5207137
1.5207403
1.5207409
1.5207686
1.5207672
1.5207754
1.5207777
1.5205292
1.520529
1.520764
1.5207724
1.5207754
1.5207666
1.5206083
1.5207157
1.5207129
1.5207434
1.5207392
1.5206022
1.5207097
1.5207097
1.5207389
1.5207354
1.5205314
1.5205391
1.5207615
1.5207696
1.5207753
1.5207661
1.5207656
1.5207738
1.5207771
1.5207691
1.5207885
1.5207865
1.5207854
1.5207867
1.5207876
1.520782
1.5207807
1.5207857
1.5207858
1.5207862
1.5207909
1.5207904
1.5207916
1.520791
1.520791
1.5207918
1.5205056
1.5205131
1.5213784
1.5213868
1.5209546
1.5209538
1.5209519
1.5209527
1.5209662
1.5209651
1.5209565
1.5209575
1.5209636
1.5209615
1.520952
1.5209546
1.5209521
1.5209493
1.5209471
1.52095
1.5209267
1.5209298
1.5209358
1.520933
1.520934
1.5209472
1.5209518
1.5209395
1.5209589
1.5209556
1.5209444
1.5209485
1.5209384
1.5209411
1.5209456
1.5209432
1.5209297
1.520926
1.520933
1.5209373
1.5209253
1.5209261
1.5209327
1.5209323
1.5209435
1.5209385
1.5209383
1.5209433
1.5209444
1.5209391
1.520944
1.5209495
1.5209537
1.5209483
1.520951
1.5209567
1.5209473
1.5209472
1.5209499
1.5209502
1.5209522
1.5209516
1.5209519
1.5209525
1.5209585
1.5209527
1.5209533
1.520959
1.5210074
1.5210233
1.521009
1.5210247
1.5212316
1.5210755
1.5212296
1.5210766
1.5210087
1.5210061
1.521024
1.5210207
1.5210712
1.5210753
1.5212248
1.5212164
1.5209866
1.5209791
1.5209872
1.5209798
1.5209783
1.520974
1.5209736
1.5209777
1.5209827
1.5209764
1.5209789
1.5209859
1.5209747
1.5209704
1.520973
1.5209774
1.5209845
1.5209743
1.5209847
1.5209964
1.5210011
1.5209938
1.5210066
1.5210147
1.5210643
1.5210542
1.521204
1.5211878
1.5210412
1.5210259
1.5211445
1.5211677
1.5209524
1.5209484
1.5209575
1.5209622
1.5209474
1.520944
1.5209526
1.5209565
1.5209641
1.52096
1.520966
1.5209702
1.5209719
1.5209654
1.5209706
1.5209776
1.5208953
1.5208981
1.520907
1.5209041
1.5209041
1.5209157
1.520926
1.5209131
1.5209415
1.5209344
1.5209208
1.5209277
1.5209229
1.5209152
1.5209121
1.5209197
1.5207103
1.5207101
1.5207317
1.5207319
1.520693
1.5206939
1.5207089
1.52073
1.5207315
1.5207094
1.5208262
1.5208289
1.5208646
1.5208597
1.520886
1.5209025
1.5208932
1.5208788
1.5208559
1.5208231
1.5208225
1.5208542
1.5208719
1.5208741
1.5208875
1.520885
1.5207318
1.5207102
1.5207092
1.5207296
1.5208209
1.5208202
1.5208505
1.5208523
1.5207106
1.5207107
1.5207315
1.5207315
1.5208205
1.5208209
1.5208514
1.5208512
1.5208816
1.5208686
1.5208683
1.5208809
1.5208697
1.5208675
1.5208803
1.5208828
1.5206937
1.5206934
1.5210669
1.5210666
1.5209184
1.52091
1.5209091
1.5209173
1.5209012
1.5208919
1.5208911
1.5209003
1.520918
1.5209093
1.5209124
1.5209213
1.5209002
1.5208907
1.5208935
1.5209031
1.520699
1.5206786
1.5206781
1.5206973
1.5206955
1.5206759
1.5206747
1.5206934
1.5206625
1.5206613
1.5206424
1.5206438
1.5206597
1.5206584
1.5206209
1.5205697
1.5205644
1.5206125
1.5206278
1.5205723
1.5211425
1.5212817
1.5209057
1.5209033
1.5209181
1.5209151
1.5209032
1.5209016
1.5209129
1.520915
1.5209261
1.5209237
1.520934
1.5209369
1.5209378
1.5209265
1.5209298
1.5209412
1.5208113
1.520811
1.52085
1.5208509
1.5208124
1.5208131
1.5208509
1.5208509
1.5208886
1.5208723
1.520873
1.5208896
1.5208897
1.5208725
1.520874
1.5208915
1.5208052
1.5208046
1.5208521
1.5208536
1.5208835
1.5208809
1.5209032
1.5209072
1.5209282
1.5208984
1.5209366
1.5209807
1.5208626
1.520808
1.520813
1.5208879
1.5210202
1.5209519
1.5209721
1.5210557
1.520926
1.5209207
1.5209354
1.5209421
1.5209621
1.5209489
1.5209569
1.520971
1.5210878
1.5209909
1.5210087
1.5211175
1.5210635
1.5210632
1.5211387
1.5212677
1.5219864
1.522014
1.52214
1.5221661
1.5221979
1.522199
1.522048
1.5220497
1.5218686
1.5218749
1.5219012
1.5218933
1.5218808
1.5218947
1.5219216
1.5219057
1.5219567
1.5219551
1.5219396
1.521941
1.521929
1.5219376
1.5219382
1.5219305
1.5227765
1.5227666
1.5227609
1.5227691
1.522761
1.5227232
1.5227211
1.5227538
1.5220322
1.5220498
1.5221882
1.522203
1.5219975
1.5219795
1.5219657
1.5219817
1.5219201
1.5219351
1.5219528
1.5219373
1.5219102
1.5219168
1.5219348
1.5219273
1.5219563
1.5219637
1.52198
1.5219721
1.5228566
1.5228108
1.5228056
1.5228495
1.5227962
1.5227756
1.5227706
1.5227877
1.5220406
1.522021
1.522001
1.522019
1.5219994
1.52198
1.5219594
1.5219771
1.5219394
1.5219576
1.5219759
1.5219567
1.5219826
1.5220007
1.5220194
1.5220003
1.5220016
1.5220006
1.5219788
1.5219803
1.5219217
1.5219425
1.5219711
1.5219485
1.5219007
1.5219179
1.5219462
1.5219265
1.5219582
1.5219781
1.5219793
1.5219605
1.5220225
1.5220301
1.5220607
1.5220514
1.5229459
1.5229017
1.5228938
1.5229339
1.5220376
1.5220528
1.5220841
1.5220666
1.5221676
1.5221429
1.5221284
1.5221511
1.5221163
1.5221243
1.5221484
1.5221401
1.5230345
1.5229736
1.5229644
1.5230279
1.522261
1.5222613
1.5223667
1.5223642
1.5222709
1.5222794
1.5223775
1.5223653
1.5220597
1.5220784
1.5221103
1.5220893
1.5220826
1.5221039
1.5221359
1.5221127
1.5222133
1.5221892
1.5221681
1.5221907
1.5221477
1.5221669
1.5221911
1.5221711
1.522288
1.5223007
1.522392
1.5223757
1.5224062
1.5223201
1.5223059
1.5223875
1.5232949
1.5228507
1.5228705
1.523273
1.5219452
1.5219711
1.5219993
1.5219719
1.5219705
1.5220009
1.5220285
1.5219968
1.522051
1.5220522
1.5220214
1.5220218
1.5219995
1.5220264
1.5220264
1.5220009
1.5219965
1.5220348
1.5220615
1.5220219
1.5220258
1.5220743
1.5220996
1.5220503
1.5221136
1.5221183
1.5220695
1.5220671
1.5220436
1.5220819
1.5220789
1.5220427
1.5219804
1.5220068
1.5220255
1.5219988
1.5220036
1.5220341
1.5220516
1.5220211
1.5220866
1.5220671
1.5220386
1.5220574
1.5220194
1.5220444
1.5220642
1.5220384
1.5220259
1.5220638
1.5220794
1.5220421
1.5221119
1.5220988
1.522051
1.5220656
1.5221428
1.5221254
1.5220792
1.522097
1.5220573
1.5220927
1.5221115
1.5220757
1.5232933
1.5228192
1.5228087
1.5232323
1.5224782
1.5224134
1.5223692
1.5224321
1.5223511
1.5223833
1.5224537
1.5224185
1.5228178
1.5228175
1.5232784
1.5232343
1.5223151
1.5222948
1.5222469
1.5222673
1.5222574
1.5222251
1.5221752
1.5222054
1.5221485
1.5221862
1.5222183
1.522178
1.522225
1.522262
1.522284
1.5222465
1.5221048
1.5221305
1.5221615
1.5221344
1.522127
1.5221562
1.5221875
1.5221561
1.5222591
1.5222356
1.5222065
1.5222291
1.5221875
1.5222131
1.5222371
1.5222104
1.5232791
1.5228238
1.5228342
1.5232464
1.5223362
1.5223602
1.5224356
1.5224086
1.5223211
1.5223407
1.5224216
1.5223986
1.5228515
1.5228377
1.5232884
1.5232603
1.5215667
1.52157
1.5216195
1.5216128
1.5217084
1.5217161
1.5217151
1.5217087
1.5215786
1.521587
1.5216383
1.5216245
1.5217326
1.5217334
1.5217199
1.5217193
1.5217171
1.5217238
1.5217293
1.5217234
1.5216948
1.5217001
1.5217119
1.5217061
1.5217052
1.5217179
1.5217295
1.5217165
1.5217454
1.5217396
1.5217271
1.5217325
1.5217871
1.5217826
1.5217632
1.5217681
1.5217767
1.5217628
1.5217441
1.5217564
1.5217437
1.5217608
1.5217658
1.5217494
1.5217237
1.5217397
1.5217522
1.5217353
1.5217771
1.5217791
1.5217589
1.5217577
1.5216132
1.5216267
1.5216852
1.5216649
1.5215959
1.5216063
1.5216613
1.5216441
1.521738
1.521756
1.5217544
1.5217377
1.5220715
1.5220963
1.5220976
1.5220735
1.5218628
1.5218831
1.5220112
1.5220287
1.5220476
1.5220455
1.5219025
1.5219009
1.521743
1.5217485
1.5217689
1.5217622
1.5225641
1.5225448
1.5225442
1.5225607
1.5218012
1.5218027
1.5217886
1.5217873
1.5217509
1.521764
1.5217851
1.5217707
1.5217818
1.5217891
1.5217868
1.5217805
1.5225772
1.522571
1.5225682
1.5225741
1.5218709
1.521885
1.5220232
1.5220363
1.5220705
1.5220961
1.5219189
1.5219408
1.5217468
1.5217521
1.5217662
1.5217604
1.5217549
1.521768
1.5217823
1.5217687
1.5218337
1.5218148
1.5218033
1.5218199
1.5217968
1.5218021
1.5218189
1.5218129
1.5226677
1.522611
1.5226112
1.5226657
1.5225864
1.5225695
1.5225711
1.522585
1.5217673
1.5217843
1.521806
1.5217878
1.5217869
1.5218066
1.5218283
1.5218076
1.5218413
1.5218428
1.5218221
1.5218211
1.5218041
1.5218226
1.5218208
1.5218034
1.5217715
1.5217882
1.5218025
1.5217855
1.5218237
1.5218087
1.5217904
1.5218044
1.5218734
1.5218519
1.5218342
1.5218536
1.5218176
1.5218333
1.5218534
1.5218361
1.5216746
1.5217022
1.521781
1.5217422
1.5217
1.5217357
1.5218236
1.5217754
1.5219003
1.5219063
1.5218604
1.5218566
1.5218312
1.5218685
1.5218639
1.5218285
1.5218318
1.5218351
1.5218057
1.5218036
1.5216529
1.5216739
1.5217444
1.5217141
1.5216334
1.5216496
1.5217138
1.5216886
1.5217814
1.5218068
1.5218038
1.5217799
1.521767
1.5217919
1.5218056
1.5217804
1.5217937
1.5218235
1.5218367
1.5218067
1.5218393
1.521837
1.5218079
1.5218109
1.5217844
1.5218092
1.5218124
1.5217887
1.5218217
1.5218594
1.5218721
1.5218343
1.5219128
1.5219
1.5218531
1.5218656
1.5219097
1.5219075
1.5218612
1.5218637
1.5218328
1.5218696
1.5218714
1.5218353
1.5219828
1.521959
1.5219151
1.5219377
1.521942
1.5219268
1.5218806
1.5218956
1.5218533
1.5218889
1.5219038
1.5218678
1.5218905
1.5219248
1.5219483
1.5219129
1.5219551
1.5219536
1.521908
1.52191
1.5219443
1.5219231
1.5218781
1.5218983
1.5218518
1.5218869
1.5219079
1.5218718
1.5218832
1.5219196
1.5219202
1.5218842
1.5218074
1.5218317
1.5218526
1.5218279
1.5218296
1.5218572
1.5218783
1.5218496
1.5218909
1.5218908
1.5218618
1.521862
1.5218412
1.5218667
1.5218656
1.5218409
1.5219203
1.5218967
1.5218706
1.5218924
1.5218305
1.5218582
1.5218731
1.5218451
1.5218094
1.5218328
1.5218479
1.5218242
1.5218516
1.5218742
1.5218967
1.5218726
1.5231212
1.5231548
1.523123
1.5231555
1.5199678
1.5199717
1.5199532
1.5199499
1.5203047
1.5203048
1.5202873
1.5202857
1.5202914
1.5199552
1.519963
1.5203003
1.5202933
1.5199507
1.5199541
1.5202937
1.5232129
1.5232274
1.5232125
1.523227
1.521729
1.5217753
1.5218729
1.5218128
1.5217623
1.5218204
1.5219277
1.5218553
1.5219886
1.5219933
1.5219263
1.5219227
1.5218924
1.521947
1.5219415
1.5218876
1.5218008
1.5218767
1.5219915
1.521902
1.5218522
1.5219555
1.5220722
1.5219592
1.5221232
1.5221141
1.5220101
1.5220158
1.5219637
1.5220429
1.5220451
1.5219618
1.5218889
1.5219474
1.5219605
1.5219013
1.5219284
1.5219973
1.5220121
1.5219415
1.5218932
1.5219501
1.5219542
1.5218967
1.5220032
1.5219959
1.5219278
1.5219343
1.5219683
1.5220549
1.5220741
1.5219847
1.5221553
1.5221319
1.5220213
1.5220429
1.5221489
1.5221256
1.5220162
1.5220357
1.5219664
1.5220484
1.5220645
1.521977
1.5226674
1.5226749
1.5225761
1.5225504
1.5226803
1.5225785
1.5226649
1.5225484
1.5223902
1.5226101
1.5226339
1.522426
1.5226138
1.5223928
1.5226369
1.5224238
1.5226434
1.5225266
1.5226425
1.5225384
1.5225751
1.52245
1.5225023
1.5226191
1.5225482
1.5224855
1.5222617
1.522336
1.5225895
1.5223635
1.522577
1.5223814
1.5221833
1.5220777
1.5219342
1.5220393
1.5220659
1.5222596
1.5223464
1.5221574
1.5223934
1.5223761
1.5221908
1.5222074
1.5222318
1.5222165
1.5220789
1.522091
1.5224386
1.5224077
1.5222114
1.5222429
1.5222151
1.5224065
1.5224395
1.5222474
1.5222714
1.5222428
1.5220973
1.5221242
1.5222676
1.5222377
1.5220913
1.522118
1.5226151
1.5227125
1.5225997
1.5227208
1.522618
1.5227138
1.522599
1.5227257
1.522688
1.5226705
1.5224436
1.522473
1.5224481
1.5226686
1.5226855
1.5224783
1.5223192
1.5222914
1.5221352
1.5221648
1.5222611
1.5224621
1.5224915
1.5222915
1.5224951
1.522466
1.5222685
1.5222996
1.5223236
1.5222957
1.5221457
1.5221714
1.5223178
1.5222963
1.5221384
1.5221621
1.522266
1.5224713
1.5224895
1.5222892
1.522363
1.5223204
1.5221663
1.5222056
1.5225304
1.5224925
1.5222909
1.5223319
1.5226844
1.5224479
1.5226731
1.5224671
1.522713
1.5225993
1.5227221
1.5226119
1.5224703
1.5226868
1.5227167
1.5225044
1.522638
1.5227279
1.5226143
1.522742
1.5219931
1.5220836
1.5221079
1.5220158
1.5220517
1.5221669
1.5221945
1.5220771
1.5221996
1.5221773
1.5220645
1.5220837
1.5220105
1.5220958
1.5221121
1.5220223
1.5220471
1.5220379
1.5219699
1.5219773
1.5219482
1.5220182
1.5220407
1.5219696
1.5219103
1.521966
1.5219882
1.5219306
1.521937
1.5219916
1.5219969
1.5219404
1.5219147
1.5219732
1.521988
1.5219294
1.5219542
1.5220247
1.5220401
1.521969
1.5220794
1.5220523
1.5219822
1.5220071
1.5219454
1.5220009
1.5220258
1.5219683
1.5219981
1.5220857
1.522105
1.5220148
1.5221915
1.5221698
1.5220541
1.5220756
1.5222371
1.5221977
1.5220831
1.5221178
1.5220258
1.5221125
1.5221465
1.5220538
1.5224094
1.5223838
1.5222574
1.5222808
1.5223831
1.5223668
1.5222387
1.5222549
1.522171
1.5222681
1.5222827
1.5221841
1.5221921
1.5222873
1.5223101
1.5222112
1.5223837
1.5223789
1.5222544
1.5222578
1.5222256
1.5223513
1.5223779
1.5222491
1.5221562
1.5222549
1.522278
1.5221781
1.5221899
1.5222852
1.5222858
1.5221884
1.5220609
1.5221229
1.5221463
1.522084
1.5221041
1.52218
1.522203
1.5221257
1.5222129
1.5222164
1.5221403
1.522138
1.5221013
1.5221615
1.5221575
1.522098
1.5222372
1.5222183
1.5221439
1.5221621
1.5221218
1.5221965
1.522209
1.5221338
1.5220824
1.5221421
1.5221543
1.5220948
1.5221076
1.5221654
1.5221838
1.5221246
1.5203633
1.5200044
1.5200094
1.5203668
1.5229228
1.5228038
1.5228154
1.5229322
1.5226496
1.5228826
1.5228984
1.5226729
1.5226625
1.52289
1.5228923
1.5226695
1.5229313
1.522813
1.5228073
1.5229273
1.5203565
1.5200023
1.52001
1.5203651
1.5229371
1.5229253
1.5228022
1.5228242
1.5229079
1.5226557
1.5228882
1.5226792
1.5226727
1.5229004
1.5229168
1.5226905
1.5228237
1.5229403
1.5228167
1.5229437
1.5234591
1.5234764
1.5227205
1.5226988
1.5224869
1.5225116
1.5224699
1.5226809
1.5227041
1.5224912
1.5225188
1.5224997
1.5223337
1.5223525
1.5225421
1.5225157
1.5223513
1.5223769
1.5226942
1.5226862
1.5224779
1.5224876
1.5224573
1.5226709
1.522697
1.5224837
1.5225122
1.5224846
1.5223187
1.5223454
1.5225152
1.5225064
1.5223452
1.5223526
1.5204305
1.5200606
1.5200714
1.5204441
1.5231
1.5229615
1.5229753
1.5231125
1.5228046
1.5230467
1.523066
1.5228306
1.5228346
1.5230679
1.5230837
1.5228532
1.5229922
1.5231215
1.522987
1.5231276
1.5205293
1.5201513
1.5202456
1.5206807
1.5233103
1.5232885
1.5231354
1.5231563
1.5232385
1.5229632
1.5232133
1.5229925
1.5231708
1.5234071
1.5238449
1.5236066
1.5237146
1.5235
1.523343
1.5238162
1.5237113
1.524057
1.5237038
1.5232094
1.5230164
1.5234955
1.5227762
1.5229958
1.5230307
1.5228134
1.5228556
1.5228124
1.5226368