/*--------------------------------*- C++ -*----------------------------------*\
  =========                 |
  \\      /  F ield         | OpenFOAM: The Open Source CFD Toolbox
   \\    /   O peration     | Website:  https://openfoam.org
    \\  /    A nd           | Version:  7
     \\/     M anipulation  |
\*---------------------------------------------------------------------------*/
FoamFile
{
    version     2.0;
    format      ascii;
    class       volScalarField;
    location    "1000";
    object      nut;
}
// * * * * * * * * * * * * * * * * * * * * * * * * * * * * * * * * * * * * * //

dimensions      [0 2 -1 0 0 0 0];

internalField   nonuniform List<scalar> 
34387
(
1.9444233e-48
1.858119e-48
2.174332e-48
2.1418124e-48
1.0615481e-47
1.7948156e-48
1.8343836e-48
2.0365378e-48
1.9839753e-48
3.0109645e-48
2.9263083e-48
2.0135363e-48
2.1918895e-48
2.0064721e-48
2.0747765e-48
1.8957903e-48
3.0676333e-48
2.8988646e-48
1.974302e-48
1.9828535e-48
1.8817542e-48
1.4156762e-48
1.1646156e-48
1.873974e-48
1.8413849e-48
1.1495838e-48
1.1680827e-48
1.7858999e-48
1.568881e-48
1.1593842e-48
1.4200209e-48
6.093116e-48
5.435777e-48
4.5549988e-48
1.7990392e-48
1.8051572e-48
1.9795552e-48
1.9319498e-48
7.8559672e-48
8.4200833e-48
1.0111607e-47
1.0237682e-47
1.8134291e-48
1.8815766e-48
2.0092776e-48
1.8737296e-48
2.2421192e-48
1.9194644e-48
2.160388e-48
2.0210652e-48
1.1460576e-48
1.6675982e-48
1.7481493e-48
1.3628915e-48
1.1437881e-48
1.3419747e-48
1.1863614e-48
1.753146e-48
1.4904389e-48
1.1800616e-48
6.1632389e-48
5.321299e-48
2.1505672e-48
2.337853e-48
1.9112924e-48
2.7781477e-48
2.6681192e-48
2.1751001e-48
1.9876523e-48
2.762355e-48
2.5767763e-48
2.2870321e-48
2.2662779e-48
2.7034072e-48
2.3755415e-48
2.8734636e-48
2.6052907e-48
2.4334647e-48
2.694729e-48
2.2493685e-48
1.8621428e-48
2.1800206e-48
1.7699339e-48
1.7806045e-48
1.9813742e-48
2.194574e-48
2.1898309e-48
2.0934731e-48
1.9952785e-48
2.1757034e-48
2.1356732e-48
3.3230562e-48
2.3950725e-48
2.4971881e-48
2.9809123e-48
2.3329815e-48
2.9555096e-48
2.1273101e-48
2.3305754e-48
2.3095047e-48
2.6861269e-48
2.5353757e-48
2.5565832e-48
2.22067e-48
1.9992639e-48
1.8813473e-48
2.0865278e-48
1.8785756e-48
1.6515288e-48
1.7765187e-48
2.0728426e-48
1.9397927e-48
1.0548364e-48
6.0367779e-49
5.8053354e-49
1.0335631e-48
1.0175187e-48
1.1361293e-48
1.0277058e-48
1.1553164e-48
1.1631872e-48
1.0379224e-48
6.4510186e-49
6.5327376e-49
1.0452371e-48
6.1327412e-49
6.5631095e-49
9.9005336e-49
8.7407674e-49
8.50849e-49
9.1900199e-49
9.4516445e-49
9.5886913e-49
9.4243584e-49
8.4154978e-49
8.5672845e-49
1.0401799e-48
1.0459571e-48
6.0705169e-49
6.369692e-49
6.2839507e-49
1.0270762e-48
8.8543433e-49
6.1453271e-49
6.4555657e-49
6.519739e-49
9.5925142e-49
9.9478269e-49
1.0339679e-48
9.5200308e-49
1.0327554e-48
1.0598495e-48
9.7405204e-49
1.0064782e-48
4.8104468e-48
4.6976174e-48
4.4781672e-48
1.8642603e-48
1.9974915e-48
1.8986351e-48
2.0000922e-48
1.8840484e-48
2.1316117e-48
2.0093823e-48
2.1010223e-48
1.181473e-48
1.6779287e-48
1.6692694e-48
1.1516028e-48
1.3413845e-48
1.2060225e-48
1.7286088e-48
1.583292e-48
1.1871253e-48
1.3135735e-48
6.0098075e-48
5.2655259e-48
2.1286689e-48
2.0413486e-48
2.2225121e-48
2.2678367e-48
1.8313435e-48
1.8478867e-48
1.8709082e-48
1.9328293e-48
1.7527802e-48
1.8405501e-48
2.0444537e-48
2.0637757e-48
2.124877e-48
2.1201368e-48
2.0510509e-48
2.0789816e-48
2.3776702e-48
2.2816707e-48
2.5806357e-48
2.8749363e-48
2.0812173e-48
1.9892195e-48
2.2278673e-48
2.2320996e-48
1.8781879e-48
2.1700078e-48
2.5264909e-48
1.8963016e-48
1.7394421e-48
1.8298459e-48
1.9476758e-48
1.9347948e-48
1.1123648e-48
9.722366e-49
8.5289144e-49
8.9536083e-49
5.824097e-49
9.1935017e-49
6.2271513e-49
1.1554679e-48
6.8119809e-49
9.9704306e-49
1.0138188e-48
6.1869166e-49
6.3498467e-49
5.7388287e-49
1.0524273e-48
1.0118959e-48
9.0528794e-49
9.0224451e-49
9.3037173e-49
9.5680033e-49
5.9132188e-49
5.9040819e-49
1.0610483e-48
1.0770911e-48
9.9225031e-49
9.6361985e-49
8.4138285e-49
8.7642808e-49
1.0489702e-48
1.0375933e-48
6.3545106e-49
6.2984985e-49
9.7946855e-49
6.3002618e-49
7.0108713e-49
9.6639014e-49
1.1548878e-48
9.7339138e-49
9.4360535e-49
1.0216867e-48
9.5610413e-49
9.6502123e-49
9.0389232e-48
9.15678e-48
6.1869124e-48
6.3033154e-48
7.2551624e-48
7.1375556e-48
1.1071979e-47
1.0668856e-47
1.6756919e-48
1.843998e-48
1.9970187e-48
1.7641719e-48
5.1924514e-48
4.9485661e-48
9.7276227e-48
9.5316548e-48
6.504987e-48
6.4784592e-48
2.0378002e-48
1.8799477e-48
1.6665728e-48
1.8106516e-48
5.2059483e-48
4.8032324e-48
1.8407701e-48
1.7357531e-48
1.6646409e-48
1.815761e-48
1.8604379e-48
1.784072e-48
1.6624405e-48
1.8184385e-48
4.8714642e-48
1.712792e-48
1.9546161e-48
2.1206332e-48
1.8674221e-48
5.4386072e-48
1.83779e-48
2.155646e-48
1.7855056e-48
1.8360743e-48
1.9148964e-48
1.8603804e-48
1.9208578e-48
1.8189566e-48
1.9443546e-48
1.3479809e-48
1.5729718e-48
1.6474713e-48
1.4209327e-48
1.4391583e-48
1.396359e-48
1.3339959e-48
1.4049112e-48
1.3712819e-48
1.6765352e-48
1.7189085e-48
1.4521008e-48
1.4770099e-48
1.2551147e-48
1.2531125e-48
1.3725134e-48
1.3294862e-48
1.4220372e-48
1.4239516e-48
1.481663e-48
1.4475599e-48
1.2713419e-48
1.3008157e-48
1.5146187e-48
1.3210131e-48
1.4190402e-48
1.609895e-48
1.441931e-48
1.7897167e-48
1.5504859e-48
1.4586829e-48
1.5879753e-48
1.5824879e-48
1.763494e-48
1.7783628e-48
1.986771e-48
1.7107174e-48
1.5860662e-48
1.755795e-48
1.8791434e-48
1.6954825e-48
1.6462614e-48
1.6479001e-48
1.5322185e-48
1.7886924e-48
1.5748011e-48
1.5402002e-48
1.7334565e-48
5.7864115e-48
5.8952002e-48
5.03481e-48
4.8836258e-48
1.0327401e-47
9.9754794e-48
6.9140238e-48
6.8528075e-48
7.5723843e-48
7.4462511e-48
1.1452291e-47
1.1022919e-47
5.1459566e-48
1.91871e-48
2.2257234e-48
2.2147759e-48
1.9435245e-48
5.461396e-48
9.4152221e-48
9.3407792e-48
6.3536983e-48
6.4207976e-48
7.1097058e-48
7.1245209e-48
1.0702569e-47
1.0612955e-47
1.6812597e-48
1.9353546e-48
2.0618399e-48
1.8140228e-48
5.2176521e-48
4.8801989e-48
1.9809314e-48
2.0281447e-48
1.9745065e-48
1.9534606e-48
1.7106932e-48
1.6456522e-48
1.7549919e-48
1.7603786e-48
1.2812626e-48
1.2502264e-48
1.3639615e-48
1.4144568e-48
1.4464065e-48
1.3003989e-48
1.1428696e-48
1.3121693e-48
1.2722226e-48
1.4795774e-48
1.437958e-48
1.2895202e-48
1.3264349e-48
1.2328912e-48
1.2815484e-48
1.2840109e-48
1.2892197e-48
1.1762102e-48
1.1961638e-48
1.3567677e-48
1.332723e-48
1.303761e-48
1.4188458e-48
1.457569e-48
1.5235342e-48
1.6517633e-48
1.7063172e-48
1.5207298e-48
1.5160279e-48
1.3792561e-48
1.2562827e-48
1.3701444e-48
5.303942e-49
2.637157e-49
2.6142113e-49
3.9613341e-49
3.9248064e-49
2.5584167e-49
2.5875412e-49
3.8110789e-49
3.7392952e-49
5.5737618e-49
9.5267951e-49
1.0566918e-48
1.1085946e-48
1.0121257e-48
1.1250087e-48
1.0459173e-48
9.9545019e-49
1.102708e-48
9.7094175e-49
1.1331552e-48
1.0494391e-48
1.0923946e-48
1.1458008e-48
8.9164363e-49
8.4028232e-49
9.8460233e-49
6.5586726e-49
6.3205517e-49
6.573267e-49
6.2252603e-49
8.0638428e-49
6.0859354e-49
6.5432958e-49
6.7507288e-49
5.441465e-49
5.003823e-49
5.4115271e-49
5.2738079e-49
5.5708331e-49
4.9855658e-49
5.0945e-49
5.3576429e-49
7.8506174e-49
5.3743346e-49
7.1827724e-49
6.7914255e-49
4.7732174e-49
4.5237785e-49
4.8066659e-49
4.7915701e-49
4.7646858e-49
5.0160674e-49
5.3212933e-49
5.0133158e-49
6.0086251e-49
5.0572495e-49
5.6185314e-49
5.974136e-49
1.0082189e-48
8.9078602e-49
8.8192664e-49
9.9756915e-49
1.0853401e-48
1.0425817e-48
9.6715331e-49
1.0086777e-48
9.645318e-49
1.0651787e-48
1.0647804e-48
9.6571231e-49
8.5758237e-49
7.5110567e-49
8.03793e-49
8.8669411e-49
8.759718e-49
8.7994375e-49
9.8408615e-49
1.0034998e-48
9.3140852e-49
9.3968558e-49
1.0417066e-48
1.0366676e-48
9.8688339e-49
1.0307112e-48
1.0225736e-48
9.6558142e-49
1.0437179e-48
1.0184587e-48
9.4601703e-49
9.6909706e-49
2.5940339e-49
5.1654061e-49
6.5068647e-49
6.1973775e-49
7.9416139e-49
2.5934115e-49
5.4405895e-49
6.5335186e-49
5.8296445e-49
6.6094729e-49
3.7857453e-49
3.7462407e-49
4.8792391e-49
4.3823298e-49
4.6245761e-49
4.9376942e-49
4.6577769e-49
4.3567101e-49
4.7530676e-49
4.7103396e-49
2.6185994e-49
5.3690287e-49
6.6400251e-49
6.066011e-49
7.5627855e-49
2.5666325e-49
5.0858147e-49
5.9747305e-49
4.9812139e-49
5.2475261e-49
3.9912708e-49
4.0510979e-49
5.0679165e-49
4.7312834e-49
4.9901356e-49
5.3868257e-49
4.7916451e-49
4.5220304e-49
4.8011689e-49
4.9995753e-49
1.089672e-48
1.2546539e-48
1.1561843e-48
1.048335e-48
1.0488153e-48
9.1579174e-49
9.3994097e-49
1.0531274e-48
9.4701914e-49
9.2961344e-49
1.0356326e-48
1.0433429e-48
1.0605421e-48
1.1193069e-48
1.1480805e-48
1.0741656e-48
5.6840813e-49
5.385634e-49
9.5794807e-49
9.9516286e-49
3.6084493e-48
5.6347233e-48
4.7011334e-48
5.67717e-48
5.6875879e-48
1.2118094e-47
1.5827734e-47
4.4622334e-48
1.2709073e-48
1.2405354e-48
4.4459256e-48
1.8523625e-48
2.0474762e-48
2.0699688e-48
2.2024495e-48
2.1329538e-48
1.9687248e-48
2.485284e-48
2.3251699e-48
1.8421977e-48
1.847475e-48
1.6878272e-48
1.8364832e-48
1.7250255e-48
1.9852439e-48
2.1745894e-48
1.6622258e-48
2.0787787e-48
2.0441492e-48
2.2134198e-48
2.218619e-48
2.2198824e-48
2.0935947e-48
2.6642442e-48
2.4633733e-48
1.7443298e-48
1.7804119e-48
1.856631e-48
1.9010983e-48
1.816184e-48
2.1005462e-48
2.3292016e-48
1.8110435e-48
9.4096582e-49
9.5118524e-49
9.9990829e-49
8.6296849e-49
1.0645002e-48
9.738445e-49
6.5204476e-49
6.3783441e-49
5.8117218e-49
6.7256724e-49
1.0377855e-48
1.0057668e-48
6.4774937e-49
5.7580152e-49
9.0561355e-49
9.6595619e-49
8.6891257e-49
9.1565456e-49
1.0472035e-48
9.8984026e-49
9.7315333e-49
8.5893611e-49
1.0241997e-48
9.0659205e-49
1.0700749e-48
1.0630853e-48
6.5700161e-49
5.8686969e-49
6.4715381e-49
9.4890637e-49
1.0793436e-48
5.8134228e-49
6.8203511e-49
6.7234349e-49
1.0771533e-48
1.0026196e-48
9.4119954e-49
9.9082221e-49
1.0780272e-48
1.0584036e-48
9.6139429e-49
9.5692221e-49
1.7406883e-48
2.0628746e-48
2.0197731e-48
1.7323622e-48
1.6084996e-48
1.867452e-48
1.9632495e-48
1.7086226e-48
1.7305383e-48
1.8010321e-48
1.8064548e-48
1.7376137e-48
1.8432724e-48
1.7860657e-48
1.7628119e-48
1.7519509e-48
1.2440025e-48
1.4024928e-48
1.3725706e-48
1.3713778e-48
1.3623365e-48
1.4521442e-48
1.3678598e-48
1.4202619e-48
1.306198e-48
1.4076219e-48
1.5422176e-48
1.3469968e-48
1.5680589e-48
1.5012589e-48
1.3623837e-48
1.3779625e-48
1.3859909e-48
1.2338394e-48
1.2794384e-48
1.4696536e-48
1.4097235e-48
1.2979866e-48
1.333824e-48
1.481461e-48
1.3310005e-48
1.4670255e-48
1.5810019e-48
1.3978864e-48
1.3035127e-48
1.4348964e-48
1.5930785e-48
1.4004426e-48
1.7612009e-48
1.6422556e-48
1.5912285e-48
1.7460321e-48
1.8060396e-48
1.7481449e-48
1.6769407e-48
1.7635427e-48
1.7363967e-48
1.9049419e-48
1.9839256e-48
1.7891498e-48
1.9802833e-48
1.8207919e-48
1.6470513e-48
1.8032115e-48
1.8001555e-48
1.9407429e-48
2.0690113e-48
2.2737816e-48
1.7502703e-48
1.8496655e-48
1.9976924e-48
2.030386e-48
1.8867486e-48
1.929807e-48
2.0807097e-48
1.9766366e-48
1.9168446e-48
1.8052495e-48
1.8417608e-48
1.8949507e-48
1.8925611e-48
1.7312757e-48
2.11533e-48
1.888966e-48
2.0611021e-48
1.9962161e-48
1.7009785e-48
1.7818062e-48
1.8078148e-48
1.7690126e-48
1.6767275e-48
1.8111241e-48
1.8565034e-48
1.7992614e-48
1.7414661e-48
1.8071412e-48
1.3811518e-48
1.4437738e-48
1.4139453e-48
1.4744495e-48
1.4397431e-48
1.520388e-48
1.6841391e-48
1.4997053e-48
1.5215905e-48
1.8798982e-48
1.6103064e-48
1.8287996e-48
1.5987377e-48
1.3811998e-48
1.2925709e-48
1.3916672e-48
1.2996441e-48
1.3385169e-48
1.3132127e-48
1.3995847e-48
1.360768e-48
1.282526e-48
1.3642246e-48
1.4269472e-48
1.5909365e-48
1.5124129e-48
1.3277092e-48
1.3932511e-48
1.3317015e-48
1.4312099e-48
1.5979225e-48
1.397879e-48
8.7300631e-49
9.1250782e-49
1.0557196e-48
1.0184662e-48
1.1060591e-48
1.0231641e-48
1.0718393e-48
1.0473343e-48
1.0190342e-48
1.0761225e-48
1.0066294e-48
9.7938343e-49
1.0204342e-48
1.0542627e-48
1.021336e-48
9.5464288e-49
2.5746013e-49
3.8555177e-49
3.7811922e-49
2.6004231e-49
8.0501937e-49
6.3884683e-49
7.3514436e-49
7.0442203e-49
5.0203536e-49
5.1443651e-49
5.2523281e-49
5.2392791e-49
6.1821945e-49
6.212534e-49
6.395752e-49
7.057879e-49
5.5208636e-49
5.2072583e-49
5.2416301e-49
5.4680416e-49
2.5180494e-49
5.9404161e-49
5.3459337e-49
7.0291952e-49
6.4492327e-49
2.5662684e-49
7.6825551e-49
6.7920885e-49
8.0201231e-49
6.8962516e-49
5.1337558e-49
5.07176e-49
5.1525422e-49
5.0326987e-49
5.3423036e-49
4.6742316e-49
4.7401019e-49
5.305592e-49
3.8262896e-49
3.7075752e-49
5.3532992e-49
5.5127323e-49
1.0821588e-48
1.2361893e-48
1.1270087e-48
1.0128583e-48
1.0693307e-48
9.4378039e-49
9.1727884e-49
1.0231312e-48
1.070495e-48
1.2383728e-48
1.1754749e-48
1.0495365e-48
9.9380404e-49
8.5366668e-49
8.895013e-49
9.5489125e-49
2.5374792e-49
2.5218488e-49
3.7068985e-49
3.6145738e-49
2.5493732e-49
3.8902326e-49
4.0004854e-49
2.5582051e-49
5.5701602e-49
5.2368916e-49
9.1854947e-49
9.7594884e-49
1.0515158e-48
9.5351706e-49
9.7099331e-49
1.0119703e-48
9.5092653e-49
1.0473321e-48
1.0579139e-48
9.2480768e-49
9.1962198e-49
9.9334915e-49
9.6575646e-49
9.5439369e-49
1.07984e-48
9.9337224e-49
6.6318589e-49
5.3938866e-49
6.9774643e-49
7.3953653e-49
7.7613053e-49
5.1404835e-49
6.9940247e-49
7.2469275e-49
4.9381354e-49
4.6341225e-49
5.0328149e-49
4.9805196e-49
4.8344351e-49
4.5526012e-49
5.0983808e-49
5.096062e-49
7.53013e-49
6.6889778e-49
7.4389162e-49
7.2851765e-49
5.1044185e-49
4.9462608e-49
5.0534916e-49
5.0204415e-49
6.2288134e-49
5.8244316e-49
5.9900464e-49
5.9629288e-49
5.6286848e-49
5.9808794e-49
5.5295688e-49
5.9018967e-49
9.0761538e-49
8.6049712e-49
9.836224e-49
1.028099e-48
9.2473857e-49
9.2975874e-49
1.0510545e-48
1.0531684e-48
1.0481196e-48
1.1105127e-48
1.150932e-48
1.0686823e-48
1.1630466e-48
1.1207935e-48
1.0667495e-48
1.0777427e-48
9.2768607e-49
9.4663913e-49
7.8952228e-48
7.7836395e-48
5.6529462e-48
5.9223952e-48
6.6582453e-48
6.5928971e-48
8.6997891e-48
8.1436829e-48
5.5655808e-48
5.2720983e-48
5.7343572e-48
5.959828e-48
1.3328362e-48
1.3579837e-48
1.6181878e-48
1.6606061e-48
1.2258959e-48
1.1780416e-48
1.4115871e-48
1.5485626e-48
7.9354723e-48
7.6729344e-48
5.9477581e-48
6.1184064e-48
5.7183562e-48
5.2511304e-48
5.4316157e-48
5.948659e-48
1.3181993e-48
1.317923e-48
1.5750471e-48
1.6346972e-48
1.2274041e-48
1.2033961e-48
1.4533598e-48
1.5434432e-48
5.0055816e-48
4.7269227e-48
4.5245741e-48
5.058202e-48
5.1302843e-48
4.810903e-48
4.5637866e-48
5.1374606e-48
5.4421457e-48
1.2353011e-48
1.1755302e-48
1.4006576e-48
1.5430736e-48
5.3946322e-48
5.935279e-48
6.1871787e-48
1.3701652e-48
1.3765601e-48
1.6341997e-48
1.6963559e-48
5.6356043e-48
5.9791591e-48
4.946984e-48
4.9257466e-48
5.0598639e-48
5.1935461e-48
5.1597425e-48
4.9064865e-48
5.1727673e-48
4.0271656e-48
4.1875132e-48
4.4039859e-48
4.4490621e-48
3.5989749e-48
3.5330117e-48
3.2703069e-48
3.5089717e-48
3.9330937e-48
4.5253515e-48
4.281503e-48
4.3053289e-48
3.5440835e-48
3.1621281e-48
3.2730735e-48
3.4914152e-48
3.4388192e-48
3.5707723e-48
3.6078956e-48
3.6992267e-48
3.4607757e-48
3.2286252e-48
3.1291178e-48
3.70927e-48
3.9969271e-48
3.8944491e-48
4.3240022e-48
4.3250264e-48
4.3614579e-48
4.0774664e-48
4.1395944e-48
4.4540472e-48
5.2060442e-48
6.0874556e-48
4.9780137e-48
5.7322465e-48
5.7563136e-48
5.4106315e-48
5.1625394e-48
5.4817156e-48
4.8689946e-48
4.7084936e-48
4.9045703e-48
4.4956834e-48
5.0491474e-48
4.4220542e-48
4.4529586e-48
5.1674989e-48
4.7189402e-48
4.6207001e-48
4.4688731e-48
4.4302743e-48
8.4090737e-48
8.0647877e-48
6.3535403e-48
6.4888024e-48
7.001901e-48
6.961923e-48
9.0256739e-48
8.3585218e-48
5.789523e-48
1.3520219e-48
1.3190265e-48
1.5797231e-48
1.6994441e-48
6.014966e-48
5.7607154e-48
6.2787949e-48
1.418499e-48
1.4435191e-48
1.724024e-48
1.7687352e-48
8.2110104e-48
7.9349121e-48
6.1380256e-48
6.3821841e-48
6.7870652e-48
6.7943366e-48
8.7354065e-48
8.1979305e-48
5.3825249e-48
5.6527651e-48
5.6289788e-48
5.9458326e-48
1.3140742e-48
1.3370733e-48
1.6189052e-48
1.6576596e-48
1.2779735e-48
1.2937951e-48
1.5445817e-48
1.6186614e-48
5.3055987e-48
5.3504782e-48
5.1143764e-48
5.3279221e-48
4.8665336e-48
4.6366351e-48
4.8817003e-48
5.0101946e-48
3.1800812e-48
3.2381319e-48
3.4904855e-48
3.5853166e-48
4.2285218e-48
3.7823402e-48
3.6950643e-48
4.3651054e-48
3.9884123e-48
4.1396278e-48
4.0108146e-48
4.1148913e-48
3.2931905e-48
3.2501609e-48
3.4664477e-48
3.2351588e-48
3.2641423e-48
3.1133868e-48
3.0597077e-48
3.5127554e-48
3.2943651e-48
3.3539346e-48
3.5974446e-48
3.6297911e-48
4.4054839e-48
4.2787019e-48
4.2889335e-48
4.412431e-48
4.1153989e-48
3.8272153e-48
3.8841479e-48
4.1958002e-48
5.0511537e-49
3.9100124e-49
4.3781595e-49
2.4346093e-49
2.1104125e-49
2.172835e-49
2.4203854e-49
2.3736092e-49
2.1951844e-49
2.1483624e-49
2.4037524e-49
2.2619025e-49
2.194354e-49
2.2647371e-49
2.4230335e-49
2.3147641e-49
2.1242669e-49
2.1190343e-49
2.4819778e-49
4.5587014e-49
4.1163574e-49
5.0947606e-49
2.5010015e-48
2.6329963e-48
2.7250087e-48
2.7775142e-48
2.1654217e-48
2.2926214e-48
1.9277486e-48
1.9669051e-48
2.4620597e-48
2.8756116e-48
2.7712022e-48
2.4949985e-48
2.0000455e-48
1.8290651e-48
1.7498222e-48
1.8094282e-48
1.2117423e-48
2.1182493e-48
7.1812999e-49
7.4476939e-49
1.2315125e-48
2.0406407e-48
7.5063277e-49
7.4615265e-49
1.4497678e-48
1.274928e-48
1.1883976e-48
1.3229593e-48
1.109737e-48
1.182257e-48
1.2346644e-48
1.2233741e-48
1.217416e-48
2.3028064e-48
6.0113287e-49
7.7936615e-49
1.2429498e-48
1.0967028e-48
1.238385e-48
1.299217e-48
1.1147162e-48
1.1429206e-48
1.3390244e-48
1.4509543e-48
6.0828078e-49
1.5202473e-48
8.4102242e-49
9.2753951e-49
1.8858614e-48
1.8567626e-48
1.8075111e-48
1.8542722e-48
2.4269181e-48
2.5512369e-48
2.5051078e-48
2.5891149e-48
2.4472609e-48
2.4220048e-48
2.3782449e-48
2.4926317e-48
1.6247907e-48
1.6270892e-48
1.8242866e-48
1.7239369e-48
1.9478102e-48
1.9444e-48
1.8310364e-48
1.8760311e-48
1.8953986e-48
2.0530914e-48
1.9562644e-48
1.882111e-48
2.5858609e-48
2.5306488e-48
2.4826303e-48
2.5474617e-48
2.449253e-48
2.4469767e-48
2.4364667e-48
2.519393e-48
2.3925324e-49
2.1635608e-49
2.1676099e-49
2.5272057e-49
1.8191591e-48
5.9577085e-49
8.1400919e-49
9.8779182e-49
2.3618895e-49
2.1768105e-49
2.2269291e-49
2.5398231e-49
1.6373418e-48
5.7544581e-49
8.8910621e-49
8.8810076e-49
4.2769243e-49
4.3651228e-49
1.2927928e-48
1.219911e-48
1.276383e-48
1.3249404e-48
1.146224e-48
1.2314596e-48
1.3680482e-48
1.2688111e-48
2.3535475e-49
2.1269849e-49
2.1890744e-49
2.5068803e-49
2.1045778e-48
6.0906985e-49
9.1364756e-49
1.1459422e-48
2.233229e-49
2.2312057e-49
2.1890169e-49
2.3595749e-49
1.3697406e-48
6.4351055e-49
8.5557477e-49
8.0448266e-49
4.2009947e-49
3.594293e-49
1.4811291e-48
1.4409819e-48
1.3933133e-48
1.5188492e-48
1.3015076e-48
1.3200791e-48
1.3553025e-48
1.3596222e-48
2.6984717e-48
2.7479287e-48
2.5795093e-48
2.5949449e-48
1.916154e-48
2.0406219e-48
1.9697027e-48
1.9387061e-48
2.1401288e-48
2.0935118e-48
1.9291167e-48
2.0650283e-48
2.582405e-48
2.5973926e-48
2.6776912e-48
2.7505998e-48
5.1871013e-49
4.9228688e-49
5.4383533e-49
5.6798892e-49
5.6996152e-49
5.4624492e-49
8.1449488e-48
1.0424281e-47
9.197973e-48
7.2383772e-48
1.8303687e-47
3.7803753e-48
3.6369961e-48
3.6780185e-48
3.5906879e-48
3.0743637e-48
3.262765e-48
3.2218378e-48
3.1781219e-48
1.2337474e-47
1.0078985e-47
1.8493016e-47
3.4791712e-48
6.3226504e-48
5.6741743e-48
5.8213777e-48
5.9703273e-48
6.0678694e-48
6.3476585e-48
4.3887128e-48
1.2185108e-48
1.2436255e-48
1.1374927e-48
3.0194112e-48
2.5493649e-48
1.129909e-48
2.6785831e-48
3.0761661e-48
1.1659902e-48
1.1259139e-48
1.7698833e-48
1.576644e-48
1.3526565e-48
1.5552336e-48
1.840018e-48
1.6283344e-48
1.7838288e-48
2.0037332e-48
1.4340506e-48
1.53007e-48
1.6838936e-48
1.582486e-48
1.750892e-48
1.737157e-48
1.7450936e-48
1.6491594e-48
1.8614694e-48
2.1089188e-48
1.844379e-48
2.0774053e-48
1.8457564e-48
1.7602988e-48
1.5532221e-48
1.6229559e-48
1.750055e-48
1.7033663e-48
1.6101044e-48
1.7053804e-48
1.8057587e-48
1.8389247e-48
1.8149356e-48
1.8010352e-48
1.1499142e-48
1.3716137e-48
1.503213e-48
1.2761401e-48
1.2872983e-48
1.2748472e-48
1.3977027e-48
1.4018406e-48
1.2739614e-48
1.3277932e-48
1.3095271e-48
1.3659131e-48
1.3090251e-48
1.4191931e-48
1.5373887e-48
1.3457006e-48
1.3151026e-48
1.2996986e-48
1.3671202e-48
1.384912e-48
1.5686158e-48
1.5611012e-48
1.3904489e-48
1.3937399e-48
1.3678404e-48
1.7128361e-48
1.5662707e-48
1.3820433e-48
1.4698787e-48
1.2817701e-48
1.3639714e-48
1.3665037e-48
1.7137602e-48
2.0076554e-48
2.0302017e-48
1.7681136e-48
1.7175775e-48
1.9752156e-48
1.985817e-48
1.7440945e-48
1.8066208e-48
1.8682277e-48
1.7865621e-48
1.7442223e-48
1.8188374e-48
1.7548488e-48
1.7662759e-48
1.7581954e-48
1.7606139e-48
1.9295918e-48
2.1058121e-48
1.8178645e-48
1.9086994e-48
1.8529039e-48
1.6364973e-48
1.675128e-48
1.812779e-48
1.7942591e-48
1.6849498e-48
1.7621831e-48
1.8504104e-48
1.8357802e-48
1.7301823e-48
1.8369181e-48
1.293774e-48
1.2736757e-48
1.367533e-48
1.3663303e-48
1.4477913e-48
1.327528e-48
1.3865326e-48
1.3970561e-48
1.3640005e-48
1.5170606e-48
1.4791153e-48
1.3455881e-48
1.561496e-48
1.5234464e-48
1.3312289e-48
1.364412e-48
1.365568e-48
1.4010583e-48
1.3720718e-48
1.4370261e-48
1.3875379e-48
1.4759512e-48
1.6129777e-48
1.4275323e-48
1.4391224e-48
1.8266083e-48
1.78272e-48
1.4618908e-48
1.5698986e-48
1.3626187e-48
1.3066017e-48
1.3745456e-48
9.6888889e-49
1.1671124e-48
1.1966217e-48
1.0402487e-48
1.1383288e-48
9.5452055e-49
1.0005722e-48
1.0513742e-48
8.7938126e-49
9.5755375e-49
9.3795268e-49
1.0108048e-48
9.5006656e-49
9.3754792e-49
1.0546852e-48
9.7037325e-49
2.5270058e-49
6.8066777e-49
5.4536825e-49
7.3501997e-49
7.4723677e-49
2.5449254e-49
8.0933161e-49
5.3096296e-49
7.734375e-49
7.677651e-49
5.4642957e-49
4.9887121e-49
5.1748831e-49
5.406372e-49
4.9796674e-49
4.6580517e-49
5.2591524e-49
5.1092221e-49
3.841792e-49
3.6495618e-49
5.2680669e-49
5.2537767e-49
5.2915198e-49
5.0415482e-49
2.5387887e-49
6.8227904e-49
6.4376767e-49
7.7306474e-49
7.543514e-49
2.4976505e-49
6.1404766e-49
5.3789368e-49
7.4500313e-49
6.9224871e-49
5.1251042e-49
4.7753606e-49
5.4237471e-49
5.3942743e-49
3.7922014e-49
3.6891146e-49
9.3041384e-49
8.1363191e-49
8.4678592e-49
9.7207957e-49
8.9976814e-49
9.0812803e-49
1.0072314e-48
9.8647672e-49
1.0834492e-48
1.0329127e-48
9.4810517e-49
1.008133e-48
1.0948069e-48
1.0029734e-48
1.0599887e-48
1.1451932e-48
5.4956087e-49
5.5706185e-49
9.8175884e-49
9.3169825e-49
1.0097187e-48
1.0541875e-48
1.0388053e-48
9.5674868e-49
1.0343827e-48
1.0565907e-48
1.1103165e-48
8.9643782e-49
9.523638e-49
9.9375062e-49
1.005976e-48
1.0831396e-48
9.2502836e-49
9.8814578e-49
2.5089843e-49
6.5517126e-49
5.3917399e-49
7.1615924e-49
7.5016565e-49
2.5334261e-49
7.8771247e-49
5.2043128e-49
7.5882849e-49
7.7181757e-49
5.3069943e-49
4.796641e-49
5.0128525e-49
5.2745824e-49
3.7047394e-49
3.5982457e-49
4.6904211e-49
4.8447651e-49
5.4672226e-49
5.3351734e-49
2.4757847e-49
5.8172977e-49
4.9835856e-49
7.13395e-49
7.1166104e-49
2.5113173e-49
7.4265103e-49
5.3398956e-49
7.6542031e-49
7.7231066e-49
3.9046665e-49
3.9373027e-49
4.7234233e-49
4.9450558e-49
5.6910633e-49
5.4048025e-49
5.1384944e-49
5.3750716e-49
6.002063e-49
5.5542046e-49
9.619474e-49
9.5579455e-49
1.0711201e-48
1.0352359e-48
9.6330793e-49
8.7161747e-49
9.9190818e-49
1.035767e-48
1.0186222e-48
1.0760696e-48
1.1329648e-48
1.0554967e-48
1.1758511e-48
1.1822235e-48
1.0697173e-48
1.0818848e-48
5.5446745e-49
5.1596088e-49
9.1416725e-49
9.114888e-49
5.741068e-48
6.1429136e-48
5.6374974e-48
5.8132822e-48
5.2565114e-48
5.2640406e-48
5.7561909e-48
5.9144965e-48
4.9456433e-48
5.0568428e-48
5.0355591e-48
5.071555e-48
5.2915685e-48
5.0927198e-48
4.9348204e-48
4.9702089e-48
3.2820432e-48
3.6719537e-48
3.6083963e-48
3.550092e-48
3.432499e-48
3.8586647e-48
3.5766923e-48
3.6311203e-48
4.1790824e-48
4.129115e-48
4.390729e-48
4.3430545e-48
4.2167551e-48
4.2551337e-48
4.2828775e-48
4.2224681e-48
3.5114684e-48
3.2966138e-48
3.2307126e-48
3.7225098e-48
3.5370888e-48
3.3995732e-48
3.2849482e-48
3.7559368e-48
4.1349753e-48
4.0779664e-48
4.3399795e-48
4.3154646e-48
4.0578446e-48
4.0110959e-48
4.3192043e-48
4.2945917e-48
4.9903099e-48
4.7599009e-48
4.7096651e-48
5.0400861e-48
5.0145446e-48
4.8646529e-48
4.7934927e-48
5.0917287e-48
5.6896341e-48
5.4098249e-48
5.6842917e-48
6.0031871e-48
5.5898405e-48
5.3392834e-48
5.565003e-48
5.9107063e-48
5.6013655e-48
5.9998976e-48
5.5789963e-48
6.2540175e-48
5.6598487e-48
6.4700491e-48
5.5479451e-48
6.0958391e-48
5.1177769e-48
5.1463512e-48
5.5273716e-48
5.162286e-48
5.3901412e-48
5.1628092e-48
4.9223446e-48
5.1950308e-48
6.0443603e-48
5.5505262e-48
5.7209052e-48
5.3508501e-48
5.9076901e-48
5.525151e-48
5.5884114e-48
6.0652646e-48
4.909721e-48
4.9466578e-48
4.7656084e-48
5.0399414e-48
5.142811e-48
4.8711821e-48
4.8286225e-48
5.2082772e-48
3.346604e-48
3.6048334e-48
3.5925725e-48
3.5685775e-48
4.1956467e-48
4.088361e-48
4.3082053e-48
4.4115284e-48
4.4335111e-48
5.038687e-48
4.6057331e-48
4.3331401e-48
3.9071047e-48
3.495921e-48
3.3777436e-48
3.564342e-48
3.3103964e-48
3.4441232e-48
3.393497e-48
3.5250826e-48
3.4361406e-48
3.289881e-48
3.4526007e-48
3.6419654e-48
4.3781483e-48
4.1847001e-48
4.1225309e-48
4.359892e-48
4.0308993e-48
3.9862112e-48
4.1992554e-48
4.1737488e-48
1.8364096e-48
1.8263902e-48
1.9003437e-48
1.8675779e-48
2.3016278e-48
2.3870998e-48
2.1668081e-48
2.0016106e-48
2.8222387e-48
2.8494996e-48
2.5258036e-48
2.6131892e-48
2.6759611e-48
2.5618067e-48
2.4509758e-48
2.5396735e-48
2.1369564e-49
2.1048007e-49
2.4625715e-49
2.4737975e-49
3.8741363e-49
4.2673511e-49
2.1736097e-49
2.3640735e-49
2.3771321e-49
2.1262058e-49
1.11177e-48
1.6314899e-48
8.4053644e-49
7.7855236e-49
1.4253457e-48
1.5286649e-48
1.43918e-48
1.2868026e-48
8.1350224e-49
1.7385064e-48
1.1620572e-48
7.3694924e-49
1.1528363e-48
1.1300858e-48
1.2042342e-48
1.2962462e-48
2.2120613e-49
2.165511e-49
2.2209264e-49
2.3575646e-49
9.8900716e-49
1.2354382e-48
6.6002556e-49
8.2935586e-49
2.0926032e-49
2.1303658e-49
2.4119271e-49
2.4343168e-49
1.2863069e-48
1.8773315e-48
7.9322441e-49
7.9871575e-49
1.3604124e-48
1.2777744e-48
1.2576699e-48
1.3286087e-48
1.4533563e-48
1.140718e-48
1.2093912e-48
1.4723595e-48
4.4640819e-49
4.0037624e-49
5.1005929e-49
5.0834299e-49
2.7172494e-48
2.8592243e-48
2.5268803e-48
2.6502836e-48
1.9851775e-48
1.9963966e-48
1.899108e-48
1.8905862e-48
2.7467814e-48
2.7214501e-48
2.6010801e-48
2.6872526e-48
1.8603914e-48
1.8575896e-48
2.0669787e-48
2.0089943e-48
2.3214163e-49
2.1120376e-49
2.0970963e-49
2.451759e-49
2.2749412e-49
2.1053596e-49
2.1637231e-49
2.4674006e-49
4.3381691e-49
4.3691354e-49
2.0835552e-49
2.0690846e-49
2.3685999e-49
2.4054302e-49
4.3449377e-49
3.7240687e-49
2.1546379e-49
2.181414e-49
2.1757817e-49
2.2532322e-49
5.1739769e-49
4.8514442e-49
2.0434711e-48
2.0971585e-48
2.0089363e-48
1.8595513e-48
2.0125558e-48
2.1386288e-48
1.8933265e-48
2.0004778e-48
2.6363929e-48
2.3920391e-48
2.4934407e-48
2.6627207e-48
2.4999762e-48
2.4022523e-48
2.5945293e-48
2.5773848e-48
8.879366e-49
1.6553596e-48
6.0365006e-49
9.0192369e-49
1.070068e-48
1.9208473e-48
6.3688429e-49
8.1377774e-49
1.3244196e-48
1.1570963e-48
1.287948e-48
1.3503899e-48
1.2807723e-48
1.1543564e-48
1.4032139e-48
1.4161573e-48
1.3028811e-48
2.0365294e-48
7.9900391e-49
8.2910273e-49
1.3351333e-48
1.4436433e-48
1.4507751e-48
1.4209064e-48
1.3683044e-48
1.4495911e-48
1.4670564e-48
1.5793597e-48
8.6231472e-49
1.2707373e-48
8.4015057e-49
8.2966607e-49
2.2194927e-48
1.9208868e-48
1.8766527e-48
2.1601693e-48
2.029032e-48
2.1205733e-48
2.018968e-48
2.0236082e-48
2.6424097e-48
2.6538957e-48
2.6340728e-48
2.6506017e-48
2.6952827e-48
2.6145161e-48
2.7083655e-48
2.7459234e-48
5.5853666e-49
5.7780884e-49
5.7714752e-49
5.5154103e-49
1.3262177e-48
1.4580456e-48
3.3287193e-48
3.4702699e-48
3.6545346e-48
3.5782134e-48
1.500563e-48
1.5425813e-48
1.0220649e-48
1.0458506e-48
1.1033558e-48
1.0865729e-48
9.0820181e-49
9.6049849e-49
1.0251455e-48
9.7278066e-49
1.1108221e-48
1.1270594e-48
1.0472106e-48
1.0509143e-48
1.1632113e-48
1.1907228e-48
1.1857085e-48
1.1726554e-48
4.1390847e-48
4.2141806e-48
3.525732e-48
3.556974e-48
4.0541148e-48
4.0241819e-48
3.4052641e-48
3.5310598e-48
1.3704469e-48
1.4657746e-48
3.4193032e-48
3.5146942e-48
1.0836893e-48
1.0745951e-48
1.0068285e-48
1.0309571e-48
9.1997584e-49
9.8046673e-49
1.006323e-48
9.5181425e-49
1.0250788e-48
1.0604746e-48
1.0778463e-48
1.0687599e-48
1.1249241e-48
1.144656e-48
1.1648658e-48
1.1536064e-48
4.1276225e-48
4.139989e-48
3.4948802e-48
3.5441245e-48
3.9971409e-48
3.9825915e-48
3.3999447e-48
3.4871957e-48
9.5560105e-49
9.5429491e-49
8.8142654e-49
8.9768924e-49
9.0911143e-49
8.8782749e-49
8.0917039e-49
8.3880387e-49
8.5372555e-49
9.1971641e-49
9.513866e-49
8.8525991e-49
9.3818454e-49
9.9989366e-49
1.0177799e-48
9.5642164e-49
9.9211666e-49
1.0075382e-48
9.2960204e-49
9.3507459e-49
8.0171279e-49
8.6814161e-49
9.2354172e-49
8.574879e-49
8.384508e-49
9.1022549e-49
9.687491e-49
9.0626046e-49
9.8414177e-49
1.0546577e-48
1.0535555e-48
9.8645848e-49
1.0080555e-48
1.0367216e-48
1.0979816e-48
1.077215e-48
4.0893745e-48
4.0062275e-48
3.3945471e-48
3.5507486e-48
9.0414606e-49
9.6511654e-49
1.0205597e-48
9.6178019e-49
1.1301358e-48
1.1290868e-48
1.0575044e-48
1.0788256e-48
1.1800009e-48
1.2005177e-48
1.2146322e-48
1.2051543e-48
4.2107164e-48
4.2388429e-48
3.5627991e-48
3.6190706e-48
1.0680605e-48
1.0997585e-48
1.1543652e-48
1.1331107e-48
9.6903568e-49
1.0339744e-48
1.0939858e-48
1.0266903e-48
8.6015747e-49
9.3418225e-49
9.9028135e-49
9.1264504e-49
8.1973667e-49
8.8185172e-49
9.3955529e-49
8.700743e-49
9.8974572e-49
9.9664294e-49
9.1925262e-49
9.3158466e-49
9.8306711e-49
1.0447835e-48
1.0594918e-48
9.9794003e-49
9.245116e-49
9.8096677e-49
1.0522261e-48
9.7320797e-49
9.6997439e-49
9.2377662e-49
8.5719953e-49
9.1100357e-49
9.1991725e-49
9.9319108e-49
9.191172e-49
8.7602649e-49
7.5523661e-49
8.2912283e-49
8.8228368e-49
8.0534968e-49
7.1179159e-49
7.8009605e-49
8.2412963e-49
7.549778e-49
8.669868e-49
8.9026152e-49
8.105011e-49
8.0935745e-49
8.6787679e-49
9.3309759e-49
9.3057279e-49
8.6676389e-49
6.7539253e-49
7.4929486e-49
7.8692523e-49
7.1030346e-49
6.3643399e-49
7.0816117e-49
7.4367877e-49
6.6672696e-49
7.2806037e-49
7.5932589e-49
6.8271954e-49
6.7019656e-49
7.4681671e-49
7.9661091e-49
7.9368879e-49
7.3711492e-49
7.7082851e-49
8.49801e-49
8.7468227e-49
7.9361112e-49
7.3596304e-49
8.1014722e-49