/*--------------------------------*- C++ -*----------------------------------*\
  =========                 |
  \\      /  F ield         | OpenFOAM: The Open Source CFD Toolbox
   \\    /   O peration     | Website:  https://openfoam.org
    \\  /    A nd           | Version:  7
     \\/     M anipulation  |
\*---------------------------------------------------------------------------*/
FoamFile
{
    version     2.0;
    format      ascii;
    class       volScalarField;
    location    "1000";
    object      p;
}
// * * * * * * * * * * * * * * * * * * * * * * * * * * * * * * * * * * * * * //

dimensions      [0 2 -2 0 0 0 0];

internalField   nonuniform List<scalar> 
34387
(
-6.2751871e+95
-6.3072075e+95
-6.0459004e+95
-6.0234431e+95
-6.2124423e+95
-6.3602229e+95
-6.3341528e+95
-6.0861107e+95
-6.066504e+95
-6.5240676e+95
-6.5146664e+95
-6.4071317e+95
-6.3910473e+95
-6.2896636e+95
-6.2757249e+95
-6.4420407e+95
-6.542412e+95
-6.5331022e+95
-6.423454e+95
-6.3218161e+95
-6.3036608e+95
-5.7950647e+95
-6.2005998e+95
-6.0558199e+95
-6.0442715e+95
-6.1854971e+95
-6.17409e+95
-6.0352709e+95
-6.0271587e+95
-6.1617827e+95
-5.7795278e+95
-5.5195849e+95
-5.5096331e+95
-5.201161e+95
-6.4013357e+95
-6.3820829e+95
-6.1169778e+95
-6.1028508e+95
-6.0865691e+95
-6.1016475e+95
-6.326641e+95
-6.3469063e+95
-6.4988357e+95
-6.3693802e+95
-6.356147e+95
-6.483751e+95
-6.4571148e+95
-6.4704975e+95
-6.3329931e+95
-6.3446402e+95
-6.2431806e+95
-6.0943333e+95
-6.0825721e+95
-5.8244282e+95
-6.2311188e+95
-5.809733e+95
-6.2217174e+95
-6.0743236e+95
-6.0667082e+95
-6.2111778e+95
-5.538528e+95
-5.5288335e+95
-6.5490812e+95
-6.5440112e+95
-6.4753478e+95
-6.5188874e+95
-6.5240205e+95
-6.5395667e+95
-6.4667614e+95
-6.5109419e+95
-6.5145595e+95
-6.4180487e+95
-6.4256189e+95
-6.5078132e+95
-6.4600402e+95
-6.503972e+95
-6.4529073e+95
-6.411445e+95
-6.4047389e+95
-6.3783862e+95
-6.328507e+95
-6.3714595e+95
-6.3219602e+95
-6.311268e+95
-6.316882e+95
-6.3650065e+95
-6.3588713e+95
-6.511796e+95
-6.501085e+95
-6.4496258e+95
-6.4596022e+95
-6.577887e+95
-6.5674346e+95
-6.5625962e+95
-6.5420413e+95
-6.4926762e+95
-6.537266e+95
-6.5580477e+95
-6.5535157e+95
-6.4838868e+95
-6.5283898e+95
-6.5328571e+95
-6.4416165e+95
-6.4329345e+95
-6.3606123e+95
-6.4109624e+95
-6.4016543e+95
-6.3513469e+95
-6.3349086e+95
-6.3422199e+95
-6.3930009e+95
-6.3847258e+95
-5.7019704e+95
-5.8999376e+95
-5.8882604e+95
-5.6882514e+95
-6.3079286e+95
-6.248437e+95
-6.298441e+95
-6.2384249e+95
-6.0903884e+95
-6.1008277e+95
-6.1838359e+95
-6.1742157e+95
-6.0858903e+95
-6.1678857e+95
-6.1637463e+95
-6.0837134e+95
-6.2297274e+95
-6.2890422e+95
-6.2821684e+95
-6.2240497e+95
-6.2124331e+95
-6.2182939e+95
-6.2760589e+95
-6.2699142e+95
-6.079509e+95
-6.073739e+95
-5.8810303e+95
-6.1527553e+95
-6.1581934e+95
-6.0709726e+95
-6.0692852e+95
-5.8769921e+95
-6.1456089e+95
-6.1490277e+95
-6.2652591e+95
-6.2077783e+95
-6.2039989e+95
-6.2605042e+95
-5.6824861e+95
-5.6841015e+95
-5.4473812e+95
-5.4400667e+95
-6.6568936e+95
-5.1715569e+95
-5.2083232e+95
-6.540682e+95
-6.5309931e+95
-6.4062066e+95
-6.3965104e+95
-6.5210099e+95
-6.5112791e+95
-6.3885885e+95
-6.3795828e+95
-6.2748766e+95
-6.1209796e+95
-6.1129433e+95
-6.2665452e+95
-5.8470471e+95
-6.2601699e+95
-6.1072352e+95
-6.1023708e+95
-6.251984e+95
-5.8363803e+95
-5.5535354e+95
-5.5464291e+95
-6.5662695e+95
-6.5746467e+95
-6.5182895e+95
-6.5093147e+95
-6.4011792e+95
-6.4092715e+95
-6.4646778e+95
-6.4560205e+95
-6.3890801e+95
-6.3948731e+95
-6.4490344e+95
-6.4427934e+95
-6.49516e+95
-6.5016645e+95
-6.5586792e+95
-6.5516408e+95
-6.5298963e+95
-6.5209899e+95
-6.4769338e+95
-6.4690099e+95
-6.5369257e+95
-6.5448329e+95
-6.4828544e+95
-6.4892981e+95
-6.372585e+95
-6.426005e+95
-6.4193314e+95
-6.3670527e+95
-6.3773879e+95
-6.3830823e+95
-6.4370114e+95
-6.4311756e+95
-6.2816294e+95
-6.2888992e+95
-6.3517664e+95
-6.3441959e+95
-5.9322023e+95
-6.1390303e+95
-6.2232741e+95
-6.1283263e+95
-6.2152535e+95
-6.1207531e+95
-6.1230135e+95
-6.2089264e+95
-6.204318e+95
-5.9199595e+95
-5.7264024e+95
-5.7126196e+95
-6.3378207e+95
-6.2742586e+95
-6.3323338e+95
-6.2690932e+95
-5.9128142e+95
-5.9083718e+95
-5.706449e+95
-5.707701e+95
-6.2603203e+95
-6.2650355e+95
-6.3270488e+95
-6.3215816e+95
-6.1121227e+95
-6.1173712e+95
-6.2004318e+95
-6.1962126e+95
-6.109291e+95
-6.1934731e+95
-6.1912404e+95
-6.1070914e+95
-6.254474e+95
-6.2565287e+95
-6.3172169e+95
-6.3130869e+95
-5.4626131e+95
-5.4542603e+95
-6.5467175e+95
-6.5443137e+95
-6.5610662e+95
-6.5585186e+95
-6.5564174e+95
-6.554164e+95
-6.5420238e+95
-6.539752e+95
-6.5021145e+95
-6.4796695e+95
-6.4749299e+95
-6.4970173e+95
-6.5215012e+95
-6.5260688e+95
-6.5376933e+95
-6.5355205e+95
-6.5520131e+95
-6.5496622e+95
-6.4682908e+95
-6.4711393e+95
-6.4929654e+95
-6.4897495e+95
-6.5137438e+95
-6.5173884e+95
-6.4277111e+95
-6.4302662e+95
-6.4506687e+95
-6.4480358e+95
-6.4335052e+95
-6.4374984e+95
-6.4585707e+95
-6.4541553e+95
-6.5103174e+95
-6.4870296e+95
-6.4658954e+95
-6.4624109e+95
-6.4833278e+95
-6.506886e+95
-6.4799199e+95
-6.4591354e+95
-6.4457654e+95
-6.4251894e+95
-6.4218486e+95
-6.4423352e+95
-6.4391094e+95
-6.4188071e+95
-6.4150673e+95
-6.4170425e+95
-6.3962092e+95
-6.3928451e+95
-6.4133365e+95
-6.3763184e+95
-6.3550458e+95
-6.3517976e+95
-6.3729509e+95
-6.4104309e+95
-6.3901196e+95
-6.3874276e+95
-6.4077813e+95
-6.3702228e+95
-6.3492004e+95
-6.3474886e+95
-6.3679881e+95
-6.3375481e+95
-6.3403979e+95
-6.3602522e+95
-6.3570404e+95
-6.3429131e+95
-6.3458762e+95
-6.3656907e+95
-6.3626975e+95
-6.404938e+95
-6.3845089e+95
-6.3814695e+95
-6.4015928e+95
-6.3756277e+95
-6.3789488e+95
-6.3988857e+95
-6.395457e+95
-6.5395606e+95
-6.5336293e+95
-6.5163869e+95
-6.5102435e+95
-6.5237775e+95
-6.5283041e+95
-6.5049337e+95
-6.500782e+95
-6.4571156e+95
-6.460763e+95
-6.4790179e+95
-6.482909e+95
-6.4657518e+95
-6.4722043e+95
-6.4944149e+95
-6.4880725e+95
-6.5779459e+95
-6.5756621e+95
-6.5876265e+95
-6.5899606e+95
-6.5647898e+95
-6.5625104e+95
-6.579326e+95
-6.5769245e+95
-6.5749056e+95
-6.5725972e+95
-6.5603678e+95
-6.5580672e+95
-6.5439999e+95
-6.5199753e+95
-6.4928931e+95
-6.4974381e+95
-6.5153026e+95
-6.5396973e+95
-6.5558095e+95
-6.5534709e+95
-6.5702466e+95
-6.5677544e+95
-6.5657408e+95
-6.563431e+95
-6.5513162e+95
-6.5489898e+95
-6.5111267e+95
-6.4887106e+95
-6.4841237e+95
-6.5065754e+95
-6.5307219e+95
-6.5351672e+95
-6.4760059e+95
-6.4540375e+95
-6.4493408e+95
-6.4714064e+95
-6.467045e+95
-6.4449108e+95
-6.4410171e+95
-6.4626658e+95
-6.4082745e+95
-6.387158e+95
-6.3815716e+95
-6.4022706e+95
-6.4223881e+95
-6.4285718e+95
-6.450519e+95
-6.4440397e+95
-6.4393343e+95
-6.4177904e+95
-6.4141372e+95
-6.4358115e+95
-6.3976592e+95
-6.3769605e+95
-6.3732471e+95
-6.3940157e+95
-6.3573307e+95
-6.360063e+95
-6.3812625e+95
-6.3784922e+95
-6.3638395e+95
-6.3690239e+95
-6.3903204e+95
-6.3852898e+95
-6.4325575e+95
-6.4106704e+95
-6.4057888e+95
-6.4276809e+95
-6.3984709e+95
-6.4014166e+95
-6.4232212e+95
-6.419853e+95
-5.6733557e+95
-6.0012595e+95
-5.9897899e+95
-5.866181e+95
-5.851791e+95
-5.9826816e+95
-5.9845266e+95
-5.84533e+95
-5.845552e+95
-5.6593181e+95
-6.3656176e+95
-6.3429007e+95
-6.3377168e+95
-6.3602479e+95
-6.3203065e+95
-6.2950792e+95
-6.2892894e+95
-6.3148767e+95
-6.3556807e+95
-6.3330153e+95
-6.3514727e+95
-6.3281882e+95
-6.3097454e+95
-6.2838366e+95
-6.2791053e+95
-6.3049187e+95
-6.1323918e+95
-6.1356371e+95
-6.1854573e+95
-6.1814173e+95
-6.1416833e+95
-6.1505884e+95
-6.1984082e+95
-6.1913564e+95
-6.2667604e+95
-6.2340229e+95
-6.2274539e+95
-6.2605357e+95
-6.2173809e+95
-6.2215987e+95
-6.2548988e+95
-6.2504522e+95
-6.1272854e+95
-6.1306587e+95
-6.1786767e+95
-6.1764868e+95
-6.2464091e+95
-6.2136028e+95
-6.2114444e+95
-6.2427877e+95
-6.2401623e+95
-6.2096297e+95
-6.2383904e+95
-6.2088258e+95
-6.1756517e+95
-6.1272254e+95
-6.174849e+95
-6.1272413e+95
-6.3002175e+95
-6.2746189e+95
-6.2700791e+95
-6.2950573e+95
-6.3181818e+95
-6.3235461e+95
-6.3470032e+95
-6.3416138e+95
-6.3378834e+95
-6.3143803e+95
-6.3117178e+95
-6.3352398e+95
-6.2912957e+95
-6.2667188e+95
-6.2645197e+95
-6.2888427e+95
-6.2550487e+95
-6.2563478e+95
-6.2814198e+95
-6.2801492e+95
-6.2588511e+95
-6.2621531e+95
-6.2867616e+95
-6.2837734e+95
-6.3328441e+95
-6.3094389e+95
-6.3064645e+95
-6.3296344e+95
-6.3028557e+95
-6.3041247e+95
-6.3271806e+95
-6.3258742e+95
-5.979407e+95
-6.1253263e+95
-6.1716219e+95
-6.1678684e+95
-6.119508e+95
-5.973429e+95
-6.1168137e+95
-6.1644554e+95
-6.1636193e+95
-6.1161041e+95
-5.8425626e+95
-5.835546e+95
-6.1972388e+95
-6.1978069e+95
-6.2288844e+95
-6.2277292e+95
-6.2014328e+95
-6.2046994e+95
-6.235297e+95
-6.2316272e+95
-5.9716859e+95
-6.115763e+95
-6.1622638e+95
-6.1616757e+95
-6.1139703e+95
-5.9726059e+95
-6.1145735e+95
-6.1607253e+95
-6.1603454e+95
-6.1148793e+95
-5.8347108e+95
-5.8407912e+95
-6.1929886e+95
-6.1932011e+95
-6.2235728e+95
-6.2225491e+95
-6.194882e+95
-6.1952805e+95
-6.2263866e+95
-6.2248258e+95
-6.3247142e+95
-6.3015824e+95
-6.2992036e+95
-6.3217926e+95
-6.2786893e+95
-6.2535941e+95
-6.2516974e+95
-6.2765357e+95
-6.2489856e+95
-6.2503262e+95
-6.2748678e+95
-6.2732077e+95
-6.3194458e+95
-6.297163e+95
-6.2951725e+95
-6.3170996e+95
-5.654336e+95
-5.6565715e+95
-5.424582e+95
-5.4178606e+95
-6.377798e+95
-6.6510093e+95
-6.793767e+95
-6.7684438e+95
-6.6282835e+95
-6.8399859e+95
-6.8141513e+95
-5.1768574e+95
-5.4347518e+95
-5.4427727e+95
-5.215075e+95
-6.6130475e+95
-6.6084347e+95
-6.554354e+95
-6.5498354e+95
-6.6042321e+95
-6.5999912e+95
-6.5424549e+95
-6.5459076e+95
-6.4992477e+95
-6.4420332e+95
-6.4361798e+95
-6.4941236e+95
-6.4317089e+95
-6.4902853e+95
-6.4874971e+95
-6.4292098e+95
-6.5905619e+95
-6.5956305e+95
-6.5378813e+95
-6.5331852e+95
-6.5860647e+95
-6.5808738e+95
-6.5251246e+95
-6.5296651e+95
-6.4215158e+95
-6.4255621e+95
-6.482875e+95
-6.4785008e+95
-6.4184487e+95
-6.4754626e+95
-6.4716086e+95
-6.4150158e+95
-6.3832011e+95
-6.3175834e+95
-6.312026e+95
-6.3767484e+95
-6.1571489e+95
-6.1639272e+95
-6.2499131e+95
-6.2447407e+95
-5.9548721e+95
-6.241232e+95
-6.1530304e+95
-6.1512153e+95
-6.2374577e+95
-5.9455843e+95
-6.3073995e+95
-6.304266e+95
-6.372014e+95
-6.3694782e+95
-5.7449988e+95
-5.7333633e+95
-6.3015537e+95
-6.36646e+95
-6.2986392e+95
-6.3630587e+95
-6.1453934e+95
-6.1488831e+95
-6.2347334e+95
-5.9406139e+95
-6.2320046e+95
-6.1444781e+95
-6.144606e+95
-5.9385958e+95
-6.2304425e+95
-6.2284861e+95
-6.2935492e+95
-6.2958063e+95
-6.359862e+95
-6.356953e+95
-5.7285505e+95
-5.7313735e+95
-5.4759552e+95
-5.4691886e+95
-6.5977014e+95
-6.5726223e+95
-6.5687684e+95
-6.5943439e+95
-6.6051303e+95
-6.5805796e+95
-6.5764574e+95
-6.6012338e+95
-6.557162e+95
-6.5331233e+95
-6.5281938e+95
-6.5526802e+95
-6.5484412e+95
-6.5236772e+95
-6.5195275e+95
-6.5443928e+95
-6.4250342e+95
-6.4287274e+95
-6.4526779e+95
-6.4486022e+95
-6.4331315e+95
-6.4385963e+95
-6.4626332e+95
-6.4571094e+95
-6.5095088e+95
-6.4852471e+95
-6.479826e+95
-6.5041716e+95
-6.4710494e+95
-6.4752038e+95
-6.4995643e+95
-6.4954801e+95
-6.4131995e+95
-6.4155739e+95
-6.4383921e+95
-6.4363395e+95
-6.4181857e+95
-6.4219988e+95
-6.44506e+95
-6.4411876e+95
-6.4915433e+95
-6.4671258e+95
-6.4631711e+95
-6.4872233e+95
-6.4841993e+95
-6.460188e+95
-6.4582974e+95
-6.482212e+95
-6.5058614e+95
-6.5081363e+95
-6.5330964e+95
-6.5304113e+95
-6.5112528e+95
-6.5155802e+95
-6.5405908e+95
-6.5363159e+95
-6.5911836e+95
-6.5651629e+95
-6.5609909e+95
-6.5870716e+95
-6.5546195e+95
-6.5576164e+95
-6.5835593e+95
-6.5801353e+95
-6.5592285e+95
-6.5539351e+95
-6.5362483e+95
-6.5311332e+95
-6.5440065e+95
-6.5488118e+95
-6.5210333e+95
-6.5258465e+95
-6.5142031e+95
-6.4914733e+95
-6.5090902e+95
-6.4867996e+95
-6.4822287e+95
-6.5040874e+95
-6.499327e+95
-6.4775315e+95
-6.5633386e+95
-6.567417e+95
-6.5398247e+95
-6.543373e+95
-6.5470441e+95
-6.5513008e+95
-6.5763067e+95
-6.5714924e+95
-6.4943063e+95
-6.4968485e+95
-6.5204474e+95
-6.5173414e+95
-6.4998084e+95
-6.5033631e+95
-6.5275384e+95
-6.5236595e+95
-6.3981518e+95
-6.4013938e+95
-6.4243747e+95
-6.420837e+95
-6.469085e+95
-6.4460357e+95
-6.4423494e+95
-6.4648107e+95
-6.4608653e+95
-6.4387852e+95
-6.456071e+95
-6.4339764e+95
-6.4173411e+95
-6.3949e+95
-6.3913752e+95
-6.4131251e+95
-6.403177e+95
-6.4045471e+95
-6.4279684e+95
-6.4262942e+95
-6.4069987e+95
-6.4104327e+95
-6.4337564e+95
-6.4304104e+95
-6.4526418e+95
-6.4559173e+95
-6.4798482e+95
-6.4763723e+95
-6.473623e+95
-6.4500234e+95
-6.4481992e+95
-6.4715296e+95
-6.3229203e+95
-6.3263135e+95
-6.3536592e+95
-6.3503457e+95
-6.330869e+95
-6.3357872e+95
-6.3627956e+95
-6.3579399e+95
-6.4138516e+95
-6.3877588e+95
-6.3826972e+95
-6.4084681e+95
-6.4040997e+95
-6.3783764e+95
-6.3751874e+95
-6.40084e+95
-6.0357288e+95
-5.895747e+95
-5.8813469e+95
-6.0237721e+95
-6.1791583e+95
-6.1874848e+95
-6.2365373e+95
-6.2303976e+95
-6.2729158e+95
-6.306338e+95
-6.3011554e+95
-6.2673521e+95
-6.2254792e+95
-6.1733111e+95
-6.1697733e+95
-6.2210381e+95
-6.2584966e+95
-6.2626137e+95
-6.2964057e+95
-6.2929596e+95
-6.0163495e+95
-6.1646767e+95
-6.1641414e+95
-6.2137409e+95
-6.2132833e+95
-6.0180186e+95
-6.1640295e+95
-6.1669855e+95
-6.2179794e+95
-6.2151394e+95
-6.2896929e+95
-6.2553438e+95
-6.2520497e+95
-6.2859349e+95
-6.2490282e+95
-6.2494305e+95
-6.2832223e+95
-6.282208e+95
-5.8744341e+95
-5.8746868e+95
-5.6960363e+95
-5.6818311e+95
-6.3981624e+95
-6.3724105e+95
-6.3686831e+95
-6.3942509e+95
-6.3470003e+95
-6.3195048e+95
-6.3156896e+95
-6.3432698e+95
-6.3917025e+95
-6.3659837e+95
-6.3637184e+95
-6.3892635e+95
-6.3405761e+95
-6.312973e+95
-6.3115334e+95
-6.3386694e+95
-6.0135041e+95
-6.0075955e+95
-5.8718642e+95
-5.8648311e+95
-6.0056629e+95
-5.8638585e+95
-5.8699255e+95
-6.0061341e+95
-5.6764185e+95
-5.6784258e+95
-6.3033443e+95
-6.3041635e+95
-6.329901e+95
-6.3309568e+95
-6.3064262e+95
-6.3095011e+95
-6.3364015e+95
-6.3331517e+95
-6.3576283e+95
-6.3609723e+95
-6.3864169e+95
-6.3828556e+95
-6.3804218e+95
-6.3552497e+95
-6.3542089e+95
-6.3793305e+95
-6.1548426e+95
-6.1557053e+95
-6.2054532e+95
-6.2047845e+95
-6.1579849e+95
-6.1634578e+95
-6.2113534e+95
-6.2079448e+95
-6.2800713e+95
-6.2465322e+95
-6.2439085e+95
-6.2771201e+95
-6.2746933e+95
-6.2410617e+95
-6.2411095e+95
-6.2742853e+95
-6.1529808e+95
-6.1541819e+95
-6.2042109e+95
-6.2037499e+95
-6.2403326e+95
-6.2406627e+95
-6.2736257e+95
-6.2727324e+95
-6.2721071e+95
-6.2405565e+95
-6.2386245e+95
-6.2705851e+95
-6.2041219e+95
-6.1535228e+95
-6.1543469e+95
-6.2026405e+95
-6.2979754e+95
-6.2992156e+95
-6.3243528e+95
-6.3228603e+95
-6.3007411e+95
-6.3022392e+95
-6.3285502e+95
-6.326398e+95
-6.3778065e+95
-6.352786e+95
-6.3502274e+95
-6.3747517e+95
-6.3456237e+95
-6.347625e+95
-6.371787e+95
-6.3690502e+95
-5.4388788e+95
-5.4308176e+95
-6.5475045e+95
-6.5452549e+95
-6.5625963e+95
-6.5602579e+95
-6.5581764e+95
-6.5560024e+95
-6.5431371e+95
-6.5409807e+95
-6.5059532e+95
-6.4857866e+95
-6.4814829e+95
-6.5013361e+95
-6.5166155e+95
-6.5188778e+95
-6.5290253e+95
-6.5268499e+95
-6.5208877e+95
-6.5232111e+95
-6.5333088e+95
-6.5310506e+95
-6.5388976e+95
-6.5368682e+95
-6.5538517e+95
-6.5516611e+95
-6.4749601e+95
-6.477815e+95
-6.497435e+95
-6.4941515e+95
-6.5092098e+95
-6.5111199e+95
-6.5211451e+95
-6.519187e+95
-6.5127968e+95
-6.5147535e+95
-6.5248898e+95
-6.5229312e+95
-6.43769e+95
-6.4400474e+95
-6.4584239e+95
-6.455931e+95
-6.443191e+95
-6.4465163e+95
-6.4657345e+95
-6.461845e+95
-6.4911991e+95
-6.5058807e+95
-6.5075434e+95
-6.517347e+95
-6.5156301e+95
-6.47237e+95
-6.4695156e+95
-6.4880064e+95
-6.5024473e+95
-6.5044234e+95
-6.5140561e+95
-6.5120648e+95
-6.4843421e+95
-6.4659228e+95
-6.4536648e+95
-6.4353589e+95
-6.4326484e+95
-6.4509531e+95
-6.4476193e+95
-6.4294936e+95
-6.4252204e+95
-6.4275303e+95
-6.4092243e+95
-6.4071174e+95
-6.4247347e+95
-6.3912708e+95
-6.3734445e+95
-6.3715911e+95
-6.3894198e+95
-6.422017e+95
-6.4045807e+95
-6.4019619e+95
-6.4194432e+95
-6.3872613e+95
-6.3696039e+95
-6.3673528e+95
-6.3845733e+95
-6.357604e+95
-6.3611561e+95
-6.3770155e+95
-6.3736332e+95
-6.3632335e+95
-6.3648576e+95
-6.3814713e+95
-6.3794047e+95
-6.4169159e+95
-6.3988609e+95
-6.3964368e+95
-6.414232e+95
-6.3901251e+95
-6.3937868e+95
-6.4113323e+95
-6.4073452e+95
-6.5430956e+95
-6.5376341e+95
-6.5223886e+95
-6.5166719e+95
-6.5278248e+95
-6.5324312e+95
-6.511343e+95
-6.50714e+95
-6.466463e+95
-6.4699995e+95
-6.4864698e+95
-6.4902682e+95
-6.475271e+95
-6.4813428e+95
-6.5016228e+95
-6.4956641e+95
-6.5800746e+95
-6.5777527e+95
-6.5897279e+95
-6.5920409e+95
-6.5655372e+95
-6.5634256e+95
-6.580838e+95
-6.5786301e+95
-6.5765787e+95
-6.574291e+95
-6.5613867e+95
-6.5591223e+95
-6.5237045e+95
-6.5387921e+95
-6.5409415e+95
-6.55118e+95
-6.549069e+95
-6.4995572e+95
-6.5034946e+95
-6.5195321e+95
-6.534548e+95
-6.5369274e+95
-6.5471274e+95
-6.544799e+95
-6.5567004e+95
-6.5544609e+95
-6.571886e+95
-6.5695551e+95
-6.5674106e+95
-6.5650554e+95
-6.5523167e+95
-6.5499647e+95
-6.5152235e+95
-6.495199e+95
-6.4905644e+95
-6.5106049e+95
-6.5254562e+95
-6.5280108e+95
-6.5381399e+95
-6.5356828e+95
-6.5300455e+95
-6.5323595e+95
-6.5424886e+95
-6.5402203e+95
-6.483289e+95
-6.4634613e+95
-6.4593899e+95
-6.4793661e+95
-6.4749916e+95
-6.4548781e+95
-6.4505681e+95
-6.4703309e+95
-6.4228502e+95
-6.4046925e+95
-6.3994723e+95
-6.4171094e+95
-6.4356599e+95
-6.4414887e+95
-6.4611028e+95
-6.4550875e+95
-6.4499334e+95
-6.4306153e+95
-6.4270614e+95
-6.4464264e+95
-6.4120785e+95
-6.3944394e+95
-6.3906751e+95
-6.4083534e+95
-6.3750172e+95
-6.377435e+95
-6.3958012e+95
-6.3930934e+95
-6.3821946e+95
-6.3870834e+95
-6.4052844e+95
-6.4006754e+95
-6.4435758e+95
-6.4240468e+95
-6.4196359e+95
-6.4392779e+95
-6.4116782e+95
-6.4148739e+95
-6.4346313e+95
-6.4308319e+95
-5.6600347e+95
-5.8692253e+95
-5.8535612e+95
-6.0898438e+95
-6.0035658e+95
-5.9904701e+95
-6.0795334e+95
-6.0730852e+95
-5.9832725e+95
-5.9820147e+95
-6.0703391e+95
-6.0638114e+95
-5.9727867e+95
-5.9779542e+95
-6.0655413e+95
-6.0684219e+95
-5.9794303e+95
-5.9733858e+95
-6.0640466e+95
-5.846437e+95
-5.8461405e+95
-5.6452329e+95
-6.3862762e+95
-6.3682057e+95
-6.3639329e+95
-6.381487e+95
-6.3498202e+95
-6.3307419e+95
-6.3256027e+95
-6.3453111e+95
-6.3767529e+95
-6.3590482e+95
-6.3726522e+95
-6.3544489e+95
-6.3403512e+95
-6.3202123e+95
-6.3149802e+95
-6.3351706e+95
-6.1778277e+95
-6.1811076e+95
-6.2348878e+95
-6.2306889e+95
-6.1879762e+95
-6.1975931e+95
-6.2492087e+95
-6.2414689e+95
-6.3083236e+95
-6.2824316e+95
-6.2758314e+95
-6.3024093e+95
-6.264866e+95
-6.2696819e+95
-6.2966721e+95
-6.2915873e+95
-6.1720146e+95
-6.1750448e+95
-6.2271802e+95
-6.2250134e+95
-6.2871034e+95
-6.2606892e+95
-6.2580381e+95
-6.2829498e+95
-6.2793321e+95
-6.2560711e+95
-6.2773647e+95
-6.2546825e+95
-6.2240894e+95
-6.1718841e+95
-6.2233489e+95
-6.1726227e+95
-6.3301332e+95
-6.3099469e+95
-6.3049832e+95
-6.3247856e+95
-6.344194e+95
-6.3494119e+95
-6.3683517e+95
-6.3632551e+95
-6.3584627e+95
-6.3393503e+95
-6.3365974e+95
-6.355948e+95
-6.3196872e+95
-6.3001323e+95
-6.2976327e+95
-6.3169348e+95
-6.2912309e+95
-6.2925374e+95
-6.3124682e+95
-6.3112092e+95
-6.2943524e+95
-6.2966066e+95
-6.3160213e+95
-6.3141431e+95
-6.3545947e+95
-6.3352998e+95
-6.3335664e+95
-6.3527385e+95
-6.3305374e+95
-6.3318998e+95
-6.3509064e+95
-6.3491519e+95
-6.0640128e+95
-5.976716e+95
-5.9676816e+95
-6.0570896e+95
-6.1693517e+95
-6.2196243e+95
-6.2154968e+95
-6.1635488e+95
-6.0541099e+95
-5.9642309e+95
-5.9664118e+95
-6.0541776e+95
-6.1602196e+95
-6.2119855e+95
-6.2116047e+95
-6.1603342e+95
-5.8436708e+95
-5.8367775e+95
-6.2436238e+95
-6.2445743e+95
-6.2698787e+95
-6.2685246e+95
-6.2473964e+95
-6.25094e+95
-6.2750967e+95
-6.2719914e+95
-6.0541922e+95
-5.9662386e+95
-5.9627383e+95
-6.0519142e+95
-6.1598234e+95
-6.2106405e+95
-6.21064e+95
-6.1590908e+95
-6.0530769e+95
-5.9642638e+95
-5.9712487e+95
-6.0556846e+95
-6.1601829e+95
-6.2103644e+95
-6.2107143e+95
-6.1616685e+95
-5.8366285e+95
-5.8428301e+95
-6.2413072e+95
-6.2418686e+95
-6.2663615e+95
-6.2650101e+95
-6.242361e+95
-6.2426356e+95
-6.267792e+95
-6.2669081e+95
-6.3473912e+95
-6.3295171e+95
-6.3280578e+95
-6.3459278e+95
-6.3104007e+95
-6.2903024e+95
-6.289206e+95
-6.3090774e+95
-6.2865863e+95
-6.2882447e+95
-6.3076951e+95
-6.3056395e+95
-6.344094e+95
-6.326283e+95
-6.3236428e+95
-6.3408734e+95
-5.6403e+95
-5.6430835e+95
-5.6603632e+95
-5.6451028e+95
-5.6396888e+95
-5.6424515e+95
-5.4915606e+95
-5.528345e+95
-5.5169381e+95
-5.4813343e+95
-6.0474089e+95
-6.0626257e+95
-6.4450121e+95
-6.4132103e+95
-6.0885409e+95
-6.3484272e+95
-6.365799e+95
-6.5150435e+95
-6.4949849e+95
-6.7074913e+95
-6.6843999e+95
-6.0731741e+95
-6.3316738e+95
-6.8509165e+95
-6.8369478e+95
-6.8242404e+95
-6.8872765e+95
-6.8724176e+95
-6.8109314e+95
-5.1828692e+95
-5.4592173e+95
-5.450075e+95
-5.6634736e+95
-5.6848243e+95
-5.6856523e+95
-5.6653834e+95
-5.7060449e+95
-5.6913287e+95
-5.6694082e+95
-5.6848042e+95
-6.6126164e+95
-6.6150839e+95
-6.6412952e+95
-6.6388999e+95
-6.6110183e+95
-6.637222e+95
-6.6360842e+95
-6.6099496e+95
-6.5901763e+95
-6.5648812e+95
-6.5621024e+95
-6.5875518e+95
-6.5595041e+95
-6.5604847e+95
-6.5850356e+95
-6.5860946e+95
-6.6343388e+95
-6.6082674e+95
-6.631497e+95
-6.6055597e+95
-6.6013731e+95
-6.6030093e+95
-6.6288243e+95
-6.6269428e+95
-6.5525022e+95
-6.5539442e+95
-6.5786672e+95
-6.5771328e+95
-6.5558492e+95
-6.5580916e+95
-6.5834787e+95
-6.5809421e+95
-6.5403435e+95
-6.5151095e+95
-6.5120104e+95
-6.5373002e+95
-6.4915764e+95
-6.4673372e+95
-6.463793e+95
-6.488293e+95
-6.4590636e+95
-6.4610421e+95
-6.4861028e+95
-6.4845662e+95
-6.5354549e+95
-6.5099014e+95
-6.5087169e+95
-6.534492e+95
-6.4555425e+95
-6.4572273e+95
-6.4829796e+95
-6.4813256e+95
-6.5057086e+95
-6.5073441e+95
-6.5332017e+95
-6.531207e+95
-6.5298962e+95
-6.5047676e+95
-6.5035194e+95
-6.5284843e+95
-6.4803813e+95
-6.4546619e+95
-6.454245e+95
-6.4796026e+95
-6.6207178e+95
-6.5955461e+95
-6.5936712e+95
-6.6187089e+95
-6.6252509e+95
-6.5999306e+95
-6.5975369e+95
-6.6227925e+95
-6.5757295e+95
-6.5508075e+95
-6.5480879e+95
-6.5732034e+95
-6.5711753e+95
-6.5460591e+95
-6.5449629e+95
-6.5696312e+95
-6.6165326e+95
-6.591621e+95
-6.5885529e+95
-6.6132822e+95
-6.5830966e+95
-6.5855598e+95
-6.6102816e+95
-6.6077264e+95
-6.5363074e+95
-6.5387459e+95
-6.5622731e+95
-6.5598321e+95
-6.541166e+95
-6.543642e+95
-6.5679434e+95
-6.5650614e+95
-6.447155e+95
-6.4476737e+95
-6.472645e+95
-6.4720232e+95
-6.4496559e+95
-6.4524223e+95
-6.4774569e+95
-6.4746745e+95
-6.5263244e+95
-6.5011616e+95
-6.4982491e+95
-6.5233891e+95
-6.495544e+95
-6.4962285e+95
-6.5213879e+95
-6.5206194e+95
-6.445299e+95
-6.4466214e+95
-6.4714432e+95
-6.4699431e+95
-6.5196957e+95
-6.4948267e+95
-6.4932621e+95
-6.5175949e+95
-6.5157512e+95
-6.491752e+95
-6.4891253e+95
-6.5131851e+95
-6.4683734e+95
-6.4438937e+95
-6.441997e+95
-6.4661453e+95
-6.4429421e+95
-6.4168389e+95
-6.412604e+95
-6.4388666e+95
-6.3907322e+95
-6.3626312e+95
-6.3588682e+95
-6.3867458e+95
-6.3527633e+95
-6.3553861e+95
-6.3833144e+95
-6.3804351e+95
-6.4354977e+95
-6.4088801e+95
-6.4061825e+95
-6.433232e+95
-6.0496382e+95
-6.1985743e+95
-6.2014592e+95
-6.2530625e+95
-6.2508672e+95
-6.0585254e+95
-6.2055585e+95
-6.2124657e+95
-6.2614459e+95
-6.2570714e+95
-6.2942178e+95
-6.2977069e+95
-6.3321938e+95
-6.3284925e+95
-6.324847e+95
-6.29007e+95
-6.2886762e+95
-6.3228147e+95
-5.9161514e+95
-5.903771e+95
-6.3208052e+95
-6.2873872e+95
-6.2844749e+95
-6.3183213e+95
-6.0447977e+95
-6.2493319e+95
-6.1963747e+95
-6.1937365e+95
-6.2464464e+95
-6.043875e+95
-6.1951311e+95
-6.1941536e+95
-6.2453514e+95
-6.2452802e+95
-6.3164391e+95
-6.2820279e+95
-6.2820653e+95
-6.3161961e+95
-5.8978631e+95
-5.8990508e+95
-6.3777769e+95
-6.3500767e+95
-6.3478511e+95
-6.3757898e+95
-6.3464633e+95
-6.3466651e+95
-6.3748593e+95
-6.3749546e+95
-6.4020447e+95
-6.4038764e+95
-6.4312271e+95
-6.4293952e+95
-6.4012416e+95
-6.4285751e+95
-6.428419e+95
-6.4011537e+95
-5.7139532e+95
-5.7014213e+95
-6.3431795e+95
-6.3451983e+95
-6.3735576e+95
-6.3713719e+95
-6.3996825e+95
-6.4267826e+95
-6.4240072e+95
-6.3972938e+95
-6.3699097e+95
-6.3416057e+95
-6.3416089e+95
-6.3695103e+95
-6.3951004e+95
-6.3957797e+95
-6.4222489e+95
-6.4217751e+95
-6.0378143e+95
-6.189127e+95
-6.1886117e+95
-6.2397888e+95
-6.2396676e+95
-6.0420607e+95
-6.1898728e+95
-6.1945087e+95
-6.2439792e+95
-6.241426e+95
-6.2784544e+95
-6.2802084e+95
-6.3147278e+95
-6.3127325e+95
-5.8971125e+95
-5.8912276e+95
-6.2762406e+95
-6.3109213e+95
-6.3112537e+95
-6.2768352e+95
-6.0398713e+95
-6.1913282e+95
-6.1909147e+95
-6.2401377e+95
-6.240565e+95
-6.0376278e+95
-6.1893391e+95
-6.1901451e+95
-6.2403263e+95
-6.2400256e+95
-5.891307e+95
-5.8986003e+95
-6.2763232e+95
-6.3108274e+95
-6.310724e+95
-6.2769648e+95
-6.2761534e+95
-6.3098614e+95
-6.3094989e+95
-6.276261e+95
-6.3387605e+95
-6.3395125e+95
-6.3670541e+95
-6.3658175e+95
-6.3403489e+95
-6.3408678e+95
-6.3687106e+95
-6.367879e+95
-6.4213461e+95
-6.3945299e+95
-6.3935698e+95
-6.4200969e+95
-6.391039e+95
-6.3925321e+95
-6.4188442e+95
-6.4172443e+95
-5.6971774e+95
-5.7004408e+95
-5.4518799e+95
-5.4451042e+95
-6.6032411e+95
-6.5808996e+95
-6.5771802e+95
-6.6000173e+95
-6.6098667e+95
-6.5880157e+95
-6.5846587e+95
-6.6065971e+95
-6.5661611e+95
-6.5446044e+95
-6.5403451e+95
-6.5624424e+95
-6.558315e+95
-6.5358007e+95
-6.5312523e+95
-6.5540239e+95
-6.4446914e+95
-6.4490657e+95
-6.469597e+95
-6.4651764e+95
-6.4538958e+95
-6.4592583e+95
-6.4798185e+95
-6.4747624e+95
-6.5227252e+95
-6.5009967e+95
-6.4960523e+95
-6.5179871e+95
-6.4864088e+95
-6.4909885e+95
-6.5131199e+95
-6.508513e+95
-6.4325793e+95
-6.434563e+95
-6.4542768e+95
-6.4525244e+95
-6.4374943e+95
-6.4405103e+95
-6.4606125e+95
-6.4572358e+95
-6.5040663e+95
-6.4818106e+95
-6.4781418e+95
-6.5001169e+95
-6.4971236e+95
-6.4751553e+95
-6.4733287e+95
-6.4950021e+95
-6.5174137e+95
-6.5197813e+95
-6.5428015e+95
-6.5400456e+95
-6.5229213e+95
-6.526876e+95
-6.5499708e+95
-6.5460747e+95
-6.5969761e+95
-6.5734536e+95
-6.5696728e+95
-6.5933482e+95
-6.5630857e+95
-6.5662662e+95
-6.5898176e+95
-6.5861423e+95
-6.5634771e+95
-6.5582695e+95
-6.5430996e+95
-6.5379972e+95
-6.5477981e+95
-6.5529756e+95
-6.5271866e+95
-6.5324043e+95
-6.5226361e+95
-6.5023577e+95
-6.5176816e+95
-6.4976931e+95
-6.4920948e+95
-6.5118478e+95
-6.5067083e+95
-6.4868789e+95
-6.5684464e+95
-6.5729899e+95
-6.5476149e+95
-6.5515538e+95
-6.5555674e+95
-6.5596014e+95
-6.5819311e+95
-6.5773726e+95
-6.5057901e+95
-6.5087117e+95
-6.5298474e+95
-6.5265522e+95
-6.5118501e+95
-6.5149892e+95
-6.5370817e+95
-6.5334971e+95
-6.4190233e+95
-6.4220051e+95
-6.4412861e+95
-6.4384244e+95
-6.4817427e+95
-6.461259e+95
-6.457878e+95
-6.4776181e+95
-6.4725518e+95
-6.4533737e+95
-6.4671644e+95
-6.4480149e+95
-6.4344129e+95
-6.4152061e+95
-6.4104892e+95
-6.4291519e+95
-6.4236839e+95
-6.4250477e+95
-6.445099e+95
-6.4435363e+95
-6.4272917e+95
-6.4300753e+95
-6.4505498e+95
-6.4477451e+95
-6.4685941e+95
-6.4713661e+95
-6.4929049e+95
-6.4900085e+95
-6.4871824e+95
-6.4658678e+95
-6.4638457e+95
-6.484673e+95
-6.358651e+95
-6.3623397e+95
-6.3843286e+95
-6.3807802e+95
-6.367075e+95
-6.3722278e+95
-6.393988e+95
-6.3885506e+95
-6.4376769e+95
-6.4157116e+95
-6.4102993e+95
-6.4321635e+95
-6.4276611e+95
-6.4060212e+95
-6.4024179e+95
-6.4236302e+95
-6.0232215e+95
-6.036185e+95
-6.124896e+95
-6.1148911e+95
-5.8972747e+95
-5.881731e+95
-6.0158099e+95
-6.1084113e+95
-6.1054021e+95
-6.014452e+95
-6.225413e+95
-6.2343668e+95
-6.2871026e+95
-6.2802074e+95
-6.3209057e+95
-6.3479718e+95
-6.3425497e+95
-6.3150881e+95
-6.274913e+95
-6.2192906e+95
-6.215843e+95
-6.2706364e+95
-6.3059097e+95
-6.3099104e+95
-6.3374053e+95
-6.3337417e+95
-6.0992659e+95
-6.0055181e+95
-6.011141e+95
-6.1014065e+95
-6.2109385e+95
-6.2098341e+95
-6.2626212e+95
-6.2626683e+95
-6.0058511e+95
-6.0117052e+95
-6.102922e+95
-6.0990526e+95
-6.2096481e+95
-6.2125709e+95
-6.2671037e+95
-6.2642101e+95
-6.3304089e+95
-6.3024079e+95
-6.2993753e+95
-6.3271428e+95
-6.2961914e+95
-6.2969901e+95
-6.3246537e+95
-6.3231013e+95
-5.8746152e+95
-5.874574e+95
-5.6823986e+95
-5.6675852e+95
-6.4199931e+95
-6.3992656e+95
-6.3962894e+95
-6.4170412e+95
-6.3777077e+95
-6.3552534e+95
-6.3521171e+95
-6.3745784e+95
-6.4142157e+95
-6.3936302e+95
-6.3907854e+95
-6.4117726e+95
-6.3719308e+95
-6.3495078e+95
-6.3474311e+95
-6.3693048e+95
-6.1003765e+95
-6.0103068e+95
-6.0013971e+95
-6.0936396e+95
-6.0908544e+95
-5.9980112e+95
-6.0002899e+95
-6.09077e+95
-5.8724711e+95
-5.8657011e+95
-5.996968e+95
-6.0003042e+95
-6.0907056e+95
-6.0888269e+95
-5.8658483e+95
-5.8724355e+95
-6.0058393e+95
-5.9984832e+95
-6.0898836e+95
-6.0929152e+95
-5.6623114e+95
-5.664884e+95
-6.3394511e+95
-6.3403082e+95
-6.3607569e+95
-6.3612929e+95
-6.3422691e+95
-6.3449779e+95
-6.3660882e+95
-6.3635116e+95
-6.3847559e+95
-6.3874637e+95
-6.4088417e+95
-6.4060462e+95
-6.4039817e+95
-6.3826361e+95
-6.3819241e+95
-6.4029174e+95
-6.2004956e+95
-6.2003017e+95
-6.2539294e+95
-6.2538858e+95
-6.2030449e+95
-6.2085735e+95
-6.2601264e+95
-6.2566446e+95
-6.32094e+95
-6.2936813e+95
-6.290963e+95
-6.3181041e+95
-6.31615e+95
-6.2885308e+95
-6.2882713e+95
-6.3153442e+95
-6.200135e+95
-6.2003518e+95
-6.2538565e+95
-6.2541285e+95
-6.2882047e+95
-6.288161e+95
-6.3149145e+95
-6.3141443e+95
-6.3132283e+95
-6.2887455e+95
-6.2873396e+95
-6.3119475e+95
-6.2554304e+95
-6.2018953e+95
-6.2028904e+95
-6.2544999e+95
-6.3336004e+95
-6.3347184e+95
-6.3547957e+95
-6.3529582e+95
-6.3370728e+95
-6.3386352e+95
-6.3599475e+95
-6.3577812e+95
-6.4016643e+95
-6.3809022e+95
-6.3783486e+95
-6.3988016e+95
-6.3721169e+95
-6.3750237e+95
-6.3952128e+95
-6.3912879e+95
-5.6838874e+95
-5.6687555e+95
-5.6630652e+95
-5.6657059e+95
-6.5446399e+95
-6.5423935e+95
-6.5649296e+95
-6.5626327e+95
-6.5605138e+95
-6.5583633e+95
-6.540399e+95
-6.5382401e+95
-6.5138544e+95
-6.5041723e+95
-6.5017606e+95
-6.5114941e+95
-6.4948004e+95
-6.4848665e+95
-6.4825362e+95
-6.4923749e+95
-6.4786381e+95
-6.4806476e+95
-6.4903765e+95
-6.488303e+95
-6.5094391e+95
-6.4996631e+95
-6.4975108e+95
-6.5071948e+95
-6.5165784e+95
-6.5187186e+95
-6.5283914e+95
-6.5262887e+95
-6.5208309e+95
-6.5230004e+95
-6.5326211e+95
-6.5304683e+95
-6.5362311e+95
-6.5342308e+95
-6.5562071e+95
-6.5540358e+95
-6.4725931e+95
-6.4739921e+95
-6.4833933e+95
-6.4818688e+95
-6.4866013e+95
-6.4769304e+95
-6.4752757e+95
-6.4848137e+95
-6.505362e+95
-6.4957429e+95
-6.4939275e+95
-6.5034829e+95
-6.5018791e+95