/*--------------------------------*- C++ -*----------------------------------*\
  =========                 |
  \\      /  F ield         | OpenFOAM: The Open Source CFD Toolbox
   \\    /   O peration     | Website:  https://openfoam.org
    \\  /    A nd           | Version:  7
     \\/     M anipulation  |
\*---------------------------------------------------------------------------*/
FoamFile
{
    version     2.0;
    format      ascii;
    class       surfaceScalarField;
    location    "1000";
    object      phi;
}
// * * * * * * * * * * * * * * * * * * * * * * * * * * * * * * * * * * * * * //

dimensions      [0 3 -1 0 0 0 0];

internalField   nonuniform List<scalar> 
102329
(
2.3771047e+43
-2.3677696e+44
1.5628648e+43
1.249277e+43
-1.6095298e+43
-1.7948496e+43
-2.4084739e+44
3.0195868e+43
1.5252851e+43
1.2893124e+43
-1.5644443e+43
-1.8829142e+43
-2.0796334e+43
2.8148787e+43
-3.1230911e+44
1.6280656e+43
-8.7186802e+42
-1.2152151e+43
1.456172e+43
1.6805065e+43
-9.5632628e+42
-1.1026382e+43
1.4187586e+43
-3.0842037e+44
8.4559437e+43
7.0787623e+43
-6.0003989e+43
-7.2832883e+43
-7.3944375e+43
-6.1126901e+43
6.1673373e+43
7.3421786e+43
-2.4023188e+43
-2.4268451e+44
3.1434246e+43
1.5352515e+43
-1.5779363e+43
-1.89237e+43
1.2780673e+43
-2.4010066e+44
1.2656254e+43
1.5621119e+43
-1.8447832e+43
-1.6269523e+43
-2.2144472e+43
2.9231632e+43
1.7051403e+43
-9.2326221e+42
-1.2380728e+43
-3.1596952e+44
1.4540943e+43
-3.1318167e+44
1.6954177e+43
-9.7570189e+42
-1.1562115e+43
1.4027002e+43
-4.9777825e+41
6.7192685e+41
5.547801e+41
5.1690211e+41
-1.4833924e+43
-9.2177636e+41
-8.4197271e+41
5.6182478e+41
-1.5022463e+43
-9.0697472e+41
-8.9284897e+41
-3.4886582e+42
-5.2993744e+43
4.6940743e+42
2.9036052e+42
2.7325665e+42
-3.9732047e+42
-3.6085586e+42
-5.0774979e+43
2.8448486e+42
2.5077323e+42
-3.843647e+42
-4.0671684e+42
-3.6855991e+42
5.0126362e+42
-6.7920173e+43
2.9535416e+42
-3.8745372e+42
2.7287856e+42
-4.3036355e+42
-6.5642993e+43
-4.100812e+42
-3.872366e+42
3.0610077e+42
2.4205703e+42
-3.8863171e+42
-5.2354177e+43
4.902297e+42
2.7852709e+42
2.7157876e+42
-4.0821375e+42
-3.8673889e+42
-5.0738027e+41
5.3364615e+41
4.9874406e+41
-8.6735622e+41
-1.4864648e+43
-9.3314241e+41
5.6678355e+41
4.8740446e+41
-1.4681085e+43
-8.9890766e+41
-8.7432778e+41
-5.2096688e+43
2.8229353e+42
2.4821914e+42
-3.981372e+42
-4.1158362e+42
-4.6520272e+42
-6.6070151e+43
4.6416096e+42
-3.6690779e+42
3.0501168e+42
2.8325243e+42
-4.1315911e+42
-6.7872535e+43
-4.1117654e+42
-4.0380266e+42
2.7779798e+42
2.6791459e+42
-2.0810437e+43
-2.482666e+44
2.7887915e+43
-9.6908604e+42
1.946584e+43
1.7650628e+43
-1.2396122e+43
-4.8498083e+43
-4.9195585e+42
5.3704414e+42
3.1044286e+42
-3.558116e+42
2.8596269e+42
-4.1482135e+42
-4.2766867e+42
5.9172399e+42
-6.0584076e+43
-2.7789526e+42
-2.13176e+42
3.5335151e+42
3.1039903e+42
5.0714495e+43
-5.3841827e+42
-6.3503314e+43
-2.4285372e+42
3.6688276e+42
3.2911928e+42
-2.7872641e+42
-5.4338927e+42
-3.7688798e+42
3.0090326e+42
2.6865913e+42
-4.0087047e+42
-5.0257362e+43
-4.0691352e+42
-4.1802688e+42
-3.7275066e+42
2.9673379e+42
2.717962e+42
-3.947209e+42
-2.3059707e+42
-2.8514548e+42
-6.2928773e+43
3.2219095e+42
3.6067181e+42
4.8810525e+43
-2.2443898e+42
-2.5214416e+42
-6.0935092e+43
3.1589243e+42
3.6405343e+42
2.9899509e+42
-3.7011811e+42
-3.9035349e+42
2.5385097e+42
-2.4383486e+44
1.9964578e+43
1.7539499e+43
-1.0604474e+43
-1.1171405e+43
-1.6066986e+43
-2.7634466e+44
2.3073385e+43
-4.9990127e+43
-2.673474e+44
-4.8640182e+43
2.3941547e+44
2.2749313e+44
-7.8856513e+43
9.3039788e+43
-2.4247793e+43
-2.4618923e+44
1.5791535e+43
1.3237117e+43
-1.5724277e+43
-1.9453734e+43
-2.4396864e+44
1.5943124e+43
1.2596162e+43
-1.6455897e+43
-1.9015776e+43
-2.228285e+43
1.7079408e+43
-9.8756326e+42
-1.3043636e+43
1.4356298e+43
-3.2001714e+44
1.6885344e+43
-1.0156962e+43
-1.2273197e+43
1.3719011e+43
-3.1802695e+44
2.3365665e+43
2.0820797e+44
2.037879e+44
2.4809002e+43
-5.3391113e+43
-4.0634486e+42
5.4244607e+42
2.7405791e+42
2.9540279e+42
-3.7021719e+42
-4.2097083e+42
-4.4138156e+42
-6.8194266e+43
5.5688152e+42
-4.2959939e+42
-3.7081029e+42
3.0924442e+42
2.7804642e+42
5.2636075e+43
-5.2774439e+42
-6.8542633e+43
-4.1287664e+42
-3.897698e+42
3.1412167e+42
2.7317333e+42
-4.927576e+42
-4.1094123e+42
-3.8952214e+42
2.7174541e+42
2.3461677e+42
3.7182668e+42
-5.1848835e+43
2.9246095e+42
2.6299927e+42
-3.9229636e+42
-3.8727737e+42
-5.3648674e+43
2.6921578e+42
2.8954017e+42
-4.2144697e+42
-3.8148981e+42
3.9508291e+42
-6.67038e+43
-4.0056745e+42
2.8351077e+42
2.5227346e+42
-4.2542539e+42
-6.8734229e+43
-4.3164589e+42
-3.8680988e+42
2.9664471e+42
2.7075348e+42
-5.0366281e+43
-5.0301055e+42
6.0050688e+42
-4.1834402e+42
-3.5141991e+42
3.1323171e+42
2.8137928e+42
-4.9183832e+42
6.0560834e+42
-6.2378117e+43
-2.229045e+42
3.6924292e+42
-2.8942544e+42
3.0723931e+42
5.1161805e+43
-5.6910452e+42
-2.9123168e+42
-2.4700326e+42
3.6692958e+42
3.1266561e+42
-6.418347e+43
-2.2407969e+43
-2.5059184e+44
2.8216353e+43
1.9797239e+43
1.7619373e+43
-9.7351816e+42
-1.2657577e+43
-5.6147881e+42
3.0833604e+42
-3.7853428e+42
2.6095444e+42
-4.162758e+42
-2.4843263e+44
1.9969503e+43
1.7116122e+43
-1.0820032e+43
-1.1458293e+43
-5.0886041e+43
-4.3696199e+42
-4.2220611e+42
-3.7079395e+42
3.0329064e+42
2.7579193e+42
-4.3727368e+42
-6.3427166e+43
-2.9640806e+42
-2.3910426e+42
3.6064799e+42
3.2144419e+42
4.9525276e+43
-6.1165335e+43
-2.3670658e+42
3.6766575e+42
3.0245488e+42
-2.7116805e+42
-3.9811294e+42
-3.7483206e+42
2.9830578e+42
2.5956903e+42
-1.6251741e+43
-2.8167996e+44
2.3534651e+43
-5.2096399e+43
-2.7369849e+44
-5.2254984e+43
-1.0286827e+41
-2.5367526e+42
1.364439e+41
-1.643614e+41
-1.7528833e+41
1.1999201e+41
1.139996e+41
-2.5600668e+42
-1.2804251e+41
1.2504899e+41
1.118184e+41
-1.7199886e+41
-1.7375805e+41
-4.4894019e+41
-1.1555398e+43
6.5958024e+41
5.5577375e+41
-8.0847896e+41
-8.7313226e+41
5.4028845e+41
8.0919105e+40
-9.3228819e+40
-3.2623687e+42
-2.0716204e+41
1.0094979e+41
-3.2038682e+42
-1.9488771e+41
-2.5713836e+42
-1.6906017e+41
-1.7874899e+41
1.2018195e+41
1.1369948e+41
-1.1621506e+43
-5.1194874e+41
-8.5882416e+41
-8.3907146e+41
5.7445195e+41
5.1806766e+41
7.1632763e+40
-9.2444456e+40
-3.1983243e+42
-2.129072e+41
-3.2747168e+42
-2.1111021e+41
4.6160586e+41
-5.3681547e+41
-1.5026855e+43
-8.5346178e+41
-8.1384334e+41
6.2316066e+41
5.5150989e+41
-1.4849588e+43
6.0422523e+41
-8.6604272e+41
-7.7945763e+41
6.106564e+41
5.7786122e+41
-7.2443462e+40
-1.9500534e+41
-3.2251153e+42
-4.3114013e+41
-1.1497297e+43
5.6418189e+41
-7.9171219e+41
-8.7432209e+41
5.3485648e+41
-3.243366e+42
-2.0909403e+41
-1.1232271e+43
5.8045797e+41
-7.9933676e+41
-3.9316353e+41
-1.4918895e+43
5.9532915e+41
-8.228699e+41
-8.8562142e+41
5.474698e+41
-1.4432791e+43
5.6448544e+41
-8.5786821e+41
-8.7728014e+41
-1.1566725e+43
-4.598094e+41
5.802887e+41
6.2160354e+41
-7.7704143e+41
-8.8406678e+41
5.8971171e+41
-4.4833055e+41
6.0134398e+41
-1.4999952e+43
6.240652e+41
-8.5030829e+41
-9.2852046e+41
5.604443e+41
-1.16548e+43
-6.2342095e+41
6.4666607e+41
-8.0437441e+41
-8.8156022e+41
5.5961721e+41
-5.1968622e+41
-1.517113e+43
5.8866524e+41
-9.0645069e+41
-9.2487021e+41
5.267125e+41
4.3036011e+41
1.1228826e+43
-1.4566916e+43
-9.1024704e+41
-8.8363464e+41
6.2607753e+41
5.0215825e+41
1.1534477e+43
-1.5014117e+43
-9.1876283e+41
-8.030784e+41
6.4599467e+41
5.9380169e+41
-4.4370597e+41
5.8799925e+41
-7.9833019e+41
-8.6027758e+41
5.6748812e+41
-8.7593949e+41
-8.321677e+41
5.7031635e+41
4.9085459e+41
-4.9282605e+41
-1.164316e+43
6.6694839e+41
5.6472158e+41
5.507726e+41
-8.2311408e+41
-8.7961697e+41
-1.1866275e+43
-5.7461381e+41
5.3679769e+41
5.9350161e+41
-8.4361379e+41
-8.6082665e+41
4.9500087e+41
-5.5706702e+41
-1.5422373e+43
-8.5678209e+41
-8.2318974e+41
5.7288474e+41
6.4311876e+41
-1.5122665e+43
6.8546333e+41
-8.9397402e+41
-8.2965854e+41
5.8273543e+41
5.6254921e+41
-3.1423455e+42
-1.5242552e+41
-1.5779326e+41
1.1818002e+41
1.3352214e+41
-9.9877785e+40
-2.5380047e+42
-1.6850682e+41
-1.7897567e+41
1.1586586e+41
1.1051109e+41
-2.5492832e+42
-1.3855617e+41
1.2231581e+41
1.0867146e+41
-1.7368814e+41
-1.7542431e+41
-7.74239e+40
-2.1390217e+41
-3.2096268e+42
-5.0831619e+41
-1.1489118e+43
5.4727054e+41
-8.8278872e+41
-8.054024e+41
5.2203421e+41
-1.0247609e+41
-3.2372094e+42
-2.2016283e+41
-1.0895806e+41
-2.5793188e+42
-1.6633171e+41
-1.7586261e+41
1.1955423e+41
1.1267302e+41
-2.5137778e+42
1.227349e+41
1.0780078e+41
-1.7160708e+41
-1.7260605e+41
-1.1472104e+43
5.8831921e+41
-8.0725019e+41
-8.6175606e+41
5.0516352e+41
7.8952499e+40
-3.1737993e+42
-2.1688779e+41
-3.2792909e+42
-1.9787884e+41
-4.7771704e+41
-1.4891614e+43
5.6695006e+41
-8.4287634e+41
-9.0687622e+41
5.2458034e+41
-1.4834781e+43
5.834167e+41
-8.5399662e+41
-8.7229878e+41
5.162282e+41
1.1802977e+43
-5.6388944e+41
-1.512754e+43
6.4614861e+41
6.6843777e+41
-8.0627547e+41
-9.088237e+41
6.1988703e+41
-5.5181454e+41
7.6575301e+41
-8.8273851e+41
-7.8494278e+41
6.0768168e+41
5.7648941e+41
-1.1961051e+43
-7.1491994e+41
6.5773538e+41
-8.2982722e+41
-8.7217316e+41
5.7857299e+41
-7.426644e+41
-1.5466139e+43
6.6729048e+41
-8.5628503e+41
-8.6595601e+41
6.072227e+41
4.8954737e+41
1.1571951e+43
-1.5051357e+43
-9.0221785e+41
-8.3501893e+41
6.539581e+41
5.6271782e+41
1.1576369e+43
-1.5106156e+43
-9.512278e+41
-8.8948775e+41
5.5282924e+41
5.2653066e+41
-5.3346347e+41
5.2878322e+41
-8.5537261e+41
-9.1016401e+41
5.1803206e+41
-8.5138709e+41
-8.2498754e+41
6.0497342e+41
5.3454159e+41
4.7649169e+43
-2.918884e+42
-5.3311425e+43
5.0638649e+42
-6.1735151e+42
-4.5592298e+42
6.2479412e+42
4.347484e+42
3.9161656e+42
-1.4157009e+42
-2.0056888e+42
-4.9245306e+43
-5.6738616e+42
3.8749913e+42
4.3973528e+42
-1.795213e+42
-1.9698356e+42
-4.9337053e+42
-5.3182446e+43
-6.4441031e+42
-1.1608021e+43
-6.7028569e+41
6.8241479e+41
6.8436158e+41
-8.0831584e+41
-9.3326568e+41
6.299998e+41
-7.9043356e+41
-1.4710133e+43
8.4212876e+41
7.018374e+41
-8.5941479e+41
-9.5845063e+41
6.0832983e+41
-1.1837971e+43
-9.5397184e+41
7.0279641e+41
-8.5213726e+41
6.035296e+41
-9.3904417e+41
-1.5033099e+43
-1.0575472e+42
6.4911728e+41
-9.3393337e+41
-9.6810886e+41
5.6695369e+41
9.9080988e+41
1.129634e+43
-1.094516e+42
-1.3954153e+43
-7.5908079e+41
-6.7306672e+41
7.6868036e+41
6.4603965e+41
1.1027563e+43
1.2456493e+42
-1.34802e+43
-7.5083188e+41
-6.27275e+41
7.6721708e+41
6.7693307e+41
-1.0106325e+42
1.2440891e+42
6.8283161e+41
-7.9551494e+41
-9.0635678e+41
6.3652967e+41
-1.1680582e+42
-9.2053947e+41
-8.5201043e+41
6.9520164e+41
6.0200702e+41
1.1549238e+43
-8.9096134e+41
-1.4186266e+43
-7.8703865e+41
-6.5741401e+41
7.9094189e+41
6.584536e+41
-7.9758643e+41
1.528981e+43
6.8534608e+41
-8.2888209e+41
-9.3146442e+41
6.3278661e+41
-1.1378946e+43
1.5150328e+43
-1.0885399e+42
7.8810452e+41
-8.0767104e+41
6.9448319e+41
-8.6414808e+41
-1.1660122e+42
-1.3976693e+43
8.2461203e+41
-6.4853565e+41
6.5596857e+41
-7.4650701e+41
1.1742499e+43
-6.6177129e+41
6.3026473e+41
-8.6382713e+41
-9.6612264e+41
5.8234069e+41
-6.2562463e+41
-9.5498345e+41
-8.5496171e+41
5.8076884e+41
5.4620538e+41
-1.1743198e+43
-7.2670422e+41
6.8412579e+41
-8.617018e+41
-9.0855765e+41
5.6564662e+41
-8.1761498e+41
6.811674e+41
-8.4595455e+41
-8.8138436e+41
6.0044279e+41
5.949328e+41
1.1726805e+43
-1.5171652e+43
-7.3523632e+41
-9.3067004e+41
-9.0407716e+41
6.5083478e+41
5.8880185e+41
1.1656996e+43
-1.5038144e+43
-9.4470538e+41
-8.7474352e+41
6.3418438e+41
6.1622655e+41
-4.9706955e+41
5.9077785e+41
-8.5521396e+41
-9.1840253e+41
5.7758762e+41
-5.9399397e+41
-9.0911284e+41
-8.8730524e+41
6.1298744e+41
5.5399592e+41
-8.9162203e+41
1.1340167e+43
-1.398139e+43
-6.4095328e+41
7.8153291e+41
6.8470272e+41
-7.644157e+41
1.1410739e+43
-1.0151159e+42
-1.4182336e+43
-6.6166978e+41
7.9478216e+41
6.5604629e+41
-7.4551753e+41
-4.3877772e+42
-4.8831262e+43
4.3822386e+42
3.9433897e+42
-1.5936193e+42
-2.151e+42
7.8047162e+41
-9.0211289e+41
-8.8464175e+41
-8.4464105e+41
6.9289419e+41
6.1902942e+41
-8.986755e+41
-8.1704971e+41
6.7016358e+41
6.4623394e+41
-7.2722584e+41
1.1211273e+43
-1.3851031e+43
-6.2542686e+41
7.892848e+41
6.8486378e+41
-7.4123904e+41
1.087959e+43
-1.3309616e+43
-6.0391489e+41
8.0276294e+41
6.5935538e+41
-6.8335162e+41
-4.7245503e+43
4.4919627e+42
3.9453307e+42
-1.5979024e+42
-1.698917e+42
6.5011515e+41
1.4571367e+43
-8.3260398e+41
-7.9042128e+41
7.0988805e+41
6.307233e+41
1.4968252e+43
-8.833953e+41
-8.0904806e+41
6.7591732e+41
6.4808626e+41
-1.160634e+43
-4.9572149e+41
6.7115259e+41
-8.4807178e+41
-9.2435966e+41
5.851828e+41
-5.0623851e+41
6.2681576e+41
-8.6016688e+41
-9.3277422e+41
5.9786015e+41
1.1330793e+43
-8.9042094e+41
-8.618278e+41
6.4332741e+41
5.7244481e+41
5.9821039e+41
-8.7262929e+41
-8.9698064e+41
5.2919992e+41
-3.9661497e+42
-5.4035077e+43
-6.3681769e+42
-5.0927372e+43
-6.4247336e+42
-1.8624296e+43
2.3617198e+43
4.8122035e+43
4.6449397e+43
-1.6632561e+43
4.82327e+43
4.518257e+43
-1.5960565e+43
-3.1280909e+44
-1.4852944e+43
1.687724e+43
1.4931556e+43
-1.7128587e+43
2.3423379e+44
2.2222356e+44
8.9017364e+43
2.4610174e+44
2.5811996e+44
2.4199505e+44
2.3080144e+44
-8.6151011e+43
9.4549002e+43
-4.117328e+42
-5.3922122e+43
3.0832598e+42
2.7042739e+42
-3.4962643e+42
-4.227646e+42
-5.3660595e+43
-5.4060628e+42
2.9550007e+42
2.6649508e+42
-3.9560242e+42
-3.9513447e+42
-4.725333e+42
-6.9285854e+43
3.3462643e+42
-3.4715207e+42
-4.3386314e+42
2.7684106e+42
-5.4929994e+42
-6.9470109e+43
-4.0434958e+42
2.9215165e+42
2.541491e+42
-4.2960631e+42
-4.0028957e+42
-5.425937e+43
2.7186386e+42
2.9523538e+42
-3.7812262e+42
-4.2576365e+42
-5.2598224e+43
2.9769035e+42
2.6607975e+42
-3.8559103e+42
-3.8825984e+42
-4.3348955e+42
-6.9486791e+43
-4.3650461e+42
-3.8301733e+42
3.0650232e+42
2.743622e+42
-6.7631245e+43
-3.9768396e+42
2.9241328e+42
2.5389438e+42
-4.2350694e+42
-5.1405661e+43
-5.1368974e+42
3.2394962e+42
-3.6147236e+42
-4.2759697e+42
2.8279493e+42
-4.9946393e+42
-3.0915949e+42
-2.4031664e+42
3.6508014e+42
3.2360717e+42
-6.3545973e+43
5.1957787e+43
-6.0039393e+42
3.7789107e+42
-2.5265453e+42
-3.0454192e+42
3.0944475e+42
-6.5293516e+43
-5.8213953e+42
-3.790583e+42
-4.2704426e+42
3.077384e+42
2.5121167e+42
-2.2163343e+43
-2.5238745e+44
1.9491513e+43
1.7336047e+43
-1.0116546e+43
-1.3136415e+43
-5.1431753e+43
-4.7047725e+42
-3.7760004e+42
3.0461874e+42
-4.3246131e+42
2.7681117e+42
-4.5787689e+42
-3.1159201e+42
-2.4718727e+42
3.5877324e+42
-6.417155e+43
3.1577192e+42
5.017856e+43
-2.9106324e+42
-2.4825114e+42
-6.2232473e+43
3.6204688e+42
3.0307059e+42
-4.1599124e+42
-3.8081797e+42
3.0179518e+42
2.5167608e+42
-2.5240868e+44
1.9904227e+43
1.7048761e+43
-1.1243025e+43
-1.1946343e+43
-1.6720873e+43
-2.8570252e+44
-5.2721066e+43
-2.7838317e+44
-5.3977042e+43
5.1725487e+41
-1.1770236e+43
-6.5203932e+41
6.1695593e+41
-8.0516337e+41
-8.6127127e+41
5.38557e+41
-1.1530877e+43
6.9848234e+41
5.9076996e+41
-7.6891471e+41
-8.6453644e+41
5.5829253e+41
-5.6249493e+41
-1.492201e+43
7.2156505e+41
6.2745404e+41
-7.9862822e+41
-8.7505519e+41
5.7612066e+41
-1.5278465e+43
-6.6477103e+41
6.041595e+41
-8.6420185e+41
-8.8184489e+41
5.4268241e+41
6.1406536e+41
1.1810302e+43
-6.907535e+41
-1.5396314e+43
-9.3170097e+41
-8.9759423e+41
6.5048674e+41
5.4551488e+41
1.1607767e+43
-1.5029541e+43
7.8779498e+41
-9.0276731e+41
-8.1772574e+41
6.6418727e+41
5.9624856e+41
-6.3025398e+41
8.6073327e+41
6.048114e+41
-7.7850799e+41
-8.6091632e+41
5.8233385e+41
-7.4378687e+41
-8.8238621e+41
-8.4585887e+41
6.1143856e+41
5.4264056e+41
5.450914e+41
1.1567306e+43
-7.3571125e+41
-1.5003886e+43
-9.0853243e+41
-8.2558594e+41
6.6831188e+41
5.6424003e+41
1.1740508e+43
-1.5274183e+43
-9.3346033e+41
-8.1792258e+41
6.4747114e+41
5.9422602e+41
-5.53384e+41
1.5194555e+43
6.0142466e+41
-8.0802985e+41
-8.7353243e+41
5.7690363e+41
1.4923048e+43
-6.9680665e+41
6.2875067e+41
-8.1287971e+41
-8.4665582e+41
5.5019863e+41
4.7282027e+41
1.152049e+43
-6.1544092e+41
-8.6183486e+41
-8.2941987e+41
6.0137186e+41
5.2564758e+41
1.1677093e+43
-8.8615994e+41
-8.1927782e+41
5.8118822e+41
5.5453832e+41
-5.2710001e+41
5.2265728e+41
-8.3443055e+41
-8.9172401e+41
5.0403818e+41
-6.7462994e+41
-8.7264361e+41
-8.4193486e+41
5.4934796e+41
4.7418302e+41
-5.7880944e+41
-1.1577328e+43
6.4081025e+41
5.7091649e+41
5.4487485e+41
-7.9418705e+41
-8.5110261e+41
-1.1566549e+43
5.2634349e+41
5.82196e+41
-8.3789071e+41
-8.3739024e+41
-5.0073011e+41
6.0987751e+41
-1.5008648e+43
5.9801244e+41
-8.2852388e+41
5.3741138e+41
-9.0769252e+41
-1.4836691e+43
-8.072482e+41
6.3529402e+41
5.7321996e+41
-8.1916613e+41
5.1017395e+41
-1.1651597e+43
5.1879333e+41
5.908113e+41
-8.720956e+41
-8.3106728e+41
-1.1589533e+43
-8.7592627e+41
-8.0895658e+41
5.7080321e+41
5.4967647e+41
4.8626806e+41
-1.5157909e+43
-8.854442e+41
-8.447926e+41
6.228958e+41
5.2279092e+41
-1.4963836e+43
-8.8792306e+41
-8.2309425e+41
5.8153046e+41
5.5971952e+41
1.1672486e+43
-5.1611488e+41
6.5294781e+41
-1.5199263e+43
-9.3632705e+41
-8.6733588e+41
6.3337985e+41
5.5455188e+41
-5.4293449e+41
6.465277e+41
5.7227942e+41
-8.1687286e+41
-8.9911841e+41
5.3906181e+41
-1.159869e+43
6.5085287e+41
-8.0934445e+41
5.5799572e+41
-8.9195381e+41
-1.4974654e+43
5.8458566e+41
-9.143473e+41
-9.3337057e+41
5.1487498e+41
5.1748611e+41
1.1752803e+43
-1.5331841e+43
-9.2133159e+41
-8.7718487e+41
6.5514685e+41
5.4140973e+41
1.1639565e+43
-1.5111651e+43
-9.2453677e+41
-8.5710044e+41
5.9368935e+41
5.7371059e+41
-5.1116572e+41
-8.7707315e+41
-8.1436489e+41
5.8108607e+41
5.6688627e+41
6.1177611e+41
-8.3071974e+41
-8.7663657e+41
5.3337066e+41
7.7680618e+41
1.1773647e+43
-1.5036683e+43
-1.044703e+42
-9.5590459e+41
-9.3218226e+41
6.5319012e+41
5.8238974e+41
1.165151e+43
-1.5039609e+43
1.0002778e+42
-8.9721191e+41
-8.2585955e+41
6.7759106e+41
6.9590991e+41
-6.961348e+41
9.1655565e+41
6.2431473e+41
-8.1858596e+41
-8.8366887e+41
6.1180363e+41
-8.5572045e+41
6.2391851e+41
-9.092016e+41
-9.275841e+41
5.6357878e+41
-5.128281e+42
-4.8366501e+43
6.226736e+42
4.3862514e+42
-1.4625041e+42
-2.1025818e+42
3.8660157e+42
1.1305535e+43
-1.1442883e+42
1.3975051e+42
-1.3808005e+43
-7.6708476e+41
-6.3571749e+41
7.5001286e+41
6.730011e+41
-1.0243378e+42
1.2806922e+42
-7.7352027e+41
7.0229692e+41
6.6314212e+41
-8.8991866e+41
1.1316412e+43
-1.2300013e+42
-1.411058e+43
7.7307796e+41
-6.7615224e+41
-7.6839128e+41
6.5709587e+41
-1.2329968e+42
-9.1542483e+41
-8.455825e+41
7.1048837e+41
6.1130044e+41
9.7347863e+41
1.1407489e+43
-1.2311454e+42
-1.4055176e+43
-7.7158834e+41
-6.6186932e+41
8.0481479e+41
6.2168057e+41
1.1580744e+43
-1.4214164e+43
-8.1075558e+41
-6.7275309e+41
7.390742e+41
6.5130188e+41
-9.0967039e+41
1.5357396e+43
6.9147576e+41
-8.2534923e+41
-9.3454826e+41
6.377384e+41
1.5118258e+43
-1.1107313e+42
-8.9738786e+41
-8.2330865e+41
7.2262354e+41
6.1502064e+41
-4.9964457e+43
-6.0587628e+42
3.829784e+42
4.3865401e+42
-1.8434564e+42
-2.0420246e+42
-3.151321e+42
-5.3841267e+43
5.3249315e+42
-6.4340234e+42
-5.2821492e+42
-5.3742175e+43
-6.7490026e+42
-1.183729e+43
-6.7417265e+41
6.7061728e+41
-8.4263365e+41
-9.4603689e+41
5.8297313e+41
-7.34361e+41
6.4686304e+41
-8.5783699e+41
-9.5857092e+41
5.9396569e+41
-1.1694255e+43
-8.397166e+41
6.9801744e+41
-8.6687557e+41
-9.1944488e+41
5.537607e+41
-8.8133885e+41
6.4924908e+41
-8.8423366e+41
-9.2514657e+41
5.6835422e+41
-4.8426323e+42
-4.9117465e+43
4.3579799e+42
3.8946054e+42
-1.613151e+42
-2.1957421e+42
-4.7443874e+43
4.4336452e+42
-1.6208066e+42
-1.7657322e+42
3.7528868e+42
-4.1394943e+42
-5.4559774e+43
-6.5203459e+42
-5.1461257e+43
-6.5165063e+42
6.9924248e+41
1.1833873e+43
-1.5365198e+43
-8.8501572e+41
-9.3694374e+41
-8.7554341e+41
5.876369e+41
7.1988624e+41
1.1771884e+43
-1.5214404e+43
-9.462559e+41
-8.3971561e+41
7.1340541e+41
6.2504991e+41
-5.9959438e+41
-9.2029487e+41
-8.3082553e+41
6.1698115e+41
5.871562e+41
-7.6047867e+41
6.3923975e+41
-8.6571186e+41
-9.1265693e+41
5.5996352e+41
9.6385194e+41
1.1573452e+43
-1.1429167e+42
-1.4329022e+43
-7.7543362e+41
-6.7801236e+41
7.9616702e+41
6.2783483e+41
1.1447212e+43
-1.4076258e+43
-7.9530089e+41
-6.5986619e+41
7.7655315e+41
6.4932438e+41
-8.5367268e+41
6.8845761e+41
-8.1955662e+41
-9.2360914e+41
6.369381e+41
-1.0055246e+42
7.1321324e+41
-8.4386467e+41
-9.0537339e+41
6.1057325e+41
1.1452609e+43
-9.2003444e+41
-1.3986831e+43
-7.8638051e+41
-6.6397038e+41
7.3365849e+41
6.609694e+41
-7.2931137e+41
1.5251325e+43
-9.0983499e+41
-8.1981247e+41
6.840489e+41
6.4732756e+41
-1.0893193e+43
1.4701343e+43
7.8622077e+41
-8.1484625e+41
-8.802678e+41
6.4006983e+41
-1.3283447e+43
7.6260986e+41
-6.4645253e+41
-7.3692546e+41
6.2495877e+41
5.433402e+41
1.1593933e+43
-9.3191683e+41
-8.7735246e+41
6.6428704e+41
5.7004941e+41
1.1741999e+43
-9.4613884e+41
-8.6941508e+41
6.3304644e+41
6.0183692e+41
-5.8214581e+41
5.9067723e+41
-8.7206001e+41
-9.3833354e+41
5.6717641e+41
-9.2783635e+41
-9.0450805e+41
6.0904703e+41
5.3853504e+41
-1.9923863e+43
2.4930662e+43
4.8257037e+43
4.6610249e+43
-1.7558772e+43
4.8381951e+43
4.5277235e+43
-1.7440317e+43
-1.3947578e+40
5.0733854e+41
-6.1000256e+41
1.9996471e+40
-6.7746009e+40
5.1482615e+41
-1.9650377e+40
-6.1764591e+41
-6.6765675e+40
-2.2743309e+40
3.09915e+40
-3.4248843e+40
-2.7754175e+40
-3.2095513e+40
-2.3652308e+40
-5.1311798e+41
-3.5327772e+40
-5.0781468e+41
-2.854951e+40
-3.3467249e+40
-1.2449315e+40
-6.2131817e+41
-7.0999394e+40
-6.0574793e+41
-1.8582778e+40
-6.9690909e+40
-2.5526921e+42
-7.485239e+40
1.0483386e+41
-1.25383e+41
-8.0136781e+40
-3.281209e+42
1.0620764e+41
-1.0603303e+41
2.5812334e+42
-9.5067889e+40
-3.3304027e+42
-1.0902988e+41
-9.638601e+40
-1.1931181e+41
1.1631159e+41
-1.0612947e+41
4.2505856e+41
4.1826994e+41
-2.0423153e+42
-1.3236878e+41
-1.2518882e+41
9.368255e+39
2.767649e+39
1.1630391e+41
4.2660027e+41
4.2148057e+41
-2.0348462e+42
-1.296942e+41
-1.2190471e+41
1.1222395e+40
4.6144578e+39
-1.3189133e+40
5.0752278e+41
-6.1139189e+41
-7.0584189e+40
5.1305515e+41
-6.1598356e+41
-6.9467494e+40
-2.1882181e+40
-3.5184859e+40
-3.3261589e+40
6.9129677e+40
2.5425731e+42
-3.2623144e+42
-8.9014259e+40
-1.1919663e+41
2.5922507e+42
-3.3474556e+42
-1.0980342e+41
-8.0165877e+40
-1.242332e+41
-9.0055927e+40
-1.2779278e+41
1.0283585e+41
-1.0422068e+41
-2.0301977e+42
-1.3277063e+41
-1.2511915e+41
9.2063707e+39
2.5078981e+39
4.2450642e+41
4.1906017e+41
-2.0425944e+42
-1.3184533e+41
-1.244809e+41
1.0186314e+40
3.3896353e+39
6.7066212e+40
2.6087071e+42
-8.0783171e+40
-3.3263946e+42
-1.2205667e+41
2.6691367e+42
8.9330678e+40
-3.4203008e+42
-8.494296e+40
-7.6161673e+40
9.8309314e+40
-7.7304822e+40
-8.3786312e+40
-9.4472209e+40
7.7525766e+40
2.6470225e+42
-3.3874087e+42
-1.1385053e+41
2.6308349e+42
-3.3520154e+42
1.0093917e+41
-8.1690723e+40
-7.833425e+40
1.1121407e+41
-7.259681e+40
-8.5543464e+40
-9.943388e+40
-2.0414871e+42
-1.3051776e+41
-1.2234201e+41
1.0989528e+40
4.5521744e+39
-2.5652211e+42
-7.0138132e+40
-1.1562951e+41
-7.7097722e+40
-3.2808641e+42
-8.7985372e+40
2.5649526e+42
-8.7708132e+40
-3.3069367e+42
-1.2172676e+41
-9.0935632e+40
-1.2275954e+41
-2.0261249e+42
-1.3287919e+41
-1.2558727e+41
8.6207892e+39
2.2731226e+39
-2.5626178e+42
-1.1385393e+41
-3.287717e+42
-8.8094717e+40
-2.6258491e+42
-6.9602419e+40
-7.3869123e+40
-6.5482937e+40
-3.3530909e+42
-1.1092801e+41
2.6398662e+42
-7.7718396e+40
-3.3908444e+42
-1.2240624e+41
-8.5902702e+40
-1.0329958e+41
-2.6239489e+42
-1.034673e+41
-6.9643153e+40
-3.36716e+42
-1.227305e+41
-3.2719353e+42
-1.4008803e+41
-2.68146e+42
-6.8073635e+40
9.1058206e+40
-7.1935565e+40
-7.3676792e+40
-3.3997807e+42
8.0227983e+40
-6.5271825e+40
2.689775e+42
-3.4433101e+42
-7.9858904e+40
-1.2434824e+41
-8.4787459e+40
-9.1207354e+40
-2.7318396e+42
-6.5842472e+40
7.6868147e+40
-5.4900969e+40
-6.0819555e+40
6.9220355e+40
-3.4827733e+42
-1.0777573e+41
2.7594158e+42
-6.9468111e+40
-3.5465257e+42
-1.3276121e+41
-7.9417577e+40
-1.0987396e+41
-2.707674e+42
-7.8681298e+40
-7.206608e+40
-7.2303924e+40
-3.4518661e+42
-6.7736647e+40
2.6598119e+42
-3.3847375e+42
-9.7607566e+40
-1.3132986e+41
-8.7026062e+40
-9.8620211e+40
-2.7633611e+42
-7.4132677e+40
-1.0512398e+41
-5.7372567e+40
-3.5496364e+42
-1.3227033e+41
2.7219806e+42
-7.7184644e+40
-3.4822732e+42
-1.4476487e+41
-9.3318398e+40
-1.1685806e+41
5.7778909e+40
2.6883105e+42
-3.4295632e+42
-1.4418219e+41
2.734147e+42
6.7470693e+40
-3.5056319e+42
-1.2184116e+41
-7.9033787e+40
7.5989461e+40
3.4177839e+42
-5.4513226e+40
3.33698e+42
-1.2908135e+41
6.7449705e+40
2.749235e+42
-3.5306371e+42
-1.3733895e+41
2.7571385e+42
-3.5099384e+42
-6.001285e+40
-6.3286437e+40
3.424994e+42
-5.1891794e+40
3.4385343e+42
-8.2793707e+40
-2.6852259e+42
-5.5436659e+40
-1.1145416e+41
-6.4858431e+40
-9.1310494e+40
2.6915721e+42
-7.0699643e+40
-1.0747261e+41
-7.3734146e+40
-1.1348521e+41
6.3647448e+40
2.6233391e+42
-1.3419177e+41
2.6761363e+42
-9.7570921e+40
-7.9308289e+40
-1.1513199e+41
-1.3940289e+41
-7.999666e+40
-2.5848022e+42
1.0484384e+41
-1.1970111e+41
-2.6148503e+42
-1.0371008e+41
-1.1392802e+41
-8.235525e+40
-3.3130477e+42
9.9071115e+40
-1.115845e+41
-9.8255293e+40
-3.3698592e+42
-1.0870774e+41
8.2837059e+40
-2.5842844e+42
-9.2434466e+40
-1.2195146e+41
-2.6391665e+42
-1.1948815e+41
-6.9069402e+40
-3.4093305e+42
-1.0263551e+41
-3.3161771e+42
-8.6384775e+40
-1.116183e+41
6.48522e+40
2.6552508e+42
-6.9400966e+40
-3.3942833e+42
-1.1320088e+41
2.7231522e+42
9.2350746e+40
-3.4958533e+42
-7.7987202e+40
7.7391848e+40
-7.8676663e+40
-8.6756248e+40
1.0331083e+41
-6.897797e+40
7.8025305e+40
2.6891969e+42
-3.4549704e+42
-1.1387455e+41
2.660876e+42
-3.4029407e+42
9.9420955e+40
-1.0898954e+41
-7.9304149e+40
1.0489975e+41
-9.5031309e+40
-9.4106013e+40
-2.5662516e+40
5.2684709e+41
-6.6507588e+41
-1.8488633e+40
5.1660467e+41
-6.5051899e+41
-1.7013436e+40
2.6208697e+40
-1.1943275e+40
-1.3569671e+40
-1.3377974e+40
5.0610427e+41
-6.10866e+41
-7.0067685e+40
5.1369686e+41
-1.8906408e+40
-6.1823159e+41
-6.8912402e+40
-2.1557881e+40
-3.6683152e+40
-2.7396067e+40
-3.4498252e+40
-2.4287552e+40
-5.1135014e+41
-3.6844557e+40
-5.0552858e+41
-3.0085568e+40
-3.5018167e+40
-1.2746651e+40
-6.1945402e+41
-7.1743873e+40
-6.0331167e+41
-1.9762292e+40
-7.0625432e+40
-1.11443e+41
4.252661e+41
4.2035423e+41
-2.0482036e+42
-1.3175017e+41
-1.2437318e+41
8.7275464e+39
2.736953e+39
-2.5491981e+42
-7.5579142e+40
-1.3001282e+41
8.1291779e+40
2.555927e+42
-1.0078061e+41
-3.2911384e+42
-1.2808786e+41
-3.2564595e+42
-1.0323348e+41
-1.0386814e+41
-1.309588e+41
-1.165195e+41
4.2261534e+41
4.1549349e+41
-2.0268554e+42
-1.327756e+41
-1.2579017e+41
7.8517674e+39
1.6094186e+39
-1.3396715e+40
5.0473288e+41
-6.086522e+41
-6.8777453e+40
5.1040442e+41
-1.8747547e+40
-6.1315762e+41
-6.7758386e+40
-2.2577385e+40
-3.5207582e+40
-2.80957e+40
-3.2981007e+40
-2.5232211e+40
-5.0906416e+41
-3.6140225e+40
-5.0229443e+41
-3.4664407e+40
-1.2552667e+40
-6.1608558e+41
-7.0780369e+40
-5.9758562e+41
-6.9870919e+40
-2.5869038e+42
-9.3986506e+40
-1.1394927e+41
-8.44538e+40
-3.3236975e+42
-8.678345e+40
2.5292585e+42
-3.2448947e+42
-1.2436563e+41
-1.2852961e+41
1.1067883e+41
4.2165141e+41
4.1447758e+41
-2.0143176e+42
-1.3221168e+41
-1.2493017e+41
8.4664905e+39
1.9308652e+39
4.2311809e+41
4.1795039e+41
-2.0295084e+42
-1.2931609e+41
-1.2190672e+41
1.0110548e+40
4.0234946e+39
-2.6026629e+42
-7.6724857e+40
-8.8797779e+40
-7.1028517e+40
-3.3182292e+42
-1.2568211e+41
2.6290876e+42
-9.617547e+40
-3.3778623e+42
-1.3295448e+41
-1.0377002e+41
-1.104251e+41
-2.6517267e+42
-8.9970424e+40
-1.0235361e+41
-7.5549006e+40
-3.4064127e+42
-1.199372e+41
2.6007518e+42
-3.3204228e+42
-1.272372e+41
-1.0667078e+41
-2.8192246e+42
-8.5448915e+40
3.4994435e+42
1.1846973e+41
-4.4801802e+40
-8.3059689e+40
-3.5862869e+42
1.0355822e+41
-5.9712199e+40
2.8169646e+42
-8.8459023e+40
-3.5974318e+42
-1.2295695e+41
3.529605e+42
-9.7508576e+40
-8.0693725e+40
8.4666279e+40
2.7500593e+42
-8.5610835e+40
-1.0224816e+41
2.7372668e+42
1.1491668e+41
-5.3016449e+40
-7.0783798e+40
1.0939671e+41
-9.6604702e+40
-8.82983e+40
-1.10907e+41
-2.7823424e+42
-7.4124519e+40
-6.9949259e+40
-6.2600212e+40
-3.5628207e+42
-7.2359929e+40
2.7221109e+42
-3.4758132e+42
-7.4891565e+40
-1.0617937e+41
-7.0493467e+40
-9.7230081e+40
-2.8492607e+42
-7.5096048e+40
-6.8681989e+40
-6.0998243e+40
-3.6500616e+42
-8.2945134e+40
2.7903388e+42
-8.4283157e+40
-3.5509901e+42
-8.2020207e+40
-8.399748e+40
-6.9349989e+40
6.4795879e+40
2.7252886e+42
-3.4866247e+42
-1.3645731e+41
2.7867278e+42
9.2956774e+40
-3.5753722e+42
-7.4536098e+40
-7.62754e+40
1.0552584e+41
3.4749698e+42
-6.3534119e+40
3.3794641e+42
-9.0864726e+40
7.4819628e+40
2.759437e+42
-3.5442584e+42
-1.4826904e+41
2.7262145e+42
-3.4816558e+42
-1.4350956e+41
-7.271709e+40
3.3887536e+42
-1.2098956e+41
3.445641e+42
-1.2686414e+41
-2.6600028e+42
-6.1564061e+40
-1.3837208e+41
-7.3327315e+40
-1.281857e+41
2.690152e+42
-1.0161589e+41
-1.2638605e+41
-1.0146498e+41
-1.2977704e+41
6.5057656e+40
2.6561612e+42
-1.1291329e+41
2.7105994e+42
-9.7175019e+40
-8.2768262e+40
-1.0953605e+41
-1.2142964e+41
1.1340588e+43
1.1393748e+43
-4.2913956e+42
5.2737766e+42
-2.6563404e+42
1.058933e+43
1.0298904e+43
-1.1377958e+42
-1.0089069e+43
1.3867837e+42
8.328049e+41
-3.7265799e+41
-5.0077927e+41
7.4800694e+41
-1.0548163e+43
-1.2445685e+42
8.4164956e+41
-4.5249246e+41
-4.9573585e+41
7.2353432e+41
-6.2310602e+41
1.2167547e+42
-7.5782145e+41
-9.7844182e+41
-8.0475799e+41
9.8811548e+41
-1.0460864e+43
-1.2850092e+42
8.5932383e+41
-4.3711688e+41
-4.7945453e+41
7.1331097e+41
-1.0617296e+43
8.3137883e+41
-4.324088e+41
-5.5276579e+41
7.2573083e+41
-7.8918419e+41
-1.1760001e+43
-8.4175696e+41
-1.1184868e+43
-1.1510795e+42
-8.8392564e+41
-5.0801902e+42
1.0718781e+43
1.0095592e+43
-2.9650994e+42
-2.875915e+42
-8.2438515e+40
1.03233e+41
-4.6804427e+40
-9.2055022e+40
-3.6355249e+42
9.0126331e+40
-4.6777424e+40
2.8600489e+42
-3.6549844e+42
-9.5340259e+40
-1.3504459e+41
-9.7583851e+40
-9.2237395e+40
-2.9007292e+42
-1.0394562e+41
1.020432e+41
-3.1055599e+40
-1.0599663e+41
-3.6311086e+42
1.0264369e+41
-1.2568271e+41
2.9138104e+42
-1.2292556e+41
-3.6939414e+42
-1.6139053e+41
-1.2264234e+41
-1.1414712e+41
-2.8950324e+42
-8.554666e+40
-6.4269976e+40
-8.3634554e+40
-3.688795e+42
-7.008053e+40
-2.8394117e+42
-9.9347029e+40
-9.4248378e+40
-3.6137792e+42
-1.1027641e+41
-1.3803446e+41
-2.9443865e+42
-1.0703923e+41
-1.1089421e+41
-1.0332734e+41
-3.7348623e+42
-1.63056e+41