/*--------------------------------*- C++ -*----------------------------------*\
  =========                 |
  \\      /  F ield         | OpenFOAM: The Open Source CFD Toolbox
   \\    /   O peration     | Website:  https://openfoam.org
    \\  /    A nd           | Version:  7
     \\/     M anipulation  |
\*---------------------------------------------------------------------------*/
FoamFile
{
    version     2.0;
    format      ascii;
    class       volVectorField;
    location    "1000";
    object      U;
}
// * * * * * * * * * * * * * * * * * * * * * * * * * * * * * * * * * * * * * //

dimensions      [0 1 -1 0 0 0 0];

internalField   nonuniform List<vector> 
34387
(
(-1.1676095e+47 6.6073131e+45 1.5545818e+46)
(-1.2010995e+47 1.543058e+46 1.7545302e+46)
(-1.0714675e+47 7.1427719e+45 -1.3570355e+45)
(-1.07e+47 1.2539788e+46 -2.9326355e+45)
(-1.7985565e+47 1.6022971e+46 9.6076791e+45)
(-1.2020687e+47 1.5735262e+46 1.7830189e+46)
(-1.1870676e+47 6.8444672e+45 1.6093685e+46)
(-1.0934891e+47 7.4973849e+45 -1.8509997e+45)
(-1.0838943e+47 1.3263738e+46 -3.4492866e+45)
(-8.5808104e+46 2.9598931e+45 -6.982362e+45)
(-8.5927619e+46 4.3715824e+45 -7.7920586e+45)
(-1.0092541e+47 9.0848119e+45 2.2276404e+45)
(-9.729516e+46 4.1471955e+45 3.3410958e+44)
(-9.4922432e+46 5.8664591e+45 -1.1591846e+46)
(-9.2791479e+46 7.6837249e+45 -1.3102063e+46)
(-1.019615e+47 9.5015991e+45 1.7911876e+45)
(-8.5131012e+46 2.9368608e+45 -7.6304307e+45)
(-8.548024e+46 4.8636326e+45 -8.0281084e+45)
(-9.8863631e+46 4.6560421e+45 5.4379528e+43)
(-9.4892298e+46 6.3911641e+45 -1.2338989e+46)
(-9.4021729e+46 9.0927125e+45 -1.3895025e+46)
(-1.2809168e+47 1.1453222e+46 2.022728e+46)
(-9.9928062e+46 1.128288e+46 9.8922079e+45)
(-8.2305155e+46 6.7400728e+45 8.9977644e+44)
(-8.5494531e+46 8.7126545e+45 -1.1959884e+45)
(-1.0337423e+47 5.5259056e+45 8.5478291e+45)
(-1.026266e+47 1.0657182e+46 9.1635973e+45)
(-8.462157e+46 7.0023314e+45 -4.5445508e+44)
(-8.3536532e+46 8.4313739e+45 -2.2804095e+44)
(-1.0107114e+47 3.9057432e+45 9.0276651e+45)
(-1.254556e+47 7.166073e+45 1.8942331e+46)
(-8.5167627e+46 1.1244852e+46 -2.6346437e+46)
(-8.3494918e+46 5.4211079e+45 -2.7334076e+46)
(-1.4102242e+47 8.5651613e+45 -2.1360941e+46)
(-1.2139182e+47 1.5799763e+46 1.7446574e+46)
(-1.2136049e+47 7.0335443e+45 1.6153029e+46)
(-1.1162633e+47 7.0593415e+45 -3.1214889e+45)
(-1.0978495e+47 1.3584514e+46 -4.3182376e+45)
(-1.0532176e+47 1.630484e+46 1.7163617e+46)
(-1.0458822e+47 5.9302849e+45 1.5969108e+46)
(-9.6705758e+46 8.7800908e+45 -1.6693415e+46)
(-9.2990762e+46 1.4241706e+46 -1.8813469e+46)
(-1.0253633e+47 1.0142498e+46 3.1079851e+45)
(-9.7501214e+46 6.8567531e+45 -1.141932e+46)
(-9.5006447e+46 9.062951e+45 -1.3746207e+46)
(-1.0028591e+47 4.7902917e+45 8.0865549e+44)
(-9.9579978e+46 4.7782881e+45 6.1144818e+44)
(-1.0217104e+47 9.6718075e+45 2.6782782e+45)
(-9.4511237e+46 8.2414512e+45 -1.3880289e+46)
(-9.648364e+46 6.2537942e+45 -1.1947597e+46)
(-1.041262e+47 1.2129584e+46 1.0119628e+46)
(-8.5838893e+46 7.5802853e+45 -4.6955685e+44)
(-8.6114743e+46 9.367715e+45 -1.6628733e+45)
(-1.2871898e+47 1.1864722e+46 2.035501e+46)
(-1.0444833e+47 5.4607389e+45 8.7825427e+45)
(-1.2765772e+47 7.8383509e+45 1.9031092e+46)
(-1.0367542e+47 1.1113124e+46 9.1637882e+45)
(-8.5622255e+46 7.4083112e+45 -8.6600898e+44)
(-8.3942834e+46 9.6317394e+45 -9.3889911e+44)
(-1.0278337e+47 4.680582e+45 8.6577371e+45)
(-8.6473502e+46 1.1237022e+46 -2.7511146e+46)
(-8.5485126e+46 5.7627471e+45 -2.8753715e+46)
(-7.5311228e+46 3.6232818e+45 -1.068528e+44)
(-7.4669723e+46 2.1629987e+45 -6.6103251e+44)
(-8.8340944e+46 4.5999572e+45 -3.6780604e+44)
(-7.3634377e+46 2.6125934e+45 -6.6069081e+45)
(-7.3685814e+46 2.1311685e+45 -5.6866278e+45)
(-7.5022299e+46 3.4298793e+45 -4.1573541e+44)
(-8.784768e+46 2.2801908e+45 -1.0887258e+45)
(-7.3250268e+46 2.8007988e+45 -6.8094561e+45)
(-7.3641632e+46 1.8584397e+45 -6.4432497e+45)
(-8.5035919e+46 4.4552396e+45 -7.9673379e+45)
(-8.5222152e+46 2.4773126e+45 -7.1075566e+45)
(-7.3765458e+46 1.9107163e+45 -5.7946759e+45)
(-8.6946606e+46 4.1713897e+45 -1.0700505e+45)
(-7.316845e+46 2.4678312e+45 -6.7081642e+45)
(-8.5886884e+46 2.6849146e+45 -1.4020093e+45)
(-8.4204695e+46 1.8681621e+45 -8.7382833e+45)
(-8.355031e+46 4.4615215e+45 -1.0272659e+46)
(-8.8967967e+46 4.5263189e+45 6.8551737e+43)
(-8.4053985e+46 2.4223513e+45 -9.8285805e+45)
(-8.8618124e+46 2.5314848e+45 -5.6848229e+44)
(-8.3793713e+46 4.2820805e+45 -1.0783387e+46)
(-8.2520562e+46 4.2675269e+45 -1.0841477e+46)
(-8.3279027e+46 2.1428141e+45 -9.4894011e+45)
(-8.8171766e+46 4.5118991e+45 9.3356939e+44)
(-8.6581436e+46 2.3386384e+45 -1.7852976e+45)
(-8.865541e+46 4.5703165e+45 -1.0704011e+45)
(-8.9211027e+46 2.6568617e+45 -1.0027155e+45)
(-8.7283304e+46 4.8692693e+45 -7.9206646e+45)
(-8.6768115e+46 2.4726172e+45 -8.7981883e+45)
(-7.1196834e+46 3.5164819e+45 -4.5354525e+45)
(-7.5056255e+46 3.4303736e+45 -5.4830742e+44)
(-7.4465484e+46 2.3136785e+45 -1.0049932e+45)
(-7.3412759e+46 1.9374116e+45 -6.3258183e+45)
(-8.6813745e+46 4.6330902e+45 -1.0672016e+45)
(-7.3052433e+46 2.7649458e+45 -7.0484884e+45)
(-7.5382776e+46 3.6910153e+45 -2.8215602e+44)
(-7.44903e+46 2.406898e+45 -8.4480409e+44)
(-8.7041399e+46 3.0229908e+45 -1.5935957e+45)
(-7.3180145e+46 2.8446426e+45 -6.8566896e+45)
(-7.3966326e+46 2.208912e+45 -5.9550092e+45)
(-8.4062548e+46 2.0823712e+45 -9.7961745e+45)
(-8.512835e+46 4.7294375e+45 -9.5426435e+45)
(-8.5911551e+46 3.0686854e+45 -8.0915276e+45)
(-9.1671903e+46 5.3443186e+45 8.1363292e+44)
(-9.1393979e+46 3.1732972e+45 1.0863973e+44)
(-8.6009916e+46 5.2238378e+45 -8.9085002e+45)
(-8.4756185e+46 4.653298e+45 -9.9569144e+45)
(-8.3626782e+46 2.9650004e+45 -1.0712909e+46)
(-8.7868033e+46 4.9532599e+45 -1.3515665e+45)
(-8.8757944e+46 2.5519691e+45 2.585737e+44)
(-6.2090393e+46 6.2018872e+45 -1.5970165e+46)
(-1.0009177e+47 8.5628969e+45 1.6600725e+46)
(-1.0192915e+47 5.6576971e+45 1.5313229e+46)
(-6.0876068e+46 2.1239555e+45 -1.7597856e+46)
(-9.0788099e+46 5.6214478e+45 -9.4438025e+44)
(-8.3138759e+46 4.3038434e+45 -9.6500423e+45)
(-9.1184299e+46 4.0456051e+45 -1.233037e+45)
(-8.350302e+46 6.7957264e+45 -1.0629129e+46)
(-7.6548414e+46 7.0151148e+45 -2.1293323e+45)
(-7.5678758e+46 5.9393236e+45 -1.0764933e+45)
(-9.0455707e+46 9.0019268e+45 5.3351757e+45)
(-9.1016705e+46 5.1558256e+45 4.3919873e+45)
(-7.7844202e+46 6.2930408e+45 -2.3591632e+45)
(-9.3544299e+46 8.2749303e+45 4.8484962e+45)
(-9.3647608e+46 4.0873459e+45 5.606887e+45)
(-7.7334751e+46 7.7251731e+45 -2.2400075e+45)
(-8.4086964e+46 4.8384842e+45 -9.4050482e+45)
(-8.8837829e+46 6.2825002e+45 -2.018778e+45)
(-8.9574963e+46 3.3513561e+45 -1.6479065e+45)
(-8.5245717e+46 5.6270844e+45 -9.0608942e+45)
(-8.3460659e+46 5.2262249e+45 -9.8383093e+45)
(-8.3951079e+46 3.5654233e+45 -9.1915154e+45)
(-8.9645133e+46 5.0271306e+45 -1.0395594e+45)
(-8.9291543e+46 2.4648797e+45 -1.4175066e+45)
(-7.7514953e+46 5.6304405e+45 -1.9684693e+45)
(-7.6909491e+46 6.761719e+45 -2.5849746e+45)
(-1.0085325e+47 1.0155502e+46 1.5940124e+46)
(-9.2951882e+46 3.6409034e+45 4.6964216e+45)
(-9.3267756e+46 7.757641e+45 5.1590009e+45)
(-7.5616784e+46 5.3282362e+45 -1.7021047e+45)
(-7.3969147e+46 6.5679599e+45 -1.3421187e+45)
(-9.9425061e+46 7.5779149e+45 1.6325798e+46)
(-9.072779e+46 3.1139418e+45 5.4614463e+45)
(-9.1651169e+46 6.8103919e+45 5.0882212e+45)
(-8.813784e+46 4.7008179e+45 -1.4697486e+45)
(-8.2804813e+46 3.155474e+45 -8.8626741e+45)
(-8.2142667e+46 4.6286969e+45 -9.0465646e+45)
(-8.7173466e+46 2.4690955e+45 -2.0321501e+45)
(-6.0676344e+46 1.1962592e+46 -1.6951271e+46)
(-6.0848915e+46 7.9061543e+45 -1.6938756e+46)
(-9.7638449e+46 1.3022776e+46 -8.8509707e+45)
(-9.5375461e+46 3.0323196e+45 -8.5004547e+45)
(-1.2764578e+47 1.6962394e+46 -4.5863801e+45)
(-1.3665784e+47 8.5299002e+45 4.6698659e+45)
(-1.4431504e+47 9.2290136e+45 -2.262733e+46)
(-1.0297627e+47 1.0460515e+46 2.9394357e+45)
(-1.019976e+47 5.0918128e+45 1.4272821e+45)
(-9.9028234e+46 7.4276642e+45 -1.1841303e+46)
(-9.6382716e+46 9.5147862e+45 -1.4293567e+46)
(-1.0301322e+47 1.0281376e+46 2.8848923e+45)
(-1.0094599e+47 5.2765055e+45 1.236987e+45)
(-9.777076e+46 6.6181901e+45 -1.2231219e+46)
(-9.5833488e+46 9.2702159e+45 -1.3940013e+46)
(-1.0559839e+47 1.242507e+46 9.5089025e+45)
(-8.8091186e+46 7.3403177e+45 -1.1809438e+45)
(-8.7476154e+46 9.6674763e+45 -2.1903563e+45)
(-1.0602054e+47 5.5849684e+45 8.3097279e+45)
(-1.2948669e+47 1.129975e+46 1.9493345e+46)
(-1.0464135e+47 1.1581137e+46 8.8980868e+45)
(-8.6730971e+46 7.8126108e+45 -1.5187109e+45)
(-8.5172279e+46 9.8593806e+45 -1.7505832e+45)
(-1.0432308e+47 5.2674797e+45 8.4652048e+45)
(-1.2987262e+47 7.8165553e+45 1.880881e+46)
(-8.7403949e+46 1.1367887e+46 -2.8212347e+46)
(-8.7032967e+46 6.1205368e+45 -2.9341223e+46)
(-8.878306e+46 2.6827516e+45 -7.2270109e+44)
(-8.8198768e+46 4.991926e+45 -1.9102615e+44)
(-8.5804739e+46 2.8886964e+45 -8.5707139e+45)
(-8.632792e+46 5.1614478e+45 -9.7348563e+45)
(-8.5142281e+46 5.188181e+45 -1.0752024e+46)
(-8.487626e+46 3.6018798e+45 -9.2007293e+45)
(-8.9976785e+46 5.9515718e+45 1.1603738e+45)
(-9.0419215e+46 3.1946665e+45 3.1975296e+43)
(-8.4384904e+46 5.207021e+45 -1.0149915e+46)
(-8.4634439e+46 3.0978575e+45 -9.7777609e+45)
(-8.9770196e+46 5.4120623e+45 1.3345229e+45)
(-8.9370765e+46 2.7910869e+45 1.0326244e+45)
(-8.5719238e+46 4.850757e+45 -9.1756624e+45)
(-8.5866403e+46 2.4530296e+45 -8.6891485e+45)
(-8.7601094e+46 4.9199721e+45 -1.9467897e+45)
(-8.7230732e+46 3.1204861e+45 -2.3310597e+45)
(-8.7656102e+46 5.1968113e+45 -7.9634236e+44)
(-8.887072e+46 3.2427771e+45 -7.279835e+44)
(-8.4829873e+46 2.5885979e+45 -9.6885797e+45)
(-8.5716128e+46 4.9635089e+45 -7.9034404e+45)
(-8.8030634e+46 2.845239e+45 -1.2394724e+45)
(-8.8422353e+46 4.9418256e+45 -4.2836352e+44)
(-8.5341351e+46 4.9362016e+45 -9.8610273e+45)
(-8.559943e+46 2.4075953e+45 -8.93242e+45)
(-8.4462143e+46 2.9791585e+45 -1.0222005e+46)
(-8.8616382e+46 5.0742265e+45 -8.6053164e+44)
(-8.9311716e+46 2.9763305e+45 -1.1528766e+45)
(-8.488427e+46 4.7370551e+45 -1.1298702e+46)
(-8.461334e+46 4.8810162e+45 -1.05743e+46)
(-8.4730927e+46 3.0760539e+45 -9.8161953e+45)
(-8.9752226e+46 5.1092258e+45 4.4770174e+44)
(-8.9573679e+46 2.7413326e+45 -2.1014576e+44)
(-8.3403142e+46 6.5084159e+45 -1.06361e+46)
(-8.4433306e+46 4.9224324e+45 -8.4135451e+45)
(-9.0186582e+46 6.5300499e+45 -9.5332109e+43)
(-9.0862439e+46 3.6451742e+45 -1.17126e+45)
(-1.0153514e+47 9.0919385e+45 1.6709434e+46)
(-7.7268771e+46 7.3954426e+45 -1.7591201e+45)
(-9.3557992e+46 9.4449582e+45 6.049701e+45)
(-7.6555129e+46 7.6900292e+45 -2.3118902e+45)
(-9.137773e+46 5.0725904e+45 4.5396079e+45)
(-7.7813956e+46 8.2540324e+45 -2.8847525e+45)
(-7.7868648e+46 6.9089064e+45 -2.8194707e+45)
(-9.39798e+46 8.8662329e+45 5.0758865e+45)
(-9.3921429e+46 4.4596783e+45 5.0712399e+45)
(-1.0347362e+47 6.2974452e+45 1.5575321e+46)
(-6.2770594e+46 6.6056683e+45 -1.6485567e+46)
(-6.1655562e+46 2.5514074e+45 -1.8183986e+46)
(-8.9620865e+46 6.2302766e+45 -1.4414052e+45)
(-8.4612339e+46 4.8366736e+45 -9.3762008e+45)
(-8.9469811e+46 3.7471351e+45 -1.5108397e+45)
(-8.4431742e+46 6.1156284e+45 -9.822888e+45)
(-1.0155687e+47 1.0765327e+46 1.6168585e+46)
(-9.9844729e+46 8.3205602e+45 1.6326596e+46)
(-6.0771018e+46 1.2440333e+46 -1.7393899e+46)
(-6.1107986e+46 8.1866251e+45 -1.7256677e+46)
(-8.4267596e+46 5.9745971e+45 -9.9316776e+45)
(-8.4923559e+46 4.2451261e+45 -9.0645978e+45)
(-9.0436546e+46 5.8871494e+45 -6.5039097e+44)
(-9.0366869e+46 3.1619452e+45 -1.0055202e+45)
(-7.7814239e+46 7.4189199e+45 -3.1292679e+45)
(-7.824529e+46 6.0941113e+45 -2.7086906e+45)
(-9.4148457e+46 8.2689282e+45 5.0133273e+45)
(-9.4246243e+46 4.0676753e+45 4.8362943e+45)
(-7.6672736e+46 6.0788542e+45 -2.4311241e+45)
(-9.3448252e+46 7.4954655e+45 4.9996639e+45)
(-8.9696865e+46 4.3191691e+45 4.9014608e+45)
(-7.3819762e+46 8.4022757e+45 -1.8615765e+45)
(-8.4558043e+46 5.1865443e+45 -9.8891653e+45)
(-8.4243578e+46 3.9195781e+45 -9.3430317e+45)
(-8.9212377e+46 5.736326e+45 -1.844077e+45)
(-8.9667061e+46 2.9118427e+45 -2.1804791e+45)
(-9.8291265e+46 1.349835e+46 -9.3668097e+45)
(-9.7170542e+46 3.6619129e+45 -9.4038557e+45)
(-5.3332964e+46 2.2511092e+45 -3.9801115e+45)
(-5.2994037e+46 1.3779626e+45 -4.2564441e+45)
(-5.8224192e+46 2.9203375e+45 -5.2227984e+44)
(-5.8083792e+46 2.1989568e+45 -7.0716561e+44)
(-5.8005092e+46 2.8336588e+45 -5.4024193e+44)
(-5.789924e+46 2.228307e+45 -7.1243227e+44)
(-5.2828957e+46 2.054963e+45 -4.4481581e+45)
(-5.2565184e+46 1.1354516e+45 -4.6948635e+45)
(-7.5191791e+46 2.857151e+45 -2.3526864e+45)
(-7.4107562e+46 1.8816028e+45 -5.9477064e+45)
(-7.4013359e+46 2.6927318e+45 -6.4915591e+45)
(-7.4864897e+46 1.6274479e+45 -2.7266364e+45)
(-6.3066039e+46 3.0203694e+45 -2.4815903e+45)
(-6.3168211e+46 3.395449e+45 -1.9808082e+45)
(-5.2842058e+46 2.1374607e+45 -4.4233567e+45)
(-5.2502894e+46 1.2269419e+45 -4.6790643e+45)
(-5.8031118e+46 2.7646618e+45 -6.0400855e+44)
(-5.7842192e+46 2.0917593e+45 -8.013293e+44)
(-7.3556976e+46 2.6716996e+45 -6.7107011e+45)
(-7.4009844e+46 1.645881e+45 -6.2218688e+45)
(-7.5248631e+46 2.8914787e+45 -2.5664573e+45)
(-7.4609698e+46 1.8721899e+45 -2.9100901e+45)
(-6.2834788e+46 2.9813773e+45 -2.5175557e+45)
(-6.3004636e+46 2.9759391e+45 -2.3900028e+45)
(-7.3933011e+46 2.503389e+45 -7.0409741e+45)
(-7.4682358e+46 1.6841869e+45 -5.7738053e+45)
(-7.6954332e+46 2.8427107e+45 -1.8760626e+45)
(-7.6068059e+46 1.5960644e+45 -2.5510348e+45)
(-7.4281739e+46 2.4213209e+45 -6.7599701e+45)
(-7.4820842e+46 1.9429297e+45 -5.4479197e+45)
(-7.7117387e+46 3.0676058e+45 -1.5119074e+45)
(-7.6381567e+46 1.5978503e+45 -2.3136435e+45)
(-6.3204841e+46 3.043162e+45 -1.99793e+45)
(-7.5395161e+46 2.6847227e+45 -2.2057214e+45)
(-7.4105996e+46 1.7869386e+45 -5.3050901e+45)
(-7.3455947e+46 2.4469339e+45 -6.8122355e+45)
(-7.4454197e+46 1.4666162e+45 -2.8282956e+45)
(-6.2624282e+46 2.8198451e+45 -2.5359516e+45)
(-7.495166e+46 2.8961713e+45 -2.2864086e+45)
(-7.3032366e+46 1.7454872e+45 -5.525365e+45)
(-7.64575e+46 2.5993616e+45 -1.711831e+45)
(-7.4486235e+46 1.4010973e+45 -6.3295363e+45)
(-7.4178393e+46 2.2538397e+45 -7.2139916e+45)
(-7.5854807e+46 1.3738335e+45 -2.9783734e+45)
(-7.5632358e+46 2.7038324e+45 -2.6984423e+45)
(-7.3767185e+46 1.5287562e+45 -7.0007059e+45)
(-7.3313841e+46 2.6864644e+45 -7.7480512e+45)
(-7.7751711e+46 2.643635e+45 -2.0596735e+45)
(-7.5459851e+46 1.5335371e+45 -5.3950072e+45)
(-7.4799826e+46 2.345578e+45 -7.4738451e+45)
(-7.6756668e+46 1.2829296e+45 -2.9246722e+45)
(-7.8735446e+46 2.4433218e+45 -1.8106315e+45)
(-7.6114409e+46 1.0236833e+45 -7.1328872e+45)
(-7.6052184e+46 2.2451899e+45 -8.1498737e+45)
(-7.8117575e+46 1.2367467e+45 -3.6141421e+45)
(-7.7673865e+46 2.7364115e+45 -2.3106498e+45)
(-7.4654922e+46 1.3804343e+45 -5.8041294e+45)
(-7.465941e+46 2.8565813e+45 -7.8622536e+45)
(-7.6681386e+46 1.790232e+45 -3.1924366e+45)
(-7.8346031e+46 2.3511892e+45 -3.4785663e+45)
(-7.5852989e+46 8.6287296e+44 -8.1875555e+45)
(-7.571182e+46 2.6045729e+45 -8.6066482e+45)
(-7.8001851e+46 1.7838739e+45 -3.9529238e+45)
(-7.5235695e+46 2.5582046e+45 -8.6728154e+45)
(-7.5188769e+46 9.405685e+44 -7.8331763e+45)
(-7.7734492e+46 2.5143263e+45 -2.2616036e+45)
(-7.7381936e+46 1.7773541e+45 -4.5442935e+45)
(-7.5573361e+46 2.2789751e+45 -8.344748e+45)
(-7.6558412e+46 1.2324216e+45 -5.5975126e+45)
(-7.9269468e+46 2.4577512e+45 -1.5861739e+45)
(-7.8020261e+46 1.1641611e+45 -2.8723604e+45)
(-7.7277835e+46 2.1877461e+45 -3.5540312e+45)
(-7.5418401e+46 1.4121594e+45 -6.2119257e+45)
(-7.4756133e+46 2.2856818e+45 -7.1607095e+45)
(-7.6718936e+46 1.1152657e+45 -4.125303e+45)
(-7.4238579e+46 2.5662716e+45 -7.9724907e+45)
(-7.4415775e+46 1.1943923e+45 -6.6545914e+45)
(-7.6452239e+46 2.5489095e+45 -3.9781939e+45)
(-7.585929e+46 1.8732835e+45 -4.8044791e+45)
(-7.6118834e+46 3.0127519e+45 -2.0550144e+45)
(-7.5777591e+46 1.6855159e+45 -2.363973e+45)
(-7.5259693e+46 1.8275378e+45 -6.0962726e+45)
(-7.514579e+46 2.6186806e+45 -6.4859338e+45)
(-7.5776477e+46 1.8914862e+45 -2.6300164e+45)
(-7.655769e+46 3.0746421e+45 -2.2659473e+45)
(-7.5458002e+46 1.7346292e+45 -6.0427464e+45)
(-7.484679e+46 2.6497565e+45 -6.5395645e+45)
(-7.5441878e+46 2.3824099e+45 -6.7711429e+45)
(-7.6357377e+46 1.8112771e+45 -5.580555e+45)
(-7.7290465e+46 1.5494512e+45 -2.2450686e+45)
(-7.8439592e+46 3.0538151e+45 -1.5453171e+45)
(-7.5920018e+46 2.4035503e+45 -6.8928946e+45)
(-7.6101237e+46 1.759748e+45 -6.2995604e+45)
(-7.7753584e+46 2.8953958e+45 -2.1512391e+45)
(-7.7272885e+46 1.5546515e+45 -2.5926957e+45)
(-5.6762124e+46 2.7023663e+45 -3.3594077e+45)
(-5.6658448e+46 3.1286179e+45 -3.4313139e+45)
(-5.8981981e+46 2.4873712e+45 -1.3607646e+45)
(-5.9365842e+46 3.2966116e+45 -1.2799394e+45)
(-5.312518e+46 2.189118e+45 -4.3069651e+45)
(-5.2793343e+46 1.314704e+45 -4.5567473e+45)
(-5.8007518e+46 2.7423365e+45 -7.9540026e+44)
(-5.7876974e+46 2.1080331e+45 -9.6358269e+44)
(-5.7780355e+46 2.8764972e+45 -7.1104641e+44)
(-5.7640563e+46 2.3054705e+45 -8.7065877e+44)
(-5.2604057e+46 2.0420467e+45 -4.5660951e+45)
(-5.2320204e+46 1.2159708e+45 -4.8173672e+45)
(-6.3438375e+46 3.3150932e+45 -2.3312094e+45)
(-7.5030909e+46 2.8163766e+45 -2.484086e+45)
(-7.3103664e+46 2.6889663e+45 -7.133263e+45)
(-7.3568285e+46 1.7974761e+45 -5.897559e+45)
(-7.4223967e+46 1.7406434e+45 -2.9907737e+45)
(-6.2736059e+46 3.1313807e+45 -2.7097938e+45)
(-5.2622419e+46 2.1931293e+45 -4.168818e+45)
(-5.2290655e+46 1.2861958e+45 -4.4325589e+45)
(-5.7732551e+46 2.8550799e+45 -6.18192e+44)
(-5.7597419e+46 2.1505534e+45 -7.9632089e+44)
(-5.771604e+46 2.944314e+45 -6.7279861e+44)
(-5.7614883e+46 2.4147611e+45 -8.2831481e+44)
(-5.2487902e+46 2.0044654e+45 -4.4683209e+45)
(-5.2257245e+46 1.2096606e+45 -4.717492e+45)
(-7.5507197e+46 3.27942e+45 -2.1312721e+45)
(-7.3717186e+46 2.0380111e+45 -5.4784477e+45)
(-7.3646943e+46 2.9584314e+45 -6.971656e+45)
(-7.439619e+46 2.1127012e+45 -2.8237624e+45)
(-6.2559933e+46 3.0738797e+45 -2.6399956e+45)
(-6.2920605e+46 3.3334106e+45 -2.0501311e+45)
(-7.5877224e+46 2.7079167e+45 -1.9967758e+45)
(-7.3726124e+46 1.3572042e+45 -6.8944681e+45)
(-7.3922534e+46 2.488984e+45 -7.6565063e+45)
(-7.5411863e+46 1.6441139e+45 -3.081917e+45)
(-7.6355694e+46 3.0401769e+45 -2.4764216e+45)
(-7.4481373e+46 1.7696979e+45 -6.8039173e+45)
(-7.4300935e+46 2.8227349e+45 -7.3077934e+45)
(-7.590581e+46 2.0044422e+45 -2.9466894e+45)
(-8.1462623e+46 3.0827676e+45 -1.4553705e+45)
(-7.8557338e+46 1.7867334e+45 -5.6126355e+45)
(-7.743858e+46 2.6425357e+45 -7.5796678e+45)
(-8.0176118e+46 1.6826086e+45 -2.6623599e+45)
(-7.6823887e+46 2.5258234e+45 -6.8467828e+45)
(-7.7529755e+46 1.9722959e+45 -5.1136627e+45)
(-7.8962482e+46 2.709673e+45 -3.0407627e+45)
(-7.8195376e+46 1.3172369e+45 -3.8925587e+45)
(-7.9345998e+46 2.8414504e+45 -2.3072501e+45)
(-7.7140442e+46 1.4149358e+45 -5.8081864e+45)
(-7.6534835e+46 2.5389168e+45 -7.0167695e+45)
(-7.8271466e+46 1.6587484e+45 -3.1237153e+45)
(-8.098843e+46 2.7398842e+45 -2.2016278e+45)
(-7.8136935e+46 1.335929e+45 -6.4383598e+45)
(-7.7442046e+46 2.711083e+45 -6.6375653e+45)
(-8.02993e+46 1.7489063e+45 -2.4419699e+45)
(-7.6209875e+46 2.4640004e+45 -8.106386e+45)
(-7.661858e+46 1.4465552e+45 -5.9435068e+45)
(-7.9174139e+46 2.8543667e+45 -1.8482179e+45)
(-7.8307551e+46 1.46038e+45 -2.8563331e+45)
(-7.6022142e+46 2.7725695e+45 -8.6602087e+45)
(-7.5811427e+46 1.1899128e+45 -8.0724946e+45)
(-7.8103803e+46 2.3229832e+45 -3.7260895e+45)
(-7.796567e+46 1.6668505e+45 -4.3355489e+45)
(-7.6473482e+46 2.0843236e+45 -4.3051213e+45)
(-7.4824284e+46 1.2076592e+45 -7.3732839e+45)
(-7.4938076e+46 2.7188325e+45 -7.8326251e+45)
(-7.6361107e+46 1.4256361e+45 -4.5806671e+45)
(-7.5023687e+46 2.5036839e+45 -7.1566176e+45)
(-7.5327299e+46 1.4960579e+45 -6.469386e+45)
(-7.7241123e+46 2.9056217e+45 -3.5029612e+45)
(-7.6741136e+46 1.8433897e+45 -4.0325385e+45)
(-7.838114e+46 8.4796494e+45 -4.8344108e+45)
(-8.6740765e+46 7.292572e+45 1.3403039e+46)
(-8.8716311e+46 5.6246696e+45 1.2351061e+46)
(-5.4526618e+46 4.2116197e+45 -1.0310164e+46)
(-5.3743346e+46 1.6452966e+45 -1.1600833e+46)
(-8.9328731e+46 6.6529336e+45 1.2472749e+46)
(-8.9133204e+46 8.5366295e+45 1.1908975e+46)
(-5.4499451e+46 9.390058e+45 -1.1617864e+46)
(-5.5044617e+46 6.0891428e+45 -1.1737612e+46)
(-7.6451538e+46 1.3553242e+45 -5.4368829e+45)
(-8.2608998e+46 2.8296843e+45 -1.9614257e+45)
(-7.938807e+46 1.6157977e+45 -5.9254991e+45)
(-7.7961608e+46 3.041985e+45 -8.4619507e+45)
(-8.092167e+46 1.7341294e+45 -3.2372189e+45)
(-8.3544974e+46 3.2196373e+45 -1.4247184e+45)
(-7.8644283e+46 1.9222609e+45 -8.3943794e+45)
(-7.8065972e+46 3.6257171e+45 -9.4895253e+45)
(-8.242312e+46 2.3177119e+45 -3.5632072e+45)
(-8.230995e+46 2.7663349e+45 -2.5572058e+45)
(-7.8240808e+46 1.2396856e+45 -6.8438742e+45)
(-8.1041066e+46 2.1971591e+45 -3.4940068e+45)
(-7.809432e+46 3.4881718e+45 -9.0001587e+45)
(-8.3222362e+46 3.0146451e+45 -3.5918286e+45)
(-7.8637793e+46 1.6991681e+45 -9.6659067e+45)
(-7.8609618e+46 4.2705993e+45 -9.7248494e+45)
(-8.276274e+46 2.8666587e+45 -3.92046e+45)
(-7.1447241e+46 6.6397284e+45 -8.7387259e+45)
(-7.1301444e+46 4.8147518e+45 -8.6593864e+45)
(-8.2477509e+46 6.1928348e+45 -7.3137155e+44)
(-8.2134777e+46 4.5573865e+45 -1.0573476e+45)
(-7.0477946e+46 6.069555e+45 -8.8074858e+45)
(-7.0042093e+46 5.1931474e+45 -8.6805009e+45)
(-8.1690803e+46 7.2761495e+45 -2.5361951e+44)
(-8.1490883e+46 4.4061912e+45 -8.6619132e+44)
(-8.2177295e+46 4.1108546e+45 -4.1472283e+45)
(-7.5881819e+46 3.8505161e+45 -9.2646697e+45)
(-7.5798111e+46 4.8556014e+45 -9.7937564e+45)
(-8.212276e+46 3.0311594e+45 -4.3789513e+45)
(-7.6866704e+46 5.4124961e+45 -9.7922606e+45)
(-7.6791775e+46 3.0044192e+45 -9.6234959e+45)
(-8.3001079e+46 3.9667223e+45 -4.4671311e+45)
(-8.2862282e+46 3.7387152e+45 -4.4812892e+45)
(-7.0955826e+46 6.2173487e+45 -8.9710239e+45)
(-7.2827969e+46 4.9708859e+45 -8.2919889e+45)
(-8.5220735e+46 6.2971909e+45 1.4244492e+44)
(-8.1542818e+46 3.7407286e+45 -1.1740699e+45)
(-8.2478531e+46 4.1549954e+45 -3.9240328e+45)
(-7.7350702e+46 3.4471616e+45 -8.7383911e+45)
(-7.557661e+46 4.7165537e+45 -9.9073529e+45)
(-8.1753607e+46 3.1515222e+45 -4.5718446e+45)
(-8.3706437e+46 3.700549e+45 -2.1891447e+45)
(-7.7399348e+46 2.5506706e+45 -8.1588896e+45)
(-8.3588738e+46 2.2666094e+45 -2.4109861e+45)
(-7.6733612e+46 4.1428709e+45 -8.8959109e+45)
(-8.4782404e+46 5.2771319e+45 5.0870448e+44)
(-7.1254958e+46 4.7445316e+45 -8.2143297e+45)
(-8.0596377e+46 3.6275665e+45 -3.8325103e+44)
(-6.926673e+46 6.5855546e+45 -8.7887244e+45)
(-8.1686094e+46 3.2456026e+45 -3.6046221e+45)
(-7.7798329e+46 2.2482463e+45 -8.3438153e+45)
(-7.7661499e+46 4.0430789e+45 -9.5603416e+45)
(-8.1601064e+46 2.5432325e+45 -4.436672e+45)
(-7.7318226e+46 3.3404479e+45 -8.9979012e+45)
(-7.7078475e+46 1.5022248e+45 -7.4717e+45)
(-7.9522955e+46 2.3947242e+45 -4.5514658e+45)
(-7.9468316e+46 1.7652731e+45 -5.3215853e+45)
(-8.044402e+46 2.7586387e+45 -2.3932606e+45)
(-7.7545788e+46 1.1341006e+45 -7.3139949e+45)
(-7.7731241e+46 2.6765034e+45 -8.3586164e+45)
(-8.0106993e+46 1.6672423e+45 -4.2040351e+45)
(-8.223993e+46 2.9293617e+45 -3.0265712e+45)
(-7.8529364e+46 1.7233276e+45 -7.0682281e+45)
(-7.8677084e+46 2.709032e+45 -7.5800297e+45)
(-8.2230595e+46 1.6150834e+45 -3.5311406e+45)
(-7.7226045e+46 2.8022243e+45 -9.2894129e+45)
(-7.713005e+46 5.1640657e+44 -8.8957235e+45)
(-8.1478907e+46 1.8519237e+45 -3.2792326e+45)
(-8.1566897e+46 1.4304228e+45 -3.555286e+45)
(-7.7504961e+46 2.6365002e+45 -9.1568819e+45)
(-7.7490415e+46 8.7575108e+44 -8.7333247e+45)
(-8.1779879e+46 2.100113e+45 -3.2055629e+45)
(-8.1662411e+46 1.301605e+45 -3.4259515e+45)
(-7.99444e+46 1.8864055e+45 -4.3676821e+45)
(-7.7475161e+46 8.3093268e+44 -7.7068506e+45)
(-7.7236386e+46 2.4396295e+45 -8.1653664e+45)
(-7.9632886e+46 1.0354183e+45 -4.6858678e+45)
(-7.6877599e+46 2.427638e+45 -8.6454746e+45)
(-7.6851133e+46 3.2593098e+44 -8.2205919e+45)
(-7.9756689e+46 1.9998476e+45 -4.5760116e+45)
(-7.9563041e+46 1.4702628e+45 -4.9688824e+45)
(-8.9051544e+46 7.760752e+45 1.2415054e+46)
(-7.151855e+46 4.7153045e+45 -8.2113611e+45)
(-8.4221998e+46 5.7781857e+45 2.9179716e+44)
(-8.0888151e+46 3.3529959e+45 -4.5649464e+44)
(-7.0277577e+46 5.6701055e+45 -8.7332854e+45)
(-8.9880864e+46 5.8255202e+45 1.2195946e+46)
(-7.1184514e+46 4.1885858e+45 -8.1544472e+45)
(-8.3934764e+46 4.5802876e+45 3.1754165e+44)
(-8.0255882e+46 3.0082692e+45 -3.3108467e+44)
(-6.9413007e+46 5.9971869e+45 -8.6224961e+45)
(-5.5020459e+46 7.0159553e+45 -1.1266529e+46)
(-5.4466495e+46 3.7318492e+45 -1.2120688e+46)
(-7.6283107e+46 3.6123673e+45 -8.9831514e+45)
(-7.5898659e+46 1.5636557e+45 -8.7319757e+45)
(-8.1591246e+46 2.4400458e+45 -3.9372429e+45)
(-8.1732616e+46 2.0478644e+45 -4.1113976e+45)
(-7.6543721e+46 3.8662808e+45 -9.061801e+45)
(-7.6296351e+46 2.6047196e+45 -8.6888692e+45)
(-8.1672395e+46 2.8668087e+45 -4.0602435e+45)
(-8.1822353e+46 1.9060924e+45 -4.2054077e+45)
(-8.7497054e+46 8.6519308e+45 1.2836883e+46)
(-7.0544802e+46 3.5468902e+45 -7.8094996e+45)
(-8.3652383e+46 4.70484e+45 7.5289544e+44)
(-7.9582154e+46 2.6689928e+45 -2.3685383e+44)
(-6.8471274e+46 5.5411783e+45 -8.6806165e+45)
(-8.604059e+46 7.0349803e+45 1.4092512e+46)
(-6.7848107e+46 3.6255646e+45 -7.7412946e+45)
(-8.1678268e+46 4.5132213e+45 8.4697017e+44)
(-7.7794342e+46 3.044001e+45 1.7448186e+44)
(-6.5586428e+46 5.9874697e+45 -8.3197003e+45)
(-5.2221497e+46 1.1788857e+46 -1.1575863e+46)
(-5.2443557e+46 9.0800205e+45 -1.0883117e+46)
(-7.4541706e+46 3.6107775e+45 -8.6265933e+45)
(-7.426376e+46 1.8737716e+45 -8.0966161e+45)
(-8.0464716e+46 2.6799233e+45 -3.3867584e+45)
(-8.0635335e+46 1.9424189e+45 -3.728236e+45)
(-7.5668741e+46 3.6662577e+45 -8.9335301e+45)
(-7.580598e+46 1.9698659e+45 -8.2284478e+45)
(-8.1391213e+46 2.550703e+45 -3.6207648e+45)
(-8.1369735e+46 1.8566638e+45 -4.0041859e+45)
(-8.0117835e+46 1.996419e+45 -2.0227447e+45)
(-7.6856431e+46 5.6261792e+44 -7.6224914e+45)
(-7.6719323e+46 2.5537079e+45 -8.7350408e+45)
(-7.9443626e+46 1.1752376e+45 -4.5658557e+45)
(-8.1342852e+46 1.948986e+45 -3.5969881e+45)
(-7.7026979e+46 9.4065245e+44 -8.3953955e+45)
(-7.700773e+46 2.7704383e+45 -9.1107417e+45)
(-8.1167148e+46 1.3468937e+45 -4.1587552e+45)
(-7.6419366e+46 2.5150321e+45 -8.9189704e+45)
(-7.6287424e+46 7.7930854e+44 -8.2946219e+45)
(-8.0636445e+46 2.0675391e+45 -3.6053234e+45)
(-8.0631116e+46 1.3652119e+45 -4.1323811e+45)
(-7.902449e+46 2.1670419e+45 -4.6858192e+45)
(-7.6240657e+46 5.2714415e+44 -8.1262914e+45)
(-7.6395733e+46 2.2959873e+45 -8.7153319e+45)
(-7.8875744e+46 1.5802386e+45 -5.2519055e+45)
(-7.6839025e+46 1.3054802e+46 -5.3288097e+45)
(-7.7517847e+46 6.1691633e+45 -5.0465766e+45)
(-9.6603026e+46 1.4279238e+46 -2.8554514e+45)
(-9.4783256e+46 2.8396497e+45 -2.7839587e+45)
(-1.2685767e+47 1.4119663e+46 -3.8628272e+45)
(-9.2794026e+46 6.188965e+45 1.1867435e+46)
(-9.580859e+46 1.0244548e+46 -9.1023803e+45)
(-9.5177705e+46 5.0492679e+45 -7.7980644e+45)
(-9.3177386e+46 9.1361017e+45 1.3302584e+46)
(-1.0712912e+47 7.003839e+45 -1.2628253e+45)
(-1.0651146e+47 6.6671405e+45 -7.9173178e+43)
(-1.407347e+47 9.3260946e+45 4.7558696e+45)
(-1.0378406e+47 2.2825192e+45 2.2940003e+46)
(-1.0590429e+47 1.5075532e+46 2.3430575e+46)
(-1.4635746e+47 9.2497558e+45 -2.3014281e+46)
(-8.9803515e+46 5.7276149e+45 5.3571269e+44)
(-8.8864263e+46 3.0255261e+45 -6.6166395e+44)
(-8.8201837e+46 3.5657009e+45 -6.5428235e+45)
(-8.6397504e+46 5.3243983e+45 -9.6454122e+45)
(-8.836751e+46 5.4664605e+45 -6.8638431e+44)
(-8.9634251e+46 3.3844508e+45 -2.2861511e+44)
(-8.5870355e+46 5.3100352e+45 -7.9439247e+45)
(-8.5876461e+46 2.7640687e+45 -9.7891007e+45)
(-9.2066754e+46 6.4368846e+45 2.1331183e+45)
(-8.6729714e+46 4.3748499e+45 -7.1787278e+45)
(-8.5931094e+46 5.6665572e+45 -1.055796e+46)
(-9.0671021e+46 3.2854495e+45 2.5191648e+44)
(-8.5760625e+46 3.4203256e+45 -1.037052e+46)
(-8.9704134e+46 5.4657334e+45 -4.012352e+44)
(-8.9704633e+46 3.3347007e+45 -3.6359731e+44)
(-8.512731e+46 5.4681348e+45 -1.072766e+46)
(-8.8876223e+46 3.02821e+45 -8.6689375e+44)
(-8.8618274e+46 5.2814184e+45 -5.5826558e+44)
(-8.6190296e+46 3.019714e+45 -9.0460075e+45)
(-8.6047283e+46 5.3164198e+45 -9.8821926e+45)
(-8.8125721e+46 5.5313686e+45 -5.9420987e+44)
(-8.9237533e+46 3.2980626e+45 -1.8052413e+44)
(-8.558378e+46 5.2251675e+45 -7.6369717e+45)
(-8.5523997e+46 2.8748749e+45 -9.5862921e+45)
(-8.5385563e+46 5.3951333e+45 -1.067227e+46)
(-8.5623594e+46 3.6037467e+45 -9.6687838e+45)
(-9.0537494e+46 5.8908064e+45 7.1094194e+44)
(-9.0562352e+46 3.0925599e+45 1.6124092e+44)
(-8.5111103e+46 3.4586965e+45 -1.0184401e+46)
(-8.9163681e+46 5.4853166e+45 -5.1528779e+44)
(-8.9311146e+46 3.378469e+45 -3.9060921e+44)
(-8.4841066e+46 5.4897868e+45 -1.065936e+46)
(-9.1316868e+46 7.3717388e+45 -5.3366791e+43)
(-8.5977183e+46 5.8901521e+45 -9.0735119e+45)
(-8.5689528e+46 7.1411912e+45 -1.0107611e+46)
(-9.1822313e+46 4.2699879e+45 -7.7812301e+44)
(-7.9667594e+46 8.4784648e+45 -3.341228e+45)
(-7.9099049e+46 7.1763414e+45 -2.8178093e+45)
(-9.4782649e+46 9.7728774e+45 5.0253628e+45)
(-9.574326e+46 5.1401478e+45 4.9137122e+45)
(-1.027821e+47 8.6995393e+45 1.61201e+46)
(-9.5169342e+46 8.9467625e+45 5.1301634e+45)
(-7.9140112e+46 7.2912246e+45 -3.2536971e+45)
(-7.8825022e+46 8.6681043e+45 -3.4575524e+45)
(-9.4907848e+46 4.719205e+45 4.784066e+45)
(-1.0530434e+47 6.4659513e+45 1.5278102e+46)
(-8.684444e+46 5.0386389e+45 -9.1247254e+45)
(-8.5143392e+46 6.3779636e+45 -1.0242632e+46)
(-9.0841767e+46 6.6079853e+45 -1.6039702e+45)
(-9.0192469e+46 3.8223578e+45 -1.829858e+45)
(-6.405531e+46 7.0462327e+45 -1.7039019e+46)
(-6.3357647e+46 3.2258767e+45 -1.8640254e+46)
(-8.570135e+46 4.6535863e+45 -9.5201169e+45)
(-9.1107589e+46 6.2577776e+45 -6.5049986e+44)
(-8.5036071e+46 6.5351835e+45 -1.0384517e+46)
(-9.1326565e+46 3.6100968e+45 -9.1875975e+44)
(-7.8517786e+46 7.8599334e+45 -3.9001851e+45)
(-7.8816072e+46 6.5047449e+45 -3.3562763e+45)
(-9.4792496e+46 8.7162526e+45 4.5583812e+45)
(-1.0268798e+47 1.1071212e+46 1.5828953e+46)
(-9.5201775e+46 4.5365801e+45 4.4792626e+45)
(-7.6128697e+46 8.6918442e+45 -3.2833406e+45)
(-7.7689917e+46 6.6281189e+45 -3.4149923e+45)
(-1.0184374e+47 8.2361794e+45 1.6317043e+46)
(-9.4094794e+46 8.3570286e+45 4.2826848e+45)