/*--------------------------------*- C++ -*----------------------------------*\
  =========                 |
  \\      /  F ield         | OpenFOAM: The Open Source CFD Toolbox
   \\    /   O peration     | Website:  https://openfoam.org
    \\  /    A nd           | Version:  7
     \\/     M anipulation  |
\*---------------------------------------------------------------------------*/
FoamFile
{
    version     2.0;
    format      ascii;
    class       surfaceScalarField;
    location    "0";
    object      phi;
}
// * * * * * * * * * * * * * * * * * * * * * * * * * * * * * * * * * * * * * //

dimensions      [0 3 -1 0 0 0 0];

internalField   nonuniform List<scalar> 
102329
(
-1.5881884e-06
0.00019533406
-1.2818719e-05
-1.2123693e-05
1.4415328e-05
1.4328677e-05
0.00019560588
-1.8308606e-06
-1.2355303e-05
-1.2611907e-05
1.4149102e-05
1.4649026e-05
1.3079073e-06
-1.5917233e-06
0.00024493548
-1.2123686e-05
1.3707846e-05
1.4383223e-05
-1.2187876e-05
-1.2358989e-05
1.4194186e-05
1.3846791e-05
-1.1927806e-05
0.00024468682
-5.083295e-05
-5.0284874e-05
5.3158699e-05
5.3663859e-05
5.1268776e-05
5.0768864e-05
-5.1605924e-05
-5.2147331e-05
1.3110441e-06
0.00019596215
-1.473227e-06
-1.2355466e-05
1.419723e-05
1.4663652e-05
-1.2653301e-05
0.00019579033
-1.2168194e-05
-1.2824754e-05
1.4357688e-05
1.4475643e-05
1.1446779e-06
-1.3306789e-06
-1.2124639e-05
1.3751468e-05
1.4407862e-05
0.00024534995
-1.2215752e-05
0.00024517203
-1.2366107e-05
1.4246588e-05
1.3887832e-05
-1.1952402e-05
1.0376139e-07
-1.3826299e-07
-6.7602581e-07
-6.7756919e-07
1.5734417e-05
1.0200338e-06
9.6867034e-07
-6.9379396e-07
1.5966402e-05
9.8965924e-07
1.0067489e-06
4.2563888e-07
5.0238939e-05
-5.2067157e-07
-2.9975924e-06
-3.0411298e-06
3.8009685e-06
3.6739765e-06
4.9553123e-05
-3.090691e-06
-2.9094356e-06
3.7324667e-06
3.6974555e-06
3.8710545e-07
-4.8333612e-07
6.3317654e-05
-2.9886961e-06
3.6187675e-06
-2.9863706e-06
3.7890068e-06
6.2289953e-05
3.6450752e-06
3.7402647e-06
-3.0194681e-06
-2.8953426e-06
3.9734506e-07
4.9668979e-05
-4.7381573e-07
-2.9704611e-06
-3.0409769e-06
3.7970949e-06
3.652371e-06
1.1370529e-07
-6.8157642e-07
-6.7961197e-07
9.7672105e-07
1.5984717e-05
1.0219414e-06
-6.9293733e-07
-6.6093836e-07
1.5740551e-05
9.8313125e-07
1.0063063e-06
5.0271905e-05
-3.0987949e-06
-2.9442189e-06
3.7495999e-06
3.7321237e-06
3.6593453e-07
6.2422181e-05
-4.4824808e-07
3.606398e-06
-2.9531838e-06
-2.9735784e-06
3.7984118e-06
6.3365146e-05
3.6707421e-06
3.7443067e-06
-3.0393469e-06
-2.937424e-06
1.1394589e-06
0.00019664073
-1.3985369e-06
1.1390924e-05
-1.1917112e-05
-1.2214378e-05
1.2125196e-05
4.8983981e-05
3.0980235e-07
-4.1456028e-07
-2.9299159e-06
3.6148861e-06
-3.0121591e-06
3.7463725e-06
2.8003652e-07
-3.7906351e-07
6.1287034e-05
3.7330016e-06
3.5524666e-06
-2.8759768e-06
-2.9058665e-06
-4.9587345e-05
3.9243672e-07
6.2353453e-05
3.6966291e-06
-2.9530948e-06
-2.8590314e-06
3.6200667e-06
4.3621675e-07
3.7184472e-06
-3.050299e-06
-2.9008072e-06
3.6961378e-06
4.9557047e-05
3.7712398e-07
3.7602328e-06
3.6479132e-06
-2.9451076e-06
-3.0023644e-06
3.2962777e-07
3.5768987e-06
3.7321911e-06
6.23169e-05
-2.9107246e-06
-2.9013308e-06
-4.8883266e-05
3.6835443e-06
3.5811852e-06
6.1179011e-05
-2.8307886e-06
-2.944466e-06
-3.0538401e-06
3.6912105e-06
3.6493418e-06
-2.8801971e-06
0.00019646188
-1.2360607e-05
-1.1771402e-05
1.1994485e-05
1.1471978e-05
8.0635596e-07
0.00024071826
-1.1190037e-06
1.0343232e-06
0.00024036731
1.0065158e-06
-0.00022771568
-0.00022727757
-4.8858451e-07
-3.2185148e-06
1.0329707e-06
0.00019617964
-1.2349565e-05
-1.268567e-05
1.4231444e-05
1.4663133e-05
0.00019607451
-1.2821577e-05
-1.2203995e-05
1.451683e-05
1.4362806e-05
9.339162e-07
-1.2120932e-05
1.3782901e-05
1.4413183e-05
-1.2242775e-05
0.00024562643
-1.2366129e-05
1.4283238e-05
1.3898726e-05
-1.1981873e-05
0.00024550727
-9.6085191e-07
-0.00019926274
-0.00019936384
-1.0615355e-06
4.9756717e-05
3.2212918e-07
-3.7818708e-07
-3.051441e-06
-2.9702711e-06
3.6643148e-06
3.7992992e-06
3.027146e-07
6.2533232e-05
-3.6552532e-07
3.8019363e-06
3.6175716e-06
-2.9533468e-06
-2.9828076e-06
-5.0378223e-05
4.0671928e-07
6.349379e-05
3.6753327e-06
3.7565984e-06
-3.0407233e-06
-2.9473142e-06
4.252658e-07
3.7355393e-06
3.7629314e-06
-3.0995283e-06
-2.955225e-06
-3.5126914e-07
4.9692316e-05
-3.0935014e-06
-2.9219319e-06
3.7488096e-06
3.7046488e-06
5.0359132e-05
-3.0532301e-06
-2.9990965e-06
3.8061992e-06
3.6884604e-06
-3.3415662e-07
6.2455281e-05
3.7552733e-06
-3.0229454e-06
-2.9058323e-06
3.6539916e-06
6.3465941e-05
3.796077e-06
3.6321888e-06
-2.9905326e-06
-2.9964252e-06
4.9069218e-05
2.5936224e-07
-3.4565869e-07
3.7507801e-06
3.6256672e-06
-2.9306495e-06
-3.0202267e-06
2.4237607e-07
-3.23105e-07
6.138908e-05
3.5626115e-06
-2.8766326e-06
3.7385085e-06
-2.912298e-06
-4.9685906e-05
3.523245e-07
3.6270515e-06
3.7078189e-06
-2.954643e-06
-2.8653062e-06
6.2468707e-05
1.0520462e-06
0.00019692562
-1.2163316e-06
-1.1918558e-05
-1.2231309e-05
1.1424909e-05
1.2151668e-05
3.7950441e-07
-3.0519066e-06
3.7304328e-06
-2.9087477e-06
3.7021659e-06
0.00019677268
-1.236289e-05
-1.177769e-05
1.2037688e-05
1.1514637e-05
4.9667427e-05
3.4041948e-07
3.7685535e-06
3.660773e-06
-2.9473946e-06
-3.010488e-06
3.1039048e-07
6.2443959e-05
3.7420415e-06
3.5890564e-06
-2.9031169e-06
-2.916137e-06
-4.9007673e-05
6.1318459e-05
3.6971347e-06
-2.9471917e-06
-2.835321e-06
3.5935977e-06
3.660303e-06
3.7056907e-06
-3.0572545e-06
-2.8876746e-06
7.6705947e-07
0.00024102266
-1.0018854e-06
1.0778216e-06
0.00024063513
1.0865601e-06
2.7963591e-08
3.1780497e-06
-3.7683679e-08
2.580399e-07
2.6950976e-07
-1.7270817e-07
-1.7630582e-07
3.2233216e-06
3.8367531e-08
-1.797849e-07
-1.7016168e-07
2.6774969e-07
2.6459001e-07
1.0556544e-07
1.2368536e-05
-1.3117101e-07
-7.1964597e-07
9.0612641e-07
9.4353182e-07
-7.3614962e-07
-2.5412765e-08
3.357032e-08
4.0816007e-06
1.535798e-07
-3.3047279e-08
4.0000984e-06
1.5424044e-07
3.2273904e-06
2.6170321e-07
2.7109424e-07
-1.7396012e-07
-1.7617771e-07
1.2500422e-05
1.3576902e-07
9.2649269e-07
9.3073948e-07
-7.5126441e-07
-7.1134841e-07
-2.7828342e-08
3.4857724e-08
4.0180327e-06
1.5425915e-07
4.0862516e-06
1.5361993e-07
-1.0315872e-07
1.3439637e-07
1.5882249e-05
9.1485085e-07
9.3326784e-07
-7.4351706e-07
-7.1675272e-07
1.5671738e-05
-1.2825561e-07
9.4775148e-07
8.9757006e-07
-7.2321011e-07
-7.2628501e-07
2.6658704e-08
1.5410461e-07
4.0159135e-06
1.1029921e-07
1.24742e-05
-7.2509017e-07
9.1103717e-07
9.4311609e-07
-7.3533564e-07
4.0794668e-06
1.5366042e-07
1.2288485e-05
-7.4785697e-07
9.25409e-07
1.0666543e-07
1.5846786e-05
-7.3025526e-07
9.0067094e-07
9.4490274e-07
-7.2774372e-07
1.5558715e-05
-7.3685894e-07
9.3156018e-07
9.0770775e-07
1.2365973e-05
8.9549311e-08
-1.2269321e-07
-7.2956667e-07
8.9657551e-07
9.3181411e-07
-7.4863703e-07
8.4295269e-08
-1.1530734e-07
1.5654745e-05
-7.345127e-07
8.9447585e-07
9.414927e-07
-7.4049618e-07
1.2502163e-05
1.2107178e-07
-7.596169e-07
9.2301775e-07
9.1844236e-07
-7.1967308e-07
1.175117e-07
1.5894342e-05
-7.5364344e-07
9.3112246e-07
9.1315646e-07
-7.270678e-07
-1.0171587e-07
-1.2289998e-05
1.5553301e-05
9.0373242e-07
9.2732949e-07
-7.4942878e-07
-7.1766606e-07
-1.2477147e-05
1.5868135e-05
9.4193157e-07
9.0080095e-07
-7.3871587e-07
-7.3898113e-07
1.0694286e-07
-7.3146469e-07
9.0502633e-07
9.3502093e-07
-7.442888e-07
9.0668588e-07
9.1603822e-07
-7.5857382e-07
-7.1273372e-07
9.5789997e-08
1.2322499e-05
-1.186791e-07
-7.1780951e-07
-7.3608378e-07
9.0533229e-07
9.4193654e-07
1.2497757e-05
1.2583251e-07
-7.1279654e-07
-7.5026566e-07
9.3131833e-07
9.2688273e-07
-9.2461438e-08
1.2076765e-07
1.5877166e-05
9.1552169e-07
9.3397127e-07
-7.1780109e-07
-7.4237944e-07
1.5600606e-05
-1.1704515e-07
9.4722345e-07
8.9741931e-07
-7.2061571e-07
-7.252338e-07
4.0239455e-06
2.4490303e-07
2.3904444e-07
-1.8713998e-07
-1.9578019e-07
2.6806e-08
3.194178e-06
2.5916065e-07
2.702993e-07
-1.7310921e-07
-1.768226e-07
3.2303362e-06
3.6804408e-08
-1.8013561e-07
-1.7037732e-07
2.6852382e-07
2.6481687e-07
2.4354663e-08
1.5441749e-07
4.0233777e-06
1.014703e-07
1.2515243e-05
-7.257521e-07
9.4562855e-07
9.1361817e-07
-7.3847584e-07
3.2434619e-08
4.0902833e-06
1.5389916e-07
3.1732721e-08
3.2253801e-06
2.6188098e-07
2.7073176e-07
-1.740167e-07
-1.7611205e-07
3.1784964e-06
-1.8013948e-07
-1.6898251e-07
2.6670479e-07
2.6096417e-07
1.2372656e-05
-7.5015883e-07
9.2999723e-07
9.2043324e-07
-7.0631192e-07
-2.6712277e-08
4.0009642e-06
1.5431356e-07
4.0838778e-06
1.5351903e-07
9.7296114e-08
1.5900089e-05
-7.3124794e-07
9.0296922e-07
9.4734517e-07
-7.3088559e-07
1.5677511e-05
-7.4005907e-07
9.3510007e-07
9.1095655e-07
-7.097221e-07
-1.2322846e-05
7.7442522e-08
1.5593257e-05
-1.0739161e-07
-7.3170755e-07
8.9472563e-07
9.4172686e-07
-7.3887217e-07
8.4195451e-08
-1.1306161e-07
9.3143982e-07
8.9664272e-07
-7.2700248e-07
-7.4765976e-07
1.2499891e-05
1.2224048e-07
-7.5824527e-07
9.2429013e-07
9.196746e-07
-7.2009072e-07
1.1151677e-07
1.5897176e-05
-7.5233452e-07
9.3225674e-07
9.1443347e-07
-7.2734927e-07
-9.6583787e-08
-1.2370107e-05
1.5660626e-05
9.0665892e-07
9.3008813e-07
-7.5310964e-07
-7.22187e-07
-1.25167e-05
1.5911853e-05
9.439825e-07
9.0250966e-07
-7.4033108e-07
-7.4211579e-07
1.0316802e-07
-7.330105e-07
9.0681115e-07
9.3691846e-07
-7.4761221e-07
9.0982097e-07
9.1942867e-07
-7.6168647e-07
-7.1710752e-07
-4.8844524e-05
8.4031385e-07
5.9338028e-05
-3.2135846e-07
3.7822834e-07
4.2070723e-07
-3.6130542e-07
-2.7750702e-06
-2.8507509e-06
2.9336e-06
3.1580843e-06
4.9733586e-05
3.6946969e-07
-2.7677209e-06
-2.9012389e-06
3.1156672e-06
3.0098843e-06
3.2468298e-07
6.2127064e-05
2.4717693e-07
1.2310084e-05
8.2290597e-08
-1.0320162e-07
-7.278852e-07
9.0743272e-07
9.4259169e-07
-7.4800806e-07
7.7527675e-08
1.5529447e-05
-1.0076198e-07
-7.2099137e-07
9.1013861e-07
9.5771164e-07
-7.2815793e-07
1.2487083e-05
1.0471059e-07
-7.6043539e-07
9.3365873e-07
-7.2473035e-07
9.2699574e-07
1.5804808e-05
9.7210034e-08
-7.4348346e-07
9.4621829e-07
9.2632953e-07
-7.2014608e-07
-6.5473818e-08
-1.2386201e-05
9.3457288e-08
1.5470083e-05
9.6635569e-07
9.8728437e-07
-6.7714591e-07
-6.5541748e-07
-1.2211232e-05
-9.1373171e-08
1.5169134e-05
9.9546242e-07
9.4812324e-07
-6.5799776e-07
-6.6518506e-07
6.8340658e-08
-9.6482827e-08
-7.0841374e-07
9.3758852e-07
9.7114318e-07
-7.2996715e-07
9.8776207e-08
9.5859974e-07
9.6598129e-07
-7.3881653e-07
-7.0347512e-07
-1.2404313e-05
8.0594294e-08
1.5493994e-05
9.9782344e-07
9.5662467e-07
-6.6607935e-07
-6.6860444e-07
8.686976e-08
-1.582816e-05
-7.1360758e-07
9.4863109e-07
9.7735658e-07
-7.2975044e-07
1.2263591e-05
-1.5607683e-05
1.0043459e-07
-7.4124069e-07
9.6254758e-07
-6.9957832e-07
9.4973344e-07
9.4190403e-08
1.5252073e-05
-6.7718881e-07
9.8648331e-07
-6.5015294e-07
9.5881164e-07
-1.2503825e-05
8.044429e-08
-7.3085668e-07
9.1637532e-07
9.5839007e-07
-7.3307166e-07
8.4839708e-08
9.4636662e-07
9.1641159e-07
-7.3544807e-07
-7.4974292e-07
1.2357612e-05
1.0954802e-07
-7.5933592e-07
9.3322716e-07
9.2112132e-07
-7.17537e-07
1.0591368e-07
-7.3983185e-07
9.4876981e-07
9.226141e-07
-7.1098885e-07
-8.5113769e-08
-1.2490084e-05
1.5812297e-05
1.1304731e-07
9.2593548e-07
9.4654006e-07
-7.4358876e-07
-7.1886113e-07
-1.2353687e-05
1.5602333e-05
9.5914327e-07
9.1148229e-07
-7.2220697e-07
-7.2838889e-07
8.8162786e-08
-7.2877648e-07
9.0911463e-07
9.4448767e-07
-7.4750165e-07
1.1326446e-07
9.2691662e-07
9.3370017e-07
-7.6052355e-07
-7.2332096e-07
6.6834148e-08
-1.2259672e-05
1.5246987e-05
9.4874761e-07
-6.6033202e-07
-6.671004e-07
9.9558228e-07
-1.2391782e-05
9.2837907e-08
1.5479945e-05
9.8696757e-07
-6.782325e-07
-6.5559637e-07
9.6484241e-07
1.6009641e-07
4.9715845e-05
-2.8045106e-06
-2.8641256e-06
2.9781692e-06
3.1401891e-06
-7.0800617e-08
9.9699657e-08
9.5775796e-07
9.6564217e-07
-7.3972673e-07
-7.0280499e-07
9.7258421e-07
9.3881697e-07
-7.0986503e-07
-7.3057863e-07
7.9381419e-08
-1.2365782e-05
1.5445904e-05
9.5458813e-07
-6.6514564e-07
-6.6689404e-07
9.9428602e-07
-1.2182457e-05
1.5136409e-05
9.8278865e-07
-6.7434799e-07
-6.4742756e-07
9.5427082e-07
4.8763971e-05
-2.8867548e-06
-2.7383207e-06
3.1203469e-06
2.9516834e-06
-8.6981081e-08
-1.5491691e-05
9.4480458e-07
9.5777806e-07
-7.3916924e-07
-6.9715476e-07
-1.577709e-05
9.7409503e-07
9.4609501e-07
-7.1299761e-07
-7.276498e-07
1.2465151e-05
8.8871115e-08
-7.3507696e-07
9.1343469e-07
9.4307923e-07
-7.4792169e-07
8.5900987e-08
-7.305465e-07
9.1367583e-07
9.5474057e-07
-7.3147923e-07
-1.2278666e-05
9.1789229e-07
9.4423343e-07
-7.3787955e-07
-7.084713e-07
-7.5790652e-07
9.2829769e-07
9.1612864e-07
-7.15111e-07
-3.8697532e-07
6.2187055e-05
2.3482059e-07
5.917752e-05
3.6713034e-07
9.0896695e-07
-1.1233831e-06
-5.4136373e-05
-5.5577719e-05
4.7117766e-06
-5.567121e-05
-5.3965104e-05
4.6731745e-06
0.00022432837
1.369679e-05
-1.4233624e-05
-1.3988413e-05
1.3923564e-05
-0.00023011507
-0.0002296846
-2.9742314e-06
-0.00022793953
-0.00022836384
-0.00022797784
-0.00022750514
-3.7636169e-07
-2.9926192e-06
2.5108888e-07
4.9808037e-05
-2.9685332e-06
-3.0592981e-06
3.6727661e-06
3.7985484e-06
5.0438487e-05
3.331826e-07
-3.0981574e-06
-2.9634724e-06
3.7352736e-06
3.7722532e-06
2.3894559e-07
6.2599931e-05
-2.9519109e-06
3.6256035e-06
3.8019908e-06
-2.9902302e-06
3.2390189e-07
6.3570318e-05
3.7654203e-06
-3.03981e-06
-2.9552512e-06
3.6758257e-06
2.7662436e-07
5.0427361e-05
-3.0622143e-06
-2.9979612e-06
3.6985676e-06
3.8067174e-06
4.9770642e-05
-3.092833e-06
-2.9313559e-06
3.7058059e-06
3.7599906e-06
2.6957951e-07
6.3553479e-05
3.7975774e-06
3.6417076e-06
-2.9897068e-06
-3.0046692e-06
6.2553018e-05
3.765747e-06
-3.0227958e-06
-2.9146521e-06
3.656059e-06
4.9122201e-05
2.0203776e-07
-2.9298052e-06
3.6335063e-06
3.7512417e-06
-3.0272109e-06
1.9263136e-07
3.7396578e-06
3.5700399e-06
-2.8759872e-06
-2.9186959e-06
6.1455832e-05
-4.9746825e-05
2.9027322e-07
-2.9544988e-06
3.715929e-06
3.6287441e-06
-2.8719362e-06
6.2543974e-05
3.0760425e-07
3.739052e-06
3.7033015e-06
-3.0514412e-06
-2.9158408e-06
8.8207027e-07
0.00019713486
-1.1917327e-05
-1.2253716e-05
1.1449257e-05
1.2160334e-05
4.9735266e-05
2.8445966e-07
3.6699472e-06
-2.9472407e-06
3.770568e-06
-3.0180878e-06
2.6420754e-07
3.7448607e-06
3.5976892e-06
-2.9030778e-06
6.2527768e-05
-2.9227675e-06
-4.9083957e-05
3.5972167e-06
3.7065591e-06
6.140971e-05
-2.9477592e-06
-2.8420707e-06
3.6631942e-06
3.7157658e-06
-3.0576336e-06
-2.8953586e-06
0.00019702246
-1.2363859e-05
-1.1798583e-05
1.2066812e-05
1.1528777e-05
6.5775424e-07
0.000241251
1.09419e-06
0.00024091664
1.1090743e-06
-7.6379007e-08
1.2521274e-05
1.0115224e-07
-7.5031298e-07
9.344123e-07
9.273595e-07
-7.1538737e-07
1.2343883e-05
-9.4305154e-08
-7.1771852e-07
9.08258e-07
9.4232482e-07
-7.3862089e-07
7.4493385e-08
1.5627867e-05
-9.4012561e-08
-7.2055433e-07
9.002231e-07
9.4777443e-07
-7.2767341e-07
1.5906956e-05
9.7818232e-08
-7.4249223e-07
9.3694351e-07
9.1613612e-07
-7.2035693e-07
-6.2721806e-08
-1.2523469e-05
9.3208723e-08
1.5926797e-05
9.1530369e-07
9.3504584e-07
-7.5264037e-07
-7.2965809e-07
-1.234436e-05
1.5620441e-05
-8.8222386e-08
9.4250773e-07
8.9736068e-07
-7.3183482e-07
-7.4110581e-07
6.7618783e-08
-9.1838604e-08
-7.2708374e-07
8.994015e-07
9.3204874e-07
-7.5002146e-07
1.0160785e-07
9.2040845e-07
9.2720742e-07
-7.584751e-07
-7.2246717e-07
-8.2717641e-08
-1.2397073e-05
9.8168298e-08
1.569411e-05
9.0787125e-07
9.3310932e-07
-7.5362481e-07
-7.2457313e-07
-1.2541853e-05
1.5943605e-05
9.4509747e-07
9.0536287e-07
-7.4069231e-07
-7.4447404e-07
8.7128727e-08
-1.5932302e-05
-7.3332424e-07
9.0980259e-07
9.3784058e-07
-7.501398e-07
-1.5711668e-05
1.0276581e-07
-7.6215777e-07
9.2256241e-07
9.1084591e-07
-7.1963658e-07
-7.9554503e-08
-1.2399775e-05
1.0572342e-07
9.1188418e-07
9.3836172e-07
-7.4038308e-07
-7.1244593e-07
-1.2540455e-05
9.4819626e-07
9.060304e-07
-7.3139901e-07
-7.3351146e-07
8.190702e-08
-7.2585466e-07
9.1683416e-07
9.4629874e-07
-7.4122765e-07
1.0648716e-07
9.2120319e-07
9.3340185e-07
-7.5041e-07
-7.0910895e-07
9.1542766e-08
1.2508545e-05
-1.1160495e-07
-7.2572957e-07
-7.3858293e-07
9.1492774e-07
9.4459006e-07
1.2325484e-05
-7.0571214e-07
-7.4872454e-07
9.1824746e-07
9.2955871e-07
9.0743158e-08
-1.1299768e-07
1.5890232e-05
-7.309484e-07
9.0436113e-07
-7.3073256e-07
9.4663604e-07
1.5604782e-05
9.3550961e-07
-7.3780692e-07
-7.0829051e-07
9.0959677e-07
-8.6175609e-08
1.2532431e-05
-7.1440107e-07
-7.5180547e-07
9.2766466e-07
9.3448062e-07
1.2397576e-05
9.4453203e-07
9.0963175e-07
-7.1997618e-07
-7.3915314e-07
-8.603497e-08
1.5922401e-05
9.162074e-07
9.3683694e-07
-7.4414092e-07
-7.1968479e-07
1.5708489e-05
9.4897736e-07
9.0090985e-07
-7.235875e-07
-7.2909853e-07
-1.2510678e-05
9.1245548e-08
-1.0257819e-07
1.5910116e-05
9.4403781e-07
9.0419169e-07
-7.396269e-07
-7.4149283e-07
9.3488949e-08
-1.0296946e-07
-7.3232353e-07
9.0860231e-07
9.3688327e-07
-7.4709124e-07
1.2325898e-05
-7.5966812e-07
9.1984212e-07
-7.1549549e-07
9.0879072e-07
1.5597529e-05
-7.5059274e-07
9.3093647e-07
9.0602889e-07
-7.2019474e-07
-7.1729819e-08
-1.2533628e-05
1.5933545e-05
9.1487042e-07
9.3442562e-07
-7.5446912e-07
-7.2956754e-07
-1.2394715e-05
1.5690738e-05
9.4303944e-07
8.9757153e-07
-7.351009e-07
-7.4294439e-07
7.4434019e-08
9.331419e-07
8.9983051e-07
-7.3010181e-07
-7.5130679e-07
-7.603561e-07
9.264988e-07
9.1999394e-07
-7.2232521e-07
-6.5585022e-08
-1.2510288e-05
1.5833623e-05
8.26045e-08
9.2747355e-07
9.488929e-07
-7.4387845e-07
-7.2213184e-07
-1.2331366e-05
1.5556068e-05
-8.4751813e-08
9.5874365e-07
9.1265974e-07
-7.2122163e-07
-7.3010664e-07
6.8912823e-08
-8.5786901e-08
-7.2811698e-07
9.1004979e-07
9.4345743e-07
-7.5011952e-07
8.8412949e-08
-7.6082001e-07
9.3642161e-07
9.279995e-07
-7.2683707e-07
3.9057174e-07
4.8920058e-05
-3.1468493e-07
-2.7756037e-06
2.9419152e-06
3.1637984e-06
-2.855666e-06
-1.223188e-05
5.6291307e-08
-7.869267e-08
1.5194158e-05
9.9685335e-07
9.5064054e-07
-6.5814803e-07
-6.6666719e-07
5.7659105e-08
-8.2130413e-08
9.4013278e-07
-7.0869135e-07
-7.3175702e-07
9.7231748e-07
-1.2408536e-05
8.2717041e-08
1.5496982e-05
-6.7740777e-07
9.8997187e-07
9.6789404e-07
-6.5686833e-07
8.6196198e-08
9.5995913e-07
9.686938e-07
-7.3921532e-07
-7.0520694e-07
-7.3221742e-08
-1.2288584e-05
8.5889424e-08
1.5281687e-05
9.6083567e-07
9.8942279e-07
-6.7757724e-07
-6.5146888e-07
-1.2427975e-05
1.5522504e-05
9.9968993e-07
9.5938849e-07
-6.6635298e-07
-6.6997984e-07
7.7792563e-08
-1.5859046e-05
-7.140629e-07
9.5141554e-07
9.7897834e-07
-7.3152355e-07
-1.5640103e-05
9.0044792e-08
9.5154635e-07
9.6549286e-07
-7.4183616e-07
-7.0127121e-07
4.9818129e-05
3.4176057e-07
-2.7718292e-06
-2.9022544e-06
3.1251447e-06
3.0168697e-06
8.2143995e-07
5.942206e-05
-2.852258e-07
3.8656809e-07
3.0857237e-07
6.2224895e-05
2.5759514e-07
1.2528507e-05
7.2547444e-08
-7.3589593e-07
9.1925741e-07
9.4760909e-07
-7.5193345e-07
6.9873668e-08
-7.3129394e-07
9.1911865e-07
9.5982295e-07
-7.3505229e-07
1.2383878e-05
9.4900848e-08
-7.5994081e-07
9.362282e-07
9.225173e-07
-7.1969601e-07
9.3330658e-08
-7.4043265e-07
9.5167887e-07
9.2417244e-07
-7.1297381e-07
1.5084503e-07
4.9806087e-05
-2.8055619e-06
-2.8671007e-06
2.9884798e-06
3.1499628e-06
4.886134e-05
-2.8880356e-06
3.1324547e-06
2.9638599e-06
-2.7394137e-06
-3.8895337e-07
6.2291778e-05
2.4945586e-07
5.9278074e-05
3.8745991e-07
-7.6493452e-08
-1.2520519e-05
1.5849631e-05
1.0342442e-07
9.280433e-07
9.4969171e-07
-7.2083222e-07
-7.4446387e-07
-1.2381603e-05
1.5636883e-05
9.6106366e-07
9.1444313e-07
-7.2286036e-07
-7.3036007e-07
7.748239e-08
9.461811e-07
9.1217745e-07
-7.2945602e-07
-7.4975276e-07
1.0113498e-07
-7.6141111e-07
9.3695967e-07
9.2884413e-07
-7.2552542e-07
-6.1829321e-08
-1.242038e-05
8.8241101e-08
1.5513602e-05
9.6755477e-07
9.9021476e-07
-6.7875574e-07
-6.5668233e-07
-1.2286111e-05
1.5278381e-05
9.9804225e-07
9.5176558e-07
-6.6071802e-07
-6.6828927e-07
6.3858164e-08
-7.1049276e-07
9.4184281e-07
9.7475448e-07
-7.322742e-07
9.2758726e-08
-7.4052496e-07
9.6888208e-07
9.6021927e-07
-7.0438219e-07
-1.2396019e-05
7.7851931e-08
1.5481482e-05
9.9755614e-07
9.5794266e-07
-6.6568612e-07
-6.6781395e-07
8.3224336e-08
-1.581705e-05
9.7698426e-07
9.4942411e-07
-7.1386783e-07
-7.2919316e-07
1.221436e-05
-1.5533602e-05
-7.4021827e-07
9.6133216e-07
9.480345e-07
-6.9852087e-07
1.5173314e-05
-6.750373e-07
9.8642765e-07
9.5782851e-07
-6.4813616e-07
-8.0122942e-08
-1.2313041e-05
9.2069493e-07
9.4769273e-07
-7.39031e-07
-7.1029981e-07
-1.2497449e-05
9.5730333e-07
9.1691674e-07
-7.3148563e-07
-7.3337542e-07
8.0601796e-08
-7.3605639e-07
9.1678869e-07
9.4538132e-07
-7.5017705e-07
9.1871481e-07
9.318644e-07
-7.5910481e-07
-7.1726534e-07
9.0033431e-07
-1.029767e-06
-5.4208384e-05
-5.5663072e-05
4.7474531e-06
-5.5758328e-05
-5.4048083e-05
4.7343702e-06
5.9732461e-09
-8.387492e-07
9.896968e-07
-9.5190986e-09
1.106243e-07
-8.523402e-07
8.7916163e-09
1.0087842e-06
1.102329e-07
7.0614885e-09
-9.519427e-09
5.3262512e-08
9.4079934e-09
5.3505782e-08
8.0220086e-09
8.5392582e-07
5.3636662e-08
8.431269e-07
9.7362319e-09
5.3564658e-08
7.0654797e-09
1.0129667e-06
1.1042896e-07
9.9411609e-07
9.5413997e-09
1.1111365e-07
3.1817848e-06
2.6518017e-08
-3.3769354e-08
1.059046e-07
2.7311042e-08
4.0033784e-06
-3.3802152e-08
9.1003225e-08
-3.2306908e-06
3.4001919e-08
4.0785868e-06
8.8924501e-08
3.4793918e-08
1.0647624e-07
-2.833417e-08
2.8707402e-08
-6.9869949e-07
-6.9500712e-07
3.1080149e-06
2.2429368e-07
2.2119777e-07
-9.7577997e-10
1.4468676e-09
-2.7760143e-08
-6.9618773e-07
-6.9592257e-07
3.0988072e-06
2.2407415e-07
2.2102042e-07
-9.2636393e-10
1.2719702e-09
6.5483371e-09
-8.4315203e-07
9.9674613e-07
1.1109404e-07
-8.5430678e-07
1.0110489e-06
1.1044051e-07
7.4871975e-09
5.3575303e-08
5.3689701e-08
-2.7005028e-08
-3.1938827e-06
4.0212983e-06
3.5447989e-08
9.0610635e-08
-3.2348261e-06
4.0837137e-06
8.8835605e-08
2.8542871e-08
1.0640683e-07
3.5289906e-08
1.0604652e-07
-2.8558144e-08
2.905917e-08
3.1007089e-06
2.2394627e-07
2.2099654e-07
-1.0030615e-09
1.400988e-09
-6.9715218e-07
-6.9629898e-07
3.1090616e-06
2.2418284e-07
2.2127194e-07
-8.5336623e-10
1.3458891e-09
-2.7699429e-08
-3.220155e-06
3.3196848e-08
4.0482449e-06
8.1236993e-08
-3.2623002e-06
-3.2745174e-08
4.1187894e-06
8.1804068e-08
2.9789984e-08
-3.4793724e-08
8.2889294e-08
3.4260046e-08
7.991178e-08
-2.4074192e-08
-3.2584049e-06
4.1152489e-06
8.2216162e-08
-3.2086156e-06
4.0323162e-06
-3.2124932e-08
8.1898887e-08
2.4298814e-08
-3.3221853e-08
8.0464055e-08
8.3399478e-08
2.9339301e-08
3.0998443e-06
2.2399971e-07
2.2083425e-07
-9.3247081e-10
1.3262787e-09
3.192142e-06
2.7937975e-08
1.0602399e-07
2.9083464e-08
4.0189815e-06
9.0546911e-08
-3.2297206e-06
3.6147195e-08
4.0769186e-06
8.8833378e-08
3.6015174e-08
1.0632528e-07
3.1062972e-06
2.2417182e-07
2.209729e-07
-9.7756365e-10
1.4831882e-09
3.2228266e-06
1.0616216e-07
4.0674907e-06
8.8732205e-08
3.2181381e-06
2.4878959e-08
7.9959117e-08
2.5234641e-08
4.045501e-06
8.1254228e-08
-3.2573413e-06
3.3404429e-08
4.1120603e-06
8.199069e-08
3.383713e-08
8.2866915e-08
3.2505455e-06
8.3440575e-08
2.8446425e-08
4.1047494e-06
8.2299948e-08
4.0183055e-06
8.2022861e-08
3.227026e-06
2.4626465e-08
-3.148106e-08
8.2563379e-08
2.5213189e-08
4.0457042e-06
-3.1393799e-08
8.4056652e-08
-3.2770794e-06
4.1217288e-06
3.0320936e-08
8.2034655e-08
3.1082308e-08
8.3069272e-08
3.2451477e-06
2.1795068e-08
-3.0687563e-08
7.492323e-08
2.223045e-08
-2.9451294e-08
4.0695336e-06
7.7290884e-08
-3.294922e-06
2.9262605e-08
4.151836e-06
7.7525766e-08
3.0506308e-08
7.7593622e-08
3.2809531e-06
2.5729866e-08
8.3563351e-08
2.4382212e-08
4.127241e-06
8.2653077e-08
-3.2387227e-06
4.064585e-06
3.2100988e-08
8.4837535e-08
3.2053017e-08
8.3517505e-08
3.2993413e-06
2.6985724e-08
7.7769621e-08
2.4939885e-08
4.1572216e-06
7.7550186e-08
-3.2579663e-06
3.006347e-08
4.0887473e-06
7.7229908e-08
3.1036859e-08
7.5492376e-08
-2.5399778e-08
-3.2357753e-06
4.0572012e-06
7.7328876e-08
-3.2878512e-06
-3.0663696e-08
4.142875e-06
7.7548862e-08
2.8200651e-08
-3.1733159e-08
-4.1115839e-06
7.7820205e-08
-4.0321646e-06
7.5049552e-08
-2.3087241e-08
-3.2947704e-06
4.1514028e-06
7.7700507e-08
-3.2563446e-06
4.0868285e-06
7.7277301e-08
2.2380997e-08
-4.0620653e-06
7.5650121e-08
-4.1210435e-06
7.7931294e-08
3.2367325e-06
2.5672768e-08
8.3674465e-08
2.6831044e-08
8.4952221e-08
-3.2761715e-06
3.3996386e-08
8.2964271e-08
3.3490431e-08
8.3773728e-08
-2.5598977e-08
-3.2169592e-06
8.4215573e-08
-3.269337e-06
8.2178181e-08
2.7178064e-08
8.3146369e-08
8.2607128e-08
2.4301558e-08
3.1809954e-06
-3.0535621e-08
1.0598458e-07
3.2309118e-06
3.1282629e-08
1.0656516e-07
2.5051379e-08
4.0007648e-06
-3.0697334e-08
9.118406e-08
3.1047119e-08
4.0777487e-06
8.9082633e-08
-2.5857227e-08
3.1975795e-06
3.2252898e-08
1.0622977e-07
3.2367353e-06
1.065308e-07
2.4377161e-08
4.0856549e-06
8.905149e-08
4.0258959e-06
3.217123e-08
9.0752802e-08
-2.5733343e-08
-3.2236111e-06
3.0933792e-08
4.0524345e-06
8.1469062e-08
-3.2644048e-06
-3.0367554e-08
4.1207937e-06
8.2191887e-08
-2.7809981e-08
3.2138845e-08
8.0141707e-08
-3.207355e-08
8.3127384e-08
-2.2227514e-08
-3.2586006e-06
4.1149685e-06
8.2690033e-08
-3.2077429e-06
4.0299728e-06
-2.9449985e-08
8.2387016e-08
2.1918015e-08
-3.0311978e-08
8.0788482e-08
8.375682e-08
7.8365403e-09
-8.550747e-07
1.0847063e-06
1.6608315e-08
-8.4168677e-07
1.0624821e-06
1.6564666e-08
-8.0604959e-09
1.6481751e-08
1.7132652e-08
5.5678122e-09
-8.4040846e-07
9.9231826e-07
1.1080813e-07
-8.5419469e-07
8.5692729e-09
1.0110527e-06
1.1042584e-07
6.7453483e-09
5.3381316e-08
8.9660661e-09
5.3632848e-08
7.7711414e-09
8.5514539e-07
5.37309e-08
8.4393939e-07
9.3236562e-09
5.3608814e-08
6.9531377e-09
1.014668e-06
1.1061031e-07
9.9524708e-07
9.309163e-09
1.1113963e-07
2.6951528e-08
-6.9681422e-07
-6.9674621e-07
3.1049088e-06
2.2421626e-07
2.2133262e-07
-8.2436984e-10
1.2205101e-09
3.1983255e-06
2.5319581e-08
1.0622401e-07
-2.6554941e-08
-3.2378417e-06
3.3449344e-08
4.0875784e-06
8.8972038e-08
4.0267812e-06
9.076595e-08
3.2691678e-08
1.0658633e-07
2.7170701e-08
-6.992822e-07
-6.9561141e-07
3.1120851e-06
2.2440717e-07
2.214852e-07
-8.7541349e-10
1.3747918e-09
6.432748e-09
-8.4365113e-07
9.9715876e-07
1.1124064e-07
-8.5441578e-07
1.021764e-08
1.0109184e-06
1.1043004e-07
7.2330244e-09
5.360927e-08
9.6330423e-09
5.3673647e-08
8.167862e-09
8.5251427e-07
5.3505376e-08
8.388812e-07
5.3256208e-08
7.502034e-09
1.0116115e-06
1.1031481e-07
9.872554e-07
1.1056728e-07
3.2326485e-06
2.7294141e-08
1.0645777e-07
2.6189276e-08
4.0809604e-06
8.8929528e-08
-3.1822707e-06
4.0040651e-06
9.1010138e-08
1.0590314e-07
-2.7163623e-08
-6.9836572e-07
-6.9401125e-07
3.0994192e-06
2.2398129e-07
2.2119974e-07
-9.5247462e-10
1.2993308e-09
-6.9762851e-07
-6.9679944e-07
3.1098081e-06
2.2424262e-07
2.2150686e-07
-7.775331e-10
1.2472819e-09
3.2245717e-06
2.3002464e-08
8.0087734e-08
2.3396514e-08
4.053657e-06
8.1404462e-08
-3.2652718e-06
3.1374598e-08
4.1226301e-06
8.1986562e-08
3.1420056e-08
8.2996232e-08
3.260401e-06
2.846172e-08
8.3448736e-08
2.7021856e-08
4.1176277e-06
8.2209776e-08
-3.2091243e-06
4.0330443e-06
8.1917348e-08
8.0456965e-08
3.2449983e-06
2.0044092e-08
-4.0436957e-06
-2.8563804e-08
7.5489862e-08
2.0964693e-08
4.0685285e-06
-2.7558963e-08
7.7767669e-08
-3.2957484e-06
2.759674e-08
4.1528186e-06
7.8000966e-08
-4.1216954e-06
2.8914057e-08
7.8192119e-08
-2.3668653e-08
-3.2773761e-06
2.8179982e-08
8.2585105e-08
-3.2263151e-06
-2.9065792e-08
8.464089e-08
2.2610604e-08
-2.9002813e-08
8.303605e-08
2.8991864e-08
8.3542884e-08
3.2831073e-06
2.4419381e-08
8.4004046e-08
2.2774354e-08
4.1295727e-06
8.3213478e-08
-3.2421509e-06
4.0688812e-06
3.050732e-08
8.5187948e-08
3.073714e-08
8.3867554e-08
3.3016566e-06
2.6246937e-08
7.8239195e-08
2.3668162e-08
4.159867e-06
7.7958504e-08
-3.2617186e-06
2.8663996e-08
4.0935926e-06
7.7542109e-08
3.0178781e-08
7.5874555e-08
-2.4743277e-08
-3.2456652e-06
4.0702763e-06
7.7320797e-08
-3.2968784e-06
-2.9499711e-08
4.1541662e-06
7.753684e-08
2.702493e-08
-3.0612102e-08
-4.1240826e-06
7.7666268e-08
-4.0464456e-06
7.4925239e-08
-2.200325e-08
-3.3023062e-06
4.1610213e-06
7.775082e-08
-3.2623003e-06
4.0940342e-06
7.7420004e-08
2.1820635e-08
-4.0699873e-06
7.5703518e-08
-4.1311254e-06
7.7905827e-08
3.2431206e-06
2.4509702e-08
8.3743405e-08
2.5394454e-08
8.5045353e-08
-3.2839736e-06
3.2302103e-08
8.2841596e-08
3.1793158e-08
8.375388e-08
-2.4578778e-08
-3.2275308e-06
8.4075556e-08
-3.2790079e-06
8.2064809e-08
2.5630264e-08
8.3090435e-08
8.2553962e-08
-1.4532416e-05
-1.5282905e-05
9.3301967e-07
-3.2001568e-07
2.1895643e-06
-1.3191116e-05
-1.3554497e-05
1.1153821e-07
1.2062894e-05
-9.1045267e-08
-6.4326719e-07
7.7752498e-07
8.3710993e-07
-6.6076466e-07
1.2309582e-05
1.0942928e-07
-6.7354904e-07
8.2622839e-07
8.0101308e-07
-6.4188183e-07
2.3434333e-07
-8.5077508e-08
3.1475822e-07
1.3205862e-07
2.8700583e-07
-5.2830143e-08
1.2132638e-05
9.3103066e-08
-6.7189264e-07
8.3113469e-07
7.8841585e-07
-6.3627612e-07
1.2338315e-05
-6.5191073e-07
7.9138408e-07
8.3715541e-07
-6.656168e-07
-6.0248849e-08
1.5364598e-05
2.8165099e-07
1.468304e-05
8.6585798e-08
3.1259909e-07
3.2176589e-07
-1.3636164e-05
-1.3237649e-05
2.2020283e-06
3.2655621e-06
2.0949538e-08
-2.708215e-08
8.1194787e-08
2.2684586e-08
4.0919061e-06
-2.7171706e-08
8.5549466e-08
-3.3165677e-06
4.1709255e-06
2.7235544e-08
8.365498e-08
2.7473435e-08
8.1708905e-08
3.2980861e-06
1.8695854e-08
-2.6699495e-08
8.0815013e-08
1.9410881e-08
4.1259518e-06
-2.5741738e-08
8.8581727e-08
-3.3500868e-06
2.6294494e-08
4.212025e-06
8.8863857e-08
2.7924026e-08
8.3443684e-08
3.3224309e-06
2.2773722e-08
8.1688001e-08
2.0792333e-08
4.1789056e-06
8.3606852e-08
3.2823014e-06
2.7901012e-08
8.1419151e-08
4.1173454e-06
2.7563421e-08
8.5158914e-08
3.3559716e-06
2.4519048e-08
8.2844854e-08
2.2143416e-08
4.2179339e-06
8.8386939e-08
-3.3142254e-06
4.14892e-06
2.5993882e-08
8.7758863e-08
2.7250773e-08
8.0234532e-08
-2.1005169e-08
-3.2772342e-06
2.4459599e-08
3.9960667e-06
2.4405333e-07
-3.3169714e-06
-2.4480679e-08
4.0627018e-06
2.450241e-07
2.3615722e-08
-2.4535148e-08
-4.2088349e-06
2.1561203e-07
-4.1472702e-06
2.5324495e-08
2.1289859e-07
-1.7228922e-08
-3.311028e-06
4.0541166e-06
2.4511034e-07
-3.2597671e-06
-2.3580052e-08
3.9699003e-06
2.4433333e-07
1.5833149e-08
-4.1215557e-06
-2.4590779e-08
2.1251946e-07
-4.2004765e-06
2.1554699e-07