/*--------------------------------*- C++ -*----------------------------------*\
  =========                 |
  \\      /  F ield         | OpenFOAM: The Open Source CFD Toolbox
   \\    /   O peration     | Website:  https://openfoam.org
    \\  /    A nd           | Version:  7
     \\/     M anipulation  |
\*---------------------------------------------------------------------------*/
FoamFile
{
    version     2.0;
    format      ascii;
    class       volScalarField;
    location    "8000";
    object      p;
}
// * * * * * * * * * * * * * * * * * * * * * * * * * * * * * * * * * * * * * //

dimensions      [0 2 -2 0 0 0 0];

internalField   nonuniform List<scalar> 
33730
(
-7.3368618e+95
-6.8451681e+95
-7.4308769e+95
-7.1752744e+95
-7.0137003e+95
-7.1023202e+95
-7.0535828e+95
-7.1253578e+95
-7.010386e+95
-6.3673589e+95
-6.6076832e+95
-6.8099252e+95
-6.8611556e+95
-6.7712174e+95
-7.1901079e+95
-7.2513684e+95
-7.1835909e+95
-7.2393371e+95
-7.1574768e+95
-7.1680187e+95
-7.1493261e+95
-7.080726e+95
-7.058874e+95
-6.9724291e+95
-6.9932935e+95
-7.0476974e+95
-7.0357404e+95
-6.9746223e+95
-6.9857436e+95
-7.0099482e+95
-7.0361199e+95
-6.9264728e+95
-6.9502529e+95
-6.5805424e+95
-6.3218529e+95
-6.3450796e+95
-6.5480512e+95
-6.3618568e+95
-6.4848164e+95
-6.372774e+95
-6.4714751e+95
-6.1408947e+95
-6.5975869e+95
-6.5836824e+95
-6.7224375e+95
-5.8904394e+95
-5.9049169e+95
-6.8434478e+95
-6.8226532e+95
-6.8814703e+95
-6.8913174e+95
-6.7828732e+95
-6.8032754e+95
-7.0545077e+95
-7.0239584e+95
-7.0529347e+95
-7.0828012e+95
-7.0827238e+95
-7.1101945e+95
-7.1350095e+95
-7.1077498e+95
-7.0663598e+95
-7.094971e+95
-7.0794478e+95
-7.0521172e+95
-7.1214904e+95
-7.1455896e+95
-7.1274711e+95
-7.1041517e+95
-7.0393519e+95
-7.0836445e+95
-7.0955265e+95
-7.1076502e+95
-7.0956571e+95
-7.0934216e+95
-7.1052247e+95
-7.0712992e+95
-7.0831007e+95
-6.9547681e+95
-7.0151186e+95
-7.02556e+95
-6.9649249e+95
-6.993859e+95
-7.0051514e+95
-6.9333683e+95
-6.9443374e+95
-7.0076091e+95
-7.0129501e+95
-6.9666186e+95
-6.9718925e+95
-6.9959726e+95
-7.0019371e+95
-6.9554148e+95
-6.9610347e+95
-6.9478725e+95
-6.9606096e+95
-6.8891248e+95
-6.900471e+95
-6.9725602e+95
-6.9123354e+95
-6.9840071e+95
-6.9236011e+95
-6.3842394e+95
-6.434638e+95
-6.2788121e+95
-6.1647473e+95
-6.688293e+95
-6.7073283e+95
-6.5700929e+95
-6.5539512e+95
-6.4199446e+95
-6.317165e+95
-6.3273445e+95
-6.4319667e+95
-6.4452077e+95
-6.3379441e+95
-6.3500831e+95
-6.1245209e+95
-6.4589446e+95
-5.8787371e+95
-6.6531539e+95
-6.5235571e+95
-6.5380978e+95
-6.6706637e+95
-6.3684271e+95
-6.363163e+95
-6.4119369e+95
-6.2575034e+95
-6.4177389e+95
-6.4800275e+95
-6.4734229e+95
-6.5369213e+95
-6.5299343e+95
-6.3789509e+95
-6.3730942e+95
-6.4291494e+95
-6.4230126e+95
-6.2673077e+95
-6.46748e+95
-6.461492e+95
-6.5178381e+95
-6.5239604e+95
-6.1543461e+95
-6.1455678e+95
-6.5873105e+95
-6.6542076e+95
-6.5944473e+95
-6.6406545e+95
-6.5812667e+95
-6.5749118e+95
-6.6478156e+95
-6.7181149e+95
-6.804772e+95
-6.7104091e+95
-6.7959379e+95
-6.7252968e+95
-5.3929898e+95
-5.6524462e+95
-5.8952965e+95
-6.0321921e+95
-6.0394788e+95
-5.8982174e+95
-5.9077339e+95
-6.0489351e+95
-6.8720404e+95
-6.8612865e+95
-6.8511804e+95
-6.8410018e+95
-6.8971809e+95
-6.9023595e+95
-6.9074338e+95
-6.9128376e+95
-6.8012521e+95
-6.8109971e+95
-6.8213661e+95
-6.832437e+95
-6.9390644e+95
-6.9936275e+95
-6.9373636e+95
-6.9099429e+95
-6.9419898e+95
-6.9686373e+95
-6.9622586e+95
-6.9937476e+95
-7.0173372e+95
-6.9865002e+95
-6.9851659e+95
-6.9989476e+95
-7.0122419e+95
-6.9984269e+95
-7.0252735e+95
-7.0124432e+95
-7.0253228e+95
-7.0381213e+95
-7.0248107e+95
-7.0372558e+95
-7.0057707e+95
-7.0176078e+95
-6.9983776e+95
-7.0117921e+95
-6.9801667e+95
-6.9931946e+95
-7.0376315e+95
-7.050601e+95
-7.062946e+95
-7.050139e+95
-7.0730599e+95
-7.062395e+95
-7.0743672e+95
-7.0852124e+95
-7.0830048e+95
-7.0506333e+95
-7.0611535e+95
-7.0723729e+95
-7.0489281e+95
-7.0611229e+95
-7.0283919e+95
-7.0399887e+95
-6.920032e+95
-7.0394714e+95
-7.0281405e+95
-7.057978e+95
-7.0466655e+95
-7.0593636e+95
-7.0650465e+95
-7.0591864e+95
-7.0648802e+95
-7.0708685e+95
-7.0764518e+95
-7.0705249e+95
-7.0762022e+95
-7.0479041e+95
-7.0235373e+95
-7.0536952e+95
-7.0294876e+95
-7.0593992e+95
-7.0649114e+95
-7.0353541e+95
-7.0406568e+95
-6.9346061e+95
-6.9750077e+95
-6.9804653e+95
-6.9400043e+95
-6.9856001e+95
-6.9909806e+95
-6.9453629e+95
-6.9505237e+95
-6.9548789e+95
-6.9602275e+95
-6.9145002e+95
-6.9194328e+95
-6.9705904e+95
-6.9655103e+95
-6.9247698e+95
-6.9299444e+95
-6.9780455e+95
-6.9748376e+95
-6.9529174e+95
-6.9558598e+95
-6.9829749e+95
-6.9806039e+95
-6.9585331e+95
-6.9608663e+95
-6.9668532e+95
-6.9635853e+95
-6.9417915e+95
-6.9446421e+95
-6.9475369e+95
-6.9697381e+95
-6.9724191e+95
-6.9503007e+95
-6.9111025e+95
-6.9170662e+95
-6.8718218e+95
-6.8771131e+95
-6.8827227e+95
-6.9229948e+95
-6.9288105e+95
-6.8884441e+95
-6.9341846e+95
-6.9404798e+95
-6.8939236e+95
-6.9000686e+95
-6.9056994e+95
-6.9458758e+95
-6.9507304e+95
-6.9104943e+95
-6.3419209e+95
-6.4043932e+95
-6.4072005e+95
-6.3360277e+95
-6.3822756e+95
-6.3795985e+95
-6.4289145e+95
-6.4548578e+95
-6.4317096e+95
-6.2872877e+95
-6.2931515e+95
-6.2407852e+95
-6.1931011e+95
-6.1988874e+95
-6.2465734e+95
-6.6827586e+95
-6.6737672e+95
-6.7571193e+95
-6.7667322e+95
-6.776818e+95
-6.7023134e+95
-6.6924305e+95
-6.7871409e+95
-6.6237203e+95
-6.558618e+95
-6.5678742e+95
-6.6330875e+95
-6.606111e+95
-6.550052e+95
-6.542529e+95
-6.6145619e+95
-6.4611471e+95
-6.4149529e+95
-6.4101403e+95
-6.4666812e+95
-6.368857e+95
-6.3225823e+95
-6.3322337e+95
-6.3268901e+95
-6.3733889e+95
-6.2285947e+95
-6.3793324e+95
-6.4269415e+95
-6.4731258e+95
-6.4201583e+95
-6.4810005e+95
-6.1224594e+95
-6.4875752e+95
-6.4397864e+95
-6.4332262e+95
-6.4944104e+95
-6.3912325e+95
-6.3848804e+95
-6.3367228e+95
-6.3424674e+95
-6.2377037e+95
-6.3568133e+95
-6.348791e+95
-6.397645e+95
-6.2476492e+95
-6.4055253e+95
-6.130736e+95
-6.139001e+95
-6.4548968e+95
-6.5110767e+95
-6.4466429e+95
-6.5021656e+95
-5.3840091e+95
-5.3878322e+95
-5.6443886e+95
-5.8804509e+95
-6.0142836e+95
-6.021004e+95
-5.8849189e+95
-6.0284926e+95
-5.8920977e+95
-6.6480318e+95
-6.6398298e+95
-6.7207753e+95
-6.729447e+95
-6.5128941e+95
-6.5818219e+95
-6.5740261e+95
-6.5195016e+95
-6.5355665e+95
-6.5270219e+95
-6.5899079e+95
-6.5988903e+95
-6.6661631e+95
-6.7493321e+95
-6.6566116e+95
-6.7389246e+95
-6.3895594e+95
-6.3920213e+95
-6.3208125e+95
-6.3678373e+95
-6.3656038e+95
-6.3841329e+95
-6.3870729e+95
-6.3160439e+95
-6.3631339e+95
-6.3602635e+95
-6.4077836e+95
-6.4327588e+95
-6.410701e+95
-6.435616e+95
-6.2724924e+95
-6.2681818e+95
-6.4132084e+95
-6.438318e+95
-6.4159193e+95
-6.4412132e+95
-6.474724e+95
-6.4779293e+95
-6.5013743e+95
-6.5045662e+95
-6.4691189e+95
-6.495482e+95
-6.4717543e+95
-6.4983e+95
-6.5283475e+95
-6.5575413e+95
-6.5317093e+95
-6.5223712e+95
-6.5514624e+95
-6.5251802e+95
-6.5542813e+95
-6.3991058e+95
-6.4019911e+95
-6.3306048e+95
-6.3772162e+95
-6.3744399e+95
-6.3940827e+95
-6.3965037e+95
-6.3248659e+95
-6.3718752e+95
-6.369768e+95
-6.4233337e+95
-6.4490467e+95
-6.4263994e+95
-6.4522245e+95
-6.418163e+95
-6.4436868e+95
-6.4206858e+95
-6.4462052e+95
-6.2758385e+95
-6.2817074e+95
-6.4634465e+95
-6.4898377e+95
-6.466424e+95
-6.4928085e+95
-6.4576909e+95
-6.4838606e+95
-6.4606286e+95
-6.4869473e+95
-6.5107515e+95
-6.5397363e+95
-6.5138352e+95
-6.5428223e+95
-6.5167754e+95
-6.545835e+95
-6.519783e+95
-6.5488987e+95
-6.1873447e+95
-6.1817932e+95
-6.2292925e+95
-6.2350347e+95
-6.1784809e+95
-6.1753913e+95
-6.2221962e+95
-6.2261667e+95
-6.5805726e+95
-6.5834843e+95
-6.6119162e+95
-6.6150362e+95
-6.6442352e+95
-6.6809251e+95
-6.6473711e+95
-6.6840975e+95
-6.5867827e+95
-6.618376e+95
-6.6310415e+95
-6.6345661e+95
-6.6668692e+95
-6.6705324e+95
-6.57479e+95
-6.6059728e+95
-6.5779142e+95
-6.609148e+95
-6.568511e+95
-6.599332e+95
-6.5717136e+95
-6.6027858e+95
-6.6379133e+95
-6.6413311e+95
-6.6741378e+95
-6.6778552e+95
-6.7108792e+95
-6.7537093e+95
-6.7148296e+95
-6.7578888e+95
-6.7988179e+95
-6.8532234e+95
-6.8034881e+95
-6.8583706e+95
-6.70312e+95
-6.7451706e+95
-6.7070292e+95
-6.749597e+95
-6.7897922e+95
-6.843622e+95
-6.7943974e+95
-6.848475e+95
-6.7615077e+95
-6.718153e+95
-6.7214371e+95
-5.3308955e+95
-5.7474692e+95
-5.5651411e+95
-5.5625435e+95
-5.7480557e+95
-5.9370742e+95
-5.9417201e+95
-6.0184213e+95
-6.0168317e+95
-6.0758292e+95
-6.0757082e+95
-6.1270822e+95
-6.12917e+95
-6.1327625e+95
-6.0789444e+95
-6.0838733e+95
-6.1376394e+95
-5.9446189e+95
-5.938184e+95
-6.0186473e+95
-6.0239136e+95
-5.9506227e+95
-6.0294612e+95
-6.0374929e+95
-6.1430751e+95
-6.0885597e+95
-6.0964716e+95
-6.1493259e+95
-6.886526e+95
-6.8922228e+95
-6.8760666e+95
-6.8811772e+95
-6.8659521e+95
-6.871471e+95
-6.8568142e+95
-6.8610462e+95
-6.9061224e+95
-6.9086872e+95
-6.9113185e+95
-6.9142496e+95
-6.9166839e+95
-6.9193421e+95
-6.9220064e+95
-6.9246857e+95
-6.8168655e+95
-6.8213011e+95
-6.8261885e+95
-6.8318513e+95
-6.8369443e+95
-6.842703e+95
-6.8480784e+95
-6.8531173e+95
-6.7063572e+95
-6.7510433e+95
-6.5309541e+95
-6.8251769e+95
-6.8002176e+95
-6.8301826e+95
-6.9325485e+95
-6.9454496e+95
-6.8540756e+95
-6.9580379e+95
-6.9709044e+95
-6.8476597e+95
-6.87713e+95
-6.9828305e+95
-6.9952763e+95
-6.8993777e+95
-7.0065547e+95
-7.0175025e+95
-6.8702097e+95
-6.9646132e+95
-6.9517983e+95
-6.9771493e+95
-6.9897475e+95
-6.9905359e+95
-6.9970578e+95
-6.9914935e+95
-6.9979167e+95
-7.0032578e+95
-7.0091578e+95
-7.0097362e+95
-7.0038417e+95
-6.9823525e+95
-6.9609332e+95
-6.9886256e+95
-6.9670829e+95
-6.9943376e+95
-6.9726172e+95
-6.9998674e+95
-6.9774989e+95
-6.9651269e+95
-6.9716375e+95
-6.9664102e+95
-6.9728602e+95
-6.9780997e+95
-6.9843708e+95
-6.9790447e+95
-6.9854024e+95
-6.9576513e+95
-6.9641745e+95
-6.9433335e+95
-6.9369845e+95
-6.9495805e+95
-6.9553281e+95
-6.9703161e+95
-6.9764364e+95
-7.0139792e+95
-7.0017692e+95
-7.0252059e+95
-7.0360588e+95
-7.0493131e+95
-7.0490403e+95
-7.0541593e+95
-7.0543371e+95
-7.0327098e+95
-7.0271422e+95
-7.0028654e+95
-7.0083288e+95
-7.0379187e+95
-7.0135221e+95
-7.0186126e+95
-7.0429426e+95
-7.0439264e+95
-7.0381834e+95
-7.0381189e+95
-7.0437809e+95
-7.014865e+95
-7.0210837e+95
-7.0153192e+95
-7.0213883e+95
-7.0271146e+95
-7.032798e+95
-7.0271104e+95
-7.0327888e+95
-7.0050911e+95
-7.011036e+95
-6.9877143e+95
-6.9820462e+95
-7.022034e+95
-6.9932291e+95
-6.9982325e+95
-7.0165985e+95
-6.9817686e+95
-6.9709635e+95
-6.8012706e+95
-6.9093515e+95
-6.9195616e+95
-7.0158232e+95
-7.0102245e+95
-7.0195986e+95
-7.0250537e+95
-7.0471529e+95
-7.0526875e+95
-7.0048444e+95
-6.9996617e+95
-7.0361128e+95
-7.0088868e+95
-7.0142305e+95
-7.0416528e+95
-7.0448419e+95
-7.0417711e+95
-7.0413145e+95
-7.0442047e+95
-7.0469569e+95
-7.0475995e+95
-7.050092e+95
-7.0496636e+95
-7.0523803e+95
-7.0527912e+95
-7.0554414e+95
-7.0560523e+95
-7.058797e+95
-7.0611616e+95
-7.058167e+95
-7.0607383e+95
-7.0390582e+95
-7.0362805e+95
-7.0272798e+95
-7.0303518e+95
-6.9858307e+95
-7.012231e+95
-7.0157175e+95
-6.9892056e+95
-7.0330885e+95
-7.0418805e+95
-7.0446353e+95
-7.0360106e+95
-7.0213475e+95
-7.0184615e+95
-6.9921247e+95
-6.9948754e+95
-7.0387563e+95
-7.0474947e+95
-7.0503745e+95
-7.0417593e+95
-7.0442579e+95
-7.0530887e+95
-7.0556334e+95
-7.0468413e+95
-6.9972491e+95
-7.0238188e+95
-7.0271206e+95
-7.0005106e+95
-7.0320225e+95
-7.0295164e+95
-7.0030409e+95
-7.0054825e+95
-6.9450998e+95
-6.9425835e+95
-6.9207937e+95
-6.9232086e+95
-6.9504721e+95
-6.9478278e+95
-6.9258857e+95
-6.9285621e+95
-6.9557576e+95
-6.952725e+95
-6.9310477e+95
-6.9339118e+95
-6.9612933e+95
-6.9584628e+95
-6.9366524e+95
-6.9393708e+95
-6.9255682e+95
-6.9231546e+95
-6.9014848e+95
-6.9036577e+95
-6.930423e+95
-6.9281022e+95
-6.9060574e+95
-6.9085014e+95
-6.9382135e+95
-6.9405934e+95
-6.9164472e+95
-6.9188023e+95
-6.932821e+95
-6.9109238e+95
-6.9137766e+95
-6.9356728e+95
-6.9334595e+95
-6.9307348e+95
-6.93855e+95
-6.936116e+95
-6.9226897e+95
-6.9199001e+95
-6.9254822e+95
-6.9281874e+95
-6.8597279e+95
-6.8807156e+95
-6.8833536e+95
-6.8621229e+95
-6.8886927e+95
-6.8861108e+95
-6.8647369e+95
-6.8674366e+95
-6.8913653e+95
-6.8944688e+95
-6.8700864e+95
-6.8730757e+95
-6.8759639e+95
-6.897379e+95
-6.8999918e+95
-6.8786741e+95
-6.9055629e+95
-6.9024048e+95
-6.8810953e+95
-6.8841031e+95
-6.9115805e+95
-6.9087197e+95
-6.8871376e+95
-6.8900978e+95
-6.9140533e+95
-6.9168673e+95
-6.8953257e+95
-6.8925983e+95
-6.9193353e+95
-6.921369e+95
-6.8977555e+95
-6.899791e+95
-5.08794e+95
-6.363529e+95
-6.3416073e+95
-6.3451951e+95
-6.3669971e+95
-6.4006103e+95
-6.4019049e+95
-6.4147202e+95
-6.4160222e+95
-6.4176602e+95
-6.4191766e+95
-6.4034475e+95
-6.4049909e+95
-6.357836e+95
-6.3358698e+95
-6.3384604e+95
-6.3604147e+95
-6.3847026e+95
-6.3817531e+95
-6.4407129e+95
-6.4270191e+95
-6.4393193e+95
-6.4283848e+95
-6.4518781e+95
-6.4647024e+95
-6.4660312e+95
-6.4532428e+95
-6.4436244e+95
-6.4299418e+95
-6.4421281e+95
-6.4314377e+95
-6.31461e+95
-6.2934183e+95
-6.2960005e+95
-6.3172114e+95
-6.3028022e+95
-6.2992194e+95
-6.3204397e+95
-6.3240241e+95
-6.272585e+95
-6.251802e+95
-6.2544595e+95
-6.2750968e+95
-6.2320433e+95
-6.2120037e+95
-6.214515e+95
-6.2346628e+95
-6.2213568e+95
-6.2173745e+95
-6.2375786e+95
-6.2412333e+95
-6.2782071e+95
-6.2574479e+95
-6.2609531e+95
-6.2818186e+95
-6.6736433e+95
-6.6789148e+95
-6.7151905e+95
-6.7204118e+95
-6.6658209e+95
-6.7069483e+95
-6.6692764e+95
-6.7107066e+95
-6.7506529e+95
-6.8036967e+95
-6.7543825e+95
-6.807559e+95
-6.7589831e+95
-6.8123012e+95
-6.7644141e+95
-6.8178255e+95
-6.7692565e+95
-6.7743868e+95
-6.8225557e+95
-6.8276325e+95
-6.6937805e+95
-6.6989393e+95
-6.7355366e+95
-6.7407301e+95
-6.6837401e+95
-6.7252144e+95
-6.688775e+95
-6.7304541e+95
-6.7795345e+95
-6.7850542e+95
-6.8329845e+95
-6.8387297e+95
-6.6124266e+95
-6.6478358e+95
-6.6175304e+95
-6.6528253e+95
-6.5504821e+95
-6.5554904e+95
-6.581059e+95
-6.5862329e+95
-6.5602356e+95
-6.5649105e+95
-6.5909716e+95
-6.5955936e+95
-6.6222397e+95
-6.6270653e+95
-6.6577244e+95
-6.6627953e+95
-6.5954695e+95
-6.6303143e+95
-6.5987007e+95
-6.6335917e+95
-6.5414312e+95
-6.5459646e+95
-6.5716768e+95
-6.5764034e+95
-6.534826e+95
-6.564655e+95
-6.5377969e+95
-6.5678684e+95
-6.6026239e+95
-6.6076228e+95
-6.6377885e+95
-6.6430192e+95
-6.4533778e+95
-6.4794726e+95
-6.4557902e+95
-6.4819814e+95
-6.4100399e+95
-6.4127702e+95
-6.433964e+95
-6.4369444e+95
-6.4076644e+95
-6.4314324e+95
-6.458459e+95
-6.4617986e+95
-6.4849902e+95
-6.4887451e+95
-6.3640484e+95
-6.3870885e+95
-6.3664279e+95
-6.3896467e+95
-6.3417529e+95
-6.3439831e+95
-6.2778499e+95
-6.321305e+95
-6.3191154e+95
-6.3508227e+95
-6.3534564e+95
-6.286941e+95
-6.3299064e+95
-6.3276614e+95
-6.3460013e+95
-6.3483945e+95
-6.2819654e+95
-6.3253625e+95
-6.3232901e+95
-6.368426e+95
-6.3920059e+95
-6.370924e+95
-6.3946847e+95
-6.2361534e+95
-6.2410027e+95
-6.373524e+95
-6.3976108e+95
-6.376591e+95
-6.4009432e+95
-6.4216217e+95
-6.4468568e+95
-6.425051e+95
-6.4503461e+95
-6.4652104e+95
-6.4924182e+95
-6.4689097e+95
-6.4963505e+95
-6.4154697e+95
-6.4399985e+95
-6.4184284e+95
-6.4434272e+95
-6.4725715e+95
-6.5002992e+95
-6.4762527e+95
-6.5041895e+95
-6.1523557e+95
-6.1487514e+95
-6.192663e+95
-6.1972217e+95
-6.4790689e+95
-6.5069499e+95
-6.481855e+95
-6.5097459e+95
-6.4336982e+95
-6.4374029e+95
-6.459093e+95
-6.4628983e+95
-6.4278663e+95
-6.453101e+95
-6.4305689e+95
-6.4559307e+95
-6.4850317e+95
-6.4890867e+95
-6.5131526e+95
-6.5175044e+95
-6.3848767e+95
-6.4093857e+95
-6.3884691e+95
-6.4130268e+95
-6.3793026e+95
-6.4037183e+95
-6.3820167e+95
-6.4063645e+95
-6.3556828e+95
-6.3582951e+95
-6.290778e+95
-6.3317798e+95
-6.3340909e+95
-6.3611833e+95
-6.3647039e+95
-6.2957977e+95
-6.3405425e+95
-6.337017e+95
-6.2443125e+95
-6.2487046e+95
-6.3761681e+95
-6.3806689e+95
-6.3097733e+95
-6.3567202e+95
-6.3521501e+95
-6.3679167e+95
-6.372026e+95
-6.3017566e+95
-6.3478686e+95
-6.3438545e+95
-6.3916277e+95
-6.416481e+95
-6.3956848e+95
-6.4205617e+95
-6.2540337e+95
-6.2620276e+95
-6.3997543e+95
-6.4247679e+95
-6.4043267e+95
-6.4293159e+95
-6.2004526e+95
-6.1553421e+95
-6.1589965e+95
-6.2043169e+95
-6.1705665e+95
-6.1639448e+95
-6.2090627e+95
-6.2165414e+95
-6.4496988e+95
-6.4759105e+95
-6.4542056e+95
-6.4803746e+95
-6.5026523e+95
-6.5315468e+95
-6.5072273e+95
-6.536205e+95
-6.4411236e+95
-6.4668683e+95
-6.4453777e+95
-6.4714726e+95
-6.4933135e+95
-6.5219327e+95
-6.4980742e+95
-6.5268396e+95
-5.3211899e+95
-5.7338986e+95
-5.549876e+95
-5.325033e+95
-5.5519557e+95
-5.7369593e+95
-5.744405e+95
-5.561319e+95
-6.0012463e+95
-5.9240289e+95
-6.0043739e+95
-5.9271691e+95
-6.1031564e+95
-6.055171e+95
-6.0584403e+95
-6.1063585e+95
-6.1097543e+95
-6.0621873e+95
-6.0659628e+95
-6.1131425e+95
-6.0073251e+95
-5.9295798e+95
-6.0109056e+95
-5.9316731e+95
-6.1183368e+95
-6.0709208e+95
-6.0753318e+95
-6.1237176e+95
-6.0155236e+95
-5.9364894e+95
-6.0193519e+95
-5.9421352e+95
-6.6397913e+95
-6.6801301e+95
-6.644463e+95
-6.6847313e+95
-6.6322335e+95
-6.6722239e+95
-6.6358059e+95
-6.6761169e+95
-6.714687e+95
-6.7185521e+95
-6.7659792e+95
-6.7699563e+95
-6.7226717e+95
-6.727586e+95
-6.7743667e+95
-6.7796671e+95
-6.5057e+95
-6.508413e+95
-6.5342254e+95
-6.5372528e+95
-6.5708835e+95
-6.605049e+95
-6.5753374e+95
-6.6096765e+95
-6.5639359e+95
-6.5977752e+95
-6.5671009e+95
-6.6011352e+95
-6.5117505e+95
-6.515766e+95
-6.5408341e+95
-6.5450286e+95
-6.5278642e+95
-6.5318848e+95
-6.5576696e+95
-6.5617089e+95
-6.5195802e+95
-6.5237174e+95
-6.5489808e+95
-6.5533953e+95
-6.5793709e+95
-6.5838377e+95
-6.6138818e+95
-6.6184961e+95
-6.5881967e+95
-6.592389e+95
-6.6230005e+95
-6.6272987e+95
-6.6581963e+95
-6.6993622e+95
-6.662596e+95
-6.7037315e+95
-6.7427723e+95
-6.7955012e+95
-6.7474048e+95
-6.8003798e+95
-6.6487576e+95
-6.6892942e+95
-6.6535612e+95
-6.6945586e+95
-6.7323666e+95
-6.7377524e+95
-6.7846609e+95
-6.7902439e+95
-6.3872091e+95
-6.3881615e+95
-6.4006695e+95
-6.4016582e+95
-6.4029616e+95
-6.4040202e+95
-6.3892442e+95
-6.3901874e+95
-6.3443308e+95
-6.322925e+95
-6.3249381e+95
-6.3464958e+95
-6.3708764e+95
-6.3690537e+95
-6.381603e+95
-6.3833306e+95
-6.3951174e+95
-6.3968109e+95
-6.3984011e+95
-6.3996926e+95
-6.3848459e+95
-6.3861018e+95
-6.3207475e+95
-6.3179326e+95
-6.3391895e+95
-6.3420054e+95
-6.3668812e+95
-6.3638805e+95
-6.4068937e+95
-6.4086298e+95
-6.4203297e+95
-6.4186287e+95
-6.4306482e+95
-6.4323067e+95
-6.4429298e+95
-6.4445451e+95
-6.4231555e+95
-6.4101707e+95
-6.4217823e+95
-6.4114777e+95
-6.4460269e+95
-6.4337683e+95
-6.435192e+95
-6.4474695e+95
-6.282759e+95
-6.281122e+95
-6.30212e+95
-6.3039365e+95
-6.2792142e+95
-6.2765203e+95
-6.2972515e+95
-6.3000628e+95
-6.4254613e+95
-6.4124919e+95
-6.4243137e+95
-6.4135651e+95
-6.4487589e+95
-6.4364117e+95
-6.4375887e+95
-6.449963e+95
-6.4279104e+95
-6.4148657e+95
-6.4266855e+95
-6.4159999e+95
-6.4512935e+95
-6.4388482e+95
-6.4401541e+95
-6.452649e+95
-6.4716313e+95
-6.4843935e+95
-6.4858505e+95
-6.4730361e+95
-6.4761359e+95
-6.4745323e+95
-6.4873681e+95
-6.4889852e+95
-6.512033e+95
-6.4971622e+95
-6.5105238e+95
-6.4986327e+95
-6.5018095e+95
-6.5152431e+95
-6.5001464e+95
-6.5135623e+95
-6.4803552e+95
-6.4663965e+95
-6.4790714e+95
-6.4676299e+95
-6.4917672e+95
-6.5050396e+95
-6.5061688e+95
-6.4929703e+95
-6.4830337e+95
-6.4688581e+95
-6.4815867e+95
-6.47028e+95
-6.4942899e+95
-6.5075308e+95
-6.4957791e+95
-6.5090841e+95
-6.5238736e+95
-6.5378135e+95
-6.5394047e+95
-6.5254149e+95
-6.5667857e+95
-6.5534783e+95
-6.551892e+95
-6.5683784e+95
-6.5269877e+95
-6.5286788e+95
-6.5410301e+95
-6.5426945e+95
-6.5334352e+95
-6.5183478e+95
-6.5322381e+95
-6.519496e+95
-6.5610929e+95
-6.546271e+95
-6.5474539e+95
-6.5622683e+95
-6.5224213e+95
-6.5363476e+95
-6.5208518e+95
-6.5347871e+95
-6.5636471e+95
-6.5488081e+95
-6.5504144e+95
-6.5652842e+95
-6.3957116e+95
-6.3968801e+95
-6.4095893e+95
-6.410801e+95
-6.4123386e+95
-6.413682e+95
-6.3982199e+95
-6.3994993e+95
-6.352642e+95
-6.3306285e+95
-6.3335308e+95
-6.3554706e+95
-6.3794476e+95
-6.3770017e+95
-6.39104e+95
-6.3920301e+95
-6.4048262e+95
-6.405831e+95
-6.4072416e+95
-6.4085315e+95
-6.3932958e+95
-6.3945526e+95
-6.3483059e+95
-6.3266106e+95
-6.3282418e+95
-6.3501691e+95
-6.3746999e+95
-6.3724855e+95
-6.4217389e+95
-6.4230298e+95
-6.4338969e+95
-6.4352323e+95
-6.4476508e+95
-6.4589748e+95
-6.4603462e+95
-6.4463039e+95
-6.4245361e+95
-6.4259186e+95
-6.4380669e+95
-6.436647e+95
-6.4490775e+95
-6.4505717e+95
-6.4618237e+95
-6.4633911e+95
-6.4300706e+95
-6.4168936e+95
-6.4289441e+95
-6.4179707e+95
-6.4412697e+95
-6.4538307e+95
-6.4549786e+95
-6.4423995e+95
-6.4326639e+95
-6.4193334e+95
-6.4313107e+95
-6.4206459e+95
-6.4436361e+95
-6.4562274e+95
-6.4450228e+95
-6.4576237e+95
-6.3053522e+95
-6.283808e+95
-6.2851773e+95
-6.3068307e+95
-6.2910009e+95
-6.2877339e+95
-6.3092749e+95
-6.312259e+95
-6.4750053e+95
-6.4611255e+95
-6.473677e+95
-6.4623873e+95
-6.4863576e+95
-6.4996664e+95
-6.5009872e+95
-6.4876861e+95
-6.4651525e+95
-6.4778167e+95
-6.4637446e+95
-6.4763739e+95
-6.4890653e+95
-6.5023799e+95
-6.490534e+95
-6.5038609e+95
-6.4693398e+95
-6.4552099e+95
-6.4676757e+95
-6.45685e+95
-6.4802724e+95
-6.4819158e+95
-6.4935048e+95
-6.4951198e+95
-6.4723521e+95
-6.4583401e+95
-6.4708348e+95
-6.4598183e+95
-6.496669e+95
-6.4834419e+95
-6.4850128e+95
-6.4982921e+95
-6.5222658e+95
-6.5067458e+95
-6.5205653e+95
-6.5083972e+95
-6.534501e+95
-6.5361805e+95
-6.5491999e+95
-6.5508641e+95
-6.5115786e+95
-6.5254256e+95
-6.5099491e+95
-6.5238132e+95
-6.5524461e+95
-6.5377367e+95
-6.539389e+95
-6.5541237e+95
-6.5282682e+95
-6.5129684e+95
-6.5268381e+95
-6.514326e+95
-6.5555663e+95
-6.5408134e+95
-6.5422302e+95
-6.5569778e+95
-6.517184e+95
-6.5310783e+95
-6.5157188e+95
-6.52966e+95
-6.5584356e+95
-6.5436457e+95
-6.5451057e+95
-6.5599228e+95
-6.2090585e+95
-6.2051171e+95
-6.2253484e+95
-6.229211e+95
-6.202377e+95
-6.2009175e+95
-6.2210542e+95
-6.2224897e+95
-6.2624098e+95
-6.2411013e+95
-6.2425022e+95
-6.2636954e+95
-6.2663774e+95
-6.2452987e+95
-6.2490504e+95
-6.2699595e+95
-6.2002297e+95
-6.198875e+95
-6.2192405e+95
-6.2205255e+95
-6.1976698e+95
-6.1957167e+95
-6.2155306e+95
-6.2178341e+95
-6.2376425e+95
-6.2351696e+95
-6.2558803e+95
-6.2584258e+95
-6.2601642e+95
-6.2392311e+95
-6.2405542e+95
-6.2617066e+95
-6.5921988e+95
-6.5756767e+95
-6.5908858e+95
-6.5769031e+95
-6.5782979e+95
-6.5799521e+95
-6.5936167e+95
-6.5952659e+95
-6.606058e+95
-6.6223947e+95
-6.6073759e+95
-6.6237203e+95
-6.6105566e+95
-6.6252286e+95
-6.6270111e+95
-6.6088375e+95
-6.6386615e+95
-6.6400509e+95
-6.6578213e+95
-6.6563272e+95
-6.6740659e+95
-6.693601e+95
-6.6951005e+95
-6.6755568e+95
-6.6610907e+95
-6.6415775e+95
-6.6593617e+95
-6.6433669e+95
-6.677115e+95
-6.6788575e+95
-6.6966818e+95
-6.6984085e+95
-6.5984522e+95
-6.5814561e+95
-6.5967939e+95
-6.5830758e+95
-6.6121052e+95
-6.6286051e+95
-6.6254207e+95
-6.6427249e+95
-6.6447711e+95
-6.6273702e+95
-6.6309093e+95
-6.6290722e+95
-6.6464612e+95
-6.6482758e+95
-6.6808829e+95
-6.6599949e+95
-6.6789884e+95
-6.6619377e+95
-6.6656605e+95
-6.6848126e+95
-6.6637356e+95
-6.6827801e+95
-6.5700477e+95
-6.5715001e+95
-6.5851529e+95
-6.5866808e+95
-6.6017304e+95
-6.6179555e+95
-6.6002042e+95
-6.6164097e+95
-6.5896524e+95
-6.5729732e+95
-6.5881655e+95
-6.5744759e+95
-6.6032386e+95
-6.6195031e+95
-6.6210979e+95
-6.6047854e+95
-6.5803268e+95
-6.5635769e+95
-6.5785221e+95
-6.5652897e+95
-6.5934033e+95
-6.6094498e+95
-6.6113097e+95
-6.5952298e+95
-6.583667e+95
-6.5668948e+95
-6.5819641e+95
-6.5685945e+95
-6.5969136e+95
-6.6130291e+95
-6.5986904e+95
-6.6148574e+95
-6.6324945e+95
-6.6499221e+95
-6.6516815e+95
-6.6341126e+95
-6.6357097e+95
-6.6533297e+95
-6.637325e+95
-6.6549407e+95
-6.6885017e+95
-6.6673868e+95
-6.6866273e+95
-6.6691896e+95
-6.6726321e+95
-6.6709154e+95
-6.6903122e+95
-6.6921167e+95
-6.705424e+95
-6.7262378e+95
-6.7073683e+95
-6.7283328e+95
-6.7493195e+95
-6.7735778e+95
-6.7472067e+95
-6.7713925e+95
-6.7111273e+95
-6.7092338e+95
-6.7302728e+95
-6.7321945e+95
-6.7534398e+95
-6.7780111e+95
-6.7513455e+95
-6.7757329e+95
-6.7953328e+95
-6.8231707e+95
-6.7976393e+95
-6.8256918e+95
-6.854109e+95
-6.8844664e+95
-6.8870467e+95
-6.8515751e+95
-6.799917e+95
-6.8280818e+95
-6.8023347e+95
-6.8305006e+95
-6.8592129e+95
-6.8923895e+95
-6.8566189e+95
-6.8896549e+95
-6.6975151e+95
-6.6994618e+95
-6.7179583e+95
-6.7200632e+95
-6.7407167e+95
-6.7645863e+95
-6.7385496e+95
-6.7623257e+95
-6.7014082e+95
-6.7221037e+95
-6.7242827e+95
-6.7035412e+95
-6.7692822e+95
-6.7428449e+95
-6.7668171e+95
-6.7451804e+95
-6.7859651e+95
-6.7883277e+95
-6.8135066e+95
-6.8160585e+95
-6.8441972e+95
-6.8767969e+95
-6.8416898e+95
-6.8743268e+95
-6.7906285e+95
-6.81842e+95
-6.820933e+95
-6.7931524e+95
-6.882093e+95
-6.8466182e+95
-6.8792664e+95
-6.8492743e+95
-6.7799055e+95
-6.7551676e+95
-6.7567821e+95
-6.7814003e+95
-6.7338213e+95
-6.7126789e+95
-6.7142269e+95
-6.7354799e+95
-6.7158188e+95
-6.7370915e+95
-6.7175542e+95
-5.3119561e+95
-5.5445124e+95
-5.5413552e+95
-5.8459161e+95
-5.7198801e+95
-5.7114347e+95
-5.8399122e+95
-5.8403691e+95
-5.846527e+95
-5.7106277e+95
-5.7176231e+95
-5.8523429e+95
-5.7227472e+95
-5.9836679e+95
-5.9840375e+95
-6.0309256e+95
-6.0302329e+95
-5.9875094e+95
-5.9938436e+95
-6.0373488e+95
-6.0335187e+95
-6.06507e+95
-6.0678411e+95
-6.0935442e+95
-6.0918674e+95
-6.0908666e+95
-6.0632324e+95
-6.0629061e+95
-6.0912564e+95
-6.1160229e+95
-6.1151486e+95
-6.1365576e+95
-6.1379266e+95
-6.1155295e+95
-6.1163652e+95
-6.1362183e+95
-6.1364569e+95
-6.1564203e+95
-6.1554787e+95
-6.1754956e+95
-6.1770225e+95
-6.1778963e+95
-6.1569671e+95
-6.1584483e+95
-6.1794382e+95
-6.180379e+95
-6.1597304e+95
-6.1611428e+95
-6.1817309e+95
-6.1393198e+95
-6.1174218e+95
-6.1189518e+95
-6.140746e+95
-6.1249451e+95
-6.1214463e+95
-6.1430338e+95
-6.1465296e+95
-6.1841194e+95
-6.1633569e+95
-6.1670653e+95
-6.1881118e+95
-5.9953699e+95
-5.988901e+95
-6.0358498e+95
-6.0408098e+95
-5.9847266e+95
-5.9839511e+95
-6.03087e+95
-6.0324098e+95
-6.0924101e+95
-6.0639205e+95
-6.0654991e+95
-6.0939217e+95
-6.0966055e+95
-6.068442e+95
-6.0728484e+95
-6.1003944e+95
-5.9985419e+95
-5.9985479e+95
-6.0436976e+95
-6.0458845e+95
-6.1030302e+95
-6.0755638e+95
-6.078413e+95
-6.1058579e+95
-6.10968e+95
-6.0820352e+95
-6.0869176e+95
-6.1146394e+95
-6.1912017e+95
-6.1700119e+95
-6.1724811e+95
-6.1935549e+95
-6.1490278e+95
-6.127426e+95
-6.1301173e+95
-6.1516622e+95
-6.1386833e+95
-6.1335692e+95
-6.1547452e+95
-6.1598953e+95
-6.1963197e+95
-6.1752901e+95
-6.180132e+95
-6.200791e+95
-6.8949713e+95
-6.8978161e+95
-6.9005807e+95
-6.9036293e+95
-6.8849268e+95
-6.8871639e+95
-6.8896262e+95
-6.892498e+95
-6.8747041e+95
-6.8773723e+95
-6.8800499e+95
-6.8828144e+95
-6.8660879e+95
-6.8678711e+95
-6.8699171e+95
-6.8724232e+95
-6.8259679e+95
-6.8280165e+95
-6.8301979e+95
-6.8328266e+95
-6.8351852e+95
-6.8379576e+95
-6.8406717e+95
-6.8436477e+95
-6.8459941e+95
-6.8487871e+95
-6.8515899e+95
-6.8546943e+95
-6.8571374e+95
-6.8597168e+95
-6.862101e+95
-6.8644004e+95
-6.4628647e+95
-6.6829884e+95
-6.7051703e+95
-6.498553e+95
-6.7454912e+95
-6.7255947e+95
-6.2523347e+95
-6.5259474e+95
-6.5112157e+95
-6.6431944e+95
-6.6602335e+95
-6.7199217e+95
-6.8906278e+95
-6.8784133e+95
-6.8204318e+95
-6.8320783e+95
-6.7415063e+95
-6.9149102e+95
-6.9023833e+95
-6.8429455e+95
-6.8549159e+95
-6.9386706e+95
-6.9265493e+95
-6.7625658e+95
-6.8778999e+95
-6.8661035e+95
-6.9606305e+95
-6.9497553e+95
-6.7826141e+95
-6.8888114e+95
-6.8994708e+95
-6.9244958e+95
-6.9180726e+95
-6.9277934e+95
-6.9340171e+95
-6.9551722e+95
-6.9614001e+95
-6.9120983e+95
-6.9062078e+95
-6.9158147e+95
-6.9218328e+95
-6.9427637e+95
-6.9490146e+95
-6.93636e+95
-6.9303428e+95
-6.9398456e+95
-6.9459765e+95
-6.9674058e+95
-6.9736932e+95
-6.9490567e+95
-6.9425728e+95
-6.9521133e+95
-6.9584659e+95
-6.9797751e+95
-6.9858901e+95
-6.9771486e+95
-6.9736769e+95
-6.9739752e+95
-6.977259e+95
-6.9830376e+95
-6.9802015e+95
-6.9802627e+95
-6.9832447e+95
-6.9923188e+95
-6.9949687e+95
-6.9921778e+95
-6.9949567e+95
-6.9893576e+95
-6.9859085e+95
-6.9860712e+95
-6.9892967e+95
-6.9733494e+95
-6.9701934e+95
-6.9629653e+95
-6.9662015e+95
-6.9239956e+95
-6.9491943e+95
-6.9526143e+95
-6.9271102e+95
-6.9793081e+95
-6.9763431e+95
-6.969131e+95
-6.971993e+95
-6.9584787e+95
-6.9556547e+95
-6.9303834e+95
-6.9332634e+95
-6.9821044e+95
-6.985139e+95
-6.9775736e+95
-6.9746128e+95
-6.9610917e+95
-6.9640925e+95
-6.93874e+95
-6.9359531e+95
-6.9801144e+95
-6.9879098e+95
-6.9906005e+95
-6.9826209e+95
-6.94128e+95
-6.9664696e+95
-6.9686642e+95
-6.9433079e+95
-6.9524429e+95
-6.9490256e+95
-6.9494452e+95
-6.9526962e+95
-6.958414e+95
-6.9555241e+95
-6.9557582e+95
-6.9588321e+95
-6.9648901e+95
-6.9613941e+95
-6.961786e+95
-6.965112e+95
-6.967989e+95
-6.9681591e+95
-6.9707553e+95
-6.971078e+95
-6.9490053e+95
-6.9458516e+95
-6.942186e+95
-6.938942e+95
-6.9552851e+95
-6.9521312e+95
-6.9484434e+95
-6.9452391e+95
-6.9321131e+95
-6.9073864e+95
-6.9099579e+95
-6.9349583e+95
-6.9291474e+95
-6.9259113e+95
-6.901681e+95
-6.9044387e+95
-6.9378511e+95
-6.9411375e+95
-6.9159854e+95
-6.9128779e+95
-6.9189101e+95
-6.9439225e+95
-6.9466098e+95
-6.9215471e+95
-6.961464e+95
-6.9582541e+95
-6.954464e+95
-6.9512732e+95
-6.967319e+95
-6.9644378e+95
-6.9601483e+95
-6.957392e+95
-6.9729915e+95
-6.9667807e+95
-6.9822835e+95
-6.9763026e+95
-7.0036427e+95
-7.0094021e+95
-6.960812e+95
-6.9548425e+95
-6.9703349e+95
-6.9644008e+95
-6.9917573e+95
-6.9977999e+95
-6.9836286e+95
-6.9783563e+95
-6.993028e+95
-6.9876219e+95
-7.0203451e+95
-7.0147679e+95
-6.9945501e+95
-6.9889262e+95
-6.998339e+95
-7.0309343e+95
-7.0256585e+95
-7.0038172e+95
-7.0314639e+95
-7.0345343e+95
-7.0338713e+95
-7.0310184e+95
-7.0364376e+95
-7.0370849e+95
-7.0393227e+95
-7.0388585e+95
-7.0209317e+95
-7.0234419e+95
-7.0145569e+95
-7.0120275e+95
-7.0065273e+95
-7.0154232e+95
-7.0181998e+95
-7.0093622e+95
-6.9649393e+95
-6.9915209e+95
-6.9944004e+95
-6.967527e+95
-6.9702796e+95
-6.9969789e+95
-6.9995979e+95
-6.9729625e+95
-7.0260228e+95
-7.0286972e+95
-7.0197513e+95
-7.0169811e+95
-6.9751773e+95
-7.0018428e+95
-7.0049662e+95
-6.978265e+95
-6.9809136e+95
-7.0073319e+95
-7.0099723e+95
-6.9837539e+95
-7.0313309e+95
-7.0337111e+95
-7.0247444e+95
-7.0222575e+95
-7.0202561e+95
-7.0205964e+95
-7.0237338e+95
-7.0231878e+95
-7.0258985e+95
-7.0264875e+95
-7.0289239e+95