/*--------------------------------*- C++ -*----------------------------------*\
  =========                 |
  \\      /  F ield         | OpenFOAM: The Open Source CFD Toolbox
   \\    /   O peration     | Website:  https://openfoam.org
    \\  /    A nd           | Version:  7
     \\/     M anipulation  |
\*---------------------------------------------------------------------------*/
FoamFile
{
    version     2.0;
    format      ascii;
    class       volScalarField;
    location    "2000";
    object      k;
}
// * * * * * * * * * * * * * * * * * * * * * * * * * * * * * * * * * * * * * //

dimensions      [0 2 -2 0 0 0 0];

internalField   nonuniform List<scalar> 
33899
(
1.5188372
1.5189902
1.5212519
1.5185457
1.5188005
1.5192293
1.5190111
1.5188791
1.5190025
1.518831
1.5187727
1.5203311
1.5203558
1.5204297
1.5213864
1.5206654
1.5206037
1.520341
1.5206641
1.5217383
1.5204796
1.5206473
1.5188023
1.5184969
1.5185243
1.5187627
1.5201197
1.5192382
1.5191697
1.5190543
1.519028
1.5205419
1.5222451
1.5220402
1.5178787
1.5180057
1.5177198
1.5175828
1.5189042
1.5175807
1.5177205
1.5179344
1.517794
1.5187976
1.5175809
1.5175933
1.5176619
1.5179128
1.5199058
1.5199038
1.5201145
1.5201129
1.5201907
1.5203922
1.5202538
1.5200526
1.5200795
1.5202947
1.5201877
1.51998
1.519973
1.5201654
1.5205869
1.5202063
1.5203264
1.5202627
1.5202487
1.5202453
1.520261
1.5203428
1.5203295
1.5203826
1.5203693
1.5202799
1.5206658
1.5208062
1.5205643
1.5207847
1.5205387
1.5185044
1.517841
1.5175725
1.5206265
1.5207221
1.5205676
1.5207295
1.5201241
1.5194637
1.5187496
1.5191636
1.5184508
1.5185066
1.5187241
1.5201887
1.5201929
1.5192659
1.5191421
1.519187
1.5190661
1.5193245
1.517574
1.5216431
1.5223604
1.5221552
1.5214486
1.5215229
1.5215255
1.5213923
1.5214109
1.521139
1.52113
1.5172364
1.5173469
1.517603
1.5175966
1.5173542
1.5179099
1.517549
1.517301
1.5175894
1.5173666
1.5172173
1.5172657
1.5172131
1.5172593
1.5172548
1.5172568
1.5176529
1.5172533
1.5172517
1.5174892
1.5176416
1.517623
1.5172952
1.5172839
1.5172828
1.5172939
1.5172549
1.5172438
1.5172784
1.5172895
1.5175792
1.5173729
1.5174173
1.5176254
1.5177943
1.5175907
1.517417
1.5174081
1.5175722
1.5175737
1.5174137
1.5175446
1.5175824
1.5172492
1.5172607
1.517302
1.5176253
1.5173851
1.5174425
1.5176824
1.5196103
1.5196162
1.5198137
1.519813
1.5195903
1.5195743
1.5198001
1.5198076
1.519892
1.5199116
1.5199331
1.5199122
1.5199239
1.5198991
1.5199235
1.5199479
1.5199861
1.5199834
1.5200061
1.5200112
1.5199981
1.520108
1.5200714
1.5201866
1.5202878
1.5200372
1.5200265
1.5199952
1.5200084
1.5199751
1.5197675
1.5197439
1.5199369
1.51983
1.5198762
1.5200876
1.5200365
1.5201587
1.5201509
1.5201
1.52011
1.5199566
1.519942
1.5199317
1.5199477
1.5198898
1.5196919
1.5196816
1.5198666
1.519639
1.5198334
1.5198331
1.5196499
1.5199291
1.5198968
1.5199146
1.5199118
1.5204019
1.5204151
1.520338
1.5203245
1.5201105
1.5202534
1.5200178
1.5200127
1.5200116
1.5200196
1.5200041
1.5200042
1.5200022
1.5200011
1.5199735
1.519996
1.519998
1.5199739
1.5199947
1.5199856
1.5200106
1.5200205
1.5200671
1.5200836
1.5200893
1.5200623
1.5200788
1.5200771
1.5200542
1.5200563
1.520217
1.5202103
1.5201569
1.5201634
1.520209
1.5202026
1.5201498
1.5201548
1.5191963
1.5193832
1.5204897
1.520579
1.5205963
1.5205296
1.5205175
1.5202952
1.5203549
1.520371
1.5203145
1.5203768
1.5209796
1.5182094
1.518462
1.5185101
1.5182887
1.5186715
1.518561
1.5185152
1.5186227
1.5191099
1.5177507
1.5181934
1.5177397
1.5175078
1.5172359
1.5170591
1.5220318
1.5207183
1.5210013
1.5208098
1.5206554
1.5208098
1.5202589
1.51973
1.5193952
1.5194755
1.5195254
1.5194257
1.5187037
1.5192309
1.5191074
1.518412
1.5184958
1.5186791
1.5202772
1.5202898
1.520284
1.5192994
1.5191309
1.5191511
1.5189271
1.5194018
1.5159524
1.519227
1.5215523
1.521306
1.5218176
1.5214139
1.5214722
1.5215817
1.5214622
1.5214601
1.5215806
1.521461
1.5212332
1.5211246
1.5213371
1.5212046
1.5211254
1.5211813
1.5211659
1.5211065
1.521141
1.5211509
1.5210867
1.5210754
1.5209644
1.5210195
1.521006
1.5209557
1.5208549
1.5208474
1.5206723
1.5207106
1.5204594
1.5204285
1.5208766
1.5206691
1.5208161
1.5206003
1.5170424
1.5170476
1.5170697
1.5174378
1.5171196
1.5171242
1.5171005
1.5170933
1.5176661
1.5171923
1.5174085
1.5173897
1.5171716
1.5171227
1.517349
1.517363
1.5171579
1.5170861
1.5170676
1.5170561
1.517074
1.5176234
1.5174796
1.5173675
1.5173442
1.5171341
1.5171791
1.5170584
1.5170741
1.5170998
1.5170834
1.5171691
1.5173699
1.5174191
1.5172306
1.5171402
1.5170977
1.5170783
1.5171191
1.5170318
1.5170115
1.5170266
1.5170048
1.5170588
1.5170239
1.5170175
1.5170532
1.5169989
1.5170071
1.517025
1.5170186
1.517011
1.5170174
1.5170501
1.5170449
1.5170257
1.5170114
1.5170209
1.5170054
1.5173096
1.5170433
1.5170642
1.5170612
1.5170399
1.5173042
1.5173162
1.5173094
1.5170395
1.5170585
1.5170588
1.5170365
1.5170024
1.5170085
1.5170211
1.5170145
1.5173896
1.5175566
1.5173136
1.5173215
1.517281
1.5172861
1.5170518
1.5170508
1.5170545
1.5170565
1.5170404
1.5170434
1.5170493
1.5170459
1.5170797
1.517099
1.517104
1.5170815
1.5170893
1.5171101
1.5171147
1.5170918
1.5170321
1.5170293
1.5170409
1.5170457
1.5170207
1.5170261
1.5170391
1.5170354
1.51702
1.5170247
1.5170542
1.5170515
1.5170565
1.5170257
1.5170317
1.5170624
1.517501
1.5172647
1.5172873
1.5175168
1.5171362
1.5171301
1.517141
1.5171482
1.5171575
1.517122
1.5171294
1.5171658
1.5173175
1.517269
1.5175247
1.5175544
1.5174364
1.5175783
1.5173876
1.5175262
1.5174735
1.5172855
1.5172962
1.5174937
1.5171646
1.5171584
1.5171607
1.5171673
1.5171998
1.5172203
1.5172318
1.5172086
1.5173241
1.5173352
1.5174651
1.5174705
1.5175244
1.5173341
1.5159275
1.5160975
1.5170755
1.5170469
1.5170441
1.5170731
1.5170568
1.5170501
1.5170796
1.5170858
1.5170853
1.5170781
1.5175738
1.5173116
1.5176063
1.5173629
1.5171595
1.51715
1.5171948
1.5171843
1.5171823
1.5171953
1.5172419
1.5174233
1.5173635
1.5176332
1.5176718
1.5191018
1.5190703
1.5193696
1.5193789
1.5190059
1.5190379
1.5193579
1.519343
1.5194587
1.5194521
1.5194798
1.5194843
1.5194724
1.5194431
1.5194307
1.5194614
1.5195619
1.5195563
1.5195506
1.5195415
1.5199208
1.5199187
1.5201032
1.5200353
1.5199489
1.5200836
1.5201581
1.520151
1.5201866
1.5201947
1.5196851
1.519675
1.5195937
1.5196067
1.5196256
1.5194282
1.5193401
1.5195409
1.5195243
1.5196396
1.5198456
1.5197256
1.5199157
1.5199057
1.5197777
1.5197863
1.5195516
1.5195359
1.5194988
1.5195171
1.5194769
1.5192695
1.5192151
1.5194332
1.5191721
1.5194059
1.5193897
1.5191357
1.5194887
1.5194773
1.519498
1.5194657
1.5202606
1.5202548
1.5202583
1.5202651
1.5202704
1.5202651
1.5202707
1.5202749
1.5202312
1.520218
1.5190814
1.5192394
1.5196259
1.5196187
1.519592
1.5196017
1.5196123
1.5196086
1.5195851
1.5195811
1.519567
1.5195603
1.5195653
1.5195713
1.5195907
1.5195789
1.5195733
1.5195865
1.5196729
1.5197396
1.5197455
1.5196686
1.5197344
1.5197303
1.5196587
1.5196627
1.5199693
1.5199653
1.5198349
1.5198395
1.5199633
1.5199589
1.5198272
1.5198314
1.5190894
1.5192398
1.5194074
1.5194079
1.5204078
1.5204209
1.5204266
1.5204192
1.5204161
1.5204294
1.5204386
1.5204375
1.520442
1.5204428
1.5198479
1.5197765
1.5199463
1.5200852
1.5200993
1.5199601
1.5201049
1.5173255
1.5210956
1.5211953
1.5212811
1.521179
1.5208014
1.5209255
1.5209198
1.5208136
1.5188723
1.5193476
1.5193448
1.5185585
1.5189142
1.5183136
1.5186242
1.5185022
1.5193284
1.5186982
1.5190842
1.5183732
1.5188224
1.5198506
1.5176589
1.5210243
1.5180803
1.517649
1.5174515
1.5172068
1.516867
1.516496
1.5166529
1.5169975
1.5170595
1.5163995
1.5165572
1.5166911
1.5165425
1.5221686
1.5221483
1.5208056
1.5210162
1.521028
1.5208954
1.5207415
1.5208788
1.5204093
1.5193803
1.519456
1.5197618
1.519709
1.519266
1.5189621
1.5196138
1.5195002
1.5193949
1.5186614
1.5193131
1.5191908
1.5190633
1.5183776
1.5203919
1.5203932
1.5203946
1.5191244
1.5161204
1.5165094
1.5188211
1.5188869
1.5191138
1.5162166
1.5160572
1.5194348
1.5194771
1.5194693
1.5194312
1.5160868
1.5159419
1.5178522
1.5191375
1.5191391
1.5192711
1.5192757
1.5212908
1.5213597
1.5214145
1.5214202
1.5213409
1.5213457
1.521407
1.5213725
1.5213914
1.5214027
1.5213756
1.5180582
1.5212531
1.5212224
1.5212345
1.5212528
1.5212435
1.5212279
1.5212301
1.5212224
1.5212098
1.5212018
1.5210943
1.52108
1.5210704
1.5210588
1.520951
1.5207732
1.520944
1.5207752
1.5208431
1.5210771
1.5177279
1.5206373
1.5206518
1.5205783
1.5205637
1.5207485
1.5208159
1.5207648
1.52069
1.5207578
1.5207569
1.5206768
1.5206801
1.5205406
1.5205686
1.5205692
1.5205457
1.5203809
1.5203958
1.5207168
1.5207275
1.5206439
1.5206339
1.5207401
1.5207401
1.5206591
1.5206595
1.5205416
1.5205477
1.5205171
1.5205111
1.5204957
1.5205292
1.520515
1.5204852
1.5204057
1.5204251
1.5204169
1.5204006
1.5205379
1.5206122
1.5206068
1.5205326
1.5206
1.520609
1.5205387
1.5205243
1.520409
1.5204339
1.5204123
1.5203909
1.5203107
1.5203044
1.5202963
1.5203178
1.5203055
1.5202842
1.520129
1.5201089
1.5201281
1.5202144
1.5202266
1.5202017
1.5201946
1.5198147
1.5200796
1.5200575
1.5198117
1.5199825
1.5199814
1.5197152
1.5197395
1.5204363
1.520505
1.5204864
1.5204171
1.5201925
1.5203621
1.520289
1.520097
1.5203106
1.5203335
1.5203136
1.5202934
1.5201615
1.5201907
1.5199566
1.5199321
1.5165552
1.5165548
1.5165686
1.5171872
1.5172391
1.5172324
1.5171854
1.5167927
1.5167953
1.5166827
1.5166761
1.5174776
1.5174916
1.517363
1.5172885
1.516844
1.5170271
1.5168984
1.5167203
1.5166627
1.5168372
1.5167987
1.516632
1.5165995
1.5166287
1.5166199
1.5165887
1.5174829
1.5173385
1.5167861
1.5167821
1.5166218
1.5166251
1.5165764
1.516589
1.5165902
1.5165761
1.5166361
1.5168055
1.5168357
1.5166513
1.5166117
1.5165983
1.5165827
1.5165929
1.5165409
1.5165417
1.5165359
1.5165372
1.516555
1.5165453
1.5165399
1.5165476
1.5165335
1.5165364
1.5165325
1.5165299
1.5165338
1.5165356
1.5165431
1.5165423
1.5165536
1.516583
1.51655
1.5165804
1.5171221
1.5171257
1.5171092
1.5171063
1.5166356
1.5167408
1.5167412
1.5166335
1.5171026
1.517119
1.5171188
1.5171047
1.5171835
1.517175
1.5166339
1.5167397
1.5167393
1.5166332
1.5165803
1.5165815
1.5165505
1.5165481
1.515914
1.5159911
1.5171345
1.5171298
1.5171318
1.5171386
1.517145
1.5171388
1.5171428
1.5171492
1.5171513
1.5171583
1.5166386
1.5166334
1.516594
1.5165989
1.5166241
1.5166253
1.5165873
1.5165841
1.5166829
1.516786
1.5167902
1.5166844
1.5166935
1.5167999
1.5168043
1.5166984
1.5165779
1.5165727
1.5165652
1.5165713
1.5165628
1.5165667
1.5165593
1.5165553
1.5165576
1.5165612
1.5165696
1.5165664
1.5165783
1.5165676
1.5165752
1.5165861
1.5170598
1.5167716
1.5167597
1.5170698
1.5166739
1.5166666
1.5166561
1.5166649
1.5166694
1.5166577
1.5166686
1.5166813
1.5167804
1.5167635
1.5170959
1.5171324
1.5172554
1.5172457
1.5172535
1.5172653
1.5173646
1.5173397
1.5174427
1.5174721
1.5172696
1.5174253
1.5170828
1.5168551
1.5168038
1.517064
1.5167474
1.5167399
1.5166938
1.5167007
1.5168054
1.5169141
1.5169196
1.5168129
1.5169228
1.5170272
1.5171691
1.5171052
1.5161981
1.5159638
1.5159843
1.5159121
1.515957
1.5161767
1.5165987
1.5165821
1.5165793
1.5165948
1.5166015
1.516592
1.5166081
1.5166195
1.5166388
1.5166253
1.5171763
1.5168041
1.517222
1.5168318
1.5166998
1.5166853
1.5167216
1.5167041
1.5167242
1.5167449
1.5167681
1.5168921
1.516861
1.5172666
1.517309
1.5189423
1.5189353
1.5191307
1.5191173
1.5189171
1.5189146
1.5191068
1.5190894
1.5193006
1.5192993
1.5193263
1.5193263
1.5193311
1.5193053
1.5193116
1.5193354
1.5188605
1.5188592
1.5190426
1.5190239
1.5188884
1.5188885
1.5190766
1.5190575
1.5193138
1.5192847
1.5192836
1.5193106
1.5192633
1.5192658
1.5192962
1.5192921
1.5193983
1.5193932
1.5193992
1.519404
1.5193899
1.5193888
1.5193945
1.5193958
1.5194153
1.5194126
1.5194239
1.5194265
1.5194268
1.5194158
1.5194231
1.5194333
1.5194145
1.5194019
1.5194033
1.5194146
1.5193745
1.519376
1.5193827
1.5193815
1.5193565
1.5193583
1.5193662
1.5193645
1.519388
1.5193883
1.5194008
1.5194002
1.5194972
1.5194963
1.5195021
1.5195033
1.5194961
1.519492
1.5194972
1.5195012
1.5194871
1.5194863
1.5194907
1.5194919
1.5194715
1.5194728
1.519478
1.519477
1.5197339
1.5198131
1.5199234
1.519935
1.5189975
1.5191487
1.520059
1.5200678
1.520006
1.520017
1.5192843
1.5192755
1.5193165
1.5193258
1.5193031
1.5192662
1.5192678
1.519307
1.5192845
1.5192828
1.519322
1.5193235
1.5193056
1.5192974
1.519337
1.5193456
1.519225
1.5192072
1.5192424
1.5192604
1.5191573
1.5189777
1.5190101
1.5191761
1.5191461
1.518973
1.5190023
1.5191627
1.5192319
1.5192148
1.5192501
1.5192677
1.5191735
1.5190087
1.5189805
1.5191961
1.5190239
1.5190133
1.5192298
1.519231
1.5193002
1.5192841
1.5192753
1.5193046
1.5192447
1.5192173
1.5192331
1.5192672
1.5193494
1.5193358
1.5193443
1.5193551
1.5193419
1.5193286
1.5193344
1.519347
1.5193003
1.5192702
1.5192704
1.5193046
1.5193066
1.5192761
1.5192812
1.5193184
1.5193372
1.5193285
1.5193637
1.5193723
1.5193134
1.5193126
1.5193469
1.5193483
1.5193716
1.519344
1.5193457
1.5193736
1.5193904
1.5193617
1.5193711
1.519399
1.5192527
1.5192341
1.519267
1.5192855
1.5189965
1.5189707
1.5191443
1.5191575
1.518991
1.5189699
1.5191482
1.5191558
1.5192877
1.5192598
1.5192803
1.519307
1.5189789
1.5189646
1.5191509
1.5191509
1.5193062
1.5192844
1.5193045
1.5193249
1.519313
1.5193005
1.5193242
1.5193352
1.5189623
1.5189528
1.519146
1.5191385
1.5194221
1.5194091
1.5194193
1.5194315
1.5193902
1.5193709
1.5193735
1.5193931
1.5194
1.5193904
1.5194108
1.5194197
1.5193995
1.5193878
1.5193916
1.5194037
1.5200806
1.5201603
1.520164
1.5200838
1.5200873
1.5201692
1.5201749
1.520092
1.5193182
1.5193031
1.5189937
1.519146
1.5193001
1.5193149
1.5194341
1.5194245
1.5194615
1.5194705
1.519418
1.5194219
1.5194573
1.5194542
1.5194862
1.519459
1.5194556
1.5194833
1.5194919
1.5194629
1.5194724
1.5195003
1.5194094
1.5194126
1.5194475
1.5194454
1.5194448
1.5194091
1.519409
1.5194451
1.5194756
1.5194486
1.5194464
1.519474
1.5194727
1.5194454
1.519446
1.5194733
1.5194912
1.5194732
1.5194744
1.5194928
1.5194991
1.5194887
1.5194912
1.5195023
1.5195035
1.5194924
1.5194922
1.5195039
1.519475
1.5194764
1.5194945
1.5194938
1.5195026
1.5194932
1.5195128
1.5195217
1.5195056
1.5194874
1.5194848
1.5195037
1.5195143
1.5195037
1.5195023
1.5195138
1.5195233
1.5195112
1.5195216
1.5195334
1.5193923
1.5193825
1.5194271
1.5194367
1.519392
1.5193475
1.5193494
1.5193947
1.5193948
1.519351
1.5193574
1.5194054
1.5193803
1.5193813
1.5194241
1.5194223
1.5193411
1.5193408
1.5193858
1.5193859
1.5193815
1.5193366
1.5193401
1.5193855
1.5193712
1.5193696
1.5194126
1.5194136
1.5193718
1.5193744
1.5194157
1.5194137
1.5193889
1.5194018
1.519387
1.5194019
1.5193992
1.5193928
1.5193828
1.5193846
1.5193685
1.5193308
1.519331
1.5193747
1.5193343
1.5193733
1.5193811
1.5193368
1.5193912
1.5193757
1.5193849
1.5193994
1.5193926
1.5193789
1.5193798
1.5193941
1.5193598
1.5193242
1.5193242
1.5193671
1.519327
1.5193623
1.5193257
1.5193676
1.5191573
1.5190197
1.5190258
1.5191541
1.5193007
1.5193133
1.5193117
1.5192997
1.5194408
1.5194468
1.5194463
1.5194405
1.5194426
1.5194497
1.5194461
1.5194533
1.5203215
1.5203291
1.5203384
1.5203425
1.5202202
1.5202323
1.5202387
1.5202438
1.5194378
1.5194328
1.5194842
1.5194927
1.5194822
1.5194757
1.5195216
1.519529
1.5194028
1.5194496
1.5194598
1.5194109
1.5194684
1.5194659
1.5194508
1.5194793
1.519468
1.5194728
1.5194615
1.5194787
1.5194135
1.5194595
1.5194636
1.5194144
1.5194803
1.5194725
1.5194698
1.519466
1.51942
1.5188933
1.5175809
1.5172483
1.5172955
1.5175752
1.5174304
1.5172916
1.517187
1.5173109
1.5227964
1.5210213
1.522916
1.5211321
1.5211281
1.5211164
1.5205871
1.5208313
1.5209086
1.5207096
1.5189279
1.519545
1.519517
1.5193407
1.5186129
1.5189523
1.5190124
1.5183463
1.5205127
1.5204477
1.521004
1.5192963
1.5187512
1.518715
1.5190524
1.5184273
1.5178269
1.5180265
1.5181026
1.5179095
1.5188116
1.5182009
1.5186144
1.5187082
1.5183194
1.5201097
1.5198001
1.5175766
1.5213297
1.521057
1.5179751
1.5175596
1.5174
1.5172032
1.5164866
1.516346
1.5166829
1.5168171
1.5164331
1.5160707
1.5170837
1.5164212
1.5165384
1.5163895
1.5162628
1.5160049
1.516154
1.5223485
1.5223104
1.522271
1.5208849
1.521049
1.5210325
1.5210507
1.5209809
1.519706
1.5197351
1.519432
1.5196124
1.5192962
1.5190544
1.5190097
1.5193006
1.5193413
1.519196
1.5192223
1.5188051
1.519083
1.5190737
1.5188115
1.5196002
1.5194876
1.5193707
1.5192857
1.5191755
1.519025
1.5205173
1.5205467
1.5162411
1.5163053
1.5163441
1.5162722
1.5168666
1.5165555
1.5164464
1.516799
1.5191863
1.5192835
1.5190504
1.5189159
1.519419
1.5192535
1.5195128
1.5193666
1.5194838
1.5193967
1.5177376
1.517511
1.5165105
1.5164371
1.5162684
1.5163528
1.5162033
1.5162684
1.5162702
1.516202
1.5184283
1.5179075
1.5197066
1.5197291
1.5194719
1.515959
1.5159628
1.5161694
1.5161404
1.5177518
1.5159983
1.5159293
1.5159268
1.5159915
1.522641
1.5180528
1.5193385
1.519106
1.5193402
1.5195654
1.5224471
1.5214264
1.5214054
1.5214014
1.5214072
1.5213882
1.5213774
1.5213907
1.5213824
1.5215237
1.521524
1.5215393
1.5215382
1.521419
1.5214598
1.5214706
1.521416
1.5214881
1.5214911
1.5215045
1.5215008
1.5215134
1.5215207
1.5215178
1.5215115
1.5214751
1.5214838
1.5214099
1.5213946
1.5182106
1.5179964
1.5182282
1.5180029
1.5209438
1.5209118
1.5208805
1.5208678
1.5209273
1.5209138
1.5208779
1.5209047
1.520888
1.5208888
1.5208659
1.5208685
1.5208479
1.520863
1.520862
1.5208482
1.5208401
1.5208562
1.5208495
1.5208323
1.5207147
1.52072
1.5207146
1.5207101
1.5207094
1.5207132
1.5207077
1.5207025
1.5207303
1.5207203
1.5205871
1.5205973
1.5205965
1.5205825
1.5204634
1.5204858
1.5203626
1.5203257
1.5206078
1.5204303
1.5175951
1.5177315
1.5177278
1.5176002
1.5195928
1.5196997
1.5195164
1.5193857
1.5198424
1.5200894
1.5199672
1.5196863
1.51996
1.5199538
1.5196624
1.5196608
1.5193403
1.5194844
1.5194781
1.5193339
1.5191516
1.5191221
1.5191341
1.5199032
1.5199097
1.5196049
1.5195956
1.5199289
1.5199347
1.5196243
1.5196211
1.5194281
1.5194311
1.5192788
1.519274
1.5192553
1.5194135
1.5194033
1.5192471
1.5191416
1.5193005
1.5192938
1.5191354
1.5194985
1.5198046
1.5197981
1.5194928
1.5198082
1.5198128
1.5195057
1.5194936
1.5191456
1.5193088
1.5192953
1.5191364
1.519023
1.5190134
1.5190135
1.5190234
1.5189316
1.518921
1.5188081
1.5187895
1.5187467
1.5188711
1.518961
1.5189447
1.5188559
1.5186269
1.5188623
1.5187782
1.5185277
1.5186719
1.5187167
1.518452
1.5183938
1.5194258
1.5197291
1.5197005
1.5194063
1.519449
1.5195908
1.5193095
1.5191354
1.5192192
1.5192336
1.5190815
1.5190669
1.5189798
1.5191315
1.5189286
1.5187612
1.5165172
1.516511
1.5165305
1.5165363
1.5165058
1.5165123
1.516531
1.5165251
1.5165405
1.5165471
1.5169415
1.5171176
1.5171141
1.516944
1.5160257
1.5160226
1.5160674
1.5160687
1.5160259
1.516072
1.5160301
1.5160719
1.5161772
1.5160721
1.5160657
1.5161703
1.516066
1.5161653
1.5160621
1.5161672
1.5171948
1.5173509
1.5172349
1.5170245
1.5160521
1.5160867
1.5160554
1.5160958
1.5161857
1.516222
1.5161414
1.5160953
1.5163317
1.5162127
1.5161306
1.5162515
1.5160902
1.5161937
1.5160899
1.5161948
1.5162149
1.5162203
1.5163128
1.5163081
1.5164621
1.5163577
1.5162692
1.5163779
1.5163931
1.516486
1.5165681
1.5164804
1.5163261
1.5163346
1.5164063
1.5163987
1.5162978
1.5163108
1.5163798
1.5163682
1.5162908
1.5161995
1.5161886
1.51628
1.5161839
1.516187
1.5162765
1.5162735
1.5162881
1.5162947
1.5163633
1.5163571
1.5160524
1.515974
1.5167352
1.5166845
1.5165847
1.5166404
1.5166552
1.5165922
1.5164969
1.5165662
1.5164157
1.516425
1.5164787
1.5164704
1.5165363
1.5164943
1.5164851
1.5165263
1.516371
1.5163787
1.5164296
1.5164227
1.5163829
1.5163953
1.5164467
1.5164357
1.5164991
1.5164597
1.5164483
1.5164882
1.5164812
1.5164421
1.5164349
1.5164739
1.516539
1.5165496
1.5165804
1.5165706
1.5168045
1.516764
1.5166569
1.516703
1.5168673
1.5168342
1.5167192
1.5167587
1.516619
1.5165929
1.5165821
1.5166076
1.5165759
1.5165515
1.5165409
1.5165655
1.5165399
1.5165102
1.5164991
1.5165296
1.5164845
1.5164916
1.5165201
1.5165143
1.5165536
1.5165297
1.5165241
1.5165479
1.5164444
1.5164069
1.5163969
1.5164349
1.5163957
1.5163458
1.5163363
1.5163861
1.5164341
1.5163965
1.5163939
1.5164315
1.516334
1.5163379
1.5163856
1.5163831
1.5165167
1.5164931
1.5164836
1.5165076
1.5164825
1.5164534
1.5164439
1.5164733
1.5164406
1.5164427
1.516471
1.5164695
1.516504
1.5164799
1.5164786
1.5165019
1.5163329
1.5163307
1.5163793
1.5163821
1.5163287
1.5163386
1.5163859
1.5163777
1.5164321
1.5163955
1.5163874
1.5164247
1.5164279
1.5163897
1.516393
1.5164308
1.5164416
1.5164374
1.5164662
1.5164708
1.5164695
1.5164409
1.5164338
1.5164627
1.5165019
1.5164783
1.5164718
1.5164953
1.5165002
1.5164757
1.5164816
1.516505
1.5162566
1.5162653
1.5163316
1.5163238
1.516248
1.5161611
1.5161555
1.5162424
1.5162553
1.5162592
1.5163243
1.5163213
1.5161557
1.5161565
1.516242
1.5162408
1.5170052
1.5170081
1.5168711
1.5168689
1.5160392
1.5160417
1.5161391
1.5161384
1.5160426
1.5159954
1.5160379
1.5159935
1.5160445
1.5159926
1.516038
1.5159945
1.5161349
1.5160379
1.5160393
1.5161376
1.5168646
1.5169995
1.5170001
1.5168689
1.5158957
1.515896
1.5160346
1.5161406
1.5160443
1.5161349
1.5159882
1.5159999
1.5160444
1.5160346
1.5160496
1.5159944
1.5160361
1.5159999
1.5161327
1.5160361
1.5160458
1.5161453
1.5161601
1.516153
1.5162372
1.5162435
1.5162464
1.5161595
1.5161517
1.5162382
1.5162505
1.5162611
1.5163253
1.5163162
1.5162553
1.516252
1.5163167
1.5163199
1.5158927
1.5158934
1.5160492
1.5159713
1.5169029
1.5170123
1.5170155
1.5169071
1.5169142
1.5170219
1.517026
1.5169199
1.5159464
1.5159584
1.5162186
1.5162093
1.5162893
1.5162972
1.5162916
1.5162097
1.516207
1.5162876
1.5162962
1.5163027
1.5163657
1.5163594
1.5163065
1.5163003
1.5163638
1.5163693
1.5162002
1.5161963
1.5162758
1.516279
1.516285
1.5162017
1.5162014
1.5162839
1.5162924
1.5162963
1.5163601
1.5163565
1.5162875
1.5162872
1.5163501
1.5163503
1.5161866
1.5160968
1.5160975
1.5161922
1.5160694
1.5160666
1.5161034
1.5161073
1.5161142
1.5160668
1.5161015
1.5160734
1.5161819
1.5160943
1.5161007
1.5161918
1.5161965
1.5161081
1.5161036
1.516197
1.5160825
1.5161189
1.5161146
1.5160746
1.5161314
1.516083
1.5161175
1.5160901
1.5161956
1.5161078
1.5161183
1.5162095
1.516381
1.5163755
1.5164244
1.51643
1.5163697
1.516377
1.5164243
1.516418
1.5164731
1.5164357
1.5164293
1.5164669
1.5164757
1.5164363
1.5164432
1.5164814
1.5163608
1.5163617
1.5164098
1.5164093
1.51642
1.5163712
1.5163666
1.5164153
1.5164679
1.5164308
1.5164263
1.5164636
1.5164594
1.5164211
1.5164207
1.5164582
1.5164701
1.5164708
1.5164995
1.5164993
1.5165077
1.5164789
1.5164753
1.5165041
1.5165425
1.5165192
1.5165161
1.5165391
1.5165355
1.5165112
1.5165115
1.516535
1.5165514
1.5165274
1.5165221
1.5165459
1.5165141
1.5164848
1.5164788
1.5165082
1.5164955
1.5164879
1.5165177
1.5165254
1.5165557
1.5165302
1.5165399
1.5165639
1.5170108
1.5167261
1.5168011
1.5170497
1.5165645
1.5165551
1.516606
1.5166156
1.5166619
1.516619
1.5166317
1.5166739
1.5168804
1.5168138
1.5170835
1.5171169
1.5164709
1.5164678
1.5165176
1.5165213
1.5165156
1.5164658
1.5164652
1.5165143
1.5165663
1.5165273
1.5165271
1.5165656
1.5165719
1.5165311
1.5165362
1.5165763
1.516651
1.5166262
1.5166269
1.5166511
1.5166103
1.5165797
1.51658
1.51661
1.5165928
1.5165867
1.5166178
1.5166244
1.5166602
1.5166333
1.5166417
1.5166673
1.5167609
1.5167318
1.5167513
1.5167792
1.5167126
1.5166777
1.5166935
1.5167277
1.5171564
1.5168952
1.5169514
1.5171851
1.517018
1.516967
1.5172252
1.5172482
1.517027
1.51713
1.5171371
1.5170347
1.5171307
1.5172276
1.5173293
1.5172509
1.5160869
1.5162833
1.5166301
1.5165436
1.5168324
1.5169009
1.5164809
1.5164078
1.5164213
1.5164923
1.5164929
1.516483
1.5165457
1.5165541
1.5169272
1.5166314
1.5167158
1.5169787
1.516315
1.5163092
1.5163847
1.5163891
1.5163841
1.5163049
1.5163098
1.5163868
1.516392
1.5163914
1.5164545
1.5164543
1.5163954
1.5163925
1.516455
1.5164578
1.5162981
1.5162156
1.5162198
1.5163068
1.5162028
1.5162338
1.5162418
1.5162073
1.516208
1.5162363
1.5162496
1.5162165
1.5162294
1.5163033
1.5162216
1.5163123
1.5164089
1.516333
1.5163511
1.5164276
1.5163324
1.5163465
1.516356
1.516379
1.5164527
1.516482
1.5166757
1.5166046
1.5167033
1.5164607
1.5165442
1.5167957
1.5160818
1.5162729
1.5159553
1.5159434
1.5159598
1.5160324
1.5160284
1.5159612
1.5158892
1.5158889
1.515889
1.5158893
1.5159371
1.5159464
1.5159459
1.5159372
1.5160657
1.5162371
1.5162215
1.5160663
1.5166021
1.5165862
1.5165826
1.5165978
1.5165732
1.5165542
1.5165511
1.5165697
1.5165471
1.5165472
1.5165658
1.5165661
1.5165936
1.5165772
1.5165777
1.5165933
1.5165783
1.5165682
1.5165878
1.5165977
1.516558
1.5165635
1.5165818
1.5165772
1.5166094
1.5165933
1.5165887
1.5166045
1.5166175
1.5165998
1.5166115
1.5166275
1.5166404
1.5166286
1.5166422
1.5166534
1.5166333
1.5166201
1.5166153
1.5166283
1.5172865
1.5170331
1.5170767
1.5173039
1.5168005
1.516778
1.5168008
1.5168232
1.5171311
1.5170906
1.5173391
1.5173527
1.5168382
1.5168173
1.5168436
1.5168627
1.5166847
1.5166755
1.5166961
1.5167054
1.5166661
1.5166652
1.5166839
1.5166853
1.5167291
1.5167107
1.5167219
1.5167389
1.5167143
1.5166977
1.5166994
1.516715
1.5167402
1.5167269
1.516728
1.5167406
1.5167543
1.5167424
1.5167563
1.5167682
1.5167812
1.5167681
1.516782
1.5167934
1.5169004
1.5168852
1.5169168
1.51693
1.5168707
1.5168532
1.5168819
1.5168977
1.5173853
1.5171431
1.5171781
1.5173962
1.5172216
1.517188
1.5174258
1.5174341
1.5184526
1.5184888
1.518855
1.5188267
1.5183778
1.5184157
1.5187949
1.5187629
1.5188627
1.5188919
1.5189332
1.5189078
1.5189857
1.5189481
1.5189228
1.5189623
1.5182678
1.5182875
1.5186755
1.5186548
1.5183136
1.5183444
1.5187314
1.5187028
1.5188834
1.5188368
1.5188129
1.5188622
1.5187766
1.5187932
1.5188446
1.5188313
1.5190465
1.5190271
1.5190023
1.5190224
1.5189492
1.5189762
1.5189976
1.5189737
1.5189788
1.5190029
1.5190245
1.5190031
1.5190725
1.5190532
1.5190301
1.5190498
1.5189839
1.5189588
1.5189422
1.5189683
1.5189058
1.5189268
1.5189516
1.5189328
1.5188791
1.5188909
1.5189176
1.5189068
1.5189202
1.5189296
1.5189564
1.5189485
1.5191347
1.5191322
1.5191097
1.519112
1.5191338
1.519115
1.5190918
1.5191104
1.5190446
1.519068
1.5190871
1.5190658
1.5190102
1.5190263
1.5190469
1.5190317
1.5192117
1.5189407
1.5190106
1.5190609
1.5189391
1.5191913
1.5192857
1.5193116
1.5191987
1.5190945
1.518919
1.519087
1.5192244
1.5192365
1.5192416
1.5192299
1.5192818
1.5193528
1.5193646
1.519284
1.5192921
1.5193649
1.5193754
1.5192935
1.5191493
1.5191388
1.5191281
1.5191408
1.5191134
1.5191273
1.5191309
1.5191202
1.5191154
1.5191074
1.5191064
1.5191154
1.5191377
1.5191231
1.519123
1.5191392
1.5190722
1.5190579
1.5190385
1.5190555
1.5190026
1.5188294
1.5187954
1.5189769
1.5189574
1.5187664
1.5187369
1.5189452
1.5190454
1.5190256
1.5190194
1.5190421
1.5190895
1.5188654
1.5189183
1.5190346
1.5189275
1.5189226
1.5191313
1.5191163
1.5191785
1.5191974
1.5191716
1.5192071
1.5190855
1.5191402
1.5191462
1.5190974
1.5192641
1.5192315
1.5192342
1.5192675
1.5192543
1.5192234
1.5192267
1.5192607
1.5191491
1.5191929
1.5191947
1.51915
1.5191571
1.5191998
1.5192035
1.5191657
1.5191431
1.5191257
1.5191291
1.5191473
1.5191181
1.5191081
1.5191105
1.5191213
1.5191091
1.5191113
1.5191229
1.5191214
1.5191296
1.519131
1.5191492
1.519148
1.5190433
1.5190177
1.5190187
1.5190472
1.5186816
1.5187083
1.5189386
1.5189359
1.518638
1.5186597
1.5189342
1.5189323
1.5190196
1.5190198
1.5190503
1.5190519
1.518588
1.5186153
1.5189265
1.5189172
1.5190481
1.5190153
1.519007
1.5190407
1.5189737
1.5189929
1.5190271
1.5190105
1.5185259
1.5185589
1.5189017
1.5188826
1.5190771
1.5190974
1.5191152
1.519097
1.5190906
1.5191025
1.5191156
1.5191052
1.519142
1.5191239
1.5191138
1.5191319
1.5190531
1.5190746
1.5190901
1.5190712
1.519369
1.5194181
1.5193707
1.51942
1.5193509
1.5193556
1.5194166
1.5193719
1.5193722
1.519427
1.5194234
1.5193797
1.5194264
1.5193781
1.5193632
1.5193684
1.5194324
1.5193817
1.5193832
1.5194283
1.5193654
1.5193599
1.5193517
1.5193458
1.5190826
1.5189443
1.5190814
1.5189466
1.5192295
1.5192191
1.5192186
1.5192284
1.5193458
1.5193407
1.5193408
1.5193456
1.5193539
1.5193587
1.5193538
1.5193584
1.5192491
1.5192333
1.519236
1.5192523
1.5192305
1.5192293
1.5192319
1.5192335
1.5192264
1.5192314
1.5192333
1.5192292
1.5192307
1.5192356
1.5192525
1.5192486
1.5192237
1.5192224
1.5192252
1.5192263
1.5192138
1.5192115
1.5192198
1.5192225
1.5192204
1.519225
1.5192257
1.5192211
1.5192072
1.519213
1.5192221
1.5192179
1.5191818
1.5191972
1.519209
1.5191961
1.5191411
1.5191635
1.5191789
1.5191589
1.5191568
1.519179
1.5191797
1.5191595
1.5192119
1.5192113
1.5191981
1.5191987
1.5192395
1.5192215
1.5192083
1.5192273
1.5192026
1.5192172
1.5192206
1.5192078
1.5191634
1.5191851
1.5191907
1.5191714
1.5191709
1.5191912
1.5192106
1.519193
1.5192395
1.5192249
1.5192287
1.519244
1.5192204
1.5192243
1.5192248
1.5192214
1.519224
1.5192277
1.5192395
1.5192376
1.5192221
1.5192212
1.5192248
1.5192258
1.5192175
1.5192176
1.5192141
1.5192145
1.5192046
1.5192093
1.5192151
1.5192113
1.5192118
1.5192046
1.5192075
1.5192152
1.5192154
1.5192145
1.5192178
1.519219
1.5192907
1.5193234
1.5192902
1.5193255
1.5193206
1.5193179
1.5192863
1.519285
1.5192327
1.5192583
1.5192579
1.5192328
1.5192625
1.5192364
1.5192463
1.5192663
1.5193173
1.5192836
1.5192825
1.5193193
1.5193127
1.5192792
1.5192799
1.5193155
1.5192197
1.5192499
1.5192524
1.5192255
1.5192536
1.5192265
1.5192556
1.5192265
1.5192251
1.5190047
1.519014
1.5192298
1.5193485
1.5193613
1.5193547
1.5193425
1.5194576
1.5194655
1.5194602
1.5194524
1.519458
1.5194534
1.5194537
1.5194581
1.5194647
1.5194632
1.5194633
1.5194647
1.5194639
1.5194586
1.5194667
1.5194623
1.519471
1.5194694
1.5194718
1.5194737
1.5194577
1.5194929
1.5194605
1.5195086
1.5195008
1.5194624
1.5194621
1.5195101
1.5195022
1.5194665
1.5195084
1.5194645
1.5195052
1.5194672
1.5194669
1.5195074
1.5193152
1.5193079
1.5193079
1.519316
1.5193191
1.5193104
1.519314
1.5193235
1.5193264
1.5193123
1.5193187
1.5193313
1.5193571
1.5193835
1.5193514
1.5193919
1.5193581
1.5193937
1.5193614
1.5193935
1.5193368
1.5193209
1.5193221
1.5193344
1.5193954
1.5193938
1.5193628
1.5193621
1.5193388
1.5206179
1.5191775
1.5192307
1.5187986
1.5188042
1.518825
1.5189647
1.5189001
1.518748
1.5216292
1.5197796
1.5197549
1.5173527
1.5215057
1.5176614
1.5174881
1.5173416
1.5171212
1.5172396
1.5226485
1.523135