/*--------------------------------*- C++ -*----------------------------------*\
  =========                 |
  \\      /  F ield         | OpenFOAM: The Open Source CFD Toolbox
   \\    /   O peration     | Website:  https://openfoam.org
    \\  /    A nd           | Version:  7
     \\/     M anipulation  |
\*---------------------------------------------------------------------------*/
FoamFile
{
    version     2.0;
    format      ascii;
    class       volScalarField;
    location    "2000";
    object      nut;
}
// * * * * * * * * * * * * * * * * * * * * * * * * * * * * * * * * * * * * * //

dimensions      [0 2 -1 0 0 0 0];

internalField   nonuniform List<scalar> 
33899
(
6.5622168e-15
6.765717e-15
2.1047791e-15
6.6332922e-15
6.1492938e-15
7.2602253e-15
8.5356203e-15
6.2530104e-15
8.6969045e-15
2.2725555e-15
2.2623397e-15
2.0898212e-15
1.4383832e-15
1.1703635e-15
1.2748428e-15
1.1412465e-15
1.5598629e-15
3.3049575e-15
3.1174196e-15
1.1862507e-15
6.4095597e-15
6.0559492e-15
7.6153345e-15
7.2854984e-15
8.0415908e-15
7.2887165e-15
5.1251588e-15
8.321022e-15
6.8316189e-15
9.0049642e-15
1.127916e-14
2.7907557e-15
2.600997e-15
2.5774304e-15
1.485187e-15
1.1720094e-15
1.1523586e-15
1.5217491e-15
1.3270979e-15
1.5232275e-15
1.2285053e-15
1.160374e-15
1.4415447e-15
1.2408401e-15
3.4258908e-15
3.2415089e-15
1.8369473e-15
1.9268283e-15
1.5750343e-15
1.6819436e-15
1.5637358e-15
1.6395703e-15
1.3907527e-15
6.2969659e-16
5.9565211e-16
6.1117179e-16
7.9679044e-16
8.0973025e-16
9.7243904e-16
8.6308258e-16
9.0568884e-16
8.8846019e-16
6.2953212e-16
9.3138775e-16
9.1925776e-16
9.088583e-16
8.4893446e-16
7.8329356e-16
7.8986316e-16
5.6885403e-16
5.688621e-16
7.9251083e-16
7.6480842e-16
1.1280032e-15
9.36011e-16
6.3653241e-16
1.2380838e-15
1.1763656e-15
8.0661603e-16
4.8368351e-15
6.8181345e-15
7.4556771e-15
7.983366e-15
7.9728571e-15
7.1875453e-15
7.1020109e-15
6.3950809e-15
7.005458e-15
1.0222809e-14
5.4913256e-15
9.9209232e-15
1.3881009e-14
1.049379e-14
2.1225195e-14
4.4089588e-15
1.0138366e-14
8.3517254e-15
2.0280448e-14
1.5807615e-14
2.8416941e-15
2.9615666e-15
3.750958e-15
1.4462397e-15
1.3254376e-15
3.4165369e-15
1.5735745e-15
1.6061521e-15
1.5321346e-15
1.204661e-15
1.1371531e-15
1.4744999e-15
1.364808e-15
8.1512588e-16
7.6412265e-16
5.9980402e-16
5.740392e-16
6.3615767e-16
8.1965424e-16
8.3049093e-16
8.6982546e-16
8.240373e-16
8.5523526e-16
7.9814098e-16
8.6123896e-16
8.1173454e-16
6.2380934e-16
7.7359781e-16
6.2895425e-16
7.8864572e-16
5.8375169e-16
9.1368136e-16
9.6121511e-16
6.000558e-16
5.8411438e-16
5.9812434e-16
8.0916309e-16
8.3869308e-16
8.4540969e-16
8.0297218e-16
8.710231e-16
8.5283376e-16
9.5875981e-16
8.8570233e-16
8.2797337e-16
8.5219211e-16
5.8905025e-16
6.1348199e-16
6.1737656e-16
8.1610892e-16
7.6241297e-16
1.1412825e-15
1.1171819e-15
1.2282947e-15
1.0008366e-15
1.4003529e-15
1.3876948e-15
1.5449988e-15
1.3207003e-15
1.3183021e-15
1.5769498e-15
1.5162153e-15
1.0204014e-15
1.0263475e-15
1.0794607e-15
1.0270472e-15
1.1022556e-15
1.2051471e-15
1.2444332e-15
1.03204e-15
1.0798023e-15
1.117796e-15
1.1362371e-15
1.1320685e-15
1.2311438e-15
1.2955156e-15
1.1717152e-15
1.0862978e-15
1.0893135e-15
1.0117917e-15
1.0441546e-15
1.0240059e-15
1.2570835e-15
2.7261684e-16
4.053805e-16
4.337156e-16
2.8133511e-16
5.4105187e-16
5.1792115e-16
5.1983858e-16
5.2008628e-16
4.8355583e-16
4.7145932e-16
4.6821386e-16
4.9225271e-16
5.0576452e-16
4.4560351e-16
5.7985863e-16
6.2817281e-16
5.2088767e-16
5.5811271e-16
6.6258652e-16
5.1945234e-16
7.1855834e-16
7.3764281e-16
8.4003052e-16
7.9843899e-16
7.5190078e-16
7.033567e-16
7.978112e-16
8.0584308e-16
8.7699104e-16
8.9567999e-16
8.0434453e-16
8.0684816e-16
8.2827497e-16
9.1650106e-16
8.8874305e-16
8.4369399e-16
2.6405411e-16
2.6593147e-16
4.7898577e-16
4.3614326e-16
7.5444683e-16
6.9894474e-16
7.8002543e-16
7.4663202e-16
8.1417829e-16
7.7810459e-16
7.4887326e-16
7.3425938e-16
7.8683637e-16
7.8027024e-16
8.0485948e-16
7.6554102e-16
7.9036086e-16
8.1220137e-16
8.0121116e-16
8.1329063e-16
7.6910781e-16
7.6530925e-16
5.1177411e-16
4.4048197e-16
4.9788421e-16
4.5275109e-16
4.8146545e-16
4.4377035e-16
4.5427483e-16
4.6335518e-16
5.3078848e-16
4.8474143e-16
5.8983979e-16
6.164987e-16
6.3448356e-16
4.931269e-16
6.0554107e-16
5.8542055e-16
1.127183e-15
8.931333e-16
6.5770021e-16
2.7816871e-16
2.7996054e-16
4.3018891e-16
4.0214622e-16
5.4743217e-16
5.0813563e-16
5.8473002e-16
5.5886749e-16
5.0493167e-16
5.0456568e-15
5.870005e-15
5.6477478e-15
5.0454309e-15
4.4425876e-15
5.2093766e-15
5.4589138e-15
4.9166518e-15
3.8894171e-15
3.2611626e-15
9.1306038e-15
8.4229268e-15
7.3257566e-15
8.3397942e-15
6.8396935e-15
7.238837e-15
8.3564248e-15
9.0676596e-15
7.7962107e-15
9.1496479e-15
1.0564606e-14
1.1431532e-14
3.6478284e-15
5.8071252e-15
4.9568124e-15
4.9645498e-15
1.0400431e-14
7.233426e-15
1.1108303e-14
1.0406392e-14
5.1502564e-15
1.1309162e-14
1.8943286e-14
1.6825164e-14
2.0826044e-14
6.4517112e-15
5.3767365e-15
9.81718e-15
2.7804531e-14
2.4540455e-15
1.225383e-14
1.0392591e-15
3.0101044e-15
1.2848456e-15
3.1744454e-15
3.8363058e-15
1.435519e-15
1.4478893e-15
1.3192351e-15
6.8589672e-16
1.0601156e-15
9.9875087e-16
6.7366124e-16
6.0701285e-16
6.0540909e-16
1.1803445e-15
1.1256701e-15
1.0782108e-15
6.4015897e-16
7.8604568e-16
8.1043243e-16
6.0369431e-16
7.7226118e-16
8.057368e-16
6.4549144e-16
6.0221317e-16
6.0431217e-16
7.677599e-16
8.3103468e-16
5.8025205e-16
7.5085296e-16
7.9582837e-16
8.7956054e-16
8.3258683e-16
8.7217697e-16
8.1643035e-16
8.0524916e-16
7.7776658e-16
6.3694004e-16
6.1961238e-16
9.8386067e-16
1.0023323e-15
1.0268435e-15
2.8647479e-16
6.2100432e-16
4.8769564e-16
5.9505124e-16
6.7101357e-16
2.8430946e-16
6.3640277e-16
5.0689821e-16
6.2157311e-16
6.0163921e-16
4.9030448e-16
4.4974773e-16
4.5015035e-16
4.7303848e-16
4.5731987e-16
4.3677023e-16
4.7486213e-16
4.5272065e-16
4.3164754e-16
4.4879947e-16
7.7118985e-16
7.0574168e-16
7.312156e-16
7.6334212e-16
6.9849792e-16
7.1389475e-16
7.4343013e-16
7.4383419e-16
8.5027701e-16
8.2372289e-16
7.5051602e-16
7.7831881e-16
7.6322471e-16
8.1183813e-16
8.4104153e-16
7.678597e-16
7.3164309e-16
6.7037946e-16
7.414538e-16
7.2873693e-16
7.4120099e-16
7.7189874e-16
7.5808302e-16
6.9915116e-16
7.1431752e-16
7.09725e-16
7.8715049e-16
7.719382e-16
8.0975009e-16
8.1076509e-16
7.6413981e-16
7.4283494e-16
4.701189e-16
4.7567801e-16
4.9946613e-16
4.8445509e-16
2.7518207e-16
6.2220003e-16
5.5743388e-16
6.1302691e-16
5.6113752e-16
2.7340273e-16
4.5396142e-16
5.0374698e-16
6.1280123e-16
4.9631851e-16
5.5019564e-16
5.7873705e-16
4.7625e-16
4.6259982e-16
4.568945e-16
4.7595748e-16
7.2946446e-16
7.9752911e-16
2.7642549e-16
2.8107303e-16
3.9831046e-16
4.3049377e-16
4.6543544e-16
4.6687835e-16
4.4721779e-16
4.6314315e-16
4.7027843e-16
4.6916991e-16
4.3101356e-16
4.6388749e-16
5.9459647e-16
4.6955392e-16
6.317152e-16
5.9702033e-16
5.9728717e-16
4.7184811e-16
5.6812058e-16
5.8918719e-16
6.7655064e-16
6.42896e-16
7.4529588e-16
7.3962856e-16
6.8742511e-16
6.2926216e-16
7.2004289e-16
7.3830507e-16
8.503692e-16
8.2350459e-16
7.7450902e-16
7.8194968e-16
7.943477e-16
8.3712279e-16
8.3919324e-16
7.7464505e-16
7.6633155e-16
7.1291214e-16
7.9836791e-16
8.072264e-16
7.5321253e-16
6.8542973e-16
7.5904179e-16
7.7886548e-16
7.7028162e-16
7.9359191e-16
8.016971e-16
7.5515573e-16
7.6787169e-16
7.9992962e-16
8.044199e-16
7.3889513e-16
2.6786133e-16
2.645613e-16
4.5926962e-16
4.9229242e-16
5.1067409e-16
4.9131761e-16
4.7787092e-16
5.1575969e-16
4.7206637e-16
4.7199029e-16
4.5580956e-16
4.7823397e-16
5.9521269e-16
4.7579958e-16
6.3580117e-16
5.9798449e-16
5.9647666e-16
4.5782832e-16
5.0961166e-16
5.908907e-16
5.8407309e-16
6.9980173e-16
1.2005426e-15
9.3916813e-16
1.0332134e-15
9.861606e-16
1.0052409e-15
1.0239517e-15
1.0079723e-15
1.0154132e-15
1.039356e-15
1.0418099e-15
1.2683802e-15
1.2402363e-15
9.6085514e-16
9.7362185e-16
9.7240775e-16
9.7502976e-16
9.8772475e-16
9.7945895e-16
9.8822229e-16
9.8368373e-16
1.190905e-15
1.2112772e-15
1.0831448e-15
1.0523608e-15
1.1463265e-15
1.1521424e-15
1.0339918e-15
2.7112263e-15
2.9373247e-15
3.1587309e-15
2.8387967e-15
3.7716496e-15
3.5828784e-15
3.9641394e-15
3.7531038e-15
2.9419478e-15
3.267771e-15
3.386834e-15
3.0675245e-15
3.9268259e-15
4.0163234e-15
4.2048529e-15
3.9958935e-15
3.0044695e-15
2.7931485e-15
3.1004472e-15
3.809633e-15
2.3416401e-16
2.3552558e-16
2.6839797e-16
2.7516268e-16
4.4406447e-16
5.0046882e-16
2.8794195e-16
2.554977e-16
2.3927874e-16
2.557326e-16
9.4409648e-16
9.4990677e-16
1.081555e-15
1.0892505e-15
1.0190252e-15
9.3855754e-16
9.9628382e-16
1.0832381e-15
5.88301e-16
6.6749503e-16
5.6185404e-16
5.9696102e-16
5.5516488e-16
7.6770235e-16
6.7743245e-16
6.6145125e-16
1.5079542e-15
1.4804184e-15
1.6160126e-15
1.6388777e-15
1.5212261e-15
1.3852503e-15
1.5094496e-15
1.5782735e-15
1.9607739e-15
2.0769207e-15
2.194981e-15
2.1329782e-15
2.3041187e-15
2.1023873e-15
2.1418686e-15
2.3023564e-15
2.2973878e-16
2.2835135e-16
2.6437109e-16
2.7898429e-16
2.1646442e-16
2.4171465e-16
2.7466594e-16
2.5098454e-16
4.4380613e-16
4.6175934e-16
7.8791454e-16
6.9992079e-16
1.7058723e-15
1.3806216e-15
1.5325901e-15
1.5393296e-15
1.4793679e-15
1.4116432e-15
1.5588249e-15
1.5322646e-15
1.9804152e-15
2.1513042e-15
2.2258739e-15
2.0309539e-15
1.9933401e-15
1.9498931e-15
2.135372e-15
2.2053842e-15
1.2015761e-15
8.5429128e-16
1.0279047e-15
9.4560794e-16
9.2633638e-16
8.4303966e-16
9.6815084e-16
1.0015398e-15
5.4463505e-16
8.4018399e-16
5.3686939e-16
7.1474408e-16
6.0571133e-16
8.7523266e-16
5.2647705e-16
6.2723503e-16
8.9157347e-16
7.8316544e-16
7.7611893e-16
6.8603968e-16
4.9004355e-16
5.3194606e-16
2.672443e-16
2.3507284e-16
2.3835271e-16
2.6480218e-16
2.2257438e-16
2.4452194e-16
2.8159602e-16
2.4885962e-16
9.5258398e-16
9.8138366e-16
6.3831358e-16
7.3896113e-16
5.8022035e-16
6.2125386e-16
8.1497143e-16
5.3960262e-15
5.3071786e-15
6.2095438e-15
6.04247e-15
4.5638987e-15
5.2096491e-15
5.7215238e-15
5.1298242e-15
4.1854301e-15
1.1552503e-14
1.152574e-14
3.5083481e-15
8.4702032e-15
3.1231326e-15
9.531189e-15
3.5715673e-15
4.3249145e-15
1.2765522e-14
7.6692871e-15
8.595225e-15
7.525462e-15
7.7618933e-15
7.9471058e-15
1.0118657e-14
7.6753967e-15
8.9892034e-15
1.0701224e-14
1.0356764e-14
3.701626e-15
6.1629008e-15
6.8057091e-15
6.3011046e-15
4.7588578e-15
3.7870992e-15
6.3202713e-15
5.7813343e-15
5.8299027e-15
5.0803324e-15
1.931876e-14
7.5257653e-15
1.1069565e-14
1.2862224e-14
9.0191277e-15
1.0687709e-14
1.8409926e-14
1.9280854e-14
3.1069056e-15
2.3690632e-15
2.4570986e-15
2.4054302e-15
2.5761865e-15
8.8233742e-15
9.1549115e-15
1.0395331e-14
1.7499855e-14
8.4396167e-15
1.0616713e-14
8.8906122e-15
9.9904466e-15
4.515651e-15
1.1540714e-14
2.4331137e-14
6.2148711e-15
1.1994753e-14
3.6141151e-15
1.208328e-14
1.3102232e-14
5.2991624e-15
5.4193368e-15
5.1308201e-15
1.1879904e-14
1.0568418e-14
3.1416273e-15
2.9711627e-15
1.2787379e-15
1.293539e-15
1.1146157e-15
1.3964941e-15
3.2459351e-15
1.8912994e-15
1.1108109e-15
1.1701315e-15
2.3478945e-15
3.4350781e-15
1.1145407e-15
6.5820416e-16
6.4992206e-16
1.2867419e-15
1.3258825e-15
8.2033683e-16
7.5725132e-16
7.8584219e-16
6.547248e-16
6.2698858e-16
1.2517128e-15
8.5105499e-16
7.7854895e-16
4.7102619e-16
3.030756e-16
3.064061e-16
4.8761705e-16
2.937636e-16
2.8927577e-16
4.9472571e-16
5.4842241e-16
2.8811781e-16
2.9401305e-16
4.1844736e-16
4.5479839e-16
2.8191966e-16
2.7712478e-16
4.872024e-16
5.3324213e-16
6.1902328e-16
7.3357475e-16
9.8309955e-16
5.0187979e-16
5.3127375e-16
5.1073043e-16
4.7545244e-16
6.5908713e-16
5.8587279e-16
6.4334379e-16
6.519529e-16
5.9313202e-16
5.7726312e-16
6.6692283e-16
6.0678785e-16
4.8364753e-16
4.7487466e-16
4.9863568e-16
4.6331324e-16
6.4302136e-16
7.2448183e-16
5.5501371e-16
5.4827061e-16
6.501182e-16
6.0963876e-16
6.8043841e-16
5.6649019e-16
6.5499927e-16
6.7312267e-16
5.0258301e-16
4.7998243e-16
4.6989283e-16
4.7778548e-16
4.9279412e-16
4.8143451e-16
4.8947857e-16
4.6602757e-16
4.5042972e-16
4.7329967e-16
4.7844487e-16
4.4807082e-16
6.8950019e-16
5.8795246e-16
6.1590953e-16
5.7854748e-16
6.0075821e-16
5.1629227e-16
6.3512249e-16
6.7514863e-16
4.4983473e-16
4.2325971e-16
4.6749932e-16
4.5374339e-16
5.9720227e-16
6.2778899e-16
6.5379855e-16
6.5149735e-16
6.9667061e-16
7.0585371e-16
8.624713e-16
8.3063305e-16
7.4905195e-16
8.1980275e-16
6.919243e-16
7.069409e-16
7.2176839e-16
7.1624067e-16
7.6438481e-16
7.286826e-16
7.5262921e-16
7.3308362e-16
7.2313207e-16
7.6481992e-16
7.0985438e-16
6.7605438e-16
5.8302481e-16
6.3911354e-16
6.1160008e-16
5.432434e-16
5.1117455e-16
6.7865881e-16
6.439563e-16
4.7300859e-16
4.6338968e-16
4.4611848e-16
4.7049478e-16
4.7753123e-16
4.4917606e-16
5.0202265e-16
4.8740221e-16
2.8739601e-15
2.7434964e-15
3.1740708e-15
2.3544521e-16
2.6145012e-16
3.136437e-16
2.8342854e-16
5.5374712e-16
6.5639455e-16
5.180244e-16
6.3080587e-16
2.5161521e-16
2.5587746e-16
3.0131129e-16
2.9674389e-16
5.3447076e-16
7.0559132e-16
5.7563559e-16
6.0549407e-16
8.5754559e-16
8.1125674e-16
9.4465969e-16
9.9014709e-16
9.7033853e-16
7.5949964e-16
8.4111221e-16
1.0045659e-15
4.4334665e-16
4.8025803e-16
1.4881251e-15
1.3362556e-15
1.4139396e-15
1.5247672e-15
1.4279786e-15
1.3573347e-15
1.4698701e-15
1.5759755e-15
2.0801847e-15
1.9852214e-15
2.1593199e-15
2.2495953e-15
2.1474963e-15
1.9326664e-15
2.0678504e-15
2.2228292e-15
1.481781e-15
1.3642517e-15
1.4504534e-15
1.514124e-15
2.1522484e-15
1.9833621e-15
1.9313021e-15
2.041748e-15
1.4453557e-15
1.2996878e-15
1.4876043e-15
1.5666768e-15
2.0318895e-15
1.9316582e-15
2.1506587e-15
2.2073665e-15
9.3339318e-16
8.0428377e-16
1.0660901e-15
8.3034338e-16
2.8483883e-16
2.4600563e-16
2.5736032e-16
2.9593293e-16
5.8984122e-16
7.4959731e-16
5.9399109e-16
5.8614473e-16
2.2726157e-16
2.5774954e-16
2.9979114e-16
2.6445447e-16
4.3960424e-16
4.2253373e-16
5.4741852e-16
8.1850173e-16
5.4650702e-16
6.6556424e-16
8.8277286e-16
7.4277669e-16
9.0895159e-16
1.0422922e-15
7.0106579e-16
7.9337582e-16
2.3858346e-16
2.4313798e-16
2.8354178e-16
2.8600528e-16
2.2447298e-16
2.5122279e-16
3.0453131e-16
2.657741e-16
4.6983084e-16
4.9996315e-16
9.0263821e-16
7.6269646e-16
8.869331e-16
1.0455357e-15
8.8273337e-16
7.6755888e-16
8.712432e-16
1.0182891e-15
5.0638223e-16
7.1467452e-16
5.4923612e-16
5.952972e-16
5.2815321e-16
7.5739806e-16
5.4056528e-16
6.2494743e-16
1.4311785e-15
1.2515129e-15
1.443618e-15
1.5509183e-15
1.4361715e-15
1.2631391e-15
1.4427883e-15
1.523997e-15
2.0423191e-15
1.9214286e-15
2.1321695e-15
2.2150684e-15
2.1642384e-15
1.9251159e-15
2.0513975e-15
2.2241488e-15
1.6348062e-15
1.3226721e-15
1.4786694e-15
1.6489689e-15
1.4901842e-15
1.3207575e-15
1.4794295e-15
1.5414627e-15
2.1664587e-15
1.9478018e-15
2.0205676e-15
2.1840483e-15
2.1466457e-15
1.9231658e-15
2.0765137e-15
2.2343093e-15
2.3114865e-16
2.3221204e-16
2.7648956e-16
2.804189e-16
2.1699908e-16
2.5073253e-16
2.7163038e-16
2.4877865e-16
4.4558487e-16
3.9851334e-16
1.1524784e-15
8.6376959e-16
9.3405842e-16
1.2049124e-15
9.4141798e-16
8.0197818e-16
9.1031563e-16
1.0417589e-15
5.2734582e-16
8.2094288e-16
6.1973203e-16
6.2299117e-16
5.8041514e-16
8.6681223e-16
5.3316137e-16
8.0532699e-16
5.7877756e-16
7.1288185e-16
9.4460527e-16
8.0214003e-16
8.2958273e-16
6.527395e-16
3.0187959e-15
2.7295367e-15
2.8898987e-15
3.1116641e-15
2.8562751e-15
2.7536349e-15
3.0224639e-15
3.1014858e-15
3.8516184e-15
3.7371765e-15
2.8673857e-15
2.7248613e-15
3.102853e-15
2.944125e-15
2.8278797e-15
2.7642852e-15
3.0475213e-15
2.9452854e-15
3.6288194e-15
3.8007767e-15
3.9460804e-15
3.8802425e-15
3.6246827e-15
3.8257017e-15
3.9811053e-15
6.4065751e-16
6.8249725e-16
7.2350398e-16
6.5708234e-16
7.2143848e-16
7.8201889e-16
8.2796331e-16
7.5843852e-16
8.1298565e-16
8.7323976e-16
9.0767182e-16
8.0564585e-16
7.7585941e-16
7.8011274e-16
7.1065609e-16
7.0216705e-16
9.4866133e-16
1.0012806e-15
1.0375965e-15
9.5106716e-16
8.2300243e-16
8.7463031e-16
9.2601199e-16
8.5441654e-16
9.6114546e-16
9.4588318e-16
8.6819084e-16
8.8132667e-16
9.5958337e-16
1.0256139e-15
1.0576099e-15
9.6813638e-16
7.8052915e-16
7.7208198e-16
7.0584117e-16
7.1261035e-16
7.9597463e-16
8.4311809e-16
8.8432832e-16
8.1737675e-16
8.0390422e-16
8.6484609e-16
8.6110333e-16
7.7513113e-16
7.7926215e-16
7.896863e-16
7.126935e-16
7.0216037e-16
9.1953435e-16
9.3253209e-16
8.626814e-16
8.5109511e-16
8.9742622e-16
9.516046e-16
9.8517559e-16
9.1222711e-16
9.9192698e-16
1.0529594e-15
1.0921759e-15
1.0090356e-15
9.6074971e-16
1.0248357e-15
1.0227855e-15
9.4138226e-16
7.1345012e-16
7.2517537e-16
6.6953143e-16
6.5126365e-16
7.056674e-16
7.2602117e-16
6.7014539e-16
6.5293916e-16
7.6371262e-16
8.045627e-16
8.0957481e-16
7.5507819e-16
8.6390282e-16
9.1319943e-16
9.1130533e-16
8.5047335e-16
2.3153206e-16
4.2384218e-16
2.4745994e-16
5.8361632e-16
4.0751087e-16
4.3117459e-16
4.3319569e-16
6.9459556e-16
2.3031706e-16
2.5276902e-16
3.9925657e-16
4.1341817e-16
4.2451199e-16
4.2523061e-16
4.3770263e-16
4.0125161e-16
3.9144213e-16
4.2079056e-16
4.9888846e-16
4.7093453e-16
4.1594182e-16
4.3845153e-16
5.0157737e-16
4.7403695e-16
4.3366613e-16
4.396181e-16
4.0559022e-16
4.2787285e-16
4.3379986e-16
4.3550647e-16
3.9403308e-16
4.6687828e-16
4.2889628e-16
3.981551e-16
4.7600717e-16
4.9468543e-16
4.149367e-16
4.0113668e-16
5.1220823e-16
4.7695379e-16
4.3366976e-16
4.4335285e-16
6.5135123e-16
3.7817122e-16
9.6678495e-16
3.0326109e-16
3.708486e-16
5.8102268e-16
3.2175943e-16
4.2483572e-16
3.6379941e-16
3.313817e-16
4.7707197e-16
2.4808238e-16
3.2283644e-16
7.3727322e-16
6.1096929e-16
2.967194e-16
3.0850399e-16
4.8268822e-16
4.169546e-16
2.602661e-16
3.3278945e-16
6.7993861e-16
4.3014233e-16
3.0305099e-16
2.9078355e-16
6.8674644e-16
6.701257e-16
2.8906195e-16
3.1808355e-16
6.893358e-16
6.8822134e-16
3.0378808e-16
5.2808881e-16
5.1779604e-16
4.6310592e-16
4.6415349e-16
5.3123945e-16
5.0681231e-16
4.5429075e-16
4.651193e-16
4.9638351e-16
5.6162458e-16
5.798751e-16
5.0354813e-16
5.0182718e-16
5.6541619e-16
5.7494646e-16
5.0065784e-16
5.4451851e-16
5.2834947e-16
4.6450821e-16
4.6447619e-16
4.1552526e-16
4.8691517e-16
4.9136548e-16
4.2199583e-16
4.372276e-16
4.9988597e-16
5.2974693e-16
4.5493283e-16
5.0358712e-16
5.7779028e-16
5.8421476e-16
4.9696261e-16
4.8039278e-16
5.3584188e-16
5.7172089e-16
5.0611674e-16
6.2550665e-16
6.2388061e-16
5.5414594e-16
5.474857e-16
6.2280958e-16
6.8837641e-16
6.9290014e-16
6.1432431e-16
5.448791e-16
5.9513359e-16
6.3849583e-16
5.7211915e-16
6.3207642e-16
6.8523851e-16
6.8566027e-16
6.1015414e-16
5.5380172e-16
6.1220977e-16
6.2809474e-16
5.5481931e-16
6.196055e-16
6.1372419e-16
5.4887839e-16
5.4571171e-16
6.1991634e-16
6.8650268e-16
6.9656934e-16
6.2189897e-16
2.3046052e-16
3.7048298e-16
5.0017529e-16
2.5371198e-16
2.2414308e-16
3.950945e-16
5.7775032e-16
2.4587909e-16
3.9453803e-16
4.2088026e-16
4.2991526e-16
4.526494e-16
4.6225503e-16
4.0585125e-16
4.7776887e-16
5.116088e-16
4.4772898e-16
4.0463046e-16
4.2990203e-16
4.1356694e-16
3.7345493e-16
3.823215e-16
4.1317637e-16
4.4844639e-16
4.6446413e-16
4.1534401e-16
4.6225216e-16
5.2505587e-16
4.8055574e-16
4.2001831e-16
4.9925024e-16
4.3906271e-16
3.9916184e-16
4.3299151e-16
4.2471542e-16
4.6144435e-16
4.4600874e-16
3.9237593e-16
4.446457e-16
4.8252286e-16
5.1949064e-16
4.5581374e-16
4.5194947e-16
5.1090392e-16
4.810324e-16
4.3166943e-16
5.0853054e-16
5.5878745e-16
5.3778967e-16
4.8875868e-16
5.8101715e-16
6.3434256e-16
6.1484191e-16
5.6128042e-16
5.8628671e-16
6.2562521e-16
6.2950323e-16
5.6535574e-16
5.5870486e-16
5.4279184e-16
4.988608e-16
5.0250404e-16
5.1732643e-16
5.5956741e-16
4.9822548e-16
4.6653424e-16
4.6814321e-16
5.0289201e-16
5.1379308e-16
4.6986948e-16
5.4435212e-16
5.8219898e-16
5.8951757e-16
5.4203926e-16
5.6363113e-16
6.0804858e-16
5.7975778e-16
5.3234139e-16
4.7984139e-16
5.4946008e-16
4.3160761e-16
4.0691332e-16
3.7102254e-16
3.6716975e-16
3.4275434e-16
3.4251372e-16
4.6154841e-16
4.117507e-16
4.1031143e-16
4.0887524e-16
4.0006589e-16
3.9271904e-16
3.4339232e-16
3.5180965e-16
3.7849141e-16
3.4839899e-16
3.552374e-16
4.0215701e-16
4.0468914e-16
3.9317925e-16
3.4159956e-16
3.5596921e-16
4.1572496e-16
4.3202469e-16
3.7546772e-16
3.6355752e-16
4.7387707e-16
3.9765442e-16
3.6516065e-16
4.1354649e-16
4.8174892e-16
3.0088669e-16
5.3616451e-16
2.5704847e-16
3.1900525e-16
2.7959209e-16
4.6416836e-16
3.9445349e-16
2.9594128e-16
7.298747e-16
5.5856147e-16
2.6618732e-16
7.2883117e-16
3.2677645e-16
3.0645211e-16
7.7761253e-16
3.0605521e-16
4.8578738e-16
4.2136336e-16
3.0305142e-16
3.2733542e-16
4.9516418e-16
4.7504491e-16
2.9711998e-16
2.995145e-16
6.8192321e-16
6.7064492e-16
2.5120931e-16
6.7112609e-16
2.7087474e-16
6.4990751e-16
2.9294194e-16
8.3039109e-16
6.3270779e-16
6.1672247e-16
7.0197735e-16
8.0534449e-16
1.1414884e-15
9.4345798e-16
7.0063316e-16
5.9676209e-16
8.2823011e-16
6.6101157e-16
5.5193713e-16
4.8448836e-16
4.7171172e-16
4.3236403e-16
4.4326579e-16
3.9771337e-16
5.260365e-16
4.0232899e-16
6.3855551e-16
2.2832568e-16
2.47155e-16
2.228418e-16
2.3943133e-16
3.7688442e-16
3.8177944e-16
3.9122422e-16
3.8533376e-16
4.5923064e-16
4.4172407e-16
3.8634861e-16
4.1361614e-16
8.3235392e-16
2.9401455e-16
2.9219043e-16
7.4110826e-16
4.2241001e-16
3.3525247e-16
6.2590158e-16
3.1085906e-16
4.2888727e-16
2.9537574e-16
4.8143381e-16
2.9762752e-16
6.6609663e-16
3.0674731e-16
2.953074e-16
6.8635478e-16
3.1411807e-16
2.8369619e-16
4.744421e-16
5.1705162e-16
6.3571734e-16
5.800116e-15
6.4104745e-15
6.1967205e-15
5.7371792e-15
4.8995982e-15
5.3831612e-15
6.4184021e-15
5.4786693e-15
4.1870501e-15
4.4817889e-15
9.1299739e-15
1.2444196e-14
1.2397281e-14
5.38439e-15
8.519668e-15
1.8658069e-15
3.8586952e-15
4.5160266e-15
2.1664056e-15
3.9988107e-15
3.2865697e-15
4.9449833e-15
3.9698629e-15
1.1917271e-14
4.4606309e-15
4.6918268e-15
1.3098241e-14
1.5126676e-14
7.7197574e-15
8.6527043e-15
1.0822912e-14
9.7293947e-15
9.4206439e-15
9.4220301e-15
3.8739292e-15
6.2192167e-15
6.5809827e-15
6.5562135e-15
4.6319543e-15
3.9391816e-15
6.2831163e-15
6.9584752e-15
6.2774281e-15
5.1731775e-15
1.3287036e-14
6.575694e-15
1.1942955e-14
1.5496066e-14
6.8483115e-15
1.1858767e-14
1.7218081e-14
1.5145783e-14
3.20249e-15
2.5483665e-15
2.44465e-15
2.8211859e-15
2.5551118e-15
8.9698451e-15
9.0476412e-15
3.3186966e-15
2.5133819e-15
2.69211e-15
2.6182987e-15
2.735483e-15
8.7085266e-15
8.5391575e-15
2.3099366e-14
2.9464426e-14
7.3544821e-15
1.0353704e-14
1.2863265e-14
2.6331685e-14
9.1734651e-15
1.0666238e-14
2.0896034e-15
1.8390301e-15
1.8141925e-15
2.3811088e-15
2.1287774e-15
3.7793998e-15
3.7444374e-15
3.3669303e-15
3.6716262e-15
3.7422534e-15
3.5834522e-15
3.7493369e-15
3.924613e-15
3.7389902e-15
4.0666944e-15
1.7419626e-14
1.1764672e-14
1.7619875e-14
2.7681516e-14
9.6343549e-15
2.0698779e-14
1.9522207e-14
1.8718848e-15
4.8319819e-15
5.0508804e-15
4.7377328e-15
5.2896547e-15
5.0900798e-15
5.8493879e-15
5.4317932e-15
5.7315671e-15
3.5676859e-15
3.301924e-15
3.477195e-15
3.579415e-15
3.5195788e-15
4.0266289e-15
4.1076429e-15
3.4747403e-15
3.3683671e-15
3.4970454e-15
1.0892031e-14
1.085214e-14
5.6485066e-15
5.3794089e-15
5.243874e-15
4.6203595e-15
4.8502345e-15
5.1022909e-15
4.6882074e-15
5.1939207e-15
1.1008399e-14
1.1042553e-14
1.9293405e-15
2.6954002e-15
7.4618613e-16
1.475111e-15
3.369354e-15
3.3333935e-15
1.4812602e-15
1.1975152e-15
2.0296084e-15
2.4199948e-15
1.3045043e-15
1.2571413e-15
3.4659818e-15
1.5231196e-15
2.04939e-15
7.891888e-16
8.112997e-16
2.8391808e-15
9.9367387e-16
7.5750575e-16
6.4775264e-16
3.1859272e-16
5.1035715e-16
3.0112952e-16
2.9506597e-16
5.3667383e-16
5.9108195e-16
6.0847696e-16
5.842542e-16
6.6550213e-16
6.3128131e-16
5.8129573e-16
5.8206298e-16
6.9704952e-16
6.5813979e-16
6.8878659e-16
5.7199772e-16
6.7055343e-16
6.7007179e-16
4.8729539e-16
4.8029791e-16
5.0014557e-16
4.7470263e-16
5.083162e-16
4.9547668e-16
5.1610592e-16
4.8382469e-16
9.8886447e-16
8.2594344e-16
7.9161563e-16
7.0206346e-16
4.4631656e-16
4.7980182e-16
4.3897571e-16
4.2595855e-16
2.805573e-16
2.7312125e-16
3.0564873e-16
3.2437001e-16
3.3991427e-16
2.8545272e-16
2.6112423e-16
2.9654539e-16
2.6917392e-16
2.652737e-16
3.1198136e-16
3.1736648e-16
2.5276252e-16
2.8489975e-16
3.3532251e-16
2.8416094e-16
3.0539743e-16
2.657331e-16
2.6785464e-16
3.071543e-16
2.4132841e-16
2.7204859e-16
3.3957333e-16
2.9250005e-16
4.6281699e-16
4.825773e-16
3.0176583e-16
2.5483747e-16
2.6280415e-16
2.9997995e-16
2.3252989e-16
2.7288168e-16
3.0322831e-16
2.6924599e-16
4.3388971e-16
3.9389104e-16
5.8955625e-16
7.1414939e-16
8.6061137e-16
6.7390154e-16
8.978673e-16
7.3796982e-16
7.0752547e-16
8.7457669e-16
5.6685323e-16
7.141968e-16
5.3251683e-16
5.1758008e-16
5.1117701e-16
6.2869883e-16
4.9894186e-16
5.3909968e-16
8.9669944e-16
6.7037906e-16
6.9536746e-16
9.0270397e-16
1.285102e-15
1.2875387e-15
1.3137373e-15
5.0536545e-16
7.7591569e-16
5.3851538e-16
5.5311164e-16
6.1538646e-16
6.8804616e-16
5.3528307e-16
5.5225948e-16
6.9217681e-16
7.051889e-16
9.1329035e-16
8.879294e-16
8.9447939e-16
6.8680077e-16
7.0364381e-16
9.0209806e-16
9.1423242e-16
7.5209161e-16
7.5989045e-16
9.1987714e-16
5.7381541e-16
6.8706168e-16
5.5174698e-16
5.3116764e-16
5.3657956e-16
7.1237994e-16
4.9301442e-16
6.2103801e-16
9.2516368e-16
6.9495943e-16
8.0286142e-16
9.8427946e-16
1.2499251e-15
1.3002461e-15
1.3607659e-15
1.2743393e-15
1.4247507e-15
1.5200031e-15
2.2071678e-15
2.0525687e-15
2.2174302e-15
1.5935244e-15
1.3296853e-15
1.3363808e-15
1.4728595e-15
1.465737e-15
1.3642889e-15
1.4740168e-15
1.559283e-15
2.1495533e-15
1.864948e-15
2.0395545e-15
2.185201e-15
6.3080111e-16
7.7819885e-16
6.7394487e-16
5.9935281e-16
5.290017e-16
8.6132723e-16
5.5575272e-16
7.4876435e-16
8.0952676e-16
7.6142958e-16
9.2383497e-16
9.4238505e-16
9.3556232e-16
7.5901606e-16
9.5758965e-16
1.0698959e-15
7.2171479e-16
7.0506531e-16
6.6106392e-16
6.6594815e-16
7.4179069e-16
7.7405442e-16
7.0859384e-16
6.8648855e-16
7.9592713e-16
8.2831719e-16
2.2629629e-16
4.1780436e-16
6.7193542e-16
2.5857989e-16
3.2717236e-16
2.711016e-16
4.6780925e-16
5.1596063e-16
3.5894665e-16
4.8836736e-16
3.2673526e-16
5.737145e-16
2.7525288e-16
6.2406701e-16
6.1988247e-16
2.9920695e-16
6.427312e-16
3.1613953e-16
6.4165857e-16
2.854611e-16
2.3763315e-16
4.2592323e-16
5.7498989e-16
2.5237423e-16
3.8818947e-16
6.2169834e-16
3.2652037e-16
4.6114005e-16
4.3292589e-16
6.7629871e-16
4.957436e-16
3.5883954e-16
3.4063027e-16
9.4585758e-16
6.8111257e-16
2.9295797e-16
6.2857643e-16
3.0593447e-16
7.2651613e-16
2.9212152e-16
3.7254237e-16
3.734889e-16
3.7454818e-16
3.7808191e-16
3.8179645e-16
4.0703281e-16
3.7292555e-16
3.6978139e-16
4.3909296e-16
4.2740718e-16
3.5038468e-16
3.6597337e-16
4.4754219e-16
4.4156931e-16
3.8301679e-16
3.8352382e-16
4.9628537e-16
4.7979644e-16
3.950712e-16
4.1218892e-16
3.9105604e-16
3.6463926e-16
3.901062e-16
4.0849906e-16
3.6781303e-16
4.0515577e-16
4.3989182e-16
3.8016114e-16
4.4976754e-16
5.2017927e-16
4.4839751e-16
3.9113612e-16
3.9577853e-16
4.0731426e-16
4.0395613e-16
4.4190428e-16
4.6520184e-16
4.1055639e-16
3.5907142e-16
4.0746381e-16
4.349921e-16
3.7591241e-16
4.6090485e-16
4.5321441e-16
4.020937e-16
4.0470193e-16
4.4366724e-16
4.9150929e-16
5.0343322e-16
4.4667124e-16
4.6592496e-16
5.3052748e-16
4.6090534e-16
4.114191e-16
4.9661049e-16
4.5487839e-16
4.0510485e-16
4.2648095e-16
4.4171866e-16
4.9671017e-16
5.3345029e-16
4.6061718e-16
4.8578503e-16
5.5731106e-16
5.0476566e-16
4.4955675e-16
5.6067005e-16
5.482389e-16
5.0459295e-16
5.0767897e-16
4.589726e-16
4.9293282e-16
5.1146631e-16
4.6729235e-16
5.51019e-16
5.8207784e-16
5.9074103e-16
5.4498986e-16
5.8746213e-16
6.3018161e-16
6.4296862e-16
5.8839528e-16
5.7950424e-16
6.3158028e-16
6.4849679e-16
5.8062097e-16
4.9773928e-16
5.4449942e-16
5.7657473e-16
5.1039415e-16
5.5818621e-16
5.9244774e-16
5.2920977e-16
5.063483e-16
5.9974623e-16
6.5406659e-16
6.365921e-16
5.8517692e-16
4.4717436e-16
4.9548423e-16
5.5495158e-16
4.8581224e-16
3.9613566e-16
4.3308584e-16
4.9744464e-16
4.3540535e-16
5.1536693e-16
5.7805319e-16
5.3105304e-16
4.6348971e-16
4.8743173e-16
5.2919916e-16
4.6644847e-16
4.2093771e-16
5.9921562e-16
6.4332605e-16
6.7634573e-16
6.0079941e-16
5.0468989e-16
5.5298922e-16
5.9962143e-16
5.3576634e-16
5.7650556e-16
6.1984954e-16
5.4557172e-16
5.1708211e-16
6.0634578e-16
6.7056521e-16
6.5209009e-16
5.8430837e-16
4.9817824e-16
4.61814e-16
4.085581e-16
4.287242e-16
4.6973384e-16
5.1243143e-16
4.5614566e-16
4.1018801e-16
5.1104224e-16
5.6519135e-16
5.1096572e-16
4.5182e-16
4.4393366e-16
4.9174957e-16
5.2528026e-16
4.568009e-16
5.6599289e-16
5.386702e-16
4.9109251e-16
5.0684986e-16
5.6514577e-16
6.2646793e-16
5.6471101e-16
5.1008002e-16
6.2752594e-16
6.9221427e-16
6.4315351e-16
5.8732292e-16
5.6621025e-16
6.0465718e-16
6.3421601e-16
5.7447363e-16
4.6556824e-16
4.3052784e-16
3.5366748e-16
3.9703131e-16
3.7007015e-16
3.4893784e-16
3.5005474e-16
3.6843337e-16
4.8172377e-16
4.8810313e-16
4.3443597e-16
4.0395135e-16
3.6416424e-16
3.8916258e-16
4.1030852e-16
3.8417276e-16
5.0636886e-16
3.7206008e-16
2.3701459e-16
2.5705435e-16
6.3475139e-16
6.5717781e-16
2.6011473e-16
2.6558132e-16
4.2419345e-16
3.3550298e-16
6.2224167e-16
3.4128315e-16
4.319461e-16
3.033074e-16
4.4613085e-16
3.0010376e-16
2.9343043e-16
5.6076282e-16
5.8174207e-16
2.739122e-16
2.2914125e-16
3.9217309e-16
5.8379515e-16
2.4976823e-16
3.9842709e-16
3.7420958e-16
6.6447437e-16
2.9785882e-16
6.3406481e-16
2.9477801e-16
3.5551617e-16
3.4752518e-16
4.7893352e-16
4.8582328e-16
5.1262956e-16
3.5007664e-16
5.6351526e-16
2.8027847e-16
3.1439042e-16
6.792079e-16
7.0381793e-16
2.8192645e-16
3.7762937e-16
3.8609886e-16
3.8686787e-16
3.9707416e-16
3.7370865e-16
3.5649319e-16
3.5594381e-16
3.6305896e-16
4.4993527e-16
4.6854981e-16
4.0898933e-16
3.8185355e-16
4.7891431e-16
4.5027594e-16
3.9108515e-16
4.1182644e-16
4.5575905e-16
3.9706516e-16
4.3962305e-16
4.4478737e-16
2.2998744e-16
4.0190272e-16
5.4288633e-16
2.4665081e-16
2.2714489e-16
3.9972225e-16
6.9175026e-16
2.4775469e-16
4.1664394e-16
4.2977642e-16
3.7159616e-16
3.7049642e-16
3.7027264e-16
3.9990417e-16
3.9166638e-16
3.7558319e-16
3.1431473e-16
3.2673692e-16
4.0513823e-16
4.5835806e-16
3.9406347e-16
3.5687019e-16
4.7850557e-16
4.0880025e-16
3.7026111e-16
4.1442345e-16
3.58365e-16
3.6502834e-16
3.7571665e-16
3.963129e-16
3.68639e-16
3.7370443e-16
3.2599938e-16
3.3153085e-16
4.0337432e-16
4.3075018e-16