/*--------------------------------*- C++ -*----------------------------------*\
  =========                 |
  \\      /  F ield         | OpenFOAM: The Open Source CFD Toolbox
   \\    /   O peration     | Website:  https://openfoam.org
    \\  /    A nd           | Version:  7
     \\/     M anipulation  |
\*---------------------------------------------------------------------------*/
FoamFile
{
    version     2.0;
    format      ascii;
    class       volScalarField;
    location    "2000";
    object      p;
}
// * * * * * * * * * * * * * * * * * * * * * * * * * * * * * * * * * * * * * //

dimensions      [0 2 -2 0 0 0 0];

internalField   nonuniform List<scalar> 
33899
(
-5.5825467e+29
-5.5400257e+29
-4.6633104e+29
-5.4986606e+29
-5.4547198e+29
-5.5196288e+29
-5.5622167e+29
-5.3506741e+29
-5.3132132e+29
-4.5803024e+29
-4.6246056e+29
-4.8726999e+29
-4.6606245e+29
-4.7759504e+29
-4.4606478e+29
-4.7971112e+29
-4.677789e+29
-4.2409265e+29
-4.272771e+29
-4.4954255e+29
-5.3565585e+29
-5.4075028e+29
-5.4322315e+29
-5.4771417e+29
-5.2744063e+29
-5.2329577e+29
-5.5124293e+29
-5.2976236e+29
-5.5553982e+29
-5.3359935e+29
-5.0766496e+29
-3.9955826e+29
-4.4880767e+29
-4.5373634e+29
-4.5799468e+29
-4.6894457e+29
-4.7135653e+29
-4.6011089e+29
-4.3863488e+29
-4.6218814e+29
-4.7349715e+29
-4.7593318e+29
-4.6453724e+29
-4.4248107e+29
-4.1750793e+29
-4.2093117e+29
-4.8281419e+29
-4.8535887e+29
-4.8974725e+29
-4.9391752e+29
-4.908024e+29
-4.949524e+29
-4.9168973e+29
-4.5362892e+29
-4.7668473e+29
-4.7589255e+29
-4.6924423e+29
-4.6969191e+29
-4.8183929e+29
-4.8089382e+29
-4.8550743e+29
-4.8652109e+29
-4.5503547e+29
-4.3819216e+29
-4.39344e+29
-4.8378109e+29
-4.8268369e+29
-4.8739406e+29
-4.8847149e+29
-4.7849099e+29
-4.7744943e+29
-4.7146675e+29
-4.7048773e+29
-4.1915099e+29
-4.2218749e+29
-4.5673201e+29
-4.4088974e+29
-4.4315815e+29
-4.7213412e+29
-4.0439647e+29
-5.301698e+29
-5.242398e+29
-5.3332391e+29
-5.3845425e+29
-5.1410483e+29
-5.1882379e+29
-5.1758294e+29
-5.4238854e+29
-5.2156957e+29
-5.469201e+29
-5.2577649e+29
-5.0404444e+29
-5.0014302e+29
-5.51191e+29
-5.2916315e+29
-5.0646687e+29
-5.5545554e+29
-5.330693e+29
-4.8357147e+29
-3.968756e+29
-3.9412393e+29
-4.1059457e+29
-4.304926e+29
-4.3474181e+29
-4.1417151e+29
-4.4864494e+29
-4.5106725e+29
-4.5352039e+29
-4.6432362e+29
-4.6700575e+29
-4.5612898e+29
-4.8409958e+29
-4.6184175e+29
-4.610724e+29
-4.6741337e+29
-4.6838929e+29
-4.4604353e+29
-4.7227736e+29
-4.7332332e+29
-4.7672765e+29
-4.7782263e+29
-4.743822e+29
-4.7882649e+29
-4.7553398e+29
-4.800162e+29
-4.694118e+29
-4.6277624e+29
-4.4780919e+29
-4.640635e+29
-4.7057571e+29
-4.3253377e+29
-4.3115458e+29
-4.4976123e+29
-4.72832e+29
-4.7158057e+29
-4.6502653e+29
-4.661731e+29
-4.7772577e+29
-4.764912e+29
-4.8101798e+29
-4.8225217e+29
-4.8018791e+29
-4.7891958e+29
-4.8338349e+29
-4.846349e+29
-4.520064e+29
-4.7526974e+29
-4.7401135e+29
-4.6736923e+29
-4.6869916e+29
-4.3655637e+29
-4.3425593e+29
-4.1289579e+29
-4.1612275e+29
-4.8511766e+29
-4.8636845e+29
-4.9046491e+29
-4.8877934e+29
-4.8749023e+29
-4.9164361e+29
-4.9294595e+29
-4.9161517e+29
-4.9336332e+29
-4.938799e+29
-4.9215078e+29
-4.9688781e+29
-4.9508111e+29
-4.955824e+29
-4.9735985e+29
-4.9263526e+29
-4.943663e+29
-4.9487691e+29
-4.931499e+29
-4.9654558e+29
-4.9603906e+29
-4.9780738e+29
-4.9830771e+29
-4.9388057e+29
-4.9349274e+29
-4.9521713e+29
-4.9562559e+29
-4.9690191e+29
-4.6115065e+29
-4.5061575e+29
-4.5066752e+29
-4.6141714e+29
-4.8062668e+29
-4.8021495e+29
-4.8296276e+29
-4.8341034e+29
-4.7991643e+29
-4.797172e+29
-4.8226996e+29
-4.8260585e+29
-4.7678452e+29
-4.7285934e+29
-4.7275695e+29
-4.768902e+29
-4.732536e+29
-4.7280052e+29
-4.7706456e+29
-4.7747006e+29
-4.8571818e+29
-4.852406e+29
-4.8721577e+29
-4.8772313e+29
-4.848341e+29
-4.844234e+29
-4.862941e+29
-4.8677004e+29
-4.8805063e+29
-4.8856194e+29
-4.9037066e+29
-4.8984771e+29
-4.9136228e+29
-4.8901953e+29
-4.8953352e+29
-4.9084291e+29
-4.6211692e+29
-4.6311452e+29
-4.5240047e+29
-4.5122718e+29
-4.3638172e+29
-4.3749059e+29
-4.876202e+29
-4.8700262e+29
-4.889592e+29
-4.8953675e+29
-4.8650992e+29
-4.8607379e+29
-4.8848753e+29
-4.8808065e+29
-4.8988251e+29
-4.9170138e+29
-4.9207262e+29
-4.9027197e+29
-4.9129879e+29
-4.9072792e+29
-4.9252955e+29
-4.9313127e+29
-4.853093e+29
-4.8184945e+29
-4.8253186e+29
-4.8465619e+29
-4.8141204e+29
-4.8091088e+29
-4.8372854e+29
-4.8419009e+29
-4.7508199e+29
-4.7449441e+29
-4.787012e+29
-4.7931503e+29
-4.7395211e+29
-4.7360052e+29
-4.7777521e+29
-4.7823409e+29
-4.1733123e+29
-4.2032121e+29
-4.390759e+29
-4.6385028e+29
-4.6473507e+29
-4.538833e+29
-4.5320656e+29
-4.7969413e+29
-4.753978e+29
-4.7564096e+29
-4.8005248e+29
-4.7608069e+29
-3.9918514e+29
-4.0276505e+29
-4.0011878e+29
-4.1501648e+29
-4.1791123e+29
-4.2798549e+29
-4.3084955e+29
-4.3381457e+29
-4.3089209e+29
-4.5979905e+29
-5.2200902e+29
-5.2785445e+29
-5.0899284e+29
-5.0358163e+29
-5.1245604e+29
-5.0702277e+29
-5.3245793e+29
-5.1219503e+29
-5.3760479e+29
-5.1699337e+29
-4.9157916e+29
-4.9593484e+29
-4.9427729e+29
-5.1786374e+29
-5.1525096e+29
-5.2684398e+29
-5.422659e+29
-5.2089853e+29
-4.9882477e+29
-5.4683145e+29
-5.2511824e+29
-5.0277353e+29
-4.8024355e+29
-4.7664958e+29
-5.5119045e+29
-5.2905796e+29
-5.0598287e+29
-4.8286139e+29
-5.5545425e+29
-5.3299028e+29
-5.3063398e+29
-4.2163148e+29
-3.916003e+29
-4.1859767e+29
-3.8863128e+29
-4.0725267e+29
-4.2647615e+29
-4.4655374e+29
-4.0638625e+29
-4.3729475e+29
-4.2342516e+29
-4.2499629e+29
-4.3936501e+29
-4.4165993e+29
-4.4414522e+29
-4.2936898e+29
-4.2691829e+29
-4.0973607e+29
-4.5782012e+29
-4.5145002e+29
-4.5232424e+29
-4.5883555e+29
-4.5498294e+29
-4.5340426e+29
-4.5990888e+29
-4.6137923e+29
-4.6253227e+29
-4.5619761e+29
-4.5747796e+29
-4.6385215e+29
-4.6729592e+29
-4.6864733e+29
-4.7436121e+29
-4.6997524e+29
-4.7141802e+29
-4.7574882e+29
-4.5879233e+29
-4.6029823e+29
-4.6516248e+29
-4.6658851e+29
-4.8636107e+29
-4.8561291e+29
-4.8801722e+29
-4.5384736e+29
-4.6521865e+29
-4.6478548e+29
-4.6880728e+29
-4.6931933e+29
-4.5327163e+29
-4.6451823e+29
-4.6444126e+29
-4.682276e+29
-4.6853368e+29
-4.7147308e+29
-4.7108321e+29
-4.7367263e+29
-4.7408978e+29
-4.7445289e+29
-4.7176371e+29
-4.7234726e+29
-4.750156e+29
-4.4314259e+29
-4.4341733e+29
-4.7770406e+29
-4.7586455e+29
-4.7630669e+29
-4.7818359e+29
-4.7725079e+29
-4.7671123e+29
-4.7861203e+29
-4.7913097e+29
-4.7988721e+29
-4.7938108e+29
-4.8102403e+29
-4.8154894e+29
-4.8200592e+29
-4.8032403e+29
-4.808256e+29
-4.8250442e+29
-4.7951333e+29
-4.7767e+29
-4.7995589e+29
-4.7814141e+29
-4.8285685e+29
-4.8118124e+29
-4.816166e+29
-4.8329962e+29
-4.7933108e+29
-4.7862549e+29
-4.8048543e+29
-4.8118863e+29
-4.8290201e+29
-4.8217881e+29
-4.8389562e+29
-4.8464187e+29
-4.7546672e+29
-4.7284581e+29
-4.7595126e+29
-4.7334646e+29
-4.5469447e+29
-4.6979195e+29
-4.6565181e+29
-4.6621414e+29
-4.7033082e+29
-4.5594155e+29
-4.4412982e+29
-4.4543097e+29
-4.7093485e+29
-4.6690607e+29
-4.6768225e+29
-4.716596e+29
-4.7458278e+29
-4.7383773e+29
-4.7641916e+29
-4.7714591e+29
-4.308002e+29
-4.2949545e+29
-4.5691161e+29
-4.5791455e+29
-4.4638481e+29
-4.4714692e+29
-4.7688278e+29
-4.7613087e+29
-4.7868942e+29
-4.7942273e+29
-4.7563288e+29
-4.7506621e+29
-4.7762381e+29
-4.7817625e+29
-4.7215385e+29
-4.6817365e+29
-4.6850304e+29
-4.7265188e+29
-4.7319161e+29
-4.6907463e+29
-4.6982731e+29
-4.739074e+29
-4.8156342e+29
-4.8084953e+29
-4.8274829e+29
-4.8344109e+29
-4.8031591e+29
-4.7977773e+29
-4.8165896e+29
-4.8219983e+29
-4.8396276e+29
-4.834102e+29
-4.8517892e+29
-4.8573769e+29
-4.8629651e+29
-4.8451137e+29
-4.8518305e+29
-4.8695746e+29
-4.8406975e+29
-4.8340251e+29
-4.8520293e+29
-4.8587371e+29
-4.827987e+29
-4.8212749e+29
-4.8398767e+29
-4.8460554e+29
-4.8745641e+29
-4.8569884e+29
-4.8628817e+29
-4.880151e+29
-4.8861252e+29
-4.8688013e+29
-4.8756701e+29
-4.893209e+29
-4.590964e+29
-4.6048649e+29
-4.4824566e+29
-4.4985336e+29
-4.794627e+29
-4.7878895e+29
-4.8128528e+29
-4.8195575e+29
-4.781906e+29
-4.7744755e+29
-4.7998795e+29
-4.8069092e+29
-4.7452607e+29
-4.7048739e+29
-4.7111457e+29
-4.7523384e+29
-4.759116e+29
-4.7189713e+29
-4.7258691e+29
-4.7653573e+29
-4.3478309e+29
-4.3251876e+29
-4.1117582e+29
-4.1433778e+29
-4.8858081e+29
-4.8690118e+29
-4.8748454e+29
-4.8919312e+29
-4.8870913e+29
-4.8805538e+29
-4.8978163e+29
-4.9044551e+29
-4.9216113e+29
-4.9147714e+29
-4.9108667e+29
-4.9037725e+29
-4.9284489e+29
-4.9213728e+29
-4.8977182e+29
-4.8920598e+29
-4.9152657e+29
-4.9095253e+29
-4.926883e+29
-4.9328046e+29
-4.9511627e+29
-4.9572633e+29
-4.9388445e+29
-4.9458369e+29
-4.9641271e+29
-4.9314146e+29
-4.9466617e+29
-4.9521653e+29
-4.9372553e+29
-4.9786592e+29
-4.9623993e+29
-4.9673292e+29
-4.9833626e+29
-4.9421818e+29
-4.9568782e+29
-4.9609932e+29
-4.9465397e+29
-4.9760968e+29
-4.9719712e+29
-4.9878143e+29
-4.9920143e+29
-4.9534414e+29
-4.949824e+29
-4.9645494e+29
-4.9799e+29
-4.6782866e+29
-4.6098357e+29
-4.6761846e+29
-4.6056563e+29
-4.509375e+29
-4.5092022e+29
-4.6106982e+29
-4.6054447e+29
-4.6762056e+29
-4.6806231e+29
-4.8462219e+29
-4.8427018e+29
-4.8646013e+29
-4.8683812e+29
-4.840156e+29
-4.8379119e+29
-4.8568445e+29
-4.8609287e+29
-4.8099617e+29
-4.7655045e+29
-4.7640727e+29
-4.8102235e+29
-4.7682427e+29
-4.7643563e+29
-4.8118092e+29
-4.8152442e+29
-4.8866377e+29
-4.8824812e+29
-4.8976042e+29
-4.9019867e+29
-4.8780427e+29
-4.8732085e+29
-4.8873346e+29
-4.8927776e+29
-4.9016209e+29
-4.9074057e+29
-4.9221423e+29
-4.9162555e+29
-4.9315788e+29
-4.9123922e+29
-4.9168112e+29
-4.9271672e+29
-4.6843026e+29
-4.6140596e+29
-4.6155882e+29
-4.6871244e+29
-4.6925505e+29
-4.6208405e+29
-4.6307148e+29
-4.6995951e+29
-4.5265763e+29
-4.5146912e+29
-4.3551704e+29
-4.3658506e+29
-4.9036521e+29
-4.8986506e+29
-4.9130058e+29
-4.9176995e+29
-4.8942329e+29
-4.8901036e+29
-4.9089259e+29
-4.9052135e+29
-4.9199804e+29
-4.9347388e+29
-4.9382544e+29
-4.9235188e+29
-4.9322864e+29
-4.9274682e+29
-4.9423006e+29
-4.947497e+29
-4.8866353e+29
-4.8588341e+29
-4.8649901e+29
-4.8809268e+29
-4.8539334e+29
-4.8494058e+29
-4.8718086e+29
-4.8760891e+29
-4.7877573e+29
-4.7808327e+29
-4.8275381e+29
-4.8341699e+29
-4.7750555e+29
-4.7712988e+29
-4.8182535e+29
-4.8226169e+29
-4.3551067e+29
-4.3660253e+29
-4.3814226e+29
-4.3817868e+29
-4.5353616e+29
-4.542254e+29
-4.6333222e+29
-4.6343393e+29
-4.7026694e+29
-4.7039618e+29
-4.7079968e+29
-4.6368074e+29
-4.645768e+29
-4.7156793e+29
-4.8694566e+29
-4.8905997e+29
-4.8386324e+29
-4.7909714e+29
-4.792798e+29
-4.8413791e+29
-4.7970844e+29
-3.9382507e+29
-4.0931386e+29
-3.949007e+29
-3.9767518e+29
-4.1230386e+29
-4.2187581e+29
-4.2457834e+29
-4.2772896e+29
-4.2502211e+29
-4.0418591e+29
-4.0161944e+29
-4.1627492e+29
-4.3226493e+29
-4.1916195e+29
-4.3540699e+29
-4.5337448e+29
-4.5661072e+29
-4.6001213e+29
-4.9792079e+29
-4.9208736e+29
-5.0126908e+29
-4.9534504e+29
-5.2117854e+29
-5.0171436e+29
-5.2700337e+29
-5.0705363e+29
-4.8691648e+29
-4.8204466e+29
-4.8962648e+29
-5.1282436e+29
-5.1019973e+29
-5.2144751e+29
-5.2431474e+29
-4.8476476e+29
-5.0773224e+29
-5.0474102e+29
-5.1569658e+29
-5.1879707e+29
-5.323546e+29
-5.1148087e+29
-4.9007001e+29
-5.374773e+29
-5.1631042e+29
-4.9451e+29
-4.6873585e+29
-4.7277058e+29
-4.701522e+29
-4.9163369e+29
-5.0403038e+29
-5.0652833e+29
-4.9395635e+29
-5.2240587e+29
-5.1998875e+29
-5.4225965e+29
-5.2078023e+29
-4.9835149e+29
-4.7581068e+29
-5.4682846e+29
-5.2499995e+29
-5.022992e+29
-4.7949077e+29
-5.2905093e+29
-5.0582994e+29
-4.826969e+29
-5.3298719e+29
-5.2513322e+29
-5.2807894e+29
-5.3026826e+29
-5.3526901e+29
-5.3143586e+29
-5.1946956e+29
-5.2237191e+29
-4.4106502e+29
-4.4328969e+29
-4.4195578e+29
-4.3968548e+29
-4.1557781e+29
-4.1238239e+29
-3.8631363e+29
-4.3821299e+29
-4.3699068e+29
-4.3814766e+29
-4.3947919e+29
-3.8332172e+29
-4.0324004e+29
-4.3272394e+29
-4.3526166e+29
-4.1913549e+29
-4.2157081e+29
-4.4748537e+29
-4.5051881e+29
-4.488764e+29
-4.5519702e+29
-4.5679726e+29
-4.0483258e+29
-4.2202715e+29
-4.2350315e+29
-4.3462375e+29
-4.4399674e+29
-4.4471619e+29
-4.3503745e+29
-4.4573529e+29
-4.4722408e+29
-4.3588572e+29
-4.3733421e+29
-4.4841958e+29
-4.49586e+29
-4.3844586e+29
-4.3936151e+29
-4.5088121e+29
-4.524216e+29
-4.405634e+29
-4.4225549e+29
-4.2775713e+29
-4.2536478e+29
-4.080799e+29
-4.6381199e+29
-4.6139159e+29
-4.6173272e+29
-4.6424288e+29
-4.5850791e+29
-4.546649e+29
-4.548435e+29
-4.5881042e+29
-4.5571336e+29
-4.5512653e+29
-4.5913018e+29
-4.5969574e+29
-4.6466723e+29
-4.6209184e+29
-4.6265003e+29
-4.6525899e+29
-4.6999601e+29
-4.6926326e+29
-4.5855575e+29
-4.5758773e+29
-4.6156449e+29
-4.6246564e+29
-4.5680129e+29
-4.5618954e+29
-4.6015336e+29
-4.6083751e+29
-4.6378736e+29
-4.6312259e+29
-4.6575531e+29
-4.663959e+29
-4.6707677e+29
-4.6449038e+29
-4.6536441e+29
-4.6787503e+29
-4.6841342e+29
-4.659645e+29
-4.6648393e+29
-4.6896738e+29
-4.6306162e+29
-4.5911511e+29
-4.5960847e+29
-4.6359058e+29
-4.609611e+29
-4.6019604e+29
-4.6413294e+29
-4.649318e+29
-4.6954195e+29
-4.6698524e+29
-4.6782842e+29
-4.7036613e+29
-4.7047974e+29
-4.7106275e+29
-4.7253422e+29
-4.7170587e+29
-4.7353112e+29
-4.7438023e+29
-4.7669994e+29
-4.7738889e+29
-4.7892623e+29
-4.7503586e+29
-4.7318916e+29
-4.7396246e+29
-4.7576728e+29
-4.7541913e+29
-4.7467188e+29
-4.7646999e+29
-4.7721216e+29
-4.7963623e+29
-4.7807632e+29
-4.7884964e+29
-4.804562e+29
-4.6562722e+29
-4.6165499e+29
-4.6246678e+29
-4.6640686e+29
-4.6408539e+29
-4.6328917e+29
-4.6713667e+29
-4.6789227e+29
-4.6926703e+29
-4.6851292e+29
-4.7101958e+29
-4.7179781e+29
-4.7249693e+29
-4.6994136e+29
-4.7073371e+29
-4.7325761e+29
-4.877748e+29
-4.8703717e+29
-4.8921191e+29
-4.597629e+29
-4.5292763e+29
-4.5352673e+29
-4.6022716e+29
-4.6865307e+29
-4.6819728e+29
-4.7273755e+29
-4.7318906e+29
-4.5961128e+29
-4.5306289e+29
-4.5279541e+29
-4.5955528e+29
-4.680278e+29
-4.6800846e+29
-4.7228915e+29
-4.7252596e+29
-4.75453e+29
-4.7510059e+29
-4.7716265e+29
-4.775766e+29
-4.7793232e+29
-4.7572463e+29
-4.7618936e+29
-4.7836353e+29
-4.4346957e+29
-4.436577e+29
-4.8023391e+29
-4.7885129e+29
-4.7931485e+29
-4.8073736e+29
-4.8010388e+29
-4.796955e+29
-4.8113281e+29
-4.8151601e+29
-4.8209122e+29
-4.8154705e+29
-4.828377e+29
-4.8340974e+29
-4.8384783e+29
-4.8250608e+29
-4.828649e+29
-4.8420837e+29
-4.8175317e+29
-4.8039868e+29
-4.8217569e+29
-4.808482e+29
-4.844602e+29
-4.8308198e+29
-4.8350875e+29
-4.8491084e+29
-4.8208584e+29
-4.8141237e+29
-4.8280214e+29
-4.8348772e+29
-4.8489094e+29
-4.8417754e+29
-4.8558308e+29
-4.8631399e+29
-4.7874275e+29
-4.766544e+29
-4.7921786e+29
-4.7715899e+29
-4.5418753e+29
-4.5391964e+29
-4.6064808e+29
-4.6111267e+29
-4.7368412e+29
-4.6909672e+29
-4.6963643e+29
-4.7421382e+29
-4.6179658e+29
-4.5481517e+29
-4.5590836e+29
-4.6267205e+29
-4.4434177e+29
-4.4564349e+29
-4.748514e+29
-4.703381e+29
-4.7117987e+29
-4.7559786e+29
-4.7840975e+29
-4.7769739e+29
-4.7972177e+29
-4.8041667e+29
-4.2988222e+29
-4.2863541e+29
-4.631496e+29
-4.5639736e+29
-4.5640934e+29
-4.6337284e+29
-4.638795e+29
-4.5682875e+29
-4.5775653e+29
-4.6468475e+29
-4.4665018e+29
-4.474435e+29
-4.8068899e+29
-4.7999285e+29
-4.8195401e+29
-4.8264376e+29
-4.7948779e+29
-4.7895592e+29
-4.8090634e+29
-4.814664e+29
-4.7615352e+29
-4.7165e+29
-4.7198436e+29
-4.7660579e+29
-4.7714817e+29
-4.7254656e+29
-4.7333847e+29
-4.7785919e+29
-4.8430146e+29
-4.8364924e+29
-4.8512572e+29
-4.8574489e+29
-4.8313421e+29
-4.8258379e+29
-4.8403086e+29
-4.8458698e+29
-4.8604439e+29
-4.8547292e+29
-4.8692444e+29
-4.875117e+29
-4.8806879e+29
-4.8659308e+29
-4.8718549e+29
-4.8864719e+29
-4.8685602e+29
-4.8619289e+29
-4.8752008e+29
-4.8817578e+29
-4.8557028e+29
-4.8488551e+29
-4.8628836e+29
-4.8690406e+29
-4.8915278e+29
-4.8770309e+29
-4.8828724e+29
-4.8971883e+29
-4.9032403e+29
-4.8889306e+29
-4.8955837e+29
-4.9100061e+29
-4.653466e+29
-4.5838208e+29
-4.5880939e+29
-4.6592482e+29
-4.667029e+29
-4.5955462e+29
-4.60693e+29
-4.675641e+29
-4.4859529e+29
-4.502154e+29
-4.8343533e+29
-4.8275877e+29
-4.8460607e+29
-4.8529477e+29
-4.8208157e+29
-4.8132855e+29
-4.8323352e+29
-4.8397644e+29
-4.7855246e+29
-4.7403888e+29
-4.7471961e+29
-4.7927916e+29
-4.8001747e+29
-4.7555944e+29
-4.7634027e+29
-4.8070422e+29
-4.3388575e+29
-4.3160384e+29
-4.2857842e+29
-4.2982146e+29
-4.314786e+29
-4.3381525e+29
-4.8987453e+29
-4.8840417e+29
-4.8901412e+29
-4.9050984e+29
-4.9015766e+29
-4.8957382e+29
-4.9109262e+29
-4.9169109e+29
-4.9328187e+29
-4.9265554e+29
-4.9252165e+29
-4.9183318e+29
-4.9407846e+29
-4.9339832e+29
-4.9123645e+29
-4.9066055e+29
-4.927942e+29
-4.9221092e+29
-4.9382682e+29
-4.9442406e+29
-4.9610287e+29
-4.9671106e+29
-4.9502684e+29
-4.9568926e+29
-4.9735085e+29
-4.9411445e+29
-4.9339127e+29
-4.9374414e+29
-4.9445208e+29
-4.9555529e+29
-4.9480899e+29
-4.9513644e+29
-4.958664e+29
-4.9610816e+29
-4.9540179e+29
-4.9568535e+29
-4.9636905e+29
-4.9433785e+29
-4.9403258e+29
-4.9473023e+29
-4.9502295e+29
-4.9863848e+29
-4.9782627e+29
-4.9808879e+29
-4.9888469e+29
-4.9706593e+29
-4.9628369e+29
-4.9658006e+29
-4.9734161e+29
-4.9705075e+29
-4.9679519e+29
-4.9754681e+29
-4.9779453e+29
-4.9909283e+29
-4.9829138e+29
-4.9854021e+29
-4.9933944e+29
-4.9480678e+29
-4.9456818e+29
-4.9524925e+29
-4.9547899e+29
-4.9659273e+29
-4.959025e+29
-4.9612931e+29
-4.9682009e+29
-4.9697026e+29
-4.962836e+29
-4.9647117e+29
-4.9715679e+29
-4.9516262e+29
-4.9498025e+29
-4.9564468e+29
-4.9582481e+29
-4.9784957e+29
-4.9765495e+29
-4.9840195e+29
-4.9860235e+29
-4.9801757e+29
-4.9727591e+29
-4.9750597e+29
-4.9824439e+29
-4.9954661e+29
-4.9875144e+29
-4.9897809e+29
-4.9977011e+29
-4.9994443e+29
-4.9914418e+29
-4.9935321e+29
-5.001569e+29
-4.9581749e+29
-4.9562462e+29
-4.9631268e+29
-4.9650865e+29
-4.9548054e+29
-4.9530706e+29
-4.9598397e+29
-4.9616692e+29
-4.9734122e+29
-4.9663976e+29
-4.9683101e+29
-4.9754169e+29
-4.9879258e+29
-4.9803793e+29
-4.9824735e+29
-4.9900357e+29
-4.7032683e+29
-4.6232143e+29
-4.7000316e+29
-4.618529e+29
-4.5057598e+29
-4.5052224e+29
-4.6179885e+29
-4.6228789e+29
-4.699788e+29
-4.7038326e+29
-4.867015e+29
-4.8653636e+29
-4.874879e+29
-4.8766955e+29
-4.8716577e+29
-4.8622605e+29
-4.8637461e+29
-4.8734803e+29
-4.8813906e+29
-4.8794455e+29
-4.8867534e+29
-4.8888527e+29
-4.8846922e+29
-4.8828943e+29
-4.890505e+29
-4.8923135e+29
-4.8611543e+29
-4.8602302e+29
-4.8686199e+29
-4.8704472e+29
-4.8592343e+29
-4.8575974e+29
-4.8649356e+29
-4.8670954e+29
-4.8737539e+29
-4.8713854e+29
-4.8775904e+29
-4.8802126e+29
-4.8779104e+29
-4.8757576e+29
-4.882559e+29
-4.8849938e+29
-4.8325287e+29
-4.8485409e+29
-4.8330108e+29
-4.8494878e+29
-4.7799082e+29
-4.809648e+29
-4.7781202e+29
-4.8086697e+29
-4.8079004e+29
-4.7762086e+29
-4.8078552e+29
-4.7769097e+29
-4.8499206e+29
-4.8324432e+29
-4.8318943e+29
-4.8502202e+29
-4.7778542e+29
-4.8103464e+29
-4.8132686e+29
-4.7817349e+29
-4.7760066e+29
-4.8081018e+29
-4.8090561e+29
-4.7761683e+29
-4.8512748e+29
-4.8331228e+29
-4.8340895e+29
-4.8523197e+29
-4.8540247e+29
-4.8356192e+29
-4.8377824e+29
-4.8557353e+29
-4.8993276e+29
-4.897507e+29
-4.9043896e+29
-4.9061964e+29
-4.8957459e+29
-4.8935443e+29
-4.9002856e+29
-4.9025705e+29
-4.9130486e+29
-4.9065692e+29
-4.9089242e+29
-4.9154409e+29
-4.9172946e+29
-4.910765e+29
-4.9125294e+29
-4.9190176e+29
-4.8915616e+29
-4.8889549e+29
-4.8953371e+29
-4.8981287e+29
-4.8896e+29
-4.8836484e+29
-4.8864475e+29
-4.8926716e+29
-4.9013421e+29
-4.8953395e+29
-4.8985952e+29
-4.9047858e+29
-4.907671e+29
-4.9013789e+29
-4.9042983e+29
-4.9106913e+29
-4.9138132e+29
-4.9073846e+29
-4.9109217e+29
-4.9174163e+29
-4.9169498e+29
-4.9138585e+29
-4.9203989e+29
-4.9235098e+29
-4.9336493e+29
-4.9268202e+29
-4.9299586e+29
-4.9367352e+29
-4.9271008e+29
-4.9202261e+29
-4.9238428e+29
-4.9306903e+29
-4.9433133e+29
-4.9366036e+29
-4.9383734e+29
-4.9450935e+29
-4.9259139e+29
-4.9193296e+29
-4.9217665e+29
-4.92835e+29
-4.9253183e+29
-4.9235965e+29
-4.9301874e+29
-4.9319127e+29
-4.9391087e+29
-4.9323322e+29
-4.9347774e+29
-4.9415131e+29
-4.7073365e+29
-4.6262392e+29
-4.6278921e+29
-4.7100375e+29
-4.7161669e+29
-4.6333182e+29
-4.6435012e+29
-4.7240446e+29
-4.5226458e+29
-4.5106984e+29
-4.4979504e+29
-4.4979156e+29
-4.5031087e+29
-4.5152553e+29
-4.9151793e+29
-4.9127876e+29
-4.9187583e+29
-4.921195e+29
-4.9109275e+29
-4.9085451e+29
-4.9149365e+29
-4.917059e+29
-4.9269962e+29
-4.9208355e+29
-4.922867e+29
-4.9289913e+29
-4.9307698e+29
-4.9245604e+29
-4.9271222e+29
-4.9334366e+29
-4.9066249e+29
-4.9044894e+29
-4.9110712e+29
-4.9131054e+29
-4.9075806e+29
-4.9007893e+29
-4.9026996e+29
-4.9093496e+29
-4.9233984e+29
-4.9171233e+29
-4.9190844e+29
-4.9252899e+29
-4.9202358e+29
-4.9137745e+29
-4.9154845e+29
-4.9218296e+29
-4.9331623e+29
-4.9265204e+29
-4.9281146e+29
-4.9347457e+29
-4.9464698e+29
-4.9396428e+29
-4.9412604e+29
-4.9481297e+29
-4.9495987e+29
-4.9427455e+29
-4.9446186e+29
-4.9514646e+29
-4.9315041e+29
-4.9296242e+29
-4.9362424e+29
-4.93809e+29
-4.9399109e+29
-4.9371261e+29
-4.9439341e+29
-4.9468028e+29
-4.9397711e+29
-4.933163e+29
-4.9352319e+29
-4.9418995e+29
-4.9532644e+29
-4.9463019e+29
-4.9485433e+29
-4.9556253e+29
-4.957915e+29
-4.9507066e+29
-4.9536711e+29
-4.9609337e+29
-4.902191e+29
-4.899827e+29
-4.9066123e+29
-4.9089226e+29
-4.8864837e+29
-4.8770019e+29
-4.8801386e+29
-4.889622e+29
-4.8923197e+29
-4.8830701e+29
-4.8858004e+29
-4.8947072e+29
-4.89738e+29
-4.89441e+29
-4.9017811e+29
-4.9044467e+29
-4.8746917e+29
-4.8721417e+29
-4.8817078e+29
-4.8843619e+29
-4.8779374e+29
-4.8683625e+29
-4.8702031e+29
-4.879941e+29
-4.8880624e+29
-4.8860463e+29
-4.8937292e+29
-4.8957008e+29
-4.8922937e+29
-4.8898621e+29
-4.897509e+29
-4.8997712e+29
-4.8343972e+29
-4.7981858e+29
-4.8297911e+29
-4.8035818e+29
-4.7911898e+29
-4.7950149e+29
-4.8224986e+29
-4.8258322e+29
-4.8654917e+29
-4.8470463e+29
-4.8500584e+29
-4.8686792e+29
-4.8543051e+29
-4.8721068e+29
-4.8751478e+29
-4.8582399e+29
-4.7844129e+29
-4.8171019e+29
-4.8199369e+29
-4.7879356e+29
-4.7827139e+29
-4.8141705e+29
-4.8160949e+29
-4.7829314e+29
-4.857061e+29
-4.8390071e+29
-4.8411038e+29
-4.8589498e+29
-4.8448099e+29
-4.8606447e+29
-4.8423728e+29
-4.8632407e+29
-4.503504e+29
-4.5019645e+29
-4.5009844e+29
-4.5015074e+29
-4.5090166e+29
-4.5207666e+29
-4.5186728e+29
-4.5066081e+29
-4.5294952e+29
-4.5366676e+29
-4.5346951e+29
-4.5278292e+29
-4.5246188e+29
-4.5312413e+29
-4.5319511e+29
-4.538607e+29
-4.6474915e+29
-4.6463135e+29
-4.649554e+29
-4.658487e+29
-4.7272019e+29
-4.7275557e+29
-4.7316234e+29
-4.739538e+29
-4.8896068e+29
-4.8878393e+29
-4.8966061e+29
-4.8988156e+29
-4.9064535e+29
-4.9040533e+29
-4.9109795e+29
-4.9137555e+29
-4.8605122e+29
-4.8773124e+29
-4.8788993e+29
-4.8616793e+29
-4.8362698e+29
-4.8043126e+29
-4.8356615e+29
-4.8031624e+29
-4.8376737e+29
-4.8030506e+29
-4.836123e+29
-4.8050962e+29
-4.8619306e+29
-4.8802768e+29
-4.8821265e+29
-4.863282e+29
-4.8072962e+29
-4.8102555e+29
-4.8396046e+29
-4.8432373e+29
-4.8651109e+29
-3.8841912e+29
-3.9240332e+29
-3.8957443e+29
-4.0335833e+29
-4.0648441e+29
-4.2131337e+29
-4.1801027e+29
-4.1547033e+29
-4.187578e+29
-4.105808e+29
-4.2590981e+29
-3.963589e+29
-3.9909777e+29
-4.1352248e+29
-4.2914422e+29
-4.4588031e+29
-4.4626018e+29
-4.4980881e+29
-4.4937679e+29
-4.0427732e+29
-4.0172743e+29
-4.1645769e+29
-4.3377625e+29
-4.5348519e+29
-4.3700493e+29
-4.193608e+29
-4.5689785e+29
-4.6051365e+29
-4.861058e+29
-4.8929946e+29
-4.9034593e+29
-4.960956e+29
-4.7701424e+29
-4.7189633e+29
-4.7971892e+29
-5.020043e+29
-4.9904969e+29
-5.0955851e+29
-5.1278464e+29
-4.7456492e+29
-4.96245e+29
-4.9315059e+29
-5.0315437e+29
-5.0655539e+29
-5.2108355e+29
-5.0100509e+29
-4.8053869e+29
-5.2690452e+29
-5.0632968e+29
-4.8536511e+29
-4.6455369e+29
-4.6024082e+29
-4.6601466e+29
-4.9926234e+29
-4.8707178e+29
-4.8950817e+29
-5.0175866e+29
-5.1752858e+29
-5.1483908e+29
-4.6170541e+29
-4.8226734e+29
-4.9409927e+29
-4.9691068e+29
-4.8484925e+29
-5.1228562e+29
-5.094508e+29
-5.3234867e+29
-5.1140241e+29
-4.895378e+29
-4.6775586e+29
-5.3747081e+29
-5.1622431e+29
-4.9402177e+29
-4.7188136e+29
-4.6972721e+29
-4.8161313e+29
-4.7946175e+29
-4.6784096e+29
-4.6595211e+29
-4.9667899e+29
-5.0874473e+29
-5.110948e+29
-4.9883788e+29
-5.2254983e+29
-5.2363234e+29
-5.2040734e+29
-5.2159323e+29
-5.2662426e+29
-5.255024e+29
-5.2077371e+29
-4.9828844e+29
-4.7563424e+29
-5.2499184e+29
-5.0214811e+29
-4.7934941e+29
-5.0582206e+29
-4.827259e+29
-5.2447409e+29
-5.2939704e+29
-5.3104183e+29
-5.2611217e+29
-5.3406913e+29
-5.3255032e+29
-5.2760253e+29
-5.2911499e+29
-5.3064141e+29
-5.3304415e+29
-5.3244874e+29
-5.3009146e+29
-5.3721937e+29
-5.3473333e+29
-5.3536171e+29
-5.311399e+29
-5.3357415e+29
-5.3167976e+29
-5.1317533e+29
-5.1647164e+29
-5.2393205e+29
-5.1927299e+29
-5.2063973e+29
-5.2534507e+29
-5.2181326e+29
-5.2661132e+29
-5.280236e+29
-5.2318521e+29
-5.0657235e+29
-5.1003595e+29
-4.5654978e+29
-4.5862812e+29
-4.5711142e+29
-4.3290385e+29
-4.3417035e+29
-4.3650064e+29
-4.352649e+29
-4.0927606e+29
-4.3110329e+29
-4.3249402e+29
-4.3126519e+29
-4.2996179e+29
-3.8124286e+29
-4.0602734e+29
-4.5313878e+29
-4.5385004e+29
-4.5528131e+29
-4.5473577e+29
-4.017687e+29
-4.1782308e+29
-4.2021283e+29
-4.4009995e+29
-4.3073589e+29
-4.4145345e+29
-4.4306242e+29
-4.3196342e+29
-4.3367265e+29
-4.5088925e+29
-4.4999581e+29
-4.5387998e+29
-4.5474036e+29
-4.5425999e+29
-4.5331087e+29
-4.5714248e+29
-4.5803175e+29
-4.5242993e+29
-4.5160581e+29
-4.5542993e+29
-4.5631623e+29
-4.6081679e+29
-4.5829756e+29
-4.5915612e+29
-4.6165106e+29
-4.6245052e+29
-4.5997075e+29
-4.6086306e+29
-4.6329836e+29
-4.2127458e+29
-4.2264285e+29
-4.2126644e+29
-4.2266736e+29
-4.350731e+29
-4.354075e+29
-4.362096e+29
-4.3762668e+29
-4.4390279e+29
-4.5000044e+29
-4.5007081e+29
-4.4374578e+29
-4.4461982e+29
-4.4394543e+29
-4.5032245e+29
-4.5091522e+29
-4.5140966e+29
-4.4508739e+29
-4.4544782e+29
-4.5194324e+29
-4.5271119e+29
-4.4615815e+29
-4.4733503e+29
-4.5373528e+29
-4.4805511e+29
-4.4791436e+29
-4.5430061e+29
-4.546713e+29
-4.5523512e+29
-4.4854545e+29
-4.4950609e+29
-4.5606351e+29
-4.3874775e+29
-4.3967411e+29
-4.5069166e+29
-4.5017255e+29
-4.5675717e+29
-4.5747129e+29
-4.5831254e+29
-4.5149798e+29
-4.5268314e+29
-4.5925118e+29
-4.4091855e+29
-4.4261949e+29
-4.2687977e+29
-4.244982e+29
-4.2438194e+29
-4.2677838e+29
-4.6696318e+29
-4.6514995e+29
-4.6550929e+29
-4.6743803e+29
-4.6248026e+29
-4.5820994e+29
-4.5830757e+29
-4.6272245e+29
-4.590918e+29
-4.5855057e+29
-4.6301129e+29
-4.6351194e+29
-4.6792292e+29
-4.6587633e+29
-4.6638433e+29
-4.6848231e+29
-4.7135828e+29
-4.7261431e+29
-4.7196673e+29
-4.6197504e+29
-4.6099383e+29
-4.6542621e+29
-4.6630716e+29
-4.6018399e+29
-4.595817e+29
-4.6399937e+29
-4.6464513e+29
-4.6752792e+29
-4.6689394e+29
-4.6902108e+29
-4.6964e+29
-4.7031559e+29
-4.6825474e+29
-4.6906105e+29
-4.7103127e+29
-4.7158184e+29
-4.696734e+29
-4.7021835e+29
-4.7218008e+29
-4.6691473e+29
-4.6255364e+29
-4.6297709e+29
-4.6741394e+29
-4.6435982e+29
-4.6354429e+29
-4.6794129e+29
-4.6871097e+29
-4.7283125e+29
-4.707604e+29
-4.7153625e+29
-4.7360056e+29
-4.7311615e+29
-4.7379422e+29
-4.753121e+29
-4.7451179e+29
-4.7590644e+29
-4.7672439e+29
-4.7867109e+29
-4.7940386e+29
-4.8057262e+29
-4.7742481e+29
-4.7603498e+29
-4.7681732e+29
-4.7815555e+29
-4.7828927e+29
-4.7755617e+29
-4.7884112e+29
-4.7961121e+29
-4.8135171e+29
-4.8011408e+29
-4.8090233e+29
-4.8216852e+29
-4.6948885e+29
-4.6512742e+29
-4.6593029e+29
-4.7031506e+29
-4.6768708e+29
-4.6681384e+29
-4.7112047e+29
-4.7191667e+29
-4.7309173e+29
-4.7227209e+29
-4.7431465e+29
-4.751303e+29
-4.7591207e+29
-4.7387239e+29
-4.7464595e+29
-4.7664675e+29
-4.8835769e+29
-4.8797253e+29
-4.8864289e+29
-4.8902895e+29
-4.8762626e+29
-4.8722482e+29
-4.8789924e+29
-4.8829547e+29
-4.8929083e+29
-4.8968861e+29
-4.6198709e+29
-4.5410572e+29
-4.5467758e+29
-4.6246259e+29
-4.6951555e+29
-4.6996816e+29
-4.7298913e+29
-4.7263517e+29
-4.6928403e+29
-4.7242723e+29
-4.6919446e+29
-4.7231222e+29
-4.7656975e+29
-4.7476687e+29
-4.7487214e+29
-4.7671995e+29
-4.7508682e+29
-4.769308e+29
-4.7539301e+29
-4.7718675e+29
-4.6202439e+29
-4.5435394e+29
-4.540299e+29
-4.6184479e+29
-4.6907947e+29
-4.7216245e+29
-4.6916527e+29
-4.7224204e+29
-4.6934931e+29
-4.7219821e+29
-4.7220759e+29
-4.6924891e+29
-4.7607049e+29
-4.744639e+29
-4.7449023e+29
-4.7620068e+29
-4.7465609e+29
-4.7631321e+29
-4.7456975e+29
-4.7644443e+29
-4.7754166e+29
-4.7738836e+29
-4.7828188e+29
-4.7846964e+29
-4.7789922e+29
-4.7706951e+29
-4.7724513e+29
-4.7811895e+29
-4.7887791e+29
-4.7863889e+29
-4.7932606e+29
-4.7958545e+29
-4.7926505e+29
-4.7906393e+29
-4.7978946e+29
-4.8000652e+29
-4.7962554e+29
-4.794253e+29
-4.80176e+29
-4.8037852e+29
-4.7860356e+29
-4.7765518e+29
-4.7783427e+29
-4.7880358e+29
-4.7827622e+29
-4.780417e+29
-4.7899759e+29
-4.7920744e+29
-4.7999082e+29
-4.7980671e+29
-4.8054752e+29
-4.8070475e+29
-4.430747e+29
-4.4321196e+29
-4.8166161e+29
-4.8111103e+29
-4.8142004e+29
-4.8198436e+29
-4.8055716e+29
-4.7995874e+29
-4.8023392e+29
-4.8085108e+29
-4.8067723e+29
-4.8045382e+29
-4.8108373e+29
-4.8131742e+29
-4.8224424e+29
-4.8166391e+29
-4.8190597e+29
-4.8249748e+29
-4.8134745e+29
-4.8121098e+29
-4.8183986e+29
-4.8195791e+29
-4.8104825e+29
-4.8085037e+29
-4.8149458e+29
-4.8168563e+29
-4.8268371e+29
-4.8208619e+29
-4.8227557e+29
-4.8286795e+29
-4.8300153e+29
-4.8241798e+29
-4.8252287e+29
-4.8309382e+29
-4.8306631e+29
-4.8280229e+29
-4.833798e+29
-4.8364883e+29
-4.8274771e+29
-4.8219112e+29
-4.8253011e+29
-4.8309843e+29
-4.8387637e+29
-4.8329607e+29
-4.8365467e+29
-4.8423834e+29
-4.8452397e+29
-4.8393846e+29
-4.84215e+29
-4.8479931e+29
-4.8499292e+29
-4.8440938e+29
-4.8459806e+29
-4.8518136e+29
-4.8384256e+29
-4.8325553e+29
-4.8344192e+29
-4.8402775e+29
-4.8365534e+29
-4.8356743e+29
-4.8415356e+29
-4.8424383e+29
-4.8532143e+29
-4.8472652e+29
-4.8483038e+29
-4.8544323e+29
-4.8312615e+29
-4.8256194e+29
-4.8268757e+29
-4.8324368e+29
-4.8200795e+29
-4.8141785e+29
-4.8156978e+29
-4.8214074e+29
-4.8343311e+29
-4.8287836e+29
-4.8319342e+29
-4.8375084e+29
-4.8207569e+29
-4.8177487e+29
-4.8233783e+29
-4.8264485e+29
-4.8552933e+29
-4.8489418e+29
-4.8504041e+29
-4.8569036e+29
-4.8428902e+29
-4.8368651e+29
-4.8381218e+29
-4.8442024e+29
-4.843265e+29
-4.8400082e+29
-4.846167e+29
-4.849429e+29
-4.8590808e+29
-4.8524348e+29
-4.8557432e+29
-4.8623905e+29
-4.83359e+29
-4.8305649e+29
-4.8366508e+29
-4.8397705e+29
-4.8274664e+29