/*--------------------------------*- C++ -*----------------------------------*\
  =========                 |
  \\      /  F ield         | OpenFOAM: The Open Source CFD Toolbox
   \\    /   O peration     | Website:  https://openfoam.org
    \\  /    A nd           | Version:  7
     \\/     M anipulation  |
\*---------------------------------------------------------------------------*/
FoamFile
{
    version     2.0;
    format      ascii;
    class       volScalarField;
    location    "2000";
    object      pMean;
}
// * * * * * * * * * * * * * * * * * * * * * * * * * * * * * * * * * * * * * //

dimensions      [0 2 -2 0 0 0 0];

internalField   nonuniform List<scalar> 
33899
(
-6.3915516e+26
-6.3772431e+26
-5.7890247e+26
-6.3897769e+26
-6.3885456e+26
-6.3097439e+26
-6.3374431e+26
-6.2418364e+26
-6.2305331e+26
-5.779695e+26
-5.7817521e+26
-5.9666999e+26
-5.804769e+26
-5.9002149e+26
-5.6315479e+26
-5.9087633e+26
-5.8129065e+26
-5.530335e+26
-5.5279989e+26
-5.6240881e+26
-6.3849825e+26
-6.3883275e+26
-6.3343184e+26
-6.3338395e+26
-6.2389039e+26
-6.2389936e+26
-6.2529372e+26
-6.1839679e+26
-6.3188028e+26
-6.2017531e+26
-6.0615425e+26
-5.2707601e+26
-5.768908e+26
-5.775274e+26
-5.7965505e+26
-5.8920643e+26
-5.9000136e+26
-5.8020413e+26
-5.6210747e+26
-5.8020496e+26
-5.8989232e+26
-5.903408e+26
-5.8096375e+26
-5.6235791e+26
-5.5243585e+26
-5.5276269e+26
-5.9630985e+26
-5.9641728e+26
-5.9681221e+26
-6.0120755e+26
-5.9712372e+26
-6.014164e+26
-5.9727651e+26
-5.7353292e+26
-5.8754908e+26
-5.8652378e+26
-5.8307066e+26
-5.8285072e+26
-5.8953657e+26
-5.8864277e+26
-5.9195747e+26
-5.9251082e+26
-5.7429501e+26
-5.656784e+26
-5.6498749e+26
-5.8951708e+26
-5.8944032e+26
-5.9258309e+26
-5.925971e+26
-5.8736214e+26
-5.8731608e+26
-5.8347055e+26
-5.8313593e+26
-5.3947291e+26
-5.392881e+26
-5.7381208e+26
-5.643347e+26
-5.6532148e+26
-5.8368143e+26
-5.374304e+26
-6.3792536e+26
-6.3702407e+26
-6.3330414e+26
-6.335911e+26
-6.2391203e+26
-6.2402471e+26
-6.2756383e+26
-6.3175489e+26
-6.1991704e+26
-6.3076882e+26
-6.1965446e+26
-6.0614075e+26
-6.0620528e+26
-6.2677379e+26
-6.1767758e+26
-6.0308102e+26
-6.3221094e+26
-6.1965111e+26
-5.8686284e+26
-5.2356355e+26
-5.2657963e+26
-5.5060584e+26
-5.6001842e+26
-5.6147493e+26
-5.5184742e+26
-5.7913269e+26
-5.7939813e+26
-5.7954718e+26
-5.8900491e+26
-5.8949285e+26
-5.7988377e+26
-5.966475e+26
-5.8173185e+26
-5.8148138e+26
-5.8560223e+26
-5.8612148e+26
-5.7230323e+26
-5.8769408e+26
-5.8818126e+26
-5.9111703e+26
-5.9156661e+26
-5.884918e+26
-5.9170564e+26
-5.8829059e+26
-5.9161044e+26
-5.8633056e+26
-5.8187453e+26
-5.728573e+26
-5.821215e+26
-5.8616223e+26
-5.6406759e+26
-5.645778e+26
-5.7322004e+26
-5.8659072e+26
-5.8602166e+26
-5.8219164e+26
-5.8254614e+26
-5.8860146e+26
-5.8816508e+26
-5.9161506e+26
-5.9203345e+26
-5.8886109e+26
-5.8883881e+26
-5.9205819e+26
-5.9196899e+26
-5.7353876e+26
-5.8682109e+26
-5.8683041e+26
-5.8282245e+26
-5.8327626e+26
-5.6538207e+26
-5.6426585e+26
-5.3918434e+26
-5.3927406e+26
-5.9642019e+26
-5.9665289e+26
-6.0102447e+26
-5.9661423e+26
-5.9656618e+26
-6.0111234e+26
-6.0115036e+26
-5.9809186e+26
-5.9976269e+26
-5.9970177e+26
-5.9813007e+26
-6.0431647e+26
-6.0266851e+26
-6.0269493e+26
-6.0435487e+26
-5.9820466e+26
-5.9984996e+26
-5.9988884e+26
-5.9831861e+26
-6.0274891e+26
-6.0272404e+26
-6.0434005e+26
-6.0443968e+26
-5.9832315e+26
-5.9834812e+26
-5.9992171e+26
-5.9990225e+26
-6.02773e+26
-5.7928888e+26
-5.8133174e+26
-5.7989064e+26
-5.7922136e+26
-5.8599076e+26
-5.8593273e+26
-5.8699681e+26
-5.8700263e+26
-5.8551738e+26
-5.8519581e+26
-5.8648132e+26
-5.868398e+26
-5.8490246e+26
-5.8483108e+26
-5.8503646e+26
-5.8549819e+26
-5.8520572e+26
-5.8514906e+26
-5.862903e+26
-5.8627404e+26
-5.898969e+26
-5.8988866e+26
-5.9161349e+26
-5.9164492e+26
-5.8995588e+26
-5.896543e+26
-5.9130586e+26
-5.9153741e+26
-5.9368931e+26
-5.9383139e+26
-5.9531115e+26
-5.9523221e+26
-5.9547424e+26
-5.9383329e+26
-5.9389203e+26
-5.9537929e+26
-5.7977098e+26
-5.8003558e+26
-5.8139417e+26
-5.8014271e+26
-5.6311e+26
-5.6241008e+26
-5.902938e+26
-5.9045858e+26
-5.9191216e+26
-5.9188205e+26
-5.9023441e+26
-5.9013441e+26
-5.9173527e+26
-5.9167441e+26
-5.9409525e+26
-5.9553042e+26
-5.9544951e+26
-5.9413416e+26
-5.9417653e+26
-5.9428131e+26
-5.9559688e+26
-5.9560794e+26
-5.8713184e+26
-5.8628047e+26
-5.8641615e+26
-5.8736823e+26
-5.8642549e+26
-5.8581777e+26
-5.8701012e+26
-5.8728671e+26
-5.8509029e+26
-5.851814e+26
-5.8609604e+26
-5.8609884e+26
-5.8482313e+26
-5.8499491e+26
-5.8570651e+26
-5.8619945e+26
-5.3480964e+26
-5.3481267e+26
-5.622515e+26
-5.7993841e+26
-5.8034246e+26
-5.8027731e+26
-5.8113832e+26
-5.8672183e+26
-5.8570784e+26
-5.8608763e+26
-5.8728107e+26
-5.8625353e+26
-5.3691131e+26
-5.4254489e+26
-5.4226291e+26
-5.4329277e+26
-5.4387866e+26
-5.4934079e+26
-5.4164474e+26
-5.4180012e+26
-5.4957112e+26
-5.6250037e+26
-6.3194051e+26
-6.327336e+26
-6.2316175e+26
-6.2221186e+26
-6.2685802e+26
-6.2603399e+26
-6.3168635e+26
-6.1972696e+26
-6.3211958e+26
-6.1984879e+26
-6.0558024e+26
-6.0576922e+26
-6.0620346e+26
-6.2947951e+26
-6.2862467e+26
-6.4002916e+26
-6.3249031e+26
-6.1943787e+26
-6.0270347e+26
-6.3134603e+26
-6.1903606e+26
-6.0257252e+26
-5.8624691e+26
-5.8617315e+26
-6.2693908e+26
-6.1711833e+26
-6.0385169e+26
-5.8205834e+26
-6.3224567e+26
-6.1957667e+26
-6.4968935e+26
-5.3767287e+26
-5.2308441e+26
-5.3775769e+26
-5.257531e+26
-5.4971602e+26
-5.5909954e+26
-5.7871764e+26
-5.3788459e+26
-5.7055155e+26
-5.6200711e+26
-5.617004e+26
-5.7103284e+26
-5.7218458e+26
-5.7227702e+26
-5.6418385e+26
-5.6278024e+26
-5.3869609e+26
-5.8485019e+26
-5.8062902e+26
-5.8078774e+26
-5.8554111e+26
-5.8137029e+26
-5.8106387e+26
-5.8591877e+26
-5.8604297e+26
-5.8513526e+26
-5.8107826e+26
-5.8106086e+26
-5.8553222e+26
-5.8721963e+26
-5.8768107e+26
-5.9113083e+26
-5.8788995e+26
-5.878629e+26
-5.9110889e+26
-5.8117429e+26
-5.8169014e+26
-5.8574177e+26
-5.8583255e+26
-5.9759303e+26
-5.9739422e+26
-5.9919957e+26
-5.7800504e+26
-5.8313865e+26
-5.8328076e+26
-5.8427126e+26
-5.8436361e+26
-5.7754037e+26
-5.8310593e+26
-5.8299979e+26
-5.8354837e+26
-5.8441547e+26
-5.8481186e+26
-5.8408421e+26
-5.8550594e+26
-5.8590284e+26
-5.8591545e+26
-5.8463526e+26
-5.8482053e+26
-5.8583156e+26
-5.7949814e+26
-5.7828724e+26
-5.9026568e+26
-5.8850613e+26
-5.8871418e+26
-5.9041339e+26
-5.8876688e+26
-5.8881429e+26
-5.905722e+26
-5.9047688e+26
-5.9282857e+26
-5.9273488e+26
-5.9434551e+26
-5.9433887e+26
-5.9441556e+26
-5.9291138e+26
-5.9287143e+26
-5.9445828e+26
-5.9034626e+26
-5.8867918e+26
-5.9041011e+26
-5.8890141e+26
-5.9439918e+26
-5.9281593e+26
-5.9285336e+26
-5.943757e+26
-5.8906006e+26
-5.8900834e+26
-5.905983e+26
-5.9073817e+26
-5.9320931e+26
-5.9309944e+26
-5.9456617e+26
-5.9475851e+26
-5.8555843e+26
-5.849171e+26
-5.8596364e+26
-5.8516872e+26
-5.7802977e+26
-5.8462693e+26
-5.8330795e+26
-5.8350923e+26
-5.8486013e+26
-5.7825735e+26
-5.7832495e+26
-5.7955133e+26
-5.8471682e+26
-5.8392908e+26
-5.8354223e+26
-5.8454596e+26
-5.8503407e+26
-5.8497739e+26
-5.8629107e+26
-5.8617518e+26
-5.610906e+26
-5.6175362e+26
-5.784208e+26
-5.7908307e+26
-5.7983659e+26
-5.7942107e+26
-5.8541329e+26
-5.8523005e+26
-5.8641124e+26
-5.8638924e+26
-5.8534284e+26
-5.8476028e+26
-5.8601631e+26
-5.8630734e+26
-5.8442777e+26
-5.8386544e+26
-5.8379026e+26
-5.8507694e+26
-5.850723e+26
-5.8427566e+26
-5.8410091e+26
-5.8506648e+26
-5.8942814e+26
-5.89402e+26
-5.9105179e+26
-5.9109448e+26
-5.8926793e+26
-5.8907672e+26
-5.9081807e+26
-5.9092575e+26
-5.9331287e+26
-5.9323199e+26
-5.947994e+26
-5.9481754e+26
-5.9490055e+26
-5.9341472e+26
-5.9348887e+26
-5.9504592e+26
-5.8964092e+26
-5.8965151e+26
-5.9120078e+26
-5.9122651e+26
-5.8957337e+26
-5.8942144e+26
-5.9101966e+26
-5.9109446e+26
-5.9499415e+26
-5.9352618e+26
-5.9356028e+26
-5.9496613e+26
-5.9506906e+26
-5.9369852e+26
-5.9370758e+26
-5.9518301e+26
-5.7933971e+26
-5.7940014e+26
-5.7986532e+26
-5.8135764e+26
-5.8545056e+26
-5.8547075e+26
-5.8666359e+26
-5.8649387e+26
-5.8568343e+26
-5.8521741e+26
-5.8639289e+26
-5.8661355e+26
-5.8506991e+26
-5.8447803e+26
-5.8445575e+26
-5.8554564e+26
-5.8548477e+26
-5.8512375e+26
-5.84574e+26
-5.8514798e+26
-5.6276485e+26
-5.6134736e+26
-5.3461415e+26
-5.3467568e+26
-5.9924608e+26
-5.9761116e+26
-5.9764113e+26
-5.9927668e+26
-5.9786586e+26
-5.9774326e+26
-5.9939992e+26
-5.9954671e+26
-6.0237964e+26
-6.0224128e+26
-5.9803767e+26
-5.9793082e+26
-5.9973845e+26
-5.9963939e+26
-5.9781286e+26
-5.9783688e+26
-5.9950134e+26
-5.9955376e+26
-6.0239268e+26
-6.0240193e+26
-6.0413371e+26
-6.0423092e+26
-6.0251576e+26
-6.0260323e+26
-6.0434002e+26
-5.9811176e+26
-6.003276e+26
-6.0035203e+26
-5.9816451e+26
-6.0470136e+26
-6.0267625e+26
-6.0280816e+26
-6.0475543e+26
-5.9824292e+26
-6.0042681e+26
-6.0046223e+26
-5.9830513e+26
-6.0280934e+26
-6.0273724e+26
-6.0471559e+26
-6.0476814e+26
-5.9826003e+26
-5.9828274e+26
-6.0043351e+26
-6.0271187e+26
-5.8192274e+26
-5.8629808e+26
-5.8225298e+26
-5.8518852e+26
-5.838784e+26
-5.8252788e+26
-5.858052e+26
-5.847222e+26
-5.8212797e+26
-5.8225303e+26
-5.886527e+26
-5.8849932e+26
-5.8870553e+26
-5.8884307e+26
-5.8834461e+26
-5.8813004e+26
-5.8863058e+26
-5.8867271e+26
-5.8894417e+26
-5.8871046e+26
-5.8893225e+26
-5.8938686e+26
-5.8921868e+26
-5.8920573e+26
-5.9015103e+26
-5.9021995e+26
-5.9072006e+26
-5.905979e+26
-5.9223616e+26
-5.9238118e+26
-5.9059247e+26
-5.9058471e+26
-5.9213335e+26
-5.921456e+26
-5.9406279e+26
-5.9409437e+26
-5.9593473e+26
-5.9588747e+26
-5.9609129e+26
-5.9417984e+26
-5.9429111e+26
-5.9602497e+26
-5.8235722e+26
-5.8594882e+26
-5.8516334e+26
-5.8220852e+26
-5.824541e+26
-5.855189e+26
-5.8680865e+26
-5.824664e+26
-5.8381742e+26
-5.8255414e+26
-5.5931425e+26
-5.5800051e+26
-5.9117487e+26
-5.9103502e+26
-5.9262664e+26
-5.927017e+26
-5.9087991e+26
-5.9085339e+26
-5.9254967e+26
-5.9255618e+26
-5.9445385e+26
-5.9610481e+26
-5.9604107e+26
-5.9444052e+26
-5.945058e+26
-5.9447004e+26
-5.960911e+26
-5.9616757e+26
-5.8907091e+26
-5.8904071e+26
-5.890416e+26
-5.8919261e+26
-5.8908139e+26
-5.8866772e+26
-5.8897885e+26
-5.8910673e+26
-5.8924707e+26
-5.8894936e+26
-5.9013002e+26
-5.9036733e+26
-5.8901092e+26
-5.8878605e+26
-5.8986697e+26
-5.9042304e+26
-5.586179e+26
-5.5739966e+26
-5.5738538e+26
-5.579308e+26
-5.8392699e+26
-5.8322888e+26
-5.8584936e+26
-5.8682844e+26
-5.8269757e+26
-5.8309072e+26
-5.8313034e+26
-5.8583535e+26
-5.8675912e+26
-5.832443e+26
-5.8890466e+26
-5.8897333e+26
-5.9045796e+26
-5.8946614e+26
-5.8976845e+26
-5.908846e+26
-5.8976516e+26
-5.3637223e+26
-5.4263126e+26
-5.4122463e+26
-5.4163905e+26
-5.4306634e+26
-5.4876988e+26
-5.4120778e+26
-5.4136173e+26
-5.4906811e+26
-5.3942824e+26
-5.3907004e+26
-5.365717e+26
-5.3847579e+26
-5.3722275e+26
-5.3895e+26
-5.6174501e+26
-5.6187378e+26
-5.5786762e+26
-6.2113521e+26
-6.1978432e+26
-6.2506096e+26
-6.2376711e+26
-6.3043848e+26
-6.1833941e+26
-6.3117743e+26
-6.1895799e+26
-6.0502641e+26
-6.0426772e+26
-6.0557658e+26
-6.2828308e+26
-6.282967e+26
-6.3964149e+26
-6.39768e+26
-6.0485531e+26
-6.2800993e+26
-6.2718901e+26
-6.3873759e+26
-6.393659e+26
-6.3180963e+26
-6.1929983e+26
-6.022099e+26
-6.3253969e+26
-6.1936872e+26
-6.0235158e+26
-5.8497795e+26
-5.852853e+26
-5.847564e+26
-6.04713e+26
-6.1638195e+26
-6.1710227e+26
-6.0563102e+26
-6.3758421e+26
-6.3702928e+26
-6.3246352e+26
-6.1969758e+26
-6.0324086e+26
-5.812138e+26
-6.3140675e+26
-6.1927037e+26
-6.0319714e+26
-5.8139853e+26
-6.1712653e+26
-6.0401233e+26
-5.827355e+26
-6.1960052e+26
-6.4898554e+26
-6.4948563e+26
-6.5412046e+26
-6.5926073e+26
-6.5409381e+26
-6.4842078e+26
-6.4870108e+26
-5.6182037e+26
-5.6256002e+26
-5.6302264e+26
-5.6191578e+26
-5.3755351e+26
-5.3741844e+26
-5.2255875e+26
-5.6208912e+26
-5.6241635e+26
-5.6191814e+26
-5.6171193e+26
-5.2486188e+26
-5.3716198e+26
-5.6917384e+26
-5.7006292e+26
-5.5951751e+26
-5.6132705e+26
-5.7904782e+26
-5.803864e+26
-5.7965458e+26
-5.8443367e+26
-5.8471415e+26
-5.3377596e+26
-5.5991605e+26
-5.5937724e+26
-5.774777e+26
-5.7632119e+26
-5.7683278e+26
-5.7625361e+26
-5.7713762e+26
-5.7729725e+26
-5.7636568e+26
-5.7776013e+26
-5.7731215e+26
-5.7771904e+26
-5.7826929e+26
-5.7775651e+26
-5.7770797e+26
-5.7783738e+26
-5.7806525e+26
-5.7952215e+26
-5.6137471e+26
-5.5996806e+26
-5.3430081e+26
-5.8311312e+26
-5.8269735e+26
-5.8319026e+26
-5.8385885e+26
-5.8294653e+26
-5.8207758e+26
-5.8252397e+26
-5.836618e+26
-5.8253392e+26
-5.8249819e+26
-5.8386075e+26
-5.8383126e+26
-5.8426856e+26
-5.8353993e+26
-5.8364069e+26
-5.8448156e+26
-5.877055e+26
-5.8768594e+26
-5.8286885e+26
-5.8302257e+26
-5.8440537e+26
-5.8404071e+26
-5.8286242e+26
-5.8263883e+26
-5.8384394e+26
-5.8431307e+26
-5.8415869e+26
-5.8377708e+26
-5.8469033e+26
-5.8495316e+26
-5.8505301e+26
-5.8430408e+26
-5.8417356e+26
-5.8493423e+26
-5.845238e+26
-5.8398276e+26
-5.8432678e+26
-5.8508106e+26
-5.8367288e+26
-5.8251574e+26
-5.8250363e+26
-5.8394153e+26
-5.824579e+26
-5.825744e+26
-5.8363609e+26
-5.8370962e+26
-5.8534235e+26
-5.8416382e+26
-5.8433539e+26
-5.8540609e+26
-5.8762989e+26
-5.8803579e+26
-5.8823852e+26
-5.8818233e+26
-5.89842e+26
-5.89898e+26
-5.9238778e+26
-5.9246053e+26
-5.9382918e+26
-5.8980144e+26
-5.8815114e+26
-5.8841331e+26
-5.8997897e+26
-5.8848465e+26
-5.8854909e+26
-5.900871e+26
-5.901582e+26
-5.9403707e+26
-5.9254592e+26
-5.9266857e+26
-5.9424636e+26
-5.8390196e+26
-5.8264181e+26
-5.8296242e+26
-5.8422704e+26
-5.8293146e+26
-5.832739e+26
-5.840385e+26
-5.8386348e+26
-5.8457405e+26
-5.8429181e+26
-5.8535848e+26
-5.8562377e+26
-5.8568482e+26
-5.8439919e+26
-5.8442866e+26
-5.8558195e+26
-5.9745758e+26
-5.9725926e+26
-5.9967341e+26
-5.804244e+26
-5.829496e+26
-5.8385028e+26
-5.8036178e+26
-5.8716519e+26
-5.8696944e+26
-5.8830293e+26
-5.8854557e+26
-5.8030864e+26
-5.84429e+26
-5.8314601e+26
-5.8037072e+26
-5.8723046e+26
-5.8686056e+26
-5.8781255e+26
-5.8863777e+26
-5.8741927e+26
-5.8694687e+26
-5.8722311e+26
-5.8740394e+26
-5.8748903e+26
-5.8733747e+26
-5.8740531e+26
-5.8751197e+26
-5.8184741e+26
-5.8056178e+26
-5.9097002e+26
-5.8920886e+26
-5.8931039e+26
-5.9102848e+26
-5.8947433e+26
-5.8945076e+26
-5.9116591e+26
-5.9117442e+26
-5.9301647e+26
-5.9298305e+26
-5.948108e+26
-5.9483866e+26
-5.9494064e+26
-5.9311535e+26
-5.9314035e+26
-5.9495025e+26
-5.9120858e+26
-5.8960317e+26
-5.9120513e+26
-5.8967122e+26
-5.9490417e+26
-5.932837e+26
-5.9328233e+26
-5.9491472e+26
-5.8969223e+26
-5.8960821e+26
-5.9130493e+26
-5.9142958e+26
-5.9341288e+26
-5.9330973e+26
-5.9506085e+26
-5.9524859e+26
-5.8732934e+26
-5.8722131e+26
-5.8755846e+26
-5.8759515e+26
-5.8316453e+26
-5.8382768e+26
-5.8039134e+26
-5.8067004e+26
-5.8843785e+26
-5.8721496e+26
-5.8754147e+26
-5.888202e+26
-5.8089494e+26
-5.8349446e+26
-5.8472299e+26
-5.8075152e+26
-5.8052453e+26
-5.8173353e+26
-5.8832175e+26
-5.8736344e+26
-5.8754834e+26
-5.8887135e+26
-5.8776749e+26
-5.8759508e+26
-5.877936e+26
-5.8788553e+26
-5.5681413e+26
-5.580482e+26
-5.8098229e+26
-5.8492514e+26
-5.8395944e+26
-5.8110914e+26
-5.8138462e+26
-5.8415895e+26
-5.8526192e+26
-5.8147078e+26
-5.8210686e+26
-5.818011e+26
-5.8815682e+26
-5.8782387e+26
-5.8818463e+26
-5.8828813e+26
-5.8797869e+26
-5.8747984e+26
-5.8791936e+26
-5.8805646e+26
-5.8841845e+26
-5.8741767e+26
-5.8782635e+26
-5.8926769e+26
-5.8882515e+26
-5.8783987e+26
-5.8819141e+26
-5.8946122e+26
-5.9010338e+26
-5.9010315e+26
-5.9167146e+26
-5.9171754e+26
-5.8988473e+26
-5.8989413e+26
-5.9151571e+26
-5.9148822e+26
-5.9347989e+26
-5.9348263e+26
-5.9534279e+26
-5.9536153e+26
-5.9549176e+26
-5.9364458e+26
-5.9369925e+26
-5.9556015e+26
-5.9032557e+26
-5.9036583e+26
-5.919857e+26
-5.9203907e+26
-5.9016998e+26
-5.9019497e+26
-5.9184677e+26
-5.9185723e+26
-5.955636e+26
-5.9385324e+26
-5.9385377e+26
-5.9554459e+26
-5.9562456e+26
-5.9394844e+26
-5.9401566e+26
-5.9575662e+26
-5.8164982e+26
-5.854083e+26
-5.8469921e+26
-5.8185173e+26
-5.822847e+26
-5.8523617e+26
-5.8641159e+26
-5.819682e+26
-5.8215759e+26
-5.8383887e+26
-5.8827351e+26
-5.8813526e+26
-5.8849261e+26
-5.8849134e+26
-5.8840231e+26
-5.8794712e+26
-5.8830721e+26
-5.8841026e+26
-5.8898466e+26
-5.881974e+26
-5.8865864e+26
-5.8986654e+26
-5.8918912e+26
-5.8882021e+26
-5.8883471e+26
-5.8954128e+26
-5.589045e+26
-5.569774e+26
-5.5731564e+26
-5.5613627e+26
-5.5628882e+26
-5.5815651e+26
-5.9971776e+26
-5.9755799e+26
-5.9760761e+26
-5.9977516e+26
-5.9778938e+26
-5.9774198e+26
-5.9988807e+26
-5.9996025e+26
-6.0229949e+26
-6.0220899e+26
-5.9800307e+26
-5.9790513e+26
-6.0020559e+26
-6.0007881e+26
-5.9779667e+26
-5.978331e+26
-5.9997449e+26
-5.9997648e+26
-6.0231456e+26
-6.0235881e+26
-6.0453117e+26
-6.0459404e+26
-6.0243398e+26
-6.0256271e+26
-6.0470711e+26
-5.9907499e+26
-5.9827264e+26
-5.9836157e+26
-5.9918583e+26
-6.0121828e+26
-6.00366e+26
-6.004532e+26
-6.0128002e+26
-6.0124508e+26
-6.0047617e+26
-6.0051777e+26
-6.0128225e+26
-5.9845103e+26
-5.9840611e+26
-5.9920755e+26
-5.9926305e+26
-6.0550582e+26
-6.0457573e+26
-6.0459521e+26
-6.0552034e+26
-6.0333953e+26
-6.0247578e+26
-6.0254872e+26
-6.0338459e+26
-6.0259304e+26
-6.025634e+26
-6.0339018e+26
-6.0340006e+26
-6.0549081e+26
-6.0454847e+26
-6.0456719e+26
-6.055127e+26
-5.9851494e+26
-5.9847522e+26
-5.9927411e+26
-5.993074e+26
-6.0131694e+26
-6.0053118e+26
-6.0055779e+26
-6.0133629e+26
-6.0126357e+26
-6.0052884e+26
-6.0052731e+26
-6.0127303e+26
-5.9851499e+26
-5.9850862e+26
-5.9927056e+26
-5.9925888e+26
-6.0253246e+26
-6.0253195e+26
-6.0336656e+26
-6.0335487e+26
-6.0337976e+26
-6.02571e+26
-6.0259013e+26
-6.0339651e+26
-6.0551402e+26
-6.0459019e+26
-6.0461205e+26
-6.0552405e+26
-6.0548938e+26
-6.0456312e+26
-6.0456558e+26
-6.054956e+26
-5.9849365e+26
-5.9847779e+26
-5.9924956e+26
-5.9924823e+26
-5.9849058e+26
-5.9848315e+26
-5.9926991e+26
-5.9927818e+26
-6.0129379e+26
-6.0051971e+26
-6.005249e+26
-6.0129681e+26
-6.0334841e+26
-6.0253203e+26
-6.0254432e+26
-6.0335573e+26
-5.8502347e+26
-5.8863694e+26
-5.8481432e+26
-5.8766189e+26
-5.7837267e+26
-5.7672551e+26
-5.8745451e+26
-5.8832366e+26
-5.8477721e+26
-5.8488373e+26
-5.9010047e+26
-5.9012959e+26
-5.8999728e+26
-5.9009574e+26
-5.8982835e+26
-5.899537e+26
-5.8994405e+26
-5.8999077e+26
-5.9060145e+26
-5.9051297e+26
-5.908496e+26
-5.9087042e+26
-5.9068477e+26
-5.9060881e+26
-5.9090095e+26
-5.9094534e+26
-5.8994389e+26
-5.8998236e+26
-5.8987443e+26
-5.8992403e+26
-5.9000166e+26
-5.8981209e+26
-5.8975434e+26
-5.899345e+26
-5.9052862e+26
-5.9042234e+26
-5.9063391e+26
-5.9075019e+26
-5.9051837e+26
-5.9046063e+26
-5.9076811e+26
-5.9079402e+26
-5.9212515e+26
-5.9016567e+26
-5.9218652e+26
-5.9053868e+26
-5.9035669e+26
-5.9147301e+26
-5.9068838e+26
-5.9178164e+26
-5.9191073e+26
-5.9075125e+26
-5.9205897e+26
-5.910485e+26
-5.9074374e+26
-5.9249245e+26
-5.9225014e+26
-5.9081938e+26
-5.9100811e+26
-5.9249763e+26
-5.9214446e+26
-5.9080941e+26
-5.9106476e+26
-5.9241523e+26
-5.9233629e+26
-5.9107208e+26
-5.908883e+26
-5.9287613e+26
-5.9253728e+26
-5.9072595e+26
-5.9095592e+26
-5.9288474e+26
-5.9262391e+26
-5.9089288e+26
-5.9182149e+26
-5.9178004e+26
-5.9224756e+26
-5.9227512e+26
-5.917391e+26
-5.9169188e+26
-5.9215598e+26
-5.9220165e+26
-5.937067e+26
-5.9315039e+26
-5.9320241e+26
-5.9375439e+26
-5.9378976e+26
-5.932493e+26
-5.9329204e+26
-5.9380883e+26
-5.9165235e+26
-5.9162149e+26
-5.9209557e+26
-5.9210938e+26
-5.919548e+26
-5.915061e+26
-5.9159073e+26
-5.9205896e+26
-5.9348859e+26
-5.9294663e+26
-5.9302405e+26
-5.9359433e+26
-5.9363824e+26
-5.9307073e+26
-5.9310037e+26
-5.9366264e+26
-5.9520317e+26
-5.9457383e+26
-5.9467427e+26
-5.9530675e+26
-5.9476223e+26
-5.9472834e+26
-5.9536146e+26
-5.9539191e+26
-5.9715624e+26
-5.9645375e+26
-5.9649623e+26
-5.9720144e+26
-5.9701522e+26
-5.9629897e+26
-5.9639657e+26
-5.9711064e+26
-5.9723182e+26
-5.9657464e+26
-5.9657393e+26
-5.9724534e+26
-5.9542067e+26
-5.9480183e+26
-5.9484875e+26
-5.9546753e+26
-5.9487535e+26
-5.9487092e+26
-5.9547843e+26
-5.9547133e+26
-5.9723202e+26
-5.9653508e+26
-5.9657663e+26
-5.9726472e+26
-5.8471923e+26
-5.8837398e+26
-5.8770325e+26
-5.8459226e+26
-5.8477476e+26
-5.8794647e+26
-5.8915104e+26
-5.8518648e+26
-5.7776068e+26
-5.7651245e+26
-5.7460599e+26
-5.7315109e+26
-5.7298406e+26
-5.7415614e+26
-5.9226141e+26
-5.9225268e+26
-5.9255581e+26
-5.9253791e+26
-5.9218768e+26
-5.921015e+26
-5.9251554e+26
-5.9256122e+26
-5.9394795e+26
-5.935131e+26
-5.9354577e+26
-5.9397947e+26
-5.9393777e+26
-5.934797e+26
-5.9348754e+26
-5.9395741e+26
-5.9204165e+26
-5.9198622e+26
-5.9242528e+26
-5.9245652e+26
-5.9228653e+26
-5.9186573e+26
-5.9194855e+26
-5.9237787e+26
-5.9391126e+26
-5.9346451e+26
-5.9349411e+26
-5.9393155e+26
-5.9386079e+26
-5.9337306e+26
-5.9344587e+26
-5.9389674e+26
-5.9547423e+26
-5.9486736e+26
-5.9489939e+26
-5.9548456e+26
-5.9723996e+26
-5.9654952e+26
-5.9655678e+26
-5.9723693e+26
-5.9720157e+26
-5.9654868e+26
-5.9655863e+26
-5.9722477e+26
-5.9492859e+26
-5.9490985e+26
-5.9549903e+26
-5.9549716e+26
-5.9496623e+26
-5.9493056e+26
-5.9554761e+26
-5.9558045e+26
-5.9550742e+26
-5.9492208e+26
-5.9496391e+26
-5.9554882e+26
-5.9725082e+26
-5.9655658e+26
-5.9660979e+26
-5.9729886e+26
-5.9731471e+26
-5.9661448e+26
-5.9666618e+26
-5.9736811e+26
-5.9105528e+26
-5.9107899e+26
-5.9130578e+26
-5.912696e+26
-5.903804e+26
-5.9059795e+26
-5.9072228e+26
-5.9059875e+26
-5.905408e+26
-5.906664e+26
-5.9052099e+26
-5.9043215e+26
-5.9113049e+26
-5.9098701e+26
-5.9129078e+26
-5.9134473e+26
-5.9047057e+26
-5.9042631e+26
-5.9028778e+26
-5.9040116e+26
-5.9003379e+26
-5.9017397e+26
-5.9026968e+26
-5.9022926e+26
-5.9083593e+26
-5.9069117e+26
-5.910174e+26
-5.9108687e+26
-5.9096451e+26
-5.9087549e+26
-5.9114578e+26
-5.9120331e+26
-5.9232279e+26
-5.9135591e+26
-5.9291089e+26
-5.9107812e+26
-5.9089441e+26
-5.9101161e+26
-5.9256794e+26
-5.9262792e+26
-5.9148789e+26
-5.9343692e+26
-5.9342685e+26
-5.9159133e+26
-5.9346463e+26
-5.9156622e+26
-5.9128111e+26
-5.9326695e+26
-5.9065529e+26
-5.9256982e+26
-5.9259465e+26
-5.9089963e+26
-5.9047852e+26
-5.9215658e+26
-5.9241069e+26
-5.9037069e+26
-5.9094443e+26
-5.9285495e+26
-5.931278e+26
-5.9117997e+26
-5.9324275e+26
-5.9122667e+26
-5.9328917e+26
-5.9133164e+26
-5.7532467e+26
-5.7658993e+26
-5.7595679e+26
-5.7470923e+26
-5.7499416e+26
-5.7571188e+26
-5.7548233e+26
-5.745957e+26
-5.757494e+26
-5.7537401e+26
-5.7513043e+26
-5.7554606e+26
-5.7432174e+26
-5.7350515e+26
-5.7783952e+26
-5.7697504e+26
-5.8913312e+26
-5.8830682e+26
-5.8833406e+26
-5.8924993e+26
-5.8522732e+26
-5.8523826e+26
-5.8524415e+26
-5.8557798e+26
-5.9055871e+26
-5.9056675e+26
-5.9050201e+26
-5.9059398e+26
-5.911739e+26
-5.9115725e+26
-5.9136436e+26
-5.9140272e+26
-5.9356745e+26
-5.912724e+26
-5.9119181e+26
-5.9345912e+26
-5.9314563e+26
-5.9114013e+26
-5.9267553e+26
-5.916278e+26
-5.9330516e+26
-5.9168078e+26
-5.9322609e+26
-5.9170781e+26
-5.9369376e+26
-5.9157083e+26
-5.9160018e+26
-5.9381503e+26
-5.9182176e+26
-5.9178401e+26
-5.9346744e+26
-5.9371745e+26
-5.9391115e+26
-5.3562388e+26
-5.4079787e+26
-5.4046515e+26
-5.418249e+26
-5.4238137e+26
-5.4094403e+26
-5.4072889e+26
-5.4809414e+26
-5.4847684e+26
-5.35945e+26
-5.3789263e+26
-5.3800938e+26
-5.3848799e+26
-5.3647451e+26
-5.3836788e+26
-5.6623883e+26
-5.6087209e+26
-5.6114241e+26
-5.6668332e+26
-5.3851563e+26
-5.3810594e+26
-5.367265e+26
-5.4014554e+26
-5.5770082e+26
-5.4092318e+26
-5.373594e+26
-5.5808104e+26
-5.5905598e+26
-6.1817702e+26
-6.2236048e+26
-6.1619027e+26
-6.1734198e+26
-6.0328333e+26
-6.0222969e+26
-6.0394015e+26
-6.2667482e+26
-6.2650455e+26
-6.3797348e+26
-6.3818908e+26
-6.0287696e+26
-6.2563219e+26
-6.2510642e+26
-6.3647642e+26
-6.3720043e+26
-6.3048893e+26
-6.1783675e+26
-6.0105318e+26
-6.3106732e+26
-6.1841327e+26
-6.015528e+26
-5.8461642e+26
-5.8423229e+26
-5.8429649e+26
-6.1609733e+26
-6.0473481e+26
-6.0457692e+26
-6.1616674e+26
-6.3667793e+26
-6.366996e+26
-5.8381166e+26
-6.0338714e+26
-6.1499702e+26
-6.1574275e+26
-6.0451844e+26
-6.3632456e+26
-6.3564391e+26
-6.3179156e+26
-6.1966043e+26
-6.0276179e+26
-5.8050054e+26
-6.3252466e+26
-6.1960654e+26
-6.0292489e+26
-5.8095028e+26
-5.8384421e+26
-5.9461917e+26
-5.9399948e+26
-5.8342644e+26
-5.8329707e+26
-6.072721e+26
-6.2175156e+26
-6.2198811e+26
-6.0775288e+26
-6.3987017e+26
-6.3976386e+26
-6.3932921e+26
-6.3966483e+26
-6.4686563e+26
-6.4675825e+26
-6.1969516e+26
-6.0362439e+26
-5.8179386e+26
-6.1927603e+26
-6.0352247e+26
-5.8198752e+26
-6.0401381e+26
-5.8319783e+26
-6.5296983e+26
-6.5833933e+26
-6.5872244e+26
-6.5350132e+26
-6.5923576e+26
-6.5904525e+26
-6.5386898e+26
-6.5417119e+26
-6.5690268e+26
-6.5978703e+26
-6.5960487e+26
-6.5685909e+26
-6.6556303e+26
-6.6315402e+26
-6.6331895e+26
-6.5689551e+26
-6.5980571e+26
-6.568795e+26
-6.4728826e+26
-6.4788428e+26
-6.5811537e+26
-6.5289242e+26
-6.5296732e+26
-6.5828143e+26
-6.5285322e+26
-6.5827993e+26
-6.5822994e+26
-6.5301717e+26
-6.4591127e+26
-6.4675879e+26
-5.7442114e+26
-5.7468779e+26
-5.7668883e+26
-5.6083019e+26
-5.6091477e+26
-5.6181927e+26
-5.6209306e+26
-5.3703585e+26
-5.6109344e+26
-5.6077561e+26
-5.6070888e+26
-5.6115349e+26
-5.2228217e+26
-5.3657738e+26
-5.7380614e+26
-5.7630007e+26
-5.7640995e+26
-5.7393015e+26
-5.333128e+26
-5.5728322e+26
-5.5922916e+26
-5.7515696e+26
-5.7445215e+26
-5.7580488e+26
-5.762678e+26
-5.7522928e+26
-5.7724077e+26
-5.8045255e+26
-5.8000895e+26
-5.8173537e+26
-5.8186413e+26
-5.8189181e+26
-5.819024e+26
-5.8294212e+26
-5.8264717e+26
-5.8144069e+26
-5.8084988e+26
-5.8208105e+26
-5.8268088e+26
-5.8316636e+26
-5.82079e+26
-5.8247397e+26
-5.8349863e+26
-5.8359596e+26
-5.8266678e+26
-5.8253787e+26
-5.8342864e+26
-5.5545983e+26
-5.545037e+26
-5.5625413e+26
-5.5524006e+26
-5.8008469e+26
-5.7887904e+26
-5.7894657e+26
-5.8016961e+26
-5.8296218e+26
-5.7894361e+26
-5.7937816e+26
-5.8191951e+26
-5.8281676e+26
-5.8167613e+26
-5.7938954e+26
-5.7958309e+26
-5.7969103e+26
-5.8294563e+26
-5.822083e+26
-5.7990151e+26
-5.7992052e+26
-5.8236616e+26
-5.8359746e+26
-5.7988898e+26
-5.8257215e+26
-5.8359108e+26
-5.7962422e+26
-5.7976538e+26
-5.7986657e+26
-5.8266064e+26
-5.8358772e+26
-5.7991319e+26
-5.8052199e+26
-5.8006442e+26
-5.8294115e+26
-5.8358634e+26
-5.7987835e+26
-5.80301e+26
-5.8061864e+26
-5.8343028e+26
-5.8456626e+26
-5.8040314e+26
-5.8028953e+26
-5.8186356e+26
-5.5759042e+26
-5.5564853e+26
-5.5487266e+26
-5.5679154e+26
-5.8490583e+26
-5.8495758e+26
-5.853481e+26
-5.85281e+26
-5.8662652e+26
-5.8541905e+26
-5.8574859e+26
-5.8715662e+26
-5.8591905e+26
-5.8582018e+26
-5.8744796e+26
-5.8750628e+26
-5.855194e+26
-5.8564966e+26
-5.8581045e+26
-5.8578986e+26
-5.8797535e+26
-5.8824889e+26
-5.8805976e+26
-5.8633885e+26
-5.8624514e+26
-5.8797273e+26
-5.8797063e+26
-5.8627158e+26
-5.8596102e+26
-5.8740301e+26
-5.8787403e+26
-5.8620482e+26
-5.8591931e+26
-5.8598829e+26
-5.8615026e+26
-5.8620295e+26
-5.8632242e+26
-5.8636453e+26
-5.8633932e+26
-5.8620991e+26
-5.8618501e+26
-5.8661964e+26
-5.8662329e+26
-5.8755415e+26
-5.8636624e+26
-5.8643503e+26
-5.879816e+26
-5.8646566e+26
-5.862544e+26
-5.8762088e+26
-5.8788986e+26
-5.8677144e+26
-5.8662961e+26
-5.8678006e+26
-5.8690391e+26
-5.8851049e+26
-5.8855427e+26
-5.8876049e+26
-5.8866259e+26
-5.9034058e+26
-5.9049651e+26
-5.9268898e+26
-5.9262346e+26
-5.9439245e+26
-5.9046544e+26
-5.8871858e+26
-5.8889204e+26
-5.9060516e+26
-5.8909087e+26
-5.8899904e+26
-5.9081823e+26
-5.9086885e+26
-5.9447447e+26
-5.9280053e+26
-5.9286106e+26
-5.9467037e+26
-5.8786324e+26
-5.8675939e+26
-5.8711408e+26
-5.8855379e+26
-5.8713462e+26
-5.8698935e+26
-5.8819159e+26
-5.8840865e+26
-5.8714795e+26
-5.8683891e+26
-5.8687281e+26
-5.8706815e+26
-5.8709816e+26
-5.870273e+26
-5.8708873e+26
-5.8716876e+26
-5.9768102e+26
-5.9758661e+26
-5.9838798e+26
-5.9848216e+26
-5.9752929e+26
-5.9739942e+26
-5.9822242e+26
-5.983445e+26
-5.9968181e+26
-5.9976818e+26
-5.8277327e+26
-5.8546653e+26
-5.8633136e+26
-5.8292938e+26
-5.8887098e+26
-5.8862083e+26
-5.9048555e+26
-5.9070588e+26
-5.8864448e+26
-5.9060057e+26
-5.8864804e+26
-5.906766e+26
-5.8960989e+26
-5.915879e+26
-5.9134741e+26
-5.8961354e+26
-5.913497e+26
-5.8956889e+26
-5.9135516e+26
-5.8946252e+26
-5.8315659e+26
-5.8661871e+26
-5.8554922e+26
-5.8285268e+26
-5.8890724e+26
-5.9038952e+26
-5.8895219e+26
-5.905968e+26
-5.8849588e+26
-5.8984066e+26
-5.8994589e+26
-5.8889187e+26
-5.890494e+26
-5.9113454e+26
-5.9086864e+26
-5.8927931e+26
-5.9126458e+26
-5.8931962e+26
-5.9128451e+26
-5.8933312e+26
-5.8860366e+26
-5.8859821e+26
-5.884822e+26
-5.8853174e+26
-5.8822643e+26
-5.8839243e+26
-5.8856996e+26
-5.8842582e+26
-5.8895762e+26
-5.8884418e+26
-5.8927935e+26
-5.8934829e+26
-5.890327e+26
-5.8899811e+26
-5.894188e+26
-5.8945092e+26
-5.8909958e+26
-5.8908279e+26
-5.8946898e+26
-5.8952306e+26
-5.8858559e+26
-5.8870098e+26
-5.886843e+26
-5.8862999e+26
-5.8863297e+26
-5.8868581e+26
-5.8864542e+26
-5.886014e+26
-5.8915621e+26
-5.8914788e+26
-5.8956629e+26
-5.8956193e+26
-5.7640275e+26
-5.7485148e+26
-5.9230909e+26
-5.9182479e+26
-5.9188739e+26
-5.9242711e+26
-5.9078345e+26
-5.9029572e+26
-5.9036694e+26
-5.9086963e+26
-5.9046828e+26
-5.9043943e+26
-5.9095733e+26
-5.9097706e+26
-5.9252572e+26
-5.9196448e+26
-5.9197863e+26
-5.9254615e+26
-5.9055993e+26
-5.905682e+26
-5.9106514e+26
-5.9103179e+26
-5.9055842e+26
-5.905524e+26
-5.9104324e+26
-5.9104927e+26
-5.9258305e+26
-5.920113e+26
-5.9202538e+26
-5.9259797e+26
-5.9260491e+26
-5.9205315e+26
-5.9202487e+26
-5.9255876e+26
-5.9364312e+26
-5.9361667e+26
-5.9425186e+26
-5.9427579e+26
-5.9406445e+26
-5.9344761e+26
-5.935443e+26
-5.9416646e+26
-5.9586897e+26
-5.9515898e+26
-5.9525529e+26
-5.9596399e+26
-5.9603748e+26
-5.953373e+26
-5.9537034e+26
-5.9606641e+26
-5.9605443e+26
-5.9539585e+26
-5.9541228e+26
-5.9609782e+26
-5.9430306e+26
-5.9367456e+26
-5.9369064e+26
-5.9432153e+26
-5.9365949e+26
-5.9369232e+26
-5.9431071e+26
-5.9425747e+26
-5.9608057e+26
-5.9539851e+26
-5.9534599e+26
-5.9603224e+26
-5.9249142e+26
-5.9197867e+26
-5.9197849e+26
-5.9248776e+26
-5.9100107e+26
-5.906089e+26
-5.9063345e+26
-5.9100045e+26
-5.9243941e+26
-5.9193187e+26
-5.9203358e+26
-5.9253702e+26
-5.9072428e+26
-5.9063205e+26
-5.90987e+26
-5.9105997e+26
-5.9594687e+26
-5.9525567e+26
-5.9524706e+26
-5.9596159e+26
-5.942377e+26
-5.9361782e+26
-5.9361645e+26
-5.9423179e+26
-5.9367749e+26
-5.9357508e+26
-5.9422382e+26
-5.9428617e+26
-5.9597783e+26
-5.9524584e+26
-5.9533256e+26
-5.9606221e+26
-5.9082457e+26
-5.9076581e+26
-5.9123231e+26