/*--------------------------------*- C++ -*----------------------------------*\
  =========                 |
  \\      /  F ield         | OpenFOAM: The Open Source CFD Toolbox
   \\    /   O peration     | Website:  https://openfoam.org
    \\  /    A nd           | Version:  7
     \\/     M anipulation  |
\*---------------------------------------------------------------------------*/
FoamFile
{
    version     2.0;
    format      ascii;
    class       volVectorField;
    location    "2000";
    object      UMean;
}
// * * * * * * * * * * * * * * * * * * * * * * * * * * * * * * * * * * * * * //

dimensions      [0 1 -1 0 0 0 0];

internalField   nonuniform List<vector> 
33899
(
(-4.4066987e+12 -2.3043926e+10 -9.7983684e+10)
(-4.4278965e+12 -9.3136262e+09 -1.300132e+11)
(-4.105656e+12 3.0107662e+10 -2.1700558e+11)
(-4.3928113e+12 4.1603416e+08 -9.7556649e+10)
(-4.3751294e+12 -1.1830752e+10 -9.6328794e+10)
(-4.183867e+12 -1.2413536e+10 -1.0905506e+11)
(-4.1674028e+12 -4.3809347e+10 -6.0941727e+10)
(-4.406185e+12 -6.0641872e+09 -2.5002884e+08)
(-4.4770203e+12 -3.4502772e+09 -1.6979634e+10)
(-4.0896028e+12 2.8532418e+10 -2.1912264e+11)
(-4.0782567e+12 -1.748615e+10 -2.2546353e+11)
(-3.9206904e+12 -3.9707018e+09 -2.3311799e+11)
(-3.651243e+12 1.9226065e+10 -3.3144137e+11)
(-4.034222e+12 7.8702473e+09 -2.1951007e+11)
(-4.4975044e+12 5.0077933e+10 -1.3419202e+11)
(-4.0798028e+12 -3.0611825e+10 -2.1050617e+11)
(-3.6737223e+12 -1.2951379e+10 -3.3708793e+11)
(-3.944662e+12 6.2815151e+10 -4.2683792e+11)
(-3.9503437e+12 -2.2927739e+10 -4.3278517e+11)
(-4.4837518e+12 -4.1293439e+10 -1.4344019e+11)
(-4.3456254e+12 -2.2687998e+10 -1.0781571e+11)
(-4.3350915e+12 -2.185949e+10 -9.6448e+10)
(-4.1392537e+12 -6.2110795e+09 -5.6240846e+10)
(-4.1424271e+12 1.5851293e+10 -6.5869972e+10)
(-4.3979625e+12 -4.5040982e+09 -1.788562e+08)
(-4.3889759e+12 -5.3773267e+09 -3.2245307e+09)
(-3.9219755e+12 -2.8660968e+10 9.266309e+09)
(-4.3045121e+12 -7.113452e+09 7.3585481e+09)
(-3.8424489e+12 -8.6100493e+10 2.5545703e+10)
(-4.1925243e+12 -1.9132664e+10 1.2850955e+10)
(-4.4476579e+12 7.9680347e+09 6.7913237e+10)
(-4.2896465e+12 2.1728873e+10 -4.0993806e+11)
(-3.9815555e+12 2.386426e+10 -2.175532e+11)
(-4.0776597e+12 -2.1037169e+10 -2.2116826e+11)
(-3.6530982e+12 2.4839835e+10 -3.3741876e+11)
(-4.0283083e+12 9.6141705e+09 -2.1495779e+11)
(-4.058311e+12 -2.7961066e+10 -2.1806258e+11)
(-3.6576115e+12 -1.4403423e+10 -3.5068505e+11)
(-4.489519e+12 3.4043036e+10 -1.3296586e+11)
(-3.6626227e+12 1.8404476e+10 -3.4619875e+11)
(-4.0340063e+12 2.5182504e+09 -2.3406872e+11)
(-4.060829e+12 -3.590292e+10 -2.0736299e+11)
(-3.6555537e+12 -2.2071311e+10 -3.4500243e+11)
(-4.4999695e+12 -4.4759831e+10 -1.3320701e+11)
(-3.9425202e+12 5.5167564e+10 -4.2175248e+11)
(-3.9537458e+12 -2.1763514e+10 -4.2682934e+11)
(-3.911631e+12 8.4059147e+09 -2.4576492e+11)
(-3.9308868e+12 -2.6813524e+10 -2.2587837e+11)
(-3.5768254e+12 -1.8169131e+10 -1.9543826e+11)
(-3.5854353e+12 -1.3499873e+10 -1.6222705e+11)
(-3.5923268e+12 2.1577393e+08 -2.1807686e+11)
(-3.5992254e+12 -2.1311418e+09 -1.8314868e+11)
(-3.606879e+12 -1.8256307e+10 -2.2003168e+11)
(-4.038302e+12 2.4221984e+10 -1.5412997e+11)
(-3.7773968e+12 -5.7506774e+09 -2.69256e+11)
(-3.7981422e+12 -9.1778465e+09 -2.0480349e+11)
(-3.5503835e+12 -7.1457051e+09 -3.8400682e+11)
(-3.5097928e+12 -4.2173166e+09 -4.1247643e+11)
(-3.6271351e+12 -6.016849e+09 -3.0675291e+11)
(-3.6282412e+12 -1.7813666e+10 -2.6245729e+11)
(-3.6552162e+12 -1.7175618e+10 -2.1146301e+11)
(-3.6722308e+12 1.7266842e+08 -2.3647454e+11)
(-4.0555765e+12 3.1947084e+09 -1.6801949e+11)
(-3.4838918e+12 2.7123249e+10 -2.3204391e+11)
(-3.47394e+12 2.1042798e+10 -2.3741834e+11)
(-3.6438041e+12 -1.0404804e+10 -2.7690203e+11)
(-3.6487691e+12 -1.835093e+10 -2.8398937e+11)
(-3.7021559e+12 -2.1996273e+10 -2.2328797e+11)
(-3.6936438e+12 -1.3381834e+10 -2.1882887e+11)
(-3.8178695e+12 -2.071779e+10 -2.1384058e+11)
(-3.8207033e+12 -2.2317358e+10 -2.2667804e+11)
(-3.5665442e+12 -7.7543513e+09 -3.9421406e+11)
(-3.573212e+12 -2.1571132e+10 -3.9864673e+11)
(-3.7332141e+12 1.8881263e+10 -4.1641191e+11)
(-3.7603918e+12 3.3033191e+10 -4.1672664e+11)
(-4.0025328e+12 2.2401209e+10 -1.6385397e+11)
(-3.4550703e+12 3.848344e+10 -2.16809e+11)
(-3.4481972e+12 7.1867568e+09 -2.1036331e+11)
(-3.5473575e+12 -1.8406193e+10 -4.1055686e+11)
(-4.3818201e+12 9.6874274e+09 3.6047338e+11)
(-4.3331794e+12 -2.6974795e+10 -1.0594591e+11)
(-4.3304908e+12 -2.1805797e+10 -1.0616375e+11)
(-4.115677e+12 -2.1729353e+10 -6.0054635e+10)
(-4.0910345e+12 -2.2480648e+10 -5.0338915e+10)
(-4.3497491e+12 -9.7570006e+09 -1.3349529e+10)
(-4.353786e+12 -1.3252175e+10 -1.9735162e+09)
(-4.608451e+12 -1.7230981e+10 -2.0198182e+10)
(-3.7781739e+12 -3.1204909e+09 5.062547e+10)
(-4.1913491e+12 -4.8987941e+09 1.1265475e+10)
(-3.7917684e+12 5.6757509e+10 3.7775646e+10)
(-4.1790809e+12 -5.7863589e+09 1.3124651e+10)
(-4.3630015e+12 -1.4075756e+10 7.2562422e+10)
(-4.3629399e+12 -4.9701211e+09 6.4191491e+10)
(-3.2761101e+12 -9.6393483e+08 9.4772857e+10)
(-3.991497e+12 -1.328537e+10 4.34971e+10)
(-4.3227723e+12 3.9389001e+08 5.3207088e+10)
(-3.271199e+12 -6.3822667e+10 6.714397e+10)
(-3.8581793e+12 -1.8486118e+10 5.0403251e+10)
(-4.3394811e+12 5.4993639e+09 7.3856826e+10)
(-4.0681902e+12 1.8790654e+10 1.1715053e+11)
(-4.2641443e+12 2.0664917e+10 -4.0226638e+11)
(-3.9280941e+12 4.6416536e+10 -4.1378252e+11)
(-4.4266107e+12 1.6177723e+10 -1.4524013e+11)
(-4.477325e+12 -5.8463082e+10 -1.3775568e+11)
(-3.9444682e+12 -2.8853372e+10 -4.1786324e+11)
(-3.5982105e+12 1.8394296e+10 -3.3967323e+11)
(-3.5855333e+12 -1.0885871e+10 -3.6487037e+11)
(-3.6845082e+12 1.8027337e+10 -3.3636685e+11)
(-4.0482696e+12 4.1083208e+09 -2.1990385e+11)
(-4.0524399e+12 -3.6107483e+10 -2.0355496e+11)
(-3.6615793e+12 -1.5352737e+10 -3.4566369e+11)
(-3.5699178e+12 4.528213e+09 -2.1434109e+11)
(-3.5441388e+12 -4.0026167e+09 -3.938561e+11)
(-3.5315926e+12 -6.8409038e+09 -3.9390837e+11)
(-3.7650666e+12 -1.0141751e+10 -2.2091385e+11)
(-3.7775723e+12 -6.3738404e+09 -2.2923566e+11)
(-4.0295832e+12 1.7440312e+10 -1.5656635e+11)
(-3.6174641e+12 -1.2365604e+10 -2.5483073e+11)
(-3.6200416e+12 -4.3580888e+09 -2.7261707e+11)
(-3.6356709e+12 -1.3025786e+10 -2.1757751e+11)
(-3.6476926e+12 3.4175405e+09 -2.2642341e+11)
(-3.6383968e+12 -2.3295402e+10 -2.7948281e+11)
(-3.7020842e+12 -2.5663043e+10 -2.1437204e+11)
(-3.6258675e+12 -1.4666003e+09 -2.7186142e+11)
(-3.6503333e+12 -1.181842e+09 -2.2552815e+11)
(-3.8050895e+12 -2.7191824e+10 -2.2067862e+11)
(-3.5435446e+12 -1.4276373e+10 -4.0126527e+11)
(-4.0545649e+12 -1.5207334e+10 -1.6906744e+11)
(-3.5469122e+12 -2.9349371e+09 -3.9962618e+11)
(-3.775977e+12 -1.429531e+10 -2.3891728e+11)
(-3.4820293e+12 1.0658156e+10 -2.4428961e+11)
(-3.4865228e+12 2.2567759e+10 -2.3305541e+11)
(-4.0569366e+12 1.0297339e+10 -1.6344628e+11)
(-3.8121418e+12 -1.2117519e+10 -2.319845e+11)
(-3.8131112e+12 -2.1105765e+10 -2.2119767e+11)
(-3.5673495e+12 -1.9665921e+10 -4.0123258e+11)
(-3.5595157e+12 -5.1822178e+09 -4.1050539e+11)
(-3.6394098e+12 -6.1767042e+09 -2.8905594e+11)
(-3.6470132e+12 -2.076365e+10 -2.7181668e+11)
(-3.6660047e+12 -1.7126504e+10 -2.2502196e+11)
(-3.6694447e+12 1.8393913e+09 -2.3426332e+11)
(-3.638005e+12 -1.1692827e+10 -2.6515138e+11)
(-3.6458867e+12 -2.7603977e+10 -2.7051133e+11)
(-3.6992337e+12 -2.6236821e+10 -2.0769682e+11)
(-3.6874157e+12 -1.332873e+10 -2.054547e+11)
(-4.0368642e+12 -2.1850992e+10 -1.542713e+11)
(-3.799226e+12 -2.3966008e+10 -2.1576605e+11)
(-3.8142812e+12 -3.3956502e+10 -2.1473485e+11)
(-3.5558767e+12 -1.7141214e+10 -3.9695948e+11)
(-3.5377921e+12 -1.1542181e+10 -4.1004492e+11)
(-3.4827469e+12 2.7313868e+10 -2.3411765e+11)
(-3.4805917e+12 4.2840992e+10 -2.3786689e+11)
(-3.7252081e+12 1.4334058e+10 -4.1246599e+11)
(-3.7402716e+12 4.9588941e+10 -4.1602452e+11)
(-3.5829814e+12 -9.7942968e+09 -2.0866129e+11)
(-3.5855153e+12 7.6958042e+09 -2.1730898e+11)
(-3.5829058e+12 8.6331271e+09 -1.8773699e+11)
(-3.5965941e+12 -8.3079717e+09 -1.9526188e+11)
(-3.6049892e+12 -1.6618452e+10 -1.9942632e+11)
(-3.6031673e+12 -8.9684791e+09 -1.6732863e+11)
(-3.5943887e+12 -9.4616911e+09 -1.6412232e+11)
(-3.2171431e+12 -3.1049217e+09 -1.7277607e+11)
(-3.2151325e+12 -1.0097434e+09 -1.6868274e+11)
(-3.2244061e+12 2.8224002e+09 -1.6428122e+11)
(-3.2234393e+12 4.8026384e+09 -1.6791954e+11)
(-3.1720169e+12 2.0554772e+09 -1.5194249e+11)
(-3.1562336e+12 1.6595974e+09 -1.6235108e+11)
(-3.1547319e+12 2.741625e+09 -1.6518148e+11)
(-3.1856022e+12 -3.886541e+08 -1.4418606e+11)
(-3.2547954e+12 -1.3442752e+10 -1.8928432e+11)
(-3.247719e+12 -8.7966494e+09 -1.8386016e+11)
(-3.2567055e+12 5.9535125e+09 -1.7560064e+11)
(-3.2537966e+12 9.0332861e+09 -1.8997949e+11)
(-3.184728e+12 5.2003663e+09 -1.719188e+11)
(-3.1866914e+12 -4.4611621e+09 -1.7676219e+11)
(-3.1970548e+12 2.8080881e+08 -1.6577151e+11)
(-3.2031552e+12 4.2301518e+09 -1.5766556e+11)
(-3.2404161e+12 1.3957755e+10 -1.9085505e+11)
(-3.2417835e+12 -4.6119223e+09 -1.8640581e+11)
(-3.2370272e+12 -3.8190699e+09 -1.8127805e+11)
(-3.2476984e+12 1.0813948e+10 -1.7716677e+11)
(-3.17486e+12 -4.9696039e+08 -1.759583e+11)
(-3.780096e+12 5.2947183e+09 -2.0377106e+11)
(-3.3381994e+12 -1.1928297e+10 -1.8250028e+11)
(-3.3372175e+12 2.0542446e+10 -1.7705814e+11)
(-3.7844478e+12 1.083977e+10 -2.1457015e+11)
(-3.4319044e+12 1.2303e+10 -2.8375197e+11)
(-3.4254173e+12 -4.7700572e+10 -2.9354043e+11)
(-3.4702978e+12 -4.8975711e+10 -2.3570988e+11)
(-3.4731192e+12 1.4561714e+10 -2.3068424e+11)
(-3.3649054e+12 -9.3167024e+09 -2.5733062e+11)
(-3.3572208e+12 -1.9683376e+10 -2.740035e+11)
(-3.4166359e+12 -1.5371773e+10 -2.0943426e+11)
(-3.4151994e+12 1.3925382e+09 -2.0233523e+11)
(-3.483808e+12 -1.6531723e+10 -2.155564e+11)
(-3.343886e+12 -2.8359953e+10 -4.1510178e+11)
(-3.3583706e+12 -4.9840724e+09 -4.0493322e+11)
(-3.47291e+12 -2.1020177e+09 -2.2725687e+11)
(-3.3834859e+12 9.2160232e+09 -4.1777243e+11)
(-3.3727411e+12 -5.0637903e+10 -4.2849699e+11)
(-3.5217644e+12 -5.4382635e+10 -2.980413e+11)
(-3.5314652e+12 1.4216861e+10 -2.8654998e+11)
(-3.4125644e+12 1.3297934e+10 -2.2613613e+11)
(-3.4094365e+12 -3.9004907e+10 -2.3109062e+11)
(-3.3954369e+12 -3.2195375e+10 -2.1149366e+11)
(-3.3982971e+12 1.2135912e+10 -2.0791229e+11)
(-3.3532954e+12 2.566753e+09 -2.0431816e+11)
(-3.3510931e+12 -1.3950717e+10 -2.1434166e+11)
(-3.3483045e+12 -1.1980548e+10 -1.8964544e+11)
(-3.3527693e+12 3.3300355e+09 -1.8285801e+11)
(-3.2760165e+12 -7.1636672e+09 -1.8515518e+11)
(-3.2792002e+12 4.7696791e+09 -1.8002034e+11)
(-3.2824755e+12 2.86891e+09 -1.7038586e+11)
(-3.27469e+12 -5.7736709e+09 -1.7628919e+11)
(-3.3172568e+12 9.0262727e+09 -1.9281061e+11)
(-3.3202686e+12 -2.4817115e+10 -2.0593182e+11)
(-3.3242325e+12 1.0259227e+10 -2.0150459e+11)
(-3.3149455e+12 -1.6921327e+10 -1.9411591e+11)
(-3.8119079e+12 -2.350661e+10 -2.3198781e+11)
(-3.8007695e+12 5.6168843e+09 -2.299908e+11)
(-3.3653006e+12 4.2857907e+10 -1.9340897e+11)
(-3.3681778e+12 -1.6356382e+10 -1.9513079e+11)
(-3.3391401e+12 -3.4916453e+10 -4.1164878e+11)
(-3.3255705e+12 8.6112363e+10 -4.1471722e+11)
(-3.3602238e+12 1.756736e+09 -2.3896572e+11)
(-3.3580549e+12 -2.4049114e+10 -2.2097914e+11)
(-3.3564142e+12 -2.2056022e+10 -2.0195305e+11)
(-3.3734907e+12 2.6833106e+08 -1.983158e+11)
(-3.3811533e+12 1.9114363e+10 -2.283096e+11)
(-3.3780387e+12 -1.7026632e+10 -2.2327375e+11)
(-3.3768405e+12 1.8189801e+10 -2.1179509e+11)
(-3.3721626e+12 -1.2990131e+10 -2.0666846e+11)
(-3.2971341e+12 -1.0862104e+10 -2.0270771e+11)
(-3.3037369e+12 -7.5536011e+09 -1.877393e+11)
(-3.3077896e+12 1.2528317e+10 -1.9096727e+11)
(-3.2989852e+12 1.7327928e+10 -2.0851426e+11)
(-3.2928907e+12 5.4142522e+09 -1.9867056e+11)
(-3.2794258e+12 -1.4362489e+10 -1.9779686e+11)
(-3.2891006e+12 -1.0196455e+10 -1.824205e+11)
(-3.2990081e+12 3.6686097e+09 -1.8433344e+11)
(-3.4297566e+12 -6.8826643e+09 -2.2200573e+11)
(-3.3780419e+12 -3.2098208e+10 -2.7060401e+11)
(-3.3704375e+12 -1.644965e+10 -2.9223216e+11)
(-3.4230801e+12 -3.2383762e+10 -2.2135289e+11)
(-3.3937182e+12 1.2754117e+10 -2.9410776e+11)
(-3.4057275e+12 -1.7816984e+10 -2.6547258e+11)
(-3.4399747e+12 -1.8355858e+10 -2.2408257e+11)
(-3.4435237e+12 2.0483721e+10 -2.3195142e+11)
(-3.3679761e+12 -1.7317582e+10 -4.3048356e+11)
(-3.3822618e+12 -3.9609418e+10 -4.1653888e+11)
(-3.4935681e+12 -4.2584152e+10 -2.4306092e+11)
(-3.4692352e+12 -2.1892946e+10 -2.9220218e+11)
(-3.3882016e+12 2.131343e+10 -4.2241285e+11)
(-3.4121826e+12 -2.8194481e+10 -4.1280399e+11)
(-3.5153316e+12 -1.7007518e+10 -2.4264068e+11)
(-3.4914803e+12 1.8219273e+10 -2.9355502e+11)
(-3.457933e+12 -1.4826579e+09 1.107708e+11)
(-3.4802799e+12 5.9396124e+10 1.1205468e+11)
(-3.315144e+12 -3.076338e+10 -4.0826732e+11)
(-3.7898416e+12 -9.3864896e+09 -2.3595027e+11)
(-3.7946756e+12 1.6643114e+10 -2.4144929e+11)
(-3.3475618e+12 3.7988004e+10 -1.7806454e+11)
(-3.3693051e+12 -1.505161e+10 -1.7596372e+11)
(-3.5576382e+12 -3.7736675e+10 -2.8517398e+11)
(-3.3996445e+12 -4.2729267e+10 -4.3706988e+11)
(-3.4039612e+12 8.3804062e+09 -4.312541e+11)
(-3.5510314e+12 1.6148517e+10 -2.9875229e+11)
(-3.4111869e+12 -4.0697828e+10 -4.2838254e+11)
(-4.3505904e+12 8.8650786e+09 3.5437384e+11)
(-3.4582179e+12 -2.777931e+10 1.4289265e+11)
(-3.5054428e+12 7.4808246e+09 1.4941659e+11)
(-4.2514876e+12 4.0388888e+10 3.128652e+11)
(-4.2170555e+12 -7.7392545e+10 3.0319606e+11)
(-4.2940697e+12 8.591337e+10 3.4089935e+11)
(-4.1524798e+12 3.6510597e+10 2.3947456e+11)
(-4.1651016e+12 -2.1410128e+10 2.4494162e+11)
(-4.3120235e+12 -7.6859854e+10 3.4569725e+11)
(-4.1649016e+12 6.9407943e+09 7.699133e+10)
(-4.1299219e+12 -1.827734e+10 -5.9749125e+10)
(-4.092277e+12 -2.4506511e+10 -5.9540243e+10)
(-4.3519865e+12 -1.4707572e+10 -8.773054e+09)
(-4.35069e+12 -1.1312442e+10 -9.5205638e+09)
(-4.5869661e+12 -4.7681009e+10 -1.7507907e+10)
(-4.5855099e+12 -2.0681187e+10 -2.1412477e+10)
(-3.7662608e+12 -3.5624461e+10 3.5087388e+10)
(-4.1784936e+12 -1.37993e+10 7.2894923e+09)
(-3.7250711e+12 -2.712442e+10 5.0269895e+10)
(-4.1479954e+12 -1.9845596e+10 1.5285011e+10)
(-4.2981818e+12 3.5293276e+08 5.4362447e+10)
(-4.29471e+12 -1.4177555e+10 6.6056682e+10)
(-4.5146693e+12 -39813202 9.0978713e+10)
(-3.9898491e+12 -3.220615e+10 1.604045e+11)
(-3.9932653e+12 -2.2466953e+09 1.4794595e+11)
(-4.0570873e+12 -8.7644123e+09 2.9297571e+10)
(-3.4276091e+12 1.3597977e+10 9.5549993e+10)
(-3.8400545e+12 -1.5374988e+10 5.8887796e+10)
(-4.2130789e+12 -7.1825161e+09 4.831466e+10)
(-3.5246529e+12 7.8781998e+10 9.0308831e+10)
(-3.8345273e+12 -3.8716339e+09 6.1319435e+10)
(-4.2111617e+12 -2.455129e+10 5.2495468e+10)
(-4.2828221e+12 -1.3973342e+10 7.7310446e+10)
(-4.2783958e+12 -5.4687959e+09 6.9123455e+10)
(-3.6063223e+12 -1.2412833e+10 9.7311733e+10)
(-3.6440067e+12 3.2525191e+09 7.0056348e+10)
(-3.9913337e+12 -3.6637199e+09 6.4054639e+10)
(-4.2877361e+12 7.7649094e+08 7.09925e+10)
(-3.4796074e+12 -7.6003513e+10 7.5012277e+10)
(-3.5394506e+12 -1.0833736e+10 7.3930502e+10)
(-4.145403e+12 -2.1741351e+09 -3.8092859e+10)
(-3.8603379e+12 1.7757432e+10 2.0248911e+11)
(-4.0427461e+12 2.4426078e+10 1.1567698e+11)
(-3.8416403e+12 3.3141328e+10 1.9862531e+11)
(-4.2431329e+12 2.2613384e+10 -3.9483035e+11)
(-3.9353293e+12 -2.0373492e+10 -4.0261567e+11)
(-4.4138906e+12 -4.2389136e+10 -1.4984225e+11)
(-3.6072694e+12 -2.3874114e+10 -3.4271726e+11)
(-3.7102295e+12 7.2759041e+09 -4.0185168e+11)
(-3.9620073e+12 3.8439727e+09 -1.6288089e+11)
(-3.4607782e+12 1.1566202e+10 -2.0800284e+11)
(-3.4640582e+12 2.3839979e+09 -2.2302397e+11)
(-3.9873195e+12 -2.6447862e+10 -1.748876e+11)
(-4.0424367e+12 -8.3200959e+09 -1.679031e+11)
(-4.026133e+12 -2.7071904e+10 -1.6163603e+11)
(-3.4901513e+12 2.1926855e+10 -2.3598924e+11)
(-3.482665e+12 2.8887636e+10 -2.3359961e+11)
(-3.7301231e+12 4.5087386e+10 -4.0912911e+11)
(-3.8265525e+12 -2.6324474e+10 -2.5953418e+11)
(-3.5422954e+12 -1.5243067e+10 -4.0651788e+11)
(-3.5574932e+12 -3.8320058e+09 -4.0282678e+11)
(-3.8124332e+12 -1.0651413e+10 -2.6610876e+11)
(-3.5665758e+12 9.6269282e+09 -4.1155267e+11)
(-3.5758133e+12 -1.6625622e+10 -4.0392682e+11)
(-3.8393843e+12 -3.6158583e+10 -2.8914031e+11)
(-3.8320592e+12 5.6885137e+09 -2.9353084e+11)
(-3.826249e+12 -4.9941548e+09 -2.1130187e+11)
(-3.5816717e+12 -3.2941146e+09 -3.9070893e+11)
(-3.5771275e+12 6.881044e+09 -4.0275772e+11)
(-3.7978607e+12 -6.0607127e+09 -2.4372955e+11)
(-3.6502048e+12 -1.3525794e+08 -2.7093968e+11)
(-3.6392562e+12 2.4374428e+09 -2.8309498e+11)
(-3.6865183e+12 -2.4525444e+10 -1.9909378e+11)
(-3.6389535e+12 -2.1497417e+10 -2.6093031e+11)
(-3.6311295e+12 -7.638343e+09 -2.5311162e+11)
(-3.6530361e+12 -7.115997e+09 -2.1162612e+11)
(-3.5500739e+12 -9.5512695e+09 -3.9097887e+11)
(-3.5440952e+12 -5.1259414e+09 -4.0315221e+11)
(-3.7893113e+12 -3.1728281e+10 -2.2366241e+11)
(-3.7718067e+12 -2.1621675e+10 -2.2683982e+11)
(-3.2170924e+12 1.0073406e+10 -1.8199811e+11)
(-3.2159249e+12 -8.885825e+09 -1.7867049e+11)
(-3.2128401e+12 9.7495789e+09 -1.813896e+11)
(-3.7954812e+12 1.1078665e+10 -2.1333991e+11)
(-3.3626111e+12 7.400696e+09 -4.0753908e+11)
(-3.3663102e+12 -3.7613583e+10 -4.0616347e+11)
(-3.4754336e+12 -4.1787192e+10 -2.3575058e+11)
(-3.4626779e+12 3.1216597e+09 -2.7545199e+11)
(-3.7658226e+12 -1.6591126e+09 -2.0943748e+11)
(-3.3372688e+12 1.7198352e+10 -4.103375e+11)
(-3.350553e+12 -1.594289e+10 -4.0898929e+11)
(-3.4635173e+12 -1.3517086e+10 -2.2095324e+11)
(-3.4435283e+12 1.5655436e+10 -2.6991535e+11)
(-3.3521085e+12 9.559852e+09 -2.7712276e+11)
(-3.3569037e+12 -1.3334446e+10 -2.5353404e+11)
(-3.404505e+12 -1.2020938e+10 -2.041563e+11)
(-3.4052084e+12 1.6772473e+10 -2.1381761e+11)
(-3.4134484e+12 -3.4370365e+10 -2.1691967e+11)
(-3.3639453e+12 -3.3940852e+10 -2.6738035e+11)
(-3.3672683e+12 4.7214284e+09 -2.8326312e+11)
(-3.4130266e+12 1.044115e+10 -2.2667108e+11)
(-3.3353968e+12 -1.1820504e+10 -1.8661949e+11)
(-3.3375612e+12 2.5821135e+10 -1.8478558e+11)
(-3.3441308e+12 -7.8413718e+09 -1.8608799e+11)
(-3.3454897e+12 -9.2541565e+09 -2.0609167e+11)
(-3.346068e+12 1.4909658e+10 -2.1191952e+11)
(-3.3453296e+12 1.398956e+10 -1.903619e+11)
(-3.3557643e+12 1.378414e+10 -2.2124436e+11)
(-3.3450859e+12 -2.743775e+10 -2.1629635e+11)
(-3.3467295e+12 -2.3119575e+10 -1.9327821e+11)
(-3.3497536e+12 1.5707369e+10 -2.0211384e+11)
(-3.2772986e+12 1.3909781e+10 -1.85066e+11)
(-3.2762797e+12 -3.0393038e+09 -1.7759792e+11)
(-3.276822e+12 -8.6637246e+08 -1.6876167e+11)
(-3.2775596e+12 1.2643839e+10 -1.7568738e+11)
(-3.2770644e+12 -9.3592085e+09 -1.8170536e+11)
(-3.2769836e+12 -1.6529966e+10 -1.8884002e+11)
(-3.282454e+12 1.7776277e+10 -1.9491992e+11)
(-3.2773307e+12 1.8197208e+10 -1.8976988e+11)
(-3.3767577e+12 -1.009639e+10 -1.970581e+11)
(-3.3619519e+12 -1.7258566e+10 -2.3409604e+11)
(-3.3796007e+12 1.6651496e+10 -1.9455323e+11)
(-3.363226e+12 1.9641636e+10 -2.3904633e+11)
(-3.3047018e+12 -2.4442396e+09 -1.7986882e+11)
(-3.2840114e+12 -6.6006651e+09 -2.0709093e+11)
(-3.2866303e+12 1.8484838e+10 -2.0567354e+11)
(-3.3078286e+12 1.1891747e+10 -1.7876081e+11)
(-3.3499183e+12 6.2923558e+09 -2.1946482e+11)
(-3.3531023e+12 -2.7656742e+10 -2.2147157e+11)
(-3.3437621e+12 -2.2484511e+10 -1.9948736e+11)
(-3.3413455e+12 6.9092959e+09 -2.0148375e+11)
(-3.2749636e+12 9.0034096e+09 -1.9170621e+11)
(-3.2735009e+12 -1.6111741e+10 -1.9150957e+11)
(-3.275807e+12 -1.0537458e+10 -1.800179e+11)
(-3.2741778e+12 8.4815776e+09 -1.8410991e+11)
(-3.445921e+12 -2.0073857e+10 -2.1673976e+11)
(-3.3859445e+12 -2.6762603e+10 -2.9442684e+11)
(-3.436527e+12 1.7759407e+10 -2.1946915e+11)
(-3.377869e+12 1.7600213e+10 -2.9263763e+11)
(-3.8008335e+12 -2.2378646e+10 -2.2922535e+11)
(-3.4922843e+12 -2.8521482e+10 -2.6354052e+11)
(-3.3754323e+12 -2.9989214e+10 -4.1243956e+11)
(-3.3790154e+12 2.2012259e+10 -4.144423e+11)
(-3.4752633e+12 2.01493e+10 -2.8931165e+11)
(-3.7949844e+12 -7.0612288e+09 -2.2525712e+11)
(-3.3636219e+12 -1.2388966e+10 -1.9802573e+11)
(-3.3612767e+12 3.7744311e+10 -1.9978663e+11)
(-3.5049308e+12 -4.0408035e+10 -2.2735835e+11)
(-3.3720999e+12 -3.1730928e+10 -4.0572504e+11)
(-3.3536693e+12 -1.6578213e+09 -4.220092e+11)
(-3.4504345e+12 -5.0705658e+09 -2.9032264e+11)
(-3.3634438e+12 3.0644523e+08 -2.8769276e+11)
(-3.3723913e+12 -2.9991132e+10 -2.8457859e+11)
(-3.4232851e+12 -3.5491609e+10 -2.2146048e+11)
(-3.4051181e+12 4.4951035e+09 -2.3204796e+11)
(-3.3474566e+12 8.0570533e+10 -4.1532789e+11)
(-3.344346e+12 -3.3630495e+10 -4.1195372e+11)
(-3.8075781e+12 -1.4345245e+10 -2.2705636e+11)
(-3.8165508e+12 6.5145425e+09 -2.3206236e+11)
(-3.3750521e+12 -1.2202878e+10 -1.966271e+11)
(-3.3567591e+12 3.9650754e+10 -1.9963101e+11)
(-3.3767118e+12 1.9841779e+09 -2.9100495e+11)
(-3.3922745e+12 -4.1840892e+10 -2.8759769e+11)
(-3.4441262e+12 -4.186604e+10 -2.2691432e+11)
(-3.4241339e+12 3.6221014e+09 -2.3114054e+11)
(-3.3801912e+12 6.4146752e+09 -2.9318687e+11)
(-3.3957702e+12 -2.5574806e+10 -2.7915879e+11)
(-3.4451774e+12 -2.0288117e+10 -2.1837148e+11)
(-3.4333768e+12 1.2620126e+10 -2.2496275e+11)
(-3.5216386e+12 -2.838718e+10 -2.2961474e+11)
(-3.3977558e+12 -3.0815801e+10 -4.1327576e+11)
(-3.3729769e+12 1.3201428e+10 -4.2186485e+11)
(-3.4730734e+12 9.055714e+09 -2.9351932e+11)
(-3.5215177e+12 -5.2235597e+10 -2.3617133e+11)
(-3.3940912e+12 -4.0444806e+10 -4.1409003e+11)
(-3.3730703e+12 6.8428164e+09 -4.2375466e+11)
(-3.4658096e+12 -1.6551377e+09 -2.9550453e+11)
(-3.3668654e+12 7.9076436e+09 -2.2369057e+11)
(-3.3731119e+12 -3.3101319e+10 -2.3145789e+11)
(-3.36695e+12 -2.720011e+10 -2.0845857e+11)
(-3.3615334e+12 8.9471917e+09 -2.0527311e+11)
(-3.3731842e+12 1.2069324e+10 -2.1886356e+11)
(-3.3762399e+12 -1.649405e+10 -2.2223486e+11)
(-3.370406e+12 -1.3128145e+10 -1.9989869e+11)
(-3.3695521e+12 1.0970941e+10 -1.9851282e+11)
(-3.2967577e+12 1.2058071e+10 -1.9368004e+11)
(-3.2969274e+12 -7.2846859e+09 -1.9505935e+11)
(-3.2919173e+12 -3.8686005e+09 -1.8633477e+11)
(-3.2956852e+12 1.0325209e+10 -1.8439605e+11)
(-3.2905563e+12 -1.2150062e+10 -1.9221707e+11)
(-3.2903945e+12 -1.9831604e+10 -2.0500122e+11)
(-3.2907121e+12 1.1003316e+10 -1.9959133e+11)
(-3.2880174e+12 1.2144799e+10 -1.9270269e+11)
(-3.3553659e+12 -1.8147444e+09 -2.0630491e+11)
(-3.3602006e+12 -2.5523218e+10 -2.1188006e+11)
(-3.3569553e+12 -2.1388132e+10 -1.8637305e+11)
(-3.356189e+12 -2.4643805e+09 -1.9011611e+11)
(-3.3721339e+12 1.5925437e+10 -2.2175139e+11)
(-3.3768794e+12 -1.8508541e+10 -2.2120659e+11)
(-3.3702916e+12 -1.2928465e+10 -1.960211e+11)
(-3.3714951e+12 1.5016764e+10 -2.0327673e+11)
(-3.3039046e+12 -2.5980074e+09 -1.7673443e+11)
(-3.2936726e+12 -6.4361162e+09 -1.9492095e+11)
(-3.2962204e+12 1.6695762e+10 -2.0091628e+11)
(-3.306408e+12 1.1759959e+10 -1.8224969e+11)
(-3.2933196e+12 -8.9132108e+09 -1.6680888e+11)
(-3.2800891e+12 -1.3021414e+10 -1.8521698e+11)
(-3.2842052e+12 1.4779195e+09 -1.8597836e+11)
(-3.2937509e+12 -1.0379525e+09 -1.7122723e+11)
(-3.8147634e+12 -2.4877973e+10 -2.0747108e+11)
(-3.777583e+12 -1.1684138e+10 -2.1287722e+11)
(-3.3469763e+12 3.0415802e+09 -1.7762146e+11)
(-3.3249859e+12 4.2597336e+10 -1.8497069e+11)
(-3.3535109e+12 -6.2546258e+09 -2.7661936e+11)
(-3.3689304e+12 -3.4759038e+10 -2.7091557e+11)
(-3.4284179e+12 -3.4872059e+10 -2.0646402e+11)
(-3.4086068e+12 -4.5904663e+09 -2.1403714e+11)
(-3.3752837e+12 8.0173437e+09 -2.9529738e+11)
(-3.3942486e+12 -2.9694092e+10 -2.7611834e+11)
(-3.4442928e+12 -2.5714307e+10 -2.1747125e+11)
(-3.4303077e+12 1.4046506e+10 -2.2762303e+11)
(-3.5240223e+12 -3.6147108e+10 -2.2150956e+11)
(-3.3896066e+12 -3.5035801e+10 -4.0753525e+11)
(-3.3635295e+12 1.5642295e+10 -4.2861434e+11)
(-3.465655e+12 6.83834e+09 -2.9574879e+11)
(-3.4983345e+12 -4.8440343e+10 -2.1136408e+11)
(-3.3579196e+12 -3.7910696e+10 -4.0871592e+11)
(-3.3271097e+12 -5.1769982e+09 -4.309056e+11)
(-3.4351913e+12 -8.9623569e+09 -2.8354459e+11)
(-3.3361314e+12 9.2741786e+10 -4.1211653e+11)
(-3.3451732e+12 -1.9935266e+10 -4.1672525e+11)
(-3.4438812e+12 2.7250836e+09 1.0867777e+11)
(-3.4512927e+12 7.7752032e+10 1.102672e+11)
(-3.2249324e+12 2.5783644e+09 -1.7910818e+11)
(-3.2318802e+12 1.8536975e+08 -1.8261514e+11)
(-3.2358215e+12 1.2650022e+10 -1.814559e+11)
(-3.2308287e+12 1.1317227e+10 -1.7803194e+11)
(-3.2296674e+12 1.4259194e+10 -1.8824019e+11)
(-3.2269024e+12 -7.7460873e+09 -1.8787571e+11)
(-3.2263716e+12 -1.6424583e+09 -1.8061403e+11)
(-3.2248861e+12 1.4919998e+10 -1.8489185e+11)
(-3.1657795e+12 1.5576612e+10 -1.7842667e+11)
(-3.1647809e+12 2.2726163e+09 -1.7481355e+11)
(-3.2343179e+12 6.3241352e+08 -1.6855194e+11)
(-3.2273432e+12 -4.1147141e+09 -1.66484e+11)
(-3.2342537e+12 7.4497268e+08 -1.6396969e+11)
(-3.234902e+12 -6.5128711e+08 -1.5708529e+11)
(-3.2446754e+12 1.4234768e+10 -1.8030575e+11)
(-3.236625e+12 2.8829379e+09 -1.7721537e+11)
(-3.2453463e+12 1.1447149e+10 -1.7277245e+11)
(-3.2421719e+12 5.7502069e+09 -1.6613699e+11)
(-3.1797307e+12 1.0461945e+10 -1.6260269e+11)
(-3.1844532e+12 1.289586e+10 -1.6835219e+11)
(-3.1972426e+12 9.637821e+09 -1.5867091e+11)
(-3.1892545e+12 6.2749165e+09 -1.4472955e+11)
(-3.1738352e+12 3.7727398e+09 -1.5262987e+11)
(-3.1765066e+12 8.3859153e+08 -1.5754596e+11)
(-3.1855754e+12 5.1060251e+08 -1.5230575e+11)
(-2.7148428e+12 1.5564962e+10 -9.6253835e+10)
(-2.6706331e+12 1.6308435e+10 -9.2406288e+10)
(-2.6906616e+12 9.5286612e+09 -9.7700243e+10)
(-2.7357597e+12 7.4539466e+09 -1.0396094e+11)
(-2.6004131e+12 1.4910947e+10 -8.7864224e+10)
(-2.6327388e+12 1.448637e+10 -9.5659444e+10)
(-2.6408357e+12 1.0840183e+10 -1.0580964e+11)
(-2.6130409e+12 1.257547e+10 -9.1456944e+10)
(-2.7738169e+12 1.0496454e+10 -1.1072134e+11)
(-2.7233322e+12 1.1174959e+10 -1.0531531e+11)
(-2.7180835e+12 9.999312e+09 -1.0492352e+11)
(-2.7713852e+12 8.3637989e+09 -1.0935816e+11)
(-2.672539e+12 1.1793762e+10 -1.0388787e+11)
(-2.6799224e+12 1.285752e+10 -1.0685301e+11)
(-2.6408449e+12 1.3892348e+10 -9.8293089e+10)
(-2.6389096e+12 1.3389837e+10 -9.3595308e+10)
(-2.7691393e+12 9.5008753e+09 -1.1908438e+11)
(-2.7653263e+12 1.1300343e+10 -1.1053952e+11)
(-2.7150275e+12 1.2617483e+10 -1.0598071e+11)
(-2.6719248e+12 1.434631e+10 -1.0835484e+11)
(-3.4366685e+12 -2.3363683e+10 -3.5678861e+11)
(-3.2447614e+12 -4.3824045e+10 -2.9239423e+11)
(-3.4642411e+12 3.1828896e+10 -3.3817214e+11)
(-3.254486e+12 3.9843629e+10 -2.7243677e+11)
(-3.1711776e+12 -5.8608216e+10 -4.7175657e+11)
(-3.1989839e+12 6.1704973e+10 -4.6624549e+11)
(-3.3022349e+12 4.6518978e+10 -2.7680065e+11)
(-3.2826706e+12 -5.7426719e+10 -2.7957431e+11)
(-3.4711485e+12 -5.1153705e+10 -3.7194393e+11)
(-3.482405e+12 2.282833e+10 -3.6587258e+11)
(-3.1641349e+12 -2.6389512e+09 -2.8871925e+11)
(-3.1614151e+12 -5.8691638e+09 -3.0382686e+11)
(-3.0727922e+12 -1.8993708e+09 -2.3364996e+11)
(-3.0749492e+12 -69677282 -2.2181439e+11)
(-3.1142657e+12 -2.3453106e+10 -2.96862e+11)
(-3.0766068e+12 4.551286e+09 -2.6620766e+11)
(-2.9865723e+12 5.8327979e+09 -2.0010734e+11)
(-3.0201296e+12 -1.6178769e+10 -2.1592209e+11)
(-3.2059183e+12 2.9487027e+09 -3.5723731e+11)
(-3.2879146e+12 9.4768537e+09 -4.8311475e+11)
(-3.3105786e+12 -2.0843348e+10 -4.8035251e+11)
(-3.2157764e+12 -3.035709e+10 -3.870581e+11)
(-3.3434035e+12 -1.2560357e+10 -4.8317424e+11)
(-3.3399763e+12 -6.3058157e+09 -4.919087e+11)
(-3.2693129e+12 -1.0417706e+10 -3.9590342e+11)
(-3.272031e+12 -6.7237748e+09 -3.818698e+11)
(-3.0116477e+12 2.6076914e+09 -1.7135905e+11)
(-3.0107039e+12 2.9707521e+09 -1.7947016e+11)
(-2.9425203e+12 5.1413096e+09 -1.4907041e+11)
(-2.9425141e+12 3.1113501e+09 -1.4268679e+11)
(-2.9613268e+12 -8.6766149e+09 -1.63873e+11)
(-2.9279004e+12 6.4110307e+09 -1.5206501e+11)
(-2.8639086e+12 9.6693678e+09 -1.2526778e+11)
(-2.8948307e+12 -3.3401913e+09 -1.3646831e+11)
(-2.8090459e+12 1.2985729e+10 -1.1011422e+11)
(-2.8369072e+12 1.2306258e+09 -1.2009351e+11)
(-2.7844877e+12 4.7732273e+09 -1.0295565e+11)
(-2.7601808e+12 1.4309813e+10 -9.3845451e+10)
(-2.8258856e+12 6.5406105e+09 -1.059058e+11)
(-2.8820175e+12 7.2877561e+09 -1.2892553e+11)
(-2.8813768e+12 3.8943427e+09 -1.2318096e+11)
(-2.8257505e+12 9.3433058e+09 -1.1095442e+11)
(-3.4962725e+12 -3.6186608e+10 -3.7184451e+11)
(-3.3228163e+12 -5.6808301e+10 -2.9249315e+11)
(-3.3135742e+12 4.7091391e+10 -2.9038888e+11)
(-3.4937668e+12 3.7697339e+10 -3.7458893e+11)
(-3.4906743e+12 -5.3289883e+10 -3.6402118e+11)
(-3.2997104e+12 -4.7153237e+10 -2.878101e+11)
(-3.2904729e+12 4.3714435e+10 -2.9990881e+11)
(-3.4569427e+12 6.0974511e+09 -3.8522908e+11)
(-3.2013433e+12 8.1619761e+10 -4.7777715e+11)
(-3.218237e+12 -6.3571649e+10 -4.7503811e+11)
(-3.002786e+12 -5.9618528e+10 7.3369536e+10)
(-2.9861919e+12 9.9436214e+10 7.1666817e+10)
(-2.9803829e+12 -5.7435021e+09 -1.85655e+11)
(-2.9770147e+12 2.142527e+09 -1.7082349e+11)
(-2.900679e+12 5.1716039e+09 -1.5705143e+11)
(-2.907777e+12 5.7408525e+08 -1.4973774e+11)
(-3.0221719e+12 -5.3103732e+09 -1.7931021e+11)
(-3.0104036e+12 3.6227654e+09 -1.5922514e+11)
(-2.9422408e+12 -1.0008704e+09 -1.6224933e+11)
(-2.9319295e+12 4.5270134e+09 -1.4904669e+11)
(-2.8739036e+12 6.0845264e+09 -1.2598116e+11)
(-2.8169635e+12 9.3417185e+09 -1.0889781e+11)
(-2.8246432e+12 6.8993444e+09 -1.1653992e+11)
(-2.882852e+12 3.2864783e+09 -1.3629076e+11)
(-2.8512717e+12 5.2180114e+09 -1.2425522e+11)
(-2.8443166e+12 8.6367195e+09 -1.3309846e+11)
(-2.7893778e+12 1.0722967e+10 -1.1390483e+11)
(-2.7950464e+12 7.6623644e+09 -1.0724923e+11)
(-3.0596958e+12 -1.3299527e+10 -2.105307e+11)
(-3.1368551e+12 -6.593891e+09 -2.9429148e+11)
(-3.1473189e+12 -2.4196335e+10 -2.8872323e+11)
(-3.037995e+12 1.236556e+09 -2.1850937e+11)
(-3.1786475e+12 -1.3979677e+10 -2.994122e+11)
(-3.1696929e+12 -1.7381477e+09 -2.7981382e+11)
(-3.0722638e+12 6.2098667e+08 -2.0446098e+11)
(-3.0860074e+12 -9.4593562e+09 -2.2984461e+11)
(-3.3315504e+12 -3.8243501e+10 -4.9864951e+11)
(-3.3468033e+12 -1.228653e+10 -4.7793457e+11)
(-3.2456794e+12 -1.2060048e+10 -3.7869283e+11)
(-3.2575243e+12 -3.4458937e+10 -3.8382639e+11)
(-3.362893e+12 -1.6150836e+10 -4.8464267e+11)
(-3.3601403e+12 5.6011133e+09 -4.6812664e+11)
(-3.2751598e+12 -1.1249999e+09 -3.6828037e+11)
(-3.2890568e+12 -1.6341773e+10 -3.8352961e+11)
(-3.2643317e+12 -3.2724182e+10 -1.4737309e+09)
(-3.2607268e+12 7.2899759e+10 7.7018705e+09)
(-3.2717562e+12 -1.6793918e+10 1.2349509e+10)