/*--------------------------------*- C++ -*----------------------------------*\
  =========                 |
  \\      /  F ield         | OpenFOAM: The Open Source CFD Toolbox
   \\    /   O peration     | Website:  https://openfoam.org
    \\  /    A nd           | Version:  7
     \\/     M anipulation  |
\*---------------------------------------------------------------------------*/
FoamFile
{
    version     2.0;
    format      ascii;
    class       volScalarField;
    location    "7000";
    object      omega;
}
// * * * * * * * * * * * * * * * * * * * * * * * * * * * * * * * * * * * * * //

dimensions      [0 0 -1 0 0 0 0];

internalField   nonuniform List<scalar> 
33730
(
2108.472
849.16859
4571.0772
3930.9533
1875.7897
7702.8421
759.36325
3907.2342
765.57428
681.85433
755.55093
836.31958
2128.4036
833.81572
1245.0051
1254.2828
9397.1385
9422.3684
1983.1718
4558.2233
18851.779
7397.5101
7538.5283
1814.1253
1781.7636
13461.078
13053.641
4412.6539
4430.1578
7229.7544
7532.2022
1770.2529
1793.6126
745.97816
678.64124
682.89374
745.64773
1431.5438
1591.8178
1412.0714
1618.5973
568.13518
1920.9873
1942.2424
1947.7927
488.31513
491.53387
2072.5878
2098.6784
5056.0495
5104.2837
2023.5804
2069.5294
658.54045
657.49904
1994.6922
2033.3991
662.30613
2044.7498
2017.3816
655.15341
4530.4666
4597.7619
18678.56
18513.072
4628.3672
4592.7966
18634.176
18766.806
2147.2175
3546.6069
3488.9259
6675.7465
6767.9202
13043.987
13002.542
32794.295
33048.962
4264.9072
12864.2
12798.875
4253.3933
12889.787
13195.321
4342.88
4357.8662
21993.11
22197.948
8255.8652
8317.7276
20985.559
21617.884
8093.8949
8069.7194
12242.701
12701.527
4115.8421
4155.1326
13019.351
4295.8783
13089.163
4313.4899
3166.8453
3503.784
1169.2361
1008.2402
1924.7965
1894.9874
1913.6541
1932.5656
1561.2022
1395.7418
1416.9397
1581.4368
1616.4486
1440.3633
1431.4367
568.65859
1594.3212
490.68008
1856.7344
1859.732
1900.4717
1886.9636
3258.2342
3255.1925
3600.1061
1177.2418
3602.6742
4293.4715
4252.4428
4451.5838
4435.382
3280.2153
3238.6316
3617.7172
3591.5298
1157.0523
4277.2642
4245.1486
4422.996
4441.4168
992.42286
1010.1627
5036.8374
4929.5454
5065.7862
4893.2587
5054.244
5003.8544
4919.5814
5383.7577
4835.4718
5326.3497
4814.7915
5387.5081
364.71022
422.00613
695.36543
830.94148
813.78996
679.00432
699.53738
831.38534
4951.5291
4951.9655
5063.0435
5007.0134
9032.0591
9049.257
9238.4347
9339.4585
4728.9978
4825.835
4971.6047
5016.3118
539.81325
540.81425
682.85616
675.17695
2159.9942
2207.1866
686.08561
2219.3116
2186.4891
677.87986
3530.2561
3510.0444
6643.706
6680.8694
6772.7554
3585.1115
3587.7709
6757.0051
12931.438
12892.99
32614.651
32547.172
12817.906
12773.845
32026.382
32379.597
3594.2888
3611.716
6832.0035
6777.8832
3568.1846
3570.0305
6789.5758
6743.6395
12925.123
32693.721
32447.797
13039.393
12996.302
13058.278
32577.616
32797.727
2225.9424
4012.2492
4069.4789
7345.1816
7446.9493
12504.753
12547.897
18323.275
18506.772
12523.331
12355.443
18516.82
18245.909
28556.585
48083.302
29340.294
48653.347
29264.848
29125.383
48897.106
48804.582
8019.4272
21045.531
21294.205
7931.4716
21234.781
20869.607
7969.118
7927.7391
20931.463
21210.017
8068.7509
7966.3951
21785.226
21628.204
8177.45
8219.3948
39493.12
38800.155
12128.646
12099.22
39259.338
39817.867
12287.039
12197.445
37532.648
36548.652
11713.866
11685.641
11914.616
38678.891
38521.149
11843.231
19696.432
20331.737
7581.9281
7567.9058
7814.3026
20861.299
21040.808
7862.7469
21253.801
21552.499
8091.1231
8015.0967
8113.2825
21599.792
21410.086
8099.8207
2824.843
7204.63
7522.5433
2729.4687
6367.551
6077.4998
8389.2191
8541.8375
8777.9831
2558.9574
2637.3504
2201.5078
1994.9385
2029.3719
2249.2272
5363.8351
5274.9271
4764.4896
4803.0053
4705.3677
5246.6171
5222.6301
4696.5869
4784.7378
4900.938
4951.3004
4798.2248
4843.3759
5050.603
4953.8792
4905.8356
4139.5366
4080.4788
3989.8938
4219.4193
3446.1677
3131.6928
3241.4785
3178.3463
3514.1756
1167.4704
3567.8478
4227.402
4318.5055
4148.3468
4378.3734
1016.2275
4384.2256
4308.4999
4223.3277
4449.9917
3649.0076
3595.2062
3269.7063
3323.366
1188.5904
3285.5649
3218.5287
3535.8276
1180.5001
3584.9533
1022.3933
1022.2622
4230.7419
4362.2949
4166.5293
4325.4119
365.64389
364.61454
423.91619
708.58893
838.91633
837.95116
698.01024
839.79198
708.03016
5095.2815
4968.59
4501.4236
4574.3451
4673.9447
4657.4766
4566.8882
4795.007
4981.1889
4897.5337
4791.2437
4841.2871
5301.0262
4756.326
5231.4364
4725.4071
7697.5187
7918.6406
2784.0211
6730.7456
6509.9173
7549.1079
7626.1413
2802.2818
6451.6794
6414.2121
8744.8211
8880.6446
8891.3405
8990.2456
2599.1675
2618.7166
8960.84
9095.7599
9223.4235
9319.0415
10051.961
10109.986
9848.1773
9876.1615
9917.6646
9747.5005
10089.288
9849.7315
10578.727
10115.734
10628.554
10467.625
10039.68
10601.653
10104.503
7758.2829
7840.8653
2803.4232
6686.0132
6567.5447
7648.4981
7792.2537
2775.9165
6614.2451
6488.3631
9026.8682
9154.2538
9110.2356
9200.6139
8886.7735
9036.6981
9079.6924
9173.1206
2584.4322
2618.5424
9984.7843
9782.9275
10249.552
10004.328
9722.7331
9546.8958
9882.8488
9645.3993
10229.228
9812.3648
10367.139
9880.2412
10498.03
10041.665
10767.909
10263.693
2012.2267
1983.7063
2208.4974
2232.2141
1997.4752
2034.8174
2250.7344
2218.2575
10668.083
10763.871
10188.551
10221.392
10756.794
10041.289
10818.469
10043.394
10751.736
10241.707
10467.76
10545.897
9771.1288
9790.2285
10660.997
10158.629
10931.46
10371.074
10405.173
9939.3847
10508.97
9979.3966
10717.995
10972.97
9986.7766
10172.695
10422.871
9592.2175
10637.177
9727.8551
9924.3887
8910.4352
10080.225
8994.8181
10184.079
9389.9147
10236.745
9392.9385
9705.8924
8731.2385
9735.7644
8715.3199
9656.0034
10483.093
10510.459
419.09372
597.82996
485.13266
481.70483
590.42664
1014.5566
1051.0683
1242.7944
1199.2784
1435.3341
1482.2402
1717.7289
1672.7757
1663.5935
1421.5589
1445.3268
1686.29
1017.7228
1000.4188
1185.6262
1204.154
1054.1408
1232.5794
1235.9386
1686.298
1463.963
1476.5305
1704.5401
8962.0879
8911.3403
8990.9627
8920.8473
9177.3888
9252.7851
9023.2005
8938.6025
12317.81
12311.848
12573.23
12480.438
12764.765
12753.628
12969.191
12849.058
8453.4249
8487.3701
8765.0638
8852.7324
9058.1148
8995.2674
9111.4551
9107.6737
523.88937
523.2941
494.0435
672.9274
664.79357
2238.8081
4044.0717
4038.1992
2292.8904
4121.2126
4123.0174
677.51969
2298.4246
4108.8442
4157.2954
2270.3037
4104.6728
4102.0598
667.33415
7316.1701
7351.6237
7463.1183
7437.8155
12449.233
12504.353
18198.77
18355.24
12486.241
12330.7
18041.984
18344.936
28361.055
47816.442
29023.227
48201.384
28827.127
48136.544
28619.382
47908.256
12312.677
12364.364
18053.685
18198.833
12340.024
12206.146
18185.933
17927.428
27935.547
28587.625
47289.82
46742.218
47749.148
47656.468
28575.415
28427.956
7518.7896
7448.1632
7478.3776
7424.0726
12502.416
18400.163
18084.775
12324.861
29337.472
28710.538
47980.522
48322.119
29010.771
48191.11
47852.754
28638.451
12568.827
12527.382
18336.1
18473.789
12473.946
12526.019
18258.113
18417.261
12607.752
12487.184
18465.979
18232.119
28478.505
29090.72
48038.605
47737.084
28939.902
48396.205
48230.569
29125.738
3987.6722
4058.5198
2208.2255
4735.8936
4649.6876
6138.8951
6128.4
10357.761
10264.874
15884.1
15569.415
6231.1474
6244.3714
15725.109
10383.173
10481.567
15874.32
18873.563
18871.323
23076.258
23208.213
23499.813
19149.239
19082.491
23372.66
23415.515
19126.569
23484.373
19101.742
18854.502
18741.196
23242.184
23006.554
27180.085
26991.827
40005.331
40588.048
52982.125
65573.135
66162.328
53491.083
41721.623
27508.577
27352.445
41227.743
66487.587
67187.092
54036.265
54037.218
41299.171
27392.385
27496.497
41676.244
41838.024
27299.018
27005.018
40869.835
54079.248
66619.454
66986.312
54481.536
66190.049
67244.182
54465.801
54198.322
37464.572
37245.184
11749.924
11612.946
37950.291
38240.542
11742.197
11665.771
38085.848
37682.167
11746.327
11675.986
36550.074
37711.306
11653.006
11522.733
37129.49
36757.101
11750.254
11649.081
37651.477
37990.485
11768.769
11662.485
39154.215
38465.23
12131.05
12023.071
38153.46
12013.366
11977.874
38834.31
41763.159
41048.457
41576.028
42176.604
39775.525
38688.11
41001.03
40813.346
11004.605
34312.475
35155.716
10976.662
36329.557
36363.101
11203.314
11131.584
36913.914
37587.274
11512.413
11479.634
11637.06
37908.085
37305.967
11545.099
37970.615
37404.971
11819.6
11765.882
38360.362
38573.376
11876.503
11778.03
38236.657
38695.145
11876.934
11951.39
38537.427
37600.347
11921.701
11798.441
335.7398
5880.1512
5819.3602
6008.3624
6082.8792
20152.959
20119.921
18489.922
18319.912
19725.661
19739.517
21609.731
21656.082
5423.416
5377.0505
5626.2792
5655.7506
20741.599
19295.537
16981.988
18823.634
17225.294
18651.454
17618.225
16283.308
16007.521
17384.37
18279.776
20043.057
18256.549
20098.415
4914.9981
4874.1145
5076.6031
5112.6351
5340.5803
5225.4049
5293.2428
5435.0597
4441.9787
4366.8813
4514.6353
4596.1215
3920.1233
3767.3996
3845.9501
4020.1543
3967.0782
3952.7779
4130.7642
4163.6016
4735.7779
4618.7952
4672.4833
4812.3702
10377.014
10546.172
9548.9737
9653.9942
10154.123
9365.0508
10075.644
9260.934
9697.2604
8714.4467
9609.031
8608.2925
9881.8091
8858.7541
10003.617
8922.176
9668.6813
9605.6768
8675.9335
8587.5731
10141.21
10111.954
9321.654
9266.8251
10129.588
9332.4114
10079.705
9254.0983
9654.452
9613.1533
8645.7361
8585.6977
10400.574
9695.7385
10368.069
9625.256
10326.382
10311.241
9852.3388
9796.3212
10396.318
10390.675
9890.3521
9857.9674
10440.382
10425.126
9707.7678
9664.3883
10425.376
9730.1334
10367.248
9631.393
10626.545
10822.536
10123.591
10277.98
10352.223
9886.3623
10321.688
9807.0096
10679.49
10872.876
9945.3816
10088.986
9501.371
9095.0961
9674.2239
9207.4441
9466.0732
9708.639
9265.7986
9465.6481
9239.4475
9005.7278
9943.2939
10188.078
9503.9149
9700.2965
8519.3546
8633.1094
8753.8485
8832.2238
7320.7634
7510.1044
2686.5363
6364.4479
6177.9652
7611.0009
7676.9349
2780.2664
6528.0825
6434.31
7496.6781
7453.1058
2736.6211
6322.8258
6360.9721
8696.7756
8832.0729
8672.0612
8766.9826
2560.6904
2609.2266
8852.0965
8972.1122
8929.0528
9018.1781
9845.3967
9641.1791
9909.6849
9676.1799
10206.382
9793.8005
10138.29
9684.565
9682.1411
9509.5202
9635.3271
9420.3512
10352.577
9902.5175
10412.568
9936.363
2025.2481
1993.1019
2201.3024
2234.1742
10188.432
9761.1699
10188.232
9707.0083
9982.5669
10172.706
9773.7873
9928.4865
9693.3405
9510.2917
9720.6818
9484.5821
10479.945
10671.802
10016.684
10172.118
9002.1951
9115.0388
9195.9376
9274.5665
8734.3293
8859.4362
8778.8872
8859.1127
7545.8644
7556.1356
2829.843
6428.7023
6433.9598
7766.3436
7931.0523
2853.844
6784.8153
6612.2738
2661.3854
2675.0054
7613.7147
7616.4872
2831.2368
6491.864
6461.1481
7475.8159
7515.9588
2779.4995
6385.2862
6343.116
8688.8385
8807.8523
8752.4642
8826.756
2615.9627
2676.0869
8850.2433
8942.5902
8853.8069
8922.239
2294.0089
2073.3401
2060.9487
2287.2175
2091.5874
2041.1792
2249.9651
2296.1948
9804.5814
9570.0202
9797.4772
9543.0845
10263.757
9792.4811
10257.137
9766.2279
9660.9986
9464.4578
9698.6086
9453.2283
10156.824
9723.1049
10164.382
9684.5733
427.59173
611.45763
492.65911
426.46548
490.39492
605.49702
609.11063
491.64102
1224.8887
1040.1722
1242.5455
1056.7294
1681.4421
1457.7362
1482.5177
1704.8405
1743.7791
1496.5714
1476.5597
1722.964
1248.8322
1052.0029
1229.8705
1039.6868
1718.9087
1486.4184
1527.1084
1759.0558
1246.0546
1058.3834
1279.0041
1086.4752
9872.1565
9089.1255
10057.03
9205.1293
9452.8404
8734.8378
9546.3625
8771.2429
9049.4807
9108.2394
8161.4861
8168.5938
9416.7021
9552.4531
8454.5259
8528.0463
9641.2622
9793.1983
9200.9635
9292.0152
10147.036
9451.3922
10370.368
9609.7615
9699.1596
9056.3732
9825.3464
9120.8575
10093.384
10332.992
9614.2521
9798.8373
10525.152
10587.066
10031.464
10063.972
10410.863
10323.958
9945.5933
9827.6205
10504.825
10412.699
9801.6761
9685.0147
10596.837
10657.391
9867.5871
9893.1331
10309.732
9476.2902
10354.986
9483.0541
9810.2882
8791.3445
9832.3862
8778.5737
10236.141
9421.5555
10146.616
9318.8111
9748.9742
9670.3827
8750.4424
8657.9384
21700.66
21687.042
19922.554
19773.872
20348.926
20290.664
22145.881
22146.674
5798.8974
5747.1948
5887.9016
5954.3529
21216.049
20777.968
20653.456
20655.739
19010.691
18882.107
19857.834
19822.055
21692.248
21713.674
5691.8914
5671.5864
5727.3184
5734.2784
20795.626
19788.688
19334.658
19224.847
17553.245
17742.435
18134.689
17976.242
16796.601
16593.027
18396.909
20197.417
18437.105
20197.929
17380.008
18852.694
18847.617
17341.675
5241.2498
5171.2954
5228.6419
5324.6795
5113.683
5102.0797
5173.2026
5172.4869
18363.434
20283.473
18567.133
20154.479
17541.675
18992.344
18813.782
17315.88
18904.427
20713.251
18972.25
20680.081
17943.964
19414.103
19375.809
17887.085
18119.394
17068.575
16829.219
17900.734
17966.246
18058.739
17043.802
16938.687
16328.107
17564.259
16575.663
17341.334
17468.892
16483.6
17557.807
16586.186
16444.172
17759.146
16784.279
17457.302
17278.669
16350.027
15994.315
16946.983
17153.127
18203.708
17139.076
18246.395
17638.564
16632.109
17685.518
16650.034
17060.556
16338.378
16087.817
16827.542
16023.523
16635.026
16872.183
15782.056
17085.807
16996.846
16371.448
16264.045
15793.493
16830.067
16151.105
16484.96
15870.18
16679.345
16332.091
15525.652
17169.1
16404.25
17118.752
16384.711
16062.919
16923.111
16971.669
16082.216
21913.212
21885.236
20097.791
19941.42
19924.497
19845.496
21687.547
21665.185
5844.3869
5785.577
5861.0252
5925.413
20784.544
20996.931
21176.577
21128.77
19517.231
19314.134
20267.479
20262.351
22134.084
22172.476
5774.8466
5712.3333
5810.2881
5862.7761
21235.066
20250.115
20451.844
20303.163
18712.465
18491.763
18939.546
17683.375
17438.738
19144.83
20279.4
20205.893
18479.002
18585.444
19027.466
18932.003
17604.984
17494.544
17981.565
19884.307
18264.369
19682.373
18697.894
17326.897
17008.072
18425.496
18824.409
20612.744
18831.248
20643.922
19259.563
17766.928
19290.095
17769.078
5200.8339
5134.0151
5201.5204
5266.087
5229.8668
5196.8525
5260.5549
5311.4395
16696.602
17960.143
16914.013
17768.235
17385.508
16400.985
16188.396
17198.916
18372.287
17308.086
18390.23
17338.966
17844.085
16839.575
17852.54
16832.302
16039.975
17191.442
16234.654
17025.088
16683.292
16526.613
15781.824
15599.704
16707.783
17794.141
16734.231
17794.295
16205.236
17204.252
17211.506
16188.59
15388.72
16217.616
15556.493
16072.486
16037.22
15905.218
15273.129
15118.467
16674.556
15914.194
16658.793
15929.742
15599.036
16435.406
16446.983
15581.543
15931.876
16859.745
16139.508
16673.972
15817.262
16647.901
16464.561
15621.658
17359.951
16600.174
17329.845
16593.018
16268.942
17130.47
17171.045
16285.952
3917.2486
3937.8395
4114.1774
4102.967
3929.1981
3896.5483
4062.8519
4098.9111
4654.3758
4541.1902
4596.939
4699.937
4711.1179
4601.4368
4598.3608
4722.1595
3897.638
3933.2074
4104.513
4091.8098
3901.8285
3902.7348
4071.0444
4064.2194
4537.6631
4531.0004
4637.0625
4633.2429
4691.5451
4585.2679
4593.3729
4724.4874
15408.679
16362.499
15740.204
16032.061
16566.085
16610.564
15906.123
15914.328
16265.627
15510.071
15949.297
15198.103
16474.334
15648.974
15645.908
16446.088
15973.495
15682.416
15005.163
15278.738
15636.299
14644.582
14417.814
15392.904
15389.623
16132.205
15418.232
16145.277
15807.548
15782.269
14771.124
14739.827
15638.852
16519.324
15865.24
16298.979
16396.116
15614.388
15301.199
14642.701
14526.345
15212.247
15598.364
15631.515
14934.953
14864.105
13944.766
14956.282
14044.462
14873.804
15226.374
14246.215
15294.614
14312.155
16293.231
16127.24
15653.672
15477.422
16017.893
15240.213
16164.976
15403.399
16119.617
16773.643
16111.602
16820.706
16650.093
15845.66
15836.658
16681.342
14988.518
15720.863
15127.252
15602.38
15606.102
14892.142
14764.818
15504.07
15398.267
16073.399
15431.727
16079.016
15944.263
15180.379
15929.086
15132.138
15858.303
15160.188
15024.512
15726.866
16325.241
15593.457
16332.194
15561.191
14429.411
15513.002
14536.651
15414.399
15939.276
15967.889
14911.426
14875.869
14757.134
13996.758
14675.289
13900.819
14152.22
13244.779
14227.76
13338.293
15102.514
15115.699
14295.976
14267.709
14508.989
13544.628
14517.361
13568.948
13541.915
12829.364
13466.631
12748.261
12965.627
12279.03
12220.889
13029.743
13768.763
13022.442
13761.954
13001.323
13212.915
12378.864
13221.629
12449.687
14264.531
14188.805
13564.774
13470.141
13724.619
12868.264
13802.116
12964.779
14535.776
13775.544
13727.827
14496.627
13083.634
14013.408
13120.627
13986.524
13170.042
13090.51
12488.984
12403.301
12616.332
11863.564
12687.031
11925.198
13329.72
12617.275
12585.782
13309.148
12011.532
12823.398
12081.041
12803.657
13427.946
14325.899
14154.813
13262.336
14093.622
14864.067
14661.066
13903.388
14989.919
14185.158
14982.341
410.76395
564.42301
555.8855
922.10569
697.93201
686.72653
899.11187
888.19045
896.23141
678.30547
684.0591
934.51479
712.42461
1322.7348
1310.8683
1554.704
1553.2018
1380.6233
1411.1791
1664.3851
1619.1296
1933.8275
1985.0933
2245.6813
2198.9675
2149.2475
1866.9582
1859.6125
2131.9561
2492.5728
2517.7069
2789.7032
2757.6806
2558.9957
2596.5905
2841.3581
2810.2843
3234.3714
3251.5289
3464.6257
3450.0901
3468.0913
3224.9725
3188.9149
3428.5123
3440.706
3216.5793
3213.9839
3451.963
2772.0905
2495.7087
2484.7442
2761.9874
2537.2567
2513.5508
2788.2711
2795.5676
3472.5613
3232.6202
3227.0789
3455.743
1329.1203
1324.8972
1560.2692
1580.8623
1283.1967
1291.0993
1532.2005
1515.9964
2126.7388
1842.8295
1825.5138
2109.2691
2146.5448
1870.0177
1899.2151
2172.5453
1353.088
1365.8198
1605.5701
1589.1637
2156.8206
1906.9511
1895.0948
2150.0524
2188.2371
1926.2025
1958.1803
2225.5686
3339.3878
3138.0417
3164.7567
3385.5013
2729.5945
2493.7238
2498.4766
2742.403
2586.8788
2558.3897
2816.4983
2837.4684
3487.0651
3249.2051
3267.6663
3497.0569
12375.946
12320.393
12306.379
12141.427
12372.653
12238.589
12405.298
12302.812
12657.945
12641.922
12824.508
12682.709
12368.952
12274.018
12427.429
12292.085
11573.693
11565.943
11826.859
11735.851
12128.339
12116.249
12298.771
12182.226
12445.582
12409.933
12541.187
12413.561
12589.37
12526.759
12591.33
12430.29
498.51609
687.21891
700.6358
497.55192
691.22962
704.33893
457.59963
691.64782
692.77118
672.42311
668.70686
2219.7436
4017.0668
4032.4066
4696.7063
4688.0813
2274.6314
4105.5237
4116.0002
4789.7896
4793.9963
4141.0398
4098.7016
2274.4718
4832.254
4753.0007
4079.6087
4093.1482
2253.9446
4765.6303
4773.5891
6153.5844
6131.6429
10285.346
10206.536
15637.373
15366.313
6167.2893
6165.2674
10226.688
10338.293
15480.676
15645.697
6271.7331
6269.5655
10378.216
10479.037
15658.659
15800.44
6262.7438
6257.1214
10448.411
10331.228
15805.871
15486.364
18766.164
18766.693
22926.756
23044.624
18939.606
19011.677
23306.732
23155.805
18673.736
18558.121
22964.627
22707.254
18954.518
18982.877
23212.203
23250.747
26986.812
26804.729
39922.464
40537.333
52707.173
65375.606
65833.399
52962.366
27095.837
27267.674
41370.652
41257.87
66334.373
66531.448
53397.931
53417.591
27144.167
27195.273
41138.391
41054.665
66330.079
66212.046
53578.761
53370.493
41164.916
26943.416
26606.569
40047.476
53365.147
66356.643
65463.039
53014.067
18576.103
18597.324
22762.891
22843.741
18778.014
18850.449
23132.012
22986.395
18776.863
18809.277
23032.437
23074.785
18551.329
22838.834
18444.115
22611.546
26773.233
26636.803
39729.284
39248.547
26909.576
27060.972
40396.579
40410.537
65796.435
52242.982
52289.181
65530.03
65191.828
64783.921
51104.368
51559.845
66008.764
66257.948
53085.71
52725.356
53072.243
66087.4
65591.383
52666.632
27035.334
26946.892
40910.252
40369.048
26538.728
26801.911
39897.792
40466.262
6335.2989
6307.4888
10472.933
10530.987
15935.41
15685.07
6234.5842
6243.5384
10444.214
10349.805
15677.646
15837.888
6267.5887
6263.646
10517.669
10415.054
15891.967
15767.152
6247.9783
6245.6511
10453.184
15483.9
15843.125
10319.139
19037.836
19016.928
23343.342
23274.419
23022.057
18703.996
18597.361
22802.609
27390.779
27236.577
41497.567
41512.05
40252.737
26964.584
27133.72
40763.891
52961.376
65654.8
65976.001
53275.424
53721.062
66607.479
66587.452
53704.181
27201.758
27309.87
41427.986
41068.878
53621.67
66215.435
66629.156
53811.706
53507.571
66434.567
65898.32
52893.911
27013.95
26739.273
40115.068
40776.68
23087.837
18912.545
18910.442
23204.624
23435.475
19133.41
19070.06
23302.896
18815.532
18805.783
22974.042
23115.277
19074.581
19005.798
23373.614
23234.347
23303.976
19103.17
19081.681
23361.575
18771.544
18870.413
23138.884
22916.576
39979.951
26845.708
27054.325
40500.032
27160.52
27303.47
41203.585
41110.632
66277.419
53392.78
53316.469
66049.076
52519.327
65394.662
65736.95
52789.56
27084.028
26793.48
40428.059
41390.634
66521.389
66769.566
53904.604
53627.128
54025.431
66465.017
65667.011
53691.544
27285.397
27203.878
41523.552
41139.738
6999.1972
7017.7064
7131.269
7133.8209
2025.0926
5177.0685
5061.6624
4510.6567
4610.7314
7104.8494
8137.3809
8122.8944
7100.9079
7969.9207
7992.4138
6979.0434
6968.6101
2022.1027
5137.1817
11284.198
16808.342
11185.7
16533.851
21533.134
21508.077
21306.779
21047.553
21192.362
16636.227
21270.828
11314.42
16852.408
11421.67
21610.316
21434.085
25069.742
25271.805
25588.135
25394.315
25431.889
25559.783
25326.396
25007.632
29331.896
29075.662
55595.699
56725.115
58365.816
97614.446
97915.722
58844.893
58711.355
29688.839
29449.245
57843.596
98236.522
98463.287
59206.949
59039.582
57924.566
29496.01
29654.711
58500.544
58989.733
29471.272
29085.184
57624.404
59018.428
98151.877
98401.146
59263.916
98360.957
98545.719
59251.37
58853.728
330.67909
400.726
39739.715
39471.892
40263.633
40575.313
40381.042
39905.556
38789.098
40025
39361.319
38954.411
39925.028
40294.974
41558.825
40838.464
40411.331
41149.058
74334.879
36858.657
73453.533
36238.896
73756.11
36866.151
74633.029
37380.494
72460.103
34969.583
70945.692
34006.126
73741.956
36165.208
73366.252
36017.757
36326.246
37275.757
38519.048
38576.66
39078.379
39846.725
40222.601
39617.04
40262.027
39622.744
40645.577
40884.068
40480.584
40985.121
40897.282
39896.179
19380.224
18286.205
18422.963
19565.087
30425.47
36798.531
26687.95
26755.386
27019.452
27082.386
29077.625
29243.233
28826.299
28934.027
17921.83
16983.799
18112.672
19189.963
30650.628
30297.507
36633.963
37008.889
27449.499
27232.43
33230.882
33447.317
28211.027
27567.436
28165.343
27609.817
28789.349
29387.255
29422.124
28830.875
30520.711
29631.449
30247.037
29851.522
30891.111
16098.297
15215.348
16044.473
17076.47
16262.604
16197.358
17236.259
17332.514
16460.672
15551.765
11821.699
12808.742
14655.637
13737.143
14341.586
13437.049
13962.129
15012.545
12509.451
11517.312
11772.791
12886.303
11983.243
11947.647
13053.845
13084.021
15165.378
14113.108
14149.114
15206.818
14680.753
13929.332
13868.6
14645.064
14970.244
14995.465
14183.051
14144.068
13218.12
14169.332
13285.94
14123.18
14383.454
13436.764
14411.219
13473.36
13420.13
14336.732
13628.058
14116.683
13883.91
13032.624
12846.169
13688.212
13504.315
14323.156
13589.211
14236.693
13847.539
12974.334
13777.95
12905.8
12397.002
13251.884
12556.919
13076.215
11985.814
12766.018
12612.456
11849.166
13141.425
12433.982
13196.922
12491.892
11954.653
12704.098
12655.888
11867.665
13494.556
12780.904
12719.345
13441.328
12208.581
12931.19
12979.135
12159.223
13677.541
13652.571
12932.171
12899.374
12339.871
13104.384
12265.579
13128.206
13255.194
12551.345
12369.979
13056.89
13179.887
13192.245
12480.873
12457.024
11810.001
12761.597
11971.797
12579.352
12674.224
11872.875
12688.742
11932.11
14370.005
13639.333
13517.259
14254.59
14166.635
14299.189
13560.63
13443.011
12900.231
13889.981
13016.851
13780.747
13710.102
12836.947
13809.497
12928.359
13415.119
14362.169
13641.315
14119.665
13899.296
13033.59
12828.739
13679.802
13567.483
14344.528
13601.818
14319.021
13855.334
12973.022
13836.424
12946.678
13232.623
12522.847
12421.01
13127.975
13145.671
12435.512
13068.48
12361.412
11856.588
12725.539
11943.51
12633.162
12576.042
11763.738
12639.057
11859.234
14404.847
15363.668
14695.407
15073.115
15043.795
14115.754
13858.408
14759.901
14645.231
15367.727
14689.252
15371.646
15060.928
14102.981
15010.319
14057.033
15745.705
15136.828
14837.933
15448.887
15762.102
15132.077
15145.647
15804.218
15648.428
14919.033
14619.722
15351.175
15651.78
14906.179
14901.641
15681.216
15839.62
15201.108
15034.848
15684.985
15677.268
15800.946
15166.443
15027.406
15706.597
14956.102
14786.738
15556.362
15537.09
15675.703
14916.564
14761.21
15403.808
14712.68
14558.581
15252.033
15208.142
15367.106
14670.495
14494.623
14126.341
13992.145
15054.229
14922.325
14826.906
15013.989
14064.859
13908.733
14408.549
15360.339
14695.326
15066.92
15029.282
14102.772
13859.166
14763.057
15265.765
14557.99
15353.27
14673.837
15036.976
14082.33
14916.299
13975.262
16221.397
15581.964
15432.215
16091.249
16574.376
15930.064
15934.421
16615.84
15198.344
16093.375
15333.672
15969.662
15671.403
16473.792
15692.201
16490.938
14825.996
15754.417
15156.982
15432.011
15657.259
14933.252
14615.685
15336.703
15067.279
15770.786
15141.734
15730.697
15653.824
14903.633
15586.637
14810.801
15784.826
15090.61
14997.101
15688.473
16178.003
15464.697
16164.023
15421.196
14460.316
14401.866
15439.84
15390.834
15803.671
15846.161
14795.216
14756.263
14205.952
14392.702
14859.872
14832.437
14106.625
13927.02
14669.711
15543.992
14830.203
15522.082
14828.823
15300.94
14508.032
15331.575
14513.494
17026.204
16022.959
15839.708
16869.542
17397.257
17435.878
16417.179
16363.32
15350.347
16470.422
15535.517
16313.82
16873.261
15893.671
16892.704
15927.728
14451.403
15603.995
16648.151
16061.644
15108.517
16065.72
15098.262
15974.162
15293.899
15115.136
15815.143
16391.182
15687.718
16390.221
15668.299
14989.576
14824.268
15783.327
15630.962
16212.007
16201.612
15378.941
15368.166
19311.562
19212.841
17653.888
17478.002
17892.033
16642.217
16450.487
18040.571
19732.222
19688.178
17959.958
18042.732
18450.834
18397.033
17023.756
16950.58
20702.345
20700.829
18992.818
18867.599
19396.383
19323.936
21129.092
21121.893
5506.1509
5458.0224
5589.73
5637.1811
20238.812
19836.516
21505.272
21503.749
19715.285
19583.464
19596.147
19489.278
21330.206
21302.639
5734.4563
5686.9211
5739.495
5792.0325
20442.293
20633.274
20734.987
20687.113
19109.589
18903.765
19218.192
19172.839
20951.656
20970.091
5670.9863
5617.7458
5574.0614
5620.5789
20084.072
19843.042
19437.016
19241.541
17564.03
17843.089
18247.245
17982.617
16907.408
16596.195
17806.749
19539.615
17866.842
19523.548
16876.395
18273.765
18242.603
16817.973
5127.0293
5062.0759
5016.7342
5070.8037
5147.409
5138.1741
5184.3619
5213.1845
18145.901
20037.653
18322.059
19936.419
17292.13
18728.475
18581.722
17096.898
18126.171
19936.248
18258.046
19845.464
17268.254
18680.928
18565.443
17134.656
16486.559
17706.411
16678.827
17544.268
17155.915
16191.683
15997.75
16991.105
17589.683
16570.29
17699.746
16691.754
17185.459
16227.95
17086.176
16118.283
15454.815
16415.923
15762.07
16123.013
15505.821
16285.613
15993.162
15211.961
16314.424
15608.293
16319.642
15634.356
15366.364
16163.135
16163.299
15347.729
16050.231
17322.104
16370.037
17029.374
16848.95
16548.172
15950.219
15633.82
16251.972
17294.041
16299.089
17268.206
15847.513
16783.293
16765.646
15812.613
15759.806
16659.948
15952.984
16489.282
15654.044
16471.768
16299.524
15468.177
16622.521
15904.757
16711.216
16008.849
15722.501
16541.455
16454.136
15623.278
3882.4184
3951.1081
4108.5839
4059.0848
3827.8673
3901.5397
4054.8441
3991.6146
4460.7128
4512.7288
4604.9833
4550.2157
4671.6224
4577.1943
4540.3724
4656.2999
15251.715
16253.002
15588.082
15939.02
16084.273
15302.606
14963.704
15755.182
16315.499
15576.634
16338.325
15627.47
16130.13
15307.144
16099.964
15249.832
17876.167
16835.365
16654.106
17719.718
18121.528
18126.345
17096.351
17079.836
16149.356
17304.957
16330.833
17151.414
17608.66
16614.796
17592.005
16612.287
15959.173
17248.262
16276.036
16969.937
16732.111
15816.615
15487.068
16427.252
16355.813
17448.741
16406.5
17425.387
16868.71
15893.594
16844.501
15844.689
16789.397
16078.88
15904.421
16634.729
17096.248
16382.246
17129.795
16395.931
15754.958
15594.36
16587.297
16439.924
16958.008
16917.469
16077.451
16095.326
20225.611
20115.424
18513.194
18329.482
18766.771
17470.14
17276.05
18921.094
20416.772
20392.996
18659.439
18712.867
19139.823
19114.121
17695.209
17656.639
17569.409
19444.132
17830.657
19266.194
18225.414
16857.807
16560.711
17980.437
18055.308
19850.021
18113.614
19840.817
18511.029
17050.82
18483.092
16992.844
20771.299
20731.894
19116.573
18921.212
19527.412
19483.244
21343.384
21364.98
5718.7644
5717.1334
5752.9687
5742.868
19901.224
20487.315
21662.936
21653.729
19888.952
19751.759
20066.37
20017.559
21826.37
21826.682
5907.9542
5864.6262
5971.5578
6026.73
20926.671
20768.009
5244.4204
5216.5307
5194.5927
5223.2504
5352.1566
5304.6641
5354.2125
5424.8472
21696.798
21692.595
19797.665
19674.003
19458.59
19350.252
21272.15
21237.501
5786.2083
5782.8041
5766.0338
5784.5849
20410.459
20843.303
20997.316
20958.1
19243.86
19061.068
19576.009
19546.484
21446.626
21464.496
5668.0602
5646.6378
5676.6292
5690.5431
20582.256
20122.97
19577.948
19396.573
17642.088
17899.835
18300.947
18049.878
16888.197
16595.64
18094.564
19902.125
18131.906
19899.047
17050.619
18534.205
18523.418
17019.907
5169.2667
5142.9554
5149.6153
5177.3043
5217.5561
5283.8571
5293.8049
5254.5064
18159.653
20118.608
18332.308
20015.122
17224.272
18724.613
18574.591
17033.594
17935.739
19798.945
18081.296
19693.752
17049.674
18495.999
18358.355
16897.201
4772.3409
4707.1301
4658.0647
4728.2031
4241.6091
4093.5845
4022.0036
4174.4737
4041.1734
4079.4151
4246.2591
4226.0174
4827.8701
4730.5883
4726.9726
4844.491
4030.6607
4130.1759
4276.2416
4178.8471
3995.3043
4012.2228
4149.1685
4136.97
4687.7067
4612.4524
4613.0601
4680.9855
4821.6536
4758.3484
4657.0845
4737.8672
16356.06
17615.369
16542.204
17454.215
16992.039
15992.318
15805.156
16830.822
17329.69
16285.817
17462.793
16427.023
16895.57
15914.676
16772.08
15783.578
15523.211
16435.477
15709.378
16269.127
15378.038
16205.777
16037.519
15198.068
16254.245
15522.624
16370.059
15653.157