/*--------------------------------*- C++ -*----------------------------------*\
  =========                 |
  \\      /  F ield         | OpenFOAM: The Open Source CFD Toolbox
   \\    /   O peration     | Website:  https://openfoam.org
    \\  /    A nd           | Version:  7
     \\/     M anipulation  |
\*---------------------------------------------------------------------------*/
FoamFile
{
    version     2.0;
    format      ascii;
    class       volVectorField;
    location    "7000";
    object      U;
}
// * * * * * * * * * * * * * * * * * * * * * * * * * * * * * * * * * * * * * //

dimensions      [0 1 -1 0 0 0 0];

internalField   nonuniform List<vector> 
33730
(
(-5.4650504e+41 -1.3704901e+41 5.4013181e+40)
(-4.4074581e+41 -4.8572269e+40 1.7865735e+40)
(-4.0864761e+41 -1.3173199e+41 3.0942689e+40)
(-4.277416e+41 -5.3516423e+40 6.131364e+40)
(-3.5218943e+41 -2.7963421e+40 9.2708538e+40)
(-3.6542492e+41 -5.3323316e+40 5.5122666e+40)
(-3.191008e+41 -3.229541e+40 1.1831223e+41)
(-4.3069909e+41 -9.0655621e+40 4.9247427e+40)
(-3.291961e+41 -3.3594313e+40 1.1127814e+41)
(-4.2680305e+41 -3.465482e+40 -5.2958788e+40)
(-4.3464357e+41 -1.9245191e+40 5.9601905e+40)
(-4.5732835e+41 -3.1365422e+40 3.1479314e+40)
(-3.9077815e+41 -2.6906999e+40 4.1715174e+40)
(-4.3801994e+41 -4.322124e+40 1.6112651e+40)
(-4.359933e+41 -9.4364954e+40 -4.1910723e+40)
(-4.3695717e+41 -5.9075699e+40 -3.9002532e+40)
(-3.0150691e+41 -9.5931038e+40 2.5279921e+40)
(-3.0144114e+41 -6.3041696e+40 2.8926566e+40)
(-3.3853492e+41 -4.3949082e+40 -1.4715752e+40)
(-3.3658731e+41 -5.5661573e+40 -4.3005035e+40)
(-2.3471944e+41 -6.9486621e+40 2.5996669e+40)
(-3.6509573e+41 -3.2296017e+40 6.2193558e+40)
(-3.7027531e+41 -5.2629297e+40 5.5280521e+40)
(-3.5758883e+41 -2.3715402e+40 9.7631492e+40)
(-3.4702648e+41 -2.973298e+40 1.0035929e+41)
(-3.0183244e+41 -1.9811754e+40 5.5723254e+40)
(-3.0332637e+41 -3.3664064e+40 5.3305234e+40)
(-3.2896694e+41 -1.9487405e+40 7.3478173e+40)
(-3.2549904e+41 -2.1522129e+40 7.5030084e+40)
(-3.6433134e+41 -5.5057377e+40 5.1249223e+40)
(-3.5802575e+41 -3.2005186e+40 5.6365869e+40)
(-3.4697839e+41 -2.1601843e+40 9.1906838e+40)
(-3.3411412e+41 -2.0239019e+40 9.351924e+40)
(-4.2260042e+41 -4.2622946e+40 6.2214428e+40)
(-4.2955818e+41 -3.0889884e+40 -5.2705145e+40)
(-4.2824147e+41 -1.7944585e+40 -4.8818702e+40)
(-4.2790578e+41 -1.3883746e+40 5.8408867e+40)
(-3.8045136e+41 -2.2084937e+40 -4.3064908e+40)
(-3.9505013e+41 -2.8021023e+40 1.401933e+40)
(-3.8590147e+41 -1.4751667e+40 -4.1742427e+40)
(-3.9841731e+41 -1.1805231e+40 1.3029482e+40)
(-4.2718495e+41 -9.5197486e+39 5.458586e+40)
(-4.0238778e+41 -1.7589803e+40 -1.6696255e+40)
(-3.9520179e+41 -2.4748287e+40 -2.2811659e+40)
(-3.8574091e+41 -1.355449e+40 4.4999535e+40)
(-3.8719452e+41 -2.7931849e+40 -7.6757321e+39)
(-3.9366808e+41 -1.1251212e+40 -2.828367e+39)
(-3.9758775e+41 -2.6174951e+40 5.2599816e+40)
(-3.9960247e+41 -2.3594256e+40 4.6748662e+40)
(-3.4233769e+41 -1.7818364e+40 4.4073351e+40)
(-3.4543734e+41 -2.0529034e+40 4.6135761e+40)
(-3.8730667e+41 -2.1513636e+40 4.330785e+40)
(-3.8685055e+41 -2.0600499e+40 4.4604104e+40)
(-3.3134683e+41 -2.3661323e+40 -5.7429502e+40)
(-3.4060798e+41 -2.5321244e+40 -5.594198e+40)
(-3.2974132e+41 -3.7323478e+40 -1.6853867e+40)
(-3.2681137e+41 -1.8596245e+40 -1.8426425e+40)
(-3.4625554e+41 -2.8212094e+40 -5.7395355e+40)
(-3.3619418e+41 -3.9657745e+40 -1.4046316e+40)
(-3.3022732e+41 -2.2544345e+40 -1.8146337e+40)
(-3.3344766e+41 -2.7837239e+40 -5.6996909e+40)
(-3.3039135e+41 -5.1493585e+40 -4.3794949e+40)
(-3.304634e+41 -2.780704e+40 -4.3465541e+40)
(-2.2837371e+41 -3.5658202e+40 2.3247811e+40)
(-2.2330628e+41 -6.5871706e+40 1.90377e+40)
(-3.4018086e+41 -5.3644063e+40 -4.4025445e+40)
(-3.3307883e+41 -2.9463262e+40 -4.3528502e+40)
(-2.321992e+41 -3.682515e+40 2.7359021e+40)
(-2.3429949e+41 -6.6329956e+40 2.5875755e+40)
(-3.9274452e+41 -2.9740586e+40 -5.5382262e+40)
(-2.7455064e+41 -1.7715129e+40 -5.4797705e+40)
(-2.7066661e+41 -1.6470359e+40 -5.5999914e+40)
(-2.3656689e+41 -1.1994047e+40 -3.233987e+40)
(-2.3741265e+41 -2.5793614e+40 -3.1185911e+40)
(-1.9803886e+41 -3.566838e+40 -3.6655906e+40)
(-2.009116e+41 -1.9041237e+40 -3.4867538e+40)
(-1.716566e+41 -4.6871055e+40 2.694788e+40)
(-1.7581879e+41 -2.0637637e+40 3.2223162e+40)
(-3.3608434e+41 -1.7751071e+40 7.9087203e+40)
(-3.0741735e+41 -3.1412332e+40 5.5740632e+40)
(-3.0222395e+41 -2.0181906e+40 5.9024881e+40)
(-3.2685399e+41 -2.2476306e+40 7.9363461e+40)
(-3.0460417e+41 -3.2895485e+40 5.3364999e+40)
(-3.0196826e+41 -1.9068421e+40 5.6447532e+40)
(-3.3145681e+41 -1.5742683e+40 7.5494279e+40)
(-3.2893074e+41 -1.7916581e+40 7.7682149e+40)
(-2.6190183e+41 -2.175769e+40 5.1846994e+40)
(-2.5854397e+41 -1.2427332e+40 5.4208784e+40)
(-2.9379206e+41 -1.4466472e+40 6.2666705e+40)
(-2.9044301e+41 -1.6141169e+40 6.3345314e+40)
(-2.5987067e+41 -2.2389853e+40 5.155782e+40)
(-2.5900522e+41 -1.4296222e+40 5.2786283e+40)
(-2.9223501e+41 -1.4640091e+40 6.2692756e+40)
(-2.9138748e+41 -1.5694036e+40 6.3214766e+40)
(-3.0089785e+41 -3.3112718e+40 5.0304045e+40)
(-2.9935598e+41 -2.0678391e+40 5.3986902e+40)
(-3.25066e+41 -1.6465635e+40 7.2500434e+40)
(-3.2378386e+41 -1.7931106e+40 7.4632226e+40)
(-3.0294697e+41 -3.2785591e+40 5.1858443e+40)
(-3.2257707e+41 -1.4991823e+40 7.2333957e+40)
(-2.9824303e+41 -1.9823696e+40 5.5952236e+40)
(-3.157084e+41 -1.7905645e+40 7.3242383e+40)
(-3.387414e+41 -1.493625e+40 -2.7745683e+40)
(-3.4673912e+41 -9.1913511e+39 -3.0254413e+38)
(-3.8455031e+41 -8.5051494e+39 -4.2942421e+39)
(-3.5960555e+41 -1.8616617e+40 -5.2719288e+40)
(-3.9257554e+41 -1.0329511e+40 4.8333433e+40)
(-3.8181199e+41 -2.9273873e+40 4.9370148e+40)
(-3.9622404e+41 -1.5348105e+40 -1.8502591e+40)
(-3.9925441e+41 -2.4471747e+40 -1.9548818e+40)
(-3.9073944e+41 -6.711875e+39 1.4166372e+40)
(-3.7756975e+41 -1.7394945e+40 -3.9984705e+40)
(-3.740823e+41 -1.0620164e+40 -3.9473869e+40)
(-3.866306e+41 -2.3358133e+40 1.5663616e+40)
(-3.9565747e+41 -1.0245612e+40 1.3299215e+40)
(-3.829447e+41 -1.9180842e+40 -4.2374069e+40)
(-3.8266791e+41 -1.3608045e+40 -3.8839374e+40)
(-4.1903239e+41 -3.3351652e+40 5.5931587e+40)
(-3.8973052e+41 -2.6603776e+40 1.5524705e+40)
(-3.8820036e+41 -5.0216262e+39 -3.2197145e+39)
(-3.8108938e+41 -7.7173473e+39 4.5832727e+40)
(-3.9423193e+41 -2.1573854e+40 -1.8162071e+40)
(-3.8894613e+41 -1.3105488e+40 -2.008778e+40)
(-3.7317136e+41 -2.7176036e+40 4.4464251e+40)
(-3.3695407e+41 -9.415795e+39 -2.7194041e+40)
(-3.3566727e+41 -1.430211e+40 -2.7871504e+40)
(-3.4460123e+41 -8.8754054e+39 -8.7826273e+38)
(-3.8465251e+41 -1.0084631e+40 -4.5397061e+39)
(-3.4430643e+41 -1.6297916e+40 -5.7723823e+38)
(-3.3517046e+41 -1.0163304e+40 -2.4614632e+40)
(-3.3449404e+41 -1.5949176e+40 -2.6640918e+40)
(-3.3596107e+41 -1.7435761e+40 1.6872458e+39)
(-3.3824905e+41 -8.9851396e+39 6.6996131e+38)
(-3.3774674e+41 -9.6687388e+39 -2.7319313e+40)
(-3.3811876e+41 -1.4020449e+40 -2.8691932e+40)
(-3.4470315e+41 -1.7033756e+40 -4.1688033e+38)
(-3.4631005e+41 -8.8292929e+39 -1.4802304e+39)
(-3.887351e+41 -2.5753244e+40 -2.693009e+39)
(-3.338427e+41 -9.4396763e+39 -2.4815905e+40)
(-3.324912e+41 -1.56341e+40 -2.5932719e+40)
(-3.345233e+41 -9.6475305e+39 -6.9127613e+38)
(-3.3356668e+41 -1.7450903e+40 -5.1737741e+38)
(-3.6626961e+41 -1.0968632e+40 -5.099592e+40)
(-3.624301e+41 -1.923794e+40 -5.431948e+40)
(-3.346653e+41 -1.4951882e+40 -1.7392055e+40)
(-3.4490054e+41 -9.0808577e+39 1.84236e+40)
(-3.3500381e+41 -1.2382131e+40 -1.5375328e+40)
(-3.417856e+41 -9.0215127e+39 1.8330691e+40)
(-3.3337895e+41 -1.1379226e+40 -1.6832517e+40)
(-3.311212e+41 -1.5471622e+40 -1.7818991e+40)
(-3.4045553e+41 -1.9539582e+40 1.8828897e+40)
(-3.4804677e+41 -1.3858418e+40 3.2978495e+39)
(-3.4397214e+41 -2.502652e+40 4.6398616e+40)
(-3.4617783e+41 -1.760184e+40 2.2744505e+39)
(-3.4530444e+41 -1.0328888e+40 4.6392414e+40)
(-3.4922719e+41 -1.6825089e+40 1.7161009e+39)
(-3.3889063e+41 -1.4576795e+40 -8.491421e+40)
(-4.6416866e+41 -9.9367437e+39 6.0951463e+40)
(-3.2794272e+41 -1.4405338e+40 3.8117576e+38)
(-3.8427431e+41 -1.1009233e+39 2.0106574e+40)
(-3.8011371e+41 -2.4190902e+40 2.4446726e+40)
(-3.2574029e+41 -1.1523976e+40 3.2220738e+39)
(-3.26515e+41 -1.6268604e+40 4.2764163e+39)
(-3.8302105e+41 -5.1231599e+39 2.391581e+40)
(-3.4606897e+41 -1.9836334e+40 5.0629467e+40)
(-3.508731e+41 -1.5821433e+40 4.8503622e+40)
(-3.4732672e+41 -1.7535663e+40 4.7607333e+40)
(-3.4433985e+41 -1.4408818e+40 4.5420575e+40)
(-2.9592114e+41 -1.3111415e+40 4.181992e+40)
(-2.9864855e+41 -1.5309163e+40 4.3029575e+40)
(-2.9795327e+41 -1.2570046e+40 4.1084904e+40)
(-2.978413e+41 -1.5104365e+40 4.3280277e+40)
(-3.3789822e+41 -1.3650662e+40 4.4061317e+40)
(-3.4278365e+41 -1.6667507e+40 4.6518639e+40)
(-3.3919923e+41 -1.3404078e+40 4.3814052e+40)
(-3.387855e+41 -1.6086245e+40 4.6987172e+40)
(-4.5337758e+41 -4.6490331e+40 -3.7305723e+40)
(-4.6175957e+41 -4.9806195e+40 -3.5659891e+40)
(-3.6773443e+41 -2.1363652e+40 -2.1688316e+39)
(-3.666256e+41 -2.6450431e+40 -3.4206919e+38)
(-3.8126965e+41 -2.4855274e+40 -5.5975168e+40)
(-3.8483266e+41 -2.8142014e+40 -5.6549279e+40)
(-3.6995947e+41 -2.9277714e+40 2.6401838e+39)
(-3.8917649e+41 -2.7636826e+40 -5.4669527e+40)
(-3.8968494e+41 -3.0166611e+40 -5.6929128e+40)
(-3.7006199e+41 -2.3258216e+40 -1.4624789e+38)
(-2.7034781e+41 -1.087867e+40 -5.4063122e+40)
(-2.6510409e+41 -9.4427502e+39 -5.4411141e+40)
(-2.3145996e+41 -6.8106799e+39 -3.2189277e+40)
(-2.3456571e+41 -1.9855115e+40 -3.1007425e+40)
(-2.3571949e+41 -2.043269e+40 -2.998097e+40)
(-2.7122079e+41 -1.152071e+40 -5.5621055e+40)
(-2.6503063e+41 -1.1603872e+40 -5.5607335e+40)
(-2.3147192e+41 -8.7277607e+39 -3.2253243e+40)
(-2.0337839e+41 -3.3713499e+40 -3.6119056e+40)
(-1.9798251e+41 -1.7964699e+40 -3.4476241e+40)
(-1.7263687e+41 -4.4634853e+40 2.8537475e+40)
(-1.6898093e+41 -2.0058168e+40 3.1070144e+40)
(-1.9610997e+41 -3.1649128e+40 -3.6670322e+40)
(-1.9762502e+41 -1.6806552e+40 -3.4476037e+40)
(-1.6492764e+41 -4.4560666e+40 2.3722751e+40)
(-1.6945787e+41 -2.1758432e+40 3.012321e+40)
(-2.7279484e+41 -1.3535694e+40 -5.3609913e+40)
(-2.6726804e+41 -1.1905189e+40 -5.4176841e+40)
(-2.3221367e+41 -8.4300087e+39 -3.0640135e+40)
(-2.3638206e+41 -2.2412986e+40 -2.9779828e+40)
(-2.6644873e+41 -1.5390724e+40 -5.6947319e+40)
(-2.7285054e+41 -1.4242598e+40 -5.6560001e+40)
(-2.3677603e+41 -2.2225316e+40 -3.0314814e+40)
(-2.3350926e+41 -1.1490398e+40 -3.3421152e+40)
(-1.9762357e+41 -1.866804e+40 -3.5272136e+40)
(-1.7484613e+41 -4.3964421e+40 3.0308101e+40)
(-1.7244206e+41 -2.1289233e+40 3.2580201e+40)
(-2.0164346e+41 -3.3100681e+40 -3.5455409e+40)
(-1.9970312e+41 -3.3992386e+40 -3.548656e+40)
(-1.981395e+41 -1.7229054e+40 -3.2808833e+40)
(-1.7003557e+41 -4.5175294e+40 2.7053055e+40)
(-1.7120184e+41 -1.9943428e+40 3.2280537e+40)
(-4.0469261e+41 -2.4848704e+40 -4.3616283e+40)
(-2.9693227e+41 -1.4982042e+40 -3.0724752e+40)
(-2.9513303e+41 -1.8006389e+40 -2.7694395e+40)
(-3.0689475e+41 -2.147284e+40 -7.1033736e+40)
(-3.0579063e+41 -2.0920965e+40 -6.9744295e+40)
(-1.5321769e+41 -7.68844e+39 -4.9356405e+40)
(-1.5169369e+41 -8.4734048e+39 -4.9711466e+40)
(-1.5104769e+41 -2.2523791e+40 -3.4344054e+40)
(-1.5096494e+41 -1.2082e+40 -3.2359177e+40)
(-1.53968e+41 -7.4816462e+39 -5.0199686e+40)
(-1.5166246e+41 -9.0113129e+39 -5.1482899e+40)
(-1.5407359e+41 -2.2286994e+40 -3.2036723e+40)
(-1.516476e+41 -1.2675051e+40 -3.3206637e+40)
(-1.0772083e+41 -2.8876809e+40 -4.6762134e+39)
(-1.5892012e+41 -2.9351695e+40 4.2655539e+40)
(-1.1246744e+41 -1.9440443e+40 5.4320067e+39)
(-1.5957709e+41 -1.3087253e+40 4.6324097e+40)
(-1.1370063e+41 -2.8519231e+40 9.4570115e+38)
(-1.1428065e+41 -1.8659988e+40 7.1385835e+39)
(-1.621692e+41 -2.8487276e+40 4.5235148e+40)
(-1.605471e+41 -1.0416533e+40 4.7475572e+40)
(-2.9585736e+41 -1.171856e+40 6.5010725e+40)
(-2.6251169e+41 -2.0363635e+40 5.2966234e+40)
(-2.6036601e+41 -1.2095457e+40 5.4276508e+40)
(-2.949468e+41 -1.3004513e+40 6.6048006e+40)
(-2.6300371e+41 -2.0034743e+40 5.3458838e+40)
(-2.5964789e+41 -1.2961139e+40 5.5595468e+40)
(-2.9428281e+41 -1.2790176e+40 6.5783813e+40)
(-2.9030458e+41 -1.6009696e+40 6.6022639e+40)
(-2.6009831e+41 -2.1253885e+40 5.1106737e+40)
(-2.5945264e+41 -1.3323565e+40 5.2999739e+40)
(-2.9177439e+41 -1.2150727e+40 6.3129697e+40)
(-2.9165123e+41 -1.332098e+40 6.4080633e+40)
(-2.6006067e+41 -1.1719633e+40 5.4881547e+40)
(-2.6218102e+41 -2.0710138e+40 5.2112084e+40)
(-2.9411363e+41 -1.2068202e+40 6.3980969e+40)
(-2.9064976e+41 -1.3544327e+40 6.4408377e+40)
(-2.05684e+41 -8.8853716e+39 5.3261056e+40)
(-2.0632177e+41 -1.710148e+40 5.2098654e+40)
(-2.6258917e+41 -1.1135693e+40 5.5562929e+40)
(-2.6141465e+41 -1.0730504e+40 5.4464056e+40)
(-2.0642998e+41 -7.0730415e+39 5.4922804e+40)
(-2.0497971e+41 -1.4650033e+40 5.2497967e+40)
(-2.6121538e+41 -9.9389687e+39 5.5174851e+40)
(-2.5974482e+41 -1.1339404e+40 5.5210959e+40)
(-2.0613459e+41 -1.0304679e+40 5.2800847e+40)
(-2.0674089e+41 -1.7030811e+40 5.1924771e+40)
(-2.604881e+41 -1.1429187e+40 5.5022898e+40)
(-2.6017483e+41 -1.198378e+40 5.5165429e+40)
(-2.619863e+41 -1.1358425e+40 5.4543145e+40)
(-2.0538402e+41 -1.666751e+40 5.158904e+40)
(-2.0849758e+41 -9.026976e+39 5.446285e+40)
(-2.6217506e+41 -1.2475159e+40 5.6407973e+40)
(-2.5778361e+41 -2.114454e+40 4.9368566e+40)
(-2.5723902e+41 -1.3607395e+40 5.1403924e+40)
(-2.8949552e+41 -1.2727093e+40 6.1143891e+40)
(-2.884836e+41 -1.3534052e+40 6.176433e+40)
(-2.9135269e+41 -1.2262848e+40 6.1831219e+40)
(-2.5964696e+41 -2.1281058e+40 5.0497211e+40)
(-2.5773968e+41 -1.3223164e+40 5.3315357e+40)
(-2.8817264e+41 -1.3934731e+40 6.2364003e+40)
(-2.5867298e+41 -2.1667573e+40 5.036409e+40)
(-2.5698642e+41 -1.2691392e+40 5.2056553e+40)
(-2.8847619e+41 -1.1438215e+40 6.1017673e+40)
(-2.8682786e+41 -1.1744389e+40 6.1713407e+40)
(-2.8813826e+41 -1.1113547e+40 6.2775958e+40)
(-2.5953843e+41 -1.9908121e+40 5.1385672e+40)
(-2.5693289e+41 -1.2066761e+40 5.3923036e+40)
(-2.8427644e+41 -1.3604098e+40 6.2991761e+40)
(-3.4307481e+41 -1.6095499e+40 -8.5297253e+39)
(-2.953023e+41 -5.7101922e+39 -1.3837073e+39)
(-2.9407159e+41 -1.0167318e+40 -1.7307806e+39)
(-3.4856543e+41 -9.3382951e+39 -5.577901e+39)
(-2.9214963e+41 -6.2445987e+39 -2.2490592e+40)
(-2.9305906e+41 -8.4830265e+39 -2.1047861e+40)
(-2.8130758e+41 -9.316465e+39 -1.46248e+40)
(-2.8336034e+41 -6.7845003e+39 -3.8358514e+39)
(-2.8161007e+41 -5.7454981e+39 -1.4161658e+40)
(-3.4251401e+41 -1.5222589e+40 -3.0214055e+40)
(-3.3835844e+41 -7.1941178e+39 -3.7223319e+40)
(-3.5501277e+41 -7.8541445e+39 -3.6189423e+39)
(-3.4012546e+41 -1.3857663e+40 -4.1496704e+40)
(-3.4109838e+41 -6.7530617e+39 -4.3490611e+40)
(-3.5128233e+41 -1.4251957e+40 -1.1347184e+40)
(-3.48713e+41 -1.2416185e+40 3.3664192e+39)
(-3.4949917e+41 -1.5964351e+40 3.5282416e+39)
(-3.501695e+41 -7.1223815e+39 4.8185766e+40)
(-3.4717809e+41 -2.2339449e+40 4.8213354e+40)
(-3.5091407e+41 -8.3258421e+39 4.9083336e+40)
(-3.4874386e+41 -1.4124368e+40 5.9628626e+39)
(-3.4916795e+41 -1.6972664e+40 4.6776464e+39)
(-3.4361399e+41 -2.3365174e+40 5.0004531e+40)
(-3.4246543e+41 -8.5836842e+39 2.016947e+40)
(-3.3289808e+41 -1.4091275e+40 -1.6822361e+40)
(-3.3268448e+41 -1.1142104e+40 -1.4496664e+40)
(-3.396734e+41 -2.0336062e+40 2.2081748e+40)
(-3.4671782e+41 -7.5340454e+39 1.9939891e+40)
(-3.343849e+41 -1.0581352e+40 -1.6175354e+40)
(-3.341653e+41 -1.440676e+40 -1.5832952e+40)
(-3.4446778e+41 -1.8523595e+40 2.0498219e+40)
(-3.3490959e+41 -6.6134197e+39 2.3897959e+39)
(-3.3159856e+41 -6.8096758e+39 -2.242571e+40)
(-3.3109112e+41 -1.2124309e+40 -2.2088603e+40)
(-3.3333176e+41 -1.5263296e+40 2.1497584e+39)
(-3.3951666e+41 -1.3015404e+40 4.8943753e+38)
(-3.3297386e+41 -6.5734479e+39 -2.5074925e+40)
(-3.2939568e+41 -7.2689591e+39 -2.6510986e+40)
(-3.2960247e+41 -1.1587307e+40 -2.7931862e+40)
(-3.3759335e+41 -6.3784866e+39 -1.4667755e+39)
(-3.7362068e+41 -2.1476245e+40 -3.7412633e+39)
(-3.3667886e+41 -1.4533993e+40 -1.75197e+38)
(-3.2721993e+41 -7.8680095e+39 -2.3966857e+40)
(-3.2791171e+41 -6.5648759e+39 -1.218757e+39)
(-3.2658478e+41 -1.3282018e+40 -2.5934236e+40)
(-3.2566622e+41 -1.3770487e+40 -4.7814892e+38)
(-3.5136281e+41 -8.4070657e+39 -5.0904856e+40)
(-3.3721879e+41 -8.1072936e+39 1.4510828e+39)
(-3.3450656e+41 -7.7293024e+39 -2.3665891e+40)
(-3.3335055e+41 -1.4064946e+40 -2.4237214e+40)
(-3.3733511e+41 -1.6360846e+40 1.7911867e+39)
(-3.4310297e+41 -1.4359287e+40 -9.2754235e+38)
(-3.4314582e+41 -7.1760204e+39 -9.3164982e+38)
(-3.3596375e+41 -1.2536692e+40 -2.7914821e+40)
(-3.3590226e+41 -7.8209419e+39 -2.7637308e+40)
(-3.8921806e+41 -6.4699623e+39 -3.6788228e+39)
(-3.360481e+41 -9.1806894e+39 -2.4823508e+40)
(-3.3628284e+41 -1.2721704e+40 -2.6522922e+40)
(-3.4346438e+41 -7.3784971e+39 1.2753648e+38)
(-3.8415542e+41 -2.3470698e+40 -1.4264282e+39)
(-3.4237808e+41 -1.6202137e+40 1.6304233e+39)
(-3.5960702e+41 -1.7329002e+40 -5.5425857e+40)
(-3.7252728e+41 -1.0458208e+40 -4.9845878e+40)
(-3.3412866e+41 -9.2487621e+39 -2.2154171e+40)
(-3.3169829e+41 -1.5825477e+40 1.4105379e+39)
(-3.3305826e+41 -1.3936789e+40 -2.4367077e+40)
(-3.3387106e+41 -7.6000088e+39 2.7454729e+38)
(-3.3773219e+41 -1.026151e+40 -8.3709786e+40)
(-3.3633487e+41 -2.9542698e+40 -8.4871181e+40)
(-4.6037908e+41 -1.8695603e+40 6.0517779e+40)
(-3.1688834e+41 -6.1276912e+39 5.2024879e+39)
(-3.6893637e+41 -1.9984608e+40 2.1654458e+40)
(-3.7762465e+41 -2.8388698e+39 2.3957971e+40)
(-3.1640369e+41 -1.200108e+40 4.6833476e+39)
(-3.7651344e+41 -2.2589143e+40 2.342773e+40)
(-3.2187117e+41 -5.9466481e+39 6.1522185e+39)
(-3.4508829e+41 -1.1110903e+40 4.3865283e+39)
(-3.4336474e+41 -1.3924387e+40 3.5309395e+39)
(-3.4194731e+41 -5.4017559e+39 4.6848052e+40)
(-3.419642e+41 -2.1109166e+40 4.7500591e+40)
(-3.3248015e+41 -1.2902598e+40 -1.439786e+40)
(-3.3765556e+41 -1.6760648e+40 1.9557867e+40)
(-3.3974698e+41 -5.5285563e+39 1.963823e+40)
(-3.3140278e+41 -9.8358475e+39 -1.5057409e+40)
(-3.2634881e+41 -9.48122e+39 -1.5915594e+40)
(-3.2763964e+41 -1.3476333e+40 -1.7149238e+40)
(-3.3548828e+41 -6.6844235e+39 1.7709413e+40)
(-3.324808e+41 -1.7418138e+40 1.8779662e+40)
(-3.4189124e+41 -1.1644068e+40 4.1790275e+39)
(-3.3459305e+41 -1.8742043e+40 4.5052265e+40)
(-3.4118497e+41 -1.4390191e+40 1.9020742e+39)
(-3.3845434e+41 -5.1360019e+39 4.4548014e+40)
(-2.9526888e+41 -5.7997286e+39 -1.9369361e+39)
(-2.9259125e+41 -9.8665749e+39 -2.62047e+39)
(-3.4303115e+41 -1.5772985e+40 -7.7536233e+39)
(-2.8969176e+41 -5.8071289e+39 -2.357234e+40)
(-2.9146852e+41 -8.4364771e+39 -2.1872988e+40)
(-2.9290679e+41 -6.7021085e+39 -2.5734734e+39)
(-2.9342158e+41 -1.0134737e+40 -1.8632576e+39)
(-3.4382665e+41 -8.8460333e+39 -7.2853505e+39)
(-2.9073185e+41 -6.2164662e+39 -2.2674815e+40)
(-2.8935949e+41 -9.0895148e+39 -2.355298e+40)
(-2.793788e+41 -1.0096618e+40 -1.5385512e+40)
(-2.8210708e+41 -7.2298186e+39 -4.982799e+39)
(-2.804541e+41 -6.1391452e+39 -1.4242209e+40)
(-2.8273127e+41 -1.0685302e+40 -4.4498858e+39)
(-3.38098e+41 -7.5654236e+39 -3.6265343e+40)
(-3.3806406e+41 -1.521746e+40 -3.6846403e+40)
(-2.8093177e+41 -9.6228169e+39 -1.5289517e+40)
(-2.8305891e+41 -6.1133502e+39 -4.7740579e+39)
(-2.7973637e+41 -6.2173079e+39 -1.4874157e+40)
(-2.8169521e+41 -9.8774129e+39 -4.8680627e+39)
(-2.7609056e+41 -9.4553525e+39 -1.7065553e+40)
(-2.7558075e+41 -6.9102728e+39 -1.6477726e+40)
(-2.8213203e+41 -6.7521124e+39 -1.9670135e+39)
(-2.8095669e+41 -1.1471973e+40 -1.4324734e+39)
(-2.749415e+41 -1.0344358e+40 -1.7722047e+40)
(-2.8157274e+41 -7.0751347e+39 -2.9125098e+39)
(-2.7702913e+41 -6.9358606e+39 -1.6902044e+40)
(-2.8247041e+41 -1.1031979e+40 -2.1924997e+39)
(-2.7540908e+41 -1.0864212e+40 -1.7214374e+40)
(-2.7963401e+41 -6.8379611e+39 -2.0151905e+39)
(-2.7525204e+41 -7.6776588e+39 -1.6370407e+40)
(-2.7421992e+41 -1.1061803e+40 -1.8100633e+40)
(-2.7906809e+41 -7.4244292e+39 -2.7220896e+39)
(-2.7615693e+41 -7.084336e+39 -1.7057568e+40)
(-2.7982843e+41 -1.2045746e+40 -2.1792714e+39)
(-2.9536349e+41 -5.4606444e+39 -2.0847202e+39)
(-2.9292783e+41 -9.8871443e+39 -2.4803264e+39)
(-3.4443118e+41 -1.5167885e+40 -8.8542561e+39)
(-2.9031717e+41 -5.7039003e+39 -2.3485868e+40)
(-2.9169544e+41 -8.0987824e+39 -2.1962864e+40)
(-2.9481552e+41 -6.0054091e+39 -2.6775806e+39)
(-2.9431125e+41 -9.8977683e+39 -2.7222878e+39)
(-3.4768143e+41 -7.910695e+39 -8.678066e+39)
(-2.9172512e+41 -6.0431647e+39 -2.3560596e+40)
(-2.9194796e+41 -8.8601047e+39 -2.257324e+40)
(-2.8113777e+41 -9.2054765e+39 -1.5363571e+40)
(-2.8318241e+41 -5.7629704e+39 -4.5276811e+39)
(-2.8031404e+41 -6.0340648e+39 -1.4825298e+40)
(-2.8196546e+41 -9.8805674e+39 -4.4515281e+39)
(-2.802135e+41 -9.6868075e+39 -1.5883333e+40)
(-2.8256278e+41 -6.9386388e+39 -5.1358266e+39)
(-2.8132079e+41 -5.6928594e+39 -1.5051732e+40)
(-2.8354765e+41 -1.040993e+40 -4.8260185e+39)
(-3.4265332e+41 -1.4620841e+40 -3.5709237e+40)
(-3.4067806e+41 -8.2422916e+39 -3.6017378e+40)
(-2.7580615e+41 -9.7661662e+39 -1.7056469e+40)
(-2.814353e+41 -6.7772215e+39 -2.6620289e+39)
(-2.7505094e+41 -7.0911787e+39 -1.6635674e+40)
(-2.800051e+41 -1.1195724e+40 -2.3700852e+39)
(-2.7471912e+41 -1.047195e+40 -1.7408629e+40)
(-2.8069964e+41 -7.4673423e+39 -3.0007489e+39)
(-2.7633358e+41 -7.2307539e+39 -1.641342e+40)
(-2.8105397e+41 -1.1269605e+40 -2.2701192e+39)
(-2.7383377e+41 -1.1553142e+40 -1.7839054e+40)
(-2.7803217e+41 -7.9945205e+39 -2.632885e+39)
(-2.7520841e+41 -7.3678313e+39 -1.6775304e+40)
(-2.7839769e+41 -1.2411822e+40 -2.1109465e+39)
(-2.7471865e+41 -1.0867896e+40 -1.7397649e+40)
(-2.7899126e+41 -6.8390431e+39 -2.450174e+39)
(-2.7438185e+41 -7.271118e+39 -1.6806781e+40)
(-2.7738977e+41 -1.1517619e+40 -2.3131296e+39)
(-3.4370843e+41 -7.9017075e+39 -4.2651173e+40)
(-3.4625853e+41 -1.3349849e+40 -3.7042641e+40)
(-3.6223871e+41 -6.9863201e+39 -5.7979615e+39)
(-3.5556321e+41 -1.6065003e+40 -8.7123603e+39)
(-3.4014479e+41 -8.0849825e+39 -4.3290883e+40)
(-3.41023e+41 -1.5424992e+40 -4.370529e+40)
(-3.5344307e+41 -8.5454655e+39 -1.0026196e+40)
(-3.5090086e+41 -1.4851583e+40 -1.1458813e+40)
(-2.7530088e+41 -1.117784e+40 -1.5581999e+40)
(-2.7749199e+41 -8.356877e+39 -1.4671088e+40)
(-2.8391549e+41 -7.4636871e+39 1.7429674e+39)
(-2.8443999e+41 -1.2573215e+40 2.4649986e+39)
(-2.8215768e+41 -1.2118147e+40 -1.3349734e+40)
(-2.8944111e+41 -7.9445097e+39 7.2864322e+39)
(-2.8399966e+41 -8.3042798e+39 -1.2352744e+40)
(-2.8977116e+41 -1.3779055e+40 7.7404538e+39)
(-2.7663726e+41 -1.0572772e+40 -1.475952e+40)
(-2.844004e+41 -7.254704e+39 2.5986595e+39)
(-2.8086014e+41 -1.2950327e+40 -1.2919069e+40)
(-2.8238045e+41 -9.0204344e+39 -1.1976596e+40)
(-2.8819952e+41 -8.8224129e+39 7.5999476e+39)
(-2.8829146e+41 -1.4741812e+40 8.0654142e+39)
(-2.7565391e+41 -1.0794526e+40 -1.5183454e+40)
(-2.8349796e+41 -7.5361289e+39 2.0604676e+39)
(-2.7518873e+41 -8.4435817e+39 -1.4526068e+40)
(-2.8208291e+41 -1.3155552e+40 2.6203835e+39)
(-2.7427806e+41 -1.1673587e+40 -1.5458412e+40)
(-2.8253783e+41 -8.2357889e+39 1.8256368e+39)
(-2.7608591e+41 -8.7202953e+39 -1.4561144e+40)
(-2.8275054e+41 -1.3038014e+40 2.4851991e+39)
(-2.8209294e+41 -1.2117925e+40 -1.2883436e+40)
(-2.8231693e+41 -9.0705455e+39 -1.1913221e+40)
(-2.8890996e+41 -7.5946952e+39 7.3384312e+39)
(-2.8730264e+41 -1.378592e+40 7.8473785e+39)
(-2.9178508e+41 -1.1971979e+40 -2.471478e+39)
(-2.9997577e+41 -8.1437081e+39 2.5060901e+40)
(-2.916484e+41 -1.0660685e+40 -1.2249215e+39)
(-2.9849668e+41 -1.6799433e+40 2.6188996e+40)
(-3.017108e+41 -1.3158874e+40 1.6215953e+40)
(-3.025199e+41 -7.5962594e+39 4.6164815e+40)
(-3.024827e+41 -1.2563428e+40 1.8136923e+40)
(-3.0077796e+41 -1.8694677e+40 4.6934792e+40)
(-2.9034687e+41 -1.2753034e+40 -2.3808434e+39)
(-2.9910033e+41 -8.1215694e+39 2.5276036e+40)
(-2.9241945e+41 -1.1033167e+40 -1.5046801e+39)
(-2.9891696e+41 -1.6060206e+40 2.577819e+40)
(-3.0074599e+41 -1.3494327e+40 1.672861e+40)
(-3.0124123e+41 -8.1439267e+39 4.7007503e+40)
(-3.0232944e+41 -1.2146599e+40 1.7656926e+40)
(-3.0128588e+41 -1.9039971e+40 4.6890492e+40)
(-3.0126978e+41 -7.1319813e+39 2.5285538e+40)
(-2.918095e+41 -1.2021752e+40 -2.6921921e+39)
(-2.9409569e+41 -9.7854473e+39 -1.9185056e+39)
(-3.7313493e+41 -5.7285367e+39 -2.5055571e+40)
(-3.7347704e+41 -1.0025684e+40 6.038161e+40)
(-2.8211057e+41 -1.8335677e+40 -4.7257623e+40)
(-2.7930502e+41 -3.4183134e+40 -5.0307263e+40)
(-3.7493752e+41 -2.3075146e+40 5.8294045e+40)
(-3.0976594e+41 -7.7027915e+39 -8.7384505e+39)
(-3.1010333e+41 -1.0109832e+40 -1.1012236e+40)
(-3.6314143e+41 6.96577e+38 5.3170683e+39)
(-3.5896046e+41 -1.4476137e+40 6.1578607e+39)
(-3.369811e+41 -7.7634622e+39 -4.327505e+40)
(-3.3853654e+41 -1.2431364e+40 -4.4663427e+40)
(-3.5742137e+41 -8.7567836e+39 -1.6240447e+40)
(-3.5488769e+41 -1.592052e+40 -1.707744e+40)
(-3.6516661e+41 -5.920209e+39 -1.3156693e+40)
(-3.4010766e+41 -1.2020366e+40 -4.4313902e+40)
(-3.4132521e+41 -4.2054386e+39 -4.2710812e+40)
(-3.6230753e+41 -1.3598646e+40 -1.419226e+40)
(-3.1505298e+41 -6.7655181e+39 -8.1284526e+39)
(-3.1507214e+41 -1.0369601e+40 -9.8388139e+39)
(-3.6542201e+41 -1.7194066e+39 7.1273387e+39)
(-3.644841e+41 -1.4618462e+40 7.9440831e+39)
(-3.1712702e+41 -1.3325617e+40 -1.0468406e+40)
(-3.7462974e+41 -4.0342209e+39 1.2457245e+40)
(-3.6346981e+41 -1.8395438e+40 9.4770222e+39)
(-3.5686443e+41 -6.2949915e+39 -1.4388374e+40)
(-3.4115996e+41 -1.2010979e+40 -4.1650755e+40)
(-3.4744383e+41 -9.1630485e+39 -4.0705568e+40)
(-3.5789932e+41 -1.5888172e+40 -1.5229712e+40)
(-2.993134e+41 -1.1093142e+40 4.4063126e+40)
(-2.9853607e+41 -1.4907368e+40 4.6362076e+40)
(-2.9877718e+41 -1.0389151e+40 4.3285326e+40)
(-3.0128826e+41 -1.2972253e+40 4.4529559e+40)
(-2.9848253e+41 -1.0296825e+40 4.2264029e+40)
(-2.9810433e+41 -1.2475676e+40 4.4344848e+40)
(-2.9541836e+41 -1.0582449e+40 4.2423509e+40)
(-2.992392e+41 -1.3052247e+40 4.3722455e+40)
(-2.6113639e+41 -9.669253e+39 3.3070136e+40)
(-2.6266188e+41 -1.2142702e+40 3.3493073e+40)
(-2.6252135e+41 -9.7509871e+39 3.2067231e+40)
(-2.636866e+41 -1.2257904e+40 3.351915e+40)
(-2.6206126e+41 -9.4014389e+39 3.1841007e+40)
(-2.6328142e+41 -1.1122737e+40 3.2143721e+40)
(-2.6190729e+41 -8.5353163e+39 3.23511e+40)
(-2.6198226e+41 -1.1752836e+40 3.34244e+40)
(-2.9325369e+41 -1.040043e+40 4.1661628e+40)
(-2.9623369e+41 -1.2565981e+40 4.254274e+40)
(-2.9592291e+41 -1.0342753e+40 4.1553969e+40)
(-2.9617769e+41 -1.2768114e+40 4.3776541e+40)
(-2.9319293e+41 -1.0365815e+40 4.1314344e+40)
(-2.9521164e+41 -1.2037866e+40 4.2302511e+40)
(-2.9403468e+41 -9.6854293e+39 4.2499638e+40)
(-2.9358786e+41 -1.2846265e+40 4.4678166e+40)
(-4.6174103e+41 -3.5436532e+40 -1.9995707e+40)
(-4.6754314e+41 -3.9147578e+40 -1.6960359e+40)
(-4.7754968e+41 -2.9052753e+40 -9.7962743e+39)
(-3.6639102e+41 -2.696895e+40 -3.5299648e+40)
(-3.728235e+41 -9.9250311e+39 -3.6339132e+40)
(-3.9318951e+41 -1.981229e+40 -4.4250792e+40)
(-2.9050179e+41 -1.1857039e+40 -2.7893785e+40)
(-2.9316331e+41 -9.4781446e+39 -3.0368912e+40)
(-3.9560797e+41 -2.2365318e+40 -4.2782271e+40)
(-2.923946e+41 -1.3452905e+40 -2.7555315e+40)
(-2.9277119e+41 -1.1228949e+40 -3.0416938e+40)
(-3.7732854e+41 -1.3526713e+40 -3.3677099e+40)
(-4.0062775e+41 -2.2878773e+40 -4.1986695e+40)
(-2.9366522e+41 -1.472614e+40 -2.6547781e+40)
(-2.9438746e+41 -1.1488358e+40 -2.8813571e+40)
(-4.0054513e+41 -2.4701018e+40 -4.3474857e+40)
(-2.9476016e+41 -1.5365832e+40 -2.7915114e+40)
(-2.9666984e+41 -1.3751828e+40 -3.1443897e+40)
(-3.704028e+41 -3.0252749e+40 -3.432379e+40)
(-3.0218675e+41 -1.9072825e+40 -7.1057151e+40)
(-3.0226267e+41 -1.7993213e+40 -6.9564705e+40)
(-3.0523037e+41 -1.9654256e+40 -6.989752e+40)
(-3.0361785e+41 -2.038036e+40 -7.1155746e+40)
(-1.5121003e+41 -2.3755091e+39 -4.8260089e+40)
(-1.4887091e+41 -2.7529096e+39 -4.8453603e+40)
(-1.5235268e+41 -2.1316839e+40 -3.2091505e+40)
(-1.4972745e+41 -1.0154859e+40 -3.0434436e+40)
(-1.5082605e+41 -2.1290259e+39 -4.9571064e+40)
(-1.4852206e+41 -4.2835207e+39 -5.0663226e+40)
(-1.490156e+41 -1.1407072e+40 -3.2404054e+40)
(-1.5296698e+41 -2.0242419e+40 -3.0724846e+40)
(-1.0718872e+41 -2.7753084e+40 -3.5500169e+39)
(-1.5810502e+41 -2.8387799e+40 4.2768839e+40)
(-1.0861642e+41 -1.7525306e+40 5.9161052e+39)
(-1.5741421e+41 -1.1064892e+40 4.6182506e+40)
(-1.0835077e+41 -2.5601914e+40 -3.0306212e+38)
(-1.6078034e+41 -2.6079303e+40 4.5543897e+40)
(-1.0834984e+41 -1.7183356e+40 4.8739609e+39)
(-1.5823919e+41 -9.6199961e+39 4.7864012e+40)
(-1.5231644e+41 -2.1838127e+39 -4.8304331e+40)
(-1.5068385e+41 -2.817379e+39 -4.8356536e+40)
(-1.4977607e+41 -2.0020457e+40 -3.3352883e+40)
(-1.4861865e+41 -9.8988649e+39 -3.1316173e+40)
(-1.5106662e+41 -1.5692731e+39 -4.917071e+40)
(-1.4914194e+41 -3.3912971e+39 -5.0178274e+40)
(-1.5263811e+41 -2.0193389e+40 -3.0612882e+40)
(-1.4926274e+41 -1.1302991e+40 -3.1956766e+40)
(-1.0268062e+41 -2.6740807e+40 -7.2615793e+39)
(-1.0723173e+41 -1.804607e+40 2.7575645e+39)
(-1.5689392e+41 -1.3394704e+40 4.5505013e+40)
(-1.5539119e+41 -2.8017914e+40 4.123409e+40)
(-1.6051142e+41 -2.8718784e+40 4.490615e+40)
(-1.5841543e+41 -1.188487e+40 4.7285333e+40)
(-1.075649e+41 -2.6642546e+40 -1.6679731e+39)
(-1.076243e+41 -1.8010533e+40 4.2363111e+39)
(-3.0495486e+41 -2.0073372e+40 -7.0269722e+40)
(-3.0572377e+41 -2.0208874e+40 -6.9381569e+40)
(-3.0663845e+41 -1.9311572e+40 -7.0106554e+40)
(-3.0419538e+41 -2.030335e+40 -7.1868198e+40)
(-1.5178636e+41 -5.5280741e+39 -5.0558731e+40)
(-1.5137349e+41 -2.0435038e+40 -3.2278076e+40)
(-1.4910237e+41 -1.1987515e+40 -3.4088277e+40)
(-1.5026209e+41 -7.9281111e+39 -5.1919821e+40)
(-1.131267e+41 -1.8278234e+40 7.1248136e+39)
(-1.0971775e+41 -2.7763536e+40 -2.3769601e+39)
(-1.613645e+41 -2.7045964e+40 4.4069161e+40)
(-1.616809e+41 -1.0651655e+40 4.7345691e+40)
(-1.1093825e+41 -2.6347637e+40 4.0332916e+38)
(-1.6357033e+41 -2.6035286e+40 4.6007781e+40)
(-1.616979e+41 -1.0709705e+40 4.8372253e+40)
(-1.1105093e+41 -1.8039954e+40 3.6556834e+39)
(-1.4948972e+41 -5.596948e+39 -4.9382961e+40)
(-1.5163606e+41 -4.7399198e+39 -4.8884109e+40)
(-1.5191988e+41 -2.1320003e+40 -3.2771556e+40)
(-1.4986625e+41 -1.0343791e+40 -3.1309442e+40)
(-1.5219124e+41 -3.7976611e+39 -4.8185189e+40)
(-1.4978383e+41 -4.365888e+39 -4.8468834e+40)
(-1.5171901e+41 -2.1490853e+40 -3.2983818e+40)
(-1.4971243e+41 -1.079177e+40 -3.1083541e+40)