/*--------------------------------*- C++ -*----------------------------------*\
  =========                 |
  \\      /  F ield         | OpenFOAM: The Open Source CFD Toolbox
   \\    /   O peration     | Website:  https://openfoam.org
    \\  /    A nd           | Version:  7
     \\/     M anipulation  |
\*---------------------------------------------------------------------------*/
FoamFile
{
    version     2.0;
    format      ascii;
    class       surfaceScalarField;
    location    "8000";
    object      phi;
}
// * * * * * * * * * * * * * * * * * * * * * * * * * * * * * * * * * * * * * //

dimensions      [0 3 -1 0 0 0 0];

internalField   nonuniform List<scalar> 
100288
(
-2.8037532e+44
-2.3875844e+44
-3.1801793e+44
-2.7604788e+44
5.6364137e+43
4.0510423e+43
-6.1643129e+43
-6.4842768e+43
-7.6448605e+43
-7.6663671e+43
4.7105273e+43
-6.6180799e+43
-7.8537988e+43
-7.2444003e+43
-5.9264377e+43
1.4979852e+43
2.6574257e+43
2.799015e+43
-3.4541672e+44
-5.4475793e+42
-5.7063536e+42
2.8325827e+43
2.7693796e+43
-3.4571221e+44
-4.0297173e+42
-5.7442574e+42
4.3763179e+42
-5.2303647e+43
-6.6241551e+43
-7.4987633e+43
-7.157877e+43
-6.1478792e+43
-6.3642914e+43
-5.417484e+43
-5.999473e+43
-4.39906e+43
-5.0380472e+43
6.020801e+42
-6.4367182e+43
-7.3023326e+43
-7.3410858e+43
-6.3087388e+43
-5.8878876e+43
-5.5035763e+43
-4.777741e+43
-4.431394e+43
-9.1005016e+42
-1.3350026e+43
9.9673607e+42
9.4227998e+42
-1.3379761e+43
-1.6986986e+43
-1.2310132e+43
-1.5905807e+43
-1.2598089e+43
8.3553502e+42
-1.2992732e+43
-1.2654955e+43
-1.6717759e+43
-1.6335184e+43
2.1707552e+42
-6.1938739e+43
2.7038431e+42
-6.2556621e+43
-1.3660686e+43
6.9194885e+42
9.459344e+42
-1.6747932e+43
-1.2665738e+43
-1.6470405e+43
-1.3047467e+43
1.60254e+42
-6.2771539e+43
1.4168261e+43
-6.1491209e+43
1.0404717e+43
-1.2250156e+43
-1.3263505e+43
-1.5826402e+43
-1.6982181e+43
-1.9413723e+42
2.6815853e+44
1.6659561e+43
-1.8037707e+43
1.6726475e+43
-1.8862202e+43
-3.4420909e+44
-2.6140465e+44
1.4976533e+43
-1.6286493e+42
-2.0024988e+43
-2.6649108e+44
7.8031564e+42
2.0508185e+43
-1.537683e+43
-1.4362112e+43
2.0724199e+43
-3.3949806e+44
1.5588318e+43
-1.8890176e+43
-2.0228894e+43
1.5359622e+43
-1.4924035e+43
-1.3813669e+43
2.0508195e+43
2.0424371e+43
4.9545462e+42
-3.3093923e+44
1.5474311e+43
-1.472681e+43
-2.1828591e+42
2.6103478e+42
5.7825552e+42
5.6039689e+42
-7.7495117e+43
-1.2680772e+42
-1.0550063e+42
5.9278177e+42
5.5645392e+42
-7.6736882e+43
-1.0410142e+42
-1.0877785e+42
-2.508136e+42
5.8558423e+42
6.0320342e+42
-7.6664597e+43
-1.0743624e+42
-7.5940066e+41
5.9936601e+42
5.684285e+42
-7.7985041e+43
-9.8296864e+41
-1.1235163e+42
-7.0586938e+42
2.9633148e+42
7.0527971e+42
-4.5948118e+42
-6.460414e+43
-8.8944175e+41
-7.4537559e+40
-2.0887574e+43
-6.0194769e+43
6.6728779e+42
-1.997404e+43
-5.9910083e+43
7.2586463e+42
-6.4224677e+43
-6.3067178e+42
6.5859445e+41
-1.4111077e+43
-1.1960165e+43
-1.3409272e+43
-1.1191534e+43
9.2722045e+41
-9.5004698e+42
-1.3823882e+43
-1.3707084e+43
-1.163432e+43
-1.151007e+43
-9.1683607e+42
-1.0011749e+43
-9.1071824e+42
-9.1914966e+42
-8.0862156e+42
-1.3099636e+43
-9.7925817e+42
-9.2641642e+42
-8.7097465e+42
-8.2961043e+42
-6.6279937e+42
4.2077955e+42
6.3923644e+42
-6.3217896e+43
2.953558e+41
-1.9904987e+43
-5.9739376e+43
6.0075992e+42
-1.9511445e+43
-5.9686195e+43
6.5079973e+42
-6.3974781e+43
8.6348208e+42
9.6026301e+41
-1.3689869e+43
-1.3540631e+43
-1.154475e+43
-1.1395382e+43
7.8942241e+41
-1.3324247e+43
-1.3944917e+43
-1.1105962e+43
-1.1807685e+43
1.1184438e+43
-9.6890449e+42
-9.1890661e+42
-8.4314116e+42
-7.9088409e+42
-1.0034321e+43
-9.0106262e+42
-8.977986e+42
-7.9939705e+42
-2.6266308e+42
1.0667495e+42
-1.5811127e+42
2.1230222e+42
-3.4975346e+42
-2.66996e+42
-2.6127932e+42
-3.5814841e+42
1.7368682e+41
-5.2816159e+41
-1.3476581e+43
-2.6972633e+42
1.36985e+42
2.3315179e+42
-2.708031e+42
-2.5306972e+42
-3.3975845e+42
-3.6111666e+42
3.9066312e+41
-1.3216076e+43
1.4189709e+42
-2.5602257e+42
1.9881024e+42
-2.6391011e+42
-2.6093526e+42
-3.4556283e+42
-3.5829656e+42
-2.6501786e+42
2.1993516e+42
-2.7381653e+42
-2.5448034e+42
-3.6434907e+42
-3.4397983e+42
-4.4835702e+41
-1.3519922e+43
-1.331261e+43
2.7973957e+42
-3.3152427e+41
3.9874084e+41
-1.3618881e+43
-1.1985576e+42
1.2542789e+42
2.47183e+42
-2.7143542e+42
-2.5477459e+42
-3.6660993e+42
-3.4676885e+42
2.6808647e+42
-1.3407844e+43
2.1700261e+42
-2.6484784e+42
-2.6207817e+42
-3.4858525e+42
-3.6102214e+42
-8.420853e+41
-2.9224476e+42
2.5987032e+42
-2.7336827e+42
-3.6701587e+42
-3.4448785e+42
-2.552488e+42
-2.8446179e+42
2.4644105e+42
-2.6712498e+42
-2.6335642e+42
-3.5445838e+42
-3.6217021e+42
-1.9504744e+41
-1.3302316e+43
-1.3591071e+43
-5.9902954e+43
-7.4383867e+41
7.716481e+43
-3.7416282e+42
-3.9972107e+42
3.2450481e+42
3.2717049e+42
-2.0337562e+41
3.0923138e+42
3.1387614e+42
-4.199667e+42
-3.9877734e+42
-7.6308821e+43
-1.2684249e+43
-3.2766942e+41
-8.1950998e+41
6.4403832e+41
-8.2627077e+41
6.8285614e+41
-3.3854771e+41
5.8161391e+41
6.1458926e+41
-9.0264473e+41
-1.6075768e+43
-9.233746e+41
-5.9971716e+43
5.1607799e+41
2.8813711e+42
-4.5703858e+42
-4.4514379e+42
-6.0910938e+43
-3.4680738e+41
7.8305778e+43
-3.8673297e+42
-3.8651518e+42
3.2604763e+42
3.4066046e+42
2.7511283e+41
3.2332892e+42
-4.1483286e+42
-4.0101936e+42
3.1573985e+42
-7.8483799e+43
1.1229505e+42
-2.588687e+44
1.4184893e+43
1.5435886e+43
-2.0159047e+43
-2.0704339e+43
-7.6499782e+43
1.3254288e+42
-4.5179823e+42
-4.9842947e+42
2.936864e+42
2.8371533e+42
-6.0795172e+43
1.1166429e+42
4.7741661e+42
-2.6607999e+42
-2.5735889e+42
4.9057207e+42
-8.0460912e+41
6.0830357e+43
-7.6658805e+43
9.3220978e+41
3.7530415e+42
-3.4845637e+42
-3.6383545e+42
3.6938897e+42
-7.5849089e+43
3.8621961e+42
-3.3452587e+42
-3.301124e+42
4.046833e+42
1.3373856e+42
-2.7695754e+42
-2.6571818e+42
4.585832e+42
4.6796214e+42
-2.5456837e+44
-2.1781127e+43
-1.9775625e+43
1.4513166e+43
1.3537495e+43
-6.5726644e+42
-3.2259251e+44
1.5236459e+43
-1.4560889e+43
-1.6787324e+43
1.3813944e+43
-3.2842114e+44
1.5964512e+43
-1.4743109e+43
-1.5786626e+43
1.4341489e+43
-5.9167909e+43
2.8760418e+41
-3.6631623e+42
3.2175421e+42
3.2935768e+42
-3.889413e+42
-2.8559003e+41
-7.6012145e+43
2.92957e+42
-4.2725287e+42
-4.0714923e+42
2.9453426e+42
5.9628441e+43
-7.690279e+43
-4.3542295e+42
2.7863122e+42
2.8938032e+42
-4.290909e+42
-3.9971581e+42
-3.8048488e+42
3.0798845e+42
2.9921784e+42
1.4260047e+42
6.1808617e+43
4.0411288e+42
-3.4093678e+42
3.895725e+42
-3.448156e+42
6.1406512e+43
-3.5889788e+42
3.9220257e+42
3.9585816e+42
-3.2981407e+42
1.3921885e+42
-2.7069836e+42
4.7123651e+42
-2.632827e+42
4.904415e+42
-2.4978509e+42
-2.7919521e+42
4.7946117e+42
4.7686645e+42
4.2546599e+42
1.8408833e+43
-1.0683272e+43
-5.743557e+43
2.2229579e+42
3.0415176e+42
-4.7164379e+42
-5.1141412e+42
2.931348e+42
3.4416062e+42
-7.0695779e+43
-3.8197173e+42
3.2128177e+42
-4.3557062e+42
2.9917705e+42
3.6029409e+41
-4.6311988e+41
1.1832736e+42
1.2442125e+42
-1.6594062e+43
-2.4173702e+41
-2.335175e+41
3.4117531e+41
1.2088215e+42
1.2582159e+42
-1.6289703e+43
-1.9757158e+41
-2.3172423e+41
-3.6187058e+41
1.2477367e+42
1.2088313e+42
-1.6662539e+43
-2.4590048e+41
-2.1031187e+41
1.1903083e+42
1.2705171e+42
-1.6400739e+43
-2.1688922e+41
-2.1041922e+41
3.9296527e+41
-4.2161173e+41
1.2521958e+42
1.3017211e+42
-1.6788468e+43
-1.9385151e+41
-2.0838236e+41
1.3314447e+42
1.2757483e+42
-1.6438533e+43
-1.9122576e+41
-1.4688391e+41
-3.0897588e+41
1.2901579e+42
1.2430413e+42
-1.6825911e+43
-1.9255857e+41
-2.2921364e+41
1.2021058e+42
1.2768405e+42
-1.6545006e+43
-2.1462803e+41
-2.1847263e+41
1.9588729e+43
-1.0801283e+43
-1.1146756e+43
-3.1756512e+44
-1.0584695e+43
-1.0673184e+43
-3.2236984e+44
-6.3175408e+42
4.3250528e+42
4.5649427e+42
4.5030304e+42
-4.3929368e+42
-6.5519285e+43
-8.3673494e+41
-9.3065434e+41
-3.5154576e+41
3.2417147e+41
-7.7069624e+43
6.1168579e+42
-7.69816e+43
4.6979814e+42
4.5446344e+42
-6.5557623e+43
-7.7877045e+41
-8.6900668e+41
2.0998345e+42
-9.3890801e+40
-1.2183091e+41
-1.1297203e+43
3.6392137e+41
-6.2886959e+41
1.7590497e+42
-1.1354422e+43
2.0250115e+42
-1.119919e+43
1.7266897e+42
-1.1240991e+43
-1.3363704e+41
1.9931607e+42
-1.1240292e+43
2.0367763e+42
-1.2185139e+41
-1.1252612e+43
6.0515495e+41
1.7162882e+42
-6.8856705e+41
-1.1230414e+43
1.7050054e+42
-1.1245626e+43
9.7525418e+41
-1.7471778e+41
-1.3857359e+42
-2.1118876e+42
-2.1392322e+42
-1.6806696e+42
-1.7357005e+42
-2.7581425e+41
-2.0727128e+42
-2.1731591e+42
-1.774833e+42
-1.6460329e+42
1.3160153e+42
-1.8646523e+42
-1.6851115e+42
-1.5926921e+42
-1.5784646e+42
-1.4968927e+42
-1.6148261e+42
-1.7436306e+42
-1.4279523e+42
-1.5535502e+42
1.1961896e+42
-7.4193102e+40
-1.5998551e+42
-2.095284e+42
-2.137169e+42
-1.6520213e+42
-1.7139524e+42
-1.9910973e+41
-2.1464147e+42
-2.0587572e+42
-1.7349765e+42
-1.6094439e+42
1.5309162e+42
-1.9109254e+42
-1.6486131e+42
-1.5651684e+42
-1.5422024e+42
-1.4779135e+42
-1.7404308e+42
-1.5434536e+42
-1.6322136e+42
-1.4410212e+42
-5.8907591e+42
5.1444813e+42
4.4298075e+42
4.3480027e+42
-6.4311956e+43
-9.3003491e+41
-8.531239e+41
-2.138635e+41
-7.6350058e+43
5.605044e+42
-7.6327682e+43
4.4042233e+42
4.5544308e+42
-6.4826311e+43
-9.1234291e+41
-8.3818529e+41
-1.8950985e+41
1.8562191e+42
1.6149431e+41
-1.1088255e+43
1.8991419e+42
-1.1098232e+43
7.6259045e+41
1.5704724e+42
-1.1123853e+43
7.6666931e+41
1.595917e+42
-1.1139143e+43
9.0313531e+40
1.9108734e+42
-1.1043058e+43
2.0091992e+42
-1.1147874e+43
-4.5344961e+41
1.6626473e+42
-1.1092847e+43
1.6891738e+42
-1.1174433e+43
1.7125881e+42
-1.1302698e+41
-2.0687124e+42
-2.1018958e+42
-1.6493946e+42
-1.734576e+42
-2.3247048e+41
1.9333339e+42
-2.1493539e+42
-2.0539891e+42
-1.7720052e+42
-1.6060589e+42
1.8662726e+42
-1.4746625e+42
-1.6695944e+42
-1.586308e+42
-1.3893882e+42
2.2036025e+42
-1.7692029e+42
-1.5646516e+42
-1.564232e+42
-1.3811949e+42
1.2328058e+42
-9.6153063e+40
-2.0833091e+42
-2.1108056e+42
-1.7203847e+42
-1.6339581e+42
-2.0348829e+41
-2.1431492e+42
-2.0455739e+42
-1.7295517e+42
-1.593261e+42
1.5094149e+42
-1.5346668e+42
-1.6791103e+42
-1.585775e+42
-1.4573724e+42
-1.7289386e+42
-1.529688e+42
-1.5975792e+42
-1.4112441e+42
5.7119217e+41
6.2258375e+40
-8.072811e+40
-2.8669827e+42
2.0924265e+41
-2.2721268e+41
6.3351219e+41
-5.4721634e+41
-5.4306578e+41
-7.9558052e+41
-8.2844581e+41
-5.840731e+41
2.0743671e+41
6.8501362e+41
-5.2851566e+41
-5.5639544e+41
-8.338077e+41
-7.9320784e+41
5.1747569e+40
-2.9108335e+42
1.2225204e+41
-5.9553293e+41
6.9039096e+41
-5.4552672e+41
-5.4265803e+41
-8.0343328e+41
-8.260852e+41
-5.972147e+41
2.0299488e+41
6.8977294e+41
-5.3108449e+41
-5.5904963e+41
-8.329322e+41
-7.8093126e+41
-3.9769013e+39
5.506067e+40
-2.837061e+42
-2.9007129e+42
2.2211636e+41
-5.6746051e+41
6.1405995e+41
-5.4204528e+41
-5.39383e+41
-7.8764236e+41
-8.2170924e+41
-5.8407861e+41
2.4424078e+41
6.7225039e+41
-5.3183584e+41
-5.595558e+41
-8.3424183e+41
-7.9401354e+41
8.2687218e+40
-2.8426969e+42
9.672614e+40
-2.9105655e+42
1.6216011e+41
-5.8502801e+41
6.6931744e+41
-5.507403e+41
-5.4846106e+41
-8.0724392e+41
-8.3392691e+41
-5.8742513e+41
6.813593e+41
-5.2723519e+41
-5.5792829e+41
-8.336625e+41
-7.8496286e+41
3.3614093e+40
-2.9176698e+42
-2.865506e+42
1.2623341e+41
-6.2324633e+41
-2.1067495e+41
7.3365866e+41
-5.481154e+41
-5.4478146e+41
-8.1094418e+41
-8.3648348e+41
-6.2281326e+41
1.8002627e+41
7.2819174e+41
-5.2515716e+41
-5.532009e+41
-8.3829717e+41
-7.9026128e+41
1.4512449e+40
-6.3935817e+40
-2.9497642e+42
6.056656e+40
-2.8935144e+42
1.9920779e+41
-5.8591015e+41
6.5477962e+41
-5.4673004e+41
-5.3947178e+41
-7.9552808e+41
-8.3183048e+41
-6.0538643e+41
7.0006867e+41
-5.2981063e+41
-5.5697417e+41
-8.3948571e+41
-8.0066027e+41
6.3828691e+40
-2.8784247e+42
-2.9388744e+42
-6.4704291e+41
1.098049e+41
-1.6845392e+41
7.5110111e+41
-5.5675729e+41
-5.5384228e+41
-8.2132764e+41
-8.4716399e+41
1.7305235e+40
-5.3024033e+40
-2.9500378e+42
6.4730285e+41
-2.883764e+42
7.4300739e+41
-5.2925208e+41
-5.6585336e+41
-8.4174607e+41
-7.9637993e+41
1.780251e+41
-6.2094132e+41
7.0241387e+41
-5.5422586e+41
-5.4920441e+41
-8.0928363e+41
-8.3800675e+41
-6.2806568e+41
7.3335004e+41
-5.2953539e+41
-5.5550281e+41
-8.4281461e+41
-8.0142404e+41
5.6282578e+40
-2.9090452e+42
-2.9447882e+42
-2.7216049e+41
1.2418102e+43
-1.5935316e+43
-8.2172277e+41
-7.8181113e+41
6.516329e+41
6.4402618e+41
1.263611e+43
-1.6312924e+43
-2.5925049e+41
-8.0746625e+41
6.3177757e+41
-8.1748222e+41
6.5986412e+41
-2.139798e+41
1.5825861e+43
-8.1074615e+41
6.6441422e+41
-7.7161863e+41
6.5134152e+41
-2.212569e+41
1.620524e+43
-8.0102751e+41
6.4392021e+41
-8.0487598e+41
6.7183602e+41
2.5495131e+42
-3.2891353e+42
-1.4557735e+40
1.4122815e+41
-1.6123684e+41
1.3571243e+41
-1.6645249e+41
-2.7022313e+40
-1.6152249e+41
1.356347e+41
-1.6473522e+41
-2.2416439e+41
-1.256288e+43
-8.5069522e+41
6.4670501e+41
-8.1200221e+41
6.3236446e+41
-1.277462e+43
-2.3193207e+41
-8.3617981e+41
6.3192558e+41
-8.4503868e+41
6.57518e+41
2.3436537e+41
-2.5266973e+41
5.6861758e+41
5.9449376e+41
-9.2073701e+41
-9.2924079e+41
-1.6269116e+43
5.7746711e+41
5.6984612e+41
-8.9951494e+41
-9.4273783e+41
-1.5959896e+43
5.5952081e+41
-5.9241459e+43
2.9548365e+42
2.9284784e+42
-4.6007993e+42
-4.2084327e+42
2.6019707e+42
1.4341391e+40
-3.3789414e+42
-1.2224614e+40
1.4276497e+41
-1.6010616e+41
1.3976304e+41
-1.6707767e+41
1.9045783e+40
-1.3893936e+40
-1.6183657e+41
1.3838883e+41
1.4267646e+41
-1.6750677e+41
2.6383692e+42
-3.4398551e+42
1.41735e+41
-1.6408933e+41
1.4590125e+41
-1.6116816e+41
-1.6765619e+41
1.4332315e+41
-1.6371303e+41
1.3958556e+41
3.1011943e+40
-2.7077316e+42
-2.6952422e+40
-1.736511e+41
-1.8038382e+41
1.2851502e+41
1.3186458e+41
-2.7421086e+42
1.3398113e+41
1.2965832e+41
-1.8100735e+41
-1.7824266e+41
2.3700181e+40
-2.8783835e+40
-1.6564845e+41
-3.4396443e+42
-1.2675643e+43
-2.5786794e+41
6.0104275e+41
-8.8278239e+41
-8.8517522e+41
6.4512423e+41
-3.506797e+42
-1.7833304e+41
-2.2653713e+41
-1.6735983e+43
-9.2010832e+41
-9.6273717e+41
5.9912597e+41
5.8866648e+41
-1.6528132e+43
-2.5089813e+41
-9.057888e+41
-9.0822771e+41
5.9574969e+41
6.436784e+41
-1.3779735e+41
1.2642704e+43
-1.6306538e+43
-8.2377374e+41
-8.0038554e+41
6.5748049e+41
6.4172916e+41
1.2458021e+43
-1.601414e+43
-1.4605873e+41
-7.8561749e+41
6.3890398e+41
-8.1287972e+41
6.5882198e+41
1.1884249e+41
-5.6464692e+40
1.5902713e+43
-7.7695397e+41
6.5306509e+41
-7.976983e+41
6.7499327e+41
1.622268e+43
-8.1216043e+41
6.692968e+41
-7.8567348e+41
6.5275148e+41
-1.2760624e+43
-1.4105176e+41
-8.5313852e+41
6.5362173e+41
-8.3426571e+41
6.3027796e+41
-1.5016079e+41
5.8116643e+41
5.6794813e+41
-9.1733882e+41
-9.4505533e+41
-1.6298181e+43
1.2601814e+43
-1.1947069e+41
5.8993509e+41
6.0957198e+41
-9.1096531e+41
-8.8327111e+41
-1.6047968e+43
-5.7308203e+40
-8.0283126e+41
6.378233e+41
-8.3097834e+41
6.5731656e+41
-6.0482251e+43
1.0498333e+42
2.9997855e+42
2.9752378e+42
-4.4150409e+42
-4.6159607e+42
-1.5625347e+42
2.2263871e+42
-7.7378511e+43
-5.0049111e+42
-4.6924596e+42
2.9039318e+42
2.866792e+42
-7.603731e+43
-4.8697652e+42
2.8337962e+42
2.7011762e+42
-4.8108028e+42
-4.8521734e+40
1.308871e+43
-1.7004924e+43
3.3902582e+40
6.3332742e+41
-9.517208e+41
-9.4890338e+41
6.8014888e+41
1.3194483e+43
-1.7336571e+43
-1.0138556e+42
-1.0645879e+42
5.766142e+41
5.829398e+41
1.1015469e+41
-6.5445009e+40
-9.1509612e+41
-9.031804e+41
6.1419363e+41
6.5681527e+41
5.8666349e+41
-9.9772039e+41
-9.4301304e+41
5.8999641e+41
-1.2864158e+43
2.1099206e+41
-4.6633718e+41
-4.75093e+41
1.0578391e+42
1.0957695e+42
-2.1651912e+41
1.2991855e+43
-1.6352434e+43
3.4221058e+41
-6.4015436e+41
-6.1064926e+41
9.1814878e+41
9.0674386e+41
-1.5998715e+43
-5.9810074e+41
9.0694724e+41
-6.1783132e+41
9.3930814e+41
2.8851922e+41
-4.9449114e+41
1.066406e+42
-4.6392257e+41
1.0495172e+42
-1.2438353e+43
1.8460519e+41
-2.8847584e+41
1.6221117e+43
-7.1907333e+41
7.4573942e+41
-7.2679353e+41
7.7427631e+41
-1.5925485e+41
1.2279212e+43
-1.5541885e+43
1.0896133e+41
-7.7189172e+41
-7.4568595e+41
6.8564672e+41
6.6033468e+41
-2.5898265e+41
-1.5801398e+43
-7.5523307e+41
6.6357941e+41
-7.7048034e+41
6.8655396e+41
1.5962487e+43
1.3891248e+41
-7.2968701e+41
7.5781067e+41
-7.0177216e+41
7.2995618e+41
-1.2303744e+43
1.85271e+41
-6.8546762e+41
-7.0648175e+41
7.6298442e+41
7.9010659e+41
-2.0890754e+41
1.2527415e+43
-1.5846354e+43
-7.5329134e+41
7.1117705e+41
-7.3127579e+41
6.9699755e+41
-1.5542648e+43
-7.1753572e+41
6.8457822e+41
-7.4398809e+41
7.0702122e+41
-7.1948878e+41
7.7742894e+41
-6.9608274e+41
7.567524e+41
2.9520868e+41
1.2949695e+43
-6.2389954e+41
-6.3229662e+41
8.8784926e+41
9.1719544e+41
1.2800291e+43
2.7075605e+41
-6.4606832e+41
9.0364028e+41
-6.1146546e+41
8.8336049e+41
-2.2019567e+41
2.0292844e+41
-4.9799032e+41
1.055731e+42
1.0252737e+42
-4.6932694e+41
-4.9438965e+41
-4.9467629e+41
1.0309149e+42
1.0617286e+42
3.8439655e+42
-2.6190123e+44
1.9449934e+43
1.7838207e+43
-1.0852856e+43
-1.0873762e+43
-2.5705736e+44
1.8799764e+43
1.7967498e+43
-1.1178407e+43
-9.34194e+42
-1.0422156e+42
-2.9376758e+44
-2.9562897e+43
-2.9559097e+44
-3.2286863e+43
2.1918927e+42
5.9379165e+43
-7.6653118e+43
-4.9251471e+42
-4.8769585e+42
2.7745493e+42
2.5548757e+42
5.9265387e+43
-7.5767039e+43
2.9309869e+42
2.839265e+42
-4.6395276e+42
2.7865736e+42
-4.999383e+42
-9.2028823e+41
1.7637318e+42
-4.4197066e+42
-4.2073314e+42
2.7707352e+42
2.7792647e+42
-4.5531663e+42
-4.5997696e+42
2.7348718e+42
2.5614794e+42
-5.6944329e+43
-2.9145212e+42
3.4931968e+42
-5.2505115e+42
-4.6334976e+42
3.0061786e+42
2.712907e+42
-3.7908021e+42
4.3830889e+42
-7.0055536e+43
3.3027716e+42
-3.7606329e+42
-4.4545519e+42
2.8704393e+42
5.7951161e+43
-4.260454e+42
-7.2141146e+43
-4.3555027e+42
-3.8990011e+42
3.3208033e+42
2.8060095e+42
-3.094695e+42
-4.9321507e+42
2.8622553e+42
-5.1850276e+42
2.5470809e+42
-5.8072151e+43
-2.266168e+42
-5.2300022e+42
-4.7473489e+42
2.9722079e+42
2.8347665e+42
-2.9301532e+42
-7.2134204e+43
-3.7871693e+42
3.3329471e+42
-4.3928071e+42
2.8356696e+42
5.7493465e+43
-7.1050836e+43
-4.2040893e+42
-3.8749992e+42
3.4135214e+42
2.9477634e+42
-5.0171751e+42
-4.8674097e+42
2.9563901e+42
2.6826287e+42
1.2153297e+43
1.9228829e+41
-1.5507448e+43
-2.5643978e+41
-7.5221793e+41
6.3439158e+41
-7.8193158e+41
6.5489959e+41
2.0751811e+41
-7.5629567e+41
6.4176205e+41
-7.8204149e+41
6.6195392e+41
-1.226282e+43
1.6919882e+41
-7.7316457e+41
-7.9012551e+41
6.6605518e+41
6.4559845e+41
-1.5800925e+43
1.810726e+41
-7.9079488e+41
-8.0172012e+41
6.3785424e+41
6.1456899e+41
-1.2256703e+43
1.829181e+41
-2.1309849e+41
-7.7536519e+41
6.3081668e+41
-7.9970447e+41
6.5325901e+41
-1.6087943e+41
1.2434783e+43
1.8299139e+41
-1.5976432e+43
-9.2144249e+41
-9.3033301e+41
5.6891034e+41
5.2987652e+41
-1.6202946e+41
-1.5631195e+43
5.4394594e+41
5.6518833e+41
-9.1760112e+41
-8.8738492e+41
1.7692912e+41
-8.2532531e+41
6.3290302e+41
-8.2191179e+41
5.9952442e+41
1.250147e+43
1.46598e+41
-1.6050687e+43
-9.5028422e+41
-9.1937123e+41
5.5094352e+41
5.5009265e+41
-1.2813707e+41
-1.2308917e+43
1.558813e+43
-8.3219558e+41
-8.2279387e+41
6.3654844e+41
5.9636974e+41
1.5870349e+43
-8.1829993e+41
6.1206624e+41
-8.4566304e+41
6.2561333e+41
-1.5720679e+43
5.4049666e+41
5.0649305e+41
-9.4217398e+41
-9.5683534e+41
1.5671481e+41
1.2273855e+43
-7.9201092e+41
6.0916008e+41
-8.1797848e+41
6.2452342e+41
1.2162879e+43
-8.1099962e+41
6.3152211e+41
-7.9206023e+41
6.0259677e+41
7.2546122e+40
-8.1151834e+41
-7.9349472e+41
6.180611e+41
6.3594663e+41
-8.1394106e+41
6.3601531e+41
-7.9473282e+41
6.0191304e+41
-1.553089e+41
-1.2746844e+43
2.5877004e+41
1.6571466e+43
-7.3559219e+41
-7.0530354e+41
7.8572657e+41
7.6821429e+41
1.2549435e+43
1.3006033e+41
-7.3535897e+41
6.9573516e+41
-7.5623966e+41
7.1867489e+41
1.6289716e+43
-7.164758e+41
-7.0203605e+41
7.6546491e+41
7.9209454e+41
2.5666711e+41
-7.7246426e+41
7.1275907e+41
-7.4097113e+41
7.0174993e+41
1.2731332e+43
2.5439994e+41
-7.5665938e+41
6.8870313e+41
-7.6181439e+41
7.1696745e+41
2.6095265e+41
1.6549733e+43
-7.2388058e+41
7.5845833e+41
-7.2334139e+41
7.9020679e+41
-1.2519183e+43
1.6249779e+43
-7.2722111e+41
7.8919723e+41
-6.8697702e+41
7.7496475e+41
-7.6620962e+41
-7.2523766e+41
7.0499275e+41
7.1331564e+41
1.3033356e+43
2.1578471e+41
-6.1482284e+41
-6.3076408e+41
9.3934619e+41
9.1058866e+41
2.0407603e+41
-4.7352241e+41
1.0598547e+42
-4.8066122e+41
1.0938965e+42
1.3205204e+43
3.5021138e+41
-6.4670153e+41
9.3389341e+41
-6.1091236e+41
9.2272946e+41
2.9925301e+41
-4.9738159e+41
1.0851008e+42
-4.6505096e+41
1.0658627e+42
-3.3818119e+41
1.3010768e+43
-6.3608903e+41
9.4318071e+41
1.3178697e+43
-6.2927675e+41
9.1020089e+41
-6.3182415e+41
9.4201455e+41
2.7460115e+41
1.0673141e+42
-4.8291938e+41
-4.7693154e+41
1.1020296e+42
1.1002349e+42
-4.8029576e+41
1.0806465e+42
-5.4541049e+43
3.2017066e+42
3.5923795e+42
3.8977797e+42
-2.9874453e+42
-2.4400587e+42
2.5933804e+42
-3.9339372e+42
-1.3274363e+43
-2.5929513e+41
2.4177408e+41
6.4595997e+41
-9.9456173e+41
6.852219e+41
-1.0081422e+42
-5.0667935e+41
-1.7043726e+43
5.252222e+41
6.4593791e+41
-1.0704428e+42
6.0815262e+41
-1.1492642e+42
1.34445e+43
-1.7423396e+43
-1.1437531e+42
-1.1265924e+42
6.4942859e+41
5.7445382e+41
-1.0569629e+42
-1.0830217e+42
6.034664e+41
5.8888646e+41
1.3056218e+43
-8.812654e+41
1.0966834e+42
-1.6263882e+43
-9.9895384e+41
6.7136529e+41
6.396963e+41
-1.1395778e+42
-7.3095312e+41
8.7876466e+41
6.5916979e+41
-1.0665491e+42
-1.1593764e+42
6.4425379e+41
1.3383937e+43
-1.6743986e+43
-1.034057e+42
7.0478671e+41
6.2856407e+41
-1.1250435e+42
6.8105397e+41
-1.1115996e+42
-1.1485267e+42
6.2123366e+41
5.0078059e+40
-6.9313837e+40
2.5898263e+41
2.7522738e+41
-3.4815054e+42
-7.080201e+40
-7.1386224e+40
5.5839878e+40
2.7121242e+41
2.5931904e+41
-3.5335666e+42
-7.5721169e+40
-7.1356197e+40
-4.6198334e+40
4.1525459e+40
2.8125195e+41
2.6273909e+41
-3.4440948e+42
-6.3819841e+40
-6.6035832e+40
2.6625543e+41
2.7391701e+41
-3.5233867e+42
-7.0547361e+40
-6.9033814e+40
6.4566704e+40
-7.9011005e+40
2.6070462e+41
2.7729015e+41
-3.5435692e+42
-7.1310808e+40
-7.2240382e+40
2.7480102e+41
2.6034489e+41
-3.4778103e+42
-7.1960701e+40
-6.5939735e+40
5.4742281e+40
2.592353e+41
2.7789076e+41
-3.4587056e+42
-6.6129989e+40
-6.6473542e+40
2.7194828e+41
2.6328504e+41
-3.5385717e+42
-7.4197351e+40
-6.7717603e+40
-4.1440035e+40
5.8551782e+40
2.8608298e+41
2.7168261e+41
-3.5791277e+42
-6.4526884e+40
-6.9862202e+40
-5.5864063e+40
2.7212116e+41
2.8556798e+41
-3.5320269e+42
-6.594554e+40
-6.2719969e+40
5.1064054e+40
2.8031945e+41
2.9274978e+41
-3.5844512e+42
-6.1074406e+40
-6.1319256e+40
2.9177642e+41
2.7911303e+41
-3.501214e+42
-6.2642778e+40
-5.4987249e+40
-4.9244434e+40
2.8614956e+41
2.6800758e+41
-3.5158587e+42
-6.2645091e+40
-6.8345873e+40
-5.5262458e+40
2.6806917e+41
2.8091562e+41
-3.5828417e+42
-6.9849919e+40
-6.9252853e+40
-3.8509946e+40
2.7687218e+41
2.6690943e+41
-3.5724051e+42
-6.8261588e+40
-7.336969e+40
2.6141717e+41
2.812958e+41
-3.5022326e+42
-6.7648617e+40
-6.6713539e+40
8.6412702e+42
1.8576115e+43
1.7677632e+43
-9.5439292e+42
-3.194908e+44
-1.6611538e+43
-1.5539192e+43
1.8817383e+43
1.8098886e+43
-3.2429625e+44
-1.6493233e+43
-1.5707782e+43
-4.3482015e+42
3.0176287e+42
-2.9770599e+42
-6.7979269e+43
5.0346609e+42
5.0019904e+42
-1.685597e+42
-1.5834273e+42
-1.4500834e+41
2.0528972e+41
2.3497451e+42
-1.448705e+43
2.3584418e+42
-2.0160668e+41
-1.4485108e+43
-1.1788175e+42
1.5192279e+42
-6.2940845e+43
4.2089603e+42
-6.2923152e+43
-6.8146209e+43
5.0965294e+42
5.0307282e+42
-1.5488853e+42
-1.6653237e+42
-1.1449387e+41
2.4080591e+42
-1.4516617e+43
2.4154758e+42
-1.4490887e+43
7.2986711e+41
-7.3009987e+41
9.5601669e+41
9.720467e+41
-3.2447037e+42
-3.1755821e+42
-2.3984778e+42
-2.3983803e+42
1.8710967e+41
1.6326298e+41
9.6346951e+41
9.8254501e+41
-3.1434572e+42
-3.232245e+42
1.6527402e+41
-2.4063734e+42
-2.3725835e+42
2.0120234e+41
8.2367674e+41
9.4597356e+41
9.6861659e+41
-7.9517862e+41
-3.2134613e+42
-3.1837825e+42
-2.374129e+42
-2.3940933e+42
1.8832885e+41
1.6208024e+41
9.6846243e+41
9.4864634e+41
-3.1272298e+42
-3.2101916e+42
-2.3835786e+42
-2.3533421e+42
1.6091442e+41
1.9401625e+41
1.7950642e+40
4.956181e+41
-2.0449824e+40
-1.6489888e+42
4.8176328e+41
1.8897705e+40
-1.6498949e+42
-1.636344e+41
1.8474453e+41
1.7935957e+41
-4.220514e+41
-2.9754909e+41
-2.7961086e+41
-4.0016315e+41
2.1177935e+41
-1.9933369e+41
-4.2168828e+41
-4.1145347e+41
-2.9211381e+41
-2.90906e+41
1.0953938e+40
4.873769e+41
-1.6467834e+42
4.9482132e+41
-1.6555831e+42
1.3421297e+41
1.8354495e+41
-4.1198262e+41
-4.1900849e+41
-2.8987897e+41
-2.9215409e+41
1.6648671e+41
-3.0240851e+41
-4.2860388e+41
-2.8179823e+41
-4.0338707e+41
2.0229893e+41
3.5582958e+41
-2.4195212e+41
-4.419241e+41
-2.097451e+41
-2.0748849e+41
-4.3971531e+41
4.0484328e+41
2.3573368e+41
-4.6225031e+41
-2.1033966e+41
-1.9653818e+41
-4.2849108e+41
2.3807999e+41
-3.001101e+41
-2.6309243e+41
-2.6812967e+41
-2.0578532e+41
-2.1181703e+41
2.8184353e+41
-2.5520046e+41
-2.7207282e+41
-2.0351353e+41
-2.2566597e+41
-3.9343501e+41
2.0259551e+41
-2.6669139e+41
-2.6251233e+41
-2.1503853e+41
-2.1435506e+41
1.5510091e+41
-4.4656112e+41
-2.0838244e+41
-2.0703262e+41
-4.4335516e+41
-4.0172835e+41
-2.3225451e+41
-2.7429005e+41
-2.5427409e+41
-2.0424518e+41
-2.0139665e+41
-2.1634336e+41
-4.6138258e+41
-4.2731031e+41
2.1958274e+40
4.9238857e+41
-2.0915598e+40
-1.6427406e+42
4.8097631e+41
2.0815569e+40
-1.6483853e+42
-1.7274352e+41
1.8440601e+41
2.0891905e+41
-4.1945116e+41
-2.9420368e+41
-2.7802583e+41
-3.9994466e+41
2.3097634e+41
-2.1495833e+41
-4.2006113e+41
-4.097692e+41
-2.911201e+41
-2.8937393e+41
-1.4853202e+40
4.9214609e+41
-1.6344291e+42
4.8160062e+41
-1.6270141e+42
1.2989991e+41
2.0319026e+41
-4.1495504e+41
-4.0491807e+41
-2.8647358e+41
-2.85167e+41
1.8510274e+41
-3.9550629e+41
-4.1877842e+41
-2.9277297e+41
-2.7532143e+41
2.1764178e+41
3.2755562e+41
-2.4887155e+41
-4.3868082e+41
-2.076301e+41
-2.0920116e+41
-4.3464651e+41
3.8720945e+41
2.685946e+41
-4.6316046e+41
-2.1121249e+41
-1.9993074e+41
-4.2895779e+41
2.5813202e+41
-3.1306747e+41
-2.6102427e+41
-2.6726653e+41
-1.9217344e+41
-2.0826984e+41
3.0925326e+41
-2.5687014e+41
-2.7253726e+41
-1.9165914e+41
-2.1183918e+41
1.6856776e+41
4.0227165e+41
-4.5093916e+41
-2.0720571e+41
-2.0748205e+41
-4.4338933e+41
4.0470511e+41
-4.618091e+41
-2.0728302e+41
-1.9693743e+41
-4.2732118e+41
2.1506395e+41
-2.6184017e+41
-2.6746493e+41
-1.9793201e+41
-2.053247e+41
-2.5230603e+41
-2.6908565e+41
-1.9962348e+41
-2.1524406e+41
-4.1873216e+42
3.6711095e+42
-4.1208154e+42
-6.6274156e+43
4.9376861e+42
4.8859054e+42
-1.6744987e+42
-1.5498432e+42
2.2969451e+41
2.3336752e+42
-1.4269424e+43
2.6380959e+41
2.2747756e+42
-1.4250263e+43
-1.1133872e+42
-6.1969828e+43
1.1219528e+42
3.8720132e+42
-6.2116221e+43
-6.6778545e+43
4.9133045e+42
4.914482e+42
-1.6825809e+42
-1.6269042e+42
1.4823449e+41
2.3500237e+42
-1.4294662e+43
2.2907311e+42
-1.4225345e+43
1.1875173e+42
9.2508825e+41
9.524655e+41
-3.1664742e+42
-3.1470474e+42
-2.3393788e+42
-2.369668e+42
1.5453116e+41
1.9741561e+41
9.8731214e+41
9.609135e+41
9.4515309e+41
-3.0760211e+42
-3.172792e+42
-2.3613402e+42
-2.3199939e+42
1.5753911e+41
2.0238452e+41
-9.3306514e+41
9.7189365e+41
9.4440416e+41
-3.0838616e+42
-3.1720313e+42
-2.3275379e+42
-2.3631209e+42
1.6564961e+41
2.0037791e+41
9.4498016e+41
9.5986044e+41
-3.1703448e+42
-3.1495179e+42
-2.3704557e+42
-2.3435042e+42
1.6416391e+41
1.9465776e+41
3.1123832e+40
4.8816241e+41
-1.6249325e+42
4.7220288e+41
4.3376645e+40
-1.6338827e+42
-2.5639945e+41
2.9503238e+41
1.7613074e+41
-4.2060435e+41
-2.977684e+41
-3.9741682e+41
-2.7615901e+41
2.1865655e+41
-4.1604601e+41
-4.087305e+41
-2.9263759e+41
-2.8630846e+41
-8.7040716e+39
4.9699855e+41
-1.6333561e+42
4.8091168e+41
2.3445375e+40
-1.6218953e+42
1.956977e+41
2.2105268e+41
-4.1398522e+41
-4.080305e+41
-2.9011022e+41
-2.8459556e+41
1.969989e+41
2.6003247e+41
-2.9543971e+41
-4.2010975e+41
-3.9579428e+41
-2.7513485e+41
-2.7173662e+41
3.4109992e+41
-2.6093882e+41
-2.5072382e+41
-1.9702421e+41
-2.0812984e+41
2.6257078e+41
-2.0750764e+41
-2.1452496e+41
-4.414452e+41
-4.3222127e+41
3.4949142e+41
3.0830616e+41
-2.0258015e+41
-2.1067872e+41
-4.6512856e+41
-4.3089455e+41
4.0038587e+41
-2.4893966e+41
-2.7155209e+41
-1.8598418e+41
-2.165739e+41
2.0539395e+41
3.1673435e+41
-2.1339491e+41
-2.0810366e+41
-4.4970945e+41
-4.4249776e+41
3.5652601e+41
2.7499927e+41
-2.0360742e+41
-2.0993161e+41
-4.6612529e+41
-4.2975774e+41
2.7475323e+41
-2.5683158e+41
-2.6531738e+41
-1.8183086e+41
-1.9683127e+41
3.5969363e+41
-2.5085526e+41
-2.7143666e+41
-1.8740958e+41
-2.0290786e+41
1.4062603e+40
4.9956403e+41
-1.6285091e+42
4.7976184e+41
1.3572264e+40
-1.6302159e+42
1.9604588e+41
2.4901475e+41
-4.1814622e+41
-4.0941374e+41
-2.9080053e+41
-2.8748704e+41
2.0838e+41
2.1493143e+41
-2.928013e+41
-4.1746211e+41
-3.9605081e+41
-2.7514612e+41
-2.1350945e+40
4.9746827e+41
-1.6337998e+42
4.8245605e+41
-1.6258919e+42
1.4159831e+41
2.2931359e+41
-2.8776382e+41
-4.0723597e+41
-2.8495594e+41
-4.1465844e+41
2.0656481e+41
-4.2068968e+41
-3.9860582e+41
-2.9433935e+41
-2.7709423e+41
-2.995101e+41
2.7930877e+41
-2.6024278e+41
-2.6738038e+41
-1.9745839e+41
-1.8067433e+41
2.2803312e+41
-2.1377468e+41
-2.0780088e+41
-4.4060923e+41
-4.359568e+41
3.7367165e+41
2.6101198e+41
-4.656951e+41
-2.097102e+41
-2.0176403e+41
-4.3024145e+41
3.1885925e+41
-2.5323544e+41
-2.7136141e+41
-1.8366973e+41
-2.0005237e+41
1.6753111e+41
3.5692821e+41
-4.4759892e+41
-2.0493399e+41
-2.0952329e+41
-4.3993795e+41
3.6619628e+41
-4.5817724e+41
-2.0628461e+41
-1.9901154e+41
-4.239779e+41
2.2325897e+41
-2.6134465e+41
-2.6675428e+41
-1.9099557e+41
-1.9664201e+41
-2.5306014e+41
-2.6989732e+41
-1.9699025e+41
-2.0834361e+41
-3.4814169e+40
-1.086228e+41
3.7424466e+40
2.5331609e+41
-6.9451968e+41
-1.0732051e+41
-3.1637187e+40
2.4536532e+41
-6.8428735e+41
1.557707e+40
-1.3577747e+40
-6.4591762e+41
1.3546222e+40
-6.5981032e+41
-1.970317e+40
-1.0761725e+41
2.8551972e+40
2.6080246e+41
-6.9054944e+41
-1.0934388e+41
2.6249109e+41
-6.9182123e+41
6.3155534e+38
-6.5902444e+41
7.4823456e+39
-6.483568e+41
-2.9180953e+40
-1.0916263e+41
2.7379437e+40
2.6303353e+41
-6.9759588e+41
-1.107142e+41
2.5577526e+41
-6.8834797e+41
9.2025664e+39
-6.4961223e+41
6.0819057e+39
-6.5821009e+41
-1.4797197e+40
-1.1297074e+41
2.9180105e+40