/*--------------------------------*- C++ -*----------------------------------*\
  =========                 |
  \\      /  F ield         | OpenFOAM: The Open Source CFD Toolbox
   \\    /   O peration     | Website:  https://openfoam.org
    \\  /    A nd           | Version:  7
     \\/     M anipulation  |
\*---------------------------------------------------------------------------*/
FoamFile
{
    version     2.0;
    format      ascii;
    class       volVectorField;
    location    "8000";
    object      U;
}
// * * * * * * * * * * * * * * * * * * * * * * * * * * * * * * * * * * * * * //

dimensions      [0 1 -1 0 0 0 0];

internalField   nonuniform List<vector> 
33730
(
(-1.3727607e+47 -5.423187e+46 1.1085736e+46)
(-1.2388116e+47 -3.0031103e+46 1.9168449e+46)
(-1.1493515e+47 -2.1243094e+46 2.3876983e+46)
(-1.2892078e+47 -8.3543722e+45 7.6150903e+45)
(-1.2832486e+47 -6.9448623e+45 1.1047893e+46)
(-1.1747643e+47 -1.9188865e+46 -9.9707788e+45)
(-8.8787907e+46 -2.5483024e+46 1.0011065e+46)
(-1.2781045e+47 -3.0021042e+46 -1.2218318e+46)
(-9.6565986e+46 -3.5344283e+46 1.0561441e+46)
(-9.6474e+46 -1.2089907e+46 1.8847435e+46)
(-1.0099447e+47 -1.7938198e+46 1.6548207e+46)
(-1.0729081e+47 -3.9564018e+45 2.4673878e+46)
(-1.0287505e+47 -3.8676458e+45 2.6112648e+46)
(-1.0144144e+47 -1.6009207e+46 1.8286526e+46)
(-1.057479e+47 -3.5873543e+45 2.5502398e+46)
(-1.0210232e+47 -6.3540891e+45 2.6925039e+46)
(-9.6956279e+46 -1.1586265e+46 2.0448403e+46)
(-1.2649474e+47 -3.7436846e+44 -1.152552e+46)
(-1.2875253e+47 2.2975253e+45 9.830425e+45)
(-1.2685936e+47 -3.5561662e+44 1.4548341e+46)
(-1.2516049e+47 -2.4745506e+45 -1.3950738e+46)
(-1.2742596e+47 -8.0735245e+45 1.6943965e+46)
(-1.1654808e+47 -5.7080264e+44 -4.4024457e+45)
(-1.1131596e+47 -3.9731532e+45 1.3216462e+46)
(-1.1247004e+47 -4.1647829e+45 1.2678369e+46)
(-1.1237868e+47 -5.5752388e+45 1.5206328e+46)
(-1.1263561e+47 -3.598497e+45 1.2818182e+46)
(-9.5592812e+46 -9.5381095e+45 -3.9378756e+45)
(-1.0400703e+47 -5.5648954e+44 -1.4227157e+46)
(-1.0067064e+47 -1.1624174e+45 -1.6336195e+46)
(-9.1109095e+46 -4.9802079e+45 -5.1508564e+45)
(-8.7861168e+46 -1.0441513e+46 -1.1081025e+46)
(-9.1170526e+46 -1.5428238e+46 -1.2071395e+46)
(-6.6752028e+46 -1.4266909e+46 9.6588122e+45)
(-7.0313233e+46 -2.1930331e+46 8.9560709e+45)
(-9.4513852e+46 -9.8731119e+45 -3.2822501e+45)
(-1.0461933e+47 -9.2884521e+44 -1.3419043e+46)
(-9.992563e+46 3.4462196e+43 -1.4655548e+46)
(-8.9768525e+46 -4.1514389e+45 -3.9851107e+45)
(-9.2754055e+46 -1.8381181e+46 -1.13876e+46)
(-8.6195023e+46 -1.0861837e+46 -1.0278974e+46)
(-6.8253744e+46 -2.4084846e+46 7.7966471e+45)
(-6.4885678e+46 -1.5746919e+46 7.7152497e+45)
(-8.2440274e+46 -9.9470446e+45 1.5586998e+46)
(-9.3901143e+46 -2.2025999e+45 1.9408876e+46)
(-8.0004663e+46 -6.6203189e+45 1.6988157e+46)
(-9.1474105e+46 -2.7701287e+45 2.0309953e+46)
(-8.2293874e+46 -1.0558366e+46 1.5182384e+46)
(-7.9837352e+46 -7.4206224e+45 1.6255981e+46)
(-9.2791614e+46 -3.0891483e+45 2.0615994e+46)
(-9.5063386e+46 -2.7095174e+45 1.9763951e+46)
(-9.2690939e+46 -2.4887749e+45 2.0905491e+46)
(-7.9945293e+46 -5.9538349e+45 1.6913622e+46)
(-9.4614788e+46 -1.9172514e+45 1.9860341e+46)
(-8.2718878e+46 -9.2405481e+45 1.5991892e+46)
(-8.1137652e+46 -6.0029823e+45 1.8156228e+46)
(-8.2878163e+46 -8.6840478e+45 1.661825e+46)
(-9.2450995e+46 -3.9502993e+45 2.1869497e+46)
(-9.42615e+46 -2.3220842e+45 2.0731899e+46)
(-1.1404084e+47 -4.1293055e+45 4.2723555e+45)
(-1.0995366e+47 -8.2921445e+43 -9.6734853e+45)
(-9.5841093e+46 -9.4436089e+44 6.6912345e+43)
(-9.3319373e+46 -2.6506072e+45 -6.6286806e+45)
(-1.1478951e+47 2.0360413e+45 -1.3807017e+45)
(-1.1381368e+47 1.0425777e+45 3.5173355e+45)
(-1.1108226e+47 -7.3558984e+44 -1.0354958e+46)
(-1.2718241e+47 -3.5394111e+45 1.0724642e+46)
(-1.0968054e+47 7.5859941e+44 -1.4634305e+46)
(-1.1328764e+47 -1.7806762e+43 1.3059774e+46)
(-1.1058181e+47 -3.0702847e+44 -4.9211538e+45)
(-1.1192637e+47 -3.067127e+45 -3.8670378e+45)
(-1.1235969e+47 -4.5996411e+45 1.3343974e+46)
(-1.2475634e+47 3.9560335e+45 8.295324e+45)
(-1.1448064e+47 8.0871386e+44 -4.2372665e+45)
(-1.157174e+47 4.3611982e+45 -2.6966352e+45)
(-1.1181592e+47 1.1692226e+45 2.9259642e+45)
(-1.0898283e+47 -4.2985109e+44 -1.189572e+46)
(-1.0822973e+47 1.5030496e+45 -1.1828365e+46)
(-1.1184292e+47 -2.2171622e+45 3.3652463e+45)
(-1.1381653e+47 -2.8404556e+45 -3.876609e+45)
(-1.1440844e+47 -2.6253056e+45 -2.664335e+45)
(-1.124796e+47 4.6388754e+44 1.2367483e+46)
(-1.1254425e+47 -5.6272513e+45 1.3547124e+46)
(-1.3146646e+47 3.5207683e+45 1.5449054e+46)
(-1.1547247e+47 5.6234133e+45 2.0850701e+45)
(-9.8986097e+46 3.753369e+45 -5.282614e+45)
(-9.5163651e+46 -2.0083812e+45 1.1702157e+46)
(-9.4609545e+46 -2.7041517e+45 1.3091369e+46)
(-9.5483817e+46 -3.1474386e+45 1.3348742e+46)
(-9.5993049e+46 -2.5053241e+45 1.2892526e+46)
(-9.6248811e+46 -2.0147721e+45 1.2999724e+46)
(-9.6060933e+46 -3.5640079e+45 1.4710375e+46)
(-9.614939e+46 -2.8732187e+45 1.3699206e+46)
(-9.6047838e+46 -1.8059572e+45 1.2506996e+46)
(-1.2972958e+47 -7.4438415e+45 -7.7092754e+45)
(-1.3202141e+47 -7.7451692e+45 -8.2297264e+45)
(-1.0801234e+47 -6.912232e+45 -1.3915537e+46)
(-1.0633575e+47 -6.0574588e+44 1.1327478e+45)
(-1.0541496e+47 3.1669906e+44 -7.6730008e+44)
(-1.0805085e+47 -6.9744615e+45 -1.423071e+46)
(-7.8138699e+46 -9.857254e+44 -1.528403e+46)
(-6.9150481e+46 -5.3342995e+45 -9.3962175e+45)
(-7.5889398e+46 -1.2209505e+45 -1.6169578e+46)
(-6.6535717e+46 -2.6342051e+45 -9.9209434e+45)
(-7.6015296e+46 -7.0595748e+44 -1.5505159e+46)
(-7.8602292e+46 -1.0269687e+45 -1.4675037e+46)
(-6.8987151e+46 -5.5813272e+45 -9.2799489e+45)
(-6.6235949e+46 -2.3173089e+45 -9.6031433e+45)
(-5.6241439e+46 -9.205206e+45 -9.278416e+45)
(-5.4383628e+46 -6.8696305e+45 -8.0647713e+45)
(-5.2751293e+46 -1.3984608e+46 1.2748995e+46)
(-4.9739195e+46 -7.6347272e+45 1.2887796e+46)
(-5.6456542e+46 -1.0106304e+46 -9.3234047e+45)
(-5.2658679e+46 -6.1134568e+45 -8.2490745e+45)
(-5.0810855e+46 -1.3751576e+46 1.0104826e+46)
(-4.8998367e+46 -7.6224232e+45 1.2154076e+46)
(-1.0599043e+47 -7.9135951e+45 -1.3410389e+46)
(-1.0544268e+47 -7.078495e+44 1.6612948e+45)
(-1.0426451e+47 7.329403e+44 1.5502944e+43)
(-1.0705992e+47 -7.4693632e+45 -1.3569868e+46)
(-7.5189588e+46 -7.1890503e+44 -1.4629418e+46)
(-7.7757974e+46 -1.4125816e+45 -1.372136e+46)
(-6.7900616e+46 -6.4852369e+45 -8.4865763e+45)
(-6.5181105e+46 -3.0658341e+45 -9.0254407e+45)
(-7.5331171e+46 -7.3933058e+44 -1.5162052e+46)
(-7.7675741e+46 -8.0778967e+44 -1.4350216e+46)
(-6.5482529e+46 -2.7225244e+45 -9.3602315e+45)
(-6.8160123e+46 -5.7023735e+45 -8.8368014e+45)
(-5.6844535e+46 -1.3261217e+46 -8.4432626e+45)
(-5.3871905e+46 -9.4872251e+45 -7.3761585e+45)
(-4.9037641e+46 -1.6193017e+46 8.9221995e+45)
(-4.7045404e+46 -1.0242309e+46 9.3568222e+45)
(-5.6322854e+46 -1.1325243e+46 -9.1669705e+45)
(-5.3202486e+46 -7.6636018e+45 -8.119589e+45)
(-5.054128e+46 -1.4669778e+46 9.3966212e+45)
(-4.8360826e+46 -8.6298428e+45 1.0645054e+46)
(-8.1086581e+46 -1.4716804e+45 1.6122517e+46)
(-7.0640195e+46 -6.1503471e+45 1.4674935e+46)
(-6.8508361e+46 -3.7560037e+45 1.5335202e+46)
(-8.0023615e+46 -1.4120062e+45 1.6665216e+46)
(-7.02412e+46 -5.5166097e+45 1.5162031e+46)
(-6.8687777e+46 -3.4351492e+45 1.5851083e+46)
(-7.9691281e+46 -1.6557429e+45 1.745114e+46)
(-8.0833619e+46 -9.8022257e+44 1.6610027e+46)
(-6.9843853e+46 -6.0854089e+45 1.4449306e+46)
(-6.8595195e+46 -4.2309643e+45 1.5040213e+46)
(-8.1072739e+46 -1.7267277e+45 1.665756e+46)
(-8.0446329e+46 -2.1131079e+45 1.7166478e+46)
(-7.0698005e+46 -6.0620251e+45 1.4765255e+46)
(-6.8862762e+46 -4.0231999e+45 1.5528856e+46)
(-8.1341737e+46 -1.6528218e+45 1.6484617e+46)
(-7.991373e+46 -2.0889024e+45 1.6904267e+46)
(-7.0577373e+46 -5.4248997e+45 1.570053e+46)
(-6.9093511e+46 -3.0025405e+45 1.6273794e+46)
(-8.2092122e+46 -1.1193115e+45 1.7320325e+46)
(-8.0711938e+46 -1.6688053e+45 1.7792363e+46)
(-7.0522902e+46 -5.6875275e+45 1.5108887e+46)
(-6.8934557e+46 -3.4371795e+45 1.5718399e+46)
(-8.1818649e+46 -1.1114413e+45 1.674653e+46)
(-8.0986144e+46 -1.3951719e+45 1.7288892e+46)
(-7.119829e+46 -5.1102614e+45 1.6384471e+46)
(-8.2157343e+46 -1.3687229e+45 1.8409292e+46)
(-8.100701e+46 -2.244197e+45 1.8948969e+46)
(-6.9712499e+46 -3.1030795e+45 1.693869e+46)
(-7.0993799e+46 -5.4444665e+45 1.5810802e+46)
(-6.9199602e+46 -2.8401364e+45 1.6203441e+46)
(-8.2202058e+46 -1.3410188e+45 1.774659e+46)
(-8.1001179e+46 -1.3697895e+45 1.7941046e+46)
(-9.1960301e+46 -1.4568032e+45 -5.3454468e+45)
(-9.2307284e+46 -2.3908015e+45 -6.0494122e+45)
(-9.3606581e+46 -2.7874347e+45 1.0944791e+45)
(-9.4001484e+46 -3.983287e+44 4.4553889e+44)
(-7.5625878e+46 -7.7867706e+44 -3.9723252e+45)
(-7.7472871e+46 -1.6895714e+44 -3.2550253e+44)
(-9.4834325e+46 -2.9313299e+45 8.5324169e+43)
(-9.5259583e+46 -5.5837513e+44 -3.6639842e+44)
(-9.2725206e+46 -2.0700301e+45 -7.1001569e+45)
(-9.2496665e+46 -1.5210163e+45 -6.7203468e+45)
(-1.1273532e+47 -1.222166e+45 -1.4038264e+45)
(-7.6481931e+46 -7.6802664e+44 -3.4384205e+45)
(-7.7774989e+46 3.0816265e+43 -5.6109202e+44)
(-7.6428854e+46 -1.8060829e+44 -3.1112178e+45)
(-7.7929798e+46 -1.1920835e+45 -3.0491931e+44)
(-8.0154262e+46 -1.8975521e+44 -1.6364351e+44)
(-7.9963669e+46 -1.4607345e+45 -4.5759459e+43)
(-7.9155751e+46 -1.0796468e+45 -4.9075411e+45)
(-9.6320317e+46 -9.9275881e+44 -1.9685531e+45)
(-7.9044009e+46 -6.941376e+44 -5.1062332e+45)
(-9.4005276e+46 -8.4544886e+44 -9.1426634e+45)
(-9.4645352e+46 -2.5049371e+45 -8.5809376e+45)
(-9.1973257e+46 -6.3715168e+44 -5.3448526e+45)
(-9.1634553e+46 -1.7025497e+45 -5.9991865e+45)
(-9.3548317e+46 1.4028817e+44 7.5249681e+44)
(-9.4081749e+46 -2.195637e+45 1.1838607e+45)
(-9.5224814e+46 -2.1163504e+45 1.3277691e+44)
(-9.2269047e+46 -8.1437141e+44 -6.831804e+45)
(-9.2228083e+46 -1.6708091e+45 -6.5468344e+45)
(-9.496186e+46 1.2727512e+44 1.7929102e+44)
(-1.1379736e+47 3.2149486e+45 -1.2451756e+45)
(-1.0963236e+47 2.0288945e+45 -1.3958316e+46)
(-1.0838254e+47 3.0880736e+45 -1.4021743e+46)
(-9.640783e+46 -5.9566805e+44 -9.2640215e+45)
(-9.6018874e+46 7.0882906e+44 -1.1458492e+46)
(-9.9837337e+46 2.0821848e+44 -1.6682963e+45)
(-9.9084858e+46 -1.8221642e+45 -2.6656388e+45)
(-9.7829435e+46 -4.1625359e+43 1.2931011e+46)
(-9.5205691e+46 -1.4472629e+45 1.714096e+45)
(-9.5404376e+46 -2.4398079e+45 1.6123715e+45)
(-9.7395457e+46 -3.6750756e+45 1.3272782e+46)
(-9.4228858e+46 -1.1186846e+44 4.1096234e+45)
(-9.0103575e+46 -4.5078805e+44 -4.349664e+45)
(-9.0409778e+46 -1.591997e+45 -5.0562817e+45)
(-9.4202031e+46 -2.5235308e+45 4.8044246e+45)
(-9.4898109e+46 -1.1266917e+44 5.1247253e+45)
(-9.0750784e+46 -1.3558365e+45 -2.9382928e+45)
(-9.0521959e+46 -1.9229737e+45 -3.7603541e+45)
(-9.5609382e+46 -2.9506089e+45 5.9179359e+45)
(-9.5051028e+46 -2.468235e+45 8.3204155e+44)
(-9.4856347e+46 -1.4792713e+45 1.1410383e+45)
(-9.6422225e+46 -3.1840045e+45 1.249189e+46)
(-9.6694601e+46 3.3416311e+44 1.1749731e+46)
(-1.3046834e+47 -2.7750314e+44 1.685156e+46)
(-1.2736162e+47 3.1347965e+45 1.6379225e+46)
(-9.4671483e+46 2.9743771e+45 -1.8452565e+46)
(-9.6162366e+46 -1.8255308e+45 -1.8995057e+46)
(-1.0721559e+47 4.6902574e+45 -1.4622791e+46)
(-1.0899959e+47 2.7345375e+45 -1.4483815e+46)
(-1.1270799e+47 3.563517e+45 -2.1280692e+45)
(-1.1215671e+47 -1.1445935e+44 -2.0759401e+45)
(-1.13901e+47 7.0452143e+45 6.5712106e+44)
(-9.8897757e+46 5.1646464e+45 -5.5465924e+45)
(-9.8944349e+46 7.288887e+45 -5.2139253e+45)
(-1.1489952e+47 2.7663003e+45 1.243616e+45)
(-1.1453198e+47 6.485661e+45 1.6983545e+45)
(-9.9702959e+46 5.1275686e+45 -4.9314636e+45)
(-9.9601672e+46 6.1254982e+45 -4.3631753e+45)
(-1.1546683e+47 1.0467056e+45 2.4082677e+45)
(-8.9453474e+46 -2.3978437e+45 -5.1771252e+45)
(-9.2128788e+46 -4.9843655e+44 1.1231172e+45)
(-9.1741053e+46 -2.3606645e+45 1.3298643e+45)
(-8.9034662e+46 -4.6072034e+44 -5.8436471e+45)
(-9.2347926e+46 -4.6411557e+44 -1.4692435e+44)
(-9.0271834e+46 -5.4258632e+44 -7.4561968e+45)
(-9.0299881e+46 -1.9571606e+45 -7.4217377e+45)
(-9.2561733e+46 -2.0718823e+45 2.0460586e+41)
(-9.0833025e+46 -1.4990338e+45 -8.399343e+45)
(-9.2425216e+46 -1.6114714e+45 -7.8547116e+44)
(-9.2679517e+46 8.9215026e+43 -9.321652e+44)
(-9.0154955e+46 -2.5249299e+44 -8.3588464e+45)
(-8.9466664e+46 -1.5715027e+45 -6.914349e+45)
(-8.9455999e+46 -5.0739831e+44 -5.5958111e+45)
(-9.1254255e+46 3.9431134e+44 -7.4092062e+44)
(-9.1350892e+46 -1.3815316e+45 -6.9949672e+43)
(-9.6260298e+46 -2.6768346e+45 5.4498902e+45)
(-9.2281654e+46 -1.4872072e+45 -3.807581e+45)
(-9.6033565e+46 2.6205518e+44 4.934519e+45)
(-9.2688907e+46 -9.6452452e+44 -3.3505612e+45)
(-9.2894716e+46 -2.032364e+45 -4.144108e+45)
(-9.6236541e+46 -3.3341924e+44 4.780966e+45)
(-9.6021298e+46 -3.5508765e+45 5.6546367e+45)
(-9.2598262e+46 -1.5541647e+45 -3.2795202e+45)
(-9.6697852e+46 -2.1088428e+45 1.1061031e+45)
(-9.8146891e+46 3.4841343e+44 1.2714909e+46)
(-9.6930922e+46 -1.6218658e+45 1.9671081e+45)
(-9.8295286e+46 -3.6601669e+45 1.3438514e+46)
(-9.735008e+46 -2.3149609e+45 2.2462118e+45)
(-9.7033078e+46 -2.4807404e+45 9.1376359e+44)
(-9.8182039e+46 1.7647227e+44 1.2857641e+46)
(-9.7853319e+46 -4.073814e+45 1.3835777e+46)
(-1.1103743e+47 4.9412017e+45 1.1356573e+46)
(-7.8236521e+46 3.7324635e+45 -1.2332376e+46)
(-1.0215291e+47 2.5328801e+45 -4.1933916e+45)
(-9.6630069e+46 2.5033641e+45 -1.3076285e+46)
(-9.6595741e+46 4.2090698e+45 -1.3107404e+46)
(-1.0229814e+47 5.9493754e+44 -4.4400712e+45)
(-9.1800972e+46 5.2150795e+45 -8.314008e+45)
(-1.0406042e+47 6.617265e+45 -1.68798e+45)
(-9.2321112e+46 6.6951873e+45 -8.2121561e+45)
(-1.0507221e+47 3.4989237e+45 -1.3763717e+45)
(-8.091657e+46 -1.2706875e+45 1.095646e+46)
(-8.0778827e+46 -1.7155393e+45 1.1355197e+46)
(-8.0349884e+46 -1.6204908e+45 1.196251e+46)
(-8.0821828e+46 -8.3476536e+44 1.110928e+46)
(-8.1420855e+46 -1.3402729e+45 1.1188046e+46)
(-8.0929824e+46 -2.128676e+45 1.1912102e+46)
(-8.0873402e+46 -1.309673e+45 1.1629882e+46)
(-8.115398e+46 -2.1820607e+45 1.1970463e+46)
(-8.1768797e+46 -1.6090149e+45 1.2245286e+46)
(-8.1924605e+46 -9.6124923e+44 1.1826653e+46)
(-8.2258185e+46 -9.2425286e+44 1.2286581e+46)
(-8.1901641e+46 -2.0762955e+45 1.3181645e+46)
(-8.1494715e+46 -1.7627924e+45 1.2283346e+46)
(-8.1934982e+46 -8.6271252e+44 1.1446904e+46)
(-8.1688691e+46 -1.6105169e+45 1.1896981e+46)
(-8.166055e+46 -7.7198809e+44 1.1560983e+46)
(-1.3031449e+47 -3.25432e+45 -2.9251602e+45)
(-1.3220663e+47 -3.3879054e+45 -3.0876934e+45)
(-1.1156458e+47 -4.8717793e+45 -1.1372578e+46)
(-8.2055802e+46 -9.6756183e+44 -8.9458422e+45)
(-8.2605534e+46 -1.5261039e+45 -7.7012014e+45)
(-1.0985666e+47 3.900565e+45 -7.4558267e+45)
(-1.1048982e+47 -8.57846e+44 -9.3380891e+45)
(-1.1180858e+47 -4.8329301e+45 -1.152717e+46)
(-8.2470784e+46 -1.1599008e+45 -9.3267529e+45)
(-8.2783018e+46 -1.4934167e+45 -8.0219716e+45)
(-7.9975318e+46 -4.4440869e+45 -1.740746e+46)
(-7.9821983e+46 -4.6632868e+45 -1.7568038e+46)
(-7.934888e+46 -4.842347e+45 -1.7252689e+46)
(-7.9076413e+46 -4.7077395e+45 -1.725002e+46)
(-4.6344814e+46 -4.483554e+44 -1.3851306e+46)
(-4.5071657e+46 -5.0670745e+44 -1.4351363e+46)
(-4.042546e+46 -2.9627967e+45 -8.015199e+45)
(-4.2884237e+46 -5.7211658e+45 -8.1079386e+45)
(-4.5085057e+46 -9.5979935e+44 -1.4791033e+46)
(-4.6144083e+46 -4.8602421e+44 -1.4001905e+46)
(-4.2571551e+46 -5.4930474e+45 -7.6916066e+45)
(-4.1420003e+46 -3.6792904e+45 -7.8328974e+45)
(-4.4645528e+46 -8.2571654e+45 1.5527315e+46)
(-4.2231832e+46 -3.2445978e+45 1.6229454e+46)
(-3.3945771e+46 -7.7891806e+45 1.5555905e+45)
(-3.1704937e+46 -5.8275476e+45 3.493729e+45)
(-3.4052929e+46 -7.5122068e+45 2.5273422e+45)
(-4.506295e+46 -8.0786608e+45 1.6759763e+46)
(-3.1550076e+46 -6.2310279e+45 3.3287399e+45)
(-4.2428702e+46 -3.3457217e+45 1.663599e+46)
(-4.6323203e+46 -4.2739171e+44 -1.3630876e+46)
(-4.5224829e+46 -4.0228404e+44 -1.4153332e+46)
(-3.9639618e+46 -2.8972027e+45 -8.6099554e+45)
(-4.2501713e+46 -5.9184018e+45 -8.3531172e+45)
(-4.5930019e+46 -2.3022799e+44 -1.3680728e+46)
(-4.4700805e+46 -5.6782522e+44 -1.4430828e+46)
(-4.1704446e+46 -5.2305194e+45 -8.1858681e+45)
(-3.9965046e+46 -3.2238989e+45 -8.321875e+45)
(-4.4469232e+46 -8.2877543e+45 1.4396146e+46)
(-4.2479181e+46 -3.7852301e+45 1.5143471e+46)
(-3.3325607e+46 -8.0174033e+45 7.4928491e+44)
(-3.1697715e+46 -6.3496011e+45 3.1182675e+45)
(-4.5654654e+46 -8.4400373e+45 1.6505325e+46)
(-4.2402764e+46 -3.3851156e+45 1.6324704e+46)
(-3.5051932e+46 -7.9486844e+45 2.7721993e+45)
(-3.1808314e+46 -6.2617043e+45 3.5670672e+45)
(-1.0964736e+47 -6.3188777e+45 -1.1128033e+46)
(-8.1551311e+46 -2.3192651e+45 -7.4071783e+45)
(-8.0574655e+46 -1.3849122e+45 -8.6017032e+45)
(-1.0873487e+47 3.4393082e+45 -6.7895487e+45)
(-1.0971519e+47 -5.6717094e+44 -8.6111762e+45)
(-1.1029715e+47 -5.3654575e+45 -1.1092864e+46)
(-8.1401279e+46 -1.6501392e+45 -7.4383741e+45)
(-8.0546677e+46 -1.094279e+45 -8.6187821e+45)
(-7.9099719e+46 -7.3081444e+45 -1.7308834e+46)
(-7.8310816e+46 -6.4625241e+45 -1.7189043e+46)
(-7.8233722e+46 -5.3353314e+45 -1.7178006e+46)
(-7.8583951e+46 -5.7604541e+45 -1.7256186e+46)
(-4.5578189e+46 -8.0625701e+44 -1.3125113e+46)
(-4.4408373e+46 -8.4501519e+44 -1.3699755e+46)
(-4.0224984e+46 -5.4180904e+45 -8.0366418e+45)
(-4.284706e+46 -8.0851413e+45 -7.9366252e+45)
(-4.5543182e+46 -5.3935842e+44 -1.3405787e+46)
(-4.4227601e+46 -7.1800633e+44 -1.4218997e+46)
(-4.2263959e+46 -7.2306251e+45 -8.0615836e+45)
(-3.9952486e+46 -4.8956307e+45 -8.4196602e+45)
(-3.0958519e+46 -1.0298521e+46 -7.0086534e+44)
(-4.4567927e+46 -9.1507637e+45 1.3359303e+46)
(-4.3590069e+46 -5.3895197e+45 1.4420874e+46)
(-3.0111837e+46 -9.0454199e+45 2.3827918e+45)
(-4.6281073e+46 -8.9924083e+45 1.4638027e+46)
(-4.3564271e+46 -4.6563896e+45 1.503127e+46)
(-3.245855e+46 -9.3795188e+45 2.6531435e+44)
(-3.0300243e+46 -8.0712238e+45 2.0855241e+45)
(-4.5691104e+46 -3.4083807e+44 -1.3528609e+46)
(-4.4421449e+46 -3.4535127e+44 -1.4048161e+46)
(-4.2456528e+46 -6.6843884e+45 -8.5362489e+45)
(-3.9197905e+46 -3.67839e+45 -8.6937536e+45)
(-4.5744397e+46 -2.125139e+44 -1.367842e+46)
(-4.4528433e+46 -5.8010323e+44 -1.441688e+46)
(-4.1463552e+46 -5.6858201e+45 -8.4714102e+45)
(-3.9827961e+46 -3.7821026e+45 -8.6012685e+45)
(-3.2627537e+46 -8.6901662e+45 -2.4550731e+44)
(-4.5229615e+46 -8.5242441e+45 1.3775314e+46)
(-4.2985099e+46 -4.2126741e+45 1.4899231e+46)
(-3.0912598e+46 -7.1093857e+45 2.5356317e+45)
(-4.5177427e+46 -8.217625e+45 1.5376569e+46)
(-4.2114951e+46 -3.8199095e+45 1.5117148e+46)
(-3.3643283e+46 -7.9820449e+45 1.2523215e+45)
(-3.0904276e+46 -6.8477052e+45 2.4102209e+45)
(-5.5594577e+46 -1.8862007e+45 1.4540328e+46)
(-5.5900904e+46 -3.7461567e+45 1.4244424e+46)
(-7.100276e+46 -1.1781309e+45 1.4496895e+46)
(-7.0744284e+46 -1.2238326e+45 1.4751525e+46)
(-5.5176826e+46 -1.3317091e+45 1.5150893e+46)
(-5.5884781e+46 -3.6349789e+45 1.4440099e+46)
(-7.110555e+46 -7.6188752e+44 1.4233805e+46)
(-7.0247553e+46 -8.1796769e+44 1.4342998e+46)
(-5.5447519e+46 -1.3878645e+45 1.4950284e+46)
(-5.5853312e+46 -3.4167145e+45 1.4631353e+46)
(-7.103073e+46 -7.414608e+44 1.4819688e+46)
(-7.0393006e+46 -6.7600998e+44 1.4631581e+46)
(-5.6475255e+46 -1.2489968e+45 1.5712476e+46)
(-5.6952912e+46 -3.1984194e+45 1.4969807e+46)
(-7.1526879e+46 -6.8062374e+44 1.5224996e+46)
(-7.0010102e+46 -9.1727843e+44 1.5133012e+46)
(-5.5493968e+46 -1.9733933e+45 1.4572067e+46)
(-5.6165683e+46 -3.4601667e+45 1.4557745e+46)
(-7.0566526e+46 -1.1491166e+45 1.4611201e+46)
(-7.0429581e+46 -1.5033726e+45 1.502054e+46)
(-5.5757604e+46 -1.734849e+45 1.4946167e+46)
(-5.6160228e+46 -3.729398e+45 1.4308464e+46)
(-7.1109437e+46 -1.2831212e+45 1.4400027e+46)
(-7.0381173e+46 -1.4281978e+45 1.4512475e+46)
(-5.5900785e+46 -1.8535252e+45 1.4631106e+46)
(-5.6120276e+46 -3.81528e+45 1.4246348e+46)
(-7.1253099e+46 -1.1606788e+45 1.422105e+46)
(-7.1004015e+46 -1.2662616e+45 1.4810795e+46)
(-5.5495185e+46 -1.5228864e+45 1.5153036e+46)
(-5.6175724e+46 -3.5499668e+45 1.4564946e+46)
(-7.1075124e+46 -9.1633445e+44 1.4533821e+46)
(-7.0166123e+46 -1.2593326e+45 1.4541856e+46)
(-5.5943162e+46 -1.3410373e+45 1.5733784e+46)
(-5.6159337e+46 -3.5876777e+45 1.5354661e+46)
(-7.169179e+46 -7.5991133e+44 1.4899569e+46)
(-7.1215953e+46 -7.065483e+44 1.5165922e+46)
(-5.5553348e+46 -1.0226062e+45 1.6346988e+46)
(-5.6106587e+46 -3.2412953e+45 1.5774252e+46)
(-7.1531068e+46 -6.6546453e+44 1.567517e+46)
(-7.0627375e+46 -9.1533885e+44 1.5382679e+46)
(-5.5948676e+46 -1.7547051e+45 1.5142465e+46)
(-5.5845313e+46 -3.5491066e+45 1.4885983e+46)
(-7.1351373e+46 -7.0309704e+44 1.4659146e+46)
(-7.1317798e+46 -1.0313928e+45 1.5300618e+46)
(-5.5586881e+46 -1.3326485e+45 1.5777436e+46)
(-5.608617e+46 -3.6133722e+45 1.50631e+46)
(-7.169518e+46 -7.9995043e+44 1.474188e+46)
(-7.0989218e+46 -8.902585e+44 1.4941163e+46)
(-5.7076384e+46 -1.2940303e+45 1.634382e+46)
(-5.7648792e+46 -3.293706e+45 1.5969723e+46)
(-7.2682081e+46 -7.2864743e+44 1.5983997e+46)
(-7.221515e+46 -8.5109263e+44 1.62671e+46)
(-5.6401205e+46 -1.2737709e+45 1.7040153e+46)
(-5.792845e+46 -3.4571977e+45 1.6460946e+46)
(-7.1821226e+46 -8.5566823e+44 1.6202042e+46)
(-7.1360043e+46 -1.297876e+45 1.6514458e+46)
(-5.6856563e+46 -1.437428e+45 1.581289e+46)
(-5.7362731e+46 -3.3805327e+45 1.554004e+46)
(-7.2440258e+46 -8.4625226e+44 1.5631693e+46)
(-7.1514227e+46 -8.7703679e+44 1.5601305e+46)
(-5.5655987e+46 -9.2064518e+44 1.6449069e+46)
(-5.6146103e+46 -3.4254652e+45 1.5819571e+46)
(-7.1737235e+46 -7.3824338e+44 1.5672588e+46)
(-7.089509e+46 -7.8035763e+44 1.5448951e+46)
(-1.4211378e+47 1.4818728e+45 -1.7130655e+46)
(-7.5168444e+46 -7.1069238e+44 -4.2032212e+45)
(-7.4807367e+46 9.6031846e+43 -3.8351468e+45)
(-7.6871458e+46 -1.075636e+44 -5.4647985e+44)
(-7.6655861e+46 -1.1082197e+45 -1.4503751e+44)
(-7.492997e+46 -6.3536292e+44 -4.3247318e+45)
(-7.6773327e+46 2.2120051e+43 -7.0194598e+44)
(-7.4819748e+46 7.7673663e+43 -4.0356908e+45)
(-7.6737843e+46 -1.0321665e+45 -3.5883862e+44)
(-7.5223846e+46 -1.0906545e+45 -4.2584836e+45)
(-7.6598589e+46 -2.0731402e+43 -4.7808026e+44)
(-7.4926736e+46 -2.1410785e+44 -3.875573e+45)
(-7.6287795e+46 -1.1643013e+45 -1.3300765e+44)
(-7.4909523e+46 -1.0027848e+45 -4.4498705e+45)
(-7.6454576e+46 -6.9840274e+43 -6.4416976e+44)
(-7.4772002e+46 -9.4690331e+43 -4.0914961e+45)
(-7.640683e+46 -1.2276511e+45 -3.1608327e+44)
(-6.4219569e+46 -5.3846821e+44 -3.4582603e+45)
(-6.4840556e+46 -4.2634206e+44 -1.0174908e+45)
(-6.3343804e+46 1.0852128e+44 -3.3718504e+45)
(-6.4832272e+46 3.7782967e+44 -1.326333e+45)
(-6.333898e+46 2.8157736e+44 -3.1302557e+45)
(-6.3708751e+46 -2.826825e+44 -3.4612273e+45)
(-6.5035543e+46 9.6678807e+43 -1.3187729e+45)
(-6.3723569e+46 7.338079e+42 -3.14402e+45)
(-6.3360461e+46 -8.5525243e+43 -3.4351034e+45)
(-6.4805533e+46 1.5817472e+44 -1.3829064e+45)
(-7.5838383e+46 -8.4634466e+44 -3.81551e+45)
(-7.7084851e+46 1.4223334e+44 -9.6501051e+44)
(-7.552651e+46 1.5553674e+44 -3.4448903e+45)
(-7.6850293e+46 -7.0251401e+44 -6.119736e+44)
(-7.5830047e+46 -6.3118002e+44 -3.8685931e+45)
(-7.7146456e+46 1.6942822e+44 -1.0165898e+45)
(-7.56637e+46 1.9707928e+44 -3.6386668e+45)
(-7.7093926e+46 -8.2539934e+44 -7.6778825e+44)
(-7.9513193e+46 -4.8656862e+42 -6.8529653e+44)
(-7.9475352e+46 -1.071152e+45 -4.8287009e+44)
(-7.8539997e+46 -8.5209038e+44 -5.4378856e+45)
(-7.8275612e+46 -3.6480244e+44 -5.2830717e+45)
(-9.5568161e+46 -1.6576923e+44 -2.2126209e+45)
(-7.9314909e+46 -2.1342957e+44 -7.0141368e+44)
(-7.9023751e+46 -1.0261411e+45 -3.9597102e+44)
(-7.8036544e+46 -2.3117038e+44 -5.2677438e+45)
(-7.8286288e+46 -1.0829209e+45 -5.436079e+45)
(-9.5856475e+46 -2.5535453e+45 -1.5008851e+45)
(-9.3899262e+46 -1.8279969e+45 -9.5331925e+45)
(-9.3424714e+46 -1.1495129e+45 -7.3359123e+45)
(-6.3572274e+46 2.4799873e+44 -9.9460701e+44)
(-6.113249e+46 6.1409085e+44 -3.1301754e+45)
(-6.3612264e+46 9.6587717e+44 -1.2260495e+45)
(-6.0980854e+46 8.6567652e+44 -2.9285215e+45)
(-6.2364203e+46 4.2853183e+44 -3.3815517e+45)
(-6.4185015e+46 7.2585059e+44 -1.3735535e+45)
(-6.4201045e+46 -7.7200342e+43 -1.1333154e+45)
(-6.2385066e+46 7.2237941e+44 -3.087977e+45)
(-6.3932805e+46 -1.3262067e+44 -9.9128941e+44)
(-6.1487341e+46 4.1616623e+44 -2.9893133e+45)
(-6.3958815e+46 8.2085196e+44 -1.2321861e+45)
(-6.1393295e+46 5.3060494e+44 -2.8081482e+45)
(-6.2466565e+46 2.8506439e+44 -3.4222882e+45)
(-6.4252149e+46 6.1253658e+44 -1.4083787e+45)
(-6.2511454e+46 3.3733295e+44 -3.1251483e+45)
(-6.4147412e+46 -3.2670877e+44 -1.1896484e+45)
(-5.7626411e+46 1.2920668e+45 -3.8994968e+45)
(-5.7765457e+46 4.9765115e+44 -3.7210409e+45)
(-6.2455079e+46 9.2411747e+44 -7.3013045e+44)
(-6.240759e+46 2.6040465e+44 -5.2320167e+44)
(-6.235623e+46 7.2997903e+44 -6.9657597e+44)
(-6.2329819e+46 8.6723601e+43 -5.1069541e+44)
(-5.7247498e+46 9.9815895e+44 -4.2307148e+45)
(-5.7401964e+46 1.4861801e+44 -4.0813492e+45)
(-6.5883124e+46 1.7072148e+44 -1.8951972e+45)
(-8.0662669e+46 -7.2312825e+44 -2.0497794e+45)
(-7.9408118e+46 -1.1630743e+45 -5.3454858e+45)
(-7.9433385e+46 -1.8093778e+45 -5.5417029e+45)
(-8.0637327e+46 -1.8556394e+45 -1.8793981e+45)
(-6.5885445e+46 -1.8689397e+44 -2.3080597e+45)
(-7.9925858e+46 -1.4665826e+45 -6.8374822e+45)
(-8.0078132e+46 -2.3697077e+45 -6.5915681e+45)
(-8.1635354e+46 -1.278583e+45 -2.6940269e+45)
(-8.1404491e+46 -2.0559357e+45 -3.1325487e+45)
(-8.05923e+46 -1.7132598e+45 -5.817696e+45)
(-8.0555624e+46 -2.2266942e+45 -5.850373e+45)
(-8.2117097e+46 -1.2394579e+45 -2.4376046e+45)
(-8.2070019e+46 -2.3233304e+45 -2.3853639e+45)
(-7.5109313e+46 -3.68632e+44 -4.2468234e+45)
(-7.4672811e+46 3.4614436e+44 -4.0937687e+45)
(-7.6952185e+46 2.7585007e+44 -6.0410361e+44)
(-7.6624028e+46 -8.0933808e+44 -3.9572435e+44)
(-7.4506759e+46 -2.1634555e+44 -4.1354445e+45)
(-7.654593e+46 5.4343276e+44 -4.9121086e+44)
(-7.4627533e+46 4.5434544e+44 -3.9558491e+45)
(-7.6528897e+46 -5.9211785e+44 -3.2735654e+44)
(-7.460763e+46 -5.0326964e+44 -4.2422205e+45)
(-7.6335811e+46 4.3704507e+44 -4.6524746e+44)
(-7.4577453e+46 2.7193742e+44 -4.0326594e+45)
(-7.6339332e+46 -8.7058172e+44 -3.1146334e+44)
(-7.5027959e+46 -7.9535693e+44 -4.3063168e+45)
(-7.6625433e+46 2.5575856e+44 -6.0609094e+44)
(-7.4695141e+46 2.717821e+43 -4.0727897e+45)
(-7.6286548e+46 -9.5502196e+44 -3.8827415e+44)
(-7.583845e+46 -5.741305e+44 -3.877023e+45)
(-7.7289886e+46 5.1663841e+44 -1.0214603e+45)
(-7.5549454e+46 3.9092212e+44 -3.7731719e+45)
(-7.6970117e+46 -3.9591517e+44 -9.0493552e+44)
(-7.9443018e+46 1.2502869e+44 -7.7728986e+44)
(-7.9269136e+46 -7.6237943e+44 -6.5199418e+44)
(-7.7913138e+46 2.2260013e+43 -5.53345e+45)
(-7.8377009e+46 -7.6029106e+44 -5.566169e+45)
(-9.5992758e+46 -1.9274212e+45 -1.9952026e+45)
(-7.9236437e+46 6.7466525e+44 -9.2776807e+43)
(-7.9354228e+46 -6.8527299e+44 -3.9478857e+43)
(-7.7925141e+46 9.8876907e+42 -4.9365796e+45)
(-7.7926099e+46 -3.2989123e+44 -5.091222e+45)
(-9.5858541e+46 -9.2897817e+43 -1.7094714e+45)
(-7.5391157e+46 -6.9975495e+42 -3.4308295e+45)
(-7.6652196e+46 7.3425014e+44 -9.3041182e+44)
(-7.5512413e+46 5.3526073e+44 -3.3229189e+45)
(-7.6784994e+46 -3.9064054e+44 -8.0433064e+44)
(-9.3686944e+46 -1.7006616e+45 -8.7734305e+45)
(-9.3644069e+46 -1.4188351e+44 -9.2358901e+45)
(-9.5812554e+46 1.2599271e+45 -1.1239348e+46)
(-9.5705926e+46 5.4239142e+43 -1.0862169e+46)
(-9.8892222e+46 7.3089245e+44 -2.0839689e+45)
(-9.9417886e+46 -1.3850643e+45 -2.2538425e+45)
(-9.6184199e+46 -9.7849546e+42 -1.131261e+46)
(-9.8693183e+46 5.6878791e+44 -3.1946074e+45)
(-9.8161785e+46 -1.6824826e+45 -3.0373052e+45)
(-9.5487796e+46 8.5115872e+44 -1.1241705e+46)
(-8.5695182e+46 -1.4591493e+45 -2.9572142e+45)
(-8.3648568e+46 -2.2455849e+45 -6.4534449e+45)
(-8.3707858e+46 -2.0265047e+45 -6.3065769e+45)
(-8.5648882e+46 -2.7636659e+45 -3.0358823e+45)
(-8.3662163e+46 -1.8140464e+45 -8.3480994e+45)
(-8.3768885e+46 -2.8818028e+45 -8.3339793e+45)
(-8.5223241e+46 -1.8923577e+45 -4.6072794e+45)
(-8.5083423e+46 -2.5273548e+45 -4.6333158e+45)
(-8.1802255e+46 -1.9420814e+45 -6.0269746e+45)
(-8.1788727e+46 -2.3756065e+45 -5.460857e+45)
(-8.344976e+46 -1.5383501e+45 -3.308681e+45)
(-8.3397653e+46 -2.6730927e+45 -3.5395778e+45)
(-8.3049276e+46 -1.5847881e+45 -4.445766e+45)
(-8.1538944e+46 -2.8673882e+45 -7.3178111e+45)
(-8.1471349e+46 -1.8272476e+45 -7.2288667e+45)
(-8.2908002e+46 -2.261287e+45 -4.4885092e+45)
(-1.0851426e+47 5.4953087e+45 -1.3512539e+46)
(-1.1191013e+47 1.0838008e+45 -1.79803e+45)
(-1.0292745e+47 7.8466618e+45 -3.8137367e+45)
(-1.1479486e+47 3.3948935e+45 1.5654973e+45)
(-9.0399272e+46 -5.5669149e+44 -7.0787663e+45)
(-9.2311365e+46 -2.3053645e+45 6.0446511e+44)
(-8.9180255e+46 -8.8232813e+44 -5.0859218e+45)
(-8.1833862e+46 -1.3163338e+45 4.7731194e+45)
(-8.1828688e+46 -1.2345164e+45 5.0037482e+45)
(-8.3100689e+46 2.599761e+44 1.2828055e+46)
(-8.3275152e+46 -2.7571213e+45 1.3022033e+46)
(-7.9423484e+46 -1.0793611e+45 -5.3710504e+44)
(-7.8816663e+46 -8.0123973e+44 -1.8487379e+44)
(-8.1959932e+46 -1.7776778e+43 6.2707352e+45)
(-8.1671643e+46 -2.1913082e+45 6.6953701e+45)
(-7.8874035e+46 -1.1271665e+45 -2.7120709e+44)
(-8.2032175e+46 7.3178636e+43 6.6894349e+45)
(-7.8974808e+46 -8.5488948e+44 -5.9857211e+43)
(-8.2102694e+46 -2.0997314e+45 6.9392901e+45)
(-8.210975e+46 -1.3606947e+45 4.4858464e+45)
(-8.303872e+46 3.3491846e+44 1.2154781e+46)
(-8.1858755e+46 -1.4394162e+45 5.0451107e+45)
(-8.2762861e+46 -2.556737e+45 1.2636682e+46)
(-7.6069359e+46 -1.3294216e+45 -3.5942331e+45)
(-7.8656272e+46 -2.0709537e+44 1.8051182e+45)
(-7.5826741e+46 -3.059975e+44 -3.2666768e+45)
(-7.8713896e+46 -1.6248902e+45 2.1795714e+45)
(-7.4377816e+46 -7.7430699e+44 -4.1820977e+45)
(-7.3831849e+46 1.7147387e+44 -4.0168035e+45)
(-7.6752871e+46 1.1153856e+44 6.9245088e+43)
(-7.64217e+46 -9.4575982e+44 3.1714486e+44)
(-7.4077285e+46 -1.0569505e+45 -4.2814994e+45)
(-7.6580275e+46 -2.3001307e+44 -3.6224215e+43)
(-7.398477e+46 -2.0723401e+44 -3.9834718e+45)
(-7.6605548e+46 -1.2635146e+45 3.2711438e+44)
(-7.6254954e+46 -1.0384009e+45 -3.4765144e+45)
(-7.8583628e+46 2.8232316e+44 1.5181464e+45)
(-7.586921e+46 -1.3345473e+44 -3.2119113e+45)
(-7.8268425e+46 -1.1019308e+45 1.8083996e+45)
(-7.5799665e+46 -1.1716512e+45 -3.1341755e+45)
(-7.575154e+46 -3.6928014e+44 -2.8707733e+45)
(-7.8552527e+46 -5.9685833e+43 2.2338632e+45)