/*--------------------------------*- C++ -*----------------------------------*\
  =========                 |
  \\      /  F ield         | OpenFOAM: The Open Source CFD Toolbox
   \\    /   O peration     | Website:  https://openfoam.org
    \\  /    A nd           | Version:  7
     \\/     M anipulation  |
\*---------------------------------------------------------------------------*/
FoamFile
{
    version     2.0;
    format      ascii;
    class       volVectorField;
    location    "0";
    object      U;
}
// * * * * * * * * * * * * * * * * * * * * * * * * * * * * * * * * * * * * * //

dimensions      [0 1 -1 0 0 0 0];

internalField   nonuniform List<vector> 
33730
(
(0.089444545 -8.9940826e-05 -9.3683487e-05)
(0.08978653 -9.1350021e-05 -0.0002543706)
(0.089863068 -0.00014204505 -0.00024316586)
(0.089402815 -4.8153613e-05 -9.3928475e-05)
(0.088988785 -7.0509822e-05 -0.00066276903)
(0.08900719 -2.2240993e-05 -0.00066081699)
(0.088316225 5.5178389e-06 0.00026840701)
(0.088297593 -9.4956242e-05 0.00027111605)
(0.090212305 -0.00010403622 0.00031548839)
(0.090241129 -0.00010140449 0.00031939127)
(0.090242565 -0.00010598987 0.00029157906)
(0.090209832 -4.2369112e-05 0.00029545451)
(0.08972419 -9.1570427e-05 0.0001627969)
(0.089465971 -0.00014338518 -0.00025431387)
(0.090664373 -9.6317725e-05 -0.00034822804)
(0.089759468 -3.7735044e-05 -0.00087528936)
(0.090644915 1.0437233e-06 -0.00034984061)
(0.089744801 -4.8791934e-05 -0.00025457238)
(0.089778604 -5.7307809e-05 -0.00087569815)
(0.089831795 -7.6277892e-05 -0.00024356338)
(0.090182433 -0.00017424053 -0.00011813094)
(0.090162691 -0.00012578644 -0.00012088529)
(0.090099691 -0.00010392423 1.0451699e-05)
(0.090124492 -0.00015216328 7.4119192e-06)
(0.08938453 -1.2481794e-05 -9.3999851e-05)
(0.088945607 -5.0476772e-05 -0.00066261624)
(0.09017854 -5.9012651e-05 0.00031605076)
(0.088254725 -7.5553434e-05 0.00027070563)
(0.088264654 2.7559479e-05 0.00026929734)
(0.08895527 7.6358544e-07 -0.00066160834)
(0.090172183 -9.729977e-06 0.00029439461)
(0.090189725 -6.9695939e-05 0.00029234185)
(0.090194063 -5.1100334e-05 0.00031816521)
(0.088067081 -1.4191841e-05 -0.0015812037)
(0.088096087 -1.7801264e-05 -0.0015823462)
(0.086889871 -1.8658481e-05 0.00043329148)
(0.089858887 -5.1443125e-05 0.001130394)
(0.08686035 -1.4387166e-05 0.00043400554)
(0.089828062 -3.8469536e-05 0.001132185)
(0.090455049 -8.7953637e-05 0.00010637638)
(0.090481726 -0.00011391397 0.00010678816)
(0.090859498 -8.1901026e-05 0.00027227008)
(0.090829942 -6.3121723e-05 0.00027277139)
(0.089309052 -9.0716626e-05 4.7455534e-05)
(0.089347937 -0.00014384754 2.7344645e-05)
(0.089715211 -5.6887122e-05 0.00082821788)
(0.09062009 1.2348352e-06 0.00029224364)
(0.089697226 -3.7746593e-05 0.00082770234)
(0.089682465 -4.8886885e-05 0.00016270508)
(0.09063829 -9.6238163e-05 0.00029107636)
(0.089434766 -7.6939769e-05 -0.0002546473)
(0.091684181 -2.1615318e-05 -0.00088516048)
(0.089930062 -1.3623634e-05 -0.0020481247)
(0.089725856 -3.2770352e-05 -0.00087560749)
(0.091647502 -1.3266015e-05 -0.00088606372)
(0.090610936 -7.1653216e-05 -0.00034910346)
(0.089716419 -1.7404129e-05 -0.00087534238)
(0.090601127 2.1489921e-05 -0.00034984368)
(0.089726498 -1.2628317e-05 -0.00025460042)
(0.08996676 -2.2629092e-05 -0.0020487455)
(0.089818145 -1.9538083e-05 -0.00024372061)
(0.090139097 -5.9981671e-05 -0.00012053108)
(0.090149851 -0.0001013393 -0.00011899716)
(0.090083384 -8.9648536e-05 7.818414e-06)
(0.090069972 -4.7804748e-05 9.4340026e-06)
(0.090297137 -0.00016802659 -5.017524e-05)
(0.090278594 -0.00013013266 -5.0344441e-05)
(0.090295079 -0.00011070381 3.5986587e-05)
(0.090317914 -0.00014322225 3.5675399e-05)
(0.089387515 2.138935e-05 -9.3978297e-05)
(0.088930929 1.981299e-05 -0.00066205469)
(0.09017056 -9.1133889e-06 0.0003172387)
(0.090166613 -1.9363765e-05 0.00031670434)
(0.088237554 -5.83041e-05 0.00027026595)
(0.08892834 -3.2723663e-05 -0.00066236155)
(0.088240404 4.5922766e-05 0.00026993091)
(0.090158798 1.8900358e-05 0.00029359001)
(0.090163389 -3.9457646e-05 0.00029304565)
(0.088025185 -7.1798625e-06 -0.0015812969)
(0.09042032 -4.3459004e-05 0.00010630293)
(0.086818541 -7.2755351e-06 0.00043402905)
(0.089787492 -1.8816575e-05 0.0011318427)
(0.086834432 -1.0773758e-05 0.00043379527)
(0.089803961 -2.9366703e-05 0.0011309426)
(0.088040793 -1.0839501e-05 -0.0015812745)
(0.090791665 -3.1194447e-05 0.00027257304)
(0.09080752 -4.6470145e-05 0.00027232733)
(0.090434661 -6.4694396e-05 0.00010654835)
(0.087382769 -2.502814e-06 -0.0023965093)
(0.087412181 2.7653788e-07 -0.0024002831)
(0.085730534 -3.3445738e-06 0.00048677327)
(0.088353358 -1.8842937e-05 0.0032278477)
(0.091901317 -4.8971872e-05 0.00089312987)
(0.088321463 -1.4521899e-05 0.0032283242)
(0.085699798 -2.5916987e-06 0.00048682198)
(0.091870118 -3.7704416e-05 0.00089353404)
(0.090433333 -8.7102266e-05 2.4519205e-05)
(0.090460247 -0.00011283981 2.4607952e-05)
(0.090911509 -8.0853912e-05 5.2046234e-05)
(0.090881842 -6.2296031e-05 5.2132916e-05)
(0.089593793 -0.00014325194 0.00015494346)
(0.089267221 -4.8527719e-05 4.7516352e-05)
(0.090069207 -0.00010539969 -0.00032807751)
(0.09008228 -4.3589546e-05 -0.00031011954)
(0.090115294 -0.00010601465 -0.0003061977)
(0.090098327 -0.00010179061 -0.00033202669)
(0.08890174 -7.0063695e-05 0.00062576659)
(0.08818184 -9.4784753e-05 -0.00028936944)
(0.088919934 -2.3898269e-05 0.00062385997)
(0.088200547 4.449015e-06 -0.00028678002)
(0.089316726 -7.7143874e-05 2.7247286e-05)
(0.089898858 -1.9556468e-05 0.0020294211)
(0.09162635 -1.4836208e-05 0.00086838109)
(0.090586628 -7.2333128e-05 0.00029125004)
(0.089869436 -1.4627562e-05 0.0020292902)
(0.089663445 -3.3070073e-05 0.00082795194)
(0.09057713 2.2020752e-05 0.00029193132)
(0.089653741 -1.6799456e-05 0.00082749415)
(0.089663936 -1.2617976e-05 0.00016266413)
(0.091655704 -1.9825618e-05 0.00086944689)
(0.089421124 -1.9689868e-05 -0.00025476326)
(0.092388291 -7.7771316e-06 -0.0013123955)
(0.089904554 -1.0994112e-05 -0.0020478493)
(0.090104234 8.0337634e-07 -0.0030026168)
(0.091620509 -1.0433528e-05 -0.00088625195)
(0.092343952 1.6597861e-06 -0.0013157434)
(0.089889617 -7.2955314e-06 -0.0020476159)
(0.089701691 -1.3489632e-05 -0.00087542419)
(0.091604201 -6.945501e-06 -0.00088626178)
(0.090586339 -5.2289193e-05 -0.00034935365)
(0.089729531 2.1690721e-05 -0.00025459786)
(0.09058378 3.9396617e-05 -0.00034939635)
(0.089699125 5.3464697e-07 -0.00087531655)
(0.090149122 -1.0608055e-05 -0.0030058259)
(0.089820926 3.4554871e-05 -0.00024368262)
(0.090130952 -1.4700181e-06 -0.00012005423)
(0.090059514 1.8152369e-06 8.703887e-06)
(0.090062839 -3.7153393e-05 8.296363e-06)
(0.090133504 -3.9629912e-05 -0.00011969311)
(0.090254105 -6.4375484e-05 -5.0432398e-05)
(0.090264195 -9.5879195e-05 -5.0211405e-05)
(0.090277356 -8.1517003e-05 3.5676174e-05)
(0.090265012 -5.4718652e-05 3.5746295e-05)
(0.090275188 -0.00016762069 -5.2284734e-06)
(0.090256416 -0.00012981729 -5.252986e-06)
(0.090256323 -0.00011011345 1.0303871e-05)
(0.09027949 -0.00014246678 1.0291699e-05)
(0.089411933 5.7408558e-05 -9.3822466e-05)
(0.088930632 3.7225462e-05 -0.00066240432)
(0.088934761 -1.5302851e-05 -0.000661999)
(0.090167987 2.96726e-05 0.00031653724)
(0.090175152 1.9524857e-05 0.00031747754)
(0.090168116 4.6842892e-05 0.00029286421)
(0.090160194 -1.1567297e-05 0.00029383173)
(0.0882398 6.2693597e-05 0.00027042715)
(0.088244224 -4.1523419e-05 0.00026980273)
(0.088013599 -3.9300827e-06 -0.0015812116)
(0.090411395 -2.3575852e-05 0.00010639701)
(0.090407748 -4.426619e-06 0.00010634615)
(0.086802584 -4.7767996e-07 0.00043390288)
(0.089772466 -1.4651738e-06 0.0011315881)
(0.088009388 -6.6617622e-07 -0.0015813168)
(0.086807842 -3.8287304e-06 0.00043406148)
(0.089777034 -1.1005365e-05 0.0011313009)
(0.09077774 -3.2144363e-06 0.00027249033)
(0.090781843 -1.6977744e-05 0.00027240966)
(0.087340983 -1.2892186e-06 -0.0023971675)
(0.090398519 -4.303698e-05 2.44969e-05)
(0.088279939 -7.3189992e-06 0.003228247)
(0.085657968 -1.6763577e-06 0.00048704647)
(0.091829528 -1.8627682e-05 0.00089339191)
(0.088297004 -1.0729102e-05 0.0032281089)
(0.08567465 -1.9453821e-06 0.0004869199)
(0.091846274 -2.7734096e-05 0.00089325197)
(0.087357457 -1.9410948e-06 -0.0023968363)
(0.090843495 -3.0790774e-05 5.2114016e-05)
(0.09085942 -4.5844082e-05 5.2058475e-05)
(0.09041296 -6.4071677e-05 2.4528469e-05)
(0.071392024 -8.0078599e-07 3.2233187)
(0.071420756 4.0864417e-06 3.2233138)
(0.10801143 -1.0835013e-06 3.1341261)
(0.086880719 -3.4159643e-06 0.0059763809)
(0.09469051 -1.8660204e-05 0.0029113766)
(0.092135227 -4.8237942e-05 0.00017926821)
(0.08684863 -2.6311822e-06 0.0059766124)
(0.094658407 -1.4348065e-05 0.0029116386)
(0.10798067 -8.4206653e-07 3.1341447)
(0.092104046 -3.7139949e-05 0.0001793621)
(0.09070626 -8.6984964e-05 8.2535481e-06)
(0.090733266 -0.00011268943 8.265357e-06)
(0.09114945 -8.0700978e-05 1.577395e-05)
(0.091119697 -6.2178959e-05 1.5811635e-05)
(0.1189814 -1.118426e-06 0.045085912)
(0.089562501 -7.6814187e-05 0.00015507493)
(0.089974674 -0.00015339652 -2.3011135e-06)
(0.090000956 -0.0001275158 0.0001509048)
(0.089949574 -0.00010485248 -5.4052743e-06)
(0.09002101 -0.00017504871 0.00014811154)
(0.08924907 -1.2556936e-05 4.7511936e-05)
(0.090035306 -5.9959203e-05 -0.00032870799)
(0.090044433 -1.0657789e-05 -0.0003090761)
(0.090062076 -6.9381104e-05 -0.00030699994)
(0.090050939 -5.0949626e-05 -0.00033083219)
(0.088148755 2.6659615e-05 -0.00028755091)
(0.088858796 -4.9919235e-05 0.0006252156)
(0.088138887 -7.5185604e-05 -0.00028885207)
(0.088868112 -5.308918e-07 0.00062448785)
(0.0903165 -8.8665944e-05 -0.00011008225)
(0.090700852 -6.3638668e-05 -0.00027822731)
(0.089709289 -3.8804176e-05 -0.0011427025)
(0.090730659 -8.2598235e-05 -0.00027772352)
(0.08974036 -5.187654e-05 -0.0011409553)
(0.090343383 -0.00011490583 -0.00011049137)
(0.087996075 -1.4774846e-05 0.0015718906)
(0.086742863 -1.4616895e-05 -0.00043639943)
(0.08802553 -1.9561014e-05 0.0015719953)
(0.086772714 -1.8945695e-05 -0.00043601588)
(0.089303072 -1.9712982e-05 2.7229104e-05)
(0.09007382 -3.4758524e-06 0.0029922719)
(0.091600797 -1.1212926e-05 0.00086815701)
(0.09232274 -3.0326095e-06 0.0013141411)
(0.089842432 -1.0691386e-05 0.0020293619)
(0.090042903 -2.2671223e-06 0.002992259)
(0.091586029 -7.0879756e-06 0.00086809511)
(0.090562109 -5.2649772e-05 0.00029175387)
(0.089827001 -5.5809169e-06 0.0020290387)
(0.089637274 -1.3077625e-05 0.00082716699)
(0.089667103 2.1737335e-05 0.00016269236)
(0.089633456 5.3016566e-07 0.00082653311)
(0.090559058 3.9858574e-05 0.00029216105)
(0.092353301 -3.575976e-06 0.0013175465)
(0.089423909 3.4878943e-05 -0.00025472104)
(0.045543268 0.0037466647 0.85252701)
(0.090080668 -2.5894409e-06 -0.0030021574)
(0.055971141 3.4417048e-06 2.3257833)
(0.09231792 -1.0391003e-06 -0.0013158522)
(0.045723209 5.0990847e-06 0.85255543)
(0.089878114 -3.9060066e-06 -0.0020475429)
(0.090065472 -1.6281767e-06 -0.0030017491)
(0.091592771 -3.8187666e-06 -0.0008860596)
(0.092300343 -8.4320842e-07 -0.0013159167)
(0.089753935 5.8314986e-05 -0.00025446977)
(0.090586015 -3.4900874e-05 -0.00034956374)
(0.090590702 5.6996622e-05 -0.00034929349)
(0.089705591 1.8147903e-05 -0.00087553023)
(0.089701339 4.0558846e-06 -0.00087530343)
(0.091588672 -5.8099107e-07 -0.00088563789)
(0.089873712 -5.8926048e-07 -0.0020474893)
(0.055794127 0.0037452855 2.3257953)
(0.090213354 4.3994841e-05 -0.0007233413)
(0.089840231 9.1856425e-05 -0.00024344618)
(0.090137667 5.6024928e-05 -0.00011950012)
(0.090067257 5.054983e-05 8.1201108e-06)
(0.090060854 1.1430017e-05 8.945963e-06)
(0.090132224 1.7704071e-05 -0.00012020475)
(0.090245432 -6.1381864e-06 -5.0387497e-05)
(0.090254208 -5.4007888e-06 3.5680848e-05)
(0.090257261 -2.9638467e-05 3.5628776e-05)
(0.09024783 -3.4751438e-05 -5.0357971e-05)
(0.09023186 -6.4181345e-05 -5.2952688e-06)
(0.090242044 -9.5612006e-05 -5.2059628e-06)
(0.090238665 -8.1049537e-05 1.0266666e-05)
(0.090226178 -5.440304e-05 1.0231292e-05)
(0.090380097 -0.00016755661 -7.8298248e-07)
(0.090361289 -0.00012976661 -7.9208212e-07)
(0.090459572 -0.00011002556 4.3553274e-06)
(0.09048281 -0.00014235377 4.3571301e-06)
(0.089460188 9.9940908e-05 -9.3439162e-05)
(0.088965692 4.0323583e-06 -0.00066133579)
(0.088954264 5.5047234e-05 -0.00066261088)
(0.088263196 7.9952321e-05 0.00027084538)
(0.088275013 -2.2980272e-05 0.00026919304)
(0.090185938 6.9620707e-05 0.00031593069)
(0.090204803 6.2031815e-05 0.00031844411)
(0.090200847 7.7411786e-05 0.00029217142)
(0.090179757 1.7221841e-05 0.00029470631)
(0.088011556 2.3802368e-06 -0.001581275)
(0.088017492 5.5282614e-06 -0.0015812753)
(0.090409239 1.4533047e-05 0.00010635426)
(0.090415881 3.3779492e-05 0.0001064131)
(0.090786444 2.4109868e-05 0.00027240109)
(0.089781519 1.5391329e-05 0.0011312565)
(0.090779274 1.0289722e-05 0.00027254392)
(0.089774141 5.8159247e-06 0.0011316924)
(0.086804568 2.2221589e-06 0.00043393393)
(0.086811757 5.5074694e-06 0.00043403242)
(0.087329743 -5.8602947e-07 -0.0023968145)
(0.090389608 -2.3360222e-05 2.4503048e-05)
(0.09038593 -4.3879607e-06 2.4494703e-05)
(0.08826413 -5.5322269e-07 0.0032283542)
(0.085641851 3.807662e-07 0.00048680962)
(0.091814701 -1.9239585e-06 0.00089341708)
(0.087325274 -2.2526727e-07 -0.0023972034)
(0.085648183 -4.3303576e-07 0.00048745495)
(0.088269881 -3.7703186e-06 0.0032280451)
(0.091819087 -1.0142603e-05 0.0008932876)
(0.09082957 -3.1771822e-06 5.2114979e-05)
(0.090833675 -1.6759637e-05 5.2096457e-05)
(0.071350208 -4.0892674e-07 3.2233153)
(0.09067132 -4.3009866e-05 8.2671384e-06)
(0.086806786 -1.6859602e-06 0.0059764435)
(0.094616912 -7.0934274e-06 0.0029112808)
(0.10793876 -9.801864e-07 3.1341325)
(0.092063289 -1.8344589e-05 0.00017930358)
(0.09463404 -1.0506001e-05 0.0029114139)
(0.086824047 -1.9707177e-06 0.0059764617)
(0.10795553 -6.5736536e-07 3.1341336)
(0.092080132 -2.7290099e-05 0.00017930157)
(0.071366714 -6.1444179e-07 3.223316)
(0.091081241 -3.0761043e-05 1.5811412e-05)
(0.091097213 -4.5757529e-05 1.5783008e-05)
(0.090685812 -6.398691e-05 8.2442839e-06)
(0.12655089 -1.1019014e-06 2.1489243)
(0.097087596 -3.4424781e-06 0.0063955965)
(0.096171274 -1.8380994e-05 0.00052370126)
(0.092264945 -4.812944e-05 5.72241e-05)
(0.1265188 -8.4212306e-07 2.1488997)
(0.097055199 -2.6462519e-06 0.0063956809)
(0.096139079 -1.4078788e-05 0.00052383576)
(0.092233717 -3.7056299e-05 5.7248578e-05)
(0.08503323 -3.4586106e-06 -0.010076362)
(0.18432142 -1.1194565e-06 0.1580087)
(0.11894857 -8.561934e-07 0.045085939)
(0.089502258 -9.5206613e-05 0.00065474421)
(0.089548885 -1.9599243e-05 0.0001551439)
(0.089977387 -6.1085648e-05 0.00015047172)
(0.08991979 -4.8204671e-05 -4.4800818e-06)
(0.089933325 -9.0177106e-05 -2.821055e-06)
(0.089988296 -0.00010130669 0.00014891368)
(0.090177186 -0.0001444496 -3.2272795e-05)
(0.090159146 -0.00013109942 7.0599083e-05)
(0.090154215 -0.00011155934 -3.2568457e-05)
(0.090177743 -0.00016942932 7.0440182e-05)
(0.089252022 2.1676811e-05 4.7524663e-05)
(0.090023412 -1.997723e-05 -0.0003293588)
(0.090031133 1.8203063e-05 -0.0003082185)
(0.090035576 -3.8898047e-05 -0.00030770524)
(0.090027331 -8.598434e-06 -0.00032989348)
(0.088124159 4.5094607e-05 -0.0002879219)
(0.088122217 -5.7827006e-05 -0.00028807745)
(0.088844174 -3.1570219e-05 0.00062374012)
(0.088845057 1.8336271e-05 0.00062415038)
(0.090281559 -4.375304e-05 -0.00011003761)
(0.090662338 -3.1404727e-05 -0.00027803057)
(0.089668432 -1.8935759e-05 -0.0011422875)
(0.090678292 -4.6832999e-05 -0.0002777885)
(0.089685015 -2.9630636e-05 -0.0011414414)
(0.090295989 -6.5189386e-05 -0.00011027268)
(0.086716668 -1.1084354e-05 -0.00043608225)
(0.087954962 -8.4661148e-06 0.0015713527)
(0.086701321 -7.1904653e-06 -0.00043591115)
(0.087969401 -1.1422672e-05 0.0015718046)
(0.090295678 -8.7799946e-05 -2.4913328e-05)
(0.091749334 -3.8026811e-05 -0.00089727924)
(0.090752569 -6.2812125e-05 -5.3045661e-05)
(0.088209763 -1.4652459e-05 -0.0032354049)
(0.090782485 -8.1513504e-05 -5.2963289e-05)
(0.091780835 -4.9365001e-05 -0.00089692495)
(0.088241943 -1.8985957e-05 -0.0032350502)
(0.090322783 -0.00011381436 -2.498918e-05)
(0.087321467 -2.6492455e-06 0.0024006225)
(0.085574448 -2.6399998e-06 -0.00047973839)
(0.087352572 -3.5263558e-06 0.0024006249)
(0.085605683 -3.3841145e-06 -0.00047968515)
(0.089305883 3.502323e-05 2.7274494e-05)
(0.056024243 -5.4879614e-07 -2.3273117)
(0.092298698 -2.7790626e-06 0.0013140067)
(0.045752955 -1.3850898e-06 -0.85645877)
(0.090016196 -1.5835058e-06 0.0029926361)
(0.055993407 2.2048432e-07 -2.3273178)
(0.091574847 -3.2267659e-06 0.00086932206)
(0.092283795 -1.6586312e-06 0.0013136434)
(0.089809123 -1.3224855e-06 0.0020282154)
(0.09000058 2.3175584e-06 0.0029922488)
(0.089691677 5.8510102e-05 0.00016279125)
(0.089642899 1.8084189e-05 0.0008277021)
(0.090566194 5.7440978e-05 0.00029158795)
(0.090561713 -3.5515205e-05 0.00029202316)
(0.089637089 3.441142e-06 0.00082691957)
(0.089798832 -6.0453061e-07 0.0020265164)
(0.091568993 -4.8286972e-07 0.00087028212)
(0.045784439 -1.1692723e-06 -0.85647709)
(0.089443166 9.2742085e-05 -0.00025449467)
(0.055927072 -1.8739564e-06 2.3254132)
(0.045723487 -2.0017364e-06 0.85226699)
(0.090054335 -4.8205861e-07 -0.0030017311)
(0.055890831 -9.0575648e-07 2.3250369)
(0.092289494 -5.6547866e-07 -0.0013158827)
(0.045731016 -9.13027e-08 0.85197602)
(0.089801884 0.00010167389 -0.00025411844)
(0.089736235 3.7859104e-05 -0.0008754744)
(0.090621443 7.6893783e-05 -0.00034893334)
(0.090610019 -1.6603004e-05 -0.00034980867)
(0.089724869 2.2165181e-05 -0.00087527842)
(0.091589984 1.8612874e-06 -0.00088596217)
(0.091598648 5.2461524e-06 -0.00088622149)
(0.089882059 5.6833866e-06 -0.002048009)
(0.089875507 2.328476e-06 -0.0020474622)
(0.092285299 1.4089273e-07 -0.0013150461)
(0.090049477 4.4787448e-08 -0.0030017385)
(0.090226125 0.00011521955 -0.00072315651)
(0.090489071 7.5226824e-05 -0.00030793454)
(0.090485673 1.5987649e-05 -0.00030841567)
(0.090234301 9.6601388e-06 -0.00023722724)
(0.09023877 7.3581282e-05 -0.00023780017)
(0.08987738 0.00015880317 -0.00024290318)
(0.09015957 0.00011845985 -0.00011877874)
(0.090093707 0.00010369622 7.6584738e-06)
(0.090077128 6.1440386e-05 9.7413707e-06)
(0.090145838 7.6640312e-05 -0.00012064864)
(0.090251919 5.1008341e-05 -5.0391608e-05)
(0.090261585 4.2926052e-05 3.5644185e-05)
(0.090255651 1.8552942e-05 3.5755824e-05)
(0.090246796 2.2232313e-05 -5.0342729e-05)
(0.090223165 -6.1391988e-06 -5.2744717e-06)
(0.09021536 -5.4052655e-06 1.0232363e-05)
(0.090218457 -2.9493295e-05 1.0221024e-05)
(0.090225599 -3.4676362e-05 -5.2681416e-06)
(0.090336685 -6.4157086e-05 -7.8879955e-07)
(0.090346888 -9.557563e-05 -8.0357716e-07)
(0.090441862 -8.0985829e-05 4.3263357e-06)
(0.090429336 -5.4360874e-05 4.351476e-06)
(0.08953733 0.00015489952 -9.2724662e-05)
(0.08831275 9.959118e-05 0.000271284)
(0.089004184 7.5252946e-05 -0.00066246659)
(0.090225969 0.00011533998 0.00031538703)
(0.090258361 0.00011329886 0.00031973189)
(0.089025766 2.72182e-05 -0.00065953759)
(0.088333624 -5.9855105e-07 0.00026812829)
(0.090260493 0.00011438269 0.00029143899)
(0.090223933 5.0356925e-05 0.00029580558)
(0.08805179 1.2517275e-05 -0.0015811817)
(0.088033944 8.6629696e-06 -0.0015811549)
(0.086826552 8.7302529e-06 0.00043391127)
(0.089795332 2.3232536e-05 0.0011319837)
(0.086845406 1.2418551e-05 0.00043375265)
(0.089815026 3.3960014e-05 0.0011308684)
(0.090427866 5.3893725e-05 0.0001063438)
(0.090445341 7.5435953e-05 0.00010657074)
(0.090818489 5.3979474e-05 0.00027236741)
(0.090799404 3.8468489e-05 0.00027270882)
(0.087327798 6.663162e-07 -0.0023971073)
(0.087333218 7.4493328e-07 -0.0023968615)
(0.090387401 1.4391186e-05 2.4494469e-05)
(0.090394105 3.3451495e-05 2.449414e-05)
(0.091823729 1.4351742e-05 0.00089333838)
(0.090838306 2.3790059e-05 5.2103093e-05)
(0.088273896 5.4919896e-06 0.0032282309)
(0.091816277 6.1022621e-06 0.00089342759)
(0.090831091 1.0163334e-05 5.212056e-05)
(0.088266274 2.2291143e-06 0.0032283405)
(0.085644026 1.4903787e-07 0.00048685885)
(0.085651729 8.8671158e-07 0.00048741327)
(0.071338897 -4.9163552e-08 3.2233176)
(0.09066238 -2.3328264e-05 8.2529541e-06)
(0.090658689 -4.3495151e-06 8.2531548e-06)
(0.086790457 2.987063e-07 0.0059767577)
(0.09460169 -7.2067562e-07 0.0029115788)
(0.10793848 -0.00048486486 3.1341325)
(0.092048508 -1.9081102e-06 0.00017933946)
(0.071341684 0.00011996687 3.2233157)
(0.10790675 -0.00037566534 3.1341273)
(0.086797302 -3.6371573e-07 0.0059759349)
(0.094606162 -3.8452421e-06 0.0029111279)
(0.092052828 -1.0004462e-05 0.00017930174)
(0.091067277 -3.2130309e-06 1.5797327e-05)
(0.091071394 -1.6782428e-05 1.5792515e-05)
(0.12647694 -8.6949018e-07 2.1489121)
(0.097013584 -1.3157934e-06 0.0063955976)
(0.096097681 -6.9051905e-06 0.00052361086)
(0.092192909 -1.8303343e-05 5.7237746e-05)
(0.096114781 -1.018971e-05 0.00052370799)
(0.097030812 -1.942198e-06 0.0063956294)
(0.12649424 -5.4334689e-07 2.1489121)
(0.092209775 -2.7227194e-05 5.7231258e-05)
(0.1492973 -1.1107201e-06 0.87793815)
(0.11075926 -3.4680676e-06 -0.0084392556)
(0.094606393 -1.833363e-05 0.00012278242)
(0.14926491 -8.5380214e-07 0.87793819)
(0.11072653 -2.6561414e-06 -0.0084392185)
(0.094574185 -1.4043984e-05 0.0001227469)
(0.085000544 -2.6489724e-06 -0.010076373)
(0.18428861 -8.5740603e-07 0.15800874)
(0.11892448 -6.1592419e-07 0.045085926)
(0.089494494 -2.376712e-05 0.00065482614)
(0.090193221 -0.00014026943 0.00049851841)
(0.09064666 -6.3594253e-05 0.00030047783)
(0.090185127 -4.0240576e-05 0.00049759895)
(0.090651974 -0.00012977089 0.00029979532)
(0.089551693 3.4950616e-05 0.00015517632)
(0.089969329 -2.1142056e-06 0.0001500049)
(0.089909381 1.8163503e-06 -3.735055e-06)
(0.089912709 -3.7232909e-05 -3.337225e-06)
(0.089971896 -3.9052266e-05 0.00014963257)
(0.090134599 -6.470941e-05 7.0676585e-05)
(0.090124018 -5.5057658e-05 -3.2447256e-05)
(0.090136397 -8.2099648e-05 -3.2298557e-05)
(0.090144707 -9.6504098e-05 7.0449111e-05)
(0.090143343 -0.00014365426 -9.1044417e-06)
(0.090146863 -0.00013076605 8.7224005e-06)
(0.090120042 -0.00011096587 -9.1082949e-06)
(0.090165698 -0.00016898473 8.6944932e-06)
(0.089276484 5.8068776e-05 4.7527715e-05)
(0.090032053 1.9290688e-05 -0.0003301448)
(0.090040487 4.643285e-05 -0.00030752087)
(0.090032487 -1.0717024e-05 -0.00030848558)
(0.090024799 3.0532919e-05 -0.00032918659)
(0.088847874 -1.3824468e-05 0.00062460671)
(0.08812835 -4.0665527e-05 -0.00028806407)
(0.088844979 3.6760264e-05 0.00062433071)
(0.088124057 6.2443943e-05 -0.00028840536)
(0.09026899 -4.3907118e-06 -0.00011004831)
(0.090648411 -3.2136468e-06 -0.00027789439)
(0.089653625 -1.5200831e-06 -0.0011418096)
(0.090652458 -1.7087856e-05 -0.00027784125)
(0.089657641 -1.1180152e-05 -0.0011417201)
(0.090272597 -2.3686154e-05 -0.0001101012)
(0.08668761 -4.3812003e-06 -0.00043469528)
(0.086685129 -9.2612168e-07 -0.00043339296)
(0.087951323 -9.1294477e-07 0.0015677275)
(0.087947146 -6.3738707e-06 0.0015698668)
(0.090260748 -4.3315657e-05 -2.4903043e-05)
(0.091708497 -1.8771749e-05 -0.00089719454)
(0.090713999 -3.0990544e-05 -5.3021829e-05)
(0.088167823 -7.1230594e-06 -0.0032351449)
(0.09072999 -4.6211184e-05 -5.2978583e-05)
(0.091725344 -2.7990714e-05 -0.00089702628)
(0.088185028 -1.0824483e-05 -0.0032351889)
(0.090275156 -6.4555914e-05 -2.4900462e-05)
(0.085548874 -2.3541138e-06 -0.00047972045)
(0.087280835 -4.2657579e-06 0.0023998806)
(0.085533237 -5.8810364e-07 -0.00047891784)
(0.087295524 -2.7819161e-06 0.002400279)
(0.090573361 -8.7678756e-05 -8.3567287e-06)
(0.091983271 -3.7447371e-05 -0.0001799803)
(0.094542596 -1.4474577e-05 -0.0029135493)
(0.090992279 -6.2698755e-05 -1.6074124e-05)
(0.086740464 -2.6598058e-06 -0.0059860693)
(0.091022283 -8.1364597e-05 -1.604109e-05)
(0.092014858 -4.8607485e-05 -0.00017991538)
(0.094574926 -1.8772585e-05 -0.0029134729)
(0.086772828 -3.4377847e-06 -0.0059859768)
(0.090600557 -0.0001136466 -8.3634272e-06)
(0.070897068 -8.4446653e-07 -3.2307926)
(0.10830704 -8.5878e-07 -3.1416566)
(0.070928206 -1.1387124e-06 -3.2307955)
(0.10833831 -1.0849769e-06 -3.1416528)
(0.089325178 9.3120099e-05 2.7405217e-05)
(0.04570319 7.7650517e-07 -0.85673866)
(0.05598772 1.2729769e-07 -2.3277003)
(0.092273851 4.8045453e-07 0.0013167654)
(0.045663093 -7.5046022e-07 -0.85703043)
(0.089978711 6.2136626e-06 0.0029904675)
(0.055971138 -0.00037114688 -2.328074)
(0.089739866 0.00010207752 0.00016295928)
(0.090597085 7.7386278e-05 0.00029127307)
(0.089673961 3.8343163e-05 0.00082813047)
(0.089662626 2.1968897e-05 0.00082766927)
(0.090585486 -1.7072304e-05 0.00029206364)
(0.089820054 3.9267745e-06 0.0020291239)
(0.091578391 5.4898071e-06 0.00086840868)
(0.091571873 1.6793957e-06 0.00086930601)
(0.089806487 -3.16256e-07 0.0020278174)
(0.089963391 4.8756692e-08 0.0029856153)
(0.092266746 2.858982e-07 0.0013195794)
(0.089480197 0.00016046783 -0.00025397785)
(0.055879679 8.9411533e-08 2.3250376)
(0.045720199 -1.3439265e-07 0.8519738)
(0.089878459 0.00015759029 -0.00025343925)
(0.08977437 4.3276214e-05 -0.00087487299)
(0.090659822 4.4324807e-06 -0.00034990193)
(0.090679767 0.00010110325 -0.0003485777)
(0.089792759 6.2117457e-05 -0.00087460875)
(0.089915731 1.2993709e-05 -0.0020477659)
(0.091631819 1.2945754e-05 -0.00088622493)
(0.091613593 9.0192298e-06 -0.00088612981)
(0.089897064 8.9450225e-06 -0.0020477991)
(0.092286048 -4.8162479e-07 -0.0013156734)
(0.092296324 5.4314345e-09 -0.0013158836)
(0.090057849 1.1579683e-06 -0.0030027926)
(0.090051355 5.3302994e-07 -0.0030014016)
(0.045722474 0.00010901399 0.85197296)
(0.055888018 0.00022188147 2.3250341)
(0.090937501 0.00012801672 -0.00085745442)
(0.090249352 0.00019711963 -0.00072271233)
(0.090494252 8.7203444e-05 -0.00030870225)
(0.090501965 0.00015020686 -0.00030754793)
(0.090245786 7.5549979e-05 -0.00023675733)
(0.09025667 0.00014319688 -0.00023808292)
(0.090492712 6.3045203e-05 -0.00012319181)
(0.090489362 2.8003773e-05 -0.00012313315)
(0.090335898 2.5381173e-05 -6.4668613e-05)
(0.090340128 5.7770246e-05 -6.4825779e-05)
(0.08993507 0.00024371115 -0.00024186157)
(0.090197921 0.00019273565 -0.00011780172)
(0.090141013 0.00016740991 7.3343911e-06)
(0.090112869 0.00011842436 1.0807302e-05)
(0.090175074 0.00014342843 -0.00012096179)
(0.090273887 0.00011285779 -5.0289172e-05)
(0.090287578 9.5437655e-05 3.5611534e-05)
(0.090272281 6.827953e-05 3.5881996e-05)
(0.090260978 8.0943238e-05 -5.0392391e-05)
(0.090229704 5.0881627e-05 -5.2950389e-06)
(0.090222806 4.2665492e-05 1.0250164e-05)
(0.090216781 1.8430629e-05 1.0256508e-05)
(0.090224513 2.218136e-05 -5.2464547e-06)
(0.090327973 -6.1158185e-06 -7.9622361e-07)
(0.090418488 -5.3409432e-06 4.3371031e-06)
(0.090421594 -2.9419577e-05 4.3325569e-06)
(0.090330411 -3.4645384e-05 -7.9954768e-07)
(0.0896515 0.0002309275 -9.1484899e-05)
(0.089120568 5.9168856e-05 -0.00065735821)
(0.090291958 0.00017265167 0.00031487557)
(0.090341197 0.00018034687 0.00032157496)
(0.088426756 2.9654534e-05 0.00026682669)
(0.088394727 0.00012459709 0.00027130917)
(0.089089203 0.00010079291 -0.00066094869)
(0.090297578 9.2223265e-05 0.00029726466)
(0.090353716 0.00016304316 0.0002906442)
(0.086874876 1.5901616e-05 0.00043392068)
(0.089842553 4.3214104e-05 0.0011322847)
(0.088081678 1.4764259e-05 -0.0015808112)
(0.090468914 9.908096e-05 0.00010640096)
(0.090498885 0.00012556201 0.00010675994)
(0.088120619 1.8163094e-05 -0.0015789139)
(0.086907548 2.0260463e-05 0.00043191364)
(0.089876872 5.6462665e-05 0.0011302308)
(0.09087723 9.0095307e-05 0.00027233332)
(0.090844198 7.0930815e-05 0.00027293616)
(0.087368431 2.5701951e-06 -0.0023968239)
(0.087350325 1.193577e-06 -0.0023968187)
(0.088287807 8.8235278e-06 0.0032282834)
(0.085665916 1.5657671e-06 0.00048656104)
(0.091837364 2.2917026e-05 0.00089350814)
(0.085685645 2.2388751e-06 0.00048683335)
(0.088308106 1.2395937e-05 0.0032280698)
(0.091857331 3.2186246e-05 0.00089329766)
(0.090406049 5.3350767e-05 2.4498626e-05)
(0.09042371 7.4693722e-05 2.45446e-05)
(0.090870431 5.3271021e-05 5.2113306e-05)
(0.090851233 3.7971315e-05 5.2162252e-05)
(0.071330006 0.00012066384 3.2233155)
(0.071364692 0.0003759951 3.2233161)
(0.090660166 1.4373683e-05 8.2422684e-06)
(0.090666892 3.3406096e-05 8.2540784e-06)
(0.094610843 5.4417637e-06 0.0029114313)
(0.092057531 1.4117917e-05 0.00017932948)
(0.091076038 2.3716409e-05 1.579074e-05)
(0.086800781 9.557414e-07 0.0059764524)
(0.094603288 2.2940007e-06 0.0029114635)
(0.09205006 6.0091523e-06 0.00017933766)
(0.091068802 1.0101981e-05 1.579354e-05)
(0.086793134 8.7139446e-08 0.0059765954)
(0.1079314 -0.00010995929 3.1341335)
(0.10793261 1.6710894e-07 3.1341342)
(0.12648043 -0.00041524632 2.1489113)
(0.096998342 -1.3605871e-07 0.0063961567)
(0.096082523 -7.5549671e-07 0.0005237418)
(0.092178107 -1.9259147e-06 5.7234824e-05)
(0.12644533 -0.00037499587 2.1489213)
(0.097002685 -6.9412865e-07 0.0063951266)
(0.096086913 -3.8310292e-06 0.00052359085)
(0.092182433 -1.0000651e-05 5.7228193e-05)
(0.14922324 -4.251835e-07 0.87793816)
(0.11068543 -1.3007121e-06 -0.0084392789)
(0.094532774 -6.8889273e-06 0.00012280539)
(0.09454988 -1.0167825e-05 0.00012278316)
(0.11070243 -1.9180947e-06 -0.0084392464)
(0.14924053 -6.2659361e-07 0.87793817)
(0.084976413 -1.9135544e-06 -0.010076367)
(0.18426451 -6.1887046e-07 0.15800872)
(0.1189075 -4.1798034e-07 0.045085916)
(0.089496992 4.4712133e-05 0.00065488213)
(0.090643084 7.5665246e-06 0.0003002762)
(0.09017888 2.5629971e-05 0.00049807606)
(0.090180642 -7.0918814e-05 0.00049826654)
(0.090643997 -5.5414529e-05 0.00030015574)
(0.090110032 -4.7371452e-05 0.00073172521)
(0.090109934 -1.4502824e-06 0.00073163538)
(0.089754467 -5.5665499e-06 0.00162149)
(0.089754567 -4.3305023e-05 0.001621621)
(0.090316035 -0.00010779801 0.00013029898)
(0.090517764 -7.7547528e-05 0.00011138548)
(0.090308411 -7.2252043e-05 0.00013026581)
(0.090522852 -0.0001157117 0.00011121148)
(0.089571041 9.2854059e-05 0.00015518105)
(0.089976151 5.5884065e-05 0.00014944586)
(0.089917228 5.0975963e-05 -3.1314461e-06)
(0.089910741 1.173707e-05 -3.9679556e-06)
(0.089970613 1.8729654e-05 0.00015017059)
(0.090125949 -6.0560733e-06 7.0702737e-05)
(0.090113233 -5.3375831e-06 -3.2342413e-05)
(0.090116251 -2.9754366e-05 -3.2308867e-05)
(0.090128317 -3.4851858e-05 7.0661166e-05)