/*--------------------------------*- C++ -*----------------------------------*\
  =========                 |
  \\      /  F ield         | OpenFOAM: The Open Source CFD Toolbox
   \\    /   O peration     | Website:  https://openfoam.org
    \\  /    A nd           | Version:  7
     \\/     M anipulation  |
\*---------------------------------------------------------------------------*/
FoamFile
{
    version     2.0;
    format      ascii;
    class       volScalarField;
    location    "1000";
    object      p;
}
// * * * * * * * * * * * * * * * * * * * * * * * * * * * * * * * * * * * * * //

dimensions      [0 2 -2 0 0 0 0];

internalField   nonuniform List<scalar> 
33733
(
-5.1132095e+18
-5.3951832e+18
-5.1139421e+18
-5.2331733e+18
-5.2267257e+18
-4.8285617e+18
-5.0688925e+18
-5.0671268e+18
-5.2678063e+18
-5.0946352e+18
-5.2393582e+18
-5.4077675e+18
-5.496682e+18
-5.4981552e+18
-5.411683e+18
-5.072675e+18
-4.8237903e+18
-5.0698358e+18
-5.2362766e+18
-5.4102594e+18
-5.4058707e+18
-5.3239153e+18
-5.3123616e+18
-5.2416419e+18
-5.2270151e+18
-4.7286137e+18
-4.9133051e+18
-4.9182571e+18
-4.7473664e+18
-5.0741329e+18
-5.1631653e+18
-5.0614089e+18
-5.1483972e+18
-5.3011121e+18
-5.3303854e+18
-5.1318524e+18
-5.1150738e+18
-5.3496963e+18
-5.2653607e+18
-5.0918723e+18
-4.9286557e+18
-5.1838622e+18
-4.7343184e+18
-5.462838e+18
-5.3258068e+18
-5.2357546e+18
-5.2454841e+18
-5.3318359e+18
-5.4493454e+18
-5.54062e+18
-5.4637544e+18
-5.15327e+18
-5.0632622e+18
-4.9134441e+18
-5.1634055e+18
-5.0689812e+18
-4.7263265e+18
-4.7228145e+18
-4.9105205e+18
-5.167995e+18
-5.0736388e+18
-5.1688641e+18
-5.0772966e+18
-5.2480937e+18
-5.3319309e+18
-5.3300048e+18
-5.2478703e+18
-5.4743175e+18
-5.4332077e+18
-5.4305691e+18
-5.4692496e+18
-5.4260029e+18
-5.4629218e+18
-5.4210642e+18
-5.3427156e+18
-5.3331293e+18
-5.3803517e+18
-5.3732701e+18
-5.3069896e+18
-5.2695408e+18
-5.2549329e+18
-5.2953696e+18
-4.5072635e+18
-4.6973198e+18
-4.8627823e+18
-4.9828003e+18
-4.976796e+18
-4.8672388e+18
-5.1034827e+18
-5.0847445e+18
-5.1520939e+18
-5.1329867e+18
-5.1924849e+18
-5.2321662e+18
-5.1736907e+18
-5.2162882e+18
-5.3690219e+18
-5.5550709e+18
-5.5660182e+18
-5.5438476e+18
-5.3508784e+18
-5.155885e+18
-5.1450126e+18
-5.4007346e+18
-5.3773357e+18
-5.3137301e+18
-5.2922547e+18
-5.4334394e+18
-5.4178773e+18
-5.3413694e+18
-5.3275112e+18
-4.9411411e+18
-5.2487168e+18
-5.1375979e+18
-5.1288621e+18
-5.236905e+18
-5.2261549e+18
-5.1200305e+18
-5.1090479e+18
-4.9348481e+18
-5.2073985e+18
-4.7271748e+18
-4.7292003e+18
-5.3587223e+18
-5.3965691e+18
-5.322497e+18
-5.2844708e+18
-5.1659394e+18
-5.1159308e+18
-4.9949878e+18
-4.8688342e+18
-5.2064521e+18
-5.2465145e+18
-5.1083013e+18
-5.2852616e+18
-5.5197802e+18
-5.3633782e+18
-5.2713093e+18
-5.2931088e+18
-5.3790323e+18
-5.4835711e+18
-5.5783533e+18
-5.5108876e+18
-5.4665791e+18
-5.5070524e+18
-5.1831377e+18
-5.0863532e+18
-4.9778993e+18
-4.8702631e+18
-4.8596292e+18
-4.9768109e+18
-5.201229e+18
-5.101193e+18
-4.6983815e+18
-4.4925639e+18
-4.6868899e+18
-4.9781371e+18
-4.8553017e+18
-4.8596255e+18
-4.9825326e+18
-5.227451e+18
-5.1799377e+18
-5.1927492e+18
-5.2362869e+18
-5.1336482e+18
-5.0818556e+18
-5.1471595e+18
-5.0937832e+18
-5.1997137e+18
-5.2009969e+18
-5.2411046e+18
-5.2402664e+18
-5.1028603e+18
-5.1556733e+18
-5.1085926e+18
-5.1591568e+18
-5.2690496e+18
-5.3124285e+18
-5.3166556e+18
-5.2764244e+18
-5.3940759e+18
-5.3519324e+18
-5.3538491e+18
-5.3929869e+18
-5.3903125e+18
-5.3529937e+18
-5.3857852e+18
-5.3488777e+18
-5.3172581e+18
-5.3137648e+18
-5.279478e+18
-5.2770098e+18
-5.4489374e+18
-5.4679492e+18
-5.4629123e+18
-5.4448201e+18
-5.4806988e+18
-5.506054e+18
-5.4863814e+18
-5.4995711e+18
-5.4389874e+18
-5.4564693e+18
-5.4332715e+18
-5.4502308e+18
-5.4673524e+18
-5.4740347e+18
-5.4927412e+18
-5.4859229e+18
-5.4645251e+18
-5.430587e+18
-5.4292099e+18
-5.4463607e+18
-5.4473904e+18
-5.3588547e+18
-5.3755111e+18
-5.3708036e+18
-5.3533264e+18
-5.4065518e+18
-5.4098963e+18
-5.3923059e+18
-5.3878928e+18
-5.3257846e+18
-5.3424847e+18
-5.3185566e+18
-5.3364193e+18
-5.2930552e+18
-5.2836825e+18
-5.3016579e+18
-5.3096177e+18
-4.4815854e+18
-4.6835086e+18
-4.8582201e+18
-4.9715998e+18
-5.0476629e+18
-4.9659489e+18
-5.0347067e+18
-5.1400779e+18
-5.1675193e+18
-5.1481481e+18
-5.1206195e+18
-5.1886629e+18
-5.2078216e+18
-5.1912223e+18
-5.1698267e+18
-5.2255897e+18
-5.2422846e+18
-5.2290987e+18
-5.2103535e+18
-5.2760201e+18
-5.258605e+18
-5.2466021e+18
-5.2657073e+18
-5.4728844e+18
-5.3739168e+18
-5.3649452e+18
-5.4626925e+18
-5.5551119e+18
-5.560679e+18
-5.6051399e+18
-5.5991496e+18
-5.570065e+18
-5.5649791e+18
-5.6150585e+18
-5.6099013e+18
-5.5435363e+18
-5.5494177e+18
-5.5927444e+18
-5.4538671e+18
-5.5336389e+18
-5.5385593e+18
-5.4444231e+18
-5.3493776e+18
-5.3577603e+18
-5.2758534e+18
-5.1590424e+18
-5.1522196e+18
-4.9516529e+18
-5.2681283e+18
-4.9467324e+18
-5.2624066e+18
-5.1478218e+18
-5.144344e+18
-5.2553724e+18
-4.7261987e+18
-4.7268034e+18
-5.4441625e+18
-5.4555597e+18
-5.4072092e+18
-5.4178055e+18
-5.4147536e+18
-5.4318526e+18
-5.3953183e+18
-5.3775657e+18
-5.3340541e+18
-5.3434715e+18
-5.3812752e+18
-5.371383e+18
-5.3052043e+18
-5.32283e+18
-5.3598081e+18
-5.3420691e+18
-5.4802052e+18
-5.4887022e+18
-5.5291813e+18
-5.4489188e+18
-5.4406278e+18
-5.4722806e+18
-5.4639006e+18
-5.4253984e+18
-5.4331043e+18
-5.3705015e+18
-5.3632036e+18
-5.4105281e+18
-5.4025785e+18
-5.3501833e+18
-5.3567639e+18
-5.3954145e+18
-5.3882194e+18
-4.8704073e+18
-5.018786e+18
-5.0121978e+18
-4.8642534e+18
-5.2772611e+18
-5.2837635e+18
-5.3289527e+18
-5.3222495e+18
-5.1708752e+18
-5.1632677e+18
-5.2346009e+18
-5.2278877e+18
-5.1592896e+18
-5.2224203e+18
-5.1566058e+18
-5.2176641e+18
-5.3158827e+18
-5.2704027e+18
-5.3097251e+18
-5.2648231e+18
-5.2528241e+18
-5.2605087e+18
-5.2954214e+18
-5.3040385e+18
-5.1454496e+18
-5.1519799e+18
-5.2131622e+18
-5.2060316e+18
-5.0069064e+18
-5.1320783e+18
-5.1400792e+18
-5.1982637e+18
-5.1849655e+18
-5.0033581e+18
-4.8679476e+18
-4.8636418e+18
-5.2271305e+18
-5.2429551e+18
-5.2676676e+18
-5.2847637e+18
-4.6761409e+18
-5.3677072e+18
-5.3845519e+18
-5.4012924e+18
-5.4192354e+18
-5.35143e+18
-5.3347018e+18
-5.3186514e+18
-5.30187e+18
-5.215025e+18
-5.1956012e+18
-5.056944e+18
-5.1737888e+18
-5.1457717e+18
-4.9766932e+18
-5.2328069e+18
-5.2502499e+18
-5.2671565e+18
-5.2849075e+18
-4.7427285e+18
-4.9292554e+18
-4.9256606e+18
-4.7222411e+18
-5.1326377e+18
-5.3272381e+18
-5.5658088e+18
-5.61622e+18
-5.51725e+18
-5.3937991e+18
-5.2975433e+18
-5.3470626e+18
-5.3325129e+18
-5.3044998e+18
-5.4229912e+18
-5.3862922e+18
-5.4272565e+18
-5.6423226e+18
-5.5237603e+18
-5.5513706e+18
-5.4949779e+18
-5.5358003e+18
-5.5652197e+18
-5.4871353e+18
-5.4685295e+18
-5.5055615e+18
-5.5250425e+18
-5.2037727e+18
-5.1002937e+18
-4.9905222e+18
-4.8717594e+18
-4.8610697e+18
-4.992041e+18
-5.2328117e+18
-5.2102458e+18
-5.2607367e+18
-5.1216771e+18
-5.1594142e+18
-5.1046943e+18
-4.6840574e+18
-4.4604937e+18
-4.6688104e+18
-4.8510804e+18
-4.8529123e+18
-4.9623133e+18
-5.0300671e+18
-5.0372276e+18
-4.9612234e+18
-4.9641372e+18
-5.0434527e+18
-5.049789e+18
-4.9712281e+18
-5.2083369e+18
-5.2328137e+18
-5.2445995e+18
-5.2213074e+18
-5.2762876e+18
-5.2542371e+18
-5.2647158e+18
-5.2847294e+18
-5.1806661e+18
-5.1250548e+18
-5.2290714e+18
-5.2501101e+18
-5.2531708e+18
-5.2352405e+18
-5.2530417e+18
-5.2500115e+18
-5.2371369e+18
-5.2345015e+18
-5.2695603e+18
-5.288384e+18
-5.2871384e+18
-5.2700219e+18
-5.2685007e+18
-5.2847234e+18
-5.2819143e+18
-5.2653224e+18
-5.1508534e+18
-5.1189838e+18
-5.1355248e+18
-5.167211e+18
-5.2038341e+18
-5.1768608e+18
-5.1918894e+18
-5.2143711e+18
-5.1436233e+18
-5.174265e+18
-5.1471327e+18
-5.1754039e+18
-5.197784e+18
-5.2182042e+18
-5.2167253e+18
-5.1973293e+18
-5.3346926e+18
-5.3558188e+18
-5.3539291e+18
-5.3387631e+18
-5.3165625e+18
-5.3219423e+18
-5.2967697e+18
-5.3043691e+18
-5.3724109e+18
-5.391174e+18
-5.3732625e+18
-5.3903253e+18
-5.4098454e+18
-5.4298302e+18
-5.4272676e+18
-5.4079241e+18
-5.4045304e+18
-5.4226103e+18
-5.4166658e+18
-5.4000004e+18
-5.3721141e+18
-5.387897e+18
-5.3840304e+18
-5.3682313e+18
-5.4140442e+18
-5.3973977e+18
-5.4125388e+18
-5.3955419e+18
-5.3814384e+18
-5.36538e+18
-5.3792102e+18
-5.3629576e+18
-5.3394719e+18
-5.3363061e+18
-5.3557022e+18
-5.3520983e+18
-5.3332872e+18
-5.3304225e+18
-5.3466903e+18
-5.3491944e+18
-5.3072656e+18
-5.3236781e+18
-5.3050119e+18
-5.3205547e+18
-5.3174802e+18
-5.3016377e+18
-5.3145383e+18
-5.2986334e+18
-5.4787102e+18
-5.4843033e+18
-5.4756692e+18
-5.4717142e+18
-5.4674867e+18
-5.4575339e+18
-5.4527683e+18
-5.4626258e+18
-5.4866682e+18
-5.4928548e+18
-5.5016419e+18
-5.4951836e+18
-5.5109765e+18
-5.5207259e+18
-5.5139455e+18
-5.5042778e+18
-5.4556489e+18
-5.4477512e+18
-5.4413068e+18
-5.4494014e+18
-5.4667893e+18
-5.473122e+18
-5.4580381e+18
-5.4648415e+18
-5.4376052e+18
-5.4457706e+18
-5.4432054e+18
-5.4350816e+18
-5.4600504e+18
-5.4627938e+18
-5.451346e+18
-5.4540271e+18
-5.4713792e+18
-5.4803819e+18
-5.477583e+18
-5.4686237e+18
-5.4753562e+18
-5.4813728e+18
-5.489938e+18
-5.484219e+18
-5.4931746e+18
-5.4988726e+18
-5.5084771e+18
-5.5027401e+18
-5.4989908e+18
-5.4894254e+18
-5.486642e+18
-5.4961466e+18
-5.4674522e+18
-5.476407e+18
-5.4760299e+18
-5.4670524e+18
-5.4339744e+18
-5.4420575e+18
-5.4415175e+18
-5.4334933e+18
-5.4338981e+18
-5.4418906e+18
-5.4412849e+18
-5.4336032e+18
-5.4595878e+18
-5.4591557e+18
-5.4495869e+18
-5.4501496e+18
-5.4583386e+18
-5.4588677e+18
-5.449658e+18
-5.4501847e+18
-5.3739738e+18
-5.3898643e+18
-5.4225823e+18
-5.4062047e+18
-5.4466233e+18
-5.4392612e+18
-5.4629269e+18
-5.3424538e+18
-5.3581495e+18
-5.3124678e+18
-5.3272496e+18
-4.4683848e+18
-4.8472806e+18
-4.8542489e+18
-4.9821059e+18
-5.057689e+18
-5.1047384e+18
-5.0895215e+18
-5.0469073e+18
-5.1741547e+18
-5.2016706e+18
-5.2213007e+18
-5.2373835e+18
-5.2523937e+18
-5.2667848e+18
-5.2973064e+18
-5.2817062e+18
-5.574239e+18
-5.4783229e+18
-5.4834176e+18
-5.5268929e+18
-5.5217929e+18
-5.4424438e+18
-5.4002778e+18
-5.3953191e+18
-5.4372581e+18
-5.3872345e+18
-5.3909737e+18
-5.4328236e+18
-5.4289971e+18
-5.5175823e+18
-5.4736658e+18
-5.4693884e+18
-5.5124968e+18
-5.577294e+18
-5.5738539e+18
-5.5520727e+18
-5.5552903e+18
-5.5824341e+18
-5.57991e+18
-5.5579576e+18
-5.5605244e+18
-5.6036776e+18
-5.6262813e+18
-5.6010042e+18
-5.6232795e+18
-5.5982621e+18
-5.6204254e+18
-5.5948749e+18
-5.6170424e+18
-5.591117e+18
-5.5887767e+18
-5.5687761e+18
-5.5662304e+18
-5.5865474e+18
-5.5843757e+18
-5.5640537e+18
-5.5621537e+18
-5.6127115e+18
-5.6354943e+18
-5.6104886e+18
-5.6332781e+18
-5.6082168e+18
-5.6309925e+18
-5.6059367e+18
-5.6286212e+18
-5.5638832e+18
-5.561272e+18
-5.5026982e+18
-5.5407438e+18
-5.5430093e+18
-5.5704309e+18
-5.5667914e+18
-5.5077196e+18
-5.545557e+18
-5.5489228e+18
-5.591338e+18
-5.6134546e+18
-5.5874581e+18
-5.4653463e+18
-5.4614074e+18
-5.5541204e+18
-5.5515761e+18
-5.4945217e+18
-5.5321645e+18
-5.5344968e+18
-5.5589967e+18
-5.556456e+18
-5.4988136e+18
-5.53647e+18
-5.5387446e+18
-5.4583216e+18
-5.454498e+18
-5.41921e+18
-5.3776312e+18
-5.3746378e+18
-5.4153306e+18
-5.4255213e+18
-5.384197e+18
-5.3805156e+18
-5.4218111e+18
-5.3567474e+18
-5.3088046e+18
-5.3047395e+18
-5.35183e+18
-5.0318284e+18
-5.1839566e+18
-5.1920535e+18
-5.2580383e+18
-5.2530298e+18
-5.249346e+18
-5.1806603e+18
-5.1797072e+18
-5.246058e+18
-5.0257076e+18
-4.8737897e+18
-4.8673671e+18
-5.347344e+18
-5.2997088e+18
-5.2963631e+18
-5.3438778e+18
-5.023178e+18
-5.0232046e+18
-4.8668046e+18
-4.8709991e+18
-5.3414585e+18
-5.2941495e+18
-5.2905197e+18
-5.3374853e+18
-5.1780717e+18
-5.2439889e+18
-5.1752142e+18
-5.2408819e+18
-5.174321e+18
-5.1749581e+18
-5.2381121e+18
-5.2393071e+18
-5.2881639e+18
-5.2864942e+18
-5.3323563e+18
-5.3347637e+18
-4.6717302e+18
-4.66961e+18
-5.4682571e+18
-5.4522104e+18
-5.4462998e+18
-5.4621648e+18
-5.4786865e+18
-5.4621416e+18
-5.4572457e+18
-5.4734954e+18
-5.4150794e+18
-5.4203992e+18
-5.436482e+18
-5.4308035e+18
-5.425069e+18
-5.4295753e+18
-5.4459949e+18
-5.4413528e+18
-5.438993e+18
-5.4226834e+18
-5.4118789e+18
-5.4290759e+18
-5.4560484e+18
-5.4403838e+18
-5.4317478e+18
-5.4476372e+18
-5.4250302e+18
-5.4093115e+18
-5.4003171e+18
-5.4161542e+18
-5.3788608e+18
-5.3906633e+18
-5.4067765e+18
-5.39549e+18
-5.3510884e+18
-5.3556213e+18
-5.3720512e+18
-5.3673336e+18
-5.3598361e+18
-5.3642096e+18
-5.3806496e+18
-5.3763445e+18
-5.3964425e+18
-5.4130858e+18
-5.4086641e+18
-5.3921425e+18
-5.3829313e+18
-5.3877987e+18
-5.4041696e+18
-5.3991793e+18
-5.3149378e+18
-5.3273632e+18
-5.3432655e+18
-5.3311308e+18
-5.3370727e+18
-5.3457519e+18
-5.3618625e+18
-5.3530284e+18
-5.3934724e+18
-5.3773264e+18
-5.368409e+18
-5.3844796e+18
-5.3747359e+18
-5.3586656e+18
-5.3465094e+18
-5.362839e+18
-5.5034602e+18
-5.4861429e+18
-5.4817878e+18
-5.4990667e+18
-5.5483038e+18
-5.5463332e+18
-5.4902524e+18
-5.4947271e+18
-5.5120913e+18
-5.5076049e+18
-5.5323828e+18
-5.4560771e+18
-5.4605526e+18
-5.4778299e+18
-5.4733669e+18
-5.4690958e+18
-5.4517912e+18
-5.4475305e+18
-5.4648106e+18
-5.4951091e+18
-5.4777615e+18
-5.4730935e+18
-5.4903103e+18
-5.4656535e+18
-5.4692449e+18
-5.4862607e+18
-5.4823714e+18
-5.432627e+18
-5.4356109e+18
-5.4526258e+18
-5.4492838e+18
-5.4391376e+18
-5.4436064e+18
-5.4608763e+18
-5.4563191e+18
-5.4089655e+18
-5.3915469e+18
-5.3873517e+18
-5.4046316e+18
-5.3796174e+18
-5.3834514e+18
-5.3965716e+18
-5.4006255e+18
-5.4213301e+18
-5.4257071e+18
-5.4432628e+18
-5.4387524e+18
-5.4171476e+18
-5.4345118e+18
-5.430312e+18
-5.4129573e+18
-5.3671253e+18
-5.3696598e+18
-5.3834574e+18
-5.3859816e+18
-5.3725272e+18
-5.3764111e+18
-5.3890197e+18
-5.3930244e+18
-5.4090835e+18
-5.4263953e+18
-5.421982e+18
-5.4049434e+18
-5.4017306e+18
-5.4186267e+18
-5.4159303e+18
-5.3991899e+18
-4.850434e+18
-4.9927187e+18
-5.0863289e+18
-5.0938448e+18
-4.9842901e+18
-5.0813527e+18
-5.0827069e+18
-4.9814803e+18
-4.9823509e+18
-4.8456516e+18
-5.307136e+18
-5.3107293e+18
-5.3300174e+18
-5.3265071e+18
-5.3142589e+18
-5.3182225e+18
-5.3373694e+18
-5.3334978e+18
-5.3512085e+18
-5.3551383e+18
-5.3735659e+18
-5.3694479e+18
-5.3656851e+18
-5.3475993e+18
-5.3441091e+18
-5.3621022e+18
-5.2077439e+18
-5.2453515e+18
-5.201322e+18
-5.2400661e+18
-5.2329387e+18
-5.1963563e+18
-5.2358197e+18
-5.1938695e+18
-5.2726973e+18
-5.2678361e+18
-5.2968549e+18
-5.2925931e+18
-5.2889298e+18
-5.2639557e+18
-5.2609614e+18
-5.2855055e+18
-5.1918593e+18
-5.2303992e+18
-5.2280418e+18
-5.1898937e+18
-5.2824453e+18
-5.2581082e+18
-5.2546977e+18
-5.2784958e+18
-5.1886719e+18
-5.226737e+18
-5.2257571e+18
-5.189421e+18
-5.2515153e+18
-5.2533422e+18
-5.2765671e+18
-5.2746175e+18
-5.359128e+18
-5.3410734e+18
-5.3371601e+18
-5.355203e+18
-5.3231016e+18
-5.3038122e+18
-5.2997591e+18
-5.3191087e+18
-5.3524593e+18
-5.3344077e+18
-5.3320583e+18
-5.3500094e+18
-5.3164219e+18
-5.2973586e+18
-5.2953431e+18
-5.3142596e+18
-5.2822144e+18
-5.2861695e+18
-5.3045524e+18
-5.3004795e+18
-5.28969e+18
-5.2934361e+18
-5.3120695e+18
-5.3081846e+18
-5.3172268e+18
-5.3214088e+18
-5.338667e+18
-5.3343873e+18
-5.3252643e+18
-5.3293985e+18
-5.347104e+18
-5.3427324e+18
-5.0730915e+18
-5.1760891e+18
-5.1778892e+18
-5.2150577e+18
-5.2121207e+18
-5.0779515e+18
-5.1816125e+18
-5.1867531e+18
-5.2232046e+18
-5.2186172e+18
-5.2452089e+18
-5.2495138e+18
-5.2727703e+18
-5.2688812e+18
-5.2654087e+18
-5.2417177e+18
-5.2384333e+18
-5.2617663e+18
-4.9809702e+18
-4.97683e+18
-5.0673001e+18
-5.1594744e+18
-5.1667469e+18
-5.1989923e+18
-5.1888579e+18
-5.0702576e+18
-5.1704797e+18
-5.1741236e+18
-5.2093028e+18
-5.2046476e+18
-5.22917e+18
-5.2348706e+18
-5.2575717e+18
-5.250818e+18
-5.242813e+18
-5.222111e+18
-5.2108052e+18
-5.2304394e+18
-4.9771836e+18
-4.9801712e+18
-5.2482795e+18
-5.2613541e+18
-5.2783025e+18
-5.2652302e+18
-5.2701035e+18
-5.277551e+18
-5.2955609e+18
-5.287575e+18
-5.2816371e+18
-5.294533e+18
-5.3111497e+18
-5.2986826e+18
-5.303957e+18
-5.3122086e+18
-5.3292264e+18
-5.3207098e+18
-4.6596958e+18
-5.061111e+18
-5.1104391e+18
-4.7377218e+18
-4.9351447e+18
-4.931053e+18
-4.7138157e+18
-5.2211645e+18
-5.1495478e+18
-5.1091544e+18
-5.3601957e+18
-5.4231216e+18
-5.3206687e+18
-5.6022168e+18
-5.5653347e+18
-5.5425978e+18
-5.6445654e+18
-5.6716938e+18
-5.6328794e+18
-5.677963e+18
-5.7083145e+18
-5.3561311e+18
-5.3746559e+18
-5.3753165e+18
-5.3573318e+18
-5.3619355e+18
-5.4009463e+18
-5.3326866e+18
-5.3205121e+18
-5.3389239e+18
-5.4586385e+18
-5.4411289e+18
-5.4143402e+18
-5.4554665e+18
-5.4835106e+18
-5.3929404e+18
-5.4111991e+18
-5.4492719e+18
-5.4297533e+18
-5.6526913e+18
-5.6295187e+18
-5.532283e+18
-5.5464341e+18
-5.5506882e+18
-5.5351196e+18
-5.5165661e+18
-5.5831082e+18
-5.5678033e+18
-5.6106908e+18
-5.5883844e+18
-5.4841381e+18
-5.5013676e+18
-5.5199762e+18
-5.5027839e+18
-5.5582839e+18
-5.5386139e+18
-5.5212149e+18
-5.5408578e+18
-5.569413e+18
-5.5537727e+18
-5.5736746e+18
-5.5897999e+18
-5.4869585e+18
-5.4951224e+18
-5.4667897e+18
-5.477858e+18
-5.503479e+18
-5.5121344e+18
-5.521497e+18
-5.5311858e+18
-4.9970818e+18
-4.8712472e+18
-4.8593586e+18
-5.0473176e+18
-5.0012782e+18
-4.97229e+18
-5.2313891e+18
-5.2870595e+18
-5.3095929e+18
-5.2539889e+18
-5.2491483e+18
-5.2552698e+18
-5.2269685e+18
-5.2789393e+18
-5.3004776e+18
-5.1176628e+18
-5.1250567e+18
-5.1332419e+18
-5.1759584e+18
-5.188889e+18
-4.6749045e+18
-4.853547e+18
-4.8664622e+18
-4.4444697e+18
-4.8396538e+18
-4.8471057e+18
-4.8392914e+18
-4.8472227e+18
-4.9729111e+18
-4.9741162e+18
-4.9798423e+18
-5.0581786e+18
-5.0433953e+18
-5.0863031e+18
-5.0977464e+18
-5.04797e+18
-5.0559623e+18
-5.1080812e+18
-5.0627209e+18
-5.1127137e+18
-5.2712709e+18
-5.2434937e+18
-5.2940209e+18
-5.3130608e+18
-5.2071809e+18
-5.2075986e+18
-5.2338892e+18
-5.1447363e+18
-5.1413217e+18
-5.1773726e+18
-5.257732e+18
-5.2727666e+18
-5.2669761e+18
-5.2796866e+18
-5.2841097e+18
-5.2755497e+18
-5.2759936e+18
-5.2843542e+18
-5.2823971e+18
-5.2602417e+18
-5.2566906e+18
-5.2676624e+18
-5.2660056e+18
-5.2712126e+18
-5.2734e+18
-5.2797101e+18
-5.2773747e+18
-5.2670612e+18
-5.2696744e+18
-5.2758819e+18
-5.2734814e+18
-5.260231e+18
-5.259276e+18
-5.2652178e+18
-5.2666094e+18
-5.2538546e+18
-5.2582738e+18
-5.2638161e+18
-5.2604927e+18
-5.2930857e+18
-5.2902644e+18
-5.2995069e+18
-5.3021818e+18
-5.3078527e+18
-5.3162913e+18
-5.3169189e+18
-5.3098589e+18
-5.3074456e+18
-5.3146938e+18
-5.3102286e+18
-5.3029999e+18
-5.2894871e+18
-5.2924213e+18
-5.2957157e+18
-5.299673e+18
-5.2839021e+18
-5.286672e+18
-5.2930344e+18
-5.2903994e+18
-5.2974614e+18
-5.3001337e+18
-5.3075279e+18
-5.3051321e+18
-5.3043579e+18
-5.2964293e+18
-5.2947896e+18
-5.3026752e+18
-5.2802712e+18
-5.2824425e+18
-5.2890947e+18
-5.2870647e+18
-5.167781e+18
-5.2013167e+18
-5.1832584e+18
-5.1994654e+18
-5.2157058e+18
-5.2355365e+18
-5.2245796e+18
-5.212975e+18
-5.2273135e+18
-5.2439923e+18
-5.2361014e+18
-5.2468183e+18
-5.251686e+18
-5.205681e+18
-5.1790418e+18
-5.1918568e+18
-5.2036538e+18
-5.211089e+18
-5.2080094e+18
-5.220403e+18
-5.2194907e+18
-5.1999165e+18
-5.2020761e+18
-5.1903558e+18
-5.1759946e+18
-5.2102438e+18
-5.2205502e+18
-5.2147097e+18
-5.2032363e+18
-5.2383639e+18
-5.2304535e+18
-5.2291353e+18
-5.2373525e+18
-5.2449533e+18
-5.2462419e+18
-5.2526505e+18
-5.2518537e+18
-5.2508619e+18
-5.2435093e+18
-5.2383502e+18
-5.2462916e+18
-5.2311627e+18
-5.2362158e+18
-5.228523e+18
-5.2233783e+18
-5.3683377e+18
-5.3678023e+18
-5.3776548e+18
-5.3765966e+18
-5.361157e+18
-5.3469e+18
-5.3317752e+18
-5.3856695e+18
-5.3940257e+18
-5.3940743e+18
-5.3869055e+18
-5.4018801e+18
-5.4024438e+18
-5.4110006e+18
-5.409506e+18
-5.4384101e+18
-5.4477511e+18
-5.4440107e+18
-5.4348364e+18
-5.4179075e+18
-5.4201795e+18
-5.4258035e+18
-5.429041e+18
-5.4142903e+18
-5.4094784e+18
-5.4168875e+18
-5.4219203e+18
-5.4305502e+18
-5.4392648e+18
-5.4331367e+18
-5.424963e+18
-5.4215086e+18
-5.4296003e+18
-5.4271213e+18
-5.4190247e+18
-5.4038977e+18
-5.4062548e+18
-5.4113757e+18
-5.4137516e+18
-5.3830351e+18
-5.380753e+18
-5.3923708e+18
-5.3876333e+18
-5.3946952e+18
-5.3991623e+18
-5.4063342e+18
-5.4018876e+18
-5.3988737e+18
-5.3914894e+18
-5.3891919e+18
-5.3966169e+18
-5.3843271e+18
-5.3771987e+18
-5.3747558e+18
-5.3820477e+18
-5.42548e+18
-5.4260156e+18
-5.4178999e+18
-5.4173862e+18
-5.4102027e+18
-5.4026797e+18
-5.4020206e+18
-5.4095941e+18
-5.4178153e+18
-5.4259683e+18
-5.4257622e+18
-5.4176057e+18
-5.4017488e+18
-5.4022706e+18
-5.4095631e+18
-5.4099866e+18
-5.3953929e+18
-5.3879168e+18
-5.3871473e+18
-5.3945994e+18
-5.3806812e+18
-5.3732173e+18
-5.3722608e+18
-5.3798334e+18
-5.3948011e+18
-5.3872282e+18
-5.3862479e+18
-5.3939592e+18
-5.379849e+18
-5.3720995e+18
-5.3704981e+18
-5.3786291e+18
-5.3613078e+18
-5.3548146e+18
-5.3525985e+18
-5.359075e+18
-5.3556739e+18
-5.3491178e+18
-5.345941e+18
-5.3528932e+18
-5.3661543e+18
-5.3684363e+18
-5.373291e+18
-5.375996e+18
-5.3600179e+18
-5.3627815e+18
-5.3674177e+18
-5.3698184e+18
-5.3418803e+18
-5.3437631e+18
-5.3508824e+18
-5.3492534e+18
-5.3388683e+18
-5.3408905e+18
-5.3482684e+18
-5.3463134e+18
-5.3545631e+18
-5.356267e+18
-5.3646924e+18
-5.3630918e+18
-5.3566867e+18
-5.3580423e+18
-5.3645725e+18
-5.365687e+18
-5.3265528e+18
-5.3348947e+18
-5.328361e+18
-5.3254248e+18
-5.3479242e+18
-5.3413954e+18
-5.3399113e+18
-5.3455045e+18
-5.317896e+18
-5.3229335e+18
-5.3294833e+18
-5.3246824e+18
-5.3315979e+18
-5.3357266e+18
-5.3419165e+18
-5.3387486e+18
-5.3364977e+18
-5.3291087e+18
-5.326931e+18
-5.3345303e+18
-5.3125986e+18
-5.3151079e+18
-5.3221009e+18
-5.3197966e+18
-5.3335112e+18
-5.3260453e+18
-5.3243113e+18
-5.3315306e+18
-5.3100965e+18
-5.3118864e+18
-5.3188249e+18
-5.3173644e+18
-5.4831184e+18
-5.4764779e+18
-5.4685666e+18
-5.4684941e+18
-5.4593879e+18
-5.4634809e+18
-5.4635045e+18
-5.4906677e+18
-5.4989205e+18
-5.5174209e+18
-5.508023e+18
-5.4579263e+18
-5.4502389e+18
-5.443381e+18
-5.4512537e+18
-5.4687057e+18
-5.4752616e+18
-5.4600339e+18
-5.4670007e+18
-5.4392782e+18
-5.447314e+18
-5.444781e+18
-5.4367835e+18
-5.4616051e+18
-5.4643377e+18
-5.4530415e+18
-5.4557114e+18
-5.4731288e+18
-5.4819764e+18
-5.4792518e+18
-5.4703884e+18
-5.477415e+18
-5.4835209e+18
-5.491927e+18
-5.4861455e+18
-5.4952415e+18
-5.5009418e+18
-5.5102877e+18
-5.5045818e+18
-5.5004885e+18
-5.4911444e+18
-5.4884311e+18
-5.4977233e+18
-5.4693284e+18
-5.4781373e+18
-5.4782679e+18
-5.4694106e+18
-5.4649773e+18
-5.4357725e+18
-5.4437325e+18
-5.4437286e+18
-5.4358861e+18
-5.4378807e+18
-5.4455765e+18
-5.4602252e+18
-5.4617903e+18
-5.4627478e+18
-5.4544759e+18
-5.4538849e+18
-5.4605776e+18
-5.4605662e+18
-5.4519908e+18
-5.4520197e+18
-5.3863472e+18
-5.3861649e+18
-5.3766187e+18
-5.40206e+18
-5.4013277e+18
-5.3936369e+18
-5.4332331e+18
-5.4319606e+18
-5.4242171e+18
-5.4177392e+18
-5.4166339e+18
-5.4088566e+18
-5.4437016e+18
-5.4486419e+18
-5.4558207e+18
-5.4510821e+18
-5.4468742e+18
-5.4397015e+18
-5.4664292e+18
-5.3559463e+18
-5.3467419e+18
-5.3539241e+18
-5.3709449e+18
-5.3704153e+18
-5.3610703e+18
-5.3271921e+18
-5.3175897e+18
-5.3263201e+18
-5.3413056e+18
-5.3328001e+18
-5.3397993e+18
-4.9844159e+18
-4.9814948e+18
-4.9824846e+18
-4.9857603e+18
-5.0734074e+18
-5.1322028e+18
-5.1952765e+18
-5.1969109e+18
-5.2124652e+18
-5.225122e+18
-5.2258485e+18
-5.2368199e+18
-5.243345e+18
-5.2438989e+18
-5.2499506e+18
-5.2603101e+18
-5.2554318e+18
-5.2578895e+18
-5.2741361e+18
-5.2661266e+18
-5.2717615e+18
-5.2847473e+18
-5.2864341e+18
-5.2804891e+18
-5.3131617e+18
-5.305936e+18
-5.3123121e+18
-5.298823e+18
-5.2993316e+18
-5.2928838e+18
-5.6156949e+18
-5.6142438e+18
-5.594193e+18
-5.5925868e+18
-5.5704967e+18
-5.5722101e+18
-5.4844189e+18
-5.4864911e+18
-5.5056061e+18
-5.5036858e+18
-5.488647e+18
-5.4914975e+18
-5.510423e+18
-5.507621e+18
-5.5492337e+18
-5.5293235e+18
-5.5265181e+18
-5.5464513e+18
-5.5226649e+18
-5.5244503e+18
-5.5443308e+18
-5.542567e+18
-5.4729249e+18
-5.4541804e+18
-5.4512633e+18
-5.4699745e+18
-5.4364703e+18
-5.418509e+18
-5.4156712e+18
-5.433572e+18
-5.4108912e+18
-5.413283e+18
-5.4313768e+18
-5.4290484e+18
-5.4677136e+18
-5.448938e+18
-5.4466783e+18
-5.4655761e+18
-5.4034339e+18
-5.4048879e+18
-5.4230851e+18
-5.4214323e+18
-5.4064339e+18
-5.4088301e+18
-5.4268534e+18
-5.4245436e+18
-5.4633883e+18
-5.4444057e+18
-5.4421137e+18
-5.4609029e+18
-5.4592601e+18
-5.4406205e+18
-5.4389004e+18
-5.4573885e+18
-5.5410962e+18
-5.5210435e+18
-5.5184483e+18
-5.5384581e+18
-5.5017516e+18
-5.4823166e+18
-5.4797794e+18
-5.4991787e+18
-5.4757079e+18
-5.4778424e+18
-5.4969966e+18
-5.4945167e+18
-5.5358615e+18
-5.5159955e+18
-5.5132715e+18
-5.5328784e+18
-5.5760395e+18
-5.5744341e+18
-5.5882803e+18
-5.5865465e+18
-5.5848645e+18
-5.5829614e+18
-5.5726307e+18
-5.5706468e+18
-5.5547646e+18
-5.5582685e+18
-5.5806261e+18
-5.5795362e+18
-5.5931058e+18
-5.5918129e+18
-5.5907749e+18
-5.5896344e+18
-5.5784691e+18
-5.5773321e+18
-5.5609376e+18
-5.563018e+18
-5.6038803e+18
-5.6024488e+18
-5.6131294e+18
-5.6145994e+18
-5.625463e+18
-5.6365052e+18
-5.6349483e+18
-5.6239371e+18
-5.6106064e+18
-5.6013306e+18
-5.6118482e+18
-5.6001575e+18
-5.6225769e+18
-5.6335288e+18
-5.6212733e+18
-5.6321264e+18
-5.5987831e+18
-5.596946e+18
-5.6092808e+18
-5.6074437e+18
-5.6180702e+18
-5.6307844e+18
-5.628914e+18
-5.6199306e+18
-5.5953151e+18
-5.5934566e+18
-5.6038156e+18
-5.6056978e+18
-5.6163019e+18
-5.6144204e+18
-5.6271364e+18
-5.6252537e+18
-5.5887161e+18
-5.5879888e+18
-5.601371e+18
-5.6005399e+18
-5.599693e+18
-5.5987532e+18
-5.5869869e+18
-5.5859372e+18
-5.5709191e+18
-5.5688919e+18
-5.584942e+18
-5.5838211e+18
-5.5977067e+18
-5.5964845e+18
-5.5954412e+18
-5.5943332e+18
-5.5827565e+18
-5.5816902e+18
-5.5669365e+18
-5.5649528e+18
-5.6221018e+18
-5.6122091e+18
-5.6230129e+18
-5.6112919e+18
-5.6339272e+18
-5.6330298e+18
-5.6450046e+18
-5.6441091e+18
-5.6203148e+18
-5.6105033e+18
-5.6211869e+18
-5.6096329e+18
-5.6432014e+18
-5.6321061e+18
-5.6312177e+18
-5.6422636e+18
-5.6181296e+18
-5.6086365e+18
-5.6193948e+18
-5.6073439e+18
-5.6413461e+18
-5.6302866e+18
-5.629002e+18
-5.6400326e+18
-5.6157634e+18
-5.6062593e+18
-5.6169284e+18
-5.6051212e+18
-5.6388483e+18
-5.6277916e+18
-5.6266131e+18
-5.6376388e+18
-5.5623468e+18
-5.5609987e+18
-5.5740753e+18
-5.5725397e+18
-5.5713473e+18
-5.570179e+18
-5.5597852e+18
-5.558634e+18
-5.5246134e+18
-5.5059633e+18
-5.5044093e+18
-5.5226702e+18
-5.5433778e+18
-5.5455574e+18
-5.5687538e+18
-5.5669228e+18
-5.5809628e+18
-5.57891e+18
-5.5772477e+18
-5.5756331e+18
-5.5652891e+18
-5.5637368e+18
-5.529996e+18
-5.5106501e+18
-5.5078504e+18
-5.5268382e+18
-5.5480525e+18
-5.551086e+18
-5.599797e+18
-5.5915272e+18
-5.6019923e+18
-5.5893336e+18
-5.6126232e+18
-5.6234304e+18
-5.6211372e+18
-5.6103968e+18
-5.5960886e+18
-5.5875929e+18
-5.5978841e+18
-5.5859286e+18
-5.4920932e+18
-5.4734833e+18
-5.4711012e+18
-5.4895216e+18
-5.4690075e+18
-5.4697917e+18
-5.4880145e+18
-5.4868088e+18
-5.5533417e+18
-5.5522174e+18
-5.5643388e+18
-5.5630387e+18
-5.5619183e+18
-5.5606814e+18
-5.5510559e+18
-5.5498041e+18
-5.5171011e+18
-5.4995796e+18
-5.4975569e+18
-5.5149356e+18
-5.5355013e+18
-5.5377238e+18
-5.557509e+18
-5.5564e+18
-5.5689456e+18
-5.5676642e+18
-5.5666195e+18
-5.565557e+18
-5.5553861e+18
-5.5543894e+18
-5.520934e+18
-5.5028967e+18
-5.5010871e+18
-5.5188381e+18
-5.5395613e+18
-5.5413399e+18
-5.4855471e+18
-5.4681144e+18
-5.4666682e+18
-5.4839312e+18
-5.4633533e+18
-5.4653125e+18
-5.482618e+18
-5.4806305e+18
-5.4508817e+18
-5.433102e+18
-5.4317313e+18
-5.449405e+18
-5.4156773e+18
-5.3976125e+18
-5.3964411e+18
-5.4144398e+18
-5.3938414e+18
-5.3952715e+18
-5.4130752e+18
-5.4114108e+18
-5.4478775e+18
-5.4301705e+18
-5.4282631e+18
-5.4459672e+18
-5.4552838e+18
-5.4369013e+18
-5.4346681e+18
-5.452936e+18
-5.4194507e+18
-5.4016461e+18
-5.3994205e+18
-5.4172368e+18
-5.3980467e+18
-5.3983458e+18
-5.4163107e+18
-5.4161003e+18
-5.4517439e+18
-5.4335745e+18
-5.4333095e+18
-5.4512971e+18
-5.4003035e+18
-5.3815563e+18
-5.3786297e+18
-5.3973516e+18
-5.3627628e+18
-5.3428138e+18
-5.3402076e+18
-5.3600383e+18
-5.3347848e+18
-5.3376498e+18
-5.3575692e+18
-5.3548409e+18
-5.3947224e+18
-5.3758604e+18
-5.3732752e+18
-5.3922779e+18
-5.1097108e+18
-5.0015296e+18
-4.9922667e+18
-5.10132e+18
-5.2146499e+18
-5.2174963e+18
-5.2592368e+18
-5.2564518e+18
-5.222702e+18
-5.2296094e+18
-5.2680447e+18
-5.2634507e+18
-5.2923433e+18
-5.2955439e+18
-5.3205319e+18
-5.3177859e+18
-5.3150891e+18
-5.2888707e+18
-5.2863952e+18
-5.312388e+18
-5.3100758e+18
-5.2849343e+18
-5.2822843e+18
-5.3076119e+18
-5.0977675e+18
-5.2549569e+18
-5.2128249e+18
-5.2105062e+18
-5.2524498e+18
-5.0977202e+18
-5.2119294e+18
-5.2108718e+18
-5.2515325e+18
-5.251824e+18
-5.3058534e+18
-5.280134e+18
-5.280378e+18
-5.3053781e+18
-4.989049e+18
-4.9907842e+18
-4.8496958e+18
-4.8437129e+18
-5.3901992e+18
-5.3709427e+18
-5.3684726e+18
-5.3877049e+18
-5.3520409e+18
-5.3320154e+18
-5.3295428e+18
-5.3495481e+18
-5.3275337e+18
-5.3281708e+18
-5.3482459e+18
-5.347508e+18
-5.3861931e+18
-5.3670465e+18
-5.3661262e+18
-5.3850417e+18
-5.0964955e+18
-5.0940196e+18
-4.9903587e+18
-4.9871314e+18
-5.0943817e+18
-5.09707e+18
-4.9887335e+18
-4.9947124e+18
-4.8441778e+18
-4.849892e+18
-5.3835901e+18
-5.3649472e+18
-5.3625543e+18
-5.3812179e+18
-5.3462747e+18
-5.3263035e+18
-5.3241821e+18
-5.344034e+18
-5.3222242e+18
-5.3423302e+18
-5.3419574e+18
-5.3219687e+18
-5.3797919e+18
-5.3609115e+18
-5.3605424e+18
-5.3794891e+18
-5.2512493e+18
-5.2110442e+18
-5.2073904e+18
-5.248248e+18
-5.2796284e+18
-5.3041154e+18
-5.301977e+18
-5.2769279e+18
-5.205911e+18
-5.2466111e+18
-5.2062432e+18
-5.2459287e+18
-5.274613e+18
-5.2997741e+18
-5.2746219e+18
-5.2998257e+18
-5.2056198e+18
-5.2058561e+18
-5.2456961e+18
-5.2455416e+18
-5.2476635e+18
-5.2072359e+18
-5.2466011e+18
-5.2096861e+18
-5.2745526e+18
-5.298828e+18
-5.2984959e+18
-5.2749101e+18
-5.2739748e+18
-5.2988194e+18
-5.2743279e+18
-5.299452e+18
-5.3215552e+18
-5.3415054e+18
-5.3405682e+18
-5.3207784e+18
-5.3204444e+18
-5.3398969e+18
-5.3389829e+18
-5.3198398e+18
-5.3571464e+18
-5.3582069e+18
-5.3768941e+18
-5.3757042e+18
-5.3590526e+18
-5.360048e+18
-5.3790688e+18
-5.3779126e+18
-4.6541821e+18
-4.6513753e+18
-5.4732773e+18
-5.4590348e+18
-5.453133e+18
-5.4671764e+18
-5.4828881e+18
-5.4681045e+18
-5.4637513e+18
-5.4782951e+18
-5.4246407e+18
-5.4299974e+18
-5.4444647e+18