/*--------------------------------*- C++ -*----------------------------------*\
  =========                 |
  \\      /  F ield         | OpenFOAM: The Open Source CFD Toolbox
   \\    /   O peration     | Website:  https://openfoam.org
    \\  /    A nd           | Version:  7
     \\/     M anipulation  |
\*---------------------------------------------------------------------------*/
FoamFile
{
    version     2.0;
    format      ascii;
    class       volScalarField;
    location    "1000";
    object      pMean;
}
// * * * * * * * * * * * * * * * * * * * * * * * * * * * * * * * * * * * * * //

dimensions      [0 2 -2 0 0 0 0];

internalField   nonuniform List<scalar> 
33733
(
-1.2464257e+16
-1.3043106e+16
-1.2473305e+16
-1.2748361e+16
-1.2696132e+16
-1.2047543e+16
-1.2498538e+16
-1.2495157e+16
-1.2786475e+16
-1.2539847e+16
-1.2728221e+16
-1.3084545e+16
-1.3263115e+16
-1.3332181e+16
-1.3142991e+16
-1.252362e+16
-1.2040328e+16
-1.2499085e+16
-1.2752458e+16
-1.3148294e+16
-1.3153275e+16
-1.2910743e+16
-1.2878196e+16
-1.275077e+16
-1.2706663e+16
-1.2010067e+16
-1.2361864e+16
-1.2289901e+16
-1.1985448e+16
-1.2545146e+16
-1.2659402e+16
-1.2521374e+16
-1.2642269e+16
-1.2855699e+16
-1.2893438e+16
-1.2542914e+16
-1.2563861e+16
-1.292863e+16
-1.2765085e+16
-1.256006e+16
-1.2362509e+16
-1.2663095e+16
-1.2014176e+16
-1.3161259e+16
-1.288468e+16
-1.2697458e+16
-1.2746088e+16
-1.293686e+16
-1.3169972e+16
-1.3351826e+16
-1.3267164e+16
-1.2592288e+16
-1.251439e+16
-1.2354877e+16
-1.2640093e+16
-1.2519007e+16
-1.202612e+16
-1.203169e+16
-1.2362102e+16
-1.2646822e+16
-1.2549245e+16
-1.2653096e+16
-1.2543218e+16
-1.2742958e+16
-1.2940201e+16
-1.2939212e+16
-1.2760277e+16
-1.3304276e+16
-1.321479e+16
-1.3225034e+16
-1.3305532e+16
-1.3217557e+16
-1.3291524e+16
-1.3179659e+16
-1.2947634e+16
-1.29116e+16
-1.3027246e+16
-1.300723e+16
-1.2845339e+16
-1.2768879e+16
-1.2737945e+16
-1.2821481e+16
-1.1423864e+16
-1.185659e+16
-1.2448196e+16
-1.2559457e+16
-1.2472125e+16
-1.2355849e+16
-1.2559919e+16
-1.2546591e+16
-1.2583024e+16
-1.2596699e+16
-1.2621455e+16
-1.2681302e+16
-1.260576e+16
-1.2672909e+16
-1.2961729e+16
-1.3371335e+16
-1.3383227e+16
-1.3346462e+16
-1.2937905e+16
-1.2564603e+16
-1.2567032e+16
-1.301434e+16
-1.2979763e+16
-1.2833135e+16
-1.2808646e+16
-1.3058617e+16
-1.3045289e+16
-1.2872904e+16
-1.2854376e+16
-1.2295118e+16
-1.2745481e+16
-1.2567952e+16
-1.2575127e+16
-1.2725288e+16
-1.2713655e+16
-1.2568203e+16
-1.2581197e+16
-1.2347052e+16
-1.2693802e+16
-1.2057614e+16
-1.207429e+16
-1.2952539e+16
-1.3032642e+16
-1.2848808e+16
-1.2774174e+16
-1.2595815e+16
-1.257646e+16
-1.2534123e+16
-1.2418401e+16
-1.2627584e+16
-1.2690315e+16
-1.2596155e+16
-1.2829935e+16
-1.3245791e+16
-1.294904e+16
-1.2753168e+16
-1.2826293e+16
-1.3032423e+16
-1.3250458e+16
-1.3441402e+16
-1.3371411e+16
-1.3282103e+16
-1.3378471e+16
-1.2612524e+16
-1.25395e+16
-1.2494398e+16
-1.2386204e+16
-1.2369419e+16
-1.2495401e+16
-1.265863e+16
-1.2538949e+16
-1.1894462e+16
-1.143455e+16
-1.1836442e+16
-1.253035e+16
-1.2389236e+16
-1.2460129e+16
-1.2564799e+16
-1.2655785e+16
-1.2561513e+16
-1.2571032e+16
-1.2659116e+16
-1.2529577e+16
-1.250282e+16
-1.2517537e+16
-1.2500178e+16
-1.2601106e+16
-1.2629384e+16
-1.2686397e+16
-1.2701518e+16
-1.2528852e+16
-1.2542223e+16
-1.25436e+16
-1.2565947e+16
-1.275729e+16
-1.2871238e+16
-1.288609e+16
-1.2786259e+16
-1.3088774e+16
-1.2980172e+16
-1.3005766e+16
-1.3092813e+16
-1.3092342e+16
-1.3013368e+16
-1.3058079e+16
-1.29841e+16
-1.2896808e+16
-1.2878501e+16
-1.2805321e+16
-1.28017e+16
-1.3267718e+16
-1.3299973e+16
-1.3291289e+16
-1.3271096e+16
-1.3362231e+16
-1.3403598e+16
-1.3367014e+16
-1.3388826e+16
-1.3247147e+16
-1.3276748e+16
-1.3223516e+16
-1.324994e+16
-1.3312032e+16
-1.3345482e+16
-1.3372501e+16
-1.3339841e+16
-1.329219e+16
-1.3204848e+16
-1.3182247e+16
-1.3217184e+16
-1.3231704e+16
-1.2975454e+16
-1.3001155e+16
-1.2988627e+16
-1.2958208e+16
-1.3076951e+16
-1.3087472e+16
-1.3061551e+16
-1.304291e+16
-1.2889895e+16
-1.2914618e+16
-1.2867088e+16
-1.2898863e+16
-1.2805931e+16
-1.2782953e+16
-1.2812144e+16
-1.2831627e+16
-1.1456115e+16
-1.1858843e+16
-1.2476753e+16
-1.2729046e+16
-1.2608242e+16
-1.2643589e+16
-1.2570438e+16
-1.2562666e+16
-1.2551062e+16
-1.2532368e+16
-1.2530644e+16
-1.256858e+16
-1.258418e+16
-1.2564072e+16
-1.253588e+16
-1.263583e+16
-1.2665951e+16
-1.2647046e+16
-1.261074e+16
-1.274798e+16
-1.2720643e+16
-1.2694623e+16
-1.272629e+16
-1.313213e+16
-1.2928267e+16
-1.2912778e+16
-1.3119673e+16
-1.3341604e+16
-1.3353373e+16
-1.345057e+16
-1.3437816e+16
-1.3365742e+16
-1.3359331e+16
-1.3465531e+16
-1.3457986e+16
-1.3321482e+16
-1.3330305e+16
-1.3427144e+16
-1.3104253e+16
-1.3302914e+16
-1.3309988e+16
-1.3083343e+16
-1.2884122e+16
-1.2905269e+16
-1.2787612e+16
-1.259219e+16
-1.2586515e+16
-1.2263004e+16
-1.2775761e+16
-1.2283998e+16
-1.2767411e+16
-1.258039e+16
-1.2581622e+16
-1.275214e+16
-1.2050148e+16
-1.204399e+16
-1.3090387e+16
-1.3103465e+16
-1.3009068e+16
-1.302027e+16
-1.3054922e+16
-1.3074671e+16
-1.2991998e+16
-1.2973667e+16
-1.2826689e+16
-1.2837617e+16
-1.2917728e+16
-1.2906765e+16
-1.2791612e+16
-1.28089e+16
-1.2890332e+16
-1.2870512e+16
-1.3142072e+16
-1.3150435e+16
-1.3263896e+16
-1.3062918e+16
-1.3055536e+16
-1.3131281e+16
-1.3118613e+16
-1.303343e+16
-1.3043784e+16
-1.2870001e+16
-1.2865793e+16
-1.2955204e+16
-1.2948729e+16
-1.2855174e+16
-1.2864817e+16
-1.2941357e+16
-1.2930348e+16
-1.2354015e+16
-1.2464954e+16
-1.2500282e+16
-1.2352465e+16
-1.2712659e+16
-1.2711e+16
-1.277352e+16
-1.2772927e+16
-1.2594511e+16
-1.2593963e+16
-1.2673433e+16
-1.2673242e+16
-1.2577771e+16
-1.2650967e+16
-1.257523e+16
-1.2637721e+16
-1.2765122e+16
-1.2698757e+16
-1.2751262e+16
-1.2685942e+16
-1.2675733e+16
-1.267945e+16
-1.273603e+16
-1.2741258e+16
-1.2588443e+16
-1.258268e+16
-1.2647915e+16
-1.2644332e+16
-1.2505139e+16
-1.2592664e+16
-1.2584363e+16
-1.2636986e+16
-1.2620909e+16
-1.2542524e+16
-1.2431961e+16
-1.2369826e+16
-1.264883e+16
-1.2663426e+16
-1.2708787e+16
-1.2726779e+16
-1.1811658e+16
-1.2973638e+16
-1.3005129e+16
-1.3060755e+16
-1.3093493e+16
-1.2919235e+16
-1.2891566e+16
-1.2835451e+16
-1.2807151e+16
-1.2570696e+16
-1.2546374e+16
-1.2586176e+16
-1.252503e+16
-1.2529004e+16
-1.2696548e+16
-1.2634678e+16
-1.267226e+16
-1.2724179e+16
-1.2754556e+16
-1.1918945e+16
-1.2340596e+16
-1.2413336e+16
-1.2028566e+16
-1.2606119e+16
-1.2893127e+16
-1.3320295e+16
-1.350941e+16
-1.3308101e+16
-1.3015632e+16
-1.2806685e+16
-1.2913099e+16
-1.2875596e+16
-1.2803429e+16
-1.3116017e+16
-1.3042716e+16
-1.315202e+16
-1.3675417e+16
-1.3420876e+16
-1.3448408e+16
-1.335731e+16
-1.3461642e+16
-1.3537698e+16
-1.3341317e+16
-1.3305353e+16
-1.341661e+16
-1.3454984e+16
-1.2657338e+16
-1.2582378e+16
-1.2516515e+16
-1.2409372e+16
-1.2413698e+16
-1.2539982e+16
-1.2684438e+16
-1.2534726e+16
-1.2679402e+16
-1.2545547e+16
-1.2459636e+16
-1.2455994e+16
-1.187696e+16
-1.1389877e+16
-1.1776149e+16
-1.2422557e+16
-1.2460652e+16
-1.2623958e+16
-1.2538184e+16
-1.2541363e+16
-1.2626938e+16
-1.2676479e+16
-1.2572427e+16
-1.259921e+16
-1.2739834e+16
-1.2540371e+16
-1.254788e+16
-1.2587991e+16
-1.2586271e+16
-1.2705436e+16
-1.2647085e+16
-1.2678541e+16
-1.2728446e+16
-1.2472919e+16
-1.2448428e+16
-1.2587182e+16
-1.2617792e+16
-1.2657732e+16
-1.2619037e+16
-1.2693729e+16
-1.267834e+16
-1.2671249e+16
-1.2652552e+16
-1.2696893e+16
-1.2737512e+16
-1.2773231e+16
-1.2742938e+16
-1.2761322e+16
-1.2779017e+16
-1.2764091e+16
-1.2738089e+16
-1.245669e+16
-1.2436316e+16
-1.2478365e+16
-1.2474747e+16
-1.2516391e+16
-1.247702e+16
-1.250127e+16
-1.2530127e+16
-1.2486906e+16
-1.251565e+16
-1.2551161e+16
-1.2548358e+16
-1.2566732e+16
-1.2592243e+16
-1.2590361e+16
-1.2575077e+16
-1.2907632e+16
-1.2957201e+16
-1.2949377e+16
-1.2925992e+16
-1.2834009e+16
-1.2853675e+16
-1.2788978e+16
-1.2816189e+16
-1.3030219e+16
-1.3070247e+16
-1.3037891e+16
-1.3074008e+16
-1.3139767e+16
-1.318408e+16
-1.3196035e+16
-1.3146829e+16
-1.314643e+16
-1.3185957e+16
-1.3154763e+16
-1.3127876e+16
-1.3048395e+16
-1.3076286e+16
-1.3063346e+16
-1.3040652e+16
-1.3135752e+16
-1.3108197e+16
-1.310982e+16
-1.3084354e+16
-1.3046708e+16
-1.30212e+16
-1.302278e+16
-1.2998085e+16
-1.2938863e+16
-1.2950514e+16
-1.2972185e+16
-1.2970676e+16
-1.2933854e+16
-1.2911503e+16
-1.2933694e+16
-1.2955535e+16
-1.2833134e+16
-1.2862882e+16
-1.2864802e+16
-1.2881691e+16
-1.2870503e+16
-1.2850401e+16
-1.2854156e+16
-1.2828399e+16
-1.3341591e+16
-1.3354587e+16
-1.3338914e+16
-1.3327704e+16
-1.3301285e+16
-1.3303741e+16
-1.3284946e+16
-1.3230735e+16
-1.3377994e+16
-1.3399118e+16
-1.3409783e+16
-1.3387912e+16
-1.3446038e+16
-1.345873e+16
-1.3435054e+16
-1.3424526e+16
-1.3269537e+16
-1.3278797e+16
-1.3260037e+16
-1.3264847e+16
-1.331278e+16
-1.3334064e+16
-1.3302339e+16
-1.3320788e+16
-1.3240564e+16
-1.3249021e+16
-1.322966e+16
-1.3217533e+16
-1.3272924e+16
-1.3293561e+16
-1.3261324e+16
-1.3281162e+16
-1.3327308e+16
-1.3341998e+16
-1.3321321e+16
-1.3306588e+16
-1.3347186e+16
-1.3369425e+16
-1.3380592e+16
-1.3359887e+16
-1.3391033e+16
-1.3413723e+16
-1.3425031e+16
-1.3402477e+16
-1.3385682e+16
-1.3373441e+16
-1.3353559e+16
-1.3366269e+16
-1.3294914e+16
-1.3310224e+16
-1.3297177e+16
-1.3278515e+16
-1.3204392e+16
-1.3218333e+16
-1.3202634e+16
-1.3188266e+16
-1.318937e+16
-1.3207868e+16
-1.3181424e+16
-1.3168175e+16
-1.3192384e+16
-1.3239408e+16
-1.3219957e+16
-1.3240435e+16
-1.3242584e+16
-1.3261464e+16
-1.3234671e+16
-1.3250471e+16
-1.2978289e+16
-1.301932e+16
-1.310702e+16
-1.3067936e+16
-1.3179443e+16
-1.3159053e+16
-1.3222385e+16
-1.2904368e+16
-1.2940221e+16
-1.281484e+16
-1.2858853e+16
-1.1454901e+16
-1.2389606e+16
-1.2475415e+16
-1.2783254e+16
-1.2745167e+16
-1.2570004e+16
-1.2535857e+16
-1.2679738e+16
-1.2581884e+16
-1.2568979e+16
-1.2580466e+16
-1.2607796e+16
-1.2650782e+16
-1.268859e+16
-1.2773983e+16
-1.2734462e+16
-1.3379817e+16
-1.3123712e+16
-1.3129838e+16
-1.3223954e+16
-1.3217003e+16
-1.3017358e+16
-1.2934493e+16
-1.2925796e+16
-1.3010277e+16
-1.2910995e+16
-1.2921013e+16
-1.3004503e+16
-1.2993834e+16
-1.3211978e+16
-1.3113768e+16
-1.3106286e+16
-1.3200388e+16
-1.3355547e+16
-1.3350385e+16
-1.3312275e+16
-1.3316946e+16
-1.3365355e+16
-1.335992e+16
-1.3321791e+16
-1.332688e+16
-1.3439468e+16
-1.348249e+16
-1.3434507e+16
-1.3476869e+16
-1.3429147e+16
-1.347246e+16
-1.3424668e+16
-1.346695e+16
-1.3378235e+16
-1.3374005e+16
-1.3339184e+16
-1.3334398e+16
-1.3370904e+16
-1.3367842e+16
-1.3331522e+16
-1.3329326e+16
-1.3454132e+16
-1.3498014e+16
-1.3451413e+16
-1.349464e+16
-1.3447418e+16
-1.3490391e+16
-1.3443803e+16
-1.3485962e+16
-1.3331641e+16
-1.3326663e+16
-1.3181481e+16
-1.3289955e+16
-1.3293889e+16
-1.3343123e+16
-1.3336183e+16
-1.3190536e+16
-1.3298505e+16
-1.3305125e+16
-1.3416988e+16
-1.3459507e+16
-1.3410462e+16
-1.309948e+16
-1.3095059e+16
-1.3311089e+16
-1.3306428e+16
-1.3165537e+16
-1.3270939e+16
-1.327451e+16
-1.3321573e+16
-1.331527e+16
-1.3175996e+16
-1.3278491e+16
-1.3284213e+16
-1.3091187e+16
-1.3079086e+16
-1.297578e+16
-1.2892235e+16
-1.2881059e+16
-1.296578e+16
-1.2989568e+16
-1.2910302e+16
-1.2901695e+16
-1.2983672e+16
-1.2820443e+16
-1.2752078e+16
-1.2759901e+16
-1.2821958e+16
-1.2453481e+16
-1.2602739e+16
-1.2608956e+16
-1.2699175e+16
-1.2706287e+16
-1.2691841e+16
-1.2600328e+16
-1.2595347e+16
-1.268163e+16
-1.2461167e+16
-1.2309308e+16
-1.2299793e+16
-1.2816629e+16
-1.2745104e+16
-1.2735649e+16
-1.2806111e+16
-1.2466898e+16
-1.2477153e+16
-1.2313318e+16
-1.2345258e+16
-1.2799687e+16
-1.273165e+16
-1.2726943e+16
-1.2796671e+16
-1.2591083e+16
-1.2677323e+16
-1.2589e+16
-1.2674514e+16
-1.2582891e+16
-1.2590346e+16
-1.2661195e+16
-1.26694e+16
-1.2720133e+16
-1.2710813e+16
-1.2780118e+16
-1.2791959e+16
-1.1785575e+16
-1.1761853e+16
-1.3137736e+16
-1.3109501e+16
-1.3103358e+16
-1.3131743e+16
-1.3152288e+16
-1.3122756e+16
-1.3115748e+16
-1.3145806e+16
-1.3017084e+16
-1.3022059e+16
-1.3053174e+16
-1.3047253e+16
-1.3027295e+16
-1.3033755e+16
-1.3065529e+16
-1.3059036e+16
-1.3106689e+16
-1.3078549e+16
-1.3070616e+16
-1.310202e+16
-1.312464e+16
-1.3096321e+16
-1.3087683e+16
-1.3116471e+16
-1.3040257e+16
-1.3010387e+16
-1.3000156e+16
-1.3032107e+16
-1.2981742e+16
-1.2992367e+16
-1.3023407e+16
-1.3014988e+16
-1.2844685e+16
-1.2848337e+16
-1.2880292e+16
-1.2877154e+16
-1.2854727e+16
-1.2861734e+16
-1.2892549e+16
-1.2886244e+16
-1.294798e+16
-1.2975608e+16
-1.2969739e+16
-1.2942573e+16
-1.2933063e+16
-1.2936938e+16
-1.2964307e+16
-1.2960651e+16
-1.2814785e+16
-1.2823068e+16
-1.2854342e+16
-1.2845095e+16
-1.2828556e+16
-1.2837934e+16
-1.2871402e+16
-1.2861555e+16
-1.2954449e+16
-1.2926267e+16
-1.2916711e+16
-1.2944991e+16
-1.2936358e+16
-1.2908671e+16
-1.2898914e+16
-1.2926606e+16
-1.3189242e+16
-1.3157034e+16
-1.3152135e+16
-1.3184097e+16
-1.3332485e+16
-1.3331501e+16
-1.3163643e+16
-1.316993e+16
-1.320268e+16
-1.3195945e+16
-1.3262936e+16
-1.3070464e+16
-1.3076966e+16
-1.3110868e+16
-1.3103954e+16
-1.3096667e+16
-1.3064071e+16
-1.3060103e+16
-1.3093015e+16
-1.3177202e+16
-1.3145748e+16
-1.3139097e+16
-1.3170623e+16
-1.3128507e+16
-1.3133077e+16
-1.3164349e+16
-1.3159006e+16
-1.3038101e+16
-1.3040964e+16
-1.3074184e+16
-1.3070384e+16
-1.3046374e+16
-1.305277e+16
-1.3086664e+16
-1.3079578e+16
-1.2927834e+16
-1.2894336e+16
-1.2888917e+16
-1.2922792e+16
-1.2880841e+16
-1.2883264e+16
-1.2913727e+16
-1.2916321e+16
-1.2981834e+16
-1.2988009e+16
-1.3019501e+16
-1.301178e+16
-1.2974962e+16
-1.3004617e+16
-1.3000119e+16
-1.297134e+16
-1.2868773e+16
-1.2870389e+16
-1.2897687e+16
-1.2900438e+16
-1.2875125e+16
-1.2877673e+16
-1.2904342e+16
-1.2909898e+16
-1.2964213e+16
-1.2993374e+16
-1.2986329e+16
-1.2959255e+16
-1.2953556e+16
-1.2981434e+16
-1.297874e+16
-1.2951783e+16
-1.233434e+16
-1.262656e+16
-1.2553466e+16
-1.2540759e+16
-1.2614678e+16
-1.2558759e+16
-1.255787e+16
-1.2634398e+16
-1.2659115e+16
-1.2347056e+16
-1.2703562e+16
-1.2708851e+16
-1.2741714e+16
-1.2739216e+16
-1.2711769e+16
-1.2712933e+16
-1.2751305e+16
-1.2747439e+16
-1.2799051e+16
-1.2802937e+16
-1.2835814e+16
-1.2830276e+16
-1.282306e+16
-1.2792949e+16
-1.2790719e+16
-1.2821144e+16
-1.2615418e+16
-1.262222e+16
-1.2625513e+16
-1.2636096e+16
-1.262478e+16
-1.261607e+16
-1.2632256e+16
-1.2609932e+16
-1.2631142e+16
-1.2636737e+16
-1.2652688e+16
-1.265659e+16
-1.2652309e+16
-1.263325e+16
-1.2629822e+16
-1.2647954e+16
-1.2591882e+16
-1.2605736e+16
-1.2594469e+16
-1.258791e+16
-1.2645722e+16
-1.2624539e+16
-1.2617877e+16
-1.2646966e+16
-1.2576654e+16
-1.2596922e+16
-1.258194e+16
-1.2579421e+16
-1.2605869e+16
-1.2618016e+16
-1.2642336e+16
-1.2634376e+16
-1.2818137e+16
-1.2789928e+16
-1.2786531e+16
-1.2815134e+16
-1.2739241e+16
-1.2704794e+16
-1.2704004e+16
-1.2736338e+16
-1.2810165e+16
-1.27837e+16
-1.2778769e+16
-1.2808743e+16
-1.2731764e+16
-1.2699818e+16
-1.2692748e+16
-1.2726611e+16
-1.2670703e+16
-1.2677524e+16
-1.2709533e+16
-1.2706112e+16
-1.2679065e+16
-1.2685371e+16
-1.2720204e+16
-1.2713447e+16
-1.2757786e+16
-1.2761379e+16
-1.2790625e+16
-1.2788071e+16
-1.2767184e+16
-1.2773022e+16
-1.2803712e+16
-1.2797118e+16
-1.257931e+16
-1.2580681e+16
-1.2584897e+16
-1.2598755e+16
-1.258923e+16
-1.2559252e+16
-1.2591003e+16
-1.2583492e+16
-1.2594305e+16
-1.2600666e+16
-1.2606369e+16
-1.2607773e+16
-1.2629978e+16
-1.2626133e+16
-1.2622766e+16
-1.260413e+16
-1.2596172e+16
-1.2615086e+16
-1.2666093e+16
-1.266642e+16
-1.2602204e+16
-1.2554978e+16
-1.2575996e+16
-1.2569517e+16
-1.2546584e+16
-1.258682e+16
-1.2582172e+16
-1.2581808e+16
-1.2585824e+16
-1.2580111e+16
-1.2581754e+16
-1.2589858e+16
-1.2610104e+16
-1.2602393e+16
-1.2592046e+16
-1.2568006e+16
-1.2558372e+16
-1.2585931e+16
-1.269343e+16
-1.2731826e+16
-1.2644637e+16
-1.2649292e+16
-1.2690397e+16
-1.2682873e+16
-1.2657924e+16
-1.2665844e+16
-1.2703547e+16
-1.2696028e+16
-1.2732667e+16
-1.2739612e+16
-1.2770208e+16
-1.2764124e+16
-1.2745549e+16
-1.2753059e+16
-1.2784046e+16
-1.2775791e+16
-1.1715424e+16
-1.2696617e+16
-1.2530283e+16
-1.1907063e+16
-1.2308948e+16
-1.2404912e+16
-1.2049863e+16
-1.2708712e+16
-1.2598395e+16
-1.2577307e+16
-1.294607e+16
-1.3070421e+16
-1.2851732e+16
-1.3374565e+16
-1.3381329e+16
-1.3356155e+16
-1.3564442e+16
-1.3601589e+16
-1.3418119e+16
-1.3750719e+16
-1.3798354e+16
-1.2925483e+16
-1.2971891e+16
-1.2964226e+16
-1.286064e+16
-1.2922644e+16
-1.3005929e+16
-1.2838912e+16
-1.280164e+16
-1.28537e+16
-1.3182487e+16
-1.3142221e+16
-1.3101702e+16
-1.3219088e+16
-1.3276248e+16
-1.3053034e+16
-1.3096867e+16
-1.3220181e+16
-1.3173501e+16
-1.3780188e+16
-1.3732945e+16
-1.3467722e+16
-1.3477552e+16
-1.35117e+16
-1.3471808e+16
-1.3432821e+16
-1.3509843e+16
-1.3517224e+16
-1.3642841e+16
-1.3597199e+16
-1.3352246e+16
-1.3394812e+16
-1.343369e+16
-1.3390174e+16
-1.3555559e+16
-1.3509375e+16
-1.3466531e+16
-1.3507601e+16
-1.3589142e+16
-1.3550009e+16
-1.3597871e+16
-1.3642099e+16
-1.3363412e+16
-1.3373198e+16
-1.3316521e+16
-1.3313751e+16
-1.3415057e+16
-1.3429112e+16
-1.3470162e+16
-1.3485308e+16
-1.253594e+16
-1.2414221e+16
-1.2428416e+16
-1.2525523e+16
-1.2574459e+16
-1.2664085e+16
-1.2541346e+16
-1.2708455e+16
-1.2717424e+16
-1.2715099e+16
-1.2555622e+16
-1.2540293e+16
-1.2517452e+16
-1.2659468e+16
-1.2724485e+16
-1.2456451e+16
-1.2438122e+16
-1.2535573e+16
-1.2457982e+16
-1.2460276e+16
-1.1800412e+16
-1.2359694e+16
-1.2347809e+16
-1.1374298e+16
-1.2333891e+16
-1.2425156e+16
-1.2337758e+16
-1.2431639e+16
-1.2657875e+16
-1.2710713e+16
-1.272768e+16
-1.2535063e+16
-1.2636058e+16
-1.2464665e+16
-1.2495639e+16
-1.2644833e+16
-1.2614319e+16
-1.2481997e+16
-1.270796e+16
-1.2550268e+16
-1.2582382e+16
-1.2530096e+16
-1.2685379e+16
-1.2746781e+16
-1.2445731e+16
-1.2453944e+16
-1.2494221e+16
-1.2415788e+16
-1.2354274e+16
-1.2397395e+16
-1.254461e+16
-1.2644377e+16
-1.2599476e+16
-1.263811e+16
-1.2676055e+16
-1.2748027e+16
-1.269928e+16
-1.2729157e+16
-1.2760138e+16
-1.2666742e+16
-1.2613768e+16
-1.2690895e+16
-1.2638413e+16
-1.2745569e+16
-1.2764124e+16
-1.2767862e+16
-1.2753881e+16
-1.2691853e+16
-1.2712106e+16
-1.2725756e+16
-1.2711396e+16
-1.271189e+16
-1.2711236e+16
-1.2715331e+16
-1.2719094e+16
-1.2669837e+16
-1.2688108e+16
-1.2686671e+16
-1.2673797e+16
-1.273897e+16
-1.2711888e+16
-1.2732294e+16
-1.2763299e+16
-1.2773051e+16
-1.2792862e+16
-1.2832649e+16
-1.2813058e+16
-1.2855054e+16
-1.2871398e+16
-1.286541e+16
-1.2862153e+16
-1.2800639e+16
-1.2776319e+16
-1.2826886e+16
-1.2804422e+16
-1.2786676e+16
-1.2811169e+16
-1.2822625e+16
-1.2794612e+16
-1.2821895e+16
-1.2855e+16
-1.286293e+16
-1.2835595e+16
-1.2816842e+16
-1.2796805e+16
-1.2782257e+16
-1.2794465e+16
-1.2745275e+16
-1.2759445e+16
-1.2767674e+16
-1.2751493e+16
-1.2380129e+16
-1.2461429e+16
-1.2411785e+16
-1.2387075e+16
-1.2428175e+16
-1.2524751e+16
-1.2476372e+16
-1.244582e+16
-1.2492017e+16
-1.2585518e+16
-1.2533178e+16
-1.2555053e+16
-1.259116e+16
-1.2388453e+16
-1.243191e+16
-1.2376572e+16
-1.2428865e+16
-1.2497862e+16
-1.2432515e+16
-1.2537267e+16
-1.2441653e+16
-1.2473153e+16
-1.2498054e+16
-1.2537848e+16
-1.2537216e+16
-1.2549387e+16
-1.2568503e+16
-1.2556033e+16
-1.2548643e+16
-1.2570712e+16
-1.2530888e+16
-1.2577448e+16
-1.2604899e+16
-1.2649885e+16
-1.2637517e+16
-1.2640292e+16
-1.2661102e+16
-1.2646319e+16
-1.2633323e+16
-1.2608161e+16
-1.2624036e+16
-1.2586928e+16
-1.2598125e+16
-1.2575144e+16
-1.2575941e+16
-1.2978567e+16
-1.2972555e+16
-1.3012901e+16
-1.2994078e+16
-1.2932565e+16
-1.2874994e+16
-1.2820311e+16
-1.3051789e+16
-1.3066376e+16
-1.3077048e+16
-1.3065911e+16
-1.3114111e+16
-1.3104551e+16
-1.3118103e+16
-1.3124761e+16
-1.3226948e+16
-1.3242786e+16
-1.3240543e+16
-1.3227151e+16
-1.3169423e+16
-1.3168802e+16
-1.3182408e+16
-1.3183641e+16
-1.3172709e+16
-1.3167937e+16
-1.3177922e+16
-1.3185381e+16
-1.3226966e+16
-1.3233409e+16
-1.3221604e+16
-1.3213303e+16
-1.3197932e+16
-1.320688e+16
-1.3183523e+16
-1.3173806e+16
-1.3132021e+16
-1.315415e+16
-1.3144146e+16
-1.3166225e+16
-1.3049174e+16
-1.3084438e+16
-1.3090963e+16
-1.3087348e+16
-1.3120616e+16
-1.3122855e+16
-1.3131176e+16
-1.3129191e+16
-1.3119561e+16
-1.3109166e+16
-1.3091281e+16
-1.3100659e+16
-1.3076377e+16
-1.3070601e+16
-1.305585e+16
-1.3062793e+16
-1.315279e+16
-1.31697e+16
-1.3159085e+16
-1.3142221e+16
-1.3128083e+16
-1.3115126e+16
-1.3098608e+16
-1.3111557e+16
-1.3139179e+16
-1.3152833e+16
-1.3129274e+16
-1.3118902e+16
-1.3077586e+16
-1.309425e+16
-1.3087417e+16
-1.3108819e+16
-1.3083323e+16
-1.3074058e+16
-1.3058193e+16
-1.3067059e+16
-1.3044324e+16
-1.3034069e+16
-1.3015606e+16
-1.3028038e+16
-1.3062031e+16
-1.3052375e+16
-1.303362e+16
-1.3041923e+16
-1.3022216e+16
-1.3006227e+16
-1.29848e+16
-1.3002425e+16
-1.2976251e+16
-1.2967319e+16
-1.2995146e+16
-1.3000803e+16
-1.299834e+16
-1.2995541e+16
-1.2985958e+16
-1.2992341e+16
-1.3040659e+16
-1.3012162e+16
-1.3046279e+16
-1.3027447e+16
-1.3021406e+16
-1.3034519e+16
-1.3026133e+16
-1.3035801e+16
-1.2940023e+16
-1.2966667e+16
-1.2972446e+16
-1.2950982e+16
-1.2901242e+16
-1.2918996e+16
-1.2928424e+16
-1.2909976e+16
-1.2944933e+16
-1.2964501e+16
-1.2977602e+16
-1.2954939e+16
-1.2978559e+16
-1.2998709e+16
-1.2985168e+16
-1.3004005e+16
-1.2866747e+16
-1.2874917e+16
-1.2872473e+16
-1.2898833e+16
-1.2924387e+16
-1.2912818e+16
-1.2947041e+16
-1.2950465e+16
-1.291235e+16
-1.2934627e+16
-1.29242e+16
-1.291342e+16
-1.2943633e+16
-1.2951177e+16
-1.2953736e+16
-1.2950669e+16
-1.2936026e+16
-1.2930436e+16
-1.2899623e+16
-1.2910917e+16
-1.2866794e+16
-1.2901909e+16
-1.2904255e+16
-1.2872996e+16
-1.2889326e+16
-1.2878366e+16
-1.2860544e+16
-1.2869371e+16
-1.2824637e+16
-1.2849518e+16
-1.2846567e+16
-1.2830681e+16
-1.3352657e+16
-1.3339252e+16
-1.3278171e+16
-1.329808e+16
-1.3309843e+16
-1.3316386e+16
-1.3281697e+16
-1.337704e+16
-1.3394299e+16
-1.344311e+16
-1.3424555e+16
-1.3277021e+16
-1.3273569e+16
-1.32593e+16
-1.3269674e+16
-1.3321203e+16
-1.3340742e+16
-1.3302172e+16
-1.3319289e+16
-1.32414e+16
-1.3257106e+16
-1.3240154e+16
-1.3222251e+16
-1.3283716e+16
-1.3302504e+16
-1.3264852e+16
-1.3283113e+16
-1.3328708e+16
-1.3348472e+16
-1.3329778e+16
-1.330999e+16
-1.3348286e+16
-1.3368583e+16
-1.3387154e+16
-1.3367496e+16
-1.3393606e+16
-1.3414831e+16
-1.3434657e+16
-1.3412483e+16
-1.3393653e+16
-1.3374221e+16
-1.335605e+16
-1.337582e+16
-1.3298859e+16
-1.3318528e+16
-1.330841e+16
-1.3284319e+16
-1.3223828e+16
-1.3208379e+16
-1.3227943e+16
-1.3215645e+16
-1.3196727e+16
-1.3215072e+16
-1.3239213e+16
-1.3232978e+16
-1.3231589e+16
-1.3268578e+16
-1.3208249e+16
-1.3266514e+16
-1.3256595e+16
-1.3272494e+16
-1.32407e+16
-1.3253585e+16
-1.2982278e+16
-1.3003357e+16
-1.297075e+16
-1.3028383e+16
-1.3040695e+16
-1.3026543e+16
-1.3113338e+16
-1.3128389e+16
-1.3113358e+16
-1.3073874e+16
-1.308614e+16
-1.307016e+16
-1.3155136e+16
-1.3154809e+16
-1.3176393e+16
-1.3176442e+16
-1.3177592e+16
-1.3157065e+16
-1.3232528e+16
-1.2902688e+16
-1.290257e+16
-1.2914789e+16
-1.2939533e+16
-1.2965167e+16
-1.2936045e+16
-1.2813348e+16
-1.2812417e+16
-1.2849111e+16
-1.286009e+16
-1.2870454e+16
-1.2879621e+16
-1.2742377e+16
-1.2759195e+16
-1.2788094e+16
-1.2832098e+16
-1.2773229e+16
-1.2592187e+16
-1.2641167e+16
-1.2527713e+16
-1.2545353e+16
-1.2620171e+16
-1.2590449e+16
-1.258502e+16
-1.2594758e+16
-1.2605517e+16
-1.2616823e+16
-1.2637902e+16
-1.2633985e+16
-1.2609985e+16
-1.2737686e+16
-1.2654643e+16
-1.2653677e+16
-1.2693307e+16
-1.2732111e+16
-1.2721994e+16
-1.2773195e+16
-1.2789127e+16
-1.2797384e+16
-1.2735541e+16
-1.2766007e+16
-1.275685e+16
-1.346144e+16
-1.3458956e+16
-1.3386769e+16
-1.3383992e+16
-1.3345374e+16
-1.3347826e+16
-1.3128086e+16
-1.3130381e+16
-1.3166744e+16
-1.3163965e+16
-1.3133898e+16
-1.3138475e+16
-1.3174732e+16
-1.3169604e+16
-1.327366e+16
-1.3235978e+16
-1.3231858e+16
-1.3268949e+16
-1.3226735e+16
-1.3228929e+16
-1.3265951e+16
-1.3263596e+16
-1.3074149e+16
-1.3042397e+16
-1.3038599e+16
-1.3069416e+16
-1.2984207e+16
-1.2951727e+16
-1.2948509e+16
-1.298049e+16
-1.294017e+16
-1.2942122e+16
-1.2976503e+16
-1.2974523e+16
-1.3066796e+16
-1.3035271e+16
-1.3033284e+16
-1.3064984e+16
-1.2927692e+16
-1.2931096e+16
-1.2963462e+16
-1.2960473e+16
-1.2934969e+16
-1.2937436e+16
-1.2971456e+16
-1.2966688e+16
-1.306013e+16
-1.3028495e+16
-1.3024802e+16
-1.3055495e+16
-1.305247e+16
-1.302113e+16
-1.3018214e+16
-1.3049725e+16
-1.3261271e+16
-1.3223794e+16
-1.3218221e+16
-1.3256064e+16
-1.3160394e+16
-1.3123335e+16
-1.3118362e+16
-1.3154933e+16
-1.3112095e+16
-1.3114624e+16
-1.3151488e+16
-1.3147355e+16
-1.3251495e+16
-1.321321e+16
-1.3209113e+16
-1.3246782e+16
-1.3386758e+16
-1.338378e+16
-1.3389645e+16
-1.3386564e+16
-1.3383879e+16
-1.3380714e+16
-1.3380563e+16
-1.3376856e+16
-1.3307785e+16
-1.3313506e+16
-1.3394929e+16
-1.3393714e+16
-1.3398113e+16
-1.339586e+16
-1.3393911e+16
-1.3391407e+16
-1.3392185e+16
-1.3389533e+16
-1.3318474e+16
-1.3322133e+16
-1.3440131e+16
-1.3437427e+16
-1.3448714e+16
-1.3451754e+16
-1.3491956e+16
-1.350736e+16
-1.3504284e+16
-1.3489148e+16
-1.3444335e+16
-1.3435523e+16
-1.3446756e+16
-1.3433113e+16
-1.3486808e+16
-1.3501932e+16
-1.3484313e+16
-1.3499518e+16
-1.3430444e+16
-1.3427071e+16
-1.3442148e+16
-1.3438602e+16
-1.3478647e+16
-1.3497451e+16
-1.3494114e+16
-1.3482034e+16
-1.3424808e+16
-1.3422079e+16
-1.3433875e+16
-1.3436405e+16
-1.3475656e+16
-1.3473052e+16
-1.3491324e+16
-1.3488664e+16
-1.3410204e+16
-1.3411778e+16
-1.3413452e+16
-1.3413248e+16
-1.3411226e+16
-1.340807e+16
-1.3409974e+16
-1.3405563e+16
-1.3335794e+16
-1.3331912e+16
-1.3403761e+16
-1.3401084e+16
-1.3407071e+16
-1.3404089e+16
-1.3402209e+16
-1.3399759e+16
-1.3399437e+16
-1.3396583e+16
-1.3328425e+16
-1.3325026e+16
-1.3464883e+16
-1.3455476e+16
-1.3466622e+16
-1.3454574e+16
-1.3507641e+16
-1.3505958e+16
-1.3522846e+16
-1.3520902e+16
-1.3461232e+16
-1.3453376e+16
-1.3463512e+16
-1.3450973e+16
-1.3518777e+16
-1.3504048e+16
-1.3501784e+16
-1.3516664e+16
-1.3457044e+16
-1.3449596e+16
-1.3460165e+16
-1.344653e+16
-1.3515345e+16
-1.3500442e+16
-1.3497571e+16
-1.351262e+16
-1.3453674e+16
-1.3444638e+16
-1.3455724e+16
-1.3442369e+16
-1.3510935e+16
-1.3495777e+16
-1.3493656e+16
-1.3509068e+16
-1.3363911e+16
-1.3360293e+16
-1.3364855e+16
-1.3361129e+16
-1.3358502e+16
-1.3356018e+16
-1.3357525e+16
-1.3354424e+16
-1.3228345e+16
-1.3194732e+16
-1.3191535e+16
-1.3225009e+16
-1.3286287e+16
-1.3290877e+16
-1.3373891e+16
-1.3373062e+16
-1.3377038e+16
-1.3374436e+16
-1.3371184e+16
-1.3367116e+16
-1.3370838e+16
-1.3366459e+16
-1.3239819e+16
-1.3203591e+16
-1.3198274e+16
-1.3233424e+16
-1.3295983e+16
-1.330095e+16
-1.3425908e+16
-1.3418495e+16
-1.3429685e+16
-1.3415366e+16
-1.3469758e+16
-1.3484616e+16
-1.3480817e+16
-1.3466363e+16
-1.3419314e+16
-1.3412409e+16
-1.3422884e+16
-1.3408817e+16
-1.3142264e+16
-1.3107464e+16
-1.3103018e+16
-1.3137329e+16
-1.3098065e+16
-1.3100168e+16
-1.3134269e+16
-1.3131352e+16
-1.3343357e+16
-1.3340841e+16
-1.334364e+16
-1.3340677e+16
-1.3338273e+16
-1.3335779e+16
-1.3338929e+16
-1.333592e+16
-1.3211222e+16
-1.3179465e+16
-1.3176434e+16
-1.3208664e+16
-1.3268946e+16
-1.3272974e+16
-1.3351672e+16
-1.3350197e+16
-1.335369e+16
-1.3351337e+16
-1.3348732e+16
-1.334577e+16
-1.3348664e+16
-1.3345579e+16
-1.322022e+16
-1.3186376e+16
-1.3181702e+16
-1.3214985e+16
-1.3277368e+16
-1.3281239e+16
-1.3127951e+16
-1.3095821e+16
-1.3091615e+16
-1.31237e+16
-1.3083495e+16
-1.3087751e+16
-1.31205e+16
-1.3116876e+16
-1.3034579e+16
-1.3004905e+16
-1.3000189e+16
-1.3030322e+16
-1.2944572e+16
-1.2911485e+16
-1.2907491e+16
-1.2940614e+16
-1.2899927e+16
-1.2904131e+16
-1.2937298e+16
-1.2933637e+16
-1.3026989e+16
-1.2996023e+16
-1.2992602e+16
-1.302378e+16
-1.3043472e+16
-1.3012486e+16
-1.3008693e+16
-1.30393e+16
-1.2955082e+16
-1.2923537e+16
-1.2920532e+16
-1.295124e+16
-1.2914649e+16
-1.2917592e+16
-1.2948932e+16
-1.2947675e+16
-1.3037434e+16
-1.3007046e+16
-1.3005866e+16
-1.3036313e+16
-1.2889484e+16
-1.2859335e+16
-1.2855892e+16
-1.288563e+16
-1.2802429e+16
-1.276616e+16
-1.2765319e+16
-1.2800924e+16
-1.2756858e+16
-1.2760479e+16
-1.2796541e+16
-1.2794344e+16
-1.2880134e+16
-1.2847538e+16
-1.2845006e+16
-1.2878602e+16
-1.2541962e+16
-1.2603142e+16
-1.2574251e+16
-1.254205e+16
-1.2636855e+16
-1.2641316e+16
-1.2665837e+16
-1.2660415e+16
-1.2639655e+16
-1.2636028e+16
-1.2646084e+16
-1.2663354e+16
-1.2681284e+16
-1.2671028e+16
-1.2701351e+16
-1.2704756e+16
-1.2701142e+16
-1.2675238e+16
-1.2671558e+16
-1.2695756e+16
-1.2684684e+16
-1.2667999e+16
-1.2669397e+16
-1.2690654e+16
-1.2541655e+16
-1.2652865e+16
-1.2628614e+16
-1.2621707e+16
-1.2650577e+16
-1.2536639e+16
-1.2612699e+16
-1.2621804e+16
-1.2639961e+16
-1.2635469e+16
-1.2689566e+16
-1.2660911e+16
-1.2658933e+16
-1.2684027e+16
-1.2576251e+16
-1.2597314e+16
-1.2253248e+16
-1.2245512e+16
-1.287377e+16
-1.2842634e+16
-1.2841336e+16
-1.2872083e+16
-1.2791944e+16
-1.275305e+16
-1.2755603e+16
-1.2791e+16
-1.2746934e+16
-1.2752095e+16
-1.2788253e+16
-1.2783367e+16
-1.2870097e+16
-1.2838745e+16
-1.2835649e+16
-1.2867454e+16
-1.2533424e+16
-1.2543712e+16
-1.2601868e+16
-1.2594569e+16
-1.2545138e+16
-1.2548287e+16
-1.2607695e+16
-1.2638383e+16
-1.2264611e+16
-1.2310185e+16
-1.2862223e+16
-1.2832455e+16
-1.2828751e+16
-1.2858875e+16
-1.2775801e+16
-1.2739814e+16
-1.2741288e+16
-1.2773897e+16
-1.273795e+16
-1.2771391e+16
-1.2768746e+16
-1.2735122e+16
-1.2856419e+16
-1.2825461e+16
-1.2824454e+16
-1.2857334e+16
-1.2633862e+16
-1.2611965e+16
-1.2611238e+16
-1.2637289e+16
-1.2653475e+16
-1.2678122e+16
-1.2681376e+16
-1.2657637e+16
-1.2604401e+16
-1.2628258e+16
-1.2612731e+16
-1.2626789e+16
-1.264905e+16
-1.2673674e+16
-1.2648419e+16
-1.2678974e+16
-1.2604073e+16
-1.2601119e+16
-1.2624753e+16
-1.2624885e+16
-1.2613493e+16
-1.2605881e+16
-1.2624298e+16
-1.2608102e+16
-1.2639951e+16
-1.2662606e+16
-1.2651094e+16
-1.2629129e+16
-1.264317e+16
-1.2666851e+16
-1.2645022e+16
-1.26689e+16
-1.2731641e+16
-1.2768161e+16
-1.276478e+16
-1.2728964e+16
-1.2725284e+16
-1.2761688e+16
-1.2755231e+16
-1.2715295e+16
-1.2808508e+16
-1.2814409e+16
-1.2845568e+16
-1.2841695e+16
-1.2817159e+16
-1.2820846e+16
-1.2853366e+16
-1.2849136e+16
-1.1680734e+16
-1.1651592e+16
-1.3150602e+16
-1.3108854e+16
-1.3102411e+16
-1.3143795e+16
-1.3163176e+16
-1.3120569e+16
-1.3115015e+16
-1.3157311e+16
-1.3015146e+16
-1.3020844e+16
-1.3063571e+16