/*--------------------------------*- C++ -*----------------------------------*\
  =========                 |
  \\      /  F ield         | OpenFOAM: The Open Source CFD Toolbox
   \\    /   O peration     | Website:  https://openfoam.org
    \\  /    A nd           | Version:  7
     \\/     M anipulation  |
\*---------------------------------------------------------------------------*/
FoamFile
{
    version     2.0;
    format      ascii;
    class       volScalarField;
    location    "10000";
    object      k;
}
// * * * * * * * * * * * * * * * * * * * * * * * * * * * * * * * * * * * * * //

dimensions      [0 2 -2 0 0 0 0];

internalField   nonuniform List<scalar> 
33730
(
1.5238439
1.5217924
1.523757
1.5250758
1.5231688
1.5231564
1.5235116
1.5235921
1.5247038
1.5243337
1.5243173
1.5246021
1.5185717
1.5216978
1.5216351
1.5220904
1.5219795
1.5221178
1.5220671
1.5253938
1.5242212
1.5246152
1.5246223
1.5242322
1.525048
1.5243093
1.5259719
1.5245612
1.5245526
1.5244501
1.5255343
1.5253296
1.5256041
1.5216704
1.5203912
1.5220771
1.524182
1.522701
1.5242798
1.5254774
1.5254621
1.5252725
1.5252535
1.5193328
1.5177958
1.5191592
1.519556
1.519284
1.5183316
1.5193696
1.522561
1.5209984
1.5222481
1.5223789
1.5236202
1.5216974
1.5223414
1.5216041
1.5223246
1.5212022
1.5256813
1.5263425
1.5258567
1.5257104
1.5261431
1.5257168
1.5255856
1.5255625
1.5255952
1.5237236
1.5239443
1.526045
1.5257791
1.5230747
1.523271
1.524215
1.5251426
1.5252292
1.5230007
1.526081
1.5221778
1.5244406
1.5230782
1.524821
1.5233634
1.5257148
1.5256206
1.5258668
1.5191292
1.5186325
1.5198657
1.5252537
1.5250414
1.5235367
1.5207149
1.5247776
1.5256202
1.5256686
1.52549
1.5253854
1.5193551
1.5185623
1.5195981
1.5195464
1.5202259
1.5205504
1.519514
1.5194948
1.5195853
1.5197635
1.5174728
1.5201662
1.520865
1.5191538
1.5203919
1.5190007
1.5197125
1.5196227
1.5180136
1.5201063
1.5226533
1.5198345
1.5225944
1.5232238
1.5217437
1.5222957
1.5211136
1.522149
1.5208527
1.5214814
1.5214253
1.5205207
1.5212613
1.5196676
1.5236277
1.5261491
1.5259212
1.5263301
1.5266216
1.5264068
1.5258925
1.5259286
1.5262734
1.5258648
1.5256651
1.5256545
1.525795
1.5237898
1.5230037
1.5234877
1.5247891
1.5243252
1.5242512
1.5244639
1.5232884
1.5237571
1.5216247
1.5258979
1.5255368
1.5191511
1.5235002
1.5203613
1.5216465
1.5236192
1.5252398
1.5252443
1.5239586
1.5261221
1.5227661
1.5171462
1.5251939
1.5243689
1.5204228
1.5252684
1.5232784
1.5257546
1.5256828
1.525877
1.5257837
1.5176047
1.5273335
1.5308282
1.5253388
1.5251809
1.518587
1.5239223
1.5183035
1.524984
1.5257093
1.5258449
1.5256789
1.5255379
1.549235
1.5183785
1.5205699
1.5197295
1.5195353
1.5209351
1.517638
1.5184837
1.5183756
1.5189048
1.518916
1.5188346
1.5192495
1.5185397
1.5190738
1.5199169
1.5199119
1.5192604
1.520818
1.5199333
1.5211962
1.5204171
1.5200952
1.5206937
1.5210572
1.5169077
1.5224474
1.5176978
1.5239157
1.5184866
1.521759
1.5201723
1.5192649
1.5203919
1.5191163
1.5182253
1.5185352
1.5188981
1.522467
1.5211741
1.5281074
1.5272534
1.5244426
1.5239924
1.5133361
1.520347
1.5190179
1.5200745
1.5186181
1.5222048
1.5209736
1.5213168
1.5219288
1.5212031
1.5172395
1.5188813
1.5286112
1.5234076
1.5235844
1.5242329
1.5242247
1.524616
1.524667
1.525404
1.5254943
1.5260843
1.5261577
1.5263934
1.5258583
1.5258877
1.526292
1.5260333
1.5257381
1.5257303
1.5259339
1.5244418
1.523882
1.5239832
1.5241909
1.5240414
1.5241674
1.5242621
1.5242604
1.5241609
1.5221557
1.5244216
1.5252174
1.5251378
1.5248218
1.5239715
1.5249662
1.5235656
1.5215343
1.5240984
1.5199433
1.5259284
1.5254717
1.518844
1.511304
1.5239611
1.5142393
1.5180632
1.5206356
1.5231668
1.5252918
1.5254981
1.5358468
1.5261202
1.5193378
1.5265368
1.5141826
1.5252394
1.5251233
1.524491
1.5254872
1.5253295
1.5437366
1.5258354
1.5257487
1.5258904
1.5312414
1.5255642
1.5255168
1.5252865
1.5109057
1.5219893
1.5246907
1.5251459
1.5263522
1.5443392
1.5198339
1.518395
1.5173419
1.5187141
1.518543
1.5189392
1.5190639
1.5214465
1.519796
1.5198412
1.5216192
1.5179383
1.517609
1.5176618
1.5178416
1.5178955
1.5179714
1.5178488
1.5181512
1.5182161
1.5182435
1.5182026
1.5182252
1.5188706
1.5187819
1.5187305
1.519177
1.5199709
1.5186675
1.5195685
1.5198084
1.5196207
1.51994
1.5187035
1.5210286
1.5203173
1.5202148
1.5213447
1.5201891
1.5205924
1.5259271
1.5229629
1.5175796
1.5190565
1.5133641
1.5188766
1.5153273
1.5205915
1.5201581
1.5185651
1.5196869
1.5178869
1.5191934
1.5188345
1.5192178
1.519137
1.5189534
1.5168953
1.5181639
1.5328837
1.5219761
1.5485781
1.5302846
1.5173013
1.5191399
1.5182642
1.5226052
1.5229789
1.5225514
1.5218712
1.5217967
1.5225669
1.5196956
1.5211625
1.5226852
1.5195789
1.5085149
1.5138532
1.5234637
1.5241905
1.5246718
1.5245076
1.5241102
1.5247065
1.5242467
1.5241863
1.5240548
1.5240704
1.5255269
1.5253598
1.5252041
1.5251577
1.5253229
1.5254069
1.5260458
1.5260734
1.5263414
1.5258234
1.5258774
1.526252
1.5238035
1.5235473
1.5235294
1.5248183
1.5249627
1.5236371
1.5241848
1.5248128
1.5246971
1.5257149
1.5265332
1.5257184
1.5241219
1.5242768
1.5239964
1.5252831
1.525321
1.5251412
1.5249379
1.5219551
1.5257263
1.5251913
1.5252444
1.5241665
1.5248688
1.5233488
1.5238716
1.5249387
1.5214999
1.5167872
1.5266623
1.5228917
1.5259388
1.5253696
1.5117413
1.5222733
1.5060602
1.5243799
1.5095713
1.5152068
1.5139537
1.5199545
1.5242535
1.5253445
1.525677
1.5119281
1.5320765
1.5254948
1.5253966
1.5252978
1.5264357
1.5208195
1.5254024
1.5417088
1.5257555
1.5257136
1.5174097
1.5237742
1.5251371
1.5240081
1.5226389
1.5292971
1.5171745
1.5191635
1.518927
1.5188035
1.519289
1.517733
1.5176232
1.5175759
1.5179462
1.5180969
1.5181304
1.5181912
1.5187118
1.5186472
1.5215465
1.519723
1.5197735
1.5216697
1.5190129
1.5181409
1.5181847
1.5178162
1.5177233
1.51832
1.5182423
1.5183608
1.5181024
1.5173032
1.5174066
1.5177116
1.5176758
1.5178477
1.5176474
1.5181463
1.5176136
1.5183893
1.5194485
1.5180403
1.5181
1.5180841
1.5177107
1.5188485
1.5188738
1.5189179
1.5186603
1.5195677
1.5217518
1.5180963
1.5213331
1.5198576
1.5196085
1.5186379
1.5200107
1.5172286
1.5211513
1.5203978
1.5203191
1.5204337
1.5214093
1.5225838
1.5201469
1.5380306
1.5202298
1.5186957
1.5073518
1.5121438
1.5237228
1.5180237
1.5175635
1.5106109
1.5200419
1.5196681
1.519444
1.5191937
1.5196001
1.5211962
1.5199182
1.5203337
1.5202259
1.5103011
1.516003
1.5231768
1.5143993
1.5134688
1.5217465
1.5228159
1.5224094
1.5222691
1.5224143
1.5223464
1.521543
1.521927
1.5241952
1.5164429
1.5222011
1.5225814
1.5124544
1.5037248
1.5086135
1.5233399
1.5248481
1.5240258
1.5241797
1.5239632
1.5241495
1.5257355
1.5250465
1.525098
1.525636
1.524016
1.5252498
1.5250635
1.5248969
1.5249923
1.5255671
1.5254788
1.525485
1.5256162
1.5256194
1.5254754
1.525179
1.5251498
1.5251894
1.5252828
1.5259852
1.525992
1.5229588
1.5231639
1.5246874
1.5245217
1.5234203
1.5234475
1.5228899
1.5243947
1.5240686
1.5212726
1.5244878
1.5223515
1.5256242
1.5258185
1.5224454
1.5243534
1.5246923
1.5255201
1.5253957
1.5339692
1.5315559
1.5235019
1.5265229
1.5245023
1.5235586
1.5228438
1.5248186
1.5254886
1.5256438
1.5254301
1.5250927
1.5256191
1.5196301
1.5252164
1.5253939
1.5229078
1.5240353
1.5250171
1.5229337
1.5219265
1.5240108
1.5249909
1.5166392
1.5139892
1.5339095
1.5049903
1.5208105
1.5230902
1.5246504
1.5065088
1.5136043
1.5218807
1.5248871
1.5313963
1.5271686
1.52538
1.5253949
1.5262609
1.539893
1.5266968
1.5268312
1.525472
1.5176378
1.517591
1.5175739
1.5180218
1.5179844
1.5174266
1.5176753
1.516597
1.5164727
1.518623
1.5180219
1.5180813
1.5184739
1.5190148
1.5181725
1.5180976
1.5177045
1.517702
1.5171527
1.5172303
1.5176358
1.5175996
1.5180038
1.5180354
1.5185881
1.5185048
1.5215808
1.5196364
1.5197388
1.5216873
1.5195188
1.5195163
1.5194689
1.5190067
1.5189957
1.5189308
1.5192089
1.5194696
1.5189061
1.5183509
1.5183617
1.5181766
1.5175721
1.5178959
1.5174666
1.5185265
1.518867
1.5189992
1.5185272
1.5171728
1.5175538
1.517324
1.517568
1.5175394
1.5175523
1.5171416
1.5174854
1.517569
1.5141296
1.5164443
1.5234359
1.517928
1.5180743
1.5185053
1.5179949
1.5158803
1.5188123
1.5188021
1.5204068
1.5206736
1.5185469
1.5201981
1.5179743
1.5129126
1.5334104
1.5196764
1.5194107
1.5158177
1.5159337
1.520519
1.5204708
1.5236611
1.5157248
1.5199162
1.5220768
1.510008
1.5193281
1.5198795
1.519819
1.5202342
1.520119
1.520549
1.5198426
1.5198189
1.5199726
1.5222135
1.5212641
1.5206933
1.5174572
1.504155
1.5121262
1.5215868
1.5207034
1.5213405
1.5214274
1.5219524
1.5219315
1.5217722
1.5211288
1.5206196
1.5199939
1.5227779
1.5234328
1.5234411
1.5287923
1.5105915
1.5217635
1.5200376
1.5057432
1.5249348
1.5240992
1.5241008
1.5239616
1.5239956
1.5240858
1.5251577
1.5254213
1.5250454
1.5253043
1.525843
1.5255696
1.5257224
1.5255686
1.5258162
1.5249992
1.525095
1.5257277
1.5228908
1.5247102
1.5246136
1.5247209
1.5249392
1.5261591
1.5260277
1.5258338
1.5259488
1.5257201
1.5256885
1.5256443
1.5257519
1.5257177
1.5256048
1.5251863
1.525131
1.5232378
1.5227976
1.522622
1.5244374
1.5239624
1.5232527
1.5235084
1.5226371
1.5228355
1.5229787
1.525894
1.5259743
1.5237737
1.5232531
1.5222936
1.5239368
1.5209141
1.5253617
1.5250692
1.5253417
1.5136157
1.5254009
1.5173042
1.5259379
1.5261846
1.518898
1.5224678
1.5278456
1.5257345
1.5258187
1.525716
1.5344183
1.5222606
1.5185815
1.5233256
1.5165407
1.5244851
1.5153073
1.5176411
1.5239221
1.5249092
1.5256763
1.5258088
1.525632
1.5252666
1.520074
1.5227327
1.5240631
1.5174863
1.519834
1.5225373
1.5241816
1.5145986
1.5122622
1.5165571
1.5236019
1.5064117
1.51722
1.5233027
1.5287453
1.5250734
1.5094273
1.5190615
1.5182451
1.5181539
1.5176997
1.5177087
1.5176414
1.5179938
1.5170972
1.5174629
1.5169618
1.5175477
1.5170796
1.517513
1.5173611
1.5179078
1.5184636
1.5179075
1.5179507
1.5184006
1.519587
1.5190367
1.5196693
1.5195008
1.5191761
1.5183416
1.5183494
1.5174013
1.5173241
1.5170178
1.5171004
1.5174348
1.5173733
1.5178674
1.5179056
1.5184752
1.5183805
1.5192422
1.5198408
1.519761
1.519661
1.5196996
1.5195257
1.5191351
1.5189512
1.5194343
1.5205332
1.5203324
1.5195048
1.5195881
1.5188207
1.5196807
1.5192762
1.5196182
1.5224093
1.5186698
1.5185105
1.5184809
1.5182617
1.5179741
1.5175344
1.5176871
1.517798
1.5174491
1.5170953
1.5186467
1.5176791
1.5182176
1.5170996
1.5175572
1.5175235
1.5172609
1.5174033
1.5174566
1.5175073
1.5161327
1.5135529
1.5173654
1.5128475
1.5079131
1.5100674
1.5266932
1.5180224
1.517948
1.5211198
1.5118389
1.5187671
1.5189126
1.5242319
1.5199333
1.5195227
1.5193236
1.5107932
1.5204206
1.5244284
1.5424024
1.5189895
1.5185903
1.5196417
1.5195005
1.519954
1.5200066
1.5196328
1.5192039
1.5200539
1.5190932
1.5245845
1.5189031
1.5217899
1.5217727
1.5137687
1.5238031
1.5135983
1.508056
1.5203865
1.5213248
1.5207615
1.5212149
1.521461
1.5209228
1.5199953
1.5203317
1.5216613
1.5217785
1.5198839
1.518583
1.5194925
1.5133199
1.526482
1.5420467
1.5448424
1.5238806
1.5240965
1.5255242
1.5252689
1.5251877
1.5254232
1.5255258
1.5254755
1.5259303
1.5259991
1.5226449
1.5251669
1.5248969
1.5249587
1.5247117
1.5260181
1.5264499
1.5260004
1.5263338
1.5259413
1.5257094
1.5258358
1.5257215
1.5259056
1.5249555
1.5250555
1.5258243
1.5234103
1.5241158
1.5241623
1.5242322
1.5240861
1.5263619
1.5263404
1.526073
1.5260907
1.5262787
1.5262189
1.5259514
1.5259908
1.5258366
1.5258228
1.5258035
1.5258962
1.5228936
1.5229233
1.522843
1.5228707
1.5230682
1.5244086
1.5241234
1.5239396
1.5246138
1.5249238
1.5222761
1.5277327
1.5258737
1.5244329
1.5219194
1.5254111
1.52206
1.5213676
1.5224513
1.5221744
1.5261328
1.5263215
1.5282899
1.5219651
1.5236622
1.5234076
1.5185283
1.5246485
1.5149138
1.525589
1.5253453
1.5317607
1.5266636
1.506327
1.5253839
1.5094095
1.5260675
1.5263323
1.5166143
1.5139468
1.537882
1.5287435
1.5255509
1.5260426
1.5258815
1.5093191
1.5198341
1.5234045
1.5245429
1.5100123
1.522777
1.5241954
1.5249884
1.5233139
1.5198746
1.5227401
1.516508
1.5234073
1.5229624
1.5087045
1.5178621
1.5087608
1.5181278
1.5093669
1.5196057
1.5198929
1.5196968
1.5192763
1.5194616
1.5193058
1.5196277
1.518526
1.5188952
1.5182733
1.5182117
1.5183005
1.5172629
1.5171888
1.5176812
1.5176206
1.5179256
1.5168842
1.5168656
1.516952
1.5173347
1.5172874
1.5172493
1.5183177
1.5177921
1.5178259
1.5182418
1.5193544
1.5199324
1.5198335
1.5197022
1.5197498
1.5197718
1.5207862
1.5206592
1.5198735
1.5184706
1.5185084
1.5173661
1.5172885
1.5169174
1.517007
1.5173226
1.5172628
1.517999
1.5190871
1.5190296
1.5195966
1.5197684
1.5192533
1.5191088
1.5189082
1.5191215
1.5208928
1.5205853
1.5194501
1.5204767
1.5197836
1.520692
1.520633
1.5161143
1.5178492
1.5187337
1.5207591
1.5199811
1.5206308
1.5208593
1.5197992
1.5192147
1.5187042
1.5199099
1.5182732
1.5209769
1.5270475
1.5171145
1.5186249
1.5186052
1.5183743
1.5178991
1.5197516
1.5175249
1.5177042
1.5165846
1.5185273
1.5174435
1.5153274
1.5124443
1.5136443
1.5184816
1.5175512
1.5176435
1.5170672
1.5131864
1.517513
1.5162373
1.5121735
1.5073461
1.5177447
1.5180888
1.5172439
1.5186888
1.5194534
1.5212326
1.5194964
1.5150448
1.5233735
1.5298395
1.5180073
1.5190194
1.5194009
1.5191267
1.5189934
1.5192486
1.5206194
1.5195771
1.5197566
1.5201559
1.5183631
1.5173733
1.5182917
1.5159466
1.5524384
1.5140397
1.5200698
1.5497534
1.5215647
1.5219026
1.5208858
1.5210543
1.5218049
1.5216865
1.5207355
1.5197589
1.5228732
1.5220298
1.514295
1.5175401
1.5192359
1.5169966
1.5230678
1.5172311
1.519059
1.5069386
1.5250763
1.5249091
1.5251433
1.5253165
1.526604
1.5260521
1.526038
1.5265249
1.5256986
1.5256503
1.5260558
1.5261467
1.5235169
1.5238531
1.5237871
1.5237774
1.5237429
1.5261972
1.526529
1.5261723
1.5264285
1.526016
1.5264692
1.5260171
1.5263873
1.5260901
1.5258185
1.52599
1.5258348
1.5228939
1.5243801
1.5242747
1.5244447
1.5244814
1.5285253
1.5282838
1.5270148
1.5271338
1.5265463
1.5265025
1.5261974
1.5262313
1.5263893
1.5263507
1.5260669
1.5260826
1.5228184
1.5223112
1.5221673
1.5224568
1.5226977
1.5237536
1.5236616
1.5238586
1.5240497
1.5228754
1.5223096
1.5213616
1.5226483
1.5225897
1.5234765
1.528301
1.5270967
1.5261145
1.5283928
1.5336704
1.5211034
1.5280309
1.5263782
1.5222345
1.5249862
1.519412
1.5216811
1.5254844
1.5194028
1.5199667
1.5213281
1.5166795
1.5263694
1.526674
1.5365041
1.5211087
1.5214467
1.5241291
1.5231313
1.5241937
1.5107321
1.5247256
1.5102112
1.5258942
1.5256927
1.5286311
1.530733
1.5261269
1.5254115
1.5268833
1.5327536
1.5271582
1.52555
1.514764
1.5219803
1.5235769
1.518138
1.5234718
1.5242543
1.5210791
1.5206792
1.5271461
1.5228336
1.5259865
1.5195784
1.5197326
1.519989
1.5199179
1.5197489
1.519591
1.5197329
1.5196437
1.5194585
1.5210173
1.5199217
1.5208866
1.5199584
1.5200541
1.51952
1.5193364
1.5196196
1.5183371
1.5182486
1.5181653
1.5184066
1.5172297
1.5171308
1.5171849
1.5176588
1.5167873
1.5168191
1.5168476
1.5172123
1.5171787
1.5172411
1.5176413
1.5193247
1.5191966
1.5198149
1.5200902
1.521223
1.5210625
1.5207652
1.5208253
1.5199782
1.5209711
1.520876
1.5200516
1.5185392
1.5185914
1.5173694
1.5172886
1.5192327
1.5179509
1.5181713
1.5180229
1.5178481
1.5185979
1.5183009
1.5182024
1.5183792
1.5192291
1.5191861
1.5189126
1.5200697
1.5192742
1.5204739
1.5191639
1.5188553
1.5180028
1.5182317
1.5210399
1.519946
1.5207839
1.519055
1.5206762
1.520294
1.5207177
1.5208798
1.5246855
1.5081957
1.5160765
1.515448
1.5209477
1.520101
1.5197333
1.5208171
1.5226778
1.5199633
1.5193393
1.5185304
1.5182486
1.5200911
1.5192564
1.5136907
1.5199574
1.5199383
1.5184801
1.51786
1.5195754
1.5264685
1.5177402
1.5168932
1.5139606
1.5201722
1.5176757
1.5191698
1.5121287
1.5163688
1.512157
1.5068725
1.5177697
1.5161011
1.5190256
1.5197414
1.5149098
1.5278995
1.5194521
1.5210561
1.5187695
1.5186976
1.5167005
1.5178863
1.5204782
1.5202014
1.5185056
1.5200227
1.5234485
1.5197879
1.5195033
1.520653
1.5145179
1.5257002
1.51459
1.5106397
1.5218545
1.5218339
1.5220011
1.5218045
1.5220662
1.522294
1.5201088
1.5212865
1.5223082
1.5201034
1.5222522
1.514
1.5235019
1.5235184
1.5075109
1.5146118
1.5115093
1.5088802
1.5236635
1.52374
1.5237823
1.5237189
1.5264959
1.5265187
1.5261726
1.5261285
1.5266559
1.5260695
1.5260348
1.5265739
1.525798
1.5257677
1.5261962
1.5262937
1.522826
1.5244159
1.5243318
1.5242878
1.5242184
1.5271106
1.5287256
1.5270198
1.5285207
1.5262602
1.5266284
1.5262562
1.5266133
1.5261058
1.5265374
1.5261004
1.526463
1.5228447
1.5235939
1.523623
1.5238204
1.5238072
1.5296046
1.5290109
1.5291187
1.5295976
1.5289824
1.5287631
1.5273776
1.5274805
1.5267489
1.5267308
1.5263614
1.5263545
1.5219577
1.5230341
1.5224365
1.5226279
1.5227842
1.5236723
1.5234625
1.5237218
1.5239046
1.521348
1.5196936
1.5197102
1.5228735
1.5220375
1.5230533
1.5267074
1.5265357
1.5278808
1.5280685
1.5224844
1.5237028
1.5198423
1.5180703
1.5228051
1.520013
1.5224547
1.5248849
1.5289802
1.5274426
1.5264834
1.5288701
1.5328232
1.5151288
1.5285766
1.5268793
1.51977
1.5228217
1.5253284
1.5140794
1.5170658
1.5220606
1.5257835
1.511837
1.5182216
1.5163772
1.5267905
1.5177059
1.522194
1.5245516
1.5263894
1.5217213
1.5241025
1.5250082
1.5212777
1.5283998
1.5257452
1.5213042
1.5303955
1.5260997
1.5214013
1.522608
1.5221103
1.5234772
1.5232714
1.5173287
1.5196045
1.5194776
1.5201729
1.5204378
1.5197967
1.5203061
1.5198931
1.519333
1.5208409
1.5214723
1.519961
1.5213476
1.5208473
1.5197234
1.5195695
1.5197001
1.5211201
1.5211219
1.5199499
1.521047
1.5201166
1.520148
1.5201723
1.5195885
1.5183869
1.5182605
1.5182304
1.5184597
1.517213
1.5171322
1.517074
1.5171409
1.5167295
1.5171556
1.5191898
1.5174955
1.5177221
1.5176907
1.5175808
1.5194895
1.5193238
1.5206933
1.5209288
1.5213903
1.5212286
1.5209387
1.5209745
1.5201518
1.5211182
1.5210357
1.5202018
1.5206803
1.5195319
1.5194818
1.5187228
1.5188263
1.5187423
1.5187349
1.5193164
1.5190693
1.5180038
1.5182123
1.5181139
1.5181261
1.5182005
1.5178919
1.5187616
1.5188192
1.5184088
1.5179191
1.5191593
1.5191197
1.5188569
1.518475
1.5200584
1.5197102
1.5188144
1.5204731
1.5184668
1.5184993
1.5164636
1.5164449
1.5211785
1.5200766
1.5181229
1.5209051
1.5174433
1.5208803
1.5203031
1.5211939
1.520842
1.5210593
1.5312954
1.5041733
1.5134773
1.5111064
1.5202303
1.5195762
1.5188142
1.5220306
1.5194958
1.5184753
1.5176647
1.5255753
1.5180561
1.5174687
1.5223744
1.5173045
1.515446
1.5101048
1.5201195
1.5186831
1.5141816
1.507049
1.5165976
1.5174267
1.5213377
1.5215452
1.5208645
1.520503
1.5198896
1.5211277
1.5161809
1.5165955
1.5125769
1.5161174
1.5218892
1.5213292
1.5156964
1.5198725
1.5296068
1.5434099
1.5183464
1.5194159
1.5218672
1.5210934
1.5217801
1.5218674
1.5221979
1.5220929
1.5239335
1.5228108
1.5232229
1.5233337
1.518837
1.5245168
1.5261087
1.5123298
1.5276702
1.5074555
1.5138933
1.5171473
1.5225751
1.5264768
1.5260518
1.526089
1.5264783
1.5227294
1.5243244
1.524455
1.524552
1.524412
1.5287551
1.528691
1.5270072
1.5270777
1.5266194
1.5266082
1.5262197
1.5261709
1.5267034
1.5261419
1.5261234
1.5266166
1.5228812
1.5235989
1.5234255
1.5235798
1.523401
1.5304281
1.5304156
1.5299398
1.5300086
1.5273252
1.5289774
1.5274159
1.5289955
1.5263308
1.52676
1.5263475
1.5267701
1.5218906
1.523585
1.523561
1.5237652
1.5237802
1.5288484
1.5284957
1.5285883
1.5289248
1.5300402
1.5296444
1.5297622
1.5302081
1.5293824
1.5291919
1.5277417
1.527768
1.5213063
1.5210312
1.5216745
1.5221617
1.5221462
1.5229108
1.5225772
1.522845
1.5232369
1.5233442
1.5214438
1.5213114
1.5229496
1.5226775
1.5233961
1.5265164
1.5265001
1.5280361
1.5278558
1.5191925
1.5122695
1.5198934
1.5130718
1.5240429
1.522164
1.5217269
1.5243956
1.5271977
1.5272169
1.5285584
1.5286591
1.5173444
1.5300489
1.5134542
1.5178673
1.515569
1.5232215
1.5158654
1.5221983
1.5218607
1.5245412
1.5294642
1.5278471
1.5268264
1.5294314
1.5203688
1.5159821
1.5230249
1.5082186
1.5104208
1.5172314
1.5223101
1.5065234
1.5119117
1.5197942
1.5228078
1.5257965
1.5231704
1.5242171
1.5243536
1.5275859
1.528323
1.529059
1.5275812
1.5220252
1.5189703
1.5171925
1.5173265
1.5175041
1.5174093
1.5172951
1.5171062
1.5169913
1.5169088
1.5199099
1.5197652
1.519712
1.5211417
1.5213496
1.5205201
1.5199443
1.5203749
1.5209816
1.5215913
1.5215534
1.519924
1.5215079
1.5208218
1.5209719
1.5196879
1.5212752
1.521193
1.521223
1.5211911
1.5202391
1.5202022
1.5202351
1.5202723
1.5183199
1.5181934
1.5170644
1.5170288
1.5208296
1.5195301
1.5194903
1.5188094
1.5186584
1.517361
1.5176975
1.5177252
1.517643
1.5194092
1.5192344
1.5206844
1.5209296
1.5215331
1.5213662
1.5211144
1.521139
1.5210913
1.5206695
1.520589
1.5202811
1.5203496
1.5205654
1.5202162
1.5203771
1.5201567
1.5198401
1.519655
1.5191239
1.5189339
1.5175466
1.5190737
1.517112
1.5169278
1.5186782
1.517865
1.5179408
1.5181235
1.5180862
1.517264
1.5182213
1.5181757
1.5182159
1.5179068
1.5171626
1.5203503
1.520897
1.513727
1.5190926
1.5190979
1.5188493
1.5175846
1.517444
1.5201167
1.5195686
1.5201918
1.5209943
1.5204754
1.5167733
1.5265425
1.5121211
1.5129703
1.5201626
1.518621
1.5131326
1.5177093
1.5204283
1.5206961
1.5244871
1.5150387
1.5195693
1.5189467
1.5185324
1.5185084
1.5183307
1.5346321
1.5173524
1.5186641
1.5163935
1.5172209
1.5242074
1.5076037
1.5215923
1.5219134
1.521048
1.5212665
1.521496
1.5215599
1.5198752
1.518676
1.5190502
1.5211936
1.5100158
1.5147375
1.5060729
1.5108237
1.5557498
1.5365691
1.5117302
1.5164317
1.5208981
1.5203229
1.5211862
1.5209125
1.5216099
1.5215629
1.5228825
1.5243692
1.5245975
1.5233796
1.5273851
1.5315297
1.526421
1.5238053
1.5294523
1.5400708
1.52894
1.5059614
1.5226855
1.5239497
1.5229105
1.524013
1.5236968
1.5237694
1.524079
1.528572
1.5286064
1.5269192
1.5268535
1.5265082
1.5264795
1.5260039
1.5259577
1.5265499
1.5260543
1.5261318
1.5265626
1.5229061
1.5233198
1.5232995
1.5234637
1.5234746
1.5306247
1.5307821
1.5308541
1.5306987
1.5290609
1.5291469
1.5273045
1.5273332
1.5267134
1.526731
1.5262799
1.5262103
1.5218214
1.5234406
1.5235105
1.5235435
1.5236044
1.529249
1.5291175
1.529099
1.5290104
1.5307382
1.5307973
1.5304662
1.5304147
1.5276682
1.5294702
1.5277331
1.5294528
1.5210489
1.5226115
1.5227755
1.5230544
1.5230362
1.5289336
1.5286199
1.528577
1.5290114
1.5292537
1.5290273
1.5290546
1.529289
1.5305112
1.5301023
1.5303068
1.5307369
1.5215113
1.521434
1.521414
1.5210825
1.5214913
1.5219847
1.5222645
1.5219314
1.5224133
1.5178615
1.5209181
1.5220775
1.5221452
1.5226762
1.5217903
1.5263849
1.5254749
1.5272287
1.527889
1.5184265
1.5176715
1.5153303
1.5216712
1.5244984
1.5244387
1.5174355
1.5248543
1.5270779
1.5271315
1.5286829
1.528491
1.5129562
1.5050631
1.5133767
1.5207416
1.5064555
1.5238668
1.5223928
1.5198471
1.5222695
1.5247622
1.5277186
1.5278798
1.5290933
1.529174
1.5089104
1.5123634
1.5192357
1.5235146
1.5347075
1.5174249
1.5215895
1.5245477
1.5205859
1.5184548
1.5092199
1.5050285
1.5127877
1.5177964
1.5185618
1.5220259
1.531089
1.5237206
1.5232691
1.5308077
1.5208718
1.519573
1.5194535
1.5186214
1.5185631
1.5185131
1.5192006
1.5182608
1.5190157
1.5168492
1.5170766
1.5170761
1.5176272
1.5176552
1.5173708
1.5172248
1.5170198
1.5200958
1.5198758
1.5199114
1.5196468
1.5211698
1.5215153
1.5213933
1.5206024
1.5211376
1.521786
1.5216642
1.521621
1.5216704
1.5209489
1.5207771
1.5211203
1.5213785
1.5213282
1.5203097
1.5202473
1.5182592
1.5169759
1.521008
1.5207764
1.5207416
1.5204799
1.5205412
1.5202251
1.5200166
1.5189902
1.5188129
1.5173603
1.5176786
1.5176998
1.5175994
1.5193125
1.5191348
1.5206941
1.5209519
1.5213779
1.5210041
1.5207612
1.5207963
1.5208474
1.5207743
1.5207478
1.5206495
1.5209397
1.5203441
1.5203152
1.5202333
1.5202036
1.5199551
1.5203705
1.5200421
1.5190614
1.5193266
1.5183433
1.5199337
1.5197233
1.5188235
1.5184412
1.5180469
1.5189781
1.5153213
1.51903
1.5136955
1.5147006
1.5187833
1.5164992
1.5179283
1.5180981
1.5180684
1.5174123
1.5149075
1.5182522
1.5178546
1.5181534
1.5183463
1.5178822
1.5190129
1.5206091
1.5236617
1.5087146
1.5188233
1.5178775
1.5129234
1.5240507
1.51951
1.5198318
1.5197471
1.5283268
1.5189915
1.5169238
1.5078431
1.5206345
1.5224632
1.5247104
1.5195385
1.5220968
1.51852
1.5214875
1.5181158
1.5178167
1.5221935
1.5218059
1.5217847
1.5217731
1.5217822
1.5213925
1.5200061
1.520537
1.5216769
1.5213461
1.5188275
1.5155856
1.5151854
1.5219602
1.5051818
1.5143746
1.5028069
1.5084442
1.5207125
1.5206008
1.5182821
1.520953
1.5209172
1.5213226
1.5227056
1.5212548
1.5213393
1.5210711
1.5226566
1.5243932
1.5272433
1.5269762
1.5217791
1.5220835
1.5387256
1.5194395
1.5137233
1.5229935
1.5227414
1.5232305
1.5231702
1.5233225
1.5234069
1.524316
1.5248233
1.5249745
1.5246711
1.5245576
1.531099
1.530943
1.5309859
1.5311411
1.5233572
1.5242918
1.5242278
1.5239554
1.5240214
1.5286155
1.5285471
1.5268054
1.5268131
1.5290334
1.5291123
1.5272426
1.5271621
1.5266094
1.5265741
1.5259708
1.5258683
1.5266797
1.526063
1.5261389
1.5266946
1.5217613
1.5234411
1.5234595
1.5235184
1.5235447
1.5290928
1.5290536
1.529275
1.5292857
1.5311455
1.5314713
1.531463
1.5310799
1.5294621
1.5295164
1.5275693
1.5275973
1.5207763
1.522565
1.5229029
1.5228344
1.5224822
1.5290848
1.5291958
1.529244
1.5294164
1.5296867
1.5295113
1.5295074
1.5294012
1.5313835
1.5313411
1.5310524
1.5309357
1.5217755
1.5220073
1.5220295
1.5223191
1.5223175
1.5286914
1.5281013
1.5283909
1.5287134
1.5293557
1.5290762
1.5290758
1.5294558
1.5297386
1.529509
1.5295317
1.5297803
1.5198646
1.5216384
1.521387
1.5210969
1.5214864
1.5213463
1.5210525
1.521798
1.5219589
1.5236835
1.52198
1.5224095
1.520085
1.5223591
1.5220252
1.5246062
1.5242452
1.5233912
1.525482
1.5104132
1.520016
1.5194615
1.5232975
1.5220262
1.5223421
1.5242225
1.5162556
1.5269741
1.5260195
1.5276804
1.5283908
1.5086206
1.5110265
1.5083139
1.5170671
1.5227033
1.5247371
1.5273976
1.5239295
1.5091486
1.5250007
1.5277298
1.527812
1.5291746
1.5290475
1.508104
1.5145527
1.5201246
1.5239418
1.5155331
1.5224025
1.5226805
1.5252368
1.5067532
1.5164636
1.5200351
1.5127389
1.5188695
1.5214209
1.5199318
1.5129438
1.507656
1.5149088
1.5229636
1.5319091
1.5208985
1.5212024
1.5209317
1.5208441
1.520817
1.5206054
1.5206797
1.5206857
1.5209305
1.5204298
1.5195179
1.5203417
1.5186374
1.5184602
1.5185159
1.5184846
1.5190872
1.5168363
1.5166469
1.5169632
1.5170688
1.5175874
1.5176894
1.5176553
1.5172987
1.5202429
1.5201127
1.5198509
1.5195781
1.521215
1.5215856
1.5216473
1.5214625
1.5218972
1.5217786
1.5210945
1.5209128
1.5214913
1.5203526
1.5214694
1.520648
1.5207704
1.5207739
1.5207053
1.5202769
1.5203362
1.5205371
1.5207065
1.5202671
1.5201154
1.518929
1.5187786
1.517391
1.5176746
1.5176781
1.5175794
1.5218779
1.5212628
1.521256
1.5206798
1.5203744
1.5210776
1.5211051
1.5210782
1.5210282
1.5209732
1.5201676
1.5205919
1.5204228
1.5205183
1.5203699
1.520362
1.520322
1.5193049
1.5207041
1.5202605
1.5202723
1.5199173
1.5188237
1.5195758
1.5202275
1.5183944
1.5203793
1.5221649
1.5181744
1.5167892
1.5135754
1.5200663
1.5198473
1.5189181
1.5180351
1.5228233
1.5183694
1.5168225
1.5190154
1.5117866
1.51904
1.5092079
1.5111459
1.5213284
1.5182634
1.5180499
1.5174946
1.5174851
1.5105549
1.5182133
1.5178111
1.5166146
1.5164224
1.5180762
1.5149337
1.5079268
1.5194429
1.5207989
1.5135304
1.5191008
1.5162888
1.52119
1.5366239
1.5222711
1.5179863
1.5217701
1.5226095
1.521889
1.5219122
1.5220147
1.5220042
1.5211502
1.5211889
1.5210205
1.5201009
1.5161279
1.5204234
1.5234297
1.5186971
1.5338109
1.5151913
1.5125349
1.5239231
1.520293
1.5207354
1.5210257
1.5230112
1.5213335
1.5108452
1.5223516
1.519647
1.5224861
1.5225333
1.5222452
1.5225407
1.5224655
1.5219545
1.5221222
1.5157174
1.5255516
1.540894
1.5199527
1.5155018
1.5153655
1.5218107
1.5233768
1.5234732
1.523148
1.5235421
1.5234398
1.5228517
1.5233162
1.5231583
1.5232741
1.5234577
1.5290082
1.5290255
1.5292707
1.5292649
1.5247324
1.5248565
1.5250927
1.5252165
1.5249717
1.5315508
1.5315658
1.5313257
1.5312811
1.5318308
1.5316848
1.5317207
1.5318786
1.5243868
1.5241801
1.5242376
1.5244556
1.5268422
1.528722
1.5286418
1.526808
1.5291062
1.5290474
1.527119
1.527122
1.5295339
1.5295596
1.5275261
1.5274528
1.5266762
1.526675
1.5259765
1.5258868
1.5205354
1.5224446
1.5227552
1.5227443
1.522462
1.5292197
1.5292263
1.5295235
1.5296062
1.5295751
1.5296299
1.5299093
1.5298141
1.5316988
1.5320746
1.5320312
1.5316666
1.5219798
1.5216869
1.5215267
1.522168
1.5217986
1.5295119
1.5289784
1.5288913
1.5291316
1.5295283
1.5296529
1.5297047
1.5298766
1.5302269
1.5300397
1.5300344
1.5299143
1.5200907
1.5217784
1.5216179
1.5220971
1.5222021
1.5264055
1.5256284
1.5264543
1.5273583
1.5292184
1.52857
1.5289126
1.5292376
1.5298401
1.5295458
1.529573
1.5299442
1.5177559
1.5197191
1.5204331
1.5202122
1.5197077
1.5191102
1.5193051
1.5200937
1.5203206
1.522783
1.5216362
1.5205129
1.5206879
1.5218331
1.5216957
1.5222094
1.5214892
1.5229704
1.523789
1.5236753
1.5287606
1.5227318
1.5249279
1.5175796
1.5234305
1.5226078
1.5231091
1.5250637
1.5249628
1.5238543
1.5261799
1.5056081
1.5150798
1.5210257
1.5258105
1.5235564
1.5263442
1.5204326
1.5230351
1.5246446
1.5078753
1.5276733
1.5267852
1.5281606
1.528876
1.5101698
1.5204391
1.5227336
1.525119
1.520352
1.5234123
1.5234649
1.5252765
1.5108109
1.5139642
1.5197386
1.5271831
1.5212212
1.5229104
1.5138174
1.5186322
1.5199
1.5193737
1.5155083
1.5094392
1.5214197
1.5205772
1.5206436
1.5207107
1.520663
1.5210008
1.5206985
1.5207329
1.5209128
1.5208623
1.5209467
1.5201629
1.5202207
1.5208535
1.5209848
1.5207221
1.5207077
1.5204547
1.5204677
1.5194187
1.5203884
1.5186051
1.5182741
1.5184418
1.5184705
1.5184769
1.5189908
1.5168173
1.5166434
1.5164657
1.5170779
1.5175644
1.5176923
1.5177799
1.5176289
1.5202815
1.5201121
1.5216739
1.5217347
1.5220015
1.5210682
1.5211122
1.5219897
1.521234
1.5209859
1.5207648
1.5202972
1.5203448
1.5202776
1.5202218
1.5201954
1.5202419
1.5205565
1.5207039
1.5203805
1.5202154
1.5189614
1.5188698
1.5217985
1.5219751
1.5214342
1.5218531
1.5217567
1.5217346
1.5215917
1.5219068
1.5217132
1.5210206
1.5207072
1.520925
1.5180275
1.5189006
1.5206997
1.520662
1.5197132
1.5206806
1.520553
1.5220642
1.5188342
1.5189453
1.5202986
1.5203285
1.5203988
1.5200785
1.5202845
1.5186951
1.5202228
1.5165428
1.5228184
1.5202167
1.5202493
1.5199086
1.5179053
1.5170645
1.5195494
1.5174525
1.5202809
1.5141879
1.520443
1.5442775
1.5158067
1.5184931
1.50956
1.519064
1.5178274
1.5191196
1.534504
1.5185232
1.5172778
1.5174173
1.5077593
1.5174455
1.5176707
1.5238645
1.517868
1.5173027
1.5236953
1.5162465
1.508472
1.5219684
1.5140395
1.5221554