/*--------------------------------*- C++ -*----------------------------------*\
  =========                 |
  \\      /  F ield         | OpenFOAM: The Open Source CFD Toolbox
   \\    /   O peration     | Website:  https://openfoam.org
    \\  /    A nd           | Version:  7
     \\/     M anipulation  |
\*---------------------------------------------------------------------------*/
FoamFile
{
    version     2.0;
    format      ascii;
    class       volScalarField;
    location    "10000";
    object      omega;
}
// * * * * * * * * * * * * * * * * * * * * * * * * * * * * * * * * * * * * * //

dimensions      [0 0 -1 0 0 0 0];

internalField   nonuniform List<scalar> 
33730
(
774.13656
2249.3406
665.79962
796.2484
1085.4559
965.7399
864.31975
891.67138
563.52672
563.5259
632.78882
635.27807
3583.1929
2289.4689
2348.8115
2103.2713
2439.3267
2366.5761
2003.1859
657.52001
509.30723
504.76603
539.78648
545.35966
803.67881
1043.0013
577.54315
840.27497
839.39855
999.46334
660.39732
644.79309
568.2629
1244.481
1165.9504
965.41057
752.61818
972.76872
763.07034
519.8759
519.43588
564.52486
569.4726
1104.0859
4075.5061
3300.9429
3338.41
3270.1615
3662.4471
3405.3346
2284.7227
2395.2722
2062.383
2191.1277
2760.2696
2505.5406
2091.7754
2476.0344
2183.6736
1881.8322
607.64905
511.43439
508.55204
548.15786
544.96547
485.36168
479.92029
496.21937
498.49768
724.95816
1087.8804
591.94346
572.61482
937.22648
1259.2862
867.52345
685.94891
700.78732
1149.5235
546.45227
877.92502
768.04921
900.9914
744.15963
1162.5593
613.85081
581.25604
531.50806
1181.6214
1192.2887
931.67638
924.74798
671.82285
855.39649
948.40524
691.12453
537.71619
556.22531
580.11806
572.36946
784.54856
1446.9562
739.81446
917.66587
837.6054
658.99306
1626.65
1386.8795
1439.3917
1331.9403
4236.3012
3196.9533
3219.2365
3309.8251
3181.6325
3285.6611
3268.6343
3071.4893
3926.2357
3225.3302
2166.7292
2283.9927
2060.3023
2159.1857
2568.3294
2649.7988
1843.9351
1963.1369
2384.3321
2314.4597
2091.7306
2375.3317
2009.7042
1788.2141
588.70962
504.79149
539.05731
543.60071
508.8124
493.31272
486.17334
504.87495
513.42642
525.99607
520.31966
526.38436
538.28
718.48807
1219.0379
1120.3381
562.92555
571.26765
652.54498
662.60815
917.769
885.31119
1203.7869
566.7208
541.80472
929.70598
800.61653
1326.1705
893.33352
769.96209
627.85018
651.88352
1290.343
555.14913
813.45423
753.40509
721.92188
836.44272
880.27576
655.59266
1246.2041
606.78026
573.62212
540.6042
1715.6794
1199.6054
1319.5142
1143.4385
791.69967
671.6546
722.25024
752.77424
881.14323
672.49753
594.85321
659.00449
643.69709
595.41586
1429.5459
832.82036
610.66938
514.24506
657.22423
512.66712
1347.3094
829.54398
1044.9626
1024.2984
841.34558
1536.3404
2123.6012
1562.8977
1922.3948
518.34429
592.89559
1078.7102
591.58282
1073.391
511.36613
2016.5252
1580.3154
1804.8664
1550.7211
4467.7767
3395.5808
2795.5556
3654.7623
2990.3426
3313.4145
3104.2043
3373.5759
3146.6881
3269.5283
3939.5009
3218.067
3322.3403
3477.84
2104.1327
3282.1036
2455.6745
2299.3521
2822.2996
1636.0581
1833.8775
1648.0915
2285.198
2094.9778
1954.0802
2319.178
2244.049
1999.2743
2041.2805
2114.1894
1878.7819
2652.5938
554.02321
575.27488
504.573
537.75913
537.55126
504.69218
493.55935
511.0244
521.60049
494.40033
539.79395
526.27907
529.86289
542.8403
637.97911
610.45544
605.85646
645.31986
690.03444
971.01339
1019.7631
908.04999
898.30982
566.46631
577.51597
671.14194
651.69708
1468.2488
1477.3845
534.09707
542.11955
598.65406
761.06812
603.40248
781.40025
1048.6593
1111.0818
1162.9117
567.1266
558.35043
772.73344
608.35084
739.73824
970.70618
820.93829
753.97181
711.47367
619.69305
629.48386
2049.6963
579.74179
709.29094
809.50564
701.10675
693.26632
724.37597
880.15143
1209.8449
641.68048
2597.3053
597.62537
584.00255
582.38964
1161.0612
818.93182
762.20163
675.18388
465.61453
720.18874
738.25386
656.75731
781.66498
1334.0887
603.69806
580.3683
875.6405
535.41828
712.82144
726.64117
591.28149
490.33951
476.76569
502.7632
477.74636
1186.4024
740.62583
929.55589
973.66662
756.90271
1559.1172
1600.0954
2036.8673
1871.0618
590.36562
715.28567
1169.6911
660.62715
1140.0891
557.47013
1630.4074
2244.6161
1601.1093
2191.5829
534.95101
733.56465
591.48534
1119.2534
568.543
798.86015
1227.1902
515.82745
2083.9065
1650.6596
2529.2127
1756.5668
4422.5179
2832.6598
2076.0757
2895.6156
2378.472
3079.8385
3120.1344
2812.6235
3016.4372
2745.3053
3899.5574
3504.2682
3412.116
3459.7764
3419.3336
2602.8087
2855.3394
4995.9492
2105.028
4428.3918
3554.675
1526.2232
1686.7087
2141.5487
2540.393
2015.5017
1837.8453
2253.5924
2235.4551
1916.6131
2368.7387
2430.0179
2080.9515
1949.1126
1066.911
1342.5627
548.3275
471.49254
469.97262
495.54277
494.97021
577.39387
505.76912
535.68967
534.70953
505.11547
489.02582
510.23685
507.77033
491.33789
536.94279
550.53748
548.81584
539.38381
636.23984
608.83985
592.64959
606.97903
795.03585
918.82538
1080.2781
566.20593
578.55787
1052.3682
907.76663
642.99128
636.18196
1308.8247
1481.9597
1154.4245
765.94553
1009.5737
765.83415
523.784
522.00459
565.68461
577.7923
1476.576
1658.1085
557.49881
560.42858
697.86483
604.04726
877.48459
725.5928
612.69474
830.91232
851.11306
1285.0991
1384.6961
588.82566
617.55302
510.91039
775.55119
398.40058
714.70872
711.14432
753.3667
558.65035
660.37336
699.12524
613.91845
614.61969
458.36836
953.74188
745.11081
667.79954
694.88656
792.80984
785.86859
629.91042
1338.4065
784.51874
750.4474
600.20022
718.5977
719.39597
708.22494
698.26802
834.82472
580.98194
507.66788
435.4307
486.26517
443.26282
812.32541
510.44277
663.96718
670.1108
515.75991
487.56715
523.06018
520.55989
482.25362
498.14309
493.90755
504.51675
495.39322
1023.2482
673.19231
839.91907
872.32724
690.10479
1959.7502
1409.4214
2019.8666
1450.4081
527.58365
589.98569
1085.6797
629.53806
1151.171
541.36589
1599.4448
1660.7274
2185.1711
2200.6009
580.43012
861.39582
655.77498
1155.1314
645.08504
796.51904
1168.8698
580.09189
1653.8546
2473.3287
1568.0934
2385.5381
624.41142
742.59039
820.28876
654.63789
1089.496
625.42311
763.59639
957.75719
1214.8267
579.65902
2372.2274
1629.0655
3854.8431
1589.435
4466.4487
1147.314
1809.7556
3529.4512
2699.0249
2692.107
1627.5113
3934.4341
3631.5024
3498.6183
3503.8036
3500.6935
3402.0056
3200.5543
3253.2997
3173.5722
1575.7162
2469.5286
2121.399
1284.4354
1649.4403
2063.4991
1896.5065
2229.9535
2199.1765
1964.5762
1913.723
2442.0562
2370.075
2134.7703
1997.9229
2522.5735
2039.2705
1240.1549
523.58623
859.12856
499.76278
540.30054
472.68316
473.01828
496.65171
496.60088
461.6914
467.90046
479.16766
473.15758
612.03405
512.31374
544.26261
539.4241
511.04745
485.91519
500.94661
500.78121
485.55981
521.56716
540.13112
544.85752
534.66334
622.28806
646.56182
611.2237
618.60049
787.22697
1166.3807
593.28081
601.96989
979.99945
994.20737
1186.9866
696.0703
704.03135
947.60826
775.84229
1242.2366
538.83688
545.08842
1269.4162
1099.8367
769.81018
598.7387
590.59262
1871.159
1900.9294
860.86838
1231.2968
662.80695
1024.7969
798.03511
638.7383
533.87806
526.17547
560.28104
580.26353
1718.1654
1286.1518
618.42805
594.19681
764.13843
699.52681
611.66853
909.48257
759.529
720.3459
618.30837
675.85286
755.46178
1653.6735
279.36272
706.00328
755.23226
689.81885
324.96928
470.87333
685.28913
679.62991
936.91319
769.91489
706.80041
686.96975
746.32958
1222.2513
746.92893
784.64471
712.47968
576.47338
435.91855
478.65287
482.67981
441.98664
456.91542
459.46142
590.6592
590.72402
469.72638
468.70135
474.30149
461.80865
824.05321
493.26571
609.73866
623.15089
495.69781
479.50439
502.59953
510.25088
488.29304
517.65882
530.66545
520.50294
501.87322
549.67793
545.91696
562.80828
575.2312
1075.5012
605.64851
728.813
750.09305
619.04971
1234.8505
1597.6676
1250.6103
1620.3041
510.42069
563.83956
1045.2076
574.5286
1039.8723
519.96994
2082.4355
1625.5084
2196.1895
1654.3851
532.93863
818.02181
587.26536
1222.0743
601.97169
793.38384
1181.7541
546.04434
1569.1285
1284.3382
1868.9576
2678.8144
629.38104
792.87017
970.42713
658.67365
1015.7555
652.69074
795.38592
983.72
1318.7396
629.01323
1728.289
1994.837
1132.8084
3664.5227
730.10679
810.66037
755.78711
1047.1047
723.57719
876.91769
1080.7124
954.25277
4494.2067
3269.3792
1524.9419
3874.5657
3423.5639
3442.2002
3617.3758
3530.0841
3397.9172
3135.6615
3224.0406
3255.1087
3445.3113
3366.4714
3218.3624
2670.1247
678.63862
1877.5881
2128.8316
2218.6754
2268.2816
2283.2769
2000.1502
1944.4303
1887.6934
2296.9188
2228.1073
1778.0626
2027.6609
2695.8668
2662.3541
2567.1105
1322.8583
2468.7496
1809.4812
620.34354
498.70492
464.88076
447.83018
465.41287
448.21891
540.76328
476.473
475.89284
500.33881
499.83601
466.74315
466.05614
475.51366
476.62584
518.53533
538.7676
534.35956
519.36577
613.39225
515.98225
556.99191
553.81181
512.95953
500.18721
517.12557
512.33223
493.48554
507.32967
510.96358
516.48066
509.94597
587.8705
595.44074
625.94366
610.40982
850.84312
1068.6067
1079.1344
568.69596
626.10852
704.87115
671.32232
855.00683
878.51422
1482.3496
544.64594
564.15257
1170.2201
803.90689
1118.9469
829.20085
1372.6237
614.12199
634.44101
900.8666
665.61838
687.79917
1042.3578
532.57315
540.94488
1140.6553
1067.5871
1003.3407
709.65502
592.81087
577.17075
1961.234
1408.3758
752.32771
745.91644
811.30716
663.32068
714.58253
683.22735
725.10077
640.22014
566.71688
575.58458
594.59535
593.29929
699.00975
738.1844
692.1949
732.59073
704.46075
759.00111
704.86477
633.3479
451.50673
547.11363
737.2398
263.83768
530.46591
694.73942
814.25704
692.52903
324.36968
580.87715
433.45498
475.95734
473.66092
435.10269
458.31526
458.02486
593.76485
590.55553
464.86336
429.55197
471.59946
480.71114
479.12767
433.1463
510.6255
517.01994
520.14611
544.41206
874.71221
585.27227
482.29775
578.95761
485.51281
472.16328
487.9037
495.13274
475.03421
507.51664
516.13368
526.36426
517.40464
606.04836
587.14972
572.67698
568.57305
1250.1661
617.04866
761.91988
790.73404
630.9764
1266.5621
1725.7669
1345.7915
1957.4517
496.7792
554.06826
942.06515
549.37922
946.81377
499.9741
1490.9709
1966.6866
1721.0151
1840.5383
513.00142
550.89011
725.11918
1202.9872
570.98469
764.82595
1177.8953
522.4237
1950.1617
1607.0859
1978.1374
1618.2718
609.08551
788.40992
1002.3627
614.90421
1210.6058
649.21503
768.37255
900.15658
953.30118
631.7652
1195.3486
749.07006
1161.6012
3007.2499
744.25675
871.9823
1087.317
782.58282
758.89719
848.65598
1158.8558
1266.5923
790.3646
822.44921
552.67488
805.54589
1004.8183
1877.6325
4466.2608
3902.9207
3453.8119
3472.7516
3356.1852
3237.2953
3073.6028
3078.1424
3274.4291
3031.9984
3865.1013
2874.3671
3387.5074
3480.3078
2152.8965
3705.8215
2140.5272
1268.5698
2222.2253
2438.5508
2275.6809
1908.1759
1958.3606
2251.8384
2200.1455
2282.5201
1978.0313
1952.4263
1746.2804
2096.5392
2190.861
1206.8229
2411.8786
4889.4315
5227.5554
2154.1319
497.86096
449.99853
449.16898
466.91467
467.6654
455.62351
443.84767
457.8906
448.17907
550.49559
474.22113
473.82422
498.79898
500.1083
468.28421
473.26009
478.72009
485.82698
514.25373
508.33777
511.27287
506.97312
603.41081
600.71613
605.11414
609.78346
674.87661
507.18582
545.39774
574.83524
519.37755
502.01511
524.21053
515.43155
497.82975
513.9427
523.479
516.9841
510.61713
558.83082
558.07222
560.59005
565.61822
784.04886
1146.3572
1072.9748
913.99147
958.00342
575.76734
665.73183
697.49073
570.27008
1472.5678
1320.678
535.85858
581.19764
652.2953
788.41375
619.12475
768.86744
957.91252
1023.2757
1432.2812
547.34413
562.1559
1333.9647
838.76037
721.88169
933.14372
952.77719
718.4141
1049.1409
606.08795
624.95374
1145.2577
823.86463
352.02775
670.75341
621.36372
593.5126
591.77336
1068.2247
693.70369
1355.8015
895.82157
681.53201
622.07295
617.29508
439.27131
707.53257
729.54753
663.3237
436.15306
757.98326
714.48231
654.05811
846.70695
666.65434
725.59867
611.93469
782.61638
749.03973
330.44151
567.90551
309.71335
547.67643
343.54776
607.99834
430.86678
470.73981
472.30107
433.45065
457.94648
455.72366
590.027
589.44861
457.25946
428.1516
464.45065
467.9052
462.67829
429.91544
449.95518
448.54306
501.17428
459.18539
504.04465
510.54337
507.94196
470.2165
593.20202
594.72651
617.41622
591.32502
975.96944
484.27662
600.08261
601.14283
484.94275
482.87591
466.13062
479.15318
469.9039
497.04986
502.32859
509.77794
507.32243
614.92161
603.43668
602.61155
605.96831
1318.719
644.49343
777.0167
785.6577
636.10664
1697.6177
1309.1187
1329.9292
1603.5789
505.26422
566.43386
990.9974
574.00586
999.72269
505.122
1599.1907
1662.9031
1495.3793
2062.0583
509.46909
731.66236
538.53945
1237.8696
538.79369
693.96071
1151.3645
509.71844
1506.3498
2243.0338
2156.554
1766.1361
576.79922
588.86055
693.2845
897.20275
1312.9771
602.65194
731.86081
872.70742
1262.4497
601.08012
1808.0046
1096.0265
1532.1173
1620.7945
760.54809
968.62796
991.24595
949.473
741.97338
861.71854
746.55384
583.61758
821.18795
873.14141
904.72979
794.55995
857.30911
1026.9607
807.63909
662.79644
911.19639
1231.7795
4485.1784
3512.926
3376.0498
3467.3127
3215.4406
3239.8786
3162.8505
3102.5529
3099.3778
3007.024
2792.0595
2707.4454
2759.1099
2434.683
7984.171
2136.0822
3093.6815
7715.6074
2392.7986
2205.329
2399.6497
2456.3382
2153.9429
2024.1125
2331.9515
1752.0699
1999.1829
2404.1848
1702.7043
2065.1547
1810.5272
1604.4869
2032.1091
1993.376
2206.1196
666.83364
448.52414
466.03782
466.02361
448.10173
443.93769
443.816
456.12782
455.38172
514.73528
501.92183
515.00645
510.65493
558.36728
472.25443
471.49111
498.80927
497.56693
465.39345
466.86181
483.51033
482.71909
526.09793
569.42933
516.81131
516.14813
603.35276
594.10349
593.78879
581.36049
651.85828
506.2243
557.49598
548.49756
504.34774
485.43829
503.89226
523.7512
495.07062
516.51656
529.28239
524.40489
513.90909
559.20083
578.78863
566.28272
558.21654
764.20031
1148.6676
1103.0512
923.40483
873.58065
644.67224
638.04815
550.03304
563.62394
1414.9155
1310.8135
1034.4698
813.99931
1125.6846
797.65853
529.95307
580.63375
620.4068
530.68797
2025.8212
1333.3451
577.06246
577.36063
734.502
630.55892
810.73406
707.67429
624.90653
818.30881
1020.1418
1061.3582
1060.5229
572.74838
571.92108
1702.0252
832.75171
716.09477
701.1884
920.23486
779.51101
579.75742
709.22894
773.37016
612.97694
621.68053
1047.4615
976.53159
769.59927
666.63334
964.73947
1025.7782
800.56357
672.44119
580.10903
713.98302
722.15008
650.98083
729.1812
712.01453
724.98027
677.09514
898.42352
739.90078
839.38145
643.20623
475.17741
431.93069
475.66095
431.96453
457.13291
457.3712
585.53582
588.35504
451.75359
425.85336
458.43551
462.48415
456.02536
428.61315
449.55725
446.22389
499.9038
451.59482
419.64024
495.93097
509.84012
460.1038
518.20807
421.11711
583.84476
506.77727
589.81432
586.85926
582.23766
507.18437
1026.0941
489.89744
630.26971
628.51111
490.10092
472.75693
488.1749
485.88078
468.52079
498.94663
493.10476
498.32155
493.26852
555.88121
557.59327
593.91437
588.89402
1476.6281
694.67492
868.49065
831.17227
676.11777
1707.9517
1360.3193
1384.1537
1751.6114
509.80218
581.08813
946.13124
602.38936
1006.3721
503.14418
1971.5715
1484.3159
1449.1124
1748.6516
518.7937
729.0696
551.15791
1107.4174
553.45814
777.46919
1224.6219
511.62488
1933.517
975.89371
1342.0591
1620.2272
590.03374
695.29854
893.34602
608.6539
1398.9693
602.9876
667.498
842.97263
1195.1357
572.66892
1635.8936
1474.9925
1615.9716
2173.3374
680.63437
832.5769
1013.9121
1756.2273
719.00792
852.09804
791.11924
1369.1103
933.68011
1044.3125
732.52892
837.37871
679.65339
472.45692
835.44048
800.998
820.38187
881.35386
644.99263
1110.2372
4423.6777
3861.7117
3027.6461
3058.2381
2633.3194
2770.9303
3116.1375
3193.7147
2790.4645
3071.3612
3446.5756
3028.1582
2979.285
3060.8609
2189.8124
3863.4133
2171.9904
1614.712
2307.0481
2233.2639
2380.7176
2343.9676
2007.8494
2048.4055
2268.7008
2442.7603
2151.9505
1857.6408
2554.974
1311.9047
2122.3058
2700.515
958.21739
1765.3264
1119.1083
858.98661
465.19051
448.06554
446.68609
464.41464
438.09211
458.63115
450.54867
437.13637
498.36253
504.02412
519.09429
527.51426
585.85517
580.82877
583.70795
576.13331
554.78624
470.683
469.06637
495.69429
495.8169
467.79424
460.59049
480.24569
472.09356
544.50231
529.23588
511.11457
521.62219
572.20213
621.32785
586.20161
577.9756
645.17343
496.95491
535.37164
543.72345
504.42803
484.55257
503.93172
500.84704
483.42705
523.44662
545.03364
548.30928
513.40415
545.83697
548.2468
557.60205
558.73499
752.8098
1099.4557
1051.3846
865.8782
892.80909
618.11741
609.82368
532.35808
543.60993
1425
1305.815
1034.1101
796.93551
1024.8694
771.4172
576.02196
569.60752
512.8314
518.75202
1512.2785
1546.0886
871.94673
989.19664
729.52136
1115.8889
934.934
689.10845
563.86607
593.42533
619.12819
570.65013
1984.2309
1005.7562
627.38148
585.85203
743.08924
716.72227
624.02684
651.43105
688.63986
708.96915
631.68271
610.28768
994.98475
861.6474
1089.5952
635.15849
720.72109
690.64209
1051.255
743.74496
753.30661
692.31396
706.04624
850.78171
737.16978
697.76436
898.00917
743.47205
725.34202
715.32143
737.26022
731.67975
773.87949
646.85972
430.57288
482.00173
482.71684
431.52436
456.4168
457.40277
587.7617
587.19272
461.45691
461.19057
426.71585
466.96828
454.99594
427.38585
448.75855
448.03468
496.57364
446.92768
418.15053
491.82028
492.18871
452.12523
498.34662
420.78056
585.23149
504.7439
445.73424
557.51046
602.38248
537.96492
458.27944
622.32243
582.12364
579.87864
1116.4195
503.00428
644.36034
647.925
499.77435
465.72087
485.3999
484.99479
467.7009
503.85514
507.50152
500.13373
495.48763
556.9415
558.01495
564.93396
547.83368
1289.3768
716.05178
915.1917
1007.8268
741.81881
1765.2501
1510.6591
1467.3261
1814.7937
549.62159
644.21612
1022.9051
599.46461
978.71631
526.16885
1958.4072
1564.9367
1551.4891
1982.2102
545.08789
603.69144
797.17732
1118.5282
610.081
846.22822
1171.6155
535.17482
2012.9472
1503.1931
1384.8727
1716.9264
597.54936
716.36207
856.05292
604.94307
1069.9235
593.67326
728.06264
986.63704
1303.5257
582.25898
2448.1375
582.81334
1147.9902
1148.1112
688.34964
844.65328
903.48151
1407.5434
674.27552
785.93459
848.75084
1701.555
805.15648
840.03832
1188.8154
848.66198
802.28256
612.43213
1045.6613
1007.2098
743.76815
435.75366
804.13302
778.89349
4468.1619
3782.3205
3467.0542
3369.52
3134.0347
3487.2686
2425.7176
2519.6903
1885.2396
2397.7408
3307.0896
3260.099
2343.4156
2956.5574
4295.9647
6356.767
2752.0749
2863.4003
2269.2844
2179.4824
2460.0394
2495.6072
2099.584
2033.9735
2640.4716
2553.5222
2183.2144
2181.9495
2160.8799
2848.6929
2557.3989
1213.8802
3223.1006
759.65086
1276.718
2023.8344
417.71377
417.71465
418.00354
426.94495
426.06497
496.49089
462.80341
446.08481
446.82959
463.58277
450.91463
438.05661
439.1156
454.94437
511.26822
562.79492
549.93768
513.29093
552.39819
575.98532
578.42863
587.38334
550.2354
468.35246
466.00213
493.58174
490.54652
455.16579
452.73177
468.16121
466.50647
556.56004
528.91415
521.20051
516.5019
602.2234
597.39031
561.99147
576.6479
643.67138
489.1213
521.76701
524.97222
492.55158
468.2225
485.7132
493.48359
474.7918
535.58142
548.73044
553.91017
532.04724
572.67522
598.17626
572.89707
546.77998
645.90667
1063.6822
836.94633
862.5887
1148.1258
590.95987
585.94489
527.13988
527.73101
1486.3558
1361.1586
1034.5874
801.46755
1145.2679
770.12354
562.99204
554.5392
497.45476
510.38154
1380.5047
897.71085
877.1638
744.59724
718.62942
1123.9091
863.73414
696.48013
584.55932
571.50829
536.37214
551.32077
1220.0723
2021.1404
671.51546
711.24288
922.41146
725.90388
918.17489
970.57395
784.25085
701.81732
655.86077
631.86966
628.52047
647.18073
739.67789
635.28943
707.95839
435.69993
483.4287
680.72753
715.82276
425.05661
475.54925
671.07607
726.78743
929.02741
742.23887
738.15802
754.93635
812.08985
865.67041
842.23335
893.65968
725.90218
647.18635
432.3493
485.97931
488.12508
432.46544
457.06785
456.81936
588.02934
588.13848
447.97581
424.79439
456.60037
460.30057
452.40687
426.59018
447.59667
449.76037
496.82395
512.18897
456.76302
419.46778
506.28883
451.63511
499.65148
420.16879
584.3252
498.50382
440.64529
560.52972
548.13504
501.8931
446.55715
578.92144
587.22576
508.38798
616.01994
581.0375
936.68526
507.6246
666.86739
697.47497
512.41739
471.23733
502.1751
493.3728
469.17338
507.60098
520.9884
513.23121
501.94371
581.4206
579.23706
561.42815
558.50385
1342.1611
618.14111
775.30564
771.13269
621.2342
1496.0382
1256.4031
1578.413
1258.8174
594.01681
698.42879
1080.6223
728.75112
1171.7168
580.49678
1927.2561
1549.1088
1553.5612
1859.781
552.20735
619.54413
799.41213
1159.5556
770.61674
609.00245
1216.1601
554.98597
1918.9503
1798.9331
1836.0812
1603.0755
676.81456
676.36218
803.56129
953.48629
1160.4949
666.48538
811.7933
1068.4264
1332.8095
666.29142
1926.4528
2249.8885
1068.5784
1476.2438
714.89292
846.21333
719.62718
1151.3858
702.54337
884.73422
1173.3532
989.7779
821.80406
864.11947
939.85005
780.41377
833.12916
1740.4496
803.73894
917.16554
824.79175
921.47693
1229.8654
442.43087
4373.7161
3419.9756
2890.6197
3384.9921
3481.0873
3268.6806
3025.7148
2802.9076
2766.8402
3157.1435
1493.8562
2188.9518
921.37939
1598.1524
8200.5945
5453.0184
1780.0676
2434.9149
2227.4866
1816.7354
2226.4232
1767.9001
1951.2946
2408.0548
2546.0801
2758.9085
2264.781
2125.1743
3141.1436
3672.607
2592.4799
2312.1179
3401.4788
4654.6832
2884.6296
656.70083
459.24361
417.38754
391.24804
403.56099
414.25688
413.08826
402.10497
423.18247
429.4011
427.37458
419.24648
401.82602
410.87705
409.5959
400.99157
471.94502
481.50259
506.71106
493.37917
494.73087
460.10503
443.94216
445.142
461.42016
441.62682
433.35317
433.86795
445.43286
531.52861
510.07285
513.43718
553.19043
606.18702
598.76121
612.13012
618.01126
542.41589
484.97211
461.69351
487.58514
464.69414
449.49989
445.4839
460.99679
454.86164
518.36569
528.79304
521.89117
533.28465
621.87937
601.23607
584.98628
596.55041
574.33846
491.87844
519.40408
517.2021
489.44943
461.94044
476.16657
484.82648
466.60823
506.57657
517.93507
534.62306
522.13018
614.38055
639.28552
628.37437
587.0785
523.87396
690.60503
802.97714
940.02097
749.31651
523.9556
585.25463
573.76635
530.99992
1126.2717
946.37226
700.13439
1054.1501
728.65347
1451.2394
542.74344
562.00737
506.05595
492.53879
1248.4938
1325.18
819.59855
919.97135
701.22555
942.56076
923.4692
668.35437
567.59244
553.67586
522.10142
530.91339
974.15377
427.94107
667.69194
797.69849
414.74654
716.65425
1176.1125
843.57523
776.70955
679.36524
623.17928
606.39208
630.05628
654.36757
487.34046
552.26795
724.58687
723.91859
1542.4171
724.54914
776.91823
702.34148
735.74687
696.18496
415.57237
288.20735
544.92593
691.20998
654.83397
718.67917
1006.9084
740.6189
722.28729
920.9138
609.60983
433.34236
489.53927
492.61558
434.23533
456.78999
455.88376
588.94597
589.38873
451.11434
425.90024
459.0867
459.37548
449.61945
426.47093
449.15619
448.11919
442.91936
495.88811
417.39772
497.55677
498.32477
448.79169
499.2916
419.44132
563.24117
606.65977
520.92954
447.46831
601.20243
506.64381
444.89527
589.09392
582.29967
497.05545
580.49527
500.28242
592.2708
640.58806
955.67761
489.10359
608.34405
610.05423
491.30239
475.926
531.00538
519.98205
474.74053
504.34665
518.10499
526.56656
510.89833
650.93287
657.25585
622.68435
589.32137
1286.0904
1661.5438
1316.5708
656.77947
847.18014
826.71274
632.19496
1276.7494
1645.3124
507.60797
585.5906
886.25622
606.99503
911.51034
526.57552
1677.6325
1296.8084
1675.63
1308.7819
593.17988
672.22983
903.21274
1222.0104
915.62888
676.9278
1143.4829
568.11787
1621.1706
1382.8921
1589.8589
1789.4857
631.0693
668.33606
760.12647
969.34719
1141.7335
762.08408
965.51592
680.0048
1330.0926
677.44054
2242.1817
1871.1561
2118.2431
1083.435
806.75381
950.01869
799.90272
1691.9982
796.51145
1002.0494
1133.4677
1838.2593
845.50957
841.34591
482.75113
844.90221
983.68775
1209.5076
858.90147
1034.4377
837.92444
1032.758
877.68466
914.13111
4118.0762
2925.0826
2890.8311
3005.3112
3089.6036
2759.7217
2546.451
2980.0718
3154.8791
2888.6663
2724.3169
2257.0446
2196.0384
3139.3499
805.17002
2105.6124
449.81245
1247.0356
2161.9697
1806.3815
1572.833
1652.997
2131.1087
1854.1312
796.7369
1533.9443
1658.4557
1887.3515
2405.449
2700.0494
3112.7717
2591.8824
2054.5299
2574.1301
4522.4788
1952.8133
1382.666
458.79411
416.38351
420.53375
436.29391
437.39634
421.50934
390.76136
402.97124
402.22931
413.26592
413.34416
415.6261
423.1232
423.83668
415.52333
377.31668
386.06861
387.06663
395.45993
394.39816
409.25269
416.52173
411.74246
403.86215
468.70933
482.28857
483.99298
463.42818
458.47041
463.23141
463.28492
455.24452
512.73055
528.62355
585.58304
588.8221
492.3112
456.47218
440.79817
459.0565
443.02188
436.33825
429.60279
433.89839
440.92834
512.9801
498.851
504.69828
516.10045
589.17565
589.79629
592.11668
619.59704
517.23579
463.64454
463.42125
484.44193
484.95304
451.6923
442.43605
453.62691
443.55485
508.08927
496.36138
514.43586
501.18683
608.50075
608.51899
591.19071
609.26825
493.03832
484.97484
507.09121
515.07217
490.64036
469.24321
483.07938
475.07116
463.77493
508.88422
513.23706
515.80676
507.75721
631.69725
644.83358
647.50935
645.0972
457.24701
619.63903
576.70773
564.43787
579.83384
487.18806
518.37023
531.09926
503.60902
839.18259
650.83977
956.38903
1041.8746
875.51064
693.79213
525.46888
587.87767
572.97316
532.38117
741.21211
779.31351
920.14728
670.49122
1116.6842
873.75254
674.62975
1142.1924
549.50092
566.44224
525.91419
520.63116
646.20824
893.98915
490.26034
749.48689
788.58156
691.54979
1111.3965
766.96559
537.78818
661.2328
590.84331
584.21055
605.4154
602.81566
460.85686
629.84863
769.4918
711.93655
718.29641
813.55338
738.09152
669.70739
354.04931
644.99092
725.63409
594.57002
716.60479
752.44415
730.99937
519.54751
365.95544
603.72687
771.09426
1005.016
620.9891
582.54522
454.29346
434.48493
476.8277
478.02081
434.75748
456.02417
588.38535
451.25752
425.7028
459.12271
461.73447
453.50857
427.19312
449.78282
448.07301
495.74866
446.78214
418.26521
497.28826
499.99782
445.6587
495.75594
418.86906
435.11086
501.51642
599.08299
608.74383
590.44543
506.56224
440.97101
591.16298
595.9846
509.30501
590.02043
500.25577
594.67096
589.16924
878.88612
486.88213
616.91419
618.27814
489.56417
464.148
486.63887
493.78678
468.37644
500.69731
538.37488
524.05807
503.86507
641.34699
615.70453
666.04087
657.3996
936.27218
847.38039
686.81786
1224.9356
1272.7025
1603.7077
1559.9925
862.29488
703.42469
1789.5232
1300.2363
965.6283
531.35698
645.4038
601.83594
928.16492
508.25272
1260.7164
1753.2083
560.46914
604.24356
739.88627
991.52354
780.64247
620.52687
1030.3655
564.4056
2056.0006
1360.2904
1563.2153
1095.5622
629.18384
673.32843
868.20433
1000.5376
1571.6583
844.31948
976.39954
660.20278
909.41852
602.89229
1116.7095
1067.2138
1799.6997
2015.0815
781.91599
906.24668
1052.9242
883.17243
788.15846
947.56027
980.70954
1252.9684
941.95456
860.9566
558.34134
949.15528
1110.4334
838.87529
892.99616
848.42113
892.91379
1611.4646
1005.1064
855.83233
3457.1964
1010.2212
2597.2763
2436.0245
2484.0246
2341.9491
2447.5751
2552.5217
2680.0787
2374.9176
2036.4395
2789.6294
3298.5233
2469.9841
4481.7656
2129.0952
1772.5856
3336.0752
1801.2854
800.27947
787.13435
765.22966
1631.5145
980.34696
1954.3232
1975.0275
752.44685
791.25755
478.20875
866.21974
846.44522
1442.2304
1615.5645
1480.8238
2716.27
4536.2017
2319.2167
1530.7516
1502.1265
457.37145
433.53973
417.99066
415.92995
419.67826
435.50146
390.11964
413.29258
412.12476
402.44971
402.65631
414.21066
420.87882
424.93328
418.29258
377.28896
395.19841
387.13443
386.20675
394.56276
400.79043
401.44704
409.24201
408.58814
465.33839
484.73162
481.45601
466.21282
373.57564
380.03683
379.19143
372.64773
386.35088
389.99039
398.45634
394.8076
467.55495
468.49969
450.72768
447.08599
515.57552
556.13929
551.18609
504.92128
537.74851
508.95646
508.77931
495.61563
485.09028
442.64924
442.14429
457.97802
458.0594
433.0519
425.92157
435.46238
429.25819
486.6915
477.93827
484.52222
495.29362
589.09135
568.76259
559.2338
589.18786
466.82983
464.23175
462.96843
479.77991
477.74497
445.25101
443.64731
452.70961
456.22387
503.66821
497.03611
503.55284
498.18035
575.5204
556.68405
617.45259
584.41776
440.01608
463.54954
477.00067
489.39938
473.98126
477.84374
496.8063
502.09898
484.37693
515.95829
520.88865
515.13187
509.81252
632.01789
628.47575
615.16441
627.76389
428.35761
488.63513
509.3058
517.08123
492.97597
465.77847
446.41758
481.59542
461.51465
760.06212
643.03345
625.72457
561.45039
658.10172
564.38696
479.97107
500.26967
513.98167
496.81916
787.34689
1084.698
632.3872
1096.701
951.7977
973.17092
825.97983
672.63355
529.33813
575.03557
565.35897
532.12609
441.01626
648.32981
736.33448
1247.2843
668.24259
1366.4312
853.80435
768.0691
662.30956
591.1963
591.76581
596.65524
587.11307
601.57114
490.96091
741.75986
772.21449
679.86826
851.95545
826.35276
737.77611
661.01873
543.2198
592.11071
740.60671
1027.1035
724.81632
724.69083
566.77693
682.31378
797.77274
698.41615
592.94872
416.85176
609.70155
431.42389
474.41032
476.66774
433.93801
586.18786
453.34805
454.35519
587.03868
426.8756
446.90524
450.3491
455.21579
458.41727
452.09556
427.3924
449.61024
486.61841
447.65784
418.06541
496.37517
499.28447
450.04877
496.1672
419.48605
440.27702
439.20705
610.43917
502.79666
437.70457
633.03172
628.54197
438.23112
504.24905
614.72861
496.49156
586.37615
576.96933
497.46039
589.9262
582.83446
496.16222
760.276
617.63981
623.30902
496.35163
464.37694
488.79458
484.32052
461.90982
503.10288
522.60064
521.31315
501.34878
593.05305
588.53617
580.37117
597.98945
582.76621
555.46452
580.79773
647.91928
682.35137
1261.8054
1039.1711
1100.8858
936.83324
626.00838
935.52
532.12765
1146.3297
1237.2783
954.47639
1723.908
1597.5704
634.47642
547.10039
1867.5317
1270.0723
969.48606
763.49437
571.56138
624.33716
727.95353
618.63192
970.19964
579.70452
1166.5717
2032.0134
683.52901
671.74114
743.38288
851.74506
1005.769
789.64277
866.87252
661.02142
941.8899
642.08958
4213.9755
1268.096
1832.5614
836.0903
831.31753
946.7398
1132.8804
2391.7977
797.00985
912.35214
1055.671
636.81598
921.40068
1017.3028
1513.2207
958.46515
1044.5713
1512.2482
904.95092
533.22703
1113.2446
788.34998
1079.2391
1660.2227