/*--------------------------------*- C++ -*----------------------------------*\
  =========                 |
  \\      /  F ield         | OpenFOAM: The Open Source CFD Toolbox
   \\    /   O peration     | Website:  https://openfoam.org
    \\  /    A nd           | Version:  7
     \\/     M anipulation  |
\*---------------------------------------------------------------------------*/
FoamFile
{
    version     2.0;
    format      ascii;
    class       volScalarField;
    location    "10000";
    object      p;
}
// * * * * * * * * * * * * * * * * * * * * * * * * * * * * * * * * * * * * * //

dimensions      [0 2 -2 0 0 0 0];

internalField   nonuniform List<scalar> 
33730
(
-7.6002541e+117
-7.6710619e+117
-7.1730164e+117
-7.5969594e+117
-8.0798353e+117
-7.9764497e+117
-7.8596426e+117
-7.6402445e+117
-7.4385827e+117
-7.4496558e+117
-7.6498914e+117
-7.5667541e+117
-7.5987358e+117
-7.2186616e+117
-8.1592158e+117
-7.9964236e+117
-7.8098149e+117
-7.675341e+117
-8.0674355e+117
-7.1795924e+117
-7.0394346e+117
-7.0449849e+117
-7.2477499e+117
-7.2447729e+117
-7.531531e+117
-7.7565083e+117
-7.4224587e+117
-7.62229e+117
-7.7603105e+117
-8.2680464e+117
-7.5117932e+117
-7.5266817e+117
-7.4334337e+117
-7.6744298e+117
-7.6432362e+117
-7.6123829e+117
-7.6974865e+117
-6.7280901e+117
-7.5541341e+117
-7.4284458e+117
-7.4522751e+117
-7.677077e+117
-7.5809884e+117
-7.4980123e+117
-7.242285e+117
-7.6655342e+117
-7.5374081e+117
-7.9489123e+117
-7.460956e+117
-7.9816758e+117
-7.2296792e+117
-8.0539849e+117
-7.1238021e+117
-8.1553222e+117
-6.9280771e+117
-7.2744542e+117
-7.5428422e+117
-7.520654e+117
-7.5177399e+117
-7.8990631e+117
-7.1594239e+117
-7.0391132e+117
-7.0449621e+117
-7.2478276e+117
-7.2394186e+117
-7.0443701e+117
-7.0469187e+117
-7.2449196e+117
-7.2452603e+117
-7.4370025e+117
-7.8775991e+117
-7.4127527e+117
-7.3846534e+117
-7.6861218e+117
-7.6936253e+117
-7.766144e+117
-7.4911813e+117
-7.5082493e+117
-6.8511508e+117
-7.4194777e+117
-7.0046686e+117
-7.4167705e+117
-7.3192092e+117
-7.4390512e+117
-7.8204843e+117
-7.484294e+117
-7.5653385e+117
-7.4319554e+117
-1.3833515e+117
-7.3569815e+117
-1.9763988e+117
-7.3644495e+117
-7.8699452e+117
-7.0028452e+117
-1.871661e+117
-7.5917148e+117
-7.4376747e+117
-7.4663267e+117
-7.6921964e+117
-7.5934394e+117
-7.2442477e+117
-7.3356883e+117
-7.3735199e+117
-7.3912046e+117
-7.5110395e+117
-7.4365482e+117
-7.2655806e+117
-7.0674442e+117
-7.3750501e+117
-7.2670977e+117
-7.2148836e+117
-6.3356152e+117
-6.7625065e+117
-7.1646757e+117
-9.4044341e+117
-7.2226268e+117
-7.4401568e+117
-7.1954623e+117
-7.3796237e+117
-7.7163813e+117
-7.1953449e+117
-1.7511344e+117
-6.9462632e+117
-1.5668831e+117
-5.8432983e+117
-6.5215495e+117
-6.3072048e+117
-7.8838211e+117
-6.902729e+117
-7.5007016e+117
-7.4882734e+117
-7.3821302e+117
-7.5960519e+117
-1.7552711e+117
-7.1090122e+117
-7.0124614e+117
-7.2121819e+117
-7.2333008e+117
-7.0301243e+117
-7.0364115e+117
-7.0420838e+117
-7.2420508e+117
-7.2380793e+117
-7.052849e+117
-7.0528572e+117
-7.2538834e+117
-7.2561023e+117
-7.2954002e+117
-7.5763523e+117
-7.4197239e+117
-7.3643178e+117
-7.3489815e+117
-7.4625304e+117
-7.5087183e+117
-7.638833e+117
-7.4774184e+117
-7.358594e+117
-7.4008967e+117
-7.3702071e+117
-6.9541277e+117
-7.3825972e+117
-6.9219924e+117
-7.2657853e+117
-7.4846631e+117
-7.4540991e+117
-7.460182e+117
-5.5445676e+117
-7.4241107e+117
-6.9123556e+117
-1.7049783e+117
-7.3050643e+117
-6.3596312e+117
-1.5487983e+117
-7.5754685e+117
-7.4630116e+116
-7.4813255e+117
-7.5820073e+117
-7.4414008e+117
-2.3700028e+116
-7.3705585e+117
-6.0875511e+116
-8.8829581e+117
-7.7443731e+117
-7.9003346e+117
-6.7105347e+117
-7.2296715e+117
-7.5533989e+116
-7.6048841e+117
-7.4388123e+117
-7.4678815e+117
-7.6937369e+117
-7.5948152e+117
-4.2752309e+116
-7.2006339e+117
-7.3121479e+117
-7.1581003e+117
-7.2838636e+117
-7.1595446e+117
-7.2322981e+117
-7.228027e+117
-7.1330194e+117
-7.1101876e+117
-7.2737182e+117
-7.0918645e+117
-6.9592952e+117
-6.6907237e+117
-6.8566819e+117
-7.2915901e+117
-7.1739629e+117
-7.4311968e+117
-7.4071093e+117
-7.3739596e+117
-7.3912976e+117
-6.1197302e+117
-5.8789647e+117
-6.3689175e+117
-6.7358812e+117
-7.1715556e+117
-8.6800287e+116
-6.2790299e+117
-6.0130422e+117
-6.1978311e+117
-7.888971e+117
-7.0562287e+117
-7.395842e+117
-6.6674008e+117
-7.1506943e+117
-7.476776e+117
-7.0736547e+117
-7.2786768e+117
-1.7108593e+117
-7.1548868e+117
-3.8483878e+116
-1.2986926e+117
-5.2534153e+116
-7.3403938e+117
-6.4976882e+117
-7.8271507e+117
-5.9596038e+117
-7.0057874e+117
-1.4491892e+117
-7.4856026e+117
-7.3916825e+117
-7.3358462e+117
-7.5264456e+117
-7.4769748e+117
-6.9596677e+117
-6.8859246e+117
-3.9350366e+116
-6.7344649e+117
-7.0403171e+117
-6.9756787e+117
-7.1780611e+117
-7.1912856e+117
-6.9927553e+117
-7.011267e+117
-7.2104766e+117
-7.2337281e+117
-7.0291307e+117
-7.0411789e+117
-7.0463862e+117
-7.250189e+117
-7.2450248e+117
-7.0536614e+117
-7.0535487e+117
-7.2548678e+117
-7.2572587e+117
-7.3427793e+117
-7.3320095e+117
-7.4493209e+117
-7.3911374e+117
-7.0788844e+117
-7.2957195e+117
-7.2432599e+117
-7.2861812e+117
-7.3536784e+117
-6.9721015e+117
-6.9123915e+117
-7.3524102e+117
-7.3456084e+117
-7.4796433e+117
-7.3985597e+117
-7.4894862e+117
-7.5450252e+117
-7.2547508e+117
-7.3070209e+117
-1.5938538e+117
-7.4090091e+117
-7.37695e+117
-6.3438568e+117
-1.3377865e+117
-7.3215426e+117
-1.2232173e+117
-1.7596671e+117
-6.9556898e+117
-7.368083e+117
-7.5136082e+117
-7.4706799e+117
-5.4413445e+117
-7.4246522e+117
-6.7634411e+117
-6.9475335e+117
-5.6065929e+116
-7.2348269e+117
-7.2214931e+117
-1.0522718e+117
-3.7225512e+116
-7.6231683e+117
1.0793152e+116
-7.4811169e+117
-7.5834326e+117
-7.4424579e+117
-9.1630719e+117
-1.9784086e+117
-7.6488177e+117
-7.9027041e+117
-6.6946053e+117
-6.6771593e+117
-7.111383e+117
-7.606013e+117
-1.6716632e+117
-4.364296e+116
-1.3642311e+117
-6.9320724e+117
-7.1505185e+117
-7.1236663e+117
-7.2201043e+117
-7.2627953e+117
-7.1494337e+117
-7.2928484e+117
-7.1517358e+117
-7.2623913e+117
-7.1522684e+117
-7.4534611e+117
-7.1628559e+117
-6.9566922e+117
-6.9116524e+117
-7.1584244e+117
-6.158705e+117
-6.6483173e+117
-6.9603633e+117
-6.8219049e+117
-7.1300626e+117
-6.9089443e+117
-7.220158e+117
-6.9797729e+117
-6.798701e+117
-7.1924773e+117
-5.8633841e+117
-6.0961705e+117
-5.2605576e+117
-5.7097863e+117
-7.2847853e+117
-6.6711784e+117
-7.149375e+117
-6.4355325e+117
-7.3987977e+117
-7.2097221e+117
-7.1002307e+117
-7.3923257e+117
-1.1473696e+117
-5.2570446e+117
-1.5991342e+117
-1.0001531e+118
-7.1542437e+117
-2.8112997e+116
-7.2393571e+117
-5.9528645e+117
-1.2644159e+117
-3.4915408e+117
-7.1195453e+117
-1.7542431e+117
-6.8556745e+117
-6.2318099e+117
-7.4440693e+117
-7.2913692e+117
-7.2873525e+117
-7.3680489e+117
-7.3379335e+117
-6.8545766e+117
-7.0373764e+117
-3.9516098e+116
-7.1139525e+117
-2.8927857e+116
-7.5219657e+117
-3.6615752e+117
-5.9559013e+117
-6.1302505e+117
-3.9962042e+116
-7.4341581e+117
-7.3638812e+117
-7.7264776e+117
-7.6570759e+117
-7.4206722e+117
-6.8113699e+117
-6.5822647e+117
-7.0268055e+117
-6.7629235e+117
-7.3816733e+117
-1.6896067e+117
-6.7179862e+117
-6.5819454e+117
-6.5910809e+117
-6.8001665e+117
-6.7862296e+117
-7.05873e+117
-6.9489734e+117
-7.1274871e+117
-7.1533673e+117
-6.9578473e+117
-6.9746312e+117
-7.1726121e+117
-7.1852635e+117
-6.9910773e+117
-7.0159762e+117
-7.2173771e+117
-7.2373467e+117
-7.0345221e+117
-7.0418274e+117
-7.046932e+117
-7.2510934e+117
-7.2458026e+117
-7.2941659e+117
-7.1438637e+117
-7.2102431e+117
-7.2761441e+117
-7.2568479e+117
-7.1040704e+117
-6.9857742e+117
-7.2978428e+117
-7.3078869e+117
-7.349723e+117
-7.1093045e+117
-7.595611e+117
-7.324764e+117
-7.8469518e+117
-7.3010015e+117
-7.3107708e+117
-7.2566415e+117
-7.3364854e+117
-7.4075009e+117
-1.671551e+117
-4.7532787e+117
-7.3580479e+117
-7.350002e+117
-7.5095042e+117
-7.5131834e+117
-7.0411328e+117
-7.3634747e+117
-7.5401989e+117
-7.1659111e+117
-1.5434236e+117
-2.228776e+117
-3.5298895e+116
-7.4097496e+117
-7.3777813e+117
-1.4109709e+117
-6.8687556e+117
-2.7977104e+116
-7.4541601e+117
-2.6730022e+116
-5.4217277e+116
-6.1282681e+117
-7.0801737e+117
-7.2673871e+117
-7.519956e+117
-7.4725943e+117
-6.7425471e+117
-7.873539e+117
-6.4232679e+117
-7.2298123e+117
-6.9554759e+117
-1.9383393e+117
-3.2239837e+116
-7.6279968e+117
-5.0242586e+116
-1.7294397e+117
-7.6357446e+117
-6.6141446e+117
-3.4071288e+117
-7.0997982e+117
-2.7535123e+117
-2.7564973e+117
-4.6946023e+116
-6.888414e+117
-6.9782758e+117
-6.7826215e+117
-6.9677214e+117
-6.796715e+117
-7.1365513e+117
-7.0361458e+117
-7.1373089e+117
-7.1652833e+117
-7.072828e+117
-7.1010068e+117
-7.1667011e+117
-7.223552e+117
-7.1440215e+117
-7.2983847e+117
-7.1495381e+117
-7.2605644e+117
-7.1557086e+117
-7.44584e+117
-7.3083536e+117
-7.3980218e+117
-7.2573711e+117
-7.2471831e+117
-7.8329354e+117
-7.4407953e+117
-7.9900776e+117
-8.207401e+117
-7.1157902e+117
-6.9080245e+117
-6.4627013e+117
-6.7904305e+117
-6.3065471e+117
-7.0904196e+117
-3.7570517e+117
-5.36028e+117
-6.2046293e+117
-5.8940641e+117
-7.1210073e+117
-6.3856943e+117
-6.8886972e+117
-7.1695384e+117
-6.9665708e+117
-6.3720649e+117
-5.3678486e+117
-7.1815539e+117
-1.1253468e+117
-5.9654268e+117
-4.7748829e+117
-5.0212977e+117
-7.2841626e+117
-6.5620529e+117
-5.2311129e+117
-7.1469077e+117
-1.6944553e+117
-7.3980454e+117
-7.2160729e+117
-6.6937912e+117
-9.2307041e+117
-7.3924747e+117
-3.3787221e+116
-5.2120509e+117
-5.8291983e+116
-1.0507532e+118
-7.1161199e+117
-7.3779011e+117
-3.9458584e+116
-7.2249015e+117
-5.6694202e+116
-6.9512423e+117
-6.2025925e+117
-7.4160471e+117
-7.5730396e+117
-7.3312012e+117
-7.2943394e+117
-7.5100929e+117
-6.2134007e+117
-6.2196127e+117
-6.869872e+117
-6.7315433e+117
-8.6053205e+117
-1.1461417e+118
-7.0829595e+117
-1.5053403e+117
-6.0737347e+117
-7.3600891e+117
-7.5203801e+117
-7.7254652e+117
-7.2893709e+117
-7.2234566e+117
-6.8797484e+117
-7.4449764e+117
-7.5567223e+117
-6.7023067e+117
-6.9267569e+117
-9.4626136e+117
-2.1019614e+117
-5.5381702e+117
-7.439673e+117
-6.0084047e+116
-6.2974668e+117
-6.6955175e+117
-6.5755559e+117
-6.5703513e+117
-6.7761714e+117
-6.7700147e+117
-6.5763358e+117
-6.5867948e+117
-6.78874e+117
-6.7747092e+117
-6.9977328e+117
-6.9479688e+117
-7.136111e+117
-7.1425818e+117
-6.9563964e+117
-6.9505493e+117
-7.1376009e+117
-7.1534348e+117
-6.9578213e+117
-6.9783542e+117
-7.1769614e+117
-7.1915246e+117
-6.9959398e+117
-7.0166385e+117
-7.2182003e+117
-7.2379569e+117
-7.0352472e+117
-7.2010725e+117
-7.252598e+117
-7.2522409e+117
-7.2321487e+117
-7.8880705e+117
-7.169288e+117
-7.414094e+117
-7.3884286e+117
-7.3988391e+117
-7.1465079e+117
-7.2320947e+117
-6.9701163e+117
-7.2451103e+117
-7.2418589e+117
-6.6391799e+117
-6.6114866e+117
-7.1021448e+117
-7.2474632e+117
-7.2684925e+117
-8.6418002e+117
-7.2033908e+117
-7.3610176e+117
-9.2302624e+117
-7.4083573e+117
-1.7432918e+118
-7.4613875e+117
-7.3619855e+117
-7.3088435e+117
-7.2498049e+117
-7.3111998e+117
-7.4099975e+117
-5.565627e+116
-4.5969304e+117
-7.3589076e+117
-7.3507746e+117
-7.040012e+117
-7.9905395e+117
-7.5164942e+117
-6.8730402e+117
-6.8157951e+117
-7.6894182e+117
-7.5451511e+117
-1.6596781e+117
-3.3469557e+116
-8.0064682e+116
-5.8005247e+116
-6.7377334e+117
-6.497137e+117
-7.4684498e+117
-6.0761299e+117
-7.3278679e+117
-6.9587121e+117
-7.2585191e+117
-7.9774092e+117
-2.8556881e+117
-6.4027263e+117
-6.9309696e+117
-1.3391918e+117
-5.3933398e+116
-1.287214e+117
-7.72652e+116
-1.1656842e+117
-6.8514156e+117
-6.7444375e+117
-6.9057061e+117
-6.9348863e+117
-6.7645814e+117
-6.5926528e+117
-6.6113258e+117
-6.6642276e+117
-6.6468934e+117
-6.9795098e+117
-6.7706285e+117
-6.9506758e+117
-6.7917977e+117
-7.1039166e+117
-7.0193376e+117
-7.1679481e+117
-7.1493311e+117
-7.024655e+117
-7.0182819e+117
-7.109338e+117
-7.1269765e+117
-7.0525249e+117
-7.0993603e+117
-7.1638975e+117
-7.2175944e+117
-7.1353693e+117
-7.2990168e+117
-7.1495382e+117
-7.2606025e+117
-7.1561793e+117
-7.4152179e+117
-7.3389071e+117
-7.4603884e+117
-7.4830492e+117
-7.3278024e+117
-7.4411126e+117
-7.2713167e+117
-7.0581378e+117
-7.522418e+117
-7.2869426e+117
-7.4322231e+117
-7.2780453e+117
-7.250209e+117
-7.141877e+117
-7.2128636e+117
-7.030281e+117
-6.5421004e+117
-7.0879684e+117
-7.6565998e+117
-7.1096124e+117
-6.3725022e+117
-6.9011165e+117
-5.6453091e+117
-6.7743454e+117
-6.1024947e+117
-4.8300369e+117
-7.0794788e+117
-5.7343987e+116
-4.656454e+117
-5.9392137e+117
-5.4618023e+117
-7.1200689e+117
-6.3413237e+117
-4.6356632e+117
-6.886253e+117
-1.0366004e+118
-6.9647764e+117
-6.3211852e+117
-4.8684068e+117
-3.3532794e+117
-7.1805267e+117
-2.2638406e+116
-5.9572889e+117
-4.7205681e+117
-4.9649318e+117
-6.5523819e+117
-5.1397368e+117
-1.0317077e+117
-5.2965834e+116
-7.2114789e+117
-5.8383202e+117
-1.9330147e+117
-9.5312799e+117
-7.0761155e+117
-7.241445e+117
-6.9582363e+117
-7.5029333e+117
-7.337583e+117
-7.4873799e+117
-7.4886417e+117
-7.3360085e+117
-7.3319346e+117
-6.8518508e+117
-6.3431388e+117
-7.186345e+117
-5.8795964e+117
-6.7653512e+117
-7.0207616e+117
-6.4502461e+117
-8.8453614e+117
-1.2112772e+118
-7.0134043e+117
-7.2879462e+117
-7.3868993e+117
-7.587276e+117
-7.2999883e+117
-7.3011017e+117
-7.0879665e+117
-7.2768874e+117
-6.6406059e+117
-6.6403342e+117
-7.3541713e+117
-1.5983441e+117
-2.0486001e+117
-6.5421546e+117
-6.9514849e+117
-9.9001069e+117
-7.1317731e+116
-5.4434367e+117
-6.2772148e+117
-6.3732079e+117
-6.1555378e+117
-6.3757053e+117
-6.1587608e+117
-6.6449669e+117
-6.5593168e+117
-6.542115e+117
-6.7623599e+117
-6.7513508e+117
-6.5668182e+117
-6.5599763e+117
-6.761451e+117
-6.7484697e+117
-6.5769731e+117
-6.5874924e+117
-6.7911346e+117
-6.7760062e+117
-6.8999177e+117
-6.8829648e+117
-7.0689279e+117
-7.1060467e+117
-6.9135898e+117
-6.9459901e+117
-7.1368456e+117
-7.1374449e+117
-6.9533756e+117
-6.9525522e+117
-7.1383259e+117
-7.1556004e+117
-6.9602347e+117
-6.9789266e+117
-7.1777076e+117
-7.1923403e+117
-6.9966029e+117
-7.1070384e+117
-7.222932e+117
-7.0872488e+117
-7.1382495e+117
-7.19391e+117
-7.2930517e+117
-7.2348951e+117
-7.1483981e+117
-7.3225233e+117
-6.7496621e+117
-7.2553312e+117
-7.2187967e+117
-7.6701806e+117
-7.3084636e+117
-6.464735e+117
-7.4708859e+117
-7.0216542e+117
-7.3839058e+117
-7.3391971e+117
-7.1221003e+117
-8.3237605e+117
-7.2309158e+117
-6.8909913e+117
-7.2438449e+117
-7.2417629e+117
-1.5066495e+117
-7.1696828e+117
-6.7327389e+117
-7.0650837e+117
-7.2195242e+117
-7.2559689e+117
-8.8167939e+117
-7.2194765e+117
-7.7214707e+117
-7.0697955e+117
-9.4329936e+117
-7.5446795e+117
-1.8507044e+118
-8.312809e+117
-7.1023311e+117
-7.370276e+117
-7.3090898e+117
-7.2497593e+117
-7.3099477e+117
-7.4106186e+117
-1.6832463e+117
-6.8683275e+117
-8.0381426e+117
-6.8648371e+117
-7.4391955e+117
-6.5894273e+117
-7.7351357e+117
-3.5878241e+116
-6.7311084e+117
-6.7901988e+117
-6.440597e+117
-7.3592189e+117
-7.4237994e+117
-6.9479654e+117
-1.7261998e+117
-2.4905941e+117
-7.506681e+117
-6.8151025e+117
-6.7064137e+117
-6.8741276e+117
-6.8896612e+117
-6.7271367e+117
-6.5772412e+117
-6.5605701e+117
-6.6314188e+117
-6.6152605e+117
-6.7325207e+117
-6.5678057e+117
-6.8826336e+117
-6.9163619e+117
-6.755043e+117
-6.583625e+117
-6.9756949e+117
-6.7714412e+117
-6.9510859e+117
-6.7912066e+117
-7.0720215e+117
-7.1703038e+117
-7.0022564e+117
-7.1729468e+117
-7.0111181e+117
-7.0055275e+117
-7.1497579e+117
-7.1266406e+117
-7.0071131e+117
-7.0192534e+117
-7.1099989e+117
-7.1256104e+117
-7.0531574e+117
-7.0994521e+117
-7.1638077e+117
-7.2174067e+117
-7.1350333e+117
-7.4384282e+117
-7.3335816e+117
-7.5432775e+117
-7.4934558e+117
-7.3300791e+117
-6.8792895e+117
-7.3530515e+117
-7.3706059e+117
-7.236159e+117
-7.3210254e+117
-7.4087666e+117
-7.3881417e+117
-7.4732827e+117
-7.5581384e+117
-7.3185989e+117
-6.9942074e+117
-6.7212213e+117
-6.0029158e+117
-7.1367686e+117
-7.293531e+117
-7.4440064e+117
-7.3137197e+117
-6.8561546e+117
-7.2572895e+117
-7.0466596e+117
-6.5273585e+117
-7.2164718e+117
-1.2335706e+117
-4.594204e+117
-2.809961e+117
-2.1908087e+117
-7.1089087e+117
-6.4278573e+117
-5.6182485e+117
-6.8995299e+117
-5.4929908e+117
-6.7718456e+117
-6.0927923e+117
-4.9600092e+117
-3.6079967e+117
-7.0783393e+117
-2.3833612e+116
-4.6044291e+117
-5.9171899e+117
-5.4145085e+117
-6.3352274e+117
-4.9988228e+117
-4.7100938e+117
-5.7039972e+117
-6.3196602e+117
-4.7505877e+117
-4.3650115e+117
-3.19766e+117
-5.1309495e+117
-3.3624671e+117
-3.8554742e+116
-5.7661578e+117
-3.2837463e+117
-6.3182679e+116
-7.0470184e+117
-7.308959e+117
-6.8989753e+117
-7.5286602e+117
-7.3742856e+117
-7.2206209e+117
-6.9892316e+117
-7.1369206e+117
-7.0734467e+117
-6.9032397e+117
-2.0214267e+117
-6.6489392e+117
-1.1655623e+117
-1.3882914e+117
-5.8539697e+117
-6.8647194e+117
-7.0428876e+117
-6.4251065e+117
-6.9353758e+117
-7.1519731e+117
-7.0907163e+117
-7.1224472e+117
-7.2979483e+117
-7.3701424e+117
-7.0638272e+117
-7.3803025e+117
-6.9552663e+117
-7.0718388e+117
-1.6646918e+117
-1.5990768e+117
-9.2593911e+117
-6.3197776e+117
-7.4502846e+117
-3.618871e+116
-5.8988343e+116
-6.5414562e+117
-6.2391695e+117
-6.130195e+117
-6.1451708e+117
-6.3608162e+117
-6.3425235e+117
-6.3679302e+117
-6.1579717e+117
-6.3667942e+117
-6.1573971e+117
-6.5701136e+117
-6.5190919e+117
-6.4905618e+117
-6.7241991e+117
-6.6958688e+117
-6.5565949e+117
-6.5421991e+117
-6.7454821e+117
-6.7381966e+117
-6.5671657e+117
-6.560749e+117
-6.7616219e+117
-6.7502755e+117
-6.5770966e+117
-6.5875978e+117
-6.7914586e+117
-6.7762783e+117
-6.8002173e+117
-6.7936826e+117
-6.9952132e+117
-7.049595e+117
-6.854852e+117
-6.8841383e+117
-7.0669197e+117
-7.1054278e+117
-6.9201298e+117
-6.9540497e+117
-7.1516611e+117
-7.1434163e+117
-6.9543954e+117
-6.9530399e+117
-7.1387501e+117
-7.1561745e+117
-6.9607308e+117
-6.8816726e+117
-6.9586087e+117
-7.0039911e+117
-7.0829767e+117
-7.0752925e+117
-6.985718e+117
-7.096614e+117
-7.1590245e+117
-7.0577304e+117
-6.9365605e+117
-6.7768184e+117
-7.1468153e+117
-7.1951999e+117
-7.2464709e+117
-7.2264284e+117
-7.2032979e+117
-7.1626966e+117
-6.6423706e+117
-6.8461152e+117
-6.2946819e+117
-7.2568408e+117
-7.2041403e+117
-2.3468957e+117
-6.4104298e+117
-6.9104754e+117
-6.7622602e+117
-5.017289e+117
-7.3241864e+117
-1.8531653e+117
-7.354393e+117
-7.2128913e+117
-7.1798636e+117
-7.0277873e+117
-8.4856252e+117
-7.2399725e+117
-6.890026e+117
-7.244039e+117
-7.2416019e+117
-4.1627093e+116
-7.24931e+117
-6.7405e+117
-6.6190673e+117
-6.9842009e+117
-7.2162695e+117
-7.2550142e+117
-7.7608042e+117
-6.5655307e+117
-6.8621455e+117
-7.5573234e+117
-8.4074454e+117
-7.0136894e+117
-7.0428735e+117
-7.3681011e+117
-5.0446466e+116
-9.4204678e+116
-6.8534624e+117
-7.5590397e+117
-2.4682855e+117
-6.5776201e+117
-6.814587e+117
-6.8358562e+117
-7.479074e+117
-7.4400056e+117
-6.8588521e+117
-6.7834804e+117
-6.6712244e+117
-6.8462248e+117
-6.8610509e+117
-6.6871636e+117
-6.5438821e+117
-6.5274885e+117
-6.5990383e+117
-6.5826397e+117
-6.6873988e+117
-6.5309348e+117
-6.8507904e+117
-6.8663743e+117
-6.7112309e+117
-6.5510215e+117
-6.3595254e+117
-6.3435108e+117
-6.7314745e+117
-6.5629856e+117
-6.8832014e+117
-6.9171637e+117
-6.7560618e+117
-6.5768823e+117
-6.975737e+117
-6.771464e+117
-6.9512711e+117
-6.7912794e+117
-7.0392752e+117
-6.9771354e+117
-7.1563399e+117
-7.1619415e+117
-6.9899031e+117
-7.1617116e+117
-6.9990834e+117
-7.1676072e+117
-7.0037126e+117
-7.0070819e+117
-7.1534342e+117
-7.1301893e+117
-7.0084886e+117
-7.0195284e+117
-7.1101358e+117
-7.1255297e+117
-7.0533667e+117
-7.3570322e+117
-7.3427884e+117
-7.6001285e+117
-7.5425142e+117
-7.3314212e+117
-7.2380882e+117
-7.6237004e+117
-7.5532865e+117
-7.4135767e+117
-7.3302759e+117
-7.4749743e+117
-7.764318e+117
-7.4178632e+117
-7.3181151e+117
-7.3198503e+117
-4.5912125e+117
-6.9458396e+117
-6.5121712e+117
-6.6266899e+117
-7.3256942e+117
-7.2178165e+117
-7.4145853e+117
-6.7183589e+117
-7.4843958e+117
-7.520798e+117
-7.1442408e+117
-7.3273288e+117
-1.554038e+117
-6.6074882e+117
-5.6487857e+117
-1.9103237e+117
-7.2943024e+117
-7.4452102e+117
-7.5304958e+117
-6.6371135e+117
-7.2594199e+117
-7.2578001e+117
-7.2602405e+117
-6.428336e+117
-5.6807992e+117
-7.2169422e+117
-1.8656404e+116
-4.4563564e+117
-1.1711826e+117
-7.8112394e+116
-6.4315985e+117
-5.2989943e+117
-5.4299318e+117
-5.4852817e+117
-6.0905696e+117
-5.0121018e+117
-4.8960148e+117
-3.5283388e+117
-5.0282826e+117
-6.6914667e+117
-4.7432996e+117
-4.7343661e+117
-1.2807244e+117
-4.3370676e+117
-3.5153383e+117
-3.1723336e+117
-3.3612989e+117
-3.0279589e+117
-6.9578349e+117
-7.1666093e+117
-7.3644631e+117
-7.329768e+117
-7.1375137e+117
-7.2575624e+117
-4.6764819e+117
-6.7447225e+117
-6.6954258e+117
-6.2798193e+117
-6.8018821e+117
-1.8862595e+117
-6.4790103e+117
-6.6152181e+117
-6.5508438e+116
-6.6412751e+117
-3.4248657e+116
-2.0751306e+116
-6.85224e+117
-6.949774e+117
-7.0357988e+117
-6.6505692e+117
-6.9411252e+117
-7.0527741e+117
-6.5706788e+117
-6.8426924e+117
-7.0825061e+117
-7.0405258e+117
-7.4308158e+117
-2.6913875e+117
-6.2246944e+117
-7.0698241e+117
-4.3393651e+116
-4.5931074e+116
-9.6861813e+117
-6.292924e+117
-6.0864403e+117
-6.2952643e+117
-6.3243819e+117
-6.113433e+117
-6.1289516e+117
-6.1495114e+117
-6.3620325e+117
-6.339974e+117
-6.3672457e+117
-6.1586842e+117
-6.3676659e+117
-6.1589442e+117
-6.4897009e+117
-6.4527728e+117
-6.4111165e+117
-6.6618062e+117
-6.6066189e+117
-6.5046502e+117
-6.4835013e+117
-6.7048075e+117
-6.6845636e+117
-6.5556884e+117
-6.5403596e+117
-6.7428605e+117
-6.7311481e+117
-6.567292e+117
-6.5608837e+117
-6.7618463e+117
-6.7505937e+117
-6.6881615e+117
-6.6754318e+117
-6.8473841e+117
-6.9186512e+117
-6.7360091e+117
-6.7990257e+117
-7.0062237e+117
-7.0605799e+117
-6.8627051e+117
-6.8819782e+117
-7.0738913e+117
-7.1153559e+117
-6.9210404e+117
-6.9549377e+117
-7.1528296e+117
-7.1440002e+117
-6.9547062e+117
-6.7581689e+117
-6.8123889e+117
-6.8880197e+117
-6.9109884e+117
-6.7624297e+117
-6.9417223e+117
-6.7990752e+117
-6.7697072e+117
-6.8902219e+117
-6.7308579e+117
-6.5280354e+117
-6.6250811e+117
-7.0888286e+117
-6.631999e+117
-7.1544022e+117
-6.9959926e+117
-7.0854973e+117
-7.1242303e+117
-7.0588893e+117
-6.9699078e+117
-6.9435279e+117
-7.1501668e+117
-7.188436e+117
-7.0477979e+117
-7.1975502e+117
-6.695683e+117
-7.1035534e+117
-7.2201747e+117
-6.7888768e+117
-6.7459366e+117
-6.6616735e+117
-6.2563585e+117
-7.2571843e+117
-7.2031643e+117
-8.2242435e+116
-6.0257996e+117
-5.8586143e+117
-6.8323876e+117
-3.5761815e+117
-6.3395856e+117
-4.869516e+117
-7.2421683e+117
-5.490055e+116
-7.3517297e+117
-7.2040448e+117
-7.1865134e+117
-7.0012658e+117
-6.9847155e+117
-7.2384066e+117
-6.7503522e+117
-6.5661501e+117
-6.2496083e+117
-6.9748205e+117
-6.5161872e+117
-2.4080573e+117
-6.8383663e+117
-7.0141874e+117
-3.7931939e+117
-7.0267524e+117
-2.0462637e+116
-9.839386e+116
-1.1204247e+117
-2.0525564e+117
-7.6585851e+116
-6.7454299e+117
-6.8351389e+117
-6.6441772e+117
-6.822689e+117
-6.6572699e+117
-6.5113785e+117
-6.4949732e+117
-6.5485726e+117
-6.5657559e+117
-6.654346e+117
-6.4946764e+117
-6.8297701e+117
-6.8409894e+117
-6.6691841e+117
-6.5123126e+117
-6.3288646e+117
-6.313134e+117
-6.6846587e+117
-6.5156342e+117
-6.322729e+117
-6.8496604e+117
-6.8653174e+117
-6.5384133e+117
-6.7084341e+117
-6.3387771e+117
-6.7313765e+117
-6.5603411e+117
-6.8833683e+117
-6.9173561e+117
-6.7561473e+117
-6.577331e+117
-6.9807504e+117
-6.9466217e+117
-7.1322257e+117
-7.1453045e+117
-6.9642078e+117
-6.9811317e+117
-7.1583732e+117
-7.1636184e+117
-6.9910141e+117
-7.1672329e+117
-7.0017637e+117
-7.1732584e+117
-7.0057286e+117
-7.0074346e+117
-7.1540308e+117
-7.1306566e+117
-7.0087831e+117
-7.2409816e+117
-7.2902296e+117
-7.4891039e+117
-7.5896522e+117
-7.3476535e+117
-7.485423e+117
-7.4792249e+117
-7.753573e+117
-7.1830173e+117
-7.3751889e+117
-7.574754e+117
-7.7709139e+117
-7.5134862e+117
-7.6931537e+117
-7.3453203e+117
-6.2915775e+117
-7.3873561e+117
-7.2644687e+117
-7.0071475e+117
-7.3395965e+117
-7.4197304e+117
-7.4755557e+117
-7.3725262e+117
-7.4205237e+117
-7.1684947e+117
-5.5139787e+117
-7.3258114e+117
-1.297041e+117
-6.8926289e+117
-6.8413554e+117
-6.4148818e+117
-7.326305e+117
-7.2783355e+117
-5.7511655e+117
-7.4150992e+117
-1.493643e+117
-7.4854691e+117
-7.5648026e+117
-6.8911201e+117
-1.2376974e+117
-7.3283197e+117
-4.032177e+116
-6.6029469e+117
-5.6455532e+117
-5.877035e+116
-7.5464284e+117
-6.2343375e+117
-5.9919484e+117
-7.3086794e+117
-7.276507e+117
-6.3238431e+117
-6.1930468e+117
-5.6111876e+117
-5.2733862e+117
-3.0409228e+117
-5.4091877e+117
-5.0193454e+117
-4.8444137e+117
-4.8942514e+117
-6.7425531e+117
-6.8533104e+117
-8.0965327e+116
-6.2985646e+116
-3.357573e+117
-3.1254044e+117
-6.8726147e+117
-7.075453e+117
-6.931468e+117
-6.2471176e+117
-6.5935568e+117
-7.1560244e+117
-7.1687656e+117
-6.9280782e+117
-6.7179723e+117
-6.7592144e+117
-1.3179948e+117
-1.1513873e+117
-1.5101841e+117
-6.2840223e+117
-6.7878966e+117
-5.7035218e+116
-6.4345251e+117
-6.5901464e+117
-6.7493758e+117
-6.8450638e+117
-6.8121693e+117
-6.7622135e+117
-6.8855118e+117
-6.8386521e+117
-6.6652245e+117
-5.1440072e+117
-6.4811252e+117
-6.5460252e+117
-7.4788677e+117
-7.0532692e+117
-7.1370704e+117
-7.1901744e+117
-7.5005835e+117
-9.9371348e+116
-6.1620033e+117
-7.0694136e+117
-6.2282934e+117
-6.0292918e+117
-6.0587737e+117
-6.2613711e+117
-6.0843766e+117
-6.2849638e+117
-6.3135119e+117
-6.1148359e+117
-6.1315611e+117
-6.1515508e+117
-6.3616593e+117
-6.344898e+117
-6.3672061e+117
-6.1586935e+117
-6.3677082e+117
-6.1590097e+117
-6.4047936e+117
-6.3714364e+117
-6.3295108e+117
-6.5627879e+117
-6.5106343e+117
-6.4416832e+117
-6.4049845e+117
-6.6453259e+117
-6.5972186e+117
-6.5035709e+117
-6.4781479e+117
-6.7022555e+117
-6.6782023e+117
-6.5557219e+117
-6.5401992e+117
-6.7428699e+117
-6.7311195e+117
-6.5953881e+117
-6.5584598e+117
-6.6873518e+117
-6.7717914e+117
-6.618476e+117
-6.674902e+117
-6.8485112e+117
-6.9225007e+117
-6.7365274e+117
-6.8024164e+117
-7.0122653e+117
-7.0600669e+117
-6.8624317e+117
-6.8820202e+117
-7.0746478e+117
-7.1163891e+117
-6.9213087e+117
-6.7426012e+117
-6.7599747e+117
-6.7507266e+117
-6.646185e+117
-6.5184221e+117
-6.6715615e+117
-6.5466441e+117
-6.6389687e+117
-6.6959577e+117
-6.6854014e+117
-6.7811722e+117
-6.7245737e+117
-6.9677767e+117
-6.5160613e+117
-6.7313466e+117
-7.0248135e+117
-6.8413879e+117
-6.7772972e+117
-6.9074351e+117
-6.7959192e+117
-6.7298713e+117
-6.6594361e+117
-6.6332851e+117
-7.0270936e+117
-6.4856765e+117
-6.8392043e+117
-7.032801e+117
-6.9998881e+117
-7.0805407e+117
-7.0999959e+117
-7.0619149e+117
-6.9758044e+117
-6.9737647e+117
-7.1506104e+117
-7.1882394e+117
-6.5780856e+117
-6.8433737e+117
-7.1928444e+117
-6.6487082e+117
-6.7439807e+117
-7.0328965e+117
-7.2215823e+117
-6.8016509e+117
-6.7675197e+117
-6.6491268e+117
-6.0018003e+117
-8.1110947e+117
-5.9219189e+117
-6.8256175e+117
-1.6678657e+117
-1.4560506e+117
-5.8624929e+117
-7.2318505e+117
-6.9997274e+117
-6.8907039e+117
-6.9793281e+117
-6.5759396e+117
-6.4076759e+117
-6.2068656e+117
-1.1290971e+117
-2.1063333e+117
-3.3044401e+117
-3.3765791e+117
-2.3963764e+116
-6.6941147e+117
-6.6067909e+117
-6.7879777e+117
-6.8080149e+117
-6.6260998e+117
-6.4584588e+117
-6.478033e+117
-6.531803e+117
-6.5118071e+117
-6.8196516e+117
-6.6281317e+117
-6.4636166e+117
-6.8076464e+117
-6.6412517e+117
-6.4796238e+117
-6.298064e+117
-6.2821869e+117
-6.6511122e+117
-6.4762293e+117
-6.2902895e+117
-6.8287527e+117
-6.8389894e+117
-6.4935073e+117
-6.6653849e+117
-6.3065981e+117
-6.684454e+117
-6.5131952e+117
-6.3199631e+117
-6.849691e+117
-6.8653637e+117
-6.5352497e+117
-6.3384262e+117
-6.7083212e+117
-6.5601985e+117
-6.5773396e+117
-6.8980734e+117
-6.9018432e+117
-7.087207e+117
-7.1183452e+117
-6.9295242e+117
-6.9536184e+117
-7.1472094e+117
-7.1533311e+117
-6.9702174e+117
-6.9841481e+117
-7.1653693e+117
-7.1694477e+117
-6.9934716e+117
-7.168006e+117
-7.0022173e+117
-7.1739888e+117
-7.0061253e+117
-7.0412466e+117
-7.0876739e+117
-7.0938985e+117
-7.2502156e+117
-7.2179715e+117
-6.7911956e+117
-7.0166314e+117
-6.8769093e+117
-6.3093643e+117
-7.3430787e+117
-7.5307901e+117
-7.3777478e+117
-7.5876659e+117
-7.4509215e+117
-7.4070446e+117
-7.0647166e+117
-7.0538143e+117
-7.2900411e+117
-6.7891509e+117
-7.3873737e+117
-7.5773437e+117
-7.5436428e+117
-7.5652752e+117
-7.5146954e+117
-7.5563027e+117
-7.3853564e+117
-7.3559017e+117
-4.9959425e+117
-1.6452312e+117
-7.2541984e+117
-7.0168715e+117
-7.3405937e+117
-7.4326926e+117
-6.9118831e+117
-7.4757704e+117
-2.0330606e+117
-7.420842e+117
-7.3461436e+117
-6.0528849e+117
-3.4365815e+117
-7.3265928e+117
-5.5061699e+116
-6.8952903e+117
-6.9656041e+117
-6.3947173e+117
-7.2813154e+117
-5.7876728e+117
-1.103002e+117
-3.7665736e+116
-7.5648749e+117
-6.7562156e+117
-1.4856956e+117
-1.4556813e+116
-6.2030919e+117
-2.6283102e+117
-5.9383706e+117
-6.3016165e+117
-2.1952312e+117
-6.1765928e+117
-2.5441106e+117
-2.7375409e+117
-4.8094447e+117
-4.7990519e+117
-6.8442349e+117
-2.7616184e+116
-6.7984235e+117
-6.8784266e+117
-6.7277628e+117
-6.4615628e+117
-6.8152941e+117
-6.8305775e+117
-6.1146392e+117
-4.2306538e+117
-5.3514538e+117
-6.8159781e+117
-1.6958386e+117
-1.3329912e+117
-6.509852e+117
-6.4751748e+117
-5.4570665e+116
-1.831069e+116
-4.6955989e+116
-6.331223e+117
-6.6605141e+117
-6.7694296e+117
-6.7352134e+117
-6.6548665e+117
-6.7859246e+117
-7.2989831e+117
-6.3926324e+117
-6.1328332e+117
-6.6681339e+117
-6.6818418e+117
-1.3568167e+117
-1.5741811e+117
-6.3697846e+117
-5.8704489e+117
-7.624814e+117
-7.0924006e+117
-7.1446995e+117
-7.2304633e+117
-5.3322157e+117
-5.6761203e+117
-5.6950288e+117
-5.9037768e+117
-5.8791599e+117
-6.0539186e+117
-6.1549989e+117
-5.9645023e+117
-5.9992132e+117
-6.1927724e+117
-6.2152562e+117
-6.0233504e+117
-6.0558431e+117
-6.2480687e+117
-6.0873209e+117
-6.2841512e+117
-6.3128298e+117
-6.1146798e+117
-6.1318133e+117
-6.1516596e+117
-6.3615978e+117
-6.3449179e+117
-6.3298807e+117
-6.288235e+117
-6.2511444e+117
-6.4630483e+117
-6.4167446e+117
-6.3643666e+117
-6.3242001e+117
-6.5495229e+117
-6.4997248e+117
-6.4423817e+117
-6.4029827e+117
-6.6447991e+117
-6.5974099e+117
-6.5034616e+117
-6.4781111e+117
-6.7021716e+117
-6.6779924e+117
-6.5362326e+117
-6.4754382e+117
-6.5853523e+117
-6.6298858e+117
-6.5148462e+117
-6.5518544e+117
-6.6817019e+117
-6.7694935e+117