/*--------------------------------*- C++ -*----------------------------------*\
  =========                 |
  \\      /  F ield         | OpenFOAM: The Open Source CFD Toolbox
   \\    /   O peration     | Website:  https://openfoam.org
    \\  /    A nd           | Version:  7
     \\/     M anipulation  |
\*---------------------------------------------------------------------------*/
FoamFile
{
    version     2.0;
    format      ascii;
    class       surfaceScalarField;
    location    "10000";
    object      phi;
}
// * * * * * * * * * * * * * * * * * * * * * * * * * * * * * * * * * * * * * //

dimensions      [0 3 -1 0 0 0 0];

internalField   nonuniform List<scalar> 
99138
(
2.6454566e+55
-1.3501666e+56
-7.1799384e+54
4.1258098e+55
4.7048088e+55
2.2438992e+55
6.122302e+54
-1.2623714e+55
-8.7876695e+54
-3.2152672e+53
-6.6257212e+54
-1.6477855e+55
-1.6128299e+56
5.3082719e+55
5.0430059e+55
6.6091275e+55
-3.9758346e+54
4.9356864e+55
2.4442731e+54
-7.5700661e+54
-5.4576599e+54
-6.8594307e+54
2.0517874e+54
3.549466e+54
2.1011265e+55
-1.5030841e+56
-2.2125171e+55
5.4788149e+55
-1.4384162e+55
2.7069696e+55
3.0661667e+55
7.2390892e+55
-6.9288812e+54
-6.0563294e+54
-1.3298452e+55
-1.1509621e+55
-4.6920813e+55
-3.6186376e+54
1.340987e+55
8.9897374e+55
-1.4327342e+55
1.4705705e+55
7.2323988e+54
-2.1645062e+55
3.7056059e+55
-1.1422122e+55
1.9160517e+55
-6.8133685e+55
-1.3470375e+55
2.5563687e+54
1.1708735e+55
-2.086391e+55
-1.2576465e+54
-4.7672188e+54
1.2706141e+55
-1.8939879e+55
-2.242569e+54
-9.0651544e+54
1.1596715e+55
1.6986735e+54
-2.9847869e+54
-2.3550062e+54
1.3577033e+54
-3.4272866e+55
-1.6063269e+56
4.2376617e+55
5.1265077e+55
9.4398613e+55
-4.6185759e+55
5.2453458e+55
-1.1258975e+55
-6.6531207e+53
-2.2860695e+55
-1.069903e+55
-2.4727379e+54
1.0454371e+56
-1.7167494e+54
4.9508074e+54
3.7517289e+55
6.0600997e+54
6.1980368e+54
5.0542377e+55
-1.5226559e+55
-8.2146709e+55
-2.0309516e+56
9.6533175e+55
1.2387803e+56
1.1178686e+56
2.2348379e+55
-5.2268919e+55
8.5492936e+55
5.1068122e+54
-1.4506699e+55
-7.8111632e+54
-6.4708266e+54
3.0988745e+54
2.1354563e+54
-2.0109894e+54
1.5229637e+55
6.5930529e+53
1.7348897e+55
-1.9988805e+54
-4.1323193e+53
2.2148858e+54
-1.8390482e+54
-1.8390403e+54
-6.8355904e+53
-8.8165506e+53
-1.5716496e+56
-4.7809165e+55
6.4820206e+55
-1.4342168e+55
-1.3282402e+55
4.9408887e+55
5.0412069e+55
5.1742062e+55
-1.7022405e+54
-3.3257255e+54
-3.2803017e+54
1.933466e+55
-2.0390009e+55
1.3599767e+55
4.5524087e+55
1.3859266e+55
6.4979853e+53
-2.4720548e+55
4.1071381e+53
-4.5833587e+54
2.5006097e+54
1.112679e+55
2.8250968e+55
-1.8088937e+55
1.953313e+55
6.397175e+55
-3.118205e+55
-1.2538458e+55
1.3720702e+56
-1.5836339e+54
2.9969333e+54
5.5126116e+54
4.5353024e+51
-1.1876289e+55
-2.8752207e+54
4.126804e+54
-2.2790215e+55
-2.9923605e+54
-1.8853486e+55
-3.2785027e+55
-1.6345666e+55
1.0373333e+55
1.4750822e+56
-2.3307936e+54
9.7988422e+54
-2.4020001e+55
-3.5380674e+55
7.6428105e+55
-1.6750847e+53
-6.4845863e+54
-1.9340324e+55
1.9940932e+55
3.9976244e+55
2.5540758e+55
-2.0181632e+56
-2.0330862e+54
-3.0518376e+55
1.0241567e+55
1.6374331e+54
8.2199929e+54
-1.5374409e+55
-1.4102626e+53
8.9081922e+53
1.2803276e+55
-1.4001362e+55
1.2899217e+54
-5.0053445e+54
1.5338941e+55
1.7659854e+54
1.6173879e+54
-1.0900522e+54
4.0450396e+54
-1.2016717e+56
-5.3636789e+55
-4.4946619e+54
1.8331766e+55
5.8655557e+53
-1.3624712e+55
4.0039716e+55
8.0429714e+55
1.5013722e+55
-4.8364052e+53
-2.0360593e+55
-8.1598518e+54
1.3333211e+55
6.8636667e+54
-1.9205413e+55
5.452677e+55
2.4302042e+55
2.1065405e+55
3.825381e+55
-2.6158117e+55
-2.253837e+55
1.8651161e+56
-3.1939344e+55
-3.3413968e+55
-1.474171e+56
3.7541799e+55
5.3832995e+55
1.2916266e+55
-1.9586315e+55
-3.2205799e+55
9.2386571e+55
-2.2706514e+55
-1.8423953e+55
-5.2856411e+55
-3.9043993e+54
-5.1949042e+54
1.8366732e+56
1.170565e+54
1.2493645e+55
4.4799842e+54
3.0274286e+54
-3.3135658e+55
-1.5583499e+55
1.3877398e+56
2.6970727e+55
-1.3387356e+55
-1.4726844e+55
2.1411111e+55
-4.8271893e+54
5.8931916e+55
-3.9437901e+54
5.3997297e+55
2.5759873e+55
-9.1315463e+54
5.2480296e+55
-3.5330041e+54
-3.1728675e+55
-1.7861203e+56
7.6149558e+55
3.4793055e+55
-2.0160287e+55
2.3245196e+55
4.3162791e+55
1.4883679e+56
2.4529969e+54
-2.994683e+55
-7.6121487e+54
2.90992e+54
3.3723386e+54
-6.4448772e+54
1.6443287e+54
2.0334623e+55
-2.3414157e+54
-1.3989799e+54
1.8190642e+55
-8.813531e+53
-1.4738359e+54
-1.8659001e+54
-1.4809183e+54
-2.2433787e+54
-1.9318923e+54
1.6475865e+55
2.1441151e+54
1.80894e+55
-1.8251941e+54
1.207879e+54
1.2697421e+54
-1.6278736e+54
1.2340955e+54
1.7624456e+54
1.5387923e+55
-1.2420466e+56
-8.3524195e+55
4.7395968e+55
3.7931233e+55
-6.3850523e+54
-7.1584043e+54
5.8346316e+54
4.1530614e+54
4.6577507e+55
1.6182949e+55
-1.0794869e+55
-3.7756567e+54
-9.5712241e+54
1.0256174e+56
-1.7068557e+54
2.1731483e+55
-2.8012766e+55
-5.9432961e+54
2.3344802e+55
-2.8165241e+55
-5.8524484e+54
-4.3163586e+54
-2.376152e+54
3.4864503e+54
-1.1073271e+55
8.6249156e+55
-2.6877273e+55
-2.3338779e+55
-1.8575047e+55
7.9154897e+55
8.3006051e+55
-2.0426402e+55
8.5005467e+53
-3.0640888e+54
2.872818e+55
-4.87155e+54
2.7211205e+55
-4.9584337e+54
1.1657919e+55
3.2427641e+55
-2.7205598e+55
2.2000207e+55
6.6439151e+54
1.2450082e+55
2.1542022e+54
-1.6520043e+55
-2.6020807e+54
-6.548797e+52
3.5507834e+54
8.8741963e+54
-4.9358748e+54
3.2419803e+55
-1.0286877e+55
2.4032314e+55
-3.562372e+55
9.3020174e+54
1.079921e+55
-2.6375755e+55
1.2307533e+56
-6.4938727e+55
1.8561521e+55
-1.5864252e+55
2.0667146e+56
4.9169691e+54
1.7174685e+54
6.5431065e+53
5.1659011e+54
-1.234666e+55
1.9707311e+55
3.3005251e+54
-1.4109163e+55
7.8332452e+53
-5.4672132e+53
-5.5885296e+53
-2.1181635e+53
7.033192e+53
1.481223e+56
-2.4826805e+54
-5.8712064e+53
-1.948004e+55
1.0001918e+54
6.8424066e+55
1.731444e+54
4.5607913e+54
-4.3220257e+55
2.5143151e+55
-1.1340959e+55
4.2667549e+55
6.2046729e+54
7.9806007e+54
-2.6110105e+55
1.7712709e+55
3.0796724e+53
8.8144966e+54
-2.1049737e+56
5.5904809e+54
-1.7912957e+55
1.0133067e+55
5.359183e+53
8.8169399e+53
-1.4253139e+54
-2.4485871e+53
1.143397e+54
1.7986634e+54
-1.8322804e+54
1.3361774e+54
-6.067423e+53
2.085688e+54
1.5462233e+54
-1.2690745e+53
7.507054e+53
3.6962062e+54
-4.6116988e+54
-3.1257188e+54
-6.7365075e+54
3.6023563e+54
-9.1580983e+54
-1.0267071e+56
-3.9747882e+55
-7.0324784e+54
8.2794029e+54
-9.944442e+54
-7.4791641e+54
3.2136709e+55
-3.5006377e+55
-1.1944142e+54
7.5608852e+55
2.0779738e+55
-1.0576848e+55
-1.7086271e+55
8.5387525e+54
-6.1499834e+54
-2.7409742e+55
2.1733705e+55
-1.3913733e+54
4.6178944e+55
-1.269531e+55
-3.0008308e+54
9.7217745e+54
-1.9154713e+55
-6.3364513e+54
-1.5809468e+55
-8.1705175e+54
-3.7203956e+55
7.868533e+55
-1.4676726e+55
2.1320409e+55
1.6462149e+55
4.1514465e+55
-1.0841742e+55
6.1621616e+54
1.432178e+55
-3.6761817e+55
-1.5156161e+55
-1.6748195e+55
6.2327698e+55
2.4214293e+55
-7.6861173e+54
2.1047769e+54
5.7137438e+55
2.2153813e+55
-1.3741344e+55
-3.253715e+53
1.6195859e+55
9.4084121e+54
-1.904774e+55
-4.9054063e+55
-5.0488337e+55
4.0551914e+56
-1.9784354e+55
-1.4713949e+55
7.2587834e+55
-1.300879e+55
4.0271466e+55
-1.4069514e+55
-1.4833771e+55
-1.4392971e+55
-2.3152671e+55
-1.0208827e+54
-1.2593618e+56
2.5852272e+55
1.2672623e+55
9.2865897e+54
7.3796106e+53
1.447329e+55
1.4540664e+56
-1.2182432e+55
-2.710541e+55
6.5976915e+54
-1.2386805e+54
3.4413902e+53
1.7988263e+56
-2.8282492e+55
-1.3382906e+55
1.6905512e+56
3.2769963e+54
-1.3045796e+54
9.8630575e+53
-1.4309632e+53
3.2309814e+55
4.4476458e+54
-1.9495389e+55
1.1661534e+54
2.3451753e+54
-8.3635012e+54
1.2253092e+54
2.5053844e+55
-1.2870362e+55
-2.2750273e+55
-1.1884317e+55
1.2697281e+56
-1.0243794e+55
-1.5412648e+55
1.1167187e+56
-1.2076743e+55
-1.1554467e+55
3.2141008e+55
-6.6357001e+54
-1.6056141e+56
-3.6210962e+55
4.3023187e+55
5.5294034e+55
5.6161163e+55
4.4157403e+55
2.6320073e+55
-1.4597451e+55
-1.2476072e+55
1.1921945e+55
-2.1494863e+55
5.5754639e+55
1.4643173e+56
5.8178565e+54
-1.1924252e+56
-4.4353598e+55
-4.7172888e+54
4.5013538e+54
7.0679159e+54
-3.2252327e+54
2.0704413e+55
3.5167816e+54
-6.5282063e+54
-1.5370836e+53
3.2528076e+54
-6.7696275e+54
-1.0340804e+54
-2.0831738e+55
-2.0367976e+54
-7.2977724e+53
1.4123711e+54
1.8696159e+55
-1.6908017e+54
1.425887e+53
1.6896162e+55
6.5065288e+53
-1.5522347e+54
8.454668e+53
-1.678883e+54
5.9389527e+52
-2.7032594e+53
1.6035715e+54
1.6505694e+54
1.4092125e+54
-1.835188e+53
1.0409575e+54
3.5904549e+53
-2.4301729e+53
1.1019863e+54
1.4408905e+54
4.9940553e+55
-2.8376012e+55
3.6390192e+54
-2.7722337e+55
1.6970125e+55
-3.8564914e+55
-9.086056e+55
1.0047845e+55
8.074366e+54
4.0733476e+54
9.2544495e+54
-1.6636713e+55
5.2899947e+54
-2.5721118e+55
6.5888773e+55
1.1472783e+54
-6.7880013e+54
-1.4947346e+55
4.1882632e+55
-7.4581948e+54
2.4151008e+55
-2.5997108e+55
-2.9331909e+54
2.1240848e+55
-2.2063149e+55
-1.5185565e+55
1.3912861e+54
1.0306454e+55
-1.9671724e+55
5.2174804e+54
3.1223308e+55
-4.0775667e+54
3.9624021e+55
-2.3382347e+55
-1.3772097e+55
7.7948691e+55
-2.8538038e+55
-1.4586647e+55
3.7072579e+55
-2.092514e+55
-7.2275804e+54
-1.4138358e+55
1.6685302e+56
-2.0685308e+54
1.3335912e+55
-2.0547615e+55
7.3487923e+53
1.2527159e+55
-1.8602234e+55
-4.8194214e+53
1.7214578e+53
-5.8046403e+54
-3.8097078e+51
-1.9076603e+54
-2.3790469e+55
1.1775573e+56
-4.2717825e+54
5.4048142e+54
4.880244e+54
-4.1623542e+54
-3.3974397e+55
-1.8994785e+55
1.053943e+56
1.0184962e+56
-1.7200751e+55
1.4763732e+55
1.1781619e+55
-4.9299016e+54
5.2401383e+54
1.4750583e+54
5.87034e+54
-5.8159311e+54
1.0980998e+55
-3.7886276e+54
-3.4690808e+54
2.1259751e+53
-2.7715403e+54
1.6460554e+55
5.9307512e+53
3.0974378e+53
-1.4063128e+54
-1.3929321e+53
5.7733208e+53
-3.5129337e+55
1.4327034e+55
-2.7174752e+55
7.4174927e+54
5.6247099e+53
-8.3168982e+53
7.7533081e+53
2.8125085e+55
5.5546293e+54
9.3747508e+54
-2.813601e+55
2.3162991e+55
3.546809e+55
-1.5393128e+56
1.1694049e+54
-1.5902356e+54
1.2436661e+56
3.9966072e+55
9.4478826e+54
1.6522319e+53
2.0490988e+56
3.7898199e+53
4.2045283e+53
1.2326465e+53
4.8362943e+54
-1.2388313e+54
2.2645881e+54
2.526859e+54
-1.3533827e+54
9.6278077e+53
9.8044191e+52
-1.4792998e+54
-1.7453912e+54
4.8234508e+53
-2.2443116e+54
-7.502461e+53
1.1692576e+54
1.5031204e+54
-2.0835487e+54
-3.907859e+55
-2.1361981e+53
-7.8914664e+54
9.4448635e+55
3.9383965e+54
-2.4130785e+53
4.5642867e+54
3.7849937e+54
-6.8872571e+54
-1.1073047e+55
-1.4187916e+54
1.0601106e+55
-1.9324671e+55
6.3188553e+53
-6.9938636e+52
4.1206315e+54
4.4912067e+53
1.0059894e+54
9.1873736e+54
5.127847e+53
1.0211805e+54
-1.3126985e+54
-2.0474064e+53
1.6698784e+54
-1.6333957e+54
-6.1450372e+53
2.0287766e+54
-2.5510648e+53
1.2757186e+54
-6.0548008e+54
9.5979884e+52
1.9496164e+52
-1.2665613e+56
-1.2157945e+54
-1.231975e+54
9.0095436e+54
-5.076471e+53
-1.83642e+54
3.6638044e+54
-1.5103815e+55
-6.3325794e+54
1.4660868e+55
-1.2027942e+54
3.2415647e+54
-5.699038e+53
7.5726896e+54
-2.7319067e+54
-3.6015425e+54
-1.2169313e+56
9.1546796e+54
-7.4906565e+54
6.2265864e+54
1.1253541e+55
-7.9112597e+54
1.0370249e+55
1.18943e+55
1.9674655e+55
2.7752408e+55
3.2652698e+55
-5.8315727e+54
-2.8078288e+55
5.9509119e+53
-6.3703721e+54
-1.2819362e+55
-1.1285664e+55
-5.4471547e+54
7.0484317e+55
1.0968572e+54
-4.7772444e+54
2.650326e+54
2.1043508e+54
-5.779464e+54
-1.3593331e+55
-1.967166e+55
-5.0734427e+54
9.1795585e+55
3.0424304e+54
2.0192576e+55
-2.9891951e+55
-4.3183175e+55
-2.632469e+55
3.7786809e+55
-2.32074e+55
2.4211861e+55
1.8712668e+55
-8.0840047e+54
-1.6368562e+55
1.9933652e+53
-6.0940393e+53
-6.8718375e+54
3.6350123e+54
2.2404639e+55
-1.8465062e+54
-3.928387e+55
2.3991826e+55
-1.0634716e+55
8.8567878e+55
-8.9346618e+54
-3.2676749e+53
1.3879236e+55
1.3258135e+55
-1.364561e+55
-1.0242595e+55
6.5370716e+53
-1.5842309e+55
-1.5413495e+55
-1.9208375e+55
8.0095454e+55
-1.7488157e+54
1.5453055e+55
1.3833917e+55
-1.8659985e+54
-3.6612623e+54
-5.1189497e+54
1.2789083e+55
-5.3994061e+55
1.5071268e+54
-1.6082369e+55
6.1350739e+54
1.0714225e+54
-8.1481228e+53
-8.2736643e+54
1.0255512e+55
6.9163547e+54
-4.5513308e+55
5.5620034e+54
-2.7257847e+54
6.2799702e+53
-2.6234494e+54
-3.4033824e+55
5.2076612e+54
6.1181179e+55
2.8967088e+53
-4.7931905e+53
4.1740587e+56
-2.0909065e+54
-2.7445714e+55
6.6480662e+55
-2.3332939e+54
-1.3747541e+55
1.6309153e+55
-4.877961e+54
-2.9594178e+55
-1.6045564e+55
-1.1054723e+55
1.484138e+54
-3.2427281e+54
-4.9518454e+54
-1.5326007e+56
-4.9600121e+55
4.2472667e+55
1.013837e+56
4.0723616e+55
2.5883104e+55
-1.7995963e+54
2.2692474e+55
5.6375217e+54
-3.6847116e+55
-3.9471773e+54
-1.17241e+55
1.4496916e+56
-2.2502839e+54
-3.2043272e+55
4.5208365e+54
-2.5814746e+53
-9.2245927e+53
1.0004458e+53
8.1248661e+53
1.6929412e+56
1.158884e+54
-7.3683979e+53
9.1279806e+53
-2.3636738e+54
-6.5615078e+53
-1.4030349e+55
3.188879e+52
1.1270555e+54
-4.8266491e+55
-3.4333524e+55
2.2048831e+56
-2.1870993e+54
-2.1395468e+54
-7.5186353e+54
-2.0334344e+55
-2.1689717e+55
1.0485932e+55
-1.311319e+54
1.4457266e+54
1.0698671e+56
-8.7098179e+54
-1.5221399e+56
-4.5281846e+55
5.0741546e+55
5.8253665e+55
5.5652775e+55
5.52874e+55
-1.0211093e+55
2.1893372e+55
2.6634125e+53
1.8598532e+55
1.5071863e+55
8.8787768e+54
2.5490925e+55
-4.3585806e+54
8.6092126e+54
-1.7126252e+55
7.2962082e+55
2.7444007e+55
4.1794863e+55
-1.952042e+55
-1.1903221e+55
-1.8783618e+55
-2.7393377e+55
5.6634965e+55
-1.3646531e+55
-8.702489e+54
-7.1346384e+54
5.0228707e+54
2.5108188e+54
2.4210716e+55
-1.2991523e+56
1.0039449e+55
-2.5243043e+54
1.11272e+55
1.2874593e+55
1.4580249e+54
1.6199258e+55
5.8032246e+54
-2.0453212e+55
-7.7258313e+54
1.4592814e+54
6.6227831e+54
-9.4962116e+54
1.5108969e+54
-1.8882151e+55
-1.938818e+53
-2.3208658e+55
3.7629472e+53
1.8940624e+55
3.6846536e+54
-5.0037125e+54
9.0901634e+52
3.1267337e+54
-3.8711499e+54
4.8731007e+52
-2.0363521e+55
-7.7303884e+53
2.5872729e+53
1.1876972e+53
1.6485366e+54
-9.4808739e+52
2.8119936e+53
1.3518223e+54
5.3097795e+53
-1.5390391e+53
7.5481393e+53
-2.7876282e+52
1.7560629e+53
-2.4578933e+53
1.5715687e+54
1.3946641e+54
-1.8440688e+53
3.5187561e+53
-2.2301966e+53
-2.3059338e+53
-1.7409695e+56
8.0426427e+54
-5.3310824e+54
8.9292762e+54
1.1539644e+54
2.0898297e+54
9.8295484e+55
3.1274287e+55
1.8547766e+55
1.4964548e+55
1.6920984e+55
3.0853744e+53
7.1250104e+54
-1.2412597e+55
-3.9664229e+55
-9.2295889e+53
-2.6081248e+54
2.2474864e+55
-2.4497784e+55
-4.8903764e+55
5.3756483e+54
-2.2863161e+54
-1.2958809e+56
1.6824608e+55
-7.5523686e+54
1.1370883e+55
-1.6273482e+55
7.3172669e+54
-6.2951873e+54
-1.316591e+55
8.3965287e+54
1.1586578e+55
7.9321483e+54
5.5280004e+54
-3.1811531e+55
1.6129563e+55
-5.2880306e+54
1.4173807e+55
-2.0862342e+55
2.8004482e+55
-3.9879939e+55
7.9631795e+55
2.4200547e+55
-2.0529116e+55
-9.1176382e+54
2.6466498e+55
-2.4881733e+54
1.7483896e+55
-1.8333351e+55
-7.748734e+52
2.2182587e+55
-1.9078106e+55
-5.7367525e+54
1.5353949e+54
1.0096462e+54
-5.0262737e+54
2.751015e+55
3.9065671e+54
1.8503917e+55
-1.7112154e+55
9.8418871e+54
5.4030547e+54
1.6608011e+55
3.0481147e+54
-1.074905e+55
6.0509714e+55
-2.2794483e+55
6.784388e+54
1.2005561e+56
-1.7680637e+55
4.4736016e+54
5.1685693e+55
-2.5783533e+54
-2.1097285e+54
-2.0249998e+54
1.7079457e+56
-2.3370374e+52
4.4785243e+53
-1.0348692e+54
1.2059895e+54
1.2611385e+54
-1.6132942e+54
6.2857199e+51
4.946815e+53
4.1835693e+54
2.2661065e+55
-9.2904382e+55
4.714955e+55
3.4012945e+53
-5.3389524e+53
6.9948621e+52
-1.4243084e+54
1.1930387e+56
-6.1964845e+54
1.0871265e+55
-2.1698603e+55
1.4336557e+55
-2.3880594e+54
-3.1126209e+54
1.0865677e+56
9.9013171e+55
-6.3885984e+53
5.0657648e+54
1.1007828e+55
-2.298975e+55
3.2133715e+55
-5.4635518e+53
1.8899089e+53
1.1593848e+54
6.3294634e+54
2.3460322e+53
1.1068352e+55
-4.4516885e+54
-3.8135874e+54
2.7082085e+53
-4.7009289e+54
4.2430593e+53
2.5534588e+53
-1.1657438e+54
-1.6140624e+53
-4.0247756e+54
1.3626409e+53
-2.2656264e+55
1.4536538e+53
-2.4597648e+54
8.4765731e+54
-4.9971525e+55
2.3236202e+55
1.3732216e+54
-1.4085041e+54
6.1006703e+53
3.6780046e+53
2.6942787e+53
-3.2207618e+53
2.2971112e+55
-8.289752e+53
8.4404507e+55
4.5347627e+53
-1.6688699e+56
1.7748291e+54
-8.8458524e+53
5.2388557e+54
7.2905541e+54
1.2123704e+54
5.2133142e+53
-1.2000951e+53
2.7297016e+53
-1.1149249e+54
2.1011353e+54
-1.1781712e+54
-1.3368278e+54
-4.2209953e+53
1.6432711e+54
9.2685159e+55
4.8491491e+52
-1.6732261e+52
7.265151e+54
2.1080882e+54
-3.5983647e+53
4.8565859e+54
-6.3067667e+54
-7.5116797e+53
-1.2872333e+54
-1.2678414e+55
-5.1345399e+54
1.0227277e+54
-3.7095628e+54
4.3081081e+54
1.374485e+53
1.9403664e+54
1.1120996e+53
-6.3598422e+54
3.2910964e+52
1.2234729e+53
-7.3509153e+54
4.4051409e+52
5.6280342e+54
1.0312283e+55
1.4729535e+51
-7.0503089e+54
-4.7750121e+54
-6.9399956e+54
3.0116955e+54
-1.0375526e+55
-1.164735e+56
-5.680983e+54
-6.1623177e+54
6.7043823e+54
6.9416843e+54
-6.7310605e+54
1.6444803e+55
-5.5619124e+54
-1.877732e+55
7.1119653e+54
-4.4948629e+53
-4.9616084e+54
5.4709595e+54
-3.133276e+54
7.1301303e+54
-2.9223359e+54
2.5001159e+54
4.7325607e+53
6.8487388e+54
-1.411234e+55
6.197971e+53
1.7659745e+55
-3.1618117e+54
4.8047112e+54
1.1723189e+54
4.86614e+54
5.4188271e+53
1.0994944e+53
-1.4714002e+56
-6.1371248e+55
-1.3610044e+55
-3.964467e+54
3.237788e+54
-1.1573584e+55
5.536215e+55
4.0699912e+55
6.567575e+55
7.6886661e+55
2.5073839e+55
-5.3262504e+53
-3.1553312e+55
9.8932483e+53
-1.4678553e+54
4.1149342e+54
4.6044719e+54
3.0417218e+53
2.227688e+55
-2.9618336e+55
8.878539e+53
3.2813314e+55
-3.5739495e+55
-1.7276234e+54
1.36908e+55
1.5378503e+54
2.4764232e+55
-5.5947306e+55
-1.2708468e+55
4.2726343e+55
7.6894479e+54
-1.2122194e+55
-7.6182311e+53
3.0364928e+55
5.5574294e+52
1.2062206e+53
7.7979571e+54
1.6457377e+54
-1.5678642e+55
1.696229e+54
-1.8316263e+54
1.401437e+54
-8.4424046e+54
1.2522894e+55
-3.1311012e+54
-3.064831e+55
-3.762382e+55
-2.2488237e+55
1.9903152e+56
-1.2645861e+55
-1.9088814e+54
1.4813962e+55
-1.1376241e+55
2.2966562e+54
-1.4730481e+55
-1.8497613e+54
-1.5905303e+55
-2.0114583e+55
-9.3402625e+54
1.526088e+56
-1.2555126e+55
5.8250961e+54
-3.122482e+55
-1.0106289e+55
-6.1137761e+55
3.5628372e+55
-2.6158456e+55
-4.0783422e+54
1.8550298e+54
-4.0989276e+53
-1.7028931e+54
-1.3438707e+53
-2.1723455e+53
-2.2535383e+54
8.8630167e+54
-3.1388636e+53
5.4743405e+54
-2.9872325e+53
8.6040967e+49
1.4448287e+54
-1.1376537e+54
-1.8383482e+55
2.1571668e+55
-2.0863244e+55
1.2007686e+56
-2.0216877e+54
-3.5939494e+53
2.7838413e+54
1.6042568e+55
2.0316553e+55
2.0032848e+55
-3.792329e+55
-1.6023693e+54
6.7832349e+53
2.3822353e+54
-1.868463e+54
2.9034423e+54
7.6967933e+55
9.0117673e+53
-6.3493164e+53
-2.141271e+54
2.3912536e+54
1.7635702e+54
-1.0186766e+55
8.8362988e+53
-5.1510032e+55
-1.1806516e+54
-3.1614108e+55
5.6707076e+54
1.228899e+54
-5.3178764e+53
-9.5075596e+52
-2.9250905e+54
-4.2521298e+55
2.5604876e+54
-2.3602877e+54
6.7763129e+53
2.1019133e+54
3.1061654e+54
5.5398717e+55
2.2493358e+54
9.8267482e+53
-3.6708582e+54
-2.1303311e+55
-7.8521051e+54
4.4961108e+54
5.1738299e+53
5.7230777e+55
-1.2755855e+55
-1.7224766e+55
-6.5271425e+54
8.0567929e+53
-1.3742487e+54
-8.878982e+54
-8.146103e+54
-1.2833239e+56
-4.7086484e+55
2.9150667e+55
1.195064e+55
2.9799955e+55
5.4353903e+55
-2.396378e+55
9.944059e+54
5.1684919e+55
-9.3741197e+54
1.4181631e+55
2.5171868e+54
3.0689614e+55
5.3091933e+55
2.1460024e+55
1.809996e+55
5.8871437e+55
4.0532837e+54
-9.8638909e+54
2.782792e+55
2.9043892e+54
-7.0471386e+55
-2.2574146e+54
-6.0154304e+55
-2.8181075e+54
-2.3106062e+55
7.5297283e+53
1.5201408e+54
-3.2677864e+54
-5.9246956e+53
-3.2513808e+54
-2.957321e+54
2.2253247e+56
-2.0695169e+54
-2.8936926e+54
6.2076957e+53
-1.231047e+54
9.2905497e+54
-1.3814563e+54
1.9784617e+54
-2.4565438e+55
-1.5469118e+56
-4.6882713e+55
5.0755764e+55
5.1328017e+55
4.7163829e+55
3.1379407e+55
2.8404937e+55
1.2879362e+55
2.989044e+54
1.3593254e+55
-8.3464085e+54
-7.8232844e+54
-1.1972221e+55
1.1480056e+56
-4.3219812e+54
-8.0686302e+54
8.5187936e+55
4.4110405e+55
-4.3325786e+54
2.4840268e+55
-3.3061107e+54
-1.0506257e+55
1.8503352e+55
2.1842248e+54
3.3150666e+55
-6.2529397e+55
4.7434705e+54
-1.8913726e+55
8.5106584e+55
-1.0245571e+55
1.7946072e+54
-5.0477393e+53
1.0223552e+54
-2.0475038e+55
1.758755e+54
5.1325447e+55
-1.4248823e+56
-1.0891485e+55
-7.4375654e+54
-9.6404173e+54
3.7472631e+54
2.1502113e+54
3.3705224e+54
1.7251011e+55
-3.7000225e+54
-1.3118131e+54
1.8650113e+55
-9.4654553e+53
-4.4783354e+54
-2.8059529e+53
-5.0284894e+54
-1.412246e+53
-3.3740392e+54
-1.46879e+56
-1.9847992e+55
-5.8409033e+54
9.2332949e+54
7.3164365e+54
-4.665295e+54
1.4581167e+55
4.2698752e+54
-2.1684961e+55
-2.0455898e+54
2.3552104e+54
5.7493009e+54
2.792777e+53
6.5138842e+54
-1.1691894e+55
4.5460972e+54
-1.6544252e+55
2.8544307e+54
1.6795801e+55
5.2752438e+54
-1.5506304e+55
-5.9045837e+54
7.9913055e+53
4.5369276e+54
-6.186162e+54
8.7783139e+53
-1.8190424e+55
3.2897085e+53
-1.8083126e+55
5.4053036e+53
1.6612363e+54
2.3551633e+53
-3.5393547e+53
3.2416527e+53
3.6524043e+52
-2.0087218e+53
2.6103283e+53
-1.7301032e+54
-6.9144751e+52
4.4365883e+53
1.3119673e+53
1.6146146e+54
-1.0972184e+53
1.3454257e+54
-1.4930621e+53
-5.597767e+52
-4.4089566e+55
-1.4717337e+56
-9.6519118e+54
2.8739459e+55
-5.5217506e+53
-2.8436294e+54
7.974639e+55
3.8566696e+55
3.8781996e+55
1.1660771e+55
1.4858016e+55
5.9638849e+53
-1.2387904e+54
-2.9627675e+55
2.2652703e+55
-1.0073658e+55
3.3355538e+55
-2.6168743e+55
2.7248261e+54
2.4218306e+55
-2.246871e+55
5.0760799e+54
2.6276288e+55
-2.9417474e+55
1.6986557e+54
6.2571956e+54
4.5690778e+54
-4.2680391e+54
2.9847297e+55
5.8073533e+55
1.8588962e+55
-6.3955435e+54
2.2411171e+55
-7.750843e+54
1.1840842e+55
3.0688147e+55
1.0045929e+55
2.6876023e+55
1.0083998e+55
-2.4642936e+54
1.631143e+55
-7.6008331e+54
-1.0176e+55
-3.5734522e+55
1.9003945e+55
-1.152688e+55
3.4158718e+54
-1.084725e+55
1.6271983e+54
-3.83604e+55
-1.0260354e+55
-1.9563869e+55
1.2799704e+55
-2.5058947e+55
-9.3480335e+55
-5.5846245e+54
1.7118849e+54
-3.6014884e+55
9.0557335e+54
-5.4485961e+54
2.1306233e+55
-1.6703979e+55
2.4268642e+54
1.6373566e+55
-1.1828288e+55
-5.1767244e+53
2.1103828e+54
2.5389429e+54
1.5727591e+54
2.5351697e+55
3.0397392e+54
2.6078135e+55
6.9145797e+54
-3.3884485e+54
3.0033609e+54
-6.9586016e+53
7.7600131e+55
7.9130751e+53
-2.0655241e+54
-3.6575152e+52
2.438884e+55
-1.8484494e+53
1.3362575e+54
-1.6891876e+54
4.6660022e+53
1.9753798e+54
-1.605236e+54
-3.8631435e+53
1.3667368e+54
-1.1640922e+55
-5.836142e+54
3.8928811e+55
1.5900302e+55
-6.7613813e+52
-1.1816922e+53
3.8193391e+54
2.2484042e+54
1.7354236e+55
-8.9120319e+53
1.5084372e+55
-2.1670743e+55
-6.5066618e+54
1.1595971e+55
2.1553088e+54
2.35045e+54
-3.6701306e+54
1.1097955e+56
-2.7959685e+54
1.5581201e+53
1.2576908e+56
-1.8222241e+54
2.3465541e+54
4.915671e+55
-3.6280618e+54
-2.0132525e+54
-2.1812972e+54
-3.3116962e+52
2.1819683e+53
-1.0238243e+54
1.1071365e+54
-1.4773018e+54
7.2818305e+52
2.3495974e+54
3.504557e+53
-1.032155e+56
6.1867906e+54
3.6283191e+54
3.7643072e+54
-1.1320465e+55
2.9378805e+55
2.254011e+53
-8.5306124e+53
4.9010796e+53
-2.0925702e+54
-4.5298917e+53
5.230762e+53
8.9132131e+53
1.4534541e+55
-2.0846085e+54
-3.8111078e+54
1.6146488e+53
7.0245944e+54
-1.1181486e+53
-1.3811987e+55
1.3934969e+55
-1.7635247e+53
3.2361116e+55
-5.7250641e+52
1.0634067e+53
8.38195e+53
1.3263188e+52
-5.0624785e+54
-2.5230688e+53
1.7473371e+53
-1.3379972e+54
4.0030777e+53
-4.4104726e+55
-4.7837756e+54
-2.3385178e+53
6.6271517e+53
-6.583151e+54
2.9068426e+55
4.8357714e+53
-1.5210552e+53
3.9250712e+53
2.8690464e+54
2.3298457e+54
-8.1181157e+53
8.3044567e+55
1.5542377e+53
5.4143875e+54
1.7844717e+54
4.4629865e+52
-3.9531838e+53
-5.6959383e+54
-1.6506321e+54
-4.5372929e+54
-4.2610758e+54
-1.117336e+51
-1.0518078e+54
6.1544871e+53
2.4957471e+52
-4.7136824e+52
-1.9240803e+54
2.8647932e+54
4.3184857e+52
-1.0868598e+55
-9.1531349e+54
2.0888911e+54
2.5837518e+54
-7.1373226e+54
-2.8217381e+55
-2.7832478e+55
-2.7540467e+55
-2.8195835e+55
6.341254e+54
-1.1638345e+55
2.044323e+54
1.5029265e+55
-2.3582202e+54
2.0728568e+54
8.0867513e+53
5.1252265e+54
4.7967471e+53
1.1353915e+54
-1.2096974e+56
-2.7511815e+55
-6.5080689e+54
2.2565946e+54
5.616745e+54
-6.8853185e+54
2.1935384e+55
-2.6334911e+54
-2.4827312e+55
2.5733658e+53
-8.9422055e+53
-1.8799559e+54
-1.5342244e+53
-8.8015767e+53
-2.3786536e+55
-1.4202646e+54
-2.565706e+55
-3.8205728e+53
1.9685555e+55
-4.8782492e+54
-1.9311577e+55
4.3604446e+54
-3.0564933e+53
-4.312103e+54
5.7384773e+54
-5.5272864e+53
-1.784797e+55
7.4919562e+53
-1.8413262e+55
9.650136e+53
3.0016261e+53
-1.4523569e+54
6.9949074e+53
1.6059775e+54
-2.3454889e+53
3.6773228e+53
8.6266098e+53
1.9353816e+53
5.5161367e+53
1.0067643e+53
-9.849082e+55
-5.4949149e+55
-9.0345339e+54
-1.94457e+54
9.8220468e+53
-6.0563913e+54
2.6020311e+55
7.9599497e+54
3.5594205e+55
3.0401597e+55
1.6588653e+55
2.0660767e+54
-2.3194859e+55
-5.3418482e+54
-3.7280377e+54
2.1163764e+54
-2.6243587e+54
6.2561891e+53
1.2506589e+55
-2.3483627e+55
-2.7174504e+54
3.6159732e+55
-2.8724183e+55
-3.2776218e+54
-1.9052812e+54
1.5485736e+55
-3.369954e+55
1.2716617e+56
3.317706e+55
-2.193418e+55
-1.5689669e+55
4.3241456e+55
2.362719e+55
1.4677066e+56
-3.3975587e+55
2.1039285e+56
1.6822021e+55
-3.6377227e+54
-1.7524723e+55
4.0569098e+54
-1.1843248e+54
1.3339063e+54
7.1571233e+54
9.0924249e+54
-4.5724153e+53
8.42634e+54
2.0706422e+55
2.4743283e+54
-1.6407309e+54
-2.0469486e+55
-8.2312426e+53
1.5071978e+55
3.0159323e+54
2.5364139e+55
-2.3630361e+55
-5.0823681e+53
4.6217344e+55
4.2484686e+55
4.8244416e+55
-2.5403149e+56
-1.8621893e+55
4.716897e+55
2.5796637e+55
-2.0248565e+55
-1.2798531e+55
3.651285e+55
-1.4452719e+55
-1.8642811e+55
-1.8916955e+53
1.7928836e+53
-1.1022499e+54
8.7774595e+52
-8.0722461e+53
-3.1603086e+54
-1.8119354e+55
-7.0026786e+54
1.8317015e+55
3.1576151e+53
-5.9211959e+53
-3.2061494e+53
-2.7232758e+54
-2.6697055e+55
-5.4123919e+55
-4.5472221e+55
3.6095309e+56
-2.8866507e+53
-1.8150608e+54
5.1071391e+53
1.0107468e+55
-9.6703616e+53
-1.8692337e+55
6.5233466e+54
-1.3275472e+54
-7.6594514e+53
4.1174658e+54
5.8450367e+53
5.9662619e+53
1.4667528e+56
-2.524674e+53
3.1326759e+53
-1.5269648e+54
-7.8344537e+54
-1.1316656e+55
5.5252722e+54
-1.6502116e+55
2.829027e+54
1.6680545e+54
-3.5258581e+53
-1.6968568e+54
2.1424896e+52
-1.5939353e+53
5.5869895e+53
1.9251703e+54
-1.1935285e+54
2.0698398e+55
6.0219998e+54
-4.3113161e+54
-3.7797979e+55
-1.4216185e+53
1.9485591e+52
1.1930017e+54
-1.0894786e+54
3.5417626e+54
-6.9668563e+53
1.1618e+56
-1.9323537e+54
2.4095678e+54
1.465012e+55
5.1648761e+54
1.4840895e+55
3.9864226e+55
1.0607017e+54
-3.8448702e+55
-1.6777983e+54
3.6166424e+54
-1.7114428e+54
3.336034e+54
1.5705025e+54
-9.9458384e+53
-2.7222127e+54
1.837808e+54
6.3692794e+53
-3.3492717e+54
-3.1058445e+55
-1.9658229e+53
-2.6835055e+54
3.7788296e+54
3.0479882e+54
-1.0917689e+52
5.9371658e+53
-9.1485699e+54
3.8171345e+54
1.1173366e+54
5.4678903e+53
-6.1911576e+53
-7.8399864e+54
-4.0748801e+53
1.2424831e+53
-4.7806874e+54
-9.9798634e+55
1.5268108e+54
-8.8327195e+53
9.9654268e+54
1.5312155e+55
7.0064541e+54
-1.7402685e+55
-1.3526569e+54
-2.6203931e+55
6.6286706e+55
9.66725e+54
-8.4051399e+54
-1.5482065e+55
8.7679711e+54
5.7045006e+54
1.4175374e+55
1.0213237e+55
8.132673e+55
-1.7744541e+55
1.8902631e+55
4.4134232e+55
-1.2595119e+55
-1.8515565e+55
5.1801759e+54
5.1184786e+55
-1.8833341e+55
1.8370298e+55
-6.5368431e+53
5.0177503e+55
-5.9469027e+54
-5.7322576e+53
9.0231693e+53
-1.8375095e+54
-6.8416178e+55
-1.4341989e+54
-5.9204388e+55
-9.6798895e+54
-3.2596732e+55
-1.334879e+54
-2.9167878e+54
3.2360226e+53
-2.2311874e+53
1.5010576e+55
-1.1735398e+56
-3.796506e+55
3.6924057e+54
2.9837153e+55
1.3742668e+55
2.0641057e+54
3.5439823e+54
-2.1744474e+55
1.0530086e+56
-2.7719291e+55
-2.1486497e+55
9.2105595e+55
6.4040532e+54
-2.9380271e+53
6.9494787e+54
6.3848344e+54
-1.0974937e+55
2.274589e+55
2.901132e+55
-3.0357357e+54
2.3292916e+53
-2.0216088e+55
-8.9886853e+54
-9.4380145e+54
-2.4112593e+55
1.8635118e+56
-2.2652019e+55
-4.6968237e+54
1.3669877e+56
-1.2017956e+55
1.4701056e+54
-5.3023934e+52
-2.3614507e+53
-1.0664836e+55
-2.8101817e+53
-6.4116812e+53
-7.6313858e+53
-5.9373965e+55
4.1199965e+54
3.9229371e+54
7.4717119e+55
-5.1157079e+54
7.332066e+53
2.9911478e+52
2.8695606e+53
3.0482814e+54
-1.0121138e+55
2.9377855e+54
-7.9486471e+54
3.9953256e+54
-7.1500591e+54
-1.5025771e+56
-1.6063543e+55
-8.5674215e+54
-8.316749e+54
3.0096419e+54
3.2197901e+54
-1.9585916e+54
1.5127873e+55
-2.2499717e+55
-1.8071406e+54
1.783788e+55
-2.4185703e+55
-1.5398284e+54
-3.7113472e+54
-2.5231087e+54
-1.7449346e+53
-2.0041926e+54
-2.2157824e+54
3.6970157e+54
1.6030757e+55
-3.4711404e+54
-5.4526523e+52
1.8622442e+55
1.7426125e+53
-4.5495152e+54
4.4787349e+53
-4.5085848e+54
3.4230063e+53
-1.4546235e+55
-1.4237642e+56
-2.4277979e+55
-1.4044422e+54
5.3759248e+54
9.6213058e+54
5.865381e+53
1.9991598e+55
1.9577994e+54
-2.3257527e+55
-3.6994738e+54
-8.3329742e+53
8.5188239e+53
-3.4814505e+54
2.4369901e+54
-1.4885278e+55
8.6416774e+53
-1.8765481e+55
-8.7287981e+53
7.7833298e+54
5.9065578e+54
-6.7947149e+54
-5.3266689e+54
7.8671126e+53
6.3148716e+54
-5.5103413e+54
1.6643987e+54
-1.3510593e+55
1.4814228e+54
-1.1551248e+55
8.9706119e+53
1.5225679e+54
4.0991663e+53
-1.3924155e+54
-4.4649145e+53
7.05562e+53
3.3664196e+53
-4.5358158e+53
9.1211325e+53
-1.7485383e+54
5.2410205e+53
-1.7398352e+54
5.8781444e+53
1.5966224e+54
2.2118031e+53
-3.1512261e+53
8.8197894e+52
-2.3195423e+53
-1.7761647e+54
-2.7308641e+55
-1.0311914e+56
-1.0183734e+55
1.8293156e+55
1.8090982e+55
-8.0476402e+53
2.3118599e+54
1.6010294e+55
1.2338099e+55
3.5351967e+55
2.9368091e+55
3.442727e+55
1.5693674e+55
-2.366369e+55
-1.7849755e+55
2.0131982e+55
-2.983132e+54
2.6706629e+55
-2.2329819e+55
-2.471902e+53
2.2466552e+55
-1.8868314e+55
-7.5263932e+54
-1.8985993e+54
-1.8894854e+55
-3.6256291e+55
1.7905432e+56
-9.7295077e+54
-5.2747868e+54
1.8440902e+55
2.5094705e+55
-2.9332763e+55
1.0838095e+56
-1.3460315e+54
4.844373e+55
3.1105559e+54
-1.289527e+55
3.6229813e+55
1.2644003e+55
-5.5127967e+54
-2.3126381e+55
4.6969511e+54
-3.0744387e+55
1.2185446e+55
2.0609426e+55
1.8445752e+55
-2.1806734e+55
-2.9160536e+54
-1.7134761e+55