/*--------------------------------*- C++ -*----------------------------------*\
  =========                 |
  \\      /  F ield         | OpenFOAM: The Open Source CFD Toolbox
   \\    /   O peration     | Website:  https://openfoam.org
    \\  /    A nd           | Version:  7
     \\/     M anipulation  |
\*---------------------------------------------------------------------------*/
FoamFile
{
    version     2.0;
    format      ascii;
    class       volVectorField;
    location    "10000";
    object      UMean;
}
// * * * * * * * * * * * * * * * * * * * * * * * * * * * * * * * * * * * * * //

dimensions      [0 1 -1 0 0 0 0];

internalField   nonuniform List<vector> 
33730
(
(-7.9682795e+55 2.5299253e+54 -6.5352225e+54)
(-8.5557324e+55 -2.2593908e+54 5.9863311e+54)
(-1.0202154e+56 1.398567e+53 -2.1202937e+54)
(-8.6806132e+55 -7.5920722e+54 -4.2149839e+54)
(-6.9367472e+55 2.0352086e+54 -2.0714412e+55)
(-5.7489116e+55 2.287859e+55 -8.8612649e+54)
(-9.6708941e+55 6.7127772e+54 -2.9709053e+55)
(-8.6470628e+55 8.3720452e+54 -1.3966977e+55)
(-8.5043953e+55 -2.1065591e+54 -8.0068694e+54)
(-9.1769764e+55 -3.7236624e+54 -9.2395477e+54)
(-8.8308058e+55 -4.723394e+54 -1.6768662e+55)
(-7.8842939e+55 -1.7767723e+54 -1.7337613e+55)
(-7.9614239e+55 -8.7016669e+54 1.5422884e+54)
(-1.0537866e+56 -2.0535862e+54 7.0141193e+54)
(-1.3221369e+56 5.7671066e+54 1.7546838e+54)
(-1.2320223e+56 3.0032288e+54 -6.3299739e+54)
(-1.2215789e+56 3.5813044e+54 2.8904087e+54)
(-7.1286904e+55 -1.4174908e+55 1.2505876e+54)
(-1.3484431e+56 1.1064786e+55 5.210018e+54)
(-1.0623823e+56 -2.9691368e+54 -1.2795322e+54)
(-7.4316292e+55 -3.4977454e+54 -5.6422559e+54)
(-7.4729207e+55 -3.4509841e+54 -3.6375879e+54)
(-7.8832554e+55 -4.0747048e+54 -6.2737802e+54)
(-8.1554154e+55 -3.6841005e+54 -7.1486303e+54)
(-8.0597191e+55 -7.2247273e+54 -5.6148254e+54)
(-1.2900209e+56 -5.6994916e+54 -1.6688613e+55)
(-6.5754802e+55 -1.3365248e+55 -6.1980608e+54)
(-1.0312728e+56 -2.2788952e+55 -2.1354668e+55)
(-1.3176142e+56 -1.5163255e+55 -1.6330959e+55)
(-1.4769219e+56 -4.7988573e+54 -1.0557961e+55)
(-5.5427875e+55 -1.526334e+55 -2.1044493e+55)
(-7.8775166e+55 -7.3210427e+54 -1.6654054e+55)
(-8.0089107e+55 -6.5167668e+54 -6.191672e+54)
(-1.263717e+56 9.4557244e+54 -2.5585281e+55)
(-2.8220638e+55 4.5492147e+55 -5.0135951e+54)
(-1.4314317e+56 -9.1445037e+54 -3.5181716e+55)
(-1.3746356e+56 -3.7211632e+54 -3.4390222e+55)
(-8.4286571e+55 -7.3729841e+54 -3.4968067e+53)
(-8.7552207e+55 -8.0238629e+54 -2.9698612e+55)
(-8.3194986e+55 -5.5416518e+54 -3.6184659e+54)
(-9.1400494e+55 4.3946093e+53 -1.9698998e+54)
(-1.0725098e+56 4.7007177e+54 -4.2830081e+54)
(-8.2754202e+55 4.1498463e+54 -8.9982061e+54)
(-9.3460708e+55 -3.9896002e+54 3.6680465e+54)
(-9.9424893e+55 -2.8508818e+54 3.6868631e+54)
(-1.4098193e+56 -1.7934222e+54 -2.4285174e+54)
(-1.4558841e+56 -9.379757e+54 4.0492581e+54)
(-1.2943363e+56 1.6509108e+54 6.21165e+54)
(-5.3764712e+55 -8.3247135e+54 -2.8745516e+54)
(-1.2159873e+56 -2.6761033e+54 -3.4925397e+54)
(-1.0478756e+56 -6.6032427e+54 6.1695562e+54)
(-6.975558e+55 2.5679131e+55 -7.4317353e+54)
(-6.3647999e+55 3.2402168e+55 -1.1689867e+55)
(-1.8613097e+56 -5.8746157e+54 -6.611409e+54)
(-5.1859272e+55 3.4833253e+55 2.9861176e+54)
(-1.4619148e+56 -3.0865139e+54 -2.4106934e+55)
(-1.4240487e+56 -1.1293005e+55 1.5304556e+54)
(-9.4565539e+55 -1.1775669e+55 4.0584435e+54)
(-5.6077737e+55 -8.6409865e+54 1.1763288e+55)
(-1.9616465e+56 2.0791029e+55 -5.5614167e+54)
(-1.0512692e+56 -2.1301986e+54 -1.1798888e+54)
(-7.1555514e+55 -4.0284307e+54 -1.2611621e+54)
(-7.1942685e+55 -4.8741026e+54 -3.261196e+54)
(-7.4447646e+55 -6.9136159e+54 -5.7039583e+54)
(-6.8445582e+55 -7.6451927e+54 -4.4165642e+54)
(-7.1244525e+55 -1.8753542e+54 -2.7262245e+54)
(-7.2539118e+55 -4.2753383e+54 -2.6124791e+54)
(-7.3653597e+55 -6.1435213e+54 -3.6560864e+54)
(-7.6855183e+55 -1.4313553e+54 -2.5276121e+54)
(-7.9036123e+55 5.2803467e+54 -2.2407444e+54)
(-1.04059e+56 -2.3081877e+55 -1.619011e+55)
(-6.9367145e+55 -1.0368768e+55 -5.9961597e+54)
(-7.17969e+55 1.6971515e+54 -5.5638837e+54)
(-3.0850134e+55 -1.192792e+55 -2.2737687e+55)
(-4.5333182e+55 -2.2088943e+55 -1.473637e+55)
(-1.0853258e+56 -1.5845187e+55 -1.1825147e+55)
(-4.7079502e+55 4.7165423e+54 -2.205336e+55)
(-5.3072875e+55 -1.1666027e+55 -2.1492988e+55)
(-7.3151893e+55 -5.6298598e+54 -1.8385341e+55)
(-6.5659608e+55 -1.6757376e+55 -7.2775043e+54)
(-8.249168e+55 -5.0569613e+55 -1.220714e+55)
(-7.3165881e+55 -2.0751963e+55 -3.7463375e+55)
(-1.298314e+56 -3.6288376e+55 1.3604504e+53)
(-9.4290671e+55 -1.3698841e+55 -2.6649503e+55)
(-8.7788175e+55 -5.3765374e+54 -4.8408393e+54)
(-6.3438104e+55 -2.2495911e+55 -1.9535949e+55)
(-9.7023189e+55 -4.9544738e+54 -1.3912583e+55)
(-8.1705231e+55 -1.119423e+55 -5.7401043e+54)
(-1.2449188e+56 -1.3923265e+55 -3.4054222e+55)
(2.5023388e+55 4.5700715e+55 -1.4616809e+55)
(-9.1009002e+55 -2.6056032e+54 -3.6461873e+54)
(-1.2185789e+56 -3.9598478e+55 -4.6608015e+55)
(-1.261696e+56 -1.2197044e+54 -3.3413725e+55)
(-1.1001956e+56 -1.8690854e+55 -2.7121193e+55)
(-5.0455615e+55 -3.31538e+55 -4.8931776e+54)
(-8.5579969e+55 -7.5425345e+54 -4.1986562e+55)
(-8.9281946e+55 -9.928986e+54 -2.3299661e+54)
(-9.4390864e+55 -8.3225868e+54 -9.0153243e+53)
(-8.0358492e+55 -1.0292641e+55 -3.6171e+54)
(-7.2509269e+55 -6.3430297e+53 -6.3364146e+54)
(-1.1053397e+56 -1.7822651e+54 2.5155651e+54)
(-5.4671144e+55 -5.2219957e+54 1.181391e+55)
(-6.5503882e+55 1.3607308e+54 2.8044107e+53)
(-6.5967941e+55 1.3298039e+55 1.5247609e+55)
(-7.1619496e+55 -4.6759931e+54 1.3658434e+55)
(-8.3029019e+55 2.9511717e+54 1.0982418e+53)
(-1.1904836e+56 1.5838892e+55 8.523437e+54)
(-7.6443259e+55 8.7295035e+54 1.5482265e+55)
(-1.5048176e+56 6.8696179e+54 3.8466753e+54)
(-1.3811278e+56 9.3759806e+54 2.6767423e+55)
(-9.6638531e+55 -4.5143141e+54 4.0943688e+54)
(-6.5701484e+55 1.0665025e+54 -1.3914475e+55)
(-1.0019272e+56 -2.3846555e+55 1.401296e+55)
(-8.369274e+55 -2.0743615e+54 -1.4092954e+55)
(-1.4274743e+56 4.9141545e+54 1.595984e+55)
(-8.3981539e+55 2.8481162e+54 3.7183858e+54)
(-8.9954463e+55 4.5005245e+54 -1.0277548e+55)
(-8.1609272e+55 4.4679545e+53 -7.8555966e+53)
(-5.9795007e+55 5.8165481e+52 1.7598865e+55)
(-1.2768825e+56 -4.4402999e+54 -1.125379e+55)
(-9.4933981e+55 -4.4003303e+54 1.1342623e+55)
(-1.4194791e+56 4.0039851e+55 -4.0680638e+54)
(-9.7554045e+55 -1.1615368e+55 -2.5316978e+54)
(-6.8738574e+55 4.1386009e+55 -8.5700553e+54)
(-1.0240788e+56 1.7058948e+54 -5.6640684e+55)
(-6.4163954e+55 4.8974003e+55 7.7767619e+54)
(-4.3690379e+55 -2.7238197e+55 1.8839433e+55)
(-7.0779561e+55 -1.3810916e+55 -2.4605895e+53)
(-1.0777291e+56 -4.1907916e+55 1.2267917e+55)
(-4.7735889e+55 -2.0309096e+55 1.4378966e+55)
(-5.8707452e+55 8.2577646e+54 7.9427112e+54)
(-3.2649777e+55 -1.1221549e+55 -9.256204e+53)
(-2.7836221e+55 -1.1698492e+55 -1.3773053e+55)
(-1.6930955e+56 4.1060526e+54 -1.4110582e+55)
(-1.0055932e+56 5.4689567e+53 2.4003403e+54)
(-7.2872336e+55 -1.8926945e+54 -1.7726489e+54)
(-7.6713663e+55 -4.5485295e+53 -4.3831135e+54)
(-7.3527864e+55 -3.8095225e+54 -3.0434414e+54)
(-7.321348e+55 -1.635166e+54 -1.8999975e+54)
(-6.812125e+55 -4.0662875e+54 -3.1918216e+54)
(-6.8106796e+55 -5.4058752e+54 -3.2239445e+54)
(-7.0232665e+55 -8.8949162e+54 -4.6996521e+54)
(-6.1063905e+55 -9.8741377e+54 -5.5932843e+54)
(-8.6952232e+55 -2.9988927e+54 -2.0653663e+54)
(-8.2723741e+55 -3.9501595e+54 -2.462763e+54)
(-8.7014153e+55 -8.1427855e+54 -2.5422376e+54)
(-8.9691501e+55 -5.144951e+54 -1.8816028e+54)
(-8.1243597e+55 -1.7347263e+54 7.6948934e+54)
(-9.4380765e+55 -1.4884981e+54 -3.4476379e+55)
(-1.3776624e+56 -4.4115099e+54 -1.9495138e+55)
(-7.1007159e+55 8.0429485e+54 8.2303794e+53)
(-6.7671447e+55 8.7190671e+54 -6.5518808e+53)
(-5.057285e+55 1.2221923e+55 -1.0656069e+55)
(-5.3343977e+55 1.3287827e+55 -1.770021e+55)
(-7.1511434e+55 -2.0140429e+54 -2.946723e+55)
(-1.0479319e+56 -6.051598e+54 -3.2785448e+55)
(-1.3213681e+56 -2.7184234e+55 -2.3215692e+55)
(-6.1652977e+55 -1.1323184e+55 -5.3542771e+54)
(-6.9785574e+55 3.4199066e+54 -5.2162656e+54)
(-5.6401932e+55 3.2248484e+54 -2.4725304e+55)
(-3.8937139e+55 6.0139739e+54 -3.5540381e+55)
(-3.2139544e+55 -2.5309439e+55 -1.1947276e+55)
(-7.3543682e+55 -1.4260391e+55 -1.4077401e+54)
(-5.9831158e+55 -7.9129636e+54 -3.2039565e+55)
(-5.3783267e+55 4.0791393e+54 -1.9740724e+55)
(-4.0563856e+55 -1.2864051e+55 -1.460335e+55)
(-1.3141968e+56 5.0641345e+55 -8.2576912e+54)
(-7.4724888e+55 -1.7125665e+55 -4.4820062e+54)
(5.1118848e+55 -2.566892e+55 -5.3077184e+55)
(-1.9830492e+55 -4.3328414e+55 4.7946154e+54)
(-1.1626132e+56 -2.6570431e+55 -5.6389803e+55)
(-7.0779734e+55 9.5312743e+54 1.329906e+55)
(-1.6244161e+56 -4.8371471e+55 2.0888391e+54)
(-1.5173202e+56 -2.7801448e+54 -4.8615284e+55)
(-1.3269922e+56 -4.9851431e+53 -2.6151369e+55)
(-5.7939632e+55 -2.0644126e+55 -1.4763777e+55)
(-7.6864917e+55 -7.2145584e+54 -7.4960363e+54)
(-8.8240751e+55 -1.2688732e+55 -2.8086881e+54)
(-1.3256631e+56 -8.9416213e+54 -3.0854451e+55)
(1.8964878e+54 3.7421228e+55 -1.3609e+55)
(-1.1081493e+56 5.6936452e+53 1.5912267e+55)
(-1.4663754e+56 -3.9397752e+55 -2.9236649e+55)
(-1.4326767e+56 -3.1174267e+55 -4.1165037e+55)
(-7.7094033e+55 1.6363631e+54 -3.5666541e+55)
(3.9091817e+53 -6.6919371e+55 1.6931534e+53)
(-1.0859764e+56 -1.3065935e+55 -3.3157031e+55)
(-8.8185952e+55 -3.5823575e+54 -1.3706493e+55)
(-8.6650592e+55 -8.4425482e+54 -3.8191923e+55)
(-8.8343583e+55 -9.7319033e+54 -2.2080757e+54)
(-9.3048711e+55 -8.8271708e+54 -1.1207073e+54)
(-8.0216434e+55 -6.7149919e+54 -4.0323816e+54)
(-8.0460674e+55 -2.2599524e+54 -5.0044238e+54)
(-1.3888221e+56 -7.6438942e+54 -5.5297016e+55)
(-1.0508363e+56 -9.3693517e+52 5.8362743e+54)
(-7.7291004e+55 -1.3602885e+54 3.5180055e+54)
(-6.8872737e+55 -1.612606e+54 1.1008128e+54)
(-6.8727837e+55 -2.7552538e+54 4.5733858e+54)
(-6.8003864e+55 8.3071129e+53 1.2697132e+54)
(-8.3929937e+55 9.418512e+54 1.1808273e+55)
(-7.1058943e+55 2.9701095e+54 4.6080831e+54)
(-5.6686871e+55 -4.7133278e+54 2.2643373e+55)
(-2.5629272e+55 1.1266905e+54 1.6670015e+55)
(-4.5690575e+55 -2.1199458e+53 1.2665387e+54)
(-8.4827386e+55 -3.5566847e+54 3.4778047e+55)
(-7.4340587e+55 -1.2218666e+55 9.153009e+54)
(-8.9025484e+55 -2.7373434e+54 4.2336488e+55)
(-1.0555454e+56 8.9575672e+54 1.479203e+55)
(-9.3869062e+55 2.2874634e+54 4.1225643e+54)
(-9.8290995e+55 7.3791938e+54 1.1636442e+55)
(-6.0210489e+55 1.8761409e+55 2.9090409e+55)
(-9.2375802e+55 7.4989836e+54 7.8423902e+54)
(-9.8596847e+55 3.3195043e+54 5.123673e+55)
(-8.6875004e+55 9.4814994e+54 2.1502543e+54)
(-6.4188487e+55 3.1637731e+55 7.0083543e+54)
(-1.4263961e+56 4.3799223e+54 5.219801e+54)
(-6.7939667e+55 4.6294315e+54 7.4474004e+52)
(-5.6818489e+55 3.1085682e+55 1.4314761e+55)
(-9.7981991e+55 -9.2015211e+53 1.0907772e+55)
(-6.2694392e+55 2.8448124e+55 -1.5011274e+54)
(-3.7706616e+55 -1.4618082e+55 -3.8810699e+55)
(-1.3025223e+56 2.2229707e+55 2.2412847e+55)
(-4.730739e+55 5.941741e+54 3.1068643e+55)
(-1.2046088e+56 3.0272052e+55 4.329105e+55)
(-8.5702439e+55 1.5634359e+55 -1.4966777e+55)
(-1.3522193e+56 -1.1306511e+55 1.3894302e+55)
(-6.2918496e+54 3.968586e+55 1.538401e+55)
(-9.3538464e+55 -1.3432822e+55 2.6408714e+55)
(-8.0630045e+55 8.9923072e+54 1.0903197e+55)
(-7.8614445e+55 -3.9817231e+54 1.7245091e+55)
(-9.2744109e+55 -1.2931954e+55 1.3392961e+55)
(-1.477122e+56 3.6996574e+54 2.6082176e+54)
(-9.7577135e+55 4.381214e+53 1.2738308e+55)
(-1.3758864e+56 1.4592413e+55 -4.6078246e+54)
(-2.0991364e+56 -3.2308047e+55 3.170455e+54)
(-8.5270081e+55 3.6421431e+55 -1.4254881e+55)
(-1.9299111e+56 -1.7613142e+54 -8.6170904e+55)
(-6.6238136e+55 2.6696238e+55 8.5572426e+54)
(-6.4285328e+55 -9.7387054e+54 -1.7586456e+55)
(-3.0235305e+55 7.650596e+54 6.9812845e+55)
(-4.6907806e+55 -2.3941387e+55 1.4550668e+55)
(-1.4695192e+56 -5.6121704e+55 3.9147556e+55)
(-7.7962131e+55 -6.5288015e+53 1.2579819e+55)
(-8.5958195e+55 4.4975878e+54 -5.5393565e+54)
(-1.346584e+56 3.714455e+54 -1.1466631e+55)
(-1.0577651e+56 5.7125905e+54 -1.7449992e+55)
(-5.2900888e+55 -7.3328649e+54 -2.7941895e+55)
(-2.1353199e+55 -1.6003091e+55 -2.0180519e+55)
(-9.8193563e+54 -1.8485641e+55 -3.3967317e+55)
(-1.8655771e+56 2.2213549e+55 -1.6612123e+55)
(-1.1172891e+56 -1.9885316e+54 7.357532e+54)
(-1.0578767e+56 9.1486971e+53 2.5831632e+54)
(-6.9580757e+55 3.0007647e+54 7.8897221e+53)
(-6.8914473e+55 6.6702346e+54 -3.8177125e+53)
(-7.0354298e+55 2.1966932e+54 -1.9692253e+54)
(-7.4677162e+55 -4.9093414e+53 -5.7641503e+53)
(-7.0995342e+55 -2.3587224e+54 -1.5433233e+54)
(-7.1426729e+55 -8.1495897e+53 -1.7562125e+54)
(-7.00905e+55 -5.8130456e+54 -3.4694931e+54)
(-7.2941128e+55 -2.8342405e+54 -3.3149884e+54)
(-7.7061071e+55 -3.608825e+54 -3.2881325e+54)
(-7.9703682e+55 -4.9642725e+54 -2.7152491e+54)
(-8.4855687e+55 -9.0345928e+54 -3.2427508e+54)
(-7.7998663e+55 -9.1618849e+54 -4.6177685e+54)
(-8.5906816e+55 -2.4708363e+54 -1.6573172e+54)
(-8.443343e+55 -3.4273336e+54 -1.8783288e+54)
(-8.6503499e+55 -7.7591042e+54 -2.1918981e+54)
(-9.0280026e+55 -5.861372e+54 -1.689232e+54)
(-8.9673948e+55 -2.055507e+54 -1.9628483e+54)
(-1.4431275e+56 -3.3594862e+54 1.1821189e+55)
(-1.2804968e+56 1.3097923e+54 -5.4603537e+53)
(-8.9232444e+55 -1.7819936e+55 -1.1015418e+55)
(-6.6600519e+55 -1.8494873e+55 -1.1217005e+55)
(-8.2201569e+55 8.8494376e+54 1.9542497e+54)
(-7.779116e+55 4.4419704e+54 8.1700924e+53)
(-5.4285911e+55 1.7449116e+54 -4.6474303e+54)
(-5.9234409e+55 5.6505053e+54 -9.8706923e+54)
(-4.782226e+55 -8.4112292e+54 -5.6154545e+55)
(-8.6460032e+55 -2.1088461e+55 -3.8866635e+55)
(-6.2777596e+55 1.3382026e+55 -1.8693802e+54)
(-4.9694231e+55 1.1173963e+55 -3.3523956e+54)
(-4.5454954e+55 1.1643152e+55 -1.2428431e+55)
(-1.2022122e+56 -1.8552686e+54 -3.8593975e+55)
(-5.102612e+55 1.6050559e+55 -1.5324303e+55)
(-8.1523356e+55 4.092051e+54 -4.4122998e+55)
(-4.3046628e+55 -1.3594619e+55 -2.1833533e+55)
(-1.0275572e+56 -2.638942e+55 -3.1620537e+55)
(-1.52574e+56 -6.8742461e+54 -2.778362e+55)
(-6.1886635e+55 -1.0080902e+55 -4.217839e+54)
(-7.0504452e+55 2.502788e+54 -2.6285156e+54)
(-1.841555e+55 -6.0972003e+54 -5.178182e+55)
(6.3468536e+54 3.0577188e+54 -4.0494798e+55)
(-8.7140829e+55 6.8454212e+54 -4.6356054e+55)
(-1.046681e+55 -4.0001729e+55 -3.1871338e+54)
(-1.0803672e+55 -1.6763238e+54 -6.0290175e+54)
(-4.8365593e+55 -1.4315906e+55 -3.0595521e+55)
(-4.4675047e+55 -1.0503591e+55 -4.3297205e+55)
(-5.0632512e+55 4.0920685e+54 -1.5034688e+55)
(-3.9499049e+55 -1.5750547e+55 -1.2635922e+55)
(-1.3412188e+56 3.8497509e+55 1.2926235e+54)
(-7.7200857e+55 -1.7012331e+55 -4.5789621e+54)
(-5.7203556e+55 -1.6809395e+55 -3.0652367e+55)
(-7.8345249e+55 -2.4989902e+55 -3.1880501e+55)
(-3.0203941e+55 -3.8800567e+55 2.3541334e+55)
(-1.0606467e+56 -2.3448957e+55 -5.170804e+55)
(-1.408527e+56 1.3441729e+55 -2.9174866e+55)
(-5.601421e+55 -2.3755985e+55 2.2523649e+55)
(-1.7703216e+56 -4.2491623e+55 5.6610065e+54)
(-1.259503e+56 -3.2580349e+54 -3.8237408e+55)
(-1.2335329e+56 -5.5379473e+54 6.0393193e+52)
(-6.2185859e+55 -2.1096954e+55 -1.2853964e+55)
(-8.2620461e+55 -9.3491091e+54 -6.1334923e+54)
(-8.5714979e+55 -1.2907498e+55 -3.0665478e+54)
(-1.6439793e+56 -4.954296e+55 -3.8304492e+55)
(-1.3722226e+56 -2.4868791e+55 1.2734243e+54)
(-1.7222884e+56 -1.7775282e+55 -4.4793003e+55)
(-9.0040143e+55 2.2107755e+54 -2.9839464e+55)
(-3.8978615e+55 -3.4072447e+55 1.0178537e+55)
(-2.3573923e+55 9.2071039e+54 1.0959675e+55)
(-1.4389998e+56 -1.0631948e+55 -3.8061197e+55)
(-1.0110571e+56 -4.2055168e+54 -3.3877854e+55)
(-1.405022e+56 -1.6150029e+55 -5.5439679e+55)
(-1.1796796e+56 -1.5502509e+55 -4.0042275e+55)
(-1.6852695e+55 -1.2823277e+54 -3.3557886e+53)
(-9.6272869e+55 1.2493983e+54 -4.7808752e+54)
(-1.057923e+56 5.3190391e+54 7.1969629e+54)
(-6.6880229e+55 7.1038652e+54 5.0067699e+54)
(-6.9128583e+55 5.1846323e+54 7.5207985e+54)
(-5.0871739e+55 -2.5981047e+54 4.8762963e+54)
(-5.9238985e+55 -7.4502787e+53 1.6597952e+54)
(-8.0667069e+55 6.9677427e+54 2.4382953e+54)
(-7.5431287e+55 3.3349319e+54 4.2684231e+54)
(-8.2517042e+55 3.5191687e+54 5.1840937e+54)
(-7.6683986e+55 5.4371807e+54 2.593995e+54)
(-9.3034697e+55 6.8803574e+54 6.3197909e+54)
(-7.5929832e+55 8.7019751e+54 1.2062864e+54)
(-6.460711e+55 1.7653153e+55 1.0747034e+55)
(-5.7982591e+55 7.7378649e+54 1.1955749e+55)
(-7.8293898e+55 8.5940846e+54 -5.0046474e+53)
(-1.181413e+56 -8.9375169e+53 3.4472307e+55)
(-9.8343375e+55 1.3239152e+55 3.0751416e+55)
(-1.3171821e+56 2.2488609e+54 3.2871949e+55)
(-1.3415236e+56 -5.4732721e+54 2.6530548e+55)
(-7.0908953e+55 1.992451e+54 3.0979833e+54)
(-5.4452188e+55 -8.5492602e+54 8.8525934e+54)
(-1.0749111e+56 -1.0616347e+55 4.1986454e+55)
(-6.9372111e+55 2.9918926e+54 1.6179575e+55)
(-7.6828281e+55 2.483613e+54 3.3017022e+55)
(-9.1765111e+55 -4.7833638e+53 4.9777012e+54)
(-8.4033134e+55 -1.1124504e+55 2.7889808e+55)
(5.9888364e+55 -1.6137855e+55 -1.6376049e+55)
(-7.5433694e+55 -1.5196515e+55 1.9810139e+55)
(-1.2361098e+56 9.1745124e+54 4.0718976e+55)
(-8.626207e+55 9.0150618e+53 2.5854036e+53)
(-1.1976688e+56 -3.3201135e+54 4.2076696e+55)
(-7.6811714e+55 6.7837528e+54 6.0375663e+54)
(-7.9453332e+55 2.178854e+55 1.1247449e+55)
(-8.7694452e+55 7.4746699e+54 4.0815031e+54)
(-1.2998197e+56 -6.7954187e+54 5.5491988e+55)
(-9.4040518e+55 1.0927352e+54 5.2867537e+55)
(-9.3847865e+55 9.1152537e+54 6.258781e+53)
(-5.8814816e+55 2.6249822e+55 -3.4652197e+55)
(-9.6497308e+55 3.3054834e+54 -8.5965611e+54)
(-1.2580501e+56 2.4141766e+55 3.3134422e+55)
(-4.9744077e+54 1.3417842e+55 1.1675863e+55)
(-9.6407386e+55 2.2277248e+54 8.8696475e+54)
(-5.5838657e+55 4.0167292e+55 1.9232233e+55)
(2.4639297e+55 -4.3502084e+54 -4.4747301e+54)
(-1.3332014e+56 3.402977e+55 -6.7450638e+54)
(2.2441783e+55 8.2992504e+54 2.9409363e+55)
(-1.4839189e+56 1.4741735e+55 2.6007428e+55)
(-1.7867674e+56 -2.2306628e+55 1.5533242e+55)
(-6.1977867e+55 2.6771179e+55 1.8566544e+55)
(-2.5137142e+55 -2.982434e+55 4.4155613e+55)
(-6.452169e+55 1.8507004e+55 -1.4234719e+55)
(-8.6737618e+55 -4.1607964e+54 2.183694e+54)
(-1.3238023e+56 2.8564184e+55 1.7678762e+55)
(-1.2371331e+56 1.7456016e+55 2.0214969e+55)
(-1.0465597e+56 8.3013419e+54 1.2646907e+55)
(-1.0282137e+56 2.0216429e+55 1.0440986e+55)
(-2.4855787e+55 -2.4553307e+54 4.4358122e+54)
(-6.9699543e+55 -2.4571024e+55 -8.3147263e+54)
(-1.570304e+56 2.2222863e+55 4.8777462e+54)
(-1.037883e+56 -1.7727749e+54 1.0409622e+55)
(-2.3401516e+56 -1.929454e+55 1.0254416e+55)
(-2.0841344e+56 -1.1650459e+55 -8.3891533e+55)
(-1.7355553e+55 -1.696536e+55 3.3240349e+55)
(-3.5568287e+55 -4.5171566e+54 4.8597832e+55)
(9.6753345e+54 1.5665915e+54 6.8579624e+54)
(-1.4286398e+56 -4.0225773e+55 2.6595281e+55)
(-7.8326969e+55 -1.0283793e+55 9.6833339e+54)
(-1.408354e+56 -2.2194702e+54 4.2098272e+54)
(-1.5841034e+56 -9.9323129e+54 1.0690432e+54)
(-1.4798017e+56 6.8567903e+54 5.4753975e+54)
(-1.2382691e+56 1.0182228e+55 3.2007634e+54)
(-5.0383487e+55 9.6870393e+53 -1.1983179e+55)
(-3.6269374e+55 8.9279671e+54 -1.1328727e+55)
(-3.1812375e+55 1.2883594e+55 -3.5728041e+55)
(-3.307577e+55 -1.5175065e+55 -5.9597836e+55)
(5.9837677e+54 3.379397e+54 1.1468732e+55)
(-4.2943695e+55 -1.4883733e+55 -9.7456977e+54)
(-1.1059416e+56 -1.8800084e+54 7.5711319e+54)
(-7.6436644e+55 -3.8907595e+53 3.3023623e+53)
(-7.9607952e+55 -3.7294043e+53 6.5307829e+53)
(-7.5909788e+55 -3.1414404e+53 -1.6394648e+54)
(-7.0410411e+55 7.8363286e+53 -3.1287989e+53)
(-1.0442016e+56 -3.7441817e+54 9.2277288e+53)
(-7.1972523e+55 1.5890418e+54 -1.7496907e+54)
(-7.658001e+55 2.3968413e+54 -2.2484133e+54)
(-7.7398539e+55 6.1319814e+54 -8.2035892e+53)
(-7.1817663e+55 3.6575726e+54 -6.4021244e+53)
(-6.3023253e+55 1.2392978e+54 -1.1078577e+54)
(-5.0434996e+55 6.5418866e+54 -1.6299449e+54)
(-6.9787371e+55 1.2638781e+54 -1.0472962e+54)
(-7.3580908e+55 -3.0650925e+54 -1.5822569e+54)
(-7.8517595e+55 -1.4546839e+54 -1.9562831e+54)
(-7.5940352e+55 -1.0913941e+54 -1.5703271e+54)
(-7.9211641e+55 -3.4848181e+54 -2.4428959e+54)
(-7.7524078e+55 -7.4495343e+53 -2.2163085e+54)
(-7.9721612e+55 -2.8666875e+54 -2.881398e+54)
(-8.0799998e+55 -4.3429834e+54 -2.256476e+54)
(-8.2327632e+55 -8.6769567e+54 -3.002209e+54)
(-7.8033587e+55 -8.4705013e+54 -4.4317343e+54)
(-6.6390651e+55 3.3460593e+54 -9.1677135e+54)
(-8.6927209e+55 -1.2325922e+55 -2.5234271e+55)
(-7.4477397e+55 -1.1542827e+55 8.7798893e+54)
(-8.1315452e+55 2.6985752e+54 5.6505177e+53)
(-8.803603e+55 -3.9003134e+54 -3.0918079e+54)
(-9.5307184e+55 -1.0170789e+55 -1.9275701e+54)
(-1.0856714e+56 -7.4040011e+54 -2.3348202e+55)
(-7.886347e+55 -2.3024239e+54 -1.152274e+55)
(-7.5539627e+55 3.6038916e+54 -9.1211156e+54)
(-9.999777e+55 -9.146052e+54 2.2408926e+55)
(-7.8456591e+55 2.6679697e+54 -7.7007717e+54)
(-7.6536333e+55 -3.0181455e+55 -1.8573899e+55)
(-8.3111375e+55 -1.0141527e+55 -2.9145499e+55)
(-2.7129909e+55 -6.1287037e+54 1.46133e+55)
(-7.598712e+55 -1.4425663e+55 -1.6785064e+55)
(-7.4957629e+55 8.568253e+54 -4.6974867e+53)
(-8.4164621e+55 2.4209532e+54 -1.1553581e+54)
(-7.2383229e+55 5.8623536e+54 -8.1489258e+54)
(-7.6021297e+55 1.0786429e+55 -1.0900604e+55)
(-1.1635875e+56 -9.5701598e+53 -6.8840474e+55)
(-9.9828374e+55 -1.4902125e+55 -4.1543094e+55)
(-6.5358608e+55 6.7348329e+54 -3.0239158e+54)
(-5.3989982e+55 8.3011605e+54 -4.6243943e+54)
(-4.0331529e+55 -2.0773912e+54 -6.0141202e+55)
(-5.3522331e+55 1.2297215e+55 -1.2912664e+55)
(-7.1923157e+55 -1.6443324e+55 -4.2911225e+55)
(-7.5946001e+55 1.5968094e+55 -6.0203999e+55)
(-5.0920143e+55 1.2889379e+55 -1.485431e+55)
(-6.7200145e+55 -7.8122137e+54 -5.1853624e+55)
(-5.6348921e+55 -2.1615292e+55 -2.8725436e+55)
(-9.7875255e+55 -1.3334792e+55 -5.5188921e+55)
(-1.741197e+56 -2.516501e+55 -1.7260358e+55)
(-6.4858599e+55 -9.5606715e+54 -4.2044373e+54)
(-7.0490416e+55 2.1334087e+54 -2.5298423e+54)
(4.6685705e+55 -1.6067638e+55 -3.0819286e+55)
(-4.3755338e+55 -3.5009598e+54 -6.2082968e+55)
(-4.725509e+54 1.0086738e+55 -3.3833151e+55)
(-9.0122233e+55 2.9896401e+54 -4.1303398e+55)
(-1.0891593e+55 -2.0027059e+55 1.6538232e+54)
(-3.9753351e+55 5.1094753e+54 6.7362124e+54)
(-1.7211956e+55 -5.1117267e+54 -1.3669284e+55)
(4.9497869e+55 -4.850521e+54 -3.1649348e+54)
(-5.4952034e+55 -1.5442231e+55 -5.0936016e+55)
(-5.6259743e+55 4.4256106e+54 -1.2706805e+55)
(-5.2256695e+55 -1.5121463e+55 -9.8880282e+54)
(-4.9780454e+55 -3.0472956e+55 -2.1192221e+55)
(-9.1213505e+55 -6.5617904e+54 1.7604272e+55)
(-1.5119264e+56 -1.4900975e+55 -3.7139238e+55)
(-1.1603065e+56 -2.2576565e+55 -4.673731e+55)
(-1.750482e+56 1.21706e+55 -3.1091205e+55)
(-1.2612325e+56 4.4428019e+55 2.694003e+55)
(-6.75019e+55 -4.1031666e+55 2.0063527e+55)
(-1.3471346e+56 -3.1079469e+54 -3.3725496e+55)
(-1.4150188e+56 -3.0222084e+55 3.8765929e+54)
(-1.4553893e+56 -1.9279028e+55 -4.2284417e+55)
(-1.5146401e+56 -1.3484758e+55 -4.8700271e+55)
(-4.174146e+55 5.8110901e+54 2.1488783e+55)
(-5.2836361e+55 -1.8755358e+55 1.6243501e+55)
(-1.4180029e+56 -7.1101505e+54 -4.4940871e+55)
(-7.2526431e+55 -4.3856896e+54 -2.3744726e+55)
(-3.4245216e+55 -5.1256658e+54 5.0751221e+55)
(-4.6338422e+55 2.1307317e+55 -2.1853257e+54)
(-9.5031412e+55 1.650858e+54 -3.4905778e+54)
(-6.2978365e+55 2.4961131e+54 -1.0332292e+54)
(-7.9891914e+55 2.4712778e+54 -2.4313093e+54)
(-6.9641377e+55 4.1975385e+54 2.7995499e+53)
(-7.9098593e+55 3.8544025e+54 -3.1850155e+54)
(-1.0483104e+56 1.2984485e+54 3.9389457e+54)
(-7.2338865e+55 6.0358309e+54 2.8847485e+54)
(-7.4479317e+55 6.3537394e+54 5.8840935e+54)
(-8.0285854e+55 5.9057017e+54 5.7875363e+54)
(-7.1005676e+55 6.9388968e+54 2.8245794e+54)
(-7.2231397e+55 6.5886422e+54 3.2003587e+54)
(-7.8259919e+55 8.0965454e+54 3.3649376e+54)
(-7.9681792e+55 1.8232294e+54 5.4644764e+54)
(-7.8961859e+55 3.5576142e+54 4.6845947e+54)
(-9.4993362e+55 7.263818e+54 2.0080081e+54)
(-8.6893795e+55 3.2221511e+54 2.3934752e+54)
(-9.1405418e+55 3.9360854e+54 1.550904e+54)
(-8.7674043e+55 5.3477914e+54 2.0485234e+54)
(-8.7277096e+55 -6.6534955e+54 1.9759462e+54)
(-7.8852131e+55 6.149478e+54 7.3915731e+53)
(-7.024857e+55 4.8225592e+54 1.0937884e+55)
(-7.0477263e+55 1.2671764e+55 5.524159e+54)
(-7.4992358e+55 8.6996857e+54 1.7689026e+54)
(-1.2602614e+56 2.1091286e+55 1.6909907e+55)
(-1.2396e+56 2.1107736e+54 3.5766045e+55)
(-1.3539243e+56 1.8565285e+55 2.4148542e+55)
(-1.3536496e+56 1.7546326e+55 3.748924e+55)
(-8.2215499e+55 1.0955006e+55 1.1846258e+54)
(-6.6119464e+55 1.6076781e+55 1.1300097e+54)
(-1.018428e+56 2.1897777e+55 4.0197114e+55)
(-6.2479876e+55 3.3191302e+54 4.5336429e+54)
(-7.9399452e+55 7.2581139e+54 3.3803566e+55)
(-8.0573791e+55 8.3156007e+54 1.7136741e+54)
(-1.0749829e+56 -1.5939316e+55 1.2508853e+55)
(-8.2267777e+55 1.3541287e+55 4.9479392e+55)
(-6.5143675e+55 -7.3410013e+54 4.5938783e+55)
(-9.0293778e+55 -3.3451434e+55 1.8578717e+55)
(-7.8399651e+55 2.6814875e+52 1.8168374e+54)
(-1.093582e+56 -1.8515836e+55 3.8324811e+55)
(-4.9156449e+55 -9.6584284e+54 4.3005455e+54)
(-1.0397607e+56 -2.1469055e+55 3.8260258e+55)
(-5.1049667e+55 6.4331395e+53 1.0150522e+55)
(-1.5894879e+56 6.1214936e+54 5.2937808e+55)
(-2.9854551e+55 -4.5330923e+53 2.9258405e+55)
(-7.4880648e+55 -4.0315082e+54 1.6467977e+54)
(-4.7577006e+55 1.3504509e+55 2.5938298e+55)
(-7.1392727e+55 -1.906374e+55 5.2757619e+55)
(-5.5313649e+54 -1.5538761e+55 1.7792308e+55)
(-1.3860695e+56 1.1903949e+55 2.6763809e+55)
(-9.1363869e+55 2.5404941e+54 8.1275438e+53)
(-9.7660862e+55 -3.255856e+54 3.746564e+55)
(-6.5291816e+55 -1.4326252e+55 2.3115386e+55)
(-7.9995111e+55 5.9809815e+54 4.3784462e+54)
(-3.9318694e+55 2.5519992e+55 2.0593652e+55)
(-9.2674587e+55 7.0305058e+54 2.5113801e+54)
(-1.1362994e+56 -6.7502812e+54 4.8291527e+55)
(-1.3287148e+56 -2.9377787e+55 4.6632294e+55)
(-6.2118555e+55 -5.9854994e+55 2.05292e+54)
(-9.9969982e+55 1.1109359e+55 8.0166029e+53)
(-7.9044893e+55 1.7238803e+55 -3.9233199e+55)
(-1.1615618e+56 -6.6482059e+55 -1.2241573e+55)
(-1.3500334e+56 2.5253267e+55 3.8679183e+55)
(-4.1412258e+55 -7.6181835e+54 -6.0055232e+54)
(-1.0276983e+56 -3.9543476e+54 5.5204466e+54)
(2.087658e+55 1.3801423e+55 -2.8302994e+55)
(1.4050323e+55 -1.675734e+55 4.1595289e+55)
(-1.258783e+56 1.317944e+55 -5.0448411e+54)
(-8.623183e+55 3.5499987e+55 1.6666078e+55)
(-7.3302207e+55 -1.2985487e+55 3.413753e+55)
(-6.6032284e+55 2.2375737e+55 3.7030487e+54)
(-7.0509746e+55 -1.05385e+55 1.6356087e+54)
(-1.8299503e+56 -1.5636952e+55 2.9353545e+54)
(-1.3864801e+56 -1.2221278e+55 5.5108458e+54)
(-1.2639208e+56 -5.0898397e+53 7.0518499e+54)
(-1.4767061e+56 -1.8427853e+54 3.3353284e+54)
(-1.3441764e+56 4.4412231e+55 -1.9685425e+55)
(-6.1956025e+55 4.6442705e+55 1.7960225e+55)
(-1.0892729e+56 1.8597138e+55 2.3200018e+54)
(-8.9815197e+55 3.6778685e+55 -1.3602051e+55)
(1.3868632e+55 6.2289935e+55 -1.4405097e+55)
(-1.3478494e+55 -1.4989953e+55 -1.2881727e+55)
(-1.0235115e+56 -6.1824529e+54 7.7460408e+54)
(-3.8290515e+55 -1.6374488e+55 3.7953726e+55)
(-8.0530839e+54 8.1780461e+54 1.8706228e+55)
(-6.394952e+55 -2.4007561e+54 1.0754028e+55)
(-1.1603132e+56 -1.0503103e+55 2.7782473e+54)
(-1.1750094e+56 -1.1895443e+55 3.2523054e+54)
(-1.0239456e+56 3.0798137e+54 3.7939357e+54)
(-9.4903043e+55 -8.1634058e+54 -1.7691247e+54)
(-1.5462541e+56 -1.0206651e+55 3.3685381e+53)
(-1.3535937e+56 -2.58033e+55 -1.0982317e+55)
(-1.102025e+56 6.5987634e+54 4.1230107e+54)
(-1.1781808e+56 1.9093404e+55 2.6700003e+54)
(-2.1797627e+55 2.2347772e+54 3.4084498e+55)
(-6.9906386e+55 2.4319048e+55 4.0795967e+55)
(-5.901135e+55 3.6278363e+55 -3.1147895e+55)
(5.968696e+55 -1.7612973e+55 -4.8094089e+55)
(-4.1909521e+54 1.4623691e+54 1.7937409e+55)
(-4.8926739e+55 -1.0179731e+55 -1.7010393e+54)
(-1.2017384e+56 -2.6824211e+54 9.5000727e+54)
(-1.0920292e+56 -3.6932231e+54 7.4611441e+54)
(-7.8841385e+55 9.6249778e+53 1.8981821e+54)
(-7.6809783e+55 -9.7186273e+52 1.1757839e+54)
(-7.0676985e+55 2.3135082e+54 3.3952727e+53)
(-7.2052783e+55 9.7491052e+53 -1.3821343e+53)
(-7.5867575e+55 -1.927712e+54 -5.0219395e+53)
(-7.6645581e+55 -1.703233e+54 -5.4254265e+53)
(-7.625635e+55 -2.5206305e+54 -1.6385305e+54)
(-7.4695958e+55 -1.6058998e+54 -1.5794154e+54)
(-1.00865e+56 -2.2123645e+54 -8.6048437e+53)
(-7.186307e+55 -3.3963694e+54 -1.6861912e+54)
(-7.9600699e+55 -3.2270336e+54 -3.2509072e+54)
(-7.8265909e+55 -2.5321328e+53 -7.2983212e+53)
(-7.3918463e+55 -8.9154724e+53 -7.4515195e+53)
(-7.1409829e+55 2.6582251e+52 -2.3631891e+54)
(-7.5817501e+55 9.2218213e+53 -2.270661e+54)
(-7.0533827e+55 5.8845775e+54 -9.9571605e+53)
(-7.1390248e+55 3.4813621e+54 -1.7830266e+54)
(-7.6673494e+55 9.0271445e+53 -3.2419435e+54)
(-7.018448e+55 2.7538124e+54 -2.4433983e+54)
(-7.8637577e+55 -2.4653466e+54 -2.0383175e+54)
(-7.8739639e+55 -3.1522019e+54 -2.6789068e+54)
(-8.1210482e+55 -1.239828e+54 -1.8101479e+54)
(-8.0078132e+55 -1.1703177e+54 -1.8197525e+54)
(-8.0716565e+55 -2.3338738e+54 -2.3890068e+54)
(-8.1584698e+55 -1.0673076e+53 -2.0300534e+54)
(-8.694519e+55 9.3074067e+53 1.6991112e+54)
(-1.2635036e+56 1.4232955e+54 -2.7917103e+55)
(-7.0558618e+55 -6.3030868e+54 -3.5181132e+54)
(-6.5977243e+55 -9.0491788e+54 -6.7249095e+53)
(-1.2084197e+56 7.9076885e+54 -4.1564366e+55)
(-4.7909562e+55 6.9251121e+54 -3.8633008e+55)
(-5.4182462e+55 -4.0852644e+54 -8.1417014e+54)
(-5.4573842e+55 -1.0609021e+55 -1.4755202e+55)
(-5.7229041e+55 -1.2981386e+55 -1.2452926e+55)
(-4.4320525e+55 -2.2998951e+54 -2.3215874e+55)
(-1.1294928e+56 -8.0418247e+54 -3.9950083e+55)
(-4.3457579e+55 -2.2840673e+55 2.9589586e+54)
(-6.7761427e+55 2.1155246e+54 -9.0986473e+53)
(-6.8595455e+55 -8.9607962e+54 2.8351401e+53)
(-7.9922756e+55 -1.2660872e+54 -2.2997034e+55)
(-4.9839387e+55 -7.5259089e+54 -3.2314472e+55)
(-1.4613493e+56 -8.8539989e+54 -3.3654463e+55)
(-6.4730104e+55 -1.166176e+55 -9.2912398e+54)
(-6.1875601e+55 8.684648e+54 -1.0166843e+55)
(-1.5980787e+56 -2.0814297e+55 2.659055e+55)
(-9.1066269e+55 -3.9706475e+54 -3.3366843e+55)
(-5.8999711e+55 -3.0248704e+55 -3.4967801e+55)
(-2.7766327e+55 -3.7546442e+55 -3.7153267e+55)
(-8.9423682e+55 -5.9164661e+54 -5.8720954e+55)
(-4.916595e+54 -4.9929764e+54 4.1911727e+54)
(-2.2630673e+55 -4.5040283e+54 -1.065138e+55)
(-1.1184817e+56 -5.4896174e+54 -4.1206854e+55)
(-7.6639503e+55 9.2660932e+54 -2.0141925e+54)
(-8.5456781e+55 4.2924231e+54 -9.5058155e+53)