/*--------------------------------*- C++ -*----------------------------------*\
  =========                 |
  \\      /  F ield         | OpenFOAM: The Open Source CFD Toolbox
   \\    /   O peration     | Website:  https://openfoam.org
    \\  /    A nd           | Version:  7
     \\/     M anipulation  |
\*---------------------------------------------------------------------------*/
FoamFile
{
    version     2.0;
    format      ascii;
    class       volScalarField;
    location    "6000";
    object      k;
}
// * * * * * * * * * * * * * * * * * * * * * * * * * * * * * * * * * * * * * //

dimensions      [0 2 -2 0 0 0 0];

internalField   nonuniform List<scalar> 
34124
(
1.5014986
1.5029272
1.5011703
1.5013022
1.5045001
1.5026875
1.5024713
1.5009639
1.5008276
1.5013385
1.5061131
1.5043264
1.5039793
1.5025061
1.5019712
1.5025555
1.5013989
1.5009852
1.5009525
1.5016217
1.5057403
1.5060833
1.5080017
1.5044015
1.5037327
1.5040494
1.5026562
1.5021349
1.5021149
1.5027726
1.5012868
1.5013601
1.5011083
1.5012957
1.5012585
1.5057625
1.5057238
1.5076633
1.5064227
1.5082204
1.5098605
1.5043597
1.5038047
1.5038337
1.5043181
1.5024569
1.5029719
1.5023648
1.5024806
1.5023646
1.5012768
1.5010779
1.5010795
1.5012869
1.5012324
1.5018461
1.5057611
1.5062119
1.507647
1.5060689
1.5078382
1.509495
1.5068963
1.5089872
1.510353
1.5120525
1.5042267
1.5051088
1.5041547
1.5040271
1.5037636
1.5024981
1.5026213
1.5024614
1.502675
1.50238
1.5030091
1.5016987
1.5010774
1.5008859
1.5010972
1.5013201
1.501691
1.5031067
1.5062351
1.5061395
1.5077908
1.5057018
1.5080025
1.5096386
1.5068055
1.5086549
1.5098892
1.5119055
1.5078941
1.5102908
1.5113332
1.5126052
1.5143858
1.5045314
1.5045433
1.5045409
1.5041951
1.5038834
1.5045372
1.5029676
1.5024039
1.5022177
1.5022876
1.5025699
1.5029481
1.5040872
1.5016696
1.5024001
1.5008319
1.5010045
1.5015265
1.5014564
1.5024094
1.5048043
1.5067606
1.5061865
1.5085162
1.5058793
1.5081722
1.5099874
1.5079292
1.5063621
1.5100542
1.512108
1.5076386
1.5100055
1.5109601
1.5123579
1.5143981
1.507836
1.5113422
1.5129007
1.5135569
1.5147398
1.5156842
1.5043342
1.5043243
1.5041297
1.5043229
1.50417
1.5045345
1.5055357
1.502847
1.5041335
1.5021335
1.5021142
1.503273
1.5027601
1.503421
1.5047689
1.5011714
1.5010974
1.5017824
1.5011552
1.5014642
1.5017117
1.5020915
1.5029042
1.5042887
1.5062879
1.5079413
1.5095431
1.5060765
1.5086524
1.5109141
1.5082098
1.506538
1.510382
1.5123079
1.5082801
1.5100936
1.5070052
1.5128222
1.5145093
1.5077037
1.5113473
1.5124737
1.5133567
1.5147296
1.5157338
1.5078315
1.5109511
1.5136548
1.5145563
1.5152675
1.5158053
1.5163537
1.5042086
1.5059378
1.5040363
1.5052079
1.5058658
1.5045461
1.5048592
1.5065181
1.50274
1.5023361
1.5030834
1.5025102
1.502927
1.5033556
1.5030934
1.5035493
1.5045679
1.5008989
1.5013439
1.5014927
1.5017828
1.5011062
1.5011739
1.5029809
1.5021382
1.502914
1.5010292
1.5060867
1.5098708
1.5081726
1.5075659
1.5116947
1.5121317
1.5084553
1.5068045
1.5110824
1.5131075
1.5085496
1.5103555
1.5064958
1.5128289
1.5145045
1.5106537
1.5088644
1.5126212
1.5076921
1.515093
1.5157789
1.5080986
1.5110894
1.5135863
1.5141981
1.5151492
1.5157805
1.5163587
1.5111964
1.5079096
1.5134201
1.5148249
1.5155355
1.5159251
1.5163304
1.5165166
1.5044787
1.5041339
1.5046396
1.5045073
1.5053847
1.5055604
1.5044912
1.5052491
1.5064204
1.5019552
1.5025325
1.5026302
1.5029767
1.5022149
1.5027121
1.5045535
1.5029091
1.503581
1.5023514
1.5007919
1.5010546
1.5008638
1.5013353
1.5011651
1.501048
1.5022134
1.5019799
1.502101
1.5006743
1.5021518
1.5067531
1.5084154
1.5066286
1.5115896
1.5124866
1.5067155
1.5075104
1.5110149
1.5135034
1.5139546
1.5090242
1.5108913
1.5061924
1.5132245
1.5148675
1.5106954
1.5084109
1.5124333
1.5068142
1.5148871
1.515716
1.5108355
1.5129363
1.5093986
1.514691
1.5079309
1.515774
1.5163245
1.5110512
1.5075906
1.5132907
1.5146725
1.5153065
1.5158327
1.5163059
1.5165016
1.5105017
1.5130068
1.5087032
1.5145154
1.515502
1.5159889
1.5162953
1.5165001
1.5165036
1.5036228
1.5040086
1.5040788
1.504552
1.5039847
1.5047682
1.5061764
1.5045677
1.5053521
1.5045368
1.5017583
1.5023674
1.5020604
1.5022859
1.5023227
1.5025157
1.5040207
1.5040053
1.502792
1.5018058
1.503545
1.5012684
1.5003817
1.5004159
1.5012584
1.5012516
1.5014556
1.5016778
1.5018633
1.5026179
1.5004576
1.5010527
1.5034904
1.5095617
1.5058873
1.5064234
1.5092782
1.5112066
1.5064915
1.5092439
1.5132382
1.5140685
1.5066023
1.5105577
1.5068621
1.5129418
1.5144856
1.515023
1.5110747
1.5080991
1.5128816
1.5062565
1.5146091
1.5156205
1.510425
1.5127373
1.508671
1.5142776
1.5070126
1.5155974
1.5162486
1.5127772
1.5109746
1.5146182
1.5098411
1.5156673
1.506431
1.5162048
1.5164865
1.5101037
1.5127267
1.507349
1.5143096
1.515273
1.5158091
1.5162354
1.5164763
1.516492
1.5124048
1.5105635
1.5140707
1.5078951
1.5151338
1.5158813
1.5162421
1.5164677
1.5164873
1.5164356
1.50303
1.5039936
1.5037906
1.5038858
1.5039995
1.5044806
1.5058391
1.5064875
1.5045321
1.5037772
1.5051761
1.5020897
1.5011628
1.5015979
1.5029846
1.5020164
1.5026795
1.5031544
1.5039246
1.5050308
1.5012957
1.5020334
1.5048323
1.500463
1.5009165
1.5010194
1.5004467
1.5015369
1.5004191
1.5010369
1.5013515
1.5022189
1.5042173
1.5006944
1.5026796
1.5047285
1.5116445
1.5078688
1.5097704
1.5056986
1.506143
1.5052964
1.5104611
1.5125298
1.5136651
1.5064587
1.5093167
1.5119959
1.5143699
1.5149674
1.5064758
1.5100859
1.5126094
1.5069028
1.5141645
1.5150464
1.5155554
1.5104447
1.5130657
1.5081439
1.5141664
1.5062979
1.515353
1.516141
1.5123881
1.5103844
1.5143592
1.5089056
1.515345
1.5057174
1.5160795
1.5164445
1.5125922
1.5142766
1.5110024
1.5154943
1.5089955
1.5161855
1.5076536
1.5162322
1.5164605
1.5120477
1.5097416
1.5137686
1.5073125
1.5149391
1.5156892
1.5161616
1.5164323
1.516455
1.5164302
1.511642
1.5134632
1.5098336
1.5146535
1.5087307
1.5155427
1.5161174
1.5164067
1.5164516
1.5164404
1.5163305
1.5032944
1.5027189
1.5036128
1.5050794
1.5036077
1.5042059
1.504861
1.506378
1.5072832
1.5028031
1.5039316
1.5068629
1.501153
1.5022045
1.502532
1.5014234
1.5029513
1.5009645
1.5021977
1.5028981
1.5043945
1.5061619
1.5015402
1.5040735
1.5059894
1.5005652
1.5006672
1.5007852
1.5014102
1.5013294
1.5015254
1.5004368
1.5010943
1.5015501
1.5035795
1.5027504
1.5025191
1.5044924
1.5030861
1.5097091
1.5118687
1.5131134
1.5082902
1.5075265
1.5090025
1.5056231
1.5056237
1.5049819
1.5060063
1.5099504
1.5126615
1.5141472
1.5146192
1.5072881
1.5093774
1.5120291
1.5141815
1.5150361
1.5153305
1.5063153
1.5118534
1.5089176
1.5136552
1.5064296
1.5148319
1.515479
1.5160104
1.5121524
1.5098784
1.5143562
1.5081906
1.5149933
1.5046045
1.5159566
1.5163887
1.512106
1.5139064
1.5101323
1.5152466
1.5083858
1.5159645
1.506667
1.5160854
1.516406
1.5139208
1.5122038
1.5151566
1.5106935
1.5159672
1.5094859
1.5163742
1.516409
1.5110713
1.5131368
1.5091841
1.5143968
1.5081719
1.5153835
1.5159891
1.5163763
1.5164045
1.5164085
1.5163297
1.512634
1.5110359
1.5141194
1.5095453
1.5151751
1.5158876
1.5162452
1.5163757
1.516412
1.5163647
1.5161994
1.5023977
1.5039883
1.5047523
1.5037975
1.5046118
1.5019862
1.5033514
1.5045134
1.5065923
1.5085154
1.503609
1.5063384
1.508264
1.5017463
1.5017716
1.5019963
1.5028805
1.5019647
1.5027597
1.5011356
1.5023816
1.5036459
1.5054084
1.5053552
1.5046245
1.5055901
1.5057205
1.5007844
1.5005513
1.5015167
1.5007391
1.5010928
1.5031697
1.5021364
1.5010103
1.5013907
1.5036474
1.5029253
1.5012398
1.5048605
1.5029013
1.504368
1.5091546
1.5115758
1.5099958
1.511527
1.5132766
1.514167
1.5074755
1.5072397
1.5077329
1.5094855
1.5063466
1.5043196
1.5058199
1.5047008
1.5075359
1.5117115
1.5096129
1.5138868
1.515083
1.5152266
1.5065852
1.5114282
1.5080412
1.5134949
1.5149625
1.5154391
1.5156629
1.5051868
1.5103716
1.5130164
1.5082471
1.5143917
1.5065625
1.5054709
1.5152825
1.5157999
1.5163265
1.5158909
1.511543
1.5135195
1.5093258
1.5151272
1.508051
1.5156292
1.5056888
1.5040106
1.5159401
1.5158808
1.5163432
1.5134821
1.511517
1.5147864
1.5099698
1.5157766
1.5090313
1.5162205
1.5163717
1.513187
1.5148488
1.5121836
1.5156427
1.5110684
1.5163125
1.5112287
1.5163601
1.5163517
1.512254
1.5105357
1.5138882
1.5089278
1.5150378
1.515792
1.5162148
1.5163377
1.5163645
1.5163424
1.5161871
1.5122115
1.513486
1.5109087
1.514827
1.510511
1.5155818
1.51618
1.516294
1.516366
1.5162695
1.5160813
1.5031158
1.5035426
1.5036281
1.5045512
1.5035133
1.5041695
1.5027544
1.5028437
1.5036632
1.5039774
1.5059342
1.5074925
1.5087901
1.5077542
1.5082841
1.5091877
1.5018923
1.5015409
1.5025862
1.5016173
1.5023661
1.5038283
1.5036373
1.5020548
1.5030116
1.5054701
1.5053087
1.5033425
1.5065021
1.5054649
1.5067544
1.5005769
1.5011452
1.5006864
1.5007762
1.503087
1.501651
1.5045608
1.501875
1.5050607
1.5012336
1.500764
1.5030019
1.5035714
1.5018984
1.51084
1.5088295
1.5087411
1.5130515
1.511614
1.5092565
1.5112768
1.5129632
1.5145507
1.5150202
1.5088364
1.5075978
1.5071898
1.5072268
1.5097466
1.5058128
1.5056439
1.5046692
1.5053163
1.5049774
1.5060777
1.5070344
1.513233
1.51097
1.5094521
1.5149593
1.5154762
1.5155349
1.5062372
1.5130318
1.5096109
1.5075369
1.514477
1.5154112
1.5156462
1.5156144
1.5156608
1.5056175
1.5057919
1.5120025
1.5099655
1.5138514
1.508168
1.5150156
1.5055543
1.5156659
1.5161306
1.5162635
1.5162024
1.5129896
1.5108367
1.5144021
1.5093583
1.5155913
1.5099034
1.5159866
1.5045781
1.5158894
1.516318
1.5125202
1.5144724
1.5115062
1.5152776
1.5106903
1.5161361
1.5111651
1.5162626
1.5163615
1.5141775
1.5129862
1.5154507
1.5126595
1.5160431
1.5132643
1.512405
1.5164216
1.5160578
1.5162224
1.5118688
1.5132301
1.5104762
1.5146509
1.5098023
1.5155547
1.5161458
1.5162592
1.5163407
1.5161894
1.5160696
1.5131559
1.5123791
1.514295
1.5153887
1.5117891
1.5126621
1.5159264
1.5160352
1.5163179
1.5163134
1.5162064
1.5164797
1.5032605
1.5028781
1.5040525
1.5029456
1.5039829
1.5056802
1.5052523
1.5046647
1.5030965
1.5047113
1.5042851
1.5073057
1.5084403
1.5065262
1.5092037
1.5091208
1.5089026
1.5015115
1.5019665
1.5017782
1.5020622
1.5039403
1.5032765
1.5060236
1.5033278
1.5067724
1.5030071
1.5022724
1.5061407
1.5057738
1.5041233
1.5007653
1.5005096
1.5004859
1.5016575
1.5008955
1.5028317
1.5024084
1.5010209
1.5073849
1.5014537
1.5004469
1.5040201
1.5037856
1.5011972
1.5040206
1.5124049
1.5105326
1.5103971
1.5086427
1.5089958
1.5140652
1.5131016
1.5113459
1.508956
1.5128644
1.5107777
1.5143148
1.5154096
1.5107938
1.5110604
1.5080505
1.5055536
1.5067377
1.5080766
1.5049531
1.5044703
1.5051048
1.5061071
1.5070631
1.5126773
1.5145897
1.513136
1.5083506
1.5087987
1.5093844
1.5139868
1.5161328
1.515167
1.515654
1.5119531
1.5139956
1.5151558
1.5160572
1.5050399
1.5116196
1.5131468
1.5100125
1.5147221
1.509433
1.5154716
1.516139
1.5162689
1.5117913
1.5141163
1.510884
1.5148841
1.5107519
1.5158863
1.5113676
1.5161908
1.5163686
1.5135356
1.5123305
1.515038
1.5122047
1.5157393
1.5130385
1.5123459
1.516449
1.5158575
1.5162221
1.5139593
1.5148654
1.5132889
1.5159241
1.5144558
1.5151451
1.5120772
1.5163256
1.5165007
1.5155142
1.516122
1.5129246
1.5120721
1.5141404
1.5153761
1.5115359
1.5122671
1.5160045
1.5161671
1.5163373
1.5162035
1.516028
1.516338
1.5133275
1.5140652
1.5150416
1.5158409
1.510776
1.5147126
1.5148288
1.5158978
1.5160779
1.5163442
1.516295
1.5165245
1.5173581
1.5027499
1.5031749
1.5031099
1.5038284
1.5055216
1.5050809
1.5083275
1.5060216
1.5097608
1.5058461
1.5045109
1.5099384
1.5082991
1.5070939
1.5016575
1.5014659
1.5012547
1.504002
1.5022017
1.5055841
1.5053714
1.5027486
1.5079081
1.5034359
1.5015503
1.5070985
1.505785
1.5029746
1.5079659
1.5007694
1.5005524
1.501033
1.5009359
1.5034944
1.5032065
1.5069067
1.5022167
1.5034749
1.5012016
1.5003646
1.5026426
1.5120188
1.5010102
1.5018028
1.5069681
1.5137808
1.5111912
1.5120604
1.5103881
1.5108717
1.508389
1.5145001
1.5129543
1.5106542
1.5093343
1.5128081
1.5141214
1.5127517
1.5127768
1.5118985
1.5125743
1.5111221
1.5104832
1.511679
1.5079907
1.5047322
1.5054958
1.5055551
1.5083921
1.5068739
1.5049309
1.5059255
1.5140008
1.511816
1.5147626
1.5137482
1.5100915
1.5115212
1.5128984
1.5132838
1.5100752
1.5048875
1.5127215
1.5142179
1.5153607
1.5123843
1.5159461
1.5165437
1.5148685
1.5152638
1.5154589
1.5128526
1.5116325
1.5141432
1.5152833
1.5128121
1.512149
1.5159823
1.5161876
1.5163913
1.5128818
1.5116718
1.5145914
1.5120774
1.5153807
1.5129978
1.5128277
1.5164787
1.5156902
1.5162512
1.5133096
1.5141664
1.5128936
1.5155661
1.514178
1.5149411
1.5117834
1.5163905
1.516467
1.5150326
1.5160355
1.5146521
1.5142443
1.5153566
1.5146311
1.5153894
1.516496
1.5157107
1.5103795
1.5162719
1.5165479
1.5163633
1.515182
1.516366
1.5131699
1.5139242
1.514975
1.5159157
1.5105668
1.5144695
1.5146795
1.5160346
1.5163354
1.5162391
1.5160087
1.5160786
1.5165908
1.5144543
1.5148039
1.5156645
1.5076014
1.5147927
1.5158941
1.5148857
1.5158571
1.5155494
1.5161165
1.5158722
1.5161591
1.5168574
1.5173882
1.5162796
1.5028553
1.5029634
1.5024844
1.5066284
1.5051748
1.5093188
1.5090451
1.5068184
1.50992
1.506855
1.5040406
1.5099526
1.5085308
1.5064787
1.5097536
1.5018884
1.501575
1.5027989
1.502592
1.5066304
1.5059302
1.5080849
1.5045935
1.505444
1.5033154
1.5012191
1.505362
1.5125477
1.5026814
1.5043623
1.5113718
1.5009497
1.5021079
1.5012983
1.5023318
1.5027546
1.5020175
1.5026537
1.5035485
1.5019244
1.5072736
1.5049796
1.5007294
1.5019651
1.5104798
1.5136619
1.5013608
1.5051248
1.5124772
1.5124587
1.514998
1.5131412
1.5130009
1.5141451
1.5139729
1.5123587
1.5127978
1.5122364
1.5128628
1.5141211
1.5123386
1.5127178
1.5103039
1.5104658
1.5049468
1.5058206
1.5055843
1.5046422
1.5051788
1.512373
1.5145021
1.5140733
1.5118066
1.5159142
1.514301
1.5147986
1.5148524
1.514407
1.5129896
1.5121269
1.505098
1.5134734
1.5150292
1.5142011
1.5164044
1.516508
1.5166113
1.5158597
1.5140052
1.5148759
1.511265
1.5148781
1.5142413
1.5160826
1.5164323
1.5163096
1.5126484
1.5134107
1.5140859
1.5149568
1.5124141
1.5164795
1.5163875
1.5145842
1.5160208
1.5139682
1.5137523
1.5146561
1.5141478
1.5151422
1.516175
1.5154804
1.5098916
1.5162057
1.5165262
1.5161911
1.5145414
1.5160298
1.5163105
1.5168207
1.5173006
1.5160811
1.5128731
1.5164091
1.5166523
1.5166723
1.5163317
1.5144368
1.514655
1.515751
1.5074157
1.5147621
1.515894
1.5148682
1.5158274
1.5155029
1.5163292
1.5162542
1.5160161
1.5159964
1.5162267
1.516237
1.5108015
1.5145688
1.5161879
1.5164757
1.5161015
1.5159567
1.5154936
1.5164499
1.5183333
1.5177202
1.5122528
1.5032066
1.5029124
1.5100636
1.5090887
1.5101155
1.5077467
1.5086585
1.5078394
1.5036546
1.509063
1.5141417
1.5057204
1.5086038
1.513178
1.5021881
1.5038439
1.5027832
1.5046911
1.505838
1.5042929
1.504277
1.5062715
1.5035075
1.5077712
1.5078361
1.5027877
1.5039633
1.5119451
1.5132963
1.5035288
1.5082905
1.5142362
1.5026851
1.5042362
1.5038558
1.5019945
1.5032685
1.508809
1.5013146
1.5013876
1.5123355
1.5125761
1.5156521
1.5033593
1.5112911
1.5112818
1.5155671
1.5161211
1.5154298
1.5122322
1.5142652
1.5118189
1.5152803
1.5149725
1.514073
1.5124278
1.5132651
1.5137846
1.5137804
1.5132483
1.5137874
1.5138203
1.5158175
1.5121019
1.5124735
1.512527
1.5049623
1.5038018
1.5060645
1.5055314
1.5055446
1.5144361
1.5141367
1.5154105
1.5157212
1.5160738
1.5136673
1.5165669
1.5143393
1.5145888
1.5148056
1.5153302
1.515694
1.5134965
1.5117901
1.5157125
1.5167301
1.5167209
1.5163533
1.5063408
1.5149105
1.5160082
1.5158112
1.516446
1.516448
1.5160433
1.5151339
1.5161096
1.5155589
1.5091909
1.5162607
1.516596
1.5159157
1.5159284
1.516223
1.5165836
1.5171728
1.5155632
1.5126217
1.516248
1.51641
1.5166672
1.5160724
1.5167343
1.5170463
1.5172747
1.5184009
1.5160157
1.5183488
1.5168026
1.516214
1.5106736
1.514573
1.5162365
1.5164852
1.5163722
1.5162695
1.5160449
1.5159652
1.5162004
1.5163689
1.5142983
1.5154593
1.5161548
1.5166309
1.5163541
1.5161468
1.5155667
1.5155864
1.5167761
1.5200089
1.5144106
1.5142648
1.5083287
1.5101084
1.5071672
1.5097931
1.5099925
1.5107146
1.5062935
1.5077554
1.514154
1.5154751
1.5071874
1.5117354
1.5162859
1.5055777
1.5072039
1.506789
1.5049151
1.5064401
1.5084779
1.5037167
1.5038655
1.5120401
1.5130961
1.515475
1.5060764
1.5134909
1.5138674
1.5048622
1.5041665
1.5108274
1.5059222
1.5049367
1.5040349
1.5031385
1.5091742
1.5079098
1.5114126
1.5137423
1.5160428
1.512259
1.5116226
1.5112588
1.5169164
1.515998
1.5165313
1.5166812
1.5166077
1.51529
1.5140233
1.5145287
1.5135338
1.5097968
1.512956
1.5130039
1.5106489
1.5157475
1.5164338
1.5150454
1.5146182
1.5127803
1.5134881
1.5152252
1.5166906
1.5141642
1.5144602
1.512957
1.5154133
1.5157445
1.5154213
1.5148974
1.5160527
1.5166458
1.5168993
1.515349
1.516747
1.5122797
1.5089802
1.5089686
1.5123586
1.5129538
1.516533
1.5166223
1.5165164
1.516278
1.5161464
1.5163724
1.5164868
1.5095488
1.5137988
1.5162803
1.5165172
1.5165985
1.5164392
1.516284
1.5159054
1.5162506
1.5165431
1.5169719
1.5152269
1.5118793
1.5162875
1.5164826
1.5166702
1.5158898
1.5168419
1.5169166
1.5174686
1.5177301
1.5150873
1.5164909
1.5166349
1.5160071
1.5165794
1.5169971
1.5172151
1.5190662
1.518186
1.5192407
1.5195253
1.5176949
1.5160181
1.5160161
1.5162039
1.5167395
1.5165755
1.5163286
1.5160682
1.5159738
1.5159935
1.5162672
1.5155046
1.5150383
1.5173712
1.5168641
1.5169356
1.5167837
1.5157485
1.5160512
1.5151778
1.5140656
1.5156806
1.5150134
1.5146325
1.5095321
1.5105038
1.5104173
1.5088486
1.5098958
1.5104781
1.507747
1.5074437
1.5145474
1.5152228
1.5168482
1.5098318
1.5162818
1.5170949
1.5076041
1.5074084
1.5122404
1.5072953
1.5077952
1.5063573
1.505606
1.5088128
1.5081932
1.5123747
1.5148838
1.5170804
1.5147126
1.5140698
1.5136518
1.5042478
1.506197
1.5031489
1.513599
1.5054751
1.5074585
1.5069836
1.509639
1.5114082
1.514323
1.5277512
1.5143674
1.5108377
1.5043138
1.5193428
1.5171348
1.518157
1.5175329
1.5146772
1.5167002
1.515775
1.5170931
1.5170815
1.5172881
1.5140541
1.5146024
1.5149508
1.5127407
1.5105378
1.5120909
1.5113778
1.5165463
1.5160068
1.5171038
1.5162406
1.5150409
1.512922
1.5154696
1.5150606
1.5167258
1.5159487
1.5124544
1.5159273
1.5168417
1.5169194
1.5160522
1.5166762
1.516592
1.5157485
1.5167774
1.5170483
1.5170135
1.5165064
1.5111882
1.5102404
1.50972
1.5118926
1.5174174
1.5169387
1.5173557
1.5163464
1.5160322
1.5163057
1.515965
1.5160133
1.5159265
1.5167812
1.5167634
1.5165737
1.5162595
1.5159134
1.5169081
1.5168846
1.517425
1.5172729
1.516658
1.5157819
1.5168989
1.5170869
1.5176095
1.5184558
1.5176642
1.5184612
1.5165631
1.516556
1.5157365
1.5157725
1.5163232
1.5173405
1.5190175
1.5188204
1.51984
1.5195077
1.515782
1.5143089
1.515521
1.5169302
1.5168659
1.5169006
1.5168998
1.5163849
1.5161989
1.5159221
1.5158423
1.5156843
1.5155004
1.5151458
1.5181805
1.5173322
1.5171161
1.516986
1.5169937
1.5157333
1.5159144
1.5157045
1.5159159
1.5154436
1.5151055
1.5146788
1.5111593
1.5112109
1.5099081
1.5113483
1.5094967
1.508911
1.5110246
1.5150466
1.5167311
1.5179735
1.5164041
1.5176775
1.5163985
1.5068646
1.5106622
1.5056244
1.5160462
1.5070114
1.5078493
1.5088604
1.5111052
1.5133751
1.5163479
1.5196089
1.5159145
1.5137121
1.508542
1.5092239
1.5024268
1.5045578
1.5130741
1.5146257
1.5033207
1.5097139
1.5222369
1.5112562
1.515627
1.5252637
1.5161687
1.5112228
1.5049434
1.5014823
1.5180751
1.5183657
1.5203851
1.5200945
1.5203557
1.5174218
1.5179235
1.5184533
1.5182035
1.5184363
1.5174028
1.5172707
1.5172832
1.5176105
1.5175165
1.5167511
1.514235
1.5135878
1.5152732
1.5154283
1.5168789
1.5141834
1.5173261
1.5126362
1.5167794
1.5176764
1.5171342
1.5166925
1.5139046
1.5169177
1.5165824
1.5164631
1.5123757
1.5133627
1.5181688
1.5174276
1.5166808
1.5149557
1.5184093
1.5177658
1.5176271
1.5172689
1.5171955
1.5168904
1.5170742
1.5170449
1.5166694
1.5171066
1.5166927
1.5160089
1.5181489
1.5174958
1.5172983
1.5163012
1.5159888
1.5173955
1.5170995
1.5168207
1.5168601
1.5169582
1.516691
1.5163794
1.517014
1.5171436
1.5176187
1.5180604
1.515718
1.5167672
1.5170008
1.5177133
1.5184802
1.5187336
1.5199975
1.5195262
1.5162472
1.5166282
1.5156177
1.5155268
1.5176488
1.5183431
1.5184369
1.5188575
1.5204527
1.5138753
1.5167575
1.5161548
1.5162382
1.5153954
1.518079
1.5173995
1.5171437
1.5170101
1.5168779
1.5162398
1.5161064
1.5158732
1.5161034
1.515619
1.5154906
1.5151677
1.5194542
1.5172913
1.5149997
1.5169383
1.5168149
1.5166945
1.5159886
1.5160391
1.5156941
1.5155373
1.5153873
1.5151374
1.5148841
1.5113739
1.5098041
1.5097106
1.5107905
1.5168169
1.5176848
1.5202124
1.518591
1.5164772
1.5128235
1.5111568
1.505736
1.5065321
1.5154136
1.5165656
1.5060118
1.5115719
1.5180422
1.5130296
1.5157022
1.5188494
1.5232668
1.5137958
1.5090014
1.5041868
1.502215
1.5015205
1.503887
1.5116895
1.5104164
1.5051579
1.5036771
1.5213444
1.5103332
1.506178
1.5150835
1.5183054
1.5206266
1.5049748
1.5016648
1.5012174
1.5181171
1.5184697
1.5201637
1.5200269
1.5213331
1.5210966
1.521589
1.5189314
1.5207171
1.5198216
1.5186675
1.5184355
1.5183718
1.517874
1.5182867
1.5183021
1.5179297
1.5188016
1.5182097
1.5183692
1.5144631
1.5153401
1.5181317
1.5130688
1.5135385
1.5126296
1.5103595
1.5142353
1.5169692
1.5144601
1.5100374
1.5136802
1.5167442
1.5188378
1.5187774
1.518133
1.5180492
1.5173818
1.5178456
1.5194722
1.5185666
1.5180348
1.5177177
1.5173548
1.5171145
1.5169888
1.5172453
1.5170478
1.5170339
1.5171316
1.5161566
1.5182189
1.5169794
1.5175192
1.5171872
1.5171114
1.5162547
1.5159606
1.5161573
1.5174888
1.5171834
1.5164849
1.5162099
1.5169625
1.5177553
1.5156999
1.5168877
1.5178804
1.5183202
1.5187654
1.5189383
1.520591
1.5189145
1.5168919
1.516228
1.5181389
1.5155864
1.5169947
1.5177537
1.5171239
1.5200551
1.5169468
1.5216355
1.5173398
1.5220543
1.5168646
1.5180437
1.5161802
1.5171343
1.5153732
1.519216
1.5181185
1.5171592
1.5171261
1.5169609
1.5166827
1.5161735
1.5160965
1.5158627
1.5164852
1.515606
1.5155168
1.5152618
1.5213212
1.5202355
1.5174344
1.5166938
1.5171196
1.5163074
1.5164691
1.5160523
1.5160496
1.5167449
1.5156661
1.5159612
1.5153457
1.5152103
1.5153704
1.5097584
1.5180669
1.5200525
1.5225355
1.5164069
1.5137699
1.5094632
1.5069806
1.504195
1.5072361
1.5142255
1.5146545
1.5109306
1.508116
1.5178508
1.5149763
1.5101739
1.5177954
1.5225111
1.5212011
1.5087369
1.5053953
1.5034812
1.5022591
1.5062867
1.503339
1.5095738
1.522245
1.513808
1.5035861
1.5089376
1.5339367
1.5079561
1.5183675
1.5048964
1.5200653
1.5131991
1.5207582
1.5031054
1.5012401
1.5033586
1.5171103
1.5188232
1.5163895
1.5184938
1.5208364
1.5205493
1.5219599
1.5220769
1.51968
1.5209493
1.5198009
1.5208972
1.5224287
1.5183666
1.5172446
1.5195242
1.519715
1.5183958
1.5184337
1.5190726
1.5182613
1.5185531
1.5183938
1.5183213
1.5181397
1.5179128
1.5111197
1.5127862
1.512847
1.5131051
1.5134839
1.5155817
1.5188943
1.5103626
1.5082077
1.5177325
1.518805
1.5203013
1.5186423
1.5198565
1.5194284
1.5182019
1.517387
1.5186717
1.519684
1.5206947
1.5182103
1.5165469
1.5177664
1.51718
1.5170656
1.5168582
1.5166327
1.5168919
1.5167581
1.5165482
1.5180147
1.516936
1.5176008
1.5162456
1.5161573
1.5159759
1.5176081
1.5172103
1.5156876
1.5179615
1.5182383
1.5187003
1.5195201
1.5173081
1.5210967
1.5183902
1.5209697
1.5169257
1.5184985
1.5161875
1.5182356
1.5156153
1.5180287
1.5196372
1.5173819
1.5163312
1.5214066
1.520875
1.5197961
1.5168634
1.5160811
1.5153587
1.5211591
1.5197633
1.5181661
1.5170755
1.5172075
1.5167585
1.5167343
1.5165007
1.5160717
1.5165471
1.515855
1.5165765
1.5155965
1.5155143
1.5155607
1.5229409
1.5223288
1.5214026
1.5177806
1.5171054
1.517329
1.5160667
1.5156391
1.5153042
1.5154757
1.5151633
1.5197878
1.5219652
1.5214281
1.5144214
1.5107527
1.5069491
1.5146351
1.5054543
1.5089284
1.5076595
1.5124135
1.516628
1.5168464
1.5083413
1.5149625
1.5195342
1.5132284
1.5174462
1.5087052
1.5206478
1.517914
1.5226333
1.5059123
1.5036684
1.5062559
1.5019532
1.5035926
1.5032828
1.5490381
1.5241045
1.530642
1.5328259
1.5229931
1.5101316
1.5083701
1.51671
1.518837
1.5016321
1.5035831
1.5050668
1.5148796
1.5182704
1.5190988
1.5180222
1.5193275
1.5175015
1.5212976
1.52095
1.5224006
1.5224493
1.520304
1.5185588
1.5201658
1.5208106
1.5191036
1.5176751
1.5177838
1.5182338
1.5175207
1.5167783
1.5224144
1.5204472
1.5191301
1.5217908
1.5208812
1.5204813
1.5210021
1.5229092
1.5227705
1.5150412
1.5185533
1.5183821
1.5184478
1.5201052
1.5176066
1.5202263
1.5186911
1.5187325
1.5187121
1.5183041
1.522556
1.519744
1.5209289
1.520895
1.5203957
1.5203695
1.5182654
1.5210607
1.5198143
1.5172141
1.5200934
1.5219197
1.5165706
1.5178292
1.5179107
1.518312
1.5177832
1.5175643
1.5175744
1.5169532
1.5162353
1.5161738
1.5159727
1.5172513
1.5156777
1.5181279
1.5195206
1.5171886
1.5161235
1.5215929
1.521194
1.5186569
1.5169033
1.5161611
1.5156148
1.5180444
1.5175723
1.5173809
1.5195921
1.5165124
1.5153867
1.5218021
1.5219963
1.5187285
1.5168813
1.5160246
1.5157511
1.5228878
1.5220694
1.5201591
1.5183973
1.5173198
1.5165756
1.5160522
1.5158434
1.5155894
1.5155765
1.5153833
1.5233945
1.5244421
1.5230128
1.5212355
1.5186648
1.5179357
1.5164941
1.5161156
1.5155962
1.5154887
1.5153513
1.5154345
1.5212046
1.5208127
1.5214815
1.5107495
1.5075735
1.5143019
1.5099055
1.5108636
1.5045075
1.5073847
1.5062693
1.5214439
1.5210494
1.5300736
1.5216101
1.5199325
1.5152466
1.514644
1.5200972
1.5231449
1.504179
1.5063488
1.507168
1.5029634
1.508879
1.506566
1.5042293
1.5012514
1.5250909
1.5292447
1.5165598
1.5239107
1.515034
1.5073245
1.5076589
1.5148987
1.5114091
1.5019542
1.5028239
1.5037932
1.5031509
1.5102714
1.5135574
1.511893
1.5201715
1.5203167
1.5219812
1.5183758
1.5196295
1.5169981
1.5160961
1.521644
1.5212888
1.5226899
1.5204439
1.516693
1.5218601
1.5173661
1.5179531
1.5215109
1.51744
1.5175665
1.5173113
1.517584
1.5193666
1.5177
1.5170149
1.5156086
1.5241791
1.5235275
1.522373
1.5222569
1.5204159
1.5196523
1.5194458
1.5204585
1.5183098
1.5231012
1.5215305
1.5221046
1.5216733
1.521697
1.5212157
1.5206029
1.5212838
1.5231546
1.5229373
1.5230946
1.5229237
1.5218862
1.5145232
1.512695
1.5127049
1.5141777
1.5134171
1.5152122
1.5160396
1.5147305
1.5115315
1.5114426
1.5127537
1.5127798
1.5186167
1.5189265
1.5201037
1.5227315
1.5201302
1.5206906
1.5207973
1.5197832
1.5197499
1.5187365
1.5186746
1.5184212
1.5184085
1.5187383
1.5184907
1.5183532
1.5172836
1.5234973
1.521879
1.5219239
1.5217715
1.5220331
1.5226363
1.5236426
1.523344
1.522459
1.5201422
1.5224364
1.5220465
1.5190427
1.5227111
1.5206558
1.5221565
1.5166095
1.5178343
1.5175687
1.5177595
1.5181693
1.517583
1.5176139
1.5182142
1.5177973
1.5176186
1.5186056
1.5166182
1.5161553
1.516952
1.5162246
1.5159616
1.517261
1.5156609
1.5181003
1.5175894
1.5175257
1.5194316
1.5162139
1.515067
1.5218441
1.5213874
1.5186108
1.5168795
1.5161506
1.5156114
1.5174879
1.5178359
1.5170747
1.5171516
1.5170542
1.5194278
1.5155454
1.5133398
1.5139346
1.521978
1.5213491
1.5186528
1.5168794
1.5160568
1.5154659
1.5232277
1.524176
1.5226185
1.5203559
1.5186303
1.5174222
1.5165284
1.5160355
1.5158256
1.5155944
1.5155086
1.5155659
1.5254946
1.5229529
1.5249971
1.5231509
1.520647
1.5188753
1.5174022
1.5165008
1.5162081
1.5156806
1.5154319
1.5154859
1.5151232
1.5196055
1.5207411
1.5226871
1.5087507
1.514023
1.5094497
1.5113046
1.5091333
1.505243
1.51266
1.5085018
1.5075526
1.5034425
1.5237955
1.5239606
1.5196943
1.5181166
1.5167864
1.5139974
1.5132957
1.5209629
1.5193182
1.5044586
1.5053103
1.5057718
1.5052775
1.5045069
1.5109487
1.5060575
1.5076121
1.5029969
1.5035912
1.5019739
1.5347196
1.5144582
1.5121983
1.521471
1.5120949
1.5074348
1.5160917
1.5087624
1.5209761
1.5015312
1.5020108
1.5028132
1.5025784
1.5086094
1.5117147
1.5119046
1.508246
1.5223587
1.5200433
1.5175475
1.517524
1.5195609
1.5163572
1.5150794
1.521454
1.516468
1.5163212
1.5154334
1.5157279
1.5167205
1.5162101
1.5166511
1.5169224
1.5213054
1.5150881
1.5160416
1.5155147
1.5173363
1.5193213
1.5157331
1.5164551
1.5168511
1.5169544
1.5172436
1.5173828
1.5195002
1.5172707
1.5173274
1.5172337
1.5171649
1.5171162
1.5170942
1.5173954
1.5174173
1.5170874
1.5171788
1.5171264
1.5170764
1.5173816
1.5215653
1.5193233
1.5192522
1.5183739
1.5183918
1.5182707
1.5191442
1.5201063
1.5173852
1.5164927
1.5169781
1.5171172
1.5169811
1.5166557
1.5166056
1.5162926
1.5156194
1.5158397
1.5155758
1.5152471
1.5136576
1.5110432
1.5126155
1.5135675
1.5129826
1.5251074
1.5241037
1.5241643
1.5239643
1.5250376
1.5235624
1.5239153
1.5229091
1.5226195
1.5203903
1.5199358
1.5198549
1.5204571
1.5204294
1.5181059
1.5180619
1.5195621
1.5176469
1.5173498
1.52349
1.5231393
1.5227923
1.523432
1.5235279
1.5225616
1.5206527
1.5219614
1.5206875
1.5215065
1.5203501
1.5232781
1.5231813
1.5232635
1.5230661
1.5232028
1.5220383
1.5221477
1.5215359
1.5139817
1.5121732
1.5102863
1.511915
1.5103585
1.512542
1.5135879
1.5142279
1.5138537
1.5101673
1.5154802
1.5131985
1.5085528
1.5076998
1.5124692
1.5201888
1.5228585
1.5235523
1.5235483
1.5235111
1.5226074
1.5225876
1.5201121
1.5205483
1.5205805
1.5197918
1.5197809
1.5227582
1.5225972
1.5202673
1.5204091
1.5187424
1.5187372
1.518685
1.5187488
1.5184928
1.5184783
1.5174502
1.5173786
1.5186239
1.5239214
1.5233847
1.5228043
1.5229055
1.5233508
1.524142
1.524319
1.5241721
1.5238472
1.5193572
1.5205073
1.5196499
1.5244784
1.5257014
1.524685
1.5237458
1.522589
1.5195389
1.5228107
1.5177781
1.5180804
1.5177621
1.5177303
1.5175492
1.5176027
1.5180964
1.5176108
1.5175643
1.5161036
1.5166158
1.5185619
1.5169214
1.5169382
1.5185822
1.5166189
1.5161342
1.516207
1.5159403
1.5172846
1.5156425
1.517591
1.51792
1.5172427
1.5169457
1.5171102
1.5194807
1.5152495
1.5128598
1.51373
1.5219935
1.5214357
1.5186028
1.5168566
1.5161421
1.5155801
1.5171527
1.5169307
1.5178642
1.5168596
1.5169844
1.516402
1.5169516
1.5194592
1.5148274
1.5117493
1.5128758
1.5220202
1.5213938
1.5186237
1.5168183
1.5160741
1.5157393
1.5251486
1.5225004
1.5248538
1.5227835
1.5205708
1.5187769
1.5174524
1.5165265
1.5160109
1.5158143
1.5155663
1.5155335
1.5153478
1.5250365
1.5264971
1.5245215
1.5252475
1.5234338
1.520886
1.5189549
1.517447
1.516512
1.5162109
1.5156203
1.5154644
1.5153133
1.5150131
1.518758
1.5224417
1.5229323
1.5076122
1.5087
1.511802
1.5132516
1.5083493
1.507636
1.5060031
1.517113
1.5104955
1.5118868
1.505794
1.5064958
1.5042516
1.52517
1.5199137
1.5187068
1.518277
1.5160684
1.5141696
1.5192051
1.5162547
1.521759
1.5040143
1.5044689
1.5047797
1.5043848
1.5026179
1.5020764
1.5182412
1.5327165
1.5068
1.5112439
1.5078858