/*--------------------------------*- C++ -*----------------------------------*\
  =========                 |
  \\      /  F ield         | OpenFOAM: The Open Source CFD Toolbox
   \\    /   O peration     | Website:  https://openfoam.org
    \\  /    A nd           | Version:  7
     \\/     M anipulation  |
\*---------------------------------------------------------------------------*/
FoamFile
{
    version     2.0;
    format      ascii;
    class       volScalarField;
    location    "6000";
    object      nut;
}
// * * * * * * * * * * * * * * * * * * * * * * * * * * * * * * * * * * * * * //

dimensions      [0 2 -1 0 0 0 0];

internalField   nonuniform List<scalar> 
34124
(
2.1146432e-39
5.0035027e-39
2.6499341e-39
4.6418614e-39
4.8515262e-38
7.9514968e-39
1.1356633e-38
6.5993747e-39
3.6277051e-39
7.0066523e-39
3.3517874e-37
5.3373197e-38
4.3104622e-38
1.9810901e-38
1.205195e-38
2.4777878e-38
2.5095453e-38
6.3324539e-39
6.0049953e-39
1.893287e-38
2.7709555e-37
3.4639954e-37
1.7053547e-36
7.3002379e-38
4.4330332e-38
8.5410345e-38
7.4299238e-38
2.0759594e-38
2.3489066e-38
8.9965479e-38
2.6279124e-38
3.8072733e-38
9.6602402e-39
1.7911441e-38
5.4346423e-38
3.2677023e-37
2.7409577e-37
1.4034132e-36
3.6086095e-37
9.5927581e-37
2.4531046e-36
2.4977417e-37
6.7663959e-38
6.3813757e-38
1.6593818e-37
8.5163982e-38
1.079852e-37
3.2510851e-38
6.1318522e-38
1.4904914e-37
2.3753428e-38
5.0884218e-38
9.3803596e-38
2.0996186e-38
7.2426915e-38
1.440221e-37
2.8575738e-37
3.332414e-37
1.146402e-36
3.3418868e-37
8.3502754e-37
1.5415775e-36
5.6365864e-37
9.0274814e-37
1.128481e-36
1.7822187e-36
1.9751463e-37
4.0118534e-37
8.4356589e-38
1.5784609e-37
2.3752337e-37
8.5756779e-38
1.8720833e-37
2.5350063e-37
8.3959138e-38
2.0919714e-37
5.328746e-37
5.9730694e-38
6.1402843e-38
1.0437782e-37
7.7736904e-38
8.3261644e-38
1.313908e-37
1.1316931e-37
3.9080479e-37
3.3694787e-37
8.2712713e-37
1.1209783e-36
1.8094493e-36
2.2272911e-36
4.9642992e-37
1.0270549e-36
9.424889e-37
1.4909867e-36
7.2990222e-37
1.0618977e-36
1.030278e-36
2.319198e-36
2.8585176e-36
1.688288e-37
3.1545915e-37
6.0585628e-37
1.7988302e-37
2.686295e-37
1.0597733e-36
1.5319514e-37
1.761983e-37
3.3051876e-37
9.4306186e-37
2.8459312e-37
3.2144322e-37
2.5131085e-37
1.4644974e-37
1.6625641e-37
8.3942257e-38
6.730234e-38
1.1394592e-37
1.7750695e-37
6.965044e-38
2.4382784e-37
5.9943593e-37
4.0847592e-37
1.0648395e-36
8.1360776e-37
7.4945693e-37
1.0445619e-36
1.8980707e-36
1.4492011e-36
3.8459757e-36
8.1480521e-37
5.7547133e-37
1.1461557e-36
1.6864114e-36
8.8125066e-37
2.1940786e-36
1.3742215e-36
1.6708727e-36
8.4908834e-37
1.2295629e-36
2.3627411e-36
3.2766911e-36
2.7822409e-37
4.3152606e-37
5.198962e-37
3.2471117e-37
3.6752784e-37
6.6568301e-37
4.1541851e-37
4.2389479e-37
5.9596705e-37
7.0882768e-37
1.1812622e-37
7.5637694e-38
3.0702782e-37
1.9071706e-37
1.1904961e-37
1.0573452e-37
1.0362872e-37
1.4569143e-37
7.6853727e-38
1.6267697e-37
1.4843237e-37
8.234419e-38
4.4183294e-38
1.4191235e-37
7.8930243e-37
6.1774677e-37
1.3286726e-36
7.7788585e-37
8.1451606e-37
1.7360147e-36
1.3855725e-36
8.794132e-37
9.2389627e-37
9.6783972e-37
2.556254e-36
2.446649e-36
1.3626963e-36
1.7118451e-36
1.2394472e-36
7.4550035e-37
8.900604e-37
7.7215551e-37
1.8021724e-36
1.7093725e-36
2.1400426e-36
7.9715469e-37
9.6698703e-37
2.2942439e-36
5.5910488e-37
1.8856544e-36
2.8042729e-36
3.030783e-36
6.0323032e-37
1.4545016e-36
7.8702498e-37
2.3811404e-37
4.5760515e-37
7.5182222e-37
3.1017814e-37
2.0525654e-37
6.5082144e-37
4.1014761e-37
6.2046221e-37
3.1761539e-37
1.6759562e-37
1.9379119e-37
2.2547326e-37
6.1827111e-38
1.7734649e-37
4.0387949e-38
6.2397149e-38
6.2511194e-38
1.5831284e-37
4.4569449e-38
3.6537245e-38
2.6829331e-37
5.5070662e-38
5.6500933e-38
6.3715312e-38
8.7688516e-37
8.0428982e-37
6.5179521e-37
8.774751e-37
8.3050804e-37
1.6679225e-36
1.3294791e-36
1.2711796e-36
8.8814354e-37
1.3821356e-36
1.1141403e-36
1.1182805e-36
6.4430889e-37
1.8194591e-36
1.1084139e-36
8.6663259e-37
1.897524e-36
2.4534531e-36
4.4417886e-37
1.4982644e-36
1.5892216e-36
9.9743813e-37
1.0840208e-36
7.630462e-37
4.2549606e-37
2.1577531e-36
1.8482538e-36
2.1808759e-36
1.8084939e-36
1.9695214e-36
1.5678187e-36
1.531865e-36
1.4670715e-36
1.8033899e-36
2.7917371e-36
3.7624746e-36
9.4837298e-37
9.6977872e-37
1.3338657e-36
3.3425946e-37
2.8106422e-37
3.4285634e-37
5.8765306e-37
1.3268122e-37
2.2127917e-37
6.4498716e-37
6.2183376e-37
2.0996099e-37
8.1471214e-37
1.0071553e-37
1.9172801e-37
7.6125683e-37
1.2289843e-37
1.0778889e-37
1.7238287e-37
2.3504623e-38
1.2323017e-37
5.2940562e-38
3.1513369e-38
5.0974808e-38
4.3339397e-38
1.5194514e-37
1.4973318e-37
1.2168342e-37
1.7378751e-38
6.2234598e-38
1.4750264e-36
1.4210068e-36
7.8241229e-37
7.5480913e-37
2.2327751e-36
1.0749474e-36
1.0753799e-36
6.7564602e-37
9.9606854e-37
1.23479e-36
1.0099195e-36
1.2464381e-36
1.1904726e-36
8.5877107e-37
8.0235299e-37
8.7374613e-37
6.6957659e-37
1.5520738e-36
3.0124864e-37
8.117118e-37
6.7259204e-37
1.0334289e-36
4.1317105e-37
8.0568766e-37
1.2316551e-36
4.5975531e-37
2.3425889e-36
2.3858396e-36
2.6327543e-36
1.1571089e-36
1.9252095e-36
5.3073115e-37
2.54241e-36
6.7783789e-37
1.7336443e-36
2.2206379e-36
1.2096145e-36
2.2393513e-36
5.9165349e-37
1.4073377e-36
2.5940916e-36
9.7775477e-37
3.2397022e-36
3.1511689e-36
6.7994612e-36
4.5641832e-37
5.1569967e-37
6.3917865e-37
1.1068185e-36
1.7071951e-37
2.3822503e-37
2.9465169e-37
3.0718458e-37
3.9095999e-37
2.5516057e-37
3.0407091e-37
3.3289515e-37
2.9409488e-37
1.1703149e-37
2.3745124e-37
3.3329142e-37
3.4965436e-37
7.0462967e-37
1.7629289e-37
7.0769444e-38
1.1389512e-37
6.8464657e-38
3.1584927e-38
1.5831967e-38
1.0093598e-37
2.246786e-38
1.1668735e-37
1.1594982e-37
1.750567e-37
8.6216369e-38
1.7386304e-38
2.0097826e-38
6.5111196e-38
1.471158e-36
5.8790401e-37
5.6546426e-37
6.7519646e-37
1.4084962e-36
3.9244395e-37
1.757608e-36
1.6064494e-36
1.3630489e-36
1.6533683e-36
1.7504348e-36
5.8025266e-37
1.3028924e-36
8.9592149e-37
7.7544358e-37
9.6201747e-37
6.3437235e-37
1.7188615e-36
3.912451e-37
1.2223192e-36
9.5531292e-37
4.7726814e-37
9.3885518e-37
4.79788e-37
9.4932936e-37
4.6164069e-37
1.2385521e-36
1.2435104e-36
1.2062577e-36
1.0275546e-36
6.2092836e-37
1.0188639e-36
6.9295195e-37
2.3682108e-37
1.4019623e-36
3.0420062e-36
8.3490439e-37
1.6701214e-36
5.0849333e-37
1.1578678e-36
1.068245e-36
8.6944762e-37
1.4042437e-36
1.7666124e-36
5.9767791e-36
2.3271191e-36
7.9787835e-37
6.1237665e-37
4.6730457e-37
6.5724885e-37
7.9842259e-37
1.6165816e-36
2.5047327e-36
2.7783564e-36
4.4745843e-36
2.3361231e-37
4.1721197e-37
1.0369142e-36
4.5316822e-37
7.2480929e-37
4.5257847e-37
5.9169305e-37
3.8333178e-37
1.4703427e-37
1.0643665e-37
2.6525562e-37
2.6548144e-37
2.2512113e-37
1.9228715e-37
3.616634e-37
9.2971505e-38
3.5493175e-37
3.4224114e-37
4.538041e-37
1.9538486e-37
7.9831914e-38
1.0171887e-37
1.6937325e-37
1.5535616e-38
4.0185848e-38
6.7322058e-38
1.9948674e-38
1.450166e-37
1.3927441e-38
7.5694581e-38
4.6485713e-38
1.1704916e-37
8.3502181e-38
2.0607161e-38
6.4369435e-38
5.1252363e-38
9.6598e-37
6.965557e-37
1.8936048e-36
6.9525009e-37
9.1703359e-37
3.4226559e-37
7.0444187e-37
8.0916637e-37
1.1623174e-36
6.7134697e-37
1.1918283e-36
6.3240707e-37
1.3390659e-36
8.1512263e-37
1.8539835e-36
1.0605451e-36
1.0541406e-36
9.0388098e-37
1.4085904e-36
8.6988541e-37
6.7411494e-37
4.0126315e-37
4.1137168e-37
4.3686027e-37
8.2662216e-37
5.0669493e-37
6.8436344e-37
6.9677222e-37
1.7051942e-37
4.840592e-37
6.3664428e-37
1.1784483e-36
2.2436042e-37
2.3868836e-37
6.9413264e-37
1.3765964e-36
1.3364163e-36
3.1857394e-36
2.6483136e-36
5.2532408e-37
7.133133e-37
1.2901066e-36
2.1502774e-37
2.3614856e-36
1.7666063e-36
1.621635e-36
5.683717e-37
1.4079246e-36
5.107855e-37
7.7879224e-37
8.7974733e-37
6.129087e-37
1.4270473e-36
1.8640906e-36
2.8891972e-36
1.3039817e-36
6.7510839e-37
5.3950912e-36
6.4182967e-37
5.2617002e-37
6.9589715e-37
1.3437417e-36
1.1045074e-36
2.2830418e-36
2.9724059e-36
4.9292382e-36
4.335318e-37
2.9974213e-37
4.5634899e-37
6.7881449e-37
1.4679978e-37
5.258673e-37
5.5434764e-37
4.5808483e-37
2.8097321e-37
1.6685546e-37
1.2436662e-37
6.4714726e-37
1.619851e-37
2.0030507e-37
2.9641061e-37
4.8421478e-38
6.6778944e-37
7.0009888e-38
4.1047011e-37
2.2264783e-37
3.3506158e-37
1.3720573e-37
7.0302239e-38
1.5423583e-37
8.0374349e-38
2.58093e-38
2.4974745e-38
3.7556135e-38
9.1218592e-38
1.7947934e-37
7.996433e-38
2.4678261e-38
5.0691503e-38
5.4108723e-38
5.6651339e-38
4.4023708e-38
9.5383365e-38
3.9890819e-38
1.3897691e-38
7.3355199e-37
6.2681322e-37
7.9404709e-37
3.7351767e-37
1.0385989e-36
8.5828026e-37
4.0967871e-37
6.210709e-37
6.0757719e-37
5.5210221e-37
1.1485079e-36
1.9025386e-36
9.5976695e-37
8.8339515e-37
1.0823672e-36
9.4640774e-37
1.4217406e-36
5.8175082e-37
1.1334549e-36
5.6575195e-37
9.8531892e-37
6.167389e-37
1.1244083e-36
1.0167689e-36
4.4825647e-37
5.607208e-37
1.0959961e-36
3.4970663e-37
2.6633411e-37
4.4978713e-37
9.4921581e-37
7.8121994e-37
8.5066581e-37
1.4491875e-37
5.3031054e-37
1.0211543e-36
6.0356524e-37
4.8209331e-37
1.505416e-36
3.4606285e-37
4.8581569e-37
2.6500661e-37
5.8477272e-37
9.4651984e-37
9.1615029e-37
2.3115635e-36
1.9700421e-36
2.0741901e-36
1.1313194e-36
1.0291476e-36
5.7823479e-37
1.1843696e-36
1.717351e-36
1.7109069e-36
5.7983766e-37
1.7617497e-36
3.0547244e-36
6.7275378e-37
5.7346733e-37
3.6932061e-37
7.522274e-37
1.104748e-36
1.9079612e-36
4.7498173e-36
2.0259317e-36
2.0774132e-36
7.2376464e-37
1.0764299e-36
1.0552699e-36
3.8768425e-36
1.4813197e-36
1.2961781e-36
1.2902027e-36
4.0406552e-36
1.2738849e-35
1.8664097e-37
2.5546889e-37
6.4458916e-37
8.1000822e-38
3.480254e-37
8.23223e-38
4.2784953e-37
6.1949375e-37
6.0986635e-37
1.4699272e-37
1.5038414e-37
3.9600388e-37
5.6595775e-37
1.3899304e-37
1.267427e-37
1.10691e-37
1.9532773e-37
6.2528859e-38
7.1277542e-37
6.1642769e-38
1.7805848e-37
2.5667767e-37
1.1290074e-37
5.7205821e-38
1.7926019e-37
1.0439995e-37
4.5069638e-38
2.6090147e-38
1.9137192e-38
4.3709681e-38
1.8697655e-38
3.6402571e-38
1.0493199e-37
8.0815918e-38
2.3369528e-38
6.2782861e-38
4.4090087e-38
3.7874055e-38
5.4813792e-38
8.5507659e-38
2.0108421e-38
2.9636648e-38
5.2422082e-37
5.7021617e-37
8.2424426e-37
8.0125142e-37
7.2344416e-37
1.5040668e-36
9.240184e-37
1.1900253e-36
3.2283828e-37
1.4159404e-36
3.8790005e-37
1.4922712e-37
6.4322895e-37
4.2713305e-37
8.3483359e-37
1.1938385e-36
1.156535e-36
1.157388e-36
9.5538778e-37
3.2762678e-37
5.1293003e-37
8.9325543e-37
8.301048e-37
6.2673932e-37
7.7544482e-37
6.9901038e-37
2.1682271e-37
3.4647625e-37
1.2715983e-36
9.0315374e-37
1.6088633e-36
8.782728e-37
4.5306451e-37
2.5032891e-37
4.828572e-37
3.7711917e-37
7.4900671e-37
2.819947e-37
3.5019728e-37
3.1024005e-37
5.0957627e-37
5.804136e-37
3.163858e-37
3.5647444e-37
1.3476884e-37
2.1497435e-37
5.2610688e-37
4.2957809e-37
4.7317364e-37
8.8710249e-37
2.0381386e-36
1.1454157e-36
1.0919633e-36
5.8445929e-37
6.1063208e-37
5.9255456e-37
2.1730306e-36
3.6634985e-36
2.8224107e-36
1.2212802e-36
1.6320597e-36
1.1151339e-36
7.8286792e-37
7.7160309e-37
1.2174264e-36
3.9027718e-36
1.4871048e-36
1.9197068e-36
1.7047701e-36
1.490363e-36
1.2636365e-36
7.1798126e-37
6.7559837e-37
8.5574957e-37
1.0787636e-36
3.5260193e-36
1.1292893e-35
2.9021519e-36
1.4867972e-36
1.6909519e-36
6.1060574e-37
7.8440205e-37
5.5692242e-36
1.3843747e-36
4.9671801e-37
3.657624e-36
1.0165894e-35
1.632459e-35
2.498852e-37
1.8886361e-37
1.9480197e-37
3.3445364e-37
1.4272718e-37
5.2091243e-37
6.0746056e-38
8.8431842e-38
2.8556327e-37
4.1746179e-37
3.5694927e-37
1.917288e-37
1.316644e-37
3.8519248e-37
2.3651453e-37
2.8229233e-37
6.5991416e-38
3.9927478e-38
7.6656128e-38
1.5698902e-37
1.6515192e-37
2.1487818e-37
1.5526206e-37
8.4226731e-38
3.4646263e-37
6.6207163e-38
8.7365872e-38
1.3235314e-37
2.0663391e-37
6.4819882e-38
2.2354555e-37
2.1121808e-39
2.3777376e-38
2.6898819e-38
2.5231267e-38
7.0218456e-38
1.3278757e-37
4.2148251e-38
2.9428385e-38
1.9897827e-37
6.0918805e-38
2.9765194e-38
4.9693e-38
1.4164018e-38
4.3322375e-38
9.8447507e-37
8.0342316e-37
6.2784818e-37
1.6178327e-36
7.2293104e-37
7.5695335e-37
7.5027844e-37
7.2307185e-37
1.0000804e-36
6.7846049e-37
1.1732689e-36
6.5043941e-37
9.2288532e-37
2.3880756e-37
1.0413928e-36
4.6714827e-37
1.3123065e-37
1.1404519e-37
7.8098144e-38
3.4677714e-37
5.1596072e-37
5.360239e-37
1.1156086e-36
6.2157493e-37
1.4818029e-36
5.9558522e-37
1.1426519e-36
7.2652653e-37
4.2698124e-37
9.9911155e-37
5.8343425e-37
8.2665559e-37
5.7733898e-37
5.5008787e-37
5.2835815e-37
3.4687125e-37
2.1024064e-37
1.6637303e-37
1.7235381e-37
1.8010314e-36
1.1428906e-36
1.2714142e-36
1.5057406e-36
7.7439532e-37
2.0908611e-37
6.9919483e-37
3.3577514e-37
5.0009643e-37
4.0040643e-37
5.9684729e-37
2.2231814e-36
6.2856817e-37
5.2871978e-37
9.9030245e-37
2.9266692e-37
8.0061627e-37
1.3635299e-37
2.8278418e-37
6.892789e-37
1.6056894e-36
9.2822906e-37
1.2755702e-36
1.1798131e-36
5.337401e-37
6.1713031e-37
1.3074233e-36
7.4055607e-37
3.0162046e-36
2.4929217e-36
1.4909953e-36
1.6883233e-36
1.6112213e-36
1.5459935e-36
1.0200402e-36
8.816293e-37
5.0099182e-36
2.0991335e-36
7.210267e-36
3.1411305e-36
1.4724533e-36
1.3240245e-36
1.4003198e-36
8.3964206e-37
3.7288492e-37
9.9892919e-37
7.2531576e-37
2.6671066e-36
8.482329e-36
1.4210271e-35
3.1713639e-36
2.3265415e-36
7.6765933e-37
2.6227857e-36
9.3482998e-37
8.6991073e-37
2.3648491e-36
2.5212284e-36
2.305008e-36
7.4074845e-36
1.3253549e-35
1.1212618e-35
9.6431075e-38
1.1051954e-37
1.6671398e-37
2.1254503e-37
3.2945482e-37
3.3277406e-37
3.4290562e-37
9.1762114e-38
6.4575629e-38
2.9037158e-37
5.6126476e-37
2.1875606e-37
2.3519031e-37
2.5328099e-37
3.5128092e-37
2.4452579e-37
3.2719911e-37
1.2092051e-38
3.0151843e-38
6.9608966e-38
1.4749092e-37
1.2092911e-37
1.8026611e-37
1.801628e-37
1.1151923e-37
1.2870874e-37
1.7378799e-37
7.6585742e-38
2.1184321e-37
2.8140709e-38
2.2247253e-37
1.6663047e-38
1.2641748e-38
1.6850371e-38
4.6038866e-38
2.8655983e-38
3.7866448e-38
4.2534581e-38
2.4621818e-38
1.5265673e-38
2.3993842e-38
2.4722572e-38
3.2448876e-38
2.8670769e-38
1.9237175e-38
1.0279577e-37
6.804388e-37
7.929861e-37
1.3983764e-36
5.8903192e-37
1.1625027e-36
6.9861046e-37
1.3686428e-36
2.1980598e-36
8.7130905e-37
3.9499593e-37
1.5255409e-36
6.6821564e-37
1.0530424e-36
5.4759201e-37
1.5823614e-36
1.6229237e-36
2.9528573e-37
6.1609003e-37
1.0353546e-36
2.6575031e-37
6.8386211e-38
2.241128e-37
3.5040779e-37
6.1257154e-37
1.1916214e-36
7.6381801e-37
1.9262616e-36
1.0146191e-36
5.2152528e-37
9.5735385e-37
2.7841573e-36
1.8614914e-36
2.0489163e-36
4.8683478e-37
1.3640866e-36
8.031534e-37
6.0051432e-37
3.2609826e-37
2.6957833e-37
2.3184646e-36
1.0896082e-36
1.5844765e-36
7.9206333e-37
9.7603248e-37
6.2727572e-37
5.40347e-37
1.9542488e-36
1.0570299e-36
7.6048252e-37
2.0875006e-36
2.0388378e-36
1.2868792e-36
1.1612521e-36
6.4324451e-37
9.4307492e-37
2.790019e-36
2.8129926e-36
1.1966095e-36
6.364179e-37
1.3523751e-36
1.6061733e-36
3.0000778e-36
1.1566683e-36
3.2709566e-36
1.1230895e-36
3.6732648e-36
1.339607e-36
3.0806058e-36
1.8492319e-36
2.5718518e-36
1.1273634e-36
1.278028e-36
3.8888612e-37
6.7025797e-36
2.7482997e-36
2.1993952e-36
1.8318739e-35
3.0411326e-36
4.8066557e-36
8.0551814e-37
3.8537563e-37
8.0916924e-37
8.3896681e-37
9.3425655e-37
6.2420265e-37
1.2120292e-36
3.4415119e-36
1.2380549e-35
9.9691998e-36
2.3896156e-36
1.3688247e-36
1.4742648e-36
2.1005701e-36
5.3926567e-37
4.3524891e-37
1.5090461e-36
1.1673819e-36
2.3559343e-36
7.0911858e-36
1.3184431e-35
7.8500097e-36
5.0126529e-37
4.9891175e-38
9.246769e-38
1.5319981e-37
1.6856829e-37
3.2570251e-37
3.2563826e-37
4.6437563e-37
1.9558455e-37
1.9381063e-37
3.3782614e-37
2.1475116e-37
1.0717638e-36
1.9044884e-37
5.093987e-37
3.5918668e-38
2.1375172e-38
9.9575709e-38
9.9499021e-38
7.0986394e-38
2.9893652e-37
1.8522147e-37
2.7598395e-37
3.0753616e-37
1.3207344e-37
3.133679e-37
9.3618716e-38
8.5062425e-38
1.6070986e-37
1.497549e-37
4.953673e-38
2.0426654e-38
1.6877272e-38
3.3755573e-38
3.3451745e-38
4.550345e-38
2.4899446e-37
1.1647109e-38
2.5072712e-38
1.6410607e-38
3.3377018e-38
4.8309401e-38
1.134939e-37
1.2915305e-38
3.9313837e-38
5.6547923e-38
1.2212171e-36
1.1245612e-36
1.5596306e-36
1.0522623e-36
8.4920063e-37
7.0698937e-37
9.707539e-37
2.2607151e-36
1.3787031e-36
1.0818365e-36
1.4838357e-36
6.7470796e-37
9.2753472e-37
2.8969583e-36
1.5522321e-36
1.2852228e-36
1.3635305e-36
9.181743e-37
2.5081693e-36
1.0019149e-36
1.6531388e-37
1.973694e-37
2.9613186e-37
9.3433593e-37
9.9853679e-37
1.632948e-37
3.863905e-37
1.41371e-36
1.285787e-36
2.1157859e-36
6.3850526e-37
1.1344727e-36
1.2159665e-36
1.5872636e-36
1.3193264e-36
8.594421e-37
2.8312623e-37
2.8681758e-37
1.2741779e-36
2.9950604e-36
2.2021279e-36
1.9328047e-36
1.0784343e-36
9.2189648e-37
9.56989e-37
6.3255584e-37
1.131625e-36
2.268119e-36
1.1107845e-36
5.9992524e-37
4.402364e-37
3.3252268e-36
6.3679571e-37
4.7082748e-37
1.7092446e-36
2.8002638e-36
9.5969722e-37
8.4426142e-37
9.0815244e-37
1.4801512e-36
9.4247805e-37
1.4737358e-36
1.2867911e-36
1.4381179e-36
2.5677766e-36
9.3809502e-37
2.0449087e-36
8.9170074e-37
1.4395821e-36
3.5670725e-36
2.2216371e-36
5.0519343e-37
3.2825208e-36
1.4091058e-36
1.7064153e-36
9.2048775e-36
1.6420338e-36
1.8985169e-36
2.6751444e-36
1.407794e-36
2.0138617e-36
2.4066298e-36
1.1294625e-36
1.0784365e-36
9.4092224e-36
4.0041416e-36
2.4594356e-36
1.815889e-36
5.4255131e-37
1.3640338e-36
2.2718956e-36
6.1753513e-37
1.1858362e-36
7.9521165e-37
6.06416e-37
1.6318829e-36
5.5868085e-37
1.370966e-36
3.7762422e-36
6.9316031e-36
6.7252839e-36
6.1770148e-37
2.8366299e-36
6.7514309e-37
2.3566536e-36
5.2006912e-37
6.6489162e-37
8.2057687e-37
1.3383732e-36
4.1545766e-37
2.9964326e-37
1.3154804e-36
2.8299598e-36
1.0733781e-35
4.7601934e-37
6.3416851e-37
6.0826056e-37
6.3784544e-38
4.6943128e-38
8.4387131e-38
4.0556436e-37
1.6693179e-37
7.8637545e-37
5.7303309e-37
3.3765571e-37
1.3930095e-37
3.1264715e-37
3.972603e-37
3.1606927e-37
3.3137476e-37
2.5342259e-37
7.539273e-37
5.0974777e-38
4.8724166e-38
8.4290105e-38
6.071147e-38
6.3860834e-37
2.2433896e-37
3.2303602e-37
1.7457323e-37
1.0411047e-37
7.7874501e-38
1.0964311e-37
8.9274454e-38
1.715246e-37
1.0696609e-37
1.0463962e-37
1.2793165e-37
2.0291316e-38
3.4173402e-38
5.7937132e-38
1.0917541e-38
3.1792043e-38
3.953534e-38
8.4482506e-38
4.9008589e-38
3.5189598e-38
3.8236611e-37
3.1574485e-38
2.9081899e-38
1.752638e-38
1.1723118e-37
1.6251079e-37
1.7209465e-38
6.8224584e-38
6.2179307e-38
1.8313928e-36
1.1845924e-36
9.5155793e-37
8.7348192e-37
5.2697333e-36
1.9366104e-36
9.8202067e-37
1.0950905e-36
1.8532347e-36
9.9829973e-37
3.4329183e-36
2.4238746e-36
1.8907157e-36
2.0621966e-36
2.9457069e-37
1.2510304e-37
9.5627815e-38
4.0784667e-37
1.4011331e-37
2.2731539e-37
1.9798167e-36
9.2058395e-37
8.6454364e-37
1.7482836e-36
1.926254e-36
1.2315091e-36
1.028964e-36
7.6045726e-37
2.4349713e-36
1.6873019e-36
5.6294782e-37
2.2615714e-37
6.5508349e-37
1.1004913e-36
3.8609255e-36
1.5257958e-36
1.018926e-36
1.3625293e-36
7.5076892e-37
1.3180166e-36
7.7621469e-37
5.1201489e-37
7.0376652e-37
3.1879374e-36
1.7279985e-36
8.4776514e-37
2.1300333e-36
2.0235989e-36
1.6227444e-36
8.9050403e-37
1.08002e-36
6.5174627e-37
2.1197313e-36
9.1865006e-37
3.6100567e-36
4.517415e-36
9.0692938e-37
1.160918e-36
2.8364629e-36
8.191536e-37
2.0763731e-36
1.9154428e-36
9.8572949e-37
4.3655027e-37
5.999014e-36
1.4484873e-36
1.9340273e-36
1.6560271e-36
3.8389944e-36
7.3035973e-36
5.9092497e-36
8.6344788e-37
6.0718984e-37
7.0394394e-37
8.6190655e-36
3.1553096e-36
4.3252551e-36
6.37298e-37
3.3436773e-36
6.9716771e-37
9.4746528e-37
4.2148385e-37
1.0261961e-36
1.0932972e-36
1.236754e-36
5.2403745e-37
4.8807333e-37
8.1456477e-37
1.2219676e-36
5.8115593e-36
4.6284998e-36
8.7938925e-36
7.590916e-37
5.7235126e-37
5.5319089e-37
1.6347621e-36
4.6116874e-37
6.9837478e-37
2.3943311e-36
3.1387262e-36
1.1987617e-35
6.4071671e-37
8.0442512e-37
7.6630622e-37
1.0304917e-37
1.0371684e-37
9.4878552e-37
8.5730464e-37
3.0423225e-37
1.2567713e-37
3.847107e-37
2.614795e-37
2.3115699e-37
2.16786e-37
3.5259642e-37
4.0252145e-37
2.5475275e-37
5.4124652e-37
4.131057e-38
1.2544568e-37
7.1732664e-38
2.4014406e-37
2.0524233e-37
1.1418473e-37
1.882074e-37
1.6935091e-37
4.316605e-38
9.8098624e-38
2.3758287e-37
1.4473382e-37
7.4985746e-38
1.1029255e-37
1.6113202e-37
8.6460684e-38
1.3175327e-37
6.6065358e-38
2.4534153e-38
7.4255018e-38
2.221362e-38
2.2308326e-38
2.6156921e-38
2.1041727e-38
2.1669982e-38
1.2944427e-38
1.6077107e-37
1.2095271e-37
4.0643363e-37
3.187813e-38
6.1314789e-38
1.2643512e-37
1.1582968e-36
3.1041808e-36
1.6158564e-36
1.0407831e-36
7.2773378e-37
3.7489632e-37
2.4205814e-36
1.8151983e-36
1.209513e-36
1.1094467e-36
5.8308951e-37
1.4830689e-36
6.0195969e-37
1.393318e-36
4.3835285e-36
3.071957e-36
1.5756851e-36
5.2949261e-36
6.4451692e-37
4.6133235e-37
8.5022593e-38
8.2697314e-38
1.9693429e-37
9.6176906e-38
3.785735e-37
9.6120059e-37
1.3188832e-36
7.3194468e-37
1.100368e-36
1.4288023e-36
1.8089368e-36
1.2753011e-36
1.1659306e-36
7.6923853e-37
1.3065471e-36
5.664674e-37
9.7141311e-37
1.4025614e-36
4.6733631e-37
2.1928837e-36
1.491084e-36
2.8609503e-36
1.1037611e-36
5.2326786e-37
5.7373291e-37
1.2601872e-36
1.149482e-36
1.3871494e-36
1.5636397e-36
4.6156016e-36
9.9986802e-37
1.561602e-36
5.8969799e-37
5.1462395e-37
4.3003937e-36
1.1028483e-36
1.9892865e-36
3.423019e-36
3.0435006e-36
1.8334124e-36
7.232378e-37
5.9416195e-37
3.4724047e-37
4.188229e-36
1.4795814e-36
2.1497402e-36
3.4459621e-36
4.8005515e-36
4.2380848e-36
2.0022661e-36
6.2131319e-37
8.8573694e-37
2.3248821e-36
2.9822153e-36
7.3915893e-37
4.7683107e-37
8.7184377e-37
9.228111e-37
3.5603956e-37
5.4071003e-37
1.3894954e-36
1.3558883e-36
5.320103e-36
9.2477213e-36
8.5343449e-36
1.1012453e-36
9.7344353e-38
9.3232579e-37
1.5476673e-36
1.5105091e-36
7.0913716e-36
4.490921e-36
2.240504e-36
4.4320364e-37
7.5763096e-37
9.6551013e-37
5.6297943e-37
4.9938802e-37
6.1014149e-37
5.3315485e-37
5.0954751e-37
2.0277212e-37
5.2473096e-37
2.2532494e-37
2.1122647e-37
7.0999846e-37
2.2550282e-37
1.9921188e-37
3.6415279e-37
7.2772457e-37
4.9038691e-37
3.8459963e-37
1.7739786e-37
7.5567228e-38
2.5215104e-37
2.320122e-37
1.3484279e-37
3.9067037e-38
1.351086e-37
1.1968088e-37
4.7644403e-37
1.0197734e-37
1.1828003e-37
1.8133919e-37
6.1972397e-38
9.7043324e-39
1.7950329e-37
1.5258562e-38
7.626479e-39
1.9171417e-38
1.9196451e-38
1.2589596e-37
8.1268239e-38
1.3480946e-37
2.7665272e-37
1.5837526e-37
7.8719581e-38
9.979143e-38
1.1150129e-37
1.3072332e-36
1.5086483e-36
1.7094426e-36
4.1050258e-36
1.9365448e-36
9.6257745e-37
8.9916404e-37
8.7866091e-37
5.6904709e-37
4.1156839e-37
2.494635e-37
2.3161802e-37
5.239821e-37
1.8882173e-36
1.9656492e-36
1.8677651e-36
7.4974272e-37
4.3327527e-37
3.4160395e-36
2.2213722e-36
1.9734226e-36
1.6469673e-36
1.3245145e-36
3.7066428e-37
9.2802484e-37
9.0186938e-37
1.18189e-36
1.2785731e-36
6.7435584e-37
6.9281008e-37
1.7682612e-36
1.9056494e-36
2.8725622e-36
1.56955e-37
4.5853869e-37
4.1727033e-37
4.2295949e-37
4.4051844e-37
2.1556063e-36
1.742863e-36
2.0185825e-36
4.1109936e-36
2.4795692e-36
8.0546357e-37
8.1938523e-37
6.0307192e-37
9.9959635e-37
1.921945e-36
1.330597e-36
1.6527744e-36
2.7925416e-36
1.5379696e-36
4.408484e-36
1.7593987e-36
1.8083973e-36
1.8996991e-36
3.2406926e-37
3.9540181e-37
2.7039561e-36
1.7172697e-36
1.9263624e-36
4.7314609e-36
2.7499315e-36
2.5512131e-36
1.4437204e-36
4.0280368e-37
1.3321291e-36
1.4604451e-36
1.5136423e-36
6.0441645e-36
5.642635e-36
5.6040784e-36
4.1235435e-36
1.5067186e-36
1.8963825e-36
1.3026926e-36
1.067206e-36
2.7707397e-36
7.4602483e-37
1.0418786e-37
1.2733903e-36
1.2816805e-36
1.2210692e-36
2.2675712e-36
1.9202881e-36
1.4104548e-36
2.9685051e-36
9.6516056e-36
2.2778162e-35
7.5003763e-37
1.1059474e-36
5.8996755e-37
2.601893e-36
1.9223836e-36
3.9298171e-36
1.3154773e-35
3.1242331e-36
7.7444571e-37
6.3658118e-37
5.2600386e-37
4.2415602e-37
5.2516984e-37
4.7291953e-37
2.2852284e-37
1.7481198e-37
3.2141736e-37
1.5399302e-37
1.501493e-37
1.5704468e-37
4.5234687e-37
2.4819564e-37
7.1677309e-37
2.8144232e-37
3.5149906e-37
3.399292e-37
4.177499e-37
7.4147855e-38
1.7945838e-37
9.2823195e-38
6.7693056e-38
1.3128287e-37
1.0219262e-37
9.0481582e-38
7.1401172e-38
3.7492833e-37
9.7995684e-37
1.4422697e-37
2.7500069e-37
1.4418646e-37
2.5163632e-37
1.0152151e-37
6.1482677e-38
5.4745967e-38
5.098716e-37
5.178094e-39
6.345169e-37
1.2472426e-37
3.4943999e-38
1.0319738e-37
8.05989e-38
1.1814502e-37
2.9459438e-37
2.0889146e-37
4.0675447e-38
1.1705202e-36
1.7761711e-36
2.368098e-36
1.0498754e-36
7.7328747e-37
1.5387676e-36
3.9849727e-37
2.0246191e-36
6.5476108e-36
2.3012223e-36
5.243034e-37
4.8086566e-37
4.6175146e-37
2.4270783e-37
3.2470419e-37
2.3870675e-37
2.0575258e-37
1.846771e-36
1.9246759e-36
4.0584146e-36
1.8804313e-36
5.2750855e-37
4.8565434e-37
1.6790267e-36
2.1381026e-36
1.8255566e-36
2.0190854e-36
5.9393804e-37
7.8993147e-37
2.0401157e-37
1.4335112e-36
1.5825769e-36
8.9549227e-37
1.8284969e-36
4.5210438e-37
2.4593834e-36
1.6213395e-36
6.7096062e-36
1.6652672e-36
5.7740392e-38
2.4807113e-37
1.9673219e-37
1.1789563e-37
3.0204885e-36
1.6924879e-36
2.0515364e-36
3.0520529e-36
2.501744e-36
2.1566358e-36
5.0703875e-36
1.217826e-36
1.0328559e-36
1.035408e-36
8.5114965e-37
3.0153819e-36
1.9002909e-36
2.8762e-36
2.8862789e-36
3.4065021e-36
2.704889e-36
1.1235438e-36
1.7939262e-36
5.7800227e-36
2.838809e-36
3.213347e-36
2.4754065e-36
1.0559926e-36
9.2356246e-37
1.5657299e-36
2.0849944e-36
1.5908651e-36
4.9009647e-36
4.8061121e-36
7.7162645e-36
6.1881452e-36
4.6063158e-36
1.066716e-36
1.2372101e-36
1.6957167e-36
9.5200867e-37
5.9256191e-37
4.9835421e-37
3.6050596e-37
8.3457374e-37
2.0774155e-36
1.572373e-36
1.6108437e-36
4.1200822e-36
1.6714537e-36
2.2758845e-36
6.4831436e-36
2.9526213e-36
3.8949858e-37
2.4141805e-37
1.4421013e-36
2.1358514e-36
2.9164884e-36
3.5841664e-36
7.3896206e-36
4.4341032e-36
6.3135618e-37
3.3706697e-36
3.5545755e-37
4.4630819e-36
4.9752018e-36
7.8251206e-37
5.136483e-37
1.7146583e-37
1.3634529e-37
2.0568869e-37
3.1478174e-37
1.1626979e-37
2.8706408e-37
4.707484e-37
1.4480228e-37
7.6012294e-37
2.6115933e-37
5.3740917e-37
1.7547349e-37
3.8709598e-37
8.0309125e-38
4.9278065e-37
3.1590883e-38
1.6211982e-37
1.5002497e-37
1.7289213e-37
3.042588e-37
1.5589565e-37
6.581033e-38
3.8448075e-37
4.8096604e-37
1.1808901e-37
3.8095852e-38
6.2721869e-39
9.0915223e-38
3.7183483e-37
2.1134505e-37
3.4516228e-38
1.106957e-37
2.9697625e-38
1.2150774e-37
1.8860198e-37
1.0379468e-37
2.1382226e-38
1.0585268e-37
3.8445723e-38
5.0295484e-38
8.9769017e-37
1.3358318e-36
1.623015e-36
1.3786084e-36
6.526001e-37
5.9629012e-37
2.2006148e-36
2.1888135e-36
4.0030193e-36
1.1246147e-36
3.601985e-36
2.3342336e-36
3.1571662e-36
3.8407874e-36
8.3045233e-37
4.8687813e-37
6.5950745e-37
6.629272e-37
2.8690953e-37
4.531603e-37
8.038429e-37
2.7027655e-37
5.0861763e-36
1.3216668e-37
2.4000616e-36
1.7774523e-36
3.1932987e-36
9.400934e-37
3.2357122e-37
7.8557063e-37
2.873459e-36
2.5395951e-36
1.4651452e-37
1.9722712e-37
4.075652e-37
8.7582246e-37
6.3916706e-37
8.08962e-38
1.8996106e-37
7.3139716e-37
1.3836155e-36
1.0686168e-36
9.7493894e-37
2.2133808e-36
1.8223109e-36
1.2110496e-36
4.2246544e-37
2.3236178e-36
3.40828e-36
2.9045288e-36
1.7694085e-36
2.9086287e-36
4.167172e-36
4.6885685e-36
4.3264285e-36
2.2425219e-36
3.8659346e-36
3.733155e-36
3.1531556e-36
9.9508775e-37
1.8090863e-36
3.8574931e-36
2.9128386e-36
4.4887958e-36
4.5554163e-36
1.4493396e-36
5.9482908e-36
2.3862626e-36
4.0578658e-36
3.6494507e-36
2.064414e-36
5.7944132e-37
9.6871007e-37
1.6830864e-36
3.2060563e-36
3.2870692e-36
3.4111295e-36
4.5735712e-37
1.1523864e-35
5.0931141e-36
4.2197855e-37
1.1907682e-36
2.0698437e-36
1.0763427e-36
6.4321803e-37
4.3964776e-37
4.0861464e-37
3.8474463e-37
2.2695394e-37
8.2312213e-37
1.2991768e-36
1.9867393e-36
1.6772828e-36
2.7774856e-36
2.1720134e-36
4.106881e-36
2.6810561e-36
3.6069977e-36
3.5682322e-36
5.4628846e-36
2.0685182e-37
1.1899867e-36
5.743737e-36
2.6248766e-36
3.6048992e-36
6.6463793e-36
4.5121623e-36
4.895818e-36
3.4803545e-37
4.3518843e-36
2.4183026e-37
3.4972443e-36
3.4968625e-36
1.1410605e-37
1.4007253e-37
1.7087656e-37
1.5607314e-37
2.328151e-37
1.1655417e-37
2.1196656e-37
6.2062507e-37
5.0688122e-37
7.9228167e-37
4.7810255e-37
6.1482559e-38
1.1709388e-37
6.3055529e-37
2.5451717e-37
6.6354405e-38
3.7419777e-37
1.6337648e-37
1.8267903e-37
4.2063516e-37
7.4065674e-38
3.4184224e-38
7.7271575e-37
8.8475535e-38
1.7310768e-37
2.0659144e-38
1.3460669e-38
5.7429345e-38
2.8108541e-37
2.2273733e-37
3.5894491e-38
2.2749047e-38
2.1541349e-37
6.6070748e-38
6.1762243e-39
8.4713759e-38
3.5037327e-38
6.4522389e-38
1.0180931e-37
4.9067336e-38
2.6881696e-38
9.3149252e-37
5.3328355e-37
9.0162711e-37
1.2295345e-36
3.2502868e-36
2.4718952e-36
2.2882803e-36
1.1948903e-36
1.3679188e-36
7.6339347e-37
1.0468964e-36
3.5832318e-36
2.1295409e-36
6.1878712e-36
5.4317309e-36
8.2921493e-36
5.8795441e-36
1.8370298e-36
3.2028285e-36
1.3752193e-36
1.4795573e-37
4.6440047e-37
1.5718381e-37
4.0791236e-37
4.234357e-37
1.6112552e-37
4.2831763e-37
2.4907516e-37
3.93958e-36
8.5186111e-37
1.0317534e-37
2.4474787e-37
2.4076933e-37
3.6159169e-36
1.511954e-36
1.4610248e-36
6.9180617e-37
5.3895077e-37
2.884453e-37
4.2712321e-37
1.1334577e-36
1.7961332e-36
2.2591985e-36
3.6745451e-36
2.9354644e-36
3.2684265e-36
1.7629923e-36
1.145475e-36
2.1854214e-36
1.3535588e-36
4.247827e-36
2.7754157e-36
7.3746677e-36
3.4231333e-36
4.1792972e-36
4.3779316e-36
3.9403059e-36
4.4703885e-36
4.8665848e-36
3.7357395e-36
5.4645176e-36
3.1060434e-36
4.6125345e-36
1.5753397e-36
5.7911813e-36
8.189868e-36
2.8063604e-36
7.3808681e-36
3.5373337e-36
2.4789599e-36
9.4680464e-37
1.9747207e-36
2.9499601e-36
4.1257659e-36
2.3063258e-36
4.7382421e-36
9.0238758e-36
1.1103324e-35
1.5042197e-35
6.3606269e-37
1.2615874e-36
1.6449033e-36
5.7385762e-37
9.3041796e-36
5.4936073e-36
4.539148e-37
5.7994593e-36
2.9869765e-37
1.3729436e-35
2.6905032e-37
2.3008936e-37
7.4331054e-37
3.4237434e-36
1.8960104e-36
1.901023e-36
3.6044582e-36
2.2023069e-36
4.4579464e-36
2.7850103e-36
4.9437569e-36
3.9491411e-36
3.3508813e-36
4.1619472e-36
5.5192976e-38
2.353364e-37
5.6920261e-36
3.6787382e-36