/*--------------------------------*- C++ -*----------------------------------*\
  =========                 |
  \\      /  F ield         | OpenFOAM: The Open Source CFD Toolbox
   \\    /   O peration     | Website:  https://openfoam.org
    \\  /    A nd           | Version:  7
     \\/     M anipulation  |
\*---------------------------------------------------------------------------*/
FoamFile
{
    version     2.0;
    format      ascii;
    class       surfaceScalarField;
    location    "6000";
    object      phi;
}
// * * * * * * * * * * * * * * * * * * * * * * * * * * * * * * * * * * * * * //

dimensions      [0 3 -1 0 0 0 0];

internalField   nonuniform List<scalar> 
100795
(
7.7851554e+31
4.3155796e+31
1.130153e+32
2.618271e+31
1.6786518e+31
3.1936019e+31
4.9930984e+31
6.5282283e+31
6.7950775e+31
3.5298778e+31
2.7472797e+31
5.0680399e+31
8.9417402e+30
3.9713688e+30
7.932615e+30
1.7837019e+31
2.3428785e+31
2.3248475e+31
2.3204788e+31
1.6743134e+31
2.6548584e+31
1.9769831e+31
2.2167226e+31
2.3225484e+31
2.5629778e+31
3.0936001e+31
3.9713119e+31
1.4269537e+31
1.4750254e+31
2.2429758e+31
-2.9226084e+30
-8.0571404e+30
3.2931746e+30
7.1109326e+30
6.411845e+30
5.0539395e+30
1.1074978e+31
5.2820979e+30
1.293038e+31
1.3723239e+31
1.4974325e+31
1.2602374e+31
1.8273226e+31
2.0419903e+31
2.6928273e+31
1.3641956e+31
9.3925827e+30
1.7126234e+31
1.1192727e+31
5.1480387e+30
5.9961974e+30
1.2821921e+31
1.7716281e+31
2.422193e+31
1.4058555e+31
2.038879e+31
2.0757708e+31
1.4525064e+31
5.8182455e+30
3.9541188e+30
1.3962563e+30
-8.6456465e+30
4.4066507e+30
-4.3385438e+30
-6.1231403e+30
2.9619938e+30
-2.8346349e+30
-9.064502e+30
2.7092089e+30
6.9276559e+30
7.0256209e+30
3.0701064e+30
9.2635076e+30
7.8630456e+30
1.1482718e+31
8.7212203e+30
2.7695809e+30
1.3774696e+31
1.3474748e+31
1.9512073e+30
6.2732705e+30
1.2188867e+31
1.5755843e+31
1.78995e+31
1.4835824e+31
1.5953563e+31
1.9590026e+31
2.0773843e+31
4.1265381e+30
5.3986501e+30
1.0594931e+31
8.5161182e+30
5.6300803e+30
4.5712369e+30
2.1604167e+30
1.8746109e+30
9.3214527e+30
1.7055766e+31
1.8626171e+31
1.2743167e+31
1.2697312e+31
3.837385e+30
6.4157485e+30
1.4987801e+30
2.6550047e+29
-9.6728076e+30
3.7627945e+30
5.11873e+30
-6.8207458e+29
-6.8240479e+30
3.7854512e+30
-1.4992715e+30
-1.0696192e+31
3.3236384e+30
-5.4711352e+30
-2.7703344e+30
1.6725898e+30
-3.7153378e+30
-9.0035273e+30
2.3788607e+30
-5.0645791e+29
-7.3307219e+30
1.5866565e+30
1.1085089e+31
-1.936004e+30
4.7188004e+30
7.3074862e+30
8.4147827e+30
7.3997608e+30
8.5887683e+30
6.0372535e+30
1.4462111e+31
1.9422582e+31
6.3177603e+30
6.4994578e+30
1.4128277e+31
8.6460437e+30
5.5276745e+30
6.6000673e+30
2.9736377e+30
3.1882515e+30
1.0662643e+31
1.6215189e+31
1.6296695e+31
2.0795385e+31
1.051279e+31
5.1515545e+30
8.9270256e+30
8.9764348e+29
1.4651081e+30
1.0517998e+31
1.1354859e+31
5.3400194e+30
5.2147854e+30
2.9802972e+30
1.8331759e+30
3.6226184e+30
2.8619808e+30
-6.8235864e+28
1.0628538e+31
1.7331613e+31
5.0210763e+30
6.7658044e+30
2.4089347e+30
3.4764088e+29
8.0985606e+30
-1.0350578e+30
-3.3819575e+29
-8.4600011e+30
2.3116256e+30
4.3822237e+30
-3.347999e+31
1.1144732e+31
1.0575008e+31
-1.2960906e+31
8.0714328e+29
3.5892062e+30
-2.8721823e+30
-4.1349852e+30
2.0194465e+30
-2.5455583e+30
-1.0750234e+31
2.6696942e+30
1.5531294e+30
-8.2635853e+30
1.5089926e+30
-1.592782e+31
9.7126451e+29
2.4851831e+30
-4.8878846e+30
-7.8510147e+30
2.8756067e+29
-6.7532271e+29
-7.884845e+30
1.6152949e+30
-6.1923849e+29
-3.9998195e+30
-3.064414e+28
1.3561219e+31
3.0283382e+30
4.017461e+30
7.3482012e+30
-1.2611731e+30
2.5800379e+30
6.9038065e+30
6.2779998e+30
1.0917833e+31
2.095028e+31
1.4365809e+31
6.2589928e+30
1.1733729e+31
1.3224018e+30
1.474443e+30
1.5620792e+31
1.42057e+31
5.5526812e+30
7.3976938e+30
4.3911566e+30
1.9272361e+30
4.2583972e+30
3.8878165e+30
2.8062349e+29
1.7084227e+31
1.4081646e+31
6.2720378e+30
9.0066884e+30
1.9409053e+30
1.8673152e+30
7.8242287e+30
-5.9290836e+30
1.5559221e+30
1.9634627e+31
6.7747984e+30
9.0062151e+30
5.9266821e+30
3.8601328e+30
1.5015692e+30
4.4146135e+30
4.1313462e+30
7.9445336e+27
8.447276e+30
-1.9950843e+30
-6.8377145e+29
4.8052778e+30
4.4454485e+30
4.7538938e+29
7.9063211e+30
8.6222821e+29
-5.2895193e+29
1.1537197e+31
2.5558144e+29
-5.1990244e+30
-8.0119e+30
6.1111201e+29
2.9723437e+30
-3.0330668e+31
1.0722705e+31
9.3896788e+30
-1.399772e+31
-4.1017031e+29
3.2834806e+30
-2.490044e+30
1.7292703e+31
4.0053289e+30
-4.5521514e+31
4.2150421e+30
9.6764146e+30
-9.4166301e+30
3.4334845e+30
2.3874428e+30
-9.733553e+30
-1.7984016e+30
5.0300526e+30
-4.5913632e+30
-9.4437777e+30
4.1636052e+29
1.5341898e+30
-9.4022029e+30
1.5985321e+30
1.1120344e+30
-4.5009458e+30
-4.4752833e+29
-2.8256439e+31
4.7102104e+30
1.7633244e+30
-1.1382243e+31
-4.6686168e+30
-4.126034e+30
-1.5561876e+30
-8.2727147e+30
-2.0719525e+27
-3.3576246e+29
-4.1973034e+30
1.9878803e+29
-1.8980913e+30
-4.0085567e+30
-7.4316664e+29
1.5535102e+31
7.2511323e+30
2.1407951e+30
7.3057101e+30
1.0323123e+30
1.815744e+30
3.5864311e+30
-9.4463673e+29
2.264156e+29
1.9933561e+31
1.5478111e+31
6.956078e+30
1.1151257e+31
3.6817547e+30
1.7550851e+30
8.0537915e+30
-1.255272e+31
2.3496577e+30
3.2231205e+31
9.6316266e+30
6.0589234e+30
8.7864698e+30
6.0158879e+30
1.0679522e+30
4.9399584e+30
5.63008e+30
-3.4058845e+29
8.4835722e+30
-4.3163798e+30
7.1214789e+29
7.096884e+30
3.4227836e+30
2.4986041e+30
7.1027618e+30
-4.4342007e+30
1.1759774e+30
1.0683249e+31
-3.3120034e+30
-2.0184773e+30
1.5724006e+31
3.5489076e+30
1.152252e+30
2.3815753e+31
8.4450785e+29
3.4265914e+30
5.8892878e+30
3.6192962e+30
4.4672099e+29
9.436e+30
2.610308e+29
-3.59606e+29
-1.7360906e+30
8.4412473e+30
-2.4266082e+29
4.3949392e+30
2.6628357e+30
-8.8810637e+29
2.1533376e+31
1.9941153e+30
-6.2053902e+30
-3.6971604e+30
-2.2129444e+31
-1.4531138e+30
-3.4851408e+30
-6.4850491e+30
7.7598002e+30
-2.4449771e+31
1.0348008e+31
4.3157292e+30
-1.4305799e+31
-2.150804e+30
8.3975532e+29
-1.7087405e+30
1.678586e+31
4.3068846e+30
-4.8285578e+31
4.3489054e+30
7.3943648e+30
-1.2192076e+31
3.3164448e+30
4.2761894e+30
-2.2690382e+31
8.6939739e+30
1.5244714e+31
-4.7692927e+31
1.2502296e+31
5.5913149e+30
-2.589615e+31
4.9477465e+30
8.0380408e+30
-4.4328971e+30
3.2719276e+30
1.7559651e+28
-2.3639301e+31
2.3752082e+30
-1.4851352e+30
-1.2316538e+31
-6.8520378e+30
3.3722639e+30
-6.4530015e+29
-9.6295028e+30
-2.6763993e+29
2.1144124e+30
-5.4450007e+30
9.2679538e+28
-1.4270905e+30
-4.3479486e+30
-1.085998e+30
-2.8373069e+31
6.7949323e+30
-8.3073683e+29
-2.2182545e+31
-3.7333999e+29
-1.450916e+29
-1.4346684e+30
-8.9360955e+30
-9.1216936e+30
-1.4000606e+30
-5.2360318e+30
-7.0103447e+28
-1.9262564e+30
-3.9024668e+30
-7.9784041e+29
-3.1121342e+30
-3.7825e+30
-9.8195439e+29
4.3972038e+31
8.9381331e+30
2.0502729e+30
8.1620994e+30
2.7005373e+30
1.0969114e+30
3.1518097e+30
1.9811272e+30
6.7797195e+29
7.2403186e+30
-4.0221661e+30
1.5653037e+30
1.1280081e+31
4.0213311e+30
2.4333216e+30
7.4957986e+30
-1.3144353e+31
1.9536258e+30
9.398247e+30
-6.3550977e+30
3.3566344e+29
2.2622866e+31
1.3918478e+30
4.7638175e+30
3.050311e+31
2.8266307e+30
2.5608301e+30
6.4322801e+30
5.7567123e+30
3.9832895e+29
1.2877664e+30
2.2486334e+30
1.2420732e+30
-9.590856e+30
1.0089885e+31
1.2351826e+30
4.5696181e+30
-3.1165286e+30
1.0061428e+30
2.3628804e+31
-1.2616521e+30
-2.9699201e+30
-1.206732e+31
-2.0865019e+31
-2.0030214e+30
2.10806e+31
-8.9152821e+29
2.5212328e+30
2.4121844e+31
-1.1473808e+29
-3.9691866e+29
1.9084224e+31
1.1755368e+30
1.0494992e+30
1.0566194e+31
7.3337013e+29
5.1815033e+29
-7.8473018e+30
8.914536e+30
3.5863788e+29
2.1249338e+30
-3.6987841e+29
-2.3156532e+29
1.7533998e+31
3.6358042e+30
-4.5682857e+30
3.8817851e+31
2.236289e+31
-2.0059055e+30
-7.5923811e+30
-1.8877032e+31
1.806244e+28
1.5513513e+31
1.4169888e+31
-1.3646644e+31
-1.4939201e+31
1.3658865e+30
-8.3893593e+30
-1.3172352e+31
-1.3213382e+31
7.5228917e+30
-6.9818815e+30
1.9838895e+31
7.0624681e+30
-4.7349409e+31
5.6532233e+30
-4.4246357e+30
-1.4107895e+31
2.1295293e+30
-1.9466121e+28
-2.5774906e+31
1.0232074e+31
1.3987618e+31
-5.6202828e+31
1.3480006e+31
6.8327115e+30
-2.9548478e+31
5.3381756e+30
9.0243238e+30
-5.9483429e+30
5.1133323e+30
2.7921318e+30
-2.9796726e+31
1.5191407e+31
8.1214135e+30
-2.3850719e+31
1.0056576e+31
1.11783e+31
-3.2734033e+31
1.2757468e+31
2.8467165e+30
-1.0692584e+31
7.9372095e+30
2.9429052e+30
-4.5456677e+30
-1.8802934e+29
-1.4638216e+30
-2.1083849e+31
6.0125178e+30
-7.7755001e+30
-2.2881316e+31
-2.6795488e+30
-4.959374e+30
-1.2185757e+30
-1.1368707e+31
4.8945802e+30
6.3869515e+29
-6.9971573e+30
-7.5459974e+29
-8.6576796e+29
-4.3548874e+30
-9.6221623e+29
-2.7913749e+30
-4.1064809e+30
-1.2893619e+30
-1.3866039e+31
-1.4486147e+29
1.0428344e+31
-1.1957897e+31
4.7949466e+30
-5.7648932e+30
-1.0147495e+31
-7.2947052e+30
-7.8553705e+29
-8.3125928e+30
-6.2015537e+30
-9.3500324e+30
-2.2932122e+30
-4.1772429e+30
-8.804786e+29
-3.293035e+30
-3.6877668e+30
-1.1578956e+30
-3.0044614e+30
-3.4850937e+30
-1.5904543e+30
3.4150131e+31
-2.0245097e+30
3.4567633e+30
2.961874e+31
2.6218838e+30
3.01305e+30
5.2427428e+30
3.2828412e+30
9.8446018e+29
-7.7485287e+30
2.1865232e+30
3.5049967e+30
-1.3351101e+31
-2.2125338e+30
1.1934287e+30
6.8111476e+30
-1.4911646e+31
1.959112e+30
2.1983119e+31
-1.5087743e+30
-1.247052e+30
-1.4268253e+31
-2.2253926e+31
-1.8730556e+30
2.3268851e+31
-3.1761058e+29
2.3479914e+30
2.8081991e+31
-5.6760118e+30
3.3632179e+30
2.384932e+31
7.6262498e+29
2.789469e+30
8.4970894e+30
3.1710679e+30
1.5445537e+30
-8.683355e+30
1.0756087e+31
1.4117942e+30
1.580112e+30
7.4912723e+29
8.4095898e+27
1.9509979e+31
1.463453e+30
-3.6949648e+30
1.8961562e+31
-5.694476e+29
-3.4091365e+30
-8.1045201e+30
-2.4719527e+31
6.4263387e+29
5.765841e+31
-1.458398e+30
-5.7769428e+30
4.84655e+31
2.541146e+29
-1.1293824e+30
5.1747439e+31
-1.4599899e+30
-5.1143637e+30
2.0066639e+31
-3.100776e+29
1.9621863e+29
1.346479e+31
1.3385229e+30
6.6707099e+29
1.1723785e+31
-5.4097082e+29
-3.9822796e+29
2.9212025e+30
-6.5756046e+29
3.8662358e+29
3.0649391e+31
4.4834344e+30
-4.519822e+30
2.5794872e+31
1.2403617e+30
3.7484994e+29
4.0171552e+30
-2.1643093e+31
1.2378716e+30
9.0483158e+30
5.2044524e+31
-1.8410668e+31
1.1661576e+31
-3.8843062e+31
-1.9170563e+31
1.8362357e+30
-1.4301817e+31
1.349868e+31
-1.1292563e+31
5.006813e+30
-8.1895344e+30
-1.5142131e+31
-6.1335566e+30
-2.3208588e+31
-2.0047699e+30
-1.8591407e+31
1.2791973e+31
-3.1564382e+31
1.5450323e+31
1.58315e+31
-6.2808812e+31
1.3943875e+31
6.53572e+30
-3.652627e+31
6.9906216e+30
-2.3081742e+30
-9.3774102e+30
3.8944318e+30
1.5359761e+29
-3.9467895e+31
2.3053649e+31
1.0329593e+31
-2.8338449e+31
1.2021378e+31
1.1792751e+31
-2.4228995e+31
1.6775901e+31
3.5344462e+30
-1.1946815e+31
9.4304356e+30
5.9608609e+30
-4.0806745e+30
1.4507372e+30
9.895912e+27
-1.2473297e+31
9.5157156e+30
1.3288865e+31
-2.2831874e+31
1.5711602e+31
2.4956964e+30
-1.0785322e+31
8.7249425e+30
7.2144459e+30
-7.3266128e+31
-4.6188608e+30
-4.1260871e+30
-1.5096426e+31
5.9896749e+30
-3.3056585e+30
-4.6450897e+30
-2.4352614e+30
-1.5624047e+30
-2.1167562e+31
-5.0360339e+30
1.06007e+31
-1.2796445e+31
2.930343e+30
-1.2546803e+31
-1.103736e+31
-8.5686827e+30
-6.8705422e+30
-5.6698486e+30
-6.7599305e+30
2.0131957e+30
-8.9502095e+29
-5.6560014e+30
-8.5288611e+29
-2.9305082e+30
-3.9943295e+30
-1.437133e+30
-2.1352261e+30
-3.9892091e+30
-1.910482e+30
-1.5204549e+31
7.0753061e+30
-3.3082066e+30
-2.5554458e+31
-9.0855432e+30
5.625969e+30
-1.3801734e+31
-4.9676263e+29
-1.0555685e+31
-7.2735173e+30
-7.1566294e+30
-1.5874943e+30
-1.5302831e+31
-3.5492306e+30
-5.9338947e+30
-3.1373351e+30
-3.4440421e+30
-1.4579742e+30
-3.1447222e+30
-3.5481164e+30
-1.7635634e+30
-3.4610577e+30
-2.9977685e+30
-2.9951422e+30
2.7503431e+31
-4.2338845e+30
5.9703623e+29
3.1293509e+31
-1.6441934e+31
1.7755925e+30
2.9811187e+31
-5.3241173e+30
5.6580987e+30
3.7277806e+30
5.2008882e+30
2.7391454e+30
-1.1730027e+31
2.7927822e+30
1.5464669e+30
6.466639e+29
1.3334303e+30
2.3823097e+29
2.3623579e+31
-8.2868335e+29
-2.8346801e+30
1.2839751e+31
-1.348644e+31
-3.8926674e+30
-5.1880876e+30
-2.8074202e+31
8.2103136e+29
6.0177909e+31
-5.5648505e+30
-2.9480754e+30
5.0930378e+31
2.3327059e+29
4.1264504e+29
6.5966169e+31
-5.9038329e+30
-3.4883948e+30
2.1436108e+31
2.9687019e+30
1.6217373e+30
1.8737126e+31
5.7723672e+30
1.2559656e+30
1.3057458e+31
1.5920117e+30
-7.6485061e+29
3.1390804e+30
-4.3907993e+29
-6.2190099e+27
3.385935e+31
-1.9388311e+30
-5.535537e+30
1.8220924e+31
-2.2111689e+31
1.5580709e+30
2.3409763e+30
-1.5724981e+31
8.0792916e+29
9.4394042e+31
-3.6593373e+30
-4.9855914e+30
1.56033e+31
1.6272123e+30
-6.3853208e+30
3.3977245e+31
-1.7838301e+30
-3.7416696e+30
1.0400746e+32
-7.6225211e+30
-1.7200416e+31
4.2238559e+31
-2.3557444e+30
-1.7425991e+30
1.1246717e+31
-1.4618501e+29
-2.3739674e+29
3.1465168e+30
-9.217133e+29
4.0200759e+29
3.4643515e+30
-1.7103067e+29
-1.0982181e+30
1.724314e+31
-2.825844e+31
1.112239e+30
1.4065108e+31
7.351353e+30
1.3880605e+30
6.2342135e+30
-3.0462158e+31
-3.6408806e+28
2.8572406e+31
3.9498296e+30
-5.4988891e+31
2.5866933e+31
-4.185725e+31
4.8132699e+31
-6.600139e+30
3.5861569e+31
-1.8331892e+31
-3.9956824e+30
-3.866371e+30
-6.042481e+31
1.2256007e+31
-4.459473e+31
-2.5362717e+31
-4.0790847e+31
5.6502124e+31
1.6305687e+31
-1.8188313e+31
-4.3205092e+30
1.0075291e+31
-1.5076617e+31
2.6709778e+30
-1.4714059e+31
-3.6072521e+30
-1.4964756e+31
-3.4265437e+31
6.5981299e+30
-9.1371496e+30
2.8270867e+29
-4.9561986e+31
2.7828865e+31
1.1659676e+31
-3.3439261e+31
1.7467416e+31
1.0456018e+31
-3.0062709e+31
3.7648842e+31
-1.6558204e+30
-2.8642998e+31
1.0483464e+31
7.7988955e+30
-8.0374452e+30
1.833688e+30
1.3809188e+30
-2.1102474e+31
1.1510915e+31
3.2193771e+31
-2.0665193e+31
1.9276479e+31
5.6622012e+30
-1.0416075e+31
1.0289103e+31
1.0565876e+31
-6.3163282e+31
9.6213943e+30
-3.3500422e+30
-1.4399031e+31
8.634791e+30
-1.9213507e+30
-4.1464897e+30
-1.9562307e+30
-1.4632016e+30
-6.9058071e+29
9.5783581e+30
9.5468981e+29
8.8307698e+29
8.0208462e+30
5.0894393e+30
-5.6407368e+31
-8.769501e+29
-2.3547125e+30
-4.4071703e+30
3.0294784e+30
1.651858e+30
-8.0182469e+31
4.1877633e+30
-6.0389902e+29
-1.284601e+31
-1.2643486e+30
-4.9610988e+30
-4.487987e+30
-1.212059e+30
-2.2219449e+30
-2.1466333e+31
7.8846152e+30
-3.7293186e+30
-2.6788781e+31
-5.2553146e+30
5.3598802e+30
-2.2989659e+31
-1.2372797e+30
-1.0689547e+31
-6.977487e+30
-7.349391e+30
-6.5783523e+30
-1.6588019e+31
-2.9126377e+30
5.5194556e+29
-2.5870908e+30
-3.9924731e+30
-1.4056058e+30
-2.335566e+30
-4.1553877e+30
-2.0802605e+30
-2.6845154e+30
-3.8692787e+30
-3.3903074e+30
-1.7594817e+31
-3.5292474e+30
2.7942659e+29
-1.6808898e+31
3.5990329e+30
-9.6811261e+30
-3.1911078e+30
-5.5006612e+30
3.1273391e+30
-1.6994501e+31
-7.0950461e+30
-9.6399444e+30
-2.5824213e+30
-6.5402179e+30
-3.4855083e+30
-9.4561365e+30
-4.8584184e+30
-3.4322419e+30
-3.057137e+30
-3.4904245e+30
-1.8994361e+30
-3.6491046e+30
-2.1613158e+30
-3.3298929e+30
-4.458008e+30
-4.2538867e+30
-3.564604e+30
5.2569221e+31
-1.298165e+31
-8.5294288e+28
4.1802174e+31
-1.1138143e+30
5.5150462e+30
8.1198677e+31
-9.068226e+30
-5.2173609e+30
2.6223895e+31
2.9427659e+30
3.1280682e+30
1.317165e+31
9.2425787e+30
1.8547564e+30
1.1902253e+31
5.1193138e+30
-1.0843963e+30
2.2218173e+30
2.007307e+30
3.8218748e+29
3.3855651e+31
-1.2784955e+31
-3.5324491e+30
1.7342711e+31
-3.2622868e+31
1.534687e+30
5.4032334e+30
-1.8014359e+31
-4.2969179e+29
9.3600485e+31
7.0372481e+29
-5.2414711e+30
1.0962724e+31
-1.0997189e+30
-3.1115211e+30
3.8079718e+31
1.7934661e+30
-2.5144553e+30
1.322355e+32
-1.643136e+31
-1.7223918e+31
5.3378083e+31
-1.0109089e+30
-2.7348979e+30
1.3334447e+31
1.7108369e+30
-9.5079534e+29
3.5302013e+30
-1.232792e+30
-3.5492381e+29
3.7025578e+30
2.506599e+29
-1.1197173e+30
1.1962353e+31
-2.4375101e+31
2.0091052e+30
6.936256e+30
-9.1139681e+30
2.0763767e+30
3.2354525e+30
-1.3675744e+31
-3.0008503e+30
5.6533463e+31
6.199436e+30
-1.2849025e+31
4.3549995e+31
-2.7041588e+30
-1.3279581e+30
8.2663424e+31
-6.4842874e+30
-2.054818e+30
1.0074781e+31
-4.1834621e+30
-1.664577e+30
1.5521829e+32
-9.9477125e+30
6.2454076e+30
1.3496003e+31
1.468834e+29
-2.1621438e+30
4.1182357e+30
-2.1082867e+30
4.8677469e+29
2.74921e+30
8.9117972e+29
-4.7183877e+28
2.3931282e+30
2.0577548e+29
-2.9905027e+30
1.7652083e+31
-2.4035886e+30
1.2077784e+30
1.0259826e+31
-3.4939288e+29
-1.0090285e+30
-7.6332567e+30
-5.1738432e+30
-3.953207e+30
2.6506127e+31
2.7328119e+31
-4.8956741e+31
9.8338276e+31
-1.0130155e+31
-3.3122253e+31
6.1060714e+29
3.35014e+31
-4.3131398e+31
1.4270237e+31
-2.5851283e+31
1.5900215e+30
4.1599155e+31
-4.0961375e+31
2.631196e+31
-4.6713858e+29
-3.6714687e+31
1.986182e+31
-3.9745146e+31
1.0947486e+31
6.6356997e+31
-1.0072292e+31
-4.7107869e+31
-5.1446658e+31
1.3476166e+31
-2.7146163e+31
-3.3737673e+31
-2.0241019e+31
2.7797959e+31
1.6784668e+31
-2.2904588e+31
1.1224624e+31
-1.1435828e+31
-1.0637333e+31
2.2560316e+30
4.8395593e+30
-3.204099e+31
-4.9974703e+30
-1.5629751e+31
-9.208528e+30
-1.4740968e+31
-2.6430617e+31
-1.5178912e+31
-5.0072268e+30
-4.1571445e+30
-7.1880487e+30
1.3124133e+31
1.8257783e+31
-2.1845523e+31
5.4411151e+31
-3.9225171e+30
-1.3026122e+31
6.6353657e+30
1.6914464e+31
-5.943254e+31
2.6964132e+31
1.5049684e+30
-2.4836866e+31
1.4500315e+31
5.5697977e+30
-4.2089891e+30
-4.3698767e+29
-7.0699092e+29
1.3155321e+31
1.4124659e+31
2.8161029e+30
1.0505615e+31
9.4787251e+30
2.3382485e+31
-4.7707751e+31
6.4094453e+30
1.7397393e+29
2.0909376e+30
4.9669961e+30
7.735208e+30
-8.1890475e+31
1.4326453e+31
1.3746053e+30
-1.2748907e+31
9.8201963e+29
-4.9566559e+30
-4.4438372e+30
-1.1023279e+30
-2.7406327e+30
-5.2771316e+30
3.2718408e+30
5.6066827e+30
-4.137967e+31
-2.210029e+29
-4.5447654e+30
-6.1255682e+30
-1.4910377e+29
-3.2982921e+30
-8.721499e+31
1.079174e+31
-3.3097689e+29
6.8760466e+29
-4.6244596e+30
-3.4826352e+30
-1.9767775e+31
8.0157253e+30
-3.7660238e+30
-6.5138605e+30
-7.6036717e+30
1.3588858e+30
-8.1014989e+30
-1.7202811e+31
-1.611829e+29
2.398461e+30
-2.2608758e+31
3.645649e+30
-2.8119262e+30
6.9943971e+30
8.8639145e+30
-1.7877333e+30
-2.9872281e+31
-4.8816482e+30
-2.7837944e+29
-3.8849619e+30
-7.1978419e+30
-9.9126262e+29
-1.0401421e+31
-3.0421854e+30
5.4467589e+29
-2.4752278e+30
-3.8897768e+30
-2.2531896e+30
-2.8761938e+30
-2.8029387e+30
-3.9194496e+30
-4.1091713e+30
-5.2465376e+30
-4.1951067e+30
-1.5218135e+31
7.7210093e+29
-2.9481885e+30
-2.0855797e+31
-4.5012736e+29
4.2596249e+29
-1.6847593e+30
-6.5408127e+30
-1.3430476e+31
3.7094596e+30
2.8890846e+30
-1.2354578e+31
-7.8801757e+30
-8.4296998e+30
-2.9487988e+30
-7.8576656e+30
-4.9245674e+30
-6.1941419e+30
-3.4594934e+30
-5.2968559e+30
-3.9762055e+30
-9.9414529e+29
-3.7546898e+30
-5.1006351e+30
-3.5766049e+30
-4.1943241e+30
-6.3318406e+30
-5.8718761e+30
-3.0979366e+30
6.9932744e+31
1.1742076e+31
-2.1694567e+30
8.7057256e+30
-3.521906e+30
-3.3743854e+30
3.530037e+31
7.8142427e+30
3.4231959e+30
1.5051032e+32
-1.8135906e+31
-1.8141191e+31
6.1021032e+31
5.699142e+30
-9.7142762e+29
1.3682446e+31
8.3117931e+30
-1.6858081e+30
3.2353097e+30
1.2691284e+30
-5.1380648e+28
2.6853529e+30
2.3464929e+30
1.388325e+30
-1.0061654e+30
-2.5803461e+31
2.6167786e+30
2.9398442e+30
-1.2348348e+31
-1.34776e+29
9.4826194e+30
-3.4934314e+31
-9.879324e+30
5.8311396e+31
8.3061842e+30
-1.0479772e+31
3.7630638e+31
-9.9349765e+29
3.4656025e+30
7.8951563e+31
-9.2662579e+30
-6.5646307e+30
1.6968546e+31
-6.4136984e+30
-4.0056946e+30
1.2819168e+32
-1.6470612e+31
1.8984947e+30
1.8559024e+31
-1.610464e+30
-4.4772431e+30
4.3399189e+30
-2.7895536e+30
3.8424544e+29
1.6046711e+30
1.8574436e+30
-8.1713233e+29
6.0223683e+30
7.8382477e+29
-3.0224979e+30
1.8650275e+31
-9.4602496e+30
1.3573511e+30
8.5264375e+30
-8.1354092e+30
-1.7323324e+30
-1.6093431e+31
-2.453825e+31
-8.4240151e+30
1.0114456e+32
-7.0110877e+30
1.4345383e+31
2.4710139e+31
8.4349335e+29
-1.4533186e+31
8.743543e+30
-8.1305335e+30
2.2849908e+30
5.1231715e+31
-8.8289963e+29
-1.6543451e+30
1.0158843e+31
1.5278163e+30
-5.5718838e+30
6.4642665e+31
-1.4246442e+31
4.7626243e+30
7.204412e+30
-5.5559962e+30
1.339272e+30
9.6617211e+30
-1.9048312e+30
8.7034051e+29
2.1796997e+30
5.2558134e+29
-7.155015e+29
-8.7124346e+30
2.9519668e+30
-1.3462289e+30
8.9574152e+30
-2.9670568e+30
-9.1809012e+28
-3.9634962e+30
-7.7943632e+30
-6.3679217e+30
6.0308999e+31
1.5590469e+31
-4.8072352e+29
3.4166231e+31
-2.6780693e+31
5.3532245e+31
1.2889888e+32
-2.1834387e+31
-3.2434233e+30
-1.1967604e+31
2.2744649e+31
-4.4851999e+31
1.5613744e+32
-3.7520004e+31
-3.7669775e+31
2.5905081e+31
2.2838579e+31
-3.9658348e+31
-6.868016e+30
3.8879491e+31
-5.6767295e+30
9.2508963e+30
2.9309252e+30
-1.1449256e+32
1.3237891e+31
-2.038655e+31
-4.2294203e+31
2.9266751e+31
-2.4556898e+31
2.2052698e+31
1.2722715e+31
6.1461868e+30
1.6052499e+31
-1.7826691e+31
2.4325256e+31
9.3418786e+30
-4.7184426e+30
1.5797808e+31
-2.3871388e+31
-9.9141097e+30
-5.4066203e+31
-2.3821131e+31
7.3991849e+30
-1.8285592e+31
-6.2867512e+31
-5.6646563e+30
7.6186021e+31
-3.3534554e+30
-1.3890477e+31
5.4221602e+30
4.7457136e+30
-3.4635104e+30
2.167245e+30
-3.7746205e+31
1.7163301e+31
1.2323452e+31
-3.9706161e+30
-4.2424363e+31
-1.4278644e+31
-3.5398681e+30
-1.7729576e+31
-1.2741681e+31
-4.8518951e+30
-1.659152e+31
-2.6591173e+30
4.8216752e+29
-4.9737018e+30
1.0119158e+32
-1.5527426e+31
2.4402574e+31
1.9857521e+30
9.0108705e+30
-5.7725677e+31
3.152677e+31
1.5324388e+30
-1.0806796e+31
8.834493e+30
3.5478163e+31
-6.9880049e+31
-1.0860293e+31
-6.5128917e+29
-1.9239408e+31
1.505057e+31
-3.4276759e+30
-3.9437846e+30
-8.0525677e+29
-2.8770087e+30
7.4184088e+30
3.5463011e+30
7.3615924e+30
-3.2517911e+31
3.7867005e+30
-3.4242052e+30
9.4190676e+30
-3.4056356e+29
1.3146033e+31
-8.911405e+31
1.5916754e+31
4.8223486e+29
8.5430888e+30
-1.687694e+30
2.5491244e+30
-1.221069e+31
-3.2427285e+30
-2.7331991e+30
-7.0917939e+30
-4.907842e+30
2.2097051e+30
-1.0522338e+31
-4.3910413e+31
5.5318937e+30
-2.5415991e+30
-2.5296388e+31
1.3709354e+30
8.4175947e+30
-7.4447218e+31
1.3379154e+31
-4.1845038e+30
-1.4073553e+31
-5.1763035e+30
-5.6389781e+30
-1.8714284e+31
-8.9426474e+31
1.1144167e+31
-1.3885114e+31
6.4108576e+30
-1.641557e+31
-5.1834589e+30
-1.1083719e+31
-2.3328401e+31
-3.9876587e+30
-1.7667039e+31
3.9892687e+29
-1.0313406e+31
-1.6863319e+31
4.8564309e+29
4.643028e+30
-2.1894277e+31
9.3551948e+30
2.9445938e+30
-8.1292628e+30
-2.9200517e+30
1.670636e+30
4.9998629e+30
1.5709135e+29
-1.9451253e+31
-5.2690052e+30
4.8917545e+30
1.7451019e+30
-8.5163906e+30
-2.1387395e+29
-3.9108587e+29
-3.2521932e+30
-5.8963168e+30
-2.6726379e+30
-1.6979266e+30
-4.6617494e+30
-4.6048127e+30
-4.3639919e+30
-5.2978801e+30
-6.2034351e+30
-7.6239774e+30
-3.6669185e+30
-3.7220629e+31
8.3209437e+30
3.2913411e+29
-1.0168636e+31
-4.7889695e+30
-6.3741269e+30
-5.3930253e+30
-3.304381e+31
1.0161615e+31
-4.1198429e+30
-3.9266017e+30
-1.1549933e+31
-1.0876149e+31
4.3678427e+30
-1.279637e+31
-8.4024321e+30
-6.0098216e+30
-5.7219221e+30
-6.3000948e+30
-9.0238935e+30
-2.7712349e+30
-8.7305647e+30
-1.1155966e+31
5.2084923e+30
-1.2266909e+31
-6.9784985e+30
-6.3632465e+30
-3.7286397e+30
-6.3453867e+30
-5.0999862e+30
-2.2240282e+30
7.2086318e+31
4.4930906e+30
-1.0047618e+31
2.7009111e+31
2.7942215e+30
1.3472465e+31
7.3898011e+31
-3.3272935e+30
-1.3129346e+31
2.816561e+31
4.5567437e+29
-2.5303755e+30
1.125364e+32
-2.4341075e+31
-3.9481659e+30
2.7169992e+31
4.0910305e+30
-5.361879e+30
3.6945973e+30
-1.3731867e+29
3.6594086e+29
4.3840613e+30
-1.4682137e+29
-3.3751846e+29
1.1101911e+31
3.0363119e+30
-9.3401947e+29
2.2469109e+31
-1.375421e+31
2.0380201e+29
8.7452029e+30
-2.3825368e+31
-1.1463914e+31
-8.3407479e+30
-7.639509e+31
-1.9197676e+31
9.2159305e+31
-7.5990093e+30
2.3897271e+31
1.7057664e+31
2.9401164e+30
-1.5033386e+31
8.8037956e+30
-7.2407925e+30
4.2335351e+30
2.1979192e+31
8.415105e+30
-2.1976204e+30
1.3658771e+31
2.2461586e+29
-9.340942e+30
6.0071951e+31
-8.5905088e+30
5.5995501e+30
6.480277e+30
-6.9204986e+30
3.7773938e+29
1.1475015e+31
-1.4786779e+30
1.9070757e+30
3.2422709e+30
4.1640608e+29
-1.51239e+30
-1.8912611e+30
2.6929453e+30
-4.4377154e+30
9.0802138e+30
-6.8273212e+30
-7.4140564e+28
-8.4427803e+30
-1.4608246e+31
-7.1838562e+30
2.0197885e+31
1.4830301e+31
-4.4079525e+30
5.6493401e+31
1.6580433e+31
-2.3312331e+31
2.3201557e+31
-6.9912158e+30
1.8648949e+31
5.2612327e+31
-2.2623661e+31
-5.5859761e+30
-2.2111176e+31
2.8036759e+31
-1.7649579e+30
-6.054171e+31
1.8609506e+31
2.1546595e+31
1.8028523e+31
-9.3564731e+30
-3.332328e+30
1.0584939e+31
2.3004304e+30
5.1869393e+30
-2.4156394e+30
2.1341158e+30
-5.7015976e+30
1.2347415e+31
-2.2875021e+31
2.8812281e+30
1.0880606e+30
-1.6935765e+31
2.0315008e+31
5.5169521e+29
3.7172161e+30
-3.824861e+30
-7.6496094e+30
8.1660174e+31
6.4850644e+31
2.0134408e+30
9.818738e+31
1.0277549e+32
-8.944214e+29
-5.1027638e+30
1.6308738e+32
1.0690963e+29
-3.0630693e+31
-2.5574823e+31
3.0695683e+31
2.2823237e+31
-6.820337e+30
9.1198864e+31
1.3676492e+32
-4.353227e+31
-6.6416744e+31
1.4413184e+32
-2.3478427e+31
-2.5485002e+31
-4.5792425e+31
3.099843e+31
-2.7674642e+31
6.333205e+31
-4.4542394e+31
-1.3652987e+31
7.4706955e+31
-1.4557634e+31
-1.0820311e+30
8.0081276e+31
-2.4584775e+30
-6.3147839e+30
-2.0713277e+31
3.3713717e+31
2.1055242e+31
1.9193484e+31
-1.8033495e+31
-9.9091828e+30
4.6746856e+30
-1.6193802e+31
-1.2807814e+32
-2.0441226e+31
-2.8681018e+31
-2.7642502e+31
2.2385263e+31
-6.182133e+30
2.4420823e+30
4.3411806e+30
3.9122657e+31
-4.9099991e+30
-2.5408842e+31
1.1996297e+32
-7.9333529e+30
3.8943211e+29
1.1007474e+31
1.0279501e+31
1.6556855e+30
-1.9813404e+30
-1.2003592e+32
8.6404813e+30
-4.802661e+31
-2.0450055e+31
-5.2849989e+31
-3.7129403e+31
-8.7194265e+30
-2.0739803e+30
5.4423461e+31
-1.1369801e+31
-1.7726629e+31
-3.3554702e+30
1.1808027e+31
-2.235452e+31
1.1645583e+31
5.8836738e+30
4.5637889e+29
-1.7070998e+31
-4.353942e+31
1.2494421e+30
3.474369e+30
-3.079106e+31
-1.0660091e+31
5.7191688e+30
1.9301666e+30
-1.2453866e+31
4.7572107e+30
-4.2713131e+30
-4.2623539e+30
4.6807498e+30
6.4359314e+30
7.2039976e+29
1.0343967e+32
-4.6970901e+31
3.6546031e+31
-6.0938056e+30
9.1575585e+30
-8.0122884e+30
2.6119109e+31
-9.7088754e+31
2.6071937e+30
-3.9602601e+30
9.0313681e+30
8.863828e+30
4.1176099e+31
1.5445886e+31
-5.8388102e+30
-3.4303805e+30
-3.5357865e+30
-4.4517606e+30
1.7098906e+30
-7.7156294e+30
-4.140515e+31
7.1948801e+30
-2.3660094e+30
-3.163731e+31
9.4230766e+29
1.2418951e+31
-7.3443151e+31
1.662558e+31
-5.1373854e+30
-8.6219675e+30
-2.8119473e+30
8.8183265e+30
3.3087528e+29
-7.7765171e+31
1.0935843e+31
-2.2446452e+31
6.6653226e+30
-7.4326509e+30
-6.1703859e+30
-6.9301545e+30
-1.7495232e+31
-2.2044854e+30
-1.8031126e+31
-7.0397078e+27
-1.4756042e+31
-3.9747626e+31
-7.5843598e+29
1.0928624e+31
-6.1665699e+31
1.2966515e+31
-2.4986697e+30
-2.6350322e+31
-1.2488129e+29
7.978379e+30
-6.2117628e+31
1.0221926e+31
-1.0896675e+31
-2.7782218e+31
-5.138918e+30
-5.8494636e+30
-7.9216984e+31
-3.2991907e+30
-2.0398271e+31
-1.9954887e+31
-7.9496718e+29
-1.3909525e+31
-2.7944888e+31
-1.7588275e+30
-1.1966377e+31
-3.9459322e+31
1.1292983e+31
7.8753752e+29
-1.3335302e+31
-3.4274161e+30
8.3155238e+30
-6.1021903e+30
-3.1982093e+31
1.343522e+31
-5.4512586e+30
2.273634e+30
-1.0268881e+31
4.720779e+29
2.8067264e+30
-1.0295984e+31
-7.0826881e+30
9.6025337e+29
8.6935839e+30
-7.9164298e+30
-9.9668563e+30
4.9619052e+29
-1.0861637e+31
-1.0385764e+31
6.7689214e+30
-1.6564828e+31
-6.8225805e+30
-8.3889081e+30
-4.6888942e+30
-6.739653e+30
-6.2948928e+30
-2.5930353e+30
-3.3390797e+31
4.4709916e+29
7.610904e+30
-4.1754075e+31
1.4575452e+31
-3.7717752e+30
-1.1958877e+31
-8.8233986e+30
-5.7036573e+30
-3.3130653e+31
1.1334613e+31
-5.2871887e+30
-5.9578134e+30
-1.0248996e+31
-7.6934666e+30
-1.735729e+31
-7.1519751e+30
-5.788677e+30
5.0792052e+30
-2.1604648e+31
-2.2113742e+30
-1.1814967e+31
-5.8964545e+30
-2.7032584e+31
-3.7935628e+30
-1.3404391e+31
-6.7678166e+30
-5.9997182e+30
-2.6459107e+30
-4.8336317e+30
-3.7181572e+30
-2.0069548e+30
8.6590613e+31
-8.8330716e+30
2.168941e+31
3.2512943e+31
-6.2876838e+30
-2.2541966e+31
1.4891016e+31
1.7523705e+30
6.0891335e+30
-4.2862055e+31
2.6640566e+31
7.3056508e+29
2.8569738e+31
-2.1099832e+30
-1.1240232e+31
-1.1226738e+31
6.407163e+29
5.2955582e+31
-5.3830147e+30
1.4944528e+29
6.2146159e+30
8.6121966e+30
-2.2257589e+30
5.3076843e+30
9.0055809e+30
-2.8675605e+30
-1.9707424e+29
1.3356856e+31
-1.0832962e+30
-1.1433152e+31
1.4861187e+31
-1.8064218e+31
-1.1338843e+31
-1.2980812e+31
-5.6546068e+31
-2.6776466e+31
-6.474116e+29
-6.6646145e+31
-1.7935349e+31
5.7179145e+31
2.1090211e+31
-2.6434589e+31
2.6665387e+31
-8.3078565e+30
2.1501221e+31
8.198175e+31
-2.970008e+31
-6.2871315e+30
-2.0374688e+31
1.13931e+31
-8.6700434e+30
-1.0126486e+32
1.7028681e+31
1.2906605e+31
1.7797384e+31
-1.0088424e+31
-5.9419941e+30
9.4467292e+30
-8.9950537e+28
6.4358987e+30
-2.3498849e+30
1.1497125e+31
-4.7810354e+30
-2.2585228e+30
-9.6967009e+30
-7.9440551e+30
-4.053737e+30
-2.1193741e+31
1.8423471e+31
-2.6052291e+30
6.7022096e+30
-6.9973452e+30
-1.0671479e+31
4.4373338e+31
4.6551197e+31
-1.6178248e+30
3.9501756e+31
2.8582697e+31
-3.9773818e+30
2.1856439e+31
-9.7746013e+31
4.7073656e+31
1.2099983e+32
-1.3760028e+32
4.7721047e+30
-3.8841682e+31
3.6325174e+31
-1.688855e+30
4.0455e+31
1.1480046e+30
3.7149587e+30
5.034305e+31
-6.356516e+30
-1.103653e+31
3.8713854e+30
4.0642521e+31
4.9237566e+30
-3.93052e+31
5.0859273e+30
-1.6087208e+31
-1.9611237e+31
8.2181661e+30
2.5635266e+31
-2.6060815e+29
-1.1187711e+32
-9.9436466e+28
2.3072352e+31
-5.1494151e+31
3.5789612e+31
7.3153979e+29
1.4461643e+31
-2.5610311e+29
-5.9993756e+29
1.2141852e+32
-5.7077376e+31
-3.6424361e+29
4.3696385e+31
4.6350699e+31
-7.7967813e+30
5.8928794e+31
-9.2298009e+31
7.0664635e+30
1.5879205e+32
-4.0091977e+31
-2.6641767e+31
1.0352132e+31
1.7394478e+32
8.049701e+30
-5.5426525e+31
1.8448385e+32
-2.2815597e+31
6.7458529e+30
-2.8197024e+31
-4.5240994e+31
-5.8572183e+31
-3.8907883e+29
6.2395583e+31
1.3496845e+31
4.4057444e+30
1.0483901e+32
6.2853699e+31
-5.8033775e+30
-4.9353968e+31
8.508378e+31
-2.3400327e+31
-1.7020005e+31
-7.3669175e+30
-3.9188899e+31
-1.2686387e+31
-1.9322154e+31
4.2135803e+31
-5.2007717e+31