/*--------------------------------*- C++ -*----------------------------------*\
  =========                 |
  \\      /  F ield         | OpenFOAM: The Open Source CFD Toolbox
   \\    /   O peration     | Website:  https://openfoam.org
    \\  /    A nd           | Version:  7
     \\/     M anipulation  |
\*---------------------------------------------------------------------------*/
FoamFile
{
    version     2.0;
    format      ascii;
    class       volScalarField;
    location    "6000";
    object      pMean;
}
// * * * * * * * * * * * * * * * * * * * * * * * * * * * * * * * * * * * * * //

dimensions      [0 2 -2 0 0 0 0];

internalField   nonuniform List<scalar> 
34124
(
-1.449315e+70
-1.1225246e+70
-1.2925723e+70
-1.3301131e+70
-8.9951034e+69
-1.1291826e+70
-1.1455294e+70
-9.9278775e+69
-1.2096284e+70
-1.0267414e+70
-8.2604051e+69
-9.123784e+69
-9.334404e+69
-9.560476e+69
-1.0903567e+70
-1.0295404e+70
-8.7795728e+69
-1.0074482e+70
-1.0020131e+70
-8.7648031e+69
-8.3158808e+69
-8.305375e+69
-8.0399148e+69
-8.4619489e+69
-9.2186807e+69
-9.0006642e+69
-9.7281808e+69
-9.6847304e+69
-1.0002112e+70
-1.0064481e+70
-8.7785315e+69
-7.5574343e+69
-9.3183116e+69
-8.8829839e+69
-7.288788e+69
-8.2264818e+69
-8.3165898e+69
-8.0628006e+69
-8.1676715e+69
-8.0139823e+69
-8.0966815e+69
-8.6776602e+69
-8.6994511e+69
-8.9064044e+69
-9.3429315e+69
-9.199709e+69
-8.4220665e+69
-9.2679472e+69
-9.3752502e+69
-8.0768608e+69
-8.8269798e+69
-8.148442e+69
-7.5947999e+69
-8.7926951e+69
-7.673725e+69
-6.7953993e+69
-8.1953775e+69
-8.6466885e+69
-8.0253283e+69
-8.1871433e+69
-8.0402265e+69
-8.1002072e+69
-7.7269649e+69
-7.9387083e+69
-8.0956925e+69
-8.311833e+69
-8.5872886e+69
-7.8984953e+69
-8.4993848e+69
-9.0750651e+69
-7.99333e+69
-8.7924129e+69
-8.3887395e+69
-8.0101728e+69
-8.9963097e+69
-8.0799711e+69
-7.5329137e+69
-8.2434472e+69
-7.9695001e+69
-8.1234109e+69
-8.400527e+69
-7.5707182e+69
-6.722962e+69
-7.0596759e+69
-8.0846309e+69
-8.5379203e+69
-8.0059131e+69
-8.0600618e+69
-8.1904579e+69
-8.1069131e+69
-7.7439365e+69
-7.9563119e+69
-8.1022633e+69
-8.3121023e+69
-7.4615442e+69
-7.6416896e+69
-8.072724e+69
-8.3192202e+69
-8.5601978e+69
-8.2242586e+69
-7.9761981e+69
-7.6589067e+69
-8.6900629e+69
-7.954608e+69
-7.8222793e+69
-9.0255371e+69
-7.8599476e+69
-8.2821804e+69
-8.2822637e+69
-7.9710537e+69
-7.5825414e+69
-8.3548728e+69
-7.9617739e+69
-5.8675719e+69
-7.9906101e+69
-8.8770269e+69
-8.3193606e+69
-6.0839626e+69
-7.1126051e+69
-6.0278202e+69
-7.6933878e+69
-8.308511e+69
-7.9295512e+69
-8.0203133e+69
-8.1590316e+69
-8.1153214e+69
-8.311323e+69
-8.2492653e+69
-8.1752789e+69
-8.3240517e+69
-7.5022326e+69
-7.6684558e+69
-8.0719083e+69
-8.3151542e+69
-8.5644787e+69
-7.4913109e+69
-7.5899184e+69
-7.975981e+69
-8.3069986e+69
-8.5484913e+69
-8.9925343e+69
-8.1793644e+69
-7.4392721e+69
-7.9304421e+69
-7.8456635e+69
-7.9459611e+69
-7.7228761e+69
-8.5249999e+69
-9.4644216e+69
-7.5116587e+69
-8.2218668e+69
-8.6099318e+69
-8.0937627e+69
-7.3178397e+69
-8.5335695e+69
-8.8215748e+69
-7.4712052e+69
-7.7142653e+69
-8.709908e+69
-7.788557e+69
-8.2402728e+69
-9.9156411e+69
-7.883156e+69
-5.6280711e+69
-4.8255899e+69
-7.5238474e+69
-7.5162836e+69
-7.7220568e+69
-8.0364407e+69
-8.0951943e+69
-8.0981126e+69
-8.3285638e+69
-8.1942239e+69
-8.2083457e+69
-8.3209283e+69
-8.7298161e+69
-8.4887578e+69
-8.8858327e+69
-8.3468372e+69
-8.5645599e+69
-7.6716101e+69
-7.6439243e+69
-7.9987628e+69
-8.298395e+69
-8.5499084e+69
-8.9869006e+69
-7.7746174e+69
-7.6903535e+69
-7.9443319e+69
-8.2697984e+69
-8.5251812e+69
-8.9906535e+69
-9.6128484e+69
-9.6968072e+69
-7.5167611e+69
-7.9204767e+69
-8.0089527e+69
-7.7441014e+69
-7.7237775e+69
-8.7270934e+69
-9.2428281e+69
-8.0011273e+69
-8.1397244e+69
-9.7169327e+69
-8.6359043e+69
-8.5902762e+69
-9.2871374e+69
-9.2973503e+69
-8.2949363e+69
-6.6962565e+69
-7.6194051e+69
-1.029986e+70
-8.8083602e+69
-7.8694639e+69
-8.081554e+69
-1.0821407e+70
-7.3073784e+69
-6.3920846e+69
-6.1297352e+69
-7.5003217e+69
-8.5739526e+69
-7.8285747e+69
-7.6696211e+69
-7.8329886e+69
-7.775716e+69
-8.0510861e+69
-8.365341e+69
-8.2580998e+69
-8.2349541e+69
-8.3164686e+69
-8.7503053e+69
-8.5361036e+69
-8.9321369e+69
-8.3698593e+69
-8.5541133e+69
-8.8212607e+69
-9.2083061e+69
-8.6695386e+69
-9.320428e+69
-8.5830922e+69
-8.9664794e+69
-7.9547031e+69
-7.8077383e+69
-7.9894566e+69
-8.2738219e+69
-8.5299041e+69
-8.9898619e+69
-9.5971011e+69
-7.9027164e+69
-7.9712842e+69
-7.886409e+69
-8.311933e+69
-8.5012823e+69
-8.989771e+69
-9.6013986e+69
-9.9348134e+69
-8.0458198e+69
-8.0740031e+69
-9.0359521e+69
-8.2666048e+69
-8.1301592e+69
-8.6074142e+69
-9.0615244e+69
-8.7517701e+69
-9.1883841e+69
-8.5345665e+69
-1.0780483e+70
-1.0553997e+70
-8.8603043e+69
-8.7583831e+69
-1.003985e+70
-9.2773004e+69
-8.4330686e+69
-8.9533447e+69
-8.894417e+69
-9.5698538e+69
-8.7346656e+69
-8.5211281e+69
-8.7249472e+69
-8.5132962e+69
-1.0417085e+70
-8.4767071e+69
-7.9811808e+69
-5.4125941e+69
-8.2896816e+69
-1.0488741e+70
-8.1312698e+69
-8.3870307e+69
-8.1273639e+69
-8.0024596e+69
-8.2255849e+69
-8.2736573e+69
-8.1025984e+69
-7.9903645e+69
-8.0772308e+69
-8.2978755e+69
-8.7855571e+69
-8.568582e+69
-9.0518195e+69
-8.4089769e+69
-8.5491824e+69
-8.8637701e+69
-9.2358543e+69
-8.7159419e+69
-9.2500705e+69
-8.6022822e+69
-8.980611e+69
-9.1730082e+69
-8.9450544e+69
-9.6069296e+69
-8.8285666e+69
-9.8456957e+69
-9.0085459e+69
-9.5446872e+69
-8.0637441e+69
-8.0963587e+69
-7.9403051e+69
-8.346265e+69
-8.5199463e+69
-9.0010972e+69
-9.5855799e+69
-9.9525884e+69
-8.1017368e+69
-8.0732362e+69
-8.5933237e+69
-8.218103e+69
-8.6809942e+69
-9.0380585e+69
-9.5745336e+69
-9.9450743e+69
-9.7955801e+69
-8.3421575e+69
-9.5180786e+69
-1.0104406e+70
-8.5144956e+69
-8.2404167e+69
-8.9882096e+69
-9.4320371e+69
-8.7790741e+69
-9.0363494e+69
-9.1352943e+69
-1.0053208e+70
-1.111554e+70
-9.2837349e+69
-1.1225338e+70
-8.8869905e+69
-1.0314377e+70
-9.9045373e+69
-8.9660855e+69
-8.0990658e+69
-9.3272517e+69
-1.1001663e+70
-1.3415312e+70
-1.0732726e+70
-7.7869931e+69
-6.2055592e+69
-7.0245937e+69
-9.3548802e+69
-9.32144e+69
-9.2669091e+69
-7.3402414e+69
-8.8631274e+69
-1.0759835e+70
-1.2546555e+70
-8.8200071e+69
-9.397083e+69
-8.3806712e+69
-8.3806042e+69
-8.5365339e+69
-8.1884746e+69
-8.2007235e+69
-8.2821261e+69
-8.438105e+69
-8.3604767e+69
-8.1668128e+69
-8.0380338e+69
-8.0341257e+69
-8.4192486e+69
-8.5548501e+69
-8.9041179e+69
-9.2695053e+69
-8.786366e+69
-9.3196443e+69
-8.6397648e+69
-9.0110228e+69
-9.2048634e+69
-8.9820579e+69
-9.6395702e+69
-8.8726538e+69
-9.4419042e+69
-9.0500732e+69
-9.5404114e+69
-9.2553238e+69
-9.4467594e+69
-9.0141253e+69
-1.0274779e+70
-9.2675725e+69
-9.6111281e+69
-9.4979632e+69
-1.00078e+70
-8.2209687e+69
-8.1487909e+69
-8.75387e+69
-8.2586605e+69
-8.7391162e+69
-9.0666427e+69
-9.5602969e+69
-9.9603984e+69
-9.8300565e+69
-8.4160638e+69
-8.8079829e+69
-8.3597878e+69
-9.2992161e+69
-8.648613e+69
-9.0929037e+69
-9.5944972e+69
-9.9597097e+69
-9.8246289e+69
-9.4521659e+69
-8.6691309e+69
-1.0559867e+70
-8.6283608e+69
-1.0121071e+70
-8.4169076e+69
-9.2140999e+69
-9.8567359e+69
-9.456472e+69
-8.5235286e+69
-9.0915885e+69
-1.0755216e+70
-1.6068864e+70
-1.042825e+70
-7.7785075e+69
-7.5544153e+69
-1.0443535e+70
-1.0574415e+70
-1.0400636e+70
-1.0386164e+70
-8.5634059e+69
-9.1263851e+69
-1.10844e+70
-1.3719221e+70
-1.2430649e+70
-1.0146335e+70
-7.1722591e+69
-8.2609443e+69
-1.0153181e+70
-8.2030297e+69
-1.0704072e+70
-9.363996e+69
-8.4646049e+69
-8.8134894e+69
-1.078149e+70
-1.3726163e+70
-9.8097451e+69
-9.1741782e+69
-9.4449739e+69
-9.0559628e+69
-9.754675e+69
-9.7941558e+69
-8.5579548e+69
-8.1770056e+69
-8.5562125e+69
-8.887074e+69
-8.0537812e+69
-8.2891984e+69
-8.0103018e+69
-8.5912982e+69
-8.7385231e+69
-8.043611e+69
-8.2897531e+69
-8.202491e+69
-8.9259255e+69
-8.2946815e+69
-8.8217939e+69
-9.1260227e+69
-9.2617829e+69
-9.0481245e+69
-9.7087831e+69
-8.9495295e+69
-9.6559873e+69
-9.1170037e+69
-9.526257e+69
-9.2916203e+69
-9.4573189e+69
-9.059082e+69
-1.0301929e+70
-9.3101702e+69
-9.5746124e+69
-9.5408122e+69
-9.9792589e+69
-9.5405038e+69
-9.2538105e+69
-9.8045337e+69
-9.3400415e+69
-1.0356535e+70
-9.9144754e+69
-1.0447743e+70
-9.8414999e+69
-9.9085041e+69
-8.4832318e+69
-8.8968623e+69
-8.4222273e+69
-9.5917228e+69
-8.6983237e+69
-9.1293992e+69
-9.6001926e+69
-9.9609421e+69
-9.8596931e+69
-9.4508891e+69
-8.8907529e+69
-8.6447032e+69
-9.5104809e+69
-8.7519893e+69
-9.7219105e+69
-9.0792383e+69
-9.6369284e+69
-9.9642325e+69
-9.8796901e+69
-9.4648843e+69
-9.166514e+69
-1.2712221e+70
-8.7434178e+69
-8.2752509e+69
-8.2398784e+69
-1.0564768e+70
-1.0157093e+70
-9.60962e+69
-1.0076891e+70
-9.150848e+69
-9.1143408e+69
-1.0392001e+70
-1.2047901e+70
-1.2363603e+70
-1.1714297e+70
-8.5649995e+69
-8.4617012e+69
-1.1260734e+70
-9.0579103e+69
-1.0546315e+70
-9.7714184e+69
-9.749998e+69
-9.6181186e+69
-1.0762494e+70
-1.3458122e+70
-1.2934515e+70
-1.0713805e+70
-1.0122546e+70
-8.9429059e+69
-9.8879322e+69
-9.3763766e+69
-1.0894002e+70
-1.0289854e+70
-9.9841217e+69
-9.8387326e+69
-9.6889915e+69
-9.9422743e+69
-1.069275e+70
-1.0762246e+70
-8.148349e+69
-9.2926616e+69
-9.2096302e+69
-9.2192112e+69
-9.5965429e+69
-9.9003626e+69
-8.8747639e+69
-1.0996859e+70
-9.491878e+69
-9.9318339e+69
-8.1396006e+69
-8.3766448e+69
-8.4614669e+69
-8.9601903e+69
-9.1628052e+69
-8.3963208e+69
-8.3950393e+69
-8.2881232e+69
-8.2587125e+69
-8.9549111e+69
-9.4017778e+69
-9.2205809e+69
-8.5591375e+69
-8.9903996e+69
-8.5309834e+69
-9.7074768e+69
-8.7644798e+69
-9.1957755e+69
-9.678335e+69
-9.3250468e+69
-9.498023e+69
-9.1394478e+69
-1.0524272e+70
-9.3960719e+69
-9.9040177e+69
-9.5729181e+69
-9.920325e+69
-9.5492675e+69
-9.2850704e+69
-9.8131676e+69
-9.3598537e+69
-1.0383775e+70
-9.9108691e+69
-1.0333909e+70
-9.7948027e+69
-9.9398462e+69
-9.4851247e+69
-9.8112576e+69
-9.5023017e+69
-9.8379051e+69
-9.7866539e+69
-1.0757263e+70
-1.0102116e+70
-9.4244368e+69
-8.9446308e+69
-8.6939377e+69
-9.5076931e+69
-8.8035771e+69
-9.9473019e+69
-9.0981839e+69
-9.64757e+69
-9.91e+69
-9.9235545e+69
-9.4663009e+69
-9.1580868e+69
-9.0016029e+69
-9.19874e+69
-8.8488424e+69
-9.4421429e+69
-9.1512482e+69
-9.7025291e+69
-1.0087709e+70
-1.0041242e+70
-9.4719905e+69
-9.1630815e+69
-9.0657497e+69
-1.1037406e+70
-1.1183289e+70
-8.8199981e+69
-8.8485646e+69
-1.0113484e+70
-9.4730098e+69
-9.4885525e+69
-9.6645698e+69
-9.4346172e+69
-9.3939814e+69
-9.7943481e+69
-1.1235451e+70
-1.3361555e+70
-1.1530695e+70
-1.1259089e+70
-9.9901101e+69
-1.0342344e+70
-1.0936597e+70
-1.124247e+70
-1.052233e+70
-1.0055376e+70
-1.0922736e+70
-1.132724e+70
-9.9631581e+69
-1.0370986e+70
-1.36925e+70
-1.0301503e+70
-1.1121735e+70
-1.2721406e+70
-1.3356213e+70
-1.0685224e+70
-8.7184643e+69
-1.1682406e+70
-1.0461587e+70
-9.3381439e+69
-9.8576648e+69
-1.2393343e+70
-1.0208243e+70
-1.0517144e+70
-1.0745256e+70
-9.2715434e+69
-8.3028562e+69
-9.500659e+69
-9.1553303e+69
-9.3671573e+69
-9.1132691e+69
-9.2376255e+69
-9.2222235e+69
-9.8930206e+69
-9.4505724e+69
-1.0560353e+70
-8.7502142e+69
-1.0253357e+70
-1.1572283e+70
-1.0293932e+70
-9.8123386e+69
-8.8962176e+69
-8.959878e+69
-8.5974953e+69
-9.0435623e+69
-9.1675343e+69
-9.5366562e+69
-8.1752041e+69
-8.7639953e+69
-8.7074777e+69
-8.7403702e+69
-8.9469234e+69
-9.3488892e+69
-9.9192213e+69
-9.9654083e+69
-8.987744e+69
-8.8072669e+69
-9.4467083e+69
-8.9164884e+69
-9.8993447e+69
-9.8267141e+69
-9.1604001e+69
-9.7017383e+69
-9.8456673e+69
-9.7891514e+69
-9.5439464e+69
-9.3288089e+69
-9.8990315e+69
-9.4001464e+69
-1.0320831e+70
-9.8937562e+69
-1.0563235e+70
-1.0598057e+70
-9.7676878e+69
-9.6939813e+69
-9.9965204e+69
-9.5021697e+69
-9.8059138e+69
-9.517179e+69
-9.8622537e+69
-9.7531765e+69
-1.0512754e+70
-1.0089297e+70
-9.4456892e+69
-9.696242e+69
-9.7001885e+69
-9.9875489e+69
-9.7233543e+69
-1.0174576e+70
-1.0125778e+70
-1.0947603e+70
-9.54216e+69
-9.1378453e+69
-9.0401849e+69
-9.2614894e+69
-8.8906217e+69
-9.5073166e+69
-9.1857902e+69
-9.6986651e+69
-1.0075787e+70
-1.0039629e+70
-9.4807919e+69
-9.1536652e+69
-9.061149e+69
-9.2375751e+69
-9.0159169e+69
-9.3161106e+69
-9.210559e+69
-8.7573376e+69
-9.6994787e+69
-1.0132209e+70
-9.6231151e+69
-9.1548802e+69
-9.0620065e+69
-8.9897385e+69
-1.1293718e+70
-1.0662241e+70
-1.0554953e+70
-9.9003341e+69
-1.1281741e+70
-9.8190944e+69
-9.3807774e+69
-1.0532913e+70
-9.4146378e+69
-9.6692961e+69
-9.8215659e+69
-9.6106076e+69
-9.3351765e+69
-9.8171779e+69
-1.3088785e+70
-1.0823492e+70
-1.1500925e+70
-1.2745064e+70
-1.5167066e+70
-1.1681867e+70
-9.4689756e+69
-1.3755844e+70
-1.1632526e+70
-9.7607982e+69
-1.0211384e+70
-1.2868601e+70
-1.0226417e+70
-1.100578e+70
-1.2740275e+70
-1.0377933e+70
-1.0556e+70
-9.0949257e+69
-1.2118577e+70
-1.8587281e+70
-1.1832811e+70
-1.4125717e+70
-1.2369018e+70
-1.4088423e+70
-1.1409022e+70
-9.0519517e+69
-1.0509483e+70
-1.7119716e+70
-8.103403e+69
-9.0283951e+69
-1.111588e+70
-9.4004601e+69
-9.9175201e+69
-9.5400537e+69
-9.4009318e+69
-9.4152846e+69
-9.2332832e+69
-9.5030123e+69
-9.3740364e+69
-9.2848162e+69
-9.389569e+69
-1.0107839e+70
-9.8715786e+69
-9.5710953e+69
-1.0143266e+70
-9.1306264e+69
-1.0612528e+70
-1.1294471e+70
-1.1981843e+70
-1.2335129e+70
-1.0309006e+70
-9.8593612e+69
-8.8391994e+69
-9.4123691e+69
-9.2055811e+69
-8.1353083e+69
-9.4107576e+69
-9.8196317e+69
-9.798221e+69
-8.7778955e+69
-9.1164007e+69
-8.690856e+69
-9.1145809e+69
-9.2407208e+69
-9.3887776e+69
-9.8378407e+69
-1.0046933e+70
-9.9689793e+69
-1.0292379e+70
-1.078524e+70
-9.0588482e+69
-9.2799011e+69
-8.9740386e+69
-9.5622153e+69
-9.2843289e+69
-1.0159324e+70
-9.7450116e+69
-1.0042137e+70
-9.969308e+69
-9.8768193e+69
-9.5225366e+69
-9.8125819e+69
-9.5678079e+69
-9.9158051e+69
-9.7382522e+69
-1.0136055e+70
-1.0010171e+70
-1.1143199e+70
-9.9248764e+69
-9.4964195e+69
-9.6971076e+69
-9.7171953e+69
-9.9912227e+69
-9.7142602e+69
-1.0080307e+70
-1.0117046e+70
-1.0885794e+70
-9.5747491e+69
-9.1296748e+69
-9.9233639e+69
-9.8779447e+69
-9.7226975e+69
-1.0177129e+70
-1.0055998e+70
-1.0336731e+70
-1.0384907e+70
-8.9937009e+69
-9.7494603e+69
-9.053022e+69
-9.2609379e+69
-9.0670853e+69
-9.3371338e+69
-9.2459372e+69
-8.7692447e+69
-9.7026941e+69
-1.0133992e+70
-9.6471814e+69
-9.1423086e+69
-9.0563782e+69
-8.98727e+69
-9.2734564e+69
-9.2993497e+69
-9.3529736e+69
-9.6437572e+69
-9.0792317e+69
-9.1733303e+69
-9.993163e+69
-9.6009744e+69
-9.0967481e+69
-9.0545274e+69
-8.9872443e+69
-8.979753e+69
-1.0959396e+70
-1.1124886e+70
-1.2838226e+70
-1.1312793e+70
-9.4364436e+69
-1.1726579e+70
-1.0323263e+70
-9.2934078e+69
-1.0011499e+70
-9.4439786e+69
-9.8075163e+69
-9.4289809e+69
-9.515785e+69
-9.6643339e+69
-1.2358844e+70
-1.0817485e+70
-1.0979499e+70
-1.1016289e+70
-1.4786236e+70
-1.7966461e+70
-1.3373567e+70
-1.7538945e+70
-1.3125079e+70
-1.6607748e+70
-1.2023019e+70
-1.076502e+70
-1.1273715e+70
-1.5406761e+70
-9.4903415e+69
-1.1475741e+70
-1.2487843e+70
-1.2708976e+70
-1.4063441e+70
-1.3571373e+70
-1.4806017e+70
-1.1404523e+70
-1.2857416e+70
-1.2088973e+70
-1.4077009e+70
-6.3182494e+69
-9.9816538e+69
-1.7589697e+70
-8.4392263e+69
-1.2073136e+70
-1.0354508e+70
-1.2554949e+70
-9.517698e+69
-9.8744947e+69
-9.6137913e+69
-9.933805e+69
-9.5437538e+69
-9.6795758e+69
-9.7017408e+69
-9.3751924e+69
-9.5365502e+69
-9.8531284e+69
-9.6270536e+69
-9.5878771e+69
-9.7796604e+69
-1.0267927e+70
-9.9133633e+69
-9.1265586e+69
-1.0903719e+70
-9.6773778e+69
-9.7130611e+69
-1.023073e+70
-1.1364103e+70
-1.0049538e+70
-1.0038238e+70
-8.8088919e+69
-9.3014651e+69
-9.5446015e+69
-9.2922681e+69
-9.7338669e+69
-8.8535811e+69
-9.040648e+69
-1.0087316e+70
-9.9712279e+69
-9.799088e+69
-9.9782237e+69
-8.9603201e+69
-9.2839773e+69
-9.5296547e+69
-9.8871979e+69
-1.1106456e+70
-9.2609303e+69
-9.1553283e+69
-9.3186978e+69
-9.349923e+69
-8.944987e+69
-9.7431545e+69
-1.0169773e+70
-9.6938875e+69
-9.7207415e+69
-9.7512141e+69
-1.0007403e+70
-9.7485982e+69
-1.0113901e+70
-1.0110231e+70
-1.0788726e+70
-9.670837e+69
-9.1008996e+69
-9.9347661e+69
-9.8749411e+69
-9.7089463e+69
-1.0139002e+70
-1.0055071e+70
-1.0322883e+70
-1.043869e+70
-8.9909836e+69
-9.7783586e+69
-9.0464986e+69
-1.0023941e+70
-9.7460706e+69
-9.9789963e+69
-9.9614726e+69
-1.0047039e+70
-1.0048694e+70
-1.0378398e+70
-9.0280491e+69
-9.0146172e+69
-9.7602043e+69
-8.9755177e+69
-9.3046807e+69
-9.2845458e+69
-9.4091018e+69
-9.6352712e+69
-9.101313e+69
-9.1947483e+69
-9.9822242e+69
-9.6185522e+69
-9.0891075e+69
-9.047376e+69
-8.9840519e+69
-8.9783671e+69
-9.3678404e+69
-9.5163128e+69
-9.5888463e+69
-9.8700008e+69
-9.0230712e+69
-9.144301e+69
-9.3033948e+69
-9.5584895e+69
-9.1164195e+69
-9.0363042e+69
-8.9794353e+69
-8.9787479e+69
-8.9374634e+69
-1.026424e+70
-1.2891844e+70
-1.2373733e+70
-1.2562116e+70
-1.295574e+70
-9.279089e+69
-1.3427131e+70
-1.0198848e+70
-9.672172e+69
-9.5170455e+69
-1.1285079e+70
-1.0945071e+70
-1.1168331e+70
-1.1872491e+70
-1.3696408e+70
-1.4168638e+70
-1.3548884e+70
-1.6004236e+70
-1.2145233e+70
-1.332104e+70
-1.2188589e+70
-1.3733852e+70
-1.1807754e+70
-1.0628498e+70
-1.597175e+70
-1.0272936e+70
-1.3009347e+70
-1.2008341e+70
-1.359781e+70
-1.2841786e+70
-1.7101177e+70
-1.559838e+70
-1.4077542e+70
-8.2183838e+69
-1.1111571e+70
-9.1930033e+69
-8.9536266e+69
-8.5271649e+69
-9.8592333e+69
-1.4693527e+70
-9.8392453e+69
-8.8293533e+69
-1.1817714e+70
-1.210529e+70
-2.0302221e+70
-9.8162149e+69
-9.8328348e+69
-9.6952289e+69
-1.0100317e+70
-9.7149796e+69
-9.4161389e+69
-9.8952732e+69
-9.8285521e+69
-9.8572175e+69
-9.7515399e+69
-9.6422151e+69
-9.7293456e+69
-9.8965431e+69
-9.7319268e+69
-9.172719e+69
-9.7602479e+69
-1.0057776e+70
-9.3353357e+69
-9.8454831e+69
-9.689033e+69
-9.8804691e+69
-1.1016194e+70
-9.9971851e+69
-9.3245176e+69
-9.5012883e+69
-1.0668755e+70
-1.0266076e+70
-9.3191867e+69
-9.2402211e+69
-9.8674195e+69
-9.5266638e+69
-9.4267245e+69
-9.0699918e+69
-9.352122e+69
-9.2884754e+69
-8.6089955e+69
-1.091861e+70
-9.6881315e+69
-9.855856e+69
-9.7341856e+69
-9.7211694e+69
-9.6763446e+69
-9.1376589e+69
-9.5396777e+69
-9.6886292e+69
-9.8590451e+69
-9.3466882e+69
-9.2287899e+69
-9.5056213e+69
-9.6583905e+69
-9.2836495e+69
-9.2599622e+69
-1.0000834e+70
-9.6391179e+69
-9.0725235e+69
-9.953146e+69
-9.895474e+69
-9.7262641e+69
-1.0119492e+70
-1.0097437e+70
-1.0321429e+70
-1.0719469e+70
-9.0028033e+69
-9.8215027e+69
-9.031935e+69
-1.0033974e+70
-9.7382186e+69
-9.9803485e+69
-9.960591e+69
-1.003768e+70
-1.0044933e+70
-1.036292e+70
-9.0239619e+69
-9.0067793e+69
-9.7771312e+69
-8.9716994e+69
-9.7097705e+69
-1.0109271e+70
-9.9796686e+69
-9.7643443e+69
-9.8000564e+69
-9.8405982e+69
-9.7807814e+69
-1.1588477e+70
-8.9669817e+69
-8.9916578e+69
-9.0052535e+69
-9.9285034e+69
-8.9617855e+69
-9.3881151e+69
-9.5562565e+69
-9.5985193e+69
-9.8600652e+69
-8.9530859e+69
-9.1404162e+69
-9.3027691e+69
-9.5540816e+69
-9.1080857e+69
-9.0299179e+69
-8.975217e+69
-8.9774252e+69
-8.9382272e+69
-9.5847557e+69
-9.6476031e+69
-9.7952529e+69
-1.0780574e+70
-9.1758246e+69
-9.0511664e+69
-9.6378026e+69
-9.0473411e+69
-9.7232366e+69
-9.0634389e+69
-9.0062774e+69
-8.9645164e+69
-8.9712372e+69
-8.9375656e+69
-8.9412503e+69
-1.2538031e+70
-1.2718102e+70
-1.2071493e+70
-1.0825105e+70
-9.7938722e+69
-1.1724385e+70
-1.0319852e+70
-8.920385e+69
-1.1078081e+70
-8.9568633e+69
-1.1234513e+70
-1.0661276e+70
-1.0988873e+70
-1.1883972e+70
-1.1333935e+70
-1.3303437e+70
-1.6280512e+70
-1.5218932e+70
-1.4543708e+70
-9.9659006e+69
-1.1787795e+70
-1.1453843e+70
-1.0762802e+70
-9.6115969e+69
-9.3898243e+69
-1.3830643e+70
-1.170472e+70
-1.0518012e+70
-1.2317222e+70
-1.3001191e+70
-2.0202627e+70
-1.5277222e+70
-1.6306899e+70
-1.5113618e+70
-2.0770759e+70
-1.1729476e+70
-1.0396106e+70
-1.7873051e+70
-1.0355822e+70
-1.4827117e+70
-1.1106027e+70
-9.062e+69
-9.5278754e+69
-1.3073056e+70
-9.5760475e+69
-1.0170976e+70
-1.1240214e+70
-2.2869274e+70
-1.3568149e+70
-9.982904e+69
-9.565928e+69
-8.9380282e+69
-1.0140092e+70
-9.6153151e+69
-9.2863263e+69
-9.9208076e+69
-9.6873849e+69
-1.0039762e+70
-9.7832842e+69
-9.4836624e+69
-9.4008094e+69
-1.0087064e+70
-9.2612183e+69
-9.7433935e+69
-1.1142973e+70
-1.3595333e+70
-1.1807731e+70
-1.082603e+70
-1.1255886e+70
-9.0816069e+69
-9.3779735e+69
-9.198561e+69
-9.2119903e+69
-9.6128676e+69
-9.5566992e+69
-9.8395031e+69
-9.5935405e+69
-9.6024034e+69
-9.4244561e+69
-9.1177888e+69
-1.0846966e+70
-8.9676871e+69
-1.0003589e+70
-9.2135572e+69
-9.0024729e+69
-9.1333129e+69
-9.0267939e+69
-9.8635925e+69
-9.5911758e+69
-9.6110163e+69
-8.7329246e+69
-9.2004176e+69
-9.2473444e+69
-9.4950107e+69
-9.0732033e+69
-9.0197108e+69
-1.0043543e+70
-9.7479899e+69
-9.9935123e+69
-1.0066326e+70
-1.0166871e+70
-9.025968e+69
-8.9859869e+69
-9.7658538e+69
-8.96421e+69
-9.6818766e+69
-1.0108948e+70
-9.9714774e+69
-9.7521262e+69
-9.7732993e+69
-9.8058513e+69
-9.8026338e+69
-1.164372e+70
-8.9649579e+69
-8.9843648e+69
-8.9974794e+69
-9.9148755e+69
-8.9610935e+69
-9.1622551e+69
-9.6723631e+69
-9.6062104e+69
-1.112819e+70
-1.2627437e+70
-8.9373017e+69
-8.9191327e+69
-8.94663e+69
-8.9412204e+69
-9.5985265e+69
-9.6644209e+69
-9.7803921e+69
-1.0818542e+70
-9.1772991e+69
-9.0519837e+69
-9.6665166e+69
-9.0466344e+69
-9.7280834e+69
-9.0512497e+69
-8.998663e+69
-8.9616679e+69
-8.96975e+69
-8.938519e+69
-8.9421581e+69
-1.138972e+70
-1.0469501e+70
-9.2187616e+69
-9.015973e+69
-8.8574687e+69
-8.9848185e+69
-8.9108377e+69
-8.9636424e+69
-8.9324749e+69
-8.9404005e+69
-8.9544653e+69
-1.2889357e+70
-1.3280234e+70
-1.0835633e+70
-1.1203686e+70
-1.1172947e+70
-1.0858734e+70
-9.032474e+69
-8.1019087e+69
-1.0374427e+70
-1.0454309e+70
-1.2479452e+70
-1.1829157e+70
-1.102655e+70
-1.1746592e+70
-1.5080837e+70
-1.7413446e+70
-1.5285277e+70
-2.0243491e+70
-1.3713771e+70
-1.2913546e+70
-2.205404e+70
-1.0906407e+70
-1.631785e+70
-1.6759825e+70
-1.2729741e+70
-1.1326391e+70
-1.2826013e+70
-1.0573908e+70
-1.245785e+70
-1.1306237e+70
-2.1369316e+70
-1.6420334e+70
-9.8149583e+69
-1.2148098e+70
-1.0014155e+70
-8.2900378e+69
-7.6535801e+69
-6.5482022e+69
-1.1920322e+70
-1.0607641e+70
-9.7336581e+69
-1.1315858e+70
-9.5196633e+69
-2.9726105e+70
-1.5715239e+70
-1.1734649e+70
-9.0219677e+69
-9.5317082e+69
-9.6474328e+69
-8.1658852e+69
-9.1446076e+69
-1.2516475e+70
-9.4522891e+69
-9.4978077e+69
-9.3529245e+69
-9.4061468e+69
-9.6500199e+69
-9.7647783e+69
-9.8898134e+69
-1.0115911e+70
-9.949853e+69
-9.2509955e+69
-8.9735118e+69
-9.0737869e+69
-9.252082e+69
-1.1095717e+70
-1.1892126e+70
-1.3934203e+70
-1.5522175e+70
-1.4174634e+70
-1.2737587e+70
-9.4889586e+69
-9.0912445e+69
-9.5402688e+69
-9.1878402e+69
-9.1081711e+69
-9.1562012e+69
-9.1012068e+69
-9.6284637e+69
-9.7070484e+69
-9.7691767e+69
-9.8020619e+69
-9.727327e+69
-1.0193911e+70
-1.0136631e+70
-8.9532455e+69
-8.927978e+69
-8.9941926e+69
-8.9894321e+69
-1.029289e+70
-9.1908561e+69
-9.0584849e+69
-9.0310349e+69
-9.0184174e+69
-8.9858461e+69
-8.9619027e+69
-9.6304521e+69
-9.6844182e+69
-9.8850252e+69
-1.1330256e+70
-8.96838e+69
-8.9645968e+69
-8.9791577e+69
-8.9564368e+69
-9.1497016e+69
-9.6494917e+69
-9.5941596e+69
-1.1126857e+70
-1.2500384e+70
-8.9354744e+69
-8.9163546e+69
-8.9394195e+69
-8.9409924e+69
-8.9841084e+69
-9.2060395e+69
-9.5445375e+69
-9.5117184e+69
-1.1731757e+70
-8.9071058e+69
-8.9265708e+69
-8.9439948e+69
-1.1413553e+70
-1.0430959e+70
-9.2348788e+69
-9.024836e+69
-8.8565633e+69
-8.9761681e+69
-8.9090224e+69
-8.959869e+69
-8.9336171e+69
-8.9412601e+69
-8.9557606e+69
-1.1016192e+70
-9.3753743e+69
-9.4316568e+69
-8.9193752e+69
-8.9326562e+69
-8.9209629e+69
-8.9561164e+69
-8.95627e+69
-8.9286693e+69
-8.953883e+69
-8.936692e+69
-1.0291893e+70
-1.1475851e+70
-1.2807761e+70
-9.8342953e+69
-1.4559178e+70
-1.0581218e+70
-1.0200967e+70
-9.8146428e+69
-1.2237882e+70
-1.395479e+70
-1.0171731e+70
-1.1426302e+70
-1.3789747e+70
-1.1099941e+70
-1.4517226e+70
-1.1838184e+70
-9.9413044e+69
-9.1076839e+69
-1.1116879e+70
-1.1921069e+70
-1.0441013e+70
-1.1555179e+70
-1.3397349e+70
-1.1711604e+70
-2.9325405e+70
-1.7287694e+70
-1.3539582e+70
-1.7668063e+70
-2.4903579e+69
-8.0816466e+69
-9.4809173e+69
-8.3429145e+69
-4.9016703e+69
-1.0219436e+70
-1.4364488e+70
-7.1777943e+69
-1.5012311e+70
-1.0117985e+70
-5.6709321e+69
-1.6886603e+70
-1.334114e+70
-1.1804957e+70
-9.3650437e+69
-9.2497165e+69
-9.5256197e+69
-9.5041865e+69
-9.4847547e+69
-1.0267421e+70
-1.1592386e+70
-8.1024173e+69
-9.4390909e+69
-1.2906393e+70
-1.3626682e+70
-1.391035e+70
-1.2473963e+70
-9.3922456e+69
-9.0582291e+69
-9.2809744e+69
-9.2129335e+69
-9.2858336e+69
-8.9916536e+69
-8.9063469e+69
-8.8975297e+69
-8.9558318e+69
-9.7523574e+69
-1.1119953e+70
-9.9844902e+69
-9.3638478e+69
-9.010345e+69
-1.0072194e+70
-9.6391874e+69
-9.30496e+69
-8.9720962e+69
-8.8850059e+69
-8.9851366e+69
-1.0734183e+70
-1.0807674e+70
-1.0916695e+70
-1.1721451e+70
-1.2120524e+70
-8.7559181e+69
-8.8555008e+69
-8.8887142e+69
-8.9643547e+69
-8.9534534e+69
-8.9378985e+69
-8.9327415e+69
-1.1308765e+70
-1.0139441e+70
-9.3829e+69
-9.1038468e+69
-8.887751e+69
-8.9637471e+69
-8.9168189e+69
-8.9492179e+69
-9.1096753e+69
-9.5846221e+69
-9.5897545e+69
-1.1054546e+70
-1.1833848e+70
-8.9305507e+69
-8.9095501e+69
-8.9187672e+69
-8.9376948e+69
-8.9795463e+69
-9.2023489e+69
-9.5331287e+69
-9.5149321e+69
-1.1560595e+70
-8.9042163e+69
-8.9248878e+69
-8.9427017e+69
-8.9849377e+69
-9.0891731e+69
-9.2314636e+69
-9.4919293e+69
-9.5267037e+69
-1.1106912e+70
-8.9117698e+69
-8.9041984e+69
-8.9650357e+69
-1.1050257e+70
-9.3831773e+69
-9.438006e+69
-8.9255527e+69
-8.9328375e+69
-8.9194497e+69
-8.9524619e+69
-8.9553908e+69
-8.9285101e+69
-8.9553e+69
-8.9369819e+69
-1.0877337e+70
-9.9688216e+69
-9.5205895e+69
-9.0981697e+69
-9.013856e+69
-8.9724278e+69
-8.969287e+69
-8.9442489e+69
-8.9458953e+69
-8.937111e+69
-8.8896345e+69
-9.2755854e+69
-1.3186439e+70
-1.1391174e+70
-9.844383e+69
-9.5777102e+69
-1.1963881e+70
-1.0062306e+70
-9.2616566e+69
-1.1394965e+70
-1.3836925e+70
-1.2312152e+70
-1.0487045e+70
-1.3375715e+70
-1.0195647e+70
-2.0147583e+70
-5.873077e+69
-1.097212e+70
-1.2908593e+70
-8.9276854e+69
-7.0845561e+69
-1.1334026e+70
-1.9658149e+70
-9.7870273e+69
-1.719427e+70
-1.1833436e+70
-8.1421211e+69
-1.8292771e+70
-1.3961186e+70
-1.3703607e+70
-1.1593188e+70
-6.630055e+69
-9.8441175e+69
-1.9536716e+70
-7.4481194e+69
-1.9752564e+70
-9.9711249e+69
-1.9528893e+70
-1.2847625e+70
-8.0857614e+69
-9.796922e+69
-1.4029573e+70
-1.2873847e+70
-1.467648e+70
-1.0699929e+70
-9.6242343e+69
-9.5141081e+69
-9.8929094e+69
-9.5280901e+69
-9.6407783e+69
-9.4010395e+69
-9.6175826e+69
-9.1913247e+69
-9.4821479e+69
-1.0230326e+70
-1.2627389e+70
-9.3978e+69
-9.5705037e+69
-1.1338832e+70
-1.3335478e+70
-1.3004624e+70
-9.0271912e+69
-9.1883697e+69
-8.9303613e+69
-9.0280103e+69
-9.3331482e+69
-1.0139739e+70
-8.8053342e+69
-8.8259163e+69
-8.895518e+69
-9.3253144e+69
-9.7755319e+69
-9.7373941e+69
-1.0144631e+70
-9.2323877e+69
-9.8521965e+69
-9.2534864e+69
-8.8124068e+69
-1.1408541e+70
-9.6067546e+69
-9.0655565e+69
-9.0207202e+69
-8.9259609e+69
-1.5262392e+70
-1.166639e+70
-1.0888489e+70
-1.2792585e+70
-8.9119676e+69
-8.8751452e+69
-8.951905e+69
-8.8805295e+69
-8.9309609e+69
-8.9428553e+69
-8.914835e+69
-8.9010233e+69
-9.4676558e+69
-9.4968672e+69
-8.9868207e+69
-8.9611695e+69
-8.9271898e+69
-8.9456518e+69
-8.970106e+69
-9.2204073e+69
-9.5289397e+69
-9.5666887e+69
-8.9241416e+69
-8.9312664e+69
-8.9847819e+69
-9.0873093e+69
-9.2313996e+69
-9.4852776e+69
-9.5130408e+69
-1.1027268e+70
-8.9109459e+69
-8.9029143e+69
-8.9643528e+69
-8.9606649e+69
-9.0505264e+69
-9.1693033e+69
-9.276909e+69
-9.5291839e+69
-1.0817701e+70
-9.6654162e+69
-8.9543093e+69
-8.9581684e+69
-8.9391358e+69
-1.0839126e+70
-9.9761113e+69
-9.5155961e+69
-9.0959804e+69
-9.0195455e+69
-8.9725174e+69
-8.9677159e+69
-8.9444517e+69
-8.9464231e+69
-8.9374738e+69
-8.8889591e+69
-1.0941299e+70
-9.9160726e+69
-9.9171171e+69
-9.2045107e+69
-9.0941332e+69
-9.0450642e+69
-9.0339527e+69
-8.9588627e+69
-9.059505e+69
-8.9372421e+69
-8.8908699e+69
-8.8474022e+69
-1.3144677e+70
-9.2614931e+69
-1.2174864e+70
-9.8723586e+69
-8.7767963e+69
-8.9462606e+69
-1.2001189e+70
-1.3410543e+70
-1.2146512e+70
-1.1735504e+70
-1.095352e+70
-1.0087522e+70
-1.2373099e+70
-1.3635342e+70
-8.1612449e+69
-1.1240525e+70
-2.0994057e+70
-1.1125552e+70
-3.2088278e+70
-1.0537801e+70
-2.0471708e+70
-1.3478627e+70
-1.0193162e+70
-1.2419193e+70
-1.5313613e+70
-1.4424716e+70
-1.5530691e+70
-1.0400199e+70
-3.8571805e+69
-1.2618895e+70
-1.2355349e+70
-1.7931563e+70
-1.4270852e+70
-9.7822101e+69
-2.1655008e+70
-1.5121485e+70
-1.9004231e+70
-1.0208056e+70
1.4451396e+70
-2.1697763e+70
-1.5213771e+70
-7.7938751e+69
-1.0949218e+70
-1.0251291e+70
-9.9955147e+69
-1.0308724e+70
-1.0655518e+70
-9.6968762e+69
-9.4992879e+69
-9.1356603e+69
-9.2545205e+69
-9.569321e+69
-9.1562923e+69
-9.5092337e+69
-9.2583338e+69
-9.2104263e+69
-9.8390535e+69
-9.3520483e+69
-9.5105784e+69
-9.528407e+69
-1.0937953e+70
-9.5126914e+69
-9.3543799e+69
-1.0355017e+70
-9.0735137e+69
-9.5889128e+69
-8.9311524e+69
-9.0640984e+69
-8.9611599e+69
-9.1893307e+69
-1.2910809e+70
-9.2264522e+69
-8.7586974e+69
-8.8880327e+69
-9.5510197e+69
-9.5430318e+69
-1.018662e+70
-9.1907409e+69
-1.0614692e+70
-1.1794133e+70
-1.0487536e+70
-9.9755173e+69
-9.0046807e+69
-8.9978652e+69
-8.9839869e+69
-9.7166836e+69
-9.1504998e+69
-9.0589224e+69
-1.0250211e+70
-9.0966828e+69
-9.006438e+69
-8.9570225e+69
-9.0188903e+69
-8.9819329e+69
-9.00737e+69
-8.9047429e+69
-8.9435123e+69
-9.0233235e+69
-8.9710869e+69
-9.069741e+69
-9.5493804e+69
-9.1111835e+69
-9.0542676e+69
-8.9806862e+69
-8.9843339e+69
-9.0942301e+69
-9.2595768e+69
-9.4941967e+69
-8.9533407e+69
-8.9598534e+69
-9.0481789e+69
-9.1690899e+69
-9.2767747e+69
-9.5183357e+69
-1.079385e+70
-9.6545092e+69
-8.9541572e+69
-8.9589715e+69
-8.9400113e+69
-9.0248372e+69
-9.129913e+69
-9.2154123e+69
-9.2514674e+69
-1.1522361e+70
-9.6602806e+69
-9.2218216e+69
-8.9806781e+69
-8.9557677e+69
-9.0896441e+69
-8.8839052e+69
-1.0935118e+70
-9.9042811e+69
-9.9054104e+69
-9.1947438e+69
-9.0951037e+69
-9.0451248e+69
-9.0331757e+69
-8.9595454e+69
-9.0599227e+69
-8.9380304e+69
-8.890307e+69
-8.8473636e+69
-1.0728302e+70
-1.0260907e+70
-9.450864e+69
-9.4570114e+69
-9.1812767e+69
-9.0788727e+69
-9.1002573e+69
-9.044346e+69
-8.948486e+69
-9.1637211e+69
-8.8989865e+69
-8.8483505e+69
-8.8024902e+69
-1.2646379e+70
-1.1355352e+70
-1.1973069e+70
-2.1067058e+70
-1.0612137e+70
-1.1544356e+70