/*--------------------------------*- C++ -*----------------------------------*\
  =========                 |
  \\      /  F ield         | OpenFOAM: The Open Source CFD Toolbox
   \\    /   O peration     | Website:  https://openfoam.org
    \\  /    A nd           | Version:  7
     \\/     M anipulation  |
\*---------------------------------------------------------------------------*/
FoamFile
{
    version     2.0;
    format      ascii;
    class       volScalarField;
    location    "8000";
    object      k;
}
// * * * * * * * * * * * * * * * * * * * * * * * * * * * * * * * * * * * * * //

dimensions      [0 2 -2 0 0 0 0];

internalField   nonuniform List<scalar> 
34377
(
1.5238085
1.5198756
1.523565
1.5235113
1.5245752
1.5219001
1.5244093
1.5253249
1.5242495
1.5244372
1.5193567
1.5199979
1.5196629
1.5195083
1.5203105
1.5212181
1.5238181
1.522829
1.5232634
1.5240841
1.5232855
1.5229319
1.5237082
1.5240504
1.5228566
1.5204619
1.5223341
1.5247731
1.5245282
1.5243991
1.5242058
1.5254562
1.5255549
1.5259402
1.5257956
1.5254516
1.5243455
1.5236001
1.5239944
1.5216736
1.5222987
1.5237153
1.5240146
1.5196639
1.5194718
1.5192711
1.5192479
1.5192961
1.5204357
1.5197329
1.5199963
1.5197843
1.5197307
1.5196319
1.5196165
1.5197675
1.519342
1.5190015
1.5196145
1.5197488
1.5203052
1.5198175
1.5204868
1.5207213
1.520289
1.5211785
1.5215448
1.5220958
1.5225238
1.5230412
1.5232982
1.5235781
1.522752
1.5227932
1.5235955
1.5228275
1.523618
1.522765
1.5235855
1.5226762
1.5233854
1.5223931
1.5231246
1.5205453
1.5196116
1.5200457
1.520788
1.5217634
1.5211683
1.5218209
1.5223402
1.5250809
1.5259091
1.5260998
1.5257906
1.5255841
1.5238075
1.5240544
1.5239736
1.5237004
1.5238023
1.5237724
1.5240105
1.5240276
1.5244892
1.5239887
1.523979
1.5235769
1.5236178
1.5243022
1.5243386
1.524157
1.5260742
1.5255877
1.5259288
1.5256826
1.524018
1.5239472
1.5235473
1.5236617
1.5230095
1.5233191
1.5235171
1.5234812
1.5205212
1.5202471
1.5208403
1.5212865
1.523222
1.522921
1.5234988
1.5234789
1.5195653
1.5193504
1.5197019
1.5195162
1.519258
1.5192776
1.5194424
1.5195652
1.5192405
1.5192145
1.519808
1.5197706
1.5206461
1.5205766
1.5197294
1.5197548
1.5197642
1.5197965
1.5196077
1.5200968
1.5204614
1.5194419
1.5199753
1.519967
1.5195257
1.5197545
1.5196502
1.5196399
1.5197973
1.5197311
1.5194636
1.5188704
1.5192767
1.5186416
1.5191142
1.5186211
1.5191849
1.5192626
1.5193774
1.5193541
1.5195654
1.5197764
1.5197396
1.5197266
1.5198038
1.5197059
1.5198123
1.5203066
1.5205567
1.5198196
1.5198226
1.5198461
1.5198484
1.5198542
1.5198531
1.5206437
1.5206512
1.5201511
1.5204508
1.5209683
1.5207124
1.5199092
1.5199637
1.5203765
1.5204153
1.5214075
1.5217606
1.5225161
1.5223128
1.5220115
1.5220749
1.5228515
1.522816
1.5222178
1.5222314
1.5230839
1.5230652
1.5222605
1.5222827
1.5231147
1.5231154
1.5231433
1.522321
1.5222845
1.5231376
1.5222306
1.5222065
1.5230802
1.5231025
1.5222041
1.522157
1.5230077
1.522987
1.5227954
1.5220393
1.521838
1.5226236
1.5195034
1.5198921
1.5196535
1.5190276
1.5197231
1.5197767
1.5201687
1.520139
1.5209709
1.5208109
1.5203317
1.5205459
1.5218552
1.5200377
1.5198592
1.5200776
1.5213653
1.5202421
1.5203287
1.5205506
1.5202081
1.5199621
1.5204932
1.5208844
1.5209598
1.5212785
1.5211846
1.5263376
1.5259652
1.5261192
1.5264666
1.5231653
1.5228584
1.5230152
1.523274
1.5234182
1.523403
1.5235247
1.5235366
1.5234671
1.5234184
1.5234273
1.5234753
1.5229704
1.5232053
1.5229177
1.5232342
1.5230457
1.5232761
1.5230197
1.5232889
1.523361
1.5231443
1.5231466
1.5233715
1.5238537
1.5235487
1.5235451
1.5235532
1.5240563
1.5235551
1.5234776
1.5234719
1.5234979
1.5235012
1.5240243
1.5238008
1.5235054
1.5234461
1.5234817
1.5234684
1.5235218
1.5235516
1.5235246
1.5235576
1.5240112
1.5233865
1.5233692
1.523315
1.5233096
1.5229956
1.5239789
1.5244265
1.5238459
1.5238659
1.5240682
1.5240626
1.5240078
1.5240085
1.523549
1.5235137
1.5234329
1.5233935
1.5234856
1.5234475
1.5234343
1.5233955
1.5229165
1.52326
1.5232808
1.5229753
1.522914
1.523244
1.5233355
1.5230523
1.5225109
1.522718
1.5229139
1.5228909
1.5230388
1.5230304
1.5229949
1.5229714
1.5200259
1.5200606
1.5195134
1.5198013
1.5202446
1.5202876
1.5208573
1.5205474
1.5227212
1.5227651
1.522188
1.5224327
1.5230157
1.5230115
1.5229614
1.5229839
1.5201982
1.5198896
1.5195571
1.5197331
1.5197485
1.5197751
1.5192237
1.519494
1.5195925
1.5198158
1.5198071
1.5198132
1.5197977
1.519786
1.5197744
1.51978
1.5197626
1.5198951
1.519875
1.5207108
1.520753
1.5206643
1.5206276
1.5198577
1.519829
1.5197758
1.5198046
1.519642
1.5196114
1.5196604
1.519611
1.5195311
1.5204489
1.5197495
1.5206194
1.5196901
1.520555
1.5193658
1.5198932
1.5198947
1.5194576
1.5197778
1.5197472
1.5197925
1.5196477
1.5196448
1.519824
1.5198376
1.519834
1.5196928
1.5193847
1.518838
1.5192195
1.5184119
1.5186062
1.5187924
1.5187674
1.5190297
1.5191177
1.5191433
1.5190721
1.5182702
1.5187581
1.5182923
1.5189511
1.5189808
1.5190342
1.5191665
1.5192306
1.5191737
1.5192629
1.5192756
1.5191965
1.519253
1.5193477
1.5194023
1.5193451
1.5191267
1.5191585
1.51932
1.5193704
1.5193187
1.5194584
1.5192095
1.5196288
1.5197328
1.5198126
1.5196888
1.5197416
1.5196498
1.5197398
1.519812
1.5198214
1.5198032
1.5198188
1.5201935
1.5204675
1.51968
1.5198088
1.5206165
1.5206472
1.5198806
1.5198943
1.5198537
1.5198557
1.5198567
1.5198593
1.5198481
1.5198525
1.5198593
1.5198557
1.5198535
1.5198481
1.5199202
1.520709
1.5199241
1.5207077
1.5199283
1.5199167
1.520726
1.5207259
1.5198628
1.5198976
1.5202732
1.5202461
1.5200394
1.5204914
1.5202294
1.5206525
1.5196655
1.5196999
1.5200003
1.5200185
1.520054
1.5197278
1.5197478
1.5200663
1.5207334
1.5205298
1.5217934
1.5218998
1.5210601
1.5209488
1.5221718
1.5222108
1.5211813
1.5211684
1.5224649
1.5224833
1.5212673
1.5212251
1.5225349
1.5225495
1.5213217
1.5213358
1.5227069
1.5227147
1.5213206
1.5213092
1.5227383
1.5227416
1.5227681
1.5213512
1.5213281
1.5227685
1.5214088
1.5213608
1.5227852
1.5227923
1.5214025
1.5214524
1.5228125
1.5228097
1.5213467
1.5213457
1.5227974
1.5227955
1.5213021
1.5227553
1.5212638
1.5227482
1.5227335
1.5212545
1.5212746
1.5227314
1.5212778
1.5213232
1.5227058
1.5227005
1.5226818
1.5212306
1.5212212
1.5226703
1.5211178
1.5211983
1.5225474
1.5225264
1.520897
1.5210198
1.5223863
1.5222967
1.5192732
1.5193643
1.5195807
1.5196219
1.5185058
1.5189543
1.5190867
1.5192836
1.5198082
1.519497
1.519533
1.5198272
1.5195633
1.5195807
1.5198617
1.5198704
1.5205931
1.5202374
1.5206578
1.5203452
1.5206024
1.5202686
1.5201827
1.5205623
1.5208361
1.5199925
1.5199677
1.519936
1.5200215
1.5203992
1.5200101
1.519976
1.5200605
1.5200919
1.5201787
1.5206541
1.5196361
1.519692
1.5196491
1.5196156
1.5197604
1.5198105
1.5201234
1.5197809
1.5198289
1.5199297
1.5198226
1.5198894
1.5197998
1.5198691
1.5195717
1.5196854
1.5198249
1.5199226
1.5198914
1.52007
1.5200439
1.519909
1.5198505
1.5199334
1.5198767
1.5196696
1.5197078
1.5200362
1.5200735
1.5201429
1.5201087
1.5201272
1.5200865
1.5202669
1.5203016
1.5204127
1.5203081
1.5206478
1.5207082
1.5207043
1.5203783
1.5205798
1.5208527
1.5202125
1.5202707
1.5206874
1.5206184
1.5225741
1.5226093
1.5226741
1.5227045
1.5220397
1.522164
1.5223105
1.5223941
1.5220902
1.5222709
1.5223503
1.5224835
1.5226329
1.5227675
1.5226723
1.5228007
1.5228246
1.522824
1.5229343
1.522932
1.5227813
1.5228916
1.5228002
1.5229076
1.5228547
1.5230011
1.5228759
1.5230186
1.522902
1.5229035
1.523046
1.5230457
1.5227158
1.52283
1.522731
1.5228429
1.5226929
1.5227039
1.5227764
1.5227856
1.5227248
1.5227207
1.5228097
1.5228026
1.5227546
1.5227522
1.5228688
1.5228636
1.5219984
1.5221285
1.5222684
1.5223647
1.5225069
1.5225346
1.5225842
1.5226072
1.5220102
1.5220976
1.5222713
1.5223324
1.5225228
1.522554
1.5226267
1.5226528
1.5220227
1.5221191
1.5222744
1.5223455
1.5225371
1.522562
1.5225826
1.5226011
1.5220899
1.522142
1.5223318
1.5223616
1.522499
1.5225242
1.5225803
1.5225997
1.522629
1.5226444
1.5226557
1.5226633
1.5222029
1.5222299
1.5224344
1.5224406
1.5223783
1.5225778
1.5224848
1.5232385
1.5226884
1.5227728
1.5227945
1.5234265
1.522904
1.5228777
1.5231978
1.5233937
1.5229504
1.5229496
1.5235957
1.5230619
1.5230568
1.5229365
1.522935
1.5235964
1.5230433
1.5230448
1.5227918
1.5228113
1.5227939
1.5228113
1.5235463
1.5235473
1.5228084
1.5228297
1.5228086
1.522823
1.5227279
1.522781
1.5227238
1.5227723
1.5227068
1.5227578
1.5227107
1.5227598
1.5226759
1.5227636
1.5226826
1.5227686
1.5227021
1.5227915
1.5226972
1.5227825
1.5235576
1.5235559
1.523586
1.5235841
1.5232694
1.5232505
1.5234288
1.5234364
1.5227104
1.5228013
1.5226769
1.5227705
1.5226713
1.5226366
1.5227271
1.5226895
1.5227344
1.5227879
1.5226959
1.5227519
1.5226489
1.5226129
1.522743
1.5227051
1.5228981
1.522866
1.5235694
1.5229773
1.5230065
1.5229607
1.5229158
1.5235964
1.5230223
1.5230713
1.5227532
1.5227752
1.5227215
1.5227394
1.5228173
1.5228363
1.5227736
1.5227958
1.5235491
1.5235264
1.5228562
1.5228075
1.5229197
1.522972
1.5227164
1.5227256
1.5226683
1.5226798
1.5224686
1.5226076
1.5226886
1.5225659
1.5226492
1.5226302
1.5226789
1.5225851
1.5226356
1.5224106
1.5224827
1.522117
1.5222155
1.5235814
1.5235525
1.523538
1.5235605
1.5240556
1.5238985
1.5238734
1.5239584
1.5239591
1.5234258
1.5234012
1.5235755
1.5236141
1.5235017
1.5233167
1.5233227
1.5234859
1.5236115
1.5236068
1.5236094
1.5236111
1.523683
1.5237063
1.5236818
1.5237068
1.5236631
1.5236779
1.5236471
1.5236004
1.5235995
1.5235859
1.5235847
1.5229264
1.5230696
1.5229145
1.5230596
1.5228765
1.5228484
1.523025
1.5229996
1.5228467
1.5229573
1.5228293
1.5229427
1.5227918
1.5229063
1.5227595
1.5228764
1.5227723
1.5227496
1.5228876
1.5228671
1.5227141
1.5226799
1.522833
1.5227986
1.5227389
1.5228251
1.5227109
1.5227994
1.5226791
1.5226432
1.5227681
1.5227317
1.5224386
1.5221579
1.5225033
1.5222505
1.5226324
1.5225947
1.522713
1.5226774
1.522667
1.5226328
1.5227677
1.5227362
1.5224694
1.5222031
1.5225613
1.5223259
1.5225391
1.5226213
1.5222901
1.5224078
1.5227342
1.5228345
1.5227041
1.5228076
1.5228114
1.522936
1.5227852
1.5229132
1.52261
1.522728
1.5223819
1.5225361
1.5223329
1.5222277
1.5224892
1.5224683
1.5226442
1.5226395
1.522621
1.5226103
1.5227475
1.5227457
1.522733
1.522732
1.5226884
1.5226815
1.5226651
1.522665
1.519746
1.519769
1.5197993
1.5198114
1.5189883
1.5192311
1.5195248
1.5195742
1.5199294
1.5199514
1.5199831
1.5199988
1.5203907
1.5205873
1.5201627
1.5201946
1.5224093
1.5224303
1.5224802
1.5224987
1.5217229
1.5218458
1.5221202
1.5221682
1.5227231
1.5227329
1.5227067
1.5227051
1.522644
1.5226527
1.5226836
1.5226771
1.5202137
1.5199469
1.5195422
1.5196774
1.5196803
1.519753
1.5197747
1.5197602
1.5197928
1.5197684
1.5194833
1.5195738
1.5195953
1.5196631
1.5196295
1.5196675
1.5196273
1.519821
1.519808
1.5198098
1.519818
1.5198021
1.5198141
1.5198008
1.5197989
1.5197886
1.5197853
1.5197913
1.519777
1.5197725
1.5197847
1.5197686
1.5197826
1.5197711
1.519765
1.5197592
1.5197495
1.5197966
1.5198015
1.5197912
1.5197849
1.519773
1.5197775
1.5197639
1.5197706
1.5199804
1.5205087
1.5204988
1.5199694
1.5206034
1.5200406
1.5200061
1.5205547
1.5199513
1.5199405
1.5204473
1.5204704
1.5204454
1.5199431
1.519916
1.52044
1.519756
1.5197612
1.5197465
1.5197536
1.5197357
1.5197476
1.5197241
1.5197381
1.5197701
1.5197811
1.5198005
1.5197869
1.5197991
1.5198036
1.5198254
1.5198161
1.519665
1.5196733
1.5196719
1.5196558
1.5196224
1.5196285
1.5196166
1.5196025
1.5194803
1.5194776
1.5194217
1.5194108
1.5203588
1.519754
1.5196556
1.5202557
1.5196457
1.5196672
1.5196655
1.5196398
1.5204661
1.5198997
1.5198626
1.5204245
1.5196099
1.5196145
1.5195893
1.519579
1.5197882
1.51984
1.5203918
1.520351
1.5193052
1.5192395
1.5192254
1.5198989
1.5199029
1.5194027
1.5193056
1.5193738
1.519797
1.5197575
1.519801
1.5197623
1.5198129
1.5198376
1.5198408
1.5198482
1.5198531
1.5198493
1.5197002
1.5194413
1.5188185
1.5187965
1.5185697
1.5191702
1.5191157
1.5190865
1.5184081
1.5187741
1.5190186
1.5190591
1.5179995
1.5184329
1.5184227
1.5181812
1.5187398
1.5187853
1.5187279
1.5188039
1.517887
1.5178767
1.5184479
1.5185343
1.5187538
1.518851
1.518903
1.519035
1.5189468
1.5189878
1.5189705
1.5189786
1.5190204
1.5190322
1.519006
1.519024
1.5189707
1.5190117
1.5191432
1.5191887
1.5190391
1.5192236
1.5190564
1.519237
1.5191591
1.5191808
1.5192336
1.5193258
1.5191154
1.5191277
1.5190951
1.5191175
1.5191472
1.5191525
1.5191359
1.5191443
1.5191196
1.5191497
1.5192959
1.5193364
1.5191788
1.5191704
1.5193662
1.5193779
1.519272
1.519326
1.5193275
1.5192466
1.5192088
1.5192286
1.5194339
1.5194571
1.5192026
1.5191922
1.5191753
1.519192
1.5192796
1.5193706
1.5195321
1.5196588
1.5197558
1.5197263
1.5197622
1.5196993
1.5196725
1.5197521
1.5198154
1.5198088
1.5198327
1.5198221
1.5198146
1.5198276
1.5196636
1.5196389
1.5196086
1.5196563
1.5197285
1.5197411
1.51975
1.5197452
1.5197929
1.5198051
1.5197997
1.5198086
1.5198208
1.5198234
1.5198108
1.5198155
1.5199294
1.5196478
1.5197629
1.5201012
1.5202502
1.5198604
1.5199017
1.5203327
1.5196499
1.5195883
1.5196442
1.5195685
1.5197396
1.5197184
1.5197379
1.5197104
1.5204086
1.5199546
1.519969
1.5204301
1.5204669
1.5199973
1.5199979
1.5204881
1.5197915
1.5197827
1.5197876
1.5197762
1.5198075
1.5198019
1.5198043
1.5197975
1.5198509
1.5198541
1.5198693
1.519865
1.5198626
1.519858
1.5198555
1.5198539
1.5198692
1.5198661
1.5198582
1.519862
1.5198513
1.5198501
1.5198383
1.5198406
1.5198435
1.5198548
1.5198553
1.5198447
1.519846
1.5198565
1.5198449
1.5198559
1.5198524
1.5198501
1.519842
1.5198385
1.5198309
1.519828
1.5198213
1.5198256
1.5205251
1.5200229
1.5200232
1.5205219
1.519835
1.5198336
1.5198286
1.5198301
1.5200155
1.5200243
1.5205104
1.5205044
1.5198349
1.5198363
1.5198313
1.5198295
1.5198279
1.5198323
1.5198271
1.5198215
1.5200243
1.5200275
1.5205317
1.5205198
1.5200272
1.520032
1.5205408
1.520564
1.5195499
1.5195426
1.5200164
1.5200231
1.5195837
1.5195633
1.5200528
1.5200646
1.5196684
1.5196458
1.5202172
1.5202332
1.5199007
1.5197725
1.5203779
1.5204708
1.5193801
1.5193949
1.5198023
1.5198094
1.5194386
1.5194199
1.5198353
1.5198391
1.5194504
1.5194496
1.5198642
1.5198659
1.5194819
1.5194627
1.5198806
1.5198901
1.5206531
1.5204436
1.5209883
1.5208658
1.5210939
1.5210782
1.5211792
1.5211347
1.5212225
1.521235
1.5212318
1.5212137
1.5212486
1.5212286
1.5213074
1.5212599
1.5212967
1.5213348
1.5212409
1.5212418
1.5211912
1.5211559
1.5211437
1.5211676
1.5211755
1.5212144
1.5211257
1.521121
1.5210188
1.521085
1.5207885
1.5209139
1.5190603
1.5189859
1.5193969
1.5194199
1.5191608
1.5191263
1.5194865
1.5194748
1.5182116
1.5178844
1.5187145
1.518807
1.5190853
1.5185917
1.5187888
1.5191273
1.5192494
1.5192284
1.5196354
1.519626
1.5192871
1.5192714
1.5196631
1.5196661
1.5193058
1.519305
1.5196922
1.5196936
1.5193365
1.5193193
1.5197071
1.5197127
1.5201204
1.5203765
1.520164
1.5203918
1.5199258
1.5199512
1.5199539
1.5199763
1.5201214
1.5201888
1.5203683
1.5204073
1.5199205
1.5199752
1.5199496
1.5200007
1.5201368
1.5201712
1.5204133
1.5204127
1.5199372
1.5199614
1.5199658
1.5199861
1.5199761
1.5200022
1.519991
1.5200197
1.5202016
1.5201956
1.5204601
1.5205013
1.5202068
1.5205586
1.5200862
1.5204888
1.5197655
1.519776
1.5197893
1.5197978
1.5198362
1.5198509
1.5198692
1.5198518
1.5199675
1.5197972
1.5198175
1.5199407
1.5198348
1.5198146
1.5198064
1.5198176
1.5198218
1.5198294
1.519882
1.5198533
1.5197908
1.519807
1.519804
1.5198175
1.5197468
1.5197621
1.5197721
1.5197851
1.5197369
1.5197758
1.5197635
1.5197993
1.5197839
1.5198228
1.5197964
1.5198325
1.519824
1.5198507
1.5198851
1.5198606
1.5204461
1.5200324
1.5201055
1.5204818
1.5194485
1.5194865
1.519455
1.5194898
1.519427
1.5194678
1.5194536
1.5194902
1.519479
1.5194797
1.5195149
1.5195123
1.5195415
1.5195616
1.519653
1.5196657
1.5197583
1.5196829
1.5196706
1.5196237
1.51963
1.5196391
1.5196443
1.5196985
1.5196761
1.5197752
1.5196805
1.5196911
1.5197082
1.5196963
1.5196539
1.519661
1.5196656
1.5196701
1.5196642
1.519677
1.5196967
1.5196367
1.5196494
1.5196471
1.5196578
1.5196284
1.5196611
1.5196385
1.5196689
1.5196028
1.5196145
1.5196201
1.5196306
1.5195905
1.5196229
1.5196101
1.5196408
1.518902
1.5190398
1.5191728
1.5192566
1.519449
1.519497
1.5194883
1.51953
1.5191947
1.5194701
1.5195472
1.5195191
1.5195879
1.519692
1.5197027
1.5197381
1.519747
1.5196438
1.5196901
1.5196679
1.5197105
1.5197281
1.5197396
1.5198114
1.5198203
1.5197619
1.519677
1.5197007
1.5197813
1.5196121
1.5196606
1.5196354
1.519681
1.5196009
1.5196225
1.5196316
1.5196511
1.5196573
1.5196677
1.5197054
1.5197135
1.5196422
1.5196522
1.5196736
1.5196817
1.5194276
1.5194707
1.5194535
1.5194925
1.5194301
1.5194761
1.5194709
1.5195114
1.5197524
1.519788
1.5197797
1.5198119
1.5198016
1.5198377
1.5198139
1.5198478
1.5198194
1.5198751
1.5198323
1.5198854
1.5197678
1.5198244
1.5197951
1.5198475
1.5198599
1.5199126
1.5198734
1.5199241
1.5198072
1.5198605
1.5198336
1.5198821
1.5198472
1.5199459
1.5198717
1.5199648
1.5199013
1.5199974
1.5199161
1.520009
1.5199674
1.5200429
1.5199989
1.5200699
1.5199465
1.5199936
1.5199765
1.5200202
1.5201503
1.5202164
1.5203887
1.5204269
1.5201817
1.5202681
1.5204119
1.5204673
1.5202376
1.520457
1.5203242
1.5205108
1.5200521
1.5200202
1.5200873
1.5201146
1.5200683
1.5201006
1.5202124
1.5201862
1.5202974
1.5204219
1.5205051
1.5205949
1.5206102
1.5198954
1.5199694
1.5199239
1.5198658
1.5198362
1.5198543
1.5198786
1.5200729
1.5200304
1.5204464
1.5204609
1.5201086
1.5201401
1.5204855
1.5205049
1.5222087
1.5222797
1.5222994
1.5222322
1.5222776
1.5222675
1.5223378
1.5223455
1.5223715
1.5222651
1.522352
1.522289
1.5223383
1.52242
1.5223276
1.522412
1.5217437
1.5215432
1.5216213
1.5216869
1.5215819
1.5216889
1.5218051
1.5217218
1.5220677
1.5219685
1.522031
1.5220127
1.5220126
1.5220892
1.5220562
1.5221255
1.5218343
1.5216494
1.5217249
1.5217823
1.5217906
1.5216843
1.521809
1.5218969
1.5221126
1.5221584
1.5220698
1.5221224
1.5221706
1.5221001
1.5221429
1.5222085
1.522337
1.5223978
1.5224173
1.5223608
1.522456
1.5224745
1.5224031
1.5223802
1.5224018
1.5224615
1.5224129
1.5224706
1.5224614
1.5225336
1.5224485
1.5225218
1.5224566
1.5225334
1.5225373
1.5224624
1.5224758
1.5224732
1.5225477
1.5225481
1.5226211
1.5225235
1.5226171
1.5225296
1.5225415
1.5226312
1.5225393
1.5226312
1.5224933
1.5224043
1.52248
1.5224205
1.5224673
1.5225606
1.522574
1.522484
1.5225117
1.5224374
1.522514
1.5224367
1.5225051
1.5225973
1.5225051
1.5225961
1.5226283
1.5225484
1.5226151
1.522565
1.5226956
1.522601
1.5226858
1.522616
1.5225896
1.5226544
1.5225888
1.5226542
1.5226421
1.5227214
1.5226449
1.5227238
1.5226081
1.5226752
1.5226794
1.5226141
1.5226238
1.5226897
1.5226255
1.5226902
1.5227461
1.5227487
1.5226642
1.5226693
1.5226835
1.5226805
1.5227619
1.5227652
1.5223467
1.5222602
1.5223339
1.5222762
1.522313
1.522418
1.5224304
1.5223287
1.5223568
1.5222889
1.5223618
1.5222842
1.5223423
1.5224474
1.5223408
1.5224436
1.5221557
1.5222327
1.5222439
1.5221702
1.5221792
1.522257
1.5222473
1.5221717
1.5221989
1.5222911
1.5223031
1.5222141
1.5222256
1.5223175
1.5223091
1.5222191
1.5221901
1.5222703
1.5222743
1.5221976
1.5222103
1.5222105
1.5222881
1.5222856
1.5222386
1.5223331
1.5223368
1.5222455
1.5222596
1.5222583
1.5223501
1.5223488
1.5223057
1.5223815
1.5223848
1.5223121
1.5223273
1.5223248
1.5223985
1.5223995
1.5224677
1.5224711
1.522363
1.522368
1.5223862
1.5223818
1.5224838
1.5224843
1.521644
1.5214454
1.5215189
1.5215872
1.5214766
1.5215866
1.5217104
1.5216196
1.5219019
1.5219584
1.5218604
1.5219219
1.5218983
1.5219881
1.5219421
1.5220247
1.521984
1.5220577
1.5220754
1.5220053
1.5220366
1.522108
1.5221097
1.5220409
1.5221292
1.5220229
1.5221109
1.5220457
1.5221649
1.5220761
1.5221615
1.5220825
1.5215766
1.521391
1.521463
1.5215146
1.521407
1.5215012
1.5216216
1.5215417
1.5218805
1.5217854
1.521851
1.5218194
1.5218155
1.5218939
1.5218536
1.5219271
1.5220801
1.5221498
1.5221677
1.5221027
1.5221339
1.5222022
1.5221416
1.5222083
1.5222248
1.5222434
1.5221272
1.5221487
1.5221927
1.5221825
1.5222792
1.5222857
1.5214948
1.5213265
1.521407
1.521419
1.5213488
1.5214522
1.5215527
1.5214578
1.5217156
1.5217908
1.5216945
1.5217711
1.5217323
1.521824
1.5217606
1.5218488
1.5217036
1.5218285
1.521831
1.5217089
1.5217445
1.5217533
1.5218758
1.5218652
1.5219175
1.5217897
1.5219106
1.5217985
1.5218342
1.5219503
1.5218389
1.5219571
1.521383
1.5212112
1.5213274
1.5212692
1.5212701
1.5213878
1.5214588
1.5213448
1.5216722
1.5215564
1.5216688
1.5215622
1.5216276
1.521736
1.5216404
1.5217475
1.5218734
1.5219595
1.5219706
1.5218866
1.5219224
1.5220071
1.521921
1.5220043
1.5220213
1.5220365
1.5219216
1.5219386
1.5219742
1.5219722
1.5220706
1.52207
1.5214006
1.5213985
1.5216047
1.5215982
1.5215668
1.5217433
1.5217421
1.521568
1.5214511
1.5214418
1.5216358
1.5216533
1.5216176
1.521606
1.5217914
1.5217759
1.5211826
1.5209634
1.5211539
1.5209974
1.5210996
1.5212708
1.5213108
1.5211437
1.5214699
1.5212913
1.5214789
1.5212909
1.5214383
1.5216001
1.5214375
1.5215964
1.5207875
1.5208055
1.5210184
1.521036
1.5213306
1.5213224
1.5211039
1.5211082
1.5208491
1.5225963
1.5227421
1.5225537
1.5227722
1.5211436
1.5211859
1.5211879
1.5214341
1.5214268
1.5214837
1.5214688
1.5212397
1.5212407
1.5229573
1.5229198
1.522949
1.5229802
1.5212737
1.5212215
1.5226323
1.5225913
1.5227628
1.522795
1.5229542
1.5229225
1.5229665
1.5229915
1.5212505
1.5212511
1.5215256
1.5215157
1.5215506
1.5215319
1.5212779
1.5212771
1.5231302
1.5230843
1.523096
1.523135
1.5213089
1.5212823
1.5212657
1.5212657
1.5215326
1.5215226
1.5215326
1.5215142
1.5212627
1.5212619
1.5231244
1.5230828
1.5230763
1.5231185
1.521294
1.5212991
1.5215041
1.5214982
1.5217134
1.5217237
1.52169
1.5216844
1.5218787
1.5218716
1.521703
1.5215045
1.5217276
1.5214901
1.5218842
1.5216943
1.5216744
1.5218617
1.5231273
1.523078
1.523069
1.523118
1.5230883
1.5230721
1.5231239
1.523134
1.5217134
1.5214986
1.5217252
1.5214932
1.5218858
1.5216923
1.5216852
1.5218781
1.5217254
1.521524
1.5217489
1.5215105
1.5219072
1.5217167
1.5216989
1.5218869
1.5219861
1.5218525
1.5219908
1.5218499
1.5219555
1.522088
1.5220862
1.5219557
1.5218608
1.5219948
1.521875
1.5220109
1.5219771
1.522107
1.5219669
1.5220948
1.5219736
1.5218439
1.5219765
1.5218423
1.5219397
1.5219424
1.5220673
1.5220695
1.521966
1.5218507
1.5219862
1.5218333
1.5220799
1.5219513
1.5219359
1.5220637
1.5221289
1.5220321
1.5221234
1.5220395
1.5221915
1.5220871
1.5220973
1.522201
1.5220348
1.5221267
1.522047
1.5221402
1.522212
1.5221063
1.5220963
1.5222009
1.5221508
1.5220544
1.5221499
1.5220574
1.5222235
1.5221152
1.5221202
1.5222272
1.5220684
1.5221605
1.5220754
1.5221688
1.5222417
1.5221363
1.5221327
1.5222368
1.5230213
1.5229991
1.5230619
1.5230799
1.5230039
1.5230121
1.5230758
1.5230658
1.5231105
1.5230442
1.5230333
1.5230991
1.5231005
1.5230307
1.5230521
1.5231144
1.522659
1.5226003
1.5227575
1.522806
1.522664
1.5226174
1.5227613
1.5228003
1.5229199
1.5228793
1.5229347
1.522968
1.5229579
1.5228984
1.5229352
1.5229858
1.5221777
1.522083
1.5221779
1.5220841
1.5221474
1.5222559
1.5222567
1.5221506
1.5220218
1.5221181
1.5220401
1.5221377
1.5221079
1.5222196
1.5220909
1.5222009
1.521788
1.521928
1.5219186
1.5217816
1.5217514
1.5217709
1.5219068
1.5218849
1.5220225
1.5218948
1.5220293
1.52189
1.5218567
1.5219858
1.5218729
1.5220045
1.5220045
1.5218732
1.5220124
1.5218656
1.5219814
1.5221135
1.5221099
1.5219786
1.5219396
1.5218219
1.5219642
1.5218
1.5219336
1.5220696
1.5219133
1.5220475
1.5219977
1.5220945
1.5220896
1.5219949
1.5219726
1.5220671
1.5219587
1.5220519
1.5221722
1.5221683
1.5220617
1.5220599
1.5220232
1.5220343
1.5221438
1.5221301
1.5211808
1.5211805
1.521456
1.5214438
1.5214486
1.521427
1.5211794
1.5211776
1.523085
1.5230425
1.5230188
1.5230571
1.5212103
1.5212126
1.5212478
1.5212456
1.5215283
1.521515
1.5214736
1.5214537
1.5211923
1.5211907
1.5231479
1.5231062
1.5230525
1.5230986
1.5212216
1.5212767
1.5214295
1.5214215
1.5216573
1.5216432
1.521616
1.5218212
1.5218095
1.5216259
1.5214218
1.5214051
1.5216186
1.5216453
1.521613
1.521592
1.521805
1.5217788
1.5217195
1.5215036
1.5217351
1.5214941
1.5217066
1.5219037
1.5218903
1.5216951
1.5216547
1.5214477
1.5216813
1.5214318
1.5216518
1.5218524
1.5216295
1.5218254
1.5231464
1.5230931
1.523039
1.5230947
1.5230168
1.523036
1.5230859
1.5230627
1.5211407
1.521138
1.5214253
1.5214092
1.5213697
1.5213433
1.5210824
1.5210777
1.5211096
1.5211691
1.5214025
1.52139
1.5216189
1.5216378
1.5216109
1.5215961
1.5218089
1.5217917
1.5215497
1.5213462
1.5215841
1.5213232
1.521757
1.5215566
1.5215264
1.521723
1.5217385
1.5218661
1.5218402
1.5217114
1.5220854
1.5219971
1.5220922
1.5219918
1.522168
1.5220632
1.5220599
1.5221639
1.5219277
1.5220235
1.5219524
1.5220497
1.5221295
1.5220221
1.5219985
1.5221048
1.5219087
1.5217818
1.5219224
1.5217694
1.5218935
1.5218842
1.5220255
1.5220155
1.5218417
1.52173
1.5218732
1.5217007
1.5219794
1.5218449
1.5218175
1.5219507
1.5219136
1.5218438
1.5219371
1.5218202
1.5220131
1.521913
1.5218904
1.5219904
1.5214573
1.5215567
1.5216109
1.5217018
1.5217887
1.5216856
1.5215337
1.5216465
1.52312
1.5230473
1.5229969
1.5230693
1.5230731
1.5230061
1.5229654
1.5230285
1.5229548
1.5229661
1.5230288
1.5230147
1.5230659
1.5229978
1.522985
1.5230466
1.5237464
1.523742
1.5236647
1.5236639
1.5234847
1.5236304
1.5235451
1.5234626
1.5235211
1.5235889
1.5197067
1.52284
1.5228949
1.5230583
1.5229893
1.522889
1.5227281
1.5227356
1.5228793
1.5229661
1.5229583
1.5229877
1.5229935
1.5230662
1.5231278
1.523144
1.5230841
1.522927
1.522891
1.5229197
1.5229541
1.5228068
1.5226562
1.522685
1.52282
1.5227639
1.5226199
1.5226742
1.5228048
1.5229182
1.5228644
1.5229044
1.5229532
1.5230444
1.5229763
1.5229755
1.5230387
1.5230281
1.5229934
1.5229988
1.5230285
1.5230034
1.5229905
1.5230239
1.523038
1.5230332
1.52297
1.5229892
1.5230507
1.523063
1.5230477
1.5230578
1.5230678
1.5231485
1.5232037
1.5232122
1.5231537
1.5230619
1.523047
1.5230541
1.5230682
1.5231495
1.5232044
1.523203
1.5231478
1.5230549
1.5230395
1.5230302
1.5230385
1.5231309
1.5231771
1.5231245
1.5230364
1.5230223
1.5230023
1.5230149
1.5230371
1.5229727
1.522943
1.5230021
1.5230222
1.5229884
1.5229688
1.5229974
1.5229467
1.5229659
1.522995
1.5229776
1.5229997
1.5229408
1.522926
1.5229848
1.5226442
1.5226497
1.5227094
1.5227135
1.5227822
1.5227042
1.5227837
1.5226998
1.5226355
1.5227019
1.5226947
1.5226279
1.5227689
1.5226926
1.5227734
1.5226873
1.5225836
1.5226528
1.52265
1.5225814
1.5225488
1.5225557
1.5226268
1.5226195
1.5227228
1.5226437
1.5227278
1.5226406
1.5226134
1.5226999
1.5226187
1.5227047
1.5224994
1.5225023
1.5225725
1.522575
1.5225678
1.5226572
1.5225632
1.5226536
1.522478
1.5225551
1.5225445
1.5224673
1.5226329
1.5225488
1.5226422
1.5225398
1.5224217
1.5225017
1.5224179
1.5224976
1.5224916
1.5224946
1.5225908
1.5225874
1.5223825
1.5224619
1.5223888
1.52247
1.5225617
1.5224636
1.5224566
1.5225536
1.5223467
1.5224215
1.5224218
1.5223488
1.5223017
1.5223166
1.5223925
1.5223778
1.5225093
1.5224071
1.5225089
1.5224085
1.522365
1.5224714
1.5223775
1.5224845
1.5222612
1.5223387
1.5223338
1.5222583
1.5222292
1.5223055
1.5222213
1.5222971
1.5224243
1.5223212
1.5224299
1.5223171
1.5222823
1.5222871
1.5223968
1.5223883
1.5223071
1.5222276
1.5223064
1.522231
1.5222783
1.522371
1.5223711
1.5222809
1.5222557
1.5221921
1.5222732
1.5221756
1.5222456
1.5223406
1.5222298
1.5223235
1.5221418
1.5222233
1.5222192
1.5221405
1.5221131
1.5221928
1.5221807
1.5221031
1.5222835
1.5221927
1.5222885
1.5221905
1.5222452
1.5221619
1.5222568
1.5221531
1.5219913
1.522066
1.5220432
1.5219691
1.5216251
1.5217744
1.5218453
1.5217066
1.5220436
1.5221267
1.5221035
1.5220205
1.5216841
1.5218304
1.5219152
1.5217804
1.5221413
1.5222187
1.5222152
1.52214
1.5221041
1.5221825
1.5221593
1.5220815
1.5221916
1.5222818
1.5222778
1.5221903
1.5221564
1.5222476
1.5222249
1.5221349
1.5222593
1.5223326
1.5223284
1.5222573
1.5222257
1.522299
1.5222786
1.5222048
1.5224115
1.5223191
1.5224147
1.5223159
1.5223653
1.5222853
1.522385
1.5222666
1.5221091
1.5221782
1.5221549
1.5220855
1.5217635
1.5219052
1.5219704
1.5218412
1.5222354
1.5221691
1.5222572
1.5221447
1.5218321
1.5219692
1.5220598
1.5219355
1.5222534
1.5223195
1.522232
1.5223004
1.5222974
1.5223765
1.5223164
1.5223931
1.5219308
1.5220637
1.522126
1.5220077
1.5220038
1.5221
1.5221315
1.5222122
1.5224062
1.5224057
1.5224761
1.5224757
1.5224695
1.5225546
1.5224677
1.5225535
1.5223795
1.5224519
1.5224341
1.522361
1.5225174
1.5224467
1.5225342
1.5224295
1.5225465
1.5225494
1.5226094
1.5226112
1.5226036
1.5226761
1.5226016
1.5226775
1.5225299
1.5225926
1.5225777
1.5225135
1.5226464
1.5225854
1.5226588
1.5225714
1.5223918
1.5224492
1.5223751
1.5224346
1.5224313
1.5224998
1.5224472
1.5225156
1.5222192
1.5220976
1.5222726
1.5221679
1.5221646
1.5222535
1.5222791
1.5223519
1.519597
1.5196073
1.5196353
1.5196399
1.5196633
1.5196649
1.519678
1.5196858
1.5187716
1.5186636
1.5191086
1.5190578
1.5193714
1.5193973
1.5194511
1.5194661
1.5197773
1.5197695
1.5198037
1.5198094
1.519834
1.5198321
1.5198474
1.5198598
1.5201764
1.5201935
1.5203312
1.5204436
1.5199792
1.5199861
1.5200154
1.5200301
1.5202591
1.5197941
1.519813
1.5193353
1.5196314
1.5195114
1.5197137
1.5196769
1.5196848
1.5197265
1.5197915
1.5197796
1.5198146
1.519809
1.5198036
1.5197804
1.519772
1.5197926
1.5198133
1.5198151
1.5198217
1.5198083
1.5197992
1.519788
1.5197807
1.5197903
1.5196318
1.5196753
1.5196769
1.5196353
1.5196759
1.519664
1.5196296
1.5196153
1.5198229
1.5198093
1.5198154
1.5198087
1.519796
1.5197936
1.5198067
1.5197977
1.5197839
1.5197806
1.5197937
1.5197774
1.5197805
1.5197794
1.5197674
1.5197604
1.5197682
1.519764
1.5197551
1.5197463
1.5197984
1.5197973
1.5197862
1.5197842
1.5197679
1.519772
1.5197616
1.5197693
1.519983
1.5202357
1.5202168
1.5199698
1.5202902
1.5200254
1.5200083
1.5202702
1.5199511
1.5199339
1.5201687
1.5201902
1.5201553
1.5199208
1.5199154
1.5201597
1.5197507
1.519756
1.5197431
1.5197513
1.5197321
1.5197426
1.519722
1.5197352
1.519804
1.5197912
1.5198292
1.5198192
1.5196714
1.5196539
1.5196217
1.5196026
1.5194913
1.5194793
1.5194245
1.5194237
1.5200515
1.5197543
1.5196888
1.519987
1.5196426
1.5196649
1.5196695
1.5196418
1.5201738
1.519901
1.519879
1.5201497
1.5196138
1.5196123
1.5195889
1.5195847
1.5198166
1.5198475
1.520112
1.5200866
1.5192403
1.5192288