/*--------------------------------*- C++ -*----------------------------------*\
  =========                 |
  \\      /  F ield         | OpenFOAM: The Open Source CFD Toolbox
   \\    /   O peration     | Website:  https://openfoam.org
    \\  /    A nd           | Version:  7
     \\/     M anipulation  |
\*---------------------------------------------------------------------------*/
FoamFile
{
    version     2.0;
    format      ascii;
    class       volScalarField;
    location    "8000";
    object      nut;
}
// * * * * * * * * * * * * * * * * * * * * * * * * * * * * * * * * * * * * * //

dimensions      [0 2 -1 0 0 0 0];

internalField   nonuniform List<scalar> 
34377
(
2.1050905e-46
6.6490124e-46
8.1929726e-47
9.1042079e-47
2.1394696e-47
2.0516465e-46
2.0915528e-47
1.2367338e-47
7.9163247e-48
8.2170625e-48
1.4150348e-47
3.36655e-46
1.2661987e-47
7.4095942e-46
2.9497132e-46
8.9105909e-47
1.5789279e-47
4.2467699e-47
4.5072341e-47
1.8831406e-47
5.073355e-47
4.7996748e-47
2.225945e-47
2.5374193e-47
2.1959918e-47
7.8779302e-47
2.0218585e-47
1.19685e-47
7.1847249e-48
4.1127075e-48
4.3538914e-48
1.3093875e-47
9.4554815e-48
9.6577435e-48
1.2476823e-47
1.1917767e-47
6.2965573e-48
8.276092e-48
8.9949002e-48
8.1018552e-48
8.4467416e-48
7.7376102e-48
7.9298402e-48
2.9504868e-47
8.1012312e-48
6.9185147e-48
3.0805687e-47
2.5819787e-47
1.7776832e-46
2.5110073e-47
1.8120112e-46
1.4000934e-47
2.3832998e-47
5.563597e-48
7.0736325e-48
2.7303541e-47
1.3167705e-47
3.0261186e-46
3.2595032e-46
2.1780916e-47
1.5857872e-46
2.2637975e-47
1.7066712e-46
4.6425964e-47
5.3491924e-47
2.619379e-47
2.2375617e-47
1.794584e-47
2.061367e-47
1.0098689e-47
1.1862642e-47
1.2214633e-47
2.1086822e-47
2.0470442e-47
1.2006426e-47
1.9101629e-47
1.1864775e-47
2.1594813e-47
1.3172674e-47
2.1047215e-47
1.3240045e-47
2.0023614e-47
1.2674512e-47
1.8661663e-47
4.2345584e-47
4.6796542e-47
2.0742432e-47
4.3036453e-48
4.168564e-48
6.7423946e-48
6.7087643e-48
1.3687057e-47
9.467678e-48
9.6223456e-48
1.2655295e-47
1.2391461e-47
6.1972805e-48
6.3047102e-48
5.3005228e-48
5.2661948e-48
3.6560021e-48
2.9823056e-48
2.8858774e-48
3.4076218e-48
2.3420776e-48
4.0843109e-48
3.3378044e-48
3.2578426e-48
3.8200006e-48
2.2723536e-48
2.5812291e-48
2.4194737e-48
9.5631835e-48
1.1370169e-47
1.2360456e-47
9.7865131e-48
6.719684e-48
5.4508444e-48
5.442589e-48
6.1501778e-48
6.9845566e-48
6.9726211e-48
6.7654988e-48
7.3526256e-48
8.5809649e-48
8.1789559e-48
8.9892567e-48
8.2050262e-48
6.7370957e-48
6.0311733e-48
6.760641e-48
6.6534093e-48
6.359001e-48
6.0877688e-48
9.5173584e-48
6.5657889e-48
6.3990592e-48
9.8420692e-48
1.3239424e-47
1.8254611e-47
1.8723247e-47
1.3295604e-47
1.9019397e-47
1.9406899e-47
7.4203769e-47
8.0103894e-47
1.2933625e-47
1.2416348e-47
1.8467856e-47
1.7865446e-47
2.0293224e-47
7.4961829e-47
8.040609e-47
2.8744053e-47
7.8364486e-48
7.7957667e-48
2.9808643e-47
9.0066595e-48
5.3992311e-48
5.7941685e-48
8.5907918e-48
7.6733015e-48
5.2632908e-48
2.4640793e-47
2.87801e-47
2.2775445e-47
2.3202492e-47
1.6061231e-46
1.7229621e-46
2.5225411e-47
2.5107539e-47
1.8026932e-46
1.7799894e-46
1.2357829e-47
1.1905515e-47
1.7442969e-47
1.8004339e-47
1.8495995e-47
1.8794237e-47
7.1544902e-47
7.788522e-47
1.2075113e-47
1.2128604e-47
1.7931426e-47
1.7882586e-47
1.9729265e-47
1.9413392e-47
7.8863998e-47
7.4489052e-47
2.015674e-47
1.9659926e-47
1.1734306e-47
1.1907722e-47
2.2085704e-47
2.2858192e-47
1.2816631e-47
1.3183163e-47
7.6903421e-48
8.5723888e-48
6.8174171e-48
6.0853833e-48
9.3766937e-48
9.3915743e-48
7.3084611e-48
7.4278086e-48
8.9481787e-48
9.3147108e-48
6.9241725e-48
6.8364916e-48
9.2745541e-48
8.7332656e-48
7.3249433e-48
6.987804e-48
6.3198388e-48
7.9722862e-48
8.8139694e-48
7.0242783e-48
9.7175148e-48
9.7184184e-48
7.5996808e-48
7.6595302e-48
8.5521616e-48
8.8287965e-48
6.9238854e-48
7.1395657e-48
7.2181463e-48
8.7798894e-48
8.2205058e-48
7.082759e-48
2.0798182e-47
1.1844433e-47
1.052099e-47
1.781233e-47
2.088557e-47
2.1313865e-47
1.2326263e-47
1.2214095e-47
3.87956e-48
3.1439611e-48
3.3651519e-48
4.0637391e-48
2.2933844e-48
3.7290713e-48
3.0598074e-48
3.0465015e-48
2.3135972e-48
3.6042132e-48
6.5912701e-48
6.7700869e-48
5.4737215e-48
5.2891932e-48
5.7172777e-48
6.9868754e-48
5.2647449e-48
6.0681869e-48
2.5823826e-48
9.488986e-48
1.2226914e-47
1.2004821e-47
9.9122545e-48
5.3686225e-48
4.840304e-48
4.5687016e-48
5.0483131e-48
5.3374818e-48
5.1595441e-48
4.8647552e-48
4.8739331e-48
4.1727697e-48
4.1662002e-48
4.2791458e-48
4.1385512e-48
3.7870876e-48
4.2946086e-48
3.9701421e-48
4.0492685e-48
2.9285586e-48
3.2813745e-48
3.1055879e-48
3.0549176e-48
2.5793906e-48
2.5076619e-48
2.2570377e-48
2.3449104e-48
1.9922205e-48
2.2553802e-48
2.2041572e-48
2.3842185e-48
1.9108256e-48
2.4259883e-48
3.083073e-48
2.998755e-48
2.9261844e-48
2.9656966e-48
1.9656481e-48
1.8524432e-48
3.1833536e-48
3.6595947e-48
3.3219307e-48
3.4508492e-48
2.6093694e-48
2.4131821e-48
2.8158924e-48
2.6448243e-48
2.2019741e-48
2.4376544e-48
2.6203778e-48
3.1225534e-48
3.2055887e-48
3.2109903e-48
2.1516035e-48
1.5520407e-48
1.5815212e-48
1.270665e-48
1.3014739e-48
1.6356848e-48
1.8976902e-48
1.431954e-48
5.3691097e-48
5.8747975e-48
5.3993907e-48
6.2226707e-48
4.1097366e-48
4.5355306e-48
4.2555883e-48
4.7585291e-48
4.5492534e-48
4.361062e-48
4.3078059e-48
4.374371e-48
5.7093133e-48
5.4629126e-48
5.3495039e-48
5.3359056e-48
4.1994995e-48
4.239827e-48
4.1700108e-48
4.2414472e-48
3.8482647e-48
4.1411434e-48
4.5570916e-48
4.5583153e-48
6.8502956e-48
7.0749823e-48
6.2719886e-48
6.8446122e-48
7.3603668e-48
7.5592718e-48
6.6306359e-48
6.4768346e-48
4.2825497e-48
4.2467976e-48
3.6377034e-48
3.9012901e-48
4.1041474e-48
4.2446553e-48
4.1028335e-48
4.1019159e-48
6.2440792e-48
6.1342381e-48
8.9311972e-48
1.9072144e-47
1.3875338e-47
1.3628807e-47
1.402168e-47
1.4410144e-47
7.996548e-48
1.0658743e-47
1.0798714e-47
7.5783117e-48
8.0322023e-48
1.1062109e-47
1.0609253e-47
8.0378077e-48
8.1030181e-48
6.9583085e-48
7.4842311e-48
1.9977129e-47
1.9029787e-47
2.1030322e-47
2.0915219e-47
7.5882766e-48
7.4208724e-48
8.154266e-48
7.9453886e-48
1.077567e-47
1.0862657e-47
7.792378e-48
8.1605091e-48
7.6462019e-48
2.1329182e-47
7.1837838e-48
1.9509523e-47
7.6419657e-48
2.0449802e-47
9.3574962e-48
6.104427e-48
6.3546171e-48
9.2690655e-48
1.6880034e-47
1.2938422e-47
1.3494123e-47
5.3613999e-48
6.0007343e-48
1.5357242e-47
1.3204136e-47
1.3181863e-47
5.6691532e-48
5.1003892e-48
9.4831331e-48
8.9516222e-48
1.8854736e-47
1.2724335e-47
1.3172701e-47
1.9430193e-47
1.923033e-47
1.2719891e-47
1.2628002e-47
1.9312876e-47
1.9207898e-47
1.9545542e-47
6.969111e-47
7.7427723e-47
2.0179504e-47
1.9851468e-47
7.7229836e-47
7.3495905e-47
1.8451634e-47
1.2516493e-47
1.3113137e-47
1.9289604e-47
1.9311959e-47
1.2947451e-47
1.2697262e-47
1.9004408e-47
1.9411212e-47
1.9787277e-47
7.4934984e-47
7.9146277e-47
1.9920089e-47
7.7774276e-47
2.0560416e-47
7.2285429e-47
7.7635e-48
7.9249746e-48
1.0536065e-47
1.0687367e-47
7.4828872e-48
7.8440343e-48
1.072919e-47
1.0351183e-47
7.8574464e-48
7.8117579e-48
1.88575e-47
1.9840549e-47
6.5683042e-48
7.1153503e-48
2.063785e-47
2.0795585e-47
7.3608035e-48
7.1367422e-48
7.882126e-48
7.7239701e-48
1.053285e-47
1.0625657e-47
7.5999993e-48
7.9688502e-48
1.0691852e-47
1.0263611e-47
7.8783918e-48
7.8475452e-48
6.9884086e-48
1.9401765e-47
7.4632111e-48
2.0378628e-47
7.5699494e-48
7.3347324e-48
2.105404e-47
2.0163686e-47
8.3662827e-48
8.5149912e-48
6.5325232e-48
6.4987052e-48
8.6709892e-48
6.7955029e-48
8.1955999e-48
6.6428759e-48
9.3450142e-48
9.6238093e-48
7.4851866e-48
7.6725047e-48
7.8596589e-48
1.0115556e-47
9.5876436e-48
7.7857659e-48
1.0469584e-47
9.576059e-48
2.3690453e-48
2.6701015e-48
1.0135843e-47
1.0845113e-47
2.7686629e-48
2.7158895e-48
1.107956e-47
1.0230282e-47
2.6950671e-48
2.9796873e-48
1.1199754e-47
1.2245675e-47
2.9424259e-48
2.8492755e-48
1.0148088e-47
9.7652096e-48
2.5810602e-48
2.8999332e-48
1.0371772e-47
1.0805728e-47
2.8544745e-48
2.8007837e-48
2.6160791e-48
9.7719065e-48
1.0686936e-47
2.8663633e-48
9.7308097e-48
1.0705822e-47
2.7457695e-48
2.6239604e-48
9.0611054e-48
8.9332431e-48
2.4053909e-48
2.635721e-48
9.8882914e-48
9.4628977e-48
2.7971915e-48
2.8554474e-48
1.0057375e-47
2.8366198e-48
1.0849918e-47
3.059004e-48
3.1242192e-48
1.1662211e-47
1.0324904e-47
3.0295391e-48
8.9594565e-48
8.9666497e-48
2.4729294e-48
2.6812338e-48
2.7075544e-48
9.494849e-48
9.1732408e-48
2.8007086e-48
9.1350655e-48
9.8309078e-48
2.4753089e-48
2.6391602e-48
8.2867891e-48
9.1244685e-48
2.5903756e-48
2.5554367e-48
9.1006261e-48
8.9799525e-48
6.9577591e-48
6.8517756e-48
7.6536235e-48
8.2597548e-48
5.8249508e-48
6.1198682e-48
6.7044911e-48
8.8187869e-48
8.9419031e-48
6.6870314e-48
9.0742256e-48
8.9846384e-48
7.1528933e-48
7.0816631e-48
3.1632473e-48
3.0441866e-48
2.9505193e-48
2.8637736e-48
2.5499636e-48
2.4738523e-48
2.2569996e-48
2.351267e-48
2.0329252e-48
2.8361768e-48
2.6211669e-48
2.5680082e-48
2.8325815e-48
2.1736232e-48
3.6159611e-48
3.5041046e-48
3.3783633e-48
3.5097405e-48
2.1466846e-48
2.1245034e-48
3.345796e-48
3.070639e-48
2.6667794e-48
2.4622069e-48
2.2963688e-48
2.485485e-48
1.986412e-48
2.4036885e-48
2.6558715e-48
2.0358985e-48
3.3095822e-48
3.1665939e-48
3.1240391e-48
3.0250406e-48
5.1197722e-48
5.5818276e-48
5.3168281e-48
5.7196656e-48
5.4661524e-48
5.3099772e-48
5.2506855e-48
4.2071298e-48
4.3029423e-48
4.3947602e-48
4.5629896e-48
4.3343396e-48
4.1481304e-48
4.7089108e-48
4.870793e-48
4.7224061e-48
4.5992443e-48
6.2684438e-48
6.014788e-48
5.882526e-48
5.9930804e-48
3.9464184e-48
4.0295664e-48
4.1880389e-48
4.0146594e-48
5.2696034e-48
5.1059192e-48
5.0050258e-48
5.0819392e-48
1.9149523e-48
1.4167745e-48
1.4337255e-48
1.9791242e-48
3.489168e-48
3.5291889e-48
3.142667e-48
3.1001625e-48
2.9118123e-48
2.5834795e-48
3.1347734e-48
2.7104474e-48
2.9958682e-48
2.3565953e-48
3.2163246e-48
2.5137739e-48
3.5141322e-48
2.7310162e-48
3.5354378e-48
2.7091609e-48
3.4658155e-48
3.3807592e-48
3.1704856e-48
3.0120698e-48
3.3038654e-48
2.9388108e-48
3.3877593e-48
2.9388984e-48
3.3670967e-48
2.6237974e-48
3.4578337e-48
2.6571021e-48
3.5187118e-48
3.4402721e-48
2.7273618e-48
2.6290962e-48
3.352671e-48
2.6279965e-48
3.4691487e-48
2.6739612e-48
3.5130226e-48
3.6570239e-48
3.0546018e-48
3.1209446e-48
3.6961356e-48
3.595044e-48
3.2155159e-48
3.1023522e-48
3.4276826e-48
3.3381753e-48
2.7058967e-48
2.6027491e-48
2.9708339e-48
2.2888653e-48
3.2260982e-48
2.4472463e-48
3.8049517e-48
3.8147518e-48
3.260918e-48
3.2336988e-48
3.2327819e-48
2.741452e-48
3.5371324e-48
2.9455504e-48
3.4687257e-48
3.4853067e-48
2.708198e-48
2.686894e-48
3.3835827e-48
2.7044105e-48
3.7305367e-48
2.9412192e-48
3.6249884e-48
3.5926358e-48
3.3216928e-48
3.2838308e-48
3.1549101e-48
2.8892514e-48
3.4981099e-48
3.1580625e-48
3.8433642e-48
3.8301776e-48
3.1025827e-48
3.0700396e-48
2.7990463e-48
2.6150163e-48
2.8235986e-48
2.5780125e-48
2.4865994e-48
2.3206249e-48
2.8194053e-48
2.5655566e-48
1.7957388e-48
2.0078812e-48
2.0487874e-48
1.6458781e-48
2.2304891e-48
2.0391367e-48
2.035822e-48
1.7248881e-48
2.2724669e-48
2.3141495e-48
1.8846224e-48
1.8005246e-48
1.9099014e-48
1.8785937e-48
1.5852538e-48
2.0673983e-48
2.1344936e-48
1.8006392e-48
1.9101157e-48
1.5578979e-48
2.0959798e-48
2.0278021e-48
2.4905701e-48
2.3896315e-48
2.6759992e-48
2.5112074e-48
1.5809864e-48
1.6713762e-48
2.6160829e-48
2.5012845e-48
2.5893881e-48
2.4320896e-48
3.4443152e-48
3.212249e-48
3.3631694e-48
3.1152965e-48
3.2569388e-48
3.0402445e-48
3.4348081e-48
3.1544891e-48
3.5905519e-48
2.9493872e-48
3.7623865e-48
3.046407e-48
3.7557693e-48
3.0759576e-48
3.6582879e-48
2.9776915e-48
1.2903557e-48
1.2687382e-48
1.3186541e-48
1.4071085e-48
1.6426546e-48
1.4210123e-48
1.2907935e-48
1.4199273e-48
3.4893658e-48
2.8129128e-48
4.020218e-48
3.1843396e-48
3.9241373e-48
4.0324752e-48
3.6432166e-48
3.7157053e-48
3.2028102e-48
2.9657497e-48
3.7345181e-48
3.3772482e-48
4.203122e-48
4.3257521e-48
3.4069201e-48
3.4613856e-48
2.1997344e-48
2.2970481e-48
1.9698873e-48
2.5536562e-48
2.4792809e-48
1.7836452e-48
2.1067411e-48
1.8098185e-48
2.3464323e-48
2.0296535e-48
2.9817238e-48
2.8368358e-48
3.1226073e-48
2.8971322e-48
2.4593767e-48
2.3508383e-48
2.9460607e-48
2.7328894e-48
1.9103614e-48
2.051332e-48
1.8434556e-48
2.0249653e-48
2.2203908e-48
2.0603461e-48
2.548484e-48
2.4417474e-48
2.8283711e-48
2.6462176e-48
3.3605616e-48
3.6764969e-48
3.0042555e-48
3.9626688e-48
3.1812024e-48
3.3265816e-48
3.0996633e-48
3.6209903e-48
3.3016977e-48
3.9024855e-48
3.182298e-48
3.9701672e-48
3.2047468e-48
1.821368e-48
1.5795168e-48
1.4979788e-48
1.7231872e-48
5.899211e-49
5.9472447e-49
9.2837893e-49
8.8962268e-49
1.3013512e-48
9.4448288e-49
7.1258432e-49
7.4607534e-49
1.0238101e-48
8.7873852e-49
8.5218634e-49
8.983945e-49
8.42339e-49
8.5007583e-49
8.7824367e-49
9.2425995e-49
8.3210257e-49
7.5245951e-49
1.0093819e-48
7.5132401e-49
9.947435e-49
9.3130274e-49
1.3485662e-48
8.3848601e-49
1.0949106e-48
1.0572759e-48
1.0313272e-48
1.0039051e-48
3.250181e-48
2.5205805e-48
3.5906709e-48
2.723638e-48
3.8294328e-48
3.9537549e-48
2.9331563e-48
2.9357799e-48
3.125628e-48
2.8048496e-48
3.4440085e-48
3.0029079e-48
3.7921455e-48
3.4044163e-48
3.910701e-48
3.4117353e-48
3.1589612e-48
3.5437838e-48
2.4713725e-48
2.7004218e-48
3.8053681e-48
3.9093707e-48
2.9760357e-48
2.9985945e-48
3.3469655e-48
2.8835428e-48
3.8030957e-48
3.1959055e-48
4.118312e-48
4.2364707e-48
3.5531509e-48
3.597132e-48
3.7850194e-48
3.8191602e-48
3.2799835e-48
3.2551815e-48
3.5401667e-48
3.7730209e-48
3.0631434e-48
3.1848002e-48
3.3484005e-48
3.5410897e-48
2.664439e-48
2.7505757e-48
3.494356e-48
3.513536e-48
2.7558755e-48
2.7318432e-48
3.466267e-48
3.1801305e-48
3.47429e-48
3.1036393e-48
3.3375031e-48
3.0428648e-48
3.4808944e-48
3.0701904e-48
3.5009214e-48
2.7661762e-48
3.6814645e-48
2.8283858e-48
3.5987735e-48
2.803382e-48
3.629566e-48
2.7728943e-48
2.5678616e-48
2.5858392e-48
2.5158122e-48
2.5387218e-48
2.4935221e-48
2.5464551e-48
2.6195225e-48
2.7958151e-48
2.5352966e-48
2.5262426e-48
2.6589913e-48
2.9045986e-48
2.8266417e-48
3.0500308e-48
3.0679733e-48
3.001824e-48
4.2089072e-48
4.0640406e-48
4.2592246e-48
4.2527669e-48
3.6675493e-48
3.6813436e-48
4.2419623e-48
4.1947341e-48
4.4888002e-48
4.5336613e-48
4.6376439e-48
4.6049364e-48
4.0121656e-48
3.9061633e-48
3.9536754e-48
3.8958916e-48
2.9236558e-48
3.0471674e-48
2.9666703e-48
2.9519355e-48
2.7052168e-48
2.7830867e-48
2.8451504e-48
2.7906315e-48
2.7008174e-48
2.6998113e-48
2.8720273e-48
2.7238396e-48
2.6866813e-48
2.8607941e-48
2.7986532e-48
2.7762285e-48
8.779365e-48
8.9288136e-48
6.874189e-48
5.004078e-48
6.2606886e-48
5.7309559e-48
5.7218491e-48
1.3736281e-47
6.6819912e-48
6.9345618e-48
6.088301e-48
9.4550483e-48
8.9821295e-48
8.2195245e-48
8.6721166e-48
7.0643332e-48
7.2741724e-48
6.9364216e-48
7.1608683e-48
3.874227e-48
8.0594189e-48
4.0037815e-48
8.0822948e-48
8.4836607e-48
8.2983062e-48
4.1558524e-48
4.1524545e-48
7.210872e-48
7.0430106e-48
4.002463e-48
8.341742e-48
4.10568e-48
8.3366578e-48
8.3257298e-48
8.1313439e-48
4.0830455e-48
4.0629373e-48
2.5203861e-48
2.3281064e-48
2.4808865e-48
2.4304263e-48
2.5130539e-48
2.4913314e-48
2.6414085e-48
2.5816219e-48
2.4493764e-48
2.8686738e-48
2.871179e-48
2.3700002e-48
2.637874e-48
2.2738486e-48
2.3350764e-48
2.8077134e-48
2.3779155e-48
2.4106508e-48
3.034787e-48
2.8649858e-48
3.0409752e-48
2.484006e-48
2.3128402e-48
3.0054913e-48
2.555571e-48
2.4565061e-48
2.4862755e-48
2.408926e-48
2.486701e-48
2.4408905e-48
2.2774875e-48
2.6375742e-48
9.1749146e-48
9.1800326e-48
8.4924702e-48
8.5808789e-48
9.345777e-48
8.7640135e-48
8.212816e-48
8.7481974e-48
8.1826523e-48
8.1881472e-48
3.9278585e-48
4.0619886e-48
4.2137727e-48
8.6267578e-48
8.4200975e-48
4.1909177e-48
2.4356399e-48
2.4357429e-48
2.5439325e-48
2.4246879e-48
2.8608147e-48
2.3350611e-48
2.4577893e-48
3.02747e-48
2.5715305e-48
2.3882776e-48
2.611085e-48
2.3717802e-48
2.7592689e-48
2.3352954e-48
2.344408e-48
2.9245901e-48
2.5790813e-48
2.535649e-48
2.5849786e-48
2.4707278e-48
2.3385575e-48
2.4673174e-48
2.9865909e-48
2.9360698e-48
1.7439368e-47
1.3802023e-47
1.3701039e-47
6.5085322e-48
6.1018053e-48
1.8328524e-47
1.3708765e-47
1.3565738e-47
5.5398355e-48
5.4516121e-48
1.2881274e-47
6.5893626e-48
6.6271065e-48
5.4758813e-48
5.494921e-48
1.3111338e-47
6.4453911e-48
6.6456692e-48
5.8572505e-48
4.9514644e-48
1.7224363e-47
1.4290384e-47
1.3933118e-47
1.5270246e-47
1.3547711e-47
1.3721674e-47
8.3874343e-48
8.4934673e-48
8.2340605e-48
8.2876568e-48
7.8682608e-48
8.2440707e-48
1.1531836e-47
1.1312063e-47
1.1447556e-47
1.1162421e-47
8.2127647e-48
8.1927228e-48
6.5971498e-48
1.8806714e-47
7.1491098e-48
2.066809e-47
7.3588736e-48
7.2094207e-48
2.183163e-47
2.1588442e-47
7.8839441e-48
1.1311621e-47
1.1181871e-47
8.1302765e-48
1.1184429e-47
1.0941396e-47
8.0690403e-48
8.037557e-48
6.7235549e-48
7.3140217e-48
2.0184194e-47
2.1900194e-47
7.27409e-48
2.1808575e-47
7.1117524e-48
2.1424061e-47
8.1035142e-48
8.3434067e-48
8.1727129e-48
8.1649737e-48
1.099681e-47
1.1198377e-47
7.7578237e-48
8.1473901e-48
1.1325471e-47
1.0933739e-47
8.1761118e-48
8.088601e-48
6.7421537e-48
7.3422496e-48
2.0127206e-47
2.1813191e-47
7.3722209e-48
7.395347e-48
2.1789071e-47
2.1865358e-47
1.1059357e-47
1.0618285e-47
7.8806234e-48
8.0184838e-48
6.9766131e-48
7.4650208e-48
1.9577865e-47
2.1110033e-47
1.1229921e-47
1.1094624e-47
7.7990352e-48
8.1195481e-48
7.3499755e-48
7.1326272e-48
2.1078583e-47
2.0293371e-47
8.9019695e-48
8.6148023e-48
8.603563e-48
8.2419188e-48
6.9654285e-48
7.1379216e-48
9.0614867e-48
9.1529148e-48
8.4660768e-48
8.43459e-48
7.0549515e-48
6.9139461e-48
8.0367362e-48
8.031266e-48
3.8486603e-48
3.9621811e-48
4.1373607e-48
8.4382536e-48
8.2849063e-48
4.1274361e-48
3.9772139e-48
8.1765372e-48
4.0789339e-48
8.1950439e-48
8.1876182e-48
8.0288477e-48
4.0219406e-48
3.9941482e-48
2.5384744e-48
2.2973716e-48
2.3272316e-48
2.697629e-48
2.7715327e-48
2.4954121e-48
2.4059967e-48
2.8056307e-48
2.3543538e-48
2.2317106e-48
2.5928071e-48
2.6177523e-48
2.3935957e-48
2.3289236e-48
2.6848661e-48
2.9121549e-48
2.7320285e-48
2.4027057e-48
2.4089957e-48
2.9144631e-48
2.9416892e-48
2.4947141e-48
2.3803853e-48
2.9125522e-48
2.4701181e-48
2.3440759e-48
2.5279432e-48
2.7393562e-48
2.3433439e-48
2.3122423e-48
2.5413969e-48
2.7697339e-48
9.0573627e-48
9.1904934e-48
8.3714778e-48
8.3912122e-48
7.0239925e-48
6.8338205e-48
9.0923167e-48
8.690174e-48
8.5290519e-48
8.1104459e-48
6.9057581e-48
7.0696079e-48
8.1242979e-48
8.0864982e-48
3.8877865e-48
4.0114327e-48
4.1518101e-48
8.4658395e-48
8.2828282e-48
4.1313794e-48
3.9573514e-48
8.1620598e-48
4.04067e-48
8.151129e-48
8.1611781e-48
7.9694299e-48
4.0109385e-48
3.9801209e-48
2.480519e-48
2.3327189e-48
2.6438787e-48
2.5474804e-48
2.7150945e-48
2.3337708e-48
2.3879219e-48
2.8751251e-48
2.494876e-48
2.4570723e-48
2.8104343e-48
2.7732901e-48
2.455465e-48
2.5426923e-48
2.9404686e-48
2.9150144e-48
2.5118717e-48
2.42708e-48
2.4895687e-48
2.6516534e-48
2.4310411e-48
2.4185864e-48
2.5647303e-48
2.446818e-48
2.4576791e-48
2.3851208e-48
2.7957588e-48
2.9445764e-48
2.3013413e-48
2.4734022e-48
2.9417604e-48
2.8115637e-48
1.0750556e-47
9.4843104e-48
2.4649759e-48
2.7453472e-48
1.098794e-47
1.2532724e-47
2.6341625e-48
2.5969627e-48
1.1154466e-47
9.9110063e-48
2.442972e-48
2.723375e-48
1.0587201e-47
1.1890484e-47
2.6389341e-48
2.6442186e-48
1.067932e-47
1.3303758e-47
2.8474989e-48
3.1170488e-48
1.3647973e-47
1.4041067e-47
3.1255346e-48
2.9754441e-48
1.2803619e-47
1.1535797e-47
2.9292899e-48
3.1277677e-48
1.2913628e-47
1.4564676e-47
3.1278678e-48
2.947621e-48
3.327856e-48
3.1536497e-48
3.5968629e-48
3.5100769e-48
4.0458831e-48
3.8097664e-48
3.8413077e-48
3.9643616e-48
3.8805361e-48
3.7442973e-48
3.957543e-48
3.9319344e-48
3.8754856e-48
4.0176068e-48
3.5701315e-48
3.760404e-48
3.4733152e-48
3.394151e-48
3.8704437e-48
3.7221902e-48
4.0542044e-48
4.2327613e-48
4.2361268e-48
4.085149e-48
3.6251525e-48
3.5703446e-48
3.7399391e-48
3.830241e-48
3.6638421e-48
3.5802023e-48
3.3347658e-48
3.5214809e-48
1.2084466e-47
1.1540317e-47
2.6224941e-48
2.8004568e-48
1.1664421e-47
1.3624199e-47
2.7278649e-48
2.8429875e-48
1.0901286e-47
8.8671823e-48
2.3255026e-48
2.6068108e-48
2.6335362e-48
1.178196e-47
1.144282e-47
2.5840758e-48
1.0843219e-47
1.0232566e-47
2.8780881e-48
2.7050079e-48
1.1687466e-47
1.3913239e-47
2.7434021e-48
2.6795867e-48
1.183319e-47
1.126204e-47
2.5883896e-48
2.8184171e-48
1.2330063e-47
1.3453093e-47
2.8165745e-48
2.7191575e-48
3.4606464e-48
3.2932706e-48
3.1855346e-48
3.0320809e-48
3.2535317e-48
2.9809123e-48
3.2599822e-48
2.9808461e-48
3.6963244e-48
2.9906751e-48
3.5205232e-48
2.8494972e-48
3.4964355e-48
2.8311304e-48
3.5210139e-48
2.8445621e-48
2.6667204e-48
2.5065803e-48
2.5574969e-48
2.3835318e-48
2.5338579e-48
2.3775945e-48
2.5465109e-48
2.3801436e-48
1.8208003e-48
1.8099607e-48
2.0341948e-48
2.0102554e-48
1.6326442e-48
1.9322583e-48
1.8466214e-48
2.0734445e-48
2.1582781e-48
1.6908686e-48
1.6787761e-48
1.8020923e-48
3.0211538e-48
2.7778324e-48
3.0748575e-48
2.8064836e-48
2.2820973e-48
2.248323e-48
2.551982e-48
2.6019675e-48
1.9462439e-48
2.2150776e-48
2.2203658e-48
1.9311848e-48
2.4769597e-48
2.5213134e-48
3.0684104e-48
2.9099962e-48
3.0418115e-48
2.8653929e-48
2.0414895e-48
2.00898e-48
4.0168357e-48
3.7137212e-48
3.9658977e-48
3.6559628e-48
3.7931859e-48
3.4811185e-48
3.8293123e-48
3.5007502e-48
4.1352603e-48
3.3568231e-48
4.1763017e-48
3.3733213e-48
4.3110824e-48
3.4974379e-48
4.2461799e-48
3.4306138e-48
1.5699849e-48
1.5155669e-48
1.707173e-48
1.7438567e-48
1.3980876e-48
1.3356115e-48
1.4045818e-48
1.5453423e-48
3.690534e-48
3.6782275e-48
3.3498599e-48
3.3301637e-48
3.8729288e-48
3.8484794e-48
3.1056277e-48
3.0689205e-48
2.8402215e-48
2.6180947e-48
2.8656607e-48
2.6042152e-48
2.1089924e-48
2.3197775e-48
1.9118425e-48
1.9349833e-48
1.5849794e-48
2.13597e-48
2.1863103e-48
2.6223988e-48
2.4909855e-48
2.6879574e-48
2.5228063e-48
1.788819e-48
1.7857731e-48
1.6301315e-48
2.045801e-48
2.1093117e-48
2.3503705e-48
2.2596188e-48
2.786204e-48
2.6221044e-48
2.8796703e-48
2.673089e-48
1.4044078e-48
1.5591913e-48
1.5106337e-48
3.5992612e-48
3.3392346e-48
3.6898033e-48
3.4031407e-48
3.8803706e-48
3.1557523e-48
3.957701e-48
3.2003285e-48
3.4230649e-48
3.1686044e-48
3.4863548e-48
3.2013499e-48
3.7321177e-48
3.0407957e-48
3.7828874e-48
3.0562019e-48
3.1471838e-48
2.4425056e-48
3.1943709e-48
2.4331953e-48
3.5153086e-48
3.5100725e-48
3.1103805e-48
3.0686561e-48
2.8148542e-48
3.5535573e-48
2.7493989e-48
3.5105312e-48
2.707902e-48
3.5298753e-48
3.5844449e-48
3.1666401e-48
3.1384024e-48
3.4017624e-48
3.0387433e-48
3.4036879e-48
2.9963048e-48
3.5536459e-48
3.5533762e-48
2.7488076e-48
2.7344783e-48
2.7276421e-48
3.4951987e-48
3.4830051e-48
2.6937257e-48
3.4150195e-48
2.6841255e-48
3.4227012e-48
2.6626129e-48
3.6205115e-48
3.6657484e-48
3.1166273e-48
3.1187255e-48
3.5129328e-48
3.5556954e-48
2.7497924e-48
2.751253e-48
3.7960226e-48
3.8860869e-48
3.2677616e-48
3.3051871e-48
3.8330765e-48
3.8296325e-48
3.2467556e-48
3.218224e-48
3.5056527e-48
3.4768892e-48
2.7260017e-48
2.6767865e-48
4.0359965e-48
3.4559606e-48
4.0636062e-48
3.4633e-48
4.1996852e-48
3.5969825e-48
4.1399037e-48
3.5263046e-48
3.8645505e-48
3.0234549e-48
3.7985467e-48
2.9539687e-48
3.7564944e-48
2.9349862e-48
3.7817965e-48
2.9342182e-48
3.8486885e-48
3.4481931e-48
3.8190207e-48
3.3716086e-48
3.7076727e-48
3.3341825e-48
3.7336496e-48
3.315976e-48
3.8540594e-48
2.9855021e-48
3.9068627e-48
3.0224064e-48
3.9371154e-48
3.043844e-48
3.8910348e-48
2.9880058e-48
3.2149088e-48
2.5243411e-48
3.2370589e-48
2.5113188e-48
3.4165422e-48
2.9241624e-48
3.4425939e-48
2.9220634e-48
3.6197988e-48
3.1014809e-48
3.4681517e-48
2.9596973e-48
3.3267294e-48
2.6101817e-48
3.1917965e-48
2.4928767e-48
3.2907506e-48
3.1777912e-48
2.9859161e-48
2.8489291e-48
3.1804282e-48
3.1690077e-48
2.8553214e-48
2.8144054e-48
3.3382934e-48
3.3757891e-48
2.6184738e-48
2.615286e-48
3.4130609e-48
2.6656449e-48
3.3131175e-48
2.5947907e-48
6.0954466e-49
8.7849337e-49
1.2365739e-48
8.2751686e-49
1.0712082e-48
1.002786e-48
1.0219943e-48
1.0316861e-48
9.3120139e-49
9.6025734e-49
1.0846918e-48
9.5930847e-49
8.2555973e-49
1.1427214e-48
8.6676865e-49
1.1604156e-48
1.399813e-48
1.3197959e-48
1.3522308e-48
1.4287375e-48
1.4572495e-48
1.4494217e-48
1.3719077e-48
1.3706362e-48
1.2211192e-48
1.3459025e-48
1.2034816e-48
1.428131e-48
1.3939593e-48
1.2199559e-48
1.3812798e-48
1.2207521e-48
1.1576965e-48
1.1846279e-48
1.1356535e-48
1.2170442e-48
1.1582778e-48
1.0343567e-48
1.0468925e-48
1.2170015e-48
1.254903e-48
1.290084e-48
1.2213821e-48
1.3343439e-48
1.2323197e-48
1.0906768e-48
1.275676e-48
1.1014492e-48
1.3687479e-48
1.3392929e-48
1.3800799e-48
1.3732766e-48
1.3060004e-48
1.5744221e-48
1.6397589e-48
1.3079208e-48
1.4499819e-48
1.4476527e-48
1.416463e-48
1.4360275e-48
1.3256148e-48
1.6550775e-48
1.683785e-48
1.3303786e-48
1.5064161e-48
1.5243318e-48
1.5109007e-48
1.5542736e-48
1.4042245e-48
1.4089163e-48
1.7956378e-48
1.7320071e-48
1.5528093e-48
1.568795e-48
1.5618184e-48
1.556469e-48
1.7965288e-48
1.4160575e-48
1.7956355e-48
1.4350547e-48
1.3549059e-48
1.2823618e-48
1.30291e-48
1.3741059e-48
1.3221575e-48
1.3350363e-48
1.2752413e-48
1.260003e-48
1.1863583e-48
1.3123103e-48
1.1777875e-48
1.382423e-48
1.289353e-48
1.1425194e-48
1.2882039e-48
1.1506084e-48
1.2891036e-48
1.3386507e-48
1.2684902e-48
1.369065e-48
1.2825681e-48
1.1376343e-48
1.1449763e-48
1.3418329e-48
1.3258826e-48
1.3861243e-48
1.3057192e-48
1.4135374e-48
1.3044987e-48
1.1521525e-48
1.3325475e-48
1.1452699e-48
1.4396501e-48
1.4477291e-48
1.4580204e-48
1.4785257e-48
1.3524418e-48
1.6711607e-48
1.3584143e-48
1.7279155e-48
1.494753e-48
1.467701e-48
1.4823995e-48
1.4793988e-48
1.7014519e-48
1.3432881e-48
1.7136212e-48
1.3343803e-48
1.4722868e-48
1.4792982e-48
1.4583775e-48
1.5104078e-48
1.4697271e-48
1.4883662e-48
1.4686166e-48
1.4685345e-48
1.3576877e-48
1.3530275e-48
1.6758308e-48
1.7370306e-48
1.6879923e-48
1.6896662e-48
1.3513975e-48
1.3391565e-48
1.5765158e-48
1.6964761e-48
1.5562129e-48
1.7328685e-48
1.5273937e-48
1.2406746e-48
1.254346e-48
1.5833658e-48
1.6750076e-48
1.7706021e-48
1.6243396e-48
1.8454324e-48
1.5716963e-48
1.2745321e-48
1.6527054e-48
1.2950522e-48
2.0708364e-48
1.8749642e-48
1.890258e-48
2.0792475e-48
2.1623631e-48
1.9574558e-48
2.0122593e-48
2.219173e-48
1.8702502e-48
1.5303577e-48
1.5343188e-48
1.9049154e-48
1.9314832e-48
1.5786812e-48
1.606675e-48
2.0015621e-48
2.1250866e-48
1.9161884e-48
1.9346854e-48
2.1330254e-48
2.0346181e-48
2.0753235e-48
1.8829386e-48
1.8449093e-48
1.9093962e-48
1.5642579e-48
1.5693088e-48
1.9449949e-48
1.8263371e-48
1.8463588e-48
1.5166241e-48
1.4917947e-48
1.720221e-48
1.564838e-48
1.5790816e-48
1.756955e-48
1.6579415e-48
1.6858495e-48
1.5450396e-48
1.5079924e-48
1.2653012e-48
1.27482e-48
1.5499254e-48
1.580016e-48
1.4807879e-48
1.5061731e-48
1.2355688e-48
1.214165e-48
1.3952115e-48
1.4961594e-48
1.3613485e-48
1.5360357e-48
1.3222726e-48
1.0798333e-48
1.1018443e-48
1.387562e-48
1.7311264e-48
1.5730741e-48
1.6661896e-48
1.5137565e-48
1.4602674e-48
1.1782226e-48
1.5257244e-48
1.2130591e-48
2.234889e-48
2.0092217e-48
2.0437425e-48
2.2627323e-48
2.2684526e-48
2.0520302e-48
2.0785598e-48
2.2910886e-48
1.6477961e-48
1.9947987e-48
1.6333966e-48
2.0672386e-48
1.6498902e-48
2.0253077e-48
1.6525809e-48
2.0527907e-48
1.7109673e-48
1.8682461e-48
1.6801359e-48
1.9084293e-48
1.6502557e-48
1.3410151e-48
1.3621071e-48
1.7121273e-48
1.9378219e-48
2.0829384e-48
1.8632998e-48
2.1685421e-48
1.8250011e-48
1.4795015e-48
1.9099279e-48
1.5242438e-48
1.8014971e-48
1.6452772e-48
1.6566817e-48
1.8403129e-48
1.8506218e-48
1.699896e-48
1.8827651e-48
1.6957555e-48
1.3136815e-48
1.3278468e-48
1.6226918e-48
1.6570073e-48
1.6696808e-48
1.6627076e-48
1.3477974e-48
1.3446415e-48
2.2211056e-48
2.4559346e-48
2.1764419e-48
2.5200768e-48
2.1644316e-48
1.737163e-48
1.7589025e-48
2.2391445e-48
2.8577917e-48
2.5219787e-48
2.7596663e-48
2.4264507e-48
2.4028684e-48
1.9163861e-48
2.5110691e-48
1.9844853e-48
3.8564332e-48
3.3111012e-48
3.3725591e-48
3.9066948e-48
3.8661416e-48
3.8189913e-48
3.2918764e-48
3.3228011e-48
2.6097257e-48
3.2639974e-48
2.587581e-48
3.3528413e-48
3.2804523e-48
2.5843022e-48
3.2370982e-48
2.567628e-48
2.9198599e-48
3.2753819e-48
2.8098364e-48
3.4376756e-48
2.7725308e-48
2.1853287e-48
2.2252509e-48
2.8923681e-48
3.3025584e-48
3.7208322e-48
3.15633e-48
3.8703384e-48
3.1062445e-48
2.433995e-48
3.2513834e-48
2.4983234e-48
2.8831362e-48
2.5673548e-48
2.5881449e-48
2.9503584e-48
2.9079794e-48
2.5938132e-48
2.9385156e-48
2.6084491e-48
2.0933306e-48
2.1037817e-48
2.5969648e-48
2.6362815e-48
2.6282229e-48
2.6003963e-48
2.0977869e-48
2.1082412e-48
5.675998e-48
5.7748689e-48
4.633722e-48
4.7133747e-48
4.7148671e-48
3.5068627e-48
3.5567491e-48
4.6203381e-48
5.4223324e-48
5.4237668e-48
4.5496136e-48
4.5444091e-48
4.5196449e-48
4.5733605e-48
3.4236579e-48
3.448512e-48
4.0744636e-48
4.8427272e-48
3.9388212e-48
4.977343e-48
3.9260378e-48
2.9685657e-48
3.0615922e-48
4.0756756e-48
4.6426459e-48
5.5183701e-48
4.5024736e-48
5.6206364e-48
4.4633795e-48
3.3293199e-48
4.7209474e-48
3.431513e-48
8.1174847e-48
8.1804538e-48
5.3982463e-48
5.5186984e-48
6.3543747e-48
6.4560187e-48
9.4313264e-48
9.6775478e-48
4.273275e-48
1.3674012e-48
1.6598127e-48
1.5712788e-48
1.4662774e-48
4.9764992e-48
9.3074688e-48
9.4724175e-48
6.3451856e-48
6.4473208e-48
6.2376684e-48
6.2891174e-48
9.0590497e-48
9.1642113e-48
1.5363828e-48
1.6860617e-48
1.6935743e-48
1.4876137e-48
4.7151525e-48
5.0248663e-48
1.4148983e-48
1.4951137e-48
1.5633517e-48
1.4831788e-48
1.4956284e-48
1.5705231e-48
1.485637e-48
1.4563955e-48
8.9504142e-48
9.1378595e-48
6.0816533e-48
6.2001934e-48
5.8310445e-48
5.832607e-48
8.4334698e-48
8.4836196e-48
1.4284614e-48
1.5715855e-48
1.5578022e-48
1.3716324e-48
4.4786606e-48
4.8571399e-48
8.208745e-48
8.3544775e-48
5.5297027e-48
5.6754924e-48
6.0684896e-48
6.1459076e-48
8.8620616e-48
9.0613167e-48
1.3500656e-48
1.5149686e-48
1.5771088e-48
1.3987811e-48
4.7440416e-48
4.3541391e-48
4.9720326e-48
5.0847939e-48
4.1568805e-48
4.0764029e-48
4.1421888e-48
4.2650586e-48
3.1583033e-48
3.234412e-48
4.4369877e-48
5.3097381e-48
4.350443e-48
5.3643028e-48
3.3207852e-48
4.3653333e-48
4.5012223e-48
3.3818466e-48
1.3359057e-48
1.3900698e-48