/*--------------------------------*- C++ -*----------------------------------*\
  =========                 |
  \\      /  F ield         | OpenFOAM: The Open Source CFD Toolbox
   \\    /   O peration     | Website:  https://openfoam.org
    \\  /    A nd           | Version:  7
     \\/     M anipulation  |
\*---------------------------------------------------------------------------*/
FoamFile
{
    version     2.0;
    format      ascii;
    class       surfaceScalarField;
    location    "8000";
    object      phi;
}
// * * * * * * * * * * * * * * * * * * * * * * * * * * * * * * * * * * * * * //

dimensions      [0 3 -1 0 0 0 0];

internalField   nonuniform List<scalar> 
102259
(
9.8631329e+43
-3.5611294e+44
-3.494543e+44
-3.9038221e+44
-9.2288555e+43
-3.9169978e+44
-3.4206251e+44
-3.1307438e+44
-3.4362016e+44
-1.1800918e+44
-3.2018846e+44
9.9936026e+40
-6.8595724e+43
4.0681649e+43
-1.0542934e+43
-8.677722e+43
-6.916201e+43
-7.0592057e+43
-9.1224516e+43
-6.1014568e+43
3.5695163e+43
-7.0129561e+43
-6.7939412e+43
-8.4724726e+43
-8.7728008e+43
-1.8182653e+43
-3.2253796e+44
1.2650783e+43
1.2546366e+44
-3.456276e+44
-3.883486e+44
-3.6286468e+44
-3.9005266e+44
-3.1657531e+44
9.1492095e+42
1.0911662e+44
-7.8085921e+43
-8.8040885e+43
-1.6369897e+45
-8.2304432e+43
-7.1110642e+43
7.8786068e+43
6.6026839e+43
9.776506e+43
1.7739952e+43
2.6390746e+43
3.0348611e+43
-3.955233e+44
-9.0133109e+42
-6.4606995e+42
3.0880682e+43
3.0399201e+43
-4.0011748e+44
1.1055584e+43
-5.5706601e+42
-7.840435e+42
2.0081094e+43
5.1137274e+42
-7.1754927e+43
-7.8992259e+43
-7.8235691e+43
-7.097536e+43
-2.8480406e+42
-6.5648741e+43
-5.7307944e+43
-6.7009595e+43
-5.5269801e+43
1.8903867e+43
-4.4925785e+42
-7.0491074e+43
-7.775579e+43
-8.1285325e+43
-7.279975e+43
-3.3412807e+44
-3.4408307e+44
-3.2625924e+44
-3.0695755e+44
-1.6693704e+43
-6.579998e+43
-5.6708078e+43
-6.7206719e+43
-5.7042493e+43
-6.7975922e+43
-1.7253804e+43
3.9854321e+43
-6.7504165e+43
-6.9988186e+43
-8.830242e+43
-8.5000397e+43
1.4760579e+43
-1.7424446e+42
-7.1504607e+43
2.5899436e+42
1.1702955e+42
9.8487661e+42
-8.9127229e+41
-1.3695946e+43
-1.4046519e+43
-1.7903083e+43
-1.8883665e+43
-1.3877691e+43
-3.0562497e+41
9.3503389e+42
-1.8733691e+43
-1.4056493e+43
-1.3687706e+43
-1.8110865e+43
-4.1373079e+42
-7.2308128e+43
-1.4311454e+42
-1.3870808e+43
9.5935225e+42
-1.3754711e+43
-1.8035812e+43
-1.4074964e+43
-1.8861242e+43
-1.2834586e+43
8.6181761e+42
-1.3861457e+43
-1.818412e+43
-1.3550306e+43
-1.754322e+43
4.2691305e+42
-6.9241007e+43
-7.1118379e+43
2.4695032e+42
-3.1825662e+44
-7.2466074e+43
4.4112209e+43
-8.6481247e+43
-6.9756156e+43
-6.9577281e+43
-8.9404963e+43
-3.1796238e+44
-8.5896109e+43
-8.2437409e+43
1.042126e+44
1.013566e+44
-1.641935e+45
-7.4956401e+43
-8.0092308e+43
7.0113166e+43
7.567196e+43
-3.0269758e+44
-1.73463e+43
1.348968e+43
2.4682577e+43
2.3134568e+43
-1.7503414e+43
-1.4760357e+43
-1.6103773e+43
1.5836362e+43
1.9095175e+43
-1.8033533e+43
-2.0695373e+43
1.7464933e+43
-3.7834729e+44
3.0073703e+44
1.9067946e+43
-1.8642208e+43
-2.0342025e+43
1.646106e+43
-3.7615851e+44
1.6541994e+43
8.4697967e+43
7.4577595e+43
-7.7424996e+43
-8.5306212e+43
-6.1535381e+43
7.3905975e+43
8.5007829e+43
-7.183101e+43
1.9068067e+43
2.6060077e+44
-3.2698162e+44
2.5572218e+44
1.9107506e+43
-3.2377362e+44
-2.1663808e+43
1.929254e+43
2.4399468e+43
-1.5205152e+43
-1.7445238e+43
2.1077993e+43
3.4378998e+42
6.357718e+42
5.6784018e+42
-8.5566293e+43
-1.5932247e+42
-1.1968777e+42
3.409154e+42
6.4762058e+42
6.3328266e+42
-8.7816735e+43
-1.0299283e+42
-1.5126871e+42
-2.6660251e+42
2.9965337e+43
3.0805661e+43
-3.9661473e+44
-7.100078e+42
-6.4103489e+42
3.0085859e+43
2.8130372e+43
-3.9721198e+44
-7.1387258e+42
-7.644164e+42
-2.00914e+42
6.5194617e+42
6.6185072e+42
-8.7953358e+43
2.0651881e+42
-1.3406563e+42
-9.7525813e+41
6.6013311e+42
6.0920811e+42
-8.8748651e+43
-1.4770245e+42
-1.2162832e+42
-1.149364e+43
-3.4070376e+42
1.2315114e+43
2.8076484e+42
-7.197699e+43
-5.401204e+42
5.6511115e+42
-2.7386593e+43
-6.3349207e+43
1.0690219e+43
-2.4208976e+43
-6.2567684e+43
1.1658927e+43
-7.0975179e+43
2.0397137e+42
3.8628048e+42
-1.584855e+43
-1.3018372e+43
-1.2849574e+43
-1.5490076e+43
-3.7584122e+42
-1.0585003e+42
-1.2975222e+41
-1.1123625e+43
-1.1493466e+43
-9.9671694e+42
-1.0183482e+43
1.1988618e+42
-1.6119416e+43
-1.5470915e+43
-1.3270386e+43
-1.2751316e+43
-1.1276621e+43
-9.7656163e+42
-1.0023689e+43
-8.5576783e+42
1.824247e+43
-7.2120173e+43
-8.0016156e+43
-7.816562e+43
-7.0016925e+43
-1.153802e+43
-8.8919585e+41
1.2304235e+43
1.3103341e+42
-7.1678414e+43
-2.9249874e+42
-2.6818262e+43
4.0658191e+42
-6.3616366e+43
1.1185378e+43
-2.5527488e+43
-6.4217081e+43
1.2067892e+43
-7.1763805e+43
1.6172398e+43
-8.0302611e+43
-7.7763715e+43
-7.0547848e+43
-7.1710261e+43
2.1070173e+43
-6.5887913e+43
-6.5979924e+43
-5.783509e+43
-5.6797423e+43
-6.7304805e+43
-6.4366264e+43
-5.8115476e+43
-5.4697746e+43
3.6172625e+42
4.0169516e+41
-2.7100282e+41
-1.6007231e+43
-1.5380849e+43
-1.2693034e+43
-1.3162575e+43
1.4241838e+42
-1.8349591e+42
-1.1112882e+43
-1.142842e+43
-1.0057923e+43
-1.0232042e+43
3.7447485e+42
-1.5539515e+43
-1.5828533e+43
-1.2862219e+43
-1.3052748e+43
-1.1410213e+43
-1.1123152e+43
-1.0266778e+43
-9.8528287e+42
-4.4423757e+41
-1.3672369e+43
9.0955538e+42
-1.3925859e+43
-1.3439087e+43
-1.7586014e+43
-1.8423435e+43
-1.3754763e+43
-2.2837176e+42
9.1487976e+42
-1.3534127e+43
-1.3804575e+43
-1.7733615e+43
-1.8470438e+43
-1.9388336e+42
8.8896745e+41
-7.0921465e+43
-6.9891284e+43
2.4700227e+41
-3.1802072e+42
2.5690748e+42
-8.5792235e+40
-2.7751908e+42
-2.8498004e+42
-3.9136071e+42
-3.7074229e+42
-3.0785234e+42
6.442028e+40
2.5135785e+42
-2.8594558e+42
-2.7688223e+42
-3.7659664e+42
-3.9047452e+42
-1.8049717e+41
-1.4812827e+43
4.2949609e+41
-4.5837827e+41
-1.5065799e+43
3.0301664e+42
-5.0803966e+41
-1.5112864e+43
-1.3928571e+41
2.4983957e+42
-2.786225e+42
-2.8461918e+42
-3.9279204e+42
-3.7606775e+42
-2.9304244e+42
-6.1624053e+40
2.3571211e+42
-2.8461107e+42
-2.7552242e+42
-3.8801064e+42
-3.7106198e+42
-6.6524831e+41
-1.4791997e+43
-3.0798897e+42
5.5334728e+40
2.5116431e+42
-3.7274196e+42
-2.7739197e+42
-2.8609746e+42
-3.9411052e+42
-4.2241483e+41
-1.4882328e+43
-2.9252685e+42
-2.1805216e+41
2.3922047e+42
-2.8379439e+42
-2.771607e+42
-3.7639078e+42
-3.8950495e+42
-8.4623792e+41
-1.5029859e+43
-2.8845386e+42
-3.7006586e+41
2.4142413e+42
-2.7658369e+42
-2.8599724e+42
-3.7162459e+42
-3.8970875e+42
-7.9467817e+41
-1.47625e+43
-2.7926546e+42
2.273344e+42
-3.8237823e+42
-2.8164494e+42
-2.7586013e+42
-3.6763545e+42
-1.4453509e+43
1.4646631e+43
6.4280951e+41
-7.02592e+43
3.3849706e+42
9.9681364e+42
-1.3746508e+43
-1.8541553e+43
-1.7943128e+43
-1.3663466e+43
-1.4164685e+43
9.6302131e+42
-1.3998346e+43
-1.3448413e+43
-1.786456e+43
-1.8630245e+43
-7.1232211e+43
7.6404931e+42
3.005222e+44
1.6957601e+43
-2.0141454e+43
-1.953909e+43
1.819622e+43
-3.7369569e+44
3.0160459e+44
1.8649098e+43
-1.8506743e+43
-2.0373774e+43
-3.7821462e+44
1.7766672e+43
-5.2012535e+42
2.337216e+43
2.321555e+43
-1.6831774e+43
-1.5379546e+43
-1.6389227e+43
2.3588522e+43
-1.6399862e+43
2.2155806e+43
7.7062849e+43
8.2519255e+43
-8.2416863e+43
-6.5366554e+43
8.2034324e+43
7.5468898e+43
-7.1481784e+43
-9.5328417e+42
2.5662756e+44
-3.2435283e+44
2.6043533e+44
-3.2684835e+44
9.2869124e+42
-2.3203886e+42
-6.8600254e+43
2.4431426e+42
-3.0733589e+42
-2.6728725e+42
5.5511458e+42
5.4018074e+42
-6.8794937e+43
-3.8885543e+42
-3.1242228e+42
-2.8460711e+42
5.6007424e+42
5.118579e+42
2.0242554e+42
-8.5539367e+43
-3.2195312e+42
4.3123862e+42
-3.8079194e+42
-3.9776543e+42
3.9094861e+42
-8.440096e+43
1.8614385e+42
4.4228092e+42
-3.9329103e+42
-3.5136102e+42
4.2268865e+42
-6.4370201e+43
-2.4088553e+42
2.6112214e+42
3.6412285e+42
-4.326496e+42
-3.9368205e+42
3.4841386e+42
-2.5202921e+42
2.7854064e+42
3.263693e+42
3.4204623e+42
-4.0888073e+42
-4.4538598e+42
-8.0810329e+43
6.546337e+43
-3.1881468e+42
-4.4372869e+42
-4.3071596e+42
3.4550175e+42
-8.3301416e+43
3.0999625e+42
-3.2387854e+42
-4.371806e+42
-4.2019103e+42
3.5888122e+42
3.2037731e+42
-1.6165871e+43
-2.8399228e+44
1.7544567e+43
1.6402218e+43
1.567674e+43
-2.2779199e+43
-2.0335479e+43
-6.4788391e+43
-3.0283386e+42
8.5173519e+43
3.6293214e+42
-4.4867399e+42
-4.0158511e+42
3.3456549e+42
-2.9497793e+42
-4.5689224e+42
-4.1454714e+42
3.1388724e+42
3.4012947e+42
-8.1494733e+43
6.4098126e+43
-4.2262389e+42
3.4888987e+42
8.3519419e+43
3.6351944e+42
-4.0946957e+42
3.1319486e+42
-2.8101933e+44
1.6836756e+43
-2.0401338e+43
-1.7561664e+43
1.8227048e+43
-3.5547283e+44
-1.7042047e+43
1.6160765e+43
1.4419136e+43
-2.0147626e+43
-1.6306525e+43
1.5635255e+43
2.4478085e+44
-1.7257703e+43
1.5975431e+43
1.8590762e+43
-2.4633549e+44
1.8826868e+43
-6.8473247e+43
-3.6004877e+42
5.4843678e+42
5.1977888e+42
-2.7101592e+42
-3.2040736e+42
-2.6671624e+42
4.391654e+42
4.0656677e+42
-3.502019e+42
-4.0125457e+42
6.7146793e+43
-3.9394047e+42
-3.6908918e+42
4.3201758e+42
3.7967645e+42
-3.1732873e+42
-2.8207704e+42
5.436366e+42
4.8142822e+42
6.3395051e+41
1.3799896e+42
1.2420164e+42
-1.7870665e+43
-2.7817698e+41
-2.08731e+41
7.483194e+41
1.3514562e+42
1.3346066e+42
-1.8274668e+43
-1.9683835e+41
-2.8829953e+41
-5.2275032e+41
6.1085487e+41
1.373405e+42
1.3907916e+42
-1.8318843e+43
-1.8061269e+41
-2.6509928e+41
1.2914145e+42
1.4083833e+42
-1.8515477e+43
-2.1956564e+41
-2.8173139e+41
-2.448264e+41
-5.9466348e+41
6.1995126e+42
6.4849413e+42
-8.761467e+43
-1.2787295e+42
-1.2838615e+42
6.5667178e+42
6.3782621e+42
-8.6383226e+43
-1.0496754e+42
-1.1893524e+42
-1.010638e+42
6.2126819e+42
6.338399e+42
-8.759279e+43
-1.2036971e+42
-1.3988107e+42
5.9743983e+42
6.4639092e+42
-8.6359202e+43
-1.34087e+42
-1.219133e+42
3.3542162e+41
-4.6372403e+41
1.3293679e+42
1.4230873e+42
-1.8573716e+43
-2.0716851e+41
-2.4972197e+41
1.4221809e+42
1.3835023e+42
-1.8311553e+43
4.3698363e+41
-1.59684e+41
-2.2409189e+41
3.8146732e+41
1.400678e+42
1.2791734e+42
-1.8235674e+43
-2.6678639e+41
-2.1702344e+41
1.3762886e+42
1.3721343e+42
-1.8682091e+43
-2.0259648e+41
-2.7513857e+41
-2.041984e+43
-5.8939955e+42
-8.3646175e+42
1.2540161e+43
-3.5177013e+44
-5.3534393e+42
-8.4494193e+42
-1.0966015e+43
-2.8631075e+42
5.8411513e+42
6.0032146e+42
2.2220574e+42
-7.1650509e+43
-4.5328411e+41
-1.1048288e+41
-4.7926013e+42
5.0601191e+42
1.0104575e+43
6.0622193e+42
5.513595e+42
-5.5800278e+41
-1.2516961e+41
2.983249e+42
-8.0655416e+41
8.7428412e+41
-1.2837306e+43
-6.022059e+41
5.7618815e+41
2.7345277e+42
-1.2743628e+43
-2.84974e+42
-1.2633542e+43
-1.1157538e+41
2.7907351e+41
-2.7612106e+42
2.3551142e+41
-2.4206849e+42
-2.5332708e+42
-1.8697978e+42
-1.9416667e+42
3.1530468e+41
-2.7406659e+42
-3.9117274e+41
-2.4977232e+42
-2.4657477e+42
-1.9269553e+42
-1.8980772e+42
1.6828267e+40
6.5008428e+40
-1.7492535e+42
-1.8096564e+42
-1.8809952e+42
-1.8183819e+42
-2.2353107e+41
-1.8627376e+42
-1.8152361e+42
-1.7972374e+42
-1.7604e+42
4.5115976e+41
2.9528216e+42
-1.280796e+43
3.0083495e+42
7.4664859e+41
-1.2771537e+43
2.564435e+41
-1.2738484e+43
4.5015219e+41
-1.2697885e+43
2.872805e+41
-2.4274681e+42
-2.5314293e+42
-1.8658453e+42
-1.9435076e+42
3.3807368e+41
-1.7849326e+42
-1.8332051e+42
-1.7346979e+42
-1.8047599e+42
-1.8043015e+42
-1.863864e+42
-1.1287235e+43
-1.290705e+42
3.6136412e+40
1.2232391e+43
-7.1810757e+43
-3.1810781e+42
2.5651206e+42
-2.6677644e+43
-6.4009791e+43
1.0795773e+43
-2.4719808e+43
-6.3356845e+43
1.1824686e+43
-7.1026207e+43
-1.0943319e+43
-1.5934916e+42
5.9163008e+42
5.9407766e+42
1.1968041e+42
-7.1669723e+43
-1.6419446e+41
-3.6155327e+41
-3.6535066e+42
3.927981e+42
-8.0728153e+43
1.0532944e+43
-8.1708026e+43
5.6627165e+42
6.040848e+42
-7.1688637e+43
-1.6548017e+41
-4.5173817e+41
9.6538009e+41
1.0967602e+43
-2.5423955e+43
-6.4246512e+43
1.0866819e+43
-2.561782e+43
-6.3380674e+43
1.1371059e+42
1.1655273e+43
-7.1007708e+43
1.1875514e+43
-7.144493e+43
2.4455267e+42
3.3220449e+42
-1.2628902e+43
-1.5259871e+43
-1.5727401e+43
-1.2892587e+43
3.4974185e+42
1.5304658e+42
-1.2983555e+43
-1.574767e+43
-1.5324775e+43
-1.263077e+43
4.5073528e+42
-1.1169166e+43
-1.1207606e+43
-1.020372e+43
-1.0109273e+43
3.7279744e+42
-1.1513397e+43
-1.1010975e+43
-1.0473313e+43
-9.8927323e+42
-7.9129153e+40
3.7466794e+42
-1.2763345e+43
-1.5455193e+43
-1.5921699e+43
-1.3069263e+43
3.6970724e+42
-1.2934153e+43
-1.5708772e+43
-1.5304985e+43
-1.2640873e+43
1.3512136e+42
-1.121439e+43
-1.1353951e+43
-1.0122365e+43
-1.0152535e+43
-1.0976414e+43
-1.0277155e+43
-1.1371066e+43
-9.7642312e+42
2.41371e+41
2.9858024e+42
-5.74311e+41
-1.2743788e+43
3.0124351e+42
-1.2726652e+43
5.155177e+41
-7.5784351e+40
2.7524321e+42
2.6364872e+41
-1.262089e+43
2.7553347e+42
-3.0747806e+41
-1.270041e+43
7.4925372e+40
2.3258287e+41
5.0179288e+40
-2.4139239e+42
-2.5117411e+42
-1.8676887e+42
-1.92478e+42
2.4392326e+41
-8.2822155e+40
-2.4946909e+42
-2.4491266e+42
-1.9293365e+42
-1.886104e+42
2.4876197e+41
-1.5116286e+41
-1.852782e+42
-1.9017143e+42
-1.7760147e+42
-1.8233522e+42
1.2823431e+41
-1.9097546e+42
-1.834221e+42
-1.8362165e+42
-1.7738192e+42
6.0610018e+41
2.9163213e+42
-1.265257e+43
2.9917156e+42
-1.274761e+43
4.0708741e+41
2.7258515e+42
-1.2628682e+43
2.7594372e+42
-1.2720859e+43
-2.2366414e+41
2.5636731e+41
-2.4283668e+42
-2.5220861e+42
-1.880291e+42
-1.9355564e+42
3.3523438e+41
-2.4895834e+42
-2.4382721e+42
-1.919053e+42
-1.8737786e+42
-9.1512258e+40
-1.7702906e+42
-1.8387101e+42
-1.8085683e+42
-1.8746985e+42
-1.7961529e+42
-1.7398428e+42
-1.8568065e+42
-1.7941746e+42
-1.1420727e+41
-2.9800728e+42
-9.3203471e+40
2.4611673e+42
-2.7690563e+42
-2.8237327e+42
-3.8795143e+42
-3.7272442e+42
-2.9501374e+42
2.3822051e+42
-2.8207876e+42
-3.8441048e+42
-2.7369724e+42
-3.6692899e+42
4.1978493e+41
-1.4552043e+43
3.4120646e+41
-1.4861022e+43
2.7697034e+41
-3.000821e+42
-2.4442406e+41
2.4575473e+42
-2.7238612e+42
-2.7943845e+42
-3.6588607e+42
-3.8462953e+42
-2.9636225e+42
2.4402372e+42
-3.8488464e+42
-2.8062509e+42
-2.7339118e+42
-3.7084156e+42
-9.2661141e+40
1.8942617e+41
-1.4618521e+43
-1.4847117e+43
4.9769773e+40
-6.9614316e+41
7.6000455e+41
-1.6392064e+40
-5.9350666e+41
-5.731726e+41
-8.3117855e+41
-8.7457142e+41
-6.8675716e+41
8.2887092e+39
7.6207817e+41
-5.7711699e+41
-5.904303e+41
-8.7395144e+41
-8.4214089e+41
2.7426674e+40
-7.2090698e+40
-3.133519e+42
-3.0730236e+42
8.0386695e+40
-3.0795149e+40
-6.7293943e+41
7.4663188e+41
-5.9609372e+41
-5.7651375e+41
-8.416947e+41
-8.7976159e+41
-6.6154171e+41
-1.2874038e+40
7.1914382e+41
-5.6936468e+41
-5.832822e+41
-8.6404343e+41
-8.2765447e+41
8.2929974e+40
-9.5249696e+40
-3.0858203e+42
-3.1437579e+42
1.7088138e+40
-6.7067245e+41
7.2637917e+41
-5.9382709e+41
-5.7053007e+41
-8.2989064e+41
-8.7764568e+41
-6.4874718e+41
-2.4752996e+40
7.0392327e+41
-5.7308195e+41
-5.833926e+41
-8.663368e+41
-8.367152e+41
5.1736388e+40
-1.1231953e+41
-3.1397956e+42
-3.1027288e+42
-4.534418e+40
-6.5034921e+41
7.0578333e+41
-8.3809108e+41
-5.7321522e+41
-5.9333285e+41
-8.7631424e+41
-6.3603437e+41
-8.4910558e+39
6.7988047e+41
-5.6884036e+41
-5.8130988e+41
-8.6064463e+41
-8.2512775e+41
-1.1035587e+41
-3.131741e+42
-1.1782509e+41
-3.0600113e+42
6.6906186e+41
-5.5610624e+40
-3.0852903e+42
2.4891e+40
7.238365e+41
-5.8931008e+41
-5.6997595e+41
-8.3000822e+41
-8.7278162e+41
-6.5312097e+41
-2.2588124e+40
7.1734832e+41
-5.7946585e+41
-5.8748711e+41
-8.6801248e+41
-8.4275678e+41
-1.1831899e+41
-3.1407261e+42
-5.5869781e+40
-6.5399697e+41
7.2351355e+41
-5.717734e+41
-8.3422928e+41
-5.9173093e+41
-8.7644477e+41
-6.3794824e+41
-4.6065141e+40
6.9058532e+41
-8.5925747e+41
-5.7984862e+41
-5.6961114e+41
-8.2533077e+41
1.1769869e+41
-1.4907865e+41
-3.0790613e+42
-3.1412834e+42
-1.1114008e+40
-6.5222619e+41
7.0736885e+41
-5.891209e+41
-5.665493e+41
-8.2685751e+41
-8.7340197e+41
-6.2879757e+41
-6.3300684e+40
6.8816646e+41
-8.6478708e+41
-5.8204506e+41
-5.7920947e+41
-8.4111194e+41
-9.0064317e+40
-3.0760299e+42
-1.6790208e+41
-3.1134404e+42
6.3669841e+41
-1.4746306e+41
-3.1009296e+42
-8.5065294e+40
7.0198417e+41
-5.8892636e+41
-5.6622448e+41
-8.3292747e+41
-8.7189177e+41
-6.2107637e+41
-5.7070498e+41
-5.7815796e+41
-8.5810184e+41
-8.2522407e+41
-3.0325277e+42
-3.0285376e+42
-5.546839e+41
4.3204896e+41
2.5391149e+42
-2.8243085e+42
-2.7246544e+42
-3.8701923e+42
-3.7152968e+42
-1.6263925e+41
2.7197156e+40
-1.4867932e+43
3.1446474e+42
-1.4776224e+43
2.5942358e+42
-2.7611972e+42
-2.7971366e+42
-3.7120786e+42
-3.8877244e+42
1.2100201e+41
-2.9952172e+42
2.5138056e+42
-3.7524879e+42
-2.7736696e+42
-2.8007915e+42
-3.8789403e+42
-3.0200487e+42
2.4925572e+42
-2.8122193e+42
-2.7043008e+42
-3.85799e+42
-3.6698345e+42
1.7720239e+41
-1.4672873e+43
-1.4936122e+43
-6.457291e+43
1.4254734e+42
8.4107242e+43
-4.2223719e+42
-4.1570855e+42
3.3254871e+42
3.6629904e+42
1.7970657e+42
3.1432155e+42
3.4606525e+42
-4.3003286e+42
-4.3501606e+42
-8.16794e+43
6.4823634e+43
1.5434522e+42
3.3195073e+42
-4.4926063e+42
-4.2294873e+42
3.2282429e+42
-8.1934771e+43
1.2475189e+42
8.4939822e+43
-4.4028563e+42
-4.1177896e+42
3.4228599e+42
3.3557687e+42
9.9356936e+42
-2.7696118e+44
1.4911922e+43
1.6238787e+43
-2.1038363e+43
-2.2175121e+43
-6.4292552e+43
-9.0073609e+41
8.4220864e+43
-4.1722993e+42
3.6217737e+42
-1.3757094e+42
3.3904662e+42
-4.3439536e+42
6.5157652e+43
-4.3655954e+42
3.3957361e+42
-8.3075737e+43
-4.448086e+42
3.1299986e+42
1.5998955e+43
-2.2511445e+43
8.4991421e+43
-4.2567441e+42
3.2801071e+42
-4.2452573e+42
3.5015791e+42
-2.620889e+41
-6.7861308e+43
5.4111133e+42
-2.907143e+42
5.4290733e+42
-6.8146732e+43
-1.2135313e+42
-2.9597069e+42
-2.9572437e+42
5.1985131e+42
5.4174908e+42
3.4020671e+41
-8.3506151e+41
4.1892834e+42
-3.8585277e+42
4.0085248e+42
-3.8315122e+42
-3.7917471e+42
4.2829162e+42
6.8170472e+43
-9.9122029e+41
-3.7186954e+42
-3.9752408e+42
4.0844258e+42
4.1457943e+42
-1.5222951e+42
-3.1018983e+42
-2.8751514e+42
5.2409536e+42
5.2110652e+42
6.7837606e+43
4.3229926e+42
-3.7722805e+42
-3.8105137e+42
3.9997965e+42
-3.0175032e+42
-2.8985197e+42
5.4361767e+42
5.0349042e+42
-1.6352663e+43
1.5425789e+43
1.3670962e+43
-1.8508684e+43
2.4481325e+44
-1.0524533e+43
-1.0485216e+43
-2.4688706e+44
2.8864242e+41
1.4375662e+43
-3.6169079e+41
-1.7958961e+43
-6.6597414e+41
-6.9079917e+41
1.0037437e+42
9.3601992e+41
1.4324903e+43
-1.7784914e+43
3.7806903e+41
-6.1580065e+41
1.0133497e+42
-6.8961145e+41
9.897754e+41
-3.565342e+41
5.0022949e+41
-4.4601859e+41
1.2001583e+42
-5.1626927e+41
1.1829312e+42
-4.7683354e+41
-4.8854988e+41
1.2079115e+42
-5.2438977e+41
1.1290817e+42
3.1177677e+41
1.4191427e+43
-1.7635036e+43
-5.4609042e+41
-6.6643243e+41
-6.9629986e+41
1.0005076e+42
9.1592633e+41
1.4454449e+43
-1.796103e+43
-6.4092948e+41
9.9745466e+41
-7.1242208e+41
9.6649404e+41
-3.9858088e+41
-4.8303184e+41
1.1797813e+42
-5.5240181e+41
1.1505017e+42
-6.1110641e+41
-4.8937082e+41
-5.2994102e+41
1.2012963e+42
1.1048743e+42
-1.3732266e+43
-3.7243865e+41
3.7938671e+41
-7.435613e+41
8.3092024e+41
-8.1330945e+41
8.026251e+41
-3.1629074e+41
3.3551716e+41
-1.7399598e+43
-7.7884414e+41
-8.4778011e+41
7.4909247e+41
7.1771963e+41
1.3523927e+43
-1.7071003e+43
-5.4667512e+41
-8.0188247e+41
-8.3153752e+41
7.5781441e+41
6.7541292e+41
-6.1650543e+41
-7.6013607e+41
-7.9484034e+41
8.4213085e+41
7.5529092e+41
-1.3636092e+43
-3.0098515e+41
4.0184187e+41
-7.1496231e+41
8.4867021e+41
-7.8702355e+41
8.2644679e+41
2.6539268e+41
1.3732489e+43
-1.7434261e+43
-8.0133921e+41
-8.2194582e+41
7.6215017e+41
7.0012305e+41
-1.714509e+43
3.2003297e+41
-7.4987592e+41
7.6774361e+41
-8.204819e+41
7.4336361e+41
-7.5945549e+41
-7.866335e+41
8.4714093e+41
7.7776349e+41
-1.3347956e+43
-2.593768e+41
3.403617e+41
-7.9504369e+41
7.2106659e+41
-8.6458757e+41
7.0167534e+41
2.1482068e+41
1.3509745e+43
-1.7333875e+43
-3.0603867e+41
-8.6229235e+41
-8.7973071e+41
6.9499074e+41
6.358858e+41
-1.7027076e+43
2.6791406e+41
-8.0749899e+41
6.962442e+41
-8.767373e+41
6.7719955e+41
-3.7217909e+41
-8.4290572e+41
-8.6498948e+41
7.2135502e+41
6.5896499e+41
2.0455462e+41
-1.3468877e+43
-3.2350394e+41
-8.9236482e+41
6.9026594e+41
-9.111154e+41
6.3085921e+41
-1.3325267e+43
2.9054332e+41
-8.3639139e+41
6.8902595e+41
-8.9834956e+41
6.7837981e+41
-1.5898438e+41
2.3298364e+41
6.2022351e+41
6.0593365e+41
-9.2472841e+41
-1.679536e+43
-9.9414174e+41
-2.4958928e+41
6.1340784e+41
5.5479103e+41
-1.701783e+43
-1.0013411e+42
-9.8115946e+41
-2.9919223e+42
-6.2286345e+43
3.6274916e+42
3.2613887e+42
3.0093018e+42
-4.1961657e+42
-4.8318546e+42
1.7855564e+41
1.3355889e+43
-3.0212372e+41
6.1766932e+41
5.4698975e+41
-1.6856876e+43
-1.0009031e+42
-9.7648743e+41
1.3552944e+43
6.1984702e+41
5.9503463e+41
-1.7186167e+43
-1.014043e+42
-9.4580864e+41
-2.4842138e+41
1.7382146e+43
-8.6248101e+41
6.7758523e+41
-9.2219122e+41
6.5781988e+41
-6.3814895e+43
-3.752606e+42
2.9418608e+42
3.3066759e+42
-4.5573687e+42
-4.7402606e+42
1.7086022e+43
-3.7959612e+41
-8.8934633e+41
6.8654204e+41
-9.0963229e+41
6.1344206e+41
2.3262541e+41
1.3321171e+43
-4.0341787e+41
-8.6013106e+41
6.8935581e+41
-8.8187531e+41
6.1648883e+41
1.3494795e+43
-8.3182793e+41
6.835184e+41
-8.9728177e+41
6.5761966e+41
-3.5352856e+41
-8.21424e+41
7.0166348e+41
-8.8873997e+41
6.7385862e+41
-5.3057966e+41
-8.4282035e+41
7.1517484e+41
-8.7465745e+41
6.3329703e+41
3.3621401e+42
-4.3101447e+42
-8.214563e+43
-4.9989912e+42
-4.6382895e+42
3.305694e+42
2.8311321e+42
-8.0218698e+43
4.8340523e+42
3.0676888e+42
-4.6481745e+42
-5.1318769e+42
2.8373273e+42
-1.3376246e+43
-4.0809207e+41
1.7142102e+43
-7.9171755e+41
7.2584163e+41
-8.8036573e+41
6.8722258e+41
3.416011e+41
1.3449326e+43
-1.730302e+43
-5.0687839e+41
-8.6189565e+41
-9.0117365e+41
6.879775e+41
6.073282e+41
-1.7114314e+43
-8.0647941e+41
6.9944555e+41
-8.9341261e+41
6.6084763e+41
-5.8597759e+41
1.7337254e+43
-8.3842238e+41
-8.8178138e+41
7.1920407e+41
6.3661453e+41
2.1658774e+41
1.3458189e+43
-3.7240585e+41
6.0956638e+41
5.330365e+41
-1.7012456e+43
-1.0209039e+42
-9.8053268e+41
1.3400164e+43
6.2756696e+41
5.9646155e+41
-1.6922972e+43
-1.0096887e+42
-9.2253825e+41
2.8944618e+41
-4.5574311e+41
-8.9264072e+41
6.8114202e+41
-9.2941027e+41
6.0124957e+41
-8.3607499e+41
6.8831289e+41
-9.1389147e+41
6.5864916e+41
-6.1719911e+43
2.8816342e+42
3.2123451e+42
-4.3168689e+42
-4.9591353e+42
1.3502062e+43
6.3650004e+41
5.9268594e+41
-1.0161572e+42
-9.2886836e+41
1.7322772e+43
-8.4526726e+41
6.9480141e+41
-9.2368781e+41
6.5270639e+41
-1.3449592e+43
-5.1618207e+41
1.7316538e+43
-8.0199321e+41
7.2180076e+41
-8.9161423e+41
6.7026304e+41
-8.1307284e+41
7.0316404e+41
-9.0038354e+41
6.5306888e+41
1.6916462e+43
-8.2589817e+41
7.2467036e+41
-8.7917937e+41
6.2449181e+41
-7.8806153e+43
3.1867925e+42
-4.637081e+42
-5.2326244e+42
2.684208e+42
1.540038e+43
1.7571174e+43
-1.4433252e+43
-1.764015e+43
6.1836537e+43
-4.6749384e+42
5.9049464e+42
-7.7607829e+43
-4.1373226e+42
3.4774512e+42
3.0806768e+42
-4.9215622e+42
-3.8264433e+42
5.762094e+42
-5.3096773e+42
-4.7354779e+42
3.0315913e+42
2.8565193e+42
-6.3018014e+43
-4.9259577e+42
3.4602662e+42
-4.8370787e+42
-5.1840811e+42
2.9519316e+42
-6.0807947e+42
-7.9149447e+43
3.5677606e+42
-4.3398843e+42
2.9926384e+42
-4.8308491e+42
5.9585109e+43
3.3575821e+42
-4.0386438e+42
2.9351481e+42
3.0005763e+42
-4.7995898e+42
-5.383389e+42
2.7083239e+42
-5.3540888e+41
-1.4264507e+43
-4.5407986e+41
1.1920511e+42
-5.4131882e+41
1.1576842e+42
-1.4338517e+43
-7.8773327e+41
-4.90019e+41
-5.4755557e+41
1.2061112e+42
1.104619e+42
-4.4962649e+41
-1.7713922e+43
-6.1953253e+41
1.0055963e+42
-7.0945634e+41
9.6618617e+41
-1.788392e+43
-6.4752604e+41
-6.6542979e+41
1.0037336e+42
-7.1134648e+41
9.1227422e+41
-4.7941369e+41
-1.3587236e+43
-7.1360291e+41
-8.0337505e+41
8.423884e+41
8.0246842e+41
-1.3670275e+43
-6.5750606e+41
-7.5788543e+41
-8.0843921e+41
8.4503986e+41
7.5140321e+41
-4.035223e+41
-7.4679061e+41
7.6692424e+41
-8.3417576e+41
7.2373703e+41
-5.4553453e+41
-7.9820163e+41
-8.3820561e+41
7.5881735e+41
6.7403765e+41
4.5399333e+41
1.341114e+43
-7.8431574e+41
-8.3001288e+41
7.6908501e+41
6.6815126e+41
1.3654477e+43
-7.5725312e+41
-8.4654773e+41
7.7016449e+41
7.1326609e+41
-5.5868818e+41
1.7797373e+43
-7.2494663e+41
-8.1703956e+41
8.3732108e+41
7.8312999e+41
1.7439415e+43
-7.4400469e+41
-8.003016e+41
8.4926875e+41
7.4018188e+41
5.058649e+41
1.4010871e+43
-6.491363e+41
1.0077512e+42
-7.0032532e+41
8.9931206e+41
1.4232356e+43
-6.2452801e+41
1.0018514e+42
-7.1837029e+41
9.4363413e+41
-6.6411045e+41
-4.6292917e+41
1.1727184e+42
-5.574896e+41
1.1181324e+42
-4.7472742e+41
1.1943461e+42
-5.4071223e+41
1.0733746e+42
1.1902285e+41
2.9550091e+41
2.6805398e+41
-3.6869445e+42
-6.2960336e+40
-7.4229373e+40
1.5201216e+41
2.8775619e+41
2.8554106e+41
-3.7755865e+42
-6.1202675e+40
-7.9157435e+40
-1.1341642e+41
1.4012442e+41
2.8580739e+41
2.8949058e+41
-3.7376001e+42
-5.9584108e+40
-7.7689415e+40
2.940463e+41
2.7347416e+41
-3.7836142e+42
-6.8033484e+40
-7.9016637e+40
-9.3701393e+40
1.1976177e+41
2.9142727e+41
2.9426062e+41
-3.746742e+42
-5.7343532e+40
-7.3565153e+40
-1.182331e+41
2.9651877e+41
2.7876172e+41
-3.8131833e+42
-6.7210608e+40
-7.6179789e+40
-9.8094442e+40
2.8705684e+41
2.9238042e+41
-3.8179397e+42
-6.360674e+40
-7.8878205e+40
2.9536015e+41
2.6902402e+41
-3.7414097e+42
-6.5706158e+40
-7.6030814e+40
-4.2303887e+40
-9.3632323e+39
1.3559631e+42
1.3783449e+42
-1.843713e+43
-2.1316527e+41
-2.4719812e+41
-1.6226929e+41
1.3955892e+42
1.3102929e+42
-1.8105835e+43
-2.1347507e+41
-2.2334161e+41
8.5024755e+39
1.366441e+42
1.4291654e+42
-1.8172654e+43
-1.780142e+41
-2.0688791e+41
1.3946391e+42
1.3396219e+42
-1.8357209e+43
-2.1864836e+41
-2.1654921e+41
-1.8321798e+41
1.3246268e+42
1.3713673e+42
-1.8059051e+43
-1.9832018e+41
-2.3989205e+41
-2.9546032e+41
1.3801652e+42
1.3036867e+42
-1.8350343e+43
-2.2399951e+41
-2.4319553e+41
2.5968348e+41
1.4026687e+42
1.2981455e+42
-1.7991294e+43
-1.9936865e+41
-2.2576443e+41
1.3710666e+42
1.3577708e+42
-1.840061e+43
-1.9553582e+41
-2.4862287e+41
-6.5977173e+40
7.7731256e+40
2.9401048e+41
2.9886101e+41
-3.8208949e+42
-6.1493374e+40
-7.3163291e+40
-9.5072998e+40
2.9946545e+41
2.7605294e+41
-3.7485137e+42
-6.3361274e+40
-7.0089369e+40
-6.7400572e+40
2.960434e+41
3.0325741e+41
-3.7348136e+42
8.7367797e+40
-5.2665887e+40
-6.4495687e+40
3.0616473e+41
2.8418996e+41
-3.8076079e+42
-6.2061638e+40
-6.7965185e+40
8.3325543e+40
2.9631166e+41
2.7164405e+41
-3.7212142e+42
-6.463875e+40
-7.2463854e+40
1.0092508e+41
2.9150796e+41
2.9352479e+41
-3.812225e+42
-7.6497276e+40
-6.267409e+40
-7.9931786e+40
2.8661246e+41
2.9736889e+41
-3.7695045e+42
-6.0772509e+40
-7.4170342e+40
2.9517678e+41
2.7424753e+41
-3.8184035e+42
-7.6255697e+40
-6.8705721e+40
6.2310234e+42
-6.7556875e+42
-8.280044e+42
-3.5137451e+44
-8.4385211e+42
-7.2726904e+42
-3.5203959e+44
2.4400587e+43
2.2409389e+43
1.5103835e+43
-3.5245206e+44
-1.1968071e+43
-1.4184889e+43
2.0911806e+42
5.9342756e+42
6.2802232e+42
-7.3065947e+43
-1.2403104e+42
-1.5816127e+42
4.4397233e+41
-6.3099987e+41
3.2280221e+42
-1.6302234e+43
3.3148315e+42
5.6021068e+41
-1.6313087e+43
5.7625081e+41
3.2755527e+42
-1.6292776e+43
2.926411e+41
1.2499133e+42
1.2169588e+42
-3.6242916e+42
-3.534756e+42
-2.6459664e+42
-2.6784233e+42
3.1466063e+41
2.7523917e+41
-7.1577387e+40
6.6744301e+41
-1.2485455e+42
1.255592e+41
-1.8935634e+42
6.5741841e+41
-1.2672342e+41
-1.2302459e+42
-1.9052966e+42
-1.6310728e+40
3.7528335e+41
6.0155607e+40
-3.2181261e+41
-4.693737e+41
-3.3669246e+41
-4.9360336e+41
-5.8173851e+40
3.7563216e+41
-4.8578312e+41
-4.7389651e+41
-3.3040059e+41
-3.2793653e+41
-1.185352e+41
6.6429297e+41
-1.2687202e+42
-1.9014837e+42
6.5539314e+41
-1.1968718e+42
-1.4578009e+41
-1.8970235e+42
-6.8254334e+40
3.7081966e+41
-3.2229245e+41
-4.7053972e+41
-3.3749993e+41
-4.9306899e+41
3.8769952e+41
-7.9393085e+40
-4.8684575e+41
-4.7358855e+41
-3.3040101e+41
-3.2840872e+41
-6.4506937e+39
-3.1658919e+41
3.9621687e+40
-2.2561543e+41
-3.0802689e+41
-3.2320515e+41
-2.3370383e+41
-3.0458658e+41
-4.4553596e+40
-3.149355e+41
-3.1466942e+41
-2.3129096e+41
-2.3043839e+41
-1.5805377e+40
-2.4367311e+40
-2.4009997e+41
-4.7379687e+41
-4.6688363e+41
-2.4727991e+41
1.1129568e+40
-4.6886352e+41
-2.3771046e+41
-2.5388916e+41
-4.7760612e+41
-5.0286202e+40
3.2141277e+41
-2.340591e+41
-2.5617493e+41
-4.8116987e+41
-4.6331373e+41
2.8383856e+41
-4.0182003e+40
-4.7538269e+41
-2.4263976e+41
-2.4376914e+41
-4.5680136e+41
-5.8761626e+40
-3.2383409e+41
-3.0762874e+41
-2.3648616e+41
-2.2284764e+41
-6.0131789e+40
-3.1491478e+41
-3.1437918e+41
-2.2647382e+41
-2.3172355e+41
1.8667043e+41
3.072735e+41
2.8099654e+41
-3.5451565e+42
-3.5910238e+42
-2.6519582e+42
-2.6702132e+42
2.2736862e+41
3.1627108e+41
2.8256457e+41
-3.6255264e+42
-3.5381528e+42
-2.6543812e+42
-2.6833167e+42
-9.1234024e+40
6.6368108e+41
-1.8957814e+42
6.5127592e+41
-1.8980265e+42
-4.1280947e+40
3.7916523e+41
-4.9350294e+41
-4.6830814e+41
-3.204762e+41
-3.3715384e+41
3.8122371e+41
-3.2906364e+41
-4.8391099e+41
-4.7329417e+41
-3.2836244e+41
-3.211625e+41
8.4205165e+40
-2.2889426e+41
-3.0705959e+41
-3.2376123e+41
-2.4075405e+41
6.6214191e+40
-4.6954716e+41
-2.4403131e+41
-2.5310137e+41
-4.7170165e+41
-2.9942355e+41
-3.3047375e+40
-3.2233734e+41
-3.0514216e+41
-2.2275827e+41
-2.3295505e+41
-1.9509312e+40
-4.6063792e+41
-2.3266879e+41
-2.5231604e+41
-4.718641e+41
-2.8676758e+41
-2.3013023e+41
-3.1331493e+41
-3.143454e+41
-2.2736141e+41
-2.4478504e+41
-2.4250756e+41
-4.704534e+41
-4.5801412e+41
-1.0555529e+43
-7.1881497e+41
-6.5649459e+38
5.8851287e+42
5.8750952e+42
-7.1648672e+43
-3.9551055e+41
-2.51794e+41
-2.6880724e+42
2.4431695e+42
-8.1076102e+43
1.0108356e+43
-8.0505333e+43
5.9329207e+42
5.6112418e+42
-7.1264586e+43
-2.7260543e+41
-4.4682999e+41
-7.6212786e+42
-1.9166057e+42
1.5828404e+42
5.9831209e+42
6.2714857e+42
-7.3230545e+43
-1.2244639e+42
-1.5142684e+42
-2.8886847e+41
3.3154339e+42
3.8338066e+41
-1.6300789e+43
-4.4700502e+41
3.2731137e+42
-1.6220316e+43
-4.3338166e+42
-6.4471083e+43
4.8560566e+42
7.5008304e+42
-6.5330263e+43
5.9160632e+42
6.2222621e+42
-7.3293791e+43
-1.285641e+42
-1.5721226e+42
-4.1443265e+41
3.2890885e+42
-1.6234749e+43
3.2334898e+42
-1.6192019e+43
1.8474557e+42
1.025719e+43
-8.234651e+43
1.0163756e+43
-8.0629458e+43
5.3759036e+41
5.723146e+42
5.8492342e+42
-7.1245968e+43
-3.4760316e+41
-3.4025774e+41
5.9069003e+42
5.6954493e+42