/*--------------------------------*- C++ -*----------------------------------*\
  =========                 |
  \\      /  F ield         | OpenFOAM: The Open Source CFD Toolbox
   \\    /   O peration     | Website:  https://openfoam.org
    \\  /    A nd           | Version:  7
     \\/     M anipulation  |
\*---------------------------------------------------------------------------*/
FoamFile
{
    version     2.0;
    format      ascii;
    class       volVectorField;
    location    "8000";
    object      UMean;
}
// * * * * * * * * * * * * * * * * * * * * * * * * * * * * * * * * * * * * * //

dimensions      [0 1 -1 0 0 0 0];

internalField   nonuniform List<vector> 
34377
(
(-1.1533607e+45 1.4902282e+43 9.9380711e+43)
(-1.0337872e+45 -1.5611616e+43 -2.0717813e+43)
(-1.0769558e+45 -1.0539748e+43 1.4393416e+44)
(-1.0648511e+45 2.3310528e+43 1.3829653e+44)
(-1.2197327e+45 2.1852106e+43 1.3361773e+44)
(-1.1154954e+45 1.6726251e+43 7.6386347e+43)
(-1.1995845e+45 1.0946359e+43 1.2490413e+44)
(-1.5112734e+45 1.9022654e+43 2.4325981e+43)
(-1.1507598e+45 1.0649667e+43 7.5752479e+43)
(-1.1606588e+45 2.5972978e+43 8.0576156e+43)
(-1.0325968e+45 2.4835084e+43 -1.3857431e+44)
(-8.4237124e+44 2.8396891e+43 -1.1736502e+43)
(-1.0335326e+45 -6.8704357e+42 -1.3967461e+44)
(-1.0422011e+45 -4.1859656e+42 -2.6107511e+43)
(-8.3843575e+44 -3.3840314e+43 -1.006545e+43)
(-1.0570815e+45 1.8904626e+43 1.355687e+44)
(-1.1278048e+45 2.3274179e+43 1.3300897e+44)
(-8.9150723e+44 1.9054583e+42 1.0796464e+44)
(-8.9177151e+44 8.1488303e+42 1.0464454e+44)
(-1.1304005e+45 1.2923558e+42 1.3111909e+44)
(-8.9526328e+44 3.70892e+42 1.0391051e+44)
(-8.8916239e+44 1.1075458e+43 1.0466221e+44)
(-1.1096286e+45 -1.5711829e+41 1.2546895e+44)
(-1.1204628e+45 2.4050497e+43 1.261276e+44)
(-1.1984323e+45 4.1775787e+42 1.1776184e+44)
(-1.0792109e+45 -1.7651455e+43 1.409003e+44)
(-1.2027404e+45 1.8582597e+43 1.2122246e+44)
(-1.5086381e+45 1.0820373e+43 2.3510977e+43)
(-1.2366635e+45 2.8109206e+43 4.7645311e+43)
(-1.1741057e+45 2.2603677e+43 -2.6799311e+43)
(-1.171165e+45 1.3774332e+43 -2.7640204e+43)
(-1.4764142e+45 2.01554e+43 -2.4801436e+43)
(-1.0028588e+45 2.473697e+43 -8.0434139e+42)
(-9.9046022e+44 1.7079996e+43 -1.0549322e+43)
(-9.7603199e+44 1.9142381e+43 -1.031819e+43)
(-9.9315174e+44 2.5720536e+43 -9.5973443e+42)
(-1.2287141e+45 7.7818361e+42 4.4402155e+43)
(-1.0465932e+45 3.1100369e+42 7.7129363e+43)
(-1.0519967e+45 2.447432e+43 7.5492144e+43)
(-1.1501352e+45 2.2446512e+43 7.5093537e+43)
(-1.1498966e+45 5.0102682e+42 7.1730566e+43)
(-1.059152e+45 2.2444975e+43 8.0845147e+43)
(-1.0572416e+45 2.6501484e+42 7.6614223e+43)
(-9.756685e+44 9.4089693e+42 -1.2555294e+44)
(-1.0135443e+45 2.1059917e+43 -1.1558994e+44)
(-1.0099002e+45 4.0031419e+42 -1.1369458e+44)
(-9.7303113e+44 1.1714339e+43 -1.2609945e+44)
(-7.8914164e+44 1.3921949e+43 -1.6376256e+44)
(-6.1860232e+44 -2.3201339e+43 3.9803514e+42)
(-7.9248139e+44 1.3466545e+42 -1.6322337e+44)
(-6.1167588e+44 1.9731482e+43 -7.5545121e+41)
(-1.0376482e+45 2.8382666e+43 -1.379434e+44)
(-9.7184351e+44 1.4037573e+43 -1.2818462e+44)
(-1.0143179e+45 2.6419504e+43 -1.1700084e+44)
(-1.0143057e+45 7.0819576e+42 -1.1621429e+44)
(-9.7019758e+44 1.5009952e+43 -1.2746148e+44)
(-1.0479773e+45 -7.9734634e+42 -1.3716739e+44)
(-8.4804984e+44 -4.1407168e+43 -6.6605451e+42)
(-8.3710883e+44 3.3805151e+43 -1.1929355e+43)
(-7.8778093e+44 6.4657227e+42 -1.6274212e+44)
(-6.0489313e+44 -1.9613838e+43 -7.9138388e+41)
(-7.8717301e+44 1.678058e+43 -1.6288093e+44)
(-6.1116235e+44 1.9150766e+43 1.1030861e+42)
(-8.8316864e+44 1.1413457e+43 1.0378439e+44)
(-8.8271051e+44 5.4765804e+42 9.7570225e+43)
(-1.1052972e+45 2.3325211e+43 1.162727e+44)
(-1.1048718e+45 -3.3280757e+42 1.2120562e+44)
(-7.4891121e+44 2.047926e+42 8.6897682e+43)
(-7.4457415e+44 4.4108616e+42 8.0967018e+43)
(-9.7453063e+44 1.8744422e+43 1.1467021e+44)
(-9.7569811e+44 2.072779e+42 1.1188682e+44)
(-9.781526e+44 1.2538182e+43 1.0912012e+44)
(-7.4530688e+44 2.8774448e+42 7.9245694e+43)
(-7.4550231e+44 4.8132457e+42 8.2548868e+43)
(-9.7604864e+44 -2.9962482e+42 1.1035307e+44)
(-7.5290872e+44 7.6475899e+41 8.6593977e+43)
(-9.8211182e+44 1.7326685e+43 1.1220594e+44)
(-7.4632676e+44 6.7667367e+42 8.0219059e+43)
(-9.8085683e+44 4.7737106e+42 1.0922926e+44)
(-7.4593133e+44 6.642762e+42 7.7649455e+43)
(-9.7200664e+44 1.6073373e+43 1.0711166e+44)
(-7.4920848e+44 6.937876e+42 8.4630591e+43)
(-9.6926723e+44 -1.5534239e+42 1.1048302e+44)
(-1.1160022e+45 2.2559063e+43 1.2618593e+44)
(-8.9621092e+44 -1.1496483e+42 1.0820315e+44)
(-8.8286035e+44 7.3868771e+42 9.9990874e+43)
(-1.1129641e+45 1.8690177e+42 1.2075592e+44)
(-1.1628993e+45 1.0602304e+43 -3.1440376e+43)
(-1.1735279e+45 1.8720439e+43 -2.6926306e+43)
(-1.2238422e+45 2.3835027e+43 4.3326889e+43)
(-1.2253086e+45 3.2688751e+42 4.0521157e+43)
(-1.472019e+45 1.4451324e+43 -2.3400595e+43)
(-9.9252873e+44 1.5812925e+43 -1.189676e+43)
(-1.0034963e+45 2.2976834e+43 -9.142229e+42)
(-9.9382823e+44 2.2573673e+43 -1.0977033e+43)
(-9.8379481e+44 1.8156929e+43 -1.295417e+43)
(-1.1212079e+45 2.3479005e+43 6.9430327e+43)
(-1.1186397e+45 4.3399849e+42 6.6263766e+43)
(-1.0705754e+45 7.9109368e+42 -1.3268118e+41)
(-1.071453e+45 1.7279306e+43 2.076203e+42)
(-1.0880295e+45 2.0130828e+43 -1.658361e+43)
(-1.0523569e+45 1.8100367e+43 -4.424249e+43)
(-1.0595435e+45 8.293294e+42 -4.4008465e+43)
(-1.0872831e+45 7.5079683e+42 -1.8716017e+43)
(-1.1957815e+45 2.7955988e+43 -1.9945501e+43)
(-1.0857566e+45 1.7364671e+43 -2.0229969e+43)
(-1.0510836e+45 1.4045245e+43 -4.9038155e+43)
(-1.0534696e+45 7.5732571e+42 -4.4731649e+43)
(-1.0845212e+45 4.9943592e+42 -1.6771954e+43)
(-1.1940634e+45 9.902804e+42 -2.0841182e+43)
(-1.0968234e+45 2.2007678e+43 -6.3393696e+43)
(-1.0848066e+45 1.7703289e+43 -6.4590553e+43)
(-9.9171888e+44 1.2127803e+43 -4.8411696e+42)
(-9.8689487e+44 2.14244e+43 -3.2575764e+43)
(-9.802726e+44 1.8333534e+43 -3.2920769e+43)
(-9.9843775e+44 2.5349105e+43 -2.4285726e+42)
(-1.1128436e+45 2.3106904e+43 6.3440442e+43)
(-1.068122e+45 1.8301707e+43 1.3619181e+41)
(-1.068003e+45 6.1079561e+42 2.9083231e+42)
(-1.1035638e+45 2.9620216e+42 6.3627202e+43)
(-9.1242489e+44 1.4520517e+42 7.2658164e+43)
(-9.1422817e+44 1.885426e+43 6.954799e+43)
(-9.1947017e+44 1.6970425e+43 7.095061e+43)
(-9.1845476e+44 4.1122795e+42 6.784013e+43)
(-1.0469695e+45 3.2271627e+42 7.3645289e+43)
(-1.0487233e+45 2.2719256e+43 7.7538755e+43)
(-1.0438694e+45 2.3076597e+43 7.0193769e+43)
(-1.0458775e+45 1.5602416e+42 7.5714773e+43)
(-9.1625387e+44 9.0311977e+41 7.123805e+43)
(-9.1669385e+44 1.7889691e+43 7.5104691e+43)
(-9.166415e+44 1.7718807e+41 6.9570179e+43)
(-9.205818e+44 1.5060321e+43 6.9015059e+43)
(-1.1990818e+45 1.5035594e+43 -1.1547497e+44)
(-1.198236e+45 1.2271849e+43 -1.1469328e+44)
(-1.0396083e+45 1.2987829e+43 -1.4147829e+44)
(-9.9039393e+44 2.2338105e+43 -9.0710832e+43)
(-9.8536972e+44 4.0820258e+42 -8.8868113e+43)
(-1.0358511e+45 7.344589e+42 -1.4051501e+44)
(-8.3503402e+44 1.475679e+43 -1.461311e+44)
(-7.028376e+44 7.5583111e+42 -1.6906812e+44)
(-6.9881589e+44 5.5540186e+42 -1.6950787e+44)
(-8.2906576e+44 3.2093061e+42 -1.4404926e+44)
(-4.8597052e+44 1.8064495e+42 -1.5399635e+44)
(-4.8704804e+44 7.048052e+42 -1.5316333e+44)
(-4.308597e+44 -1.574324e+43 3.4395691e+43)
(-4.3464986e+44 1.2583755e+43 3.759659e+43)
(-8.3163959e+44 5.2548485e+42 -1.4410526e+44)
(-8.3134882e+44 1.7380884e+43 -1.4483541e+44)
(-7.0200819e+44 6.0008113e+42 -1.6874664e+44)
(-7.0284678e+44 8.0780773e+42 -1.7016645e+44)
(-4.8559607e+44 1.8553412e+42 -1.54106e+44)
(-4.2741143e+44 1.5531662e+43 3.163942e+43)
(-4.2976121e+44 -1.0830476e+43 3.3946573e+43)
(-9.7695561e+44 1.2868277e+43 -1.2375106e+44)
(-1.0239732e+45 2.3244072e+43 -1.1471118e+44)
(-1.0171203e+45 6.9070607e+42 -1.1311496e+44)
(-9.6747592e+44 1.674867e+43 -1.2552298e+44)
(-1.033446e+45 1.7720264e+43 -1.4297918e+44)
(-9.9207298e+44 2.7237987e+43 -9.2648774e+43)
(-9.9909274e+44 5.9758524e+42 -9.1801788e+43)
(-1.0327166e+45 9.2555985e+42 -1.4232285e+44)
(-1.0225498e+45 1.0582203e+43 -1.1208567e+44)
(-1.0218778e+45 2.8911516e+43 -1.1179931e+44)
(-9.7679445e+44 1.4608677e+43 -1.2278568e+44)
(-9.7375311e+44 1.7544437e+43 -1.2416643e+44)
(-7.9235475e+44 5.6418083e+42 -1.5764227e+44)
(-7.8921299e+44 1.9695168e+43 -1.5862352e+44)
(-6.0750438e+44 -2.3949649e+43 7.9240446e+41)
(-6.0344022e+44 1.8151962e+43 -1.4804232e+42)
(-7.9569656e+44 6.146115e+42 -1.6047853e+44)
(-7.8479885e+44 2.0778059e+43 -1.6039048e+44)
(-6.1228135e+44 -1.7971269e+43 6.0502534e+41)
(-5.98335e+44 2.6929134e+43 -3.072401e+42)
(-8.2840905e+44 8.9087396e+42 -1.452757e+44)
(-8.2846253e+44 2.1026251e+43 -1.4564895e+44)
(-7.0068576e+44 1.2291491e+43 -1.7009075e+44)
(-7.0048295e+44 9.3951335e+42 -1.6806133e+44)
(-4.8271339e+44 6.6490111e+42 -1.5352193e+44)
(-4.8430507e+44 9.5981227e+42 -1.5190223e+44)
(-4.238606e+44 -1.3179002e+43 3.3669759e+43)
(-4.2887383e+44 1.1973758e+43 3.7050804e+43)
(-8.2549833e+44 5.287888e+42 -1.4490095e+44)
(-8.2776437e+44 1.7508489e+43 -1.4494835e+44)
(-6.9918104e+44 6.3182945e+42 -1.7029786e+44)
(-7.0051017e+44 9.4983325e+42 -1.6847072e+44)
(-4.8489805e+44 2.6020633e+42 -1.5290605e+44)
(-4.8202297e+44 6.9847313e+42 -1.545523e+44)
(-4.3064751e+44 -1.433548e+43 3.5350536e+43)
(-4.2507386e+44 1.3362912e+43 3.1705206e+43)
(-7.5233438e+44 8.7602441e+42 8.2306643e+43)
(-7.4504784e+44 9.4902881e+42 8.3344665e+43)
(-9.6536388e+44 -3.6118803e+41 1.0878282e+44)
(-9.7098461e+44 1.6982674e+43 1.0761969e+44)
(-7.4321012e+44 3.502353e+42 7.9190914e+43)
(-7.4003252e+44 8.5346902e+42 7.5521268e+43)
(-9.6536437e+44 1.963154e+43 1.0237255e+44)
(-9.6577687e+44 5.3862831e+42 1.0058076e+44)
(-6.5398633e+44 -1.6153097e+42 8.4832946e+43)
(-6.5302036e+44 3.9954438e+41 8.1769015e+43)
(-8.3563123e+44 2.0894378e+42 1.0639565e+44)
(-8.3436323e+44 1.2762623e+43 1.0744751e+44)
(-6.5384656e+44 -9.4788264e+41 8.1133866e+43)
(-6.4688519e+44 4.5970329e+42 8.0362595e+43)
(-8.325792e+44 -9.2394605e+41 1.0322224e+44)
(-8.363304e+44 7.2864408e+42 1.030957e+44)
(-6.5173948e+44 -9.4191259e+41 8.1268401e+43)
(-6.4760984e+44 3.1651817e+42 7.6905516e+43)
(-8.3599049e+44 1.8301243e+42 1.0068483e+44)
(-8.3605667e+44 1.0824416e+43 1.0240801e+44)
(-6.5272869e+44 1.3415028e+42 7.99495e+43)
(-6.4775117e+44 2.9031261e+42 8.0894312e+43)
(-8.3695396e+44 7.0380567e+42 1.0265793e+44)
(-8.3273156e+44 -2.7631727e+42 1.0316209e+44)
(-8.3763524e+44 1.0863213e+43 1.0554051e+44)
(-6.5497866e+44 -2.1170797e+42 8.4878319e+43)
(-6.544773e+44 2.1475388e+42 8.1745821e+43)
(-8.3897341e+44 2.5546219e+42 1.0425538e+44)
(-6.5069354e+44 1.1389943e+42 7.9145535e+43)
(-6.4677692e+44 6.8771225e+42 7.9868617e+43)
(-8.3459141e+44 1.5443462e+42 1.0189489e+44)
(-8.3796413e+44 9.2452092e+42 1.0140836e+44)
(-6.5486723e+44 1.9975666e+42 8.1912031e+43)
(-6.540927e+44 5.5808381e+42 7.8957303e+43)
(-8.3751512e+44 1.365904e+43 1.0261053e+44)
(-8.3802544e+44 4.5979346e+42 1.0099394e+44)
(-8.3665552e+44 9.5082322e+42 1.0408076e+44)
(-6.5360002e+44 4.5883861e+42 8.0341104e+43)
(-6.5320196e+44 5.5864986e+42 8.3214107e+43)
(-8.3372025e+44 -1.0230017e+42 1.0539132e+44)
(-7.4496759e+44 3.7366783e+42 7.8430885e+43)
(-9.7194663e+44 3.2112037e+42 1.0623236e+44)
(-9.7946421e+44 1.7879006e+43 1.1600322e+44)
(-7.5718843e+44 4.7381074e+41 9.0163177e+43)
(-7.5186881e+44 3.2673384e+42 8.0994425e+43)
(-7.4349941e+44 6.4295166e+42 8.1662835e+43)
(-9.7041764e+44 -2.5888379e+40 1.0638566e+44)
(-9.7514418e+44 1.5113487e+43 1.0546819e+44)
(-1.0854827e+45 6.8225322e+42 -1.8790582e+43)
(-1.0549942e+45 1.0817863e+43 -4.6132438e+43)
(-1.0491855e+45 1.1693832e+43 -5.2725051e+43)
(-1.0781058e+45 1.4495011e+43 -2.5503407e+43)
(-1.1819421e+45 7.6377795e+42 -2.6908259e+43)
(-1.0861299e+45 1.7714158e+43 -1.4923567e+43)
(-1.0487913e+45 1.464572e+43 -4.474509e+43)
(-1.0535544e+45 8.5956343e+42 -4.4822179e+43)
(-1.1910311e+45 2.4862181e+43 -2.0093339e+43)
(-1.0811833e+45 6.6656342e+42 -1.9155909e+43)
(-1.1083691e+45 2.2510264e+43 6.570598e+43)
(-1.1051329e+45 3.5631497e+42 6.1898721e+43)
(-1.0643456e+45 6.5009117e+42 3.8340035e+41)
(-1.067767e+45 1.7267156e+43 4.0027118e+42)
(-1.0636625e+45 1.5079888e+43 -4.8312363e+42)
(-1.101289e+45 2.029e+43 5.6576242e+43)
(-1.0674043e+45 6.5729316e+42 1.6315353e+42)
(-1.1047645e+45 1.9545441e+42 6.2328511e+43)
(-1.0621391e+45 1.2186266e+43 -6.6631997e+43)
(-9.9306522e+44 1.0701606e+43 -5.043007e+42)
(-9.8117637e+44 1.6572622e+43 -3.4171283e+43)
(-9.8524355e+44 1.8974061e+43 -3.3223589e+43)
(-1.0018915e+45 2.1228124e+43 -1.8772627e+42)
(-9.2608007e+44 3.5641849e+42 2.8522857e+43)
(-9.3037019e+44 1.3998931e+43 3.2092262e+43)
(-9.742424e+44 1.9188718e+43 8.0386709e+43)
(-9.7265044e+44 1.7953601e+42 7.6800641e+43)
(-9.2701066e+44 4.3518132e+42 2.8398334e+43)
(-9.2853534e+44 1.2648806e+43 2.7198742e+43)
(-9.7798045e+44 1.4867694e+43 7.5474429e+43)
(-9.7297203e+44 3.0811498e+41 7.5830057e+43)
(-9.4362497e+44 1.2570782e+43 9.0104065e+42)
(-9.1108684e+44 1.0863666e+43 -1.8349897e+43)
(-9.0879904e+44 7.8179498e+42 -1.7659464e+43)
(-9.4110728e+44 4.7474598e+42 1.0011988e+43)
(-9.4591368e+44 1.5169729e+43 1.4011428e+43)
(-9.0825176e+44 8.4795497e+42 -1.8067581e+43)
(-9.091571e+44 1.1884984e+43 -1.5411591e+43)
(-9.4207426e+44 5.6890785e+42 1.0631718e+43)
(-9.2223131e+44 1.3150855e+43 -1.9294607e+43)
(-9.0543085e+44 1.1169717e+43 -3.6695646e+43)
(-9.0591774e+44 1.1038019e+43 -3.4102978e+43)
(-9.2183992e+44 9.4540754e+42 -2.1449537e+43)
(-9.2711133e+44 1.0842485e+43 -3.5211741e+43)
(-9.2680323e+44 1.2596466e+43 -3.2954487e+43)
(-9.1684192e+44 1.0857067e+43 -3.9810734e+43)
(-9.1570055e+44 1.1566037e+43 -4.2909256e+43)
(-1.0644169e+45 2.100902e+43 -4.5027772e+43)
(-9.1950662e+44 8.0977087e+42 -4.1460318e+43)
(-9.2216884e+44 8.5894483e+42 -4.1147762e+43)
(-9.3114151e+44 1.0079583e+43 -3.4322023e+43)
(-1.0812595e+45 6.5304702e+42 -4.3143613e+43)
(-9.2874757e+44 7.0537699e+42 -3.3908509e+43)
(-9.0903953e+44 8.1983998e+42 -3.4646509e+43)
(-9.1028454e+44 9.6641479e+42 -3.5181924e+43)
(-9.2251307e+44 1.1322586e+43 -2.2697218e+43)
(-9.1982177e+44 7.806833e+42 -2.2109245e+43)
(-1.0502201e+45 6.0316022e+42 -6.5866977e+43)
(-1.0472934e+45 2.1553554e+43 -6.4641399e+43)
(-9.2379367e+44 1.1567829e+43 -2.2034681e+43)
(-9.0677722e+44 1.0815347e+43 -3.9733611e+43)
(-9.1008352e+44 8.6162164e+42 -3.6843511e+43)
(-9.2113185e+44 9.5485487e+42 -2.4454049e+43)
(-9.17714e+44 1.0916973e+43 -4.7194886e+43)
(-9.2275095e+44 6.88362e+42 -4.3152207e+43)
(-9.2695681e+44 9.9810419e+42 -3.9070003e+43)
(-9.2995466e+44 9.2778618e+42 -3.6304523e+43)
(-1.0629748e+45 1.4281525e+43 -5.0958411e+43)
(-9.2410429e+44 8.8873151e+42 -4.0116927e+43)
(-9.3213145e+44 1.0530959e+43 -3.2819889e+43)
(-9.2396073e+44 1.2124785e+43 -2.0118299e+43)
(-9.1173527e+44 1.046803e+43 -3.3169114e+43)
(-9.2056997e+44 7.0999271e+42 -1.9463079e+43)
(-1.0297544e+45 1.4018802e+43 -7.4405468e+43)
(-1.1899776e+45 2.8775216e+43 -4.1581046e+43)
(-1.005895e+45 2.3597265e+43 -9.1047211e+43)
(-1.0833324e+45 2.5318294e+43 -5.8603731e+43)
(-1.0934254e+45 6.4337964e+42 -5.7165523e+43)
(-1.0073929e+45 1.1824526e+43 -9.2432678e+43)
(-9.5967416e+44 2.0041902e+43 -9.752117e+43)
(-1.0620916e+45 1.5794192e+43 -7.4165061e+43)
(-9.7633785e+44 1.8323088e+43 7.6366157e+43)
(-9.7628277e+44 4.6813314e+42 7.4417981e+43)
(-9.303911e+44 1.4406803e+43 2.8956311e+43)
(-9.2780676e+44 6.8538576e+42 2.6202162e+43)
(-9.4581167e+44 1.5203386e+43 1.1119164e+43)
(-9.4294072e+44 7.7315081e+42 8.2599979e+42)
(-9.0959956e+44 1.171845e+43 -1.7312029e+43)
(-9.0801797e+44 9.555565e+42 -2.0131732e+43)
(-9.0888741e+44 6.9013142e+42 -1.4124431e+43)
(-9.1205713e+44 1.2718613e+43 -1.4719923e+43)
(-9.4269806e+44 1.4776023e+43 1.248008e+43)
(-9.3968186e+44 3.9318169e+42 1.3765739e+43)
(-9.2795572e+44 3.9954166e+42 3.3455941e+43)
(-9.2929074e+44 1.6290626e+43 3.1732164e+43)
(-9.7053499e+44 1.7873626e+43 7.5836317e+43)
(-9.6642768e+44 1.1791664e+42 7.7507038e+43)
(-7.8296046e+44 4.9255978e+41 7.5220985e+43)
(-7.8518689e+44 1.2398377e+43 7.3212642e+43)
(-7.8531983e+44 1.3493607e+43 7.1651018e+43)
(-7.8606275e+44 3.5266317e+42 7.0000482e+43)
(-7.8567382e+44 1.1321106e+43 7.4033855e+43)
(-7.8678567e+44 9.9209959e+41 7.1709746e+43)
(-7.851769e+44 1.1268542e+43 6.8889388e+43)
(-7.8247876e+44 2.6464658e+42 6.9678336e+43)
(-9.1573796e+44 1.6280361e+43 6.6840692e+43)
(-9.1198704e+44 2.1969825e+42 6.8105331e+43)
(-9.1886561e+44 1.8293059e+43 7.5494056e+43)
(-9.1451338e+44 1.9099396e+42 6.881407e+43)
(-9.0742267e+44 1.824329e+43 6.4978795e+43)
(-9.0837762e+44 4.428596e+42 6.3768773e+43)
(-9.1041478e+44 2.3668182e+42 7.254114e+43)
(-9.1364865e+44 1.9619341e+43 7.0078968e+43)
(-7.82685e+44 9.2138661e+42 7.1148255e+43)
(-7.7983773e+44 -7.9496503e+40 7.1557121e+43)
(-7.8202578e+44 1.2022444e+43 7.6698816e+43)
(-7.831588e+44 -4.0810011e+41 7.4556618e+43)
(-7.815805e+44 -4.1551846e+41 7.2620101e+43)
(-7.8420694e+44 1.026457e+43 7.1301374e+43)
(-7.8326939e+44 1.0786023e+43 7.0926048e+43)
(-7.8373308e+44 8.6743245e+41 6.8728288e+43)
(-1.200987e+45 1.1273496e+43 -1.1281973e+44)
(-1.2022587e+45 1.6303197e+43 -1.1076133e+44)
(-1.2216105e+45 1.7716756e+43 -6.8342288e+43)
(-1.0623721e+45 1.2471416e+43 -1.1658794e+44)
(-8.3491703e+44 2.180106e+42 -1.4741741e+44)
(-8.3752817e+44 1.7782798e+43 -1.4866137e+44)
(-8.3208313e+44 2.078639e+42 -1.474132e+44)
(-8.3821703e+44 1.6239914e+43 -1.4822263e+44)
(-7.3227031e+44 7.606405e+42 -1.7867659e+44)
(-5.0654251e+44 8.5651209e+42 -1.541806e+44)
(-5.064186e+44 3.885001e+42 -1.5201339e+44)
(-3.6505817e+44 4.9937222e+42 -1.6906599e+44)
(-3.6338009e+44 1.8833334e+42 -1.6667676e+44)
(-5.0573515e+44 7.2596421e+42 -1.5206752e+44)
(-5.0511691e+44 3.2120513e+42 -1.5317648e+44)
(-3.6284606e+44 4.497174e+42 -1.665613e+44)
(-3.6166783e+44 2.5722389e+42 -1.692524e+44)
(-2.8797798e+44 -1.3511013e+41 -5.8166481e+43)
(-2.9233548e+44 3.5900137e+41 -5.1359692e+43)
(-4.2584946e+44 3.554885e+42 6.3994328e+43)
(-4.1952276e+44 -8.4440417e+42 6.151117e+43)
(-4.239773e+44 -4.4004841e+42 6.2779084e+43)
(-4.1579062e+44 1.0070812e+43 5.8952509e+43)
(-2.9113703e+44 1.274438e+42 -5.3545303e+43)
(-2.8563642e+44 3.6197953e+42 -6.0106756e+43)
(-7.3146153e+44 3.6830255e+42 -1.7900556e+44)
(-7.3287495e+44 7.6707854e+42 -1.7983471e+44)
(-5.0583451e+44 8.6663018e+42 -1.5350262e+44)
(-5.0474894e+44 4.2490804e+42 -1.5123465e+44)
(-3.6212438e+44 6.1305721e+42 -1.6919838e+44)
(-3.6110516e+44 3.3905061e+42 -1.6603328e+44)
(-2.9146307e+44 3.2485139e+42 -5.0053003e+43)
(-4.2403848e+44 3.546053e+41 6.3411966e+43)
(-2.8501274e+44 2.0141271e+42 -6.0216949e+43)
(-4.1922374e+44 -5.3267059e+42 5.9726653e+43)
(-2.9035327e+44 3.1973615e+42 -5.1451686e+43)
(-4.2204791e+44 8.8060978e+42 6.1885891e+43)
(-1.0380081e+45 1.6370323e+43 -1.3901815e+44)
(-1.0012776e+45 2.4466014e+43 -8.8323686e+43)
(-9.9468444e+44 7.0258503e+42 -8.7735982e+43)
(-1.0296705e+45 1.1984497e+43 -1.3891218e+44)
(-1.0566409e+45 1.7585609e+43 -1.1972363e+44)
(-8.357049e+44 2.1214467e+43 -1.4962785e+44)
(-8.3107402e+44 5.782302e+42 -1.4884318e+44)
(-1.0389343e+45 2.4219309e+43 -7.3141722e+43)
(-1.050201e+45 8.2526621e+42 -7.6041322e+43)
(-1.0573245e+45 9.3997639e+42 -1.176274e+44)
(-8.3312336e+44 1.8884385e+43 -1.4858756e+44)
(-8.2984787e+44 3.6219393e+42 -1.4869903e+44)
(-1.0121853e+45 9.1267099e+42 -8.7558559e+43)
(-9.9965547e+44 2.9718632e+43 -8.7040316e+43)
(-1.0359929e+45 1.8715125e+43 -1.3705688e+44)
(-1.0352362e+45 1.231587e+43 -1.3896504e+44)
(-7.0094889e+44 1.2961502e+43 -1.6588304e+44)
(-8.332163e+44 2.2440977e+43 -1.4105824e+44)
(-8.3247911e+44 1.2027196e+43 -1.4076531e+44)
(-7.0024313e+44 1.2068925e+43 -1.6462942e+44)
(-7.0164029e+44 1.4034166e+43 -1.6569361e+44)
(-8.3170049e+44 2.1796974e+43 -1.4219758e+44)
(-8.288478e+44 9.4554604e+42 -1.4257259e+44)
(-6.9977101e+44 1.0950581e+43 -1.677435e+44)
(-4.8379287e+44 6.2136767e+42 -1.5024714e+44)
(-4.8254218e+44 1.2504866e+43 -1.4940645e+44)
(-4.2994569e+44 -1.4495651e+43 3.4277652e+43)
(-4.2229762e+44 1.2617616e+43 3.102569e+43)
(-4.8728541e+44 7.724289e+42 -1.5048984e+44)
(-4.8244905e+44 1.1448956e+43 -1.5230401e+44)
(-4.3089834e+44 -1.2430345e+43 3.5521022e+43)
(-4.2163508e+44 1.4643147e+43 3.1151077e+43)
(-7.0362428e+44 1.3062826e+43 -1.6728277e+44)
(-8.333285e+44 2.1690557e+43 -1.4284275e+44)
(-8.310603e+44 1.0790828e+43 -1.4215956e+44)
(-7.0012949e+44 1.2297718e+43 -1.6616027e+44)
(-6.976189e+44 1.35365e+43 -1.6594761e+44)
(-8.2588281e+44 2.0479455e+43 -1.4204286e+44)
(-8.2387634e+44 9.3466795e+42 -1.4284593e+44)
(-6.968668e+44 1.1675185e+43 -1.6845844e+44)
(-4.858602e+44 6.7881299e+42 -1.5236633e+44)
(-4.8423411e+44 1.4009768e+43 -1.5059171e+44)
(-4.2431053e+44 -1.2282602e+43 3.098801e+43)
(-4.2266397e+44 1.8879936e+43 3.1864427e+43)
(-4.8062048e+44 1.3236941e+43 -1.5302241e+44)
(-4.3084921e+44 -6.5319156e+42 3.6578329e+43)
(-4.8470165e+44 8.3327854e+42 -1.5011464e+44)
(-4.1930865e+44 2.0511871e+43 2.9774865e+43)
(-7.3031747e+44 1.2071836e+43 -1.7975849e+44)
(-7.3057333e+44 7.1753153e+42 -1.7896468e+44)
(-5.0540117e+44 1.2337248e+43 -1.5381203e+44)
(-5.0455128e+44 7.6007171e+42 -1.5169975e+44)
(-3.6286185e+44 9.5884062e+42 -1.689351e+44)
(-3.6134791e+44 5.9674826e+42 -1.6615764e+44)
(-5.0446064e+44 9.8785791e+42 -1.512994e+44)
(-5.0335691e+44 5.245e+42 -1.526264e+44)
(-3.6245472e+44 6.8723324e+42 -1.6596335e+44)
(-3.609408e+44 3.5118766e+42 -1.687465e+44)
(-4.1250541e+44 -7.9418325e+42 5.8364826e+43)
(-4.2306208e+44 1.7499209e+42 6.4351214e+43)
(-2.8269239e+44 5.0786877e+42 -6.1334885e+43)
(-2.9174455e+44 4.0666431e+42 -4.9738317e+43)
(-4.2633953e+44 -7.3131685e+42 6.6033643e+43)
(-4.1649808e+44 7.934936e+42 6.011959e+43)
(-2.9325213e+44 2.283816e+42 -4.9471126e+43)
(-2.8655131e+44 3.6891427e+42 -5.6934087e+43)
(-7.2968378e+44 5.1375511e+42 -1.8008742e+44)
(-7.3187049e+44 9.7243571e+42 -1.7880082e+44)
(-5.0452152e+44 1.020693e+43 -1.5275807e+44)
(-5.0394348e+44 5.8132973e+42 -1.5107842e+44)
(-3.6251719e+44 6.4035905e+42 -1.6888754e+44)
(-3.6192271e+44 4.0630465e+42 -1.6617937e+44)
(-5.0529302e+44 8.5746934e+42 -1.5262527e+44)
(-5.0381256e+44 3.5066761e+42 -1.539195e+44)
(-3.6343621e+44 5.9938249e+42 -1.6687285e+44)
(-3.6148146e+44 2.3700074e+42 -1.6982491e+44)
(-2.8476573e+44 1.3151201e+42 -6.0041734e+43)
(-4.172594e+44 -7.5235188e+42 5.8454589e+43)
(-2.8955857e+44 3.1715421e+42 -5.3008807e+43)
(-4.2035248e+44 6.4208866e+42 6.0258903e+43)
(-2.9045495e+44 3.0651421e+42 -5.3603503e+43)
(-2.8347953e+44 3.0752902e+42 -6.093453e+43)
(-4.2123933e+44 -2.314647e+42 6.0921681e+43)
(-4.1280058e+44 7.8049269e+42 5.6683305e+43)
(-6.5800263e+44 4.7130902e+42 8.3862707e+43)
(-6.4976435e+44 9.0027224e+42 7.6768906e+43)
(-8.3581287e+44 7.428408e+42 1.0002734e+44)
(-8.3748442e+44 1.571793e+43 1.0275875e+44)
(-6.5454752e+44 7.8619341e+42 8.143981e+43)
(-8.3516101e+44 1.222892e+43 1.0387902e+44)
(-6.4811439e+44 7.5247584e+42 8.0573932e+43)
(-8.3061869e+44 8.1389223e+41 1.0412421e+44)
(-6.4687013e+44 1.9222557e+40 7.9621358e+43)
(-6.4426347e+44 3.5363307e+42 7.552203e+43)
(-8.2848424e+44 1.2983785e+43 9.9386416e+43)
(-8.2983299e+44 4.4483755e+42 9.7827626e+43)
(-8.3071138e+44 1.0900267e+43 9.676563e+43)
(-6.4656715e+44 3.5029514e+42 7.6500865e+43)
(-6.4367879e+44 7.7410081e+42 7.7319785e+43)
(-8.28228e+44 2.299537e+42 9.7498141e+43)
(-5.6798212e+44 -6.7916386e+41 8.2864735e+43)
(-5.6399757e+44 -6.6218335e+42 8.4112103e+43)
(-7.2614564e+44 8.0171141e+42 9.2694749e+43)
(-7.2629862e+44 5.4431107e+41 9.2147166e+43)
(-5.6092206e+44 2.6522474e+42 8.0489e+43)
(-5.6215656e+44 -5.2862332e+42 7.9592647e+43)
(-7.2830851e+44 3.5574669e+42 9.0097311e+43)
(-7.2553576e+44 -2.754474e+42 8.8022726e+43)
(-5.621231e+44 1.4102604e+42 7.930831e+43)
(-5.5703984e+44 -8.7388457e+42 7.8772317e+43)
(-7.2630804e+44 5.5019974e+42 8.7228504e+43)
(-7.2718019e+44 1.5065413e+42 8.7893325e+43)
(-5.5856959e+44 5.1311529e+42 8.1105325e+43)
(-5.5946986e+44 -2.7999353e+42 7.9282708e+43)
(-7.2287578e+44 6.019857e+42 8.7748986e+43)
(-7.21055e+44 -1.7239245e+42 8.7315761e+43)
(-5.6206247e+44 1.5168172e+42 7.995873e+43)
(-5.5696554e+44 -6.3229915e+42 7.9308079e+43)
(-7.2383806e+44 7.4825506e+42 8.6582279e+43)
(-7.2699233e+44 9.6998502e+41 8.8976635e+43)
(-5.5505064e+44 4.8683565e+42 7.742281e+43)
(-5.5588466e+44 -3.1748022e+42 7.5651656e+43)
(-7.2503195e+44 5.1068852e+42 8.4292003e+43)
(-7.2325823e+44 -1.3030128e+42 8.388485e+43)
(-7.2697625e+44 7.1499182e+42 8.6739999e+43)
(-5.5691263e+44 -5.9344841e+42 7.8589586e+43)
(-5.6020326e+44 3.0880451e+42 7.8205611e+43)
(-7.2748801e+44 2.225486e+42 8.7376798e+43)
(-5.6078536e+44 1.8670013e+42 8.2648926e+43)
(-5.5898957e+44 -2.1971783e+42 7.8732931e+43)
(-7.23936e+44 5.8620344e+42 8.8221877e+43)
(-7.2235342e+44 -2.878055e+42 8.8440635e+43)
(-5.625112e+44 2.2837949e+42 8.0417318e+43)
(-5.6603367e+44 -7.3880112e+42 8.5892271e+43)
(-7.2788937e+44 7.2481347e+42 9.1708701e+43)
(-7.2672878e+44 8.3242453e+41 8.9310106e+43)
(-5.6550643e+44 5.1804833e+42 8.2578949e+43)
(-5.5983713e+44 -3.9105639e+42 7.7351318e+43)
(-7.2729461e+44 4.23965e+42 8.5942228e+43)
(-7.2829944e+44 -1.0969538e+42 8.8162674e+43)
(-5.5636695e+44 -5.798913e+42 7.7723631e+43)
(-7.2443225e+44 8.0933463e+42 8.4095909e+43)
(-5.5994429e+44 3.068646e+42 7.875509e+43)
(-7.2677581e+44 2.8606066e+42 8.6767311e+43)
(-7.2296121e+44 7.7592154e+42 8.6389928e+43)
(-5.6028636e+44 -8.1161288e+41 7.9575325e+43)
(-5.5994442e+44 8.3798756e+42 8.171482e+43)
(-7.2112886e+44 1.0589532e+42 8.6184483e+43)
(-5.6197749e+44 2.6408052e+42 7.8154634e+43)
(-5.6259914e+44 -1.8202768e+42 8.129313e+43)
(-7.2793815e+44 1.0727512e+43 8.7785964e+43)
(-7.2859966e+44 3.0592159e+42 8.7767123e+43)
(-7.2905002e+44 6.7648026e+42 8.5595225e+43)
(-5.6239724e+44 1.0845145e+41 7.8476382e+43)
(-5.6106206e+44 6.8045808e+42 7.8789151e+43)
(-7.2905052e+44 1.5086431e+42 8.6259221e+43)
(-5.6179315e+44 7.651986e+42 7.8219863e+43)
(-5.6741792e+44 -2.7150514e+42 8.4740386e+43)
(-7.2925907e+44 1.0172346e+43 8.885562e+43)
(-7.2857144e+44 4.5751971e+42 8.7417657e+43)
(-5.641349e+44 5.699104e+42 8.2825806e+43)
(-5.6489403e+44 1.7612334e+42 8.1529406e+43)
(-7.2718989e+44 6.9133493e+42 9.0767538e+43)
(-7.2546873e+44 -1.2363144e+42 9.0132201e+43)
(-6.5179182e+44 -3.1931081e+41 7.9024372e+43)
(-6.4700406e+44 4.2504659e+42 7.8914412e+43)
(-8.3582498e+44 8.002742e+42 9.9370675e+43)
(-8.3281704e+44 -1.0037556e+42 9.9533998e+43)
(-6.5783511e+44 -2.8418174e+41 8.7519503e+43)
(-6.5090155e+44 1.3748195e+42 8.1272482e+43)
(-8.3741723e+44 1.2881588e+43 1.0747173e+44)
(-8.3688209e+44 3.3563192e+42 1.0548928e+44)
(-8.3792497e+44 1.1588514e+43 1.0074548e+44)
(-6.5278235e+44 -9.0930097e+41 8.1372468e+43)
(-6.4503644e+44 4.0235503e+42 7.480366e+43)
(-8.3443543e+44 4.5073089e+42 9.7152313e+43)
(-6.4962228e+44 3.6577939e+42 7.9315581e+43)
(-6.4195453e+44 5.1883876e+42 7.8483177e+43)
(-8.3354924e+44 1.0065038e+43 1.0041236e+44)
(-8.2863718e+44 -4.3748105e+41 1.0059257e+44)
(-9.0955169e+44 1.0568465e+43 -3.3205816e+43)
(-9.1234232e+44 1.2062642e+43 -3.4011533e+43)
(-9.2247825e+44 8.6078648e+42 -1.8805824e+43)
(-9.2665346e+44 1.3682064e+43 -1.9647691e+43)
(-9.3044436e+44 9.9623142e+42 -3.2731948e+43)
(-9.3365878e+44 1.2924507e+43 -3.3583269e+43)
(-9.2443854e+44 1.1825805e+43 -4.0886959e+43)
(-9.2115092e+44 1.1578751e+43 -4.0783501e+43)
(-1.0755221e+45 1.1017395e+43 -4.5446962e+43)
(-9.2609701e+44 9.810191e+42 -3.8207665e+43)
(-9.159522e+44 1.3733688e+43 -4.7151223e+43)
(-9.1540814e+44 7.6690994e+42 -4.6826467e+43)
(-9.2568789e+44 1.1724298e+43 -3.9038995e+43)
(-1.0615006e+45 1.2773559e+43 -5.3686455e+43)
(-9.0472873e+44 1.1966859e+43 -3.9575637e+43)
(-9.0503626e+44 9.2955286e+42 -3.884166e+43)
(-9.1691418e+44 1.1291727e+43 -2.5770577e+43)
(-9.1681453e+44 1.0200255e+43 -2.6422676e+43)
(-1.0271234e+45 1.3838736e+43 -7.6843753e+43)
(-1.0395173e+45 1.4611214e+43 -6.7822173e+43)
(-9.0672774e+44 1.1264628e+43 -3.5313236e+43)
(-9.2429996e+44 9.1660362e+42 -1.9619136e+43)
(-9.2961696e+44 1.0830796e+43 -3.3912424e+43)
(-9.1724492e+44 1.1480228e+43 -4.2292458e+43)
(-9.2093144e+44 8.819392e+42 -4.0397189e+43)
(-9.2944143e+44 1.0528771e+43 -3.3493847e+43)
(-1.0752855e+45 6.3981999e+42 -4.368962e+43)
(-9.1564625e+44 8.7034413e+42 -4.187886e+43)
(-9.2265657e+44 7.82825e+42 -3.5006624e+43)
(-1.0414616e+45 7.260166e+42 -6.6704738e+43)
(-9.0473655e+44 8.7127821e+42 -3.4760671e+43)
(-9.1650769e+44 7.6535041e+42 -2.2342599e+43)
(-9.0855219e+44 9.8410721e+42 -3.429641e+43)
(-9.2069245e+44 1.1046992e+43 -2.2120789e+43)
(-9.7383283e+44 1.9676633e+43 8.0140459e+43)
(-9.2731042e+44 4.2144518e+42 3.0466192e+43)
(-9.6986049e+44 2.7513083e+42 7.550438e+43)
(-9.2455835e+44 4.4338648e+42 2.9070872e+43)
(-9.2720021e+44 1.2795385e+43 2.815216e+43)
(-9.677641e+44 1.3660537e+42 7.4509953e+43)
(-9.7141188e+44 1.5278348e+43 7.3252036e+43)
(-9.4069303e+44 1.2375913e+43 9.6572365e+42)
(-9.0963565e+44 1.0593765e+43 -1.7155495e+43)
(-9.3757006e+44 4.538297e+42 1.0386097e+43)
(-9.0574297e+44 7.3454654e+42 -1.721127e+43)
(-9.0991111e+44 8.1575635e+42 -1.5807629e+43)
(-9.4249547e+44 5.9025183e+42 1.2282132e+43)
(-9.0435721e+44 1.1297892e+43 -2.0742243e+43)
(-9.0523303e+44 1.0119388e+43 -2.1237328e+43)
(-9.3662609e+44 7.932287e+42 6.3195158e+42)
(-9.3600151e+44 1.4597393e+43 7.0846729e+42)
(-9.2236462e+44 7.1062084e+42 2.5082523e+43)
(-9.2214533e+44 1.4731286e+43 2.6163114e+43)
(-9.6310837e+44 1.8589978e+43 7.0365456e+43)
(-9.6494616e+44 5.2646925e+42 6.9815835e+43)
(-9.4422205e+44 1.5720084e+43 1.2348966e+43)
(-9.1338946e+44 1.3866558e+43 -1.5142627e+43)
(-9.0953816e+44 7.9691323e+42 -1.409931e+43)
(-9.4065097e+44 4.6326742e+42 1.3711809e+43)
(-9.2736043e+44 4.6562343e+42 3.3026979e+43)
(-9.294439e+44 1.6896215e+43 3.1299051e+43)
(-9.7000601e+44 1.8695496e+43 7.5222021e+43)
(-9.6512648e+44 1.9580226e+42 7.6773447e+43)
(-9.5379408e+44 2.2596129e+43 -1.0024494e+44)
(-1.0598112e+45 1.6941587e+43 -7.5974558e+43)
(-1.0751073e+45 1.3482129e+43 -6.2543658e+43)
(-9.5833619e+44 1.2627827e+43 -9.6848752e+43)
(-7.8335083e+44 7.5724834e+42 8.9985425e+42)
(-7.8088482e+44 2.4864534e+42 8.9985786e+42)
(-8.1418941e+44 8.1477312e+42 3.4623085e+43)
(-8.1209564e+44 4.5008967e+41 3.5076359e+43)
(-7.8543208e+44 9.2342402e+42 1.3009238e+43)