/*--------------------------------*- C++ -*----------------------------------*\
  =========                 |
  \\      /  F ield         | OpenFOAM: The Open Source CFD Toolbox
   \\    /   O peration     | Website:  https://openfoam.org
    \\  /    A nd           | Version:  7
     \\/     M anipulation  |
\*---------------------------------------------------------------------------*/
FoamFile
{
    version     2.0;
    format      ascii;
    class       surfaceScalarField;
    location    "0";
    object      phi;
}
// * * * * * * * * * * * * * * * * * * * * * * * * * * * * * * * * * * * * * //

dimensions      [0 3 -1 0 0 0 0];

internalField   nonuniform List<scalar> 
101838
(
-2.6557925e-07
0.00022851617
0.00024304595
0.00022829766
0.00024287613
0.00022994237
0.00023036732
0.00022972343
0.00023014471
3.0875423e-06
-4.2618686e-07
-5.7853812e-06
5.3622045e-05
5.5124092e-05
6.255001e-05
5.9672669e-05
-3.5825992e-07
0.0001989696
3.0975936e-06
-5.7852972e-06
5.3566889e-05
5.5177177e-05
5.9627724e-05
6.2591949e-05
0.0001989565
-6.1831711e-07
1.4004558e-05
-1.3317317e-05
1.4587688e-05
-1.3119955e-05
0.00025100398
-4.2908133e-07
-1.3226624e-05
-1.250887e-05
0.00025024374
1.1146994e-05
1.1513984e-05
-1.2552328e-05
-1.3183897e-05
0.00025024854
1.109243e-05
1.1568576e-05
-2.8895172e-06
-4.2582092e-07
2.2112059e-06
5.6197416e-05
6.0713802e-05
5.8677034e-05
5.4789152e-05
-4.0891371e-07
5.5350128e-05
5.6781449e-05
5.537376e-05
5.3950017e-05
-2.8893054e-06
2.2175564e-06
6.0753375e-05
5.8635349e-05
5.4732926e-05
5.6250801e-05
5.5292709e-05
5.6835834e-05
5.3893968e-05
5.5428009e-05
-7.8438432e-07
1.748779e-06
-3.2557935e-06
1.454414e-05
1.3127823e-05
1.5315035e-05
1.6352952e-06
-1.3470599e-07
-3.2866865e-06
1.2827131e-05
1.4719273e-05
1.319379e-05
1.538558e-05
7.1020187e-07
-1.3238254e-07
5.038087e-05
4.9455738e-05
-5.7029407e-07
1.7513975e-06
-3.2559084e-06
1.4533177e-05
1.3141337e-05
1.5325773e-05
1.6329158e-06
-3.2868119e-06
1.3180339e-05
1.2840576e-05
1.5374932e-05
1.4730169e-05
-5.2533475e-07
4.9453234e-05
5.0383228e-05
0.00019998717
4.0585017e-07
-1.4433344e-05
-1.4917976e-05
1.3010036e-05
1.3329628e-05
3.8982339e-07
1.4577327e-05
1.4019859e-05
-1.3333006e-05
-1.3108358e-05
0.00025105413
-0.00019997496
-1.3385971e-05
1.4524459e-05
1.4070631e-05
-1.3052595e-05
0.00025103299
-1.4972625e-05
-1.4378094e-05
1.3065116e-05
1.3274055e-05
1.0468475e-07
-5.0878241e-05
-1.5334674e-07
3.8402557e-06
3.6809821e-06
-3.0736954e-06
6.3617786e-05
-3.1339468e-06
5.1529747e-05
-1.1672719e-07
3.696963e-06
3.7450451e-06
-3.3404267e-06
3.7294658e-06
3.8298889e-06
-3.0826856e-06
-3.1587101e-06
6.4718233e-05
-1.5924919e-07
3.7446924e-06
3.6382583e-06
-3.2087621e-06
-3.32729e-06
5.6485086e-07
0.00019639456
-5.8881863e-07
-1.2331327e-05
-1.2729854e-05
1.427669e-05
1.4648426e-05
0.00019635532
1.456925e-05
-1.2804768e-05
5.2936773e-07
-5.5866882e-07
0.00024592356
1.3825972e-05
-1.2105972e-05
-1.2284234e-05
1.4405081e-05
0.00024587413
1.4332082e-05
-1.2354817e-05
-2.3318324e-07
-3.5960688e-06
-3.8353312e-06
6.3558953e-05
2.3098741e-06
-1.3573507e-07
-3.6653057e-06
-3.8127542e-06
6.4695511e-05
2.2410864e-06
2.3388013e-06
-1.7787446e-08
-3.6070232e-06
-3.8246266e-06
6.3560728e-05
2.3235228e-06
-3.8233732e-06
-3.6544236e-06
6.4696041e-05
2.3253638e-06
2.2546096e-06
3.9801321e-07
0.00022219275
0.00022219686
4.112329e-06
7.173109e-07
-1.7849677e-06
-1.2776734e-07
5.3280453e-05
7.8407677e-07
-1.3760106e-07
1.3370755e-05
5.0808889e-05
-4.1174362e-06
1.2878236e-05
5.052758e-05
-1.7970352e-06
5.3025286e-05
-7.5649061e-07
2.1003219e-07
1.3747349e-05
1.4257693e-05
1.313287e-05
1.2790194e-05
2.1209123e-07
-1.3623133e-07
1.4302998e-05
1.3824125e-05
1.2845412e-05
1.3191567e-05
7.2723891e-07
-1.3005732e-07
1.31392e-05
1.3058318e-05
1.2710302e-05
1.2794124e-05
1.3079227e-05
1.2738956e-05
1.2997148e-05
5.8878093e-07
-4.1113552e-06
1.3328287e-05
5.0810023e-05
-4.1181687e-06
1.2920125e-05
5.0526682e-05
-5.145566e-07
-1.7987416e-06
5.3025271e-05
-1.7834107e-06
5.3280481e-05
-5.3995464e-07
2.0986226e-07
1.4267828e-05
1.373713e-05
1.2776238e-05
1.3146567e-05
2.120827e-07
1.3177899e-05
1.4292906e-05
1.3834129e-05
1.2859175e-05
-5.2107887e-07
1.272467e-05
1.3093174e-05
1.3010971e-05
1.2808251e-05
1.3125317e-05
1.3044549e-05
1.2723996e-05
-1.9358299e-07
1.0969743e-06
-8.7168175e-08
-1.7825076e-06
3.0441748e-06
3.1330057e-06
3.833639e-06
3.6695082e-06
-8.0961056e-08
1.2464062e-05
1.1138923e-06
-9.9485119e-08
-3.3818431e-08
-1.7672142e-06
3.0290154e-06
3.123719e-06
3.6319319e-06
3.8290719e-06
-9.1130813e-08
-3.3318017e-08
1.2292306e-05
1.0942329e-06
-1.7847801e-06
3.8377738e-06
3.1299348e-06
3.0529897e-06
3.6769715e-06
1.2494961e-05
-1.4745699e-07
1.0964126e-06
-1.9500845e-08
-1.7825995e-06
3.1296554e-06
3.0475943e-06
3.8310306e-06
3.6722786e-06
-1.4727753e-08
1.2464814e-05
1.5310486e-07
1.0948545e-06
-1.7848091e-06
3.0496217e-06
3.1333246e-06
3.674275e-06
3.8404513e-06
1.1132895e-06
-1.7672335e-06
3.1203311e-06
3.0323981e-06
3.8264092e-06
3.6346487e-06
1.3722621e-07
1.2494464e-05
1.2292939e-05
1.1787272e-07
5.1586154e-05
3.0053508e-06
-4.2748735e-06
5.2248524e-05
1.2935321e-07
2.9599368e-06
3.0003209e-06
-4.1497236e-06
-4.2925403e-06
1.0676986e-07
6.4810288e-05
-3.6611773e-06
3.5896486e-06
6.582491e-05
1.2879699e-07
3.4665894e-06
3.5723919e-06
-3.692712e-06
-3.6151323e-06
-5.6447864e-08
-5.1539123e-05
1.225725e-07
3.7269646e-06
3.8338505e-06
-3.1560216e-06
-3.0867489e-06
6.4732186e-05
-5.0886053e-05
3.6847047e-06
3.8377377e-06
-3.1377977e-06
6.3629719e-05
-6.6380317e-08
1.2686032e-07
3.6940811e-06
3.7490568e-06
-3.3375699e-06
-3.2133222e-06
3.7418396e-06
-3.331075e-06
3.7414761e-07
0.00019644392
-1.2745306e-05
-1.2321665e-05
1.4639401e-05
1.4292569e-05
5.1537569e-05
1.3415967e-07
-6.5823153e-05
-3.2263953e-06
3.7623898e-06
3.6804407e-06
-3.3241673e-06
1.374174e-07
3.7140559e-06
-3.1426882e-06
-3.1000789e-06
3.8464531e-06
6.47294e-05
-5.0880492e-05
3.6970857e-06
3.8244058e-06
-3.1507718e-06
6.3621516e-05
-3.0571054e-06
-6.4804928e-05
3.6553306e-06
-3.1923821e-06
3.7279267e-06
-3.3441671e-06
0.00019642034
-1.2794966e-05
-1.2270047e-05
1.4587088e-05
1.4342048e-05
8.6768722e-08
5.2247732e-05
3.0139436e-06
2.945944e-06
-4.2789022e-06
-4.1632813e-06
5.1583043e-05
-4.2885066e-06
2.9337706e-06
2.9913257e-06
-4.1144894e-06
-9.6412811e-08
-3.6747596e-06
3.575921e-06
3.4488673e-06
-3.5722815e-06
-3.6288943e-06
3.5856463e-06
3.4532201e-06
-3.6789699e-06
3.5312218e-07
0.00024599664
1.3841441e-05
-1.2097008e-05
-1.2299368e-05
1.4397895e-05
0.00024596601
1.4349256e-05
-1.2346543e-05
-1.2045771e-05
1.388665e-05
-2.0752473e-08
-1.2842861e-05
3.842112e-08
-6.9047296e-07
-6.7430164e-07
1.6024845e-05
9.8928448e-07
1.0160617e-06
-1.2660112e-05
-3.7805128e-08
-6.7109539e-07
-6.8399391e-07
1.5719079e-05
1.0177818e-06
9.7635103e-07
2.3697424e-08
-1.6101076e-05
-3.9169808e-08
9.4712181e-07
-7.5513305e-07
9.743128e-07
-7.8358918e-07
1.3487576e-07
4.9856238e-05
-1.4945452e-07
-3.0698622e-06
-2.9636749e-06
3.794371e-06
3.6839038e-06
4.2992064e-08
-1.6390906e-05
9.752438e-07
-7.86657e-07
9.6241622e-07
-7.5623464e-07
-3.3682218e-08
1.6195235e-05
9.7230044e-07
9.3996209e-07
-7.8082977e-07
-7.5802674e-07
-1.3033257e-05
1.6418804e-05
-3.7101155e-08
9.3928196e-07
-7.7155713e-07
9.7541357e-07
-7.8026454e-07
-4.1496605e-08
9.4995629e-07
-7.8440349e-07
9.7303942e-07
-8.0668222e-07
-4.2288094e-08
-1.2722764e-05
4.5919311e-08
-6.9090908e-07
-6.6895399e-07
1.5810176e-05
9.8280579e-07
1.0154539e-06
-1.2864779e-05
-6.7926547e-07
-6.8726656e-07
1.6050403e-05
1.0215626e-06
9.8534857e-07
-4.2859364e-08
4.7633714e-08
9.723542e-07
-7.8941598e-07
9.5447711e-07
-7.5242928e-07
9.5852496e-07
-7.6081463e-07
9.8113755e-07
-7.8340678e-07
5.0494798e-05
1.8096052e-07
-2.9745519e-06
-3.0934758e-06
3.7842239e-06
3.7312427e-06
-3.0765148e-08
-1.3012974e-05
9.6925595e-07
-7.8432183e-07
9.4269911e-07
-7.6724061e-07
-1.2825061e-05
-3.9482561e-08
9.326478e-07
-7.6100573e-07
9.7409922e-07
-7.7481126e-07
3.2951015e-08
-1.6355807e-05
-3.9148153e-08
9.4036286e-07
-7.7632513e-07
9.6846717e-07
-8.0435686e-07
9.6676826e-07
-8.1045154e-07
9.5348925e-07
-7.8029381e-07
1.2855424e-07
6.2665517e-05
-1.4817291e-07
3.7987018e-06
3.6363671e-06
-2.9473715e-06
-3.0007326e-06
1.7878706e-07
6.3645428e-05
3.6727096e-06
3.7770158e-06
-3.035706e-06
-2.9665117e-06
-5.0490849e-05
6.3639121e-05
3.7950422e-06
3.6539674e-06
-2.985587e-06
-3.0164911e-06
-2.9933722e-06
3.7113703e-06
-3.0742103e-06
3.8031518e-06
-1.2722307e-05
1.5809569e-05
-6.7398656e-07
-6.8588164e-07
1.02016e-06
9.7805263e-07
9.4933953e-07
-7.5733509e-07
9.7741919e-07
-3.9358817e-08
9.113223e-07
-8.2407999e-07
9.5143946e-07
5.1447126e-07
0.00019737668
-5.3632678e-07
-1.2291691e-05
-1.1907187e-05
1.1482789e-05
1.2159241e-05
-4.9176472e-05
9.622663e-08
-1.3786434e-07
6.1526902e-05
3.7377109e-06
3.5804887e-06
-2.9285612e-06
-2.8725392e-06
9.7723687e-08
-1.437835e-07
-2.9261281e-06
3.6442968e-06
3.7483799e-06
-3.0374576e-06
4.9809158e-05
1.7280085e-07
-3.0480626e-06
3.7506301e-06
3.7007821e-06
-2.9264406e-06
1.6575868e-07
6.262447e-05
3.6270807e-06
3.7271204e-06
-2.8824226e-06
-2.9516199e-06
0.00019732307
1.2105682e-05
-1.2356175e-05
1.1531054e-05
-4.980462e-05
6.2617752e-05
3.7439205e-06
3.6094393e-06
-2.9336532e-06
-2.900255e-06
3.6821005e-06
3.7685309e-06
-2.944169e-06
-3.0295821e-06
3.9398924e-07
0.0002415101
-4.6104544e-07
1.1059553e-06
0.00024131287
1.1168382e-06
-5.2326928e-08
-1.1992847e-06
-1.1565656e-06
1.6361143e-05
3.7113167e-07
3.9070704e-07
1.5506283e-08
-3.3801576e-08
-1.1413267e-06
-1.2053512e-06
1.614184e-05
3.6699792e-07
3.8949284e-07
-1.2069003e-06
-1.1517544e-06
1.6391561e-05
3.8849094e-07
3.7552428e-07
1.5295584e-08
-1.2019566e-06
-1.1538674e-06
1.63615e-05
3.873611e-07
3.7450809e-07
3.8017368e-08
-1.1544856e-06
-1.2042699e-06
1.6391824e-05
3.7216699e-07
3.9184468e-07
-1.2080206e-06
-1.1386272e-06
1.6141905e-05
3.8612741e-07
3.7035549e-07
4.8130997e-07
1.1194866e-05
1.1176352e-05
0.0002209628
1.1140492e-05
1.123078e-05
0.0002209584
3.5310727e-06
2.4775594e-07
-3.624978e-06
-3.5383689e-06
-1.1830228e-07
5.3177615e-05
1.8070452e-06
1.7985476e-06
2.3113519e-07
-1.3615483e-07
6.5385442e-05
-3.526051e-06
6.5344578e-05
-3.5032122e-06
-3.6478177e-06
5.314983e-05
1.786327e-06
1.8133664e-06
-2.1285247e-07
-1.3191846e-06
1.1733463e-05
-1.32414e-06
-8.2629643e-08
1.180379e-05
1.952462e-07
-7.5286256e-08
-4.9217534e-07
1.218092e-05
-4.9395621e-07
1.2119762e-05
1.0836471e-07
-1.3259797e-06
1.1813002e-05
-1.3252861e-06
-3.4039969e-08
1.1753431e-05
-8.9815384e-08
-4.9472121e-07
-3.2251348e-08
1.2136883e-05
-4.912049e-07
1.2191674e-05
3.884775e-07
8.9463538e-08
8.0900908e-08
3.222583e-06
3.1200275e-06
2.9068653e-06
2.8396581e-06
8.5808699e-08
7.8530689e-08
2.8089734e-06
2.7434595e-06
3.0084584e-06
2.9367752e-06
-3.8570933e-07
-3.2500744e-08
2.723635e-06
2.8042183e-06
2.9157846e-06
3.0034626e-06
-3.4645664e-08
2.8192214e-06
3.2186105e-06
3.0973217e-06
2.9026399e-06
2.0194551e-07
3.8722597e-07
3.1136978e-06
3.2234495e-06
2.8316037e-06
2.910022e-06
3.2114329e-06
3.0961984e-06
2.89394e-06
2.7351607e-06
2.8120072e-06
3.0111138e-06
2.9283465e-06
1.3224236e-08
-3.5309446e-06
6.5386406e-05
-3.5262616e-06
6.5346231e-05
-1.0923235e-08
-3.637399e-06
-3.5136246e-06
5.3151366e-05
1.8000882e-06
1.7995571e-06
-3.6354451e-06
-3.528041e-06
5.3178131e-05
1.8117523e-06
1.7938655e-06
1.6454322e-07
-1.3238813e-06
-1.4434633e-08
1.1804169e-05
-1.3194679e-06
1.1733423e-05
-1.4422326e-07
-4.9440787e-07
1.2119906e-05
-1.0838216e-08
-4.9178984e-07
1.2181056e-05
1.3262975e-06
1.4069723e-07
-4.916622e-07
1.2191697e-05
1.5652432e-07
1.1812802e-05
-1.3250646e-06
1.1753629e-05
-4.9433501e-07
1.2136875e-05
-1.4702763e-07
3.2140382e-06
3.0936507e-06
2.8974553e-06
3.8716705e-07
-1.1721613e-08
2.9065657e-06
2.8351424e-06
3.1162601e-06
3.2209208e-06
-1.3502542e-08
2.8085427e-06
2.738715e-06
3.0077417e-06
2.9317638e-06
-1.4424617e-07
3.8567487e-07
2.8991622e-06
2.822738e-06
3.0998735e-06
3.2160523e-06
3.8854964e-07
2.8361493e-06
2.9103376e-06
3.225139e-06
3.1175029e-06
1.3716151e-07
2.739928e-06
2.8124464e-06
2.9333996e-06
3.0118587e-06
2.8007229e-06
2.7271576e-06
3.0000541e-06
2.9191654e-06
-2.0116779e-08
5.8062627e-07
-1.5191383e-08
-9.6769044e-07
7.5094496e-07
7.2873437e-07
9.674939e-07
1.0193613e-06
5.7963538e-07
-9.7904124e-07
7.3470213e-07
7.5205407e-07
1.0213138e-06
9.7928831e-07
1.7175827e-08
3.1741213e-06
-1.4265064e-08
3.1250095e-06
-3.7229147e-08
5.7890899e-07
-8.6343715e-09
-9.6396829e-07
7.4998098e-07
7.284208e-07
9.6476029e-07
1.0167609e-06
5.8003719e-07
6.0465296e-10
-9.7885252e-07
7.337578e-07
7.5210545e-07
1.0200698e-06
9.787544e-07
-3.0720634e-08
-8.3819526e-09
3.1086122e-06
1.6190762e-09
3.1714172e-06
-5.8036631e-07
3.5414516e-08
3.1774432e-06
4.1518809e-08
-9.7986395e-07
7.5327366e-07
7.3376932e-07
9.7890145e-07
1.0225646e-06
5.8021748e-07
-9.6804778e-07
7.3017435e-07
7.4988262e-07
1.0185895e-06
9.6849168e-07
3.1265835e-06
3.3945108e-08
5.7978591e-07
-9.7908097e-07
7.5294262e-07
7.3384188e-07
9.7861878e-07
1.0220147e-06
5.8051972e-07
2.1496845e-09
-9.6773884e-07
7.2961851e-07
7.5007772e-07
1.0186975e-06
9.6820162e-07
2.8835629e-08
3.1740759e-06
2.5800562e-09
3.1251834e-06
-2.7721201e-08
5.8036266e-07
-9.680701e-07
7.5077132e-07
7.2931328e-07
9.6781796e-07
1.0192872e-06
5.8025583e-07
1.6672462e-08
-9.7989908e-07
7.3464724e-07
7.5241023e-07
1.0219009e-06
9.796015e-07
-2.3775782e-08
3.1265093e-06
1.5068821e-08
3.1775892e-06
5.098142e-08
5.8017181e-07
-9.788551e-07
7.5297902e-07
7.3289148e-07
9.7807218e-07
1.02075e-06
5.7878604e-07
-9.6398019e-07
7.2929056e-07
7.4910635e-07
1.0160831e-06
9.6544819e-07
4.2309343e-08
3.1713199e-06
3.1087342e-06
-0.00022840277
-0.00022815787
-3.031145e-07
-1.4571464e-06
-1.3372598e-05
2.7992965e-08
1.6961104e-05
7.969364e-07
-1.0860812e-06
7.7230377e-07
-1.0644777e-06
2.9012886e-08
5.9525004e-07
-1.2514953e-06
5.8949282e-07
-1.2124714e-06
-1.4872544e-08
-1.3248445e-05
1.6761205e-05
3.2169896e-08
7.9974269e-07
7.6889616e-07
-1.0834767e-06
-1.0553233e-06
-1.3395055e-05
1.6990538e-05
7.6943553e-07
8.013182e-07
-1.0680796e-06
-1.0847338e-06
-1.2127907e-08
3.2038946e-08
5.9557104e-07
-1.2518059e-06
5.8481381e-07
-1.2047774e-06
5.8691943e-07
5.9998921e-07
-1.2155966e-06
-1.2502023e-06
1.3302777e-05
3.388211e-08
9.0929983e-07
8.9696511e-07
-9.2864212e-07
-8.9519281e-07
2.8317979e-08
1.6680404e-05
9.5007038e-07
9.2355327e-07
-8.4650334e-07
-8.2905971e-07
-2.8852194e-08
-1.3173994e-05
1.6443939e-05
3.1449456e-08
9.1635817e-07
9.4882352e-07
-8.4750953e-07
-8.2366362e-07
-1.3323847e-05
1.670037e-05
9.2034606e-07
9.5356558e-07
-8.3305832e-07
-8.4553514e-07
2.8126184e-08
8.9358335e-07
9.1290436e-07
-8.9903054e-07
-9.2773083e-07
3.2078621e-08
9.0522282e-07
8.8750069e-07
-9.3258652e-07
-8.9203221e-07
-3.0212682e-08
-1.2725405e-05
3.0335903e-08
-6.9023293e-07
-6.6996469e-07
1.5813738e-05
9.8221705e-07
1.016461e-06
-1.2867249e-05
-2.3371914e-08
-6.785834e-07
-6.8824581e-07
1.6053778e-05
1.0209759e-06
9.8631303e-07
3.0313531e-08
-2.737365e-08
-1.6421676e-05
9.5952844e-07
-7.6015282e-07
9.8045929e-07
-7.8438978e-07
-1.6198285e-05
3.1408264e-08
9.7339218e-07
-7.8874384e-07
9.5379229e-07
-7.5342355e-07
-8.7991595e-08
5.0507306e-05
1.1975677e-07
-2.9784185e-06
-3.0910326e-06
3.7883087e-06
3.728871e-06
9.0603383e-09
-6.8494033e-07
1.5721946e-05
9.7725846e-07
1.0171764e-06
-1.2845161e-05
-6.8981979e-07
-6.7527893e-07
1.6027984e-05
1.0169985e-06
9.8868111e-07
-1.6393533e-05
9.7621628e-07
9.617261e-07
-7.8599728e-07
-7.5718546e-07
4.986693e-05
-2.9612397e-06
-3.07362e-06
3.791984e-06
3.6877741e-06
-2.1008942e-08
-1.2888268e-05
3.1619797e-08
9.7330703e-07
9.392797e-07
-7.8011541e-07
-7.5904479e-07
-1.3035258e-05
-2.1277598e-08
9.4024636e-07
-7.7084059e-07
9.7473424e-07
-7.8125137e-07
2.1331162e-08
-2.5732099e-08
9.5094335e-07
-7.8369759e-07
9.7232203e-07
-8.0763938e-07
3.1310969e-08
9.6793808e-07
-8.0911907e-07
9.4758155e-07
-7.7404626e-07
-1.3014831e-05
9.4201724e-07
-7.6821336e-07
9.5275842e-07
-8.0975572e-07
-7.8122389e-07
-8.2673201e-08
1.1867528e-07
6.3662714e-05
3.6706507e-06
3.7810718e-06
-3.0333401e-06
-2.9704732e-06
6.2680588e-05
-9.1163116e-08
3.6401852e-06
3.7966072e-06
-2.9449409e-06
-3.0045049e-06
1.288812e-05
2.8118275e-08
-1.6443744e-05
9.4419525e-07
-7.7728355e-07
9.712991e-07
-8.0581105e-07
-2.8698063e-08
-1.3034635e-05
1.6420846e-05
4.1914053e-08
9.71418e-07
9.4347045e-07
-7.8455031e-07
-7.674123e-07
1.619801e-05
9.3600745e-07
-7.6240662e-07
9.7659143e-07
-7.7673372e-07
3.6963278e-08
-1.669967e-05
9.6894687e-07
9.5430211e-07
-8.108646e-07
-7.8039444e-07
-1.2725147e-05
1.7649904e-08
-6.7328696e-07
-6.869044e-07
1.5813389e-05
1.0195858e-06
9.7908226e-07
-1.9129501e-08
1.286648e-05
3.5325567e-08
9.7706479e-07
-7.8761262e-07
9.6285559e-07
-7.568556e-07
9.5040903e-07
-7.5665754e-07
9.7674613e-07
-7.8543764e-07
3.7283703e-08
-6.9147662e-07
-6.7518083e-07
1.6052744e-05
1.0178017e-06
9.8938309e-07
1.0169535e-07
5.0504953e-05
-2.9908698e-06
-3.0782724e-06
3.8009055e-06
3.7157428e-06
-3.8872104e-08
-1.2660462e-05
-6.8815004e-07
-6.669549e-07
1.5719549e-05
9.8026052e-07
1.0138853e-06
-1.2843913e-05
-6.7855535e-07
-6.8645457e-07
1.6026243e-05
1.020021e-06
9.8545777e-07
3.7940414e-08
-1.6392069e-05
9.5827036e-07
-7.6035988e-07
9.7948544e-07
-7.8264046e-07
4.9859092e-05
-2.9482007e-06
-3.0859386e-06
3.7785114e-06
3.7002019e-06
-1.6101464e-05
9.7012694e-07
-7.8772273e-07
9.5134448e-07
-7.510981e-07
-1.2825273e-05
-3.126169e-08
9.6999987e-07
-7.7904092e-07
9.3673913e-07
-7.5680584e-07
-2.8834214e-08
-1.6356088e-05
9.6426488e-07
-8.0849877e-07
9.4459992e-07
-7.7227536e-07
-1.3013839e-05
9.3867649e-07
-7.7153552e-07
9.7340318e-07
-7.8020908e-07
-1.6679313e-05
9.492914e-07
-7.8443494e-07
9.7099101e-07
-8.0642464e-07
1.0415972e-07
6.3658889e-05
3.7930956e-06
3.6582296e-06
-2.9831294e-06
-3.0205721e-06
6.2670013e-05
3.7836287e-06
-3.0167563e-06
-2.9316306e-06
3.6518372e-06
-3.5578851e-08
-1.3394759e-05
3.6255421e-08
1.6990026e-05
7.9799182e-07
7.7270087e-07
-1.0880818e-06
-1.0646518e-06
-1.3248407e-05
1.6761081e-05
7.6559934e-07
-1.0587237e-06
8.0305047e-07
-1.0800897e-06
-3.838525e-08
3.509711e-08
5.9661345e-07
-1.2535462e-06
5.9032914e-07
-1.2122258e-06
5.8139583e-07
-1.2081208e-06
5.9894838e-07
-1.2484227e-06
1.3372169e-05
1.4862971e-08
5.8602976e-07
-1.2158138e-06
5.9858473e-07
-1.2481083e-06
-2.0712012e-08
-1.3180021e-05
1.6661671e-05
7.9780649e-07
7.6731994e-07
-1.0809871e-06
-1.0516125e-06
1.6960378e-05
7.6897325e-07
-1.0678633e-06
8.0020789e-07
-1.0826781e-06
5.9271013e-07
5.8232294e-07
1.3302098e-05
3.1300294e-08
-3.0211085e-08
8.9351174e-07
-8.9844206e-07
9.1262825e-07
-9.252907e-07
3.5351306e-08
-3.4651654e-08
9.2022178e-07
9.5328321e-07
-8.324206e-07
-8.4310156e-07
-1.3109608e-05
9.4732999e-07
9.1541323e-07
-8.4452559e-07
-8.1985443e-07
9.0313088e-07
8.8621335e-07
-9.2998375e-07
-8.8843755e-07
1.317387e-05
2.2244922e-08
8.8409767e-07
-8.9530793e-07
9.0859698e-07
-9.2925548e-07
-2.0753714e-08
-1.3323336e-05
9.5026862e-07
9.2358392e-07
-8.4884451e-07
-8.2961939e-07
9.130921e-07
-8.2703952e-07
9.5210679e-07
-8.4412201e-07
9.0951492e-07
8.9695773e-07
-9.3100949e-07
-8.9571921e-07
3.4506457e-07
0.00019743908
-1.1900021e-05
-1.2306234e-05
1.1494831e-05
1.2155062e-05
-4.9189295e-05
5.3752202e-08
-8.5007957e-08
6.1544113e-05
-2.8703335e-06
3.584302e-06
3.7359935e-06
-2.932162e-06
5.3228728e-08
-8.8573436e-08
-2.9239178e-06
3.6482286e-06
3.7464202e-06
-3.0411295e-06
4.9823946e-05
1.1506584e-07
-3.0458858e-06
3.7547619e-06
3.6988547e-06
-2.9302147e-06
1.1068876e-07
6.2644172e-05
-2.9495586e-06
3.7311322e-06
3.6253796e-06
-2.8862523e-06
0.0001974046
-1.1854108e-05
-1.2349537e-05
1.2119246e-05
1.1527391e-05
-4.9821151e-05
1.2088021e-07
6.264002e-05
3.7423456e-06
3.6135979e-06
-2.8981754e-06
-2.9376144e-06
1.2876288e-07
3.6864185e-06
-2.9420267e-06
-3.0336016e-06
3.7666934e-06
4.9180146e-05
3.6597935e-06
3.7334444e-06
-3.0528126e-06
-2.9113808e-06
6.1532434e-05
3.5951018e-06
3.7236151e-06
-2.9436021e-06
-2.8577713e-06
2.655352e-07
0.00024157001
1.1088353e-06
0.00024143742
1.1163092e-06
1.0874476e-08
3.2416682e-06
-1.1413406e-08
-4.1151954e-06
2.6395717e-07
2.7139213e-07
-1.7337439e-07
-1.7840715e-07
3.2055614e-06
-4.0606608e-06
1.1424262e-08
-1.7986458e-07
-1.7151239e-07
2.6950843e-07
2.6209893e-07
-3.038251e-08
1.25467e-05
4.1823184e-08
-7.4873918e-07
9.3938153e-07
9.2604672e-07
-7.1986977e-07
-8.773879e-09
9.9070337e-09
4.0386486e-06
1.5504804e-07
-9.0583802e-09
4.1034833e-06
1.5452272e-07
6.4441619e-09
3.1880394e-06
-4.0346578e-06
-1.0247552e-08
2.6019126e-07
2.6961698e-07
-1.7204351e-07
-1.7845871e-07
3.2350004e-06
-4.107223e-06
-1.7917377e-07
-1.7232591e-07
2.6991142e-07
2.6483101e-07
1.2367092e-05
-3.7057363e-08
9.4099425e-07
9.1303724e-07
-7.1604418e-07
-7.4301532e-07
-5.8942918e-09
4.0952869e-06
1.5431801e-07
-9.1320496e-09
4.0125447e-06
1.5507298e-07
-3.1860656e-06
6.9829694e-09
-9.8299101e-09
2.3754748e-07
2.4823756e-07
-1.9403599e-07
-1.9038806e-07
7.809865e-09
-4.0302438e-06
-9.6312926e-09
2.3471685e-07
2.4182408e-07
-1.893804e-07
-1.9630778e-07
-3.2332001e-06
8.3795024e-09
-1.9196806e-07
2.4703053e-07
-1.9638321e-07
2.4019719e-07
9.2916193e-09
-4.1095675e-06
-1.977615e-07
2.4153213e-07
2.3798343e-07
-1.9047181e-07
-2.9483356e-08
3.9453117e-08
1.5940121e-05
9.1506082e-07
9.4182688e-07
-7.409703e-07
-7.2495543e-07
1.5658355e-05
-3.7417028e-08
9.4666902e-07
9.0486856e-07
-7.188814e-07
-7.3209445e-07
-3.2387429e-06
7.6349831e-09
-1.9547201e-07
2.3938878e-07
-1.9295769e-07
2.4856296e-07
8.0422573e-09
-4.1161047e-06
-1.9133904e-07
2.3717197e-07
2.4305594e-07
-1.9694673e-07
-3.2029658e-06
1.0342322e-08
-1.8974511e-07
2.4784353e-07
-1.9557063e-07
2.3946936e-07
1.0495973e-08
-4.0536412e-06
-1.9757936e-07
2.4165843e-07
2.3665829e-07
-1.887644e-07
1.1210985e-08
-3.2345332e-06
-1.0700346e-08
4.1157881e-06
2.3378321e-07
-1.9173381e-07
-1.9397205e-07
2.4243626e-07
-3.1879386e-06
4.037055e-06
2.3277557e-07
2.4076498e-07
-1.9471496e-07
-1.8851457e-07
1.0617938e-08
-1.0182084e-08
-1.9549429e-07
2.3411505e-07
-1.898751e-07
2.3966888e-07
2.3251025e-07
-1.8736966e-07
2.3714049e-07
-1.9704447e-07
-3.2016374e-06
6.3557521e-09
4.0553599e-06
-1.0026332e-08
-1.9421864e-07
2.3188971e-07
-1.9049867e-07
2.4203684e-07
6.6679272e-09
-4.05374e-06
-1.0638548e-08
2.3166169e-07
-1.8925145e-07
-1.9647005e-07
2.3856061e-07
-3.2389657e-06
4.1200947e-06
-1.9082928e-07
2.4147611e-07
-1.9564698e-07
2.3492651e-07
-4.1105252e-06
2.3866499e-07
-1.9716664e-07
2.3529335e-07
-1.8901969e-07
-3.1960578e-06
8.3910802e-09
-1.016504e-08
-1.9062048e-07
2.3070773e-07
-1.8740831e-07
2.4135388e-07
8.620509e-09
-1.0594409e-08
-1.8859456e-07
2.317739e-07
2.3881127e-07
-1.9564604e-07
-3.2323936e-06
2.3302965e-07
-1.8835964e-07
2.4004468e-07
-1.9275827e-07
-1.9712485e-07
2.3813624e-07
2.3468965e-07
-1.8909924e-07
1.189599e-08
3.239221e-06
-1.2030261e-08
-4.1133128e-06
2.639633e-07
2.7096012e-07
-1.7350646e-07
-1.7812317e-07
3.1928014e-06
-4.0416823e-06
1.2429455e-08
-1.7965899e-07
-1.7099569e-07
2.6886114e-07
2.6117174e-07
-3.4177241e-08
1.2428709e-05
4.4987375e-08
-7.4890588e-07
9.3881019e-07
9.200705e-07
-7.1388767e-07
-9.5173844e-09
1.106977e-08
4.0190232e-06
1.5501732e-07
-1.0804697e-08
4.1016906e-06
1.5426495e-07
7.2491512e-09
3.2068834e-06
-4.0622653e-06
2.6114132e-07
2.7045147e-07
-1.7255813e-07
-1.7876315e-07
3.2438081e-06
-4.1194909e-06
-1.7962097e-07
-1.7231482e-07
2.7057888e-07
2.6497691e-07
1.2567557e-05
-7.2427215e-07
9.220212e-07
9.4517166e-07
-7.4591429e-07
-7.3785487e-09
4.10741e-06
1.5452423e-07
4.0396688e-06
1.5508608e-07
-3.2372775e-06
9.8399672e-09
-1.2517583e-08
2.3917633e-07
2.4820453e-07
-1.9315995e-07
-1.9524241e-07
9.050835e-09
-1.1558674e-08
2.4275756e-07
-1.9149592e-07
-1.9666516e-07
2.3699411e-07
-3.1907922e-06
1.1929622e-08
2.4728564e-07
2.3881037e-07
-1.8929206e-07
-1.9532028e-07
1.1693267e-08
2.4093548e-07
2.3603808e-07
-1.9749395e-07
-1.8829624e-07
-3.2042573e-06
8.7949756e-09
-1.9444708e-07
2.3829823e-07
-1.9081363e-07
2.4901232e-07
8.6972623e-09
2.3549402e-07
-1.8975767e-07
-1.9648818e-07
2.4283174e-07
-3.2416708e-06
-1.9192819e-07
2.4756438e-07
-1.9663994e-07
2.4058782e-07
2.4203601e-07
-1.9803299e-07
2.3848627e-07
-1.9033743e-07
3.3036117e-08
1.5967883e-05
-7.2983011e-07
9.1104943e-07
9.4730183e-07
-7.3821343e-07
1.5749184e-05
4.5401378e-08
9.109976e-07
9.4366005e-07
-7.3893865e-07
-7.173265e-07
-3.2363932e-06
9.7037186e-09
-9.8313549e-09
-1.944764e-07
2.3364152e-07
-1.9197714e-07
2.4246907e-07
1.0331793e-08
-1.1611289e-08
-4.106873e-06
2.3402213e-07
-1.9007321e-07
-1.9611407e-07
2.3958864e-07
-3.2003292e-06
2.330031e-07
-1.8946672e-07
2.4087769e-07
-1.9535784e-07
-4.0521844e-06
2.3736647e-07
-1.9759487e-07
2.3280335e-07
-1.8827436e-07
-3.1833339e-06
5.308079e-09
-9.6548067e-09
-1.9347332e-07
2.3151779e-07
-1.8963935e-07
2.416667e-07
6.3089292e-09
-4.0256569e-06
-9.816911e-09
2.3117573e-07
2.3801971e-07
-1.8849725e-07
-1.9588635e-07
-3.2303454e-06
-1.9063851e-07
2.4121059e-07
-1.9506628e-07
2.3483887e-07
-4.0985159e-06
-1.9669418e-07
2.3835972e-07
2.3518113e-07
-1.8879823e-07
-3.1772853e-06
7.4376426e-09
-9.8073143e-09
-1.9000142e-07
2.3017931e-07
-1.8666675e-07
2.4083445e-07
8.0037094e-09
-4.0378079e-06
-9.6128793e-09
2.3105821e-07
2.3803244e-07
-1.8802403e-07
-1.9527399e-07
-3.2235134e-06
9.0865784e-09
2.3274577e-07
-1.8831613e-07
2.3970257e-07
-1.9233001e-07
1.038208e-08
-4.1164836e-06
-1.9673911e-07
2.3767628e-07
2.3440622e-07
-1.8911987e-07
-3.2305149e-06
7.815396e-09
-1.9166663e-07
2.317377e-07
-1.8945684e-07
2.410573e-07
8.0731662e-09
-4.1250032e-06
-1.9019933e-07
2.3339062e-07
2.3915823e-07
-1.9601086e-07
-3.1949172e-06
2.3183379e-07
-1.8638072e-07
2.4018456e-07
-1.917728e-07
-1.9675884e-07
2.3764267e-07
2.3293082e-07
-1.876139e-07
-2.120188e-08
-1.2550388e-05
3.9871802e-08
1.5961639e-05
9.1454368e-07
9.3979455e-07
-7.3414994e-07
-7.5143473e-07
-1.2369062e-05
1.5652571e-05
-3.6033484e-08
9.4169992e-07
9.0188408e-07
-7.3046512e-07
-7.4544898e-07
2.3927048e-08
-3.7032611e-08
9.3098443e-07
9.0408791e-07
-7.2566769e-07
-7.5440103e-07
4.5445572e-08
-7.5715524e-07
9.3209972e-07
9.1940813e-07
-7.2689002e-07
-4.0259045e-08
-1.2427395e-05
4.3595848e-08
1.5733032e-05
9.0732876e-07
9.3823019e-07
-7.2931167e-07
-7.525314e-07
-1.2570389e-05
1.5980733e-05
9.4453813e-07
9.1023584e-07
-7.4905258e-07
-7.3944649e-07
4.2189204e-08
-7.3203425e-07
9.1485437e-07
9.3700065e-07
-7.5478906e-07
4.4883043e-08
-7.609606e-07
9.2783526e-07
9.1003626e-07
-7.243436e-07
-2.847316e-08
-1.2568612e-05
4.7308199e-08
1.5978487e-05
9.1462184e-07
9.3990449e-07
-7.5359098e-07
-7.3461671e-07
-1.2426889e-05
1.5732287e-05
9.4272072e-07
9.0278146e-07
-7.3399716e-07
-7.4782219e-07
2.8376537e-08
-1.5748548e-05
-7.2893097e-07
9.0524537e-07
9.3252029e-07
-7.5627205e-07
-1.5965838e-05
9.1947577e-07
9.3216716e-07
-7.593374e-07
-7.2733718e-07
1.2428306e-05
3.6802753e-08
-7.1849911e-07
9.1519958e-07
9.435692e-07
-7.4420871e-07
3.8183167e-08
-7.2212345e-07
9.0630888e-07
9.4829173e-07
-7.3413325e-07
1.2565993e-05
-7.5047401e-07
9.4029534e-07
9.2675583e-07
-7.1955127e-07
-7.4288303e-07
9.4252377e-07
9.1557067e-07
-7.2492291e-07
1.5957941e-05
9.4406582e-07
9.0979788e-07
-7.3874097e-07
-7.4664451e-07
3.2435576e-06
-1.2796237e-08
2.6399978e-07
2.7148375e-07
-1.7353786e-07
-1.7836452e-07
-1.1338304e-08
4.1069968e-06
1.5445936e-07
7.7872722e-09
3.1927832e-06
-4.0415242e-06
2.6021465e-07
2.6979928e-07
-1.7222879e-07
-1.7840764e-07
3.2389932e-06
-4.1131914e-06
-1.7935314e-07
-1.7226189e-07
2.7001107e-07
2.6489604e-07
-7.9727538e-09
4.101487e-06
1.5429058e-07
4.0189224e-06
1.5500305e-07
-3.1907189e-06
8.958158e-09
-1.9405226e-07
2.3756234e-07
-1.9055681e-07
2.4853999e-07
2.3477356e-07
2.4219247e-07
-1.8950619e-07
-1.9626354e-07
-1.9187751e-07
2.4694392e-07
-1.9648424e-07
2.4040924e-07
-9.2993909e-09
-1.9583468e-07
2.2888577e-07
-1.933554e-07
2.3779646e-07
-3.1998852e-06
5.4630505e-09
-9.6042257e-09
-1.9483326e-07
2.2658056e-07
-1.9115726e-07
2.3693842e-07
-9.7622513e-09
2.2614385e-07
2.3250022e-07
-1.926304e-07
-2.0067463e-07
-1.9216572e-07
2.3647308e-07
-1.9652022e-07
2.2984753e-07
-2.5012823e-07
4.9943523e-05
1.6600551e-07
-2.8995856e-06
-2.7868049e-06
3.0186658e-06
3.1410118e-06
4.90288e-05
-1.3784375e-07
-2.7722245e-06
-2.8704777e-06
3.1649464e-06
2.9563664e-06
7.12446e-07
5.953487e-05
-1.2820181e-07
3.9237627e-07
1.5446943e-07
6.2399477e-05
2.6109296e-07
-2.0954678e-08
-1.2437235e-05
3.7733841e-08
1.5533101e-05
9.6787274e-07
9.9463575e-07
-6.7661536e-07
-6.6090026e-07
-1.2258546e-05
-3.3868171e-08
1.5227812e-05
9.9676562e-07
9.5508834e-07
-6.5716642e-07
-6.7058521e-07
-2.0284266e-08
-1.5869457e-05
3.8681224e-08
9.5960686e-07
9.733734e-07
-7.3843381e-07
-7.093286e-07
-1.5589348e-05
-3.4891373e-08
9.7186712e-07
9.4462272e-07
-7.077819e-07
-7.3587058e-07
1.2357158e-05
2.880913e-08
-3.5509063e-08
-7.2699423e-07
9.1462921e-07
9.4269345e-07
-7.5437408e-07
2.6736708e-08
-3.5529222e-08
-7.2010264e-07
9.1709806e-07
9.5820403e-07
-7.3431555e-07
-1.2538241e-05
3.2742619e-08
9.2698991e-07
9.5354486e-07
-7.4292981e-07
-7.2646616e-07
3.7191837e-08
-7.598194e-07
9.411867e-07
9.2730043e-07
-7.3112971e-07
1.2558129e-05
3.1699379e-08
-7.3490364e-07
9.2419376e-07
9.4712181e-07
-7.5639695e-07
3.0522411e-08
1.5897304e-05
-7.3032255e-07
9.238742e-07
9.595616e-07
-7.3945721e-07
-1.241519e-05
1.5680019e-05
4.290628e-08
9.2395389e-07
9.5668707e-07
-7.3960481e-07
-7.174935e-07
4.2898464e-08
-7.5905818e-07
9.4136941e-07
9.2207371e-07
-7.2419974e-07
-3.779783e-08
-1.2320416e-05
4.0843811e-08
1.5321357e-05
9.611229e-07
9.9442563e-07
-6.7689643e-07
-6.556124e-07
-1.2458335e-05
1.5560838e-05
9.9992265e-07
9.6415158e-07
-6.6552434e-07
-6.7403579e-07
-4.0144241e-08
4.2113037e-08
9.5146694e-07
9.7049846e-07
-7.4121399e-07
-7.0557625e-07
9.7881952e-07
9.5621181e-07
-7.1332594e-07
-7.3582709e-07
-4.9941178e-05
-4.9583001e-07
6.2439226e-05
2.5790135e-07
3.0051061e-06
-2.8032204e-06
-2.8826303e-06
3.1535772e-06
5.9470421e-05
-2.6586812e-08
-1.2456455e-05
1.5558501e-05
9.6824407e-07
9.955523e-07
-6.7825815e-07
-6.6096464e-07
-1.2319743e-05
1.5320436e-05
9.9862371e-07
9.5684392e-07
-6.6001149e-07
-6.7248529e-07