/*--------------------------------*- C++ -*----------------------------------*\
  =========                 |
  \\      /  F ield         | OpenFOAM: The Open Source CFD Toolbox
   \\    /   O peration     | Website:  https://openfoam.org
    \\  /    A nd           | Version:  7
     \\/     M anipulation  |
\*---------------------------------------------------------------------------*/
FoamFile
{
    version     2.0;
    format      ascii;
    class       volVectorField;
    location    "0";
    object      U;
}
// * * * * * * * * * * * * * * * * * * * * * * * * * * * * * * * * * * * * * //

dimensions      [0 1 -1 0 0 0 0];

internalField   nonuniform List<vector> 
34251
(
(0.088932762 -0.00017675143 -0.00066476643)
(0.088714166 -0.0001769963 0.00021548404)
(0.087808343 -0.00028010912 -0.0020006186)
(0.088846593 -0.00021527669 -0.0023792046)
(0.087806946 -9.1694406e-05 -0.0020014016)
(0.088841827 -0.00015677114 -0.0023827465)
(0.092420177 -0.00029563227 0.00052574186)
(0.090837651 -0.00032908793 -0.0019591928)
(0.0908372 -4.7243919e-05 -0.0019593243)
(0.087975492 -0.00023045183 0.0016769658)
(0.086651364 -0.00032602013 -0.00022354206)
(0.087973927 -0.0001413567 0.0016772471)
(0.086649653 -4.5735132e-05 -0.00022370899)
(0.085842215 -0.00034833641 -0.0045241873)
(0.085968875 -0.0001597069 -0.0044258095)
(0.088234742 -0.00024628901 -0.0043969933)
(0.087812261 -0.0002827877 -0.0044913179)
(0.085841011 -2.7954025e-05 -0.0045254027)
(0.08596803 -0.00021460026 -0.0044254421)
(0.087807226 -9.4635168e-05 -0.0044951463)
(0.088236922 -0.00012819345 -0.0043943213)
(0.092311693 -9.3373243e-05 -0.0011823919)
(0.092435669 -0.00020543463 0.00052643285)
(0.092428885 -0.00015676512 0.00052765245)
(0.092308402 -0.00027941145 -0.0011825514)
(0.093142315 -0.00025671651 0.0016121456)
(0.094200924 -0.00027168108 0.0012364577)
(0.093177699 -0.00014965751 0.0017004153)
(0.094263425 -0.00028311293 0.0011358496)
(0.091741984 -0.00026574203 0.0011546952)
(0.091726533 -0.00025685141 0.0011528149)
(0.090638304 -0.00027639477 0.0016171388)
(0.090620097 -0.00021115883 0.0016199434)
(0.091321607 -0.00048557695 -0.0050366903)
(0.091461087 -7.6412892e-05 -0.0049210564)
(0.091322048 0.00010899322 -0.0050370841)
(0.09146206 -0.00029785951 -0.0049211735)
(0.089763952 -0.0001986241 0.0016212012)
(0.089765349 -0.00017274032 0.0016206355)
(0.087733828 -0.00020454814 0.0039160355)
(0.088155542 -0.00027199721 0.0036740027)
(0.087724651 -0.0003033494 0.0037135657)
(0.087652647 -0.00026932501 0.003985297)
(0.084159713 -0.00035528894 0.002898243)
(0.084281835 -0.0001182661 0.0028927868)
(0.082412422 5.1661243e-06 -0.0017439083)
(0.082249365 -0.00049345357 -0.0017532218)
(0.088156087 -0.00010292035 0.0036716586)
(0.087722301 -7.3262153e-05 0.0037152538)
(0.087651218 -0.00010689736 0.0039856591)
(0.087732627 -0.00016943693 0.0039158285)
(0.084157886 -2.1043427e-05 0.0028986207)
(0.084280649 -0.00025580663 0.0028924264)
(0.082247865 0.00011734828 -0.0017530486)
(0.082411875 -0.00037950431 -0.0017440778)
(0.086705665 -0.00027877839 -0.0087858697)
(0.08413402 -0.00022219858 -0.0098440111)
(0.087106633 -0.00027296053 -0.0087159967)
(0.084079057 -9.6657043e-05 -0.0099225699)
(0.086761585 -0.00013784837 -0.0087751433)
(0.08420465 -0.00026179355 -0.0098200216)
(0.087170381 -0.00017287075 -0.0086690971)
(0.086702045 -0.00010005613 -0.0087901315)
(0.084134152 -0.00015331753 -0.0098439645)
(0.087109808 -0.00010280383 -0.0087135347)
(0.08420488 -0.00011298565 -0.0098209159)
(0.084079294 -0.00027790775 -0.0099217261)
(0.087167627 -0.00020213587 -0.0086720038)
(0.086765644 -0.00023797891 -0.0087713028)
(0.094039052 -4.8162114e-05 -0.0034604485)
(0.094088396 -0.00035972573 -0.0035391437)
(0.094978309 -0.0001893306 -0.00085416604)
(0.094914392 -8.2577116e-05 -0.00096641075)
(0.093196387 -5.8975935e-05 0.0017005119)
(0.093158429 -0.0001692131 0.0016125955)
(0.094215804 -0.00017844147 0.0012369065)
(0.09427608 -0.00019330553 0.0011359993)
(0.091762445 -0.0001806229 0.0011548031)
(0.094212927 -0.00018507524 0.0012377541)
(0.093192801 -0.00029801594 0.0016999131)
(0.093147353 -0.00018955664 0.0016133962)
(0.094267322 -0.00017261306 0.0011363073)
(0.091753385 -0.00016567935 0.0011537628)
(0.094087361 -1.2742507e-05 -0.0035391651)
(0.094035062 -0.00032643512 -0.0034603147)
(0.094971245 -0.00018176072 -0.00085317638)
(0.094912565 -0.00028608315 -0.00096650188)
(0.090663397 -0.00019745488 0.0016184606)
(0.090652254 -0.00012781377 0.0016201733)
(0.093166481 -0.00013864559 0.0026295121)
(0.093128173 -0.00021627829 0.0025442346)
(0.093846122 -0.00027664768 0.0023975291)
(0.092448298 -0.000295585 0.0019341265)
(0.093793089 -0.00026673362 0.0024896678)
(0.094472764 -0.00021956886 0.0022618965)
(0.094422146 -0.00031198465 0.0021432537)
(0.095634537 -0.00025218525 0.0018977467)
(0.093129069 -0.00025947133 0.0025441312)
(0.093166549 -0.00031451734 0.002624139)
(0.093851283 -0.00022966568 0.0024060137)
(0.093798781 -0.00025306899 0.0024943453)
(0.092485209 -0.00027171318 0.0018342867)
(0.094417896 -0.00012065499 0.0021080821)
(0.094475366 -0.00026462464 0.0022250184)
(0.09562294 -0.00032000832 0.0019628433)
(0.095660059 -0.00026288222 0.0018566836)
(0.091613581 -0.00024707134 0.0021048713)
(0.091551684 -0.00017140951 0.0019949806)
(0.09154357 -0.00034020299 0.001993437)
(0.092478145 -0.00025603852 0.0018344909)
(0.093125354 -0.00027791183 0.0025429004)
(0.093847891 -0.00031469266 0.0024051979)
(0.096701494 -0.00029274025 0.00091088231)
(0.089670754 -0.00027174801 0.0010082684)
(0.090280088 -0.00022251533 0.0025862169)
(0.091138055 -0.00024973598 0.0022072055)
(0.091079156 -0.00025281247 0.0023092868)
(0.090332885 -0.0001353476 0.0026759939)
(0.089651447 -0.00017738913 0.0010058723)
(0.090323728 -0.00034099849 0.002674362)
(0.091069964 -0.00024169973 0.0023110097)
(0.08840579 -0.00018338439 0.001816713)
(0.08838974 -0.00022428791 0.0018232506)
(0.092329077 -4.135276e-05 -0.0097855322)
(0.092228743 0.00014830775 -0.0098894593)
(0.092354002 -0.00045844493 -0.0097732644)
(0.09233132 -0.00033365918 -0.0097859461)
(0.092354406 8.4289337e-05 -0.0097734052)
(0.092230052 -0.00052232874 -0.0098892395)
(0.090786411 -0.00016229749 0.0021746454)
(0.090786425 -0.00021405028 0.0021747356)
(0.088669082 -0.00020969953 0.0061654127)
(0.089927065 -8.2231953e-05 0.0038923535)
(0.089844272 -0.00037606639 0.0038799287)
(0.088628128 -0.00023877223 0.0061785326)
(0.082911104 -0.00030927494 0.0075301789)
(0.083331653 -0.00031583353 0.0074963844)
(0.081469859 -9.8665608e-05 0.0058768889)
(0.081396461 -0.00041410911 0.0059511246)
(0.083381309 -0.00016276032 0.0074834422)
(0.082964409 -0.00012335118 0.0075185025)
(0.081422894 -1.0713686e-05 0.0059344916)
(0.081525978 -0.00035980881 0.0058685563)
(0.076357001 -0.00049098173 0.0023478438)
(0.075664939 -0.00057004256 -0.0065386087)
(0.075482072 0.00020887433 -0.0065537878)
(0.076208692 0.00011789319 0.0023473457)
(0.076293738 2.789709e-05 0.0023461036)
(0.076164605 -0.00054471531 0.0023487506)
(0.075592128 9.2573136e-05 -0.0065442768)
(0.089927764 -0.0002921502 0.00389232)
(0.08984547 -3.4209286e-07 0.0038801503)
(0.088629119 -0.00013779769 0.0061787954)
(0.08866939 -0.00016502223 0.0061654064)
(0.083333257 -6.0476746e-05 0.0074937702)
(0.08290951 -6.8697506e-05 0.0075326763)
(0.081396129 3.650525e-05 0.0059519205)
(0.081469464 -0.00027680912 0.0058765968)
(0.081526346 -1.4928325e-05 0.0058693661)
(0.083379642 -0.00021281241 0.0074863315)
(0.082965863 -0.00025156287 0.0075162339)
(0.081423179 -0.00036392746 0.0059341802)
(0.076163664 0.0001670788 0.0023491419)
(0.076293267 -0.00040333236 0.002345764)
(0.075592223 -0.00046818964 -0.0065446338)
(0.076209427 -0.00049268195 0.0023470394)
(0.076357323 0.00011628315 0.0023483003)
(0.075664631 0.00019517338 -0.0065386947)
(0.075482329 -0.00058338593 -0.0065539561)
(0.084150786 -0.00027660302 -0.019432565)
(0.084246773 -0.00016364162 -0.019325829)
(0.086696198 -0.00018882076 -0.015361888)
(0.086316946 -0.00017882709 -0.015481041)
(0.084144769 -0.00022684049 -0.019459254)
(0.084210027 -8.3031216e-05 -0.01934209)
(0.086297895 -0.00014771964 -0.015488525)
(0.086674469 -0.00014107837 -0.015400359)
(0.086722146 -0.00023346635 -0.015370286)
(0.084267612 -0.00027801161 -0.019321364)
(0.084185505 -0.00018910515 -0.019422635)
(0.086353423 -0.00027097945 -0.015458646)
(0.084248166 -0.00021201868 -0.019327381)
(0.084152199 -9.8702842e-05 -0.01943256)
(0.086695152 -0.00018722964 -0.015364765)
(0.086321576 -0.00019787026 -0.01547815)
(0.084186211 -0.00018583314 -0.019424116)
(0.084268306 -9.606457e-05 -0.019321333)
(0.086350835 -0.00010533792 -0.015462366)
(0.086725205 -0.00014102629 -0.015368254)
(0.084210622 -0.00029089663 -0.019342791)
(0.084145308 -0.00014752167 -0.019458464)
(0.086672644 -0.00023332019 -0.015402592)
(0.086301571 -0.00022812746 -0.015485144)
(0.088635125 -0.00017341695 0.00053417926)
(0.098802104 -6.5650242e-05 -0.0042062668)
(0.096469075 -0.00045153365 -0.0077325904)
(0.098880286 -0.00016171025 -0.0041129291)
(0.098812134 -0.0002238456 -0.004209474)
(0.096439614 -0.00038765466 -0.0076624666)
(0.096477765 9.8690656e-05 -0.0077204115)
(0.098294334 -0.00019847832 -5.5227199e-05)
(0.096746431 6.3039943e-06 0.00099922976)
(0.096673293 -0.00010807179 0.00086604589)
(0.096721669 -0.00031679933 0.00095292094)
(0.09830084 -0.00019402319 -9.3685802e-05)
(0.098361065 -0.00014220415 -0.00020504909)
(0.093149289 -0.00016899795 0.002544226)
(0.093185443 -0.00022571921 0.0026244984)
(0.093815943 -0.00016294542 0.0024943474)
(0.093869701 -0.00013767414 0.0024061388)
(0.092506454 -0.00018378051 0.0018348661)
(0.093144529 -0.00013000823 0.0025444682)
(0.09318402 -5.1026812e-05 0.0026294606)
(0.093808827 -0.00017790817 0.0024898932)
(0.092466733 -0.00021052203 0.0019343685)
(0.094489768 -0.00012628388 0.0022618372)
(0.094437737 -0.00022056889 0.0021434594)
(0.095648136 -0.00015949155 0.001897844)
(0.095597159 -0.00010360968 0.0020008839)
(0.094432345 -3.0579044e-05 0.0021080723)
(0.095672697 -0.00017167005 0.0018567235)
(0.091575603 -8.6519615e-05 0.0019954145)
(0.091634554 -0.0001646828 0.0021057714)
(0.095596096 -0.00026126574 0.0020010291)
(0.094432916 -0.00014161282 0.0021437724)
(0.094488534 -0.00023579065 0.0022611931)
(0.095643813 -0.00020589707 0.0018981226)
(0.09314715 -0.00018605883 0.0025436444)
(0.09381106 -0.00019585097 0.0024938961)
(0.093867798 -0.00022128514 0.0024057193)
(0.093179758 -0.00012951825 0.0026250056)
(0.092502347 -0.0001654953 0.0018350897)
(0.093131073 -0.00022715941 0.0025451543)
(0.093174217 -0.00030478649 0.0026290533)
(0.093799879 -0.00018151875 0.0024904842)
(0.092453659 -0.00014015696 0.0019337852)
(0.093848738 -0.00017211194 0.0023981565)
(0.094477177 -0.00018855196 0.0022261521)
(0.095624467 -0.00013714435 0.001962996)
(0.094424652 -0.00033228215 0.002108003)
(0.095666059 -0.00019448007 0.0018567578)
(0.091570727 -0.00025313895 0.0019946054)
(0.091619511 -0.00017658027 0.0021066292)
(0.098809228 -0.00014778146 -0.0042095485)
(0.098879976 -0.00020996972 -0.004113839)
(0.096475977 -0.00047190426 -0.0077202114)
(0.096439244 1.4790923e-05 -0.0076627464)
(0.09646654 7.7504619e-05 -0.0077326162)
(0.098864941 -0.00022265046 -0.004104304)
(0.098798654 -0.00030676493 -0.0042060865)
(0.096422971 -0.00042355508 -0.0076754695)
(0.098289626 -0.00017220384 -5.4736536e-05)
(0.096740664 -0.00037496114 0.00099893588)
(0.096703046 -0.00016796859 0.00091159585)
(0.098352505 -0.00017190573 -0.00016292263)
(0.09836016 -0.00022763177 -0.00020546565)
(0.096717814 -5.1097258e-05 0.00095345899)
(0.096672202 -0.00025933261 0.00086569545)
(0.098297658 -0.00017585688 -9.3936921e-05)
(0.089698421 -0.00019932115 0.0010085062)
(0.090304582 -0.00014592783 0.0025876115)
(0.09116085 -0.00017006695 0.0022080708)
(0.091104826 -0.00017114662 0.0023105547)
(0.090360571 -5.6958712e-05 0.0026768538)
(0.08968628 -0.00010212726 0.0010070074)
(0.090354923 -0.00026116286 0.0026757423)
(0.091099191 -0.00015814114 0.0023116117)
(0.091144975 -0.0001611022 0.0022076284)
(0.090287671 -0.00017347077 0.0025880822)
(0.08843593 -0.00011786155 0.0018189677)
(0.088425535 -0.00015713385 0.0018232991)
(0.093339792 -0.00023644803 0.0030775281)
(0.0933958 -0.00021990381 0.0029897046)
(0.092755605 -0.00028281824 0.0023719565)
(0.092979239 -0.00025501262 0.0029917983)
(0.093017465 -0.00027163904 0.0030768624)
(0.093383317 -0.00026865263 0.0029852152)
(0.093333182 -0.00027165495 0.0030742503)
(0.092716737 -0.00028688524 0.0024631187)
(0.09301763 -0.0001525739 0.0030817732)
(0.092972557 -0.00018853971 0.0029916543)
(0.093621091 -0.00022607528 0.0030184828)
(0.094076452 -0.00028783708 0.0028876603)
(0.093569031 -0.00013826928 0.0029051802)
(0.094117652 -0.00027619679 0.0027855502)
(0.092108371 -0.00015685669 0.002497308)
(0.092163293 -0.00022809746 0.0025989438)
(0.093574475 -0.00025170303 0.0029425118)
(0.094092244 -0.00021278552 0.0028297587)
(0.093625512 -0.00021508481 0.0030567122)
(0.094041448 -0.00020105134 0.0029266084)
(0.094436734 -0.00034022097 0.0031192823)
(0.094395204 -0.00028485694 0.0030252628)
(0.094882094 -0.00021472276 0.0029607795)
(0.094934062 -0.00023373408 0.0028546617)
(0.094366733 -0.00023345081 0.0029784793)
(0.094945615 -0.00027661848 0.0028096483)
(0.094416035 -0.00017266244 0.0030765891)
(0.09489088 -0.00024689994 0.0029205336)
(0.095389832 -0.00026847258 0.0028868514)
(0.096186559 -0.00031905078 0.0027024452)
(0.095328593 -0.00018391518 0.0027888709)
(0.096218969 -0.00027114699 0.0026115861)
(0.093332093 -0.00022919874 0.0030724089)
(0.093383513 -0.00022573206 0.0029841206)
(0.092716945 -0.000211126 0.0024597564)
(0.09296766 -0.00029681558 0.0029894901)
(0.093012059 -0.00032683654 0.0030770034)
(0.093394237 -0.00028639064 0.0029897509)
(0.093342 -0.00026717633 0.0030753969)
(0.092755792 -0.00023628444 0.0023744586)
(0.093016851 -0.00020463761 0.0030767691)
(0.092977398 -0.00021891906 0.0029901367)
(0.093569573 -0.00034059089 0.0029133242)
(0.094113625 -0.00022318828 0.0027978153)
(0.093620391 -0.00026559493 0.0030267933)
(0.094071093 -0.0002108869 0.0028983453)
(0.093625417 -0.00025458112 0.0030575886)
(0.09404172 -0.00029979404 0.0029312584)
(0.093576247 -0.00022168481 0.0029453325)
(0.094092997 -0.0002879491 0.0028333166)
(0.092114343 -0.00029543864 0.0024910999)
(0.092165707 -0.00023952008 0.0025871877)
(0.094416868 -0.00030569938 0.0030649686)
(0.094896156 -0.00026181942 0.0029103528)
(0.094366393 -0.00023533571 0.0029721159)
(0.09494813 -0.00022706082 0.0027998709)
(0.094402233 -0.00021141699 0.0030148667)
(0.094944769 -0.00027065354 0.0028417733)
(0.094441785 -0.00014462061 0.0031124025)
(0.094889399 -0.00029293644 0.0029488692)
(0.095384927 -0.00024811262 0.0028899698)
(0.096194213 -0.00030667227 0.0026940045)
(0.095328943 -0.00013744199 0.002781829)
(0.096236847 -0.00028223529 0.0025966666)
(0.095337429 -0.00029699101 0.0027771634)
(0.09623657 -0.00024495415 0.0026034924)
(0.095392369 -0.00020438089 0.0028804897)
(0.096194436 -0.0001962405 0.0026930449)
(0.091629356 -0.00015597505 0.00269618)
(0.091592532 -0.0001886 0.0026001623)
(0.091889722 -0.0002477343 0.0024584723)
(0.091834729 -0.000290117 0.0025629345)
(0.091549429 -0.00026277086 0.0025591263)
(0.091603088 -0.00029827975 0.0026526434)
(0.091838245 -0.00024688139 0.002526316)
(0.091885743 -0.00024009004 0.0024178704)
(0.091590342 -0.00020896728 0.002653176)
(0.09154518 -0.00024415819 0.002557873)
(0.091881765 -0.00027545492 0.0024171831)
(0.091826271 -0.00026835338 0.002525012)
(0.092713666 -0.00031936382 0.0024594894)
(0.092162506 -0.00028369833 0.0025853755)
(0.092744852 -0.00029460276 0.0023740378)
(0.092102424 -0.00022763251 0.0024911063)
(0.091608628 -0.00035201421 0.0026944439)
(0.093331627 -0.00027132452 0.0030753808)
(0.093007211 -0.00033079257 0.0030757249)
(0.093380185 -0.00031338796 0.0029829214)
(0.093328825 -0.00030909709 0.0030714394)
(0.093007859 -0.00020841124 0.0030769202)
(0.09296485 -0.00023861012 0.0029885578)
(0.093618236 -0.00027673622 0.0030255608)
(0.094069585 -0.00033449228 0.0028979056)
(0.093565414 -0.00020115764 0.0029131292)
(0.096914265 -0.00033555858 0.0026429721)
(0.096872664 -0.00024878849 0.0025676219)
(0.098236646 -0.00030895231 0.0023591135)
(0.096914658 -0.00010085978 0.0026537867)
(0.089372314 -0.00020770076 0.0020918203)
(0.089238928 -0.00034705936 0.0021900254)
(0.087592314 -0.00024348542 0.0026143246)
(0.088014937 -0.00026300161 0.0025354665)
(0.090242898 -0.00010117518 0.0037767797)
(0.090187834 -0.00021966649 0.0036964909)
(0.09092864 -0.00026039456 0.0031385419)
(0.090979994 -0.00023549658 0.0030444815)
(0.091440925 -0.00025792087 0.002496518)
(0.091189232 -0.00020521527 0.0027421109)
(0.091133962 -0.00013662374 0.0026308351)
(0.091478587 -0.00027539647 0.0023965857)
(0.091452439 -0.00019116012 0.0024385756)
(0.091138284 -0.00024793012 0.0026668434)
(0.091186306 -0.00022731039 0.0027807619)
(0.091398127 -0.00021065561 0.0025351706)
(0.09019815 -0.00020207117 0.0036926759)
(0.090249764 -0.00030875596 0.0037687002)
(0.090987481 -0.00021711912 0.0030523018)
(0.090936019 -0.00021112893 0.0031418308)
(0.088006378 -0.00017586722 0.0025298713)
(0.089363469 -0.00025022352 0.0020924117)
(0.087563729 -0.00019462892 0.0026190399)
(0.090236143 -0.00016267652 0.0037691672)
(0.090192947 -0.00026947145 0.0036912583)
(0.09092328 -0.00026952576 0.0031403885)
(0.090982444 -0.00026417063 0.0030516117)
(0.091182142 -0.00026250289 0.0027794056)
(0.091125229 -0.00024194984 0.0026673488)
(0.091394002 -0.00028782082 0.0025354559)
(0.091439375 -0.00030790699 0.0024383776)
(0.091111599 -0.00035384184 0.0026294559)
(0.091457162 -0.0002243905 0.0023960484)
(0.088025699 -0.00022785864 0.0014158176)
(0.08801451 -0.00017857791 0.0014157508)
(0.0938107 0.00016947823 -0.01652331)
(0.093926665 -0.00055994274 -0.016402929)
(0.093802443 0.00024278783 -0.016550527)
(0.093926889 -0.00045274042 -0.016409921)
(0.093944213 0.00010341502 -0.016396433)
(0.093824216 -0.00064345141 -0.016521371)
(0.09392871 0.00018480508 -0.016403532)
(0.093813297 -0.00054436769 -0.016523426)
(0.093825116 0.00026900357 -0.016521966)
(0.093945638 -0.00047704577 -0.01639656)
(0.093927414 7.9317577e-05 -0.016409904)
(0.093803406 -0.0006166504 -0.01655008)
(0.092351583 -0.0001633106 0.0021045198)
(0.092348045 -0.00020916956 0.0021045414)
(0.092242698 -0.00020125134 0.008277141)
(0.085440787 -0.00041201139 0.0091106398)
(0.08536529 2.872515e-05 0.0090974592)
(0.091899894 -5.8802025e-05 0.0048091459)
(0.091878841 -0.00036987548 0.0048113292)
(0.09223 -0.00022541905 0.0082799164)
(0.085422541 -4.3431787e-05 0.0091167647)
(0.085341421 -0.00045999812 0.0091051409)
(0.08032106 -0.0002408208 0.011233544)
(0.08027917 -0.00024459707 0.011249957)
(0.080299671 -0.00018476447 0.011245973)
(0.08034116 -0.00020524999 0.011230555)
(0.072740515 -0.0002496645 0.010206752)
(0.072333149 -0.00029826458 0.010239358)
(0.068457273 0.0001678332 0.004298866)
(0.0683324 -0.00063883851 0.0043746631)
(0.063256813 0.00050033479 -0.0043792545)
(0.063066428 -0.00097023762 -0.0043943525)
(0.068797634 0.00010302758 -0.018294414)
(0.06863656 -0.00058826503 -0.018331379)
(0.062998604 0.000553383 -0.0044012381)
(0.06319157 -0.00087591439 -0.004383894)
(0.068579476 0.00017333864 -0.018358159)
(0.06873806 -0.00046144878 -0.018303257)
(0.068286453 0.00022345518 0.0043925495)
(0.072695445 -0.00010898459 0.010213377)
(0.072274643 -0.00011254675 0.010258765)
(0.068404126 -0.00054411197 0.004305692)
(0.072308671 -0.00016454285 0.01024179)
(0.072718973 -0.00019099783 0.010203443)
(0.068300174 0.00017727888 0.0043745838)
(0.068439165 -0.00060707168 0.0043004059)
(0.072667974 -0.00032603934 0.010217022)
(0.072247794 -0.00031345591 0.010256771)
(0.06837303 0.00011037232 0.0043067163)
(0.063028889 0.00050498416 -0.004397759)
(0.063235217 -0.00094074248 -0.0043835263)
(0.06877613 -0.00054997627 -0.018299664)
(0.068602064 0.0001161897 -0.018333413)
(0.091901106 -0.00031381581 0.0048093379)
(0.091882838 -4.6850115e-06 0.0048113334)
(0.092234045 -0.00014922091 0.008280316)
(0.08534286 8.2893544e-05 0.0091059606)
(0.085424334 -0.00033195578 0.0091168666)
(0.092244029 -0.00017160728 0.0082772555)
(0.085365985 -0.00040292841 0.0090971623)
(0.085441119 3.7457738e-05 0.0091110364)
(0.080280536 -0.00013282094 0.01125067)
(0.080322109 -0.00013508623 0.011233816)
(0.080341824 -0.00016970191 0.011230903)
(0.080299995 -0.00018981566 0.011245915)
(0.072669467 -5.1780648e-05 0.010215174)
(0.072247477 -6.5628711e-05 0.010259138)
(0.06837309 -0.00048684843 0.0043070942)
(0.06843985 0.00023120865 0.0043005974)
(0.068301165 -0.00055301392 0.004374904)
(0.072309971 -0.00021188301 0.010240156)
(0.072718503 -0.00018622848 0.010206121)
(0.063235644 0.00056500186 -0.0043837333)
(0.063029892 -0.0008807345 -0.0043980516)
(0.068776343 0.00017412133 -0.018300882)
(0.068602976 -0.00049152662 -0.018334009)
(0.068404745 0.00016995104 0.0043056226)
(0.068287306 -0.00059820974 0.0043926283)
(0.072275797 -0.00026308285 0.010256928)
(0.072694887 -0.0002666017 0.010215692)
(0.068332186 0.00026353207 0.0043746055)
(0.068457376 -0.00054216692 0.0042989393)
(0.072741953 -0.00012602921 0.010204563)
(0.072332854 -7.7782035e-05 0.01024144)
(0.063065867 0.00059494721 -0.0043944845)
(0.063256734 -0.00087454883 -0.0043794313)
(0.068636618 0.00021334461 -0.018332139)
(0.068798276 -0.00047729022 -0.018294597)
(0.063191999 0.00050186928 -0.0043839263)
(0.062999485 -0.00092801979 -0.0044013293)
(0.06873798 8.7325045e-05 -0.018303717)
(0.068580023 -0.00054766628 -0.018358027)
(0.088545321 -0.00017252146 -0.00010067807)
(0.090310032 0.00015016715 -0.032446694)
(0.090353944 -0.00058609204 -0.032540632)
(0.088292385 -0.00020486395 -0.023907739)
(0.08861913 -0.00017513709 -0.023823145)
(0.090368387 0.00010573452 -0.0324995)
(0.090349059 -0.00058683788 -0.032423225)
(0.088658884 -0.00025896403 -0.023798412)
(0.08833322 -0.00027202904 -0.023875964)
(0.090303353 0.00019588481 -0.032460612)
(0.090352477 -0.00054241044 -0.032551743)
(0.088284381 -0.00016553041 -0.023913094)
(0.08861164 -0.00014255594 -0.023839601)
(0.090359413 0.0001680696 -0.032511605)
(0.090355163 -0.00053911929 -0.032428481)
(0.088656168 -0.000225546 -0.02379264)
(0.088326442 -0.00022035394 -0.0238935)
(0.090367221 0.00014355546 -0.032421934)
(0.090383854 -0.00054625286 -0.032503504)
(0.088348633 -0.00016630051 -0.023880848)
(0.088676914 -0.00018052791 -0.023794092)
(0.090367714 0.00012740302 -0.032537269)
(0.090323112 -0.00059800933 -0.032448589)
(0.088634416 -0.00026729281 -0.023826804)
(0.088307514 -0.00025229809 -0.023902409)
(0.090351347 0.00021183018 -0.032423963)
(0.090371408 -0.00048156984 -0.03250248)
(0.088334206 -0.00010474227 -0.023878689)
(0.088661405 -0.00011628995 -0.023798714)
(0.090356164 0.00021106455 -0.03254073)
(0.090312924 -0.00052509172 -0.032448927)
(0.088620861 -0.00019999723 -0.023824409)
(0.088295614 -0.0001713056 -0.023906664)
(0.090324566 0.00022402175 -0.032448772)
(0.090369872 -0.00050232247 -0.032539563)
(0.088307762 -0.00012367993 -0.023904748)
(0.088636152 -0.00010702794 -0.023826806)
(0.090385118 0.00017237376 -0.032503189)
(0.090369156 -0.00051738193 -0.032423719)
(0.088677829 -0.00019354826 -0.023795101)
(0.08835105 -0.00020865604 -0.023879493)
(0.090355761 0.0001656578 -0.032427951)
(0.09036074 -0.00054196195 -0.032513276)
(0.088326043 -0.00015454069 -0.023895388)
(0.088657259 -0.00014820832 -0.02379214)
(0.09035264 0.00016829594 -0.032550624)
(0.090304358 -0.00056939134 -0.032461636)
(0.088611832 -0.00023124713 -0.023840148)
(0.088285979 -0.00020974894 -0.023911331)
(0.088669025 -0.00011764747 0.00053488043)
(0.10251689 -0.00031749228 -0.0022894957)
(0.10344186 -0.00011997261 -0.0044456039)
(0.10246956 -7.3823351e-05 -0.00238525)
(0.1035168 -0.00019997924 -0.0045793012)
(0.1029684 -0.0001468101 -0.0099202336)
(0.099138211 0.00017844372 -0.013533763)
(0.10304937 -0.00018149173 -0.0098213755)
(0.099105447 -0.00042795002 -0.013476205)
(0.1025489 -0.00036238199 -0.002252019)
(0.10251424 -0.00011828533 -0.0023500314)
(0.10344634 -6.8618544e-05 -0.0044137345)
(0.10352448 -0.00019525192 -0.0045460556)
(0.10247226 -0.00023897812 -0.0023906911)
(0.10252313 2.4060079e-06 -0.0022922338)
(0.10351995 -0.00014659155 -0.0045808647)
(0.10345035 -0.00022409267 -0.0044476426)
(0.10297092 -0.00021670335 -0.0099160874)
(0.099143141 0.00018143319 -0.013541392)
(0.10304933 -0.0002340923 -0.0098181218)
(0.099104712 -0.00043965511 -0.013488632)
(0.10305337 -0.00011416413 -0.0098221155)
(0.10297806 -0.00015453273 -0.0099176209)
(0.09911048 0.00010109378 -0.013472282)
(0.099148842 -0.00050672624 -0.01352974)
(0.099415833 -0.00025607931 0.0014897164)
(0.099478445 -5.6135706e-05 0.0016258305)
(0.10130702 -0.00015341912 0.00057239803)
(0.10125628 -9.3803673e-05 0.00068611004)
(0.096925518 -0.00024418053 0.0026430824)
(0.096884682 -0.00012097522 0.0025630098)
(0.09819666 -0.00018723152 0.0024597544)
(0.098257046 -0.00011298126 0.0023632419)
(0.096858044 -0.00016147213 0.0025522216)
(0.096902878 -0.00030632451 0.0026345697)
(0.098180656 -0.00017808265 0.0024410223)
(0.098236921 -0.00010899032 0.0023431522)
(0.096876902 -0.00019212667 0.0025520941)
(0.09690981 -6.7713315e-05 0.002634189)
(0.098254926 -0.00024338879 0.0023544477)
(0.098191203 -0.00015949337 0.0024463599)
(0.099477652 -0.00026329536 0.0016136011)
(0.099413543 -5.7835206e-05 0.0014780052)
(0.10125895 -0.00026196146 0.00067852623)
(0.1013111 -0.00019233532 0.00056109946)
(0.099406457 -0.00035699731 0.0014394187)
(0.099470332 -9.9957725e-05 0.00157499)
(0.10133601 -0.0001618036 0.00051731944)
(0.10129655 -8.8789175e-05 0.00063504714)
(0.093351879 -0.00013907949 0.00307247)
(0.09340346 -0.00013464527 0.0029841699)
(0.092738594 -0.00012207509 0.0024602656)
(0.092988641 -0.00020652774 0.0029896366)
(0.093032666 -0.00023740244 0.003077286)
(0.093412568 -0.00019760466 0.0029899175)
(0.093360424 -0.00017771866 0.0030755852)
(0.09277593 -0.00014879727 0.0023748333)
(0.093036423 -0.00011582352 0.0030768012)
(0.092996616 -0.00013084176 0.0029903)
(0.093642758 -0.00016517356 0.0030578258)
(0.094058155 -0.00020974367 0.0029313315)
(0.093594052 -0.00013147862 0.0029453863)
(0.09411011 -0.00019698769 0.0028333487)
(0.093588378 -0.00024974321 0.0029135065)
(0.094131455 -0.00013153562 0.0027979702)
(0.093639717 -0.00017379769 0.0030268146)
(0.094089595 -0.00011837191 0.0028985071)
(0.092135867 -0.00020943922 0.0024917225)
(0.092188869 -0.00015192893 0.0025875648)
(0.093348995 -0.00018473351 0.0030743013)
(0.092734219 -0.00020184933 0.0024633085)
(0.092989134 -0.00010280544 0.002991623)
(0.093034538 -6.6261213e-05 0.003081554)
(0.093356811 -0.00014898192 0.0030772416)
(0.09341293 -0.00013169599 0.0029894221)
(0.09277446 -0.00019649079 0.0023721782)
(0.093035338 -0.00018480361 0.0030768431)
(0.092997437 -0.00016751675 0.0029915949)
(0.093590551 -0.00016361548 0.0029425547)
(0.093642055 -0.00012624428 0.003056565)
(0.094107441 -0.00012381812 0.0028297627)
(0.094057192 -0.00011156645 0.0029266157)
(0.092128676 -7.1893058e-05 0.0024975758)
(0.092182121 -0.00014431934 0.0025995338)
(0.094453752 -0.00024795551 0.003119551)
(0.094412933 -0.00019169621 0.0030253043)
(0.094898073 -0.00012181025 0.0029608251)
(0.094950789 -0.00013981204 0.0028546778)
(0.09438245 -0.00014269533 0.0029786943)
(0.094960331 -0.00018517219 0.0028098656)
(0.094432471 -8.1048297e-05 0.0030765829)
(0.094906277 -0.00015468512 0.0029207188)
(0.095403702 -0.00017642317 0.0028872193)
(0.096199528 -0.00022648236 0.0027025818)
(0.095343331 -9.1057627e-05 0.0027889667)
(0.096232731 -0.00017767162 0.0026116213)
(0.095333239 -0.00025625605 0.002797007)
(0.096225724 -0.00013591183 0.0026131677)
(0.095385092 -0.00015909813 0.0029055386)
(0.096179892 -0.0001081418 0.0027083269)
(0.094381427 -0.00014526351 0.0029720919)
(0.094962273 -0.00013629356 0.0027998337)
(0.095405942 -0.00011303129 0.0028803824)
(0.096248502 -0.00015407981 0.0026035884)
(0.096207106 -0.00010438262 0.0026930728)
(0.091638025 -9.6030581e-05 0.0021067697)
(0.091574777 -0.0001782952 0.0025598089)
(0.091626929 -0.00021510185 0.0026536492)
(0.091860881 -0.00016228452 0.0025268971)
(0.091909868 -0.00015399017 0.0024185862)
(0.091613656 -0.00010742482 0.0026010776)
(0.091651857 -7.3688218e-05 0.0026968059)
(0.091909668 -0.00016521096 0.0024591366)
(0.091855975 -0.00020653982 0.0025637173)
(0.091164982 -8.3052509e-05 0.0022083749)
(0.090309108 -9.8269635e-05 0.002588837)
(0.095384928 -0.00020522574 0.0029047192)
(0.096179709 -0.00025739952 0.0027080912)
(0.095330587 -0.00010766882 0.0027970541)
(0.096223349 -0.00022959373 0.0026133583)
(0.094428673 -0.00028023889 0.0030761598)
(0.094376911 -0.00021888973 0.0029790902)
(0.094902791 -0.0002079714 0.0029209477)
(0.094955072 -0.00017824032 0.0028103834)
(0.094412161 -0.00016954313 0.0030248422)
(0.094950151 -0.00022306541 0.0028540873)
(0.094451305 -0.00011323877 0.0031198885)
(0.094895741 -0.00024070018 0.0029605366)
(0.095340387 -0.00027301662 0.0027889888)
(0.095398212 -0.00018854006 0.0028880877)
(0.096229833 -0.00018799863 0.0026114643)
(0.096194423 -0.00013972629 0.0027028388)
(0.093401432 -0.00022163852 0.0029834953)
(0.093350249 -0.00021664656 0.003072056)
(0.09273671 -0.00022902048 0.0024602273)
(0.093030361 -0.00011660341 0.0030774838)
(0.092986946 -0.00014765581 0.0029891893)
(0.093588988 -0.0002262826 0.0029453931)
(0.094105862 -0.00016273359 0.002833132)
(0.093636779 -0.0001931268 0.0030585245)
(0.094052329 -0.00015019559 0.0029314562)
(0.093638478 -0.00018423844 0.0030261187)
(0.094088768 -0.00024127373 0.0028982909)
(0.093586205 -0.00010792771 0.0029135038)
(0.094129073 -0.00022808823 0.0027980975)
(0.093354409 -0.00017810637 0.0030759792)
(0.093406969 -0.00015907049 0.0029905956)
(0.092769584 -0.00020251538 0.0023748995)
(0.093030818 -0.00023825517 0.0030765243)
(0.092990407 -0.00022372594 0.0029906543)
(0.092128725 -0.0001372405 0.0024919885)
(0.092186997 -0.00019490623 0.0025865711)
(0.093335531 -0.00017259333 0.0030748199)
(0.093385943 -0.00017640724 0.0029860433)
(0.092719295 -0.00015116152 0.0024632783)
(0.092974799 -0.00025369285 0.0029921985)
(0.093020896 -0.00028929295 0.0030814298)