/*--------------------------------*- C++ -*----------------------------------*\
  =========                 |
  \\      /  F ield         | OpenFOAM: The Open Source CFD Toolbox
   \\    /   O peration     | Website:  https://openfoam.org
    \\  /    A nd           | Version:  7
     \\/     M anipulation  |
\*---------------------------------------------------------------------------*/
FoamFile
{
    version     2.0;
    format      ascii;
    class       volScalarField;
    location    "1000";
    object      k;
}
// * * * * * * * * * * * * * * * * * * * * * * * * * * * * * * * * * * * * * //

dimensions      [0 2 -2 0 0 0 0];

internalField   nonuniform List<scalar> 
34378
(
1.5709586
1.6293322
1.5987804
1.5695111
1.5400897
1.6005524
1.5364205
1.5510961
1.7184233
1.5508025
1.7218676
1.6344081
1.6494675
1.6552516
1.5590425
1.5576681
1.597386
1.5965224
1.5373408
1.5377094
1.6562655
1.559392
1.5331271
1.5290091
1.5329195
1.5589995
1.5589561
1.5577223
1.5336993
1.5334438
1.5592399
1.5361467
1.5362753
1.886435
1.6233282
1.5514438
1.5363754
1.5362135
1.5587896
1.5589952
1.6233717
1.6232565
1.8899929
1.7275871
1.8890874
1.5513916
1.7332545
1.7049649
1.7116279
1.6481869
1.6072648
1.6065281
1.7193995
1.7173341
1.6106887
1.6101279
1.5555027
1.5562774
1.6536657
1.6492654
1.5550702
1.6509089
1.5552806
1.7177016
1.7194685
1.6106689
1.6107059
1.5260772
1.5300637
1.5301973
1.5504126
1.5514806
1.546642
1.5457982
1.537887
1.5324454
1.5330806
1.5385235
1.527604
1.53895
1.5332713
1.5276725
1.5256047
1.5256574
1.5398128
1.5402245
1.5406407
1.5401871
1.5468405
1.5514046
1.6165313
1.6169988
1.6162925
1.6164637
1.6134602
1.6132704
1.5548094
1.5560309
1.5549414
1.5551679
1.5308854
1.5305373
1.5565394
1.5333948
1.5335202
1.7926342
1.7925793
2.1031504
2.1061693
1.5968354
1.5962417
1.6646187
1.6639056
1.5584344
1.5379467
1.5376304
1.5583699
1.5335947
1.5334133
1.5561686
1.5563914
1.6233587
1.5965854
1.5964801
1.664961
1.6651752
1.5966724
1.5961999
1.6644334
1.6645883
1.7964306
1.7961323
2.1057826
1.8972074
2.1151582
1.9064322
1.623079
1.7960249
1.7921769
2.1022883
2.1166492
1.5584603
1.5375236
1.5378063
1.5586971
1.6242589
1.6242121
1.9111358
1.9144901
1.7057766
1.7566944
1.7610853
1.6649874
1.6640564
1.7692177
1.7710117
1.6677878
1.6663918
1.7075876
1.6041089
1.6042669
1.7799634
1.7823597
1.6709015
1.6717063
1.7777222
1.7739776
1.671479
1.6705145
1.7163196
1.7156276
1.6082296
1.6079384
1.7074665
1.7119283
1.6051861
1.6045587
1.6058546
1.7128799
1.7133548
1.6065409
1.7729314
1.7800226
1.6723718
1.6705288
1.7805663
1.7782183
1.6727791
1.6719782
1.5298491
1.5350845
1.5356525
1.5297806
1.5432352
1.5430525
1.547459
1.5477238
1.5437459
1.5483844
1.5474509
1.5426275
1.6036264
1.6085374
1.6084536
1.6036836
1.611313
1.611539
1.6066176
1.6063214
1.5986474
1.5954048
1.5955303
1.5985035
1.5959805
1.5935211
1.5933322
1.5959668
1.579009
1.5724225
1.5717858
1.5791927
1.5591391
1.5585142
1.5505113
1.5510986
1.5285118
1.5524332
1.5523086
1.5603032
1.528933
1.5604629
1.5735057
1.5733899
1.580618
1.5808619
1.5263136
1.5259997
1.5822726
1.5745241
1.5746727
1.5819033
1.5527153
1.5530628
1.5608324
1.5609566
1.5290941
1.5288386
1.5264389
1.5262341
1.5242358
1.5249167
1.5254335
1.524405
1.5251249
1.52398
1.5240086
1.5254315
1.5252401
1.5244881
1.5243986
1.5250847
1.5993738
1.5960269
1.5964123
1.5989389
1.6070606
1.6111499
1.6116109
1.6066507
1.680735
1.6812312
1.6814994
1.6793029
1.6799847
1.6805811
1.679115
1.6797982
1.674984
1.6763528
1.6729044
1.6740453
1.6094581
1.6100113
1.6146051
1.6140212
1.6112853
1.6108344
1.6121026
1.6127989
1.5336962
1.5336525
1.527494
1.5271651
1.5526088
1.6038434
1.6032526
1.5303595
1.530504
1.7615309
1.7645535
1.9042225
1.910986
1.764953
1.7615894
1.9134913
1.9006842
2.1321983
2.1429183
2.2475625
2.2297509
2.2562638
2.2354328
2.1478629
2.1200983
1.6727886
1.6721087
1.5553877
1.5348997
1.5345914
1.5554889
1.530606
1.5304159
1.5522558
1.6036603
1.6037233
1.5525019
1.6033381
1.6034746
1.5959867
1.5959126
1.6648294
1.6662672
1.6733138
1.6734189
1.6724867
1.6727833
1.7957844
1.7639297
1.7651796
1.9123981
1.9157417
1.7653786
1.7639179
1.9163916
1.9096624
2.1518966
2.1589083
2.225601
2.2357221
2.1086239
1.8057868
2.1356611
2.1615747
2.2527772
2.2468598
2.1445697
1.7982112
1.8045035
2.1397753
2.1454834
1.5962233
1.5953904
1.6663873
1.6639742
1.765165
1.7650451
1.9142843
1.9126903
1.7639318
1.760712
1.9127697
1.899949
2.1495681
2.1203115
2.2482766
2.2246202
2.1539605
2.2571554
2.1488968
2.2558143
1.5555477
1.5344163
1.5347423
1.5558186
1.5966923
1.5964972
1.6676281
1.6672465
1.5970713
1.5966883
1.6668022
1.6671671
1.806092
2.1526084
1.8021573
2.1445913
1.8087749
2.1494623
1.8086
2.1576588
1.7602521
1.7563391
1.6627486
1.6619242
1.8368653
1.8292323
1.7041024
1.7050554
1.8452335
1.8407539
1.7062487
1.7071507
1.8620029
1.8531213
1.7085042
1.7095099
1.8601683
1.857916
1.7104029
1.7111375
1.7622962
1.7650196
1.6636033
1.662887
1.8820538
1.8717043
1.7142029
1.7157652
1.8830057
1.8778337
1.7162777
1.7166229
1.871666
1.8692442
1.7141964
1.7151996
1.8557095
1.8615677
1.7139741
1.7141459
1.775639
1.7773082
1.6693904
1.6694989
1.7785676
1.7725217
1.6691046
1.6694373
1.7111726
1.7609973
1.766172
1.6640464
1.6633891
1.7710602
1.7713645
1.6664075
1.6654576
1.7703105
1.665945
1.7750646
1.6670478
1.7754876
1.772708
1.668347
1.6675107
1.869774
1.855517
1.7139214
1.712583
1.8738297
1.8753937
1.7163803
1.7175965
1.8733498
1.7163928
1.7173095
1.8761791
1.8694895
1.8625348
1.7162888
1.7165481
1.5240427
1.5779507
1.525852
1.5232553
1.5484933
1.5477792
1.5560538
1.5553593
1.5678872
1.5687423
1.575473
1.5748381
1.579816
1.5715577
1.5790519
1.5717065
1.5492375
1.5576227
1.5948085
1.5918449
1.595254
1.5920618
1.5913433
1.5933841
1.5938661
1.6060956
1.6056035
1.600711
1.6011949
1.6070651
1.6019398
1.6076082
1.6026783
1.5943231
1.5970636
1.5967081
1.5932993
1.6095464
1.6044956
1.6089532
1.6040816
1.6037665
1.6047627
1.6000154
1.5996277
1.5883929
1.5921716
1.5891371
1.5912758
1.5220472
1.5212387
1.6767945
1.6646733
1.6780588
1.6657405
1.6791325
1.6800005
1.6705906
1.6716363
1.6769246
1.6684645
1.6783501
1.6696527
1.6785737
1.6664067
1.6797843
1.6676946
1.6827287
1.683767
1.6743466
1.6753989
1.6843757
1.6756102
1.6850564
1.6763266
1.6825149
1.6834462
1.6703424
1.6712852
1.6714523
1.6835913
1.6844474
1.6719193
1.6825218
1.6745029
1.6829431
1.6750073
1.6737147
1.673702
1.6705251
1.6707052
1.671995
1.6730892
1.6689479
1.6701659
1.6803812
1.6814921
1.6726554
1.673856
1.6754267
1.6673487
1.676952
1.6686683
1.6698682
1.669609
1.6663227
1.6664774
1.6675144
1.6639723
1.6688639
1.6652448
1.6774429
1.6777796
1.6693167
1.670022
1.6555876
1.653986
1.6566402
1.6550378
1.6392308
1.6382283
1.6424711
1.6417784
1.6366814
1.6399849
1.6373308
1.6406975
1.6575372
1.6568274
1.6559795
1.6556673
1.6156433
1.6218449
1.6144144
1.6209425
1.6130253
1.6194999
1.6133707
1.6198918
1.594886
1.5950367
1.5419089
1.5812624
1.5814565
1.5973876
1.5962524
1.542392
1.5828699
1.5840898
1.53737
1.5369377
1.5989461
1.5994074
1.5433962
1.5857015
1.5854288
1.6003302
1.5988327
1.5432698
1.58513
1.5867386
1.6179503
1.6247158
1.6164728
1.6235439
1.5379385
1.53805
1.6164453
1.6231011
1.6170321
1.6239718
1.6397758
1.6435053
1.640705
1.6445982
1.6414539
1.6452127
1.6404249
1.6444847
1.6605373
1.6595463
1.6600538
1.6593044
1.658804
1.6578201
1.6598592
1.6590192
1.5296476
1.5295787
1.5327032
1.5327907
1.5293592
1.5290228
1.5319535
1.5322976
1.6622799
1.6606828
1.6632434
1.66206
1.6425245
1.6435147
1.6464517
1.6476019
1.642814
1.6462104
1.6428122
1.6466954
1.6622237
1.6631253
1.6612235
1.6622596
1.6000311
1.6008261
1.5436182
1.5869967
1.5864242
1.6008186
1.6000926
1.5439552
1.5863755
1.5872093
1.6177519
1.6245858
1.6186062
1.6257179
1.6185466
1.6251482
1.6179172
1.6248852
1.5386291
1.5381742
1.5428583
1.5996021
1.5431738
1.5859652
1.5379973
1.5375766
1.5332363
1.5298526
1.5296882
1.5328788
1.529335
1.5297189
1.5328046
1.5324281
1.5237892
1.5245622
1.5243211
1.5239628
1.5240477
1.5251772
1.5254687
1.5265968
1.5268888
1.5236725
1.523734
1.5241395
1.5246847
1.5246673
1.524084
1.5240698
1.5255649
1.5255983
1.5270572
1.5270943
1.5237002
1.5237529
1.5237857
1.5242091
1.5241575
1.5237593
1.525728
1.5256555
1.5271529
1.5272593
1.5247554
1.5241655
1.524166
1.524713
1.5246965
1.5241155
1.524022
1.5245443
1.5271494
1.5255945
1.5254069
1.5268604
1.6821829
1.6846743
1.6739929
1.6764176
1.675069
1.6757639
1.6718688
1.6727167
1.6738816
1.6703374
1.6757262
1.6723921
1.6836224
1.6841861
1.6755129
1.6763131
1.6830476
1.6708186
1.6854862
1.6729251
1.6851324
1.6762264
1.6856602
1.6769372
1.6832587
1.6745286
1.6858834
1.6768504
1.684415
1.6849544
1.6719665
1.6727335
1.7210996
1.7222343
1.7213611
1.7206374
1.7210911
1.7224014
1.7169795
1.7186548
1.7186049
1.7208269
1.7211016
1.7210059
1.7186823
1.7200343
1.7183371
1.71841
1.7127736
1.7140471
1.7148335
1.7153093
1.6709547
1.7080923
1.7095747
1.7105518
1.7114429
1.6704055
1.6715197
1.6721625
1.6786811
1.6787803
1.6785269
1.6775895
1.6744418
1.6753899
1.61236
1.6723224
1.6732057
1.6761953
1.6749834
1.6766889
1.6774033
1.5305737
1.5305801
1.5250572
1.5284308
1.5281831
1.5247569
1.5283659
1.5282001
1.5972623
1.5964634
1.5474403
1.6061483
1.8089245
1.8143505
2.0090979
1.8886204
2.0274952
1.8966128
1.8994297
1.8999165
2.0287228
2.0259426
1.8148295
1.8080621
2.0316023
1.9012712
2.0341829
1.9029243
1.8885444
1.8894331
2.0119621
2.0089559
2.3151984
2.1329161
2.1586703
2.3459306
2.154483
2.1593028
2.3394937
2.3468547
2.4765195
2.258254
2.2591206
2.4710301
2.22197
2.4347838
2.4721721
2.2497859
2.4883776
2.4905908
2.2608533
2.2596267
2.2489648
2.4552152
2.4428511
2.2381617
2.1658862
2.1637637
2.3541468
2.353458
2.1312045
2.1378734
2.3061424
2.3180676
1.6514441
1.6505758
1.7178058
1.7165334
1.6506287
1.6500547
1.7157858
1.7180497
1.5511917
1.6023183
1.6034837
1.5320091
1.5317688
1.5513117
1.6032438
1.6025702
1.5971345
1.5968488
1.5470445
1.6067723
1.6066843
1.5969545
1.5965991
1.5473489
1.6062358
1.6064029
1.6729277
1.6747812
1.6515275
1.6514085
1.7180986
1.7192939
1.8121614
1.8148296
1.6518308
1.6510154
1.7183893
1.7180361
1.8150075
1.8114942
1.6512374
1.6502708
1.7171538
1.7161856
1.8135861
1.807087
1.6507077
1.6505996
1.7176931
1.7181142
1.8143373
1.8146849
1.7657499
1.7621547
1.9183827
1.9072389
1.9025171
1.8950654
2.0224501
2.0394033
2.0372531
1.9019038
1.9022323
2.032938
2.0305703
1.8999774
2.0432077
1.9055807
1.8961889
1.8958001
2.026885
2.0218239
2.1422596
2.1560827
2.179531
2.3829149
2.3504508
2.1759689
2.1679701
2.3663812
2.3793059
2.2230672
2.2087739
2.4614967
2.4938528
2.2216398
2.2274565
2.4903144
2.4871167
2.2340293
2.1649381
2.241287
1.7715842
1.770607
1.935625
1.928905
2.1838474
2.2019314
2.2717808
2.2629885
2.1660183
2.1828392
2.3863197
2.3667245
2.2420811
2.4860415
2.509999
2.2552368
2.2438965
2.4885649
2.4782196
2.2470409
2.1523396
2.1614821
2.3415308
2.3570852
1.7627247
1.7656529
1.9154477
1.9227206
1.7718465
1.7687081
1.9339828
1.9261792
2.1754258
2.2762914
2.1855785
2.2829997
2.2007357
2.1848429
2.2904132
2.2764124
1.6750425
1.6722042
1.9042602
1.899134
2.0270226
2.0391037
2.0329075
1.9010813
1.8997136
2.0255461
2.0270376
1.8985663
2.0372155
1.9030533
1.8892111
1.8865622
2.01504
2.0041291
2.1717577
2.1582984
2.3493621
2.3638883
2.1250719
2.1431929
2.3267874
2.2991085
2.2522134
2.4735652
2.4890741
2.2545593
2.4262161
2.4512782
2.2342823
2.2230557
2.1755891
2.1590167
2.3503114
2.3722586
2.258137
2.4791616
2.5030883
2.2704619
2.1540726
2.1659803
2.3606506
2.3416289
2.4755101
2.4923397
2.2700606
2.2642711
1.5513885
1.6037393
1.6040963
1.5315703
1.5318762
1.5517019
1.604052
1.6042385
1.6763111
1.6759586
1.6753717
1.6757893
1.7716544
1.9341358
1.7711308
1.9301477
2.2055495
2.2937186
2.196995
2.2914126
1.7710176
1.7655421
1.9321228
1.9178011
2.2950872
2.2749535
2.2007172
2.1738851
2.1602835
1.7730495
1.7738403
1.9388607
1.9353407
2.205725
2.2122716
2.270488
2.2869468
1.9446354
1.9301073
1.7758584
1.7703878
2.2232621
2.3039135
2.1980185
2.2886449
1.5189235
1.8423707
1.8394083
1.7044617
1.7050126
1.8279687
1.8322304
1.7042914
1.7042299
1.8395458
1.831451
1.8473264
1.8436292
1.8647742
1.8561561
1.8621899
1.861203
1.8507017
1.84041
1.7046909
1.7056701
1.8475463
1.8509175
1.7068038
1.7069572
1.8867711
1.8758109
1.8874617
1.8801227
1.8751187
1.8728847
1.8581725
1.8649273
1.8732058
1.8643378
1.7132461
1.7138995
1.8733168
1.8708509
1.7142788
1.7142826
1.8740613
1.8745043
1.7138258
1.7143889
1.8538529
1.8652807
1.7122767
1.7115691
1.7720527
1.7650565
1.6668389
1.6664932
1.8476868
1.8373247
1.7055386
1.7061188
1.8534982
1.8515763
1.7077996
1.7081484
1.8666198
1.8581802
1.7092221
1.7100507
1.8593495
1.8632414
1.7107197
1.7105622
1.8552412
1.8659422
1.7099666
1.7090424
1.8695793
1.8697666
1.7119545
1.7125062
1.87296
1.8674471
1.7122082
1.7134017
1.8595999
1.8642652
1.7128016
1.7129305
1.8738788
1.8602546
1.8773579
1.8799788
1.8780167
1.881139
1.8737871
1.8658272
1.657262
1.6574592
1.6556661
1.656119
1.5346092
1.5349787
1.5397068
1.5392485
1.5266442
1.5297417
1.5295697
1.594961
1.5936048
1.580106
1.5815236
1.5918052
1.5917953
1.578191
1.5782608
1.6122939
1.6184687
1.6108161
1.6172515
1.6089332
1.6152659
1.6089458
1.615523
1.6314147
1.6316633
1.6348206
1.6352602
1.634695
1.6378553
1.633446
1.6368912
1.6526355
1.6512568
1.651748
1.6506449
1.6496057
1.6484944
1.6500454
1.6491585
1.6614882
1.6603162
1.6611488
1.660025
1.6407448
1.6445651
1.6399586
1.644023
1.6601212
1.6590272
1.6593041
1.658432
1.6410866
1.6450583
1.6404372
1.6444452
1.5973015
1.5833156
1.6222766
1.6159528
1.6227996
1.6150513
1.6222311
1.6774862
1.6779098
1.669375
1.6698882
1.6691699
1.6688267
1.6656537
1.6655967
1.6780792
1.6700653
1.6788993
1.6709582
1.6691223
1.6696764
1.6658082
1.6665005
1.6650831
1.6694629
1.6661227
1.6635305
1.673523
1.6658495
1.6750267
1.667047
1.6764443
1.6684542
1.6775818
1.6695505
1.6780012
1.6694647
1.6791464
1.6704622
1.67533
1.667108
1.6766919
1.6681171
1.67539
1.6634506
1.6764992
1.6642369
1.6777454
1.6654447
1.6788075
1.6663949
1.6787517
1.6701873
1.6796185
1.6710087
1.6783733
1.6794891
1.6671064
1.6661416
1.6798232
1.6713321
1.6807694
1.6722091
1.6798584
1.6674975
1.6807692
1.6683272
1.6738387
1.67376
1.6705222
1.6704245
1.681973
1.6820627
1.6739088
1.673911
1.6814548
1.6805318
1.6733041
1.6727385
1.6725991
1.6693453
1.6717056
1.6686959
1.6833626
1.6834584
1.6744563
1.674493
1.6825764
1.6699944
1.6826614
1.6700536
1.6827215
1.6738544
1.6819211
1.6733622
1.6697986
1.6819195
1.6812759
1.6691246
1.6727094
1.6647547
1.6735519
1.6656292
1.6748928
1.6665535
1.6751891
1.6669887
1.6746475
1.6628376
1.6751948
1.6634233
1.6730552
1.6615201
1.6738377
1.6622953
1.6615721
1.6586442
1.6622268
1.6594718
1.6727116
1.6727205
1.6649906
1.6651752
1.6642468
1.6609396
1.6637632
1.660753
1.6699229
1.6625751
1.6707441
1.6635046
1.5208635
1.522721
1.5241538
1.5211322
1.5209478
1.521725
1.5215192
1.7062779
1.7099919
1.7053704
1.7108703
1.7091901
1.7019392
1.7030488
1.7101353
1.7131502
1.7081974
1.711998
1.707219
1.7110577
1.7039111
1.7121039
1.7047369
1.7201528
1.7142985
1.7149495
1.7206407
1.7217692
1.720433
1.7149263
1.7161152
1.7107426
1.7177715
1.7099319
1.7185295
1.7199781
1.7121182
1.7186791
1.7109556
1.7106583
1.7149389
1.7097145
1.7159354
1.7132648
1.7058999
1.70677
1.7142025
1.7134335
1.7178192
1.7122153
1.7189074
1.7157138
1.7079461
1.7169848
1.7090199
1.7135711
1.7086759
1.7096939
1.7144863
1.7058169
1.7125751
1.7137582
1.7066074
1.7148541
1.7161192
1.7101057
1.7112089
1.7075501
1.7154355
1.7081113
1.714243
1.725172
1.7191769
1.7198728
1.7256556
1.7253315
1.7249221
1.7191732
1.7196554
1.7157294
1.7228264
1.7148642
1.7235753
1.7233251
1.7155314
1.7228468
1.7149764
1.7216346
1.7260688
1.720093
1.7277191
1.7235586
1.7155748
1.7170313
1.7251826
1.7228777
1.7286349
1.7223369
1.7288257
1.7259518
1.71758
1.7264903
1.7181185
1.7186941
1.7137008
1.7147429
1.7195979
1.7188237
1.7139549
1.7193722
1.7145036
1.711158
1.7122258
1.7178263
1.718993
1.7185958
1.7180937
1.7110748
1.711375
1.7185212
1.711296
1.7130744
1.7201381
1.7156316
1.7192292
1.7141804
1.7207464
1.7219071
1.7213493
1.7160971
1.7166325
1.7207382
1.720223
1.7131424
1.7134801
1.7285566
1.7324571
1.726939
1.7341723
1.7312595
1.7223258
1.7238442
1.7330177
1.7298104
1.7350852
1.7293695
1.7354311
1.7340639
1.724658
1.7342825
1.7248825
1.7323228
1.7274302
1.7288856
1.73352
1.7346759
1.7295372
1.7301012
1.7347043
1.7337597
1.7266456
1.7282237
1.7354128
1.7363005
1.7288486
1.7294647
1.7367006
1.7311067
1.7260499
1.7263984
1.731056
1.7311652
1.7305648
1.7257337
1.7264255
1.7325331
1.7253046
1.7257369
1.7328117
1.7327521
1.7321468
1.7250681
1.7257004
1.7308401
1.7252722
1.7258177
1.731189
1.7310312
1.7305473
1.7251898
1.7256403
1.7211736
1.7215872
1.72978
1.7303537
1.7299878
1.7296824
1.7208954
1.7213398
1.7162565
1.7202634
1.7150708
1.7215602
1.7189853
1.7110272
1.7120453
1.7202135
1.7253595
1.7195896
1.7239406
1.7184188
1.7224709
1.7139177
1.7236932
1.7149552
1.7281968
1.7228653
1.7228565
1.7279318
1.7254614
1.7208482
1.7226036
1.7269384
1.7215536
1.7289287
1.7214233
1.7289121
1.7219882
1.7271804
1.7202046
1.7289203
1.7177676
1.720849
1.7160842
1.7227584
1.7218356
1.7149562
1.7163088
1.7234572
1.7215882
1.7249381
1.7198031
1.7265472
1.7258252
1.7184207
1.7275941
1.7198423
1.726527
1.7207918
1.7212125
1.7267103
1.7256079
1.7203983
1.7273273
1.7217994
1.7163538
1.7167087
1.7248834
1.7254699
1.7262377
1.7248233
1.716293
1.7175564
1.7148523
1.7166379
1.7127176
1.7187841
1.7203265
1.7137426
1.7156902
1.7225126
1.7224519
1.7180868
1.7206349
1.7164848
1.7245488
1.7174771
1.7262942
1.7189964
1.713856
1.7098464
1.708731
1.7117375
1.709736
1.7091721
1.7057342
1.7064078
1.7137909
1.720037
1.7142333
1.7189851
1.7167436
1.7115751
1.715846
1.710573
1.7048918
1.70694
1.7031729
1.7083071
1.7128117
1.707364
1.7093766
1.7147194
1.7082741
1.7104761
1.7064778
1.7115462
1.7166578
1.7108354
1.7185716
1.7125031
1.7232637
1.7191307
1.7191162
1.7228328
1.719601
1.716001
1.7208064
1.7172194
1.7207274
1.7204649
1.7272989
1.7272708
1.7256348
1.7242287
1.7177611
1.7191148
1.6993858
1.6983439
1.694909
1.6936218
1.7054106
1.7019672
1.6997416
1.7067268
1.6954324
1.6954657
1.6912776
1.6911567
1.7027078
1.7029583
1.6974214
1.6978002
1.6901447
1.6941094
1.6896223
1.6938488
1.7009845
1.6955269
1.6967108
1.7016759
1.6936162
1.6976383
1.6926513
1.6976131
1.704429
1.6985356
1.7054777
1.6994538
1.6839282
1.6839527
1.6812072
1.6808449
1.6844544
1.6843913
1.6866109
1.6866026
1.5661979
1.5657671
1.5699256
1.5702057
1.6671408
1.6694581
1.6889767
1.6886484
1.686179
1.6852616
1.6825158
1.6825202
1.6840685
1.6840736
1.5725996
1.5680194
1.5671605
1.5713844
1.6673788
1.6718827
1.554418
1.5553438
1.5592165
1.5584177
1.5538664
1.5532526
1.5571937
1.5576481
1.6897114
1.6894833
1.6871301
1.6866002
1.6865093
1.6869374
1.6878302
1.6879822
1.5737848
1.5689352
1.5693111
1.5738276
1.6707559
1.6724724
1.6900494
1.6900249
1.688026
1.6876245
1.6872354
1.6872724
1.6881861
1.6881834
1.5748745
1.5699258
1.5688446
1.5733708
1.6707192
1.6728732
1.7001142
1.6997981
1.6958888
1.6963732
1.7082509
1.7079665
1.7034526
1.7030814
1.6967352
1.6995411
1.6956503
1.6995646
1.7038507
1.7078699
1.7089591
1.7039857
1.5608809
1.5561949
1.5555998
1.5598656
1.5559777
1.5560164
1.5600335
1.5602562
1.6953197
1.6992559
1.6950646
1.6986558
1.7027502
1.7070534
1.707258
1.7018916
1.696088
1.6985104
1.6944722
1.698997
1.7021788
1.7063456
1.7079946
1.7029404
1.7102868
1.7138705
1.7102441
1.7130447
1.7207259
1.7153502
1.7159497
1.7207842
1.7140211
1.7107441
1.7131841
1.7097471
1.7201124
1.7148638
1.7211777
1.7160332
1.7119636
1.7145072
1.7113283
1.7143818
1.721678
1.722593
1.716615
1.7173174
1.7130091
1.7152637
1.7118868
1.7154503
1.7181332
1.7227047
1.7238414
1.7185252
1.7236566
1.7258319
1.7222108
1.7268281
1.7245982
1.7305675
1.7322751
1.7254933
1.7282173
1.7244397
1.7277768
1.7239241
1.7264929
1.7327607
1.7332706
1.726537
1.7217415
1.7247067
1.7208617
1.7252378
1.7232258
1.7293948
1.7301544
1.7231973
1.7252879
1.7216335
1.7241003
1.7204331
1.7227964
1.7288332
1.7299876
1.7234534
1.5370125
1.5369075
1.5398626
1.5400033
1.5367812
1.5367591
1.5397718
1.5397726
1.5489515
1.544854
1.5448358
1.5484783
1.5488695
1.5449311
1.5451084
1.5487655
1.5363761
1.5365401
1.5394219
1.5391799
1.5361989
1.5355476
1.5383208
1.5389429
1.5438239
1.5431005
1.5464765
1.5470828
1.5482491
1.5444286
1.5440955
1.5474816
1.7257324
1.7263541
1.722296
1.7297263
1.7302987
1.7234023
1.7268659
1.7339386
1.7331599
1.7290084
1.7314968
1.7274557
1.736414
1.7291859
1.7379078
1.7306029
1.718732
1.7152356
1.7152895
1.7176155
1.7184501
1.7171643
1.7140951
1.7155468
1.7217268
1.7262831
1.7209397
1.7263401
1.7263372
1.7214123
1.724986
1.7199379
1.7148708
1.7160446
1.7121998
1.718284
1.7222989
1.7166797
1.719798
1.7252137
1.7173979
1.719112
1.715403
1.7202871
1.7264451
1.7208106
1.7283434
1.7225442
1.7308501
1.7270578
1.7282218
1.731547
1.7296875
1.7261404
1.7309737
1.7274341
1.729699
1.7304879
1.7361236
1.7371523
1.7360638
1.7350248
1.7283183
1.72938
1.6912689
1.6910925
1.689037
1.6887782
1.6886436
1.689356
1.6895034
1.6896993
1.5746119
1.5696079
1.5701879
1.5749285
1.6720229
1.6735613
1.6936958
1.6937984
1.6906066
1.6906309
1.6917307
1.6918567
1.693522
1.6934452
1.5754354
1.5707069
1.5703689
1.5746504
1.6756818
1.6763922
1.7015409
1.7011855
1.6976136
1.6972922
1.7097076
1.70603
1.7048757
1.7100749
1.7009461
1.7016709
1.6982861
1.6971816
1.7094248
1.7105222
1.7046673
1.7060267
1.6990877
1.7026305
1.6979578
1.7028009
1.7097456
1.7041882
1.706203
1.7110986
1.7008014
1.7042115
1.6995403
1.7042791
1.7119635
1.7064261
1.7131817
1.7076451
1.5616966
1.5571778
1.5572688
1.5613551
1.5564325
1.5563841
1.5605579
1.5609254
1.5723199
1.5676273
1.5679733
1.5724739
1.6930852
1.693083
1.689869
1.6900121
1.5742938
1.569646
1.5685457
1.5728754
1.6756969
1.5607401
1.5562742
1.5556636
1.5597518
1.5548209
1.5551082
1.558955
1.5591081
1.5498992
1.545946
1.5463723
1.5499677
1.5403333
1.5370095
1.5376726
1.5407111
1.5369212
1.5368442
1.5398918
1.5400553
1.549117
1.5450348
1.545264
1.5490846
1.5361279
1.5366146
1.5394499
1.5391045
1.536944
1.5376273
1.5405586
1.5399709
1.5450701
1.5457175
1.5491623
1.5486284
1.5481562
1.5443803
1.5440565
1.5477563
1.5235378
1.5233811
1.5238214
1.5239999
1.5235528
1.5248386
1.5248841
1.5257618
1.5256991
1.5246648
1.524451
1.5253055
1.5255206
1.5241579
1.5236524
1.5236519
1.5236652
1.5241248
1.5233488
1.523399
1.5265324
1.5267791
1.5281614
1.52791
1.5269474
1.5270494
1.5283373
1.5284873
1.5300204
1.5320297
1.5325489
1.5303256
1.5307191
1.5328199
1.5327163
1.530482
1.5233286
1.5233948
1.5237555
1.5237632
1.5234817
1.5234763
1.52584
1.5248765
1.525756
1.5248779
1.5248468
1.5248534
1.5257341
1.5257254
1.5237317
1.523746
1.5241851
1.5241776
1.5237211
1.523717
1.5241582
1.524158
1.5285902
1.5269977
1.5285908
1.5269894
1.5270271
1.5285021
1.5287705
1.527153
1.5308554
1.5308391
1.5330093
1.5330338
1.5331109
1.5307357
1.5310625
1.533228
1.5189412
1.5190162
1.5234571
1.5234396
1.523855
1.5238556
1.5235654
1.5235665
1.5238129
1.5237562
1.523537
1.5235143
1.5272183
1.5287301
1.5290755
1.5273922
1.5271023
1.5270992
1.5285965
1.5286058
1.5308711
1.5308555
1.5330648
1.5331143
1.5314947
1.5310206
1.5332173
1.5337424
1.5249462
1.5258253
1.5259477
1.5249854
1.5242871
1.5238261
1.5238127
1.5242569
1.5238159
1.523834
1.5242592
1.5242468
1.5248693
1.5248735
1.5257358
1.5257398
1.5259075
1.5249593
1.5249083
1.5257898
1.5242588
1.5237831
1.5237834
1.524218
1.5236793
1.5237547
1.5241864
1.5241054
1.5257494
1.5248198
1.5247303
1.525587
1.5337132
1.5313211
1.5309564
1.5331599
1.5288118
1.5272114
1.5270654
1.5285403
1.5268234
1.5270193
1.5284412
1.5282528
1.5329121
1.5306312
1.5304036
1.5325194
1.7297249
1.7242203
1.7271751
1.7330185
1.737815
1.7366207
1.7305859
1.7316557
1.7224583
1.7283356
1.7198369
1.7314104
1.7360977
1.7265951
1.7351017
1.7255613
1.7373726
1.7320412
1.7329855
1.7380329
1.7359149
1.73095
1.7320523
1.7366588
1.7321184
1.7388857
1.7311619
1.739696
1.7312467
1.7377427
1.7302696
1.7384531
1.7286611
1.7302367
1.7252528
1.7338466
1.7313615
1.7241628
1.727373
1.7349222
1.7331168
1.736811
1.7314626
1.7381383
1.7382871
1.7304812
1.7397947
1.731824
1.7368776
1.7308019
1.7318043
1.7377029
1.735954
1.7301558
1.7364981
1.7306049
1.7268916
1.7353737
1.7257947
1.7363638
1.7348688
1.7347437
1.7253258
1.7256443
1.7178894
1.7195119
1.7130379
1.7143206
1.7101609
1.718393
1.7112692
1.717008
1.7220955
1.7168116
1.7183897
1.7235806
1.7151421
1.7208286
1.7136372
1.722402
1.729328
1.7228756
1.7304297
1.7237918
1.7274104
1.7264653
1.7179996
1.7187941
1.7289999
1.7228472
1.7288556
1.7225556
1.7181088
1.7261864
1.726374
1.7181943
1.7233913
1.726031
1.7177993
1.7198497
1.7235143
1.7152823
1.7214341
1.7136982
1.7291671
1.7228296
1.7241036
1.7301885
1.7194279
1.7264459
1.7179477
1.7277193
1.7217278
1.716382
1.717414
1.7225528
1.7218823
1.7218688
1.7165714
1.7167516
1.7136199
1.7204391
1.7215917
1.7144524
1.7207526
1.7138726
1.7206817
1.713601
1.7080573
1.7085142
1.7085283
1.7092186
1.7087532
1.7099464
1.7111936
1.7109289
1.7175696
1.7185825
1.71861
1.7188706
1.7180429
1.7191767
1.7167031
1.7156227
1.7131317
1.7142997
1.7150537
1.7144612
1.6759582
1.6753026
1.7093382
1.7101954
1.7120555
1.7120601
1.7162211
1.7166162
1.7129667
1.7142241
1.7162294
1.7180264
1.717123
1.7170787
1.5285292
1.5289087
1.5292989
1.5285447
1.5294262
1.529206
1.523265
1.524619
1.5262156
1.5264634
1.5247652
1.5230064
1.5248856
1.5247044
1.5262336
1.5263947
1.6649153
1.6656599
1.6652219
1.6644643
1.5401174
1.6045245
1.5977092
1.6731281
1.6744213
1.6586538
1.6577094
1.8196798
1.9428062
1.9290931
1.8248406
1.9444496
1.9428924
2.0400649
2.0622774
2.0633802
2.0581731
1.8258391
1.9490894
1.9455837
1.8176745
1.9309637
1.9302373
2.0652253
2.0688062
2.0447484
2.0398988
2.4395863
2.1683867
2.1985406
2.4790912
2.1910817
2.1989316
2.4665127
2.4792223
2.6108865
2.3567249
2.3534192
2.6037037
2.324655
2.5707617
2.6084667
2.3495861
2.6246542
2.6294158
2.3613412
2.3577298
2.3456132
2.5916412
2.5712202
2.3286846
2.2058396
2.2024423
2.4890045
2.4872166
2.166412
2.1753365
2.4295467
2.4461125
1.7280497
1.7266337
1.7259987
1.7285337
1.5967962
1.5953653
1.5457444
1.6049617
1.6066963
1.5959139
1.5964202
1.5458646
1.6062202
1.6052006
1.6661869
1.6655051
1.6663435
1.6662215
1.5396233
1.6051416
1.6048921
1.5982743
1.598255
1.6753756
1.6756897
1.6597399
1.6594785
1.6741814
1.6749366
1.6594999
1.6586931
1.6655281
1.6645299
1.6651258
1.6649615
1.5399616
1.604689
1.6043536
1.5977886
1.5981292
1.673596
1.6741003
1.6585498
1.6581955
1.6728961
1.6743949
1.6589479
1.6577149
1.6510151
1.650454
1.7170524
1.7188947
1.8158926
1.8088189
1.6521042
1.6518682
1.7223668
1.720777
1.8225815
1.8221855
1.7286857
1.8229837
1.7299035
1.8252296
1.9364134
1.9489293
1.9467112
1.945028
1.7286831
1.8254952
1.7282352
1.8211719
1.9520815
1.94236
1.9399076
1.9370215
1.7272726
1.8242522
1.7262828
1.8167153
1.9497716
1.9416106
1.9326371
1.9260822
1.7280008
1.8250032
1.7284366
1.8247675
1.9416892
1.9507698
1.9462513
1.9419596
1.9060446
1.9028397
2.0361688
2.0422351
2.0238554
1.8925391
1.8928106
2.0189813
2.0541285
2.0738295
2.070659
2.0642574
2.0622548
2.0775035
2.059942
2.0524971
2.3630157
2.1601309
2.1508014
2.3418662
2.1921913
2.2186843
2.5200471
2.4812321
2.214454
2.2035932
2.4967864
2.5138841
2.2098992
2.4734099
2.4583768
2.208716
2.303412
2.5964734
2.6315237
2.3199044
2.3266738
2.6291429
2.6155467
2.326083
2.1755042
2.1817903
2.3859341
2.3796729
2.2312002
2.4963547
2.5004739
2.2337649
2.0593963
1.9158465
1.9218696
2.0730619
2.0601338
1.9152551
2.0481608
1.9119895
2.2089933
2.1889123
2.3968256
2.4274169
2.4354586
2.2095969
2.2279282
2.4529984
2.2438206
2.5426666
2.5641624
2.2673426
2.2578699
2.5421024
2.5162893
2.2519693
2.2024813
2.2225392
2.5252277
2.4980584
2.3394008
2.6211617
2.648033
2.3531615
2.345877
2.6292251
2.6083319
2.3403944
2.187284
2.1992251
2.4696265
2.489671
1.8098036
1.8153795
1.9012382
1.8956893
2.0290883
2.0438085
2.0463618
1.9054753
1.9067818
2.0462532
1.8239162
1.8175904
2.0591841
1.9165133
2.0673831
1.9195755
1.9090212
1.9091946
2.0520083
2.0491877
2.1935792
2.1723798
2.3891083
2.4192347
2.2649345
2.5213562
2.5510003
2.2802706
2.1930521
2.1938095
2.4181041
2.4142573
2.5474907
2.5479569
2.2826659
2.2808761
2.219502
2.2082859
2.4320294
2.4458784
2.196154
2.2013661
2.4217867
2.4125176
2.2912398
2.5563962
2.5683739
2.281099
2.5348936
2.5456737
2.2718977
2.2615555
1.6527602
1.6524039
1.7226419
1.7203067
1.6503649
1.6500408
1.7187475
1.716163
2.0594778
2.0741585
2.0668388
2.0570884
2.0594256
2.0723378
2.048655
2.0339946
2.2125456
2.1955027
2.4794429
2.5014373
2.1590751
2.181666
2.4574871
2.4198434
2.3496735
2.6098933
2.6279194
2.3520985
2.5523664
2.5850817
2.3312599
2.315193
2.2156865
2.1959702
2.4815579
2.5089651
2.357781
2.6178658
2.6432824
2.3726566
2.1900613
2.2050204
2.4937211
2.4688653
2.6018932
2.6274433
2.3699159
2.354739
1.5973393
1.5968379
1.5458739
1.6072953
1.6068382
1.5975507
1.597151
1.5462791
1.6071023
1.6076319
1.6538036
1.6532806
1.7222878
1.7239948
1.819947
1.82954
1.6532222
1.6529735
1.7226306
1.7242721
1.8269393
1.8243409
1.6534112
1.6531889
1.7226391
1.7200696
1.8229979
1.8130123
1.6529532
1.6533027
1.7231396
1.7220322
1.8224034
1.8225315
2.0579349
1.914676
1.9193165
2.0705447
2.0606193
1.9157214
1.9125934
2.0501891
2.2099499
2.2281001
2.4663944
2.4398877
2.5637
2.5870271
2.2901831
2.2699554
2.4518832
2.2116896
2.1954887
2.4176886
2.2835834
2.570426
2.5507981
2.286803
2.0553293
1.9139555
2.0676285
1.9184705
1.9033999
1.8986742
2.0454048
2.0316146
2.2815151
2.5642356
2.5853913
2.2898528
2.270244
2.5532001
2.5256817
2.2609512
2.222101
2.2040316
2.4544583
2.4314865
2.1736715
2.194634
2.3872752
2.4179322
1.9291226
2.1984375
2.3081208
2.2743672
2.2305576
1.9231954
2.0721386
1.9218335
2.0673666
1.9211435
1.9162932
2.0577553
2.0715051
2.4422761
2.208591
2.2281223
2.4629866
2.4719292
2.2275867
2.2203589
2.4509159
2.23762
2.5452523
2.5744866
2.2605444
2.2638051
2.5749093
2.571743
2.279133
1.9269214
1.9285558
2.0826143
2.0760938
2.0599317
1.9133627
1.9113791
2.0525846
2.2329305
2.2422726
2.4726387
2.4831196
2.2847288
2.5858508
2.6001511
2.2929045
2.4541423
2.2137927
2.2023376
2.4272525