/*--------------------------------*- C++ -*----------------------------------*\
  =========                 |
  \\      /  F ield         | OpenFOAM: The Open Source CFD Toolbox
   \\    /   O peration     | Website:  https://openfoam.org
    \\  /    A nd           | Version:  7
     \\/     M anipulation  |
\*---------------------------------------------------------------------------*/
FoamFile
{
    version     2.0;
    format      ascii;
    class       volScalarField;
    location    "1000";
    object      pMean;
}
// * * * * * * * * * * * * * * * * * * * * * * * * * * * * * * * * * * * * * //

dimensions      [0 2 -2 0 0 0 0];

internalField   nonuniform List<scalar> 
34378
(
-1.4826177e+16
-1.4777354e+16
-1.4673837e+16
-1.4865937e+16
-1.4567833e+16
-1.4681377e+16
-1.4410282e+16
-1.4635807e+16
-1.4692476e+16
-1.463802e+16
-1.4695907e+16
-1.4823585e+16
-1.4800024e+16
-1.4797247e+16
-1.4810823e+16
-1.4807931e+16
-1.4701638e+16
-1.468562e+16
-1.4561442e+16
-1.4573277e+16
-1.4788541e+16
-1.4804421e+16
-1.3927268e+16
-1.3561773e+16
-1.2761171e+16
-1.4680302e+16
-1.4695641e+16
-1.4698836e+16
-1.4416834e+16
-1.440794e+16
-1.4675721e+16
-1.4605061e+16
-1.4593641e+16
-1.4753974e+16
-1.4655151e+16
-1.465621e+16
-1.4609853e+16
-1.4618581e+16
-1.4694136e+16
-1.4687084e+16
-1.467912e+16
-1.4673605e+16
-1.4775286e+16
-1.4710967e+16
-1.4767749e+16
-1.46368e+16
-1.469309e+16
-1.4850425e+16
-1.4850283e+16
-1.4819579e+16
-1.4866175e+16
-1.4859568e+16
-1.4845171e+16
-1.4841102e+16
-1.4848632e+16
-1.4861666e+16
-1.4822685e+16
-1.483179e+16
-1.4824477e+16
-1.4826319e+16
-1.4821605e+16
-1.4827287e+16
-1.4831151e+16
-1.4830241e+16
-1.4833504e+16
-1.4840222e+16
-1.4847659e+16
-1.3561075e+16
-1.3914447e+16
-1.3921553e+16
-1.4345774e+16
-1.4346549e+16
-1.4067826e+16
-1.4069936e+16
-1.3806863e+16
-1.3572867e+16
-1.3566809e+16
-1.3801686e+16
-1.3062293e+16
-1.3790046e+16
-1.3546948e+16
-1.3076737e+16
-1.2600155e+16
-1.2604242e+16
-1.2675391e+16
-1.2661288e+16
-1.2888729e+16
-1.2885839e+16
-1.4050432e+16
-1.4336816e+16
-1.4829289e+16
-1.4831705e+16
-1.4843005e+16
-1.483471e+16
-1.4849104e+16
-1.4849876e+16
-1.4712493e+16
-1.4714241e+16
-1.4711796e+16
-1.4713442e+16
-1.4352235e+16
-1.4330657e+16
-1.463678e+16
-1.4524068e+16
-1.4508424e+16
-1.4736788e+16
-1.473251e+16
-1.4777484e+16
-1.4776038e+16
-1.4677445e+16
-1.4681418e+16
-1.4757571e+16
-1.4763026e+16
-1.4705468e+16
-1.4629489e+16
-1.4631512e+16
-1.470743e+16
-1.4529801e+16
-1.4542553e+16
-1.4657731e+16
-1.4648796e+16
-1.4699188e+16
-1.4701293e+16
-1.4701858e+16
-1.4783789e+16
-1.4778415e+16
-1.469188e+16
-1.4698686e+16
-1.4772259e+16
-1.477528e+16
-1.4758092e+16
-1.4754175e+16
-1.4798831e+16
-1.4794349e+16
-1.4795811e+16
-1.4792567e+16
-1.4690618e+16
-1.4749754e+16
-1.4748268e+16
-1.4788989e+16
-1.4791848e+16
-1.4706771e+16
-1.4634098e+16
-1.4637407e+16
-1.4708226e+16
-1.4697519e+16
-1.4699411e+16
-1.4795985e+16
-1.4797828e+16
-1.4860395e+16
-1.488856e+16
-1.4890004e+16
-1.4903619e+16
-1.4896874e+16
-1.4889053e+16
-1.4885127e+16
-1.4892089e+16
-1.4902772e+16
-1.4866144e+16
-1.4885339e+16
-1.4869337e+16
-1.4879746e+16
-1.4882084e+16
-1.488771e+16
-1.489073e+16
-1.4878316e+16
-1.4871224e+16
-1.4878126e+16
-1.4890222e+16
-1.4869135e+16
-1.4870099e+16
-1.4878038e+16
-1.4887611e+16
-1.4874184e+16
-1.4878256e+16
-1.4895617e+16
-1.4882854e+16
-1.4895322e+16
-1.4878879e+16
-1.4878234e+16
-1.4884873e+16
-1.486896e+16
-1.4870475e+16
-1.4880579e+16
-1.4874663e+16
-1.4870947e+16
-1.4866925e+16
-1.4871647e+16
-1.4880985e+16
-1.3560948e+16
-1.3802248e+16
-1.3801619e+16
-1.3564647e+16
-1.40783e+16
-1.4060884e+16
-1.4346289e+16
-1.4360615e+16
-1.4079047e+16
-1.4362592e+16
-1.4352762e+16
-1.4069354e+16
-1.4625756e+16
-1.4474342e+16
-1.4472525e+16
-1.4629017e+16
-1.4465445e+16
-1.4473231e+16
-1.4615386e+16
-1.4626565e+16
-1.4268616e+16
-1.4111621e+16
-1.4107934e+16
-1.4262063e+16
-1.4270063e+16
-1.4111998e+16
-1.411387e+16
-1.4269902e+16
-1.3921827e+16
-1.3799735e+16
-1.3799853e+16
-1.392238e+16
-1.3652207e+16
-1.3651023e+16
-1.3539765e+16
-1.354112e+16
-1.3265315e+16
-1.3530315e+16
-1.3535912e+16
-1.3648555e+16
-1.327232e+16
-1.3643548e+16
-1.3790218e+16
-1.3794215e+16
-1.3920191e+16
-1.3915223e+16
-1.3042878e+16
-1.3026511e+16
-1.3909689e+16
-1.378609e+16
-1.3788148e+16
-1.3906934e+16
-1.352321e+16
-1.3522575e+16
-1.3636633e+16
-1.3638874e+16
-1.3271095e+16
-1.3264223e+16
-1.3047799e+16
-1.3039499e+16
-1.263743e+16
-1.286552e+16
-1.2233339e+16
-1.2634999e+16
-1.2879916e+16
-1.1965401e+16
-1.1966303e+16
-1.2222057e+16
-1.289562e+16
-1.2650187e+16
-1.2648246e+16
-1.2883114e+16
-1.4257453e+16
-1.4096999e+16
-1.4101397e+16
-1.4255249e+16
-1.461189e+16
-1.4457134e+16
-1.4457269e+16
-1.4613017e+16
-1.4891426e+16
-1.4883979e+16
-1.48938e+16
-1.4892141e+16
-1.4903421e+16
-1.4901376e+16
-1.4900339e+16
-1.4892423e+16
-1.4912048e+16
-1.4905156e+16
-1.4911174e+16
-1.4912954e+16
-1.485734e+16
-1.486674e+16
-1.486678e+16
-1.4869413e+16
-1.4876515e+16
-1.4871968e+16
-1.4872926e+16
-1.4867643e+16
-1.4368578e+16
-1.4367969e+16
-1.4077581e+16
-1.405784e+16
-1.4574233e+16
-1.473091e+16
-1.4734864e+16
-1.4354789e+16
-1.4343277e+16
-1.4787553e+16
-1.4786851e+16
-1.4804445e+16
-1.4803049e+16
-1.4784414e+16
-1.4781227e+16
-1.4800452e+16
-1.4801362e+16
-1.4825767e+16
-1.4825152e+16
-1.4851259e+16
-1.484664e+16
-1.484876e+16
-1.4843832e+16
-1.4823521e+16
-1.4820264e+16
-1.4816521e+16
-1.4821969e+16
-1.4671762e+16
-1.4550123e+16
-1.4553457e+16
-1.4667812e+16
-1.4363341e+16
-1.4372915e+16
-1.4597553e+16
-1.4756837e+16
-1.4757059e+16
-1.4581661e+16
-1.4751043e+16
-1.4744009e+16
-1.4715943e+16
-1.4709956e+16
-1.4792712e+16
-1.4794351e+16
-1.4844257e+16
-1.4840493e+16
-1.4830106e+16
-1.4834804e+16
-1.4768318e+16
-1.480975e+16
-1.4808289e+16
-1.4826246e+16
-1.4823092e+16
-1.4806123e+16
-1.480328e+16
-1.4820905e+16
-1.4820549e+16
-1.4849512e+16
-1.4847587e+16
-1.4868721e+16
-1.4869377e+16
-1.4809248e+16
-1.4768123e+16
-1.4811527e+16
-1.4846225e+16
-1.4869345e+16
-1.486372e+16
-1.4842961e+16
-1.4775108e+16
-1.4774987e+16
-1.4817495e+16
-1.4817332e+16
-1.4717221e+16
-1.471548e+16
-1.4797256e+16
-1.4799402e+16
-1.4799853e+16
-1.479855e+16
-1.481616e+16
-1.4813679e+16
-1.4795675e+16
-1.4793e+16
-1.4810855e+16
-1.4811428e+16
-1.4834608e+16
-1.4830855e+16
-1.4857426e+16
-1.4849751e+16
-1.4840466e+16
-1.4862708e+16
-1.4837925e+16
-1.4863403e+16
-1.4673782e+16
-1.4560818e+16
-1.456233e+16
-1.4675891e+16
-1.4722888e+16
-1.4718825e+16
-1.4803484e+16
-1.4802991e+16
-1.4721445e+16
-1.472409e+16
-1.4804732e+16
-1.4803269e+16
-1.4779484e+16
-1.4824797e+16
-1.4781364e+16
-1.4823376e+16
-1.477953e+16
-1.4821876e+16
-1.4782334e+16
-1.4825617e+16
-1.4899912e+16
-1.4892736e+16
-1.4900715e+16
-1.4912736e+16
-1.4890426e+16
-1.4888029e+16
-1.4923424e+16
-1.4930108e+16
-1.4888516e+16
-1.4892806e+16
-1.4930905e+16
-1.4923986e+16
-1.4887762e+16
-1.4886569e+16
-1.4924171e+16
-1.4928573e+16
-1.4881817e+16
-1.4891154e+16
-1.4928025e+16
-1.4918602e+16
-1.4904162e+16
-1.490551e+16
-1.4915254e+16
-1.4910157e+16
-1.487572e+16
-1.487755e+16
-1.4918525e+16
-1.4922426e+16
-1.4882052e+16
-1.4873803e+16
-1.492192e+16
-1.4913725e+16
-1.4878014e+16
-1.4874505e+16
-1.4913267e+16
-1.4917189e+16
-1.4870728e+16
-1.4875443e+16
-1.4912582e+16
-1.4903703e+16
-1.4910053e+16
-1.4911652e+16
-1.4916571e+16
-1.4922261e+16
-1.4909099e+16
-1.4905816e+16
-1.4912744e+16
-1.4922663e+16
-1.4876161e+16
-1.4912537e+16
-1.4918611e+16
-1.493029e+16
-1.4921234e+16
-1.4919875e+16
-1.4916129e+16
-1.4921893e+16
-1.4930273e+16
-1.4914742e+16
-1.4920593e+16
-1.4918811e+16
-1.4928139e+16
-1.491955e+16
-1.4914311e+16
-1.4921e+16
-1.4931444e+16
-1.4871776e+16
-1.4872409e+16
-1.4909896e+16
-1.4904639e+16
-1.4864741e+16
-1.4869769e+16
-1.4909746e+16
-1.4902593e+16
-1.4866478e+16
-1.4903033e+16
-1.4907657e+16
-1.4872037e+16
-1.4865389e+16
-1.4864381e+16
-1.4895432e+16
-1.4903381e+16
-1.1375973e+16
-1.3924476e+16
-1.3264913e+16
-1.3029585e+16
-1.3533136e+16
-1.3536065e+16
-1.3651669e+16
-1.3650208e+16
-1.3801908e+16
-1.3804296e+16
-1.3930114e+16
-1.3925538e+16
-1.3927149e+16
-1.380715e+16
-1.3932047e+16
-1.3803812e+16
-1.3537511e+16
-1.3654006e+16
-1.4279612e+16
-1.41191e+16
-1.4277772e+16
-1.4119579e+16
-1.4114904e+16
-1.4270883e+16
-1.4277302e+16
-1.4488042e+16
-1.4481573e+16
-1.46422e+16
-1.4650544e+16
-1.4485332e+16
-1.4647971e+16
-1.4481867e+16
-1.4640134e+16
-1.4118456e+16
-1.4279374e+16
-1.4284125e+16
-1.4121455e+16
-1.4481576e+16
-1.4641417e+16
-1.4487389e+16
-1.4648638e+16
-1.4479225e+16
-1.4487109e+16
-1.4645954e+16
-1.4633677e+16
-1.4116208e+16
-1.4280996e+16
-1.4118758e+16
-1.4273859e+16
-1.2861633e+16
-1.2629509e+16
-1.4724219e+16
-1.4778913e+16
-1.4725732e+16
-1.4782436e+16
-1.4515188e+16
-1.451265e+16
-1.4608785e+16
-1.460393e+16
-1.4516515e+16
-1.4608479e+16
-1.4515579e+16
-1.4609655e+16
-1.4724234e+16
-1.4781416e+16
-1.4719796e+16
-1.4773541e+16
-1.4507617e+16
-1.4504508e+16
-1.4600066e+16
-1.4595068e+16
-1.4511587e+16
-1.4602419e+16
-1.4510072e+16
-1.4602578e+16
-1.4714608e+16
-1.4709826e+16
-1.4770546e+16
-1.4762627e+16
-1.4771365e+16
-1.4717138e+16
-1.4716684e+16
-1.4771647e+16
-1.4283171e+16
-1.4374153e+16
-1.428228e+16
-1.4373917e+16
-1.4098357e+16
-1.4096859e+16
-1.4168975e+16
-1.4168107e+16
-1.4095292e+16
-1.4093562e+16
-1.4166144e+16
-1.4163193e+16
-1.427936e+16
-1.427646e+16
-1.4371512e+16
-1.4367432e+16
-1.4286839e+16
-1.4377831e+16
-1.428652e+16
-1.4378261e+16
-1.4099746e+16
-1.4098695e+16
-1.4171128e+16
-1.4169522e+16
-1.410272e+16
-1.4173214e+16
-1.4100996e+16
-1.4172566e+16
-1.4285321e+16
-1.428368e+16
-1.4377627e+16
-1.437493e+16
-1.3928076e+16
-1.3988864e+16
-1.3927009e+16
-1.3987556e+16
-1.3780163e+16
-1.3778966e+16
-1.3832499e+16
-1.3831268e+16
-1.3782675e+16
-1.3835487e+16
-1.3781262e+16
-1.3834043e+16
-1.3925393e+16
-1.3924355e+16
-1.3986048e+16
-1.3985014e+16
-1.3632037e+16
-1.368219e+16
-1.3631664e+16
-1.368118e+16
-1.3634125e+16
-1.3685009e+16
-1.3633384e+16
-1.3683949e+16
-1.354784e+16
-1.3547008e+16
-1.3371727e+16
-1.350356e+16
-1.3502672e+16
-1.3546798e+16
-1.3546439e+16
-1.3375546e+16
-1.3501872e+16
-1.3502338e+16
-1.3267295e+16
-1.3263884e+16
-1.3541781e+16
-1.3540673e+16
-1.336499e+16
-1.3495714e+16
-1.3496448e+16
-1.3546073e+16
-1.3543488e+16
-1.337191e+16
-1.349848e+16
-1.3501057e+16
-1.3630459e+16
-1.3680363e+16
-1.3628431e+16
-1.3677816e+16
-1.3262185e+16
-1.3256749e+16
-1.3625962e+16
-1.3675977e+16
-1.3625342e+16
-1.367484e+16
-1.3773345e+16
-1.3826814e+16
-1.3772402e+16
-1.382527e+16
-1.3777554e+16
-1.3830316e+16
-1.3774831e+16
-1.3828238e+16
-1.3923777e+16
-1.3985017e+16
-1.3922283e+16
-1.3983959e+16
-1.3920612e+16
-1.3982464e+16
-1.3918815e+16
-1.3980301e+16
-1.3020754e+16
-1.3027003e+16
-1.3132683e+16
-1.3126407e+16
-1.302974e+16
-1.3028735e+16
-1.3130211e+16
-1.3133422e+16
-1.3916991e+16
-1.3977065e+16
-1.3915176e+16
-1.3975006e+16
-1.3766628e+16
-1.3765531e+16
-1.3819171e+16
-1.3817203e+16
-1.3771006e+16
-1.3823342e+16
-1.3768564e+16
-1.3821105e+16
-1.3912621e+16
-1.3910834e+16
-1.3972745e+16
-1.3970569e+16
-1.3535205e+16
-1.3534692e+16
-1.3358688e+16
-1.3490655e+16
-1.349006e+16
-1.353821e+16
-1.3535508e+16
-1.3360693e+16
-1.3490593e+16
-1.3492807e+16
-1.3619464e+16
-1.3668979e+16
-1.36192e+16
-1.366799e+16
-1.3623259e+16
-1.3673155e+16
-1.362167e+16
-1.3671018e+16
-1.3255e+16
-1.3252037e+16
-1.3355497e+16
-1.3532503e+16
-1.3359413e+16
-1.3488082e+16
-1.3249178e+16
-1.3249061e+16
-1.3123047e+16
-1.3016334e+16
-1.3022699e+16
-1.3124643e+16
-1.302353e+16
-1.3025712e+16
-1.3125896e+16
-1.312211e+16
-1.2665626e+16
-1.2775028e+16
-1.2768184e+16
-1.2679999e+16
-1.2462197e+16
-1.2825707e+16
-1.283113e+16
-1.290791e+16
-1.2915247e+16
-1.2260957e+16
-1.2238885e+16
-1.2457235e+16
-1.2793194e+16
-1.2795532e+16
-1.268766e+16
-1.2685416e+16
-1.2841639e+16
-1.2838214e+16
-1.2921395e+16
-1.2914552e+16
-1.1632058e+16
-1.1640441e+16
-1.2230726e+16
-1.2461639e+16
-1.2464599e+16
-1.2254563e+16
-1.2843794e+16
-1.2849571e+16
-1.2921746e+16
-1.2913972e+16
-1.2800121e+16
-1.2695811e+16
-1.2694055e+16
-1.2805944e+16
-1.2800058e+16
-1.2697263e+16
-1.2686833e+16
-1.2789171e+16
-1.2919614e+16
-1.284308e+16
-1.2836566e+16
-1.2914046e+16
-1.4273039e+16
-1.4272062e+16
-1.4363643e+16
-1.4363543e+16
-1.4085291e+16
-1.4083432e+16
-1.4156184e+16
-1.4153368e+16
-1.4090076e+16
-1.4160088e+16
-1.4087648e+16
-1.4158504e+16
-1.4269788e+16
-1.4267453e+16
-1.4361521e+16
-1.4358129e+16
-1.4707339e+16
-1.4761576e+16
-1.4709022e+16
-1.4765489e+16
-1.4498012e+16
-1.4590858e+16
-1.4495207e+16
-1.4585673e+16
-1.4500683e+16
-1.4591791e+16
-1.4499826e+16
-1.4592907e+16
-1.4705923e+16
-1.4701311e+16
-1.4762645e+16
-1.4755141e+16
-1.4916798e+16
-1.491854e+16
-1.491483e+16
-1.4908183e+16
-1.4920906e+16
-1.4916124e+16
-1.4917833e+16
-1.4920939e+16
-1.4929375e+16
-1.4932363e+16
-1.492538e+16
-1.493062e+16
-1.4924758e+16
-1.4927106e+16
-1.4917264e+16
-1.4923347e+16
-1.4935607e+16
-1.493778e+16
-1.4936089e+16
-1.4929078e+16
-1.4915212e+16
-1.4935383e+16
-1.4939146e+16
-1.4939535e+16
-1.4934844e+16
-1.4923001e+16
-1.4924261e+16
-1.4925151e+16
-1.4931806e+16
-1.4933835e+16
-1.4933881e+16
-1.49262e+16
-1.4941041e+16
-1.4936488e+16
-1.4876795e+16
-1.4937137e+16
-1.4941071e+16
-1.4938079e+16
-1.4935754e+16
-1.4938421e+16
-1.493225e+16
-1.4088101e+16
-1.4086712e+16
-1.3653514e+16
-1.4219146e+16
-1.4232664e+16
-1.3639708e+16
-1.4206143e+16
-1.420255e+16
-1.4708832e+16
-1.4712347e+16
-1.4421878e+16
-1.4726001e+16
-1.4865001e+16
-1.4862462e+16
-1.4861846e+16
-1.4847311e+16
-1.4861338e+16
-1.4848735e+16
-1.484759e+16
-1.4844638e+16
-1.4860121e+16
-1.4858914e+16
-1.4859702e+16
-1.4855934e+16
-1.4857057e+16
-1.4842728e+16
-1.4856601e+16
-1.4844069e+16
-1.4842032e+16
-1.4838848e+16
-1.4854821e+16
-1.4853297e+16
-1.4832685e+16
-1.4844508e+16
-1.4843508e+16
-1.4833121e+16
-1.4841742e+16
-1.4842454e+16
-1.4830503e+16
-1.4832219e+16
-1.4822102e+16
-1.4791522e+16
-1.4788905e+16
-1.4819013e+16
-1.4792579e+16
-1.4822584e+16
-1.4824851e+16
-1.4794129e+16
-1.4815542e+16
-1.4819822e+16
-1.4791833e+16
-1.4786726e+16
-1.4785896e+16
-1.4816331e+16
-1.4815454e+16
-1.4786635e+16
-1.483922e+16
-1.4840367e+16
-1.4828333e+16
-1.4828261e+16
-1.4834222e+16
-1.4836205e+16
-1.4824493e+16
-1.4826005e+16
-1.4829666e+16
-1.4839231e+16
-1.4898317e+16
-1.489474e+16
-1.4843665e+16
-1.4838869e+16
-1.4903687e+16
-1.4901685e+16
-1.4607952e+16
-1.476979e+16
-1.4772908e+16
-1.4381258e+16
-1.4380654e+16
-1.4606222e+16
-1.4768748e+16
-1.4763172e+16
-1.4733526e+16
-1.4732845e+16
-1.4454066e+16
-1.4747479e+16
-1.4745108e+16
-1.4719553e+16
-1.4727407e+16
-1.4435419e+16
-1.473944e+16
-1.4731653e+16
-1.4850426e+16
-1.4854139e+16
-1.4866931e+16
-1.4861877e+16
-1.4926986e+16
-1.4924888e+16
-1.488764e+16
-1.4885253e+16
-1.4856643e+16
-1.4865532e+16
-1.4923249e+16
-1.4919809e+16
-1.4882988e+16
-1.4879786e+16
-1.4843652e+16
-1.4854297e+16
-1.491153e+16
-1.4907847e+16
-1.4871968e+16
-1.4868651e+16
-1.485767e+16
-1.4853437e+16
-1.4916488e+16
-1.4914425e+16
-1.4876914e+16
-1.4874391e+16
-1.4816189e+16
-1.4814286e+16
-1.4831746e+16
-1.4832076e+16
-1.4870357e+16
-1.4869536e+16
-1.4883959e+16
-1.4883081e+16
-1.4882409e+16
-1.4869865e+16
-1.4866361e+16
-1.4880821e+16
-1.4879736e+16
-1.486522e+16
-1.4878869e+16
-1.4865979e+16
-1.4863993e+16
-1.4861174e+16
-1.4877107e+16
-1.4875938e+16
-1.4851992e+16
-1.4867098e+16
-1.4866054e+16
-1.4853926e+16
-1.4854629e+16
-1.4865109e+16
-1.4864238e+16
-1.4853027e+16
-1.4854033e+16
-1.4870014e+16
-1.4808451e+16
-1.4841387e+16
-1.4844055e+16
-1.481093e+16
-1.4812192e+16
-1.484453e+16
-1.4842329e+16
-1.4810254e+16
-1.4854312e+16
-1.4877829e+16
-1.4819742e+16
-1.4819665e+16
-1.4837145e+16
-1.4835799e+16
-1.4858013e+16
-1.4859496e+16
-1.4884029e+16
-1.488626e+16
-1.4863687e+16
-1.4862426e+16
-1.4851174e+16
-1.4852348e+16
-1.4806269e+16
-1.4839355e+16
-1.4840345e+16
-1.4807185e+16
-1.4808926e+16
-1.4839094e+16
-1.4833392e+16
-1.4802102e+16
-1.4858705e+16
-1.4859148e+16
-1.4846412e+16
-1.484798e+16
-1.482512e+16
-1.4825382e+16
-1.4843134e+16
-1.4842038e+16
-1.4825438e+16
-1.482409e+16
-1.4841219e+16
-1.4842662e+16
-1.4865083e+16
-1.4889414e+16
-1.4864629e+16
-1.4892989e+16
-1.4864315e+16
-1.4863135e+16
-1.4891943e+16
-1.4886541e+16
-1.4858202e+16
-1.4859251e+16
-1.4860237e+16
-1.4859048e+16
-1.4873977e+16
-1.4873322e+16
-1.4871989e+16
-1.485913e+16
-1.4856249e+16
-1.487071e+16
-1.486875e+16
-1.4854218e+16
-1.4867844e+16
-1.485534e+16
-1.4853303e+16
-1.4850178e+16
-1.4865862e+16
-1.4864387e+16
-1.4850488e+16
-1.485266e+16
-1.4840826e+16
-1.4840302e+16
-1.4845653e+16
-1.4847104e+16
-1.4837367e+16
-1.4835326e+16
-1.4794863e+16
-1.4827027e+16
-1.4831625e+16
-1.4799549e+16
-1.4824353e+16
-1.4827262e+16
-1.4795113e+16
-1.4792715e+16
-1.485682e+16
-1.485777e+16
-1.4845188e+16
-1.4844636e+16
-1.4797703e+16
-1.4831455e+16
-1.4832292e+16
-1.4797242e+16
-1.4854274e+16
-1.4854828e+16
-1.4844399e+16
-1.4843263e+16
-1.4829424e+16
-1.4834037e+16
-1.4801752e+16
-1.4796599e+16
-1.4612953e+16
-1.4771987e+16
-1.477733e+16
-1.4386073e+16
-1.4384419e+16
-1.4609502e+16
-1.4776278e+16
-1.4773022e+16
-1.4864583e+16
-1.4862411e+16
-1.4862998e+16
-1.486272e+16
-1.4828737e+16
-1.4847927e+16
-1.4829001e+16
-1.4846318e+16
-1.487193e+16
-1.4898534e+16
-1.4871277e+16
-1.4901502e+16
-1.4828491e+16
-1.4827993e+16
-1.4844864e+16
-1.4846436e+16
-1.489941e+16
-1.4891804e+16
-1.487019e+16
-1.4868306e+16
-1.4821878e+16
-1.4826306e+16
-1.4828984e+16
-1.4846173e+16
-1.4844213e+16
-1.4866975e+16
-1.4869801e+16
-1.4890382e+16
-1.4899868e+16
-1.4847261e+16
-1.48499e+16
-1.48302e+16
-1.4830713e+16
-1.4871497e+16
-1.4902434e+16
-1.4872073e+16
-1.4897834e+16
-1.1291262e+16
-1.4894875e+16
-1.4899688e+16
-1.493364e+16
-1.4936266e+16
-1.488807e+16
-1.4902089e+16
-1.4934691e+16
-1.4924065e+16
-1.4935875e+16
-1.4934417e+16
-1.493396e+16
-1.4937453e+16
-1.4935392e+16
-1.4933976e+16
-1.4927377e+16
-1.493358e+16
-1.4897179e+16
-1.4908523e+16
-1.4938223e+16
-1.4941368e+16
-1.4891375e+16
-1.4905544e+16
-1.4941905e+16
-1.4932753e+16
-1.4927321e+16
-1.4927669e+16
-1.4927678e+16
-1.4922594e+16
-1.4924468e+16
-1.4923108e+16
-1.491624e+16
-1.4920714e+16
-1.4911984e+16
-1.4910762e+16
-1.4947315e+16
-1.4953509e+16
-1.4909288e+16
-1.4908717e+16
-1.4953097e+16
-1.4946249e+16
-1.4908127e+16
-1.4900119e+16
-1.494516e+16
-1.4949684e+16
-1.4901341e+16
-1.490907e+16
-1.4946685e+16
-1.4938405e+16
-1.4911781e+16
-1.4911231e+16
-1.4932708e+16
-1.4925676e+16
-1.4920697e+16
-1.4919532e+16
-1.4950278e+16
-1.4957833e+16
-1.4910911e+16
-1.4924203e+16
-1.4959766e+16
-1.4951662e+16
-1.4916871e+16
-1.4914385e+16
-1.4954007e+16
-1.4959399e+16
-1.4910762e+16
-1.4923277e+16
-1.4960347e+16
-1.4950905e+16
-1.4914278e+16
-1.4913562e+16
-1.4956992e+16
-1.4950986e+16
-1.492004e+16
-1.4910636e+16
-1.4958582e+16
-1.495141e+16
-1.4916366e+16
-1.4914715e+16
-1.4952537e+16
-1.4958111e+16
-1.4912384e+16
-1.4919174e+16
-1.495632e+16
-1.4947434e+16
-1.4917788e+16
-1.49178e+16
-1.4913346e+16
-1.491748e+16
-1.4915424e+16
-1.4916976e+16
-1.4911138e+16
-1.4907012e+16
-1.3929856e+16
-1.3930739e+16
-1.3991224e+16
-1.3991611e+16
-1.326153e+16
-1.3261874e+16
-1.3370757e+16
-1.3369585e+16
-1.3030613e+16
-1.3129352e+16
-1.3130428e+16
-1.3548642e+16
-1.3547816e+16
-1.3500418e+16
-1.3502014e+16
-1.3547208e+16
-1.3547834e+16
-1.3502408e+16
-1.3500532e+16
-1.3636084e+16
-1.3688176e+16
-1.3637415e+16
-1.368896e+16
-1.3636272e+16
-1.3688118e+16
-1.3636153e+16
-1.3687218e+16
-1.3784668e+16
-1.3784216e+16
-1.3838905e+16
-1.3837357e+16
-1.3785683e+16
-1.3839634e+16
-1.3785895e+16
-1.3839935e+16
-1.3933177e+16
-1.3995002e+16
-1.3933419e+16
-1.3995522e+16
-1.3931891e+16
-1.3994309e+16
-1.3930126e+16
-1.3991886e+16
-1.3931547e+16
-1.3992848e+16
-1.3931714e+16
-1.3993421e+16
-1.3784572e+16
-1.3839092e+16
-1.3786836e+16
-1.3840591e+16
-1.3932675e+16
-1.3994393e+16
-1.3934112e+16
-1.3995498e+16
-1.378439e+16
-1.3838425e+16
-1.378452e+16
-1.3838815e+16
-1.3551353e+16
-1.3505012e+16
-1.3686979e+16
-1.3635712e+16
-1.3687332e+16
-1.363811e+16
-1.3689824e+16
-1.4292905e+16
-1.4294163e+16
-1.4385966e+16
-1.4387498e+16
-1.4103994e+16
-1.4105176e+16
-1.4176419e+16
-1.4177955e+16
-1.4293691e+16
-1.4387483e+16
-1.4292869e+16
-1.4385577e+16
-1.4105746e+16
-1.4106341e+16
-1.4178385e+16
-1.4177822e+16
-1.4175296e+16
-1.4102775e+16
-1.4175522e+16
-1.4174192e+16
-1.4287968e+16
-1.4383843e+16
-1.4290742e+16
-1.4387433e+16
-1.4291735e+16
-1.4388289e+16
-1.429183e+16
-1.4386869e+16
-1.4527878e+16
-1.4625715e+16
-1.4527214e+16
-1.4622327e+16
-1.4524886e+16
-1.4621049e+16
-1.4526978e+16
-1.4624976e+16
-1.4740527e+16
-1.4801185e+16
-1.4744591e+16
-1.4807214e+16
-1.4744599e+16
-1.4806976e+16
-1.4741972e+16
-1.4801077e+16
-1.4526148e+16
-1.4621473e+16
-1.4526637e+16
-1.4623917e+16
-1.4740926e+16
-1.4743051e+16
-1.4804061e+16
-1.4800195e+16
-1.4526541e+16
-1.4623564e+16
-1.4525541e+16
-1.4620036e+16
-1.4742468e+16
-1.4804092e+16
-1.4738693e+16
-1.4797064e+16
-1.4106717e+16
-1.4106661e+16
-1.4178616e+16
-1.4179574e+16
-1.4292974e+16
-1.4294499e+16
-1.438666e+16
-1.4389182e+16
-1.4295544e+16
-1.4295987e+16
-1.4389743e+16
-1.4389444e+16
-1.4107422e+16
-1.4180189e+16
-1.4108569e+16
-1.418054e+16
-1.4525978e+16
-1.4526986e+16
-1.462048e+16
-1.4623157e+16
-1.4738721e+16
-1.4797538e+16
-1.4741391e+16
-1.4801696e+16
-1.4527779e+16
-1.4623617e+16
-1.4527922e+16
-1.4621263e+16
-1.4801615e+16
-1.4741185e+16
-1.4738342e+16
-1.4794571e+16
-1.4524126e+16
-1.4618189e+16
-1.4520274e+16
-1.4612132e+16
-1.4527005e+16
-1.4618903e+16
-1.452699e+16
-1.4620731e+16
-1.4735806e+16
-1.4792461e+16
-1.4736898e+16
-1.4795292e+16
-1.4734053e+16
-1.4792985e+16
-1.4728078e+16
-1.4783751e+16
-1.4106617e+16
-1.4178743e+16
-1.4104992e+16
-1.4175688e+16
-1.4294575e+16
-1.4295143e+16
-1.4388412e+16
-1.4389455e+16
-1.4107768e+16
-1.4179253e+16
-1.4107947e+16
-1.4180163e+16
-1.4292639e+16
-1.4387046e+16
-1.4289458e+16
-1.4381986e+16
-1.2455536e+16
-1.2824374e+16
-1.2905175e+16
-1.2641792e+16
-1.26523e+16
-1.2758946e+16
-1.2776162e+16
-1.4811585e+16
-1.4765989e+16
-1.4808967e+16
-1.4767035e+16
-1.4856973e+16
-1.4867702e+16
-1.4870998e+16
-1.4858948e+16
-1.4763706e+16
-1.4806308e+16
-1.4766302e+16
-1.4810502e+16
-1.4857704e+16
-1.4870372e+16
-1.4854388e+16
-1.4865239e+16
-1.4512087e+16
-1.4568581e+16
-1.4569068e+16
-1.4512197e+16
-1.4509715e+16
-1.4511292e+16
-1.4568472e+16
-1.4566073e+16
-1.46919e+16
-1.4636122e+16
-1.4691439e+16
-1.463624e+16
-1.4633095e+16
-1.4687273e+16
-1.4635619e+16
-1.4691109e+16
-1.4572045e+16
-1.4515155e+16
-1.4571684e+16
-1.4514626e+16
-1.4638741e+16
-1.4693642e+16
-1.4695203e+16
-1.463921e+16
-1.4568774e+16
-1.4513701e+16
-1.4571292e+16
-1.4512035e+16
-1.4638726e+16
-1.4694669e+16
-1.4636498e+16
-1.4691554e+16
-1.4763332e+16
-1.4806012e+16
-1.4807072e+16
-1.4763045e+16
-1.4864905e+16
-1.4853985e+16
-1.4854602e+16
-1.4866999e+16
-1.4762136e+16
-1.4759088e+16
-1.4806046e+16
-1.4801324e+16
-1.4865221e+16
-1.4848747e+16
-1.485887e+16
-1.4852909e+16
-1.4505822e+16
-1.4561592e+16
-1.4561692e+16
-1.4505499e+16
-1.4501699e+16
-1.4503656e+16
-1.456027e+16
-1.455758e+16
-1.4683553e+16
-1.4628436e+16
-1.4683045e+16
-1.4628293e+16
-1.4624234e+16
-1.4678424e+16
-1.4626896e+16
-1.4682134e+16
-1.456612e+16
-1.4509479e+16
-1.4565846e+16
-1.4509188e+16
-1.4632527e+16
-1.4686629e+16
-1.4687701e+16
-1.4632744e+16
-1.4563062e+16
-1.4508436e+16
-1.45654e+16
-1.450688e+16
-1.463227e+16
-1.4687174e+16
-1.4630123e+16
-1.4684176e+16
-1.4754214e+16
-1.4795655e+16
-1.479706e+16
-1.4754081e+16
-1.4752505e+16
-1.4795603e+16
-1.4749775e+16
-1.4791554e+16
-1.4853195e+16
-1.4855937e+16
-1.4842802e+16
-1.4843886e+16
-1.4838417e+16
-1.4842014e+16
-1.4853766e+16
-1.4848228e+16
-1.4847697e+16
-1.4858269e+16
-1.486225e+16
-1.4850217e+16
-1.4802289e+16
-1.4758348e+16
-1.4800435e+16
-1.4758619e+16
-1.475551e+16
-1.4757912e+16
-1.4800788e+16
-1.4796911e+16
-1.4843933e+16
-1.484717e+16
-1.4858944e+16
-1.4853975e+16
-1.4313452e+16
-1.4262588e+16
-1.4314037e+16
-1.4262059e+16
-1.4380159e+16
-1.4433605e+16
-1.4433976e+16
-1.4379843e+16
-1.4311403e+16
-1.4261464e+16
-1.431304e+16
-1.4260557e+16
-1.4379612e+16
-1.4433406e+16
-1.4377773e+16
-1.4431472e+16
-1.4072332e+16
-1.4106045e+16
-1.4105322e+16
-1.4071541e+16
-1.407103e+16
-1.4104781e+16
-1.4103645e+16
-1.4070055e+16
-1.4160134e+16
-1.4196702e+16
-1.4196507e+16
-1.4159742e+16
-1.4159102e+16
-1.4195659e+16
-1.4194661e+16
-1.4158259e+16
-1.4068988e+16
-1.41026e+16
-1.410152e+16
-1.4068022e+16
-1.4065702e+16
-1.4067032e+16
-1.410054e+16
-1.4099056e+16
-1.4156903e+16
-1.4193295e+16
-1.4192522e+16
-1.4156009e+16
-1.4152974e+16
-1.4154487e+16
-1.4191158e+16
-1.4189439e+16
-1.4259064e+16
-1.4310335e+16
-1.4309697e+16
-1.4257964e+16
-1.4255326e+16
-1.425669e+16
-1.4308416e+16
-1.4306648e+16
-1.4430362e+16
-1.4430347e+16
-1.4376683e+16
-1.4376078e+16
-1.4372371e+16
-1.4374413e+16
-1.4428503e+16
-1.4425953e+16
-1.4317365e+16
-1.4266662e+16
-1.4318246e+16
-1.4265741e+16
-1.4384025e+16
-1.4438243e+16
-1.4438385e+16
-1.438362e+16
-1.426397e+16
-1.4315337e+16
-1.426507e+16
-1.4316802e+16
-1.4383102e+16
-1.4437575e+16
-1.4381685e+16
-1.44356e+16
-1.4073414e+16
-1.4107114e+16
-1.4106491e+16
-1.4072865e+16
-1.4072686e+16
-1.4106566e+16
-1.4105847e+16
-1.407217e+16
-1.4197688e+16
-1.4161564e+16
-1.4198141e+16
-1.4160924e+16
-1.4196585e+16
-1.4160913e+16
-1.4197542e+16
-1.4160227e+16
-1.4109221e+16
-1.4076787e+16
-1.4110471e+16
-1.4075605e+16
-1.4164312e+16
-1.4200838e+16
-1.4200188e+16
-1.4163421e+16
-1.4107199e+16
-1.4074738e+16
-1.4108532e+16
-1.4073575e+16
-1.4162838e+16
-1.419943e+16
-1.4161722e+16
-1.4198292e+16
-1.4264003e+16
-1.4315408e+16
-1.4315239e+16
-1.4263311e+16
-1.4263218e+16
-1.4315047e+16
-1.4262226e+16
-1.4313862e+16
-1.4435678e+16
-1.4436342e+16
-1.4381788e+16
-1.4381811e+16
-1.4379744e+16
-1.4381167e+16
-1.4435471e+16
-1.4433451e+16
-1.3937107e+16
-1.3910216e+16
-1.393878e+16
-1.3908759e+16
-1.3988704e+16
-1.4018738e+16
-1.4017783e+16
-1.3987505e+16
-1.3907224e+16
-1.3935447e+16
-1.3908122e+16
-1.3936521e+16
-1.3986792e+16
-1.4016761e+16
-1.3985591e+16
-1.4015289e+16
-1.3762461e+16
-1.3784975e+16
-1.3783628e+16
-1.3761276e+16
-1.3760555e+16
-1.3761129e+16
-1.3783651e+16
-1.378327e+16
-1.385443e+16
-1.3832327e+16
-1.3855286e+16
-1.3831372e+16
-1.3830247e+16
-1.3853668e+16
-1.3830918e+16
-1.3854154e+16
-1.3786732e+16
-1.3765531e+16
-1.3788496e+16
-1.3764027e+16
-1.3835334e+16
-1.3858761e+16
-1.3857558e+16
-1.3834066e+16
-1.3785139e+16
-1.3763675e+16
-1.3786244e+16
-1.3762785e+16
-1.3833623e+16
-1.3856705e+16
-1.3832715e+16
-1.3855904e+16
-1.3906916e+16
-1.3935266e+16
-1.3934429e+16
-1.3905885e+16
-1.390596e+16
-1.3934417e+16
-1.3905531e+16
-1.3933976e+16
-1.4015018e+16
-1.4014562e+16
-1.3985342e+16
-1.398457e+16
-1.398375e+16
-1.3984351e+16
-1.4014342e+16
-1.4013758e+16
-1.3632533e+16
-1.363114e+16
-1.3646879e+16
-1.3645417e+16
-1.3691735e+16
-1.3710816e+16
-1.3709591e+16
-1.3693003e+16
-1.3631116e+16
-1.3630277e+16
-1.3644747e+16
-1.3645343e+16
-1.3691034e+16
-1.3690167e+16
-1.3709196e+16
-1.3708667e+16
-1.3648342e+16
-1.3635333e+16
-1.3649678e+16
-1.3634293e+16
-1.369515e+16
-1.3713871e+16
-1.3712669e+16
-1.3694399e+16
-1.364714e+16
-1.3634099e+16
-1.3648094e+16
-1.3633252e+16
-1.369394e+16
-1.3712081e+16
-1.3693076e+16
-1.3711352e+16
-1.3579853e+16
-1.3580314e+16
-1.3587392e+16
-1.3586789e+16
-1.3586092e+16
-1.3585e+16
-1.3580759e+16
-1.3579806e+16
-1.3384831e+16
-1.3385141e+16
-1.342821e+16
-1.3427266e+16
-1.3499304e+16
-1.3498756e+16
-1.3579429e+16
-1.3579268e+16
-1.3584683e+16
-1.3583894e+16
-1.3583681e+16
-1.3582654e+16
-1.3578489e+16
-1.3576744e+16
-1.3425726e+16
-1.3384897e+16
-1.3384086e+16
-1.3426195e+16
-1.3496488e+16
-1.3497958e+16
-1.3270883e+16
-1.3271855e+16
-1.3313401e+16
-1.3312354e+16
-1.3270354e+16
-1.3271306e+16
-1.3313646e+16
-1.3312944e+16
-1.3572973e+16
-1.3572813e+16
-1.3578439e+16
-1.3577836e+16
-1.3577659e+16
-1.3576181e+16
-1.3572176e+16
-1.3570188e+16
-1.3420176e+16
-1.3378812e+16
-1.3377216e+16
-1.3419588e+16
-1.3489445e+16
-1.3491063e+16
-1.3575387e+16
-1.3574762e+16
-1.3582281e+16
-1.3581104e+16
-1.3580436e+16
-1.3579509e+16
-1.3574792e+16
-1.3574248e+16
-1.3426025e+16
-1.3384275e+16
-1.3381032e+16
-1.3422946e+16
-1.3493381e+16
-1.3494469e+16
-1.3629764e+16
-1.3628255e+16
-1.3642766e+16
-1.3644545e+16
-1.3689895e+16
-1.3688377e+16
-1.3708676e+16
-1.37072e+16
-1.364119e+16
-1.3627844e+16
-1.3642014e+16
-1.3627055e+16
-1.3706156e+16
-1.3687447e+16
-1.368658e+16
-1.3705425e+16
-1.3312089e+16
-1.327141e+16
-1.3267347e+16
-1.3308929e+16
-1.326537e+16
-1.3265962e+16
-1.3307462e+16
-1.3305745e+16
-1.36386e+16
-1.3625681e+16
-1.3639974e+16
-1.362459e+16
-1.3704412e+16
-1.3685784e+16
-1.3684643e+16
-1.3703427e+16
-1.3637318e+16
-1.3624368e+16
-1.3638254e+16
-1.3623385e+16
-1.3702639e+16
-1.3683811e+16
-1.3682833e+16
-1.3701826e+16
-1.3778139e+16
-1.3756414e+16
-1.3779278e+16
-1.375535e+16
-1.3826439e+16
-1.3850107e+16
-1.3849054e+16
-1.3825466e+16
-1.375399e+16
-1.3776815e+16
-1.375472e+16
-1.3777526e+16
-1.3824613e+16
-1.3848204e+16
-1.3823841e+16
-1.384735e+16
-1.3781789e+16
-1.3760343e+16
-1.3783197e+16
-1.3758905e+16
-1.3829946e+16
-1.3828753e+16
-1.3853671e+16
-1.3852586e+16
-1.3780289e+16
-1.3758208e+16
-1.3781001e+16
-1.3757467e+16
-1.3851773e+16
-1.382813e+16
-1.3827408e+16
-1.3851109e+16
-1.3933074e+16
-1.3905552e+16
-1.3934009e+16
-1.3904424e+16
-1.4014043e+16
-1.3983861e+16
-1.3983129e+16
-1.4013534e+16
-1.3903282e+16
-1.3931737e+16
-1.3903972e+16
-1.3932541e+16
-1.4012813e+16
-1.3982676e+16
-1.3981834e+16
-1.4011775e+16
-1.3929763e+16
-1.3902255e+16
-1.3930728e+16
-1.3901147e+16
-1.4010833e+16
-1.3980915e+16
-1.3979999e+16
-1.4010169e+16
-1.3899355e+16
-1.3927833e+16
-1.3900214e+16
-1.3928886e+16
-1.4009121e+16
-1.3979026e+16
-1.397785e+16
-1.4007635e+16
-1.3048458e+16
-1.3051315e+16
-1.3088164e+16
-1.3086872e+16
-1.3051164e+16
-1.3053639e+16
-1.3092211e+16
-1.3089289e+16
-1.3199135e+16
-1.31615e+16
-1.3159058e+16
-1.3195795e+16
-1.319413e+16
-1.3157831e+16
-1.3156865e+16
-1.3193949e+16
-1.305565e+16
-1.3055216e+16
-1.309341e+16
-1.309382e+16
-1.3056644e+16
-1.3055747e+16
-1.309536e+16
-1.3094331e+16
-1.3162935e+16
-1.3162885e+16
-1.320085e+16