/*--------------------------------*- C++ -*----------------------------------*\
  =========                 |
  \\      /  F ield         | OpenFOAM: The Open Source CFD Toolbox
   \\    /   O peration     | Website:  https://openfoam.org
    \\  /    A nd           | Version:  7
     \\/     M anipulation  |
\*---------------------------------------------------------------------------*/
FoamFile
{
    version     2.0;
    format      ascii;
    class       volVectorField;
    location    "1000";
    object      U;
}
// * * * * * * * * * * * * * * * * * * * * * * * * * * * * * * * * * * * * * //

dimensions      [0 1 -1 0 0 0 0];

internalField   nonuniform List<vector> 
34378
(
(-5.0461322e+08 16148361 46212885)
(-5.020988e+08 35350577 8348319.2)
(-3.9179095e+08 -3467866.8 54202772)
(-5.5065261e+08 -10145153 62718984)
(-3.6262008e+08 9858000.4 95314622)
(-3.7168202e+08 30977865 45967262)
(-4.129263e+08 2167532.4 29480051)
(-3.978032e+08 42525840 -52451685)
(-3.4557236e+08 48000335 35567851)
(-4.0552251e+08 1260220.6 -53926297)
(-3.5604774e+08 -14370732 37942086)
(-5.5104019e+08 472914.07 22645514)
(-3.1627524e+08 -4195717 56260644)
(-3.0667181e+08 15544250 49736226)
(-3.5002474e+08 12357411 84156163)
(-3.5065796e+08 12273952 86279070)
(-3.9088385e+08 20546481 57087992)
(-4.0586148e+08 -19192082 63844944)
(-3.7166089e+08 -3510186.3 97749960)
(-3.6274954e+08 5348821 96415247)
(-3.0311265e+08 948794.75 48015177)
(-3.377851e+08 14258068 78579284)
(-4.1179953e+08 12650035 54007074)
(-3.982079e+08 -10581703 -44012139)
(-5.3522637e+08 -21755304 25266296)
(-3.5503259e+08 10256363 37259406)
(-3.599263e+08 9728154.3 41364218)
(-3.6526296e+08 9127167 45292887)
(-4.116682e+08 4814388.9 26743547)
(-4.2486936e+08 -9303354 31138658)
(-2.9756394e+08 5362510.9 -26055262)
(-3.1815064e+08 16753795 -61854414)
(-3.2023573e+08 19076685 -62813791)
(-2.5895454e+08 -9706330.6 43760342)
(-2.9874059e+08 1293101.2 -51834449)
(-4.0442501e+08 29459697 -50313164)
(-3.2527142e+08 16267441 -62851281)
(-3.2418533e+08 13532216 -61235252)
(-3.0229227e+08 1808842 -25987514)
(-2.9659194e+08 21854027 -24562997)
(-3.0270056e+08 -3410275.1 -51799909)
(-2.9884406e+08 20750542 -50513492)
(-2.6187483e+08 -16328448 45227771)
(-3.4929655e+08 30630396 35616891)
(-2.5531613e+08 27098972 43014976)
(-4.1726776e+08 -17498203 -53535956)
(-3.7092069e+08 -39232211 44035720)
(-2.5687184e+08 -4964021 54654552)
(-2.5123154e+08 7941394.9 49827940)
(-3.1080328e+08 13155593 52649344)
(-3.0242523e+08 6195071.9 71766177)
(-3.0632937e+08 6835536 74304991)
(-2.4995419e+08 -1830080.4 48743889)
(-2.4586392e+08 9963537 46648490)
(-3.0066596e+08 7706395.2 68395265)
(-3.01947e+08 8063578.6 68582860)
(-3.466298e+08 7846991.1 84616280)
(-3.4558985e+08 8392973.5 79836729)
(-3.1087985e+08 -5483011 52160844)
(-3.2188238e+08 -13423385 59748884)
(-3.5357929e+08 3643292.8 87808025)
(-3.1555172e+08 8107952.4 55913015)
(-3.5325649e+08 3747454.3 87786558)
(-2.5067722e+08 -1892323.5 49817490)
(-2.4385332e+08 10512051 44880224)
(-2.9951076e+08 9634404.3 69048247)
(-2.9712809e+08 9092474.9 66289729)
(-4.0524037e+08 -1975763.2 -42632894)
(-4.229794e+08 3377888.4 53218701)
(-4.2054663e+08 -17880191 55959506)
(-3.7284122e+08 15624763 48636468)
(-3.7204827e+08 -2531402.9 47083893)
(-3.5837304e+08 8804086.5 -18951360)
(-3.6349665e+08 1533472.7 -13527916)
(-3.611032e+08 10413757 13592303)
(-3.4352588e+08 -1668271.2 -34240125)
(-3.4303969e+08 4856421.1 -36382699)
(-3.6262967e+08 -3667981.6 12354454)
(-3.9989635e+08 2275665.1 35623197)
(-3.6048733e+08 11554492 10568598)
(-3.4612341e+08 335535.26 -38339959)
(-3.9007452e+08 -18770209 41158906)
(-3.6376655e+08 -19471771 -17432000)
(-3.5072991e+08 -2286669.6 -11666677)
(-3.4119763e+08 -25477359 45741958)
(-3.3838617e+08 2930735.6 46520899)
(-3.050934e+08 -16677911 -50414753)
(-3.1434783e+08 -1132889.4 -47740745)
(-3.6143175e+08 3320921.7 -15588049)
(-3.6527659e+08 17567883 43235536)
(-3.0060444e+08 7122472.3 38050745)
(-3.0367487e+08 8011493.8 41186960)
(-3.0712532e+08 6441263.5 41188240)
(-3.0339501e+08 5493087.1 40465552)
(-3.0688339e+08 4120684.9 43199284)
(-3.1154625e+08 6488838.2 47387290)
(-3.6043526e+08 6034982.5 41455767)
(-3.6213485e+08 4752117.7 38120432)
(-3.6829978e+08 956378.61 44747154)
(-3.6836092e+08 2239393 44153335)
(-4.3398724e+08 10820308 -42873830)
(-4.3028653e+08 13016477 -44404884)
(-3.53317e+08 12642142 -61002952)
(-3.3331628e+08 12317887 -4831663.2)
(-3.3090072e+08 17406662 -4218417.4)
(-1.9081088e+08 -2076857.7 -37369047)
(-1.89846e+08 13281108 -37234180)
(-1.8378976e+08 -10946240 54594341)
(-1.8070516e+08 21243726 53173634)
(-2.4876557e+08 10896441 -59080087)
(-2.4785955e+08 10680273 -58319896)
(-2.1569675e+08 12040195 -36410963)
(-2.1632285e+08 -980864.15 -37254697)
(-3.0712979e+08 -2457939.2 -25769630)
(-3.3242648e+08 7891848.8 -60273600)
(-3.3126517e+08 11913568 -60739897)
(-3.0116544e+08 18746101 -23404646)
(-3.3979781e+08 14656257 -4200663.8)
(-3.374386e+08 9887193.5 -3955167.3)
(-3.5644809e+08 9619832.1 -60682323)
(-3.5416193e+08 9054091.5 -59790635)
(-3.0226548e+08 16896521 -50445523)
(-2.5230381e+08 8555239.8 -58903766)
(-2.5177306e+08 8094881.1 -57989306)
(-2.182094e+08 -3668757.1 -36961234)
(-2.173162e+08 9409391.7 -35637169)
(-2.4929847e+08 10049178 -57492857)
(-2.4908297e+08 8727529.2 -56885576)
(-2.1565748e+08 11584017 -35649556)
(-2.1645487e+08 -2589440 -35421245)
(-1.9153159e+08 -4849414.7 -36497752)
(-1.9118571e+08 10835461 -35680261)
(-1.8626354e+08 -14054619 55503355)
(-2.5537947e+08 23265909 41465619)
(-1.8344687e+08 18785072 54791582)
(-2.641875e+08 -20707001 43288557)
(-3.0671769e+08 -7340885.5 -52423999)
(-1.9108802e+08 -3252745.1 -35713382)
(-1.8944236e+08 12776851 -36110706)
(-1.7985088e+08 21144048 52179580)
(-1.8372501e+08 -11069019 54808125)
(-3.100529e+08 -9581126.9 -25189804)
(-3.3628092e+08 1528177 -61915433)
(-3.3630623e+08 5419120.3 -63598167)
(-3.0500154e+08 12023686 -24230608)
(-3.1072059e+08 -15126834 -52248440)
(-3.067815e+08 11137971 -51202161)
(-2.6512404e+08 14971941 47081598)
(-2.7314629e+08 -32674388 50013940)
(-2.5023622e+08 7631452.9 49317630)
(-2.2210858e+08 -5015312.1 57392473)
(-2.2058099e+08 5216211.9 55379620)
(-2.6021333e+08 1929850 65540222)
(-2.5989793e+08 2368105.2 65937547)
(-2.2013657e+08 -3586653.5 54960695)
(-2.205e+08 7113288.9 54698538)
(-2.5757696e+08 2707116.1 62475059)
(-2.5760666e+08 2300692.7 62272668)
(-2.5211904e+08 -3068613.4 49888781)
(-3.0271303e+08 6724255.7 68801184)
(-3.0050357e+08 5130951.2 69636192)
(-2.2145875e+08 -3236169.9 56703860)
(-2.1686937e+08 7673010.3 53118893)
(-2.5872947e+08 3731801 64099282)
(-2.5705237e+08 3847903.8 61539265)
(-2.1760182e+08 -1223081 53267629)
(-2.1408092e+08 7503883.8 51722696)
(-2.5525067e+08 3855340.4 60749697)
(-2.561203e+08 4515077 60579461)
(-2.5347609e+08 -5810662.1 51828509)
(-2.5019014e+08 6945434.2 48127909)
(-3.0196873e+08 5160987.4 69283550)
(-3.0178737e+08 5038482.3 68643212)
(-2.5931617e+08 -10454651 55263742)
(-2.535111e+08 2621699.2 51306226)
(-3.0493632e+08 962246.67 73712958)
(-3.0605261e+08 1855755.5 73752031)
(-3.0635214e+08 3231323 71077832)
(-2.5607883e+08 -7049827.6 52177569)
(-2.5534987e+08 5654706.7 52284192)
(-3.0475478e+08 2768423.9 71846099)
(-2.2047975e+08 -2963949.8 55784735)
(-2.1839937e+08 7902175.4 53060474)
(-2.5715462e+08 5133209.9 61831682)
(-2.5719292e+08 4575311.6 62896554)
(-2.1553287e+08 -101656.33 51217254)
(-2.1144175e+08 9872967.4 48550059)
(-2.5400138e+08 6097918.6 58498156)
(-2.5481428e+08 6020233.1 58701904)
(-3.5070357e+08 2352000.6 -33031096)
(-3.6541764e+08 -7230898.1 15976145)
(-3.6052678e+08 7155873.2 8534465.6)
(-3.4421511e+08 -4366547 -43537313)
(-3.6754311e+08 3366070.7 -13455237)
(-3.6644296e+08 -5776583 -17025605)
(-3.7697688e+08 8559495.1 47761404)
(-3.8229837e+08 -8933659.9 50126766)
(-3.6202952e+08 -1285506.6 -17046741)
(-3.7118108e+08 12496497 42941267)
(-3.7051491e+08 -5800908.5 46122524)
(-3.6070137e+08 4778151.2 -16187662)
(-3.2189966e+08 12551830 48886036)
(-3.0907235e+08 4885220.6 2094850.6)
(-3.1400436e+08 2629652.9 5169147.9)
(-3.2000131e+08 -2576026.9 47751075)
(-3.0686941e+08 6441930.9 -15453.248)
(-3.0867832e+08 2163861.5 1272391.2)
(-3.1830539e+08 -1193938 46308098)
(-3.2123672e+08 12943949 45883625)
(-3.0724152e+08 8112294.9 15676415)
(-2.936207e+08 351874.96 -17391792)
(-2.9300521e+08 5918598.7 -16410905)
(-3.075104e+08 -580561.04 16583347)
(-3.119826e+08 9380594.7 20329059)
(-2.9498625e+08 3556895.8 -13993072)
(-2.9759023e+08 1209189 -11963258)
(-3.0964624e+08 -2000839.4 19015308)
(-2.9985126e+08 6284679.8 4253318.7)
(-2.9363712e+08 4914754.7 -19310367)
(-2.9414256e+08 24024.277 -18904448)
(-3.0003634e+08 -1593710 4112104.1)
(-3.0308187e+08 -830364.32 1482481)
(-3.0244002e+08 6246836.1 1760057.4)
(-2.9311142e+08 483970.96 -22177930)
(-2.9339962e+08 4156118.9 -22548566)
(-3.486063e+08 4828944.3 -3743140.8)
(-2.9380514e+08 5512502.2 -24709789)
(-2.9383599e+08 511898.41 -26187010)
(-3.0281112e+08 6081096 -2007508.6)
(-3.4922801e+08 -7876867.8 -4407474.5)
(-3.0287179e+08 -104974.77 -750628.25)
(-2.9211502e+08 5356974.4 -22408995)
(-2.920757e+08 -1024781.1 -23931961)
(-2.9642071e+08 5882389 -1110085.2)
(-2.9641008e+08 94679.457 228040.1)
(-3.2854068e+08 -36194.534 -46316123)
(-3.3561702e+08 -6795275.9 -45170503)
(-2.9775061e+08 7479936.8 1723154.5)
(-2.9136503e+08 6964662.3 -22838898)
(-2.9282571e+08 794910.46 -22359297)
(-2.9738917e+08 594426.65 1679251.9)
(-2.9348518e+08 6052985.9 -25136737)
(-2.9561186e+08 1667779.1 -24929380)
(-3.021447e+08 813450.46 -1220283.5)
(-3.0258625e+08 7336091.5 -1249599.6)
(-3.5495683e+08 7966378.3 -4438743.3)
(-3.4739556e+08 -4422023.7 -5064622.1)
(-3.3006146e+08 -4031411 -48238943)
(-3.2654794e+08 4371473.3 -47186758)
(-3.0495646e+08 -8607616.3 -12852468)
(-3.5582515e+08 4130095.2 10285370)
(-4.0616922e+08 -9746280.2 46856314)
(-2.9664271e+08 -2163659.3 -8025484.3)
(-3.4398546e+08 -11980489 11096274)
(-2.9776813e+08 -12816168 -72136031)
(-2.9873855e+08 -26992973 -71627894)
(-4.0364296e+08 -20768844 48328122)
(-3.4283067e+08 5109936.2 11653631)
(-2.9356715e+08 -6211783.8 -10035032)
(-2.940464e+08 -290119.66 -8601324.3)
(-3.4136219e+08 -9729826.6 10741344)
(-3.074556e+08 10281342 16721293)
(-2.924267e+08 5976162.8 -15620157)
(-2.9527755e+08 3194028 -13553223)
(-3.0631729e+08 -61103.368 15917251)
(-3.152954e+08 12939422 43850608)
(-3.0553733e+08 7330161.7 -50872.18)
(-3.0939199e+08 3662667.2 1616128.8)
(-3.1524305e+08 -848207.5 43732561)
(-2.5460162e+08 5898663.4 36436335)
(-2.5291609e+08 4555625.5 36228567)
(-2.5597225e+08 3249497.4 37918117)
(-2.5612017e+08 4861233.5 39523780)
(-2.5729306e+08 3463013.7 40053885)
(-2.5651219e+08 1829392.1 38048441)
(-2.5635316e+08 4094841.2 38268722)
(-2.5475887e+08 2329923.5 38104739)
(-2.5820376e+08 2160969.3 39564104)
(-2.5736082e+08 815250.86 39539800)
(-2.5928368e+08 3102387.7 42795054)
(-2.5966673e+08 198572.82 41584283)
(-3.0589465e+08 3897705.9 42105781)
(-3.0827629e+08 5714128.2 41756664)
(-3.0755832e+08 3672549.7 41772959)
(-3.0626748e+08 3432241.5 40138019)
(-3.1142505e+08 -469991.56 45091133)
(-3.122857e+08 1516933.5 46236853)
(-3.1329787e+08 2289748.9 43809756)
(-3.1071532e+08 1013551.4 44179608)
(-4.4206553e+08 -2315150.4 -42346322)
(-4.3664155e+08 2449487.9 -40812191)
(-4.352747e+08 5745457.2 -21949738)
(-4.3279097e+08 6526101.3 -23056897)
(-3.6315708e+08 9550723.4 -46372690)
(-2.679783e+08 10245721 -30764719)
(-2.6756574e+08 9322167.7 -31458788)
(-3.4006795e+08 19197370 -35199177)
(-3.4103514e+08 2374220.6 -36931678)
(-1.4491199e+08 3375150.9 -50468457)
(-1.4410663e+08 2409377.2 -50514121)
(-1.4362294e+08 -357343.11 -29796993)
(-1.4285182e+08 9364062.1 -28716490)
(-1.4466732e+08 3390675.1 -49330211)
(-1.4419464e+08 3176269.6 -50293401)
(-1.438444e+08 -576286 -28404820)
(-1.4228467e+08 10369720 -29681477)
(-1.2071267e+08 -858022.4 10442589)
(-1.1819646e+08 8949437.4 9643390)
(-1.4904857e+08 14617166 62340107)
(-1.510117e+08 -8087201.3 63325241)
(-1.4859057e+08 -4856496 62481062)
(-1.4223222e+08 16654864 58138147)
(-1.2131645e+08 -98827.843 11150668)
(-1.1531087e+08 10166892 4970779.5)
(-2.7446256e+08 5969772.3 -71430522)
(-2.7391867e+08 6339085.4 -72345456)
(-3.6097354e+08 5863531.1 -61519362)
(-3.4740826e+08 4592148.5 -3825251.9)
(-3.3859561e+08 10283663 -3401029.3)
(-3.5730604e+08 5954845.4 -58797200)
(-3.5283496e+08 770738.04 -38697723)
(-3.4356953e+08 17424476 -34714862)
(-3.6687322e+08 7700407.3 -46373907)
(-2.6987553e+08 7008349.8 -31161084)
(-2.6944353e+08 8080081.3 -30840356)
(-3.6531708e+08 6870224.2 -45509903)
(-2.680331e+08 7637388.8 -30076275)
(-2.665063e+08 9395757.6 -30016145)
(-2.5377962e+08 6379509.4 -56171384)
(-2.5419076e+08 7686552.5 -56990865)
(-2.1803192e+08 8924662.6 -35902145)
(-2.1836122e+08 -4770591.1 -35583484)
(-2.7475551e+08 3924799.8 -72654139)
(-2.7591317e+08 4191701.9 -71702675)
(-2.7430926e+08 5614303.4 -71411353)
(-2.748302e+08 5426880.8 -71662815)
(-1.9056257e+08 9953546.6 -36189036)
(-1.4530404e+08 1492580.2 -50002711)
(-1.4462076e+08 544894.87 -50129049)
(-1.4272593e+08 -2067884.5 -29336098)
(-1.4248087e+08 7774851.2 -28421009)
(-1.4519668e+08 1450918.1 -48702608)
(-1.4475148e+08 1254416.8 -49618861)
(-1.4317387e+08 -1918117.4 -28006492)
(-1.423079e+08 9054128.2 -29031539)
(-1.2060294e+08 -2615911.8 11354258)
(-1.193572e+08 7519009.2 11468244)
(-1.523279e+08 -10233239 63574893)
(-1.522946e+08 11941377 63988789)
(-1.8049756e+08 18143778 51369214)
(-1.9192526e+08 -5833979.7 -36195726)
(-1.8441125e+08 -13261829 54454459)
(-1.2242803e+08 -1293397.2 13873889)
(-1.5198823e+08 -7765967.7 63920961)
(-1.4971891e+08 14179267 62443295)
(-1.1787696e+08 9202628.5 8893419.1)
(-1.9567232e+08 -8446589.4 -38069408)
(-1.9378188e+08 7677109.5 -37003002)
(-1.8866364e+08 -17665062 55467696)
(-1.8447699e+08 15607697 53736435)
(-2.5613477e+08 5837686.8 -59250601)
(-2.5632349e+08 5377207.5 -58526939)
(-2.1937252e+08 6774084.4 -36171168)
(-2.2112613e+08 -6337055.3 -37452571)
(-1.4437937e+08 2235986.9 -49410405)
(-1.4374878e+08 1588233.7 -49475596)
(-1.4292455e+08 -1120803.8 -28575592)
(-1.4260806e+08 9188098.1 -27990871)
(-1.4454729e+08 2776257.4 -48775117)
(-1.4400113e+08 2392971.4 -49808899)
(-1.4312545e+08 -742806.4 -28208352)
(-1.4154806e+08 9835422.6 -29491255)
(-1.2107216e+08 147960.52 12349922)
(-1.1618612e+08 9923542.1 6971860.2)
(-1.492679e+08 -5376592.5 62595132)
(-1.4525168e+08 14832600 59801351)
(-1.21223e+08 -1114113.6 12937660)
(-1.5259835e+08 -8065159 64224329)
(-1.1874749e+08 9303312.2 11076923)
(-1.4932827e+08 14861845 62175181)
(-3.6411923e+08 -206319.94 -61260425)
(-3.4453383e+08 -873686.87 -3254306.1)
(-3.4431746e+08 5277653.4 -4478570.2)
(-3.616795e+08 757104.1 -59785546)
(-2.5715523e+08 1171459.1 -59514650)
(-2.5772105e+08 395144.82 -57991717)
(-2.1938762e+08 2478798.3 -35527003)
(-2.2105062e+08 -11316417 -36300826)
(-2.5529144e+08 4052724.5 -58083440)
(-2.5600414e+08 2251195.6 -56976443)
(-2.1848116e+08 5664062.7 -35905066)
(-2.1994548e+08 -8923622.1 -35413132)
(-1.9475217e+08 -10822051 -36430562)
(-1.8994669e+08 -20065448 57819385)
(-1.9407617e+08 6043006.3 -36527694)
(-1.8711028e+08 13672957 56665766)
(-1.9282259e+08 -14531641 -36418885)
(-1.9244745e+08 -25655030 58895289)
(-1.9213008e+08 2548478.4 -35711450)
(-1.8821445e+08 8998771.8 57585271)
(-2.1892951e+08 -2714815.1 53545663)
(-2.1938427e+08 6048594 53751635)
(-2.5717314e+08 2231924.5 61541299)
(-2.575667e+08 2937448.3 60580884)
(-1.8111806e+08 4872037.1 61703408)
(-1.7948157e+08 -4676189.7 62158456)
(-2.2490784e+08 310647.88 56603507)
(-2.2693557e+08 138227.6 58593174)
(-1.803506e+08 5892506.7 61896808)
(-1.7914897e+08 -4582644.8 60722864)
(-2.264472e+08 -425725.22 55894779)
(-2.26836e+08 -38390.81 56192435)
(-1.8026255e+08 6257109.6 61211330)
(-1.7864377e+08 -5240063.6 62271163)
(-2.2613567e+08 -31501.389 57311051)
(-2.2636434e+08 421614.59 55833279)
(-1.7798225e+08 7145729.1 60783034)
(-1.7695982e+08 -3333409.7 60069119)
(-2.2573086e+08 971772.35 56482976)
(-2.2555399e+08 716891.86 55090098)
(-2.2153975e+08 -3422200.9 55555971)
(-2.18579e+08 6578982.8 52612351)
(-2.5926272e+08 2998158.2 61386043)
(-2.5970191e+08 3198006.4 62285108)
(-1.8209392e+08 7062483.6 60879896)
(-1.8265574e+08 -3964354.5 61997040)
(-2.2451525e+08 1038478 56488965)
(-2.2790718e+08 1435556.7 57401257)
(-1.7607968e+08 -2622868.7 59755650)
(-1.7635301e+08 8767519.2 60226612)
(-2.2465678e+08 1633169 54269001)
(-2.2490324e+08 2036485.1 54354008)
(-1.7819e+08 8533850.6 60072378)
(-1.7691963e+08 -2594373.1 61085249)
(-2.2516788e+08 2256300.9 56349666)
(-2.2607754e+08 2523772.7 56183327)
(-1.7623919e+08 8103700.2 60513626)
(-1.7483761e+08 -1635911.3 59561286)
(-2.236175e+08 2557399.7 54107806)
(-2.2394852e+08 2092085.8 54531049)
(-2.2172988e+08 -5844917.6 56439731)
(-2.196847e+08 5212265.5 54436012)
(-2.585231e+08 1567468.1 63790941)
(-2.5839992e+08 1654181.1 63028980)
(-2.1917498e+08 -3392497.2 53794440)
(-2.1427529e+08 6312241.6 51035754)
(-2.5651353e+08 2998875.9 60162236)
(-2.5878768e+08 3013582.8 61705824)
(-2.5949512e+08 582725.29 53918022)
(-2.2452489e+08 -8666776.3 57690393)
(-2.2273693e+08 1461293.7 56111766)
(-2.6174816e+08 -1226519.9 65912935)
(-2.6167362e+08 -352690.29 65745256)
(-2.2322133e+08 -7087291.3 56709287)
(-2.2324804e+08 3518961.9 57000903)
(-2.6040568e+08 -603734.27 64421464)
(-2.610948e+08 -833531.13 63629686)
(-2.2421567e+08 -6717583.7 57605316)
(-2.6247663e+08 36466.264 65006049)
(-2.2250963e+08 4153298.9 56260800)
(-2.6206937e+08 137102.61 64393283)
(-2.231812e+08 -4729138.4 56361502)
(-2.2099651e+08 4623210.6 55368543)
(-2.5988965e+08 920751.17 63558046)
(-2.6089463e+08 1248070.3 63052998)
(-1.7749093e+08 7879228.4 59881759)
(-1.7805403e+08 -3073281.7 61131524)
(-2.2519925e+08 2299164.3 55436814)
(-2.2547467e+08 2181414.1 56798475)
(-1.7866636e+08 9180992.8 59701666)
(-1.7677374e+08 -1431497.3 59105999)
(-2.2567836e+08 2605064.8 54059277)
(-2.2691271e+08 3050713.7 55443685)
(-1.7633225e+08 -1962059.6 60438509)
(-2.2499638e+08 3395824.3 55230329)
(-2.2482996e+08 4141741.3 53664788)
(-1.7659477e+08 10277867 58649893)
(-1.7405138e+08 686823.16 58615629)
(-1.737447e+08 11172251 58741756)
(-2.2338857e+08 4395645 53125437)
(-2.2383092e+08 4670955.1 54359697)
(-4.355788e+08 -29765167 -55948217)
(-3.0250539e+08 -3061902.7 3446069.3)
(-3.5947379e+08 -9281453.8 728893.98)
(-3.4507182e+08 -88226.519 -41492441)
(-2.9555636e+08 -60832.964 -25495718)
(-2.9297922e+08 3629482.6 -24655224)
(-3.026213e+08 5483579.5 -90716.556)
(-3.0147052e+08 -1764418.2 1658894.8)
(-2.9218821e+08 4336660.5 -20282835)
(-2.9298558e+08 -986063.39 -21585375)
(-2.9801409e+08 5655483.4 793629.27)
(-2.9781276e+08 -1250695 2254351.3)
(-3.0063374e+08 4141527.7 929034.25)
(-2.917729e+08 4184613.1 -23520528)
(-2.9983163e+08 -2478072.9 1413094.3)
(-2.9351866e+08 -1975717.3 -23064946)
(-2.9404856e+08 3953156.3 -27622748)
(-3.023277e+08 -1743755.9 -969247.68)
(-3.1525e+08 5375424.4 17974769)
(-2.997736e+08 -1810457.8 -15478313)
(-3.1469267e+08 -4537113.1 18835422)
(-3.004533e+08 2803980.3 -12223033)
(-2.9763806e+08 689431.96 -14456121)
(-3.1204921e+08 4962794.8 18364940)
(-3.1217952e+08 -5282915 18833851)
(-3.1318655e+08 1767774.6 2792743.4)
(-3.1511193e+08 -1589518.9 3839839.3)
(-3.2231825e+08 7561482.9 47523641)
(-3.232085e+08 -7101391.7 47759895)
(-3.1687627e+08 -1323211 3302508.1)
(-3.2530234e+08 8807381.3 46542516)
(-3.1524337e+08 2124988.8 3148391)
(-3.2440142e+08 -5873369.1 47492440)
(-2.9754753e+08 -968954.76 -14930727)
(-3.1059655e+08 5913762.3 15593199)
(-3.1002514e+08 -3512660.7 15465116)
(-2.9480964e+08 2766305.9 -16400379)
(-3.1145943e+08 -956860.88 315141.22)
(-3.1951218e+08 8925848.8 43894364)
(-3.0954736e+08 4027723.9 306922.17)
(-3.2049702e+08 -4153154.6 44508570)
(-3.0958635e+08 5141949.6 1570433.6)
(-3.1062888e+08 962156.63 1217379.7)
(-3.2015919e+08 12367326 46213959)
(-3.1916301e+08 -2299397.3 46361017)
(-2.9494978e+08 4296301.2 -14636199)
(-3.0849712e+08 7300204.6 16036092)
(-2.9605381e+08 -66228.098 -15566014)
(-3.0864208e+08 -2190203.2 17297111)
(-3.6069297e+08 -13293224 13352209)
(-3.1128085e+08 -3437076.8 -12540119)
(-2.6435413e+08 1142775 16551267)
(-2.692034e+08 8425398.9 48443651)
(-2.6442739e+08 1591672.8 15637756)
(-2.7040841e+08 -4268239.1 48060322)
(-2.5310791e+08 -658018.22 -3016787)
(-2.5253174e+08 1609731.6 -3130586.7)
(-2.6312627e+08 4816075.6 23532988)
(-2.6303804e+08 -3087310.6 23626147)
(-2.5419009e+08 535312.01 -866309.27)
(-2.6468684e+08 6661893 25865223)
(-2.5461666e+08 1045966.5 -1398802)
(-2.6526743e+08 -2957883 25291462)
(-2.6287996e+08 -192052.37 13901904)
(-2.6834212e+08 7371474.8 45525179)
(-2.6264865e+08 1751898.7 13925038)
(-2.6852644e+08 -3941902.1 45944551)
(-2.5219404e+08 988627.56 -3714950.8)
(-2.5124116e+08 3453199 -3689635)
(-2.620262e+08 6362493.3 22464631)
(-2.6192039e+08 -1456046.7 22833421)
(-2.51737e+08 -73811.645 -3408327.9)
(-2.6379717e+08 5966840.7 23222962)
(-2.5223436e+08 2061057.8 -3641909.6)
(-2.6425483e+08 -2208102.7 22849075)
(-2.6152647e+08 1221654.1 13001721)
(-2.6064231e+08 3140403.2 13267851)
(-2.6741159e+08 9144374.5 44448601)
(-2.6701334e+08 -2393626.2 45117954)
(-2.6799158e+08 7869499.3 45327676)
(-2.625523e+08 802019.34 13810124)
(-2.6222284e+08 2463533.4 13161272)
(-2.6864934e+08 -3484010.4 44871024)
(-2.4306142e+08 -1572272.1 -12547536)
(-2.5086358e+08 3741795 7346328.7)
(-2.435965e+08 2575554.5 -12496933)
(-2.5168364e+08 -1658198.3 7312825.6)
(-2.3709249e+08 -1725202.5 -14319803)
(-2.3794541e+08 1662323.6 -14252884)
(-2.4519702e+08 2675199.7 1785282.6)
(-2.4596207e+08 -1570264.9 1803278.4)
(-2.3836207e+08 -36053.377 -13861248)
(-2.3749733e+08 3146391.1 -14042864)
(-2.4595098e+08 4211027.9 2037361)
(-2.4543627e+08 -327847.55 1977346.5)
(-2.4380218e+08 -212469.08 -12177431)
(-2.4311883e+08 3472343.8 -12280220)
(-2.5079889e+08 5091765 6579969.4)
(-2.5035997e+08 -346409.51 6709342.7)
(-2.4561139e+08 -858534.09 -9977649.8)
(-2.5317762e+08 4525919.8 9751089.4)
(-2.4579833e+08 1508293.4 -10273645)
(-2.5374656e+08 -2547861.5 9467391.8)
(-2.3833499e+08 -2012117.4 -13357895)
(-2.380586e+08 841589.31 -13337819)
(-2.4616411e+08 2228969.5 2911055.4)
(-2.4606542e+08 -2611971.6 3026928.3)
(-2.3946812e+08 -976394.45 -11735991)
(-2.4801332e+08 3746033.7 4678641.2)
(-2.3976998e+08 670771.07 -11907734)
(-2.4820058e+08 -2260160.1 4359475.8)
(-2.442308e+08 -2129005 -11804763)
(-2.4399742e+08 1466609.8 -11729621)
(-2.5138701e+08 3355006.2 7347285.9)
(-2.5125262e+08 -2182499.5 7396069.8)
(-2.3823993e+08 -1868277.2 -13627089)
(-2.433126e+08 2597485.7 1023394.7)
(-2.3831478e+08 1069051.2 -13668470)
(-2.4353937e+08 -2400107 942241.19)
(-2.3726269e+08 -2364606.2 -14132600)
(-2.375249e+08 522516.84 -14073888)
(-2.4360349e+08 1250277.1 -522892.97)
(-2.4363523e+08 -2599739.1 -504612.18)
(-2.3848514e+08 -1445150.9 -13144462)
(-2.4481139e+08 2323400.3 369156.04)
(-2.3856435e+08 741373.28 -13143073)
(-2.4466923e+08 -2061927.2 279423.35)
(-2.3701531e+08 -2898165.8 -14711306)
(-2.3705892e+08 623158.58 -14556227)
(-2.4174636e+08 1581427.3 -868049.45)
(-2.4166851e+08 -2593871.3 -747575.78)
(-2.4050871e+08 -1867267.2 -12460846)
(-2.4469653e+08 1726208.5 -1938710)
(-2.4079052e+08 1690532.1 -12473626)
(-2.4506975e+08 -1576714.5 -2112881.8)
(-2.4136837e+08 -960816.56 -11335542)
(-2.4594175e+08 2144812 -1118702.3)
(-2.4124905e+08 2082466.1 -11065137)
(-2.4581705e+08 -1632045.4 -1002464.5)
(-2.5332942e+08 3033399.6 -432062.09)
(-2.5323636e+08 -654051 26801.43)
(-2.995575e+08 4499348.9 -4784030.2)
(-2.4917278e+08 101289 -19431177)
(-2.4896261e+08 2333619.4 -18673564)
(-2.534616e+08 2545129.5 -800937.82)
(-2.5267761e+08 -957638.06 -1465458.6)
(-3.0114321e+08 -1873801.4 -4484605)
(-2.4876661e+08 2078976.9 -20032974)
(-2.4882715e+08 -353335.11 -18640827)
(-2.9481388e+08 3400091.1 -28803990)
(-2.9401703e+08 -1772986.8 -29091512)
(-2.5418973e+08 3622507.3 -1884540)
(-2.5237168e+08 181246.18 -2550419.2)
(-3.0200295e+08 71520.775 -6867830.6)
(-2.4879493e+08 3262599.9 -20653078)
(-2.5047875e+08 777006.87 -19054813)
(-2.5303009e+08 2124813 -2680939.5)
(-2.5242405e+08 -501647.34 -3258354.8)
(-3.0217115e+08 5418420 -8118776.4)
(-2.4832636e+08 2349941.4 -21543729)
(-2.4912883e+08 -944904.58 -20354742)
(-2.4009036e+08 -1951328.2 -13831649)
(-2.4277498e+08 550345.96 -4270767.1)
(-2.4058708e+08 2416150.2 -13886326)
(-2.4375121e+08 -1663351.7 -4306908.2)
(-2.9584919e+08 -1650424.9 -32741638)
(-2.9578528e+08 4860365.5 -31304073)
(-2.4197335e+08 -730625.73 -12891419)
(-2.4434378e+08 2636653.8 -3369714.2)
(-2.4085813e+08 2756949.1 -13084473)
(-2.4362472e+08 -519171 -3479226.9)
(-2.3799408e+08 -1012433.4 -14625292)
(-2.4303341e+08 2562644.5 -1911271.5)
(-2.371211e+08 1999384.5 -14759125)
(-2.4243248e+08 -966374.99 -1943937.9)
(-2.3592531e+08 -2758995.1 -15488395)
(-2.4174097e+08 807158.66 -2602820.7)
(-2.3728422e+08 1112035.3 -15391672)
(-2.4277542e+08 -2007335.1 -2544460)
(-2.358243e+08 -2908086.3 -15882719)
(-2.4060948e+08 1300080.6 -2199857)
(-2.3673766e+08 1584874.3 -15736246)
(-2.4152796e+08 -2034476 -2053167.9)
(-2.3721753e+08 -1289286.8 -15238253)
(-2.4166617e+08 3544047.6 -1653205.4)
(-2.3652671e+08 2645933 -15398225)
(-2.4093021e+08 -226303.59 -1694435.5)
(-3.0112973e+08 2703189.7 -36166333)
(-3.017077e+08 -2472923.6 -37631016)
(-3.1053264e+08 3975561.6 -10494349)
(-3.0998686e+08 -2280751.6 -9153295.2)
(-2.9988459e+08 1374345 -33554399)
(-2.9821616e+08 -2573808.9 -34122402)
(-3.0697807e+08 3708016 -7353001.2)
(-3.09052e+08 -3368490.6 -6512286.6)
(-2.371389e+08 -325908.38 -14509608)
(-2.4212716e+08 4175870.1 -71284.32)
(-2.369432e+08 3132963.3 -14829437)
(-2.4219935e+08 -318285.45 -321454.01)
(-2.3691705e+08 438490.63 -15154265)
(-2.3578683e+08 3867369.2 -15472687)
(-2.4234611e+08 3967375.2 -1952704.7)
(-2.4159084e+08 599174.59 -2065454.4)
(-2.3743341e+08 -434235.35 -14071554)
(-2.430642e+08 3414617 -1010777.4)
(-2.3743763e+08 2410474.3 -14442761)
(-2.4300694e+08 -382576.4 -1281713.2)
(-2.3619706e+08 128247.95 -15520219)
(-2.3515353e+08 3952869.5 -15695243)
(-2.40846e+08 4466022.6 -1894725.8)
(-2.4006042e+08 578508.87 -1850503.9)
(-2.5315748e+08 4250601.1 -2733204)
(-2.5101087e+08 1352863.7 -3217214.6)
(-3.0240537e+08 287761.64 -7901441.6)
(-2.4722591e+08 4779551.3 -21332205)
(-2.4959517e+08 1564479.2 -19890972)
(-2.5355165e+08 4004653.6 -1726280.5)
(-2.5228347e+08 153928.17 -2208627)
(-3.0507905e+08 6254792.1 -6594255.8)
(-2.4919374e+08 3152356.9 -20175310)
(-2.5081163e+08 1190811.9 -18851492)
(-2.4095736e+08 290580.03 -13652717)
(-2.4337337e+08 3864864.4 -3939973)
(-2.3935722e+08 4176119 -13905892)
(-2.4236329e+08 1121405.1 -4113193.2)
(-2.4158824e+08 12845.546 -12373771)
(-2.4375994e+08 2701084.8 -2953837.4)
(-2.4080806e+08 3210524.3 -12676572)
(-2.4373468e+08 -540162.37 -3163262.5)
(-2.9823745e+08 490009.82 -26746921)
(-2.9595157e+08 6284504.2 -31620473)
(-2.9854688e+08 2244899.1 -6544710.9)
(-2.5233276e+08 5085992.5 -2122793.6)
(-2.9995269e+08 7388344.3 -7824322.2)
(-2.4919828e+08 2519550.8 -19070929)
(-2.9451389e+08 976030.25 -30492084)
(-2.9266622e+08 7329059.8 -31205401)
(-3.1279454e+08 5401393.2 -8207422.5)
(-3.0308134e+08 -1365735.1 -36542556)
(-3.0055338e+08 4547031.9 -37594663)
(-3.1154343e+08 -265963.51 -8573624.5)
(-2.9592038e+08 5788359.1 -37416970)
(-2.9950039e+08 365465.74 -35413329)
(-3.083908e+08 6635045.8 -6804289.7)
(-3.0598361e+08 397757.01 -10075948)
(-2.8102407e+08 -5264273.4 -21201317)
(-3.2733147e+08 -7283816.9 864559.85)
(-3.2554894e+08 2674067.5 -1631097.9)
(-2.8375686e+08 1202657.7 -18905006)
(-3.3803043e+08 -6504701 37983472)
(-3.0189248e+08 -3527120 -38148314)
(-3.0493183e+08 -281305.04 -35487791)
(-3.132836e+08 2057349 -14073186)
(-3.1569492e+08 -5183495.6 -12514179)
(-2.4078064e+08 -13293480 -43571888)
(-2.3866431e+08 -24518324 -45123731)
(-3.3848254e+08 -11359979 36930837)
(-3.1887805e+08 -5684208.7 -693080.75)
(-3.1731946e+08 2818564 -2317551)
(-2.7949496e+08 2068658.5 -18599372)
(-2.7842903e+08 -3457343.9 -19821830)
(-3.0638714e+08 -4459918.5 -39910390)
(-3.0637682e+08 1059012.7 -38329816)
(-3.1679132e+08 2440706.6 -15781519)
(-3.1593707e+08 -3635021.7 -14746399)
(-3.1927146e+08 -7355314.9 -21476996)
(-3.1904894e+08 -33474559 -20920383)
(-2.3858773e+08 426639.04 -44630859)
(-3.3227284e+08 -1896292 36671487)
(-3.2967466e+08 -10106510 39644215)
(-2.4134303e+08 -11534713 -42469028)
(-3.0653456e+08 -2374441.2 -39365778)
(-2.9715388e+08 4244094.2 -41931702)
(-3.1692102e+08 -2295916.2 -15134507)
(-3.2025678e+08 3342955.2 -12575899)
(-3.1992393e+08 5382299.6 -945316.79)
(-2.7958602e+08 -3486298.5 -19413308)
(-2.7898272e+08 2307492.5 -19157852)
(-3.1752347e+08 -3660176.7 -2638904.2)
(-3.166951e+08 5738971.3 -1693230.5)
(-2.7829588e+08 -1033643.4 -19602699)
(-2.7552086e+08 2433089.2 -19274818)
(-3.1476537e+08 -3793781.4 -2246249.1)
(-3.1401153e+08 5507936.8 -15116687)
(-3.0458792e+08 -22440.447 -38818271)
(-2.9589103e+08 4688311.1 -40608264)
(-3.1036711e+08 -851466.78 -15968760)
(-2.4432195e+08 566022.97 -11007909)
(-2.4430764e+08 3659813.8 -11405288)
(-2.5116793e+08 5577462.1 7755736.5)
(-2.5173956e+08 -668695.96 7559962.6)
(-2.3769558e+08 935927.24 -14054284)
(-2.3634371e+08 4022725.8 -14172438)
(-2.4514472e+08 5022597.7 1543402.1)
(-2.444444e+08 475333.88 1584638.8)
(-2.3862788e+08 805701.72 -12550912)
(-2.4617965e+08 4900094.6 2938044.7)
(-2.3867798e+08 2860634.2 -12877017)
(-2.4639824e+08 -448705.43 2573012.2)
(-2.4331875e+08 924535.93 -12494773)
(-2.4213339e+08 4814926 -12590013)
(-2.5011782e+08 6337941.3 6236093.2)
(-2.4953239e+08 961317.24 6385341.7)
(-2.6192417e+08 2532729.4 14484548)
(-2.6640131e+08 9583681.1 45258426)
(-2.6161093e+08 3908059.2 13687502)
(-2.675246e+08 -1949247.6 44905634)
(-2.5165171e+08 2365324.3 -3962827.8)
(-2.612287e+08 7691604.4 21701681)
(-2.5017109e+08 4873808.3 -3979178.7)
(-2.6083921e+08 -51512.307 21957643)
(-2.5257438e+08 2037067.9 -2321154.3)
(-2.6169132e+08 7587915.3 23324252)
(-2.5272527e+08 3261776.7 -2816209.4)
(-2.6246597e+08 -1113702.8 22923416)
(-2.6046537e+08 3027445.3 12382349)
(-2.5925626e+08 5123459.1 12329598)
(-2.6600702e+08 10775946 43131917)
(-2.6574011e+08 -420271.05 43787814)
(-2.1617481e+08 3982488.7 23588919)