/*--------------------------------*- C++ -*----------------------------------*\
  =========                 |
  \\      /  F ield         | OpenFOAM: The Open Source CFD Toolbox
   \\    /   O peration     | Website:  https://openfoam.org
    \\  /    A nd           | Version:  7
     \\/     M anipulation  |
\*---------------------------------------------------------------------------*/
FoamFile
{
    version     2.0;
    format      ascii;
    class       volVectorField;
    location    "0";
    object      U;
}
// * * * * * * * * * * * * * * * * * * * * * * * * * * * * * * * * * * * * * //

dimensions      [0 1 -1 0 0 0 0];

internalField   nonuniform List<vector> 
33730
(
(0.089191284 0.0012754285 -0.00062739841)
(0.090750493 0.0010349945 -0.0019420484)
(0.088979902 0.0013032247 0.00023191257)
(0.087808689 0.0010545575 -0.0019637404)
(0.087753827 0.001037702 -0.0044675412)
(0.085776974 0.0011049973 -0.0044957342)
(0.088836926 0.001099668 -0.0023601)
(0.087771531 0.0014646628 -0.0019375175)
(0.088823976 0.0013639693 -0.0023338624)
(0.092196276 0.00072403386 0.00053240024)
(0.0921417 0.00092262594 -0.0011799606)
(0.090688477 0.000943565 -0.001932629)
(0.091190968 0.0012034568 -0.0050137422)
(0.090605077 0.0013848192 -0.0019085079)
(0.087940232 0.0014325428 0.001678018)
(0.087972009 0.0011157744 0.0016850471)
(0.08662494 0.0015336343 -0.00020770247)
(0.086654024 0.0010204438 -0.00021347403)
(0.087584968 0.0010342568 0.0039818542)
(0.084101299 0.0011193237 0.0029051706)
(0.082193019 0.0012544832 -0.0017396954)
(0.085742816 0.00092526455 -0.0044937505)
(0.085850584 0.0011993525 -0.0043816111)
(0.088126343 0.0011041824 -0.0043587499)
(0.087698765 0.00098614859 -0.0044750111)
(0.084029796 0.00093615313 -0.0098121329)
(0.083917731 0.0010815066 -0.0099116604)
(0.08659711 0.0010267201 -0.0087509021)
(0.0869937 0.00098398434 -0.008693701)
(0.085646037 0.0015232232 -0.0044508142)
(0.085803197 0.0012117372 -0.00437293)
(0.087625259 0.0014412919 -0.0044256412)
(0.088057817 0.0012827635 -0.0043523722)
(0.092061981 0.00090252765 -0.0011603277)
(0.091966967 0.00092446093 0.0005412609)
(0.09210361 0.00090551327 0.00051900691)
(0.091941669 0.0012017313 -0.0011684372)
(0.092877669 0.00074578855 0.0016114746)
(0.094005376 0.00075333257 0.0012384772)
(0.092962904 0.00082975454 0.001692239)
(0.094020353 0.00077306205 0.0011319398)
(0.091490296 0.00065592853 0.0011417333)
(0.094729137 0.00088900567 -0.00096556544)
(0.094748544 0.00082333909 -0.00084540814)
(0.093855925 0.0010084766 -0.0034509232)
(0.090373038 0.00054258754 0.0016134171)
(0.090445793 0.00060070664 0.001603841)
(0.091150345 0.00074947643 -0.0050099458)
(0.091252685 0.0012252436 -0.0048839535)
(0.092039153 0.0013202571 -0.0098837707)
(0.092185554 0.00073833263 -0.0097579279)
(0.091002083 0.0015711867 -0.0049707945)
(0.091197806 0.0010688461 -0.0048722422)
(0.08798044 0.001328998 0.0036648908)
(0.087526898 0.0014848632 0.0036947497)
(0.087454061 0.0014639929 0.0039642766)
(0.087564884 0.0012692197 0.0039039065)
(0.088036011 0.0010960056 0.0036654885)
(0.087609205 0.001165191 0.0039068207)
(0.087547363 0.0010130939 0.0039809437)
(0.087616047 0.00097567769 0.0037160147)
(0.083980905 0.0015530516 0.002906623)
(0.084128146 0.0011853358 0.0029014906)
(0.082260561 0.001058709 -0.0017133824)
(0.082075366 0.0016838474 -0.0017160934)
(0.084170846 0.001251644 0.0029003226)
(0.084064705 0.00092768745 0.0029067569)
(0.082158916 0.00078631303 -0.0017340761)
(0.082308471 0.0013724104 -0.0017219492)
(0.088502773 0.00096766168 0.0061729117)
(0.082808147 0.0010650393 0.0075233011)
(0.083230873 0.0010362109 0.007497726)
(0.081376113 0.00081890537 0.0058773553)
(0.081295019 0.0011694034 0.0059491794)
(0.076073743 0.0012985023 0.0023598749)
(0.07620884 0.00069169445 0.0023569808)
(0.075327947 0.0013900491 -0.0065394853)
(0.07550453 0.00062527367 -0.0065185371)
(0.086965486 0.00099845972 -0.0086722718)
(0.083986994 0.0010524742 -0.0097959549)
(0.083893045 0.0009069497 -0.0099127628)
(0.08655203 0.00096151143 -0.0087642137)
(0.083896292 0.0012510947 -0.0098602887)
(0.084034365 0.0010388895 -0.009770152)
(0.086587382 0.0012092063 -0.0087161753)
(0.086984705 0.0011226043 -0.0086339686)
(0.084118655 0.00087784121 -0.019273833)
(0.084026703 0.00097638957 -0.019385829)
(0.086570527 0.00090167307 -0.015319678)
(0.086184908 0.00087938928 -0.015449739)
(0.083973357 0.00093972072 -0.019410535)
(0.084038955 0.0010759 -0.019302121)
(0.086129191 0.0010178668 -0.01544061)
(0.086492003 0.0010026787 -0.015380008)
(0.083745406 0.0014915418 -0.0098504185)
(0.083868059 0.0013138225 -0.0097608753)
(0.086424366 0.0014294718 -0.0086961971)
(0.086823475 0.0013544187 -0.0086478464)
(0.083972999 0.0013159347 -0.009743673)
(0.08694035 0.0012198435 -0.0086025961)
(0.083861968 0.0011008231 -0.0098590529)
(0.086527831 0.0011375048 -0.0087275756)
(0.092939122 0.00067934103 0.0025387785)
(0.093668753 0.00066499725 0.0023995917)
(0.092294998 0.00066746802 0.0018268599)
(0.091351381 0.00053829848 0.0019903019)
(0.093813671 0.0012353824 -0.003520244)
(0.093815594 0.00086366657 -0.0034392817)
(0.094705087 0.00095430904 -0.00085024642)
(0.094583608 0.00089784091 -0.00095163474)
(0.093755019 0.0010013638 0.0011306623)
(0.092611693 0.00092571514 0.0016118699)
(0.092738829 0.0010062145 0.0016870596)
(0.093784139 0.0009689357 0.0012428926)
(0.093854801 0.0009299344 0.0012273907)
(0.09280725 0.00074754448 0.0016969163)
(0.092827422 0.00083117397 0.0016012472)
(0.091395903 0.00077588547 0.0011444411)
(0.093972477 0.00090887072 0.0011346032)
(0.090284687 0.00068987659 0.001584597)
(0.093627465 0.0013340158 -0.0034282999)
(0.094492171 0.0011002386 -0.00082794429)
(0.094517455 0.0011429053 -0.00095665869)
(0.093755341 0.00094466291 -0.0035041805)
(0.092908926 0.00084194914 0.002618514)
(0.092844628 0.00077599793 0.00253819)
(0.09357126 0.00074439729 0.002389557)
(0.092169716 0.00065422753 0.0019218889)
(0.093543614 0.00073964074 0.0024844664)
(0.094280102 0.00078915403 0.0022535565)
(0.094205408 0.00070914682 0.0021396644)
(0.095399085 0.00083211957 0.0019973585)
(0.095427485 0.00079287515 0.0018929191)
(0.092919684 0.00070465377 0.0025340061)
(0.092934147 0.00065858609 0.0026181824)
(0.093649903 0.00075789476 0.0023986147)
(0.093575575 0.00074386264 0.0024842624)
(0.092258432 0.00066298684 0.0018286314)
(0.094177818 0.00091072933 0.0021000286)
(0.094207731 0.0007827838 0.0022215257)
(0.095367147 0.00075418544 0.00195618)
(0.095431288 0.00079450734 0.0018525198)
(0.091313509 0.00071359322 0.001981763)
(0.091323393 0.00064804762 0.0020989528)
(0.096511741 0.00065657682 0.0009530376)
(0.098106043 0.00079973663 -9.5521498e-05)
(0.096485118 0.00084722477 0.00086211223)
(0.098120363 0.00083389919 -0.00016179632)
(0.096516477 0.0009940374 0.00099548353)
(0.096456784 0.00080693026 0.00091209337)
(0.098079482 0.00081185758 -5.1709186e-05)
(0.098603519 0.00096590764 -0.0041966043)
(0.096297106 0.00060256159 -0.0077129463)
(0.09864711 0.00090598478 -0.0040900693)
(0.096233472 0.0011279443 -0.0076557414)
(0.098631001 0.0007901728 -0.0041992226)
(0.088167583 0.00045189295 0.001812095)
(0.089410025 0.00045118324 0.00098959994)
(0.0899864 0.00056603224 0.0025752454)
(0.090844129 0.00059322103 0.0021930797)
(0.090834828 0.00058403202 0.0023028851)
(0.090087655 0.00065278876 0.0026591328)
(0.090122984 0.00044725825 0.002667079)
(0.090873536 0.00059136549 0.0022977364)
(0.092013637 0.00062229156 -0.0098825332)
(0.092130575 0.0012051051 -0.0097459733)
(0.092128021 0.00081603453 -0.009728496)
(0.091983168 0.0014598357 -0.0098369398)
(0.093601928 0.0013985504 -0.016508349)
(0.0937343 0.00070566433 -0.016369051)
(0.093768101 0.0012618315 -0.016362877)
(0.093658776 0.00052125842 -0.016486247)
(0.091820363 0.0016978866 -0.009828474)
(0.091985346 0.0010924209 -0.0097099655)
(0.092047479 0.0014702689 -0.0097070893)
(0.091947919 0.0008229217 -0.0098320494)
(0.090548127 0.0012941351 0.0021505082)
(0.090634209 0.001087351 0.0021661911)
(0.089664522 0.0010954648 0.0038762983)
(0.089525205 0.0014906204 0.0038507772)
(0.088323278 0.0013645398 0.006151137)
(0.088418818 0.0012379596 0.0061475037)
(0.08971688 0.0012359492 0.0038806205)
(0.088468797 0.001112502 0.0061526693)
(0.088466456 0.00101682 0.0061708211)
(0.089673681 0.00087105321 0.0038760724)
(0.082650432 0.0014913328 0.0075082785)
(0.083078053 0.0014258245 0.0074867042)
(0.081230318 0.0012102753 0.0058749457)
(0.081141459 0.0015961635 0.005945518)
(0.081315273 0.0014299781 0.0058633529)
(0.083168165 0.0012348737 0.0074652157)
(0.08275693 0.0011397899 0.0075120072)
(0.081224619 0.00102956 0.0059324583)
(0.076164005 0.0015579691 0.0023688378)
(0.076025994 0.0009001789 0.0023668952)
(0.075471822 0.0016318544 -0.0064808841)
(0.075297745 0.00080357186 -0.0065018554)
(0.075932514 0.0017226985 0.0023774872)
(0.076074358 0.0010817474 0.0023717583)
(0.075184087 0.0018078071 -0.00649244)
(0.07536625 0.0010105889 -0.0064776822)
(0.082796708 0.0012369447 0.0075035037)
(0.08321449 0.0011487976 0.0074844092)
(0.081371673 0.00095132566 0.0058689271)
(0.081257532 0.0013491754 0.0059304554)
(0.082776646 0.00093910968 0.0075317577)
(0.083197905 0.00097017091 0.0074827554)
(0.081334896 0.0011845845 0.0058734243)
(0.081270365 0.00083496186 0.0059514376)
(0.076048757 0.00070372432 0.0023620717)
(0.075470825 0.0013714986 -0.0065089889)
(0.075304548 0.00060573396 -0.0065350922)
(0.076171404 0.001309168 0.0023589469)
(0.07606035 0.0014760294 0.0023640026)
(0.076216972 0.00081915151 0.0023644579)
(0.075330609 0.0015617769 -0.0065091854)
(0.07552033 0.00073716322 -0.0064980084)
(0.09204818 0.00091897299 0.008268792)
(0.085295867 0.00075093145 0.0091096565)
(0.085201714 0.0011959672 0.0090942256)
(0.080207777 0.00095101468 0.011223932)
(0.080152947 0.0009810148 0.011238282)
(0.072142841 0.0010652639 0.010249211)
(0.072562869 0.0010593831 0.010216731)
(0.06816291 0.0013964592 0.0044047486)
(0.068277961 0.00062118814 0.0043159178)
(0.072624955 0.00091438382 0.010195704)
(0.072214873 0.00087226775 0.010241319)
(0.068350188 0.0013264778 0.0043093514)
(0.068213209 0.00052975988 0.0043827807)
(0.062873917 0.0017244875 -0.0043755347)
(0.068438046 0.0013431278 -0.01831088)
(0.063063617 0.00029033408 -0.0043609669)
(0.068594251 0.00070582984 -0.018258941)
(0.063151691 0.0016585287 -0.0043549764)
(0.062947278 0.00020188414 -0.004370694)
(0.068678929 0.0012666726 -0.018248221)
(0.068506349 0.00058678358 -0.018285307)
(0.086144943 0.0010918278 -0.015415825)
(0.083970564 0.00099231872 -0.019358052)
(0.084072265 0.0010841679 -0.01926015)
(0.086510426 0.0010574945 -0.015316383)
(0.084013378 0.00088539679 -0.019290043)
(0.083957794 0.0010253111 -0.019412206)
(0.086478757 0.00095609308 -0.015363424)
(0.086096634 0.00095038218 -0.015454107)
(0.083920231 0.0011125403 -0.019365698)
(0.083992884 0.0012299046 -0.019258653)
(0.086081357 0.0011929188 -0.015407767)
(0.086444841 0.0011698102 -0.015340173)
(0.083988446 0.001091385 -0.019349831)
(0.084064413 0.0010217098 -0.019239493)
(0.086523761 0.0010640652 -0.015301889)
(0.08614203 0.0010111977 -0.015410328)
(0.090195744 0.0012892344 -0.032351885)
(0.090210837 0.0006065851 -0.032421899)
(0.088185712 0.00098407506 -0.023818431)
(0.088510322 0.00096105256 -0.023745767)
(0.090207904 0.0012778822 -0.032473467)
(0.09016017 0.0005492267 -0.032373797)
(0.088476861 0.00087299118 -0.023771048)
(0.088149842 0.00089811227 -0.023860109)
(0.090107826 0.0013507243 -0.03237865)
(0.090150821 0.00062062841 -0.032460349)
(0.088094798 0.0009979876 -0.023844982)
(0.088419937 0.0010111574 -0.0237806)
(0.088472161 0.00092358879 -0.023730889)
(0.090164076 0.00061530069 -0.032343456)
(0.090170733 0.001320931 -0.032436788)
(0.088140073 0.00093107594 -0.023842637)
(0.083770381 0.0013436111 -0.019320789)
(0.083842686 0.0014615127 -0.019220132)
(0.085927255 0.0014175247 -0.01536683)
(0.086289524 0.0013839786 -0.015313721)
(0.086385366 0.001273975 -0.015256504)
(0.083933899 0.0012543255 -0.019196328)
(0.083847638 0.0013388289 -0.019314423)
(0.085999763 0.0012394462 -0.015393143)
(0.08390582 0.0012347693 -0.019306477)
(0.083996699 0.0012941982 -0.019215869)
(0.086078895 0.0013149813 -0.015361965)
(0.08643971 0.0012457464 -0.015290468)
(0.08642252 0.0011386776 -0.015317584)
(0.083955922 0.0010843759 -0.019240015)
(0.083898359 0.0012057118 -0.019366098)
(0.086039332 0.0011263396 -0.015421218)
(0.092574611 0.00063393203 0.0023681621)
(0.093192565 0.00065140848 0.0029767594)
(0.093146052 0.00064942521 0.0030653946)
(0.092520976 0.00061637238 0.0024519623)
(0.092823227 0.00073973817 0.0030685321)
(0.092772987 0.00071442114 0.0029826055)
(0.093431589 0.00069860412 0.0030200943)
(0.09388578 0.0006515723 0.0028908059)
(0.093387335 0.00076801401 0.0029054029)
(0.091963434 0.00062978187 0.0025813186)
(0.091927342 0.00067881358 0.0024828437)
(0.091679721 0.00061586064 0.0024102325)
(0.0913393 0.00062331954 0.0025525421)
(0.091407119 0.00065441386 0.0026436278)
(0.091646667 0.00061668894 0.0025202285)
(0.098514751 0.001068072 -0.004192158)
(0.098549241 0.0010388402 -0.0040886718)
(0.096147122 0.0012961077 -0.00762954)
(0.09621491 0.00077648466 -0.0076874851)
(0.096230334 0.0012994529 -0.0077062111)
(0.098626843 0.00094595836 -0.0040934966)
(0.09853021 0.00088751903 -0.0041879924)
(0.096212676 0.00077110099 -0.0076499645)
(0.098005537 0.00099257339 -5.571702e-05)
(0.096440233 0.00076085176 0.00099992416)
(0.096433015 0.00094668528 0.00090724554)
(0.098097481 0.00097106091 -0.00016113308)
(0.098011721 0.00098704326 -0.00020130934)
(0.096388631 0.0011011598 0.00094986424)
(0.096307248 0.0009183309 0.00086873313)
(0.097984383 0.0010089725 -8.6908053e-05)
(0.095082727 0.00099894238 0.0019522842)
(0.093917955 0.0011230613 0.0020946546)
(0.09392245 0.0010003233 0.0022196042)
(0.095172862 0.0010313503 0.0018520415)
(0.093283227 0.00092943735 0.0024803137)
(0.092650511 0.0010088156 0.0026095205)
(0.092700646 0.00087172764 0.0025262687)
(0.092696 0.00082613608 0.0026127228)
(0.093337165 0.00093172736 0.0024766169)
(0.092035531 0.00080552252 0.0018196423)
(0.093430867 0.00094352376 0.0023940922)
(0.094062509 0.00099264007 0.0022489952)
(0.095190687 0.0010236563 0.0018901338)
(0.093967469 0.00091831165 0.0021385202)
(0.095183426 0.0010549602 0.0019967798)
(0.091095675 0.00082196797 0.0019651943)
(0.095217891 0.00088046469 0.0019911892)
(0.094077101 0.00094506141 0.0021320917)
(0.094095871 0.00086930958 0.0022554528)
(0.095302301 0.00091552796 0.0018919385)
(0.093444335 0.0008573183 0.0024863091)
(0.093466836 0.00084843939 0.0023942148)
(0.092736942 0.0008457175 0.0025347127)
(0.092804071 0.00088966526 0.0026099269)
(0.092102763 0.00081163326 0.0018179703)
(0.092818078 0.00077356411 0.0025311773)
(0.092831097 0.00070623778 0.0026200069)
(0.093467479 0.00086053991 0.0024765436)
(0.092120527 0.00082177524 0.0019247763)
(0.09354532 0.00085881785 0.0023881534)
(0.091162444 0.00065396506 0.0019835937)
(0.091275895 0.00072456196 0.00208611)
(0.094184208 0.00087041755 0.0022148695)
(0.095343808 0.00095034411 0.0019580046)
(0.094100252 0.00074213568 0.0021025758)
(0.095354079 0.0009114045 0.0018493517)
(0.088034071 0.0004603783 0.0017832587)
(0.088088615 0.00046211704 0.0017754072)
(0.089330802 0.00060659873 0.00098008601)
(0.089893426 0.00070476794 0.0026334393)
(0.090625313 0.00066295222 0.0022850722)
(0.090690175 0.00068051852 0.002281903)
(0.089949745 0.00051349677 0.0026519249)
(0.090796625 0.00068300244 0.0021888619)
(0.089940408 0.00061130035 0.0025588919)
(0.098358507 0.0012738865 -0.0041758018)
(0.09837504 0.0012325085 -0.0040634329)
(0.09598401 0.0014814343 -0.0076195641)
(0.096072043 0.00093624709 -0.0076770616)
(0.096174456 0.0010782325 0.00091876657)
(0.097826721 0.0010961063 -4.145546e-05)
(0.097840879 0.0011335777 -0.00015411413)
(0.096260434 0.0012531334 0.00099779057)
(0.096272139 0.0010889204 0.00086308023)
(0.096277433 0.00090864302 0.00095714362)
(0.09787597 0.0010736634 -9.1628843e-05)
(0.097977794 0.0010952193 -0.00019865624)
(0.098518781 0.0011125274 -0.0040923554)
(0.096116891 0.00092431443 -0.0076195947)
(0.098407704 0.0010862379 -0.0041787166)
(0.096117731 0.0014491536 -0.0076764265)
(0.093081385 0.00075310334 0.0030654611)
(0.093143784 0.00076583559 0.0029783756)
(0.092492371 0.0006732627 0.0023632726)
(0.092724337 0.00071757669 0.002980368)
(0.092753152 0.00070527484 0.0030678001)
(0.09309704 0.00073317011 0.0029758451)
(0.093054594 0.0007225032 0.0030652887)
(0.092425567 0.00067803244 0.0024519778)
(0.09273649 0.000828115 0.0030699437)
(0.092681333 0.00079824805 0.0029827921)
(0.09333644 0.00078932152 0.0030101211)
(0.093795353 0.00074157907 0.0028774923)
(0.093295966 0.0008692914 0.0028942403)
(0.093849882 0.00074619646 0.0027762432)
(0.091838872 0.00077186027 0.0024849628)
(0.091864614 0.0007086738 0.0025914554)
(0.093317608 0.00075130026 0.0029338363)
(0.093838069 0.00080408599 0.0028209924)
(0.093379034 0.00078262434 0.0030448798)
(0.093800014 0.00080903054 0.0029179168)
(0.094234255 0.00066600949 0.0031126019)
(0.094204285 0.00071587074 0.0030158046)
(0.094684463 0.00080194229 0.002951942)
(0.094747924 0.00077823774 0.0028463133)
(0.094141512 0.00078394076 0.0029718928)
(0.094724851 0.00075366475 0.0028031384)
(0.09420309 0.0008379623 0.0030666522)
(0.094682747 0.00077501298 0.0029141636)
(0.095123357 0.00067823383 0.0027910081)
(0.096021753 0.0008092171 0.0026071217)
(0.095188092 0.00076870778 0.0028962046)
(0.095172026 0.00077355782 0.002882532)
(0.095974242 0.00073438552 0.0026959322)
(0.095125665 0.00084924131 0.0027813176)
(0.096020658 0.00077414351 0.0026051367)
(0.093122589 0.00074189285 0.0030618551)
(0.093179152 0.0007424943 0.0029741077)
(0.092502951 0.00073037191 0.0024524456)
(0.092760794 0.00065973436 0.0029794846)
(0.092797174 0.0006333093 0.0030691584)
(0.093160272 0.00069536548 0.0029818905)
(0.093113964 0.0007078293 0.0030677137)
(0.092516811 0.00071292303 0.0023655804)
(0.092786734 0.00075877638 0.0030664676)
(0.092738875 0.00074974328 0.0029825626)
(0.09336131 0.00064262111 0.0029054639)
(0.093908141 0.00077192825 0.0027898249)
(0.093421098 0.00071357203 0.0030161307)
(0.093876689 0.00077909631 0.0028903224)
(0.093392713 0.00073875374 0.0030501224)
(0.093812677 0.00070562796 0.0029219453)
(0.093353365 0.00076532446 0.0029354296)
(0.093875717 0.00071176541 0.0028244368)
(0.091868692 0.00062835033 0.0024840899)
(0.091946161 0.00067871801 0.0025751876)
(0.094165971 0.00072339655 0.0030575963)
(0.094650676 0.00077975402 0.0029004044)
(0.09412883 0.00078719467 0.0029616605)
(0.094715847 0.00080864424 0.0027907239)
(0.094125355 0.00083116987 0.003007168)
(0.094673038 0.00078645721 0.0028339675)
(0.094178706 0.00088970885 0.0031010596)
(0.094631925 0.00075471057 0.0029413901)
(0.095116783 0.0008221388 0.0028842685)
(0.095932328 0.00077687712 0.0026861987)
(0.095077377 0.00092280486 0.0027726876)
(0.09599076 0.00079202998 0.0025891961)
(0.095095493 0.00075734362 0.0027702145)
(0.096000446 0.00082243787 0.0025965423)
(0.095165936 0.00084335816 0.0028697162)
(0.095973312 0.00086320439 0.0026858324)
(0.091320012 0.00060772964 0.002547265)
(0.091348644 0.00057555344 0.0026448431)
(0.091589022 0.00065169046 0.0025142826)
(0.09166093 0.00065512035 0.0024088209)
(0.091350299 0.00072051459 0.0026825)
(0.091286326 0.00069226845 0.0025912617)
(0.091587566 0.00066199841 0.0024475331)
(0.091559912 0.00061279207 0.002554828)
(0.096657582 0.00077940245 0.002547986)
(0.096702679 0.00089399434 0.0026266754)
(0.098041464 0.00073970782 0.0023503884)
(0.097989523 0.00081231887 0.0024422692)
(0.099267801 0.00073009624 0.0016122425)
(0.10105573 0.0007417161 0.0006764689)
(0.099217692 0.00092420831 0.0014734595)
(0.10112089 0.00080097604 0.00055877999)
(0.096704017 0.00064901464 0.0026300329)
(0.097988186 0.00078659613 0.0024343226)
(0.09921831 0.00080929026 0.0015882194)
(0.099168278 0.0010594155 0.0014494805)
(0.1010447 0.00080427604 0.00064465393)
(0.10109874 0.00085447964 0.00052515259)
(0.096683064 0.0007439714 0.0026380099)
(0.097961172 0.00081201749 0.0024522766)
(0.096655534 0.00085773622 0.0025547065)
(0.098033938 0.00087753545 0.0023562224)
(0.096616617 0.00084781117 0.0025630782)
(0.097985988 0.00080175061 0.0023544725)
(0.09667331 0.00098524806 0.0026452739)
(0.097941394 0.00084518345 0.0024534558)
(0.099184316 0.00075537105 0.0014875269)
(0.099261677 0.00094486789 0.0016196088)
(0.10108165 0.00086980932 0.00057171081)
(0.10104499 0.000917955 0.00068478794)
(0.10229736 0.00071729228 -0.0022823439)
(0.10323166 0.00092528017 -0.0044370872)
(0.10226292 0.00094882114 -0.0023819179)
(0.10331763 0.00083465295 -0.0045711703)
(0.10276658 0.00090956763 -0.0098981588)
(0.098955579 0.0012456922 -0.013503868)
(0.10286057 0.00086360305 -0.0098038794)
(0.098934042 0.00062760677 -0.013448328)
(0.10226569 0.00085152892 -0.0023302066)
(0.1032774 0.00093522514 -0.004527249)
(0.10231493 0.0010864631 -0.0022334145)
(0.10321226 0.0007838741 -0.0043943659)
(0.10280917 0.00099227592 -0.0097942146)
(0.098886782 0.0012033761 -0.013464375)
(0.10274542 0.00097415093 -0.0098966985)
(0.098938293 0.00057001229 -0.013520845)
(0.10333143 0.00087882763 -0.0045709979)
(0.10227541 0.00077524289 -0.0023846008)
(0.102338 0.0010050934 -0.0022900899)
(0.087795009 0.00039647052 0.0014005742)
(0.088950387 0.0003914105 0.0021688025)
(0.087318642 0.00044581349 0.0026040813)
(0.087779943 0.00043766496 0.0025088389)
(0.089130959 0.00053570176 0.0020784672)
(0.08995755 0.00067160404 0.0037570011)
(0.089878357 0.00055223359 0.0036803502)
(0.090668772 0.00056437257 0.0030293615)
(0.090641816 0.0005385018 0.0031268672)
(0.090849481 0.00068787047 0.0026165762)
(0.090877754 0.00062094753 0.0027317958)
(0.091131757 0.00059607094 0.0024829848)
(0.09119684 0.00057642006 0.0023862903)
(0.091195412 0.00065827653 0.0024285345)
(0.090879646 0.0005758664 0.002658775)
(0.090951989 0.00059558596 0.0027681582)
(0.091166407 0.00063607038 0.0025272079)
(0.089960368 0.00057375014 0.0036760418)
(0.089989851 0.00046566073 0.0037552764)
(0.090677021 0.0005874355 0.0031267803)
(0.090750192 0.0005832292 0.003040623)
(0.089979482 0.00050671608 0.0036819258)
(0.090769553 0.00053560611 0.003042595)
(0.090730603 0.00052807374 0.003133805)
(0.091184965 0.00055689055 0.0025258583)
(0.090969853 0.00055917311 0.0027731104)
(0.090935607 0.00057773485 0.002657219)
(0.091253392 0.00053468514 0.0024309854)
(0.093704065 0.0012302162 -0.016361571)
(0.093587048 0.00053993515 -0.016508551)
(0.093590339 0.0014206297 -0.016465497)
(0.093714533 0.00067545706 -0.016350021)
(0.093696741 0.0013842456 -0.016332697)
(0.09358636 0.00062299853 -0.016462449)
(0.093528499 0.0015596635 -0.016476912)
(0.093663822 0.00084465989 -0.016342245)
(0.096382767 0.0014125114 -0.023802413)
(0.096510345 0.00069095583 -0.023674973)
(0.09653138 0.001306748 -0.023670274)
(0.096429723 0.00054516772 -0.023775467)
(0.096444766 0.0013833143 -0.023777385)
(0.096567351 0.00060306802 -0.023667451)
(0.096556041 0.0012067379 -0.023683021)
(0.096447267 0.00047279644 -0.023810787)
(0.093359924 0.0017818261 -0.016435638)
(0.09350312 0.0010767526 -0.016301487)
(0.093548826 0.0016215379 -0.016299992)
(0.093449158 0.00087109874 -0.01642715)
(0.093485305 0.0016623285 -0.016429194)
(0.093619119 0.00089422734 -0.016311019)
(0.093619482 0.0014313057 -0.016329625)
(0.09350804 0.00071869604 -0.01647554)
(0.091951887 0.0011550729 0.0020868698)
(0.092078135 0.00099343737 0.0020989649)
(0.093069875 0.00077295047 0.00020601567)
(0.091565181 0.001012824 0.0047823704)
(0.091470977 0.0014105385 0.0047886792)
(0.091816557 0.001276849 0.0082411904)
(0.085011285 0.0016031376 0.0090727059)
(0.085120306 0.0011275246 0.009091895)
(0.091902646 0.0011678993 0.0082476946)
(0.085170311 0.0014525578 0.009086307)
(0.085117772 0.00096519637 0.0090794823)
(0.091624985 0.0012066397 0.0048006311)
(0.091964925 0.0010675847 0.0082564281)
(0.085146373 0.0013607574 0.0090780167)
(0.085240587 0.000880123 0.0090973435)
(0.092004967 0.00098507026 0.0082641226)
(0.085246418 0.0012189919 0.0091025926)
(0.085180737 0.00077101393 0.0090962559)
(0.091657091 0.00083385234 0.0047985682)
(0.080048091 0.001331081 0.01120775)
(0.079979516 0.0013893441 0.011220297)
(0.080095244 0.0012471908 0.011206348)
(0.080075878 0.0011834436 0.011225131)
(0.072124528 0.0013640147 0.010226436)
(0.072532511 0.0012853975 0.010203786)
(0.068139141 0.0016989777 0.0043961849)
(0.068267691 0.00086549801 0.0043185897)
(0.072505146 0.0011289067 0.010199912)
(0.072086261 0.0011080435 0.010254748)
(0.068111624 0.00077088898 0.0044091287)
(0.068225411 0.0015572736 0.0043241702)
(0.062885753 0.0020265272 -0.0043298692)
(0.068422082 0.0016395065 -0.018217329)
(0.063079497 0.00053142608 -0.0043192192)
(0.068586294 0.0009209819 -0.018188038)
(0.063023906 0.0018853359 -0.0043272847)
(0.068542969 0.001468019 -0.018201702)
(0.062834885 0.0004398406 -0.0043481786)
(0.068387704 0.00081209716 -0.018262987)
(0.071993981 0.0014881984 0.010243762)
(0.072415395 0.0014621233 0.010214192)
(0.068025038 0.0018151557 0.0044249375)
(0.068142308 0.0010228277 0.0043340763)
(0.072486979 0.00130666 0.010189038)
(0.072079262 0.0012485761 0.010237559)
(0.068221445 0.0017145538 0.0043257005)
(0.068086794 0.00090563621 0.0043972049)
(0.062743278 0.0021391405 -0.0043226956)
(0.062935331 0.00068999867 -0.0043127082)
(0.068440658 0.0010982027 -0.0181763)
(0.068282135 0.0017526978 -0.018221469)
(0.068535608 0.0016479044 -0.018170593)
(0.068365678 0.00095479199 -0.018212976)
(0.063029284 0.002043138 -0.0043101856)
(0.06282783 0.00057635661 -0.0043294643)
(0.080161522 0.0010913321 0.011214433)
(0.08010099 0.0011486486 0.011226429)
(0.080160831 0.0010229604 0.011218312)
(0.080134902 0.00098981034 0.011237657)
(0.072547438 0.00092453674 0.010204935)
(0.068258019 0.0013545865 0.0043180147)
(0.068147722 0.00058434085 0.004405029)
(0.072125909 0.0009207439 0.010257384)
(0.063121788 0.00031627225 -0.0043462461)
(0.062913935 0.0017802205 -0.0043581822)
(0.068465051 0.0013881793 -0.018261529)
(0.068640359 0.00070275884 -0.01823311)
(0.063045265 0.0016827237 -0.0043556118)
(0.068576864 0.001262506 -0.018248061)
(0.068423623 0.00062805386 -0.018308449)
(0.062859293 0.00025397247 -0.0043739201)
(0.072583083 0.0010702844 0.010204952)
(0.072174748 0.0011172075 0.010230033)
(0.068176093 0.0014545685 0.0043871505)
(0.068317349 0.0006507553 0.0043119735)
(0.072108572 0.0012435839 0.010245336)
(0.072527986 0.0012207203 0.010213323)
(0.068132252 0.0015739278 0.0044082587)
(0.068252995 0.0007819423 0.004320007)
(0.072590366 0.0010660753 0.010192619)
(0.072182252 0.00099588567 0.010238706)
(0.068314556 0.0014765825 0.0043126329)
(0.068192364 0.00065376185 0.0043869851)
(0.062854727 0.0019007009 -0.0043510179)
(0.063050115 0.00044902518 -0.0043370018)
(0.068568796 0.00085765154 -0.018219104)
(0.06840808 0.0015166325 -0.018267478)
(0.062934797 0.00032184157 -0.0043526218)
(0.068642586 0.0014069102 -0.018213558)
(0.068483414 0.00069731274 -0.018256232)
(0.063122715 0.0018061995 -0.0043349942)
(0.088258895 0.00071633119 0.013021362)
(0.088220411 0.0011554725 0.013022814)
(0.096479778 0.00087227067 0.0067091094)
(0.093921146 0.0011775687 0.01359451)
(0.093948546 0.00064337136 0.013602961)
(0.082395138 0.0010140174 0.016452427)
(0.082385373 0.0010473882 0.016785157)
(0.08179626 0.00080958466 0.019907996)
(0.081788043 0.001067842 0.019850321)
(0.072791246 0.0011069354 0.013810181)
(0.072727576 0.00075170509 0.013812105)
(0.082348566 0.00085437827 0.016786392)
(0.08236339 0.0008721219 0.016451522)
(0.072676891 0.0011603032 0.013812175)
(0.081758276 0.0008163552 0.019852204)
(0.081768347 0.0010846061 0.019905813)
(0.072768478 0.00082422951 0.013819368)
(0.06434074 0.0010792489 0.014103572)
(0.063970208 0.0010703265 0.014298244)
(0.060377312 0.0013201841 0.010181087)
(0.060451351 0.00071160113 0.010062644)
(0.060520447 0.0012760241 0.010053609)
(0.064385648 0.00092945401 0.014088703)
(0.064022239 0.0009049214 0.014288051)
(0.060424807 0.0006398161 0.010158627)
(0.060459527 0.0013031318 0.010155319)
(0.064056442 0.001046314 0.014279073)
(0.060544089 0.000645553 0.010051286)
(0.064414033 0.00099450017 0.01409078)
(0.064379501 0.00083879721 0.014099898)
(0.064006148 0.00084824436 0.014306635)
(0.060495386 0.0012061289 0.010061854)
(0.060420002 0.0005937255 0.01018134)
(0.05111033 0.00058562153 0.0047041335)
(0.050969324 0.0014468725 0.0047388039)
(0.042967502 0.0020787667 -0.0096387075)
(0.043209294 -3.0847411e-05 -0.0096669294)
(0.071380361 0.00079980502 -0.037139414)
(0.052846386 0.0021643169 -0.029329944)
(0.053109285 -0.00017733892 -0.029258717)
(0.071408773 0.0012702633 -0.037109508)
(0.043299565 0.0020317016 -0.0096740271)
(0.051182651 0.0014134889 0.0046962213)
(0.051031733 0.00051915139 0.0047212667)
(0.043051798 -0.00010872959 -0.0096535177)
(0.052928554 -0.000210291 -0.029296018)
(0.053204498 0.0021495594 -0.029232683)
(0.07144137 0.00075290897 -0.037079967)
(0.071385399 0.0011731249 -0.037114842)
(0.0430962 0.0020655569 -0.0096579902)
(0.051067232 0.0014311017 0.0047208196)
(0.051208614 0.00051299949 0.0046987577)
(0.04332763 -0.00010404909 -0.0096733639)
(0.043258681 0.0019549247 -0.0096768854)
(0.051155002 0.0013361086 0.0047023122)
(0.051013268 0.00046805528 0.0047400602)
(0.043016038 -0.00016313425 -0.009642849)
(0.071415619 0.0007834543 -0.03710429)
(0.052977706 0.0021589724 -0.029282684)
(0.053237223 -0.00023275758 -0.029236425)
(0.071471407 0.0011755234 -0.037095642)
(0.052902165 -0.00025345927 -0.029334179)
(0.053165843 0.0020931036 -0.029247492)
(0.071440382 0.00064909655 -0.03710048)
(0.071421398 0.0011091366 -0.037157969)
(0.090095861 0.001401689 -0.032347008)
(0.090133397 0.00067919292 -0.032430775)
(0.088086644 0.0010611291 -0.023825207)
(0.088410971 0.0010762918 -0.023748934)
(0.090164003 0.0013437594 -0.03240634)
(0.090139036 0.00066087608 -0.032320409)
(0.088459855 0.00098668368 -0.02372427)
(0.088132388 0.00096851435 -0.023810023)
(0.090138492 0.0013324155 -0.032336622)
(0.090135222 0.00062943348 -0.032414011)
(0.088114237 0.0010211317 -0.023822939)
(0.088443338 0.0010222552 -0.023724271)
(0.090143482 0.0013311828 -0.032464547)
(0.090090219 0.00059762329 -0.032367005)