/*--------------------------------*- C++ -*----------------------------------*\
  =========                 |
  \\      /  F ield         | OpenFOAM: The Open Source CFD Toolbox
   \\    /   O peration     | Website:  https://openfoam.org
    \\  /    A nd           | Version:  7
     \\/     M anipulation  |
\*---------------------------------------------------------------------------*/
FoamFile
{
    version     2.0;
    format      ascii;
    class       volScalarField;
    location    "7000";
    object      p;
}
// * * * * * * * * * * * * * * * * * * * * * * * * * * * * * * * * * * * * * //

dimensions      [0 2 -2 0 0 0 0];

internalField   nonuniform List<scalar> 
34387
(
-6.8312666e+84
-6.4811115e+84
-6.5827921e+84
-6.4758173e+84
-6.8000302e+84
-6.4566249e+84
-6.7351149e+84
-6.9315725e+84
-6.9432174e+84
-6.7492075e+84
-6.1282303e+84
-6.4022848e+84
-6.4006973e+84
-6.5837926e+84
-6.5837296e+84
-6.5766295e+84
-6.3917148e+84
-6.3983524e+84
-6.5807083e+84
-6.5828112e+84
-6.5828491e+84
-6.4030163e+84
-6.4734315e+84
-6.4472491e+84
-6.1220841e+84
-6.3972697e+84
-6.3947147e+84
-6.5802024e+84
-6.5817978e+84
-6.7665229e+84
-6.4174824e+84
-6.9051626e+84
-6.7019214e+84
-6.7195805e+84
-6.9177815e+84
-6.1058152e+84
-6.3646402e+84
-6.5659766e+84
-6.5505516e+84
-6.3804929e+84
-6.7421196e+84
-6.9347456e+84
-6.9449943e+84
-6.7555005e+84
-5.7922246e+84
-6.2277369e+84
-6.050739e+84
-6.0539942e+84
-6.2271535e+84
-6.2189446e+84
-6.0429992e+84
-6.0527742e+84
-6.2242101e+84
-6.4069279e+84
-6.4014003e+84
-6.4079057e+84
-6.5856438e+84
-6.5869213e+84
-6.5856811e+84
-6.5777833e+84
-6.397389e+84
-6.4005744e+84
-6.5816284e+84
-6.5831806e+84
-6.5828778e+84
-6.4030228e+84
-6.5836359e+84
-6.4030476e+84
-6.2314001e+84
-6.4747333e+84
-6.4439774e+84
-6.1196898e+84
-6.3934396e+84
-6.3939301e+84
-6.5783435e+84
-6.5789479e+84
-6.3961144e+84
-6.0982715e+84
-5.7872498e+84
-6.0480978e+84
-6.0450808e+84
-6.2211203e+84
-6.2240885e+84
-6.4030265e+84
-6.4003322e+84
-6.5812247e+84
-6.5827912e+84
-6.7348629e+84
-6.3657905e+84
-6.6846428e+84
-6.6697874e+84
-6.8799521e+84
-6.8910882e+84
-6.0738649e+84
-6.3291299e+84
-6.5144434e+84
-6.5337082e+84
-6.3483244e+84
-6.9073216e+84
-6.708391e+84
-6.725411e+84
-6.9200984e+84
-5.7752248e+84
-6.0193023e+84
-6.2074159e+84
-6.1925823e+84
-6.0329238e+84
-6.3700719e+84
-6.56792e+84
-6.5524067e+84
-6.3857052e+84
-6.7431716e+84
-6.9363667e+84
-6.946162e+84
-6.7567312e+84
-5.4691056e+84
-5.7115959e+84
-5.8789853e+84
-5.8862517e+84
-5.7195854e+84
-5.7223988e+84
-5.7165745e+84
-5.8854321e+84
-5.8879326e+84
-6.2305654e+84
-6.0570295e+84
-6.0580906e+84
-6.056553e+84
-6.2300387e+84
-6.229739e+84
-6.2198616e+84
-6.0478619e+84
-6.0562543e+84
-6.2255729e+84
-6.4045993e+84
-6.4070805e+84
-6.4028912e+84
-6.4086856e+84
-6.5864166e+84
-6.5856352e+84
-6.5874607e+84
-6.5839733e+84
-6.5790032e+84
-6.3983379e+84
-6.4006051e+84
-6.5817635e+84
-6.5832278e+84
-6.5851411e+84
-6.4031175e+84
-6.5836763e+84
-6.4030531e+84
-6.2313838e+84
-6.5836164e+84
-6.4035473e+84
-6.2313815e+84
-6.0665859e+84
-6.4469013e+84
-6.5663102e+84
-6.121821e+84
-6.3805894e+84
-6.3904139e+84
-6.5723178e+84
-6.3947415e+84
-6.3960022e+84
-6.5769699e+84
-6.5797357e+84
-6.3884773e+84
-6.0952287e+84
-6.2205497e+84
-6.0442532e+84
-5.7853237e+84
-6.0432709e+84
-6.2197137e+84
-6.3992252e+84
-6.4000274e+84
-6.5799576e+84
-6.5802146e+84
-6.0620265e+84
-5.7702326e+84
-5.4659792e+84
-5.712356e+84
-5.8800625e+84
-5.7147425e+84
-5.8827971e+84
-6.0544032e+84
-6.0509438e+84
-6.2232199e+84
-6.22669e+84
-6.4033573e+84
-6.400543e+84
-6.5808969e+84
-6.5825757e+84
-6.7160972e+84
-6.3233464e+84
-6.8697358e+84
-6.8634149e+84
-6.6452129e+84
-6.6562747e+84
-6.0343946e+84
-6.3083967e+84
-6.2890618e+84
-6.476987e+84
-6.494343e+84
-6.6911315e+84
-6.6779048e+84
-6.8818123e+84
-6.8925642e+84
-5.7513747e+84
-5.9903162e+84
-6.1603253e+84
-6.178358e+84
-6.0071555e+84
-6.3372513e+84
-6.5173693e+84
-6.5353502e+84
-6.3545446e+84
-6.9075861e+84
-6.7084949e+84
-6.7260066e+84
-6.9213321e+84
-5.6937924e+84
-5.4575047e+84
-5.8703167e+84
-5.8575948e+84
-5.7047189e+84
-6.0244822e+84
-6.2081839e+84
-6.1939623e+84
-6.0375838e+84
-6.3704153e+84
-6.5688151e+84
-6.5527976e+84
-6.3861414e+84
-6.7432314e+84
-6.9364722e+84
-6.9462588e+84
-6.7568129e+84
-5.1554478e+84
-5.3911771e+84
-5.39423e+84
-5.5577614e+84
-5.5606866e+84
-5.3976798e+84
-5.397657e+84
-5.5588484e+84
-5.5536912e+84
-5.716543e+84
-5.8799562e+84
-5.8885783e+84
-5.8936504e+84
-5.7233307e+84
-5.7254781e+84
-5.7271015e+84
-5.7218582e+84
-5.8870404e+84
-5.8909296e+84
-6.2311609e+84
-6.0572688e+84
-6.0613852e+84
-6.0583387e+84
-6.0607362e+84
-6.2297108e+84
-6.2300324e+84
-6.2285044e+84
-6.2204499e+84
-6.0482926e+84
-6.0567056e+84
-6.2257774e+84
-6.4033221e+84
-6.4041916e+84
-6.4070401e+84
-6.4025772e+84
-6.4087164e+84
-6.5864969e+84
-6.5838426e+84
-6.5852227e+84
-6.5874601e+84
-6.5836753e+84
-6.5791052e+84
-6.3983918e+84
-6.4006114e+84
-6.5817545e+84
-6.4031035e+84
-6.4041588e+84
-6.2311453e+84
-6.403514e+84
-6.2313563e+84
-6.0665461e+84
-6.4025626e+84
-6.231125e+84
-6.066548e+84
-5.9022594e+84
-6.3954604e+84
-6.5375163e+84
-6.351252e+84
-6.0975395e+84
-6.3685499e+84
-6.5539755e+84
-6.5655013e+84
-6.036259e+84
-5.7863934e+84
-6.0465954e+84
-6.2177783e+84
-6.2095237e+84
-6.2226254e+84
-6.0494543e+84
-6.045083e+84
-6.2217996e+84
-6.3847606e+84
-6.39232e+84
-6.3942792e+84
-6.57217e+84
-6.5779332e+84
-6.4012409e+84
-6.4002773e+84
-6.5796434e+84
-6.5816846e+84
-6.0564427e+84
-5.7682391e+84
-6.2225047e+84
-6.0498859e+84
-5.8796337e+84
-5.4642954e+84
-5.7115016e+84
-5.7116603e+84
-5.8785754e+84
-6.0487467e+84
-6.2216001e+84
-6.3996333e+84
-6.4002425e+84
-6.580586e+84
-6.5803818e+84
-6.0136368e+84
-5.745579e+84
-5.454384e+84
-5.3941113e+84
-5.1535808e+84
-5.3941474e+84
-5.5563333e+84
-5.5548991e+84
-5.7175153e+84
-5.8819028e+84
-5.7199945e+84
-5.8848926e+84
-6.0550086e+84
-6.0513981e+84
-6.2237909e+84
-6.2274811e+84
-6.4034299e+84
-6.4005986e+84
-6.5808975e+84
-6.5826064e+84
-6.7097772e+84
-6.2949156e+84
-6.6289201e+84
-6.6353988e+84
-6.8567141e+84
-6.8544912e+84
-5.9992048e+84
-6.2556597e+84
-6.4466996e+84
-6.4609338e+84
-6.2716399e+84
-6.8722863e+84
-6.8681134e+84
-6.6581859e+84
-6.6667943e+84
-5.7234851e+84
-5.9562388e+84
-6.1230115e+84
-6.1423314e+84
-5.9743039e+84
-6.3191599e+84
-6.3018316e+84
-6.4835181e+84
-6.498783e+84
-6.6910907e+84
-6.6778108e+84
-6.8817769e+84
-6.8924012e+84
-5.4409172e+84
-5.6695923e+84
-5.8310346e+84
-5.8463555e+84
-5.6828213e+84
-5.9965142e+84
-6.1640016e+84
-6.1809294e+84
-6.0131046e+84
-6.3382216e+84
-6.5179446e+84
-6.5356868e+84
-6.3550451e+84
-6.9075977e+84
-6.7085423e+84
-6.7260517e+84
-6.9214335e+84
-5.698421e+84
-5.5389462e+84
-5.1479704e+84
-5.5472151e+84
-5.3800478e+84
-5.3855539e+84
-5.871716e+84
-5.8588832e+84
-5.7095528e+84
-6.0252411e+84
-6.2086145e+84
-6.194597e+84
-6.0381503e+84
-6.3704837e+84
-6.5688783e+84
-6.5528342e+84
-6.3861926e+84
-4.8486433e+84
-5.082342e+84
-5.0787214e+84
-5.2373837e+84
-5.2393121e+84
-5.0804558e+84
-5.0827879e+84
-5.2400375e+84
-5.2405531e+84
-5.3956724e+84
-5.3990217e+84
-5.5589276e+84
-5.5632823e+84
-5.5661184e+84
-5.4010335e+84
-5.4006243e+84
-5.4007023e+84
-5.5610899e+84
-5.5547519e+84
-5.7170169e+84
-5.8804105e+84
-5.8891847e+84
-5.8952565e+84
-5.8959385e+84
-5.7305763e+84
-5.723872e+84
-5.7314641e+84
-5.7276848e+84
-5.7221939e+84
-5.8872787e+84
-5.8914183e+84
-6.2311625e+84
-6.0572716e+84
-6.0647396e+84
-6.0619268e+84
-6.0583725e+84
-6.0612089e+84
-6.2305458e+84
-6.2297892e+84
-6.2300157e+84
-6.2285047e+84
-6.2204832e+84
-6.0483369e+84
-6.0567674e+84
-6.225823e+84
-6.2310694e+84
-6.2298346e+84
-6.065913e+84
-6.2310481e+84
-6.0664994e+84
-5.9022214e+84
-6.2285514e+84
-6.0659561e+84
-5.9021983e+84
-5.7358524e+84
-6.3081874e+84
-6.0587613e+84
-6.3292981e+84
-6.3031821e+84
-6.4876707e+84
-6.5161515e+84
-6.5385989e+84
-6.3569794e+84
-6.1811905e+84
-6.0103399e+84
-5.7695474e+84
-6.0264183e+84
-6.1980303e+84
-6.3730739e+84
-6.5538991e+84
-6.566598e+84
-6.0414149e+84
-5.8732943e+84
-5.4639932e+84
-5.7054803e+84
-5.8793452e+84
-5.7110524e+84
-5.8811521e+84
-5.7123107e+84
-5.7100621e+84
-5.8796567e+84
-6.0504237e+84
-6.0517683e+84
-6.2190976e+84
-6.2251117e+84
-6.2098072e+84
-6.2255395e+84
-6.0541307e+84
-6.0509434e+84
-6.2237345e+84
-6.3854068e+84
-6.395938e+84
-6.3924968e+84
-6.3978612e+84
-6.5746842e+84
-6.5720463e+84
-6.5767441e+84
-6.4013007e+84
-6.4003478e+84
-6.5798587e+84
-6.5819666e+84
-6.0044463e+84
-5.7427686e+84
-5.4532648e+84
-6.2226486e+84
-6.0500827e+84
-5.8813114e+84
-5.1528675e+84
-5.552249e+84
-5.3891779e+84
-5.553767e+84
-5.3921043e+84
-5.7165154e+84
-5.7167025e+84
-5.8799633e+84
-6.0489226e+84
-6.221953e+84
-6.3996741e+84
-6.4002331e+84
-6.5805954e+84
-6.5804293e+84
-5.9728687e+84
-5.7170029e+84
-5.4383647e+84
-5.1460157e+84
-5.3993127e+84
-5.2401069e+84
-4.8475926e+84
-5.0811078e+84
-5.0811643e+84
-5.2398256e+84
-5.3990289e+84
-5.5579126e+84
-5.5565804e+84
-5.7177057e+84
-5.8821643e+84
-5.7201934e+84
-5.8851796e+84
-6.0550235e+84
-6.0514164e+84
-6.2238405e+84
-6.2275341e+84
-6.7158911e+84
-6.2793775e+84
-6.6243527e+84
-6.8560343e+84
-6.8537681e+84
-6.6243513e+84
-5.9717715e+84
-6.2431058e+84
-6.231694e+84
-6.4255945e+84
-6.434956e+84
-6.6428909e+84
-6.6490167e+84
-6.8624337e+84
-6.8604182e+84
-5.6973873e+84
-5.9251761e+84
-6.1065313e+84
-6.0898003e+84
-5.9412609e+84
-6.270947e+84
-6.4574739e+84
-6.4702605e+84
-6.286198e+84
-6.8719892e+84
-6.8693414e+84
-6.6598769e+84
-6.6675834e+84
-5.422483e+84
-5.6438658e+84
-5.8010619e+84
-5.817132e+84
-5.6573552e+84
-5.9633001e+84
-6.1289263e+84
-6.1473114e+84
-5.9812019e+84
-6.3202711e+84
-6.3032668e+84
-6.4843481e+84
-6.4995399e+84
-6.6911405e+84
-6.6778668e+84
-6.8817669e+84
-6.8923872e+84
-5.1369936e+84
-5.3618235e+84
-5.3710847e+84
-5.5287535e+84
-5.5175792e+84
-5.673312e+84
-5.8323035e+84
-5.8478081e+84
-5.6869104e+84
-5.9971321e+84
-6.1650722e+84
-6.1816199e+84
-6.01369e+84
-6.3383316e+84
-6.5180521e+84
-6.5357312e+84
-6.3551182e+84
-5.6988224e+84
-5.5400436e+84
-4.8442929e+84
-5.2283366e+84
-5.0717322e+84
-5.076089e+84
-5.2326048e+84
-5.5481242e+84
-5.38453e+84
-5.3894838e+84
-5.8723317e+84
-5.8595983e+84
-5.7100224e+84
-6.0253252e+84
-6.2086825e+84
-6.1946973e+84
-6.0382273e+84
-4.5474311e+84
-4.7737186e+84
-4.7755638e+84
-4.9277789e+84
-4.9287283e+84
-4.9289773e+84
-4.9311222e+84
-4.7744943e+84
-4.7747311e+84
-5.0865439e+84
-5.0820788e+84
-5.2375059e+84
-5.2398955e+84
-5.2424358e+84
-5.0817787e+84
-5.0807497e+84
-5.085052e+84
-5.2415786e+84
-5.2412845e+84
-5.3960401e+84
-5.399315e+84
-5.5593134e+84
-5.5675384e+84
-5.5637993e+84
-5.5669648e+84
-5.4038984e+84
-5.4012853e+84
-5.4035397e+84
-5.4009478e+84
-5.5615072e+84
-5.5552642e+84
-5.7170773e+84
-5.8804714e+84
-5.8892445e+84
-5.8960594e+84
-5.9001369e+84
-5.8967706e+84
-5.7313064e+84
-5.7347506e+84
-5.7239229e+84
-5.7322205e+84
-5.7277397e+84
-5.7222356e+84
-5.8873063e+84
-5.8914782e+84
-6.0658157e+84
-6.0658501e+84
-6.0620068e+84
-6.0612956e+84
-5.901458e+84
-5.9021561e+84
-5.7358283e+84
-5.9012343e+84
-5.7358151e+84
-5.5686317e+84
-6.2538547e+84
-6.4326344e+84
-6.2436573e+84
-6.0078955e+84
-6.2706106e+84
-6.4590732e+84
-5.7438411e+84
-6.1370949e+84
-5.9717855e+84
-5.9928292e+84
-6.1610671e+84
-6.3361392e+84
-6.3119203e+84
-6.4937755e+84
-6.5180467e+84
-6.5397138e+84
-6.1827771e+84
-6.3577374e+84
-6.0156853e+84
-5.850336e+84
-5.6873371e+84
-5.4538134e+84
-5.863918e+84
-5.697727e+84
-6.0315229e+84
-6.1989998e+84
-6.3740684e+84
-6.5552776e+84
-6.5666497e+84
-6.0418708e+84
-5.8745635e+84
-5.1525917e+84
-5.5469333e+84
-5.3839764e+84
-5.3873907e+84
-5.5484879e+84
-5.3875734e+84
-5.3884974e+84
-5.5496662e+84
-5.5508224e+84
-5.7103277e+84
-5.881361e+84
-5.8855255e+84
-5.7139091e+84
-5.7135592e+84
-5.8834997e+84
-5.7154413e+84
-5.7144533e+84
-5.8807059e+84
-6.0563256e+84
-6.0508579e+84
-6.0574146e+84
-6.224878e+84
-6.2194188e+84
-6.2263436e+84
-6.2102719e+84
-6.2256874e+84
-6.0544195e+84
-6.0511553e+84
-6.2238554e+84
-6.3854457e+84
-6.3980519e+84
-6.3959695e+84
-6.3925418e+84
-6.3977928e+84
-6.5732679e+84
-6.5742098e+84
-6.5720253e+84
-6.5760642e+84
-6.401293e+84
-6.4003462e+84
-6.5798589e+84
-6.5819516e+84
-5.962121e+84
-5.7134856e+84
-5.437315e+84
-5.1455625e+84
-6.2226573e+84
-6.0501037e+84
-5.8814881e+84
-4.8479459e+84
-5.0797643e+84
-5.2360095e+84
-5.2391062e+84
-5.0812678e+84
-5.5529751e+84
-5.3929657e+84
-5.5549885e+84
-5.3966157e+84
-5.7166078e+84
-5.7168158e+84
-5.8801175e+84
-6.0489269e+84
-6.2219664e+84
-5.9425361e+84
-5.6901826e+84
-5.4199364e+84
-5.1355753e+84
-4.8429366e+84
-5.2413085e+84
-5.3994591e+84
-4.5467875e+84
-4.7746949e+84
-4.7739044e+84
-4.9297148e+84
-4.9299685e+84
-5.0851323e+84
-5.0848962e+84
-5.2408129e+84
-5.3992281e+84
-5.5581227e+84
-5.5567785e+84
-5.7177179e+84
-5.8821724e+84
-5.7202079e+84
-5.8851845e+84
-6.7332215e+84
-6.2761458e+84
-6.632514e+84
-6.626408e+84
-6.8609252e+84
-6.8703621e+84
-5.954618e+84
-6.2187013e+84
-6.2245318e+84
-6.4191196e+84
-6.4161004e+84
-6.639156e+84
-6.862815e+84
-6.8598893e+84
-6.6383299e+84
-5.6753603e+84
-5.9016815e+84
-6.0652266e+84
-6.0768263e+84
-5.9121999e+84
-6.2586551e+84
-6.2475684e+84
-6.4367373e+84
-6.4460695e+84
-6.6446363e+84
-6.6508749e+84
-6.8640811e+84
-6.8618217e+84
-5.4041269e+84
-5.621026e+84
-5.7738671e+84
-5.7881285e+84
-5.6328437e+84
-5.9322975e+84
-6.1129789e+84
-6.096395e+84
-5.9485016e+84
-6.2728169e+84
-6.4596159e+84
-6.4722485e+84
-6.2881682e+84
-6.8720128e+84
-6.8694394e+84
-6.6599999e+84
-6.6677192e+84
-5.1246994e+84
-5.3541402e+84
-5.345603e+84
-5.5077404e+84
-5.4965563e+84
-5.647156e+84
-5.8022572e+84
-5.8183145e+84
-5.660814e+84
-5.9639764e+84
-6.1302542e+84
-6.148305e+84
-5.9816651e+84
-6.3203808e+84
-6.3033985e+84
-6.4844789e+84
-6.4996648e+84
-4.8370194e+84
-5.0658732e+84
-5.0618006e+84
-5.2141785e+84
-5.220982e+84
-5.3650221e+84
-5.3744161e+84
-5.5289386e+84
-5.5174744e+84
-5.6735255e+84
-5.832639e+84
-5.8483025e+84
-5.6872657e+84
-5.9971695e+84
-6.1651461e+84
-6.1816983e+84
-6.01375e+84
-5.6988588e+84
-5.5403664e+84
-4.5445879e+84
-4.7697304e+84
-4.9230458e+84
-4.9271496e+84
-4.7730007e+84
-5.2289479e+84
-5.0754512e+84
-5.0796207e+84
-5.2328237e+84
-5.5485289e+84
-5.384787e+84
-5.3897929e+84
-5.8723966e+84
-5.8596532e+84
-5.7100683e+84
-4.2500294e+84
-4.4736898e+84
-4.4769288e+84
-4.4743271e+84
-4.6264239e+84
-4.626333e+84
-4.4751669e+84
-4.626992e+84
-4.6261301e+84
-4.7766995e+84
-4.7773041e+84
-4.7742719e+84
-4.9279238e+84
-4.9292305e+84
-4.9280506e+84
-4.9292566e+84
-4.9308719e+84
-4.7776096e+84
-4.7763204e+84
-5.0865983e+84
-5.0821412e+84
-5.2377417e+84
-5.2407128e+84
-5.2399866e+84
-5.2413904e+84
-5.0816322e+84
-5.0817497e+84
-5.0824422e+84
-5.0849322e+84
-5.2415798e+84
-5.2415033e+84
-5.3960766e+84
-5.3993367e+84
-5.5593513e+84
-5.5689553e+84
-5.567754e+84
-5.5638375e+84
-5.567107e+84
-5.4033752e+84
-5.4037215e+84
-5.4013025e+84
-5.4033163e+84
-5.4009699e+84
-5.5615478e+84
-5.5553176e+84
-5.8961324e+84
-5.9011626e+84
-5.9013847e+84
-5.8968421e+84
-5.7313384e+84
-5.7352616e+84
-5.7354003e+84
-5.7322598e+84
-5.7354282e+84
-5.7357877e+84
-5.5686428e+84
-5.735281e+84
-5.5686307e+84
-5.4021116e+84
-6.2208185e+84
-5.9667476e+84
-6.2197926e+84
-6.2005162e+84
-6.390913e+84
-6.4090624e+84
-6.4444501e+84
-6.2582432e+84
-6.0865735e+84
-5.7140883e+84
-5.9295276e+84
-5.9507302e+84
-6.1110815e+84
-6.2832961e+84
-6.4680204e+84
-5.4378611e+84
-5.6758724e+84
-5.6632486e+84
-5.8189461e+84
-5.8358583e+84
-6.1399647e+84
-5.9768322e+84
-5.9977178e+84
-6.1631698e+84
-6.3371718e+84
-6.3133263e+84
-6.4955425e+84
-6.5190205e+84
-6.539804e+84
-6.1835056e+84
-6.3578197e+84
-6.0163308e+84
-5.8516944e+84
-5.6916751e+84
-5.5329241e+84
-5.3743939e+84
-5.1460152e+84
-5.3802659e+84
-5.5408022e+84
-5.8651375e+84
-5.7019085e+84
-6.0319449e+84
-6.1995066e+84
-6.3741334e+84
-6.5553781e+84
-6.0419413e+84
-5.8751085e+84
-4.8491645e+84
-5.0780621e+84
-5.0748541e+84
-5.2314774e+84
-5.2323532e+84
-5.078887e+84
-5.0790408e+84
-5.2334431e+84
-5.2349893e+84
-5.5466847e+84
-5.3868291e+84
-5.3886576e+84
-5.3877013e+84
-5.5490547e+84
-5.5516862e+84
-5.3907507e+84
-5.3902367e+84
-5.5507146e+84
-5.5506175e+84
-5.7107297e+84
-5.8859599e+84
-5.8818858e+84
-5.886659e+84
-5.7164594e+84
-5.7142381e+84
-5.7168534e+84
-5.8838473e+84
-5.715685e+84
-5.7145861e+84
-5.8809602e+84
-6.0604597e+84
-6.0571553e+84
-6.0509309e+84
-6.0582779e+84
-6.225665e+84
-6.2287668e+84
-6.2194895e+84
-6.2268906e+84
-6.2103249e+84
-6.2257046e+84
-6.0544598e+84
-6.0511915e+84
-6.2238802e+84
-6.3986114e+84
-6.39859e+84
-6.3960355e+84
-6.3978356e+84
-6.5731977e+84
-6.5736451e+84
-6.5737992e+84
-6.5760144e+84
-5.9307739e+84
-5.686334e+84
-5.4189378e+84
-5.135387e+84
-4.8429833e+84
-5.8815029e+84
-4.547705e+84
-4.9303377e+84
-4.9304522e+84
-4.7763397e+84
-4.7746562e+84
-5.0833164e+84
-5.2361249e+84
-5.2400467e+84
-5.085396e+84
-5.5530611e+84
-5.3930096e+84
-5.5551574e+84
-5.3967406e+84
-5.7166121e+84
-5.7168252e+84
-5.8801272e+84
-5.9235798e+84
-5.6676736e+84
-5.4018442e+84
-5.123428e+84
-4.8361425e+84
-4.5435708e+84
-5.2415128e+84
-5.3994711e+84
-4.2491987e+84
-4.4752405e+84
-4.4747801e+84
-4.6270008e+84
-4.626651e+84
-4.7779603e+84
-4.7768266e+84
-4.9296203e+84
-4.9301737e+84
-5.0852893e+84
-5.0850647e+84
-5.2410326e+84
-5.3992441e+84
-5.5581423e+84
-5.5567944e+84
-6.757411e+84
-6.2834593e+84
-6.6497461e+84
-6.8937405e+84
-6.8807176e+84
-6.6386054e+84
-5.947624e+84
-6.4191673e+84
-6.2173549e+84
-6.2163515e+84
-6.4157157e+84
-6.6474026e+84
-6.6417113e+84
-6.8677519e+84
-6.8765661e+84
-5.6599816e+84
-5.8879634e+84
-6.051297e+84
-6.0575405e+84
-5.8934779e+84
-6.234866e+84
-6.2407884e+84
-6.4304963e+84
-6.427663e+84
-6.6408822e+84
-6.8642155e+84
-6.861161e+84
-6.6398596e+84
-5.3880915e+84
-5.6023062e+84
-5.6105202e+84
-5.7621265e+84
-5.7526368e+84
-5.9089132e+84
-6.0720941e+84
-6.0831088e+84
-5.9189262e+84
-6.2602297e+84
-6.2496004e+84
-6.4388114e+84
-6.4482891e+84
-6.6447556e+84
-6.6510291e+84
-6.8641862e+84
-6.8618901e+84
-5.1120557e+84
-5.3373195e+84
-5.3286771e+84
-5.4873515e+84
-5.4772475e+84
-5.6243499e+84
-5.7750123e+84
-5.7891941e+84
-5.6361432e+84
-5.932664e+84
-6.1140636e+84
-6.0974225e+84
-5.9488374e+84
-6.2729671e+84
-6.4597933e+84
-6.4724356e+84
-6.2883106e+84
-4.8285102e+84
-5.2012944e+84
-5.0506679e+84
-5.0556969e+84
-5.2077533e+84
-5.3573747e+84
-5.3489121e+84
-5.5073542e+84
-5.4961028e+84
-5.6472061e+84
-5.8024683e+84
-5.8185362e+84
-5.6609573e+84
-5.9640029e+84
-6.1303387e+84
-6.1483699e+84
-5.9816945e+84
-4.5397776e+84
-4.9147449e+84
-4.7618639e+84
-4.7659015e+84
-4.9180799e+84
-5.0690081e+84
-5.0653925e+84
-5.2143019e+84
-5.2208924e+84
-5.3651853e+84
-5.3746199e+84
-5.5292018e+84
-5.5176603e+84
-5.6735493e+84
-5.8326649e+84
-5.8483452e+84
-5.6872997e+84
-5.5404018e+84
-4.2479289e+84
-4.4714806e+84
-4.6231252e+84
-4.6252466e+84
-4.4723955e+84
-4.7730458e+84
-4.923148e+84
-4.9273037e+84
-4.7763447e+84
-5.2292383e+84
-5.0756914e+84
-5.079794e+84
-5.2330868e+84
-5.5485679e+84
-5.384817e+84
-5.3898264e+84
-3.9550431e+84
-4.1762296e+84
-4.3282972e+84
-4.3286181e+84
-4.1783439e+84
-4.1794073e+84
-4.1783443e+84
-4.3288724e+84
-4.3274816e+84
-4.4768088e+84
-4.479109e+84
-4.4767807e+84
-4.4772703e+84
-4.625732e+84
-4.6266279e+84
-4.6283806e+84
-4.4767622e+84
-4.6263542e+84
-4.6268585e+84
-4.7767616e+84
-4.7763493e+84
-4.7773281e+84
-4.7763684e+84
-4.9278806e+84
-4.927388e+84
-4.9277652e+84
-4.9281071e+84
-4.9292314e+84
-4.9309533e+84
-4.777697e+84
-4.7764287e+84
-5.0865987e+84
-5.0821463e+84
-5.2377627e+84
-5.2397856e+84
-5.2404247e+84
-5.2399923e+84
-5.2411052e+84
-5.0815358e+84
-5.0811584e+84
-5.0817481e+84
-5.0823247e+84
-5.08492e+84
-5.2415774e+84
-5.2415147e+84
-5.5685949e+84
-5.5687485e+84
-5.5677539e+84
-5.5670978e+84
-5.4026954e+84
-5.4026191e+84
-5.4037036e+84
-5.4032951e+84
-5.568715e+84
-5.5686444e+84
-5.4021538e+84
-5.56855e+84
-5.4021491e+84
-5.2388306e+84
-6.2035611e+84
-6.3686612e+84
-6.1733192e+84
-5.936614e+84
-6.1851693e+84
-6.3776035e+84
-5.6865e+84
-6.0466792e+84
-5.8947474e+84
-5.9115505e+84
-6.0651684e+84
-6.2349448e+84
-6.2166742e+84
-6.4051931e+84
-6.4226533e+84
-6.4472395e+84
-6.2596367e+84
-6.0905687e+84
-5.419518e+84
-5.6493182e+84
-5.6354801e+84
-5.7846056e+84
-5.8022821e+84
-5.9343365e+84
-5.9555634e+84
-6.1144667e+84
-6.2845551e+84
-6.4707254e+84
-5.1361517e+84
-5.5137934e+84
-5.3589036e+84
-5.3673678e+84
-5.5238448e+84
-5.6796607e+84
-5.6672458e+84
-5.819926e+84
-5.836633e+84
-6.1407134e+84
-5.9771728e+84
-5.9982487e+84
-6.1640496e+84
-6.3373114e+84
-6.3134404e+84
-6.4957172e+84
-6.5191654e+84
-6.1835925e+84
-6.016408e+84
-5.8522761e+84
-5.6920586e+84
-5.5330517e+84
-5.3775997e+84
-5.2240905e+84
-5.0693213e+84
-4.8438496e+84
-5.0726507e+84
-5.2284073e+84
-5.3832752e+84
-5.540831e+84
-5.8656583e+84
-5.702388e+84
-6.032008e+84
-6.1995551e+84
-5.8751789e+84
-4.7789637e+84
-4.7794906e+84
-4.7755429e+84
-4.5495464e+84
-4.927755e+84
-4.9293272e+84
-4.9294673e+84
-4.9307936e+84
-4.777041e+84
-5.0796936e+84
-5.0785898e+84
-5.0776359e+84
-5.2303057e+84
-5.2323225e+84
-5.2346652e+84
-5.0821858e+84
-5.0809555e+84
-5.2338243e+84
-5.2341912e+84
-5.5469554e+84
-5.3869321e+84
-5.3893773e+84
-5.3886491e+84
-5.389586e+84
-5.5503948e+84
-5.5491068e+84
-5.5507002e+84
-5.3907273e+84
-5.3902079e+84
-5.5507613e+84
-5.5506695e+84
-5.7107721e+84
-5.886348e+84
-5.8883897e+84
-5.8819353e+84
-5.8872364e+84
-5.7169833e+84
-5.716352e+84
-5.714249e+84
-5.7167754e+84
-5.8838862e+84
-5.715701e+84
-5.7145928e+84
-5.880988e+84
-6.0614595e+84
-6.0611968e+84
-6.057202e+84
-6.0583442e+84
-6.2257513e+84
-6.229662e+84
-6.229869e+84
-6.2269788e+84
-6.3986853e+84
-6.3987654e+84
-6.3986613e+84
-6.5736395e+84
-6.5733852e+84
-6.5737907e+84
-5.9110527e+84
-5.6637806e+84
-5.4009804e+84
-5.1234956e+84
-4.8363588e+84
-4.5439692e+84
-4.629228e+84
-4.477056e+84
-4.2504564e+84
-4.4757405e+84
-4.6271757e+84
-4.9304579e+84
-4.9305768e+84
-4.7797815e+84
-4.7778634e+84
-5.0833704e+84
-5.2361865e+84
-5.2401578e+84
-5.0854921e+84
-5.5530622e+84
-5.3930096e+84
-5.5551679e+84
-5.3967474e+84
-5.9149037e+84
-5.6515723e+84
-5.3858972e+84
-5.1111475e+84
-4.8280113e+84
-4.5389641e+84
-4.2467521e+84
-5.2415251e+84
-3.9538064e+84
-4.1770016e+84
-4.3286538e+84
-4.3290118e+84
-4.1769892e+84
-4.4785285e+84
-4.4778469e+84
-4.6268299e+84
-4.6264214e+84
-4.7780257e+84
-4.7769281e+84
-4.9297411e+84
-4.9302745e+84
-5.0852988e+84
-5.0850753e+84
-5.2410463e+84
-6.7848317e+84
-6.2984995e+84
-6.9207462e+84
-6.67184e+84
-6.6606486e+84
-6.9056209e+84
-5.9495871e+84
-6.2263078e+84
-6.219304e+84
-6.4229238e+84
-6.4317938e+84
-6.664508e+84
-6.9001752e+84
-6.887539e+84
-6.653394e+84
-5.6523294e+84
-5.8842624e+84
-5.8841095e+84
-6.0480818e+84
-6.0480022e+84
-6.4308745e+84
-6.2336372e+84
-6.2323974e+84
-6.4274715e+84
-6.6483455e+84
-6.6437792e+84
-6.8687968e+84
-6.8763915e+84
-5.3759163e+84
-5.5944711e+84
-5.589994e+84
-5.7445839e+84
-5.7394494e+84
-5.8955172e+84
-6.058506e+84
-6.0645369e+84
-5.9006534e+84
-6.2366715e+84
-6.242687e+84
-6.4327002e+84
-6.4298869e+84
-6.6410141e+84
-6.8643631e+84
-6.8612826e+84
-6.6399776e+84
-5.1007533e+84
-5.3224559e+84
-5.3152527e+84
-5.4687783e+84
-5.4611431e+84
-5.605914e+84
-5.6137357e+84
-5.7630214e+84
-5.75404e+84
-5.909251e+84
-6.0731248e+84
-6.0838996e+84
-5.9192531e+84
-6.2603757e+84
-6.2497799e+84
-6.4389908e+84
-6.4484896e+84
-4.8196898e+84
-5.0388587e+84
-5.0441257e+84
-5.1939039e+84
-5.1867387e+84
-5.3404472e+84
-5.3317126e+84
-5.4869565e+84
-5.4769321e+84
-5.6243368e+84
-5.7751301e+84
-5.7892861e+84
-5.6361619e+84
-5.9326933e+84
-6.1141319e+84
-6.0975001e+84
-5.9488575e+84
-4.5337386e+84
-4.9052848e+84
-4.7537563e+84
-4.757565e+84
-4.9094858e+84
-5.2016312e+84
-5.0543386e+84
-5.0589394e+84
-5.2077712e+84
-5.3575047e+84
-5.3489648e+84
-5.5074709e+84
-5.4961477e+84
-5.6472144e+84
-5.8024794e+84
-5.818552e+84
-5.6609721e+84
-4.2445119e+84
-4.4655074e+84
-4.6162313e+84
-4.6201644e+84
-4.4692737e+84
-4.9144882e+84
-4.7646437e+84
-4.7687659e+84
-4.9176078e+84
-5.0691768e+84
-5.0654765e+84
-5.214459e+84
-5.2210999e+84
-5.3652024e+84
-5.3746455e+84
-5.5292307e+84
-5.5176808e+84
-3.9525605e+84
-4.1762542e+84
-4.1781875e+84
-4.327721e+84
-4.3266826e+84
-4.4747162e+84
-4.6229966e+84
-4.6249015e+84
-4.4753366e+84
-4.7732053e+84
-4.9233588e+84
-4.9274463e+84
-4.7764563e+84
-5.2292659e+84
-5.0757154e+84
-5.0798124e+84
-5.233114e+84
-3.6612094e+84
-3.8843748e+84
-3.8829115e+84
-3.8834553e+84
-4.0341223e+84
-4.0341567e+84
-3.8869078e+84
-4.0320929e+84
-4.0323063e+84
-4.1787607e+84
-4.3274391e+84
-4.3291617e+84
-4.3301022e+84
-4.1797506e+84
-4.1782598e+84
-4.1815743e+84
-4.1818574e+84
-4.3286089e+84
-4.3280732e+84
-4.4769299e+84
-4.4794755e+84
-4.4792165e+84
-4.4790014e+84
-4.4773913e+84
-4.6258596e+84
-4.6267809e+84
-4.6275953e+84
-4.6278541e+84
-4.4769189e+84
-4.6264873e+84
-4.6270177e+84
-4.7767666e+84
-4.776517e+84
-4.7771563e+84
-4.7773311e+84
-4.776568e+84
-4.9278794e+84
-4.9274224e+84
-4.9277061e+84
-4.9277981e+84
-4.9281108e+84
-4.9292269e+84
-4.930955e+84
-4.7777012e+84
-4.7764369e+84
-5.2392923e+84
-5.2393023e+84
-5.2404085e+84
-5.2410852e+84
-5.0815384e+84
-5.0811667e+84
-5.0811067e+84
-5.0823202e+84
-5.4026378e+84
-5.402196e+84
-5.402558e+84
-5.238862e+84
-5.2388683e+84
-5.0810864e+84
-6.1977275e+84
-5.917434e+84
-6.1648116e+84
-6.1595189e+84
-6.3582952e+84
-6.3618415e+84
-6.3837641e+84
-6.1902203e+84
-6.0199834e+84
-5.8707306e+84
-5.6640066e+84
-5.8820077e+84
-6.0319802e+84
-6.2015106e+84
-6.3927332e+84
-5.4013624e+84
-5.6227554e+84
-5.6111476e+84
-5.7552562e+84
-5.7698191e+84
-6.0514181e+84
-5.8996917e+84
-5.9162124e+84
-6.0692376e+84
-6.2361726e+84
-6.2177555e+84
-6.408329e+84
-6.4257514e+84
-6.4474915e+84
-6.2597432e+84
-6.0907454e+84
-5.4922722e+84
-5.3428018e+84
-5.1245588e+84
-5.3512963e+84
-5.5031984e+84
-5.6525366e+84
-5.6386723e+84
-5.784631e+84
-5.8023879e+84
-5.9344129e+84
-5.9556413e+84
-6.114578e+84
-6.2846422e+84
-6.4709282e+84
-4.8375506e+84
-5.0653071e+84
-5.060574e+84
-5.2118756e+84
-5.2186401e+84
-5.513739e+84
-5.361827e+84
-5.3703623e+84
-5.5237386e+84
-5.6799186e+84
-5.6674381e+84
-5.8202014e+84
-5.8369713e+84
-6.1407728e+84
-5.9772114e+84
-5.9983e+84
-6.1641342e+84
-5.8523396e+84
-5.6921014e+84
-5.5333634e+84
-5.3777792e+84
-5.2235514e+84
-5.0722047e+84
-4.9219866e+84
-4.7695066e+84
-4.5453514e+84
-4.7716478e+84
-4.9245871e+84
-5.075283e+84
-5.2277314e+84
-5.3834564e+84
-5.5411801e+84
-5.8657301e+84
-5.7024452e+84
-4.7812102e+84
-4.7805243e+84
-4.6299475e+84
-4.7820234e+84
-4.6300905e+84
-4.7793773e+84
-4.628981e+84
-4.2519803e+84
-4.4757524e+84
-4.630845e+84
-4.4787725e+84
-4.4780252e+84
-4.4781929e+84
-4.9274524e+84
-4.9302723e+84
-4.9323047e+84
-4.9301894e+84
-4.9305478e+84
-4.7808007e+84
-5.0808817e+84
-5.0798901e+84
-5.0809567e+84
-5.0777979e+84
-5.2304133e+84
-5.2333321e+84
-5.2324056e+84
-5.2335051e+84
-5.0821995e+84
-5.0810482e+84
-5.23384e+84
-5.2342176e+84
-5.546978e+84
-5.3869435e+84
-5.3892787e+84
-5.3893437e+84
-5.3886524e+84
-5.3894637e+84
-5.5500461e+84
-5.5501584e+84
-5.5491031e+84
-5.5503504e+84
-5.3907211e+84
-5.3902031e+84
-5.5507569e+84
-5.5506659e+84
-5.8863369e+84
-5.888238e+84
-5.888578e+84
-5.8872437e+84
-5.7164834e+84
-5.7164048e+84
-5.7163246e+84
-5.7167391e+84
-6.0615016e+84
-6.0616783e+84
-6.0612021e+84
-6.2297159e+84
-6.2301276e+84
-6.2299578e+84
-6.3988047e+84
-6.3988373e+84
-6.5734141e+84
-6.5733613e+84
-5.9014963e+84
-5.6473707e+84
-5.3852212e+84
-5.1113967e+84
-4.8284833e+84
-4.5393911e+84
-4.2472707e+84
-4.6293347e+84
-4.4804662e+84
-4.3311619e+84
-3.9549162e+84
-4.1799718e+84
-4.3306007e+84
-4.1794259e+84
-4.4792136e+84
-4.6270182e+84
-4.9305997e+84
-4.9307245e+84
-4.7799365e+84
-4.7779925e+84
-5.0833716e+84
-5.2361867e+84
-5.240163e+84
-5.0854975e+84
-5.9152321e+84
-5.6428543e+84
-5.3735902e+84
-5.1000344e+84
-4.8195587e+84
-4.5333577e+84
-4.2432891e+84
-3.9514169e+84
-3.6598784e+84
-3.8819839e+84
-3.8826127e+84
-4.0319501e+84
-4.0322728e+84
-4.1797751e+84
-4.3283813e+84
-4.3287848e+84
-4.179736e+84
-4.4785533e+84
-4.4779347e+84
-4.6269251e+84
-4.6265057e+84
-4.7780304e+84
-4.7769346e+84
-4.9297484e+84
-4.9302806e+84
-6.8157602e+84
-6.3174514e+84
-6.6968335e+84
-6.6830927e+84
-6.9335608e+84
-6.95109e+84
-5.9586612e+84
-6.2421189e+84
-6.450952e+84
-6.4409762e+84
-6.2332151e+84
-6.9258177e+84
-6.6867242e+84
-6.6766709e+84
-6.9121191e+84
-5.6518549e+84
-5.8841777e+84
-5.8872112e+84
-6.053964e+84
-6.0488187e+84
-6.2426811e+84
-6.2353838e+84
-6.4342306e+84
-6.442955e+84
-6.6656475e+84
-6.9006243e+84
-6.8889074e+84
-6.6547219e+84
-5.3691715e+84
-5.5854261e+84
-5.5859047e+84
-5.7355723e+84
-5.7350861e+84
-5.8918627e+84
-5.8920629e+84
-6.0554747e+84
-6.05508e+84
-6.4328924e+84
-6.23541e+84
-6.234141e+84
-6.4298454e+84
-6.6485302e+84
-6.6439916e+84
-6.8689884e+84
-6.8764753e+84
-5.0921053e+84
-5.3052513e+84
-5.3092214e+84
-5.453957e+84
-5.4499198e+84
-5.5978602e+84
-5.5937909e+84
-5.7458559e+84
-5.7411717e+84
-5.8959211e+84
-6.0595056e+84
-6.0655952e+84
-5.9010684e+84
-6.2368046e+84
-6.2428368e+84
-6.4328601e+84
-6.4300299e+84
-4.8117675e+84
-5.0284117e+84
-5.1750655e+84
-5.1812214e+84
-5.0330005e+84
-5.3258361e+84
-5.3183806e+84
-5.4684776e+84
-5.4609614e+84
-5.6058732e+84
-5.6137247e+84
-5.7631519e+84
-5.7541403e+84
-5.9092846e+84
-6.073215e+84
-6.0839756e+84
-5.9192861e+84
-4.5272204e+84
-4.8956164e+84
-4.7457149e+84
-4.7492705e+84
-4.8997853e+84
-5.0422966e+84
-5.0473247e+84
-5.1938021e+84
-5.1866987e+84
-5.3405471e+84
-5.3317567e+84
-5.4869792e+84
-5.4769352e+84
-5.6243373e+84
-5.7751384e+84
-5.7892912e+84
-5.6361659e+84
-4.2400134e+84
-4.4625267e+84
-4.4599277e+84
-4.6093886e+84
-4.6126304e+84
-4.9050368e+84
-4.7564698e+84
-4.7600765e+84
-4.9089511e+84
-5.2017324e+84
-5.0544273e+84
-5.0590776e+84
-5.2079349e+84
-5.357516e+84
-5.3489707e+84
-5.5074821e+84
-5.4961542e+84
-3.949586e+84
-4.1732689e+84
-4.3219475e+84
-4.3254487e+84
-4.1755007e+84
-4.4683728e+84
-4.6156591e+84
-4.6197403e+84
-4.4723926e+84
-4.9146336e+84
-4.7648057e+84
-4.768866e+84
-4.9177712e+84
-5.0691937e+84
-5.0654847e+84
-5.2144731e+84
-5.2211224e+84
-3.658016e+84
-3.8805343e+84
-4.0313754e+84
-4.0332097e+84
-3.8819464e+84
-4.1796873e+84
-4.1817922e+84
-4.3277691e+84
-4.3266976e+84
-4.4748497e+84
-4.6231533e+84
-4.6250427e+84
-4.4754936e+84
-4.7732214e+84