/*--------------------------------*- C++ -*----------------------------------*\
  =========                 |
  \\      /  F ield         | OpenFOAM: The Open Source CFD Toolbox
   \\    /   O peration     | Website:  https://openfoam.org
    \\  /    A nd           | Version:  7
     \\/     M anipulation  |
\*---------------------------------------------------------------------------*/
FoamFile
{
    version     2.0;
    format      ascii;
    class       surfaceScalarField;
    location    "7000";
    object      phi;
}
// * * * * * * * * * * * * * * * * * * * * * * * * * * * * * * * * * * * * * //

dimensions      [0 3 -1 0 0 0 0];

internalField   nonuniform List<scalar> 
99977
(
-1.0607663e+38
-5.6608399e+39
-2.3751869e+38
2.6050352e+38
2.6106065e+38
-2.4721496e+38
-3.4958658e+37
-1.2008553e+38
-5.1852983e+39
-1.6227135e+38
-2.3538517e+38
2.4815017e+38
1.6888504e+38
2.5820043e+38
-2.2670141e+38
-1.6463283e+38
1.7397669e+38
-3.3394256e+35
-2.5856861e+35
-3.1090057e+36
-1.0285381e+37
-1.9408959e+38
-5.6440853e+39
-2.4237047e+38
-2.4226685e+38
2.747192e+38
2.6603645e+38
-9.2191824e+37
-5.5528239e+39
2.5908872e+38
-2.5041135e+38
-2.5721426e+38
2.5532307e+38
-7.3294796e+37
-2.0185821e+38
-5.5553364e+39
-2.4143855e+38
2.6809604e+38
2.6323146e+38
-2.4032237e+38
8.8092425e+38
2.8932085e+36
-2.5028078e+36
-1.1307897e+39
1.1956662e+37
-1.2208036e+37
1.0776267e+37
1.5742997e+37
-8.9841851e+38
7.0282729e+36
-1.1519989e+39
5.8023635e+36
-3.8514116e+37
-1.4169577e+38
-5.089603e+39
2.4977161e+38
-2.2641384e+38
-1.5823514e+38
1.7659502e+38
2.4990341e+38
-2.2663691e+38
-1.5883721e+38
1.7836869e+38
-4.3591895e+36
7.8877611e+38
-8.9818463e+38
6.6572925e+36
-5.5160683e+37
8.4522228e+38
-1.2953355e+37
-1.076785e+39
4.7720765e+36
-4.0337245e+36
1.2901493e+36
5.0367498e+36
4.5113804e+36
5.8078817e+37
-8.3985203e+38
-1.0455346e+37
3.0218759e+36
1.5779398e+37
2.262101e+36
-1.4552648e+37
-1.0654055e+39
1.1142804e+37
7.9590715e+38
-9.0666421e+38
-5.4847567e+37
3.2340781e+36
5.4383752e+37
7.5926446e+36
-1.5360783e+35
-1.0713061e+35
-3.6499587e+36
-1.9257266e+35
-6.2392018e+34
-3.493535e+36
-1.2998176e+35
3.3694884e+34
-3.5263406e+36
2.3485637e+37
-2.0057059e+38
-5.6549942e+39
-2.4457597e+38
-2.4244319e+38
2.7285834e+38
2.7165715e+38
-1.9330241e+37
-4.0442858e+38
-6.1182478e+39
-1.2611476e+37
-1.8092459e+38
-5.5409553e+39
-2.379315e+38
-2.4272111e+38
2.6946685e+38
2.6307884e+38
-4.7393976e+36
8.9185667e+38
-1.1429596e+39
5.1891071e+35
9.1260839e+38
-7.4035216e+35
-1.1663198e+39
7.445886e+36
-1.7464652e+36
5.3530455e+35
1.5739601e+37
8.7341902e+36
-2.1357408e+38
-5.739978e+39
-2.354643e+38
-2.3501426e+38
2.8166522e+38
2.8319018e+38
-6.5136011e+37
-2.522315e+38
-5.4709722e+39
-2.4466736e+38
2.5754024e+38
2.6531478e+38
-2.4452981e+38
-8.9641805e+38
-6.2227028e+36
-1.453816e+37
1.6884058e+37
1.0585641e+37
-2.6268547e+37
-1.1365359e+39
5.3896733e+36
9.1011598e+38
-1.1639205e+39
4.6732153e+36
1.2042626e+37
-4.7722132e+37
-2.1051681e+38
-5.4632634e+39
-2.4904317e+38
2.6319849e+38
2.529134e+38
-2.4259633e+38
8.8219589e+38
1.2316162e+37
-1.2508726e+37
-1.1290154e+39
5.5738987e+36
5.3744633e+35
-8.9810825e+38
1.6689992e+37
-2.9916267e+36
1.8166873e+37
-1.148697e+39
8.0300471e+36
8.2924816e+38
1.1013705e+36
-2.7071381e+36
-8.2816218e+38
1.2476765e+37
-6.4587789e+36
6.8285403e+36
1.3853844e+37
-8.5446208e+38
7.9460001e+36
-8.5718146e+38
1.2058586e+37
-2.9556088e+37
-1.3580195e+38
-5.0090924e+39
-2.3029282e+38
2.4188723e+38
1.746679e+38
-1.5839282e+38
-1.5143352e+38
-2.2395419e+38
2.4986886e+38
1.8249791e+38
-8.3407419e+38
-4.9945746e+36
-4.0391616e+36
1.6094786e+37
6.6123946e+36
-9.3240298e+36
-1.0672164e+39
9.4398768e+36
7.9731459e+38
-9.0781917e+38
7.2809992e+36
-4.8398985e+37
1.0078687e+37
6.0651835e+37
-8.2226981e+38
-3.6896376e+36
-6.9436311e+36
1.7401237e+37
1.4445069e+37
-1.856482e+37
-1.0520658e+39
7.2788777e+36
7.9931482e+38
-8.9768653e+38
-5.1242466e+37
5.2224303e+36
6.0115667e+37
7.2141554e+36
8.8348441e+35
7.3575885e+38
-7.3483018e+38
-1.9202888e+36
6.7656911e+36
8.561573e+38
-9.7435669e+38
4.3967275e+36
3.7947501e+36
7.979276e+38
-1.0342822e+37
-7.9348105e+38
1.15522e+37
2.8918939e+36
-7.1479525e+35
8.1962447e+36
3.2542984e+36
7.8327949e+36
5.5969404e+36
5.8569709e+36
-7.8195691e+38
-5.827949e+36
-3.2517961e+36
1.3051229e+37
-7.6032303e+36
-1.0134999e+37
-7.6650184e+38
1.3426116e+37
7.2631507e+38
-7.3329799e+38
-2.2526255e+36
4.8666301e+36
-1.373371e+36
6.6399734e+36
2.238305e+36
6.3630368e+34
-4.5566628e+37
-9.3278991e+34
3.8456982e+34
-4.0240439e+36
7.1907002e+34
7.5127557e+34
-4.118517e+36
3.8701312e+36
2.1334845e+35
-4.729478e+37
-8.8215223e+34
4.1215574e+35
-4.012411e+36
-1.9816799e+35
-2.0247648e+34
-3.7572365e+36
-1.6444764e+38
2.5121957e+38
-5.1831483e+39
-2.38312e+38
-1.6481301e+38
1.7642614e+38
-2.2863407e+38
-1.5642524e+38
1.839683e+38
2.4732277e+38
3.8999076e+37
-4.3511489e+38
-6.1241462e+39
1.6937183e+37
-1.9744071e+38
2.7611805e+38
-2.3878764e+38
-5.5513603e+39
-2.4483232e+38
2.7176109e+38
5.7156743e+36
9.1498421e+38
-1.1736213e+39
7.6053913e+36
9.2005903e+38
1.2323097e+37
-1.1800047e+39
1.0895402e+37
-1.1576374e+36
8.9533686e+36
1.3122438e+37
1.2615791e+37
-3.1480166e+37
-5.9831992e+39
-2.2463888e+37
-2.933837e+38
-6.031045e+39
-8.9282302e+36
-1.6066513e+38
-5.4552534e+39
-2.4224156e+38
2.680857e+38
-2.3472047e+38
2.6321268e+38
-6.3448289e+36
8.9276209e+38
-1.1417896e+39
8.1170109e+36
9.120018e+38
-1.8475883e+36
-1.1681021e+39
8.8820904e+36
1.6679917e+36
-1.150948e+36
1.4632048e+37
1.0510257e+37
-1.6367308e+36
8.0475296e+38
-8.1725125e+38
4.3115537e+36
8.4345908e+38
5.3201444e+35
-8.4418866e+38
6.0072059e+36
-1.0089512e+36
-1.3030776e+36
3.3710243e+36
1.2326247e+36
-2.0317838e+38
-5.6713758e+39
3.0206335e+38
2.7780787e+38
-2.3990998e+38
-2.3061128e+38
-2.7204365e+38
-5.2875055e+39
-2.1378746e+38
-2.1862591e+38
2.9709176e+38
3.0556462e+38
-1.9346997e+37
9.1440279e+38
-1.1643581e+39
7.569754e+36
9.1406344e+38
-3.0118995e+37
-1.1505906e+39
1.2285198e+37
1.3260286e+37
-2.8194654e+37
2.3596831e+37
2.1088081e+37
-7.2791036e+37
-2.8548169e+38
-5.362671e+39
-2.3767668e+38
2.4635435e+38
2.6294198e+38
-2.32163e+38
8.7268023e+38
1.4692269e+37
-2.9134514e+37
-1.1092158e+39
6.3108238e+36
1.0125532e+37
-2.7212264e+37
1.0771428e+37
-9.0260807e+38
1.1136346e+37
-1.1497362e+39
4.7820276e+36
-8.3003277e+38
-6.2064347e+36
-1.0519144e+37
8.8938369e+36
1.0182722e+37
-2.0687071e+37
-8.1459059e+38
4.5210776e+35
8.6233793e+38
-8.5896831e+38
8.7793043e+36
1.2483612e+37
-3.5285225e+37
-2.1124472e+38
-2.5096696e+38
-5.3775566e+39
2.6053982e+38
2.5315421e+38
-2.3770431e+38
8.8678371e+38
1.7313386e+37
-1.5350275e+37
-1.1415137e+39
3.7240704e+36
-6.6713251e+36
-8.9638272e+38
1.0612037e+37
-6.0969048e+36
1.0107443e+37
-1.1432637e+39
3.0333289e+36
8.1660815e+38
1.4976824e+37
-1.2816313e+37
-8.1606712e+38
2.872581e+36
-9.6060117e+36
-8.4595606e+38
1.1818948e+37
-1.0932519e+37
7.9394436e+36
-8.4040786e+38
7.323737e+36
6.7901174e+37
-3.1261967e+35
2.5924235e+35
-6.2338988e+37
6.9685289e+36
-7.6452745e+35
9.2735181e+35
8.1197337e+36
-7.316594e+37
6.7284709e+36
-6.8953232e+37
7.7243575e+36
-2.4729285e+37
-1.2259542e+38
-4.9533251e+39
-2.30666e+38
-2.2586645e+38
2.5019944e+38
1.8158943e+38
-1.4841965e+38
-1.5137312e+38
1.7733599e+38
2.3875912e+38
8.2023039e+38
1.5798423e+37
-1.8544113e+37
-1.0517878e+39
4.010455e+36
5.9887961e+36
-8.0034652e+36
1.2066723e+37
-7.8970784e+38
6.3989945e+36
6.6279103e+37
-8.9704214e+38
4.252701e+36
-3.9512567e+37
-1.299067e+37
8.0051932e+38
-8.9989353e+38
-4.8866656e+37
9.7982141e+36
8.3240155e+38
-8.3160506e+36
-1.0685959e+39
7.5655793e+36
7.8579812e+35
-5.9977109e+35
1.4868069e+37
6.5771926e+37
1.0211986e+37
-7.7871231e+38
2.6514544e+34
-1.053847e+37
1.1838209e+37
2.1263227e+35
-6.8396403e+36
-7.7100601e+38
8.3607074e+36
7.2972095e+38
-7.3208635e+38
4.4393587e+36
5.4196969e+36
8.5983394e+38
-9.7051764e+38
5.4354484e+36
5.6071288e+36
-3.702524e+35
5.3662639e+36
3.2977188e+36
2.9472195e+36
-7.4834788e+38
1.4026315e+36
-1.3832047e+37
1.1676833e+37
1.0039029e+37
-1.3018193e+37
-7.4569419e+38
7.6045635e+36
7.2897672e+38
-7.2183155e+38
2.2078947e+36
5.9086504e+36
-6.9955994e+35
4.9952165e+36
6.8841554e+38
-6.8290303e+38
-2.9570039e+36
-7.8822301e+34
-4.4402582e+34
6.139646e+37
-5.7164318e+37
-2.1131916e+35
2.7893518e+36
6.8708516e+38
-6.8375268e+38
-3.7720601e+36
1.981886e+36
6.9812594e+37
-1.1267183e+36
-6.5523104e+37
8.3457359e+36
3.9455436e+35
-2.6186747e+35
9.2942786e+36
-1.2129647e+35
2.072349e+36
3.4943909e+35
4.2165578e+36
-1.3058187e+36
3.5066622e+36
-6.6541207e+37
-7.246298e+35
-1.6318504e+35
1.0422734e+37
-8.6342659e+35
-6.1579116e+35
-6.094908e+37
9.3135042e+36
5.4767447e+37
-5.4713772e+37
-4.4590336e+35
4.3959305e+36
-3.8342762e+35
3.4291397e+36
3.0640744e+36
-1.7907887e+35
-4.4740381e+37
1.1609425e+36
-8.2620114e+34
-5.1829623e+37
-1.0153229e+35
3.7018249e+35
-4.6773594e+37
3.4621412e+36
1.3576623e+35
-4.6289841e+37
5.9134965e+34
4.2388273e+35
-4.520127e+36
-8.5573825e+34
-1.3601501e+35
-4.3265494e+36
2.2607844e+35
3.3728328e+35
-5.2521744e+37
-2.3514086e+35
3.5460281e+35
-4.7536756e+37
-3.1020518e+35
1.8106056e+35
-4.2354799e+36
-4.3966977e+35
-2.6739661e+35
-3.6808777e+36
-3.5621189e+38
2.7234141e+38
-2.5067129e+38
-5.5536353e+39
-2.4607708e+38
2.6400439e+38
-8.3945251e+38
-1.976628e+36
-4.1005054e+36
1.2334594e+37
-1.7943856e+38
-2.3855092e+38
-5.0903425e+39
-1.5750751e+38
1.7798656e+38
2.4575244e+38
1.9078197e+38
-1.4744686e+38
-2.213741e+38
2.5392926e+38
1.4423769e+37
-1.8130688e+37
-1.0781722e+39
4.1151036e+36
7.9847701e+38
-9.0507906e+38
3.9829402e+36
-4.776967e+37
8.5417105e+36
6.2092388e+37
1.1423782e+37
8.3259238e+38
-1.0698187e+39
9.4919695e+36
8.1742225e+38
-9.218724e+38
-5.3460532e+37
1.2909616e+37
-7.8300508e+35
6.8433525e+37
1.2725447e+37
1.2754622e+37
5.2485226e+37
-5.9620966e+39
9.7695672e+36
-3.2858163e+38
-6.0252375e+39
-9.2153902e+38
-2.0154479e+36
2.5108733e+36
1.7157275e+37
-7.1577714e+36
9.4927701e+36
1.1419247e+37
-1.1740807e+39
1.1478895e+37
-1.7495879e+38
2.7496488e+38
-5.468144e+39
-2.3356154e+38
-2.4349139e+38
2.7342391e+38
9.2075974e+38
-1.1839386e+39
9.3413401e+36
1.5733285e+37
5.093187e+36
8.6400695e+38
-8.7132583e+38
1.0363516e+37
8.8067976e+38
8.6440991e+36
-8.8218818e+38
8.8533414e+36
-1.9314369e+36
1.1977473e+37
1.1718249e+37
6.8607281e+36
-3.3844442e+37
-4.6243176e+38
-5.8530967e+39
-2.1276857e+37
-2.5810785e+38
-5.9476094e+39
-1.3328626e+37
-1.4054174e+38
-2.3581324e+38
-5.3960892e+39
-2.3196806e+38
2.6398127e+38
2.7377749e+38
9.1678554e+38
5.9837481e+36
1.2990269e+36
-1.1764768e+39
1.0166948e+37
1.7406836e+36
-1.2362567e+36
1.6264822e+37
8.9276128e+38
-1.1394873e+39
9.6733054e+36
1.5325281e+37
-7.27121e+36
8.2307789e+38
-8.261357e+38
1.1606655e+37
8.4737657e+38
-9.6734076e+35
-8.5587815e+38
1.108011e+37
5.799935e+36
5.127321e+35
1.1507543e+37
1.1598458e+37
-2.043172e+35
6.3492188e+37
-6.9433475e+37
9.331479e+36
6.4019499e+37
1.7061313e+35
-6.7994844e+37
9.6088366e+36
-2.0326216e+35
6.0418624e+34
6.1416222e+36
6.8184139e+36
-2.0149077e+38
-5.6982987e+39
-2.4243471e+38
-2.2538715e+38
3.0244484e+38
2.814067e+38
-2.3998399e+38
-5.2277144e+39
-2.1391655e+38
2.9968342e+38
3.2051863e+38
-2.0572488e+38
-2.4828758e+37
-9.3830718e+38
1.7777261e+37
-9.1370652e+38
-4.5404343e+37
1.4948073e+37
2.5821133e+37
-3.9350364e+37
-1.1510413e+39
1.0954318e+37
-1.1823704e+39
9.1541528e+36
-1.9557947e+38
-2.8405306e+38
-5.1784782e+39
-2.2414044e+38
2.5093216e+38
2.7027454e+38
-2.1194095e+38
-1.8898997e+37
8.875586e+38
-1.12865e+39
1.7068754e+37
8.6522959e+38
-2.526046e+37
-1.0956913e+39
1.8197544e+37
1.6872036e+37
-2.6232544e+37
2.1091441e+37
1.8425009e+37
-1.7924112e+37
8.4349978e+38
-8.3881287e+38
1.2018762e+35
8.2545757e+38
-2.1339769e+37
-8.0924747e+38
-5.0896468e+35
9.719588e+36
-1.8699293e+37
1.1018184e+37
8.6410172e+36
-5.5767254e+37
-2.7597266e+38
-5.2776205e+39
-2.4168054e+38
2.4701745e+38
2.6091646e+38
-2.3080498e+38
8.6798947e+38
2.0070918e+37
-2.6426378e+37
-1.1092823e+39
9.9721515e+36
1.2199173e+37
-2.1444462e+37
1.4373655e+37
-8.9351397e+38
1.2822178e+37
-1.1297914e+39
8.8351967e+36
7.9807527e+38
1.8972638e+37
-2.3290835e+37
-7.9452871e+38
7.0827808e+36
1.8134169e+37
-2.5595196e+37
1.7172912e+36
-8.463087e+38
5.6784531e+36
-8.4010091e+38
4.7306476e+36
-5.9900674e+37
-9.171177e+35
-1.8253582e+35
5.4814855e+36
5.2860511e+35
-1.5189573e+36
-6.140955e+37
2.9519235e+36
6.9730672e+37
-6.6248014e+37
6.0848625e+36
8.9867846e+36
9.0047889e+38
2.142263e+37
-2.7786243e+37
5.4820165e+36
-1.1505639e+39
-2.6262789e+37
-1.890115e+38
2.5452915e+38
-5.3087504e+39
2.5438513e+38
-2.4641695e+38
-2.3862305e+38
-1.286479e+37
-8.8855266e+38
1.0690234e+37
-1.3666797e+37
1.2921506e+37
-1.1278375e+39
4.4592264e+36
8.1798017e+38
1.8354393e+37
-1.0242772e+37
-8.3105669e+38
8.6891949e+36
-1.7252905e+37
-8.3300442e+38
6.6295669e+36
-1.0745063e+37
5.5127485e+36
-8.3176956e+38
7.1347482e+36
5.9637297e+37
8.4972151e+35
-7.3464409e+35
-6.2038264e+37
5.1588174e+36
-2.4379844e+35
-6.482232e+37
7.7689611e+36
-3.5591079e+35
5.3502753e+36
-6.3432692e+37
6.1683028e+36
5.8883557e+37
-2.3194767e+35
1.1165689e+35
-5.7572336e+37
-7.8193113e+35
9.3760923e+35
-6.1754619e+37
-6.0361603e+37
-2.4418223e+37
-1.1185824e+38
-4.9096755e+39
-2.2182556e+38
-2.3173413e+38
2.3737824e+38
1.7614967e+38
-1.561178e+38
-1.4797255e+38
1.8347961e+38
2.5327048e+38
2.2342579e+37
8.217655e+38
-2.6055082e+37
-1.053676e+39
4.9573021e+36
8.3744476e+38
1.404414e+37
-7.4771686e+36
-1.0783363e+39
8.4583331e+36
4.9277283e+36
-1.5917901e+35
1.4279884e+37
-7.9463561e+38
1.2111515e+37
6.9147811e+37
-9.0373556e+38
1.1664501e+37
-3.6940024e+37
7.9599041e+38
-8.9741375e+38
-3.6725135e+37
9.1180685e+36
-9.0724626e+36
7.6378176e+37
8.9787538e+36
-1.1692531e+37
1.135707e+37
7.4311602e+38
1.1921714e+37
-1.0463611e+37
-7.4737939e+38
6.8160032e+36
1.3047705e+37
-1.0822875e+37
7.2638205e+36
-7.1951793e+38
6.8385064e+36
1.0294717e+37
-8.5410639e+38
7.222942e+36
8.4171857e+36
-7.2723278e+38
1.7722085e+37
6.1674092e+36
-9.671172e+38
1.0536424e+37
1.4095329e+37
-9.9850616e+36
7.3171925e+38
-7.3053942e+38
9.5766402e+36
9.0270165e+36
7.6491548e+38
-4.2169839e+36
-7.7101509e+38
7.8973019e+36
5.8369278e+36
-5.3308866e+36
8.2716078e+36
8.3502293e+36
7.3317289e+36
-6.027461e+37
-3.4233085e+34
-8.9453897e+35
7.5190185e+36
-2.6638401e+34
-5.1147497e+35
-5.8199463e+37
6.8241239e+36
6.8264357e+38
-6.8567538e+38
7.6026896e+36
5.3043436e+36
5.5616931e+37
-5.6805549e+37
4.138162e+35
6.1672221e+36
6.8309591e+38
-6.8638878e+38
6.3459187e+36
4.7624669e+36
7.4857035e+35
1.9196182e+36
-1.4092353e+35
3.925419e+36
-3.7431898e+35
1.9653824e+36
-5.6516178e+37
-2.2407906e+35
-8.1045176e+35
8.2786726e+36
5.4952916e+35
-7.9668749e+35
-5.5598984e+37
6.934868e+36
5.6113167e+37
-5.6894985e+37
1.2648191e+35
7.1139408e+36
-3.2171759e+35
6.4926348e+36
5.4333088e+38
-4.0647384e+36
-1.8988335e+36
-5.4409603e+38
5.2250997e+37
-2.3300609e+35
5.2719599e+35
-5.2834688e+37
1.3623159e+35
5.1836446e+37
-4.0090364e+35
-5.2294406e+37
5.1560017e+37
-2.925676e+35
1.6425338e+36
-5.137337e+37
5.6144926e+37
-8.4044977e+35
-5.4705249e+37
1.6768268e+35
-1.6752451e+35
-5.5661284e+37
-6.9892048e+35
-6.4429561e+34
-8.5502989e+35
-6.3991409e+35
-5.3317353e+37
5.2131274e+37
-4.2717917e+35
-5.2172738e+37
-4.9080523e+37
-5.2810047e+37
-5.3466334e+36
5.5646966e+34
-4.5760504e+37
-4.8292496e+37
-2.2083189e+35
4.2383052e+34
-4.7878778e+36
-5.3064779e+35
-4.7007278e+35
-4.1682316e+36
-5.2546134e+37
-6.1323934e+36
7.2318552e+34
-4.5726671e+37
-6.1838581e+35
-2.6905428e+35
-4.1130695e+36
-5.8910842e+35
-5.5894025e+35
-3.4070623e+36
-7.0389119e+38
-5.4483905e+39
-2.4094508e+38
-2.5649519e+38
2.2910804e+38
2.7229495e+38
-9.1439534e+38
2.6175068e+36
-2.1802294e+37
1.9029788e+37
1.659337e+37
-2.9660511e+37
8.5315866e+36
-1.1605307e+39
-3.0134714e+38
2.5550814e+38
-2.5472867e+38
-5.4429379e+39
-2.3941161e+38
2.5961379e+38
8.8794719e+38
-1.1386352e+39
3.0739088e+36
8.2948049e+36
-7.8917789e+38
1.0009994e+37
-1.0630228e+37
1.2766712e+37
2.1198726e+37
8.4228745e+38
-2.3275225e+37
4.0814318e+36
-1.0828429e+39
-1.6330544e+38
2.4732477e+38
-5.0173595e+39
-2.3367121e+38
1.7595901e+38
-1.5405436e+38
1.8401928e+38
-1.4810892e+38
-2.2326139e+38
2.5359492e+38
7.9341595e+38
-8.9332479e+38
4.8695152e+36
-4.1269159e+37
-7.3985499e+36
5.5037508e+36
6.8218571e+37
-8.7524599e+36
1.1221777e+37
-8.0275472e+38
-3.1444032e+36
6.0660948e+37
1.4148083e+37
-1.3412742e+37
-9.0108007e+38
-4.804377e+37
1.2335218e+37
8.3251375e+38
-1.067947e+39
1.0139435e+37
1.599089e+37
1.1534963e+37
-1.2586813e+37
-7.9383525e+38
9.8246375e+36
7.3493596e+38
-7.3029918e+38
3.9415997e+36
6.9398795e+36
8.5744757e+38
-9.6329225e+38
4.8419998e+35
4.1307063e+36
6.3774955e+36
7.3370288e+36
6.3087437e+36
4.5861802e+36
5.9906488e+36
7.8719587e+38
-7.8263168e+38
7.581584e+36
7.6484245e+38
-7.5115868e+38
-2.9851157e+36
8.2019592e+36
-8.47787e+36
6.6551376e+36
8.1417745e+36
9.5281094e+36
1.1820605e+37
-5.1816785e+38
-5.8181745e+39
2.0347059e+36
-2.8118904e+38
-5.9423173e+39
-8.7435795e+38
-6.6918401e+36
7.2839442e+36
8.7352523e+36
-7.9284743e+36
5.7661553e+36
8.88909e+36
-8.6966518e+38
-9.1273471e+38
-3.5639797e+36
-8.0331213e+35
1.7986318e+37
3.2126682e+35
-1.4475398e+38
-5.4014268e+39
2.671728e+38
-2.3816417e+38
2.7572706e+38
-2.4034707e+38
-5.6755617e+36
5.1856684e+36
-1.157798e+39
1.1991734e+37
9.3182476e+38
-1.1906267e+39
1.0934174e+37
1.6509942e+37
8.7310471e+38
-8.8218424e+38
9.5252682e+36
1.1333148e+37
5.0898105e+35
6.8686292e+37
-6.9004428e+37
1.0344299e+37
7.0169191e+37
8.0303999e+35
-6.7865662e+37
6.2567024e+36
-3.6791306e+35
9.6137388e+35
7.4516587e+36
9.5610419e+36
-9.0796557e+37
-4.5678659e+38
-5.6270739e+39
-3.2072696e+37
-3.3452464e+38
-5.8003721e+39
-1.8007102e+37
-2.1566403e+38
-5.8807397e+39
2.325898e+36
9.2076213e+38
-4.7528448e+36
1.3554098e+37
-1.1677023e+39
-1.4490701e+37
-1.239873e+38
2.7180829e+38
-5.3506056e+39
-2.3475894e+38
-2.3233743e+38
2.6386592e+38
8.9063741e+38
-1.1376531e+39
9.8965549e+36
-1.2952369e+35
1.5101835e+37
-7.0318974e+35
1.8636573e+37
8.5617299e+38
6.411565e+36
1.0660974e+36
-8.6283151e+38
9.3480226e+36
7.4964188e+36
-1.390805e+36
1.0454166e+37
8.1925434e+38
-8.1660552e+38
9.2191876e+36
1.0609493e+37
-6.4972806e+35
6.793521e+37
-6.4739408e+37
8.5497134e+36
6.7944188e+37
-8.7527945e+34
-6.6684639e+37
9.2590855e+36
5.9831767e+35
5.7336842e+34
1.0802009e+37
9.8046265e+36
-1.9370235e+35
5.8560929e+37
-5.7616456e+37
6.0748465e+37
1.1999301e+35
-5.9359333e+37
-3.6902124e+34
-1.034029e+34
-2.0663018e+38
-5.7243783e+39
-2.4479723e+38
2.8205249e+38
3.1643443e+38
-2.2100358e+38
-2.2511512e+38
-5.1980675e+39
-1.9784352e+38
-2.1751191e+38
2.9860408e+38
3.2542392e+38
3.015274e+37
9.180329e+38
-4.6158075e+37
-1.1558793e+39
1.1417279e+37
9.2085205e+38
-1.1713225e+39
1.5885793e+37
-3.314049e+37
1.891202e+37
-5.0347389e+37
1.7710663e+37
-2.7638324e+38
-2.7745663e+38
-5.0613839e+39
-2.1964177e+38
2.7430856e+38
2.5221829e+38
-2.0342853e+38
8.6659379e+38
2.3059991e+37
-3.2163215e+37
-1.098007e+39
2.6600068e+37
2.2675826e+37
-3.4564479e+37
2.7124666e+37
-8.9092707e+38
2.5518719e+37
-1.1256449e+39
2.6792529e+37
-1.8196237e+37
-8.6895774e+38
-2.2443213e+36
-8.2977937e+38
-2.7832905e+37
2.8793126e+36
2.2232151e+37
-2.6961065e+37
-8.189756e+38
4.8796652e+36
-8.5826722e+38
-6.4387005e+35
-8.1062374e+37
-2.8916222e+38
-5.141928e+39
-2.3715181e+38
2.4740387e+38
2.6551427e+38
-2.1806424e+38
8.6086999e+38
2.4382976e+37
-2.7022578e+37
-1.0968761e+39
1.4505753e+37
1.9875754e+37
-2.4881272e+37
2.1116576e+37
-8.8106831e+38
2.112442e+37
-1.1104074e+39
1.5355051e+37
-2.26086e+37
8.2972162e+38
-8.2310247e+38
9.7676891e+36
7.9116566e+38
-1.8881942e+37
-7.8578186e+38
9.0873691e+36
2.0542239e+37
-1.8663005e+37
1.1305962e+36
4.2808798e+36
-1.5286337e+36
5.9094652e+37
-6.2876141e+37
3.9121092e+36
5.5686493e+37
-2.0310374e+36
-5.9907221e+37
4.214872e+36
2.5920464e+35
-1.6854603e+36
8.0073351e+36
5.7525727e+36
-3.1666757e+37
-2.3397289e+38
-5.2201561e+39
-2.4538781e+38
-2.3204579e+38
2.5485883e+38
2.4174113e+38
8.7010487e+38
2.4142912e+37
-3.2594404e+37
-1.1094473e+39
6.1139183e+36
1.9666374e+37
-2.7254187e+37
1.5428176e+37
-8.7676149e+38
1.388626e+37
-1.1162943e+39
5.0847276e+36
7.914135e+38
2.270724e+37
-1.9432381e+37
-7.9448112e+38
9.7652835e+36
1.9992093e+37
-1.973333e+37
1.0999885e+37
-8.258431e+38
7.8115045e+36
-8.1346308e+38
8.9197558e+36
6.4932562e+37
1.4531475e+36
-2.0605575e+36
-6.5454127e+37
8.2122047e+36
1.3217851e+36
-2.3174102e+36
6.2364003e+36
-6.4739323e+37
5.1358709e+36
-6.5249021e+37
5.9590275e+36
-5.8135309e+37
-8.2153612e+35
-4.1767057e+35
6.3163466e+35
-1.5439224e+36
-5.8750059e+37
6.0396702e+37
-5.9880899e+37
8.363998e+38
2.1180473e+37
-2.1241992e+37
7.8850535e+36
-8.3874111e+38
1.2135572e+37
-8.9604108e+38
-2.5811441e+37
1.3682527e+37
-2.0514599e+37
-1.6292489e+38
-5.2567959e+39
2.4769009e+38
-2.4585423e+38
-2.3843633e+38
2.5622957e+38
-8.822791e+38
9.2698341e+36
1.7765934e+37
-3.480787e+37
-1.1322316e+39
6.8157939e+36
-1.1323569e+39
3.1656886e+36
-2.1870944e+37
-8.1902304e+38
8.9918912e+36
-1.4069105e+37
1.0462861e+37
-8.1198824e+38
8.141376e+36
6.5288491e+37
1.3575864e+36
-7.081809e+35
-6.6146046e+37
8.8976769e+36
-1.199315e+36
-6.3866714e+37
7.4526704e+36
-6.9214026e+35
8.2561033e+36
-6.4434588e+37
8.2638158e+36
5.7589871e+37
1.0045332e+36
-8.1770869e+35
-5.8261592e+37
-4.7966783e+35
-5.8974169e+37
-6.138042e+35
-5.8898479e+37
-1.930958e+37
-9.4335981e+37
-4.8664955e+39
-2.3017216e+38
-1.5781856e+38
1.7272782e+38
2.3475405e+38
1.7780095e+38
2.5007854e+38
-2.2238926e+38
-1.5451572e+38
1.0365457e+37
8.4295518e+38
-1.3907179e+37
-1.0725069e+39
1.1268096e+37
8.2168241e+38
1.6836574e+37
-2.4351417e+37
-1.050562e+39
4.6606158e+36
1.0695813e+37
-1.74413e+37
1.2130187e+37
-7.9342395e+38
1.0536146e+37
7.2319876e+37
-8.9867008e+38
6.5522425e+36
-4.0587033e+37
8.0156086e+38
-9.0004148e+38
-5.1428241e+37
1.2301896e+37
-3.4615317e+36
6.9479857e+37
1.5286797e+37
-2.3935337e+36
1.682152e+37
1.9684683e+37
7.4716221e+38
-1.8699468e+37
-7.5120438e+38
8.0145376e+36
7.7520742e+38
1.261467e+37
-3.8429084e+36
-7.8492344e+38
9.4029021e+36
1.3256457e+37
-4.2723762e+36
9.4883012e+36
-7.3261902e+38
1.7303824e+37
1.0143914e+37
-8.4945965e+38
1.5405949e+37
1.2462708e+37
-7.3740658e+38
1.9749519e+37
9.3173351e+36
-9.5267333e+38
1.55313e+37
1.4017468e+37
7.2884943e+38
-7.2539325e+38
1.7800787e+37
7.546143e+36
-1.7169024e+37
2.1272095e+37
6.4925703e+36
-1.4479377e+37
8.4503579e+36
5.6640358e+37
8.8243967e+35
-6.4086154e+35
-5.8156297e+37
8.0907905e+36
8.4845771e+35
-5.6634925e+35
8.0233864e+36
-5.7007533e+37
6.8653765e+36
9.3377906e+35
-6.9170589e+38
9.3481149e+36
1.3486966e+37
-6.915981e+38
1.3188668e+37
9.5016347e+36
-6.9165295e+38
1.0701174e+37
1.7504844e+37
-5.7652116e+37
1.5316453e+36
6.1632829e+36
-6.9446319e+38
1.5354023e+37
1.118327e+37
-8.3238525e+35
5.809806e+37
-5.7965689e+37
9.1098465e+35
8.816619e+36
5.8331381e+37
-3.0197064e+35
-5.9770803e+37
8.8068515e+36
3.9904713e+35
-3.2988112e+35
8.3347605e+36
8.153344e+35
8.2082427e+36
-5.3671782e+37
-1.6169327e+35
-7.2815033e+35
-5.1371072e+34
-4.2015615e+35
-5.3469197e+37
5.5073734e+38
-5.5787649e+38
9.9502548e+36
1.1138144e+37
5.6210535e+37
-5.8793969e+37
9.1218469e+35
7.3902072e+36
5.2387446e+37
-5.2131101e+37
2.9888006e+35
5.5202753e+37
-5.9079354e+37
8.5987875e+35
7.9067967e+36
2.7848273e+36
4.2309109e+36
1.2623763e+35
5.0291003e+36
-2.1408048e+35
8.2924936e+34
5.39082e+36
-5.1914056e+37
-2.2369976e+35
-8.6959342e+35
4.7839875e+35
-7.6183219e+35
-5.1901378e+37
5.1223018e+37
-5.0173074e+37
-3.4191681e+34
-3.6580466e+35
-5.1736923e+37
-5.1539713e+37
-8.8983932e+36
-5.8933881e+35
-4.3268909e+37
-5.0068654e+37
-7.3944337e+35
-5.2088305e+35
-4.6159646e+36
-7.960145e+35
-7.5005292e+35
-3.7791363e+36
-5.1299161e+37
-9.960401e+36
-5.3572767e+35
-4.2625974e+37
-7.6827373e+35
-7.6178979e+35
-3.7647778e+36
-6.1871753e+35
-6.2122786e+35
-3.1309935e+36
-4.4962843e+38
3.080465e+38
-1.5191541e+38
-4.9642011e+39
-1.3151594e+38
3.5641747e+38
-4.5962806e+38
-5.2876594e+39
2.4105388e+38
-2.5223767e+38
-2.3357252e+38
2.5412757e+38
-2.9692922e+37
8.8856727e+38
-1.1325438e+39
3.0643366e+36
9.125131e+38
-7.09886e+37
-1.1379462e+39
1.0233915e+37
3.4088447e+37
-3.4282787e+37
1.7179441e+37
7.9476163e+36
-8.7811566e+38
1.2583694e+37
-2.2541645e+37
1.1963175e+37
1.7758048e+37
-2.5732005e+37
-8.6945235e+38
7.8425261e+36
-9.0379411e+38
1.1930072e+37
-2.5664682e+37
1.2506523e+37
2.6477496e+37
-3.7075446e+37
4.4434125e+36
-1.152368e+39
-2.6077482e+38
2.505327e+38
-2.5538429e+38
-5.3575847e+39
2.5500423e+38
-2.3600123e+38
8.8526262e+38
-1.1244604e+39
2.9886476e+36
9.4188569e+36
8.223183e+38
-8.2604832e+38
1.197534e+37
1.27926e+37
-6.3350649e+37
5.5517982e+35
-9.5142542e+35
7.1094281e+36
1.8459999e+37
7.9224099e+38
-1.7440233e+37
5.5497677e+36
-7.9472879e+38
-8.4146884e+38
9.3067939e+36
-1.7012773e+37
1.3656871e+37
-1.3085909e+38
-4.9463602e+39
2.3863596e+38
-2.361191e+38
-1.5980314e+38
1.7082898e+38
-2.2767859e+38
-1.5294484e+38
1.7740334e+38
2.4985868e+38
1.7203139e+37
-3.0810218e+37
-1.0684115e+39
6.8786764e+36
-7.8547962e+38
7.7479258e+36
6.9672896e+37
-8.8867399e+38
7.074293e+36
-4.0730975e+37
-7.9089816e+38
-3.7963695e+36
6.5826423e+37
1.1807512e+37
-1.1772174e+37
-8.9337378e+38
-4.3775319e+37
9.9143514e+36
8.3460847e+38
-1.0731267e+39
8.6704794e+36
1.5656744e+37
7.2128697e+38
-7.1443241e+38
1.1322736e+37
5.1525063e+36
8.4153738e+38
-9.4968936e+38
8.0114674e+36
1.0827931e+37
-1.7387625e+37
8.4777349e+36
5.4016608e+36
1.7060258e+36
5.418795e+36
-1.5544511e+37
7.7845062e+36
-7.3577892e+38
-7.6275475e+36
-1.148959e+36
7.5451081e+36
-8.341381e+36
-7.271327e+38
5.2319607e+36
6.7986795e+36
7.7512004e+38
-7.7566464e+38
8.1090207e+36
8.1357292e+36
5.7173537e+35
-7.5704309e+35
-5.9828544e+37
6.4885495e+36
6.663245e+38
-6.5870165e+38
-2.1915814e+36
-1.0051193e+36
5.3261458e+37
-5.3292387e+37
7.6056458e+34
7.4672336e+36
6.6475103e+38
-6.5885865e+38
-4.3826117e+36
-3.6384367e+35
-3.6211828e+36
-4.0560082e+36
1.921278e+34
3.592622e+36
-4.309879e+36
-2.8578005e+36
6.2227488e+35
6.0448665e+37
-5.8349161e+37
5.6637114e+36
6.0216406e+37
-5.7423024e+37
-3.4886772e+35
6.3805394e+36
-8.4576139e+35
4.5921223e+35
5.0374878e+36
5.1218139e+36
5.7763435e+37
-5.0044006e+38
-5.5745122e+39
7.7949145e+36
-3.5793194e+38
-5.7812982e+39
-2.8141333e+36
-2.251952e+38
-5.8770686e+39
-6.7069008e+37
-5.6737725e+35
6.2923525e+35
7.8774924e+36
-7.0295829e+35
5.0576694e+35
8.8909714e+36
-6.6872985e+37
-8.551855e+38
-8.7655624e+36
2.1920401e+36
1.0080376e+37
-9.1721756e+36
-1.2448138e+38
-5.3529596e+39
-2.3923078e+38
2.6591038e+38
2.7777e+38
-2.3375391e+38
-9.0542963e+38
1.8530561e+36
-2.4737414e+36
1.5425266e+37
2.0069873e+36
4.8308357e+36
-1.1587925e+39
8.3610249e+36
-9.3214621e+38
1.8396464e+37
-1.1873886e+39
1.2149546e+37
-5.042894e+36
-5.1724015e+35
-8.4731186e+38
9.6784563e+36
8.8591692e+38
-8.8846501e+38
9.5056169e+36
1.0086318e+37
6.7739473e+37
-6.7696201e+37
8.6921181e+36
9.5587786e+36
4.6739487e+35
6.0943589e+37
-5.9815629e+37
6.0923186e+37
7.5313338e+35
-6.148795e+37
-3.1413635e+35
9.1214509e+35
-1.1976295e+38
-3.9999265e+38
-5.4663694e+39
-4.7610121e+37
-3.5995151e+38
-5.6350984e+39
-2.1011035e+37
-2.7179851e+38
-5.7548926e+39
-1.5069555e+37
-1.8334127e+38
-5.8268301e+39
8.4710486e+34
8.5717455e+38
-5.2896443e+36
-8.4854859e+38
1.0133331e+37
-9.098548e+38
-1.6086967e+36
-3.9957423e+36
1.9565476e+37
-8.4888607e+36
-1.0569414e+38
-5.3105357e+39
-2.3822657e+38
-2.3630813e+38
2.6322735e+38
2.6611219e+38
4.6476278e+36
-2.6520593e+36
-1.158818e+39
1.2208837e+37
8.9301437e+38
-1.1438401e+39
9.2288853e+36
1.5225001e+37
8.118129e+38
-8.1542645e+38
9.7520677e+36
-3.9967219e+36
1.0033649e+37
-1.400544e+36
1.0383524e+37
6.5812413e+37
4.92376e+35
1.0598726e+35
-6.6170111e+37
9.107807e+36
5.7241088e+35
-8.0915781e+34
9.0908278e+36
6.2628497e+37
-6.230849e+37
9.0899279e+36
8.7413909e+36
-5.6124146e+35
5.6765429e+37
-5.6807407e+37
5.8230213e+37
-6.7054283e+34
-5.8558555e+37
4.6368788e+35
6.5191984e+34
-2.0180643e+38
-5.729932e+39
-2.389207e+38
-2.1124593e+38
3.1750496e+38
2.8648328e+38
-2.2031912e+38
-5.1916699e+39
-2.2335033e+38
-1.977102e+38
3.2534422e+38
2.931494e+38
9.1546937e+38
3.7471157e+37
-5.503437e+37
-1.1534194e+39
1.0716282e+37
4.5717824e+37
-6.46342e+37
2.0710706e+37
-9.2676917e+38
2.5904e+37
-1.1707251e+39
1.4265483e+37
-3.0762243e+38
-2.6427399e+38
-4.994645e+39
-2.230134e+38
2.485611e+38
2.6943538e+38
-2.0396497e+38
-3.1087596e+37
8.8249614e+38
-1.1111068e+39
2.9691715e+37
8.6856651e+38
-4.0059074e+37
-1.1025344e+39
2.5427591e+37
3.0165948e+37
-4.4232409e+37
2.535789e+37
3.2199107e+37
2.652076e+37
8.3500267e+38
-3.4465639e+37
-8.1687468e+38
1.2343685e+36
8.5480075e+38
-8.4658728e+38
7.2321361e+36
-2.1715693e+37
1.7725472e+36
-2.8448582e+37
-1.6206141e+36
-1.0836924e+38
-2.8692599e+38
-5.0308786e+39
-2.2959873e+38
2.4628466e+38
2.6722539e+38
-2.0828117e+38
8.6242832e+38
2.7465632e+37
-3.6438422e+37
-1.0879747e+39
1.4877541e+37
-2.5492683e+37
-8.7784904e+38
2.7124197e+37
-3.3966641e+37
2.5113697e+37
-1.0992514e+39
1.8416897e+37
8.002837e+38
2.4456987e+37
-2.4698247e+37
-7.8744882e+38
1.4006643e+37
2.2808005e+37
-2.5070727e+37
1.0695602e+37
-8.4081816e+38
1.2214751e+37
-8.2471433e+38
1.6263807e+37
-1.3034764e+36
-6.7291587e+37
1.5830424e+36
-7.18601e+37
-1.9070948e+36
2.1901242e+36
1.764998e+36
-1.8850813e+36
-6.9048665e+37
2.1887736e+36
-7.3262053e+37
5.0610419e+36
-4.1119825e+37
-2.6261464e+38
-5.1011353e+39
-2.2274522e+38
-2.4272773e+38
2.5406595e+38
2.4037796e+38
8.6315211e+38
2.8968972e+37
-3.4933771e+37
-1.1018916e+39
7.5529e+36
2.6878638e+37
-3.1259168e+37
1.8060629e+37
-8.635845e+38
1.8316063e+37
-1.0934886e+39
8.2146115e+36
7.833519e+38
2.8832846e+37
-2.226569e+37
-7.8719492e+38
1.178201e+37
2.5526808e+37
-1.987233e+37
1.303234e+37
-8.0774751e+38
1.1563119e+37
-7.929527e+38
9.9608838e+36
-1.9083228e+36
6.6644901e+37
-6.5906686e+37
8.8778292e+36
6.5548345e+37
-1.2652684e+36
-6.5401582e+37
8.2981468e+36
2.1068632e+36
-1.5576224e+36
6.2231138e+36
7.8395987e+36
-1.4366451e+36
5.8576265e+37
-5.9959251e+37
5.4867664e+37
-1.6291711e+36
-5.6416238e+37
4.4220783e+35
-1.6314511e+36
-2.2051559e+37