/*--------------------------------*- C++ -*----------------------------------*\
  =========                 |
  \\      /  F ield         | OpenFOAM: The Open Source CFD Toolbox
   \\    /   O peration     | Website:  https://openfoam.org
    \\  /    A nd           | Version:  7
     \\/     M anipulation  |
\*---------------------------------------------------------------------------*/
FoamFile
{
    version     2.0;
    format      ascii;
    class       volScalarField;
    location    "7000";
    object      pMean;
}
// * * * * * * * * * * * * * * * * * * * * * * * * * * * * * * * * * * * * * //

dimensions      [0 2 -2 0 0 0 0];

internalField   nonuniform List<scalar> 
34387
(
-2.7315471e+81
-2.656652e+81
-2.6768515e+81
-2.6513083e+81
-2.7356154e+81
-2.6570076e+81
-2.7154478e+81
-2.7451706e+81
-2.7440305e+81
-2.7157784e+81
-2.5893572e+81
-2.6418435e+81
-2.6445604e+81
-2.6691156e+81
-2.6707441e+81
-2.668767e+81
-2.6453225e+81
-2.6405122e+81
-2.6685529e+81
-2.6768231e+81
-2.6768323e+81
-2.6379225e+81
-2.6509824e+81
-2.6449728e+81
-2.5863056e+81
-2.6410134e+81
-2.6414069e+81
-2.6673692e+81
-2.6669452e+81
-2.7349246e+81
-2.6625744e+81
-2.7483289e+81
-2.7146553e+81
-2.714806e+81
-2.7441922e+81
-2.5916259e+81
-2.6428892e+81
-2.667615e+81
-2.6673296e+81
-2.6436587e+81
-2.7131775e+81
-2.7512539e+81
-2.7493182e+81
-2.7129143e+81
-2.5215228e+81
-2.6015371e+81
-2.5763055e+81
-2.5719493e+81
-2.5995911e+81
-2.6012058e+81
-2.5771149e+81
-2.576233e+81
-2.6001454e+81
-2.6406463e+81
-2.6385591e+81
-2.6423733e+81
-2.6729239e+81
-2.6754594e+81
-2.6739705e+81
-2.6730752e+81
-2.6425338e+81
-2.638323e+81
-2.6725031e+81
-2.6768132e+81
-2.6767934e+81
-2.6378958e+81
-2.6767514e+81
-2.6378873e+81
-2.6031006e+81
-2.6530416e+81
-2.6444822e+81
-2.585429e+81
-2.6401347e+81
-2.6397584e+81
-2.6658115e+81
-2.666972e+81
-2.6546149e+81
-2.5880179e+81
-2.5205766e+81
-2.5743618e+81
-2.5729812e+81
-2.5966593e+81
-2.5974453e+81
-2.6380207e+81
-2.6390221e+81
-2.6727734e+81
-2.671845e+81
-2.7229008e+81
-2.657458e+81
-2.7075883e+81
-2.705494e+81
-2.7463369e+81
-2.7443446e+81
-2.5972367e+81
-2.6410998e+81
-2.6656514e+81
-2.6673802e+81
-2.6428117e+81
-2.7558985e+81
-2.7132048e+81
-2.7123486e+81
-2.7498165e+81
-2.5239333e+81
-2.5758854e+81
-2.5995153e+81
-2.5980518e+81
-2.5772438e+81
-2.6396303e+81
-2.6727454e+81
-2.6727876e+81
-2.6407044e+81
-2.7129388e+81
-2.7512484e+81
-2.7493235e+81
-2.7125819e+81
-2.453329e+81
-2.5094796e+81
-2.5329268e+81
-2.5349778e+81
-2.5061742e+81
-2.5074796e+81
-2.5071245e+81
-2.5317288e+81
-2.5321187e+81
-2.6068118e+81
-2.5729284e+81
-2.5692485e+81
-2.5700078e+81
-2.6029397e+81
-2.6024657e+81
-2.6062993e+81
-2.5739535e+81
-2.574965e+81
-2.6040201e+81
-2.6386244e+81
-2.6404056e+81
-2.6382188e+81
-2.6419276e+81
-2.6727986e+81
-2.6760663e+81
-2.6754311e+81
-2.6758459e+81
-2.6731643e+81
-2.6420876e+81
-2.6379588e+81
-2.672544e+81
-2.6768226e+81
-2.6758857e+81
-2.6380182e+81
-2.6767513e+81
-2.6378534e+81
-2.6030804e+81
-2.6755304e+81
-2.6377592e+81
-2.6030881e+81
-2.5704386e+81
-2.6495068e+81
-2.6683208e+81
-2.5852797e+81
-2.6407429e+81
-2.6385021e+81
-2.6680366e+81
-2.6406741e+81
-2.6385926e+81
-2.665959e+81
-2.6683249e+81
-2.6607737e+81
-2.588407e+81
-2.5959879e+81
-2.5719957e+81
-2.5205589e+81
-2.5702324e+81
-2.5948373e+81
-2.6374228e+81
-2.6370905e+81
-2.6703468e+81
-2.672299e+81
-2.5940337e+81
-2.5215466e+81
-2.4535283e+81
-2.5040821e+81
-2.5284933e+81
-2.5072082e+81
-2.5310725e+81
-2.5712411e+81
-2.5697788e+81
-2.6019044e+81
-2.6023699e+81
-2.6376573e+81
-2.6387241e+81
-2.6727015e+81
-2.6718646e+81
-2.7084656e+81
-2.6637792e+81
-2.7427997e+81
-2.7410399e+81
-2.6927812e+81
-2.6987282e+81
-2.6007255e+81
-2.6347461e+81
-2.634151e+81
-2.657311e+81
-2.6584599e+81
-2.7075005e+81
-2.7063889e+81
-2.7550889e+81
-2.7528915e+81
-2.5254837e+81
-2.5795057e+81
-2.5997326e+81
-2.6014514e+81
-2.5812228e+81
-2.6381709e+81
-2.6702591e+81
-2.6716336e+81
-2.6402378e+81
-2.7562662e+81
-2.71314e+81
-2.7119354e+81
-2.7499044e+81
-2.5089542e+81
-2.4557146e+81
-2.5341118e+81
-2.5311755e+81
-2.5112678e+81
-2.5713698e+81
-2.6043473e+81
-2.6023827e+81
-2.5742507e+81
-2.6394235e+81
-2.6727818e+81
-2.6729585e+81
-2.6402855e+81
-2.7129193e+81
-2.7512366e+81
-2.7493235e+81
-2.7125604e+81
-2.3863188e+81
-2.4414788e+81
-2.4386814e+81
-2.4637457e+81
-2.4662014e+81
-2.4385661e+81
-2.4412905e+81
-2.4647047e+81
-2.4650166e+81
-2.5061205e+81
-2.5375014e+81
-2.5386574e+81
-2.5360754e+81
-2.503745e+81
-2.5032867e+81
-2.505473e+81
-2.5030292e+81
-2.5348981e+81
-2.5351215e+81
-2.6071146e+81
-2.5729147e+81
-2.5694814e+81
-2.5690015e+81
-2.5704821e+81
-2.6025898e+81
-2.6030009e+81
-2.6025167e+81
-2.6064998e+81
-2.5739273e+81
-2.5747251e+81
-2.6040608e+81
-2.6383286e+81
-2.6383394e+81
-2.6403688e+81
-2.637822e+81
-2.641912e+81
-2.6728056e+81
-2.67701e+81
-2.6758985e+81
-2.675421e+81
-2.6755455e+81
-2.6731848e+81
-2.6420615e+81
-2.6379176e+81
-2.6725442e+81
-2.6380252e+81
-2.6383149e+81
-2.6032877e+81
-2.6377744e+81
-2.6030672e+81
-2.5704432e+81
-2.6378003e+81
-2.6032691e+81
-2.5704525e+81
-2.5368167e+81
-2.6613724e+81
-2.6631682e+81
-2.6411308e+81
-2.589584e+81
-2.6395437e+81
-2.664425e+81
-2.6736617e+81
-2.5714641e+81
-2.5203376e+81
-2.5726777e+81
-2.5988271e+81
-2.5958315e+81
-2.5995669e+81
-2.5733699e+81
-2.5716495e+81
-2.5965329e+81
-2.637293e+81
-2.6370178e+81
-2.6349468e+81
-2.672399e+81
-2.6705767e+81
-2.6380175e+81
-2.6367582e+81
-2.6698929e+81
-2.6733802e+81
-2.5968283e+81
-2.5209018e+81
-2.5996905e+81
-2.5686809e+81
-2.5307978e+81
-2.4539686e+81
-2.5094911e+81
-2.5049288e+81
-2.5270261e+81
-2.5664032e+81
-2.5993792e+81
-2.6373557e+81
-2.6368396e+81
-2.6704816e+81
-2.672472e+81
-2.5600151e+81
-2.5191607e+81
-2.4540374e+81
-2.439707e+81
-2.386188e+81
-2.4399094e+81
-2.4643505e+81
-2.4618549e+81
-2.5004314e+81
-2.5325775e+81
-2.5037872e+81
-2.5352786e+81
-2.5712001e+81
-2.5696945e+81
-2.6020302e+81
-2.6024952e+81
-2.6376387e+81
-2.638699e+81
-2.6726762e+81
-2.6718371e+81
-2.6984407e+81
-2.6608578e+81
-2.6811945e+81
-2.6847291e+81
-2.7343708e+81
-2.7321567e+81
-2.6061846e+81
-2.6289529e+81
-2.6478488e+81
-2.6528745e+81
-2.6313911e+81
-2.7536976e+81
-2.7540819e+81
-2.6973549e+81
-2.7021499e+81
-2.5235658e+81
-2.5793754e+81
-2.5977343e+81
-2.5995677e+81
-2.5811686e+81
-2.6343738e+81
-2.6332855e+81
-2.6615331e+81
-2.6626207e+81
-2.7075117e+81
-2.706935e+81
-2.7555539e+81
-2.7532263e+81
-2.4548127e+81
-2.5116989e+81
-2.5345283e+81
-2.5361896e+81
-2.5117683e+81
-2.5751941e+81
-2.6036886e+81
-2.6063093e+81
-2.5786574e+81
-2.637824e+81
-2.6703094e+81
-2.6716789e+81
-2.6399061e+81
-2.7562795e+81
-2.7131455e+81
-2.7119307e+81
-2.7499334e+81
-2.5052346e+81
-2.4663924e+81
-2.3870709e+81
-2.4656584e+81
-2.4441945e+81
-2.440335e+81
-2.5392446e+81
-2.5348645e+81
-2.5087528e+81
-2.5710629e+81
-2.604512e+81
-2.6025374e+81
-2.5740584e+81
-2.6394144e+81
-2.6727954e+81
-2.6729601e+81
-2.6402642e+81
-2.3189358e+81
-2.3745624e+81
-2.373809e+81
-2.398305e+81
-2.3996514e+81
-2.3736583e+81
-2.3746732e+81
-2.3971518e+81
-2.396572e+81
-2.437571e+81
-2.4351187e+81
-2.4671065e+81
-2.4681595e+81
-2.4690817e+81
-2.4355134e+81
-2.4391541e+81
-2.4380997e+81
-2.4673376e+81
-2.4690877e+81
-2.5058357e+81
-2.5376555e+81
-2.5389025e+81
-2.5370506e+81
-2.5357599e+81
-2.5032777e+81
-2.5036977e+81
-2.5025453e+81
-2.5050996e+81
-2.5029836e+81
-2.5350549e+81
-2.5351138e+81
-2.6071124e+81
-2.5728953e+81
-2.5707363e+81
-2.5695445e+81
-2.5689711e+81
-2.5704555e+81
-2.6032245e+81
-2.6026961e+81
-2.6029818e+81
-2.6025571e+81
-2.6065023e+81
-2.573921e+81
-2.5746947e+81
-2.6040538e+81
-2.6032849e+81
-2.6026951e+81
-2.5707587e+81
-2.6032645e+81
-2.5704553e+81
-2.5368172e+81
-2.6025569e+81
-2.5707389e+81
-2.5368167e+81
-2.5033709e+81
-2.6100154e+81
-2.597795e+81
-2.6415535e+81
-2.6467986e+81
-2.6603843e+81
-2.6630449e+81
-2.6691035e+81
-2.6381687e+81
-2.5977084e+81
-2.5755765e+81
-2.5214388e+81
-2.5750576e+81
-2.5974627e+81
-2.6366088e+81
-2.6697431e+81
-2.6741297e+81
-2.5672755e+81
-2.5300683e+81
-2.4545991e+81
-2.5103941e+81
-2.5323222e+81
-2.5086783e+81
-2.5328788e+81
-2.5087786e+81
-2.507731e+81
-2.5292969e+81
-2.5705641e+81
-2.5698285e+81
-2.6014356e+81
-2.601287e+81
-2.5987538e+81
-2.601794e+81
-2.5717204e+81
-2.5679805e+81
-2.5995695e+81
-2.6372634e+81
-2.6355974e+81
-2.6368647e+81
-2.6345511e+81
-2.6720327e+81
-2.6727435e+81
-2.6711145e+81
-2.6379221e+81
-2.6362728e+81
-2.6699261e+81
-2.6733393e+81
-2.5561344e+81
-2.5173842e+81
-2.4533746e+81
-2.5997752e+81
-2.568482e+81
-2.535231e+81
-2.386639e+81
-2.4651271e+81
-2.4391663e+81
-2.4620572e+81
-2.4383503e+81
-2.5072825e+81
-2.5020391e+81
-2.5306645e+81
-2.5661869e+81
-2.5995005e+81
-2.6373615e+81
-2.6368288e+81
-2.6704995e+81
-2.6724783e+81
-2.5502363e+81
-2.5100344e+81
-2.4514645e+81
-2.3859288e+81
-2.4369048e+81
-2.3976993e+81
-2.3184581e+81
-2.3742801e+81
-2.3728201e+81
-2.3962248e+81
-2.4368257e+81
-2.4685243e+81
-2.4655008e+81
-2.5003462e+81
-2.5327363e+81
-2.5037809e+81
-2.5355007e+81
-2.571192e+81
-2.569694e+81
-2.6020453e+81
-2.6025053e+81
-2.690357e+81
-2.6565981e+81
-2.673015e+81
-2.7243877e+81
-2.7289724e+81
-2.6763963e+81
-2.6076561e+81
-2.6277097e+81
-2.6229466e+81
-2.6393081e+81
-2.6436829e+81
-2.6877931e+81
-2.6896916e+81
-2.7469741e+81
-2.746524e+81
-2.5245228e+81
-2.5802183e+81
-2.5982148e+81
-2.5956588e+81
-2.5817294e+81
-2.6275238e+81
-2.6513433e+81
-2.6562735e+81
-2.6307086e+81
-2.7541841e+81
-2.7547077e+81
-2.697865e+81
-2.7022196e+81
-2.4521057e+81
-2.5096643e+81
-2.5336105e+81
-2.5361394e+81
-2.5118997e+81
-2.5753329e+81
-2.6020985e+81
-2.6045191e+81
-2.5785777e+81
-2.6337841e+81
-2.6325718e+81
-2.6618703e+81
-2.6627917e+81
-2.7075319e+81
-2.7069918e+81
-2.7555931e+81
-2.7532521e+81
-2.3850238e+81
-2.4398694e+81
-2.4410122e+81
-2.4657911e+81
-2.4660355e+81
-2.5083182e+81
-2.5394756e+81
-2.5426085e+81
-2.5091996e+81
-2.5747843e+81
-2.6037405e+81
-2.6063263e+81
-2.5780765e+81
-2.6378163e+81
-2.670326e+81
-2.6716897e+81
-2.6398895e+81
-2.504929e+81
-2.4708108e+81
-2.3187688e+81
-2.4001604e+81
-2.3739366e+81
-2.3721384e+81
-2.3957648e+81
-2.4701676e+81
-2.4417625e+81
-2.4360578e+81
-2.5393583e+81
-2.5350539e+81
-2.5084117e+81
-2.5710419e+81
-2.6045216e+81
-2.6025457e+81
-2.5740508e+81
-2.2500361e+81
-2.3057371e+81
-2.3060264e+81
-2.3313909e+81
-2.3307548e+81
-2.3328225e+81
-2.3330507e+81
-2.3071054e+81
-2.3040385e+81
-2.3716667e+81
-2.3711309e+81
-2.4026092e+81
-2.4033724e+81
-2.4031614e+81
-2.3716345e+81
-2.3733438e+81
-2.37274e+81
-2.4012921e+81
-2.3995641e+81
-2.4373602e+81
-2.4350339e+81
-2.4673111e+81
-2.4686877e+81
-2.4684309e+81
-2.4690835e+81
-2.4381586e+81
-2.4354503e+81
-2.4378862e+81
-2.4375144e+81
-2.4673319e+81
-2.469136e+81
-2.5058139e+81
-2.5376661e+81
-2.5389126e+81
-2.5369268e+81
-2.5369427e+81
-2.5356791e+81
-2.5033256e+81
-2.5032219e+81
-2.5036953e+81
-2.5025089e+81
-2.5050634e+81
-2.5029787e+81
-2.535057e+81
-2.5351063e+81
-2.570764e+81
-2.5707389e+81
-2.5695405e+81
-2.5704445e+81
-2.5368348e+81
-2.5368115e+81
-2.5033647e+81
-2.5367755e+81
-2.5033694e+81
-2.4688932e+81
-2.6224977e+81
-2.6702694e+81
-2.6475738e+81
-2.5683799e+81
-2.6406494e+81
-2.6609482e+81
-2.519532e+81
-2.5993906e+81
-2.5761718e+81
-2.5764616e+81
-2.5983233e+81
-2.6387254e+81
-2.6403964e+81
-2.6627112e+81
-2.6680199e+81
-2.6694068e+81
-2.6023637e+81
-2.6378298e+81
-2.5717125e+81
-2.5307009e+81
-2.5079985e+81
-2.4540122e+81
-2.5306536e+81
-2.5085896e+81
-2.5718513e+81
-2.6019563e+81
-2.6364373e+81
-2.670023e+81
-2.6741425e+81
-2.5669788e+81
-2.5337476e+81
-2.385627e+81
-2.4671266e+81
-2.4428398e+81
-2.4413608e+81
-2.4658964e+81
-2.4394644e+81
-2.440428e+81
-2.4657736e+81
-2.4641976e+81
-2.5074727e+81
-2.5358014e+81
-2.5356638e+81
-2.5057837e+81
-2.5064288e+81
-2.5371347e+81
-2.5065685e+81
-2.5042656e+81
-2.5333329e+81
-2.5698826e+81
-2.5703579e+81
-2.5696286e+81
-2.6015514e+81
-2.601589e+81
-2.6008523e+81
-2.5989436e+81
-2.6015555e+81
-2.571297e+81
-2.567798e+81
-2.5995308e+81
-2.6372625e+81
-2.6360358e+81
-2.6353445e+81
-2.6368413e+81
-2.6341858e+81
-2.672094e+81
-2.672676e+81
-2.6726368e+81
-2.6711656e+81
-2.6378815e+81
-2.6362272e+81
-2.6699049e+81
-2.6733185e+81
-2.5431723e+81
-2.5042158e+81
-2.4495911e+81
-2.3854669e+81
-2.5997781e+81
-2.5684689e+81
-2.5353034e+81
-2.3177137e+81
-2.3714757e+81
-2.3953074e+81
-2.3973537e+81
-2.3747539e+81
-2.469893e+81
-2.435357e+81
-2.4658773e+81
-2.4349529e+81
-2.5069849e+81
-2.5017881e+81
-2.5308055e+81
-2.5661833e+81
-2.5995208e+81
-2.5465874e+81
-2.5036986e+81
-2.4467883e+81
-2.3834636e+81
-2.3178413e+81
-2.4024213e+81
-2.4363746e+81
-2.2498491e+81
-2.3054475e+81
-2.3042405e+81
-2.3292688e+81
-2.3302599e+81
-2.371061e+81
-2.3684705e+81
-2.399778e+81
-2.4367174e+81
-2.4687203e+81
-2.4655403e+81
-2.5003502e+81
-2.5327494e+81
-2.5037819e+81
-2.5355065e+81
-2.6852847e+81
-2.651821e+81
-2.6681349e+81
-2.6698516e+81
-2.7217573e+81
-2.718247e+81
-2.6075766e+81
-2.6177939e+81
-2.6219971e+81
-2.6358366e+81
-2.6318995e+81
-2.6806378e+81
-2.7398101e+81
-2.7444293e+81
-2.6832037e+81
-2.5248565e+81
-2.5788949e+81
-2.5914627e+81
-2.5954057e+81
-2.5799756e+81
-2.6273513e+81
-2.6214476e+81
-2.6426599e+81
-2.6470986e+81
-2.6881295e+81
-2.6896973e+81
-2.7471065e+81
-2.7470705e+81
-2.4497156e+81
-2.5102238e+81
-2.5347873e+81
-2.5365325e+81
-2.5118874e+81
-2.5765031e+81
-2.6027186e+81
-2.6004416e+81
-2.5787458e+81
-2.6264529e+81
-2.6512792e+81
-2.6563404e+81
-2.6298428e+81
-2.7542035e+81
-2.7547675e+81
-2.6979573e+81
-2.7022777e+81
-2.3826404e+81
-2.4392098e+81
-2.437748e+81
-2.4662612e+81
-2.4642055e+81
-2.5062194e+81
-2.5385331e+81
-2.5424482e+81
-2.5096819e+81
-2.5748225e+81
-2.6019835e+81
-2.6044015e+81
-2.5778903e+81
-2.6337849e+81
-2.6325696e+81
-2.6619418e+81
-2.662843e+81
-2.3166802e+81
-2.3708509e+81
-2.3730603e+81
-2.3967462e+81
-2.3966548e+81
-2.4364356e+81
-2.4375684e+81
-2.4704506e+81
-2.4702369e+81
-2.5081532e+81
-2.5396347e+81
-2.542627e+81
-2.5090109e+81
-2.5747611e+81
-2.603759e+81
-2.6063405e+81
-2.5780525e+81
-2.504917e+81
-2.4707594e+81
-2.2499762e+81
-2.3045679e+81
-2.3296061e+81
-2.3308224e+81
-2.3070042e+81
-2.4052927e+81
-2.3709651e+81
-2.3688606e+81
-2.3992085e+81
-2.4704117e+81
-2.4413184e+81
-2.4359567e+81
-2.5393771e+81
-2.5350698e+81
-2.5083959e+81
-2.1811417e+81
-2.2369434e+81
-2.2370145e+81
-2.2358038e+81
-2.2630977e+81
-2.2646791e+81
-2.2345957e+81
-2.2631334e+81
-2.2624809e+81
-2.3022427e+81
-2.3044395e+81
-2.301523e+81
-2.335678e+81
-2.3351711e+81
-2.3341449e+81
-2.3364541e+81
-2.3375269e+81
-2.3046398e+81
-2.3021221e+81
-2.3712251e+81
-2.3710524e+81
-2.4027971e+81
-2.4051758e+81
-2.403538e+81
-2.4055551e+81
-2.3732285e+81
-2.3716145e+81
-2.3732752e+81
-2.3723012e+81
-2.4014748e+81
-2.3996717e+81
-2.43735e+81
-2.4350315e+81
-2.467325e+81
-2.4690266e+81
-2.4686338e+81
-2.4684423e+81
-2.469021e+81
-2.437205e+81
-2.4378051e+81
-2.4354502e+81
-2.4374334e+81
-2.4374792e+81
-2.4673419e+81
-2.4691354e+81
-2.5369156e+81
-2.5367751e+81
-2.5368335e+81
-2.535671e+81
-2.5033307e+81
-2.503379e+81
-2.5032108e+81
-2.502499e+81
-2.503215e+81
-2.5033557e+81
-2.4688835e+81
-2.5033938e+81
-2.4688875e+81
-2.4365775e+81
-2.6214016e+81
-2.5663126e+81
-2.6467011e+81
-2.647401e+81
-2.6624957e+81
-2.6674103e+81
-2.6496779e+81
-2.6397437e+81
-2.5939042e+81
-2.5085962e+81
-2.5700071e+81
-2.5703863e+81
-2.5912264e+81
-2.6347329e+81
-2.6504051e+81
-2.4501931e+81
-2.5063319e+81
-2.5063995e+81
-2.5300936e+81
-2.5303527e+81
-2.6044767e+81
-2.5723962e+81
-2.5730577e+81
-2.6039936e+81
-2.6382327e+81
-2.639412e+81
-2.6624715e+81
-2.6679565e+81
-2.669448e+81
-2.6024448e+81
-2.6378201e+81
-2.5713541e+81
-2.5350863e+81
-2.5046457e+81
-2.46384e+81
-2.4399632e+81
-2.3853283e+81
-2.4417942e+81
-2.464749e+81
-2.5354234e+81
-2.5049766e+81
-2.5713604e+81
-2.601925e+81
-2.6364331e+81
-2.6700363e+81
-2.5669583e+81
-2.5337276e+81
-2.3151453e+81
-2.3692067e+81
-2.3706897e+81
-2.397831e+81
-2.3980321e+81
-2.3710007e+81
-2.36943e+81
-2.3980464e+81
-2.3963989e+81
-2.4722659e+81
-2.4394845e+81
-2.4385437e+81
-2.4383673e+81
-2.4701848e+81
-2.4695157e+81
-2.4359415e+81
-2.4380492e+81
-2.4700991e+81
-2.4683432e+81
-2.506999e+81
-2.5371083e+81
-2.5359345e+81
-2.5371097e+81
-2.5057261e+81
-2.5055585e+81
-2.5056108e+81
-2.5373906e+81
-2.5063989e+81
-2.5041426e+81
-2.533609e+81
-2.5703051e+81
-2.5696195e+81
-2.5703328e+81
-2.5694223e+81
-2.6013724e+81
-2.6026036e+81
-2.6015997e+81
-2.6007516e+81
-2.5989527e+81
-2.6015427e+81
-2.5712483e+81
-2.5677772e+81
-2.599522e+81
-2.6355868e+81
-2.6351845e+81
-2.635301e+81
-2.6341442e+81
-2.6720226e+81
-2.6722002e+81
-2.6721853e+81
-2.6710692e+81
-2.5367417e+81
-2.4948292e+81
-2.4434389e+81
-2.3824409e+81
-2.3168325e+81
-2.5353113e+81
-2.2487507e+81
-2.3301904e+81
-2.3284887e+81
-2.3035146e+81
-2.3038594e+81
-2.368087e+81
-2.3981698e+81
-2.4015422e+81
-2.3723114e+81
-2.4703037e+81
-2.4354217e+81
-2.4659937e+81
-2.4347231e+81
-2.5069651e+81
-2.5017802e+81
-2.5308195e+81
-2.5446629e+81
-2.50062e+81
-2.4420038e+81
-2.3803498e+81
-2.3157261e+81
-2.2492995e+81
-2.4022915e+81
-2.43635e+81
-2.1813357e+81
-2.2374976e+81
-2.2349079e+81
-2.2615801e+81
-2.2621158e+81
-2.3027552e+81
-2.3006436e+81
-2.3327253e+81
-2.3350215e+81
-2.3708862e+81
-2.3684105e+81
-2.399931e+81
-2.4367092e+81
-2.4687359e+81
-2.4655536e+81
-2.6827445e+81
-2.6474769e+81
-2.6638383e+81
-2.716703e+81
-2.71904e+81
-2.6655955e+81
-2.6060926e+81
-2.6273327e+81
-2.6144185e+81
-2.6160366e+81
-2.6290702e+81
-2.676802e+81
-2.6774057e+81
-2.7366837e+81
-2.73285e+81
-2.5246299e+81
-2.5763271e+81
-2.5876685e+81
-2.5912126e+81
-2.578064e+81
-2.6165881e+81
-2.6213935e+81
-2.6392195e+81
-2.6358788e+81
-2.6810069e+81
-2.7401357e+81
-2.7450833e+81
-2.6835414e+81
-2.448693e+81
-2.5096414e+81
-2.5083324e+81
-2.533798e+81
-2.5341914e+81
-2.5747646e+81
-2.5964726e+81
-2.6007694e+81
-2.5760523e+81
-2.6261419e+81
-2.6202131e+81
-2.6424406e+81
-2.6469943e+81
-2.6882078e+81
-2.6897582e+81
-2.7471426e+81
-2.7471614e+81
-2.3796941e+81
-2.4381261e+81
-2.4358379e+81
-2.4661322e+81
-2.4641504e+81
-2.5073527e+81
-2.5398626e+81
-2.5425283e+81
-2.5098444e+81
-2.5758565e+81
-2.6026307e+81
-2.6005157e+81
-2.577936e+81
-2.6264208e+81
-2.651352e+81
-2.6564268e+81
-2.6298376e+81
-2.3149893e+81
-2.3958863e+81
-2.3713387e+81
-2.3699538e+81
-2.3953719e+81
-2.4366574e+81
-2.4349216e+81
-2.4712278e+81
-2.4677751e+81
-2.5060395e+81
-2.5388147e+81
-2.5425423e+81
-2.5095292e+81
-2.5747908e+81
-2.601999e+81
-2.6044182e+81
-2.5778577e+81
-2.2480544e+81
-2.3303186e+81
-2.3044607e+81
-2.3027787e+81
-2.3271548e+81
-2.36731e+81
-2.3705651e+81
-2.4005301e+81
-2.4005858e+81
-2.4363879e+81
-2.4374705e+81
-2.4706364e+81
-2.4704178e+81
-2.5081374e+81
-2.5396392e+81
-2.5426275e+81
-2.5089975e+81
-2.4707624e+81
-2.1810908e+81
-2.235789e+81
-2.2613673e+81
-2.2629382e+81
-2.2358608e+81
-2.3011706e+81
-2.3332353e+81
-2.3346406e+81
-2.3042606e+81
-2.4053742e+81
-2.3709074e+81
-2.3686258e+81
-2.3994021e+81
-2.4704206e+81
-2.4412877e+81
-2.4359468e+81
-2.1121833e+81
-2.1681428e+81
-2.1933231e+81
-2.1966441e+81
-2.1694347e+81
-2.1672543e+81
-2.1682e+81
-2.1944526e+81
-2.192268e+81
-2.2339064e+81
-2.2343583e+81
-2.2336435e+81
-2.2316473e+81
-2.2664136e+81
-2.2670515e+81
-2.2657966e+81
-2.2316419e+81
-2.2657776e+81
-2.265146e+81
-2.3020638e+81
-2.301231e+81
-2.3040225e+81
-2.3012797e+81
-2.3358114e+81
-2.3367475e+81
-2.3369268e+81
-2.3342605e+81
-2.3365251e+81
-2.3375658e+81
-2.3047026e+81
-2.3021003e+81
-2.3712047e+81
-2.3710544e+81
-2.4028156e+81
-2.4056512e+81
-2.4051139e+81
-2.4035449e+81
-2.4055533e+81
-2.3733327e+81
-2.3737137e+81
-2.3716147e+81
-2.3732822e+81
-2.3722802e+81
-2.4015024e+81
-2.3996848e+81
-2.4688155e+81
-2.4688736e+81
-2.4686245e+81
-2.4690202e+81
-2.4368251e+81
-2.4367704e+81
-2.4377821e+81
-2.4374028e+81
-2.4688709e+81
-2.46887e+81
-2.4365869e+81
-2.4688207e+81
-2.4365836e+81
-2.4051053e+81
-2.6184665e+81
-2.6554914e+81
-2.644133e+81
-2.5658469e+81
-2.645155e+81
-2.6587638e+81
-2.5012264e+81
-2.5929804e+81
-2.5683651e+81
-2.569566e+81
-2.5930801e+81
-2.6367371e+81
-2.6367372e+81
-2.6365401e+81
-2.6424757e+81
-2.6488407e+81
-2.6369942e+81
-2.6043937e+81
-2.4441303e+81
-2.5008117e+81
-2.498841e+81
-2.5247372e+81
-2.5261276e+81
-2.5708418e+81
-2.5713614e+81
-2.6027298e+81
-2.6325776e+81
-2.6500748e+81
-2.3818946e+81
-2.4620278e+81
-2.4358908e+81
-2.4380377e+81
-2.4620305e+81
-2.5032546e+81
-2.5037935e+81
-2.5345614e+81
-2.5353785e+81
-2.6049062e+81
-2.5722182e+81
-2.5727708e+81
-2.6039606e+81
-2.6382139e+81
-2.6393529e+81
-2.6624972e+81
-2.6679669e+81
-2.6024536e+81
-2.5713309e+81
-2.5352562e+81
-2.5043574e+81
-2.4678755e+81
-2.4365406e+81
-2.3965574e+81
-2.3712693e+81
-2.3152344e+81
-2.3719614e+81
-2.3977373e+81
-2.4385893e+81
-2.4695673e+81
-2.5354677e+81
-2.5048373e+81
-2.5713231e+81
-2.6019205e+81
-2.5337265e+81
-2.2995113e+81
-2.3009099e+81
-2.3020143e+81
-2.247831e+81
-2.3274314e+81
-2.3279549e+81
-2.3274695e+81
-2.328186e+81
-2.30213e+81
-2.3668702e+81
-2.3668802e+81
-2.3670693e+81
-2.4014188e+81
-2.4014912e+81
-2.400937e+81
-2.3681482e+81
-2.3675564e+81
-2.4014429e+81
-2.3991966e+81
-2.4725139e+81
-2.4395155e+81
-2.4376974e+81
-2.4383558e+81
-2.4374803e+81
-2.4711943e+81
-2.4704099e+81
-2.4708793e+81
-2.4358513e+81
-2.4378954e+81
-2.4703028e+81
-2.4685278e+81
-2.5069619e+81
-2.5370397e+81
-2.5375953e+81
-2.5359402e+81
-2.5370941e+81
-2.5055805e+81
-2.5056245e+81
-2.5055314e+81
-2.5055276e+81
-2.5373881e+81
-2.5063827e+81
-2.5041291e+81
-2.5336135e+81
-2.5698965e+81
-2.569875e+81
-2.5695969e+81
-2.569383e+81
-2.6013452e+81
-2.6021762e+81
-2.602349e+81
-2.6007045e+81
-2.635535e+81
-2.6350142e+81
-2.6351208e+81
-2.6721487e+81
-2.671753e+81
-2.6721317e+81
-2.5340787e+81
-2.4902116e+81
-2.437205e+81
-2.3786787e+81
-2.3146732e+81
-2.2482216e+81
-2.2600743e+81
-2.2351814e+81
-2.1813508e+81
-2.2343042e+81
-2.2595799e+81
-2.3347282e+81
-2.3322004e+81
-2.2996615e+81
-2.3002148e+81
-2.3677944e+81
-2.3983706e+81
-2.4014013e+81
-2.3718195e+81
-2.4703225e+81
-2.4354292e+81
-2.4660101e+81
-2.4347141e+81
-2.5419947e+81
-2.4990252e+81
-2.4390176e+81
-2.3767242e+81
-2.3133813e+81
-2.2476099e+81
-2.1809086e+81
-2.4022812e+81
-2.1131454e+81
-2.1668779e+81
-2.1914436e+81
-2.1955691e+81
-2.1699844e+81
-2.2345112e+81
-2.2313126e+81
-2.2651097e+81
-2.2648701e+81
-2.3025664e+81
-2.3006506e+81
-2.3329224e+81
-2.3350858e+81
-2.3708679e+81
-2.3684029e+81
-2.3999352e+81
-2.6831792e+81
-2.6449608e+81
-2.7187546e+81
-2.6618813e+81
-2.6643487e+81
-2.7164367e+81
-2.6041691e+81
-2.6106218e+81
-2.6106968e+81
-2.6232319e+81
-2.6224526e+81
-2.6729887e+81
-2.7328142e+81
-2.7350239e+81
-2.6732889e+81
-2.5234892e+81
-2.5747029e+81
-2.5735988e+81
-2.584804e+81
-2.5861494e+81
-2.6330591e+81
-2.6138045e+81
-2.61513e+81
-2.6337241e+81
-2.6768902e+81
-2.6775645e+81
-2.7370875e+81
-2.733055e+81
-2.4475001e+81
-2.5075055e+81
-2.5080801e+81
-2.5325974e+81
-2.5321957e+81
-2.5718986e+81
-2.5928318e+81
-2.5966054e+81
-2.5736637e+81
-2.6152051e+81
-2.6199038e+81
-2.6388263e+81
-2.6356294e+81
-2.6811359e+81
-2.7402416e+81
-2.7451861e+81
-2.6836659e+81
-2.3779843e+81
-2.4377544e+81
-2.4361711e+81
-2.4640844e+81
-2.464597e+81
-2.507098e+81
-2.5053561e+81
-2.5384024e+81
-2.5391315e+81
-2.5741309e+81
-2.5966523e+81
-2.6008746e+81
-2.5754959e+81
-2.6260963e+81
-2.6201587e+81
-2.6424933e+81
-2.6470452e+81
-2.3125551e+81
-2.3686455e+81
-2.3682921e+81
-2.3943332e+81
-2.3932037e+81
-2.4362162e+81
-2.432875e+81
-2.4713073e+81
-2.4680117e+81
-2.507224e+81
-2.5400295e+81
-2.5425779e+81
-2.5096099e+81
-2.5758148e+81
-2.6026478e+81
-2.6005246e+81
-2.5778911e+81
-2.2467374e+81
-2.3286807e+81
-2.3033879e+81
-2.3027975e+81
-2.3272771e+81
-2.3995778e+81
-2.3688639e+81
-2.3664705e+81
-2.3989782e+81
-2.436596e+81
-2.4348207e+81
-2.4714126e+81
-2.4680111e+81
-2.5060233e+81
-2.5388237e+81
-2.5425423e+81
-2.5095165e+81
-2.1793633e+81
-2.2327983e+81
-2.2598142e+81
-2.2600536e+81
-2.2348968e+81
-2.3346908e+81
-2.3011527e+81
-2.2993971e+81
-2.3304619e+81
-2.3671948e+81
-2.3702115e+81
-2.4006871e+81
-2.4007828e+81
-2.4363876e+81
-2.4374693e+81
-2.4706484e+81
-2.470428e+81
-2.1126307e+81
-2.1675649e+81
-2.1694583e+81
-2.1935561e+81
-2.1928885e+81
-2.2326187e+81
-2.2651088e+81
-2.2667229e+81
-2.2324066e+81
-2.3010665e+81
-2.3334189e+81
-2.3345603e+81
-2.3039221e+81
-2.4053723e+81
-2.370903e+81
-2.3686194e+81
-2.3994159e+81
-2.0436999e+81
-2.0966544e+81
-2.1009929e+81
-2.0996134e+81
-2.1257581e+81
-2.1272215e+81
-2.0993996e+81
-2.127377e+81
-2.126617e+81
-2.1647939e+81
-2.1959443e+81
-2.2003605e+81
-2.1976305e+81
-2.1681299e+81
-2.1661501e+81
-2.1650432e+81
-2.1650948e+81
-2.1977866e+81
-2.1957204e+81
-2.2338973e+81
-2.232252e+81
-2.2338406e+81
-2.2328487e+81
-2.2316606e+81
-2.266538e+81
-2.2671547e+81
-2.2658337e+81
-2.265294e+81
-2.231666e+81
-2.2660953e+81
-2.2652598e+81
-2.3020523e+81
-2.3011742e+81
-2.3017545e+81
-2.3040006e+81
-2.3014183e+81
-2.3358306e+81
-2.3369157e+81
-2.3381029e+81
-2.3370706e+81
-2.3342715e+81
-2.3365224e+81
-2.337564e+81
-2.3046966e+81
-2.302091e+81
-2.4054143e+81
-2.4054081e+81
-2.4050946e+81
-2.4055495e+81
-2.3733272e+81
-2.3736621e+81
-2.3736089e+81
-2.3732737e+81
-2.4368048e+81
-2.4365873e+81
-2.4367478e+81
-2.4051303e+81
-2.4051207e+81
-2.3735812e+81
-2.6139829e+81
-2.565681e+81
-2.6426488e+81
-2.6423248e+81
-2.6486333e+81
-2.6510305e+81
-2.6265527e+81
-2.631723e+81
-2.5906113e+81
-2.5671007e+81
-2.4981933e+81
-2.5683955e+81
-2.5917536e+81
-2.6337096e+81
-2.6321863e+81
-2.4378717e+81
-2.4960735e+81
-2.4946847e+81
-2.5223023e+81
-2.5240232e+81
-2.6032126e+81
-2.5701051e+81
-2.572198e+81
-2.6041739e+81
-2.6336073e+81
-2.6332598e+81
-2.6362758e+81
-2.641932e+81
-2.6489018e+81
-2.636814e+81
-2.604389e+81
-2.4564034e+81
-2.431196e+81
-2.377857e+81
-2.4334682e+81
-2.4580995e+81
-2.4989033e+81
-2.4972313e+81
-2.5309686e+81
-2.5327227e+81
-2.5704964e+81
-2.5709798e+81
-2.6025522e+81
-2.6324517e+81
-2.6501711e+81
-2.3132693e+81
-2.3690645e+81
-2.3667141e+81
-2.3918597e+81
-2.3945938e+81
-2.4663756e+81
-2.4322049e+81
-2.4347999e+81
-2.4666439e+81
-2.5030129e+81
-2.5034091e+81
-2.5346659e+81
-2.5354688e+81
-2.6049142e+81
-2.5722036e+81
-2.5727528e+81
-2.6039558e+81
-2.5352676e+81
-2.5043414e+81
-2.4680621e+81
-2.4362995e+81
-2.400269e+81
-2.3682092e+81
-2.3276539e+81
-2.3017237e+81
-2.2468465e+81
-2.3000646e+81
-2.3269986e+81
-2.368603e+81
-2.4019723e+81
-2.4384946e+81
-2.469888e+81
-2.5354596e+81
-2.5048224e+81
-2.2966348e+81
-2.2985791e+81
-2.2590495e+81
-2.2981776e+81
-2.2611868e+81
-2.298691e+81
-2.2606931e+81
-2.1810873e+81
-2.2363044e+81
-2.260776e+81
-2.2350579e+81
-2.2360554e+81
-2.2374312e+81
-2.3296932e+81
-2.3298692e+81
-2.3309482e+81
-2.3294187e+81
-2.3312207e+81
-2.2984946e+81
-2.3663496e+81
-2.3668335e+81
-2.366507e+81
-2.3669617e+81
-2.4016595e+81
-2.4017708e+81
-2.4016402e+81
-2.401732e+81
-2.3679629e+81
-2.367415e+81
-2.4016308e+81
-2.3994493e+81
-2.4725181e+81
-2.4395118e+81
-2.4374041e+81
-2.4377007e+81
-2.4383427e+81
-2.4374318e+81
-2.4714721e+81
-2.4712617e+81
-2.4704153e+81
-2.4709357e+81
-2.4358533e+81
-2.4378928e+81
-2.4703203e+81
-2.4685395e+81
-2.5370234e+81
-2.5373527e+81
-2.537373e+81
-2.537083e+81
-2.505487e+81
-2.5054807e+81
-2.5056035e+81
-2.5055102e+81
-2.5698592e+81
-2.569582e+81
-2.5698414e+81
-2.6021257e+81
-2.6019622e+81
-2.6023095e+81
-2.6350141e+81
-2.6350214e+81
-2.6717609e+81
-2.6717669e+81
-2.5314802e+81
-2.4879508e+81
-2.433064e+81
-2.3744489e+81
-2.3119352e+81
-2.2467155e+81
-2.1805311e+81
-2.2631075e+81
-2.2321307e+81
-2.1931671e+81
-2.1130998e+81
-2.1678607e+81
-2.1932683e+81
-2.1693275e+81
-2.2316033e+81
-2.2628444e+81
-2.3348503e+81
-2.3322695e+81
-2.2995093e+81
-2.3001819e+81
-2.3677765e+81
-2.3983863e+81
-2.4013973e+81
-2.3717889e+81
-2.5391406e+81
-2.4973523e+81
-2.4371453e+81
-2.3739343e+81
-2.310568e+81
-2.2457598e+81
-2.1795286e+81
-2.1128025e+81
-2.0446822e+81
-2.100264e+81
-2.101324e+81
-2.1264036e+81
-2.1253137e+81
-2.163491e+81
-2.1946709e+81
-2.199638e+81
-2.1671443e+81
-2.234158e+81
-2.2312483e+81
-2.2651991e+81
-2.2650531e+81
-2.3025597e+81
-2.3006526e+81
-2.3329355e+81
-2.3350883e+81
-2.6835269e+81
-2.6442034e+81
-2.6614464e+81
-2.66176e+81
-2.7165673e+81
-2.7187009e+81
-2.6029977e+81
-2.6061331e+81
-2.6183119e+81
-2.6226708e+81
-2.6099262e+81
-2.7362634e+81
-2.6712385e+81
-2.6735355e+81
-2.7316724e+81
-2.5222395e+81
-2.5715093e+81
-2.5712593e+81
-2.5819357e+81
-2.5817569e+81
-2.6098473e+81
-2.6094575e+81
-2.6279921e+81
-2.6280075e+81
-2.6735672e+81
-2.7329478e+81
-2.7356482e+81
-2.673861e+81
-2.4465054e+81
-2.5059771e+81
-2.5059447e+81
-2.5301852e+81
-2.5296783e+81
-2.5699949e+81
-2.5691793e+81
-2.5902796e+81
-2.591355e+81
-2.6330036e+81
-2.6125288e+81
-2.6138381e+81
-2.633577e+81
-2.6769732e+81
-2.6776935e+81
-2.7371509e+81
-2.7330665e+81
-2.3765701e+81
-2.4352449e+81
-2.4341663e+81
-2.4621106e+81
-2.463319e+81
-2.50439e+81
-2.5053655e+81
-2.5371665e+81
-2.5369783e+81
-2.5712188e+81
-2.5930404e+81
-2.5967953e+81
-2.5730827e+81
-2.6151258e+81
-2.6198272e+81
-2.6388668e+81
-2.6356833e+81
-2.30997e+81
-2.3663366e+81
-2.3925428e+81
-2.3948266e+81
-2.3680242e+81
-2.4363234e+81
-2.4340316e+81
-2.4682922e+81
-2.4689197e+81
-2.5069362e+81
-2.5051777e+81
-2.5385091e+81
-2.5391982e+81
-2.5740917e+81
-2.5966546e+81
-2.6008885e+81
-2.5754629e+81
-2.2446629e+81
-2.3267459e+81
-2.3015859e+81
-2.3012248e+81
-2.3256901e+81
-2.3661105e+81
-2.365193e+81
-2.3982425e+81
-2.396681e+81
-2.4362115e+81
-2.4329416e+81
-2.4714197e+81
-2.4682099e+81
-2.5072089e+81
-2.5400321e+81
-2.542575e+81
-2.5095929e+81
-2.1778006e+81
-2.2323796e+81
-2.2334519e+81
-2.2597297e+81
-2.2589715e+81
-2.3330828e+81
-2.300301e+81
-2.2992423e+81
-2.3310057e+81
-2.3995911e+81
-2.3685275e+81
-2.3663111e+81
-2.3991056e+81
-2.4365968e+81
-2.4348186e+81
-2.4714232e+81
-2.4680238e+81
-2.1113673e+81
-2.1644608e+81
-2.1896478e+81
-2.1935837e+81
-2.1684969e+81
-2.2290481e+81
-2.2632345e+81
-2.2634716e+81
-2.2320416e+81
-2.3347857e+81
-2.3012573e+81
-2.2991833e+81
-2.3306568e+81
-2.3671918e+81
-2.3701931e+81
-2.4007005e+81
-2.4008004e+81
-2.0441995e+81
-2.1003196e+81
-2.1252611e+81
-2.1272033e+81
-2.1009743e+81
-2.1639707e+81
-2.1668183e+81
-2.1967641e+81
-2.1959247e+81
-2.2325486e+81
-2.2652709e+81
-2.2669513e+81
-2.2324868e+81
-2.3010665e+81