/*--------------------------------*- C++ -*----------------------------------*\
  =========                 |
  \\      /  F ield         | OpenFOAM: The Open Source CFD Toolbox
   \\    /   O peration     | Website:  https://openfoam.org
    \\  /    A nd           | Version:  7
     \\/     M anipulation  |
\*---------------------------------------------------------------------------*/
FoamFile
{
    version     2.0;
    format      ascii;
    class       volScalarField;
    location    "7000";
    object      nut;
}
// * * * * * * * * * * * * * * * * * * * * * * * * * * * * * * * * * * * * * //

dimensions      [0 2 -1 0 0 0 0];

internalField   nonuniform List<scalar> 
34158
(
4.0507831e-42
5.6931812e-42
2.9410229e-42
4.1008176e-42
3.3459679e-42
2.9369999e-42
2.3018578e-42
2.3315786e-42
7.2910187e-43
7.1177385e-43
3.7027996e-42
3.2217405e-42
2.5175384e-42
2.536511e-42
3.7715186e-42
3.6897661e-42
3.7873046e-42
3.3137419e-42
3.1759258e-42
3.191479e-42
4.8834497e-42
4.6370818e-42
7.1123118e-43
7.2917941e-43
1.9258942e-42
4.6356491e-43
4.5502548e-43
1.5566289e-42
5.2891358e-43
3.755756e-43
3.7674389e-43
5.440704e-43
5.1138035e-43
3.616038e-43
4.1239786e-42
3.7874455e-42
2.8204638e-42
2.6883994e-42
3.616323e-42
4.1127593e-42
3.6993627e-42
3.7667899e-42
3.5787721e-42
3.7427569e-42
2.9695026e-42
2.9671532e-42
1.697441e-41
2.8243843e-42
4.1825501e-42
1.6896493e-41
2.7496615e-42
4.0848202e-42
3.5944164e-42
3.9702543e-42
4.3080765e-42
4.3085394e-42
5.1767718e-42
5.2253971e-42
6.3717007e-42
5.2431551e-42
1.3729257e-42
7.1004428e-43
4.5819863e-43
1.6171478e-42
1.8930681e-42
4.789704e-43
4.73025e-43
3.5391531e-43
3.6270267e-43
5.1594472e-43
5.7724811e-43
3.703259e-43
3.8236617e-43
5.6375213e-43
2.9444666e-43
1.890331e-43
1.8469014e-43
3.6587296e-43
3.2692604e-43
3.2275275e-43
1.8831837e-43
3.1591707e-43
3.1831777e-43
3.1358579e-43
2.2474869e-43
2.1753558e-43
3.4331117e-43
3.5791824e-43
3.1724895e-43
3.8012361e-43
3.6966137e-43
2.9996066e-43
3.1858923e-43
3.2399868e-43
2.1622605e-43
3.2135436e-43
2.2077516e-43
3.3957909e-43
3.3267691e-43
2.2752232e-43
2.2780789e-43
3.371977e-43
3.3708885e-43
3.3510349e-43
3.4290665e-43
3.8729292e-42
3.808154e-42
4.5375659e-42
3.9246843e-42
1.8071835e-42
1.6621609e-42
4.7880229e-42
3.9739061e-42
4.0851003e-42
3.7784352e-42
2.940197e-42
2.8519789e-42
1.3889082e-41
2.4922142e-42
4.7210135e-42
1.6594414e-41
2.6888742e-42
4.5076168e-42
4.2513337e-42
4.0767202e-42
2.0201346e-42
1.9001351e-42
2.0607187e-42
2.1113106e-42
1.7010415e-42
2.1526623e-42
1.1312291e-41
3.6534278e-42
2.9257617e-42
4.7557585e-42
1.7452143e-41
3.7596761e-42
2.6829732e-42
4.3431862e-42
4.3313933e-42
4.8593872e-42
4.7186447e-42
4.1832954e-42
5.9876241e-42
6.3142764e-42
6.1212458e-42
5.6519022e-42
2.5095226e-41
4.7130289e-42
3.3404671e-42
4.1388239e-42
1.3794801e-42
1.3639535e-42
5.5445489e-43
4.6966466e-43
1.7811148e-42
4.9253592e-43
3.3657327e-43
3.4859413e-43
4.9456371e-43
1.784808e-43
3.2430536e-43
2.9469071e-43
1.800978e-43
3.1866011e-43
3.0066397e-43
1.9303005e-43
1.8669946e-43
3.260757e-43
2.9860774e-43
2.3026447e-43
3.0320209e-43
2.8288144e-43
1.8902103e-43
3.1706612e-43
3.1906557e-43
2.7623325e-43
2.8475197e-43
3.3766145e-43
3.6270876e-43
3.7403446e-43
3.1220723e-43
2.9125406e-43
3.0667016e-43
2.0683512e-43
2.0646387e-43
2.1693623e-43
3.1852978e-43
3.0796625e-43
2.089697e-43
3.0402e-43
3.0154258e-43
3.3657373e-43
3.1909339e-43
3.9216927e-43
3.7764567e-43
3.1040301e-43
3.090731e-43
2.1523267e-43
2.2644889e-43
2.9490598e-43
2.681949e-43
1.4519504e-43
1.5213368e-43
7.4059911e-44
7.3102005e-44
1.2752597e-43
1.1462869e-43
7.5636757e-44
1.2267872e-43
1.114768e-43
7.3661726e-44
1.5060766e-43
7.5381924e-44
7.3772658e-44
1.3327507e-43
1.2151756e-43
2.8503998e-43
2.2513232e-43
2.1834248e-43
2.7361074e-43
2.7384789e-43
2.480924e-43
1.9492402e-43
3.0595876e-43
2.9210237e-43
2.0257226e-43
2.109193e-43
2.1306217e-43
2.1094856e-43
1.8639259e-43
1.8942646e-43
2.0499831e-43
2.0634163e-43
2.9187158e-43
2.8818325e-43
3.1214136e-43
2.9944786e-43
3.1080152e-43
3.0845125e-43
3.3431261e-43
3.2046562e-43
3.459154e-43
3.34028e-43
3.444728e-43
3.1535457e-43
3.0868994e-43
2.9017843e-43
2.9283086e-43
3.2623355e-43
3.1722705e-43
3.1372702e-43
2.8516747e-43
3.0624176e-43
3.0162206e-43
2.9051723e-43
3.05953e-43
2.8919481e-43
2.8387886e-43
3.2914599e-43
3.4363686e-43
3.3420867e-43
3.0802422e-43
2.3878263e-43
2.1591544e-43
2.8642059e-43
2.8779005e-43
1.9127472e-43
1.856812e-43
1.9786575e-43
1.9925908e-43
2.5282903e-43
2.2006334e-43
2.0678509e-43
2.5793742e-43
2.0521487e-43
1.9990454e-43
1.8965557e-43
2.0275356e-43
2.1809716e-43
2.1587034e-43
2.9325321e-43
2.6892513e-43
2.4476957e-43
2.0100976e-43
2.9429686e-43
3.0611172e-43
2.0201674e-43
1.9129994e-43
1.9982154e-43
1.9453886e-43
2.0357023e-43
1.8647801e-43
1.8840607e-43
1.9904927e-43
3.2011868e-43
3.5970206e-43
3.4628197e-43
3.184849e-43
3.1592407e-43
2.8590719e-43
2.8524224e-43
3.128239e-43
3.2876827e-43
3.7747144e-43
3.5291484e-43
3.2165375e-43
3.0786567e-43
2.7290799e-43
2.6811987e-43
2.8814239e-43
3.163258e-42
4.1475135e-42
3.5609535e-42
4.364975e-42
4.1278228e-42
1.7113416e-42
1.6095346e-42
9.4677123e-42
8.861801e-42
1.6617499e-42
6.1494772e-42
4.0673338e-42
4.0870141e-42
2.5520666e-42
5.102174e-42
2.4800079e-42
4.8304058e-42
4.8265672e-42
4.3924473e-42
2.0099783e-42
1.9491758e-42
1.9286294e-42
1.9381136e-42
1.8240492e-42
1.450922e-42
9.8368393e-42
4.013595e-42
2.2735426e-42
4.9040084e-42
1.1646632e-41
5.9912837e-42
2.4694185e-42
4.7817819e-42
5.0118646e-42
4.4918448e-42
1.1055044e-42
1.3800342e-42
1.5590884e-42
2.5084737e-42
1.7003821e-42
1.1335539e-42
1.495135e-42
1.3562617e-42
1.5365903e-42
2.4175108e-42
1.277169e-41
1.5352683e-42
5.0066602e-42
5.4708478e-42
1.3569319e-41
3.3399045e-42
1.754372e-41
4.191571e-42
5.7253876e-42
6.6656487e-42
9.5331515e-42
6.2475974e-42
7.6163693e-42
5.5236724e-42
1.3869914e-42
6.5911242e-42
2.2925045e-42
3.3329293e-42
3.4281634e-42
4.3121653e-42
3.5833537e-42
3.2290642e-42
3.375774e-42
1.6752487e-42
1.5887464e-42
1.4010973e-42
1.3747493e-42
4.3696726e-42
1.7639528e-42
1.7040007e-42
3.4368028e-42
3.6669418e-42
3.7775589e-43
3.530465e-43
1.3598683e-42
1.3470743e-42
5.210631e-43
3.454686e-43
3.473279e-43
3.9345128e-43
3.8461256e-43
3.9985263e-43
3.6353146e-43
4.98353e-43
5.0588784e-43
1.8199061e-43
1.7741927e-43
3.0192095e-43
2.7981539e-43
3.1866273e-43
2.6761278e-43
2.8469058e-43
2.7114653e-43
1.9340868e-43
1.9334506e-43
2.8028724e-43
2.7921192e-43
2.8824747e-43
2.803718e-43
3.0837516e-43
3.2936045e-43
2.7401023e-43
2.8802509e-43
2.589114e-43
2.8165723e-43
1.9415094e-43
1.9923289e-43
1.2632192e-43
7.2420782e-44
7.0125841e-44
1.1232572e-43
1.4188977e-43
1.5111269e-43
7.423248e-44
7.2176172e-44
1.2220304e-43
1.121748e-43
2.9306805e-43
1.5392557e-43
1.5030667e-43
2.7525198e-43
7.4245939e-44
7.2714634e-44
1.2967896e-43
1.1813069e-43
7.1466748e-44
1.2746578e-43
7.4585e-44
1.1872496e-43
2.0878524e-43
2.1860161e-43
2.0852181e-43
1.9445568e-43
2.5292913e-43
1.9626417e-43
2.2445962e-43
2.8962928e-43
2.264293e-43
2.2460447e-43
2.7612479e-43
2.5628869e-43
1.7821909e-43
1.7495832e-43
1.7851267e-43
1.68292e-43
2.9368495e-43
3.3159837e-43
3.3530804e-43
2.9781048e-43
2.8497113e-43
2.535316e-43
2.7045034e-43
3.0609662e-43
2.7838908e-43
2.9468271e-43
2.998494e-43
2.9179218e-43
3.0586152e-43
3.2706759e-43
3.1635403e-43
2.9080165e-43
2.7204478e-43
3.2649591e-43
3.328439e-43
2.9199726e-43
3.2692186e-43
2.6360863e-43
2.7347077e-43
3.0148441e-43
2.8115401e-43
3.085252e-43
3.0184859e-43
3.1655767e-43
2.9950887e-43
2.9845862e-43
3.2578934e-43
2.977536e-43
2.0249279e-43
2.1297845e-43
2.6057096e-43
2.4679856e-43
2.2427364e-43
1.9577111e-43
2.5887445e-43
2.7356931e-43
1.9613747e-43
1.7613532e-43
1.7786188e-43
1.8499097e-43
1.9525522e-43
1.9271186e-43
2.0507528e-43
1.9062364e-43
1.8648589e-43
2.0199018e-43
1.9560397e-43
1.8003802e-43
2.5906673e-43
1.9981167e-43
2.3385008e-43
2.8126742e-43
2.1809304e-43
2.1923534e-43
2.6483548e-43
2.6214661e-43
1.8520112e-43
1.8002982e-43
1.962544e-43
1.8473262e-43
2.589617e-43
2.2899591e-43
2.9345549e-43
2.5163153e-43
2.7873382e-43
2.9380406e-43
3.2233164e-43
2.8748179e-43
2.6734941e-43
2.9086814e-43
2.9748657e-43
2.6756139e-43
3.3943041e-43
3.2153018e-43
2.9789544e-43
3.1270242e-43
2.7631605e-43
3.2499716e-43
2.7622161e-43
2.7640914e-43
2.9667138e-43
2.9384918e-43
3.1500859e-43
3.2459844e-43
2.8656699e-43
2.1292802e-43
2.1662913e-43
2.7182443e-43
2.5877695e-43
1.9265761e-43
1.9815175e-43
1.9447497e-43
1.8818105e-43
2.1088517e-43
2.1108974e-43
2.2769037e-43
2.1739401e-43
2.2843272e-43
2.0199644e-43
2.00076e-43
2.7491538e-43
1.6432959e-43
1.7743984e-43
1.3410918e-43
1.3790602e-43
1.0139913e-43
1.0399216e-43
1.1387753e-43
9.9414694e-44
6.9617618e-44
6.3963969e-44
5.9127607e-44
6.6232513e-44
6.9900145e-44
6.352437e-44
5.9280904e-44
6.7385905e-44
6.0566902e-44
6.7291293e-44
7.10458e-44
6.6761586e-44
6.4309255e-44
6.658471e-44
6.8686419e-44
6.6902604e-44
1.3851716e-43
1.0688236e-43
1.0261277e-43
7.0976609e-44
6.6723567e-44
6.0240312e-44
6.744809e-44
7.0143918e-44
6.6279586e-44
6.3921939e-44
6.9200812e-44
1.3535266e-43
1.7487276e-43
1.70839e-43
4.8785402e-43
4.1723561e-43
3.2684974e-43
3.2019651e-43
5.2065074e-43
6.0312695e-43
3.3987997e-43
3.5193135e-43
4.7382898e-43
4.9807541e-43
4.6193895e-43
4.1768207e-43
4.0629557e-43
4.260859e-43
4.4271562e-43
4.1002303e-43
5.7911145e-43
5.7345408e-43
6.0481395e-43
5.9498948e-43
6.0904004e-43
6.5372309e-43
6.7982047e-43
6.2830833e-43
8.1318553e-43
7.6188308e-43
7.7717709e-43
7.9836753e-43
7.8489288e-43
5.7677123e-43
5.6184013e-43
6.1016934e-43
6.1336409e-43
5.6359726e-43
5.2984303e-43
5.5778264e-43
5.6297759e-43
7.4927226e-43
7.2814041e-43
6.9232363e-43
7.3316463e-43
8.23695e-43
7.8602141e-43
7.7102085e-43
7.998995e-43
6.7043986e-43
5.099663e-43
2.9926013e-43
2.9741896e-43
3.6612459e-43
3.8818659e-43
3.9486462e-43
3.5457218e-43
3.1535473e-43
4.7661436e-43
4.3966595e-43
3.0699364e-43
4.0198841e-43
3.7232936e-43
3.9244748e-43
4.3598903e-43
3.4708827e-43
4.3444694e-43
2.8528936e-43
3.2710165e-43
5.0801809e-43
5.102732e-43
3.0360668e-43
3.1523071e-43
4.5235131e-43
4.1728819e-43
3.8100682e-43
4.1685303e-43
4.0323388e-43
3.83213e-43
4.0491726e-43
4.3558226e-43
8.1878872e-43
8.4300228e-43
7.7662264e-43
8.096856e-43
6.2774962e-43
5.923834e-43
5.6089424e-43
5.9724289e-43
8.1498599e-43
7.9739612e-43
7.9439108e-43
5.8351773e-43
5.5043855e-43
5.7942241e-43
6.168071e-43
3.189051e-42
4.3242778e-42
4.543238e-42
3.1603548e-42
2.9200325e-42
3.4547976e-42
3.5015534e-42
3.3989263e-42
2.9482841e-42
4.4515215e-42
3.8620364e-42
1.7508626e-42
1.5662669e-42
2.433544e-42
7.6966767e-42
2.4456845e-42
6.6400536e-42
6.7860096e-42
2.4589348e-42
3.7652068e-42
2.1277611e-42
4.4748716e-42
4.690239e-42
4.6588891e-42
4.8920132e-42
1.9472124e-42
2.0552372e-42
8.9236045e-42
2.1973691e-42
5.8446816e-42
8.8030595e-42
2.002888e-42
4.6505552e-42
5.3673763e-42
5.1989454e-42
1.125741e-42
1.3735608e-42
1.2878536e-42
1.6685222e-42
2.2995059e-42
1.1084303e-42
1.3985678e-42
1.716084e-42
1.7698192e-42
1.3493016e-42
1.7195078e-41
1.7256846e-42
3.9560356e-42
5.2527263e-42
2.6962186e-41
2.9876977e-42
1.3004051e-41
4.7377327e-42
5.4075135e-42
4.6586213e-42
1.033208e-42
7.1958478e-43
7.2473623e-43
6.9611588e-43
7.2310782e-43
3.0510942e-42
2.7911615e-42
1.0509746e-42
7.3853511e-43
7.8056152e-43
7.4006769e-43
7.5590379e-43
2.7921674e-42
3.2634168e-42
2.9475867e-42
1.1512175e-42
1.0225622e-41
6.1716778e-42
6.7796607e-42
6.2281159e-42
4.3631547e-42
4.9065027e-42
8.0202587e-42
1.6021207e-41
1.5010175e-42
5.1326203e-42
8.1166469e-44
1.3603527e-42
1.0028717e-43
1.0151535e-42
1.3901563e-42
1.3442114e-42
1.3430039e-42
1.3278697e-42
1.0881451e-42
1.0984888e-42
1.0527565e-42
1.0559153e-42
1.4812813e-42
1.5096067e-42
1.5131481e-42
1.5072056e-42
1.1404461e-42
1.1122227e-42
3.6815178e-42
1.6599962e-42
1.7001372e-42
1.4228229e-42
1.4132418e-42
3.2590605e-42
1.5608113e-42
1.6253764e-42
1.372811e-42
1.3444435e-42
1.4167175e-42
1.4096321e-42
1.3358453e-42
1.264474e-42
1.0584623e-42
8.7279651e-43
8.9306562e-43
1.0436681e-42
1.0729204e-42
8.940238e-43
8.9942685e-43
1.0393512e-42
1.0942653e-42
1.1948404e-42
1.1557351e-42
1.1182068e-42
1.0403764e-42
1.0341393e-42
1.1234469e-42
1.5187877e-42
1.3975104e-42
1.4086866e-42
1.5059203e-42
1.1173738e-42
9.3358917e-43
1.0922535e-42
1.0778685e-42
1.0677344e-42
3.8377259e-42
1.6877352e-42
1.6301953e-42
3.9027552e-42
1.5839252e-42
1.6775806e-42
1.3530915e-42
1.409187e-42
3.8364714e-43
1.1330569e-42
6.2379125e-43
3.4437237e-43
3.8299948e-43
1.2584366e-42
8.7280841e-43
3.7039305e-43
3.9003091e-43
1.3448104e-42
3.5306679e-43
3.677e-43
3.6872967e-43
3.4190059e-43
3.6288962e-43
9.163769e-43
9.0313766e-43
9.4860135e-43
9.7251301e-43
9.2722967e-43
3.4206247e-43
3.196093e-43
3.6427041e-43
3.5807671e-43
3.5796329e-43
3.6239686e-43
3.6049128e-43
3.4176922e-43
3.6616868e-43
2.7547874e-43
6.9964206e-44
1.0710235e-43
6.9749276e-44
6.8991092e-44
1.2281484e-43
1.1123481e-43
7.0712896e-44
6.808011e-44
1.2132909e-43
1.1319797e-43
1.5214951e-43
1.4995329e-43
2.9438893e-43
1.8403877e-43
1.8588632e-43
2.2854003e-43
2.1713709e-43
1.7002294e-43
1.5880452e-43
2.1359531e-43
1.7013679e-43
2.4535993e-43
2.4827971e-43
2.2034206e-43
1.4862109e-43
2.4507013e-43
2.6844003e-43
1.6976324e-43
1.5275371e-43
1.5294839e-43
1.6517979e-43
1.5888812e-43
1.5327994e-43
1.7799416e-43
1.6998545e-43
2.7319708e-43
2.3992143e-43
2.5825693e-43
2.8287638e-43
2.5837131e-43
2.5124273e-43
2.6317417e-43
2.7188925e-43
3.0604183e-43
2.805768e-43
2.7468096e-43
2.936123e-43
3.1323288e-43
2.9153403e-43
2.7942189e-43
2.7301894e-43
2.7747998e-43
2.9732206e-43
2.948742e-43
3.0008339e-43
2.8081322e-43
3.1357496e-43
3.0359979e-43
2.580668e-43
2.3520865e-43
2.7678974e-43
2.7399517e-43
2.7859343e-43
3.2196783e-43
2.844941e-43
1.9391892e-43
1.686554e-43
2.5241156e-43
2.5794102e-43
2.2597589e-43
1.6469589e-43
2.5590484e-43
2.6996613e-43
1.5937326e-43
1.5435024e-43
1.7942233e-43
1.7331669e-43
1.7514656e-43
1.6869819e-43
1.9360191e-43
1.8836603e-43
9.5435773e-44
6.4297528e-44
6.9029561e-44
6.4880178e-44
5.9302449e-44
5.8590333e-44
6.3199575e-44
7.0160459e-44
6.7610265e-44
1.0033283e-43
1.3493653e-43
1.4100733e-43
1.1009598e-43
9.878122e-44
6.9873332e-44
6.7411068e-44
6.0494196e-44
6.5402508e-44
6.7704484e-44
6.6383859e-44
6.4219141e-44
6.5927868e-44
1.7720495e-43
1.7629172e-43
1.4319224e-43
1.4017395e-43
1.0656868e-43
1.0307347e-43
1.0928806e-43
9.4321143e-44
1.6309664e-43
1.7898092e-43
6.0032318e-44
6.6103907e-44
7.0084609e-44
6.6298914e-44
6.9057502e-44
6.4424e-44
6.1253654e-44
6.6956766e-44
6.565312e-44
6.5523043e-44
6.2918131e-44
6.4395457e-44
6.6057131e-44
6.9205499e-44
6.5373416e-44
6.0811015e-44
4.1582352e-43
4.4584948e-43
4.1957949e-43
4.280193e-43
3.6613901e-43
6.2168826e-43
8.8452657e-43
3.2930163e-43
5.7327422e-43
5.207756e-43
3.1818831e-43
3.1158011e-43
4.2734369e-43
3.9972604e-43
3.801795e-43
4.0450734e-43
7.5650343e-43
7.3613075e-43
7.4709743e-43
7.6754351e-43
5.4680025e-43
5.3750731e-43
5.7042255e-43
5.866048e-43
5.3413449e-43
5.626329e-43
5.6771808e-43
5.5384034e-43
7.6768684e-43
7.3155675e-43
7.0568803e-43
7.5441733e-43
7.0267698e-43
7.629968e-43
7.2523285e-43
7.4193316e-43
5.6493095e-43
5.1235366e-43
5.1714045e-43
5.5102265e-43
5.5091181e-43
5.6609245e-43
5.6587284e-43
5.9011104e-43
7.4248942e-43
6.9406792e-43
7.3339592e-43
7.6398379e-43
4.8598773e-43
6.1042915e-43
3.073827e-43
3.1118144e-43
4.7951449e-43
4.2473124e-43
2.8878429e-43
2.9500754e-43
3.5678986e-43
3.6189547e-43
3.8170575e-43
3.8578604e-43
4.0053407e-43
3.797411e-43
3.8460978e-43
4.1357562e-43
3.6999029e-43
3.8278067e-43
3.6985123e-43
4.0280954e-43
3.2089538e-43
4.4954048e-43
5.5092717e-43
2.7818287e-43
5.2168925e-43
5.5935843e-43
2.7445449e-43
2.9227191e-43
3.8519102e-43
3.4739616e-43
3.5725506e-43
3.930002e-43
5.206889e-43
4.9658642e-43
5.7427919e-43
5.4030823e-43
7.2751292e-43
6.9349974e-43
7.2942412e-43
7.4740091e-43
5.1936125e-43
5.4239495e-43
5.791943e-43
5.3477031e-43
7.3688489e-43
7.0232222e-43
7.3330254e-43
6.7667388e-43
6.000534e-43
6.625428e-43
5.8227648e-43
5.3683419e-43
5.6388746e-43
5.6189381e-43
5.9325276e-43
7.520782e-43
6.8319573e-43
5.1155136e-43
6.0355512e-43
2.9629243e-43
2.8618722e-43
3.6243877e-43
3.9864878e-43
3.6651362e-43
3.9702014e-43
4.332199e-43
4.4190809e-43
5.0135444e-43
5.0752919e-43
3.3297078e-43
3.6505747e-43
5.8972856e-43
3.7844523e-43
2.0472761e-43
2.5911197e-43
1.6749987e-43
1.4919119e-43
1.7460272e-43
2.4230864e-43
1.6661775e-43
1.491536e-43
9.025169e-44
8.5089812e-44
8.1618109e-44
8.1814451e-44
8.7688875e-44
9.7679943e-44
8.8550115e-44
8.0434639e-44
1.2302933e-43
9.1712957e-44
1.1151431e-43
1.0034587e-43
1.2292736e-43
9.5598948e-44
1.1551641e-43
1.1713047e-43
5.7006593e-44
5.2914032e-44
5.7063318e-44
5.5918161e-44
5.7370997e-44
5.3354937e-44
5.5344343e-44
5.4719527e-44
9.4816865e-44
9.1406473e-44
8.7776082e-44
8.3965171e-44
1.2714681e-43
9.4413119e-44
1.1800342e-43
1.1977625e-43
5.7415836e-44
5.3931978e-44
5.7136323e-44
5.662018e-44
8.458137e-44
9.2023263e-44
2.8039769e-43
2.077348e-43
1.6491042e-43
1.8999416e-43
2.6434243e-43
1.8987347e-43
1.60364e-43
1.8386153e-43
1.2559977e-43
3.3492162e-43
2.723788e-43
1.0669987e-43
1.1095764e-43
2.9614188e-43
3.0755902e-43
1.2126397e-43
1.4934855e-43
3.6657636e-43
3.7578061e-43
1.2393621e-43
1.408939e-43
3.3691849e-43
3.5141438e-43
1.3083615e-43
4.1288087e-43
1.2897735e-43
3.7246123e-43
1.1174014e-43
3.612628e-43
1.4197242e-43
4.1959472e-43
1.4199982e-43
3.2427434e-43
3.9097e-43
1.434892e-43
1.3316723e-43
4.5010272e-43
1.6167879e-43
1.610806e-43
4.414649e-43
1.8563109e-43
1.9178436e-43
1.7323586e-43
1.6672461e-43
1.8587574e-43
1.9044728e-43
1.5154908e-43
1.5207549e-43
1.7120899e-43
1.8355781e-43
1.4933289e-43
1.4018531e-43
1.6407011e-43
1.7562855e-43
1.6277886e-43
1.5461293e-43
1.5229151e-43
1.649685e-43
1.5615004e-43
1.491702e-43
1.6946698e-43
1.6908698e-43
1.3719931e-43
1.4230993e-43
1.5638761e-43
1.7543007e-43
1.4253855e-43
1.2978456e-43
1.473617e-43
1.7026809e-43
1.5368314e-43
1.3911819e-43
1.4804045e-43
1.6291758e-43
1.3962904e-43
1.2781096e-43
1.658542e-43
1.5891383e-43
1.3673509e-43
1.4434095e-43
1.4063473e-43
1.6155732e-43
1.7124881e-43
1.4918981e-43
1.4253622e-43
1.6431355e-43
1.484318e-43
1.2967274e-43
1.5895928e-43
1.7160472e-43
1.4752244e-43
1.3694917e-43
1.4321757e-43
1.7001731e-43
1.7359027e-43
1.4913966e-43
1.420066e-43
1.6470738e-43
1.7549638e-43
1.5323513e-43
1.5351709e-43
1.7472828e-43
1.597724e-43
1.3999103e-43
1.6322748e-43
1.8116514e-43
1.5915401e-43
1.4481952e-43
1.5037338e-43
1.6701586e-43
1.461924e-43
1.3316587e-43
1.4613109e-43
1.6551499e-43
1.7590868e-43
1.5470606e-43
1.5035416e-43
1.7060595e-43
1.8074347e-43
1.5861211e-43
1.5027981e-43
1.7056643e-43
1.5298845e-43
1.3679955e-43
1.5998724e-43
1.5599908e-43
1.3483676e-43
1.3812019e-43
1.6202241e-43
1.7059407e-43
1.49815e-43
1.4279406e-43
1.5765258e-43
1.7790968e-43
1.6921269e-43
1.4804579e-43
1.3765695e-43
1.5773389e-43
1.6167323e-43
1.4036733e-43
1.5367227e-43
1.4996852e-43
1.2864372e-43
1.3091911e-43
1.2449409e-43
1.4127194e-43
1.5154622e-43
1.3344487e-43
1.235732e-43
1.4319418e-43
1.5908238e-43
1.4045706e-43
1.3096799e-43
1.4898341e-43
1.5058509e-43
1.3220171e-43
1.3495715e-43
1.5251158e-43
1.7420929e-43
1.5263818e-43
1.2908569e-43
1.4536242e-43
1.659536e-43
1.4758257e-43
1.5563665e-43
1.53284e-43
1.3587563e-43
1.391425e-43
1.426029e-43
1.5994818e-43
1.6355133e-43
1.4644702e-43
1.7060639e-43
1.9490182e-43
1.8119967e-43
1.5992752e-43
1.6416635e-43
1.8577382e-43
1.7413666e-43
1.5427662e-43
1.6377784e-43
1.5922808e-43
1.3945644e-43
1.4517029e-43
1.4310306e-43
1.6182167e-43
1.6868256e-43
1.5039441e-43
1.2640007e-43
2.901938e-43
2.6983258e-43
1.1229614e-43
1.1901841e-43
3.1781446e-43
2.7972987e-43
1.2631822e-43
1.229067e-43
3.4595126e-43
3.1480998e-43
1.1599027e-43
1.1862196e-43
3.3141243e-43
3.5003566e-43
1.1676133e-43
1.3086699e-43
1.4145503e-43
1.4098601e-43
1.3432262e-43
1.5265561e-43
1.4703043e-43
1.2108979e-43
1.2901981e-43
1.5502953e-43
1.4976414e-43
1.2589684e-43
1.2929275e-43
1.4281298e-43
1.3845725e-43
1.2948039e-43
1.3698642e-43
1.3075168e-43
3.0991425e-43
3.8747337e-43
1.1544886e-43
1.2008198e-43
2.9976027e-43
2.970308e-43
1.1807122e-43
1.1864743e-43
2.9870065e-43
3.0058788e-43
1.0183504e-43
3.6653244e-43
1.2738019e-43
3.5435963e-43
1.3431412e-43
1.6052132e-43
1.4895627e-43
1.3871482e-43
1.4858033e-43
1.431989e-43
1.5213857e-43
1.3640238e-43
1.3399052e-43
1.5703196e-43
1.6629212e-43
1.4099839e-43
1.356143e-43
1.6572025e-43
1.5908576e-43
1.3381937e-43
1.3750419e-43
2.3779085e-43
1.1830623e-43
9.5546626e-44
3.3764509e-43
1.1973312e-43
1.1157962e-43
2.8207454e-43
2.6866086e-43
2.9152583e-43
1.2596054e-43
3.4389828e-43
1.2214166e-43
1.3462443e-43
3.4636e-43
3.4266622e-43
1.3915788e-43
1.2101886e-43
3.1163725e-43
3.062328e-43
1.1191824e-43
1.2702942e-43
1.2713812e-43
3.8559756e-43
2.9647277e-43
1.4269495e-43
3.6266723e-43
3.2291575e-43
1.3432537e-43
3.5429854e-43
2.8162201e-43
1.2535579e-43
1.1624034e-43
1.7412025e-43
1.8273372e-43
1.4132083e-43
1.4275408e-43
1.5876853e-43
1.7236207e-43
1.6475971e-43
1.5352957e-43
1.4916983e-43
1.5411858e-43
1.4411178e-43
1.3966937e-43
1.6022114e-43
1.7041278e-43
1.4349616e-43
1.3506971e-43
1.7070389e-43
1.6084678e-43
1.4945954e-43
1.6028228e-43
1.5195743e-43
1.4730144e-43
1.3595977e-43
1.4652316e-43
1.677064e-43
1.5579713e-43
1.3086745e-43
1.4125629e-43
1.8038877e-43
1.7250899e-43
1.4423966e-43
1.4924247e-43
1.4963581e-43
1.7004627e-43
1.8186073e-43
1.5839735e-43
1.4511432e-43
1.6646859e-43
1.7969269e-43
1.5614196e-43
1.656747e-43
1.8679042e-43
1.6162651e-43
1.4726872e-43
1.6642131e-43
1.855755e-43
1.7143085e-43
1.543151e-43
1.4252722e-43
1.6670976e-43
1.7360311e-43
1.4988021e-43
1.3872088e-43
1.5863927e-43
1.6485393e-43
1.4300363e-43
1.5690068e-43
1.6882576e-43
1.4765491e-43
1.368386e-43
1.5513953e-43
1.7677223e-43
1.6137052e-43
1.4127647e-43
1.5014954e-43
1.7141222e-43
1.8887831e-43
1.6403704e-43
1.4729173e-43
1.706889e-43
1.8862399e-43
1.6239906e-43
1.8628905e-43
1.8426397e-43
1.5730173e-43
1.6144627e-43
1.438173e-43
1.6121684e-43
1.7726999e-43
1.5485594e-43
1.6705684e-43
1.5409607e-43
1.3458714e-43
1.4660265e-43
1.7507568e-43
1.707096e-43
1.4835861e-43
1.5201379e-43
1.5383923e-43
1.7732858e-43
1.8129649e-43
1.5816081e-43
3.1489494e-42
3.0981059e-42
4.8437885e-42
4.2771661e-42
2.9477945e-42
3.2908496e-42
3.6687254e-42
3.4089057e-42
2.8387175e-42
8.8367302e-42
5.4075403e-42
3.2932766e-42
4.650425e-42
2.9288497e-42
4.0931923e-42
8.2089768e-43
1.7545811e-42
1.6398341e-42
8.0023936e-43
7.6846376e-42
9.7105229e-42
1.9066469e-42
5.8122929e-42
2.5660042e-42
3.7069931e-42
3.5187591e-42
4.0492095e-42
6.7852074e-42
2.8244034e-42
2.1256971e-42
2.2122203e-42
2.0662447e-42
5.5043038e-42
2.0200366e-42
5.0879199e-42
5.9535735e-42
5.6181809e-42
1.1339315e-42
1.4251779e-42
1.4709768e-42
2.2107776e-42
1.8154718e-42
1.1404312e-42
1.2364276e-42
1.4111302e-42
2.0766235e-42
1.4113274e-42
9.8173565e-42
2.5150168e-42
3.2543689e-42
6.9063374e-42
1.0295406e-41
2.6856035e-42
2.9798943e-42
5.2214776e-42
5.2756357e-42
5.4643879e-42
1.0296685e-42
7.207056e-43
6.9513442e-43
6.8348395e-43
6.5750903e-43
2.4450508e-42
2.8919288e-42
1.0088266e-42
6.8882943e-43
6.5593862e-43
6.8668248e-43
7.0620788e-43
3.0305123e-42
2.8804781e-42
4.1593488e-42
1.1190174e-42
7.8874853e-42
5.3393052e-42
9.698755e-42
1.7243571e-42
4.9238428e-42
5.137972e-42
6.2928535e-43
6.6122189e-43
6.729593e-43
6.8420008e-43
9.8347911e-43
1.3728129e-42
1.3680669e-42
9.6864498e-43
1.1575599e-42
1.1528467e-42
1.2160229e-42
1.1409413e-42
1.0789466e-42
9.8616006e-43
9.8764323e-43
1.0859765e-42
6.368239e-43
6.8986997e-43
6.5602123e-43
7.2624254e-43
9.3457793e-43
1.3882271e-42
1.2985896e-42
9.7399398e-43
1.0731381e-42
1.092782e-42
1.0091325e-42
1.0475264e-42
1.2480612e-42
1.1419472e-42
1.153974e-42
1.2194875e-42
1.6587183e-42
5.279137e-42
9.556415e-42
7.6425392e-44
1.2867288e-42
1.2738673e-41
7.7168089e-44
9.2912026e-42
8.5995071e-44
4.04283e-42
7.506721e-44
1.4492137e-42
8.4065299e-43
7.7861014e-43
8.0134428e-43
8.4919572e-43
7.5626089e-43
8.2864171e-43
8.1067778e-43
7.4654937e-43
8.7525874e-43
8.5599946e-43
7.5205277e-43
7.8099662e-43
9.2784824e-43
9.252832e-43
7.9674711e-43
8.1186879e-43
2.6799701e-43
2.6558534e-43
2.1406146e-43
2.1374567e-43
2.5938784e-43
2.6329398e-43
2.1380642e-43
2.0832777e-43
2.1566652e-43
2.0915077e-43
2.6210656e-43
2.616617e-43
2.078363e-43
2.5832108e-43
2.5489367e-43
2.0851778e-43
8.6829406e-43
8.7008434e-43
7.9273614e-43
7.9213722e-43
8.2915418e-43
9.3095112e-43
9.1641995e-43
8.2198348e-43
8.5435391e-43
9.8236095e-43
8.6564086e-43
8.6360045e-43
7.9361464e-43
8.0980006e-43
2.1214346e-43
2.2405428e-43
2.7148042e-43
2.6109739e-43
2.1125916e-43
2.5749164e-43
2.6286119e-43
2.1163363e-43
1.4224158e-42
1.3987714e-42
1.457837e-42
1.4614294e-42
1.0691654e-42
8.7888347e-43
9.1287092e-43
1.0562731e-42
1.0514556e-42
1.0747821e-42
8.8775414e-43
8.7131441e-43
1.1303382e-42
1.167174e-42
1.0444762e-42
1.0509045e-42
1.0226287e-42
1.0113309e-42
1.0990192e-42
1.1053498e-42
1.2838065e-42
1.2465235e-42
1.3135406e-42
1.3573363e-42
1.0204037e-42
8.5860006e-43
8.9942122e-43
1.0403991e-42
1.0689094e-42
8.7311204e-43
9.0035771e-43
1.047946e-42
1.1325112e-42
1.1598819e-42
1.0548584e-42
1.0342887e-42
1.0837285e-42
1.0243796e-42
9.9627695e-43
1.0992357e-42
9.1943487e-43
8.9163668e-43
7.6167184e-43
7.6155013e-43
7.8568572e-43
7.8956159e-43
8.491147e-43
8.4182995e-43
8.3162586e-43
7.5180456e-43
7.5843619e-43
8.0368108e-43
8.9234637e-43
8.7745937e-43
7.5657131e-43
7.8166082e-43
2.2384592e-43
2.1544642e-43
2.6745966e-43
2.7132242e-43
4.2559568e-43
3.9509838e-43
3.9767854e-43
4.2192753e-43
4.0194876e-43
4.3867518e-43
3.8977569e-43
4.3679945e-43
2.1490948e-43
2.6202605e-43
2.6363788e-43
2.1294357e-43
2.1527791e-43
2.0665635e-43
2.5698468e-43
2.6201831e-43
4.2778525e-43
3.9277979e-43
3.9694543e-43
4.2756012e-43
4.0379582e-43
4.3794937e-43
4.263812e-43
3.8429409e-43
2.0950721e-43
2.5818294e-43
2.5845722e-43
2.0989973e-43
7.1023332e-43
6.774124e-43
6.838464e-43
6.9748302e-43
5.6756018e-43
5.7159692e-43
5.760754e-43
5.7163386e-43
5.7528665e-43
5.606447e-43
5.5524769e-43
5.5274448e-43
5.7333181e-43
5.7343161e-43
5.7738807e-43
5.7578386e-43
6.8872532e-43
7.1160179e-43
7.0974187e-43
6.810153e-43
6.7848846e-43
6.7965109e-43
7.2069282e-43
7.1705419e-43
5.7674414e-43
5.5602917e-43
5.5965961e-43
5.6438131e-43
8.6585436e-43
7.952361e-43
8.1774004e-43
8.5316332e-43
8.2419111e-43
7.6072034e-43
7.7863288e-43
8.3040107e-43
9.1582322e-43
8.0772012e-43
7.9857556e-43
8.9707689e-43
9.3237196e-43
8.1917067e-43
8.1931838e-43
9.3247647e-43
2.2368766e-43
2.1411896e-43
2.6697254e-43
2.7448902e-43
4.4490316e-43
4.4367071e-43
4.148178e-43
4.1104335e-43
2.1344228e-43
2.6416677e-43
2.6449506e-43
2.1575743e-43
2.547362e-43
2.6287594e-43
2.1366412e-43
2.0640149e-43
2.1025427e-43
2.6723163e-43
2.5853197e-43
2.1420263e-43
3.0094294e-42
3.9702096e-42
1.4782146e-42
1.4469057e-42
1.3932582e-42
1.3369445e-42
1.05183e-42
1.0212825e-42
1.0727417e-42
8.7690582e-43
8.895319e-43
1.0391953e-42
1.4296873e-42
1.3974214e-42
1.29957e-42
1.4014236e-42
1.0213655e-42
8.1378207e-43
8.5606965e-43
1.0009482e-42
1.0975035e-42
9.0369836e-43
9.2665988e-43
1.0728986e-42
9.9952467e-43
1.0944587e-42
1.086755e-42
9.8135985e-43
1.1458292e-42
1.1165136e-42
2.8032493e-42
2.9407901e-42
2.5205306e-43
1.0884483e-42
7.5548916e-43
2.4851763e-43
1.0447393e-42
6.0909616e-43
3.2982496e-43
3.6150333e-43
9.7304068e-43
6.9524893e-43
2.2959617e-43
2.4464783e-43
3.8326732e-43
3.5242985e-43
1.1914623e-42
8.9144342e-43
3.5394723e-43
3.6675463e-43
9.424957e-43
8.9044421e-43
9.1082951e-43
9.8571195e-43
1.648674e-43
1.7668192e-43
1.5774487e-43
1.478523e-43
1.4994685e-43
1.6033792e-43
1.4809504e-43
1.3755317e-43
1.6002154e-43
1.5614589e-43
1.4137378e-43
1.4652301e-43
1.6310532e-43
1.6278025e-43
1.4561904e-43
1.4673681e-43
1.5727865e-43
1.5856212e-43
1.4307364e-43
1.4692724e-43
8.6841993e-43
7.9269602e-43
8.9140194e-43
9.463244e-43
8.7371653e-43
9.0892673e-43
8.5624258e-43
8.7955886e-43
9.5061747e-43
1.7871123e-43
1.4275518e-43
9.4209579e-44
7.2374269e-44
6.927927e-44
6.1368927e-44
6.9563873e-44
6.43163e-44
6.2596759e-44
5.8352583e-44
6.4433386e-44
6.6295527e-44
6.2839911e-44
5.9872229e-44
6.6335576e-44
1.0332412e-43
1.0162628e-43
6.6685763e-44
6.5157808e-44
6.0718993e-44
6.5651401e-44
6.3674305e-44
6.4829107e-44
6.1771589e-44
6.3799196e-44
1.0408716e-43
9.104464e-44
1.4984819e-43
1.4645949e-43
1.8210757e-43
1.8071879e-43
5.084502e-43
4.9875697e-43
2.6351152e-43
2.9663818e-43
3.8193429e-43
3.9412267e-43
4.6859502e-43
6.6575454e-43
2.3806853e-43
3.3021108e-43
9.5261878e-43
3.7343233e-43
2.3120952e-43
3.01323e-43
3.6113003e-43
3.2425751e-43
3.4170414e-43
3.6629691e-43
3.42309e-43
3.2473205e-43
4.0269834e-43
3.9801409e-43
4.9562688e-43
4.7035012e-43
4.8517541e-43
5.1369353e-43
5.2771344e-43
4.6789356e-43
4.7812631e-43
5.4781485e-43
6.6635453e-43
6.9656206e-43
6.6363652e-43
6.2894147e-43
7.0111534e-43
7.3814164e-43
5.0970147e-43
4.9623161e-43
5.2536836e-43
5.4417693e-43
5.8934465e-43
5.5579701e-43
5.3661024e-43
5.9824052e-43
6.9486302e-43
6.099764e-43
6.1508654e-43
7.1375767e-43
6.9584555e-43
6.5464659e-43
7.3723915e-43
7.6274106e-43
5.386778e-43
5.3516767e-43
2.7947073e-43
3.6138158e-43
7.8696175e-43
5.0649936e-43
2.379103e-43
3.2564318e-43
3.3883276e-43
3.1843164e-43
4.0399645e-43
3.9347081e-43
3.8918312e-43
3.7657011e-43
4.6433545e-43
4.5410564e-43
8.1632283e-44
1.283258e-43
9.4321944e-44
5.7853039e-44
5.3939462e-44
1.0293546e-43
1.1793967e-43
5.7831878e-44
5.6639278e-44
8.283287e-44
8.4077456e-44
9.0851352e-44
9.7246963e-44
8.924374e-44
8.8954303e-44
8.1661693e-44
1.2876204e-43
9.5827136e-44
1.1899068e-43
1.207021e-43
5.9119587e-44
5.4410749e-44
5.5503118e-44
5.4752355e-44
2.0923102e-43
2.7894262e-43
1.8479161e-43
1.6128428e-43
2.5850683e-43
1.7854179e-43
1.9027037e-43
1.6048226e-43
9.4929252e-44
9.4013242e-44
8.8854324e-44
8.6164291e-44
9.6076168e-44
8.1965862e-44
8.977985e-44
7.8705314e-44
1.2915453e-43
9.4221639e-44
1.1519841e-43
1.0749865e-43
1.2618241e-43
1.0184881e-43
1.1961701e-43
1.2030659e-43
2.0828056e-43
2.6024443e-43
1.6317949e-43
1.4643129e-43
2.4077002e-43
1.6131892e-43
1.7559732e-43
1.4632431e-43