/*--------------------------------*- C++ -*----------------------------------*\
  =========                 |
  \\      /  F ield         | OpenFOAM: The Open Source CFD Toolbox
   \\    /   O peration     | Website:  https://openfoam.org
    \\  /    A nd           | Version:  7
     \\/     M anipulation  |
\*---------------------------------------------------------------------------*/
FoamFile
{
    version     2.0;
    format      ascii;
    class       volScalarField;
    location    "7000";
    object      p;
}
// * * * * * * * * * * * * * * * * * * * * * * * * * * * * * * * * * * * * * //

dimensions      [0 2 -2 0 0 0 0];

internalField   nonuniform List<scalar> 
34158
(
-8.794033e+84
-8.8442291e+84
-8.901084e+84
-8.962374e+84
-8.7951115e+84
-8.744172e+84
-8.526116e+84
-8.5702049e+84
-7.3211994e+84
-7.2972624e+84
-8.9160556e+84
-8.8514486e+84
-8.6193178e+84
-8.6741355e+84
-8.771743e+84
-8.5271053e+84
-8.7223472e+84
-8.4843334e+84
-8.2356229e+84
-8.2727941e+84
-7.550432e+84
-7.534702e+84
-7.3791584e+84
-7.3464517e+84
-6.6619427e+84
-7.0035106e+84
-6.9845311e+84
-6.6448238e+84
-7.3409633e+84
-7.5361825e+84
-7.5208726e+84
-7.3228795e+84
-7.3124247e+84
-7.507622e+84
-6.6053295e+84
-6.5949945e+84
-8.7903354e+84
-8.7311028e+84
-8.8937489e+84
-8.6318732e+84
-8.8297817e+84
-8.5768699e+84
-8.3162193e+84
-8.3639194e+84
-8.4304376e+84
-8.3829203e+84
-8.7698498e+84
-8.5106893e+84
-8.2399428e+84
-8.7205791e+84
-8.4683227e+84
-8.2040412e+84
-7.9259548e+84
-7.9560501e+84
-7.5665156e+84
-7.5839312e+84
-7.5395324e+84
-7.5240744e+84
-7.2351962e+84
-7.2223441e+84
-6.2685687e+84
-7.4028022e+84
-7.0532814e+84
-6.6804968e+84
-6.7019605e+84
-7.025203e+84
-7.3996236e+84
-7.5940862e+84
-7.5773723e+84
-7.3769449e+84
-7.3617816e+84
-7.5613411e+84
-7.5489824e+84
-7.3511178e+84
-6.5749292e+84
-7.1370797e+84
-7.1190105e+84
-6.8894633e+84
-6.8703801e+84
-6.8620093e+84
-7.1098775e+84
-6.5583617e+84
-7.3959114e+84
-7.4114928e+84
-7.5279192e+84
-7.514954e+84
-7.6032383e+84
-7.6153557e+84
-7.6816841e+84
-7.5882234e+84
-7.595684e+84
-7.6732747e+84
-7.6663644e+84
-7.3859758e+84
-7.506174e+84
-7.380349e+84
-7.4990475e+84
-7.3720032e+84
-7.3772277e+84
-7.4943574e+84
-7.4888415e+84
-7.6613733e+84
-7.5823319e+84
-7.6529331e+84
-7.5751878e+84
-6.6267771e+84
-6.6160841e+84
-6.6300865e+84
-6.6187828e+84
-6.9188915e+84
-6.9078942e+84
-8.749004e+84
-8.6898145e+84
-8.4661961e+84
-8.4139266e+84
-8.4805368e+84
-8.5323634e+84
-8.8919486e+84
-8.6161e+84
-8.3309538e+84
-8.827973e+84
-8.5608677e+84
-8.2833541e+84
-7.9925206e+84
-8.0330242e+84
-8.0895614e+84
-8.4167323e+84
-8.4402888e+84
-8.0489864e+84
-8.3727909e+84
-8.3947363e+84
-8.7697113e+84
-8.5086498e+84
-8.2275493e+84
-7.9328596e+84
-8.7204503e+84
-8.4661495e+84
-8.1921998e+84
-7.9044502e+84
-7.6043766e+84
-7.6277181e+84
-7.5725489e+84
-7.5558816e+84
-7.2488368e+84
-7.2638327e+84
-7.5383143e+84
-7.2321286e+84
-7.5224383e+84
-7.2201996e+84
-8.5030643e+84
-8.4803e+84
-6.2342272e+84
-6.2986218e+84
-7.8184331e+84
-7.0759561e+84
-6.7222802e+84
-7.415635e+84
-7.6146961e+84
-7.6045089e+84
-7.4089289e+84
-7.1914538e+84
-6.9377523e+84
-6.915347e+84
-7.1692389e+84
-6.5931368e+84
-6.6138673e+84
-7.1545973e+84
-7.1463934e+84
-6.9021041e+84
-6.8989195e+84
-7.5866223e+84
-7.4694333e+84
-7.4534744e+84
-7.5716432e+84
-7.7488304e+84
-7.6719015e+84
-7.6586109e+84
-7.7378667e+84
-7.7301892e+84
-7.6505457e+84
-7.6424881e+84
-7.7217492e+84
-7.432057e+84
-7.4410163e+84
-7.5609841e+84
-7.5524377e+84
-7.5479699e+84
-7.4266664e+84
-7.4174706e+84
-7.5391461e+84
-7.6362018e+84
-7.7149238e+84
-7.6284916e+84
-7.7077521e+84
-7.6226126e+84
-7.6253697e+84
-7.7025091e+84
-7.4151048e+84
-7.5362052e+84
-7.5351429e+84
-7.4165938e+84
-6.5452852e+84
-6.8531635e+84
-6.8331808e+84
-7.2733495e+84
-7.2570223e+84
-7.0955395e+84
-7.0766653e+84
-7.2468562e+84
-7.0665674e+84
-7.0647562e+84
-7.242087e+84
-6.8244815e+84
-7.2392299e+84
-7.2333908e+84
-7.0610498e+84
-7.0528689e+84
-6.5287775e+84
-7.4607194e+84
-7.4671657e+84
-7.5332115e+84
-7.5396323e+84
-7.4764432e+84
-7.4886386e+84
-7.548225e+84
-7.5578071e+84
-7.6076902e+84
-7.6511819e+84
-7.6433393e+84
-7.5989799e+84
-7.5909425e+84
-7.6360877e+84
-7.6308135e+84
-7.585196e+84
-7.6693939e+84
-7.6745828e+84
-7.7077672e+84
-7.7026824e+84
-7.6811866e+84
-7.6882494e+84
-7.7198444e+84
-7.7137431e+84
-7.7430647e+84
-7.7324585e+84
-7.7375156e+84
-7.7667188e+84
-7.762052e+84
-7.6547554e+84
-7.6563991e+84
-7.6894127e+84
-7.687667e+84
-7.6600862e+84
-7.6652539e+84
-7.6984315e+84
-7.6931722e+84
-7.7571942e+84
-7.7277847e+84
-7.7221109e+84
-7.7510901e+84
-7.747282e+84
-7.7184942e+84
-7.716776e+84
-7.7453633e+84
-7.449873e+84
-7.4559516e+84
-7.5285433e+84
-7.5236377e+84
-7.5806074e+84
-7.6263625e+84
-7.6211389e+84
-7.5756798e+84
-7.5222334e+84
-7.4487308e+84
-7.4499752e+84
-7.5207676e+84
-7.5717674e+84
-7.5734323e+84
-7.6178232e+84
-7.6165032e+84
-7.4402413e+84
-7.4387235e+84
-7.5107112e+84
-7.5104186e+84
-7.441571e+84
-7.44853e+84
-7.5186706e+84
-7.5137495e+84
-7.6142661e+84
-7.5693016e+84
-7.5647207e+84
-7.6094268e+84
-7.5605088e+84
-7.5613334e+84
-7.6058936e+84
-7.6045144e+84
-7.7435894e+84
-7.7149936e+84
-7.7104783e+84
-7.7388055e+84
-7.685289e+84
-7.6523969e+84
-7.6476809e+84
-7.6807645e+84
-7.7349037e+84
-7.7064534e+84
-7.7032837e+84
-7.7317847e+84
-7.6768731e+84
-7.6438767e+84
-7.6418871e+84
-7.6742097e+84
-6.2725528e+84
-6.6515159e+84
-6.6391322e+84
-6.651613e+84
-6.6403424e+84
-6.9437593e+84
-6.9312107e+84
-6.6538948e+84
-6.9264292e+84
-6.6406279e+84
-6.9156154e+84
-8.5185095e+84
-8.569494e+84
-8.7337422e+84
-8.4334913e+84
-8.6746951e+84
-8.3816948e+84
-8.1225229e+84
-8.0768148e+84
-8.1326147e+84
-8.4915253e+84
-8.4631325e+84
-8.1771968e+84
-8.515649e+84
-8.5405519e+84
-8.8918171e+84
-8.6140371e+84
-8.318253e+84
-8.0092153e+84
-8.8278326e+84
-8.5586648e+84
-8.2708846e+84
-7.9689054e+84
-7.6563543e+84
-7.689641e+84
-7.7277555e+84
-8.0769842e+84
-8.0997213e+84
-8.2780325e+84
-8.2548407e+84
-7.6942744e+84
-8.0597364e+84
-8.0380497e+84
-8.2133658e+84
-8.2352845e+84
-8.5085353e+84
-8.2258584e+84
-7.9243768e+84
-7.6137037e+84
-8.4659963e+84
-8.1895873e+84
-7.8978102e+84
-7.5921687e+84
-7.2805256e+84
-7.2986713e+84
-7.5711229e+84
-7.2615878e+84
-7.5548065e+84
-7.2468784e+84
-7.5398431e+84
-7.2340378e+84
-7.5240776e+84
-7.2220997e+84
-8.3037546e+84
-8.2857126e+84
-8.5556401e+84
-8.5266595e+84
-8.3456906e+84
-8.5114873e+84
-8.500322e+84
-8.5778364e+84
-8.5892434e+84
-8.3244965e+84
-8.4904114e+84
-8.4782255e+84
-8.6070069e+84
-8.5806522e+84
-6.552607e+84
-6.5690828e+84
-6.2629695e+84
-6.332104e+84
-7.8226104e+84
-7.8830441e+84
-7.8579135e+84
-7.8786606e+84
-7.8533193e+84
-7.8487336e+84
-7.8439372e+84
-7.8273333e+84
-7.8330883e+84
-7.2061202e+84
-7.2012016e+84
-6.9503755e+84
-6.9479933e+84
-6.634106e+84
-7.4815172e+84
-7.4759907e+84
-7.4814557e+84
-7.5975134e+84
-7.593224e+84
-7.6849942e+84
-7.6797338e+84
-7.7668567e+84
-7.7605313e+84
-7.6779572e+84
-7.6758034e+84
-7.7565629e+84
-7.7529831e+84
-7.4762108e+84
-7.4752582e+84
-7.5918458e+84
-7.5906631e+84
-7.1475743e+84
-7.3289709e+84
-7.3119633e+84
-7.1272476e+84
-6.8987717e+84
-6.875978e+84
-7.2991401e+84
-7.2914083e+84
-7.1148799e+84
-7.1107982e+84
-6.5633769e+84
-6.864009e+84
-6.8622847e+84
-6.5835063e+84
-7.2856535e+84
-7.2760767e+84
-7.1045436e+84
-7.0931461e+84
-7.2770492e+84
-7.0913781e+84
-7.2739482e+84
-7.0989655e+84
-7.7070906e+84
-7.6661571e+84
-7.6569694e+84
-7.699978e+84
-7.6161585e+84
-7.546022e+84
-7.5331033e+84
-7.6055692e+84
-7.5156406e+84
-7.5229848e+84
-7.5963471e+84
-7.5883681e+84
-7.6922781e+84
-7.6479557e+84
-7.640339e+84
-7.6856298e+84
-7.8306861e+84
-7.80202e+84
-7.7968929e+84
-7.8258065e+84
-7.7732178e+84
-7.7421338e+84
-7.7360106e+84
-7.7677064e+84
-7.7243209e+84
-7.7298801e+84
-7.7622027e+84
-7.7576724e+84
-7.8209098e+84
-7.7918229e+84
-7.7873781e+84
-7.8164407e+84
-7.8121738e+84
-7.7835773e+84
-7.7778066e+84
-7.8066237e+84
-7.7536615e+84
-7.7199535e+84
-7.7142157e+84
-7.7479562e+84
-7.7071527e+84
-7.7102991e+84
-7.7437028e+84
-7.7403799e+84
-7.8024211e+84
-7.7732245e+84
-7.7699386e+84
-7.7996951e+84
-7.500282e+84
-7.4996338e+84
-7.5733936e+84
-7.5725363e+84
-7.502143e+84
-7.5100935e+84
-7.582787e+84
-7.5764397e+84
-7.6288993e+84
-7.6347749e+84
-7.6806975e+84
-7.6748786e+84
-7.6712254e+84
-7.6255477e+84
-7.6243365e+84
-7.668889e+84
-7.6665929e+84
-7.6230714e+84
-7.616873e+84
-7.6618546e+84
-7.5707084e+84
-7.4980423e+84
-7.4894085e+84
-7.5637423e+84
-7.4843161e+84
-7.4847871e+84
-7.5591454e+84
-7.5579087e+84
-7.6580017e+84
-7.6119727e+84
-7.6106713e+84
-7.6565888e+84
-7.7366971e+84
-7.7037797e+84
-7.7327907e+84
-7.6997864e+84
-7.7969283e+84
-7.7668012e+84
-7.7629277e+84
-7.7928391e+84
-7.6967025e+84
-7.7300167e+84
-7.7289046e+84
-7.6954801e+84
-7.7585896e+84
-7.7600832e+84
-7.7898601e+84
-7.6914472e+84
-7.6916969e+84
-7.7220348e+84
-7.7223181e+84
-7.6928927e+84
-7.6949096e+84
-7.7276416e+84
-7.724572e+84
-7.7525574e+84
-7.7562765e+84
-7.4848885e+84
-7.4848586e+84
-7.5581305e+84
-7.5588243e+84
-7.6106819e+84
-7.6562698e+84
-7.6105935e+84
-7.6551555e+84
-7.6550864e+84
-7.61263e+84
-7.6122297e+84
-7.6550632e+84
-7.5617722e+84
-7.4882035e+84
-7.4913583e+84
-7.5615086e+84
-6.8309475e+84
-6.8095e+84
-6.8342573e+84
-6.8132336e+84
-7.1012841e+84
-7.0806881e+84
-7.0700145e+84
-7.0679027e+84
-7.4002569e+84
-7.2805013e+84
-7.2635591e+84
-7.3866508e+84
-7.3769217e+84
-7.2535437e+84
-7.2503801e+84
-7.3710307e+84
-7.2355764e+84
-7.2454859e+84
-7.3665044e+84
-7.3591691e+84
-7.2413626e+84
-7.2343126e+84
-7.3580199e+84
-7.3611136e+84
-6.8040139e+84
-7.0643577e+84
-7.0555875e+84
-7.3602163e+84
-7.2407056e+84
-7.2288907e+84
-7.3516944e+84
-7.3485256e+84
-7.2251197e+84
-7.2298281e+84
-7.3509612e+84
-6.8061655e+84
-6.8003818e+84
-6.801908e+84
-7.532576e+84
-7.5390312e+84
-7.6101876e+84
-7.6168871e+84
-7.5494433e+84
-7.5625851e+84
-7.6265894e+84
-7.6371329e+84
-7.682045e+84
-7.7142546e+84
-7.7067909e+84
-7.6729329e+84
-7.6644512e+84
-7.6993977e+84
-7.6930959e+84
-7.6578893e+84
-7.7228936e+84
-7.7291859e+84
-7.7542945e+84
-7.7481334e+84
-7.7355004e+84
-7.7416651e+84
-7.7647734e+84
-7.7599074e+84
-7.7830647e+84
-7.7721718e+84
-7.7780937e+84
-7.8009648e+84
-7.7953618e+84
-7.7076516e+84
-7.709418e+84
-7.7337743e+84
-7.7319277e+84
-7.7125961e+84
-7.7177847e+84
-7.742555e+84
-7.7366054e+84
-7.7895043e+84
-7.7662836e+84
-7.7602801e+84
-7.7834745e+84
-7.7797958e+84
-7.7570944e+84
-7.75492e+84
-7.7769016e+84
-7.5215125e+84
-7.5270847e+84
-7.6048834e+84
-7.6003158e+84
-7.6525017e+84
-7.6878545e+84
-7.6828306e+84
-7.6477331e+84
-7.5995555e+84
-7.5212454e+84
-7.5231675e+84
-7.5989055e+84
-7.6447455e+84
-7.6457324e+84
-7.6797284e+84
-7.6784911e+84
-7.5115929e+84
-7.5095947e+84
-7.5867476e+84
-7.5864907e+84
-7.5127627e+84
-7.5201226e+84
-7.5956114e+84
-7.5901199e+84
-7.6762216e+84
-7.6418523e+84
-7.6371644e+84
-7.6719087e+84
-7.6322043e+84
-7.6337963e+84
-7.6683881e+84
-7.6660961e+84
-7.773678e+84
-7.752558e+84
-7.7493807e+84
-7.7704443e+84
-7.7298885e+84
-7.7052723e+84
-7.7015859e+84
-7.7264267e+84
-7.7664947e+84
-7.7458297e+84
-7.7419794e+84
-7.7228019e+84
-7.697984e+84
-7.6950087e+84
-7.7191289e+84
-6.3018447e+84
-6.2214938e+84
-6.2364008e+84
-6.4532616e+84
-6.4374915e+84
-6.6326943e+84
-6.6812091e+84
-6.6646206e+84
-6.6157252e+84
-6.6775161e+84
-6.6640954e+84
-6.9719556e+84
-6.9579688e+84
-6.6747314e+84
-6.9524165e+84
-6.6638278e+84
-6.9394928e+84
-6.9367079e+84
-6.6592064e+84
-6.6436738e+84
-6.9253646e+84
-8.536773e+84
-8.4864018e+84
-8.169178e+84
-8.2143001e+84
-8.2240153e+84
-8.2692135e+84
-8.73155e+84
-8.4198846e+84
-8.0986398e+84
-8.6728092e+84
-8.369019e+84
-8.053247e+84
-7.7650571e+84
-7.7265518e+84
-7.7637607e+84
-8.1185175e+84
-8.1384377e+84
-8.3233805e+84
-8.2988374e+84
-7.8015907e+84
-8.1810193e+84
-8.3693742e+84
-8.3458928e+84
-8.1583328e+84
-8.6139136e+84
-8.3160068e+84
-7.9995513e+84
-7.675294e+84
-8.5585171e+84
-8.2683627e+84
-7.9604371e+84
-7.6423234e+84
-7.3220027e+84
-7.3486112e+84
-7.3600177e+84
-7.9224177e+84
-7.7249551e+84
-7.7064198e+84
-7.9015059e+84
-8.1628951e+84
-8.1841396e+84
-7.3332942e+84
-7.8858251e+84
-7.6913508e+84
-7.6747246e+84
-7.8655745e+84
-8.1448954e+84
-8.1260986e+84
-8.2257731e+84
-7.9226242e+84
-7.6097437e+84
-7.2950704e+84
-8.1894064e+84
-7.8972827e+84
-7.5893195e+84
-7.278573e+84
-7.5723526e+84
-7.264006e+84
-7.5562332e+84
-7.2498057e+84
-7.5398824e+84
-7.235417e+84
-7.5241551e+84
-7.2245141e+84
-8.3116049e+84
-8.3201613e+84
-8.3957363e+84
-8.3862363e+84
-8.4575381e+84
-8.4616558e+84
-8.4721577e+84
-8.4663835e+84
-8.3059354e+84
-8.3797986e+84
-8.3725406e+84
-8.2995431e+84
-8.4547418e+84
-8.4500017e+84
-8.3933597e+84
-8.5651218e+84
-8.5501905e+84
-8.6290503e+84
-8.6444371e+84
-8.3670273e+84
-8.5363332e+84
-8.5220313e+84
-8.6004023e+84
-8.6153171e+84
-8.4387563e+84
-8.36234e+84
-8.3520169e+84
-8.4277556e+84
-8.5142772e+84
-8.5524152e+84
-8.5469704e+84
-8.5085379e+84
-8.5037606e+84
-8.542079e+84
-8.5369456e+84
-8.4989241e+84
-8.6212101e+84
-8.5801781e+84
-8.5748816e+84
-8.5908275e+84
-8.6263379e+84
-8.6324202e+84
-8.585008e+84
-8.3431369e+84
-8.3308195e+84
-8.4063578e+84
-8.4184387e+84
-8.4948809e+84
-8.5327556e+84
-8.4888213e+84
-8.4829057e+84
-8.4767454e+84
-8.4415442e+84
-8.6164169e+84
-8.6046485e+84
-8.4173528e+84
-8.5773814e+84
-8.5920427e+84
-8.6570911e+84
-8.6725086e+84
-6.8282555e+84
-6.8553756e+84
-6.854909e+84
-6.8286639e+84
-6.5875077e+84
-6.8852629e+84
-6.8648701e+84
-6.83717e+84
-6.858804e+84
-6.2951584e+84
-6.6076716e+84
-7.8600867e+84
-7.8622052e+84
-7.8881991e+84
-7.8856032e+84
-7.9021726e+84
-7.8812414e+84
-7.878214e+84
-7.874896e+84
-7.8698e+84
-7.8956423e+84
-7.8686137e+84
-7.8648957e+84
-7.8912953e+84
-7.8767727e+84
-7.8714193e+84
-7.8738779e+84
-7.9016733e+84
-7.8988105e+84
-6.6246618e+84
-7.340396e+84
-7.1585571e+84
-7.3391453e+84
-7.3321285e+84
-7.1553751e+84
-7.1454722e+84
-7.3312868e+84
-7.3341001e+84
-7.1442515e+84
-7.1518766e+84
-6.9113504e+84
-6.9092676e+84
-6.6034672e+84
-7.5512325e+84
-7.5480659e+84
-7.6209342e+84
-7.6218447e+84
-7.6727457e+84
-7.7174413e+84
-7.5432869e+84
-7.5431027e+84
-7.6148554e+84
-7.6147524e+84
-7.5455566e+84
-7.5524209e+84
-7.6213829e+84
-7.6176868e+84
-7.6679501e+84
-7.6706699e+84
-7.7154689e+84
-7.7122523e+84
-7.7095566e+84
-7.6646205e+84
-7.6653215e+84
-7.7097243e+84
-7.7883212e+84
-7.754335e+84
-7.7509488e+84
-7.7850774e+84
-7.7480201e+84
-7.7483313e+84
-7.782382e+84
-7.7815635e+84
-7.8162373e+84
-7.8472041e+84
-7.8442968e+84
-7.8134643e+84
-7.8119228e+84
-7.8423554e+84
-7.7810164e+84
-7.7479439e+84
-7.7467959e+84
-7.7788421e+84
-7.7451052e+84
-7.7459687e+84
-7.7774663e+84
-7.7761556e+84
-7.8077107e+84
-7.8104021e+84
-7.8398962e+84
-7.836577e+84
-7.8342609e+84
-7.8058125e+84
-7.8043256e+84
-7.8326828e+84
-7.5498136e+84
-7.5474177e+84
-7.6177073e+84
-7.6189815e+84
-7.5440499e+84
-7.5450997e+84
-7.6155126e+84
-7.6161961e+84
-7.7096686e+84
-7.6650348e+84
-7.6661136e+84
-7.7093147e+84
-7.7090023e+84
-7.6661309e+84
-7.667824e+84
-7.7092414e+84
-7.151193e+84
-7.3347269e+84
-7.4568132e+84
-7.4422387e+84
-7.3169348e+84
-7.3023845e+84
-7.3063079e+84
-7.4316699e+84
-7.4252637e+84
-7.1290418e+84
-6.8793284e+84
-6.8559351e+84
-7.1165544e+84
-7.1126397e+84
-7.4196247e+84
-7.29621e+84
-7.2848124e+84
-7.41048e+84
-7.4079959e+84
-7.2823499e+84
-7.2884477e+84
-7.4101095e+84
-6.8418218e+84
-6.8414693e+84
-6.8442533e+84
-6.8437952e+84
-7.1072192e+84
-7.0961779e+84
-7.0956757e+84
-7.1043985e+84
-6.8763401e+84
-6.8528555e+84
-7.2733261e+84
-7.2866356e+84
-7.4080648e+84
-7.3979845e+84
-7.3929382e+84
-7.2680285e+84
-7.270699e+84
-7.3931476e+84
-7.3960314e+84
-7.2706123e+84
-7.2815465e+84
-7.4019776e+84
-7.2710198e+84
-7.3939054e+84
-7.3925267e+84
-7.2669242e+84
-7.7678712e+84
-7.7383408e+84
-7.7297323e+84
-7.7615465e+84
-7.6946374e+84
-7.6192431e+84
-7.6049469e+84
-7.6830952e+84
-7.5860492e+84
-7.5935422e+84
-7.6724279e+84
-7.6643905e+84
-7.7548178e+84
-7.7204052e+84
-7.7125496e+84
-7.7479268e+84
-7.8596637e+84
-7.8380935e+84
-7.8345036e+84
-7.8565269e+84
-7.8158107e+84
-7.7930095e+84
-7.7883905e+84
-7.8117414e+84
-7.7779699e+84
-7.7833569e+84
-7.8074961e+84
-7.8028321e+84
-7.8531314e+84
-7.8306814e+84
-7.8258666e+84
-7.848037e+84
-7.8420101e+84
-7.8205376e+84
-7.8155746e+84
-7.8371778e+84
-7.7981121e+84
-7.7730677e+84
-7.7677626e+84
-7.7924938e+84
-7.7591911e+84
-7.7634695e+84
-7.7872053e+84
-7.7832619e+84
-7.833525e+84
-7.8106435e+84
-7.8067164e+84
-7.8300676e+84
-7.5725884e+84
-7.5706927e+84
-7.6499694e+84
-7.6497827e+84
-7.5722425e+84
-7.5794741e+84
-7.6577297e+84
-7.6519021e+84
-7.7011655e+84
-7.7064873e+84
-7.7425115e+84
-7.7372963e+84
-7.7337746e+84
-7.6982425e+84
-7.6962945e+84
-7.7302859e+84
-7.7262255e+84
-7.6936581e+84
-7.68863e+84
-7.7226757e+84
-7.6469824e+84
-7.5696338e+84
-7.5604887e+84
-7.6399622e+84
-7.5561208e+84
-7.5554863e+84
-7.6353482e+84
-7.6349484e+84
-7.7203488e+84
-7.6845391e+84
-7.6833573e+84
-7.7190159e+84
-7.778951e+84
-7.7540372e+84
-7.7765532e+84
-7.7515991e+84
-7.8269752e+84
-7.8030067e+84
-7.8005022e+84
-7.8242294e+84
-7.7500667e+84
-7.7751096e+84
-7.7736701e+84
-7.7489764e+84
-7.796982e+84
-7.7990247e+84
-7.8223395e+84
-7.7439877e+84
-7.7438082e+84
-7.7655466e+84
-7.7655147e+84
-7.7460631e+84
-7.7478996e+84
-7.7710125e+84
-7.7685352e+84
-7.7904446e+84
-7.7937711e+84
-7.5579454e+84
-7.5570483e+84
-7.635877e+84
-7.6372446e+84
-7.6845121e+84
-7.7188404e+84
-7.6837105e+84
-7.718175e+84
-7.7179002e+84
-7.686567e+84
-7.6869715e+84
-7.7178586e+84
-7.6407446e+84
-7.5628328e+84
-7.5673145e+84
-7.6423608e+84
-7.0565189e+84
-7.0757912e+84
-7.077112e+84
-7.056096e+84
-7.0426519e+84
-7.0457207e+84
-7.0455975e+84
-7.0427183e+84
-7.0530507e+84
-7.0743098e+84
-7.0922919e+84
-7.0708373e+84
-7.0400871e+84
-7.0422383e+84
-7.0596956e+84
-7.0577616e+84
-7.3076847e+84
-7.2894666e+84
-7.2789174e+84
-7.2747678e+84
-7.2699505e+84
-7.2597682e+84
-7.2588743e+84
-7.265971e+84
-7.4509214e+84
-7.4353586e+84
-7.4244433e+84
-7.4187832e+84
-7.4136896e+84
-7.4060905e+84
-7.4055958e+84
-7.4099706e+84
-7.0357864e+84
-7.0264461e+84
-7.0540945e+84
-7.045088e+84
-7.2657155e+84
-7.2531804e+84
-7.2492328e+84
-7.2533543e+84
-7.4083237e+84
-7.3986134e+84
-7.3951803e+84
-7.3985414e+84
-7.0466471e+84
-7.0274286e+84
-7.0380213e+84
-7.0291822e+84
-7.0287904e+84
-7.0382493e+84
-7.0290516e+84
-7.036757e+84
-7.0384409e+84
-7.0294404e+84
-7.5610817e+84
-7.6132854e+84
-7.6115007e+84
-7.5611956e+84
-7.5697754e+84
-7.6215498e+84
-7.6165385e+84
-7.5634382e+84
-7.6790208e+84
-7.6519968e+84
-7.6495632e+84
-7.6758149e+84
-7.6867205e+84
-7.6602256e+84
-7.6553063e+84
-7.6820944e+84
-7.6279162e+84
-7.5818952e+84
-7.6334067e+84
-7.5755441e+84
-7.6398138e+84
-7.5998069e+84
-7.6471021e+84
-7.5893236e+84
-7.6713255e+84
-7.666117e+84
-7.6967522e+84
-7.691437e+84
-7.6830241e+84
-7.7068183e+84
-7.7018851e+84
-7.6769858e+84
-7.7173407e+84
-7.7216264e+84
-7.7342484e+84
-7.7306897e+84
-7.7423398e+84
-7.7453378e+84
-7.7559061e+84
-7.7535597e+84
-7.7345613e+84
-7.7388582e+84
-7.7504459e+84
-7.7466605e+84
-7.7073691e+84
-7.7127908e+84
-7.7266832e+84
-7.7219244e+84
-7.7179633e+84
-7.7032681e+84
-7.6992145e+84
-7.7142818e+84
-7.7272079e+84
-7.7308394e+84
-7.7432026e+84
-7.7396369e+84
-7.7208653e+84
-7.7240465e+84
-7.7364053e+84
-7.733228e+84
-7.6927184e+84
-7.6960669e+84
-7.7110363e+84
-7.7078435e+84
-7.7444793e+84
-7.7477696e+84
-7.7586957e+84
-7.7552482e+84
-7.7509942e+84
-7.7545465e+84
-7.7654182e+84
-7.7619849e+84
-7.7855281e+84
-7.7754933e+84
-7.7721059e+84
-7.7822847e+84
-7.7791282e+84
-7.7689123e+84
-7.7652782e+84
-7.7754651e+84
-7.7576603e+84
-7.7611202e+84
-7.771363e+84
-7.7682791e+84
-7.7753597e+84
-7.7658696e+84
-7.7638712e+84
-7.7738128e+84
-7.7930707e+84
-7.7842088e+84
-7.7829832e+84
-7.7922543e+84
-7.7905485e+84
-7.7809584e+84
-7.7781334e+84
-7.7880312e+84
-7.7975003e+84
-7.7998075e+84
-7.809241e+84
-7.8071776e+84
-7.7853065e+84
-7.7889964e+84
-7.7990546e+84
-7.7954172e+84
-7.8050054e+84
-7.7951941e+84
-7.7920229e+84
-7.8020066e+84
-7.8242183e+84
-7.8145121e+84
-7.8116482e+84
-7.8214979e+84
-7.8187396e+84
-7.8088057e+84
-7.8051637e+84
-7.8151013e+84
-7.7301312e+84
-7.7308571e+84
-7.7413263e+84
-7.740564e+84
-7.7314052e+84
-7.7322729e+84
-7.7427848e+84
-7.7419579e+84
-7.7621557e+84
-7.7524266e+84
-7.7516281e+84
-7.7613069e+84
-7.7605626e+84
-7.7509802e+84
-7.7500854e+84
-7.7595417e+84
-7.7338588e+84
-7.7362161e+84
-7.7463678e+84
-7.7440215e+84
-7.752423e+84
-7.7417802e+84
-7.7387923e+84
-7.7493082e+84
-7.7723898e+84
-7.7623243e+84
-7.7590355e+84
-7.7688723e+84
-7.7655958e+84
-7.7558729e+84
-7.7534435e+84
-7.7631442e+84
-7.8121395e+84
-7.802144e+84
-7.7986384e+84
-7.8088122e+84
-7.7922838e+84
-7.7821873e+84
-7.7785847e+84
-7.7887198e+84
-7.772961e+84
-7.7754806e+84
-7.7857019e+84
-7.7831366e+84
-7.8060058e+84
-7.7957327e+84
-7.7930472e+84
-7.8031963e+84
-7.8014942e+84
-7.7915687e+84
-7.790139e+84
-7.7998425e+84
-7.7817965e+84
-7.7717979e+84
-7.7708172e+84
-7.7805663e+84
-7.768671e+84
-7.7699366e+84
-7.7795127e+84
-7.7779061e+84
-7.7984061e+84
-7.788861e+84
-7.7869024e+84
-7.7961543e+84
-7.549079e+84
-7.6017253e+84
-7.6014173e+84
-7.5490472e+84
-7.5587393e+84
-7.6088651e+84
-7.6047161e+84
-7.5522583e+84
-7.6733873e+84
-7.646847e+84
-7.6433368e+84
-7.670044e+84
-7.6681591e+84
-7.6410121e+84
-7.6400387e+84
-7.6661338e+84
-7.7049521e+84
-7.6900593e+84
-7.6871683e+84
-7.7022966e+84
-7.7152904e+84
-7.7180696e+84
-7.7304396e+84
-7.7276124e+84
-7.7105256e+84
-7.7128626e+84
-7.7250796e+84
-7.7227721e+84
-7.6826952e+84
-7.6848983e+84
-7.6998028e+84
-7.6976052e+84
-7.665607e+84
-7.6399312e+84
-7.6411316e+84
-7.6656276e+84
-7.5490533e+84
-7.6010628e+84
-7.6020285e+84
-7.5491407e+84
-7.5517109e+84
-7.6028889e+84
-7.6040757e+84
-7.5555073e+84
-7.6403382e+84
-7.6658271e+84
-7.6406979e+84
-7.6649038e+84
-7.6808328e+84
-7.6813754e+84
-7.6953358e+84
-7.6951111e+84
-7.6958096e+84
-7.681348e+84
-7.6810588e+84
-7.6953298e+84
-7.7079772e+84
-7.7086295e+84
-7.7209603e+84
-7.7201548e+84
-7.7073922e+84
-7.7077725e+84
-7.7197514e+84
-7.719225e+84
-7.5909457e+84
-7.5379159e+84
-7.5430062e+84
-7.5890065e+84
-7.5373553e+84
-7.5360354e+84
-7.5883205e+84
-7.5876763e+84
-7.625833e+84
-7.6540115e+84
-7.6267594e+84
-7.6530025e+84
-7.6529331e+84
-7.6265143e+84
-7.626844e+84
-7.6522345e+84
-7.5414134e+84
-7.5930008e+84
-7.5908447e+84
-7.5393816e+84
-7.5536428e+84
-7.5463053e+84
-7.6020524e+84
-7.5969173e+84
-7.663792e+84
-7.6385433e+84
-7.6344464e+84
-7.6608568e+84
-7.6289778e+84
-7.6312585e+84
-7.6581682e+84
-7.6553843e+84
-7.7047947e+84
-7.7063482e+84
-7.7181839e+84
-7.7169081e+84
-7.6938277e+84
-7.6795152e+84
-7.6773827e+84
-7.6921149e+84
-7.6899739e+84
-7.6750031e+84
-7.6724124e+84
-7.6876283e+84
-7.700683e+84
-7.7029187e+84
-7.7151655e+84
-7.7130658e+84
-7.6683238e+84
-7.6691087e+84
-7.6837884e+84
-7.6829321e+84
-7.6699618e+84
-7.6709821e+84
-7.6859994e+84
-7.6849034e+84
-7.6976474e+84
-7.6989996e+84
-7.7113741e+84
-7.7099006e+84
-7.6953778e+84
-7.6964626e+84
-7.7085585e+84
-7.7072802e+84
-7.793974e+84
-7.7850136e+84
-7.7835311e+84
-7.792325e+84
-7.7763293e+84
-7.7674929e+84
-7.7663172e+84
-7.7749729e+84
-7.7636097e+84
-7.7652988e+84
-7.7741237e+84
-7.7724268e+84
-7.7914239e+84
-7.7826682e+84
-7.7808194e+84
-7.7893198e+84
-7.7585749e+84
-7.7491751e+84
-7.7479719e+84
-7.7574529e+84
-7.7395434e+84
-7.7290938e+84
-7.7277918e+84
-7.7382982e+84
-7.7244043e+84
-7.7263143e+84
-7.7369547e+84
-7.7351673e+84
-7.7563116e+84
-7.7467325e+84
-7.7450264e+84
-7.7546193e+84
-7.7870391e+84
-7.7787813e+84
-7.7769707e+84
-7.7851391e+84
-7.7706092e+84
-7.7620164e+84
-7.7601544e+84
-7.76871e+84
-7.7558353e+84
-7.7583114e+84
-7.7672119e+84
-7.7651022e+84
-7.752981e+84
-7.7434106e+84
-7.7415178e+84
-7.7511157e+84
-7.7210694e+84
-7.7227452e+84
-7.7335179e+84
-7.7317565e+84
-7.7180292e+84
-7.7196078e+84
-7.7300835e+84
-7.7281384e+84
-7.7492343e+84
-7.7397158e+84
-7.7373704e+84
-7.746741e+84
-6.3349416e+84
-6.488094e+84
-6.2655722e+84
-6.2490094e+84
-6.4688418e+84
-6.6722453e+84
-6.7222726e+84
-6.7011795e+84
-6.6511588e+84
-6.2421008e+84
-6.2570097e+84
-6.4720688e+84
-6.7076476e+84
-6.455505e+84
-6.6902207e+84
-6.9939473e+84
-7.0102035e+84
-6.9894034e+84
-6.9729001e+84
-6.7020578e+84
-6.9803029e+84
-6.6875331e+84
-6.9668237e+84
-6.6785415e+84
-6.9632376e+84
-6.9508247e+84
-6.6681704e+84
-6.9397914e+84
-6.6596554e+84
-6.6440254e+84
-6.9293705e+84
-8.5241589e+84
-8.1906658e+84
-8.4735654e+84
-8.1455518e+84
-7.8048331e+84
-7.8443634e+84
-7.841634e+84
-8.2028389e+84
-8.2288516e+84
-8.416174e+84
-8.3916497e+84
-7.8820273e+84
-8.2690454e+84
-8.458639e+84
-8.4374835e+84
-8.2489301e+84
-8.7314231e+84
-8.4175968e+84
-8.0878359e+84
-7.7507107e+84
-8.6726958e+84
-8.3668427e+84
-8.0431839e+84
-7.7123518e+84
-7.4096459e+84
-7.3783072e+84
-7.3889661e+84
-7.7578346e+84
-7.9579772e+84
-7.9395935e+84
-7.740663e+84
-8.2036079e+84
-8.2244959e+84
-7.4201111e+84
-7.7944965e+84
-7.7743732e+84
-7.9757553e+84
-7.9970628e+84
-8.2688503e+84
-8.2456973e+84
-8.3158876e+84
-7.9968192e+84
-7.6713174e+84
-7.3448426e+84
-8.2682225e+84
-7.9593936e+84
-7.6384432e+84
-7.3190477e+84
-7.5133273e+84
-7.5309043e+84
-7.2978329e+84
-7.3158315e+84
-8.0086258e+84
-7.8156516e+84
-7.7962314e+84
-7.9871e+84
-8.1835039e+84
-8.194196e+84
-8.2709719e+84
-8.2589274e+84
-8.213559e+84
-8.2024365e+84
-8.2794552e+84
-8.2896515e+84
-7.4865615e+84
-7.4996538e+84
-7.2769113e+84
-7.2859254e+84
-7.9716809e+84
-7.7811507e+84
-7.7659954e+84
-7.9528746e+84
-8.1663964e+84
-8.1741483e+84
-8.2486957e+84
-8.2406161e+84
-8.1607445e+84
-8.1534059e+84
-8.2290015e+84
-8.2351927e+84
-7.92249e+84
-7.6100178e+84
-7.2968295e+84
-7.897216e+84
-7.5906999e+84
-7.2804974e+84
-7.5723995e+84
-7.2658516e+84
-7.556332e+84
-7.2521978e+84
-7.2355559e+84
-7.224674e+84
-8.3175904e+84
-8.3534213e+84
-8.350187e+84
-8.314647e+84
-8.363146e+84
-8.327043e+84
-8.3214153e+84
-8.3575444e+84
-8.3926339e+84
-8.398155e+84
-8.4360755e+84
-8.4304206e+84
-8.3882221e+84
-8.3847266e+84
-8.4220878e+84
-8.4258577e+84
-8.4723907e+84
-8.474586e+84
-8.4556489e+84
-8.453841e+84
-8.4766453e+84
-8.4787544e+84
-8.4598753e+84
-8.457614e+84
-8.4700678e+84
-8.4670971e+84
-8.4860441e+84
-8.4888669e+84
-8.4644326e+84
-8.4806337e+84
-8.4833636e+84
-8.4617616e+84
-8.3128366e+84
-8.3099342e+84
-8.3446994e+84
-8.3480858e+84
-8.4197243e+84
-8.3825089e+84
-8.378678e+84
-8.4153171e+84
-8.4118302e+84
-8.3757166e+84
-8.3074268e+84
-8.3046916e+84
-8.3388903e+84
-8.3420254e+84
-8.4507527e+84
-8.4527392e+84
-8.4708802e+84
-8.4690624e+84
-8.4485043e+84
-8.4668522e+84
-8.4641777e+84
-8.4460873e+84
-8.4116837e+84
-8.4904764e+84
-8.4760176e+84
-8.3972308e+84
-8.5692679e+84
-8.6081313e+84
-8.6006849e+84
-8.5615435e+84
-8.5466312e+84
-8.5539893e+84
-8.5928897e+84
-8.5851061e+84
-8.6238797e+84
-8.6317109e+84
-8.6659012e+84
-8.6735098e+84
-8.6811495e+84
-8.6893233e+84
-8.6471062e+84
-8.639213e+84
-8.3836728e+84
-8.4619678e+84
-8.4487439e+84
-8.3717991e+84
-8.5408876e+84
-8.5794439e+84
-8.5717237e+84
-8.5327624e+84
-8.5256232e+84
-8.5643113e+84
-8.5573827e+84
-8.5190982e+84
-8.595808e+84
-8.602922e+84
-8.6445645e+84
-8.6373913e+84
-8.6181079e+84
-8.6519171e+84
-8.6600605e+84
-8.610149e+84
-8.4405835e+84
-8.4349056e+84
-8.4725639e+84
-8.478346e+84
-8.399493e+84
-8.4051145e+84
-8.3687966e+84
-8.3631486e+84
-8.3585386e+84
-8.3946381e+84
-8.3902287e+84
-8.3542982e+84
-8.4298718e+84
-8.4251124e+84
-8.4629065e+84
-8.4677451e+84
-8.5116168e+84
-8.5086272e+84
-8.5275514e+84
-8.5304969e+84
-8.5513345e+84
-8.5739888e+84
-8.5709752e+84
-8.5483469e+84
-8.5682586e+84
-8.5456672e+84
-8.5658167e+84
-8.5431115e+84
-8.5058845e+84
-8.524858e+84
-8.5220683e+84
-8.5031233e+84
-8.5013288e+84
-8.498906e+84
-8.5178889e+84
-8.5202087e+84
-8.5411208e+84
-8.5638807e+84
-8.5611856e+84
-8.5386172e+84
-8.5587856e+84
-8.5363252e+84
-8.5340602e+84
-8.5563799e+84
-8.4966983e+84
-8.5156465e+84
-8.5134336e+84
-8.494515e+84
-8.6423299e+84
-8.619006e+84
-8.621791e+84
-8.6393612e+84
-8.6020489e+84
-8.5827171e+84
-8.579983e+84
-8.5994699e+84
-8.5774627e+84
-8.5967703e+84
-8.5940434e+84
-8.5749802e+84
-8.6124373e+84
-8.592913e+84
-8.5898767e+84
-8.6095536e+84
-8.6264964e+84
-8.6470289e+84
-8.644325e+84
-8.6237959e+84
-8.6324366e+84
-8.62941e+84
-8.6500606e+84
-8.653181e+84
-8.587059e+84
-8.606608e+84
-8.6039032e+84
-8.5845636e+84
-8.3507623e+84
-8.3864337e+84
-8.3801557e+84
-8.3442449e+84
-8.337792e+84
-8.3738446e+84
-8.3676153e+84
-8.3316605e+84
-8.4089159e+84
-8.4468353e+84
-8.4406153e+84
-8.4025521e+84
-8.4212204e+84
-8.4590125e+84
-8.4527754e+84
-8.4148406e+84
-8.4927407e+84
-8.489749e+84
-8.5085782e+84
-8.5115482e+84
-8.5321682e+84
-8.5291035e+84
-8.5513216e+84
-8.5545675e+84
-8.4869916e+84
-8.5057013e+84
-8.5028356e+84
-8.4841902e+84
-8.4971809e+84
-8.5004211e+84
-8.4816577e+84
-8.4780406e+84
-8.4748713e+84
-8.4910036e+84
-8.4939915e+84
-8.4721427e+84
-8.4811145e+84
-8.4621495e+84
-8.5409174e+84
-8.4610156e+84
-8.4492845e+84
-8.5288711e+84
-8.6193053e+84
-8.6137441e+84
-8.6086123e+84
-8.6486188e+84
-8.6425062e+84
-8.6026811e+84
-8.4373946e+84
-8.5167387e+84
-8.5028329e+84
-8.4235465e+84
-8.5815275e+84
-8.6207705e+84
-8.6136526e+84
-8.5746408e+84
-8.5970912e+84
-8.6366926e+84
-8.6285473e+84
-8.5888526e+84
-8.702612e+84
-8.660075e+84
-8.6527183e+84
-8.6950067e+84
-8.6763722e+84
-8.6677445e+84
-8.5211371e+84
-8.4997349e+84
-7.092884e+84
-7.0872597e+84
-7.0817044e+84
-7.0888511e+84
-6.8985116e+84
-6.8956813e+84
-6.8691572e+84
-6.8707611e+84
-7.1168187e+84
-7.0983947e+84
-7.1037812e+84
-7.1235904e+84
-6.6283709e+84
-6.6500184e+84
-6.9324114e+84
-6.9099714e+84
-6.8815716e+84
-6.905226e+84
-7.8849904e+84
-7.8882709e+84
-7.9094466e+84
-7.9060806e+84
-7.9172338e+84
-7.9073392e+84
-7.9054063e+84
-7.9151685e+84
-7.8978954e+84
-7.8883011e+84
-7.8865776e+84
-7.8960451e+84
-7.8845475e+84
-7.8858458e+84
-7.8952123e+84
-7.8938322e+84
-7.8814443e+84
-7.8833534e+84
-7.8924402e+84
-7.8905221e+84
-7.8754378e+84
-7.8791547e+84
-7.8885351e+84
-7.8850652e+84
-7.9173549e+84
-7.894617e+84
-7.8912778e+84
-7.9133127e+84
-7.903606e+84
-7.8982694e+84
-7.9013959e+84
-7.9239686e+84
-7.921066e+84
-6.9010753e+84
-6.9029465e+84
-7.1614801e+84
-7.455684e+84
-7.3296546e+84
-7.339085e+84
-7.4608847e+84
-7.462323e+84
-7.3395161e+84
-7.3269344e+84
-7.453623e+84
-7.4501998e+84
-7.3224795e+84