/*--------------------------------*- C++ -*----------------------------------*\
  =========                 |
  \\      /  F ield         | OpenFOAM: The Open Source CFD Toolbox
   \\    /   O peration     | Website:  https://openfoam.org
    \\  /    A nd           | Version:  7
     \\/     M anipulation  |
\*---------------------------------------------------------------------------*/
FoamFile
{
    version     2.0;
    format      ascii;
    class       volVectorField;
    location    "7000";
    object      UMean;
}
// * * * * * * * * * * * * * * * * * * * * * * * * * * * * * * * * * * * * * //

dimensions      [0 1 -1 0 0 0 0];

internalField   nonuniform List<vector> 
34158
(
(-4.609957e+39 2.2389874e+38 -4.6012468e+38)
(-4.640785e+39 7.9957273e+37 -4.3734408e+38)
(-4.6634772e+39 1.6467788e+38 -4.2681442e+38)
(-4.6450056e+39 3.5249804e+36 -4.212115e+38)
(-4.2446037e+39 1.5353065e+38 -2.3428579e+38)
(-4.1451569e+39 2.2576792e+38 -2.5665286e+38)
(-4.7275761e+39 1.2651719e+38 -3.1681848e+38)
(-4.7548129e+39 1.0907656e+38 -3.0739779e+38)
(-4.4950019e+39 1.6034714e+37 -2.8317893e+38)
(-4.6106531e+39 -1.9006023e+37 -2.837364e+38)
(-4.2517154e+39 4.5252976e+37 -2.1579656e+38)
(-4.2266119e+39 1.2906086e+38 -2.1699987e+38)
(-4.7464404e+39 7.3089092e+37 -2.9854061e+38)
(-4.7461413e+39 3.484941e+37 -2.989079e+38)
(-3.9583838e+39 1.5810681e+38 1.080277e+37)
(-4.485758e+39 1.3933887e+38 -1.9550397e+38)
(-3.9004938e+39 1.9265176e+38 1.3526241e+37)
(-4.4120333e+39 1.6304389e+38 -1.9958971e+38)
(-4.805031e+39 8.7198968e+37 -1.8506798e+38)
(-4.8282735e+39 7.7154061e+37 -1.8447316e+38)
(-4.7507961e+39 2.661164e+37 3.2758124e+37)
(-4.7290255e+39 5.2778291e+36 4.2985181e+37)
(-4.6067708e+39 1.7777682e+37 -2.767021e+38)
(-4.4915607e+39 -2.8539148e+37 -2.7780132e+38)
(-4.3803711e+39 3.6283792e+37 -5.4667922e+38)
(-4.9896832e+39 3.5621949e+37 -2.0522424e+38)
(-5.0288849e+39 -4.9037516e+37 -1.9951781e+38)
(-4.3810259e+39 -5.076807e+37 -5.4309547e+38)
(-4.0792487e+39 1.9778632e+37 -4.1457315e+38)
(-4.5247173e+39 2.1873618e+37 -2.9735745e+38)
(-4.554991e+39 -1.1744679e+37 -2.9402284e+38)
(-4.0741127e+39 -1.7815158e+37 -4.2548484e+38)
(-4.085918e+39 2.168196e+37 -4.3913504e+38)
(-4.5136416e+39 3.0981323e+37 -3.2654331e+38)
(-4.5784953e+39 4.787595e+37 2.6572166e+38)
(-4.5633491e+39 -2.1797401e+37 2.6306458e+38)
(-4.7427916e+39 -4.8470013e+37 -3.1284745e+38)
(-4.7273648e+39 -8.6551888e+36 -2.9476589e+38)
(-3.9061839e+39 4.5572744e+37 2.1366703e+37)
(-4.4780715e+39 4.65664e+37 -1.8973032e+38)
(-3.9032013e+39 1.0481731e+38 2.1867776e+37)
(-4.4487576e+39 8.9431481e+37 -1.8912872e+38)
(-4.8059097e+39 5.1390427e+37 -1.782979e+38)
(-4.7966938e+39 1.8913912e+37 -1.7854411e+38)
(-5.169127e+39 3.3967829e+37 -2.7559178e+38)
(-5.158512e+39 3.4148707e+37 -2.7912186e+38)
(-3.6872374e+39 1.1158821e+38 6.6354012e+37)
(-4.0956429e+39 1.3307029e+38 -6.9240292e+36)
(-4.5925212e+39 9.7124331e+37 -1.0095063e+38)
(-3.6071662e+39 1.4469602e+38 7.0077049e+37)
(-4.0354516e+39 1.5315545e+38 -8.0841724e+36)
(-4.5355439e+39 1.0331182e+38 -9.7794444e+37)
(-4.8299999e+39 5.5676875e+37 -5.5876374e+37)
(-4.8523941e+39 5.0163867e+37 -6.168019e+37)
(-4.7607932e+39 3.219786e+37 3.5271351e+37)
(-4.7873655e+39 4.0415956e+37 3.0941397e+37)
(-4.626431e+39 3.6792393e+37 4.4881417e+37)
(-4.5828032e+39 6.0536335e+35 5.1745126e+37)
(-4.7215977e+39 1.6637643e+37 5.0910191e+37)
(-4.704312e+39 1.0533525e+37 6.0858764e+37)
(-4.7866565e+39 -3.7327891e+36 -5.0512767e+38)
(-4.6219499e+39 -4.6671778e+37 -2.7437863e+38)
(-5.0238327e+39 5.269722e+37 -1.968947e+38)
(-4.3757981e+39 -4.6041612e+37 -5.4418166e+38)
(-4.3786533e+39 4.0600498e+37 -5.4380696e+38)
(-4.987514e+39 -3.3153524e+37 -2.0274659e+38)
(-4.1472896e+39 1.0978754e+37 -4.1021171e+38)
(-4.5600343e+39 6.5567681e+36 -2.5598253e+38)
(-4.5474791e+39 -4.4405105e+37 -3.0129112e+38)
(-4.0939172e+39 -3.8529987e+37 -4.2952477e+38)
(-4.0780952e+39 -3.2841926e+35 -4.2669052e+38)
(-4.5265435e+39 -6.4080027e+36 -3.1930331e+38)
(-4.5701649e+39 -3.2487041e+37 -2.8715801e+38)
(-4.0832185e+39 -3.3410569e+37 -4.2341651e+38)
(-4.1394553e+39 -2.7708719e+37 -5.2146114e+38)
(-4.4371342e+39 1.7477508e+37 -2.4281488e+38)
(-4.4555523e+39 -1.5734011e+37 -2.5685288e+38)
(-3.8657192e+39 -1.1067386e+37 -3.3073395e+38)
(-3.8633043e+39 -3.311492e+37 -3.3890538e+38)
(-3.8785454e+39 1.477629e+36 -3.5865839e+38)
(-4.4788988e+39 2.3023856e+36 -2.6651519e+38)
(-4.1399803e+39 5.7278245e+36 -5.2571392e+38)
(-4.0216244e+39 -2.4873396e+35 -4.9527759e+38)
(-4.0091306e+39 2.4301949e+36 -5.0257675e+38)
(-4.2778334e+39 -1.3535766e+36 -3.2665686e+38)
(-4.2885117e+39 4.4118962e+36 -3.2766456e+38)
(-4.1117179e+39 -3.3063069e+36 -3.5226388e+38)
(-4.1064338e+39 -1.3555178e+37 -3.4581425e+38)
(-4.1380325e+39 4.473103e+36 -2.8358739e+38)
(-4.1257995e+39 -1.496487e+36 -3.6620637e+38)
(-4.1175865e+39 -2.2589093e+37 -3.5982921e+38)
(-4.1531782e+39 -2.5433995e+37 -2.7912902e+38)
(-4.1498805e+39 -2.4046519e+36 -2.9163104e+38)
(-4.0233402e+39 -1.7083516e+37 -5.0342882e+38)
(-4.288218e+39 -2.1074345e+37 -3.4153514e+38)
(-4.0195104e+39 1.9583778e+35 -5.030177e+38)
(-4.2914028e+39 -2.2871122e+36 -3.5440668e+38)
(-4.0020175e+39 3.5706242e+37 -5.2300735e+38)
(-4.0126823e+39 4.5346662e+36 -5.0569128e+38)
(-4.2820167e+39 -3.5188056e+36 -3.4861336e+38)
(-4.27395e+39 3.5341071e+37 -3.6706928e+38)
(-4.1466268e+39 -1.0197803e+37 -2.8774205e+38)
(-4.1138187e+39 -1.1217429e+37 -3.608458e+38)
(-4.14611e+39 3.4676127e+37 -2.990478e+38)
(-4.1089207e+39 2.9792913e+37 -3.762997e+38)
(-4.5862316e+39 4.5979594e+37 2.6138975e+38)
(-4.5734673e+39 -2.2594993e+37 2.5897768e+38)
(-4.613953e+39 5.2535305e+37 1.9331677e+38)
(-4.5072437e+39 -3.5307589e+35 1.848356e+38)
(-4.5643779e+39 9.3782657e+36 7.3020938e+37)
(-4.5524451e+39 1.2497686e+37 7.796784e+37)
(-4.437267e+39 -5.4950472e+37 -1.8859925e+38)
(-4.4274491e+39 -1.4673471e+37 -1.8382169e+38)
(-4.7968973e+39 -4.2985198e+37 -1.8803465e+38)
(-4.7831732e+39 -1.2023333e+37 -1.7383072e+38)
(-5.1585064e+39 -1.732997e+37 -2.7169266e+38)
(-5.1460447e+39 -1.859376e+37 -2.807593e+38)
(-3.6535028e+39 -5.0522772e+36 7.8926265e+37)
(-4.0388312e+39 3.6452932e+37 -7.2210472e+35)
(-4.5695634e+39 3.0379432e+37 -9.6781208e+37)
(-3.6585986e+39 4.9184941e+37 7.5183007e+37)
(-4.0348054e+39 9.2336377e+37 -6.3942082e+36)
(-4.5435507e+39 6.3151258e+37 -9.604316e+37)
(-4.8049031e+39 3.0645898e+37 -5.9375314e+37)
(-4.7904044e+39 8.3416839e+36 -6.2534944e+37)
(-5.1209561e+39 2.7235899e+37 -7.4433784e+37)
(-4.417822e+39 -4.3843293e+37 -1.6005244e+38)
(-4.4402977e+39 1.402492e+37 -1.6953285e+38)
(-5.1099506e+39 1.5524492e+37 -7.1725173e+37)
(-4.4114104e+39 -2.8296457e+37 -1.6295701e+38)
(-4.4311532e+39 2.3308564e+37 -1.6653005e+38)
(-3.8306858e+39 1.3157919e+38 6.5653069e+37)
(-3.8497116e+39 8.8462695e+37 5.1100133e+37)
(-4.2216835e+39 9.7972948e+37 2.1440519e+36)
(-4.6562103e+39 6.2183884e+37 -1.899764e+37)
(-3.780943e+39 1.7839105e+38 6.7795784e+37)
(-3.7475211e+39 1.1626525e+38 5.1144714e+37)
(-4.1687976e+39 1.0654655e+38 1.7749697e+36)
(-4.5972652e+39 6.076275e+37 -1.0973379e+37)
(-4.7895161e+39 3.2152287e+37 3.4775786e+37)
(-4.8071962e+39 3.2267494e+37 2.419049e+37)
(-4.6312622e+39 5.2842304e+37 3.7787392e+37)
(-4.5999315e+39 3.2151437e+37 4.3487877e+37)
(-4.7263281e+39 2.4971208e+37 5.2405693e+37)
(-4.7444341e+39 2.2950672e+37 5.0616539e+37)
(-4.258627e+39 4.1351846e+37 3.6666071e+37)
(-4.6588128e+39 2.564221e+37 6.0173891e+37)
(-4.1773583e+39 1.8049138e+37 3.8367651e+37)
(-4.5871048e+39 8.3657223e+36 6.917939e+37)
(-4.5965151e+39 -6.4885265e+36 -3.1647374e+38)
(-4.5717898e+39 -2.1767227e+37 -2.8747486e+38)
(-4.5228266e+39 -8.1592334e+36 9.6891376e+37)
(-4.7878484e+39 -6.2595728e+36 -5.0604095e+38)
(-4.0067771e+39 -3.4919507e+37 -2.431558e+38)
(-5.0173597e+39 -6.7627135e+37 -1.9208832e+38)
(-4.3766695e+39 -5.8548954e+37 -5.3709505e+38)
(-4.1692606e+39 -4.5281489e+36 -4.2184974e+38)
(-4.5613737e+39 -3.3102256e+36 -2.7168862e+38)
(-4.5870815e+39 -5.2064965e+37 -2.5067302e+38)
(-4.1595229e+39 -4.1930504e+37 -4.2356079e+38)
(-4.4969634e+39 2.3577162e+37 -2.4732877e+38)
(-3.8867853e+39 -5.0718111e+36 -3.549932e+38)
(-3.8770792e+39 -2.2500633e+37 -3.5636907e+38)
(-4.4885067e+39 -1.1874125e+37 -2.6021418e+38)
(-4.1330769e+39 9.8769451e+36 -5.2039681e+38)
(-4.1363676e+39 -2.4391467e+37 -5.2532624e+38)
(-4.4595661e+39 8.4464822e+36 -2.5730431e+38)
(-4.4383142e+39 -2.4160474e+37 -2.4538823e+38)
(-3.8626301e+39 1.5279099e+37 -3.4106348e+38)
(-3.864468e+39 -5.770853e+36 -3.2851568e+38)
(-4.2362541e+39 -1.7555959e+37 -3.2370421e+38)
(-3.9733857e+39 -1.7754167e+37 -5.0487663e+38)
(-4.0126232e+39 -2.9525961e+37 -4.7950406e+38)
(-4.2566e+39 -2.7948984e+37 -2.8299505e+38)
(-4.1230033e+39 -3.1488575e+37 -2.5122736e+38)
(-4.0709113e+39 -3.2676592e+37 -3.4805657e+38)
(-4.0752947e+39 -3.6670291e+37 -3.167849e+38)
(-4.0986132e+39 -2.9478313e+37 -2.557545e+38)
(-4.1695312e+39 -6.1535421e+37 -2.7199193e+38)
(-4.1149436e+39 -5.6549523e+37 -3.7109471e+38)
(-4.1207291e+39 -2.2591503e+37 -3.6220526e+38)
(-4.1530581e+39 -2.8539249e+37 -2.7994534e+38)
(-4.021617e+39 -2.7635524e+37 -5.0821101e+38)
(-4.0140935e+39 -4.563176e+37 -5.1843987e+38)
(-4.28469e+39 -5.0155289e+37 -3.6165961e+38)
(-4.2955104e+39 -2.2608521e+37 -3.4675406e+38)
(-4.3255877e+39 -2.5908827e+37 -3.0926513e+38)
(-4.0282226e+39 -2.4748618e+37 -5.0338017e+38)
(-4.0281926e+39 -1.0687424e+37 -5.0490034e+38)
(-4.2941902e+39 -1.4636096e+37 -3.443226e+38)
(-4.1286713e+39 -3.6938813e+37 -3.5003325e+38)
(-4.156651e+39 -3.6957108e+37 -2.7463536e+38)
(-4.1159834e+39 -1.9370362e+37 -3.6576213e+38)
(-4.1432143e+39 -1.0318484e+37 -2.9623467e+38)
(-4.1338986e+39 -1.4100783e+37 -3.4722978e+38)
(-4.1303117e+39 -3.2732167e+37 -3.7491303e+38)
(-4.1634974e+39 -3.4748329e+37 -2.8795453e+38)
(-4.0211262e+39 -2.8895131e+37 -5.1048794e+38)
(-4.3075117e+39 -3.2986025e+37 -3.563199e+38)
(-4.3310984e+39 -1.6606009e+37 -3.0872479e+38)
(-4.0197349e+39 -1.2809866e+37 -5.1604135e+38)
(-3.7981167e+39 -5.5229186e+37 6.4250299e+37)
(-3.7380424e+39 -7.467183e+37 -5.1395069e+38)
(-3.7438623e+39 3.8904207e+37 -5.1781664e+38)
(-4.2164334e+39 3.8744513e+36 -3.4401243e+38)
(-4.2512252e+39 1.8259107e+37 -3.3992684e+38)
(-3.6973621e+39 -3.8619717e+37 -2.9448595e+38)
(-3.7170708e+39 9.4045063e+36 -2.8496587e+38)
(-4.2440151e+39 -1.7915149e+37 -3.6144103e+38)
(-3.7354062e+39 -3.6615069e+37 -3.0209979e+38)
(-3.7428716e+39 2.4108642e+37 -3.025154e+38)
(-4.2294222e+39 5.1517515e+36 -3.6296077e+38)
(-3.7529037e+39 -5.9727494e+37 -5.2640356e+38)
(-4.2194185e+39 -4.1640289e+36 -3.6784269e+38)
(-4.2327482e+39 2.304804e+37 -3.7366138e+38)
(-3.729578e+39 -3.0136815e+37 -3.0884662e+38)
(-3.721225e+39 2.7146719e+37 -3.1267708e+38)
(-3.796792e+39 3.0101801e+37 5.8389911e+37)
(-3.8699354e+39 5.1209214e+36 -5.6309425e+38)
(-3.865957e+39 -3.4502559e+37 -5.6685842e+38)
(-3.9976307e+39 -1.2637106e+36 -3.9851202e+38)
(-3.9954445e+39 -4.0833794e+37 -3.9763016e+38)
(-3.8433511e+39 1.1840041e+37 -5.6302649e+38)
(-3.8350117e+39 -4.8853137e+36 -5.740692e+38)
(-3.9723944e+39 1.0142691e+37 -3.9340208e+38)
(-3.9693839e+39 -1.3538247e+37 -3.9104354e+38)
(-3.8527344e+39 -2.1733247e+37 -3.7275915e+38)
(-3.8858439e+39 -2.2784283e+37 -2.9750126e+38)
(-3.890045e+39 2.8594674e+35 -2.9460062e+38)
(-3.8508169e+39 -7.5008587e+36 -3.7636525e+38)
(-3.871278e+39 -3.8461787e+37 -3.8265321e+38)
(-3.9010142e+39 -4.1078191e+37 -3.1135973e+38)
(-3.905433e+39 -9.2447819e+36 -3.0637155e+38)
(-3.875188e+39 -1.1736189e+37 -3.7944102e+38)
(-3.8110974e+39 -1.0813356e+37 -2.9449322e+38)
(-3.8133119e+39 -3.821686e+37 -2.989136e+38)
(-3.7886582e+39 -3.4808452e+37 -2.7350724e+38)
(-3.7949702e+39 -9.0506826e+36 -2.6376791e+38)
(-3.7955239e+39 -7.6950973e+36 -2.8305011e+38)
(-3.8042606e+39 -2.2714475e+37 -2.8328622e+38)
(-3.779022e+39 -2.2591202e+37 -2.5951698e+38)
(-3.7808141e+39 -7.5630028e+36 -2.5243651e+38)
(-3.6820699e+39 -1.3218534e+37 -2.3851876e+38)
(-3.6975168e+39 -1.247236e+37 -2.5110372e+38)
(-3.6907381e+39 -3.0958987e+37 -2.5889649e+38)
(-3.6784453e+39 -2.5106418e+37 -2.4033643e+38)
(-3.6842475e+39 -1.1048033e+37 -2.3535319e+38)
(-3.8258059e+39 -1.1788278e+37 -3.0007956e+38)
(-3.8351408e+39 -3.2564806e+37 -3.103638e+38)
(-3.8045005e+39 -2.83353e+37 -2.7718762e+38)
(-3.8006353e+39 -1.093187e+37 -2.7374185e+38)
(-3.8068772e+39 4.2206543e+36 -3.0220076e+38)
(-3.8118777e+39 -2.4072069e+37 -3.0049765e+38)
(-3.7813476e+39 -2.0539859e+37 -2.7318309e+38)
(-3.7953422e+39 5.3571448e+36 -2.6912706e+38)
(-3.6783375e+39 -1.3954907e+37 -2.3962548e+38)
(-3.685094e+39 -1.7180374e+37 -2.5900033e+38)
(-3.6934848e+39 2.0936941e+36 -2.5885736e+38)
(-3.6905231e+39 -1.3642709e+36 -2.342341e+38)
(-3.6926288e+39 -1.6264947e+37 -2.4067073e+38)
(-3.7024852e+39 -2.2179033e+37 -2.627589e+38)
(-3.7041359e+39 -1.2905229e+37 -2.5678255e+38)
(-3.6925077e+39 -1.1493943e+37 -2.3846165e+38)
(-3.8791958e+39 1.6569555e+37 -5.6784338e+38)
(-3.8730393e+39 -2.7751498e+37 -5.6712963e+38)
(-3.9972857e+39 -2.40602e+37 -4.0617662e+38)
(-4.0058178e+39 1.2415166e+37 -4.0901472e+38)
(-3.8760206e+39 -2.5512601e+37 -3.8347398e+38)
(-3.8982871e+39 -2.5584361e+37 -3.1642729e+38)
(-3.9062356e+39 7.2604792e+36 -3.1626942e+38)
(-3.8764426e+39 -2.0655162e+35 -3.9074259e+38)
(-4.0252292e+39 -3.9178759e+37 -4.0107894e+38)
(-3.8764215e+39 -3.4564236e+37 -5.6428043e+38)
(-3.8768737e+39 -3.5678842e+35 -5.6763124e+38)
(-4.0096597e+39 -7.004807e+36 -4.1011278e+38)
(-3.8880963e+39 -1.0287345e+37 -3.8590386e+38)
(-3.9013669e+39 -3.3517351e+37 -4.1107835e+38)
(-3.9334279e+39 -3.7723419e+37 -3.2161269e+38)
(-3.9127097e+39 -9.1699422e+36 -3.1602989e+38)
(-3.8492462e+39 4.2847684e+37 -5.6181295e+38)
(-3.8575577e+39 -1.9298854e+37 -5.5654583e+38)
(-3.9891008e+39 -2.9221909e+37 -3.9362788e+38)
(-3.9699843e+39 3.322021e+37 -4.0583344e+38)
(-3.8562897e+39 2.7930577e+37 -5.632058e+38)
(-3.8608994e+39 -7.6899656e+36 -5.6516611e+38)
(-3.9965549e+39 -1.3835489e+37 -3.9271576e+38)
(-3.984833e+39 2.1972053e+37 -4.0398358e+38)
(-3.9045232e+39 -1.3672897e+37 -3.0262231e+38)
(-3.8735482e+39 -1.3673461e+37 -3.7496314e+38)
(-3.8635636e+39 9.7740768e+36 -3.8520235e+38)
(-3.8948085e+39 1.2941658e+37 -3.1317198e+38)
(-3.8624177e+39 2.4963435e+37 -3.7829709e+38)
(-3.8676686e+39 -2.2527599e+37 -3.7900018e+38)
(-3.8977491e+39 -2.6805445e+37 -3.1153952e+38)
(-3.8853586e+39 2.1817256e+37 -3.1522303e+38)
(-3.6990781e+39 -2.0410637e+36 -2.1717674e+38)
(-3.6892252e+39 -8.48067e+36 -2.5209475e+38)
(-3.687252e+39 3.1530519e+36 -2.6022469e+38)
(-3.6791078e+39 2.8052223e+36 -2.383388e+38)
(-3.7922026e+39 -1.1762384e+37 -2.6121998e+38)
(-3.8059453e+39 -1.4244534e+37 -2.8964577e+38)
(-3.8062296e+39 6.3902719e+36 -2.9924547e+38)
(-3.7835692e+39 6.7566615e+36 -2.7562938e+38)
(-3.6975294e+39 -6.038302e+36 -2.283307e+38)
(-3.6845592e+39 -1.3093193e+37 -2.6226863e+38)
(-3.6804409e+39 1.3478073e+37 -2.6585216e+38)
(-3.6705097e+39 1.3775461e+37 -2.4773335e+38)
(-3.7870844e+39 -1.7772105e+37 -2.7718021e+38)
(-3.8090069e+39 -2.3317186e+37 -2.9981135e+38)
(-3.8010592e+39 1.5652811e+37 -3.0089569e+38)
(-3.7745365e+39 1.5723895e+37 -2.8102879e+38)
(-4.8419597e+39 -6.0996878e+36 4.0156098e+38)
(-4.5918447e+39 3.4102945e+37 2.6780054e+38)
(-4.5876143e+39 -2.7662187e+37 2.6609507e+38)
(-4.5665899e+39 4.5807292e+37 1.8426344e+38)
(-4.5220866e+39 -1.1753355e+37 1.8208919e+38)
(-4.5811422e+39 1.0185226e+37 7.2722102e+37)
(-4.5697392e+39 1.8996205e+37 7.2815615e+37)
(-4.1938753e+39 3.5773676e+37 3.2170999e+37)
(-4.6780602e+39 2.6365191e+37 1.1785416e+38)
(-4.0235324e+39 3.4240579e+37 4.259781e+37)
(-4.5846675e+39 1.6895294e+37 1.2074581e+38)
(-4.747439e+39 -7.6543423e+37 -1.8441532e+38)
(-4.7044322e+39 -1.0510519e+38 -1.953684e+38)
(-4.0017522e+39 -5.9823662e+37 3.8546444e+36)
(-4.5441146e+39 -4.241602e+37 -9.5539558e+37)
(-3.9799382e+39 -1.9681995e+37 8.6635362e+36)
(-4.5234768e+39 -1.9156971e+37 -8.7682678e+37)
(-4.7836672e+39 -3.2965183e+37 -6.849107e+37)
(-4.7910194e+39 -1.2686157e+37 -5.8205744e+37)
(-5.1133108e+39 -2.6444418e+37 -6.9920909e+37)
(-4.4106976e+39 1.643912e+36 -1.6091687e+38)
(-4.4404312e+39 -5.7767598e+37 -1.6661813e+38)
(-5.1013916e+39 -1.1416501e+37 -7.4232731e+37)
(-4.4224183e+39 -7.0033721e+37 -1.6308516e+38)
(-4.3959449e+39 -2.2029443e+37 -1.695583e+38)
(-3.906011e+39 2.0722964e+37 7.743243e+37)
(-3.7598047e+39 2.8183636e+36 7.1102204e+37)
(-4.1630678e+39 2.7690289e+37 6.7885118e+36)
(-4.5987667e+39 1.8611208e+37 -1.5594527e+37)
(-3.8530308e+39 7.8746913e+37 7.0220023e+37)
(-3.6169706e+39 4.3220585e+37 6.1030744e+37)
(-4.1470131e+39 7.2037935e+37 -1.1262351e+36)
(-4.5679932e+39 3.7867634e+37 -1.500397e+37)
(-4.7475187e+39 1.5807954e+37 2.3453466e+37)
(-4.7496252e+39 4.268095e+36 1.568296e+37)
(-5.0057064e+39 2.9606026e+37 5.1360901e+37)
(-4.3929219e+39 -3.9724688e+37 1.4310681e+38)
(-4.3953623e+39 3.6765821e+36 1.3757974e+38)
(-4.5536126e+39 1.4193868e+37 -4.4572983e+37)
(-4.4889302e+39 -3.1055492e+37 -1.1134199e+37)
(-4.9947015e+39 -1.695156e+36 5.65705e+37)
(-4.3820247e+39 3.8476166e+36 1.4413965e+38)
(-4.397079e+39 -2.1134918e+37 1.3846369e+38)
(-4.48638e+39 -1.3066766e+37 -1.4264001e+37)
(-4.5440926e+39 1.4642504e+37 -3.9485497e+37)
(-3.8448114e+39 9.2682067e+37 6.130791e+37)
(-3.942538e+39 6.2592648e+37 5.3221998e+37)
(-4.2813924e+39 6.2924969e+37 2.4228259e+37)
(-4.6827686e+39 4.082822e+37 3.3925348e+37)
(-3.802605e+39 1.322579e+38 6.187609e+37)
(-3.9307326e+39 8.4207543e+37 5.4223945e+37)
(-4.2119915e+39 7.0510377e+37 2.7669238e+37)
(-4.6324431e+39 3.0820216e+37 4.2817076e+37)
(-4.7468198e+39 2.1192176e+37 5.4915297e+37)
(-4.7594768e+39 1.4901606e+37 4.4706193e+37)
(-4.2228825e+39 5.6278813e+37 2.2776745e+37)
(-4.6360292e+39 3.4683371e+37 5.7034184e+37)
(-4.1806395e+39 4.7678096e+37 3.4937333e+37)
(-4.6110971e+39 2.5972749e+37 5.9579539e+37)
(-4.2627535e+39 -1.2066645e+37 5.9496053e+37)
(-4.2803546e+39 3.2424504e+37 3.1110135e+37)
(-3.933164e+39 -5.947395e+36 6.2178664e+37)
(-4.1759064e+39 1.9199032e+37 3.8095866e+37)
(-4.6231734e+39 4.6286537e+36 -8.3679318e+37)
(-4.5741188e+39 -7.7363687e+36 -7.2538327e+37)
(-4.5646796e+39 -1.2814899e+37 -2.8744761e+38)
(-4.5943883e+39 -2.7566562e+37 -3.1319186e+38)
(-4.6295375e+39 -2.8756841e+36 -9.4236642e+37)
(-3.892012e+39 1.0434122e+37 -2.4538587e+38)
(-3.9042779e+39 -5.2289691e+37 -2.4383059e+38)
(-3.9158313e+39 -5.0705184e+37 -3.8318004e+38)
(-3.913178e+39 1.4084254e+37 -3.8960684e+38)
(-4.5638277e+39 -2.5789224e+37 -5.0388309e+37)
(-3.8639779e+39 2.9566029e+36 -2.1430635e+38)
(-3.8848084e+39 -3.3452483e+37 -2.2606448e+38)
(-4.5670166e+39 -3.8681805e+37 -3.0683383e+38)
(-4.5684525e+39 -4.6950062e+37 -2.8516163e+38)
(-4.1961198e+39 -9.5339906e+36 1.8951681e+38)
(-4.1978115e+39 -6.9590208e+36 1.9184481e+38)
(-4.5187171e+39 -6.4436765e+36 9.8143698e+37)
(-4.7901327e+39 -1.1210672e+37 -5.0167022e+38)
(-4.003817e+39 -3.2852721e+37 -2.3197744e+38)
(-3.5822639e+39 -1.9790447e+37 -1.8134737e+38)
(-3.5796292e+39 -2.2930471e+37 -1.9848726e+38)
(-3.5764531e+39 -3.4790951e+37 -1.9478559e+38)
(-3.5807738e+39 -3.6964089e+37 -2.0730582e+38)
(-3.5564827e+39 -4.1841125e+37 -2.1440039e+38)
(-3.5613152e+39 -4.292402e+37 -2.128892e+38)
(-4.0074565e+39 -4.0274977e+37 -2.3458014e+38)
(-3.9876637e+39 -1.630826e+37 -2.4850445e+38)
(-4.5243591e+39 -1.4385084e+37 -2.6181727e+38)
(-4.5014497e+39 -3.7175048e+37 -2.4819982e+38)
(-3.8771806e+39 4.5813476e+36 -3.5983501e+38)
(-3.8901271e+39 -1.1639463e+37 -3.5344289e+38)
(-4.141367e+39 7.558445e+36 -5.2293143e+38)
(-4.0792644e+39 -8.7502308e+36 -4.6653442e+38)
(-4.0119903e+39 -1.5201092e+37 -5.0508789e+38)
(-4.0258642e+39 -2.8482386e+37 -4.9856117e+38)
(-4.2572974e+39 -2.8702485e+37 -2.9952529e+38)
(-4.248815e+39 -2.2861384e+37 -3.0907603e+38)
(-4.0865007e+39 -2.9930178e+37 -3.1813284e+38)
(-4.0758978e+39 -2.1069157e+37 -3.3119611e+38)
(-4.097951e+39 -2.8482607e+37 -2.5672273e+38)
(-4.0928815e+39 -1.482891e+37 -2.6982276e+38)
(-4.0887711e+39 -4.1135832e+37 -3.186767e+38)
(-4.087973e+39 -3.5884023e+37 -3.1320732e+38)
(-4.1191064e+39 -4.4011166e+37 -2.4559507e+38)
(-4.1108109e+39 -3.7094612e+37 -2.4591203e+38)
(-4.0166818e+39 -2.233412e+37 -5.0400535e+38)
(-4.0187677e+39 -3.1313017e+37 -5.0197684e+38)
(-4.2607656e+39 -4.1890745e+37 -2.960488e+38)
(-4.2571579e+39 -3.732891e+37 -2.9278588e+38)
(-3.6931015e+39 -4.4615731e+37 -3.1879452e+38)
(-4.1926922e+39 -5.7956285e+36 -3.4577294e+38)
(-4.2457823e+39 1.6516325e+36 -3.3489873e+38)
(-3.7103105e+39 -4.0794734e+36 -3.0787573e+38)
(-3.7511958e+39 -7.627733e+37 -5.2813059e+38)
(-3.7481237e+39 3.4098054e+37 -5.2687306e+38)
(-4.2425009e+39 -3.0718087e+37 -3.7184912e+38)
(-4.2336346e+39 -1.008708e+37 -3.6838898e+38)
(-3.7293342e+39 -4.6966647e+37 -3.1727765e+38)
(-3.7376699e+39 9.9753172e+36 -3.1277189e+38)
(-3.7893351e+39 3.087889e+37 6.581091e+37)
(-3.7425264e+39 -6.0796488e+37 -5.1993715e+38)
(-3.733328e+39 5.5139107e+37 -5.1474373e+38)
(-3.7914879e+39 -5.656204e+37 6.2348571e+37)
(-4.2413597e+39 -1.8727019e+37 -3.6361565e+38)
(-4.2524645e+39 2.9262409e+36 -3.6297207e+38)
(-3.7410785e+39 -4.1503036e+37 -3.0711531e+38)
(-3.7347621e+39 1.827786e+37 -3.0390805e+38)
(-4.2238443e+39 -1.1424251e+37 -3.5291108e+38)
(-3.7167028e+39 -2.7279622e+37 -2.8866647e+38)
(-4.2517975e+39 -3.3202025e+37 -3.5022821e+38)
(-3.6984283e+39 2.3617559e+37 -2.9570399e+38)
(-3.8822599e+39 -2.9224407e+37 -2.743168e+38)
(-3.8422889e+39 -3.4795082e+37 -3.8982713e+38)
(-3.8401572e+39 -1.7111642e+37 -3.6114218e+38)
(-3.8731265e+39 -1.8488683e+37 -2.7548877e+38)
(-3.9495999e+39 -2.3317e+37 -3.8517222e+38)
(-3.8083028e+39 -2.75358e+37 -5.7353915e+38)
(-3.8180524e+39 6.7529538e+36 -5.5803639e+38)
(-3.959161e+39 7.2066884e+36 -3.7868676e+38)
(-3.8339423e+39 -2.9637128e+37 -5.4737465e+38)
(-3.8259023e+39 -5.0742411e+37 -5.6113972e+38)
(-3.9087122e+39 -4.4727062e+37 -3.9876552e+38)
(-3.9170563e+39 -3.2919343e+37 -3.8554532e+38)
(-3.8382562e+39 -5.8594607e+37 -2.9757625e+38)
(-3.7980225e+39 -5.0809219e+37 -3.7882797e+38)
(-3.8050668e+39 -4.378646e+37 -3.6558715e+38)
(-3.8402062e+39 -4.3191211e+37 -2.9053093e+38)
(-3.6724602e+39 -2.4222878e+37 -1.9941339e+38)
(-3.6628907e+39 -2.9544839e+37 -2.3120532e+38)
(-3.6658013e+39 -3.3725338e+37 -2.3236353e+38)
(-3.6627794e+39 -3.630302e+37 -2.1127819e+38)
(-3.7720854e+39 -3.1718332e+37 -2.3942281e+38)
(-3.7783598e+39 -3.3831938e+37 -2.8585904e+38)
(-3.7874408e+39 -2.7589424e+37 -2.6992466e+38)
(-3.7666669e+39 -2.8089075e+37 -2.4345772e+38)
(-3.7571624e+39 -4.5658851e+37 -2.7868975e+38)
(-3.7515719e+39 -5.6888606e+37 -2.8329528e+38)
(-3.7402508e+39 -5.3072931e+37 -2.4860694e+38)
(-3.7421544e+39 -4.3150338e+37 -2.4934716e+38)
(-3.636131e+39 -4.5642852e+37 -2.2115962e+38)
(-3.645033e+39 -5.0036391e+37 -2.3595313e+38)
(-3.6495103e+39 -4.678395e+37 -2.3475198e+38)
(-3.6369018e+39 -4.3824515e+37 -2.2225442e+38)
(-3.6873433e+39 -4.4876829e+37 -2.1987308e+38)
(-3.6692037e+39 -5.1961691e+37 -2.6584023e+38)
(-3.6849014e+39 -2.4343674e+37 -2.5803532e+38)
(-3.6898165e+39 -2.9470365e+37 -2.3240834e+38)
(-3.7759702e+39 -5.4083096e+37 -2.6766327e+38)
(-3.8053706e+39 -5.6199403e+37 -2.9640018e+38)
(-3.8124317e+39 -1.5449e+37 -3.0198829e+38)
(-3.784618e+39 -2.0444955e+37 -2.7334634e+38)
(-3.8155089e+39 -2.9676561e+37 -2.948694e+38)
(-3.7970992e+39 -5.0778608e+37 -2.9327662e+38)
(-3.7864984e+39 -5.1152019e+37 -2.6304284e+38)
(-3.7858972e+39 -3.2026252e+37 -2.6735309e+38)
(-3.6803614e+39 -4.1639649e+37 -2.2628636e+38)
(-3.684395e+39 -4.5877428e+37 -2.4872174e+38)
(-3.689324e+39 -3.4433234e+37 -2.496162e+38)
(-3.6792562e+39 -3.5680369e+37 -2.3290468e+38)
(-3.8663359e+39 -2.5258884e+37 -5.7670978e+38)
(-3.8643122e+39 -5.2178593e+37 -5.7181083e+38)
(-3.9968131e+39 -5.556179e+37 -4.0114036e+38)
(-3.9948636e+39 -2.9803464e+37 -4.0779854e+38)
(-3.868707e+39 -7.0969517e+35 -5.6618025e+38)
(-3.8632933e+39 -5.7360423e+37 -5.6295306e+38)
(-3.9902517e+39 -5.9612182e+37 -3.9922209e+38)
(-3.9951976e+39 -2.1876471e+36 -4.0989115e+38)
(-3.8730816e+39 -1.5418333e+37 -3.8931893e+38)
(-3.871361e+39 -5.9760361e+37 -3.7776239e+38)
(-3.8922393e+39 -5.8358394e+37 -3.1310278e+38)
(-3.9028539e+39 -9.4191316e+36 -3.1635396e+38)
(-3.899691e+39 -5.331067e+37 -3.0986356e+38)
(-3.8674662e+39 -4.8816553e+37 -3.8472387e+38)
(-3.8734524e+39 -3.0985847e+37 -3.8410051e+38)
(-3.9005008e+39 -2.568217e+37 -3.1344791e+38)
(-3.9102131e+39 -3.2142706e+37 -2.9076191e+38)
(-3.8801683e+39 -3.7212853e+37 -3.9907844e+38)
(-3.8690617e+39 -2.1630154e+37 -3.8238754e+38)
(-3.8963257e+39 -2.0254625e+37 -3.0402783e+38)
(-4.006817e+39 -3.0003499e+37 -3.9401543e+38)
(-3.8686362e+39 -3.2182326e+37 -5.7359885e+38)
(-3.8685045e+39 1.6725881e+36 -5.6851496e+38)
(-3.9972561e+39 -4.1265714e+36 -4.036874e+38)
(-3.8765417e+39 -1.1269145e+37 -5.7177264e+38)
(-3.8778679e+39 -5.5085909e+37 -5.7162803e+38)
(-4.0079281e+39 -6.3990868e+37 -4.01454e+38)
(-3.9997862e+39 -2.2729183e+37 -4.0949232e+38)
(-3.909417e+39 -6.768483e+37 -3.1218445e+38)
(-3.8773311e+39 -6.121284e+37 -3.8575047e+38)
(-3.8778152e+39 -2.8941271e+37 -3.8609913e+38)
(-3.9017555e+39 -2.8822055e+37 -3.1895623e+38)
(-3.795678e+39 -3.4401788e+37 -2.5476048e+38)
(-3.8026421e+39 -3.7028501e+37 -2.9838851e+38)
(-3.7905765e+39 -2.7075703e+37 -2.6139584e+38)
(-3.8084433e+39 -2.6153097e+37 -2.9134369e+38)
(-3.6790951e+39 -3.0962491e+37 -2.2674511e+38)
(-3.6848487e+39 -3.2741603e+37 -2.4725381e+38)
(-3.6823151e+39 -3.1041926e+37 -2.5117802e+38)
(-3.6797442e+39 -3.2873176e+37 -2.2868727e+38)
(-3.8088779e+39 -6.0560961e+37 -2.9689551e+38)
(-3.7898645e+39 -5.5148261e+37 -2.6844212e+38)
(-3.7895526e+39 -2.6285842e+37 -2.7811449e+38)
(-3.8163672e+39 -3.0016911e+37 -3.017808e+38)
(-3.6901005e+39 -2.7174678e+37 -2.6062997e+38)
(-3.6897636e+39 -4.95917e+37 -2.5484106e+38)
(-3.6757036e+39 -4.1338749e+37 -2.4018169e+38)
(-3.8012901e+39 -3.0525093e+37 -2.9007256e+38)
(-3.7818284e+39 -3.3623318e+37 -2.9245197e+38)
(-3.7809517e+39 -2.9746093e+37 -2.62197e+38)
(-3.7781924e+39 -2.9565864e+37 -2.5429878e+38)
(-3.827742e+39 -6.3934325e+35 -3.0624704e+38)
(-3.8224315e+39 -4.0187351e+37 -3.0205148e+38)
(-3.8055006e+39 -3.6083695e+37 -2.7060003e+38)
(-3.7980858e+39 -5.2160216e+36 -2.7685242e+38)
(-3.6981621e+39 -8.1902045e+36 -2.607105e+38)
(-3.7053053e+39 -3.0488108e+37 -2.5511064e+38)
(-3.8726337e+39 3.89656e+35 -5.7648866e+38)
(-3.8739885e+39 -4.2094238e+37 -5.7431941e+38)
(-4.009667e+39 -4.5506406e+37 -4.167761e+38)
(-4.0182994e+39 2.1074414e+36 -4.102053e+38)
(-3.8856171e+39 9.8642834e+35 -3.976837e+38)
(-3.9116704e+39 -4.2113404e+37 -3.217225e+38)
(-3.8834458e+39 -4.0123404e+37 -3.9457182e+38)
(-3.9171357e+39 5.6428576e+36 -3.237948e+38)
(-3.8945115e+39 -3.581695e+37 -2.8333157e+38)
(-3.842859e+39 -3.387629e+37 -3.8570431e+38)
(-3.857683e+39 -2.9890127e+37 -3.8191006e+38)
(-3.8835783e+39 -3.0331448e+37 -3.0455833e+38)
(-4.0117025e+39 -4.2414464e+37 -3.6439896e+38)
(-3.8478873e+39 -3.8705631e+37 -5.6991759e+38)
(-3.8420478e+39 -1.3528159e+37 -5.874918e+38)
(-3.9719932e+39 -2.1310199e+37 -4.1048764e+38)
(-3.5152288e+39 -9.1464029e+37 -5.8793622e+37)
(-3.5307051e+39 3.8906841e+37 -4.3584892e+37)
(-3.275132e+39 -1.1474915e+38 9.0451401e+36)
(-3.2857225e+39 5.7179024e+37 8.3317083e+36)
(-3.5090934e+39 -8.3412653e+37 -6.0129765e+38)
(-3.5609358e+39 4.7706784e+37 -5.9357383e+38)
(-3.5642513e+39 -8.5478619e+37 -5.9660333e+38)
(-3.5731946e+39 6.6281251e+37 -5.9525271e+38)
(-3.8318508e+39 -1.4483452e+37 -5.7989767e+38)
(-3.6458257e+39 -4.6620395e+37 -4.6018373e+38)
(-3.6680303e+39 4.1088586e+37 -4.3473932e+38)
(-3.8662416e+39 4.383747e+37 -5.5488243e+38)
(-3.8886366e+39 -4.7325263e+37 -5.6992879e+38)
(-3.7007523e+39 -6.2138614e+37 -4.453306e+38)
(-3.724145e+39 4.5562815e+37 -4.4087866e+38)
(-3.8932174e+39 2.9794279e+37 -5.6523275e+38)
(-3.7293768e+39 4.8122126e+37 -4.4072681e+38)
(-3.7254034e+39 -6.297746e+37 -4.4733929e+38)
(-3.8899496e+39 -3.8516595e+37 -5.7551865e+38)
(-3.905734e+39 4.3326743e+37 -5.6907773e+38)
(-3.7139387e+39 4.479964e+37 -4.5216941e+38)
(-3.7187857e+39 -5.0978703e+37 -4.3785537e+38)
(-3.9056996e+39 -5.2521268e+37 -5.6158643e+38)
(-3.8879288e+39 1.625902e+37 -5.7470857e+38)
(-3.2886668e+39 -7.9325166e+37 3.8014758e+36)
(-3.5540763e+39 -6.7480888e+37 -6.0194725e+38)
(-3.5574488e+39 8.134176e+37 -6.0069776e+38)
(-3.8704171e+39 -2.0632056e+37 -5.7628853e+38)
(-3.6948104e+39 -4.2171351e+37 -4.5563921e+38)
(-3.6970635e+39 5.6769651e+37 -4.4186195e+38)
(-3.8818084e+39 5.0860683e+37 -5.6506574e+38)
(-3.8824296e+39 -4.0935182e+37 -5.6248522e+38)
(-3.7039689e+39 -4.1016611e+37 -4.3866467e+38)
(-3.6973251e+39 7.9842636e+37 -4.4720891e+38)
(-3.8603698e+39 5.6421205e+37 -5.7299779e+38)
(-3.2909209e+39 8.7900309e+37 -4.5273661e+35)
(-3.5195076e+39 -6.5074789e+37 -4.927958e+37)
(-3.5093706e+39 6.8052058e+37 -6.4273713e+37)
(-3.8106682e+39 -2.1118576e+37 -6.2780257e+38)
(-3.8076424e+39 4.9761421e+36 -6.3170296e+38)
(-3.7074437e+39 -2.5602738e+37 -4.4554115e+38)
(-3.6992667e+39 -2.2921197e+36 -4.5885578e+38)
(-3.7774446e+39 -1.6266794e+37 -6.5143419e+38)
(-3.7536478e+39 1.1085513e+37 -6.5066189e+38)
(-3.6729795e+39 -2.2251242e+37 -4.6847468e+38)
(-3.6557313e+39 1.0926303e+36 -4.5670402e+38)
(-3.5003589e+39 -6.2897305e+36 -3.2577984e+38)
(-3.381991e+39 -8.2182085e+36 -2.2246642e+38)
(-3.3876119e+39 -2.5932648e+37 -2.5015706e+38)
(-3.5094476e+39 -2.4791565e+37 -3.495989e+38)
(-3.5377045e+39 -5.3283891e+36 -3.4278913e+38)
(-3.4135896e+39 -7.4569131e+36 -2.4835011e+38)
(-3.4220419e+39 -2.3389971e+37 -2.3466631e+38)
(-3.5447008e+39 -2.5153284e+37 -3.3087393e+38)
(-3.3213702e+39 -2.0902695e+37 -1.862907e+38)
(-3.3183489e+39 -7.6541534e+36 -1.9110539e+38)
(-3.220168e+39 -7.8807569e+36 -1.566186e+38)
(-3.2261292e+39 -1.8866357e+37 -1.4898493e+38)
(-3.2897069e+39 -2.6289207e+37 -1.9736039e+38)
(-3.2916838e+39 -8.8084198e+36 -1.6341088e+38)
(-3.198382e+39 -7.748077e+36 -1.2791797e+38)
(-3.1968174e+39 -2.3955342e+37 -1.5627549e+38)
(-3.110032e+39 -2.1264668e+37 -1.3397183e+38)
(-3.1379125e+39 -1.6487101e+37 -1.2916e+38)
(-3.1317715e+39 -7.1909654e+36 -1.3553303e+38)
(-3.0511418e+39 -6.3036217e+36 -1.1419971e+38)
(-3.0581483e+39 -1.3098645e+37 -1.092723e+38)
(-3.3255104e+39 -1.9251754e+37 -1.795987e+38)
(-3.3102747e+39 -6.8209104e+36 -2.0696621e+38)