/*--------------------------------*- C++ -*----------------------------------*\
  =========                 |
  \\      /  F ield         | OpenFOAM: The Open Source CFD Toolbox
   \\    /   O peration     | Website:  https://openfoam.org
    \\  /    A nd           | Version:  7
     \\/     M anipulation  |
\*---------------------------------------------------------------------------*/
FoamFile
{
    version     2.0;
    format      ascii;
    class       volScalarField;
    location    "4000";
    object      k;
}
// * * * * * * * * * * * * * * * * * * * * * * * * * * * * * * * * * * * * * //

dimensions      [0 2 -2 0 0 0 0];

internalField   nonuniform List<scalar> 
34158
(
1.5209535
1.5196512
1.5192735
1.5190653
1.5198939
1.5217034
1.5207563
1.5196175
1.5233614
1.5232451
1.5191522
1.5194125
1.5192665
1.5190884
1.519662
1.5198296
1.5222578
1.5215758
1.5205672
1.5196104
1.5171952
1.5167818
1.5234737
1.5235737
1.5228255
1.5234654
1.5233699
1.5227894
1.5224969
1.5225147
1.5225024
1.5224918
1.5224245
1.5224247
1.5167722
1.5166827
1.517577
1.5179584
1.5179643
1.5192145
1.518429
1.5194188
1.5192699
1.519114
1.5180393
1.5180857
1.5195718
1.5195123
1.5197799
1.5222651
1.5222609
1.5214424
1.5204186
1.5196385
1.5235935
1.5242523
1.5170894
1.5164191
1.5170648
1.5167338
1.5228057
1.5195604
1.52369
1.5229593
1.5229168
1.5237118
1.5221867
1.5221952
1.5223323
1.522356
1.5224603
1.5224323
1.5224441
1.5224734
1.5223795
1.5225884
1.5225768
1.5224187
1.5224181
1.5223813
1.522523
1.522326
1.5218757
1.5218527
1.5217695
1.5217921
1.5216394
1.5216142
1.521616
1.5216027
1.5216299
1.5216102
1.5215755
1.5218712
1.5217869
1.5218617
1.5217646
1.5217976
1.5217993
1.5217131
1.521706
1.5215378
1.5215609
1.5215275
1.5215538
1.5246175
1.5244193
1.5168377
1.5162927
1.5169172
1.5167015
1.5177357
1.5182295
1.5175721
1.5178981
1.5166855
1.5164079
1.5177977
1.5179251
1.5192706
1.5182912
1.5182972
1.519437
1.5192853
1.5191502
1.5181064
1.5170615
1.517019
1.5181538
1.5169341
1.5170974
1.5195301
1.5193984
1.5193893
1.5197483
1.5223
1.5222431
1.5222529
1.5213121
1.5203031
1.5196802
1.525243
1.5235385
1.5238684
1.524361
1.5160273
1.5169871
1.5158718
1.5163727
1.5158501
1.5159453
1.5159389
1.5230044
1.5207559
1.5195615
1.5183282
1.5184026
1.518516
1.5188462
1.5186941
1.5223774
1.5222537
1.5223134
1.5224839
1.5223943
1.5223433
1.5226087
1.5226077
1.5224191
1.5224219
1.5211555
1.5212793
1.5214436
1.521321
1.5209293
1.52094
1.521109
1.5210664
1.5210924
1.5211423
1.5211346
1.5210805
1.5215259
1.5215252
1.5213818
1.5213757
1.5214702
1.5216175
1.5216315
1.5214788
1.5212337
1.5211821
1.5212397
1.5211763
1.5213022
1.5212592
1.5212059
1.5216585
1.521505
1.5215267
1.5216689
1.515888
1.5219032
1.5218948
1.5219992
1.5220095
1.5219443
1.5219513
1.5220086
1.5219501
1.5219477
1.5219978
1.5218472
1.5219421
1.5219377
1.5218936
1.5218931
1.5158837
1.5210566
1.5210502
1.5209201
1.5209176
1.5210132
1.5209628
1.5208784
1.5208352
1.5206508
1.5206627
1.5206918
1.5206912
1.5207298
1.5207257
1.5207272
1.520734
1.5205903
1.5205909
1.5206123
1.5206126
1.5205575
1.5205359
1.5205706
1.5205871
1.5204686
1.5204934
1.5204943
1.5205609
1.5205567
1.5205402
1.5205374
1.5205549
1.5205563
1.5205659
1.5205914
1.5206112
1.5205813
1.5205563
1.5204923
1.5204558
1.5205258
1.5205052
1.5204357
1.5204377
1.5205049
1.5210607
1.5210499
1.5209167
1.5209201
1.520733
1.5207253
1.5207109
1.5207278
1.5209065
1.5210485
1.5210372
1.5208896
1.5206974
1.5207019
1.5206809
1.5206806
1.5209896
1.5209952
1.520861
1.5208468
1.520982
1.5209666
1.5208383
1.5208434
1.5206605
1.5206585
1.5206565
1.5206452
1.520665
1.5206769
1.5206666
1.5206517
1.5205255
1.5204481
1.5204091
1.5204766
1.5205626
1.5205337
1.5205099
1.5205288
1.5205137
1.5204384
1.5204225
1.5204859
1.5205528
1.5205346
1.5205204
1.5205358
1.519353
1.5197858
1.5199607
1.5255777
1.5242939
1.5244921
1.5241485
1.5155954
1.5169022
1.5157101
1.5163324
1.5174182
1.5175253
1.5169332
1.5177385
1.517305
1.5182078
1.5175818
1.5178531
1.5166805
1.5154061
1.5157183
1.5164538
1.5152397
1.5153655
1.5176579
1.5177475
1.5179011
1.5193251
1.5181432
1.5181299
1.5181926
1.5194594
1.5193031
1.5191894
1.5182688
1.516806
1.5167536
1.517043
1.5170703
1.5183275
1.5168356
1.5166803
1.5169616
1.5171159
1.51933
1.5192815
1.5192816
1.5197286
1.5222875
1.5222551
1.5222313
1.5211971
1.5202065
1.5197319
1.5251317
1.5253643
1.5208993
1.5237832
1.5159024
1.515858
1.5158308
1.5158148
1.5158978
1.5156893
1.5140933
1.5145102
1.515806
1.5156148
1.5157251
1.5157441
1.5156566
1.5159037
1.5157973
1.5158057
1.5141731
1.5140203
1.515947
1.5159502
1.5137801
1.5181332
1.5184853
1.5196349
1.5195309
1.5196435
1.5195561
1.5196229
1.5196199
1.5181231
1.5179144
1.5184515
1.5186592
1.5182096
1.5183568
1.5182038
1.5179291
1.5180547
1.5180355
1.5180053
1.5180232
1.5179316
1.5179523
1.5179522
1.5179702
1.518134
1.5184333
1.5181799
1.5184867
1.5184213
1.5182102
1.5182052
1.5184465
1.5215283
1.5215117
1.5216197
1.5215838
1.5216092
1.5216474
1.5217287
1.5217278
1.5216745
1.5216792
1.5139041
1.5217601
1.5217735
1.5138521
1.5218387
1.5218441
1.5217976
1.521803
1.5218739
1.5218245
1.5218705
1.5218268
1.5197931
1.5197729
1.519907
1.5198934
1.5200102
1.5201697
1.5203174
1.5201431
1.5204218
1.5204048
1.5202194
1.5202393
1.519954
1.5199629
1.519989
1.5199782
1.5196456
1.5195393
1.5195988
1.5196816
1.5196782
1.5196323
1.5197276
1.519749
1.5197981
1.5197755
1.5198121
1.5198251
1.5197482
1.5196627
1.5196702
1.519748
1.5197361
1.5196436
1.5196
1.5196885
1.5198112
1.5197951
1.5197574
1.5197682
1.5197435
1.5197466
1.519765
1.5197625
1.5196981
1.5196057
1.5196067
1.5196933
1.5204413
1.5204463
1.5202462
1.5202364
1.5204634
1.52045
1.5202584
1.5202583
1.5199924
1.5200045
1.5199782
1.5199546
1.5199427
1.5199748
1.5199712
1.5199377
1.5200348
1.5200425
1.5200595
1.5200374
1.5203161
1.5205065
1.5205343
1.5203304
1.520551
1.5205504
1.5203504
1.5203446
1.5200493
1.5200804
1.5200753
1.5200371
1.5198771
1.5198466
1.519864
1.5198448
1.5198048
1.5197196
1.519696
1.5197816
1.5198574
1.519874
1.5198446
1.5198401
1.5196797
1.5197122
1.5197881
1.5200122
1.5199108
1.5200408
1.5199348
1.5198504
1.5198806
1.5198928
1.519858
1.5196913
1.5197317
1.5205899
1.5205862
1.5203819
1.5203828
1.5201078
1.5200762
1.5201155
1.5200589
1.5201177
1.5201376
1.5201893
1.5201816
1.5204172
1.520598
1.5206192
1.5204312
1.5158106
1.515848
1.5158068
1.5158459
1.5212605
1.5212918
1.5212982
1.5212899
1.5212019
1.521249
1.5212618
1.5212314
1.5212735
1.5213043
1.5213056
1.5212723
1.5213082
1.5213052
1.5212683
1.5212736
1.5212998
1.5213039
1.5212711
1.521258
1.5158737
1.5212384
1.5212442
1.521191
1.5212341
1.521238
1.5211984
1.521215
1.5212524
1.5212508
1.5212068
1.5158387
1.5158762
1.5158414
1.5194602
1.5194431
1.5189055
1.5188939
1.5193672
1.5192706
1.5188328
1.5187478
1.5184578
1.5182346
1.5183096
1.5185366
1.5185891
1.5183583
1.5183693
1.5186003
1.5181937
1.518181
1.5180425
1.5180583
1.5181344
1.5180619
1.5179252
1.5179977
1.5178904
1.5179534
1.5179344
1.5178507
1.5178729
1.518187
1.5181708
1.5180328
1.5180531
1.5182017
1.5182162
1.5180798
1.5180631
1.5178893
1.5179734
1.5179566
1.5178755
1.517848
1.5179281
1.5179523
1.5178774
1.5194768
1.5194532
1.5189112
1.5189258
1.5186155
1.5183915
1.5183832
1.5186178
1.5189018
1.5194569
1.5194563
1.5189022
1.5185952
1.5185893
1.5183531
1.5183647
1.5194363
1.5194317
1.5188848
1.5188805
1.5193998
1.5193681
1.5188395
1.5188591
1.5183386
1.5185541
1.5185636
1.518342
1.5185806
1.5185859
1.5183622
1.5183595
1.5178715
1.5179454
1.5179395
1.517863
1.5180443
1.5181737
1.5181729
1.5180421
1.5178816
1.517957
1.5179727
1.5180587
1.5181918
1.5181937
1.5180683
1.5176825
1.5195992
1.5195525
1.519483
1.5195307
1.5190264
1.5193182
1.5193483
1.5190483
1.5196938
1.5208644
1.5197695
1.520096
1.5258295
1.5254711
1.521035
1.5240401
1.5157118
1.5154515
1.5156697
1.5157618
1.517612
1.5174607
1.5174078
1.5174906
1.5169127
1.5170947
1.5168223
1.5169056
1.5177454
1.5171838
1.5172582
1.5181869
1.5175976
1.517816
1.5167856
1.515356
1.5150636
1.5154161
1.5156798
1.5166062
1.5150777
1.515375
1.5152437
1.5149315
1.5175771
1.5177144
1.5178886
1.5193668
1.5179626
1.5180117
1.5181136
1.5194768
1.5193265
1.5192353
1.518506
1.5167938
1.5165232
1.5166115
1.5168379
1.5159017
1.5157957
1.5185706
1.5168788
1.5166271
1.5165186
1.5167411
1.5158867
1.5157003
1.5192046
1.5191696
1.5191854
1.5197166
1.5223004
1.5222676
1.5222307
1.5210937
1.5250991
1.5253797
1.5205143
1.5209292
1.5157407
1.5157124
1.5157917
1.5157776
1.5158133
1.5158252
1.5158297
1.5158183
1.5157471
1.5157548
1.5157583
1.5157587
1.515725
1.5157091
1.5155664
1.5155553
1.5156999
1.515683
1.5140152
1.5139691
1.5139942
1.5140243
1.5140012
1.5144083
1.5142011
1.5144958
1.5145192
1.5142813
1.5156424
1.5156303
1.5157422
1.515741
1.5154238
1.5154606
1.5155459
1.515537
1.5156475
1.5156595
1.5156725
1.5156643
1.5156643
1.5156487
1.5156642
1.5154409
1.5155541
1.5154842
1.5155336
1.5158052
1.5158137
1.5158193
1.5158123
1.5157228
1.5157363
1.5157271
1.5157371
1.5157401
1.5140942
1.5142211
1.5140643
1.5139536
1.5139591
1.5139665
1.5139784
1.5139848
1.5159412
1.5159448
1.5159121
1.5159109
1.5139612
1.5158894
1.5159224
1.5159186
1.5158894
1.5161621
1.5139043
1.5181371
1.5178905
1.5179614
1.5181852
1.5165303
1.5165518
1.5164744
1.5164679
1.5164836
1.5177221
1.5176826
1.5176753
1.5177158
1.51754
1.5175584
1.51756
1.5175912
1.5175864
1.5161706
1.5180066
1.5179959
1.5181068
1.5181183
1.5180644
1.5180714
1.5182579
1.5184167
1.5181764
1.518292
1.5180418
1.5181817
1.5160703
1.5176679
1.5176643
1.5176236
1.5176235
1.5175678
1.5175698
1.5177565
1.5177527
1.5177053
1.5177029
1.5177416
1.5177342
1.5176895
1.5176873
1.5176197
1.5176259
1.5176296
1.51762
1.5176374
1.5176376
1.5176365
1.5176366
1.5175954
1.5175859
1.5175735
1.5175826
1.5175906
1.5175904
1.5176008
1.5175992
1.5175429
1.5175721
1.5175911
1.5175618
1.5175606
1.5175885
1.5177228
1.5177059
1.5176985
1.5177148
1.5180577
1.5178509
1.5178976
1.5181011
1.5176695
1.5176765
1.5177201
1.517712
1.5179251
1.5178553
1.5180878
1.5181427
1.5180976
1.5179783
1.5179458
1.5180784
1.517878
1.51787
1.5178239
1.5178215
1.5177586
1.5177514
1.5177466
1.5177518
1.5178997
1.5178708
1.5180355
1.5180716
1.5207297
1.5206116
1.5204911
1.5205916
1.5206575
1.5207589
1.5207554
1.5206975
1.5207024
1.5207748
1.5139427
1.5139024
1.52085
1.5208376
1.5207588
1.5208296
1.5208341
1.5207644
1.5207623
1.5208283
1.5208273
1.52075
1.5139081
1.5139898
1.5139059
1.5139907
1.520954
1.5209566
1.5209969
1.5209836
1.5139426
1.5139044
1.5209261
1.5209187
1.520831
1.5208477
1.5208693
1.5209439
1.5209432
1.5208621
1.5209129
1.5209789
1.5209839
1.5209124
1.5209747
1.5208989
1.5208999
1.5209768
1.5170503
1.5172942
1.5173078
1.5170423
1.5176197
1.5182269
1.5183195
1.5176624
1.5184374
1.5184074
1.5177127
1.5177393
1.5170555
1.5173356
1.5173601
1.5170804
1.5165891
1.5166492
1.5165946
1.5165227
1.51674
1.5168707
1.5168458
1.5167007
1.5168742
1.5168512
1.5167014
1.5167225
1.516518
1.516594
1.5166131
1.5165361
1.516491
1.5165713
1.5165434
1.5164624
1.5166869
1.5168463
1.5168204
1.5166608
1.5167973
1.5167785
1.5166206
1.5166429
1.5164323
1.5165095
1.5165347
1.5164606
1.5184131
1.518416
1.5176968
1.5177016
1.5184403
1.5184247
1.5177211
1.5177244
1.5173302
1.5173417
1.5170598
1.5170391
1.516999
1.5172979
1.5173067
1.5170147
1.5170612
1.5173535
1.5173654
1.5170698
1.51774
1.5184334
1.5184798
1.5177636
1.518525
1.5185159
1.517791
1.5178001
1.5170806
1.5173856
1.5173943
1.5170932
1.5166869
1.5168462
1.5166852
1.5168504
1.5164982
1.5165763
1.5165679
1.5164849
1.5168572
1.5166928
1.5167065
1.5168713
1.516592
1.5165747
1.5164916
1.5171867
1.5169451
1.5170546
1.5167814
1.5169073
1.51692
1.5167539
1.5167384
1.5166187
1.5166353
1.5185784
1.5185644
1.517851
1.5178604
1.5174513
1.5171486
1.5174525
1.5171424
1.5171786
1.5174904
1.5176433
1.5173794
1.5178962
1.5185937
1.518654
1.5180023
1.5157711
1.5157379
1.5157405
1.5157705
1.5158353
1.5158333
1.5158331
1.515835
1.5157643
1.5157276
1.5157272
1.5157638
1.5158329
1.5158307
1.5158305
1.5158329
1.5206382
1.5206522
1.5207256
1.52073
1.5207338
1.5207323
1.5207344
1.5207282
1.5199864
1.520042
1.5201188
1.5201357
1.5201257
1.5201383
1.5201331
1.5201297
1.5158612
1.5158595
1.5158615
1.5158597
1.5206613
1.5206616
1.5206892
1.5206905
1.5200459
1.5200682
1.5200984
1.5201116
1.5158318
1.5158318
1.5158642
1.5158628
1.5158627
1.5158641
1.5158355
1.5158047
1.5158064
1.5158352
1.5161255
1.5162452
1.5162457
1.5161384
1.5161113
1.5162319
1.5162202
1.5161124
1.5164831
1.5161497
1.5161441
1.5164681
1.5164735
1.5161407
1.5161197
1.5164405
1.5161822
1.5160402
1.5161457
1.5160697
1.516099
1.5159135
1.5160186
1.5159987
1.5160736
1.5160869
1.5164017
1.5164054
1.5159442
1.5162962
1.5163481
1.5160282
1.5163237
1.5162689
1.5165985
1.5166366
1.5166069
1.5165749
1.5168444
1.5168653
1.516664
1.5166869
1.5169365
1.5169184
1.5163804
1.5163907
1.5167044
1.516693
1.5167706
1.5164538
1.516411
1.5167246
1.5166929
1.5167463
1.5169981
1.5169471
1.516725
1.5167583
1.5170124
1.5169819
1.5164408
1.5164623
1.516783
1.5167583
1.5169505
1.5169851
1.5171776
1.5171502
1.5169152
1.5169706
1.5171595
1.5171124
1.517267
1.5171275
1.5170786
1.5172286
1.5172899
1.5171475
1.5171192
1.5172707
1.5168891
1.5169114
1.5171015
1.5170862
1.5170209
1.5168181
1.5168342
1.5170345
1.5171399
1.5169903
1.5170019
1.5171517
1.5172132
1.5170716
1.5170546
1.5172038
1.5171734
1.517182
1.5172886
1.5172845
1.5172419
1.51726
1.517367
1.5173544
1.5173391
1.5172354
1.5171963
1.5173094
1.517392
1.5173114
1.5172813
1.5173695
1.517422
1.5173408
1.5173303
1.5174169
1.5169482
1.5170029
1.5171929
1.5171461
1.5169028
1.5169661
1.5171507
1.5170958
1.5172588
1.5171199
1.5170661
1.5172171
1.5173083
1.5171652
1.517118
1.5172718
1.5169411
1.5170006
1.5171884
1.5171373
1.5172121
1.5170247
1.5169583
1.517153
1.5173228
1.5171811
1.5171183
1.5172681
1.5172962
1.5171572
1.5171025
1.5172529
1.5174527
1.5173694
1.5173193
1.5174098
1.5173964
1.517293
1.5172355
1.5173488
1.5172221
1.5172669
1.5173712
1.5173349
1.5174258
1.5173456
1.5173092
1.5173979
1.5173934
1.5173071
1.51728
1.5173705
1.5173341
1.5172292
1.5171903
1.5173044
1.5172488
1.5172836
1.5173917
1.5173642
1.517452
1.5173703
1.5173459
1.5174347
1.5161595
1.5162723
1.5162801
1.5161719
1.5161564
1.5162694
1.516256
1.5161542
1.5165195
1.5161836
1.5161636
1.5164799
1.5165081
1.5161812
1.5161743
1.5164916
1.516824
1.5165048
1.5164579
1.5167731
1.5167422
1.5168015
1.5170525
1.5169938
1.5167307
1.5167826
1.5170285
1.5169778
1.5164608
1.516491
1.5168043
1.5167671
1.5164933
1.5161808
1.5161522
1.5164581
1.5161621
1.5162704
1.5162479
1.5161517
1.5161637
1.5162744
1.5162644
1.5161645
1.5161652
1.5165095
1.5161796
1.5164826
1.5164526
1.5164866
1.5168036
1.5167622
1.5167745
1.5164709
1.5164266
1.5167236
1.5166909
1.5167506
1.516994
1.5169349
1.516729
1.5167794
1.51703
1.5169808
1.5162443
1.5161597
1.5161564
1.5162701
1.5161538
1.5161444
1.5162679
1.5162375
1.5161477
1.5165115
1.5161818
1.5164683
1.5165085
1.5161782
1.5161473
1.5164655
1.5161311
1.5162381
1.5162505
1.5161469
1.51613
1.5161272
1.5162303
1.5162192
1.5164833
1.5161564
1.5161398
1.5164582
1.5161575
1.5161624
1.516481
1.5164731
1.5167231
1.5167728
1.5170307
1.5169754
1.51679
1.5164729
1.5164389
1.5167532
1.5167829
1.5164734
1.5164501
1.5167547
1.516727
1.516765
1.5170078
1.5169714
1.5164448
1.5164936
1.5168121
1.5167611
1.5164455
1.5164981
1.5168113
1.5167569
1.5167274
1.5167906
1.5170358
1.5169765
1.5167371
1.5167914
1.5170408
1.5169924
1.5174716
1.5173865
1.5173267
1.5174196
1.5174067
1.5172983
1.5172337
1.517351
1.5172245
1.5172501
1.5173567
1.5173351
1.5174138
1.5173325
1.5173124
1.5173987
1.5173235
1.5171769
1.5171096
1.5172627
1.5172025
1.5170097
1.516945
1.5171414
1.516943
1.5169845
1.5171686
1.5171336
1.5172791
1.5171411
1.5171051
1.5172521
1.5174523
1.5173668
1.5173247
1.5174184
1.5173904
1.5172819
1.5172323
1.5173485
1.5172766
1.5172957
1.5174042
1.5173908
1.5173087
1.5171693
1.5171111
1.5172605
1.516947
1.5170111
1.5171975
1.5171414
1.5169697
1.5170175
1.5172069
1.5171685
1.5173224
1.5171816
1.5171463
1.517298
1.5173557
1.517777
1.5178153
1.5181245
1.5180504
1.5173457
1.5176635
1.5177266
1.5174002
1.5175806
1.5176872
1.5177551
1.5194679
1.5177036
1.5195261
1.5187657
1.5192803
1.5193425
1.5188151
1.5189071
1.5197088
1.5221848
1.5209829
1.525806
1.5256056
1.5209736
1.5204305
1.5155782
1.5153236
1.515634
1.5157289
1.5170952
1.5175832
1.516593
1.5174539
1.517399
1.5174606
1.5169809
1.5161917
1.5165004
1.5165974
1.5163104
1.5171149
1.5166852
1.5167946
1.5167312
1.5166196
1.5167051
1.5167846
1.5168812
1.517753
1.5170397
1.5171256
1.5172142
1.5181607
1.5176238
1.5177901
1.5169718
1.5148002
1.5151003
1.5153378
1.5150375
1.5143427
1.5139861
1.5168361
1.5148539
1.5147041
1.5149627
1.5151147
1.5140592
1.5139286
1.5175141
1.517687
1.5178766
1.5194053
1.5178077
1.517914
1.5180401
1.5194936
1.5166714
1.516603
1.516387
1.5162968
1.5158038
1.5158051
1.5159142
1.5159101
1.5158359
1.5158284
1.5158229
1.5158301
1.5156666
1.5157735
1.51576
1.5156606
1.5166225
1.5167113
1.5163538
1.5164089
1.5158945
1.5158992
1.5157622
1.5157303
1.515834
1.5158458
1.5158392
1.515828
1.5157557
1.5155707
1.5155734
1.515735
1.5190862
1.5190787
1.5190949
1.5223179
1.5222941
1.5222404
1.5250184
1.525336
1.5200723
1.5204795
1.5155571
1.5157346
1.5157523
1.5157584
1.5157506
1.515744
1.5157616
1.5157538
1.5157547
1.5157623
1.5157553
1.5157547
1.5157656
1.5157658
1.515752
1.5157439
1.515754
1.5157614
1.5157303
1.5157342
1.515732
1.5157276
1.515739
1.5157398
1.5157373
1.5157363
1.5157371
1.5157374
1.5157407
1.5157405
1.5157386
1.5157413
1.5157417
1.5157383
1.5157073
1.5156896
1.5156913
1.5157073
1.5157023
1.5157041
1.5156866
1.5156872
1.5155835
1.515588
1.5155963
1.5154662
1.5154748
1.5155873
1.515697
1.5156996
1.5156993
1.515697
1.5156847
1.515684
1.5156754
1.5156751
1.5139572
1.5139695
1.5139909
1.5139798
1.513922
1.5139331
1.5139318
1.5139207
1.5139457
1.5139318
1.5139463
1.5139586
1.5139573
1.5139423
1.513976
1.5139626
1.5139468
1.5139479
1.5139298
1.5139287
1.5141552
1.514207
1.5144804
1.5144796
1.5140482
1.5140836
1.5141072
1.5140773
1.514272
1.5143235
1.514511
1.5145054
1.5145201
1.5143094
1.5143568
1.5145283
1.514073
1.5141467
1.5141242
1.5141014
1.5154173
1.5155407
1.5155511
1.5154484
1.5155544
1.5154421
1.5154216
1.5155517
1.5156506
1.5156593
1.5156737
1.515668
1.5156484
1.5156651
1.5156737
1.5156594
1.5153071
1.5153617
1.5153699
1.5153245
1.5153112
1.5153467
1.5153824
1.5153613
1.5154972
1.515488
1.5155142
1.5155099
1.5154928
1.515497
1.5155158
1.5155152
1.5156163
1.5156209
1.5156235
1.5156196
1.5156147
1.5156234
1.5156265
1.5156193
1.5156425
1.5156359
1.515644
1.5156491
1.5156379
1.5156406
1.5156474
1.5156458
1.5156201
1.5156166
1.5156124
1.5156238
1.5156194
1.5156174
1.5156212
1.5156231
1.5156373
1.5156393
1.5156459
1.5156454
1.5153478
1.5153321
1.5153724
1.5153809
1.5154799
1.5154912
1.5155073
1.5155
1.5153327
1.5153702
1.5153918
1.5153625
1.5154879
1.515491
1.5155075
1.5155081
1.5157182
1.5157274
1.5157311
1.5157232
1.5157326
1.5157415
1.5157432
1.5157352
1.5157334
1.5157456
1.5157474
1.5157362
1.5157189
1.5157319
1.5157353
1.5157235
1.5156962
1.5156983
1.5157016
1.5157
1.515697
1.5156991
1.5157075
1.5157062
1.5157036
1.515707
1.5157079
1.5157048
1.5157167
1.5157164
1.515713
1.5157134
1.515717
1.515723
1.5157205
1.51572
1.5162052
1.5157482
1.5141979
1.5141973
1.5140405
1.514058
1.5143615
1.514203
1.5140511
1.514059
1.5140365
1.5140239
1.5139572
1.5139616
1.5139554
1.5139499
1.5139312
1.5139387
1.5139353
1.5139272
1.5139461
1.5139523
1.5139457
1.5139381
1.5139493
1.5139375
1.5139338
1.5139461
1.5139521
1.5139448
1.5163773
1.5163388
1.5159373
1.5164727
1.5164194
1.515892
1.5139716
1.5140486
1.5140397
1.5139686
1.5163877
1.5164157
1.5159163
1.5158497
1.5160945
1.5161881
1.5139897
1.5139573
1.5139544
1.5139835
1.5167089
1.5167819
1.5167668
1.5166948
1.5163806
1.5163316
1.5162273
1.5162909
1.5163249
1.5162573
1.5161426
1.5162269
1.5160514
1.5160722
1.5161495
1.5161325
1.5160171
1.5160599
1.5161377
1.5161029
1.5160512
1.5160659
1.5161438
1.516132
1.5168091
1.5168224
1.5167943
1.5167806
1.5168237
1.5168202
1.5168277
1.5168165
1.5168094
1.5161694
1.5161687
1.5178055
1.5177488
1.5177842
1.5177852
1.5177503
1.5178226
1.5178473
1.5178506
1.5178285
1.5178406
1.5178596
1.5178629
1.5178428
1.5178509
1.5178544
1.5179577
1.5179594
1.5179643
1.5179629
1.5180555
1.5180277
1.518103
1.5181489
1.517946
1.518034
1.5160881
1.5159857
1.5160889
1.5159895
1.5172488
1.5172466
1.5171036
1.5171034
1.5170313
1.5169814
1.5172579
1.5172639
1.5171005
1.5170906
1.5172523
1.5172503
1.5170953
1.5170911
1.5170116
1.5170201
1.5169682
1.5169564
1.5169617
1.5170185
1.517008
1.5169512
1.5168995
1.5169298
1.5169159
1.5168845
1.5169102
1.5169203
1.5168886
1.516879
1.5168594
1.5168395
1.5168432
1.5168634
1.5168545
1.5168353
1.5168897
1.5169244
1.516897
1.5168621
1.5168269
1.5168877
1.5168518
1.5167828
1.5168345
1.5168622
1.5168402
1.5168123
1.516801
1.516824
1.516751
1.5167272
1.5173381
1.5173245
1.5171167
1.5171033
1.5172972
1.5173049
1.5171219
1.5171048
1.516969
1.5170309
1.5170088
1.5169434
1.516937
1.5170094
1.5169788
1.5168893
1.514029
1.5199279
1.5199445
1.5191195
1.5191833
1.5200476
1.5200433
1.5192816
1.5193
1.513988
1.5140289
1.5139876
1.5139136
1.5139125
1.5139139
1.5139126
1.5201102
1.5201037
1.5200978
1.5200907
1.519315
1.5193228
1.5193064
1.5193007
1.5139176
1.5139136
1.5139135
1.513917
1.513979
1.5139784
1.5140489
1.5140416
1.5139119
1.5139165
1.5139118
1.5139163
1.5139794
1.5140552
1.5139794
1.5140541
1.5201815
1.5201803
1.5202062
1.5201978
1.5202456
1.5202325
1.5202312
1.5202421
1.5139832
1.5140201
1.5140163
1.5139834
1.5139148
1.5139147
1.5139141
1.513914
1.5193504
1.519378
1.5194077
1.5194088
1.5194541
1.5194852
1.5194516
1.5194508
1.515135
1.5152943
1.5156149
1.5154706
1.5152876
1.5148943
1.5147498
1.5151504
1.5147097
1.5147222
1.5151261
1.5151068
1.5150905
1.5151266
1.5154489
1.5154146
1.5143376
1.5148957
1.5144742
1.5147649
1.514412
1.5145324
1.5143162
1.5144087
1.5144228
1.5142742
1.5143857
1.514305
1.5147178
1.5143086
1.5143178
1.5147235
1.5142741
1.5144176
1.5144167
1.514289
1.5142681
1.5144081
1.5143847
1.514266
1.5147274
1.5143034
1.5142723
1.5146738
1.5147414
1.5143063
1.5142921
1.514711
1.5150396
1.5151093
1.5154378
1.51537
1.5151183
1.5147182
1.5146559
1.515059
1.514688
1.5147283
1.5151384
1.5150964
1.5150713
1.5151255
1.5154504
1.5154038
1.5162506
1.5161572
1.5160308
1.5161433
1.5161537
1.5160278
1.5158878
1.5160359
1.5158146
1.515847
1.5159839
1.515957
1.5160777
1.5159758
1.5159495
1.5160569
1.5160278
1.5158555
1.5157012
1.5158963
1.5158539
1.5156191
1.5154574
1.515713
1.515401
1.5154455
1.5156873
1.5156514
1.5158576
1.5156777
1.5156372
1.5158267
1.5153838
1.5154387
1.5156862
1.5156429
1.515354
1.5154288
1.5156762
1.5156118
1.515848
1.515664
1.5155961
1.5157931
1.5158597
1.5156736
1.515627
1.5158242
1.5160678
1.5159628
1.5159156
1.5160266
1.5159715
1.5158367
1.5157798
1.5159265
1.515812
1.5158479
1.5159834
1.5159573
1.5160746
1.5159731
1.5159485
1.5160571
1.5160395
1.5159319
1.5158694
1.5159867
1.5159418
1.5158033
1.5157325
1.5158835
1.5157145
1.5157346
1.5158744
1.5158606
1.5159667
1.5158596
1.5158477
1.5159596
1.5158187
1.5156271
1.5155502
1.5157526
1.5156416
1.5153921
1.5153143
1.5155728
1.5153028
1.5153368
1.5155819
1.5155553
1.5157509
1.5155661
1.5155365
1.5157306
1.5152954
1.5153303
1.5155811
1.5155553
1.5152362
1.5153228
1.5155739
1.5154976
1.5157449
1.515559
1.515479
1.5156789
1.5157579
1.5155676
1.5155411
1.5157407
1.5159654
1.5158588
1.5158024
1.5159174
1.5158692
1.5157324
1.5156646
1.515814
1.5157302
1.5157453
1.5158865
1.5158783
1.5159815
1.5158752
1.5158709
1.5159821
1.5142144
1.5142255
1.5143447
1.5143488
1.5143173
1.5142161
1.514347
1.5142023
1.5142369
1.5146454
1.5145975
1.5142021
1.5142272
1.5142318
1.5146453
1.5146456
1.5142104
1.514231
1.5143415
1.5143569
1.5142223
1.5143591
1.5143488
1.51422
1.5142325
1.5146866
1.5142548
1.5146459
1.5146471
1.5142364
1.5142345
1.5146523
1.5146257
1.5146361
1.5150379
1.5150277
1.515091
1.5146785
1.514625
1.5150358
1.5150087
1.5150774
1.5154051
1.5153393
1.5150006
1.5150265
1.5153478
1.5153248
1.5149306
1.5150076
1.515335
1.5152577
1.5150238
1.5146275
1.5145655
1.51496
1.5146106
1.5146251
1.5150308
1.5150122
1.5149836
1.5150146
1.5153427
1.5153148
1.5149978
1.5150594
1.5153995
1.5153374
1.5150728
1.5146613
1.5146278
1.5150298
1.5146417
1.5146468
1.5150515
1.5150406
1.5150103
1.5150368
1.515362
1.5153369
1.5146898
1.5142602
1.5142519
1.5146627
1.5142337
1.5143547
1.5143701
1.5142453
1.5142438
1.5143625
1.5142717
1.5143902
1.5142678
1.5146632
1.5142616
1.5146763
1.5142848
1.5143013
1.514428
1.5144167
1.5142713
1.5143875
1.514279
1.5144114
1.5147115
1.5142967
1.5142619
1.5146632
1.5142957
1.5147076
1.514297
1.514716
1.5149835
1.5150615
1.5153901
1.5153119
1.5150839
1.5146883
1.5146244
1.51502
1.5146733
1.5146801
1.515082
1.5150735
1.5150383
1.5150586
1.5153848
1.515367
1.515821
1.5156301
1.5155533
1.5157541
1.5156422
1.5153884
1.5153131
1.5155743
1.5157652
1.5155785
1.5155463
1.5157421
1.5153134
1.5153481
1.5155956
1.5155679
1.5160435
1.5159377
1.5158738
1.5159884
1.515947
1.5158085
1.5157381
1.515887
1.5157251
1.5157481
1.5158892
1.515872
1.5159814
1.5158744
1.515859
1.5159708
1.515286
1.5153717
1.5156214
1.5155449
1.5157896
1.5156025
1.5155225
1.5157218
1.5157901
1.5156001
1.5155818
1.5157791
1.5153431
1.5153662
1.5156179
1.5156006
1.5157658
1.5157745
1.5159192
1.5159135
1.5159109
1.5157731
1.5157035
1.5158532
1.5160014
1.5158966
1.5158381
1.5159531
1.5159005
1.5156538
1.5159199
1.5161441
1.5154218
1.515472
1.5157172
1.5156769
1.5161117
1.5159023
1.5161454
1.5163278
1.5158839
1.515696
1.5156576
1.5158556
1.5153558
1.5154056
1.5156483
1.5156075
1.5157011
1.5154484
1.5153571
1.5156174
1.5158689
1.51568
1.5155909
1.5157902
1.5158112
1.5156256
1.5155862
1.5157828
1.515767
1.5157916
1.5159323
1.5159158
1.5159921
1.5158543
1.5157696
1.5159189
1.5145234
1.5143842
1.5145106
1.514399
1.5145004
1.5143811
1.5145101
1.5143779
1.5143734
1.5143957
1.5148048
1.5147692
1.5147967
1.514396
1.5147862
1.5143949
1.5147621
1.5151475
1.5151116
1.5147365
1.5150672
1.5151439
1.5154702
1.5153903
1.5151711
1.5147782
1.5147235
1.5151107
1.5150702
1.5151176
1.5154309
1.5153863
1.515132
1.5151853
1.5155014
1.5154562
1.5148447
1.5152243
1.515183
1.5148103
1.5149743
1.5153752
1.5155988
1.5152052
1.5155856
1.5153445
1.5156769
1.515904
1.5144748
1.5148698
1.5144945
1.5148888
1.5144789
1.5144713
1.5146049
1.5145869
1.514869
1.5145656
1.5147082
1.5146816
1.5146049
1.5150098
1.515219
1.5147972
1.5157846
1.5157184
1.5157029
1.5157726
1.5158546
1.5158527
1.5158381
1.5158404
1.5157629
1.5157626
1.5157664
1.5157662
1.5156718
1.5156704
1.5157007
1.515701
1.5156654
1.5157011
1.5156683
1.5157015
1.5157627
1.5157668
1.5157636
1.5157673
1.5158374
1.5158373
1.5158378
1.5158378
1.5158341
1.5158352
1.5158352
1.5158344
1.5158346
1.5158352
1.5158363
1.5158357
1.5158378
1.5158383
1.5158382
1.5158386
1.5156436
1.5156704
1.515892
1.5159576
1.5160168
1.516048
1.5157223
1.515725
1.5157861
1.5161118
1.5161078
1.5157869
1.5157899
1.5161322
1.5157916
1.5161356
1.5161623
1.5158464
1.5158471
1.516155
1.5161681
1.5161753
1.5158485
1.5158486
1.5158499
1.5161704
1.51585
1.5161522
1.5161778
1.5158497
1.5158497
1.5161684
1.5158531
1.5158527
1.5158527
1.5158531
1.5158509
1.5158489
1.5158509
1.5158492
1.5158532
1.5158527
1.515853
1.5158526
1.5158508
1.5158484
1.5158506
1.5158485
1.5161277
1.5158503
1.5161359
1.51585
1.516152
1.5158495
1.5161372
1.5158493
1.5158465
1.5161666
1.5161513
1.5158463
1.5158442
1.5161805
1.5158426
1.5161715
1.5158155
1.5158127
1.5158141
1.5158166
1.5158164
1.5158143
1.5158698
1.5158663
1.5158529
1.5158558
1.5158314
1.5157873
1.5158187
1.5158282
1.5158375
1.5158432
1.5158314
1.515823
1.5158317
1.5158342
1.5158247
1.5159019
1.5158419
1.5158491
1.5159121
1.5158959
1.5158354
1.5158377
1.5158977
1.5157994
1.5157801
1.5157926
1.5157844
1.5157598
1.5156586
1.5156654
1.5157385
1.5157971
1.5158039
1.5158487
1.5158646
1.5156597
1.5157094
1.5158142
1.5157656
1.5157949
1.5156774
1.5156541
1.5157777
1.5157611
1.5156368
1.5156216
1.515745
1.5158243
1.5158052
1.5157883
1.5158094
1.5158508
1.515836
1.5158221
1.5158388
1.5158684
1.5158825
1.5158847
1.5158722
1.5158583
1.5158531
1.5158367
1.515843
1.5158746
1.515863
1.5158474
1.5158603
1.5159001
1.51589
1.515878
1.5158887
1.5158432
1.515829
1.5158089
1.5158241
1.5158245
1.5158176
1.5157967
1.5158036
1.5157472
1.5157734
1.5157799
1.5157557
1.5157609
1.5157864
1.5158026
1.5157819
1.5157915
1.5157692
1.5157489
1.5157717
1.5155917
1.5156062
1.5157273
1.5157091
1.5155546
1.5155722
1.5156876
1.5156674
1.5157009
1.5157264
1.5157488
1.5157268
1.5157025
1.5156767
1.5156552
1.515684
1.5157596
1.5157379
1.5157176
1.5157415
1.5157008
1.5157236
1.5157314
1.5157097
1.5156678
1.5156814
1.5156902
1.5156765
1.5156891
1.5157004
1.5157231
1.5157155
1.5158766
1.5158778
1.5158598
1.5158597
1.5158651
1.5158667
1.5158468
1.5158465
1.515801
1.5158249
1.515826
1.5158054
1.5158178
1.5158398
1.515841
1.5158231
1.515867
1.5158768
1.5158566
1.5158471
1.5158501
1.5158722
1.5158707
1.5158499
1.5158024
1.5158272
1.5158273
1.5158048
1.5158085
1.5158338
1.5158251
1.5158033
1.5157349
1.515741
1.5157432
1.5157308
1.5157596
1.5157803
1.5157826
1.5157627
1.5157817
1.5157858
1.5157656
1.5157624
1.5157346
1.5157485
1.5157459
1.5157351
1.5157312
1.5157422
1.5157498
1.5157392
1.5157591
1.5157797
1.5157851
1.5157669
1.5158046
1.5157983
1.5157814
1.51579
1.5157597
1.5157673
1.5157761
1.5157713
1.515869
1.5158765
1.5158773
1.5158691
1.5158666
1.5158745
1.515877
1.5158681
1.5159447
1.51588
1.5158829
1.5159414
1.5159438
1.5158815
1.5158821
1.5159443
1.5159223
1.5159342
1.5159331
1.5159219
1.5159076
1.5159082
1.5158924
1.5158914
1.5159031
1.515911
1.5158963
1.5158871
1.515932
1.5159344
1.5159243
1.5159191
1.515937
1.5158819
1.5158832
1.5159352
1.5158694
1.5158767
1.5158778
1.5158695
1.5158691
1.5158769
1.5158776
1.5158687
1.5158833
1.5159428
1.5158823
1.515943
1.515931
1.5159318
1.515921
1.5159194
1.5159144
1.5159265
1.5159241
1.5159118
1.5158981
1.515901
1.5158861
1.5158835
1.5159068
1.5159089
1.5158954
1.5158935
1.5158525