/*--------------------------------*- C++ -*----------------------------------*\
  =========                 |
  \\      /  F ield         | OpenFOAM: The Open Source CFD Toolbox
   \\    /   O peration     | Website:  https://openfoam.org
    \\  /    A nd           | Version:  7
     \\/     M anipulation  |
\*---------------------------------------------------------------------------*/
FoamFile
{
    version     2.0;
    format      ascii;
    class       volScalarField;
    location    "4000";
    object      nut;
}
// * * * * * * * * * * * * * * * * * * * * * * * * * * * * * * * * * * * * * //

dimensions      [0 2 -1 0 0 0 0];

internalField   nonuniform List<scalar> 
34158
(
2.3350991e-25
2.5808563e-25
1.9824561e-25
2.6279428e-25
1.1654506e-25
8.4476085e-26
6.7974359e-26
8.3552222e-26
3.3145166e-26
3.2474299e-26
1.1958168e-25
9.5296531e-26
7.8751109e-26
9.7565435e-26
1.2664077e-25
1.5199182e-25
2.1315753e-25
1.1169265e-25
1.0450836e-25
1.0500886e-25
1.5780362e-25
2.0070858e-25
3.2382274e-26
3.393511e-26
7.0673418e-26
1.91536e-26
1.8150228e-26
5.7526428e-26
3.2785901e-26
2.2042909e-26
2.0830253e-26
3.3991902e-26
3.0591547e-26
2.1566416e-26
7.8091521e-26
8.0364941e-26
1.1424771e-25
8.2680743e-26
2.6747102e-25
1.5180217e-25
1.8397644e-25
1.2605615e-25
1.0856941e-25
1.0925153e-25
1.2233904e-25
1.1718123e-25
1.0091573e-25
1.4999254e-25
1.62365e-25
6.1798478e-26
2.3831182e-25
1.4467061e-25
1.6413281e-25
1.6034137e-25
1.567664e-25
1.8480433e-25
3.179e-25
2.7718346e-25
2.2109659e-25
1.4958322e-25
4.8713258e-26
3.3162899e-26
1.9056886e-26
5.9603105e-26
7.5768639e-26
1.8933638e-26
2.7878825e-26
2.1187633e-26
2.0541376e-26
3.1467558e-26
3.5417133e-26
2.2785287e-26
2.222529e-26
3.4339576e-26
1.4849545e-26
9.570816e-27
9.3483638e-27
1.4475586e-26
1.3499631e-26
1.3943731e-26
9.03138e-27
1.4135172e-26
2.047075e-26
1.8903124e-26
1.2553032e-26
1.1963878e-26
2.0355302e-26
2.1053015e-26
1.8651414e-26
2.1709668e-26
2.0569536e-26
1.7600971e-26
1.8426655e-26
2.0392333e-26
1.2377538e-26
2.0407936e-26
1.2419322e-26
1.9063628e-26
2.0366209e-26
1.2699566e-26
1.2548882e-26
2.0247694e-26
2.0335674e-26
1.9770461e-26
2.0699665e-26
8.1399778e-26
8.1417398e-26
2.2053011e-25
1.5595564e-25
5.934211e-26
5.9093354e-26
1.7221522e-25
1.437e-25
1.2214177e-25
1.0914672e-25
1.3224587e-25
1.2811664e-25
5.2360232e-25
3.0677214e-25
1.64397e-25
2.3044599e-25
1.4160495e-25
2.0557871e-25
1.3975769e-25
1.3914554e-25
9.48501e-26
9.9202956e-26
1.3016155e-25
9.1183152e-26
1.0087395e-25
1.2881855e-25
2.1265467e-25
7.893684e-26
2.6233852e-25
2.1017954e-25
1.1837761e-25
5.9375655e-26
9.8460064e-26
1.8979495e-25
1.8578059e-25
2.1208373e-25
3.8165563e-25
2.8982818e-25
2.1407517e-25
3.2361485e-25
6.154518e-26
2.2496024e-25
2.0358673e-25
2.5365778e-25
2.4049808e-25
2.7528674e-25
4.5699416e-26
4.9481818e-26
3.4505394e-26
1.8441998e-26
5.9487532e-26
2.9049081e-26
2.0937824e-26
2.0661691e-26
2.8151314e-26
9.1374073e-27
1.3986082e-26
1.3009536e-26
9.2683407e-27
1.4233909e-26
1.5025538e-26
9.4380038e-27
9.1672405e-27
1.5209814e-26
1.4377944e-26
1.3113666e-26
1.8218894e-26
1.7528417e-26
1.0879608e-26
1.9055476e-26
1.8891109e-26
1.6285148e-26
1.6556291e-26
1.9273931e-26
2.0360867e-26
2.1822214e-26
1.7951911e-26
1.859268e-26
2.0301285e-26
1.2459445e-26
1.2153486e-26
1.2395678e-26
2.0228942e-26
2.0544387e-26
1.2092525e-26
1.8390681e-26
1.8529965e-26
2.0221836e-26
1.9407804e-26
2.2734287e-26
2.1799495e-26
1.9391075e-26
2.0063003e-26
1.2777853e-26
1.2943586e-26
1.8513854e-26
1.3874945e-26
1.1500147e-26
1.1365781e-26
4.3593925e-27
4.369381e-27
6.1095109e-27
5.8140699e-27
4.3543853e-27
6.0455223e-27
5.9699725e-27
4.3062555e-27
1.0897212e-26
4.3585393e-27
4.3008483e-27
5.8902193e-27
5.7331032e-27
1.2692207e-26
1.2332609e-26
1.148179e-26
1.4977993e-26
1.5135052e-26
1.3189889e-26
1.0299023e-26
1.5504456e-26
1.497491e-26
1.1630217e-26
1.2299081e-26
1.2057014e-26
1.175721e-26
1.0448752e-26
1.0874421e-26
1.1332709e-26
1.1171196e-26
1.7859645e-26
1.7957026e-26
1.9745694e-26
1.8844027e-26
1.9251316e-26
1.9075325e-26
2.0996886e-26
2.0074483e-26
2.1978903e-26
2.0923284e-26
2.1602499e-26
1.9365203e-26
1.8950435e-26
1.8343063e-26
1.9189172e-26
2.1393008e-26
2.067077e-26
1.9969826e-26
1.8200469e-26
1.9954156e-26
1.9813205e-26
1.9096735e-26
2.0415295e-26
1.969492e-26
1.8899195e-26
2.0638126e-26
2.2048339e-26
2.1650562e-26
1.9456029e-26
1.3687281e-26
1.2084982e-26
1.5789375e-26
1.510869e-26
1.117488e-26
1.1209951e-26
1.1676347e-26
1.1384204e-26
1.3417467e-26
1.2454666e-26
1.1338051e-26
1.4010325e-26
1.1654752e-26
1.137451e-26
1.1474462e-26
1.1878567e-26
1.1352844e-26
1.1314352e-26
1.5360922e-26
1.3807848e-26
1.3686839e-26
1.099405e-26
1.5575088e-26
1.5501505e-26
1.2162773e-26
1.1523853e-26
1.1372415e-26
1.1427376e-26
1.1362599e-26
1.0672585e-26
1.1083235e-26
1.144715e-26
2.1147919e-26
2.4443999e-26
2.3087823e-26
2.0554333e-26
2.0820732e-26
1.8579117e-26
1.8247401e-26
2.0336218e-26
2.1092605e-26
2.4774248e-26
2.2555409e-26
1.9884418e-26
2.0540754e-26
1.7596049e-26
1.6735276e-26
1.8647805e-26
8.0657452e-26
8.3811671e-26
8.1241007e-26
2.3155289e-25
3.0077056e-25
6.2129694e-26
6.5082346e-26
3.2250867e-26
1.2478145e-25
3.1778631e-26
1.7642852e-25
1.2083513e-25
1.2231278e-25
1.8013751e-25
1.5592598e-25
4.0500016e-25
1.4872315e-25
1.4027405e-25
1.2785693e-25
1.0021367e-25
1.437261e-25
1.0160344e-25
9.132716e-26
1.0166845e-25
1.0911812e-25
9.2959398e-27
1.1808583e-25
2.6538014e-25
2.2242257e-25
2.6164177e-25
1.4646724e-25
2.2648282e-25
2.654757e-25
2.0858921e-25
1.8870966e-25
6.4555479e-26
1.1893324e-25
2.8574862e-25
1.2446564e-25
8.3430083e-26
6.2361681e-26
2.0668843e-25
1.2500397e-25
7.5834614e-26
1.207246e-25
1.4403464e-25
1.3987848e-25
1.2826991e-25
4.2799018e-25
9.3762823e-26
1.0090674e-25
4.9962164e-25
3.7516926e-25
2.9204935e-25
3.4932606e-25
9.6967048e-26
2.697783e-25
8.8701579e-26
2.3521408e-25
3.8810164e-26
1.5244389e-25
2.1982205e-26
1.0497981e-25
2.2664337e-25
2.5027597e-25
2.7418673e-25
2.3801996e-25
2.3309226e-25
1.1542712e-25
1.1298172e-25
1.0074521e-25
1.0306777e-25
2.5826165e-25
1.196429e-25
1.1844585e-25
2.7301885e-25
2.9157244e-25
1.6081963e-26
1.7088198e-26
4.7065849e-26
5.0476113e-26
3.1787115e-26
2.2546753e-26
2.279113e-26
2.5101666e-26
2.4476238e-26
2.6065104e-26
2.3525795e-26
3.0452612e-26
3.0118584e-26
8.8058492e-27
8.6569132e-27
1.4423422e-26
1.370305e-26
1.4318004e-26
1.7162436e-26
1.7313372e-26
1.7634123e-26
1.2066649e-26
1.1654464e-26
1.6719999e-26
1.6808846e-26
1.7469688e-26
1.6771607e-26
1.8075829e-26
1.9525968e-26
1.6943524e-26
1.7717372e-26
1.6230643e-26
1.751904e-26
1.2286496e-26
1.2285588e-26
6.0554087e-27
4.3987413e-27
4.3021115e-27
5.6840525e-27
1.1637673e-26
1.1448055e-26
4.3801482e-27
4.2812195e-27
6.0688625e-27
5.9823365e-27
1.3196959e-26
1.1414646e-26
1.0154595e-26
1.4288191e-26
4.4211173e-27
4.4047386e-27
5.949169e-27
5.8525625e-27
4.195116e-27
6.2619815e-27
4.3566244e-27
6.2322463e-27
1.2810349e-26
1.2545918e-26
1.1541623e-26
1.1171285e-26
1.3450778e-26
1.0880649e-26
1.2928496e-26
1.6274303e-26
1.2070227e-26
1.2716299e-26
1.5931711e-26
1.4083183e-26
1.0423049e-26
1.0030575e-26
1.0156377e-26
9.8862152e-27
1.9312968e-26
2.2442632e-26
2.1190016e-26
1.8791495e-26
1.8812282e-26
1.6922833e-26
1.6593945e-26
1.8429408e-26
1.778501e-26
1.8829145e-26
1.9154496e-26
1.8682506e-26
1.9187249e-26
2.1178745e-26
2.0692346e-26
1.815211e-26
1.8027727e-26
2.1343127e-26
2.13872e-26
1.8752189e-26
2.0629388e-26
1.7022275e-26
1.7583208e-26
1.9167584e-26
1.8139288e-26
1.9749886e-26
1.9778038e-26
2.035319e-26
1.9290575e-26
1.9636704e-26
2.1049451e-26
1.8966126e-26
1.1224077e-26
1.178454e-26
1.4738187e-26
1.3837595e-26
1.3463083e-26
1.0938752e-26
1.4983374e-26
1.5107116e-26
1.1013792e-26
1.0327785e-26
1.0853812e-26
1.107855e-26
1.1650635e-26
1.0709366e-26
1.1475313e-26
1.1608746e-26
1.1800663e-26
1.2065354e-26
1.1072345e-26
1.0703726e-26
1.4275798e-26
1.1222103e-26
1.3759203e-26
1.5065955e-26
1.2347513e-26
1.2041451e-26
1.5347193e-26
1.504794e-26
1.1142615e-26
1.0422856e-26
1.1278555e-26
1.1231306e-26
1.7185608e-26
1.5475967e-26
1.8480892e-26
1.614678e-26
1.8453538e-26
1.9918778e-26
2.1355274e-26
1.8846001e-26
1.7647609e-26
1.9312364e-26
1.9914395e-26
1.7584355e-26
2.2532658e-26
2.1327163e-26
1.9567478e-26
1.9860133e-26
1.8728418e-26
2.1520918e-26
1.9419665e-26
1.8733747e-26
1.9140124e-26
1.9680117e-26
2.1342877e-26
2.2350333e-26
1.9813188e-26
1.2760671e-26
1.2004493e-26
1.4739408e-26
1.4184057e-26
1.1584948e-26
1.2146228e-26
1.1376554e-26
1.1903998e-26
1.2937219e-26
1.2198152e-26
1.261246e-26
1.2910208e-26
1.3000011e-26
1.1540389e-26
1.0601237e-26
1.4491513e-26
1.0892811e-26
1.0716488e-26
9.5437802e-27
9.1735467e-27
8.1071216e-27
9.1646834e-27
8.9049912e-27
8.0309429e-27
3.9234294e-27
3.4958791e-27
3.4365343e-27
4.0738534e-27
4.0113462e-27
3.4332933e-27
3.4766214e-27
4.1837487e-27
3.4784317e-27
3.494138e-27
4.1654136e-27
4.2701553e-27
3.6761006e-27
3.6052932e-27
3.954874e-27
4.0272964e-27
9.0753189e-27
8.7830609e-27
8.9119629e-27
4.0534163e-27
3.5433627e-27
3.4705773e-27
4.2210436e-27
3.9716293e-27
3.5448545e-27
3.6696784e-27
4.1957687e-27
8.1241278e-27
1.0551494e-26
9.29632e-27
1.9886431e-26
2.4214345e-26
1.5164182e-26
1.5403712e-26
1.7681769e-26
3.2696807e-26
1.5950739e-26
1.5442462e-26
2.3746062e-26
2.9786065e-26
2.7690339e-26
2.2220581e-26
2.1880572e-26
2.6822379e-26
2.7520525e-26
2.2133181e-26
3.683329e-26
3.6231509e-26
3.8466147e-26
3.7530646e-26
3.7702748e-26
4.0147792e-26
4.1787641e-26
3.8589608e-26
4.9658302e-26
4.7512119e-26
4.9051689e-26
5.1073474e-26
4.9248189e-26
3.8775167e-26
3.7607697e-26
4.0836773e-26
4.0366689e-26
3.830176e-26
3.5586259e-26
3.7456738e-26
3.8319858e-26
5.0509008e-26
4.7736066e-26
4.7428772e-26
5.0668776e-26
5.4480852e-26
5.1313936e-26
4.9297398e-26
5.0337492e-26
1.9072136e-26
2.5726955e-26
1.5273903e-26
1.4792945e-26
2.1100229e-26
2.5862579e-26
2.6723875e-26
2.1086789e-26
1.6035319e-26
3.421561e-26
1.8113338e-26
1.5713139e-26
2.3515242e-26
2.2160002e-26
2.7280562e-26
2.9307996e-26
1.4725295e-26
2.2952224e-26
1.4889405e-26
1.6993237e-26
1.7890247e-26
3.1414168e-26
1.5238842e-26
1.5774778e-26
2.947735e-26
2.3574837e-26
2.2253497e-26
2.7336293e-26
2.3922902e-26
2.2225966e-26
2.735856e-26
2.8784101e-26
5.3520249e-26
5.3767541e-26
5.070898e-26
5.3125695e-26
4.1081588e-26
3.8672421e-26
3.7388887e-26
3.9387957e-26
5.5593635e-26
5.3038384e-26
5.017264e-26
3.9807778e-26
3.7224155e-26
3.8645652e-26
4.0080651e-26
8.3267291e-26
1.1074809e-25
1.0850812e-25
9.2764508e-26
8.2593307e-26
1.2257296e-25
8.1615784e-26
7.6190457e-26
8.5883214e-26
2.5404106e-25
2.2801928e-25
7.0362696e-26
7.1107331e-26
3.6555975e-26
1.4345079e-25
3.3217641e-26
1.4445739e-25
4.8004293e-26
4.9542877e-26
2.8384593e-26
4.0492975e-26
1.7768697e-25
1.5555217e-25
1.2631608e-25
1.2711115e-25
1.0190401e-25
1.0502616e-25
6.8432365e-26
3.2681492e-25
1.8457414e-25
9.8650584e-26
4.8753594e-25
1.715115e-25
1.6853004e-25
1.846427e-25
6.6779482e-26
1.5662931e-25
2.0089074e-25
1.1690122e-25
9.7068715e-26
6.4843692e-26
1.9935842e-25
1.1941109e-25
8.8560513e-26
1.2541815e-25
7.9739068e-27
7.2577394e-26
1.1281997e-25
2.7384068e-25
1.2999497e-25
9.528382e-26
1.929707e-25
3.3951653e-25
2.8672487e-25
2.7959006e-25
5.5929722e-26
6.7125794e-26
5.848729e-26
5.8814923e-26
5.6754671e-26
2.1712713e-25
2.0629484e-25
5.4629814e-26
6.4345036e-26
5.8066508e-26
5.8470772e-26
5.6370862e-26
1.9667354e-25
2.2269405e-25
2.0073892e-25
6.1499878e-26
1.3253385e-25
2.5238014e-25
1.7529443e-25
1.5655159e-26
2.4091102e-25
2.7711956e-25
4.2232011e-26
1.715456e-25
3.5979566e-26
1.8469142e-25
3.899981e-26
8.540047e-26
3.7834903e-27
3.8939609e-26
9.1698628e-26
8.6299658e-26
9.2384743e-26
8.7250289e-26
7.5180442e-26
7.3937377e-26
7.0925556e-26
7.3172224e-26
9.6751601e-26
1.053687e-25
1.0160785e-25
1.0093319e-25
7.5948408e-26
7.5765937e-26
2.4594239e-25
1.1486854e-25
1.2227267e-25
1.0233831e-25
1.091108e-25
2.413426e-25
1.072458e-25
1.1565025e-25
9.9222243e-26
1.0394293e-25
1.0132797e-25
9.268524e-26
8.9637301e-26
8.5919492e-26
7.185023e-26
6.1913059e-26
6.2778635e-26
7.3097721e-26
7.3822922e-26
6.5342411e-26
6.4417929e-26
7.2968799e-26
8.1936712e-26
7.9559171e-26
7.9185098e-26
7.6558776e-26
7.9741221e-26
7.9006459e-26
8.0480992e-26
9.7846162e-26
9.0990848e-26
9.2722921e-26
1.0504844e-25
7.5828126e-26
6.6569273e-26
7.6860933e-26
7.2808443e-26
7.3897087e-26
2.5566129e-25
1.1647374e-25
1.1542934e-25
2.8483351e-25
1.1200234e-25
1.1471025e-25
9.7794099e-26
1.0769812e-25
1.8403226e-26
4.6682981e-26
3.3906638e-26
1.7456554e-26
1.668873e-26
3.6501695e-26
3.6855018e-26
1.6881674e-26
1.7176648e-26
4.8800331e-26
1.7687097e-26
2.4573786e-26
2.5192243e-26
2.3327741e-26
2.4364735e-26
6.0701707e-26
6.0055149e-26
6.2627785e-26
6.6007662e-26
6.0395405e-26
2.2952549e-26
2.1396384e-26
2.5747143e-26
2.510934e-26
2.4170778e-26
2.412515e-26
2.4091885e-26
2.2785986e-26
2.453041e-26
1.4386619e-26
4.1636815e-27
5.7939327e-27
4.2705603e-27
4.2217245e-27
5.8587645e-27
5.628242e-27
4.1957294e-27
4.0962987e-27
6.0954805e-27
6.1196636e-27
1.1225445e-26
1.0014099e-26
1.3455339e-26
1.0799159e-26
1.1054404e-26
1.4092914e-26
1.3559126e-26
1.0289447e-26
9.9246275e-27
1.1667369e-26
1.0195563e-26
1.5083549e-26
1.4483216e-26
1.2748159e-26
9.1928901e-27
1.5484573e-26
1.5042362e-26
1.0354316e-26
9.4845942e-27
9.8404087e-27
1.0505306e-26
9.8224146e-27
9.0847239e-27
1.0664753e-26
1.0706495e-26
1.7966757e-26
1.6001761e-26
1.7345321e-26
1.8548477e-26
1.7393e-26
1.639396e-26
1.7299301e-26
1.8300962e-26
2.0891702e-26
1.8743707e-26
1.7919548e-26
1.9531301e-26
2.132095e-26
1.896192e-26
1.842622e-26
1.797629e-26
1.9733814e-26
2.0729474e-26
1.9947222e-26
2.0259611e-26
1.9584591e-26
2.1489913e-26
2.1933991e-26
1.7837845e-26
1.6070619e-26
1.9756143e-26
1.8807005e-26
1.9616804e-26
2.2461369e-26
1.9342018e-26
1.068701e-26
1.000322e-26
1.5454581e-26
1.50897e-26
1.2696452e-26
9.6759246e-27
1.5337524e-26
1.5089429e-26
1.0149227e-26
9.2481131e-27
1.0990582e-26
1.1466503e-26
1.1201111e-26
1.0008222e-26
1.1529969e-26
1.215103e-26
7.9486407e-27
3.6528968e-27
4.1580715e-27
4.2166554e-27
3.5840886e-27
3.5616686e-27
3.5297979e-27
4.2561303e-27
4.3807292e-27
8.7571449e-27
1.0045573e-26
9.5415816e-27
8.7793059e-27
7.9673154e-27
4.2255422e-27
3.5785129e-27
3.5894285e-27
4.389807e-27
4.0071281e-27
3.6979861e-27
3.7705533e-27
4.0994079e-27
1.1005265e-26
9.6680516e-27
9.6049522e-27
8.4219228e-27
8.8900835e-27
9.0869826e-27
8.4440611e-27
7.2317252e-27
1.118263e-26
1.0930802e-26
3.5295515e-27
3.5960259e-27
4.0977683e-27
4.2490375e-27
3.9957875e-27
3.549681e-27
3.6648135e-27
4.1818721e-27
3.7825806e-27
3.5958656e-27
3.6019709e-27
3.8845175e-27
3.4503354e-27
4.0541805e-27
4.1649967e-27
3.517151e-27
2.8417369e-26
2.5055374e-26
2.3016882e-26
2.6247168e-26
1.701484e-26
3.5209956e-26
1.9532561e-26
1.5850906e-26
1.821009e-26
2.2673067e-26
1.6360956e-26
1.5354456e-26
2.8046941e-26
2.3256088e-26
2.2484643e-26
2.6529463e-26
5.067494e-26
4.9347134e-26
4.8150627e-26
4.9551268e-26
3.7477394e-26
3.6570492e-26
3.6651422e-26
3.7631585e-26
3.6163734e-26
3.7408793e-26
3.8089262e-26
3.7165898e-26
5.0976111e-26
4.8395304e-26
4.6353545e-26
4.8506737e-26
4.7412012e-26
5.0937496e-26
4.7772214e-26
4.9774831e-26
3.8052131e-26
3.4055519e-26
3.4197327e-26
3.6112127e-26
3.6962828e-26
3.9632672e-26
4.0030129e-26
3.9184509e-26
5.2620634e-26
4.8682804e-26
4.7974702e-26
4.9303499e-26
1.6962706e-26
3.4296729e-26
1.5026196e-26
1.5238967e-26
1.9369736e-26
2.8646753e-26
1.4652765e-26
1.4222666e-26
2.0767438e-26
2.064592e-26
2.479574e-26
2.5086713e-26
2.8592518e-26
2.3407356e-26
2.3089921e-26
2.8236066e-26
2.4999159e-26
2.2392215e-26
2.1240834e-26
2.5611445e-26
1.6107351e-26
3.1554611e-26
1.9354661e-26
1.3793207e-26
1.6051346e-26
2.5371121e-26
1.4090969e-26
1.5781005e-26
2.6940952e-26
2.1176714e-26
2.270001e-26
2.7715765e-26
3.4671721e-26
3.2677816e-26
3.7830121e-26
3.5547124e-26
4.8125502e-26
4.5124475e-26
4.8072607e-26
4.9251974e-26
3.5934671e-26
3.7879162e-26
3.9518893e-26
3.7178456e-26
4.9261606e-26
4.8219789e-26
5.0835735e-26
4.6396032e-26
4.2395838e-26
4.6195009e-26
4.1214673e-26
3.9049936e-26
3.8622504e-26
3.9252064e-26
4.1934285e-26
5.2661055e-26
4.7297285e-26
2.2249274e-26
3.3175331e-26
1.5615541e-26
1.5058261e-26
2.2863756e-26
2.7557019e-26
2.2015627e-26
2.8510727e-26
3.0485648e-26
2.5187488e-26
2.7877105e-26
3.4213136e-26
1.6724432e-26
2.8342636e-26
1.7090243e-26
1.8930026e-26
1.2003829e-26
1.2342164e-26
8.2862792e-27
7.9293242e-27
1.2089759e-26
1.2867949e-26
8.4631909e-27
8.8368649e-27
5.9239411e-27
5.3411244e-27
4.8725985e-27
5.2626672e-27
5.6078451e-27
6.1465045e-27
5.4602372e-27
5.1499862e-27
6.3402505e-27
5.4426096e-27
5.414959e-27
6.1647688e-27
5.6623525e-27
5.5806891e-27
5.8064661e-27
7.2074218e-27
2.8605011e-27
2.9238575e-27
3.1228082e-27
3.2259899e-27
3.1906793e-27
3.1652929e-27
3.1146422e-27
3.1306828e-27
6.3579251e-27
6.2630053e-27
5.5809387e-27
5.5627553e-27
6.227579e-27
5.6601205e-27
5.7293418e-27
7.3378194e-27
3.0753643e-27
3.1080736e-27
3.1986885e-27
3.2773877e-27
5.1430873e-27
5.8767018e-27
1.1446684e-26
1.2063041e-26
8.1037825e-27
7.9551199e-27
1.3896998e-26
1.2603976e-26
8.830043e-27
8.5994264e-27
4.4121408e-27
1.7316411e-26
1.3551946e-26
3.7191497e-27
4.1065164e-27
2.31242e-26
2.0226926e-26
4.118023e-27
7.1638299e-27
1.4210467e-26
1.5952926e-26
6.865972e-27
7.3677293e-27
1.3236286e-26
1.5611812e-26
7.3457531e-27
2.4530697e-26
3.8606382e-27
1.8902831e-26
3.744475e-27
1.3581793e-26
3.6864398e-27
1.6556062e-26
3.8001626e-27
1.4087997e-26
1.5901093e-26
6.7860943e-27
7.86264e-27
1.7365102e-26
6.6206653e-27
6.4730345e-27
1.9388461e-26
9.0613271e-27
9.5800288e-27
1.0333437e-26
9.3763882e-27
1.117663e-26
1.2561275e-26
1.0541714e-26
9.4885532e-27
1.230506e-26
1.1148519e-26
9.4084515e-27
1.0032942e-26
1.043018e-26
9.0970966e-27
9.4337396e-27
1.0834105e-26
1.006345e-26
9.4932378e-27
9.9259351e-27
1.0417148e-26
1.2042797e-26
1.1546804e-26
9.6217395e-27
1.0011753e-26
1.1290068e-26
1.1376418e-26
9.4610424e-27
9.3691679e-27
9.1800591e-27
9.2299333e-27
9.4835871e-27
9.6394491e-27
1.0726461e-26
1.0885977e-26
9.4475464e-27
9.2587068e-27
1.1510624e-26
1.1205809e-26
9.7429024e-27
9.9397677e-27
1.0194469e-26
1.1588463e-26
1.1840367e-26
1.0438469e-26
9.9414982e-27
1.1265413e-26
1.0879097e-26
9.5752047e-27
1.1355672e-26
1.081322e-26
9.3918941e-27
9.7691011e-27
1.0246634e-26
1.2219989e-26
1.0864903e-26
9.3437259e-27
1.026931e-26
1.1994015e-26
1.0944212e-26
9.571289e-27
9.8110538e-27
1.107638e-26
1.1459315e-26
1.0079717e-26
1.1960169e-26
1.1628127e-26
1.0532858e-26
1.0748822e-26
1.1364376e-26
1.1847354e-26
1.0480533e-26
1.0134881e-26
1.0938083e-26
1.2173684e-26
1.2530609e-26
1.1196833e-26
1.1605722e-26
1.2997556e-26
1.3410515e-26
1.1919021e-26
1.1184468e-26
1.2542499e-26
1.203054e-26
1.0770384e-26
1.1993296e-26
1.1435302e-26
9.8756196e-27
1.0200159e-26
1.187947e-26
1.1821461e-26
1.0430751e-26
1.035345e-26
1.1150516e-26
1.2342007e-26
1.2209123e-26
1.0769458e-26
1.0185227e-26
1.1540906e-26
1.185076e-26
1.0172679e-26
1.1980526e-26
1.1248263e-26
9.5139091e-27
1.0110214e-26
9.3089493e-27
1.0474823e-26
1.0402639e-26
9.1261577e-27
9.2605774e-27
1.0601411e-26
1.0928774e-26
9.7044964e-27
9.9981537e-27
1.1139078e-26
1.1843305e-26
1.0476576e-26
1.099566e-26
1.2239903e-26
1.2818942e-26
1.1397809e-26
1.002341e-26
1.107245e-26
1.1645794e-26
1.0576922e-26
1.2559336e-26
1.1902827e-26
1.0816718e-26
1.1351142e-26
1.1864784e-26
1.3045194e-26
1.3670418e-26
1.2287666e-26
1.3146467e-26
1.4523344e-26
1.3939691e-26
1.2569843e-26
1.2007331e-26
1.3178182e-26
1.2801275e-26
1.1551998e-26
1.1806343e-26
1.1785606e-26
1.0419721e-26
1.0409749e-26
1.1080532e-26
1.233931e-26
1.2243072e-26
1.0908904e-26
4.3733511e-27
1.4998777e-26
1.4941837e-26
3.9344413e-27
3.9727705e-27
1.9659168e-26
1.5491388e-26
4.3872732e-27
6.8880659e-27
1.3679902e-26
1.4906951e-26
6.4494832e-27
7.1626084e-27
1.3580531e-26
1.4197562e-26
6.66349e-27
9.2427518e-27
8.7914238e-27
8.497106e-27
8.8098654e-27
1.0335263e-26
1.0662004e-26
8.9206946e-27
8.838959e-27
1.1692985e-26
1.1268401e-26
9.4252412e-27
9.8689503e-27
9.083744e-27
9.1651534e-27
9.4933881e-27
9.8040382e-27
7.800631e-27
1.5169543e-26
1.7281391e-26
7.2467321e-27
4.4780542e-27
1.9788283e-26
1.5900961e-26
4.4034494e-27
4.1011167e-27
1.7818838e-26
1.5738039e-26
3.5994198e-27
1.6717648e-26
7.6937542e-27
1.478489e-26
7.5878242e-27
1.0255266e-26
9.8329765e-27
1.0126703e-26
1.0812468e-26
9.9909675e-27
9.7262435e-27
9.4339182e-27
1.0062888e-26
1.1893727e-26
1.1606606e-26
9.9504927e-27
1.0159766e-26
1.2448856e-26
1.1695944e-26
9.9163018e-27
1.042244e-26
1.2568142e-26
4.1216323e-27
3.5474925e-27
1.5238219e-26
4.2185167e-27
4.1476755e-27
1.8159997e-26
1.6331505e-26
1.4251955e-26
6.8461696e-27
1.3324599e-26
6.7503147e-27
7.1627643e-27
1.4613464e-26
1.7486899e-26
7.3622107e-27
4.2154644e-27
1.8670085e-26
1.6460856e-26
3.8397284e-27
4.0351748e-27
3.9711112e-27
2.0429885e-26
1.9304252e-26
7.4473089e-27
1.5500444e-26
1.5255593e-26
7.1070278e-27
1.5045693e-26
1.3289249e-26
6.9062204e-27
6.9233671e-27
1.1662924e-26
1.2156487e-26
9.6056865e-27
9.7893075e-27
1.0213704e-26
9.8645262e-27
9.4400208e-27
9.8076851e-27
9.7900993e-27
9.1525709e-27
9.4096851e-27
1.0124407e-26
1.1864945e-26
1.132006e-26
9.7556248e-27
1.009186e-26
9.8293048e-27
9.4283487e-27
9.9292925e-27
1.0268296e-26
9.0225173e-27
8.8970317e-27
9.3761072e-27
9.7074486e-27
1.1493946e-26
1.1094431e-26
9.5883437e-27
9.8993581e-27
1.188485e-26
1.1758839e-26
1.0068344e-26
9.9883737e-27
1.0804791e-26
1.2198304e-26
1.25867e-26
1.118086e-26
1.0230035e-26
1.1551822e-26
1.2090739e-26
1.0554891e-26
1.267062e-26
1.2963652e-26
1.1430194e-26
1.1460333e-26
1.2336053e-26
1.3306229e-26
1.360777e-26
1.2347338e-26
9.7164737e-27
1.1260195e-26
1.1607222e-26
9.968217e-27
9.3894935e-27
1.0645544e-26
1.1275648e-26
9.6969059e-27
1.1710504e-26
1.1358168e-26
9.9998152e-27
1.0195846e-26
1.060774e-26
1.1896301e-26
1.2070383e-26
1.0639372e-26
1.1804376e-26
1.3252762e-26
1.3694654e-26
1.2044729e-26
1.1217103e-26
1.2617434e-26
1.3200931e-26
1.1457178e-26
1.2054797e-26
1.2881701e-26
1.1143072e-26
1.074361e-26
1.0657411e-26
1.1708057e-26
1.2153621e-26
1.0662387e-26
1.1601716e-26
1.1195586e-26
9.8150511e-27
1.0141155e-26
1.1488041e-26
1.1720154e-26
1.0195618e-26
9.9132231e-27
1.0587858e-26
1.2058485e-26
1.1636219e-26
1.0186306e-26
8.5441908e-26
9.5304824e-26
1.2050273e-25
1.1363955e-25
8.5266567e-26
1.2341463e-25
8.626102e-26
8.0463565e-26
8.7464199e-26
1.7686869e-25
1.8448841e-25
7.0706418e-26
2.4359447e-25
5.0139808e-26
2.4927063e-25
3.1552804e-26
7.8168852e-26
8.2840198e-26
3.4162251e-26
3.9069638e-26
1.547141e-25
3.6102673e-26
1.5768989e-25
5.1911227e-26
5.6818231e-26
4.9121737e-26
4.6145407e-26
5.4505683e-26
3.0821545e-26
2.362919e-26
4.0840897e-26
1.3684746e-25
1.8326021e-25
4.1302185e-25
1.7448311e-25
1.66525e-25
1.4927955e-25
6.8233723e-26
1.2339605e-25
2.5193407e-25
1.3448853e-25
8.1485358e-26
6.7929965e-26
1.461054e-25
1.3219363e-25
9.4571033e-26
1.2921191e-25
8.9260734e-26
7.7222552e-26
1.162504e-25
2.9339763e-25
6.7379721e-27
4.6430678e-26
1.2255032e-25
2.3826662e-25
2.4285191e-25
3.4404249e-25
5.7455716e-26
6.2853855e-26
6.5601737e-26
5.8847404e-26
6.1781426e-26
1.7842877e-25
2.2464425e-25
5.6706723e-26
6.1328726e-26
6.2200795e-26
5.8704935e-26
7.3508256e-26
2.3140571e-25
2.094367e-25
1.5542035e-25
1.045007e-25
2.2454478e-25
2.5347861e-25
1.6152748e-25
7.5165062e-26
2.8885453e-25
2.7291604e-25
3.3882477e-26
3.6792412e-26
3.3925623e-26
3.1956155e-26
6.2951964e-26
9.3378735e-26
9.2440562e-26
5.7718414e-26
7.635391e-26
7.5414143e-26
8.211392e-26
7.2729145e-26
7.0272839e-26
6.4217097e-26
6.3970492e-26
7.3537052e-26
3.2179073e-26
3.467511e-26
3.0418702e-26
3.179717e-26
5.8960136e-26
9.4619879e-26
8.8719014e-26
5.8179798e-26
7.2258794e-26
7.2242553e-26
6.7578225e-26
6.7654561e-26
8.4511992e-26
7.6806099e-26
7.6214669e-26
8.3293519e-26
1.3794065e-25
1.6007684e-25
1.2831504e-25
4.6645682e-27
2.2693662e-26
1.0908101e-25
5.082672e-26
5.1991056e-26
4.4908038e-26
8.6158773e-26
1.4367029e-25
4.0945858e-26
5.5097884e-26
5.4393071e-26
5.6012716e-26
5.7552069e-26
5.2628524e-26
5.4237079e-26
5.4863403e-26
5.134306e-26
6.278045e-26
5.9096492e-26
5.4052098e-26
5.6445034e-26
6.138449e-26
6.3681017e-26
5.4060103e-26
5.5617771e-26
1.9408485e-26
1.9188345e-26
1.3587011e-26
1.4214223e-26
1.8466159e-26
1.8391191e-26
1.3322999e-26
1.3418981e-26
1.3529986e-26
1.3484122e-26
1.8588926e-26
1.8479471e-26
1.3238766e-26
1.8746664e-26
1.848734e-26
1.3859506e-26
5.6914576e-26
5.8948498e-26
5.4763709e-26
5.4879566e-26
5.9604464e-26
6.468277e-26
6.5533998e-26
5.8606211e-26
5.7483457e-26
6.5244877e-26
5.6376436e-26
5.8860427e-26
5.5287623e-26
5.6274772e-26
1.3658738e-26
1.4080595e-26
1.931545e-26
1.8754125e-26
1.3346155e-26
1.8614222e-26
1.9105009e-26
1.3947155e-26
9.4105982e-26
1.0006775e-25
9.8998516e-26
9.6556772e-26
7.2635429e-26
6.3333143e-26
6.5048288e-26
7.4315533e-26
7.2796584e-26
7.2409425e-26
6.3517653e-26
6.0579633e-26
7.7386466e-26
7.699135e-26
7.5564208e-26
7.8197082e-26
8.0183817e-26
8.0270236e-26
7.6294817e-26
7.9820179e-26
8.3912276e-26
8.8571641e-26
9.0116296e-26
9.1350067e-26
6.8350398e-26
6.0769526e-26
6.2442871e-26
7.1358895e-26
7.1960119e-26
6.2624126e-26
6.3305149e-26
7.2550391e-26
7.8103197e-26
7.653879e-26
7.8412258e-26
7.4861333e-26
7.4913066e-26
7.9083918e-26
7.7868703e-26
7.84015e-26
6.4230488e-26
6.5106144e-26
5.5609662e-26
5.5261844e-26
5.5016297e-26
5.5590283e-26
5.6654918e-26
5.7780134e-26
5.5122563e-26
5.3032898e-26
5.3907142e-26
5.5081766e-26
6.0005636e-26
6.1326647e-26
5.2681826e-26
5.5502045e-26
1.3983692e-26
1.4058743e-26
1.9164496e-26
1.8999319e-26
2.8610324e-26
2.7214539e-26
2.7624447e-26
2.897583e-26
2.7021247e-26
2.886213e-26
2.6536183e-26
2.9797089e-26
1.361408e-26
1.8753088e-26
1.8991534e-26
1.4163581e-26
1.3323949e-26
1.32907e-26
1.8133516e-26
1.8057434e-26
2.8519203e-26
2.7122889e-26
2.7366607e-26
2.870525e-26
2.7305569e-26
2.8590022e-26
2.852252e-26
2.5782395e-26
1.3414238e-26
1.8799742e-26
1.8589954e-26
1.3958921e-26
5.9660607e-26
4.8127905e-26
4.8024194e-26
5.7216453e-26
3.9182913e-26
3.6774348e-26
3.8161972e-26
3.8519255e-26
3.7731806e-26
3.9838393e-26
3.7922715e-26
3.6605843e-26
3.9767108e-26
3.7474514e-26
3.8959973e-26
3.9259944e-26
4.8260967e-26
5.7194698e-26
5.8669678e-26
4.9553035e-26
4.8505555e-26
4.9670355e-26
5.9138784e-26
5.9097459e-26
3.7890647e-26
3.9294829e-26
3.9111515e-26
3.8267437e-26
5.7544844e-26
5.6364759e-26
5.7971858e-26
5.8129198e-26
5.3848257e-26
5.2639136e-26
5.4021784e-26
5.6520814e-26
6.0763613e-26
5.5764859e-26
5.4618869e-26
6.1602038e-26
6.5580391e-26
6.0385913e-26
6.0185419e-26
6.8434616e-26
1.4057734e-26
1.4017993e-26
1.9419486e-26
1.9469812e-26
3.0290474e-26
3.0533867e-26
2.8801726e-26
2.874163e-26
1.366253e-26
1.9392014e-26
1.9309882e-26
1.4376358e-26
1.8089373e-26
1.8237189e-26
1.3261953e-26
1.3353002e-26
1.3435522e-26
1.9250339e-26
1.8758742e-26
1.4252833e-26
2.3912065e-25
2.8943066e-25
1.0738773e-25
9.6721645e-26
9.4181791e-26
9.1059015e-26
7.0557583e-26
7.0791445e-26
7.3565498e-26
6.4120893e-26
6.3603548e-26
7.2676814e-26
9.470382e-26
1.0101362e-25
8.8839875e-26
9.5685818e-26
6.8565004e-26
5.8285121e-26
6.0128989e-26
6.9081396e-26
7.3942402e-26
6.4393185e-26
6.50052e-26
7.383652e-26
7.5027112e-26
7.2325654e-26
7.506838e-26
7.2003634e-26
7.8682959e-26
8.0090028e-26
2.1385549e-25
2.1645985e-25
1.208722e-26
4.5989223e-26
4.6306818e-26
1.2417189e-26
4.763978e-26
3.44539e-26
1.7834327e-26
1.8726021e-26
4.615153e-26
4.3392944e-26
1.2178649e-26
1.2456781e-26
1.7184001e-26
1.8049365e-26
3.8356824e-26
3.5972825e-26
1.7209743e-26
1.7740744e-26
6.1272625e-26
6.4795582e-26
6.4347756e-26
6.3705029e-26
1.2209091e-26
1.3489266e-26
1.355688e-26
1.2380215e-26
1.1466417e-26
1.2704454e-26
1.2664143e-26
1.1521695e-26
1.3048149e-26
1.3336179e-26
1.2041853e-26
1.1942537e-26
1.3603701e-26
1.3112585e-26
1.174368e-26
1.2187355e-26
1.2307457e-26
1.2907821e-26
1.1600568e-26
1.1309683e-26
6.1080408e-26
5.5813213e-26
6.6219422e-26
6.7998597e-26
6.095814e-26
6.0848675e-26
6.1044956e-26
6.1609286e-26
6.3471133e-26
1.1038742e-26
9.5490975e-27
7.3593245e-27
4.4856678e-27
3.865096e-27
3.8371574e-27
4.6469136e-27
4.0773775e-27
3.6967117e-27
3.5648639e-27
4.4153241e-27
3.9862815e-27
3.583519e-27
3.7392817e-27
4.30987e-27
8.7112853e-27
8.46669e-27
4.0413711e-27
3.5149294e-27
3.6380191e-27
4.427509e-27
3.8319188e-27
3.6761701e-27
3.7179044e-27
4.0693877e-27
7.979094e-27
6.9099336e-27
9.7136264e-27
8.5522701e-27
1.1084301e-26
9.765574e-27
2.539741e-26
3.162335e-26
1.3811138e-26
1.5363005e-26
2.3410728e-26
2.7475066e-26
1.7328423e-26
2.2098258e-26
1.304606e-26
1.7744938e-26
1.9611005e-26
3.0828526e-26
1.3068852e-26
1.6608981e-26
2.3352858e-26
2.0340036e-26
2.3956003e-26
2.6603994e-26
2.5082961e-26
2.0454132e-26
2.6038369e-26
2.9083157e-26
3.463875e-26
3.2965079e-26
3.5878595e-26
3.6754657e-26
3.8605162e-26
3.4568105e-26
3.4833374e-26
3.8704254e-26
4.6964907e-26
4.8836531e-26
4.7090104e-26
4.5111182e-26
4.8506502e-26
4.982182e-26
3.7067436e-26
3.6142597e-26
4.1905821e-26
4.2385407e-26
4.3272795e-26
4.3412545e-26
4.1396569e-26
4.3264713e-26
5.3611429e-26
4.3751938e-26
4.3717593e-26
5.3956336e-26
5.1096819e-26
4.9387888e-26
5.1345577e-26
5.0719986e-26
1.6862282e-26
2.8443135e-26
1.4856664e-26
1.9097773e-26
2.017141e-26
2.4103702e-26
1.2676589e-26
1.7857328e-26
2.4425946e-26
1.9717723e-26
2.7230764e-26
3.077275e-26
3.0106544e-26
2.448486e-26
2.8797393e-26
3.3315341e-26
5.0535145e-27
6.9191277e-27
5.9371614e-27
3.0102885e-27
3.1016781e-27
6.7488379e-27
5.9163661e-27
3.314749e-27
3.3874361e-27
5.2959125e-27
5.4425722e-27
5.8700847e-27
6.1586644e-27
5.6095891e-27
5.4507786e-27
5.1295124e-27
5.9510092e-27
5.8826005e-27
6.0942782e-27
7.5514034e-27
3.3672601e-27
3.3198059e-27
3.2430631e-27
3.1883626e-27
1.1721222e-26
1.1358509e-26
8.2562334e-27
8.3702105e-27
1.4049867e-26
9.101292e-27
1.2875207e-26
9.2941697e-27
6.370705e-27
6.3553451e-27
5.6321653e-27
5.6839653e-27
6.1747693e-27
4.9598061e-27
5.4491044e-27
4.6370458e-27
6.3590285e-27
5.7644293e-27
5.7649214e-27
7.0557108e-27
5.7031901e-27
6.0632693e-27
6.019138e-27
6.9919788e-27
1.1734321e-26
1.2472453e-26
8.6518979e-27
8.1625186e-27
1.2805122e-26
8.7480731e-27
1.1929122e-26