/*--------------------------------*- C++ -*----------------------------------*\
  =========                 |
  \\      /  F ield         | OpenFOAM: The Open Source CFD Toolbox
   \\    /   O peration     | Website:  https://openfoam.org
    \\  /    A nd           | Version:  7
     \\/     M anipulation  |
\*---------------------------------------------------------------------------*/
FoamFile
{
    version     2.0;
    format      ascii;
    class       volScalarField;
    location    "4000";
    object      omega;
}
// * * * * * * * * * * * * * * * * * * * * * * * * * * * * * * * * * * * * * //

dimensions      [0 0 -1 0 0 0 0];

internalField   nonuniform List<scalar> 
34158
(
366.08177
366.24766
368.12763
367.01902
332.21239
332.20667
353.61062
353.28471
453.20052
452.1993
328.92418
331.26073
355.37345
353.88898
351.77988
316.24285
354.99781
318.55674
341.60846
340.08403
313.1054
314.35662
453.58562
455.33499
312.22575
381.23218
381.90583
312.81534
684.14285
836.71828
826.08233
672.56783
678.13184
832.30722
278.31102
278.61032
352.61123
356.01432
356.07736
316.3885
360.20273
318.58348
342.01727
341.06007
478.18237
480.90714
436.7048
338.75132
304.87918
452.52665
341.96501
307.43409
327.93885
326.29642
315.10504
314.61546
286.08522
288.46037
301.23195
303.06567
276.19606
452.79361
381.20981
313.09489
312.38837
382.5895
693.00852
832.94828
831.64458
680.87083
672.89289
825.80076
843.1167
684.83809
387.09347
586.45595
582.69394
463.02208
460.5555
460.43367
584.91788
387.26988
1054.2088
1094.0355
1321.2353
1274.4282
1541.7422
1600.4382
1791.15
1562.1559
1525.7154
1780.4949
1828.5111
1029.7452
1252.8516
1038.5214
1278.2731
1035.5429
1047.1604
1275.8925
1266.7315
1810.8593
1554.7325
1798.8761
1539.6181
279.77401
279.79757
265.52253
267.47505
293.09326
294.35523
314.54963
317.69056
339.88563
342.67614
479.88649
480.16298
463.03874
345.13848
305.85677
481.29351
343.52406
307.77256
328.68905
327.84373
452.55715
669.84646
653.05697
454.2777
670.21782
660.26788
523.52426
428.47395
326.26387
295.87254
585.93573
441.71358
331.49102
298.02949
315.90239
314.50101
288.32448
289.01966
303.66376
303.22378
305.58578
279.21266
309.001
281.45209
2203.5939
2236.9938
270.62144
276.2162
2129.3801
381.0097
312.31533
681.07519
820.63776
835.91838
690.11641
592.70944
466.92521
465.08978
589.01915
387.42686
386.37911
582.48567
588.5201
458.64887
462.12971
1317.7774
1097.4701
1068.0017
1276.9973
1816.2824
1591.7565
1537.4025
1765.8031
1768.973
1525.1233
1553.8202
1810.905
1047.6559
1037.2522
1258.9773
1280.6028
1268.2379
1050.95
1037.7114
1262.2351
1547.0856
1795.3408
1535.1252
1792.8787
1633.3287
1576.0641
1837.5673
1054.5503
1290.5895
1331.7669
1087.3914
380.45897
559.86191
545.70402
959.72117
937.68506
722.9058
711.79601
913.53323
689.86976
693.35036
920.69378
544.60085
924.27824
917.95277
692.64698
688.84068
380.78185
1414.8104
1416.9751
1728.2658
1739.4001
1505.8441
1551.8071
1834.3862
1889.839
2324.7106
2632.3131
2566.1879
2253.9989
2158.7764
2481.5227
2451.8842
2134.302
2849.8636
2885.1824
3126.2149
3080.9001
2972.4312
3036.26
3251.9696
3196.4222
3610.9423
3491.2594
3543.3688
3710.0676
3663.0589
2947.4159
2995.9963
3251.402
3193.7582
2870.7734
2828.0241
3075.1744
3131.3177
3678.0284
3497.9513
3569.0262
3741.8593
3857.7096
3688.8519
3611.9972
3776.1227
1376.1368
1379.8561
1691.7925
1699.0716
2097.1276
2424.4327
2453.2019
2114.8884
1747.5915
1396.578
1408.5522
1753.2336
2188.0572
2210.0726
2562.4306
2529.5886
1384.3282
1371.5542
1681.2114
1726.5714
1412.0315
1434.4052
1760.6163
1733.0508
2506.0887
2181.591
2149.1499
2487.0099
2140.4371
2092.8904
2432.0668
2474.8819
3714.3419
3573.9257
3602.2821
3783.0161
3147.9902
2914.6089
2904.6505
3164.3788
3697.1847
3539.945
3566.9154
3747.1215
3110.7576
2848.0966
2886.0185
3145.0788
268.79655
279.81923
280.30374
267.48343
268.09813
295.05723
295.20241
269.59296
272.7155
273.0269
274.68473
340.26099
339.80183
345.40739
304.1664
349.46291
307.32067
327.24109
329.27718
454.03791
666.28554
661.97528
454.56177
670.90087
662.52599
593.49696
453.10216
330.98671
296.49015
542.75111
437.13342
330.74219
298.09842
316.69575
315.83915
414.89466
680.1695
662.03017
633.82499
651.57357
415.42592
669.13441
677.11372
651.44878
641.01877
529.8799
409.94407
318.12944
287.82193
575.95358
424.09169
321.1869
289.65495
304.96259
303.85279
308.39233
281.30123
311.89051
282.18117
374.94207
293.19128
411.42591
296.15015
2050.6423
2079.1875
2234.6878
2229.9976
2045.2496
5184.9867
5147.4889
4571.0339
4562.5987
2064.6326
5233.5457
5172.4574
2225.6195
2234.1931
362.72141
362.45387
269.79116
275.33815
2147.2335
4161.9154
4106.4439
4184.8482
4085.6394
3988.9166
3950.2209
2081.9114
2056.383
587.20859
592.13311
460.31198
463.69908
385.42403
1021.6466
1053.835
1066.6539
1270.6384
1264.3163
1529.0557
1522.2545
1751.011
1755.1376
1547.0709
1605.1187
1775.7438
1840.5121
1096.3361
1068.1115
1280.0593
1327.0737
723.88905
966.39758
948.80589
715.15928
558.68231
547.37671
921.59377
928.98005
693.96655
697.8932
380.24008
545.39116
558.00733
378.88391
929.42797
922.44688
699.77753
695.99029
953.82639
702.17632
933.38426
712.89101
2629.5918
2347.2308
2247.3201
2539.1329
1906.0456
1560.4094
1517.2986
1837.0276
1420.4456
1422.0952
1745.8971
1725.3632
2448.2223
2151.4501
2110.9869
2402.3516
3718.755
3612.4943
3528.7351
3675.6553
3215.2005
3029.793
2915.1399
3125.8531
2773.0096
2825.8875
3032.9206
2986.5112
3584.0209
3428.0834
3381.1225
3548.9229
3639.9144
3487.5848
3499.886
3675.7074
3054.0785
2807.5117
2817.5766
3073.9535
2916.4891
2913.3886
3165.4841
3152.0128
3750.0121
3591.472
3562.5501
3727.7789
1418.5204
1407.4731
1736.6303
1755.0749
1378.6589
1389.5467
1696.6039
1686.9602
2085.0237
2091.3073
2414.7322
2415.5032
2501.2541
2165.1168
2177.1394
2511.3698
2511.4851
2205.7436
2152.1791
2473.0163
1769.2561
1438.407
1421.5261
1738.9409
1394.8187
1383.0634
1696.1611
1719.7002
2437.7865
2107.95
2138.1904
2473.2275
3135.003
2919.3069
3109.1819
2871.0192
3710.2516
3550.7052
3538.6012
3709.2969
2840.7145
3088.2051
3136.4368
2880.0696
3560.187
3509.7694
3696.1179
3170.2454
3140.6665
3402.392
3381.2571
3031.8153
2936.7934
3193.1756
3292.4085
3737.1505
3620.2428
1428.3373
1421.1457
1753.5719
1778.4959
2229.8295
2522.3974
2181.5022
2592.2947
2683.4464
2349.7436
2387.3497
2733.3261
1866.1182
1496.6528
1525.0541
1905.043
559.01537
546.60589
568.44525
553.40458
836.14287
787.97352
762.36234
772.05393
1322.8372
1033.9314
1024.2317
1310.7256
1224.9617
960.34166
960.25721
1228.8336
928.52076
928.96555
1192.249
1193.9798
935.26612
936.29275
1205.9746
1205.8565
552.57204
780.28837
761.3045
1226.4215
954.95113
956.34861
1226.9632
1186.9834
923.21026
923.92588
1186.8624
564.9165
546.68145
559.74175
2138.9923
2153.8921
3999.3587
4050.0963
2341.4023
2484.3048
4261.1716
4467.4404
5996.7515
7454.617
7161.1221
5743.0494
5543.6454
6955.0934
6854.5542
5457.381
8093.4321
8221.8241
9406.4568
9239.5342
8433.6151
8742.753
9892.8274
9612.4218
10697.758
10305.278
10516.094
11588.363
11331.66
8317.7092
8546.0495
9781.8754
9473.8535
8132.5132
7981.3144
9171.0142
9356.0273
11362.123
10281.567
10498.73
11612.692
12039.861
10932.001
10521.898
11512.607
2083.204
2105.9503
3921.7994
3936.3772
5337.4177
6709.4275
6836.4857
5416.0946
4088.4069
2113.1605
2148.7042
4074.9126
5598.4766
5702.34
7202.969
7034.847
2085.2639
2046.6502
3843.1606
3945.6639
2137.9718
2208.7901
4126.4708
3975.2133
7063.4249
5618.6932
5453.4246
6897.1613
5434.7047
5305.6705
6754.3429
6866.1805
11589.408
10579.263
10588.008
11684.347
9509.5611
8336.1166
8211.9514
9438.2515
11540.359
10465.207
10387.55
9322.7103
8082.4072
8147.3179
9314.8825
268.7386
249.31258
248.92552
259.81809
260.4867
290.61125
280.87458
281.07797
290.83942
267.3468
268.75173
295.24387
295.98297
274.7395
274.69297
274.08765
275.56451
284.23802
319.13173
327.22457
283.8282
303.86072
305.31952
328.22798
328.04134
456.0894
453.75763
438.30211
330.61295
295.20838
442.35403
336.07897
298.1711
316.12861
317.3289
415.95919
673.41408
674.74408
646.26959
644.37395
416.42963
667.99232
640.91421
652.33075
680.63422
583.04317
430.28407
320.90112
288.46032
502.16648
414.69198
326.8473
290.01037
305.90611
305.16471
371.84892
616.3766
579.23665
583.28598
629.75194
1734.7272
1734.8938
372.12632
620.07816
579.12697
582.3078
627.9999
1736.6278
1756.544
521.14615
390.82599
307.8539
280.89379
540.65558
417.79277
315.20816
282.65602
376.77583
297.20022
388.81624
299.63475
424.07435
357.34097
490.93858
387.34526
5004.4716
4921.7121
4743.0283
4840.9893
10070.806
9870.8876
9838.7535
9881.4289
5032.5396
4851.5793
4837.2105
4997.8398
10032.216
10040.219
2063.9371
5155.2144
5255.2814
4670.9569
4566.7509
2069.6481
5118.8188
5262.946
4655.6446
4524.5209
4811.708
5015.5403
4932.7974
4779.0181
10029.84
8837.7193
8881.6979
10040.029
9859.2256
8723.1355
8821.4431
9946.3492
7854.7301
8957.4762
9041.6617
9066.6851
7974.8438
7917.9405
9101.9815
5013.9558
4951.5474
4812.3212
4853.9349
10085.137
8931.4024
10083.199
9857.7955
9980.2826
2059.2803
5206.9987
5209.0052
2058.7126
5147.5964
5223.728
4592.1181
4627.2885
429.0055
387.44309
391.20355
432.02653
361.98859
391.46749
390.77107
431.60935
433.28251
269.23994
361.31545
4094.8149
4048.4755
4121.1034
4187.4834
13345.096
12522.669
12557.298
12363.088
12075.199
3977.6512
3871.6053
4110.8629
4218.9508
3963.2202
3980.2398
3874.1577
3988.8629
4117.262
378.84434
903.18122
676.72196
939.72116
934.30401
700.40383
698.19467
941.42599
958.37734
701.86078
710.65564
543.5176
556.00522
378.98298
1369.9463
1371.0717
1682.1609
1694.4714
2086.6634
2389.6058
1401.7277
1406.3044
1688.6807
1729.7645
1425.1748
1458.3491
1740.1389
1739.49
2124.5129
2107.1235
2378.1459
2418.9301
2353.8868
2064.6535
2124.2674
2425.4815
2930.4662
2731.1038
2791.9971
3007.2317
2799.3879
2721.4313
2933.522
3020.297
3401.0635
3558.6894
3479.3806
3318.6891
3412.8609
3581.0484
2967.0897
2761.0081
2922.3872
3139.8754
3015.7698
2960.2137
3162.7593
3205.4332
3552.8011
3358.6955
3489.1462
3698.2806
3669.0369
3556.1788
3591.7192
3712.8715
1525.7432
1509.8927
1831.2217
1881.9862
1430.3437
1444.3555
1725.3636
1778.215
2390.7742
2104.772
2201.4822
2519.5857
2564.9923
2262.3924
2316.008
2619.9192
841.80352
1039.7955
1330.0264
1315.505
1029.7155
970.89518
970.25256
1232.1913
1234.8729
796.61833
566.54486
555.25644
770.68
780.54083
1199.6152
936.3794
936.15206
1201.5656
1215.9136
945.05594
944.84837
1217.0638
543.10396
557.6886
552.24877
565.56844
785.24223
767.04849
779.44487
816.96825
557.53943
546.71654
962.82228
960.20474
1234.3412
1237.4491
1200.5855
934.64448
937.70773
1205.0175
1285.0368
991.41139
1001.1084
1294.9575
953.83763
1228.7012
1228.8583
954.67855
7432.8924
6056.9808
5772.6764
7116.1425
4518.7466
2528.2742
2364.9579
4299.6561
2144.3698
2171.3728
4061.4837
3951.1754
6839.5757
5495.8625
5343.9781
6665.7694
11660.515
10717.305
10524.61
11565.704
9714.6677
8618.2215
8306.964
9441.5154
7858.8
8039.9903
9186.1118
8982.3516
11346.138
10276.886
10044.546
11077.998
11336.973
10256.353
10240.718
11359.095
9123.3772
7916.4603
7889.2144
9087.7862
8215.2775
8334.0534
9555.4767
9358.163
11799.509
10692.87
10425.172
11453.398
2179.0125
2125.8102
4056.2121
4100.4101
2085.0468
2113.0083
3904.4329
3877.6363
5283.1249
5292.0031
6647.9585
6633.3829
7037.4215
5586.1865
5590.6558
6975.7557
7065.6855
5685.0446
5467.4046
6854.7703
4164.347
2248.5176
2166.7245
3998.5427
2123.7113
2077.743
3917.8493
4017.5256
6809.0077
5387.442
5507.5461
6900.9304
9398.9104
8268.1391
9297.665
8104.4217
11459.195
10446.356
10420.086
11505.022
8081.1874
9280.4273
9315.9139
8146.7646
10405.947
10407.996
11499.27
9070.9333
8908.819
10196.089
10102.633
8571.0834
8295.1234
9498.7892
9810.7375
10973.464
10617.531
2172.8857
2166.292
4082.3772
4149.526
5741.8608
7013.5727
5586.5496
7230.4987
7581.9171
6027.2592
6193.71
7748.1158
4329.6288
2282.6796
2387.6791
4486.9229
649.52741
651.01183
730.31358
722.62872
634.02422
630.36394
702.35009
704.98835
891.03078
956.6059
903.16575
856.7562
872.91782
857.1199
820.95382
834.36868
1129.7566
1109.9344
1044.0261
1042.5284
1013.2238
1006.0829
1015.0913
1017.5889
1750.0285
1698.0988
1564.307
1562.6432
1526.7691
1515.6729
1534.4912
1540.865
878.60188
857.0365
840.66787
820.93043
1041.4921
1036.2037
1000.1141
999.6311
1583.7844
1562.2755
1498.5911
1494.2697
843.18597
877.63469
633.49515
633.07905
702.83312
705.80893
637.5544
643.55439
715.65492
709.87489
4274.3717
6485.7352
6575.5478
4339.0761
4401.4712
6615.8021
6638.9708
4379.772
11740.546
11084.764
11185.588
11745.891
11795.141
11170.649
11396.707
12053.619
7051.9036
4825.4235
7149.6708
4735.5394
7703.3248
5651.7995
8034.3245
5234.0228
11675.571
11907.27
12212.269
12501.59
12548.168
12871.04
12845.45
12294.573
14506
14498.842
14728.9
14798.782
16178.839
16092.731
15769.551
15880.754
15519.942
15510.734
15430.252
15278.927
14061.129
13744.308
14126.967
14246.203
13740.738
13391.069
13672.751
13929.827
15242.983
15121.461
14964.752
15054.76
14912.829
14953.502
14784.71
14717.093
13304.412
13333.389
13612.766
13570.436
15808.626
15903.637
15575.324
15431.553
16182.493
16109.682
15817.914
15873.877
16626.73
16943.64
17009.982
16692.219
16336.181
16667.582
16462.743
16090.834
16359.618
16588.649
16256.14
15985.789
16310.337
16824.981
16974.167
16464.898
16751.631
17248.633
17458.133
16959.016
16905.405
17313.692
17038.714
16658.772
17699.532
17954.464
17603.569
17388.811
17133.962
17451.73
17162.283
16852.863
17493.505
17759.335
17851.045
17575.148
18351.533
18619.958
18734.65
18444.272
17988.59
18264.647
17893.998
17641.839
16389.732
16025.237
15711.503
15981.214
17154.213
16835.559
16584.153
16836.136
17520.107
17808.459
17993.775
17608.333
16437.921
16796.02
17013.337
16554.378
16308.449
15802.811
15572.731
16035.162
15376.441
15676.477
15838.497
15612.312
16109.936
16470.65
16774.62
16471.512
16476.104
16726.76
17262.023
16931.201
17735.27
18049.766
18573.675
18264.362
16950.993
17199.372
17643.645
17379.401
18143.184
17643.139
17447.982
17878.152
18424.291
18627.027
19087.256
18791.828
19363.411
19763.412
19641.072
19305.3
18507.989
18772.23
18764.357
18454.837
17541.65
17501.239
17188.607
17178.313
17970.648
18251.805
18162.651
17844.972
4123.6156
6311.0837
6314.429
4146.7576
4421.5273
6603.2097
6430.562
4257.4586
11585.767
11068.245
10862.603
11466.734
11652.224
10934.088
10904.728
11606.875
13381.434
13088.612
12960.436
13291.342
14664.511
14720.729
14560.397
14624.705
15104.595
14769.517
14668.8
15050.457
13257.737
13206.405
13488.781
13653.86
12263.323
11383.943
11428.026
12297.126
4223.6782
6528.2011
6563.4613
4228.0269
4295.1053
6489.4475
6730.1175
4440.3849
11472.447
11830.715
11162.503
12064.842
13740.694
13481.934
13775.683
14074.23
14415.632
14037.907
14146.435
14615.748
16078.744
15793.078
15640.817
15966.137
15473.824
15096.996
14916.984
15269.741
6584.0612
4083.5065
4269.38
6205.2639
4097.4561
4098.1982
6218.3693
6187.5384
10557.261
11292.401
10638.047
11201.438
11376.773
10673.868
11284.538
11900.986
4248.5777
6426.9506
6485.2921
4288.7856
4714.4462
4540.1767
7094.7952
6734.2052
12389.036
11829.78
11254.297
11887.731
11080.685
10885.356
11547.948
11742.757
15333.364
15595.426
15253.239
15216.551
14241.812
13982.504
13498.064
13877.379
13622.342
13137.234
13392.672
13779.638
15201.036
15069.925
15046.068
15131.534
13520.953
13042.816
13455.067
13808.38
12831.087
12922.564
13344.942
13317.007
14814.5
14781.677
14753.803
14843.288
15153.873
14893.771
14823.145
14965.3
17584.664
17966.196
18605.384
18208.589
16961.276
17337.189
17864.276
17485.155
18012.495
18150.854
17873.968
17759.736
18784.344
19056.827
18905.71
18642.294
16318.421
16802.846
17167.793
16751.047
15807.703
16279.57
16401.751
16061.993
16327.013
16259.885
16049.772
16059.259
16949.877
17220.679
17196.703
16875.443
18134.672
18499.715
18833.509
18431.95
17367.296
17698.045
17964.523
17659.394
17456.632
17689.209
17391.766
17171.455
16567.444
16853.514
17055.683
16775.56
16099.718
15958.481
15714.993
15877.939
16060.152
16003.618
15717.873
15707.047
16532.114
16829.255
16751.465
16399.909
268.5587
259.60164
248.56134
249.57062
260.72181
290.63549
280.75292
281.00047
290.93257
251.10422
250.633
263.44099
266.93474
264.04366
267.90399
332.03142
296.07755
296.26185
331.36111
273.19146
274.34288
274.89684
276.13995
327.92667
288.57733
290.74004
329.06457
342.40458
342.49684
349.68997
343.13336
332.52836
295.25702
332.05423
296.52314
317.35347
317.26641
417.25177
681.50341
670.76897
641.03073
654.67306
416.10316
658.75546
633.10691
648.84936
678.44188
526.87552
414.25614
319.20117
287.62799
563.0064
415.38705
324.71737
290.08224
305.71415
306.38863
372.49426
579.50348
624.15859
626.48333
584.4846
1755.5817
1736.4555
372.79111
579.02795
583.79476
630.00186
619.88983
1738.1051
1731.2316
558.54619
418.63989
308.16397
280.95841
486.93949
404.16059
319.74236
282.28283
511.57392
506.18982
463.59517
460.70795
1365.3936
1031.5226
1022.0345
1360.5731
4193.2457
4232.0915
4449.9056
4409.9745
4276.3778
4179.6417
4386.189
4454.0138
510.62939
505.1755
462.76223
458.85626
1364.4569
1023.4544
1035.4855
1380.5759
4246.5669
4189.2557
4374.1782
4457.4549
4297.2461
4251.4851
4455.0386
4480.2865
490.1245
379.45394
294.56742
546.64
403.72701
306.0123
439.22707
357.96647
463.00718
367.53853
392.31805
424.71693
10019.561
9549.0439
9787.0978
10271.36
9540.4825
10055.183
10064.926
9581.881
10133.584
10101.669
9351.0414
9404.6107
10107.763
10335.549
9599.7423
9384.6324
14151.166
14079.544
14653.095
14791.214
14114.54
13924.611
14531.397
14661.494
14480.183
14576.084
14016.749
13841.641
14517.862
13979.531
13960.816
14598.027
10257.162
10237.131
9749.4075
9747.9915
9550.2585
10307.598
10300.402
9566.2948
9389.414
10115.737
10034.499
10204.531
9722.6743
9562.0335
14798.878
14691.697
14083.262
14252.558
14725.459
14173.042
14166.854
14780.347
4944.6405
4776.3629
4888.5719
5040.9983
9881.8765
8739.7588
8865.0534
9999.4273
10120.147
10003.157
8870.8188
8989.3395
9196.5719
9104.9124
8090.6823
7993.4591
7981.8579
7863.9313
8970.6032
9087.7192
4937.2108
4751.7742
4903.6551
5085.5709
9790.2874
8647.7989
8812.6395
9963.927
10015.35
8858.6136
8967.3876
10120.09
9172.0603
9084.8229
7956.221
8051.1574
8873.8577
7917.731
7774.4003
9030.1179
10324.988
10312.347
9558.5426
9534.2183
9755.2727
9753.545
10280.772
10247.405
10008.263
9519.0994
9625.1432
10091.298
10092.716
10180.864
9466.363
9357.6302
14702.949
14819.645
14244.072
14049.431
14280.102
12618.473
12756.86
14449.036
12689.997
14374.911
12742.164
14378.299
14743.967
14160.069
14176.727
14794.923
14628.181
14694.971
14145.382
13998.326
14230.942
12572.365
12670.436
14350.251
12525.551
14163.743
14229.663
12624.69
14518.48
13952.56
14023.347
14657.488
10754.034
11914.802
11846.314
10822.577
11730.081
12716.263
12797.394
11809.782
12657.095
11698.58
11803.534
12754.882
11772.275
12759.981
12882.952
11885.712
11944.963
10842.025
10908.884
11994.755
11883.865
11987.653
10877.329
10780.912
12823.508
11835.818
11895.27
12865.432
10219.306
9752.0911
9767.9245
10220.369
9999.8984
9522.4242
9682.7016
10156.965
10085.596
9365.8961
9513.6182
10226.879
10325.304
9591.8146
9606.373
10321.473
14758.26
14843.064
14331.521
14171.535
14382.707
14521.634
12854.606
12738.729
14754.104
14219.745
14234.011
14812.629
14127.436
13958.557
14569.74
14677.851
14563.074
14039.21
13993.413
14659.221
2053.1386
2097.602
4826.3167
5016.2893
4984.1466
4834.7741
10087.789
10052.261
9972.5421
8836.5197
8941.0434
10065.534
5009.2569
4841.5372
4786.3686
4929.7496
9806.4378
8689.0939
8824.7518
9942.298
10115.029
8946.7512
8918.4663
10035.433
7838.258
8922.7833
9036.7353
7953.9366
9180.9253
9138.848
2007.4147
2059.2505
545.64864
415.84581
417.94897
546.39203
387.81992
391.61904
431.84255
428.7476
416.31898
419.8827
547.88513
548.66498
361.5762
360.71929
391.54153
390.84459
431.67876
433.1404
12393.735
12439.275
13296.345
13204.848
18256.995
18518.639
19138.675
18854.008
17706.066
18010.739
18529.512
18215.159
18896.912
19227.535
18892.149
18636.824
19378.206
18853.138
18558.154
19033.703
18378.488
18793.477
18495.244
18175.112
12732.416
11844.698
12688.829
13616.536
12172.239
12093.177
11839.538
12783.594
13011.394
547.6038
559.44477
767.01113
1171.1294
916.59314
917.8646
1164.8556
1245.6255
971.41927
972.66699
1239.1629
1214.4615
945.52712
946.64739
1208.9993
791.507
776.56076
1236.834
960.87549
960.27157
1229.2673
1289.2491
996.03556
1004.5417
1293.4494
785.41706
822.58081
551.47245
563.59889
543.9274
558.50565
2149.8755
2128.4637
4010.4649
4021.8621
5433.9125
6746.7271
2130.7683
2087.4449
3840.0154
4024.5267
2168.6269
2231.2716
4004.5039
3980.4688
5382.6666
5300.3798
6535.3999
6721.2129
6480.7904
5180.3382
5472.9955
6811.9111
8733.8138
7661.3715
7930.7521
9066.8126
7997.5095
7655.8994
8771.5126
9101.6406
10134.889
11173.581
10857.714
9825.0824
10138.001
11138.853
8905.6413
7772.7988
8395.019
9567.7522
8597.7071
8460.0202
9577.3336
9676.8522
10660.56
9935.5794
10918.362
11707.334
11545.553
10585.403
10643.871
11548.071
2400.5108
2288.6001
4268.567
4431.6307
2185.4626
2183.6892
3927.419
4149.7489
6574.6785
5261.2762
5690.1461
7121.3007
7231.1907
5803.106
5970.2981
7375.2927
903.08406
1136.7497
1116.436
1755.5792
1701.9627
1049.9787
1051.5502
1567.5052
1564.9852
861.47962
953.16158
893.44548
860.21345
877.23307
827.34786
840.9321
1020.57
1014.4602
1023.6213
1028.0339
1530.1311
1522.267
1543.3257
1555.4104
631.06475
632.50521
705.1549
701.99174
636.64185
708.30004
642.79609
718.11891
877.28135
853.67379
842.28214
822.32608
872.21131
934.28641
837.72681
878.91959
1050.4077
1046.2832
1012.8878
1019.8967
1038.563
1036.6734
1073.0116
1089.3705
651.49335
652.94581
730.75951
724.44334
632.89231
704.46707
635.93064
707.73089
1602.4141
1584.4053
1522.2483
1532.1588
1647.4997
1671.6809
1569.0432
1566.104
15673.243
15839.7
15311.131
15226.098
14752.091
14778.885
14391.641
14491.377
13837.517
14253.842
14385.357
13984.729
15164.589
15521.254
15188.111
14870.819
12333.951
13180.831
12849.171
12753.645
5753.5928
8206.6445
5520.7536
7860.0806
7149.8507
4953.4995
7386.9252
4832.4094
12708.601
12123.273
11858.371
12326.566
4375.2902
6501.1278
6573.5092
4398.4025
4516.2378
6768.8054
6775.0649
4434.5518
11823.781
11346.255
11603.516
12217.507
11504.194
10986.4
11097.465
11568.909
15124.627
14869.008
14622.557
14882.1
13586.539
13316.027
13730.295
13889.03
13068.073
13021.234
13259.852
13293.481
14579.565
14528.874
14362.015
14365.437
17204.907
17568.473
17947.583
17598.864
16711.167
17101.367
17350.36
16962.977
17334.271
17755.689
17393.471
17068.344
18169.046
18468.73
18098.26
17847.581
16183.519
16626.942
16776.186
16361.364
15745.176
16267.048
16244.663
15791.12
15886.084
16211.577
15874.224
15544.381
16639.878
16949.067
16583.105
16274.241
15445.184
15454.576
15168.24
15091.186
15992.838
15672.123
15347.867
15665.883
16132.669
16424.58
16799.373
16459.343
15942.526
16244.319
16113.912
15766.798
17759.395
18068.158
18480.772
18196.06
16996.222
17214.181
17598.387
17316.955
16792.829
17040.301
16804.256
16535.203
17679.742
17903.583
17567.061
17339.589
17519.33
17886.88
18343.628
17946.265
16845.842
17131.356
17547.741
17210.849
17365.804
17679.913
17430.107
17133.516
18335.304
18633.282
18295.732
18016.974
16006.629
16382.878
16717.85
16354.38
15304.108
15590.267
15769.081
15534.934
15423.863
15730.102
15524.258
15263.403
16462.687
16686.008
16428.265
16189.015
15894.533
16034.056
15739.416
15541.506
16927.993
16066.997
15763.058
16587.667
16668.091
16923.554
17834.52
17452.501
16557.042
16866.968
16594.65
16233.648
18466.587
18775.9
19551.735
19174.533
17618.516
17826.892
18668
18328.401
17284.238
17700.955
17402.016
16992.672
18248.603
18531.172
18024.444
17756.807
4395.3584
4591.544
6672.3943
6816.6123
6663.3168
4313.9717
6609.163
4326.4982
11275.466
11892.024
12279.92
11454.499
11491.143
11383.132
11992.26
11981.518
4186.1052
4207.348
6415.4137
6266.1376
4484.7235
6687.2485
6444.5603
4318.8872
10786.451
11531.88
11104.272
11341.884
11647.841
10974.86
10557.738
11034.937
12507.858
13184.558
13461.509
12866.981
13261.242
12978.902
12836.338
13168.724
14567.6
14596.753
14458.77
14531.528
14218.891
14728.575
14614.985
14222.956
15852.33
15186.968
14984.715
15686.075
13857.596
13505.272
14055.075
14415.988
13585.878
13613.167
13880.919
13824.516
15087.494
15155.807
14940.26
14834.397
15327.813
15368.698
14963.484
15045.227
14225.125
14086.822
13812.535
14066.987
12970.4
13622.192
13918.438
13362.991
14711.804
15180.597
14989.201
14628.476
12405.772
11901.763
11531.535
12180.6
4947.2669
7323.5559
6936.7895
4678.1606
4382.2016
6664.3617
4342.5356
6444.2705
10800.239
11958.876
11238.134
11364.832
4242.9599
4392.3201
6615.6563
6475.5067
4207.1057
6442.6162
4193.4411
6360.9082
11316.851
10718.019
11099.216
11790.849
11160.566
11824.172
11304.634
11805.828
15238.141
14707.954
14575.429
15109.078
13320.765
12890.315
13470.759
13831.832
13422.173
13491.182
13805.475
13670.711
14963.789
15128.609
14952.826
14753.978
16138.269
16537.783
16897.696
16523.784
15544.207
15956.773
16158.171
15807.587
16711.985
16982.292
16689.393
16412.359
15782.455
16099.273
15842.459
15553.107
17545.066
17862.477
18422.329
18100.304
16861.518
17165.079
17616.19
17310.805
17543.251
17892.584
17597.781
17287.24
18458.386
18751.179
18399.797
18134.409
16325.184
15688.852
15423.737
16058.668
16275.032
16541.474
17271.815
16957.1
16662.739
16947.547
16622.338
16313.435
15846.103
16088.855
15802.061
15535.064
17404.427
17827.587
17498.002
17137.333
17203.075
17400.191
18164.514
17879.203
18121.346
18341.566
19094.334
18781.398
17121.891
17427.138
16855.687
16469.105
17401.919
16780.945
16390.859
16926.952
17259.916
17833.782
17341.545
16774.492
17111.472
17463.239
18027.244
17591.566
17097.114
16591.169
16377.364
16753.735
15489.803
15856.831
16636.768
16285.843
16270.565
16603.113
17516.907
17172.612
17396.305
17614.343
17925.097
17559.202
18744.294
18671.915
18426.706
18418.396
17098.386
17322.764
18410.034
18119.329
6807.4987
4358.0649
6595.5232
4447.1739
6781.7349
4479.3309
6768.7744
4439.6342
11564.632
11320.067
11804.618
12276.611
12081.001
11289.143
12509.614
11715.085
13813.005
14177.18
14733.628
14339.062
15662.175
15009.049
14793.013
15442.456
13681.893
13356.942
14005.304
14300.484
16144.581
15524.055
15399.084
15917.824
16670.555
16033.841
15707.586
16273.141
14423.424
14712.161
15238.267
14851.564
15008.966
15329.326
15357.721
15151.016
16689.785
16743.663
16365.526
16151.3
12062.463
12833.674
11881.647
12569.653
4616.0265
4696.7855
6994.1727
7074.5072
7528.975
4855.4521
7280.66
5131.0229
12315.447
13029.478
13249.431
12623.627
754.53393
753.77804
1045.1245
1032.6187
738.81789
736.46421
1005.7294
1006.4545
1258.1218
1081.7576
1079.1929
1255.5163
1365.6206
1170.9037
1151.7177
1342.1156
1444.8397
1359.3409
1747.2984
1624.4162
1251.9009
1276.4591
1517.8165
1511.7461
1213.0613
1045.4386
1050.8565
1222.4449
1040.9156
1039.6375
1207.1647
1213.5117
1239.2808
1488.3911
1443.4415
1190.0974
1212.1791
1456.1606
1264.6774
1508.6517
2882.1608
2780.4516
4455.474
4188.0929
3803.4985
3713.3744
2618.9729
2601.7057
2437.7214
3464.9781
3419.1342
2404.2415
2387.1824
3367.2542
2408.9553
3392.0986
3441.2861
2402.9885
2366.7247
3369.1511
3211.6428
3220.573
2291.6806
2309.2052
2332.9619
3298.6981
2323.3307
3291.8293
3358.4621
2376.2285
2435.6035
3456.1061
1073.1633
1072.427
1247.404
1251.3152
1039.6641
1043.06
1205.3864
1214.8592
1287.9877
1243.5256
1548.025
1492.6528
1186.9991
1249.1004
1436.5306
1479.9617
3574.5216
2523.8957
3681.1238
2469.5642
3348.9016
2378.7437
3365.225
2387.3671
2305.093
3236.3224
3211.909
2289.026
2314.6988
3235.215
2348.7495
3296.597
1267.6015
1247.9244
1064.287
1069.3789
1244.0344
1243.3069
734.70868
738.53301
1004.6953
1008.3315
744.65327
746.91413
1022.1244
9253.5274
15250.43
15670.869
9497.1459
9796.9593
15729.076
15508.998
9391.0809
37450.571
22303.811
22656.237
37485.627
37360.914
22517.095
22691.551
37997.029
16423.605
10584.315
16800.327
10278.388
18695.163
13701.935
19136.178
12027.178
23530.486
23533.49
38177.98
39036.975
24201.383
39398.386
39034.553
24684.861
43939.308
44131.018
48291.266
48079.807
51534.32
51708.576
54504.847
54206.264
50143.358
50236.302
53226.644
52703.652
43374.426
42592.026
46628.046
46994.673
45852.188
41832.499
42494.923
46281.282
49542.041
49435.095
52317.045
52204.911
48963.703
49287.022
52100.392
51670.237
41795.93
41942.684
45823.088
45569.406
54204.577
54763.845
57080.525
56381.238
54795.469
55085.029
57533.585
57141.006
62591.625
60128.189
59689.184
62118.813
61936.778
59556.2
58659.2
60814.236
55201.942
56015.554
58350.099
57444.563
58878.709
56845.623
56648.83
58644.281
62648.845
60795.9
60719.528
62616.259
62896.661
60757.721
59859.459
62094.938
64546.998
65277.754
67480.296
66845.072
63150.981
64481.279
66940.797
65437.923
67781.252
65190.021
64763.902
67313.602
72868.452
70405.068
69930.524
72403.49
71752.727
69398.194
67766.591
69930.717
55482.665
54927.735
57269.194
57715.959
57078.014
56916.931
59468.524
59478.067
64804.401
62236.236
62001.971
64259.78
61972.49
59736.33
59988.878
61998.438
55280.465
54093.031
56488.734
57844.538
56329.789
54113.018
53794.991
56327.459
61103.661
58897.465
58916.616
61364.324
61735.589
59182.699
60651.094
63224.916
70786.458
68595.131
69314.178
71772.804
66089.1
63598.982
64053.766
66608.659
66023.801
64576.443
67278.002
68731.972
72793.709
70073.811
71486.331
74067.304
75547.595
73125.906
71717.96
73934.524
70357.482
67645.431
66756.251
69135.106
64180.024
64362.128
66711.765
66257.268
71241.929
69057.153
68382.455
70325.781
8871.2505
14787.97
14892.987
8992.079
10002.422
16014.15
15359.076
9324.3626
37070.121
22715.332
22229.484
36578.689
37337.531
21952.731
21934.045
37011.321
45142.532
41302.248
40694.29
44452.292
47946.15
48632.241
51450.711
50950.708
49291.538
48731.067
51481.477
52365.185
41555.275
41735.307
45461.144
45592.233
38873.014
22873.003
22673.447
38691.257
9461.1015
15615.359
15419.897
9197.1904
9190.9933
15164.554
15877.691
9696.7239
22929.24
37552.422
22294.858
38091.041
42596.709
42147.67
46101.809
46579.767
47845.082
43727.538
43632.192
47846.222
51459.777
51317.684
54157.345
54397.281
50076.686
49507.025
52293.442