/*--------------------------------*- C++ -*----------------------------------*\
  =========                 |
  \\      /  F ield         | OpenFOAM: The Open Source CFD Toolbox
   \\    /   O peration     | Website:  https://openfoam.org
    \\  /    A nd           | Version:  7
     \\/     M anipulation  |
\*---------------------------------------------------------------------------*/
FoamFile
{
    version     2.0;
    format      ascii;
    class       volScalarField;
    location    "4000";
    object      p;
}
// * * * * * * * * * * * * * * * * * * * * * * * * * * * * * * * * * * * * * //

dimensions      [0 2 -2 0 0 0 0];

internalField   nonuniform List<scalar> 
34158
(
-2.7531305e+51
-2.7454486e+51
-2.7361211e+51
-2.7284767e+51
-2.7381287e+51
-2.7472938e+51
-2.6639252e+51
-2.6563117e+51
-2.2329505e+51
-2.2381373e+51
-2.72042e+51
-2.7277569e+51
-2.6477677e+51
-2.6411926e+51
-2.7350795e+51
-2.648771e+51
-2.7477501e+51
-2.6576835e+51
-2.5691806e+51
-2.5616636e+51
-2.3872113e+51
-2.3898247e+51
-2.2255285e+51
-2.2288729e+51
-2.0444771e+51
-2.1429343e+51
-2.1481213e+51
-2.0491484e+51
-2.2322084e+51
-2.2845435e+51
-2.2865264e+51
-2.2334514e+51
-2.2361638e+51
-2.2885714e+51
-2.082167e+51
-2.0858077e+51
-2.6278992e+51
-2.6343032e+51
-2.7159178e+51
-2.6327824e+51
-2.7230658e+51
-2.6398006e+51
-2.554151e+51
-2.5474054e+51
-2.5598055e+51
-2.5662079e+51
-2.7347462e+51
-2.6461413e+51
-2.555816e+51
-2.747163e+51
-2.6573506e+51
-2.5639919e+51
-2.471646e+51
-2.4645066e+51
-2.3828555e+51
-2.377354e+51
-2.3840035e+51
-2.387532e+51
-2.2844655e+51
-2.2880067e+51
-1.9313808e+51
-2.2219156e+51
-2.1354391e+51
-2.0403764e+51
-2.0364794e+51
-2.1386275e+51
-2.2259867e+51
-2.2775025e+51
-2.2791013e+51
-2.2258835e+51
-2.2275281e+51
-2.2805681e+51
-2.2832715e+51
-2.230468e+51
-2.0197608e+51
-2.1772297e+51
-2.1781249e+51
-2.1085994e+51
-2.1087066e+51
-2.1113295e+51
-2.1810228e+51
-2.0244141e+51
-2.2444767e+51
-2.2454661e+51
-2.2755298e+51
-2.2751848e+51
-2.2988747e+51
-2.2990052e+51
-2.3211732e+51
-2.3004726e+51
-2.2995011e+51
-2.3217114e+51
-2.3227264e+51
-2.2446451e+51
-2.275513e+51
-2.246184e+51
-2.2766186e+51
-2.2494237e+51
-2.2476297e+51
-2.2776854e+51
-2.2791356e+51
-2.323759e+51
-2.3012797e+51
-2.3245733e+51
-2.3023222e+51
-2.072613e+51
-2.0776845e+51
-2.0913411e+51
-2.0948171e+51
-2.1820551e+51
-2.1856723e+51
-2.6187105e+51
-2.6256428e+51
-2.5339257e+51
-2.5405203e+51
-2.5535948e+51
-2.5477367e+51
-2.7157216e+51
-2.6297009e+51
-2.541038e+51
-2.7226916e+51
-2.6365963e+51
-2.5484072e+51
-2.4573792e+51
-2.4504817e+51
-2.4608405e+51
-2.5531736e+51
-2.5498509e+51
-2.467216e+51
-2.5596687e+51
-2.5560706e+51
-2.7347184e+51
-2.6452188e+51
-2.5531848e+51
-2.4596932e+51
-2.7471316e+51
-2.6564857e+51
-2.5621027e+51
-2.4669313e+51
-2.3712479e+51
-2.3646726e+51
-2.3733831e+51
-2.3790653e+51
-2.2798972e+51
-2.2746215e+51
-2.3818393e+51
-2.2830986e+51
-2.3866125e+51
-2.2871259e+51
-2.5639625e+51
-2.5672833e+51
-1.920902e+51
-1.9233652e+51
-2.3331384e+51
-2.1318407e+51
-2.0330216e+51
-2.2214042e+51
-2.2730982e+51
-2.2760096e+51
-2.2246379e+51
-2.1707461e+51
-2.10127e+51
-2.1005297e+51
-2.1702504e+51
-2.0155201e+51
-2.0115368e+51
-2.1718386e+51
-2.1751319e+51
-2.1020566e+51
-2.1064359e+51
-2.2697146e+51
-2.2398551e+51
-2.2386381e+51
-2.2687651e+51
-2.3136693e+51
-2.2923436e+51
-2.2918099e+51
-2.3137649e+51
-2.3144573e+51
-2.2923741e+51
-2.2932407e+51
-2.3151242e+51
-2.2388333e+51
-2.2380401e+51
-2.2686941e+51
-2.2694841e+51
-2.2704755e+51
-2.2396274e+51
-2.2402675e+51
-2.2711778e+51
-2.2939182e+51
-2.3158505e+51
-2.2948937e+51
-2.3171223e+51
-2.2988106e+51
-2.296755e+51
-2.3186027e+51
-2.2421828e+51
-2.2730238e+51
-2.2754288e+51
-2.2450293e+51
-2.0116105e+51
-2.0990262e+51
-2.0988484e+51
-2.2103962e+51
-2.209078e+51
-2.164369e+51
-2.1621745e+51
-2.2092156e+51
-2.1621556e+51
-2.1645598e+51
-2.2109382e+51
-2.1014027e+51
-2.2126246e+51
-2.2143454e+51
-2.1661102e+51
-2.1669997e+51
-2.0163127e+51
-2.2588727e+51
-2.2590147e+51
-2.2769817e+51
-2.2772179e+51
-2.2599282e+51
-2.2614516e+51
-2.2780411e+51
-2.2789238e+51
-2.2919062e+51
-2.3037995e+51
-2.3033561e+51
-2.2912415e+51
-2.2905384e+51
-2.3028463e+51
-2.3027822e+51
-2.2904066e+51
-2.3136463e+51
-2.3136794e+51
-2.3235647e+51
-2.3235812e+51
-2.314015e+51
-2.3142891e+51
-2.3238062e+51
-2.3237441e+51
-2.3326256e+51
-2.3325916e+51
-2.3325288e+51
-2.3415567e+51
-2.3417255e+51
-2.3149982e+51
-2.3140952e+51
-2.3240313e+51
-2.3248952e+51
-2.3137304e+51
-2.3136658e+51
-2.3236237e+51
-2.3236585e+51
-2.3417116e+51
-2.3325916e+51
-2.3325618e+51
-2.3416168e+51
-2.3420229e+51
-2.3329677e+51
-2.3338553e+51
-2.3428734e+51
-2.2587981e+51
-2.2587811e+51
-2.2768991e+51
-2.2771217e+51
-2.2903549e+51
-2.3027511e+51
-2.3028152e+51
-2.290519e+51
-2.2780403e+51
-2.2598325e+51
-2.2614745e+51
-2.2790514e+51
-2.2920929e+51
-2.2911937e+51
-2.3032368e+51
-2.3041972e+51
-2.2644951e+51
-2.2626028e+51
-2.2803207e+51
-2.2816056e+51
-2.261877e+51
-2.2620651e+51
-2.2795184e+51
-2.2797658e+51
-2.3047184e+51
-2.2925451e+51
-2.2928223e+51
-2.3049065e+51
-2.2943193e+51
-2.2932545e+51
-2.3053009e+51
-2.3061914e+51
-2.3435311e+51
-2.3344905e+51
-2.3347404e+51
-2.3437099e+51
-2.3253818e+51
-2.3154658e+51
-2.3156684e+51
-2.3256456e+51
-2.344123e+51
-2.3350804e+51
-2.33562e+51
-2.3446278e+51
-2.3260104e+51
-2.3160315e+51
-2.3168134e+51
-2.3266584e+51
-1.9319196e+51
-2.0614646e+51
-2.0671686e+51
-2.0814429e+51
-2.0869353e+51
-2.1723776e+51
-2.1774742e+51
-2.0993955e+51
-2.1850405e+51
-2.1024104e+51
-2.188557e+51
-2.5275822e+51
-2.5219309e+51
-2.6145192e+51
-2.526368e+51
-2.6223392e+51
-2.5336196e+51
-2.4371559e+51
-2.4435968e+51
-2.4545963e+51
-2.5446479e+51
-2.547088e+51
-2.4486797e+51
-2.5423741e+51
-2.5397134e+51
-2.71569e+51
-2.6294162e+51
-2.5387439e+51
-2.4455353e+51
-2.722661e+51
-2.6363029e+51
-2.5459992e+51
-2.4527917e+51
-2.3577795e+51
-2.3508944e+51
-2.358473e+51
-2.4535022e+51
-2.4507457e+51
-2.502273e+51
-2.5053539e+51
-2.3647939e+51
-2.4565016e+51
-2.4592444e+51
-2.5115054e+51
-2.5083185e+51
-2.6451488e+51
-2.5526178e+51
-2.4578755e+51
-2.3611537e+51
-2.6564149e+51
-2.5617433e+51
-2.464719e+51
-2.3674846e+51
-2.2688832e+51
-2.2627452e+51
-2.3713832e+51
-2.2733473e+51
-2.3766034e+51
-2.2785384e+51
-2.3817434e+51
-2.2837061e+51
-2.3875008e+51
-2.2874306e+51
-2.522784e+51
-2.5265326e+51
-2.559214e+51
-2.561273e+51
-2.5167319e+51
-2.5613803e+51
-2.5631429e+51
-2.5877497e+51
-2.5858798e+51
-2.519895e+51
-2.5647413e+51
-2.5661761e+51
-2.5551277e+51
-2.5572765e+51
-2.0244564e+51
-2.0192624e+51
-1.912404e+51
-1.9163745e+51
-2.3322162e+51
-2.3493547e+51
-2.3415579e+51
-2.3495456e+51
-2.341654e+51
-2.3417947e+51
-2.3419981e+51
-2.3306171e+51
-2.3292936e+51
-2.1656953e+51
-2.1691563e+51
-2.0951435e+51
-2.0994927e+51
-2.0079502e+51
-2.2325397e+51
-2.235725e+51
-2.2343702e+51
-2.2634359e+51
-2.2650481e+51
-2.2860885e+51
-2.2875914e+51
-2.3080757e+51
-2.3094182e+51
-2.2895455e+51
-2.2915558e+51
-2.311036e+51
-2.3127705e+51
-2.2399447e+51
-2.2377421e+51
-2.2670204e+51
-2.2690656e+51
-2.1579897e+51
-2.20456e+51
-2.2029032e+51
-2.1554379e+51
-2.0913755e+51
-2.0905586e+51
-2.2022652e+51
-2.2031949e+51
-2.1547649e+51
-2.1564621e+51
-2.0072365e+51
-2.0924055e+51
-2.0969041e+51
-2.003026e+51
-2.2040615e+51
-2.2045793e+51
-2.1572995e+51
-2.1572981e+51
-2.2096167e+51
-2.1592251e+51
-2.2065293e+51
-2.1634152e+51
-2.2973486e+51
-2.2861958e+51
-2.2852733e+51
-2.2968465e+51
-2.2733156e+51
-2.25576e+51
-2.2540731e+51
-2.2721241e+51
-2.2525398e+51
-2.2529173e+51
-2.2711072e+51
-2.270553e+51
-2.2961748e+51
-2.2843044e+51
-2.2838017e+51
-2.2958709e+51
-2.3334104e+51
-2.3247613e+51
-2.3247637e+51
-2.3334212e+51
-2.3162356e+51
-2.3071434e+51
-2.3068786e+51
-2.3161544e+51
-2.3065082e+51
-2.3065781e+51
-2.3160194e+51
-2.3161861e+51
-2.3334589e+51
-2.3247188e+51
-2.3249714e+51
-2.3337244e+51
-2.3338946e+51
-2.325206e+51
-2.325109e+51
-2.3338234e+51
-2.316329e+51
-2.3065571e+51
-2.3065628e+51
-2.3163065e+51
-2.307512e+51
-2.3069366e+51
-2.3165969e+51
-2.3170938e+51
-2.3341141e+51
-2.325297e+51
-2.3258487e+51
-2.3347965e+51
-2.2539554e+51
-2.2525932e+51
-2.2707141e+51
-2.2717946e+51
-2.2518619e+51
-2.2522481e+51
-2.270232e+51
-2.2701723e+51
-2.2835314e+51
-2.2835373e+51
-2.2957905e+51
-2.2957773e+51
-2.2962012e+51
-2.2839959e+51
-2.2850262e+51
-2.296971e+51
-2.2974514e+51
-2.2857078e+51
-2.2855487e+51
-2.2975733e+51
-2.2723385e+51
-2.2543099e+51
-2.253725e+51
-2.2720906e+51
-2.2551138e+51
-2.2539091e+51
-2.2721764e+51
-2.2731552e+51
-2.2978779e+51
-2.285578e+51
-2.2865302e+51
-2.2988283e+51
-2.3173498e+51
-2.3077705e+51
-2.317775e+51
-2.3080885e+51
-2.3352898e+51
-2.3262493e+51
-2.3267217e+51
-2.3357425e+51
-2.3086092e+51
-2.3184212e+51
-2.3195227e+51
-2.3096437e+51
-2.3284429e+51
-2.3273724e+51
-2.3364263e+51
-2.3139853e+51
-2.3128039e+51
-2.3232789e+51
-2.3220959e+51
-2.3117173e+51
-2.3106817e+51
-2.3204213e+51
-2.321203e+51
-2.329795e+51
-2.3291502e+51
-2.2576219e+51
-2.2562753e+51
-2.2742959e+51
-2.2758837e+51
-2.2891177e+51
-2.2999148e+51
-2.2876491e+51
-2.3011473e+51
-2.3024263e+51
-2.2907859e+51
-2.2919597e+51
-2.3036491e+51
-2.2776969e+51
-2.2595015e+51
-2.261377e+51
-2.278885e+51
-2.0949074e+51
-2.0946983e+51
-2.0939343e+51
-2.0936034e+51
-2.1647494e+51
-2.1622243e+51
-2.1621227e+51
-2.1644699e+51
-2.2396564e+51
-2.2100039e+51
-2.2071249e+51
-2.2377148e+51
-2.2367067e+51
-2.2059751e+51
-2.2067223e+51
-2.2367767e+51
-2.2059575e+51
-2.2067389e+51
-2.2368016e+51
-2.2365899e+51
-2.2100007e+51
-2.2069691e+51
-2.237647e+51
-2.2397295e+51
-2.0960399e+51
-2.166007e+51
-2.1667301e+51
-2.2404625e+51
-2.2108303e+51
-2.2094729e+51
-2.2399193e+51
-2.2406315e+51
-2.2099856e+51
-2.2126739e+51
-2.24282e+51
-2.101286e+51
-2.0970413e+51
-2.1022885e+51
-2.2746039e+51
-2.2747694e+51
-2.2939642e+51
-2.294342e+51
-2.2759098e+51
-2.277594e+51
-2.2954149e+51
-2.2965794e+51
-2.3085783e+51
-2.3181159e+51
-2.3177036e+51
-2.3078184e+51
-2.3069452e+51
-2.3170928e+51
-2.3167475e+51
-2.3065595e+51
-2.3259144e+51
-2.3262159e+51
-2.334373e+51
-2.3341203e+51
-2.3265748e+51
-2.3267241e+51
-2.3344419e+51
-2.3345479e+51
-2.3422866e+51
-2.3420805e+51
-2.3422595e+51
-2.3499053e+51
-2.3498097e+51
-2.3270355e+51
-2.3261718e+51
-2.3342883e+51
-2.3351244e+51
-2.3257307e+51
-2.3257502e+51
-2.3339209e+51
-2.3337618e+51
-2.3495922e+51
-2.3418376e+51
-2.3416944e+51
-2.3494389e+51
-2.3498458e+51
-2.34217e+51
-2.3429474e+51
-2.3504605e+51
-2.2744214e+51
-2.2743925e+51
-2.293723e+51
-2.2938541e+51
-2.3063051e+51
-2.3165251e+51
-2.316528e+51
-2.3063857e+51
-2.2948381e+51
-2.2755342e+51
-2.2772377e+51
-2.2959586e+51
-2.3080701e+51
-2.3070708e+51
-2.3169907e+51
-2.3179627e+51
-2.279708e+51
-2.2778045e+51
-2.2967681e+51
-2.2980135e+51
-2.277224e+51
-2.2775639e+51
-2.2963244e+51
-2.2963185e+51
-2.3186064e+51
-2.3085753e+51
-2.3087042e+51
-2.3187917e+51
-2.3099719e+51
-2.3090947e+51
-2.3191504e+51
-2.3198469e+51
-2.3509282e+51
-2.3435967e+51
-2.3440744e+51
-2.3514054e+51
-2.3358231e+51
-2.3276546e+51
-2.3279938e+51
-2.3362303e+51
-2.3517775e+51
-2.3444693e+51
-2.3448206e+51
-2.3366009e+51
-2.3283479e+51
-2.3289076e+51
-2.3370104e+51
-1.9226799e+51
-1.9226156e+51
-1.9176059e+51
-1.982148e+51
-1.987931e+51
-2.0361978e+51
-2.0494097e+51
-2.0552729e+51
-2.0417878e+51
-2.0699152e+51
-2.0758428e+51
-2.1607579e+51
-2.1665918e+51
-2.0893175e+51
-2.1754439e+51
-2.0950217e+51
-2.1807832e+51
-2.1891659e+51
-2.1007574e+51
-2.1030514e+51
-2.1920242e+51
-2.5130822e+51
-2.5194852e+51
-2.431244e+51
-2.4259451e+51
-2.4436463e+51
-2.4392599e+51
-2.6134752e+51
-2.5230822e+51
-2.4309444e+51
-2.621797e+51
-2.5310011e+51
-2.4379044e+51
-2.3378682e+51
-2.3440619e+51
-2.3521874e+51
-2.4480447e+51
-2.4448951e+51
-2.4968658e+51
-2.4995416e+51
-2.3464183e+51
-2.4396953e+51
-2.4918263e+51
-2.4944681e+51
-2.4422672e+51
-2.629386e+51
-2.5385399e+51
-2.4445963e+51
-2.3473676e+51
-2.6362746e+51
-2.546154e+51
-2.4517162e+51
-2.3544934e+51
-2.25632e+51
-2.2496579e+51
-2.2526834e+51
-2.4013472e+51
-2.3464296e+51
-2.34921e+51
-2.4040309e+51
-2.4720829e+51
-2.4693426e+51
-2.2588975e+51
-2.4069148e+51
-2.351896e+51
-2.3548785e+51
-2.4095728e+51
-2.4750322e+51
-2.4781391e+51
-2.5525759e+51
-2.458062e+51
-2.360962e+51
-2.2618912e+51
-2.5616908e+51
-2.4651613e+51
-2.3664074e+51
-2.267928e+51
-2.3712604e+51
-2.2745502e+51
-2.3763467e+51
-2.2793929e+51
-2.3817528e+51
-2.2852749e+51
-2.3875477e+51
-2.2886593e+51
-2.5235971e+51
-2.5214744e+51
-2.5450584e+51
-2.5471059e+51
-2.5694984e+51
-2.5682389e+51
-2.5663609e+51
-2.5672461e+51
-2.5259011e+51
-2.5493908e+51
-2.5518273e+51
-2.5284439e+51
-2.570578e+51
-2.5716888e+51
-2.5119695e+51
-2.5573478e+51
-2.5581739e+51
-2.5825022e+51
-2.5816843e+51
-2.5140923e+51
-2.5589402e+51
-2.5600717e+51
-2.5845027e+51
-2.5834508e+51
-2.539276e+51
-2.5160578e+51
-2.5176642e+51
-2.5408849e+51
-2.5600348e+51
-2.5720777e+51
-2.5730101e+51
-2.5608306e+51
-2.5617886e+51
-2.5739975e+51
-2.5750547e+51
-2.5628908e+51
-2.5992406e+51
-2.5859538e+51
-2.5870298e+51
-2.5840659e+51
-2.5982726e+51
-2.5973889e+51
-2.5849783e+51
-2.5191702e+51
-2.5203334e+51
-2.5437493e+51
-2.5424366e+51
-2.5636699e+51
-2.5758314e+51
-2.5643692e+51
-2.5649895e+51
-2.5657216e+51
-2.5079412e+51
-2.5539095e+51
-2.5551095e+51
-2.5101145e+51
-2.5565547e+51
-2.5559071e+51
-2.5808127e+51
-2.5801831e+51
-2.1060791e+51
-2.1139727e+51
-2.119135e+51
-2.1113212e+51
-2.0145854e+51
-2.1109055e+51
-2.1114148e+51
-2.1036002e+51
-2.1036301e+51
-1.904931e+51
-2.0099151e+51
-2.341095e+51
-2.3402931e+51
-2.3482762e+51
-2.3489573e+51
-2.3544163e+51
-2.3476644e+51
-2.3481112e+51
-2.3484984e+51
-2.3485286e+51
-2.3472267e+51
-2.3390376e+51
-2.3395872e+51
-2.3476503e+51
-2.3370909e+51
-2.3384875e+51
-2.3377095e+51
-2.3460469e+51
-2.3467326e+51
-1.9955989e+51
-2.1969171e+51
-2.1496271e+51
-2.1986794e+51
-2.1996758e+51
-2.151094e+51
-2.1514131e+51
-2.2016677e+51
-2.204261e+51
-2.1533187e+51
-2.1572411e+51
-2.0851972e+51
-2.0895366e+51
-1.9991984e+51
-2.2480684e+51
-2.2462292e+51
-2.2638964e+51
-2.2652501e+51
-2.277943e+51
-2.28951e+51
-2.2507678e+51
-2.2494653e+51
-2.2668496e+51
-2.2680948e+51
-2.2487769e+51
-2.2490635e+51
-2.2659471e+51
-2.2663372e+51
-2.2789713e+51
-2.278375e+51
-2.2900475e+51
-2.2905478e+51
-2.2911062e+51
-2.2793637e+51
-2.2807294e+51
-2.2923461e+51
-2.3099949e+51
-2.3004325e+51
-2.3009342e+51
-2.3105536e+51
-2.3027324e+51
-2.301557e+51
-2.3111955e+51
-2.3123054e+51
-2.3194726e+51
-2.3284745e+51
-2.3290816e+51
-2.3200767e+51
-2.3210796e+51
-2.3299746e+51
-2.3133039e+51
-2.3038025e+51
-2.304811e+51
-2.3140901e+51
-2.3069216e+51
-2.3058801e+51
-2.3150594e+51
-2.3159643e+51
-2.3225936e+51
-2.3219025e+51
-2.330623e+51
-2.3312221e+51
-2.3320003e+51
-2.3234368e+51
-2.324345e+51
-2.3329034e+51
-2.2559738e+51
-2.2546928e+51
-2.2718757e+51
-2.2731769e+51
-2.2529985e+51
-2.2521122e+51
-2.2691975e+51
-2.2705323e+51
-2.2934038e+51
-2.2816695e+51
-2.2831111e+51
-2.2945707e+51
-2.2956881e+51
-2.2842101e+51
-2.2857453e+51
-2.2969585e+51
-2.1580733e+51
-2.2040549e+51
-2.2339389e+51
-2.2318165e+51
-2.2010119e+51
-2.2001749e+51
-2.1996802e+51
-2.2305617e+51
-2.2303949e+51
-2.1552036e+51
-2.0860007e+51
-2.0851798e+51
-2.1546585e+51
-2.1564131e+51
-2.2301662e+51
-2.199865e+51
-2.1987025e+51
-2.2295436e+51
-2.2302767e+51
-2.1993689e+51
-2.2020401e+51
-2.2319781e+51
-2.0877388e+51
-2.0926439e+51
-2.0871528e+51
-2.0918293e+51
-2.1574513e+51
-2.1575218e+51
-2.1597074e+51
-2.1639134e+51
-2.0862176e+51
-2.0856658e+51
-2.2007977e+51
-2.2025315e+51
-2.2323809e+51
-2.2314413e+51
-2.2315788e+51
-2.2008227e+51
-2.2029128e+51
-2.2330106e+51
-2.2370784e+51
-2.2062167e+51
-2.2097219e+51
-2.2394736e+51
-2.2040752e+51
-2.2342259e+51
-2.2351977e+51
-2.204384e+51
-2.3110795e+51
-2.3023408e+51
-2.301469e+51
-2.3106983e+51
-2.2907026e+51
-2.2717021e+51
-2.2696941e+51
-2.2891913e+51
-2.267915e+51
-2.2683069e+51
-2.2878433e+51
-2.2872126e+51
-2.3101807e+51
-2.3003884e+51
-2.2997712e+51
-2.309743e+51
-2.3406518e+51
-2.333572e+51
-2.3338467e+51
-2.341024e+51
-2.3262721e+51
-2.3189146e+51
-2.318927e+51
-2.3264288e+51
-2.3186832e+51
-2.3188013e+51
-2.3265204e+51
-2.3265837e+51
-2.3413716e+51
-2.3340471e+51
-2.3341284e+51
-2.3413967e+51
-2.3411834e+51
-2.3340601e+51
-2.3341021e+51
-2.3412742e+51
-2.3266031e+51
-2.3186324e+51
-2.3186374e+51
-2.3265295e+51
-2.3191993e+51
-2.318891e+51
-2.3265852e+51
-2.3269319e+51
-2.3416551e+51
-2.3342011e+51
-2.3345802e+51
-2.3421243e+51
-2.2697234e+51
-2.2680838e+51
-2.2873716e+51
-2.2886467e+51
-2.2671829e+51
-2.2674973e+51
-2.2868005e+51
-2.2866806e+51
-2.2993757e+51
-2.2994255e+51
-2.3095603e+51
-2.3095459e+51
-2.3099639e+51
-2.2998853e+51
-2.3007941e+51
-2.310488e+51
-2.3107484e+51
-2.3013364e+51
-2.3013008e+51
-2.311057e+51
-2.2891706e+51
-2.2699815e+51
-2.2691705e+51
-2.288707e+51
-2.2706573e+51
-2.2692526e+51
-2.2887222e+51
-2.2898285e+51
-2.3116362e+51
-2.3014461e+51
-2.3023809e+51
-2.3125757e+51
-2.3271428e+51
-2.3192369e+51
-2.3278482e+51
-2.3198585e+51
-2.3426052e+51
-2.3349167e+51
-2.3356559e+51
-2.3433254e+51
-2.3206785e+51
-2.3287788e+51
-2.3297958e+51
-2.3217208e+51
-2.3375615e+51
-2.336631e+51
-2.3442859e+51
-2.3260808e+51
-2.3247263e+51
-2.3334815e+51
-2.3321304e+51
-2.3237924e+51
-2.3227724e+51
-2.3305264e+51
-2.331374e+51
-2.3388452e+51
-2.3381621e+51
-2.2733771e+51
-2.2719537e+51
-2.2911724e+51
-2.2928208e+51
-2.3052525e+51
-2.3137909e+51
-2.3036666e+51
-2.3150782e+51
-2.3164194e+51
-2.307022e+51
-2.3084359e+51
-2.3177176e+51
-2.2948837e+51
-2.2755754e+51
-2.2777938e+51
-2.2965555e+51
-2.1590068e+51
-2.1610176e+51
-2.1596083e+51
-2.1571192e+51
-2.1611976e+51
-2.1589667e+51
-2.1570458e+51
-2.1593626e+51
-2.1548806e+51
-2.1573741e+51
-2.1610916e+51
-2.1584701e+51
-2.1572022e+51
-2.1547871e+51
-2.1583953e+51
-2.1608468e+51
-2.2150807e+51
-2.2119981e+51
-2.2108089e+51
-2.2114204e+51
-2.2114825e+51
-2.2106846e+51
-2.2117584e+51
-2.2147676e+51
-2.2500844e+51
-2.2477474e+51
-2.2466095e+51
-2.2467575e+51
-2.2467374e+51
-2.2464007e+51
-2.2475852e+51
-2.2498744e+51
-2.1586355e+51
-2.1591029e+51
-2.162349e+51
-2.1629096e+51
-2.2156048e+51
-2.2140808e+51
-2.2145003e+51
-2.2170432e+51
-2.2504538e+51
-2.2495685e+51
-2.250222e+51
-2.2525194e+51
-2.1655585e+51
-2.1615193e+51
-2.1624624e+51
-2.1629762e+51
-2.1611356e+51
-2.1607651e+51
-2.1652702e+51
-2.1696251e+51
-2.1680661e+51
-2.1634662e+51
-2.2804222e+51
-2.2933913e+51
-2.2935479e+51
-2.2810678e+51
-2.281122e+51
-2.2940983e+51
-2.2936686e+51
-2.2804797e+51
-2.3095573e+51
-2.3028107e+51
-2.3027547e+51
-2.3093478e+51
-2.3102509e+51
-2.3035486e+51
-2.3030381e+51
-2.3096942e+51
-2.2948728e+51
-2.2825734e+51
-2.2954421e+51
-2.2819327e+51
-2.296421e+51
-2.2850996e+51
-2.2973922e+51
-2.2836481e+51
-2.3049517e+51
-2.3041887e+51
-2.3114872e+51
-2.3107303e+51
-2.3064447e+51
-2.3123895e+51
-2.3120183e+51
-2.3057952e+51
-2.3163099e+51
-2.3164872e+51
-2.3204901e+51
-2.3204136e+51
-2.3242071e+51
-2.3241783e+51
-2.3279257e+51
-2.3280315e+51
-2.3235815e+51
-2.3239983e+51
-2.3278856e+51
-2.3275955e+51
-2.3152143e+51
-2.315928e+51
-2.3201272e+51
-2.3195926e+51
-2.3191777e+51
-2.31474e+51
-2.3143076e+51
-2.3188502e+51
-2.3229713e+51
-2.3232457e+51
-2.3273553e+51
-2.3271246e+51
-2.3225395e+51
-2.3227643e+51
-2.3269255e+51
-2.3267134e+51
-2.3139078e+51
-2.3141376e+51
-2.3186404e+51
-2.3184181e+51
-2.3305622e+51
-2.3307698e+51
-2.334655e+51
-2.3344396e+51
-2.3309673e+51
-2.3311648e+51
-2.3350131e+51
-2.3348492e+51
-2.342256e+51
-2.3385829e+51
-2.3384407e+51
-2.3421428e+51
-2.3419725e+51
-2.3382542e+51
-2.3380273e+51
-2.3417474e+51
-2.3313343e+51
-2.3315362e+51
-2.3352417e+51
-2.3351203e+51
-2.3350247e+51
-2.3314503e+51
-2.3316208e+51
-2.3352705e+51
-2.3417713e+51
-2.3383513e+51
-2.338673e+51
-2.3421818e+51
-2.3422999e+51
-2.3387182e+51
-2.3386538e+51
-2.3422993e+51
-2.3457282e+51
-2.3456708e+51
-2.3491552e+51
-2.3492799e+51
-2.3452501e+51
-2.3454739e+51
-2.3491141e+51
-2.3488993e+51
-2.3493021e+51
-2.3457181e+51
-2.3456264e+51
-2.3492455e+51
-2.3561781e+51
-2.3526805e+51
-2.3526537e+51
-2.3561919e+51
-2.3561011e+51
-2.3525429e+51
-2.352339e+51
-2.3559023e+51
-2.3318872e+51
-2.3314127e+51
-2.33526e+51
-2.3357133e+51
-2.3309428e+51
-2.3304912e+51
-2.3343465e+51
-2.3348089e+51
-2.341548e+51
-2.3378949e+51
-2.3383664e+51
-2.3420167e+51
-2.3424333e+51
-2.3388003e+51
-2.339249e+51
-2.342865e+51
-2.3302805e+51
-2.3302245e+51
-2.334015e+51
-2.3340709e+51
-2.3342912e+51
-2.3304247e+51
-2.3302961e+51
-2.3341424e+51
-2.3415724e+51
-2.3378619e+51
-2.3376897e+51
-2.3413484e+51
-2.341161e+51
-2.3375196e+51
-2.3375801e+51
-2.3412188e+51
-2.3557362e+51
-2.3521601e+51
-2.3519567e+51
-2.3555546e+51
-2.3487001e+51
-2.3450562e+51
-2.3448343e+51
-2.3484876e+51
-2.3447299e+51
-2.3446688e+51
-2.348349e+51
-2.3484049e+51
-2.35547e+51
-2.3518369e+51
-2.3518873e+51
-2.3555055e+51
-2.3556746e+51
-2.3521097e+51
-2.3524408e+51
-2.3559336e+51
-2.3486641e+51
-2.3450239e+51
-2.3454705e+51
-2.3490518e+51
-2.3462453e+51
-2.3458497e+51
-2.3493901e+51
-2.3497033e+51
-2.3561732e+51
-2.3527221e+51
-2.3529653e+51
-2.3563424e+51
-2.279926e+51
-2.2928067e+51
-2.293333e+51
-2.2805933e+51
-2.2808898e+51
-2.293315e+51
-2.2929775e+51
-2.2800664e+51
-2.3092434e+51
-2.3025564e+51
-2.3022675e+51
-2.3089328e+51
-2.3089431e+51
-2.3021434e+51
-2.3024858e+51
-2.3090284e+51
-2.3182269e+51
-2.3137671e+51
-2.3135939e+51
-2.3181118e+51
-2.3222408e+51
-2.3223566e+51
-2.3265536e+51
-2.3264289e+51
-2.3222433e+51
-2.3221847e+51
-2.3263683e+51
-2.3264228e+51
-2.3136197e+51
-2.3135581e+51
-2.3180552e+51
-2.3181253e+51
-2.3095007e+51
-2.3030669e+51
-2.3038141e+51
-2.3099955e+51
-2.2810147e+51
-2.2937214e+51
-2.2945787e+51
-2.2817291e+51
-2.2829223e+51
-2.2953567e+51
-2.2961757e+51
-2.284283e+51
-2.305014e+51
-2.3107699e+51
-2.3043864e+51
-2.311322e+51
-2.3157414e+51
-2.315149e+51
-2.3194835e+51
-2.3200987e+51
-2.3183156e+51
-2.3139146e+51
-2.3144273e+51
-2.3188421e+51
-2.3229053e+51
-2.3224085e+51
-2.3266012e+51
-2.3270656e+51
-2.3240669e+51
-2.323482e+51
-2.3275944e+51
-2.3281108e+51
-2.2982531e+51
-2.284525e+51
-2.2865461e+51
-2.2969405e+51
-2.2831059e+51
-2.2834607e+51
-2.2956513e+51
-2.2960587e+51
-2.3052743e+51
-2.3116444e+51
-2.3048672e+51
-2.3121063e+51
-2.3126526e+51
-2.3060153e+51
-2.3068936e+51
-2.3131825e+51
-2.2827842e+51
-2.295511e+51
-2.2956949e+51
-2.2830533e+51
-2.2843023e+51
-2.2833521e+51
-2.2961661e+51
-2.2957661e+51
-2.3115902e+51
-2.3051476e+51
-2.304931e+51
-2.3115764e+51
-2.3047925e+51
-2.3047821e+51
-2.3114339e+51
-2.3113683e+51
-2.3245989e+51
-2.3243982e+51
-2.3284314e+51
-2.3286958e+51
-2.3203986e+51
-2.3160579e+51
-2.3161218e+51
-2.3205467e+51
-2.3205217e+51
-2.3160203e+51
-2.3160032e+51
-2.3205772e+51
-2.3247344e+51
-2.3246459e+51
-2.3288139e+51
-2.3289535e+51
-2.3175846e+51
-2.3171474e+51
-2.3215681e+51
-2.3219858e+51
-2.3167284e+51
-2.3162553e+51
-2.3207843e+51
-2.3212121e+51
-2.3252945e+51
-2.3249232e+51
-2.3291501e+51
-2.3294688e+51
-2.3260091e+51
-2.3256102e+51
-2.3297501e+51
-2.3300944e+51
-2.3563787e+51
-2.3530703e+51
-2.3533594e+51
-2.3566207e+51
-2.3498962e+51
-2.3465348e+51
-2.3468657e+51
-2.3502e+51
-2.3474532e+51
-2.3471758e+51
-2.3505549e+51
-2.350843e+51
-2.3569951e+51
-2.3537229e+51
-2.3539887e+51
-2.3572297e+51
-2.3431997e+51
-2.3395874e+51
-2.3399173e+51
-2.3435254e+51
-2.3360369e+51
-2.3321974e+51
-2.3324899e+51
-2.3363458e+51
-2.3328658e+51
-2.3326752e+51
-2.3365779e+51
-2.3368003e+51
-2.3438132e+51
-2.3401709e+51
-2.3404137e+51
-2.3440732e+51
-2.3572858e+51
-2.3540935e+51
-2.3543237e+51
-2.3575079e+51
-2.3510056e+51
-2.3476472e+51
-2.3478309e+51
-2.3511842e+51
-2.3480549e+51
-2.3479596e+51
-2.3513847e+51
-2.3515445e+51
-2.3442564e+51
-2.3406047e+51
-2.3408212e+51
-2.3444573e+51
-2.3333384e+51
-2.3330587e+51
-2.3369972e+51
-2.3372404e+51
-2.3338685e+51
-2.333574e+51
-2.3374329e+51
-2.3376374e+51
-2.3445868e+51
-2.3409688e+51
-2.3411037e+51
-2.344673e+51
-1.9146072e+51
-1.9721712e+51
-1.9084162e+51
-1.9129872e+51
-1.9772103e+51
-2.0261482e+51
-2.0388755e+51
-2.0439462e+51
-2.0310832e+51
-1.9283601e+51
-1.9235463e+51
-1.9867418e+51
-2.0572301e+51
-1.9924369e+51
-2.0635166e+51
-2.1449981e+51
-2.1479605e+51
-2.1541188e+51
-2.1507932e+51
-2.0770082e+51
-2.1635968e+51
-2.0832545e+51
-2.1697163e+51
-2.091018e+51
-2.1798619e+51
-2.1852057e+51
-2.0966595e+51
-2.1916242e+51
-2.1008799e+51
-2.1031538e+51
-2.1936678e+51
-2.509659e+51
-2.4183319e+51
-2.5160151e+51
-2.4243679e+51
-2.3319903e+51
-2.3267833e+51
-2.341428e+51
-2.4376095e+51
-2.435959e+51
-2.4872046e+51
-2.4895046e+51
-2.3371677e+51
-2.4320415e+51
-2.4827893e+51
-2.4852141e+51
-2.4341822e+51
-2.6133976e+51
-2.5225856e+51
-2.4292457e+51
-2.3333512e+51
-2.6217478e+51
-2.5308359e+51
-2.4364795e+51
-2.3399335e+51
-2.2371812e+51
-2.243116e+51
-2.2466346e+51
-2.3406916e+51
-2.3954727e+51
-2.3985942e+51
-2.343704e+51
-2.4669077e+51
-2.464066e+51
-2.24105e+51
-2.3358476e+51
-2.3381859e+51
-2.3928258e+51
-2.390313e+51
-2.4597397e+51
-2.4619077e+51
-2.5385424e+51
-2.4450513e+51
-2.3477786e+51
-2.2485393e+51
-2.5461512e+51
-2.4522676e+51
-2.3549858e+51
-2.255632e+51
-2.2954695e+51
-2.2928785e+51
-2.2356121e+51
-2.2336097e+51
-2.4195432e+51
-2.3655149e+51
-2.3676866e+51
-2.421662e+51
-2.4757797e+51
-2.4744393e+51
-2.497466e+51
-2.4985564e+51
-2.4718787e+51
-2.4729891e+51
-2.4959647e+51
-2.4944949e+51
-2.3014716e+51
-2.2981402e+51
-2.2421539e+51
-2.2384458e+51
-2.4246316e+51
-2.3702182e+51
-2.3732759e+51
-2.4273126e+51
-2.4788794e+51
-2.4769345e+51
-2.4997041e+51
-2.5017655e+51
-2.4809602e+51
-2.4830433e+51
-2.506448e+51
-2.5040054e+51
-2.4580766e+51
-2.3619406e+51
-2.2636917e+51
-2.465165e+51
-2.3672648e+51
-2.2691974e+51
-2.3712701e+51
-2.2759494e+51
-2.3763463e+51
-2.2808791e+51
-2.2853639e+51
-2.2887508e+51
-2.522729e+51
-2.5340586e+51
-2.5354212e+51
-2.5241282e+51
-2.5322135e+51
-2.5209256e+51
-2.5216761e+51
-2.5330123e+51
-2.5439368e+51
-2.5430615e+51
-2.5550714e+51
-2.5559413e+51
-2.5449325e+51
-2.546253e+51
-2.558227e+51
-2.5569302e+51
-2.574475e+51
-2.5738722e+51
-2.5677142e+51
-2.5684089e+51
-2.5733206e+51
-2.5727165e+51
-2.5665615e+51
-2.5671488e+51
-2.5646805e+51
-2.5651022e+51
-2.5712464e+51
-2.5707827e+51
-2.5655363e+51
-2.5722261e+51
-2.5717002e+51
-2.5660754e+51
-2.5253376e+51
-2.5267054e+51
-2.5378846e+51
-2.5365866e+51
-2.559401e+51
-2.5474123e+51
-2.5486822e+51
-2.5605758e+51
-2.5617409e+51
-2.5499367e+51
-2.5280275e+51
-2.5294142e+51
-2.5405204e+51
-2.5391965e+51
-2.5694754e+51
-2.5689329e+51
-2.5749269e+51
-2.5755093e+51
-2.5700063e+51
-2.5760449e+51
-2.5765869e+51
-2.5706146e+51
-2.5119159e+51
-2.5352214e+51
-2.5360401e+51
-2.5126683e+51
-2.556574e+51
-2.5685175e+51
-2.568881e+51
-2.5568783e+51
-2.5575262e+51
-2.5571123e+51
-2.5691096e+51
-2.5694804e+51
-2.5814109e+51
-2.5809294e+51
-2.5946542e+51
-2.5941231e+51
-2.5938215e+51
-2.5935565e+51
-2.5803631e+51
-2.5806816e+51
-2.5132929e+51
-2.5366938e+51
-2.5378902e+51
-2.5146866e+51
-2.5579684e+51
-2.5699888e+51
-2.5704728e+51
-2.5583667e+51
-2.5587732e+51
-2.5708679e+51
-2.5714725e+51
-2.5594463e+51
-2.5834123e+51
-2.5827708e+51
-2.5960224e+51
-2.5966774e+51
-2.5819368e+51
-2.5955819e+51
-2.5951867e+51
-2.5823721e+51
-2.537459e+51
-2.5381632e+51
-2.5497906e+51
-2.5490773e+51
-2.5274828e+51
-2.5267415e+51
-2.5156556e+51
-2.5163753e+51
-2.5171531e+51
-2.5282455e+51
-2.5292827e+51
-2.5181798e+51
-2.5389146e+51
-2.5399483e+51
-2.5517434e+51
-2.5506736e+51
-2.5583551e+51
-2.5586952e+51
-2.5646791e+51
-2.5643029e+51
-2.5708202e+51
-2.5779397e+51
-2.5783797e+51
-2.571219e+51
-2.5788224e+51
-2.5716526e+51
-2.579334e+51
-2.5721773e+51
-2.5590613e+51
-2.5650871e+51
-2.5655788e+51
-2.5595516e+51
-2.5600485e+51
-2.5606293e+51
-2.5666769e+51
-2.5660688e+51
-2.5726613e+51
-2.5798517e+51
-2.5804279e+51
-2.5732506e+51
-2.5809372e+51
-2.5737819e+51
-2.5742844e+51
-2.5813763e+51
-2.5611498e+51
-2.5672208e+51
-2.5677409e+51
-2.5617021e+51
-2.6051185e+51
-2.5988767e+51
-2.5983523e+51
-2.6055732e+51
-2.592063e+51
-2.5857996e+51
-2.5863695e+51
-2.5926313e+51
-2.5868453e+51
-2.5930996e+51
-2.5935481e+51
-2.5873048e+51
-2.5901625e+51
-2.5838994e+51
-2.584346e+51
-2.590629e+51
-2.5973279e+51
-2.6040982e+51
-2.6046436e+51
-2.5978628e+51
-2.5964648e+51
-2.5969101e+51
-2.6036685e+51
-2.6032397e+51
-2.584767e+51
-2.5910514e+51
-2.5915431e+51
-2.5852757e+51
-2.5189221e+51
-2.5300003e+51
-2.5305927e+51
-2.5194126e+51
-2.519801e+51
-2.5310488e+51
-2.5316648e+51
-2.5204114e+51
-2.541812e+51
-2.5537371e+51
-2.5544364e+51
-2.5424665e+51
-2.540686e+51
-2.5525359e+51
-2.5531657e+51
-2.5412847e+51
-2.5620799e+51
-2.5624747e+51
-2.5684976e+51
-2.5680894e+51
-2.5746363e+51
-2.5750189e+51
-2.5821271e+51
-2.5817711e+51
-2.5628078e+51
-2.5688351e+51
-2.5691834e+51
-2.5631456e+51
-2.5698599e+51
-2.5694987e+51
-2.5634166e+51
-2.5637306e+51
-2.5640101e+51
-2.5704606e+51
-2.5701268e+51
-2.5643837e+51
-2.5024192e+51
-2.5055648e+51
-2.5320488e+51
-2.5089862e+51
-2.5100345e+51
-2.5330839e+51
-2.5531384e+51
-2.5537402e+51
-2.5543974e+51
-2.5664256e+51
-2.5670677e+51
-2.5550658e+51
-2.5107182e+51
-2.5338654e+51
-2.5345356e+51
-2.5112828e+51
-2.5556992e+51
-2.5676796e+51
-2.5681271e+51
-2.5561478e+51
-2.5553981e+51
-2.5673674e+51
-2.5675364e+51
-2.5555405e+51
-2.5926841e+51
-2.5794949e+51
-2.5799711e+51
-2.593117e+51
-2.579205e+51
-2.5793392e+51
-2.4975038e+51
-2.4998062e+51
-2.1815387e+51
-2.1812189e+51
-2.1852968e+51
-2.1857386e+51
-2.1035097e+51
-2.1083725e+51
-2.1011183e+51
-2.0961904e+51
-2.1770931e+51
-2.1783998e+51
-2.1788406e+51
-2.1781024e+51
-2.0057877e+51
-2.0018312e+51
-2.1010534e+51
-2.1012551e+51
-2.0939886e+51
-2.0943224e+51
-2.3474615e+51
-2.3469561e+51
-2.3537512e+51
-2.3542359e+51
-2.3585757e+51
-2.355364e+51
-2.3555166e+51
-2.3586948e+51
-2.3523041e+51
-2.3491e+51
-2.3492772e+51
-2.352468e+51
-2.3500231e+51
-2.3496551e+51
-2.3528258e+51
-2.3531702e+51
-2.3504166e+51
-2.3502634e+51
-2.3533721e+51
-2.3535408e+51
-2.350154e+51
-2.3504037e+51
-2.3535908e+51
-2.3533851e+51
-2.3529052e+51
-2.3457378e+51
-2.3463565e+51
-2.3533475e+51
-2.3440749e+51
-2.3453435e+51
-2.344791e+51
-2.3518599e+51
-2.3524963e+51
-2.0779029e+51
-2.0778431e+51
-2.1497085e+51
-2.2237922e+51
-2.1927972e+51
-2.195895e+51
-2.226003e+51
-2.2271527e+51
-2.1968545e+51
-2.195394e+51
-2.2264766e+51
-2.2269975e+51