/*--------------------------------*- C++ -*----------------------------------*\
  =========                 |
  \\      /  F ield         | OpenFOAM: The Open Source CFD Toolbox
   \\    /   O peration     | Website:  https://openfoam.org
    \\  /    A nd           | Version:  7
     \\/     M anipulation  |
\*---------------------------------------------------------------------------*/
FoamFile
{
    version     2.0;
    format      ascii;
    class       surfaceScalarField;
    location    "4000";
    object      phi;
}
// * * * * * * * * * * * * * * * * * * * * * * * * * * * * * * * * * * * * * //

dimensions      [0 3 -1 0 0 0 0];

internalField   nonuniform List<scalar> 
101481
(
8.916766e+20
-1.9412079e+21
-1.6059687e+22
1.3767764e+21
-1.8695176e+21
-1.6276353e+22
1.8434649e+21
-2.0768708e+21
-1.544768e+22
-1.5756865e+21
-1.6482986e+22
-9.0368447e+20
1.2120386e+21
-7.4957666e+20
-1.4883184e+22
-3.2399972e+19
-1.3772046e+22
6.4098658e+20
-1.1184396e+21
-1.7231376e+22
9.0427863e+20
-1.2306904e+21
-1.717271e+22
-4.3995525e+20
6.594716e+20
-1.8585194e+22
-6.8979778e+20
8.7117686e+20
8.3989639e+20
-8.0801201e+20
-1.9096381e+22
-7.653427e+20
8.4954551e+20
-2.2122352e+21
-9.7768184e+20
-1.4536232e+22
-9.5421332e+20
-1.4172286e+22
1.5752715e+21
-1.3614008e+21
-1.6724096e+22
1.7146331e+21
-1.3754704e+21
-1.7249534e+22
-3.7097148e+20
1.0817583e+21
1.2010005e+20
-1.1355672e+22
-3.7505606e+20
6.0337112e+20
-4.0375249e+20
-1.5938433e+22
-1.5296304e+20
-1.1506812e+22
9.3994348e+19
-1.5662729e+22
4.5092477e+20
-3.9562557e+20
-1.803616e+22
7.9441849e+20
-5.5050165e+20
-1.7978984e+22
-2.240453e+20
1.57264e+20
-4.4718761e+20
-1.8795025e+22
-3.5692053e+20
-1.9163719e+22
-6.0453277e+20
6.0244517e+20
-1.8984172e+22
-7.5584728e+20
9.106614e+20
8.5045207e+20
-8.4038416e+20
-1.8656389e+22
-7.2402647e+20
8.6924172e+20
8.0938058e+20
-7.85521e+20
1.4792381e+22
-5.0732053e+20
-1.6675273e+22
6.7621411e+20
-2.7647661e+21
-3.4274476e+20
5.3014861e+20
1.0712189e+21
1.0069476e+21
-6.3367586e+20
-7.699286e+20
-1.5060066e+22
-7.2341763e+20
1.0832246e+21
-1.6609645e+22
-2.8244463e+21
3.1106296e+21
-1.5825158e+20
1.9589223e+20
-3.8284931e+21
-2.0551213e+20
-1.8008171e+20
1.9197706e+20
1.8404324e+20
-1.1098838e+20
1.7419388e+20
-2.7287355e+20
-2.52209e+20
1.5889813e+20
-3.1875912e+21
-1.5143037e+20
-2.7466954e+20
-2.624598e+20
1.7457355e+20
1.5670946e+20
-1.8253531e+20
-3.9319775e+21
-1.9249092e+20
1.8965711e+20
-2.0724687e+20
1.7073969e+20
3.1475733e+21
-3.9380171e+21
-2.1608012e+20
-1.865328e+20
1.8501951e+20
1.7166455e+20
1.5901149e+20
-2.60866e+20
1.535852e+20
-2.8419954e+20
-4.381568e+20
3.6591036e+20
6.6731971e+20
1.773303e+22
4.4585435e+20
1.7869317e+22
-1.9644035e+21
-1.1517561e+21
-1.8038323e+22
-1.2038474e+21
-1.7451571e+22
-2.162881e+21
-2.0016749e+20
-1.1071531e+22
-1.4345864e+21
1.7539786e+21
-6.8190157e+20
-1.554919e+22
-1.2125655e+20
-1.0508866e+22
-6.9508792e+20
-1.5669813e+22
1.1952226e+21
1.040647e+21
-6.4221732e+20
-1.7523327e+22
1.0547753e+21
1.3406404e+21
-7.2394879e+20
-1.7725777e+22
-9.2148708e+20
1.073562e+21
-1.7874933e+22
-6.7316298e+20
-5.1585299e+20
-1.7764555e+22
-6.4517933e+20
-5.1706388e+20
-6.1260139e+19
1.0758165e+20
2.4325152e+20
-7.2697376e+20
-8.6228035e+19
5.4827223e+20
-1.9816081e+20
-1.2023305e+22
-1.4432752e+20
5.8233185e+20
-3.8601713e+20
-1.6540919e+22
2.0444361e+20
-9.6439161e+20
-2.5655945e+20
-1.200914e+22
-1.0152911e+20
-1.6466968e+22
4.1109753e+20
-1.3801423e+20
-1.8127306e+22
6.8563867e+20
-2.591597e+20
-1.809741e+22
2.2072693e+20
-4.6081104e+20
-1.8306292e+22
3.5893679e+20
-4.1220065e+20
-1.8045789e+22
4.4903591e+19
-1.9740689e+19
-7.3445549e+20
-1.7821923e+22
-3.6046617e+20
-1.8321942e+22
-2.3529229e+20
-1.8096262e+22
2.3601859e+20
-9.1961758e+20
-1.833015e+22
-8.6434639e+20
1.4117683e+22
1.4019297e+22
-5.5689555e+21
-8.9921847e+20
-1.9234497e+22
-8.2881027e+20
8.9174432e+20
8.3150243e+20
-8.6718146e+20
-1.4889736e+22
-6.2150414e+20
5.3577046e+20
1.0984367e+21
-6.1726774e+20
-7.5943357e+20
1.0163125e+21
5.1540711e+20
1.4962136e+22
-1.6657202e+22
-2.7261592e+21
-1.6732024e+22
6.1578445e+20
-2.6856481e+21
1.0997708e+21
9.9377122e+20
-6.9913098e+20
-7.1096316e+20
3.2283721e+21
-1.8407227e+20
1.9784744e+20
-3.9804651e+21
1.9320509e+20
-1.8773885e+20
-2.1630312e+20
1.9330769e+20
-1.1453578e+20
1.6455966e+20
1.7109624e+20
-2.5267276e+20
-2.7282965e+20
1.6508624e+20
-3.2250302e+21
-1.5208121e+20
1.7797518e+20
-2.7138284e+20
-2.7596814e+20
1.6123746e+20
-1.9505851e+20
-4.0124262e+21
-2.1014331e+20
-1.9506273e+20
1.8966711e+20
1.7353771e+20
3.1757749e+21
-1.4545865e+20
-3.9287001e+21
1.9865855e+20
-1.8670763e+20
-2.1300694e+20
1.8035555e+20
-8.8738672e+19
-2.5886812e+20
1.620176e+20
-2.8073611e+20
1.5409307e+20
-3.1435406e+21
-2.6688301e+20
-2.6601387e+20
1.7208921e+20
-3.8519112e+21
-1.9017405e+20
1.8968786e+20
1.785322e+20
-2.0476252e+20
3.3068663e+21
3.361121e+21
-5.1066977e+20
5.9966378e+20
-1.2062158e+21
2.9124463e+21
2.8897097e+21
-1.9195662e+20
-2.959514e+21
2.1713779e+20
2.3362229e+20
2.1932714e+20
-1.2094393e+20
-1.5494552e+20
-3.0691751e+21
-1.9172644e+20
2.350244e+20
-1.4524268e+20
-1.5415171e+20
2.0828595e+20
-1.7494782e+20
2.6340064e+20
-3.7477532e+20
-2.6072872e+20
-3.922014e+20
3.0693298e+21
-3.447527e+21
-4.0751048e+20
2.2849954e+20
2.1282728e+20
-1.3582351e+20
-1.6551472e+20
2.9817136e+21
-1.2617526e+21
3.7506399e+19
7.3563227e+20
-4.195331e+19
-9.0814113e+20
-5.5066755e+19
-5.2386505e+19
3.7137204e+19
4.1759956e+19
7.1648047e+20
4.5932895e+19
-8.7854353e+20
-5.5062822e+19
-5.0363558e+19
3.8379858e+19
4.0601491e+19
-3.0454002e+19
9.4193998e+20
4.0330726e+19
-5.7398998e+19
3.7930076e+19
3.7692868e+19
-6.1583086e+19
9.6526314e+20
-3.0823812e+19
-5.9907104e+19
3.9319904e+19
3.6605623e+19
-6.1236129e+19
2.1236632e+19
7.4492975e+20
-1.9043351e+19
-6.1496896e+19
-6.2402499e+19
3.5234588e+19
3.3931425e+19
3.0757188e+19
-6.1876884e+19
-5.9480615e+19
3.4771265e+19
3.5333063e+19
-1.8048718e+19
-6.0038464e+19
-6.0581615e+19
3.478817e+19
3.3135258e+19
1.7552875e+19
7.4184025e+20
-9.4973051e+20
-2.5234019e+19
-6.3394419e+19
-6.3968529e+19
3.5397355e+19
3.2867641e+19
7.4807417e+20
-9.612699e+20
-6.28737e+19
-6.1004007e+19
3.5129982e+19
3.7993263e+19
-1.4395154e+19
3.4442101e+19
-5.852455e+19
-6.0534083e+19
3.513768e+19
-1.5544124e+19
3.5032407e+19
-6.0967186e+19
-6.0266185e+19
3.2827294e+19
7.3156508e+20
-3.2105232e+19
-9.0322441e+20
-5.6656514e+19
-5.1479911e+19
3.9540913e+19
3.7916132e+19
-2.2677127e+19
-5.9310023e+19
3.6914871e+19
3.7030816e+19
-6.2829979e+19
7.2076581e+20
-4.3033244e+19
-8.8698312e+20
4.1166739e+19
-5.1863575e+19
-5.5266973e+19
3.5862448e+19
-3.1717181e+19
-6.2025881e+19
-6.0540539e+19
3.859324e+19
3.478838e+19
3.5400552e+19
7.2729856e+20
-9.0388314e+20
-5.6401929e+19
-5.2762645e+19
4.0010683e+19
3.4600643e+19
7.199696e+20
-8.8446296e+20
-5.6227321e+19
-5.0807842e+19
3.9975958e+19
3.7387228e+19
-2.5378732e+19
9.4540527e+20
3.7470522e+19
-5.8257714e+19
-6.2451509e+19
3.6484338e+19
9.5828465e+20
-6.2430605e+19
-6.0261136e+19
3.796e+19
3.4030271e+19
-7.3537439e+20
-1.6681589e+19
3.7715907e+19
-5.651924e+19
-6.1577194e+19
3.431767e+19
-2.1311829e+19
3.4801594e+19
-5.9185691e+19
-6.3769595e+19
3.3396519e+19
-7.4416904e+20
3.8932649e+19
-5.981189e+19
-6.1551283e+19
3.2391487e+19
3.4223757e+19
-6.2814919e+19
-6.3619715e+19
3.1032592e+19
-3.616971e+20
3.5261347e+20
5.9574699e+20
1.7415626e+22
5.6685703e+20
1.7574763e+22
-1.7626721e+20
-2.1994437e+19
9.7063118e+20
1.9790633e+22
6.0910833e+20
1.9295802e+22
-3.3371852e+20
2.7116858e+20
-7.8227562e+20
-9.0645286e+20
-1.8961246e+21
-4.8280945e+20
-1.6265551e+22
-5.2881033e+20
-1.559574e+22
-1.4691678e+21
9.8110953e+20
1.4710986e+21
-6.8860872e+20
-1.8332761e+22
9.7589378e+20
-6.5825936e+20
-1.7897731e+22
1.1747058e+21
-1.7861428e+22
-5.3325199e+20
-7.0261363e+20
-1.810071e+22
-6.8791963e+20
-5.4731536e+20
-1.7574836e+20
-1.661228e+20
-9.3831913e+20
-1.3005654e+21
1.554859e+21
-2.4549461e+20
-1.1762229e+22
-9.5411836e+20
1.2307539e+21
-4.8260275e+20
-1.6067169e+22
-8.8846184e+18
-1.0446729e+21
-1.3370207e+20
-1.1822544e+22
-5.8303706e+20
-1.6100778e+22
9.1663618e+20
1.0039218e+20
-2.6501161e+20
-1.7589704e+22
1.1584372e+20
1.018727e+21
-2.844968e+20
-1.7659216e+22
-6.859623e+20
7.9589208e+20
-1.7908351e+22
-9.8988713e+20
-8.3713074e+20
1.0100124e+21
8.5633808e+20
2.2918882e+20
-2.74552e+20
2.2480283e+20
-3.9685941e+21
2.7363393e+20
3.1302151e+20
-4.0037169e+21
-1.7882128e+22
-8.4113024e+20
-9.7642271e+20
8.4853701e+20
9.8962235e+20
1.8932534e+20
-3.8890787e+21
-3.9300266e+21
-5.7483367e+19
7.6568974e+19
-5.9079772e+20
-1.4049808e+19
6.1616266e+19
-1.4207979e+19
-9.5848888e+20
1.02152e+20
4.1935165e+20
-3.4241606e+20
-1.2588408e+22
-1.5824761e+20
5.1671916e+20
-3.8368838e+20
-1.6774859e+22
-7.2175803e+20
-3.6988068e+19
-1.2119958e+21
-2.4913986e+20
-1.2315639e+22
-3.0061093e+20
-1.6600866e+22
5.132894e+20
-3.1503422e+20
-1.7710005e+22
6.6169757e+20
-2.9354164e+20
-1.7701791e+22
-7.372613e+19
2.4646473e+20
-6.228212e+20
-1.6917598e+22
-7.8932444e+20
-1.7163369e+22
3.3170375e+20
-1.774536e+22
-8.494805e+20
-1.7604796e+22
4.2944535e+20
-6.9732784e+20
4.2896936e+20
-1.5487283e+20
-2.957548e+20
-1.4444925e+22
4.6221352e+19
-1.8518116e+22
7.9528875e+19
-3.4917088e+20
3.0358348e+20
-1.5123016e+22
-1.850903e+22
-3.659722e+20
-1.3491364e+20
1.6730521e+20
-3.8789552e+21
-1.16362e+20
-1.4210408e+20
2.6136488e+20
2.8395026e+20
-3.807607e+21
-1.2712893e+20
-1.4613261e+20
1.3891986e+22
1.3844517e+22
6.8647482e+21
1.5040347e+22
1.5099896e+22
-1.1578365e+21
1.411484e+22
1.4222069e+22
-5.5603926e+21
-8.2047021e+20
-9.5487109e+20
1.5728536e+19
3.8421411e+19
-5.2990169e+19
3.7438384e+19
-5.8169446e+19
-1.5152722e+22
1.1163781e+21
1.0298688e+21
-6.9103307e+20
-6.9470556e+20
-1.6797945e+22
-2.6594407e+21
3.3059932e+21
-1.3176412e+20
-4.0988915e+21
-2.2834258e+20
-2.0381902e+20
1.9304351e+20
1.8222118e+20
-9.4631965e+19
-2.6895936e+20
-2.8813478e+20
1.6182044e+20
1.5725533e+20
-3.2605871e+21
-2.6692456e+20
-2.7399539e+20
1.7930178e+20
1.6258475e+20
-4.012546e+21
-2.166146e+20
-2.0416266e+20
1.9625162e+20
1.7538629e+20
-3.0424407e+21
-2.3041367e+20
2.2113499e+20
-1.2632592e+20
2.3435653e+20
2.2159585e+20
-1.5993501e+20
-1.8039615e+20
-3.3573791e+21
2.4292446e+20
-3.6485727e+20
3.1236026e+21
-3.3992278e+21
-2.9055032e+20
-3.7365349e+20
-2.4902505e+20
2.3888516e+20
2.1065079e+20
-1.4686754e+20
-1.5656777e+20
5.1403523e+20
3.4535393e+21
3.2850824e+21
-1.1521891e+21
3.0157374e+21
2.8721411e+21
5.4351675e+20
2.9587979e+21
2.937197e+21
-1.1456649e+21
-1.7999994e+20
-3.0480991e+21
2.3215615e+20
2.1335862e+20
-1.3179275e+20
-1.6357678e+20
-2.9937059e+21
2.1143768e+20
-1.3674822e+20
2.3943101e+20
-1.4141645e+20
-2.1555319e+20
-3.6868746e+20
-3.7173894e+20
-7.2178968e+20
-3.4246968e+19
9.5273735e+20
3.3677339e+19
4.1752226e+19
-5.7289168e+19
-6.1308718e+19
3.9672672e+19
-3.8295017e+19
4.8498663e+19
-8.9228232e+20
3.9985403e+19
-5.0770551e+19
-5.5596955e+19
3.8932298e+19
7.5345338e+20
-4.6781125e+19
-9.319407e+20
-5.5191384e+19
-5.2613067e+19
4.1097312e+19
3.7377512e+19
9.8368164e+20
-3.0320259e+19
4.030574e+19
-5.8754657e+19
-5.9891411e+19
3.7493069e+19
-7.4544563e+20
-1.6001202e+19
1.9992607e+19
3.8645587e+19
-5.6716214e+19
-6.0622838e+19
3.6372803e+19
-2.4451296e+19
2.7379624e+19
3.6778374e+19
-5.8017805e+19
-6.2722669e+19
3.5652696e+19
7.5026759e+20
-1.3678068e+19
-6.070571e+19
-6.0396711e+19
3.6496997e+19
3.4416595e+19
-1.148305e+19
3.5026605e+19
-5.9589943e+19
-5.9141001e+19
3.3302973e+19
-7.5939831e+20
-1.5385992e+19
3.8760662e+19
-5.6795529e+19
-6.2279304e+19
3.7211525e+19
-1.5449019e+19
-9.7071409e+20
3.490553e+19
-6.25562e+19
-6.5345224e+19
3.469984e+19
7.5107856e+20
-9.6306335e+20
-2.4988203e+19
-6.384778e+19
-6.2385593e+19
3.8584062e+19
3.3205215e+19
-1.845494e+19
3.5978876e+19
-6.0231273e+19
-6.0746582e+19
3.3200607e+19
3.2638548e+19
7.3412764e+20
-4.2321183e+19
-9.0287015e+20
-5.6054141e+19
-5.2781404e+19
4.1181253e+19
3.5936271e+19
7.3826209e+20
-9.1569817e+20
-5.741277e+19
-5.217249e+19
4.0250502e+19
3.7565639e+19
-2.1342046e+19
-6.3997744e+19
-6.0424494e+19
3.6378549e+19
3.6280608e+19
-2.7516287e+19
3.8804021e+19
-6.0876749e+19
-6.2406428e+19
3.525547e+19
-7.3523758e+20
-2.6196874e+19
9.717577e+20
4.1757268e+19
-5.8073838e+19
-6.2196807e+19
3.9332516e+19
-3.6158129e+19
-8.992615e+20
4.0710572e+19
-5.1556048e+19
-5.6738759e+19
3.8737606e+19
7.3977698e+20
-4.1975834e+19
-9.1557655e+20
-5.6236644e+19
-5.3169197e+19
4.1537993e+19
3.6478271e+19
9.6798784e+20
-2.5134368e+19
3.8793782e+19
-6.0864754e+19
-6.2178382e+19
3.5331561e+19
7.5571394e+20
-1.759222e+19
3.6528747e+19
-5.8911707e+19
3.5631695e+19
-6.3469032e+19
-9.9261056e+18
3.446386e+19
-5.7776029e+19
-6.0518624e+19
3.4996816e+19
7.4782303e+20
-1.8572198e+19
-6.2805657e+19
3.4854646e+19
3.1968542e+19
-6.3608848e+19
-1.6628044e+19
-6.1160838e+19
-6.1570915e+19
3.414434e+19
1.5464911e+19
-9.6381508e+20
-6.2600167e+19
-5.9441881e+19
3.5256905e+19
4.0088941e+19
7.5114204e+20
-9.6440059e+20
-6.5854466e+19
-6.1500528e+19
3.7316628e+19
3.417575e+19
-6.2966039e+19
-5.9168867e+19
7.3133393e+20
-2.9343501e+19
-9.0329866e+20
-5.7034979e+19
-5.1575102e+19
3.9563529e+19
3.820495e+19
-1.6779086e+19
-6.3966539e+19
3.6508829e+19
-6.0448694e+19
3.6172292e+19
-7.2244934e+20
4.3454898e+19
-5.8310655e+19
-6.1248019e+19
3.6821846e+19
-8.8134509e+20
4.2859706e+19
-5.1675304e+19
-5.5506416e+19
3.5044635e+19
-5.7510251e+20
1.211202e+21
6.666316e+20
2.9713594e+21
2.9323532e+21
2.765262e+21
2.7140679e+21
-2.2236906e+20
7.3270146e+20
7.446322e+20
2.5563711e+20
-2.685462e+20
6.4965038e+20
6.4596654e+20
7.6927416e+20
7.3214267e+20
-2.5313869e+20
-2.8618447e+20
6.7346099e+20
6.3958635e+20
-4.9429399e+19
-6.5515974e+20
5.4630145e+19
4.2088028e+19
-3.4983787e+19
-4.2024238e+19
3.9957958e+19
-6.8268533e+20
-5.6560793e+19
4.3971446e+19
-3.9931975e+19
-4.1656792e+19
3.8620341e+19
-4.1163516e+19
6.736393e+19
-6.9602406e+19
-6.3101047e+19
-7.106094e+19
-6.8054557e+20
-4.2000597e+19
-4.4959443e+19
-3.8099772e+19
4.2232443e+19
3.8612321e+19
-4.7575553e+19
-7.2039449e+19
6.7045038e+20
-6.6847617e+19
-7.3187138e+19
-5.1016824e+19
-4.107672e+19
-3.9579996e+19
4.3970932e+19
3.7455305e+19
7.4364253e+20
7.5073369e+20
-2.9808548e+20
6.5701658e+20
6.449418e+20
-4.2177501e+19
-6.6370659e+20
4.1890046e+19
-3.673076e+19
-4.4624083e+19
3.8368781e+19
-6.8603502e+20
4.2864017e+19
-4.1234616e+19
-4.3541132e+19
3.6581571e+19
-4.8505197e+19
-7.4229879e+19
-7.7418426e+19
1.2700632e+21
2.8058335e+21
2.6909162e+21
3.0267178e+21
2.8926897e+21
7.6465757e+18
1.766259e+20
-9.6527601e+18
-2.1119643e+20
-1.8489976e+19
1.790642e+20
9.2788701e+18
-2.1439663e+20
-1.8686329e+19
6.0361897e+18
2.2840482e+20
-7.4338572e+18
-1.3244018e+19
8.0946226e+18
2.3190856e+20
-1.3142833e+19
8.4919269e+18
1.7686679e+20
-2.1201982e+20
-1.9122868e+19
1.735446e+20
1.0183184e+19
-2.0495577e+20
-2.0643676e+19
7.2996214e+18
2.2942691e+20
-1.3385257e+19
2.2592373e+20
8.8646265e+18
-1.3342682e+19
1.8123644e+20
-5.2462632e+18
7.1055223e+18
-1.4571001e+19
-3.7647785e+18
2.2951961e+20
5.0064059e+18
-1.1594707e+19
-1.8352768e+20
-4.4962711e+18
2.3387739e+20
-1.1925334e+19
-5.5216298e+18
-1.540848e+19
1.8488419e+20
-3.7279728e+18
-1.4676381e+19
-3.3509867e+18
2.3483206e+20
-1.1773246e+19
-1.8336162e+20
2.320396e+20
-4.041652e+18
-1.1381676e+19
-5.1932987e+18
-1.472758e+19
2.0325393e+18
1.8258141e+20
-2.8740522e+18
-1.119719e+19
1.8385714e+20
2.9604069e+18
-1.2355443e+19
-2.2344286e+18
2.5056725e+18
2.2890033e+20
-1.0079841e+19
2.261326e+20
-2.659356e+18
-9.194842e+18
3.2194014e+18
1.833362e+20
-1.1594675e+19
1.8104984e+20
3.8135079e+18
-1.1604959e+19
-2.2263365e+18
2.581307e+18
-9.3588053e+18
2.2845305e+20
-9.5044371e+18
-1.7128847e+18
-9.8017615e+18
1.2421253e+18
1.7672066e+20
-2.192436e+18
-9.676203e+18
1.7795802e+20
-1.0110057e+19
-1.7993791e+18
-9.2117491e+18
-2.2188931e+18
-9.0721175e+18
1.8165894e+18
1.8208239e+20
-2.3118477e+20
-3.3572089e+18
-1.2751418e+19
1.8530277e+20
3.1332701e+18
-2.3714482e+20
-1.3443162e+19
-1.6212763e+18
2.3118676e+18
2.301831e+20
-1.0173562e+19
2.2551845e+20
-2.6555427e+18
-9.534148e+18
2.5360569e+18
1.8461888e+20
-2.3511875e+20
-1.1776587e+19
1.8151434e+20
-2.3042519e+20
-1.2431132e+19
-1.8552581e+18
2.2493651e+20
-9.0962622e+18
2.2974759e+20
-6.6788376e+18
-1.757576e+20
-1.5071014e+18
-8.9090235e+18
-2.0152628e+18
-9.5228037e+18
1.7838826e+20
-1.8151052e+18
-9.3749054e+18
-1.8564085e+18
-9.0665387e+18
-1.7873496e+20
-1.6736661e+18
-9.566066e+18
-8.3593656e+17
-1.0498213e+19
1.7628385e+20
-1.790816e+18
-1.0076706e+19
-1.7611908e+18
-9.5580591e+18
7.883066e+18
1.7912551e+20
-9.5952889e+18
-2.1544135e+20
-1.8628379e+19
1.7634889e+20
-2.1077901e+20
-1.8819467e+19
-5.4612313e+18
2.2775569e+20
-1.383844e+19
2.3165479e+20
-6.2169234e+18
-1.3857396e+19
1.8247653e+20
-4.2103785e+18
-1.5013741e+19
-2.9634918e+18
-1.2111935e+19
-1.8481674e+20
-4.1274524e+18
-1.2107203e+19
-4.7415207e+18
-1.5460759e+19
-1.7870187e+20
-5.6021092e+18
2.3341351e+20
-1.4159687e+19
-7.5247712e+18
-2.1370968e+20
-1.8926251e+19
1.7537857e+20
-1.010172e+19
-2.0855782e+20
-1.9510787e+19
2.2748264e+20
-7.5680808e+18
-1.4275607e+19
3.7918436e+18
1.8292568e+20
-5.6386921e+18
-1.5622032e+19
1.8712711e+20
-1.5203804e+19
-2.9610857e+18
-1.2590821e+19
-4.1059116e+18
-1.2325868e+19
8.4037355e+18
1.73653e+20
-2.0834378e+20
-1.9053857e+19
1.7760523e+20
9.5885926e+18
-2.1288815e+20
-1.8664567e+19
-5.8050112e+18
6.5795757e+18
2.3026016e+20
-1.3418743e+19
2.2545616e+20
-1.3694956e+19
8.4304781e+18
1.7694497e+20
-2.1295483e+20
-1.9059355e+19
1.7501755e+20
-2.0790979e+20
-1.9586817e+19
-5.7431283e+18
2.2671734e+20
-1.354877e+19
2.2917186e+20
-1.4003189e+19
-1.8188431e+20
-3.171588e+18
2.2988173e+20
-1.1461193e+19
-4.362779e+18
-1.470057e+19
1.8308278e+20
-5.1248458e+18
-1.5600325e+19
-4.021835e+18
2.327069e+20
-1.2289485e+19
4.491612e+18
1.8140896e+20
-1.4763527e+19
1.8391936e+20
-1.455353e+19
-3.9573889e+18
2.33608e+20
-1.1793016e+19
2.2939047e+20
-1.1820478e+19
-1.7585511e+20
-1.7727483e+18
-5.2360316e+18
-2.1458153e+18
-2.2419033e+20
-7.8290175e+18
1.7633836e+20
-2.2687584e+20
-2.0721945e+18
-1.1113292e+19
-1.8957105e+18
-9.606745e+18
-1.8106729e+20
-1.9234361e+18
-9.0535336e+18
-2.7894639e+18
-1.0938972e+19
1.8209931e+20
-2.9266645e+18
-1.3024752e+19
-2.5879413e+18
-1.0715459e+19
-1.7785151e+20
-2.7857622e+18
-5.4883526e+18
-2.1516822e+18
-2.2784589e+20
-9.7379683e+18
1.747633e+20
-2.234167e+20
-1.1041081e+19
-1.8298269e+20
-2.8882472e+18
-1.0339073e+19
-2.6932475e+18
-1.2422992e+19
1.8036671e+20
-1.2579019e+19
-1.0536266e+19
-1.6402514e+21
-1.0154014e+21
-9.7232077e+20
5.9102487e+21
5.9153554e+21
1.6432334e+22
1.6417969e+22
1.6628709e+22
1.6607266e+22
-3.9067943e+20
2.8747004e+20
6.3532803e+20
1.7255701e+22
4.9861207e+20
1.7411869e+22
4.9061304e+19
-7.5013215e+18
9.0135998e+20
1.8912375e+22
9.0496898e+20
1.9018451e+22
-3.6155263e+20
3.3911264e+20
-6.0176811e+20
-7.0123279e+20
-3.2107533e+20
8.0550937e+19
1.6050217e+22
3.5532876e+20
-1.5076727e+20
1.2876048e+20
5.1225122e+20
-1.1768285e+20
1.5257667e+22
2.2271046e+20
1.4334728e+21
-5.9446626e+20
-1.845635e+22
-5.5889787e+20
-1.8706551e+22
-1.6567239e+21
-1.5170888e+20
-1.1991969e+22
-1.3106643e+21
1.3241737e+21
-4.9485298e+20
-1.6472816e+22
-2.5548759e+20
-1.1484379e+22
-4.5809605e+20
-1.5875813e+22
-1.1143354e+21
6.3851922e+19
1.1657826e+21
-3.7735717e+20
-1.8070704e+22
5.6749938e+19
-3.2483915e+20
-1.7725249e+22
8.6484473e+20
-1.788448e+22
-9.8479193e+20
-8.7521682e+20
9.754246e+20
8.9543219e+20
-2.717983e+20
3.3852311e+20
2.5721607e+20
-4.0246434e+21
2.3279966e+20
-4.1074151e+21
9.5002414e+20
-1.8041398e+22
-8.9838103e+20
9.9277127e+20
8.6166971e+20
-1.0366992e+21
2.6069137e+20
2.3885707e+20
-4.1466993e+21
2.6856399e+20
-4.1137828e+21
-1.4482637e+20
-8.8902368e+20
-1.052656e+20
1.2149554e+20
-1.713262e+20
-1.0287107e+21
-7.2964085e+20
9.9607816e+20
-1.8252536e+20
-1.2328742e+22
-7.1080507e+20
7.7739658e+20
-1.3939744e+20
-1.6278858e+22
-8.9461735e+20
-6.6686926e+19
-1.1553343e+21
-8.0487455e+19
-1.2635382e+22
-2.8807438e+20
-1.62718e+22
7.963824e+20
-2.5683252e+20
-2.6977949e+20
-1.7197781e+22
-2.6003799e+20
8.3796672e+20
-2.2329509e+20
-1.7217465e+22
-5.9827901e+20
6.4650621e+20
-1.775404e+22
8.0662535e+20
-9.2185224e+20
-1.0385129e+21
6.9116137e+20
1.9825878e+20
3.1401002e+21
-1.991361e+20
-4.0178295e+21
-1.1127833e+20
3.1681087e+21
2.5118192e+20
-4.0257045e+21
-3.2458218e+19
-2.2820848e+20
1.0401892e+20
2.9859422e+20
-2.5163877e+20
5.1274807e+19
-1.7797417e+22
7.8456993e+20
-9.0841048e+20
-1.0197383e+21
6.7995318e+20
-1.725335e+20
3.113646e+21
-3.9518175e+21
-2.9561002e+19
3.0793217e+21
-3.9415451e+21
-1.0145336e+20
1.9167319e+20
6.7322988e+19
1.1327673e+20
6.3389767e+17
4.1464453e+19
-8.3119014e+20
2.6441576e+19
4.98658e+19
-1.6209947e+20
-1.2151095e+21
3.1200699e+19
3.8486727e+20
-5.5817421e+19
-1.3332347e+22
-3.5385829e+20
5.3616219e+20
-1.3799675e+20
-1.7112707e+22
-1.0248558e+21
-2.4015352e+20
-1.2041472e+21
1.1299287e+19
-1.2757403e+22
-2.6643755e+20
-1.6756856e+22
5.4904838e+20
-1.7400917e+22
-4.9169037e+20
-1.7403179e+22
6.2562977e+20
-3.795767e+20
-3.2429321e+19
2.3844806e+20
-2.3773145e+20
-1.3623687e+22
-1.926005e+20
-1.7632201e+22
3.5356058e+20
-1.4368267e+20
-3.6877553e+20
-1.3711406e+22
-1.7813376e+22
-3.1254323e+20
6.2566369e+19
-3.461576e+19
-2.6849446e+19
-1.4530162e+21
1.9732441e+20
-1.5722765e+22
-1.5706586e+19
7.4705397e+20
1.1793124e+20
-1.0811251e+21
-1.565597e+22
5.5748569e+20
-7.281082e+19
1.172742e+20
-3.8186254e+21
-2.043804e+20
-1.878981e+20
2.2048036e+20
2.0611474e+20
-3.7218941e+21
-1.8832146e+20
2.1277977e+20
2.0483597e+20
-2.0163446e+20
-1.8757459e+20
1.877347e+20
-3.8605783e+21
-1.2276809e+20
-1.4360658e+20
2.5822919e+20
2.8019142e+20
-3.924458e+21
-1.2527482e+20
-1.4314432e+20
2.601796e+20
2.804632e+20
-1.1216126e+20
-3.8518299e+21
1.4145992e+20
2.2745206e+20
-1.8552085e+20
-2.0375225e+20
2.0941665e+20
-2.6884755e+19
6.8887004e+20
3.7771338e+19
-8.8831008e+20
-2.447493e+19
6.4477698e+19
6.1774555e+19
-2.9585677e+19
6.8618472e+20
-3.1545403e+19
-8.8888389e+20
-2.7247067e+19
6.3692669e+19
5.8439279e+19
-2.9628894e+19
3.3943597e+19
6.5310046e+19
-1.5780067e+19
-1.8980531e+19
4.6314615e+19
-1.3804385e+19
6.1875557e+19
6.4814845e+19
-1.8972215e+19
-3.7529058e+21
-1.9650545e+20
-2.0934008e+20
1.9715312e+20
2.103799e+20
-2.7660996e+19
-8.7056785e+20
-2.5969683e+19
6.102799e+19
-3.059872e+19
-8.7952289e+20
-2.7404141e+19
-2.9958591e+19
-1.792353e+20
-3.9063502e+21
-1.1902338e+20
-1.4634222e+20
-3.8836686e+21
-1.4729482e+20
-1.2932396e+20
2.5753658e+20
2.7678653e+20
5.6031833e+20
3.3188562e+21
3.3577812e+21
3.3238474e+21
3.1972993e+21
3.2335269e+21
3.1899486e+21
6.7553342e+20
3.2323822e+21
3.2356455e+21
3.2594019e+21
3.2785073e+21
1.3875192e+22
1.3960493e+22
6.4842629e+21
1.5063883e+22
-1.0495907e+21
1.514545e+22
1.4324452e+22
-5.5710339e+21
1.1468151e+19
-9.5911317e+20
-5.7837563e+19
-5.6614172e+19
3.8534145e+19
3.3252079e+19
-1.7285818e+20
-4.2504637e+17
1.5244446e+18
-3.7918195e+18
-1.066917e+18
-2.2121824e+20
1.5260313e+18
-5.0892227e+18
-1.7356094e+20
-4.7983573e+16
-2.2360836e+20
-9.1409278e+18
-3.3826254e+17
-2.2096495e+20
-8.5428108e+18
-2.1757547e+20
-9.7604493e+18
1.6365649e+19
-9.7791122e+20
3.613826e+19
-5.5769621e+19
-5.9476354e+19
3.5033578e+19
-9.7185529e+20
-5.9291464e+19
-5.7998338e+19
3.7444358e+19
3.186781e+19
-1.520267e+20
-3.1423397e+21
2.3524784e+20
2.2017123e+20
-1.3471497e+20
-1.6428296e+20
-3.0905531e+21
2.4503751e+20
2.1633886e+20
-1.3945558e+20
-1.4493673e+20
-1.8177603e+20
-3.5143634e+21
-3.5459109e+20
-3.3601449e+21
-3.6396572e+20
3.0591185e+21
2.9342302e+21
-1.1210197e+21
-4.0287243e+19
-9.5758926e+20
-5.7904721e+19
-5.4465728e+19
4.3272376e+19
3.6540393e+19
3.4617762e+19
7.5507697e+20
-4.108089e+19
-9.426766e+20
-5.7591394e+19
-5.4020229e+19
4.2581019e+19
3.4750607e+19
7.4867259e+20
-9.2620323e+20
-5.8165959e+19
-5.2498038e+19
4.1928059e+19
3.6778057e+19
-2.3699112e+19
9.7919614e+20
-6.3172557e+19
-5.8538556e+19
3.8377406e+19
3.7317283e+19
9.8836972e+20
-2.7353489e+19
3.9641108e+19
-6.0168171e+19
-6.23496e+19
3.5459359e+19
-1.8023743e+19
7.5311509e+20
3.544933e+19
-5.9562572e+19
-6.3347831e+19
3.5123232e+19
7.5752652e+20
-2.1325754e+19
-6.259788e+19
-6.0818873e+19
3.638024e+19
3.3046876e+19
-1.3136192e+19
-6.1312976e+19
3.4757666e+19
-1.7966516e+19
3.5532242e+19
-5.9844279e+19
-6.070724e+19
3.2776121e+19
-1.7498195e+19
7.5904997e+20
-9.8496056e+20
4.0592068e+19
-5.8028814e+19
-6.3585154e+19
3.6180251e+19
7.4751296e+20
-9.6606838e+20
-6.1748239e+19
-5.905679e+19
4.0693159e+19
3.4553245e+19
-1.5410164e+19
-6.0775486e+19
-5.4263371e+19
3.7556015e+19
3.5366983e+19
3.7582995e+19
-5.7287073e+19
-5.8857049e+19
3.4128088e+19
3.1075987e+19
7.3451687e+20
-9.0308774e+20
-5.5852128e+19
-5.2269286e+19
4.3008185e+19
3.4492088e+19
7.4817793e+20
-9.3001714e+20
-5.8179242e+19
-5.2199637e+19
4.2130333e+19
3.5920144e+19
-2.0957107e+19
3.8423016e+19
-5.8418793e+19
-6.3468108e+19
3.6536441e+19
4.026462e+19
-5.8473087e+19
-6.0954627e+19
3.5718092e+19
6.6913689e+20
-4.1851579e+19
-7.4847578e+20
6.6266096e+19
-7.1401427e+19
-5.2088119e+19
6.0900511e+19
-3.6203186e+19
4.2100917e+19
3.9966206e+19
-4.3465215e+19
-6.9727919e+20
-6.423041e+19
-4.2778058e+19
-4.11083e+19
4.4066052e+19
3.8897111e+19
-7.6016777e+20
-6.6122335e+19
-7.2775531e+19
-2.250833e+20
2.340655e+20
6.6609113e+20
6.6155835e+20
-2.5133443e+20
7.8326405e+20
7.4415342e+20
-2.6798008e+20
-2.6272034e+20
6.8920955e+20
6.5253452e+20
-4.6580127e+19
-6.9087351e+20
4.2697481e+19
-3.8983303e+19
-4.5960423e+19
3.8656583e+19
-6.809022e+20
-5.7291564e+19
4.4247771e+19
-4.0463154e+19
-4.189348e+19
3.7503298e+19
-4.8755354e+19
-7.1843885e+19
-7.0285652e+19
-7.1786149e+19
5.5383068e+20
1.2392074e+21
3.0854364e+21
2.9429921e+21
2.850871e+21
2.7172972e+21
-2.0426019e+20
7.5484836e+20
7.5824907e+20
-2.5851474e+20
6.7195724e+20
6.5679086e+20
7.7153689e+20
7.2084174e+20
-2.5575131e+20
6.8240807e+20
6.3274425e+20
1.1884974e+21
5.7844444e+20
2.811717e+21
2.7731317e+21
3.0240016e+21
2.9928652e+21
-4.9492967e+19
-6.7462115e+20
-4.4892383e+19
-3.7105057e+19
4.248539e+19
3.9229345e+19
-6.9237754e+20
-5.6451152e+19
4.3975624e+19
-4.0999264e+19
-4.3360792e+19
3.7502331e+19
-5.2375105e+19
-6.9475997e+19
-8.0030929e+19
-7.004935e+19
3.9862381e+19
-6.5861059e+20
4.4066774e+19
-3.8082484e+19
-3.9462668e+19
3.6949406e+19
6.7972717e+20
-5.7388284e+19
-6.7581036e+19
-3.7515042e+19
4.3051671e+19
3.8513485e+19
-4.4779348e+19
-6.9209605e+19
-1.8506068e+20
-4.652494e+18
2.3456773e+20
5.5083767e+18
-8.6107015e+18
-6.6080687e+18
-2.2764942e+20
5.9635825e+18
-1.4055951e+19
1.8529127e+20
-2.3156264e+20
-6.8100116e+18
-1.4835398e+19
-5.0168203e+18
2.3606848e+20
-1.0740215e+19
-1.7348001e+20
-8.4764771e+18
7.7921833e+18
-1.34997e+19
-8.8283792e+18
1.042802e+19
-2.0550406e+20
-2.034614e+19
1.7836891e+20
-1.022606e+19
-2.1369012e+20
-1.8878059e+19
-9.835225e+18
-1.2902683e+19
7.550009e+18
1.7613821e+20
-8.9852727e+18
-2.1209464e+20
-1.7799678e+19
1.773039e+20
-2.1447221e+20
-1.8120792e+19
-6.6925804e+18
2.2856206e+20
-1.3303488e+19
2.2648902e+20
-7.0278349e+18
-1.2638047e+19
-1.8185233e+20
-3.2328422e+18
2.3197654e+20
-1.1602452e+19
-4.0902853e+18
-1.4764642e+19
1.8087006e+20
-4.176957e+18
-1.4185768e+19
2.2884874e+20
-2.5864752e+18
-1.1131979e+19
-1.7819033e+20
-1.1700822e+18
1.9356855e+18
-5.1479189e+18
-1.7285429e+18
-2.2751749e+20
2.207488e+18
-7.8680046e+18
1.7897366e+20
-2.3002332e+20
-1.133573e+18
-1.016813e+19
-9.7058846e+17
-8.4613767e+18
-1.8391411e+20
-2.1147457e+18
3.6640018e+18
-8.3742559e+18
-3.4388778e+18
4.9834341e+18
-8.9087499e+18
1.8452618e+20
-2.5262482e+18
-1.2092991e+19
-2.0967913e+18
-9.8623979e+18
1.4688337e+18
1.8001667e+20
-1.3405403e+18
-1.2001928e+19
1.8198258e+20
-1.1460157e+19
-1.328342e+18
2.271697e+20
-9.4585753e+18
2.2379852e+20
-1.0592218e+18
-9.6343719e+18
-1.7664977e+20
-1.1148074e+18
-9.144343e+18
-4.1055803e+17
-9.7930187e+18
1.7490387e+20
-5.3394326e+17
-1.0122955e+19
-8.1945872e+17
-9.6639629e+18
-1.7880424e+20
-8.2452809e+17
-5.5339456e+18
-1.6908722e+18
-2.2784557e+20
-6.5972615e+18
1.7979835e+20
-2.3105507e+20
-1.7327123e+18
-1.0980725e+19
-1.2215099e+18
-7.7954571e+18
-1.835423e+20
-1.4761711e+18
-8.9807814e+18
-2.0303118e+18
-2.3280399e+20
-1.2604729e+19
1.8540932e+20
-2.7178638e+18
-2.3660786e+20
-1.3459121e+19
-2.2635875e+18
-1.0158491e+19
2.4629003e+18
1.8337558e+20
-2.3254394e+20
-4.1480103e+18
-1.2994302e+19
1.8599107e+20
-2.3690493e+20
-1.1726692e+19
-2.1947718e+18
2.3144923e+20
-6.942899e+18
2.272678e+20
-3.1222035e+18
-9.7595616e+18
-1.7978125e+20
-1.2576147e+18
-9.1954463e+18
-8.8763836e+17
-9.4083603e+18
1.7768258e+20
-1.8261699e+18
-1.022282e+19
-1.3505577e+18
-9.5683123e+18
7.4472607e+18
1.7651708e+20
-9.8749914e+18
-2.1042155e+20
-1.9721929e+19
1.7986431e+20
9.6397657e+18
-2.1576432e+20
-1.907388e+19
-4.7597269e+18
6.6230668e+18
2.3333242e+20
-1.4150199e+19
2.2900671e+20
-6.8457108e+18
-1.4467344e+19
7.9471681e+18
1.8026637e+20
-2.1737799e+20
-1.8608535e+19
1.7868042e+20
-2.1328872e+20
-1.8602282e+19
-5.3803233e+18
2.3076031e+20
-1.3476888e+19
2.3312296e+20
-1.4048211e+19
3.603076e+18
1.86194e+20
-5.0082271e+18
-1.5663626e+19
1.8450654e+20
-1.4744588e+19
-2.3144101e+18
-1.2190958e+19
-3.7654539e+18
-1.26822e+19
-1.8616156e+20
-3.5280177e+18
-1.2176777e+19
-3.4342605e+18
-1.5279852e+19
1.8389891e+20
-4.9790274e+18
-1.5753852e+19
-4.530608e+18
-1.2386957e+19
-1.8700797e+20
-2.8073583e+18
2.3595532e+20
-8.9133065e+18
-4.769363e+18
-2.311839e+20
-1.4107535e+19
1.8586538e+20
-2.3295473e+20
-4.3371961e+18
-1.5539599e+19
-2.3999408e+18
2.3628793e+20
-1.149744e+19
-1.774328e+20
-6.2515608e+18
-1.3634661e+19
-8.2517551e+18
-2.1095287e+20
-1.9659162e+19
1.8016732e+20
-9.1703143e+18
-2.1688455e+20
-1.9102952e+19
-6.3748221e+18
-1.3926536e+19
7.2998324e+18
1.7705838e+20
-9.3349295e+18
-2.1204488e+20
-1.9215033e+19
1.8074013e+20
-2.1693193e+20
-1.884788e+19
-4.3013229e+18
2.3377416e+20
-1.35695e+19
2.2882601e+20
-5.6951508e+18
-1.3895534e+19
-1.8603709e+20
-1.9668221e+18
2.3642232e+20
-1.2024562e+19
-2.5557393e+18
-1.490913e+19
1.8347284e+20
-4.1692216e+18
-1.521172e+19