/*--------------------------------*- C++ -*----------------------------------*\
  =========                 |
  \\      /  F ield         | OpenFOAM: The Open Source CFD Toolbox
   \\    /   O peration     | Website:  https://openfoam.org
    \\  /    A nd           | Version:  7
     \\/     M anipulation  |
\*---------------------------------------------------------------------------*/
FoamFile
{
    version     2.0;
    format      ascii;
    class       volScalarField;
    location    "4000";
    object      pMean;
}
// * * * * * * * * * * * * * * * * * * * * * * * * * * * * * * * * * * * * * //

dimensions      [0 2 -2 0 0 0 0];

internalField   nonuniform List<scalar> 
34158
(
-1.3460221e+48
-1.3470026e+48
-1.3510231e+48
-1.3548846e+48
-1.3332386e+48
-1.3353303e+48
-1.3269747e+48
-1.3265404e+48
-1.2014002e+48
-1.202584e+48
-1.3453536e+48
-1.3411598e+48
-1.3285535e+48
-1.3316724e+48
-1.3351259e+48
-1.313192e+48
-1.3342334e+48
-1.3136274e+48
-1.3053172e+48
-1.3048799e+48
-1.249799e+48
-1.2511309e+48
-1.200875e+48
-1.2014123e+48
-1.1404276e+48
-1.1643484e+48
-1.1674311e+48
-1.1430452e+48
-1.2071915e+48
-1.2276402e+48
-1.2282897e+48
-1.206651e+48
-1.2057638e+48
-1.2273059e+48
-1.1249761e+48
-1.1264665e+48
-1.3395419e+48
-1.3353647e+48
-1.345695e+48
-1.3191783e+48
-1.3414461e+48
-1.3155582e+48
-1.3054969e+48
-1.307471e+48
-1.320014e+48
-1.3180614e+48
-1.3354663e+48
-1.3106416e+48
-1.2944474e+48
-1.3342981e+48
-1.3101142e+48
-1.294996e+48
-1.2782549e+48
-1.2771645e+48
-1.2480425e+48
-1.2464214e+48
-1.2443289e+48
-1.2457653e+48
-1.2114941e+48
-1.2132292e+48
-1.0891504e+48
-1.2013724e+48
-1.1653413e+48
-1.1401089e+48
-1.1397647e+48
-1.1642525e+48
-1.2059056e+48
-1.2253508e+48
-1.2273101e+48
-1.2054821e+48
-1.206135e+48
-1.2275439e+48
-1.2285486e+48
-1.207765e+48
-1.1109653e+48
-1.1892305e+48
-1.1887805e+48
-1.1662672e+48
-1.1649993e+48
-1.1663534e+48
-1.1888623e+48
-1.1133292e+48
-1.2117502e+48
-1.2121156e+48
-1.2203822e+48
-1.2208579e+48
-1.2246883e+48
-1.2242996e+48
-1.231339e+48
-1.2242406e+48
-1.2248215e+48
-1.2312131e+48
-1.2306732e+48
-1.2115195e+48
-1.2209758e+48
-1.2111099e+48
-1.2204037e+48
-1.2108723e+48
-1.2110467e+48
-1.2202461e+48
-1.2206135e+48
-1.230985e+48
-1.224288e+48
-1.2314622e+48
-1.2247735e+48
-1.1215728e+48
-1.1231671e+48
-1.120763e+48
-1.1221266e+48
-1.1651875e+48
-1.1668741e+48
-1.3261688e+48
-1.3221609e+48
-1.3127951e+48
-1.3092971e+48
-1.3222757e+48
-1.3252287e+48
-1.3452638e+48
-1.3177916e+48
-1.2973136e+48
-1.3406007e+48
-1.314222e+48
-1.2949966e+48
-1.277166e+48
-1.277144e+48
-1.2852777e+48
-1.3318137e+48
-1.33119e+48
-1.284877e+48
-1.3305541e+48
-1.3298065e+48
-1.3355053e+48
-1.3101197e+48
-1.2908402e+48
-1.2701225e+48
-1.3343534e+48
-1.3094295e+48
-1.2913239e+48
-1.2708375e+48
-1.2449723e+48
-1.2435968e+48
-1.2412131e+48
-1.242755e+48
-1.2098678e+48
-1.2085626e+48
-1.2452196e+48
-1.2040834e+48
-1.2464806e+48
-1.2064112e+48
-1.3489725e+48
-1.3491311e+48
-1.0805811e+48
-1.0870953e+48
-1.240504e+48
-1.1655597e+48
-1.1393408e+48
-1.2054333e+48
-1.2256136e+48
-1.2257581e+48
-1.2062649e+48
-1.1892679e+48
-1.1672137e+48
-1.164801e+48
-1.1883095e+48
-1.1099191e+48
-1.109234e+48
-1.1883312e+48
-1.1893736e+48
-1.1638578e+48
-1.1664678e+48
-1.2186783e+48
-1.2098688e+48
-1.2097849e+48
-1.2188263e+48
-1.2302479e+48
-1.2238724e+48
-1.2235532e+48
-1.2307286e+48
-1.2309922e+48
-1.2246431e+48
-1.2243322e+48
-1.2305231e+48
-1.2105822e+48
-1.2103884e+48
-1.2202654e+48
-1.2200744e+48
-1.2199999e+48
-1.2112781e+48
-1.2115086e+48
-1.2207961e+48
-1.2240887e+48
-1.2307753e+48
-1.2247947e+48
-1.2316029e+48
-1.2246638e+48
-1.2249507e+48
-1.231241e+48
-1.2122823e+48
-1.2214245e+48
-1.2209083e+48
-1.2130643e+48
-1.0993072e+48
-1.1606091e+48
-1.1586351e+48
-1.2061725e+48
-1.2062103e+48
-1.2040792e+48
-1.2009474e+48
-1.2057408e+48
-1.199953e+48
-1.2014158e+48
-1.2049257e+48
-1.1594588e+48
-1.2047343e+48
-1.2047021e+48
-1.2013053e+48
-1.2001864e+48
-1.101073e+48
-1.2169932e+48
-1.217638e+48
-1.2181021e+48
-1.2185518e+48
-1.2178126e+48
-1.217057e+48
-1.2187269e+48
-1.2173725e+48
-1.2173777e+48
-1.2196765e+48
-1.2204411e+48
-1.2185075e+48
-1.2182774e+48
-1.2204797e+48
-1.2201757e+48
-1.2182254e+48
-1.2256503e+48
-1.2259537e+48
-1.229577e+48
-1.2294156e+48
-1.2258742e+48
-1.2255403e+48
-1.2293039e+48
-1.2295982e+48
-1.2343156e+48
-1.2342003e+48
-1.2343004e+48
-1.2373219e+48
-1.2373571e+48
-1.2254531e+48
-1.2253195e+48
-1.2289752e+48
-1.2291243e+48
-1.2256589e+48
-1.2255984e+48
-1.2291746e+48
-1.2290634e+48
-1.2372319e+48
-1.2341693e+48
-1.2340369e+48
-1.2370066e+48
-1.2370502e+48
-1.2340495e+48
-1.234119e+48
-1.237164e+48
-1.2174198e+48
-1.2169908e+48
-1.2183093e+48
-1.2191012e+48
-1.2183922e+48
-1.2203071e+48
-1.2204975e+48
-1.2188795e+48
-1.21962e+48
-1.2178261e+48
-1.2167429e+48
-1.2181714e+48
-1.2182261e+48
-1.2190031e+48
-1.2203587e+48
-1.2200953e+48
-1.2161469e+48
-1.2167946e+48
-1.2183216e+48
-1.2174545e+48
-1.2170098e+48
-1.2165724e+48
-1.2176646e+48
-1.218624e+48
-1.2199123e+48
-1.2178908e+48
-1.2186676e+48
-1.2206168e+48
-1.2181812e+48
-1.2183749e+48
-1.2205539e+48
-1.220411e+48
-1.2371957e+48
-1.2342588e+48
-1.2342529e+48
-1.2371478e+48
-1.2292155e+48
-1.225339e+48
-1.2257776e+48
-1.2293184e+48
-1.2370204e+48
-1.2342769e+48
-1.2342103e+48
-1.2371579e+48
-1.2292625e+48
-1.2257395e+48
-1.2257889e+48
-1.2293198e+48
-1.1075497e+48
-1.1192846e+48
-1.1199797e+48
-1.1171068e+48
-1.1187513e+48
-1.1621689e+48
-1.1635803e+48
-1.1241274e+48
-1.1584562e+48
-1.1255983e+48
-1.1607007e+48
-1.3150076e+48
-1.3170091e+48
-1.3248296e+48
-1.3023574e+48
-1.3214292e+48
-1.2995021e+48
-1.2800546e+48
-1.2783168e+48
-1.2866819e+48
-1.3351248e+48
-1.3325555e+48
-1.2882221e+48
-1.3374203e+48
-1.3378456e+48
-1.3452275e+48
-1.3171315e+48
-1.2944341e+48
-1.2701893e+48
-1.3405555e+48
-1.3139169e+48
-1.2921963e+48
-1.2696109e+48
-1.2433396e+48
-1.2426842e+48
-1.2448081e+48
-1.2878208e+48
-1.2884108e+48
-1.3109932e+48
-1.3105876e+48
-1.2450587e+48
-1.287951e+48
-1.2872763e+48
-1.3095085e+48
-1.3101313e+48
-1.3101322e+48
-1.2899481e+48
-1.269546e+48
-1.2380797e+48
-1.3094549e+48
-1.2907275e+48
-1.2701512e+48
-1.2394841e+48
-1.2072807e+48
-1.2060964e+48
-1.2422653e+48
-1.2015502e+48
-1.2437853e+48
-1.2030235e+48
-1.2454167e+48
-1.2050747e+48
-1.2462401e+48
-1.2070783e+48
-1.3285146e+48
-1.3286266e+48
-1.3525677e+48
-1.3503087e+48
-1.329604e+48
-1.3607487e+48
-1.3605233e+48
-1.367174e+48
-1.3674452e+48
-1.3294047e+48
-1.3604473e+48
-1.3598894e+48
-1.3555851e+48
-1.3544339e+48
-1.1075845e+48
-1.1060162e+48
-1.0788258e+48
-1.0853824e+48
-1.2406745e+48
-1.2461488e+48
-1.2429179e+48
-1.2460167e+48
-1.2430095e+48
-1.2429083e+48
-1.2427635e+48
-1.2410715e+48
-1.2410962e+48
-1.1888137e+48
-1.1894544e+48
-1.1642451e+48
-1.1673449e+48
-1.1085382e+48
-1.2082166e+48
-1.2088685e+48
-1.208704e+48
-1.2178983e+48
-1.2183967e+48
-1.2231076e+48
-1.2235471e+48
-1.2305252e+48
-1.2309662e+48
-1.2237163e+48
-1.223367e+48
-1.2308199e+48
-1.230129e+48
-1.2100007e+48
-1.209501e+48
-1.2186687e+48
-1.2182891e+48
-1.2029445e+48
-1.2031406e+48
-1.2041287e+48
-1.2005202e+48
-1.1597293e+48
-1.157524e+48
-1.2041002e+48
-1.2041484e+48
-1.1993381e+48
-1.2010103e+48
-1.0984474e+48
-1.1575645e+48
-1.1605843e+48
-1.0972542e+48
-1.2047032e+48
-1.2056653e+48
-1.2010086e+48
-1.2001317e+48
-1.2064549e+48
-1.2008244e+48
-1.2062389e+48
-1.2044127e+48
-1.218204e+48
-1.2165609e+48
-1.2172468e+48
-1.2194655e+48
-1.2160993e+48
-1.2151754e+48
-1.2161074e+48
-1.2172506e+48
-1.2146115e+48
-1.2152521e+48
-1.2168734e+48
-1.2165578e+48
-1.2198227e+48
-1.2178118e+48
-1.2177951e+48
-1.2197844e+48
-1.2368567e+48
-1.2337093e+48
-1.233976e+48
-1.2370802e+48
-1.2289509e+48
-1.224828e+48
-1.225539e+48
-1.2293208e+48
-1.2255211e+48
-1.2256026e+48
-1.2292131e+48
-1.2291079e+48
-1.2370979e+48
-1.2340051e+48
-1.2340943e+48
-1.2371367e+48
-1.236982e+48
-1.2341469e+48
-1.2339689e+48
-1.2367222e+48
-1.228875e+48
-1.2253837e+48
-1.2254974e+48
-1.2289856e+48
-1.2253369e+48
-1.2254886e+48
-1.2289399e+48
-1.2289024e+48
-1.2367235e+48
-1.2338384e+48
-1.2338553e+48
-1.2369391e+48
-1.2161144e+48
-1.216768e+48
-1.2182864e+48
-1.2174791e+48
-1.2162935e+48
-1.215672e+48
-1.217219e+48
-1.2181559e+48
-1.2183436e+48
-1.2177166e+48
-1.2199395e+48
-1.2203253e+48
-1.2201566e+48
-1.2183449e+48
-1.2179087e+48
-1.2197068e+48
-1.2186919e+48
-1.2174648e+48
-1.2182745e+48
-1.2199389e+48
-1.2177245e+48
-1.2164341e+48
-1.217141e+48
-1.2188168e+48
-1.2170489e+48
-1.2172054e+48
-1.218715e+48
-1.2183791e+48
-1.2203359e+48
-1.2184641e+48
-1.2183897e+48
-1.2203296e+48
-1.2290138e+48
-1.2251853e+48
-1.2293062e+48
-1.2259112e+48
-1.2369881e+48
-1.2338242e+48
-1.2341531e+48
-1.2371738e+48
-1.2257946e+48
-1.2295113e+48
-1.229377e+48
-1.2257946e+48
-1.2342922e+48
-1.2342444e+48
-1.2372141e+48
-1.2257817e+48
-1.2259509e+48
-1.2291534e+48
-1.2293115e+48
-1.2260116e+48
-1.2258204e+48
-1.2292016e+48
-1.2293464e+48
-1.2341232e+48
-1.2340714e+48
-1.2185464e+48
-1.2175302e+48
-1.2186696e+48
-1.2192769e+48
-1.2186703e+48
-1.2204327e+48
-1.2185084e+48
-1.2206482e+48
-1.219798e+48
-1.2179299e+48
-1.217669e+48
-1.2195067e+48
-1.2188228e+48
-1.2189874e+48
-1.2174554e+48
-1.217853e+48
-1.152191e+48
-1.1491719e+48
-1.1529969e+48
-1.1501538e+48
-1.2109492e+48
-1.2074691e+48
-1.2066657e+48
-1.2078043e+48
-1.2130807e+48
-1.2212332e+48
-1.2191541e+48
-1.2138466e+48
-1.2135249e+48
-1.2179716e+48
-1.2192942e+48
-1.2128987e+48
-1.2173108e+48
-1.2189344e+48
-1.2128948e+48
-1.2131585e+48
-1.2190157e+48
-1.2171891e+48
-1.2133144e+48
-1.2125659e+48
-1.1506581e+48
-1.2075224e+48
-1.205852e+48
-1.212444e+48
-1.2187913e+48
-1.2165924e+48
-1.212737e+48
-1.2124316e+48
-1.2159164e+48
-1.2170417e+48
-1.2117941e+48
-1.1552665e+48
-1.1496005e+48
-1.1537087e+48
-1.2245294e+48
-1.2248085e+48
-1.2261817e+48
-1.226326e+48
-1.2250246e+48
-1.2242022e+48
-1.2264235e+48
-1.2256463e+48
-1.2228538e+48
-1.2233891e+48
-1.2236026e+48
-1.2234438e+48
-1.2234976e+48
-1.2237614e+48
-1.223692e+48
-1.2235286e+48
-1.2275924e+48
-1.2276124e+48
-1.2312465e+48
-1.231217e+48
-1.2276163e+48
-1.2274944e+48
-1.2312873e+48
-1.231269e+48
-1.2352532e+48
-1.2352118e+48
-1.2352573e+48
-1.2389544e+48
-1.2388813e+48
-1.2272569e+48
-1.2271604e+48
-1.2309525e+48
-1.2310427e+48
-1.2272524e+48
-1.227461e+48
-1.2312064e+48
-1.2311551e+48
-1.2387598e+48
-1.2352092e+48
-1.2352466e+48
-1.2385809e+48
-1.238605e+48
-1.2351256e+48
-1.2351537e+48
-1.2386739e+48
-1.2248394e+48
-1.2243942e+48
-1.2261895e+48
-1.2266414e+48
-1.2234981e+48
-1.2237532e+48
-1.2236083e+48
-1.2237202e+48
-1.2266152e+48
-1.224869e+48
-1.224382e+48
-1.2261257e+48
-1.2233467e+48
-1.2239995e+48
-1.2236572e+48
-1.223493e+48
-1.2239974e+48
-1.2241237e+48
-1.2259888e+48
-1.2257444e+48
-1.2243418e+48
-1.2238548e+48
-1.2255889e+48
-1.2261546e+48
-1.2234861e+48
-1.2231032e+48
-1.2234972e+48
-1.2237324e+48
-1.2233944e+48
-1.2234554e+48
-1.2237547e+48
-1.2238286e+48
-1.2387506e+48
-1.2352019e+48
-1.235103e+48
-1.2387062e+48
-1.2310518e+48
-1.2274084e+48
-1.2274429e+48
-1.2310602e+48
-1.2387247e+48
-1.2350828e+48
-1.2350871e+48
-1.2310443e+48
-1.2274483e+48
-1.2275504e+48
-1.2311628e+48
-1.1058482e+48
-1.1196436e+48
-1.1188974e+48
-1.1218635e+48
-1.1231205e+48
-1.1302349e+48
-1.1163327e+48
-1.1170876e+48
-1.1311721e+48
-1.1145878e+48
-1.1153178e+48
-1.1595496e+48
-1.1604345e+48
-1.1206189e+48
-1.1555549e+48
-1.1226031e+48
-1.157259e+48
-1.1611427e+48
-1.1263379e+48
-1.1271942e+48
-1.1632732e+48
-1.3068102e+48
-1.3050809e+48
-1.2818164e+48
-1.2830071e+48
-1.2900644e+48
-1.2916017e+48
-1.3241734e+48
-1.2997535e+48
-1.2729039e+48
-1.3212312e+48
-1.2970962e+48
-1.2712122e+48
-1.243674e+48
-1.2431619e+48
-1.2453193e+48
-1.2894383e+48
-1.2896553e+48
-1.3129414e+48
-1.3120384e+48
-1.2457749e+48
-1.2909805e+48
-1.3146489e+48
-1.3145909e+48
-1.2909614e+48
-1.3170634e+48
-1.2936141e+48
-1.2702245e+48
-1.2369225e+48
-1.3138855e+48
-1.2914884e+48
-1.2696884e+48
-1.2373694e+48
-1.2061013e+48
-1.2058699e+48
-1.2052511e+48
-1.2646186e+48
-1.2465206e+48
-1.2465312e+48
-1.2646587e+48
-1.3039848e+48
-1.3047378e+48
-1.205211e+48
-1.2648582e+48
-1.2466935e+48
-1.2457318e+48
-1.2642943e+48
-1.304143e+48
-1.3034224e+48
-1.289883e+48
-1.2692487e+48
-1.238995e+48
-1.1980187e+48
-1.2906773e+48
-1.270032e+48
-1.2401175e+48
-1.2001814e+48
-1.2425766e+48
-1.202712e+48
-1.2440354e+48
-1.204313e+48
-1.2453963e+48
-1.20501e+48
-1.246218e+48
-1.207255e+48
-1.3363939e+48
-1.3360668e+48
-1.3470908e+48
-1.3472289e+48
-1.3664217e+48
-1.3665955e+48
-1.3667142e+48
-1.3667368e+48
-1.3365354e+48
-1.3473798e+48
-1.3475399e+48
-1.3370515e+48
-1.3663346e+48
-1.366451e+48
-1.331825e+48
-1.3640389e+48
-1.363545e+48
-1.3702245e+48
-1.3707728e+48
-1.330652e+48
-1.3622768e+48
-1.3615424e+48
-1.368196e+48
-1.3691831e+48
-1.3486646e+48
-1.3378528e+48
-1.3377639e+48
-1.3486278e+48
-1.3684399e+48
-1.3716588e+48
-1.3718951e+48
-1.3684742e+48
-1.368295e+48
-1.3717426e+48
-1.3711312e+48
-1.3679819e+48
-1.3800769e+48
-1.3769122e+48
-1.3764203e+48
-1.3769497e+48
-1.3803025e+48
-1.3800829e+48
-1.3771052e+48
-1.3376883e+48
-1.3369019e+48
-1.3479321e+48
-1.3485339e+48
-1.3677389e+48
-1.370967e+48
-1.3676426e+48
-1.3674122e+48
-1.3671046e+48
-1.3342788e+48
-1.3672776e+48
-1.3667936e+48
-1.3334751e+48
-1.3649342e+48
-1.3659984e+48
-1.3715941e+48
-1.3726348e+48
-1.1590346e+48
-1.157761e+48
-1.1602912e+48
-1.1616701e+48
-1.1050836e+48
-1.1587559e+48
-1.15779e+48
-1.1586055e+48
-1.1604899e+48
-1.077348e+48
-1.1037451e+48
-1.2430397e+48
-1.2430625e+48
-1.2463686e+48
-1.2462696e+48
-1.2473382e+48
-1.2431754e+48
-1.2430052e+48
-1.2430235e+48
-1.242915e+48
-1.246512e+48
-1.2432011e+48
-1.2431589e+48
-1.2464247e+48
-1.24354e+48
-1.2434049e+48
-1.2435117e+48
-1.2467673e+48
-1.246748e+48
-1.0957567e+48
-1.2012256e+48
-1.199369e+48
-1.2022451e+48
-1.2031913e+48
-1.2001709e+48
-1.1998229e+48
-1.2037972e+48
-1.203711e+48
-1.2004419e+48
-1.2033882e+48
-1.1565311e+48
-1.1596664e+48
-1.096455e+48
-1.2134144e+48
-1.2143227e+48
-1.2167702e+48
-1.2158413e+48
-1.2178776e+48
-1.219864e+48
-1.2134882e+48
-1.2137609e+48
-1.2152576e+48
-1.2153791e+48
-1.2132266e+48
-1.2132118e+48
-1.2145835e+48
-1.2157919e+48
-1.2177897e+48
-1.2167241e+48
-1.2196637e+48
-1.2202523e+48
-1.2200533e+48
-1.2172402e+48
-1.2175257e+48
-1.2199992e+48
-1.2295001e+48
-1.2257633e+48
-1.2259766e+48
-1.2295542e+48
-1.2258476e+48
-1.2259175e+48
-1.2296064e+48
-1.2293662e+48
-1.2346967e+48
-1.2377897e+48
-1.2377108e+48
-1.2346023e+48
-1.2344854e+48
-1.2377237e+48
-1.229074e+48
-1.2258911e+48
-1.225847e+48
-1.2291737e+48
-1.2253331e+48
-1.2258051e+48
-1.2291246e+48
-1.2289135e+48
-1.2343106e+48
-1.2343161e+48
-1.2376582e+48
-1.237371e+48
-1.2372015e+48
-1.2341951e+48
-1.2340187e+48
-1.2371601e+48
-1.214397e+48
-1.215289e+48
-1.2154946e+48
-1.2152249e+48
-1.2143021e+48
-1.2140448e+48
-1.2149214e+48
-1.2160138e+48
-1.2197619e+48
-1.2169451e+48
-1.2177459e+48
-1.2201186e+48
-1.219842e+48
-1.2171638e+48
-1.2169419e+48
-1.219179e+48
-1.2088779e+48
-1.2179112e+48
-1.2107581e+48
-1.2117425e+48
-1.2162377e+48
-1.2170231e+48
-1.2153612e+48
-1.2111255e+48
-1.210562e+48
-1.2060728e+48
-1.151624e+48
-1.1486722e+48
-1.205579e+48
-1.2072203e+48
-1.211215e+48
-1.2171144e+48
-1.2159387e+48
-1.2118077e+48
-1.2122122e+48
-1.2161873e+48
-1.2183124e+48
-1.2116748e+48
-1.1477946e+48
-1.1519155e+48
-1.1488966e+48
-1.1530467e+48
-1.2074698e+48
-1.2065905e+48
-1.2075691e+48
-1.2111557e+48
-1.1505612e+48
-1.1475807e+48
-1.2169965e+48
-1.2183929e+48
-1.2118125e+48
-1.2126174e+48
-1.2127249e+48
-1.2169088e+48
-1.218957e+48
-1.2128242e+48
-1.2143189e+48
-1.2192441e+48
-1.2214107e+48
-1.2132719e+48
-1.2192968e+48
-1.2131486e+48
-1.2139756e+48
-1.2183638e+48
-1.222417e+48
-1.22175e+48
-1.2223298e+48
-1.2228834e+48
-1.2244856e+48
-1.2228354e+48
-1.2234222e+48
-1.2250863e+48
-1.223033e+48
-1.2231371e+48
-1.2252174e+48
-1.2252024e+48
-1.2231292e+48
-1.2228448e+48
-1.2229244e+48
-1.2232556e+48
-1.2385955e+48
-1.2348102e+48
-1.2346483e+48
-1.2384826e+48
-1.2308031e+48
-1.2274237e+48
-1.2271238e+48
-1.2306329e+48
-1.2271357e+48
-1.2271795e+48
-1.230728e+48
-1.2307652e+48
-1.2385294e+48
-1.2347526e+48
-1.2348664e+48
-1.2385123e+48
-1.2385781e+48
-1.2351997e+48
-1.2348318e+48
-1.2384385e+48
-1.23083e+48
-1.2271482e+48
-1.2271726e+48
-1.2308384e+48
-1.2272326e+48
-1.2271426e+48
-1.2310084e+48
-1.2308369e+48
-1.2383867e+48
-1.2350049e+48
-1.2348529e+48
-1.2384447e+48
-1.2237812e+48
-1.2238834e+48
-1.2258928e+48
-1.2257059e+48
-1.2236991e+48
-1.2231669e+48
-1.2252886e+48
-1.2259422e+48
-1.2232524e+48
-1.222884e+48
-1.2233928e+48
-1.2234626e+48
-1.2233602e+48
-1.2232108e+48
-1.2229807e+48
-1.223294e+48
-1.2229408e+48
-1.2225927e+48
-1.2233302e+48
-1.2235937e+48
-1.2254827e+48
-1.2236824e+48
-1.2242924e+48
-1.226345e+48
-1.2245127e+48
-1.2242267e+48
-1.2263375e+48
-1.226502e+48
-1.2237098e+48
-1.2235534e+48
-1.2236044e+48
-1.2238542e+48
-1.2309728e+48
-1.227691e+48
-1.2308578e+48
-1.2275425e+48
-1.2386195e+48
-1.2350051e+48
-1.2349793e+48
-1.2386227e+48
-1.2275741e+48
-1.2311301e+48
-1.2312378e+48
-1.2276321e+48
-1.23522e+48
-1.2350925e+48
-1.2387567e+48
-1.2276321e+48
-1.2280439e+48
-1.2313348e+48
-1.2314644e+48
-1.2277305e+48
-1.2276308e+48
-1.2314403e+48
-1.231217e+48
-1.2351123e+48
-1.23537e+48
-1.2254514e+48
-1.2248199e+48
-1.2266395e+48
-1.2268937e+48
-1.2238366e+48
-1.2238878e+48
-1.2236753e+48
-1.2239868e+48
-1.2235666e+48
-1.2232455e+48
-1.2230773e+48
-1.2236475e+48
-1.2262614e+48
-1.2256553e+48
-1.2251628e+48
-1.2260537e+48
-1.1886977e+48
-1.1913889e+48
-1.1936004e+48
-1.1904939e+48
-1.1883783e+48
-1.1873632e+48
-1.189731e+48
-1.1905948e+48
-1.1895469e+48
-1.1929787e+48
-1.2005184e+48
-1.197001e+48
-1.1901379e+48
-1.1887227e+48
-1.196102e+48
-1.197566e+48
-1.2245264e+48
-1.2228019e+48
-1.2222543e+48
-1.2229657e+48
-1.2228959e+48
-1.2213822e+48
-1.2212698e+48
-1.2226732e+48
-1.2172826e+48
-1.2172014e+48
-1.2171983e+48
-1.2168869e+48
-1.2168697e+48
-1.2167066e+48
-1.2168045e+48
-1.2167922e+48
-1.1899997e+48
-1.1883879e+48
-1.1972665e+48
-1.1956414e+48
-1.2226144e+48
-1.220875e+48
-1.2205134e+48
-1.2215442e+48
-1.2166276e+48
-1.2164345e+48
-1.2164277e+48
-1.2165981e+48
-1.1964192e+48
-1.1890361e+48
-1.1883032e+48
-1.1876598e+48
-1.1896415e+48
-1.1907242e+48
-1.1886576e+48
-1.1920376e+48
-1.193542e+48
-1.1902623e+48
-1.2292606e+48
-1.2327736e+48
-1.232078e+48
-1.2285086e+48
-1.2297359e+48
-1.2327919e+48
-1.2326371e+48
-1.2294509e+48
-1.2290526e+48
-1.2334208e+48
-1.2330079e+48
-1.2287675e+48
-1.2290882e+48
-1.2335573e+48
-1.2333249e+48
-1.2292231e+48
-1.2326026e+48
-1.2305023e+48
-1.2329107e+48
-1.2301961e+48
-1.233005e+48
-1.2293579e+48
-1.2323069e+48
-1.2304108e+48
-1.233717e+48
-1.2333405e+48
-1.2289929e+48
-1.2291159e+48
-1.2337536e+48
-1.2286441e+48
-1.2285249e+48
-1.2337539e+48
-1.2268724e+48
-1.2268006e+48
-1.2264657e+48
-1.2266338e+48
-1.2278242e+48
-1.2277347e+48
-1.2283742e+48
-1.2284783e+48
-1.2277965e+48
-1.2278469e+48
-1.2285133e+48
-1.228379e+48
-1.2272938e+48
-1.2272588e+48
-1.2267855e+48
-1.2267956e+48
-1.2267021e+48
-1.2273003e+48
-1.2274045e+48
-1.2269079e+48
-1.2278403e+48
-1.2277281e+48
-1.2284033e+48
-1.2284125e+48
-1.2276601e+48
-1.2277395e+48
-1.2283096e+48
-1.2282145e+48
-1.2271941e+48
-1.2273858e+48
-1.226844e+48
-1.2267218e+48
-1.2302937e+48
-1.2304084e+48
-1.2312508e+48
-1.2311273e+48
-1.230407e+48
-1.2303884e+48
-1.2312631e+48
-1.2312635e+48
-1.234439e+48
-1.2333829e+48
-1.233369e+48
-1.2344092e+48
-1.2343592e+48
-1.233315e+48
-1.2332292e+48
-1.2342269e+48
-1.2304512e+48
-1.2305844e+48
-1.2314289e+48
-1.2312919e+48
-1.2312393e+48
-1.230368e+48
-1.2304913e+48
-1.2313361e+48
-1.2343824e+48
-1.2334033e+48
-1.2334478e+48
-1.2344656e+48
-1.2345508e+48
-1.2334791e+48
-1.2333633e+48
-1.2344392e+48
-1.2366683e+48
-1.2367622e+48
-1.2379911e+48
-1.2378856e+48
-1.2364428e+48
-1.2366005e+48
-1.2378221e+48
-1.2376403e+48
-1.2378822e+48
-1.236684e+48
-1.2366502e+48
-1.2378483e+48
-1.2414915e+48
-1.2401463e+48
-1.2400955e+48
-1.2414475e+48
-1.2414173e+48
-1.2400601e+48
-1.2399066e+48
-1.2412487e+48
-1.230119e+48
-1.2301277e+48
-1.2310182e+48
-1.2309606e+48
-1.2301439e+48
-1.2300936e+48
-1.2309606e+48
-1.2310341e+48
-1.2341782e+48
-1.2332085e+48
-1.2332651e+48
-1.2342622e+48
-1.2342251e+48
-1.233229e+48
-1.2331735e+48
-1.234183e+48
-1.2301526e+48
-1.2302269e+48
-1.2310354e+48
-1.2309271e+48
-1.2310456e+48
-1.2302413e+48
-1.2302108e+48
-1.2310705e+48
-1.2342709e+48
-1.233281e+48
-1.2332521e+48
-1.2341769e+48
-1.2342188e+48
-1.2333334e+48
-1.2332727e+48
-1.2341718e+48
-1.2411649e+48
-1.2398638e+48
-1.2397414e+48
-1.2410805e+48
-1.2376081e+48
-1.2364065e+48
-1.2363243e+48
-1.2374946e+48
-1.2362362e+48
-1.2362676e+48
-1.2375068e+48
-1.2374127e+48
-1.241083e+48
-1.2396878e+48
-1.2396197e+48
-1.2409897e+48
-1.2409595e+48
-1.2396749e+48
-1.2397244e+48
-1.2410253e+48
-1.2374729e+48
-1.2363251e+48
-1.2364238e+48
-1.237549e+48
-1.2363962e+48
-1.236415e+48
-1.2375648e+48
-1.2375029e+48
-1.2410215e+48
-1.2397185e+48
-1.2396811e+48
-1.2409548e+48
-1.228656e+48
-1.2325299e+48
-1.2322666e+48
-1.2287301e+48
-1.228622e+48
-1.2317508e+48
-1.2326197e+48
-1.2288239e+48
-1.2287353e+48
-1.2329006e+48
-1.2332318e+48
-1.2288213e+48
-1.2291604e+48
-1.2334166e+48
-1.2332643e+48
-1.2291018e+48
-1.2267049e+48
-1.2272675e+48
-1.2273654e+48
-1.2268431e+48
-1.2277067e+48
-1.2276716e+48
-1.2282901e+48
-1.2282373e+48
-1.2276924e+48
-1.2277101e+48
-1.2282124e+48
-1.2281348e+48
-1.2275166e+48
-1.2275136e+48
-1.2269346e+48
-1.2269203e+48
-1.2286705e+48
-1.2334748e+48
-1.2332511e+48
-1.2285952e+48
-1.2290407e+48
-1.2326765e+48
-1.2325656e+48
-1.2289021e+48
-1.2287136e+48
-1.2321116e+48
-1.2312173e+48
-1.227923e+48
-1.2323285e+48
-1.2287164e+48
-1.23301e+48
-1.2281813e+48
-1.226865e+48
-1.2272545e+48
-1.2267496e+48
-1.2264961e+48
-1.2269176e+48
-1.2275301e+48
-1.2274858e+48
-1.2269805e+48
-1.2277174e+48
-1.2276111e+48
-1.2281824e+48
-1.2282139e+48
-1.227539e+48
-1.2276146e+48
-1.2281675e+48
-1.2281248e+48
-1.230859e+48
-1.2273861e+48
-1.2269944e+48
-1.2313854e+48
-1.2281733e+48
-1.2277184e+48
-1.2317353e+48
-1.2315534e+48
-1.2325561e+48
-1.2286604e+48
-1.2326524e+48
-1.2287795e+48
-1.2284892e+48
-1.2322574e+48
-1.2320996e+48
-1.2283952e+48
-1.2287068e+48
-1.2320815e+48
-1.2317164e+48
-1.2285688e+48
-1.2281982e+48
-1.2287618e+48
-1.2311317e+48
-1.2317203e+48
-1.2281317e+48
-1.2323695e+48
-1.2325538e+48
-1.2284326e+48
-1.2325233e+48
-1.2328253e+48
-1.2286316e+48
-1.2286907e+48
-1.2275225e+48
-1.2274444e+48
-1.2280868e+48
-1.2281407e+48
-1.2263536e+48
-1.2268558e+48
-1.227033e+48
-1.2265177e+48
-1.2265806e+48
-1.2271269e+48
-1.2271405e+48
-1.2266772e+48
-1.2276254e+48
-1.2275933e+48
-1.2282509e+48
-1.2281649e+48
-1.2269841e+48
-1.2270623e+48
-1.226587e+48
-1.2265679e+48
-1.2272228e+48
-1.2270825e+48
-1.2265815e+48
-1.2266863e+48
-1.2275964e+48
-1.2275068e+48
-1.2281023e+48
-1.2281753e+48
-1.2275736e+48
-1.2275267e+48
-1.2281274e+48
-1.2281313e+48
-1.2408925e+48
-1.2396602e+48
-1.2396898e+48
-1.2409046e+48
-1.2374919e+48
-1.236449e+48
-1.2364877e+48
-1.2375194e+48
-1.2364781e+48
-1.2365005e+48
-1.2376093e+48
-1.2375977e+48
-1.2410475e+48
-1.2397996e+48
-1.239795e+48
-1.2410143e+48
-1.2341255e+48
-1.2331344e+48
-1.233117e+48
-1.2341706e+48
-1.2310238e+48
-1.2302114e+48
-1.2301933e+48
-1.2310276e+48
-1.2301402e+48
-1.2301922e+48
-1.231093e+48
-1.231034e+48
-1.2342828e+48
-1.2331969e+48
-1.2331686e+48
-1.2342345e+48
-1.2409337e+48
-1.2397764e+48
-1.2398031e+48
-1.2409755e+48
-1.2375293e+48
-1.2364703e+48
-1.2364467e+48
-1.2375254e+48
-1.2362628e+48
-1.2363431e+48
-1.2374951e+48
-1.2374376e+48
-1.2341624e+48
-1.2331262e+48
-1.2331551e+48
-1.2341835e+48
-1.2301444e+48
-1.2300837e+48
-1.2310061e+48
-1.2310454e+48
-1.2301441e+48
-1.2301086e+48
-1.2310126e+48
-1.2309784e+48
-1.2341386e+48
-1.2331145e+48
-1.2331201e+48
-1.23407e+48
-1.1043124e+48
-1.1204639e+48
-1.1167664e+48
-1.1177552e+48
-1.1214708e+48
-1.1284227e+48
-1.1145975e+48
-1.1152202e+48
-1.129253e+48
-1.1144979e+48
-1.1138029e+48
-1.1088805e+48
-1.1121248e+48
-1.1105318e+48
-1.1129643e+48
-1.1684685e+48
-1.1578944e+48
-1.1581755e+48
-1.1685992e+48
-1.117777e+48
-1.1519608e+48
-1.119153e+48
-1.1538875e+48
-1.123092e+48
-1.158595e+48
-1.1603356e+48
-1.1250931e+48
-1.1619355e+48
-1.1264904e+48
-1.1273169e+48
-1.1639588e+48
-1.3041355e+48
-1.2752652e+48
-1.3027134e+48
-1.2743151e+48
-1.244754e+48
-1.244979e+48
-1.2470509e+48
-1.2918622e+48
-1.2932774e+48
-1.3170016e+48
-1.3158838e+48
-1.2475159e+48
-1.2947049e+48
-1.3184051e+48
-1.318319e+48
-1.2944053e+48
-1.3241137e+48
-1.2991684e+48
-1.2729729e+48
-1.2375896e+48
-1.3211927e+48
-1.2965516e+48
-1.2711863e+48
-1.236764e+48
-1.2058884e+48
-1.2057409e+48
-1.2051531e+48
-1.2467024e+48
-1.2658937e+48
-1.2652902e+48
-1.2470467e+48
-1.3059123e+48
-1.3058891e+48
-1.2052351e+48
-1.2467368e+48
-1.24712e+48
-1.2666486e+48
-1.2666419e+48
-1.3073137e+48
-1.3069984e+48
-1.2935406e+48
-1.2698773e+48
-1.2380732e+48
-1.1974906e+48
-1.2914252e+48
-1.2691805e+48
-1.2386982e+48
-1.1982223e+48
-1.2272363e+48
-1.2266959e+48
-1.2011868e+48
-1.2014121e+48
-1.274434e+48
-1.2494632e+48
-1.2490584e+48
-1.274024e+48
-1.308553e+48
-1.3086661e+48
-1.3229283e+48
-1.3224216e+48
-1.3091801e+48
-1.3086569e+48
-1.3230828e+48
-1.323124e+48
-1.2266522e+48
-1.226768e+48
-1.2017624e+48
-1.2009644e+48
-1.2739418e+48
-1.2491227e+48
-1.2485589e+48
-1.2738521e+48
-1.3082355e+48
-1.3083107e+48
-1.3219705e+48
-1.3221208e+48
-1.3082839e+48
-1.3080672e+48
-1.3223527e+48
-1.3222369e+48
-1.26918e+48
-1.2388831e+48
-1.1989009e+48
-1.2699886e+48
-1.2395466e+48
-1.2012784e+48
-1.2425462e+48
-1.2028754e+48
-1.2440117e+48
-1.204174e+48
-1.2049957e+48
-1.2072522e+48
-1.3410808e+48
-1.3467462e+48
-1.3466844e+48
-1.341185e+48
-1.3466735e+48
-1.3411916e+48
-1.3410477e+48
-1.3467116e+48
-1.3540749e+48
-1.3539974e+48
-1.3593875e+48
-1.359484e+48
-1.3540409e+48
-1.3539883e+48
-1.3591962e+48
-1.3593912e+48
-1.3706521e+48
-1.3709875e+48
-1.3689072e+48
-1.3686907e+48
-1.3710191e+48
-1.3708326e+48
-1.3688313e+48
-1.3689707e+48
-1.3690306e+48
-1.3691772e+48
-1.3713162e+48
-1.3710758e+48
-1.3691225e+48
-1.3708995e+48
-1.3712818e+48
-1.3688827e+48
-1.3411848e+48
-1.3413643e+48
-1.3469453e+48
-1.3466894e+48
-1.359163e+48
-1.3539515e+48
-1.3541467e+48
-1.3593871e+48
-1.3593552e+48
-1.3543258e+48
-1.3415868e+48
-1.3417212e+48
-1.347155e+48
-1.3471427e+48
-1.3688128e+48
-1.3685833e+48
-1.3705687e+48
-1.3708673e+48
-1.3688384e+48
-1.3708849e+48
-1.3706037e+48
-1.3686778e+48
-1.3405072e+48
-1.3517732e+48
-1.3512443e+48
-1.3400522e+48
-1.3717036e+48
-1.3750223e+48
-1.3749323e+48
-1.37148e+48
-1.3705161e+48
-1.3710118e+48
-1.3745379e+48
-1.3738551e+48
-1.3791693e+48
-1.3797236e+48
-1.382353e+48
-1.3830404e+48
-1.3835074e+48
-1.3835219e+48
-1.3803162e+48
-1.380201e+48
-1.3386956e+48
-1.3500091e+48
-1.349248e+48
-1.3383626e+48
-1.3700597e+48
-1.3733634e+48
-1.3732913e+48
-1.3698757e+48
-1.3694048e+48
-1.3728883e+48
-1.3721013e+48
-1.3689147e+48
-1.3773869e+48
-1.3780763e+48
-1.3813963e+48
-1.3805254e+48
-1.3786966e+48
-1.3818799e+48
-1.3818855e+48
-1.3785742e+48
-1.3556796e+48
-1.3556017e+48
-1.361048e+48
-1.3609577e+48
-1.3482811e+48
-1.3482718e+48
-1.3426449e+48
-1.3426113e+48
-1.3424929e+48
-1.3481699e+48
-1.3479105e+48
-1.342365e+48
-1.3554521e+48
-1.3552594e+48
-1.3605998e+48
-1.3609374e+48
-1.3708255e+48
-1.3709452e+48
-1.3731405e+48
-1.3729273e+48
-1.3755833e+48
-1.3780211e+48
-1.3784629e+48
-1.3758225e+48
-1.3783392e+48
-1.3756921e+48
-1.3778082e+48
-1.3753439e+48
-1.3708618e+48
-1.3730823e+48
-1.3727286e+48
-1.3706361e+48
-1.3705329e+48
-1.3706718e+48
-1.3728523e+48
-1.372625e+48
-1.3752254e+48
-1.3777636e+48
-1.3781245e+48
-1.3754543e+48
-1.377985e+48
-1.3753671e+48
-1.3748125e+48
-1.3772421e+48
-1.3705557e+48
-1.3727715e+48
-1.3722464e+48
-1.3702417e+48
-1.3867306e+48
-1.3861834e+48
-1.3860099e+48
-1.3870302e+48
-1.3829956e+48
-1.381171e+48
-1.3813963e+48
-1.3833317e+48
-1.3812245e+48
-1.3831935e+48
-1.3824662e+48
-1.3806825e+48
-1.3833315e+48
-1.3814791e+48
-1.3817707e+48
-1.3837554e+48
-1.3865475e+48
-1.3875281e+48
-1.3869257e+48
-1.3861521e+48
-1.3863979e+48
-1.3866862e+48
-1.3876911e+48
-1.387296e+48
-1.3816473e+48
-1.3836731e+48
-1.3831247e+48
-1.3812739e+48
-1.3422181e+48
-1.3477565e+48
-1.3476845e+48
-1.3420537e+48
-1.3417168e+48
-1.3473975e+48
-1.3470488e+48
-1.3415435e+48
-1.3547219e+48
-1.3601513e+48
-1.3597499e+48
-1.3543919e+48
-1.3550404e+48
-1.3604202e+48
-1.3604151e+48
-1.354995e+48
-1.3701322e+48
-1.3702157e+48
-1.3723269e+48
-1.3721472e+48
-1.3746797e+48
-1.3748678e+48
-1.3775463e+48
-1.3771896e+48
-1.370095e+48
-1.372215e+48
-1.371824e+48
-1.3697862e+48
-1.3718072e+48
-1.3716479e+48
-1.3696193e+48
-1.3697502e+48
-1.3695786e+48
-1.3712395e+48
-1.3716918e+48
-1.3692141e+48
-1.3358132e+48
-1.3355044e+48
-1.3547357e+48
-1.3432559e+48
-1.3428613e+48
-1.3543254e+48
-1.3747622e+48
-1.3747128e+48
-1.3744394e+48
-1.3779942e+48
-1.3773248e+48
-1.374017e+48
-1.3422049e+48
-1.3536043e+48
-1.352817e+48
-1.3415918e+48
-1.3727184e+48
-1.3762401e+48
-1.3755144e+48
-1.3722265e+48
-1.3735462e+48
-1.3768568e+48
-1.3767554e+48
-1.3732967e+48
-1.3848382e+48
-1.3814839e+48
-1.380832e+48
-1.3839943e+48
-1.3821963e+48
-1.3820243e+48
-1.3371603e+48
-1.3366806e+48
-1.1883784e+48
-1.1812969e+48
-1.1821017e+48
-1.1891781e+48
-1.1561155e+48
-1.1584821e+48
-1.1598797e+48
-1.157257e+48
-1.1817571e+48
-1.1815046e+48
-1.1883736e+48
-1.1891833e+48
-1.1028961e+48
-1.1020549e+48
-1.1572177e+48
-1.1562074e+48
-1.1570536e+48
-1.1588974e+48
-1.2431146e+48
-1.243171e+48
-1.247643e+48
-1.2474831e+48
-1.2489577e+48
-1.2473822e+48
-1.2473219e+48
-1.2489058e+48
-1.2449208e+48
-1.2433244e+48
-1.2432929e+48
-1.2448846e+48
-1.2434201e+48
-1.2434029e+48
-1.2449541e+48
-1.2449613e+48
-1.2434833e+48
-1.2434591e+48
-1.2449772e+48
-1.2449623e+48
-1.2432824e+48
-1.2434459e+48
-1.2449774e+48
-1.2448294e+48
-1.2477485e+48
-1.2433005e+48
-1.2432098e+48
-1.247664e+48
-1.2436003e+48
-1.2434998e+48
-1.2436299e+48
-1.2480768e+48
-1.2479696e+48
-1.1463399e+48
-1.1471365e+48
-1.2047595e+48
-1.2080158e+48
-1.2115428e+48
-1.2130936e+48
-1.2070202e+48
-1.2084785e+48
-1.2146798e+48
-1.2135055e+48
-1.2089155e+48
-1.2094015e+48
-1.2137311e+48