/*--------------------------------*- C++ -*----------------------------------*\
  =========                 |
  \\      /  F ield         | OpenFOAM: The Open Source CFD Toolbox
   \\    /   O peration     | Website:  https://openfoam.org
    \\  /    A nd           | Version:  7
     \\/     M anipulation  |
\*---------------------------------------------------------------------------*/
FoamFile
{
    version     2.0;
    format      ascii;
    class       volVectorField;
    location    "4000";
    object      UMean;
}
// * * * * * * * * * * * * * * * * * * * * * * * * * * * * * * * * * * * * * //

dimensions      [0 1 -1 0 0 0 0];

internalField   nonuniform List<vector> 
34158
(
(-1.1505403e+23 6.5704568e+21 -1.1274526e+22)
(-1.1357259e+23 3.5701753e+21 -1.051943e+22)
(-1.134137e+23 7.7421015e+21 -9.0322083e+21)
(-1.1276125e+23 4.9329005e+21 -8.4560855e+21)
(-1.0397257e+23 5.881823e+21 -5.0644564e+21)
(-1.0361262e+23 5.3426346e+21 -5.7993188e+21)
(-1.1878846e+23 4.1667889e+21 -7.8045061e+21)
(-1.1854419e+23 4.5583991e+21 -7.6580158e+21)
(-1.1179342e+23 2.7681022e+21 -6.9847524e+21)
(-1.1490622e+23 1.6470037e+21 -7.2021657e+21)
(-1.0327238e+23 5.8175256e+21 -3.5912742e+21)
(-1.0236347e+23 6.6222112e+21 -3.8818509e+21)
(-1.1748795e+23 5.1124428e+21 -7.0648773e+21)
(-1.1749024e+23 5.3580046e+21 -7.0655596e+21)
(-9.6048887e+22 7.6034081e+21 2.0897324e+20)
(-1.1203988e+23 5.1954153e+21 -5.0837162e+21)
(-9.4560044e+22 5.4371357e+21 -4.2045774e+20)
(-1.1139671e+23 4.3937411e+21 -5.2686532e+21)
(-1.2103146e+23 3.7502436e+21 -4.2196782e+21)
(-1.2086049e+23 3.9611378e+21 -4.2720851e+21)
(-1.2009849e+23 3.0223272e+21 1.3079469e+21)
(-1.1963382e+23 2.8275476e+21 1.4669272e+21)
(-1.1533699e+23 3.3275196e+21 -6.8868255e+21)
(-1.1199381e+23 1.9512309e+21 -7.1079715e+21)
(-1.0995641e+23 3.2694402e+21 -1.4393566e+22)
(-1.2547723e+23 3.6434956e+21 -5.0328057e+21)
(-1.2670036e+23 1.2766718e+21 -5.0528763e+21)
(-1.0987075e+23 8.4923881e+20 -1.4323105e+22)
(-9.9578961e+22 2.4160754e+21 -9.9303886e+21)
(-1.1160566e+23 2.8746739e+21 -7.2613464e+21)
(-1.1283314e+23 1.8286842e+21 -7.1404284e+21)
(-9.972211e+22 1.2302127e+21 -1.0209748e+22)
(-9.9990974e+22 2.2603376e+21 -1.0793365e+22)
(-1.1159341e+23 2.8162653e+21 -8.2088752e+21)
(-1.150086e+23 3.7353837e+21 7.027245e+21)
(-1.1478774e+23 1.8930289e+21 6.9445955e+21)
(-1.2008531e+23 5.750812e+21 -7.0400479e+21)
(-1.1782449e+23 5.7556478e+21 -6.8263041e+21)
(-9.606221e+22 7.0429571e+21 2.5002824e+20)
(-1.1093062e+23 5.6383423e+21 -4.2870683e+21)
(-9.5380981e+22 7.2858715e+21 1.5051366e+20)
(-1.1013602e+23 5.3100221e+21 -4.3962979e+21)
(-1.2001847e+23 4.3215567e+21 -4.1397307e+21)
(-1.1969134e+23 4.4150136e+21 -4.2539278e+21)
(-1.2920262e+23 4.7866676e+21 -6.8065541e+21)
(-1.285701e+23 4.0136415e+21 -6.7811635e+21)
(-9.0323347e+22 7.0938834e+21 1.839683e+21)
(-1.0236822e+23 5.8970844e+21 -7.0181223e+20)
(-1.1484897e+23 4.3459053e+21 -2.4349656e+21)
(-8.5902744e+22 4.8187314e+21 1.7290341e+21)
(-1.0213805e+23 4.9579344e+21 -9.3451109e+20)
(-1.1405794e+23 3.7950526e+21 -2.2983868e+21)
(-1.2208037e+23 3.2386948e+21 -8.5346936e+20)
(-1.2220286e+23 3.3751608e+21 -1.0493394e+21)
(-1.2007925e+23 3.042158e+21 1.5191628e+21)
(-1.2072894e+23 3.10537e+21 1.4877729e+21)
(-1.1684091e+23 3.5143558e+21 1.2255949e+21)
(-1.1582049e+23 2.8095395e+21 1.3377044e+21)
(-1.190398e+23 2.7159488e+21 1.705308e+21)
(-1.1856858e+23 2.7804986e+21 1.8975248e+21)
(-1.2089396e+23 2.4168601e+21 -1.3003721e+22)
(-1.1635614e+23 1.7996467e+21 -7.2136877e+21)
(-1.2697465e+23 4.4243893e+21 -4.7984555e+21)
(-1.1002534e+23 1.2615859e+21 -1.448557e+22)
(-1.1022213e+23 3.6119246e+21 -1.443875e+22)
(-1.2624869e+23 2.0490015e+21 -5.1583176e+21)
(-1.0189052e+23 2.6164555e+21 -9.9748665e+21)
(-1.130841e+23 2.847544e+21 -6.31389e+21)
(-1.129494e+23 1.3752816e+21 -7.4929207e+21)
(-1.0053304e+23 1.1201047e+21 -1.0397104e+22)
(-9.9788452e+22 2.1079127e+21 -1.0453415e+22)
(-1.1199314e+23 2.3167763e+21 -8.1836059e+21)
(-1.1333375e+23 1.6296032e+21 -7.2617646e+21)
(-9.9992576e+22 1.1065593e+21 -1.0306599e+22)
(-1.0377447e+23 1.3912201e+21 -1.3331772e+22)
(-1.1004176e+23 2.5120761e+21 -5.2756942e+21)
(-1.1096048e+23 1.5697899e+21 -5.6784872e+21)
(-9.5396241e+22 1.437843e+21 -8.265301e+21)
(-9.5468388e+22 7.3520584e+20 -8.4958696e+21)
(-9.5784775e+22 1.7433558e+21 -9.1900238e+21)
(-1.1142014e+23 1.9936561e+21 -6.1727578e+21)
(-1.0393249e+23 2.038615e+21 -1.3472125e+22)
(-9.8206116e+22 1.8011998e+21 -1.1802197e+22)
(-9.7551305e+22 1.9561492e+21 -1.2100186e+22)
(-1.0535672e+23 2.0996107e+21 -7.7341733e+21)
(-1.0598257e+23 2.2139963e+21 -7.6630957e+21)
(-1.0097921e+23 2.0321935e+21 -8.7253101e+21)
(-1.0059998e+23 1.8184206e+21 -8.5829725e+21)
(-1.0193431e+23 2.4130878e+21 -7.0056887e+21)
(-1.0141336e+23 1.9892403e+21 -9.1602798e+21)
(-1.0108741e+23 1.4677144e+21 -9.1159244e+21)
(-1.023129e+23 1.5110646e+21 -7.0466657e+21)
(-1.0228539e+23 2.0962848e+21 -7.2418158e+21)
(-9.8187678e+22 1.4647214e+21 -1.2225455e+22)
(-1.0584282e+23 1.5020364e+21 -8.3164648e+21)
(-9.8177651e+22 1.7252589e+21 -1.2123942e+22)
(-1.0604252e+23 1.9374728e+21 -8.5854595e+21)
(-9.7746535e+22 2.5707708e+21 -1.2682103e+22)
(-9.778141e+22 1.8571918e+21 -1.2287236e+22)
(-1.0548827e+23 1.8081808e+21 -8.4856899e+21)
(-1.0549096e+23 2.8049677e+21 -8.8450715e+21)
(-1.0182761e+23 1.7361588e+21 -7.3200663e+21)
(-1.0085275e+23 1.604512e+21 -9.0484416e+21)
(-1.0205401e+23 2.9894072e+21 -7.3203527e+21)
(-1.008506e+23 2.6995603e+21 -9.3233017e+21)
(-1.1536016e+23 3.7826528e+21 7.0069295e+21)
(-1.1522796e+23 1.8652702e+21 6.9640856e+21)
(-1.158659e+23 3.940133e+21 4.8810296e+21)
(-1.1340551e+23 2.6628939e+21 4.698856e+21)
(-1.1455043e+23 2.4176988e+21 2.1472787e+21)
(-1.142792e+23 2.730692e+21 2.2287713e+21)
(-1.12876e+23 5.9035445e+21 -4.2469339e+21)
(-1.1076271e+23 5.6251318e+21 -3.9102585e+21)
(-1.216943e+23 4.7910588e+21 -4.2584341e+21)
(-1.20231e+23 4.7700828e+21 -4.0811783e+21)
(-1.2952121e+23 4.2414109e+21 -6.6881544e+21)
(-1.3015867e+23 4.7988559e+21 -6.6811944e+21)
(-9.5676113e+22 7.8895304e+21 1.6279666e+21)
(-1.0023341e+23 5.9040287e+21 -3.1449799e+20)
(-1.1369087e+23 4.8087622e+21 -2.2946208e+21)
(-9.4090338e+22 8.01403e+21 1.8219354e+21)
(-9.9833815e+22 5.8922737e+21 -2.9922777e+20)
(-1.1314808e+23 4.3927046e+21 -2.1658121e+21)
(-1.2097663e+23 3.5807379e+21 -1.0863981e+21)
(-1.2045471e+23 3.6774858e+21 -1.2731779e+21)
(-1.2843379e+23 4.1638035e+21 -1.7300667e+21)
(-1.0923468e+23 1.9156687e+21 -3.6917844e+21)
(-1.0966939e+23 3.6932046e+21 -3.9903497e+21)
(-1.2802816e+23 3.3120045e+21 -1.5804515e+21)
(-1.0868108e+23 1.579961e+21 -3.7725284e+21)
(-1.090366e+23 3.347058e+21 -3.8028342e+21)
(-9.5784964e+22 7.9031165e+21 1.5505973e+21)
(-9.5120531e+22 4.8882478e+21 1.330268e+21)
(-1.0661298e+23 4.7602527e+21 -2.2437755e+20)
(-1.1717592e+23 3.7137687e+21 -1.1558194e+20)
(-9.3286968e+22 6.0793966e+21 1.5362774e+21)
(-9.5867856e+22 4.3671974e+21 1.1450988e+21)
(-1.056729e+23 4.3591703e+21 -4.0399285e+19)
(-1.161278e+23 3.2443706e+21 7.547743e+19)
(-1.2088846e+23 2.9404264e+21 1.5551369e+21)
(-1.2141017e+23 3.1628999e+21 1.1997858e+21)
(-1.1663595e+23 3.4315316e+21 1.4394414e+21)
(-1.1606481e+23 3.2066127e+21 1.4830023e+21)
(-1.191863e+23 2.9688019e+21 1.8202223e+21)
(-1.196426e+23 2.8412006e+21 1.8046429e+21)
(-1.0828715e+23 4.1800329e+21 8.3233332e+20)
(-1.1738313e+23 3.1790173e+21 1.5882129e+21)
(-1.0599332e+23 3.6930904e+21 6.2818818e+20)
(-1.1580817e+23 2.8490865e+21 1.8016557e+21)
(-1.142378e+23 3.3235076e+21 -7.4493617e+21)
(-1.1344592e+23 2.7196512e+21 -6.6478559e+21)
(-1.1409437e+23 2.1756456e+21 2.9546869e+21)
(-1.2135914e+23 2.5361941e+21 -1.3111993e+22)
(-9.8588451e+22 1.5852171e+21 -6.1914399e+21)
(-1.2767693e+23 1.2776288e+21 -4.9780617e+21)
(-1.1054259e+23 1.0489358e+21 -1.4508816e+22)
(-1.0283638e+23 2.2832405e+21 -1.0565997e+22)
(-1.135422e+23 2.6175598e+21 -6.9864521e+21)
(-1.1437271e+23 1.3622069e+21 -6.4216135e+21)
(-1.0267587e+23 1.200178e+21 -1.0512e+22)
(-1.1217389e+23 3.0408214e+21 -5.4688115e+21)
(-9.6156545e+22 1.951054e+21 -8.8841641e+21)
(-9.5973589e+22 1.413601e+21 -8.955127e+21)
(-1.1229499e+23 2.0553308e+21 -5.8122633e+21)
(-1.0416987e+23 2.4992348e+21 -1.3425463e+22)
(-1.0414228e+23 1.8021921e+21 -1.3514728e+22)
(-1.1110275e+23 2.6052429e+21 -5.854511e+21)
(-1.1078094e+23 1.6512837e+21 -5.4921739e+21)
(-9.548599e+22 2.5253001e+21 -8.6916472e+21)
(-9.5763335e+22 1.8489281e+21 -8.3163636e+21)
(-1.0461794e+23 1.9176366e+21 -7.8311151e+21)
(-9.6969327e+22 1.647978e+21 -1.2231407e+22)
(-9.8373685e+22 1.2147161e+21 -1.1403827e+22)
(-1.0549814e+23 1.588554e+21 -6.4969449e+21)
(-1.0159132e+23 1.6602058e+21 -6.4275936e+21)
(-1.0007955e+23 1.5338788e+21 -8.7474457e+21)
(-1.0037333e+23 1.3629844e+21 -7.8220374e+21)
(-1.0120466e+23 1.7141857e+21 -6.3801845e+21)
(-1.0308252e+23 8.4506665e+20 -6.9679877e+21)
(-1.0130365e+23 8.2465855e+20 -9.5202415e+21)
(-1.0156694e+23 1.7279014e+21 -9.1447028e+21)
(-1.0271053e+23 1.7264004e+21 -6.9778851e+21)
(-9.8519089e+22 1.259107e+21 -1.2206641e+22)
(-9.8212832e+22 9.8446785e+20 -1.2611742e+22)
(-1.0599797e+23 9.9029065e+20 -8.9888258e+21)
(-1.0635793e+23 1.6962881e+21 -8.5530169e+21)
(-1.0691905e+23 1.5698145e+21 -7.4406191e+21)
(-9.840941e+22 1.4134536e+21 -1.2135787e+22)
(-9.8546085e+22 1.6665816e+21 -1.2091653e+22)
(-1.0623136e+23 1.8002811e+21 -8.2835921e+21)
(-1.0150286e+23 1.2839732e+21 -8.7964343e+21)
(-1.0237509e+23 1.3787955e+21 -7.0421829e+21)
(-1.012502e+23 1.6850338e+21 -9.1863231e+21)
(-1.0219822e+23 2.124053e+21 -7.5235737e+21)
(-1.0165551e+23 1.9434832e+21 -8.7451807e+21)
(-1.0147697e+23 1.3873102e+21 -9.6724848e+21)
(-1.0264751e+23 1.4640515e+21 -7.4388716e+21)
(-9.8188445e+22 1.3156942e+21 -1.2445739e+22)
(-1.063301e+23 1.3604423e+21 -8.9650659e+21)
(-1.0709325e+23 1.7881468e+21 -7.4572066e+21)
(-9.819653e+22 1.54208e+21 -1.2494333e+22)
(-9.5243502e+22 6.6193604e+20 2.1602142e+21)
(-9.1966728e+22 -3.7020948e+20 -1.270789e+22)
(-9.2537427e+22 2.7552869e+21 -1.2842184e+22)
(-1.0404545e+23 1.9796624e+21 -7.2866993e+21)
(-1.0534399e+23 2.3806204e+21 -7.1600574e+21)
(-8.9892847e+22 4.9789081e+20 -6.0285197e+21)
(-9.0683981e+22 1.8106832e+21 -5.7741536e+21)
(-1.0503468e+23 1.5265759e+21 -7.9079645e+21)
(-9.1195874e+22 7.4199554e+20 -6.4572723e+21)
(-9.1632712e+22 2.2632593e+21 -6.4054641e+21)
(-1.0487127e+23 1.9929791e+21 -7.8693498e+21)
(-9.2516923e+22 8.8815853e+18 -1.3116245e+22)
(-1.0415893e+23 1.6850756e+21 -8.1068885e+21)
(-1.0478727e+23 2.3366362e+21 -8.2944612e+21)
(-9.097587e+22 7.0716628e+20 -6.6897236e+21)
(-9.1068247e+22 2.1851299e+21 -6.8027271e+21)
(-9.5609001e+22 2.5685258e+21 1.9452666e+21)
(-9.4274808e+22 1.9927875e+21 -1.2990258e+22)
(-9.4133771e+22 9.7072524e+20 -1.3182657e+22)
(-9.7888944e+22 2.0501955e+21 -9.2714247e+21)
(-9.7869102e+22 8.5428266e+20 -9.2236309e+21)
(-9.344044e+22 2.2305468e+21 -1.3028011e+22)
(-9.3047271e+22 1.7637926e+21 -1.3410231e+22)
(-9.7137916e+22 2.4416965e+21 -9.0608228e+21)
(-9.6959603e+22 1.5836473e+21 -8.9846649e+21)
(-9.380144e+22 1.4092822e+21 -8.866831e+21)
(-9.4908041e+22 1.449445e+21 -7.1408657e+21)
(-9.5129164e+22 2.351052e+21 -7.0355435e+21)
(-9.3830792e+22 2.015947e+21 -8.9854666e+21)
(-9.4505154e+22 9.2277744e+20 -9.1795141e+21)
(-9.5621411e+22 9.3323475e+20 -7.4576298e+21)
(-9.574856e+22 1.9805077e+21 -7.2775047e+21)
(-9.4617814e+22 1.8017953e+21 -9.0769106e+21)
(-9.331195e+22 1.9373228e+21 -7.0957198e+21)
(-9.3384838e+22 1.0093699e+21 -7.2458326e+21)
(-9.2838452e+22 1.1411619e+21 -6.6722325e+21)
(-9.3010049e+22 2.0205527e+21 -6.3435653e+21)
(-9.2734114e+22 2.1263484e+21 -6.8309052e+21)
(-9.2879451e+22 1.4553151e+21 -6.8345155e+21)
(-9.2254315e+22 1.4799444e+21 -6.3664518e+21)
(-9.242905e+22 2.1638543e+21 -6.1157519e+21)
(-8.9930383e+22 2.0096076e+21 -5.8275194e+21)
(-9.0478678e+22 1.9256307e+21 -6.1221628e+21)
(-9.0334027e+22 1.2381951e+21 -6.3598004e+21)
(-9.0054854e+22 1.4453087e+21 -5.9457747e+21)
(-9.0194105e+22 1.9737902e+21 -5.7184633e+21)
(-9.3490016e+22 1.9236223e+21 -7.3196022e+21)
(-9.3885382e+22 1.1013014e+21 -7.6523963e+21)
(-9.3154321e+22 1.2381028e+21 -6.8653631e+21)
(-9.2941038e+22 1.9487623e+21 -6.6836224e+21)
(-9.3152919e+22 2.361765e+21 -7.3657122e+21)
(-9.326122e+22 1.3288625e+21 -7.3651151e+21)
(-9.2551517e+22 1.4431774e+21 -6.7384822e+21)
(-9.2955447e+22 2.4148142e+21 -6.5713781e+21)
(-8.9931683e+22 1.6103252e+21 -6.0160261e+21)
(-9.0088422e+22 1.5129219e+21 -6.4172078e+21)
(-9.0308562e+22 2.2872491e+21 -6.3826273e+21)
(-9.0248721e+22 2.1833548e+21 -5.7856041e+21)
(-9.0328861e+22 1.537971e+21 -5.9832948e+21)
(-9.0517195e+22 1.3670123e+21 -6.5274777e+21)
(-9.0408839e+22 1.8685467e+21 -6.3107654e+21)
(-9.0194129e+22 1.8744044e+21 -5.7992136e+21)
(-9.4550935e+22 2.3849197e+21 -1.3073531e+22)
(-9.4290975e+22 1.112949e+21 -1.3163346e+22)
(-9.7821633e+22 1.2769341e+21 -9.5173625e+21)
(-9.809885e+22 2.447363e+21 -9.5980747e+21)
(-9.460634e+22 1.2324691e+21 -9.2285152e+21)
(-9.5462985e+22 1.2851029e+21 -7.6781566e+21)
(-9.5729641e+22 2.4418094e+21 -7.6128215e+21)
(-9.4670281e+22 2.1193053e+21 -9.3916892e+21)
(-9.8498025e+22 8.9267096e+20 -9.5251807e+21)
(-9.4338191e+22 9.5920569e+20 -1.3178915e+22)
(-9.4392783e+22 1.807193e+21 -1.3226923e+22)
(-9.809665e+22 1.8543225e+21 -9.694925e+21)
(-9.482693e+22 1.8449866e+21 -9.3253148e+21)
(-9.5309204e+22 1.0161157e+21 -1.0109713e+22)
(-9.6447592e+22 9.7541903e+20 -7.856549e+21)
(-9.5769618e+22 1.9800825e+21 -7.6178489e+21)
(-9.3692829e+22 2.9056656e+21 -1.3078505e+22)
(-9.384912e+22 1.2348147e+21 -1.3006187e+22)
(-9.7594049e+22 9.6771643e+20 -9.2739633e+21)
(-9.7061078e+22 2.7812221e+21 -9.5108003e+21)
(-9.3757168e+22 2.5370906e+21 -1.3122366e+22)
(-9.3789814e+22 1.5671019e+21 -1.3249328e+22)
(-9.7700041e+22 1.4138965e+21 -9.2231887e+21)
(-9.7363792e+22 2.564169e+21 -9.5286181e+21)
(-9.543786e+22 1.4825699e+21 -7.3475149e+21)
(-9.4396539e+22 1.4268331e+21 -9.058059e+21)
(-9.412599e+22 2.2698452e+21 -9.2938635e+21)
(-9.5175528e+22 2.4632298e+21 -7.5757124e+21)
(-9.4133094e+22 2.6096188e+21 -9.0304685e+21)
(-9.4333415e+22 1.1517758e+21 -9.1480583e+21)
(-9.5390358e+22 1.1073566e+21 -7.5245204e+21)
(-9.4976232e+22 2.6244952e+21 -7.5089961e+21)
(-9.0199654e+22 1.7907987e+21 -5.4448959e+21)
(-8.9914362e+22 1.6096136e+21 -6.2625288e+21)
(-8.9839558e+22 2.2067873e+21 -6.4339426e+21)
(-8.9661888e+22 2.1934492e+21 -5.8650136e+21)
(-9.2574956e+22 1.5463334e+21 -6.455609e+21)
(-9.2868457e+22 1.4632383e+21 -7.1059465e+21)
(-9.286629e+22 2.2919485e+21 -7.3156057e+21)
(-9.2345804e+22 2.3134803e+21 -6.7559654e+21)
(-9.0308627e+22 1.7236914e+21 -5.6228157e+21)
(-8.9868649e+22 1.4839666e+21 -6.4963433e+21)
(-8.9603159e+22 2.4328546e+21 -6.5060095e+21)
(-8.9436165e+22 2.433201e+21 -5.9781983e+21)
(-9.2556584e+22 1.3714014e+21 -6.8175911e+21)
(-9.3059981e+22 1.1886049e+21 -7.334484e+21)
(-9.2706949e+22 2.4740816e+21 -7.3116967e+21)
(-9.2109507e+22 2.4893007e+21 -6.8038228e+21)
(-1.2250637e+23 2.7522857e+21 1.0583642e+22)
(-1.1578607e+23 3.6718148e+21 7.3221307e+21)
(-1.1587629e+23 1.8855245e+21 7.2666447e+21)
(-1.1479011e+23 3.8451178e+21 4.7015316e+21)
(-1.1375495e+23 2.3325509e+21 4.7185592e+21)
(-1.1505423e+23 2.4986425e+21 2.1727109e+21)
(-1.1476231e+23 2.8253373e+21 2.1783459e+21)
(-1.0537372e+23 3.8558894e+21 1.1024275e+21)
(-1.1715778e+23 3.1709024e+21 3.0808416e+21)
(-1.0147976e+23 3.7199475e+21 9.6968921e+20)
(-1.1490675e+23 3.0552676e+21 3.1724387e+21)
(-1.2241363e+23 4.382698e+21 -4.0289854e+21)
(-1.2238924e+23 4.063889e+21 -4.0482555e+21)
(-1.0279351e+23 5.9363194e+21 -8.6798878e+19)
(-1.1561356e+23 5.0272641e+21 -2.2137838e+21)
(-9.9990369e+22 5.9501731e+21 2.7775808e+20)
(-1.1377944e+23 4.7923903e+21 -1.9835822e+21)
(-1.2189107e+23 3.995914e+21 -1.2983816e+21)
(-1.2138157e+23 3.9864068e+21 -1.1316702e+21)
(-1.2875539e+23 3.3839598e+21 -1.6001743e+21)
(-1.0932296e+23 3.9171457e+21 -3.7568318e+21)
(-1.1034624e+23 2.130019e+21 -3.8031797e+21)
(-1.2934123e+23 4.2130662e+21 -1.5937297e+21)
(-1.1035705e+23 2.2424514e+21 -3.4936886e+21)
(-1.0943683e+23 3.631201e+21 -3.8283305e+21)
(-9.7363967e+22 8.1236434e+21 1.3862475e+21)
(-9.7066997e+22 5.4924828e+21 1.3728792e+21)
(-1.0435412e+23 5.0473856e+21 -2.5702741e+20)
(-1.1538753e+23 4.0361556e+21 -1.9698379e+20)
(-9.5811579e+22 8.1419106e+21 1.5413195e+21)
(-9.7274097e+22 5.310246e+21 1.548833e+21)
(-1.0393706e+23 4.8540334e+21 -5.8735496e+19)
(-1.1476899e+23 3.6220556e+21 -1.8158447e+19)
(-1.1997051e+23 3.2075567e+21 1.1215602e+21)
(-1.2027724e+23 3.3624498e+21 8.2818226e+20)
(-1.2628996e+23 3.9968092e+21 1.5539019e+21)
(-1.0880502e+23 1.7040364e+21 3.9174612e+21)
(-1.0869359e+23 3.1656296e+21 3.6652758e+21)
(-1.1258587e+23 3.6103633e+21 -8.0569794e+20)
(-1.1135902e+23 2.1592733e+21 1.233437e+19)
(-1.2576421e+23 2.8261371e+21 1.7528737e+21)
(-1.0811424e+23 2.6967572e+21 3.9047969e+21)
(-1.0874333e+23 1.7089594e+21 3.7837504e+21)
(-1.1105968e+23 2.0270874e+21 -4.5255955e+19)
(-1.1209736e+23 3.0920604e+21 -5.9646257e+20)
(-9.5508347e+22 5.8056621e+21 1.5276271e+21)
(-1.0271034e+23 4.242511e+21 1.2184074e+21)
(-1.0840679e+23 4.0318913e+21 7.4016731e+20)
(-1.1774671e+23 3.3714192e+21 1.2036973e+21)
(-9.4273642e+22 4.4138142e+21 1.4858947e+21)
(-1.0187693e+23 4.0344194e+21 1.2141336e+21)
(-1.0699619e+23 3.6815596e+21 8.6814811e+20)
(-1.1662663e+23 2.7874793e+21 1.4808586e+21)
(-1.1984688e+23 2.9497533e+21 1.9227519e+21)
(-1.2036536e+23 2.9205361e+21 1.6404162e+21)
(-1.071226e+23 3.7054413e+21 1.1061923e+21)
(-1.1666688e+23 3.1806506e+21 1.7324649e+21)
(-1.0641269e+23 3.9952434e+21 9.9447876e+20)
(-1.1602454e+23 3.1090226e+21 1.7867541e+21)
(-1.0091682e+23 3.4327844e+21 1.4294023e+21)
(-1.0829526e+23 3.8117417e+21 5.6812172e+20)
(-9.8879424e+22 2.8462181e+21 1.2619029e+21)
(-1.0596984e+23 3.3996773e+21 5.0668688e+20)
(-1.1471669e+23 2.959152e+21 -1.6588975e+21)
(-1.1331123e+23 2.2896994e+21 -1.3288142e+21)
(-1.1390224e+23 3.6145111e+21 -6.7425526e+21)
(-1.1463689e+23 3.0713351e+21 -7.3181799e+21)
(-1.1519972e+23 3.2287724e+21 -1.9131566e+21)
(-9.5559484e+22 3.2008835e+21 -5.6594246e+21)
(-9.5770186e+22 1.5615058e+21 -5.6482044e+21)
(-9.5942959e+22 1.69288e+21 -9.0860073e+21)
(-9.5879194e+22 3.3960032e+21 -9.1804322e+21)
(-1.1337713e+23 2.3797195e+21 -8.1263131e+20)
(-9.4611723e+22 2.8132324e+21 -4.848028e+21)
(-9.5205305e+22 1.8984497e+21 -5.1956001e+21)
(-1.1446061e+23 3.1309861e+21 -7.1885354e+21)
(-1.1441464e+23 2.9135978e+21 -6.5324316e+21)
(-1.0686066e+23 1.7095418e+21 5.9296467e+21)
(-1.0661566e+23 2.2333174e+21 5.9655692e+21)
(-1.1420277e+23 2.3865522e+21 3.0037964e+21)
(-1.2210635e+23 2.481622e+21 -1.3148008e+22)
(-9.8841877e+22 1.706952e+21 -5.9951453e+21)
(-8.7707038e+22 1.6973149e+21 -4.552644e+21)
(-8.7567724e+22 1.5563199e+21 -5.0042608e+21)
(-8.7542329e+22 1.5650046e+21 -4.8342304e+21)
(-8.7631474e+22 1.504494e+21 -5.1629164e+21)
(-8.7254269e+22 1.1399438e+21 -5.3448403e+21)
(-8.7387255e+22 1.3468449e+21 -5.3011513e+21)
(-9.9006143e+22 1.4536135e+21 -6.0595509e+21)
(-9.8522939e+22 2.1022424e+21 -6.3666609e+21)
(-1.1325706e+23 2.1901218e+21 -6.121745e+21)
(-1.1294752e+23 1.5394571e+21 -5.6985314e+21)
(-9.6330935e+22 2.4772953e+21 -9.1872173e+21)
(-9.6866177e+22 1.943473e+21 -9.0278427e+21)
(-1.0495168e+23 2.6479146e+21 -1.3569363e+22)
(-1.0063931e+23 1.8191505e+21 -1.1295954e+22)
(-9.8719132e+22 1.676781e+21 -1.226198e+22)
(-9.8922207e+22 1.4144797e+21 -1.2234653e+22)
(-1.0548317e+23 1.5189849e+21 -7.3269977e+21)
(-1.053681e+23 1.7001639e+21 -7.5504246e+21)
(-1.0082052e+23 1.4775138e+21 -8.017359e+21)
(-1.005982e+23 1.7418551e+21 -8.3917255e+21)
(-1.0117436e+23 1.6195132e+21 -6.6987863e+21)
(-1.0127084e+23 2.0839952e+21 -6.8921446e+21)
(-1.0087092e+23 1.2943143e+21 -8.1865685e+21)
(-1.0085404e+23 1.46069e+21 -7.9864159e+21)
(-1.0190165e+23 1.3300725e+21 -6.3651037e+21)
(-1.0169509e+23 1.5643892e+21 -6.2980218e+21)
(-9.8678201e+22 1.4568747e+21 -1.223943e+22)
(-9.8743866e+22 1.4171896e+21 -1.2313382e+22)
(-1.0554706e+23 1.2655605e+21 -7.4227638e+21)
(-1.0545228e+23 1.3810036e+21 -7.2675904e+21)
(-9.0240331e+22 7.0138196e+20 -6.7068425e+21)
(-1.0396186e+23 1.9940046e+21 -7.3623635e+21)
(-1.0566208e+23 2.2074323e+21 -7.0741069e+21)
(-9.0914671e+22 1.794955e+21 -6.4006277e+21)
(-9.2727773e+22 -2.4709687e+19 -1.3124475e+22)
(-9.2960172e+22 3.0129512e+21 -1.3106853e+22)
(-1.0535801e+23 1.5076674e+21 -8.1497653e+21)
(-1.0530405e+23 1.8830108e+21 -7.9820887e+21)
(-9.1369873e+22 8.1062522e+20 -6.8000853e+21)
(-9.1818108e+22 2.221435e+21 -6.6139811e+21)
(-9.5741508e+22 2.9355204e+21 2.2129155e+21)
(-9.2320095e+22 3.6151624e+20 -1.2933803e+22)
(-9.2682886e+22 3.4877841e+21 -1.2823105e+22)
(-9.5556008e+22 9.2134342e+20 2.1383953e+21)
(-1.050569e+23 1.6549453e+21 -7.8783449e+21)
(-1.0558177e+23 2.1712572e+21 -7.8204243e+21)
(-9.1406263e+22 7.8081742e+20 -6.4575917e+21)
(-9.148399e+22 2.3468376e+21 -6.3766862e+21)
(-1.0482005e+23 1.7244992e+21 -7.607523e+21)
(-9.0889836e+22 1.2720403e+21 -6.1336961e+21)
(-1.053945e+23 1.3130519e+21 -7.629356e+21)
(-9.0620569e+22 2.4860242e+21 -6.199333e+21)
(-9.5134388e+22 1.3934813e+21 -6.6476616e+21)
(-9.3792305e+22 1.148578e+21 -9.5392699e+21)
(-9.3749231e+22 1.908607e+21 -8.5792762e+21)
(-9.4917072e+22 1.9819361e+21 -6.5455952e+21)
(-9.6549417e+22 1.4471707e+21 -8.9841719e+21)
(-9.2490458e+22 1.1972249e+21 -1.3404589e+22)
(-9.2946676e+22 2.2607474e+21 -1.2829157e+22)
(-9.7032005e+22 2.5083205e+21 -8.6251205e+21)
(-9.3518555e+22 1.2621005e+21 -1.2566658e+22)
(-9.318811e+22 7.1953605e+20 -1.2989081e+22)
(-9.5630749e+22 9.4455581e+20 -9.2434682e+21)
(-9.5891347e+22 1.3577154e+21 -8.9322065e+21)
(-9.404508e+22 6.2736681e+20 -7.1870392e+21)
(-9.2593244e+22 7.6242583e+20 -9.1477857e+21)
(-9.2872798e+22 1.1057971e+21 -8.7842042e+21)
(-9.4148259e+22 1.2502917e+21 -7.0034824e+21)
(-8.994397e+22 1.538758e+21 -5.0256897e+21)
(-8.9620454e+22 1.3602001e+21 -5.7917941e+21)
(-8.976472e+22 1.5715329e+21 -5.7196639e+21)
(-8.9710216e+22 1.523547e+21 -5.2228176e+21)
(-9.2430329e+22 1.3351198e+21 -5.92327e+21)
(-9.2432997e+22 1.2399195e+21 -7.0677075e+21)
(-9.2727279e+22 1.7258025e+21 -6.5477346e+21)
(-9.230814e+22 1.7387452e+21 -5.9401435e+21)
(-9.2078668e+22 1.2024721e+21 -6.8094409e+21)
(-9.1867558e+22 6.6206699e+20 -6.9354586e+21)
(-9.1759481e+22 8.1547478e+20 -6.1071275e+21)
(-9.1862753e+22 1.3258364e+21 -6.1036331e+21)
(-8.926119e+22 1.0409964e+21 -5.4909206e+21)
(-8.9388658e+22 8.790806e+20 -5.8231797e+21)
(-8.9532575e+22 1.2356875e+21 -5.8114351e+21)
(-8.9319836e+22 1.3222354e+21 -5.4555517e+21)
(-9.0640722e+22 1.0571373e+21 -5.489235e+21)
(-9.0015289e+22 7.9563003e+20 -6.6727375e+21)
(-9.0242474e+22 1.8539619e+21 -6.4249529e+21)
(-9.0434449e+22 1.7387406e+21 -5.8013373e+21)
(-9.2751433e+22 7.5572679e+20 -6.6304451e+21)
(-9.3409367e+22 6.4579385e+20 -7.2827049e+21)
(-9.3423279e+22 2.0149847e+21 -7.4357278e+21)
(-9.282184e+22 1.9396431e+21 -6.7266792e+21)
(-9.3524735e+22 1.7288421e+21 -7.2326596e+21)
(-9.3128082e+22 7.8993019e+20 -7.1837652e+21)
(-9.3004161e+22 8.3844094e+20 -6.5140068e+21)
(-9.2834532e+22 1.6940015e+21 -6.5780105e+21)
(-9.0342859e+22 1.1265835e+21 -5.685835e+21)
(-9.0362355e+22 9.601001e+20 -6.2266896e+21)
(-9.0293578e+22 1.6105986e+21 -6.2449863e+21)
(-9.0106925e+22 1.547362e+21 -5.7931595e+21)
(-9.4351215e+22 1.4455482e+21 -1.3351049e+22)
(-9.4272807e+22 6.3811253e+20 -1.3217488e+22)
(-9.8050934e+22 5.6209706e+20 -9.3904207e+21)
(-9.7934537e+22 1.4974483e+21 -9.650315e+21)
(-9.4454596e+22 2.0475815e+21 -1.3029619e+22)
(-9.431681e+22 5.3593396e+20 -1.301542e+22)
(-9.7996264e+22 4.630501e+20 -9.2391312e+21)
(-9.7989488e+22 2.2210886e+21 -9.5796735e+21)
(-9.4718655e+22 1.86524e+21 -9.3444576e+21)
(-9.478714e+22 4.6007001e+20 -9.044804e+21)
(-9.5577244e+22 5.7136919e+20 -7.6424543e+21)
(-9.5747851e+22 2.162954e+21 -7.6830815e+21)
(-9.5811652e+22 7.1182411e+20 -7.478531e+21)
(-9.4637448e+22 7.5573279e+20 -9.2558055e+21)
(-9.4722339e+22 1.5144154e+21 -9.3041407e+21)
(-9.5752169e+22 1.7925923e+21 -7.5759046e+21)
(-9.5752208e+22 1.2921484e+21 -7.0909574e+21)
(-9.4761185e+22 1.0725402e+21 -9.7703719e+21)
(-9.4411421e+22 1.6819225e+21 -9.1642666e+21)
(-9.5364445e+22 1.8346382e+21 -7.3503344e+21)
(-9.8099102e+22 1.2790754e+21 -9.2341411e+21)
(-9.4175988e+22 1.1600833e+21 -1.3419463e+22)
(-9.4245177e+22 2.0400981e+21 -1.3152156e+22)
(-9.7887284e+22 2.1030807e+21 -9.4034505e+21)
(-9.4513565e+22 1.6859316e+21 -1.3230473e+22)
(-9.4532001e+22 5.2721945e+20 -1.321844e+22)
(-9.8277979e+22 3.0444283e+20 -9.3471369e+21)
(-9.7968178e+22 1.5456232e+21 -9.6408675e+21)
(-9.5919348e+22 2.902139e+20 -7.5290041e+21)
(-9.4762654e+22 3.9414674e+20 -9.2677275e+21)
(-9.4724195e+22 1.4125277e+21 -9.3083673e+21)
(-9.5636508e+22 1.5270535e+21 -7.7233354e+21)
(-9.2858696e+22 1.2162031e+21 -6.3516512e+21)
(-9.291676e+22 1.1283425e+21 -7.4199454e+21)
(-9.2726511e+22 1.703078e+21 -6.4621491e+21)
(-9.3095584e+22 1.6923385e+21 -7.1537541e+21)
(-8.9843908e+22 1.281727e+21 -5.7961241e+21)
(-8.9984922e+22 1.2145907e+21 -6.2346862e+21)
(-8.9955218e+22 1.5805073e+21 -6.2604824e+21)
(-8.9907725e+22 1.5501084e+21 -5.729761e+21)
(-9.3298401e+22 4.7996082e+20 -7.2712319e+21)
(-9.2907251e+22 6.6991237e+20 -6.6571131e+21)
(-9.2825101e+22 1.6773222e+21 -6.8782635e+21)
(-9.3423507e+22 1.5218537e+21 -7.4177148e+21)
(-9.0250171e+22 1.6793691e+21 -6.5040619e+21)
(-9.0351595e+22 8.1451679e+20 -6.3688858e+21)
(-9.0048484e+22 1.09073e+21 -6.0471837e+21)
(-9.295939e+22 1.6151831e+21 -7.0401232e+21)
(-9.2326098e+22 1.1421227e+21 -7.2500495e+21)
(-9.2460718e+22 1.6852166e+21 -6.4739162e+21)
(-9.2395529e+22 1.3185678e+21 -6.3507011e+21)
(-9.3568835e+22 2.4326207e+21 -7.5726443e+21)
(-9.359441e+22 9.9839369e+20 -7.4432661e+21)
(-9.3272722e+22 1.155728e+21 -6.7230106e+21)
(-9.2893441e+22 2.346139e+21 -6.8334966e+21)
(-9.0246078e+22 2.2599494e+21 -6.5376781e+21)
(-9.0678287e+22 1.3020693e+21 -6.3972369e+21)
(-9.4375364e+22 2.0453953e+21 -1.3373109e+22)
(-9.4395596e+22 8.343586e+20 -1.3272209e+22)
(-9.8201275e+22 7.8734828e+20 -9.7937009e+21)
(-9.8384415e+22 2.2692861e+21 -9.7268248e+21)
(-9.4848829e+22 2.271062e+21 -9.6330709e+21)
(-9.5864363e+22 9.5312721e+20 -7.8440348e+21)
(-9.4871454e+22 9.3633482e+20 -9.4993211e+21)
(-9.5925927e+22 2.5643746e+21 -7.8826654e+21)
(-9.5314988e+22 1.0846831e+21 -6.8406239e+21)
(-9.3602297e+22 1.0266167e+21 -9.3938036e+21)
(-9.4063254e+22 1.4385867e+21 -9.1285394e+21)
(-9.5044392e+22 1.5749159e+21 -7.3091188e+21)
(-9.8187459e+22 7.4797049e+20 -8.4589642e+21)
(-9.3572507e+22 8.0791567e+20 -1.3331319e+22)
(-9.3444826e+22 1.5086802e+21 -1.3687153e+22)
(-9.7083343e+22 1.5409606e+21 -9.5977499e+21)
(-8.7830391e+22 -4.2495463e+20 -9.0780983e+20)
(-8.8834298e+22 2.6984293e+21 -4.2070136e+20)
(-8.0753802e+22 -1.3274158e+21 1.0652368e+21)
(-8.1597027e+22 3.2280597e+21 9.64943e+20)
(-8.4853253e+22 -7.9455212e+20 -1.431712e+22)
(-8.6890237e+22 2.9699534e+21 -1.4043542e+22)
(-8.6837342e+22 -6.299213e+20 -1.4172061e+22)
(-8.75981e+22 3.5152027e+21 -1.4155709e+22)
(-9.3875551e+22 1.3943294e+21 -1.312805e+22)
(-8.8601167e+22 2.5544432e+20 -9.6692346e+21)
(-8.9491675e+22 2.8461515e+21 -8.8714917e+21)
(-9.5080891e+22 3.1012983e+21 -1.235113e+22)
(-9.5680959e+22 6.1665404e+20 -1.2848275e+22)
(-9.0446206e+22 -3.6423874e+18 -9.2851966e+21)
(-9.131293e+22 2.9757313e+21 -9.1290809e+21)
(-9.5963821e+22 2.6829624e+21 -1.2642926e+22)
(-9.1447199e+22 3.1513333e+21 -9.139106e+21)
(-9.1171801e+22 -2.1575003e+18 -9.3733392e+21)
(-9.5712351e+22 8.192299e+20 -1.2962729e+22)
(-9.6288705e+22 3.1258213e+21 -1.2711064e+22)
(-9.1045001e+22 2.9466853e+21 -9.6026486e+21)
(-9.0988937e+22 3.5785258e+20 -9.2393574e+21)
(-9.616024e+22 4.7420345e+20 -1.2679929e+22)
(-9.576748e+22 2.2666331e+21 -1.3006062e+22)
(-8.108548e+22 -3.9695059e+20 8.6532031e+20)
(-8.644709e+22 -3.2604592e+20 -1.4391006e+22)
(-8.7003702e+22 3.7980551e+21 -1.4329436e+22)
(-9.4972783e+22 1.1645286e+21 -1.3093482e+22)
(-9.0070461e+22 3.9201147e+20 -9.7339116e+21)
(-9.0340889e+22 3.2026354e+21 -9.3048463e+21)
(-9.5443665e+22 3.1720815e+21 -1.2735243e+22)
(-9.5470509e+22 6.4980326e+20 -1.2764331e+22)
(-9.0495198e+22 5.0181413e+20 -9.3423664e+21)
(-9.0525649e+22 3.8033706e+21 -9.5505852e+21)
(-9.4997234e+22 3.2454181e+21 -1.3034845e+22)
(-8.19948e+22 3.8809196e+21 6.2866688e+20)
(-8.8001936e+22 3.1122823e+20 -6.2367163e+20)
(-8.8411073e+22 3.2977508e+21 -9.8339997e+20)
(-9.2729301e+22 1.2239024e+21 -1.4923887e+22)
(-9.2661125e+22 2.0319e+21 -1.5157538e+22)
(-9.0066991e+22 1.2718977e+21 -1.1311934e+22)
(-8.9834158e+22 1.9654805e+21 -1.1621329e+22)
(-9.1813985e+22 1.3923283e+21 -1.5611731e+22)
(-9.1020981e+22 2.332444e+21 -1.5724919e+22)
(-8.911774e+22 1.379993e+21 -1.1859901e+22)
(-8.8554275e+22 2.1485331e+21 -1.1584852e+22)
(-8.5052407e+22 1.99881e+21 -8.3568035e+21)
(-8.2355083e+22 1.9549388e+21 -5.7627303e+21)
(-8.2560891e+22 1.4234216e+21 -6.4667042e+21)
(-8.5370446e+22 1.3920472e+21 -8.9589794e+21)
(-8.6102154e+22 1.9293e+21 -8.7979028e+21)
(-8.3226196e+22 1.8987714e+21 -6.4043652e+21)
(-8.3571498e+22 1.4526885e+21 -6.013848e+21)
(-8.6408154e+22 1.3651118e+21 -8.4541295e+21)
(-8.1177381e+22 1.521575e+21 -4.8098356e+21)
(-8.0977364e+22 1.8964687e+21 -4.9642455e+21)
(-7.8621802e+22 1.8848593e+21 -4.0969928e+21)
(-7.8885242e+22 1.5770217e+21 -3.8714534e+21)
(-8.0266233e+22 1.4301333e+21 -5.1356851e+21)
(-8.0245624e+22 1.9208439e+21 -4.2995461e+21)
(-7.8003054e+22 1.9294488e+21 -3.4468467e+21)
(-7.8052378e+22 1.513386e+21 -4.1054004e+21)
(-7.6035582e+22 1.59734e+21 -3.4860421e+21)
(-7.6794049e+22 1.645711e+21 -3.3368371e+21)
(-7.653663e+22 1.8994817e+21 -3.5289363e+21)
(-7.4631465e+22 1.9260266e+21 -2.9523668e+21)
(-7.4879236e+22 1.7339755e+21 -2.8264399e+21)
(-8.1143926e+22 1.560023e+21 -4.7018455e+21)
(-8.0664464e+22 1.7957335e+21 -5.387593e+21)
(-7.8024568e+22 1.8787784e+21 -4.5758435e+21)
(-7.8675066e+22 1.6670769e+21 -3.9930678e+21)
(-8.0841943e+22 1.5231334e+21 -5.2575796e+21)
(-8.128811e+22 1.8560952e+21 -4.8362826e+21)
(-7.883477e+22 1.8123997e+21 -4.0428872e+21)
(-7.8090501e+22 1.58584e+21 -4.7824738e+21)
(-7.485357e+22 1.9013723e+21 -2.8913154e+21)
(-7.6763596e+22 1.8230081e+21 -3.4413285e+21)