/*--------------------------------*- C++ -*----------------------------------*\
  =========                 |
  \\      /  F ield         | OpenFOAM: The Open Source CFD Toolbox
   \\    /   O peration     | Website:  https://openfoam.org
    \\  /    A nd           | Version:  7
     \\/     M anipulation  |
\*---------------------------------------------------------------------------*/
FoamFile
{
    version     2.0;
    format      ascii;
    class       volScalarField;
    location    "2000";
    object      k;
}
// * * * * * * * * * * * * * * * * * * * * * * * * * * * * * * * * * * * * * //

dimensions      [0 2 -2 0 0 0 0];

internalField   nonuniform List<scalar> 
34124
(
1.5086651
1.5082645
1.5067868
1.5058723
1.5095771
1.5072348
1.5072963
1.5064608
1.5045319
1.5046127
1.5109139
1.5087887
1.5089313
1.5068238
1.5061912
1.5060023
1.5064328
1.5045382
1.5033402
1.5020777
1.5105479
1.5103357
1.5130077
1.5084744
1.5080319
1.5080297
1.5073567
1.5058182
1.5050722
1.5045633
1.5050658
1.5046324
1.5030242
1.5020462
1.5021554
1.5103902
1.5099309
1.5128402
1.5102175
1.5126451
1.5145107
1.5089167
1.5078165
1.5071075
1.5073814
1.506481
1.5065277
1.504883
1.5043508
1.5047955
1.5037544
1.5028584
1.5048989
1.5026032
1.5018036
1.5032103
1.5098428
1.5104282
1.5128317
1.5099681
1.5124678
1.5144891
1.5106411
1.5125618
1.5143846
1.5151848
1.5085617
1.5083519
1.5074414
1.5069079
1.5078232
1.5058596
1.5050318
1.5065382
1.5058914
1.5042742
1.5058885
1.5033337
1.5025781
1.5043658
1.5037352
1.5017965
1.502865
1.5030524
1.5101307
1.510371
1.5125366
1.5106648
1.5132539
1.5145229
1.5105957
1.5124355
1.5143085
1.5151896
1.5103567
1.5128617
1.514317
1.5151612
1.5154953
1.5085128
1.5072713
1.5085107
1.5086355
1.5070681
1.5089778
1.505386
1.505173
1.5061237
1.5062254
1.5042619
1.5060636
1.5052004
1.5022619
1.5021859
1.5047917
1.5026394
1.5013298
1.5032075
1.5022839
1.5027932
1.5107093
1.5108079
1.5125869
1.51021
1.5131094
1.5143449
1.5135472
1.5117516
1.5146546
1.5152128
1.5097682
1.5127588
1.5142188
1.5151309
1.5154657
1.5102082
1.5125718
1.5144048
1.5151554
1.5154578
1.5154743
1.5080124
1.5075369
1.5081317
1.5085861
1.5073507
1.5091522
1.5074327
1.5049342
1.504619
1.506486
1.5055677
1.5035248
1.5069827
1.504732
1.5048321
1.504656
1.5047056
1.5035051
1.5021578
1.501501
1.5021433
1.5026713
1.5024832
1.5043884
1.5107271
1.5099624
1.5128868
1.5112853
1.5130491
1.514237
1.5132636
1.5118019
1.5145017
1.5151182
1.5138302
1.5146854
1.5101428
1.5152389
1.5154286
1.5101953
1.5124873
1.5142617
1.5150836
1.5154384
1.5154744
1.5106138
1.5121367
1.5140208
1.5151717
1.5154843
1.5154793
1.5154051
1.5079614
1.5068254
1.5083822
1.5082855
1.5060125
1.5101237
1.5072019
1.5072469
1.5070308
1.5082111
1.5056166
1.5046533
1.5039903
1.5049488
1.505342
1.504679
1.5057864
1.502431
1.5041819
1.5030886
1.5029689
1.501669
1.5012721
1.501725
1.502897
1.503546
1.5019078
1.5115312
1.5131202
1.5098482
1.5103559
1.51254
1.5142667
1.5135935
1.5122916
1.5143996
1.5150098
1.5136699
1.5146424
1.509837
1.5151332
1.5153842
1.5146808
1.5126598
1.5152067
1.5101553
1.5154295
1.5154616
1.5104486
1.5122466
1.5138975
1.5150416
1.5153967
1.5154615
1.5154242
1.5123176
1.5089009
1.5139266
1.5148554
1.5154647
1.51549
1.5154184
1.5153081
1.5092564
1.5105934
1.5074974
1.5071047
1.5068181
1.5072141
1.5077548
1.5070877
1.5079486
1.5066603
1.5058274
1.5053429
1.5051397
1.5038901
1.5031546
1.5031527
1.5052112
1.5049858
1.5030841
1.5040055
1.5034123
1.5030769
1.5039238
1.5014589
1.5017084
1.5009612
1.5015659
1.5039426
1.5012792
1.5021989
1.5122595
1.5139254
1.5115229
1.5122857
1.5144089
1.5096481
1.5098424
1.5122802
1.5139779
1.5149363
1.5136518
1.5146666
1.509998
1.5150363
1.5153166
1.514612
1.5121225
1.5151488
1.5095278
1.5153804
1.5154497
1.5139811
1.5151219
1.5122537
1.5154364
1.5099541
1.5154835
1.5154336
1.5120622
1.5091793
1.5140413
1.5147027
1.5153654
1.5154608
1.5154187
1.5153006
1.5118743
1.5136145
1.509345
1.5149204
1.5152934
1.5155044
1.5154314
1.5153415
1.5152399
1.5094518
1.5080716
1.5075233
1.5077572
1.5065515
1.5066719
1.5051587
1.5074836
1.5067586
1.5051204
1.5064177
1.5055635
1.504941
1.5055288
1.5042192
1.5033782
1.5021546
1.5032909
1.5056813
1.5027237
1.5037375
1.5030487
1.5039433
1.5041247
1.5022934
1.5034366
1.5018299
1.5013474
1.5012372
1.5022184
1.5013494
1.5025165
1.503466
1.5137559
1.5096787
1.5115428
1.5135758
1.5147728
1.5106556
1.5116253
1.5142092
1.515022
1.5098642
1.5122496
1.509153
1.5140307
1.5146933
1.5152433
1.5145235
1.5118335
1.5151235
1.5095428
1.515317
1.5154252
1.5136289
1.5150699
1.5114711
1.515389
1.5093917
1.5154573
1.5154272
1.5147037
1.5135229
1.5153465
1.5122039
1.5155058
1.5073189
1.5155039
1.5153246
1.5118303
1.513411
1.5088524
1.5149009
1.5151632
1.5154519
1.51542
1.5153192
1.5152461
1.5136454
1.5112156
1.5145532
1.5069736
1.5151903
1.5154724
1.5154489
1.5153759
1.5153182
1.515109
1.5087218
1.5080611
1.5079822
1.5072611
1.507899
1.5052554
1.5036477
1.5054068
1.5074279
1.5050161
1.5063106
1.5052855
1.5057789
1.5058967
1.5054019
1.5054527
1.5034076
1.5024083
1.5026816
1.5043683
1.5029058
1.5042283
1.5058245
1.5035757
1.5034109
1.5032519
1.5041381
1.502445
1.5025005
1.5022958
1.5012194
1.5022994
1.5033622
1.5023189
1.5031241
1.5039245
1.514536
1.5114449
1.5131441
1.5091093
1.5104912
1.5107022
1.512855
1.5145469
1.5151524
1.5107649
1.5116554
1.5139349
1.5149081
1.5152832
1.5106858
1.5113963
1.5136009
1.507383
1.5148984
1.5150817
1.5153942
1.513248
1.5150249
1.5112396
1.5153478
1.509365
1.5154334
1.5154223
1.5144756
1.5130903
1.5153098
1.5116486
1.51548
1.5073838
1.5154866
1.5153273
1.5143372
1.5151878
1.5132769
1.5154547
1.5119136
1.5155123
1.5088698
1.5154872
1.5152637
1.513433
1.5111753
1.514429
1.5055968
1.5152041
1.515393
1.5154413
1.515325
1.5152592
1.5151263
1.5127618
1.5142562
1.5103524
1.514896
1.5081234
1.5153098
1.5154533
1.5153835
1.5153801
1.5152887
1.514975
1.5080527
1.5085467
1.507668
1.5086881
1.5075821
1.505146
1.5041293
1.5046659
1.5066481
1.5049237
1.5068582
1.5095135
1.5051302
1.5049853
1.5053533
1.5055683
1.5044304
1.5040502
1.5034216
1.502638
1.5038765
1.5055221
1.5039459
1.5054423
1.5068283
1.5029632
1.501121
1.5035003
1.5044442
1.5024893
1.5027227
1.5021426
1.5020741
1.501844
1.5024945
1.5024347
1.5022469
1.5022803
1.5039354
1.5129542
1.5141694
1.5149712
1.5121417
1.5106161
1.5124222
1.5093476
1.5095215
1.5102116
1.5107521
1.5125398
1.514083
1.515066
1.5153509
1.5110432
1.512326
1.513217
1.515006
1.5152193
1.5153978
1.5074636
1.5133159
1.5099423
1.5143973
1.5057959
1.5152054
1.5153325
1.5154333
1.51427
1.5127012
1.515272
1.5112695
1.5154551
1.5071777
1.5154735
1.5153178
1.5141209
1.5150429
1.5129193
1.5154349
1.5116505
1.5154937
1.5092776
1.5154694
1.5152581
1.5149573
1.5139289
1.5154213
1.5135181
1.5154462
1.5126781
1.5154097
1.515158
1.5125217
1.5141473
1.5102878
1.5148524
1.5075974
1.5153336
1.5154225
1.5153881
1.5152619
1.5151732
1.5149852
1.513621
1.511969
1.5146381
1.5095254
1.5151255
1.5153331
1.5153106
1.5153633
1.5154101
1.5152682
1.5148516
1.5075652
1.5073217
1.5084251
1.5071565
1.5068157
1.5055453
1.5047075
1.5046923
1.5061163
1.5081893
1.5067011
1.5089914
1.5100934
1.5041774
1.5030398
1.5051122
1.5065114
1.5044138
1.5041804
1.503868
1.503149
1.503666
1.5044203
1.5053418
1.5045271
1.5053158
1.5070556
1.5011305
1.5024334
1.5036927
1.5030596
1.5044992
1.5027034
1.5029401
1.5019852
1.5020457
1.5012902
1.5019747
1.5023769
1.5019615
1.502537
1.5035678
1.5120641
1.5141315
1.5133103
1.513545
1.5147868
1.5152502
1.5113068
1.5118241
1.5107653
1.5122316
1.5086386
1.5083348
1.5093604
1.509696
1.5109207
1.5136165
1.5125341
1.5148024
1.5153361
1.5154424
1.5093882
1.5134593
1.5095894
1.5144203
1.5152503
1.5153688
1.5154531
1.5073619
1.5122879
1.5141166
1.5100492
1.5148151
1.5073182
1.5061362
1.5153424
1.5153966
1.5153857
1.5154384
1.5139912
1.5149466
1.5125639
1.5154125
1.5111263
1.5154679
1.5088018
1.507565
1.5154487
1.5154739
1.515243
1.5148126
1.5137226
1.5153289
1.5131139
1.5154576
1.5121201
1.515417
1.5151748
1.5145947
1.5152966
1.5141211
1.5154515
1.513733
1.5154146
1.5132655
1.515324
1.515088
1.5135285
1.5119024
1.5146134
1.5091346
1.5151158
1.5153616
1.5153352
1.5153449
1.5152045
1.5150785
1.514921
1.5132384
1.5141503
1.5116992
1.5149142
1.5110057
1.5151724
1.5153319
1.515331
1.5154553
1.5153393
1.5147625
1.5061959
1.5057911
1.5067012
1.5091279
1.5061936
1.5060145
1.5058301
1.5069011
1.5045648
1.5060112
1.5073327
1.5068425
1.5087837
1.5081655
1.5089654
1.5103351
1.5027983
1.5038637
1.5052668
1.5047472
1.5059193
1.5044125
1.5045429
1.5035019
1.5036979
1.5029512
1.5044367
1.504117
1.5043718
1.5057547
1.5074508
1.5011913
1.5012872
1.5033088
1.5025923
1.5023736
1.5033002
1.5023664
1.502593
1.5013941
1.5015355
1.5016004
1.5020525
1.5030267
1.5044426
1.5138885
1.512046
1.5127531
1.5149428
1.5141514
1.5129478
1.5131967
1.5143176
1.5151976
1.5154108
1.5103509
1.5110268
1.5113357
1.5106869
1.5121779
1.5083529
1.5079753
1.5079054
1.5091295
1.5087127
1.5090752
1.5108341
1.5143337
1.5133805
1.511636
1.5152072
1.5154291
1.5154506
1.5086609
1.5141786
1.5120237
1.5099917
1.5148882
1.5153549
1.5153916
1.5154673
1.5154133
1.5074134
1.5079892
1.5135293
1.5119887
1.5145605
1.509844
1.5150781
1.5068409
1.5153715
1.5153466
1.5153259
1.5154242
1.5147221
1.5135883
1.5152588
1.5126527
1.5154501
1.5113378
1.5154069
1.5085513
1.515466
1.5151833
1.5143735
1.5152038
1.513861
1.515425
1.5133338
1.5154289
1.5125431
1.5153393
1.5151019
1.515026
1.5145598
1.5154203
1.5142702
1.5154844
1.5144058
1.5139851
1.5152281
1.5153793
1.5150546
1.5131508
1.5141163
1.5111831
1.5149046
1.5100643
1.5152475
1.5153399
1.515279
1.5151324
1.5150383
1.514863
1.5140096
1.513231
1.5145768
1.5150515
1.5114911
1.5135502
1.5150558
1.5147755
1.5153285
1.5156219
1.5154516
1.5154875
1.5052607
1.50555
1.5073613
1.5064274
1.5079453
1.5062352
1.5067462
1.5059684
1.5073003
1.5057049
1.5058521
1.5059763
1.5077392
1.5066364
1.5079938
1.5093484
1.5104398
1.5026965
1.5027706
1.5044796
1.5040085
1.5043854
1.5052631
1.504441
1.5046573
1.5035583
1.5035073
1.5034972
1.5049789
1.5061501
1.5069016
1.5012023
1.5021191
1.5017011
1.5032097
1.5030642
1.5022329
1.5029109
1.5028512
1.5018971
1.5012418
1.5010743
1.502239
1.5036771
1.5037484
1.5053649
1.5147974
1.5132422
1.5137966
1.5120785
1.5124771
1.515264
1.5148639
1.5137796
1.5126049
1.5138933
1.512934
1.5150042
1.5154342
1.5108862
1.5121805
1.5095199
1.5082246
1.5105586
1.510984
1.5074266
1.5073769
1.5084634
1.5091197
1.5104449
1.5142563
1.5148659
1.5136103
1.5098368
1.5104105
1.5120009
1.5152571
1.5155104
1.5152341
1.5153632
1.5134149
1.5146303
1.5151099
1.5153856
1.5064645
1.5132488
1.5141832
1.5114946
1.5148428
1.509683
1.5152426
1.5153478
1.5153019
1.5141316
1.5151279
1.513522
1.5153857
1.5126182
1.515425
1.5121928
1.5153621
1.515129
1.5148352
1.5143811
1.515358
1.5141854
1.5154957
1.5145109
1.5130322
1.5152281
1.5154237
1.5150199
1.514878
1.5153156
1.5146028
1.5154872
1.5148443
1.5153549
1.5133242
1.5151991
1.5152495
1.5153689
1.5149838
1.5139622
1.5129475
1.5145885
1.5151144
1.5108551
1.5131416
1.5153014
1.5152417
1.5151772
1.5150889
1.5150289
1.5152542
1.5139963
1.514492
1.5149005
1.5150386
1.5098449
1.5137188
1.5149056
1.5148677
1.514576
1.5154003
1.5158471
1.5159836
1.5162556
1.5046026
1.504745
1.5061976
1.5058699
1.5063728
1.5077849
1.5075483
1.5073049
1.5071162
1.5062825
1.5065254
1.5090505
1.5093018
1.5091898
1.5023998
1.503395
1.5029761
1.5048664
1.5045893
1.5046218
1.5049686
1.5046644
1.5039923
1.5033852
1.5027309
1.5048041
1.5062115
1.5058042
1.5083797
1.5022202
1.5017474
1.5043154
1.501922
1.5035764
1.5032317
1.502166
1.5028537
1.5027621
1.503854
1.5005865
1.5018589
1.5055531
1.5031551
1.5041833
1.5089934
1.5151445
1.5139566
1.5147073
1.5130397
1.5135752
1.5121713
1.515361
1.5145901
1.5133054
1.5121957
1.5138092
1.5146405
1.5124008
1.5132112
1.5096139
1.5137514
1.5137326
1.511298
1.5144706
1.508891
1.5071505
1.5074281
1.5079442
1.511565
1.5102341
1.5072429
1.5082071
1.5147694
1.5127978
1.5147322
1.5142625
1.5118522
1.5132029
1.5140881
1.514218
1.5093411
1.5070286
1.5100279
1.5152636
1.5155674
1.5146015
1.5155382
1.5154891
1.5149541
1.5151508
1.5152379
1.5140269
1.5128613
1.5146215
1.5150963
1.5105462
1.5128114
1.5153829
1.5154061
1.5152389
1.514639
1.514095
1.5152917
1.5137087
1.5154813
1.5143018
1.5128854
1.5152996
1.5154457
1.5150345
1.514813
1.5151846
1.514619
1.5154721
1.5153685
1.5149054
1.5128569
1.5151391
1.5152716
1.5154922
1.5149402
1.5152304
1.514851
1.5154877
1.51512
1.5151998
1.515935
1.514808
1.5115912
1.5152014
1.5153568
1.5150319
1.5154552
1.5151448
1.5137751
1.5145337
1.5150088
1.5152689
1.5097524
1.5133361
1.5148957
1.5153188
1.5151477
1.5151016
1.5150688
1.515204
1.5154011
1.5146349
1.5147819
1.5149707
1.5093699
1.5129745
1.5150094
1.5147866
1.5152542
1.5149221
1.5148397
1.5143738
1.5153587
1.5164825
1.5163569
1.5149813
1.5040375
1.5051147
1.504696
1.5066007
1.5069105
1.5090873
1.5074787
1.5068134
1.5070908
1.5064819
1.5057951
1.5074481
1.5094987
1.507979
1.5107819
1.5035037
1.5027363
1.5049003
1.5033887
1.5054656
1.5064171
1.5045187
1.5046312
1.5048051
1.5054613
1.502397
1.5039394
1.5083151
1.5054587
1.507029
1.5111387
1.5023082
1.503204
1.5026705
1.5028548
1.5026255
1.5038976
1.5029207
1.5031659
1.5030764
1.5024605
1.5036778
1.5007326
1.5008842
1.5038648
1.5059529
1.5037756
1.5060781
1.5079849
1.5145427
1.5143362
1.5117025
1.5126761
1.5146598
1.511502
1.5094857
1.5149185
1.5145255
1.5149082
1.5149474
1.5129075
1.5143711
1.5109782
1.5089187
1.5061342
1.5069095
1.5072435
1.5061731
1.5066076
1.5114147
1.5122498
1.5142947
1.5134842
1.515349
1.5147413
1.5150283
1.515013
1.5147176
1.5137854
1.5095847
1.5055482
1.5103527
1.5154465
1.5154127
1.5156376
1.5156173
1.5154039
1.515339
1.5145927
1.5149787
1.5101078
1.5131239
1.5147929
1.5154601
1.5153606
1.5151399
1.5146584
1.5150517
1.5153608
1.5148579
1.5126112
1.5152136
1.5153862
1.5154474
1.5149042
1.5151463
1.5151225
1.5154707
1.5152659
1.5156665
1.5156663
1.5148545
1.5105986
1.5150287
1.5152018
1.5153714
1.5154615
1.5149469
1.5149773
1.5160438
1.5151653
1.5142698
1.5126623
1.5152404
1.5153759
1.5154899
1.5150283
1.5146003
1.5149248
1.5152562
1.5090176
1.5127345
1.5148731
1.5148622
1.5154694
1.5152467
1.5152701
1.5150353
1.51503
1.5151852
1.5151923
1.5149427
1.5106411
1.51261
1.5147258
1.5156295
1.5152662
1.5146755
1.514351
1.5159844
1.5169827
1.515959
1.51119
1.5052915
1.5041165
1.5089715
1.5099171
1.5070746
1.5067018
1.5072685
1.5074721
1.5057994
1.5063511
1.5097512
1.5079348
1.5093111
1.5128988
1.5035267
1.5047096
1.5037591
1.5054907
1.5054324
1.50631
1.504436
1.5053349
1.5043411
1.5046165
1.5047901
1.5018243
1.5025943
1.5065623
1.5096691
1.5066598
1.5092292
1.5115347
1.5022911
1.5031995
1.5031639
1.503511
1.5023841
1.5014208
1.5016712
1.500623
1.5023355
1.5059637
1.520489
1.5052867
1.5099427
1.5088188
1.5134033
1.5153955
1.5145426
1.5131823
1.5112762
1.5118488
1.5154717
1.5132062
1.5114557
1.5100824
1.5150246
1.5152314
1.515385
1.5150759
1.5154205
1.5143601
1.5155969
1.5127753
1.5113202
1.5095191
1.5052409
1.5051166
1.5059191
1.5060353
1.5062982
1.5118316
1.5131953
1.5124651
1.5139907
1.5151573
1.5147451
1.5156181
1.5145178
1.5149831
1.5148506
1.5152874
1.5153053
1.5093428
1.5083909
1.5157804
1.5156222
1.5155808
1.5151292
1.5090401
1.5131641
1.5148268
1.5155112
1.5154765
1.5152939
1.5149716
1.5157583
1.5156913
1.5149027
1.51002
1.5150326
1.5153253
1.5154879
1.514854
1.5156369
1.5158989
1.5156758
1.5136265
1.5116883
1.5150287
1.5151544
1.5153258
1.5149374
1.5149305
1.5159243
1.5152537
1.5168097
1.5150948
1.5164565
1.5156275
1.5149191
1.5100467
1.5126215
1.5146204
1.5155478
1.5155404
1.5151842
1.5149885
1.5150965
1.5152219
1.51505
1.5131951
1.5129104
1.514651
1.5153994
1.5155159
1.515362
1.5145041
1.5146042
1.5158875
1.517857
1.5131815
1.5133759
1.5095247
1.5085344
1.5086173
1.5078659
1.5072568
1.5068278
1.5038189
1.5059674
1.5090488
1.5121857
1.5089751
1.5116287
1.5154407
1.5052773
1.5060048
1.5055344
1.5063172
1.5048835
1.5035099
1.5035066
1.5018561
1.5044801
1.5093814
1.5152353
1.5079472
1.5123403
1.5133599
1.5038078
1.5023857
1.5077025
1.5025687
1.5046013
1.5044997
1.5015656
1.5023266
1.5013935
1.5052378
1.5170615
1.5398174
1.5145744
1.5079112
1.5057443
1.51555
1.5131544
1.5143676
1.5159223
1.5157651
1.5146963
1.5130437
1.5134896
1.5113066
1.5102106
1.5124849
1.5132216
1.5111928
1.5147783
1.5158957
1.5131479
1.5124191
1.5109632
1.5143947
1.5153396
1.5156945
1.5130869
1.5118287
1.5100908
1.5129248
1.5134603
1.514563
1.5123655
1.5139671
1.5150729
1.5156344
1.5154986
1.5156423
1.5092199
1.507957
1.5056913
1.5085351
1.5092288
1.5159204
1.5155066
1.5153856
1.5150598
1.5149829
1.5151692
1.5152157
1.5100097
1.5129798
1.5147763
1.5155545
1.5156795
1.5153983
1.5151923
1.5148635
1.5158154
1.5159205
1.5159142
1.5131534
1.5111692
1.5150409
1.515228
1.5154432
1.5148591
1.5155766
1.5158825
1.5160251
1.5158551
1.5142862
1.5153608
1.5152847
1.5148964
1.5149909
1.515451
1.5154444
1.5172737
1.5164768
1.5184598
1.5162257
1.5158852
1.514709
1.5129288
1.5148049
1.5155626
1.5156489
1.5155063
1.5150791
1.5149967
1.515113
1.5150933
1.5144156
1.5140534
1.5154223
1.5152432
1.5158185
1.5157422
1.5151116
1.515337
1.5143003
1.5138728
1.5147968
1.5141119
1.5138069
1.5096984
1.5091937
1.5084802
1.5089493
1.5083526
1.5069987
1.5061661
1.504338
1.5083216
1.5122747
1.5157373
1.5115996
1.5156421
1.5168273
1.5064399
1.5054747
1.5097191
1.5053897
1.5074864
1.5069713
1.5036875
1.5048242
1.5029208
1.5081623
1.515424
1.5206927
1.5148007
1.5134434
1.5111491
1.5033443
1.5070936
1.501415
1.518771
1.5039582
1.5023263
1.5022614
1.5026572
1.519528
1.5253983
1.5318364
1.5121771
1.505607
1.5102626
1.5175518
1.5160455
1.5166382
1.5158113
1.5135607
1.5145344
1.5134136
1.515499
1.5161185
1.5163197
1.5140957
1.513492
1.5131979
1.5121324
1.5108109
1.5121652
1.5117628
1.5157705
1.5144993
1.516045
1.5141529
1.5134699
1.513215
1.5145212
1.5154532
1.515586
1.5134288
1.510732
1.5157517
1.5145631
1.5151716
1.5141611
1.5148415
1.5154764
1.5133396
1.5152263
1.5156605
1.5158428
1.5154662
1.5080005
1.5083757
1.5057615
1.5076324
1.516288
1.5159685
1.5161374
1.5151743
1.5150992
1.5150655
1.5148667
1.5148633
1.5148566
1.5156518
1.5157596
1.5156619
1.5152613
1.5148912
1.5157944
1.5159459
1.5162294
1.5154553
1.5153336
1.5148558
1.515535
1.515754
1.5161712
1.5167296
1.5161763
1.5169154
1.5153624
1.5153291
1.5147435
1.5147826
1.5147567
1.5156638
1.5167357
1.5161715
1.5180421
1.5165943
1.5148076
1.5145182
1.5144626
1.5152026
1.5152328
1.51578
1.5158445
1.5155706
1.5154441
1.5149794
1.5149389
1.514793
1.5145864
1.5142433
1.5170167
1.5168371
1.5159371
1.5159461
1.5160366
1.5151195
1.5152897
1.5149319
1.5152795
1.5146244
1.5142912
1.5139898
1.5099999
1.5097727
1.5091477
1.510913
1.5099221
1.5075816
1.5063579
1.5115719
1.5157214
1.5178557
1.5161926
1.5172889
1.5162204
1.5059228
1.5088961
1.5039444
1.5162898
1.5069318
1.5049398
1.5048402
1.5058906
1.5151517
1.519673
1.518756
1.5157017
1.511043
1.5132235
1.5040315
1.5047103
1.502145
1.5253748
1.5189283
1.5056831
1.5036697
1.5073831
1.5091717
1.5152209
1.5247842
1.5221113
1.5091223
1.5106611
1.5091559
1.5170622
1.5169031
1.5181347
1.5190934
1.5185686
1.5159273
1.5165598
1.5169417
1.5166641
1.5169949
1.5161027
1.5154985
1.5161465
1.5164106
1.5165261
1.5154424
1.5132528
1.5131429
1.5127511
1.5143085
1.5148652
1.5123279
1.5161489
1.513751
1.5156518
1.5158529
1.5159475
1.5148662
1.5130308
1.5148914
1.5155428
1.5152396
1.5093296
1.5139038
1.5171162
1.5166381
1.5146729
1.5111569
1.5173448
1.5163926
1.5164051
1.5157385
1.5156388
1.5154819
1.5160541
1.5158052
1.5151607
1.5159085
1.5157904
1.5151562
1.5165346
1.5164194
1.5160389
1.515282
1.515171
1.5163876
1.5159761
1.5158596
1.5157821
1.5159164
1.5157624
1.515567
1.5157069
1.5158944
1.5162929
1.5165065
1.5148138
1.5154627
1.5156041
1.5162278
1.5166404
1.5166317
1.5180955
1.5172626
1.5151261
1.5154853
1.5147124
1.5146943
1.5159445
1.5160358
1.515531
1.5177576
1.5179901
1.5129701
1.5154122
1.5151257
1.5154884
1.5144373
1.5168375
1.516541
1.5160394
1.5159896
1.515935
1.5154698
1.5153907
1.5150752
1.515404
1.5147301
1.5146315
1.5143512
1.5183205
1.5165529
1.5126342
1.5158667
1.5157631
1.5158119
1.5153088
1.5153536
1.5149153
1.5153744
1.5145355
1.514332
1.5141186
1.5093316
1.5083555
1.5106361
1.5090935
1.5158894
1.5177813
1.5188423
1.5179049
1.5165065
1.5157169
1.5065256
1.507021
1.5046943
1.5202014
1.5184404
1.5084778
1.5071131
1.512239
1.5127353
1.5171429
1.5185178
1.5206227
1.5139598
1.5134063
1.5116365
1.5081319
1.5026527
1.5036144
1.5226781
1.5138794
1.5167362
1.5094493
1.5186647
1.5092603
1.5116431
1.5117202
1.5195807
1.553984
1.5140822
1.5079933
1.506464
1.5192537
1.5173449
1.5183166
1.517636
1.5186695
1.5192665
1.5191663
1.5192062
1.5191601
1.5183053
1.5167967
1.5169521
1.5169873
1.5165409
1.5167367
1.5166591
1.5164966
1.5171074
1.5165778
1.5173161
1.513989
1.5144102
1.5178007
1.513424
1.5124646
1.5131745
1.5097406
1.5107066
1.5156519
1.5113107
1.511216
1.5140628
1.5153949
1.5180619
1.5177251
1.5168606
1.5171253
1.5166414
1.5154227
1.51889
1.517951
1.5173156
1.516821
1.5162849
1.5161332
1.5160703
1.516149
1.5160376
1.5160363
1.5162879
1.5154781
1.5169154
1.5157762
1.516355
1.5158044
1.5157273
1.5151805
1.5151327
1.5155911
1.5163286
1.5160482
1.5156508
1.5155738
1.5159978
1.5163409
1.5148061
1.5155269
1.51633
1.5164876
1.5167243
1.5179994
1.5182816
1.517272
1.5155223
1.5151362
1.5164093
1.5147229
1.5156296
1.5157701
1.5150421
1.5188634
1.5171052
1.5176766
1.5153483
1.5184025
1.5154281
1.5161359
1.5151058
1.5156756
1.5144712
1.5182482
1.5172572
1.5163757
1.5162128
1.5159991
1.5158972
1.5154544
1.5153949
1.5150356
1.5158947
1.5147127
1.5146513
1.5144111
1.5197595
1.5190562
1.5169298
1.5156095
1.5163274
1.5155206
1.5155866
1.5155415
1.5153735
1.5161327
1.514875
1.5154859
1.5145064
1.5143698
1.5145199
1.5082218
1.5177763
1.5187295
1.5199772
1.5178038
1.5161858
1.5145059
1.5097936
1.5050265
1.5070707
1.5225525
1.5195285
1.5161963
1.511775
1.5166794
1.5123091
1.5146084
1.5154766
1.520031
1.5207155
1.5150706
1.5114657
1.5093097
1.5052931
1.5027388
1.5105613
1.5292699
1.5266236
1.5149346
1.5042115
1.5146903
1.5282571
1.5080554
1.5168927
1.5052687
1.5126001
1.5484436
1.537697
1.5083781
1.5061769
1.5035417
1.5200036
1.5192351
1.5167348
1.5182867
1.5184731
1.5181338
1.5190443
1.5195893
1.5193006
1.5189646
1.5195814
1.5200394
1.519702
1.5170631
1.5180702
1.5193993
1.5191533
1.5165643
1.5169137
1.517202
1.5165848
1.5168217
1.5166405
1.5165829
1.5164537
1.5163915
1.510234
1.5148874
1.5103701
1.5145523
1.513219
1.5166237
1.518261
1.5126321
1.5090156
1.515584
1.5181868
1.5199059
1.5182859
1.5193319
1.5184915
1.5175905
1.5169221
1.5176779
1.5191711
1.5200675
1.5177092
1.5160649
1.5166356
1.5164305
1.5161136
1.5160166
1.5159784
1.516261
1.5159489
1.5159222
1.5167451
1.5156257
1.5163807
1.5151924
1.515431
1.5151305
1.5163914
1.5160489
1.5147956
1.5163621
1.5164472
1.5168349
1.5182171
1.5171399
1.5184399
1.5166212
1.5180327
1.5154933
1.5164156
1.5151224
1.5165078
1.5147211
1.517186
1.5180907
1.5169481
1.5163823
1.5187235
1.5178118
1.5171239
1.5153848
1.5150552
1.5142763
1.5197964
1.5185351
1.5174073
1.5162592
1.5165871
1.5160294
1.5159305
1.5158592
1.5153635
1.5159151
1.5150077
1.5159114
1.5147152
1.514649
1.5146871
1.5210321
1.5200575
1.5198101
1.5165029
1.5163268
1.5164915
1.5153486
1.5148501
1.5144518
1.5146096
1.5142913
1.5180312
1.519595
1.5208675
1.5168294
1.5146225
1.5124112
1.5157842
1.5093581
1.5063279
1.5134908
1.5214322
1.5223315
1.5174695
1.5085503
1.5146389
1.5203621
1.5120728
1.5177425
1.5106605
1.5159025
1.5200075
1.5222669
1.5113016
1.5092884
1.5063172
1.5107668
1.5266018
1.5092065
1.5300234
1.5087369
1.5247537
1.5107438
1.5159543
1.5188179
1.5249144
1.5343749
1.5431391
1.5054631
1.502638
1.5019029
1.51838
1.5197293
1.5181627
1.5176225
1.5182886
1.5174654
1.5187375
1.5181124
1.5193611
1.5197861
1.5194846
1.5180665
1.5193747
1.5196785
1.5191218
1.5175785
1.5177588
1.5180118
1.5175291
1.5189308
1.5222006
1.5199951
1.5185438
1.5218851
1.5200544
1.5196679
1.5203495
1.5199564
1.5199583
1.515385
1.5164903
1.5168649
1.5176024
1.5195845
1.5164393
1.5198466
1.5180831
1.5183022
1.518436
1.5176851
1.5221289
1.5194523
1.5204858
1.5203262
1.5204759
1.5198731
1.5176957
1.5195813
1.5189034
1.5167944
1.5190971
1.5208719
1.515951
1.516681
1.5166618
1.5168332
1.516578
1.5163499
1.5163327
1.5155706
1.5151769
1.5153936
1.5151216
1.5160658
1.5147849
1.5172898
1.5181109
1.5169383
1.5163549
1.5187585
1.5180724
1.5164468
1.5154519
1.5151107
1.5147282
1.5171991
1.5168088
1.516376
1.5180593
1.5164429
1.5152647
1.5188145
1.5187005
1.5163681
1.5153828
1.5149293
1.5150637
1.5207971
1.5202665
1.5188598
1.5173903
1.516668
1.5159146
1.5153083
1.5150021
1.5147177
1.5147047
1.5144775
1.5220212
1.522045
1.5206709
1.5195262
1.5174266
1.5171752
1.5158218
1.5153765
1.5147968
1.5146143
1.5144905
1.5146311
1.5186001
1.5205349
1.5221777
1.5144891
1.5126322
1.5155919
1.5098292
1.514203
1.5117528
1.517783
1.5120436
1.5178802
1.513511
1.5166557
1.5155001
1.515735
1.5187843
1.5194495
1.5218604
1.52489
1.5082464
1.5054131
1.5044058
1.5030965
1.5191662
1.509171
1.508915
1.5020972
1.5357794
1.5080683
1.5408764
1.5048337
1.5153468
1.5109688
1.537967
1.532445
1.5283541
1.5028671
1.502654
1.502151
1.5019725
1.5144346
1.5182276
1.5147988
1.5186944
1.5178729
1.5187159
1.5175481
1.5182659
1.5169038
1.5161347
1.518876
1.5181902
1.5195982
1.5196965
1.5165689
1.521105
1.5179434
1.5172581
1.5212445
1.517373
1.517718
1.5172354
1.5177386
1.5197971
1.517562
1.516862
1.5166353
1.5240907
1.5229578
1.5219337
1.521981
1.5200272
1.5191123
1.5188925
1.519807
1.5174426
1.5232332
1.5218685
1.522377
1.5218518
1.5218303
1.5212332
1.519747
1.519275
1.5201254
1.5200485
1.5201292
1.5197873
1.5189651
1.5161467
1.5140049
1.5149076
1.5162215
1.5141063
1.5158677
1.5165033
1.515684
1.5118923
1.5117361
1.5133789
1.5132132
1.516438
1.5186666
1.5185776
1.5224225
1.5197111
1.5202295
1.5204349
1.5195698
1.5194605
1.5182223
1.5180992
1.517816
1.5178112
1.5183107
1.5174877
1.5176004
1.5166971
1.5228318
1.5222436
1.5218144
1.5214762
1.5216951
1.5222373
1.5230176
1.5225019
1.5218669
1.5190172
1.5206848
1.5204475
1.5203675
1.5204122
1.5184849
1.5212077
1.5158975
1.5165978
1.5163532
1.5165479
1.5167879
1.5163458
1.5163669
1.5167902
1.5165793
1.5163923
1.5164042
1.5158663
1.5153523
1.5155217
1.5151665
1.5151084
1.5160776
1.5147752
1.5172493
1.516993
1.516815
1.5181192
1.5163674
1.5147763
1.5188773
1.5182022
1.5163599
1.5154304
1.5150941
1.5147392
1.5166126
1.5170608
1.5164462
1.5167938
1.5159101
1.5179746
1.5165377
1.5129941
1.5156428
1.5189378
1.5181476
1.5163458
1.5153802
1.5149573
1.5145771
1.5219213
1.5221102
1.5206236
1.5187765
1.5174906
1.5166999
1.5158434
1.515281
1.5150021
1.5147282
1.5146539
1.5148089
1.5232701
1.522795
1.5225258
1.5208122
1.5187031
1.5174926
1.5166097
1.5158228
1.5154055
1.5148687
1.5145824
1.5146436
1.5143209
1.5200357
1.521719
1.5227259
1.5113546
1.5150864
1.5090287
1.5141418
1.5080462
1.506165
1.5163501
1.5121867
1.5107646
1.5047375
1.5192717
1.5139497
1.5240453
1.5117512
1.5201709
1.5144965
1.5207572
1.5250787
1.5217622
1.5055715
1.5052104
1.5049453
1.5046464
1.5018567
1.5331695
1.5058092
1.5060558
1.5027492
1.5013826
1.5016309
1.5267166
1.5261872
1.5265898
1.5065214
1.5095117
1.5116418
1.5269428
1.5253731
1.5134953
1.5027486
1.5028613
1.5018179
1.5021643
1.5098599
1.515512
1.5145693
1.5089479
1.5200257
1.5210037
1.5170892
1.5169691
1.5182769
1.5160929
1.5144647
1.5182963
1.516977
1.5169957
1.5167992
1.5168113
1.5168972
1.5166516
1.5169203
1.5169665
1.520389
1.5135053
1.5144714
1.5153842
1.516764
1.5192942
1.5134736
1.5143068
1.5154425
1.5171394
1.5171168
1.5174155
1.5198001
1.5175599
1.5175998
1.5171776
1.5171031
1.5172166
1.5171188
1.5172873
1.5173581
1.5169903
1.517009
1.5168075
1.5168562
1.51754
1.5219121
1.5196782
1.5195311
1.5182484
1.5185278
1.5190274
1.519621
1.5200521
1.5173178
1.5168824
1.516863
1.5170475
1.5169048
1.5164532
1.5158311
1.5159961
1.5161155
1.5155699
1.5165291
1.5143788
1.5145464
1.5125578
1.5131268
1.5140665
1.5144613
1.5247116
1.5239467
1.5240502
1.523547
1.5245757
1.5232338
1.5233237
1.5215127
1.5211797
1.5200401
1.5195271
1.5194005
1.5199018
1.5199473
1.5173279
1.5173326
1.5182158
1.5169163
1.5166351
1.5233832
1.5232223
1.5229074
1.5229912
1.5225913
1.5222816
1.5231974
1.522194
1.5218594
1.5218203
1.5196019
1.5201786
1.5201582
1.5201811
1.5199424
1.5200197
1.5190311
1.5190744
1.5183564
1.5154184
1.5134988
1.5111806
1.5141468
1.5121422
1.514077
1.5156651
1.5157286
1.5158209
1.511839
1.5166411
1.5143739
1.5084787
1.5078347
1.5138174
1.5191722
1.5226604
1.5229351
1.5231471
1.5230369
1.5223977
1.522324
1.5197014
1.5200879
1.5201943
1.5194645
1.5193883
1.5206582
1.5206601
1.5188986
1.5187785
1.5174287
1.5182073
1.5181442
1.5182218
1.5178846
1.5178704
1.5166832
1.5166618
1.5174249
1.5223688
1.5226707
1.5224335
1.5219169
1.5224993
1.5230123
1.5231663
1.5231928
1.5227497
1.5221574
1.5201822
1.5193379
1.5227217
1.5240975
1.5230895
1.5219378
1.5217225
1.5185818
1.52123
1.5165593
1.5167455
1.5165521
1.5165317
1.5163429
1.5163915
1.5167526
1.5163722
1.5163359
1.5153181
1.5158713
1.5163792
1.515475
1.5154975
1.5163823
1.5158643
1.5153303
1.5151476
1.5150977
1.5160964
1.5147684
1.5168005
1.5172038
1.5165534
1.5167582
1.5165698
1.5180984
1.5164278
1.5122554
1.5151221
1.51895
1.5182492
1.5163439
1.5154033
1.5150958
1.5147206
1.5164238
1.516493
1.5170026
1.5164328
1.5164382
1.5163902
1.5165696
1.5179822
1.516293
1.5126858
1.5154745
1.5189492
1.5182063
1.5163345
1.5152966
1.5149988
1.5148616
1.5232325
1.5226365
1.5228432
1.5206171
1.518765
1.5174651
1.5166671
1.5158213
1.5152494
1.515
1.5147154
1.5146927
1.514513
1.5241438
1.524328
1.5235204
1.5226666
1.5210024
1.5186815
1.5174758
1.5166096
1.5158133
1.5154665
1.5148502
1.5146344
1.5144884
1.5142166
1.5209244
1.5225759
1.5218608
1.5087801
1.5084836
1.5133087
1.5143286
1.5087012
1.5087261
1.504519
1.5228515
1.5089809
1.5099565
1.5060502
1.5040135
1.5037443
1.519551
1.5231088
1.5281626
1.5129313
1.5133531
1.5150073
1.5226871
1.519922
1.520721
1.5051775
1.5065614
1.5048286
1.5043581
1.5011763
1.5024174
1.5212688
1.524243
1.5019946
1.506272
1.5055335