/*--------------------------------*- C++ -*----------------------------------*\
  =========                 |
  \\      /  F ield         | OpenFOAM: The Open Source CFD Toolbox
   \\    /   O peration     | Website:  https://openfoam.org
    \\  /    A nd           | Version:  7
     \\/     M anipulation  |
\*---------------------------------------------------------------------------*/
FoamFile
{
    version     2.0;
    format      ascii;
    class       volScalarField;
    location    "2000";
    object      nut;
}
// * * * * * * * * * * * * * * * * * * * * * * * * * * * * * * * * * * * * * //

dimensions      [0 2 -1 0 0 0 0];

internalField   nonuniform List<scalar> 
34124
(
3.1345348e-92
6.9540583e-92
1.9331591e-92
1.6771219e-92
2.2645811e-91
5.2866856e-92
1.8609458e-92
4.4962891e-92
9.6978202e-93
1.4873761e-92
4.4004032e-91
1.9055388e-91
5.6953901e-92
7.1763602e-92
1.4682355e-92
3.2357384e-92
3.8649613e-92
9.7609207e-93
6.9746047e-93
5.0763983e-93
3.9931509e-91
3.3155475e-91
1.0524621e-90
2.1904092e-91
3.750007e-92
3.9597458e-92
4.5663284e-92
3.2452958e-92
2.8582066e-92
5.5734328e-92
3.3445834e-92
1.292696e-92
8.7390943e-93
3.9970992e-93
9.3842968e-93
1.0139184e-91
2.2813946e-91
6.728345e-91
3.3033662e-91
6.4375961e-91
2.5711745e-90
8.4227275e-92
5.9625786e-92
2.9153613e-92
5.7211415e-92
3.7809352e-92
6.9287868e-92
2.4696521e-92
2.6586011e-92
1.0333078e-91
1.7469722e-92
7.1504979e-93
7.8877778e-93
5.3837991e-93
6.0620151e-93
1.9277887e-92
6.5601483e-92
9.7020137e-92
4.307682e-91
1.0702712e-91
4.025365e-91
2.2444409e-90
3.7010335e-91
6.1686656e-91
9.971522e-91
2.3994695e-90
6.5878823e-92
5.740783e-92
8.6957676e-92
2.9914377e-92
1.4029718e-91
2.4551321e-92
3.0666936e-92
1.3608735e-92
1.572417e-92
6.4266503e-92
9.5873849e-92
1.1789525e-92
9.1435625e-93
1.0548488e-92
1.4550909e-92
5.2808538e-93
1.4679141e-92
6.8677965e-93
1.2712697e-91
4.4108085e-92
3.0824782e-91
8.2226529e-92
1.4516193e-91
1.4778155e-90
1.2514055e-91
3.4279303e-91
6.8235886e-91
1.3483111e-90
5.5105666e-92
7.2574545e-91
8.403263e-91
1.0592234e-90
1.7368511e-90
6.5440448e-92
3.7755379e-92
1.685277e-92
2.6091082e-92
1.5849277e-91
9.1592092e-92
4.095173e-92
1.7199647e-92
3.9808315e-92
8.2069927e-92
4.6955456e-92
7.9671716e-92
2.1369355e-92
1.143591e-92
1.7504583e-92
1.5429907e-92
1.2673834e-92
4.8001452e-93
9.8856858e-93
1.0669449e-92
2.8785837e-93
2.1396087e-91
5.9836433e-92
2.1991659e-91
7.1771174e-92
1.2361571e-91
5.4227529e-91
1.3362243e-91
1.7137761e-91
5.4741777e-91
1.0788961e-90
6.3986527e-92
4.953875e-91
6.1243404e-91
6.1936424e-91
9.8609958e-91
2.4656847e-92
1.2285737e-91
1.3908082e-90
8.2481506e-91
8.4390733e-91
9.301045e-91
1.1778532e-91
5.4176672e-92
6.5753507e-92
1.3342647e-91
3.5972238e-92
7.5795497e-92
5.7079026e-92
1.9923813e-92
5.0141691e-92
7.5600674e-92
7.1467564e-92
3.4461053e-92
4.0661616e-92
1.8412044e-92
8.326406e-93
2.528702e-92
2.4583759e-92
1.1086025e-92
7.6370627e-93
3.9173692e-93
2.8629744e-92
1.4981755e-92
4.202962e-93
1.0882144e-93
1.7655008e-91
9.2470291e-92
4.0126864e-91
4.4047705e-92
1.7722586e-91
5.7215786e-91
9.511756e-92
1.1603158e-91
2.9078144e-91
4.8802241e-91
2.1386879e-91
3.1049675e-91
6.6984886e-92
9.5324964e-91
6.6044443e-91
6.7872636e-92
1.2017898e-91
6.8941247e-91
5.0916698e-91
5.0152379e-91
5.2396529e-91
1.0417236e-91
3.2568348e-92
2.7485047e-91
2.1919579e-90
5.3698929e-91
6.7176189e-91
6.1822219e-91
5.080363e-92
9.9861335e-92
1.1287143e-91
7.0123564e-92
1.0093496e-91
4.914057e-92
3.3869808e-92
2.7016421e-92
4.4938258e-92
4.62522e-92
6.6845896e-92
5.9162549e-92
2.6887008e-92
2.6355619e-92
2.2267826e-92
1.559736e-92
2.585972e-93
9.7840212e-93
1.5455468e-92
1.1504784e-92
1.7522967e-92
3.6782125e-93
7.9559557e-93
1.5613597e-92
1.4026667e-92
3.4754883e-93
4.4508875e-93
1.9977845e-91
3.6475225e-91
1.0623415e-91
1.4238046e-91
1.6526447e-91
5.0183734e-91
9.2723314e-92
1.4360317e-91
3.5096719e-91
5.5165518e-91
1.1258509e-91
1.6663443e-91
8.8123556e-92
4.4292419e-91
3.8954331e-91
2.0999841e-91
1.577549e-91
5.163724e-91
4.1996365e-92
6.1807666e-91
5.0616303e-91
1.4867045e-91
4.7720057e-92
2.6416785e-91
8.9273598e-91
4.1082906e-91
5.1570342e-91
5.2199351e-91
9.4404777e-92
7.2814303e-92
9.6372585e-92
4.7588012e-91
9.7703368e-91
4.5326102e-91
4.5716915e-91
5.7328914e-91
1.3976695e-91
1.4194956e-91
8.3693035e-92
5.1060476e-92
7.1746068e-92
6.0603035e-92
3.5951658e-92
3.3335622e-92
1.0037878e-92
1.8838973e-92
2.7305073e-92
2.5436765e-92
3.2297156e-92
1.7842007e-92
1.4693443e-92
2.1610615e-92
3.567799e-92
5.3430476e-93
7.8695405e-93
1.1477303e-92
9.8990519e-93
1.6448519e-92
2.8473818e-92
2.0108479e-93
4.8202991e-93
9.6636046e-93
6.1080873e-93
5.1591315e-93
5.1210271e-93
8.756242e-94
3.3556868e-91
4.8620837e-91
2.1306572e-91
8.7157376e-92
4.5059226e-91
1.2336065e-91
5.3420328e-92
1.2160173e-91
1.9554992e-91
6.5553994e-91
2.2599045e-91
2.1798827e-91
5.2514061e-92
5.6010234e-91
4.2578232e-91
2.5789132e-91
7.3442439e-92
2.6711613e-91
5.6893354e-92
4.6337641e-91
4.1169313e-91
1.8946248e-91
1.7701537e-91
7.8646699e-92
9.3534071e-91
2.3163347e-92
5.7293794e-91
4.226847e-91
7.7776074e-92
5.7218062e-92
1.1013658e-91
4.8051327e-91
1.2082549e-90
4.4153422e-91
3.362917e-91
3.9389351e-91
7.090012e-92
9.3957469e-92
1.0354668e-91
2.2649908e-91
9.2205882e-91
6.4735292e-91
4.7953609e-91
4.6822725e-91
9.2824307e-91
8.6024565e-92
6.4402439e-92
5.4313475e-92
8.0075354e-92
5.7694224e-92
2.6734051e-92
2.6800931e-92
6.3013999e-92
2.0469275e-92
1.4044263e-92
2.3216288e-92
2.2688826e-92
3.3170447e-92
2.5425426e-92
1.5790569e-92
1.4238025e-92
2.1397061e-92
1.3585244e-92
1.3182276e-92
1.1718648e-92
4.7614737e-93
1.6261831e-92
1.8492316e-92
6.4161249e-93
8.1641039e-93
1.5351056e-92
4.7256723e-93
9.7145849e-93
6.7906146e-93
7.0594227e-93
8.8299057e-93
2.0653877e-93
1.8430528e-93
5.689798e-91
8.9853939e-92
2.6514701e-91
3.8157452e-91
7.3931407e-91
1.1668658e-91
1.3627968e-91
1.9489338e-91
6.2579192e-91
1.0299681e-91
5.3573377e-92
1.1840917e-91
2.0328653e-91
2.9791965e-91
7.6679625e-91
4.8966489e-91
9.0071689e-92
4.575252e-91
8.1422086e-92
5.7655019e-91
3.7914174e-91
1.2852511e-91
2.3145911e-91
5.9065732e-92
4.7011308e-91
4.0911775e-92
4.443795e-91
2.971944e-91
2.6229724e-91
3.6808741e-91
3.3665331e-91
5.2820917e-92
8.5881676e-91
1.0766352e-92
3.7948651e-91
5.3387183e-91
4.1045707e-92
9.2851314e-92
3.1278712e-92
2.263385e-91
5.9128424e-91
7.5183199e-91
3.5441604e-91
3.4852595e-91
9.910199e-91
1.4811654e-91
2.9833515e-91
1.5942104e-91
2.8914442e-92
4.352196e-91
7.4341093e-91
5.6329337e-91
3.8473524e-91
5.9996298e-91
1.5332766e-90
8.8885337e-92
8.3238579e-92
9.3417227e-92
2.5959846e-92
6.158361e-92
2.6191826e-92
3.3656807e-92
1.5619322e-92
2.9045595e-92
1.5432259e-92
1.0597533e-92
3.5721358e-92
2.9541961e-92
1.0913227e-92
1.7376488e-92
2.2923375e-92
2.1699655e-92
1.8734285e-92
1.8065023e-92
1.4112361e-92
1.378574e-92
5.2143067e-93
3.239147e-93
1.6572645e-92
1.4165619e-92
2.1682521e-92
1.533581e-92
1.5003572e-92
1.1781261e-92
9.0628547e-93
6.1513831e-93
9.599386e-93
8.1685235e-93
2.0185727e-93
1.2953339e-93
1.4994373e-93
6.398718e-91
1.1769473e-91
5.563107e-91
6.237566e-92
1.4985587e-91
2.9517778e-91
1.3275933e-91
5.2744497e-91
1.1634765e-90
1.8847433e-91
2.0247043e-91
1.1091792e-91
4.2491269e-91
7.4618219e-91
1.0256552e-91
8.4705389e-92
8.5645462e-92
3.6987206e-92
2.5732909e-91
4.1519332e-91
5.6206681e-91
3.9815187e-91
6.2000612e-91
7.9689608e-92
5.8440263e-91
5.4707143e-92
4.4857927e-91
4.118025e-91
1.7841191e-91
1.917413e-91
3.4217067e-91
5.2781986e-92
4.8835724e-91
2.1218344e-92
3.0407681e-91
2.9882087e-91
3.7077187e-91
6.2391046e-91
1.8678833e-91
5.2044223e-91
1.0346754e-91
5.3121072e-91
3.3783069e-92
3.7524934e-91
1.0194294e-90
8.3118083e-92
5.5162857e-92
9.6596612e-92
2.8589628e-92
3.782386e-91
4.0665036e-91
3.7430594e-91
2.629437e-91
5.3649108e-91
1.0404952e-90
3.815505e-92
2.2635187e-91
3.0589506e-92
2.3969721e-91
1.8011735e-92
6.1710126e-91
3.9259514e-91
3.3014333e-91
9.1116158e-91
1.1053494e-90
8.7499795e-91
1.1469075e-91
1.3619384e-91
7.3195066e-92
1.0575221e-91
4.3044309e-92
3.7730534e-92
3.375488e-92
2.8852994e-92
2.505985e-92
2.6884063e-92
1.7502643e-92
8.9566214e-93
2.5460653e-92
2.377711e-92
3.0895372e-92
2.4508701e-92
5.0366273e-92
1.6924313e-92
1.6435219e-92
1.7132305e-92
2.676135e-92
1.8085094e-92
5.2894493e-93
3.1956777e-93
4.2457466e-93
1.6694191e-92
3.7992547e-93
1.392986e-92
1.8537346e-92
7.9029865e-93
3.2702617e-93
2.3836193e-93
8.1835988e-93
5.2545711e-93
8.5016439e-93
4.9521214e-93
3.216446e-93
1.0303833e-93
7.4126171e-93
1.8932986e-91
1.0316898e-90
1.3263253e-90
2.5065498e-91
1.033047e-91
4.8152029e-91
1.178186e-91
6.9819156e-92
1.9340499e-91
1.8835915e-91
2.6180263e-91
2.377912e-91
1.1285305e-90
1.5311269e-90
1.4391581e-91
7.7533111e-92
2.47378e-91
2.2302084e-91
8.793685e-91
4.4053907e-91
8.5818546e-92
9.8667991e-92
3.4919575e-92
1.8651469e-91
3.3580725e-92
3.8632022e-91
3.9406119e-91
2.2841625e-91
4.910702e-91
1.2318483e-91
2.1371316e-90
6.7556393e-92
5.1777475e-91
2.0696771e-92
3.3572515e-91
2.8503988e-91
3.3475573e-91
3.8444698e-91
1.292968e-91
3.6205063e-91
9.743699e-92
1.9801179e-91
2.1374773e-92
2.8406166e-91
4.7793572e-91
5.5291824e-91
5.2452172e-91
9.2046448e-91
1.0422812e-91
4.371354e-91
2.6361267e-92
9.4710619e-91
7.6867934e-91
2.1310848e-91
1.4261564e-91
2.5241846e-91
1.7610852e-91
4.0500286e-92
3.5619854e-91
1.9944009e-91
2.5832111e-91
6.5873857e-91
8.8894454e-91
7.2943022e-91
2.1484649e-91
2.892169e-92
4.1302092e-91
1.6212479e-91
3.7243855e-91
4.3727369e-91
9.486166e-91
3.3631781e-91
6.9215717e-91
7.6476558e-91
8.989326e-91
6.672809e-92
6.3376064e-92
8.2690276e-92
4.4487207e-92
7.2728881e-92
2.2646276e-92
1.9451568e-92
3.3078803e-92
6.5913638e-92
3.8032429e-92
1.3581085e-92
9.6820211e-93
1.7141984e-92
1.5354834e-92
2.0137967e-92
2.6981227e-92
4.3383027e-92
5.3301686e-92
8.2551494e-93
8.5171932e-93
2.1883101e-92
2.819217e-92
1.5055904e-92
2.7939976e-92
6.1702192e-93
4.2849248e-93
2.0351845e-92
4.4042711e-93
1.0246673e-92
1.6027286e-92
1.3521269e-92
4.8886918e-93
5.6625621e-93
5.9351903e-93
2.358532e-93
8.0969751e-93
3.4746819e-93
2.5139202e-93
5.5978763e-93
2.7204818e-93
5.3340361e-93
1.259771e-92
9.4379828e-92
3.705337e-91
5.7332348e-91
4.5654998e-91
1.2297577e-90
1.6321478e-90
8.3452231e-92
3.2597479e-91
1.2184731e-91
2.0241321e-91
6.1772255e-92
2.797254e-92
1.0642457e-91
1.4983632e-91
1.8405613e-91
2.8709802e-91
1.4826287e-91
5.2033241e-91
8.7389587e-91
7.6815057e-91
5.5015446e-92
1.5905035e-91
7.4598988e-92
4.0041845e-91
5.735625e-91
6.1495531e-91
1.6991584e-91
1.073839e-91
1.2437971e-91
2.4570468e-91
1.5861028e-91
2.3022013e-91
3.8187124e-92
1.6001118e-92
3.9856829e-91
3.4993016e-91
3.0631493e-91
2.8627011e-91
3.7334632e-91
8.7355159e-91
9.7452832e-92
7.4130091e-91
5.3607377e-92
3.0800531e-91
1.8792241e-92
1.9466005e-92
2.1649216e-91
2.7479588e-91
8.7624561e-91
3.4841642e-91
2.4977557e-91
5.4168149e-91
6.4659903e-92
2.1153371e-91
4.0561051e-92
3.8913197e-91
6.140568e-91
9.7416643e-91
9.1838242e-91
6.0408487e-91
6.2903427e-91
1.2115643e-91
1.0708768e-90
6.0945219e-92
6.9620588e-91
7.7803194e-91
1.4239335e-91
1.7768007e-91
2.3084628e-91
1.2981995e-91
2.373519e-91
2.129086e-91
4.866601e-91
3.317625e-91
5.3209257e-91
6.3276982e-91
8.0285459e-91
3.6048138e-92
3.2932788e-91
1.7444778e-91
4.7669729e-91
8.3290029e-92
4.8728227e-91
9.4696529e-91
6.9848177e-91
8.7360319e-91
7.5366296e-91
1.1184311e-90
3.6177676e-92
3.8543006e-92
4.3452082e-92
9.71609e-92
7.1057792e-92
3.5892665e-92
1.476471e-92
1.5551461e-92
3.5716866e-92
1.8732383e-92
8.2776895e-92
5.9362525e-92
4.7059491e-92
2.087514e-92
1.4554501e-92
3.9873829e-92
1.6729909e-92
2.1357206e-92
2.0300621e-92
2.0837286e-92
6.2437194e-93
7.7663396e-92
1.9577398e-92
1.0002891e-92
2.3254731e-92
2.7544323e-92
2.4296066e-92
2.4733418e-92
7.9692419e-93
1.5893252e-92
2.0520909e-92
6.2528799e-93
3.9211114e-93
1.2856919e-92
1.4399672e-93
7.0754833e-93
4.05043e-93
5.9234044e-93
9.0498318e-93
3.9460925e-93
4.3517408e-93
3.6496873e-93
3.5433605e-93
7.3098319e-93
8.922354e-93
1.2123499e-91
8.5250947e-92
1.1289524e-91
7.8018411e-91
1.0031319e-90
4.406779e-91
2.3124958e-91
6.5687114e-91
7.4471159e-91
1.1097452e-90
1.2290353e-91
1.1546892e-91
1.8496465e-91
5.2205324e-92
1.4313418e-91
1.6367813e-91
3.4879774e-92
8.8949249e-93
1.294568e-92
1.1524081e-91
1.6061406e-91
5.6720626e-92
3.1465327e-91
1.5021934e-91
9.8182205e-92
4.4948377e-91
3.8592998e-91
1.0975348e-90
6.5429866e-92
1.6672997e-91
9.9817648e-92
5.3212439e-92
4.1286209e-91
7.4701294e-91
8.2024526e-91
1.080985e-91
1.8012436e-91
6.5954174e-92
2.0295818e-92
1.8494365e-91
1.5198813e-91
2.9280419e-91
1.9752193e-91
4.5485462e-91
2.5282123e-92
4.1331238e-91
3.7455194e-91
2.9101787e-91
2.2344787e-91
3.3613702e-91
1.3448479e-91
1.0945699e-90
1.9057465e-91
3.6200749e-91
4.2225964e-92
4.2958221e-91
1.109374e-92
1.2934895e-91
7.7515601e-91
2.7687765e-91
3.9863948e-91
1.6617411e-91
2.8057105e-91
1.0724843e-91
3.7871862e-91
8.2464593e-92
5.0542712e-91
6.7127011e-91
9.4366691e-91
3.8862926e-91
6.7470044e-91
3.5606349e-91
2.6940264e-90
3.4927402e-91
1.8842885e-91
7.2704899e-91
6.3730761e-91
7.921377e-91
1.6751632e-91
1.8965425e-91
1.252161e-91
2.7629672e-91
6.4542417e-92
2.7951769e-91
5.2057231e-91
4.8841923e-91
7.6187565e-91
6.7008882e-91
9.5936221e-91
3.4605975e-92
3.132737e-91
2.8864544e-91
5.1110337e-91
1.266624e-91
1.4640939e-91
1.0463963e-90
4.3953934e-91
8.7578054e-91
8.1050344e-91
8.7828275e-91
1.6140827e-90
1.8884885e-92
4.0143379e-92
3.7725069e-92
3.4576162e-92
1.8778183e-92
5.9585604e-92
5.7562089e-92
1.194709e-92
2.061746e-92
5.9541864e-92
2.526603e-92
7.7913876e-92
4.6962974e-92
1.0442692e-91
3.093362e-92
5.4373801e-92
9.0238566e-92
1.8711772e-92
2.0465911e-92
1.378951e-92
8.1696288e-93
1.9761321e-92
6.0689075e-93
2.9057526e-92
3.4736446e-92
2.7379957e-92
2.275698e-92
7.7879302e-93
1.9739861e-92
2.223383e-92
9.126166e-93
6.1804292e-93
4.1109661e-93
2.2523078e-93
3.8142372e-93
6.434412e-93
8.7814691e-93
1.6411624e-92
2.1961882e-92
4.6655909e-93
3.2492638e-93
2.789525e-93
6.0402085e-93
1.8565281e-92
2.7071895e-93
4.9065759e-93
2.8302824e-91
9.9635528e-92
1.4797366e-91
9.8026083e-92
1.2997573e-91
1.2248157e-90
4.3290372e-91
6.6662213e-91
2.0244992e-91
1.5402538e-91
1.0506916e-91
4.1660812e-91
7.460586e-91
9.3221363e-92
2.4433326e-91
1.1384989e-91
5.0393629e-92
2.9200413e-91
1.1715227e-91
7.4389185e-92
1.0776209e-92
4.8812584e-92
5.1654933e-92
1.0859885e-91
1.494238e-91
4.181835e-91
1.5755599e-91
1.8631507e-91
1.8793874e-91
9.0161414e-92
2.6436285e-91
7.3300886e-91
1.6106783e-91
9.4614768e-91
1.3552006e-91
2.4526428e-91
4.6100889e-91
9.868917e-92
1.8329122e-92
1.5862686e-91
2.6821937e-91
1.6715386e-91
3.9811101e-91
1.6713206e-91
7.5260598e-91
4.8153974e-91
5.2701147e-91
3.3414444e-91
4.5216583e-91
1.0703978e-91
3.9836669e-91
9.3943266e-92
4.0836116e-91
1.892489e-91
5.2745031e-91
8.1905014e-91
3.0968371e-91
1.3610742e-91
2.8782232e-91
2.1733895e-91
4.5516043e-91
4.2506077e-91
1.5023718e-91
5.3604826e-91
4.5500096e-91
6.8382339e-91
1.1092723e-90
6.9629805e-91
9.4782984e-91
1.474242e-90
5.333906e-91
3.5203718e-92
1.0917431e-91
6.9184401e-91
7.1137509e-91
3.5232423e-91
8.2225906e-91
1.5432701e-91
1.4444391e-91
2.1542444e-91
2.597021e-91
1.0439971e-91
9.3300802e-92
5.4495113e-91
3.1562746e-91
6.059834e-91
7.1853727e-91
7.6133918e-91
1.3931595e-90
4.2523917e-91
3.0249068e-91
3.1391107e-91
5.8797673e-91
2.1663926e-92
6.5079537e-92
1.4748046e-91
4.5352719e-92
4.603507e-91
8.7521889e-91
9.3169017e-91
1.4263602e-90
2.7643904e-90
3.465846e-92
4.9831578e-92
2.6403605e-92
8.9592958e-93
4.3377786e-92
3.5988454e-92
7.0954972e-92
1.3156652e-91
8.1334058e-92
6.5969343e-92
6.2001175e-92
6.3857865e-92
5.4837675e-92
2.2969226e-92
2.0248477e-92
5.8903089e-93
5.9707255e-93
6.6985569e-93
8.666231e-93
1.7182981e-92
3.2427467e-92
4.5658429e-92
2.2647155e-92
2.2495728e-92
6.0906413e-92
1.3680102e-92
5.7278548e-92
1.3142796e-92
1.3007228e-92
1.2655552e-92
8.9853156e-93
3.9239207e-93
2.0586265e-93
2.2843744e-92
3.7585935e-92
1.713958e-92
1.1767828e-92
6.4717735e-93
1.3863557e-92
1.3096116e-93
3.476327e-93
5.4394215e-93
4.1572388e-93
6.747201e-93
2.7715666e-93
3.1352654e-91
9.1189333e-92
1.5355461e-91
1.0097974e-91
1.2644048e-91
1.8763064e-91
6.9935212e-91
3.1683567e-91
3.0404692e-91
1.5004497e-91
1.1000993e-91
1.6964648e-91
1.3654223e-91
1.1682164e-91
1.0897335e-91
2.5946196e-91
7.2058219e-92
1.3063779e-91
1.2457344e-91
1.8885552e-91
7.4381126e-92
2.084104e-92
4.7775295e-92
9.261314e-92
1.0850619e-91
5.8482984e-92
5.6369869e-92
1.1617812e-91
2.0043346e-91
1.731938e-91
1.4036036e-91
1.7278863e-91
9.1856648e-92
9.3887745e-92
1.3952958e-91
9.4464248e-92
3.4860231e-92
1.5007953e-91
3.754844e-91
3.4388618e-91
3.1078876e-91
2.0700487e-91
5.510964e-91
2.9688786e-91
3.9696898e-91
8.1193569e-91
1.4872502e-91
1.0163919e-91
2.2160618e-91
5.7010533e-91
1.3757648e-91
1.9114279e-91
3.4241947e-91
4.5583566e-91
6.5407727e-91
1.5463697e-91
4.4024349e-91
4.4657678e-91
1.8133822e-91
4.0993903e-91
4.2646161e-91
1.7369154e-91
7.078003e-91
3.5915226e-91
6.500732e-91
4.3049874e-91
2.5100694e-91
5.8552778e-91
4.4292422e-91
4.8438014e-91
6.756659e-91
9.4089179e-92
5.2701802e-91
4.576629e-91
4.9463309e-91
6.9224281e-91
6.5464935e-91
1.184892e-90
1.1656774e-90
7.1435868e-91
5.328962e-91
3.676072e-92
2.6907907e-92
3.4044672e-92
9.5680092e-91
7.0859999e-91
4.2812445e-91
6.9936523e-91
8.0269833e-91
1.7034735e-91
2.3901743e-91
1.808748e-91
4.7136206e-91
1.0521773e-91
6.9784253e-92
1.6882843e-91
2.5852277e-91
3.3877216e-91
6.5949739e-91
8.0642111e-91
9.8902847e-91
2.0674425e-90
2.7329392e-91
2.5220325e-91
4.1181738e-91
9.6441125e-92
4.7191897e-92
2.2830852e-91
2.6186184e-91
5.13433e-92
3.5265175e-91
3.5265605e-92
6.9647919e-91
8.0936397e-91
1.0222961e-90
1.9912757e-90
1.3233511e-90
3.8447886e-92
8.4677065e-93
1.3808536e-92
1.8233903e-92
3.4831635e-92
6.6237814e-92
6.4610926e-92
7.099734e-92
6.8741927e-92
5.1553205e-92
4.8026285e-92
1.6918502e-92
6.3171606e-92
2.3962906e-92
5.3141786e-92
1.4200529e-92
1.7195578e-92
4.0693552e-93
1.7001299e-92
1.6781706e-92
4.7869445e-92
4.225548e-92
5.773607e-92
1.2030951e-92
2.1413694e-92
1.0066118e-92
1.6290795e-92
7.887191e-93
2.2664428e-92
1.9044736e-92
4.0734281e-93
7.4853493e-93
6.8531264e-93
1.6453311e-92
6.4373734e-93
1.0623947e-92
1.3990148e-92
1.605231e-92
1.9329739e-92
1.6796162e-92
1.4976312e-92
6.6510373e-93
9.7910486e-94
1.2660102e-93
4.4794318e-93
1.9751531e-92
4.3435968e-93
5.5517796e-93
2.2819907e-92
3.5428931e-91
4.6874941e-91
9.0578664e-92
1.2608386e-91
1.5805244e-91
1.2739523e-91
2.097097e-91
2.6607086e-91
1.0768388e-91
2.9857769e-91
2.0721045e-91
1.4133788e-91
1.5124268e-91
4.0522479e-91
1.1969485e-91
6.4206392e-92
3.9146546e-92
2.9099519e-92
3.866868e-92
1.466748e-92
2.5134245e-91
1.8131781e-91
1.5583349e-91
1.7303997e-91
1.8556788e-91
1.0626166e-91
1.0404533e-91
1.1418535e-91
1.3311682e-91
1.2843835e-91
5.0093654e-92
2.8793574e-92
5.4849861e-92
3.6927707e-91
1.7735254e-91
4.0260911e-91
1.7692541e-91
6.410984e-91
2.8132644e-91
1.9020913e-91
1.7866036e-91
1.3619164e-91
1.8939167e-91
2.5022858e-91
1.5380262e-91
5.2768487e-91
5.8746368e-91
2.8982336e-91
1.9337564e-91
1.0991764e-90
2.4734121e-91
8.001035e-92
5.1167791e-91
5.0773014e-91
1.6469947e-91
6.8916925e-91
3.0205338e-91
5.4879878e-91
3.3704614e-91
2.8831586e-91
4.3501713e-91
5.7111551e-91
1.2618229e-91
3.5096728e-92
8.2828284e-91
4.9481737e-91
2.5447042e-91
4.7578802e-91
7.1983945e-91
2.3377784e-91
3.8082896e-92
3.2155224e-92
1.0195236e-91
5.69045e-92
1.0750196e-90
5.6362323e-91
4.7731568e-91
1.5052367e-90
3.1095652e-91
1.1738652e-91
4.2066514e-91
9.2952921e-92
1.17122e-91
1.8601309e-91
1.8851054e-91
2.3498882e-91
2.743496e-91
2.003661e-91
4.3131821e-91
6.7083953e-91
7.8701245e-91
1.5043028e-90
1.3388927e-90
7.468037e-92
2.885338e-91
1.2394956e-91
9.4677286e-92
4.080918e-92
5.1120322e-91
7.2478834e-91
9.7722834e-91
1.9583908e-90
1.155642e-90
1.0470554e-91
2.5844962e-92
5.2209199e-92
4.8492288e-92
6.8661508e-92
1.0278065e-91
1.7630615e-91
2.8117498e-92
2.8203291e-92
5.0895911e-92
2.2242221e-92
3.4920772e-92
6.3250649e-92
4.3467009e-92
2.6388378e-92
7.2775001e-92
1.0981272e-92
3.1026493e-92
3.7227484e-92
3.4970676e-92
3.0711017e-92
2.9922486e-92
4.5363381e-92
2.6252615e-92
3.2128734e-92
6.3438584e-93
3.3056587e-93
4.0545828e-93
8.9925099e-93
1.5692621e-92
2.0869968e-92
1.3609528e-92
3.8871775e-92
7.3352371e-93
8.3254968e-93
1.6366653e-92
2.0721431e-93
4.5593515e-93
6.6771452e-93
4.5848573e-93
1.2917253e-94
1.9921692e-93
1.0528343e-92
3.3302418e-91
7.7454636e-93
3.7344849e-92
9.5233647e-93
9.4666975e-92
4.0948127e-91
1.6438744e-91
9.673895e-92
1.1753554e-91
1.3377113e-91
1.8386436e-91
3.1154162e-91
2.6333861e-91
1.3810214e-91
1.6861815e-91
2.4323904e-91
1.2451264e-91
1.9237048e-91
1.441336e-91
2.8220093e-91
2.2624538e-91
9.7425924e-91
2.2819547e-91
1.4203702e-91
6.3370099e-92
3.6528798e-92
7.094801e-92
5.2229827e-92
1.2062801e-92
1.3047836e-91
4.5275896e-91
1.7225139e-91
3.666636e-91
1.9834906e-91
2.2990105e-91
1.9801113e-91
2.0202933e-91
1.6438965e-91
1.7048013e-91
1.9586844e-91
1.8543057e-91
4.44939e-92
2.6710023e-92
2.3179779e-91
6.1761085e-91
2.6960453e-91
6.1810496e-91
6.2445781e-92
8.3124546e-92
1.8603292e-91
3.2153241e-91
1.3242821e-91
4.9411308e-91
6.910531e-91
6.9382684e-91
2.164515e-91
1.2056222e-91
5.1085067e-92
9.0467528e-91
4.7463536e-91
3.0172816e-91
6.0048382e-91
2.9506117e-91
4.3198929e-91
3.9591268e-91
9.2167212e-92
8.8484983e-92
6.5317042e-91
5.6938179e-91
3.1749601e-91
9.9984252e-91
6.0343078e-91
4.3899762e-91
2.5610026e-92
5.6079421e-92
5.3792018e-92
7.2799239e-91
5.3525322e-91
1.2679289e-90
5.4144128e-92
1.2757886e-91
1.6706616e-91
1.7987894e-91
4.213582e-91
2.5421324e-91
5.7270912e-91
9.487493e-91
8.1927007e-91
8.8540286e-91
6.3382195e-91
8.117726e-92
9.9314796e-92
2.6405229e-91
4.0591053e-92
5.3327648e-91
5.0252248e-91
9.2653984e-91
1.6323276e-90
8.2599028e-91
1.1690651e-91
9.6571505e-92
3.2735213e-92
6.3706639e-92
5.726703e-92
9.4851019e-92
9.081314e-92
2.0314698e-92
1.7701831e-92
2.3781966e-92
4.6527742e-92
8.5766549e-92
5.9380673e-92
2.2854731e-92
4.6449445e-92
2.564814e-92
2.3834868e-92
7.3210627e-92
1.6822202e-92
8.5480873e-93
1.6360238e-92
8.5596126e-93
3.4153741e-94
4.1099837e-93
1.8593258e-92
8.44481e-92
1.5470948e-92
4.7709468e-92
6.305779e-92
9.1086112e-93
5.3266989e-93
2.6809323e-92
6.6346815e-93
5.4536538e-93
4.677783e-93
1.2769805e-92
1.5659124e-93
2.9738406e-94
4.6674317e-93
7.2039289e-92
1.426657e-91
5.5789132e-92
1.5403398e-92
2.7731626e-92
4.887694e-91
2.8703481e-91
1.7634771e-91
2.2038242e-91
2.4888214e-91
1.8860171e-91
1.0565716e-91
1.1977805e-91
2.5151213e-91
9.3583775e-92
4.6908101e-92
4.4987549e-92
8.3080251e-92
1.634847e-91
2.9952403e-91
3.1183999e-91
2.9658294e-91
7.2674529e-92
3.8689219e-91
1.7635891e-91
4.7604675e-91
3.6586217e-91
2.0935968e-91
1.6739544e-91
1.5646587e-91
1.7881092e-91
4.4586237e-91
5.0866989e-92
1.6232559e-91
3.1930008e-91
1.8707923e-91
1.9154192e-91
1.4753883e-91
7.2469538e-92
1.7107051e-92
1.2569309e-92
1.803151e-92
8.5688433e-93
5.9266601e-91
5.9780266e-91
6.0070165e-91
3.8870365e-91
5.8199032e-91
8.1766765e-91
2.9338496e-91
5.7550477e-92
1.5861554e-91
1.427065e-91
3.1046835e-91
2.5060013e-91
1.7413573e-91
7.1013133e-91
6.6423975e-91
3.5017852e-91
2.6349003e-91
2.9419943e-91
9.4655048e-92
9.4951798e-92
6.7500104e-91
5.2290823e-91
4.7224472e-91
8.7571663e-91
4.0558331e-91
4.96438e-91
7.5220143e-91
1.1693779e-91
3.6155848e-92
6.2496316e-91
5.1752275e-91
1.7036692e-90
6.3233769e-91
8.7175041e-91
3.1883047e-92
3.4962074e-92
3.226938e-92
2.8859184e-91
3.4202149e-90
7.3910587e-91
1.1192971e-90
1.1037622e-91
1.4028431e-91
2.0758259e-91
2.1761045e-91
3.3039872e-91
3.0534661e-91
5.3521512e-91
1.0499753e-90
6.253476e-91
4.3870585e-91
2.5287552e-91
6.5527918e-92
1.7400701e-91
1.4690278e-91
4.3864854e-92
4.4278451e-91
4.6861392e-91
6.6898517e-91
7.780678e-91
6.7456516e-91
2.2697848e-91
9.4186921e-92
6.3268144e-92
4.4780421e-92
1.9586235e-91
2.6647956e-92
2.8561761e-92
1.0235372e-91
2.1620278e-92
5.9347591e-93
1.0283842e-91
5.5012104e-92
4.8532674e-92
3.1731935e-92
3.6582583e-92
1.0652724e-91
2.9536964e-92
3.7498243e-92
4.1520952e-92
1.6191005e-92
9.660367e-93
6.1530659e-93
2.1378055e-92
3.3853227e-93
8.3205673e-94
2.3155519e-92
4.663388e-92
7.8124754e-92
6.6593696e-92
3.8889739e-92
4.7290538e-92
3.0695416e-93
2.4028365e-92
4.3097433e-93
6.6365571e-92
8.8349506e-93
3.9640741e-93
5.9198195e-93
2.5074351e-93
6.0069697e-92
7.0085204e-92
9.9390923e-92
2.6290267e-92
2.0765668e-92
1.6602658e-92
1.5915864e-91
2.3333102e-91
6.9968392e-91
3.7181941e-91
1.0126912e-91
5.9322894e-91
3.1937734e-91
2.9270933e-91
3.2301463e-91
3.4419103e-91
5.8389459e-92
5.0661487e-92
2.4040936e-91
1.5921974e-91
2.4765723e-92
5.0922208e-92
6.2891898e-92
4.0671363e-91
5.6543688e-91
3.4056695e-91
3.7841919e-91
2.2150051e-91
6.9455498e-92
3.5272147e-91
5.3043482e-91
5.1963557e-91
2.3379695e-91
1.3624087e-91
4.4229509e-91
2.4610379e-91
3.3763709e-91
1.917006e-91
3.4359292e-91
3.5807275e-91
9.1959941e-92
1.4283886e-91
4.8419656e-91
2.3096588e-91
2.7009538e-91
3.0798013e-92
2.0168779e-92
1.6052761e-92
9.2796809e-93
5.8369448e-91
7.8748117e-91
6.2772455e-91
5.5424564e-91
5.4323511e-91
7.5079416e-91
4.3877951e-91
2.7963085e-91
1.0719543e-91
1.6619353e-91
2.8439078e-91
1.9017907e-91
3.8949339e-91
6.3813341e-91
4.1063006e-91
3.9679608e-91
5.2005755e-91
1.3817812e-91
7.4214484e-91
9.3814945e-91
4.5851347e-91
6.2512233e-91
4.9114546e-91
5.3780572e-91
2.3288491e-91
1.0696069e-91
2.5815276e-90
5.3089797e-91
8.0727775e-91
8.9455205e-91
6.846596e-91
9.6142135e-91
1.0846714e-90
2.7801911e-91
3.7057167e-92
4.7537167e-92
5.2912926e-91
4.6188379e-91
5.058654e-91
8.1239541e-92
1.0897126e-91
1.0653696e-91
1.45997e-91
2.4776887e-91
2.7398583e-91
3.6194928e-91
4.7638136e-91
4.7586855e-91
2.7764982e-91
3.7966443e-91
3.0650746e-91
2.7573446e-91
1.3353646e-91
3.4263324e-91
4.1397376e-91
4.7445833e-91
5.3661476e-91
5.8357251e-91
4.0553009e-91
5.0049386e-92
2.1941556e-91
5.3430996e-91
2.6894289e-92
1.4785133e-91
6.2364421e-92
4.2779646e-92
2.8974368e-92
9.3501251e-92
3.4842618e-93
6.4595311e-92
6.7712583e-92
9.4843059e-92
2.025176e-91
1.1788549e-91
2.1872307e-91
1.5595707e-92
3.2486621e-92
2.882793e-92
1.739368e-91
1.6341787e-92
8.1795554e-93
1.0688923e-92
2.2688832e-92
6.4648003e-92
3.6129819e-92
5.0607113e-92
4.4319957e-92
4.6099817e-92
3.5230086e-92
2.2548465e-93
7.5682695e-93
6.2190473e-93
2.2540668e-91
3.9316088e-92
1.5563162e-92
6.124778e-93
6.5220397e-93
5.9021592e-93
3.0519836e-92
3.6451823e-92
5.9515036e-92
9.7015026e-93
1.0705972e-92
1.5649649e-92
7.0705793e-92
1.4036033e-91
2.3579934e-91
3.6101908e-91
4.160659e-91
1.2507844e-91
4.8205272e-91
6.5820705e-91
4.005158e-91
4.5091281e-91
6.2951309e-91
5.1303484e-91
3.8832847e-91
4.4609782e-91
3.7658758e-91
1.6667064e-91
3.2527579e-92
1.1474877e-91
1.34562e-91
2.1154369e-91
3.8294752e-91
3.3994361e-92
4.7140292e-91
1.0140292e-91
6.0576912e-91
4.1486689e-91
6.5000959e-91
1.9563721e-91
1.2654887e-91
2.8041998e-91
4.2098884e-91
6.9073617e-91
5.6690969e-92
2.7379143e-91
2.9472996e-91
3.2810618e-91
2.2284416e-91
9.9319173e-92
1.6060041e-91
4.9473674e-91
2.9190916e-91
3.2020666e-91
2.8687066e-91
8.9407209e-92
1.1484657e-91
1.8498652e-91
1.1389026e-91
2.6644029e-91
2.385595e-91
6.4487714e-91
3.1995431e-91
6.5891487e-91
5.0463254e-91
9.0094313e-91
9.1000211e-91
5.1269256e-91
1.1746269e-90
2.4835278e-91
8.1826795e-92
3.9584187e-91
3.213421e-91
1.9936211e-91
5.1810591e-91
5.1332886e-91
4.4475394e-91
2.8894838e-91
1.283334e-90
4.500877e-91
4.9508998e-91
6.9659116e-91
8.9109521e-91
3.5617971e-91
2.3641369e-91
3.6022381e-91
4.1798051e-91
3.955823e-91
4.5437704e-91
1.0562388e-90
8.7185639e-91
8.6010133e-91
6.0216175e-91
1.3746131e-91
2.7872765e-92
2.2140209e-91
9.1746676e-91
4.382653e-91
1.0561059e-90
1.087099e-90
1.7659391e-91
1.698891e-91
7.0614832e-92
1.5281676e-91
2.2109229e-91
2.6771693e-91
3.2928954e-91
4.9821749e-91
3.0044117e-91
3.0649388e-91
4.0297872e-91
7.1884503e-91
1.6367001e-91
1.9295145e-91
1.4937006e-91
3.0204821e-91
3.5058764e-91
4.2660321e-91
5.8911453e-91
1.0306269e-91
1.2169146e-91
3.0184827e-91
5.7157182e-92
9.6541269e-92
1.2290143e-90
6.509307e-92
9.3047361e-92
3.0448478e-92
2.3022994e-92
6.2408508e-92
7.9799949e-92
1.1751782e-91
1.3614421e-91
1.6530508e-91
8.7336076e-92
3.248431e-92
5.1850049e-92
1.4620229e-92
2.9314234e-91
1.335222e-91
2.1602285e-92
1.1386182e-92
1.9111374e-92
6.0004236e-92
4.2141773e-92
2.9855667e-92
4.7889993e-92
1.0566923e-91
3.0472731e-92
2.1429641e-92
9.3937255e-93
1.1029646e-92
1.229349e-92
6.7989283e-92
2.183852e-92
2.6406184e-92
3.0487286e-92
1.1469762e-92
8.742268e-93
1.5721497e-92
1.9382024e-92
3.5393869e-92
3.2505775e-91
2.1776602e-92
1.441371e-92
3.4622475e-92
1.1543839e-91
1.1347772e-91
2.5911566e-91
1.4347215e-91
6.2516488e-91
5.7571219e-91
7.5670251e-91
2.8245445e-91
2.2357219e-91
1.9624424e-91
1.5559096e-91
8.8619774e-91
7.0611567e-91
7.5769715e-91
6.4892469e-91
5.9789717e-91
8.1073063e-91
2.1750758e-91
4.4444948e-91
4.6141917e-91
2.7452735e-91
9.4397471e-92
1.8015564e-91
1.039104e-91
2.0102739e-91
2.0941676e-92
3.1791378e-92
3.9575276e-92
4.839187e-91
6.1563986e-92
7.1143349e-92
1.2553986e-91
9.7291671e-92
3.8872652e-91
1.9406306e-91
4.1354421e-91
1.9904401e-91
1.8114539e-91
6.5526034e-92
1.9165883e-91
3.8073124e-91
3.704593e-91
3.5108727e-91
1.3788846e-91
1.808139e-91
2.150156e-91
1.8784251e-91
1.8044665e-91
2.1511967e-91
2.8655092e-91
2.7848655e-91
7.1406905e-91
8.0739543e-91
1.1953592e-90
4.8902527e-91
4.1155701e-91
4.2438777e-90
7.4142944e-91
1.0186513e-90
5.9325528e-91
1.5047734e-90
4.0970606e-91
5.1661118e-91
4.3750748e-91
6.219363e-91
1.0130076e-90
4.5254298e-91
6.9880881e-91
5.330518e-91
5.2352737e-91
1.4924857e-91
1.1992214e-91
3.5597378e-91
5.3779623e-91
3.6284026e-91
7.4039197e-91
1.1265444e-90
1.5640609e-90
8.3229656e-91
5.9351196e-91
7.6609456e-92
1.2357212e-91
2.9745282e-91
9.3594527e-91
1.0106e-90
2.0915043e-91
1.5332133e-90
2.6829218e-91
9.8129574e-91
1.5552587e-90
1.2909496e-91
1.0727572e-91
1.1680248e-91
1.5189409e-91
1.6496368e-91
2.5457219e-91
4.5993343e-91
1.0246991e-91
5.3205087e-92
1.6954593e-91
1.5318427e-91
6.090966e-91
1.3853917e-91
1.0192741e-91
4.4315033e-91