/*--------------------------------*- C++ -*----------------------------------*\
  =========                 |
  \\      /  F ield         | OpenFOAM: The Open Source CFD Toolbox
   \\    /   O peration     | Website:  https://openfoam.org
    \\  /    A nd           | Version:  7
     \\/     M anipulation  |
\*---------------------------------------------------------------------------*/
FoamFile
{
    version     2.0;
    format      ascii;
    class       volScalarField;
    location    "2000";
    object      omega;
}
// * * * * * * * * * * * * * * * * * * * * * * * * * * * * * * * * * * * * * //

dimensions      [0 0 -1 0 0 0 0];

internalField   nonuniform List<scalar> 
34124
(
455.6458
414.20621
380.88012
337.48753
442.27895
379.70701
381.23029
370.79843
285.77933
291.40145
465.90241
420.73626
423.46071
366.20244
343.31313
337.0007
366.60745
291.59573
238.37297
184.38442
457.46649
453.00469
497.38157
410.66273
397.26218
396.37006
384.58566
328.59676
302.21753
281.77727
311.43102
290.77625
228.56515
182.72324
183.21715
452.12697
442.51129
494.4611
449.15801
491.64365
512.52709
422.30199
388.64813
367.00538
372.97747
351.9935
360.66163
293.78687
274.55979
289.74633
257.43908
212.54441
313.63488
208.20466
168.83899
231.02098
437.83767
450.47498
493.20371
441.68478
488.1461
512.1066
457.62756
489.31048
511.46538
515.39983
409.64216
411.52556
373.84771
358.40994
386.29159
327.99768
304.16731
361.01939
328.99171
270.96257
332.15297
243.50069
200.58876
287.93345
260.37886
166.39164
212.5908
224.90222
442.81476
448.13296
487.79365
456.78384
498.57059
512.12599
455.00569
486.4923
510.65718
515.89208
455.19595
493.34926
510.7086
516.04892
513.44304
404.21268
377.46986
409.69254
407.00336
363.39116
420.47511
312.76973
307.09121
344.14301
350.68271
269.8162
335.94214
314.71072
188.80103
186.37468
305.25063
210.82219
157.94997
225.77642
192.02375
223.03122
454.80412
456.67868
487.64847
444.99943
496.09991
510.66594
503.26244
479.04457
513.25964
515.98072
440.33848
491.20886
509.69599
516.54269
514.31403
449.10907
492.47481
511.67664
516.35025
514.64803
509.80341
389.64705
380.26522
396.77032
412.30459
371.81256
423.36036
383.58871
296.04181
287.75082
355.06861
324.50663
257.63037
367.02714
298.12624
305.8065
299.79521
292.63223
245.74754
185.78282
168.71195
207.28868
210.46566
209.85909
316.64393
453.0424
441.54242
492.22307
466.22099
494.47575
509.56705
498.59672
479.77443
512.35016
516.59024
507.5882
512.8405
450.21761
515.95759
514.66889
446.80147
490.12314
510.61398
516.88868
515.83942
511.08796
459.60341
483.97969
510.20587
516.67673
515.33549
511.14364
504.77704
386.70723
358.59457
402.42864
403.92195
341.18621
447.58118
376.54164
382.11522
374.03186
406.33735
329.69402
287.83328
274.62385
320.38012
320.27281
300.5704
354.45733
196.62991
289.94758
230.9136
230.75448
178.79111
163.49307
212.42389
227.3184
270.99027
200.02674
468.05867
495.08535
436.22659
448.91701
489.56979
510.6285
502.18439
486.44291
511.32616
516.52085
508.19472
512.75747
443.02131
516.6614
516.42023
513.94538
494.94944
513.89081
454.86036
514.40202
511.98441
457.30569
485.62467
508.80079
517.33998
516.90463
512.69456
506.11181
491.84799
421.52027
508.42235
516.23123
515.38526
512.22177
505.39258
505.56847
426.32932
456.9015
382.55368
365.0975
363.85991
385.90057
392.22334
378.05458
407.64152
363.77168
342.32699
321.25805
314.46214
270.05542
256.78864
276.92997
318.92441
323.07148
252.67167
282.60074
254.61052
253.00746
275.54474
177.90064
187.67769
160.84787
191.36217
281.89065
163.26234
202.42507
484.18067
504.82616
471.06555
483.75692
511.64063
434.56973
439.24791
485.11931
509.29746
516.71957
504.18418
512.23902
446.38748
516.47315
517.11158
513.70054
486.62173
514.06236
441.55354
516.12652
513.82316
510.66548
514.9349
493.11252
512.19711
453.58567
512.07548
507.69179
489.23635
429.94422
510.54988
515.78119
517.20937
513.99134
506.79893
505.65991
488.59679
512.4904
443.43184
516.50861
515.83271
512.59576
506.60976
504.22077
509.72928
434.39146
401.45945
387.46932
388.31519
352.6976
375.52581
343.41228
388.393
374.10824
321.739
356.9
330.6723
306.27232
335.64641
282.07945
264.95813
230.44738
282.75305
341.66775
234.62453
253.43215
249.26286
298.98239
295.07935
209.79155
259.00297
195.55085
187.7426
170.14084
217.14817
168.97523
222.76856
243.76515
504.05257
440.12229
473.62581
501.88506
511.50242
457.50542
473.96009
511.22233
515.90001
439.8418
489.35323
424.02022
509.9536
515.34016
517.49915
511.70622
482.50893
513.50184
440.80442
516.60144
514.93366
506.62932
514.69458
480.30577
512.49634
441.02084
513.89659
508.26258
515.4661
506.62996
513.29063
495.89395
510.16141
385.67528
509.0771
506.85484
491.17672
509.31938
437.60715
517.05969
516.3872
514.31659
507.86058
502.98126
508.23587
518.80057
487.36115
520.85682
398.4011
515.4338
512.85562
508.0847
504.62964
506.05218
514.87623
415.6692
402.44833
395.24609
384.47486
390.68736
328.55585
289.51278
358.52036
389.30736
316.07484
334.80338
321.1418
332.00371
356.78894
316.28831
334.6101
267.53088
245.08667
254.24249
313.58782
241.36099
268.88502
305.93124
287.51616
269.80719
263.35574
291.18918
223.67201
234.35332
251.18025
173.84977
222.67578
270.46555
220.03914
230.65523
250.877
510.3233
475.9798
496.67182
430.36812
457.5171
458.63636
493.82
510.07586
511.57455
461.22158
475.78428
509.34521
514.24634
515.20942
461.27039
478.35591
509.62837
393.59366
516.81034
515.17464
514.94648
501.83372
513.06784
474.94723
511.86366
439.14437
514.21117
509.2176
513.49713
501.7208
513.26307
487.17444
509.93521
388.2217
510.30938
502.14978
512.98426
515.65708
508.90782
511.63167
487.35922
508.87606
414.33431
508.03115
507.70008
516.00527
490.25123
520.35481
356.6288
515.82502
512.73405
509.39747
501.55455
501.59164
509.90498
514.10104
521.35846
485.10866
519.29752
431.71505
512.48382
510.19403
505.41199
505.99156
508.50533
525.61556
402.11008
409.75097
398.18082
412.17437
393.14872
323.61528
307.56136
331.90959
391.58918
311.16825
354.6608
410.93263
317.68211
313.60605
317.88855
341.03475
296.60997
286.04613
293.21075
253.91681
294.05008
340.37721
265.52044
293.31912
334.48029
269.16206
155.38848
269.72764
319.08635
215.63535
250.34191
210.83317
239.23625
199.73806
223.83176
207.94382
196.97634
185.89003
252.67566
498.62258
506.3416
510.7467
485.76248
461.22758
487.71054
437.44351
440.13685
452.05191
461.89507
492.69322
506.61964
509.16311
509.30988
469.28008
492.6333
502.2961
516.15638
511.49872
513.40376
388.99432
512.3437
458.77019
517.77729
361.84814
515.02543
511.02636
511.24387
511.01569
496.72564
511.3563
478.36987
508.37963
381.13646
512.38768
499.06538
510.29888
514.36944
504.71529
510.93983
482.48209
506.48855
428.62701
507.07515
499.21286
515.86276
514.23855
514.28522
510.26786
510.26691
485.1509
509.60846
507.48954
507.84818
521.03248
477.4643
519.86691
415.02017
512.07122
508.00732
504.52267
498.10224
499.57733
514.75778
521.12033
508.37129
521.0441
466.90914
517.21859
510.7634
511.98765
506.52066
507.25224
515.74932
542.18292
389.23779
384.71806
408.75668
382.08512
366.83269
334.02332
330.57209
330.86658
371.06065
425.69188
351.50725
397.19023
419.81289
297.3731
246.11141
329.68443
360.19649
293.33832
306.46503
269.47124
282.73981
279.89531
297.63462
322.0566
267.26562
287.77077
347.13349
164.62157
231.27613
293.4731
247.15828
343.317
209.41325
259.88225
187.9293
224.22613
164.38391
190.26262
218.24718
176.54806
200.23302
244.20933
486.83009
508.78983
498.70657
501.24379
507.17878
508.60484
472.12846
480.30544
465.0169
488.08226
416.84308
416.9216
436.44367
441.6007
468.81875
505.98035
496.48905
508.15057
504.38846
505.72453
432.03643
509.06712
443.32888
516.16579
511.91896
506.82411
516.07927
399.1241
500.45601
518.67033
466.98371
518.66153
404.47448
374.41992
510.60867
504.50853
504.64462
513.90101
508.45209
512.08477
497.87728
508.5382
470.34726
503.5504
420.56024
394.45491
506.57434
517.45743
493.4681
514.19893
511.18356
512.86422
506.31386
507.64977
473.76016
502.15359
494.92878
517.30431
516.22492
515.06018
512.11158
505.30715
510.33907
486.96433
509.0381
507.81816
519.64244
502.87175
522.00651
454.17564
517.7858
508.49365
504.65146
502.91584
494.89937
499.11141
525.8395
520.1146
523.92937
502.64303
520.52466
489.49766
515.76098
512.94759
512.47911
510.89002
529.90862
563.21847
357.62258
341.88449
371.09706
427.51621
346.74185
355.42293
330.65914
377.64728
329.47914
369.54047
395.10041
380.68462
428.85719
376.24406
392.66678
428.63599
243.48814
287.44402
330.65264
314.29688
364.86368
278.69579
315.72008
242.72518
292.75045
237.06654
289.59168
293.10253
259.02432
306.5287
365.20589
163.67367
170.97981
278.26351
251.19171
198.01209
279.05353
187.63204
222.47727
169.61494
176.41278
192.20095
186.29761
222.50679
267.0821
507.25923
486.94967
491.66019
509.11839
502.78346
494.11125
499.6308
505.1501
504.0709
505.31292
450.29946
467.53658
472.24654
462.55504
490.36242
411.34844
395.03113
405.14858
435.26939
422.44346
429.61965
465.68807
510.58144
507.09605
478.26608
504.72263
499.18146
502.9071
419.46096
515.06273
491.61677
462.66474
515.10889
507.04797
503.22725
510.83835
510.51325
406.53472
421.79677
515.11882
499.22598
520.39391
459.33061
516.20908
393.71475
505.2618
497.48137
500.0855
509.32076
511.56158
507.37716
509.53216
497.37291
504.4695
459.08475
496.68967
418.76886
514.00853
488.7313
514.69727
514.47395
513.10801
510.2648
498.07021
502.9633
475.44309
497.37285
491.15312
516.2803
516.85687
513.6357
513.69278
510.51842
514.07643
501.57418
501.75986
508.45229
514.63546
516.46189
525.1464
491.99117
522.35633
467.39139
514.35163
505.63499
500.63335
491.88207
503.3022
542.56271
525.40222
522.05677
524.98047
519.1981
489.51236
523.17443
516.8092
518.6287
509.94629
521.31771
545.2497
578.47772
331.02417
337.99446
388.87474
360.05388
404.6349
338.41146
376.60295
325.39354
381.58405
356.65048
368.39435
339.65779
394.52377
374.03295
367.16922
404.02747
435.51918
239.03126
242.77309
308.1941
307.99423
280.9044
333.4184
270.47157
303.4467
260.52526
265.48406
274.92248
281.6594
323.16091
343.0723
174.17761
218.88618
205.92896
255.94034
277.04474
191.4013
234.97266
233.91908
199.18827
166.21507
166.48315
204.1724
242.60039
241.66519
265.90836
508.69741
501.1061
499.07902
486.57296
487.77064
505.58079
502.14431
499.819
488.90348
504.02493
499.55203
503.92993
503.16554
448.09683
478.05518
436.86175
404.14025
458.41727
466.89683
389.30438
379.98448
417.68009
432.63412
457.17599
511.17073
508.76105
502.38645
442.85517
449.44502
495.06217
498.79105
492.34446
504.73476
504.5287
509.57272
515.74969
511.5198
507.70173
384.17135
513.68069
519.9966
488.24678
519.83208
437.63354
511.70943
498.67918
492.69727
509.65267
510.77228
507.54664
506.76361
489.58385
497.28701
468.5672
491.20336
483.85788
514.24959
514.47275
511.61496
509.87052
505.6629
506.32712
483.69773
489.1975
499.7645
490.38254
517.66314
515.11497
515.77292
511.42387
517.28835
522.08371
493.72334
504.67772
506.27332
513.50358
530.72189
521.66166
515.23557
527.13896
517.98622
468.16893
508.5168
509.11309
504.86036
493.13905
491.71993
511.0612
552.81048
525.71924
522.93212
520.60803
519.63115
459.54563
523.20403
526.16455
520.91338
514.07698
515.09723
533.66347
558.1747
592.8021
307.95154
312.69314
355.08951
355.05276
343.83461
398.3809
365.87401
379.20561
370.3637
358.01789
373.49608
394.85358
405.7526
403.58387
231.83357
270.7944
261.53308
312.61757
326.18442
271.52415
302.86937
305.26255
282.36523
259.57394
241.58626
307.49871
325.8676
311.45079
362.53023
239.32349
220.91953
324.85574
209.72937
265.73613
213.49667
224.34666
255.56419
233.78056
298.37993
151.28042
182.6352
299.18272
213.40864
228.17574
341.43844
506.6582
506.10735
500.96406
498.90949
497.04885
482.15021
504.26866
500.92556
494.97257
483.08065
506.65748
506.47471
469.17438
487.82843
427.8881
493.83619
505.71967
468.00327
499.7874
421.737
382.54435
389.33539
401.0611
472.66326
452.44657
385.02042
410.26132
509.48811
489.05988
508.5723
507.40077
477.43616
509.84711
515.83795
516.73858
432.53743
378.68233
446.09697
505.63396
491.70175
500.98857
496.62315
485.01295
514.71556
512.49251
509.58786
518.00005
508.09304
520.20971
515.5827
451.75462
492.65212
504.05704
496.84915
485.39615
510.38523
509.70368
508.06559
505.39596
499.98607
501.27177
477.94209
483.72401
492.63598
479.41219
515.35345
512.97302
512.57875
506.31856
510.17365
509.04639
478.90524
485.97152
490.35153
503.75299
494.60301
516.43451
518.08193
514.29449
516.92946
510.51626
521.98174
518.50505
455.98682
517.62184
511.13124
509.77375
514.92666
534.70229
519.44445
522.0849
520.07272
511.05824
447.92969
507.5173
516.44596
507.62585
496.77939
490.68724
494.59074
519.96579
560.98533
526.97545
520.78986
519.4358
447.83287
517.78079
525.1967
523.87252
517.75461
520.19153
516.85649
517.42885
527.18558
544.36187
568.28256
594.09117
290.21468
324.89245
314.31825
361.74827
380.9513
398.03093
374.65423
372.98535
376.5609
359.85496
349.83882
394.2954
408.85931
373.33681
426.82775
280.26102
259.51289
320.70978
275.19907
305.60591
330.24577
301.20135
312.31593
308.42762
337.91402
231.55108
269.51452
392.02703
297.22526
322.26053
401.6908
257.50465
278.80023
257.87854
211.18662
212.57806
244.25541
263.77713
260.90849
282.79518
231.3538
291.67777
156.86252
146.75661
238.50151
296.96722
220.30575
267.23259
317.2522
506.87306
497.74311
459.06888
469.69696
502.39556
464.69246
424.68866
508.6476
509.42704
506.71839
498.18409
487.56228
510.02606
461.80142
419.11312
355.75899
380.35418
385.71912
356.82677
366.92653
468.97769
484.03679
504.50524
496.4543
504.11001
516.64892
515.18694
515.64325
518.03369
512.72722
438.07549
341.21984
457.94221
500.79488
497.51029
483.67687
487.82008
480.51332
505.58254
518.2538
517.3591
448.1739
496.97872
510.25486
500.244
487.19864
480.2467
511.74154
509.3191
505.55969
504.09251
472.29507
478.95157
482.65934
496.83408
475.82482
514.34853
514.32883
508.75106
513.77184
502.42839
510.58417
507.87411
433.49324
488.13887
484.45613
493.55885
509.28807
496.66758
502.93789
514.10719
524.98157
501.22969
470.33245
521.56981
518.56737
508.81941
539.90491
521.85959
518.78903
512.53794
435.24056
505.58792
515.43715
519.45266
507.38566
512.73232
499.10023
490.97039
492.08527
499.74788
526.33665
566.48646
471.91484
507.97941
529.94401
518.99555
512.82043
516.0559
527.26235
538.2988
551.12898
567.49265
586.31681
331.29005
298.25639
398.17133
417.59465
370.01348
368.03428
383.72141
389.52432
346.07175
356.47539
433.72775
368.26848
390.46901
454.58257
289.01958
318.93725
292.44461
302.64748
306.71401
332.51355
313.60137
316.51277
316.0958
299.2225
313.59073
204.31342
220.66877
334.06877
414.08205
316.95584
361.83973
407.6817
188.15762
207.86358
237.63116
222.68951
223.28052
176.90447
186.99995
137.24788
191.29829
306.411
746.48101
261.82805
372.84585
336.20719
488.01389
503.49008
494.49828
471.057
448.73758
462.43568
500.88918
488.50826
462.70742
431.62072
511.34456
510.93717
504.67338
511.64168
503.42938
497.0404
489.2864
487.83597
464.77923
427.77105
333.89389
329.09406
353.11695
357.85387
362.14196
476.38035
492.09767
492.90551
503.36189
505.80971
502.19718
496.46713
514.95558
516.29766
515.44048
507.96313
508.39123
426.58846
421.43776
489.01979
477.76159
480.57861
478.44698
430.06974
503.29659
512.081
505.088
491.61693
479.46794
476.57555
497.24751
504.94965
503.23587
419.85436
475.2845
475.85464
485.0436
473.38916
493.2961
503.02046
513.20731
489.24571
450.77024
487.69347
484.3746
485.64932
499.7697
500.451
503.63546
524.4374
525.85237
501.29232
526.95579
517.44581
563.1053
453.39641
503.41371
520.60734
510.04779
499.84492
491.68148
489.31233
495.98619
501.52338
525.11741
575.36228
507.58621
529.62841
523.28043
514.52658
512.30042
526.60985
534.02322
540.17142
550.03833
554.00481
562.45879
403.94592
389.76351
393.28901
381.73276
375.67716
369.41528
282.09119
338.81799
412.10503
480.32163
386.3746
433.57472
503.39581
286.98599
304.32057
313.96541
311.19733
294.88674
254.38035
262.63089
194.00322
270.03006
407.38987
542.47651
335.43344
430.1819
447.29821
246.12364
197.02968
339.8985
210.28111
251.61562
309.99241
188.51151
212.24575
174.57568
292.02019
642.54254
1288.4849
509.61223
306.12958
251.36531
501.06997
480.02723
499.86601
499.16145
501.70083
501.08666
467.05847
475.46113
444.59012
429.97246
473.20376
485.61233
451.61552
499.77269
492.12828
488.34347
473.24738
442.17064
499.65071
493.2463
478.43208
490.16629
469.96681
431.70006
482.38353
497.60916
501.99499
494.50447
507.44546
507.78365
501.15675
496.62245
487.48744
415.36744
411.17726
345.56285
416.94583
443.11581
482.81609
475.93048
476.4377
478.22591
477.85634
477.65955
476.4069
444.8742
503.34044
515.79226
507.60819
497.34724
482.97558
474.1043
473.55232
488.28699
497.19839
505.86155
481.16705
441.69321
473.14512
471.59646
476.96268
471.75711
485.59598
493.37799
507.11707
516.83153
490.14808
488.3884
484.2609
508.72874
507.40858
501.2102
515.52025
526.01034
528.48451
533.44453
541.30828
529.08213
586.15494
497.19355
525.54281
515.46949
502.82853
494.16918
490.69813
490.24417
496.65004
497.77979
523.18218
564.43416
528.86701
530.28465
524.68698
517.22323
513.05778
518.115
538.14065
545.53741
549.26925
537.92907
526.25309
401.80669
391.27605
386.52829
389.13068
385.77339
358.37475
344.74452
289.9275
389.00186
479.78224
545.28111
432.38541
505.5547
521.68279
313.55479
294.23745
375.68858
305.91425
326.56092
356.05461
261.09961
287.30259
235.77139
372.77618
561.52671
681.03711
498.25801
444.95311
393.45202
224.15029
341.83075
156.95221
640.44086
268.72134
196.6938
195.3725
191.37077
737.31888
857.31551
1034.4659
430.03372
248.49789
393.94623
505.50487
505.21332
496.84209
502.47777
473.8279
499.04261
479.42572
502.56403
490.28518
496.49261
484.81846
466.22507
467.46721
457.31272
440.50415
464.39553
462.93204
494.8168
500.55623
483.3476
496.13196
481.8045
478.81832
501.2672
496.27378
476.68516
492.48092
441.03073
507.10439
497.44157
500.99245
510.10978
505.28562
500.55553
497.05384
511.31051
503.64079
494.73409
480.14255
375.90952
417.99554
340.72588
391.74947
488.04346
471.78712
493.91088
468.75375
470.08792
476.57831
474.69329
473.67391
519.92755
510.72454
499.25601
490.34428
476.27578
472.47864
480.82148
488.31959
498.62662
507.34491
472.66851
469.81649
483.87683
486.46423
496.40478
511.99976
516.71253
520.83636
495.84098
489.78928
514.23267
523.1911
507.10049
508.11038
517.33652
535.77456
547.56796
549.60016
555.86649
543.44077
582.75422
521.93818
525.51431
519.44797
506.33757
495.64388
491.25133
492.75999
494.72259
498.60119
511.37055
533.98152
548.95395
530.59631
527.34458
518.44111
512.03146
518.58409
527.58698
550.84084
536.27792
548.80015
517.97244
514.98863
405.69174
399.86119
399.76096
420.89405
419.96015
372.80874
345.12552
457.82846
545.59444
581.60602
511.85566
522.97419
508.86323
300.88726
364.75031
255.04454
523.6572
352.70458
291.21854
280.05694
296.78572
551.23735
658.1314
604.9125
498.81195
391.54821
461.90595
224.99449
284.03031
197.54647
783.89266
646.72841
331.21425
231.36354
339.45998
394.25546
565.18478
827.70852
720.69047
362.77675
398.06109
374.90991
513.80905
512.58472
494.21473
511.36973
506.22476
507.81768
498.43293
484.20019
489.88393
500.49411
497.63695
504.27447
493.95586
488.97021
512.33338
505.03945
474.01194
467.55324
455.59754
490.00829
498.87021
444.79368
483.7547
486.11881
499.26688
505.51183
480.76385
500.93398
473.29983
503.3414
500.38104
469.8065
407.14028
492.17629
523.78523
503.63555
507.56597
440.10154
535.23746
506.0269
492.88517
500.57513
502.06824
514.58745
506.04736
506.43835
519.19878
497.42525
490.17348
471.79485
494.08355
477.26057
481.25599
467.94845
469.78254
480.64143
464.44678
490.68714
515.32264
501.09297
491.36455
483.79192
476.46518
481.53699
489.33134
502.4067
467.30707
489.56627
484.27601
488.89741
500.04122
518.35904
525.84181
521.7571
498.0402
508.13576
504.42129
524.06418
511.66257
514.09527
531.58243
536.1249
562.84692
540.53588
543.46784
561.11327
541.82942
568.27729
540.57785
518.82997
520.26917
509.1612
498.20233
492.33255
490.35079
496.68757
492.35735
499.19755
500.18508
522.32293
565.34559
551.86107
535.01378
523.1216
515.4725
512.78921
526.26194
549.21527
567.49953
520.93683
527.85259
512.11857
509.60632
386.22573
375.21874
434.73107
401.16638
546.20896
580.33497
588.89442
530.18983
509.87585
515.55404
297.27086
340.27714
288.76795
607.8028
600.78108
403.01418
339.27405
468.46218
477.4409
595.56766
600.43638
657.7563
470.50748
457.27214
432.71248
363.01642
215.72523
238.02437
702.94603
476.72848
602.46687
431.21813
678.35016
403.92965
451.0119
443.87516
657.4748
1637.7684
493.00772
334.13166
318.1199
552.87969
531.15307
514.38011
505.24852
482.57548
491.53183
491.27568
510.61262
516.15704
513.14047
507.72065
476.2275
487.99831
482.3078
483.33339
479.69539
479.29613
496.23096
491.27271
502.56127
490.32267
495.12111
528.91095
473.51487
457.2566
470.51399
405.48277
405.47132
473.26597
444.74942
451.11707
507.69637
525.20053
506.59494
533.15386
489.90006
536.17833
511.01748
531.0191
554.51727
515.99109
497.07802
482.55343
496.16362
491.87176
490.69605
497.93297
516.605
504.24686
506.25537
478.85513
479.76964
471.76438
470.09161
477.13436
473.26217
462.90795
465.87249
477.19298
471.06677
462.72445
485.17178
480.84757
493.22957
481.93894
464.72129
489.00971
486.42008
492.59418
508.32434
521.65244
529.68149
505.23645
492.78209
496.68688
500.62623
493.23058
525.45236
515.25535
527.1239
571.31166
548.58358
559.11112
521.42096
537.29912
549.16998
561.53595
557.80133
528.15089
549.05091
556.85794
530.68476
514.32233
511.44097
501.52885
494.03169
490.70067
499.19723
517.04703
492.67393
490.44516
496.57749
519.48806
582.87593
579.15788
546.24361
521.8118
538.60189
518.32639
516.1635
515.84991
562.2324
534.81865
551.41315
519.14232
526.29712
506.59145
506.41342
378.96091
576.40538
583.81989
625.45081
529.92976
512.49462
492.84984
395.81216
286.71223
355.10135
678.14673
616.63911
550.47195
471.66318
581.23632
462.11873
520.49294
536.31376
656.64104
647.81966
496.68693
424.01149
387.30958
273.98681
196.58335
442.0336
918.53098
814.41671
520.68092
236.16674
546.3134
951.23556
355.52195
616.07419
262.73851
475.25832
1517.0209
1186.4264
345.35134
303.62302
224.747
575.28087
573.84496
529.67314
512.38817
502.30105
487.35184
476.47431
482.33718
492.49317
519.97253
492.17529
507.74445
478.97844
486.80259
514.76467
517.81542
528.68353
473.41878
472.78083
487.76342
483.49501
480.2253
474.33824
478.15719
473.95633
477.1505
427.47941
529.04582
418.07769
514.73997
488.36112
546.72976
537.96248
474.0561
390.67887
523.05955
489.64411
543.00957
502.82593
561.07196
550.01853
517.52331
498.56934
571.31988
532.95924
582.46431
488.57991
483.35421
474.58337
498.4481
495.93049
490.20639
485.71748
493.68794
487.43624
483.81428
471.74251
468.17491
467.77664
460.75026
474.19236
463.39101
469.00383
460.62091
462.28367
489.38757
489.02778
500.36087
536.89224
528.99734
513.79342
493.06213
496.98897
496.89744
502.36115
493.00245
492.49218
488.81256
578.19687
559.53504
542.68868
532.66298
550.19698
530.90824
565.50612
539.98061
542.08695
539.26706
570.09408
549.12102
521.46554
505.0734
504.69643
498.92558
497.12895
491.85244
506.17844
496.15568
501.04863
493.96979
484.75987
495.8478
516.34643
602.74009
600.75688
574.19602
554.35065
544.40681
548.65879
568.41569
539.87302
506.41869
506.54908
500.63361
578.34544
621.54256
646.01618
516.23119
491.8353
456.93518
521.491
392.35971
308.79143
514.10009
666.00712
668.80238
567.68671
363.70245
486.04941
668.85105
453.32433
593.21658
420.39002
555.00071
639.46946
717.94868
418.58035
384.04599
312.5871
422.43827
847.76751
366.20768
931.03339
356.33283
845.237
449.13118
620.68404
680.92835
875.64546
1105.4268
1394.9396
281.88917
187.82862
162.56761
550.70413
571.01883
557.09981
537.29153
497.77604
514.59903
487.25775
475.43631
473.28683
477.18233
482.88262
497.07531
515.38521
529.78959
510.83028
492.18863
492.27471
504.71339
502.76777
508.04682
524.38333
479.51476
484.12618
595.19865
487.75433
538.29102
552.82726
472.41104
473.30939
493.94123
470.57604
469.85694
567.87836
575.00948
543.29647
522.7408
480.71029
489.86182
496.21704
482.1565
602.97719
520.84742
534.95552
551.59961
607.403
587.46021
503.54944
571.63177
527.83755
490.7727
604.9242
616.63639
477.17567
471.40463
467.4878
467.69024
468.36604
466.23922
465.52001
466.69779
458.82139
470.12624
461.57575
459.4742
460.97528
537.04996
513.22534
523.65663
522.44724
500.1392
494.12674
504.08953
494.24871
488.76949
486.71617
555.45547
540.33909
530.15028
530.08014
527.1617
518.98901
530.69883
527.36954
565.65609
531.83932
521.84084
583.61105
602.01384
558.89898
538.49316
514.42429
506.00536
503.55662
507.57558
491.21223
480.3763
501.13877
505.94844
631.0484
603.99077
614.5553
568.55441
555.94682
556.79205
555.21584
563.12095
519.82482
501.31594
496.32716
494.27628
612.34602
645.05962
712.27901
487.16236
459.28725
512.7202
405.373
494.57141
430.53541
553.03507
441.65328
544.38684
468.49909
531.7841
562.04139
568.60695
639.04657
663.76579
722.35301
831.41325
355.45286
281.19201
254.4403
205.68528
651.69475
372.00197
377.85914
180.45911
1089.0011
320.22608
1318.8784
262.19166
570.64497
467.46619
1310.9161
1101.5074
997.68189
203.12402
189.41008
172.47145
170.90474
486.47499
527.2038
497.37464
540.8513
543.85899
558.73185
495.25793
485.27912
514.02801
517.06369
477.65837
471.43688
471.05131
477.33495
502.53458
540.23498
521.74219
510.75017
537.09882
499.00513
483.97954
492.82403
498.12421
518.19612
513.23873
509.02529
502.15724
671.67864
495.56727
561.67775
575.18099
471.96296
473.39858
477.9323
473.0411
482.10082
857.94821
689.38345
742.96202
642.97543
546.13067
617.76958
473.16494
574.77801
468.00788
470.83153
468.95922
469.03263
472.38069
508.27476
481.72535
496.86999
509.42864
487.20178
509.59799
511.00953
510.81039
436.02017
432.15351
463.79253
465.90019
469.4074
600.86233
613.39038
563.31717
506.91584
516.92655
525.64087
513.96894
508.18003
481.6002
475.09557
475.50161
478.77155
485.94315
490.09509
496.41719
483.74175
771.00392
708.72607
681.49945
635.40381
655.34707
558.18776
578.97365
606.93481
581.99202
515.93537
530.94125
548.05858
667.57147
602.63632
615.8608
643.84763
475.00221
463.49113
462.72712
464.4882
463.50624
462.24729
464.36239
465.84026
466.77894
465.09377
468.09421
472.6939
468.59007
464.75615
456.79996
459.29601
457.75177
459.65003
509.99844
515.26478
504.44771
494.54193
518.62478
504.9651
493.151
492.32092
505.81611
488.6035
485.55237
504.31174
528.76427
532.86344
522.12555
519.93768
514.26278
508.5953
523.94269
480.14126
518.25007
527.04612
523.56663
558.77779
517.64429
529.53907
509.40317
627.52011
578.26374
554.34341
528.08214
515.00049
509.07285
506.19072
505.36897
482.57923
478.83762
488.2146
499.56059
625.58791
677.45571
656.69619
622.29163
580.49331
575.32478
567.19564
550.35113
555.67079
504.0697
496.91935
489.81741
486.9352
643.6215
712.622
761.83553
429.8204
505.17541
383.17955
490.33874
364.49894
297.72256
515.38777
440.96499
406.38816
256.82023
569.0059
465.33441
773.42127
470.96609
699.8135
556.10185
732.37536
864.26173
774.81357
287.46356
274.52784
271.16444
275.10182
164.84701
985.14907
292.78527
290.53385
209.38265
160.62382
164.35736
849.97061
871.80036
948.84764
311.62616
429.40705
530.1544
974.62992
922.77925
502.61761
196.31712
200.96943
166.96039
195.94541
391.11154
502.01011
481.71934
368.218
561.85911
666.23436
505.23797
495.42116
476.10187
510.66918
494.90203
469.34545
504.4921
502.71045
509.36444
509.35344
505.25774
509.86663
507.26059
500.26269
569.34661
468.63668
489.73188
502.67622
518.79967
531.58574
462.66415
476.40666
500.45089
497.35601
496.32966
473.20251
497.70227
479.2084
487.84529
484.48886
476.7138
481.90271
472.30008
474.03121
480.86357
495.61705
491.34783
486.92937
490.16434
497.7845
580.27795
520.96862
536.06123
526.60502
510.2263
538.01647
542.70965
547.28957
513.03104
505.74779
506.04767
507.59837
514.5576
512.48115
506.06631
504.95752
505.56712
502.79428
511.09439
482.80074
487.26632
445.12912
456.37499
471.92744
480.66724
1134.0993
818.38963
796.99258
681.51894
591.45459
678.34282
476.80915
604.97615
605.16576
467.83896
468.45097
470.92585
470.73829
468.56895
470.32029
474.89382
470.71061
488.43237
483.24609
1695.0519
786.3041
952.97739
1036.2135
941.59951
870.32884
809.85248
816.08965
693.10653
523.94551
466.03186
464.17941
467.49962
465.97662
467.81049
465.93606
469.85499
468.42146
467.55825
506.97205
482.50469
429.86704
491.11808
448.93738
488.24155
507.62235
507.17994
509.56725
444.00766
511.09925
499.01919
360.13416
345.33065
484.34535
649.65416
541.84385
685.84409
546.23308
563.38372
549.67673
537.23468
498.89173
505.94818
511.0881
502.74251
498.54436
515.11003
522.30322
508.91126
502.04452
484.60785
478.28907
469.88102
475.7641
470.576
473.47296
476.73969
479.29994
486.50584
930.31513
1005.2728
903.17754
764.09332
823.38175
664.81587
614.93124
606.48286
658.40835
815.61112
710.39024
669.37348
550.57789
564.67661
589.76936
574.08074
624.64247
639.34139
694.21606
459.68028
459.59741
463.08196
460.79344
459.20212
461.65423
462.0917
461.06556
458.92548
463.57562
467.81985
463.48896
460.87444
462.63114
465.61705
470.35512
465.94052
455.0726
457.78855
456.46525
465.25412
499.71481
494.17939
494.0542
509.98603
500.67139
487.1758
521.26387
460.78903
508.38282
490.04888
490.709
499.47412
485.94256
490.76625
476.57583
513.57185
550.31045
540.6961
529.84077
517.25406
513.146
507.1362
502.293
518.8055
470.29005
513.5257
529.06764
517.79245
539.36668
509.07116
510.18998
505.84768
597.90891
671.61161
576.00522
549.26774
528.0596
518.61674
511.64616
506.24432
500.41481
479.12337
475.59
482.20159
486.313
656.76945
739.36205
699.52409
672.97833
613.99837
606.71895
606.24273
566.39186
574.66561
529.1898
495.07164
493.15071
484.02671
479.47616
710.11377
770.11539
772.9869
375.19806
367.54976
476.45491
498.17596
378.92134
390.90726
251.82634
663.80182
364.2458
383.03697
297.5311
240.53252
235.91178
591.98617
750.87345
991.98536
519.23622
534.40892
612.26822
807.71269
730.39601
720.08553
277.19466
320.72152
277.89663
281.37783
158.2547
178.94978
705.37975
750.15391
188.63485
296.52075
300.06628
182.3347
152.65546