/*--------------------------------*- C++ -*----------------------------------*\
  =========                 |
  \\      /  F ield         | OpenFOAM: The Open Source CFD Toolbox
   \\    /   O peration     | Website:  https://openfoam.org
    \\  /    A nd           | Version:  7
     \\/     M anipulation  |
\*---------------------------------------------------------------------------*/
FoamFile
{
    version     2.0;
    format      ascii;
    class       volScalarField;
    location    "2000";
    object      p;
}
// * * * * * * * * * * * * * * * * * * * * * * * * * * * * * * * * * * * * * //

dimensions      [0 2 -2 0 0 0 0];

internalField   nonuniform List<scalar> 
34124
(
-1.0354288e+182
-2.5559549e+182
-9.9697638e+181
-1.3190147e+182
-3.7666527e+182
-2.5472282e+182
-2.6736579e+182
-9.5448038e+181
-1.2964344e+182
-2.6895107e+182
-5.5827442e+182
-3.7620616e+182
-3.809174e+182
-2.5306415e+182
-2.6700768e+182
-3.2269071e+182
-9.9167537e+181
-1.3875323e+182
-2.6232004e+182
-4.0823228e+182
-5.579412e+182
-5.6011098e+182
-7.0918586e+182
-3.7897136e+182
-3.8134344e+182
-4.0294779e+182
-2.5247709e+182
-2.7018265e+182
-3.1984848e+182
-4.2553113e+182
-1.0317805e+182
-4.7289454e+182
-2.4065287e+182
-3.8739635e+182
-5.0101671e+182
-5.6119854e+182
-5.6081492e+182
-7.0838635e+182
-5.6406151e+182
-7.0907901e+182
-8.1136985e+182
-3.900444e+182
-3.8628262e+182
-4.0306727e+182
-4.7187956e+182
-2.6005443e+182
-4.8565009e+182
-3.0267837e+182
-4.1786799e+182
-5.0715484e+182
-1.1610036e+182
-4.6024807e+182
-6.7646443e+182
-3.3549906e+182
-4.9781009e+182
-5.3812817e+182
-5.6371557e+182
-5.7504338e+182
-7.0569885e+182
-5.6663419e+182
-7.0878103e+182
-8.1101851e+182
-5.7500805e+182
-7.0882511e+182
-8.1094764e+182
-9.0168397e+182
-3.9608508e+182
-5.1118537e+182
-4.0206826e+182
-4.6915539e+182
-5.2728853e+182
-2.6929251e+182
-4.7802247e+182
-6.6149079e+182
-3.7916888e+182
-5.0507113e+182
-5.4246927e+182
-1.9079914e+182
-4.4103094e+182
-6.2954842e+182
-6.4626109e+182
-4.7978552e+182
-5.3037536e+182
-6.3265998e+182
-5.7085223e+182
-5.7788713e+182
-7.0666801e+182
-5.9181402e+182
-6.9461938e+182
-8.0964324e+182
-5.8070851e+182
-7.0920376e+182
-8.111142e+182
-9.0179984e+182
-5.9655273e+182
-7.0890403e+182
-8.1039729e+182
-9.0136144e+182
-9.9004294e+182
-4.0561968e+182
-5.1298396e+182
-6.1789272e+182
-4.5761922e+182
-5.2604557e+182
-5.610637e+182
-3.6492439e+182
-4.5786921e+182
-6.2404737e+182
-6.4778896e+182
-4.8690684e+182
-5.3598004e+182
-6.2954976e+182
-4.3474844e+182
-4.3526369e+182
-5.8366605e+182
-6.3622212e+182
-6.8913131e+182
-5.1518216e+182
-6.2955452e+182
-6.4074793e+182
-5.8839294e+182
-5.8771662e+182
-7.0821909e+182
-5.9465028e+182
-6.9890163e+182
-8.1034649e+182
-6.9537615e+182
-6.2543534e+182
-8.0440493e+182
-9.0177403e+182
-6.0249816e+182
-7.1134229e+182
-8.1122422e+182
-9.020168e+182
-9.9038926e+182
-6.3368546e+182
-7.058511e+182
-8.0820941e+182
-9.0116085e+182
-9.9017319e+182
-1.0880743e+183
-4.8321734e+182
-5.0926564e+182
-6.0949245e+182
-6.503742e+182
-5.1145028e+182
-5.5931224e+182
-6.4002661e+182
-4.4777521e+182
-4.5916381e+182
-5.8981337e+182
-6.4023098e+182
-6.9417461e+182
-5.1983628e+182
-6.2897827e+182
-6.4838159e+182
-3.9802737e+182
-4.7000918e+182
-5.177959e+182
-6.1713367e+182
-6.7346366e+182
-7.0637476e+182
-6.156506e+182
-6.5050616e+182
-1.9976745e+182
-6.0960702e+182
-6.12038e+182
-7.1427225e+182
-5.9616092e+182
-7.0691702e+182
-8.1126658e+182
-7.0007951e+182
-6.2976378e+182
-8.0677908e+182
-9.0267055e+182
-7.200433e+182
-7.9992352e+182
-6.8473131e+182
-9.004438e+182
-9.9068873e+182
-6.354045e+182
-7.085957e+182
-8.1062543e+182
-9.0254866e+182
-9.9113542e+182
-1.0868703e+183
-6.7069426e+182
-7.0426096e+182
-8.0163312e+182
-8.9977924e+182
-9.9034416e+182
-1.0885378e+183
-1.2091394e+183
-4.9206921e+182
-5.1195237e+182
-5.9430336e+182
-6.4845409e+182
-6.9401661e+182
-5.4643955e+182
-6.4355076e+182
-6.7079671e+182
-4.2029635e+182
-4.8357274e+182
-5.3175106e+182
-6.236639e+182
-6.8127814e+182
-7.0840249e+182
-6.1560603e+182
-6.5835035e+182
-4.0870176e+182
-1.2538941e+182
-1.9561787e+182
-5.6721929e+182
-5.2521959e+182
-6.2804472e+182
-7.0599899e+182
-7.2411353e+182
-6.6643782e+182
-4.2662332e+182
-5.9725728e+182
-6.1037713e+182
-7.1920626e+182
-6.1616019e+182
-6.3456316e+182
-7.1453782e+182
-8.1339103e+182
-7.1024544e+182
-6.3537534e+182
-8.1062706e+182
-9.0355807e+182
-7.2592309e+182
-8.0451906e+182
-6.9168642e+182
-9.0269347e+182
-9.9220303e+182
-8.1112775e+182
-7.5815042e+182
-8.9843574e+182
-7.3140006e+182
-9.9163462e+182
-1.0848892e+183
-6.7337325e+182
-7.1053373e+182
-8.0593986e+182
-9.0255659e+182
-9.9206031e+182
-1.0886706e+183
-1.2012496e+183
-7.3036078e+182
-7.0181668e+182
-7.9132863e+182
-8.9753254e+182
-9.9031641e+182
-1.0887386e+183
-1.2066029e+183
-1.3178211e+183
-4.9289418e+182
-5.3419542e+182
-5.6451762e+182
-6.3789925e+182
-6.8877881e+182
-7.1480573e+182
-6.3834935e+182
-6.8300553e+182
-5.6689965e+182
-2.6165731e+182
-3.8759535e+182
-5.804256e+182
-5.3733627e+182
-6.460051e+182
-7.0911275e+182
-7.2321139e+182
-6.7344874e+182
-5.2157442e+182
-6.3028266e+182
-1.0254844e+182
-2.1196299e+182
-1.6218904e+182
-6.9300451e+182
-5.2332972e+182
-7.011962e+182
-7.2230324e+182
-7.531901e+182
-5.8354479e+182
-6.0799512e+182
9.0583759e+180
-6.4952803e+182
-7.2908103e+182
-6.2866467e+182
-7.2069323e+182
-8.1786445e+182
-6.4110619e+182
-6.7313971e+182
-7.1953391e+182
-8.1221072e+182
-9.0569635e+182
-7.3915708e+182
-8.1446846e+182
-7.0086283e+182
-9.0571471e+182
-9.9396242e+182
-8.1785237e+182
-7.6555438e+182
-9.0287325e+182
-7.3872434e+182
-9.9432611e+182
-1.0882796e+183
-8.3727505e+182
-9.0535897e+182
-8.0001641e+182
-9.9536959e+182
-7.2525489e+182
-1.0868486e+183
-1.190235e+183
-7.3569617e+182
-7.0708329e+182
-8.0029817e+182
-9.0219112e+182
-9.9348619e+182
-1.0903829e+183
-1.2005573e+183
-1.3077074e+183
-7.5234114e+182
-8.0708598e+182
-7.4532548e+182
-8.9269503e+182
-9.9167825e+182
-1.0891856e+183
-1.2021904e+183
-1.3109213e+183
-1.3759782e+183
-4.3592183e+182
-5.1247653e+182
-6.2714777e+182
-5.8307549e+182
-6.8220174e+182
-7.1996022e+182
-7.2340758e+182
-6.9568048e+182
-6.1623742e+182
-6.7022222e+182
-2.7438306e+182
-4.6303557e+182
-3.6674982e+182
-6.9946039e+182
-5.4182274e+182
-7.0954143e+182
-7.2287581e+182
-7.4796822e+182
-6.2014941e+182
-6.3551506e+182
-2.8113139e+182
-7.8909591e+181
-8.632483e+181
-5.8026516e+182
-1.3939447e+182
-7.1086118e+182
-6.5140628e+182
-7.1554646e+182
-7.5072034e+182
-8.0102139e+182
-6.3518096e+182
-7.4297868e+181
-2.0891928e+182
-7.5988952e+182
-7.2290104e+182
-6.4692036e+182
-7.496246e+182
-8.3038832e+182
-6.5056821e+182
-7.3728402e+182
-8.2422655e+182
-9.1279762e+182
-6.7652069e+182
-7.4346431e+182
-7.1600715e+182
-8.1339976e+182
-9.087549e+182
-9.9692606e+182
-8.31698e+182
-7.8206668e+182
-9.1066262e+182
-7.4887492e+182
-9.9736955e+182
-1.0920151e+183
-8.4530865e+182
-9.1169098e+182
-8.0756764e+182
-1.0002336e+183
-7.3634192e+182
-1.0918647e+183
-1.1919541e+183
-9.2301871e+182
-8.7453697e+182
-1.0015899e+183
-8.2755333e+182
-1.1030616e+183
-7.1451705e+182
-1.1729481e+183
-1.2930371e+183
-7.5983611e+182
-8.1428307e+182
-7.5040891e+182
-8.9952876e+182
-9.9667839e+182
-1.0927407e+183
-1.1983476e+183
-1.3011022e+183
-1.3706319e+183
-8.2590332e+182
-7.9505863e+182
-8.9506183e+182
-7.3319144e+182
-9.9069885e+182
-1.0925543e+183
-1.1992787e+183
-1.3010924e+183
-1.3700237e+183
-1.4075977e+183
-4.5544988e+182
-5.8535516e+182
-5.099887e+182
-7.2099895e+182
-5.9591058e+182
-7.2514272e+182
-7.2520241e+182
-7.4825193e+182
-6.668819e+182
-6.740494e+182
-6.7098772e+182
-2.8023385e+182
-2.8370664e+182
-6.2432725e+182
-3.3135311e+182
-7.2046175e+182
-6.6086771e+182
-7.1661703e+182
-7.465021e+182
-8.0124368e+182
-6.5840891e+182
-4.3230112e+182
-1.2258429e+183
-9.9267822e+181
-2.0349193e+182
-9.9414266e+181
-7.4703916e+182
-5.2769212e+182
-7.1224956e+182
-6.9281287e+182
-7.4614834e+182
-7.9745005e+182
-8.5612075e+182
-2.6684586e+182
-2.0396961e+182
-1.512655e+183
-8.5256529e+182
-8.0897361e+182
-7.8106987e+182
-7.7133397e+182
-7.2763878e+182
-6.64032e+182
-7.6982832e+182
-8.5153083e+182
-9.2553071e+182
-6.7406499e+182
-7.6722686e+182
-8.3112156e+182
-9.2419682e+182
-1.0076732e+183
-7.0797989e+182
-7.7098694e+182
-8.2824582e+182
-7.5247924e+182
-9.0958028e+182
-1.0028437e+183
-1.0971864e+183
-8.6146525e+182
-9.2199041e+182
-8.208717e+182
-1.0063039e+183
-7.5450339e+182
-1.0978628e+183
-1.1928943e+183
-9.312983e+182
-8.8193276e+182
-1.0080643e+183
-8.370489e+182
-1.1089806e+183
-7.2038723e+182
-1.1797608e+183
-1.2865784e+183
-9.4781832e+182
-1.0087458e+183
-9.1034099e+182
-1.1090841e+183
-8.6802468e+182
-1.2366243e+183
-7.3942493e+182
-1.2375587e+183
-1.3589303e+183
-8.3442329e+182
-8.004989e+182
-9.0284728e+182
-7.3722908e+182
-9.9709464e+182
-1.0986398e+183
-1.1993186e+183
-1.2914931e+183
-1.3639284e+183
-1.4051787e+183
-8.610538e+182
-9.1489356e+182
-8.2585785e+182
-9.9000426e+182
-7.5495817e+182
-1.0931535e+183
-1.2085378e+183
-1.28386e+183
-1.3603418e+183
-1.4045661e+183
-1.4376514e+183
-4.921883e+182
-4.6638505e+182
-6.8816526e+182
-4.946798e+182
-7.401343e+182
-6.8937784e+182
-7.2107482e+182
-7.4730869e+182
-8.2633595e+182
-6.9037589e+182
-6.6528087e+182
-1.3262296e+183
-3.1443374e+182
-4.8995175e+182
-2.988265e+182
-7.5669352e+182
-5.6000553e+182
-7.1984367e+182
-6.9617819e+182
-7.4194017e+182
-7.9625941e+182
-8.7329345e+182
-5.7708638e+182
-7.138609e+182
-1.7084068e+183
-1.4868492e+182
-4.3489773e+182
-7.3014536e+182
-1.4429804e+182
-7.9385452e+182
-6.1100269e+182
-7.1392672e+182
-7.3739825e+182
-7.9233213e+182
-8.6369966e+182
-9.6773855e+182
-2.3335261e+182
-1.1730291e+183
-1.0310594e+183
-8.875814e+182
-8.8015835e+182
-9.4254123e+182
-8.3120009e+182
-8.4333192e+182
-8.0533706e+182
-7.9708367e+182
-7.8290143e+182
-7.1381946e+182
-6.8462962e+182
-8.0010328e+182
-8.7203998e+182
-9.4578544e+182
-1.0226157e+183
-7.0193596e+182
-7.9661604e+182
-8.5920432e+182
-9.286814e+182
-1.0208636e+183
-1.1070225e+183
-7.5109939e+182
-8.4806529e+182
-8.078011e+182
-9.1766634e+182
-7.406122e+182
-1.0059326e+183
-1.1063682e+183
-1.1998436e+183
-9.4443533e+182
-8.9443934e+182
-1.0163735e+183
-8.5172366e+182
-1.1157086e+183
-7.3683045e+182
-1.1869984e+183
-1.2772094e+183
-9.5592888e+182
-1.0160847e+183
-9.2024398e+182
-1.1143883e+183
-8.7244805e+182
-1.2349643e+183
-7.5116297e+182
-1.2362555e+183
-1.3514628e+183
-1.0191009e+183
-9.8125645e+182
-1.1062821e+183
-9.5777301e+182
-1.222342e+183
-1.0599015e+183
-1.3316585e+183
-1.4000163e+183
-8.6905181e+182
-9.2401182e+182
-8.2863871e+182
-9.9768404e+182
-7.5710009e+182
-1.0992831e+183
-1.2104935e+183
-1.2760736e+183
-1.353043e+183
-1.4017709e+183
-1.4365712e+183
-9.3755996e+182
-8.9464294e+182
-9.9809526e+182
-8.6866681e+182
-1.0881504e+183
-1.2051879e+183
-1.3131246e+183
-1.3258882e+183
-1.3974329e+183
-1.4364592e+183
-1.4711903e+183
-5.1312383e+182
-6.4161659e+182
-4.8426832e+182
-7.7696232e+182
-6.3022552e+182
-7.3945365e+182
-7.0574614e+182
-7.4449114e+182
-8.1595916e+182
-9.0430127e+182
-7.0782078e+182
-1.0264149e+183
-1.1616807e+183
-3.8713644e+182
-4.7757948e+182
-7.4927475e+182
-3.5931465e+182
-7.9778302e+182
-6.248764e+182
-7.139071e+182
-7.3412032e+182
-7.8796824e+182
-8.7594169e+182
-9.5115806e+182
-4.5156257e+182
-1.140875e+183
-1.024155e+183
-6.3818316e+182
-6.7485045e+182
-1.6407656e+182
-8.1437971e+182
-1.6083948e+182
-8.4512184e+182
-7.6503832e+182
-6.8591049e+182
-7.6600488e+182
-8.7180127e+182
-9.8157731e+182
-8.1934095e+182
-1.0379952e+183
-1.0231171e+183
-1.054435e+183
-9.2006111e+182
-9.6880315e+182
-9.1491962e+182
-9.0984239e+182
-9.7059477e+182
-1.0396784e+183
-8.7333507e+182
-8.4807935e+182
-8.7914676e+182
-8.3501088e+182
-8.3128502e+182
-8.0982742e+182
-7.9428146e+182
-7.2952615e+182
-7.2104849e+182
-8.9975412e+182
-8.2985125e+182
-9.6680693e+182
-1.0463237e+183
-1.1298184e+183
-7.6211312e+182
-8.8483676e+182
-8.2663762e+182
-9.4787986e+182
-1.0319513e+183
-1.1253118e+183
-1.1846774e+183
-7.6424914e+182
-8.8009528e+182
-9.3818421e+182
-8.3420947e+182
-1.0096125e+183
-7.6333199e+182
-7.4257953e+182
-1.1066951e+183
-1.2127544e+183
-1.2644038e+183
-1.2068265e+183
-9.6862853e+182
-1.0265353e+183
-9.3380778e+182
-1.1196509e+183
-8.7619778e+182
-1.2323183e+183
-7.7530335e+182
-7.5912457e+182
-1.2331097e+183
-1.1991634e+183
-1.3374802e+183
-1.0262067e+183
-9.8922665e+182
-1.1116078e+183
-9.6348111e+182
-1.2213037e+183
-1.0015962e+183
-1.3238359e+183
-1.3964198e+183
-1.041204e+183
-1.1024503e+183
-1.0215991e+183
-1.2077214e+183
-1.0260722e+183
-1.3092036e+183
-1.0793474e+183
-1.3810879e+183
-1.4332851e+183
-9.4733565e+182
-9.0099673e+182
-1.0058073e+183
-8.6771653e+182
-1.0946792e+183
-1.2061115e+183
-1.3072813e+183
-1.3191227e+183
-1.3942898e+183
-1.4353443e+183
-1.470498e+183
-9.6446875e+182
-1.0107385e+183
-9.3380101e+182
-1.0839598e+183
-9.414681e+182
-1.1935341e+183
-1.2980884e+183
-1.3774309e+183
-1.4330145e+183
-1.4709292e+183
-1.5039898e+183
-5.915315e+182
-5.6112347e+182
-7.7190703e+182
-5.4140279e+182
-8.0918477e+182
-6.6801733e+182
-7.3875535e+182
-7.7071171e+182
-7.3981223e+182
-7.276292e+182
-8.0519963e+182
-9.0184489e+182
-8.9922329e+182
-7.811765e+182
-1.094802e+183
-1.0297699e+183
-6.4528758e+182
-7.0712563e+182
-4.1000638e+182
-8.1479794e+182
-2.925931e+182
-8.4681667e+182
-7.6190757e+182
-7.2154139e+182
-7.6360206e+182
-8.7115167e+182
-9.6160862e+182
-8.1363826e+182
-9.7935901e+182
-1.013342e+183
-1.0409436e+183
-7.2824862e+182
-6.9189467e+182
-7.3989403e+182
-2.3644313e+182
-8.9567826e+182
-7.0549014e+182
-9.0471186e+182
-8.6894741e+182
-9.0787579e+182
-8.0286443e+182
-6.0754741e+182
-9.7996622e+182
-1.0753697e+183
-1.1859266e+183
-9.8988288e+182
-9.5768582e+182
-9.5655586e+182
-1.0541521e+183
-9.9801848e+182
-9.459265e+182
-9.4406328e+182
-1.0015948e+183
-1.0712728e+183
-1.1402089e+183
-9.9278367e+182
-9.0884017e+182
-8.682128e+182
-9.1383059e+182
-8.6854067e+182
-8.4066228e+182
-8.5713012e+182
-8.2986601e+182
-8.351489e+182
-7.9350377e+182
-7.4737481e+182
-7.8220725e+182
-9.9111092e+182
-9.2512598e+182
-9.5069523e+182
-1.069582e+183
-1.2227016e+183
-1.2474825e+183
-7.8158226e+182
-9.6898435e+182
-9.1027586e+182
-8.5962712e+182
-1.0399128e+183
-1.133027e+183
-1.2405271e+183
-1.2351742e+183
-1.2324113e+183
-7.833294e+182
-8.0637124e+182
-9.6203219e+182
-9.1164087e+182
-1.0176599e+183
-8.6950296e+182
-1.1035354e+183
-7.7179326e+182
-1.2075268e+183
-1.2987519e+183
-1.3050608e+183
-1.2416404e+183
-1.0374943e+183
-1.0006625e+183
-1.1178297e+183
-9.7054577e+182
-1.2198113e+183
-9.3547809e+182
-1.3106948e+183
-7.8484115e+182
-1.2271946e+183
-1.3858865e+183
-1.0485006e+183
-1.10809e+183
-1.0266013e+183
-1.2076835e+183
-1.0208043e+183
-1.3030997e+183
-1.0714388e+183
-1.3776437e+183
-1.4320753e+183
-1.1078824e+183
-1.0792955e+183
-1.1951615e+183
-1.0663361e+183
-1.2918066e+183
-1.1350233e+183
-1.0679934e+183
-1.4258222e+183
-1.3589908e+183
-1.4680532e+183
-9.7255315e+182
-1.0198542e+183
-9.3744417e+182
-1.0907651e+183
-9.4236657e+182
-1.1950083e+183
-1.2928941e+183
-1.3742649e+183
-1.4319271e+183
-1.4703225e+183
-1.5026662e+183
-1.0305704e+183
-9.9057415e+182
-1.0851794e+183
-1.1809339e+183
-9.3330635e+182
-1.0449464e+183
-1.2852439e+183
-1.3582298e+183
-1.4264665e+183
-1.4700437e+183
-1.5036519e+183
-1.5286315e+183
-6.7426045e+182
-7.4766362e+182
-5.9628789e+182
-8.2363204e+182
-4.5201874e+182
-8.4888745e+182
-7.8281038e+182
-7.7886612e+182
-7.7612355e+182
-7.8050339e+182
-7.5591008e+182
-8.8310834e+182
-8.9474955e+182
-8.1126698e+182
-9.7932245e+182
-1.0227968e+183
-1.0234193e+183
-7.3479273e+182
-7.1289992e+182
-7.3607886e+182
-4.0498268e+182
-8.8632949e+182
-7.0133315e+182
-9.033058e+182
-8.6892158e+182
-8.9831044e+182
-8.0153067e+182
-6.1748797e+182
-9.7499894e+182
-1.0492895e+183
-1.1411472e+183
-7.9149107e+182
-6.8989317e+182
-7.1875391e+182
-8.9728599e+182
-7.2117366e+182
-8.4852686e+182
-7.0277462e+182
-8.9527977e+182
-8.6842264e+182
-7.8018075e+182
-6.0071371e+182
-4.789158e+182
-1.0309257e+183
-1.281846e+183
-7.6279266e+182
-1.0671659e+183
-1.0246005e+183
-1.0368564e+183
-9.9875598e+182
-9.9832658e+182
-1.1427687e+183
-1.0923495e+183
-1.0338105e+183
-9.7146219e+182
-1.0353338e+183
-9.8127966e+182
-1.1025356e+183
-1.2397768e+183
-1.025691e+183
-1.120605e+183
-1.0374911e+183
-8.8665021e+182
-9.171638e+182
-8.8657982e+182
-8.399704e+182
-8.1133381e+182
-8.0648029e+182
-8.0145594e+182
-7.5606077e+182
-1.0225345e+183
-1.0854218e+183
-1.0911623e+183
-9.8769611e+182
-9.5446948e+182
-9.4548892e+182
-1.2314348e+183
-1.3471351e+183
-1.2233911e+183
-1.2340549e+183
-9.9264574e+182
-1.0498615e+183
-1.1337359e+183
-1.2671425e+183
-7.9741061e+182
-9.8561889e+182
-1.0325862e+183
-9.4955202e+182
-1.0996443e+183
-9.4489919e+182
-1.19815e+183
-1.2862969e+183
-1.3660715e+183
-1.059317e+183
-1.1157949e+183
-1.0345956e+183
-1.2078071e+183
-1.0180495e+183
-1.2943045e+183
-1.047834e+183
-1.3677879e+183
-1.4284867e+183
-1.1145889e+183
-1.0851423e+183
-1.1963511e+183
-1.0665527e+183
-1.2875599e+183
-1.1362512e+183
-1.0680766e+183
-1.4248749e+183
-1.3566477e+183
-1.4680924e+183
-1.1328841e+183
-1.1880274e+183
-1.1172698e+183
-1.2790935e+183
-1.2309054e+183
-1.1509183e+183
-1.0563751e+183
-1.4657884e+183
-1.4174505e+183
-1.3359976e+183
-1.4997591e+183
-1.0385911e+183
-9.9549021e+182
-1.0935129e+183
-1.1835677e+183
-9.3494862e+182
-1.0479803e+183
-1.2814887e+183
-1.3561607e+183
-1.4258064e+183
-1.4697204e+183
-1.5024198e+183
-1.5275461e+183
-1.054671e+183
-1.0943911e+183
-1.1715321e+183
-1.2720177e+183
-8.9343233e+182
-1.0448262e+183
-1.1837221e+183
-1.3293641e+183
-1.4190715e+183
-1.4690458e+183
-1.5028613e+183
-1.5278984e+183
-1.5344548e+183
-7.5897108e+182
-7.4619084e+182
-7.6235325e+182
-5.3406574e+182
-8.8159321e+182
-7.5070928e+182
-9.1891908e+182
-8.7927572e+182
-8.7816254e+182
-8.1301326e+182
-6.4678895e+182
-9.8992538e+182
-1.0179393e+183
-1.0474855e+183
-8.0149215e+182
-7.1211583e+182
-7.3943885e+182
-8.9802019e+182
-7.238723e+182
-8.5928651e+182
-7.5522054e+182
-8.9977414e+182
-8.6967629e+182
-7.8744444e+182
-6.1207345e+182
-4.939707e+182
-1.0170514e+183
-1.2186257e+183
-8.0481626e+182
-7.8599834e+182
-8.4790221e+182
-1.4482048e+183
-8.3395911e+182
-4.2153131e+182
-9.5675958e+182
-9.769817e+182
-9.4847374e+182
-7.6155251e+182
-6.7375155e+182
-5.7987613e+182
-4.5975853e+182
-4.6675477e+182
-1.112015e+183
-7.7543839e+182
6.0992337e+181
-1.1413035e+183
-1.0888718e+183
-1.1178007e+183
-1.0612202e+183
-1.0773604e+183
-1.0246601e+183
-1.2318983e+183
-1.1250163e+183
-1.1205529e+183
-9.9376487e+182
-1.0607717e+183
-1.1194252e+183
-1.0523311e+183
-1.1486535e+183
-1.0866009e+183
-1.2374281e+183
-1.1192168e+183
-1.164879e+183
-1.1468117e+183
-1.0314563e+183
-8.5727778e+182
-9.6888988e+182
-8.9053642e+182
-1.0379942e+183
-9.4403266e+182
-8.4811662e+182
-7.8167309e+182
-1.1069371e+183
-1.0781193e+183
-1.2179493e+183
-1.127541e+183
-1.1168661e+183
-1.0140089e+183
-1.0750459e+183
-1.0637381e+183
-9.9516286e+182
-8.7503463e+182
-9.53787e+182
-1.2259068e+183
-1.3371501e+183
-1.2442472e+183
-1.3381465e+183
-1.4209861e+183
-1.1314665e+183
-1.2204313e+183
-1.227981e+183
-1.0487554e+183
-1.0081122e+183
-1.1048035e+183
-1.187723e+183
-9.3884852e+182
-1.0560748e+183
-1.2778477e+183
-1.351615e+183
-1.4235791e+183
-1.1244319e+183
-1.0940701e+183
-1.198489e+183
-1.0686612e+183
-1.2830234e+183
-1.1411041e+183
-1.0655006e+183
-1.422088e+183
-1.3515262e+183
-1.4682639e+183
-1.1391478e+183
-1.1915485e+183
-1.1189659e+183
-1.2755671e+183
-1.233167e+183
-1.1534589e+183
-1.0554332e+183
-1.4662176e+183
-1.4171824e+183
-1.3364771e+183
-1.4997572e+183
-1.1925288e+183
-1.165015e+183
-1.2654397e+183
-1.2270435e+183
-1.3284642e+183
-1.2412601e+183
-1.1664559e+183
-1.0702523e+183
-1.4926064e+183
-1.467808e+183
-1.4080825e+183
-1.2524669e+183
-1.5240314e+183
-1.0594874e+183
-1.10214e+183
-1.1762098e+183
-1.2688268e+183
-8.9599349e+182
-1.0482947e+183
-1.1861408e+183
-1.3298248e+183
-1.4192045e+183
-1.4692881e+183
-1.5018654e+183
-1.5268071e+183
-1.5344058e+183
-1.1202278e+183
-1.1675911e+183
-1.2563012e+183
-7.5138683e+182
-1.0360622e+183
-1.1879671e+183
-1.1928286e+183
-1.3107593e+183
-1.2320163e+183
-1.4084707e+183
-1.4698274e+183
-1.5046153e+183
-1.5262662e+183
-1.5344125e+183
-1.5268731e+183
-8.2128079e+182
-7.5388169e+182
-7.6991192e+182
-8.94165e+182
-7.7588634e+182
-9.3152722e+182
-9.4174548e+182
-9.2563266e+182
-8.8090797e+182
-8.1739205e+182
-6.4479572e+182
-5.6310861e+182
-9.9796543e+182
-1.0366552e+183
-9.1315688e+182
-8.0073454e+182
-8.5896304e+182
-2.1519222e+183
-8.3966655e+182
-9.1918338e+182
-9.5538574e+182
-9.8186727e+182
-9.5070191e+182
-7.7843173e+182
-6.967713e+182
-5.9003306e+182
-4.7631782e+182
-4.8416422e+182
-1.0789875e+183
-8.166317e+182
-4.0407558e+181
-8.7990505e+182
-8.8910769e+182
-8.9383852e+182
-9.850287e+182
-9.3078644e+182
-9.9121344e+182
-9.5465721e+182
-1.0115889e+183
-9.3455039e+182
-7.851934e+182
-8.2679736e+182
-5.3078936e+182
-3.9822687e+182
-4.7054311e+182
-6.2886322e+182
-7.3584155e+182
2.3368288e+182
-7.1394589e+181
-1.1528493e+183
-1.1800672e+183
-1.1740819e+183
-1.0694616e+183
-1.2571715e+183
-1.1989309e+183
-1.0799201e+183
-1.2300673e+183
-1.1699247e+183
-1.2321125e+183
-1.3377228e+183
-1.2720159e+183
-1.1229249e+183
-1.1571716e+183
-1.0249734e+183
-9.2145122e+182
-9.7041098e+182
-9.3199217e+182
-8.86153e+182
-1.171349e+183
-1.107516e+183
-1.0794218e+183
-1.2149448e+183
-1.2444683e+183
-1.3291006e+183
-1.1418464e+183
-1.2116876e+183
-1.2238115e+183
-1.1426164e+183
-1.0689327e+183
-9.9518592e+182
-8.679778e+182
-9.397909e+182
-1.274063e+183
-1.3466414e+183
-1.419004e+183
-1.4246107e+183
-1.4727815e+183
-1.2680334e+183
-1.1124531e+183
-1.1838364e+183
-9.0185468e+182
-1.0579067e+183
-1.1925834e+183
-1.3337091e+183
-1.4202128e+183
-1.4698986e+183
-1.1484972e+183
-1.1971205e+183
-1.240974e+183
-1.1626727e+183
-1.0518154e+183
-1.4677989e+183
-1.4168308e+183
-1.3411378e+183
-1.4995252e+183
-1.1966071e+183
-1.1674567e+183
-1.2651454e+183
-1.2292644e+183
-1.3302042e+183
-1.2444831e+183
-1.1694399e+183
-1.0624229e+183
-1.493456e+183
-1.4686414e+183
-1.4090335e+183
-1.2539085e+183
-1.5233509e+183
-1.4019266e+183
-1.3254154e+183
-1.2614177e+183
-1.1963395e+183
-1.0701245e+183
-1.5109687e+183
-1.5133777e+183
-1.4659679e+183
-1.5340607e+183
-1.1244183e+183
-1.1728062e+183
-1.2561069e+183
-7.5099004e+182
-1.0390917e+183
-1.1916468e+183
-1.1957664e+183
-1.3130601e+183
-1.2331706e+183
-1.4096995e+183
-1.4707686e+183
-1.5041641e+183
-1.5252416e+183
-1.5343305e+183
-1.5272469e+183
-7.2945965e+182
-1.0029162e+183
-1.2046489e+183
-1.3200202e+183
-1.4070064e+183
-1.4692396e+183
-1.5116068e+183
-1.5232113e+183
-1.5340079e+183
-1.5273014e+183
-1.5132593e+183
-8.3411291e+182
-8.7426502e+182
-1.1270854e+183
-9.6180872e+182
-1.004091e+183
-9.6167212e+182
-8.8288396e+182
-8.0633549e+182
-6.3781121e+182
-5.5761895e+182
-6.7890004e+182
-1.0021363e+183
-9.1318249e+182
-8.3142562e+182
-8.8950441e+182
-8.9563655e+182
-8.9933975e+182
-9.7671536e+182
-9.5132299e+182
-9.9195932e+182
-9.5710635e+182
-1.0132497e+183
-9.3924927e+182
-7.9701276e+182
-1.6528091e+183
-5.4436501e+182
-4.1853678e+182
-4.8981232e+182
-6.4507605e+182
-7.7904382e+182
1.559041e+182
-2.2536541e+182
-9.435716e+182
-9.8855747e+182
-1.054123e+183
-7.4096714e+182
-8.4185829e+182
-3.2078142e+182
-5.3349772e+182
-1.5072176e+182
-6.3753499e+182
-6.5579528e+182
-2.5908847e+181
6.4974539e+181
-5.4584049e+181
-5.7976816e+182
-1.2597652e+183
-1.2914894e+183
-1.2179692e+183
-1.1176565e+183
-1.1349827e+183
-1.0760533e+183
-1.3464194e+183
-1.2878602e+183
-1.1939631e+183
-1.0877416e+183
-1.201373e+183
-1.2365112e+183
-1.2631829e+183
-1.1720399e+183
-1.2725564e+183
-1.3526346e+183
-1.4176509e+183
-1.280472e+183
-1.1524824e+183
-1.0178908e+183
-9.1512729e+182
-9.0607264e+182
-9.7289776e+182
-9.5843465e+182
-9.2434968e+182
-1.1372024e+183
-1.2547084e+183
-1.1086733e+183
-1.245581e+183
-1.3398761e+183
-1.3540711e+183
-1.4227507e+183
-1.1312988e+183
-1.1793251e+183
-1.2035601e+183
-1.2408427e+183
-1.2636701e+183
-1.0820124e+183
-8.5229519e+182
-1.4300571e+183
-1.4788952e+183
-1.4821696e+183
-1.4976234e+183
-7.5827811e+182
-1.0487519e+183
-1.2041275e+183
-1.3232003e+183
-1.4149303e+183
-1.474e+183
-1.5032213e+183
-1.3369895e+183
-1.2563169e+183
-1.1846022e+183
-1.0381314e+183
-1.4957117e+183
-1.4714854e+183
-1.4125309e+183
-1.5222309e+183
-1.403699e+183
-1.328346e+183
-1.2656193e+183
-1.1972068e+183
-1.066671e+183
-1.5105773e+183
-1.5129078e+183
-1.4667687e+183
-1.5338745e+183
-1.460738e+183
-1.3997629e+183
-1.3363503e+183
-1.2889947e+183
-1.2288477e+183
-1.5336039e+183
-1.5113888e+183
-1.5289722e+183
-7.3321238e+182
-1.007644e+183
-1.2100146e+183
-1.3239158e+183
-1.4096524e+183
-1.4704804e+183
-1.5116236e+183
-1.5220973e+183
-1.5339016e+183
-1.5276803e+183
-1.5135365e+183
-9.7960839e+182
-1.2220909e+183
-1.3428537e+183
-1.4166943e+183
-1.4779836e+183
-1.5153926e+183
-1.5334002e+183
-1.5318084e+183
-1.5297663e+183
-1.5135325e+183
-1.4942728e+183
-9.8412596e+182
-1.0397857e+183
-9.9398612e+182
-1.0312901e+183
-8.8916105e+182
-1.2094606e+183
-6.1199623e+182
-5.3691817e+182
-6.7761824e+182
-8.5170818e+182
-9.051183e+182
-8.167901e+182
-9.3535376e+182
-9.6264005e+182
-9.912495e+182
-1.0553113e+183
-7.9115464e+182
-8.6948572e+182
-3.9232374e+182
-5.5736616e+182
-2.6256229e+182
-6.3183857e+182
-6.7714791e+182
-1.3063289e+182
-4.4741308e+181
-1.9851536e+182
-6.193804e+182
-2.465667e+182
-1.1166439e+183
-1.0319153e+182
-8.8730289e+182
-9.7811347e+181
-1.2324725e+183
-6.107381e+182
-6.7765512e+182
-5.6380856e+182
-1.0608299e+183
-5.9356814e+180
-1.7654512e+182
-1.2498084e+182
-5.4109724e+182
-1.0535713e+183
-1.3591757e+183
-1.246631e+183
-1.330407e+183
-1.3738318e+183
-1.322421e+183
-1.2388413e+183
-1.1297444e+183
-1.1758176e+183
-1.1284953e+183
-1.0278289e+183
-1.0892276e+183
-1.1040285e+183
-1.0491708e+183
-1.3636253e+183
-1.4243335e+183
-1.3099759e+183
-1.2023107e+183
-1.1056248e+183
-1.3756069e+183
-1.4240323e+183
-1.4784057e+183
-1.2984699e+183
-1.1740993e+183
-1.0386921e+183
-1.3123544e+183
-1.2915221e+183
-1.3762487e+183
-1.0641929e+183
-1.2965973e+183
-1.3774035e+183
-1.4361372e+183
-1.4356599e+183
-1.4783267e+183
-8.9704167e+182
-7.6541136e+182
-7.1540402e+182
-8.6917972e+182
-9.0750918e+182
-1.5173141e+183
-1.5175621e+183
-1.5200314e+183
-1.4993309e+183
-1.5037069e+183
-1.5122491e+183
-1.5125409e+183
-7.4786895e+182
-1.0207578e+183
-1.2275928e+183
-1.3383929e+183
-1.4218431e+183
-1.4745671e+183
-1.5119723e+183
-1.519547e+183
-1.4110498e+183
-1.3404527e+183
-1.2815347e+183
-1.1996643e+183
-1.0489941e+183
-1.5103831e+183
-1.5122862e+183
-1.4696993e+183
-1.5333538e+183
-1.4620884e+183
-1.402317e+183
-1.3404676e+183
-1.2914757e+183
-1.2316751e+183
-1.5329358e+183
-1.5109714e+183
-1.5293628e+183
-1.5086994e+183
-1.4602131e+183
-1.41446e+183
-1.3645173e+183
-1.3646974e+183
-1.4275505e+183
-1.534357e+183
-1.5331067e+183
-1.5153238e+183
-9.8227986e+182
-1.2272668e+183
-1.3473386e+183
-1.4204437e+183
-1.480245e+183
-1.515401e+183
-1.5327899e+183
-1.5312389e+183
-1.5300975e+183
-1.5138219e+183
-1.4944451e+183
-1.2313063e+183
-1.2288273e+183
-1.3623035e+183
-1.4432706e+183
-1.485739e+183
-1.521902e+183
-1.5350084e+183
-1.5382369e+183
-1.5155344e+183
-1.4944752e+183
-1.4715207e+183
-1.0578752e+183
-1.0153629e+183
-1.0621295e+183
-9.1847466e+182
-1.0096248e+183
-7.52989e+182
-6.8932607e+182
-4.6733142e+182
-6.9742967e+182
-8.5296397e+182
-1.033893e+183
-8.5535801e+182
-9.3902363e+182
-1.1434181e+183
-6.4824559e+182
-1.1197224e+183
-3.8979949e+182
-8.9711684e+182
-3.144216e+182
-2.3016452e+183
-6.27127e+182
-6.7801435e+182
-5.5625905e+182
-1.0191731e+183
-1.0329082e+182
-3.9095622e+182
-3.2799679e+182
-5.8676918e+182
-1.0593695e+183
-1.4107524e+183
-1.248219e+182
-1.0726931e+183
-6.8800794e+181
-8.1156778e+182
-6.9083604e+182
-7.9537038e+182
-9.1642955e+182
-4.6198666e+181
-1.8501797e+182
-4.3611335e+182
-1.1064588e+182
-1.058749e+183
-1.3928613e+183
-1.4628033e+183
-1.3456359e+183
-1.4889439e+183
-1.4090428e+183
-1.2328669e+183
-1.3622191e+183
-1.2584898e+183
-1.3998658e+183
-1.4424024e+183
-1.3958776e+183
-1.2524868e+183
-1.0903975e+183
-1.1650237e+183
-1.1277057e+183
-9.9564347e+182
-1.0289427e+183
-1.0455363e+183
-1.4404165e+183
-1.4018461e+183
-1.481939e+183
-1.3474206e+183
-1.233313e+183
-1.211399e+183
-1.4098925e+183
-1.4527962e+183
-1.5194581e+183
-1.3379473e+183
-1.0275945e+183
-1.3760509e+183
-1.2610808e+183
-1.4915019e+183
-1.2955856e+183
-1.4060955e+183
-1.4538869e+183
-1.0019615e+183
-1.4038902e+183
-1.46736e+183
-1.4940479e+183
-1.5200342e+183
-7.3983926e+182
-7.8959383e+182
-6.8609263e+182
-8.0859437e+182
-1.5341721e+183
-1.541683e+183
-1.5359883e+183
-1.5305091e+183
-1.5312179e+183
-1.5077604e+183
-1.5122569e+183
-1.5190801e+183
-1.2422416e+183
-1.3635974e+183
-1.4375732e+183
-1.4888432e+183
-1.5153222e+183
-1.5291128e+183
-1.4679079e+183
-1.4131361e+183
-1.3572536e+183
-1.3001715e+183
-1.5103108e+183
-1.5320662e+183
-1.5088815e+183
-1.4622048e+183
-1.4180133e+183
-1.3673496e+183
-1.3656315e+183
-1.4305535e+183
-1.5345734e+183
-1.5325588e+183
-1.5156384e+183
-1.5329514e+183
-1.5083232e+183
-1.4703463e+183
-1.4421898e+183
-1.4197309e+183
-1.4208775e+183
-1.5211432e+183
-1.5202041e+183
-1.5364921e+183
-1.4956562e+183
-1.2301794e+183
-1.2338242e+183
-1.3659456e+183
-1.4477093e+183
-1.4885309e+183
-1.5223927e+183
-1.5345411e+183
-1.5384464e+183
-1.5158271e+183
-1.4946499e+183
-1.4715984e+183
-1.346127e+183
-1.497312e+183
-1.4033195e+183
-1.4728721e+183
-1.5024388e+183
-1.5306648e+183
-1.5382172e+183
-1.523039e+183
-1.5484345e+183
-1.4963133e+183
-1.471601e+183
-1.4451794e+183
-1.0820083e+183
-1.1087902e+183
-9.8294804e+182
-9.1156822e+182
-1.4610405e+183
-7.4079577e+182
-5.5707924e+182
-8.8522318e+182
-1.0349952e+183
-1.1364791e+183
-1.0302634e+183
-1.1465873e+183
-1.1058626e+183
-1.3753636e+183
-4.4061365e+182
-1.0724842e+183
-2.8323428e+182
-8.289914e+182
-7.1500965e+182
-8.0327862e+182
-9.2226281e+182
-1.9178059e+182
-3.8662363e+182
-5.4776986e+182
-3.1078837e+182
-1.0649402e+183
-1.3547044e+183
-1.3175026e+183
-9.6801422e+182
-9.5391699e+182
-1.1938521e+182
-1.1832852e+183
-9.1867451e+182
-9.2267482e+182
-1.6567617e+182