/*--------------------------------*- C++ -*----------------------------------*\
  =========                 |
  \\      /  F ield         | OpenFOAM: The Open Source CFD Toolbox
   \\    /   O peration     | Website:  https://openfoam.org
    \\  /    A nd           | Version:  7
     \\/     M anipulation  |
\*---------------------------------------------------------------------------*/
FoamFile
{
    version     2.0;
    format      ascii;
    class       surfaceScalarField;
    location    "2000";
    object      phi;
}
// * * * * * * * * * * * * * * * * * * * * * * * * * * * * * * * * * * * * * //

dimensions      [0 3 -1 0 0 0 0];

internalField   nonuniform List<scalar> 
100795
(
-4.3545185e+85
-1.4367905e+85
-2.2973807e+85
-4.8325347e+85
-1.1362788e+85
-2.5796831e+85
-5.6940836e+85
-2.5509067e+85
-2.0254476e+85
2.2234435e+85
-1.3532374e+85
5.3889125e+85
-4.8886603e+85
-1.3692145e+85
-3.1401552e+85
-5.6561978e+85
-1.5333438e+85
-2.7609233e+85
-2.3713024e+85
-1.2317639e+85
1.7807081e+85
-8.1032424e+85
-3.7935049e+85
-1.5855946e+85
2.4040436e+85
-1.290311e+85
5.8508672e+85
4.2908223e+85
-1.8833019e+85
2.9007982e+85
-8.9335565e+85
-2.8767333e+85
-4.5473657e+85
-5.6553916e+85
-1.1771848e+85
-3.7853862e+85
-4.2392344e+85
-1.4955545e+85
-1.4874134e+85
-7.4770571e+85
-2.4320215e+85
-2.8709606e+85
-2.3385001e+85
-9.8366977e+84
1.7335552e+85
2.9770748e+85
-2.2084868e+85
3.2940134e+85
-1.311886e+86
-5.1300328e+85
2.975151e+85
-7.0417203e+85
-3.7655182e+85
6.0666629e+85
7.025695e+85
-3.3743246e+85
2.6011134e+85
1.4442225e+86
-1.0260127e+86
1.8874886e+85
-9.5798639e+85
-2.5542628e+85
-5.0734598e+85
-1.0379828e+86
-2.0856709e+85
-5.2755625e+85
-5.3584095e+85
-3.7118756e+85
-4.223583e+85
-6.9222564e+85
-1.4650205e+85
-4.5299108e+85
-4.6747679e+85
-8.0218607e+84
-2.1424753e+85
-6.1399078e+84
-1.7636734e+85
1.6642655e+85
-1.7670619e+86
-8.4784422e+85
1.9678467e+85
-6.9364514e+85
-2.3588437e+85
-1.6010379e+85
6.6277546e+85
-2.9913851e+85
2.9144166e+85
1.4331104e+86
-1.0456911e+86
2.9091129e+85
-1.7796794e+86
-5.2881068e+85
1.1498242e+85
1.0448916e+86
-6.5267941e+85
1.833334e+85
5.1174884e+85
-9.9844905e+85
4.3242515e+85
2.1714324e+86
-1.574687e+86
2.1757162e+85
7.9610557e+85
-2.8032381e+85
1.0579406e+83
-1.6333389e+85
-6.4142692e+85
-5.4884136e+85
-1.1168991e+86
-6.4892749e+84
-5.790938e+85
-5.8731555e+85
-4.0996639e+85
-4.8593447e+85
-1.1457977e+86
-2.1340325e+85
-6.2378191e+85
-5.9784469e+85
-3.584485e+85
-4.9023965e+85
-3.0736929e+85
-3.675241e+85
-3.6932322e+85
-1.9499611e+86
-1.3236305e+86
1.768748e+85
-6.7401739e+85
-1.1641098e+85
-4.3642574e+85
1.9521778e+85
-4.8132355e+84
1.2507505e+85
1.2094474e+86
-9.0730942e+85
2.7995235e+85
-2.0684119e+86
-9.2892983e+85
1.3393642e+85
1.2533889e+86
-7.2993613e+85
2.0832057e+85
2.3613972e+85
-2.1503779e+85
3.1405368e+84
2.4958938e+86
-1.3523942e+86
2.7368068e+85
1.0113977e+86
-2.9244139e+85
5.8338008e+84
5.1473542e+85
-5.7152081e+85
9.1765362e+85
1.2036201e+86
-1.0452902e+86
1.0339467e+85
3.4292208e+86
-1.0553359e+84
-5.6666428e+84
5.8359042e+85
-2.1434649e+86
4.8978067e+85
1.1728497e+86
-4.5699295e+85
5.8758407e+84
2.8145474e+85
-8.5283325e+85
1.3714469e+85
2.0865843e+85
-7.091483e+85
-5.845269e+85
-5.8745043e+84
9.7437155e+84
-2.1864869e+85
-4.2278724e+85
-6.2477444e+85
-5.3241403e+85
-1.148731e+86
-4.5788703e+84
-6.9018782e+85
-6.428952e+85
-3.7441687e+85
-5.6959785e+85
-3.3552119e+85
-4.1507465e+85
-4.3234395e+85
-2.9067369e+86
-3.0084757e+85
-1.9185241e+86
-6.3566918e+85
-3.4721759e+85
-5.7798983e+85
-3.3331282e+85
-3.9616916e+85
-4.3044741e+85
-2.168124e+85
-3.0580048e+85
-3.2776402e+85
-2.2601446e+86
-1.4508363e+86
2.0252916e+85
1.0461699e+86
-2.256743e+85
2.6116648e+85
-7.2715149e+84
6.6650096e+84
-2.4235301e+85
2.0090474e+86
-5.8725044e+85
2.9186076e+85
1.0419481e+86
-2.98972e+85
1.5722071e+85
-6.4103515e+85
-4.4171501e+85
4.5351925e+85
1.5376127e+86
-1.0818706e+86
1.5187552e+85
4.1870063e+86
-2.1185927e+85
-5.0701533e+84
-1.1166726e+86
1.1734418e+85
2.619296e+85
1.4842386e+86
-4.5337722e+85
1.2323244e+85
1.0243172e+85
-1.1905869e+86
2.3071941e+85
-1.1839907e+87
5.1932039e+85
1.8138349e+86
-3.042032e+85
-3.3548011e+85
3.653355e+85
2.6426547e+86
-2.4654356e+85
-2.4806155e+84
9.5457755e+85
-2.1825271e+85
-4.0943189e+84
1.145127e+86
-4.8258063e+85
2.2424412e+85
4.2827845e+85
-1.1006318e+86
1.7206472e+85
1.2538082e+86
5.8038743e+85
6.5636985e+83
4.1699049e+85
-8.0659108e+85
-6.2319273e+85
1.7071209e+86
2.4041494e+85
-7.0640451e+85
-3.9214183e+85
-6.2826639e+85
-6.2981296e+85
-3.7211878e+85
6.0691182e+83
6.7445234e+85
-3.910012e+85
-1.2298946e+85
-1.2996932e+86
-4.5440545e+85
-3.3732002e+85
-5.0238563e+85
-2.9713671e+86
3.9301894e+84
-2.2806195e+86
-6.8092481e+85
-3.3132999e+85
-6.8802852e+85
-3.6192872e+85
-4.4169387e+85
-5.1438552e+85
-2.3326543e+85
-3.3051437e+85
-3.8419727e+85
-4.8331546e+85
4.628018e+85
-9.2592046e+85
-1.3289373e+86
-5.108945e+85
-1.7523983e+86
-3.4786077e+85
-4.2212985e+85
-5.1546653e+85
-2.1722356e+85
-3.389764e+85
-3.814047e+85
-2.3413683e+85
-2.4566644e+85
-2.7372098e+85
-1.6353119e+86
-5.810197e+85
1.9110712e+85
1.7865876e+86
-5.2583469e+85
2.5370069e+85
4.2489164e+86
4.2697383e+85
1.1759416e+85
-2.705938e+86
7.8833099e+85
-2.8671594e+84
1.8135686e+86
-5.7082069e+85
2.3438355e+85
-2.7944707e+85
-1.2072817e+86
4.1291431e+85
-1.2717967e+87
-7.442959e+85
1.2979792e+86
-1.0713213e+86
-9.631667e+84
2.3507341e+85
2.9479961e+86
-3.1713726e+85
-4.8201455e+84
1.2584806e+86
-2.5340702e+85
-1.1452936e+85
1.0834886e+86
-3.5454272e+85
2.2473516e+85
3.1123167e+85
-1.3006186e+86
3.5028479e+85
1.1496666e+86
4.617513e+85
1.0574369e+85
-1.2655336e+86
9.0639724e+85
-1.3677045e+85
1.7887132e+85
-1.6287397e+85
6.403053e+85
1.9036898e+86
-3.3822016e+85
1.0364008e+84
8.0946183e+85
-4.8709166e+85
-3.8791524e+84
1.2036077e+86
-7.7505202e+85
4.0091162e+83
2.7484525e+85
-1.0216546e+86
2.7051241e+85
4.1496217e+85
9.9565148e+85
-4.6982545e+84
6.1106312e+85
1.3852978e+86
-1.8311371e+86
-1.8064493e+86
2.9717203e+85
-2.6804101e+86
1.7425819e+86
-6.6849902e+85
-2.8794879e+86
-2.8775115e+85
-5.6498249e+85
-8.4353473e+85
-3.5568594e+85
1.0134265e+86
1.0241402e+86
8.4816343e+84
-1.2475465e+85
-1.6857596e+86
-4.8071124e+85
-3.4718786e+85
-6.1828442e+85
-3.693061e+83
5.4449096e+85
-1.1193606e+86
-7.0755881e+85
-1.1635094e+86
1.1443314e+86
-1.0208848e+86
-1.7921536e+85
-1.5078156e+86
-3.2655656e+85
-2.5367462e+85
-4.5852174e+85
6.5259323e+85
6.9801846e+85
-8.055215e+83
-1.3186751e+86
-5.3585362e+85
-2.0863816e+86
-3.839787e+85
-4.6102199e+85
-6.3261613e+85
-2.3959137e+85
-3.6906153e+85
-4.534788e+85
-2.647786e+85
-2.6459114e+85
-3.2605017e+85
1.7342742e+86
5.7165589e+85
3.4344045e+86
-1.1897632e+86
-1.705879e+83
-1.2833446e+86
-7.1798041e+85
-5.6533073e+85
-1.6180777e+86
-1.9929487e+85
-3.7393656e+85
-4.703506e+85
-2.313304e+85
-2.7784921e+85
-3.1598674e+85
-3.1924566e+85
-2.5330989e+85
-2.2291038e+85
-1.1728567e+87
-1.3708401e+86
5.8875452e+85
-1.5156802e+86
-4.6832616e+84
1.5646248e+85
2.8742216e+86
4.9810831e+85
2.5632925e+85
1.4556208e+86
-6.6409343e+84
-1.0925732e+85
3.6071735e+85
-1.0542745e+85
2.2870721e+85
-2.0297211e+85
-1.0886424e+86
6.299232e+85
1.0891424e+86
4.6065505e+84
1.9475637e+85
-3.2295822e+86
7.4214864e+85
1.2305762e+85
8.5321152e+85
-5.1075422e+85
1.0380842e+86
2.1262324e+86
-2.4182207e+85
-6.2789503e+84
1.0779239e+86
-4.4325185e+85
-1.2691445e+85
1.5270965e+86
-1.2038553e+86
-3.8978687e+84
-3.7400843e+85
-8.5901293e+85
4.3192787e+85
4.9682726e+85
5.8810286e+85
1.4202002e+85
4.3467255e+85
1.4599619e+86
-8.5856013e+85
-7.4736198e+86
-9.499669e+85
1.4561419e+86
-4.1530219e+86
-2.0500105e+86
7.6563825e+85
2.665039e+86
-9.9523973e+85
-2.686655e+85
1.1320008e+86
-8.9799872e+85
-7.0257143e+84
1.7953178e+86
-1.4490948e+86
-1.9801471e+83
1.5829975e+83
1.0304626e+85
4.2531777e+84
-4.2325754e+85
1.7704614e+86
-3.5575951e+84
2.3924157e+85
1.7139754e+86
-6.8434459e+85
1.1549183e+87
1.1940156e+87
1.16003e+86
-2.1440948e+86
-9.7787908e+86
1.3043326e+85
-8.448989e+85
5.9464249e+85
-3.1571156e+85
-8.2383022e+85
-6.2683062e+85
-2.8361955e+86
2.2098612e+86
-3.1905427e+86
3.1721964e+85
-1.8139568e+85
-3.2496211e+85
-2.8533102e+86
-5.2366117e+85
-3.4013178e+85
-8.4444976e+85
1.0516762e+86
7.5959764e+85
-9.2627294e+85
-1.6157407e+85
-1.7332325e+86
2.0083903e+86
-9.8913618e+85
-1.9321921e+85
-1.87153e+86
-3.5685734e+85
-2.6440529e+85
-5.6320489e+85
2.0324867e+85
-1.7586406e+86
8.6385769e+85
-2.0592679e+85
1.101787e+85
-1.6412444e+86
1.0064434e+86
-3.4047925e+85
9.591419e+85
-7.074536e+85
-2.3189702e+85
-1.5281137e+86
-2.5374344e+85
-3.1026062e+85
-3.9129883e+85
2.6157048e+86
1.0504264e+86
1.6403161e+86
-4.9633773e+85
-5.3741444e+84
-1.1836446e+86
-7.3544363e+85
-6.3690492e+85
-1.893083e+86
-2.1950213e+85
-4.0593342e+85
-5.7556472e+85
-2.719515e+85
-3.045494e+85
-3.7299672e+85
-3.3349398e+85
-2.6966283e+85
-2.7023706e+85
2.1749393e+85
1.4939209e+86
-8.1671667e+84
2.2382749e+86
7.1910306e+85
1.659201e+86
-7.1808163e+85
-3.8577867e+85
-1.5736438e+86
-3.7599445e+85
-4.1417222e+85
-1.6103641e+86
-2.16375e+85
-3.1782585e+85
-3.9695548e+85
-3.2682781e+85
-2.7254441e+85
-2.5660801e+85
-2.98176e+85
-3.0210807e+85
-2.6038529e+85
-6.2844523e+86
1.3810882e+86
1.9751463e+85
5.5531497e+85
-4.4233633e+85
1.2821292e+86
2.4242155e+86
4.0573886e+85
-4.916402e+84
1.578673e+86
-3.3736656e+85
2.6453013e+84
1.5785903e+86
-1.322889e+86
-2.5774609e+84
-1.7761681e+86
7.3245633e+84
4.6896584e+85
1.0299104e+86
-1.4112552e+85
2.8397427e+85
-3.2545884e+84
1.2313465e+86
-4.0587958e+85
-8.8135535e+86
-8.7734861e+84
1.6590766e+86
-5.862649e+86
-2.2550723e+85
1.1991475e+86
3.8364553e+86
-3.6317736e+83
-3.7155798e+85
1.4417887e+86
-6.4535354e+85
-1.7050961e+85
2.3584931e+86
-1.8630085e+86
-3.0953539e+84
-4.1137932e+85
2.5156735e+85
1.5800586e+84
-1.0257587e+86
1.4296629e+86
1.9285841e+85
3.4405897e+85
1.9959411e+86
-4.9889169e+85
5.246149e+86
4.8237829e+86
7.8271228e+85
1.2135942e+85
3.4762e+86
1.1814819e+86
-1.1839759e+87
1.8089253e+86
2.3792092e+86
-4.0474337e+86
2.3971131e+86
4.2247361e+85
-2.897813e+86
-6.3320485e+85
-3.0843298e+85
1.9627438e+86
-2.1610419e+86
5.0753921e+84
3.1868379e+85
8.7794621e+84
8.3057632e+83
1.3407685e+85
1.1298015e+85
9.4063513e+84
-2.7077062e+85
1.8854515e+86
-2.897516e+85
4.217952e+86
6.6619254e+86
5.6924849e+85
1.3603484e+86
3.711041e+85
-4.3396955e+85
9.628151e+85
-9.6863753e+86
2.504876e+86
-2.6899176e+85
-1.5613578e+86
-8.9536853e+86
6.6144235e+85
-3.1722947e+86
2.3517034e+86
4.039425e+86
5.1457081e+85
1.0805536e+86
-7.5888978e+84
-1.5688027e+84
-1.3473369e+86
-4.8941728e+85
-8.944786e+85
-2.7114436e+86
1.3817227e+86
1.1335844e+85
-3.9589041e+86
1.7615711e+86
-4.3056784e+86
9.2355316e+85
-1.077009e+86
-2.0463244e+85
-2.9009608e+86
-4.1932055e+85
-2.6192626e+85
-7.3958628e+85
9.8623233e+85
-2.7757021e+86
1.019064e+86
5.3014195e+85
9.5293522e+84
-1.9508214e+86
1.6272725e+86
2.2945466e+85
2.1878089e+86
-7.1211122e+85
-2.7269599e+85
-1.8586387e+86
-2.9325552e+85
-3.3425172e+85
-4.6144042e+85
-8.4898228e+84
1.9427156e+85
-2.0167211e+86
4.7478071e+85
-1.0212107e+86
7.5484247e+85
-4.0127196e+85
-8.4832014e+84
-1.8571739e+86
1.9272895e+86
-1.2867451e+86
-1.5164639e+85
-5.0691911e+85
-3.3105281e+85
-1.4584928e+86
-2.6049539e+85
-3.6110062e+85
-3.0742696e+85
-2.7974137e+85
2.7050722e+86
4.211006e+85
2.400951e+86
1.1036723e+86
3.2018133e+85
-5.3646216e+85
-3.9259691e+85
-1.6096521e+86
-3.8990109e+85
-4.5909538e+85
-1.8260971e+86
-2.7089052e+85
-3.5081351e+85
-4.7486093e+85
-3.5679509e+85
-3.01921e+85
-3.1080348e+85
-2.237528e+85
-3.3148035e+85
-3.0770739e+85
7.8088029e+85
2.5387135e+85
1.1251451e+86
-1.4301544e+86
5.4684589e+85
2.4436029e+85
4.1446521e+85
5.3860635e+85
-5.2360421e+85
-3.3317361e+85
-3.3437978e+85
-1.7486134e+86
-4.4879586e+85
-3.4080046e+85
-1.502121e+86
-3.2414643e+85
-2.9278672e+85
-3.1106659e+85
-3.2379986e+85
-3.1608595e+85
-2.8867029e+85
-3.2163072e+85
-3.2564557e+85
-4.4465986e+85
-1.0290915e+87
1.4398489e+85
2.2721422e+86
-7.5303164e+86
4.9782962e+85
1.4405866e+86
4.7173679e+86
6.2787723e+85
1.7907551e+85
1.2538989e+86
1.8152129e+84
-2.1680813e+85
2.425122e+86
-1.4103127e+86
4.7252714e+84
-6.7398857e+85
-1.0051589e+85
-1.3368394e+84
-2.1225557e+86
1.1873226e+86
2.3729029e+85
6.7473222e+85
1.5683196e+86
-3.8373297e+85
1.7546948e+86
2.4371104e+86
6.6858148e+85
-4.6243014e+86
2.605354e+86
1.8270839e+86
-1.348948e+87
1.2787223e+86
2.0264558e+86
-4.854832e+86
2.2382957e+86
1.1978795e+86
-4.4376662e+86
6.5773832e+85
-1.3482323e+85
2.7094008e+86
-2.8217449e+86
4.1573062e+84
-5.5396299e+84
6.2320197e+85
-2.8556576e+84
-1.2425326e+84
4.6446981e+85
5.5197462e+84
-8.2827474e+84
2.2329166e+86
-2.3211299e+85
4.237592e+86
3.9184674e+86
3.8692404e+85
2.2308166e+86
2.3061371e+84
-3.7371189e+85
-1.401587e+87
1.0220991e+86
4.3657121e+86
-1.8586016e+87
3.3715236e+86
-7.9798352e+85
-1.7815791e+87
2.1070367e+86
9.5732914e+85
-3.2170038e+86
2.5305037e+86
-8.8373349e+84
2.6334859e+86
-4.8614811e+86
1.1015368e+86
1.6430873e+86
-5.1786487e+85
7.2771068e+83
2.5597019e+85
-2.7348919e+84
8.9902243e+84
-1.4176697e+85
2.8516908e+85
2.4679657e+85
2.0094983e+86
4.3423584e+86
3.9078997e+85
1.13754e+86
6.8033406e+85
-3.7402999e+85
-4.1455592e+86
1.6172832e+86
-1.2852579e+86
-9.8174815e+86
3.8461456e+86
1.1654424e+86
7.5679251e+85
1.1032915e+86
-1.0433689e+87
1.3332622e+86
-1.2012475e+87
3.5546465e+86
2.4285008e+86
1.1565782e+86
-8.3946261e+86
-9.7531399e+84
-2.0995534e+86
-8.3230293e+86
3.5683274e+86
4.6096549e+86
2.9304811e+86
2.099185e+86
-6.0683814e+85
-3.6795072e+83
3.4867726e+86
9.6611372e+85
-9.8710751e+85
3.210665e+85
-4.5845751e+85
-2.6409139e+86
-4.5995187e+85
-6.2133111e+85
-2.4394414e+86
1.2427337e+86
-4.5830408e+86
1.342409e+85
3.604393e+85
-1.8396453e+84
-3.9754069e+86
3.2330877e+86
-3.9398693e+86
1.1350589e+86
-8.6787792e+85
-3.575534e+85
-2.6495866e+86
-3.5511315e+85
-3.5786553e+85
-5.9079694e+85
4.8115189e+85
5.9116734e+82
-3.2470411e+86
1.9678943e+86
-1.6028147e+86
1.3582482e+86
-1.7891571e+85
-2.1679509e+85
-2.229031e+86
3.7438708e+86
1.1179329e+86
-7.2091366e+84
-5.8719933e+85
-3.9111549e+85
-1.7215609e+86
-3.0928908e+85
-4.0455125e+85
-3.6491172e+85
-4.4307902e+84
-1.6043466e+86
5.0012454e+85
-4.9296593e+85
-2.2096297e+84
-1.9798143e+86
1.7750147e+84
-1.6320598e+86
3.0615397e+85
-5.1232762e+85
-3.0530376e+85
-1.8655366e+86
2.329129e+86
-3.9048147e+85
-2.295651e+85
-5.8535291e+85
-5.0942199e+85
-1.0364738e+86
-3.5117404e+85
-1.43762e+85
-3.4859254e+85
1.4450832e+86
9.7184666e+85
2.172483e+86
-7.0071048e+85
1.6077739e+86
5.0893966e+85
6.1207302e+85
7.3786597e+85
-1.0078739e+86
-2.2079633e+85
-3.6418777e+85
-1.8170629e+86
-5.801892e+85
-3.9753505e+85
-1.6481994e+86
-3.8508044e+85
-3.3318399e+85
-3.8271941e+85
-2.6722795e+85
-3.5355522e+85
-3.4532697e+85
-2.4448757e+85
-3.7915992e+85
-5.1126178e+85
2.6229352e+85
-1.0548162e+86
7.1283778e+85
8.6162257e+85
7.3964798e+85
5.4114592e+83
-5.9352812e+85
-1.2131704e+86
9.2039892e+84
-5.4355107e+85
2.2607552e+85
-1.471418e+86
-4.3304629e+85
-2.7033999e+85
-1.7772578e+86
-8.8566718e+85
-3.8446423e+85
-1.096963e+86
-3.5907449e+85
-3.3393237e+85
-3.1474392e+85
-3.3124143e+85
-1.9879283e+85
-5.0085851e+85
-3.2078239e+85
-4.1359853e+85
-5.42996e+85
-8.6869965e+86
2.7046473e+86
1.9998837e+86
-1.4541909e+87
1.3509525e+86
2.6015029e+86
-6.5027496e+86
2.4104956e+86
1.8653393e+86
-6.0999626e+86
1.6721055e+86
1.8739665e+85
3.0745045e+86
-2.0455018e+86
5.3270409e+84
-4.6337692e+85
3.6416813e+85
-9.5209035e+83
-2.2433379e+85
5.9813578e+85
1.0477071e+84
-1.0818986e+85
2.0819633e+86
-2.5100191e+85
3.3223305e+86
2.7595254e+86
2.0916471e+85
2.52894e+86
1.4106701e+85
1.5293801e+85
-1.3685459e+87
9.9190086e+85
2.5617832e+86
-1.7673895e+87
1.8210296e+86
1.3322452e+86
-1.7502392e+87
1.2534058e+86
1.1173962e+86
4.4911418e+85
-1.6331548e+85
-7.2023623e+84
1.4727408e+86
-3.0806115e+86
1.2847446e+86
2.544006e+86
-2.0944619e+85
-2.6721343e+84
1.8807228e+85
4.4172363e+85
6.2077242e+84
-4.8060046e+85
6.1472355e+85
2.1651493e+85
2.0265648e+86
3.4881447e+86
1.811887e+85
1.0106887e+86
6.048403e+85
-6.8108017e+84
-4.1924324e+86
4.4055541e+85
-1.4714872e+86
-1.6489679e+87
2.1289033e+86
-1.2118383e+85
-1.4103703e+87
5.3739716e+85
2.0631826e+86
-6.3887883e+86
1.9626756e+86
-1.4234037e+86
-3.153886e+86
-1.1369023e+85
2.6193455e+86
2.1961861e+86
1.5817729e+86
4.4962572e+85
2.7890897e+86
-1.0115315e+86
2.942988e+85
4.2836614e+85
-2.5266713e+85
1.0429781e+85
-2.890147e+84
2.2897795e+85
2.8221788e+85
1.2949752e+85
5.6545689e+85
2.5006678e+85
1.0298024e+86
7.1147867e+85
-7.9105843e+84
-5.684799e+86
-5.3454878e+85
-1.088682e+86
-2.5208258e+87
-2.8145499e+86
-3.2402588e+86
-1.1033174e+87
2.3228225e+86
8.9240068e+85
-8.293876e+86
5.6227686e+86
3.2475832e+86
-1.2175729e+87
3.0572714e+86
2.930195e+86
1.8826832e+86
1.6436077e+86
-1.2006953e+87
-9.3868858e+84
7.9836122e+84
-1.0156738e+87
2.6065614e+86
-1.4671037e+87
4.6455765e+86
4.7556478e+86
4.086443e+86
4.1093605e+85
1.5073956e+86
-1.2669727e+86
-1.0413535e+87
-7.4631294e+85
-1.3360498e+86
-7.5685106e+86
3.1588653e+86
-6.7308319e+86
2.5017041e+86
3.7650463e+86
4.5974286e+85
-2.4204189e+86
-2.3048787e+86
4.275497e+86
3.9951373e+85
6.9962228e+85
8.6362902e+85
-2.3967235e+86
2.482245e+85
-5.9907068e+85
-3.1322074e+86
-9.1695745e+85
-5.2599346e+85
-1.9318373e+86
3.4704673e+85
-1.5991672e+85
-4.3074224e+86
2.0117097e+86
-4.8651609e+86
1.0157034e+86
-3.6817593e+85
-4.207274e+85
-3.7229648e+86
4.5333292e+86
4.0073998e+85
-1.6335114e+85
-9.3764704e+85
-5.3727293e+85
-2.1197579e+86
-3.6238684e+85
-4.6751413e+85
-4.5528494e+85
5.6693844e+85
-2.6226767e+86
4.0914438e+85
-6.8169924e+85
-2.7720602e+85
-2.9978897e+86
1.9668067e+86
-5.864676e+85
1.1135404e+86
-5.5744572e+85
-4.1050935e+85
-2.1645398e+86
4.828466e+86
1.0256143e+86
-2.7467757e+85
-8.7695705e+85
-6.9904843e+85
-1.1354534e+86
-3.8581702e+85
-1.9234501e+85
-4.0516085e+85
-6.5639229e+84
1.3899199e+85
-2.0221773e+86
-1.1606609e+86
-1.5572023e+86
3.8092438e+85
-4.129905e+85
-3.348972e+85
-1.9357327e+86
1.3515459e+86
-1.9412315e+86
5.5776674e+85
-1.3389626e+86
-3.8419309e+85
-1.5533178e+86
8.8548804e+85
1.4429476e+86
-3.2484407e+85
-1.075975e+86
-6.765592e+85
3.4733666e+85
-1.2277119e+86
1.748295e+86
-1.2042608e+85
1.2140536e+86
2.4011441e+86
1.2083599e+86
1.625449e+85
3.6107498e+85
-7.8147044e+85
-1.2765026e+85
-3.3640821e+85
1.5140407e+85
-1.7305566e+86
-3.672637e+85
-3.1897618e+85
-1.9614855e+86
-1.1294028e+86
-5.3777731e+85
-1.2000246e+86
-3.3367681e+85
-3.8157441e+85
-3.8010891e+85
-2.4535569e+85
-2.3091659e+85
-5.7944887e+85
-2.7994484e+85
-4.8517432e+85
-6.4210025e+85
-9.554807e+83
1.212318e+86
-1.7993843e+86
-8.0347873e+85
-1.4216064e+86
9.0628016e+85
3.0205352e+85
8.6456331e+85
-1.1340047e+86
6.8225641e+85
-5.2986616e+85
-4.1087613e+85
-1.9960787e+82
-1.8099877e+86
-1.0433711e+86
-2.4703158e+85
-1.6094773e+86
-1.1598524e+86
-4.3278873e+85
-9.1439609e+85
-3.3051936e+85
-5.5657425e+84
-5.7366761e+85
-3.6112423e+85
-3.350549e+85
-6.3379108e+85
-3.3622688e+85
-3.8672554e+85
-5.3483906e+85
-1.3649278e+87
1.3532607e+86
2.66618e+86
-1.7151174e+87
1.9889538e+86
1.8987122e+86
-1.6081389e+87
1.2232096e+86
1.6294143e+86
5.1853127e+86
-5.2452739e+85
-2.6437705e+85
-7.1602832e+85
-7.7510128e+85
1.105788e+86
3.007759e+86
-4.3136692e+84
-3.1883727e+83
9.6351211e+84
6.3666563e+85
4.3662512e+84
-1.2336728e+86
9.4738634e+85
3.7449563e+85
1.7606428e+86
2.7799727e+86
-5.5211498e+83
7.5723759e+85
7.0163517e+85
-9.8003155e+84
-2.1225672e+86
-1.4444405e+86
-2.4700048e+86
-1.5795687e+87
1.5271034e+86
5.9184831e+85
-1.2290722e+87
4.6490985e+85
1.5373245e+86
-6.5295405e+86
-3.9223342e+85
1.7019393e+86
-7.4287679e+86
-2.524779e+84
2.3369326e+86
3.6723453e+86
2.1515752e+86
-2.1154586e+85
4.6130754e+86
-9.908642e+85
2.4214802e+85
4.8445032e+85
2.6076117e+85
9.8154419e+84
-3.8005042e+85
7.0960046e+85
3.1834975e+85
-2.43669e+85
1.0618718e+86
1.6746027e+85
1.0270716e+86
8.0636149e+85
-1.763829e+84
-3.970499e+86
-5.1965161e+85
-8.2219834e+85
-2.2697775e+87
-4.910899e+86
-2.5742037e+86
-1.4969248e+87
-9.8769655e+85
8.8684363e+85
-1.5261093e+87
-2.4740544e+85
1.9445529e+86
-8.7023573e+86
-5.7621436e+85
9.0209354e+85
-3.27972e+86
3.7873232e+85
-8.6963379e+84
-2.8317291e+86
-1.7599563e+86
4.8620508e+85
-7.1346297e+85
7.453425e+85
1.1008388e+86
1.4876055e+86
-1.4652501e+86
6.1757978e+85
-4.916086e+84
1.4020372e+85
3.5549285e+85
2.7161894e+85
6.0556469e+85
3.406074e+85
-9.9406644e+85
1.4681752e+86
2.7608807e+85
-4.027465e+86
-1.3924782e+86
-1.2344478e+86
-7.7463635e+86
-3.7307081e+86
-2.392761e+86
-1.9537203e+87
-1.4780581e+87
-1.9410393e+86
-2.0259851e+85
2.2386819e+85
-1.0801226e+87
-1.0136154e+87
1.7870374e+86
4.389794e+86
-1.2847386e+87
1.7541678e+86
1.692633e+86
1.3720755e+87
1.9036339e+86
-2.8293132e+85
-1.4973109e+87
1.6716739e+86
2.4551506e+86
-1.4079391e+87
2.5204658e+86
3.4464434e+86
2.6769163e+86
3.1834802e+86
-1.4132154e+87
8.7039353e+85
2.2941432e+85
-1.1519488e+87
-9.351302e+85
-7.9735624e+85
-9.5387189e+86
1.9121099e+86
-1.4028784e+87
3.8397387e+86
4.387116e+86
3.2774181e+86
-6.54391e+86
3.1538186e+86
3.1435879e+86
-6.4538579e+86
-1.589295e+85
-1.8228304e+86
-9.519629e+86
-1.2729608e+86
-1.3456337e+86
-6.8045663e+86
1.6834269e+86
-5.9193241e+86
3.7166613e+86
2.90771e+86
2.3920327e+86
1.183737e+86
2.9319025e+86
1.4763173e+86
-3.5639233e+86
8.4252676e+85
3.2241357e+86
-2.9834544e+85
1.4095481e+84
3.1253931e+84
-3.3775836e+86
-6.4642502e+85
-5.8510276e+85
-2.7939851e+86
-1.3772557e+86
-7.48215e+85
-1.2982152e+86
5.6398249e+85
-4.9179665e+86
-1.0416985e+85
-5.6676105e+85
-4.6831375e+85
-4.3747568e+86
3.2068551e+86
-1.2458611e+86
1.4222248e+86
-1.1723974e+86
-6.568763e+85
-2.9884047e+86
5.748045e+86
9.1932818e+85
-2.4160252e+85
-1.2517144e+86
-9.9879481e+85
-1.2137537e+86
-4.2498184e+85
-2.7526192e+85
-4.7453635e+85
-2.4868623e+85
1.3507392e+84
-2.7303641e+86
-5.6808572e+85
-1.5059525e+86
7.359402e+85
-7.7647105e+85
-4.6567366e+85
-2.5792196e+86
3.6612241e+86
-1.1186999e+86
9.4813684e+85
-1.6937579e+86
-4.9709379e+85
-2.0117267e+86
1.0944618e+86
2.7355882e+85
-3.9560381e+85
-1.2570406e+86
-3.7243758e+85
4.5689087e+85
-1.4115284e+86
-4.9134159e+85
-2.0057331e+86
3.1890078e+85
-5.3798254e+84
-2.806841e+85
-2.167509e+86
1.8800931e+85
-2.1940939e+86
9.122576e+84
-1.1335564e+86
-3.7771511e+85
-1.8248189e+86
1.4728073e+86
4.5498385e+85
-1.9456004e+86
1.1901394e+85
8.1953021e+85
-2.1223827e+86
-3.4238723e+85
-2.1234276e+86
6.8865786e+85
-4.2216161e+85
-1.4464703e+86
-2.1060038e+84
-1.629436e+86
9.820594e+85
1.4990257e+86
-1.4028243e+86
1.719537e+84
-1.5497663e+86
1.1615955e+86
1.2754064e+86
9.1263993e+85
-1.5721118e+86
9.1439817e+85
-2.6345296e+85
-3.1238955e+85
-7.3990656e+84
-2.073996e+86
-1.1353978e+86
-3.6027354e+85
-2.0471586e+86
-1.1413909e+86
-5.0990051e+85
-1.0901967e+86
-2.0878976e+85
-6.2404331e+84
-6.7034936e+85
-2.8873026e+85
-3.8506582e+85
-7.5196532e+85
-3.6519893e+85
-4.7077596e+85
-6.1432762e+85
5.7532709e+85
-1.4899974e+86
8.8791741e+85
-1.089431e+85
7.6370693e+85
-2.1272275e+86
2.1984398e+86
6.6088581e+85
-1.8254078e+86
5.0187167e+85
2.4964985e+85
3.753536e+85
-1.865719e+86
6.631392e+85
-9.4291724e+85
-1.7053695e+85
-1.8358656e+86
-1.3301703e+86
-2.6409239e+85
-1.6678441e+86
-3.101498e+85
-1.208151e+86
-6.6743952e+85
7.5692744e+85
-1.8395381e+86
-4.0370109e+85
-3.6414034e+85
-6.1895992e+85
-2.8222132e+85
-2.5289896e+85
-4.4099212e+85
-1.534009e+87
1.8646841e+86
1.0219487e+86
-1.1280409e+87
8.4994121e+85
2.0291503e+86
-7.3319677e+86
3.2478583e+85
1.8518455e+86
-8.9816154e+86
2.5277408e+85
2.15439e+86
4.4421773e+86
2.2170195e+86
-4.7122119e+85
6.2247481e+86
-8.1452901e+85
2.654941e+85
4.7466847e+85
5.1135252e+85
1.3190429e+85
-1.1849087e+86
1.21905e+86
5.7685151e+85
-1.4510683e+86
6.3480874e+85
1.4935109e+86
9.3019432e+85
8.763064e+85
-8.3333109e+84
-2.618115e+86
-1.0935756e+86
-1.8012516e+86
-1.2302899e+87
-1.6035809e+87
-6.4442822e+86
-1.3129299e+87
-2.7985613e+85
4.3193478e+85
-1.7126428e+87
-8.2408052e+85
2.889053e+86
-7.5313833e+86
-1.0039409e+86
1.3450522e+86
-1.3226283e+85
6.9080177e+85
1.5391713e+84
-1.4284325e+86
-5.5122687e+85
4.9404673e+85
-1.1854155e+86
1.2531278e+86
-1.8638519e+85
2.004354e+86
-3.7386813e+85
3.6004925e+85
-3.8388742e+85
7.2399588e+85
4.1848508e+85
-1.6420041e+85
1.3720966e+86
4.4392365e+85
-2.1104174e+86
1.4086258e+86
1.7456258e+85
-2.7051402e+86
-6.3277034e+85
-1.2268455e+86
-7.3280309e+86
-4.2891717e+86
-1.8622617e+86
-1.5881085e+87
-8.1599461e+86
-1.9604114e+86
-1.1159807e+87
5.4227417e+85
1.520316e+86
6.4185395e+86
-7.4855122e+85
-1.3465829e+86
2.1972775e+86
-1.5712327e+84
9.8611142e+84
-1.9458547e+87
6.9373064e+85
-1.7505637e+86
5.1654984e+85
5.5377858e+85
3.500234e+85
5.8729072e+86
-8.5270476e+86
2.3518386e+86
-4.9880693e+85
1.056907e+85
3.0849534e+84
7.7362916e+85
5.536002e+85
-4.7956383e+85
1.331719e+86
1.474671e+86
1.3969797e+86
2.2757095e+85
2.052878e+86
4.5570256e+85
-1.3099682e+85
-8.1280758e+86
2.1564604e+86
-2.0672119e+86
-8.2797255e+86
-1.4196268e+87
-1.9800808e+86
-2.8209379e+86
-1.4512865e+86
-4.6034003e+85
1.9000421e+86
-1.1930573e+87
2.5577401e+85
2.4836816e+85
4.6223371e+85
-1.2463693e+87
-1.0877431e+86
-9.8407379e+85
-1.0231275e+87
-1.2155558e+87
-4.842088e+85
1.207898e+86
9.2912215e+86
4.261712e+86
7.7645246e+86
-1.3617644e+87
1.5736799e+86
2.3341693e+86
6.0824584e+86
5.0305926e+86
9.8089231e+85
-1.0218193e+87
2.9853657e+86
1.2896783e+86
-1.3811271e+87
1.2644336e+86
2.1824201e+86
-1.0961449e+87
1.4395193e+86
3.6001328e+86
2.4941033e+86
-1.2075457e+87
3.1232121e+86
1.1463697e+86
1.4289386e+86
-1.3324188e+87
-5.5267353e+85
-9.0265054e+85
-1.1020411e+87
-1.6596332e+86
-1.3960176e+86
-8.9284212e+86
1.1548053e+86
-1.0272653e+87
5.659441e+86
4.1555172e+86
-7.989019e+86
4.0993222e+86
3.8787582e+86
2.9521309e+86
-7.2992757e+86
7.8120187e+85
5.025312e+85
-9.5462868e+86
-8.5595883e+85
-1.7646249e+86
-8.8911047e+86
-2.8564829e+86
-2.6302502e+86
-3.9468427e+86
6.6582104e+85
9.1277483e+86
9.9038705e+85
3.9846335e+86
2.1285841e+86
-1.2628079e+86
2.7540333e+86
-5.3663516e+84
1.7246932e+86
1.6261106e+86
1.0712241e+86
-4.9545817e+86
1.0179339e+85
9.8892359e+85
-4.5336041e+85
-4.5029486e+85
-3.3713899e+86
-1.4032116e+86
-5.828385e+85
-2.6915984e+86
-6.0573995e+85
-1.2571411e+86
-1.0017269e+86
-3.6763267e+85
-3.1260734e+85
-4.9547154e+86
1.0344522e+86
-3.7717462e+86
8.1918171e+85
-1.3992082e+86
-7.6437083e+85
-3.6445254e+86
5.6057998e+86
-6.7196721e+85
1.0689932e+86
-2.2233675e+86
-6.8059633e+85
-2.7770181e+86
1.6305894e+86
1.5245857e+85
-1.4784163e+86
-4.062069e+85
-6.9749783e+84
5.7121818e+85
-1.557234e+86
-3.4486558e+85
-2.1050792e+86
4.662349e+85
-3.1683269e+85
-3.4474302e+85
-2.588308e+86
9.9197028e+85
-2.0291488e+86
8.4240745e+85
-1.331888e+86
-4.8457496e+85
-2.3934347e+86
3.0188113e+86
-1.7435902e+85
-1.2186871e+86
-2.225951e+85
9.1257775e+85
-1.9673792e+86
-3.8490819e+85
-2.6945133e+86
1.3629128e+86
-3.0974011e+85
-1.3221816e+86
9.9213146e+84
-1.9237708e+86
-2.6646442e+85
-8.3375718e+84
-2.1926655e+86
-4.640316e+85
-2.1152165e+86
1.1152751e+85
-8.4532727e+85
-3.5069049e+85
-2.0862355e+86
-5.3976203e+85
-2.1910639e+86
2.6131489e+84
-1.8302033e+86
-3.6734715e+85
-1.8494049e+86
-1.1167299e+87
-3.0202893e+86
-3.5190644e+86
-1.847523e+86
-1.5863336e+85
-2.3483677e+86
-1.4237614e+86
8.3156145e+83
-2.0087679e+86
1.0289442e+86
-1.6005696e+86
1.096328e+86
6.9462574e+85
8.8202234e+85
-2.1758509e+86
1.8747609e+86
8.1319714e+85
-1.989637e+86
1.1240191e+86
5.4712619e+85
2.3803388e+85
-2.1814998e+86
1.0895317e+86
-7.6507889e+85
-3.1882874e+85
-2.2932616e+86
-1.4659768e+86
-3.562493e+85
-2.0651406e+86
-1.0579282e+85
-1.3569554e+86
-5.6532339e+85
1.0222858e+86
-2.1798197e+86
-4.4533774e+85
-4.6767156e+85
-7.1345171e+85
-3.4887899e+85
-2.7977489e+85
-5.0081952e+85
7.8425743e+85
4.0994532e+85
-2.0116748e+86
1.4927681e+86
-1.7962172e+86
2.6624067e+85
-3.5652098e+85
2.5930118e+85
-2.1462258e+86
3.7763036e+85
-1.4722781e+86
-4.2904093e+85
-3.8488959e+85
-2.4268531e+84
-2.1548694e+86
-1.5578764e+86
-2.9265351e+85
-1.8502725e+86
5.8519629e+85
-1.272731e+86
-2.0702648e+85
-2.5769894e+86
-6.3326827e+85
-1.3752246e+86
1.4566664e+85
-2.2368456e+86
-3.0922851e+85
-2.9419398e+85
-5.0772624e+85
-3.1551062e+85
-2.2159422e+85
-3.3182868e+85
-1.1412332e+87
9.5296107e+84
9.023889e+85
-1.7353207e+87
-3.4595908e+85
1.919509e+86
-6.1974937e+86
-9.0765489e+85
1.855716e+86
3.4960558e+86
7.549925e+85
-3.1435442e+85
-9.9414309e+84
-1.7941863e+85
1.9029947e+85
7.2231794e+85
-3.1871572e+85
-1.1839364e+86
3.6988754e+85
4.9782202e+85
1.9135046e+86
-1.0080201e+86
1.2128112e+86
7.6227423e+85
-1.4700595e+86
1.4738727e+86
1.0436318e+86
-8.6683574e+84
-1.5566987e+86
-6.6586845e+85
-4.7383238e+85
-9.8808164e+85
-2.4201381e+86
-6.1733288e+86
-1.3989244e+87
-5.0025492e+86
-1.1152248e+87
-1.4407862e+87
-4.7919714e+86
-1.5997358e+87
5.7087674e+84
3.6765419e+86
7.7251484e+86
-8.2171652e+85
-1.0568683e+86
6.3025828e+86
-7.9823942e+85
2.7305153e+85
-1.7871564e+87
5.6820603e+85
-1.3613459e+86
1.0564518e+86
6.0296072e+85
1.2570577e+85
8.1268801e+86
-3.723077e+86
1.589422e+86
-6.661214e+85
-6.518469e+85
-1.1446118e+85
1.2293535e+86
1.0518908e+85
3.7547769e+85
1.8634877e+86
1.2403365e+86
1.8773769e+86
2.0949298e+85
1.8537113e+86
2.4730431e+85
-1.9108869e+85
-1.100931e+87
1.076855e+86
-3.7116633e+86
-1.0536145e+87
-6.1105443e+86
-1.6552918e+86
-3.9504297e+86
-1.3314336e+86
-2.4257922e+85
5.2212453e+86
4.111138e+85
5.4590418e+85
-2.334782e+86
1.1151887e+86
-8.7682521e+85
-1.0562461e+87
1.4247812e+86
-2.1620879e+86
4.0892235e+85
-1.1672086e+85
8.8327981e+85
1.6047058e+87
-1.3111832e+86
1.220747e+87
-9.4998558e+85
7.1509931e+86
1.9287634e+85
2.3926427e+85
-2.2154001e+85
2.3541569e+86
-1.2692718e+86
1.9280868e+86
1.7420018e+86
1.5811077e+85
8.6024248e+86
5.6592585e+85
3.8738602e+85
5.9116447e+86
-2.3750606e+85
-1.3807726e+85
2.9402635e+86
-9.3582877e+85
-3.6945207e+85
-1.943868e+87
-4.141522e+86
-3.8131496e+86
-2.2907034e+86
-1.3133149e+86
-6.7757524e+85
4.1988891e+85
6.1031117e+85
2.5721143e+85
-3.4989137e+85
8.4934625e+86
4.0822244e+86
-3.5282557e+85
-1.1473555e+87
-1.5595494e+86
-2.152906e+85
-1.1111528e+87
-3.2455554e+85
3.5719434e+84
1.5381761e+86
-1.3582895e+87
-1.2322354e+86
-1.2047453e+86
-1.1563443e+87
-1.9323424e+86
-1.0313083e+86