/*--------------------------------*- C++ -*----------------------------------*\
  =========                 |
  \\      /  F ield         | OpenFOAM: The Open Source CFD Toolbox
   \\    /   O peration     | Website:  https://openfoam.org
    \\  /    A nd           | Version:  7
     \\/     M anipulation  |
\*---------------------------------------------------------------------------*/
FoamFile
{
    version     2.0;
    format      ascii;
    class       volScalarField;
    location    "2000";
    object      pMean;
}
// * * * * * * * * * * * * * * * * * * * * * * * * * * * * * * * * * * * * * //

dimensions      [0 2 -2 0 0 0 0];

internalField   nonuniform List<scalar> 
34124
(
-1.4920346e+179
-1.7071749e+179
-1.5831751e+179
-1.6619956e+179
-1.7074641e+179
-1.8449203e+179
-1.7481935e+179
-1.3686934e+179
-1.6063031e+179
-2.3198699e+179
-1.7157729e+179
-1.7162651e+179
-1.7099452e+179
-1.6737781e+179
-1.7305807e+179
-2.2653569e+179
-1.4678202e+179
-1.4909628e+179
-2.2639727e+179
-1.429544e+179
-1.7139933e+179
-1.7160782e+179
-1.7185158e+179
-1.68181e+179
-1.6978072e+179
-1.8607641e+179
-1.5992597e+179
-1.6806928e+179
-2.1558402e+179
-1.5590994e+179
-1.4615489e+179
-1.5013041e+179
-1.8071775e+179
-1.2802167e+179
-1.7650779e+179
-1.7180111e+179
-1.7090287e+179
-1.710325e+179
-1.7103801e+179
-1.717333e+179
-1.7298102e+179
-1.6480674e+179
-1.6856445e+179
-1.8107879e+179
-1.5574898e+179
-1.583804e+179
-1.6897861e+179
-1.789974e+179
-1.5371645e+179
-1.8218322e+179
-1.4857436e+179
-1.6194819e+179
-1.7530594e+179
-1.2867587e+179
-1.8067495e+179
-1.2146782e+179
-1.7070995e+179
-1.6204887e+179
-1.6928721e+179
-1.6973254e+179
-1.707265e+179
-1.7246024e+179
-1.7125357e+179
-1.7142116e+179
-1.725212e+179
-1.7473455e+179
-1.6524438e+179
-1.6602016e+179
-1.7115265e+179
-1.5704886e+179
-1.6911331e+179
-1.6729438e+179
-1.7017815e+179
-1.8821686e+179
-1.6287557e+179
-1.8251938e+179
-1.461639e+179
-1.6838028e+179
-1.6572088e+179
-1.749551e+179
-2.2513219e+179
-1.7190175e+179
-1.283842e+179
-1.8420551e+179
-1.6881163e+179
-1.6232769e+179
-1.690052e+179
-1.5819865e+179
-1.6444367e+179
-1.714565e+179
-1.7089842e+179
-1.7030511e+179
-1.7197036e+179
-1.7447539e+179
-1.650941e+179
-1.7155132e+179
-1.7177911e+179
-1.7444553e+179
-1.7788356e+179
-1.6796494e+179
-1.6640456e+179
-1.7057636e+179
-1.6627281e+179
-1.6732301e+179
-1.4031785e+179
-1.7753606e+179
-1.6919578e+179
-1.8685528e+179
-2.4173437e+179
-1.7765346e+179
-1.341431e+179
-1.9739458e+179
-1.5784257e+179
-1.7597964e+179
-1.5536349e+179
-2.1140292e+179
-1.954995e+179
-1.0220011e+179
-1.8909759e+179
-1.8134077e+179
-1.6991951e+179
-1.6522426e+179
-1.6868842e+179
-1.557705e+179
-1.6514843e+179
-1.7102575e+179
-1.6135363e+179
-1.5317433e+179
-1.6948771e+179
-1.7411409e+179
-1.6480929e+179
-1.7080978e+179
-1.7126136e+179
-1.741965e+179
-1.7774462e+179
-1.6489442e+179
-1.6800315e+179
-1.7040114e+179
-1.7387318e+179
-1.7777402e+179
-1.8450283e+179
-1.7283225e+179
-1.6738025e+179
-1.7882121e+179
-2.1001578e+179
-1.588759e+179
-1.3264192e+179
-1.8840074e+179
-1.5604979e+179
-1.8090585e+179
-2.0897864e+179
-2.1145388e+179
-1.9493249e+179
-1.2487537e+179
-1.975837e+179
-1.9747868e+179
-1.3361916e+179
-8.6239553e+178
-1.5596733e+179
-2.043652e+179
-2.0099971e+179
-1.9921728e+179
-1.9501838e+179
-1.9347846e+179
-1.5075959e+179
-1.6490027e+179
-1.655973e+179
-1.6935028e+179
-1.5293589e+179
-1.6674989e+179
-1.7048215e+179
-1.6163679e+179
-1.5440978e+179
-1.6948959e+179
-1.7391125e+179
-1.6615203e+179
-1.66893e+179
-1.8056257e+179
-1.7331641e+179
-1.7747205e+179
-1.6767213e+179
-1.6795771e+179
-1.7006782e+179
-1.7369173e+179
-1.7770863e+179
-1.8423695e+179
-1.913299e+179
-1.6305802e+179
-1.7008816e+179
-1.7154705e+179
-1.7753443e+179
-1.8454514e+179
-1.9944057e+179
-1.4421042e+179
-1.6547057e+179
-1.8825886e+179
-2.0448551e+179
-1.8100962e+179
-1.3550464e+179
-1.8911855e+179
-1.9275183e+179
-1.7428873e+179
-1.3760796e+179
-2.0421023e+179
-2.0452227e+179
-1.8744469e+179
-2.1633893e+179
-2.0275411e+179
-2.0267209e+179
-2.0176692e+179
-1.1322952e+179
-1.5324697e+179
-1.8918393e+179
-1.7874009e+179
-2.0340276e+179
-2.023867e+179
-1.6052014e+179
-1.8898721e+179
-1.7980738e+179
-1.8142461e+179
-1.5113499e+179
-1.6542016e+179
-1.5943513e+179
-1.6867225e+179
-1.670279e+179
-1.6951367e+179
-1.6303089e+179
-1.579748e+179
-1.6947914e+179
-1.7346089e+179
-1.6819609e+179
-1.6722073e+179
-1.8043971e+179
-1.7335121e+179
-1.7755345e+179
-1.7384172e+179
-1.7710396e+179
-1.7174019e+179
-1.8828633e+179
-1.7676534e+179
-1.8372485e+179
-1.9037963e+179
-1.6335474e+179
-1.699948e+179
-1.7161415e+179
-1.7762962e+179
-1.8441075e+179
-1.9856894e+179
-1.7530853e+179
-1.6982908e+179
-1.6257963e+179
-1.7214911e+179
-1.7619976e+179
-1.845312e+179
-1.9891775e+179
-2.0815196e+179
-1.7647604e+179
-1.5007959e+179
-1.7722062e+179
-1.9936483e+179
-1.7553387e+179
-2.0317997e+179
-1.875272e+179
-1.9939428e+179
-1.9735874e+179
-1.3336732e+179
-1.807645e+179
-1.9810024e+179
-2.1734093e+179
-1.9238784e+179
-2.0467762e+179
-1.9158653e+179
-1.9929528e+179
-2.068616e+179
-1.8509957e+179
-1.500988e+179
-1.8679606e+179
-1.2231845e+179
-1.9070785e+179
-1.4875001e+179
-2.1969129e+179
-1.9283822e+179
-2.4095333e+179
-1.9757864e+179
-1.7678012e+179
-1.6956376e+179
-1.6826527e+179
-1.6571382e+179
-1.65175e+179
-1.6081487e+179
-1.681814e+179
-1.6211283e+179
-1.8575948e+179
-1.6331485e+179
-1.6935553e+179
-1.7163674e+179
-1.7186693e+179
-1.6913527e+179
-1.801135e+179
-1.7315355e+179
-1.7749421e+179
-1.7490092e+179
-1.7793391e+179
-1.7226059e+179
-1.9123399e+179
-1.7700193e+179
-1.840964e+179
-1.7831652e+179
-1.7733476e+179
-1.842297e+179
-1.7762499e+179
-1.9508338e+179
-1.8392302e+179
-1.9660705e+179
-1.7548624e+179
-1.7530372e+179
-1.6299462e+179
-1.72108e+179
-1.7668585e+179
-1.8457655e+179
-1.9804199e+179
-2.0850092e+179
-1.6919485e+179
-1.6788584e+179
-1.9511439e+179
-1.6610981e+179
-1.7756019e+179
-1.8530922e+179
-1.9763039e+179
-2.0813852e+179
-2.0089041e+179
-1.4663834e+179
-1.6938506e+179
-1.8441286e+179
-1.9739222e+179
-1.7947977e+179
-1.9749041e+179
-1.8787125e+179
-1.9857331e+179
-2.0072201e+179
-1.8298581e+179
-1.6294827e+179
-2.0930647e+179
-1.7293221e+179
-2.1844293e+179
-1.6045916e+179
-2.2231471e+179
-2.100377e+179
-2.5212168e+179
-2.1907324e+179
-1.8586008e+179
-2.0024636e+179
-1.6262226e+179
-1.0898632e+179
-1.8657463e+179
-6.251719e+178
-2.0899939e+179
-2.1817916e+179
-2.0870699e+179
-2.6275134e+179
-2.4985727e+179
-1.8258657e+179
-1.9349742e+179
-2.253226e+179
-1.7855128e+179
-1.8664176e+179
-1.6785879e+179
-1.7127951e+179
-1.7334914e+179
-1.6349277e+179
-1.5805372e+179
-1.6573413e+179
-1.7249146e+179
-1.8541372e+179
-1.7485352e+179
-1.794455e+179
-1.6304611e+179
-1.7233692e+179
-1.774979e+179
-1.7764238e+179
-1.8055977e+179
-1.7381551e+179
-1.9308933e+179
-1.7746505e+179
-1.8459557e+179
-1.7936429e+179
-1.7811395e+179
-1.8632467e+179
-1.7844902e+179
-1.9345586e+179
-1.8467563e+179
-1.962317e+179
-1.8085492e+179
-1.8310774e+179
-1.8085151e+179
-1.9427182e+179
-1.8650074e+179
-1.917108e+179
-1.9389761e+179
-2.0813507e+179
-1.7279532e+179
-1.6831741e+179
-1.9784398e+179
-1.666325e+179
-1.7807134e+179
-1.8583069e+179
-1.967728e+179
-2.083537e+179
-2.0159383e+179
-1.7160298e+179
-1.8855467e+179
-1.6894845e+179
-1.9479699e+179
-1.7657638e+179
-1.8465386e+179
-1.9676826e+179
-2.0748206e+179
-2.0173113e+179
-1.9184921e+179
-1.6110039e+179
-1.9829261e+179
-1.7107696e+179
-2.068771e+179
-1.6442227e+179
-2.0508206e+179
-2.0159591e+179
-2.2327479e+179
-2.1038614e+179
-1.858162e+179
-2.2088975e+179
-1.6963946e+179
-1.4368307e+179
-2.0825371e+179
-1.1310509e+179
-2.2087388e+179
-2.336361e+179
-2.2119418e+179
-2.7501739e+179
-2.815515e+179
-1.9018438e+179
-2.2685766e+179
-3.2869415e+179
-1.1626603e+179
-1.6764042e+179
-9.483491e+178
-2.4527826e+179
-1.8013267e+179
-2.0512904e+179
-2.1736444e+179
-2.5791382e+179
-2.9069406e+179
-3.349017e+179
-2.2870303e+179
-2.6296157e+179
-3.4368748e+179
-1.8086872e+179
-1.8898233e+179
-1.7788868e+179
-1.8990783e+179
-1.8720627e+179
-1.7056277e+179
-1.6997641e+179
-1.7921298e+179
-1.7711003e+179
-1.7518185e+179
-1.7754131e+179
-1.5862605e+179
-1.7363938e+179
-1.7972418e+179
-1.8208761e+179
-1.7643011e+179
-1.6972586e+179
-1.9909005e+179
-1.6762472e+179
-1.7894746e+179
-1.86513e+179
-1.8111178e+179
-1.7959845e+179
-1.8840907e+179
-1.796874e+179
-1.9599305e+179
-1.859811e+179
-1.9529295e+179
-1.8168426e+179
-1.837943e+179
-1.8154437e+179
-1.9652996e+179
-1.8704106e+179
-1.9551228e+179
-1.9443187e+179
-2.0731422e+179
-1.8471387e+179
-1.8162709e+179
-1.9813815e+179
-1.8894853e+179
-2.0801582e+179
-2.0468149e+179
-2.1380832e+179
-2.0180811e+179
-2.0237671e+179
-1.7363182e+179
-1.9094271e+179
-1.7013262e+179
-1.988768e+179
-1.7760278e+179
-1.8490257e+179
-1.961107e+179
-2.0719268e+179
-2.0249814e+179
-1.9195903e+179
-1.8202636e+179
-1.782943e+179
-2.0399646e+179
-1.8024402e+179
-1.9816156e+179
-1.8671916e+179
-1.9646508e+179
-2.058665e+179
-2.0237751e+179
-1.9227588e+179
-1.8668644e+179
-1.7249224e+179
-1.5421007e+179
-2.0509587e+179
-1.4130593e+179
-2.1597287e+179
-2.0564589e+179
-2.1234281e+179
-2.3003227e+179
-2.6998765e+179
-1.9219515e+179
-2.2452951e+179
-2.9914162e+179
-1.6622984e+179
-2.0168029e+179
-1.3554369e+179
-2.5582777e+179
-1.9598194e+179
-2.1083127e+179
-2.4023016e+179
-2.7508913e+179
-3.0422565e+179
-3.3754742e+179
-2.4548318e+179
-2.82738e+179
-3.8212054e+179
-1.5337444e+179
-1.2915839e+179
-2.2813898e+179
-1.6911183e+179
-2.393466e+179
-2.360163e+179
-2.632455e+179
-2.8864149e+179
-2.9782689e+179
-3.6152161e+179
-2.3676612e+179
-2.4995423e+179
-3.0374471e+179
-2.3125601e+179
-1.8338857e+179
-1.825026e+179
-1.8003004e+179
-1.9099619e+179
-1.8921796e+179
-1.7850634e+179
-1.9967655e+179
-1.8921202e+179
-1.8088542e+179
-1.7095464e+179
-1.8071922e+179
-1.7517813e+179
-1.8015778e+179
-1.821207e+179
-1.8433015e+179
-1.8611606e+179
-1.7198608e+179
-1.6812753e+179
-1.8045165e+179
-1.8941147e+179
-1.9420939e+179
-1.767135e+179
-1.9156841e+179
-1.7260379e+179
-2.2122526e+179
-1.7906744e+179
-1.8493728e+179
-1.9604857e+179
-1.8219443e+179
-1.8479893e+179
-1.8253373e+179
-1.9895592e+179
-1.8737238e+179
-2.0634815e+179
-1.9503579e+179
-2.0479208e+179
-1.8540568e+179
-1.8233249e+179
-2.0037745e+179
-1.8924317e+179
-2.0936342e+179
-2.0375381e+179
-2.2028419e+179
-2.0052222e+179
-2.0311812e+179
-1.856508e+179
-1.9917919e+179
-1.8983296e+179
-2.0491349e+179
-2.0417647e+179
-2.3539726e+179
-2.0540694e+179
-1.916774e+179
-1.8397091e+179
-1.7994821e+179
-2.0557861e+179
-1.8191789e+179
-2.0554557e+179
-1.8697081e+179
-1.9591301e+179
-2.0422828e+179
-2.0320292e+179
-1.9245878e+179
-1.8654864e+179
-1.8491951e+179
-2.0202087e+179
-1.8799747e+179
-2.3665811e+179
-1.905757e+179
-2.0158583e+179
-2.0471541e+179
-2.0520221e+179
-1.9273003e+179
-1.866702e+179
-1.8529113e+179
-1.729244e+179
-1.9838039e+179
-1.518054e+179
-2.3371255e+179
-1.9162323e+179
-2.1336184e+179
-2.3521101e+179
-2.3545315e+179
-2.7192765e+179
-2.978534e+179
-2.3153217e+179
-2.629833e+179
-2.7140074e+179
-1.8924501e+179
-1.4603307e+179
-2.6772136e+179
-1.8977992e+179
-2.5746177e+179
-2.5346887e+179
-2.5806863e+179
-3.0257743e+179
-2.8537359e+179
-3.7438347e+179
-2.5995913e+179
-2.4490212e+179
-3.0211275e+179
-2.4130197e+179
-1.8151586e+179
-2.08695e+179
-1.988136e+179
-2.7266765e+179
-2.0632289e+179
-2.9924601e+179
-2.7808521e+179
-2.5885953e+179
-2.9127372e+179
-5.1803706e+179
-2.5090294e+179
-4.6829818e+179
-3.1391578e+179
-2.3193107e+179
-2.2188376e+179
-1.8690211e+179
-1.7829818e+179
-1.8975312e+179
-1.82861e+179
-1.8312491e+179
-1.8300931e+179
-1.9368233e+179
-1.9167026e+179
-2.0220187e+179
-1.8685345e+179
-2.0157309e+179
-2.3942928e+179
-1.9395586e+179
-1.8470757e+179
-1.8710735e+179
-1.8770845e+179
-1.9787172e+179
-1.795495e+179
-1.8185433e+179
-1.8792479e+179
-1.9759763e+179
-1.8751188e+179
-1.9029746e+179
-1.7627549e+179
-1.8278494e+179
-1.8494909e+179
-1.9646894e+179
-2.4625661e+179
-1.854015e+179
-1.835743e+179
-2.0536136e+179
-1.8347776e+179
-2.2413849e+179
-2.3164154e+179
-1.8737123e+179
-1.9531528e+179
-2.0037408e+179
-1.9714577e+179
-1.8553571e+179
-1.8303886e+179
-2.0248878e+179
-1.8957831e+179
-2.1022177e+179
-2.0138281e+179
-2.300066e+179
-2.2457895e+179
-1.9833489e+179
-1.9649823e+179
-2.0262613e+179
-1.8619775e+179
-1.9963352e+179
-1.9012254e+179
-2.0725157e+179
-2.0356665e+179
-2.284287e+179
-2.0564079e+179
-1.9222329e+179
-1.9521727e+179
-1.9429391e+179
-2.043828e+179
-2.0135353e+179
-2.1500756e+179
-2.0459801e+179
-2.2495074e+179
-1.9235277e+179
-1.8612745e+179
-1.8730059e+179
-2.03945e+179
-1.8967579e+179
-2.3602412e+179
-1.9110895e+179
-2.0111022e+179
-2.042753e+179
-2.0498628e+179
-1.9302825e+179
-1.8652212e+179
-1.8518021e+179
-1.998564e+179
-1.9402704e+179
-2.1834352e+179
-1.9499131e+179
-2.3817635e+179
-2.0286256e+179
-2.0666304e+179
-1.9466515e+179
-1.8653032e+179
-1.8522888e+179
-1.85818e+179
-1.9456996e+179
-1.4376869e+179
-2.3342276e+179
-1.9476117e+179
-2.5565565e+179
-2.3373253e+179
-2.3184537e+179
-2.3830962e+179
-2.4800487e+179
-2.5860489e+179
-2.6169495e+179
-3.0715513e+179
-2.3731795e+179
-2.2989533e+179
-2.5809589e+179
-2.2465749e+179
-1.9592201e+179
-2.3287502e+179
-2.2953186e+179
-3.5997511e+179
-2.7695186e+179
-3.308534e+179
-3.0027284e+179
-2.6795601e+179
-2.8693906e+179
-4.9239527e+179
-2.6933744e+179
-3.9283426e+179
-2.8900807e+179
-2.4416413e+179
-2.3311977e+179
-2.4829401e+179
-2.7304024e+179
-2.4854268e+179
-1.8785154e+179
-2.9228951e+179
-2.1768877e+179
-2.9249409e+179
-9.2633853e+179
-2.7302896e+179
-3.6371704e+179
-2.0298641e+179
-2.261742e+179
-2.2750457e+179
-2.7782186e+179
-1.8444378e+179
-2.0551965e+179
-1.9655174e+179
-1.8302672e+179
-1.8458789e+179
-1.9157918e+179
-1.9542569e+179
-1.8571651e+179
-1.8520637e+179
-1.9099974e+179
-2.1403779e+179
-1.9874692e+179
-1.9962726e+179
-2.1580783e+179
-2.0468727e+179
-2.1272657e+179
-2.3006741e+179
-2.4220525e+179
-2.4776141e+179
-2.0186104e+179
-1.8093206e+179
-2.1528154e+179
-1.908454e+179
-2.0102458e+179
-2.0999011e+179
-1.8887337e+179
-1.9298307e+179
-1.9853226e+179
-2.3588563e+179
-1.9047943e+179
-1.901482e+179
-2.1329423e+179
-1.8794916e+179
-1.9048282e+179
-1.9630355e+179
-1.9870292e+179
-1.9804895e+179
-2.68074e+179
-2.6158377e+179
-1.9085709e+179
-2.0648809e+179
-1.928124e+179
-2.3717394e+179
-1.919041e+179
-2.4661243e+179
-2.0058918e+179
-2.0233297e+179
-2.0122788e+179
-1.9859757e+179
-1.8701718e+179
-2.0025865e+179
-1.9066141e+179
-2.0984971e+179
-2.0249254e+179
-2.215606e+179
-2.0406647e+179
-2.427931e+179
-1.9875531e+179
-1.933457e+179
-1.9579929e+179
-1.9485532e+179
-2.0486542e+179
-2.0081342e+179
-2.1472441e+179
-2.0470208e+179
-2.2271938e+179
-1.9292068e+179
-1.8613261e+179
-1.9804412e+179
-2.0180159e+179
-2.040331e+179
-2.1187542e+179
-2.024459e+179
-2.0374582e+179
-2.0841211e+179
-1.8534357e+179
-1.9075742e+179
-1.8486867e+179
-2.0166673e+179
-1.9636205e+179
-2.182189e+179
-1.9584016e+179
-2.3568737e+179
-2.0272825e+179
-2.06376e+179
-1.9504773e+179
-1.8641352e+179
-1.8510265e+179
-1.8572339e+179
-2.0238338e+179
-2.0890812e+179
-1.9852231e+179
-2.0150355e+179
-2.1878322e+179
-2.0960518e+179
-2.0573955e+179
-1.9053108e+179
-1.8645268e+179
-1.8507529e+179
-1.8576314e+179
-1.8694354e+179
-1.8158953e+179
-2.1594498e+179
-2.2793042e+179
-3.4373605e+179
-2.6247044e+179
-2.5003983e+179
-2.8372223e+179
-2.2827963e+179
-2.4445988e+179
-2.7233097e+179
-2.5572894e+179
-3.1335725e+179
-2.3625352e+179
-2.3572307e+179
-2.2052834e+179
-2.2275993e+179
-2.2845207e+179
-2.4743221e+179
-2.737089e+179
-2.7601535e+179
-2.1160861e+179
-2.9561546e+179
-2.4669216e+179
-2.9688233e+179
-8.0744966e+179
-2.7604608e+179
-3.3937722e+179
-2.2879243e+179
-2.240256e+179
-2.3821444e+179
-2.9677412e+179
-2.9175408e+179
-2.2538667e+179
-2.7259685e+179
-2.8115548e+179
-2.4940465e+179
-2.2881537e+179
-2.7244928e+179
-3.0371268e+179
-2.5659715e+179
-2.3458976e+179
-2.2497879e+179
-4.7903225e+179
-2.0834249e+179
-3.1546751e+179
-2.5448613e+179
-1.9135959e+179
-2.0255212e+179
-1.9522599e+179
-2.1402089e+179
-1.9701069e+179
-1.9254571e+179
-1.8913808e+179
-1.8857927e+179
-1.9930416e+179
-1.9754501e+179
-2.0871316e+179
-1.9100519e+179
-2.0135758e+179
-2.0940638e+179
-2.0296148e+179
-2.271382e+179
-2.542976e+179
-2.0685147e+179
-2.0358093e+179
-2.1912358e+179
-2.5678359e+179
-2.0012452e+179
-2.2452905e+179
-2.2508306e+179
-1.9851107e+179
-1.9642595e+179
-2.0576457e+179
-2.1442854e+179
-1.9287491e+179
-2.1177894e+179
-1.9302665e+179
-1.9676914e+179
-1.9471769e+179
-2.0141643e+179
-1.9407154e+179
-1.9554593e+179
-1.9545233e+179
-1.9883042e+179
-2.8232738e+179
-2.0397028e+179
-1.9902372e+179
-2.214887e+179
-1.9739981e+179
-2.2274107e+179
-2.0313761e+179
-2.0432436e+179
-1.9522855e+179
-1.9755513e+179
-1.9587392e+179
-2.0617945e+179
-2.0032858e+179
-2.1571441e+179
-2.0343854e+179
-2.124755e+179
-1.9414478e+179
-1.8628328e+179
-1.9870839e+179
-2.0247414e+179
-2.0387513e+179
-2.1202954e+179
-2.0234733e+179
-2.0374752e+179
-2.0800924e+179
-1.8542321e+179
-1.9107667e+179
-1.8479034e+179
-2.0329259e+179
-2.0194523e+179
-2.0805078e+179
-2.0297872e+179
-1.9504496e+179
-1.9770166e+179
-2.1153375e+179
-1.8430097e+179
-1.8391417e+179
-1.8679595e+179
-1.8538581e+179
-2.0375537e+179
-2.0988286e+179
-1.9974549e+179
-2.0145549e+179
-2.17303e+179
-2.0872985e+179
-2.0551286e+179
-1.9087904e+179
-1.8652622e+179
-1.8495489e+179
-1.8566686e+179
-1.8687888e+179
-2.0949991e+179
-2.0210957e+179
-2.016673e+179
-2.0104564e+179
-2.2197087e+179
-1.9616274e+179
-1.91576e+179
-1.8975296e+179
-1.8392646e+179
-1.8491865e+179
-1.8563653e+179
-1.8689211e+179
-1.8638918e+179
-2.2686959e+179
-2.4763905e+179
-2.6150584e+179
-2.0401467e+179
-2.4790352e+179
-2.319871e+179
-2.0161371e+179
-2.8751528e+179
-2.2470329e+179
-2.410369e+179
-2.2107577e+179
-2.0411647e+179
-2.276973e+179
-2.7451662e+179
-2.961485e+179
-2.3986272e+179
-2.8252256e+179
-2.962699e+179
-2.7242768e+179
-2.7294004e+179
-2.891992e+179
-3.1461335e+179
-2.7143849e+179
-2.6726716e+179
-2.5699463e+179
-4.2528304e+179
-2.4821904e+179
-3.2654595e+179
-2.781176e+179
-2.5114204e+179
-4.3720996e+179
-3.9475285e+179
-2.7063263e+179
-2.2286357e+179
-1.8852221e+179
-4.6632423e+179
-5.1084178e+179
-2.9502009e+179
-2.4854694e+179
-2.2239732e+179
-5.0247046e+179
-3.0358589e+179
-3.3093219e+179
-2.6436747e+179
-1.9358846e+179
-1.9890716e+179
-2.0006644e+179
-1.956814e+179
-2.0797058e+179
-1.9696603e+179
-2.0495931e+179
-1.9990804e+179
-1.9291569e+179
-1.9610518e+179
-2.0405997e+179
-2.044202e+179
-1.9790897e+179
-2.0452635e+179
-1.9993244e+179
-2.193378e+179
-1.9233514e+179
-2.0440461e+179
-2.0112293e+179
-1.9607217e+179
-2.2181117e+179
-2.3600645e+179
-2.8478977e+179
-2.5163573e+179
-2.064538e+179
-2.1117376e+179
-2.3119159e+179
-2.2129445e+179
-1.9953381e+179
-1.9801933e+179
-1.9940905e+179
-1.9814578e+179
-2.0186686e+179
-2.0432003e+179
-2.0383219e+179
-2.0082794e+179
-2.0988464e+179
-2.4392063e+179
-2.00623e+179
-2.0244638e+179
-1.9116421e+179
-1.9400884e+179
-1.9196931e+179
-1.8719711e+179
-1.9905752e+179
-2.0035893e+179
-2.0355547e+179
-2.0519018e+179
-2.0994918e+179
-2.0119865e+179
-2.0152808e+179
-2.0691203e+179
-2.0328788e+179
-2.0402777e+179
-1.9118861e+179
-1.8691841e+179
-2.0003715e+179
-2.0358377e+179
-2.0371873e+179
-2.1009374e+179
-2.0130383e+179
-2.0218129e+179
-2.0378343e+179
-1.8595268e+179
-1.9155797e+179
-1.8471312e+179
-2.0403518e+179
-2.0221719e+179
-2.0817594e+179
-2.0311627e+179
-1.9504767e+179
-1.9757197e+179
-2.1136558e+179
-1.842311e+179
-1.8391895e+179
-1.8692606e+179
-1.8533892e+179
-2.0342114e+179
-2.0447272e+179
-2.0196858e+179
-2.0176538e+179
-1.8871826e+179
-1.9415247e+179
-2.0244031e+179
-2.4786594e+179
-1.8479098e+179
-1.8347203e+179
-1.8052057e+179
-2.0063339e+179
-1.8644626e+179
-2.0966207e+179
-2.0311764e+179
-2.0239136e+179
-2.009334e+179
-2.2361036e+179
-1.9588107e+179
-1.9126716e+179
-1.8987628e+179
-1.8402721e+179
-1.84851e+179
-1.8553314e+179
-1.8682954e+179
-1.864239e+179
-2.0348692e+179
-2.0396439e+179
-1.9978694e+179
-2.2863478e+179
-1.9986037e+179
-1.8625321e+179
-1.9747917e+179
-1.8540954e+179
-2.0012228e+179
-1.8374058e+179
-1.8385198e+179
-1.8547223e+179
-1.8667008e+179
-1.864281e+179
-1.839151e+179
-2.7965751e+179
-2.4264957e+179
-2.665951e+179
-2.5859857e+179
-2.2928244e+179
-2.049772e+179
-2.4269482e+179
-2.4680714e+179
-2.2334068e+179
-2.343316e+179
-2.2360878e+179
-2.087674e+179
-2.2123139e+179
-2.6837482e+179
-2.5143137e+179
-2.761757e+179
-5.0019209e+179
-5.0669588e+179
-2.7271296e+179
-3.0107034e+179
-2.1577801e+179
-4.4471503e+179
-4.9264192e+179
-3.1453275e+179
-3.0634904e+179
-2.4264923e+179
-4.3482738e+179
-3.2165684e+179
-3.3812095e+179
-2.946253e+179
-2.0295415e+179
-2.8626479e+179
-2.6836921e+179
-3.2064421e+179
-2.3842908e+179
-2.0136516e+179
-2.5322734e+179
-3.1896538e+179
-2.6115706e+179
-4.5361024e+179
-2.8321484e+179
-3.9693763e+179
-2.0830036e+179
-3.2960161e+179
-3.3243002e+179
-2.8782115e+179
-2.4741671e+179
-1.8252397e+179
-3.0458167e+179
-1.9918748e+179
-2.071769e+179
-2.3358817e+179
-2.0921508e+179
-1.9139974e+179
-2.0193635e+179
-1.9866371e+179
-1.9794317e+179
-2.0119149e+179
-2.0031313e+179
-1.8558428e+179
-1.9014303e+179
-2.0736552e+179
-1.982846e+179
-2.0747352e+179
-2.8240072e+179
-3.4968767e+179
-2.9069139e+179
-2.6193358e+179
-3.3170531e+179
-1.8962044e+179
-1.8936937e+179
-1.9228634e+179
-1.9552658e+179
-1.9203154e+179
-2.0066482e+179
-1.9954065e+179
-2.0035239e+179
-2.0266893e+179
-2.0900408e+179
-2.021888e+179
-2.4034465e+179
-2.4086195e+179
-2.0245019e+179
-1.8896717e+179
-1.8627659e+179
-1.8694778e+179
-1.8506033e+179
-1.9975183e+179
-2.0381192e+179
-2.030775e+179
-2.1719367e+179
-1.9353301e+179
-1.8991088e+179
-1.8982882e+179
-1.8487045e+179
-1.8484886e+179
-2.0460826e+179
-2.0238745e+179
-1.9407306e+179
-1.9737421e+179
-2.1095819e+179
-1.8434007e+179
-1.8435839e+179
-1.8637995e+179
-1.8523656e+179
-2.0315733e+179
-2.044268e+179
-2.0202104e+179
-2.0131846e+179
-1.887845e+179
-1.9422621e+179
-2.02674e+179
-2.4551377e+179
-1.8478637e+179
-1.8341532e+179
-1.806052e+179
-2.0013782e+179
-1.8640544e+179
-1.8470182e+179
-1.8986807e+179
-1.9614409e+179
-2.2176327e+179
-2.509154e+179
-1.8497167e+179
-1.8469314e+179
-1.8259677e+179
-1.8646177e+179
-2.0305809e+179
-2.0392239e+179
-1.9964574e+179
-2.3235869e+179
-2.0047434e+179
-1.8581429e+179
-1.9728832e+179
-1.8539312e+179
-1.9994363e+179
-1.8387334e+179
-1.8383928e+179
-1.8537479e+179
-1.8661197e+179
-1.8646405e+179
-1.8399455e+179
-2.3182938e+179
-2.131136e+179
-1.8886988e+179
-1.8448429e+179
-1.842366e+179
-1.8443603e+179
-1.8496704e+179
-1.8619918e+179
-1.8630492e+179
-1.8398753e+179
-1.8204534e+179
-2.81245e+179
-3.8473449e+179
-2.5321114e+179
-2.041547e+179
-2.5371996e+179
-2.4387749e+179
-2.3489571e+179
-2.6482721e+179
-2.3020001e+179
-2.0687406e+179
-2.6157444e+179
-2.5203162e+179
-2.5057282e+179
-2.3671653e+179
-3.2636645e+179
-3.0935031e+179
-3.6023138e+179
-2.5254856e+179
-2.3881554e+179
-2.9669112e+179
-3.6415124e+179
-2.8522419e+179
-5.8289568e+179
-3.202334e+179
-5.4091691e+179
-2.1671782e+179
-3.0028328e+179
-3.3878505e+179
-3.0434106e+179
-2.5964613e+179
-1.8853388e+179
-3.3657301e+179
-2.0193613e+179
-1.4275823e+179
-3.4338184e+179
-2.0842203e+179
-2.6763634e+179
-2.6276146e+179
-2.6386292e+179
-2.0374236e+179
-4.4700877e+179
-2.9178122e+179
-2.2808978e+179
-2.5130673e+179
-3.0428596e+179
-1.7817868e+179
-2.2363245e+179
-2.0140568e+179
-2.0847715e+179
-2.0731291e+179
-2.2855469e+179
-2.4138699e+179
-1.8864152e+179
-1.8989007e+179
-1.9479482e+179
-2.0987498e+179
-2.0220123e+179
-1.9941079e+179
-1.9614039e+179
-2.0305155e+179
-2.0005018e+179
-1.8301763e+179
-1.8300277e+179
-1.9136134e+179
-1.9648725e+179
-2.1233255e+179
-2.7263517e+179
-3.1783257e+179
-3.2523131e+179
-4.3300216e+179
-3.0417365e+179
-1.9185526e+179
-1.8659904e+179
-2.2151378e+179
-1.8641804e+179
-1.8757393e+179
-1.8878284e+179
-1.8669949e+179
-2.0075163e+179
-2.0315824e+179
-1.9591328e+179
-1.9736348e+179
-1.9755955e+179
-2.2561471e+179
-2.4990106e+179
-1.8764979e+179
-1.8496574e+179
-1.8519931e+179
-1.8494078e+179
-2.3702756e+179
-2.0115056e+179
-1.8502827e+179
-1.864671e+179
-1.8522363e+179
-1.8424815e+179
-1.8519931e+179
-1.8920243e+179
-1.9537303e+179
-2.0504081e+179
-2.3467731e+179
-1.8495566e+179
-1.8365866e+179
-1.8172406e+179
-1.862406e+179
-1.848231e+179
-1.8993791e+179
-1.9627511e+179
-2.2053321e+179
-2.5066993e+179
-1.8489826e+179
-1.8459026e+179
-1.8260542e+179
-1.8647706e+179
-1.841408e+179
-1.8664183e+179
-1.9305625e+179
-1.9162384e+179
-2.3225115e+179
-1.8599006e+179
-1.8484659e+179
-1.8433711e+179
-2.337684e+179
-2.1223617e+179
-1.8873636e+179
-1.8464728e+179
-1.8443624e+179
-1.8444507e+179
-1.8490838e+179
-1.8610692e+179
-1.8634282e+179
-1.840681e+179
-1.8209515e+179
-2.0703903e+179
-1.8856216e+179
-1.888052e+179
-1.8495321e+179
-1.8610022e+179
-1.8582473e+179
-1.8600806e+179
-1.8610341e+179
-1.8429564e+179
-1.8208824e+179
-1.801707e+179
-2.1691719e+179
-2.4581431e+179
-2.8323542e+179
-2.4201035e+179
-2.4723859e+179
-3.4774011e+179
-2.0907132e+179
-1.9888992e+179
-2.5391509e+179
-2.9178084e+179
-2.4760802e+179
-2.3313994e+179
-3.0131639e+179
-2.3636458e+179
-1.9795005e+179
-4.3093575e+179
-2.6573277e+179
-2.7799769e+179
-2.5200968e+179
-3.2593111e+179
-2.226205e+179
-4.3594861e+179
-3.1347463e+179
-2.8320667e+179
-2.502556e+179
-3.4365952e+179
-2.0533812e+179
-1.5736126e+179
-2.8115955e+179
-1.345227e+179
-2.9238007e+179
-1.5078623e+179
-3.5782406e+179
-1.7622811e+179
-2.4144683e+179
-2.31531e+179
-4.9930133e+179
-2.4659148e+179
-9.8252076e+178
-3.1368824e+179
-1.8340737e+179
-2.1949715e+179
-2.1130696e+179
-2.1181145e+179
-2.0178735e+179
-1.955693e+179
-2.0160166e+179
-2.1493762e+179
-2.3354446e+179
-2.2313273e+179
-2.2302878e+179
-2.8157692e+179
-2.5944826e+179
-2.4898895e+179
-2.4948524e+179
-1.8622047e+179
-1.8606933e+179
-1.9091032e+179
-1.9685155e+179
-2.1038129e+179
-1.8587859e+179
-1.8089727e+179
-1.8430552e+179
-1.9051991e+179
-1.98834e+179
-2.1534483e+179
-1.9941386e+179
-1.9208567e+179
-1.8516582e+179
-1.985171e+179
-1.9519227e+179
-1.8875983e+179
-1.854595e+179
-1.836082e+179
-1.8381428e+179
-2.0074678e+179
-2.4733121e+179
-2.3341138e+179
-2.3351604e+179
-2.3601493e+179
-1.8294191e+179
-1.8388091e+179
-1.8434032e+179
-1.8458867e+179
-1.8479045e+179
-1.8363953e+179
-1.838613e+179
-2.2582557e+179
-2.0769336e+179
-1.8960518e+179
-1.8619589e+179
-1.8646193e+179
-1.8498975e+179
-1.8485666e+179
-1.8567179e+179
-1.8600341e+179
-1.9173311e+179
-1.9849602e+179
-2.1387616e+179
-2.4609828e+179
-1.8475078e+179
-1.8433479e+179
-1.8321121e+179
-1.8635144e+179
-1.8418933e+179
-1.8673581e+179
-1.9336348e+179
-1.9165332e+179
-2.3079974e+179
-1.8590171e+179
-1.8476058e+179
-1.8438877e+179
-1.8562232e+179
-1.8637736e+179
-1.915079e+179
-1.9425499e+179
-2.0803696e+179
-2.3499846e+179
-1.8453235e+179
-1.8632361e+179
-1.8239387e+179
-2.0572118e+179
-1.8853047e+179
-1.8902656e+179
-1.8526103e+179
-1.8625362e+179
-1.857779e+179
-1.8594161e+179
-1.8606264e+179
-1.8435156e+179
-1.8214047e+179
-1.8020028e+179
-2.0219855e+179
-1.8460427e+179
-1.9082192e+179
-1.885627e+179
-1.866871e+179
-1.8632437e+179
-1.8620574e+179
-1.8476599e+179
-1.8240143e+179
-1.8020551e+179
-1.7846486e+179
-2.2634011e+179
-2.1723793e+179
-3.4270001e+179
-2.5807242e+179
-2.4308751e+179
-2.1624053e+179
-2.6367031e+179
-1.866499e+179
-2.0557614e+179
-2.8615057e+179
-2.8534181e+179
-2.2418783e+179
-2.959951e+179
-2.4885009e+179
-2.2296173e+179
-3.2018794e+179
-1.8652164e+179
-3.1034819e+179
-2.1757674e+179
-5.1012112e+179
-2.1983387e+179
-2.648856e+179
-2.4723505e+179
-5.0208816e+179
-2.8925147e+179
-1.4620087e+179
-3.8665519e+179
-2.0574752e+179
-2.5362019e+179
-2.77597e+179
-1.8381319e+179
-2.725351e+179
-2.6775339e+179
-2.4450894e+179
-2.2787937e+179
-2.062238e+179
-3.0006394e+179
-2.8692123e+179
-8.6773409e+178
-8.5955041e+178
-2.2132781e+179
-2.3446107e+179
-3.7638076e+179
-2.3817517e+179
-2.0239777e+179
-2.0107863e+179
-2.0035941e+179
-2.2766898e+179
-1.9995701e+179
-2.0390316e+179
-1.9401142e+179
-1.9023928e+179
-1.9896083e+179
-2.1752134e+179
-2.3980122e+179
-2.1541207e+179
-2.1428901e+179
-2.5625394e+179
-2.5288098e+179
-2.5713116e+179
-1.8482323e+179
-1.8632025e+179
-1.861105e+179
-1.9544229e+179
-1.9615707e+179
-2.4864411e+179
-1.8661198e+179
-1.8175526e+179
-1.8496787e+179
-1.946438e+179
-2.0529223e+179
-2.0470065e+179
-1.8376021e+179
-1.8846776e+179
-1.9133175e+179
-1.9066567e+179
-1.8269806e+179
-1.9615098e+179
-1.9292738e+179
-1.8751584e+179
-1.8492898e+179
-1.842236e+179
-1.966448e+179
-2.3941943e+179
-2.1586281e+179
-2.1666838e+179
-1.8497242e+179
-1.8435657e+179
-1.8274678e+179
-1.8528058e+179
-1.8544732e+179
-1.8434995e+179
-1.8450706e+179
-1.8401411e+179
-1.8953822e+179
-1.909595e+179
-1.8764916e+179
-1.8735358e+179
-1.8571127e+179
-1.8569304e+179
-1.8504783e+179
-1.882004e+179
-1.9574607e+179
-1.9265669e+179
-1.8468493e+179
-1.8463197e+179
-1.8561612e+179
-1.8647076e+179
-1.9180083e+179
-1.9441793e+179
-2.0753581e+179
-2.3447821e+179
-1.8455256e+179
-1.8624667e+179
-1.824432e+179
-1.8677002e+179
-1.8672096e+179
-1.9043351e+179
-1.9570679e+179
-2.0374608e+179
-2.1930086e+179
-2.1425487e+179
-1.8299162e+179
-1.8463194e+179
-1.8042388e+179
-2.0025869e+179
-1.8450664e+179
-1.9098302e+179
-1.8886885e+179
-1.8689448e+179
-1.8631734e+179
-1.861427e+179
-1.8479583e+179
-1.824472e+179
-1.8023539e+179
-1.7848258e+179
-2.0344758e+179
-1.9185914e+179
-1.9295186e+179
-1.9142856e+179
-1.8845891e+179
-1.8760343e+179
-1.8568518e+179
-1.8304158e+179
-1.8504578e+179
-1.8047947e+179
-1.7847884e+179
-1.7667203e+179
-2.4367072e+179
-2.6706318e+179
-2.4880659e+179
-2.3966453e+179
-3.519958e+179
-2.2061471e+179
-1.8202992e+179
-2.3078162e+179
-2.7829444e+179
-2.8736129e+179
-2.689842e+179
-2.4626794e+179
-2.0298669e+179
-3.5689801e+179
-2.4228722e+179
-2.95214e+179
-2.8585197e+179
-2.7257777e+179
-2.4249098e+179
-2.1731334e+179
-2.9643919e+179
-3.298584e+179
-1.5987747e+179
-1.638897e+179
-2.4064162e+179
-2.5320464e+179
-4.0147879e+179
-1.6151268e+179
-2.16382e+179
-2.6912685e+179
-3.0024261e+179
-4.1809109e+179
-2.0058348e+179
-3.078829e+179
-2.3614336e+179
-4.7337087e+179
-3.5413602e+179