/*--------------------------------*- C++ -*----------------------------------*\
  =========                 |
  \\      /  F ield         | OpenFOAM: The Open Source CFD Toolbox
   \\    /   O peration     | Website:  https://openfoam.org
    \\  /    A nd           | Version:  7
     \\/     M anipulation  |
\*---------------------------------------------------------------------------*/
FoamFile
{
    version     2.0;
    format      ascii;
    class       volVectorField;
    location    "2000";
    object      U;
}
// * * * * * * * * * * * * * * * * * * * * * * * * * * * * * * * * * * * * * //

dimensions      [0 1 -1 0 0 0 0];

internalField   nonuniform List<vector> 
34124
(
(-5.1168666e+90 -1.5057053e+90 -3.3923435e+90)
(-4.9861921e+90 -1.3178547e+90 -2.7790912e+90)
(-6.8461327e+90 -1.9276089e+90 -2.8201075e+90)
(7.0372549e+90 -1.5416474e+90 8.5759532e+89)
(-5.5419759e+90 -1.2579105e+90 -2.4459085e+90)
(-5.2277653e+90 -1.1676947e+90 -2.6842148e+90)
(-5.8985752e+89 -1.4414051e+90 -1.5032577e+90)
(-8.6861761e+90 -4.308735e+90 -1.7115536e+90)
(6.3535627e+90 -6.8607278e+89 1.1121466e+90)
(3.1862527e+90 -1.8339095e+90 5.7863434e+90)
(-4.6270445e+90 -1.0509059e+90 -2.3915209e+90)
(-5.8608032e+90 -1.0298037e+90 -2.6037886e+90)
(-3.9325392e+90 -1.3092891e+90 -2.3874812e+90)
(-6.7949314e+90 -2.3499131e+90 -2.3734862e+90)
(2.8925096e+88 -7.347658e+89 -1.4856166e+90)
(3.618777e+90 -2.0928401e+90 3.5708341e+90)
(-2.5526437e+90 -2.9109822e+90 -1.6988701e+90)
(-4.3519229e+90 -2.7771864e+90 -1.2205612e+90)
(4.0844708e+90 -1.7055652e+90 5.5135805e+90)
(4.0575986e+90 -3.2465234e+90 3.0878164e+90)
(-4.5543411e+90 -1.0091768e+90 -2.93812e+90)
(-4.8394539e+90 -7.4634214e+89 -2.6073548e+90)
(-4.6166412e+90 -1.1222943e+90 -1.4964519e+90)
(-6.5580308e+90 -1.2666931e+90 -2.7794035e+90)
(-3.9779672e+90 -8.5744345e+89 -2.767567e+90)
(3.087259e+89 -1.6176654e+90 1.4520611e+88)
(-4.8463187e+90 -2.4522248e+90 -2.262652e+90)
(-5.5437316e+90 -1.5977093e+90 -2.6498796e+90)
(6.4157213e+90 -2.0934098e+90 3.3156626e+90)
(4.8013131e+90 -3.2983822e+90 3.4078439e+90)
(-4.5373775e+90 -4.0363054e+90 -1.1598995e+90)
(2.5632986e+90 4.4903922e+90 -1.6093573e+90)
(2.6562397e+90 -6.5723873e+90 7.9899102e+90)
(4.9587466e+90 -2.8750922e+90 1.8664987e+90)
(2.1403625e+90 -8.6178191e+89 9.5023346e+89)
(-4.5533425e+90 -7.8038976e+89 -2.9491653e+90)
(-4.5203655e+90 -4.6939519e+89 -3.1576494e+90)
(-4.6988083e+90 -1.1807395e+90 -1.7059933e+90)
(-5.2616132e+90 -6.7881239e+89 -2.7537628e+90)
(-4.8101012e+90 -1.0497567e+90 -1.5643022e+90)
(-4.4111915e+90 -9.9800023e+89 -8.6443566e+89)
(-6.0783694e+90 -1.7184444e+90 -2.7752446e+90)
(-5.7551616e+90 -7.5126329e+89 -3.3288257e+90)
(3.0284105e+90 -7.9608867e+89 -1.9882456e+89)
(3.0430518e+90 -2.6792213e+90 2.2833735e+90)
(-5.130772e+90 -2.6370027e+90 -2.6261869e+90)
(4.5911447e+90 3.4756802e+90 -2.0863514e+90)
(1.0586426e+90 -1.7525004e+90 5.4976176e+88)
(6.9269078e+90 -2.936093e+90 1.7869121e+90)
(3.5513561e+90 -1.0913431e+90 1.944243e+90)
(3.6971139e+90 -1.7126802e+90 -1.2427651e+90)
(2.90631e+90 2.1321483e+90 -2.066207e+90)
(6.9251925e+90 1.3145147e+90 4.7473573e+89)
(3.0449441e+90 -7.3294582e+90 4.2055711e+90)
(2.8195019e+90 -1.1820385e+90 1.9771197e+90)
(8.604667e+89 -2.1796391e+90 8.1225717e+89)
(-3.8710266e+90 1.8258138e+89 -2.9304357e+90)
(3.3072805e+90 -6.7670763e+89 -3.8285448e+89)
(-4.5053141e+90 -1.0953946e+90 -1.7413672e+90)
(-4.8824229e+90 -1.3965141e+89 -3.1008908e+90)
(-4.9008e+90 -1.0410954e+90 -1.7151327e+90)
(-4.6139586e+90 -1.0556134e+90 -9.111224e+89)
(-5.671366e+90 -1.1853295e+90 -2.6269301e+90)
(-5.2297414e+90 -1.0196188e+90 -1.5280682e+90)
(-4.5857656e+90 -1.0476889e+90 -8.7733503e+89)
(-4.1756916e+90 -7.9010053e+89 -6.1049309e+89)
(-6.5135565e+90 -1.5340905e+90 -3.4099908e+90)
(3.6260479e+90 3.2022786e+90 -1.1624474e+90)
(-1.6859257e+89 5.4479762e+89 -1.8953986e+90)
(6.4931068e+90 -1.9635183e+90 1.5047265e+90)
(2.7995829e+90 -1.2889461e+90 2.3634694e+90)
(-2.8985438e+88 7.1421369e+89 -1.273516e+90)
(4.4564962e+90 2.076162e+90 -2.0652113e+90)
(1.1108792e+91 1.8891056e+90 1.9108588e+89)
(-1.6236607e+90 -1.7327185e+90 -1.3930231e+89)
(4.2711927e+90 -8.6028115e+89 2.8355294e+90)
(9.0222737e+89 -3.2742783e+90 6.0096658e+89)
(-8.7969411e+90 -5.2673568e+88 -4.3240075e+90)
(7.0738563e+89 8.7233765e+90 -2.7172693e+90)
(5.4997336e+90 1.5347101e+90 3.4759841e+89)
(2.3437494e+90 -1.2440445e+90 -2.9531104e+89)
(2.5524201e+90 -1.0041881e+90 3.5900809e+90)
(1.0881264e+90 -1.9488201e+90 1.2838782e+90)
(4.6312711e+90 8.3442462e+89 8.4677313e+89)
(-1.9302862e+90 1.0286226e+90 -2.3121658e+90)
(1.4247008e+90 1.0715887e+90 -4.5253784e+89)
(-4.5933621e+90 -8.8845278e+89 -1.6673826e+90)
(1.7734475e+90 -1.0240661e+90 1.7489032e+90)
(-3.6520314e+90 -7.2485964e+89 -1.3095356e+90)
(-4.8287519e+90 -1.066056e+90 -9.1787696e+89)
(-6.0022508e+90 -7.8290277e+89 -2.7276562e+90)
(-5.4491796e+90 -9.3590165e+89 -1.6015396e+90)
(-4.8874931e+90 -1.0861409e+90 -9.1048582e+89)
(-4.3528796e+90 -8.1355031e+89 -5.8181786e+89)
(-2.6882675e+90 -4.497379e+89 -1.4862796e+90)
(-5.6297861e+90 -1.3239238e+90 -1.2546076e+90)
(-4.9918707e+90 -1.1320763e+90 -8.4456605e+89)
(-4.3121974e+90 -8.6070608e+89 -5.8921351e+89)
(-4.0440211e+90 -7.3361122e+89 -7.1976049e+89)
(-3.3151264e+90 4.3994465e+89 -1.9370023e+90)
(4.0188222e+90 2.9057804e+90 -7.2412455e+89)
(1.2009207e+91 2.7379766e+90 6.6305279e+89)
(-6.819972e+90 9.7327433e+89 -2.8361037e+90)
(4.068162e+90 -7.5121119e+89 3.231693e+90)
(-7.7640826e+89 -3.275498e+90 1.4069512e+90)
(-1.1593798e+91 9.8678709e+89 -5.1247354e+90)
(-1.6929176e+90 2.7152999e+90 -1.7971537e+90)
(7.4246602e+90 1.87225e+90 -2.8123e+89)
(3.5592441e+90 -1.8022244e+90 -4.8208527e+89)
(3.844916e+90 -7.8292449e+89 3.5326192e+90)
(1.4151796e+90 -2.4381407e+90 9.7701526e+89)
(3.68774e+90 6.1168062e+89 2.6106811e+90)
(3.3926971e+89 -1.2593634e+90 3.1402533e+90)
(9.0891077e+89 6.8039288e+90 -5.9907892e+89)
(3.5935656e+90 1.5934781e+90 -1.1940299e+90)
(1.7830207e+90 -5.8779617e+89 -1.0896951e+90)
(2.2463318e+90 -5.2680932e+89 -1.4491478e+90)
(1.3751897e+90 -3.7994619e+90 3.3968359e+90)
(1.7390239e+90 2.7073774e+90 2.648532e+89)
(1.2694289e+90 1.9589074e+90 -1.5978557e+91)
(-4.4692228e+90 4.7422776e+88 -2.0442187e+90)
(-5.9700898e+90 1.4990892e+90 -1.8884422e+90)
(-4.9730877e+90 -7.4080667e+89 -1.4020552e+90)
(5.5094482e+90 -3.3993436e+89 2.9416825e+90)
(-4.2634008e+90 -6.8349673e+88 -1.2047054e+90)
(-5.27766e+90 -1.0630034e+90 -8.8817132e+89)
(-2.5826711e+90 -6.1104716e+89 9.4840684e+89)
(-3.2815206e+90 -1.1509603e+90 2.1180976e+90)
(-4.9083972e+90 -9.7925058e+89 -7.3730454e+89)
(-4.6078024e+90 -7.8243606e+89 -5.973939e+89)
(2.8643447e+90 1.3898504e+90 4.0004475e+89)
(-6.0826171e+90 -1.2676085e+90 -1.1372247e+90)
(-5.4744028e+90 -1.1432431e+90 -8.5337684e+89)
(-4.5960498e+90 -8.6006241e+89 -5.5153387e+89)
(-4.195105e+90 -7.3604602e+89 -6.5031152e+89)
(9.9185144e+90 2.9634589e+90 6.9908784e+89)
(-2.9203317e+90 -1.6631878e+90 -1.1734371e+90)
(-5.3950607e+90 -1.3370273e+90 -7.3278498e+89)
(-4.6779489e+90 -9.302441e+89 -5.3763074e+89)
(-4.1585434e+90 -7.5743809e+89 -6.6507727e+89)
(-3.9506626e+90 -8.6540202e+89 -8.9783775e+89)
(-1.068727e+91 4.0934825e+89 -3.5628312e+90)
(-6.0780583e+90 2.3492073e+89 -6.8738039e+89)
(7.6935652e+90 2.3350509e+90 1.0132974e+90)
(4.0721443e+90 -6.0664626e+89 -4.538567e+89)
(1.7200535e+90 -1.0660315e+90 2.4404281e+90)
(-4.6972778e+89 -2.4719455e+90 1.6388435e+90)
(3.3258477e+90 -5.6881366e+89 4.3902246e+90)
(-1.9661869e+90 -1.9396057e+89 -2.5253974e+89)
(-4.071282e+89 5.0616665e+90 -1.3887338e+90)
(4.9942269e+90 1.6262272e+90 -7.9133261e+89)
(2.6833483e+90 -1.3309184e+90 -1.0958776e+90)
(3.9296661e+90 -1.4596539e+90 -2.5653421e+90)
(1.172473e+90 -3.3420651e+90 2.6953757e+90)
(1.6285129e+90 1.336383e+90 3.461297e+90)
(1.7245945e+90 2.0739918e+90 -6.4746524e+90)
(-4.7955654e+90 4.2172748e+90 -2.6440819e+90)
(-1.755767e+90 -4.415064e+90 2.0211323e+90)
(2.2933549e+90 7.3640467e+89 -4.197666e+90)
(2.1294507e+90 -4.2622713e+89 -2.3365238e+90)
(3.2266999e+90 -7.3920803e+89 -2.8988187e+90)
(7.6432391e+89 8.0460393e+89 1.9330594e+88)
(1.2080223e+89 3.4199812e+90 -1.7116655e+89)
(6.8946357e+89 3.8361194e+90 -5.4171363e+90)
(6.8028596e+91 2.4884579e+91 -1.2507323e+90)
(-8.0046307e+90 9.028322e+88 -1.8198933e+90)
(1.4693339e+90 1.2387204e+90 -1.810223e+88)
(-5.8898125e+90 -1.1366749e+90 -9.0248108e+89)
(-5.346511e+90 1.0081624e+90 1.6920776e+89)
(-5.881029e+90 -4.7723176e+88 -8.9109738e+89)
(-5.9077922e+90 -1.0947875e+90 -7.8353812e+89)
(-6.706111e+89 5.7283918e+89 1.3954511e+90)
(-3.2608059e+90 -2.1940264e+89 2.7096257e+90)
(-5.5069558e+90 -8.1979544e+89 -6.7206055e+89)
(-5.0627072e+90 -8.2364938e+89 -5.5929777e+89)
(-3.9689249e+90 -4.8042892e+89 1.908076e+90)
(-4.6397394e+90 -5.8938532e+89 2.9854273e+89)
(-9.7201036e+89 -5.5556418e+89 4.3902695e+90)
(-5.0304517e+90 -7.1245882e+89 -5.1549802e+89)
(-4.4642146e+90 -6.7528772e+89 -6.4796202e+89)
(5.1849012e+90 2.3741686e+90 1.8945672e+90)
(-1.9777164e+90 -1.3957385e+90 -7.2318425e+89)
(-5.7335271e+90 -1.3487998e+90 -6.3262685e+89)
(-5.1299369e+90 -9.1165161e+89 -5.2450923e+89)
(-4.3734597e+90 -7.4094244e+89 -5.9202854e+89)
(-4.2566125e+90 -9.2799053e+89 -8.1142667e+89)
(3.6100978e+90 5.203809e+89 -5.6587588e+89)
(9.1970219e+90 2.2993781e+90 7.4118031e+89)
(-4.65956e+90 -1.7308388e+90 -8.249899e+89)
(-5.31692e+90 -9.4376252e+89 -4.934524e+89)
(-4.600163e+90 -7.7694735e+89 -5.9131347e+89)
(-4.0038321e+90 -7.8126673e+89 -9.1438452e+89)
(-4.6028527e+90 -1.1089548e+90 -9.6562765e+89)
(-5.658663e+90 1.5414138e+90 -1.8081397e+90)
(-7.8538143e+89 2.5381231e+90 -9.6300297e+89)
(5.1003177e+90 1.7878652e+90 9.6894764e+89)
(3.0009205e+90 2.3578239e+90 -8.6008952e+89)
(4.4158839e+90 -1.5149515e+90 -3.1177876e+90)
(-3.9517226e+90 -1.2016318e+90 1.6334808e+90)
(1.1528887e+90 -6.9322908e+89 6.2095015e+90)
(-6.656392e+89 1.2784325e+90 -2.1107662e+90)
(-7.3194306e+90 2.8576945e+90 -1.6461098e+90)
(-4.6872485e+90 -9.7020042e+89 2.3847166e+90)
(2.235584e+90 6.9570658e+89 -8.000527e+89)
(3.3855836e+90 -1.7078114e+90 -1.2572375e+90)
(5.5346737e+90 -1.595114e+90 -3.4716188e+90)
(-4.6834204e+89 4.6786019e+89 -4.592325e+89)
(-1.3583954e+90 2.421153e+90 2.6781872e+90)
(1.1684557e+90 4.3353535e+90 -2.6959393e+90)
(2.4558359e+91 7.3551998e+90 -2.897683e+89)
(4.7339741e+90 3.4062853e+90 2.3816917e+90)
(-8.2221898e+90 6.5384983e+90 3.7982416e+90)
(-2.33279e+90 7.4310813e+90 1.5910771e+90)
(-3.8446775e+89 -1.382705e+90 -2.8983861e+90)
(3.7376301e+90 -3.6615612e+89 -4.1462413e+90)
(1.1746831e+90 5.4885645e+89 5.7072043e+89)
(7.1888343e+89 8.4418092e+89 3.9592223e+89)
(-4.3568002e+89 4.6448621e+90 -1.7380451e+90)
(6.6240824e+90 2.6183779e+91 -1.4028258e+89)
(-9.9767436e+89 -1.5419544e+90 3.1551465e+90)
(-6.638224e+90 1.6129926e+90 -7.5689491e+89)
(-7.549874e+90 -9.8361063e+89 -4.4539911e+89)
(1.5050191e+90 1.3247341e+90 2.6914383e+89)
(4.4070341e+90 2.0184449e+90 2.8324627e+90)
(-7.6294733e+89 -9.3382683e+89 -2.1271293e+89)
(-6.1227061e+90 -1.3095387e+90 -5.0618952e+89)
(-7.4826267e+90 7.6866257e+89 2.3284685e+89)
(-6.8589941e+90 6.4961942e+89 7.8594024e+89)
(-6.5392987e+90 -8.2213987e+89 -4.2135421e+89)
(-5.794992e+90 -8.4044203e+89 -5.0060824e+89)
(-5.7912595e+90 5.3451102e+89 2.1523955e+90)
(-4.5180058e+90 1.5029783e+89 3.7227714e+89)
(2.2757592e+90 1.5132903e+90 7.5635251e+90)
(-5.5519639e+90 -6.141731e+89 -4.7789106e+89)
(-4.8814645e+90 -6.4446043e+89 -5.828287e+89)
(-6.232081e+90 -5.0400263e+89 5.1318718e+89)
(-1.7937333e+90 -6.4460673e+89 3.1284499e+90)
(-5.5907052e+90 -6.0712591e+89 -5.8376774e+88)
(-1.0644821e+90 -2.8652961e+89 8.353092e+89)
(-5.3525431e+90 -5.5266573e+89 -5.3329537e+89)
(-4.5108492e+90 -9.1980145e+89 -5.7872716e+89)
(6.1027991e+90 3.8465098e+90 -3.8307975e+88)
(3.1609039e+90 1.9009175e+90 1.9380229e+90)
(-4.3030727e+90 -1.7174824e+90 -5.6703581e+89)
(-5.4759404e+90 -9.3495059e+89 -3.7598003e+89)
(-4.9817713e+90 -7.3768373e+89 -5.0865343e+89)
(-4.1929376e+90 -8.1040379e+89 -7.8476081e+89)
(-4.9683882e+90 -1.2501765e+90 -1.1089286e+90)
(3.9309923e+90 7.7940556e+89 -5.3984842e+89)
(3.5547947e+90 -8.1356634e+89 -1.7770667e+90)
(-2.7148488e+89 4.5399793e+89 -7.0072376e+89)
(-5.2950128e+90 -1.0395637e+90 -5.693585e+89)
(-5.6832338e+90 -6.8669734e+89 -5.2899277e+89)
(-4.4775825e+90 -7.5470246e+89 -8.9148465e+89)
(-4.7539143e+90 -1.0704913e+90 -1.0342514e+90)
(-5.2325152e+90 -1.1320319e+90 -7.4013798e+89)
(-8.3775646e+90 2.267699e+90 -1.0599588e+90)
(-6.5337607e+90 4.7392075e+89 1.7871277e+90)
(3.1555925e+90 1.4579753e+90 1.0933819e+90)
(3.1120992e+90 -1.762388e+90 -1.2823223e+89)
(6.0076255e+90 -1.5712794e+90 -2.8590088e+90)
(-2.7377038e+90 4.8099677e+89 -9.4803764e+89)
(-4.3793348e+90 1.33723e+90 2.9130257e+90)
(-5.2714659e+89 3.3209411e+90 -1.3644536e+90)
(9.7322438e+90 2.1029319e+90 -2.2657465e+89)
(-3.1545675e+90 3.4217832e+90 3.2575055e+90)
(-9.4493892e+90 4.5160121e+90 1.9976e+90)
(-3.8659985e+90 5.8984035e+90 3.3587319e+90)
(-3.760835e+90 -1.8414677e+90 5.9040284e+89)
(5.0817727e+90 -7.6003607e+89 -5.2348979e+90)
(1.252406e+90 6.567118e+89 2.0859218e+90)
(5.1256194e+89 3.4880856e+89 1.2074267e+90)
(-1.6890844e+89 5.0713742e+90 -4.462511e+89)
(1.1995923e+91 1.3536167e+91 -5.4287825e+88)
(1.3780539e+90 -2.0960833e+90 1.4966126e+90)
(-1.0362284e+91 1.297509e+91 1.9521499e+90)
(-1.6117986e+91 7.6426615e+90 1.0715462e+90)
(-1.3572199e+91 4.265395e+90 4.4755602e+90)
(-2.1902821e+90 4.0054565e+90 -8.0886009e+89)
(4.0469451e+90 1.8414561e+90 -1.507177e+91)
(2.9759461e+90 1.2227067e+90 -9.3666689e+88)
(9.1516625e+89 3.0817001e+89 2.8047894e+89)
(7.6803884e+89 2.2123482e+90 1.1340299e+90)
(2.9817583e+90 1.6252883e+91 2.4388787e+88)
(-2.7565966e+89 6.8395094e+89 1.0457821e+90)
(-1.4453711e+91 5.8697864e+90 5.6742866e+90)
(-6.0728734e+90 9.1521703e+89 1.6617799e+90)
(-7.7782897e+90 8.0444352e+89 1.8334913e+89)
(-7.8295951e+90 1.4486673e+90 2.558365e+89)
(-4.5049587e+90 -6.8717277e+89 1.1414467e+90)
(-7.2363131e+90 -1.082765e+90 -4.5932131e+88)
(3.9134131e+90 2.4658748e+90 3.7377365e+90)
(1.6830579e+90 6.213597e+89 7.7627456e+89)
(-6.8465767e+89 1.5856771e+90 1.7750978e+90)
(-4.0801709e+90 -1.5959732e+90 -9.6108355e+88)
(-5.9171852e+90 -8.494115e+89 -3.1391048e+89)
(-8.5412596e+90 6.610935e+89 1.7550381e+87)
(-7.1479713e+90 2.4111341e+89 1.6978002e+89)
(-6.1330259e+90 1.5027459e+90 2.0811009e+90)
(-6.4314462e+90 -5.9797145e+89 -3.4968122e+89)
(-5.6236278e+90 -6.4337298e+89 -5.2680505e+89)
(-8.5359545e+90 6.2495219e+88 4.1872019e+89)
(-1.6292232e+90 1.0728764e+90 3.5729984e+90)
(-6.2239456e+90 -2.5534262e+89 -1.152404e+89)
(6.8317966e+90 3.1951158e+90 4.0732181e+90)
(-5.7534385e+90 -5.0453533e+89 -4.9646417e+89)
(-4.5004739e+90 -7.6667029e+89 -5.9967881e+89)
(-4.4592769e+90 -6.7520785e+89 8.8234716e+89)
(-5.7135353e+90 -6.432064e+89 1.8582225e+89)
(-5.2017162e+90 -8.2806178e+89 1.0558217e+90)
(-6.1761202e+90 -6.3794219e+89 -3.5333704e+89)
(6.3741058e+90 3.2163951e+89 -5.6724848e+88)
(-5.5549747e+90 -7.9517389e+89 -7.8762938e+89)
(-4.9960308e+90 -1.3906894e+90 -9.8500947e+89)
(6.08911e+90 3.7928639e+90 1.126141e+90)
(5.8678799e+90 -2.6837957e+89 -6.5925367e+89)
(-1.6399602e+90 6.1864749e+89 2.6458198e+89)
(-4.7603021e+90 -1.0431592e+90 -2.9361047e+89)
(-5.6377187e+90 -6.8546474e+89 -4.5657966e+89)
(-4.6556566e+90 -8.0531937e+89 -7.4447813e+89)
(-5.2033411e+90 -1.1143186e+90 -1.0961122e+90)
(-5.5515409e+90 -1.2859288e+90 -8.8852206e+89)
(-1.6789629e+90 1.2518267e+90 -9.084877e+89)
(1.4099341e+90 1.6121436e+90 -8.403677e+89)
(-2.8789899e+90 9.5995193e+89 -1.1585377e+90)
(-3.7171246e+90 -2.3346086e+89 -1.0090702e+90)
(-5.8653707e+90 -6.4927238e+89 -6.2051699e+89)
(-5.640272e+90 -6.9179638e+89 -9.4085176e+89)
(-4.91994e+90 -8.140616e+89 -1.1166655e+90)
(-5.3962002e+90 -1.3257833e+90 -7.7991406e+89)
(-6.1317544e+90 -9.0332956e+89 -6.7845503e+89)
(-5.9085497e+90 2.0326382e+90 1.8662899e+90)
(-1.0394067e+91 3.3561706e+90 8.6833996e+89)
(-5.3643175e+90 3.6616537e+90 2.8550167e+90)
(-5.2608577e+90 8.7738846e+88 2.8792251e+90)
(6.2987628e+90 -1.094905e+90 -3.7819368e+90)
(-2.1244651e+90 1.692425e+90 -1.4837576e+89)
(-1.9615009e+89 7.7531912e+88 1.5210347e+90)
(-7.384541e+89 3.9387961e+90 -4.5913549e+89)
(1.1507448e+91 8.5900686e+90 -1.5971279e+89)
(9.8931611e+90 -1.1804165e+90 6.185275e+90)
(-1.0267196e+91 6.0327109e+90 1.1708388e+90)
(-1.2062594e+91 3.6572633e+90 1.9960604e+90)
(-1.2992633e+91 3.2660047e+90 1.9694349e+90)
(-1.9640773e+90 3.3373899e+90 1.0103609e+90)
(5.5423731e+89 2.3108175e+90 -1.1704109e+91)
(5.5494847e+90 1.6327469e+90 1.4499424e+90)
(9.8702133e+89 -2.0214717e+89 2.0054624e+90)
(-6.5510656e+89 1.7873689e+90 1.6415972e+90)
(5.6039921e+90 9.0039525e+90 -3.2561621e+88)
(1.4922676e+90 2.6922221e+89 2.4338175e+90)
(-1.742423e+91 1.036101e+90 2.8216289e+90)
(-1.2614001e+91 5.3256633e+90 -1.4686269e+90)
(-1.2205629e+91 8.0218837e+90 4.2700219e+89)
(-4.6937986e+90 1.1153686e+91 -1.1297086e+91)
(3.4738157e+89 2.0579685e+90 1.345498e+89)
(7.2860605e+89 1.4977564e+91 1.2996972e+90)
(1.8908314e+90 2.9579019e+90 -4.7693322e+90)
(1.2070794e+90 1.9137152e+89 -3.1118075e+89)
(8.890807e+89 2.1535054e+90 1.3031766e+90)
(2.0273458e+90 1.6646999e+90 1.4673954e+90)
(1.1342236e+90 1.0829025e+90 2.7430815e+90)
(-2.7920856e+91 4.8012632e+90 4.3536644e+90)
(-7.7956932e+91 -5.5216021e+90 -9.0392447e+89)
(-7.5636452e+90 4.4054731e+89 5.6114967e+89)
(-4.9534045e+90 2.1772245e+90 2.8357849e+90)
(-6.3361239e+90 6.183078e+89 1.4123861e+90)
(-8.5225561e+90 2.5752128e+89 1.1151931e+90)
(-7.6088128e+90 2.0961022e+89 1.2994268e+88)
(-9.7015976e+90 2.2569729e+90 1.0322235e+90)
(3.6501075e+90 3.1209036e+90 4.3035715e+90)
(-8.1402428e+90 -1.7403106e+90 7.8194428e+89)
(-6.764581e+90 -5.9841501e+89 -1.6862199e+89)
(-3.7213644e+90 2.4662463e+90 2.7394638e+90)
(-4.2889808e+90 1.9087095e+90 1.5778738e+90)
(8.2436504e+90 -3.7479843e+89 -1.4225151e+90)
(-2.639841e+90 8.1764566e+89 3.3613227e+89)
(-5.5786132e+90 -1.0115779e+90 1.501891e+88)
(-5.9630584e+90 -6.8786108e+89 -4.1211021e+89)
(-6.2545627e+90 2.7839318e+89 2.1782754e+89)
(-7.5985433e+90 9.6418635e+89 2.7965198e+89)
(-7.3097261e+90 -2.2614766e+89 -2.4981152e+89)
(9.6824177e+89 2.7621479e+90 1.8711712e+90)
(-6.3905869e+90 -4.4259111e+89 -4.9917166e+89)
(-5.029461e+90 -8.0899003e+89 -6.652428e+89)
(-6.5633161e+90 1.1013005e+89 1.9716362e+89)
(-8.5854066e+90 -5.3401813e+89 -1.4585246e+89)
(-3.1592206e+89 7.3775919e+89 3.9181829e+90)
(-6.4170627e+90 -5.2935061e+89 -4.234309e+89)
(9.0220813e+90 3.873685e+90 5.2783956e+89)
(-5.795107e+90 -6.6590095e+89 -8.5147194e+89)
(-5.3620951e+90 -1.1459622e+90 -9.8061504e+89)
(-4.8781731e+90 -5.8770922e+89 1.9654544e+89)
(-4.2988641e+90 -1.2939184e+90 1.7829154e+90)
(-5.9897237e+90 -6.225405e+89 -2.507592e+89)
(-3.6801938e+90 -1.8390704e+89 1.5250982e+90)
(-6.2674561e+90 -1.1354776e+90 -4.7816745e+89)
(1.1192207e+91 1.3537544e+90 1.5123847e+90)
(-5.3952609e+90 -1.0916214e+90 -5.9841232e+89)
(-5.6772756e+90 -1.3858429e+90 -1.5352455e+90)
(1.5383094e+90 2.9674818e+90 8.1079986e+89)
(3.8921622e+90 3.2406845e+90 1.4214781e+90)
(-5.6508606e+89 2.2360059e+90 -4.9797313e+89)
(-4.1138107e+90 -9.554576e+88 -3.7460046e+89)
(-5.5354018e+90 -6.9509207e+89 -4.6906964e+89)
(-5.4732048e+90 -7.5755585e+89 -8.4973107e+89)
(-5.5093451e+90 -8.6903155e+89 -1.1143928e+90)
(-5.817117e+90 -1.4566738e+90 -9.7401442e+89)
(-6.2300299e+90 -9.134723e+89 -8.248325e+89)
(-5.319608e+90 2.9615584e+90 -7.0665474e+89)
(-4.7709195e+90 2.3863223e+90 -1.036212e+90)
(-2.4485177e+90 1.9963864e+90 -8.2616138e+89)
(-2.6754104e+90 6.3717845e+89 1.0201275e+90)
(-5.1775964e+90 -6.8629392e+88 -7.6975933e+89)
(-5.9619967e+90 -5.9697375e+89 -1.0083068e+90)
(-5.0809148e+90 -9.7126664e+89 -1.1971906e+90)
(-5.518335e+90 -1.2463924e+90 -8.9933406e+89)
(-6.4070067e+90 -9.1901508e+89 -7.0763194e+89)
(-6.203576e+90 -6.7084458e+89 -5.8891631e+89)
(-9.4901041e+90 3.0195143e+90 6.3031634e+89)
(-1.2471469e+91 2.2193603e+90 4.3091483e+89)
(-1.1982664e+91 2.7918827e+90 6.4262269e+89)
(1.895064e+90 2.4754573e+90 3.0824916e+90)
(-1.6740739e+90 1.3584267e+90 -3.5773129e+90)
(7.0486806e+90 2.3844734e+90 1.935195e+90)
(7.9887718e+89 -1.1172745e+89 2.6533415e+90)
(-3.2493246e+90 2.6886457e+90 1.5840554e+90)
(4.9549733e+90 6.1684338e+90 -6.1406488e+89)
(2.4814119e+90 1.3121185e+90 2.5059108e+90)
(-1.3440202e+91 -1.3053231e+90 3.325381e+90)
(-1.1494081e+91 1.6686404e+90 -4.4754196e+89)
(-8.6144978e+90 3.7183995e+90 -4.384532e+89)
(-5.4997131e+90 -2.2730146e+90 3.1712281e+90)
(-4.5470525e+90 1.6880313e+90 -8.575451e+88)
(3.2930463e+90 1.2633859e+91 9.8127268e+89)
(2.8758909e+90 2.8984068e+90 -3.9023864e+90)
(1.869281e+90 -1.7246188e+89 1.7030781e+90)
(-2.0170272e+89 1.7817087e+90 2.5755014e+90)
(-4.929559e+89 2.6263297e+90 2.057251e+90)
(2.0426223e+90 1.8904587e+90 2.4041823e+90)
(-1.3416043e+91 1.2009811e+89 1.1042744e+90)
(-6.3583608e+91 -9.0824609e+90 -2.5593607e+90)
(-1.1920064e+91 1.6187022e+90 -4.2511358e+90)
(-1.1856826e+91 3.0983957e+89 -4.530312e+90)
(-7.5672445e+90 1.2022741e+89 -4.0023929e+90)
(-2.4915065e+90 2.0859479e+90 -3.7385778e+89)
(-1.8656333e+90 9.0765562e+90 -5.2329078e+90)
(4.2192081e+89 -2.7598469e+89 4.181812e+90)
(1.1011919e+90 1.6610415e+90 -3.7710505e+90)
(9.963641e+89 2.3882119e+90 9.9174561e+89)
(1.8566919e+90 2.0589121e+90 2.1636464e+90)
(1.770106e+90 2.2303382e+90 2.3068424e+90)
(-2.1377439e+91 -1.0842672e+91 6.6142202e+89)
(-2.5474207e+91 -1.2167456e+91 -2.9471525e+90)
(-5.1724136e+91 -2.8154285e+91 -1.6031908e+91)
(-7.4825633e+90 8.3076907e+88 8.9641015e+88)
(-5.6443899e+90 1.1809507e+90 1.7854878e+90)
(-8.2002922e+90 6.4212729e+88 8.1092658e+89)
(9.5719273e+90 2.9778169e+90 6.6705924e+90)
(-1.0602724e+91 1.1594025e+90 -3.5416746e+89)
(-8.1264031e+90 1.3252705e+90 7.744862e+89)
(-9.4222121e+90 1.259953e+90 1.3688381e+90)
(-7.7362499e+90 -2.2620696e+89 7.3924162e+89)
(-7.5205863e+90 -1.3651927e+89 -3.6808514e+89)
(-9.2828168e+90 2.5628651e+90 6.0238574e+89)
(-4.423196e+90 3.1824557e+90 3.1157083e+90)
(-2.2187455e+90 1.341937e+90 1.9676809e+90)
(-7.4700111e+90 -1.0280382e+90 3.655845e+89)
(-6.5004831e+90 -5.9675958e+89 -4.0709078e+89)
(-1.089269e+90 2.3044593e+90 7.9744648e+89)
(8.6478802e+90 6.820679e+89 1.6902301e+90)
(-3.3635448e+90 2.1075623e+90 1.1721332e+90)
(8.2556704e+90 3.4795459e+90 1.652786e+90)
(-5.0539442e+90 4.1586276e+88 -1.3456647e+89)
(-6.412565e+90 -7.5383673e+89 -2.5296579e+89)
(-5.6041407e+90 -8.3792499e+89 -8.9011071e+89)
(-7.3119081e+90 1.9400212e+89 -4.6577387e+89)
(-7.3942974e+90 -4.1401627e+89 -1.6622259e+89)
(1.0642615e+90 1.3657277e+90 3.6481143e+90)
(-7.1562187e+90 -5.1071406e+89 -5.606254e+89)
(3.0334351e+90 4.4494551e+90 -2.2682125e+88)
(-6.2531672e+90 -8.0784524e+89 -9.7954787e+89)
(-5.7543052e+90 -9.3156428e+89 -1.0375246e+90)
(-6.684544e+90 -2.3003886e+89 -3.1237273e+89)
(-3.4777098e+90 -6.6212479e+89 2.1688731e+90)
(-7.4169144e+90 -5.2383528e+89 -3.3574292e+89)
(-3.7978849e+89 1.196866e+90 3.7613548e+90)
(-6.427167e+90 -8.9231986e+89 -4.8451177e+89)
(3.4536619e+90 3.6578771e+90 2.6327631e+90)
(-5.6368575e+90 -8.3841948e+89 -6.3541482e+89)
(-6.1472092e+90 -1.4339131e+90 -1.4595876e+90)
(-4.8613647e+90 -8.9028156e+89 1.1406685e+90)
(-6.2714377e+90 -4.5383024e+89 -4.4046476e+89)
(-6.4556271e+90 -5.1078844e+89 9.5468399e+89)
(-5.8222863e+90 -1.0413152e+90 -3.3162264e+89)
(-1.5107327e+90 1.7922855e+90 5.5639374e+90)
(-5.9517529e+90 -1.2186086e+90 -7.3376846e+89)
(-3.8963254e+90 4.8233586e+89 -1.4252587e+88)
(-6.3276519e+90 -1.345416e+90 -5.6656084e+89)
(-6.4203407e+90 -8.9236637e+89 -9.6293739e+89)
(-3.5909452e+90 3.6457612e+90 4.1928476e+88)
(-4.6291265e+90 3.0962363e+90 -8.3846126e+89)
(-3.5229854e+90 1.9599834e+90 5.1403475e+89)
(-2.8940193e+89 3.1073847e+89 2.8393896e+90)
(-5.1272795e+90 -1.0008733e+88 -3.9168164e+89)
(-6.0562072e+90 -6.6430077e+89 -7.0092888e+89)
(-5.4965161e+90 -9.9136989e+89 -1.1090597e+90)
(-5.8929751e+90 -1.3187989e+90 -1.1460386e+90)
(-6.4166135e+90 -1.0012476e+90 -8.7623629e+89)
(-6.324045e+90 -6.5264945e+89 -7.1552451e+89)
(-4.0644244e+90 4.1694416e+90 -5.6066277e+89)
(-5.9852952e+90 2.6620481e+90 -7.8865008e+89)
(-3.6129235e+90 3.703098e+90 7.1035293e+89)
(-4.7170599e+90 9.3608574e+89 -6.3581966e+89)
(-6.7629937e+90 1.9802804e+90 4.9558905e+89)
(-6.0269052e+90 -1.6114575e+88 -1.0631828e+90)
(-6.714454e+90 -6.1351554e+89 -1.0130914e+90)
(-5.5231069e+90 -7.445976e+89 -1.1696488e+90)
(-6.7730235e+90 -1.4276436e+90 -5.240262e+89)
(-6.3424548e+90 -7.8026774e+89 -5.5153802e+89)
(-5.3739106e+90 -3.7265136e+89 -4.4613625e+89)
(-1.0432706e+91 4.1963139e+89 -4.4873899e+89)
(-7.8094307e+90 2.0659231e+90 -5.8756377e+89)
(-5.5137411e+90 -1.6978961e+90 3.9722206e+90)
(-6.5516844e+90 1.4765467e+90 -6.8797202e+88)
(3.3276276e+90 8.2989438e+90 -4.6213925e+89)
(3.5357474e+90 2.7020536e+90 -2.6774689e+90)
(2.121262e+90 5.8667166e+89 2.7640567e+90)
(-3.052015e+90 2.8528576e+90 2.639402e+90)
(-2.3979951e+90 2.8016167e+90 9.3871373e+89)
(4.1447028e+90 3.2375709e+90 2.4156957e+90)
(-1.3800662e+91 -2.3745352e+90 2.5294745e+90)
(-4.5351958e+91 -1.0474702e+91 -3.9785262e+90)
(-9.0504633e+90 9.4678602e+89 -2.193011e+90)
(-1.0235388e+91 -1.3960053e+90 -1.8978037e+90)
(-5.3491067e+90 1.8868999e+90 -2.8149831e+90)
(-1.1902845e+90 3.0484799e+90 3.7350601e+90)
(-2.2953046e+90 7.5571266e+90 -2.7922848e+90)
(-1.7068732e+90 2.473924e+90 -2.0507363e+89)
(2.2888335e+90 1.4711584e+90 -1.1072753e+90)
(-2.0705588e+89 2.030097e+90 3.1870168e+90)
(3.9949569e+89 3.0730103e+90 3.5502223e+90)
(-7.8652551e+90 1.9203835e+90 1.5429677e+90)
(-8.0929742e+90 -4.9066239e+90 -2.7031003e+90)
(-1.6673554e+91 -1.2849567e+91 -1.1582079e+90)
(-2.809309e+91 -1.0043011e+91 -8.6085216e+90)
(-6.6839112e+90 -4.5480433e+90 -4.3695226e+90)
(2.6801212e+90 -3.202453e+90 -2.4235482e+90)
(-1.1599138e+90 -7.1599329e+89 9.2519455e+90)
(-1.4195818e+91 4.4528941e+89 1.483824e+90)
(8.8643472e+89 3.618674e+90 2.3066896e+90)
(5.725103e+90 3.6705782e+90 -1.8638732e+91)
(-6.8659881e+89 -3.3361519e+90 4.8171214e+90)
(9.1564843e+89 4.4223546e+90 1.3923379e+90)
(2.3507286e+90 4.6099971e+90 1.2588485e+90)
(3.0245777e+90 5.9548949e+89 3.0561355e+90)
(3.7181782e+90 5.3146095e+89 5.9609118e+89)
(-6.3341974e+90 -6.8848207e+90 -5.3790418e+90)
(-1.3989269e+91 -3.3346967e+91 -1.4458626e+91)
(-3.9004072e+90 -3.4125957e+90 -1.389527e+91)
(-7.6471246e+90 2.7013112e+89 -5.9357424e+89)
(-7.9473893e+90 -8.4110931e+88 2.5172943e+89)
(-7.3465334e+90 -2.6425457e+89 -4.4488526e+88)
(-7.9981194e+90 4.269689e+89 -1.9069782e+89)
(8.7451922e+90 4.1637585e+90 6.6115351e+90)
(-8.5491933e+90 6.9502683e+89 6.2635232e+89)
(2.9225342e+90 4.498119e+90 1.7970673e+90)
(-4.4858581e+90 -5.4965147e+89 1.2087527e+90)
(-8.0835222e+90 8.09241e+88 -4.9837009e+88)
(-5.9400562e+90 1.4244395e+90 -1.3664005e+89)
(-8.3486784e+90 1.8447713e+90 1.5636181e+90)
(-8.632047e+90 6.3196752e+89 9.8962723e+89)
(-7.6648798e+90 -5.0974436e+89 -1.6111352e+89)
(-7.3037761e+90 -5.2349419e+89 -5.4227015e+89)
(-5.2085545e+90 1.9270344e+90 7.9842719e+89)
(-4.2358041e+90 2.257082e+90 2.4676385e+90)
(-4.0340804e+90 2.8059398e+90 2.5039126e+90)
(-6.455544e+90 4.373944e+88 7.0016747e+89)
(-7.1177837e+90 -6.6408958e+89 -1.7710366e+89)
(-6.4420544e+90 -8.8273224e+89 -8.9047769e+89)
(6.7505756e+90 4.4847425e+90 -5.5251811e+89)
(-1.4927528e+90 3.912577e+90 1.8248386e+90)
(2.4937841e+90 5.0004017e+90 7.2494474e+89)
(-7.1695573e+90 1.1333956e+90 6.6276802e+89)
(1.4313333e+90 1.0048757e+90 3.4063376e+90)
(-5.9532513e+90 -7.1396183e+88 -1.3273467e+89)
(-6.7961592e+90 -8.2139247e+89 -5.9387099e+89)
(-5.6724051e+90 -1.0688611e+90 -7.456974e+89)
(-7.3208006e+90 -2.1610748e+89 -5.4411656e+89)
(-5.8204466e+90 -2.7754692e+89 6.7661377e+89)
(-7.1197114e+90 -6.0650028e+89 -3.4924281e+89)
(1.6842267e+90 2.7357231e+90 4.0841071e+90)
(-7.1201945e+90 -9.905232e+89 -6.0704043e+89)
(2.4158368e+90 2.4439115e+90 3.0267573e+90)
(-5.7630774e+90 -5.2628616e+89 -7.9145128e+89)
(-6.75819e+90 -1.2799734e+90 -1.5002603e+90)
(-4.5161564e+90 -3.6741996e+89 1.3468022e+90)
(-6.8124286e+90 -2.3929018e+89 -5.701174e+89)
(-4.8393625e+90 3.4179682e+88 2.2157669e+90)
(-6.6094456e+90 -8.5428554e+89 -4.2173232e+89)
(-2.5405296e+90 1.3064086e+90 4.5119425e+90)
(-6.7246232e+90 -1.0845675e+90 -6.6400695e+89)
(-8.6905596e+90 8.2503552e+89 6.7232747e+89)
(-6.6594486e+90 -1.274076e+90 -6.5258417e+89)
(-6.8688811e+90 -1.0371475e+90 -1.0421111e+90)
(-6.1882143e+90 -5.8082022e+89 2.4756787e+89)
(-5.6583469e+90 -7.8242337e+89 1.2777722e+90)
(-6.1193343e+90 -8.7262629e+89 -6.5700502e+89)
(-7.1157172e+90 -5.6805324e+89 6.849969e+89)
(-5.9052137e+90 -1.0951247e+90 -7.1078175e+89)
(-1.6576448e+91 -4.4237304e+90 -1.8593068e+89)
(-6.6591063e+90 -8.4502358e+89 -1.1739807e+90)
(-6.303535e+90 -4.7568938e+89 -9.6586131e+89)
(-4.1519517e+90 4.4912057e+90 2.8743028e+89)
(-4.7768089e+90 2.9363992e+90 2.7500473e+88)
(-4.5917018e+90 4.1918082e+90 7.411203e+89)
(-4.6610995e+90 7.6306337e+89 1.9371203e+89)
(-5.9957169e+90 2.6364602e+90 1.6038181e+90)
(-6.257008e+90 -1.3850788e+89 -6.8370489e+89)
(-7.4110688e+90 -6.9088191e+89 -7.1811632e+89)
(-6.2405744e+90 -7.6632636e+89 -1.1122645e+90)
(-7.050348e+90 -1.5188901e+90 -6.7568666e+89)
(-6.5067079e+90 -7.6262371e+89 -6.8232481e+89)
(-5.456498e+90 -3.4975852e+89 -5.9333221e+89)
(-5.4252887e+90 2.5463128e+90 -4.7199615e+89)
(-5.7995396e+90 2.2517838e+90 4.0822717e+89)
(-6.4411359e+90 1.7581941e+90 -8.1472176e+89)
(-5.3732673e+90 1.3461617e+90 1.0254116e+89)
(-6.1683775e+90 -4.9014705e+88 -8.563831e+89)
(-6.4580745e+90 -1.9967648e+89 -1.0921442e+90)
(-7.2314865e+90 -1.0851884e+90 -9.3804459e+89)
(-6.4035101e+90 -6.2720161e+89 -8.2105347e+89)
(-6.5521678e+90 -9.2213762e+89 -4.2028483e+89)
(-5.5051778e+90 -5.2083303e+89 -4.138665e+89)
(-4.2267198e+90 -2.9070944e+89 -4.4824676e+89)
(-7.5202205e+90 3.6327589e+89 -1.1847891e+90)
(-1.1249609e+91 -4.0576506e+89 -1.9779019e+90)
(-4.7203176e+90 2.2468498e+90 -1.8587014e+90)
(4.276566e+89 3.1634246e+90 2.806856e+90)
(-2.5452397e+90 4.5949565e+90 -1.9204815e+90)
(-5.4884793e+89 1.7276083e+90 -5.5970919e+89)
(3.5331387e+90 2.5714041e+90 6.5546506e+89)
(-2.6851053e+90 3.1402475e+90 3.593783e+90)
(-2.3642419e+90 4.1911786e+90 1.7979068e+90)