/*--------------------------------*- C++ -*----------------------------------*\
  =========                 |
  \\      /  F ield         | OpenFOAM: The Open Source CFD Toolbox
   \\    /   O peration     | Website:  https://openfoam.org
    \\  /    A nd           | Version:  7
     \\/     M anipulation  |
\*---------------------------------------------------------------------------*/
FoamFile
{
    version     2.0;
    format      ascii;
    class       volVectorField;
    location    "2000";
    object      UMean;
}
// * * * * * * * * * * * * * * * * * * * * * * * * * * * * * * * * * * * * * //

dimensions      [0 1 -1 0 0 0 0];

internalField   nonuniform List<vector> 
34124
(
(-1.1653836e+88 1.8409161e+87 -7.6006461e+87)
(-1.1677736e+88 -8.8921091e+86 -8.2436272e+87)
(-2.556773e+88 -2.5263778e+87 -1.0167942e+88)
(-5.2936862e+87 -2.7115407e+86 -7.6604043e+87)
(-1.3716209e+88 -2.9113255e+87 -8.892164e+87)
(-1.1572199e+88 -1.0511407e+87 -7.992548e+87)
(-8.6465371e+87 -1.1576488e+87 -6.6625348e+87)
(-1.5789313e+88 -7.6181782e+87 -7.3865815e+87)
(-5.7084985e+87 -1.5183909e+87 -9.4445191e+87)
(-1.7253217e+88 -3.8343925e+87 -7.7824133e+87)
(-1.4909615e+88 -4.2973708e+87 -9.8509523e+87)
(-1.2634268e+88 -1.5537115e+87 -7.9443745e+87)
(-1.2919914e+88 -3.1428042e+87 -9.5057524e+87)
(-1.0331663e+88 -4.0274578e+87 -6.4669847e+87)
(-5.4048909e+87 -1.059426e+86 -6.8398439e+87)
(-9.4275496e+87 -3.0563593e+87 -8.9480623e+87)
(-1.5468985e+88 -6.3053961e+87 -4.8242234e+87)
(-5.8858189e+87 -1.6887019e+87 -8.9840297e+87)
(-8.2897208e+87 -5.6225346e+87 -7.912538e+87)
(2.0396072e+87 -4.4997977e+87 -3.5447986e+87)
(-1.4672805e+88 -4.2852568e+87 -1.0714547e+88)
(-1.3510838e+88 -3.1679994e+87 -9.3439818e+87)
(-1.5144813e+88 -4.7524731e+87 -9.2354519e+87)
(-1.2126399e+88 -2.937403e+87 -7.1005082e+87)
(-8.7560122e+87 -1.4369939e+87 -7.0914911e+87)
(-1.0300075e+88 -3.6648564e+87 -1.0259939e+88)
(-1.4808535e+88 -4.2422633e+87 -5.8244503e+87)
(-3.2666347e+87 -1.7355062e+87 -6.4072032e+87)
(-2.5696461e+87 -2.3432789e+87 -7.0172789e+87)
(1.8175883e+87 -3.8762929e+87 -7.3329621e+87)
(-1.2102054e+88 -2.6502874e+87 -4.8292907e+87)
(-4.3914483e+87 1.4597344e+87 -5.226571e+87)
(1.4300431e+87 -4.7245563e+87 -6.7007349e+87)
(5.2451255e+87 -3.3169316e+87 -7.9982632e+87)
(-6.0818158e+87 -8.6102929e+87 1.0480339e+87)
(-1.1498497e+88 -4.500905e+87 -1.1013391e+88)
(-1.0996432e+88 -2.9137199e+87 -9.728058e+87)
(-1.5334827e+88 -4.8324754e+87 -9.7126428e+87)
(-1.169067e+88 -2.8358981e+87 -8.880525e+87)
(-1.3606888e+88 -4.3344302e+87 -9.2495358e+87)
(-1.4150732e+88 -5.7533229e+87 -7.9875816e+87)
(-1.6897543e+88 -2.3161855e+87 -7.0884337e+87)
(-4.9129916e+87 -1.3958839e+87 -6.8962903e+87)
(-3.3356168e+87 -1.2842217e+87 -7.9688899e+87)
(-5.2080704e+87 -4.0147731e+87 -8.6349291e+87)
(-1.1537108e+88 -2.0750241e+87 -5.7772818e+87)
(-4.0739448e+87 -1.002827e+87 -4.4751051e+87)
(8.6485796e+85 -1.5534413e+87 -5.9644846e+87)
(4.5407413e+87 -2.0216866e+87 -7.4457829e+87)
(-3.6782624e+87 -6.0570334e+87 -2.8677958e+87)
(-6.5194747e+87 2.6617267e+87 -5.7177225e+87)
(1.4507489e+87 2.5638098e+87 -3.7593405e+87)
(1.4145223e+87 6.9176334e+87 -3.3333852e+86)
(-7.5612154e+86 -3.7770312e+87 -7.2038607e+87)
(6.1358738e+87 -4.4548587e+87 -3.8064334e+86)
(-5.2854174e+87 -1.18945e+88 1.9458362e+86)
(-5.3257475e+87 -2.293206e+87 -1.0334439e+88)
(-9.1555071e+87 -4.4622917e+87 -9.8532007e+87)
(-1.3885057e+88 -4.9587427e+87 -9.5319603e+87)
(-6.1586033e+87 -1.5810878e+87 -8.9383965e+87)
(-1.2502205e+88 -4.3646414e+87 -9.6901534e+87)
(-1.482396e+88 -5.7061038e+87 -8.4125306e+87)
(-1.8105969e+88 -2.7480308e+87 -8.3710375e+87)
(-1.189802e+88 -3.7630569e+87 -8.8416889e+87)
(-1.3780307e+88 -5.8032093e+87 -7.9131093e+87)
(-1.1942745e+88 -5.5997576e+87 -6.2279095e+87)
(-1.3917693e+88 -5.8889771e+86 -8.1797723e+87)
(-7.9705131e+87 -3.9084692e+86 -5.2791844e+87)
(-1.172648e+87 -8.2835567e+85 -7.3709793e+87)
(3.9040491e+86 -8.8205404e+86 -7.4733108e+87)
(-7.9588026e+87 -6.0950545e+87 -5.6540967e+87)
(-5.6271657e+87 1.8187355e+87 -4.7823118e+87)
(-2.1655405e+85 1.4718108e+87 -3.3794844e+87)
(-1.552852e+87 4.9002458e+87 -2.1361278e+87)
(-5.3044104e+87 -4.0085696e+87 -8.6823368e+87)
(4.0787623e+87 -3.4289088e+87 -2.0099312e+87)
(-1.4698439e+87 -1.0748554e+88 -3.6876184e+86)
(-2.8339263e+87 1.10519e+88 -1.0395705e+88)
(-4.636896e+87 8.9939348e+87 -2.4033956e+87)
(-7.9697927e+87 7.5574167e+87 6.2357246e+87)
(-2.7484792e+88 -8.5532734e+87 -1.0908972e+88)
(2.6785239e+87 -1.7292692e+87 4.8207329e+86)
(7.772347e+87 -1.104178e+88 1.3546321e+87)
(-4.6650094e+87 -7.4185726e+87 6.0034525e+87)
(-1.3698931e+87 -5.3553174e+86 -9.4840532e+87)
(-4.9898175e+87 -2.6107347e+87 -9.7766079e+87)
(-9.0064634e+87 -4.1298858e+87 -9.3933639e+87)
(-1.0500051e+88 -6.2270805e+87 -6.9687588e+87)
(-1.4943969e+88 -4.825554e+87 -8.5566203e+87)
(-1.5096502e+88 -5.6615873e+87 -8.277757e+87)
(-1.3934583e+88 -1.6045475e+87 -9.5111327e+87)
(-8.2261328e+87 -3.460481e+87 -9.0732771e+87)
(-1.4026848e+88 -5.7983997e+87 -8.4107238e+87)
(-1.3024467e+88 -5.5276806e+87 -6.5238131e+87)
(-1.1645399e+88 -1.1168598e+87 -6.3660608e+87)
(-1.4616131e+88 -3.1845511e+87 -7.8869699e+87)
(-1.3337308e+88 -5.176e+87 -7.6660802e+87)
(-1.2354956e+88 -5.8388029e+87 -6.1275949e+87)
(-1.0896613e+88 -5.1432544e+87 -5.2580104e+87)
(-8.251095e+87 4.4578933e+86 -6.9070059e+87)
(-2.6019821e+87 2.1517489e+87 -4.3717078e+87)
(-4.8000145e+87 3.3317258e+87 -3.1553647e+87)
(-6.5885841e+87 -2.1456545e+87 -9.590822e+87)
(1.2561356e+87 -3.4056329e+87 -4.7213501e+87)
(-7.4651956e+87 -9.937304e+87 -3.8574835e+86)
(-4.8706613e+87 7.4121234e+87 -1.030557e+88)
(-4.9519658e+87 7.4750348e+87 -2.4931778e+87)
(-7.0866804e+87 5.6538174e+87 -1.3189849e+86)
(-1.506499e+88 -5.632441e+87 -4.4239253e+87)
(2.8330057e+87 -2.281251e+87 -3.2732113e+87)
(4.6196821e+87 -1.0129943e+88 1.1317374e+87)
(-2.1306445e+87 -6.6311884e+87 5.9943044e+87)
(2.9846022e+87 4.8678695e+87 -5.3817914e+87)
(-4.8377615e+87 1.1135135e+88 -3.9434923e+87)
(-1.9655473e+88 9.7887317e+87 4.455203e+87)
(-7.4405776e+87 -8.77605e+87 -1.3241017e+88)
(2.9943163e+87 -2.6260957e+87 -5.5829996e+87)
(2.7864902e+87 -2.676728e+87 1.2754082e+87)
(5.3011425e+87 -5.8005404e+87 3.2500516e+87)
(-5.6991534e+87 -8.1816541e+87 3.1367605e+87)
(-8.9092031e+87 -2.1013134e+86 -9.6543098e+87)
(-8.2680549e+87 -2.4205096e+87 -1.0005374e+88)
(-4.6966214e+87 -2.6567015e+87 -8.5507003e+87)
(-5.6660046e+87 -5.0885828e+87 -6.3273582e+87)
(-1.1524759e+88 -4.3803465e+87 -8.5267349e+87)
(-1.3949938e+88 -5.7695937e+87 -8.2469892e+87)
(-1.4427848e+88 -5.6962542e+87 -5.7477815e+87)
(-1.1334049e+88 -6.7305152e+87 -1.8738708e+87)
(-1.7460314e+88 -5.591206e+87 -7.8092551e+87)
(-1.3818307e+88 -5.4345453e+87 -6.5688892e+87)
(-7.7459823e+87 1.1612609e+87 -6.1269832e+87)
(-1.2149413e+88 -2.5342574e+87 -8.4923046e+87)
(-1.2259985e+88 -5.0279305e+87 -8.1554246e+87)
(-1.2992641e+88 -5.7917709e+87 -6.4687013e+87)
(-1.1900113e+88 -5.1350657e+87 -5.3592107e+87)
(-9.1681747e+87 1.7681371e+87 -5.0507769e+87)
(-1.2779999e+88 -2.597891e+87 -6.5180452e+87)
(-1.5173951e+88 -4.2321752e+87 -6.9707882e+87)
(-1.2756641e+88 -5.5716441e+87 -5.9844686e+87)
(-1.1715865e+88 -5.268211e+87 -5.174765e+87)
(-1.0188553e+88 -4.8207891e+87 -4.8442877e+87)
(-6.2720537e+87 3.4817409e+87 -9.5471479e+87)
(-7.7447497e+87 4.6982395e+87 -3.6830335e+87)
(-7.0660969e+87 4.0107567e+87 -2.6018133e+87)
(-1.6838564e+88 -3.2827332e+87 -3.2305804e+87)
(-8.4292418e+86 -3.2161975e+87 -5.7701082e+87)
(-5.173911e+87 -7.7700514e+87 7.2052848e+85)
(-5.1564236e+87 -7.0663845e+87 6.123714e+87)
(1.9752667e+87 4.8461696e+87 -7.4072093e+87)
(-9.9708558e+86 9.9555569e+87 -2.8268986e+87)
(-1.2282711e+88 6.5616296e+87 -4.3099992e+86)
(-8.9098344e+87 -6.7572363e+87 -5.3314861e+87)
(2.518772e+87 9.9171372e+86 -6.5103648e+87)
(-4.1843885e+87 -4.125876e+87 5.0728005e+86)
(4.9339471e+87 -5.5525857e+87 5.0636541e+87)
(-1.1486743e+87 -5.9330762e+87 3.5279068e+87)
(-2.3798713e+88 7.2695837e+87 -8.5555955e+87)
(-1.6290811e+88 1.9217784e+87 -5.4697825e+87)
(-1.3390997e+88 1.093076e+88 -2.1082385e+86)
(-4.3918277e+87 -4.9877617e+87 1.7550626e+87)
(9.5435852e+86 -2.5716567e+87 -8.7923696e+87)
(-4.4343319e+87 3.992427e+87 -6.0584769e+87)
(6.6812996e+87 2.1759848e+86 5.9403971e+86)
(3.2414287e+86 -1.1018844e+88 3.0093801e+87)
(-1.3310465e+88 -4.1553982e+87 -2.5153095e+87)
(-9.1966486e+87 2.2364477e+86 -9.5200338e+87)
(-7.8344246e+87 2.6592864e+87 -6.7312436e+87)
(-9.6500597e+87 -1.792145e+87 -8.5160173e+87)
(-1.0300399e+88 -4.141467e+87 -6.9191603e+87)
(-1.0392193e+88 -3.7853249e+87 -8.4463368e+87)
(-1.0864217e+88 -4.7696353e+87 -7.7370883e+87)
(-9.8353627e+87 -5.2943512e+87 -4.8321438e+87)
(-1.5772094e+88 -6.1504222e+87 -2.6619094e+87)
(-1.6043441e+88 -5.8135792e+87 -7.5468513e+87)
(-1.3492245e+88 -5.6657148e+87 -6.5570009e+87)
(-1.9132207e+88 -5.3466309e+87 -3.0416412e+87)
(-1.7037716e+88 -5.4923156e+87 -4.9206462e+87)
(-9.7376534e+87 -7.2372083e+87 3.816007e+87)
(-1.7992387e+88 -5.2584888e+87 -6.5341728e+87)
(-1.3087833e+88 -5.1556069e+87 -5.3507835e+87)
(-6.6356182e+87 2.2759343e+87 -4.717048e+87)
(-6.2972784e+87 -1.2499543e+87 -6.6303657e+87)
(-1.3610299e+88 -3.9874916e+87 -7.4113909e+87)
(-1.3068335e+88 -5.4813891e+87 -6.3569346e+87)
(-1.2367192e+88 -5.2424295e+87 -5.2959061e+87)
(-1.1707581e+88 -5.0941434e+87 -4.559997e+87)
(-1.6215425e+88 -4.2501386e+87 -3.7946572e+87)
(-9.3507943e+87 -2.3210471e+85 -6.2388123e+87)
(-1.4340379e+88 -3.6020883e+87 -6.6892842e+87)
(-1.549207e+88 -4.7709876e+87 -5.5669418e+87)
(-1.2306816e+88 -5.1278005e+87 -5.0790654e+87)
(-1.1504316e+88 -4.571026e+87 -4.9506796e+87)
(-1.3600757e+88 -5.1385912e+87 -5.0677222e+87)
(-4.2902573e+87 2.7368368e+87 -7.9484022e+87)
(-1.685662e+87 6.2807335e+87 -2.9216606e+87)
(-1.1716872e+88 4.1233787e+87 -1.9820311e+87)
(-1.242832e+88 -2.860477e+87 -4.1834175e+87)
(1.8778316e+87 2.3374085e+87 -6.4471423e+87)
(-1.1965257e+88 -4.3469964e+87 -1.1158361e+87)
(3.011796e+87 -5.8575235e+87 5.8312197e+87)
(-4.3411335e+87 -5.5452947e+87 4.4163301e+87)
(-2.1480065e+88 3.0523406e+87 -7.7722866e+87)
(-1.3796683e+88 -3.1337622e+86 -2.9411686e+87)
(-4.7167485e+87 4.2618656e+87 1.7270626e+87)
(-5.8478401e+87 -7.3198934e+87 1.9527925e+87)
(1.1105713e+87 2.2349794e+87 -8.3154513e+87)
(-7.7326427e+86 5.86919e+87 -5.2374504e+87)
(6.321371e+87 -1.9669337e+87 3.0595317e+87)
(2.0536236e+87 -6.2677285e+87 2.6334349e+87)
(-6.8405024e+87 -1.9218365e+87 -1.2159496e+86)
(-4.6114459e+87 -3.4943495e+87 -3.7433555e+87)
(-2.8472831e+88 4.5654644e+87 -7.8008524e+87)
(-5.8695236e+87 1.4171091e+87 -3.8498827e+87)
(-1.7536805e+88 -7.4700337e+87 -4.0348471e+87)
(1.0462011e+88 -3.3727909e+87 -7.3776352e+87)
(9.4170731e+87 5.4775822e+87 -3.4219769e+87)
(1.5349809e+87 2.2974429e+87 -3.5180979e+87)
(-4.1669287e+84 -4.8683712e+87 -2.1390641e+86)
(-7.372124e+87 -9.1198781e+87 -1.7796012e+87)
(5.0296155e+87 -2.3337206e+86 -5.7154823e+87)
(-1.2473605e+88 -8.8848906e+86 -6.6372279e+87)
(-1.2563365e+88 -1.889041e+87 -8.2806233e+87)
(-4.8435975e+87 2.7983823e+87 -5.3861704e+87)
(-9.4296471e+87 2.3571876e+87 -4.1659402e+87)
(-4.6944953e+87 -7.5557889e+85 -6.915652e+87)
(-1.0442171e+88 -3.5606642e+87 -6.9099108e+87)
(-1.2942707e+88 -4.8623196e+87 -5.1900247e+87)
(-1.9068098e+88 -5.0239313e+87 -3.8758523e+87)
(-1.4364165e+88 -5.3082475e+87 -7.2122786e+87)
(-1.2512182e+88 -5.3525424e+87 -6.3232754e+87)
(-1.6220427e+88 -5.2282842e+87 -2.853741e+87)
(-1.507089e+88 -5.3385813e+87 -4.7741828e+87)
(-2.4293204e+87 -5.3280937e+87 4.2787198e+87)
(-1.641596e+88 -5.594553e+87 -6.5803876e+87)
(-1.2943193e+88 -5.1369236e+87 -5.4058819e+87)
(-1.9511669e+88 -5.7349378e+87 -4.0197089e+87)
(-1.2583455e+88 -5.6768237e+87 -4.2982965e+86)
(-1.9286048e+88 -5.0100339e+87 -4.7243666e+87)
(-7.0513484e+87 -5.9938316e+87 4.8201749e+87)
(-1.7474617e+88 -5.0309219e+87 -5.2164323e+87)
(-1.3374453e+88 -5.3052002e+87 -4.3951442e+87)
(-7.9831139e+87 -2.7375019e+87 -4.3724474e+87)
(-7.9257787e+87 4.1640462e+86 -6.1326458e+87)
(-7.5684935e+87 -2.9779069e+87 -6.7058907e+87)
(-1.5592586e+88 -4.7970573e+87 -5.9078233e+87)
(-1.184871e+88 -5.1020552e+87 -5.1335459e+87)
(-1.2225705e+88 -4.8239189e+87 -4.7598089e+87)
(-1.5340605e+88 -5.5688118e+87 -4.4128421e+87)
(-1.3724781e+88 -2.2691513e+87 -4.7610464e+87)
(-3.1967718e+87 2.1703076e+86 -3.7399808e+87)
(-1.1448192e+88 -8.9311302e+86 -6.9107531e+87)
(-1.4106753e+88 -3.7077463e+87 -6.0704226e+87)
(-1.796051e+88 -4.5490076e+87 -4.6192863e+87)
(-1.2893679e+88 -4.3472093e+87 -4.9252472e+87)
(-1.4065139e+88 -4.8262974e+87 -5.2014686e+87)
(-1.6037971e+88 -4.0133619e+87 -3.8147561e+87)
(-2.146843e+88 1.7352119e+87 -5.4049185e+87)
(-1.7465596e+88 -1.5628495e+87 -2.6981426e+87)
(-5.445804e+87 2.1440374e+87 -8.5331936e+85)
(-9.3130199e+87 -5.6328228e+87 -6.2775271e+86)
(-3.9704416e+87 4.340466e+87 -7.2993078e+87)
(-3.1039089e+87 5.206896e+87 -5.8954672e+87)
(3.5165003e+87 -2.7489204e+87 2.3993048e+87)
(6.356822e+86 -4.1150701e+87 4.0371663e+87)
(-1.4412443e+88 -3.0913574e+87 3.3008596e+86)
(-6.07543e+87 -2.5826799e+87 -2.792665e+87)
(-2.0985426e+88 -6.4448045e+85 -8.3384887e+87)
(-6.8744979e+86 -2.5426159e+87 -7.4149305e+86)
(-6.7820978e+87 -6.5500344e+87 4.691509e+86)
(7.0004564e+87 1.6109279e+86 -5.8103276e+87)
(5.7024863e+87 7.570128e+87 -1.8927548e+87)
(2.547537e+87 3.2814046e+87 -2.0168984e+87)
(-3.1511252e+87 -2.3315448e+87 3.6090961e+85)
(-1.1286493e+87 -4.8107496e+87 9.2434863e+84)
(4.2472952e+87 -7.4524446e+86 -6.5305849e+87)
(-1.1373963e+88 9.7491145e+87 -1.9010312e+87)
(-1.0140955e+88 -5.3946813e+87 3.6971373e+87)
(-1.8069221e+88 -1.4447239e+88 -1.0226727e+88)
(-5.7852642e+87 -1.1800699e+87 -5.4380754e+87)
(1.82912e+87 1.3334187e+87 -9.4779688e+87)
(1.2580599e+88 8.8760136e+87 5.5707995e+87)
(7.6858453e+87 3.3615991e+87 -1.1795011e+87)
(1.4276273e+87 3.6826949e+86 3.9240752e+87)
(-4.2961968e+87 -3.030181e+87 -8.0657791e+86)
(6.3230425e+87 2.5853036e+87 -3.3278175e+87)
(2.0895452e+87 -2.1698887e+87 -4.3043682e+87)
(-1.9642609e+88 -4.2235775e+87 -3.8547663e+87)
(-1.7967447e+88 -3.1792686e+87 -5.0571143e+87)
(-1.8730554e+88 5.8725825e+86 -4.9254665e+87)
(-7.7728479e+87 -8.1027793e+85 -5.6969986e+87)
(-1.7068777e+88 -3.8878192e+87 -6.8908272e+87)
(-3.9697489e+87 1.631426e+87 -3.1610777e+87)
(-8.6957969e+87 -1.7167563e+87 -3.9355019e+87)
(-9.8918959e+87 3.8981448e+86 -6.544059e+87)
(-5.8938678e+87 -2.177103e+87 -6.0157739e+87)
(-1.5054463e+88 -4.6135409e+87 -5.6474558e+87)
(-2.0456021e+88 -5.1372923e+87 -5.6430541e+87)
(-1.5593881e+88 -4.5872561e+87 -4.9585872e+87)
(-6.2424227e+86 -3.5204337e+87 2.274572e+86)
(-1.6289929e+88 -5.4309837e+87 -6.2745038e+87)
(-1.1524008e+88 -4.8924435e+87 -5.1885968e+87)
(-1.8137387e+88 -5.8705727e+87 -4.1747388e+87)
(-9.6792315e+87 -5.0992374e+87 -3.7188849e+86)
(-1.9903386e+88 -5.3144065e+87 -4.9127681e+87)
(-7.8943096e+86 -3.5264406e+87 5.906951e+87)
(-1.6029474e+88 -5.0132602e+87 -5.3601175e+87)
(-1.2979118e+88 -5.0552467e+87 -4.6609331e+87)
(-1.5166168e+88 -5.8468658e+87 -3.0175425e+87)
(-2.0369122e+88 -5.8068045e+87 -4.303129e+87)
(-1.2381373e+88 -5.7015379e+87 1.2300632e+87)
(-1.9918624e+88 -4.9531162e+87 -4.6170967e+87)
(-1.069688e+88 -5.1941402e+87 2.0710801e+87)
(-1.9001936e+88 -4.8424715e+87 -4.3105676e+87)
(-1.5623877e+88 -6.1850656e+87 -3.61871e+87)
(-6.6951968e+87 -2.462273e+86 -4.75976e+87)
(-3.6718924e+87 2.3340739e+87 -3.5282766e+87)
(-1.0316757e+88 -4.0606617e+86 -7.2391392e+87)
(-1.0514501e+88 -3.2915212e+87 -6.1743556e+87)
(-1.7107183e+88 -4.6204262e+87 -4.9106977e+87)
(-1.2511262e+88 -4.6107545e+87 -4.8451449e+87)
(-1.5204872e+88 -5.3350599e+87 -4.6659925e+87)
(-1.7967984e+88 -4.7201589e+87 -3.6679601e+87)
(-1.442243e+88 -1.9742979e+86 -3.4794492e+87)
(-1.4191136e+88 6.6484362e+85 -5.728996e+87)
(-9.9595914e+87 4.4400393e+87 -4.736663e+87)
(-1.3755301e+88 -8.1285773e+86 -6.7509498e+87)
(-1.6184948e+88 -3.0458736e+87 -5.1013881e+87)
(-1.9598991e+88 -4.569292e+87 -4.2981418e+87)
(-1.3805492e+88 -4.5400191e+87 -5.3332474e+87)
(-1.6651268e+88 -4.0078144e+87 -4.1946263e+87)
(-1.6880834e+88 -2.8504377e+87 -3.3350672e+87)
(-1.0830327e+88 -1.9491473e+87 -2.0349251e+87)
(-1.882912e+88 -2.2038987e+87 -7.1542219e+87)
(-3.9818887e+87 -5.7916343e+87 -4.2565431e+86)
(-8.3126131e+87 -3.7707756e+87 3.1335514e+85)
(5.6110111e+86 1.5667205e+87 -5.4440673e+87)
(-3.5858187e+87 7.9326268e+87 -2.5049155e+87)
(-3.0656833e+87 3.7846106e+87 -1.999766e+87)
(-6.0169206e+87 -1.4281689e+87 1.7092139e+87)
(4.0122707e+86 -1.6924222e+87 8.0818229e+85)
(-7.1834748e+86 -2.290185e+87 -5.5235958e+87)
(-9.6839537e+87 -1.2223235e+85 -2.0923617e+87)
(-6.4086419e+87 -5.5877289e+87 4.2837083e+87)
(-1.2481003e+88 -1.1807843e+88 -6.4759602e+87)
(-4.7251726e+87 -2.3465291e+87 -2.0931103e+87)
(2.1246658e+87 4.2405165e+87 -8.8098548e+87)
(1.0512847e+88 1.0105153e+88 5.2847375e+87)
(8.7277072e+87 4.4566708e+87 3.7237597e+86)
(-1.5521576e+87 1.0869942e+87 1.2682938e+86)
(-5.4858386e+87 -9.6714505e+86 -2.7816618e+87)
(6.4478907e+87 1.832009e+87 -5.1602859e+87)
(2.8841859e+87 -4.7727046e+87 -5.1114029e+87)
(-4.4823451e+87 -2.3793026e+87 4.9269393e+87)
(-6.7014158e+87 -8.0725455e+87 -4.5556933e+87)
(-9.8914202e+87 1.6174255e+87 3.2706084e+87)
(5.9317483e+87 -3.3259339e+86 -3.9166584e+87)
(-6.0686443e+87 5.3208478e+86 -1.2144677e+87)
(6.1203647e+87 8.8391025e+87 -1.1460681e+87)
(9.4061254e+86 3.8676851e+87 5.1457042e+86)
(-9.7807555e+87 -1.1223163e+87 7.8361456e+87)
(-5.5239218e+87 -4.47792e+87 -2.0759297e+87)
(4.414189e+87 3.7255599e+87 -1.0146436e+87)
(-8.5386567e+87 -3.1373909e+87 -3.2851056e+87)
(-1.2703081e+88 -3.484522e+86 -1.6445492e+87)
(-2.0794855e+88 -5.3860374e+87 -5.5651563e+87)
(-5.4901223e+87 -5.3436335e+87 -1.0585868e+87)
(-1.2876431e+88 -3.9041773e+87 -3.2866918e+87)
(-2.204471e+88 -2.3986027e+87 -4.8521609e+87)
(-2.0648126e+88 -3.8276803e+87 -5.2955036e+87)
(-1.6177856e+88 -1.982408e+87 -4.9107731e+87)
(-7.1085354e+87 6.576957e+86 -4.9592734e+87)
(-1.2263491e+88 -2.4859661e+87 -5.2349904e+87)
(-1.9801201e+88 -4.6951066e+87 -6.2410703e+87)
(-7.7314446e+87 -1.319473e+87 -2.8327638e+87)
(-1.0893342e+88 9.6998586e+85 -4.6759047e+87)
(-4.1761751e+87 1.8275997e+87 -3.7297005e+87)
(-9.0044562e+87 -1.8588827e+85 -6.9974612e+87)
(-8.0979455e+87 -2.6675191e+87 -5.4554871e+87)
(-1.5901104e+88 -4.7208809e+87 -5.1737797e+87)
(-1.989167e+88 -5.7817444e+87 -5.3359136e+87)
(-6.7121693e+87 -3.6678016e+87 -2.3186849e+87)
(-1.9016001e+88 -5.1181358e+87 -5.2329637e+87)
(-7.3243583e+87 -3.3179642e+87 3.3430659e+87)
(-1.6306298e+88 -4.865229e+87 -5.2941286e+87)
(-1.2480793e+88 -4.7715222e+87 -4.7525433e+87)
(-1.3548178e+88 -6.2176295e+87 -3.2230491e+87)
(-1.8865157e+88 -6.3005315e+87 -4.4573241e+87)
(-4.3160804e+87 -4.7570627e+87 2.7151325e+87)
(-1.9261028e+88 -5.3822579e+87 -4.7860966e+87)
(-6.5083786e+87 -3.1607586e+87 1.6333177e+87)
(-1.8107665e+88 -5.1264346e+87 -4.7700008e+87)
(-1.5615554e+88 -6.0338325e+87 -3.9529751e+87)
(-1.6255359e+88 -6.8402855e+87 -3.7720372e+87)
(-1.5191881e+88 -6.712383e+87 -1.4736579e+87)
(-1.9224552e+88 -5.5837948e+87 -4.8885165e+87)
(-1.2660667e+88 -4.8671606e+87 7.9367912e+86)
(-1.950896e+88 -5.4888192e+87 -4.2853751e+87)
(-2.1779854e+87 -3.3840934e+87 -8.8579556e+86)
(-1.7249987e+88 -5.7842245e+87 -3.8632077e+87)
(-1.8130705e+88 -5.5910458e+87 -4.3348796e+87)
(-8.6670981e+87 2.1267456e+87 -2.3854457e+87)
(-7.4332453e+87 7.408022e+86 -5.1137558e+87)
(-6.4439878e+87 4.9192645e+87 -1.9574735e+87)
(-1.3033519e+88 -3.4776549e+86 -7.2037749e+87)
(-1.4618878e+88 -3.1576253e+87 -5.7448363e+87)
(-1.7933769e+88 -4.832727e+87 -4.9524897e+87)
(-1.4392007e+88 -5.0695778e+87 -4.9036705e+87)
(-1.8750439e+88 -4.4587713e+87 -4.0866077e+87)
(-1.5900275e+88 -2.9129648e+87 -3.3929737e+87)
(-1.9364802e+88 -4.8808273e+86 -4.1622688e+87)
(-1.6677727e+88 4.8478691e+86 -3.8161837e+87)
(-1.5128452e+88 1.4121349e+87 -6.0034397e+87)
(-9.1416144e+87 7.006598e+87 -2.3592125e+87)
(-1.6814993e+88 -2.2800965e+86 -5.6938486e+87)
(-1.6530056e+88 -3.4180976e+87 -4.9672663e+87)
(-1.6552808e+88 -4.5784684e+87 -5.2229072e+87)
(-1.7223762e+88 -3.8909165e+87 -4.7907339e+87)
(-1.718211e+88 -2.5477544e+87 -3.3786297e+87)
(-1.7618337e+88 -2.3998937e+87 -3.2067833e+87)
(-1.2229401e+88 -3.1588696e+87 -2.1044252e+87)
(-6.7594918e+87 -4.1041281e+87 2.4487002e+87)
(-1.4302309e+88 -8.8234925e+87 -5.6736874e+87)
(-5.3531421e+87 -2.3101761e+87 -6.1614236e+84)
(-4.3173516e+87 4.7032012e+87 -4.4102945e+87)
(7.053829e+87 1.0485782e+88 3.3332992e+87)
(5.4048973e+87 4.066264e+87 4.4231918e+86)
(-2.5787067e+87 4.6107595e+87 -2.0868914e+87)
(-6.3991607e+87 1.7332086e+87 -3.1278258e+87)
(3.1241303e+87 9.367384e+86 -4.5926883e+87)
(-1.3600924e+87 -5.0969621e+87 -5.0800188e+87)
(-4.6438444e+87 -7.2385802e+87 4.489353e+87)
(-5.5802811e+87 -8.4212429e+87 -1.9243719e+87)
(-8.6007065e+87 -4.1531444e+87 9.5513074e+87)
(-6.7344539e+85 2.7934072e+87 -1.4289421e+87)
(-5.5099827e+87 4.0725404e+87 -1.1062484e+87)
(1.0981668e+88 1.0433152e+88 -2.274315e+85)
(5.1999323e+87 5.4211892e+87 2.7609716e+87)
(-1.0738651e+87 1.6279117e+87 2.1921017e+87)
(-9.7843442e+87 -7.5906568e+86 -2.2036727e+87)
(5.2609571e+87 3.1594151e+87 -2.8892234e+87)
(9.2892728e+86 -4.003031e+87 -5.1360243e+87)
(-1.9286584e+88 -1.8655688e+87 -2.523155e+87)
(-1.0081956e+88 -9.1423749e+87 5.5525103e+87)
(-5.8027866e+87 -1.9150942e+87 1.373044e+88)
(-2.61276e+87 -2.1316242e+87 -1.8553496e+87)
(-1.143462e+88 -4.861877e+86 -3.4649968e+87)
(-6.5390822e+86 1.2348795e+88 4.5966015e+86)
(-1.0972622e+87 2.8969467e+87 1.407395e+86)
(-1.1634139e+88 3.0135295e+87 5.0052598e+87)
(-1.170829e+88 -3.1068678e+87 5.6185432e+87)
(-1.4317826e+88 -7.2740943e+87 6.8895743e+86)
(1.6852685e+87 -4.8568785e+87 2.2647336e+87)
(-6.3212808e+87 -8.057503e+87 -6.1307144e+87)
(4.7080466e+87 5.2615762e+87 -2.4218068e+87)
(-2.5492127e+88 -1.4371172e+88 -2.3491741e+87)
(-2.1943595e+88 -5.6954082e+87 -5.910924e+87)
(-5.2782952e+87 -3.6060975e+87 -2.1727633e+87)
(-1.5991138e+88 -3.6615007e+87 -3.7841486e+87)
(-4.9736237e+87 -2.7879921e+87 7.182573e+86)
(-1.2108126e+88 -2.8377555e+87 -6.7275737e+86)
(-1.201225e+88 -3.3615788e+87 -1.6808189e+87)
(-1.6847393e+88 6.1131959e+86 -3.2710592e+87)
(-2.0625473e+88 -2.9327665e+87 -4.7604202e+87)
(-2.1295054e+88 -4.9624359e+87 -5.61755e+87)
(-1.3000384e+88 -3.6288793e+87 -4.4488909e+87)
(-6.8732727e+87 8.6220166e+86 -4.0772788e+87)
(-1.5053784e+88 -5.2118081e+86 -6.334989e+87)
(-1.2733903e+88 -2.5228181e+87 -4.7610522e+87)
(-2.1995709e+88 -5.3367074e+87 -6.0717445e+87)
(-9.0977773e+87 3.0011253e+87 -1.0516696e+87)
(-8.0121898e+87 5.839547e+86 -1.8117132e+87)
(-8.2791293e+87 1.9055819e+87 -4.69818e+87)
(2.280008e+87 9.6041126e+87 1.0532355e+86)
(-1.4312026e+88 -2.9914591e+86 -7.2650812e+87)
(-1.3230469e+88 -3.0959162e+87 -5.8174167e+87)
(-1.4582739e+88 -5.1335108e+87 -4.7686734e+87)
(-1.1894737e+88 -5.6094663e+87 -3.6523589e+87)
(-1.9807845e+88 -6.390393e+87 -5.0840056e+87)
(-4.5620822e+87 -3.9763827e+87 2.1131958e+86)
(-1.923588e+88 -5.5335316e+87 -4.976211e+87)
(-1.029555e+88 -1.3448397e+87 -6.694938e+86)
(-1.7024396e+88 -4.6136457e+87 -5.1105344e+87)
(-1.4411912e+88 -5.5332668e+87 -4.2127225e+87)
(-1.4248178e+88 -7.5879425e+87 -3.5830694e+87)
(-9.6095388e+87 -6.7898252e+87 -3.3650887e+86)
(-1.8726316e+88 -6.3401381e+87 -4.6542455e+87)
(-6.3888438e+87 -3.6895448e+87 2.4903144e+87)
(-1.853036e+88 -5.9936888e+87 -4.4814055e+87)
(-8.2333433e+86 -8.4347754e+86 1.3120462e+87)
(-1.7003042e+88 -5.9616852e+87 -4.1115116e+87)
(-2.030928e+88 -5.3391016e+87 -3.768315e+87)
(-1.5725316e+88 -7.7564724e+87 -1.7582752e+87)
(-1.6724885e+88 -6.2379096e+87 -4.5574995e+87)
(-1.5862438e+88 -4.8414968e+87 -1.8287587e+87)
(-1.866988e+88 -5.5532285e+87 -4.870648e+87)
(-2.7468783e+87 -4.9091657e+87 -7.3670238e+86)
(-1.9685256e+88 -6.4356152e+87 -3.8878497e+87)
(-2.3859395e+87 -4.4625768e+87 -2.2915231e+87)
(-1.830374e+88 -6.4915396e+87 -3.402004e+87)
(-1.4547696e+88 -3.1117564e+87 -3.2332023e+87)
(-1.3386723e+88 1.9265047e+86 -3.79079e+87)
(-9.696115e+87 3.4841302e+87 -3.2894308e+87)
(-1.328557e+88 1.582249e+87 -6.1218042e+87)
(-8.8834995e+86 3.9318237e+87 3.1881895e+87)
(-1.5783405e+88 -3.4097608e+85 -6.3344077e+87)
(-1.3298877e+88 -3.387956e+87 -5.6366288e+87)
(-1.6457301e+88 -4.9862795e+87 -4.758991e+87)
(-1.9077057e+88 -4.3670928e+87 -4.8537891e+87)
(-1.620396e+88 -2.8198997e+87 -3.5139777e+87)
(-1.763883e+88 -2.3270067e+87 -3.4378392e+87)
(-1.909091e+88 -5.4745027e+86 -4.2429383e+87)
(-1.8722874e+88 3.234201e+86 -4.8344534e+87)
(-1.098675e+88 7.0776117e+87 -2.9736775e+87)
(-1.6025219e+88 2.1089659e+87 -5.5715727e+87)
(-6.9830001e+87 5.6415749e+87 -2.5091138e+87)
(-1.8554132e+88 -3.046416e+86 -5.5751455e+87)
(-2.001129e+88 -3.4799217e+87 -5.1018014e+87)
(-1.8257649e+88 -3.0508802e+87 -5.3950398e+87)
(-1.8372689e+88 -2.8166958e+87 -3.4067555e+87)
(-1.8430633e+88 -2.2230689e+87 -3.1367612e+87)
(-1.6010103e+88 -1.5965809e+87 -2.3179764e+87)
(-7.6973951e+87 -6.8198719e+87 1.9597238e+87)
(-8.3894607e+87 -7.8733797e+87 -1.1584592e+87)
(-8.3159503e+87 -2.688763e+87 1.0224591e+88)
(-9.8181883e+87 1.5443508e+87 -4.6108066e+86)
(-6.8763177e+87 4.3223808e+87 -3.2630008e+86)
(1.0110268e+88 1.0652273e+88 5.0627767e+86)
(-2.2472663e+87 6.2800103e+87 6.0399546e+87)
(-8.9576281e+86 4.1850997e+87 -3.8489658e+86)
(-1.1062349e+88 -7.2156399e+85 -5.6230585e+87)
(4.9192428e+87 3.1181791e+87 -2.3930123e+87)
(-5.7765229e+87 -3.056106e+87 -5.7565733e+87)
(-2.3564867e+88 -6.903324e+87 -3.7429685e+87)
(-7.7160635e+87 -6.0267734e+87 6.9696085e+87)
(-3.2133191e+87 -2.9228642e+87 1.2906694e+88)
(-4.147836e+87 1.6686941e+87 3.6297209e+87)
(-5.7336726e+87 2.4983319e+87 -1.7508475e+87)
(6.1235084e+86 1.4228617e+88 2.3168938e+87)
(-1.3439272e+87 3.6220711e+87 -1.9054724e+87)
(-7.6198845e+87 5.7417858e+87 6.5467214e+87)
(-2.2226536e+87 9.7201295e+85 4.7340186e+87)
(-6.3222917e+87 -2.9104779e+87 -2.160983e+86)
(-5.8017626e+87 -3.5163047e+87 7.4525164e+86)
(-2.6233633e+87 -2.9382298e+87 -8.4248631e+87)
(1.9907025e+87 4.8103465e+87 -2.5619951e+87)
(-1.3074423e+88 -6.9697205e+87 -1.3305793e+87)
(-9.9177796e+87 -8.9125727e+87 6.9655091e+87)
(8.7526639e+87 -5.9949605e+87 -2.6481564e+87)
(-1.7713038e+88 -5.7279697e+87 1.3210213e+88)
(-1.4189637e+88 1.7109297e+88 1.6590371e+87)
(-4.936473e+87 5.8140893e+87 -6.1205502e+87)
(-8.1722647e+87 -1.6658689e+87 4.9841578e+87)
(-5.340418e+87 -5.708327e+87 -4.6411805e+87)
(-1.9413873e+88 -1.2641361e+88 -2.9445225e+87)
(3.4269164e+87 -7.8396414e+87 1.2251045e+87)
(1.9794667e+87 -6.0748832e+87 1.0369864e+88)
(2.1368102e+87 -4.5251127e+87 -6.5109012e+86)
(9.1408339e+87 1.8013992e+88 -5.1713045e+87)
(2.228224e+87 -1.2100861e+88 -4.486046e+87)
(-3.5511059e+87 -3.4180368e+87 -9.2094145e+86)
(-6.3757353e+87 -4.0061683e+87 -3.0814438e+87)
(-1.9151453e+88 -3.6408673e+87 -4.2180014e+87)
(-2.4970016e+88 -6.6039835e+87 -6.1553874e+87)
(-1.3727449e+88 -2.2073348e+87 -2.9042881e+87)
(-5.8997561e+87 -3.5855047e+87 -2.3604617e+87)
(-1.6140161e+88 -2.0810135e+87 -1.8854964e+87)
(-5.1954474e+87 9.3382306e+85 -2.3994986e+87)
(-9.8543424e+87 -1.444504e+87 3.2160208e+87)
(-1.2491392e+88 -1.9654899e+87 2.707878e+86)
(-1.6233977e+88 -4.5796066e+87 -1.7319822e+87)
(-1.6219245e+88 4.9166699e+86 -2.1548844e+87)
(-1.8566123e+88 6.9900882e+86 -3.1589802e+87)
(-2.1469662e+88 -3.7333741e+87 -5.5496964e+87)
(-2.1663371e+88 -5.8665622e+87 -5.5986215e+87)
(-1.4848501e+88 -7.96572e+86 8.3405171e+86)
(-1.5279341e+88 1.0269114e+87 -1.4060166e+87)
(-7.947638e+87 2.7614076e+87 -4.128536e+87)
(-2.3297947e+88 -1.4897572e+87 -7.0827791e+87)
(-1.3992648e+88 -2.585966e+87 -4.854876e+87)
(-2.0897075e+88 -6.0700365e+87 -6.0734185e+87)
(3.2824998e+87 9.7006887e+87 2.1507115e+86)
(-1.3493811e+88 1.3255333e+87 -2.0787948e+87)
(3.122941e+87 9.6894171e+87 -1.1505359e+87)
(-1.1256672e+88 2.2996363e+87 -5.2835392e+87)
(-1.744097e+87 6.792413e+87 6.2256698e+87)
(-1.4967537e+88 -2.3508856e+86 -6.4254036e+87)
(-1.1964888e+88 -3.3822801e+87 -5.3433866e+87)
(-1.7163855e+88 -5.4571257e+87 -4.5183289e+87)
(-1.4174605e+88 -7.5378346e+87 -3.6202431e+87)
(-8.2958774e+87 -5.8564354e+87 -1.3463211e+87)
(-1.9195619e+88 -6.2386512e+87 -4.8587696e+87)
(-9.5433466e+87 -2.7273628e+87 -4.1789275e+86)
(-1.7810076e+88 -5.6598787e+87 -4.6071644e+87)
(5.2038594e+86 2.4158673e+87 1.9885504e+87)
(-1.6132166e+88 -5.1357919e+87 -4.171414e+87)
(-2.1527475e+88 -5.2874808e+87 -3.5347888e+87)
(-1.3286655e+88 -8.6030095e+87 -1.2069247e+87)
(-1.5068055e+88 -7.061581e+87 -4.3608588e+87)
(-1.0946777e+88 -4.5149895e+87 1.2820353e+86)
(-1.8362336e+88 -5.9398109e+87 -4.7298718e+87)
(-2.6732968e+86 -2.3073733e+87 -1.1795581e+87)
(-2.1057328e+88 -6.236717e+87 -4.3528745e+87)
(-2.7281671e+87 -2.2568859e+87 -2.0303125e+87)
(-1.860567e+88 -6.4702093e+87 -3.7912376e+87)
(-1.5166852e+88 -3.6559879e+87 -3.3085783e+87)
(-1.5394466e+88 -7.2197802e+87 -2.7417591e+87)
(-1.369389e+88 -6.2814919e+87 -1.3560064e+87)
(-1.790601e+88 -5.6473527e+87 -4.7471779e+87)
(-1.5683887e+88 -4.4982477e+87 -3.9873792e+87)
(-1.7668239e+88 -5.8368583e+87 -5.3931535e+87)
(-1.2949853e+88 -5.4254089e+87 -3.3813923e+87)
(-1.5629938e+88 -3.5252613e+87 -4.5892025e+87)
(-1.6873076e+88 -2.1838059e+87 -3.4249464e+87)
(-1.3924988e+88 8.1340646e+86 -4.3035337e+87)
(-1.5550644e+88 5.1578661e+86 -5.2516452e+87)
(-9.0787497e+87 4.6765543e+87 -2.3308834e+87)
(-1.3467498e+88 2.3498581e+87 -6.0743036e+87)
(-7.502766e+87 3.8147731e+87 1.3363012e+87)
(-1.7154016e+88 -2.9216605e+86 -6.0788177e+87)
(-2.0222201e+88 -3.9442944e+87 -5.3020564e+87)
(-2.0707466e+88 -3.4290677e+87 -5.1669888e+87)
(-1.7044466e+88 -3.4616516e+87 -3.4159515e+87)
(-1.8058739e+88 -2.0607661e+87 -3.2413307e+87)
(-1.6616306e+88 -1.5584157e+87 -2.5743209e+87)
(-1.9122192e+88 -1.1277257e+87 -4.1493337e+87)
(-1.9614353e+88 -1.2123988e+87 -2.4775165e+87)
(-1.6361991e+88 2.0654425e+87 -5.4503108e+87)
(-7.3862198e+87 4.5076719e+87 -4.8694774e+87)
(-1.6740967e+88 6.1033982e+86 -5.4122872e+87)
(-1.8847152e+88 -1.5147571e+87 -5.5684928e+87)
(-1.7842114e+88 -4.2112298e+87 -4.054495e+87)
(-1.7266629e+88 -1.8015912e+87 -4.4255557e+87)
(-1.9638917e+88 -2.2989749e+87 -3.1724496e+87)
(-1.6848876e+88 -1.6376314e+87 -2.2634832e+87)
(-1.4694401e+88 -1.236221e+87 -1.6711975e+87)