/*--------------------------------*- C++ -*----------------------------------*\
  =========                 |
  \\      /  F ield         | OpenFOAM: The Open Source CFD Toolbox
   \\    /   O peration     | Website:  https://openfoam.org
    \\  /    A nd           | Version:  7
     \\/     M anipulation  |
\*---------------------------------------------------------------------------*/
FoamFile
{
    version     2.0;
    format      ascii;
    class       volScalarField;
    location    "9000";
    object      k;
}
// * * * * * * * * * * * * * * * * * * * * * * * * * * * * * * * * * * * * * //

dimensions      [0 2 -2 0 0 0 0];

internalField   nonuniform List<scalar> 
33730
(
1.5223271
1.5201732
1.5206555
1.5204015
1.5207956
1.5224193
1.5229542
1.5225876
1.5227381
1.5205433
1.5202214
1.5200513
1.5202539
1.5206727
1.5204837
1.5206199
1.5207809
1.5204484
1.5219651
1.5204505
1.5201351
1.5207999
1.5217785
1.5201864
1.5199859
1.5205271
1.5203741
1.5233176
1.5221482
1.5219452
1.5228771
1.5231669
1.5236739
1.5228752
1.5232314
1.5231765
1.5222796
1.5223034
1.5234054
1.5234142
1.5237341
1.5226726
1.5231814
1.520889
1.520327
1.5209194
1.5203488
1.5205096
1.5207745
1.5201999
1.5200487
1.5204832
1.5209868
1.5204664
1.5209692
1.5210131
1.5210181
1.5206329
1.5205868
1.5203339
1.5202408
1.5214904
1.5214896
1.5215835
1.5201914
1.5200885
1.5204662
1.5215261
1.5200035
1.5200523
1.5198802
1.5201778
1.520182
1.5198086
1.5200315
1.5198699
1.5197944
1.519938
1.5200194
1.5202189
1.5203734
1.5203661
1.5205066
1.5218556
1.5215417
1.5215303
1.5203709
1.5203957
1.5202603
1.5201007
1.5206021
1.5206566
1.5205121
1.520494
1.5218614
1.5216259
1.5234891
1.5223388
1.5220956
1.5230328
1.5232753
1.5234717
1.523043
1.5230518
1.5236614
1.5236993
1.5238192
1.523768
1.5235719
1.5230585
1.5229086
1.5225404
1.5238529
1.5237982
1.5230664
1.5230113
1.5233492
1.5224218
1.5224774
1.5235682
1.5236341
1.5234993
1.5235347
1.5237731
1.5237704
1.5237686
1.5238725
1.5238706
1.5234425
1.5237917
1.5224258
1.5228918
1.5238876
1.5238929
1.5230444
1.5230498
1.520631
1.5213372
1.5213582
1.5206328
1.5213628
1.5213737
1.5206609
1.5206498
1.5208606
1.5211353
1.5202797
1.5204104
1.5212222
1.5212608
1.5205161
1.52054
1.5214048
1.5213987
1.5207348
1.5207378
1.5213814
1.5213952
1.5207187
1.5207179
1.5213745
1.520823
1.5208194
1.5212875
1.5214012
1.5214005
1.5207939
1.520791
1.5205836
1.5205023
1.5205889
1.5205253
1.5214571
1.5214545
1.5205243
1.5204457
1.5204138
1.5205111
1.5201926
1.5214601
1.5214609
1.5214648
1.521463
1.521463
1.5214761
1.5214639
1.5214961
1.5214895
1.5215798
1.5214846
1.5204269
1.5204073
1.520426
1.5204405
1.5203646
1.5203448
1.5203232
1.5203478
1.5200542
1.5199245
1.5200663
1.5214774
1.5215738
1.5214834
1.5215749
1.5201083
1.5202812
1.5201349
1.5202422
1.5203489
1.5203919
1.5203678
1.5203681
1.5201198
1.5202745
1.5201488
1.5202412
1.5203839
1.5204087
1.5203774
1.5203576
1.5200556
1.5198596
1.519326
1.5194339
1.5197916
1.5196649
1.5197716
1.5199037
1.51965
1.5196165
1.5197128
1.5197601
1.5198887
1.5198195
1.5199369
1.5200105
1.520107
1.5201113
1.5202165
1.5202126
1.5200538
1.520125
1.5200355
1.5201421
1.5202113
1.5202543
1.5202361
1.5202332
1.5203022
1.5203249
1.5203151
1.5203342
1.5204745
1.5204734
1.520462
1.520491
1.5205694
1.5205661
1.5206184
1.5206364
1.5204925
1.5204828
1.5205089
1.5204968
1.5206515
1.520594
1.5205916
1.5206383
1.5215649
1.5215418
1.521473
1.5214612
1.5215554
1.5215645
1.5214717
1.5214657
1.5215465
1.521548
1.5207124
1.5207166
1.5207472
1.5207305
1.5205996
1.5206298
1.5203607
1.520508
1.5208532
1.5208554
1.5208776
1.5208712
1.5208114
1.5208056
1.5207909
1.520789
1.5218705
1.5216725
1.5236139
1.5237359
1.5237746
1.5223511
1.5221179
1.5231575
1.5230826
1.5233746
1.5235081
1.5230642
1.5238406
1.5237924
1.5235948
1.5235359
1.5235702
1.5236582
1.5229084
1.5231747
1.5232662
1.5228331
1.5228011
1.5227445
1.5236129
1.5235071
1.5232627
1.522613
1.5227815
1.5222973
1.5238593
1.5238518
1.5238576
1.5238686
1.523818
1.5237951
1.5238333
1.5237991
1.5228896
1.5228778
1.5237861
1.5237595
1.5228593
1.5228295
1.5237435
1.5236983
1.5234901
1.5235803
1.5237306
1.5224277
1.5224751
1.5236933
1.5238431
1.523844
1.5236026
1.5238092
1.5238935
1.5238955
1.5235341
1.523707
1.5237259
1.5234236
1.5238294
1.5238467
1.5238323
1.5238619
1.523173
1.5222073
1.5226437
1.5235762
1.5227632
1.5228085
1.523717
1.523753
1.5239049
1.5239097
1.5239045
1.5239123
1.5239047
1.5238989
1.5239079
1.523899
1.5238127
1.5228931
1.5228876
1.5238049
1.5228793
1.5228744
1.5238081
1.5237913
1.5221956
1.5221624
1.5208836
1.5208865
1.5222044
1.5222147
1.5208956
1.5208924
1.5222146
1.5222012
1.5209051
1.5209017
1.5221863
1.5222144
1.5209253
1.5209224
1.5218105
1.5214773
1.5204599
1.5205598
1.5220285
1.521987
1.5206816
1.5206929
1.5220858
1.5220608
1.5207678
1.5207716
1.5221013
1.522104
1.5208044
1.520808
1.5222199
1.522214
1.5209655
1.5209616
1.5221717
1.5222063
1.5209708
1.5209667
1.5221902
1.522174
1.5209446
1.5209424
1.5222058
1.5222187
1.5209518
1.5209484
1.5220372
1.5220779
1.5210032
1.5209947
1.5217773
1.5219184
1.5209785
1.5209739
1.5221437
1.5221452
1.5209952
1.5209902
1.5221363
1.5221603
1.5209943
1.5209888
1.519302
1.5210953
1.5210695
1.521053
1.5210247
1.5210878
1.5210421
1.5210893
1.5210366
1.5210955
1.5210358
1.5210683
1.5210091
1.52109
1.5210263
1.5210877
1.5210187
1.5214882
1.5214668
1.5215021
1.521494
1.521469
1.5214953
1.5214875
1.5214667
1.5213945
1.5214048
1.5210523
1.5210355
1.5210379
1.5210113
1.5210361
1.5210206
1.5210442
1.5210196
1.5209233
1.5209312
1.5208241
1.5208413
1.5203687
1.5209514
1.5209467
1.5208826
1.5208619
1.5204597
1.5203485
1.5204531
1.5214749
1.5215181
1.521509
1.5214808
1.5215107
1.5215015
1.52147
1.521473
1.5213734
1.5213638
1.5213822
1.5213542
1.5213811
1.521396
1.5213705
1.5213869
1.5215214
1.5214931
1.5215159
1.5214839
1.5213644
1.5213575
1.5213423
1.5213355
1.5215122
1.5214683
1.5214965
1.5214695
1.5214948
1.5213437
1.5215355
1.5215358
1.5215373
1.5215369
1.5215029
1.521477
1.5214737
1.5214993
1.5210682
1.521084
1.5210149
1.5210244
1.5210551
1.5210035
1.5210555
1.5209981
1.5210553
1.5209837
1.5210545
1.5209779
1.5210671
1.5209946
1.5210805
1.5210024
1.5210216
1.5209972
1.5210395
1.521009
1.5209041
1.520919
1.5208271
1.5208084
1.5202956
1.5208837
1.5208846
1.5207885
1.5207825
1.5202778
1.5210043
1.5209833
1.521007
1.5209796
1.5202666
1.5202865
1.5202274
1.5202099
1.5202209
1.5202368
1.5202809
1.5203018
1.5203964
1.5203866
1.5214785
1.5214755
1.5215058
1.5215048
1.5215405
1.5215379
1.5215422
1.5215441
1.5215057
1.5214789
1.5214783
1.5215035
1.521541
1.5215388
1.52154
1.5215414
1.5185486
1.5186557
1.5184535
1.5185189
1.5189304
1.518955
1.5190236
1.5204552
1.5206025
1.5203649
1.5204908
1.52076
1.5208006
1.5206693
1.5206985
1.5205436
1.5204532
1.5206877
1.52058
1.5206863
1.5205873
1.5207212
1.5206118
1.520935
1.5208452
1.5209328
1.5208388
1.5209725
1.5210064
1.5209021
1.5209272
1.5209696
1.5208975
1.5209654
1.5208893
1.520941
1.5208533
1.5209716
1.520875
1.5206207
1.5207615
1.5205314
1.5206556
1.5208607
1.5207881
1.5209102
1.5208262
1.5206744
1.5205979
1.520806
1.520718
1.5208257
1.5207337
1.5208707
1.5207675
1.5208716
1.5208707
1.520781
1.520777
1.5208811
1.5207932
1.5209077
1.5208105
1.5208116
1.5207161
1.5207291
1.5208328
1.5207977
1.5207989
1.5207004
1.5206988
1.5197949
1.5198793
1.5196848
1.5197295
1.5196149
1.5196954
1.5195944
1.5195247
1.5194859
1.5196008
1.5201107
1.5200911
1.5201014
1.5201184
1.5199309
1.5199167
1.5200165
1.5200141
1.5200676
1.5199777
1.5199898
1.5200715
1.5201711
1.5201509
1.5201609
1.5201789
1.5199341
1.5198343
1.5198621
1.5199558
1.519794
1.5197962
1.519873
1.5198805
1.5199476
1.5199317
1.5199482
1.5199647
1.5200052
1.5200336
1.5200249
1.5200508
1.5201393
1.5201233
1.5201532
1.5201678
1.5200423
1.5200653
1.5200517
1.5200777
1.5201929
1.5200997
1.5201312
1.5202252
1.5202954
1.5201886
1.5202251
1.5203219
1.5207415
1.5206819
1.5208515
1.5207849
1.5207229
1.5206443
1.5208463
1.5207564
1.5209457
1.520892
1.5208162
1.5208584
1.5209431
1.5208855
1.5208345
1.5208812
1.5207031
1.5206765
1.5208014
1.5207685
1.5206498
1.5205906
1.5206981
1.5207529
1.5205881
1.5206693
1.5205691
1.5204949
1.5208264
1.5208068
1.5208868
1.5208578
1.5207069
1.5207136
1.5208179
1.5208092
1.52094
1.5209834
1.5209187
1.5209535
1.5209441
1.5209218
1.5209376
1.5209113
1.5208138
1.5208526
1.5207512
1.5207072
1.5209988
1.5209453
1.5209924
1.5209348
1.5209966
1.5209445
1.5210363
1.5209755
1.5209953
1.5210011
1.520926
1.5209161
1.5210012
1.5209278
1.5210376
1.5209558
1.5210007
1.5210119
1.520918
1.5209235
1.5210238
1.5209551
1.5210229
1.5209496
1.5209883
1.5209891
1.5209064
1.5209014
1.5210352
1.5209661
1.5210474
1.5209727
1.521063
1.521001
1.521059
1.5209926
1.5210316
1.5209584
1.5210266
1.5209498
1.5210387
1.5209703
1.5210172
1.5209494
1.5210682
1.5210438
1.5209881
1.521012
1.5209299
1.5209294
1.5208434
1.5208474
1.5208623
1.5207779
1.5208624
1.5207755
1.5209424
1.5208603
1.5209518
1.5208643
1.5208765
1.5207929
1.5208838
1.5207957
1.5209888
1.5209231
1.5209794
1.5209059
1.5209741
1.5208983
1.5208458
1.520919
1.5209146
1.5208401
1.5208683
1.520935
1.520858
1.5215186
1.5215555
1.5214895
1.5215597
1.5214906
1.52147
1.5214614
1.5215012
1.5214987
1.521454
1.5214472
1.5214927
1.5214904
1.5215275
1.5215229
1.5215299
1.5215339
1.5215352
1.5215313
1.5215373
1.5215404
1.5214543
1.5214482
1.5214854
1.5214903
1.5214448
1.5214437
1.5214849
1.5214854
1.5215123
1.5215122
1.5215165
1.5215148
1.5215191
1.5215112
1.5215165
1.5215235
1.5215416
1.5215429
1.5215407
1.5209387
1.5209432
1.5209518
1.5209471
1.5209772
1.5209823
1.5209565
1.5209591
1.5208277
1.5208223
1.5208616
1.5208647
1.5205132
1.5206224
1.520741
1.5207517
1.521032
1.5210398
1.5210349
1.5210399
1.5210432
1.5210335
1.5210126
1.5210057
1.5210156
1.521022
1.521012
1.521015
1.5209978
1.5210027
1.5209926
1.5209931
1.522282
1.5218248
1.5226868
1.5226072
1.5216577
1.5223066
1.5225748
1.5237017
1.5237362
1.5237701
1.5238304
1.5237935
1.5232595
1.5231055
1.5233758
1.523121
1.5234731
1.5234646
1.5235083
1.523606
1.5235382
1.5235653
1.5236454
1.5229818
1.523145
1.5232493
1.5232103
1.5228785
1.5228389
1.5238331
1.5238392
1.5238598
1.5238675
1.5238605
1.5238701
1.5237822
1.5238009
1.5238316
1.5238011
1.5238353
1.5238018
1.5235882
1.5236123
1.5235752
1.5235671
1.5236529
1.5236688
1.5236919
1.5236682
1.5232952
1.5232404
1.5232509
1.5233447
1.5228894
1.5228564
1.5226632
1.5227353
1.5229406
1.5234746
1.5234396
1.5229229
1.5229203
1.523406
1.5233685
1.5228998
1.5236771
1.5237056
1.5236798
1.523715
1.5235803
1.5236267
1.5235796
1.5236344
1.5233759
1.523259
1.5234078
1.523269
1.5228245
1.5232417
1.5231154
1.5227445
1.5229546
1.5229156
1.5226271
1.5226157
1.5225318
1.5228561
1.5225671
1.5223269
1.5238613
1.5238624
1.5238598
1.5238601
1.5238682
1.5238712
1.5238724
1.5238682
1.5238355
1.5238394
1.5238435
1.5238374
1.5237969
1.5238063
1.5238118
1.5237956
1.5230104
1.5235986
1.5235881
1.5230166
1.5230292
1.5235857
1.5235912
1.5230315
1.5238673
1.523873
1.5238586
1.5238672
1.5238592
1.523863
1.5238495
1.5238547
1.5230295
1.5235853
1.5235696
1.5230264
1.5230052
1.5235451
1.5235346
1.5229846
1.5238379
1.5238456
1.5238286
1.5238391
1.5237948
1.523815
1.5237866
1.5238094
1.5221229
1.5222771
1.5221923
1.5235932
1.5237222
1.5235973
1.5236609
1.5238043
1.5237787
1.5238376
1.5238395
1.5238953
1.523893
1.5237228
1.5236315
1.523768
1.5236161
1.5235269
1.5237518
1.5238214
1.523812
1.5238487
1.5238646
1.523846
1.5238667
1.5238913
1.5238961
1.523907
1.5239153
1.5239127
1.5239033
1.5239007
1.5238982
1.5239177
1.5239209
1.5239131
1.5239176
1.5237537
1.5237481
1.5237743
1.5237835
1.5235896
1.5234627
1.5233812
1.5235944
1.5238525
1.523845
1.5238425
1.5238546
1.5238691
1.523869
1.5238726
1.5238758
1.5233201
1.5235844
1.5235379
1.5232042
1.5232083
1.5228573
1.5221762
1.5225709
1.5234883
1.5234039
1.522788
1.5228858
1.5237861
1.5237408
1.5237743
1.5237087
1.5235496
1.5235448
1.5229297
1.5229491
1.5235802
1.5235625
1.522959
1.522973
1.5238541
1.5238401
1.5238418
1.5238251
1.5238764
1.5238687
1.5238665
1.5238565
1.5239141
1.5239106
1.5239073
1.5239128
1.5239148
1.5239167
1.5239166
1.5239149
1.5239106
1.5239118
1.5239088
1.5239107
1.5239024
1.5239
1.5239014
1.5238973
1.5239106
1.5239045
1.523891
1.5238981
1.5236222
1.5236213
1.5230195
1.5230397
1.5230443
1.523619
1.5236254
1.5230464
1.5239127
1.523913
1.5239004
1.5239013
1.5230422
1.5236259
1.5236196
1.5230488
1.5230407
1.5236113
1.5236152
1.5230293
1.5239069
1.5239096
1.5238951
1.5238992
1.5238949
1.5239004
1.5238847
1.5238904
1.5239273
1.5223227
1.522288
1.5223314
1.5223449
1.5223389
1.522326
1.5223126
1.5223438
1.5219537
1.5216145
1.5221695
1.5221324
1.5222178
1.5221914
1.5222353
1.5222396
1.5223369
1.5223309
1.522289
1.5223282
1.5223124
1.5222931
1.5223265
1.5223441
1.5221415
1.5221824
1.5220145
1.5222569
1.5222595
1.5222452
1.5222764
1.5217651
1.5216474
1.5216227
1.5217443
1.5215995
1.5216303
1.5215332
1.5215021
1.5215277
1.5216587
1.5215528
1.5216363
1.5215149
1.5214259
1.5215458
1.521456
1.5216748
1.5218188
1.5216939
1.5218046
1.5217065
1.5215931
1.5215749
1.5216916
1.5216808
1.5218113
1.5216855
1.5218101
1.5216989
1.5215843
1.5216983
1.5215812
1.521565
1.5214894
1.5214651
1.5215421
1.521424
1.5214821
1.5215049
1.5214006
1.5214688
1.5214393
1.5214045
1.5213762
1.5213484
1.5213909
1.5213218
1.5214192
1.5215096
1.5216068
1.5215262
1.5215925
1.5214574
1.521544
1.5215304
1.5214414
1.5215997
1.5215156
1.5215987
1.5215171
1.5214478
1.5215354
1.5215371
1.5214464
1.5216336
1.5214756
1.5215955
1.5216053
1.5214739
1.5216149
1.5216245
1.5214783
1.521341
1.5213431
1.5213451
1.5221269
1.5221117
1.521926
1.5219019
1.5219086
1.5217603
1.5217357
1.5219288
1.5219222
1.5218942
1.521725
1.5217572
1.5217625
1.5217312
1.5216229
1.5215907
1.5219696
1.5222007
1.5219878
1.5221927
1.5219916
1.5218131
1.5217935
1.5219788
1.5219713
1.5221924
1.5219794
1.5221906
1.5219839
1.5218047
1.521981
1.5217981
1.5224627
1.5224614
1.522204
1.5221873
1.5221952
1.5221854
1.5224549
1.5224538
1.522462
1.5207628
1.5224552
1.5207783
1.5207883
1.5208081
1.5223753
1.5223706
1.5221305
1.522109
1.5219218
1.5218922
1.522124
1.5221078
1.5221228
1.5208312
1.5223772
1.5208092
1.520835
1.5208655
1.5207436
1.5207729
1.5207902
1.5207599
1.520825
1.5208219
1.520795
1.520859
1.5214729
1.5215643
1.521572
1.5214742
1.5215798
1.521588
1.5214729
1.5214728
1.5213359
1.521337
1.5213167
1.5213382
1.5213397
1.52155
1.521479
1.521559
1.5214763
1.5213353
1.5213183
1.521334
1.5213202
1.5215749
1.521548
1.521505
1.5214449
1.5214425
1.521349
1.521499
1.5213467
1.5213121
1.5213289
1.5213214
1.5212993
1.5213031
1.5213079
1.5213047
1.5213189
1.5213134
1.5213558
1.5214844
1.5214929
1.5213527
1.5217024
1.5218484
1.521715
1.5218407
1.5218486
1.521845
1.5217142
1.5217147
1.5217294
1.5216079
1.5217213
1.5215959
1.521734
1.5216082
1.5216108
1.521729
1.5218364
1.5217035
1.5218286
1.5216907
1.5217098
1.5215843
1.5217175
1.5215961
1.5217039
1.5218378
1.5217021
1.5218433
1.5217174
1.5215938
1.5215974
1.5217243
1.5216112
1.521525
1.5215146
1.5216041
1.5215444
1.5214513
1.5214411
1.5215378
1.5216102
1.5216186
1.5215226
1.5215276
1.5215435
1.5215526
1.5214488
1.5214536
1.5215268
1.5216236
1.5215375
1.5216159
1.521464
1.5215575
1.5215502
1.5214535
1.5215432
1.5216246
1.5215396
1.5216315
1.5214671
1.5215601
1.521567
1.5214704
1.5222532
1.5222479
1.5220282
1.5220141
1.5220243
1.5218417
1.5218281
1.5220326
1.5222394
1.5222397
1.5220148
1.5220191
1.5220242
1.5220255
1.5218376
1.5218355
1.5225293
1.5225291
1.522256
1.5222418
1.5222414
1.5222333
1.5225093
1.5225081
1.5225086
1.5207577
1.5225287
1.5207449
1.5207803
1.5207909
1.5225211
1.5225217
1.5222449
1.5222313
1.5222494
1.5222426
1.52253
1.5225302
1.5225279
1.5207224
1.5225202
1.5207181
1.5207508
1.5207575
1.5220018
1.5222426
1.5220158
1.5222377
1.52202
1.5218302
1.5218157
1.5220125
1.5220144
1.5222482
1.5220178
1.5222498
1.5220234
1.5218301
1.5220261
1.5218292
1.5207043
1.5207398
1.5207437
1.5207082
1.5207328
1.5207687
1.52077
1.5207378
1.5207397
1.5207526
1.5207163
1.5207082
1.5207297
1.5207234
1.5206898
1.5206933
1.5206964
1.5207372
1.5207415
1.5206993
1.5207591
1.520766
1.5207246
1.520722
1.5207604
1.5207482
1.5207182
1.5207308
1.5207309
1.5207641
1.5207793
1.5207454
1.5207826
1.5208146
1.5208166
1.5208521
1.5207695
1.5207915
1.5208303
1.5208045
1.5214558
1.5214451
1.521366
1.5213644
1.52133
1.5213401
1.5213356
1.5213243
1.5213621
1.5214662
1.5214763
1.5213594
1.5213249
1.5213306
1.5213182
1.5213118
1.5183959
1.5182365
1.5182073
1.518126
1.5188009
1.5186197
1.5186335
1.5188105
1.5185354
1.5186854
1.5186584
1.5188764
1.5188606
1.5185208
1.5185207
1.5185119
1.5185104
1.5186668
1.5185703
1.5185771
1.5186876
1.5186023
1.5185951
1.5187537
1.5187387
1.519148
1.5190634
1.5192796
1.5195585
1.519461
1.5191776
1.5193807
1.5193819
1.519694
1.5196638
1.5194415
1.5194142
1.5197509
1.5196853
1.5197489
1.5196627
1.5197133
1.5196284
1.5206343
1.5205794
1.5206737
1.520742
1.5208713
1.520853
1.5207914
1.5208054
1.5206059
1.520569
1.5205116
1.5206766
1.5208087
1.5207338
1.5207926
1.5207245
1.5210695
1.5210018
1.5210036
1.5210741
1.5211379
1.5211184
1.5210478
1.5210615
1.5209269
1.5210038
1.5209255
1.5210085
1.5210663
1.5209779
1.5210501
1.5209673
1.5208218
1.5207886
1.5207225
1.5209008
1.5207129
1.5206419
1.5207382
1.5208256
1.5209525
1.5210077
1.5209357
1.5210298
1.5209367
1.520852
1.520957
1.5208668
1.5209263
1.5208686
1.520871
1.5209307
1.52087
1.5208064
1.5208082
1.5208744
1.5209689
1.5209822
1.5209088
1.520918
1.5209109
1.5209215
1.5208437
1.5208474
1.5212688
1.5213419
1.5212752
1.5213384
1.5212881
1.5211938
1.5211886
1.5212851
1.5213462
1.5212749
1.5213351
1.5212693
1.5212852
1.5211911
1.5212926
1.5211958
1.5214446
1.521375
1.5213689
1.5214422
1.5214893
1.5214757
1.5214059
1.5214148
1.5213125
1.5213994
1.5213201
1.5213957
1.521443
1.5213574
1.5214313
1.5213505
1.5213717
1.5214487
1.521379
1.5214456
1.521403
1.5213223
1.5213146
1.5213987
1.5213776
1.5214369
1.5213673
1.5214522
1.521393
1.521313
1.521406
1.5213207
1.5213407
1.5212753
1.521268
1.5213358
1.5211971
1.5212843
1.5212892
1.5211909
1.5213723
1.521382
1.5213058
1.521311
1.5212268
1.5213276
1.5212317
1.5213208
1.5209504
1.5210585
1.5209819
1.5208831
1.5211876
1.521111
1.5211643
1.5210936
1.5208828
1.5207968
1.5208967
1.5209974
1.5211058
1.5211269
1.5210076
1.5210246
1.5212592
1.5213308
1.5212587
1.5213354
1.5212811
1.5211993
1.5211984
1.5212848
1.5213852
1.5214106
1.5213118
1.5213315
1.5213352
1.5213594
1.5212502
1.5212681
1.5211782
1.5210806
1.5210086
1.521098
1.5211245
1.5210198
1.5209413
1.521035
1.5212283
1.521283
1.5212079
1.521309
1.5211453
1.521231
1.5212558
1.5211633
1.52115
1.5212172
1.5211503
1.5212199
1.5210692
1.5211614
1.5211647
1.5210696
1.5212917
1.5212167
1.5212695
1.5212007
1.5211173
1.5212133
1.5212323
1.5211324
1.5211937
1.521123
1.5211205
1.5211923
1.5211934
1.5212005
1.5211225
1.5211265
1.5210425
1.5211246
1.5210441
1.5211252
1.5211311
1.521047
1.5211252
1.5210445
1.5211983
1.5211293
1.5211248
1.5211952
1.5210491
1.5211317
1.5210533
1.5211296
1.5211624
1.5212285
1.5211573
1.5212365
1.5211595
1.5210775
1.5210814
1.5211666
1.5210553
1.5209978
1.5209947
1.5210534
1.5209387
1.5209989
1.5210008
1.5209345
1.5209591
1.5210239
1.521028
1.520957
1.5210797
1.5210858
1.5210205
1.5210238
1.5210449
1.5209854
1.5209854
1.5210462
1.521047
1.5209883
1.5210514
1.5209902
1.5209219
1.5209225
1.5209867
1.520989
1.5209942
1.5209924
1.5209299
1.5209265
1.5199926
1.5199713
1.5199748
1.519996
1.5200522
1.5201157
1.5200609
1.5200263
1.5198919
1.5199255
1.5197771
1.5198403
1.5197734
1.5198369
1.5198933
1.5199022
1.5198832
1.5198878
1.5198
1.5197121
1.5238237
1.523874
1.5206502
1.5206252
1.520615
1.5205901
1.5206342
1.5206164
1.5205844
1.5205958
1.5206466
1.5206344
1.5205977
1.5206038
1.5206
1.5206407
1.5206684
1.5206292
1.5204106
1.5204497
1.5205105
1.5204647
1.5203959
1.5204236
1.520498
1.5204584
1.5204877
1.5205314
1.5205748
1.5205319
1.5204844
1.5205221
1.5205584
1.5205219
1.520584
1.5205338
1.5205483
1.5205
1.5205161
1.5204569
1.5204196
1.5204764
1.5205303
1.5204643
1.5204321
1.5204958
1.5205213
1.52055
1.5206044
1.5205732
1.5206814
1.5206477
1.5206139
1.5206467
1.5206516
1.5206465
1.5206154
1.5206153
1.520641
1.5206679
1.5206667
1.5206359
1.5207028
1.5206651
1.5206377
1.5206745
1.520485
1.5204737
1.5204529
1.5204436
1.520424
1.5203167
1.5203153
1.5204122
1.5203671
1.5203867
1.5204827
1.5204463
1.5205099
1.5204768
1.5205076
1.5205409
1.5202457
1.5202555
1.5203534
1.5203453
1.5201861
1.5201696
1.5202365
1.5202689
1.5202918
1.5202727
1.520302
1.5203301
1.5203799
1.5203851
1.5204171
1.5204112
1.5203861
1.5203644
1.5204286
1.5203983
1.5203559
1.5203478
1.5203818
1.5203971
1.5204857
1.5204672
1.5204631
1.5204808
1.5204839
1.5204771
1.5205059
1.5205176
1.5205557
1.5205361
1.520528
1.520546
1.520594
1.5205673
1.5205834
1.5206139
1.5205393
1.5205506
1.5205789
1.5205638
1.52063
1.5206062
1.5205755
1.5205986
1.5206606
1.5206695
1.5206519
1.5206636
1.5206556
1.5206541
1.5206417
1.520645
1.5207123
1.520706
1.5206759
1.5206808
1.5207021
1.5207317
1.5207168
1.5206895
1.5204684
1.5204671
1.5205088
1.5205096
1.5205933
1.5205844
1.5205846
1.5205952
1.5205114
1.5204719
1.5204776
1.5205182
1.5205998
1.5205987
1.5205969
1.5205935
1.5206045
1.5205338
1.520645
1.5205725
1.5205041
1.5204993
1.5205391
1.5205446
1.520624
1.5206178
1.5206096
1.5206158
1.5206435
1.520647
1.5207227
1.520709
1.5207686
1.5207062
1.5207027
1.5207536
1.5206819
1.5206744
1.5206647
1.5206723
1.5207017
1.5207253
1.5207348
1.520711
1.5208089
1.5207622
1.5207449
1.5207833
1.5214938
1.5213568
1.5215653
1.5214221
1.5214426
1.5213625
1.5212386
1.5213105
1.5216832
1.5217017
1.5215394
1.521554
1.5214225
1.5215766
1.52144
1.5215552
1.5212453
1.5213314
1.5212343
1.5211551
1.5211652
1.5210704
1.5211544
1.521259
1.521365
1.521439
1.5213453
1.5214634
1.5213664
1.5213919
1.5212637
1.5212835
1.5214619
1.521532
1.521557
1.5214422
1.5214773
1.5214814
1.5213884
1.5213879
1.5213118
1.5214141
1.5213114
1.5214099
1.5214649
1.5214897
1.5213842
1.5213649
1.5217807
1.5216388
1.5217626
1.521624
1.5217112
1.5217102
1.5215709
1.521567
1.5215892
1.521587
1.5214605
1.5214582
1.5215138
1.5215318
1.5216412
1.5216626
1.5219105
1.5216842
1.521964
1.5217323
1.5217481
1.5215496
1.5216833
1.5214925
1.5221224
1.5221111
1.5218709
1.5218776
1.521893
1.5216847
1.5218788
1.5216743
1.5224555
1.5224149
1.5221315
1.5224214
1.5224224
1.5221221
1.5221767
1.5221767
1.5224611
1.5224629
1.5219503
1.5221934
1.5219162
1.5222297
1.5224014
1.5221096
1.5224066
1.5221108
1.5223961
1.5222023
1.5221329
1.5221323
1.5218869
1.5218949
1.5219015
1.5217019
1.5216952
1.5219006
1.5219493
1.5221784
1.5219436
1.5221872
1.5219512
1.5217531
1.5219639
1.5217635
1.5224937
1.522492
1.5224959
1.522497
1.5222202
1.5222092
1.5222167
1.5222136
1.5224982
1.5224985
1.521985
1.5222292
1.5219958
1.5222276
1.5222414
1.5222461
1.5220135
1.5220139
1.522002
1.5218052
1.5219973
1.5217948
1.5220274
1.5218271
1.5218312
1.5220208
1.52222
1.5222172
1.5219919
1.5219811
1.521993
1.5217943
1.5219975
1.5218048
1.5219855
1.5222173
1.5219843
1.5222223
1.521991
1.521795
1.5217991
1.5219985
1.5225116
1.5225123
1.5222294
1.5222183
1.5222407
1.5222361
1.522517
1.522517
1.5225142
1.5225083
1.5218136
1.5216785
1.5216692
1.521809
1.5216943
1.5215713
1.5216903
1.5215629
1.5218047
1.5218147
1.5216669
1.521674
1.5215579
1.5216961
1.5215678
1.5216833
1.5216675
1.5218144
1.5216765
1.5218099
1.5216924
1.5215676
1.5215598
1.5216886
1.5217091
1.5218375
1.5217025
1.5218476
1.5217193
1.5215953
1.5217311
1.5216038
1.521576
1.5215913
1.5214988
1.5214876
1.5214942
1.5215888
1.5215014
1.5215853
1.5215234
1.5214283
1.5214209
1.5215201
1.5215105
1.521526
1.521415
1.5214258
1.5214903
1.5215851
1.5214968
1.5215821
1.5214238
1.5215187
1.5215161
1.5214172
1.5216275
1.5215358
1.5216138
1.5215259
1.5214535
1.5215488
1.5215627
1.521463
1.5213019
1.5213756
1.5213123
1.5213679
1.5213847
1.521381
1.5213173
1.521317
1.5213239
1.5212365
1.5213154
1.5212271
1.5213304
1.5212421
1.5212418
1.5213297
1.5214623
1.5214693
1.5214009
1.5213909
1.5214147
1.5214222
1.5213445
1.5213336
1.5214031
1.521468
1.5213985
1.5214765
1.5213424
1.5214211
1.5214282
1.521345
1.5213663
1.5212981
1.5213612
1.521297
1.5213533
1.5213617
1.5212977
1.5212873
1.5213003
1.5213083
1.5212221
1.5212123
1.521222
1.5212231
1.5213097
1.5213122
1.5214041
1.5214825
1.521414
1.5214752
1.5214355
1.5213577
1.5213472
1.521428
1.5214212
1.5214863
1.5214183
1.5214927
1.5214404
1.5213622
1.5214454
1.5213634
1.5214739
1.5214605
1.5214105
1.521395
1.5214161
1.521342
1.5214298
1.521358
1.5213989
1.5214647
1.5214005
1.5214661
1.5214202
1.5213475
1.521345
1.5214205
1.5213736
1.5213142
1.5212995
1.5213595
1.5213234
1.5212442
1.5212315
1.5213105
1.5213637
1.5213629
1.5213042
1.5213006
1.5213146
1.521312
1.521235
1.5212321
1.5212663
1.5213416
1.5212868
1.5213207
1.5212227
1.5212939
1.521274
1.5212046
1.5212745
1.5212518
1.5212261
1.5212057
1.5211692
1.5212113
1.5211532
1.5212314
1.5213562
1.521438
1.5213786
1.5214161
1.5213611
1.5213349
1.521309
1.5212843
1.5212982
1.5212403
1.5213231
1.5212638
1.521395
1.5213733
1.5213287
1.5213065
1.5212228
1.521159
1.5211514
1.521216
1.5212234
1.5212274
1.5211586
1.5211601
1.5211647
1.5210877
1.5211614
1.521087
1.5211614
1.5211558
1.5210875
1.5210806
1.521029
1.5210887
1.5210342
1.5210839
1.5210354
1.5209767
1.5209728
1.5210318
1.5210892
1.5210918
1.5210349
1.5210356
1.5210389
1.5209779
1.521038
1.5209818
1.5211657
1.5212368
1.5211725
1.5212307
1.5211748
1.5211014
1.5210956
1.5211702
1.5211795
1.5212433
1.5211788
1.521246
1.5211815
1.5211071
1.5211838
1.521107
1.5210449
1.5211032
1.5210494
1.5210993
1.5210518
1.5209955
1.5210485
1.5209907
1.5211111
1.5211094
1.5210553
1.5210553
1.5210588
1.5210011
1.5210582
1.5209967
1.521156
1.521223
1.5211708
1.5212066
1.5211724
1.5211131
1.5211588
1.5211005
1.5212447
1.5211864
1.5212345
1.5211762
1.5211798
1.5211126
1.5211882
1.5211215
1.5211753
1.521236
1.5211776
1.5212352
1.5211797
1.5211133
1.5211109
1.5211786
1.5210222
1.521074
1.5210688
1.5210172
1.5211225
1.5210731
1.5210665
1.5211154
1.5211151
1.5210665
1.521114
1.5210644
1.5210669
1.5210197
1.5210689
1.5210137
1.5210169
1.5210258
1.5210715
1.5210627
1.5210606
1.5211141
1.5210705
1.5211029
1.5210396
1.5209983
1.5212937
1.5213078
1.521482
1.5215347
1.5215255
1.5215199
1.5215215
1.5215268
1.5214978
1.5214697
1.5214626
1.5215056
1.521435
1.5214273
1.5213672
1.5213685
1.5214233
1.5214253
1.5213712
1.521377
1.521355
1.5213604
1.5213535
1.5213472
1.521341
1.5213485
1.5213442
1.5213355
1.5214696
1.5214606
1.521425
1.5214541
1.5214338
1.5214473
1.5214038
1.5213876
1.5214427
1.5214064
1.5214021
1.52144
1.5213701
1.521385
1.5213805
1.5213654
1.5213592
1.5213812
1.5214277
1.5223076
1.5222637
1.5220743
1.5216985
1.5229306
1.522835
1.522689
1.5226249
1.5215584
1.5228481
1.5225708
1.5223403
1.5225996
1.5237264
1.5238567
1.5238236
1.5237913
1.5238208
1.5238259
1.5238041
1.5238643
1.5238582
1.523861
1.523864
1.5238699
1.5238556
1.5238346
1.5238112
1.523805
1.5238237
1.5233182
1.5235488
1.5234729
1.5231447
1.5231376
1.5231666
1.5229568
1.5235123
1.5235615
1.5229353
1.5231931
1.5231669
1.5229761
1.5235941
1.5235581
1.523515
1.5235422
1.5236259
1.5236561
1.5235573
1.5235764
1.5236053
1.5235755
1.5236825
1.5236644
1.5233239
1.5232655
1.5232505
1.5232236
1.5228648
1.522813
1.5226899
1.5228688
1.5238661
1.5238645
1.5238736
1.5238731
1.5238637
1.5238617
1.5238728
1.5238698
1.5238386
1.5238407
1.5238076
1.5238055
1.5238434
1.5238387
1.523811
1.5237981
1.5236225
1.523583
1.5236977
1.5236761
1.5232599
1.5233581
1.5228927
1.5226365
1.5232103
1.5234933
1.5234638
1.5231913
1.5231905
1.5234372
1.5233805
1.5231556
1.5236839
1.5237095
1.5236815
1.5237125
1.5235884
1.5236348
1.5235809
1.5236381
1.5233853
1.5232687
1.523413
1.5232753
1.5230813
1.5232834
1.5231696
1.5229976
1.5229442
1.5229164
1.522608
1.5225702
1.5225752
1.5229245
1.5228176
1.5225317
1.5238641
1.5238615
1.5238732
1.5238694
1.5238459
1.52384
1.5238148
1.5237975
1.5232882
1.5235992
1.5235886
1.5232926
1.5233082
1.5235935
1.5235748
1.5232999
1.5238681
1.5238734
1.5238477
1.5238574
1.5238604
1.5238643
1.5238371
1.5238464
1.5232949
1.5235727
1.5235573
1.5232897
1.52328
1.5235469
1.5235169
1.5232482
1.52384
1.5238474
1.5238176
1.5238301
1.523797
1.5238175
1.5237764
1.5238012
1.521734
1.5221777
1.5223551
1.5220129
1.5223246
1.5224596
1.5223124
1.5222375
1.5225202
1.5236352
1.5237117
1.5236737
1.5237941
1.5238452
1.5238454
1.5238568
1.5236554
1.5237586
1.5236662
1.5237758
1.5236748
1.5237522
1.5238568
1.523868
1.5238525
1.5238433
1.5238025
1.5239126
1.5239173
1.5238889
1.5238852
1.5239172
1.5239116
1.52392
1.5239227
1.5239181
1.523926
1.5239243
1.5239198
1.5239206
1.5239139
1.5239096
1.5239148
1.5237761
1.5237794
1.5235621
1.5236288
1.5234521
1.52361
1.5237623
1.5237864
1.5238585
1.5238551
1.5238744
1.5238753
1.5238488
1.5238574
1.5238725
1.5238772
1.5239113
1.523906
1.5239201
1.5239162
1.5239117
1.523913
1.5239034
1.5239
1.5239232
1.5239179
1.5239258
1.5239216
1.5239118
1.5239158
1.5239177
1.5239177
1.5237576
1.5237915
1.5233963
1.5236083
1.5238471
1.5238583
1.5238722
1.523879
1.5233366
1.5235942
1.5235434
1.5232293
1.5231866
1.5228132
1.5224518
1.522858
1.5234931
1.5234108
1.5230951
1.523189
1.5237916
1.523749
1.523769
1.5237135
1.5235464
1.5235373
1.5232227
1.5232433
1.523576
1.5235657
1.5232629
1.5232733
1.5238565
1.523844
1.5238292
1.5238188
1.5238784
1.5238709
1.5238544
1.5238456
1.5239093
1.5239143
1.5239159
1.5239159
1.5239119
1.52391
1.5239024
1.5238978
1.5239114
1.5239061
1.5238814
1.5238851
1.523615
1.5236066
1.523301
1.5233203
1.5233324
1.5236242
1.5236099
1.5233257
1.5239133
1.5239137
1.5238855
1.5238899
1.5233231
1.5236163
1.5236087
1.5233264
1.5233286
1.5236141
1.5236019
1.5233086
1.5239077
1.5239103
1.5238806
1.5238873
1.5238953
1.523901
1.5238719
1.5238785
1.5238013
1.523761
1.5229946
1.52227
1.5229651
1.5222358
1.5230007
1.5222785
1.5230111
1.5222906
1.5230045
1.5222863
1.5229945
1.5222724
1.5229814
1.5222629
1.5230098
1.5222932
1.5225679
1.5219256
1.5221579
1.5216007
1.5228603
1.5221217
1.5227886
1.5220914
1.5229017
1.5221654
1.5228784
1.5221392
1.5229302