/*--------------------------------*- C++ -*----------------------------------*\
  =========                 |
  \\      /  F ield         | OpenFOAM: The Open Source CFD Toolbox
   \\    /   O peration     | Website:  https://openfoam.org
    \\  /    A nd           | Version:  7
     \\/     M anipulation  |
\*---------------------------------------------------------------------------*/
FoamFile
{
    version     2.0;
    format      ascii;
    class       volScalarField;
    location    "9000";
    object      pMean;
}
// * * * * * * * * * * * * * * * * * * * * * * * * * * * * * * * * * * * * * //

dimensions      [0 2 -2 0 0 0 0];

internalField   nonuniform List<scalar> 
33730
(
-1.2354865e+103
-1.2361791e+103
-1.2451266e+103
-1.220921e+103
-1.2284021e+103
-1.2422824e+103
-1.2420859e+103
-1.2345974e+103
-1.2337714e+103
-1.2515199e+103
-1.2466649e+103
-1.2469956e+103
-1.2518536e+103
-1.2569096e+103
-1.2565062e+103
-1.2605128e+103
-1.2609851e+103
-1.1748538e+103
-1.1484197e+103
-1.1925257e+103
-1.1691374e+103
-1.1998219e+103
-1.115726e+103
-1.2462699e+103
-1.2412438e+103
-1.2558131e+103
-1.251428e+103
-1.2511654e+103
-1.2461279e+103
-1.2502464e+103
-1.2558599e+103
-1.2520885e+103
-1.2484284e+103
-1.2568596e+103
-1.2526147e+103
-1.2419383e+103
-1.23711e+103
-1.2411357e+103
-1.2459151e+103
-1.2394491e+103
-1.2423656e+103
-1.2425975e+103
-1.2470841e+103
-1.256864e+103
-1.2576866e+103
-1.2589926e+103
-1.2595461e+103
-1.2514397e+103
-1.2539678e+103
-1.2551165e+103
-1.2521481e+103
-1.2662538e+103
-1.2648407e+103
-1.2631208e+103
-1.2625179e+103
-1.2691725e+103
-1.2672825e+103
-1.2700123e+103
-1.2684118e+103
-1.196001e+103
-1.1799861e+103
-1.1893042e+103
-1.1816721e+103
-1.1623849e+103
-1.1925072e+103
-1.1762316e+103
-1.1414344e+103
-1.1458277e+103
-1.2205783e+103
-1.2070713e+103
-1.2030638e+103
-1.2252335e+103
-1.1362526e+103
-1.1063755e+103
-1.1093899e+103
-1.1846153e+103
-1.1689099e+103
-1.1726737e+103
-1.1887446e+103
-1.2106486e+103
-1.2137102e+103
-1.2296977e+103
-1.2334574e+103
-1.0911162e+103
-1.1346386e+103
-1.1192203e+103
-1.2578804e+103
-1.2602723e+103
-1.2551709e+103
-1.2523874e+103
-1.2687647e+103
-1.2709864e+103
-1.2661355e+103
-1.2631003e+103
-1.2167714e+103
-1.2269049e+103
-1.2513119e+103
-1.2427918e+103
-1.2471374e+103
-1.2562122e+103
-1.2572657e+103
-1.2621018e+103
-1.2593901e+103
-1.2645737e+103
-1.2549729e+103
-1.2525698e+103
-1.2575993e+103
-1.2597839e+103
-1.2591092e+103
-1.2612019e+103
-1.2612568e+103
-1.2632677e+103
-1.2545012e+103
-1.2563124e+103
-1.2564998e+103
-1.258578e+103
-1.2403961e+103
-1.2319876e+103
-1.2367906e+103
-1.245316e+103
-1.2446962e+103
-1.242451e+103
-1.2470176e+103
-1.249318e+103
-1.2490232e+103
-1.2470215e+103
-1.2540722e+103
-1.2517172e+103
-1.2436293e+103
-1.2454735e+103
-1.2451818e+103
-1.2475509e+103
-1.2487435e+103
-1.2506806e+103
-1.2507665e+103
-1.252865e+103
-1.2611778e+103
-1.2607447e+103
-1.2621337e+103
-1.2628829e+103
-1.2634254e+103
-1.2641907e+103
-1.2646812e+103
-1.2639663e+103
-1.2549866e+103
-1.2564383e+103
-1.2553598e+103
-1.2571665e+103
-1.2580319e+103
-1.2589834e+103
-1.2584921e+103
-1.2592323e+103
-1.269156e+103
-1.2700577e+103
-1.2696138e+103
-1.2703371e+103
-1.2661165e+103
-1.2676601e+103
-1.2665196e+103
-1.2684516e+103
-1.2738472e+103
-1.2750995e+103
-1.2756243e+103
-1.2746445e+103
-1.2714209e+103
-1.2728919e+103
-1.2721868e+103
-1.2739694e+103
-1.197896e+103
-1.196343e+103
-1.2062257e+103
-1.2045962e+103
-1.1986833e+103
-1.2020108e+103
-1.1872538e+103
-1.1857561e+103
-1.178406e+103
-1.1796592e+103
-1.1586829e+103
-1.1881006e+103
-1.1913046e+103
-1.1889824e+103
-1.1922107e+103
-1.1819166e+103
-1.1827046e+103
-1.179052e+103
-1.1693853e+103
-1.179848e+103
-1.1636528e+103
-1.1620497e+103
-1.1946438e+103
-1.1931514e+103
-1.2011874e+103
-1.2029076e+103
-1.1840888e+103
-1.1766369e+103
-1.1750535e+103
-1.1825726e+103
-1.1561064e+103
-1.139699e+103
-1.1413702e+103
-1.1463335e+103
-1.1473335e+103
-1.1529315e+103
-1.1541939e+103
-1.2391527e+103
-1.2319546e+103
-1.229691e+103
-1.2418157e+103
-1.2207577e+103
-1.2126653e+103
-1.210761e+103
-1.2229728e+103
-1.2161373e+103
-1.2085771e+103
-1.2061188e+103
-1.2185899e+103
-1.2346776e+103
-1.2368245e+103
-1.2465863e+103
-1.2444654e+103
-1.0881462e+103
-1.0868724e+103
-1.0717373e+103
-1.0730413e+103
-1.1359574e+103
-1.1337266e+103
-1.1496118e+103
-1.1527935e+103
-1.1233579e+103
-1.1097304e+103
-1.1107771e+103
-1.1255985e+103
-1.1287008e+103
-1.1133577e+103
-1.1155923e+103
-1.1305974e+103
-1.1857106e+103
-1.1932486e+103
-1.1955721e+103
-1.1878773e+103
-1.1748735e+103
-1.1693557e+103
-1.1676222e+103
-1.1769014e+103
-1.1713177e+103
-1.1807239e+103
-1.1788333e+103
-1.17311e+103
-1.1898217e+103
-1.1915946e+103
-1.1978045e+103
-1.1997003e+103
-1.2271925e+103
-1.2145388e+103
-1.2250086e+103
-1.2162877e+103
-1.2180429e+103
-1.2289752e+103
-1.2307905e+103
-1.2198179e+103
-1.2390816e+103
-1.2490114e+103
-1.2414246e+103
-1.2520108e+103
-1.2453822e+103
-1.2436003e+103
-1.2543188e+103
-1.2562181e+103
-1.1093747e+103
-1.0987342e+103
-1.1374738e+103
-1.1327123e+103
-1.1341057e+103
-1.1390681e+103
-1.1220458e+103
-1.1286688e+103
-1.123477e+103
-1.1304973e+103
-1.2623625e+103
-1.2639302e+103
-1.266472e+103
-1.2653331e+103
-1.2597803e+103
-1.2607899e+103
-1.2567964e+103
-1.2583282e+103
-1.2750982e+103
-1.2735553e+103
-1.2765175e+103
-1.2774129e+103
-1.2720192e+103
-1.2709472e+103
-1.269582e+103
-1.2679137e+103
-1.2016754e+103
-1.2120669e+103
-1.2500638e+103
-1.260507e+103
-1.2580212e+103
-1.2333105e+103
-1.2377629e+103
-1.2552558e+103
-1.2654299e+103
-1.263304e+103
-1.2688799e+103
-1.2713365e+103
-1.2636181e+103
-1.2661004e+103
-1.2644972e+103
-1.2656845e+103
-1.2665178e+103
-1.2655845e+103
-1.2679224e+103
-1.2668774e+103
-1.267792e+103
-1.2689152e+103
-1.2682694e+103
-1.2698236e+103
-1.2664617e+103
-1.2676406e+103
-1.2688357e+103
-1.2708953e+103
-1.2698031e+103
-1.2714264e+103
-1.2593516e+103
-1.2605079e+103
-1.2614513e+103
-1.2604761e+103
-1.2617952e+103
-1.2628558e+103
-1.2627181e+103
-1.2637829e+103
-1.262819e+103
-1.2644846e+103
-1.2611533e+103
-1.2624575e+103
-1.2662076e+103
-1.2671162e+103
-1.2638661e+103
-1.2649259e+103
-1.2392254e+103
-1.2473351e+103
-1.2497588e+103
-1.2229032e+103
-1.2279238e+103
-1.2446251e+103
-1.252619e+103
-1.2548265e+103
-1.2527559e+103
-1.255229e+103
-1.2604221e+103
-1.2580762e+103
-1.2485162e+103
-1.2496727e+103
-1.2506808e+103
-1.2497746e+103
-1.2510555e+103
-1.2521652e+103
-1.252031e+103
-1.2531222e+103
-1.2500087e+103
-1.2512263e+103
-1.2528651e+103
-1.2513731e+103
-1.2546992e+103
-1.2556768e+103
-1.2529204e+103
-1.2540467e+103
-1.2539844e+103
-1.2551648e+103
-1.2550994e+103
-1.2560512e+103
-1.2563288e+103
-1.2573664e+103
-1.2572799e+103
-1.2583909e+103
-1.2558797e+103
-1.2574974e+103
-1.2589798e+103
-1.2570844e+103
-1.2603451e+103
-1.2611647e+103
-1.2582989e+103
-1.2593349e+103
-1.2618631e+103
-1.2611036e+103
-1.2628812e+103
-1.2640372e+103
-1.2630354e+103
-1.2627364e+103
-1.2646602e+103
-1.2649123e+103
-1.2643338e+103
-1.2638737e+103
-1.2657937e+103
-1.2667381e+103
-1.2652295e+103
-1.2648731e+103
-1.2672893e+103
-1.2674459e+103
-1.2566665e+103
-1.2560189e+103
-1.2570436e+103
-1.2581586e+103
-1.257874e+103
-1.2575585e+103
-1.2588786e+103
-1.2591744e+103
-1.2592702e+103
-1.2587088e+103
-1.2601259e+103
-1.2611413e+103
-1.2602935e+103
-1.2599341e+103
-1.2616273e+103
-1.2618231e+103
-1.2697327e+103
-1.2691739e+103
-1.2713399e+103
-1.2723558e+103
-1.2708254e+103
-1.2704829e+103
-1.2729303e+103
-1.2730588e+103
-1.26719e+103
-1.2664991e+103
-1.2682847e+103
-1.2694729e+103
-1.2683035e+103
-1.2680663e+103
-1.2701948e+103
-1.2704242e+103
-1.2749581e+103
-1.2743181e+103
-1.2767956e+103
-1.2777632e+103
-1.2764993e+103
-1.2759743e+103
-1.2783351e+103
-1.2784503e+103
-1.2725256e+103
-1.2719469e+103
-1.2740675e+103
-1.2752184e+103
-1.2735604e+103
-1.2734571e+103
-1.2758967e+103
-1.2760025e+103
-1.0219421e+103
-1.1966393e+103
-1.197553e+103
-1.1999763e+103
-1.2008915e+103
-1.1950242e+103
-1.1983031e+103
-1.1957917e+103
-1.1991263e+103
-1.206821e+103
-1.2107845e+103
-1.207689e+103
-1.2116858e+103
-1.2050889e+103
-1.2089449e+103
-1.2059089e+103
-1.2098407e+103
-1.2072115e+103
-1.1988927e+103
-1.1970925e+103
-1.198465e+103
-1.197518e+103
-1.2019364e+103
-1.2033745e+103
-1.2023869e+103
-1.198015e+103
-1.1993777e+103
-1.1862269e+103
-1.1893931e+103
-1.1870821e+103
-1.1902848e+103
-1.1847172e+103
-1.1878048e+103
-1.1854548e+103
-1.1885633e+103
-1.1786878e+103
-1.1794003e+103
-1.1759025e+103
-1.1765888e+103
-1.1666391e+103
-1.1800783e+103
-1.1809443e+103
-1.1780643e+103
-1.1772402e+103
-1.1679525e+103
-1.1595047e+103
-1.1608232e+103
-1.1891306e+103
-1.1880201e+103
-1.1887215e+103
-1.1884514e+103
-1.1921628e+103
-1.1932136e+103
-1.1936507e+103
-1.1926117e+103
-1.1900139e+103
-1.188884e+103
-1.1895639e+103
-1.1893434e+103
-1.1930769e+103
-1.1941089e+103
-1.1934985e+103
-1.1945689e+103
-1.184657e+103
-1.1852546e+103
-1.1845421e+103
-1.1850491e+103
-1.1854103e+103
-1.1858484e+103
-1.1856061e+103
-1.1859627e+103
-1.178749e+103
-1.1734388e+103
-1.1715696e+103
-1.1708427e+103
-1.1742482e+103
-1.1795177e+103
-1.1653499e+103
-1.164514e+103
-1.1670878e+103
-1.1679114e+103
-1.1637043e+103
-1.163136e+103
-1.1656533e+103
-1.1662871e+103
-1.1933526e+103
-1.1941473e+103
-1.1966397e+103
-1.197417e+103
-1.1920053e+103
-1.1951977e+103
-1.1926495e+103
-1.1959407e+103
-1.2018986e+103
-1.2057053e+103
-1.2026817e+103
-1.2065064e+103
-1.2034396e+103
-1.2072606e+103
-1.2041925e+103
-1.2080303e+103
-1.1831645e+103
-1.1861854e+103
-1.183925e+103
-1.186957e+103
-1.1770965e+103
-1.1779207e+103
-1.1751605e+103
-1.1743228e+103
-1.1647414e+103
-1.1758035e+103
-1.1764225e+103
-1.1736365e+103
-1.1729772e+103
-1.1632617e+103
-1.1818925e+103
-1.1849511e+103
-1.1824828e+103
-1.1855496e+103
-1.1562267e+103
-1.1576269e+103
-1.1417272e+103
-1.1404165e+103
-1.1468796e+103
-1.1483499e+103
-1.143046e+103
-1.1498668e+103
-1.1509501e+103
-1.1440652e+103
-1.1509181e+103
-1.148596e+103
-1.1492108e+103
-1.1515311e+103
-1.1505327e+103
-1.1497096e+103
-1.1521067e+103
-1.1529519e+103
-1.1562847e+103
-1.1557258e+103
-1.1579994e+103
-1.1584573e+103
-1.1591992e+103
-1.1570387e+103
-1.1578476e+103
-1.1600854e+103
-1.1298196e+103
-1.1457043e+103
-1.1046989e+103
-1.1193734e+103
-1.1654362e+103
-1.1724305e+103
-1.1826339e+103
-1.2460372e+103
-1.2474193e+103
-1.2489546e+103
-1.2505566e+103
-1.2350085e+103
-1.2361635e+103
-1.2408766e+103
-1.2419832e+103
-1.2325443e+103
-1.2383003e+103
-1.2337605e+103
-1.2396726e+103
-1.2487915e+103
-1.2519209e+103
-1.2498349e+103
-1.2528354e+103
-1.2221784e+103
-1.228013e+103
-1.2233545e+103
-1.2293313e+103
-1.2118854e+103
-1.2128389e+103
-1.2163978e+103
-1.2173327e+103
-1.209836e+103
-1.214198e+103
-1.2109025e+103
-1.2153771e+103
-1.2244334e+103
-1.2304995e+103
-1.2253755e+103
-1.2314263e+103
-1.2173598e+103
-1.2185864e+103
-1.2231222e+103
-1.2243916e+103
-1.2073886e+103
-1.2117808e+103
-1.2085686e+103
-1.2129124e+103
-1.2050512e+103
-1.2093798e+103
-1.206194e+103
-1.2106155e+103
-1.2197739e+103
-1.225605e+103
-1.220847e+103
-1.2266721e+103
-1.2375352e+103
-1.238782e+103
-1.2433828e+103
-1.2447856e+103
-1.2399349e+103
-1.2459028e+103
-1.2409818e+103
-1.2469118e+103
-1.2538157e+103
-1.2571329e+103
-1.2581246e+103
-1.2548323e+103
-1.2511521e+103
-1.2524994e+103
-1.2542013e+103
-1.2558144e+103
-1.1059777e+103
-1.1073038e+103
-1.0956861e+103
-1.0976158e+103
-1.1031456e+103
-1.1045766e+103
-1.0950435e+103
-1.0959384e+103
-1.051387e+103
-1.0511864e+103
-1.1386298e+103
-1.1374158e+103
-1.1438308e+103
-1.1452151e+103
-1.1405607e+103
-1.1343337e+103
-1.142321e+103
-1.1361668e+103
-1.151419e+103
-1.1496071e+103
-1.1564448e+103
-1.1582098e+103
-1.1543186e+103
-1.1529646e+103
-1.1599938e+103
-1.1616991e+103
-1.1229264e+103
-1.1217718e+103
-1.1262402e+103
-1.1279619e+103
-1.1179413e+103
-1.1127382e+103
-1.1131917e+103
-1.1193716e+103
-1.1155559e+103
-1.1143185e+103
-1.120565e+103
-1.1215089e+103
-1.1241037e+103
-1.1293705e+103
-1.1250875e+103
-1.1304585e+103
-1.1285773e+103
-1.1267424e+103
-1.1318237e+103
-1.1334249e+103
-1.1166133e+103
-1.1230032e+103
-1.1174629e+103
-1.1249313e+103
-1.120138e+103
-1.1188174e+103
-1.125505e+103
-1.126277e+103
-1.130056e+103
-1.1291857e+103
-1.1347337e+103
-1.1355355e+103
-1.1841045e+103
-1.1871493e+103
-1.1851966e+103
-1.1882893e+103
-1.1935276e+103
-1.197181e+103
-1.1946796e+103
-1.198321e+103
-1.1971444e+103
-1.1959606e+103
-1.1995345e+103
-1.20071e+103
-1.1875208e+103
-1.1863423e+103
-1.1894468e+103
-1.1906452e+103
-1.1742834e+103
-1.1772252e+103
-1.1753125e+103
-1.1782932e+103
-1.1684749e+103
-1.1673464e+103
-1.170181e+103
-1.1712784e+103
-1.1682348e+103
-1.1691744e+103
-1.1664325e+103
-1.1655931e+103
-1.1763053e+103
-1.1793812e+103
-1.1774113e+103
-1.1805394e+103
-1.1704506e+103
-1.1696001e+103
-1.1723985e+103
-1.1732524e+103
-1.1803084e+103
-1.1812026e+103
-1.1834416e+103
-1.1842501e+103
-1.178466e+103
-1.1816261e+103
-1.1794065e+103
-1.1825847e+103
-1.1741063e+103
-1.1750271e+103
-1.1721993e+103
-1.1712844e+103
-1.1886154e+103
-1.1917895e+103
-1.1895407e+103
-1.1927788e+103
-1.1903507e+103
-1.193616e+103
-1.1911813e+103
-1.194406e+103
-1.1992465e+103
-1.1982753e+103
-1.2019664e+103
-1.2030462e+103
-1.2001219e+103
-1.204014e+103
-1.2009347e+103
-1.2048784e+103
-1.228464e+103
-1.2292837e+103
-1.234636e+103
-1.2355117e+103
-1.2138059e+103
-1.2183257e+103
-1.2146233e+103
-1.2192762e+103
-1.2275e+103
-1.2265099e+103
-1.2325075e+103
-1.2336528e+103
-1.215444e+103
-1.2201056e+103
-1.2162605e+103
-1.2209096e+103
-1.2172179e+103
-1.2218773e+103
-1.2181056e+103
-1.2228725e+103
-1.2302736e+103
-1.2365619e+103
-1.2312504e+103
-1.2376846e+103
-1.2322932e+103
-1.2387249e+103
-1.2331968e+103
-1.2396144e+103
-1.2190711e+103
-1.2200157e+103
-1.2247705e+103
-1.2238409e+103
-1.2422304e+103
-1.2433846e+103
-1.2496066e+103
-1.2481621e+103
-1.256224e+103
-1.2594069e+103
-1.2576834e+103
-1.2611604e+103
-1.2444657e+103
-1.250704e+103
-1.2454573e+103
-1.2516547e+103
-1.2589726e+103
-1.2624318e+103
-1.2599631e+103
-1.2633981e+103
-1.2487993e+103
-1.2552923e+103
-1.2466334e+103
-1.2528498e+103
-1.2477472e+103
-1.2542359e+103
-1.2647425e+103
-1.2612582e+103
-1.2625998e+103
-1.2663566e+103
-1.2677197e+103
-1.2638446e+103
-1.2684665e+103
-1.0973823e+103
-1.1188742e+103
-1.1171641e+103
-1.1239216e+103
-1.125221e+103
-1.1435345e+103
-1.1413975e+103
-1.1441873e+103
-1.1422279e+103
-1.1369494e+103
-1.1345073e+103
-1.137734e+103
-1.1351829e+103
-1.136278e+103
-1.1359303e+103
-1.138416e+103
-1.1390887e+103
-1.1432909e+103
-1.1425829e+103
-1.1447845e+103
-1.145555e+103
-1.126367e+103
-1.1271102e+103
-1.1285647e+103
-1.128116e+103
-1.1293476e+103
-1.1277888e+103
-1.1285882e+103
-1.1304802e+103
-1.128519e+103
-1.1296035e+103
-1.1293456e+103
-1.1290674e+103
-1.1311977e+103
-1.1296543e+103
-1.1294754e+103
-1.1314407e+103
-1.1300016e+103
-1.1303714e+103
-1.1304542e+103
-1.2641168e+103
-1.2652023e+103
-1.2658705e+103
-1.2663279e+103
-1.2689698e+103
-1.2686779e+103
-1.2679702e+103
-1.2670227e+103
-1.2624156e+103
-1.2614092e+103
-1.2629796e+103
-1.2633383e+103
-1.258587e+103
-1.2595478e+103
-1.2602542e+103
-1.2606887e+103
-1.2772917e+103
-1.2769058e+103
-1.2762574e+103
-1.2752248e+103
-1.2779925e+103
-1.2789044e+103
-1.2794714e+103
-1.2797552e+103
-1.2744185e+103
-1.2741011e+103
-1.273483e+103
-1.2725281e+103
-1.2718055e+103
-1.2713901e+103
-1.2707039e+103
-1.2695717e+103
-1.1913983e+103
-1.1767564e+103
-1.2190677e+103
-1.2148483e+103
-1.1854654e+103
-1.2276665e+103
-1.2240227e+103
-1.2422207e+103
-1.2608654e+103
-1.2581948e+103
-1.2611936e+103
-1.2637466e+103
-1.2464651e+103
-1.2658091e+103
-1.2635556e+103
-1.2687925e+103
-1.2665017e+103
-1.2733052e+103
-1.2716134e+103
-1.2759263e+103
-1.2771691e+103
-1.2722815e+103
-1.2709841e+103
-1.2753647e+103
-1.2745999e+103
-1.2735447e+103
-1.2785886e+103
-1.2798457e+103
-1.2748069e+103
-1.2679422e+103
-1.2661508e+103
-1.2718968e+103
-1.2704965e+103
-1.2670617e+103
-1.2657158e+103
-1.2701229e+103
-1.2692957e+103
-1.2732508e+103
-1.2744752e+103
-1.2683542e+103
-1.2695834e+103
-1.270586e+103
-1.2711541e+103
-1.2717459e+103
-1.2710757e+103
-1.2699724e+103
-1.2692048e+103
-1.2698911e+103
-1.2705118e+103
-1.2717819e+103
-1.2725756e+103
-1.2731299e+103
-1.2724936e+103
-1.2737484e+103
-1.2731494e+103
-1.2743946e+103
-1.2736722e+103
-1.2653358e+103
-1.2671157e+103
-1.2677438e+103
-1.2658458e+103
-1.2667435e+103
-1.2685956e+103
-1.2688914e+103
-1.2668715e+103
-1.2687584e+103
-1.2682212e+103
-1.2682726e+103
-1.2676733e+103
-1.2701369e+103
-1.2695603e+103
-1.2697146e+103
-1.2691332e+103
-1.2708962e+103
-1.2714392e+103
-1.2705049e+103
-1.2710821e+103
-1.2677859e+103
-1.2698369e+103
-1.2706366e+103
-1.2684817e+103
-1.2716916e+103
-1.2720703e+103
-1.2726768e+103
-1.2722583e+103
-1.27185e+103
-1.2714217e+103
-1.2694232e+103
-1.2699718e+103
-1.2653637e+103
-1.2659243e+103
-1.2665051e+103
-1.2658381e+103
-1.2647049e+103
-1.2639034e+103
-1.2645984e+103
-1.2652349e+103
-1.2673412e+103
-1.2666148e+103
-1.2672933e+103
-1.2678666e+103
-1.2683615e+103
-1.267877e+103
-1.2684496e+103
-1.2690331e+103
-1.2599337e+103
-1.2616401e+103
-1.2622853e+103
-1.2605e+103
-1.2613999e+103
-1.2632323e+103
-1.2635141e+103
-1.2616171e+103
-1.2634988e+103
-1.2629401e+103
-1.262936e+103
-1.2623147e+103
-1.2649434e+103
-1.2643574e+103
-1.264365e+103
-1.263829e+103
-1.2625908e+103
-1.2644644e+103
-1.2650202e+103
-1.2630961e+103
-1.26382e+103
-1.2657724e+103
-1.2661837e+103
-1.2642211e+103
-1.2662938e+103
-1.2657773e+103
-1.2657706e+103
-1.2652487e+103
-1.2674746e+103
-1.2669398e+103
-1.2669499e+103
-1.2664398e+103
-1.2112829e+103
-1.2170054e+103
-1.2332918e+103
-1.2324977e+103
-1.249963e+103
-1.2473365e+103
-1.2501419e+103
-1.2528016e+103
-1.2371695e+103
-1.255257e+103
-1.252855e+103
-1.2558027e+103
-1.2582393e+103
-1.2570746e+103
-1.2553587e+103
-1.2609838e+103
-1.259547e+103
-1.254608e+103
-1.2560187e+103
-1.2592445e+103
-1.2583811e+103
-1.2623082e+103
-1.2636149e+103
-1.2574296e+103
-1.2587718e+103
-1.2645838e+103
-1.263828e+103
-1.2690064e+103
-1.2677456e+103
-1.2628874e+103
-1.2641426e+103
-1.2625126e+103
-1.2607301e+103
-1.2650119e+103
-1.2664492e+103
-1.2602553e+103
-1.2616026e+103
-1.2544282e+103
-1.254992e+103
-1.2549651e+103
-1.2556222e+103
-1.2538007e+103
-1.2529835e+103
-1.2536108e+103
-1.2542998e+103
-1.2565809e+103
-1.255763e+103
-1.2564506e+103
-1.2570953e+103
-1.257696e+103
-1.257113e+103
-1.257619e+103
-1.258303e+103
-1.25187e+103
-1.252506e+103
-1.2520531e+103
-1.2513952e+103
-1.2516148e+103
-1.2508629e+103
-1.2495424e+103
-1.2501933e+103
-1.2528117e+103
-1.2524804e+103
-1.2510722e+103
-1.2513393e+103
-1.2540394e+103
-1.2534466e+103
-1.2534334e+103
-1.252942e+103
-1.2542604e+103
-1.2536824e+103
-1.2522292e+103
-1.2527313e+103
-1.2553972e+103
-1.2549831e+103
-1.253342e+103
-1.2537103e+103
-1.2555324e+103
-1.2549736e+103
-1.2549174e+103
-1.2543921e+103
-1.2567871e+103
-1.2562604e+103
-1.256169e+103
-1.2556598e+103
-1.2593227e+103
-1.2585119e+103
-1.2592167e+103
-1.2598769e+103
-1.2605155e+103
-1.2599116e+103
-1.2604125e+103
-1.2611005e+103
-1.2618517e+103
-1.2611269e+103
-1.2624693e+103
-1.2619197e+103
-1.262442e+103
-1.2629002e+103
-1.2630601e+103
-1.2636366e+103
-1.258249e+103
-1.2576716e+103
-1.2571623e+103
-1.2577623e+103
-1.2570409e+103
-1.2563139e+103
-1.2545183e+103
-1.2552472e+103
-1.2560974e+103
-1.2578588e+103
-1.2581386e+103
-1.2563738e+103
-1.2596298e+103
-1.2590892e+103
-1.2589903e+103
-1.2585497e+103
-1.2573311e+103
-1.2590488e+103
-1.2595683e+103
-1.2577873e+103
-1.2583607e+103
-1.2602996e+103
-1.260702e+103
-1.2587457e+103
-1.2609292e+103
-1.2604216e+103
-1.2603144e+103
-1.2598354e+103
-1.2620986e+103
-1.2615793e+103
-1.2614862e+103
-1.2609855e+103
-1.015762e+103
-1.2652199e+103
-1.2643594e+103
-1.2664871e+103
-1.266024e+103
-1.2678922e+103
-1.2672004e+103
-1.2690178e+103
-1.2685688e+103
-1.2597733e+103
-1.2590731e+103
-1.2610845e+103
-1.2606227e+103
-1.2625661e+103
-1.2618048e+103
-1.2636197e+103
-1.263207e+103
-1.2733833e+103
-1.2726351e+103
-1.2744594e+103
-1.2740495e+103
-1.2706348e+103
-1.2697068e+103
-1.2718993e+103
-1.2714395e+103
-1.2787154e+103
-1.2779571e+103
-1.279513e+103
-1.2761172e+103
-1.2752646e+103
-1.277279e+103
-1.2768632e+103
-1.1952232e+103
-1.1965919e+103
-1.1970088e+103
-1.195631e+103
-1.1965358e+103
-1.1960869e+103
-1.1974734e+103
-1.197932e+103
-1.201878e+103
-1.2000416e+103
-1.20145e+103
-1.2004587e+103
-1.2013636e+103
-1.2028137e+103
-1.2009352e+103
-1.2023542e+103
-1.1953148e+103
-1.193599e+103
-1.1949613e+103
-1.193955e+103
-1.198373e+103
-1.1997933e+103
-1.2001837e+103
-1.1987483e+103
-1.1961405e+103
-1.1943745e+103
-1.1957322e+103
-1.1947904e+103
-1.1991867e+103
-1.200585e+103
-1.1995995e+103
-1.2010234e+103
-1.2052626e+103
-1.2070848e+103
-1.2075375e+103
-1.2056765e+103
-1.2126539e+103
-1.2111834e+103
-1.2107351e+103
-1.2131458e+103
-1.2061617e+103
-1.2066153e+103
-1.2080058e+103
-1.2084553e+103
-1.2136449e+103
-1.2121057e+103
-1.214097e+103
-1.2116822e+103
-1.2057802e+103
-1.2035711e+103
-1.2053737e+103
-1.2039521e+103
-1.2108871e+103
-1.208988e+103
-1.2094067e+103
-1.2113295e+103
-1.2048038e+103
-1.2066229e+103
-1.2043781e+103
-1.2061872e+103
-1.211754e+103
-1.2098532e+103
-1.21027e+103
-1.2121801e+103
-1.2068422e+103
-1.1993244e+103
-1.1964928e+103
-1.1988997e+103
-1.1969212e+103
-1.2016153e+103
-1.2039568e+103
-1.2020545e+103
-1.1974477e+103
-1.1998609e+103
-1.2025997e+103
-1.186237e+103
-1.1866424e+103
-1.1869524e+103
-1.1873408e+103
-1.1907503e+103
-1.1913959e+103
-1.191798e+103
-1.1903762e+103
-1.1870409e+103
-1.1874978e+103
-1.1882309e+103
-1.1877635e+103
-1.1911801e+103
-1.1916139e+103
-1.1922468e+103
-1.1926991e+103
-1.1857321e+103
-1.1846574e+103
-1.1853981e+103
-1.1850242e+103
-1.1887542e+103
-1.1897992e+103
-1.1901591e+103
-1.1891273e+103
-1.1865403e+103
-1.1853675e+103
-1.1861126e+103
-1.1858167e+103
-1.1895315e+103
-1.1905587e+103
-1.1899345e+103
-1.1909927e+103
-1.1813096e+103
-1.1818069e+103
-1.1812064e+103
-1.1816327e+103
-1.1819392e+103
-1.1823754e+103
-1.1821311e+103
-1.1825297e+103
-1.1756161e+103
-1.1705325e+103
-1.1763336e+103
-1.1710768e+103
-1.1680311e+103
-1.1686671e+103
-1.18291e+103
-1.1834626e+103
-1.1827729e+103
-1.1832643e+103
-1.1836402e+103
-1.184079e+103
-1.1837552e+103
-1.1841248e+103
-1.1777981e+103
-1.1725287e+103
-1.1770889e+103
-1.1717018e+103
-1.1691435e+103
-1.1698455e+103
-1.1629018e+103
-1.1604923e+103
-1.1611167e+103
-1.1635718e+103
-1.1648846e+103
-1.1617566e+103
-1.1642033e+103
-1.1624827e+103
-1.1894351e+103
-1.1866079e+103
-1.1890502e+103
-1.1870115e+103
-1.1916744e+103
-1.1937866e+103
-1.1942307e+103
-1.1921072e+103
-1.1874684e+103
-1.1899144e+103
-1.1879087e+103
-1.1926099e+103
-1.1947306e+103
-1.1832159e+103
-1.1837113e+103
-1.1841892e+103
-1.1846463e+103
-1.1850825e+103
-1.1854905e+103
-1.184153e+103
-1.1845182e+103
-1.1796697e+103
-1.1776607e+103
-1.1744134e+103
-1.1780678e+103
-1.1800674e+103
-1.1712781e+103
-1.1706101e+103
-1.175149e+103
-1.178876e+103
-1.1785366e+103
-1.1805704e+103
-1.1809167e+103
-1.1759495e+103
-1.1721483e+103
-1.164957e+103
-1.1642508e+103
-1.1679997e+103
-1.1633937e+103
-1.162838e+103
-1.1665056e+103
-1.1671345e+103
-1.1937342e+103
-1.192063e+103
-1.1934129e+103
-1.1923872e+103
-1.1931733e+103
-1.1927754e+103
-1.1941372e+103
-1.1945414e+103
-1.1968411e+103
-1.1982174e+103
-1.1971671e+103
-1.1985668e+103
-1.1979368e+103
-1.1989534e+103
-1.1993528e+103
-1.19757e+103
-1.1906784e+103
-1.1920072e+103
-1.1909923e+103
-1.192347e+103
-1.1957239e+103
-1.1971041e+103
-1.1953729e+103
-1.1967572e+103
-1.1929919e+103
-1.191345e+103
-1.1926799e+103
-1.1916661e+103
-1.196088e+103
-1.197456e+103
-1.1978185e+103
-1.1964349e+103
-1.2004859e+103
-1.2022567e+103
-1.2026269e+103
-1.2008313e+103
-1.2058279e+103
-1.2076857e+103
-1.2080743e+103
-1.2062094e+103
-1.2012012e+103
-1.2015602e+103
-1.2029855e+103
-1.2033518e+103
-1.2065995e+103
-1.2069492e+103
-1.2084558e+103
-1.2088022e+103
-1.2041191e+103
-1.2019957e+103
-1.203769e+103
-1.202321e+103
-1.2092268e+103
-1.2073728e+103
-1.2077248e+103
-1.2096169e+103
-1.2049229e+103
-1.2027233e+103
-1.2045222e+103
-1.2031241e+103
-1.2100352e+103
-1.2081427e+103
-1.2085262e+103
-1.2104293e+103
-1.1831879e+103
-1.1834988e+103
-1.1838801e+103
-1.184196e+103
-1.1875672e+103
-1.1882602e+103
-1.1885835e+103
-1.1872551e+103
-1.1838088e+103
-1.1842327e+103
-1.1850013e+103
-1.1845671e+103
-1.1879375e+103
-1.1883299e+103
-1.1889752e+103
-1.1893846e+103
-1.1798926e+103
-1.1802856e+103
-1.1797211e+103
-1.1800864e+103
-1.1803841e+103
-1.1808081e+103
-1.1805574e+103
-1.1809312e+103
-1.1748545e+103
-1.1696652e+103
-1.1741446e+103
-1.1689121e+103
-1.1664215e+103
-1.1672441e+103
-1.17847e+103
-1.1789479e+103
-1.1784458e+103
-1.1788008e+103
-1.1790273e+103
-1.1793569e+103
-1.1792498e+103
-1.179552e+103
-1.1734337e+103
-1.1681393e+103
-1.1727512e+103
-1.167618e+103
-1.1650336e+103
-1.1656951e+103
-1.1829052e+103
-1.1819046e+103
-1.1826317e+103
-1.1822008e+103
-1.1859131e+103
-1.1869328e+103
-1.1872325e+103
-1.186218e+103
-1.1835203e+103
-1.1824675e+103
-1.1831993e+103
-1.1828088e+103
-1.1865448e+103
-1.18756e+103
-1.1868556e+103
-1.1878892e+103
-1.1599178e+103
-1.1575784e+103
-1.1581275e+103
-1.1605642e+103
-1.1611667e+103
-1.1587579e+103
-1.1596698e+103
-1.1621345e+103
-1.1451978e+103
-1.1443263e+103
-1.1466638e+103
-1.1475666e+103
-1.1436302e+103
-1.1432038e+103
-1.1455327e+103
-1.1459973e+103
-1.1524073e+103
-1.1503134e+103
-1.1508368e+103
-1.1529628e+103
-1.1523788e+103
-1.1515349e+103
-1.1536369e+103
-1.1545549e+103
-1.146596e+103
-1.1460542e+103
-1.1483657e+103
-1.1489576e+103
-1.1553647e+103
-1.1531599e+103
-1.1538049e+103
-1.1559983e+103
-1.1566452e+103
-1.1545684e+103
-1.1571685e+103
-1.1551101e+103
-1.1495054e+103
-1.1472438e+103
-1.1478031e+103
-1.1502194e+103
-1.1520997e+103
-1.1488516e+103
-1.1492857e+103
-1.1526071e+103
-1.1506506e+103
-1.1499787e+103
-1.1534177e+103
-1.1541204e+103
-1.1563149e+103
-1.1558707e+103
-1.1589735e+103
-1.1594413e+103
-1.1602646e+103
-1.1571032e+103
-1.1577913e+103
-1.1609813e+103
-1.0999474e+103
-1.0965344e+103
-1.0945588e+103
-1.0549195e+103
-1.132887e+103
-1.1319545e+103
-1.1375522e+103
-1.1388044e+103
-1.1306176e+103
-1.1527152e+103
-1.1459598e+103
-1.1543388e+103
-1.1472059e+103
-1.1183447e+103
-1.1227283e+103
-1.1075505e+103
-1.1144587e+103
-1.1103902e+103
-1.1091902e+103
-1.1156927e+103
-1.1162454e+103
-1.1241236e+103
-1.1197384e+103
-1.1247385e+103
-1.1202108e+103
-1.1649772e+103
-1.1624436e+103
-1.1659952e+103
-1.1670749e+103
-1.1645038e+103
-1.1633082e+103
-1.1718022e+103
-1.1748049e+103
-1.1729463e+103
-1.1759515e+103
-1.1814979e+103
-1.1846492e+103
-1.1826579e+103
-1.1857917e+103
-1.1921013e+103
-1.1958703e+103
-1.203592e+103
-1.2079486e+103
-1.2487997e+103
-1.2514282e+103
-1.2522856e+103
-1.2495208e+103
-1.2506971e+103
-1.2501757e+103
-1.2529112e+103
-1.2533804e+103
-1.2558327e+103
-1.2545252e+103
-1.2549074e+103
-1.2553398e+103
-1.2565369e+103
-1.2569002e+103
-1.256033e+103
-1.2564477e+103
-1.2347918e+103
-1.23844e+103
-1.2391666e+103
-1.2354489e+103
-1.2366391e+103
-1.2360902e+103
-1.2397982e+103
-1.2403015e+103
-1.2472901e+103
-1.2430239e+103
-1.2465318e+103
-1.2437363e+103
-1.2448684e+103
-1.2483364e+103
-1.2443789e+103
-1.2479164e+103
-1.2365731e+103
-1.2322798e+103
-1.2358876e+103
-1.2329216e+103
-1.2404467e+103
-1.2439692e+103
-1.2446983e+103
-1.2411217e+103
-1.2377317e+103
-1.2335369e+103
-1.2372182e+103
-1.2340983e+103
-1.2418354e+103
-1.2453585e+103
-1.2423487e+103
-1.2458369e+103
-1.2514159e+103
-1.254088e+103
-1.2549202e+103
-1.252119e+103
-1.2571969e+103
-1.257511e+103
-1.2584799e+103
-1.2579977e+103
-1.2527306e+103
-1.2531998e+103
-1.2554742e+103
-1.2558535e+103
-1.2586057e+103
-1.2590187e+103
-1.2590338e+103
-1.2594201e+103
-1.2245572e+103
-1.2205956e+103
-1.2239341e+103
-1.2211948e+103
-1.2285639e+103
-1.2320878e+103
-1.2327349e+103
-1.2291967e+103
-1.2223243e+103
-1.2257094e+103
-1.2217764e+103
-1.2251634e+103
-1.2298528e+103
-1.2333546e+103
-1.2303629e+103
-1.233838e+103
-1.2100417e+103
-1.2121377e+103
-1.212623e+103
-1.2105166e+103
-1.2114139e+103
-1.2109757e+103
-1.2131062e+103
-1.2135594e+103
-1.2187542e+103
-1.2159147e+103
-1.2182306e+103
-1.2164077e+103
-1.2173249e+103
-1.2196812e+103
-1.2168951e+103
-1.2192422e+103
-1.2105018e+103
-1.2078866e+103
-1.2099342e+103
-1.2084647e+103
-1.2136797e+103
-1.2159655e+103
-1.2165712e+103
-1.2142544e+103
-1.2115786e+103
-1.2090014e+103
-1.2110614e+103
-1.2095258e+103
-1.2148433e+103
-1.2171405e+103
-1.2153765e+103
-1.2177042e+103
-1.222886e+103
-1.2263046e+103
-1.2268577e+103
-1.2233942e+103
-1.2344782e+103
-1.2314956e+103
-1.2309609e+103
-1.2350838e+103
-1.223901e+103
-1.2243635e+103
-1.2273556e+103
-1.2278125e+103
-1.2356379e+103
-1.2324657e+103
-1.2360628e+103
-1.2320374e+103
-1.2156303e+103
-1.2162371e+103
-1.2195928e+103
-1.2189706e+103
-1.2174736e+103
-1.220817e+103
-1.216873e+103
-1.2202175e+103
-1.2235594e+103
-1.2270557e+103
-1.2276981e+103
-1.2241915e+103
-1.2248534e+103
-1.2254102e+103
-1.2283356e+103
-1.2288469e+103
-1.208075e+103
-1.2054267e+103
-1.2074669e+103
-1.2060415e+103
-1.2112114e+103
-1.2134675e+103
-1.2140854e+103
-1.2118175e+103
-1.2066392e+103
-1.2072384e+103
-1.2086817e+103
-1.2092843e+103
-1.2124362e+103
-1.2130197e+103
-1.214686e+103
-1.2152825e+103
-1.2035964e+103
-1.203006e+103
-1.2050259e+103
-1.2056295e+103
-1.2093418e+103
-1.2087336e+103
-1.2110159e+103
-1.2116315e+103
-1.2068049e+103
-1.2041966e+103
-1.2062207e+103
-1.2047945e+103
-1.2122493e+103
-1.2099722e+103
-1.2105723e+103
-1.2128671e+103
-1.2221005e+103
-1.2181099e+103
-1.221476e+103
-1.2186985e+103
-1.2295337e+103
-1.2260739e+103
-1.2266773e+103
-1.2301993e+103
-1.2199073e+103
-1.2232526e+103
-1.2193104e+103
-1.2226876e+103
-1.230848e+103
-1.2273165e+103
-1.2278448e+103
-1.2313608e+103
-1.2373398e+103
-1.2410286e+103
-1.2417283e+103
-1.2379532e+103
-1.2385832e+103
-1.2391e+103
-1.2423425e+103
-1.2428256e+103
-1.2498561e+103
-1.2456126e+103
-1.2490768e+103
-1.2463259e+103
-1.247467e+103
-1.2509965e+103
-1.2469826e+103
-1.2505061e+103
-1.2397463e+103
-1.2434695e+103
-1.2441467e+103
-1.2403436e+103
-1.2524047e+103
-1.248095e+103