/*--------------------------------*- C++ -*----------------------------------*\
  =========                 |
  \\      /  F ield         | OpenFOAM: The Open Source CFD Toolbox
   \\    /   O peration     | Website:  https://openfoam.org
    \\  /    A nd           | Version:  7
     \\/     M anipulation  |
\*---------------------------------------------------------------------------*/
FoamFile
{
    version     2.0;
    format      ascii;
    class       volVectorField;
    location    "9000";
    object      U;
}
// * * * * * * * * * * * * * * * * * * * * * * * * * * * * * * * * * * * * * //

dimensions      [0 1 -1 0 0 0 0];

internalField   nonuniform List<vector> 
33730
(
(-3.0678665e+52 -1.6029115e+52 3.9472189e+51)
(-2.8928689e+52 -9.7170402e+51 3.7243063e+51)
(-2.9256165e+52 -7.9481121e+51 5.0704668e+51)
(-2.786482e+52 -7.163098e+51 1.3694346e+51)
(-2.9338337e+52 -7.0246494e+51 2.8568751e+51)
(-2.979572e+52 -7.741205e+51 -2.0754991e+51)
(-2.2887404e+52 -8.7518206e+51 2.9913476e+51)
(-3.0058188e+52 -1.0044785e+52 -2.1683015e+51)
(-2.3013056e+52 -1.1780993e+52 2.8501606e+51)
(-2.4415131e+52 -4.6749078e+51 4.0272714e+51)
(-2.4219767e+52 -5.9243708e+51 3.1376878e+51)
(-2.5772359e+52 -4.5849898e+51 5.3539349e+51)
(-2.4705733e+52 -4.8229407e+51 6.0248431e+51)
(-2.5359208e+52 -5.8155086e+51 3.5758772e+51)
(-2.5650956e+52 -4.7434144e+51 5.7771183e+51)
(-2.4559566e+52 -5.3561928e+51 6.5873529e+51)
(-2.5332726e+52 -4.4851925e+51 4.4303828e+51)
(-2.838807e+52 -5.158923e+51 -1.9427671e+51)
(-2.9063096e+52 -4.2855526e+51 4.1324756e+51)
(-2.8292011e+52 -5.0700015e+51 4.2636419e+51)
(-2.6945292e+52 -5.7965427e+51 -3.0801548e+51)
(-2.7244074e+52 -7.4721249e+51 4.7184095e+51)
(-2.579466e+52 -5.3058738e+51 2.2838294e+50)
(-2.6914936e+52 -4.1548991e+51 3.0087565e+51)
(-2.6620032e+52 -4.069034e+51 2.3974635e+51)
(-2.7372952e+52 -4.6002815e+51 3.6527816e+51)
(-2.6975364e+52 -4.110753e+51 2.5142827e+51)
(-2.4040472e+52 -5.422625e+51 -9.685578e+50)
(-2.3795084e+52 -4.7497627e+51 -3.9491899e+51)
(-2.2382097e+52 -4.8386035e+51 -4.3939539e+51)
(-2.3594113e+52 -4.2156499e+51 -1.396666e+51)
(-2.2742891e+52 -4.6698833e+51 -2.6750466e+51)
(-2.3138873e+52 -6.1039061e+51 -2.6835995e+51)
(-1.6334907e+52 -5.5914617e+51 2.4787047e+51)
(-1.602202e+52 -8.2563757e+51 1.9783626e+51)
(-2.325528e+52 -5.3007435e+51 -9.0219997e+50)
(-2.3044658e+52 -4.4896942e+51 -3.7105574e+51)
(-2.1658067e+52 -4.5382939e+51 -4.3107324e+51)
(-2.2855271e+52 -4.0411052e+51 -1.1997336e+51)
(-2.2638989e+52 -6.2361774e+51 -2.6811769e+51)
(-2.2294449e+52 -4.8102187e+51 -2.5803722e+51)
(-1.552321e+52 -8.2481326e+51 1.910952e+51)
(-1.5926979e+52 -5.819765e+51 2.4065114e+51)
(-2.0445915e+52 -3.7888872e+51 3.0746378e+51)
(-2.3618105e+52 -2.9957185e+51 4.3801867e+51)
(-2.0499214e+52 -2.7862479e+51 3.6741017e+51)
(-2.3039963e+52 -3.1797669e+51 4.7707623e+51)
(-1.9784924e+52 -3.7345329e+51 2.8128703e+51)
(-2.0002574e+52 -3.0166297e+51 3.4174547e+51)
(-2.3264662e+52 -3.1077584e+51 4.6412584e+51)
(-2.3661538e+52 -2.9278048e+51 4.2950213e+51)
(-2.3551375e+52 -3.1192866e+51 4.7367421e+51)
(-2.07139e+52 -2.7340898e+51 3.4843827e+51)
(-2.3759931e+52 -3.042854e+51 4.186363e+51)
(-2.0381176e+52 -3.6458434e+51 2.8524475e+51)
(-2.1319812e+52 -2.6025811e+51 3.908271e+51)
(-2.1238084e+52 -3.5127886e+51 3.2931159e+51)
(-2.3553651e+52 -3.4324714e+51 5.2260673e+51)
(-2.4055151e+52 -3.0563653e+51 4.7941336e+51)
(-2.6608327e+52 -4.1423305e+51 1.476066e+51)
(-2.5593675e+52 -2.9424271e+51 -2.1170271e+51)
(-2.4891162e+52 -1.7011954e+51 -2.6818037e+50)
(-2.4176808e+52 -1.927257e+51 -2.0641858e+51)
(-2.6727692e+52 -2.6131882e+51 8.4779825e+49)
(-2.7203732e+52 -2.4884038e+51 1.0262537e+51)
(-2.5615562e+52 -2.9808917e+51 -2.7800952e+51)
(-2.6343346e+52 -6.4300895e+51 4.806103e+51)
(-2.4685581e+52 -3.3477755e+51 -3.1257999e+51)
(-2.736225e+52 -3.1152106e+51 3.0727207e+51)
(-2.6478549e+52 -2.8415056e+51 -1.4168648e+51)
(-2.6535484e+52 -3.5676948e+51 -1.5853434e+51)
(-2.6417584e+52 -4.5275793e+51 3.1862348e+51)
(-2.6973916e+52 -4.0738846e+51 4.4414403e+51)
(-2.4031343e+52 -5.1753963e+51 8.1469766e+50)
(-2.5622238e+52 -4.1085294e+51 1.3376029e+51)
(-2.6639436e+52 -2.6643732e+51 7.3102096e+50)
(-2.4985208e+52 -3.1318235e+51 -3.3765951e+51)
(-2.475895e+52 -2.5763217e+51 -2.974536e+51)
(-2.5688407e+52 -3.616429e+51 9.52158e+50)
(-2.739125e+52 -3.389077e+51 -1.368869e+51)
(-2.7919786e+52 -3.401146e+51 -5.6590183e+50)
(-2.7272499e+52 -3.0732294e+51 3.0441243e+51)
(-2.6544126e+52 -4.8637681e+51 3.4179634e+51)
(-3.0905634e+52 -3.8123094e+51 5.6598364e+51)
(-2.5987701e+52 -2.4267278e+51 2.5226672e+51)
(-2.1134148e+52 -3.48679e+51 8.7314982e+50)
(-2.3716522e+52 -2.6021295e+51 2.3766779e+51)
(-2.3833707e+52 -2.8521227e+51 2.9795366e+51)
(-2.3900004e+52 -2.7997195e+51 2.8225091e+51)
(-2.3659187e+52 -2.6467299e+51 2.4773369e+51)
(-2.4303187e+52 -2.7063956e+51 2.7705641e+51)
(-2.4486504e+52 -3.1568867e+51 3.4583196e+51)
(-2.4361869e+52 -2.8800127e+51 2.9525204e+51)
(-2.3915615e+52 -2.7030726e+51 2.391563e+51)
(-2.9757334e+52 -7.878059e+51 -2.8891169e+51)
(-3.0129534e+52 -7.7662246e+51 -2.7654767e+51)
(-2.7167437e+52 -4.2543638e+51 -3.3603512e+51)
(-2.5548061e+52 -4.4914178e+51 1.923499e+50)
(-2.5744143e+52 -4.2658226e+51 -6.7376288e+50)
(-2.7256526e+52 -4.4054776e+51 -3.6569269e+51)
(-1.9963113e+52 -2.9325935e+51 -3.9293042e+51)
(-1.7277811e+52 -3.5891497e+51 -2.2650481e+51)
(-1.9439472e+52 -3.0760842e+51 -4.2694865e+51)
(-1.7015257e+52 -2.8424778e+51 -2.5337645e+51)
(-1.9371831e+52 -2.8431158e+51 -3.990991e+51)
(-1.9900864e+52 -2.9914476e+51 -3.6770977e+51)
(-1.7075334e+52 -3.7373367e+51 -2.1722425e+51)
(-1.6823175e+52 -2.7024786e+51 -2.2597246e+51)
(-1.3644799e+52 -4.3660393e+51 -2.1635427e+51)
(-1.3417564e+52 -3.5131047e+51 -2.064522e+51)
(-1.1395576e+52 -5.5993957e+51 2.3134835e+51)
(-1.1698107e+52 -3.3144543e+51 2.9610463e+51)
(-1.3389722e+52 -4.5192905e+51 -2.1344193e+51)
(-1.3346886e+52 -3.5208966e+51 -1.8855791e+51)
(-1.0708827e+52 -5.7365553e+51 1.8592452e+51)
(-1.1510303e+52 -3.5711002e+51 2.8540946e+51)
(-2.6377755e+52 -4.3441962e+51 -3.3416002e+51)
(-2.4739183e+52 -4.4134218e+51 3.1692905e+50)
(-2.4798244e+52 -4.1764306e+51 -5.4555091e+50)
(-2.6504046e+52 -4.440305e+51 -3.4853953e+51)
(-1.8799319e+52 -2.7008529e+51 -3.8453128e+51)
(-1.937972e+52 -2.8066854e+51 -3.5559539e+51)
(-1.6644275e+52 -3.6426329e+51 -2.079584e+51)
(-1.6319401e+52 -2.7410132e+51 -2.2094711e+51)
(-1.8896974e+52 -2.8919721e+51 -4.0209448e+51)
(-1.9484655e+52 -2.8178682e+51 -3.6955541e+51)
(-1.6556503e+52 -2.8041549e+51 -2.3758986e+51)
(-1.681018e+52 -3.5869176e+51 -2.1177915e+51)
(-1.3246098e+52 -4.6491867e+51 -2.1040036e+51)
(-1.3081338e+52 -3.8077142e+51 -1.8275044e+51)
(-1.0604437e+52 -5.8104396e+51 2.0708925e+51)
(-1.1079639e+52 -3.8904994e+51 2.8403309e+51)
(-1.3386987e+52 -4.5586331e+51 -2.0898125e+51)
(-1.3163825e+52 -3.6246788e+51 -1.9489266e+51)
(-1.0946335e+52 -5.8311204e+51 2.090309e+51)
(-1.1288023e+52 -3.5638055e+51 2.8097732e+51)
(-2.0526249e+52 -2.1271897e+51 3.6426987e+51)
(-1.7339635e+52 -2.6632359e+51 2.8539865e+51)
(-1.7231021e+52 -1.9721804e+51 3.177789e+51)
(-2.0428699e+52 -2.0743138e+51 3.9224179e+51)
(-1.7552535e+52 -2.4919664e+51 3.0271448e+51)
(-1.7529809e+52 -1.7225842e+51 3.4388414e+51)
(-2.0461192e+52 -2.114827e+51 4.2705338e+51)
(-2.0670139e+52 -2.0557021e+51 3.9243348e+51)
(-1.6990845e+52 -2.5406843e+51 2.9065231e+51)
(-1.6938814e+52 -2.0593681e+51 3.2115488e+51)
(-2.0383138e+52 -2.0623547e+51 3.7490481e+51)
(-2.0356168e+52 -2.1557469e+51 3.969937e+51)
(-1.7307882e+52 -2.6954296e+51 2.9649266e+51)
(-1.7248385e+52 -1.9471011e+51 3.3659644e+51)
(-2.0618696e+52 -2.1574554e+51 3.8233441e+51)
(-2.0354064e+52 -2.1713939e+51 4.0726403e+51)
(-1.7867125e+52 -2.5424607e+51 3.0299394e+51)
(-1.7946854e+52 -1.7114948e+51 3.4338662e+51)
(-2.1151937e+52 -2.1525129e+51 3.9616686e+51)
(-2.095207e+52 -2.1721663e+51 4.2489496e+51)
(-1.7508378e+52 -2.4843403e+51 2.8924562e+51)
(-1.7565116e+52 -1.9006203e+51 3.197042e+51)
(-2.0824637e+52 -2.0940363e+51 3.7035983e+51)
(-2.0807409e+52 -2.1630663e+51 3.992671e+51)
(-1.8293664e+52 -2.3836817e+51 3.2717916e+51)
(-2.1392062e+52 -2.1484258e+51 4.3175224e+51)
(-2.1211985e+52 -2.2844481e+51 4.6058284e+51)
(-1.8260532e+52 -1.648695e+51 3.7021245e+51)
(-1.7978523e+52 -2.4602946e+51 3.0386012e+51)
(-1.7967958e+52 -1.7048191e+51 3.296857e+51)
(-2.1234152e+52 -2.1201321e+51 4.0136659e+51)
(-2.1127442e+52 -2.1163738e+51 4.2175294e+51)
(-2.4030704e+52 -1.8421626e+51 -1.2345473e+51)
(-2.3928836e+52 -1.925488e+51 -1.6887527e+51)
(-2.3940106e+52 -2.5142445e+51 3.4365487e+50)
(-2.4204754e+52 -1.6725191e+51 6.7851852e+49)
(-1.9971677e+52 -1.6359172e+51 -1.2175392e+51)
(-2.0465862e+52 -1.482502e+51 -2.7040021e+50)
(-2.4340121e+52 -2.2353856e+51 1.6860591e+50)
(-2.4546257e+52 -1.4226078e+51 -9.5808204e+49)
(-2.3782516e+52 -1.6159001e+51 -1.9212497e+51)
(-2.3970015e+52 -1.5694449e+51 -1.5318914e+51)
(-2.4789703e+52 -3.8377825e+51 3.4089217e+50)
(-2.0378584e+52 -1.4961901e+51 -1.1076893e+51)
(-2.0617508e+52 -1.379574e+51 -3.8981803e+50)
(-2.0437799e+52 -1.2130874e+51 -9.400749e+50)
(-2.0667236e+52 -1.5865232e+51 -2.951722e+50)
(-2.1412396e+52 -1.2104413e+51 -2.8309195e+50)
(-2.1336077e+52 -1.4635591e+51 -2.121252e+50)
(-2.1222755e+52 -1.294417e+51 -1.5905303e+51)
(-2.4802455e+52 -1.5494143e+51 -6.7011227e+50)
(-2.1231206e+52 -1.1405492e+51 -1.5608025e+51)
(-2.4050634e+52 -1.2637283e+51 -2.3699353e+51)
(-2.423812e+52 -1.8154808e+51 -2.4857558e+51)
(-2.3870079e+52 -1.4167482e+51 -1.5136347e+51)
(-2.3563886e+52 -1.832519e+51 -1.9468831e+51)
(-2.3947261e+52 -1.5703595e+51 -1.2697422e+50)
(-2.3999094e+52 -2.1739006e+51 1.0092828e+50)
(-2.437383e+52 -1.8610798e+51 -6.2274038e+49)
(-2.3761369e+52 -1.2395276e+51 -1.8037466e+51)
(-2.3588643e+52 -1.5524606e+51 -2.0356345e+51)
(-2.4402366e+52 -1.2712808e+51 -1.8817079e+50)
(-2.5973672e+52 -2.3262912e+51 3.6228257e+50)
(-2.4122503e+52 -3.0105803e+51 -2.7423464e+51)
(-2.4104692e+52 -2.9643172e+51 -2.2229631e+51)
(-2.3746063e+52 -1.6438362e+51 -2.4030074e+51)
(-2.3573019e+52 -1.2037141e+51 -2.7193286e+51)
(-2.5287967e+52 -1.2118171e+51 -2.3241519e+50)
(-2.4690539e+52 -1.7754617e+51 -4.7597492e+50)
(-2.4626378e+52 -2.0867734e+51 2.9425092e+51)
(-2.4241488e+52 -2.0955254e+51 1.2708139e+50)
(-2.3975623e+52 -2.4468888e+51 -8.6974837e+49)
(-2.4402934e+52 -3.0969448e+51 3.0208417e+51)
(-2.4003498e+52 -1.7607266e+51 1.0151646e+51)
(-2.3093378e+52 -1.7723855e+51 -1.1281498e+51)
(-2.3047283e+52 -1.9812098e+51 -1.5317132e+51)
(-2.374329e+52 -2.5745251e+51 1.3082049e+51)
(-2.4113149e+52 -1.8922745e+51 1.0089671e+51)
(-2.3265383e+52 -1.8429242e+51 -1.0378129e+51)
(-2.2996265e+52 -2.2014045e+51 -1.4413872e+51)
(-2.4186021e+52 -2.5507374e+51 1.2951522e+51)
(-2.4131509e+52 -2.3352604e+51 -4.9240865e+49)
(-2.4240788e+52 -2.2311226e+51 2.5517127e+50)
(-2.4066974e+52 -3.0990543e+51 2.9991513e+51)
(-2.4462258e+52 -2.0159773e+51 2.8209885e+51)
(-2.8740722e+52 -5.2859781e+51 6.2600272e+51)
(-2.9006498e+52 -3.8737416e+51 6.5213965e+51)
(-1.9823834e+52 -4.4398835e+51 -5.2771125e+51)
(-1.9571461e+52 -6.358272e+51 -5.3817593e+51)
(-2.3223869e+52 -2.5614302e+51 -2.4558222e+51)
(-2.3680231e+52 -3.1218869e+51 -2.8348007e+51)
(-2.5636396e+52 -2.3828722e+51 1.2320156e+50)
(-2.4334253e+52 -3.598e+51 1.131848e+50)
(-2.4608074e+52 -2.4110233e+51 2.8633212e+51)
(-1.9565064e+52 -3.4949464e+51 1.4624567e+51)
(-2.0080631e+52 -2.9632129e+51 1.7466363e+51)
(-2.3942568e+52 -3.7480643e+51 2.8630376e+51)
(-2.5255425e+52 -2.2454924e+51 2.9144658e+51)
(-2.0492746e+52 -3.2330775e+51 1.2709555e+51)
(-2.09394e+52 -3.1431497e+51 1.6749911e+51)
(-2.472982e+52 -4.1787931e+51 3.0129226e+51)
(-2.2980644e+52 -1.9963262e+51 -1.8362165e+51)
(-2.3582146e+52 -1.7671044e+51 -1.0350357e+50)
(-2.3297378e+52 -2.2346957e+51 4.2140231e+49)
(-2.299378e+52 -1.4125798e+51 -1.7655294e+51)
(-2.3727125e+52 -1.5053418e+51 -3.9172763e+50)
(-2.3221091e+52 -1.178644e+51 -2.137093e+51)
(-2.3146489e+52 -1.6757414e+51 -2.4090313e+51)
(-2.3601747e+52 -1.871749e+51 -1.9873145e+50)
(-2.3102008e+52 -1.5059097e+51 -2.4464783e+51)
(-2.3361184e+52 -1.8343544e+51 -1.8204571e+50)
(-2.3611516e+52 -1.2546939e+51 -3.8538743e+50)
(-2.3036385e+52 -1.2346056e+51 -2.0988715e+51)
(-2.2947523e+52 -1.7184317e+51 -2.0537178e+51)
(-2.3104976e+52 -1.4418954e+51 -1.399178e+51)
(-2.3275075e+52 -1.4903121e+51 -3.4206342e+50)
(-2.3062232e+52 -2.0490774e+51 -9.9272988e+49)
(-2.4388781e+52 -2.5640288e+51 1.2557408e+51)
(-2.3529734e+52 -2.0395969e+51 -1.3491139e+51)
(-2.4451448e+52 -1.7941524e+51 1.0253341e+51)
(-2.3882718e+52 -1.8144897e+51 -1.028655e+51)
(-2.3903558e+52 -2.134931e+51 -1.1776322e+51)
(-2.4631995e+52 -1.9132334e+51 1.2792934e+51)
(-2.435908e+52 -3.0281895e+51 1.6189186e+51)
(-2.4006943e+52 -2.2167746e+51 -7.232402e+50)
(-2.4460274e+52 -2.4437333e+51 -1.3275814e+50)
(-2.4775535e+52 -2.1381193e+51 2.8758874e+51)
(-2.4831528e+52 -2.1935154e+51 2.9833922e+50)
(-2.4654249e+52 -3.2043298e+51 3.0576867e+51)
(-2.5112532e+52 -2.604848e+51 6.8362203e+50)
(-2.4826917e+52 -2.5117482e+51 1.0286928e+50)
(-2.4926139e+52 -2.1619308e+51 3.1475174e+51)
(-2.4562007e+52 -3.4342836e+51 3.4207087e+51)
(-2.4845671e+52 -3.5352229e+51 5.5966859e+51)
(-1.6100214e+52 -5.0392658e+51 -2.6927233e+51)
(-2.4821776e+52 -1.3429514e+51 -5.4355275e+50)
(-2.2674757e+52 -1.9370075e+51 -2.5692169e+51)
(-2.2594556e+52 -1.3053438e+51 -2.3275916e+51)
(-2.4416591e+52 -1.8038682e+51 -6.5998404e+50)
(-2.0108576e+52 -2.4885775e+51 5.1010799e+49)
(-2.4332778e+52 -1.3758245e+51 1.4055207e+51)
(-2.0340869e+52 -2.2359118e+51 2.8323962e+50)
(-2.4104382e+52 -2.2668777e+51 1.4322931e+51)
(-2.0232864e+52 -1.8745345e+51 2.153372e+51)
(-2.0474052e+52 -1.9465126e+51 2.4328863e+51)
(-2.0431829e+52 -2.0189194e+51 2.686593e+51)
(-2.036868e+52 -1.8098801e+51 2.274785e+51)
(-2.0305203e+52 -1.8694777e+51 2.21715e+51)
(-2.04053e+52 -2.0221524e+51 2.5805799e+51)
(-2.0063993e+52 -1.8790582e+51 2.2512534e+51)
(-2.0369037e+52 -2.0038133e+51 2.5011556e+51)
(-2.1123702e+52 -2.0093807e+51 2.6564252e+51)
(-2.0874996e+52 -1.896442e+51 2.3649327e+51)
(-2.1070681e+52 -1.9129606e+51 2.5696531e+51)
(-2.1195368e+52 -2.2116938e+51 2.9987558e+51)
(-2.0930586e+52 -2.0381885e+51 2.655987e+51)
(-2.0798032e+52 -1.8702339e+51 2.2505345e+51)
(-2.0842697e+52 -2.0016395e+51 2.5031153e+51)
(-2.0500692e+52 -1.8656984e+51 2.2242344e+51)
(-2.9852845e+52 -6.8747944e+51 -2.5077736e+51)
(-3.0246529e+52 -6.7713545e+51 -2.1758732e+51)
(-2.7827936e+52 -3.6334944e+51 -2.686831e+51)
(-2.1262282e+52 -2.6517405e+51 -2.2207348e+51)
(-2.1061545e+52 -2.8561887e+51 -1.7266454e+51)
(-2.5191279e+52 -3.3697359e+51 -2.3659107e+51)
(-2.4510694e+52 -4.7258038e+51 -2.8927017e+51)
(-2.8006559e+52 -3.7347717e+51 -2.9205654e+51)
(-2.1547115e+52 -2.8054504e+51 -2.5372992e+51)
(-2.1290833e+52 -2.805084e+51 -1.9545753e+51)
(-2.1091549e+52 -2.9055004e+51 -4.4057462e+51)
(-2.1012626e+52 -3.0228853e+51 -4.5875852e+51)
(-2.081549e+52 -3.0638887e+51 -4.2959835e+51)
(-2.0800762e+52 -3.0096867e+51 -4.4016897e+51)
(-1.1063956e+52 -2.2308591e+51 -3.4944338e+51)
(-1.1000705e+52 -2.1751301e+51 -3.6427758e+51)
(-1.0273911e+52 -2.3035537e+51 -1.8748572e+51)
(-1.0182112e+52 -3.1011015e+51 -1.9649676e+51)
(-1.0971232e+52 -2.3451081e+51 -3.7868903e+51)
(-1.1094554e+52 -2.239575e+51 -3.5986373e+51)
(-1.026811e+52 -3.0177289e+51 -1.916759e+51)
(-1.0156011e+52 -2.4123103e+51 -2.0327336e+51)
(-1.0559518e+52 -3.3277488e+51 2.997583e+51)
(-1.1019585e+52 -1.9225533e+51 3.5892169e+51)
(-6.9076271e+51 -3.4163748e+51 -1.7261258e+50)
(-7.3476919e+51 -2.9589618e+51 7.0522806e+50)
(-7.1125469e+51 -3.3513108e+51 1.4321534e+50)
(-1.0994116e+52 -3.2463454e+51 3.2402156e+51)
(-7.2679791e+51 -2.8902535e+51 7.9019734e+50)
(-1.1212314e+52 -1.6253892e+51 3.7243813e+51)
(-1.0970901e+52 -2.2642613e+51 -3.3869084e+51)
(-1.0909782e+52 -2.2096417e+51 -3.5412334e+51)
(-1.0125869e+52 -2.4347121e+51 -1.816551e+51)
(-1.0039144e+52 -3.1943192e+51 -1.9226332e+51)
(-1.0886749e+52 -2.2039955e+51 -3.4311275e+51)
(-1.0709617e+52 -2.2214501e+51 -3.6177832e+51)
(-1.0186956e+52 -3.0975333e+51 -1.8031003e+51)
(-9.9966583e+51 -2.3846892e+51 -1.8718876e+51)
(-1.0231811e+52 -3.4465e+51 2.9345952e+51)
(-1.0576725e+52 -2.1895442e+51 3.4117052e+51)
(-6.7203409e+51 -3.490251e+51 -2.5093349e+50)
(-7.1812963e+51 -3.140737e+51 6.8393503e+50)
(-1.0719349e+52 -3.5129104e+51 3.0477242e+51)
(-1.1004377e+52 -1.8004217e+51 3.6284133e+51)
(-7.0517055e+51 -3.4716298e+51 3.2992964e+49)
(-7.1103884e+51 -2.9182184e+51 6.8781088e+50)
(-2.7057407e+52 -3.8395814e+51 -2.6738446e+51)
(-2.0466554e+52 -2.7688078e+51 -1.6470078e+51)
(-2.065157e+52 -2.6175382e+51 -2.1576699e+51)
(-2.4384765e+52 -3.3647226e+51 -2.4134748e+51)
(-2.3517109e+52 -4.5644588e+51 -2.8726848e+51)
(-2.7162259e+52 -3.7874985e+51 -2.8036564e+51)
(-2.0713938e+52 -2.7586986e+51 -1.752821e+51)
(-2.0806624e+52 -2.7197309e+51 -2.3271472e+51)
(-2.046232e+52 -3.3779536e+51 -4.3043795e+51)
(-2.0388689e+52 -3.2914008e+51 -4.3623907e+51)
(-2.054947e+52 -3.1457715e+51 -4.4651687e+51)
(-2.0595965e+52 -3.1656363e+51 -4.3108496e+51)
(-1.0715019e+52 -2.0626169e+51 -3.2413155e+51)
(-1.0566474e+52 -2.0347151e+51 -3.4013605e+51)
(-9.8905327e+51 -2.5789807e+51 -1.7363016e+51)
(-9.9782843e+51 -3.2712724e+51 -1.8438792e+51)
(-1.0675149e+52 -2.0699529e+51 -3.2899386e+51)
(-1.0451301e+52 -2.0956725e+51 -3.5141385e+51)
(-1.0058763e+52 -3.2373366e+51 -1.7219063e+51)
(-9.778641e+51 -2.5732811e+51 -1.8063647e+51)
(-6.7274067e+51 -3.5909765e+51 -2.1593161e+49)
(-9.9251299e+51 -3.4607297e+51 3.1441953e+51)
(-1.005742e+52 -2.2445546e+51 3.4412711e+51)
(-7.083035e+51 -3.2972783e+51 9.928528e+50)
(-1.0227253e+52 -3.5979575e+51 2.9856996e+51)
(-1.0387345e+52 -2.0233098e+51 3.4646655e+51)
(-6.9611958e+51 -3.6122726e+51 1.8538094e+50)
(-6.9478863e+51 -3.1303939e+51 8.4822088e+50)
(-1.0770898e+52 -2.1154229e+51 -3.2983373e+51)
(-1.0654937e+52 -2.0365745e+51 -3.4730939e+51)
(-1.0000554e+52 -3.2292015e+51 -1.8607643e+51)
(-9.9779577e+51 -2.4291835e+51 -1.7571711e+51)
(-1.0881341e+52 -2.1062292e+51 -3.4579446e+51)
(-1.0718354e+52 -2.1880117e+51 -3.6631434e+51)
(-1.0153282e+52 -3.0848609e+51 -1.7918689e+51)
(-9.9241799e+51 -2.4546928e+51 -1.9023605e+51)
(-6.6837303e+51 -3.5478339e+51 -2.0463985e+50)
(-1.0049445e+52 -3.5442231e+51 2.7807827e+51)
(-1.0424077e+52 -2.1688891e+51 3.3471584e+51)
(-7.1058008e+51 -3.1233421e+51 8.1224765e+50)
(-1.0577781e+52 -3.3985383e+51 3.1036349e+51)
(-1.066823e+52 -1.8037014e+51 3.5722376e+51)
(-7.0285779e+51 -3.4168378e+51 1.0628261e+50)
(-6.987416e+51 -2.9459282e+51 6.6350506e+50)
(-1.3123767e+52 -1.5379166e+51 3.2619482e+51)
(-1.3034146e+52 -2.204051e+51 3.0858714e+51)
(-1.8073603e+52 -1.5798424e+51 3.3024655e+51)
(-1.8069329e+52 -1.5298834e+51 3.4051352e+51)
(-1.3332277e+52 -1.3454517e+51 3.4361736e+51)
(-1.3304376e+52 -2.2797721e+51 3.1670069e+51)
(-1.8194138e+52 -1.5338783e+51 3.2564041e+51)
(-1.8035266e+52 -1.462424e+51 3.3433349e+51)
(-1.3406593e+52 -1.3578478e+51 3.3459255e+51)
(-1.3242207e+52 -2.1875655e+51 3.1108371e+51)
(-1.8217589e+52 -1.5173344e+51 3.3197797e+51)
(-1.8137497e+52 -1.4209445e+51 3.3718164e+51)
(-1.377208e+52 -1.2171423e+51 3.5853076e+51)
(-1.3740383e+52 -2.0836335e+51 3.311591e+51)
(-1.8417727e+52 -1.4469871e+51 3.5318984e+51)
(-1.806712e+52 -1.4302127e+51 3.5611363e+51)
(-1.3150603e+52 -1.4992413e+51 3.4429638e+51)
(-1.3243394e+52 -2.1312961e+51 3.333876e+51)
(-1.7869982e+52 -1.5531225e+51 3.3472632e+51)
(-1.787596e+52 -1.5289149e+51 3.4833756e+51)
(-1.3351833e+52 -1.4517264e+51 3.5705119e+51)
(-1.3135975e+52 -2.280415e+51 3.2034289e+51)
(-1.8021891e+52 -1.5953993e+51 3.3306516e+51)
(-1.7900597e+52 -1.5595719e+51 3.4272396e+51)
(-1.3289848e+52 -1.5264788e+51 3.406835e+51)
(-1.3056192e+52 -2.3027998e+51 3.1180708e+51)
(-1.8053524e+52 -1.6266556e+51 3.2181493e+51)
(-1.8084533e+52 -1.522381e+51 3.4433483e+51)
(-1.3398219e+52 -1.3391294e+51 3.5990053e+51)
(-1.3318594e+52 -2.2376764e+51 3.2704189e+51)
(-1.8123535e+52 -1.5356561e+51 3.3683726e+51)
(-1.7915306e+52 -1.5129736e+51 3.440189e+51)
(-1.3558697e+52 -1.3892394e+51 3.2971675e+51)
(-1.3365726e+52 -2.2049751e+51 3.073301e+51)
(-1.8569592e+52 -1.602245e+51 3.231165e+51)
(-1.8539528e+52 -1.4812808e+51 3.3782825e+51)
(-1.3682956e+52 -1.2600511e+51 3.497439e+51)
(-1.3682986e+52 -2.1382504e+51 3.2985825e+51)
(-1.8667331e+52 -1.5038665e+51 3.5267205e+51)
(-1.8492362e+52 -1.4853062e+51 3.5276969e+51)
(-1.3399809e+52 -1.4158985e+51 3.2861631e+51)
(-1.322171e+52 -2.1212315e+51 3.1195068e+51)
(-1.8323566e+52 -1.502668e+51 3.2451015e+51)
(-1.8398866e+52 -1.4856375e+51 3.4662325e+51)
(-1.3481732e+52 -1.2887233e+51 3.3986526e+51)
(-1.3485982e+52 -2.1623111e+51 3.1788469e+51)
(-1.8566994e+52 -1.5533592e+51 3.3329783e+51)
(-1.8437341e+52 -1.5122686e+51 3.4258517e+51)
(-1.4330179e+52 -1.3628027e+51 3.5681455e+51)
(-1.4117239e+52 -2.1651552e+51 3.3035187e+51)
(-1.8974919e+52 -1.5430378e+51 3.5107114e+51)
(-1.8974279e+52 -1.4596129e+51 3.6913651e+51)
(-1.4243546e+52 -1.3250893e+51 3.7764511e+51)
(-1.4323772e+52 -2.1455718e+51 3.4330646e+51)
(-1.8864483e+52 -1.5615393e+51 3.7149079e+51)
(-1.8750167e+52 -1.5963721e+51 3.8700307e+51)
(-1.4112449e+52 -1.3306035e+51 3.4699964e+51)
(-1.3958393e+52 -2.1852827e+51 3.2652518e+51)
(-1.884015e+52 -1.5328218e+51 3.4724837e+51)
(-1.8706799e+52 -1.4727178e+51 3.536608e+51)
(-1.3761288e+52 -1.1922982e+51 3.4656413e+51)
(-1.3898782e+52 -2.0843418e+51 3.332225e+51)
(-1.8830092e+52 -1.5049551e+51 3.5426122e+51)
(-1.8675973e+52 -1.4615976e+51 3.5254578e+51)
(-3.1545552e+52 -3.8826204e+51 -4.195124e+51)
(-1.9908449e+52 -1.385534e+51 -1.0523203e+51)
(-1.9949573e+52 -1.4224799e+51 -8.3373257e+50)
(-2.034986e+52 -1.2486228e+51 -6.4650566e+49)
(-2.0305259e+52 -1.7491225e+51 1.1185818e+50)
(-1.980528e+52 -1.3473737e+51 -1.2141675e+51)
(-2.0290094e+52 -1.1764021e+51 -2.4784963e+50)
(-1.9911846e+52 -1.1619072e+51 -1.0519556e+51)
(-2.0305361e+52 -1.4655113e+51 -1.176311e+50)
(-1.9827947e+52 -1.5295924e+51 -1.0727434e+51)
(-2.0087545e+52 -1.3488468e+51 -9.6639727e+49)
(-1.990489e+52 -1.5183662e+51 -8.2984232e+50)
(-2.0016229e+52 -1.8515251e+51 7.0026016e+49)
(-1.9724099e+52 -1.4631113e+51 -1.2285926e+51)
(-2.0036705e+52 -1.3053792e+51 -2.5415846e+50)
(-1.9847207e+52 -1.2261732e+51 -1.0425038e+51)
(-2.0052907e+52 -1.6345264e+51 -1.2613912e+50)
(-1.6806868e+52 -1.3760376e+51 -9.9159548e+50)
(-1.711171e+52 -1.3233303e+51 -3.2658901e+50)
(-1.6514667e+52 -1.3392143e+51 -9.6907884e+50)
(-1.6980224e+52 -1.2268194e+51 -4.4867069e+50)
(-1.670698e+52 -1.1917141e+51 -8.3887293e+50)
(-1.665071e+52 -1.3516677e+51 -9.9026768e+50)
(-1.7049439e+52 -1.2547272e+51 -4.5018667e+50)
(-1.6870373e+52 -1.1391479e+51 -8.2559992e+50)
(-1.6538307e+52 -1.2537589e+51 -9.723936e+50)
(-1.7024876e+52 -1.1477311e+51 -4.2773889e+50)
(-2.0303522e+52 -1.2753689e+51 -9.6115776e+50)
(-2.0509282e+52 -1.1356788e+51 -2.3331382e+50)
(-2.0355179e+52 -1.28115e+51 -7.4291873e+50)
(-2.0455288e+52 -1.5824413e+51 -9.5043989e+49)
(-2.0215904e+52 -1.2257546e+51 -1.125958e+51)
(-2.0454042e+52 -1.1105648e+51 -4.0489831e+50)
(-2.027339e+52 -1.0027265e+51 -9.6593056e+50)
(-2.0458038e+52 -1.3759805e+51 -3.0259226e+50)
(-2.1230458e+52 -9.5199078e+50 -3.1127889e+50)
(-2.1215032e+52 -1.234442e+51 -1.956636e+50)
(-2.103703e+52 -1.0441816e+51 -1.6333427e+51)
(-2.1020435e+52 -9.0750115e+50 -1.4723003e+51)
(-2.4178193e+52 -1.2391e+51 -5.0028258e+50)
(-2.1292425e+52 -9.8208857e+50 -1.2995432e+50)
(-2.1238415e+52 -1.4831071e+51 1.408526e+49)
(-2.119036e+52 -1.1357979e+51 -1.26689e+51)
(-2.1109724e+52 -1.0513239e+51 -1.4414226e+51)
(-2.4245236e+52 -1.9447559e+51 -1.5543737e+50)
(-2.3597604e+52 -1.578631e+51 -2.5492115e+51)
(-2.3764508e+52 -1.3448531e+51 -1.5231163e+51)
(-1.6686401e+52 -1.3839114e+51 -3.3521958e+50)
(-1.5845207e+52 -1.4421028e+51 -8.6805561e+50)
(-1.6606532e+52 -1.2531596e+51 -4.0399339e+50)
(-1.5937729e+52 -1.3332754e+51 -7.953304e+50)
(-1.6229277e+52 -1.3600777e+51 -9.6313479e+50)
(-1.6769022e+52 -1.2380927e+51 -4.6890415e+50)
(-1.6885636e+52 -1.3691238e+51 -3.8088583e+50)
(-1.6406267e+52 -1.181066e+51 -8.34485e+50)
(-1.6746174e+52 -1.3937385e+51 -3.1900023e+50)
(-1.5855557e+52 -1.3400328e+51 -8.604434e+50)
(-1.666475e+52 -1.144133e+51 -4.0352119e+50)
(-1.5974248e+52 -1.312176e+51 -7.798433e+50)
(-1.6233257e+52 -1.2648391e+51 -9.7971836e+50)
(-1.6801715e+52 -1.1338998e+51 -4.6213595e+50)
(-1.640275e+52 -1.2126705e+51 -8.4393065e+50)
(-1.687156e+52 -1.3576614e+51 -3.7180355e+50)
(-1.4945762e+52 -1.5151609e+51 -9.6000932e+50)
(-1.4956658e+52 -1.6984587e+51 -9.4403222e+50)
(-1.6232515e+52 -1.3898088e+51 -2.4868175e+50)
(-1.6308203e+52 -1.5238331e+51 -2.270333e+50)
(-1.6139145e+52 -1.3207242e+51 -2.4776345e+50)
(-1.622747e+52 -1.4878069e+51 -2.2702203e+50)
(-1.4750137e+52 -1.494001e+51 -1.0618573e+51)
(-1.4765129e+52 -1.7278685e+51 -1.0512977e+51)
(-1.7044894e+52 -1.6267316e+51 -4.8812534e+50)
(-2.1672491e+52 -1.1017491e+51 -8.9547783e+50)
(-2.144464e+52 -9.9793089e+50 -1.6684543e+51)
(-2.1447003e+52 -1.2265779e+51 -1.8157527e+51)
(-2.1617063e+52 -1.3524761e+51 -7.9541833e+50)
(-1.6926016e+52 -1.6450378e+51 -5.9356535e+50)
(-2.1578212e+52 -8.9142538e+50 -1.8651755e+51)
(-2.164176e+52 -9.8271861e+50 -1.9371805e+51)
(-2.2083633e+52 -7.9639081e+50 -8.1234559e+50)
(-2.1935099e+52 -1.2094126e+51 -8.4754325e+50)
(-2.1750813e+52 -8.7364523e+50 -1.8079396e+51)
(-2.1771807e+52 -1.044676e+51 -1.9006268e+51)
(-2.2173988e+52 -9.4163005e+50 -9.4458158e+50)
(-2.2078924e+52 -1.2217399e+51 -8.8142367e+50)
(-1.9741947e+52 -1.1847767e+51 -1.1935643e+51)
(-1.975264e+52 -1.1076331e+51 -1.0488511e+51)
(-2.0239047e+52 -1.0168359e+51 -1.9813632e+50)
(-2.016879e+52 -1.419966e+51 -8.7557778e+49)
(-1.9609878e+52 -1.305297e+51 -1.2672028e+51)
(-2.0116847e+52 -1.1118279e+51 -3.0602304e+50)
(-1.9750671e+52 -1.0456187e+51 -1.1164982e+51)
(-2.0134436e+52 -1.3487975e+51 -2.0699716e+50)
(-1.9532981e+52 -1.395404e+51 -1.2693829e+51)
(-1.9885075e+52 -1.2285029e+51 -3.1528609e+50)
(-1.9695246e+52 -1.1101444e+51 -1.1013441e+51)
(-1.9935057e+52 -1.5241569e+51 -2.1499728e+50)
(-1.9653066e+52 -1.3321431e+51 -1.1989211e+51)
(-1.9990028e+52 -1.1478667e+51 -2.4058379e+50)
(-1.9708602e+52 -1.1893179e+51 -1.0268389e+51)
(-1.9907239e+52 -1.5469691e+51 -1.2845679e+50)
(-2.0150149e+52 -1.1204408e+51 -1.1149016e+51)
(-2.0411328e+52 -9.2751668e+50 -3.8290021e+50)
(-2.0168318e+52 -9.9385993e+50 -9.6990181e+50)
(-2.0331818e+52 -1.2773768e+51 -3.0788611e+50)
(-2.1183575e+52 -8.1876789e+50 -2.7385088e+50)
(-2.1113065e+52 -1.212079e+51 -1.7215604e+50)
(-2.0885046e+52 -8.8456137e+50 -1.4767759e+51)
(-2.0965058e+52 -9.3047957e+50 -1.6165723e+51)
(-2.4180187e+52 -1.7151782e+51 -5.0966563e+50)
(-2.1061246e+52 -8.1945532e+50 -2.4745212e+50)
(-2.1099412e+52 -1.1344894e+51 -1.6551454e+50)
(-2.0866101e+52 -8.2925253e+50 -1.4682755e+51)
(-2.0805464e+52 -9.6429063e+50 -1.6445872e+51)
(-2.4281768e+52 -1.2341871e+51 -6.0005099e+50)
(-2.0024491e+52 -1.1109791e+51 -1.0985247e+51)
(-2.0230223e+52 -1.0358849e+51 -4.8182274e+50)
(-2.0139515e+52 -8.9801238e+50 -9.7004794e+50)
(-2.025176e+52 -1.272835e+51 -4.1188972e+50)
(-2.3519435e+52 -1.5711727e+51 -2.5836297e+51)
(-2.3659791e+52 -1.0030689e+51 -2.3639403e+51)
(-2.3216574e+52 -9.8951634e+50 -2.5256022e+51)
(-2.3035878e+52 -1.5038932e+51 -2.8027142e+51)
(-2.4507603e+52 -1.0664505e+51 -3.5545416e+50)
(-2.4503605e+52 -1.5810493e+51 -2.552017e+50)
(-2.3190783e+52 -1.4481392e+51 -2.6898507e+51)
(-2.4372475e+52 -1.108598e+51 -4.8124757e+50)
(-2.414429e+52 -1.9062933e+51 -2.9617706e+50)
(-2.3203362e+52 -1.3421955e+51 -2.3850882e+51)
(-2.3111517e+52 -5.3394857e+50 -8.948075e+50)
(-2.2389523e+52 -7.1091747e+50 -1.9158832e+51)
(-2.2390346e+52 -5.4288999e+50 -1.7386707e+51)
(-2.3030628e+52 -8.7723792e+50 -8.3843536e+50)
(-2.2077451e+52 -6.0244822e+50 -2.2569723e+51)
(-2.2239342e+52 -8.5908776e+50 -2.3696698e+51)
(-2.2804167e+52 -6.3201969e+50 -1.2882767e+51)
(-2.2605397e+52 -9.029984e+50 -1.1971014e+51)
(-2.2103851e+52 -6.5724919e+50 -1.8051612e+51)
(-2.2152954e+52 -7.7294924e+50 -1.7118341e+51)
(-2.2557168e+52 -7.7267456e+50 -1.1655581e+51)
(-2.2439557e+52 -1.1084573e+51 -1.1933637e+51)
(-2.2375438e+52 -7.5156792e+50 -1.3642722e+51)
(-2.1979274e+52 -9.1523568e+50 -2.1434105e+51)
(-2.1885567e+52 -7.0313589e+50 -1.9659716e+51)
(-2.2228103e+52 -1.0431531e+51 -1.271192e+51)
(-2.3269439e+52 -2.5541806e+51 -1.8423589e+51)
(-2.3578058e+52 -3.4012469e+51 5.2435684e+50)
(-2.0991349e+52 -2.9471486e+51 2.4358514e+51)
(-2.3490008e+52 -3.9376486e+51 3.5888179e+51)
(-2.2990944e+52 -1.2460722e+51 -1.6926923e+51)
(-2.3235172e+52 -1.9681441e+51 3.2748603e+50)
(-2.2956579e+52 -1.5709154e+51 -1.2218221e+51)
(-2.0610044e+52 -1.8682779e+51 8.1869677e+50)
(-2.0821249e+52 -1.6799974e+51 1.0125684e+51)
(-2.1073648e+52 -1.5256065e+51 2.9099148e+51)
(-2.1068297e+52 -2.2854379e+51 2.9678829e+51)
(-2.0175679e+52 -1.5944654e+51 -3.161253e+50)
(-2.0193643e+52 -1.5264367e+51 -7.6129457e+49)
(-2.0933594e+52 -1.387459e+51 1.5310246e+51)
(-2.0798813e+52 -2.0131307e+51 1.7195374e+51)
(-2.0013067e+52 -1.7719861e+51 -3.1735971e+50)
(-2.0908568e+52 -1.5082631e+51 1.52985e+51)
(-2.0222355e+52 -1.5534973e+51 -1.3762116e+50)
(-2.0890127e+52 -1.9877179e+51 1.655261e+51)
(-2.0757809e+52 -1.7579789e+51 8.1966917e+50)
(-2.1115196e+52 -1.4657948e+51 2.8253164e+51)
(-2.0871688e+52 -1.7309886e+51 1.1165884e+51)
(-2.0954065e+52 -2.2566498e+51 2.9643105e+51)
(-1.9557208e+52 -1.5885335e+51 -1.0624303e+51)
(-2.0182003e+52 -1.3704587e+51 3.6554547e+50)
(-1.9685708e+52 -1.2987144e+51 -8.4947196e+50)
(-2.0208152e+52 -1.7556531e+51 5.2020993e+50)
(-1.9249905e+52 -1.3665802e+51 -1.1322635e+51)
(-1.9234934e+52 -1.3027027e+51 -9.274844e+50)
(-1.9872291e+52 -1.2050533e+51 5.0634831e+49)
(-1.9748738e+52 -1.6705135e+51 2.1238877e+50)
(-1.9157778e+52 -1.4621004e+51 -1.2465977e+51)
(-1.9819288e+52 -1.2951013e+51 -8.6680724e+49)
(-1.9290201e+52 -1.2292513e+51 -1.0572488e+51)
(-1.9833993e+52 -1.5746773e+51 6.6221831e+49)
(-1.9650205e+52 -1.5186455e+51 -9.4613563e+50)
(-2.019952e+52 -1.3066536e+51 3.922324e+50)
(-1.9682426e+52 -1.4222182e+51 -7.1225584e+50)
(-2.0050569e+52 -1.8184866e+51 5.5280284e+50)
(-1.9430257e+52 -1.7165825e+51 -1.0042125e+51)