/*--------------------------------*- C++ -*----------------------------------*\
  =========                 |
  \\      /  F ield         | OpenFOAM: The Open Source CFD Toolbox
   \\    /   O peration     | Website:  https://openfoam.org
    \\  /    A nd           | Version:  7
     \\/     M anipulation  |
\*---------------------------------------------------------------------------*/
FoamFile
{
    version     2.0;
    format      ascii;
    class       volScalarField;
    location    "4000";
    object      k;
}
// * * * * * * * * * * * * * * * * * * * * * * * * * * * * * * * * * * * * * //

dimensions      [0 2 -2 0 0 0 0];

internalField   nonuniform List<scalar> 
34251
(
1.5221537
1.5175809
1.5210454
1.5227125
1.5213379
1.5229875
1.5214071
1.5223113
1.5226126
1.5175316
1.516505
1.5167382
1.5161702
1.5201577
1.5202528
1.5215794
1.5214077
1.5205045
1.5203882
1.5218694
1.5217806
1.522637
1.5223046
1.5220517
1.5223762
1.5200766
1.520212
1.5200361
1.5202517
1.5215796
1.5218322
1.5209052
1.5211194
1.5211831
1.5213774
1.5216389
1.5215451
1.5182285
1.5192474
1.5158272
1.5178236
1.5182719
1.5164133
1.5157947
1.5152531
1.5159828
1.5163558
1.5172299
1.5172429
1.5156072
1.5155665
1.5151807
1.5151104
1.5160803
1.5159269
1.5205099
1.5194633
1.5206025
1.5194689
1.5207115
1.5194901
1.5207064
1.5209914
1.5196082
1.520899
1.5195695
1.5195419
1.5208519
1.5208121
1.5216575
1.5215786
1.5213995
1.5213225
1.5212834
1.5213501
1.521392
1.5214604
1.5223963
1.5212355
1.5211445
1.5209569
1.5210537
1.5221913
1.5214057
1.5212265
1.520968
1.5211683
1.5220684
1.5219029
1.5194173
1.5194589
1.519519
1.5201727
1.5194818
1.5194262
1.5194303
1.5195372
1.519407
1.519409
1.5194686
1.5194714
1.5201306
1.5194362
1.519476
1.5195804
1.5195457
1.5200047
1.5199542
1.5201301
1.5203198
1.5194808
1.5195482
1.5195449
1.5210179
1.5201093
1.5201266
1.5200748
1.5200574
1.5211317
1.5201981
1.5202419
1.520143
1.5202278
1.5204485
1.5205482
1.5205351
1.5207106
1.5206833
1.5206417
1.5180926
1.5189512
1.5155158
1.5173639
1.5178696
1.5160654
1.5158422
1.5156185
1.5152916
1.5156544
1.5152241
1.5151875
1.5149976
1.5150407
1.5149632
1.5162311
1.5161855
1.5149226
1.5151428
1.5155522
1.5163207
1.5168894
1.5169239
1.5153637
1.5153093
1.5151103
1.5151535
1.5150556
1.5149744
1.5149315
1.515068
1.5150716
1.5149368
1.515045
1.5149275
1.5162389
1.5148837
1.5148814
1.5161731
1.5161385
1.5187075
1.5186996
1.5199079
1.519919
1.518686
1.5186912
1.5199575
1.5199561
1.519964
1.5186984
1.5186909
1.5199353
1.5187916
1.5187705
1.520111
1.5200742
1.5187513
1.5187713
1.5200714
1.5200714
1.5187735
1.5187674
1.5200588
1.5200243
1.5200805
1.5204912
1.5207439
1.5204307
1.5204766
1.5206756
1.5207157
1.5205524
1.5204198
1.5203686
1.5204158
1.5205347
1.5204912
1.5204052
1.5204504
1.5204983
1.520455
1.5213638
1.5205279
1.5204523
1.520504
1.5214282
1.5203565
1.5204029
1.5204981
1.5204536
1.520404
1.5205057
1.5212597
1.5213276
1.5203596
1.5202748
1.5202687
1.5203628
1.520317
1.5203665
1.5203599
1.5203217
1.5212273
1.5201063
1.520247
1.5202814
1.5210655
1.5201595
1.52007
1.5201665
1.5201971
1.5202761
1.5211408
1.5209887
1.5203381
1.5203441
1.5205651
1.5205734
1.5204708
1.5201496
1.5202557
1.5203784
1.5203034
1.5202038
1.5200897
1.5202045
1.5203979
1.5202807
1.5202787
1.5203951
1.5221407
1.5214211
1.5214268
1.5213626
1.5213598
1.5220205
1.5212647
1.5212501
1.5211343
1.5211755
1.521723
1.5216612
1.5189791
1.5189703
1.5194599
1.5190101
1.5190216
1.5189951
1.5189964
1.5194972
1.5190401
1.5190511
1.5189121
1.5189576
1.5189189
1.5189694
1.5193687
1.519409
1.5189079
1.5189565
1.5188986
1.5189475
1.5189218
1.5189194
1.5189792
1.5189756
1.5189209
1.5189779
1.5189151
1.5189737
1.5189476
1.5190321
1.5189416
1.5190282
1.5189811
1.5189835
1.5194466
1.5190218
1.5190197
1.5189816
1.5189769
1.5194474
1.5190139
1.5190214
1.5189127
1.518961
1.5189141
1.5189607
1.5189131
1.5189599
1.5189072
1.5189562
1.5193566
1.5193575
1.5189145
1.518974
1.5189039
1.5189633
1.5189092
1.5189728
1.5189231
1.5189871
1.5189393
1.5190324
1.5189539
1.5190459
1.5189438
1.5190316
1.518931
1.5190188
1.5193987
1.5194335
1.5194605
1.5194241
1.519387
1.5193802
1.5194066
1.5194089
1.5195313
1.5194944
1.5195075
1.5195444
1.5195296
1.5194453
1.5195721
1.5194864
1.5197809
1.5190507
1.5190829
1.5190084
1.5190173
1.5190519
1.5190438
1.5189393
1.5189894
1.5189473
1.5190044
1.5190046
1.5190871
1.5190173
1.5201545
1.5201979
1.5200273
1.5200061
1.5196947
1.5197356
1.519619
1.5196567
1.5195187
1.5195379
1.5194987
1.5194869
1.5194628
1.5194764
1.5194844
1.5194715
1.5196785
1.519672
1.5196047
1.5195972
1.5200833
1.5202646
1.5201741
1.5198446
1.5198216
1.5197712
1.5197437
1.5196211
1.5196531
1.5195914
1.5196249
1.5198666
1.5198729
1.5199575
1.5200526
1.5197819
1.5197647
1.5198095
1.5198003
1.51982
1.5197867
1.5199476
1.519915
1.5199243
1.5199152
1.5199039
1.5198672
1.5180394
1.5187424
1.5152839
1.515091
1.5150546
1.5173733
1.5177885
1.5157963
1.515431
1.5157015
1.5152124
1.5155711
1.514952
1.5149881
1.5149287
1.5149441
1.5148908
1.5149128
1.5150385
1.5150414
1.5163766
1.5163578
1.5150065
1.5150444
1.516331
1.516398
1.5148692
1.5149052
1.5149011
1.5148753
1.5150883
1.5151224
1.5150104
1.5150606
1.5153872
1.5155871
1.515263
1.5151265
1.5151886
1.5164688
1.5164223
1.5168947
1.5169424
1.5151757
1.5150552
1.515003
1.515118
1.5149678
1.5149623
1.5150184
1.5149368
1.5148945
1.5148995
1.5149825
1.515044
1.5149609
1.5148957
1.5148767
1.5149001
1.514912
1.515061
1.5150084
1.5163895
1.5163207
1.51484
1.5148458
1.514867
1.5148633
1.5148446
1.5148388
1.5148603
1.5148637
1.5149895
1.5150091
1.5162963
1.5163601
1.5150102
1.5149824
1.5163731
1.5163293
1.5173883
1.5173535
1.5173932
1.5194406
1.519431
1.5173414
1.5173135
1.5194178
1.5194093
1.5173054
1.517331
1.5194337
1.5194335
1.5172655
1.517284
1.5194305
1.519416
1.5172822
1.5173241
1.5194539
1.519439
1.5173039
1.517296
1.5194226
1.5194088
1.5172323
1.5172695
1.5195391
1.5195234
1.5172264
1.5172975
1.5195284
1.5194766
1.5172809
1.5172566
1.5195043
1.5195189
1.5172164
1.5172836
1.5195289
1.5194874
1.5172675
1.5172887
1.519515
1.5195036
1.5172828
1.5173175
1.5194952
1.5194636
1.5216891
1.5195854
1.5197668
1.5195465
1.5197313
1.5197364
1.5199772
1.5196999
1.5199444
1.519562
1.5195126
1.5197334
1.5196916
1.5195777
1.5195686
1.5197543
1.5197457
1.519703
1.5199334
1.5196589
1.5198982
1.519723
1.5197132
1.5199542
1.5199463
1.5194396
1.5194005
1.5196319
1.5195944
1.5193614
1.519323
1.5195041
1.5194663
1.5192935
1.5193469
1.5194843
1.5194347
1.5193624
1.5193521
1.5195025
1.5194934
1.5194382
1.5194284
1.5196229
1.5196154
1.5194223
1.5193701
1.5196063
1.5195599
1.5194673
1.5194284
1.5204791
1.5195525
1.5195931
1.5194892
1.5194859
1.5205215
1.5196079
1.5196136
1.5193062
1.5193765
1.5193004
1.5193716
1.519286
1.5193568
1.5192431
1.5193138
1.5204263
1.5203823
1.5195585
1.5205947
1.5197541
1.5196817
1.5194754
1.5194548
1.52053
1.5195974
1.5195767
1.519293
1.51927
1.5193686
1.5193422
1.5204354
1.5204982
1.5192428
1.5191954
1.5193504
1.5193034
1.5192611
1.5193701
1.5192533
1.5193622
1.5192822
1.5194365
1.519272
1.5194278
1.5192647
1.5194192
1.5192133
1.5193695
1.5192239
1.5193325
1.5192421
1.5194369
1.5194
1.5221992
1.52042
1.5204561
1.5204971
1.5204569
1.5205245
1.5204798
1.5205684
1.5205153
1.5223438
1.5223483
1.5191497
1.5193039
1.5191487
1.5193034
1.5191904
1.5191371
1.519292
1.5192416
1.5191235
1.5192323
1.5191273
1.5192349
1.5192081
1.5191548
1.5193559
1.5193064
1.5193382
1.5193509
1.5203877
1.519471
1.5194578
1.5192341
1.5192997
1.5191802
1.5192493
1.5191605
1.5192321
1.5191702
1.5192405
1.5194088
1.519357
1.5203913
1.5195337
1.5194751
1.5203026
1.520301
1.5193453
1.5193099
1.5201773
1.5194036
1.5194642
1.5193699
1.5193485
1.5203093
1.519462
1.5194905
1.5192011
1.5192622
1.5191786
1.5192438
1.520226
1.5200791
1.5191888
1.5192446
1.5191618
1.5192249
1.5191499
1.5192397
1.5191309
1.5192216
1.5191717
1.5193048
1.5191523
1.5192854
1.5191587
1.519258
1.5191375
1.5192391
1.5191809
1.5193204
1.5191591
1.519302
1.5203359
1.5203425
1.5203733
1.5203731
1.5202671
1.5202925
1.5201602
1.5201308
1.5194905
1.5194444
1.5196568
1.5196183
1.5194557
1.5196335
1.5194494
1.5196275
1.5196273
1.5198478
1.519587
1.5198159
1.5196055
1.5198354
1.5195968
1.5198293
1.5195943
1.519804
1.519575
1.5197894
1.5194467
1.5194192
1.5195906
1.5195633
1.5194586
1.5196184
1.5194392
1.5196019
1.5195703
1.5195376
1.5193303
1.5194958
1.51931
1.5194794
1.5192556
1.519235
1.5193839
1.5193664
1.5192489
1.5192281
1.5193669
1.5193463
1.5193207
1.5192979
1.519478
1.519455
1.5193127
1.5194975
1.5193084
1.5194942
1.5192846
1.5192326
1.5194179
1.5193708
1.5192322
1.5193725
1.5192298
1.5193707
1.5193575
1.5193079
1.5195336
1.5194901
1.521494
1.5214472
1.5213588
1.5213376
1.5207739
1.5208566
1.5208178
1.520739
1.5206262
1.5206329
1.5205964
1.5205879
1.5205557
1.5205578
1.5205346
1.5205255
1.5206968
1.5207705
1.5207599
1.5206793
1.5213037
1.5213631
1.5212665
1.5212294
1.5206815
1.5206829
1.5206023
1.5206002
1.5204614
1.5204456
1.5204391
1.5204558
1.5202857
1.5203926
1.520371
1.5202567
1.5205742
1.5206384
1.5205442
1.5204633
1.5212843
1.5212162
1.5178289
1.5178297
1.5180329
1.518034
1.5180577
1.5180541
1.5178578
1.5178588
1.5190541
1.5189932
1.5189857
1.5190447
1.5178516
1.5178227
1.5176916
1.5176977
1.5179169
1.5179256
1.51801
1.5180072
1.5177919
1.5177937
1.5190128
1.5190317
1.5190895
1.5190763
1.5177876
1.5176949
1.5179139
1.5179227
1.5181095
1.518103
1.5180979
1.5181035
1.5182606
1.5182653
1.5181802
1.5180113
1.5181894
1.5180065
1.5183418
1.518188
1.5181756
1.5183264
1.5189614
1.518965
1.5190133
1.5190074
1.5189826
1.5190049
1.5190538
1.5190355
1.518202
1.5180369
1.5182053
1.518035
1.5183514
1.5182056
1.5181985
1.518343
1.5182139
1.5180608
1.5182236
1.5180551
1.5183637
1.5182227
1.5182101
1.5183484
1.5183783
1.518477
1.518468
1.518368
1.518383
1.5183978
1.5184927
1.5184782
1.5185521
1.5184685
1.5185595
1.5184585
1.5184682
1.5185581
1.5184836
1.5185722
1.5184674
1.5183783
1.5184756
1.518368
1.518467
1.5185568
1.5185494
1.5184571
1.5184587
1.51838
1.5184776
1.51836
1.5184686
1.5185592
1.5184486
1.5185412
1.5186032
1.5185456
1.5186101
1.5185371
1.5186692
1.5185949
1.5185872
1.5186636
1.5185288
1.5185954
1.5185478
1.5186122
1.5186717
1.5185971
1.5185798
1.518657
1.5178759
1.5178766
1.5180729
1.5180743
1.5181076
1.5181054
1.5179144
1.5179158
1.5190502
1.5189888
1.5189959
1.5190539
1.5179084
1.517869
1.5178813
1.5178814
1.5180762
1.518077
1.5180778
1.5180733
1.5178788
1.5178787
1.519053
1.5189934
1.5189856
1.5190461
1.517872
1.5178745
1.518077
1.5180756
1.5182391
1.5182361
1.5182329
1.51838
1.5183723
1.5182394
1.5181104
1.5181065
1.5182594
1.5182672
1.5182659
1.5182554
1.5184009
1.5183886
1.5182375
1.5180803
1.518241
1.5180778
1.5182416
1.5183796
1.5183727
1.5182341
1.5182318
1.5180814
1.5182432
1.5180738
1.5182431
1.5183822
1.5182278
1.5183652
1.519012
1.5189629
1.5189571
1.5190058
1.5189695
1.5189589
1.5190079
1.5190154
1.5184418
1.5183486
1.5184514
1.5183376
1.518443
1.5185378
1.518529
1.5184318
1.5183426
1.5184417
1.5183596
1.5184582
1.5184487
1.5185407
1.5184317
1.5185253
1.5183767
1.518254
1.5183717
1.5182587
1.5183606
1.5183664
1.5184698
1.518476
1.5184298
1.5183379
1.5184467
1.5183205
1.5185393
1.518438
1.5184201
1.5185222
1.5185451
1.5184571
1.5185378
1.5184645
1.5185218
1.5185301
1.5186113
1.5186194
1.5185109
1.5185854
1.5185284
1.518601
1.5186689
1.5185867
1.5185709
1.5186549
1.5185874
1.518527
1.5185956
1.5185172
1.5186584
1.5185807
1.5185716
1.5186512
1.5185135
1.5185812
1.518529
1.5185949
1.5186554
1.5185793
1.5185659
1.5186439
1.518927
1.5189212
1.5189658
1.5189635
1.5189391
1.5189531
1.5190015
1.5189838
1.5189483
1.5189707
1.5190289
1.5190089
1.5189878
1.5189322
1.5189335
1.5189861
1.5189301
1.5189106
1.5189694
1.5189545
1.5189121
1.5189163
1.5189552
1.518959
1.5189845
1.5189293
1.5189232
1.5189801
1.5189804
1.5189233
1.5189384
1.5189916
1.5190242
1.5190031
1.5190421
1.519064
1.5189788
1.5189828
1.5190174
1.5190198
1.5190297
1.518979
1.5189814
1.5190369
1.5190289
1.5190038
1.5190585
1.5190834
1.5190805
1.5190227
1.5190314
1.5190886
1.5190474
1.5190008
1.5190084
1.5190565
1.5191182
1.5190557
1.5190869
1.5191438
1.51908
1.5190299
1.5190588
1.5191071
1.5192045
1.5191808
1.5192285
1.5192516
1.5179797
1.5179807
1.5181662
1.5181673
1.5179726
1.517962
1.5179624
1.5181405
1.5181422
1.5181521
1.5181484
1.5179656
1.5179659
1.5179583
1.5179557
1.5182893
1.5181433
1.5182913
1.518142
1.5182904
1.5182847
1.5184189
1.5184137
1.5182964
1.518155
1.5183062
1.5181486
1.5186951
1.5186436
1.5187018
1.5186357
1.5186724
1.5185961
1.5186644
1.518605
1.5186483
1.5186565
1.5187275
1.5187348
1.5187035
1.5186548
1.5187159
1.5186407
1.5197917
1.5197953
1.519796
1.5197937
1.5198549
1.5198219
1.5198218
1.51984
1.5197964
1.5197806
1.5193065
1.5193045
1.5192018
1.5192153
1.5193115
1.5193231
1.5192223
1.51922
1.5190983
1.5190831
1.519063
1.5190778
1.5190994
1.5191016
1.5190851
1.5190844
1.5189933
1.5189478
1.5189422
1.5189844
1.5190099
1.5190031
1.5189997
1.5190083
1.5189944
1.518982
1.5189864
1.5189973
1.5189626
1.5189269
1.5189355
1.51897
1.5189554
1.5189138
1.5189167
1.5189552
1.5189769
1.5189751
1.5189801
1.5189812
1.5189947
1.5189726
1.5189763
1.5189975
1.5189523
1.5189149
1.5189364
1.5189723
1.5193036
1.5192994
1.5192024
1.5192184
1.5192984
1.5192932
1.5191953
1.5192093
1.5191042
1.5190835
1.5190603
1.5190824
1.519093
1.5190808
1.5190587
1.5190687
1.5198711
1.5198927
1.5199198
1.5199351
1.5199004
1.5194757
1.5194672
1.5193683
1.5193828
1.5194491
1.5194337
1.5193345
1.5193503
1.5192625
1.519243
1.5192062
1.5192267
1.5192251
1.5192138
1.5191802
1.5191874
1.5190895
1.5190918
1.5190805
1.5190799
1.5191335
1.5191109
1.5191219
1.5191005
1.5190088
1.5190342
1.5190313
1.5190057
1.5190268
1.5190552
1.5190738
1.5190494
1.5192819
1.5192913
1.5193148
1.5193066
1.5192255
1.5191992
1.5192399
1.5192632
1.5194237
1.5193961
1.5173183
1.5174283
1.5193461
1.5193319
1.5193206
1.5193185
1.5193362
1.519326
1.5193235
1.5193206
1.5193568
1.5193406
1.519321
1.5193181
1.51945
1.5194316
1.5194229
1.5194102
1.5194245
1.5194177
1.5194261
1.5194118
1.5194214
1.5194069
1.5193965
1.5193807
1.5181267
1.5165193
1.5165834
1.5186973
1.5168983
1.5173555
1.5223225
1.5150832
1.5150549
1.5150936
1.5149564
1.5149877
1.5156725
1.5154352
1.5155755
1.515277
1.5155796
1.5171016
1.5152493
1.5152194
1.5150638
1.5151062
1.5150164
1.5150601
1.5156531
1.5154968
1.5153195
1.5152629
1.5155943
1.514961
1.514958
1.5148903
1.5148939
1.5148697
1.5148743
1.5150003
1.5149857
1.514911
1.5149325
1.5148895
1.5149106
1.5148691
1.5148767
1.5148725
1.5148788
1.5148965
1.5149032
1.5148981
1.5148864
1.5148927
1.5148676
1.5148716
1.5148984
1.5148833
1.5148975
1.5149183
1.514902
1.5161091
1.5152414
1.5151967
1.5160708
1.5160908
1.5152286
1.5151883
1.5160555
1.5148495
1.5148547
1.5148733
1.5148844
1.5148865
1.5148584
1.5148603
1.5148868
1.5160934
1.5152151
1.5152135
1.5160909
1.5151716
1.5152466
1.5160944
1.5160212
1.5148583
1.5148605
1.5148552
1.5148515
1.5148588
1.5148644
1.5148653
1.5148604
1.5149646
1.5149857
1.5149768
1.5149931
1.5150304
1.515044
1.5150078
1.5150316
1.5151617
1.5152061
1.515235
1.5152126
1.5149704
1.514955
1.5149709
1.5149902
1.5150272
1.5149981
1.5150414
1.5150104
1.5153103
1.5161347
1.5161394
1.5153059
1.5161837
1.5153078
1.5152965
1.5161556
1.5150005
1.5150455
1.5150206
1.514979
1.5149239
1.514963
1.5149586
1.5149611
1.5148866
1.5148918
1.5149943
1.5150238
1.5149582
1.5150217
1.5149537
1.5149346
1.5149423
1.5148993
1.5148869
1.5148741
1.5148899
1.5148966
1.5148981
1.5148492
1.5148523
1.5148361
1.5148408
1.5149041
1.5149009
1.5148518
1.5148574
1.5148434
1.5148378
1.5149567
1.514944
1.5149365
1.5149599
1.5148884
1.5148836
1.5148794
1.514888
1.5148699
1.5148659
1.5148605
1.5148676
1.5148898
1.5148792
1.5149184
1.5149061
1.5148681
1.5148594
1.514896
1.5148888
1.5160192
1.5152229
1.5151847
1.5159868
1.5151372
1.5152069
1.5160415
1.5159093
1.5148305
1.5148312
1.5148278
1.5148268
1.5148358
1.5148378
1.5148348
1.5148316
1.5148366
1.5148345
1.5148315
1.5148352
1.5148303
1.5148298
1.5148266
1.5148278
1.5148369
1.5148323
1.5148693
1.5148697
1.5148288
1.5148271
1.5148602
1.5148575
1.515982
1.5151804
1.5151589
1.5160299
1.5151194
1.5151833
1.5160409
1.5159278
1.5148271
1.5148282
1.5148547
1.5148589
1.5148315
1.5148354
1.5148596
1.5148647
1.5160196
1.5151707
1.5151449
1.5160145
1.5151302
1.5151675
1.5160476
1.5159807
1.5174707
1.5148684
1.5172171
1.5172575
1.5172391
1.5171765
1.5171621
1.517211
1.5171728
1.5171177
1.5171652
1.5171869
1.5172299
1.5171572
1.5171797
1.5172111
1.5172527
1.5171942
1.5171962
1.5172325
1.517219
1.5171719
1.5171963
1.5172128
1.5172811
1.517225
1.5191339
1.5190238
1.519152
1.5190045
1.5191484
1.519299
1.5192826
1.5191286
1.5191001
1.5189952
1.5191203
1.5189742
1.5191152
1.5192666
1.5190951
1.519248
1.5193898
1.519297
1.5194048
1.5192799
1.5195147
1.5193942
1.5193773
1.5194972
1.519246
1.5193559
1.5192642
1.5193715
1.5194841
1.5193613
1.5193472
1.5194729
1.5190265
1.5191465
1.5191284
1.5190056
1.5189581
1.5189941
1.5191102
1.5190785
1.5191408
1.5192825
1.5192673
1.519121
1.5190709
1.5191041
1.5192471
1.519219
1.5190214
1.5191469
1.5191383
1.519013
1.5190313
1.5191518
1.5191285
1.5190054
1.5192805
1.5191419
1.5192882
1.519132
1.5192696
1.5191462
1.5192909
1.5191222
1.5193668
1.5192787
1.51938
1.5192623
1.5194827
1.519367
1.5193518
1.5194695
1.5192139
1.5193211
1.5192437
1.5193449
1.519454
1.5193336
1.5193097
1.5194383
1.5192839
1.5193883
1.5193813
1.5192757
1.5192869
1.5193883
1.5192656
1.5193711
1.5194905
1.519483
1.5193746
1.5193661
1.5193583
1.5193745
1.5194879
1.5194763
1.5188534
1.5187483
1.5188723
1.5187294
1.518729
1.5188494
1.5188266
1.5187031
1.5188534
1.5190256
1.5188332
1.5190074
1.5189996
1.5189785
1.5188299
1.5188097
1.5186546
1.5185492
1.518675
1.5185271
1.5185356
1.5186581
1.518624
1.5184997
1.5186334
1.5187816
1.5186132
1.5187636
1.5187627
1.5187344
1.5186169
1.5185852
1.5185407
1.5184904
1.518615
1.5186604
1.5185608
1.5186849
1.518663
1.5185372
1.5186236
1.5186463
1.5187902
1.5187712
1.5187654
1.5186229
1.5185771
1.5187256
1.5185562
1.51868
1.518668
1.5185427
1.5185763
1.5186986
1.5186601
1.5185343
1.5186387
1.5187839
1.5187756
1.518628
1.5186587
1.5188025
1.5187698
1.5186217
1.5187508
1.5188724
1.5188651
1.5187433
1.5187704
1.5188882
1.5188612
1.5187392
1.5188544
1.5190221
1.5190161
1.5188463
1.5188699
1.5190347
1.5190105
1.5188441
1.5187602
1.5188807
1.5188624
1.5187403
1.5186967
1.5187368
1.5188537
1.518819
1.5188649
1.5190289
1.5190109
1.5188444
1.5188031
1.5188387
1.5189992
1.5189663
1.5168573
1.5168577
1.5173081
1.5173027
1.5173287
1.5173087
1.5168828
1.5168812
1.5195548
1.5195868
1.5196837
1.5196489
1.5168889
1.5168637
1.5168962
1.5168955
1.5173404
1.5173345
1.5173402
1.5173209
1.5168808
1.5168797
1.5196199
1.5197107
1.5197012
1.5196002
1.5168876
1.5169026
1.5173314
1.5173208
1.5176799
1.5176966
1.51768
1.517992
1.5179678
1.5176572
1.5176666
1.5173312
1.5177041
1.517307
1.5176871
1.5180045
1.517643
1.5179546
1.5173009
1.517291
1.5176719
1.5176552
1.5176336
1.5179745
1.517948
1.5176566
1.5173215
1.5172965
1.5176453
1.5176841
1.5176683
1.5176222
1.5179778
1.5179248
1.5195683
1.5195978
1.5196825
1.5196618
1.5196434
1.5195524
1.5195279
1.5196172
1.5211918
1.5174027
1.5173781
1.5169323
1.5169295
1.5196766
1.5197518
1.5197774
1.5198433
1.5169344
1.5168792
1.5168792
1.5173244
1.5173164
1.5173433
1.5173243
1.516898
1.5168981
1.519598
1.519694
1.5196747
1.5195777
1.5168845
1.5169042
1.5173161
1.5176812
1.5176626
1.5173044
1.5173345
1.5176961
1.5176598
1.5173121
1.5176644
1.5179779
1.5179518
1.5176406
1.5176372
1.5176782
1.5179874
1.5179395
1.5195579
1.5195707
1.5196434
1.5196611
1.5196406
1.5197154
1.5198054
1.5197383
1.5179549
1.5181793
1.5181495
1.5179242
1.5178989
1.5179571
1.5181739
1.5181153
1.5183277
1.5181492
1.5183564
1.5181171
1.5180816
1.5182868
1.5181431
1.5183452
1.5181645
1.5179706
1.518191
1.5179425
1.5181587
1.5183633
1.5183399
1.5181312
1.5181512
1.5179826
1.5182055
1.5179287
1.5181736
1.5183801
1.5181176
1.5183271
1.5184547
1.5183273
1.5184746
1.5183044
1.5185967
1.5184321
1.5184131
1.5185821
1.5182918
1.5184433
1.518345
1.518492
1.5186156
1.5184509
1.5184026
1.5185726
1.5183233
1.5184724
1.5184457
1.5182936
1.5185985
1.5184326
1.5184051
1.5185752
1.5183116
1.5182516
1.5184553
1.5184002
1.5185781
1.5183597
1.5185283
1.5184158
1.5179137
1.5179639
1.5181801
1.5181292
1.5180953
1.5183484
1.5182998
1.5181462
1.5183112
1.5182641
1.518412
1.5184556
1.5184221
1.5185904
1.5183954
1.5185677
1.5185769
1.5184125
1.5183707
1.518539
1.5214055
1.5214325
1.5212904
1.5212629
1.5194716
1.5194775
1.5195544
1.5195696
1.5194911
1.5195293
1.5196209
1.5195862
1.5195173
1.5195556
1.519656
1.5196266
1.5195034
1.5196075
1.519587
1.5194847
1.519717
1.5196192
1.5195595
1.519658
1.5195203
1.5195211
1.5196029
1.519599
1.5195878
1.5196584
1.5197662
1.5197003
1.5196322
1.5195322
1.5195261
1.5196221
1.5224662
1.5223475
1.5214182
1.5215259
1.5215204
1.5213999
1.5216873
1.5217489
1.521675
1.5215932
1.5183332
1.5182099
1.5183525
1.5181862
1.5183121
1.5184744
1.5184592
1.5182928
1.5181882
1.5183355
1.5182214
1.5183652
1.5183241
1.5184886
1.5182963
1.5184642
1.5179358
1.518152
1.5181159
1.5178985
1.5178684
1.5179115
1.5181216
1.5180788
1.5182871
1.5181214
1.5183207
1.5180826
1.518047
1.5182466
1.5180892
1.5182859
1.5180506
1.5178637
1.5180758
1.5178351
1.518046
1.5182433
1.5182208
1.5180187
1.5180499
1.5178725
1.518088
1.5178342
1.5180561
1.5182566
1.5180186
1.5182222
1.5182875
1.518431
1.5183993
1.5182521
1.5182509
1.5183913
1.518213
1.5183571
1.5185523
1.5185236
1.5183914
1.5183581
1.5183182
1.5183505
1.5185112
1.5184822
1.5168303
1.5168289
1.5172516
1.5172459
1.5172559
1.5172439
1.5168191
1.5168207
1.519555
1.5194644
1.5194728
1.5195665
1.5168263
1.5168346
1.5173027
1.5172905
1.5176616
1.5176418
1.5176192
1.5179543
1.5179233
1.5176469
1.517297
1.5172787
1.5176173
1.5176483
1.5176319
1.5175966
1.5179325
1.5178919
1.5175783
1.5172448
1.5175944
1.5172339
1.517581
1.517881
1.5178576
1.5175581
1.5175779
1.5172464
1.5176043
1.5172313
1.5175876
1.5178934
1.5175568
1.5178576
1.5168746
1.5168743
1.5173091
1.5173035
1.5173043
1.5172896
1.5168738
1.5168751
1.5194772
1.5195382
1.5196246
1.519569
1.5168809
1.5168798
1.5194487
1.5195113
1.5195952
1.5195372
1.5194454
1.5194472
1.5195291
1.5195363
1.5169833
1.5169902
1.5173949
1.517401
1.5176108
1.5176216
1.5172511
1.5172669
1.5195346
1.5194487
1.5193882
1.5194776
1.5172621
1.5169917
1.5169145
1.5169138
1.517335
1.5173294
1.5173321
1.5173201
1.5169086
1.5169104
1.5195769
1.5194899
1.5194574
1.5195479
1.5169156
1.5169196
1.5173291
1.5173175
1.5176586
1.5176766
1.5176649
1.517639
1.5179608
1.5179332
1.5176447
1.5173239
1.5176713
1.5173085
1.5179542
1.5176567
1.5176254
1.5179174
1.5195427
1.5194576
1.5194263
1.519512
1.5193527
1.5194096
1.5194894
1.5194352
1.5177291
1.5173879
1.5177287
1.5173932
1.5180069
1.5177165
1.5177138
1.5180005
1.5179014
1.5175991
1.5178932
1.5176158
1.5181305
1.5178763
1.5178877
1.5181347
1.5181906
1.5179922
1.518199
1.5179841
1.5181759
1.5183643
1.5183572
1.5181671
1.5181194
1.5182955
1.5181132
1.5182947
1.5182723
1.5184428
1.5182747
1.5184406
1.5184703
1.518339
1.5184761
1.5183324
1.5185945
1.5184449
1.5184398
1.5185908
1.5184187
1.5185383
1.5184201
1.5185428
1.5186533
1.5185158
1.5185121
1.5186469
1.5181229
1.5179446
1.518154
1.5179115
1.5181273
1.518093
1.5183199
1.5182901
1.5181065
1.5179349
1.5181441
1.5178964
1.518309
1.518115
1.518078
1.5182747
1.5184012
1.5182896
1.5184287
1.5182582
1.5185461
1.518392
1.5183632
1.5185221
1.5182445
1.5183873
1.5182766
1.5184155
1.5185329
1.5183773
1.5183517
1.518511
1.519376
1.5194305
1.5195205
1.519464
1.5193894
1.519407
1.5194861
1.5194735
1.5194169
1.5195085
1.5195057
1.5194035
1.5193987
1.5194599
1.5195624
1.519504
1.5193472
1.5193868
1.5194714
1.5194368
1.5195075
1.5194116
1.5193758
1.5194768
1.5194468
1.5193411
1.5192983
1.5193987
1.5193889
1.5193068
1.5192771
1.519354
1.518964
1.519082
1.5190626
1.5189409
1.518903
1.5189183
1.5190362
1.5190217
1.519199
1.5190771
1.5192148
1.5190556
1.5190154
1.519159
1.5190305
1.5191725
1.5190243
1.5189088
1.5190348
1.5188978
1.5190328
1.5191782
1.5191681
1.5190192
1.5190201
1.5189087
1.519031
1.5188981
1.5190263
1.5191717
1.5190144
1.5191613
1.519211
1.51931
1.5192967
1.5191939
1.5194103
1.5192813
1.5192964
1.5193979
1.5191687
1.5191546
1.5192695
1.5192583
1.5193746
1.5192462
1.5193693
1.5192566
1.5192711
1.5191759
1.5192804
1.5191642
1.5193897
1.5192684
1.5192572
1.5193811
1.5191578
1.5192635
1.5191682
1.5192715
1.5193781
1.5192584
1.5192511
1.5193749
1.5192822
1.5191974
1.5192932
1.5191828
1.5192807
1.5193925
1.5193829
1.5192685
1.5191662
1.5192644
1.5191766
1.5192729
1.5192601
1.5193709
1.5192529
1.5193677
1.5189964
1.5190999
1.5190947
1.5189907
1.5190003
1.5190244
1.5191157
1.5190916
1.5192134
1.519097
1.5192173
1.519091
1.5190856
1.5191998
1.5191139
1.5192262
1.5190546
1.5189546
1.5190703
1.518937
1.5190674
1.5192004
1.5191871
1.5190493
1.5190388
1.5189344
1.5190491
1.5189253
1.5190446
1.5191801
1.5190334
1.5191696
1.5192157
1.5193043
1.5193012
1.519212
1.5192259
1.5193056
1.5191954
1.5192778
1.5187968
1.5186986
1.5188124
1.5186793
1.5187978
1.5189525
1.5189383
1.5187803
1.5187895
1.5186842
1.5187964
1.5186742
1.5187795
1.5189351
1.5187747
1.5189278
1.5185114
1.5186267
1.5186057
1.5184867
1.5184973
1.5186136
1.5185969
1.5184782
1.5185908
1.5187261
1.5187082
1.5185687
1.5185769
1.5187136
1.5187009
1.5185626
1.5185659
1.5186786
1.5186761
1.5185631
1.5186231
1.5186291
1.5187304
1.5187227
1.5186488
1.5187773
1.5187759
1.5186467
1.5186977
1.5187052
1.5188238
1.5188146
1.5187551
1.5188633
1.518862
1.5187541
1.5187961
1.5188058
1.518903
1.5188911
1.5189962
1.5189925
1.5188541
1.5188513
1.5188813
1.5188966
1.5190253
1.5190064
1.518746
1.5186336
1.5187547
1.5186222
1.5187389
1.5189062
1.5188989
1.5187287
1.5186308
1.5187515
1.5186451
1.5187632
1.5187449
1.5189107
1.5187356
1.5189015
1.5185156
1.5186358
1.5186091
1.5184857
1.5184733
1.5185918
1.5185674
1.5184462
1.5187134
1.5185976
1.5187375
1.5185694
1.5186734
1.5185526
1.5186938
1.5185301
1.518545
1.5184368
1.5185583
1.5184212
1.5185199
1.5186634
1.5186529
1.5185059
1.5185526
1.5184506
1.5185726
1.5184281
1.5185335
1.5186771
1.5185151
1.5186611
1.5187073
1.5188239
1.5188009
1.5186816
1.5186626
1.5187784
1.5186441
1.5187633
1.5189662
1.5189456
1.5188071
1.5187817
1.5187475
1.5187604
1.5189216
1.518908
1.5209253
1.5209826
1.5209542
1.5209108
1.5209047
1.5208963
1.5208606
1.5208642
1.5208427
1.5208056
1.5197611
1.519752
1.5197268
1.5197139
1.5199384
1.5200658
1.5200385
1.5199004
1.5198901
1.5200234
1.5200296
1.5198906
1.5197044
1.519695
1.5196955
1.5197071
1.5196849
1.5195917
1.519635
1.5195386
1.5196848
1.519641
1.5196412
1.5195968
1.5195843
1.5195737
1.5196121
1.5196226
1.5195225
1.5195146
1.5195947
1.5195987
1.5195985
1.519503
1.5194754
1.519567
1.5196018
1.5195645
1.5195528
1.5195822
1.5195317
1.5195174
1.5195578
1.5195668
1.5195482
1.5194587
1.5194654
1.519547
1.51969
1.5196804
1.5196794
1.5196831
1.5198594
1.5199755
1.5199859
1.5198606
1.5199692
1.5199689
1.5198267
1.5198472
1.5196431
1.5196404
1.5196656
1.519664
1.5207872
1.5207456
1.520746
1.520771
1.5208203
1.5208179
1.5207888
1.5207892
1.5207448
1.520722
1.5199029
1.5199147
1.5197649
1.5197947
1.5199046
1.51989
1.5197539
1.5197664
1.5195808
1.5195771
1.5195815
1.5195808
1.5196152
1.5196092
1.519568
1.5195764
1.519453
1.5194606
1.5194989
1.51949
1.5193864
1.5194025
1.5194792
1.5194658
1.5194977
1.5194084
1.5193638
1.5194474
1.5195071
1.5194807
1.5194342
1.5194664
1.5193448
1.519353
1.5193817
1.5193707
1.5193987
1.5194344
1.5194674
1.5194303
1.5194529
1.5193725
1.5193277
1.5194146
1.5192703
1.5192873
1.5193666
1.5193462
1.5198225
1.5198528
1.5197032
1.5196905
1.519887
1.5198868
1.5197529
1.5197467
1.5195697
1.5195624
1.5195378
1.5195524
1.5195014
1.5195071
1.519489
1.5194862
1.5149119
1.5149786
1.5177822
1.5177835
1.517789
1.5177906
1.5178167
1.517823
1.5178093
1.5178154
1.5178153
1.5178046
1.5178346
1.5178442
1.5178209
1.5178058
1.5177599
1.5177771
1.5177835
1.517785
1.5177384
1.5177389
1.5176197
1.5176477
1.5176212
1.5176525
1.517745
1.5177551
1.5177386
1.517748
1.5177735
1.5176908
1.5176948
1.5177818
1.5177548
1.517737
1.5176863
1.5177084
1.5175532
1.5176227
1.5176617
1.5176085
1.5176182
1.5176535
1.5176523
1.5176127
1.5176048
1.5176492
1.5175959
1.517645
1.5177602
1.5177471
1.517747
1.5177585
1.5177415
1.5177449
1.5177595
1.5177576
1.5178173
1.517788
1.5177949
1.5178246
1.5177598
1.5176843
1.5176865
1.5177653
1.5177968
1.5177924
1.5177938
1.5177944
1.5177914
1.5177931
1.5177966
1.5177952
1.5178287
1.5178195
1.5178204
1.5178266
1.5178169
1.5178192
1.5178283
1.5178266
1.5178401
1.5178348
1.5178404
1.517845
1.5178869
1.5178735
1.5178678
1.5178823
1.5178253
1.5178276
1.5178194
1.5178336
1.5178755
1.5178676
1.5178601
1.5178516
1.5178388
1.5178453
1.5178395
1.5178446
1.5178317
1.5178229
1.5178214
1.5178309
1.5178364
1.517842
1.5178364
1.517842
1.5178287
1.5178199
1.5178289
1.5178203
1.5177988
1.5178126
1.5178015
1.5178109
1.5177758
1.5177891
1.5177864
1.517774
1.5178101
1.5177991
1.5178097
1.5177987
1.5177732
1.5177864
1.5177869
1.5177747
1.5178334
1.5178348
1.5178402
1.517842
1.5178777
1.5178847
1.5178709
1.5178772
1.5178605
1.517849
1.5178898
1.5179001
1.5178848
1.5178706
1.5178286
1.5178448
1.5178363
1.517835
1.5177927
1.5177954
1.51784
1.5178383
1.5178467
1.517845
1.5178428
1.5178428
1.5178351
1.5178353
1.517866
1.5178542
1.5178547
1.5178644
1.517837
1.5178362
1.5177929
1.5177945
1.517842
1.5178486
1.517805
1.5177991
1.5178438
1.517846
1.5178454
1.5178482
1.5178484
1.5178436
1.5178476
1.517845
1.5178805
1.5178887
1.5178908
1.5178813
1.51788
1.517891
1.5178777
1.51789
1.5178505
1.5178502
1.5178517
1.5178485
1.5178511
1.5178493
1.5178485
1.51785
1.517848
1.5178464
1.5178479
1.5178461
1.5178474
1.5178457
1.5178474
1.5178457
1.5178429
1.5178332
1.5178366
1.5178444
1.5178696
1.5178296
1.517838
1.5178786
1.5177865
1.5177873
1.5177815
1.5177919
1.5177737
1.5177648
1.5177701
1.5177791
1.517823
1.5178177
1.5178123
1.5178061
1.5177979
1.5177887
1.5178104
1.517802
1.5176307
1.5175851
1.517573
1.5176389