/*--------------------------------*- C++ -*----------------------------------*\
  =========                 |
  \\      /  F ield         | OpenFOAM: The Open Source CFD Toolbox
   \\    /   O peration     | Website:  https://openfoam.org
    \\  /    A nd           | Version:  7
     \\/     M anipulation  |
\*---------------------------------------------------------------------------*/
FoamFile
{
    version     2.0;
    format      ascii;
    class       volScalarField;
    location    "5000";
    object      k;
}
// * * * * * * * * * * * * * * * * * * * * * * * * * * * * * * * * * * * * * //

dimensions      [0 2 -2 0 0 0 0];

internalField   nonuniform List<scalar> 
34356
(
1.5219071
1.5179156
1.5206196
1.5213401
1.5227427
1.5222866
1.5238149
1.521777
1.5222908
1.5175433
1.5171957
1.5179408
1.5177544
1.5199985
1.5197812
1.5208899
1.5210687
1.520275
1.5214479
1.520854
1.5217866
1.5222702
1.5218286
1.5213865
1.5218388
1.5239153
1.5247195
1.5247296
1.5245849
1.5245488
1.5191654
1.5200993
1.5189103
1.5186686
1.5206275
1.5208356
1.5211577
1.5215514
1.5169906
1.5179404
1.5178529
1.5169119
1.5166376
1.5170554
1.5167015
1.5171504
1.5183107
1.5181427
1.5171473
1.5175475
1.5173454
1.5168449
1.5179235
1.517323
1.5203147
1.5194549
1.5193872
1.5202816
1.5193134
1.5201455
1.5191627
1.5200327
1.5196617
1.5196059
1.5205991
1.5205561
1.5212719
1.5205695
1.519923
1.5209306
1.5215248
1.5211863
1.5209047
1.5212789
1.5212743
1.5211408
1.5208295
1.5209599
1.5218364
1.5206791
1.5205878
1.5203701
1.5204788
1.5214884
1.5206765
1.5208645
1.5206232
1.5204061
1.5213083
1.521007
1.524678
1.5246613
1.5248335
1.5248847
1.5184611
1.5181267
1.51928
1.5182873
1.51841
1.5183021
1.5181815
1.518268
1.5183949
1.5186707
1.5185441
1.5184698
1.51821
1.5183783
1.5182298
1.518381
1.5183156
1.518156
1.5180543
1.5199998
1.5198686
1.5201557
1.5201182
1.5204229
1.5203749
1.5211325
1.5207203
1.5183437
1.5186368
1.516845
1.5177852
1.5176947
1.5167757
1.516542
1.5166464
1.5166311
1.5165224
1.5164601
1.5171332
1.517224
1.5164842
1.5165915
1.5167058
1.5166944
1.5165727
1.5165289
1.5165062
1.5172996
1.5172443
1.5181627
1.5179538
1.5169885
1.5173918
1.5174103
1.5172084
1.5170164
1.5174151
1.5167327
1.5168541
1.5168254
1.5166886
1.5174273
1.5169035
1.5183728
1.5176722
1.5166652
1.5174532
1.5166114
1.5173783
1.5189312
1.5188893
1.5197374
1.5197454
1.5196934
1.518846
1.5188305
1.5196806
1.519603
1.518809
1.5187786
1.5195968
1.5186965
1.5186061
1.5194866
1.5194284
1.5190575
1.5190953
1.5199741
1.5199639
1.5199246
1.5190327
1.5190184
1.519911
1.5203128
1.5197565
1.5209518
1.520696
1.5193405
1.5192373
1.520266
1.5202073
1.5179708
1.5179083
1.521115
1.5205125
1.5209579
1.5207429
1.5201948
1.520242
1.5204076
1.5204493
1.5202922
1.5202017
1.5201557
1.5202499
1.5209597
1.5204382
1.520883
1.5205605
1.5209009
1.5204128
1.5208395
1.520505
1.520481
1.5208592
1.5208165
1.5204209
1.5211343
1.52019
1.5202298
1.5202678
1.5208835
1.5202294
1.5201545
1.5201976
1.5202695
1.5202283
1.5207395
1.5209772
1.5200331
1.519937
1.5199726
1.52
1.5199826
1.5200136
1.5200122
1.5200432
1.5206444
1.519706
1.5198972
1.5199141
1.5204525
1.519745
1.5196689
1.5198979
1.5198464
1.5197438
1.5203393
1.5205289
1.5200277
1.5197053
1.5198522
1.5199068
1.5201826
1.5199597
1.5199974
1.5201501
1.520047
1.5199655
1.5199287
1.5200134
1.519671
1.5198333
1.5198998
1.5197621
1.520676
1.5212833
1.5205617
1.5210878
1.5208368
1.5209555
1.5207691
1.5206634
1.5204838
1.5205581
1.5204136
1.5203608
1.518143
1.518228
1.5180936
1.5181535
1.5179653
1.518038
1.5180269
1.5183063
1.5182301
1.5180886
1.5180423
1.5180557
1.5180345
1.5179616
1.5179807
1.5181059
1.5180485
1.5179589
1.5180087
1.5179154
1.5178674
1.5178696
1.5179176
1.5178809
1.5178906
1.5178915
1.5179074
1.5179046
1.517957
1.5179587
1.5181166
1.5179979
1.5181774
1.5180548
1.5181978
1.5180547
1.5182963
1.5181568
1.5179574
1.5179594
1.5180552
1.5180554
1.5180517
1.5181115
1.5179241
1.5179967
1.5178081
1.5177824
1.5178403
1.5180472
1.518077
1.5179205
1.5179623
1.5178018
1.5178289
1.5178527
1.5178037
1.5178284
1.5180671
1.5180819
1.5179387
1.5179667
1.5181149
1.5179976
1.5181529
1.518029
1.5178839
1.51786
1.5178914
1.5179163
1.5177915
1.5177882
1.5178222
1.5178175
1.5177381
1.5194824
1.5194757
1.5193013
1.5193687
1.5196165
1.519606
1.5195652
1.5195498
1.5198215
1.5198321
1.5197697
1.5197843
1.5208591
1.5205413
1.5201153
1.5200449
1.5183406
1.5186001
1.5167232
1.5166273
1.5166412
1.5177841
1.5177097
1.5166624
1.5165866
1.5165702
1.5165199
1.5165014
1.5164647
1.5164531
1.5164185
1.5164386
1.5164677
1.5172013
1.516505
1.5172893
1.516526
1.5173511
1.5165244
1.5173304
1.5164791
1.5164813
1.5164553
1.5164518
1.516566
1.5165475
1.5165173
1.516527
1.5165016
1.5164847
1.5165002
1.5165025
1.5164722
1.5164686
1.5165775
1.5165606
1.5173906
1.5174276
1.5173575
1.5173416
1.5165458
1.5165373
1.5181415
1.5179535
1.5168587
1.5167529
1.5167839
1.5172565
1.5171123
1.5173645
1.5169691
1.5173829
1.516702
1.5166608
1.519081
1.5176269
1.5172599
1.5175204
1.5171735
1.5168627
1.5169089
1.5168644
1.5167893
1.5178021
1.5188401
1.5172426
1.5181645
1.5169403
1.5177909
1.5176543
1.5168446
1.5166632
1.516644
1.5166377
1.5166055
1.516721
1.5175622
1.516686
1.5175224
1.5166019
1.516612
1.5165789
1.516563
1.5166569
1.5166277
1.5175018
1.5174595
1.5180548
1.5180949
1.519382
1.5193779
1.5180048
1.517992
1.5193566
1.5193585
1.5179688
1.5193158
1.5179501
1.5193151
1.5192992
1.5179358
1.5179618
1.5193008
1.5179658
1.5179801
1.5192508
1.5192518
1.5179208
1.5179185
1.5192378
1.5192352
1.5178995
1.5178592
1.5191398
1.5191321
1.5178018
1.5177674
1.5190627
1.519045
1.5181252
1.5181144
1.5195497
1.5195515
1.5181694
1.5182001
1.5195739
1.5195679
1.5181231
1.5181031
1.5195171
1.5195177
1.5181183
1.5180962
1.5195052
1.5195057
1.5192844
1.5197543
1.5207919
1.520653
1.5202931
1.5188367
1.5186575
1.5202521
1.518319
1.5184174
1.5198594
1.5198276
1.5182551
1.5182566
1.5197546
1.5197488
1.5206038
1.5177887
1.5177368
1.5177149
1.5177665
1.5177265
1.5176793
1.5177058
1.5230933
1.5239013
1.5231274
1.5230385
1.5238751
1.5246147
1.5244908
1.5244781
1.5239852
1.5240025
1.5207289
1.5208468
1.5203745
1.5205609
1.5198227
1.5197382
1.5199636
1.5198922
1.5206304
1.5207187
1.5202414
1.5203949
1.5199402
1.5201374
1.5198631
1.520074
1.5195345
1.519511
1.5196617
1.5196427
1.5195726
1.5197026
1.5195656
1.519696
1.5196316
1.519613
1.5198145
1.5197996
1.5198582
1.5196752
1.5196669
1.5198508
1.519481
1.519613
1.5194735
1.5196071
1.5194446
1.5194357
1.5195366
1.5195294
1.5194107
1.51938
1.5195019
1.5194742
1.5194457
1.5194183
1.5195774
1.5195533
1.5205345
1.520628
1.5201206
1.5202727
1.519663
1.5195753
1.5197638
1.5196838
1.5204718
1.5205427
1.5200463
1.5201668
1.5197124
1.5196251
1.5198589
1.5197811
1.5204201
1.5204904
1.5199861
1.520104
1.51964
1.5195538
1.5196983
1.5196177
1.5204133
1.520452
1.5199799
1.5200587
1.519622
1.519535
1.5197269
1.5196463
1.5196973
1.5197334
1.5196132
1.519654
1.520449
1.5204624
1.5200234
1.5200716
1.5205255
1.5201488
1.5205973
1.5208098
1.5202171
1.5198218
1.5197456
1.520464
1.5198272
1.5199044
1.5207282
1.5203754
1.5195996
1.5195687
1.5202418
1.5196549
1.5196834
1.5196304
1.5196166
1.5202765
1.519699
1.5197138
1.5195043
1.5195352
1.5194896
1.5195222
1.5202034
1.5201692
1.5194731
1.5195045
1.5194391
1.5194708
1.5194096
1.5194627
1.5193743
1.5194296
1.5194415
1.519495
1.5194278
1.5194833
1.5194174
1.5195115
1.5194057
1.5195023
1.5193841
1.5194789
1.5193506
1.5194479
1.5201892
1.5202158
1.5202465
1.5202179
1.5207151
1.5206567
1.5203694
1.5204141
1.5192307
1.5193201
1.5192117
1.5193053
1.5192114
1.5191775
1.5192623
1.5192299
1.5192561
1.5193056
1.5192319
1.5192859
1.5191874
1.5191547
1.519278
1.5192472
1.5193951
1.5193631
1.520039
1.519444
1.5194765
1.5194424
1.5194123
1.5200638
1.5194915
1.5195262
1.519273
1.5193029
1.5192397
1.5192701
1.5193201
1.5193469
1.5192902
1.5193224
1.5200038
1.5199827
1.5192378
1.5191057
1.5197665
1.5191781
1.5193231
1.5193529
1.5193291
1.5199472
1.5194087
1.519435
1.5192339
1.5192576
1.51921
1.5192367
1.5199006
1.5196994
1.5191247
1.5191442
1.5189862
1.5190217
1.5190602
1.5190998
1.5189324
1.5189876
1.5191428
1.5192247
1.519126
1.5192113
1.5191696
1.5192159
1.5191488
1.5191982
1.5190316
1.5191111
1.5189151
1.5190093
1.5199444
1.5197498
1.5199496
1.5197654
1.520052
1.5200313
1.5200193
1.5200362
1.5193524
1.519509
1.5193468
1.519504
1.5191574
1.5190732
1.5192639
1.5191939
1.5192681
1.5193797
1.5192616
1.5193744
1.5192383
1.5193956
1.5191636
1.5193338
1.5194739
1.5196417
1.5194644
1.5196336
1.5193319
1.5194525
1.5193065
1.5194318
1.5193794
1.5195
1.5193694
1.5194918
1.5194248
1.5194048
1.5195934
1.5195775
1.5192933
1.5192813
1.519417
1.5194075
1.519258
1.5193449
1.5192435
1.5193332
1.5192143
1.5191832
1.5193011
1.5192725
1.5192481
1.5192193
1.5193721
1.5193461
1.5190534
1.518948
1.5191289
1.5190377
1.5191634
1.5191512
1.519244
1.5192343
1.5191933
1.5193062
1.5191842
1.5192993
1.5190814
1.5189865
1.5191937
1.5191129
1.5204502
1.5205276
1.5207481
1.5206329
1.5204619
1.5203163
1.5204639
1.52039
1.5203211
1.5202739
1.5206254
1.5205848
1.520431
1.5204524
1.5206554
1.5206134
1.5203996
1.5204211
1.5202729
1.520261
1.5202392
1.5202498
1.5203068
1.5202914
1.5203162
1.5202985
1.5201298
1.5201337
1.5201425
1.5201392
1.5200862
1.5200806
1.5200895
1.520082
1.5200079
1.5198417
1.5200032
1.5198342
1.5199585
1.5200601
1.5200605
1.5199338
1.5179165
1.5178476
1.5179054
1.5179683
1.5179736
1.5180418
1.5179775
1.5179005
1.5177519
1.5178119
1.5178634
1.517808
1.5177925
1.5178569
1.5179177
1.5178587
1.5176619
1.5176229
1.5176781
1.5176061
1.5177299
1.5176621
1.5176446
1.5177139
1.5179582
1.5179042
1.5180463
1.5179909
1.5179901
1.5179553
1.5179155
1.5178902
1.5178192
1.5177809
1.5177232
1.5177544
1.5177972
1.5177959
1.5177498
1.517747
1.5177126
1.5177156
1.5177077
1.5177041
1.5177055
1.5176806
1.5176759
1.5176981
1.5179386
1.5178836
1.5177731
1.5178266
1.5178679
1.5178223
1.5177402
1.5177771
1.5176815
1.51769
1.5177175
1.5177084
1.5177535
1.5177089
1.5176985
1.5177404
1.5176637
1.5176171
1.5176155
1.5176584
1.5176237
1.5175952
1.5175973
1.5176226
1.5176088
1.5176122
1.51764
1.517637
1.5176759
1.5176313
1.51763
1.5176729
1.5176235
1.5176336
1.5176353
1.5176238
1.5175943
1.5175923
1.5176101
1.5176128
1.5176272
1.5176008
1.5176236
1.5176723
1.5176742
1.5176757
1.5177157
1.5177145
1.5176575
1.5176642
1.5177062
1.5176991
1.5177566
1.5177093
1.5177014
1.5177476
1.5177639
1.5177178
1.5177182
1.5177619
1.5180033
1.517955
1.5178286
1.5178816
1.5177381
1.5177529
1.5177942
1.5177792
1.5178855
1.5180184
1.5180604
1.5179406
1.5178447
1.5177959
1.5177793
1.5178257
1.5181111
1.5180733
1.5179447
1.517993
1.5178269
1.5178476
1.5178858
1.5178659
1.5179933
1.5181203
1.5181565
1.5180425
1.5179301
1.5178855
1.5178639
1.5179071
1.5177982
1.5177601
1.5177511
1.5177889
1.5177662
1.5177671
1.5178024
1.5178017
1.517789
1.5177977
1.5178364
1.5178301
1.5178428
1.5178019
1.5178024
1.5178409
1.5177172
1.5177069
1.5177639
1.5176582
1.517753
1.5178192
1.5177682
1.5176985
1.5175131
1.5175725
1.5175278
1.5175872
1.5175677
1.5176401
1.5175518
1.5176246
1.5173314
1.5174013
1.5174048
1.517337
1.5173115
1.5173134
1.5173811
1.5173779
1.5174501
1.5173781
1.5174477
1.5173822
1.5176246
1.5175818
1.5176586
1.5175486
1.5176443
1.5177185
1.5176779
1.5176032
1.5174793
1.5174139
1.5174923
1.5174026
1.5174699
1.5175487
1.5174565
1.5175348
1.5174265
1.5174787
1.5174797
1.517429
1.5171728
1.5171729
1.517281
1.5172817
1.5172624
1.5173547
1.5173587
1.5172598
1.5171599
1.5171568
1.5172611
1.5172659
1.5172436
1.5172411
1.517338
1.5173342
1.517486
1.5173845
1.5175058
1.517368
1.5174917
1.517596
1.5175692
1.5174667
1.5173374
1.5172257
1.5173486
1.5172179
1.517328
1.5174362
1.5173175
1.5174246
1.5172515
1.5172457
1.5173958
1.5173843
1.5172428
1.5172349
1.5170962
1.5170947
1.5172614
1.5171121
1.5170628
1.5170625
1.5171914
1.5171898
1.5171794
1.5171743
1.5170542
1.5170539
1.5170731
1.5170817
1.5170241
1.5170239
1.5171404
1.5171394
1.5171339
1.5171292
1.5170142
1.5170142
1.5170436
1.5170329
1.5172209
1.5171223
1.5172206
1.5171229
1.5191847
1.5191833
1.5191685
1.5191682
1.5189943
1.5189792
1.5190655
1.5190749
1.5193114
1.5193046
1.5192815
1.5192857
1.5192437
1.5192404
1.5192235
1.5192287
1.5194674
1.5194728
1.5194858
1.5194949
1.5194256
1.5194305
1.5194383
1.5194389
1.5205788
1.5207433
1.5201642
1.5202092
1.5197749
1.5197379
1.5196614
1.5196629
1.5192092
1.5183956
1.5175951
1.5175134
1.5186164
1.5177324
1.5179541
1.5166248
1.5166365
1.5166189
1.5165899
1.5165759
1.5165688
1.5165828
1.516564
1.5165417
1.5165245
1.5165308
1.516532
1.5164788
1.5164765
1.5164612
1.5164581
1.5165108
1.5165181
1.5164652
1.516453
1.5164461
1.5164292
1.5164179
1.5164123
1.5163993
1.5164104
1.5164307
1.5164365
1.5164348
1.5164279
1.5164049
1.5164064
1.5163925
1.5163874
1.5171102
1.5166283
1.5165651
1.5170359
1.5164285
1.5164248
1.5164255
1.5164304
1.5166526
1.5166396
1.5171396
1.5171753
1.5164422
1.5164432
1.5164456
1.5164448
1.5172294
1.5166835
1.5166849
1.5172228
1.5164373
1.5164401
1.5164441
1.5164398
1.516663
1.5166806
1.5171972
1.5171818
1.5164511
1.5164513
1.5164458
1.5164452
1.5164426
1.5164483
1.5164472
1.5164407
1.5165754
1.5165811
1.5165119
1.5165236
1.5165057
1.5164908
1.5165601
1.5165621
1.5164992
1.5164975
1.5164786
1.5164759
1.5164953
1.5164985
1.5164867
1.5164941
1.5164796
1.5164778
1.5164731
1.5164697
1.5164606
1.5164673
1.5164596
1.5164669
1.5164642
1.5164632
1.5164571
1.5164554
1.5165002
1.5164953
1.5164837
1.5164874
1.5164658
1.5164705
1.5164676
1.5164753
1.5167096
1.5172358
1.5172288
1.5166947
1.5173197
1.5167532
1.516731
1.5172807
1.5166871
1.5166866
1.517205
1.5172142
1.5172074
1.5166913
1.5166745
1.5172087
1.5164564
1.5164581
1.5164596
1.5164623
1.5164518
1.5164541
1.5164535
1.5164568
1.5193588
1.5191541
1.5192232
1.5167494
1.516775
1.5167467
1.5167247
1.5166944
1.5171003
1.5173271
1.5171299
1.5173063
1.5170115
1.5191632
1.5169733
1.5170058
1.5168986
1.5168638
1.5168456
1.5167999
1.517296
1.5174428
1.5175158
1.5172014
1.5175693
1.5171682
1.5167086
1.5167194
1.5166559
1.5166348
1.5166379
1.5166108
1.5166734
1.5166807
1.5166092
1.5165986
1.5165855
1.5165718
1.5190431
1.5192731
1.5193309
1.5189658
1.5190019
1.5199591
1.5176831
1.5175638
1.5175449
1.517782
1.5171671
1.5171218
1.5170769
1.5171622
1.5168568
1.5168391
1.5168158
1.5168502
1.5167618
1.5167798
1.516769
1.516744
1.5178451
1.5175317
1.5179119
1.5175317
1.5189943
1.5182812
1.5178513
1.5185056
1.517161
1.5171735
1.5170491
1.5170324
1.5172718
1.5174864
1.5180942
1.5178432
1.5168471
1.516802
1.5167973
1.5168528
1.5176618
1.5171054
1.5170253
1.5175543
1.5175011
1.5169788
1.5169234
1.5174527
1.5167515
1.5167295
1.5167214
1.5167479
1.5166251
1.5166335
1.516632
1.5166158
1.5165958
1.5165989
1.5165918
1.5165861
1.5166112
1.5166326
1.5166381
1.516614
1.5174121
1.5168622
1.516847
1.5173917
1.5165814
1.5165889
1.5165941
1.5165847
1.5168127
1.5168329
1.5173599
1.5173477
1.5165674
1.5165739
1.5165722
1.5165642
1.5165521
1.5165596
1.5165551
1.5165443
1.5165605
1.5165651
1.5165703
1.5165639
1.5165391
1.5165492
1.5165526
1.5165388
1.5167989
1.5168058
1.5173498
1.5173361
1.5167581
1.5167932
1.517333
1.5173155
1.516377
1.5179164
1.5179551
1.517866
1.517855
1.5178322
1.517812
1.5177959
1.5178214
1.5178313
1.5178462
1.517787
1.517784
1.5177698
1.5177321
1.5176728
1.5176451
1.5179806
1.51797
1.5180273
1.5180609
1.5179772
1.5179581
1.5179755
1.5179493
1.519137
1.5196341
1.5186805
1.5184978
1.5181701
1.5182655
1.5181048
1.5181008
1.5246325
1.5170531
1.5170279
1.5170019
1.517025
1.5169975
1.5169655
1.5169713
1.5226227
1.5223759
1.5231684
1.522455
1.522711
1.5234321
1.5234012
1.523113
1.5225125
1.5225339
1.5222402
1.5222859
1.5224563
1.5221859
1.5222538
1.5231977
1.5234719
1.5234614
1.5232021
1.5241528
1.5241924
1.524077
1.5240865
1.524192
1.5238116
1.5235537
1.5235856
1.5233557
1.5233174
1.5235565
1.5236955
1.5236661
1.5234949
1.5205253
1.5206237
1.5206682
1.5204516
1.5206845
1.5207425
1.520606
1.5205243
1.5200057
1.5200963
1.5200571
1.5201394
1.5201379
1.5202407
1.5200907
1.5202022
1.5194248
1.5195152
1.5194877
1.5193933
1.5192864
1.5192982
1.5193965
1.5193868
1.519596
1.5195124
1.5196228
1.5194814
1.5193818
1.519504
1.5193909
1.5195122
1.5203653
1.5204752
1.5205288
1.5202839
1.5205446
1.520606
1.520453
1.5203624
1.519896
1.5198564
1.519947
1.5197963
1.5199451
1.5200584
1.51989
1.5200116
1.5196213
1.5197021
1.5196753
1.5195907
1.5198055
1.5197009
1.5196696
1.5197765
1.5195073
1.519499
1.5195949
1.5195876
1.5197018
1.5195821
1.5196987
1.5195896
1.5191312
1.5192168
1.5192237
1.51914
1.5191105
1.5191099
1.5191968
1.5191967
1.519319
1.5192081
1.5193132
1.5192156
1.5191894
1.5192959
1.5191888
1.5192964
1.519262
1.519173
1.5192601
1.5191763
1.5192541
1.51936
1.51936
1.5192551
1.5192463
1.5191562
1.5192451
1.5191585
1.5192378
1.5193454
1.5192401
1.5193463
1.5193058
1.5193822
1.5193868
1.5193121
1.5192896
1.5193673
1.5192894
1.5193665
1.5194747
1.5194764
1.5193752
1.5193796
1.5193599
1.5193604
1.519462
1.5194642
1.5194271
1.5195284
1.5195222
1.5194236
1.5194304
1.5193549
1.5194323
1.519354
1.5193402
1.5193388
1.5194166
1.5194173
1.5194108
1.5194091
1.5195064
1.5195097
1.5190835
1.5189936
1.5190775
1.5190011
1.5190611
1.5191793
1.5191833
1.5190666
1.5190633
1.5189795
1.5190637
1.5189784
1.5190442
1.5191644
1.5190462
1.5191647
1.5188709
1.5189541
1.5189623
1.5188817
1.5188572
1.5189422
1.5189382
1.5188553
1.5189202
1.5190215
1.5190286
1.518929
1.5189069
1.5190096
1.5190062
1.5189045
1.5188355
1.51892
1.5189295
1.5188481
1.5188121
1.5188127
1.5188971
1.5188951
1.5188854
1.5189873
1.5189962
1.5188963
1.5188615
1.5188623
1.5189653
1.5189634
1.5189597
1.5190438
1.5190513
1.5189698
1.518937
1.5189374
1.5190216
1.5190211
1.5191414
1.5191487
1.5190266
1.5190343
1.519005
1.5190036
1.5191201
1.5191196
1.5201931
1.5203071
1.5203696
1.5201075
1.5203833
1.5204571
1.5202865
1.5201853
1.519578
1.5196802
1.5196489
1.5197419
1.519734
1.5198576
1.5196677
1.519801
1.5190833
1.5191726
1.5191523
1.5190628
1.5189662
1.5190559
1.5190394
1.5189505
1.5192268
1.5191424
1.5192498
1.5191187
1.5191147
1.5190195
1.5191309
1.5190032
1.5200507
1.5201566
1.5202242
1.5199649
1.5202243
1.5202994
1.5201238
1.5200281
1.5195106
1.5194823
1.5195773
1.5194093
1.5195526
1.5196673
1.5194796
1.519602
1.5192273
1.5193164
1.5192892
1.5191998
1.5191015
1.5191924
1.5190857
1.5191783
1.5194276
1.5193995
1.5193051
1.5192725
1.51916
1.5191736
1.5193053
1.5192922
1.5199096
1.519988
1.520071
1.5198147
1.5200665
1.5201556
1.519988
1.5198821
1.5192321
1.5193452
1.519302
1.5194106
1.5193807
1.5195083
1.5193083
1.5194419
1.5187414
1.518878
1.5188716
1.518738
1.5186421
1.5186505
1.518784
1.5187734
1.5189623
1.5188381
1.518972
1.5188306
1.5187295
1.5188606
1.5187391
1.5188729
1.5197577
1.5197684
1.5198894
1.5196345
1.5198811
1.5199918
1.5198436
1.5197248
1.5191609
1.51907
1.5192195
1.5190121
1.5191857
1.5193332
1.5191203
1.5192705
1.5189355
1.5190345
1.5190203
1.5189236
1.5188307
1.5189282
1.5188185
1.5189143
1.5191158
1.5190985
1.5189985
1.5189811
1.5188716
1.5188859
1.5190056
1.5189901
1.5184051
1.5183985
1.5186249
1.5186183
1.5185846
1.5187803
1.5187763
1.5185906
1.5183286
1.5183195
1.5185314
1.5185439
1.518505
1.518496
1.5186944
1.5186832
1.5195298
1.5194036
1.5196103
1.5193323
1.5196057
1.5197741
1.5196664
1.5195005
1.5188776
1.5186756
1.51892
1.5186409
1.5188915
1.5191023
1.5188422
1.5190512
1.5191361
1.5191078
1.5193973
1.5193509
1.5186942
1.5186681
1.5183902
1.5183799
1.5191181
1.5206124
1.5205652
1.5201868
1.5202675
1.5184032
1.5181645
1.5181619
1.5184322
1.5184261
1.5183602
1.5183488
1.5180987
1.518097
1.5199603
1.5198983
1.5198324
1.5198936
1.5181288
1.5181917
1.5205591
1.5205076
1.5201304
1.5202135
1.5198211
1.5198763
1.5199317
1.5198745
1.5179614
1.5179612
1.5182262
1.5182236
1.5182146
1.5182044
1.5179518
1.5179508
1.5197426
1.5196852
1.5196629
1.5197183
1.5179804
1.5179904
1.5180182
1.5180172
1.5182764
1.5182739
1.5182423
1.5182327
1.5179764
1.5179758
1.5197744
1.5197174
1.519701
1.5197594
1.5180053
1.5180474
1.518249
1.5182486
1.5184623
1.5184609
1.5184261
1.5184313
1.5186094
1.5186161
1.5184228
1.518215
1.5184341
1.518208
1.5185862
1.5183988
1.5183915
1.5185793
1.5197553
1.5197023
1.519686
1.5197394
1.5196554
1.5196739
1.519724
1.5197036
1.5184163
1.5181991
1.518416
1.5181996
1.5185662
1.5183806
1.5183854
1.5185737
1.5183919
1.5181875
1.5184025
1.5181804
1.5185494
1.5183661
1.51836
1.5185441
1.5186696
1.5185277
1.5186601
1.5185393
1.5186182
1.5187471
1.5187567
1.5186304
1.5185084
1.5186373
1.5185099
1.5186407
1.518598
1.5187264
1.5185971
1.5187232
1.5187093
1.5185716
1.5187007
1.5185818
1.5186592
1.5186701
1.5187853
1.5187953
1.518675
1.5185478
1.5186814
1.5185446
1.5187681
1.5186395
1.5186356
1.5187637
1.5188471
1.518746
1.5188382
1.5187576
1.5189075
1.5187987
1.5188087
1.5189175
1.5187256
1.518819
1.5187284
1.5188235
1.5188949
1.5187833
1.5187802
1.5188914
1.5188109
1.5187076
1.5188019
1.5187194
1.5188727
1.518762
1.5187729
1.5188834
1.5186848
1.5187767
1.5186864
1.5187801
1.5188505
1.5187398
1.5187378
1.5188483
1.5196147
1.5196255
1.5196833
1.51967
1.5196303
1.5196459
1.5197055
1.5196907
1.5197351
1.5196707
1.5196535
1.5197193
1.5197082
1.5196455
1.5196317
1.5196914
1.5204961
1.520432
1.5200591
1.5201522
1.5204181
1.5203475
1.5199944
1.5200819
1.5197729
1.519806
1.5198674
1.5198302
1.519904
1.5198361
1.5197932
1.5198568
1.5186936
1.518597
1.5186859
1.5186062
1.51865
1.5187562
1.5187634
1.5186588
1.5185658
1.5186565
1.5185698
1.5186614
1.5186247
1.5187339
1.5186209
1.5187292
1.5183736
1.5184986
1.5185092
1.5183872
1.5183534
1.5183563
1.5184778
1.5184724
1.5185916
1.5184594
1.5185812
1.5184726
1.5184341
1.5185512
1.5184374
1.5185575
1.5185592
1.5184274
1.518552
1.5184353
1.5185138
1.5186349
1.5186425
1.518523
1.5185149
1.5183928
1.5185214
1.518389
1.5184829
1.5186081
1.5184786
1.5186024
1.5185441
1.5186331
1.5186424
1.5185564
1.518519
1.5186063
1.518514
1.5185993
1.5187008
1.5187099
1.5185958
1.5186064
1.5185614
1.5185675
1.5186729
1.518665
1.5178403
1.5178404
1.5180902
1.5180878
1.5180827
1.5180737
1.5178384
1.5178389
1.5195381
1.5194865
1.5194606
1.5195097
1.5178646
1.5178662
1.5178844
1.5178832
1.518137
1.5181342
1.5180912
1.5180825
1.5178331
1.5178329
1.5195852
1.5195325
1.5194956
1.5195516
1.5178578
1.5179095
1.5180652
1.5180664
1.5182695
1.5182718
1.5182437
1.5184115
1.5184205
1.5182367
1.518057
1.5180514
1.518248
1.5182569
1.5182227
1.5182184
1.5183955
1.5183888
1.5183189
1.5181121
1.5183188
1.5181118
1.5182869
1.518464
1.5184685
1.5182908
1.5182691
1.5180667
1.5182789
1.5180609
1.518247
1.5184295
1.5182411
1.5184221
1.5195703
1.519522
1.5194858
1.5195364
1.5194642
1.5194836
1.5195291
1.5195062
1.5177747
1.5177724
1.5180189
1.5180121
1.5179067
1.5178845
1.5176632
1.5176553
1.519375
1.519333
1.5191813
1.5192386
1.5176818
1.5177975
1.5178499
1.5178493
1.5180953
1.5180921
1.5180613
1.5180505
1.5178101
1.5178093
1.5194945
1.5194482
1.519419
1.5194681
1.5178335
1.517874
1.5180704
1.5180706
1.518271
1.5182695
1.5182371
1.5182436
1.5184075
1.518415
1.5182291
1.5180374
1.5182416
1.5180292
1.5183828
1.5182095
1.518201
1.5183741
1.5194886
1.5194478
1.5194164
1.5194604
1.5191767
1.519335
1.5193674
1.5192242
1.5181869
1.5179955
1.5181923
1.5179906
1.5183255
1.5181605
1.5181587
1.518326
1.5180498
1.5178837
1.5180772
1.5178602
1.5182103
1.5180453
1.5180196
1.5181858
1.5184105
1.5182915
1.5184092
1.5182949
1.5183725
1.5184851
1.5184858
1.5183753
1.5181533
1.5182698
1.5181763
1.5182935
1.5182573
1.518373
1.5182339
1.518349
1.518628
1.518532
1.5186167
1.5185462
1.5186789
1.5185801
1.5185935
1.5186919
1.5185081
1.5185936
1.5185137
1.5186012
1.5186667
1.5185651
1.5185584
1.5186595
1.5185021
1.5183726
1.5184923
1.5183843
1.5184541
1.5184669
1.5185701
1.5185816
1.5184627
1.518348
1.5184711
1.5183427
1.5185512
1.5184333
1.518427
1.5185441
1.5185327
1.5184508
1.5185333
1.5184525
1.5185945
1.5184989
1.5184988
1.5185951
1.5183148
1.5183986
1.5183394
1.5184231
1.5184889
1.5183895
1.5183641
1.5184654
1.5194748
1.5194256
1.5193914
1.5194413
1.5191517
1.5193181
1.5193567
1.5192038
1.5194005
1.5194358
1.519485
1.5194539
1.5193664
1.5193219
1.5191591
1.5192176
1.5195571
1.5194976
1.5194637
1.5195243
1.519534
1.5194812
1.51945
1.5195034
1.5194478
1.519454
1.5195061
1.5194955
1.5195218
1.519465
1.5194532
1.5195051
1.5191385
1.5190669
1.5191338
1.5190734
1.5191275
1.5192152
1.5192161
1.5191317
1.5190576
1.5191243
1.5190606
1.5191275
1.5191201
1.5192038
1.5191172
1.5192025
1.518819
1.5188913
1.5188888
1.5188168
1.5187088
1.5187281
1.5188032
1.5187859
1.5189684
1.5188837
1.5189716
1.5188806
1.5187764
1.5188715
1.5187953
1.518889
1.5189972
1.5189132
1.5189892
1.5189232
1.5189821
1.5190743
1.5190806
1.5189904
1.5189783
1.5189043
1.5189818
1.5189009
1.5189749
1.5190681
1.5189721
1.5190648
1.5189645
1.5190282
1.519024
1.5189606
1.5191062
1.5190157
1.5190213
1.5191001
1.518881
1.5188617
1.5189473
1.5189298
1.519029
1.5189193
1.519014
1.518939
1.5191809
1.5191819
1.5192517
1.5192522
1.5193412
1.5192465
1.519338
1.5192471
1.519162
1.5192341
1.519234
1.5191628
1.5193203
1.5192277
1.519318
1.5192279
1.518952
1.5190338
1.5189575
1.5190389
1.5190329
1.5190275
1.5191264
1.5191312
1.5189171
1.519003
1.5189203
1.5190056
1.519103
1.5190004
1.5189988
1.5191014
1.5190145
1.5190182
1.5190946
1.5190976
1.5190914
1.5191883
1.5190893
1.5191866
1.5189926
1.5190753
1.5190765
1.5189943
1.5191692
1.519069
1.5191688
1.5190711
1.5191206
1.5191923
1.5191959
1.5191255
1.519097
1.519098
1.5191721
1.5191708
1.5192776
1.5191865
1.5192778
1.5191896
1.5191658
1.5192612
1.5191664
1.5192591
1.5188459
1.5189257
1.5189307
1.5188515
1.5188203
1.5188222
1.5189031
1.5189019
1.5190245
1.5189128
1.5190206
1.5189173
1.5188878
1.5189993
1.5188875
1.5189994
1.5188101
1.5187247
1.5188043
1.5187324
1.5187742
1.5188704
1.5188754
1.5187802
1.5187779
1.5187011
1.5187825
1.5186975
1.5187506
1.5188488
1.5187473
1.5188453
1.5186674
1.5187471
1.5187547
1.5186776
1.5186378
1.5187166
1.518708
1.5186308
1.5188177
1.5187146
1.518811
1.5187232
1.5187712
1.5186826
1.5187797
1.5186752
1.518785
1.5188646
1.5188699
1.5187924
1.5187522
1.5188318
1.5187451
1.5188256
1.5189638
1.5188486
1.5189593
1.5188539
1.5188094
1.5188139
1.5189275
1.5189224
1.5185639
1.5186369
1.518636
1.5185647
1.5184345
1.5184588
1.5185334
1.5185104
1.5186075
1.518695
1.5186932
1.5186066
1.5184805
1.5185043
1.5185963
1.5185742
1.5186462
1.5187214
1.5187331
1.5186607
1.5186344
1.518711
1.5187033
1.518628
1.5186901
1.5187817
1.5187925
1.5187033
1.5186796
1.5187723
1.5187645
1.5186729
1.5188424
1.5187569
1.5188328
1.518769
1.5188181
1.518921
1.5189299
1.5188282
1.5188164
1.5187468
1.5188226
1.5187403
1.5188063
1.5189117
1.5188017
1.5189067
1.5186718
1.5187444
1.5187416
1.5186701
1.5185507
1.5185732
1.5186477
1.5186279
1.5188274
1.5188252
1.5187307
1.5187273
1.5186137
1.5186338
1.5187365
1.5187179
1.5164918
1.5202552
1.5201658
1.5205286
1.5204162
1.5203639
1.5202974
1.5202966
1.520288
1.5201898
1.5201847
1.5164165
1.5200309
1.5199852
1.520128
1.5201244
1.5200351
1.5200319
1.5200645
1.5200052
1.5199922
1.5199565
1.5201658
1.5201096
1.5199259
1.519969
1.5201438
1.5201302
1.5199995
1.51999
1.519914
1.519923
1.5198984
1.5198927
1.5198476
1.5198238
1.519816
1.5198354
1.5203283
1.5202458
1.5199328
1.5200179
1.5202329
1.5201579
1.5199151
1.5199723
1.5197721
1.5197886
1.5198226
1.5198037
1.519837
1.5197757
1.5197519
1.5198092
1.5196798
1.5196146
1.5196067
1.5196683
1.5196661
1.5196339
1.5196313
1.5196603
1.5196059
1.5196189
1.5196518
1.5196413
1.5196611
1.5195989
1.5195906
1.5196509
1.5197682
1.5197858
1.5197869
1.519763
1.5197616
1.5197771
1.5197477
1.5197335
1.5196829
1.519685
1.5196977
1.5196988
1.5196837
1.5196646
1.5196509
1.5196701
1.5196186
1.5196293
1.5196019
1.5195945
1.5196139
1.519614
1.5195887
1.51959
1.5195094
1.5195122
1.5195345
1.5195281
1.5195372
1.5195207
1.5195171
1.5195331
1.5195104
1.5194749
1.5194608
1.519491
1.5194672
1.5194696
1.5194969
1.5194934
1.5194358
1.5194625
1.5195169
1.5194904
1.5194946
1.5194419
1.5194388
1.5194883
1.5194641
1.5194341
1.5194117
1.5194374
1.5191731
1.5193404
1.5193586
1.519202
1.5193816
1.5194115
1.5194626
1.5194318
1.5193523
1.5193087
1.5191422
1.5191976
1.5194094
1.5195008
1.5194664
1.5193548
1.5195639
1.5195714
1.5195482
1.5195406
1.5194943
1.519475
1.519464
1.5194774
1.5194003
1.5193888
1.5192498
1.5192541
1.5170057
1.5169128
1.5169111
1.5170059
1.5170074
1.5170187
1.5169175
1.5169104
1.5169326
1.5170191
1.5170142
1.5169263
1.516921
1.5170104
1.5170078
1.5169168
1.5167909
1.5168306
1.5168258
1.5167974
1.5168189
1.516822
1.5167861
1.5167824
1.5162483
1.5162473
1.5178095
1.5177831
1.5177205
1.5177945
1.5178182
1.5178311
1.5177943
1.5177586
1.5177627
1.5177615
1.5177564
1.5176924
1.5176928
1.5176808
1.5176815
1.5170987
1.5171229
1.5170778
1.5170405
1.5171676
1.5172891
1.5172561
1.5171295
1.5172487
1.517242
1.5171155
1.5171222
1.5170233
1.5170598
1.5170659
1.5170272
1.5171363
1.5171097
1.5170138
1.5170287
1.5170926
1.5170881
1.5170172
1.5170079
1.5170026
1.5169991
1.5169893
1.5169918
1.5170092
1.516993
1.516994
1.5170064
1.5169716
1.5169523
1.51695
1.5169648
1.5169432
1.5169479
1.5169525
1.5169436
1.5169576
1.5169558
1.5169482
1.5169494
1.5169714
1.5169538
1.5169541
1.5169686
1.5170595
1.5171822
1.5171884
1.5170661
1.5170112
1.5170041
1.5169674
1.5169739
1.5169767
1.5170118
1.5169159
1.5169361
1.5169897
1.5169929
1.5170161
1.5170134
1.5169858
1.516994
1.5170178
1.5170088
1.5170597
1.5170399
1.5170304
1.5170479
1.5170573
1.5170378
1.5170364
1.5170557
1.5171965
1.5171646
1.5170504
1.5170744
1.5170255
1.51703
1.517053
1.5170473
1.5170972
1.5172227
1.5172448
1.5171163
1.5170949
1.5170749
1.5170684
1.5170861
1.5172734
1.5172614
1.5171297
1.5171366
1.5170982
1.5171069
1.5171123
1.5171037
1.5171366
1.517277
1.5172744
1.5171298
1.5171019
1.5171107
1.517102
1.5170933
1.517077
1.5170714
1.5170598
1.5170648
1.5170695
1.5170686
1.517073
1.5170626
1.5170741
1.5170644
1.5170533
1.5170598
1.51707
1.5169616
1.5170523
1.5170422
1.5169749
1.5170331
1.5170261
1.5169412
1.5169508
1.5168366
1.5168246
1.5168648
1.5168542
1.5168449
1.5168376
1.5168141
1.5168055
1.5168803
1.5168619
1.5168567
1.5168775