/*--------------------------------*- C++ -*----------------------------------*\
  =========                 |
  \\      /  F ield         | OpenFOAM: The Open Source CFD Toolbox
   \\    /   O peration     | Website:  https://openfoam.org
    \\  /    A nd           | Version:  7
     \\/     M anipulation  |
\*---------------------------------------------------------------------------*/
FoamFile
{
    version     2.0;
    format      ascii;
    class       volVectorField;
    location    "5000";
    object      U;
}
// * * * * * * * * * * * * * * * * * * * * * * * * * * * * * * * * * * * * * //

dimensions      [0 1 -1 0 0 0 0];

internalField   nonuniform List<vector> 
34356
(
(-1.5906833e+30 5.9545273e+28 1.2223252e+29)
(-1.7663721e+30 1.2954914e+29 1.3608423e+29)
(-1.4573535e+30 7.149837e+28 1.9457395e+29)
(-1.4083349e+30 2.3961023e+27 1.8701558e+29)
(-1.2309069e+30 1.0057272e+29 3.6093781e+29)
(-1.1830377e+30 6.2391496e+28 3.0821233e+29)
(-1.985622e+30 1.1518176e+29 1.2799713e+29)
(-1.4374693e+30 8.5541535e+28 7.5729147e+28)
(-1.4889078e+30 6.0229088e+28 1.2417513e+29)
(-1.435602e+30 9.4204703e+28 -1.8716862e+29)
(-1.2771651e+30 1.478081e+29 1.7093862e+29)
(-1.3659356e+30 2.0025324e+28 -1.7717591e+29)
(-1.2049885e+30 1.4112808e+28 1.6156386e+29)
(-1.1873102e+30 -1.5559035e+28 1.5850895e+29)
(-1.2089566e+30 4.9703956e+28 1.6612569e+29)
(-1.2458718e+30 1.5144018e+28 2.8066438e+29)
(-1.2433319e+30 3.1408845e+28 2.8667355e+29)
(-1.1935308e+30 3.7132334e+28 1.6824593e+29)
(-1.2721265e+30 2.4423759e+28 2.918497e+29)
(-1.1874597e+30 -1.0606218e+28 1.6358713e+29)
(-1.2707452e+30 5.5739173e+28 3.0753428e+29)
(-1.5015613e+30 1.253186e+29 2.1541348e+29)
(-1.4451671e+30 4.638806e+28 -1.5483441e+29)
(-1.4325591e+30 8.8717311e+28 -1.7249748e+29)
(-1.4934821e+30 2.1590641e+28 1.9667852e+29)
(-1.9556345e+30 1.0761709e+29 7.1593352e+28)
(-1.2773066e+30 1.2780801e+29 1.8435709e+29)
(-1.2396637e+30 5.0191993e+28 1.6677583e+29)
(-1.1736007e+30 1.3855406e+29 -1.7799777e+29)
(-1.1884356e+30 6.0762773e+28 -1.5174496e+29)
(-1.3113119e+30 4.8836984e+28 -2.1211592e+28)
(-1.4392379e+30 1.2011824e+29 1.6597516e+29)
(-1.3151279e+30 6.0204899e+28 3.1427341e+28)
(-1.261679e+30 2.1766015e+28 -1.6057398e+29)
(-1.3247901e+30 3.2597627e+28 1.3103707e+29)
(-1.3374263e+30 3.260041e+28 1.4149452e+29)
(-1.3476067e+30 2.9557249e+28 1.4480931e+29)
(-1.3599719e+30 4.1619728e+28 1.5950451e+29)
(-1.0865737e+30 7.0332903e+27 -1.1186847e+29)
(-1.0390911e+30 4.5788315e+28 -2.6723962e+29)
(-1.049166e+30 3.3908804e+28 -2.5084301e+29)
(-1.091099e+30 5.9661005e+28 -1.1468003e+29)
(-1.0828143e+30 5.3970714e+28 -2.0263873e+29)
(-9.4564565e+29 1.0274818e+29 1.2703462e+29)
(-1.0708018e+30 -1.204263e+27 -1.998742e+29)
(-9.330752e+29 -2.7579306e+28 1.2958777e+29)
(-1.0289778e+30 7.0049191e+28 -2.7258652e+29)
(-1.0335062e+30 4.807418e+28 -2.5518965e+29)
(-1.0886714e+30 7.0708845e+28 -1.095087e+29)
(-1.0834834e+30 2.9253362e+28 -1.0725779e+29)
(-1.0411506e+30 2.0680495e+28 -1.9915971e+29)
(-1.0632898e+30 5.9280554e+28 -2.0106167e+29)
(-9.0380123e+29 -7.9277702e+27 1.2064384e+29)
(-9.3839325e+29 1.038866e+29 1.3550905e+29)
(-1.1577263e+30 1.8054187e+28 2.3379676e+29)
(-9.8829517e+29 -1.8637839e+28 1.5073002e+29)
(-9.7344768e+29 2.6313942e+28 1.3691986e+29)
(-1.1399803e+30 1.0339447e+28 2.1783224e+29)
(-9.8510426e+29 -6.0916088e+27 1.3953757e+29)
(-1.1657773e+30 1.6262932e+28 2.3243071e+29)
(-9.8571203e+29 3.6135348e+28 1.4322247e+29)
(-1.1463396e+30 7.6078726e+27 2.2369107e+29)
(-9.7072793e+29 -1.537056e+28 1.3457188e+29)
(-9.7873664e+29 2.4395874e+28 1.4689504e+29)
(-1.152636e+30 2.0261097e+28 2.3074358e+29)
(-1.151376e+30 9.743937e+27 2.2884219e+29)
(-1.1588186e+30 3.1576897e+28 2.419862e+29)
(-9.8013346e+29 -1.3165996e+28 1.4322168e+29)
(-9.7015993e+29 2.3312941e+28 1.397694e+29)
(-1.1428369e+30 1.7872429e+28 2.24521e+29)
(-1.3786071e+30 7.4653465e+28 1.7612843e+29)
(-1.3574428e+30 6.3130125e+27 1.5956286e+29)
(-1.3417491e+30 5.6484231e+28 -8.6040904e+28)
(-1.3687108e+30 2.0833418e+28 -6.0307543e+28)
(-1.359567e+30 6.2770274e+28 4.8809934e+28)
(-1.2816686e+30 1.7416107e+28 -1.4176498e+29)
(-1.2945694e+30 4.1280718e+28 -1.452506e+29)
(-1.3539463e+30 9.960157e+27 4.1335908e+28)
(-1.4495757e+30 1.2284256e+29 1.7947373e+29)
(-1.3520794e+30 5.4453258e+28 4.5566017e+28)
(-1.2809282e+30 1.5677692e+28 -1.3919399e+29)
(-1.3008107e+30 4.0107777e+28 -1.3852549e+29)
(-1.3545291e+30 -4.0635497e+26 4.2642346e+28)
(-1.4575287e+30 3.3507258e+28 1.641594e+29)
(-1.3294158e+30 1.0602823e+28 1.3797835e+29)
(-1.3417424e+30 7.6870629e+28 1.5263309e+29)
(-1.3564713e+30 1.5939425e+28 -5.8170295e+28)
(-1.3459284e+30 4.1929243e+28 -7.9539391e+28)
(-1.3142948e+30 6.00823e+28 -2.2255802e+28)
(-1.2953795e+30 1.100693e+29 -3.8693458e+28)
(-1.2091737e+30 6.3160057e+28 -1.8576488e+29)
(-1.1625984e+30 1.3514527e+29 -1.9745198e+29)
(-1.276452e+30 4.8509454e+28 1.5669391e+29)
(-1.2709326e+30 1.378598e+29 1.5486154e+29)
(-1.1426744e+30 1.2050374e+28 -5.6349887e+28)
(-1.0777319e+30 1.7486561e+29 -2.7896884e+29)
(-1.542859e+30 1.0762944e+29 2.0830478e+29)
(-1.1390843e+30 2.9615762e+28 -1.2655143e+28)
(-1.3255439e+30 6.9947703e+28 7.6727876e+28)
(-1.3394204e+30 -1.0000761e+28 6.7021231e+28)
(-1.1431139e+30 3.2525967e+28 -2.8644916e+28)
(-1.2715086e+30 3.5041449e+28 -1.6977043e+29)
(-1.23468e+30 2.5926943e+28 -1.6701287e+29)
(-1.2778845e+30 6.4445026e+28 -1.9036397e+28)
(-1.3012046e+30 6.3985029e+27 -2.2235833e+28)
(-1.1585124e+30 2.9283866e+28 5.3984867e+27)
(-1.1277148e+30 2.9677377e+28 -8.5418916e+28)
(-1.1291157e+30 5.8915768e+27 -8.0388996e+28)
(-1.1631067e+30 8.9733694e+27 -2.064432e+28)
(-1.1580996e+30 2.7116013e+28 -1.6837437e+28)
(-1.1372576e+30 7.5391869e+27 -1.07503e+29)
(-1.1409636e+30 2.8887929e+28 -1.1051178e+29)
(-1.1413622e+30 1.4642377e+28 -1.0806956e+29)
(-1.1705229e+30 1.8888275e+28 1.3825077e+29)
(-1.1625956e+30 1.6514922e+28 1.2822195e+29)
(-1.1759423e+30 1.7424741e+28 1.4278507e+29)
(-1.1594579e+30 1.413291e+28 1.2231062e+29)
(-1.1733339e+30 2.2912307e+28 1.3734972e+29)
(-1.163961e+30 1.4264719e+28 1.329171e+29)
(-1.179853e+30 3.0811024e+28 1.4902776e+29)
(-1.1648549e+30 2.1991001e+28 1.2954874e+29)
(-1.4962979e+30 6.7857657e+28 -1.8099362e+29)
(-1.4870406e+30 8.7403074e+28 -1.8403866e+29)
(-1.2997579e+30 4.3412204e+28 -2.2924259e+29)
(-1.1742154e+30 2.9822875e+28 -4.8875171e+28)
(-1.2025275e+30 4.2004098e+28 -3.7043815e+28)
(-1.2938743e+30 2.9989825e+28 -2.294371e+29)
(-8.2797758e+29 7.5036355e+27 -1.7053806e+29)
(-9.0750823e+29 2.3644394e+28 -2.4703674e+29)
(-9.1315888e+29 1.4559573e+28 -2.4100649e+29)
(-8.3676119e+29 3.9556853e+28 -1.7543864e+29)
(-6.8753555e+29 4.0305949e+28 -1.776478e+29)
(-6.6597517e+29 7.3841172e+28 1.2358628e+29)
(-6.6951102e+29 -2.2638485e+28 1.3261162e+29)
(-6.7850888e+29 1.192481e+28 -1.7295239e+29)
(-8.3093576e+29 7.7554522e+27 -1.7060699e+29)
(-9.0494661e+29 2.7112541e+28 -2.4506673e+29)
(-9.1040594e+29 2.1027483e+28 -2.3819598e+29)
(-8.3712506e+29 4.2778632e+28 -1.6971936e+29)
(-6.7845473e+29 1.0438579e+28 -1.7262522e+29)
(-6.8269236e+29 4.0615624e+28 -1.7416284e+29)
(-6.7238883e+29 -3.3668167e+28 1.4146838e+29)
(-6.7094042e+29 6.5162186e+28 1.3672962e+29)
(-1.1563205e+30 4.732652e+28 -4.7414288e+28)
(-1.1944606e+30 5.322633e+28 -3.6329566e+28)
(-1.2902491e+30 3.7380714e+28 -2.2718736e+29)
(-1.2790636e+30 5.5889226e+28 -2.2046787e+29)
(-9.0282094e+29 4.8929002e+28 -2.4349821e+29)
(-9.0678145e+29 3.8471765e+28 -2.3589143e+29)
(-8.2632159e+29 5.6569374e+28 -1.6814755e+29)
(-8.2298301e+29 2.8480711e+28 -1.7038331e+29)
(-8.2359511e+29 1.6932153e+28 -1.6874126e+29)
(-9.0328302e+29 3.5147379e+28 -2.4674935e+29)
(-9.0662092e+29 2.5296769e+28 -2.3905768e+29)
(-8.315754e+29 4.6941076e+28 -1.7172987e+29)
(-6.490961e+29 3.213877e+28 -1.7053509e+29)
(-6.5818403e+29 5.3248524e+28 -1.682458e+29)
(-6.3695901e+29 -1.4373805e+28 1.1883203e+29)
(-6.4657503e+29 7.332647e+28 1.268695e+29)
(-6.6564053e+29 1.8273797e+28 -1.6813219e+29)
(-6.5106039e+29 -2.5977674e+28 1.3135951e+29)
(-6.6989021e+29 4.5147694e+28 -1.739233e+29)
(-6.6809137e+29 6.8339503e+28 1.3453625e+29)
(-8.5530153e+29 -2.2215259e+28 1.5881578e+29)
(-8.4746509e+29 1.2494999e+28 1.5192636e+29)
(-1.003282e+30 7.9567034e+27 1.9463225e+29)
(-1.0010116e+30 9.3007759e+27 1.9970307e+29)
(-9.9563027e+29 9.0554802e+27 1.8839666e+29)
(-8.4879036e+29 -2.1150796e+28 1.4833771e+29)
(-8.475122e+29 2.0622777e+28 1.544272e+29)
(-9.9483095e+29 1.0412448e+28 1.8974433e+29)
(-1.0104314e+30 1.1046291e+28 1.9655884e+29)
(-8.5810385e+29 -1.5670365e+28 1.5644923e+29)
(-8.4652029e+29 2.2373024e+28 1.4739477e+29)
(-1.0109725e+30 1.3287736e+28 1.910206e+29)
(-8.5161241e+29 -8.5534948e+27 1.4693415e+29)
(-8.5569224e+29 2.8199076e+28 1.524336e+29)
(-1.0000058e+30 1.2005735e+28 1.9316109e+29)
(-9.9931471e+29 7.9872926e+27 1.9271199e+29)
(-8.3845821e+29 1.3694699e+28 1.4888384e+29)
(-8.5563117e+29 -2.2843248e+28 1.5648428e+29)
(-1.0017388e+30 1.2074183e+28 2.0152944e+29)
(-9.9529662e+29 1.2646391e+28 1.9034105e+29)
(-9.9918374e+29 1.042389e+28 1.9663448e+29)
(-8.5285006e+29 -1.8360584e+28 1.4891589e+29)
(-8.4822792e+29 1.8564429e+28 1.5702318e+29)
(-9.9624342e+29 9.4614938e+27 1.9622575e+29)
(-8.5232548e+29 -1.6982002e+28 1.5180741e+29)
(-8.4260563e+29 1.4683619e+28 1.5001963e+29)
(-1.002043e+30 1.9378113e+28 2.0465864e+29)
(-1.0018008e+30 1.4630637e+28 1.9764721e+29)
(-8.4485691e+29 -2.2037766e+28 1.4385771e+29)
(-8.4559574e+29 1.840247e+28 1.5222048e+29)
(-9.9575528e+29 1.2885534e+28 1.9423051e+29)
(-9.9528579e+29 1.3510869e+28 1.9525863e+29)
(-1.1870697e+30 3.058808e+28 -2.371978e+28)
(-1.1432027e+30 3.3399372e+27 -1.2796346e+29)
(-1.2163314e+30 5.4541112e+28 1.6848652e+29)
(-1.1839651e+30 3.321016e+28 -6.6134775e+27)
(-1.2016201e+30 1.9071136e+28 1.1791739e+28)
(-1.204522e+30 -1.4552167e+27 1.5623753e+29)
(-1.1812326e+30 2.7755862e+28 -3.9445818e+27)
(-1.18552e+30 1.2716241e+28 6.9660535e+27)
(-1.2014019e+30 -6.645294e+27 1.562137e+29)
(-1.2164688e+30 4.7383051e+28 1.6092753e+29)
(-1.1778594e+30 4.2161038e+28 5.8584841e+28)
(-1.1415268e+30 1.8770431e+28 -6.2521989e+28)
(-1.1373893e+30 3.3969268e+28 -6.6663741e+28)
(-1.1759399e+30 6.6640881e+27 5.4587703e+28)
(-1.1975671e+30 4.5163539e+28 6.9360327e+28)
(-1.1457908e+30 3.1063396e+28 -6.7174121e+28)
(-1.1542001e+30 1.5086226e+28 -5.1581282e+28)
(-1.189434e+30 7.1124591e+27 5.8153771e+28)
(-1.1659768e+30 3.4641653e+28 5.758763e+27)
(-1.1501085e+30 3.161678e+28 -8.9492813e+28)
(-1.1537964e+30 7.9781615e+27 -7.8463471e+28)
(-1.1675803e+30 9.1076206e+27 -3.0744399e+27)
(-1.1866784e+30 7.9916375e+27 -1.2989749e+28)
(-1.1858098e+30 2.7654401e+28 -4.3735093e+27)
(-1.1603741e+30 4.4373117e+27 -9.1212371e+28)
(-1.152611e+30 2.5074312e+28 -9.9808988e+28)
(-1.2887678e+30 5.8548111e+28 -1.5765035e+28)
(-1.1526553e+30 2.5040333e+28 -9.4664046e+28)
(-1.1539072e+30 8.6172915e+27 -9.1374193e+28)
(-1.1822137e+30 3.0996975e+28 -6.6727011e+27)
(-1.3288204e+30 2.3915391e+27 -3.9085295e+27)
(-1.185277e+30 5.6503879e+27 -9.0091803e+27)
(-1.1476684e+30 2.9947085e+28 -8.9194552e+28)
(-1.1461978e+30 1.1228993e+28 -8.5960111e+28)
(-1.1495947e+30 4.0108934e+28 -7.8205527e+27)
(-1.1495008e+30 1.5823489e+28 -1.1321313e+28)
(-1.2612652e+30 3.7379732e+28 -1.7015287e+29)
(-1.2159716e+30 2.025552e+28 -1.7439993e+29)
(-1.1543285e+30 3.3120011e+28 2.0104555e+27)
(-1.142055e+30 3.2874511e+28 -9.4812598e+28)
(-1.1429256e+30 8.9220447e+27 -8.7657648e+28)
(-1.1576924e+30 7.6733987e+27 -4.3845418e+27)
(-1.148449e+30 2.4842236e+28 -9.8593914e+28)
(-1.1532609e+30 5.5343391e+27 -9.3228057e+28)
(-1.1852076e+30 6.2719339e+27 -1.1558124e+28)
(-1.1814644e+30 2.8339012e+28 -6.5397277e+27)
(-1.2970712e+30 5.9411001e+28 -1.3198296e+28)
(-1.1573508e+30 2.2236654e+28 -8.6796578e+28)
(-1.1550998e+30 7.7996466e+27 -8.8002349e+28)
(-1.186372e+30 2.7840971e+28 -3.5279935e+27)
(-1.3328897e+30 1.0238196e+28 -3.8153748e+27)
(-1.1910239e+30 -1.6584411e+26 -1.7280087e+27)
(-1.149524e+30 2.6123258e+28 -8.4011265e+28)
(-1.151872e+30 3.7202648e+28 -6.3501515e+27)
(-1.1488155e+30 9.1747558e+27 -8.315618e+28)
(-1.1534617e+30 1.1054458e+28 -7.7499141e+27)
(-1.2730241e+30 4.4329178e+28 -1.6829164e+29)
(-1.2154359e+30 1.8560433e+28 -1.6958713e+29)
(-1.1989474e+30 4.9915779e+28 1.5164729e+29)
(-1.1849326e+30 2.9375581e+28 1.28513e+26)
(-1.1853991e+30 1.6938611e+28 2.3369807e+27)
(-1.1924534e+30 5.6228017e+26 1.4669606e+29)
(-1.2067711e+30 4.385912e+28 1.6112818e+29)
(-1.1812062e+30 2.9154383e+28 -6.4943396e+27)
(-1.1882598e+30 1.4399979e+28 4.0560114e+27)
(-1.1993897e+30 -6.3813175e+27 1.4818289e+29)
(-1.1791507e+30 4.3921181e+28 6.1717733e+28)
(-1.1422003e+30 1.4497212e+28 -5.1609098e+28)
(-1.1395411e+30 2.8249601e+28 -6.5564702e+28)
(-1.1808225e+30 6.3752065e+27 5.3569055e+28)
(-1.1410288e+30 2.9548765e+28 -6.211459e+28)
(-1.1456715e+30 1.5479179e+28 -5.6969665e+28)
(-1.177461e+30 4.1570497e+28 5.6427315e+28)
(-1.173405e+30 6.4499709e+27 5.2578302e+28)
(-1.0982911e+30 1.7964609e+29 -2.8846983e+29)
(-1.561313e+30 1.2080936e+29 1.9605818e+29)
(-1.1017636e+30 1.1561117e+29 -2.8478019e+29)
(-1.560111e+30 6.4591861e+28 1.9402217e+29)
(-1.0967157e+30 3.8875313e+28 -6.097348e+27)
(-1.3037368e+30 6.860659e+28 8.4439935e+28)
(-1.3226256e+30 -7.8038757e+27 7.6020344e+28)
(-1.1076109e+30 4.8092909e+28 -2.2204677e+28)
(-1.1065452e+30 3.7785279e+28 -1.0297781e+28)
(-1.3033258e+30 5.7787004e+28 7.415355e+28)
(-1.3158368e+30 -5.1419465e+27 6.9805445e+28)
(-1.0981498e+30 6.1021725e+28 -2.2220742e+28)
(-9.5429279e+29 1.0951188e+28 -4.256786e+28)
(-9.8280044e+29 2.5385407e+28 2.6114228e+28)
(-9.3574126e+29 1.2660261e+28 -5.0121416e+28)
(-9.6903172e+29 2.526159e+28 7.0140104e+27)
(-9.3941592e+29 2.1086583e+28 -5.2642061e+28)
(-9.7147962e+29 8.4016458e+27 4.146643e+27)
(-1.1797603e+30 1.9559564e+29 -1.0108238e+29)
(-1.3139989e+30 7.074356e+28 1.7934904e+29)
(-1.3332772e+30 2.2245605e+28 1.6916294e+29)
(-9.4479259e+29 1.0132216e+29 -1.8098186e+29)
(-9.3896378e+29 5.172271e+28 -1.8937802e+29)
(-1.2473379e+30 3.4548388e+28 3.2902317e+28)
(-1.0687622e+30 1.1002227e+28 -5.542204e+28)
(-1.0770398e+30 1.8325368e+28 -6.13337e+28)
(-1.2431752e+30 -1.1410186e+28 1.3781806e+28)
(-1.2255297e+30 2.9489108e+28 -3.6355756e+28)
(-1.1821014e+30 5.4284289e+27 -1.270806e+29)
(-1.149615e+30 1.6382702e+28 -1.4715978e+29)
(-1.2131783e+30 6.8792165e+25 -5.4373637e+28)
(-1.2333343e+30 2.8324167e+28 -3.9856819e+28)
(-1.1486657e+30 -2.0236284e+26 -1.4803925e+29)
(-1.1749887e+30 1.8720915e+28 -1.2767226e+29)
(-1.237926e+30 -8.6379228e+26 -2.7891561e+28)
(-1.0717549e+30 4.3727723e+27 -6.1688958e+28)
(-1.2416748e+30 2.3551215e+28 1.4612918e+28)
(-1.2757296e+30 -2.0033361e+28 3.3803419e+28)
(-1.1632229e+30 2.290539e+28 -1.2785161e+29)
(-1.1724261e+30 6.2248663e+27 -1.0467522e+29)
(-1.2086602e+30 3.1215694e+28 -2.778522e+28)
(-1.1976105e+30 6.4963592e+27 -3.7388802e+28)
(-1.1676861e+30 9.2157688e+27 -1.1790143e+29)
(-1.1595695e+30 2.8568659e+28 -1.3803544e+29)
(-1.1986504e+30 3.363356e+28 -2.8986509e+28)
(-1.1985934e+30 9.7673349e+27 -3.8941646e+28)
(-1.1541565e+30 1.0315669e+28 -1.1098591e+29)
(-1.1548314e+30 3.255624e+28 -1.1850127e+29)
(-1.1665552e+30 2.9465745e+28 -4.0072163e+28)
(-1.1726783e+30 9.3321144e+27 -4.3614216e+28)
(-1.1583757e+30 8.4413861e+27 -1.1260318e+29)
(-1.1499271e+30 3.4138771e+28 -1.1881148e+29)
(-1.173465e+30 3.7217764e+28 -4.1901631e+28)
(-1.1673805e+30 1.9346991e+28 -4.7278659e+28)
(-9.3681572e+29 1.1806294e+28 -5.848475e+28)
(-9.5500944e+29 2.4030909e+28 -7.5660223e+27)
(-9.3928326e+29 2.3576297e+28 -6.1143068e+28)
(-9.5853513e+29 8.3768748e+27 -9.891564e+27)
(-9.4604338e+29 1.271026e+28 -6.001434e+28)
(-9.4271389e+29 2.1249246e+28 -6.2576349e+28)
(-9.7124283e+29 2.3978768e+28 -1.3566611e+28)
(-9.407955e+29 1.1245688e+28 -5.7627871e+28)
(-9.6735462e+29 2.2907686e+28 -9.8439693e+27)
(-9.447301e+29 1.959334e+28 -6.0312488e+28)
(-9.7077498e+29 9.0000334e+27 -1.2307754e+28)
(-9.4120352e+29 1.2863671e+28 -6.0565982e+28)
(-9.6433464e+29 9.1882879e+27 -5.1242492e+28)
(-9.7699311e+29 2.3483649e+28 -1.8184638e+28)
(-9.5767479e+29 1.8789076e+28 -5.3253995e+28)
(-9.7709067e+29 9.6920379e+27 -2.0648549e+28)
(-9.5568142e+29 5.9210344e+27 -4.7929603e+28)
(-9.7299498e+29 1.8412286e+28 -1.4923473e+28)
(-9.5714446e+29 1.5930398e+28 -4.9837376e+28)
(-9.7814453e+29 5.4272249e+27 -1.7045623e+28)
(-1.0039161e+30 1.6753671e+28 -1.169258e+28)
(-1.0089708e+30 2.3727106e+27 -1.4499116e+28)
(-9.9888592e+29 7.7805173e+27 -8.2175234e+28)
(-1.0016118e+30 1.3473962e+28 -8.4712147e+28)
(-1.0117464e+30 2.2094052e+28 -7.8062947e+27)
(-1.0096954e+30 9.1863033e+27 -1.8123227e+28)
(-1.0018937e+30 1.8917769e+28 -8.8739067e+28)
(-1.0017939e+30 1.0712412e+28 -8.3882746e+28)
(-1.00267e+30 2.4423273e+28 -1.4332817e+28)
(-1.0052426e+30 1.0078274e+28 -1.8461694e+28)
(-9.9430822e+29 1.1527262e+28 -8.580498e+28)
(-9.9758342e+29 1.9557786e+28 -8.9183913e+28)
(-9.501898e+29 1.1912635e+28 -5.2768057e+28)
(-9.9048944e+29 1.3895578e+28 1.1240116e+29)
(-9.9168372e+29 1.282819e+28 1.0617929e+29)
(-9.8994022e+29 9.6675456e+27 1.1452651e+29)
(-9.9326258e+29 1.5786898e+28 1.1370545e+29)
(-9.8670316e+29 1.3375585e+28 1.1873178e+29)
(-9.9123319e+29 7.715116e+27 1.1287419e+29)
(-9.8758933e+29 1.2285615e+28 1.0838563e+29)
(-9.8349358e+29 1.0831827e+28 1.0816188e+29)
(-9.8718468e+29 1.211138e+28 1.0849704e+29)
(-9.8813111e+29 1.5636954e+28 1.1746981e+29)
(-9.8704944e+29 1.0447291e+28 1.1562384e+29)
(-9.9106093e+29 1.4474282e+28 1.1632431e+29)
(-9.8644967e+29 2.284995e+28 1.1925757e+29)
(-9.9061017e+29 1.5005996e+28 1.1271849e+29)
(-9.8688864e+29 1.6744012e+28 1.1232728e+29)
(-9.8422474e+29 1.2864898e+28 1.1287892e+29)
(-1.5139241e+30 5.9209327e+28 -9.4751481e+28)
(-1.5161855e+30 7.8961581e+28 -1.0379504e+29)
(-1.3227352e+30 4.2015067e+28 -1.6649989e+29)
(-1.0093944e+30 2.3593415e+28 -1.3812466e+29)
(-1.0057478e+30 1.9581189e+28 -1.4321663e+29)
(-1.1449973e+30 8.291359e+28 -1.6639107e+29)
(-1.1800133e+30 8.9733866e+27 -1.6479985e+29)
(-1.3250617e+30 3.3195403e+28 -1.6530804e+29)
(-1.0085801e+30 1.7127267e+28 -1.4525371e+29)
(-1.0110487e+30 1.9553703e+28 -1.4184701e+29)
(-1.0229686e+30 1.8412478e+28 -2.6304909e+29)
(-1.024704e+30 1.4946735e+28 -2.6686045e+29)
(-5.5888074e+29 2.4865344e+28 -2.2914448e+29)
(-5.6271115e+29 1.5889061e+28 -2.2853102e+29)
(-5.3820366e+29 2.5200625e+28 -1.5611055e+29)
(-5.3433841e+29 4.2929244e+27 -1.5255109e+29)
(-4.2034086e+29 2.2389662e+28 -2.2076111e+28)
(-5.5334662e+29 4.7369959e+28 1.4199742e+29)
(-4.1760163e+29 1.9379513e+28 -1.571186e+28)
(-5.536639e+29 -1.9201393e+28 1.4475573e+29)
(-4.1476552e+29 1.0564299e+28 -1.6544952e+28)
(-5.4410034e+29 -2.9853296e+28 1.3561655e+29)
(-4.2262961e+29 2.1499313e+28 -1.0610188e+28)
(-5.52373e+29 3.9170052e+28 1.3988607e+29)
(-5.5436917e+29 1.9721575e+28 -2.2170799e+29)
(-5.502523e+29 2.6155209e+28 -2.2637411e+29)
(-5.3224702e+29 9.0240541e+26 -1.5079166e+29)
(-5.3313233e+29 2.8163323e+28 -1.4815736e+29)
(-1.0200217e+30 1.8108979e+28 -2.6323752e+29)
(-1.0243405e+30 1.4664789e+28 -2.6392019e+29)
(-5.5503041e+29 2.2336996e+28 -2.2190463e+29)
(-5.5255883e+29 2.9227367e+28 -2.267452e+29)
(-5.3183315e+29 1.8326674e+25 -1.5173598e+29)
(-5.290381e+29 2.672568e+28 -1.4878211e+29)
(-5.6022408e+29 1.996266e+28 -2.2550137e+29)
(-5.5632475e+29 2.779228e+28 -2.2675722e+29)
(-5.310545e+29 2.3824014e+27 -1.5048391e+29)
(-5.3428618e+29 2.6309735e+28 -1.5368548e+29)
(-4.167941e+29 8.9597547e+27 -1.2888259e+28)
(-4.1896497e+29 1.7536964e+28 -7.6219417e+27)
(-5.4950548e+29 3.0507015e+28 1.4139118e+29)
(-5.4852478e+29 -3.4650344e+28 1.410756e+29)
(-5.5483319e+29 -3.0978445e+28 1.4843232e+29)
(-5.5542232e+29 3.6517638e+28 1.4806498e+29)
(-4.1655999e+29 1.4635523e+28 -1.5404679e+28)
(-4.1961459e+29 1.8768983e+28 -1.9171681e+28)
(-1.1273158e+30 1.0031713e+29 -1.7073662e+29)
(-1.1774376e+30 2.109009e+28 -1.6835108e+29)
(-1.3220503e+30 4.1152656e+28 -1.6575774e+29)
(-1.0078699e+30 2.6720035e+28 -1.3751654e+29)
(-1.0063232e+30 2.5692488e+28 -1.4164223e+29)
(-1.3139089e+30 5.3812605e+28 -1.6322921e+29)
(-1.0003384e+30 3.644582e+28 -1.329835e+29)
(-9.9838523e+29 3.5075555e+28 -1.400944e+29)
(-1.0065015e+30 2.2595969e+28 -2.5528335e+29)
(-9.9862376e+29 2.971948e+28 -2.5469238e+29)
(-1.0107673e+30 2.3245136e+28 -2.5777339e+29)
(-1.0168966e+30 1.691753e+28 -2.6274931e+29)
(-6.4286418e+29 7.4053031e+28 -1.7341943e+29)
(-5.0831118e+29 1.9631479e+28 -1.5125178e+29)
(-5.521067e+29 4.4136076e+28 -2.1735214e+29)
(-5.511909e+29 5.2805819e+28 -2.222143e+29)
(-5.0528349e+29 4.3232078e+28 -1.4697199e+29)
(-5.563957e+29 3.6975176e+28 -2.2097564e+29)
(-5.5308691e+29 4.4346127e+28 -2.2131294e+29)
(-5.1301159e+29 1.2721422e+28 -1.463207e+29)
(-5.1380933e+29 3.7021704e+28 -1.499065e+29)
(-3.9151631e+29 3.3444237e+28 -2.7152785e+28)
(-5.6186438e+29 -2.0655033e+28 1.4574948e+29)
(-3.9574838e+29 3.6856191e+28 -1.3917301e+28)
(-5.6611593e+29 3.8524402e+28 1.5267869e+29)
(-3.9932511e+29 2.4660079e+28 -1.5689971e+28)
(-5.6661225e+29 -2.9006223e+28 1.5435785e+29)
(-5.6495541e+29 3.975711e+28 1.5348908e+29)
(-4.0232143e+29 3.0427429e+28 -1.6477902e+28)
(-5.5234751e+29 3.945103e+28 -2.2315894e+29)
(-5.5600264e+29 3.2703185e+28 -2.1904692e+29)
(-5.1986628e+29 6.8759345e+27 -1.4554447e+29)
(-5.1952112e+29 3.4140073e+28 -1.4512364e+29)
(-4.0378025e+29 1.6192502e+28 -1.2451152e+28)
(-5.6987265e+29 -3.3578267e+28 1.6000973e+29)
(-4.0918191e+29 2.4407886e+28 -6.4180579e+27)
(-5.6672868e+29 3.556777e+28 1.5566248e+29)
(-5.6101634e+29 2.5202969e+28 -2.2550341e+29)
(-5.5639974e+29 3.4259967e+28 -2.2550755e+29)
(-5.2340503e+29 5.9622409e+27 -1.4952002e+29)
(-5.2902574e+29 2.8250582e+28 -1.5466159e+29)
(-4.1074355e+29 1.627938e+28 -1.1599163e+28)
(-4.1489994e+29 1.9735885e+28 -1.6985372e+28)
(-5.6469975e+29 -2.7413491e+28 1.5273617e+29)
(-5.5834542e+29 3.807732e+28 1.4478575e+29)
(-6.5488772e+29 1.1308735e+28 1.6833237e+29)
(-6.5621831e+29 -3.0521294e+28 1.7061333e+29)
(-8.7892479e+29 2.7995361e+27 1.7699543e+29)
(-8.7615401e+29 5.9980322e+27 1.6744832e+29)
(-6.6493644e+29 1.1159065e+28 1.7442153e+29)
(-6.5421883e+29 -3.0747953e+28 1.6742137e+29)
(-8.8111894e+29 2.6067022e+27 1.6751349e+29)
(-8.8541847e+29 4.2246992e+27 1.7375554e+29)
(-6.4692733e+29 -3.657879e+28 1.6431554e+29)
(-8.7848823e+29 2.0052597e+27 1.6364924e+29)
(-6.5728478e+29 9.9766288e+27 1.6571621e+29)
(-8.8558018e+29 5.9321156e+27 1.7043844e+29)
(-8.7579543e+29 6.6434913e+27 1.662642e+29)
(-6.5097823e+29 -2.7327776e+28 1.6569951e+29)
(-6.5293919e+29 1.6973463e+28 1.7299519e+29)
(-8.7305249e+29 9.847154e+27 1.6347438e+29)
(-6.6222372e+29 1.3720103e+28 1.6523093e+29)
(-6.5410097e+29 -2.6298842e+28 1.6517329e+29)
(-8.7927026e+29 6.3329597e+27 1.6578682e+29)
(-8.8628095e+29 7.5759538e+27 1.7120269e+29)
(-6.5940549e+29 1.986349e+28 1.7204482e+29)
(-6.5589149e+29 -2.5877488e+28 1.6514707e+29)
(-8.8363853e+29 6.91722e+27 1.6426553e+29)
(-8.8199959e+29 1.2401254e+28 1.6240866e+29)
(-6.5397253e+29 -2.2589006e+28 1.667487e+29)
(-6.6398058e+29 1.8438411e+28 1.6456313e+29)
(-8.8419132e+29 7.9429332e+27 1.7253729e+29)
(-8.8372545e+29 1.2674889e+28 1.6308821e+29)
(-6.5409435e+29 -1.6978689e+28 1.6636712e+29)
(-6.5767965e+29 2.0965092e+28 1.7159356e+29)
(-8.7942516e+29 8.2096723e+27 1.7464437e+29)
(-8.7639403e+29 8.7815245e+27 1.6428662e+29)
(-6.5112137e+29 1.5548968e+28 1.7748735e+29)
(-6.4864865e+29 -3.3309306e+28 1.7047912e+29)
(-8.805611e+29 5.4945564e+27 1.6626436e+29)
(-8.7840483e+29 1.0690914e+28 1.6434139e+29)
(-6.6814717e+29 1.1203093e+28 1.7039341e+29)
(-6.7113478e+29 -2.9186938e+28 1.7218905e+29)
(-8.7693012e+29 5.1666497e+27 1.7009036e+29)
(-8.9307485e+29 6.4667508e+27 1.7404252e+29)
(-6.5132223e+29 -3.0540607e+28 1.7118584e+29)
(-6.6031345e+29 1.4425884e+28 1.7097275e+29)
(-8.8295925e+29 5.2336029e+27 1.7498615e+29)
(-8.8752266e+29 9.3516151e+27 1.739254e+29)
(-6.5797569e+29 1.6552151e+28 1.7876231e+29)
(-6.5503696e+29 -2.3980215e+28 1.7288015e+29)
(-8.7872244e+29 7.8826122e+27 1.7121105e+29)
(-8.7521822e+29 8.7012737e+27 1.6731491e+29)
(-6.5996184e+29 1.6209498e+28 1.6983922e+29)
(-6.5888865e+29 -2.2641674e+28 1.7097146e+29)
(-8.7682435e+29 1.0782549e+28 1.6781076e+29)
(-8.8394023e+29 1.0877166e+28 1.7411913e+29)
(-8.8307735e+29 6.7205725e+27 1.6846497e+29)
(-6.5607525e+29 -2.6800017e+28 1.705898e+29)
(-6.5270667e+29 1.8487911e+28 1.738791e+29)
(-8.8123867e+29 1.1390432e+28 1.6542619e+29)
(-6.500813e+29 1.0831443e+28 1.656506e+29)
(-6.4162101e+29 -3.2665877e+28 1.6677117e+29)
(-8.8052051e+29 3.9830355e+27 1.7216462e+29)
(-8.7990593e+29 1.0044292e+28 1.6325241e+29)
(-6.5063537e+29 1.9175421e+28 1.7726777e+29)
(-6.4811574e+29 -2.9779988e+28 1.6876642e+29)
(-8.7830374e+29 5.1238079e+27 1.7518973e+29)
(-8.7338688e+29 1.0480289e+28 1.6486726e+29)
(-1.6827337e+30 1.3940259e+29 -2.3622063e+29)
(-1.0602804e+30 2.5235808e+28 -3.2696311e+28)
(-1.0394124e+30 1.4426013e+28 -7.2137881e+28)
(-1.0286776e+30 1.6546271e+28 -7.8158882e+28)
(-1.0576993e+30 5.1682543e+27 -3.9117229e+28)
(-1.0813723e+30 2.3294488e+28 -3.9633671e+28)
(-1.053472e+30 1.2021919e+28 -9.0366809e+28)
(-1.0744063e+30 6.1124826e+27 -5.9382768e+28)
(-1.1557059e+30 2.2153558e+28 -9.1091463e+28)
(-1.3338619e+30 5.8078889e+27 -4.4420655e+27)
(-1.1851437e+30 3.6994211e+27 -5.0202673e+27)
(-1.152471e+30 2.9398321e+28 -8.1987704e+28)
(-1.2589101e+30 3.386152e+28 -1.6934241e+29)
(-1.5828093e+30 7.5638831e+28 1.8333089e+29)
(-1.1128648e+30 1.8509796e+29 -2.9001719e+29)
(-1.1187489e+30 1.2671976e+29 -2.9160544e+29)
(-1.3173588e+30 -7.1921979e+27 7.475483e+28)
(-1.0983745e+30 6.1871294e+28 -1.8711156e+28)
(-1.0132991e+30 1.9291332e+28 5.1031724e+28)
(-1.028749e+30 4.1243078e+28 1.5881077e+29)
(-1.0128826e+30 2.2907502e+28 4.3712719e+28)
(-1.0327744e+30 -3.089976e+27 1.5324915e+29)
(-9.8098728e+29 1.6880162e+28 -1.2205127e+28)
(-9.7627367e+29 2.230237e+28 -1.5244304e+28)
(-1.0111667e+30 3.2359947e+28 8.125351e+28)
(-1.0084381e+30 2.4734489e+27 7.9748485e+28)
(-9.8405835e+29 1.8073219e+28 -6.2517312e+27)
(-1.0188659e+30 3.7530754e+28 9.015427e+28)
(-9.8653017e+29 2.1863096e+28 -1.1874478e+28)
(-1.0206901e+30 4.8817644e+27 8.4941308e+28)
(-1.0079393e+30 1.4969322e+28 4.408973e+28)
(-1.0230495e+30 3.8780213e+28 1.4715112e+29)
(-1.0064604e+30 1.9081124e+28 4.2841649e+28)
(-1.0214111e+30 -2.1755565e+27 1.4618022e+29)
(-9.8156114e+29 1.4403098e+28 -1.1805054e+28)
(-9.8024141e+29 1.9296765e+28 -1.2685712e+28)
(-1.0123183e+30 2.8468049e+28 8.1856453e+28)
(-1.0116212e+30 -1.5344245e+27 8.2015952e+28)
(-9.7768515e+29 1.404464e+28 -1.1627141e+28)
(-1.018173e+30 3.2020135e+28 8.3975076e+28)
(-9.8032957e+29 1.9247721e+28 -1.5716071e+28)
(-1.0218486e+30 1.3710165e+27 8.078995e+28)
(-1.0104943e+30 1.0733939e+28 4.511528e+28)
(-1.0105926e+30 1.4414371e+28 4.584176e+28)
(-1.0250988e+30 3.5937084e+28 1.4796867e+29)
(-1.0219054e+30 -4.6521715e+27 1.4782308e+29)
(-1.026468e+30 3.6409301e+28 1.5090782e+29)
(-1.0105137e+30 1.3825631e+28 4.4787031e+28)
(-1.0103621e+30 1.860312e+28 4.0008103e+28)
(-1.0284914e+30 -4.5260104e+27 1.4552685e+29)
(-9.5229188e+29 1.3105791e+28 -4.4428707e+28)
(-9.764935e+29 2.7184846e+28 2.6836389e+28)
(-9.5286909e+29 2.5011199e+28 -4.7845248e+28)
(-9.801267e+29 5.3645051e+27 2.3915681e+28)
(-9.3535073e+29 1.5598355e+28 -5.1192436e+28)
(-9.3760961e+29 2.3362148e+28 -5.4320364e+28)
(-9.6222757e+29 2.873499e+28 6.4582231e+27)
(-9.6566578e+29 1.0704646e+28 3.7022876e+27)
(-9.3766525e+29 1.6716732e+28 -5.019067e+28)
(-9.3802401e+29 2.4944775e+28 -5.2399079e+28)
(-9.6317857e+29 2.856136e+28 5.4548985e+27)
(-9.6501819e+29 1.0950733e+28 4.0221094e+27)
(-9.5436875e+29 1.3473078e+28 -4.2881795e+28)
(-9.5599601e+29 2.3275423e+28 -4.4333953e+28)
(-9.7628713e+29 3.0805061e+28 2.2180904e+28)
(-9.7650243e+29 9.4470731e+27 2.1178631e+28)
(-9.5821376e+29 1.588799e+28 -3.9289509e+28)
(-9.8289539e+29 3.2058966e+28 3.1363356e+28)
(-9.5964828e+29 2.6109186e+28 -4.4355786e+28)
(-9.8647048e+29 7.865093e+27 2.7126556e+28)
(-9.3919965e+29 1.6537072e+28 -5.0566364e+28)
(-9.3544184e+29 2.4487007e+28 -5.414665e+28)
(-9.6518678e+29 2.8429825e+28 5.9029936e+27)
(-9.641698e+29 9.4126059e+27 4.0385696e+27)
(-9.3995006e+29 1.6406931e+28 -4.5577303e+28)
(-9.7029848e+29 3.0077752e+28 1.2801281e+28)
(-9.4389018e+29 2.323182e+28 -5.0093882e+28)
(-9.7361408e+29 9.8757898e+27 8.6834564e+27)
(-9.5485642e+29 1.422671e+28 -4.3929117e+28)
(-9.5203904e+29 2.4092578e+28 -4.6745662e+28)
(-9.7659149e+29 3.3085941e+28 2.2827108e+28)
(-9.7446809e+29 1.1248959e+28 2.0200777e+28)
(-9.4048437e+29 1.458613e+28 -5.3001234e+28)
(-9.5640354e+29 2.7879071e+28 -1.6746843e+27)
(-9.4393703e+29 2.5503653e+28 -5.8041653e+28)
(-9.6135876e+29 1.0248687e+28 -5.7694827e+27)
(-9.4606554e+29 1.3861995e+28 -5.703965e+28)
(-9.4489821e+29 2.210461e+28 -6.1177536e+28)
(-9.6734991e+29 2.5399878e+28 -1.0487985e+28)
(-9.6759799e+29 1.0603673e+28 -1.3580579e+28)
(-9.4502174e+29 1.2530616e+28 -5.1264428e+28)
(-9.6734197e+29 2.5527906e+28 -4.1089731e+27)
(-9.5071946e+29 2.0150694e+28 -5.6975573e+28)
(-9.7214968e+29 1.018257e+28 -8.9112121e+27)
(-9.400737e+29 1.4528155e+28 -5.6852836e+28)
(-9.3803431e+29 2.458312e+28 -6.0446967e+28)
(-9.5355841e+29 3.0376557e+28 -9.6255702e+27)
(-9.5295376e+29 1.3668893e+28 -1.2527274e+28)
(-9.6327782e+29 7.5295853e+27 -5.1409453e+28)
(-9.7529948e+29 2.3012169e+28 -1.826477e+28)
(-9.6196829e+29 1.783716e+28 -5.62827e+28)
(-9.7738721e+29 1.0231481e+28 -2.2262449e+28)
(-9.6329151e+29 5.8190185e+27 -4.4746228e+28)
(-9.7458369e+29 1.9643315e+28 -1.0918174e+28)
(-9.6586083e+29 1.4344586e+28 -5.0171682e+28)
(-9.8134328e+29 5.5562827e+27 -1.6137182e+28)
(-1.0121426e+30 1.5513724e+28 -5.0028365e+27)
(-1.0134858e+30 4.0090488e+26 -1.17442e+28)
(-1.0062626e+30 4.3511798e+27 -6.7958476e+28)
(-1.190431e+30 2.3602809e+28 -1.8825895e+28)
(-1.0059679e+30 1.0500344e+28 -7.982376e+28)
(-1.0138503e+30 1.7348036e+28 -1.1373512e+28)
(-1.0102116e+30 5.897279e+27 -1.8491953e+28)
(-1.1767667e+30 6.611951e+27 -3.3635723e+28)
(-9.9936113e+29 1.6251666e+28 -8.658107e+28)
(-1.0030376e+30 5.6868515e+27 -7.3994689e+28)
(-1.1697947e+30 1.0890719e+27 -9.3366152e+28)
(-1.1504767e+30 3.1384659e+28 -1.3064667e+29)
(-1.0130449e+30 1.9375923e+28 -8.7919525e+27)