/*--------------------------------*- C++ -*----------------------------------*\
  =========                 |
  \\      /  F ield         | OpenFOAM: The Open Source CFD Toolbox
   \\    /   O peration     | Website:  https://openfoam.org
    \\  /    A nd           | Version:  7
     \\/     M anipulation  |
\*---------------------------------------------------------------------------*/
FoamFile
{
    version     2.0;
    format      ascii;
    class       volScalarField;
    location    "9000";
    object      nut;
}
// * * * * * * * * * * * * * * * * * * * * * * * * * * * * * * * * * * * * * //

dimensions      [0 2 -1 0 0 0 0];

internalField   nonuniform List<scalar> 
34387
(
9.6262741e-54
9.2197834e-54
9.610746e-54
9.7177224e-54
4.984402e-53
8.8274629e-54
9.2984582e-54
8.9583062e-54
8.9791709e-54
1.1799191e-53
1.1792648e-53
1.0446944e-53
1.1000789e-53
1.0373537e-53
1.0323125e-53
9.8137709e-54
1.2733657e-53
1.2173678e-53
1.0115509e-53
1.0207907e-53
9.6113675e-54
6.4729928e-54
5.2138531e-54
6.4949055e-54
6.5692388e-54
5.2163859e-54
5.1538704e-54
6.7000177e-54
6.5572912e-54
5.2976251e-54
6.6842591e-54
2.8966982e-53
3.1374214e-53
2.059079e-53
7.840062e-54
8.6335401e-54
8.0338168e-54
7.9723998e-54
3.7892419e-53
4.1157861e-53
4.8895902e-53
4.7445126e-53
9.0203631e-54
8.8951218e-54
9.3827666e-54
9.6559319e-54
1.1459504e-53
1.0059456e-53
1.0082455e-53
1.0053423e-53
5.0586844e-54
5.6781321e-54
6.0094925e-54
6.1937814e-54
5.2615438e-54
6.3614589e-54
5.1864381e-54
6.2568242e-54
5.9447018e-54
5.3256678e-54
2.7482885e-53
2.9348583e-53
7.9187353e-54
8.1499884e-54
8.3453343e-54
8.9653861e-54
8.794783e-54
7.9793615e-54
8.3770776e-54
9.0994663e-54
8.7517323e-54
9.8710221e-54
9.8642029e-54
9.0173405e-54
1.0189063e-53
9.3132395e-54
1.0836649e-53
1.0433488e-53
1.1646957e-53
9.4064148e-54
8.1807731e-54
9.6354758e-54
8.2800664e-54
9.0653679e-54
9.2361805e-54
9.4485365e-54
9.9421606e-54
9.093215e-54
8.5801868e-54
9.6933308e-54
9.5923249e-54
1.1122744e-53
8.9024284e-54
8.843211e-54
9.9079384e-54
1.0274393e-53
9.7329678e-54
7.7773744e-54
7.8844626e-54
9.9445899e-54
8.62735e-54
8.5772328e-54
1.0954675e-53
9.9266351e-54
8.9058685e-54
8.6099571e-54
9.0804922e-54
8.5630939e-54
8.5858671e-54
8.4215373e-54
9.3941159e-54
9.1225385e-54
5.016818e-54
2.667898e-54
2.7181325e-54
5.6886817e-54
4.8182543e-54
5.0601541e-54
4.7761153e-54
4.8131335e-54
3.739596e-54
3.6016468e-54
2.7871136e-54
2.8104862e-54
3.5278418e-54
2.4997601e-54
2.7565884e-54
3.6151071e-54
4.1525152e-54
4.2955155e-54
4.4667759e-54
4.0822164e-54
4.3721349e-54
4.4036059e-54
4.1123912e-54
4.0911054e-54
3.595575e-54
3.6976481e-54
2.689818e-54
2.7393039e-54
2.6593621e-54
3.8074991e-54
3.6217598e-54
2.7634317e-54
2.8233789e-54
2.7318165e-54
4.6494863e-54
4.4694933e-54
4.3987749e-54
4.5785195e-54
4.9240952e-54
5.7267254e-54
4.6601975e-54
4.691231e-54
4.2243937e-53
2.2017809e-53
2.0594809e-53
7.7792987e-54
9.5936255e-54
7.3703337e-54
8.1416157e-54
9.4095715e-54
1.1104327e-53
9.1358296e-54
9.3854636e-54
4.7611161e-54
5.1906347e-54
5.2599846e-54
5.1201525e-54
5.8449433e-54
5.0669438e-54
5.5552399e-54
5.4306038e-54
5.2291542e-54
5.9447943e-54
2.596037e-53
2.6749871e-53
9.5446599e-54
9.0793567e-54
9.9891099e-54
1.0582455e-53
8.7070464e-54
8.0708556e-54
8.6410206e-54
9.3017351e-54
9.1187688e-54
8.8756508e-54
9.4093723e-54
9.8562802e-54
1.0106246e-53
1.0291291e-53
9.9431754e-54
1.0281166e-53
1.1310208e-53
1.0763261e-53
1.2339665e-53
1.3465777e-53
9.6567357e-54
9.3465943e-54
1.037731e-53
1.0274154e-53
9.1213834e-54
9.9239982e-54
1.2557945e-53
1.0096496e-53
8.5928349e-54
8.4204025e-54
8.8277017e-54
9.1034904e-54
4.4593773e-54
4.0594819e-54
3.8918616e-54
4.1170055e-54
2.5567417e-54
3.1750231e-54
2.5591211e-54
3.4728748e-54
2.9319096e-54
3.5024453e-54
3.3237532e-54
2.5348488e-54
2.6509324e-54
2.6696124e-54
5.2120863e-54
6.2123389e-54
4.3754374e-54
4.1248919e-54
4.4430666e-54
3.9411192e-54
2.6541326e-54
2.7302029e-54
5.2683266e-54
6.1993409e-54
4.2490698e-54
4.2686119e-54
4.0801627e-54
4.156405e-54
3.6896488e-54
3.5735301e-54
2.658019e-54
2.7333895e-54
3.6227368e-54
2.5732607e-54
3.0266732e-54
3.6114999e-54
4.4953414e-54
4.1730651e-54
4.4640082e-54
4.7675042e-54
4.5281225e-54
4.5903218e-54
2.9695833e-53
3.0114809e-53
2.1194585e-53
2.1106994e-53
2.2774674e-53
2.2146028e-53
3.193851e-53
3.1899859e-53
5.900844e-54
6.4524971e-54
6.7718628e-54
5.9600902e-54
1.9059414e-53
1.8727077e-53
3.1115208e-53
3.1408796e-53
2.1993654e-53
2.1601922e-53
6.9055803e-54
6.6125561e-54
5.9354375e-54
6.0893529e-54
1.8745775e-53
1.8534831e-53
6.6896388e-54
6.428801e-54
5.9704667e-54
6.234343e-54
6.5921999e-54
6.3254651e-54
5.8821374e-54
6.1929082e-54
1.8274386e-53
6.0516231e-54
6.8095496e-54
7.203005e-54
6.2600972e-54
1.9264974e-53
6.2226223e-54
7.2010323e-54
6.2741742e-54
6.6388741e-54
6.9501035e-54
6.3939966e-54
6.5994548e-54
6.7487788e-54
6.9031711e-54
5.056095e-54
5.938573e-54
6.2682055e-54
5.2303896e-54
5.7398871e-54
6.0046501e-54
5.8638794e-54
5.6247304e-54
5.2651193e-54
6.4400608e-54
6.4828678e-54
5.3789347e-54
6.0477814e-54
5.7562474e-54
5.8452735e-54
5.6868879e-54
6.2039994e-54
6.6739513e-54
6.0455465e-54
6.0274701e-54
6.548479e-54
5.6423076e-54
5.4233019e-54
6.1645029e-54
5.1040129e-54
5.716888e-54
6.3110791e-54
5.4137186e-54
6.5348424e-54
6.133293e-54
5.5244359e-54
5.6060958e-54
5.7733765e-54
5.9695092e-54
6.3399229e-54
6.6973084e-54
5.8424556e-54
5.6724704e-54
6.1954394e-54
6.4410747e-54
6.1500675e-54
6.0067148e-54
5.7472192e-54
5.5374441e-54
6.3921516e-54
5.8928863e-54
5.7170268e-54
6.0053407e-54
1.8446083e-53
1.8536262e-53
1.5370109e-53
1.5396199e-53
3.3053635e-53
3.2872221e-53
2.3661585e-53
2.3022998e-53
2.4008974e-53
2.3244193e-53
3.3280925e-53
3.3309304e-53
1.9869078e-53
6.7336839e-54
7.503114e-54
7.5498614e-54
6.5934083e-54
2.0066608e-53
3.0187977e-53
3.0004183e-53
2.1339689e-53
2.0854747e-53
2.1543871e-53
2.1043112e-53
3.0163665e-53
3.0336401e-53
5.947997e-54
6.7086514e-54
6.6991592e-54
5.9372793e-54
1.8365891e-53
1.8283967e-53
6.8485995e-54
7.1580992e-54
6.9919838e-54
6.6028453e-54
6.0400619e-54
6.1159748e-54
6.3098172e-54
5.9083756e-54
5.3363992e-54
5.4299586e-54
5.7353555e-54
5.516071e-54
5.5768598e-54
5.3357643e-54
4.5907039e-54
4.9076539e-54
4.8817063e-54
5.6678511e-54
5.4771629e-54
4.8164172e-54
5.3744046e-54
5.4613307e-54
5.54354e-54
5.0742576e-54
5.7330368e-54
5.338513e-54
5.0579855e-54
5.4350897e-54
5.8523343e-54
5.5036718e-54
5.6078387e-54
5.794517e-54
5.6036406e-54
6.1907096e-54
6.302776e-54
5.4906776e-54
5.6336525e-54
5.4110984e-54
4.8530254e-54
4.973495e-54
2.1921974e-54
1.1601574e-54
1.206096e-54
2.095775e-54
2.3614654e-54
1.1578199e-54
1.1497024e-54
1.9315617e-54
2.0555404e-54
2.3956293e-54
4.3075082e-54
4.7862919e-54
4.9879187e-54
4.3642738e-54
4.9468957e-54
4.3588345e-54
4.2894467e-54
4.7333165e-54
4.4585127e-54
5.1691197e-54
4.5265468e-54
4.8184424e-54
5.3875468e-54
4.1781691e-54
4.0572437e-54
4.6086791e-54
1.9839478e-54
2.0264256e-54
2.0797679e-54
2.1663921e-54
2.0500581e-54
1.9303257e-54
2.1337102e-54
2.2324234e-54
2.3909144e-54
2.0713821e-54
2.0683906e-54
2.2822497e-54
2.0362548e-54
2.0375736e-54
2.3004407e-54
2.2890403e-54
1.965183e-54
1.8351744e-54
1.986086e-54
2.1278588e-54
2.0804028e-54
1.8241454e-54
1.8161963e-54
2.0600385e-54
2.2024056e-54
2.0497286e-54
2.2453871e-54
1.9298329e-54
2.0717788e-54
1.9781014e-54
2.071768e-54
1.9140559e-54
4.5323988e-54
3.989414e-54
4.0701546e-54
4.6585667e-54
4.9489193e-54
4.8424497e-54
4.2893654e-54
4.513441e-54
4.5319923e-54
5.0566861e-54
4.7713427e-54
4.3048887e-54
4.2056504e-54
3.6964093e-54
3.7005461e-54
4.09117e-54
4.2846176e-54
4.307827e-54
4.8081483e-54
4.7819389e-54
4.269189e-54
4.0701962e-54
4.704092e-54
4.7861014e-54
4.4524048e-54
4.7825459e-54
4.8053921e-54
4.3626052e-54
4.8140675e-54
4.7801331e-54
4.4104316e-54
4.4224305e-54
1.1254758e-54
1.8372735e-54
2.0530987e-54
2.1903145e-54
2.0688288e-54
1.1506659e-54
1.9934508e-54
2.1156659e-54
2.1493001e-54
2.0079291e-54
1.8438681e-54
2.0144212e-54
1.9187115e-54
1.8629256e-54
2.1678276e-54
2.1694456e-54
1.888006e-54
1.8690768e-54
2.1340372e-54
2.1295732e-54
1.143426e-54
1.9717721e-54
2.1195113e-54
2.2303802e-54
2.1248045e-54
1.1438026e-54
2.1173023e-54
2.227434e-54
2.2093353e-54
2.0040701e-54
1.8364828e-54
2.0430913e-54
2.1006324e-54
1.976927e-54
2.293605e-54
2.327763e-54
1.9338355e-54
1.8905304e-54
2.1581484e-54
2.2135746e-54
4.8906939e-54
5.7373907e-54
5.5336176e-54
4.8147763e-54
4.8251333e-54
4.1566427e-54
4.3341823e-54
4.9483159e-54
4.3806996e-54
4.3592081e-54
4.9085927e-54
4.8745866e-54
5.0235411e-54
5.3611001e-54
5.3110974e-54
4.9043166e-54
2.4663814e-54
2.4846093e-54
5.0482233e-54
4.985605e-54
2.2249121e-53
4.318723e-53
2.8542177e-53
3.7481022e-53
3.3825003e-53
4.0557985e-53
4.4701323e-53
2.2072764e-53
6.9147426e-54
6.9442198e-54
2.0335194e-53
8.5178787e-54
1.0102232e-53
9.9297035e-54
1.0737421e-53
1.0979462e-53
1.0821846e-53
1.275276e-53
1.1565341e-53
8.486493e-54
7.962896e-54
8.1138238e-54
9.3982614e-54
8.1060614e-54
8.8469567e-54
1.132643e-53
8.6615803e-54
1.0338982e-53
9.7949936e-54
1.0641956e-53
1.0926689e-53
1.1252875e-53
1.0992328e-53
1.3292622e-53
1.2247259e-53
8.7202908e-54
8.2185869e-54
9.0174726e-54
9.5532873e-54
8.6627443e-54
9.3876585e-54
1.1797376e-53
9.2605014e-54
3.8859768e-54
3.6475627e-54
3.7116409e-54
3.8117002e-54
3.0976079e-54
2.9553124e-54
2.4793129e-54
2.6379472e-54
2.4852843e-54
2.6417878e-54
3.0510347e-54
3.2179529e-54
2.6700317e-54
2.5995509e-54
3.7547777e-54
3.7787713e-54
3.9915195e-54
4.2660002e-54
5.4259177e-54
6.7803484e-54
4.0346519e-54
3.9559394e-54
4.0531079e-54
4.1349379e-54
3.3982897e-54
3.3080256e-54
2.6756163e-54
2.5757274e-54
2.7552906e-54
3.4700892e-54
3.539956e-54
2.6453996e-54
2.7026054e-54
2.756647e-54
4.0608935e-54
4.179047e-54
4.342229e-54
4.5509131e-54
5.6124421e-54
6.7325589e-54
4.3143083e-54
4.37641e-54
6.690317e-54
7.6433817e-54
7.3004764e-54
6.3969927e-54
6.2130938e-54
7.0236572e-54
7.1609023e-54
6.2270283e-54
6.7784977e-54
6.9978773e-54
6.936935e-54
6.5581012e-54
7.0050481e-54
7.0175614e-54
6.9479012e-54
6.5385858e-54
6.049284e-54
6.5888319e-54
6.0813618e-54
5.92315e-54
6.1000638e-54
6.3289803e-54
5.9538799e-54
5.9408568e-54
5.3506656e-54
5.920947e-54
6.1141323e-54
5.2717161e-54
6.1994634e-54
6.1695256e-54
5.6135903e-54
5.4590859e-54
6.3984917e-54
5.9629079e-54
5.6774264e-54
6.0591191e-54
6.5964355e-54
5.7932904e-54
5.7262666e-54
6.3451402e-54
5.3550558e-54
5.976047e-54
6.3329803e-54
5.5017028e-54
5.3158617e-54
5.882198e-54
6.0110884e-54
5.3085468e-54
6.609301e-54
6.4877348e-54
6.066429e-54
6.1907924e-54
7.0253597e-54
6.7662997e-54
6.4655897e-54
6.6240651e-54
6.6496678e-54
7.2017058e-54
7.2965852e-54
6.5665467e-54
6.853049e-54
6.8171055e-54
6.3275076e-54
6.3414359e-54
6.8240563e-54
6.9790676e-54
7.7126658e-54
8.2153464e-54
6.0933029e-54
6.7946815e-54
6.9156048e-54
7.4292751e-54
7.2109675e-54
7.5594691e-54
7.646369e-54
7.7586378e-54
7.5263547e-54
6.8097908e-54
6.4487937e-54
7.0547856e-54
6.7574338e-54
6.5543259e-54
7.530803e-54
7.0894701e-54
7.4874924e-54
7.4420706e-54
6.5721863e-54
6.5218157e-54
7.1111234e-54
7.0109639e-54
6.466129e-54
6.6547372e-54
7.2070801e-54
6.9878772e-54
6.7249479e-54
6.7510777e-54
6.681103e-54
6.8319501e-54
6.3335968e-54
6.4423347e-54
5.86229e-54
6.3862996e-54
6.9465651e-54
5.9922832e-54
6.3318163e-54
7.8570483e-54
6.1089639e-54
7.10145e-54
7.3894286e-54
7.0410026e-54
6.4080754e-54
6.2038869e-54
6.2888991e-54
6.4848457e-54
5.8931249e-54
6.0533206e-54
6.4260002e-54
5.9461506e-54
5.903331e-54
6.1848551e-54
6.4404092e-54
6.2511808e-54
5.4440731e-54
5.5190182e-54
5.4796147e-54
6.0001768e-54
6.3548121e-54
5.5168295e-54
4.2068683e-54
4.3112211e-54
4.9847941e-54
4.7475724e-54
4.6288101e-54
4.1145135e-54
4.6514036e-54
4.5982637e-54
4.5239804e-54
4.7629531e-54
4.558592e-54
4.3048502e-54
4.8378305e-54
4.9446242e-54
4.630914e-54
4.4426848e-54
1.1711485e-54
2.1504941e-54
2.6143863e-54
1.2419005e-54
1.840662e-54
1.7371188e-54
2.0017705e-54
2.1148968e-54
1.850731e-54
2.0419336e-54
2.1056543e-54
1.8770755e-54
2.1157649e-54
1.8275342e-54
1.8793328e-54
2.1177019e-54
1.8678125e-54
2.0582747e-54
2.2949636e-54
2.1893233e-54
1.2155902e-54
1.7264451e-54
1.8743343e-54
1.961802e-54
2.0284347e-54
1.2067135e-54
1.7755532e-54
1.7439915e-54
1.9747344e-54
2.0617015e-54
2.0910318e-54
1.8353161e-54
1.8196276e-54
2.0612698e-54
1.8400251e-54
1.7824765e-54
2.0318035e-54
2.0690681e-54
2.1577358e-54
2.3216151e-54
2.0112201e-54
2.1892688e-54
4.8742154e-54
5.4893153e-54
5.2068939e-54
4.6605803e-54
4.6023914e-54
3.9505174e-54
4.0646191e-54
4.6846083e-54
5.1375575e-54
5.7147253e-54
5.1566766e-54
4.6513138e-54
4.6941745e-54
3.9889509e-54
4.0387797e-54
4.6053814e-54
1.162105e-54
1.1954203e-54
2.0116155e-54
2.2809969e-54
1.1863094e-54
2.0121241e-54
2.2767357e-54
1.2135111e-54
2.2649495e-54
2.3075613e-54
4.3643922e-54
4.8049897e-54
4.8273876e-54
4.8423235e-54
4.4390044e-54
4.4350715e-54
4.5599946e-54
4.9454139e-54
5.0642788e-54
4.548158e-54
4.3866346e-54
4.6114193e-54
4.7465211e-54
4.7514825e-54
4.9402255e-54
4.5899846e-54
1.7990972e-54
1.8602327e-54
2.0187424e-54
2.0779648e-54
1.8874129e-54
1.8074432e-54
1.9928064e-54
2.1818868e-54
2.1230048e-54
1.8412301e-54
1.8842161e-54
2.1237021e-54
2.2002825e-54
1.8488153e-54
1.8401523e-54
2.1307522e-54
1.9710451e-54
1.9279433e-54
2.1185713e-54
2.2585293e-54
1.9113504e-54
1.9298067e-54
2.1446702e-54
2.1503809e-54
2.8250451e-54
2.4313355e-54
2.2382788e-54
2.4066412e-54
2.3234011e-54
2.1675727e-54
1.9968199e-54
2.2860446e-54
4.1569e-54
4.4589277e-54
5.1322846e-54
4.8795017e-54
4.514517e-54
4.2422877e-54
4.8578288e-54
5.203721e-54
5.0121032e-54
5.3863757e-54
5.6208705e-54
5.0827044e-54
5.363321e-54
5.8669902e-54
5.5320032e-54
5.0696578e-54
4.9947198e-54
4.9997522e-54
2.793827e-53
2.9418594e-53
1.6416413e-53
1.75056e-53
1.8057175e-53
1.8227091e-53
3.0140677e-53
3.033147e-53
1.9774963e-53
1.9268703e-53
2.0181677e-53
2.0410545e-53
4.7092848e-54
4.8800316e-54
5.8936761e-54
5.6675314e-54
4.4979124e-54
4.3279989e-54
5.2900067e-54
5.4690657e-54
2.8535489e-53
2.9830386e-53
1.7209904e-53
1.8052035e-53
1.9829341e-53
1.9496221e-53
1.9724593e-53
2.0038736e-53
4.6002698e-54
4.8114497e-54
5.8262096e-54
5.5265486e-54
4.6969076e-54
4.5436043e-54
5.5612553e-54
5.6770293e-54
1.7948015e-53
1.7895448e-53
1.7081917e-53
1.766009e-53
1.8249511e-53
1.7489656e-53
1.6843687e-53
1.812893e-53
1.9485994e-53
4.463163e-54
4.3133092e-54
5.2286978e-54
5.3605482e-54
1.9589235e-53
2.0693169e-53
2.075636e-53
4.6249727e-54
4.8317958e-54
5.7988823e-54
5.5341338e-54
1.9282498e-53
2.0470967e-53
1.8063727e-53
1.8383762e-53
1.8825838e-53
1.8537796e-53
1.8250928e-53
1.8202454e-53
1.7951719e-53
1.5104845e-53
1.5770025e-53
1.6461205e-53
1.6217537e-53
1.4189463e-53
1.4595119e-53
1.3762103e-53
1.3943357e-53
1.5449003e-53
1.7267841e-53
1.6384586e-53
1.5945599e-53
1.4488368e-53
1.3769543e-53
1.3911429e-53
1.4094523e-53
1.5249017e-53
1.6213646e-53
1.5277176e-53
1.5007646e-53
1.5681266e-53
1.4199108e-53
1.3525962e-53
1.5635739e-53
1.5670279e-53
1.583885e-53
1.7318346e-53
1.6762961e-53
1.6585457e-53
1.6415567e-53
1.6085528e-53
1.6147078e-53
1.9101197e-53
2.090658e-53
1.887094e-53
2.0446372e-53
1.9972257e-53
1.9596958e-53
1.9294422e-53
1.9392156e-53
1.7379561e-53
1.765686e-53
1.7352691e-53
1.6950028e-53
1.8382298e-53
1.7161783e-53
1.6897289e-53
1.8600511e-53
1.4253106e-53
1.4250402e-53
1.2972543e-53
1.3056227e-53
3.0135139e-53
3.0672053e-53
1.7904516e-53
1.8539402e-53
1.8379215e-53
1.8396693e-53
3.0736745e-53
3.0890078e-53
2.0885781e-53
4.9375616e-54
4.8377705e-54
5.908657e-54
5.9787762e-54
2.1214951e-53
2.0862899e-53
2.1514624e-53
4.8244189e-54
5.1630622e-54
6.2366999e-54
5.8075339e-54
2.8208418e-53
2.8601199e-53
1.6676196e-53
1.7350259e-53
1.7283882e-53
1.7667679e-53
2.9293638e-53
2.9858235e-53
1.9083283e-53
1.9872116e-53
1.9025949e-53
1.9441482e-53
4.4589899e-54
4.6546431e-54
5.704635e-54
5.4514619e-54
4.5118004e-54
4.5349239e-54
5.5317664e-54
5.4962322e-54
1.9020049e-53
1.9221202e-53
1.8653043e-53
1.8893415e-53
1.7403613e-53
1.6967006e-53
1.7053679e-53
1.7144993e-53
1.3644289e-53
1.4198341e-53
1.4250874e-53
1.4294198e-53
1.6167115e-53
1.5574668e-53
1.4848978e-53
1.6288025e-53
1.5252071e-53
1.5855449e-53
1.4974708e-53
1.5105443e-53
1.3357251e-53
1.3719687e-53
1.3893383e-53
1.2694023e-53
1.3464886e-53
1.299806e-53
1.240264e-53
1.3465936e-53
1.3817492e-53
1.3684549e-53
1.3953897e-53
1.4288018e-53
1.6248954e-53
1.6096615e-53
1.632474e-53
1.638912e-53
1.5076158e-53
1.4600054e-53
1.4596274e-53
1.5030571e-53
2.4271262e-54
1.249681e-54
1.4380736e-54
1.0861431e-54
1.056059e-54
1.1532666e-54
1.1065766e-54
1.1511672e-54
1.0737856e-54
1.0777159e-54
1.1650586e-54
1.0802794e-54
9.6495974e-55
1.0342431e-54
1.124295e-54
1.0996724e-54
1.0563893e-54
1.0575595e-54
1.1280654e-54
1.4407316e-54
1.5058564e-54
2.575108e-54
1.1609026e-53
1.2344547e-53
1.2436859e-53
1.2102017e-53
1.0098797e-53
1.0305197e-53
9.4915657e-54
9.2359824e-54
1.1133137e-53
1.3160586e-53
1.1873141e-53
1.1628244e-53
9.8144207e-54
9.1822662e-54
9.1067482e-54
8.8784217e-54
2.1835064e-54
2.0964988e-54
2.4346349e-54
2.5201113e-54
2.3895513e-54
2.3352936e-54
2.7297615e-54
2.6238186e-54
6.2219455e-54
4.8586243e-54
4.7995913e-54
5.9417716e-54
4.5223933e-54
4.4467185e-54
5.6784672e-54
5.6575565e-54
2.1643691e-54
2.093666e-54
2.086225e-54
2.4477976e-54
5.5400503e-54
4.1282493e-54
4.8813912e-54
5.9867867e-54
5.3621771e-54
4.2704149e-54
5.8795283e-54
5.1345298e-54
2.1005367e-54
2.3901564e-54
2.7578448e-54
2.3587631e-54
9.0478379e-54
8.8396672e-54
9.3764398e-54
9.227138e-54
1.1518953e-53
1.1682661e-53
1.095062e-53
1.1492858e-53
1.0955595e-53
1.1410049e-53
1.1282073e-53
1.1114613e-53
8.2928067e-54
8.4476449e-54
8.894463e-54
8.4599303e-54
9.4738637e-54
9.4367559e-54
9.0594708e-54
9.093784e-54
9.2969385e-54
9.5139689e-54
9.3110607e-54
9.1434424e-54
1.1545477e-53
1.1739684e-53
1.1497003e-53
1.1398109e-53
1.145806e-53
1.1545525e-53
1.1246736e-53
1.1384155e-53
1.062025e-54
1.0282342e-54
1.0524275e-54
1.0945169e-54
2.3416176e-54
2.2416836e-54
2.7814902e-54
2.7605287e-54
1.0799253e-54
9.6862491e-55
1.0098691e-54
1.1193189e-54
2.4983435e-54
2.1157995e-54
2.9096079e-54
2.669536e-54
1.4218629e-54
1.5985524e-54
4.8142663e-54
4.466239e-54
5.7415206e-54
5.796616e-54
4.7269855e-54
4.7064118e-54
6.0040888e-54
5.7622069e-54
1.0655152e-54
9.5419722e-55
9.8500136e-55
1.0871069e-54
2.5137274e-54
2.2733884e-54
2.9548821e-54
3.0939523e-54
1.0547978e-54
9.322086e-55
9.8636146e-55
1.0906018e-54
2.714027e-54
2.3265966e-54
3.0866955e-54
2.7616667e-54
1.6303674e-54
1.6207438e-54
5.4249788e-54
4.8670865e-54
6.2909755e-54
6.5506665e-54
4.9881267e-54
4.6709686e-54
5.9563171e-54
6.1351289e-54
1.245804e-53
1.3012494e-53
1.3193175e-53
1.2804002e-53
9.4979952e-54
9.5963824e-54
9.9139234e-54
1.0099067e-53
1.0363453e-53
1.0214948e-53
1.0011842e-53
1.0320961e-53
1.272635e-53
1.2995306e-53
1.3060907e-53
1.2937804e-53
2.7202162e-54
2.7047786e-54
3.0160169e-54
3.2770996e-54
3.4974244e-54
3.4868492e-54
3.5806096e-53
5.5155887e-53
5.1957177e-53
3.3355244e-53
1.0522862e-52
2.0069804e-53
2.1583988e-53
2.2522777e-53
1.8909579e-53
1.2887561e-53
1.5206854e-53
1.6547651e-53
1.5269182e-53
2.9023479e-53
2.8665056e-53
9.4872786e-53
1.5509206e-53
1.7402219e-53
1.6059188e-53
1.6666082e-53
1.6937383e-53
1.6297198e-53
1.7789073e-53
2.1929081e-53
6.7204607e-54
6.7568918e-54
5.4381557e-54
1.1236157e-53
1.2136578e-53
5.6987277e-54
1.0169111e-53
1.3103611e-53
5.7168228e-54
5.419644e-54
7.1913373e-54
6.7673463e-54
5.9495758e-54
6.3420991e-54
7.7755487e-54
7.2510491e-54
7.6271324e-54
8.3023345e-54
6.596387e-54
6.6945912e-54
7.280503e-54
6.9719544e-54
7.7932739e-54
7.5115377e-54
7.5090877e-54
7.1296884e-54
8.0439064e-54
8.9085422e-54
7.6707316e-54
8.5827312e-54
7.4930087e-54
7.5801249e-54
6.9831411e-54
6.7694876e-54
7.4029425e-54
7.4146214e-54
6.8862928e-54
6.9611856e-54
8.1033519e-54
8.0190328e-54
8.0834885e-54
7.8450244e-54
5.0608091e-54
5.968925e-54
6.4545001e-54
5.4909252e-54
5.8797448e-54
5.8044993e-54
6.4334464e-54
6.3932623e-54
6.4477504e-54
6.5000089e-54
6.1447829e-54
6.376201e-54
5.9669423e-54
6.3399166e-54
6.6616612e-54
6.0528875e-54
6.6823743e-54
6.3038291e-54
6.4997942e-54
6.6137347e-54
6.9534867e-54
6.9440763e-54
6.1715759e-54
6.0770244e-54
6.1879864e-54
7.465691e-54
6.6564547e-54
5.9917419e-54
6.9203229e-54
6.3759214e-54
6.8294642e-54
6.3033383e-54
7.3803068e-54
8.302079e-54
8.0287209e-54
7.1641524e-54
7.2615014e-54
8.1565878e-54
8.2356675e-54
7.17095e-54
7.8728442e-54
8.006875e-54
7.9067778e-54
7.5756563e-54
7.6075177e-54
7.5100972e-54
7.6117935e-54
7.2234993e-54
7.2327733e-54
7.7998751e-54
8.1422085e-54
7.0930478e-54
7.1338995e-54
7.3715784e-54
6.6909105e-54
6.3779173e-54
7.1401412e-54
7.4279879e-54
6.8124806e-54
6.6761141e-54
7.7352848e-54
7.6046708e-54
7.274867e-54
7.4103161e-54
6.5432912e-54
6.3417513e-54
6.3380432e-54
6.3830564e-54
7.3562423e-54
6.3980411e-54
6.5078455e-54
6.6677272e-54
6.107645e-54
6.8548545e-54
6.6970986e-54
6.0035379e-54
6.6293986e-54
6.6605186e-54
5.9729173e-54
5.8898161e-54
6.6628537e-54
6.6548117e-54
6.2996977e-54
6.4656373e-54
5.8770691e-54
6.354026e-54
6.8289347e-54
5.9495795e-54
6.2412489e-54
7.6889186e-54
7.0243792e-54
5.92021e-54
7.2644739e-54
6.7881256e-54
6.3600308e-54
6.1995303e-54
4.1495827e-54
4.7589806e-54
4.9428226e-54
4.3666161e-54
4.2445472e-54
3.4960252e-54
3.8884747e-54
4.3674547e-54
3.7589422e-54
3.8198813e-54
4.1315373e-54
4.2752144e-54
4.4807855e-54
4.4002756e-54
4.5524496e-54
4.4780727e-54
1.2511822e-54
1.4692563e-54
1.4681936e-54
1.5441462e-54
1.7046835e-54
1.2085251e-54
1.5028211e-54
1.487272e-54
1.5950033e-54
1.803595e-54
1.6266612e-54
1.490972e-54
1.7343439e-54
1.8505546e-54
1.8294448e-54
1.471247e-54
1.5495939e-54
1.8333798e-54
2.2751797e-54
2.9254172e-54
1.9643445e-54
1.6508744e-54
1.630073e-54
1.8354847e-54
1.228791e-54
1.8262424e-54
1.5015328e-54
1.5323636e-54
1.7965363e-54
1.2535766e-54
1.517373e-54
1.6085837e-54
1.6805972e-54
1.8043778e-54
1.8992264e-54
1.5639352e-54
1.6175113e-54
1.9040997e-54
2.3682361e-54
2.6296587e-54
4.0841492e-54
3.4519445e-54
3.5424547e-54
4.2434341e-54
3.6106228e-54
3.6695671e-54
4.20601e-54
4.1044552e-54
4.8886422e-54
4.8376528e-54
4.4738571e-54
4.6039275e-54
4.848631e-54
4.7217255e-54
4.7235181e-54
4.7166508e-54
1.8513235e-54
1.9889315e-54
4.2469028e-54
3.7383233e-54
4.3773627e-54
4.8229299e-54
4.7950586e-54
4.5145122e-54
4.9125446e-54
5.1256587e-54
5.1490996e-54
4.0557751e-54
4.3565296e-54
4.5364144e-54
4.5704914e-54
5.1510226e-54
4.6066476e-54
4.6272279e-54
1.2292524e-54
1.5708998e-54
1.6333592e-54
1.8809048e-54
1.7331366e-54
1.1889029e-54
1.5973351e-54
1.5884154e-54
1.7037596e-54
1.9267031e-54
1.7559978e-54
1.6361637e-54
1.91683e-54
2.047897e-54
2.1950725e-54
2.6051179e-54
1.6351661e-54
1.9641708e-54
2.0967179e-54
1.7358325e-54
1.2352776e-54
1.7418282e-54
1.8431084e-54
2.071101e-54
1.9270234e-54
1.2095218e-54
1.6596307e-54
1.7161459e-54
2.0074069e-54
1.8090729e-54
2.1566704e-54
2.4533264e-54
1.6833006e-54
1.9441687e-54
2.11913e-54
1.7680333e-54
1.7811357e-54
2.1028763e-54
2.1428944e-54
1.8380604e-54
4.0829341e-54
4.2135389e-54
4.8456207e-54
4.4797884e-54
4.1518484e-54
3.7657527e-54
4.2607284e-54
4.6718904e-54
4.7148644e-54
4.960536e-54
5.1982776e-54
4.8376723e-54
4.9422494e-54
5.521135e-54
5.1937685e-54
4.7936678e-54
2.0486268e-54
2.0934816e-54
4.8882893e-54
4.9309521e-54
2.1398486e-53
2.3108035e-53
2.0691901e-53
2.0752168e-53
2.0457334e-53
2.115851e-53
2.1718431e-53
2.1587593e-53
1.9488458e-53
2.0662906e-53
1.9685501e-53
1.9478363e-53
2.0119183e-53
2.0098592e-53
1.8681303e-53
1.8584907e-53
1.4728169e-53
1.6645197e-53
1.535196e-53
1.4635561e-53
1.5468653e-53
1.8182833e-53
1.6110085e-53
1.5521349e-53
1.7521413e-53
1.8164849e-53
1.7789509e-53
1.7419518e-53
1.6566137e-53
1.7428329e-53
1.7157565e-53
1.6395375e-53
1.5713781e-53
1.5229742e-53
1.3955917e-53
1.4992477e-53
1.5974571e-53
1.5056901e-53
1.4038192e-53
1.5837403e-53
1.6468989e-53
1.6644302e-53
1.7603128e-53
1.7271335e-53
1.619899e-53
1.6456566e-53
1.6549451e-53
1.614299e-53
1.8134144e-53
1.8618058e-53
1.796592e-53
1.7924307e-53
1.9515599e-53
1.9073651e-53
1.8563881e-53
1.9559807e-53
2.1272922e-53
2.1037882e-53
2.1559443e-53
2.2062967e-53
1.9644837e-53
2.0223672e-53
2.0508333e-53
2.0412958e-53
2.1645214e-53
2.2336324e-53
2.2011344e-53
2.3680945e-53
1.9324123e-53
2.2070396e-53
1.9282529e-53
2.1842835e-53
2.0116203e-53
2.0780472e-53
2.1616003e-53
2.1124271e-53
2.0944115e-53
1.9457294e-53
1.7584627e-53
1.8866194e-53
2.1625878e-53
2.0978008e-53
2.1120205e-53
2.0870252e-53
2.2270567e-53
2.133188e-53
2.1258812e-53
2.2231813e-53
1.9014239e-53
1.9628766e-53
1.8643703e-53
1.8808459e-53
2.0026336e-53
1.9140595e-53
1.8757552e-53
2.0023091e-53
1.6525761e-53
1.7013376e-53
1.6007559e-53
1.6380519e-53
1.7533255e-53
1.7597622e-53
1.8775852e-53
1.8681618e-53
1.8324978e-53
2.1125393e-53
1.7620327e-53
1.7671263e-53
1.8114698e-53
1.7854572e-53
1.5970425e-53
1.5719883e-53
1.519374e-53
1.5808355e-53
1.4757811e-53
1.4979758e-53
1.5638319e-53
1.5229053e-53
1.4907262e-53
1.5781489e-53
1.8012028e-53
1.7245847e-53
1.658444e-53
1.7617348e-53
1.6483806e-53
1.6664639e-53
1.705623e-53
1.6664887e-53
1.0147719e-53
1.0406331e-53
9.9442542e-54
9.5320009e-54
1.2001154e-53
1.1478675e-53
1.1144686e-53
1.0216807e-53
1.4028763e-53
1.4820714e-53
1.2856466e-53
1.258987e-53
1.2874871e-53
1.3329113e-53
1.2444371e-53
1.2140675e-53
1.4036848e-54
1.1817457e-54
1.1727873e-54
1.2298967e-54
9.9077861e-55
1.1211867e-54
1.2869259e-54
1.3042554e-54
1.271762e-54
1.304806e-54
1.984594e-54
1.9170926e-54
2.6708673e-54
2.4613423e-54
4.8159297e-54
6.4092667e-54
6.2645729e-54
4.7211177e-54
2.5316597e-54
1.6518483e-54
2.003819e-54
2.3758592e-54
4.2517454e-54
4.5210749e-54
5.8253067e-54
5.7420258e-54
1.2061925e-54
1.1096403e-54
1.2012853e-54
1.2391483e-54
1.9413565e-54
2.2015513e-54
2.0327296e-54
2.4308499e-54
1.2779196e-54
1.2070336e-54
1.2321248e-54
1.2491687e-54
1.7203749e-54
1.7460043e-54
2.4441409e-54
2.4899117e-54
5.9922929e-54
4.4921825e-54
4.849209e-54
6.1484228e-54
4.6736281e-54
3.8883359e-54
5.3698184e-54
6.0540129e-54
1.1423308e-54
1.2094209e-54
2.3056201e-54
2.4739859e-54
1.2673156e-53
1.4358094e-53
1.3384267e-53
1.2878791e-53
1.0036446e-53
1.0300881e-53
1.0456286e-53
1.0081504e-53
1.3187504e-53
1.3977239e-53
1.3710584e-53
1.2922262e-53
9.5523197e-54
9.5385214e-54
1.0595098e-53
1.0418276e-53
1.1454975e-54
1.1666855e-54
1.2270372e-54
1.1681584e-54
1.1692131e-54
1.0989093e-54
1.1470141e-54
1.1945356e-54
1.1450487e-54
1.2779445e-54
1.1330844e-54
1.0745967e-54
1.1658294e-54
1.1429427e-54
1.3050759e-54
1.3366102e-54
1.1209194e-54
1.0691703e-54
1.1608176e-54
1.1715328e-54
2.5829654e-54
2.5632693e-54
1.0894615e-53
1.1175676e-53
1.0095192e-53
9.7249805e-54
1.0749892e-53
1.0773467e-53
9.7839834e-54
1.0415742e-53
1.3401954e-53
1.2314434e-53
1.2207899e-53
1.2880215e-53
1.2198572e-53
1.225113e-53
1.298119e-53
1.2443737e-53
2.1676646e-54
2.0846515e-54
2.0354303e-54
2.5548575e-54
2.1268352e-54
2.1227279e-54
2.2665189e-54
2.5874582e-54
5.9301413e-54
4.3179381e-54
4.8788277e-54
6.2023177e-54
5.9439762e-54
4.2233005e-54
4.7389775e-54
6.1907646e-54
2.5172995e-54
2.1675435e-54
2.5654841e-54
2.5297531e-54
4.8681957e-54
4.8097118e-54
6.4009495e-54
6.5562528e-54
6.9685571e-54
5.5593642e-54
5.2879052e-54
6.5149591e-54
2.9594883e-54
2.2443783e-54
2.3379923e-54
2.722784e-54
1.0688293e-53
1.1524267e-53
1.1159907e-53
1.105769e-53
1.1309727e-53
1.0949349e-53
1.0607857e-53
1.1144309e-53
1.3189327e-53
1.3797216e-53
1.411875e-53
1.3718838e-53
1.4082346e-53
1.5083345e-53
1.4831061e-53
1.379203e-53
2.8634591e-54
3.1371161e-54
3.2727027e-54
3.2107143e-54
5.0206565e-54
5.2337373e-54
1.1568929e-53
1.1992817e-53
1.237355e-53
1.2261121e-53
5.5148315e-54
5.408098e-54
3.7063797e-54
3.7805185e-54
3.9452403e-54
3.8609506e-54
3.2883578e-54
3.4576821e-54
3.6455032e-54
3.4533096e-54
3.848939e-54
4.0019725e-54
3.7338533e-54
3.6298859e-54
4.1471775e-54
4.243146e-54
4.1067602e-54
4.0255071e-54
1.3493832e-53
1.4104341e-53
1.2253724e-53
1.1926297e-53
1.3136341e-53
1.3185095e-53
1.1608279e-53
1.1606178e-53
5.2761749e-54
5.4376602e-54
1.2039117e-53
1.2442499e-53
3.7599112e-54
3.9224649e-54
3.6696728e-54
3.5427229e-54
3.4523629e-54
3.6591449e-54
3.7950544e-54
3.5681131e-54
3.8470882e-54
3.963896e-54
4.0574663e-54
3.9822386e-54
4.0799696e-54
4.1624673e-54
4.0075928e-54
3.9220116e-54
1.3504086e-53
1.4338381e-53
1.2515843e-53
1.1941452e-53
1.3774729e-53
1.3824202e-53
1.2168911e-53
1.2149868e-53
3.3606473e-54
3.4854863e-54
3.2345606e-54
3.1338212e-54
3.4007758e-54
3.246172e-54
3.0035628e-54
3.143971e-54
3.1898539e-54
3.4104894e-54
3.572297e-54
3.3187928e-54
3.4299571e-54
3.6624921e-54
3.5542456e-54
3.3118847e-54
3.3934079e-54
3.5380193e-54
3.291015e-54
3.1895084e-54
2.8421579e-54
3.0456355e-54
3.2149845e-54
2.9973311e-54
3.0122429e-54
3.2331604e-54
3.3999549e-54
3.1978511e-54
3.4962955e-54
3.7327536e-54
3.6166084e-54
3.3881007e-54
3.674087e-54
3.7730702e-54
3.9014823e-54
3.783545e-54
1.3600259e-53
1.3533113e-53
1.191311e-53
1.197687e-53
3.3057617e-54
3.5216677e-54
3.6536381e-54
3.4098863e-54
3.8274067e-54
4.0010801e-54
3.7315764e-54
3.5971324e-54
4.1150606e-54
4.2145744e-54
4.0522113e-54
3.9554746e-54
1.3674329e-53
1.4465663e-53
1.259408e-53
1.2097938e-53
3.705899e-54
3.8201559e-54
3.8216306e-54
3.7060681e-54
3.3778788e-54
3.6061045e-54
3.6411592e-54
3.3850499e-54
3.1411041e-54
3.3986413e-54
3.5374505e-54
3.2441633e-54
2.9995135e-54
3.2139636e-54
3.3837619e-54
3.108161e-54
3.484332e-54
3.6318862e-54
3.3407036e-54
3.2313725e-54
3.5134878e-54
3.7615965e-54
3.646029e-54
3.3888272e-54
3.2347603e-54
3.4570274e-54
3.5604086e-54
3.250484e-54
3.3623949e-54
3.2940502e-54
3.0493833e-54
3.1114577e-54
3.0581091e-54
3.3059543e-54
3.0324939e-54
2.8715984e-54
2.6607706e-54
2.8936538e-54
3.0473931e-54
2.7989539e-54
2.5126205e-54
2.7382975e-54
2.8614107e-54
2.6227868e-54
2.9811532e-54
3.122901e-54
2.8701055e-54
2.7633859e-54
3.0634137e-54
3.2829665e-54
3.1742143e-54
2.9508675e-54
2.4056849e-54
2.6698287e-54
2.7758878e-54
2.4904673e-54
2.3414135e-54
2.6275754e-54
2.7508024e-54
2.4192506e-54
2.6909818e-54
2.8565711e-54
2.5409281e-54
2.4271125e-54
2.6774108e-54
2.8909396e-54
2.7984842e-54
2.5601299e-54
2.8325094e-54
3.0839649e-54
3.2410743e-54
2.9524156e-54