/*--------------------------------*- C++ -*----------------------------------*\
  =========                 |
  \\      /  F ield         | OpenFOAM: The Open Source CFD Toolbox
   \\    /   O peration     | Website:  https://openfoam.org
    \\  /    A nd           | Version:  7
     \\/     M anipulation  |
\*---------------------------------------------------------------------------*/
FoamFile
{
    version     2.0;
    format      ascii;
    class       volScalarField;
    location    "9000";
    object      omega;
}
// * * * * * * * * * * * * * * * * * * * * * * * * * * * * * * * * * * * * * //

dimensions      [0 0 -1 0 0 0 0];

internalField   nonuniform List<scalar> 
34387
(
600.25331
605.90579
530.49798
528.46696
406.21893
613.20285
605.23902
536.21376
532.84552
3087.7148
3071.6888
1189.2582
1198.469
1054.1167
1071.165
1208.8704
3132.6595
3052.6341
1177.9779
1074.0631
1050.0909
463.7318
900.39549
765.91818
753.98476
875.0269
882.7205
758.57371
768.21083
891.66482
460.97691
403.55392
402.68772
373.71376
637.198
615.55899
549.39663
540.22841
389.21945
390.26413
400.6495
402.6244
1215.2902
1077.7998
1059.7408
1183.2001
1214.3894
1205.4087
1087.7458
1063.7493
904.44937
781.3488
766.64977
468.59335
884.05033
464.80744
890.89123
767.28128
777.7666
901.35478
405.25865
403.68281
7082.33
7111.7564
2684.1317
6011.6324
5943.7923
7054.364
2651.9998
6063.9522
5935.0093
2538.0022
2550.1603
5955.1782
2694.1886
6090.6304
2696.3572
2567.0418
2596.4312
2234.2383
2077.2708
2207.6682
2058.9024
2133.771
2096.8941
2249.4847
2268.392
2694.3786
2629.3514
2519.0272
2568.3229
8265.5986
7421.4035
7318.9661
6252.5374
2706.4775
6206.743
7011.2122
7052.2555
2628.0101
5961.3262
5883.2356
2551.9796
2509.2824
2114.1935
2263.4868
2196.7437
2057.7065
2042.9617
2050.8679
2220.6512
2180.6067
538.35678
664.08915
656.25157
533.54105
1832.6146
1628.478
1767.209
1573.9928
1145.7534
1185.4256
1379.3336
1322.6786
1142.9182
1315.8056
1305.0925
1147.9997
1559.4334
1765.5156
1749.4679
1559.0239
1562.2006
1583.5187
1791.7017
1761.4384
1159.6965
1144.687
662.4403
1308.8575
1336.9408
1169.2916
1197.0665
662.03888
1366.6239
1342.8617
1803.1394
1593.9799
1630.348
1828.1924
539.20533
538.88928
465.26203
465.69682
532.40091
369.76627
374.53513
1240.925
1197.1038
1093.5772
1075.0353
1223.4079
1208.5238
1076.4948
1086.6317
920.1969
799.56107
780.75066
894.89166
476.66497
903.32548
780.68616
786.55129
903.84113
470.70758
406.91036
405.23602
2642.1419
2689.6619
2563.5468
2537.4699
2068.5788
2112.3733
2256.002
2201.0075
2061.4996
2059.0575
2212.9967
2184.1582
2513.5076
2528.8694
2674.2802
2619.5052
2770.454
2754.2241
2631.4308
2672.4447
2677.0687
2724.785
2564.2024
2580.1748
2131.9782
2296.9269
2333.6335
2197.4117
2081.524
2097.0186
2256.9408
2222.2554
1588.2052
1639.3718
1835.8169
1773.9289
677.23114
1216.1838
1390.9443
1169.6206
1333.6118
1170.1148
1163.0522
1334.1267
1326.9139
666.38248
543.09552
536.50443
1777.2202
1576.6509
1765.6358
1582.0676
670.5467
669.74964
542.20475
541.08964
1580.7395
1601.0887
1810.0756
1776.9964
1162.2699
1178.4975
1352.1329
1321.9731
1181.0624
1356.5155
1383.7309
1205.8624
1667.3882
1614.5607
1829.1018
1873.5475
469.15902
468.30089
19790.501
19799.975
18146.556
17982.16
18541.572
18416.573
20316.821
20326.468
5287.3711
5218.5377
5296.153
5317.9789
19528.045
18996.718
19906.339
19892.286
18205.557
18026.653
5342.6088
5230.3549
5284.5218
5365.329
19308.217
19135.972
4837.9265
4750.1735
4786.4661
4855.9254
4798.6407
4723.4784
4773.8151
4814.8932
19060.415
5300.6948
5242.6066
5387.7133
5396.2125
19644.424
5300.3058
5270.3537
4799.0632
4757.7706
4904.8511
4904.9292
4835.6009
4810.0762
4849.4893
4335.1434
4296.2213
4352.1657
4372.4535
3918.0509
3828.2756
3857.8215
3938.7816
4360.2197
4328.8025
4379.7542
4405.7301
3934.9656
3833.2515
3869.7036
3960.3651
3981.0636
3964.9449
4029.2514
4035.105
4003.5129
3857.0876
3938.881
4062.71
4362.9717
4320.9401
4480.4341
4479.8369
4424.3626
4403.6492
4426.5785
4437.0249
5170.2579
5239.0167
5109.9588
5232.6969
5266.1073
5177.3132
5137.7909
5250.8802
4760.5893
4698.0294
4769.5806
4717.6511
4769.5877
4663.1672
4699.4912
4771.3518
18522.931
18518.958
16868.891
16929.689
20527.217
20546.509
18890.806
18714.149
18933.892
18750.517
20667.644
20647.483
19711.295
5546.3725
5431.3871
5463.4561
5474.2687
19862.699
19898.097
19859.806
18225.779
17998.394
18256.468
18117.192
19957.584
19951.687
5237.3273
5181.8133
5241.0102
5264.7077
19138.572
19085.359
4976.802
4899.2288
4866.2539
4913.2826
4733.415
4685.5545
4748.3669
4762.644
3941.2394
3888.1326
3911.9944
3957.9431
4351.9117
4290.2829
4311.5141
4359.923
4325.9538
4309.1926
4309.7635
4331.1123
3941.2963
3880.2454
3842.2902
3900.094
3834.7075
3793.8107
3869.9597
3899.9616
3832.5942
3828.4187
3952.6646
3931.6818
4457.5907
4362.2928
4356.0654
4410.5778
4306.0696
4248.6167
4291.3588
4326.2869
625.60821
1034.3466
1004.2868
776.49586
759.40477
1005.0874
1006.8255
763.61271
762.39931
611.46131
3550.9382
3460.5479
3443.2165
3539.7413
3084.5286
2881.774
2849.5309
3045.2328
3527.0189
3418.5337
3458.0383
3341.1575
3010.7219
2787.879
2736.9011
2941.8395
1490.6153
1496.8603
1733.6471
1715.6377
1576.9214
1612.6178
1863.7479
1802.1285
2508.0329
2240.6479
2179.9016
2451.323
2077.1841
2099.6212
2396.0578
2347.7603
1470.571
1505.1643
1727.8465
1684.8908
2342.4434
2074.8403
2043.6253
2312.8555
2344.4576
2082.4728
2361.9625
2113.4742
1724.3982
1510.4028
1732.7916
1497.9026
2921.4654
2710.5726
2699.066
2905.6949
3302.3261
3309.0645
3457.8627
3438.9329
3436.2858
3318.963
3339.9167
3452.8927
2935.7106
2734.4963
2756.4154
2938.0144
2736.0512
2718.5354
2936.9525
2942.2689
2764.37
2758.4332
2959.4659
2965.1141
3466.6409
3332.7072
3361.9905
3477.6674
3348.9296
3327.1859
3465.4263
3477.2437
1018.5163
1532.114
1769.5115
1733.9442
1502.6806
1004.4001
1488.5808
1708.4989
1704.07
1474.565
771.34315
764.04141
2070.7288
2056.2126
2331.3278
2334.7929
2107.2506
2124.9924
2388.4398
2367.7249
1031.8716
1542.1888
1761.95
1753.7916
1521.3848
1041.3852
1602.6376
1822.8905
1865.1026
1618.9656
785.98095
788.28194
2252.7888
2187.1717
2455.672
2499.2476
2137.223
2111.1765
2377.0169
2407.9519
3492.1072
3368.7704
3487.3012
3602.6534
2978.0892
2757.1358
2827.6009
3049.6362
2899.9007
2852.0608
3065.668
3087.6138
3597.7982
3466.4182
3492.2352
3602.5857
613.88021
623.6505
455.00181
456.7653
496.15729
739.67952
719.34024
727.48378
749.87866
2066.3417
2075.6753
369.3508
442.38311
442.03836
375.57766
2691.3069
2626.2878
2565.309
2528.6357
2733.3403
2629.5237
2538.724
2570.6506
2266.9501
2127.7152
2062.4104
2183.6393
2076.1862
2242.002
2195.3517
2073.1676
2682.1692
2758.0382
2612.8052
2574.6552
2740.1587
2682.9363
2605.5129
2598.0798
2088.4682
2126.9225
2288.7968
2222.2257
2116.7416
2273.6612
2266.027
2147.377
1848.1407
1657.8551
1595.8767
1766.8807
1205.0625
1244.933
1407.5445
1346.9536
690.71087
1341.1738
1186.4986
1191.7753
1338.5011
677.42648
1587.5531
1592.4996
1791.1359
1769.9084
547.24024
538.45979
1622.9831
1834.7721
1594.3348
1781.7276
1183.3033
1199.4452
1369.5694
681.38495
1335.9556
1230.6738
1200.4523
678.52258
1367.5752
1388.5944
1655.739
1617.4054
1824.0881
1837.3487
545.44563
543.18284
474.14769
472.19489
5336.9997
5303.9967
5228.7638
5235.5192
5183.719
5141.5443
5151.8877
5153.0918
4735.8644
4705.551
4671.831
4679.3943
4863.152
4827.7365
4730.2113
4741.4136
3776.4869
3908.4573
3990.2917
3847.309
3781.3056
3856.8918
3931.0029
3833.9399
4330.9108
4299.7173
4233.134
4247.1689
4260.0121
4383.4003
4426.7486
4291.7489
3794.3335
3803.6306
3866.6558
3847.9909
3831.4035
3802.456
3894.6526
3905.1424
4335.6591
4279.0488
4328.3113
4338.981
4266.3751
4243.4326
4258.1968
4258.913
4676.1021
4645.2092
4667.6744
4665.7243
4767.2966
4731.1228
4790.9908
4769.0402
5349.1296
5236.5995
5245.2608
5286.9839
5131.2694
5091.7261
5171.9006
5167.9045
5512.495
5550.6257
5449.2324
5553.5962
5272.9063
5541.7836
5300.1197
5536.6834
4983.9578
4927.4101
5043.2224
5026.048
5115.512
5097.6926
4862.2986
4907.6649
5397.8434
5335.3491
5384.3677
5286.481
5349.6501
5322.9574
5406.151
5361.9136
4864.7234
4802.9396
4841.6454
4881.2631
4849.4559
4804.4498
4869.7064
4860.0867
4024.4608
3949.8045
4047.5946
4094.4588
4509.2287
4448.1988
4533.4342
4559.9178
4722.8011
4740.5117
4507.079
4534.633
4332.7848
4269.4799
4083.1155
4132.3997
3893.8238
3889.8679
3972.6442
3964.4711
3893.672
3846.3606
3946.0913
3966.5437
4389.1274
4334.6873
4400.3483
4409.3308
4405.789
4365.5124
4388.9963
4417.1429
2721.763
2815.5949
3023.9512
2897.5788
2794.5943
2876.0135
3042.7185
2964.6443
3503.7534
3403.3048
3343.9224
3416.6125
3536.4758
3412.708
3286.3422
3394.0852
1061.7342
791.36413
772.23648
1025.9988
1620.8017
1654.3814
1871.8704
1810.5433
2254.1429
2504.0877
2416.1986
2187.2188
1747.9879
1535.1241
1535.0902
1721.5973
2083.8652
2133.9477
2417.6784
2333.1994
1021.4766
1539.5597
1547.7483
1743.3706
1739.911
1025.3972
1507.3284
1519.7317
1729.5233
1706.388
2356.4253
2084.0998
2068.8302
2325.7183
2106.5182
2098.8008
2356.9863
2347.9639
773.3166
769.82942
638.74966
622.08351
3440.6829
3321.7768
3322.678
3434.3143
2933.6884
2732.269
2717.6139
2911.7713
3438.6179
3327.1848
3311.6841
3409.5932
2940.1134
2736.619
2734.9603
2910.6424
1035.5955
1020.1865
780.28575
771.63414
1044.2336
793.0449
792.82624
1049.2631
624.29196
631.26616
2765.6409
2757.8106
2955.6863
2982.7461
2792.3986
2772.8334
2981.1725
2978.8853
3386.4409
3362.715
3486.6745
3495.0989
3516.2626
3387.4115
3370.8367
3489.697
1513.991
1524.13
1729.9455
1714.4199
1543.7338
1567.0047
1783.2737
1750.0158
2399.0372
2139.7036
2121.5605
2382.9481
2362.5117
2086.1544
2084.3134
2352.2768
1549.7205
1547.576
1762.8248
1756.7034
2141.9116
2129.2831
2407.703
2416.2656
2611.1621
2304.9958
2311.0847
2568.0196
1872.9343
1626.5583
1665.7979
1904.2695
2982.2536
3071.1969
3299.9571
3166.17
2840.8304
2799.0448
3014.3603
3049.0056
3564.5717
3413.1111
3480.6417
3604.4742
3585.5491
3741.5363
3870.5339
3690.1557
458.43547
458.14635
26570.487
26800.744
26713.775
27058.614
27644.184
27593.952
27542.28
27367.365
17537.718
16552.347
17005.335
18024
29092.528
29520.849
35882.776
35300.039
28413.324
27682.437
33912.417
34574.809
26918.561
26992.723
26996.922
27164.645
16854.973
16697.586
17673.43
17843.24
28759.481
29169.485
35527.877
34929.337
28745.567
28399.05
34754.735
35020.502
15038.089
14926.706
15799.917
15938.147
15134.848
14761.579
15639.363
16057.046
17642.701
28585.508
27858.624
34080.206
34773.876
16697.41
17256.569
18211.225
29053.521
29619.647
35957.201
35216.223
17651.232
16749.141
15819.606
14964.028
15529.408
16381.466
15917.702
15115.462
14955.362
13940.762
13141.77
13403.888
14263.191
12375.799
11597.29
11754.544
12584.992
14102.646
13279.015
13329.432
14182.866
12469.887
11639.149
11672.562
12508.538
12071.943
12079.739
12855.148
12792.638
12313.461
11780.964
12574.272
13131.066
14147.633
13349.371
13920.021
14724.979
13494.467
13598.538
14356.945
14219.942
17151.619
18087.533
16247.998
17122.43
17809.853
17613.523
16687.243
16831.643
15016.178
14977.765
15914.24
15822.623
15332.903
14623.539
15414.934
16214.651
27614.096
27554.751
28096.817
28181.496
27771.322
27873.805
27862.263
28104.469
28185.963
27981.72
28106.028
27754.313
18160.792
29976.357
29388.168
35878.438
36329.426
17257.084
17116.749
18312.319
29675.988
30401.083
36886.966
35897.295
26884.574
26832.292
27009.835
27081.254
27204.6
27121.68
27061.509
26834.324
17604.446
16599.842
16652.125
17653.456
28222.51
28697.033
35057.161
34365.569
28347.179
28334.686
34675.227
34529.717
16139.598
15179.934
15302.936
16269.814
15656.274
14736.767
14834.221
15727.026
12458.106
11737.549
11982.31
12819.307
13640.585
13161.484
13885.329
14483.027
14173.527
13373.68
13295.686
14153.313
12594.782
11794.821
11613.39
12465.088
11564.31
11381.157
12193.661
12365.388
11664.36
11559.105
12442.61
12560.716
14250.588
13332.931
13454.812
14374.18
13161.679
13006.769
13862.343
13990.924
617.7338
909.42912
858.00855
1390.8798
1104.9613
1085.9122
1372.8679
1311.0734
1038.9475
1034.4032
1302.9354
1321.8983
1046.6845
1038.4216
1304.2903
1307.836
1035.8116
1029.667
1291.8541
857.08999
854.99948
605.45616
10980.189
10137.857
10199.608
11125.779
9204.6601
8104.347
8041.1833
9196.2026
10966.557
10053.337
10749.842
9824.8321
9046.3703
7876.1461
7691.7707
8829.6125
2196.7347
2226.2579
3842.9316
3799.9412
2381.05
2498.3633
4219.5473
4031.6237
6861.8856
5508.3552
5343.6377
6737.7624
5075.7338
5156.7767
6557.2698
6419.5487
2127.9359
2206.3053
3815.5826
3695.5607
6394.1322
5059.8065
4961.4276
6319.7695
6377.2859
5027.2596
6552.0243
5160.785
3760.5504
2179.1243
3832.7807
2200.7305
8760.1701
7634.7063
7607.5478
8772.433
9799.9271
9748.6987
10673.5
10756.725
10569.774
9689.9056
9884.8382
10757.047
8730.8869
7618.6159
7814.7121
8929.295
7712.2637
7657.5231
8835.759
8886.0814
7809.3962
7825.6714
8951.9659
8979.8473
10793.718
9917.7954
9988.203
10907.32
9897.4817
9852.3073
10781.053
10819.066
1325.3874
1047.4441
1045.5736
1318.2731
2263.6854
3921.3836
3776.2698
2192.142
1304.3707
1031.8007
1028.7169
1291.9496
2136.4149
3704.0725
3721.087
2143.1898
873.96886
848.79633
5020.7471
4968.0016
6334.675
6392.3057
5097.7771
5198.5623
6545.0375
6486.9183
1350.949
1074.9408
1070.5197
1339.0995
2242.2167
3861.8202
3843.546
2234.7924
1405.6451
1117.2516
1121.2894
1403.4397
2353.3294
3954.2348
4150.7682
2464.1871
878.50466
904.06981
5519.8068
5262.7542
6693.1476
6951.2154
5207.2868
5141.2364
6510.5098
6676.5702
10958.145
10037.117
10481.025
11449.963
9011.9942
7818.702
8092.4771
9372.5191
8288.7988
8063.7253
9291.3381
9462.219
11260.799
10336.235
10448.735
11309.898
608.1219
617.53906
616.63887
604.8334
607.28041
615.75089
386.83606
377.48054
377.83253
387.22514
401.26528
457.02401
496.64586
498.03502
456.56788
654.41527
649.59007
695.17576
700.5761
1739.1377
1741.9786
400.57816
653.47254
4957.7421
4825.3852
4901.0982
4792.0617
4775.1412
4897.9035
370.22777
443.33002
442.85913
510.77511
472.71872
473.16425
511.75448
474.40774
471.62866
509.2783
512.40573
5035.1886
4984.764
5048.7046
5007.5517
5177.9112
5248.9243
5234.9592
5233.0775
4623.0178
4613.6514
4646.6245
4596.3194
4723.1789
4713.0604
4719.7946
4750.4224
5601.4382
5495.3824
5368.2463
5356.0827
5106.0817
5182.5866
5244.6621
5095.3189
4654.662
4730.0326
4757.0408
4625.3107
4833.5948
4929.0318
5022.0636
4849.615
4279.508
4269.8575
4277.1464
4240.989
3922.8767
3875.1377
3847.5763
3872.5997
3725.8042
3800.5303
3878.8087
3788.9568
4321.6536
4268.0061
4223.1588
4256.1342
3828.3319
3871.388
3990.1002
3902.1128
4336.6902
4399.594
4496.1401
4369.1685
4337.6468
4307.4001
4232.8888
4216.5111
3905.9565
3812.956
3771.0626
3810.2556
5416.9955
5358.3747
5347.4814
5346.356
5445.9151
5375.2316
5351.3396
5352.7946
4939.1084
4884.003
4861.5419
4858.0637
4905.4195
4851.8989
4842.4797
4841.6748
5443.0938
5365.5435
5365.6268
5364.7942
5171.3111
5265.2542
5294.13
5142.8129
4752.8787
4847.1475
4843.6085
4709.9845
4870.2472
4855.986
4918.1233
4870.7375
3876.2001
3893.1746
3977.1974
3931.6301
3936.2882
3894.9131
3999.7965
3984.5718
4471.1079
4398.1563
4411.5176
4415.3774
4363.6175
4378.6411
4438.2088
4383.1514
3937.4675
3893.3138
3990.9659
3988.5896
4448.4115
4384.6268
4411.8355
4421.1672
4462.9079
4467.1225
4355.367
4327.501
4067.121
4001.2402
3905.7771
3942.1523
3525.782
3447.6339
3384.8667
3455.8025
3047.5465
2891.1418
2841.809
2988.9997
2704.3773
2744.9986
2941.6651
2840.7862
3432.1452
3321.2518
3224.1206
3321.9727
1057.4465
1584.6433
1608.5498
1780.3039
1741.3755
1086.6693
1679.1201
1730.6315
1911.6358
1840.7539
2228.4008
2295.9042
2516.6119
2440.9739
2370.8855
2141.4888
2107.5565
2319.5926
807.42361
787.8436
2372.7877
2123.7983
2095.1832
2326.3485
1049.5518
1742.7336
1557.1764
1548.2428
1716.3207
1041.1806
1576.1454
1585.0396
1762.7241
1747.3574
2360.4921
2125.0935
2116.3764
2329.3483
786.12856
780.02347
2950.1597
2766.0509
2714.5578
2884.3
2708.9523
2731.921
2859.9516
2906.4976
3295.4705
3344.7732
3486.112
3412.6541
3294.127
3429.762
3368.0821
3256.2172
658.68596
638.88224
2823.291
2805.9332
2998.5427
2999.4918
3383.8563
3518.1064
3520.9219
3419.2601
2965.788
2770.2657
2763.6992
2948.158
3365.0672
3389.7108
3512.4672
3463.182
1038.8381
1553.8847
1566.5023
1738.4262
1757.2244
1056.2429
1584.8131
1606.5388
1804.8668
1771.6139
2155.2028
2169.9442
2419.5157
2403.2189
789.26246
778.00623
2118.0874
2378.3311
2356.163
2110.9125
1068.8549
1694.0919
1674.3015
1889.0042
1870.9391
1061.5558
1584.3188
1599.6174
1773.2429
1785.9985
799.51386
798.7894
2144.2765
2394.8094
2415.3137
2161.4265
2258.2568
2509.1386
2508.796
2290.2263
2904.6947
2909.9943
3096.7566
3037.2705
2829.3999
2774.4497
2973.1776
3002.9299
3509.7628
3362.3016
3422.5742
3525.6365
3432.8146
3501.4695
3618.0222
3513.0666
639.40718
643.47207
463.41
461.56032
18075.24
17123.276
16754.633
17727.737
17427.631
16557.972
16888.868
17846.376
15741.011
14938.356
15086.739
15979.799
16221.551
15332.399
14951.026
15844.345
11573.146
11908.222
12760.775
12400.418
11690.677
11884.499
12654.592
12518.189
14167.18
13404.114
13353.445
14216.06
13231.572
13604
14467.46
14089.093
11704.637
11736.261
12558.114
12481.637
11847.766
11616.283
12432.491
12722.37
14079.568
13241.851
13589.054
14475.123
14174.494
13359.589
13254.403
14058.105
14877.487
14999.945
15857.889
15735.711
15363.53
14932.887
15826.693
16278.761
17745.697
16752.688
17214.772
18209.248
16623.364
16738.7
17681.141
17581.03
18194.283
18750.213
17218.516
17779.533
17642.733
18688.901
16798.311
17801.076
16305.091
15414.839
16856.601
15942.593
16183.381
16983.077
16024.278
15274.455
17967.476
17866.254
16977.668
16913.055
17367.351
16850.555
17841.275
18350.685
15168.751
15156.229
16024.666
16058.002
15549.309
15023.844
15922.311
16447.156
12421.457
12071.115
12910.116
13307.242
14565.05
13729.364
14174.548
15055.085
15434.876
14678.043
14563.491
13859.12
13915.921
13111.419
12432.116
13164.085
11880.588
11883.27
12709.208
12694.133
12109.07
11710.811
12511.205
12966.134
13811.557
13316.772
14160.987
14678.731
14332.546
13514.88
13497.195
14327.019
7804.5672
7988.8599
9151.0385
8922.8402
7957.1659
8224.1057
9324.0284
9065.9913
11101.234
10254.533
9998.2022
10865.516
11053.282
10144.554
9872.3792
10746.098
1123.6286
1142.5794
1422.023
1406.9864
943.98918
887.40529
1072.0332
1338.9703
1336.6288
1065.9489
2459.5964
2601.9633
4245.5542
4044.1042
5565.1414
6956.6696
6698.6188
5327.985
3889.7634
2326.2667
2293.0572
3860.4125
5150.5072
5232.4166
6660.0183
6520.7184
1345.8616
1070.3376
1061.5661
1328.8396
2299.7049
2275.7538
3819.2781
3933.8884
1051.9292
1058.2705
1323.5677
1314.9961
2206.4971
2269.492
3857.4895
3792.366
6498.9352
5129.3436
5092.8303
6491.6906
5241.1098
5088.7462
6460.8772
6630.7515
881.82235
875.53802
631.03996
616.63702
10791.013
9895.5929
10020.959
10963.146
8919.5725
7778.1556
7812.0129
8996.0662
10893.223
9963.9282
10048.49
10915.494
8942.3083
7761.8727
7928.1923
9074.4072
1348.9534
1070.4432
1068.9495
1345.2261
1329.0563
1054.4847
1050.0527
1317.4699
897.35879
867.39734
1084.6393
1086.2626
1357.7709
1356.5198
893.59886
916.0342
1139.3337
1133.0243
1423.5138
1430.4373
620.15741
626.04166
7905.2187
7863.0306
9102.5311
9077.594
7998.9299
7896.1746
9036.6202
9214.2548
10264.907
10007.014
10892.179
11223.306
11034.554
10104.285
10122.236
11041.32
2232.4233
2215.1711
3785.4347
3823.19
2294.003
2365.7739
3984.4849
3877.0079
6622.088
5257.7136
5201.657
6630.8932
6506.8428
5079.3451
5136.858
6549.304
2317.6908
2312.7046
3927.0686
3904.9498
5248.0804
5258.23
6679.071
6710.2077
7447.9384
5808.0836
5766.7646
7231.6318
4259.1046
2514.4134
2656.2927
4383.0132
8589.7137
8924.9118
10206.886
9778.5678
8115.1249
8020.8697
9222.3378
9383.3671
11204.246
10260.435
10487.771
11491.961
10778.201
11286.591
12248.762
11653.901
625.14342
611.82238
614.33354
621.1015
41436.929
42227.363
57792.547
58772.255
59662.231
59475.027
43407.373
42950.258
24535.927
24086.913
24710.408
25036.939
22750.189
22799.679
23359.282
23193.191
24075.326
24496.912
24340.602
23883.346
26198.037
25814.596
25384.437
25707.346
105556.73
106255.26
110850.54
110615.23
104591.62
102582.78
107982.11
109613.64
42349.878
42728.301
58814.924
59359.16
23864.422
24185.891
24038.08
23658.369
23346.649
23449.631
23712.256
23515.954
25154.622
24721.648
24996.814
25337.268
25876.313
25486.555
25117.65
25437.026
105151.41
106205.37
111156.13
110342.28
105630.57
104743.51
110097.53
110847.84
21706.531
21925.935
21760.588
21484.51
21607.399
21302.014
21140.874
21336.858
22166.176
22325.21
22600.236
22331.823
22832.548
23025.384
22763.762
22505.621
21806.25
22166.401
22001.153
21593.518
20541.778
20671.794
21167.155
20925.885
21561.588
21677.109
22194.856
21964.279
23109.074
23300.212
22903.476
22663.579
24711.563
24291.15
24939.335
25232.401
105832.76
103625.08
109097.09
110923.05
22951.173
23047.267
23683.249
23451.584
24244.843
24703.434
24521.383
24021.478
26335.36
25978.065
25462.682
25764.354
105644.39
107215.86
111830.35
110720.8
24793.683
24421.263
24749.528
25014.325
23123.347
23277.919
23614.815
23359.653
21825.49
21993.27
22632.614
22321.155
20831.04
20958.226
21587.18
21333.247
22196.855
22560.478
22336.727
21926.893
23350.026
23594.415
23183.921
22903.362
22079.336
22278.84
22616.497
22317.615
21603.193
21282.902
21125.329
21355.22
20589.821
21617.363
21424.075
20405.381
19586.224
19778.361
20223.296
19925.33
18756.446
18916.505
19313.959
19055.619
19773.317
20060.215
19908.298
19576.383
20902.075
21095.902
20776.705
20535.436
17917.503
18131.825
18512.188
18192.347
17195.165
17471.368
17848.736
17474.778
18107.707
18375.26
18087.669
17806.67
18919.397
19136.284
18869.516
18619.849
20174.958
20404.459
20691.422
20367.387
19334.028
19506.25
19759.387
19508.976
19694.556
19885.676
19734.726
19498.1
20694.8
20895.406
20698.826
20450.484
18440.008
18650.501
18869.552
18578.45
18034.806
17873.287
17635.583
17758.669
17985.317
18137.275
17892.706
17702.312
18752.752
18949.418
18778.368
18533.968
17690.769
18501.958
18136.181
17376.906
18498.563
18099.316
17796.849
18100.137
18509.514
18757.087
19153.453
18801.417
18792.677
19096.981
18252.58
17988.494
18999.842
19047.124
18720.018
18580.152
18285.689
17629.714
17357.728
17854.191
18068.444
18290.593
18891.28
18541.129
19518.332
19790.747
19636.086
19291.178
19845.008
20017.852
20581.926
20320.394
18955.329
19061.525
19637.056
19404.221
20406.043
20622.219
20410.671
20139.913
21322.392
21563.697
21291.962
20986.482
18931.655
19814.676
19600.582
18737.842
19330.948
19500.884
19874.009
19596.196
20180.596
20375.774
20711.875
20418.334
20452.619
20682.234
19733.377
19534.382
23076.52
22578.691
23515.612
23867.029
25932.381
25576.987
24785.691
25085.022
21396.781
21379.716
22207.341
22079.925
23532.24
24295.756
24132.492
23338.945
25218.922
24821.046
24544.202
24871.041
24382.74
23960.627
24002.087
24323.795
22704.444
22804.443
22791.076
22621.269
23249.109
23574.884
23444.824
23076.434
21114.942
21460.913
21290.861
20908.909
20880.052
20889.785
20715.069
20621.783
22307.473
22481.066
22129.905
21919.182
21637.331
21792.094
21766.733
21531.299
21449.302
22078.251
21889.542
21231.554
19324.14
19390.517
20097.47
19951.067
20284.547
20289.106
21053.338
20925.202
22943.852
23128.811
22433.845
22204.291
60055.591
59581.439
60504.339
60982.939
43555.97
44054.638
60236.497
60771.364
60718.342
60005.098
44420.621
43499.34
26065.709
25615.221
26157.016
26453.579
108169.79
107315.4
112231.57
112780.33
24580.461
25232.76
25070.996
24375.856
24151.482
24245.981
24754.287
24521.064
27012.605
26620.389
25934.793
26255.84
106925.35
108402.76
112658.36
111527.99
42253.168
42252.745
58670.916
58936.784
59148.321
58640.347
42656.315
42030.288
25140.338
24723.169
24668.659
25003.597
23351.278
23464.647
23358.136
23188.841
23245.046
23680.033
23578.291
23090.442
25429.569
25002.007
24535.592
24897.259
103606.01
104778.75
110023.37
109004.77
104162.75
104477.08
109729.69
109606.66
22905.304
23070.847
23544.245
23243.421
21792.145
21916.544
22319.579
22099.607
22207.835
22792.186
22614.264
21980.914
23770.846
23978.797
23350.38
23104.697
22177.614
22321.211
22196.99
21977.367
21057.496
21180.948
21089.041
20894.311
21110.673
21481.623
21329.569
20908.388
22360.834
22538.232
22132.803
21908.898
17121.863
17317.595
17831.927
17547.419
16587.506
16842.076
17296.531
16954.094
18052.951
18585.943
18251.856
17737.326
19022.484
19273.395
18739.279
18471.104
19541.64
20095.207
19909.164
19356.269
17767.877
17906.392
18455.384
18246.177
18498.973
18574.514
19198.155
19037.061
20854.765
21037.036
20470.677
20268.535
19856.561
20091.667
20047.131
19749.199
19104.151
19298.913
19235.041
18972.458
19221.927
19602.304
19407.851
19007.879
20300.258
20504.741
20123.086
19919.626
18327.233
18608.232
18518.993
18188.793
17931.682
18023.501
17704.035
17551.561
17729.793
18117.716
17815.426
17395.465
18544.079
18813.116
18415.883
18137.352
17687.414
17891.044
17639.668
17380.297
17499.001
17451.281
17231.251
17182.519
18025.659
18206.561
18195.512
17940.291
18437.02
18653.013
18395.491
18138.179
18310.292
18563.961
18340.641
18012.253
18078.507
17797.792
17598.101
17811.626
18537.45
18658.6
18944.027
18713.574
19283.877
19479.052
19130.972
18861.651
20679.779
20828.688
21122.611
20900.381
19625.048
19686.982
19951.82
19789.431
20062.761
20497.112
20351.314
19857.793
21435.513
21614.723
21112.187
20869.821
19219.964
19508.34
19365.688
19031.674
18990.306
19079.763
19030.441
18864.032
19989.225
20112.673
20015.552
19822.331
20296.022
20479.445
20155.124
19927.239
981.53752
928.80984
935.2577
895.26459
1186.9078
1158.9425
1107.2391
1114.2674
1794.1832
1754.3804
1660.0119
1646.9923
1653.9908
1111.4552
1102.5234
1642.1613
1644.9998
1105.3153
1089.9869
1614.2959
886.09275
891.55286
919.72733
925.56896
16132.398
16468.369
16851.582
16433.893
15776.774
16204.176
16516.207
16023.924
17030.548
17612.622
17165.461
16587.4
17649.244
18064.52
17488.393
17108.58
15497.474
16046.434
16311.844
15706.361
15276.236
15785.836
15922.59
15430.441
16009.548
16639.721
16345.596
15703.955
16764.662
17289.956
16682.239
16181.115
17152.85
17574.009
17485.019
17011.061
16736.426
17186.525
17095.724
16611.888
17164.432
17569.87
17140.448
16737.885
16607.337
17063.544
16675.101
16204.868
16339.902
16872.903
16716.704
16187.126
15939.993
16216.918
15954.086
15691.017
15358.102
15763.575
15590.744
15105.26
16175.135
16617.967
16151.976
15705.935
4151.4811
4329.3287
6235.1202
6018.9137
4176.0504
5994.846
4531.6262
6567.7305
10650.246
10639.204
10278.316
10395.22
10286.002
10431.026
10579.496
10447.222
4776.752
6923.1839
4733.1306
6711.7378
5440.1527
7557.0484
7092.0398
4981.7406
11550.22
11704.035
11448.359
11215.308
10803.989
11128.969
11135.444
10674.924
14732.495
14881.621
14750.82
14717.666
13360.786
12915.079
12666.039
13105.082
12265.751
12780.882
13512.04
12843.819
14536.361
15201.956
15400.037
14695.59
11950.548
11973.373
12550.042
12369.533
13021.363
12312.432
12016.545
12601.738
14324.821
14730.533
14927.823
14546.264
13952.895
14194.724
14437.647
14053.936
5811.6644
3981.9311
5835.6604
3944.8725
6092.1125
4516.8772
6538.4546
4139.7827
10377.608
10610.063
10566.137
10423.233
10075.866
9922.2098
10216.651
10349.35
14066.708
14176.551
14256.119
14164.708
12593.651
12056.954
11947.671
12430.669
11922.206
11630.738
12263.254
12441.29
14101.465
13875.743
14144.148
14265.636
13623.957
13851.793
13955.572
13719.622
12331.477
11850.794
11556.101
11993.984
14345.224
14202.78
14294.686
14306.529
12342.603
12149.932
12623.867
12713.365
9968.2244
10293.652
10159.224
10018.564
4175.9772
6020.3134
4108.3557
5810.6874
10585.377
10391.101
10801.073
10750.266
6339.8973
4235.1147
6140.7577
4416.938
15603.473
16063.621
16242.096
15781.48
15139.535
15442.887
15482.368
15207.71
15642.539
15466.913
15354.495
15419.14
16055.91
16410.836
16523.495
16076.965
17065.275
17036.536
16742.911
16638.793
16143.813
16490.801
16762.232
16359.729
16808.749
17056.746
17343.174
17015.398
17471.548
17744.291
17632.556
17261.864
16539.171
16844.284
16926.881
16542.923
15983.233
16326.273
16379.593
16005.597
16584.112
16734.428
16390.255
16170.441
16951.323
17289.302
17082.749
16731.864
15469.084
15838.22
15849.716
15455.624
15035.932
15154.358
14943.452
14837.1
15596.491
15551.36
15320.186
15241.135
15859.243
16279.407
16220.305
15715.969
15493.663
15559.529
15369.101
15229.735
15365.153
15428.813
15233.527
15156.675
15800.308
16230.425
16268.791
15828.689
15987.536
16407.214
16327.832
15856.759
15789.092
15888.943
15683.528
15504.981
15260.656
15552.37
15677.904
15354.142
15688.379
16183.733
16388.716
15872.092
16268.026
16709.893
16574.495
16076.603
16596.058
16960.101
17261.934
16867.895
16129.437
16512.009
16790.51
16348.872
17014.436
17195.064
16818.723
16573.242
17393.115
17741.652
17511.187
17129.485
16812.38
16907.507
16544.699
16396.359
16327.581
16694.26
16799.917
16395.95
16925.286
17238.968
17363.038
17012.901
17147.705
17463.116
17347.216
16989.035
1674.4244
1122.7182
1112.9773
1653.5627
4641.812
6661.065
6387.3875
4467.9384
10822.922
10851.501
10567.085
10580.039
10439.756
10129.704
10223.452
10468.714
4321.5412
6187.061
5893.3628
4102.6189
1626.6413
1100.9486
1096.1507
1616.112
3973.3942
4186.5778
5984.1267
5711.3037
9875.6565
10122.841
9936.8699
10000.685
10324.761
10036.319
10308.13
10336.122
6012.2236
4062.2922
5873.6562
4204.5942
909.07159
885.85594
11924.166
11884.423
12416.453
12362.286
12278.832
11650.813
11552.792
12066.124
13724.115
13898.162
14109.115
13923.722
13989.418
14012.224
14213.713
14097.72
12092.556
12097.852
12720.299
12602.39
12769.732
12290.205
12156.226
12609.719
14233.758
14268.367
14338.196
14317.442
14270.364
14345.252
14562.74
14404.948
1694.6543
1144.0707
1140.8595
1692.1326
4463.1326
6358.6621
6183.9949
4389.5268
10532.99
10497.982
10396.474
10425.523
10561.011
10287.244
10504.086
10579.583
6249.5934
4365.4016
6169.7785
4468.1531
1787.1078
1191.9876
1196.9248
1812.8638
4699.4834
4478.3262
6342.3096
6377.6363
10323.411
10610.107
10478.615
10372.028
11342.736
11167.358
11304.144
11243.893
7095.5495
4941.0372
6917.4271
5228.7065
923.19811
944.82947
12892.193
13001.994
13502.617
13275.837
12846.663
12199.085
11964.848
12491.701
14202.833
14525.844