/*--------------------------------*- C++ -*----------------------------------*\
  =========                 |
  \\      /  F ield         | OpenFOAM: The Open Source CFD Toolbox
   \\    /   O peration     | Website:  https://openfoam.org
    \\  /    A nd           | Version:  7
     \\/     M anipulation  |
\*---------------------------------------------------------------------------*/
FoamFile
{
    version     2.0;
    format      ascii;
    class       volVectorField;
    location    "9000";
    object      U;
}
// * * * * * * * * * * * * * * * * * * * * * * * * * * * * * * * * * * * * * //

dimensions      [0 1 -1 0 0 0 0];

internalField   nonuniform List<vector> 
34387
(
(-3.1746592e+52 -2.1993592e+51 3.3297133e+51)
(-3.2594889e+52 -3.1170887e+50 3.5959835e+51)
(-2.9954509e+52 -1.888913e+51 -3.3074777e+50)
(-3.0035822e+52 -7.2209947e+50 -3.0127751e+50)
(-4.5294771e+52 6.6913589e+50 1.4448543e+51)
(-3.2245998e+52 -7.0147478e+50 3.4729031e+51)
(-3.1519354e+52 -2.4542718e+51 3.1997393e+51)
(-2.9853963e+52 -2.0895618e+51 -6.7438599e+50)
(-2.998452e+52 -7.201958e+50 -6.5804695e+50)
(-2.5218004e+52 -1.4664583e+51 -1.7190281e+51)
(-2.5352069e+52 -1.1220515e+51 -1.8033886e+51)
(-2.9080394e+52 -9.4282198e+50 3.0557683e+50)
(-2.8154075e+52 -1.9148705e+51 -1.4171064e+50)
(-2.7439983e+52 -1.811165e+51 -2.9160254e+51)
(-2.719105e+52 -1.1998629e+51 -3.0042913e+51)
(-2.8947851e+52 -1.1468964e+51 3.5164198e+50)
(-2.5015807e+52 -1.5974492e+51 -1.8022268e+51)
(-2.513793e+52 -1.2008627e+51 -1.743271e+51)
(-2.8046002e+52 -2.213189e+51 -1.7228492e+50)
(-2.7091919e+52 -1.994675e+51 -2.9728447e+51)
(-2.6916807e+52 -1.2851763e+51 -3.1003945e+51)
(-3.4483216e+52 -4.6163949e+50 4.7765288e+51)
(-2.8233782e+52 -1.0789343e+51 1.9435515e+51)
(-2.4086263e+52 -2.0584305e+51 2.2228671e+50)
(-2.4807097e+52 -1.6647622e+51 8.0987442e+49)
(-2.837886e+52 -2.2932293e+51 1.6805608e+51)
(-2.8973508e+52 -9.657436e+50 1.8446141e+51)
(-2.4806591e+52 -1.9048795e+51 6.591861e+49)
(-2.4715743e+52 -1.4159114e+51 8.2989085e+49)
(-2.8515854e+52 -2.3219706e+51 1.7119291e+51)
(-3.3712582e+52 -1.6106883e+51 4.8533906e+51)
(-2.4876863e+52 3.9895986e+50 -5.0381411e+51)
(-2.4679142e+52 -1.0354775e+51 -4.9273729e+51)
(-3.848405e+52 -7.9305221e+50 -4.731207e+51)
(-3.209719e+52 -9.8495516e+50 3.0785359e+51)
(-3.1111788e+52 -2.7889832e+51 2.8083887e+51)
(-2.9642522e+52 -2.2097511e+51 -1.2894486e+51)
(-2.9816135e+52 -6.688699e+50 -1.2342791e+51)
(-2.8339352e+52 5.8950776e+50 3.5995521e+51)
(-2.8051652e+52 -1.5584493e+51 3.4294666e+51)
(-2.4932362e+52 -1.5467839e+51 -4.0995649e+51)
(-2.5069805e+52 -1.6282864e+50 -4.6248269e+51)
(-2.7775715e+52 -1.9473212e+51 8.4122139e+50)
(-2.6303399e+52 -2.6585177e+51 -2.52351e+51)
(-2.6169754e+52 -1.9222587e+51 -2.8332354e+51)
(-2.6991095e+52 -2.9722692e+51 3.8166917e+49)
(-2.7528751e+52 -2.4197394e+51 2.0403334e+49)
(-2.8275412e+52 -1.5582344e+51 4.7569665e+50)
(-2.6657681e+52 -1.6667652e+51 -2.9331162e+51)
(-2.6717701e+52 -2.393631e+51 -2.7606402e+51)
(-2.8082583e+52 -1.5336889e+51 2.225803e+51)
(-2.4032984e+52 -2.5253898e+51 -1.1906267e+49)
(-2.4242132e+52 -1.9560967e+51 -8.3371521e+49)
(-3.4660328e+52 -5.1041509e+50 4.6755979e+51)
(-2.7672005e+52 -2.8468909e+51 1.8092533e+51)
(-3.3885498e+52 -1.5788727e+51 4.6398128e+51)
(-2.8456618e+52 -1.4200834e+51 1.9975464e+51)
(-2.427065e+52 -2.3006399e+51 -5.9765239e+49)
(-2.4224748e+52 -1.5966849e+51 2.1762725e+48)
(-2.8048547e+52 -2.7138892e+51 1.8561739e+51)
(-2.5145342e+52 1.1229833e+50 -5.3369121e+51)
(-2.4862891e+52 -1.2818118e+51 -5.2820777e+51)
(-2.2124321e+52 -1.0812167e+51 -1.2533986e+50)
(-2.2172674e+52 -1.3414608e+51 -2.3627042e+50)
(-2.5815395e+52 -1.0659077e+51 -2.7024721e+50)
(-2.1947492e+52 -1.1349804e+51 -1.5524511e+51)
(-2.1766952e+52 -1.3488571e+51 -1.3843898e+51)
(-2.2124836e+52 -1.000181e+51 -1.8904947e+50)
(-2.5767211e+52 -1.6061335e+51 -4.1745053e+50)
(-2.1919096e+52 -1.0243872e+51 -1.5834738e+51)
(-2.1797013e+52 -1.2570701e+51 -1.5372019e+51)
(-2.5038088e+52 -1.0319876e+51 -1.8935855e+51)
(-2.4911865e+52 -1.4610481e+51 -1.8558587e+51)
(-2.1876346e+52 -1.2347185e+51 -1.418556e+51)
(-2.5662677e+52 -1.0454136e+51 -3.9907679e+50)
(-2.1995811e+52 -1.0429812e+51 -1.5575641e+51)
(-2.5372587e+52 -1.4153022e+51 -4.5000004e+50)
(-2.4943721e+52 -1.4621346e+51 -2.1401028e+51)
(-2.4845341e+52 -9.3672206e+50 -2.2665526e+51)
(-2.5849856e+52 -1.0415312e+51 -2.2231147e+50)
(-2.4554727e+52 -1.5068431e+51 -2.5557265e+51)
(-2.5773179e+52 -1.5432492e+51 -3.6344607e+50)
(-2.4682165e+52 -1.088109e+51 -2.580539e+51)
(-2.4496401e+52 -9.9829187e+50 -2.5675171e+51)
(-2.4605563e+52 -1.4777158e+51 -2.4318597e+51)
(-2.5852812e+52 -9.5592854e+50 -2.0204145e+49)
(-2.5459025e+52 -1.4669865e+51 -5.7135657e+50)
(-2.5582454e+52 -1.3132738e+51 -3.6143525e+50)
(-2.5721376e+52 -1.7898418e+51 -4.1453501e+50)
(-2.5157916e+52 -1.1662367e+51 -1.8905257e+51)
(-2.4801952e+52 -1.650094e+51 -2.1379e+51)
(-2.1422406e+52 -1.1173292e+51 -9.5221376e+50)
(-2.2055426e+52 -1.2411568e+51 -2.2874924e+50)
(-2.20737e+52 -1.4366618e+51 -3.2519931e+50)
(-2.1693649e+52 -1.4829716e+51 -1.4991977e+51)
(-2.5438224e+52 -1.1928852e+51 -4.3624669e+50)
(-2.1789717e+52 -1.214011e+51 -1.6400309e+51)
(-2.214078e+52 -1.0906707e+51 -1.3828411e+50)
(-2.2180214e+52 -1.3839134e+51 -1.943554e+50)
(-2.5339762e+52 -1.5613324e+51 -5.3213783e+50)
(-2.1924252e+52 -1.1906407e+51 -1.4979712e+51)
(-2.180453e+52 -1.3326797e+51 -1.3895321e+51)
(-2.4680666e+52 -1.6225104e+51 -2.3584017e+51)
(-2.4866511e+52 -1.0608373e+51 -2.1599174e+51)
(-2.4472819e+52 -1.6744184e+51 -2.1265853e+51)
(-2.5896018e+52 -1.1246401e+51 -3.9812935e+48)
(-2.5947232e+52 -1.6847193e+51 -2.3014677e+50)
(-2.473514e+52 -1.2077259e+51 -2.1510295e+51)
(-2.4593511e+52 -1.1160521e+51 -2.3758935e+51)
(-2.4343215e+52 -1.5720656e+51 -2.6775882e+51)
(-2.5532911e+52 -1.087102e+51 -5.1220529e+50)
(-2.5562838e+52 -1.6281855e+51 -1.5580061e+50)
(-2.0413644e+52 -9.517686e+50 -2.3389685e+51)
(-2.8129224e+52 -1.4090306e+51 4.2853235e+51)
(-2.8080026e+52 -2.1567064e+51 4.1937854e+51)
(-2.0088771e+52 -2.0675734e+51 -2.4460986e+51)
(-2.5762397e+52 -1.3754213e+51 -3.8862656e+50)
(-2.3785684e+52 -2.0131184e+51 -2.5851522e+51)
(-2.569273e+52 -1.786849e+51 -6.3289478e+50)
(-2.3881109e+52 -1.3001547e+51 -2.6401823e+51)
(-2.2100561e+52 -1.8896554e+51 -3.1583265e+50)
(-2.1962036e+52 -2.294046e+51 -3.5010011e+50)
(-2.5517074e+52 -1.4051323e+51 9.8848514e+50)
(-2.5269088e+52 -2.1137651e+51 7.5832544e+50)
(-2.2521751e+52 -2.1641653e+51 -3.7823438e+50)
(-2.6258115e+52 -1.3098171e+51 1.1346265e+51)
(-2.619574e+52 -2.1263185e+51 1.1907191e+51)
(-2.2646237e+52 -1.599112e+51 -3.0151572e+50)
(-2.4057512e+52 -1.6849046e+51 -2.4931943e+51)
(-2.5457932e+52 -1.0742569e+51 -7.2269481e+50)
(-2.5457201e+52 -1.6135462e+51 -7.2880386e+50)
(-2.4524692e+52 -1.2976101e+51 -2.1981984e+51)
(-2.430604e+52 -1.2159574e+51 -2.4213725e+51)
(-2.4243384e+52 -1.762758e+51 -2.4906775e+51)
(-2.5856168e+52 -1.1302971e+51 -5.244889e+50)
(-2.5764701e+52 -1.7265743e+51 -5.9196201e+50)
(-2.2626283e+52 -2.1365342e+51 -4.4829713e+50)
(-2.2680491e+52 -1.6893186e+51 -4.3897172e+50)
(-2.8563426e+52 -1.0599805e+51 4.3061342e+51)
(-2.6196989e+52 -2.0402285e+51 9.4031842e+50)
(-2.6382045e+52 -1.2436361e+51 1.0585936e+51)
(-2.2671608e+52 -1.9870062e+51 -3.6125279e+50)
(-2.2535271e+52 -1.5445994e+51 -4.0803851e+50)
(-2.7894787e+52 -1.5799656e+51 4.3919627e+51)
(-2.6220272e+52 -2.0705655e+51 1.0138763e+51)
(-2.641677e+52 -1.266338e+51 1.1367703e+51)
(-2.5733795e+52 -1.0810924e+51 -6.1215566e+50)
(-2.4284617e+52 -1.6804882e+51 -2.4012693e+51)
(-2.4360495e+52 -1.2554906e+51 -2.3454003e+51)
(-2.5447719e+52 -1.5633767e+51 -8.386532e+50)
(-2.0041204e+52 2.6081001e+50 -2.2596511e+51)
(-2.0003391e+52 -6.8911913e+50 -2.0346102e+51)
(-2.7253689e+52 7.7568768e+50 -9.6924497e+50)
(-2.6893851e+52 -1.604744e+51 -8.4817657e+50)
(-3.6980468e+52 5.7414499e+50 3.7007975e+50)
(-3.7516453e+52 -8.3247981e+50 1.4317623e+51)
(-3.8633213e+52 -6.6991363e+50 -4.8615878e+51)
(-2.5514583e+52 -3.2397775e+51 1.0267036e+51)
(-2.4972018e+52 -4.2176235e+51 1.7358571e+50)
(-2.4313436e+52 -3.3236159e+51 -2.4767199e+51)
(-2.4677474e+52 -2.5488957e+51 -2.7650622e+51)
(-2.6748546e+52 -2.6617355e+51 7.5856694e+50)
(-2.606715e+52 -3.3652529e+51 1.2484652e+50)
(-2.5261928e+52 -3.1739371e+51 -2.6233661e+51)
(-2.5558106e+52 -2.194263e+51 -2.7857469e+51)
(-2.6969175e+52 -1.7804434e+51 2.4089732e+51)
(-2.3008934e+52 -2.8221528e+51 -9.899853e+49)
(-2.3408302e+52 -2.0632244e+51 -1.6458131e+50)
(-2.6495251e+52 -3.223639e+51 1.873441e+51)
(-3.5091764e+52 -5.5872513e+50 4.3947733e+51)
(-2.741643e+52 -1.8707503e+51 2.0922173e+51)
(-2.3327419e+52 -2.667653e+51 -1.9093326e+50)
(-2.3444833e+52 -1.8765818e+51 -1.4879197e+50)
(-2.7029053e+52 -3.0879977e+51 1.8511699e+51)
(-3.4240072e+52 -1.5501936e+51 4.4260785e+51)
(-2.5342296e+52 -3.9054146e+49 -5.7726366e+51)
(-2.499923e+52 -1.4298574e+51 -5.7284398e+51)
(-2.4404507e+52 -2.6573829e+51 -2.7558838e+50)
(-2.4411405e+52 -2.1168879e+51 2.5700834e+49)
(-2.3337242e+52 -2.3202249e+51 -1.8882088e+51)
(-2.3745691e+52 -1.8099001e+51 -2.0486065e+51)
(-2.319782e+52 -1.7747412e+51 -2.2651719e+51)
(-2.2785955e+52 -2.1241479e+51 -2.1582032e+51)
(-2.4233059e+52 -1.6659365e+51 3.1804e+50)
(-2.4302848e+52 -2.3292813e+51 -8.4223843e+49)
(-2.3443727e+52 -1.6080384e+51 -2.1508946e+51)
(-2.3298647e+52 -2.1141879e+51 -2.2639485e+51)
(-2.4718376e+52 -1.6045248e+51 1.9457537e+50)
(-2.4566074e+52 -2.2085486e+51 1.4402783e+50)
(-2.4084378e+52 -1.6848918e+51 -1.8671396e+51)
(-2.3870816e+52 -2.1879554e+51 -1.9962972e+51)
(-2.4582445e+52 -1.8717477e+51 -4.6399128e+50)
(-2.4343725e+52 -2.2629848e+51 -6.4729084e+50)
(-2.5076657e+52 -1.4376665e+51 -2.2074237e+50)
(-2.5143981e+52 -1.8618577e+51 -2.9410248e+50)
(-2.421584e+52 -1.8393787e+51 -2.1865071e+51)
(-2.4466421e+52 -1.3372108e+51 -1.6767752e+51)
(-2.4912684e+52 -2.1458919e+51 -3.998894e+50)
(-2.4952869e+52 -1.6413499e+51 -2.4278493e+50)
(-2.4301628e+52 -1.4987494e+51 -2.1265946e+51)
(-2.4067879e+52 -2.0236758e+51 -2.1106941e+51)
(-2.3830003e+52 -1.8084826e+51 -2.4333092e+51)
(-2.507583e+52 -1.3365874e+51 -2.3655336e+50)
(-2.4972144e+52 -1.8068363e+51 -4.2421605e+50)
(-2.3969141e+52 -1.3404843e+51 -2.507823e+51)
(-2.3930433e+52 -1.5162758e+51 -2.3217834e+51)
(-2.3649441e+52 -1.9366296e+51 -2.3330768e+51)
(-2.5024203e+52 -1.480285e+51 4.1486969e+48)
(-2.502922e+52 -2.0602345e+51 -1.5029395e+50)
(-2.2527539e+52 -1.9688481e+51 -2.2518713e+51)
(-2.2521773e+52 -2.4574724e+51 -2.0082646e+51)
(-2.4132092e+52 -1.7393156e+51 4.9380653e+49)
(-2.4133189e+52 -2.4558237e+51 -3.4114838e+50)
(-2.7837246e+52 -1.717e+51 4.295161e+51)
(-2.1188599e+52 -2.6223802e+51 -3.2272107e+50)
(-2.4832757e+52 -1.8989247e+51 1.5483348e+51)
(-2.1032242e+52 -2.354463e+51 -3.1921837e+50)
(-2.3951829e+52 -2.7892001e+51 9.5859064e+50)
(-2.1765192e+52 -2.0940239e+51 -2.8915189e+50)
(-2.1369006e+52 -2.6807365e+51 -4.3458152e+50)
(-2.5168708e+52 -1.8180645e+51 1.2910849e+51)
(-2.5112983e+52 -2.6554707e+51 1.2412562e+51)
(-2.7676566e+52 -2.3473967e+51 4.0772247e+51)
(-2.0007338e+52 -1.4042284e+51 -2.5735063e+51)
(-1.9674432e+52 -2.4623139e+51 -2.7142566e+51)
(-2.4444602e+52 -1.6700081e+51 -3.3255995e+50)
(-2.2959576e+52 -2.2881316e+51 -2.2270464e+51)
(-2.4236942e+52 -2.1393877e+51 -5.2227925e+50)
(-2.32706e+52 -1.7963288e+51 -2.0456534e+51)
(-2.8160779e+52 -1.2986685e+51 4.222741e+51)
(-2.7488924e+52 -1.7131448e+51 4.2732094e+51)
(-1.9738442e+52 -1.3997439e+50 -2.4895853e+51)
(-1.9665116e+52 -1.0601008e+51 -2.2926056e+51)
(-2.3527926e+52 -1.670082e+51 -2.1762946e+51)
(-2.3376865e+52 -2.2453204e+51 -2.1962126e+51)
(-2.4938489e+52 -1.5443533e+51 -2.4517264e+50)
(-2.4896048e+52 -2.157889e+51 -4.1399849e+50)
(-2.1963118e+52 -2.0978103e+51 -4.237222e+50)
(-2.1785781e+52 -2.6304507e+51 -4.3884241e+50)
(-2.5560755e+52 -1.7640744e+51 1.2742674e+51)
(-2.5452431e+52 -2.5538738e+51 1.1194196e+51)
(-2.1896411e+52 -2.3713055e+51 -3.564632e+50)
(-2.5778941e+52 -1.7193435e+51 1.4081602e+51)
(-2.4853551e+52 -2.5003277e+51 1.1099585e+51)
(-2.1586133e+52 -1.7252143e+51 -2.5635782e+50)
(-2.3792644e+52 -1.7909006e+51 -2.161367e+51)
(-2.3491771e+52 -2.1317711e+51 -2.2351255e+51)
(-2.4912733e+52 -1.4164675e+51 -5.0485802e+50)
(-2.4798325e+52 -2.0024196e+51 -6.9738397e+50)
(-2.7538099e+52 4.968247e+50 -1.0836016e+51)
(-2.704052e+52 -1.9011833e+51 -9.5596694e+50)
(-1.614254e+52 -8.7256173e+50 -1.0449697e+51)
(-1.6113579e+52 -1.1165876e+51 -1.0796121e+51)
(-1.7402136e+52 -9.0696731e+50 -2.444498e+50)
(-1.7456785e+52 -1.1243183e+51 -2.9608715e+50)
(-1.744307e+52 -8.7123821e+50 -2.2890786e+50)
(-1.7501701e+52 -1.0504168e+51 -2.6867602e+50)
(-1.6095687e+52 -8.3787097e+50 -1.1160781e+51)
(-1.6077212e+52 -1.0731333e+51 -1.1385041e+51)
(-2.2191935e+52 -1.1463268e+51 -6.8459955e+50)
(-2.1769188e+52 -1.3136936e+51 -1.5210887e+51)
(-2.1935562e+52 -1.0567565e+51 -1.6165921e+51)
(-2.2270657e+52 -1.3759761e+51 -7.8385971e+50)
(-1.8220204e+52 -8.7021441e+50 -6.2025459e+50)
(-1.8189617e+52 -8.8968411e+50 -5.4523108e+50)
(-1.6081889e+52 -7.4873875e+50 -1.1499598e+51)
(-1.6057802e+52 -1.0040367e+51 -1.1734221e+51)
(-1.7408106e+52 -8.2714411e+50 -2.5712065e+50)
(-1.7450335e+52 -1.0381192e+51 -2.9945318e+50)
(-2.1945426e+52 -1.0232878e+51 -1.6348604e+51)
(-2.1835302e+52 -1.2653996e+51 -1.5615896e+51)
(-2.2248114e+52 -1.0420864e+51 -7.3142532e+50)
(-2.2295744e+52 -1.2558762e+51 -8.0810322e+50)
(-1.8279271e+52 -8.0829649e+50 -6.5646734e+50)
(-1.8229618e+52 -8.3663456e+50 -6.3770363e+50)
(-2.2014567e+52 -1.0310991e+51 -1.7256701e+51)
(-2.197347e+52 -1.2283217e+51 -1.4974408e+51)
(-2.2588925e+52 -1.0221041e+51 -6.2024929e+50)
(-2.2598175e+52 -1.2866264e+51 -7.52822e+50)
(-2.1981712e+52 -1.0408151e+51 -1.7208087e+51)
(-2.1921818e+52 -1.2545747e+51 -1.475007e+51)
(-2.2516235e+52 -1.0612632e+51 -5.7821108e+50)
(-2.2529656e+52 -1.3113e+51 -7.5387859e+50)
(-1.8352675e+52 -8.002252e+50 -5.4452089e+50)
(-2.233539e+52 -1.0738406e+51 -6.6611016e+50)
(-2.1931483e+52 -1.2517344e+51 -1.4049738e+51)
(-2.2009054e+52 -1.0324399e+51 -1.6558577e+51)
(-2.234008e+52 -1.3134367e+51 -7.6847491e+50)
(-1.8270393e+52 -7.9527978e+50 -6.4835334e+50)
(-2.2350125e+52 -1.0122634e+51 -6.0244855e+50)
(-2.1846066e+52 -1.2332837e+51 -1.3349829e+51)
(-2.2566576e+52 -1.0599372e+51 -6.0039448e+50)
(-2.2019416e+52 -1.2616991e+51 -1.6511901e+51)
(-2.2136174e+52 -1.0235276e+51 -1.774456e+51)
(-2.2608795e+52 -1.2865935e+51 -8.4947935e+50)
(-2.2504285e+52 -9.8382942e+50 -7.2820133e+50)
(-2.1973391e+52 -1.1808396e+51 -1.6908476e+51)
(-2.1998988e+52 -9.7654282e+50 -1.7702595e+51)
(-2.26618e+52 -1.0584208e+51 -7.2277437e+50)
(-2.2025672e+52 -1.2501996e+51 -1.5290992e+51)
(-2.2026732e+52 -9.6718713e+50 -1.9246647e+51)
(-2.2580209e+52 -1.3073842e+51 -9.2320281e+50)
(-2.2849305e+52 -1.0216116e+51 -7.0165565e+50)
(-2.2102821e+52 -1.2534763e+51 -1.9674836e+51)
(-2.22226e+52 -9.1821028e+50 -2.1498335e+51)
(-2.2817194e+52 -1.2319924e+51 -1.1221344e+51)
(-2.2720788e+52 -9.7924351e+50 -7.3725586e+50)
(-2.1973876e+52 -1.2034926e+51 -1.5440765e+51)
(-2.2112635e+52 -9.0497197e+50 -1.922831e+51)
(-2.2663447e+52 -1.2061287e+51 -9.2230843e+50)
(-2.2877694e+52 -9.5286515e+50 -1.0284372e+51)
(-2.2185339e+52 -1.2130823e+51 -2.1198646e+51)
(-2.2271602e+52 -9.0475189e+50 -2.1520004e+51)
(-2.2900179e+52 -1.1505676e+51 -1.1305583e+51)
(-2.2211342e+52 -8.585749e+50 -2.0875652e+51)
(-2.2147655e+52 -1.1517235e+51 -1.9747855e+51)
(-2.2880268e+52 -8.9984394e+50 -6.884251e+50)
(-2.2838793e+52 -1.0997284e+51 -1.1793e+51)
(-2.2303105e+52 -9.2175926e+50 -2.107301e+51)
(-2.2337234e+52 -1.1965177e+51 -1.6344097e+51)
(-2.3066963e+52 -9.7575462e+50 -6.7595561e+50)
(-2.2982158e+52 -1.2432164e+51 -8.8990916e+50)
(-2.2711713e+52 -1.0522493e+51 -1.0196941e+51)
(-2.2139757e+52 -1.19562e+51 -1.7029509e+51)
(-2.2200342e+52 -9.5741596e+50 -1.8116555e+51)
(-2.2747604e+52 -1.2886051e+51 -1.1488699e+51)
(-2.2133189e+52 -9.2365531e+50 -1.846979e+51)
(-2.2076336e+52 -1.1843421e+51 -1.6675724e+51)
(-2.2633505e+52 -9.3738924e+50 -1.0324121e+51)
(-2.2571363e+52 -1.1313777e+51 -1.2163898e+51)
(-2.2261313e+52 -1.476297e+51 -5.9446237e+50)
(-2.2314271e+52 -1.6901931e+51 -7.2914633e+50)
(-2.1864057e+52 -1.644602e+51 -1.5045635e+51)
(-2.201881e+52 -1.3489015e+51 -1.6033896e+51)
(-2.2413804e+52 -1.501057e+51 -7.2795104e+50)
(-2.2358094e+52 -1.2818438e+51 -6.4182454e+50)
(-2.1929697e+52 -1.4767555e+51 -1.4842419e+51)
(-2.2101708e+52 -1.226455e+51 -1.5407e+51)
(-2.2177516e+52 -1.1683623e+51 -1.6310705e+51)
(-2.2055558e+52 -1.3521077e+51 -1.4389309e+51)
(-2.2688727e+52 -1.4543268e+51 -6.7472165e+50)
(-2.2652609e+52 -1.1693626e+51 -5.4521388e+50)
(-2.2090059e+52 -1.23723e+51 -1.7341691e+51)
(-2.1948128e+52 -1.5142815e+51 -1.5775776e+51)
(-2.2496393e+52 -1.3546961e+51 -6.3618698e+50)
(-2.2499689e+52 -1.5534725e+51 -8.231066e+50)
(-1.7112207e+52 -1.0331677e+51 -8.1496313e+50)
(-1.7245462e+52 -9.9417065e+50 -8.2732354e+50)
(-1.7962362e+52 -1.1466888e+51 -3.950964e+50)
(-1.7856321e+52 -9.097943e+50 -3.7258176e+50)
(-1.6150245e+52 -1.0345113e+51 -1.0867175e+51)
(-1.6112267e+52 -1.2800673e+51 -1.1218802e+51)
(-1.7376852e+52 -1.0931893e+51 -2.9280834e+50)
(-1.7415632e+52 -1.2995857e+51 -3.5681277e+50)
(-1.7417167e+52 -1.030061e+51 -2.7529968e+50)
(-1.7477921e+52 -1.1934013e+51 -3.1693341e+50)
(-1.6116765e+52 -9.9934116e+50 -1.1269347e+51)
(-1.610082e+52 -1.204176e+51 -1.1501283e+51)
(-1.8221486e+52 -1.0591827e+51 -5.9410311e+50)
(-2.213071e+52 -1.2662942e+51 -7.2124012e+50)
(-2.1740021e+52 -1.1387439e+51 -1.7329366e+51)
(-2.1685768e+52 -1.4260519e+51 -1.5083945e+51)
(-2.2097467e+52 -1.4574537e+51 -8.3317382e+50)
(-1.8180894e+52 -9.9229322e+50 -6.6098715e+50)
(-1.6049763e+52 -9.3387863e+50 -1.0822064e+51)
(-1.6016681e+52 -1.1755191e+51 -1.1149313e+51)
(-1.7326703e+52 -9.7299527e+50 -2.6271157e+50)
(-1.7371396e+52 -1.1852148e+51 -3.0712774e+50)
(-1.7377189e+52 -9.5013255e+50 -2.2537346e+50)
(-1.7444967e+52 -1.1175426e+51 -2.6694135e+50)
(-1.6023269e+52 -9.5754231e+50 -1.0982344e+51)
(-1.6005947e+52 -1.1600549e+51 -1.1270936e+51)
(-2.2232071e+52 -1.0965043e+51 -6.1607622e+50)
(-2.1732015e+52 -1.2961995e+51 -1.3609289e+51)
(-2.1929088e+52 -1.1001735e+51 -1.5869425e+51)
(-2.2210463e+52 -1.3651136e+51 -7.216787e+50)
(-1.8098463e+52 -9.5303836e+50 -6.4736043e+50)
(-1.8152735e+52 -9.4837581e+50 -5.6679938e+50)
(-2.2300716e+52 -1.1910653e+51 -6.7822176e+50)
(-2.172077e+52 -1.3868774e+51 -1.7619384e+51)
(-2.1857059e+52 -1.0766052e+51 -1.8755049e+51)
(-2.2295069e+52 -1.3674731e+51 -9.0497095e+50)
(-2.2391163e+52 -1.0232087e+51 -7.2259117e+50)
(-2.1853992e+52 -1.2166176e+51 -1.6813134e+51)
(-2.1985894e+52 -1.0396499e+51 -1.7212907e+51)
(-2.2437407e+52 -1.3000485e+51 -7.9268484e+50)
(-2.2944278e+52 -1.0394663e+51 -5.830102e+50)
(-2.2136233e+52 -1.2486699e+51 -1.5946951e+51)
(-2.2150055e+52 -9.9341015e+50 -1.9750566e+51)
(-2.2885957e+52 -1.3074242e+51 -8.7874605e+50)
(-2.2150567e+52 -1.0723094e+51 -1.7642281e+51)
(-2.2059475e+52 -1.32485e+51 -1.4129488e+51)
(-2.2611239e+52 -1.2187877e+51 -8.3515706e+50)
(-2.2600422e+52 -1.4564722e+51 -1.1292126e+51)
(-2.2789388e+52 -1.0814941e+51 -7.2588771e+50)
(-2.2172787e+52 -1.2990626e+51 -1.5211747e+51)
(-2.2332265e+52 -1.0245118e+51 -1.7018414e+51)
(-2.2814866e+52 -1.3231632e+51 -8.8870172e+50)
(-2.3073698e+52 -1.0126233e+51 -7.2262942e+50)
(-2.225604e+52 -1.2632924e+51 -1.7006445e+51)
(-2.2379666e+52 -9.6965073e+50 -1.6372541e+51)
(-2.3176005e+52 -1.2553166e+51 -7.3900951e+50)
(-2.2188628e+52 -9.5509389e+50 -1.9956097e+51)
(-2.2160214e+52 -1.1377794e+51 -1.6047542e+51)
(-2.2888869e+52 -8.9700349e+50 -6.2549093e+50)
(-2.2825094e+52 -1.2521952e+51 -8.2631068e+50)
(-2.210813e+52 -8.758013e+50 -2.1965371e+51)
(-2.1990053e+52 -1.2657325e+51 -2.1212141e+51)
(-2.2692371e+52 -1.0664105e+51 -1.0842367e+51)
(-2.2690214e+52 -1.1997532e+51 -1.2454954e+51)
(-2.2407512e+52 -1.1744344e+51 -1.1770196e+51)
(-2.1873056e+52 -1.308374e+51 -1.9278185e+51)
(-2.1977037e+52 -9.2927694e+50 -1.9685198e+51)
(-2.2426327e+52 -1.3156229e+51 -1.2786071e+51)
(-2.2074837e+52 -1.0046832e+51 -1.7333832e+51)
(-2.1981461e+52 -1.1824069e+51 -1.6535444e+51)
(-2.2525887e+52 -9.4649756e+50 -9.7581107e+50)
(-2.2537467e+52 -1.2239484e+51 -1.1078757e+51)
(-2.3908202e+52 -4.4926036e+50 2.4282011e+50)
(-2.4655487e+52 -1.909385e+51 3.5446622e+51)
(-2.4677228e+52 -2.3587732e+51 3.357161e+51)
(-1.7648479e+52 -2.0157937e+51 -1.2620742e+51)
(-1.7427153e+52 -2.7805703e+51 -1.4476935e+51)
(-2.5160781e+52 -1.9524587e+51 3.3702429e+51)
(-2.542418e+52 -1.7480982e+51 3.3858047e+51)
(-1.7844461e+52 -1.0014996e+51 -1.3982913e+51)
(-1.7795336e+52 -1.6366698e+51 -1.312327e+51)
(-2.3296049e+52 -2.4471979e+51 1.9595086e+50)
(-2.3076566e+52 -1.0452138e+51 -7.3453504e+50)
(-2.2122222e+52 -1.332454e+51 -1.7508687e+51)
(-2.2056495e+52 -1.0080871e+51 -2.2487329e+51)
(-2.2910756e+52 -1.3280359e+51 -1.0613024e+51)
(-2.3194376e+52 -1.1733618e+51 -5.7999553e+50)
(-2.1909791e+52 -1.6449506e+51 -2.2102025e+51)
(-2.1919104e+52 -1.1930685e+51 -2.4477688e+51)
(-2.3067132e+52 -1.4165658e+51 -1.1643999e+51)
(-2.3224308e+52 -1.0213577e+51 -8.2221023e+50)
(-2.2123254e+52 -1.359437e+51 -1.8533748e+51)
(-2.3145314e+52 -1.1795568e+51 -1.0280566e+51)
(-2.231556e+52 -8.8382614e+50 -2.2182528e+51)
(-2.329607e+52 -1.1619583e+51 -1.0430667e+51)
(-2.1996203e+52 -1.6130831e+51 -2.4992029e+51)
(-2.215089e+52 -9.8652462e+50 -2.3998097e+51)
(-2.3306972e+52 -1.2186073e+51 -1.1311748e+51)
(-2.0390208e+52 -1.662811e+51 -1.3021343e+51)
(-2.0291961e+52 -2.3029549e+51 -1.415101e+51)
(-2.295002e+52 -1.6348527e+51 1.7940827e+50)
(-2.2809332e+52 -1.8355426e+51 6.6199399e+49)
(-2.0133842e+52 -1.8932e+51 -1.4009749e+51)
(-1.996666e+52 -2.3530263e+51 -1.4028051e+51)
(-2.2745329e+52 -1.5883656e+51 2.3743059e+50)
(-2.2576184e+52 -2.078251e+51 -3.1213688e+49)
(-2.2943815e+52 -1.4638414e+51 -9.7529214e+50)
(-2.1255199e+52 -1.8845489e+51 -2.2247319e+51)
(-2.133729e+52 -1.496752e+51 -2.2436529e+51)
(-2.288495e+52 -1.7109321e+51 -1.2120268e+51)
(-2.1613473e+52 -1.2072227e+51 -2.1678226e+51)
(-2.1502095e+52 -1.9383705e+51 -2.2414142e+51)
(-2.310726e+52 -1.403276e+51 -1.1017845e+51)
(-2.3075563e+52 -1.3880301e+51 -1.1791512e+51)
(-2.0392238e+52 -1.680734e+51 -1.3412139e+51)
(-2.0511491e+52 -2.2691767e+51 -1.2978212e+51)
(-2.3589548e+52 -1.4530829e+51 4.0294874e+50)
(-2.2757897e+52 -1.9469354e+51 8.6742526e+49)
(-2.3101462e+52 -1.1924432e+51 -9.9465295e+50)
(-2.1634711e+52 -1.6765768e+51 -2.0729128e+51)
(-2.1363002e+52 -1.251275e+51 -2.2050643e+51)
(-2.2906245e+52 -1.434815e+51 -1.2075907e+51)
(-2.3491229e+52 -1.1514549e+51 -5.9946325e+50)
(-2.1901332e+52 -1.7209186e+51 -1.8627731e+51)
(-2.3531478e+52 -1.4936219e+51 -6.8613262e+50)
(-2.1907642e+52 -1.3017731e+51 -1.8928886e+51)
(-2.3849372e+52 -1.549815e+51 5.8252771e+50)
(-2.0690732e+52 -2.1438426e+51 -1.236751e+51)
(-2.2852991e+52 -1.9015923e+51 2.229664e+50)
(-2.0321546e+52 -1.5150226e+51 -1.3787482e+51)
(-2.3119986e+52 -9.981985e+50 -1.1049918e+51)
(-2.1981642e+52 -1.3503169e+51 -2.2315879e+51)
(-2.2023869e+52 -9.0886205e+50 -2.4204435e+51)
(-2.3103982e+52 -1.1911333e+51 -1.3273978e+51)
(-2.2202712e+52 -8.1836303e+50 -2.3240765e+51)
(-2.2058404e+52 -1.2366464e+51 -2.0670291e+51)
(-2.287245e+52 -1.0308598e+51 -1.276834e+51)
(-2.2875242e+52 -1.2007571e+51 -1.5129922e+51)
(-2.3057084e+52 -8.7314148e+50 -8.0101977e+50)
(-2.2241917e+52 -1.2097262e+51 -1.972295e+51)
(-2.2351267e+52 -8.8827151e+50 -2.1175444e+51)
(-2.3021972e+52 -1.156678e+51 -1.2288083e+51)
(-2.3305997e+52 -9.3634089e+50 -9.5460327e+50)
(-2.2209915e+52 -1.3171242e+51 -1.9199893e+51)
(-2.2372714e+52 -1.0950361e+51 -1.8913037e+51)
(-2.3349339e+52 -1.279208e+51 -1.0511127e+51)
(-2.2370997e+52 -1.0005414e+51 -2.3265786e+51)
(-2.2227163e+52 -1.4850438e+51 -2.3454578e+51)
(-2.3428995e+52 -1.0969338e+51 -9.6202346e+50)
(-2.3507137e+52 -1.2661668e+51 -1.0646422e+51)
(-2.2284859e+52 -1.0593461e+51 -2.3692477e+51)
(-2.2133989e+52 -1.4991181e+51 -2.3582167e+51)
(-2.3319728e+52 -1.1178661e+51 -1.0425855e+51)
(-2.3372657e+52 -1.3133077e+51 -1.130759e+51)
(-2.3026803e+52 -1.046531e+51 -1.3180456e+51)
(-2.2234746e+52 -1.2822883e+51 -2.2133019e+51)
(-2.2339027e+52 -8.8957677e+50 -2.2405287e+51)
(-2.3049383e+52 -1.2519037e+51 -1.4424403e+51)
(-2.2434941e+52 -9.3341752e+50 -2.1948191e+51)
(-2.230679e+52 -1.3345157e+51 -2.1849565e+51)
(-2.3116739e+52 -9.8442648e+50 -1.308769e+51)
(-2.31425e+52 -1.1781404e+51 -1.4233367e+51)
(-2.5539575e+52 -1.67958e+51 3.3845985e+51)
(-2.0581031e+52 -2.0999707e+51 -1.4201389e+51)
(-2.3678425e+52 -1.4089749e+51 3.6656464e+50)
(-2.2902721e+52 -1.9018436e+51 1.0736719e+50)
(-2.0488598e+52 -1.650957e+51 -1.4307191e+51)
(-2.5367343e+52 -2.0874792e+51 3.2546293e+51)
(-2.0813858e+52 -2.0611628e+51 -1.3830373e+51)
(-2.3835569e+52 -1.5012339e+51 4.0237647e+50)
(-2.3026996e+52 -1.7617744e+51 1.8546361e+50)
(-2.0562477e+52 -1.3806878e+51 -1.387724e+51)
(-1.8205379e+52 -1.3331441e+51 -1.3428315e+51)
(-1.7915824e+52 -2.0865388e+51 -1.352888e+51)
(-2.2109437e+52 -1.2077431e+51 -1.9459684e+51)
(-2.1840314e+52 -1.767033e+51 -2.0651731e+51)
(-2.3329545e+52 -1.2814393e+51 -1.024591e+51)
(-2.3386653e+52 -1.3813883e+51 -1.0920734e+51)
(-2.1958144e+52 -1.2746036e+51 -2.0228882e+51)
(-2.1736986e+52 -1.6835139e+51 -2.0916534e+51)
(-2.3222811e+52 -1.3032337e+51 -1.0254093e+51)
(-2.328364e+52 -1.5418808e+51 -1.1254457e+51)
(-2.5648355e+52 -1.444958e+51 3.4448093e+51)
(-2.0731206e+52 -2.0710573e+51 -1.3866286e+51)
(-2.3781594e+52 -1.3628745e+51 4.1765672e+50)
(-2.2982096e+52 -1.8229216e+51 1.4890794e+50)
(-2.04931e+52 -1.39201e+51 -1.4780751e+51)
(-2.508904e+52 -1.6590024e+51 3.4769746e+51)
(-2.0621854e+52 -1.936104e+51 -1.3924537e+51)
(-2.3723458e+52 -1.3732099e+51 4.580135e+50)
(-2.2869926e+52 -1.7929268e+51 9.6679865e+49)
(-2.0198013e+52 -1.2879776e+51 -1.61232e+51)
(-1.7715795e+52 -3.5440889e+50 -1.2422197e+51)
(-1.7697716e+52 -8.3379863e+50 -1.0905526e+51)
(-2.1949673e+52 -1.2233552e+51 -2.0322814e+51)
(-2.1718814e+52 -1.5547094e+51 -2.033349e+51)
(-2.3272821e+52 -1.1238875e+51 -9.8720463e+50)
(-2.3310398e+52 -1.387579e+51 -1.1105085e+51)
(-2.2015262e+52 -1.1250009e+51 -2.036843e+51)
(-2.1821406e+52 -1.5896388e+51 -2.0528242e+51)
(-2.3319033e+52 -1.2034863e+51 -1.0218068e+51)
(-2.3390962e+52 -1.4024583e+51 -1.110865e+51)
(-2.3222469e+52 -1.0168444e+51 -7.9183525e+50)
(-2.2305948e+52 -1.3054694e+51 -2.1423049e+51)
(-2.2397183e+52 -8.4737835e+50 -2.2980476e+51)
(-2.3162079e+52 -1.2165663e+51 -1.3481365e+51)
(-2.3380247e+52 -1.0645521e+51 -1.1614794e+51)
(-2.2213324e+52 -1.3695191e+51 -2.3333101e+51)
(-2.2367609e+52 -9.3326971e+50 -2.3690567e+51)
(-2.3419563e+52 -1.2408336e+51 -1.293753e+51)
(-2.2260495e+52 -1.0058909e+51 -2.3257692e+51)
(-2.2167714e+52 -1.3223917e+51 -2.2871994e+51)
(-2.3328069e+52 -9.6410645e+50 -1.1377359e+51)
(-2.3326397e+52 -1.2196162e+51 -1.2619111e+51)
(-2.3031329e+52 -8.8331193e+50 -1.3334837e+51)
(-2.2264028e+52 -1.2149913e+51 -2.1977782e+51)
(-2.233919e+52 -8.8919879e+50 -2.2210549e+51)
(-2.2997807e+52 -1.0775546e+51 -1.4849604e+51)
(-2.3365309e+52 4.922173e+50 1.4441188e+50)
(-2.3175078e+52 -1.2555748e+51 2.4218807e+50)
(-2.7391023e+52 1.1138501e+51 6.4301419e+50)
(-2.7082609e+52 -1.511098e+51 6.7723066e+50)
(-3.6263775e+52 4.2216521e+49 4.2361764e+50)
(-3.1396868e+52 -4.807955e+50 4.0388359e+51)
(-3.2280038e+52 6.0861562e+50 -5.8119711e+50)
(-3.2049181e+52 -5.5952417e+50 -3.3851192e+50)
(-3.1193489e+52 4.4151716e+49 4.2511909e+51)
(-3.2126061e+52 2.5326018e+50 2.037145e+50)
(-3.1891513e+52 1.452377e+50 4.4467356e+50)
(-3.7519505e+52 -7.6966887e+50 1.4907845e+51)
(-2.8949386e+52 -1.7483128e+51 5.0021829e+51)
(-2.9410686e+52 1.1861906e+51 5.1035783e+51)
(-3.9037441e+52 -6.7310466e+50 -5.1029183e+51)
(-2.2182925e+52 -3.4048268e+51 3.5273959e+50)
(-2.191578e+52 -4.0543572e+51 -1.413755e+50)
(-2.1116605e+52 -3.2978956e+51 -1.4077803e+51)
(-2.1521156e+52 -2.8563727e+51 -1.7391827e+51)
(-2.2645484e+52 -3.143793e+51 -1.823603e+48)
(-2.2674503e+52 -3.6376218e+51 -4.1343639e+49)
(-2.2156003e+52 -2.7210812e+51 -1.3574678e+51)
(-2.1711969e+52 -3.2039174e+51 -1.9856866e+51)
(-2.2137144e+52 -2.3718455e+51 7.9368279e+50)
(-2.0643902e+52 -2.5781706e+51 -1.4499503e+51)
(-2.1127802e+52 -2.2806038e+51 -1.8609176e+51)
(-2.1902615e+52 -3.2109283e+51 2.8163476e+50)
(-2.1349245e+52 -2.6863816e+51 -2.0556868e+51)
(-2.2615641e+52 -2.4244464e+51 2.2136684e+50)
(-2.2433879e+52 -3.0457867e+51 3.1344795e+49)
(-2.1672614e+52 -2.2620328e+51 -1.9523538e+51)
(-2.3337028e+52 -3.3412187e+51 -2.9116296e+50)
(-2.3418908e+52 -2.8407844e+51 -1.0817695e+49)
(-2.2363442e+52 -2.9526557e+51 -1.9173956e+51)
(-2.2790554e+52 -2.4128789e+51 -1.9492726e+51)
(-2.3786202e+52 -2.4596317e+51 -1.1791174e+50)
(-2.3808992e+52 -2.8641265e+51 -8.4459261e+49)
(-2.3125299e+52 -2.1453891e+51 -1.4347367e+51)
(-2.2833298e+52 -2.7100777e+51 -2.0709427e+51)
(-2.2336794e+52 -2.1331248e+51 -2.0561914e+51)
(-2.1925064e+52 -2.5693406e+51 -2.0640044e+51)
(-2.3298683e+52 -2.2078572e+51 3.0611613e+50)
(-2.3325348e+52 -2.8763569e+51 7.627094e+49)
(-2.2361106e+52 -2.414873e+51 -2.1811147e+51)
(-2.3687311e+52 -2.0555367e+51 3.3937452e+49)
(-2.3453716e+52 -2.5220773e+51 -9.0220374e+49)
(-2.2504397e+52 -1.8585669e+51 -2.1262308e+51)
(-2.2060474e+52 -1.9474044e+51 5.2132698e+50)
(-2.0657738e+52 -2.4929618e+51 -1.7986674e+51)
(-2.0991802e+52 -2.1427127e+51 -1.7807312e+51)
(-2.1957907e+52 -2.8275143e+51 5.5930449e+49)
(-2.0061061e+52 -2.3904748e+51 -3.7673105e+50)
(-1.9500914e+52 -2.9109758e+51 -3.8529354e+50)
(-2.3155647e+52 -2.0053855e+51 1.6949437e+51)
(-2.3039801e+52 -3.0452718e+51 1.406426e+51)
(-2.7280942e+52 -2.0531901e+51 4.2630404e+51)
(-2.3719125e+52 -2.1610789e+51 1.650686e+51)
(-1.994713e+52 -2.8806286e+51 -5.0673148e+50)
(-2.0303267e+52 -2.3119217e+51 -3.8598828e+50)
(-2.3522763e+52 -2.9973525e+51 1.3689526e+51)
(-2.7250004e+52 -2.5068195e+51 4.0107181e+51)
(-2.1439384e+52 -2.6998809e+51 -1.7425521e+51)
(-2.1658983e+52 -2.2228152e+51 -1.7725511e+51)
(-2.2621705e+52 -2.1050476e+51 8.6484836e+49)
(-2.2357621e+52 -2.7289484e+51 -2.5498635e+50)
(-1.9359509e+52 -1.7746929e+51 -2.8874567e+51)
(-1.9067033e+52 -2.7451745e+51 -3.0482473e+51)