/*--------------------------------*- C++ -*----------------------------------*\
  =========                 |
  \\      /  F ield         | OpenFOAM: The Open Source CFD Toolbox
   \\    /   O peration     | Website:  https://openfoam.org
    \\  /    A nd           | Version:  7
     \\/     M anipulation  |
\*---------------------------------------------------------------------------*/
FoamFile
{
    version     2.0;
    format      ascii;
    class       volScalarField;
    location    "0";
    object      epsilon;
}
// * * * * * * * * * * * * * * * * * * * * * * * * * * * * * * * * * * * * * //

dimensions      [0 2 -3 0 0 0 0];

internalField   uniform 20;

boundaryField
{
    frontAndBack
    {
        type            zeroGradient;
    }
    inlet
    {
        type            fixedValue;
        value           nonuniform 0();
    }
    outlet
    {
        type            zeroGradient;
    }
    solidWall
    {
        type            compressible::epsilonWallFunction;
        value           uniform 20;
    }
    procBoundary15to0
    {
        type            processor;
        value           uniform 20;
    }
    procBoundary15to1
    {
        type            processor;
        value           uniform 20;
    }
    procBoundary15to4
    {
        type            processor;
        value           uniform 20;
    }
    procBoundary15to6
    {
        type            processor;
        value           uniform 20;
    }
    procBoundary15to8
    {
        type            processor;
        value           uniform 20;
    }
    procBoundary15to9
    {
        type            processor;
        value           uniform 20;
    }
    procBoundary15to10
    {
        type            processor;
        value           uniform 20;
    }
    procBoundary15to12
    {
        type            processor;
        value           uniform 20;
    }
    procBoundary15to13
    {
        type            processor;
        value           uniform 20;
    }
    procBoundary15to14
    {
        type            processor;
        value           uniform 20;
    }
}


// ************************************************************************* //
