/*--------------------------------*- C++ -*----------------------------------*\
  =========                 |
  \\      /  F ield         | OpenFOAM: The Open Source CFD Toolbox
   \\    /   O peration     | Website:  https://openfoam.org
    \\  /    A nd           | Version:  7
     \\/     M anipulation  |
\*---------------------------------------------------------------------------*/
FoamFile
{
    version     2.0;
    format      ascii;
    class       volVectorField;
    location    "0";
    object      U;
}
// * * * * * * * * * * * * * * * * * * * * * * * * * * * * * * * * * * * * * //

dimensions      [0 1 -1 0 0 0 0];

internalField   nonuniform List<vector> 
34158
(
(0.090120611 -0.00016844767 0.00073196253)
(0.090119125 -0.00020341999 0.00073280404)
(0.09011321 -7.9164677e-05 0.00073163422)
(0.090112297 -0.00012165564 0.00073212612)
(0.090803648 -0.00016085967 0.00036289905)
(0.090807947 -0.00021125674 0.00036247054)
(0.090860786 -0.0002113468 0.0010638958)
(0.090861006 -0.00016496537 0.001063872)
(0.090677953 -0.0001245214 0.001619268)
(0.090671693 -5.17991e-05 0.0016202494)
(0.090797358 -7.8866233e-05 0.00036268532)
(0.090799858 -0.00012206818 0.00036241069)
(0.090860141 -0.00012197766 0.0010638172)
(0.090860109 -8.1629664e-05 0.0010638228)
(0.090743933 -0.00016295569 0.00015437838)
(0.091029892 -0.0001650119 0.00045000077)
(0.090748348 -0.00020927864 0.00015437292)
(0.091030085 -0.0002114344 0.00045000203)
(0.091615497 -0.00020905339 0.00091732672)
(0.091619019 -0.00016354691 0.00091728447)
(0.091618422 -0.00033414409 -0.00080290386)
(0.091592079 -0.00038771927 -0.00080243054)
(0.090684649 -5.4928483e-05 0.0016198059)
(0.090682145 1.9368737e-05 0.0016201382)
(0.088454081 -5.4972063e-05 0.0018205891)
(0.089714723 -0.00013112483 0.00100855)
(0.089707846 -3.1743979e-05 0.0010076979)
(0.088448226 -9.2722873e-05 0.0018229827)
(0.090318699 -7.4754981e-05 0.0025884368)
(0.091173877 -9.6591317e-05 0.0022084566)
(0.091119928 -9.6497058e-05 0.0023113031)
(0.090376942 1.5370841e-05 0.0026774202)
(0.090373736 -0.00018775879 0.0026768938)
(0.091116776 -8.2195875e-05 0.0023119959)
(0.089451801 -0.00022046522 -0.00052686673)
(0.089433328 -0.00032146527 -0.00053049125)
(0.090860545 -5.4260752e-06 0.001063832)
(0.090859977 -4.2983139e-05 0.0010638129)
(0.09073775 -8.0604396e-05 0.00015433177)
(0.091029134 -8.1635141e-05 0.0004499078)
(0.090740332 -0.00012035946 0.00015421339)
(0.091029401 -0.00012202736 0.00044989005)
(0.091621377 -0.00012105559 0.0009172555)
(0.091623177 -8.0842643e-05 0.00091725297)
(0.092355768 -8.0650553e-05 0.0021045858)
(0.092353964 -0.00012123557 0.002104555)
(0.090744117 -0.00016300171 2.7009104e-05)
(0.090996204 -0.00016505968 0.00015778389)
(0.091332024 -0.00016358824 0.00037326901)
(0.090748565 -0.00020931817 2.7037419e-05)
(0.090996435 -0.00021149229 0.00015781275)
(0.09132856 -0.00020911789 0.00037330764)
(0.091979463 -0.00020282898 8.6062753e-05)
(0.091986079 -0.00015904734 8.5970213e-05)
(0.091638772 -0.00028411121 -0.0008032606)
(0.091654367 -0.00023734231 -0.00080352323)
(0.091239178 -0.00033448315 -0.00034008754)
(0.091212922 -0.00038819277 -0.00033981437)
(0.090857785 -0.00030901126 -0.0011261291)
(0.090829075 -0.00035554944 -0.0011256191)
(0.08869061 -6.2399826e-05 0.00053523582)
(0.090685453 8.8409178e-05 0.0016197911)
(0.089722127 -6.5384201e-05 0.0010085185)
(0.088460509 -3.0627754e-05 0.0018224312)
(0.088462422 6.2820377e-06 0.0018218329)
(0.089719522 3.5141782e-05 0.0010081366)
(0.090324811 -6.4637895e-06 0.0025890145)
(0.091179561 -2.6446229e-05 0.0022087863)
(0.091127223 -2.5775481e-05 0.0023118754)
(0.090384846 8.4281889e-05 0.0026776997)
(0.090383587 -0.00011829902 0.002677455)
(0.091125978 -1.0789473e-05 0.0023120848)
(0.091175934 -1.0477672e-05 0.0022085965)
(0.090320973 -2.7866033e-05 0.002589034)
(0.088075445 -9.9765048e-05 0.0014170941)
(0.089279029 -0.00020476959 0.0021910338)
(0.089418472 -6.278522e-05 0.0020935071)
(0.087634169 -0.00010701391 0.0026178129)
(0.088063163 -0.00012390366 0.0025356978)
(0.088060082 -3.522232e-05 0.0025336997)
(0.089415345 -0.00010314368 0.002093751)
(0.088071372 -4.76187e-05 0.0014171074)
(0.090282947 4.6008115e-05 0.0037793017)
(0.090225445 -7.3858157e-05 0.0036994708)
(0.091017173 -8.6875492e-05 0.0030469034)
(0.090967981 -0.00011063605 0.0031412637)
(0.091172539 1.58509e-05 0.002632182)
(0.091225286 -5.4148321e-05 0.0027440121)
(0.091515543 -0.00012033533 0.0023977583)
(0.091230354 -7.1729314e-05 0.0027821804)
(0.091179598 -9.4231024e-05 0.0026687672)
(0.091491851 -3.4652482e-05 0.0024399011)
(0.091440295 -5.2352704e-05 0.0025367169)
(0.090292829 -0.00016058872 0.0037717621)
(0.090978574 -6.0176411e-05 0.0031439784)
(0.090243787 -5.223089e-05 0.0036950329)
(0.091032397 -6.4204542e-05 0.0030545968)
(0.090288059 -1.011847e-05 0.003771958)
(0.090241949 -0.00011853169 0.0036945718)
(0.091030608 -0.00011000507 0.0030543873)
(0.090974057 -0.00011376923 0.0031435184)
(0.091438867 -0.00012794079 0.0025369577)
(0.091228886 -0.00010550529 0.0027818037)
(0.091487321 -0.00014576211 0.0024401088)
(0.091174962 -8.2955866e-05 0.0026691454)
(0.089498883 -0.0001528162 -0.00052773821)
(0.089486539 -0.00025363601 -0.00053038022)
(0.09018223 -0.00025235846 -0.00028071317)
(0.090152946 -0.00028912755 -0.00028262137)
(0.090080476 -0.00028200035 -0.00089289568)
(0.09005225 -0.00032181988 -0.00089261577)
(0.091029697 -5.3972591e-06 0.00044986786)
(0.091029162 -4.3003641e-05 0.00044986975)
(0.091625674 -4.4673611e-06 0.00091727003)
(0.091624526 -4.2194457e-05 0.00091725254)
(0.092357134 -4.240223e-05 0.0021046203)
(0.0923583 -4.3109542e-06 0.0021046503)
(0.09073791 -8.0580935e-05 2.7004215e-05)
(0.090995469 -8.1642774e-05 0.00015773525)
(0.091336192 -8.0852347e-05 0.00037321692)
(0.09074053 -0.00012035974 2.6944138e-05)
(0.090995777 -0.00012205829 0.0001577166)
(0.091334425 -0.000121083 0.00037322761)
(0.091990943 -0.00011779257 8.5914146e-05)
(0.091994499 -7.8459615e-05 8.5884997e-05)
(0.093329858 -7.8418972e-05 0.00019997108)
(0.094603321 -0.00018709806 0.004046212)
(0.094600312 2.8343887e-05 0.0040455517)
(0.093326257 -0.0001177472 0.00019998833)
(0.094596664 -0.00022940085 0.0040451772)
(0.094602148 -1.2964392e-05 0.004046323)
(0.090744482 -0.00016300169 8.6924462e-06)
(0.090995431 -0.00016508159 2.7169583e-05)
(0.091215439 -0.00016362283 0.00011811827)
(0.091472861 -0.00015911314 3.1358686e-05)
(0.09074893 -0.00020931848 8.6863053e-06)
(0.090995643 -0.00021150555 2.7185492e-05)
(0.091211986 -0.00020915928 0.00011814988)
(0.091466278 -0.00020292634 3.1416606e-05)
(0.091666366 -0.00019345293 -0.00080372425)
(0.091675466 -0.00015202422 -0.00080386631)
(0.091275029 -0.00023752228 -0.00034043265)
(0.091259451 -0.00028436043 -0.00034029208)
(0.090880964 -0.00026449085 -0.0011265226)
(0.090898875 -0.00022208478 -0.0011267723)
(0.091100817 -0.00033464119 -0.00010853746)
(0.090826055 -0.00030944004 -0.00050336975)
(0.091074606 -0.00038841568 -0.00010841633)
(0.090797141 -0.00035619767 -0.00050307412)
(0.096725118 -6.9696118e-05 0.0067199545)
(0.096727133 -8.9296444e-05 0.006719425)
(0.088600868 -6.2156426e-05 -0.00010016145)
(0.08870159 -7.8937844e-06 0.00053541255)
(0.091630538 3.8159043e-05 0.0026015979)
(0.089723004 0.00010046222 0.0010083979)
(0.088463717 3.039029e-05 0.0018216237)
(0.090386122 -5.0478623e-05 0.002677309)
(0.091128399 5.8745619e-05 0.0023117294)
(0.091179899 5.9301155e-05 0.0022085591)
(0.090325227 4.0044705e-05 0.0025888134)
(0.08928531 -0.00013840859 0.0021912776)
(0.087640542 -4.2664181e-05 0.0026190058)
(0.088072045 -5.8952462e-05 0.0025354309)
(0.089426823 4.1568136e-06 0.0020939831)
(0.088082921 1.4350321e-05 0.0014173103)
(0.088084436 -3.8625563e-05 0.0014174086)
(0.089425541 -3.5600523e-05 0.0020940152)
(0.089281347 0.00010683911 0.0021908798)
(0.088070611 3.0204543e-05 0.0025348562)
(0.087636943 1.4115495e-05 0.0026192494)
(0.091022793 -1.8476514e-05 0.0030475242)
(0.090231211 -6.2854219e-06 0.0037001261)
(0.090289495 0.00011385605 0.0037798469)
(0.090974324 -4.2057823e-05 0.0031419248)
(0.091480502 -3.4172071e-05 0.0024979882)
(0.091230686 1.525441e-05 0.0027445742)
(0.091178797 8.5486618e-05 0.0026326243)
(0.091521618 -4.967773e-05 0.0023982017)
(0.091498724 3.6396251e-05 0.0024403968)
(0.09118678 -2.4320416e-05 0.0026693975)
(0.091238447 -1.2587157e-06 0.0027825626)
(0.091448109 1.9136491e-05 0.0025372369)
(0.090252245 1.6362654e-05 0.003695499)
(0.090300458 -9.2519015e-05 0.0037725008)
(0.090986041 8.801995e-06 0.0031444817)
(0.091040619 5.4095448e-06 0.0030550804)
(0.091039938 -4.0024197e-05 0.0030549974)
(0.090251556 -4.9571215e-05 0.0036952316)
(0.090298508 5.9187497e-05 0.0037723609)
(0.090984161 -4.344696e-05 0.003144176)
(0.091237847 -3.4570722e-05 0.0027824069)
(0.091447514 -5.6226233e-05 0.0025373039)
(0.091184916 -1.1566618e-05 0.0026694333)
(0.091496875 -7.3561159e-05 0.0024403262)
(0.091226303 -5.1458722e-05 0.0027445001)
(0.091175668 -0.00012147225 0.0026323526)
(0.091518613 1.2410582e-05 0.0023980993)
(0.090286183 -0.00014730968 0.0037794227)
(0.090971055 7.2819006e-06 0.0031417937)
(0.091018353 -1.65648e-05 0.0030471893)
(0.09022666 -2.7476771e-05 0.0036999187)
(0.087547767 -0.00010892978 0.00034726862)
(0.087050842 -0.0001318372 0.0025280814)
(0.087175249 -8.3553115e-05 0.0024369959)
(0.089003964 -0.00022896739 0.0035825562)
(0.089141116 -7.4181249e-05 0.0034838494)
(0.086967368 -9.554213e-05 0.0040007712)
(0.087382833 -0.00011723089 0.0039484502)
(0.089165485 -0.00013776298 0.0034770475)
(0.087445576 -3.3576959e-05 0.0039072342)
(0.087025238 -2.6759055e-05 0.0039978398)
(0.089035456 7.0109207e-05 0.0035662405)
(0.087170673 -7.5268075e-05 0.0024366547)
(0.089034017 -0.00023762037 0.0035662662)
(0.089160376 -2.9755274e-05 0.0034767449)
(0.087024505 -0.00013772959 0.0039958074)
(0.087439815 -0.00013076615 0.0039085464)
(0.087543713 -3.7988645e-05 0.00034741691)
(0.090434898 -3.4873601e-05 0.0049755321)
(0.090481396 -0.00015557062 0.0050518437)
(0.091327544 -4.9885284e-05 0.0042737958)
(0.091268471 -6.6067707e-05 0.0043535399)
(0.090471008 5.1802554e-05 0.0050604889)
(0.090410435 -7.6569599e-05 0.0049813789)
(0.091255236 -0.00010101408 0.0043537639)
(0.091304095 -9.5455014e-05 0.004270973)
(0.091502204 -4.0351588e-05 0.0033839512)
(0.091578101 -9.7473209e-05 0.0031197743)
(0.091619116 -0.00011851916 0.0030216621)
(0.091451563 1.1871457e-05 0.0032800634)
(0.091460726 -6.6727991e-05 0.0033170977)
(0.091596006 -2.11475e-05 0.0030624452)
(0.091548257 -4.2973634e-05 0.003154828)
(0.09151445 -5.9157916e-05 0.0034221994)
(0.091497975 -9.4256856e-05 0.0027688854)
(0.091545473 -9.6569882e-05 0.0028605415)
(0.091407325 -6.6422655e-05 0.0028243754)
(0.091457998 -6.4960647e-05 0.0027252976)
(0.091568942 -1.0584453e-05 0.0029009338)
(0.091529544 -4.8374465e-06 0.002805381)
(0.091451885 -7.7941122e-05 0.0027657858)
(0.091400186 -0.00012915148 0.0028605534)
(0.091396611 -1.0439776e-05 0.0025262097)
(0.091457428 -6.9002792e-05 0.0026101213)
(0.09140525 -8.063007e-05 0.0025248338)
(0.091599089 -4.7963632e-05 0.0025599733)
(0.091560007 -3.470039e-05 0.0026402024)
(0.091530856 -0.00013367408 0.0028168573)
(0.091570202 -0.00012040931 0.0029103584)
(0.091397771 -1.7960824e-05 0.002871911)
(0.091447874 -6.5772154e-05 0.0027777882)
(0.091549059 -2.9105922e-05 0.0028718954)
(0.091499876 -2.2129221e-05 0.002776292)
(0.091456504 -8.0017698e-05 0.0027351395)
(0.091405451 -8.2942278e-05 0.0028346275)
(0.091552386 -0.0001171946 0.0026494142)
(0.091455411 -4.8391636e-05 0.0026181816)
(0.091399563 -4.5171576e-05 0.0025363463)
(0.091584357 -0.00010490898 0.0025673054)
(0.091577061 -3.1273555e-05 0.0025695252)
(0.091389663 -0.00012039598 0.0025428296)
(0.091437736 -0.0001075725 0.0026327688)
(0.09153314 -3.7323071e-05 0.0026557498)
(0.090492929 1.8545637e-05 0.0050499401)
(0.090439475 -0.0001044422 0.004972842)
(0.0913306 -0.00011193295 0.0042727031)
(0.091278275 -9.04392e-05 0.0043511802)
(0.091517051 -6.5478903e-05 0.0034239232)
(0.091550378 -0.00010636778 0.0031589381)
(0.091601682 -0.00012621873 0.003065159)
(0.091468729 -5.9637763e-05 0.0033194857)
(0.091268318 -4.923914e-05 0.0043498382)
(0.090483212 -0.00018791975 0.0050538012)
(0.090424314 -5.8209684e-05 0.0049765764)
(0.091318988 -4.4255829e-05 0.0042681334)
(0.091514081 -9.6620231e-05 0.0033919396)
(0.091462551 -0.0001414007 0.0032887715)
(0.091623085 -2.5212198e-05 0.0030329701)
(0.091582716 -4.3787721e-05 0.003129252)
(0.090434184 -6.5504785e-05 0.0049728001)
(0.090488268 -0.0001883551 0.0050498276)
(0.09127349 -8.0994731e-05 0.0043514708)
(0.091325368 -5.9802091e-05 0.0042726398)
(0.090481225 1.8104992e-05 0.0050537689)
(0.090422998 -0.00011179827 0.0049763829)
(0.091317628 -0.00012754246 0.0042679406)
(0.091266511 -0.00012219251 0.0043493288)
(0.091581832 -0.00013118815 0.0031293152)
(0.091512988 -7.6717472e-05 0.0033916373)
(0.091460465 -3.1697852e-05 0.0032885898)
(0.091620789 -0.000149664 0.0030327661)
(0.091511526 -0.00010777735 0.0034239496)
(0.091464197 -0.00011344783 0.0033193702)
(0.091597469 -4.8661196e-05 0.0030651589)
(0.091544739 -6.8512176e-05 0.0031586986)
(0.091532594 -0.00014391129 0.0026559299)
(0.091437172 -7.2194491e-05 0.0026325761)
(0.09138718 -5.9123495e-05 0.0025428887)
(0.091574638 -0.00014987552 0.0025695294)
(0.091447098 -0.00011246497 0.0027777376)
(0.09152997 -4.2851144e-05 0.00281674)
(0.091567852 -5.6031445e-05 0.0029104203)
(0.091395399 -0.00016000236 0.0028716194)
(0.091580808 -7.6260159e-05 0.0025677265)
(0.0913959 -0.00013436073 0.0025367157)
(0.09144981 -0.00013141318 0.0026187782)
(0.091546956 -6.4090459e-05 0.0026496359)
(0.091401537 -9.5037273e-05 0.0028351257)
(0.09154499 -0.00014733352 0.0028719088)
(0.091494329 -0.00015438333 0.002776498)
(0.091450974 -9.8233301e-05 0.0027353895)
(0.089074951 -6.2128732e-05 -0.00049270074)
(0.089529976 -8.7422782e-05 -0.00052840198)
(0.089522107 -0.00018694759 -0.00053015376)
(0.090228194 -0.00018480725 -0.00028125209)
(0.090208358 -0.000221208 -0.00028268782)
(0.090124813 -0.00020492247 -0.00089338652)
(0.090106465 -0.00024282058 -0.00089330178)
(0.090142168 -0.00025479367 -0.00012764025)
(0.090423945 -0.00028236205 -0.00041434816)
(0.090111822 -0.00028897596 -0.00012792099)
(0.090393989 -0.00032246953 -0.00041430016)
(0.091626676 3.3026549e-05 0.00091731311)
(0.091627465 7.0927848e-05 0.00091738856)
(0.090996071 -5.399718e-06 0.00015770577)
(0.091338702 -4.4432475e-06 0.00037321364)
(0.090995521 -4.3019647e-05 0.00015771848)
(0.091337559 -4.2195015e-05 0.00037320709)
(0.091998702 -3.2612373e-06 8.5864787e-05)
(0.091997022 -4.0469772e-05 8.5866445e-05)
(0.093332419 -4.0459004e-05 0.00019994966)
(0.094606072 6.468936e-05 0.0040464739)
(0.094601193 -0.00015009279 0.0040454785)
(0.093334132 -3.2643094e-06 0.00019992968)
(0.094606752 -0.00011052006 0.004046406)
(0.094603294 0.00010391322 0.0040456305)
(0.090738275 -8.0581805e-05 8.6872634e-06)
(0.090994702 -8.1639822e-05 2.7151252e-05)
(0.091219611 -8.0861997e-05 0.00011808306)
(0.09148125 -7.8483433e-05 3.1293946e-05)
(0.090740895 -0.00012036055 8.6966763e-06)
(0.090995034 -0.00012206696 2.7139349e-05)
(0.091217857 -0.00012110457 0.00011808884)
(0.091477712 -0.00011783534 3.131635e-05)
(0.091682332 -0.00011260463 -0.00080396108)
(0.091687333 -7.4741448e-05 -0.00080402037)
(0.092589908 -7.4675606e-05 -0.0018073329)
(0.095851414 -2.9120616e-05 -0.00063439258)
(0.09585292 -0.00012569375 -0.00063418835)
(0.095777376 -8.1357955e-07 0.001294657)
(0.095776966 -0.00015686976 0.0012947145)
(0.092584873 -0.000112488 -0.001807228)
(0.095849358 -0.00016428859 -0.00063406215)
(0.095846573 -6.8547408e-05 -0.00063449979)
(0.095772422 -0.00019734822 0.0012947521)
(0.095775401 -4.0379722e-05 0.0012944831)
(0.090995562 -0.00016508152 8.7636628e-06)
(0.091208096 -0.00016363362 2.0160968e-05)
(0.091293724 -0.00015914952 9.0517775e-06)
(0.091296085 -0.00015211811 -0.00034062085)
(0.090995774 -0.0002115056 8.7642331e-06)
(0.091204635 -0.00020916527 2.0173785e-05)
(0.091287149 -0.00020297422 9.0774374e-06)
(0.091286993 -0.0001935879 -0.0003405434)
(0.090913226 -0.00018165567 -0.001126984)
(0.090924103 -0.00014302524 -0.0011271191)
(0.091136623 -0.00023760624 -0.00010866956)
(0.090867153 -0.00022230074 -0.00050374136)
(0.091121052 -0.00028447229 -0.00010861179)
(0.090849081 -0.0002647952 -0.00050361885)
(0.09109211 -0.00033466248 -1.8556963e-05)
(0.090791012 -0.00030964747 -0.00016649791)
(0.091065911 -0.00038844599 -1.8526231e-05)
(0.090762067 -0.00035650271 -0.00016635297)
(0.099213123 -0.00010880776 0.0023878281)
(0.099210345 -0.00012902387 0.0023877949)
(0.096729879 -3.3206453e-05 0.0067197063)
(0.096726037 -5.2216741e-05 0.0067200347)
(0.099215479 -6.9182328e-05 0.0023880661)
(0.10219772 7.5567458e-06 0.0092997383)
(0.10219771 -0.00014702696 0.009299556)
(0.09815855 -0.00033124332 0.01191136)
(0.098157233 0.00019227878 0.011911729)
(0.099214827 -8.8587623e-05 0.0023879223)
(0.10219796 -1.1285576e-05 0.0092993897)
(0.10219747 -0.0001674234 0.0092990849)
(0.096728199 5.9525027e-06 0.0067201377)
(0.096730606 -1.2701976e-05 0.00671972)
(0.08792977 -6.6675425e-05 -0.00097675102)
(0.087933881 -8.0119331e-05 -0.00097633864)
(0.088611841 -7.7911587e-06 -0.00010005638)
(0.08870281 4.637889e-05 0.00053546045)
(0.091630714 -6.0319378e-06 0.0026015133)
(0.091662411 -1.6902085e-05 0.0027430156)
(0.091611604 6.1762935e-05 0.002704696)
(0.091610706 -3.7957035e-05 0.0028333884)
(0.091654009 7.2411198e-05 0.0027933384)
(0.091654564 -1.9619183e-05 0.0027888636)
(0.091615362 -2.9731912e-05 0.0027055827)
(0.091671185 -4.058359e-05 0.002696825)
(0.091648404 0.00010009222 0.0026541952)
(0.08942807 3.0450526e-05 0.0020939221)
(0.089285881 0.0001729685 0.0021911103)
(0.088072856 9.4412387e-05 0.0025356437)
(0.087641531 7.8295405e-05 0.0026186843)
(0.088085444 7.5202157e-05 0.0014173737)
(0.090253338 8.3557425e-05 0.003693906)
(0.090301539 0.00012611321 0.0037713714)
(0.090253783 1.7563882e-05 0.0036943118)
(0.091041738 2.8076969e-05 0.0030544374)
(0.090986768 2.4466238e-05 0.0031438005)
(0.091239699 3.4558322e-05 0.0027823332)
(0.091187675 5.7398629e-05 0.0026692415)
(0.091449492 1.3684495e-05 0.0025369843)
(0.091499666 -3.7701596e-06 0.0024400649)
(0.091179303 -5.2523801e-05 0.0026324761)
(0.091230846 1.7743482e-05 0.0027444806)
(0.091522175 8.2203531e-05 0.0023980559)
(0.091480705 6.6643801e-05 0.0024978133)
(0.09023142 3.9825575e-05 0.0036997765)
(0.090290268 -8.0250318e-05 0.0037791009)
(0.090974812 7.5197714e-05 0.003141503)
(0.091022899 5.1607925e-05 0.0030472295)
(0.086972803 -2.9574733e-05 0.0040020665)
(0.089009753 -0.00016229434 0.0035830501)
(0.089147923 -7.1571628e-06 0.0034844491)
(0.087389975 -5.0917141e-05 0.003948568)
(0.087057838 -6.7679442e-05 0.00252859)
(0.087183404 -1.866752e-05 0.0024373315)
(0.089173075 -7.0413301e-05 0.0034776103)
(0.08904421 0.00013782107 0.0035668338)
(0.08745299 3.3040331e-05 0.0039083933)
(0.087034364 4.0208887e-05 0.0039977507)
(0.087555214 2.3854864e-05 0.00034757104)
(0.087181696 -9.8967466e-06 0.0024371949)
(0.087054644 3.9254155e-05 0.0025283183)
(0.087556653 -4.790327e-05 0.00034754521)
(0.089043591 -0.00016973851 0.0035668041)
(0.089171084 3.8411762e-05 0.0034773375)
(0.087033732 -7.0817919e-05 0.0039972473)
(0.087451026 -6.3734482e-05 0.0039085389)
(0.089005042 0.00012999707 0.003582584)
(0.087386822 2.0160204e-05 0.003947833)
(0.089144642 -2.4954008e-05 0.0034841568)
(0.086968258 -1.2089845e-06 0.0040019996)
(0.091583446 -2.9486538e-05 0.0031203992)
(0.091507794 2.7979301e-05 0.0033847271)
(0.091457329 8.0411356e-05 0.0032806603)
(0.091624843 -5.0175317e-05 0.0030222887)
(0.091309794 -2.8252806e-05 0.0042717055)
(0.090416235 -9.5731376e-06 0.0049817457)
(0.090476871 0.00011922722 0.0050612531)
(0.091260915 -3.3715642e-05 0.0043546591)
(0.090441558 3.3305634e-05 0.0049764033)
(0.090488105 -8.7822537e-05 0.0050525921)
(0.091275104 1.5083774e-06 0.0043541699)
(0.091334319 1.7845196e-05 0.0042744978)
(0.091602317 4.8074795e-05 0.0030629612)
(0.091467309 1.6696013e-06 0.0033176374)
(0.09152115 9.5687701e-06 0.003422905)
(0.091554981 2.6327502e-05 0.0031555304)
(0.091562147 -4.0218039e-05 0.0026433372)
(0.091452107 3.6310423e-05 0.0026173233)
(0.091402217 5.9874602e-05 0.0025267883)
(0.091604359 -4.827232e-05 0.0025547031)
(0.091457039 -8.8709607e-06 0.0027663231)
(0.091534834 6.4483676e-05 0.0028059314)
(0.091574569 5.8899645e-05 0.0029014774)
(0.091405858 -6.0041302e-05 0.0028611422)
(0.09150462 -2.4923366e-05 0.0027694604)
(0.09155167 -2.7469397e-05 0.0028611013)
(0.091413431 3.1692816e-06 0.0028248471)
(0.091464498 4.876491e-06 0.0027258159)
(0.091604924 2.1845533e-05 0.0025604889)
(0.091411064 -1.0224753e-05 0.0025252661)
(0.091464027 1.7731084e-06 0.0026105755)
(0.091566357 3.5320667e-05 0.0026406389)
(0.091558992 -4.6924801e-05 0.002650017)
(0.091462194 2.2743446e-05 0.002618813)
(0.091406944 2.614936e-05 0.002537029)
(0.091591517 -3.4298675e-05 0.0025678515)
(0.091463432 -1.0362036e-05 0.0027358445)
(0.091507005 4.7855961e-05 0.002776928)
(0.091556607 4.1284961e-05 0.00287258)
(0.091412856 -1.3218365e-05 0.0028353371)
(0.091539178 -6.2911194e-05 0.0028175003)
(0.091578239 -4.9694937e-05 0.0029109514)
(0.091405584 5.2005653e-05 0.0028724861)
(0.091456161 4.8944646e-06 0.0027783406)
(0.091584521 3.9783792e-05 0.0025700454)
(0.091397299 -4.8895205e-05 0.0025432543)
(0.091445938 -3.5958827e-05 0.0026332194)
(0.091541237 3.4328501e-05 0.0026562377)
(0.090433045 1.0427082e-05 0.0049769807)
(0.090491679 -0.00011968967 0.0050545085)
(0.091276854 1.8858831e-05 0.0043504059)
(0.091327324 2.4540578e-05 0.0042685619)
(0.090500504 8.6535754e-05 0.0050506255)
(0.090446912 -3.6324437e-05 0.0049736854)
(0.091338166 -4.4237562e-05 0.004273619)
(0.091285708 -2.2567176e-05 0.0043519841)
(0.091476164 9.7670476e-06 0.0033202009)
(0.091524406 3.7430694e-06 0.003424661)
(0.091557588 -3.7508349e-05 0.0031596124)
(0.091609269 -5.7362105e-05 0.0030657917)
(0.09163119 4.3714081e-05 0.0030336795)
(0.091470905 -7.1645535e-05 0.0032893399)
(0.091522525 -2.6727886e-05 0.0033925287)
(0.091591155 2.579573e-05 0.0031299304)
(0.091590826 -6.0592192e-05 0.0031299142)
(0.091522094 -7.3605006e-06 0.0033923629)
(0.091469886 3.7573454e-05 0.0032891789)
(0.091630197 -7.8530711e-05 0.003033486)
(0.091326844 -5.787873e-05 0.0042684014)
(0.090432653 -4.3063198e-05 0.0049768165)
(0.090490873 8.6928784e-05 0.0050543508)
(0.091275915 -5.2284042e-05 0.0043500415)
(0.090444725 3.3655246e-06 0.0049732291)
(0.090498836 -0.00011938228 0.0050502462)
(0.091283898 -1.0971456e-05 0.0043517393)
(0.091335873 1.0540178e-05 0.004273165)
(0.091607552 2.2477718e-05 0.0030656354)
(0.091474357 -4.3935694e-05 0.0033199079)
(0.091522052 -3.8059038e-05 0.0034243683)
(0.091555251 2.591095e-06 0.003159309)
(0.091455836 -4.1049567e-05 0.0027783331)
(0.091538837 2.749873e-05 0.0028173972)
(0.09140459 -8.8095502e-05 0.0028723587)
(0.091577234 1.4243259e-05 0.0029109013)
(0.091540969 -7.1727004e-05 0.002656294)
(0.091445668 -8.1032583e-07 0.0026331507)
(0.091396325 1.2182555e-05 0.0025432737)
(0.091583539 -7.7148753e-05 0.0025700051)
(0.091554957 -7.675951e-05 0.0028724242)
(0.091411256 -2.2885978e-05 0.0028353628)
(0.091461187 -2.5840798e-05 0.0027357513)
(0.091504726 -8.3408865e-05 0.0027768317)
(0.091459974 -5.9555609e-05 0.0026188394)
(0.091405415 -6.2871361e-05 0.0025369874)
(0.091590008 -3.0667417e-06 0.0025678741)
(0.091530128 -0.00010033367 0.0028056031)
(0.091570435 -9.4470417e-05 0.0029011648)
(0.091452411 -2.7830005e-05 0.002765966)
(0.09140182 2.3574315e-05 0.0028609829)
(0.091548108 -8.0852874e-06 0.0028609896)
(0.091501657 -1.0661261e-05 0.0027692673)
(0.091461644 -4.113054e-05 0.0027256391)
(0.091409958 -3.9495107e-05 0.002824523)
(0.091407642 -2.6634904e-05 0.0025250884)
(0.091461283 -3.8621222e-05 0.0026103561)
(0.090484436 5.4672493e-05 0.0050521938)
(0.09043846 -6.6298922e-05 0.0049758088)
(0.091331169 -5.1597952e-05 0.0042740413)
(0.091271536 -3.5266923e-05 0.0043537504)
(0.091463764 -3.5951558e-05 0.0033174567)
(0.091551975 -6.1211353e-05 0.0031553168)
(0.091518072 -4.3893706e-05 0.0034224851)
(0.091598718 -8.3050728e-05 0.003062762)
(0.091620607 1.4914376e-05 0.003021997)
(0.09145297 -0.00011479491 0.0032803335)
(0.09150292 -6.2744507e-05 0.0033842105)
(0.091578682 -6.0305764e-06 0.0031198427)
(0.091256392 -6.8555533e-08 0.0043543243)
(0.090472343 -0.0001524891 0.0050609309)
(0.090411238 -2.4069735e-05 0.00498167)
(0.091304949 -5.8192232e-06 0.0042712926)
(0.08587729 -0.00016017816 -0.00096610948)
(0.085998334 -1.7709399e-05 -0.0009667025)
(0.085679538 -0.0001660891 0.0014280024)
(0.085825272 -2.5238652e-05 0.0014169054)
(0.086489833 -0.00010764767 0.0044377013)
(0.086586188 -0.00012539656 0.0043469269)
(0.086653586 -7.2501408e-05 0.0043264303)
(0.086532711 -3.2161637e-05 0.004418827)
(0.089004637 -0.00025284929 0.0053739566)
(0.086738707 -8.8064429e-05 0.0055395439)
(0.08714863 -0.0001007842 0.0054842267)
(0.089144931 -4.2645575e-05 0.0052750461)
(0.089169308 -0.00016721307 0.0052708886)
(0.087209399 -2.2570424e-05 0.0054378599)
(0.086792165 -2.7081418e-05 0.0055472379)
(0.089040773 8.7792986e-05 0.005357096)
(0.087235029 -0.00010522407 0.0054467388)
(0.086827159 -0.00012630157 0.0055284287)
(0.089052881 -0.00026881437 0.0053559851)
(0.089185015 9.1830401e-07 0.0052659511)
(0.086769084 -4.2010938e-05 0.0055398436)
(0.087183961 -2.6928526e-05 0.0054719967)
(0.089165429 -0.00011262172 0.0052757762)
(0.089024387 0.00011274189 0.0053716575)
(0.085820888 -0.00013327386 0.0014167871)
(0.08653026 -0.00013169006 0.0044184448)
(0.086649201 -9.1558938e-05 0.004326313)
(0.089023636 -0.00028113682 0.0053716291)
(0.086769218 -0.00012503533 0.005538286)
(0.087180784 -0.00013969017 0.0054728105)
(0.089162952 -5.5564218e-05 0.0052754489)
(0.08918077 -0.00016911478 0.0052659126)
(0.087231519 -6.1444523e-05 0.0054455318)
(0.086820385 -4.0892841e-05 0.0055296279)
(0.089046991 0.00010040503 0.005355672)
(0.085671274 8.0306884e-06 0.0014277447)
(0.085993744 -0.00014049628 -0.00096648291)
(0.085868847 2.2721203e-06 -0.00096648224)
(0.091727144 -7.3477513e-05 0.0062340806)
(0.091735997 -7.1319813e-05 0.0062327628)
(0.092485142 -7.4169986e-05 0.0043033303)
(0.0924751 -6.927326e-05 0.0043317455)
(0.091725863 -6.8852719e-05 0.0062337801)
(0.091708207 -5.8379067e-05 0.0062394222)
(0.092468819 -5.6022017e-05 0.0043303876)
(0.0924726 -4.9767666e-05 0.0042950712)
(0.09224162 -5.9548079e-05 0.0033534088)
(0.091950266 -5.4290193e-05 0.0028924845)
(0.091954696 -5.739123e-05 0.0028941623)
(0.092237689 -6.3093166e-05 0.0033187238)
(0.092239927 -5.6517394e-05 0.0033291099)
(0.09195112 -6.010523e-05 0.0029014356)
(0.091944388 -6.5512355e-05 0.0029061861)
(0.09224651 -6.2536581e-05 0.0033641226)
(0.091696427 -6.8296364e-05 0.0027191904)
(0.091704073 -6.6887574e-05 0.0027241578)
(0.091544928 -7.2012017e-05 0.0026784097)
(0.091549949 -7.2774616e-05 0.0026435752)
(0.091708284 -6.1438682e-05 0.0027308856)
(0.091704053 -5.4994536e-05 0.0027317304)
(0.091551214 -5.0421708e-05 0.0026529042)
(0.091544882 -5.7248297e-05 0.0026880422)
(0.091486557 -6.7433669e-05 0.0026206723)
(0.091493698 -6.4008834e-05 0.0026487984)
(0.091488138 -6.2021305e-05 0.0026196183)
(0.091512339 -6.4871298e-05 0.0026670344)
(0.091506032 -6.890487e-05 0.0026682627)
(0.091703773 -8.5196828e-05 0.0027375774)
(0.091708749 -7.7843008e-05 0.0027362724)
(0.09154209 -8.2683727e-05 0.0026947199)
(0.091547085 -9.0841657e-05 0.002660295)
(0.091704987 -7.1345033e-05 0.002728394)
(0.091696907 -6.8552809e-05 0.0027220632)
(0.091549378 -6.3761574e-05 0.0026463782)
(0.091543209 -6.6333546e-05 0.0026843585)
(0.091503048 -7.3853247e-05 0.0026700595)
(0.091491989 -7.5085202e-05 0.0026518809)
(0.091483428 -7.8427356e-05 0.0026241789)
(0.091504758 -7.850943e-05 0.0026703637)
(0.091500565 -8.2879421e-05 0.0026718254)
(0.091479652 -7.4209426e-05 0.0026275801)
(0.091483489 -8.1217861e-05 0.0026634083)
(0.091492322 -8.7983909e-05 0.0026708533)
(0.09174608 -7.6937148e-05 0.0062306602)
(0.091732288 -7.8338065e-05 0.0062334115)
(0.092488183 -7.0895392e-05 0.0043028482)
(0.092482264 -7.421425e-05 0.0043317088)
(0.092248549 -7.8766875e-05 0.0033651851)
(0.091945697 -7.2460459e-05 0.0029074625)
(0.091954214 -7.8245719e-05 0.0029048735)
(0.092245074 -8.4146046e-05 0.0033298946)
(0.092479099 -8.515082e-05 0.0043301465)
(0.091739627 -7.4636797e-05 0.0062314585)
(0.091722059 -7.95966e-05 0.0062374761)
(0.09248339 -8.8345189e-05 0.0042956414)
(0.092249087 -7.9134214e-05 0.0033565617)
(0.092244915 -7.6613322e-05 0.0033216976)
(0.091958387 -8.1375402e-05 0.0028994863)
(0.091953706 -8.4904001e-05 0.0028981377)
(0.091726347 -9.144607e-05 0.0062330695)
(0.091741939 -9.2938317e-05 0.006230574)
(0.092478298 -9.7336887e-05 0.004331666)
(0.092482295 -0.00010060259 0.0043026022)
(0.091736992 -9.5326231e-05 0.0062313702)
(0.091721308 -9.0427548e-05 0.00623737)
(0.092482705 -8.3297279e-05 0.0042955639)
(0.092476664 -8.6434701e-05 0.0043298933)
(0.091952885 -9.0034434e-05 0.0028981195)
(0.092248301 -9.4100764e-05 0.0033564032)
(0.09224238 -9.6625131e-05 0.0033214337)
(0.091955835 -9.3531031e-05 0.0028993938)
(0.092242595 -9.447972e-05 0.0033650187)
(0.092240929 -8.9116766e-05 0.003329669)
(0.091949998 -9.6680143e-05 0.0029048248)
(0.091939758 -0.00010246004 0.0029074181)
(0.091491547 -9.3353094e-05 0.0026708837)
(0.091482687 -9.8606819e-05 0.0026634218)
(0.09147733 -0.00010556418 0.002627692)
(0.091498329 -9.8430708e-05 0.002672005)
(0.09154625 -8.7375677e-05 0.0026603012)
(0.091702945 -9.1364549e-05 0.002737536)
(0.091706259 -9.8732902e-05 0.0027363256)
(0.091539652 -9.5511844e-05 0.0026947617)
(0.091500974 -0.00010280504 0.0026706563)
(0.091479508 -0.00010134615 0.0026245053)
(0.091486543 -0.00010471009 0.0026522896)
(0.091539163 -0.00011186046 0.0026846445)
(0.091700831 -0.00010524013 0.0027284917)
(0.091691107 -0.00010803521 0.0027222785)
(0.091543738 -0.00011444836 0.0026466914)
(0.089085952 -7.7589209e-06 -0.00049265917)
(0.089671356 -4.4497761e-05 -0.00045783589)
(0.089679527 -7.0571127e-05 -0.00045893998)
(0.090125086 -6.1031239e-05 -0.00025753412)
(0.090116683 -7.0398472e-05 -0.00025854853)