/*--------------------------------*- C++ -*----------------------------------*\
  =========                 |
  \\      /  F ield         | OpenFOAM: The Open Source CFD Toolbox
   \\    /   O peration     | Website:  https://openfoam.org
    \\  /    A nd           | Version:  7
     \\/     M anipulation  |
\*---------------------------------------------------------------------------*/
FoamFile
{
    version     2.0;
    format      ascii;
    class       volScalarField;
    location    "1000";
    object      k;
}
// * * * * * * * * * * * * * * * * * * * * * * * * * * * * * * * * * * * * * //

dimensions      [0 2 -2 0 0 0 0];

internalField   nonuniform List<scalar> 
33899
(
1.5192927
1.5196299
1.5206624
1.5193758
1.5194849
1.5199506
1.5195363
1.5193253
1.519632
1.5181644
1.5181969
1.5197255
1.5197623
1.5198145
1.5208554
1.5199956
1.5199605
1.5200694
1.5203414
1.5211971
1.520401
1.5206189
1.5196186
1.5194087
1.5193617
1.5194528
1.5213466
1.519957
1.5200295
1.519568
1.5196346
1.5202393
1.521493
1.5211563
1.5174027
1.5174996
1.517254
1.5171544
1.5182392
1.5171721
1.5172726
1.5175458
1.5174599
1.5182429
1.5171816
1.5172572
1.5172121
1.5175127
1.5193579
1.519387
1.5195333
1.5195514
1.5196418
1.5198763
1.519599
1.5194334
1.5194644
1.51964
1.5195536
1.5193754
1.5193957
1.5195562
1.5200187
1.5198289
1.5199145
1.5196682
1.5196446
1.5196646
1.5196845
1.5197172
1.519696
1.519753
1.5197288
1.520016
1.5203284
1.520303
1.5202111
1.5204414
1.5199405
1.5192759
1.5172319
1.5167207
1.5204838
1.520867
1.5204916
1.5206639
1.5200321
1.5214985
1.5195522
1.520337
1.5193694
1.519347
1.5194224
1.5214999
1.5214407
1.5199764
1.5201245
1.520063
1.5196462
1.5192755
1.5171201
1.5208835
1.5215337
1.5212607
1.5207042
1.5209317
1.5209053
1.5207446
1.5208088
1.5204373
1.5203659
1.5168785
1.5169959
1.5172245
1.5172206
1.5170018
1.5174279
1.5171987
1.5169725
1.5172295
1.5170301
1.5168613
1.5169056
1.5168489
1.5168897
1.5168864
1.516888
1.5172331
1.5168802
1.5168752
1.5171257
1.5172196
1.5172478
1.5168916
1.5168821
1.5168958
1.5169094
1.5168554
1.5168454
1.5168813
1.5168886
1.5172595
1.5169747
1.5170246
1.5172808
1.5174742
1.517295
1.5170284
1.5170394
1.5173108
1.5173066
1.5171367
1.5171338
1.517239
1.5168619
1.5168705
1.5169117
1.517267
1.5169962
1.5170587
1.5173032
1.5191064
1.5191269
1.5193056
1.519295
1.51913
1.519104
1.5193079
1.5193237
1.5194131
1.5194363
1.5194609
1.5194373
1.5194721
1.519444
1.5194706
1.5194973
1.5195362
1.51953
1.5195549
1.519562
1.5195654
1.5195461
1.5196047
1.5196813
1.5196822
1.5194458
1.5194285
1.5194196
1.519437
1.5193487
1.519166
1.5191601
1.5193293
1.5192216
1.5192637
1.5194353
1.5193921
1.5195264
1.5195141
1.5194745
1.5194883
1.5194161
1.5193958
1.5194009
1.5194208
1.5193055
1.519122
1.5191271
1.5192984
1.5191021
1.519287
1.5192973
1.519128
1.5194329
1.5193908
1.5194132
1.5194116
1.519796
1.5198163
1.5198278
1.5198105
1.519762
1.51986
1.5195274
1.5195135
1.5195243
1.5195376
1.5195011
1.5194971
1.5195101
1.5195063
1.5195005
1.5195251
1.5195302
1.5195048
1.5195337
1.5195189
1.5195446
1.519558
1.5195454
1.5195329
1.5195487
1.5195328
1.5195226
1.5195176
1.5195163
1.51952
1.5196253
1.5196072
1.5195733
1.5195883
1.5196003
1.5195919
1.5195573
1.5195624
1.5191547
1.5192687
1.5201386
1.5200289
1.5200516
1.5200828
1.5200663
1.5197338
1.5197801
1.5197938
1.5197479
1.5198025
1.5209632
1.5192208
1.5193414
1.519351
1.519249
1.519338
1.5193085
1.5193069
1.5193171
1.5196644
1.5166787
1.5173334
1.5171472
1.5166707
1.5167914
1.5164091
1.5209896
1.520585
1.5220102
1.5209138
1.5205813
1.5207147
1.5201622
1.5195454
1.5192625
1.5193871
1.5217518
1.5215393
1.5195075
1.5204586
1.5202506
1.5193395
1.5193331
1.5193878
1.5216762
1.5216044
1.5215483
1.5199993
1.5201935
1.5201654
1.5188023
1.5192925
1.5160343
1.5191894
1.5208101
1.5208563
1.5212256
1.5209648
1.5206952
1.5209225
1.5207549
1.520742
1.5208915
1.5207268
1.5204206
1.5203418
1.5205511
1.5204531
1.5206645
1.520666
1.5206394
1.5206306
1.5205944
1.5206127
1.520605
1.5205836
1.5204749
1.5204657
1.5204427
1.5204505
1.5204318
1.5204123
1.5202716
1.5202705
1.5199047
1.5199374
1.5202866
1.5199413
1.5202883
1.5199401
1.5167172
1.5167248
1.5167466
1.5170773
1.5167964
1.5168095
1.5167953
1.5167768
1.5172616
1.5168938
1.5170927
1.51708
1.5168779
1.5168501
1.5170629
1.5170785
1.5168863
1.5167948
1.5167741
1.5167536
1.5167728
1.5172219
1.5171234
1.5171001
1.5170766
1.5168759
1.5169174
1.5167637
1.5167875
1.5168107
1.5167874
1.5169146
1.5171106
1.517143
1.5169663
1.5168478
1.5168101
1.5167853
1.5168228
1.5167067
1.5166854
1.5166982
1.5166759
1.5167383
1.5167039
1.5166944
1.5167287
1.5166645
1.5166739
1.5166927
1.5166841
1.516681
1.5166893
1.5167208
1.5167132
1.5166949
1.5166794
1.5166862
1.5166709
1.5169449
1.5167036
1.5167205
1.5167149
1.5166955
1.5169363
1.5169763
1.516972
1.5166954
1.5167105
1.5167093
1.5166883
1.5166628
1.5166708
1.5166839
1.5166747
1.517035
1.5171354
1.5169573
1.516968
1.5169803
1.5169901
1.5166744
1.5166686
1.5166779
1.5166816
1.51666
1.5166642
1.5166745
1.5166685
1.5166962
1.5167213
1.5167247
1.5166944
1.5167026
1.5167296
1.51674
1.5167089
1.5166667
1.5166623
1.5166794
1.5166836
1.516653
1.5166599
1.5166775
1.5166709
1.5166647
1.5166719
1.5167023
1.5166964
1.516705
1.5166731
1.5166786
1.5167092
1.5171741
1.5168831
1.5169201
1.517186
1.5167596
1.5167502
1.5167699
1.5167784
1.5168002
1.5167615
1.5167709
1.5168087
1.5169586
1.5169059
1.5171895
1.5172122
1.5171128
1.5173416
1.517139
1.5173075
1.5171812
1.5168875
1.5169106
1.5171836
1.5167721
1.5167595
1.5167701
1.5167795
1.516802
1.5168378
1.5168573
1.5168165
1.516942
1.5169755
1.5172354
1.5172151
1.5172686
1.5170653
1.5160267
1.51622
1.5167321
1.5167028
1.5166966
1.5167259
1.5167111
1.5167057
1.5167348
1.5167398
1.5167452
1.5167389
1.5172252
1.5169523
1.5172475
1.5170018
1.516809
1.5167989
1.5168422
1.5168319
1.5168335
1.5168462
1.5168872
1.5170503
1.5169982
1.5172652
1.5172902
1.5187893
1.5187767
1.5191283
1.5191094
1.5187303
1.518759
1.5191417
1.5191485
1.519214
1.5192337
1.5192698
1.5192468
1.5192877
1.5192502
1.5192607
1.5193
1.5193432
1.5193324
1.5193513
1.5193665
1.5193349
1.5194029
1.5194698
1.5194762
1.5195228
1.5196104
1.5195972
1.5195896
1.5195666
1.5195761
1.5192367
1.5192174
1.5191849
1.5192069
1.5191337
1.5189281
1.5188753
1.5190956
1.5189987
1.5190989
1.5192755
1.519192
1.519368
1.5193541
1.5192705
1.5192872
1.5191933
1.5191692
1.5191673
1.5191935
1.5190751
1.5188392
1.5188178
1.5190695
1.5188061
1.5190759
1.51909
1.5187973
1.5192237
1.5191763
1.5192044
1.5191925
1.5196537
1.5196998
1.5197028
1.5196601
1.5196695
1.5197153
1.5197267
1.5196858
1.5197533
1.519737
1.5190099
1.5191122
1.5193129
1.5192965
1.5192994
1.5193169
1.5192879
1.5192801
1.5192903
1.5192823
1.5192936
1.5193109
1.5193213
1.5193021
1.5193299
1.5193115
1.5193294
1.5193483
1.5193219
1.5193314
1.5193473
1.5193065
1.519324
1.5193163
1.5192907
1.5192984
1.5194694
1.5194542
1.5193766
1.5193921
1.5194475
1.5194395
1.5193617
1.5193697
1.5190166
1.5191139
1.5192584
1.5192574
1.5199761
1.5199907
1.5199234
1.5199174
1.5198564
1.5198663
1.5198785
1.5199393
1.5199476
1.5198913
1.5194653
1.5194366
1.5195151
1.5196034
1.5196155
1.5195285
1.5196254
1.5165826
1.520983
1.521065
1.5212454
1.5211483
1.5207558
1.5208814
1.5208622
1.5207485
1.5198212
1.5220648
1.5219363
1.5193734
1.5198845
1.5192683
1.5193474
1.5193217
1.5200176
1.5183432
1.5189577
1.5180343
1.5186139
1.5163339
1.5165907
1.5182461
1.5172334
1.5170555
1.5166295
1.5167768
1.5166694
1.5161629
1.5162794
1.5167373
1.5164212
1.5160336
1.5161734
1.5162376
1.5161141
1.5210214
1.5210918
1.5206897
1.5221219
1.5220933
1.5209682
1.5206774
1.5207647
1.5203353
1.5192069
1.5193197
1.5195665
1.5194845
1.5191026
1.5188165
1.5220189
1.5218324
1.5215925
1.5194617
1.5205858
1.5203823
1.5201617
1.5193138
1.5217999
1.5217267
1.521682
1.520242
1.5159399
1.5163872
1.5186162
1.5186228
1.5189011
1.5160117
1.5158738
1.5192877
1.5193267
1.5193216
1.5192867
1.516211
1.5160316
1.5173209
1.5190644
1.5190718
1.5191537
1.5191559
1.5208371
1.5209007
1.5209656
1.5209552
1.5209069
1.5208984
1.5210256
1.5209629
1.5210013
1.5210256
1.5209821
1.5175172
1.520543
1.5204954
1.5206019
1.5206746
1.5206538
1.5205899
1.520625
1.5206062
1.520548
1.5205373
1.5204659
1.5204403
1.5203777
1.5203633
1.5202721
1.519983
1.5201835
1.5199823
1.5200553
1.5202907
1.5172968
1.5202768
1.520266
1.5201824
1.5201913
1.5203234
1.5203502
1.520289
1.520249
1.5202606
1.5202654
1.520228
1.5202205
1.5201638
1.5201584
1.5201524
1.5201559
1.5200237
1.5200467
1.5201974
1.5202174
1.5201775
1.5201536
1.5202263
1.5202292
1.5201907
1.520184
1.5201116
1.5201188
1.5201208
1.5201114
1.5201061
1.5201038
1.5200813
1.5200822
1.520005
1.519989
1.5199791
1.5199924
1.5200557
1.5200808
1.5200757
1.5200421
1.5200592
1.5200776
1.520053
1.5200274
1.5200058
1.5199921
1.5199661
1.5199772
1.5199497
1.5199381
1.5199256
1.5199545
1.5199742
1.5199447
1.5198428
1.5198145
1.5198558
1.5198841
1.5198627
1.5198339
1.5198555
1.5193567
1.5197127
1.5197117
1.51939
1.5197041
1.5196822
1.5193451
1.5193997
1.5199479
1.5199572
1.5199361
1.5199164
1.5194837
1.5197991
1.5197797
1.5194414
1.5198651
1.5198944
1.5199064
1.5198783
1.5197439
1.519743
1.5193798
1.5194034
1.5163331
1.5163345
1.5163531
1.5168663
1.5169291
1.5169187
1.5168555
1.5165124
1.5165228
1.5164307
1.5164182
1.5171369
1.5171425
1.5170548
1.5169778
1.5165881
1.5167513
1.5166544
1.5164855
1.5164429
1.5166131
1.5165931
1.5164228
1.5163694
1.5163898
1.5163761
1.5163539
1.5170939
1.5169949
1.5166056
1.5165907
1.5164185
1.5164256
1.5163467
1.5163632
1.5163683
1.5163511
1.516441
1.5166331
1.5166683
1.5164613
1.5164024
1.5163818
1.5163641
1.5163821
1.5162957
1.5162887
1.5162887
1.5162826
1.5163315
1.5163101
1.5163021
1.5163203
1.516276
1.5162777
1.5162817
1.5162798
1.5162925
1.5162944
1.5163124
1.5163106
1.5162945
1.5163163
1.516289
1.5163112
1.516802
1.5168049
1.5167673
1.5167613
1.5163577
1.5164464
1.516443
1.5163532
1.516757
1.5167976
1.5167974
1.516757
1.5168648
1.516858
1.5163502
1.5164394
1.5164403
1.5163499
1.5163071
1.516308
1.5162847
1.5162834
1.5159965
1.5160304
1.5167773
1.5168202
1.5168219
1.5167805
1.5167875
1.5168314
1.5168384
1.5167973
1.5168785
1.5168884
1.5163387
1.5163289
1.5163026
1.5163119
1.5163224
1.5163222
1.5162965
1.5162952
1.5163688
1.5164639
1.5164682
1.5163714
1.5163769
1.5164747
1.5164859
1.516388
1.5163018
1.5162926
1.5162953
1.5163047
1.5162842
1.5162867
1.5162896
1.516286
1.5162973
1.5163018
1.5163199
1.5163148
1.5163275
1.5163075
1.5163175
1.5163364
1.5168241
1.5164914
1.5164952
1.516838
1.5163943
1.5163811
1.5163832
1.5163965
1.5164151
1.5163951
1.5164092
1.5164284
1.5165327
1.5165097
1.5168636
1.5168952
1.5169096
1.5169645
1.5169757
1.5169274
1.5170568
1.5171133
1.5172669
1.5172787
1.5170465
1.5172396
1.5168465
1.5165361
1.5165035
1.5168254
1.5164376
1.5164223
1.5163925
1.5164065
1.5164771
1.5165861
1.5166052
1.5164954
1.5165995
1.516722
1.5169925
1.5168981
1.5163752
1.5161256
1.5160275
1.515996
1.5161226
1.5163672
1.5163638
1.5163409
1.5163354
1.5163562
1.5163583
1.5163485
1.5163695
1.5163804
1.5164005
1.5163884
1.5169274
1.5165567
1.5169578
1.516581
1.5164509
1.5164361
1.5164738
1.5164572
1.5164762
1.5164947
1.5165121
1.5166222
1.516603
1.5169843
1.5170072
1.5186471
1.5186385
1.5188464
1.5188345
1.5186245
1.5186212
1.5188299
1.5188135
1.5191259
1.5191209
1.5191563
1.5191588
1.5191369
1.5191051
1.5191152
1.5191453
1.518545
1.5185487
1.5187624
1.5187379
1.5185906
1.5185925
1.518803
1.5187819
1.5191617
1.5191233
1.5191229
1.5191591
1.5191081
1.5191131
1.5191549
1.519148
1.5192305
1.5192248
1.5192345
1.5192406
1.5192482
1.5192427
1.5192501
1.519255
1.5192827
1.5192758
1.5192902
1.5192953
1.5192682
1.5192544
1.5192656
1.5192784
1.5192996
1.5192852
1.5192869
1.5193003
1.5192498
1.5192497
1.5192582
1.5192582
1.5192405
1.5192442
1.5192545
1.5192508
1.5192809
1.5192829
1.5192979
1.519295
1.5193564
1.5193549
1.5193639
1.5193659
1.5193472
1.5193444
1.5193528
1.5193563
1.5193641
1.5193598
1.5193646
1.5193688
1.5193642
1.5193647
1.5193708
1.5193704
1.5192057
1.519334
1.5193502
1.5194079
1.5188746
1.5189754
1.5195214
1.5195282
1.5194447
1.5194561
1.519022
1.5190082
1.5190442
1.5190568
1.5190244
1.51899
1.5189961
1.5190301
1.519032
1.5190259
1.5190585
1.5190643
1.5190603
1.5190465
1.51908
1.519093
1.5189081
1.5188854
1.5189188
1.5189405
1.518791
1.5185702
1.518603
1.5188062
1.5188021
1.5185818
1.5186183
1.5188165
1.5189404
1.5189163
1.5189491
1.5189721
1.5187993
1.5186044
1.5185912
1.5188072
1.5186636
1.5186405
1.5188523
1.5188385
1.5189263
1.5189243
1.518911
1.5189388
1.5188989
1.5188773
1.5188947
1.5189195
1.5190194
1.5190119
1.5190206
1.5190289
1.5190068
1.5189979
1.5190003
1.5190113
1.5189976
1.518972
1.5189763
1.5190032
1.5190144
1.5189871
1.5189983
1.5190271
1.519104
1.5190893
1.5191197
1.5191336
1.5190736
1.5190672
1.5190967
1.5191029
1.5191378
1.5191107
1.5191177
1.5191431
1.5191624
1.5191342
1.5191499
1.5191755
1.5189807
1.5189549
1.5189852
1.5190096
1.5186385
1.518606
1.5188198
1.5188301
1.5186534
1.5186271
1.5188367
1.5188419
1.5190249
1.5189969
1.5190244
1.5190493
1.518661
1.5186411
1.5188487
1.5188481
1.5190673
1.5190395
1.519061
1.5190873
1.5190929
1.5190754
1.5191055
1.51912
1.5186604
1.5186461
1.5188526
1.5188463
1.5192387
1.5192204
1.5192354
1.5192509
1.5191768
1.5191545
1.5191607
1.5191813
1.5191943
1.5191796
1.5192015
1.519215
1.51921
1.5191931
1.5191987
1.5192142
1.5195365
1.5196344
1.5196357
1.5195431
1.5195511
1.5196493
1.5196583
1.5195661
1.5191276
1.5191119
1.5188768
1.5189766
1.5191119
1.5191282
1.5192338
1.519219
1.5192491
1.5192627
1.5192093
1.5192114
1.5192399
1.5192384
1.5192811
1.5192552
1.5192541
1.5192791
1.519291
1.5192638
1.5192792
1.5193037
1.5192003
1.519201
1.5192295
1.5192295
1.5192214
1.5191914
1.5191952
1.5192239
1.5192707
1.5192447
1.5192451
1.5192701
1.5192623
1.5192363
1.5192393
1.5192638
1.5192998
1.519279
1.5192812
1.5193008
1.5193308
1.5193155
1.5193175
1.5193321
1.5193408
1.519325
1.5193266
1.5193414
1.5192877
1.5192877
1.5193071
1.5193078
1.5193218
1.5193074
1.5193279
1.5193412
1.519319
1.5192982
1.5192966
1.5193167
1.5193503
1.519335
1.5193332
1.5193482
1.5193602
1.5193433
1.5193583
1.5193726
1.519188
1.5191735
1.5192074
1.5192208
1.5191623
1.5191265
1.5191254
1.5191607
1.5191686
1.5191321
1.519146
1.5191819
1.519165
1.5191672
1.5191994
1.5191974
1.519117
1.5191181
1.5191531
1.5191517
1.5191435
1.5191077
1.5191124
1.5191473
1.5191515
1.5191476
1.51918
1.5191835
1.5191561
1.5191576
1.5191893
1.5191884
1.5191314
1.5191241
1.5191212
1.5191345
1.5191179
1.5191167
1.5191158
1.5191141
1.5191287
1.5190984
1.5190972
1.5191282
1.5191036
1.5191347
1.5191472
1.5191159
1.5191099
1.5191076
1.5191069
1.519112
1.5191015
1.5190993
1.5191023
1.5191069
1.5191106
1.5190808
1.5190851
1.5191152
1.5190898
1.5191202
1.5190904
1.5191196
1.5189854
1.5188918
1.5188999
1.5189841
1.519114
1.5191285
1.5191275
1.5191141
1.5192556
1.5192617
1.5192615
1.519256
1.5192544
1.5192611
1.5192543
1.519261
1.5198393
1.5198422
1.5198585
1.5198632
1.5197174
1.5197269
1.5197392
1.5197477
1.5192439
1.5192364
1.5192743
1.5192821
1.5192864
1.519278
1.5193119
1.5193202
1.5192051
1.5192389
1.5192458
1.5192118
1.5192272
1.519221
1.5192218
1.5192278
1.5192315
1.5192302
1.5192316
1.5192323
1.5192167
1.5192509
1.5192503
1.5192163
1.5192372
1.5192348
1.5192391
1.5192345
1.5192232
1.5186226
1.5168012
1.5162139
1.5163167
1.5168023
1.5167512
1.5165715
1.5165303
1.516699
1.5215491
1.520931
1.5216215
1.5226252
1.5225337
1.521101
1.5205394
1.5207825
1.5208073
1.5205945
1.5198589
1.5225516
1.5224328
1.5217967
1.5194102
1.519942
1.5199795
1.51929
1.5218242
1.5206863
1.5210553
1.519214
1.5183082
1.5183775
1.5189003
1.5180954
1.5174793
1.5177566
1.5178333
1.5175744
1.5185986
1.5179813
1.5184114
1.5184967
1.5181151
1.5163067
1.5161657
1.5165099
1.5183019
1.518238
1.5171434
1.516966
1.5165999
1.5167695
1.5161928
1.5161157
1.51661
1.5166597
1.5163608
1.5159221
1.5164539
1.5161257
1.5161712
1.5160433
1.5159903
1.5158548
1.5159849
1.5210923
1.5211225
1.5211988
1.5207858
1.522257
1.5222188
1.5221781
1.521019
1.5195167
1.5195217
1.5192823
1.5194014
1.5191527
1.5188578
1.5188374
1.5191108
1.5191256
1.5190744
1.5191023
1.5186553
1.5189309
1.5189065
1.5186527
1.5221276
1.5219424
1.5216546
1.5205172
1.5203032
1.5200792
1.521942
1.5218891
1.5159503
1.5159547
1.5159763
1.5159733
1.5165107
1.5161936
1.5161471
1.5165132
1.518643
1.5186226
1.5183664
1.518349
1.5183585
1.5183295
1.5186084
1.5188661
1.5188613
1.5189008
1.5174616
1.5172232
1.5161399
1.5161389
1.5159931
1.5160088
1.5159183
1.5159192
1.5159193
1.515918
1.5181224
1.5176396
1.5195431
1.519565
1.5192908
1.5161164
1.516117
1.516345
1.5163216
1.5173233
1.5160303
1.5159996
1.5159988
1.5160263
1.5220196
1.5175246
1.5192523
1.5189892
1.5191625
1.5193996
1.5217882
1.5209885
1.5209448
1.5210003
1.520991
1.5209742
1.5209448
1.5209571
1.5209353
1.5211824
1.5211852
1.5212106
1.5212095
1.5210136
1.5210976
1.5211257
1.521029
1.5211377
1.5211452
1.5211717
1.5211663
1.5211993
1.5212026
1.5211972
1.5211959
1.5211544
1.5211573
1.521044
1.5210426
1.5177395
1.5175829
1.5177507
1.5175839
1.5203265
1.520278
1.5202227
1.5202
1.5203783
1.5204001
1.5203556
1.5203554
1.5203106
1.5203131
1.5203255
1.5203186
1.5202896
1.5202661
1.5202656
1.5202815
1.5202778
1.5202514
1.520242
1.5202554
1.5200978
1.5201009
1.5201307
1.5201223
1.5201238
1.5200857
1.5200773
1.5201019
1.520036
1.5200152
1.5199279
1.5199396
1.5199839
1.5199619
1.5198191
1.5197715
1.5195939
1.5195488
1.5198507
1.5196354
1.5172044
1.5173206
1.5173217
1.5172089
1.5193244
1.5193905
1.51919
1.5191011
1.5194841
1.5196652
1.5195284
1.519309
1.5194794
1.5194878
1.5192595
1.5192474
1.5190363
1.5191316
1.5191181
1.5190224
1.5188698
1.5188367
1.5188525
1.5193909
1.519408
1.5191655
1.5191476
1.5194211
1.5194219
1.5191834
1.5191799
1.519043
1.5190481
1.518947
1.5189409
1.5189239
1.5190273
1.5190098
1.5189073
1.5187981
1.5188984
1.5188887
1.5187876
1.5190311
1.5192603
1.5192573
1.519021
1.5192502
1.5192663
1.5190297
1.5190145
1.5187981
1.5188969
1.5188825
1.5187839
1.5187299
1.5187171
1.518716
1.5187297
1.518688
1.5186749
1.5186148
1.518593
1.5185909
1.5186294
1.5186666
1.5186474
1.5186089
1.5182818
1.5185655
1.5185283
1.5182391
1.5185109
1.5185113
1.5182137
1.5182024
1.518949
1.5191618
1.5191449
1.518926
1.5187693
1.5190322
1.5188263
1.5185536
1.5188035
1.5188247
1.5187308
1.518711
1.5186258
1.5187121
1.5184357
1.5183456
1.5163267
1.5163213
1.5163371
1.5163427
1.5163191
1.5163244
1.5163392
1.5163352
1.5163472
1.5163541
1.5166538
1.516817
1.516805
1.5166453
1.5159071
1.5159027
1.5159244
1.5159326
1.5159092
1.5159317
1.5159131
1.5159402
1.5160131
1.5159353
1.515927
1.5160028
1.5159273
1.5160021
1.5159187
1.5159934
1.5168861
1.5170087
1.5169292
1.5167473
1.5159491
1.5159753
1.5159445
1.5159672
1.5160862
1.5161213
1.5160185
1.515987
1.5162217
1.5161239
1.5160184
1.516116
1.5159653
1.5160552
1.515975
1.5160438
1.5160572
1.5160709
1.5161476
1.5161347
1.5163316
1.5162445
1.5161297
1.5162243
1.5162387
1.5163567
1.5164271
1.516319
1.5161495
1.5161644
1.5162273
1.5162143
1.5161033
1.5161161
1.5161774
1.5161658
1.5161005
1.5160253
1.5160139
1.5160888
1.5160036
1.5160142
1.5160873
1.5160776
1.5160903
1.5161011
1.516161
1.516152
1.516043
1.5159954
1.5166025
1.5165523
1.5164329
1.5164914
1.5165149
1.5164559
1.516338
1.5164062
1.5162318
1.5162458
1.5162971
1.5162851
1.5163605
1.5163173
1.5163048
1.516348
1.5161683
1.5161774
1.5162261
1.5162189
1.5161819
1.5161943
1.5162439
1.516233
1.5163045
1.5162629
1.5162516
1.516293
1.5162858
1.5162446
1.5162378
1.5162788
1.5163684
1.516381
1.516413
1.5164024
1.5166798
1.5166404
1.5165185
1.516567
1.5167471
1.5167173
1.5165938
1.5166338
1.5164577
1.5164319
1.5164213
1.5164471
1.5164002
1.5163761
1.5163644
1.5163885
1.5163562
1.516324
1.5163123
1.5163446
1.5162985
1.5163047
1.5163349
1.5163303
1.5163764
1.5163523
1.5163485
1.5163723
1.5162409
1.5162007
1.5161906
1.5162304
1.5161793
1.5161297
1.5161207
1.5161698
1.5162276
1.5161876
1.5161849
1.516224
1.5161157
1.5161199
1.5161671
1.5161642
1.5163342
1.5163115
1.5163002
1.5163232
1.5162914
1.5162606
1.5162497
1.5162804
1.5162431
1.5162462
1.5162753
1.5162733
1.5163157
1.5162924
1.5162909
1.5163135
1.5161134
1.5161115
1.5161585
1.5161609
1.516109
1.5161166
1.5161635
1.5161572
1.5162209
1.5161816
1.5161751
1.516214
1.5162161
1.5161762
1.5161794
1.5162179
1.5162375
1.5162345
1.5162642
1.5162677
1.5162698
1.5162393
1.5162327
1.5162629
1.5163093
1.5162865
1.5162803
1.5163031
1.5163055
1.5162814
1.5162864
1.5163091
1.516043
1.5160523
1.5161113
1.5161031
1.5160378
1.5159663
1.5159585
1.5160295
1.5160389
1.5160443
1.5161022
1.516098
1.5159557
1.5159602
1.5160299
1.5160252
1.516695
1.5167003
1.5165645
1.5165603
1.5158776
1.5158842
1.5159549
1.5159482
1.5158832
1.5158685
1.5158906
1.5158644
1.5158836
1.5158632
1.5158851
1.5158642
1.5159486
1.5158781
1.5158765
1.5159456
1.5165562
1.5166931
1.5166911
1.5165584
1.5159416
1.5159467
1.5158733
1.5159494
1.5158787
1.5159434
1.5158625
1.5158646
1.5158858
1.5158796
1.5158892
1.5158664
1.5158861
1.5158715
1.515947
1.5158777
1.5158815
1.5159499
1.5159587
1.5159566
1.5160254
1.516027
1.516029
1.5159584
1.5159519
1.516022
1.5160335
1.5160414
1.516099
1.5160921
1.5160387
1.5160376
1.5160946
1.5160961
1.5159419
1.5159476
1.5160424
1.5159959
1.5165871
1.5167221
1.5167214
1.5165918
1.5165992
1.5167334
1.5167382
1.5166103
1.51604
1.5160581
1.5160068
1.515998
1.5160636
1.516071
1.5160625
1.5159959
1.5159918
1.5160574
1.5160677
1.5160736
1.5161275
1.5161221
1.5160821
1.5160742
1.5161284
1.5161361
1.5159854
1.5159859
1.51605
1.5160493
1.5160553
1.5159876
1.5159851
1.5160514
1.5160616
1.5160667
1.5161214
1.5161167
1.5160598
1.5160608
1.5161138
1.5161135
1.5159796
1.5159145
1.5159139
1.5159778
1.5159181
1.5159152
1.5159269
1.5159258
1.5159295
1.5159211
1.5159299
1.5159225
1.5159777
1.5159167
1.5159167
1.515978
1.5159879
1.5159244
1.5159211
1.5159847
1.515929
1.5159388
1.5159343
1.5159281
1.5159514
1.5159341
1.5159426
1.5159454
1.5159903
1.5159277
1.5159378
1.5159994
1.5161511
1.5161423
1.5161871
1.5161957
1.5161362
1.5161419
1.5161855
1.5161808
1.5162401
1.5162028
1.5161982
1.5162349
1.5162427
1.516204
1.5162142
1.5162508
1.5161276
1.5161277
1.5161713
1.5161719
1.516182
1.5161362
1.5161306
1.5161757
1.5162369
1.5161996
1.516193
1.5162299
1.5162256
1.5161879
1.5161892
1.5162257
1.5162446
1.5162437
1.5162722
1.5162737
1.5162854
1.5162557
1.5162489
1.5162782
1.5163259
1.5163034
1.5162968
1.5163194
1.5163135
1.5162898
1.5162923
1.5163148
1.5163311
1.5163082
1.5163035
1.5163259
1.5162884
1.5162586
1.5162539
1.516283
1.516271
1.5162612
1.5162906
1.5163001
1.5163333
1.5163086
1.5163199
1.5163425
1.5168286
1.5165009
1.5165688
1.5168569
1.5163444
1.5163265
1.516371
1.5163885
1.5164251
1.5163862
1.5164066
1.5164433
1.5166363
1.5165761
1.5168877
1.5169099
1.5162441
1.516237
1.5162809
1.5162878
1.5162751
1.5162304
1.5162319
1.5162753
1.5163287
1.5162917
1.5162922
1.5163278
1.5163355
1.5162974
1.5163057
1.5163419
1.5164193
1.5163965
1.5163959
1.516418
1.5163766
1.516347
1.5163467
1.5163752
1.516362
1.516354
1.5163833
1.5163914
1.5164265
1.5164016
1.5164115
1.5164347
1.5165193
1.5164933
1.516516
1.5165395
1.5164745
1.5164422
1.5164638
1.5164938
1.5169402
1.5166445
1.5166966
1.5169557
1.5167495
1.5167039
1.5169831
1.5169936
1.5167247
1.516871
1.51688
1.516744
1.5168712
1.5170256
1.5171835
1.5171069
1.5162465
1.516485
1.5164109
1.5163228
1.5166669
1.5167242
1.5162506
1.5161849
1.516202
1.5162655
1.5162752
1.5162587
1.516313
1.5163286
1.5167532
1.5164144
1.5164938
1.5167959
1.5161036
1.5160959
1.5161597
1.5161658
1.5161521
1.5160863
1.5160906
1.5161546
1.5161641
1.5161619
1.5162153
1.5162171
1.5161758
1.5161693
1.5162223
1.5162284
1.5160811
1.5160205
1.5160247
1.5160858
1.5160407
1.5160416
1.5160441
1.5160473
1.5160553
1.5160532
1.5160616
1.5160686
1.5160415
1.5160908
1.5160324
1.5160988
1.5161832
1.5161262
1.5161422
1.5161995
1.5161712
1.5161847
1.516157
1.5161711
1.5163222
1.5162978
1.5165997
1.5165991
1.5165856
1.5162567
1.5163261
1.5166435
1.5162484
1.5164965
1.5160604
1.5160413
1.5159919
1.5160374
1.5160334
1.5159934
1.5159471
1.5159427
1.5159431
1.5159478
1.5160394
1.5160558
1.5160559
1.516041
1.5162411
1.5164691
1.5164496
1.5162432
1.5163808
1.5163703
1.5163657
1.5163764
1.5163574
1.5163414
1.5163356
1.516352
1.516331
1.5163287
1.5163445
1.5163472
1.5163677
1.516356
1.5163594
1.5163702
1.5163601
1.5163487
1.5163654
1.5163764
1.5163416
1.5163463
1.5163612
1.5163577
1.5163834
1.5163725
1.5163695
1.5163805
1.5163897
1.5163772
1.5163899
1.5164008
1.5164097
1.5163968
1.516404
1.5164162
1.5163964
1.51639
1.5163877
1.5163943
1.5170177
1.5167541
1.5167925
1.5170254
1.5165577
1.5165339
1.5165523
1.5165753
1.5168247
1.5167929
1.5170459
1.5170494
1.5165771
1.516563
1.5165896
1.5166019
1.5164527
1.5164425
1.5164594
1.5164696
1.5164343
1.5164347
1.5164497
1.5164502
1.5164845
1.5164717
1.5164837
1.5164951
1.5164723
1.5164613
1.5164628
1.5164735
1.5164858
1.5164793
1.5164816
1.5164878
1.5165046
1.5164921
1.5164994
1.5165115
1.5165072
1.5165024
1.5165161
1.5165197
1.5166003
1.5165939
1.5166233
1.5166274
1.5165925
1.5165831
1.5166114
1.5166189
1.517064
1.5168208
1.5168477
1.5170644
1.5168616
1.5168391
1.517073
1.5170716
1.5181707
1.5182187
1.518744
1.518719
1.5180739
1.518126
1.5186882
1.5186535
1.5188434
1.518872
1.5189421
1.5189206
1.5189724
1.5189122
1.5188961
1.5189607
1.5178679
1.51792
1.5185215
1.518476
1.5179738
1.5180274
1.5186138
1.5185717
1.5188946
1.5188126
1.518779
1.518866
1.5187012
1.5187424
1.5188346
1.5188021
1.5190502
1.5190289
1.5190136
1.5190359
1.5189684
1.5189938
1.5190171
1.5189947
1.5190038
1.519028
1.5190522
1.5190312
1.5190854
1.5190629
1.5190488
1.519072
1.5190065
1.5189786
1.5189517
1.5189805
1.5189102
1.5189416
1.5189691
1.5189417
1.5188456
1.5188796
1.5189123
1.5188827
1.5188923
1.5189234
1.5189527
1.5189248
1.5191601
1.5191565
1.5191397
1.5191438
1.5191554
1.5191379
1.5191208
1.5191394
1.5190738
1.5190998
1.5191192
1.5190963
1.5190176
1.5190475
1.5190708
1.5190442
1.5188446
1.5186956
1.5186865
1.5187806
1.5187668
1.5188972
1.5189358
1.5189487
1.518906
1.5188653
1.5187604
1.5188654
1.518991
1.5190057
1.5190044
1.5189914
1.5190045
1.5190239
1.5190263
1.5190077
1.5190166
1.5190365
1.519043
1.5190226
1.5189756
1.5189582
1.5189673
1.518986
1.5189468
1.5189385
1.51895
1.518959
1.5189717
1.5189583
1.5189722
1.5189868
1.519
1.51898
1.518995
1.5190161
1.5188513
1.5188266
1.5188307
1.5188587
1.5187271
1.5184644
1.5184463
1.5187263
1.5187317
1.5184393
1.5184368
1.5187409
1.5188708
1.5188398
1.5188522
1.518886
1.5187704
1.5184962
1.5185679
1.518736
1.5186286
1.5186006
1.5188192
1.5187982
1.5188839
1.5188952
1.5188715
1.5189081
1.5188292
1.5188497
1.5188645
1.5188506
1.5189912
1.5189719
1.5189822
1.5190011
1.518978
1.518958
1.5189635
1.5189843
1.5189364
1.5189433
1.5189499
1.5189458
1.518954
1.5189582
1.5189706
1.51897
1.5190337
1.5190117
1.5190284
1.519051
1.5190033
1.5189877
1.5190033
1.5190197
1.5190319
1.5190181
1.5190351
1.5190482
1.5190593
1.5190443
1.5190672
1.5190809
1.5189034
1.5188671
1.5188828
1.5189214
1.518433
1.5184357
1.5187526
1.5187649
1.518406
1.5184226
1.518776
1.5187844
1.5189128
1.5188981
1.5189389
1.5189545
1.5183478
1.518382
1.5187884
1.5187869
1.5189673
1.5189227
1.5189285
1.5189762
1.518924
1.5189291
1.5189805
1.5189797
1.5182666
1.5183115
1.5187794
1.5187662
1.5190733
1.5190775
1.519099
1.5190953
1.5190462
1.5190409
1.5190581
1.5190638
1.5190913
1.5190696
1.5190759
1.5190976
1.5190404
1.5190459
1.5190646
1.5190606
1.5191087
1.5191179
1.5191115
1.5191199
1.5191181
1.5191221
1.5191254
1.5191165
1.519116
1.5191253
1.5191309
1.5191249
1.5191343
1.5191256
1.5191337
1.519143
1.5191471
1.5191323
1.5191387
1.519141
1.5191448
1.5191341
1.5191225
1.5191181
1.5188645
1.5187728
1.5188651
1.518778
1.5190033
1.5189903
1.5189909
1.5190032
1.5191221
1.5191183
1.5191187
1.5191223
1.5191343
1.5191442
1.5191345
1.5191436
1.5191651
1.5191459
1.5191604
1.5191797
1.5191379
1.5191368
1.5191516
1.5191529
1.5191771
1.5191651
1.5191665
1.5191773
1.5191843
1.5191733
1.5191926
1.5192025
1.5191323
1.5191293
1.5191445
1.5191474
1.5191304
1.5191143
1.5191247
1.51914
1.5191706
1.5191584
1.5191611
1.5191721
1.519155
1.5191436
1.5191539
1.5191651
1.5191636
1.5191613
1.5191728
1.5191762
1.519152
1.5191604
1.5191746
1.5191681
1.5191702
1.5191781
1.5191804
1.5191733
1.5191794
1.5191777
1.5191805
1.5191825
1.5192087
1.5191903
1.519192
1.5192105
1.5191867
1.5191839
1.5191846
1.5191873
1.5191756
1.5191838
1.519185
1.519178
1.5191806
1.519189
1.5192075
1.5192
1.519133
1.5191144
1.5191291
1.5191481
1.519093
1.5190822
1.5190833
1.5190935
1.5191001
1.5190888
1.5191062
1.5191178
1.5191064
1.5191057
1.51912
1.5191209
1.5190763
1.5190742
1.5190844
1.5190868
1.5190714
1.5190613
1.51907
1.5190799
1.5190927
1.5190836
1.5190976
1.5191073
1.5191
1.5190974
1.5191121
1.5191149
1.5190959
1.5190978
1.5190843
1.5191089
1.5190911
1.5190909
1.519078
1.519078
1.5190759
1.5190705
1.5190708
1.5190767
1.5190769
1.5190819
1.5190978
1.5190901
1.5190836
1.5190704
1.5190703
1.5190844
1.5190744
1.5190608
1.5190661
1.5190805
1.519056
1.5190524
1.5190586
1.5190636
1.5190632
1.5190677
1.5190627
1.5190692
1.5190026
1.5188349
1.5188326
1.5190045
1.5191299
1.5191479
1.519141
1.5191226
1.5192539
1.5192629
1.5192572
1.5192477
1.5192484
1.519245
1.5192452
1.5192485
1.5192581
1.5192554
1.5192553
1.519258
1.5192478
1.5192439
1.5192473
1.5192437
1.5192576
1.5192546
1.519254
1.5192567
1.5192251
1.519235
1.5192284
1.5192373
1.5192424
1.5192328
1.5192329
1.5192425
1.5192453
1.5192383
1.5192504
1.5192385
1.5192507
1.5192404
1.5192421
1.5192521
1.5192
1.519188
1.5191971
1.5192102
1.5192227
1.5192088
1.5192217
1.5192364
1.5191756
1.5191822
1.5191925
1.5191834
1.5191886
1.5191917
1.5191816
1.5191992
1.519192
1.5192022
1.5191923
1.5192028
1.5191873
1.5191951
1.5191959
1.5191873
1.5192065
1.5192068
1.5191965
1.5191966
1.5191916
1.5209291
1.519052
1.5191327
1.5184239
1.5184542
1.5185632
1.5187007
1.5186204
1.5184786
1.5184512
1.5152717
1.51539
1.5163424
1.5183906
1.5168863
1.5168734
1.5165787
1.5164901
1.51675
1.5214755
1.521685
1.520866
1.5217666
1.5227481