/*--------------------------------*- C++ -*----------------------------------*\
  =========                 |
  \\      /  F ield         | OpenFOAM: The Open Source CFD Toolbox
   \\    /   O peration     | Website:  https://openfoam.org
    \\  /    A nd           | Version:  7
     \\/     M anipulation  |
\*---------------------------------------------------------------------------*/
FoamFile
{
    version     2.0;
    format      ascii;
    class       volScalarField;
    location    "1000";
    object      nut;
}
// * * * * * * * * * * * * * * * * * * * * * * * * * * * * * * * * * * * * * //

dimensions      [0 2 -1 0 0 0 0];

internalField   nonuniform List<scalar> 
33899
(
1.0878129e-47
1.1962717e-47
2.4784483e-48
1.2882444e-47
1.3418742e-47
1.5131205e-47
1.3856547e-47
1.0766067e-47
1.6843286e-47
2.4079642e-48
2.4771061e-48
1.9922806e-48
1.5829108e-48
1.3069892e-48
1.4989169e-48
1.3182372e-48
1.7613422e-48
5.9744557e-48
5.6257587e-48
1.5189083e-48
1.4693937e-47
1.3967971e-47
1.8453571e-47
1.6027069e-47
1.383532e-47
1.3820788e-47
1.3230416e-47
1.8923439e-47
1.0297962e-47
1.5854751e-47
1.4391604e-47
5.306692e-48
2.4664998e-48
2.5362183e-48
1.6367029e-48
1.2776289e-48
1.3098738e-48
1.7311013e-48
1.4999645e-48
1.7622452e-48
1.3374726e-48
1.3649972e-48
1.7730436e-48
1.5049117e-48
5.7614808e-48
5.833486e-48
1.9225291e-48
1.9984107e-48
1.485176e-48
1.5561536e-48
1.4876857e-48
1.5772015e-48
1.3581182e-48
6.018065e-49
8.5215698e-49
8.3696546e-49
1.1769568e-48
1.1412075e-48
1.0307831e-48
9.0902415e-49
9.2992725e-49
9.4823251e-49
5.8619192e-49
1.0370048e-48
9.9108004e-49
9.7876183e-49
9.2091252e-49
8.4760321e-49
8.8506861e-49
7.9203542e-49
7.8537838e-49
1.1250235e-48
1.1235541e-48
1.1944753e-48
1.1661795e-48
6.3313036e-49
1.1802924e-48
1.1428624e-48
1.234141e-48
1.0397071e-47
1.4543341e-47
1.4681389e-47
1.9075277e-47
1.8163293e-47
1.5767088e-47
1.5461808e-47
6.9611666e-48
2.2161113e-47
1.9465111e-47
1.6188433e-47
1.8262972e-47
1.8496095e-47
1.7271721e-47
1.510501e-47
8.0872879e-48
2.2202474e-47
2.4709676e-47
8.0781815e-48
1.4722017e-47
5.1883029e-48
5.2822419e-48
5.8500395e-48
1.5527546e-48
1.5411694e-48
6.3640227e-48
1.8281616e-48
1.9969274e-48
1.7339046e-48
1.2800833e-48
1.3021948e-48
1.7699979e-48
1.438465e-48
1.1390061e-48
1.0846295e-48
7.9363225e-49
7.6500943e-49
5.9526057e-49
9.3034372e-49
9.4340929e-49
9.3059597e-49
9.0490669e-49
9.4341341e-49
8.501498e-49
9.8426878e-49
9.1629428e-49
8.2388593e-49
1.083967e-48
5.8451499e-49
1.108572e-48
7.742749e-49
9.9868156e-49
1.0604116e-48
5.9452422e-49
7.9986635e-49
8.1489898e-49
1.1020617e-48
1.1485021e-48
9.2889412e-49
8.7506694e-49
8.9827267e-49
9.0388856e-49
1.062002e-48
9.6985804e-49
8.8092763e-49
9.4621043e-49
5.8046034e-49
8.4712509e-49
8.403513e-49
1.1523721e-48
1.1047096e-48
1.0628532e-48
1.0691014e-48
1.1789204e-48
1.1741961e-48
1.3942101e-48
1.3799487e-48
1.5263188e-48
1.3989104e-48
1.3266872e-48
1.4615643e-48
1.5051125e-48
1.1883773e-48
1.1644438e-48
1.2736937e-48
1.2310863e-48
1.1814856e-48
1.3343663e-48
1.4086514e-48
1.1553604e-48
1.2582865e-48
1.2381507e-48
1.2515349e-48
1.2801533e-48
1.3577472e-48
1.4442773e-48
1.2531712e-48
1.1651604e-48
1.2731254e-48
1.1595504e-48
1.1518427e-48
1.175375e-48
1.3483407e-48
2.647157e-49
4.1598944e-49
4.0349185e-49
2.6440869e-49
7.0658097e-49
6.5555167e-49
6.4404981e-49
6.530735e-49
5.9864475e-49
5.8843291e-49
5.5780274e-49
6.0105125e-49
8.8286748e-49
6.6156809e-49
8.1329819e-49
1.0469458e-48
7.3739777e-49
8.6975898e-49
1.2129916e-48
8.8410475e-49
8.0716228e-49
8.2533201e-49
9.0518412e-49
8.7043982e-49
8.3718758e-49
7.8438979e-49
8.654606e-49
8.8978881e-49
1.0024599e-48
1.0478414e-48
9.3410242e-49
9.0507787e-49
9.4284876e-49
1.0670027e-48
1.0435401e-48
9.5029151e-49
2.6159419e-49
2.5650815e-49
4.0729832e-49
4.0934273e-49
6.5343892e-49
6.5326697e-49
8.7969677e-49
8.1026287e-49
8.7049543e-49
8.8393131e-49
8.4861524e-49
8.0848241e-49
8.9619704e-49
8.4367321e-49
9.2653158e-49
8.4860041e-49
9.2120784e-49
9.8610388e-49
9.9546633e-49
9.7414585e-49
8.8596949e-49
9.0904852e-49
6.4995621e-49
5.52032e-49
6.6370076e-49
5.5137375e-49
6.2962632e-49
5.4666739e-49
5.5176931e-49
5.8955473e-49
7.2813719e-49
7.2974258e-49
1.0328111e-48
1.0968005e-48
8.7402714e-49
6.7308589e-49
1.0486481e-48
1.0801116e-48
1.1178628e-48
1.0735899e-48
6.5760061e-49
2.7244119e-49
2.6733571e-49
4.1481109e-49
4.1679577e-49
1.0749994e-48
7.5578067e-49
8.7010885e-49
1.0821771e-48
7.8241318e-49
1.045678e-47
1.4994745e-47
1.446324e-47
1.0672399e-47
1.0438582e-47
1.0684798e-47
1.2872122e-47
1.1083954e-47
8.9369199e-48
6.2550894e-48
1.9063434e-47
2.0389086e-47
1.4657259e-47
1.5189998e-47
7.0530479e-48
7.2529908e-48
1.0325751e-47
2.2994289e-47
1.093934e-47
2.1183389e-47
2.2358579e-47
2.1614642e-47
4.4766999e-48
9.2663695e-48
5.7092405e-48
5.6960703e-48
1.5372787e-47
1.6354294e-47
2.6286655e-47
2.4604166e-47
9.6617774e-48
2.8316851e-47
1.985918e-47
1.7666906e-47
3.5658365e-47
2.0532156e-47
7.8242322e-48
2.5529065e-47
2.454319e-47
2.6348624e-47
1.185333e-47
1.4523537e-48
5.0703736e-48
1.4962234e-48
5.2706645e-48
6.8406947e-48
1.6086611e-48
1.9018086e-48
1.1578626e-48
6.2126073e-49
1.1791772e-48
1.1279271e-48
6.1516806e-49
5.9336551e-49
5.8285087e-49
1.0951749e-48
1.0994886e-48
1.1736947e-48
8.7835799e-49
1.2236948e-48
1.2164151e-48
7.9708883e-49
1.2155249e-48
1.2708291e-48
8.3326164e-49
8.1450085e-49
7.8703678e-49
1.0235411e-48
1.1106467e-48
7.4247996e-49
8.5900497e-49
9.2475893e-49
9.5528171e-49
9.6148399e-49
1.0394353e-48
9.3597049e-49
1.0623342e-48
1.0852463e-48
7.9752952e-49
8.0401461e-49
1.2116486e-48
1.2138174e-48
1.1998319e-48
2.578213e-49
7.9676246e-49
6.8726788e-49
9.2656823e-49
1.0801879e-48
2.620441e-49
8.9148522e-49
6.6758806e-49
9.9195221e-49
1.0578193e-48
6.3663727e-49
5.5416146e-49
5.6476011e-49
6.1215049e-49
5.5488993e-49
5.2011004e-49
6.0198737e-49
5.710581e-49
4.1795843e-49
3.9535941e-49
8.8642121e-49
8.1835239e-49
8.7154173e-49
9.1426552e-49
7.9456897e-49
8.0725544e-49
8.3641935e-49
8.2929314e-49
1.0585641e-48
1.0028413e-48
8.9044141e-49
9.5730396e-49
9.0038314e-49
9.7878608e-49
9.9715072e-49
9.0430263e-49
7.9676316e-49
7.561391e-49
8.7481144e-49
8.4841105e-49
8.1059044e-49
8.7488725e-49
9.3282928e-49
8.3748057e-49
8.4303439e-49
8.2278393e-49
8.9008222e-49
8.8928248e-49
1.0241188e-48
1.0054049e-48
9.0649195e-49
9.1424097e-49
5.5989414e-49
5.9980355e-49
6.2734864e-49
6.2073069e-49
2.6021546e-49
1.0333969e-48
7.5289331e-49
8.6053566e-49
9.46942e-49
2.5323508e-49
4.0875513e-49
4.0313778e-49
1.0489732e-48
6.7808166e-49
7.1821544e-49
9.4135461e-49
6.1048315e-49
5.5518316e-49
5.4676035e-49
6.0075413e-49
6.5299954e-49
6.491167e-49
2.6071854e-49
2.5664057e-49
3.9748607e-49
3.9079304e-49
6.0925094e-49
5.5573251e-49
5.2149107e-49
5.8358545e-49
6.1260504e-49
5.638279e-49
5.1460698e-49
5.8893073e-49
9.5870467e-49
6.2355974e-49
8.7067394e-49
1.0265506e-48
1.007665e-48
6.7159588e-49
7.685752e-49
9.7864646e-49
7.710343e-49
7.1833459e-49
7.9685896e-49
8.1548845e-49
7.9899406e-49
7.0715861e-49
7.8250581e-49
8.5487047e-49
1.0178469e-48
9.2697974e-49
8.5667297e-49
9.2717095e-49
8.8029549e-49
9.5729243e-49
9.9308084e-49
8.9366157e-49
9.2156305e-49
8.1575902e-49
8.8120688e-49
9.6100493e-49
8.5475389e-49
7.5706723e-49
8.1058235e-49
8.952947e-49
8.3953555e-49
8.9983364e-49
9.8699864e-49
8.9806677e-49
8.9831271e-49
9.8212177e-49
1.0550698e-48
9.2831932e-49
2.582776e-49
2.5172109e-49
4.1969248e-49
4.2839057e-49
6.8627983e-49
6.1643371e-49
5.7425477e-49
6.6733212e-49
6.2648212e-49
5.6570362e-49
5.3326798e-49
6.0828717e-49
1.0425747e-48
6.5282772e-49
8.5011389e-49
1.0752263e-48
1.1036746e-48
6.6385363e-49
6.9059981e-49
1.0280914e-48
6.1086951e-49
6.5620464e-49
1.125165e-48
1.0941597e-48
1.126856e-48
1.1184696e-48
1.2030544e-48
1.1930308e-48
1.1591073e-48
1.1555836e-48
1.131198e-48
1.1543417e-48
1.3777128e-48
1.3505797e-48
1.2256609e-48
1.1903406e-48
1.1812669e-48
1.1310911e-48
1.1935417e-48
1.1145495e-48
1.1584242e-48
1.0763259e-48
1.2740976e-48
1.3573441e-48
1.1709039e-48
1.1469695e-48
1.3243502e-48
1.3686438e-48
1.1693934e-48
3.0097138e-48
3.0680783e-48
3.3730429e-48
3.1681289e-48
3.6377792e-48
3.6244058e-48
4.044884e-48
3.7000563e-48
3.210299e-48
3.3748646e-48
3.2908785e-48
3.1553743e-48
3.6830644e-48
3.9774742e-48
4.0053247e-48
3.6518435e-48
3.1553755e-48
2.8987196e-48
3.0155273e-48
3.5628444e-48
2.4343794e-49
2.3087469e-49
2.4937326e-49
2.3336817e-49
3.7412739e-49
3.8665095e-49
2.4214266e-49
2.3767657e-49
2.5275195e-49
2.5175434e-49
9.372066e-49
9.8021904e-49
1.2315303e-48
1.183211e-48
9.6394639e-49
9.5926006e-49
1.1579002e-48
1.208447e-48
6.7175791e-49
1.5937236e-48
1.0594017e-48
6.4373256e-49
1.026454e-48
1.5358939e-48
7.4227845e-49
7.1545493e-49
1.6085315e-48
1.6932258e-48
1.9034716e-48
1.7968755e-48
1.6567216e-48
1.6289137e-48
1.8380704e-48
1.8299335e-48
2.4006984e-48
2.4352645e-48
2.5312288e-48
2.472975e-48
2.4670886e-48
2.5012957e-48
2.3563666e-48
2.6188443e-48
2.465438e-49
2.2995513e-49
2.3619349e-49
2.6210572e-49
2.3846391e-49
2.3500984e-49
2.5288751e-49
2.5020722e-49
3.6505287e-49
3.9368371e-49
6.123903e-49
5.8966217e-49
1.8299413e-48
1.5788962e-48
1.77809e-48
1.8119167e-48
1.6416941e-48
1.5778628e-48
1.8203084e-48
1.7384136e-48
2.2581825e-48
2.3479769e-48
2.4647696e-48
2.3491847e-48
2.3396598e-48
2.3054323e-48
2.3941228e-48
2.4558904e-48
1.3224785e-48
9.1485067e-49
1.0331076e-48
1.1183017e-48
9.2884863e-49
8.849383e-49
1.1047643e-48
1.1557679e-48
9.9837024e-49
1.8422718e-48
6.3449278e-49
7.8291602e-49
1.1521399e-48
1.883896e-48
6.1889703e-49
7.0724896e-49
7.038257e-49
7.0426435e-49
7.1747878e-49
6.0356655e-49
3.9665494e-49
3.971772e-49
2.4137194e-49
2.374018e-49
2.556321e-49
2.6120543e-49
2.4669039e-49
2.380321e-49
2.5549179e-49
2.5532146e-49
9.790628e-49
1.1536087e-48
7.1807922e-49
1.5504846e-48
1.0794938e-48
6.6279276e-49
1.6109775e-48
1.0181483e-47
1.0363657e-47
1.5069941e-47
1.4161549e-47
9.8882712e-48
1.0493398e-47
1.1724604e-47
1.1368215e-47
9.9438876e-48
2.0017279e-47
2.6243826e-47
2.0271787e-47
1.9118411e-47
1.222731e-47
1.7973292e-47
6.6276544e-48
6.8836292e-48
4.305146e-47
1.3442622e-47
1.3765741e-47
7.4674062e-48
7.7458132e-48
3.7106724e-47
1.9502249e-47
5.1153617e-47
2.0479685e-47
1.9776696e-47
2.1819074e-47
4.5907091e-48
8.1292668e-48
7.7543375e-48
8.6407327e-48
7.2451655e-48
4.6464661e-48
1.1284646e-47
6.2005204e-48
5.9753757e-48
8.0127101e-48
9.1027872e-48
2.7557103e-47
3.2074944e-47
2.6964287e-47
1.7713226e-47
3.8591362e-47
1.9878636e-47
2.0088057e-47
4.0843168e-48
3.0403997e-48
3.4019543e-48
3.4091296e-48
3.165075e-48
7.5831294e-48
8.2454107e-48
2.9513237e-47
1.7805505e-47
1.2453792e-47
3.0858577e-47
3.459427e-47
2.0238422e-47
7.2237972e-48
3.135073e-47
2.839231e-47
4.6710286e-47
1.2977277e-47
2.0414028e-47
1.1642813e-47
1.4055123e-47
5.0400261e-48
5.175849e-48
4.9615143e-48
1.1710229e-47
1.0843531e-47
3.6037833e-48
2.9840888e-48
1.5419309e-48
1.6084624e-48
1.482937e-48
1.5052203e-48
5.0691726e-48
2.8968063e-48
1.4887008e-48
1.4861602e-48
3.2060892e-48
5.2815991e-48
1.1730089e-48
6.2946819e-49
6.1589726e-49
1.2780577e-48
1.2167059e-48
1.1989775e-48
1.1138408e-48
1.1714047e-48
8.1449037e-49
8.1882803e-49
1.1469472e-48
6.7517503e-49
6.8072928e-49
4.2747584e-49
2.6779347e-49
2.6305967e-49
4.0657628e-49
2.6588809e-49
2.5890166e-49
4.2416633e-49
4.1599645e-49
2.6014078e-49
2.5611159e-49
3.996022e-49
3.8956723e-49
2.5804858e-49
2.5099973e-49
4.2051839e-49
4.2595463e-49
6.2433796e-49
6.7314663e-49
1.1222375e-48
6.5549055e-49
7.0576081e-49
6.7090251e-49
6.4509285e-49
1.05531e-48
7.5148693e-49
8.238195e-49
1.0858561e-48
7.3681789e-49
8.0485148e-49
1.0808242e-48
9.4118856e-49
6.195418e-49
5.8635748e-49
6.1988218e-49
5.9703353e-49
8.0331899e-49
8.7020723e-49
6.7851563e-49
7.5645033e-49
1.0360898e-48
9.7454127e-49
8.1393862e-49
7.2322711e-49
1.0016262e-48
1.0657198e-48
6.2121818e-49
5.6432385e-49
5.723518e-49
6.0471311e-49
6.2815463e-49
6.0299763e-49
6.4450017e-49
6.1736367e-49
5.4657977e-49
5.9459047e-49
6.0257302e-49
5.6657894e-49
1.0735928e-48
7.4247025e-49
8.3614802e-49
9.2216753e-49
7.6347341e-49
6.907335e-49
9.741906e-49
1.0713991e-48
5.3189371e-49
4.9667246e-49
5.8403769e-49
5.6358454e-49
7.0915551e-49
7.7343181e-49
7.700227e-49
7.4504518e-49
7.8792015e-49
8.1797868e-49
9.9188167e-49
1.025171e-48
9.0534456e-49
8.9270179e-49
7.875335e-49
8.1831135e-49
8.4616141e-49
8.9895087e-49
8.7879613e-49
8.4841484e-49
9.4142432e-49
8.9131348e-49
9.177166e-49
1.0371276e-48
9.1702852e-49
1.069175e-48
7.7272352e-49
8.3666396e-49
9.7421257e-49
6.8898956e-49
6.7228549e-49
1.0976118e-48
1.0231102e-48
5.9295953e-49
5.6007459e-49
5.2712575e-49
5.8022699e-49
5.8432968e-49
5.558843e-49
6.5267015e-49
6.3179498e-49
3.0115017e-48
2.9475643e-48
3.0710142e-48
2.4288711e-49
2.3105297e-49
2.3759684e-49
2.535178e-49
1.081868e-48
1.6768172e-48
6.3024083e-49
7.3594902e-49
2.4549443e-49
2.3304217e-49
2.3504638e-49
2.5747552e-49
1.1392082e-48
2.1113798e-48
6.7475502e-49
7.3952512e-49
9.9883589e-49
9.710305e-49
1.2196165e-48
1.2294794e-48
1.1425702e-48
8.8607539e-49
9.3965385e-49
1.1212891e-48
3.8435032e-49
3.9274419e-49
1.9131942e-48
1.7210693e-48
1.6944993e-48
1.8921964e-48
1.5251623e-48
1.6092036e-48
1.7686317e-48
1.7191359e-48
2.5249796e-48
2.4830653e-48
2.529651e-48
2.6283061e-48
2.4855909e-48
2.3538236e-48
2.2560882e-48
2.3797409e-48
1.6581287e-48
1.5021e-48
1.7055268e-48
1.6643477e-48
2.3151942e-48
2.2260187e-48
2.2257531e-48
2.2508472e-48
1.6576101e-48
1.6134525e-48
1.8244244e-48
1.8430591e-48
2.3583928e-48
2.3242536e-48
2.4093945e-48
2.4327822e-48
1.0811564e-48
9.4303725e-49
1.1739894e-48
8.8927333e-49
2.3581568e-49
2.3597903e-49
2.5832718e-49
2.5865503e-49
7.3182936e-49
1.76452e-48
1.2481358e-48
6.7059536e-49
2.3684751e-49
2.3744668e-49
2.5214082e-49
2.454202e-49
4.0122196e-49
3.6703625e-49
6.8686432e-49
2.0056429e-48
1.0405968e-48
7.6225171e-49
1.0086267e-48
9.1330749e-49
1.111809e-48
1.2252684e-48
6.0534547e-49
6.221441e-49
2.4480755e-49
2.3174814e-49
2.3531283e-49
2.5745961e-49
2.3921943e-49
2.3174555e-49
2.4568345e-49
2.5031932e-49
4.0053086e-49
3.9283946e-49
9.4452571e-49
8.4448977e-49
1.0111631e-48
1.1657347e-48
9.3367626e-49
8.7984841e-49
1.0332118e-48
1.1599494e-48
6.2366321e-49
1.6581578e-48
1.0832099e-48
6.7993081e-49
6.2750294e-49
1.6304984e-48
1.0141284e-48
7.0317608e-49
1.5543223e-48
1.4216881e-48
1.6462047e-48
1.7103735e-48
1.5987872e-48
1.4495609e-48
1.6750954e-48
1.8054323e-48
2.4053709e-48
2.2170484e-48
2.3291375e-48
2.5237666e-48
2.3524114e-48
2.2082268e-48
2.2454886e-48
2.3418395e-48
1.9442512e-48
1.6320826e-48
1.8151192e-48
2.0500223e-48
1.6757455e-48
1.5196358e-48
1.6974322e-48
1.826459e-48
2.3436221e-48
2.2320327e-48
2.3551506e-48
2.432578e-48
2.4389231e-48
2.344273e-48
2.5576595e-48
2.5990991e-48
2.4232908e-49
2.2642666e-49
2.3711231e-49
2.5438063e-49
2.2946643e-49
2.3490567e-49
2.4727804e-49
2.4210304e-49
3.8957138e-49
3.5238646e-49
1.2111106e-48
9.7657465e-49
1.1519708e-48
1.4440423e-48
9.6793891e-49
8.7799149e-49
1.0625956e-48
1.2060063e-48
6.3209366e-49
1.853741e-48
1.2120667e-48
6.9828066e-49
6.9581305e-49
1.9218748e-48
1.0659249e-48
8.6130598e-49
5.6765869e-49
6.1903522e-49
7.1027628e-49
7.1536355e-49
7.2705741e-49
6.6622219e-49
2.93658e-48
2.853863e-48
3.1468564e-48
3.2230264e-48
2.897106e-48
2.9059341e-48
3.013565e-48
2.9733614e-48
3.554284e-48
3.608558e-48
3.1708061e-48
2.9750161e-48
3.1854531e-48
3.0027091e-48
3.0233601e-48
2.8777191e-48
3.0758871e-48
2.8871897e-48
3.429251e-48
3.6796119e-48
3.6558305e-48
3.6372563e-48
3.5699373e-48
3.7493572e-48
3.6989321e-48
6.2322287e-49
6.8480655e-49
7.0066549e-49
6.3181564e-49
6.5357743e-49
7.2049095e-49
7.5413507e-49
6.9312606e-49
7.0715237e-49
7.5962088e-49
7.5555441e-49
6.7889338e-49
6.8751434e-49
7.1847352e-49
6.4229037e-49
6.2613107e-49
7.6897827e-49
8.2406298e-49
8.9385765e-49
8.2326444e-49
7.0460938e-49
7.5632121e-49
8.1715645e-49
7.5718966e-49
7.818496e-49
8.0324337e-49
7.330862e-49
7.2569319e-49
8.0027001e-49
8.5487822e-49
8.4985567e-49
7.9236696e-49
7.4384112e-49
7.0104027e-49
6.3240857e-49
6.766849e-49
6.8307509e-49
7.3267957e-49
7.9995104e-49
7.3774754e-49
6.7293777e-49
7.3238015e-49
7.0681806e-49
6.4211613e-49
6.6870135e-49
6.9455621e-49
6.2101423e-49
6.0083511e-49
7.3950443e-49
7.7061662e-49
7.0682373e-49
6.8818248e-49
7.4650423e-49
7.939363e-49
8.6152687e-49
8.0228527e-49
8.1779706e-49
8.6971728e-49
9.4139996e-49
8.7734216e-49
7.8429135e-49
8.3718189e-49
8.1447994e-49
7.6006019e-49
6.892272e-49
6.7778431e-49
6.0875267e-49
6.1692074e-49
6.6679551e-49
6.3441717e-49
5.7572892e-49
6.0729829e-49
6.2790846e-49
6.6879137e-49
7.1704777e-49
6.6190222e-49
6.931648e-49
7.3347527e-49
7.7757529e-49
7.2718418e-49
1.8428369e-49
4.324892e-49
1.8347942e-49
3.9109601e-49
3.1161967e-49
3.1186475e-49
4.0047303e-49
4.3568587e-49
1.8800548e-49
1.9230169e-49
4.6790022e-49
4.7877636e-49
4.5297921e-49
4.5088783e-49
4.8034663e-49
4.8639415e-49
4.7499444e-49
4.7366632e-49
5.9175313e-49
5.655048e-49
4.8609815e-49
5.1567961e-49
5.4046537e-49
5.3966202e-49
4.7292852e-49
4.6375702e-49
4.680368e-49
5.0570505e-49
4.7943874e-49
4.5479088e-49
4.7749894e-49
5.184713e-49
4.5819518e-49
4.4822952e-49
5.6064633e-49
5.72427e-49
4.8197687e-49
4.7348769e-49
5.5385059e-49
5.7144186e-49
4.979691e-49
4.7627974e-49
7.9623135e-49
3.6627987e-49
1.0132455e-48
3.347057e-49
3.3582175e-49
8.245404e-49
3.1808403e-49
7.6403852e-49
7.8226328e-49
3.708203e-49
8.4719607e-49
2.7200744e-49
3.5193358e-49
7.5708524e-49
7.2751939e-49
3.3062191e-49
3.1519097e-49
9.811476e-49
1.0149605e-48
2.7600792e-49
3.3446188e-49
1.1817638e-48
1.2353754e-48
3.0243008e-49
3.4684788e-49
7.259379e-49
7.7968902e-49
3.3649365e-49
3.4742015e-49
7.2633074e-49
8.1712994e-49
3.3952654e-49
5.5745556e-49
5.7643264e-49
5.0244808e-49
4.8555844e-49
6.3365449e-49
6.0112381e-49
5.2440976e-49
5.5136064e-49
5.5440514e-49
6.3950761e-49
6.7437923e-49
5.8364123e-49
5.3140889e-49
6.0981295e-49
5.8697086e-49
5.1476757e-49
5.8400806e-49
6.1488201e-49
5.3152653e-49
5.070688e-49
5.1011003e-49
5.9314332e-49
5.8605462e-49
5.0805045e-49
5.3946142e-49
6.2562331e-49
6.2813068e-49
5.4093869e-49
5.6291668e-49
6.5179011e-49
6.2132426e-49
5.4003358e-49
5.556439e-49
6.4073634e-49
6.4890507e-49
5.6300809e-49
6.4040426e-49
6.6625575e-49
5.7979269e-49
5.6007139e-49
6.058393e-49
6.8147434e-49
6.5931393e-49
5.8494552e-49
5.7787312e-49
6.5558609e-49
6.6906411e-49
5.8945357e-49
5.8667968e-49
6.5217189e-49
6.2954635e-49
5.5700048e-49
5.7275606e-49
6.529626e-49
6.9226066e-49
6.017492e-49
6.0782803e-49
6.277736e-49
5.4886854e-49
5.3315401e-49
5.9302576e-49
6.6886794e-49
7.1142243e-49
6.2778118e-49
1.8952525e-49
3.8694602e-49
3.8672207e-49
1.878808e-49
1.8154538e-49
3.8744705e-49
4.8177424e-49
1.8632065e-49
3.006121e-49
3.2149361e-49
3.0608731e-49
3.1545398e-49
3.324931e-49
2.9917595e-49
5.9324539e-49
5.81778e-49
4.9848078e-49
5.0321625e-49
5.7650731e-49
5.5589503e-49
4.8473819e-49
4.9973193e-49
5.1318748e-49
5.8466558e-49
6.031148e-49
5.2493849e-49
5.1295636e-49
5.911792e-49
5.9403512e-49
5.1372567e-49
5.8353641e-49
5.602764e-49
4.9071533e-49
5.0826529e-49
4.8213753e-49
5.4804926e-49
5.5169525e-49
4.7994356e-49
5.2031862e-49
5.9084765e-49
6.1175903e-49
5.3246666e-49
4.8979967e-49
5.7282537e-49
5.8511996e-49
5.1232459e-49
5.0983629e-49
5.7991478e-49
6.0814641e-49
5.3430796e-49
5.3450179e-49
6.0024077e-49
6.3372828e-49
5.6104064e-49
5.7572972e-49
6.3799544e-49
6.5490444e-49
5.7617119e-49
6.2869739e-49
6.1010869e-49
5.3511636e-49
5.5101267e-49
6.0631657e-49
6.0135143e-49
5.2444199e-49
5.2937701e-49
5.2744193e-49
5.9985621e-49
6.1809112e-49
5.416337e-49
5.5244792e-49
6.1990506e-49
6.4097727e-49
5.6930706e-49
5.5117044e-49
6.1668557e-49
6.2575438e-49
5.5354615e-49
5.8840927e-49
6.1109568e-49
4.796976e-49
4.9532286e-49
4.4608564e-49
4.5455168e-49
4.4123929e-49
4.3529247e-49
4.8527903e-49
4.7694289e-49
5.069718e-49
4.7957714e-49
5.3400807e-49
5.1758693e-49
4.4285867e-49
4.6151697e-49
4.4066006e-49
4.3595965e-49
4.2404764e-49
4.378475e-49
4.4200002e-49
4.5972591e-49
4.2180594e-49
4.0975326e-49
5.0624672e-49
5.152619e-49
4.3669791e-49
4.3904327e-49
5.3768932e-49
5.0803358e-49
4.516421e-49
4.7130372e-49
1.0375679e-48
3.0493011e-49
1.2414465e-48
2.5864347e-49
3.3439824e-49
2.6277819e-49
7.5841923e-49
9.0436471e-49
3.2116064e-49
7.1026101e-49
6.6483742e-49
3.0878986e-49
7.6125091e-49
3.4211332e-49
3.52981e-49
8.8835891e-49
3.0661989e-49
8.3554433e-49
1.0704961e-48
2.8938897e-49
3.3290597e-49
8.4545504e-49
9.3228437e-49
3.1715421e-49
3.2803255e-49
7.2323864e-49
7.5589121e-49
3.0046537e-49
7.6046547e-49
3.1588607e-49
6.5364116e-49
3.1747648e-49
8.5566485e-49
8.4317833e-49
7.2405724e-49
6.8773115e-49
9.1875928e-49
8.6436059e-49
7.8066724e-49
7.6606655e-49
7.9624264e-49
8.6548949e-49
7.3036327e-49
7.2014016e-49
3.3812885e-49
3.2988759e-49
3.2672352e-49
3.2404584e-49
4.0812412e-49
3.8201764e-49
3.7858752e-49
4.58821e-49
1.8749153e-49
1.847352e-49
1.8303926e-49
1.8722788e-49
4.623672e-49
4.6913727e-49
4.5550655e-49
4.4888401e-49
5.6132121e-49
5.6119901e-49
4.8766252e-49
4.949809e-49
8.2887644e-49
3.3249868e-49
3.3219295e-49
8.5531958e-49
8.5570801e-49
3.2250667e-49
8.0898728e-49
3.2009122e-49
9.1150334e-49
3.1898742e-49
7.5550047e-49
2.937387e-49
6.8765776e-49
3.2713367e-49
3.3444285e-49
7.5283738e-49
3.191774e-49
2.9591983e-49
8.1750609e-49
8.9430538e-49
6.7816398e-49
1.0009022e-47
1.4336815e-47
1.3688298e-47
9.8343639e-48
9.5622632e-48
1.1121322e-47
1.1381498e-47
1.0214546e-47
1.0495364e-47
1.1290834e-47
1.8708234e-47
2.6906383e-47
2.6862385e-47
7.0000638e-48
1.9310879e-47
2.747835e-48
6.9175887e-48
6.9137434e-48
2.8155921e-48
1.7735317e-47
6.4087509e-48
4.4673829e-48
2.4813879e-47
4.2370087e-47
2.9388323e-47
1.1166814e-47
4.5684162e-47
2.9908218e-47
1.2060115e-47
9.0947431e-48
1.8878264e-47
1.7582796e-47
1.9121135e-47
2.3031304e-47
4.7651931e-48
8.5198678e-48
7.1080523e-48
7.0133095e-48
6.6706868e-48
4.8596448e-48
9.6351226e-48
9.2951243e-48
7.9215074e-48
7.1332492e-48
9.7572493e-48
2.3898676e-47
2.9513906e-47
7.7029515e-48
4.897209e-47
2.8691736e-47
1.9063517e-47
2.3215969e-47
4.1159245e-48
3.4261871e-48
2.9841094e-48
3.2498411e-48
3.4321914e-48
8.7423413e-48
8.5727308e-48
4.057266e-48
3.0020859e-48
3.3517278e-48
3.39471e-48
3.1522696e-48
7.707041e-48
8.2833296e-48
8.9619684e-48
1.5144848e-47
2.6894048e-47
3.4873897e-47
1.9773199e-47
1.4312826e-47
2.7949894e-47
3.9914091e-47
2.2947457e-48
2.2010776e-48
2.2200878e-48
2.3884101e-48
2.2882393e-48
4.2194899e-48
3.5435328e-48
3.1993397e-48
3.9571998e-48
3.5191579e-48
3.4955086e-48
3.6865896e-48
3.9260542e-48
3.7222819e-48
3.8799573e-48
3.7726068e-47
1.5323209e-47
1.02391e-47
2.0072e-47
3.6275912e-47
8.2237215e-48
1.9843293e-47
1.1634747e-47
4.4760871e-48
4.6135603e-48
4.6168668e-48
4.9307668e-48
5.0878496e-48
5.5048416e-48
5.1182398e-48
5.4739487e-48
3.1204874e-48
2.9530467e-48
3.0613342e-48
3.1509356e-48
3.010488e-48
3.4302987e-48
3.4315571e-48
3.0514494e-48
2.9016499e-48
3.0970934e-48
1.0346579e-47
1.2171477e-47
5.4571342e-48
5.2023831e-48
5.1378521e-48
4.7309924e-48
4.5081707e-48
4.6132575e-48
4.6107499e-48
4.9092693e-48
1.1433589e-47
1.1822369e-47
2.5748851e-48
2.6096302e-48
8.3469532e-49
1.5472438e-48
3.514271e-48
3.0909125e-48
1.529589e-48
1.5238138e-48
2.9605006e-48
3.2273143e-48
1.4555929e-48
1.4857481e-48
5.2027801e-48
1.5401848e-48
2.6208754e-48
8.4513939e-49
8.200964e-49
2.5233973e-48
1.1635309e-48
7.1657087e-49
6.5837032e-49
2.6588576e-49
4.089985e-49
2.6610621e-49
2.5883093e-49
4.3835813e-49
4.3735076e-49
7.5211662e-49
7.8402485e-49
1.0316079e-48
9.5664323e-49
6.9315372e-49
7.8602001e-49
1.0687178e-48
9.8811642e-49
8.3590813e-49
7.50599e-49
1.0140341e-48
1.0166418e-48
5.9186743e-49
5.6107356e-49
6.1344307e-49
5.914221e-49
6.4120159e-49
6.1721406e-49
6.7308816e-49
6.5136849e-49
7.3163174e-49
7.4132708e-49
6.4638448e-49
6.3317734e-49
4.1788372e-49
4.2696562e-49
4.4002085e-49
3.9550047e-49
2.3568029e-49
2.4987664e-49
2.455287e-49
2.3161416e-49
2.3704741e-49
2.3459526e-49
2.4757431e-49
2.4801934e-49
2.5118054e-49
2.3555127e-49
2.3374205e-49
2.5230339e-49
2.4214465e-49
2.436382e-49
2.5480888e-49
2.4539063e-49
2.334955e-49
2.3671347e-49
2.5428121e-49
2.5519746e-49
2.3955861e-49
2.3352246e-49
2.4445266e-49
2.5072109e-49
4.2742556e-49
4.1258646e-49
2.362135e-49
2.3232718e-49
2.5188082e-49
2.5218789e-49
2.2873456e-49
2.3630954e-49
2.4619043e-49
2.4017262e-49
4.0830481e-49
3.6380124e-49
5.8938791e-49
6.4481541e-49
7.4575171e-49
6.8176916e-49
1.217575e-48
1.0528989e-48
9.6320638e-49
1.1995851e-48
7.5702283e-49
2.0250717e-48
1.1786655e-48
6.7839681e-49
1.1618162e-48
1.7473957e-48
6.6473219e-49
7.0273559e-49
1.143849e-48
8.8274653e-49
8.9014652e-49
1.1104466e-48
1.4641837e-48
1.5327253e-48
1.6686341e-48
1.134961e-48
1.9063765e-48
6.8731262e-49
7.1911398e-49
1.319053e-48
1.8772081e-48
6.3742389e-49
6.6191831e-49
8.4051538e-49
8.5787366e-49
1.0707925e-48
1.0581653e-48
1.1598833e-48
9.2660714e-49
9.3828216e-49
1.1322904e-48
1.066622e-48
9.0596032e-49
8.9691503e-49
1.13273e-48
6.8838173e-49
2.0896055e-48
1.1919463e-48
6.4490129e-49
1.074773e-48
1.89031e-48
5.8918651e-49
7.1406845e-49
1.0547168e-48
8.1055772e-49
9.1700451e-49
1.1287956e-48
1.4552223e-48
1.5877228e-48
1.5388045e-48
1.4700057e-48
1.6254572e-48
1.7108475e-48
2.4865826e-48
2.318632e-48
2.3566782e-48
1.8319913e-48
1.5711231e-48
1.5580761e-48
1.7076168e-48
1.828171e-48
1.7498877e-48
1.8353708e-48
1.9614513e-48
2.4280713e-48
2.2841223e-48
2.4807005e-48
2.5137549e-48
7.1148738e-49
1.957372e-48
1.3737455e-48
6.730367e-49
1.1445153e-48
1.9834599e-48
6.7979937e-49
8.4268137e-49
9.1609716e-49
8.8349373e-49
1.0913151e-48
1.1367651e-48
1.2059673e-48
9.572798e-49
1.1379833e-48
1.3527277e-48
6.5055748e-49
6.5784814e-49
5.91592e-49
5.8672898e-49
6.9755588e-49
6.8764679e-49
6.2061189e-49
6.3509804e-49
6.9072602e-49
6.9828147e-49
1.9016227e-49
4.0816046e-49
4.4628034e-49
1.9538516e-49
3.4290966e-49
2.8158578e-49
8.7782907e-49
9.4889157e-49
3.5431987e-49
9.6830844e-49
3.5479088e-49
8.915466e-49
3.3359229e-49
7.1060517e-49
7.6215607e-49
3.361237e-49
6.8861412e-49
3.3217472e-49
7.8025568e-49
3.4056058e-49
1.8899754e-49
4.4660086e-49
3.9220643e-49
1.9003175e-49
3.7504957e-49
1.1147805e-48
3.1901089e-49
8.4861354e-49
3.5032159e-49
8.3878144e-49
8.2273733e-49
3.1047621e-49
3.5703914e-49
9.3241241e-49
8.0962395e-49
3.3235329e-49
8.0198855e-49
3.5426703e-49
7.4805727e-49
3.5336174e-49
4.7615544e-49
4.8247634e-49
4.6529461e-49
4.6325193e-49
4.8292568e-49
5.0686446e-49
4.76484e-49
4.6017065e-49
5.8161374e-49
5.9845853e-49
4.9019631e-49
4.9306895e-49
5.6596891e-49
5.8668155e-49
5.028115e-49
4.8208484e-49
5.742276e-49
5.7396611e-49
4.6543087e-49
4.8842586e-49
4.4270646e-49
4.5302107e-49
4.615537e-49
4.5362767e-49
4.5151109e-49
4.4641074e-49
4.3525651e-49
4.3233027e-49
5.1811511e-49
5.3676862e-49
4.5674124e-49
4.3893259e-49
3.2244483e-49
3.2213235e-49
5.346749e-49
6.3007112e-49
6.4100639e-49
5.4723895e-49
5.0944615e-49
5.984555e-49
6.0578404e-49
5.2130284e-49
5.8584828e-49
6.1722519e-49
5.3360548e-49
5.0947388e-49
5.6525821e-49
6.5275881e-49
6.1940829e-49
5.3971311e-49
5.2801194e-49
5.5523996e-49
4.7954108e-49
4.5889115e-49
5.9382966e-49
5.5278014e-49
4.8157512e-49
5.1098796e-49
5.1041312e-49
5.8858235e-49
6.2327497e-49
5.3787405e-49
5.034977e-49
5.8103761e-49
5.5424798e-49
4.870814e-49
6.3936654e-49
6.7548376e-49
5.9023038e-49
5.6039533e-49
5.2495678e-49
6.1792542e-49
6.5302984e-49
5.6488903e-49
5.4196009e-49
6.1630355e-49
6.7183121e-49
5.9073857e-49
6.26716e-49
7.0166442e-49
6.6120339e-49
5.9037194e-49
5.6500393e-49
6.377931e-49
6.6485471e-49
5.866414e-49
5.3270615e-49
6.0551251e-49
6.388547e-49
5.5767233e-49
5.7827119e-49
5.9793761e-49
5.2294721e-49
5.1069319e-49
5.5431262e-49
6.2116028e-49
6.014101e-49
5.3869824e-49
4.8395737e-49
5.6202062e-49
5.7427456e-49
5.0107432e-49
4.5872373e-49
5.2421435e-49
5.3139768e-49
4.6231548e-49
4.8718452e-49
5.5536348e-49
5.825868e-49
5.007896e-49
5.5138394e-49
5.2753262e-49
4.5727085e-49
4.7641324e-49
5.3964883e-49
6.0473696e-49
6.3778719e-49
5.6534462e-49
5.0107245e-49
5.7175237e-49
5.944695e-49
5.2898168e-49
5.9407224e-49
5.7028751e-49
4.9973027e-49
5.2231501e-49
5.3995267e-49
5.9880592e-49
6.2683481e-49
5.5747498e-49
5.6630603e-49
5.8017107e-49
4.9798088e-49
4.8674991e-49
5.7448341e-49
5.9656684e-49
5.1056054e-49
4.9859413e-49
5.3248938e-49
6.1255084e-49
6.092757e-49
5.2851656e-49
5.1875407e-49
5.9814696e-49
5.8796445e-49
5.0770687e-49
5.9982163e-49
6.0475264e-49
5.2375043e-49
5.2186318e-49
5.4694505e-49
6.2404178e-49
6.2785712e-49
5.4965994e-49
5.7504712e-49
6.466433e-49
6.5682323e-49
5.8240267e-49
5.5105507e-49
6.1849393e-49
6.1865989e-49
5.4517201e-49
5.0519497e-49
5.2519862e-49
4.2130938e-49
4.2746229e-49
4.2783873e-49
4.3732128e-49
4.0856267e-49
3.9701057e-49
5.4166941e-49
5.0442819e-49
4.3353312e-49
4.563188e-49
4.3307238e-49
4.3271063e-49
4.1477407e-49
4.2976375e-49
3.9761104e-49
4.0926839e-49
1.9644623e-49
1.9152172e-49
8.0192622e-49
7.2435627e-49
3.1534619e-49
3.030426e-49
9.2143613e-49
3.4797882e-49
9.0470432e-49
3.3887997e-49
1.0325887e-48
3.4249184e-49
7.8809111e-49
3.117493e-49
3.1320997e-49
6.2853547e-49
7.421058e-49
3.1020291e-49
1.8636723e-49
4.0355701e-49
5.0346585e-49
1.9039449e-49
3.3441282e-49
3.0837297e-49
8.1147436e-49
3.8253633e-49
8.6180321e-49
3.2516809e-49
3.3808301e-49
3.6981054e-49
1.0482802e-48
9.2109633e-49
1.0310002e-48
3.20227e-49
9.7674796e-49
2.7229088e-49
3.4425116e-49
7.2108847e-49
8.8043933e-49
3.4142801e-49
4.709605e-49
4.6886643e-49
4.5479967e-49
4.5589032e-49
4.7082781e-49
5.0487227e-49
4.3602264e-49
4.2711546e-49
5.4288799e-49
5.8781372e-49
4.8668956e-49
4.6131622e-49
5.5232695e-49
5.6052871e-49
4.7564329e-49
4.6699519e-49
3.3950258e-49
3.0363122e-49
3.1298196e-49
3.2195677e-49
1.8990811e-49
4.2789823e-49
3.9288997e-49
1.8897618e-49
1.8701324e-49
3.9848818e-49
4.7065172e-49
1.9240861e-49
3.3808224e-49
3.31797e-49
4.4661173e-49
4.5423832e-49
4.3519836e-49
4.3591652e-49
3.922872e-49
4.1543065e-49
4.1405213e-49
4.0586384e-49
5.1929844e-49
4.8374443e-49
4.1031491e-49
4.461199e-49
5.2687216e-49
5.1339013e-49
4.475776e-49
4.4994104e-49
4.301402e-49
4.5009774e-49
4.4036768e-49
4.3039863e-49
4.1369789e-49
4.5066315e-49
4.3493649e-49
4.1525929e-49
5.2354132e-49
5.0781681e-49