/*--------------------------------*- C++ -*----------------------------------*\
  =========                 |
  \\      /  F ield         | OpenFOAM: The Open Source CFD Toolbox
   \\    /   O peration     | Website:  https://openfoam.org
    \\  /    A nd           | Version:  7
     \\/     M anipulation  |
\*---------------------------------------------------------------------------*/
FoamFile
{
    version     2.0;
    format      ascii;
    class       volScalarField;
    location    "1000";
    object      omega;
}
// * * * * * * * * * * * * * * * * * * * * * * * * * * * * * * * * * * * * * //

dimensions      [0 0 -1 0 0 0 0];

internalField   nonuniform List<scalar> 
33899
(
408.7181
406.47315
513.36051
407.69764
407.38441
378.21115
380.09352
399.14634
397.13163
513.19366
512.20118
1047.2071
748.47109
875.15535
446.92544
864.83658
737.98544
387.52296
388.25796
447.7768
406.13679
407.74471
379.15012
380.24931
398.0999
397.34745
395.71474
371.20195
399.23956
373.32271
389.20695
357.22299
513.72733
510.66617
744.15288
871.24855
862.85446
735.88066
446.60806
734.99641
859.47641
872.21318
743.46861
446.80997
387.37594
387.94126
1029.0594
1041.7861
2065.3165
2205.9351
2042.4571
2198.4429
2008.9156
646.01118
1315.1826
1336.4712
1142.1047
1109.9362
1561.0739
1593.9626
1789.2773
1767.3868
645.77886
523.7426
523.73684
1560.0847
1534.7366
1735.5592
1768.7073
1312.7347
1289.9214
1113.1877
1101.6747
449.79589
453.12303
637.30901
516.91122
520.09719
1102.0006
350.38917
406.08504
405.36061
378.22249
379.93876
396.24658
397.52097
513.51539
394.57406
372.21199
400.39033
373.3247
389.04308
388.41137
472.12182
388.58281
365.64055
468.86437
392.31848
381.42457
351.62417
356.87535
387.31264
445.94647
445.94847
387.64944
736.13468
726.15537
731.59876
855.90474
868.6277
739.35905
2018.0181
1109.9369
1137.2334
1333.3797
1303.4985
644.24537
1584.6084
1539.172
1779.3205
1737.2528
1516
1711.9218
1546.8224
1750.6215
1276.7861
1092.9499
643.88603
1105.6674
1305.795
522.18705
522.07862
641.39959
1287.007
1291.6333
1103.296
1095.2683
1524.1073
1538.307
1736.9842
1725.2871
1598.1372
1542.3297
1737.6143
1799.9182
647.78851
1347.9123
1298.4868
1111.2563
1142.1108
523.45686
519.50483
448.77682
452.25758
2010.8904
1994.3619
2155.6284
2071.761
2007.5532
2153.6117
2213.8095
3788.4191
3863.1206
3840.2516
3764.6546
4284.2369
4242.9524
4226.2307
4263.7303
3836.4914
3926.964
3843.3076
3753.0914
4228.8253
4322.3955
4377.9016
4291.8465
3740.7662
3693.4833
3797.2309
3830.7244
4195.392
999.97521
754.26369
749.33407
985.92269
2110.2338
2132.235
2412.9815
2378.2236
2197.4535
2248.208
2486.6697
2443.923
1879.6628
1585.8529
1559.2505
1844.1731
1476.6027
1470.3453
1771.2789
1771.5121
2720.4848
2777.597
2988.7629
2921.5771
2786.6138
2831.0004
2997.1323
2963.6262
3342.518
3313.4837
3420.5047
3445.2985
3402.9333
3355.0873
3270.4551
3482.2234
976.71086
988.02145
745.0566
739.52098
601.7235
600.87403
2784.2221
2707.37
2907.6528
2971.5898
2684.0264
2664.1684
2890.6187
2861.8557
3215.4131
3343.5413
3381.8491
3254.543
3331.8327
3267.0774
3394.0535
3452.7695
2418.8285
2097.1755
2150.8339
2358.7635
2066.0955
2067.855
2326.1928
2336.0565
1488.6868
1488.6661
1752.0644
1792.4995
1444.2378
1464.8398
1729.3827
1727.1057
441.36161
445.88372
593.23871
974.13729
972.38975
736.21257
737.60745
1785.3461
1476.907
1467.9964
1764.6526
1447.4456
350.43933
335.90935
335.79472
344.20816
344.53045
368.22282
360.00567
360.14416
368.72979
372.84585
378.31169
379.41675
396.29124
395.93513
512.22978
512.07421
394.26092
371.09463
397.02414
372.87864
387.75441
388.57245
477.70659
713.06895
710.68911
690.33339
474.19356
385.39002
366.49275
478.66863
390.22388
367.15837
380.84156
380.63868
563.03986
444.6041
381.51228
360.62113
566.27133
445.37121
2091.0327
431.51295
350.85815
428.50554
357.11225
386.46744
443.83326
729.95849
449.19877
638.28561
518.62005
518.158
636.33857
639.01282
644.50191
521.37796
517.89681
451.46268
1331.9645
1122.7811
1095.3861
1296.2088
1088.6798
1075.3586
1272.4011
1297.3741
1280.002
1093.8311
1085.7057
1277.279
1526.919
1509.4784
1710.9117
1524.0029
1575.2295
1773.8424
1099.819
1129.9575
1285.4795
1332.9924
3688.7548
3703.0952
3801.8641
986.08444
1454.0806
1472.2233
1737.8031
1731.4579
996.29527
1518.4129
1564.8758
1850.5448
1813.069
2158.588
2206.1387
2449.5662
2414.623
2335.1404
2076.1818
2058.7915
2316.3615
750.53317
746.05902
2951.7069
2785.6731
2757.4486
2942.7184
2642.4453
2675.5791
2865.8075
2834.5865
3292.0729
3288.0558
3391.0495
3412.5146
3335.1571
3208.2833
3168.3088
3308.8428
2842.1701
2651.472
2825.9465
2636.5306
3323.7125
3202.1602
3188.5797
3314.7887
2693.7127
2684.7809
2875.913
2880.7599
3216.7253
3223.8366
3353.2926
3346.0617
2305.313
2053.5455
2290.402
2032.9833
970.4724
1710.8202
1426.6586
1421.5239
1704.0064
981.38252
733.0088
738.71927
1743.6012
1469.3933
1460.8506
1755.968
2099.7339
2093.5353
2348.3886
2362.9673
597.4626
599.91781
976.31411
976.58969
738.26542
738.18481
2062.2645
2041.6688
2296.4496
2321.6422
2074.4398
2091.6096
2340.5476
2339.5838
1748.9685
1472.3517
1446.2064
1733.2035
1707.1294
1443.4615
1440.303
1727.5629
2648.8986
2634.4267
2834.3706
2839.2121
2681.3617
2675.017
2856.8182
2873.4337
3227.2357
3197.9279
3325.337
3358.4243
3325.0384
3187.0393
3178.2307
3315.0393
2875.9037
2787.8162
2970.3241
3047.9198
2716.4475
2674.1756
2860.8804
2909.5162
3322.7288
3209.4518
3267.3685
3382.2579
3424.9199
3323.4145
3395.7282
3491.7969
985.33066
1005.1547
742.45195
752.43981
2276.9523
2187.9795
2438.4016
2533.7016
2108.0232
2086.9523
2336.3906
2372.5558
1744.6765
1477.1248
1465.1158
1760.1911
1828.456
1547.6708
1568.127
1899.697
609.64373
593.17049
438.90724
442.53052
3775.2986
3673.2854
3716.4203
3819.1483
3659.8387
3680.8583
3787.309
3772.8361
4162.9428
4183.7398
3828.2887
3765.2699
3896.4525
3835.3976
3732.3746
3666.441
3816.4615
3751.2488
4133.4095
4206.6678
4263.5921
4247.3671
4207.6641
4263.9084
4308.3764
11296.168
12082.41
12225.737
11388.387
13726.177
12883.633
13078.845
13973.78
11688.483
12546.262
12124.117
11269.678
12987.923
13415.459
14328.494
13893.557
11287.549
11062.901
11902.834
12758.937
1353.9716
1048.2708
1347.0274
1042.9998
849.93817
830.61872
1006.8179
1003.9772
1276.7508
1283.176
5201.4485
5269.9393
6599.4017
6433.7171
5347.3845
5551.1876
6774.574
6593.8715
4245.8996
2430.2187
2346.4185
4061.1354
2227.555
2220.3294
3930.985
3925.052
7568.1716
7834.7684
8950.5278
8607.2283
7735.6168
7866.9964
8849.6947
8774.7444
9714.8147
9694.8335
10561.179
10525.93
10420.446
9928.7024
9541.0989
10835.698
1268.4606
990.15021
990.57346
1261.6132
1295.1575
1002.969
1002.9178
1284.4294
833.56399
813.37325
603.35217
604.29228
7774.9054
7466.1011
8517.8679
8808.5227
7476.7237
7427.5665
8553.5404
8459.6944
9373.1656
10238.84
10420.149
9514.2152
9710.1381
9461.346
10364.99
10559.172
6616.251
5090.7227
5332.6573
6320.973
5049.5803
5082.8976
6298.3048
6302.7895
2257.4705
2185.9822
3834.2353
4008.1682
2146.4899
2159.6613
3829.0054
3782.069
601.22555
600.63947
594.27959
598.23083
817.04218
812.69818
996.85777
994.70025
1274.7886
1278.6749
1261.4804
981.04891
983.53812
1260.1127
5381.1327
6706.1152
4011.193
2244.4299
2213.2599
3915.0582
2151.8694
349.79349
343.62109
335.2285
336.05262
344.50868
368.189
360.18276
360.20078
368.62692
336.39307
336.04575
344.5872
349.82577
345.51527
350.19255
372.51674
372.14517
355.30838
396.77391
396.41389
511.21985
511.71827
396.01223
371.50674
396.54327
372.27817
387.80017
387.59638
475.9622
713.3947
705.02662
682.25457
692.70416
475.8016
708.78334
709.29621
688.70595
687.3245
461.90921
386.84953
365.21561
483.33535
390.50374
366.82511
380.1916
380.45252
438.28536
624.3536
662.84544
666.98369
626.96992
1756.2428
1766.6575
573.94331
449.5988
378.36629
360.91144
584.33013
456.57723
382.35189
361.36192
516.03002
428.1058
375.09061
529.92867
2062.2685
2101.9387
5045.0976
4867.3515
5039.8359
2094.559
2071.0796
454.17079
457.05317
494.13615
490.59793
429.54305
426.76714
350.94433
456.43635
493.545
493.3677
455.01889
357.04185
449.32514
628.90328
635.60453
510.60523
515.36971
1066.9186
1110.1661
1080.5734
1266.631
1317.2764
438.16442
598.41842
594.87684
747.53116
986.92038
974.41767
741.87241
956.96874
968.7587
727.66791
733.25167
968.79382
968.11807
734.27285
733.64344
975.30692
994.61074
735.38806
745.13157
605.8284
590.87201
440.41186
2535.1327
2258.629
2186.6155
2478.1579
1862.1537
1538.4098
1513.3921
1814.126
1438.1161
1438.5556
1722.1871
1720.2831
2361.9149
2075.6245
2057.8966
2336.6995
2722.6225
2717.5236
1436.8185
1430.3898
1709.8288
1733.7348
1401.0587
1412.8158
1689.1957
1675.8341
2012.8826
2034.8407
2322.4638
2304.1363
2353.0185
2062.9139
2084.53
2373.2575
2330.852
2076.2124
2047.9208
2318.1939
1725.3499
1435.4614
1425.6654
1710.7162
1412.0755
1416.4116
1669.6023
1690.5825
2245.5604
1991.6161
2016.5624
2282.9278
2680.5694
2665.536
2612.1775
2572.3512
2770.2012
2819.3261
3185.2976
3168.2458
3289.2615
2831.6417
2643.895
2636.5736
2826.9642
2788.549
2704.7764
2887.4552
2957.8913
3337.0863
3230.4654
3290.6545
3398.9784
1707.2516
1429.4708
1432.2788
1715.5101
1532.2608
1513.4488
1781.6981
1847.105
2045.5703
2048.1837
2305.3507
2303.9646
2371.9071
2123.2351
2203.9502
2458.2149
11106.581
11242.902
11952.637
1280.9276
1000.6302
1001.5838
1269.5106
2172.5165
2162.5288
3824.4422
3826.994
1339.4505
1041.8176
1035.4076
1319.9006
2301.1113
2395.6577
4198.8638
4018.8398
5313.8714
5505.978
6753.3536
6580.8601
6344.1178
5082.8767
5047.3742
6223.4028
845.62167
825.38907
8886.5346
7877.8082
7747.4938
8811.3248
7305.7592
7498.4727
8547.2259
8305.637
9757.7246
9758.7706
10563.918
10649.951
10362.938
9480.4314
9218.9157
10099.848
8434.773
7399.8185
8344.249
7297.9193
10229.017
9352.6553
9286.2973
10195.453
7509.4984
7516.6446
8532.4579
8516.0996
9419.532
9463.1738
10365.464
10279.271
6273.4548
5038.9337
6174.0433
4967.4024
980.04661
979.48424
1241.5989
1243.6672
3770.0324
2118.7225
2108.829
3731.7192
1278.5093
992.74417
992.75223
1266.2612
806.30636
827.80485
3897.0079
2148.6409
2200.3371
3912.7888
5184.418
5197.0066
6411.52
6399.5933
596.81813
597.74593
1272.2693
993.31838
995.51814
1266.4893
1259.9485
980.42677
983.9214
1255.7734
814.79282
811.89277
5030.2951
4948.8765
6155.949
6218.1947
5064.8527
5137.0737
6339.0056
6327.04
3875.282
2177.6404
2150.5491
3789.8548
3712.3239
2092.9404
2149.7791
3794.222
7307.1867
7272.6325
8313.076
8310.8499
7503.0503
7422.8099
8407.695
8586.1073
9558.7488
9286.6833
10121.762
10479.708
10177.551
9263.8133
9220.5748
10090.468
8145.8199
7728.7828
8748.9417
9154.7072
7550.7623
7442.2141
8456.2454
8602.0026
10200.814
9353.7442
9539.3776
10432.037
10510.214
9653.8229
10031.266
10845.14
1283.9755
1001.9802
1003.0776
1277.8855
1338.7987
1032.4396
1041.8089
1340.1832
820.69
858.80841
5711.6357
5334.2614
6592.4523
7003.7845
5142.6981
5097.4023
6321.5537
6395.7828
3827.6447
2154.204
2182.9023
3854.6624
4020.2552
2293.5967
2434.5221
4325.2685
610.20249
592.40656
596.65724
595.75675
590.76418
609.82346
11747.311
10930.488
11363.431
12254.242
10929.868
11066.479
11967.943
11780.143
12646.327
12881.867
11611.794
11335.865
12375.504
12173.479
11287.524
11016.148
12152.173
11843.455
12680.897
13028.231
13941.945
13905.693
13022.019
13145
13950.49
16560.589
16851.025
17065.701
16868.695
17269.183
17504.789
17891.27
17729.261
18152.444
18455.929
18122.174
17930.158
17305.716
17679.716
17382.006
17093.79
18977.152
19182.925
19832.648
19689.446
18126.892
18272.26
18809.572
18697.944
19024.365
19283.307
19063.6
18886.4
20002.509
20208.942
19976.246
19828.378
18415.351
17914.52
17619.847
18128.227
18435.284
18661.805
19235.743
18996.136
18269.519
18586.426
18079.148
17856.713
17322.312
17831.273
17477.298
17057.049
18906.424
19413.036
19168.022
18748.435
19411.346
19554.603
20160.457
19997.15
20432.322
20596.628
21225.645
21049.418
20141.464
20356.969
19834.301
19682.126
17865.331
17729.734
17405.578
17558.88
17398.071
16936.323
16698.39
17149.816
17559.065
17736.3
18215.827
18014.434
18563.25
18668.754
19144.172
19024.354
1757.0214
1155.0331
1726.2089
1145.4383
907.23545
892.71356
1102.487
1109.9044
1636.5127
1638.8001
12492.956
12462.808
12647.166
12578.337
12959.989
12705.691
12553.05
12862.699
14305.733
14333.999
14221.881
14302.952
13778.893
13941.506
13844.141
13622.565
12445.372
12725.301
12877.458
12596.751
12593.38
13493.332
13328.597
12662.65
13860.015
14418.227
14031.393
13657.208
13829.311
14153.471
14008.197
13683.185
11213.99
12245.615
12242.971
11330.244
5185.9947
7547.0226
4928.4953
6950.5733
6668.8473
4656.4942
6768.4222
4676.4895
11374.107
11127.424
10937.3
11119.089
4399.6435
6467.9321
6630.688
4515.5553
4441.6636
6554.8277
6458.734
4417.9504
11275.199
10939.937
10738.626
11095.441
11102.501
10793.308
11032.617
11217.661
14723.272
15015.842
14731.476
14424.874
15595.007
15413.897
15097.575
15324.262
15713.98
16130.209
16432.7
16032.959
15410.38
15785.076
15416.644
15059.508
14786.813
15146.775
14821.043
14482.465
14545.015
14990.216
14704.121
14357.294
14962.205
15413.497
15271.691
14880.636
15409.914
15823.604
15460.278
15091.217
15436.879
15819.95
15761.083
15449.803
16017.808
16366.762
16003.575
15700.947
16646.525
16974.017
16624.122
16343.448
15958.939
16300.414
16355.023
16102.02
16768.831
17108.574
16630.35
16340.485
16302.325
16678.295
17058.509
16686.064
16006.475
16426.718
16085.238
15692.935
16916.011
17276.791
17708.431
17359.118
1610.6583
1089.7691
1086.6094
1600.6276
1640.2428
1098.7138
1108.0736
1646.3881
898.67952
871.2496
943.70593
920.8136
896.62317
931.32036
15372.136
15229.673
14866.548
14942.186
14685.456
14513.204
14252.601
14453.94
14958.126
15279.319
15522.806
15210.338
15417.452
15865.983
15915.101
15431.193
15087.13
14676.511
14466.822
14808.125
14198.578
14540.507
14531.608
14275.637
15233.169
15545.639
15892.372
15515.41
14759.414
15174.361
15333.175
15000.725
15325.176
15666.693
15996.852
15694.21
15960.861
16261.519
16686.13
16385.351
16678.048
16986.065
17169.451
16829.095
16521.882
16260.24
15970.032
16178.061
16336.576
16359.812
15978.849
15942.964
15656.723
15942.727
16221.79
15943.945
16373.988
16657.537
16961.143
16690.226
16578.205
16930.343
16852.311
16513.246
14499.099
14236.464
14069.715
14231.299
12281.072
12104.214
12004.895
12232.75
12892.388
12656.027
13106.926
13196.558
13537.803
13524.868
13392.625
13492.151
12311.669
11937.679
12194.688
12563.914
12418.802
12295.846
12009.635
12182.833
13434.924
13649.259
13454.231
13354.978
13914.359
13494.52
13481.079
13857.57
6884.7263
4463.1579
6548.8621
4706.2673
4265.2148
4367.3048
6256.1848
6267.6167
10770.668
10476.971
10377.212
10651.905
10943.956
11242.556
11675.927
11442.86
4188.5538
6119.3208
6271.7742
4245.6203
4373.992
6406.9833
6263.366
4288.247
10978.344
10723.599
10421.036
10697.904
10569.239
10584.669
10242.293
10895.727
688.92289
692.21428
759.84851
758.70901
680.15287
683.00278
753.32762
745.59088
680.46748
677.49435
748.43741
748.09006
903.14861
901.69469
881.57563
875.93528
1100.9047
1102.7352
1080.1808
1089.3704
1644.9762
1639.7555
1609.7809
1614.7164
12925.769
12980.968
13124.502
13163.382
14583.21
14418.507
14268.615
14470.064
11328.188
11594.978
11417.601
11006.366
6622.7663
4619.3955
6822.2023
4508.0148
6460.2714
4363.4345
6413.6988
4378.8603
10697.852
11084.414
11171.908
10806.825
4235.9015
4288.0175
6252.9531
6291.8035
10504.57
349.95093
335.34409
335.22146
343.46035
343.79265
359.48444
359.45775
367.3379
367.76993
342.18762
349.19057
334.5942
336.74351
345.32625
350.33937
402.87751
372.4129
372.25985
402.45203
352.49749
354.59488
373.15696
354.06249
355.5294
356.25954
371.73207
355.88449
366.65979
397.60163
509.04972
371.2071
372.5211
388.4694
388.26167
474.78928
710.21693
704.71777
683.01599
691.12079
475.25577
712.4738
705.20383
683.89612
693.09544
458.33276
388.08354
365.56857
461.31086
388.98717
366.03976
379.8219
379.54547
436.50736
658.03647
620.91438
623.59017
666.32164
1771.2505
1744.9206
436.63328
622.02539
661.78346
664.1913
623.63021
1747.8615
1763.7245
535.97516
445.49207
379.89378
359.94469
588.22165
464.06798
384.83979
361.40173
520.95263
562.67116
559.48769
520.96655
520.74172
1070.5324
1393.335
1387.8172
1062.1372
4218.2839
4224.3271
4265.5954
4248.0805
4464.7268
4461.1925
516.86035
438.23015
370.0024
556.5141
435.42579
375.38712
479.86181
413.83311
4904.9296
4736.9566
4880.9822
5045.1919
4940.7141
4874.7525
5038.3748
5107.9667
10260.782
9775.7227
9830.1437
10353.418
9631.2671
10405.74
10333.585
10220.934
9718.5984
10298.962
2054.3441
2085.9445
4910.6177
5087.5826
5015.751
4870.7801
4968.3395
4802.0471
4862.2569
5024.8519
2073.0783
2075.7154
481.50028
481.78997
603.03237
488.87898
452.21037
454.83984
493.14109
427.98728
454.6116
453.42076
491.52176
491.68439
351.03318
425.77356
480.79204
604.5
604.01482
481.75197
437.33082
584.74596
600.68985
952.33112
724.00463
960.61617
979.17771
729.05138
738.43899
1388.8869
1376.0234
1633.3383
1660.1045
1498.989
1469.7593
1747.4194
1806.4501
1403.4047
1407.5595
1667.7407
1671.2758
2249.7088
1990.5256
1993.1712
2260.4058
2360.584
2092.6723
2166.758
2442.0953
593.3464
591.30145
595.7095
592.91362
838.64033
817.22788
796.96257
816.51552
1030.2526
1321.9641
1315.3416
1023.7196
987.80463
987.0997
1257.3642
1256.6081
1231.2563
964.70836
964.51123
1227.4959
1250.2157
974.74826
975.67011
1245.3837
984.89998
982.63737
1247.2924
1249.8347
1240.7485
968.18495
971.00557
1233.0002
806.96167
803.73029
989.02718
987.57371
1250.9703
1254.0563
1315.329
1017.7195
1026.5245
1314.9876
811.41556
849.03655
603.12306
587.04607
586.20779
604.06752
7022.2827
5671.1417
5416.2437
6792.3111
4244.7975
2389.3926
2297.7778
4040.8442
2155.0241
2150.6718
3807.7108
3814.8549
6419.4095
5105.6765
5082.3552
6316.8319
7352.9853
7499.7621
7637.1231
2167.8429
2111.2261
3771.0143
3873.4851
2080.8663
2095.2809
3737.229
3683.4692
4931.1401
5008.2751
6271.4029
6172.8767
6400.1801
5078.1441
5149.8218
6372.4081
6333.1804
5090.4727
5004.511
6279.5453
3808.2139
2150.32
2110.6429
3731.2746
2095.5027
2044.8688
3628.1162
3722.8538
6018.9325
4827.1061
4947.7631
6138.5594
7459.6947
7477.3316
7248.176
7129.9218
8168.603
8282.2118
9431.4378
9206.7555
10090.259
8506.7889
7448.245
7275.6895
8291.8129
7841.4535
7620.4861
8660.9019
8822.6917
10414.597
9568.8145
9680.6617
10479.815
3738.4875
2107.5161
2124.341
3747.61
2357.4701
2222.0661
3922.8346
4184.3569
4975.0538
5017.3549
6276.6966
6170.3153
6472.3562
5208.3893
5507.9911
6741.4869
17109.806
17437.657
17155.391
16859.327
17776.998
17727.59
17464.853
17580.89
18240.831
17858.068
1616.2879
1090.5625
1095.8989
1606.5493
4270.518
4388.2151
6414.4199
6268.0194
4267.5345
6220.4844
4316.8269
6302.1519
10815.225
10559.979
10410.969
10674.213
10519.918
10755.963
10737.247
10856.785
1733.929
1146.5734
1134.2028
1690.5461
4587.8246
6710.9565
4568.7159
6632.041
5080.6642
7371.8304
6942.7125
4887.4835
12055.611
12004.558
11316.351
11482.89
10989.794
11440.125
11121.565
11195.104
12500.231
12847.717
13079.268
12683.482
13307.72
13342.972
12846.625
12996.248
14303.771
14491.819
14140.461
14128.412
13945.432
14434.954
14333.319
13814.342
13675.407
13721.554
13599.928
13630.77
12379.721
12149.253
12028.103
12296.248
12073.156
12050.203
12234.478
12153.555
13302.624
13490.056
13400.481
13144.268
896.64385
880.02352
15013.194
15543.696
15875.439
15405.385
14673.094
15141.425
15269.894
14884.254
14906.51
15529.734
15201.332
14598.678
15830.317
16260.565
15569.439
15192.91
14188.035
14529.805
14266.399
13930.014
14808.031
14698.915
14355.661
14525.837
14924.131
15322.058
15546.968
15171.744
14931.187
15288.292
14899.942
14591.876
16103.569
16832.888
16440.056
15783.917
15356.036
15832.991
16327.323
15924.335
15805.37
16149.469
16842.595
16515.04
17120.457
17460.719
16702.17
16442.569
16140.086
16469.386
16802.653
16539.176
15520.616
15849.076
16133.173
15815.466
15523.411
15921.642
15617.767
15266.341
16363.254
16635.102
16215.514
15982.026
14730.445
15149.596
15356.575
14998.454
14195.792
14542.753
14569.075
14304.959
14702.399
15032.46
15416.868
15058.235
14606.782
14244.897
14025.742
14349.394
15958.796
16273.506
16698.233
16413.099
15343.415
15663.871
16003.158
15706.715
16081.197
15712.907
15453.243
15769.808
16203.339
16451.725
16762.217
16465.381
14760.856
14773.886
14464.354
14415
14519.088
14888.721
14520.085
14296.974
15159.333
15522.44
15359.187
15079.343
15087.631
15474.985
15395.929
14994.486
15917.668
16065.978
15716.17
15560.189
15878.128
16177.834
16109.7
15867.251
16636.139
16930.315
16912.547
16685.73
16387.355
16705.764
16477.644
16165.554
13501.505
13655.695
13457.328
13390.747
12402.764
12232.798
12014.375
12213.657
13537.996
13174.71
13113.976
13426.385
12092.31
11717.231
11938.591
12278.04
1070.3456
1073.9517
1574.4894
1567.8927
10372.771
10649.267
10900.156
10664.42
6196.3211
4282.3209
6321.8021
4198.7667
6166.5174
4095.104
6013.0172
4162.2523
10415.369
10116.188
10452.926
10742.418
1607.6152
1083.5461
1090.7873
1608.7892
855.60463
883.42833
10433.862
11563.211
11151.917
10691.387
4229.5259
4240.307
6394.065
6224.6999
6661.4996
4338.2853
6370.8724
4533.1898
10972.325
10691.772
11142.266
11300.393
12605.024
12313.478
12504.741
12686.797
13024.219
13003.33
12004.928
12197.406
13441.103
14176.818
13862.519
13374.953
13884.48
13766.89
13655.545
13686.094
882.24583
917.04451
931.78687
908.54371
1617.296
1089.7099
1089.4072
1602.4408
1580.0003
1068.2925
1078.9194
1585.6049
867.93819
861.91843
12238.511
11887.144
12079.204
12344.735
11857.391
11692.462
11815.996
12050.26
13356.848
13055.86
12947.458
13304.501
13531.763
13310.276
13219.369
13373.423
12142.407
12136.269
12416.277
12406.627
12376.472
12343.563
12049.968
12198.63
13436.847
13505.732
13230.929
13298.401
13724.839
13747.081
13718.513
13685.47
11051.565
10836.162
10500.909
10730.023
4332.8454
4443.2451
6499.0364
6323.6196
6207.9733
4192.0271
6187.7425
4221.7333
10741.825
10376.146
10437.211
10756.021
10408.076
10118.669
10140.354
10442.824
4072.8984
6000.6648
6032.4185
4093.3284
6391.4644
4193.3104
6121.7811
4343.4107
10562.075
10269.411
10725.414
10932.68
14471.776
14331.488
14077.066
14191.738
14490.784
14036.897
13830.891
14269.972
14594.455
14855.115
15352.137
15057.576
14753.515
15091.889
15209.754
14866.962
14887.404
14921.501
14678.721
14647.613
13842.649
14204.62
14399.094
14093.664
14352.909
14730.503
15064.122
14696.676
15389.782
15747.76
15722.745
15377.039
16393.639
16408.127
16074.296
16072.275
14913.234
15229.96
15626.514
15316.508
15539.549
15813.454
16269.779
16008.486
16790.586
17104.537
17085.064
16768.003
16130.59
16405.268
16911.691
16652.703
15377.729
15605.682
16108.697
15849.516
15844.191
15738.383
15440.146
15531.122
16129.878
16432.53
16493.967
16170.301
15941.33
15610.9
15177.631
15409.468
14895.479
14806.249
14426.002
14605.61
14956.655
15355.626
15642.905
15305.197
15642.674
16132.631
16345.475
15798.797
15182.117
14591.932
14342.326
14861.148
13912.759
14244.925
14660.12
14365.435
14473.225
14857.092
15408.673
15047.063
15049.106
15372.356
15923.218
15526.157
15643.281
15964.825
16725.226
16409.332
15060.523
15368.897
16042.893
15730.641
16518.609
16044.045
15758.843
16154.46
16458.43
16753.366
17128.492
16754.638
16123.997
16461.082
16986.795
16688.772
15542.739
15866.65
16295.846
16001.826
16670.186
16539.469
16113.105
16204.912
16603.587
16999.425
17047.22
16645.245
1618.3818
1096.6003
1098.0425
1617.1201
1704.2498
1132.4936
1153.8496
1733.6459
875.83388
917.75119
13529.352
13379.687
14124.784
14095.85
12763.659
12603.067
12450.445
12606.566
13888.519
14010.528
13768.264
13750.922
15302.154
14808.12
14539.62
14903.152
12558.711
12022.181
12258.798
12786.096
12262.413
12154.435
12073.341
12272.012
13576.01
13441.779
13218.643
13474.093
14108.223
13522.704
13457.096
13994.425
10817.262
10550.805
10409.397
10679.568
4282.1155
6276.1768
6237.9175
4263.401
4247.777
6184.6217
6435.7274
4358.9692
10806.132
10650.477
10320.31
11109.048
11165.135
10868.926
10855.867
11065.69
4472.0443
4620.6028
6515.8958
6614.4105
4882.2696
7126.7869
7698.7597
5256.0511
12610.613
11754.881
11954.829
12684.861
904.19904
963.25358
890.36501
891.04824
683.54972
686.46097
754.11505
752.83073
677.78114
674.30567
739.8746
747.52178
676.76129
675.66227
745.57664
744.62018
683.15984
689.54291
761.19307
750.00316
17098.946
17290.847
17894.422
17749.822
16279.262
16486.843
17009.923
16811.649
17794.06
17860.509
17595.795
17551.16
18531.185
18739.348
18653.205
18466.51
17126.94
17155.875
16904.633
16868.525
17741.442
17164.808
16946.955
17520.244
17898.812
18057.111
18660.181
18469.75
17798.389
17999.73
17890.774
17692.066
18773.12
18961.117
18791.477
18631.219
18951.486
19071.365
19654.952
19505.444
17488.812
17523.155
17199.42
17164.605
17701.783
17061.963
16807.629
17449.516
17904.238
18167.832
18037.699
17778.674
17628.577
17815.247
18503.305
18290.848
17724.262
17484.534
17236.358
17426.735
17429.44
16573.196
16341.186
17164.376
18120.191
18324.713
18461.483
18228.712
17167.69
17339.888
18228.355
18005.074
18096.781
18224.077
19119.975
18950.735
19324.536
19273.029
19099.061
19157.854
20106.014
20293.796
20292.416
20103.501
19451.846
19667.704
20392.721
20217.616
18562.038
18699.569
19394.664
19240.347
18711.455
18937.306
18729.133
18534.404
19607.578
19808.42
19520.812
19352.48
67800.745
66414.268
66669.043
68473.148
71194.904
69651.202
70471.65
72286.106
74287.064
72580.488
71547.563
73397.009
67720.629
68852.705
70581.45
69554.156
78159.91
76587.632
78503.345
80394.17
74732.275
73067.936
74402.749
76307.805
75612.025
76467.742
78343.786
77479.014
82462.58
80500.188
79652.398
81603.331
70918.1
69404.369
71065.661
72810.296
74884.904
73129.977
74976.093
76885.436
75560.471
73735.935
71098.05
72837.594
67400.162
69807.288
71627.92
69105.781
74953.832
77769.287
79698.808
76786.668
78953.475
77054.16
79167.831
81190.403
83181.817
81215.411
83524.201
85566.56
84007.424
81936.887
78979.454
80953.974
69710.689
69222.676
71031.24
71458.904
68082.746
66628.114
68284.809
69929.815
72063.32
70309.658
71973.971
73801.69
76157.958
74247.046
76003.528
77972.346
3911.0506
2713.0794
3999.9856
2664.3216
1645.6951
2568.6096
3683.3822
3695.2068
2579.4683
1586.5305
1485.6738
1439.5066
1368.7524
1403.7501
1550.2478
1520.3326
2462.6175
3492.3277
3480.3999
2447.1969
2454.1633
3468.2845
3516.1729
2483.9533
40199.641
40232.314
43768.226
43385.617
44592.898
40855.445
40123.304
43909.69
47643.855
48138.499
51291.936
51005.781
46484.332
47190.776
50260.348
49256.651
39976.276
40699.003
44215.325
43363.009
40096.065
42739.726
45650.939
43391.536
46608.047
48441.4
50871.758
49416.33
46608.291
47598.141
50612.425
49484.209
22630.051
39353.319
24549.803
36571.886
11798.588
17962.609
10351.537
15908.777
15483.997
9974.541
15626.046
9751.8436
36926.768
22434.762
22333.858
36278.016
9397.2273
15257.73
15857.356
9736.2502
9696.3217
15521.263
15133.741
9339.5384
36897.573
22286.895
21885.724
36149.773
36414.998
22100.668
22752.133
36738.653
51952.139
53216.85
55670.001
54180.773
54182.498
54271.151
56674.098
56761.022
60677.001
58925.182
59178.747
61125.982
60006.577
58053.704
56371.802
58211.192
52250.756
53489.264
55839.09
54521.922
55212.865
53210.071
52065.264
54233.415
58600.851
57025.331
56222.838
57935.113
59819.183
58061.212
56710.316
58502.679
61717.72
60281.96
59658.943
61307.974
60433.928
61727.546
63367.368
62144.85
66941.934
65273.234
64056.164
65789.632
64812.747
63376.291
63077.735
64795.814
67715.172
66026.203
63819.401
65510.185
64134.672
62573.977
63182.788
64978.262
60177.177
62116.413
63959.141
61923.913
67550.716
66043.098
67033.332
68818.367
2433.5488
3439.1128
2414.9407
3408.3443
1506.2696
1486.0039
3309.1701
2386.7319
2357.9803
3344.2543
3451.9989
2415.0488
3379.3167
2427.6812
1507.1751
1572.3501
3644.3241
2471.7028
2534.3025
3507.372
1421.5364
1363.7022
1332.8507
1355.8888
1153.1653
1172.7117
1327.927
1340.0356
1118.9601
1116.2446
1273.6124
1285.5649
1095.8317
1096.207
1254.2931
1259.0589
1111.3946
1117.8373
1271.6703
1287.1418
53868.759
53784.64
56099.556
56052.502
51853.742
52002.349
54361.295
54324.757
58606.578
56708.49
56751.429
58733.836
60048.061
58313.603
58160.999
59860.008
53277.222
52359.857
54895.865
55763.246
54457.888
52330.924
51454.725
53879.54
59395.607
57382.822
58177.153
60141.359
58262.869
56672.01
56287.674
58271.764
61478.838
60007.113
60384.617
62227.949
64866.343
63316.325
64287.344
66087.266
67169.237
65508.56
66002.748
67712.034
62211.212
61552.486
63437.011
64003.655
61678.514
61958.904
63618.495
63298.989
62442.775
60672.465
60862.391
62741.955
66258.104
64546.929
64897.357
66760.236
67198.676
65551.341
65113.945
66785.16
48340.35
47828.471
50868.606
51139.421
42835.314
39353.707
38728.356
42243.868
44308.104
40651.657
41605.107
45051.901
45712.032
46133.958
49103.635
48828.609
39876.93
38856.624
42480.456
43486.348
43459.626
40019.246
38784.83
42163.244
45474.414
46706.341
49574.454
48488.346
47014.386
46015.792
49232.071
50197.318
16337.764
9560.8697
15389.415
10252.325
9287.9846
9064.8013
14883.182
14564.421
35532.989
21571.063
21271.849
34929.132
22265.731
36659.623
37793.967
23341.472
8937.6569
14428.363
15016.911
9224.335
9617.4971
15281.072
14786.202
9170.1425
36273.393
22076.017
21489.538
35106.316
21878.676
34971.8
21096.327
35978.197
799.50067
800.39438
1077.7617
1069.9077
791.10236
791.32768
1058.9716
1056.2183
787.8765
787.72149
1054.0541
1056.5063
1109.1332
1111.223
1270.9287
1274.3164
1091.4146
1088.7976
1243.9165
1257.2967
1367.6975
1392.4582
1520.3396
1545.4599
1385.0838
1329.1968
1479.9197
1531.6427
2507.674
3605.8166
2481.2744
3567.9399
3441.8278
2424.9049
2446.6325
3458.5027
3383.8621
2383.041
3351.1575
2389.1496
3503.7251
2418.2219
2460.9221
3422.8293
41092.565
41588.669
45009.345
44817.333
48452.452
48337.342
51315.517
51689.763
23001.935
37722.084
37032.415
22313.948
15602.627
10419.413
16347.941
9833.4898
15348.538
9489.2383
15098.307
9546.2899
21728.383
36292.842
36592.597
22136.446
9290.8759
9190.0343
14932.781
14823.207
21606.777
350.11951
343.77273
335.59228
335.68706
344.042
359.59748
359.76388
367.3883
367.57135
335.76512
335.17811
344.25665
349.05684
344.9724
349.37497
371.40893
371.71438
401.87539
401.20885
349.84966
368.25059
354.80203