/*--------------------------------*- C++ -*----------------------------------*\
  =========                 |
  \\      /  F ield         | OpenFOAM: The Open Source CFD Toolbox
   \\    /   O peration     | Website:  https://openfoam.org
    \\  /    A nd           | Version:  7
     \\/     M anipulation  |
\*---------------------------------------------------------------------------*/
FoamFile
{
    version     2.0;
    format      ascii;
    class       surfaceScalarField;
    location    "1000";
    object      phi;
}
// * * * * * * * * * * * * * * * * * * * * * * * * * * * * * * * * * * * * * //

dimensions      [0 3 -1 0 0 0 0];

internalField   nonuniform List<scalar> 
100832
(
3.4296126e+43
-6.1962721e+42
-3.4148635e+44
3.1369242e+43
-7.2226128e+42
-3.5486213e+44
1.2159647e+43
-1.6479203e+43
1.5988895e+43
-3.5431128e+44
1.4910393e+43
-1.9218266e+43
2.4504694e+43
-6.2749539e+42
-3.5174323e+44
1.8489049e+43
-8.3858577e+42
-3.5376598e+44
-2.8556986e+43
2.5319312e+43
3.2304558e+42
-3.3807915e+44
4.0772605e+42
-3.2238636e+44
3.0927263e+43
3.0469655e+42
2.7335419e+43
1.8001347e+42
-3.544406e+44
-7.911803e+42
6.0265389e+42
-1.6424034e+43
1.5527371e+43
1.4937668e+43
-1.8691591e+43
-3.5140153e+44
-1.701167e+43
1.5924235e+43
1.4534092e+43
-1.8289811e+43
-3.5213111e+44
-7.9394215e+43
2.8496761e+42
-4.6576142e+42
3.0168542e+42
-5.086613e+42
2.8986401e+42
6.0238506e+43
-4.0851513e+42
4.8389895e+42
-7.4996334e+43
2.8951198e+42
3.4597601e+42
-4.0558627e+42
-4.7742175e+42
-3.107582e+42
4.0797347e+42
-5.2681661e+42
-4.6791378e+42
2.9935375e+42
2.8148078e+42
-2.7539849e+44
-1.3583351e+43
1.1691112e+43
1.7808836e+43
1.5966062e+43
-1.364555e+43
-1.6541351e+43
-6.1732649e+43
-5.140033e+42
-4.8734457e+42
3.3192626e+42
2.9490325e+42
-7.6742807e+43
2.9523618e+42
3.4525203e+42
-4.7633868e+42
-4.3294034e+42
-1.3487106e+43
-3.1301358e+44
1.5481634e+43
-4.3454825e+43
2.7581967e+44
-3.0910952e+44
-4.3909226e+43
1.7752742e+43
-1.5049315e+43
-1.578078e+43
-1.3791604e+43
9.1731776e+42
-1.1111509e+43
-3.5316602e+44
-9.0357459e+42
-3.5260138e+44
-1.7485306e+43
1.1705724e+43
-5.2474489e+41
-3.3568455e+44
3.2578996e+42
-3.3120761e+44
2.1440713e+43
2.0203043e+42
-3.4773699e+44
1.6847158e+43
-3.7030992e+41
-3.5044924e+44
-2.4423212e+43
2.0833636e+43
1.1300382e+43
-2.6319535e+44
-2.5307833e+43
2.08001e+43
6.7914476e+42
-3.385627e+44
1.2312302e+43
-2.4493655e+44
7.5633577e+42
2.3563745e+43
4.4430693e+42
-3.4386062e+44
2.7213327e+44
2.6705001e+44
-7.7020899e+43
2.6803458e+43
-3.3059889e+42
-3.3902311e+44
-1.5368719e+43
-1.7387852e+43
-3.4765017e+44
-1.6728224e+43
1.5880599e+43
1.4777394e+43
-1.759286e+43
5.9704424e+43
-3.3580019e+42
3.9065125e+42
-4.707657e+42
-4.07776e+42
3.2849726e+42
2.9911277e+42
-7.4167643e+43
-2.3829163e+42
3.1246331e+42
-4.8153139e+42
-5.2970081e+42
2.9049373e+42
2.8251816e+42
-6.1043281e+43
-3.488569e+42
-4.848295e+42
3.3469255e+42
-5.2379591e+42
2.8172846e+42
-4.2504786e+42
3.4489171e+42
-4.2467916e+42
-7.6236538e+43
-4.6844652e+42
2.876489e+42
-7.3371918e+42
-2.7448138e+44
4.8126836e+42
1.7918529e+43
1.6769257e+43
-1.5659799e+43
-1.3239341e+43
6.0727217e+43
-3.3749296e+42
-7.5991898e+43
3.0239899e+42
3.3851191e+42
-4.1891325e+42
-4.8425073e+42
-2.6138914e+42
8.0270181e+43
-5.3562201e+42
-4.8598763e+42
2.9333824e+42
2.7893166e+42
-6.0180104e+43
7.9889195e+43
-5.1077079e+42
-4.8575e+42
3.3186392e+42
2.9374181e+42
-7.4459116e+43
2.9099025e+42
3.4601311e+42
-4.2452226e+42
-4.6715466e+42
-2.760141e+44
1.8284104e+43
1.6103736e+43
-1.5020361e+43
-1.4568328e+43
-9.5984948e+42
-3.1119137e+44
1.0130741e+43
-4.3059772e+43
-3.0880051e+44
-4.3673338e+43
-2.1133027e+42
-4.7830168e+42
-5.1168244e+42
2.7745534e+42
-4.8449981e+42
-4.8073614e+42
3.0637632e+42
2.8114907e+42
1.3248791e+43
-2.4024031e+41
-1.7175286e+43
2.3883212e+41
-9.807758e+41
6.1656116e+41
6.4246041e+41
-1.0079556e+42
-1.4340131e+41
1.3496147e+41
6.2147268e+41
-9.2528142e+41
-9.0024472e+41
6.6776563e+41
1.3475182e+43
-3.6582014e+41
-1.7616387e+43
-1.0510468e+42
6.1752604e+41
6.3847444e+41
-1.024778e+42
-9.3117602e+41
-9.9215098e+41
6.2157034e+41
6.1664544e+41
-1.7831863e+43
-1.0265541e+42
-1.0105178e+42
6.2897377e+41
6.7843868e+41
-4.5510537e+42
-5.7764187e+43
4.8301646e+42
3.7685726e+42
-2.9700635e+42
-3.7256285e+42
3.2247144e+42
8.8558627e+41
-1.3550848e+43
1.7663754e+43
-1.1228469e+42
-1.1946194e+42
-1.125745e+42
7.1576302e+41
6.2407875e+41
-1.3546492e+43
1.7536067e+43
1.1670424e+42
-1.1824898e+42
-1.0320516e+42
7.3486593e+41
6.6840634e+41
-1.1560039e+42
1.353012e+42
-1.6905704e+43
7.2765086e+41
-1.0364651e+42
-1.2059589e+42
6.211154e+41
-1.2504482e+42
-1.7132035e+43
-1.2097222e+42
-1.1011084e+42
6.676472e+41
5.4459918e+41
6.3054577e+41
1.366589e+43
-8.6132495e+41
-1.1413397e+42
-1.1170439e+42
6.3884606e+41
5.8001535e+41
1.3475047e+43
8.9025188e+41
-1.1180728e+42
-1.0308021e+42
6.427017e+41
6.2834902e+41
-4.1089332e+41
5.2781087e+41
-1.011275e+42
-1.0579394e+42
6.2923689e+41
6.1635878e+41
-6.0988299e+41
5.9216802e+41
-1.0798056e+42
-1.0793517e+42
6.3029039e+41
-5.9168616e+43
-5.8973519e+42
3.7292319e+42
3.0684829e+42
-3.6702018e+42
-3.3893284e+42
-4.1720841e+42
-6.5577606e+43
5.377117e+42
-7.0371467e+42
-6.6192319e+43
-6.3923759e+42
-7.2973413e+42
6.5331138e+41
1.3661005e+43
-1.7782344e+43
-1.07074e+42
-1.0825318e+42
6.9144158e+41
6.5402475e+41
1.3831002e+43
-1.8009938e+43
-1.1555438e+42
-1.0683142e+42
6.4751573e+41
6.7382048e+41
-4.7611483e+41
-1.0246807e+42
6.4400017e+41
6.429397e+41
-1.077625e+42
-1.0299209e+42
-1.041014e+42
6.6127329e+41
6.186994e+41
8.5728593e+41
-1.3719559e+43
6.5118944e+41
-1.0926363e+42
-1.1677835e+42
7.4455341e+41
-1.3868988e+43
-1.2192313e+42
-1.0911034e+42
7.0468119e+41
6.5166344e+41
1.0404031e+42
-1.4240715e+42
-1.7052066e+43
-1.2141206e+42
-1.09051e+42
7.1957075e+41
5.3785046e+41
-1.7343372e+43
-1.2521067e+42
-1.0792689e+42
7.0569242e+41
5.6061943e+41
-1.4860955e+43
1.6160093e+43
5.7588674e+43
5.6497843e+43
-1.8477127e+43
6.7968643e+43
6.4464856e+43
-1.9052142e+43
5.9112961e+43
-5.8111734e+43
3.6221567e+42
3.031759e+42
-3.8508588e+42
-3.1309033e+42
-4.5148515e+42
-7.0699199e+42
-1.688599e+43
6.7279088e+41
-1.0778015e+42
-1.249047e+42
5.6883206e+41
2.9634037e+43
-2.8526373e+43
-2.2190774e+43
9.9557019e+43
9.4384236e+43
3.1146594e+44
3.031192e+44
2.9885651e+44
3.0559357e+44
5.956431e+42
-1.0761317e+43
-3.4998733e+44
-1.0104837e+43
-3.4665412e+44
-7.3184769e+42
4.000893e+42
-5.5754134e+42
-3.3393257e+44
-2.8019511e+42
-3.3093968e+44
-1.3775578e+43
2.7145832e+42
1.0437302e+43
-4.3336118e+42
-3.4820873e+44
-3.2823819e+42
-3.4806944e+44
8.2666753e+42
-3.4476741e+44
-1.9154616e+43
-1.7776349e+43
1.9110618e+43
-1.3773228e+43
7.7389901e+42
5.0266514e+42
-2.5952281e+44
-1.4336387e+43
9.2924936e+42
2.1225832e+42
-3.3313354e+44
1.0113093e+43
-2.5463041e+44
6.230985e+42
-3.2895457e+44
1.997898e+43
1.0788314e+42
-3.3916497e+44
1.5701006e+43
-6.0879393e+41
-3.41055e+44
-2.1222207e+42
1.7689909e+42
1.0009373e+43
-1.7965243e+43
-2.1324844e+43
1.6086316e+43
1.0315502e+43
-2.6148086e+44
1.8616109e+43
4.3321508e+42
-3.3142608e+44
1.1407894e+43
-1.6119893e+43
1.2263043e+43
-3.3050668e+44
2.2216356e+43
-2.4815443e+42
2.6382284e+44
2.5868277e+44
1.1702383e+44
2.8065454e+44
2.6787862e+43
2.8653136e+44
2.6995195e+44
2.6553549e+44
-7.7151983e+43
1.556418e+43
2.6939085e+44
-6.0439831e+42
-3.0791188e+44
6.9243508e+42
-4.1656219e+43
-1.2284622e+42
1.6470545e+42
1.7434258e+43
-1.2611182e+43
-1.465116e+43
1.6612045e+43
-2.7335696e+44
1.8160486e+43
1.6612686e+43
-1.4055853e+43
-1.4026744e+43
-3.0726981e+44
-4.2439586e+43
-2.7845329e+42
2.9395571e+42
-7.1467223e+43
3.1957503e+42
-4.0129305e+42
-4.5857677e+42
2.9043486e+42
-3.2132221e+42
-7.3133043e+43
-4.575483e+42
-4.2087637e+42
3.1639722e+42
2.7280017e+42
6.0452414e+43
-2.7586018e+42
-7.5121385e+43
3.4036407e+42
-4.1445948e+42
-4.7493859e+42
2.976476e+42
-1.9975661e+42
-4.8138804e+42
-5.3861474e+42
-5.9677933e+43
3.289213e+42
-4.910859e+42
-5.1100918e+42
2.8620583e+42
-7.3596975e+43
-4.1891802e+42
-4.5721283e+42
3.371848e+42
2.8635562e+42
-1.7303674e+43
-2.331789e+41
-1.0069818e+42
-1.0403557e+42
5.9934085e+41
1.0293585e+42
1.3695783e+43
-1.2307967e+42
-1.721853e+43
-1.1902243e+42
-1.0762352e+42
7.2443589e+41
5.5855243e+41
1.3408481e+43
1.2222899e+42
-1.6722973e+43
-1.204372e+42
-1.0329628e+42
7.0852156e+41
5.7261515e+41
-8.2117039e+41
1.741374e+43
1.0303029e+42
-1.1884766e+42
-1.0578466e+42
6.8137954e+41
6.3552447e+41
1.7767621e+43
-9.5123072e+41
7.0657526e+41
-1.1025464e+42
-1.1710213e+42
6.1634263e+41
-3.3606588e+42
-5.7230313e+43
3.5167701e+42
3.4020625e+42
3.7730918e+42
-2.8461511e+42
-3.5039039e+42
-6.0509358e+41
1.3370997e+43
7.8623134e+41
6.2218332e+41
-1.0516422e+42
-1.1343268e+42
6.1007756e+41
1.3573631e+43
-6.9128901e+41
-1.1317172e+42
-1.091956e+42
6.3461245e+41
5.7223946e+41
-3.4749058e+41
4.2226656e+41
-1.0645568e+42
-1.0119214e+42
6.0626837e+41
6.1824177e+41
-4.6186921e+41
6.1575917e+41
-1.0722338e+42
-1.0696416e+42
5.8213576e+41
1.3801951e+43
-6.4734787e+41
-1.7927948e+43
6.9161983e+41
-1.038295e+42
6.8673396e+41
-1.106296e+42
-3.8335816e+41
6.4987048e+41
-9.9538267e+41
-1.0268222e+42
6.6471429e+41
1.3494165e+43
-1.7536353e+43
-8.2466917e+41
-1.1311482e+42
-1.1131763e+42
6.44494e+41
5.8138146e+41
-4.8907048e+41
-1.0488668e+42
-1.0651766e+42
6.3291931e+41
5.9461347e+41
-1.3734657e+43
-8.4083028e+41
7.4262565e+41
-1.065364e+42
6.71376e+41
-1.2034128e+42
-9.6806521e+41
-1.7203089e+43
6.8486096e+41
-1.0687362e+42
-1.2318872e+42
5.7467217e+41
-5.9007695e+43
-4.1602528e+42
3.809865e+42
3.2478245e+42
-3.2582047e+42
-3.4594706e+42
1.3540208e+43
-1.22773e+42
-1.697957e+43
7.3824777e+41
-1.07064e+42
-1.1949348e+42
5.4188825e+41
-1.0023646e+42
-1.1738738e+42
-1.0864736e+42
7.0682973e+41
5.9539616e+41
3.1356639e+42
-4.9197221e+42
-6.602701e+43
-6.8564209e+42
-6.4845656e+43
4.0485134e+42
-6.5368419e+42
-3.4794924e+42
-5.8665671e+43
3.7385726e+42
3.2780832e+42
-3.0522833e+42
-3.6872507e+42
7.9147239e+41
-1.3820543e+43
1.7968768e+43
-9.9403319e+41
-1.1944221e+42
-1.1024038e+42
7.468466e+41
6.2830616e+41
-1.3666827e+43
1.7742186e+43
-1.2128582e+42
-1.066943e+42
7.2299875e+41
6.5567056e+41
-9.770479e+41
-1.7081752e+43
7.1276206e+41
-1.0615781e+42
-1.2406848e+42
5.6461171e+41
-1.2102261e+42
-1.7362883e+43
7.2484453e+41
-1.1007738e+42
-1.2249497e+42
5.3388922e+41
6.198824e+41
1.3773672e+43
-7.6080208e+41
-1.138104e+42
-1.1075198e+42
6.4427308e+41
5.8114668e+41
1.3644567e+43
-1.1524473e+42
-1.0624908e+42
6.3235943e+41
6.1553526e+41
-3.7320073e+41
1.7352578e+43
-1.0846837e+42
-1.0397028e+42
6.0992246e+41
6.2396648e+41
-5.2541154e+41
1.7648605e+43
6.3102099e+41
-1.0776678e+42
-1.0768593e+42
5.9010042e+41
6.2610064e+41
1.3611703e+43
-1.7586314e+43
-1.1093343e+42
-1.0783908e+42
6.9483181e+41
6.2394763e+41
1.383169e+43
-1.7937679e+43
-1.1526054e+42
-1.0627518e+42
6.7706899e+41
6.5207479e+41
-4.141147e+41
1.7813732e+43
6.5427159e+41
-1.0157096e+42
-1.0664534e+42
6.5319218e+41
1.7420314e+43
6.7240755e+41
-1.0310612e+42
-1.0241407e+42
6.2529752e+41
-5.7535985e+43
3.8508102e+42
3.1810042e+42
-3.1644011e+42
-3.3361349e+42
8.1874723e+41
-1.3474258e+43
-1.1692433e+42
-1.0741048e+42
7.6154123e+41
6.2794834e+41
-1.3745115e+43
-1.2161958e+42
-1.071227e+42
7.267346e+41
6.5297015e+41
-9.5879029e+41
-1.7212577e+43
7.2095441e+41
-1.0658485e+42
-1.245516e+42
5.6121366e+41
-1.671783e+43
7.3002584e+41
-1.0808724e+42
-1.2066662e+42
5.2376023e+41
3.8441526e+42
-6.4008075e+43
-7.0153056e+42
-6.7465882e+43
-6.8436868e+42
-1.0970857e+43
1.1129438e+43
5.6525682e+43
5.6953243e+43
-1.7617974e+43
5.532451e+43
5.8502204e+43
-1.8249286e+43
-2.0044782e+41
6.0028658e+41
-1.0000526e+42
-1.0235452e+42
6.2743933e+41
1.3495247e+43
-3.0880955e+41
-1.0244775e+42
-1.0353239e+42
6.1684263e+41
5.8785431e+41
-1.6360611e+41
-9.7180514e+41
-9.9341544e+41
1.9423837e+41
1.3355901e+43
-9.901828e+41
-1.0009795e+42
6.0891432e+41
6.4625627e+41
1.3602358e+43
-1.0202144e+42
-9.7783724e+41
6.4683587e+41
6.4065749e+41
-1.1086953e+41
-9.4701308e+41
-9.6857217e+41
6.4689287e+41
6.3723223e+41
-9.6849712e+41
-9.4526049e+41
6.0317357e+41
3.0024036e+42
3.0125602e+40
-3.8394554e+42
-4.2322517e+40
-1.3152692e+41
3.8286086e+40
3.726898e+42
-4.0954689e+40
-1.0526476e+41
-3.042421e+42
3.7963028e+42
4.0196385e+40
-1.1333157e+41
3.8506744e+40
-3.9154319e+42
-1.4332592e+41
-2.921295e+42
3.6855391e+40
-3.1062586e+40
-1.1179259e+41
3.9767648e+40
-4.6151747e+40
-1.1329414e+41
2.9597183e+42
5.0991509e+40
-7.4883652e+40
3.3043832e+40
-1.0133458e+41
3.0765365e+42
3.1693148e+40
-3.9672205e+42
-1.5354926e+41
3.0577495e+40
3.8315793e+42
-1.2789756e+41
-3.0515449e+42
3.7888976e+42
2.3063278e+40
-9.1363978e+40
2.0621438e+40
-3.9109619e+42
-1.5428934e+41
-4.3957407e+40
2.9645174e+42
3.5930859e+40
-9.8768403e+40
2.9826734e+42
-1.3621063e+41
1.6224512e+40
-1.3085046e+41
-1.2185036e+41
-1.9645325e+40
3.0914449e+42
-3.9807026e+42
-1.414092e+41
3.054256e+42
-3.9174169e+42
-1.463805e+41
3.153295e+40
3.7926546e+42
-1.1789323e+41
-1.2974246e+41
-1.2672096e+43
-1.3084997e+42
1.4431901e+42
6.8856593e+41
-8.2930655e+41
5.5444731e+41
-1.0134298e+42
-1.018371e+42
-1.4605398e+43
1.494959e+42
-1.5133464e+42
1.3054829e+43
-1.4834929e+42
-1.4743497e+43
-1.5718356e+42
-1.4224494e+42
-9.9233911e+41
-9.2828188e+41
6.7457679e+41
5.0750311e+41
1.7324192e+41
3.3238106e+42
-4.1753819e+42
-2.4275562e+41
-2.7353433e+41
3.3599751e+42
1.9611605e+41
-4.2262427e+42
-2.8235153e+41
-1.2948092e+41
1.4419635e+41
4.2431536e+42
-1.8213076e+41
4.1699403e+42
-1.7368538e+41
-1.7784646e+41
1.8656878e+41
3.3198399e+42
-4.240584e+42
-2.5219817e+41
3.2839766e+42
-4.1767838e+42
2.5417199e+41
-2.0684759e+41
-1.2454877e+41
4.0918426e+42
1.8322107e+41
-1.316721e+41
4.1701934e+42
-1.6229937e+41
-3.2703973e+42
-2.4668544e+41
3.1459483e+41
-2.4664481e+41
-2.8825041e+41
3.6221668e+41
-3.935314e+42
-4.4551448e+41
3.3228872e+42
-3.3850705e+41
-4.0308134e+42
-4.4777566e+41
-2.7968624e+41
-2.6358042e+41
2.6192795e+41
3.2629975e+42
-3.3433337e+41
-3.9406145e+42
-4.5969947e+41
3.2855843e+42
-4.001837e+42
-4.6143454e+41
-2.3474929e+41
-3.1794798e+41
-3.0193513e+41
-3.0059907e+41
7.1011632e+40
3.2593996e+42
-1.0593141e+41
-1.9587918e+41
3.3018216e+42
8.5050926e+40
-1.8975115e+41
-4.5337142e+40
4.8025146e+40
4.0966196e+42
-1.5864e+41
4.0302518e+42
-6.8271067e+40
-1.6790271e+41
7.805863e+40
3.23988e+42
-1.8076685e+41
3.1914593e+42
1.12574e+41
-1.6493416e+41
-3.4706402e+40
3.9513029e+42
5.8110417e+40
-1.4054579e+41
4.031806e+42
-1.502581e+41
-4.8855411e+39
3.0899145e+42
1.8413918e+38
-1.4518502e+41
3.131252e+42
-4.1539772e+39
-1.5811691e+41
-1.9574861e+40
9.7407267e+39
-1.4510869e+41
-1.7946924e+40
-1.3480997e+41
-3.1464901e+42
-9.6145673e+38
-8.6532514e+39
-1.6268893e+41
-3.3043779e+38
3.1779231e+42
-1.6493254e+41
-2.0775093e+40
-1.751452e+41
-1.502276e+41
-1.1776684e+42
-1.3055212e+43
6.5659896e+41
-8.9498738e+41
-1.0666727e+42
5.013537e+41
-1.2827248e+43
-1.5674741e+42
6.7600952e+41
-9.2923142e+41
-9.8875975e+41
4.7545426e+41
1.1212617e+42
-1.4330703e+43
-1.6605633e+42
-1.6274417e+42
-1.5217344e+43
-1.589426e+42
-5.2084677e+42
5.47223e+42
1.2976218e+43
1.2670769e+43
-4.7081109e+42
-6.1755213e+42
1.2372563e+43
1.3276787e+43
-5.0298264e+42
7.1387647e+40
3.2343267e+42
-4.1299708e+42
-1.3840952e+41
3.2672693e+42
1.0622954e+41
-4.2046612e+42
-1.7998183e+41
-4.1399789e+40
6.1275679e+40
4.0646847e+42
-1.2584924e+41
4.0017553e+42
-1.0188088e+41
8.5823821e+40
3.2848143e+42
-4.220064e+42
-1.9988816e+41
3.2519041e+42
-4.1594178e+42
-1.8090782e+41
4.5561327e+40
4.0870532e+42
-1.3900837e+41
4.0255795e+42
-1.225645e+41
3.1442967e+42
-1.5244992e+40
-1.4892767e+41
3.9869213e+39
-1.417601e+41
-3.1761136e+42
-5.13455e+39
-1.5252727e+41
-1.5996478e+40
-1.6593351e+41
1.3876804e+39
3.1228775e+42
-1.4818627e+41
3.1594732e+42
-1.504109e+41
-2.7154551e+39
-1.4030375e+41
-1.4833493e+41
-3.2789634e+42
1.3002157e+41
-1.6010979e+41
-1.6741357e+41
3.3452037e+42
2.3995724e+41
-4.2674222e+42
-2.4296056e+41
-4.1169324e+42
-2.7032673e+41
1.7215976e+41
-1.5704207e+41
1.7894406e+41
3.3389942e+42
-4.2170535e+42
-2.8015847e+41
3.3364553e+42
-4.2467466e+42
-2.4462335e+41
-1.2582765e+41
-1.6613882e+41
-1.8307411e+41
2.7088032e+41
3.2158612e+42
-3.4826789e+41
-3.8802781e+42
-4.7231606e+41
3.3335287e+42
3.3497689e+41
-4.0340861e+42
-4.5404876e+41
-2.2371041e+41
2.8827486e+41
-2.7888692e+41
-2.8486373e+41
-3.0206712e+41
2.8211348e+41
3.2956351e+42
-4.0275348e+42
-4.6734331e+41
3.3334161e+42
-4.0117902e+42
-4.5311446e+41
-2.3355991e+41
-2.7601303e+41
-3.0608387e+41
-1.4686087e+43
2.0066772e+43
1.6354615e+43
5.4249712e+43
5.2909706e+43
5.8815496e+43
5.7635491e+43
1.9803569e+43
6.0252774e+43
5.5528367e+43
1.4779961e+43
1.4806519e+43
-4.9718991e+42
1.3103307e+43
1.2640439e+43
-1.2685533e+42
-1.2778971e+43
-1.0620214e+42
-8.669711e+41
6.4824827e+41
4.9696321e+41
-1.3059322e+43
6.5477908e+41
-9.5089634e+41
-1.0284976e+42
4.6098989e+41
1.2135517e+42
-1.5880345e+42
-1.5503651e+42
-3.2671398e+42
-2.368481e+41
-3.0468318e+41
-2.7654771e+41
-3.9473767e+42
-4.6928487e+41
3.319098e+42
-3.3898734e+41
-4.0298739e+42
-4.7583139e+41
-3.1304121e+41
-4.0399127e+42
-4.707194e+41
1.6044311e+43
9.9600567e+43
-2.4535787e+43
-2.8973743e+43
9.4916614e+43
3.106753e+44
3.0370754e+44
3.0047263e+44
3.0692201e+44
1.2268857e+43
2.4260287e+44
1.6751814e+43
2.4580797e+44
1.3323206e+43
1.6986255e+43
-1.1613208e+43
1.2405634e+43
1.5198439e+43
3.2937414e+44
1.6416707e+43
3.2470181e+44
2.3135993e+43
-1.5256563e+43
1.5678422e+43
-1.6529682e+43
1.5271958e+43
7.5180465e+42
3.199949e+44
-2.3298229e+43
4.8824458e+42
3.2069997e+44
2.1169566e+43
-6.7860336e+42
-4.1059823e+41
-6.066073e+42
-3.2669135e+44
-6.4288813e+42
-3.2914144e+44
7.4519816e+42
1.3197394e+42
-3.1389141e+42
-3.4518281e+44
6.1593341e+41
5.3718704e+42
-2.8247699e+42
-3.423652e+44
5.7531647e+42
-3.4283542e+44
-1.9782483e+43
-1.7667891e+43
1.929166e+43
1.714909e+43
3.7497111e+42
-3.4161626e+44
-1.9216335e+43
-1.8362233e+43
1.8257267e+43
1.7875289e+43
-3.8326045e+42
1.9795901e+42
-1.0772319e+42
-2.5741055e+44
-8.2521965e+42
6.1206559e+42
-3.2872419e+42
-3.328474e+44
2.3179169e+42
-2.5288214e+44
-2.9140648e+42
-3.302677e+44
-1.4166533e+43
-2.8291603e+42
1.1402544e+43
-3.4379784e+42
-3.3917762e+44
-4.5838213e+42
-3.3923307e+44
1.0149689e+43
-3.368285e+44
-1.8550268e+43
1.6230218e+43
1.4876777e+43
-2.0563325e+43
3.2952651e+42
-8.3137224e+43
-9.9459583e+41
6.5038974e+43
3.9429092e+42
-8.1842077e+43
-1.6208859e+42
1.3337473e+42
3.5538262e+42
-1.1807016e+42
7.6290882e+41
4.4075134e+42
-1.9783497e+43
-9.8571607e+42
4.7644961e+42
4.182915e+42
-2.5649047e+44
-1.4718733e+43
1.0037799e+43
5.6170092e+40
-3.2911756e+44
8.6657416e+42
-1.7999604e+43
1.0379633e+43
-2.525499e+44
2.1944359e+42
-3.2617279e+44
2.0054182e+43
-3.2989256e+44
-2.9252365e+42
-3.3068781e+44
1.6082132e+43
-1.9930641e+42
-1.8098441e+42
1.5129663e+42
-1.6349908e+43
-1.9765766e+42
1.5506757e+42
9.3223364e+42
-1.6546133e+43
1.4189298e+43
4.5925269e+42
-2.5521198e+44
-3.2555772e+44
1.9270761e+43
-3.3650299e+42
-1.5135868e+43
1.1305747e+43
-7.1886741e+43
8.9585941e+41
-3.6289731e+42
4.1763176e+42
-3.7511634e+42
1.5344102e+43
5.3926939e+43
6.4564993e+43
6.1518344e+43
6.1815166e+43
6.5022197e+43
2.6144528e+44
2.5660545e+44
1.1735326e+44
2.7938026e+44
2.8364847e+44
1.8035782e+43
5.3310249e+43
1.6700343e+43
6.2915873e+43
6.3528847e+43
6.2728365e+43
6.275856e+43
2.6728847e+44
2.6465023e+44
-7.6579074e+43
9.3330177e+42
2.6772608e+44
-3.0431936e+44
-3.9491026e+43
1.7918128e+43
1.6640292e+43
-1.3157296e+43
-1.2989391e+43
-7.1158307e+43
-4.3747159e+42
-4.0741127e+42
3.2474058e+42
2.830596e+42
6.3266811e+43
6.4863466e+43
-7.1205014e+42
8.3710104e+42
-1.5723081e+43
5.5972847e+43
5.6001723e+43
-5.5358606e+43
-2.5088753e+42
2.6514158e+42
-2.6724567e+42
3.7032616e+42
3.4032693e+42
-3.25097e+42
-2.2965336e+42
3.1166164e+42
-5.5230543e+42
5.7204269e+43
-3.4532105e+42
-5.8352804e+42
-2.5666114e+42
3.7394246e+42
3.2521578e+42
-3.0593766e+42
-3.1911947e+42
-2.4120019e+42
-5.7882056e+43
3.7396031e+42
3.390408e+42
-2.9052723e+42
-3.4581848e+42
-5.6941863e+43
3.8870417e+42
3.3040061e+42
-3.0102716e+42
-3.1184291e+42
2.8743304e+42
-6.3520623e+43
-6.3029041e+42
-6.6433568e+43
-6.0541076e+42
5.5171141e+43
5.7730549e+43
-1.6636283e+43
-1.324192e+43
-7.1324907e+41
7.2666275e+41
7.1943511e+41
-1.0718635e+42
-1.1977047e+42
6.5833173e+41
-8.5791991e+41
9.8817366e+41
-1.6408856e+43
6.6859846e+41
-1.0531007e+42
-1.192852e+42
6.0110698e+41
1.3518256e+43
-1.0515079e+42
-1.6871299e+43
-1.182394e+42
-1.0952266e+42
6.7414534e+41
5.6433945e+41
-8.6244671e+41
6.7912812e+41
-1.1352744e+42
-1.1913562e+42
5.9746414e+41
8.571046e+41
1.3374567e+43
-1.1055384e+42
-1.6666119e+43
-1.188207e+42
-1.0811266e+42
6.8886678e+41
5.4497257e+41
1.3546871e+43
-1.6891301e+43
-1.2266041e+42
-1.0747896e+42
6.7374282e+41
5.6891564e+41
-7.010815e+41
-1.2404139e+42
-1.125256e+42
6.4597878e+41
6.0761646e+41
-9.4741827e+41
6.8834052e+41
-1.1231444e+42
-1.1935459e+42
5.8662246e+41
-1.3650479e+43
-7.8219026e+41
1.7733249e+43
7.4772121e+41
-1.0522663e+42
-1.2042727e+42
6.6446287e+41
-9.2160831e+41
-1.6946457e+43
6.849188e+41
-1.0622713e+42
-1.230181e+42
5.7498767e+41
1.3733933e+43
-1.1237549e+42
-1.7248451e+43
-1.2069807e+42
-1.0888068e+42
7.171124e+41
5.4595522e+41
1.7827773e+43
-8.9432613e+41
7.0020457e+41
-1.1168922e+42
-1.1896939e+42
6.0115432e+41
-5.9986595e+41
-1.0341771e+42
-1.1531496e+42
-7.0416217e+41
-1.1506944e+42
-1.1079673e+42
6.2882855e+41
5.5732799e+41
-1.3699953e+43
-3.4851865e+41
-9.8026061e+41
-1.0722677e+42
6.789484e+41
-5.6451666e+41
-1.7800166e+43
6.5587552e+41
-1.0784395e+42
-1.1555898e+42
6.2786238e+41
1.3440422e+43
-1.7465183e+43
-1.1121017e+42
-1.066914e+42
7.1732552e+41
5.9807306e+41
6.543944e+41
-1.0285731e+42
-1.0315171e+42
6.0271407e+41
-8.6244898e+41
1.3637084e+43
-1.7065505e+43
6.8792751e+41
-1.0603262e+42
-1.2240435e+42
5.743772e+41
1.3381971e+43
-1.6603568e+43
-1.1838943e+42
-1.0667554e+42
7.2266085e+41
5.3729891e+41
-7.333059e+41
-1.2075756e+42
-1.0675201e+42
6.9358676e+41
6.2925442e+41
7.199854e+41
-1.0879441e+42
-1.1618292e+42
6.0712911e+41
-5.4774956e+40
3.0018835e+42
-3.8482529e+42
5.153826e+40
-1.5737565e+41
-3.9386155e+42
-1.473793e+41
5.8250214e+40
-1.2587819e+41
1.1011799e+42
-1.2993191e+43
-1.2903834e+42
6.9851982e+41
-9.0242162e+41
-9.6024783e+41
5.3007808e+41
2.6553631e+41
3.2299557e+42
-3.2921624e+41
-3.9145734e+42
-4.4192677e+41
3.3298217e+42
3.1906034e+41
-4.027399e+42
-4.3218182e+41
-2.2215409e+41
2.8663921e+41
4.2553837e+42
-2.6561122e+41
4.1268454e+42
-2.7223895e+41
-2.8825252e+41
-1.2545659e+43
1.2324953e+42
6.9260811e+41
-8.0692464e+41
-9.8093662e+41
5.5971654e+41
2.8117985e+41
3.2440026e+42
-3.9663007e+42
-4.4419322e+41
3.2571807e+42
3.4370946e+41
-3.9162224e+42
-4.3645067e+41
-2.3561043e+41
4.1562848e+42
2.9892831e+41
-2.5390052e+41
4.1554419e+42
-2.8779535e+41
1.755605e+41
3.2881172e+42
-2.2372037e+41
-2.7299205e+41
3.2674705e+42
2.4245068e+41
-2.3592261e+41
-1.2110369e+41
4.0731642e+42
1.705451e+41
-1.7375556e+41
-1.5776035e+41
4.1522459e+42
-1.9194759e+41
-3.3349685e+42
-1.2436278e+41
4.1879011e+42
-1.7975496e+41
-1.5925439e+41
-2.4659707e+41
3.2751481e+42
-2.1073569e+41
-2.6784252e+41
4.1141122e+42
-1.5408597e+41
-1.9289836e+41
-8.4507981e+41
-1.4412023e+43
1.2624897e+42
-1.3971947e+42
-1.2522479e+42
-1.4627766e+43
-1.46216e+42
-3.1804363e+42
-3.3430897e+40
3.9351735e+42
4.6628767e+40
-1.457519e+41
-7.9275072e+40
1.0136663e+41
-1.8100594e+41
3.2278003e+42
-8.8540562e+40
-2.0061564e+41
-4.6069759e+40
4.0141064e+42
-1.6358978e+41
6.8113274e+40
3.2140188e+42
-9.2828591e+40
-2.0690851e+41
3.2510109e+42
-1.7549298e+41
-4.1490124e+40
4.0344419e+42
-1.533981e+41
3.9752465e+42
-5.3625722e+40
-1.7685269e+41
-1.4301951e+39
3.1147895e+42
7.4123474e+39
-1.7122196e+41
3.0748847e+42
-1.1523831e+40
-1.4153896e+41
3.1299424e+40
-3.4189215e+40
-1.371364e+41
2.5555195e+40
-1.564089e+41
-3.129406e+42
1.0622697e+40
-1.5211768e+41
7.1417397e+39
-1.6692724e+41
3.1009052e+42
-3.8333356e+39
-1.8432523e+41
1.1216322e+40
-1.7183519e+41
-3.2628781e+42
-1.7173164e+40
4.0242006e+42
-1.0615524e+41
-6.1316829e+40
-4.1896266e+42
-1.4305813e+41
-3.2891826e+42
4.0900739e+42
-2.244857e+40
-1.0888201e+41
-7.9147685e+40
-4.2229004e+42
-1.5474727e+41
-3.1330517e+42
3.1665648e+40
-1.3654976e+41
1.3878545e+40
-1.2194557e+41
3.170894e+42
3.0361801e+40
-1.2412556e+41
4.0594375e+40
-1.4024138e+41
5.8772281e+40
3.2056174e+42
-4.0893607e+42
-1.0117592e+41
-2.0500125e+41
3.2612392e+42
-4.1999016e+42
-1.9488922e+41
-2.2750052e+40
4.0507726e+42
-1.447378e+41
3.9656478e+42
-4.7229563e+40
-1.5416942e+41
-2.5461201e+40
3.0976827e+42
1.0450515e+40
-1.6589089e+41
3.1477701e+42
-1.5727349e+41
2.7215024e+40
-1.445466e+41
2.7897738e+40
-1.5663934e+41
-3.3490356e+42
-1.1664972e+41
-1.3540142e+41
-1.8796081e+41
-4.1987365e+42
-2.3843814e+41
-3.3307905e+42
-1.641127e+41
-1.7327099e+41
-4.2053708e+42
-2.3975958e+41
-2.770335e+41
-9.8944311e+41
-1.2992059e+43
-1.0260123e+42
-8.6814541e+41
6.6191624e+41
5.301367e+41
-3.262345e+42
-2.332735e+41
-2.9049563e+41
-2.6943787e+41
-3.9477718e+42
-4.4308765e+41
3.2891305e+42
-3.2616881e+41
-4.0143187e+42
-4.4996777e+41
-2.7926295e+41
-2.9557884e+41
-1.2814037e+43
-1.2677587e+42
6.9615376e+41
-9.0183254e+41
-9.4828699e+41
5.1457446e+41
-9.3988664e+41
-1.5092199e+43
-1.4704247e+42
-1.4316383e+43
-1.376561e+42
-1.5204497e+42
-3.3363885e+42
-2.3015327e+41
4.2863101e+42
-2.6078325e+41
-2.719207e+41
-4.0212646e+42
-4.40012e+41
3.2026796e+42
-3.3968541e+41
-3.8761012e+42
-4.5374828e+41
4.0942315e+42
-2.8513887e+41
-2.9467827e+41
1.7094337e+41
3.2541356e+42
-2.3191103e+41
-2.7281001e+41
3.3535488e+42
-2.2252844e+41
-1.2327756e+41
-1.803582e+41
-1.6454911e+41
-1.9855729e+41
4.0925688e+42
-4.890731e+42
1.3213208e+43
1.2431251e+43
-4.585611e+42
4.2195463e+42
1.2841669e+43
1.265285e+43
-4.2448765e+42
-1.0973431e+42
-1.2841877e+43
6.7791394e+41
-8.4908342e+41
-1.0315339e+42
5.3098581e+41
-1.3135673e+43
-1.3216517e+42
6.8801564e+41
-9.2435759e+41
-9.9121367e+41
5.0273887e+41
-1.0511829e+42
-1.4728613e+43
-1.490924e+42
-1.5816491e+42
-1.4772316e+43
-1.5201414e+42
1.682534e+41
3.2869822e+42
-4.1288704e+42
-2.3828372e+41
-2.8250343e+41
3.3835831e+42
2.2598978e+41
-4.3142627e+42
-2.2946081e+41
-1.1748121e+41
1.5514949e+41
4.2397072e+42
-1.4694578e+41
4.1414025e+42
-1.6200599e+41
-1.8158937e+41
1.7563741e+41
3.3247561e+42
-4.1992608e+42
-2.8800064e+41
3.3357546e+42
-4.2373311e+42
-2.2164011e+41
-1.1395449e+41
4.1490533e+42
-1.4089442e+41
4.207959e+42
-1.8633717e+41
-3.3146534e+42
-2.3106827e+41
-2.6398602e+41
-2.8399337e+41
-3.9821862e+42
-4.4973725e+41
3.2857192e+42
-3.253806e+41
-4.0227778e+42
-4.6223875e+41
-2.7389054e+41
-3.0610755e+41
-3.3622627e+42
-2.2743462e+41
-2.7361136e+41
-2.7336868e+41
-4.0605267e+42
-4.5452156e+41
3.2339069e+42
-3.328805e+41
-3.9311589e+42
-4.6818577e+41
-2.8141666e+41
-3.0709219e+41
6.3285559e+40
3.2377096e+42
-1.0136414e+41
-1.9633245e+41
3.2874271e+42
8.7865325e+40
-1.7981941e+41
-3.674493e+40
4.2868282e+40
4.0790295e+42
-1.5345259e+41
4.0066739e+42
-5.8222087e+40
-1.6634043e+41
7.1545498e+40
3.2733801e+42
-2.0154838e+41
3.2329507e+42
-1.7601849e+41
-2.5796062e+40
3.9932274e+42
-1.493506e+41
4.0707388e+42
-1.6475111e+41
-4.6850643e+39
3.1580767e+42
4.0709122e+39
-1.7140736e+41
3.1159147e+42
-1.5662447e+41
2.9177241e+40
3.8688291e+42
-1.4427127e+41
1.9550351e+40
3.9469071e+42
-1.5523699e+41
-3.1636834e+42
7.2385831e+39
3.9540006e+42
-1.4698441e+41
5.4190806e+39
-1.636697e+41
3.1264437e+42
-1.6460278e+40
-1.7474967e+41
-2.101559e+39
3.8881253e+42
-1.6224107e+41
7.3576961e+40
3.2145266e+42
-4.1006004e+42
-1.8426337e+41
3.2794065e+42
1.0542785e+41
-4.2245429e+42
-1.6510539e+41
-3.7562236e+40
5.277261e+40
4.0740054e+42
-1.1497745e+41
3.9811006e+42
-1.220782e+41
7.9864701e+40
3.2816259e+42
-4.2115912e+42
-1.9707668e+41
3.2562302e+42
-4.1713843e+42
-1.6909703e+41
-3.4878416e+40
4.02582e+42
-1.1586424e+41
4.0844695e+42
-1.3287444e+41
-3.1433939e+42
1.1504367e+40
3.9136777e+42
-1.2961799e+41
-9.3774178e+39
-1.4036617e+41
3.1741745e+42
-7.2572246e+39
-1.5827865e+41
7.5104182e+39
3.9756912e+42
-1.4433059e+41
-3.165064e+42
9.5042371e+39
3.9611516e+42
-1.2567391e+41
8.6053138e+39
-1.3798218e+41
3.1135447e+42
-1.4779518e+41
3.8709162e+42
-1.4051667e+41
-1.0634474e+42
-1.2927115e+43
6.7987051e+41
-8.5866976e+41
-1.0296792e+42
5.1562355e+41
-1.2520389e+43
6.8890755e+41
-8.8109302e+41
-9.3418622e+41
4.896784e+41
-1.1619153e+42
-1.5041665e+43
-1.4695844e+42
-1.4018814e+43
-1.504666e+42
1.7914114e+41
3.2508e+42
-4.0691714e+42
-2.7584111e+41
3.365839e+42
2.4067948e+41
-4.2843178e+42
-2.1716453e+41
-1.3324958e+41
1.7069876e+41
-1.3461167e+41
-1.7188049e+41
1.7992221e+41
3.3232076e+42
-4.1915667e+42
-2.8707938e+41
3.3469294e+42
-4.2555934e+42
-2.2092449e+41
-1.1852076e+41
-1.4120533e+41
-1.8323542e+41
-3.325599e+42
-2.2584425e+41
-2.6461241e+41
-2.7699619e+41
-3.995686e+42
-4.5164581e+41
3.2714023e+42
-3.267945e+41
-3.9955769e+42
-4.7154315e+41
-2.7570824e+41
-3.0908674e+41
-3.3226916e+42
-2.3930677e+41
-2.6800183e+41
-2.777426e+41
-3.9922367e+42
-4.6037925e+41
3.1694338e+42
-3.816592e+42
-4.7503394e+41
-3.0068922e+41
3.8336176e+42
1.3238294e+43
1.222642e+43
-4.5773755e+42
1.3040307e+43
1.2681085e+43
-4.6209154e+42
-1.1627829e+43
1.9920055e+43
1.266657e+43
5.2951316e+43
5.3764587e+43
5.8426798e+43
5.772583e+43
1.9974724e+43
5.1872255e+43
5.4936326e+43
5.971003e+43
5.6589618e+43
-3.0207812e+42
5.1761992e+40
-1.2096791e+41
3.9961761e+40
-1.4042809e+41
3.0661085e+42
4.8294202e+40
-1.5107891e+41
4.9592682e+40
-1.3084347e+41
-3.7364526e+40
3.034091e+42
2.7204937e+40
-1.602835e+41
3.0691279e+42
-1.3952148e+41
3.1103657e+40
3.8285239e+42
-1.2406438e+41
3.7664044e+42
2.7467169e+40
-1.4082263e+41
-4.5432769e+40
3.8566485e+40
-1.4271231e+41
-1.2989409e+41
-3.9807035e+40
3.0220713e+42
-1.438534e+41
3.0735389e+42
-3.769754e+40
-1.1547625e+41
-3.1022319e+40
3.748306e+42
-1.2725272e+41
-3.7925495e+40
3.8338179e+42
-1.0711952e+41
-2.5168141e+40
3.0886034e+42
-1.4565587e+41
3.0547324e+42
-1.1685495e+41
-3.3447146e+40
3.8553226e+42
-1.2436163e+41
3.7965857e+42
-1.0717571e+41
3.33625e+40
-1.1441271e+41
2.9998932e+42
4.6784389e+40
-1.2656465e+41
3.3219236e+40
-1.2132132e+41