/*--------------------------------*- C++ -*----------------------------------*\
  =========                 |
  \\      /  F ield         | OpenFOAM: The Open Source CFD Toolbox
   \\    /   O peration     | Website:  https://openfoam.org
    \\  /    A nd           | Version:  7
     \\/     M anipulation  |
\*---------------------------------------------------------------------------*/
FoamFile
{
    version     2.0;
    format      ascii;
    class       volScalarField;
    location    "1000";
    object      pMean;
}
// * * * * * * * * * * * * * * * * * * * * * * * * * * * * * * * * * * * * * //

dimensions      [0 2 -2 0 0 0 0];

internalField   nonuniform List<scalar> 
33899
(
-2.0113657e+92
-2.0113055e+92
-1.8305325e+92
-2.0151119e+92
-2.0152982e+92
-1.9951431e+92
-1.9954952e+92
-1.955485e+92
-1.9561103e+92
-1.8282007e+92
-1.828234e+92
-1.891982e+92
-1.8344237e+92
-1.8683528e+92
-1.7694823e+92
-1.8702522e+92
-1.8359587e+92
-1.7305806e+92
-1.7288213e+92
-1.7662151e+92
-2.0167056e+92
-2.0156756e+92
-2.0000154e+92
-1.9996752e+92
-1.9593268e+92
-1.9603495e+92
-1.9896406e+92
-1.9456026e+92
-1.9906765e+92
-1.9451077e+92
-1.8988013e+92
-1.645573e+92
-1.824797e+92
-1.8260472e+92
-1.8322613e+92
-1.8650356e+92
-1.8671919e+92
-1.8332291e+92
-1.7680213e+92
-1.8335359e+92
-1.8670895e+92
-1.8683331e+92
-1.8353663e+92
-1.7680354e+92
-1.7312873e+92
-1.7313449e+92
-1.8898729e+92
-1.8904371e+92
-1.8918788e+92
-1.9063372e+92
-1.8927493e+92
-1.9070366e+92
-1.8929805e+92
-1.8039594e+92
-1.8567662e+92
-1.8544486e+92
-1.8398772e+92
-1.8385424e+92
-1.8662807e+92
-1.8639244e+92
-1.8755614e+92
-1.8770428e+92
-1.8051767e+92
-1.7723884e+92
-1.7691636e+92
-1.8658657e+92
-1.8657629e+92
-1.8770034e+92
-1.8769659e+92
-1.8558637e+92
-1.8559623e+92
-1.8397935e+92
-1.8392634e+92
-1.6865258e+92
-1.6854198e+92
-1.8029007e+92
-1.7664214e+92
-1.76924e+92
-1.8403732e+92
-1.6717228e+92
-2.0161197e+92
-2.0151706e+92
-2.0014662e+92
-2.0005155e+92
-1.9625036e+92
-1.9615103e+92
-1.9750763e+92
-1.9949369e+92
-1.9507643e+92
-1.9948831e+92
-1.9490019e+92
-1.8999984e+92
-1.9010153e+92
-1.9892795e+92
-1.9445249e+92
-1.8893855e+92
-1.9905639e+92
-1.9443681e+92
-1.8370029e+92
-1.6328519e+92
-1.6471221e+92
-1.7280336e+92
-1.763377e+92
-1.7667117e+92
-1.7307351e+92
-1.8302562e+92
-1.830021e+92
-1.8309638e+92
-1.8631141e+92
-1.8646013e+92
-1.8319649e+92
-1.8902615e+92
-1.836375e+92
-1.8362058e+92
-1.8519686e+92
-1.853302e+92
-1.8020892e+92
-1.8608209e+92
-1.862237e+92
-1.8721591e+92
-1.8735395e+92
-1.8631515e+92
-1.873977e+92
-1.8625022e+92
-1.873687e+92
-1.8538481e+92
-1.8370325e+92
-1.8026606e+92
-1.8373473e+92
-1.8533275e+92
-1.7687491e+92
-1.7713122e+92
-1.8034997e+92
-1.8545585e+92
-1.8531158e+92
-1.8379404e+92
-1.8387003e+92
-1.8636083e+92
-1.8623649e+92
-1.8740289e+92
-1.8753273e+92
-1.8642038e+92
-1.8641578e+92
-1.8752712e+92
-1.8751726e+92
-1.8039699e+92
-1.85478e+92
-1.8550433e+92
-1.8394741e+92
-1.840429e+92
-1.7719203e+92
-1.7686394e+92
-1.6881104e+92
-1.6874081e+92
-1.8900029e+92
-1.8908095e+92
-1.9052029e+92
-1.8909111e+92
-1.8905531e+92
-1.9053773e+92
-1.9057675e+92
-1.8956139e+92
-1.9012791e+92
-1.9011724e+92
-1.8958013e+92
-1.9162743e+92
-1.9106879e+92
-1.9108814e+92
-1.916518e+92
-1.8958134e+92
-1.9014391e+92
-1.9015752e+92
-1.8961336e+92
-1.9109826e+92
-1.910816e+92
-1.9163906e+92
-1.91674e+92
-1.8961873e+92
-1.8961886e+92
-1.9016389e+92
-1.9016445e+92
-1.911013e+92
-1.8234792e+92
-1.8220448e+92
-1.8163956e+92
-1.8225114e+92
-1.8544638e+92
-1.854409e+92
-1.8589419e+92
-1.8588867e+92
-1.8537078e+92
-1.8529281e+92
-1.8577854e+92
-1.8587528e+92
-1.8488585e+92
-1.8455189e+92
-1.8458565e+92
-1.8503153e+92
-1.8455483e+92
-1.8458347e+92
-1.8519083e+92
-1.8516231e+92
-1.8682497e+92
-1.8681991e+92
-1.8738806e+92
-1.8740461e+92
-1.8686121e+92
-1.8677872e+92
-1.8731742e+92
-1.8738849e+92
-1.8810389e+92
-1.8815494e+92
-1.8866548e+92
-1.8863431e+92
-1.8868385e+92
-1.8813171e+92
-1.8815323e+92
-1.8866142e+92
-1.823644e+92
-1.8237749e+92
-1.8195698e+92
-1.8163593e+92
-1.7594875e+92
-1.7559638e+92
-1.8688514e+92
-1.8693522e+92
-1.8743556e+92
-1.8742935e+92
-1.8690653e+92
-1.868774e+92
-1.8741817e+92
-1.8740373e+92
-1.8819815e+92
-1.886919e+92
-1.8867581e+92
-1.8821344e+92
-1.8820654e+92
-1.8822691e+92
-1.886987e+92
-1.8871033e+92
-1.8588068e+92
-1.8550205e+92
-1.8553956e+92
-1.8594302e+92
-1.8556053e+92
-1.8539477e+92
-1.8587573e+92
-1.8595305e+92
-1.8452996e+92
-1.8454347e+92
-1.8510932e+92
-1.8510748e+92
-1.8447746e+92
-1.8449841e+92
-1.8501795e+92
-1.851618e+92
-1.6694565e+92
-1.6686872e+92
-1.7547095e+92
-1.8236695e+92
-1.8241523e+92
-1.8148271e+92
-1.8183657e+92
-1.8524692e+92
-1.8466518e+92
-1.847505e+92
-1.8538226e+92
-1.8475976e+92
-1.6732258e+92
-1.6872366e+92
-1.6880525e+92
-1.6934843e+92
-1.6932814e+92
-1.709866e+92
-1.6885866e+92
-1.6870817e+92
-1.7086475e+92
-1.7549401e+92
-2.0011041e+92
-2.0016256e+92
-1.9624396e+92
-1.9617117e+92
-1.9746106e+92
-1.9737256e+92
-1.9964066e+92
-1.9516931e+92
-1.9959388e+92
-1.9509179e+92
-1.9011974e+92
-1.9007917e+92
-1.904178e+92
-1.9792208e+92
-1.9774622e+92
-2.0165351e+92
-1.9941382e+92
-1.9506171e+92
-1.8907114e+92
-1.9943819e+92
-1.9483813e+92
-1.8895128e+92
-1.8368569e+92
-1.8381142e+92
-1.989278e+92
-1.944351e+92
-1.8907933e+92
-1.8220023e+92
-1.9905558e+92
-1.9443639e+92
-2.0468702e+92
-1.6757731e+92
-1.6345706e+92
-1.6770916e+92
-1.6476007e+92
-1.7269385e+92
-1.7613872e+92
-1.8283272e+92
-1.6872165e+92
-1.7984711e+92
-1.7661691e+92
-1.7639755e+92
-1.798564e+92
-1.8015768e+92
-1.8016153e+92
-1.7705472e+92
-1.7663599e+92
-1.6882723e+92
-1.8499078e+92
-1.8342622e+92
-1.8339045e+92
-1.8513365e+92
-1.8352204e+92
-1.8347729e+92
-1.8523037e+92
-1.8524272e+92
-1.850373e+92
-1.8351026e+92
-1.8351711e+92
-1.8516429e+92
-1.8590927e+92
-1.8604261e+92
-1.8715093e+92
-1.8609239e+92
-1.860851e+92
-1.8716289e+92
-1.8355985e+92
-1.8367192e+92
-1.8520744e+92
-1.8521637e+92
-1.8935345e+92
-1.8929266e+92
-1.8989351e+92
-1.8205837e+92
-1.8417879e+92
-1.8422039e+92
-1.8477537e+92
-1.8479919e+92
-1.8202288e+92
-1.842127e+92
-1.842062e+92
-1.8463243e+92
-1.8483521e+92
-1.8523672e+92
-1.8505765e+92
-1.8553113e+92
-1.8564611e+92
-1.8562395e+92
-1.8517065e+92
-1.8522621e+92
-1.8561341e+92
-1.8195139e+92
-1.8147394e+92
-1.8700098e+92
-1.8646059e+92
-1.8652871e+92
-1.8705811e+92
-1.8652815e+92
-1.8653102e+92
-1.8708151e+92
-1.8706776e+92
-1.8782722e+92
-1.8778645e+92
-1.88304e+92
-1.8831533e+92
-1.8831846e+92
-1.8783103e+92
-1.8783055e+92
-1.8833099e+92
-1.8703417e+92
-1.8650978e+92
-1.8705439e+92
-1.8657447e+92
-1.8832858e+92
-1.8782339e+92
-1.8783592e+92
-1.8833504e+92
-1.8660921e+92
-1.8657887e+92
-1.8708467e+92
-1.8713514e+92
-1.8792767e+92
-1.8788643e+92
-1.8838237e+92
-1.8844366e+92
-1.8553482e+92
-1.8523422e+92
-1.8565148e+92
-1.8531517e+92
-1.8204524e+92
-1.8485681e+92
-1.8421433e+92
-1.8427038e+92
-1.8493446e+92
-1.8204798e+92
-1.8140297e+92
-1.8171608e+92
-1.8487109e+92
-1.8436671e+92
-1.8427164e+92
-1.8483646e+92
-1.8527489e+92
-1.852426e+92
-1.8572157e+92
-1.8571191e+92
-1.7554807e+92
-1.7588541e+92
-1.8216212e+92
-1.822792e+92
-1.8178845e+92
-1.8157742e+92
-1.8536535e+92
-1.8530222e+92
-1.8576418e+92
-1.8576589e+92
-1.8536451e+92
-1.8519455e+92
-1.856667e+92
-1.8576382e+92
-1.8478183e+92
-1.8433529e+92
-1.8433168e+92
-1.849698e+92
-1.8493269e+92
-1.8443877e+92
-1.8441707e+92
-1.8495042e+92
-1.867206e+92
-1.8670666e+92
-1.8723139e+92
-1.8725716e+92
-1.8669208e+92
-1.866211e+92
-1.8716418e+92
-1.8721363e+92
-1.8799118e+92
-1.8794589e+92
-1.8846946e+92
-1.8848987e+92
-1.8849951e+92
-1.8800376e+92
-1.8803724e+92
-1.8854495e+92
-1.8677198e+92
-1.8676942e+92
-1.8727362e+92
-1.8729038e+92
-1.8677324e+92
-1.8671983e+92
-1.8723899e+92
-1.8726885e+92
-1.8853388e+92
-1.8804876e+92
-1.8807388e+92
-1.8854303e+92
-1.8856117e+92
-1.8809082e+92
-1.8810408e+92
-1.8860497e+92
-1.8234014e+92
-1.823672e+92
-1.8166156e+92
-1.8217125e+92
-1.8535845e+92
-1.8533914e+92
-1.8581373e+92
-1.8578151e+92
-1.8543628e+92
-1.8529737e+92
-1.8575699e+92
-1.8583371e+92
-1.8492759e+92
-1.8450354e+92
-1.8452476e+92
-1.8506812e+92
-1.8499819e+92
-1.8465516e+92
-1.8453745e+92
-1.8495128e+92
-1.7592054e+92
-1.7554746e+92
-1.6717998e+92
-1.6707647e+92
-1.8992673e+92
-1.8937679e+92
-1.8940115e+92
-1.8994646e+92
-1.8945886e+92
-1.8941833e+92
-1.8997393e+92
-1.9002055e+92
-1.9094808e+92
-1.9090099e+92
-1.8953269e+92
-1.8949621e+92
-1.9010409e+92
-1.9006774e+92
-1.8946956e+92
-1.8946112e+92
-1.900289e+92
-1.9003453e+92
-1.9096192e+92
-1.9097353e+92
-1.9154788e+92
-1.91577e+92
-1.910034e+92
-1.9103751e+92
-1.9161393e+92
-1.895605e+92
-1.9029356e+92
-1.9029112e+92
-1.895667e+92
-1.9174747e+92
-1.9106541e+92
-1.9110138e+92
-1.9176762e+92
-1.895885e+92
-1.9031332e+92
-1.9032243e+92
-1.896005e+92
-1.9111024e+92
-1.910886e+92
-1.917632e+92
-1.9177919e+92
-1.8959474e+92
-1.8959788e+92
-1.9032043e+92
-1.9109054e+92
-1.8333914e+92
-1.8405387e+92
-1.833735e+92
-1.836148e+92
-1.8251849e+92
-1.8197134e+92
-1.8368697e+92
-1.834463e+92
-1.8332367e+92
-1.832953e+92
-1.8631373e+92
-1.8629337e+92
-1.8643617e+92
-1.8646017e+92
-1.8625736e+92
-1.8620189e+92
-1.8641728e+92
-1.8642014e+92
-1.8628134e+92
-1.8581563e+92
-1.8584268e+92
-1.8638977e+92
-1.8589602e+92
-1.8591358e+92
-1.8654081e+92
-1.8654281e+92
-1.8706061e+92
-1.8703437e+92
-1.8758402e+92
-1.8761386e+92
-1.8702843e+92
-1.8703421e+92
-1.8756402e+92
-1.8756069e+92
-1.8821179e+92
-1.8821271e+92
-1.8883129e+92
-1.8882812e+92
-1.8885976e+92
-1.8823167e+92
-1.8825177e+92
-1.8885135e+92
-1.8331176e+92
-1.8373478e+92
-1.8342391e+92
-1.8324238e+92
-1.8328769e+92
-1.8349748e+92
-1.8385537e+92
-1.8329151e+92
-1.8221343e+92
-1.8191925e+92
-1.7486292e+92
-1.7431538e+92
-1.8713685e+92
-1.8711763e+92
-1.8766321e+92
-1.8768486e+92
-1.8708656e+92
-1.8708892e+92
-1.8764658e+92
-1.8765458e+92
-1.8829181e+92
-1.8886527e+92
-1.888512e+92
-1.8828999e+92
-1.88313e+92
-1.8829825e+92
-1.8886605e+92
-1.8888861e+92
-1.8647051e+92
-1.8637574e+92
-1.8637204e+92
-1.8651536e+92
-1.8640385e+92
-1.8630579e+92
-1.8648606e+92
-1.8650933e+92
-1.8590517e+92
-1.858595e+92
-1.8652007e+92
-1.8655828e+92
-1.8586403e+92
-1.8578662e+92
-1.8645419e+92
-1.8659107e+92
-1.7438661e+92
-1.7388321e+92
-1.7380203e+92
-1.7421333e+92
-1.8216177e+92
-1.8185e+92
-1.8351382e+92
-1.8389057e+92
-1.8336323e+92
-1.8341771e+92
-1.8339518e+92
-1.8347779e+92
-1.8370458e+92
-1.834016e+92
-1.863277e+92
-1.8644994e+92
-1.8656058e+92
-1.8593006e+92
-1.8598713e+92
-1.8666101e+92
-1.859877e+92
-1.6743935e+92
-1.6951677e+92
-1.6883046e+92
-1.6880583e+92
-1.6947551e+92
-1.7114063e+92
-1.6908554e+92
-1.6895497e+92
-1.7103919e+92
-1.6784802e+92
-1.6791506e+92
-1.6733621e+92
-1.6806678e+92
-1.6737493e+92
-1.6793747e+92
-1.7562987e+92
-1.7543304e+92
-1.742846e+92
-1.9606136e+92
-1.9585439e+92
-1.9725307e+92
-1.9706145e+92
-1.9967944e+92
-1.9511907e+92
-1.9971208e+92
-1.9513079e+92
-1.9016922e+92
-1.9013051e+92
-1.9042669e+92
-1.9768145e+92
-1.9779462e+92
-2.0165747e+92
-2.0161623e+92
-1.903668e+92
-1.9775322e+92
-1.9760371e+92
-2.0148571e+92
-2.0161526e+92
-1.9957059e+92
-1.9510438e+92
-1.8906995e+92
-1.9955471e+92
-1.9503783e+92
-1.8900989e+92
-1.8376913e+92
-1.836988e+92
-1.8351951e+92
-1.9006904e+92
-1.9364603e+92
-1.9373545e+92
-1.9023626e+92
-2.0046313e+92
-2.0034766e+92
-1.9940985e+92
-1.9508162e+92
-1.8920252e+92
-1.8227621e+92
-1.9943182e+92
-1.9482382e+92
-1.8908368e+92
-1.8220459e+92
-1.9443423e+92
-1.8914457e+92
-1.822654e+92
-1.9444044e+92
-2.0458631e+92
-2.0467651e+92
-2.0596642e+92
-2.0788867e+92
-2.059175e+92
-2.0448019e+92
-2.0451505e+92
-1.7526911e+92
-1.755306e+92
-1.755224e+92
-1.7519171e+92
-1.6783514e+92
-1.6793486e+92
-1.6360053e+92
-1.7566629e+92
-1.7562212e+92
-1.7527295e+92
-1.7534446e+92
-1.647978e+92
-1.6868474e+92
-1.7946049e+92
-1.7966403e+92
-1.7595599e+92
-1.764522e+92
-1.8304413e+92
-1.8336734e+92
-1.8319864e+92
-1.8490205e+92
-1.8494999e+92
-1.6725744e+92
-1.7567413e+92
-1.7537195e+92
-1.8162135e+92
-1.8182013e+92
-1.8184483e+92
-1.8113398e+92
-1.8190311e+92
-1.8188733e+92
-1.810845e+92
-1.814316e+92
-1.8193786e+92
-1.8199233e+92
-1.8156088e+92
-1.8133487e+92
-1.820002e+92
-1.8205536e+92
-1.8139256e+92
-1.8190143e+92
-1.7585566e+92
-1.7546678e+92
-1.6727145e+92
-1.8495977e+92
-1.8474104e+92
-1.848477e+92
-1.8514373e+92
-1.8454039e+92
-1.8405857e+92
-1.8412386e+92
-1.8469552e+92
-1.8407129e+92
-1.8408933e+92
-1.8471462e+92
-1.8469149e+92
-1.8521137e+92
-1.8490063e+92
-1.8491562e+92
-1.8525968e+92
-1.8621726e+92
-1.8620504e+92
-1.8414953e+92
-1.8418951e+92
-1.8482265e+92
-1.8474129e+92
-1.8415555e+92
-1.8409036e+92
-1.8469775e+92
-1.8482547e+92
-1.8506069e+92
-1.8494916e+92
-1.8530451e+92
-1.8538739e+92
-1.8538432e+92
-1.850698e+92
-1.8505322e+92
-1.8536627e+92
-1.8525369e+92
-1.8500343e+92
-1.8511014e+92
-1.8542107e+92
-1.8465083e+92
-1.8404963e+92
-1.8405735e+92
-1.8473929e+92
-1.8408255e+92
-1.8407831e+92
-1.8465445e+92
-1.8470329e+92
-1.8547093e+92
-1.850581e+92
-1.8513218e+92
-1.8550583e+92
-1.8620308e+92
-1.8632638e+92
-1.8637507e+92
-1.863456e+92
-1.8685179e+92
-1.8688296e+92
-1.8766161e+92
-1.8769871e+92
-1.8813131e+92
-1.8685297e+92
-1.8635194e+92
-1.8644651e+92
-1.8692244e+92
-1.8645066e+92
-1.8645158e+92
-1.8692853e+92
-1.8696138e+92
-1.881805e+92
-1.877081e+92
-1.877557e+92
-1.8825672e+92
-1.8473256e+92
-1.8412381e+92
-1.8421539e+92
-1.8481656e+92
-1.8421657e+92
-1.8428577e+92
-1.847331e+92
-1.8471029e+92
-1.8519393e+92
-1.8510979e+92
-1.8548597e+92
-1.8558049e+92
-1.8556214e+92
-1.8511736e+92
-1.8513752e+92
-1.8555146e+92
-1.8932565e+92
-1.8926778e+92
-1.9004736e+92
-1.8296304e+92
-1.8314112e+92
-1.8334126e+92
-1.8291215e+92
-1.8556003e+92
-1.8552143e+92
-1.861934e+92
-1.8624178e+92
-1.8304298e+92
-1.8373709e+92
-1.8323423e+92
-1.8298736e+92
-1.8562215e+92
-1.8555933e+92
-1.8610609e+92
-1.8626688e+92
-1.8606013e+92
-1.8596039e+92
-1.8609378e+92
-1.861269e+92
-1.8615343e+92
-1.8605701e+92
-1.8607398e+92
-1.8616e+92
-1.8225791e+92
-1.8173757e+92
-1.8723803e+92
-1.8668449e+92
-1.8670108e+92
-1.8724131e+92
-1.86745e+92
-1.8674009e+92
-1.8727759e+92
-1.8727593e+92
-1.8787205e+92
-1.8787869e+92
-1.8846983e+92
-1.8846751e+92
-1.8848957e+92
-1.8789413e+92
-1.8789479e+92
-1.8848258e+92
-1.8729673e+92
-1.8679015e+92
-1.8729855e+92
-1.8679842e+92
-1.8848599e+92
-1.8794917e+92
-1.8796223e+92
-1.8850687e+92
-1.8681669e+92
-1.867901e+92
-1.8733745e+92
-1.873733e+92
-1.8801506e+92
-1.8798517e+92
-1.8856125e+92
-1.8861399e+92
-1.8611875e+92
-1.8603053e+92
-1.8617155e+92
-1.8613063e+92
-1.8307715e+92
-1.8333457e+92
-1.829242e+92
-1.829713e+92
-1.8621737e+92
-1.855656e+92
-1.8564885e+92
-1.8633336e+92
-1.8303732e+92
-1.8316295e+92
-1.8352339e+92
-1.8300081e+92
-1.8166269e+92
-1.819545e+92
-1.862179e+92
-1.8560368e+92
-1.8565535e+92
-1.863061e+92
-1.8616169e+92
-1.8612821e+92
-1.8623756e+92
-1.8626646e+92
-1.7434536e+92
-1.748508e+92
-1.8308978e+92
-1.8363879e+92
-1.8327582e+92
-1.8308749e+92
-1.8315174e+92
-1.8330212e+92
-1.8359193e+92
-1.8317047e+92
-1.8201596e+92
-1.8182411e+92
-1.8627024e+92
-1.861928e+92
-1.8636276e+92
-1.8638704e+92
-1.8623007e+92
-1.8609185e+92
-1.8628976e+92
-1.8633045e+92
-1.8617839e+92
-1.85596e+92
-1.8570234e+92
-1.8638298e+92
-1.8629109e+92
-1.857026e+92
-1.8580632e+92
-1.8643378e+92
-1.8695004e+92
-1.8694828e+92
-1.8745668e+92
-1.8747318e+92
-1.868867e+92
-1.8688433e+92
-1.8740629e+92
-1.8740332e+92
-1.8804479e+92
-1.8804268e+92
-1.8865435e+92
-1.8866068e+92
-1.8869915e+92
-1.8809291e+92
-1.8810933e+92
-1.8871766e+92
-1.8697379e+92
-1.8700265e+92
-1.8754319e+92
-1.8754606e+92
-1.8696522e+92
-1.8698033e+92
-1.8751495e+92
-1.8751276e+92
-1.8872711e+92
-1.8815694e+92
-1.8816155e+92
-1.8872996e+92
-1.8875719e+92
-1.8819025e+92
-1.8820585e+92
-1.8879145e+92
-1.832457e+92
-1.8367328e+92
-1.8341421e+92
-1.8328549e+92
-1.834174e+92
-1.8361086e+92
-1.8402612e+92
-1.8336643e+92
-1.8192577e+92
-1.8249086e+92
-1.8623772e+92
-1.8622463e+92
-1.8641053e+92
-1.8639005e+92
-1.863184e+92
-1.8621467e+92
-1.8639494e+92
-1.8641373e+92
-1.8632457e+92
-1.8578926e+92
-1.8590961e+92
-1.8650552e+92
-1.8634814e+92
-1.8592184e+92
-1.8591538e+92
-1.8642259e+92
-1.7485293e+92
-1.7433565e+92
-1.7436484e+92
-1.7388779e+92
-1.7385952e+92
-1.7436622e+92
-1.9008164e+92
-1.8936911e+92
-1.8938752e+92
-1.9010099e+92
-1.8944912e+92
-1.8943261e+92
-1.9014124e+92
-1.9016502e+92
-1.9093927e+92
-1.9091031e+92
-1.8953139e+92
-1.8950745e+92
-1.9025622e+92
-1.902236e+92
-1.894691e+92
-1.894712e+92
-1.9018648e+92
-1.9018246e+92
-1.9095441e+92
-1.9096825e+92
-1.9168649e+92
-1.9171041e+92
-1.9099675e+92
-1.9102943e+92
-1.9173949e+92
-1.8986093e+92
-1.8958837e+92
-1.8960109e+92
-1.8988031e+92
-1.9057914e+92
-1.9028995e+92
-1.9030595e+92
-1.9058769e+92
-1.9058543e+92
-1.9031754e+92
-1.9032054e+92
-1.9059112e+92
-1.8961757e+92
-1.8961597e+92
-1.89893e+92
-1.8989768e+92
-1.9202127e+92
-1.9170687e+92
-1.9170787e+92
-1.9202383e+92
-1.9129129e+92
-1.9099796e+92
-1.9101112e+92
-1.9129722e+92
-1.9102723e+92
-1.9102193e+92
-1.9130808e+92
-1.9131037e+92
-1.9202322e+92
-1.917024e+92
-1.9170546e+92
-1.920245e+92
-1.8963108e+92
-1.896267e+92
-1.8990451e+92
-1.899041e+92
-1.9060498e+92
-1.9032744e+92
-1.9032824e+92
-1.9060085e+92
-1.9058931e+92
-1.9032703e+92
-1.9032467e+92
-1.9059169e+92
-1.8963642e+92
-1.8963797e+92
-1.8990466e+92
-1.8989965e+92
-1.9101381e+92
-1.9101498e+92
-1.9130536e+92
-1.9130117e+92
-1.9131167e+92
-1.9102768e+92
-1.9102612e+92
-1.9130716e+92
-1.9203182e+92
-1.9171763e+92
-1.91718e+92
-1.92029e+92
-1.9202488e+92
-1.9170901e+92
-1.9170794e+92
-1.9202263e+92
-1.8963902e+92
-1.896382e+92
-1.8990992e+92
-1.8990682e+92
-1.8963253e+92
-1.8963555e+92
-1.8991209e+92
-1.899066e+92
-1.9060655e+92
-1.9033215e+92
-1.9032886e+92
-1.9060047e+92
-1.9130835e+92
-1.9102302e+92
-1.9102134e+92
-1.913038e+92
-1.8406766e+92
-1.8443941e+92
-1.839547e+92
-1.840519e+92
-1.8091459e+92
-1.8030142e+92
-1.8395565e+92
-1.8411872e+92
-1.8395437e+92
-1.8394812e+92
-1.8691767e+92
-1.8691385e+92
-1.8683767e+92
-1.8687062e+92
-1.8679753e+92
-1.8688278e+92
-1.8690531e+92
-1.868566e+92
-1.8705138e+92
-1.8701653e+92
-1.8709986e+92
-1.8710848e+92
-1.8706998e+92
-1.8704238e+92
-1.8711027e+92
-1.8712503e+92
-1.8688453e+92
-1.8687088e+92
-1.8680689e+92
-1.8683411e+92
-1.8687902e+92
-1.8684383e+92
-1.8679342e+92
-1.8683006e+92
-1.870249e+92
-1.8700162e+92
-1.8706373e+92
-1.8708298e+92
-1.8702883e+92
-1.870054e+92
-1.8708307e+92
-1.8709004e+92
-1.8753435e+92
-1.8701162e+92
-1.8756389e+92
-1.8706535e+92
-1.8651342e+92
-1.8718236e+92
-1.865385e+92
-1.8722478e+92
-1.8723278e+92
-1.865232e+92
-1.872785e+92
-1.8658526e+92
-1.8707623e+92
-1.8760913e+92
-1.8755052e+92
-1.8711172e+92
-1.8659595e+92
-1.8736285e+92
-1.8728704e+92
-1.8657489e+92
-1.8660805e+92
-1.8731514e+92
-1.8732793e+92
-1.866087e+92
-1.8707537e+92
-1.8762179e+92
-1.8759915e+92
-1.8708515e+92
-1.8709118e+92
-1.8764612e+92
-1.87611e+92
-1.8710715e+92
-1.8740497e+92
-1.8739312e+92
-1.8752649e+92
-1.875318e+92
-1.8738731e+92
-1.8737229e+92
-1.875053e+92
-1.8751543e+92
-1.8801373e+92
-1.8783595e+92
-1.8784755e+92
-1.8802022e+92
-1.8803103e+92
-1.8785784e+92
-1.8786576e+92
-1.8803067e+92
-1.8736272e+92
-1.873566e+92
-1.8750045e+92
-1.8749727e+92
-1.8747838e+92
-1.8733523e+92
-1.8734992e+92
-1.8749348e+92
-1.8798473e+92
-1.8780631e+92
-1.8781451e+92
-1.8799835e+92
-1.8800866e+92
-1.8782501e+92
-1.8782517e+92
-1.8800589e+92
-1.8855523e+92
-1.8834208e+92
-1.8835619e+92
-1.8856939e+92
-1.8836891e+92
-1.8836914e+92
-1.8858501e+92
-1.8858187e+92
-1.8919969e+92
-1.8895326e+92
-1.889543e+92
-1.8920044e+92
-1.8917122e+92
-1.8892261e+92
-1.8893688e+92
-1.8918398e+92
-1.8920992e+92
-1.8897574e+92
-1.8897131e+92
-1.8920943e+92
-1.8858842e+92
-1.8837815e+92
-1.8838605e+92
-1.8859297e+92
-1.8839066e+92
-1.883939e+92
-1.8860224e+92
-1.8859553e+92
-1.89211e+92
-1.8896567e+92
-1.8897107e+92
-1.8921038e+92
-1.8390801e+92
-1.841445e+92
-1.8385548e+92
-1.8383064e+92
-1.838542e+92
-1.8388172e+92
-1.8419842e+92
-1.8395267e+92
-1.8052363e+92
-1.8019932e+92
-1.7962496e+92
-1.7905165e+92
-1.7895036e+92
-1.7927118e+92
-1.8747909e+92
-1.8748785e+92
-1.8758662e+92
-1.8757615e+92
-1.8746769e+92
-1.8744939e+92
-1.8757649e+92
-1.8758298e+92
-1.8807101e+92
-1.8791583e+92
-1.8792039e+92
-1.880749e+92
-1.8807382e+92
-1.8791369e+92
-1.8790722e+92
-1.8806831e+92
-1.8744214e+92
-1.874316e+92
-1.8756262e+92
-1.8756468e+92
-1.8753271e+92
-1.8741066e+92
-1.8742624e+92
-1.8755017e+92
-1.8806299e+92
-1.8790662e+92
-1.8791158e+92
-1.8806373e+92
-1.8804877e+92
-1.8788557e+92
-1.8789892e+92
-1.8805266e+92
-1.8860405e+92
-1.8839304e+92
-1.8839759e+92
-1.886004e+92
-1.8921735e+92
-1.8897257e+92
-1.8897022e+92
-1.8920975e+92
-1.8921044e+92
-1.8897636e+92
-1.8897553e+92
-1.8921179e+92
-1.8841027e+92
-1.8840738e+92
-1.8861462e+92
-1.8860853e+92
-1.884146e+92
-1.8841766e+92
-1.8863023e+92
-1.8862441e+92
-1.8861748e+92
-1.8841267e+92
-1.8841934e+92
-1.8862262e+92
-1.892264e+92
-1.8898121e+92
-1.889894e+92
-1.8923134e+92
-1.8924093e+92
-1.8899555e+92
-1.8899623e+92
-1.8924219e+92
-1.8710469e+92
-1.8711249e+92
-1.871775e+92
-1.8716129e+92
-1.8689934e+92
-1.8699398e+92
-1.8702026e+92
-1.8695039e+92
-1.8692633e+92
-1.8700578e+92
-1.8697257e+92
-1.8690809e+92
-1.8713697e+92
-1.8710292e+92
-1.8718228e+92
-1.8719263e+92
-1.8699718e+92
-1.8698626e+92
-1.8690218e+92
-1.8692829e+92
-1.8683921e+92
-1.8692051e+92
-1.8695773e+92
-1.8690036e+92
-1.8709312e+92
-1.8705594e+92
-1.8713731e+92
-1.8714885e+92
-1.8711526e+92
-1.8709253e+92
-1.8715731e+92
-1.8716705e+92
-1.8733601e+92
-1.8663319e+92
-1.8744395e+92
-1.8665827e+92
-1.8659167e+92
-1.8661705e+92
-1.8739655e+92
-1.8740432e+92
-1.8720866e+92
-1.877417e+92
-1.8774945e+92
-1.8725363e+92
-1.8775506e+92
-1.8720209e+92
-1.8714357e+92
-1.876917e+92
-1.865433e+92
-1.8737145e+92
-1.8740658e+92
-1.8659522e+92
-1.8648585e+92
-1.8728128e+92
-1.8733484e+92
-1.8651066e+92
-1.8711588e+92
-1.8764512e+92
-1.8767431e+92
-1.8716934e+92
-1.8772702e+92
-1.8717924e+92
-1.8770252e+92
-1.8718704e+92
-1.7956886e+92
-1.8014085e+92
-1.7996266e+92
-1.7942059e+92
-1.7937593e+92
-1.7960089e+92
-1.7954543e+92
-1.7930487e+92
-1.7957314e+92
-1.7930106e+92
-1.792277e+92
-1.7950747e+92
-1.7921999e+92
-1.7888077e+92
-1.8047932e+92
-1.8013116e+92
-1.8420674e+92
-1.8386231e+92
-1.8381057e+92
-1.8401356e+92
-1.8395934e+92
-1.8389235e+92
-1.8386803e+92
-1.8394322e+92
-1.8696556e+92
-1.8697312e+92
-1.8691651e+92
-1.8693232e+92
-1.871294e+92
-1.8711902e+92
-1.8718049e+92
-1.8718948e+92
-1.8771618e+92
-1.8712976e+92
-1.8708565e+92
-1.8773484e+92
-1.8748704e+92
-1.8664116e+92
-1.8736587e+92
-1.8670511e+92
-1.8753146e+92
-1.8670177e+92
-1.8750047e+92
-1.8674725e+92
-1.8778285e+92
-1.8717739e+92
-1.8717049e+92
-1.8779581e+92
-1.8672568e+92
-1.8673003e+92
-1.8752492e+92
-1.8755786e+92
-1.877983e+92
-1.6748409e+92
-1.6885661e+92
-1.6890341e+92
-1.6957212e+92
-1.6957031e+92
-1.6914485e+92
-1.6922322e+92
-1.7124298e+92
-1.711821e+92
-1.6753293e+92
-1.6831152e+92
-1.679071e+92
-1.6791312e+92
-1.6755747e+92
-1.6824681e+92
-1.7703584e+92
-1.7573673e+92
-1.7562087e+92
-1.7694891e+92
-1.6762675e+92
-1.6766066e+92
-1.6734341e+92
-1.6860825e+92
-1.7456588e+92
-1.6857025e+92
-1.6742525e+92
-1.7440198e+92
-1.7467638e+92
-1.9558531e+92
-1.9685627e+92
-1.9476889e+92
-1.9496001e+92
-1.9007985e+92
-1.8991679e+92
-1.9028029e+92
-1.9750503e+92
-1.9756487e+92
-2.0141877e+92
-2.013835e+92
-1.90124e+92
-1.9737773e+92
-1.973511e+92
-2.0117658e+92
-2.0126779e+92
-1.9961096e+92
-1.9504889e+92
-1.8908451e+92
-1.9960194e+92
-1.9505588e+92
-1.8907178e+92
-1.8380094e+92
-1.8380891e+92
-1.8352152e+92
-1.9369778e+92
-1.9020071e+92
-1.9008441e+92
-1.9362898e+92
-2.0028746e+92
-2.0039559e+92
-1.8352334e+92
-1.8993918e+92
-1.9353797e+92
-1.9362182e+92
-1.9016833e+92
-2.0035713e+92
-2.00208e+92
-1.9956142e+92
-1.9514202e+92
-1.8919505e+92
-1.8231471e+92
-1.9954803e+92
-1.9502784e+92
-1.8915441e+92
-1.8229064e+92
-1.8271949e+92
-1.8679038e+92
-1.8673382e+92
-1.8268297e+92
-1.8277188e+92
-1.9069335e+92
-1.9525469e+92
-1.9522481e+92
-1.9074632e+92
-2.01024e+92
-2.009792e+92
-2.0095175e+92
-2.0101441e+92
-2.034387e+92
-2.0344721e+92
-1.9507925e+92
-1.89257e+92
-1.8223556e+92
-1.9482045e+92
-1.892064e+92
-1.8226168e+92
-1.8914305e+92
-1.8234551e+92
-2.0570827e+92
-2.0763598e+92
-2.0775298e+92
-2.0586421e+92
-2.0790118e+92
-2.0784661e+92
-2.0595397e+92
-2.0602116e+92
-2.0672041e+92
-2.0774252e+92
-2.0771629e+92
-2.0672951e+92
-2.0988897e+92
-2.0896694e+92
-2.0900139e+92
-2.066834e+92
-2.0771675e+92
-2.0665753e+92
-2.0428015e+92
-2.0437234e+92
-2.0761495e+92
-2.0576206e+92
-2.0574895e+92
-2.0764207e+92
-2.0567811e+92
-2.0761104e+92
-2.0760329e+92
-2.0572596e+92
-2.0402352e+92
-2.0417448e+92
-1.7922487e+92
-1.7928513e+92
-1.7985077e+92
-1.7523267e+92
-1.7534977e+92
-1.7563322e+92
-1.7557587e+92
-1.680261e+92
-1.7570688e+92
-1.7540703e+92
-1.7527294e+92
-1.7559125e+92
-1.6382897e+92
-1.680451e+92
-1.793563e+92
-1.8001342e+92
-1.7986412e+92
-1.7923802e+92
-1.6731945e+92
-1.7501964e+92
-1.7553475e+92
-1.8140487e+92
-1.8065583e+92
-1.8159015e+92
-1.8173414e+92
-1.8083519e+92
-1.8147592e+92
-1.8367297e+92
-1.8355291e+92
-1.8429914e+92
-1.8433272e+92
-1.8403675e+92
-1.8403349e+92
-1.8456353e+92
-1.8449099e+92
-1.8392333e+92
-1.8377219e+92
-1.8437798e+92
-1.8453077e+92
-1.849826e+92
-1.8461649e+92
-1.8472504e+92
-1.8508365e+92
-1.8507513e+92
-1.8473702e+92
-1.8471399e+92
-1.8504043e+92
-1.7417864e+92
-1.7376299e+92
-1.7464985e+92
-1.7422148e+92
-1.8203628e+92
-1.8153488e+92
-1.8147997e+92
-1.8177073e+92
-1.835102e+92
-1.827871e+92
-1.8280461e+92
-1.8307553e+92
-1.8322174e+92
-1.8295038e+92
-1.827695e+92
-1.8278108e+92
-1.8280554e+92
-1.8324879e+92
-1.8297373e+92
-1.8283111e+92
-1.8284835e+92
-1.830081e+92
-1.8336049e+92
-1.8283453e+92
-1.830085e+92
-1.833792e+92
-1.8278272e+92
-1.8278399e+92
-1.8281466e+92
-1.8300055e+92
-1.8325342e+92
-1.8282993e+92
-1.8181642e+92
-1.8158502e+92
-1.8307334e+92
-1.8329025e+92
-1.828622e+92
-1.8296093e+92
-1.8308274e+92
-1.8327376e+92
-1.8369215e+92
-1.8305149e+92
-1.8166028e+92
-1.8221946e+92
-1.7482585e+92
-1.7428499e+92
-1.7379427e+92
-1.743216e+92
-1.8557055e+92
-1.855441e+92
-1.8561448e+92
-1.856413e+92
-1.8585786e+92
-1.8530076e+92
-1.8534263e+92
-1.8595574e+92
-1.8535364e+92
-1.8534843e+92
-1.8601254e+92
-1.8601907e+92
-1.8569114e+92
-1.8568332e+92
-1.8571613e+92
-1.8575064e+92
-1.8636739e+92
-1.8643304e+92
-1.8638741e+92
-1.8545338e+92
-1.8543949e+92
-1.8613074e+92
-1.8612134e+92
-1.8543525e+92
-1.8534272e+92
-1.8603419e+92
-1.861382e+92
-1.8583144e+92
-1.8576027e+92
-1.8580616e+92
-1.8584806e+92
-1.8586048e+92
-1.8585251e+92
-1.8585525e+92
-1.858925e+92
-1.8586263e+92
-1.8582214e+92
-1.8594074e+92
-1.8597144e+92
-1.8605931e+92
-1.8542382e+92
-1.8545041e+92
-1.8616509e+92
-1.8548721e+92
-1.8540323e+92
-1.8610581e+92
-1.861929e+92
-1.8601206e+92
-1.8595724e+92
-1.860052e+92
-1.8605111e+92
-1.8650838e+92
-1.8652222e+92
-1.8658272e+92
-1.8655589e+92
-1.8706184e+92
-1.8710774e+92
-1.8777492e+92
-1.8776874e+92
-1.8833152e+92
-1.8710383e+92
-1.8657859e+92
-1.8662844e+92
-1.8715013e+92
-1.8666215e+92
-1.8664339e+92
-1.8720882e+92
-1.872185e+92
-1.8836603e+92
-1.8782547e+92
-1.8784683e+92
-1.8842448e+92
-1.8618731e+92
-1.8555227e+92
-1.856401e+92
-1.8629543e+92
-1.8564602e+92
-1.8562252e+92
-1.8619447e+92
-1.8623022e+92
-1.8607118e+92
-1.8602071e+92
-1.8604933e+92
-1.8609577e+92
-1.8608581e+92
-1.8601989e+92
-1.8600847e+92
-1.8609366e+92
-1.8937164e+92
-1.893481e+92
-1.8961825e+92
-1.8964289e+92
-1.8931903e+92
-1.8928518e+92
-1.8956164e+92
-1.8959214e+92
-1.9004101e+92
-1.9006572e+92
-1.835977e+92
-1.8363697e+92
-1.8380868e+92
-1.8362629e+92
-1.8621799e+92
-1.8622845e+92
-1.8697675e+92
-1.8703082e+92
-1.8619835e+92
-1.870323e+92
-1.8623022e+92
-1.8703809e+92
-1.8686317e+92
-1.8738458e+92
-1.8737549e+92
-1.8688936e+92
-1.8736534e+92
-1.8687218e+92
-1.8733127e+92
-1.868708e+92
-1.8379642e+92
-1.8413407e+92
-1.8370138e+92
-1.8363896e+92
-1.8633515e+92
-1.8704594e+92
-1.8633305e+92
-1.8706063e+92
-1.8624574e+92
-1.8693993e+92
-1.8695736e+92
-1.8632652e+92
-1.8680571e+92
-1.8736491e+92
-1.8731033e+92
-1.8685529e+92
-1.8735393e+92
-1.868072e+92
-1.8734931e+92
-1.8686006e+92
-1.8662782e+92
-1.8660685e+92
-1.8653277e+92
-1.8654667e+92
-1.8648903e+92
-1.8656703e+92
-1.8661121e+92
-1.865346e+92
-1.8669198e+92
-1.8666222e+92
-1.8676195e+92
-1.867682e+92
-1.866965e+92
-1.8668923e+92
-1.8677385e+92
-1.8677553e+92
-1.8671187e+92
-1.8670142e+92
-1.8677707e+92
-1.8679028e+92
-1.8655005e+92
-1.8663423e+92
-1.8664797e+92
-1.8657001e+92
-1.8665512e+92
-1.8665644e+92
-1.8657706e+92
-1.8657622e+92
-1.8673302e+92
-1.8672847e+92
-1.8680581e+92
-1.8680409e+92
-1.8068355e+92
-1.8009843e+92
-1.8765267e+92
-1.8750728e+92
-1.8751157e+92
-1.8767491e+92
-1.8718439e+92
-1.8705341e+92
-1.8706162e+92
-1.8719032e+92
-1.8706851e+92
-1.8706969e+92
-1.8720321e+92
-1.8719614e+92
-1.8769309e+92
-1.8752277e+92
-1.8751406e+92
-1.8768656e+92
-1.8709621e+92
-1.8710115e+92
-1.8722334e+92
-1.8721068e+92
-1.8709355e+92
-1.8709124e+92
-1.872136e+92
-1.8721335e+92
-1.8769545e+92
-1.8752142e+92
-1.8752249e+92
-1.8769141e+92
-1.877002e+92
-1.8753633e+92
-1.8752559e+92
-1.8768364e+92
-1.8803921e+92
-1.8804375e+92
-1.8824658e+92
-1.8824183e+92
-1.8821683e+92
-1.8801448e+92
-1.8803276e+92
-1.8822822e+92
-1.8880132e+92
-1.8856627e+92
-1.8858346e+92
-1.8881364e+92
-1.8883506e+92
-1.886042e+92
-1.8860344e+92
-1.8883218e+92
-1.8883676e+92
-1.8861344e+92
-1.8861118e+92
-1.8884076e+92
-1.8825117e+92
-1.8804581e+92
-1.8804361e+92
-1.8824674e+92
-1.8803877e+92
-1.88051e+92
-1.882519e+92
-1.8823169e+92
-1.8884325e+92
-1.8861437e+92
-1.8859529e+92
-1.8882188e+92
-1.8767728e+92
-1.875219e+92
-1.8752354e+92
-1.8767539e+92
-1.872104e+92
-1.8711385e+92
-1.8712091e+92
-1.8721362e+92
-1.8768472e+92
-1.8753408e+92
-1.8755793e+92
-1.8770708e+92
-1.8715572e+92
-1.8713721e+92
-1.8723097e+92
-1.8724537e+92
-1.8880941e+92
-1.8858006e+92
-1.8857264e+92
-1.8880743e+92
-1.8823822e+92
-1.8803709e+92
-1.8803364e+92
-1.8823234e+92
-1.8807043e+92
-1.8804356e+92
-1.8825243e+92
-1.8826464e+92
-1.8882718e+92
-1.8858757e+92
-1.8860748e+92
-1.8884404e+92
-1.8719375e+92
-1.8718461e+92
-1.8730907e+92
-1.8731302e+92
-1.8717701e+92