/*--------------------------------*- C++ -*----------------------------------*\
  =========                 |
  \\      /  F ield         | OpenFOAM: The Open Source CFD Toolbox
   \\    /   O peration     | Website:  https://openfoam.org
    \\  /    A nd           | Version:  7
     \\/     M anipulation  |
\*---------------------------------------------------------------------------*/
FoamFile
{
    version     2.0;
    format      ascii;
    class       volScalarField;
    location    "1000";
    object      k;
}
// * * * * * * * * * * * * * * * * * * * * * * * * * * * * * * * * * * * * * //

dimensions      [0 2 -2 0 0 0 0];

internalField   nonuniform List<scalar> 
33730
(
1.5223218
1.5201467
1.5206104
1.5203786
1.5207902
1.5225325
1.522831
1.5227196
1.5226146
1.5205045
1.5202005
1.5199844
1.5201615
1.5206261
1.5203903
1.5205318
1.5207397
1.5204575
1.5222428
1.5204665
1.5201053
1.5208025
1.5220331
1.5200832
1.519904
1.520429
1.5202575
1.5234536
1.5222808
1.5220562
1.5230054
1.5232118
1.5236986
1.5227583
1.5230654
1.5233088
1.5223969
1.5224385
1.5235364
1.5234399
1.5237582
1.5225314
1.5230285
1.5208641
1.5202668
1.5208932
1.5202885
1.5204862
1.5207467
1.5201361
1.5200018
1.5204133
1.520963
1.5203976
1.5209419
1.5210125
1.5209948
1.520571
1.52051
1.5202142
1.5201195
1.5215836
1.5215791
1.5217983
1.5200502
1.5199311
1.5204763
1.5217369
1.5199265
1.5199158
1.5197657
1.5200689
1.520183
1.5197604
1.520065
1.5197594
1.5196632
1.5197951
1.5198832
1.5200694
1.5202467
1.5202548
1.5204059
1.5220869
1.5217565
1.5217219
1.5203191
1.5203424
1.5202078
1.5200647
1.5205293
1.5206017
1.52045
1.5204338
1.5219198
1.5216545
1.5236272
1.5224984
1.522206
1.5231633
1.5233833
1.5235161
1.5231365
1.523123
1.523722
1.5237533
1.5238057
1.5237655
1.5235495
1.5230771
1.5227959
1.522488
1.5237982
1.5237519
1.5229202
1.5229027
1.5234927
1.5225669
1.5226306
1.5237063
1.5236661
1.5235348
1.5234847
1.5237365
1.5238106
1.5238089
1.5238487
1.5238454
1.5233465
1.5237202
1.5222906
1.5227641
1.5238257
1.5238325
1.5228985
1.5229257
1.5206082
1.5213146
1.5213342
1.5206098
1.5213423
1.5213549
1.5206422
1.5206273
1.5208128
1.5211004
1.5202539
1.5203757
1.521199
1.5212365
1.5204887
1.5205131
1.5213893
1.5213874
1.5207125
1.5207192
1.5213594
1.5213764
1.5206962
1.5206961
1.5213782
1.5208061
1.5208188
1.5213253
1.521387
1.5213891
1.5207675
1.5207662
1.5204545
1.5203621
1.5204795
1.5204025
1.5215063
1.5215106
1.520382
1.520289
1.520241
1.5203524
1.5200981
1.5214996
1.5215107
1.5214956
1.5214995
1.5215053
1.5215112
1.5215012
1.5216054
1.5215248
1.5216857
1.5215925
1.5202984
1.5202799
1.5203117
1.5203278
1.5202148
1.5201798
1.520161
1.5201973
1.5199207
1.5197852
1.5199913
1.5216142
1.5217087
1.5216135
1.5216991
1.5200627
1.5202225
1.5200943
1.5201797
1.5202693
1.5203079
1.5202851
1.52029
1.5200637
1.5202011
1.520093
1.5201682
1.5203212
1.5203444
1.5203124
1.5202919
1.5200512
1.5198458
1.5193614
1.5195089
1.5196555
1.5195171
1.5196502
1.5197704
1.5195021
1.5194437
1.5195808
1.5196332
1.519777
1.5197114
1.5199178
1.5199749
1.5200203
1.5200355
1.5201245
1.5201102
1.5199456
1.5199943
1.519917
1.5200208
1.5200634
1.5201181
1.5200996
1.5200813
1.5201852
1.520206
1.52021
1.5202305
1.5203865
1.5203818
1.5203715
1.5203986
1.5204647
1.5204674
1.5205347
1.5205434
1.5204202
1.5204089
1.5204364
1.5204229
1.5205815
1.5205093
1.5205087
1.5205723
1.5217393
1.5217212
1.5216298
1.5216188
1.5217305
1.5217218
1.5216152
1.521625
1.5217428
1.5217387
1.5206978
1.5206992
1.5207332
1.5207152
1.5205806
1.5206092
1.5203426
1.5204829
1.5208354
1.5208382
1.5208686
1.52088
1.520798
1.520791
1.5207756
1.5207752
1.5219045
1.5216645
1.5237583
1.5237821
1.5238162
1.5225022
1.5222287
1.5232899
1.5231685
1.5234748
1.5235514
1.5231437
1.523824
1.5237863
1.5235947
1.5235515
1.5235448
1.523614
1.5230005
1.523238
1.523283
1.5229056
1.522723
1.5226933
1.5235287
1.5234436
1.5232204
1.522573
1.522796
1.5223306
1.523814
1.5238091
1.5237893
1.523798
1.5237832
1.523764
1.5237699
1.5237408
1.5227991
1.5228083
1.5236913
1.5236716
1.5227922
1.5227864
1.5236527
1.5236214
1.5236466
1.5236095
1.5237514
1.5225762
1.5226478
1.5238397
1.5238702
1.5238694
1.5235448
1.5237701
1.5238662
1.5238655
1.5234052
1.523596
1.5236013
1.5232649
1.523758
1.5237765
1.5237385
1.5237716
1.5230183
1.5220662
1.5225294
1.5234525
1.52267
1.5227363
1.5236111
1.5236586
1.5238466
1.5238515
1.5238241
1.5238327
1.5238515
1.5238474
1.5238325
1.5238256
1.5237157
1.5227978
1.5228197
1.5237154
1.5228161
1.5228264
1.5237187
1.5237122
1.5221379
1.5220995
1.5208693
1.5208719
1.5221458
1.5221574
1.5208779
1.5208765
1.5221631
1.5221408
1.5208912
1.5208896
1.5221365
1.5221664
1.5209116
1.5209102
1.5217035
1.5213718
1.5204242
1.5205156
1.5219653
1.5219131
1.5206537
1.5206663
1.5220314
1.5220006
1.5207501
1.5207539
1.5220483
1.5220536
1.5207858
1.5207895
1.522173
1.522157
1.5209553
1.5209533
1.5221324
1.5221656
1.5209615
1.5209592
1.5221333
1.5221113
1.5209346
1.5209332
1.5221509
1.5221654
1.5209397
1.5209378
1.5220327
1.5220497
1.521008
1.5210035
1.5218431
1.521954
1.5210024
1.5210035
1.5221021
1.5220982
1.5209878
1.5209839
1.5220963
1.522118
1.520986
1.5209828
1.5194533
1.5210509
1.521032
1.5210152
1.5209968
1.5210437
1.5210027
1.5210459
1.5210034
1.5210823
1.5210195
1.5210587
1.5210015
1.5210755
1.5210072
1.5210751
1.5210059
1.521556
1.5215187
1.521557
1.521552
1.5215203
1.5215578
1.5215519
1.5215199
1.5214185
1.5214327
1.5209608
1.5209592
1.5209595
1.5209505
1.5209482
1.5209443
1.5209547
1.5209483
1.5208058
1.5208142
1.5206875
1.5206996
1.5201936
1.5208291
1.5208434
1.5207521
1.5207138
1.5203024
1.5201663
1.5202921
1.5215127
1.521545
1.521544
1.5215113
1.5215526
1.5215501
1.5215179
1.5215165
1.5213871
1.5213716
1.5213965
1.5213623
1.5213973
1.521418
1.5213863
1.5214074
1.5215219
1.521505
1.5215328
1.5215072
1.5213703
1.5213631
1.5213377
1.5213336
1.5214979
1.5215118
1.5215319
1.5215053
1.5215362
1.521334
1.5215888
1.5215872
1.5215946
1.5215954
1.521541
1.5215131
1.5215164
1.5215416
1.5210314
1.5210477
1.5209821
1.5209993
1.5210152
1.5209674
1.521019
1.5209707
1.5210444
1.5209671
1.5210469
1.5209689
1.5210585
1.5209798
1.5210757
1.5209971
1.5209413
1.5209271
1.5209558
1.5209436
1.5207927
1.5208069
1.5206883
1.5206752
1.5201219
1.5207719
1.5207785
1.5206589
1.5206516
1.520105
1.520921
1.5209099
1.5209268
1.5209148
1.5200871
1.5201044
1.5200543
1.5200373
1.5200428
1.520059
1.5201153
1.5201318
1.520253
1.5202539
1.5215268
1.5215229
1.5215594
1.521559
1.5215979
1.521595
1.5216013
1.5216037
1.5215484
1.5215161
1.5215231
1.5215509
1.5215975
1.5215895
1.5215918
1.5215992
1.5182257
1.5183572
1.5181328
1.5181984
1.5186676
1.5187053
1.5187916
1.5204468
1.5205876
1.5203437
1.5204636
1.5207534
1.5207936
1.5206505
1.5206832
1.5205459
1.5204436
1.5206837
1.5205651
1.520673
1.5205604
1.5207072
1.5205874
1.5209383
1.5208334
1.5209334
1.5208293
1.5209716
1.5210095
1.5208925
1.5209271
1.5209706
1.5208893
1.5209644
1.520884
1.5209416
1.5208396
1.5209762
1.5208699
1.5206376
1.5207694
1.5205314
1.5206503
1.5208642
1.5207809
1.5209128
1.5208239
1.5206949
1.5206087
1.5208174
1.5207223
1.5208273
1.5207197
1.5208724
1.5207582
1.5208674
1.5208642
1.5207643
1.5207621
1.5208751
1.5207757
1.520905
1.5207999
1.5208005
1.5206923
1.5207112
1.5208243
1.5207876
1.5207865
1.5206771
1.5206767
1.5197155
1.5198823
1.5196747
1.5197923
1.5194624
1.5195642
1.5195113
1.5194568
1.5195531
1.5197238
1.5199551
1.5199362
1.5199415
1.5199591
1.5197983
1.519788
1.5198728
1.5198782
1.519924
1.5198457
1.5198607
1.5199306
1.5200065
1.5199889
1.5200035
1.5200203
1.519812
1.5196957
1.5197296
1.5198264
1.5196333
1.5195917
1.519719
1.5197534
1.5197979
1.5197801
1.5198126
1.5198331
1.519867
1.5198886
1.5198877
1.5199082
1.519987
1.5199697
1.5199926
1.5200098
1.5198915
1.5199204
1.5199065
1.5199376
1.520139
1.5199791
1.5200128
1.5201684
1.5202105
1.5200531
1.5200818
1.5202182
1.5207264
1.5206718
1.5208311
1.5207716
1.5207345
1.5206499
1.5208494
1.5207565
1.5209375
1.5208869
1.5208032
1.5208496
1.5209076
1.5208573
1.5208082
1.5208561
1.5206547
1.5206344
1.520745
1.5207238
1.5205317
1.5204857
1.5206107
1.5206575
1.5205159
1.5205896
1.520466
1.5204018
1.5207633
1.5207505
1.5208124
1.5207986
1.5205751
1.5205885
1.5207105
1.5207009
1.5208569
1.520895
1.5208474
1.5208861
1.520862
1.5208503
1.5208522
1.520843
1.5207034
1.5207401
1.5206105
1.5205744
1.5209555
1.5209079
1.520948
1.5209015
1.5209532
1.5209067
1.5209929
1.5209454
1.5209799
1.5209867
1.520908
1.520902
1.5209856
1.5209085
1.5210252
1.5209462
1.5210065
1.5210215
1.5209068
1.5209205
1.5210266
1.5209475
1.5210276
1.5209482
1.5209939
1.5209936
1.5208942
1.5208943
1.5210389
1.5209595
1.5210557
1.5209753
1.5210629
1.5209905
1.5210604
1.520988
1.5210336
1.520944
1.5210301
1.5209407
1.5210471
1.5209639
1.521034
1.5209585
1.5210711
1.521051
1.5209935
1.5210065
1.5209269
1.5209268
1.5208303
1.5208305
1.5208533
1.5207545
1.5208532
1.5207545
1.5209399
1.5208442
1.5209526
1.5208548
1.5208676
1.5207694
1.5208774
1.5207773
1.5209917
1.5209125
1.520974
1.5208857
1.5209701
1.5208825
1.5208191
1.5209069
1.5209033
1.5208161
1.5208511
1.520932
1.5208598
1.5216815
1.5217191
1.5216115
1.5216771
1.521617
1.521533
1.5215256
1.5215705
1.5215711
1.5215372
1.5215361
1.5215834
1.5215898
1.5216186
1.5216141
1.5216157
1.5216198
1.5216053
1.5216012
1.5216074
1.5216107
1.521543
1.5215443
1.5216209
1.5216292
1.5215439
1.5215382
1.5216087
1.5216006
1.5216595
1.5216498
1.521655
1.5216641
1.5216296
1.5216309
1.5216361
1.5216342
1.5216509
1.5216735
1.5216858
1.5209187
1.5209223
1.5209285
1.5209253
1.5209599
1.5209637
1.5209385
1.52094
1.5208035
1.5207986
1.5208374
1.5208404
1.5204705
1.5205726
1.5207075
1.5207199
1.5210238
1.5210292
1.5210258
1.52103
1.5210473
1.5210422
1.5210378
1.5210381
1.5210043
1.5210089
1.5209992
1.5210008
1.5209828
1.5209863
1.520979
1.5209791
1.52238
1.5218263
1.5228864
1.5227932
1.5216109
1.5224229
1.5227646
1.5238742
1.523798
1.5238262
1.5238708
1.5238376
1.5234069
1.5232019
1.5234785
1.5232115
1.523565
1.5235394
1.5235705
1.5236232
1.5235749
1.5235655
1.5236235
1.5230788
1.5232599
1.5232974
1.5233026
1.5230062
1.5229457
1.5238326
1.5238355
1.5238272
1.5238322
1.5238063
1.5238132
1.5237912
1.5238084
1.5238068
1.523783
1.5237867
1.5237603
1.5235674
1.5235654
1.5235344
1.5235492
1.5236175
1.5236274
1.5236277
1.5236101
1.5233231
1.5232838
1.5232711
1.5233416
1.5229796
1.5229697
1.5227731
1.5228519
1.5228342
1.523351
1.5233304
1.5228297
1.5228168
1.5232892
1.5232643
1.5228099
1.5236018
1.5236246
1.5235803
1.5236101
1.5235208
1.5235604
1.5234917
1.523538
1.5233487
1.5232577
1.5233456
1.523233
1.5227345
1.5231482
1.5230577
1.5226961
1.5229725
1.5229797
1.5227174
1.522662
1.5225649
1.5228479
1.5225676
1.5223879
1.5237932
1.5237782
1.5237766
1.5237924
1.5237996
1.5238017
1.5237883
1.5237841
1.5237732
1.5237764
1.5237636
1.523758
1.5237418
1.5237505
1.5237376
1.5237232
1.5228951
1.523466
1.5234656
1.5229094
1.5229138
1.5234514
1.5234664
1.5229255
1.5237709
1.5237769
1.523747
1.523756
1.5237634
1.5237661
1.5237379
1.52374
1.5229093
1.5234469
1.5234482
1.5229272
1.5228994
1.5234166
1.5234172
1.5228936
1.5237448
1.5237524
1.5237173
1.5237282
1.5237079
1.5237262
1.5236772
1.5236971
1.5221286
1.5222982
1.522071
1.5237789
1.5237628
1.5236481
1.5236979
1.5238285
1.5239556
1.5238819
1.5238837
1.5239235
1.52392
1.5236732
1.5235777
1.5236784
1.5234914
1.5233771
1.5236415
1.5237945
1.5237842
1.5237863
1.5238035
1.5237639
1.5237876
1.5238772
1.5238807
1.523865
1.5238702
1.5238486
1.5238425
1.5238825
1.52388
1.5238674
1.5238714
1.5238434
1.5238493
1.5236258
1.5236094
1.5236496
1.5236528
1.5233997
1.5232727
1.5231768
1.5234055
1.5237572
1.5237488
1.5237339
1.5237487
1.5237664
1.5237777
1.5237814
1.5237734
1.5231125
1.5233964
1.523352
1.5230063
1.5230182
1.5226523
1.5219911
1.5223854
1.5233494
1.52324
1.5226348
1.5227576
1.5236498
1.5235941
1.5236333
1.523555
1.523429
1.5234089
1.5228026
1.5228356
1.523464
1.5234407
1.5228515
1.5228724
1.5237398
1.5237223
1.5237202
1.5236994
1.5237653
1.5237572
1.5237479
1.5237368
1.5238316
1.5238283
1.5238122
1.523818
1.5238215
1.5238362
1.5238366
1.5238226
1.523822
1.5238361
1.5238203
1.5238354
1.5238293
1.5238274
1.5238144
1.5238111
1.5238063
1.5237997
1.523777
1.523785
1.5235071
1.5234929
1.5228997
1.5229339
1.522931
1.5234924
1.5235139
1.5229503
1.5238107
1.52381
1.5237892
1.5237871
1.5229278
1.5234986
1.5235071
1.5229535
1.5229386
1.5234889
1.5234992
1.5229336
1.523808
1.5238107
1.5237853
1.5237891
1.5237976
1.5238024
1.523773
1.5237786
1.5238751
1.5222646
1.5222253
1.5222704
1.5222837
1.5222857
1.5222644
1.5222587
1.5222905
1.5218442
1.5214992
1.5221031
1.5220544
1.5221612
1.5221292
1.5221777
1.5221838
1.5222917
1.5222766
1.5222492
1.5222856
1.5222545
1.5222287
1.5222728
1.5222883
1.5221347
1.522154
1.5220501
1.5222118
1.5222092
1.5222056
1.5222304
1.521816
1.5216944
1.5216818
1.5218009
1.5216612
1.5216843
1.521581
1.5215625
1.5215945
1.5217233
1.5216086
1.5217078
1.5215849
1.5214906
1.5216077
1.5215093
1.521721
1.5218532
1.5217279
1.5218468
1.521758
1.5216384
1.521628
1.5217481
1.5217299
1.5218469
1.5217213
1.5218537
1.5217513
1.521631
1.5217574
1.5216376
1.5216344
1.5215507
1.5215357
1.5216176
1.5214837
1.5215588
1.5215763
1.5214676
1.5215337
1.521511
1.5214631
1.521444
1.5214085
1.521465
1.5213896
1.5214877
1.5215653
1.5216653
1.521578
1.5216521
1.5215067
1.5216044
1.5215893
1.5214921
1.521662
1.5215748
1.5216576
1.5215702
1.5214984
1.5215962
1.5215992
1.5215019
1.5217391
1.5215428
1.5216715
1.5216881
1.5215367
1.5217054
1.521722
1.5215485
1.5213613
1.5213667
1.5213726
1.5221239
1.5221135
1.521925
1.5219158
1.5219419
1.5217864
1.521774
1.5219542
1.5219482
1.5219216
1.5217577
1.5217775
1.5218036
1.5217787
1.5216574
1.521639
1.5219666
1.5221733
1.5219678
1.5221703
1.5219976
1.5218223
1.5218189
1.5219941
1.5219714
1.5221677
1.5219617
1.5221711
1.521992
1.521816
1.5219991
1.5218254
1.5223892
1.5223887
1.5221448
1.5221458
1.5221386
1.5221464
1.5223829
1.5223819
1.5223574
1.5206063
1.5223512
1.5206191
1.5206262
1.5206394
1.5223329
1.5223276
1.522096
1.5220911
1.5219226
1.5219053
1.5221229
1.5221033
1.5220861
1.5206882
1.5222992
1.520644
1.5206603
1.5207137
1.5205715
1.5206006
1.5206115
1.5205833
1.5206707
1.5206384
1.5206152
1.5207033
1.5215165
1.5216046
1.5216207
1.5215098
1.5216373
1.5216537
1.5215301
1.521523
1.5213428
1.5213468
1.5213211
1.5213511
1.5213559
1.521572
1.5214993
1.521587
1.5215039
1.5213386
1.5213205
1.5213346
1.5213195
1.5216226
1.5215779
1.521481
1.5214646
1.5214717
1.5213326
1.521467
1.5213332
1.5213091
1.5213293
1.5213265
1.5212982
1.5212999
1.5213023
1.521297
1.5213059
1.5213042
1.5213327
1.5214455
1.5214549
1.5213324
1.5217467
1.5218843
1.5217492
1.5218803
1.5218897
1.5218806
1.5217499
1.5217605
1.5217802
1.5216513
1.5217755
1.5216462
1.52179
1.5216562
1.521665
1.5217814
1.5218651
1.5217316
1.5218659
1.5217313
1.5217599
1.5216316
1.5217624
1.5216349
1.5217497
1.521871
1.5217356
1.5218835
1.5217667
1.5216377
1.5216498
1.5217786
1.5216627
1.5215697
1.5215647
1.5216575
1.5215969
1.5214926
1.5214866
1.5215904
1.5216656
1.5216756
1.521572
1.5215813
1.5215995
1.5216071
1.5214944
1.5215019
1.5215792
1.5216792
1.5215856
1.5216723
1.5215083
1.5216132
1.5216052
1.5215007
1.5216005
1.521684
1.5215923
1.5216913
1.5215162
1.5216197
1.5216264
1.5215232
1.5222265
1.5222254
1.5220079
1.5220086
1.5220378
1.5218522
1.5218502
1.5220391
1.5222127
1.5222172
1.5220098
1.5219993
1.5220312
1.5220393
1.5218478
1.5218592
1.5224578
1.5224573
1.5221969
1.5221994
1.5221821
1.5221911
1.5224357
1.5224346
1.5224027
1.5206011
1.522426
1.5205905
1.5206196
1.5206251
1.5224429
1.5224439
1.5221804
1.5221852
1.5221916
1.5222026
1.5224578
1.5224582
1.5224264
1.5205728
1.5224121
1.5205647
1.5205932
1.5206003
1.5219936
1.5222083
1.5219894
1.5222097
1.5220199
1.5218332
1.5218364
1.5220223
1.5220116
1.52222
1.5219973
1.5222275
1.5220286
1.5218388
1.5220407
1.5218536
1.5205342
1.5205694
1.5205737
1.5205399
1.5205607
1.5205941
1.5205936
1.5205645
1.5205676
1.5205743
1.5205367
1.5205322
1.5205532
1.5205441
1.5205074
1.5205136
1.5205168
1.5205586
1.5205647
1.5205214
1.5205815
1.5205868
1.5205435
1.5205422
1.5205883
1.5205773
1.5205435
1.5205531
1.5205537
1.5205889
1.5205991
1.5205639
1.5206006
1.5206325
1.5206651
1.5207055
1.5205945
1.5206201
1.5207006
1.5206668
1.5214265
1.5214221
1.5213366
1.5213355
1.5213023
1.5213093
1.5213087
1.5213015
1.5213343
1.5214317
1.5214376
1.5213333
1.5213071
1.521308
1.5213004
1.5212989
1.5181206
1.5180805
1.5179979
1.5180506
1.5184821
1.5183086
1.5183394
1.5185023
1.518236
1.5184246
1.5183841
1.518597
1.5185655
1.5181529
1.5181877
1.5180858
1.5181121
1.5183141
1.5181647
1.5181927
1.5183477
1.5182661
1.5182296
1.5184255
1.5183983
1.5189694
1.5188708
1.5190736
1.5193403
1.5192226
1.5189581
1.5191904
1.5191934
1.5194893
1.5194707
1.5192711
1.5192472
1.519573
1.5195197
1.5195978
1.5195185
1.5195815
1.5194989
1.5206081
1.5205539
1.5206414
1.5207113
1.5208563
1.5208401
1.5207747
1.5207884
1.5205642
1.5205408
1.5204779
1.5206411
1.5207898
1.5207088
1.5207744
1.5206966
1.5210704
1.520998
1.5209977
1.5210702
1.5211323
1.5211171
1.5210427
1.5210556
1.5209149
1.5209994
1.5209149
1.5209998
1.5210575
1.5209669
1.5210443
1.5209559
1.5208053
1.520778
1.5207107
1.5208878
1.520697
1.5206211
1.5207123
1.5208042
1.5209496
1.5210109
1.5209337
1.5210292
1.5209328
1.5208408
1.5209502
1.5208557
1.5209164
1.5208561
1.5208569
1.5209171
1.5208582
1.5207861
1.5207884
1.52086
1.5209576
1.5209688
1.5208951
1.5209041
1.5208976
1.5209068
1.5208224
1.5208287
1.5212785
1.5213594
1.5212846
1.5213525
1.5212952
1.5211935
1.5211888
1.5212896
1.521358
1.5212839
1.5213495
1.5212767
1.5212893
1.5211884
1.5212954
1.5211954
1.5214821
1.521403
1.5213987
1.5214768
1.521526
1.5215157
1.5214375
1.521448
1.5213319
1.5214279
1.5213369
1.5214224
1.5214717
1.5213802
1.5214621
1.5213706
1.5214009
1.5214858
1.5214074
1.5214796
1.5214317
1.5213402
1.5213334
1.5214244
1.521406
1.5214717
1.5213942
1.5214842
1.5214192
1.5213291
1.5214298
1.5213388
1.5213568
1.5212832
1.5212782
1.5213509
1.521197
1.5212899
1.5212953
1.5211927
1.5213901
1.5213986
1.5213165
1.521324
1.5212285
1.5213345
1.5212359
1.5213284
1.520964
1.5210711
1.5209887
1.5208909
1.5212073
1.5211266
1.521188
1.5211091
1.5208841
1.5207917
1.5208892
1.5209965
1.5211173
1.5211357
1.5210112
1.5210284
1.5212865
1.521368
1.5212864
1.5213677
1.521309
1.5212158
1.5212152
1.5213087
1.5214204
1.5214403
1.5213389
1.5213576
1.5213617
1.521381
1.5212666
1.5212845
1.5212169
1.5211247
1.5210451
1.5211314
1.5211527
1.5210522
1.5209623
1.5210551
1.521267
1.5213313
1.5212473
1.5213523
1.5211714
1.5212691
1.5212892
1.52119
1.5211575
1.5212331
1.5211579
1.5212324
1.5210686
1.521167
1.5211673
1.5210682
1.5213023
1.5212238
1.5212841
1.521208
1.5211153
1.5212176
1.5212333
1.5211305
1.5211945
1.5211201
1.5211168
1.5211901
1.5211907
1.5211965
1.5211173
1.5211221
1.5210328
1.5211213
1.5210351
1.5211186
1.521124
1.5210377
1.5211196
1.5210339
1.5212
1.5211277
1.5211239
1.5211953
1.5210428
1.5211305
1.5210461
1.5211267
1.5211643
1.5212314
1.5211578
1.5212382
1.5211601
1.5210727
1.5210787
1.5211664
1.521049
1.520989
1.5209862
1.5210455
1.5209224
1.5209897
1.5209925
1.5209202
1.5209439
1.5210166
1.5210208
1.520946
1.521075
1.5210805
1.5210132
1.5210178
1.5210366
1.5209752
1.5209741
1.5210349
1.5210364
1.5209757
1.5210397
1.5209783
1.5209049
1.5209058
1.5209773
1.520977
1.5209812
1.5209791
1.5209092
1.5209095
1.5198651
1.5199061
1.5199127
1.519883
1.5199589
1.5200967
1.5200909
1.5199967
1.5199495
1.5200584
1.5195559
1.5196639
1.5196155
1.5196726
1.5197425
1.5197595
1.5197706
1.5197804
1.5197986
1.5197177
1.5238421
1.5237128
1.5204842
1.5204635
1.5204478
1.5204274
1.5204664
1.5204497
1.5204165
1.5204274
1.5204789
1.5204694
1.5204313
1.5204348
1.5204342
1.5204763
1.5204977
1.5204576
1.5202707
1.5203171
1.5203818
1.5203286
1.520263
1.5202963
1.5203698
1.5203259
1.5203465
1.5203937
1.5204287
1.5203826
1.5203433
1.5203815
1.5204126
1.5203757
1.5204369
1.5203971
1.5204021
1.5203622
1.5203835
1.5203224
1.5202858
1.5203414
1.5204035
1.5203428
1.520317
1.5203735
1.5203967
1.5204207
1.5204637
1.5204388
1.520509
1.5204841
1.520451
1.5204775
1.5204854
1.5204857
1.5204548
1.5204507
1.5204959
1.5205166
1.5205093
1.5204866
1.520537
1.5205082
1.5204865
1.5205186
1.5203786
1.5203552
1.5203477
1.5203262
1.5203362
1.5202261
1.5202102
1.5203052
1.5202406
1.5202715
1.5203668
1.5203167
1.5203799
1.520338
1.5203647
1.5204085
1.5201537
1.5201526
1.520288
1.5202713
1.5200541
1.5199841
1.520118
1.520192
1.5201679
1.5201579
1.5202169
1.5202385
1.5202906
1.5203019
1.5203265
1.5203192
1.5202469
1.5202299
1.5203142
1.5202871
1.5202164
1.520211
1.5202669
1.5202819
1.5203697
1.5203497
1.5203421
1.5203645
1.520373
1.5203672
1.5203945
1.5204028
1.5204271
1.520402
1.520382
1.5204046
1.5204365
1.5204018
1.5204191
1.52046
1.520407
1.520429
1.5204563
1.5204303
1.5204811
1.5204597
1.5204208
1.5204407
1.5205303
1.5205319
1.5205113
1.5205145
1.5205198
1.520515
1.5204894
1.520495
1.5205508
1.5205406
1.5204993
1.5205073
1.5205287
1.5205689
1.5205633
1.5205244
1.520325
1.5203236
1.520381
1.5203843
1.5204664
1.5204571
1.5204603
1.5204701
1.5203828
1.5203292
1.5203339
1.5203938
1.5204759
1.5204713
1.5204709
1.5204729
1.5205388
1.5204288
1.5205914
1.5204792
1.5203808
1.520374
1.520425
1.5204349
1.5205129
1.5205024
1.5204949
1.5205064
1.520547
1.5205493
1.5206616
1.5206488
1.5206965
1.5205948
1.5205794
1.5206692
1.5205616
1.5205488
1.5205259
1.5205378
1.5205367
1.5205725
1.5205854
1.5205484
1.5207084
1.5206175
1.5205895
1.5206682
1.5215288
1.5213938
1.5215895
1.5214524
1.5214807
1.5214131
1.5212849
1.5213495
1.5217161
1.5217369
1.5215733
1.5215949
1.5214673
1.5216245
1.521488
1.5216034
1.5213008
1.5213756
1.5212777
1.5212058
1.5212196
1.5211148
1.5211941
1.5213038
1.5214151
1.5214941
1.5213944
1.521515
1.5214208
1.5214419
1.5213082
1.5213287
1.5214983
1.5215727
1.5215947
1.5214772
1.5215205
1.5215227
1.5214243
1.5214257
1.5213439
1.5214528
1.5213438
1.5214521
1.5215053
1.5215259
1.5214156
1.5213959
1.5217998
1.5216641
1.5217773
1.5216408
1.5217392
1.5217323
1.5215924
1.5215982
1.5216281
1.5216235
1.5214915
1.5214948
1.521543
1.5215656
1.5216728
1.5216954
1.5218991
1.5216772
1.5219465
1.5217265
1.5217522
1.521562
1.5216964
1.521508
1.5221046
1.5220915
1.5218565
1.5218762
1.5219049
1.521707
1.5218861
1.5216852
1.5223456
1.5223174
1.5220701
1.5223464
1.5223473
1.522076
1.5221043
1.5221206
1.5223741
1.5223757
1.5219214
1.5221514
1.521882
1.5221721
1.5223444
1.5220626
1.5223466
1.5220784
1.522316
1.5221418
1.522097
1.5221008
1.5218726
1.5218658
1.5218963
1.5217004
1.5217086
1.5219024
1.521927
1.5221313
1.5219052
1.5221449
1.5219364
1.5217445
1.5219569
1.5217684
1.5223773
1.5223716
1.5224003
1.522401
1.5221407
1.5221455
1.5221392
1.5221538
1.5224056
1.5224066
1.5219651
1.5221837
1.5219582
1.522187
1.5221958
1.5222049
1.5219765
1.5219925
1.5219892
1.5217974
1.5219946
1.5218026
1.5220223
1.5218227
1.5218389
1.5220087
1.5221669
1.5221689
1.521949
1.5219525
1.5219812
1.5217955
1.5219792
1.5217935
1.5219608
1.5221658
1.5219417
1.5221771
1.5219726
1.5217831
1.5218042
1.5219897
1.5224248
1.5224256
1.5221554
1.5221619
1.5221661
1.5221799
1.5224273
1.5224279
1.5223958
1.5223949
1.5218244
1.521692
1.5216926
1.5218249
1.521724
1.5215977
1.521723
1.5215954
1.5218142
1.5218332
1.5216793
1.5216985
1.5215842
1.5217288
1.5216009
1.5217114
1.5216955
1.5218285
1.5216919
1.521832
1.5217241
1.5215948
1.521596
1.521726
1.5217382
1.5218545
1.5217213
1.5218687
1.5217541
1.5216264
1.521769
1.5216419
1.5216133
1.5216288
1.521535
1.5215202
1.5215309
1.5216272
1.5215348
1.5216235
1.5215639
1.5214598
1.5214547
1.5215589
1.5215494
1.5215632
1.5214454
1.521459
1.5215287
1.5216243
1.5215301
1.5216236
1.5214555
1.5215597
1.5215566
1.5214515
1.5216699
1.5215767
1.5216562
1.5215633
1.5214893
1.5215929
1.5216049
1.521501
1.5213227
1.5214026
1.5213299
1.5213944
1.5214151
1.5214115
1.5213397
1.521343
1.5213395
1.5212447
1.5213317
1.5212378
1.521351
1.5212537
1.521257
1.5213491
1.5215084
1.521516
1.5214378
1.5214308
1.5214519
1.5214598
1.5213697
1.5213627
1.5214452
1.5215179
1.5214394
1.5215239
1.5213716
1.5214618
1.5214665
1.5213764
1.5213926
1.5213197
1.5213889
1.5213165
1.5213786
1.5213864
1.5213134
1.5213071
1.5213155
1.5213216
1.5212273
1.5212215
1.52123
1.5212332
1.5213262
1.5213283
1.5214454
1.5215317
1.5214528
1.521523
1.5214752
1.5213848
1.5213778
1.521467
1.5214679
1.5215393
1.5214618
1.521545
1.521484
1.5213942
1.5214888
1.5213994
1.5215288
1.5215123
1.5214549
1.5214403
1.5214598
1.5213769
1.5214758
1.5213907
1.5214493
1.5215201
1.5214466
1.5215222
1.5214673
1.5213827
1.5213852
1.5214689
1.5214063
1.5213373
1.521325
1.5213914
1.521345
1.5212564
1.5212457
1.5213326
1.5213983
1.5213995
1.5213304
1.5213317
1.521339
1.521339
1.5212497
1.5212513
1.5213133
1.5213902
1.5213255
1.521375
1.521252
1.5213326
1.5213202
1.5212411
1.5213366
1.5213194
1.5212809
1.5212687
1.5212174
1.5212766
1.52121
1.5212891
1.5214197
1.5215048
1.5214347
1.521487
1.5214294
1.5214077
1.5213702
1.5213528
1.5213705
1.5213061
1.5213904
1.5213211
1.5214548
1.5214384
1.521375
1.5213612
1.5212292
1.5211607
1.5211553
1.5212228
1.5212318
1.5212341
1.5211624
1.5211647
1.5211663
1.5210856
1.5211644
1.5210835
1.5211628
1.5211571
1.5210828
1.5210778
1.5210243
1.5210853
1.5210286
1.5210799
1.5210314
1.5209651
1.5209627
1.5210271
1.5210857
1.5210873
1.5210288
1.5210302
1.5210328
1.5209673
1.5210319
1.5209678
1.5211715
1.521247
1.5211777
1.5212393
1.5211799
1.5210995
1.5210944
1.5211736
1.521189
1.5212554
1.5211864
1.5212579
1.5211883
1.5211073
1.5211905
1.5211096
1.521041
1.521102
1.5210452
1.5210966
1.5210482
1.5209834
1.5210442
1.5209809
1.5211111
1.5211093
1.5210523
1.5210539
1.5210563
1.5209906
1.5210553
1.5209898
1.5211864
1.5212547
1.5211957
1.521243
1.5211983
1.5211296
1.5211886
1.5211217
1.5212581
1.5211939
1.5212467
1.5211846
1.5211862
1.5211134
1.5211959
1.5211213
1.5211876
1.521251
1.5211871
1.5212513
1.5211888
1.5211146
1.5211152
1.5211888
1.5210136
1.5210739
1.5210677
1.5210099
1.5211236
1.5210709
1.5210646
1.5211154
1.5211166
1.5210646
1.5211164
1.5210645
1.5210669
1.5210105
1.5210678
1.5210085
1.521027
1.5210311
1.5210866
1.5210805
1.5210773
1.5211321
1.5210835
1.5211239
1.5210748
1.5210236
1.5211429
1.5211536
1.5215857
1.5216165
1.5216412
1.5216652
1.5216708
1.5216451
1.5216199
1.5215495
1.5215448
1.5215914
1.5214176
1.5214134
1.5213374
1.5213383
1.5214103
1.5214088
1.5213404
1.521345
1.5213145
1.5213202
1.5213139
1.5213078
1.5213044
1.521311
1.5213096
1.5213028
1.5214472
1.5214186
1.5213986
1.5214508
1.5214084
1.5214107
1.5213714
1.5213544
1.5214543
1.5213876
1.5213851
1.5214528
1.5213321
1.5213533
1.5213496
1.5213272
1.5213268
1.5213678
1.5214469
1.5224027
1.5222692
1.5220442
1.5216778
1.5231504
1.5230274
1.5228955
1.5227924
1.5214929
1.5230457
1.5226683
1.5224398
1.5227587
1.5239419
1.5238988
1.5238814
1.5238529
1.5238667
1.5238216
1.5238022
1.5238486
1.5238454
1.5238551
1.5238539
1.5238576
1.5238524
1.523832
1.5238124
1.5238115
1.5238279
1.5234852
1.5236337
1.5235688
1.5232466
1.5232336
1.5232815
1.5230576
1.5235749
1.523612
1.5230506
1.5233098
1.523281
1.5230804
1.5236405
1.5236147
1.5235832
1.5236017
1.5236386
1.5236337
1.52359
1.5235746
1.523573
1.5235491
1.523632
1.5236195
1.5233399
1.5233183
1.5232874
1.5233149
1.5230022
1.52294
1.5228139
1.5229797
1.5238311
1.5238082
1.5238359
1.523815
1.5237887
1.5237878
1.5237977
1.5237946
1.5238111
1.5237902
1.5237876
1.5237627
1.5237735
1.5237691
1.5237476
1.5237363
1.5235689
1.5235368
1.5236294
1.5236118
1.5232761
1.5233501
1.5229835
1.5227552
1.5231384
1.5234153
1.5233743
1.5231184
1.523115
1.5233578
1.5233035
1.5230861
1.5236027
1.5236245
1.5235727
1.5236029
1.5235234
1.5235623
1.5234885
1.5235359
1.5233536
1.5232626
1.5233474
1.5232362
1.5230262
1.5232222
1.5231197
1.522968
1.5229699
1.5229803
1.5227051
1.5226489
1.5226299
1.5229215
1.5228419
1.5226262
1.5237754
1.5237742
1.5237856
1.523781
1.5237616
1.5237557
1.5237357
1.5237207
1.5232089
1.523524
1.5235064
1.5232143
1.5232293
1.5235196
1.5234992
1.5232221
1.5237673
1.5237738
1.5237284
1.5237408
1.5237604
1.5237631
1.5237202
1.5237271
1.5232189
1.5235084
1.5234819
1.5232189
1.5232122
1.5234835
1.5234431
1.5231819
1.5237421
1.5237499
1.5237009
1.523715
1.5237055
1.5237238
1.5236646
1.5236874
1.5216105
1.522053
1.5221725
1.5218635
1.5221531
1.522226
1.5220939
1.5220128
1.5222475
1.5238616
1.5237563
1.5237341
1.5238388
1.5238746
1.5238071
1.5238184
1.5235884
1.5236987
1.5236145
1.523725
1.5236144
1.5237073
1.5238233
1.5238345
1.5238258
1.5238165
1.5240211
1.5239432
1.523949
1.523937
1.5239328
1.5238907
1.5238865
1.5238904
1.523893
1.5238984
1.5238999
1.5238986
1.5239002
1.5238975
1.5238929
1.523894
1.5238978
1.5236657
1.5236904
1.5234024
1.5235046
1.5232553
1.5234241
1.5236325
1.5236617
1.5237952
1.5237713
1.523812
1.5237942
1.5237483
1.5237585
1.5237766
1.5237818
1.5238675
1.5238435
1.523873
1.5238504
1.5238307
1.5238319
1.5238245
1.523822
1.5238708
1.5238461
1.5238742
1.5238512
1.5238242
1.5238281
1.5238316
1.5238326
1.5236189
1.5236608
1.5231896
1.5234239
1.5237363
1.5237501
1.5237667
1.5237738
1.5231335
1.5234118
1.5233668
1.5230361
1.523087
1.5227212
1.5222999
1.5227071
1.5234106
1.5233194
1.5229719
1.5230925
1.5236554
1.5236039
1.523629
1.5235621
1.5234871
1.5234723
1.5231393
1.523168
1.5235098
1.5235073
1.5231892
1.5231988
1.5237401
1.5237245
1.5237076
1.5236912
1.5237647
1.5237568
1.5237333
1.5237248
1.5238108
1.5238162
1.5238192
1.5238202
1.5238198
1.5238179
1.5238116
1.523808
1.523804
1.5237983
1.523763
1.5237679
1.523548
1.5235465
1.5232239
1.5232468
1.5232564
1.5235653
1.5235439
1.5232498
1.5238081
1.5238074
1.5237716
1.5237742
1.5232487
1.5235624
1.5235452
1.5232564
1.5232585
1.5235541
1.5235288
1.5232363
1.5238052
1.5238082
1.5237677
1.5237756
1.5237943
1.5237993
1.5237568
1.5237648
1.523684
1.5238139
1.5229323
1.5222145
1.5228981
1.5221774
1.5229332
1.5222193
1.5229445
1.5222341
1.5229459
1.5222339
1.5229282
1.5222136
1.5229209
1.5222092
1.5229514
1.5222421
1.5224445
1.5218236
1.5220266
1.5214905
1.5227878
1.5220612
1.522696
1.5220232
1.5228405
1.5221113