/*--------------------------------*- C++ -*----------------------------------*\
  =========                 |
  \\      /  F ield         | OpenFOAM: The Open Source CFD Toolbox
   \\    /   O peration     | Website:  https://openfoam.org
    \\  /    A nd           | Version:  7
     \\/     M anipulation  |
\*---------------------------------------------------------------------------*/
FoamFile
{
    version     2.0;
    format      ascii;
    class       volScalarField;
    location    "1000";
    object      nut;
}
// * * * * * * * * * * * * * * * * * * * * * * * * * * * * * * * * * * * * * //

dimensions      [0 2 -1 0 0 0 0];

internalField   nonuniform List<scalar> 
33730
(
9.1044588e-46
6.5679089e-47
7.9178985e-47
7.4615617e-48
6.7355347e-48
1.3640715e-47
4.0857008e-46
1.2552178e-47
3.6039469e-46
4.5635961e-47
4.0178816e-47
1.1312487e-47
1.6644739e-47
4.7011747e-47
1.6773483e-47
1.8339002e-47
4.9511553e-47
4.798353e-48
2.2342155e-48
6.7222707e-48
4.3999196e-48
7.296508e-48
2.4372913e-48
9.2272089e-48
8.6526858e-48
9.4842269e-48
9.595069e-48
1.9870682e-47
4.8653753e-48
5.6766031e-48
2.3377726e-47
2.7466418e-47
2.8056207e-47
2.4263561e-46
2.3150843e-46
1.865398e-47
3.8659531e-48
4.6598044e-48
2.1846013e-47
2.6212555e-47
2.7331122e-47
2.229461e-46
2.3803083e-46
2.0411686e-47
1.4643483e-47
2.2050025e-47
1.405267e-47
1.7860586e-47
1.9037718e-47
1.1773752e-47
1.0180756e-47
1.2735151e-47
2.0888973e-47
1.1379557e-47
1.8904571e-47
1.974141e-47
2.0240674e-47
1.291419e-47
1.3386444e-47
4.2794389e-48
3.4703147e-48
2.5507623e-48
2.2809346e-48
2.063545e-48
4.1788545e-48
3.1982501e-48
2.3401458e-48
2.2130061e-48
8.1277736e-48
6.9622133e-48
7.0941049e-48
8.4464638e-48
2.3413021e-48
2.4888807e-48
2.6087114e-48
4.4827929e-48
3.203915e-48
3.3024222e-48
4.2638266e-48
6.2576999e-48
6.2321647e-48
8.4576327e-48
8.1158563e-48
1.5771578e-48
1.3352792e-48
1.7568933e-48
8.6579715e-48
8.9442969e-48
8.0430381e-48
7.9653424e-48
8.1955125e-48
7.9813944e-48
8.2634092e-48
7.9514925e-48
7.0443222e-48
6.036821e-48
8.3755477e-48
4.7349106e-48
5.1319371e-48
7.9363441e-48
1.2447452e-47
1.9325977e-47
1.2219775e-47
2.0026666e-47
1.32026e-47
1.2403499e-47
1.9174971e-47
2.0317742e-47
2.3896875e-47
2.3420194e-47
9.0197119e-47
8.7067176e-47
2.3470386e-47
2.3963426e-47
8.7240629e-47
9.3857439e-47
8.8135227e-48
5.0553444e-48
5.2763345e-48
8.2110918e-48
1.3303412e-47
1.2776312e-47
1.9768281e-47
2.0874055e-47
1.240383e-47
1.2696202e-47
2.02681e-47
1.9947211e-47
2.4511202e-47
2.4633684e-47
8.9789645e-47
9.4921266e-47
2.5387098e-47
2.5111763e-47
9.2556117e-47
9.089347e-47
7.5744237e-48
8.8161462e-48
9.1993824e-48
7.3309376e-48
9.3495967e-48
9.4311154e-48
8.1007679e-48
8.1970033e-48
8.2583e-48
9.0395687e-48
6.4865826e-48
7.0266229e-48
8.9778112e-48
9.1537224e-48
7.5360831e-48
7.2761108e-48
9.2931945e-48
9.0723005e-48
7.5630474e-48
7.330195e-48
8.2431902e-48
8.8135574e-48
6.718638e-48
6.9941637e-48
8.3593545e-48
7.311219e-48
7.0058874e-48
7.8669434e-48
8.2541769e-48
8.4772316e-48
7.0750727e-48
7.0191719e-48
3.3114209e-48
3.3500266e-48
3.1345205e-48
3.1832398e-48
3.4563985e-48
3.1763538e-48
2.5403175e-48
2.5479435e-48
2.3196617e-48
2.2673643e-48
2.2181203e-48
2.5736513e-48
2.4657231e-48
2.811347e-48
2.6279195e-48
1.7893639e-48
1.9419552e-48
1.9418964e-48
1.6543345e-48
2.058607e-48
1.7152844e-48
1.6557251e-48
3.5562751e-48
3.3940236e-48
3.2765583e-48
3.345893e-48
2.6357426e-48
2.3854815e-48
2.2694111e-48
2.452833e-48
2.0851918e-48
2.1708011e-48
2.2542693e-48
1.3396347e-48
1.3083044e-48
1.3710058e-48
1.4572311e-48
6.9096935e-48
6.5861149e-48
7.0625274e-48
6.7587641e-48
5.2910881e-48
5.270095e-48
5.0779566e-48
5.2742357e-48
5.1227984e-48
4.8968461e-48
5.1668235e-48
4.6302991e-48
6.9345908e-48
6.9864194e-48
7.3863769e-48
7.1418265e-48
1.6552885e-48
1.6344012e-48
5.8268024e-48
6.9627032e-48
2.4044386e-48
2.3375977e-48
2.1646607e-48
2.1641955e-48
1.4611221e-48
1.7512492e-48
1.9071273e-48
1.385271e-48
1.3292127e-48
1.755315e-48
1.8337776e-48
1.317316e-48
3.9149652e-48
3.5653383e-48
3.5112588e-48
3.635573e-48
2.8843832e-48
2.3268566e-48
2.4674764e-48
2.6292005e-48
2.3263307e-48
2.8546878e-48
2.6432216e-48
2.3977605e-48
3.5177859e-48
3.6716088e-48
3.451202e-48
3.4664641e-48
4.8283717e-48
4.6671716e-48
4.6307186e-48
4.8340952e-48
4.5782233e-48
4.4746224e-48
4.4442285e-48
4.5305097e-48
6.8333155e-48
7.11532e-48
6.9772064e-48
7.4152008e-48
6.3162733e-48
6.6936755e-48
7.2041602e-48
7.0191564e-48
6.3157469e-49
1.2410949e-48
9.5512672e-49
1.0366389e-48
1.0351472e-48
8.8216397e-49
1.0970549e-48
8.2913296e-49
1.1744547e-48
7.9581804e-49
5.2480544e-48
5.2265416e-48
5.7854014e-48
5.4456449e-48
5.1040345e-48
5.1295407e-48
5.0868018e-48
5.2612503e-48
4.8851236e-48
4.9822761e-48
4.9842465e-48
4.7813343e-48
5.1908117e-48
5.1820002e-48
5.0624628e-48
4.8248793e-48
1.2706588e-47
1.2987583e-47
1.0678239e-47
1.324917e-47
1.3205255e-47
4.0412577e-48
4.1077587e-48
1.0440891e-47
1.2823303e-47
1.3401446e-47
8.457999e-48
8.5593446e-48
8.679469e-48
9.0040982e-48
1.2072545e-47
1.1842458e-47
8.8087082e-48
8.4609451e-48
1.1175326e-47
1.1712716e-47
8.621639e-48
8.3785712e-48
2.1348065e-47
2.3315998e-47
7.7986169e-48
8.4342619e-48
8.3416704e-48
2.2518461e-47
8.2825629e-48
2.2316325e-47
1.2313962e-47
1.1985114e-47
9.0940045e-48
8.6398628e-48
1.230725e-47
1.1510753e-47
9.2148912e-48
8.9681643e-48
2.0852468e-47
2.3013947e-47
7.9559764e-48
8.4983292e-48
2.3392706e-47
2.403227e-47
8.1653947e-48
8.3776184e-48
1.1343965e-47
1.4751675e-47
1.3685258e-47
4.283461e-48
4.4423391e-48
1.0616704e-47
1.3691568e-47
1.3415032e-47
9.029718e-48
9.3080725e-48
9.0460488e-48
8.8171551e-48
1.2410068e-47
1.1997065e-47
8.7835345e-48
8.3258725e-48
1.2446986e-47
1.1459533e-47
8.9655627e-48
8.8442055e-48
8.6409069e-48
1.9657493e-47
2.1420459e-47
8.9806956e-48
2.097938e-47
2.2050239e-47
8.7782197e-48
8.7617533e-48
1.2547999e-47
1.1949576e-47
8.6486916e-48
9.0768926e-48
1.2120929e-47
1.1420077e-47
9.157344e-48
8.9585945e-48
8.042416e-48
2.0463337e-47
2.2557699e-47
8.4211409e-48
2.2663188e-47
2.2797264e-47
8.2366707e-48
8.3247885e-48
8.3824887e-48
7.8425354e-48
2.469377e-48
2.58245e-48
9.1732207e-48
9.1610201e-48
2.6600046e-48
2.521369e-48
8.9878034e-48
8.3003507e-48
2.5268977e-48
2.5773138e-48
9.2315822e-48
8.9680816e-48
2.9380602e-48
2.885928e-48
8.2931319e-48
7.7876315e-48
2.385238e-48
2.5058744e-48
8.6004065e-48
8.7958498e-48
2.6013606e-48
2.5271891e-48
7.9176588e-48
7.5513179e-48
2.318335e-48
2.4241357e-48
8.7037046e-48
8.646748e-48
2.5904078e-48
2.4786375e-48
9.1213638e-48
8.4515678e-48
2.4273447e-48
2.5147156e-48
9.6832463e-48
9.7635344e-48
2.6733581e-48
2.4988249e-48
8.2490501e-48
7.7872172e-48
2.2243977e-48
2.4195148e-48
9.1812268e-48
9.2579543e-48
2.536138e-48
2.4320253e-48
8.3536359e-48
7.5378347e-48
2.3171483e-48
2.4047518e-48
8.4391163e-48
8.6527311e-48
2.5788453e-48
2.2683208e-48
8.3894172e-48
7.5469011e-48
2.4008069e-48
2.5410998e-48
9.6011848e-48
9.6570248e-48
2.5572629e-48
2.3941449e-48
5.3580644e-48
3.6378075e-48
3.6244881e-48
3.3462679e-48
3.3198251e-48
3.6601949e-48
3.3818018e-48
3.7800972e-48
3.4540082e-48
3.9697117e-48
3.2338809e-48
3.901346e-48
3.1724945e-48
4.0220188e-48
3.2755504e-48
4.0864318e-48
3.310311e-48
2.5789327e-48
3.019463e-48
3.4200727e-48
2.9229614e-48
3.5500513e-48
2.8969677e-48
2.2946294e-48
2.9788238e-48
3.7233758e-48
3.1528476e-48
2.6768054e-48
2.5613122e-48
2.680267e-48
2.534536e-48
2.7386682e-48
2.6059495e-48
2.8589392e-48
2.6842236e-48
1.9175695e-48
1.9935767e-48
2.0555176e-48
2.1484648e-48
1.7127517e-48
1.8584451e-48
1.853418e-48
2.0151776e-48
1.9976933e-48
1.5905186e-48
1.7599726e-48
1.8459519e-48
4.099348e-48
4.8825334e-48
4.0229123e-48
4.9324175e-48
3.9919407e-48
3.0680281e-48
3.1157211e-48
4.0671741e-48
4.4993785e-48
5.3532197e-48
4.4006605e-48
5.4155112e-48
4.3887924e-48
3.3063423e-48
4.5762822e-48
3.3375067e-48
7.6085379e-48
7.6268155e-48
5.2963973e-48
5.3408214e-48
6.1257413e-48
6.1602635e-48
8.8846953e-48
9.0351876e-48
4.5057738e-48
1.2975905e-48
1.5087845e-48
1.4298647e-48
1.3417497e-48
5.0096064e-48
1.4470312e-48
1.4332849e-48
1.332667e-48
1.3777396e-48
1.3526715e-48
1.2618804e-48
1.2123397e-48
1.2865876e-48
3.944427e-48
4.0617222e-48
3.583482e-48
3.6799826e-48
3.7905554e-48
3.4848518e-48
3.9637148e-48
3.6181912e-48
4.1307417e-48
3.3457392e-48
4.2775605e-48
3.4413871e-48
4.2321975e-48
3.4195938e-48
4.3198572e-48
3.4728548e-48
2.9029184e-48
2.7390591e-48
3.0073248e-48
2.800758e-48
2.0434199e-48
2.1205003e-48
2.30806e-48
2.2020848e-48
1.6746574e-48
1.9464443e-48
2.0357633e-48
2.2161031e-48
2.143152e-48
1.6168081e-48
2.7265026e-48
2.6290573e-48
2.8760697e-48
2.7458488e-48
1.6636827e-48
1.7133946e-48
1.3212078e-48
1.2775453e-48
1.3613033e-48
1.4015955e-48
1.3434292e-48
1.4557159e-48
1.554386e-48
1.3404133e-48
9.6677314e-49
9.8472644e-49
1.0348957e-48
9.904739e-49
9.9969762e-49
9.965171e-49
1.0079887e-48
1.0113829e-48
1.1215728e-48
1.0826948e-48
9.4739381e-49
1.0095597e-48
1.0670819e-48
1.1908538e-48
1.2036894e-48
1.0704843e-48
2.3519884e-48
2.1069748e-48
1.7935549e-48
1.3596634e-48
2.1012654e-48
2.2872829e-48
2.9958349e-48
5.0610909e-48
4.8926054e-48
3.8127833e-48
3.8494409e-48
4.2639773e-48
4.4405366e-48
3.96954e-48
4.0305434e-48
4.6048203e-48
4.1694433e-48
4.5123639e-48
4.0613648e-48
4.6765585e-48
3.7254661e-48
4.597155e-48
3.7110643e-48
4.4036555e-48
3.4774156e-48
4.2640771e-48
3.3298265e-48
4.4989904e-48
4.7632619e-48
3.9132815e-48
4.0801161e-48
4.4984413e-48
3.9504768e-48
4.4133508e-48
3.8246833e-48
4.268836e-48
3.4196095e-48
4.4130598e-48
3.4967494e-48
4.5299346e-48
4.4131504e-48
3.5106704e-48
3.4004943e-48
4.2953787e-48
3.6475923e-48
4.5229876e-48
3.7564211e-48
4.8444548e-48
4.1251189e-48
4.7581944e-48
4.0237389e-48
3.937275e-48
3.1288736e-48
4.0301344e-48
3.1805667e-48
4.4329528e-48
4.3188138e-48
4.1248349e-48
3.9855222e-48
4.4445967e-48
4.1868627e-48
4.6530971e-48
4.2563242e-48
5.0951156e-48
4.0327707e-48
4.0992257e-48
5.0935263e-48
5.0915882e-48
4.9122966e-48
3.9854576e-48
3.9211547e-48
6.3647753e-49
6.158328e-49
1.2521519e-48
1.1407506e-48
6.4588591e-49
6.3484592e-49
1.1608706e-48
1.3008963e-48
1.2906992e-48
1.2991918e-48
1.3196065e-48
1.2928093e-48
1.4237876e-48
1.4135827e-48
1.5211824e-48
1.3023965e-48
1.4464564e-48
1.2693838e-48
1.6552466e-48
1.7517186e-48
1.6486332e-48
1.5395993e-48
1.678405e-48
1.6599614e-48
1.6008738e-48
1.6020126e-48
1.0201074e-48
1.024728e-48
8.8573593e-49
9.1072925e-49
8.6351753e-49
1.0000293e-48
1.1030398e-48
7.8266224e-49
1.070307e-48
1.0822791e-48
7.768474e-49
7.546947e-49
9.0475669e-49
8.8198638e-49
9.8179649e-49
9.026753e-49
1.0899117e-48
9.4615438e-49
8.4605149e-49
9.0990725e-49
9.8710524e-49
7.3720054e-49
1.1090623e-48
7.9351581e-49
1.0200484e-48
9.7854592e-49
7.2705747e-49
7.5208286e-49
9.8655388e-49
8.992883e-49
8.8721235e-49
9.0421432e-49
4.4508195e-48
4.0442644e-48
4.378178e-48
3.9312968e-48
4.7582391e-48
3.843665e-48
4.622131e-48
3.7180553e-48
4.5586673e-48
4.3233032e-48
3.4308567e-48
3.5446477e-48
4.273733e-48
3.9820165e-48
3.6962176e-48
3.8825815e-48
3.3814289e-48
3.1208345e-48
3.2935312e-48
3.0163659e-48
2.3131574e-48
2.1503817e-48
1.9434855e-48
2.0988046e-48
2.2789244e-48
2.2551902e-48
2.4194013e-48
2.4411029e-48
2.7812607e-48
2.7466875e-48
3.0189567e-48
2.893454e-48
2.1845701e-48
2.2922332e-48
2.0729747e-48
2.008962e-48
3.0173054e-48
3.2417367e-48
2.810686e-48
2.9312776e-48
2.9495099e-48
2.879362e-48
2.9180697e-48
2.830732e-48
2.0840155e-48
2.2228022e-48
2.3619765e-48
2.2063956e-48
4.0500562e-48
3.7755692e-48
4.0071795e-48
3.7107504e-48
3.9821435e-48
3.6834608e-48
4.211444e-48
3.8557527e-48
4.3821874e-48
4.4762684e-48
3.6953438e-48
3.5783707e-48
4.3886376e-48
3.617262e-48
4.6057656e-48
3.7792769e-48
4.0731222e-48
4.0753931e-48
3.2090887e-48
3.1851631e-48
4.1685701e-48
3.5798914e-48
4.2952957e-48
3.6570926e-48
4.0326915e-48
3.9638896e-48
3.1315749e-48
3.1668921e-48
4.2884234e-48
3.6435035e-48
4.3875159e-48
3.6941594e-48
4.0138022e-48
3.4559915e-48
4.0728693e-48
3.471218e-48
3.8714674e-48
3.0766983e-48
3.8560017e-48
3.0431826e-48
3.7559838e-48
2.9520503e-48
3.6553806e-48
2.8610341e-48
3.9672126e-48
3.9272767e-48
3.3486211e-48
3.3862319e-48
4.0703654e-48
4.1691292e-48
3.8161384e-48
3.7636557e-48
4.6121758e-48
3.5666879e-48
4.6523194e-48
3.6702357e-48
4.1936214e-48
3.8283843e-48
4.2380712e-48
3.8199795e-48
4.7071351e-48
3.6837608e-48
4.5906089e-48
3.6611845e-48
3.779323e-48
3.4728292e-48
3.9502887e-48
3.6823937e-48
3.9467953e-48
3.6414538e-48
3.591511e-48
4.5958071e-48
4.4943295e-48
3.561079e-48
3.5064911e-48
4.37863e-48
3.3316262e-48
7.8045439e-49
2.7064074e-49
2.7542555e-49
4.1885576e-49
4.5072735e-49
7.4081569e-49
8.3117234e-49
7.9982833e-49
9.4034323e-49
7.9054059e-49
7.7987266e-49
8.3214415e-49
7.1851194e-49
6.7486128e-49
7.2862067e-49
7.1410293e-49
7.5347194e-49
8.3335761e-49
7.7204745e-49
7.4840734e-49
7.5372609e-49
6.6856484e-49
8.6517947e-49
8.7822593e-49
7.6039129e-49
5.672842e-49
5.4326207e-49
5.6549536e-49
5.2273599e-49
7.4491829e-49
8.7723854e-49
7.8528105e-49
7.0792888e-49
5.3718158e-49
5.2417169e-49
5.3956363e-49
4.9748069e-49
6.7906757e-49
9.4636108e-49
7.1617191e-49
2.4999008e-48
2.6673602e-48
2.6037625e-48
2.6365013e-48
3.1076515e-48
2.9976834e-48
2.6453449e-48
2.5764206e-48
2.4870187e-48
2.2893809e-48
2.5910403e-48
2.5944993e-48
2.4811409e-48
2.7449381e-48
2.5885583e-48
2.6433299e-48
2.6731914e-48
2.6985233e-48
2.7949671e-48
2.5130169e-48
2.4067935e-48
2.8017996e-48
2.7563943e-48
2.7581061e-48
2.8008032e-48
2.8569778e-48
2.6313187e-48
2.4725168e-48
2.604223e-48
2.5422837e-48
2.5634627e-48
2.2971726e-48
1.6073423e-47
1.1061308e-47
5.1859627e-48
4.7408331e-48
1.2728999e-47
4.6913664e-48
4.2383528e-48
8.4513662e-48
5.6728917e-48
5.7414661e-48
6.8516004e-48
7.2043337e-48
8.8280129e-48
5.4266186e-48
5.6492864e-48
6.8556431e-48
6.7434568e-48
9.4625057e-48
8.868092e-48
8.3318391e-48
9.1027192e-48
7.7694562e-48
7.619683e-48
9.1448542e-48
9.3117679e-48
7.6465323e-48
8.4928686e-48
9.1997963e-48
7.4939816e-48
9.6777019e-48
8.5851513e-48
9.3550774e-48
8.2154396e-48
7.9527543e-48
7.7770551e-48
9.3647421e-48
9.4693283e-48
8.7321301e-48
9.3798304e-48
7.9921302e-48
7.7823747e-48
9.1687589e-48
4.4326844e-48
4.4358879e-48
8.7552447e-48
8.7341841e-48
8.6752833e-48
4.1080428e-48
4.2271357e-48
8.7399718e-48
8.6103647e-48
4.2036422e-48
4.1148388e-48
4.1146311e-48
8.3346436e-48
4.0823909e-48
8.104034e-48
3.1527028e-48
2.4585674e-48
2.5470922e-48
3.254073e-48
3.4143502e-48
2.6987329e-48
2.6120221e-48
3.4312856e-48
2.5261043e-48
2.497911e-48
1.9872096e-48
1.7380588e-48
2.4148021e-48
2.4613622e-48
1.9649168e-48
1.7995115e-48
2.4827711e-48
2.4379624e-48
1.7694989e-48
1.9804989e-48
3.1596161e-48
2.5596716e-48
2.6790915e-48
3.2883715e-48
1.8087136e-48
2.3222006e-48
2.2898545e-48
1.8294657e-48
2.5719415e-48
2.6918177e-48
3.3124209e-48
3.3130742e-48
9.601029e-48
4.6629147e-48
4.6702655e-48
9.1194248e-48
8.9712339e-48
9.0066578e-48
4.2275829e-48
4.349503e-48
9.2262594e-48
9.5533039e-48
4.3868287e-48
4.4325136e-48
8.7022716e-48
9.0362261e-48
4.3969078e-48
4.3699941e-48
3.1446025e-48
2.4344797e-48
2.421174e-48
3.2268687e-48
3.2922606e-48
2.5503681e-48
2.4019409e-48
3.2782561e-48
2.6860957e-48
2.5723298e-48
2.1330339e-48
1.8064507e-48
2.5492139e-48
2.587088e-48
2.117211e-48
1.9718728e-48
3.1779905e-48
2.4262706e-48
2.4603438e-48
3.3270476e-48
3.3697531e-48
2.6051425e-48
2.5139122e-48
3.4382546e-48
2.5854629e-48
2.5457153e-48
2.1034988e-48
1.8599003e-48
2.3497715e-48
2.4390857e-48
1.8810528e-48
1.8595384e-48
4.1697662e-48
4.1757917e-48
1.0549332e-47
9.5999191e-48
5.8578872e-48
6.3104315e-48
7.5938153e-48
7.509881e-48
9.4914547e-48
5.6786509e-48
5.8380827e-48
7.0206786e-48
7.1025995e-48
1.0328284e-47
9.1445618e-48
9.9326953e-48
8.7234468e-48
7.7159549e-48
7.8571946e-48
9.5804128e-48
9.7934514e-48
8.9175693e-48
9.7180785e-48
8.0031311e-48
7.7935094e-48
9.4557757e-48
9.7707006e-48
9.4843017e-48
8.715782e-48
7.9660004e-48
7.7704415e-48
9.9259069e-48
9.0653098e-48
8.4624419e-48
9.6121086e-48
7.8093958e-48
7.9353865e-48
9.2381649e-48
4.5549292e-48
8.8164888e-48
4.5773606e-48
8.7418509e-48
8.7854515e-48
4.1276736e-48
4.2635978e-48
9.1018313e-48
9.2619818e-48
4.3631342e-48
4.4777879e-48
4.5120011e-48
9.0601959e-48
8.703109e-48
4.4803046e-48
2.7261977e-48
2.6923951e-48
2.0248167e-48
1.8344482e-48
2.6122072e-48
2.5270911e-48
3.1122416e-48
3.1544891e-48
2.4477147e-48
2.626214e-48
3.1817297e-48
3.1321395e-48
2.6263921e-48
2.6478031e-48
2.174358e-48
1.9492884e-48
2.3620414e-48
2.3789337e-48
3.0209591e-48
3.097138e-48
2.371172e-48
2.4481255e-48
3.157005e-48
3.1733817e-48
2.8585941e-48
2.7699328e-48
2.30154e-48
2.0093665e-48
2.5260002e-48
2.6089549e-48
2.0405761e-48
1.9890678e-48
9.0951461e-48
9.0845119e-48
4.2885593e-48
4.4295246e-48
4.7191072e-48
9.6462741e-48
9.1376922e-48
4.6992522e-48
4.4147451e-48
9.429091e-48
4.5075474e-48
9.2133732e-48
8.8809724e-48
8.6184112e-48
4.4135663e-48
4.3941601e-48
2.8469649e-48
2.7163504e-48
1.9698242e-48
2.330726e-48
2.3086018e-48
2.3322142e-48
3.0387018e-48
3.1474771e-48
3.2130684e-48
2.4598484e-48
2.3433809e-48
3.2594021e-48
2.610229e-48
2.6586369e-48
2.2261381e-48
2.0752434e-48
3.1219622e-48
2.359799e-48
2.3985295e-48
3.3135823e-48
3.2775059e-48
2.5090117e-48
2.4722158e-48
3.3307359e-48
2.69871e-48
2.6347552e-48
2.1163858e-48
1.9113187e-48
2.3979782e-48
2.500238e-48
1.8685851e-48
1.8757912e-48
5.5199821e-48
4.0215599e-48
3.77226e-48
3.9809721e-48
3.9798281e-48
4.0741222e-48
3.8241387e-48
4.1165263e-48
4.1827702e-48
4.0022514e-48
3.6758459e-48
3.9790853e-48
4.0069191e-48
3.8099931e-48
3.6410781e-48
3.8170888e-48
3.805005e-48
4.0378896e-48
3.813639e-48
3.9143721e-48
3.9968227e-48
3.8284052e-48
3.5666462e-48
3.9277264e-48
3.924877e-48
3.7713025e-48
3.5881372e-48
3.6383734e-48
3.8834875e-48
3.6480647e-48
3.8553749e-48
3.8654554e-48
3.6301912e-48
3.0997076e-48
3.1455197e-48
3.656305e-48
3.6433846e-48
3.6231063e-48
3.0887283e-48
3.1001666e-48
2.395206e-48
3.0279365e-48
2.3969788e-48
3.0816686e-48
3.0320276e-48
2.3771454e-48
3.0355769e-48
2.3849968e-48
3.2752825e-48
3.7191266e-48
3.1849012e-48
3.8441439e-48
3.1545082e-48
2.5043352e-48
2.4958772e-48
3.2223915e-48
3.4051672e-48
3.907425e-48
3.3157757e-48
3.9829147e-48
3.2723844e-48
2.5749125e-48
3.3350653e-48
2.5799487e-48
2.6415225e-48
2.3311228e-48
2.3364089e-48
2.6817621e-48
1.8970568e-48
2.3537305e-48
2.3496177e-48
1.8850402e-48
2.6563381e-48
2.6515288e-48
2.3279662e-48
2.3171729e-48
1.8918409e-48
2.3303263e-48
1.8727985e-48
2.354342e-48
2.4556572e-48
2.8068402e-48
2.4848166e-48
2.8035961e-48
2.0265251e-48
2.5147746e-48
2.477354e-48
1.9868384e-48
2.9302481e-48
2.5624317e-48
2.9051152e-48
2.5426499e-48
2.0586533e-48
2.5687411e-48
2.5860661e-48
2.0678457e-48
3.5857608e-48
3.490005e-48
3.5848458e-48
3.3669251e-48
3.6946717e-48
3.5841641e-48
3.4054555e-48
3.7647724e-48
3.9281414e-48
3.7051096e-48
3.9476763e-48
5.2998565e-48
5.3458545e-48
4.362343e-48
4.3953229e-48
4.3527426e-48
3.2985469e-48
3.3211653e-48
4.3056902e-48
5.1684617e-48
5.1922242e-48
4.3113575e-48
4.2865596e-48
4.278313e-48
4.3116463e-48
3.2676688e-48
3.2772626e-48
4.469693e-48
5.3011021e-48
4.3750371e-48
5.3728897e-48
4.3328209e-48
3.3243372e-48
3.3712275e-48
4.4148716e-48
4.6734029e-48
5.5789742e-48
4.5727133e-48
5.6346744e-48
4.5621796e-48
3.469837e-48
4.7574504e-48
3.512065e-48
8.2910611e-48
8.4098733e-48
5.7661889e-48
5.8385221e-48
6.1246121e-48
6.1165905e-48
8.594877e-48
8.5954415e-48
4.68273e-48
1.3535562e-48
5.0089669e-48
1.4211304e-48
1.5278116e-48
1.5743444e-48
8.4427713e-48
8.4446264e-48
5.8605689e-48
5.894857e-48
5.771426e-48
5.8037956e-48
8.2312763e-48
8.3109954e-48
4.6118821e-48
1.2902635e-48
4.865673e-48
1.3051219e-48
1.4364482e-48
1.4589779e-48
1.3177129e-48
1.3742154e-48
1.3756222e-48
1.3259264e-48
1.2896954e-48
1.3408674e-48
1.2442852e-48
1.3810527e-48
3.7488959e-48
3.7860987e-48
3.6006785e-48
3.8977388e-48
3.8012561e-48
3.4109819e-48
3.5123683e-48
3.9876253e-48
4.217764e-48
3.8564209e-48
4.2415861e-48
4.1075536e-48
3.7188161e-48
7.5995258e-48
7.6117515e-48
4.8466736e-48
4.8939893e-48
5.6192797e-48
5.5052307e-48
8.5527133e-48
8.4613561e-48
1.2883017e-48
1.0388622e-48
4.7667508e-48
1.1098226e-48
1.3604256e-48
5.185712e-48
4.5351333e-48
5.2582112e-48
1.2479381e-48
1.276174e-48
1.5333751e-48
1.5158327e-48
5.2451043e-48
4.9506285e-48
4.1316022e-48
4.1678922e-48
4.2689344e-48
4.2898247e-48
3.7971306e-48
3.9247488e-48
4.4263095e-48
3.4142107e-48
3.9269369e-48
3.3336105e-48
3.9710466e-48
4.1703742e-48
4.0979324e-48
3.4910181e-48
3.5483897e-48
3.2680218e-48
2.5848599e-48
3.3445241e-48
2.5913019e-48
3.4882021e-48
2.719543e-48
2.7436403e-48
3.4390694e-48
3.8021221e-48
3.2484411e-48
3.9383835e-48
3.3573016e-48
3.2635564e-48
2.5671415e-48
3.2072089e-48
2.5273268e-48
3.52327e-48
3.9966232e-48
3.3798918e-48
4.0995173e-48
3.3529591e-48
2.6347644e-48
2.6726514e-48
3.4618872e-48
2.8680894e-48
2.5196887e-48
2.5452676e-48
2.9012856e-48
2.5345983e-48
2.0380249e-48
2.0635901e-48
2.5561105e-48
2.9800455e-48
3.0637084e-48
2.6032912e-48
2.6438184e-48
2.6329751e-48
2.6674082e-48
2.1112042e-48
2.1291127e-48
2.5669512e-48
2.9038662e-48
2.5534989e-48
2.9198106e-48
2.0810794e-48
2.5805583e-48
2.5916694e-48
2.0841151e-48
2.7235389e-48
3.0559601e-48
2.6668397e-48
3.1054602e-48
2.178496e-48
2.705592e-48
2.7461403e-48
2.2012127e-48
5.6446763e-48
5.7321865e-48
4.6336889e-48
4.7101087e-48
4.6537183e-48
3.5029886e-48
3.5498306e-48
4.5823571e-48
5.7730634e-48
5.8197724e-48
4.8085113e-48
4.7606182e-48
4.7664412e-48
4.8350782e-48
3.6371946e-48
3.6768441e-48
8.8641085e-48
9.0994981e-48
6.2248696e-48
6.3149395e-48
6.3538206e-48
6.373383e-48
8.7905542e-48
8.9199916e-48
5.2008242e-48
1.4663987e-48
5.0427579e-48
1.4134494e-48
1.6239005e-48
1.623684e-48
8.3381627e-48
8.6371956e-48
5.7689137e-48
5.9955118e-48
6.2893333e-48
6.3225337e-48
8.7996494e-48
8.9222855e-48
5.2272492e-48
1.4138023e-48
4.7603727e-48
1.3552103e-48
1.5404158e-48
1.5665333e-48
4.5463181e-48
5.3471653e-48
4.401089e-48
5.4736546e-48
4.4087306e-48
3.3780318e-48
3.4896043e-48
4.5594334e-48
4.7393338e-48
5.7191113e-48
4.6178606e-48
5.8065222e-48
4.6619332e-48
3.5549079e-48
4.7937761e-48
3.6211861e-48
1.3342651e-48
1.4085806e-48
1.3977415e-48
1.319542e-48
1.4035912e-48
1.419489e-48
1.431276e-48
1.3653101e-48
1.0119708e-48
1.0471337e-48
1.0042162e-48
1.0142108e-48
9.9710804e-49
9.7480341e-49
9.7743604e-49
9.94154e-49
1.0327124e-48
1.1590705e-48
1.170358e-48
1.0327707e-48
1.1964118e-48
1.1616163e-48
1.0446062e-48
1.0441473e-48
9.9099659e-49
1.0127391e-48
9.7906867e-49
9.9323177e-49
1.0358759e-48
1.123498e-48
1.1649484e-48
1.0353623e-48
1.0360691e-48
1.2488768e-48
1.0868104e-48
1.2453453e-48
1.037804e-48
9.8978012e-49
9.733672e-49
9.7540905e-49
2.7780937e-48
2.6989692e-48
2.7850884e-48
2.8475455e-48
2.5755592e-48
2.511082e-48
2.7471181e-48
2.8032348e-48
3.4882303e-48
3.2646329e-48
3.2200735e-48
3.5816211e-48
3.4533851e-48
3.2967807e-48
3.3562432e-48
3.4645474e-48
6.4969615e-49
9.6435586e-49
1.137887e-48
1.6408166e-48
1.2089729e-48
1.1639598e-48
1.2238114e-48
1.2428287e-48
1.1288567e-48
1.3917464e-48
1.3918599e-48
1.4107975e-48
1.4020305e-48
9.1261239e-49
8.0989618e-49
9.2960451e-49
6.8106247e-49
9.2859425e-49
9.6416442e-49
7.1857804e-49
7.237303e-49
8.2968058e-49
8.5726509e-49
8.5766479e-49
9.577028e-49
1.8181669e-48
1.9007156e-48
1.6567356e-48
1.8235084e-48
1.9534691e-48
1.7518687e-48
2.3912332e-48
2.3259904e-48
2.5886539e-48
2.4718317e-48
3.3187212e-48
3.0817107e-48
3.6171681e-48
3.3068408e-48
3.9436906e-48
3.2092618e-48
3.9716206e-48
3.3503238e-48
1.6451457e-48
1.6657629e-48
1.7558195e-48
1.7202044e-48
1.6597493e-48
1.6483599e-48
1.6456649e-48
1.6881723e-48
1.6379716e-48
1.8449056e-48
1.5834917e-48
1.9834795e-48
1.8761457e-48
1.5888707e-48
1.8663555e-48
1.579636e-48
1.3701392e-48
1.3002812e-48
1.3087128e-48
1.3632853e-48
1.5078717e-48
1.4733535e-48
1.3886563e-48
1.421154e-48
1.2100127e-48
1.3439613e-48
1.2224267e-48
1.3545242e-48
1.4537864e-48
1.3030331e-48
1.4229491e-48
1.280746e-48
1.4934452e-48
1.5289911e-48
1.4363184e-48
1.5853791e-48
1.4457818e-48
1.3039266e-48
1.3441087e-48
1.5353411e-48
1.4447573e-48
1.5275798e-48
1.4309833e-48
1.5393279e-48
1.4579144e-48
1.2981208e-48
1.4632105e-48
1.2901781e-48
1.4979448e-48
1.5203545e-48
1.5305143e-48
1.525839e-48
1.7309452e-48
1.4848354e-48
1.5012116e-48
1.76732e-48
1.5916932e-48
1.6283236e-48
1.5995174e-48
1.6324191e-48
1.8579011e-48
1.8616275e-48
1.5707947e-48
1.5874372e-48
1.8002021e-48
1.9668752e-48
1.7804822e-48
1.9870227e-48
1.7323272e-48
1.4125961e-48
1.4092699e-48
1.7641343e-48
1.9625812e-48
1.783406e-48
1.932056e-48
1.7495028e-48
1.7006851e-48
1.380452e-48
1.7233289e-48
1.3950087e-48
2.3164662e-48
2.0713654e-48
2.1110481e-48
2.3199993e-48
2.5558315e-48
2.5287764e-48
2.2624129e-48
2.2944665e-48
1.6865681e-48
2.0385286e-48
1.6838575e-48
2.0805089e-48
2.2547402e-48
1.8372938e-48
2.2169672e-48
1.8183007e-48
2.2345428e-48
2.4399549e-48
2.1854871e-48
2.4731545e-48
2.155605e-48
1.7739169e-48
1.7686437e-48
2.2006307e-48
2.184744e-48
2.3660726e-48
2.1171423e-48
2.4226148e-48
2.0969348e-48
1.7183527e-48
2.1464369e-48
1.7271838e-48
1.8529085e-48
1.6873123e-48
1.7015553e-48
1.8892857e-48
1.3757611e-48
1.6811228e-48
1.6651621e-48
1.3745981e-48
2.0146212e-48
2.0375247e-48
1.8254372e-48
1.8361466e-48
1.4796066e-48
1.8079529e-48
1.4888598e-48
1.8029347e-48
2.0033971e-48
2.0666137e-48
1.8599128e-48
1.8045512e-48
2.0051075e-48
1.8159738e-48
1.9908975e-48
1.8006902e-48
1.7437668e-48
1.4201229e-48
1.4652346e-48
1.7996351e-48
1.7366775e-48
1.7501486e-48
1.4095836e-48
1.4112805e-48
1.9795644e-48
2.1826493e-48
1.9522221e-48
2.1944509e-48
1.9095856e-48
1.5638175e-48
1.5610799e-48
1.9354317e-48
2.4036406e-48
2.4859665e-48
2.14357e-48
2.1895379e-48
2.084354e-48
2.1201854e-48
1.6932738e-48
1.7152835e-48
2.6550601e-48
2.5660671e-48
2.2787001e-48
2.3413387e-48
2.2869422e-48
2.234057e-48
1.816601e-48
1.8611565e-48
2.2781861e-48
2.5101855e-48
2.2371404e-48
2.5568379e-48
1.785648e-48
2.1949083e-48
2.2334944e-48
1.7800523e-48
1.5742999e-48
1.7212632e-48
1.5624168e-48
1.7566475e-48
1.2796656e-48
1.5474721e-48
1.5594096e-48
1.2746363e-48
1.9332569e-48
1.7284203e-48
1.888667e-48
1.7004176e-48
1.3732454e-48
1.6752462e-48
1.7000853e-48
1.3976547e-48
1.5142281e-48
1.4273854e-48
1.4215687e-48
1.5244738e-48
1.4968715e-48
1.517655e-48
1.3963014e-48
1.4085555e-48
1.3031063e-48
1.4662132e-48
1.3148268e-48
1.4597735e-48
1.4479868e-48
1.2920965e-48
1.4390179e-48
1.2843154e-48
1.4623632e-48
1.3843647e-48
1.3777894e-48
1.4617707e-48
1.3006395e-48
1.4362163e-48
1.3007141e-48
1.4349524e-48
1.4955068e-48
1.5799837e-48
1.4820556e-48
1.5947983e-48
1.5315539e-48
1.3704578e-48
1.3894798e-48
1.5419727e-48
1.5964973e-48
1.6040366e-48
1.6078771e-48
1.6089456e-48
1.5387236e-48
1.8889616e-48
1.8233137e-48
1.5533326e-48
1.6915804e-48
2.0086173e-48
2.023315e-48
1.6942843e-48
1.7075386e-48
1.7360201e-48
1.7111601e-48
1.7370144e-48
1.6169148e-48
1.62283e-48
1.618912e-48
1.6210219e-48
1.6100541e-48
1.5978891e-48
1.6339555e-48
1.6191426e-48
1.5464613e-48
1.567072e-48
1.8407348e-48
1.8732798e-48
1.8470829e-48
1.8407305e-48
1.530849e-48
1.542051e-48
2.7661659e-49
4.5678605e-49
4.3995793e-49
2.7461884e-49
2.6846346e-49
2.6003359e-49
4.5555735e-49
4.7101239e-49
7.8352647e-49
6.9040385e-49
2.8517095e-49
2.7850836e-49
4.7425522e-49
4.3675681e-49
2.7730766e-49
2.6917813e-49
4.6551661e-49
4.4311669e-49
8.0286034e-49
8.1191873e-49
1.4001914e-48
1.3621778e-48
9.8523004e-49
9.824018e-49
9.9131302e-49
9.8292421e-49
1.0181625e-48
9.3826567e-49
9.619296e-49
9.7983497e-49
1.1265936e-48
1.1597208e-48
1.0388197e-48
1.0303411e-48
1.0410752e-48
1.1643944e-48
1.1918589e-48
1.0458369e-48
1.1654997e-48
1.3492741e-48
1.3014477e-48
1.1213701e-48
1.1409977e-48
1.1588538e-48
1.0621692e-48
1.0552098e-48
1.006127e-48
1.1891916e-48
1.1871163e-48
1.0481642e-48
9.9230411e-49
9.4641308e-49
1.0365758e-48
9.9267825e-49
1.394931e-48
1.3057621e-48
1.3321595e-48
1.2334419e-48
1.4586044e-48
1.5154581e-48
1.418416e-48
1.4041569e-48
1.6520015e-48
1.6862164e-48
1.5363417e-48
1.5052791e-48
1.3264944e-48
1.4450291e-48
1.5453598e-48
1.4024351e-48
1.3862464e-48
1.3512977e-48
1.2762186e-48
1.328947e-48
1.3319431e-48
1.3419244e-48
1.3050188e-48
1.280541e-48
1.4344933e-48
1.558042e-48
1.505622e-48
1.3779815e-48
1.5677348e-48
1.5044665e-48
1.3796638e-48
1.4400869e-48
6.8285047e-49
7.0713844e-49
6.8377231e-49
6.6146319e-49
7.2750474e-49
7.5840009e-49
7.4610843e-49
7.3460664e-49
8.2225526e-49
8.6727713e-49
8.4236022e-49
7.7393865e-49
7.3909523e-49
7.0443734e-49
7.5795101e-49
8.2227323e-49
6.001492e-49
6.5874808e-49
6.1977125e-49
5.6644255e-49
9.5279068e-49
6.7557376e-49
7.611993e-49
8.001866e-49
7.0383891e-49
6.3334697e-49
7.7518137e-49
7.5735703e-49
5.0077721e-49
4.7614379e-49
5.5939671e-49
5.2753082e-49
6.948326e-49
6.1810821e-49
8.7214528e-49
8.0489428e-49
7.7344584e-49
5.9400017e-49
7.6237151e-49
8.2080451e-49
5.4995739e-49
4.6384142e-49
4.6802398e-49
5.2132056e-49
4.8833202e-49
4.9186825e-49
5.5933752e-49
5.6905422e-49
6.5028008e-49
6.1302203e-49
6.5125443e-49
6.7921351e-49
7.6494916e-49
7.1517387e-49
7.5289868e-49
8.0349303e-49
6.9359419e-49
6.4969426e-49
6.7555659e-49
6.7079543e-49
8.2118122e-49
8.2147004e-49
7.3847367e-49
7.5470948e-49
6.7293802e-49
6.5947898e-49
7.2476198e-49
7.1958448e-49
7.1882238e-49
6.7617051e-49
6.8874357e-49
6.8984419e-49
7.6623982e-49
7.7818781e-49
7.1948585e-49
7.3793947e-49
7.6432992e-49
8.1120128e-49
8.2916527e-49
7.5775656e-49
8.0109941e-49
6.7973503e-49
8.2657381e-49
8.2756869e-49
5.067271e-49
4.8807934e-49
5.2447376e-49
5.4129511e-49
8.2638287e-49
7.3379531e-49
7.1615243e-49
8.4338522e-49
5.7552131e-49
5.4066164e-49
5.0911771e-49
5.6046221e-49
6.7530212e-49
6.1980788e-49
9.0612783e-49
8.8012165e-49
7.6698924e-49
7.1218275e-49
9.1185985e-49
7.7913888e-49
5.478349e-49
5.2164396e-49
4.9692787e-49
5.230428e-49
5.2340363e-49
5.0602809e-49
5.7362806e-49
5.533381e-49
7.0857385e-49
6.9545638e-49
7.0969664e-49
7.1107566e-49
6.7646935e-49
6.6031836e-49
7.0069033e-49
7.1473312e-49
7.5502913e-49
8.0996073e-49
8.3359244e-49
7.6820903e-49
8.4115158e-49
8.3274644e-49
7.6350353e-49
7.6025443e-49
4.498502e-48
3.8391819e-48
4.5929315e-48
3.9025989e-48
3.8448174e-48
3.7705955e-48
2.9612554e-48
3.0138629e-48
4.3829179e-48