/*--------------------------------*- C++ -*----------------------------------*\
  =========                 |
  \\      /  F ield         | OpenFOAM: The Open Source CFD Toolbox
   \\    /   O peration     | Website:  https://openfoam.org
    \\  /    A nd           | Version:  7
     \\/     M anipulation  |
\*---------------------------------------------------------------------------*/
FoamFile
{
    version     2.0;
    format      ascii;
    class       volScalarField;
    location    "1000";
    object      omega;
}
// * * * * * * * * * * * * * * * * * * * * * * * * * * * * * * * * * * * * * //

dimensions      [0 0 -1 0 0 0 0];

internalField   nonuniform List<scalar> 
33730
(
4463.763
3933.8311
3876.7295
830.34981
822.25028
1265.4168
9469.6837
1291.6909
9531.4275
7534.47
7452.1607
1782.0897
1778.3546
7452.076
1758.0676
1741.9667
7211.7592
671.66239
580.5066
741.30554
679.64298
732.93268
511.32713
2016.4349
2026.6081
1963.8318
1992.4987
2022.4795
677.56746
666.77201
1975.4954
4574.9335
4669.7801
18664.12
18959.676
2063.7081
683.80681
678.72887
2017.4925
4780.1176
4675.6151
19026.415
18935.444
13008.708
4235.3658
13035.133
4267.5843
12918.198
12765.278
4181.9453
4304.2967
4220.2776
12962.499
4222.5184
12864.346
12240.906
12666.566
4056.4662
4130.203
1485.9057
1332.5598
3212.228
2891.3852
1126.9345
1485.1423
1327.7039
575.73926
1000.7252
1843.7075
1812.8635
1835.304
1829.7328
579.21173
512.17009
506.79509
1521.5697
1361.1847
1337.4302
1502.3853
1791.15
1780.5391
1805.508
1789.9031
445.41714
845.3114
728.87545
4875.4908
4912.2478
4822.5
4984.0185
4730.3602
4639.2084
4829.0077
4838.7269
558.69766
554.77357
2183.3212
701.1718
685.51991
2135.0374
3513.397
6763.0878
3512.2227
6696.0707
3603.6964
3579.7013
6847.9894
6873.807
13249.771
13153.542
32659.704
32206.846
13356.215
13345.145
32742.912
32846.973
2230.5859
705.31918
701.11466
2177.8643
3642.7051
3676.2001
6998.7796
6927.725
3564.0509
3575.0046
6791.9753
6861.587
13558.882
13463.81
32666.265
32542.516
13336.106
13248.936
32660.895
32499.817
8020.7636
21359.512
21497.779
7947.2148
21414.945
21541.184
8075.6235
7959.8459
20939.105
21380.232
8109.2922
8051.367
20905.347
20989.483
7814.6798
7897.5123
21412.892
21385.319
7911.3162
7958.5192
20944.665
21372.465
7894.3502
7875.8188
20448.092
7547.2587
7494.444
19891.95
20788.069
21077.336
7770.5815
7738.3178
3774.6699
3811.968
3952.8358
3994.8979
8848.5436
8715.7982
3164.5687
3188.1073
2856.223
2843.8105
1123.8423
7812.9543
7970.5979
8062.9636
8198.9568
6634.2142
6840.609
5532.3949
2482.5732
5671.9525
2332.6671
2342.1232
3881.6181
3859.905
4049.2474
4066.2773
3237.8598
2900.5236
2885.0519
3216.6962
1113.0153
989.70704
1000.2561
1903.9226
1866.6034
2044.5132
2025.3519
4727.5145
5041.4501
5258.1941
4557.1572
4608.9348
4710.3423
4662.4525
4654.9306
4780.1925
4648.7173
4875.1031
4573.1906
5080.237
5129.3249
4648.5397
4606.7993
443.52608
445.27137
386.25177
385.69881
996.36508
1014.6283
1138.0532
1123.6692
856.72441
742.39004
728.68971
847.74639
836.19195
724.63712
726.00848
846.70934
4055.0401
4240.7431
4045.2454
3854.0849
3379.3374
2879.7594
3031.6872
3216.7211
2860.2097
3237.62
3208.0954
2879.015
3843.5544
3880.0249
4052.6819
4096.6447
4585.1438
4655.0815
4577.9536
4668.5997
4578.6547
4495.7954
4431.7074
4517.9276
5043.1257
4570.0697
5045.9527
4566.3053
4858.1739
4942.0067
4473.2324
4400.1077
634.23153
515.59979
1654.9718
1478.6941
1432.7611
1619.2025
1079.5342
1258.0014
1050.6784
1225.3339
8962.0578
8877.3818
9029.7256
8889.0994
8736.1691
8846.2722
9106.06
9038.1347
8615.6773
8657.0362
8412.8503
8326.6297
8872.1001
8828.2047
8797.5105
8800.6824
542.89775
536.38895
2248.2446
4124.7882
4082.6863
691.25494
676.29504
2206.2091
4011.8208
4028.5453
7445.3089
7368.9538
7515.9031
7555.7049
12583.346
12654.34
18720.775
18576.237
12432.82
12531.782
18611.174
18348.154
48006.964
48492.809
28938.066
29489.106
29387.06
47858.447
28974.441
47350.773
12691.1
12741.248
18806.897
18669.473
12733.381
12635.63
18771.441
18530.525
48041.697
48583.228
28633.495
29215.536
48605.33
48541.046
29330.348
29105.517
2304.9026
4200.4161
4162.6961
696.63457
692.98947
2247.1954
4091.5446
4063.9849
7669.8133
7593.7385
7459.6821
7538.1378
12826.055
12829.833
18847.884
18713.165
12793.61
12623.739
18812.114
18512.551
28559.126
47581.335
48052.853
29072.975
47928.753
47834.128
28873.469
28606.077
12672.456
12693.717
18608.025
18695.543
12618.497
12512.133
18647.112
18406
28482.026
48137.302
48447.401
28878.9
48327.892
48092.427
28739.503
28407.637
38340.559
37730.551
11714.097
11671.515
38219.556
38588.296
11681.418
11632.906
38528.004
37943.276
11665.491
11634.662
37944.411
38727.071
11824.192
11738.705
37796.478
36256.583
11689.35
11759.943
37861.563
38390.191
11790.951
11715.808
37319.577
37153.609
11463.362
11378.163
37249.25
37517.864
11522.26
11511.25
38482.13
38092.949
11632.269
11585.589
37853.621
38523.073
11648.546
11582.613
37547.769
36973.326
11495.46
11437.278
38135.821
38496.133
11579.737
11532.921
36566.308
36462.356
11133.145
11019.43
34765.717
35969.541
10901.454
10809.549
37084.75
36863.806
11391.667
11282.574
37611.326
37944.975
11390.389
11330.426
355.92644
8819.5504
8804.8265
8663.4643
8664.6802
8957.3435
8824.5816
9071.8827
8919.8925
9377.5642
8980.164
9362.8494
8974.0307
9556.2208
9179.4225
9646.7311
9246.9209
15066.922
14865.748
15770.12
14896.535
15743.794
15414.063
14570.328
15368.305
16406.147
15444.929
7800.1293
7952.6692
7771.8421
7946.9319
7919.8476
8082.6998
8039.3748
8195.4025
6733.3797
6833.5485
5603.2299
5683.025
2448.9397
6610.2397
6591.9735
5464.9424
5473.7409
2453.755
2297.7576
2317.7683
16068.682
17534.813
16047.675
17553.986
16515.681
15278.988
15275.454
16517.951
16931.581
18526.187
16858.448
18568.662
17307.814
15929.892
17361.765
15996.995
18678.904
18720.608
17120.913
17172.442
18134.829
18204.969
19882.207
19891.638
17818.9
4882.3594
4924.5234
4815.113
4991.2229
18979.538
4450.5009
4383.3547
4466.4492
4552.0367
4394.5601
4305.3678
4364.1285
4451.8379
9189.2158
9325.4402
9029.5861
9179.4799
9077.844
8942.2411
9199.6614
9050.7497
9696.7559
9312.6971
9803.5148
9400.9885
9784.423
9376.4088
9942.7259
9536.2462
8141.7729
8284.4927
8241.6091
8409.4407
6913.3012
6998.1017
5820.1226
5752.9872
2478.1884
6802.0714
6900.8009
5722.5129
5659.0465
2467.3007
8013.397
8174.6036
8133.7276
8294.0926
2315.9503
2317.8966
1853.4576
1864.0814
2014.1761
2013.3182
1854.857
2005.3588
2033.1717
1889.5503
3499.7125
3424.0597
3444.5567
3538.9788
3379.6926
3362.7056
3495.432
3519.4963
3923.0391
3859.9491
3914.8665
3985.2966
3968.5056
3875.8581
3912.792
4019.2411
956.79266
1073.1405
705.381
816.15055
2683.0128
2991.5939
3574.0944
9906.5796
9783.7857
8820.5523
8730.5586
9804.0479
10051.797
9033.2193
9220.9408
10472.326
9583.4835
10288.562
9443.9934
9379.2152
8415.6759
9559.8868
8540.6149
10329.574
9650.0409
10177.091
9518.5569
9954.6345
10281.58
9547.4704
9853.4654
10126.876
9710.2016
9966.8792
9566.2151
10157.099
9502.5548
10473.019
9780.3945
10784.038
10551.306
10011.363
9818.9919
9832.9201
9408.1617
10148.54
9691.4365
10665.308
10163.904
10403.973
9935.8195
10004.3
9339.1217
10300.255
9588.1765
10120.863
9987.226
9309.907
9199.4089
9975.4485
9197.5626
10251.753
9418.6131
9542.562
8566.3654
8723.9035
9755.1385
9651.5627
9541.9033
8647.5597
8557.8714
631.9088
634.25802
510.71574
513.42707
640.62403
636.9023
515.6242
516.11098
444.95862
444.26717
1861.9494
1844.2098
1994.6025
2012.4671
2129.7141
1983.856
2027.4003
1884.0731
2319.8801
2442.8452
2588.4151
2466.5439
2303.2589
2286.987
2444.3664
2463.977
1477.6862
1537.9178
1722.6927
1649.6426
1311.7673
1132.5553
1102.9982
1277.1478
1070.7077
1066.5733
1230.1089
1245.3364
1434.3444
1608.7667
1450.7925
1630.0505
1421.281
1441.4373
1620.7484
1608.6551
1065.6782
1233.3188
1045.9671
1219.2607
1081.6365
1060.4954
1226.0087
1259.5474
1473.6533
1435.5438
1613.7917
1653.0089
9746.2423
9588.4902
9504.606
9356.0124
10393.279
9957.1466
10130.906
9716.7635
9857.6556
9543.9601
9169.8148
9467.5382
9205.8004
8920.2069
8797.7218
9085.515
8626.5193
8777.6981
8417.3475
8576.1724
5707.5173
5531.1082
6667.0562
6885.3936
7326.88
7147.714
5914.5789
6102.3753
7862.3032
8031.1649
8109.077
8294.2159
5586.0399
5710.5597
6856.2513
6744.01
7933.2955
8139.5282
8111.9178
8349.5372
8063.377
8243.1515
7930.7851
8120.1587
6734.838
6913.2158
5716.7422
5567.1912
9141.139
9029.521
8997.1642
8892.3246
8996.3748
8879.8879
9262.726
9162.8104
9635.5412
9790.9495
9439.1173
9295.3222
9627.006
9279.1586
9937.571
9589.1317
10190.263
10334.384
9485.9482
9616.1493
9981.5911
9540.2951
10065.073
9608.0881
10202.48
10138.409
9448.8455
9497.2522
10046.021
9587.8131
10205.52
9737.2877
9828.4218
9394.2894
9885.111
9431.605
9976.4285
9297.7876
10002.464
9307.9366
9722.1599
9041.2904
9663.1315
8993.6565
9607.5451
9575.55
9130.7895
9159.8829
9910.3516
9952.2346
9142.4207
9117.1734
9457.9154
8483.8096
9474.7155
8485.679
9950.281
9146.1223
10069.514
9241.2292
9488.5969
8505.2688
9571.7602
8567.0318
9478.6677
8711.5456
9748.4438
8966.1934
9744.6128
8951.7054
8342.613
9300.9017
9273.1409
8310.0664
8105.5126
9038.912
8044.388
584.25128
937.54956
951.66263
718.19432
723.46924
3109.4145
3011.9496
3106.0978
2987.4254
2694.071
2517.6725
2651.4972
2462.7792
2380.6122
2371.8017
2568.656
2571.3144
2890.3342
2887.2879
3033.4797
3042.1983
1410.9808
1672.2632
1635.2948
1392.1873
2215.9766
1983.4494
1929.8986
2161.0133
1326.0552
1565.6143
1573.9717
1337.2933
2083.4603
1850.7224
1858.1686
2091.0322
1917.6342
1609.4177
1355.4781
12354.207
12329.786
12353.765
12267.656
12380.58
12521.229
12284.82
12310.23
11992.42
12064.197
12166.365
12130.652
12319.582
12420.306
12442.539
12339.138
11981.095
12084.065
11936.423
12043.184
11782.828
11665.72
11549.892
11405.573
12227.929
12342.724
12255.647
12292.093
12181.688
12262.36
12089.053
12119.481
534.66936
516.52193
716.87887
724.02918
510.40133
696.63991
717.71893
2218.0376
4101.1344
4052.3483
4708.3901
4773.7777
2186.827
3991.6991
4001.9411
4650.5964
4667.6902
6200.7884
6200.0151
10381.804
10442.761
15943.692
15778.872
6181.1175
6123.5916
15818.176
10328.793
10276.732
15584.815
6265.0454
6250.701
10524.235
10452.491
16032.403
15892.312
6349.5614
6296.4305
10554.335
10502.016
16016.164
15800.823
19248.572
23666.964
23544.876
19218.16
19063.267
19019.967
23302.679
23462.553
19122.9
19128.152
23547.457
23482.89
23261.64
18851.821
23018.139
18765.842
52921.797
65470.279
65682.925
53189.357
53409.875
66639.531
66056.783
53649.074
27535.345
27309.703
41503.649
40818.303
27606.606
27759.87
42309.257
42584.633
27556.856
27643.315
42104.157
42351.806
52735.329
66229.131
65890.206
53029.375
42499.396
27379.622
27052.43
41503.659
65189.355
66084.682
52414.51
52031.005
19346.028
23733.982
23584.024
19295.561
19168.342
19120.505
23357.292
23540.953
19299.157
19277.655
23563.564
23673.382
18970.723
19036.988
23399.974
23204.092
53024.456
65050.657
65467.613
53400.845
53638.541
66241.917
65631.144
53750.699
27555.546
27298.411
40691.244
39892.503
27582.294
27761.016
41158.913
41459.096
53513.766
66145.641
66243.206
53932.932
53653.504
66662.286
65539.817
53730.271
27729.794
27562.182
42031.031
41261.622
27220.114
27468.672
41467.265
42173.158
675.48919
677.48404
2192.69
2281.844
4139.0669
4179.9471
4873.3458
4811.2864
2222.3104
4042.804
4065.2624
4733.0411
4698.3051
6426.1599
6441.0466
10700.53
10647.784
16010.206
16102.23
6377.6933
6338.4407
10601.26
10527.817
16091.552
15788.41
6252.1149
6200.9088
10375.729
10434.713
15907.527
15666.534
6294.686
6282.9321
10481.244
10558.265
15871.753
15968.67
19384.754
23699.188
19295.634
23546.784
19156.265
19176.996
23346.214
23449.436
19304.928
19345.029
23585.434
23632.515
23367.239
19039.138
18924.352
23121.897
27243.396
27402.304
39423.338
39106.247
65320.427
65255.612
51868.093
52525.882
65120.177
65829.304
52881.824
52980.299
27491.938
27666.843
39593.624
39921.377
65293.346
65168.452
52763.899
52909.629
64701.08
65495.394
52907.061
52928.584
27597.857
27510.589
39987.499
39611.413
27058.781
27363.404
39412.159
40043.589
19088.754
19083.163
23296.501
23414.59
23571.315
19239.205
19193.829
23450.21
23461.436
19182.737
23527.817
19173.665
18917.032
18846.282
23268.995
23070.222
27390.579
27219.544
39595.349
40009.38
64955.609
64986.525
53096.853
53493.147
53486.771
65722.142
65106.053
53714.077
27407.122
27558.451
40264.541
40486.515
53303.671
65193.528
65416.705
53794.486
53627.612
65323.888
64557.449
53541.967
27522.066
27420.113
40535.975
40061.101
27031.887
27278.484
39891.227
40349.417
352.14786
40710.056
40076.219
40522.628
40950.375
40813.516
40236.231
40237.758
41088.6
40296.667
38605.804
40273.257
40875
39625.486
39417.644
39593.55
39877.827
40780.17
40408.669
40148.676
40899.587
39868.187
39179.671
40494.443
40896.86
38759.215
38658.392
38180.934
39298.203
39079.111
39866.2
40279.313
15997.498
15058.162
15010.251
15942.247
15708.542
15749.707
14844.757
14822.511
14609.106
15573.607
14685.48
15499.892
15296.432
14444.843
15351.654
14484.218
15136.557
16092.272
15218.429
16022.374
15756.333
14919.474
14795.233
15640.165
15534.318
16355.29
15434.057
16441.616
15970.173
15088.965
16053.981
15179.319
15184.41
14534.3
14434.775
15081.495
14303.96
14950.129
15073.066
14190.981
14963.699
14891.791
14325.138
14264.855
14083.175
14744.878
14008.958
14836.7
14677.732
15443.526
14832.42
15286.871
14650.809
15395.243
15211.818
14479.063
15684.541
15045.351
15607.153
14964.17
14747.971
15522.224
15593.361
14827.063
31498.928
29799.922
28711.339
29408.819
29091.984
30127.821
30809.673
30522.773
30504.058
31204.312
31944.029
17986.537
17972.812
16397.375
16389.49
16819.207
15530.894
15498.002
16847.994
17624.28
17584.333
16091.751
16090.382
16553.406
16518.674
15276.616
15271.36
16402.589
17917.87
16406.901
17907.116
16860.863
15608.456
15571.498
16832.517
16820.765
18289.933
16716.95
18347.859
17182.79
15870.564
17266.635
15975.735
19084.39
19094.478
17530.262
17552.172
17884.2
17972.683
19493.288
19506.406
18192.376
4934.9421
18559.982
5002.1367
4852.6008
4907.1476
19246.743
19251.137
17596.488
17617.761
17209.55
17222.07
18774.214
18736.394
17825.992
4835.7696
18337.481
4837.5285
4767.2066
4763.7735
4390.0435
4311.4747
4332.5089
4426.7117
4334.0462
4273.2987
4329.2324
4275.68
27003.588
25990.171
26628.211
26347.232
27317.636
27997.65
28381.849
27691.852
27821.078
28454.39
27745.837
29134.872
29801.565
25102.128
25482.199
25434.215
25779.282
27267.573
27165.402
26981.494
26868.804
31452.16
25500.664
16373.095
26581.824
32675.866
16307.928
15370.864
17406.06
28114.148
28684.264
34882.002
34420.032
17116.909
15978.313
13979.516
13875.044
14906.879
14262.912
13549.251
14439.653
15266.295
15676.292
16655.447
15708.072
16615.37
16795.45
16713.5
15794.468
15893.768
16262.871
15363.302
16205.122
15301.573
16445.361
15477.124
15570.837
16359.156
16275.421
15389.835
16317.116
15416.36
15947.517
15085.628
15939.225
15090.309
15822.892
16638.084
15694.693
16751.282
16250.39
15353.56
15467.419
16361.028
15624.423
15002.052
14975.197
15601.59
15571.59
14818.938
14774.816
15529.655
15894.54
15991.427
15241.286
15336.554
15820.635
15903.794
15034.14
15119.814
15168.663
15904.355
15248.723
15820.171
15043.377
15830.668
15730.724
14951.673
15462.869
16019.013
15369.61
16103.925
15163.382
15949.68
16032.936
15252.561
18620.643
18610.374
17012.376
17016.05
17472.335
16153.55
16134.762
17487.871
18579.053
18621.44
17100.354
17010.364
17504.107
17573.794
16194.356
16294.252
19878.61
19875.924
18212.029
18231.533
18145.336
18225.329
19745.63
19748.266
18783.94
5112.8773
18957.51
5067.3659
4995.1617
5005.8084
19308.623
19348.632
17707.034
17784.137
18208.274
18308.156
19895.548
19910.705
18958.62
5027.615
18417.352
4973.1742
4899.9358
4939.1416
16642.616
18102.779
16569.199
18160.768
17037.915
15772.65
15833.844
17100.476
17119.445
18618.061
16993.533
18691.604
17474.986
16131.225
17582.605
16262.23
4424.6585
4350.7039
4358.476
4447.4402
4510.3815
4424.9144
4402.737
4510.1
3348.6138
3382.2721
3519.3989
3487.9402
3328.0474
3323.0676
3453.4387
3455.4753
3929.3721
3839.0892
3844.089
3934.5742
3874.1437
3913.537
4002.6736
3979.1356
3319.1306
3316.3379
3445.1751
3448.7472
3904.9898
3818.3221
3825.5365
3920.1716
3892.5563
3830.9222
3894.4286
3817.1905
3464.3889
3342.4364
3336.0782
3461.3296
11134.961
10385.036
10590.845
11475.628
10174.81
10153.31
11036.739
11073.086
12366.251
11898.818
12709.811
13300.318
12891.539
11940.707
11994.978
12968.035
614.95488
502.17727
498.19217
431.92637
1771.9036
1703.9228
1844.1547
1904.2118
1714.5103
2259.4163
2116.2948
2307.9329
2171.1886
1320.5233
1493.3536
988.8514
1143.0186
1032.2937
995.08974
1144.1205
1199.4769
1486.1188
1329.6417
1555.3738
1395.4379
6338.2407
5229.8728
6073.0621
6346.9389
5253.7724
4989.672
7171.2581
7325.841
7482.2667
7658.7718
8119.8742
7993.6476
8498.4991
8376.0423
9076.4406
8718.1306
9331.9226
8902.0302
13433.655
12684.666
12744.281
13519.519
13350.457
13389.858
12646.031
12610.354
12082.095
12849.883
12019.143
12920.603
12798.355
11993.061
12840.043
12046.604
14020.032
13291.684
13182.909
13901.965
14417.398
14248.58
13496.703
13634.195
12572.469
13548.623
12682.762
13430.021
13868.129
12942.835
13731.532
12833.904
14100.182
14797.203
13993.507
14939.869
14202.417
13262.779
13342.028
14318.783
13864.734
14684.933
13893.194
14650.687
14131.065
13194.883
14094.037
13164.475
12898.249
12201.897
12095.781
12778.091
12412.974
11666.537
11577.43
12301.293
13028.954
13134.199
12317.77
12396.377
12509.264
12585.319
11749.943
11787.852
14775.299
15606.678
14927.064
15440.901
15328.555
14305.955
14170.525
15172.779
15389.179
14731.172
15281.723
14642.861
15064.163
14069.752
15135.193
14156.526
15416.978
14848.013
14825.276
15389.331
15910.683
15832.164
15256.23
15343.703
14685.013
15430.868
14725.167
15393.497
15920.575
15198.059
15845.351
15118.73
15062.164
15765.592
15202.38
15631.699
15801.055
15081.016
14926.9
15636.881
14994.532
15389.28
14847.893
15546.429
15438.726
14753.438
15572.544
14875.158
15245.459
14588.391
14539.768
15191.445
14031.83
14941.925
14994.512
13991.473
15640.792
15701.956
14965.746
15018.041
14369.578
15397.734
14428.723
15369.757
16013.287
16169.001
15425.845
15277.648
15748.044
15045.329
15776.424
15070.28
15625.638
14588.985
14722.338
15811.129
15464.812
15420.397
14439.177
14417.168
14532.88
15185.19
14603.707
15108.943
15167.945
14454.611
14362.411
15077.305
15562.736
15779.5
14973.314
15182.054
15532.913
15752.242
14794.29
14999.436
16545.755
16422.32
15777.209
15891.072
16473.527
16334.984
15534.104
15661.798
15458.694
16062.818
15443.847
16075.177
15262.614
16027.507
16017.156
15256.313
14196.011
14952.777
14295.638
14843.208
13756.897
14681.404
14576.086
13653.634
15493.854
14788.896
15283.984
14607.995
14007.194
14982.38
15156.421
14181.144
14536.109
13745.009
13627.513
14397.28
14310.304
14377.981
13542.532
13597.219
12958.722
13978.208
13061.714
13860.146
13828.727
12925.199
13781.102
12884.078
14283.86
13528.115
13486.326
14236.313
12840.683
13772.541
12884.327
13727.587
13878.401
14615.139
13828.951
14663.218
14059.143
13126.215
13167.942
14102.332
13089.774
12379.801
12334.741
13039.8
11844.921
12534.539
12582.193
11809.436
12004.382
12769.437
12785.496
11990.753
13316.409
13349.089
12579.781
12605.692
13257.8
12526.651
12437.794
13152.106
13083.453
12371.747
13115.483
12394.702
11944.334
11885.32
12719.543
12632.231
12589.076
12574.353
11854.788
11839.648
944.21012
717.96906
714.71191
933.93522
943.13138
955.21344
721.87318
716.51548
581.02514
591.84161
988.09778
973.2713
745.46956
739.31147
946.08445
949.63853
721.19332
722.92627
588.64944
596.84188
436.0455
432.64037
3309.4772
3282.8524
3443.2035
3413.1967
3262.4236
3264.9974
3403.3978
3396.089
3768.7241
3779.1563
3880.8805
3854.8528
3861.5776
3777.2988
3809.5138
3908.6385
4255.3926
4217.9257
4048.0669
4109.9151
3807.3583
3698.2132
3535.8762
3655.6609
3859.2576
3798.8069
3855.1575
3935.7012
3430.5396
3316.6452
3346.2383
3476.0674
4338.5808
4246.0732
4416.3238
4307.5045
4524.6054
4687.0886
4734.4993
4588.897
5076.2843
5241.3329
5338.3158
5185.2047
4859.6884
4758.666
4886.2905
5004.7918
4307.3138
4253.8938
4330.8567
4403.1861
4248.6865
4293.8031
4390.2709
4332.148
4996.817
4868.1569
4788.5446
4908.5258
4865.8445
4779.5089
4893.1664
5010.755
2389.7633
2569.8499
2390.2627
2569.9929
2551.718
2667.3682
2855.0477
2733.8505
3333.6573
3204.0197
3063.0017
3194.005
2874.8346
3004.76
3016.3789
2874.3434
2342.7922
2113.582
2043.6715
2265.0342
1786.8301
1506.6821
1483.3611
1751.1345
1390.9208
1414.7276
1649.4037
1635.4791
2127.2819
1920.2398
1903.9375
2122.9555
1344.7898
1353.9707
1591.8789
1579.9023
1318.1674
1342.9428
1564.0557
1542.412
1797.9096
1823.5148
2038.1727
2018.2341
1847.9231
2067.5424
2094.257
1871.5777
2290.0986
2305.0314
2484.76
2476.0227
2785.0873
2938.2433
2932.9478
2780.7802
2520.674
2341.6069
2372.4518
2548.0515
2845.5628
2821.3826
2966.9836
2992.8126
2339.7135
2339.983
2538.2717
2547.0335
2335.283
2362.1641
2542.4317
2527.7562
2849.7885
2850.6734
2992.5214
2991.8901
3034.2578
2875.4276
2857.0907
3014.3825
1335.2844
1342.6409
1581.7932
1567.3735
1858.4502
2083.7441
2055.7162
1834.2117
1535.8722
1304.5779
1314.836
1546.3549
1820.6678
1813.1764
2049.3561
2055.332
1394.9239
1392.8816
1647.7845
1620.6701
1325.4733
1328.2005
1557.5187
1561.4413
1831.7467
1830.7734
2057.0281
2060.1388
2124.9393
1905.1463
1941.2758
2164.296
2443.5502
2411.1916
2585.2295
2609.9188
2346.011
2339.6061
2524.8022
2532.0325
2983.9821
2834.9552
2843.3942
2990.7335
2900.5479
2888.5025
3027.2503
3031.5751
17530.328
16573.956
17619.207
16661.979
17252.535
17159.722
16237.07
16323.149
17119.54
17159.612
16155.669
16215.168
15821.952
16766.205
15869.629
16728.469
16798.371
16893.452
16208.058
16117.066
16704.544
15873.532
15976.918
16812.11
15750.092
16376.385
15709.319
16407.518
16303.119
16325.415
15499.776
15533.017
15416.343
15824.785
16042.76
15205.596
15423.979
15389.831
14809.608
14770.39
14643.176
15328.355
14582.219
15386.295
15784.038
15995.465
15228.037
15021.269
16605.906
15744.852
16413.972
15539.354
16083.34
16057.346
15169.596
15185.542
15716.603
15719.221
14880.325
14867.285
15272.403
15486.826
16103.236
16310.623
19459.213
17831.115
19559.273
17937.537
18443.414
17078.763
18347.515
16985.113
19172.106
19169.56
17500.215
17555.247
18015.76
16666.15
17985.882
16601.721
18437.329
18130.358
17474.287
19048.197
19049.845
17504.946
17786.858
17918.858
19351.22
19374.794
19118.973
20698.615
19000.767
20745.127
20438.701
18725.635
20410.927
18773.599
19460.044
19770.526
17880.458
17890.039
16378.313
16344.473
16819.155
15553.997
15595.108
16843.247
16837.922
18191.876
16664.514
18303.075
17149.349
15896.818
17313.682
16093.239
18135.441
18232.297
19166.527
19168.461
17683.858
17712.613
17482.726
17617.106
19022.359
19052.811
16590.986
18034.678
16506.647
18094.472
18200.596
18266.499
16713.244
16829.712
16977.087
15716.252
17052.177
15788.856
17312.372
15999.107
16115.915
17218.828
18093.59
18096.234
16629.673
16642.348
17110.861
15899.175
17115.271
15903.743
16538.085
17870.546
16367.188
17984.596
16835.572
15606.086
15795.167
16995.718
19207.945
19235.504
17635.681
17713.088
17767.973
17872.31
19275.72
19287.77
18321.483
18302.146
16414.884
15569.347
15541.063
16390.274
16141.63
15332.256
16090.845
15271.691
16096.943
16276.23
15239.252
15424.592
14985.579
15970.041
15164.283
15791.465
15385.162
16206.685
15324.609
16269.554
15878.28
15045.695
15084.782
15926.92
15791.911
16523.813
15666.261
16623.702
16251.74
15424.382
16359.08
15541.997
15528.364
15703.194
15110.78
14940.264
15216.369
15896.926
15305.919
15812.864
15910.278
15187.284
15077.409
15799.584
15527.611
15694.354
14824.668
14988.973
14994.047
15590.496
14981.878
15613.209
14851.952
15571.02
15567.103
14839.249
16093.043
15486.865
15991.403
15382.179
15256.918
15985.556
16075.837
15350.743
14493.083
15291.627
14600.051
15176.529
15447.988
15398.606
14709.071
14749.664
14984.093
14012.985
14865.584
13906.208
15104.15
14091.169
14132.233
15087.188
15292.537
15354.875
14770.674
14709.987
15251.111
15324.739
14596.108
14528.854
15037.143
15576.022
14967.046
15649.173
14777.694
15531.163
15591.195
14843.272
15325.48
14631.52
15274.237
14587.313
15001.31
15079.846
14404.19
14339.22
14699.407
14765.591
13828.967
13755.508
13972.365
14016.391
14969.932
14996.493
14881.031
15586.727
14974.184
15480.029
15542.413
14789.554
14693.974
15435.15
15174.964
15702.794
15095.295
15782.572
15658.798
14903.653
15726.889
14973.517
15175.507
14979.074
14597.698
14420.204
14947.35
14250.52
15145.892
14424.247
14738.409
15267.358
14670.602
15336.287
15215.333
14478.483
14540.894
15275.146
14900.934
14230.759
14067.518
14709.856
14587.188
13653.171
13503.826
14422.148
14955.835
15005.038
14281.317
14325.681
14649.277
14676.991
13676.022
13722.723
13678.321
14463.852
13794.732
14326.59
13257.47
14135.582
14012.748
13140.259
14197.115
14061.69
13551.032
13446.891
13019.443
13756.488
12944.982
13872.868
14089.717
14802.81
14207.691
14671.212
14556.116
14451.095
13977.97
13887.447
14353.794
13670.81
14476.009
13768.985
14732.991
14597.754
14007.099
13889.996
14080.968
13353.88
13269.384
13990.773
14214.368
14246.775
13454.72
13486.834
13720.934
12825.659
13693.78
12796.134
13606.018
13509.292
12737.977
12648.294
12160.262
12948.912
12250.876
12845.982
12454.36
11706.432
11637.742
12355.419
12993.644
13015.797
12281.667
12299.459
12491.073
11745.649
12480.195
11762.513
13404.718
14265.627
13504.212
14145.629
13750.54
12855.361
12767.584
13647.072
13594.331
14332.095
13567.528
14359.109
13804.706
12897.669
13823.554
12919.027
12269.34
13061.841
12347.242
12968.161
12549.676
11813.938
12471.125
11762.525
13105.287
13094.181
12374.916
12383.706
12567.081
11840.953
12570.111
11808.442
12713.749
13526.086
12834.281
13387.866
13095.815
12255.594
12962.272
12140.001
13904.652
13183.471
13739.78
13043.8
13285.264
12446.133
13435.161
12573.646
13196.692
13912.316
13173.613
13939.218
13412.965
12538.241
12555.351
13427.118
11560.579
12293.927
12169.643
11481.329
12783.997
12090.743
11974.608
12645.056
12736.613
12040.164
12742.498
12044.16
12234.608
11556.454
12243.992
11523.613
11199.237
11283.794
11994.779
11878.552
11681.799
12470.961
11789.528
12342.68
11785.686
11092.869
581.49715
586.05148
820.02829
796.7786
945.94153
1177.8521
1185.7646
949.31826
1232.8865
990.74901
1236.3898
983.16065
9646.4386
8862.6698
9718.6187
8806.2816
8024.1325
7057.717
7859.6543
6837.1393
6521.0009
6514.4749
7496.1016
7487.8491
8401.2874
8403.4396
9289.4435
9297.6999
2121.7277
3705.9729
3525.5118
2036.3353
6007.9869
4875.6705
4660.7293
5773.0701
1917.2394
3365.6982
3383.6665
1930.7855
5501.6848
4446.0687
4472.1727
5521.8077
4678.8421
3510.3413
1979.8594
508.54256
699.13187
699.45454
478.39633
712.31638
719.82349
702.01848
706.88636
474.04725
715.40594
696.17779
681.73494
699.49916
2024.8684
5102.9532
4556.4112
4630.193
5192.0804
7181.5557
7240.0894
7122.4661
7141.9652
7073.1767
8108.0258
8081.0242
7097.1922
8147.1097
8226.2399
7199.6065
7130.7859
2009.2822
5087.5602
4524.0467
4518.841
5076.4668
6992.151
7056.6936
7082.3752
7078.5497
8031.9228
7943.0648
6944.6919
7020.2218
8045.7924
7030.5247
7044.4078
8059.0907
11293.244
16660.731
11359.744
16838.508
21647.845
21548.967
21302.009
21446.807
21458.116
16725.362
21547.159
11243.401
11192.372
16479.86
21037.9
21235.007
11435.479
16925.43
11362.694
16770.209
21743.02
21601.675
21395.168
21545.419
11467.201
16910.511
11417.068
16686.857
21577.754
21683.293
21395.427
21228.2
25672.75
25495.947
25227.973
25454.025
25567.034
25444.843
25274.509
24945.406
58661.811
95915.401
96769.224
58636.541
59013.239
97223.506
97886.116
58796.841
29701.244
29398.987
56873.106
55309.586
29721.789
29941.444
58132.884
57481.927
29690.754
29830.798
57093.73
58164.013
58552.134
96898.29
97270.338
58540.079
57925.022
29559.558
29141.009
56925.45
97466.548
97122.095
58492.197
58021.382
25724.224
25505.119
25265.457
25517.014
25488.074
25659.982
25387.96
25118.858
58635.112
95013.524
96225.581
58797.064
59138.884
96068.907
96968.573
58847.919
29691.394
29351.366
55928.817
54165.579
29650.89
29903.385
56650.179
56110.941
58944.093
96315.219
97415.18
58954.254
59168.355
97100.995
97738.133
58858.1
29894.158
29645.824
58017.244
56036.897
29303.52
29628.939
57202.116
57199.241
2139.2691
2161.3942
4621.5919
4624.2564
3971.13
6167.0886
6118.7886
10340.046
10273.979
2083.5361
5312.0253
4730.9217
4668.8678
5225.3891
7224.0601
7266.7575
7348.1792
7328.573
7309.0279
8324.5178
8358.8942
7287.6775
8192.0391
8251.4448
7224.4248
7174.2241
2029.13
5106.6154
5144.4001
4586.8437
4561.4931
7070.7068
7124.7061
7166.0079
7186.7742
7117.679
8173.9592
8135.4354
7144.3241
8022.4292
8093.3855
7083.6808
7020.8568
17017.47
11623.634
16856.011
11574.126
21430.718
21463.774
21771.672
21575.45
11519.315
16971.357
11444.579
16702.366
21648.758
21663.425
21411.583
21167.196
11287.463
16574.579
11346.612
16810.624
21556.356
21495.978
21286.19
21101.848
11396.89
16748.801
11480.718
16882.512
21353.606
21441.886
21616.514
21491.456
25662.414
25444.519
25223.428
25369.882
25490.735
25593.334
25344.262
25016.319
29240.382
29446.171
53367.295
52642.609
93525.62
93119.352
58043.052
58215.778
94388.426
93903.729
58531.451
58501.793
29493.648
29743.926
53900.386
53927.236
94701.641
93995.597
58498.408
58546.13
95065.704
94812.83
58627.02
58352.107
29686.119
29530.803
54541.167
53624.635
29069.823
29461.285
54123.041
54530.904
25196.856
25377.242
25548.254
25368.131
25387.299
25511.024
25257.832
24976.351
29499.663
29252.372
53943.198
55057.134
95400.002
94521.924
58552.526
58630.224
58936.162
94625.638
96008.229
58671.126
29456.122
29673.967
55430.226
54678.906
58735.955
94585.498
95949.173
58809.533
58942.148
95027.006
95841.267
58702.02
29648.603
29477.085
55770.248
54168.295
29070.454
29404.088
54818.651
54806.203
422.99755
423.54965
72647.015
36120.226
71897.824
35613.75
72566.895
35870.918
73091.655
36279.216
73005.396
36102.559
72289.899
35593.683
72421.678
35652.892
73346.631
36453.329
71388.394
36194.218
69725.666
34587.853
71968.054
35938.885
72332.434
36603.353
71645.287
35039.539
71282.114
34947.168
71427.163