/*--------------------------------*- C++ -*----------------------------------*\
  =========                 |
  \\      /  F ield         | OpenFOAM: The Open Source CFD Toolbox
   \\    /   O peration     | Website:  https://openfoam.org
    \\  /    A nd           | Version:  7
     \\/     M anipulation  |
\*---------------------------------------------------------------------------*/
FoamFile
{
    version     2.0;
    format      ascii;
    class       volScalarField;
    location    "1000";
    object      p;
}
// * * * * * * * * * * * * * * * * * * * * * * * * * * * * * * * * * * * * * //

dimensions      [0 2 -2 0 0 0 0];

internalField   nonuniform List<scalar> 
33730
(
-7.2804452e+95
-7.0129925e+95
-7.0737331e+95
-6.6925406e+95
-6.734269e+95
-7.1228854e+95
-7.1224942e+95
-7.0503777e+95
-7.0547539e+95
-6.9313249e+95
-6.8993871e+95
-6.8272149e+95
-6.85568e+95
-6.9593414e+95
-6.8814204e+95
-6.9050801e+95
-6.9860378e+95
-6.2986043e+95
-6.1072828e+95
-6.48528e+95
-6.2718303e+95
-6.5189852e+95
-5.8694367e+95
-6.7214972e+95
-6.6973223e+95
-6.7645146e+95
-6.7430456e+95
-6.9940807e+95
-6.9637343e+95
-6.9944934e+95
-7.0243716e+95
-7.0387096e+95
-7.0091382e+95
-7.0260344e+95
-6.9977048e+95
-6.9265152e+95
-6.8952274e+95
-6.9311453e+95
-6.9624427e+95
-6.9430147e+95
-6.9780226e+95
-6.9338009e+95
-6.9677952e+95
-6.8704908e+95
-6.8174359e+95
-6.8857177e+95
-6.8314652e+95
-6.8396201e+95
-6.8555312e+95
-6.8030867e+95
-6.7889067e+95
-6.8567162e+95
-6.9132158e+95
-6.8436105e+95
-6.8988547e+95
-6.9372166e+95
-6.9255454e+95
-6.8793711e+95
-6.8686244e+95
-6.4090277e+95
-6.3078843e+95
-6.3645102e+95
-6.3187622e+95
-6.219375e+95
-6.3959675e+95
-6.295477e+95
-6.0898111e+95
-6.1151084e+95
-6.5812406e+95
-6.48143e+95
-6.4632179e+95
-6.6016343e+95
-6.0690112e+95
-5.8453002e+95
-5.857969e+95
-6.3652882e+95
-6.2668077e+95
-6.2822333e+95
-6.3822109e+95
-6.496031e+95
-6.510435e+95
-6.6194594e+95
-6.6376673e+95
-5.6392561e+95
-6.0093564e+95
-5.8800487e+95
-6.7364764e+95
-6.7500746e+95
-6.7239344e+95
-6.7116077e+95
-6.7821451e+95
-6.7926677e+95
-6.7717655e+95
-6.7605854e+95
-6.8151785e+95
-6.8791585e+95
-6.8881635e+95
-6.8543394e+95
-6.8833126e+95
-6.9157663e+95
-6.9594482e+95
-6.97294e+95
-6.9724414e+95
-6.9860102e+95
-6.9454564e+95
-6.9306774e+95
-6.9445416e+95
-6.9594311e+95
-6.9732056e+95
-6.9861324e+95
-6.9561155e+95
-6.9685258e+95
-6.94513e+95
-6.9597717e+95
-6.9286756e+95
-6.9431138e+95
-6.8256818e+95
-6.7914361e+95
-6.8250646e+95
-6.8589412e+95
-6.8843061e+95
-6.8664318e+95
-6.8806162e+95
-6.898668e+95
-6.9165263e+95
-6.900868e+95
-6.9305334e+95
-6.9147635e+95
-6.8821419e+95
-6.8996196e+95
-6.866921e+95
-6.8838341e+95
-6.9155875e+95
-6.9311393e+95
-6.8995568e+95
-6.914964e+95
-6.7999119e+95
-6.8357741e+95
-6.8439542e+95
-6.8076621e+95
-6.8512399e+95
-6.8579897e+95
-6.8215787e+95
-6.8149687e+95
-6.8058756e+95
-6.8135863e+95
-6.7718731e+95
-6.7785695e+95
-6.8209861e+95
-6.828742e+95
-6.7856467e+95
-6.7930119e+95
-6.8777724e+95
-6.8840853e+95
-6.8398051e+95
-6.8458948e+95
-6.8641317e+95
-6.8711821e+95
-6.8271326e+95
-6.8335089e+95
-6.9012514e+95
-6.8627694e+95
-6.8675111e+95
-6.9063481e+95
-6.8895253e+95
-6.8959023e+95
-6.8513358e+95
-6.8573152e+95
-6.4053328e+95
-6.3996106e+95
-6.4558223e+95
-6.449531e+95
-6.4055401e+95
-6.4290768e+95
-6.3601934e+95
-6.3550001e+95
-6.3104605e+95
-6.315108e+95
-6.2113852e+95
-6.3600629e+95
-6.3829088e+95
-6.3621374e+95
-6.3849375e+95
-6.337987e+95
-6.3398729e+95
-6.3157693e+95
-6.2745127e+95
-6.3172543e+95
-6.2325187e+95
-6.2298583e+95
-6.3945694e+95
-6.389853e+95
-6.4396091e+95
-6.4442295e+95
-6.3500889e+95
-6.3054749e+95
-6.3004638e+95
-6.3451781e+95
-6.1995199e+95
-6.0973327e+95
-6.1070161e+95
-6.1453471e+95
-6.1461058e+95
-6.1877447e+95
-6.1895338e+95
-6.6414564e+95
-6.5805452e+95
-6.5701648e+95
-6.652339e+95
-6.5319199e+95
-6.484485e+95
-6.4757205e+95
-6.5413662e+95
-6.5114978e+95
-6.4662543e+95
-6.4556948e+95
-6.5218598e+95
-6.5908162e+95
-6.6014555e+95
-6.6758912e+95
-6.6635427e+95
-5.63293e+95
-5.6261599e+95
-5.3784764e+95
-5.3810541e+95
-6.0865726e+95
-6.0761954e+95
-6.1740231e+95
-6.1873675e+95
-5.9779901e+95
-5.8581597e+95
-5.8621944e+95
-5.9860816e+95
-5.9949078e+95
-5.8684617e+95
-5.87613e+95
-6.0027875e+95
-6.3581958e+95
-6.4069041e+95
-6.4172399e+95
-6.3681665e+95
-6.3139901e+95
-6.2775786e+95
-6.2689898e+95
-6.3233162e+95
-6.2861363e+95
-6.3404569e+95
-6.3319446e+95
-6.2950134e+95
-6.3769035e+95
-6.3849087e+95
-6.4262319e+95
-6.4345683e+95
-6.5541402e+95
-6.4897294e+95
-6.5476145e+95
-6.494749e+95
-6.5005133e+95
-6.5606306e+95
-6.5677806e+95
-6.5071469e+95
-6.6092654e+95
-6.685174e+95
-6.6169654e+95
-6.6946646e+95
-6.632768e+95
-6.6246032e+95
-6.7036959e+95
-6.7131518e+95
-5.7362976e+95
-5.5551645e+95
-6.101469e+95
-6.053811e+95
-6.0534982e+95
-6.1012922e+95
-5.9281061e+95
-6.0002409e+95
-5.9242632e+95
-5.999425e+95
-6.7501768e+95
-6.7573701e+95
-6.7711328e+95
-6.7642283e+95
-6.7364796e+95
-6.7437777e+95
-6.7243175e+95
-6.7301757e+95
-6.8029862e+95
-6.797678e+95
-6.8081449e+95
-6.8129538e+95
-6.792731e+95
-6.786803e+95
-6.7814053e+95
-6.7760729e+95
-6.6026096e+95
-6.6571602e+95
-6.7812074e+95
-6.8945164e+95
-6.8808581e+95
-6.7494086e+95
-6.7759968e+95
-6.8062035e+95
-6.9202108e+95
-6.9074022e+95
-6.9269127e+95
-6.9395331e+95
-6.9004806e+95
-6.9140942e+95
-6.940098e+95
-6.9467894e+95
-6.9482579e+95
-6.9415767e+95
-6.9591691e+95
-6.9531591e+95
-6.9544039e+95
-6.9605366e+95
-6.9143397e+95
-6.920714e+95
-6.9336648e+95
-6.9402606e+95
-6.9461667e+95
-6.9264583e+95
-6.9519963e+95
-6.931763e+95
-6.9131543e+95
-6.920303e+95
-6.9218925e+95
-6.9146963e+95
-6.9271923e+95
-6.9337853e+95
-6.9285501e+95
-6.9353034e+95
-6.8880123e+95
-6.8953008e+95
-6.9069525e+95
-6.9143479e+95
-6.9021854e+95
-6.9084936e+95
-6.9210357e+95
-6.9275753e+95
-6.7239758e+95
-6.8184562e+95
-6.8359044e+95
-6.6913837e+95
-6.7227954e+95
-6.7548479e+95
-6.8517135e+95
-6.8672886e+95
-6.8381673e+95
-6.8554813e+95
-6.8867508e+95
-6.8713671e+95
-6.8502866e+95
-6.8590919e+95
-6.8613039e+95
-6.85259e+95
-6.867777e+95
-6.8759506e+95
-6.8695316e+95
-6.8777661e+95
-6.845088e+95
-6.8276176e+95
-6.8360314e+95
-6.8538899e+95
-6.8438235e+95
-6.8516158e+95
-6.8619537e+95
-6.8700831e+95
-6.8835915e+95
-6.8917013e+95
-6.8852933e+95
-6.893391e+95
-6.8993864e+95
-6.9064807e+95
-6.9007871e+95
-6.9080647e+95
-6.8776632e+95
-6.8589573e+95
-6.867219e+95
-6.8859102e+95
-6.8746513e+95
-6.881599e+95
-6.8932034e+95
-6.900359e+95
-6.8112644e+95
-6.8073378e+95
-6.7885267e+95
-6.7922075e+95
-6.8191045e+95
-6.8152682e+95
-6.7960497e+95
-6.8000113e+95
-6.8264862e+95
-6.8225893e+95
-6.8034179e+95
-6.8072228e+95
-6.8328939e+95
-6.8298719e+95
-6.8106498e+95
-6.8135961e+95
-6.7822884e+95
-6.7790447e+95
-6.7607515e+95
-6.7637829e+95
-6.7892752e+95
-6.7858067e+95
-6.7670928e+95
-6.7706003e+95
-6.7965905e+95
-6.7926748e+95
-6.7739537e+95
-6.7777707e+95
-6.8040733e+95
-6.8004363e+95
-6.7815419e+95
-6.7852914e+95
-6.8514758e+95
-6.84816e+95
-6.8280855e+95
-6.8312964e+95
-6.8574194e+95
-6.8545819e+95
-6.8343314e+95
-6.8371913e+95
-6.8388331e+95
-6.8356224e+95
-6.8160966e+95
-6.8190412e+95
-6.8452033e+95
-6.8421194e+95
-6.8221018e+95
-6.8252235e+95
-6.8738433e+95
-6.8712325e+95
-6.8507541e+95
-6.8532508e+95
-6.8786428e+95
-6.8764447e+95
-6.8556487e+95
-6.8577847e+95
-6.8627389e+95
-6.8598784e+95
-6.8396381e+95
-6.8423564e+95
-6.8687445e+95
-6.865891e+95
-6.8452647e+95
-6.8482139e+95
-5.0883895e+95
-6.4004652e+95
-6.4032148e+95
-6.4238308e+95
-6.4266615e+95
-6.3957165e+95
-6.4187127e+95
-6.3978905e+95
-6.4211242e+95
-6.4477467e+95
-6.4737985e+95
-6.4508045e+95
-6.476984e+95
-6.4424147e+95
-6.4681995e+95
-6.4449055e+95
-6.4708036e+95
-6.4492651e+95
-6.4151977e+95
-6.4027769e+95
-6.4140304e+95
-6.4039117e+95
-6.4253676e+95
-6.4372506e+95
-6.4264996e+95
-6.404955e+95
-6.4162622e+95
-6.3555755e+95
-6.3780637e+95
-6.3580084e+95
-6.3807159e+95
-6.3513081e+95
-6.3735671e+95
-6.3533697e+95
-6.3756302e+95
-6.3299525e+95
-6.3319615e+95
-6.3086014e+95
-6.310431e+95
-6.2672737e+95
-6.3339807e+95
-6.3361114e+95
-6.31402e+95
-6.3121682e+95
-6.2717752e+95
-6.2234655e+95
-6.2280244e+95
-6.3706749e+95
-6.3585955e+95
-6.3694542e+95
-6.3597709e+95
-6.3804349e+95
-6.3915859e+95
-6.3926986e+95
-6.3816152e+95
-6.3729448e+95
-6.3610591e+95
-6.3718139e+95
-6.3621455e+95
-6.3826628e+95
-6.3937399e+95
-6.3838124e+95
-6.3948874e+95
-6.3350571e+95
-6.336126e+95
-6.3475657e+95
-6.3486612e+95
-6.3499382e+95
-6.3509913e+95
-6.3371842e+95
-6.3381551e+95
-6.3181579e+95
-6.2960759e+95
-6.2771811e+95
-6.2761158e+95
-6.2973386e+95
-6.3200058e+95
-6.2412038e+95
-6.2392822e+95
-6.2590739e+95
-6.2611336e+95
-6.2380321e+95
-6.2377324e+95
-6.2568314e+95
-6.2576124e+95
-6.3914968e+95
-6.3936481e+95
-6.4145785e+95
-6.4166224e+95
-6.3885374e+95
-6.4114674e+95
-6.3898004e+95
-6.4129182e+95
-6.4350123e+95
-6.4604575e+95
-6.4364418e+95
-6.4618749e+95
-6.4381239e+95
-6.4636786e+95
-6.4402714e+95
-6.4659784e+95
-6.3469918e+95
-6.369271e+95
-6.3493438e+95
-6.3715394e+95
-6.3256562e+95
-6.3280438e+95
-6.3066945e+95
-6.3041391e+95
-6.2619682e+95
-6.3222999e+95
-6.323711e+95
-6.3021193e+95
-6.3003831e+95
-6.2566161e+95
-6.3438118e+95
-6.3662765e+95
-6.3450374e+95
-6.367441e+95
-6.2120733e+95
-6.2176807e+95
-6.1330221e+95
-6.1276725e+95
-6.1698342e+95
-6.1754822e+95
-6.1381683e+95
-6.1810853e+95
-6.1860455e+95
-6.142981e+95
-6.1826455e+95
-6.1651365e+95
-6.1643384e+95
-6.1819994e+95
-6.1655291e+95
-6.1643618e+95
-6.1824443e+95
-6.1838911e+95
-6.1997861e+95
-6.2002519e+95
-6.2188422e+95
-6.2187103e+95
-6.2196843e+95
-6.2005202e+95
-6.2021141e+95
-6.2215436e+95
-6.0645579e+95
-6.1609798e+95
-5.8492419e+95
-5.9671436e+95
-6.2614476e+95
-6.3054022e+95
-6.3488897e+95
-6.6363421e+95
-6.6415733e+95
-6.6806492e+95
-6.6859723e+95
-6.5743999e+95
-6.5804514e+95
-6.609816e+95
-6.6158372e+95
-6.5642264e+95
-6.5992853e+95
-6.5692065e+95
-6.6044855e+95
-6.6469768e+95
-6.6917927e+95
-6.6533316e+95
-6.6986721e+95
-6.5247769e+95
-6.554978e+95
-6.530009e+95
-6.5601796e+95
-6.4807641e+95
-6.4839527e+95
-6.5073218e+95
-6.5107232e+95
-6.4719551e+95
-6.4979914e+95
-6.4768377e+95
-6.5031848e+95
-6.5343185e+95
-6.5649399e+95
-6.5381386e+95
-6.5693621e+95
-6.5034604e+95
-6.5086659e+95
-6.5336495e+95
-6.5385929e+95
-6.461067e+95
-6.4871083e+95
-6.4669344e+95
-6.4928265e+95
-6.4503596e+95
-6.4765836e+95
-6.4557399e+95
-6.481974e+95
-6.5136119e+95
-6.543683e+95
-6.5194862e+95
-6.5497738e+95
-6.5854867e+95
-6.5909056e+95
-6.6210542e+95
-6.6269959e+95
-6.5960905e+95
-6.632587e+95
-6.6009626e+95
-6.6378684e+95
-6.6711482e+95
-6.7178751e+95
-6.7243689e+95
-6.6770194e+95
-6.6588899e+95
-6.6651706e+95
-6.7046744e+95
-6.7114145e+95
-5.7265285e+95
-5.7336837e+95
-5.5448569e+95
-5.5531258e+95
-5.7224331e+95
-5.7224638e+95
-5.5430408e+95
-5.5474753e+95
-5.3193866e+95
-5.3197603e+95
-6.122654e+95
-6.11563e+95
-6.1570402e+95
-6.1647241e+95
-6.1431573e+95
-6.1036322e+95
-6.1503209e+95
-6.1096134e+95
-6.1901133e+95
-6.1825579e+95
-6.2256065e+95
-6.2335397e+95
-6.2063721e+95
-6.1978514e+95
-6.2418077e+95
-6.2507966e+95
-6.0234581e+95
-6.0207055e+95
-6.0627509e+95
-6.0675044e+95
-5.9731893e+95
-5.9072533e+95
-5.9062969e+95
-5.9742478e+95
-5.9117744e+95
-5.9077591e+95
-5.9768637e+95
-5.9815443e+95
-6.0268097e+95
-6.0724592e+95
-6.0325118e+95
-6.0790998e+95
-6.0422609e+95
-6.037342e+95
-6.0840042e+95
-6.0889657e+95
-5.9141565e+95
-5.9851895e+95
-5.9159075e+95
-5.9893185e+95
-5.928172e+95
-5.9218099e+95
-5.9939091e+95
-5.998797e+95
-6.0509269e+95
-6.0459515e+95
-6.0934685e+95
-6.0985068e+95
-6.3551709e+95
-6.3777224e+95
-6.3603508e+95
-6.383069e+95
-6.4007929e+95
-6.4256674e+95
-6.4061488e+95
-6.4309986e+95
-6.4178813e+95
-6.4117687e+95
-6.4364629e+95
-6.4424181e+95
-6.3719405e+95
-6.3658901e+95
-6.3886984e+95
-6.3947342e+95
-6.3109368e+95
-6.3333719e+95
-6.3157089e+95
-6.3383014e+95
-6.2806863e+95
-6.2751058e+95
-6.2980691e+95
-6.3036632e+95
-6.2888139e+95
-6.2934566e+95
-6.2705668e+95
-6.2662959e+95
-6.3204463e+95
-6.3435064e+95
-6.3262655e+95
-6.3495379e+95
-6.2903581e+95
-6.2855042e+95
-6.3083806e+95
-6.3132294e+95
-6.3397983e+95
-6.3427122e+95
-6.3623908e+95
-6.3649904e+95
-6.3309315e+95
-6.3542073e+95
-6.3358022e+95
-6.3587977e+95
-6.317476e+95
-6.3207924e+95
-6.298357e+95
-6.2946313e+95
-6.376603e+95
-6.3994485e+95
-6.3810192e+95
-6.4038929e+95
-6.3842371e+95
-6.4071347e+95
-6.3868088e+95
-6.4097265e+95
-6.4271338e+95
-6.4226229e+95
-6.4473381e+95
-6.4520691e+95
-6.4305526e+95
-6.4557735e+95
-6.4333134e+95
-6.4587824e+95
-6.5456329e+95
-6.5485494e+95
-6.5779522e+95
-6.5812829e+95
-6.4857906e+95
-6.512824e+95
-6.4873866e+95
-6.514851e+95
-6.5430137e+95
-6.5406605e+95
-6.5722619e+95
-6.575008e+95
-6.4893655e+95
-6.5170992e+95
-6.4917911e+95
-6.519685e+95
-6.4941305e+95
-6.5221836e+95
-6.4968835e+95
-6.5252132e+95
-6.5512448e+95
-6.5842853e+95
-6.5543936e+95
-6.5876767e+95
-6.5577319e+95
-6.5912068e+95
-6.5611337e+95
-6.5947952e+95
-6.4999652e+95
-6.5031844e+95
-6.5316204e+95
-6.5284103e+95
-6.6043427e+95
-6.6075142e+95
-6.6454667e+95
-6.6416544e+95
-6.6812284e+95
-6.7289236e+95
-6.6854065e+95
-6.7335909e+95
-6.6107694e+95
-6.6491237e+95
-6.614423e+95
-6.6530985e+95
-6.6895499e+95
-6.7383308e+95
-6.6941101e+95
-6.7436395e+95
-6.625183e+95
-6.6649755e+95
-6.6177596e+95
-6.6567729e+95
-6.6214465e+95
-6.6609919e+95
-6.7481622e+95
-6.6981548e+95
-6.7026354e+95
-6.753037e+95
-6.7578373e+95
-6.7069535e+95
-6.7623881e+95
-5.5354863e+95
-5.8285232e+95
-5.8344104e+95
-5.7016727e+95
-5.7103448e+95
-6.1472292e+95
-6.129602e+95
-6.146308e+95
-6.1285718e+95
-6.1121628e+95
-6.0939455e+95
-6.1108191e+95
-6.0921391e+95
-6.0908627e+95
-6.091229e+95
-6.1098992e+95
-6.1098638e+95
-6.1278849e+95
-6.1275348e+95
-6.1456964e+95
-6.1466129e+95
-5.9791849e+95
-6.0207791e+95
-6.0179449e+95
-5.9740335e+95
-6.0728327e+95
-6.0492479e+95
-6.0468809e+95
-6.0705868e+95
-5.9710032e+95
-6.0157076e+95
-6.0156131e+95
-5.9710455e+95
-6.0695928e+95
-6.0453321e+95
-6.0452497e+95
-6.0692874e+95
-6.0461079e+95
-6.0158621e+95
-5.9710929e+95
-6.7583217e+95
-6.7618115e+95
-6.7653054e+95
-6.7693386e+95
-6.7827947e+95
-6.7796837e+95
-6.7763013e+95
-6.7726333e+95
-6.7478193e+95
-6.7441867e+95
-6.7513438e+95
-6.7552113e+95
-6.7319811e+95
-6.7347524e+95
-6.7376298e+95
-6.7410947e+95
-6.814864e+95
-6.81184e+95
-6.8093144e+95
-6.8069124e+95
-6.8173982e+95
-6.8197964e+95
-6.8219434e+95
-6.8241733e+95
-6.8044797e+95
-6.801452e+95
-6.7986258e+95
-6.7957624e+95
-6.7932319e+95
-6.7902174e+95
-6.7876479e+95
-6.7850816e+95
-6.5413427e+95
-6.3774594e+95
-6.6133818e+95
-6.584486e+95
-6.4229015e+95
-6.6610619e+95
-6.637664e+95
-6.6760825e+95
-6.8421077e+95
-6.8293554e+95
-6.7741606e+95
-6.7860725e+95
-6.6982189e+95
-6.8665643e+95
-6.8541986e+95
-6.8092018e+95
-6.7973671e+95
-6.8878884e+95
-6.8818395e+95
-6.891718e+95
-6.8977008e+95
-6.9245873e+95
-6.9182777e+95
-6.9003433e+95
-6.8938681e+95
-6.9306942e+95
-6.9037282e+95
-6.9100059e+95
-6.9368169e+95
-6.8630522e+95
-6.8568515e+95
-6.8731134e+95
-6.8667443e+95
-6.8990932e+95
-6.8923085e+95
-6.8758723e+95
-6.8692836e+95
-6.8793065e+95
-6.8856953e+95
-6.905618e+95
-6.9121108e+95
-6.9310944e+95
-6.9315643e+95
-6.9346131e+95
-6.9339921e+95
-6.9279671e+95
-6.9244196e+95
-6.9250645e+95
-6.9284699e+95
-6.9369126e+95
-6.9403837e+95
-6.9407774e+95
-6.9374943e+95
-6.9437381e+95
-6.9434049e+95
-6.9466124e+95
-6.9461385e+95
-6.8798147e+95
-6.9031179e+95
-6.9064598e+95
-6.8828681e+95
-6.8861013e+95
-6.9095087e+95
-6.9124172e+95
-6.8889136e+95
-6.9253019e+95
-6.9219834e+95
-6.9189751e+95
-6.915667e+95
-6.931431e+95
-6.9284074e+95
-6.925071e+95
-6.9220709e+95
-6.9342971e+95
-6.9374153e+95
-6.9279058e+95
-6.9309695e+95
-6.891525e+95
-6.9151974e+95
-6.9183878e+95
-6.8943827e+95
-6.9336442e+95
-6.9402586e+95
-6.9430749e+95
-6.9363032e+95
-6.9234516e+95
-6.9210093e+95
-6.897105e+95
-6.8994831e+95
-6.9052128e+95
-6.9057583e+95
-6.9091282e+95
-6.9083863e+95
-6.9018291e+95
-6.8980686e+95
-6.8986977e+95
-6.9023735e+95
-6.9152549e+95
-6.9115708e+95
-6.912283e+95
-6.9158228e+95
-6.9214114e+95
-6.9184717e+95
-6.9190012e+95
-6.9220849e+95
-6.8546006e+95
-6.8771648e+95
-6.8807004e+95
-6.857936e+95
-6.8613981e+95
-6.8841041e+95
-6.8874274e+95
-6.8645773e+95
-6.8993783e+95
-6.8956859e+95
-6.8930524e+95
-6.8894424e+95
-6.9062807e+95
-6.9028712e+95
-6.8999692e+95
-6.8965247e+95
-6.8677789e+95
-6.890668e+95
-6.8942065e+95
-6.8711859e+95
-6.8743779e+95
-6.8973297e+95
-6.9003392e+95
-6.8772641e+95
-6.9129396e+95
-6.9094786e+95
-6.9066243e+95
-6.9031685e+95
-6.9190437e+95
-6.9160388e+95
-6.9127993e+95
-6.9097559e+95
-6.6187937e+95
-6.6587173e+95
-6.6886652e+95
-6.6242551e+95
-6.7860934e+95
-6.7689266e+95
-6.7159006e+95
-6.732948e+95
-6.6526183e+95
-6.8163768e+95
-6.8012719e+95
-6.7475003e+95
-6.7619396e+95
-6.8033892e+95
-6.7949378e+95
-6.8134352e+95
-6.8047439e+95
-6.8298025e+95
-6.8385764e+95
-6.8203829e+95
-6.8117096e+95
-6.821693e+95
-6.830109e+95
-6.8469198e+95
-6.8552112e+95
-6.8505483e+95
-6.8429428e+95
-6.8603746e+95
-6.852949e+95
-6.8784121e+95
-6.885666e+95
-6.8354091e+95
-6.827797e+95
-6.837633e+95
-6.8454538e+95
-6.862946e+95
-6.8709044e+95
-6.8445706e+95
-6.8452072e+95
-6.8486237e+95
-6.8494092e+95
-6.840259e+95
-6.8356468e+95
-6.8364958e+95
-6.8409768e+95
-6.8570924e+95
-6.8525691e+95
-6.8532954e+95
-6.8576893e+95
-6.8616769e+95
-6.8611574e+95
-6.8648955e+95
-6.8655787e+95
-6.8335103e+95
-6.8379138e+95
-6.8324803e+95
-6.8280257e+95
-6.8212915e+95
-6.8170346e+95
-6.7965865e+95
-6.8000561e+95
-6.8289088e+95
-6.8251288e+95
-6.8038235e+95
-6.8073192e+95
-6.846424e+95
-6.8422108e+95
-6.8406016e+95
-6.8365087e+95
-6.83669e+95
-6.8325495e+95
-6.8108636e+95
-6.8148195e+95
-6.844295e+95
-6.8405322e+95
-6.8187438e+95
-6.8223413e+95
-6.8547149e+95
-6.8503581e+95
-6.8485968e+95
-6.8443402e+95
-6.8625352e+95
-6.8586747e+95
-6.8564159e+95
-6.8525119e+95
-6.8728497e+95
-6.8685607e+95
-6.8692239e+95
-6.8734454e+95
-6.8773065e+95
-6.8767395e+95
-6.8804235e+95
-6.8811508e+95
-6.8846646e+95
-6.883984e+95
-6.8886285e+95
-6.8880847e+95
-6.8916602e+95
-6.8948461e+95
-6.8921423e+95
-6.8954973e+95
-6.8705158e+95
-6.8662475e+95
-6.8599953e+95
-6.8641749e+95
-6.8519154e+95
-6.8477862e+95
-6.8256544e+95
-6.8296623e+95
-6.8337687e+95
-6.8558726e+95
-6.8597379e+95
-6.8375872e+95
-6.8783244e+95
-6.8744763e+95
-6.8720629e+95
-6.8681452e+95
-6.8412011e+95
-6.8633574e+95
-6.8673078e+95
-6.8450822e+95
-6.8484969e+95
-6.8707718e+95
-6.8741384e+95
-6.8516692e+95
-6.8857169e+95
-6.8818595e+95
-6.8794783e+95
-6.8756169e+95
-6.8924692e+95
-6.8891637e+95
-6.886345e+95
-6.8829575e+95
-5.0595949e+95
-6.7741992e+95
-6.7705784e+95
-6.7816467e+95
-6.7778494e+95
-6.7888638e+95
-6.7851863e+95
-6.7951544e+95
-6.7922045e+95
-6.7465668e+95
-6.7436246e+95
-6.7530491e+95
-6.7497182e+95
-6.7599555e+95
-6.7563348e+95
-6.7671712e+95
-6.7635213e+95
-6.8117022e+95
-6.8087908e+95
-6.8173321e+95
-6.8145137e+95
-6.8004469e+95
-6.797633e+95
-6.8060827e+95
-6.8032218e+95
-6.8330344e+95
-6.8306119e+95
-6.835272e+95
-6.8225752e+95
-6.819958e+95
-6.8280114e+95
-6.8251992e+95
-6.3976788e+95
-6.4087753e+95
-6.4100815e+95
-6.3988975e+95
-6.4015885e+95
-6.4001828e+95
-6.4114103e+95
-6.4128411e+95
-6.4330997e+95
-6.419958e+95
-6.4317249e+95
-6.4212909e+95
-6.4241428e+95
-6.4360335e+95
-6.4226479e+95
-6.4344936e+95
-6.4053643e+95
-6.3934065e+95
-6.4043995e+95
-6.3943302e+95
-6.4154596e+95
-6.4270575e+95
-6.427967e+95
-6.416391e+95
-6.4075883e+95
-6.3953058e+95
-6.4063661e+95
-6.3964856e+95
-6.4174784e+95
-6.4291099e+95
-6.4187479e+95
-6.4304576e+95
-6.4435652e+95
-6.4559647e+95
-6.4574424e+95
-6.4449814e+95
-6.481873e+95
-6.470031e+95
-6.4685495e+95
-6.4833778e+95
-6.4464336e+95
-6.4480052e+95
-6.4589494e+95
-6.4605111e+95
-6.484938e+95
-6.4731571e+95
-6.486518e+95
-6.4715587e+95
-6.4520567e+95
-6.438774e+95
-6.4510279e+95
-6.4397241e+95
-6.4766641e+95
-6.4634863e+95
-6.4645233e+95
-6.4777195e+95
-6.4422727e+95
-6.4546435e+95
-6.4408893e+95
-6.4532467e+95
-6.4789792e+95
-6.4657385e+95
-6.4671992e+95
-6.4804889e+95
-6.4501445e+95
-6.4162643e+95
-6.403979e+95
-6.4150644e+95
-6.4051942e+95
-6.4264437e+95
-6.4380653e+95
-6.4275959e+95
-6.4063051e+95
-6.4173962e+95
-6.4287857e+95
-6.3542945e+95
-6.3552735e+95
-6.3649372e+95
-6.3660006e+95
-6.3767945e+95
-6.3866507e+95
-6.3878124e+95
-6.3756816e+95
-6.3564645e+95
-6.3576233e+95
-6.3683847e+95
-6.3671805e+95
-6.3779752e+95
-6.379259e+95
-6.3890603e+95
-6.390427e+95
-6.3618677e+95
-6.350398e+95
-6.3609172e+95
-6.3512807e+95
-6.371592e+95
-6.3824723e+95
-6.3833656e+95
-6.372528e+95
-6.3639643e+95
-6.3523389e+95
-6.3628651e+95
-6.3533867e+95
-6.373475e+95
-6.3843341e+95
-6.3746015e+95
-6.3854734e+95
-6.3277401e+95
-6.3285601e+95
-6.3397461e+95
-6.340558e+95
-6.3416003e+95
-6.3426104e+95
-6.3295211e+95
-6.3304576e+95
-6.3116115e+95
-6.2896723e+95
-6.3133174e+95
-6.2913063e+95
-6.2705799e+95
-6.2721129e+95
-6.3313345e+95
-6.3321018e+95
-6.3435171e+95
-6.3443829e+95
-6.3455105e+95
-6.3466216e+95
-6.3330074e+95
-6.3340373e+95
-6.3162639e+95
-6.294573e+95
-6.3147582e+95
-6.2928127e+95
-6.2733951e+95
-6.2749168e+95
-6.2518603e+95
-6.2329658e+95
-6.2349051e+95
-6.2534752e+95
-6.2559911e+95
-6.2363072e+95
-6.2546946e+95
-6.2374338e+95
-6.3727971e+95
-6.3606619e+95
-6.3715144e+95
-6.3619179e+95
-6.3822434e+95
-6.3929639e+95
-6.3941795e+95
-6.3834747e+95
-6.3631903e+95
-6.3740089e+95
-6.3642694e+95
-6.3846144e+95
-6.3952836e+95
-6.335896e+95
-6.3371024e+95
-6.3492333e+95
-6.3504493e+95
-6.3517391e+95
-6.3527818e+95
-6.3382903e+95
-6.3392899e+95
-6.3232529e+95
-6.3141497e+95
-6.2999794e+95
-6.315229e+95
-6.3243881e+95
-6.2831618e+95
-6.2818201e+95
-6.30153e+95
-6.317201e+95
-6.3162539e+95
-6.3254786e+95
-6.3264695e+95
-6.3032952e+95
-6.2847777e+95
-6.2492869e+95
-6.2476815e+95
-6.2659523e+95
-6.2463246e+95
-6.2456644e+95
-6.2635266e+95
-6.2645565e+95
-6.4014807e+95
-6.3897665e+95
-6.4007516e+95
-6.3904733e+95
-6.3924806e+95
-6.3914024e+95
-6.4024051e+95
-6.4034724e+95
-6.4118036e+95
-6.4233911e+95
-6.4125137e+95
-6.4240695e+95
-6.4145263e+95
-6.4250149e+95
-6.4261373e+95
-6.4134305e+95
-6.3875459e+95
-6.398456e+95
-6.3879642e+95
-6.398917e+95
-6.4098877e+95
-6.4214156e+95
-6.4094371e+95
-6.4209703e+95
-6.400117e+95
-6.3884375e+95
-6.3994465e+95
-6.3890937e+95
-6.4104909e+95
-6.4220377e+95
-6.4227917e+95
-6.4111903e+95
-6.4325766e+95
-6.444669e+95
-6.4452176e+95
-6.4330668e+95
-6.4569146e+95
-6.469814e+95
-6.4703681e+95
-6.4574625e+95
-6.4336815e+95
-6.4344098e+95
-6.4458186e+95
-6.4464958e+95
-6.4580705e+95
-6.4587996e+95
-6.471008e+95
-6.4717986e+95
-6.4480174e+95
-6.435039e+95
-6.44719e+95
-6.4357666e+95
-6.4725654e+95
-6.4595278e+95
-6.4603784e+95
-6.4734467e+95
-6.45009e+95
-6.4367292e+95
-6.4489924e+95
-6.4378475e+95
-6.4745111e+95
-6.4613902e+95
-6.4625311e+95
-6.4756891e+95
-6.346612e+95
-6.3475025e+95
-6.3571593e+95
-6.3580149e+95
-6.3686577e+95
-6.3787956e+95
-6.3795157e+95
-6.36787e+95
-6.3485906e+95
-6.3496054e+95
-6.3600463e+95
-6.3590344e+95
-6.3696047e+95
-6.370648e+95
-6.3804635e+95
-6.3815476e+95
-6.3238851e+95
-6.3247988e+95
-6.3359581e+95
-6.3368116e+95
-6.3379182e+95
-6.3389458e+95
-6.3258942e+95
-6.3269066e+95
-6.3099266e+95
-6.287617e+95
-6.3077953e+95
-6.2849536e+95
-6.2653896e+95
-6.2682745e+95
-6.3212458e+95
-6.3216179e+95
-6.333718e+95
-6.3338997e+95
-6.334483e+95
-6.3351806e+95
-6.3223119e+95
-6.3230347e+95
-6.3060178e+95
-6.2826623e+95
-6.3044012e+95
-6.2807901e+95
-6.2608554e+95
-6.2629191e+95
-6.3552373e+95
-6.3444786e+95
-6.3550293e+95
-6.3446301e+95
-6.3657704e+95
-6.3766675e+95
-6.3769817e+95
-6.3660389e+95
-6.3563705e+95
-6.3451361e+95
-6.3556785e+95
-6.3458214e+95
-6.3664864e+95
-6.3774538e+95
-6.3671649e+95
-6.3781071e+95
-6.2414676e+95
-6.2219915e+95
-6.2241504e+95
-6.2435759e+95
-6.2460929e+95
-6.226731e+95
-6.2302356e+95
-6.2493177e+95
-6.1567285e+95
-6.1528717e+95
-6.1709147e+95
-6.1746616e+95
-6.1503476e+95
-6.1482973e+95
-6.1661738e+95
-6.1683547e+95
-6.2027796e+95
-6.1839362e+95
-6.1861048e+95
-6.2048991e+95
-6.1923702e+95
-6.188662e+95
-6.2074557e+95
-6.211164e+95
-6.1621233e+95
-6.1596811e+95
-6.1776247e+95
-6.1800459e+95
-6.2141002e+95
-6.1953759e+95
-6.1978233e+95
-6.2163063e+95
-6.2180476e+95
-6.1997377e+95
-6.2190088e+95
-6.2006275e+95
-6.1818273e+95
-6.1639593e+95
-6.1653484e+95
-6.1829899e+95
-6.1944361e+95
-6.1788545e+95
-6.1779028e+95
-6.1937409e+95
-6.1791077e+95
-6.178475e+95
-6.1946205e+95
-6.1955122e+95
-6.2105737e+95
-6.2107652e+95
-6.2278848e+95
-6.2281464e+95
-6.2293885e+95
-6.2116372e+95
-6.2127491e+95
-6.2307283e+95
-5.7169115e+95
-5.5462735e+95
-5.5374586e+95
-5.3233601e+95
-6.0986176e+95
-6.0903296e+95
-6.1282537e+95
-6.1368607e+95
-6.0821472e+95
-6.2089417e+95
-6.1667413e+95
-6.2187762e+95
-6.1759826e+95
-6.0001519e+95
-6.0423424e+95
-5.8869987e+95
-5.9524297e+95
-5.9034809e+95
-5.8945345e+95
-5.959828e+95
-5.9682232e+95
-6.0501509e+95
-6.007324e+95
-6.0582164e+95
-6.0155018e+95
-6.2745276e+95
-6.2526921e+95
-6.2793241e+95
-6.2845357e+95
-6.2623703e+95
-6.2575511e+95
-6.3004809e+95
-6.3224403e+95
-6.3061683e+95
-6.3285105e+95
-6.3441244e+95
-6.366769e+95
-6.3503151e+95
-6.3729637e+95
-6.3960978e+95
-6.4209383e+95
-6.4454193e+95
-6.4716398e+95
-6.6334782e+95
-6.656281e+95
-6.6589994e+95
-6.636065e+95
-6.641503e+95
-6.6385778e+95
-6.6614731e+95
-6.6643699e+95
-6.7087195e+95
-6.6794255e+95
-6.7061423e+95
-6.6820189e+95
-6.6876507e+95
-6.7147036e+95
-6.6845657e+95
-6.7114122e+95
-6.5698041e+95
-6.5870688e+95
-6.5900742e+95
-6.5727277e+95
-6.5788126e+95
-6.5756562e+95
-6.5929643e+95
-6.5960215e+95
-6.6273411e+95
-6.6043721e+95
-6.6243384e+95
-6.6073323e+95
-6.6133925e+95
-6.6335206e+95
-6.6101981e+95
-6.6302693e+95
-6.5795216e+95
-6.5596522e+95
-6.5768429e+95
-6.5622381e+95
-6.5940297e+95
-6.6138191e+95
-6.6163275e+95
-6.5966048e+95
-6.5846001e+95
-6.5646103e+95
-6.5818644e+95
-6.5673417e+95
-6.5990396e+95
-6.6188531e+95
-6.6018422e+95
-6.6217299e+95
-6.6441111e+95
-6.6670658e+95
-6.6702978e+95
-6.647146e+95
-6.6905059e+95
-6.7176895e+95
-6.7211447e+95
-6.6938098e+95
-6.6501692e+95
-6.6535018e+95
-6.6734609e+95
-6.6768242e+95
-6.6970796e+95
-6.7006703e+95
-6.7245528e+95
-6.728334e+95
-6.5378503e+95
-6.5205625e+95
-6.5351142e+95
-6.5232634e+95
-6.5496732e+95
-6.5656686e+95
-6.5682252e+95
-6.5522937e+95
-6.5283803e+95
-6.5429189e+95
-6.5257691e+95
-6.5403026e+95
-6.5547641e+95
-6.570777e+95
-6.5574812e+95
-6.5735913e+95
-6.4776354e+95
-6.4904318e+95
-6.4920746e+95
-6.4791606e+95
-6.4817236e+95
-6.480508e+95
-6.4934799e+95
-6.4947397e+95
-6.5185603e+95
-6.5031077e+95
-6.516772e+95
-6.50481e+95
-6.5076686e+95
-6.5216139e+95
-6.5062739e+95
-6.5201062e+95
-6.4838992e+95
-6.4685237e+95
-6.4811657e+95
-6.4712073e+95
-6.4936807e+95
-6.5071259e+95
-6.5097746e+95
-6.4963469e+95
-6.4886543e+95
-6.4735522e+95
-6.4862371e+95
-6.4759297e+95
-6.4987927e+95
-6.5122966e+95
-6.5012759e+95
-6.5148719e+95
-6.530322e+95
-6.544975e+95
-6.5470383e+95
-6.5321984e+95
-6.5759382e+95
-6.5618794e+95
-6.559702e+95
-6.5782735e+95
-6.5338641e+95
-6.5354716e+95
-6.5488509e+95
-6.5505472e+95
-6.5803831e+95
-6.5656936e+95
-6.5824054e+95
-6.5638262e+95
-6.4987595e+95
-6.5014737e+95
-6.5160655e+95
-6.5133264e+95
-6.5068292e+95
-6.5212188e+95
-6.5040539e+95
-6.5185618e+95
-6.527914e+95
-6.5439739e+95
-6.5465384e+95
-6.530558e+95
-6.5329724e+95
-6.5356686e+95
-6.5489386e+95
-6.5516401e+95
-6.4727583e+95
-6.4572935e+95
-6.4699146e+95
-6.4601949e+95
-6.4823929e+95
-6.4958232e+95
-6.4985753e+95
-6.4851759e+95
-6.4630215e+95
-6.4659909e+95
-6.4755604e+95
-6.4785844e+95
-6.4879168e+95
-6.4910461e+95
-6.5013285e+95
-6.5044915e+95
-6.4489174e+95
-6.4462271e+95
-6.4589924e+95
-6.4616847e+95
-6.4743265e+95
-6.4716447e+95
-6.4852384e+95
-6.4879066e+95
-6.467397e+95
-6.4516025e+95
-6.4643453e+95
-6.4546838e+95
-6.4905449e+95
-6.476991e+95
-6.4799466e+95
-6.4934154e+95
-6.5264525e+95
-6.5091945e+95
-6.5236083e+95
-6.5119459e+95
-6.5541248e+95
-6.5381313e+95
-6.5409921e+95
-6.5570182e+95
-6.5179263e+95
-6.5324932e+95
-6.5147429e+95
-6.5293191e+95
-6.5599678e+95
-6.5438818e+95
-6.5471038e+95
-6.5631684e+95
-6.5812774e+95
-6.59854e+95
-6.6013025e+95
-6.5838794e+95
-6.5864807e+95
-6.5893983e+95
-6.6039955e+95
-6.6069759e+95
-6.6390709e+95
-6.6159871e+95
-6.636174e+95
-6.6188016e+95
-6.6247317e+95
-6.6452932e+95
-6.6215714e+95
-6.6419697e+95
-6.5918184e+95
-6.6094937e+95
-6.6121894e+95
-6.5942996e+95
-6.6509173e+95
-6.6273594e+95
-6.648046e+95
-6.6301197e+95
-6.6167472e+95
-6.5965243e+95
-6.6145233e+95
-6.5986764e+95
-6.632551e+95
-6.6534909e+95
-6.656039e+95
-6.634948e+95
-6.668527e+95
-6.6924364e+95
-6.6956927e+95
-6.6715199e+95
-6.7451087e+95
-6.7201633e+95
-6.7168418e+95
-6.7485738e+95
-6.7517506e+95
-6.7231424e+95
-6.7261119e+95
-6.7549145e+95
-6.6742219e+95
-6.6768893e+95
-6.6985206e+95
-6.7012435e+95
-6.6562406e+95
-6.6796589e+95
-6.6828728e+95
-6.6592381e+95
-6.6622433e+95
-6.6859976e+95
-6.6656789e+95
-6.6894838e+95
-6.7313216e+95
-6.7346421e+95
-6.7035964e+95
-6.7068411e+95
-6.7137636e+95
-6.7100593e+95
-6.7379825e+95
-6.7419091e+95
-5.8212019e+95
-5.6963071e+95
-5.6946484e+95
-5.8217128e+95
-5.8271871e+95
-5.8344486e+95
-5.7091957e+95
-5.698893e+95
-5.5246868e+95
-5.5331033e+95
-5.8189362e+95
-5.8155433e+95
-5.6987231e+95
-5.6918156e+95
-5.8156586e+95
-5.8189178e+95
-5.6901726e+95
-5.6946344e+95
-5.523322e+95
-5.528841e+95
-5.2990296e+95
-5.2995942e+95
-6.1460048e+95
-6.1421672e+95
-6.1638176e+95
-6.1598388e+95
-6.1388229e+95
-6.1350823e+95
-6.1524e+95
-6.1564251e+95
-6.1738194e+95
-6.1696181e+95
-6.1877058e+95
-6.1921847e+95
-6.1961087e+95
-6.1774975e+95
-6.1815257e+95
-6.200297e+95
-6.1709615e+95
-6.1537595e+95
-6.1571176e+95
-6.1744569e+95
-6.1373854e+95
-6.1211955e+95
-6.1236346e+95
-6.1403846e+95
-6.1783648e+95
-6.1608818e+95
-6.1656321e+95
-6.1833599e+95
-6.1438778e+95
-6.1268232e+95
-6.1314814e+95
-6.1486741e+95
-6.2014273e+95
-6.1961982e+95
-6.2203528e+95
-6.2148966e+95
-6.192232e+95
-6.1886166e+95
-6.2071451e+95
-6.2108356e+95
-6.230124e+95
-6.2263463e+95
-6.2464645e+95
-6.2504198e+95
-6.2547908e+95
-6.2342929e+95
-6.2398496e+95
-6.260402e+95
-6.2193083e+95
-6.2151149e+95
-6.2345272e+95
-6.2387318e+95
-6.2109463e+95
-6.2061697e+95
-6.2252528e+95
-6.230256e+95
-6.265254e+95
-6.244751e+95
-6.2497681e+95
-6.2701656e+95