/*--------------------------------*- C++ -*----------------------------------*\
  =========                 |
  \\      /  F ield         | OpenFOAM: The Open Source CFD Toolbox
   \\    /   O peration     | Website:  https://openfoam.org
    \\  /    A nd           | Version:  7
     \\/     M anipulation  |
\*---------------------------------------------------------------------------*/
FoamFile
{
    version     2.0;
    format      ascii;
    class       volScalarField;
    location    "3000";
    object      pMean;
}
// * * * * * * * * * * * * * * * * * * * * * * * * * * * * * * * * * * * * * //

dimensions      [0 2 -2 0 0 0 0];

internalField   nonuniform List<scalar> 
34124
(
-2.1557894e+37
-2.0793938e+37
-2.2687572e+37
-2.108842e+37
-1.9393177e+37
-2.1404091e+37
-2.0814152e+37
-2.1056628e+37
-2.1357122e+37
-1.8977521e+37
-1.8614859e+37
-1.9368125e+37
-1.9409565e+37
-2.0593998e+37
-2.1145318e+37
-2.0032062e+37
-1.8803495e+37
-2.0558556e+37
-2.0122975e+37
-1.7977484e+37
-1.849193e+37
-1.8566796e+37
-1.8739097e+37
-1.8982127e+37
-1.9645063e+37
-1.9275832e+37
-2.0522545e+37
-2.0618675e+37
-2.0373153e+37
-1.9872414e+37
-1.8961707e+37
-1.8991608e+37
-2.0059032e+37
-1.7152158e+37
-1.6425403e+37
-1.85764e+37
-1.8656636e+37
-1.8690809e+37
-1.8554615e+37
-1.8703073e+37
-1.8834293e+37
-1.9205714e+37
-1.928727e+37
-1.9407736e+37
-1.9814834e+37
-2.0213635e+37
-1.9905076e+37
-2.0261137e+37
-1.9555362e+37
-1.7704261e+37
-1.9614484e+37
-1.8689995e+37
-2.5473888e+37
-1.9120901e+37
-1.6801469e+37
-1.872643e+37
-1.8636563e+37
-1.9072461e+37
-1.8666511e+37
-1.8741196e+37
-1.86874e+37
-1.8849393e+37
-1.828505e+37
-1.8686271e+37
-1.8844045e+37
-1.9094874e+37
-1.935055e+37
-1.9153311e+37
-1.92459e+37
-1.9310802e+37
-1.7351143e+37
-1.9947255e+37
-1.9080958e+37
-2.4932091e+37
-2.0597307e+37
-1.7618092e+37
-1.8491533e+37
-1.8697042e+37
-1.8570404e+37
-2.2984485e+37
-2.1546631e+37
-1.6055915e+37
-1.8016541e+37
-1.4703569e+37
-1.8848053e+37
-1.9076527e+37
-1.8617431e+37
-1.7662012e+37
-1.8483159e+37
-1.8766448e+37
-1.8513416e+37
-1.8719362e+37
-1.8787875e+37
-1.9100694e+37
-1.9024803e+37
-1.8323116e+37
-1.8841747e+37
-1.9152529e+37
-1.9586594e+37
-1.9240456e+37
-1.8780115e+37
-2.1829694e+37
-1.9519899e+37
-1.7379316e+37
-1.6718132e+37
-2.0102025e+37
-1.9255164e+37
-2.2261314e+37
-2.2541228e+37
-1.8058812e+37
-1.7764695e+37
-1.79643e+37
-1.1033885e+37
-1.9358822e+37
-2.1933927e+37
-2.2676593e+37
-3.8272452e+37
-1.6435117e+37
-1.5488436e+37
-1.4987987e+37
-1.8601818e+37
-1.9063746e+37
-1.8626847e+37
-1.7749991e+37
-1.8573119e+37
-1.8712974e+37
-1.8353139e+37
-1.7419362e+37
-1.8227787e+37
-1.9050876e+37
-1.9158841e+37
-1.8381512e+37
-1.8775845e+37
-1.9133243e+37
-1.9591048e+37
-2.0372827e+37
-1.8783846e+37
-1.8803201e+37
-1.915732e+37
-1.9601726e+37
-2.0382211e+37
-1.9818634e+37
-1.9086487e+37
-2.1513814e+37
-2.2547565e+37
-1.7091925e+37
-1.6664395e+37
-1.830995e+37
-1.5136585e+37
-2.0640117e+37
-2.4251418e+37
-2.390179e+37
-3.0118614e+37
-1.7207067e+37
-1.8596826e+37
-1.7171451e+37
-1.882067e+37
-1.0502094e+37
-2.0395075e+37
-2.2314792e+37
-3.7948973e+37
-2.2838088e+37
-1.6373178e+37
-1.7135369e+37
-1.7719019e+37
-1.9028405e+37
-1.924172e+37
-1.8315921e+37
-1.7597618e+37
-1.8425888e+37
-1.8595094e+37
-1.8569597e+37
-1.748502e+37
-1.8224442e+37
-1.909151e+37
-1.8038186e+37
-1.8922017e+37
-1.8396931e+37
-1.8835314e+37
-1.9579837e+37
-2.064384e+37
-1.9000068e+37
-1.88129e+37
-1.91731e+37
-1.9611244e+37
-2.0366074e+37
-2.2385223e+37
-1.986684e+37
-1.9012385e+37
-1.9319485e+37
-1.9582131e+37
-2.0402125e+37
-2.2112498e+37
-1.6524711e+37
-1.9737967e+37
-2.3287995e+37
-2.3483468e+37
-2.4034641e+37
-1.6786419e+37
-1.904682e+37
-1.7837946e+37
-1.8501229e+37
-1.5432659e+37
-2.3301272e+37
-2.4667812e+37
-3.1266982e+37
-2.4034547e+37
-1.8274593e+37
-1.8110149e+37
-2.6135001e+37
-2.0513299e+37
-1.83132e+37
-1.3707505e+37
-2.6028198e+37
-3.1092946e+37
-2.33057e+37
-2.0871509e+37
-1.6116653e+37
-1.5877625e+37
-2.1790247e+37
-1.8200675e+37
-1.8052236e+37
-1.8884284e+37
-2.1293786e+37
-1.90472e+37
-1.869722e+37
-1.8679558e+37
-1.7589825e+37
-1.8044191e+37
-1.9123543e+37
-1.8056785e+37
-1.9070003e+37
-1.8920527e+37
-1.8812357e+37
-1.9614561e+37
-1.8493431e+37
-1.821044e+37
-1.9304317e+37
-1.8810015e+37
-1.9515685e+37
-2.0336122e+37
-2.2634497e+37
-2.0049326e+37
-1.9127644e+37
-1.9434185e+37
-1.9613613e+37
-2.0405002e+37
-2.2033237e+37
-2.1480306e+37
-2.0793161e+37
-1.9921198e+37
-1.9563857e+37
-1.9628632e+37
-2.0413461e+37
-2.2077265e+37
-2.3021505e+37
-1.7866549e+37
-1.73484e+37
-2.2298392e+37
-2.4204797e+37
-2.5112555e+37
-2.2512302e+37
-1.9033045e+37
-1.8772436e+37
-2.3714657e+37
-2.1226606e+37
-1.9020398e+37
-1.8046121e+37
-2.8633768e+37
-2.8600988e+37
-2.4551257e+37
-2.037694e+37
-1.89338e+37
-2.7995863e+37
-2.4694228e+37
-2.0224666e+37
-1.536434e+37
-2.1196433e+37
-1.701704e+37
-2.4246113e+37
-2.4951553e+37
-2.2381189e+37
-2.3345888e+37
-1.8948843e+37
-2.3435748e+37
-2.8641181e+37
-1.8533111e+37
-1.868465e+37
-1.8422578e+37
-1.8594234e+37
-1.8054793e+37
-2.0203559e+37
-2.2800028e+37
-2.0269489e+37
-1.9174055e+37
-1.9355679e+37
-1.8016305e+37
-1.9366772e+37
-1.9116767e+37
-1.8811666e+37
-1.9658153e+37
-1.8599773e+37
-1.8337637e+37
-1.9311556e+37
-1.9130806e+37
-1.9581364e+37
-2.040526e+37
-1.8394576e+37
-1.9100354e+37
-1.8837411e+37
-1.9815505e+37
-2.0506748e+37
-2.0450535e+37
-2.1851934e+37
-2.1519579e+37
-2.1074737e+37
-2.0055796e+37
-1.9660817e+37
-1.9742282e+37
-2.0442162e+37
-2.2002882e+37
-2.3077735e+37
-2.0168693e+37
-2.038752e+37
-2.1860407e+37
-2.0178776e+37
-1.9949763e+37
-2.0412587e+37
-2.1979507e+37
-2.3021671e+37
-2.2219607e+37
-1.9861047e+37
-1.9167506e+37
-1.937309e+37
-2.5287857e+37
-2.3620068e+37
-2.342469e+37
-2.0081301e+37
-1.9945593e+37
-2.3543819e+37
-2.3129182e+37
-2.0477246e+37
-1.8704448e+37
-2.2000526e+37
-2.8256958e+37
-2.4416117e+37
-2.4548109e+37
-2.1363495e+37
-2.6724456e+37
-2.2086119e+37
-2.4657018e+37
-2.7811706e+37
-1.9736701e+37
-2.5457143e+37
-1.873075e+37
-2.1101565e+37
-2.5018335e+37
-2.2944292e+37
-2.2110388e+37
-2.2725217e+37
-2.6318049e+37
-2.1902557e+37
-3.0266324e+37
-1.984142e+37
-1.8856745e+37
-1.9225684e+37
-1.894483e+37
-1.9194176e+37
-1.9776162e+37
-1.9127807e+37
-1.960826e+37
-1.9005208e+37
-1.8886247e+37
-2.1585423e+37
-2.134923e+37
-2.0606565e+37
-2.0165675e+37
-1.9788248e+37
-1.9790898e+37
-1.8713504e+37
-1.8319157e+37
-1.9503444e+37
-1.9443461e+37
-1.9702844e+37
-2.0465408e+37
-1.8426007e+37
-1.9185972e+37
-1.8820817e+37
-1.9876355e+37
-2.0448376e+37
-2.0610505e+37
-2.1834887e+37
-1.9042264e+37
-1.915299e+37
-1.9618389e+37
-1.9447534e+37
-2.0576192e+37
-2.1597576e+37
-2.1643152e+37
-2.3140426e+37
-2.0180646e+37
-2.0349664e+37
-2.2203527e+37
-2.0272303e+37
-2.002395e+37
-2.042367e+37
-2.1921279e+37
-2.30658e+37
-2.2308507e+37
-2.0087943e+37
-2.184586e+37
-1.997671e+37
-2.1776527e+37
-2.0105604e+37
-2.0432517e+37
-2.1697054e+37
-2.3011043e+37
-2.2347349e+37
-2.1206471e+37
-1.9226322e+37
-1.8847875e+37
-2.091996e+37
-2.732181e+37
-2.2703691e+37
-2.3121122e+37
-2.0636458e+37
-2.4406399e+37
-2.2279335e+37
-2.2212141e+37
-2.4719157e+37
-2.1227579e+37
-2.6381969e+37
-1.9995434e+37
-2.220039e+37
-2.5049677e+37
-2.3003126e+37
-2.1243899e+37
-2.3955878e+37
-2.593636e+37
-2.2649043e+37
-2.8951385e+37
-2.1865974e+37
-2.1726791e+37
-2.1198649e+37
-2.3019498e+37
-1.8618749e+37
-2.4361635e+37
-2.120986e+37
-2.1111452e+37
-2.3406147e+37
-2.5807887e+37
-2.6435684e+37
-2.8810852e+37
-2.4009472e+37
-2.3067763e+37
-1.9358166e+37
-1.8905277e+37
-1.8977485e+37
-2.0224935e+37
-1.9468671e+37
-1.8500498e+37
-1.9089678e+37
-1.9925337e+37
-2.0162792e+37
-1.9553579e+37
-1.9842294e+37
-1.9888073e+37
-1.9778185e+37
-1.9894031e+37
-2.1197276e+37
-2.0231297e+37
-2.0209563e+37
-2.2199767e+37
-2.0381803e+37
-2.0150224e+37
-2.0539399e+37
-1.8515426e+37
-1.9294745e+37
-1.8918374e+37
-1.9916521e+37
-2.0380691e+37
-2.0736109e+37
-2.1711043e+37
-1.910948e+37
-1.9230084e+37
-1.9654928e+37
-1.961169e+37
-2.0617974e+37
-2.1435904e+37
-2.1735238e+37
-2.3054083e+37
-1.9713671e+37
-1.9853971e+37
-1.9314371e+37
-2.0591211e+37
-2.184386e+37
-2.2928712e+37
-2.3998538e+37
-2.2512798e+37
-2.2438624e+37
-2.0218267e+37
-2.203372e+37
-1.9994493e+37
-2.1838509e+37
-2.0136482e+37
-2.0391148e+37
-2.1599448e+37
-2.299027e+37
-2.2445527e+37
-2.1231157e+37
-2.1374868e+37
-2.0376173e+37
-2.1736197e+37
-2.0047312e+37
-2.3064047e+37
-2.0405394e+37
-2.1801968e+37
-2.2877952e+37
-2.2570057e+37
-2.1254716e+37
-2.0795843e+37
-2.0266432e+37
-2.2341759e+37
-1.9072412e+37
-2.1887501e+37
-2.2032011e+37
-2.2465067e+37
-2.0800435e+37
-2.4013409e+37
-2.3134987e+37
-2.1440679e+37
-2.508206e+37
-2.4050651e+37
-2.2987811e+37
-2.107326e+37
-2.407861e+37
-2.1815153e+37
-2.5351357e+37
-2.298033e+37
-2.2378876e+37
-2.3833748e+37
-2.5669672e+37
-2.8798547e+37
-2.8134783e+37
-2.4969067e+37
-2.6479391e+37
-2.7310675e+37
-2.6844038e+37
-2.4224115e+37
-2.8148509e+37
-2.2721127e+37
-3.1765592e+37
-2.463027e+37
-2.1926907e+37
-2.4935299e+37
-2.7227545e+37
-3.4695747e+37
-2.5302858e+37
-2.4203988e+37
-2.2542706e+37
-1.8984354e+37
-1.9483778e+37
-1.9845771e+37
-1.9458848e+37
-1.8847778e+37
-1.8736101e+37
-1.9296092e+37
-1.8709683e+37
-2.0197702e+37
-1.949102e+37
-1.8939143e+37
-1.9616659e+37
-1.9824633e+37
-2.0011093e+37
-2.1497145e+37
-2.0852769e+37
-1.9543821e+37
-2.0041198e+37
-2.0216654e+37
-2.1072839e+37
-2.2518741e+37
-2.0449702e+37
-2.2165924e+37
-2.0034344e+37
-2.2299315e+37
-2.0159493e+37
-2.0421387e+37
-2.1715465e+37
-1.9305187e+37
-1.9450146e+37
-1.9719647e+37
-1.9702535e+37
-2.052007e+37
-2.1306449e+37
-2.1700372e+37
-2.2801465e+37
-1.9810739e+37
-1.9912666e+37
-1.9337636e+37
-2.0636987e+37
-2.1545096e+37
-2.2816568e+37
-2.3892063e+37
-2.2355811e+37
-2.2548833e+37
-2.0136512e+37
-1.9904387e+37
-2.0818115e+37
-1.9677483e+37
-2.2664485e+37
-2.1192757e+37
-2.2861122e+37
-2.1268676e+37
-2.1521021e+37
-2.0491904e+37
-2.1983883e+37
-2.0113665e+37
-2.3364388e+37
-2.0352866e+37
-2.1784833e+37
-2.2723559e+37
-2.2672336e+37
-2.1291741e+37
-2.0786793e+37
-2.1111366e+37
-2.1485998e+37
-2.063166e+37
-2.1810256e+37
-2.070378e+37
-2.1965738e+37
-2.2986973e+37
-2.2966455e+37
-2.1325875e+37
-2.0795511e+37
-2.0720256e+37
-2.2033304e+37
-1.8641829e+37
-2.2925894e+37
-2.1031609e+37
-2.4618976e+37
-2.2933379e+37
-2.311507e+37
-2.3786663e+37
-2.3248845e+37
-2.6314566e+37
-2.4899715e+37
-2.4682032e+37
-2.5676752e+37
-2.6308773e+37
-2.684113e+37
-2.3638752e+37
-2.8337862e+37
-2.3028906e+37
-3.2072645e+37
-2.945087e+37
-2.4862193e+37
-2.6487421e+37
-2.8393654e+37
-3.4127702e+37
-2.6380815e+37
-2.6652772e+37
-2.6438969e+37
-2.5546689e+37
-3.4664369e+37
-3.8925608e+37
-2.3763811e+37
-3.3613919e+37
-2.4218417e+37
-2.4936239e+37
-2.41626e+37
-1.9204405e+37
-2.408464e+37
-3.2190434e+37
-7.7579026e+37
-2.6206381e+37
-2.2174556e+37
-2.4147132e+37
-1.9591133e+37
-2.0181819e+37
-1.9707908e+37
-1.9428584e+37
-1.9647942e+37
-2.0130257e+37
-1.9317308e+37
-2.0318581e+37
-1.934242e+37
-1.9211292e+37
-1.9640933e+37
-2.1777654e+37
-1.8975717e+37
-2.025603e+37
-2.1596841e+37
-1.9678072e+37
-2.0873674e+37
-1.9825398e+37
-1.9626742e+37
-2.0541642e+37
-2.2738387e+37
-2.1034379e+37
-2.2493636e+37
-1.9891889e+37
-1.9959139e+37
-2.0714085e+37
-2.2027547e+37
-2.3565356e+37
-2.1711926e+37
-2.0645637e+37
-2.2243664e+37
-2.0277746e+37
-2.3604464e+37
-2.3224488e+37
-2.0323565e+37
-2.184703e+37
-2.2411782e+37
-2.1886697e+37
-1.9923397e+37
-2.0083591e+37
-1.943402e+37
-2.0689134e+37
-2.1211283e+37
-2.252702e+37
-2.3638224e+37
-2.2359788e+37
-2.2094926e+37
-2.1858248e+37
-2.2654692e+37
-2.0262865e+37
-1.9955388e+37
-2.0893832e+37
-1.968605e+37
-2.2584228e+37
-2.1168021e+37
-2.2889688e+37
-2.1348182e+37
-2.0287972e+37
-2.0930985e+37
-2.0169275e+37
-2.2427628e+37
-2.0382594e+37
-2.2821442e+37
-2.0969207e+37
-2.1511026e+37
-2.0785e+37
-2.1184869e+37
-2.1642148e+37
-2.074606e+37
-2.1870561e+37
-2.0762204e+37
-2.1931024e+37
-2.2946587e+37
-2.2950566e+37
-2.1388578e+37
-2.0789099e+37
-2.0713665e+37
-2.1632938e+37
-2.1287997e+37
-2.1832106e+37
-2.1276147e+37
-2.2992456e+37
-2.2015666e+37
-2.2984401e+37
-2.155529e+37
-2.077926e+37
-2.0717485e+37
-2.0716817e+37
-2.348173e+37
-2.4271181e+37
-1.971289e+37
-2.6709504e+37
-2.0949639e+37
-2.7009057e+37
-2.5436805e+37
-2.3901332e+37
-2.4038947e+37
-2.4274668e+37
-2.3625666e+37
-2.5923787e+37
-2.7196072e+37
-2.4174241e+37
-2.5666993e+37
-2.4285249e+37
-2.6054283e+37
-3.247595e+37
-4.8713806e+37
-2.382597e+37
-3.6920731e+37
-2.4518412e+37
-2.6455863e+37
-2.9287275e+37
-2.396588e+37
-2.7871941e+37
-3.2628489e+37
-6.4792448e+37
-2.9307114e+37
-2.6597573e+37
-2.5688468e+37
-3.0418783e+37
-3.9294553e+37
-3.3158475e+37
-2.5946242e+37
-1.7336944e+37
-2.6039595e+37
-2.4337231e+37
-2.0733042e+37
-2.8711313e+37
-7.0493984e+37
-4.7394317e+37
-2.3132205e+37
-2.1808526e+37
-1.0230184e+37
-2.0526442e+37
-1.9779596e+37
-2.0127435e+37
-2.0850585e+37
-2.0261884e+37
-2.0307775e+37
-2.0155388e+37
-2.0069152e+37
-1.9874519e+37
-2.0826787e+37
-1.9434857e+37
-2.0064254e+37
-2.0471891e+37
-2.0578598e+37
-2.1170867e+37
-1.8364229e+37
-1.8936113e+37
-2.2392652e+37
-2.3102332e+37
-2.0823696e+37
-2.1433045e+37
-2.3191417e+37
-2.0417683e+37
-2.1072625e+37
-2.1132049e+37
-2.0046117e+37
-2.1331471e+37
-2.2167613e+37
-2.2380686e+37
-2.1059933e+37
-2.2082846e+37
-2.2587957e+37
-2.067656e+37
-2.0579232e+37
-2.2309047e+37
-2.2128119e+37
-2.2128315e+37
-2.4077746e+37
-2.5365642e+37
-2.1389731e+37
-2.1857244e+37
-2.097889e+37
-2.2024835e+37
-2.0974588e+37
-2.3958258e+37
-2.1962741e+37
-2.2778176e+37
-2.2660207e+37
-2.2111717e+37
-2.0427868e+37
-2.009769e+37
-2.1122017e+37
-1.9889192e+37
-2.2458177e+37
-2.080385e+37
-2.2777362e+37
-2.3817271e+37
-2.2100266e+37
-2.154761e+37
-2.0411781e+37
-2.1059645e+37
-2.0369094e+37
-2.2420232e+37
-2.043511e+37
-2.2807839e+37
-2.0930868e+37
-2.1595589e+37
-2.0794648e+37
-2.0982523e+37
-2.0615337e+37
-2.2340641e+37
-2.0289789e+37
-2.2728565e+37
-2.0000297e+37
-2.0818744e+37
-2.0831893e+37
-2.1607972e+37
-2.0702436e+37
-2.1716969e+37
-2.1440425e+37
-2.1904978e+37
-2.1381599e+37
-2.290548e+37
-2.2052668e+37
-2.2938692e+37
-2.1619411e+37
-2.0779202e+37
-2.0711008e+37
-2.0713399e+37
-2.197059e+37
-2.1938426e+37
-2.1705751e+37
-2.229422e+37
-2.3990618e+37
-2.1807685e+37
-2.2711779e+37
-2.1662081e+37
-2.0694279e+37
-2.0709104e+37
-2.0715029e+37
-2.069201e+37
-2.3776077e+37
-2.5371599e+37
-3.6013349e+37
-2.1727467e+37
-3.0902177e+37
-2.0743399e+37
-2.3882751e+37
-2.4302827e+37
-2.4716526e+37
-2.3071168e+37
-2.3950152e+37
-2.5673983e+37
-2.7193227e+37
-3.5839069e+37
-2.4974197e+37
-2.421244e+37
-2.1233432e+37
-3.1938959e+37
-4.1503896e+37
-3.2780335e+37
-3.0524473e+37
-2.1866849e+37
-2.6769722e+37
-2.6771714e+37
-2.5409014e+37
-2.9995636e+37
-5.9020161e+37
-4.2103051e+37
-2.5578466e+37
-2.402587e+37
-1.3832103e+37
-2.1797313e+37
-2.3789434e+37
-3.6786845e+37
-2.6192053e+37
-2.660698e+37
-2.0931734e+37
-4.4995208e+37
-3.1829957e+37
-3.037723e+37
-3.9823154e+37
-4.4646618e+37
-8.1948918e+37
-1.7415343e+37
-1.2024735e+37
-7.9201536e+36
-2.1175081e+37
-2.054446e+37
-2.0534692e+37
-2.0418239e+37
-2.0759974e+37
-2.1330681e+37
-2.0419676e+37
-2.0677605e+37
-2.1228146e+37
-2.0903582e+37
-2.1198396e+37
-2.0534247e+37
-2.2230864e+37
-1.9823658e+37
-2.0762323e+37
-2.1021234e+37
-2.0308079e+37
-2.079472e+37
-2.0971082e+37
-2.0924309e+37
-2.3847503e+37
-2.0518923e+37
-2.5407784e+37
-2.1921883e+37
-2.1203618e+37
-2.1494385e+37
-2.05498e+37
-2.0906916e+37
-2.3409234e+37
-2.1995034e+37
-2.1366102e+37
-2.2290345e+37
-2.2168791e+37
-2.2394113e+37
-2.1655856e+37
-2.154409e+37
-2.1619829e+37
-2.2292956e+37
-2.3965477e+37
-2.1890048e+37
-2.167717e+37
-2.2374857e+37
-2.1663551e+37
-2.2903575e+37
-2.2202278e+37
-2.2756118e+37
-2.1785529e+37
-2.0596957e+37
-2.1340876e+37
-2.0563541e+37
-2.241065e+37
-2.0476791e+37
-2.2633396e+37
-2.0625726e+37
-2.1807755e+37
-2.0817335e+37
-2.1114688e+37
-2.0759912e+37
-2.2302622e+37
-2.037868e+37
-2.2696085e+37
-2.0061716e+37
-2.0907508e+37
-2.0858494e+37
-2.1640582e+37
-2.0701577e+37
-2.1226406e+37
-2.1960919e+37
-2.0415652e+37
-2.2501778e+37
-2.0573754e+37
-2.0286822e+37
-1.9494927e+37
-2.0723913e+37
-2.0801987e+37
-2.1320403e+37
-2.0696569e+37
-2.2052503e+37
-2.1996241e+37
-2.1803172e+37
-2.2323205e+37
-2.406954e+37
-2.1796511e+37
-2.2687059e+37
-2.1673321e+37
-2.0714758e+37
-2.0704431e+37
-2.0711002e+37
-2.0694744e+37
-2.205739e+37
-2.2063126e+37
-2.2108044e+37
-2.2476828e+37
-2.6376874e+37
-2.2354217e+37
-2.1163907e+37
-2.0947807e+37
-2.0695793e+37
-2.0727692e+37
-2.070714e+37
-2.0691977e+37
-2.0485493e+37
-2.6696335e+37
-3.1356517e+37
-2.8307422e+37
-2.9571871e+37
-2.1247452e+37
-2.3656119e+37
-2.2617064e+37
-2.3761087e+37
-2.6371748e+37
-3.4088847e+37
-2.8636827e+37
-2.3420465e+37
-2.1202376e+37
-1.6468436e+37
-2.3415766e+37
-2.5811854e+37
-3.8229968e+37
-2.7061306e+37
-3.1325691e+37
-2.3868129e+37
-4.439085e+37
-3.5778046e+37
-3.3673918e+37
-3.8456085e+37
-4.1068368e+37
-6.9748324e+37
-2.1123026e+37
-1.4906262e+37
-1.1851135e+37
-2.3145163e+37
-1.8024872e+37
-1.2620677e+37
-3.2648094e+37
-2.6035075e+37
-1.9715378e+37
-1.4866819e+37
-3.20983e+37
-2.5148629e+37
-2.1027412e+37
-3.6793981e+37
-9.5545732e+37
-4.1943718e+37
-1.7388398e+37
-9.9339516e+36
-1.9096508e+37
-2.1528101e+37
-2.1006617e+37
-2.0538687e+37
-2.0681497e+37
-2.0753884e+37
-2.1254389e+37
-2.2026885e+37
-2.0597564e+37
-2.1861397e+37
-2.1226636e+37
-2.1417715e+37
-2.170149e+37
-2.108166e+37
-1.9712978e+37
-2.0986705e+37
-2.1102078e+37
-2.0920637e+37
-2.0551325e+37
-2.0674669e+37
-2.1325073e+37
-2.1217615e+37
-2.3144421e+37
-2.3784538e+37
-2.112321e+37
-2.04892e+37
-2.1135573e+37
-2.5891874e+37
-2.1792851e+37
-2.1732347e+37
-2.0681374e+37
-2.1800297e+37
-2.0437482e+37
-2.1869793e+37
-2.1712418e+37
-2.1663358e+37
-2.4099319e+37
-2.3069244e+37
-2.3539883e+37
-2.1705494e+37
-2.1872328e+37
-2.1423077e+37
-2.1184204e+37
-2.113205e+37
-2.2096236e+37
-2.224943e+37
-2.2560344e+37
-2.2147884e+37
-2.2108171e+37
-2.195211e+37
-2.2400396e+37
-2.3992271e+37
-2.1830242e+37
-2.2671921e+37
-2.1528561e+37
-2.0842482e+37
-2.1414402e+37
-2.0902957e+37
-2.219473e+37
-2.0411215e+37
-2.2459355e+37
-1.9982436e+37
-2.0961793e+37
-2.0951297e+37
-2.1677754e+37
-2.0706156e+37
-2.1362603e+37
-2.1982989e+37
-2.0506726e+37
-2.2431664e+37
-2.0606026e+37
-2.0353685e+37
-1.9509804e+37
-2.0725393e+37
-2.0814548e+37
-2.1305165e+37
-2.0693303e+37
-2.1741199e+37
-2.1017434e+37
-2.2271998e+37
-2.1393515e+37
-2.0902085e+37
-2.0536388e+37
-2.0161156e+37
-1.9238919e+37
-2.0683102e+37
-2.0687406e+37
-2.061482e+37
-2.1808356e+37
-2.0678606e+37
-2.2045601e+37
-2.2088399e+37
-2.2119026e+37
-2.2430414e+37
-2.6144997e+37
-2.2342725e+37
-2.1133837e+37
-2.0930686e+37
-2.0668275e+37
-2.072398e+37
-2.0701881e+37
-2.0694267e+37
-2.049394e+37
-2.1606991e+37
-2.2286689e+37
-2.2189709e+37
-2.807076e+37
-2.3744016e+37
-2.1412397e+37
-2.1796227e+37
-2.0908126e+37
-2.1968696e+37
-2.0619379e+37
-2.0546774e+37
-2.0692107e+37
-2.067875e+37
-2.0494885e+37
-2.0087781e+37
-2.291171e+37
-2.5557917e+37
-3.2700892e+37
-2.3096956e+37
-2.5442477e+37
-2.2498956e+37
-2.2413731e+37
-2.6013725e+37
-2.4841423e+37
-2.901992e+37
-2.9591615e+37
-2.6482462e+37
-2.1008748e+37
-1.680765e+37
-1.9085355e+37
-3.3807956e+37
-2.4539797e+37
-1.9497283e+37
-3.2696575e+37
-2.6793623e+37
-2.1833221e+37
-2.0838953e+37
-3.62292e+37
-2.8526438e+37
-2.8864756e+37
-3.6515515e+37
-7.8554808e+37
-4.0211648e+37
-1.7932127e+37
-1.332922e+37
-2.3934761e+37
-1.3901709e+37
-1.7893798e+37
-3.3121436e+37
-2.8824328e+37
-3.0436805e+37
-1.3838486e+37
-2.3279502e+37
-2.5577366e+37
-1.9392014e+37
-2.8037586e+37
-2.1266998e+37
-2.2884675e+37
-7.9375034e+37
-4.4947214e+37
-3.5969597e+37
-1.9277652e+37
-2.2603785e+37
-2.6818958e+37
-2.1633986e+37
-2.0848058e+37
-2.0369843e+37
-2.0170054e+37
-2.0892673e+37
-2.0938843e+37
-2.2376381e+37
-2.1464913e+37
-2.1223404e+37
-2.1796767e+37
-2.1017312e+37
-2.0939051e+37
-2.0761211e+37
-2.1160633e+37
-2.1776198e+37
-2.3283571e+37
-2.2920051e+37
-2.2410893e+37
-2.2180311e+37
-2.2732288e+37
-2.2045017e+37
-2.2227082e+37
-2.1055877e+37
-2.0953752e+37
-2.0511376e+37
-2.1395657e+37
-2.1579227e+37
-2.1716427e+37
-2.1715592e+37
-2.1807217e+37
-2.3863923e+37
-2.2980126e+37
-2.6354935e+37
-2.2068917e+37
-2.0352578e+37
-2.1006871e+37
-2.0422365e+37
-2.0752694e+37
-2.2290021e+37
-2.2087101e+37
-2.2138375e+37
-2.5030111e+37
-2.2302323e+37
-2.1019353e+37
-2.0732727e+37
-2.0549953e+37
-2.072671e+37
-2.145344e+37
-2.2018451e+37
-2.0666501e+37
-2.0409905e+37
-1.9126508e+37
-2.0751239e+37
-2.0883736e+37
-2.1098246e+37
-2.0685126e+37
-2.1731663e+37
-2.1109088e+37
-2.2245443e+37
-2.1371438e+37
-2.0888469e+37
-2.0536104e+37
-2.0225801e+37
-1.9601467e+37
-2.068578e+37
-2.068678e+37
-2.0609939e+37
-2.174477e+37
-2.0677754e+37
-2.0751089e+37
-2.056007e+37
-2.0712473e+37
-2.0737671e+37
-2.031061e+37
-2.0619286e+37
-2.0655282e+37
-2.0634943e+37
-2.0521945e+37
-2.1560874e+37
-2.2245691e+37
-2.2109936e+37
-2.816956e+37
-2.3694962e+37
-2.1385921e+37
-2.1762763e+37
-2.0898069e+37
-2.1872907e+37
-2.061723e+37
-2.052651e+37
-2.0687919e+37
-2.0680056e+37
-2.0503989e+37
-2.0097391e+37
-2.8178273e+37
-2.6442579e+37
-2.2609946e+37
-2.1025776e+37
-2.1034917e+37
-2.0766946e+37
-2.0526619e+37
-2.0651534e+37
-2.0501513e+37
-2.0097328e+37
-1.9823789e+37
-3.0499307e+37
-2.5366356e+37
-2.2530868e+37
-2.05345e+37
-2.3813486e+37
-2.636744e+37
-2.5994243e+37
-3.1446969e+37
-2.9270269e+37
-2.7087031e+37
-2.5889055e+37
-1.7668837e+37
-1.8980681e+37
-2.2618508e+37
-1.8392725e+37
-2.1527062e+37
-3.1077283e+37
-3.0595302e+37
-3.1572686e+37
-2.3242432e+37
-2.9152192e+37
-3.0803059e+37
-2.5339758e+37
-3.0083673e+37
-3.1120883e+37
-2.6200054e+37
-6.6759004e+37
-4.3260206e+37
-3.8018806e+37
-1.9688035e+37
-2.4701629e+37
-3.2765546e+37
-4.2941632e+37
-2.8116423e+37
-3.5875678e+37
-1.8676194e+37
-3.7679107e+37
-2.6042751e+37
-2.1454051e+37
-4.5757595e+37
-3.7719543e+37
-3.5250352e+37
-4.0029851e+37
-3.9886472e+37
-2.5066004e+37
-1.5879276e+37
-2.1163086e+37
-2.1252738e+37
-2.1171312e+37
-2.1752406e+37
-2.0910069e+37
-2.3314675e+37
-2.1415439e+37
-2.1516482e+37
-2.1635877e+37
-2.4143777e+37
-2.1678297e+37
-2.1270422e+37
-2.1501222e+37
-2.103499e+37
-2.2031356e+37
-2.1037816e+37
-2.0849781e+37
-2.1775405e+37
-2.1873903e+37
-2.3892671e+37
-2.3776183e+37
-2.044672e+37
-2.579923e+37
-2.4019328e+37
-2.0462843e+37
-2.2723343e+37
-2.1386273e+37
-2.413904e+37
-2.1468405e+37
-2.1057233e+37
-2.1006018e+37
-2.088339e+37
-2.1268636e+37
-2.2176e+37
-2.1633422e+37
-2.1587069e+37
-2.1759423e+37
-2.6960273e+37
-2.8929151e+37
-2.0173071e+37
-2.0689297e+37
-2.0374151e+37
-2.0755831e+37
-2.7465484e+37
-2.3363753e+37
-2.1285701e+37
-2.0890788e+37
-2.0644737e+37
-2.0471185e+37
-2.0690938e+37
-2.102541e+37
-2.0605742e+37
-2.0427453e+37
-2.0133485e+37
-2.0705927e+37
-2.0710774e+37
-2.0630114e+37
-2.066415e+37
-2.0746157e+37
-2.0584569e+37
-2.0830044e+37
-2.0794584e+37
-2.0708958e+37
-2.0611391e+37
-2.0652764e+37
-2.0633735e+37
-2.0532123e+37
-2.0771915e+37
-2.0820729e+37
-2.0849724e+37
-2.0891499e+37
-2.0163094e+37
-2.057656e+37
-2.0692325e+37
-2.0126549e+37
-2.8047716e+37
-2.6252383e+37
-2.2603718e+37
-2.1054479e+37
-2.10524e+37
-2.076685e+37
-2.0518743e+37
-2.064873e+37
-2.0512693e+37
-2.0107168e+37
-1.9826681e+37
-2.5881611e+37
-2.3890547e+37
-2.2185566e+37
-2.1137167e+37
-2.0966518e+37
-2.0786347e+37
-2.0607608e+37
-2.0578829e+37
-2.0117783e+37
-1.9827179e+37
-1.9607095e+37
-2.57967e+37
-2.496959e+37
-2.4899114e+37
-2.8157739e+37
-2.5996651e+37
-3.1257552e+37
-2.6792543e+37
-2.8545374e+37
-2.5883158e+37
-2.82713e+37
-1.8440897e+37
-2.1871906e+37
-2.7099214e+37
-4.0100655e+37
-3.0296105e+37
-3.6057047e+37
-1.9683486e+37
-4.0394617e+37
-3.3814357e+37
-2.8283708e+37
-4.7257785e+37
-3.5952826e+37
-3.7480704e+37
-4.0845929e+37
-3.7463544e+37
-2.9118789e+37
-1.982063e+37
-4.5456274e+37
-8.0588258e+37
-2.2298122e+37
-7.9890298e+37
-2.387185e+37
-2.1000898e+37
-3.329409e+37
-2.5390939e+37
-3.4855643e+37
-3.790002e+37
-4.5618166e+37
-2.733171e+37
-2.8991576e+37
-2.0012409e+37
-2.353647e+37
-2.2867175e+37
-2.099478e+37
-2.1577539e+37
-2.1221395e+37
-2.1740635e+37
-2.0921096e+37
-2.3969638e+37
-2.1813115e+37
-2.4155527e+37
-2.7202966e+37
-2.4652713e+37
-2.414183e+37
-2.3365076e+37
-2.1727365e+37
-2.1365889e+37
-2.1748511e+37
-2.2405958e+37
-2.3996234e+37
-2.1577325e+37
-2.0986867e+37
-2.0816683e+37
-2.1432585e+37
-2.2507205e+37
-2.6617082e+37
-2.426534e+37
-2.1715097e+37
-2.1429149e+37
-2.4098761e+37
-2.315108e+37
-2.1527565e+37
-2.1156067e+37
-2.0943772e+37
-2.1006932e+37
-2.7018416e+37
-2.9828065e+37
-3.0498713e+37
-3.0480278e+37
-3.0123498e+37
-2.0731676e+37
-2.0542149e+37
-2.0540802e+37
-2.0673196e+37
-2.0664618e+37
-2.0545899e+37
-2.0554471e+37
-2.8404994e+37
-2.5482591e+37
-2.2675072e+37
-2.1252944e+37
-2.1131395e+37
-2.0808757e+37
-2.0521752e+37
-2.0638277e+37
-2.0860477e+37
-2.07871e+37
-2.1261707e+37
-2.0985142e+37
-2.1176756e+37
-2.0589063e+37
-2.0648396e+37
-2.0672004e+37
-2.0542577e+37
-2.0777293e+37
-2.084561e+37
-2.0918811e+37
-2.0968958e+37
-2.020447e+37
-2.0582914e+37
-2.0691449e+37
-2.0133368e+37
-2.0774715e+37
-2.0971317e+37
-2.0954926e+37
-2.1376072e+37
-2.0879619e+37
-2.2824023e+37
-2.0195284e+37
-2.0620804e+37
-1.9835794e+37
-2.5854273e+37
-2.3859312e+37
-2.220723e+37
-2.1156626e+37
-2.0973351e+37
-2.078685e+37
-2.0610424e+37
-2.0580764e+37
-2.012471e+37
-1.9829985e+37
-1.9608965e+37
-2.7781471e+37
-2.5011427e+37
-2.3137342e+37
-2.1906639e+37
-2.115939e+37
-2.0823078e+37
-2.070955e+37
-2.014606e+37
-1.983908e+37
-1.961031e+37
-1.9437348e+37
-2.6645711e+37
-2.5615272e+37
-2.8141983e+37
-1.9044475e+37
-3.2256764e+37
-3.1614938e+37
-2.7546813e+37
-2.8576347e+37
-2.4152259e+37
-2.7870603e+37
-2.7423177e+37
-1.943974e+37
-2.6406446e+37
-2.6776319e+37
-4.3874728e+37
-7.0393502e+37
-2.2103814e+37
-7.5020399e+37
-2.5580301e+37
-2.8220768e+37
-4.574941e+37
-2.9479445e+37
-3.5981374e+37
-3.7599715e+37
-4.4205046e+37
-3.1079027e+37
-3.0200354e+37
-2.4186223e+37
-2.8714866e+37
-3.7557106e+37
-2.5665579e+37
-3.8613333e+37
-8.7202154e+37
-4.1161707e+37
-2.6144465e+37
-2.934177e+37
-4.1899752e+37
-3.1958344e+37
-3.2252118e+37
-5.4803887e+37
-2.8171659e+37
-2.3881832e+37
-2.372344e+37
-2.0963643e+37
-2.2362407e+37
-2.1370453e+37
-2.3780566e+37
-2.5858723e+37
-2.1434894e+37
-2.1992148e+37
-2.1878041e+37
-2.1364559e+37
-2.1937142e+37
-2.0434777e+37
-1.8427655e+37
-2.2802626e+37
-2.4700285e+37
-2.286002e+37
-2.5196583e+37
-2.4156584e+37
-2.1413384e+37
-2.1715754e+37
-2.1176011e+37
-2.1708958e+37
-2.196128e+37
-2.6535151e+37
-2.1232207e+37
-2.1141398e+37
-2.0720882e+37
-2.1535967e+37
-2.9872757e+37
-2.5102479e+37
-2.4851136e+37
-2.2755222e+37
-2.3786271e+37
-2.1736094e+37
-2.1482332e+37
-2.5213821e+37
-2.2457975e+37
-2.13941e+37
-2.1022038e+37
-2.0851966e+37
-2.6217321e+37
-2.9727761e+37
-2.8663971e+37
-3.0351778e+37
-2.056766e+37
-2.0316724e+37
-2.0784697e+37
-2.0586428e+37
-2.0612813e+37
-2.0618848e+37
-2.0576447e+37
-2.0481724e+37
-2.3617588e+37
-2.2295643e+37
-2.1309673e+37
-2.1024626e+37
-2.0804837e+37
-2.0566379e+37
-2.0857915e+37
-2.1019359e+37
-2.1254503e+37
-2.1280969e+37
-2.0714783e+37
-2.0151538e+37
-2.0777543e+37
-2.0988266e+37
-2.1004483e+37
-2.1406425e+37
-2.0984265e+37
-2.2692354e+37
-2.0198894e+37
-2.0628378e+37
-1.9839765e+37
-2.0615336e+37
-2.0920112e+37
-2.1260475e+37
-2.1442187e+37
-2.2011343e+37
-2.4971961e+37
-2.0977752e+37
-1.9848949e+37
-2.0094629e+37
-1.9625489e+37
-2.7611269e+37
-2.4970027e+37
-2.3085865e+37
-2.1916687e+37
-2.116151e+37
-2.0823257e+37
-2.0717151e+37
-2.0153186e+37
-1.9841788e+37
-1.9612077e+37
-1.9438073e+37
-2.6443553e+37
-2.3407072e+37
-2.3712554e+37
-2.2217992e+37
-2.1762258e+37
-2.1016711e+37
-2.0679564e+37
-1.986738e+37
-2.0070964e+37
-1.9627705e+37
-1.9438877e+37
-1.9291619e+37
-2.5442353e+37
-2.5898732e+37
-3.8391784e+37
-2.0320699e+37
-3.1349766e+37
-4.106359e+37
-2.637828e+37
-2.4529148e+37
-2.6851973e+37
-2.7301266e+37
-2.2045977e+37
-2.6783406e+37
-2.6355051e+37
-3.5999383e+37
-2.8607616e+37
-3.8454048e+37
-8.3385984e+37
-4.6252727e+37
-3.3010693e+37
-3.1982619e+37
-4.4069061e+37
-3.2302794e+37
-3.5951946e+37
-5.4704397e+37
-3.3353641e+37
-2.871569e+37
-2.5683828e+37
-3.3493333e+37
-3.0246771e+37
-5.0906561e+37
-5.1344329e+37
-3.1615002e+37
-2.7414885e+37
-2.3985791e+37
-6.2568299e+37
-2.6936253e+37
-4.5808673e+37
-6.2458601e+37
-1.3200978e+37
-4.223961e+37
-2.314906e+37
-2.9337568e+37
-1.8876598e+37
-2.1199519e+37
-2.164678e+37
-2.3052742e+37
-2.2802589e+37
-2.1875792e+37
-2.2577179e+37
-1.9743671e+37
-2.179371e+37
-2.1228988e+37
-2.0899829e+37
-2.1478625e+37
-2.1419849e+37
-2.1789005e+37
-2.4622551e+37
-2.1612284e+37
-2.7889402e+37
-2.3953893e+37
-2.7252117e+37
-2.0792437e+37
-2.1505297e+37
-2.512908e+37
-2.144838e+37
-2.5276532e+37
-2.0965003e+37
-2.1219948e+37
-2.0862394e+37
-2.2001118e+37
-2.8342998e+37
-2.1440032e+37
-2.1296026e+37
-2.0655401e+37
-2.4828078e+37
-2.8774642e+37
-2.6091817e+37
-2.250123e+37
-2.576538e+37
-2.5076714e+37
-2.4467656e+37
-2.3775266e+37
-2.0715592e+37
-2.1537356e+37
-2.1635995e+37
-2.3081994e+37
-2.1905074e+37
-2.1833067e+37
-2.4949833e+37
-2.1293952e+37
-2.0903317e+37
-2.0736118e+37
-1.995804e+37
-1.9847043e+37
-2.0958044e+37
-2.020262e+37
-2.0190552e+37
-1.9930973e+37
-1.9906231e+37
-2.1005707e+37
-2.2922062e+37
-2.1958556e+37
-2.1228427e+37
-2.0868005e+37
-2.0820171e+37
-2.1124631e+37
-2.1368419e+37
-2.1630907e+37
-1.9861279e+37
-2.0626913e+37
-2.0920982e+37
-2.1307967e+37
-2.1479497e+37
-2.2019321e+37
-2.4983572e+37
-2.0987683e+37
-1.9850748e+37
-2.0099347e+37
-1.9628667e+37
-2.0758657e+37
-2.1008372e+37
-2.1636306e+37
-2.1495475e+37
-2.274547e+37
-2.1791176e+37
-2.0426326e+37
-1.9748021e+37
-1.9705249e+37
-2.0053438e+37
-1.9446687e+37
-2.6358296e+37
-2.3391345e+37
-2.3702365e+37
-2.2183098e+37
-2.1737526e+37
-2.1022981e+37
-2.0685975e+37
-1.9869614e+37
-2.0081236e+37
-1.9629681e+37
-1.9439847e+37
-1.9291563e+37
-2.2479273e+37
-2.3705323e+37
-2.1217432e+37
-2.212215e+37
-2.1453224e+37
-2.1301911e+37
-2.0801364e+37
-1.9859433e+37
-1.9657918e+37
-2.0124526e+37
-1.9445145e+37
-1.9292025e+37
-1.9173864e+37
-2.5636121e+37
-2.7539005e+37
-3.4742795e+37
-2.9536597e+37
-2.274266e+37
-2.7066671e+37