/*--------------------------------*- C++ -*----------------------------------*\
  =========                 |
  \\      /  F ield         | OpenFOAM: The Open Source CFD Toolbox
   \\    /   O peration     | Website:  https://openfoam.org
    \\  /    A nd           | Version:  7
     \\/     M anipulation  |
\*---------------------------------------------------------------------------*/
FoamFile
{
    version     2.0;
    format      ascii;
    class       volVectorField;
    location    "3000";
    object      U;
}
// * * * * * * * * * * * * * * * * * * * * * * * * * * * * * * * * * * * * * //

dimensions      [0 1 -1 0 0 0 0];

internalField   nonuniform List<vector> 
34124
(
(9.9612585e+18 8.6587241e+17 -5.8916914e+18)
(7.482797e+18 3.208227e+17 -3.6336831e+18)
(4.7990025e+18 1.7475117e+18 -2.9099043e+18)
(1.6245832e+19 2.5781986e+16 -5.2200443e+18)
(6.2790334e+18 5.7075191e+17 -5.3718795e+18)
(2.3415063e+18 4.4508795e+18 -2.5398206e+18)
(1.9071847e+19 -1.3028975e+17 -6.2814491e+18)
(2.7792144e+18 3.4615358e+18 -2.7419183e+18)
(7.1550524e+18 1.9246659e+18 -3.7964906e+18)
(1.1308445e+19 -1.6502127e+18 -3.7451827e+18)
(3.5321297e+18 -1.5741993e+18 -5.7686064e+18)
(4.088723e+18 4.8380523e+18 -5.6822554e+18)
(1.3460731e+19 1.6440468e+17 -7.3183358e+18)
(2.7427681e+18 2.3100663e+18 -3.3172625e+18)
(8.7771295e+18 3.7584504e+18 -3.5601076e+18)
(1.6147158e+19 -2.3737162e+18 -2.1761903e+18)
(4.3836019e+18 4.3300818e+18 -5.0300054e+18)
(3.8912742e+18 3.7504476e+18 -4.8685676e+18)
(1.1747872e+19 1.6547623e+18 -4.0037439e+18)
(5.9424801e+18 8.6894912e+17 -1.1985753e+19)
(3.3654159e+18 3.4149873e+17 -6.4529441e+18)
(5.0449115e+18 7.7247524e+17 -6.7425993e+18)
(3.4861722e+18 -2.7432155e+18 -6.2359469e+18)
(5.6198842e+18 1.0046202e+18 -6.6672023e+18)
(8.4845373e+18 5.1079226e+18 -6.4468689e+18)
(3.4938031e+18 -1.2459067e+18 -4.5561463e+18)
(7.3941988e+18 3.5666492e+18 -1.0658504e+19)
(5.4840687e+18 1.5292251e+18 -3.7322579e+18)
(1.3944586e+19 4.2663727e+18 -2.6325649e+18)
(7.0718984e+18 1.5878141e+18 -1.4344299e+19)
(6.1865536e+18 1.9826873e+18 -7.9439041e+18)
(4.0545585e+18 8.5353616e+18 -4.1213239e+18)
(4.7927109e+18 4.078185e+18 -8.5769239e+18)
(4.4998014e+18 3.4673041e+18 -1.2765585e+19)
(5.2069187e+18 -3.2831142e+18 -7.4324826e+18)
(-4.3338747e+18 1.2501924e+18 -8.0936492e+18)
(4.4528799e+18 3.8261841e+18 -7.4821426e+18)
(-1.4726051e+18 -1.9783755e+18 -6.657081e+18)
(1.0433073e+19 -4.8489143e+17 -8.0339706e+18)
(6.6749969e+18 -2.3014098e+18 -7.1207573e+18)
(6.1428752e+18 -4.2437921e+18 -7.1757884e+18)
(9.8715077e+18 9.4518225e+17 -1.3385574e+19)
(8.0411978e+18 1.7569919e+18 -7.2041674e+18)
(1.0037596e+19 5.4389051e+18 -3.8164986e+18)
(-2.3975313e+18 2.6175289e+16 -1.9398354e+19)
(1.0257806e+19 3.6224966e+17 -1.3521008e+19)
(7.1291601e+18 1.1470151e+19 -9.6017067e+18)
(8.0695431e+18 1.5393372e+18 -4.0777241e+18)
(7.9945307e+18 5.2177006e+18 -1.1841961e+19)
(3.5918117e+18 -8.7327119e+18 6.7901423e+16)
(8.8045213e+18 8.5104427e+17 -1.0998483e+19)
(2.7570248e+18 8.1051878e+18 -4.6176808e+18)
(7.9691802e+18 2.2821575e+18 -5.7054921e+17)
(6.1530896e+18 2.3522805e+18 -1.3098157e+19)
(6.0470535e+18 -6.4212093e+17 -1.945893e+19)
(7.9795912e+18 -5.8068506e+18 -1.2073185e+19)
(2.0568931e+18 3.6804304e+18 -6.3710602e+18)
(-2.3884563e+18 1.0138488e+18 -1.4623951e+19)
(-6.6119333e+18 -2.8448645e+18 -6.577749e+18)
(1.1012538e+19 2.1178094e+18 -9.1070407e+18)
(2.2899806e+18 -1.5367755e+18 -7.5293418e+18)
(2.8622203e+18 -5.0464161e+18 -7.665136e+18)
(1.2116375e+19 9.6724762e+17 -1.1229594e+19)
(1.6434916e+19 -2.4048059e+18 -8.1737678e+18)
(8.4533073e+18 -4.0340118e+18 -7.8858407e+18)
(2.8423288e+18 -2.7824936e+18 -6.8282431e+18)
(1.1240332e+19 -1.2232885e+17 -1.6451149e+19)
(8.310084e+18 7.0506208e+18 -9.6419301e+18)
(1.0458591e+19 1.9658406e+18 -5.9523412e+18)
(7.508291e+18 4.6983263e+18 -9.6032007e+18)
(3.3515934e+18 -8.2762442e+18 -9.2131466e+18)
(1.2902779e+19 -1.085805e+18 -1.4947086e+19)
(3.4252791e+18 1.2223269e+19 -1.0198969e+19)
(1.2963359e+19 2.9342766e+18 -3.3410463e+18)
(1.1218797e+19 -1.2458006e+17 -1.0684575e+19)
(1.8500728e+17 -1.0468725e+19 -1.0551335e+19)
(9.8333097e+18 -5.4861256e+18 2.8703437e+18)
(1.2835679e+19 2.0082333e+18 -1.2589771e+19)
(3.3966999e+18 6.8402827e+18 -4.6939462e+18)
(1.0372268e+19 2.8239209e+18 9.9486435e+17)
(6.6690317e+18 -2.1860535e+17 5.2924247e+18)
(1.2585444e+19 -1.9779709e+18 -1.0836252e+19)
(1.0964391e+19 -1.2048742e+19 -1.044433e+19)
(1.1207323e+19 -3.8251444e+18 -8.8636517e+18)
(9.2091541e+18 1.7695467e+18 -7.3359827e+18)
(-2.6277489e+17 3.6721601e+18 -8.7150959e+18)
(-2.3375367e+18 -2.433566e+18 -7.0193334e+18)
(2.148892e+19 1.2974665e+18 -2.5151287e+19)
(-8.9727212e+17 -3.9572103e+18 -8.8831978e+18)
(-1.8787127e+18 -6.1906036e+18 -7.4923643e+18)
(1.0145563e+19 1.2022793e+18 -1.2685488e+19)
(1.7684503e+19 -1.2008154e+18 -8.7449424e+18)
(5.4310861e+18 -4.6677752e+18 -8.4182279e+18)
(-2.5192407e+18 -3.2277013e+18 -6.9236217e+18)
(9.9990619e+18 5.8707316e+18 -7.1826369e+18)
(1.3364964e+19 4.2953337e+17 -9.9993575e+18)
(1.4730052e+19 -2.1138239e+18 -9.214317e+18)
(-1.5780492e+18 -2.2090829e+18 -6.8510974e+18)
(1.3713744e+18 -2.2858674e+18 -3.8929483e+18)
(1.104314e+19 -8.2206176e+17 -1.6003882e+19)
(-5.5010285e+18 1.1854858e+19 -1.0827232e+19)
(1.2768227e+19 3.2813659e+18 -4.3855293e+18)
(1.3780426e+19 2.2756271e+17 -1.0010992e+19)
(-3.0652566e+18 -1.0824836e+19 -1.1785326e+19)
(-2.9084635e+16 -6.6327848e+18 7.363932e+18)
(1.5600186e+19 -3.6054041e+17 -1.6594438e+19)
(5.573904e+18 7.7788238e+18 -6.9711337e+18)
(1.4763375e+19 5.4113295e+18 -2.8127606e+18)
(7.2226402e+18 -1.5390881e+18 9.402373e+18)
(1.5993851e+19 -8.2734294e+18 -3.9979638e+18)
(1.4493277e+19 -3.4178253e+18 4.0433675e+18)
(1.5598583e+19 -7.3261423e+17 2.5448504e+18)
(1.2155192e+19 8.8081048e+18 -4.4760764e+19)
(7.0075385e+18 9.2280419e+18 -1.1687148e+19)
(9.2376897e+18 3.6868136e+18 2.8246972e+18)
(1.4572188e+19 -1.2306376e+18 8.5509817e+18)
(6.8060053e+18 1.4520328e+18 1.7817233e+18)
(1.717814e+19 -3.8150841e+19 -8.5790273e+18)
(1.481092e+19 -1.2048898e+19 -1.350031e+19)
(2.0941901e+18 -3.1789295e+18 8.5745058e+18)
(4.187072e+18 -4.807659e+16 -9.8615993e+18)
(1.2985214e+19 2.7551889e+18 -1.0658018e+19)
(1.082826e+19 -2.0138715e+18 -7.5323258e+18)
(4.2627982e+18 -1.7944741e+18 -1.4010098e+19)
(9.8526523e+18 -4.4219908e+15 -7.6227134e+18)
(5.8967958e+16 -5.4389808e+18 -7.5975403e+18)
(2.7460722e+18 2.2648404e+18 -7.573836e+18)
(-1.0725046e+19 -4.8122669e+18 1.7594423e+18)
(-1.0158734e+19 -6.9370344e+18 -3.4215619e+18)
(-1.2016105e+19 -3.5699789e+18 -5.7715163e+18)
(-3.978463e+18 1.2107245e+19 -9.1754957e+18)
(5.9820695e+18 1.3259646e+18 -9.5798565e+18)
(1.2500306e+19 -2.1643865e+18 -9.0082066e+18)
(-7.9414976e+18 -2.1484101e+18 -6.7174063e+18)
(1.0333306e+18 -2.8531336e+18 -3.4689593e+18)
(1.3677876e+19 1.0326154e+19 -3.8806497e+18)
(1.5162833e+19 7.0567628e+18 -5.0189844e+18)
(3.346647e+18 2.1307322e+18 -8.4763479e+18)
(9.9332547e+17 1.3746428e+18 -6.7852875e+18)
(-2.0607653e+18 -2.5627503e+18 -2.68325e+18)
(7.8571555e+18 -2.6272756e+18 -2.3160109e+18)
(1.0238415e+19 7.1828528e+17 -1.9466865e+19)
(4.341702e+18 8.589813e+18 -8.8877801e+18)
(1.2039555e+19 7.1266253e+18 -3.6930886e+18)
(-1.452524e+19 9.634539e+17 5.4944811e+18)
(1.3395126e+19 -1.0643306e+19 -5.6989188e+18)
(1.1858237e+19 -3.6562914e+18 7.3029051e+18)
(1.7696421e+19 -4.9125782e+17 8.2854673e+18)
(1.7579369e+18 3.1519468e+18 -2.0508934e+19)
(1.0800211e+19 9.8501914e+18 -1.4268835e+19)
(1.1919626e+19 7.2869658e+18 -7.5430641e+17)
(1.6798752e+19 -1.5051967e+18 1.5456525e+19)
(7.1908282e+18 2.0328099e+18 3.5860152e+18)
(5.7428949e+19 -2.0648231e+19 -1.5163896e+19)
(1.7279351e+19 6.5002179e+18 5.9247018e+17)
(3.3169046e+18 5.3211419e+18 5.7582111e+18)
(1.3143765e+19 1.260179e+19 -7.6204917e+18)
(9.4210021e+18 -1.3773176e+19 2.6369203e+19)
(8.2629805e+18 4.763827e+18 -3.1245046e+18)
(1.4352948e+19 1.6931158e+18 1.2135704e+19)
(7.5717171e+18 1.2164691e+18 3.9351039e+18)
(1.3714424e+18 -4.0071197e+18 2.3230757e+18)
(2.3559074e+19 -4.2231798e+19 -2.1658478e+19)
(6.3650647e+19 -1.3785767e+20 4.1315742e+19)
(6.5528933e+18 -7.6502068e+18 2.5365691e+19)
(1.537592e+19 7.2969737e+18 -1.7795164e+19)
(3.873099e+18 9.1110657e+18 -1.0743944e+19)
(-3.921144e+18 9.2497628e+17 -7.4035442e+18)
(1.4753307e+19 2.1482761e+18 -1.1693956e+19)
(1.9822113e+19 -7.41167e+17 -9.2812385e+18)
(4.9097961e+18 -2.4044099e+18 -7.3067337e+18)
(1.0858664e+18 5.5604982e+18 -8.6733926e+18)
(3.3073598e+18 -2.2015503e+18 -3.3636501e+18)
(-5.3183668e+18 -4.3205637e+18 -3.4472766e+18)
(-1.7245858e+19 -2.0045426e+18 -5.5594542e+18)
(-4.6717527e+18 9.9336701e+17 -1.0660855e+19)
(-1.1347091e+19 8.6265782e+15 -5.9416985e+18)
(2.0678744e+19 3.4552505e+18 -2.2015463e+18)
(-1.8479308e+19 -3.7758664e+18 -2.9997044e+18)
(-1.3290702e+19 -2.6281775e+18 -3.4716561e+18)
(8.8690237e+18 1.3021813e+19 -2.1721283e+18)
(2.6190154e+18 1.325807e+19 -7.7140593e+18)
(-1.1349902e+19 3.1230913e+18 -6.8366077e+18)
(-4.9123008e+18 1.5733128e+18 -6.2211612e+18)
(-3.8976034e+18 -2.5837198e+18 -2.4914792e+18)
(9.3967498e+18 -3.1667268e+18 -1.2124407e+18)
(-2.3426582e+18 1.3271445e+19 -3.9797374e+18)
(1.4100884e+19 1.7892534e+19 -3.8379204e+18)
(8.3266846e+18 8.9930505e+18 -4.0885205e+18)
(-4.8553598e+18 5.1683557e+18 -3.4650033e+18)
(-1.5528543e+19 -2.9672191e+16 -2.3876266e+18)
(-3.9334724e+17 -1.5928669e+18 -2.8932404e+18)
(-1.0517288e+19 -3.0359209e+18 -2.8780274e+18)
(-2.7869517e+19 6.391474e+17 -5.8712459e+18)
(1.0842813e+19 1.0139396e+19 -1.5051729e+19)
(9.839429e+18 1.020184e+19 -1.8796499e+18)
(5.2335806e+18 3.7620872e+17 1.4149288e+19)
(4.9191189e+18 3.8518822e+18 4.7366571e+18)
(3.0346076e+19 9.4157918e+17 -1.2078378e+19)
(5.7178433e+18 8.8506986e+18 7.6898747e+18)
(-4.546401e+18 3.826097e+18 3.2207392e+18)
(1.6097342e+19 1.60232e+19 -7.5984661e+18)
(-2.0210367e+19 -1.002095e+19 2.5152433e+19)
(1.5028469e+19 5.6370911e+18 -4.581048e+18)
(2.0900264e+19 2.7524788e+18 1.8068665e+19)
(9.229826e+18 -8.6793615e+17 7.0857362e+18)
(9.179838e+17 -1.6678962e+18 5.0045362e+18)
(6.6568495e+19 -1.0246453e+19 -7.412732e+18)
(7.6536627e+19 -7.1322613e+18 2.3612271e+19)
(1.135513e+19 -1.2426231e+19 1.9846015e+19)
(1.5999226e+19 2.9534713e+19 -3.0608749e+19)
(1.3975485e+19 1.396181e+19 -1.2415015e+19)
(-3.7003806e+19 -2.0559722e+19 8.602162e+18)
(1.3526528e+19 2.537059e+18 5.3673285e+18)
(7.4605558e+18 9.5801932e+17 1.8245948e+18)
(2.6017973e+18 -2.6466756e+18 6.6715062e+18)
(1.1320972e+18 -1.0363884e+19 -4.1303348e+17)
(9.6120761e+19 -7.6830188e+18 -8.669846e+18)
(8.9543965e+18 -3.1833232e+18 1.8128892e+19)
(8.4648617e+18 -2.7826014e+18 4.1379942e+19)
(-2.4522674e+19 3.4961193e+18 -3.9946592e+18)
(-1.9389042e+18 5.4040154e+18 -7.500386e+18)
(9.3352364e+18 9.7396739e+18 -1.4099918e+19)
(9.3623168e+18 1.6302768e+19 -3.0985825e+18)
(1.9128699e+17 1.1514006e+19 -7.766518e+18)
(-1.4439324e+19 3.9366374e+18 -6.1895115e+18)
(-8.5694658e+18 7.9133008e+18 -5.2862577e+18)
(5.568512e+18 8.6805758e+18 -9.9228509e+18)
(4.0341404e+18 -4.235761e+17 -3.7912602e+18)
(-1.1266633e+19 1.1383025e+18 -5.1697098e+18)
(-1.5318232e+19 3.8975486e+18 -1.3351379e+19)
(4.8432214e+18 6.1523161e+18 -5.4569958e+18)
(3.1775552e+19 1.1717547e+19 9.6273802e+18)
(-1.9946216e+19 -1.9496545e+18 -3.4466306e+18)
(-2.2762906e+19 -2.145193e+18 -2.9902195e+18)
(-1.3238064e+19 9.8900732e+17 -1.0101888e+19)
(-1.3621493e+19 4.5598187e+17 -1.0719005e+19)
(-2.0719887e+19 -3.0536467e+18 -5.026351e+18)
(-7.5636391e+18 3.0553543e+18 -8.2343615e+18)
(-1.8900357e+19 -2.6492569e+18 -4.0153403e+18)
(-2.4403801e+18 -3.5181383e+18 5.4195235e+17)
(2.3558613e+18 8.8611812e+18 3.3884332e+18)
(9.3454774e+18 2.0227552e+19 -2.4723822e+18)
(-7.9603642e+18 1.1623312e+19 -3.4526248e+18)
(-1.3949634e+19 5.5866069e+18 -3.1088359e+18)
(-2.4554055e+19 -2.4607642e+17 -1.3773763e+18)
(6.4321798e+17 -1.0031744e+18 -1.4135297e+18)
(-1.1630519e+19 -3.6645413e+18 -2.7374152e+18)
(-8.2929139e+18 1.5443636e+19 -4.9404116e+18)
(-1.6293786e+19 3.9704211e+18 1.9033451e+18)
(4.5646114e+18 1.6492898e+19 -3.5371444e+18)
(-9.3340718e+17 9.2206295e+18 -1.9395983e+18)
(-7.6560495e+18 2.0805578e+18 -1.4013131e+18)
(-2.2141885e+19 -2.5563363e+18 -2.7574757e+18)
(-8.6857195e+18 -1.8583556e+18 -3.0927607e+18)
(-1.3254665e+19 -3.1929895e+18 -1.5051813e+18)
(1.1299306e+19 2.0654428e+19 -9.661506e+18)
(-3.8882734e+19 -3.9858763e+18 1.0486917e+19)
(1.9241592e+19 8.2343156e+18 -2.0249949e+18)
(1.8436482e+19 4.3584372e+18 1.7418485e+19)
(7.3474035e+18 6.9940851e+17 9.7790924e+18)
(-6.4680534e+18 -1.629977e+18 5.448864e+18)
(6.2543961e+19 6.6986953e+18 2.6768734e+17)
(6.1284291e+19 1.6299336e+19 1.7971543e+19)
(1.2842269e+19 -1.3904184e+19 1.5875056e+19)
(3.6098483e+19 3.8092868e+19 -3.9463223e+19)
(1.9019028e+19 1.7718673e+19 -1.717914e+19)
(-3.9757581e+19 -5.6526818e+18 1.3251513e+19)
(2.1359254e+19 4.3447928e+18 1.0366366e+19)
(1.2918521e+19 -1.4096051e+17 3.706601e+18)
(2.8530936e+18 -3.7288152e+18 1.0684128e+19)
(6.7382071e+18 -4.3956238e+18 1.1816995e+18)
(1.1373642e+19 8.3894405e+18 -4.4163177e+18)
(1.7096585e+19 -1.0255788e+19 8.9426486e+18)
(1.361361e+19 -1.1770025e+19 6.5189242e+19)
(3.4518621e+19 8.2239228e+18 -1.2308908e+19)
(7.8651831e+19 1.3295938e+19 -4.1062246e+18)
(5.4320082e+18 1.166694e+19 -1.5392756e+18)
(-3.3743248e+19 -7.6958395e+18 -1.5564988e+19)
(3.019797e+18 -1.3891396e+18 2.4977037e+18)
(3.9484605e+18 -6.4002644e+18 6.701616e+18)
(2.0938019e+18 -9.9320178e+18 1.1018818e+18)
(2.5251044e+18 -1.5258684e+19 -1.2130981e+19)
(1.219631e+19 -2.0704125e+18 1.1545057e+19)
(7.1106695e+18 -4.0097211e+18 2.227661e+19)
(-1.8366557e+19 5.1913995e+18 -8.4498413e+18)
(-2.6401324e+19 1.6840809e+18 -5.2609584e+18)
(-2.9227837e+19 3.1710346e+18 -8.6188409e+17)
(5.7402044e+18 1.4625377e+19 -1.2854473e+19)
(1.0884417e+19 1.3120462e+19 -7.2037544e+18)
(-2.108172e+19 2.6214912e+18 -2.1528374e+18)
(2.3389109e+19 1.3783764e+19 -1.6813139e+18)
(1.165187e+19 1.0431682e+19 5.1538301e+18)
(1.1089377e+19 2.1079899e+19 -4.4760522e+18)
(-1.3864279e+19 9.8092652e+18 -3.7981261e+18)
(-1.65886e+19 2.5153518e+18 -4.4704844e+18)
(-1.7990778e+19 7.4273845e+18 -1.2744806e+19)
(2.7489054e+17 8.0421417e+18 -2.1333199e+18)
(1.2683648e+20 2.590118e+19 5.0104218e+18)
(-1.1196364e+19 8.483229e+17 -3.0355234e+18)
(-3.0632952e+18 -8.8969152e+17 -1.8445862e+18)
(-2.2275586e+19 2.8114392e+18 -1.0673794e+19)
(1.1243964e+19 7.2925948e+18 7.0260207e+18)
(-7.663738e+18 7.3696537e+17 -3.6591741e+18)
(3.9753807e+19 1.6103399e+19 1.5041729e+19)
(-2.3087061e+19 -3.0338164e+18 -4.2424046e+18)
(-1.0625909e+19 -3.0422227e+18 -1.8970471e+17)
(-1.7609678e+19 -2.7637671e+18 -6.0304257e+18)
(-2.3411486e+19 -1.2839231e+18 -7.8197227e+18)
(-3.6644581e+19 -5.7829184e+17 -1.931016e+19)
(-1.9386891e+19 -5.0026732e+18 -4.9607749e+18)
(1.7356517e+19 -1.2727089e+19 1.1441636e+19)
(-1.8356113e+19 -4.5026565e+18 -3.3515881e+18)
(-1.1617275e+19 -5.1373689e+18 -1.7419239e+18)
(1.3427856e+16 1.8846527e+19 -2.3383706e+18)
(-3.8879384e+18 2.6748202e+18 8.2270989e+18)
(1.7133476e+18 1.9048442e+19 -8.9471573e+17)
(-1.1683766e+19 7.5842573e+18 6.3172801e+17)
(1.6495549e+19 6.8136045e+18 -8.1293519e+17)
(-4.844226e+19 -2.8474703e+18 -2.4087932e+18)
(-8.9914861e+18 -1.8179671e+18 -3.0800316e+18)
(-1.5384914e+19 -3.9729646e+18 -1.6162947e+18)
(-1.7926071e+19 6.7206058e+18 -2.2274424e+18)
(1.8966289e+18 1.6420823e+19 -5.6774317e+18)
(-8.2126199e+18 -2.7741978e+18 4.7048373e+18)
(-5.3713161e+17 1.2896648e+19 -2.2932862e+18)
(-1.3054154e+19 2.6521142e+18 -2.1336921e+18)
(-1.6986707e+19 -2.103931e+18 -4.0549416e+18)
(-9.5398364e+18 -2.7871011e+18 -3.1467082e+18)
(-1.3759532e+19 -4.0258447e+18 -1.9067542e+18)
(-1.5788369e+19 -1.9401147e+18 -1.1942189e+18)
(6.3999399e+19 6.2101904e+19 -4.5823917e+19)
(2.0405866e+19 2.0757798e+19 -1.4808414e+19)
(-3.6646265e+19 4.590807e+18 -3.314628e+17)
(2.7216239e+19 6.3504802e+18 1.5098826e+19)
(1.7064721e+19 1.7825523e+18 7.0654442e+18)
(-6.4995308e+18 -2.1031873e+18 1.0042296e+19)
(7.7691634e+18 -1.5783144e+18 2.4399918e+18)
(-1.3113937e+19 1.5158567e+19 -8.2384027e+18)
(1.7787388e+19 -1.3075076e+19 3.7507189e+18)
(2.0187548e+19 -9.9323272e+18 4.2328671e+19)
(3.8612006e+19 1.592985e+19 -1.6322513e+19)
(4.1497582e+19 2.8763128e+18 -1.1685405e+19)
(1.0588094e+19 1.5552827e+19 -8.5983008e+18)
(-2.7360073e+19 -1.9178737e+18 -1.4142408e+19)
(5.0986086e+18 -3.1580018e+18 -1.9634083e+18)
(8.0364469e+18 -7.1400051e+18 1.1513285e+19)
(7.9333434e+18 -3.4295168e+18 2.7234248e+18)
(2.628922e+19 -3.2052774e+19 -1.3181638e+19)
(2.0193274e+19 -9.2157311e+18 -1.830409e+18)
(8.8489121e+18 -3.5916495e+18 1.9332443e+19)
(-2.2941491e+19 -3.4982239e+18 -9.010498e+18)
(1.0237609e+19 3.0782372e+19 -5.286807e+18)
(7.8175021e+18 9.6810274e+18 -5.8585755e+18)
(1.5899268e+18 2.4186942e+19 2.4474348e+19)
(3.1546764e+18 6.8144778e+18 2.9209884e+18)
(1.690822e+19 2.9591893e+17 -1.270385e+18)
(4.0735566e+18 -1.5495882e+19 1.2019744e+19)
(-8.6139242e+17 -2.0681106e+19 -1.0066308e+18)
(4.6931112e+18 -6.7496656e+18 -1.6975601e+19)
(1.3155442e+19 3.201165e+19 2.902083e+18)
(5.6417288e+18 -7.3744186e+18 2.4432575e+19)
(-1.8121515e+19 1.3079141e+19 -7.3856027e+18)
(-8.7748677e+18 -8.6917701e+16 -1.0019666e+19)
(-1.6348818e+19 5.7460742e+18 -1.0239565e+19)
(-1.6816401e+19 1.1500784e+19 -7.9539983e+18)
(3.282527e+19 2.3018372e+19 -1.0829427e+19)
(-2.6745212e+18 1.1077246e+19 -5.3752138e+18)
(-2.1553367e+19 3.3909603e+18 -1.4347104e+18)
(2.2716325e+19 1.9866815e+19 -8.4994314e+18)
(2.4177353e+19 1.4998055e+19 8.0997468e+17)
(-9.1559623e+18 9.0867144e+18 -4.057935e+18)
(-2.4277042e+19 1.1099637e+17 -4.1984596e+18)
(3.4499164e+19 1.0160503e+19 1.2969938e+19)
(1.1714474e+19 1.764493e+19 -2.0689315e+18)
(1.6019216e+19 4.0955471e+18 8.6248864e+18)
(5.2472351e+18 2.034763e+19 -1.5650225e+18)
(-1.2860479e+19 2.9290029e+18 -1.269695e+18)
(-1.1354205e+19 -6.9615879e+17 -1.1694059e+18)
(-2.0961864e+19 5.3369206e+18 -9.553827e+18)
(1.9322654e+18 1.1504357e+19 -1.6093324e+18)
(7.6120267e+18 7.6020632e+18 -5.1899319e+17)
(1.2765219e+19 1.6048077e+19 -3.5309501e+18)
(-1.9150833e+19 -1.9812161e+18 -4.0652994e+18)
(-6.2245631e+18 -4.5537191e+18 -1.3384763e+18)
(-5.4578227e+18 5.3481735e+17 -3.1583154e+18)
(-2.457493e+19 -5.1704521e+17 -6.7289938e+18)
(2.6843975e+19 7.0306626e+18 1.3033678e+19)
(-2.6390774e+19 -5.6257378e+18 -5.3419405e+18)
(1.5342119e+19 -7.5637487e+18 4.5653886e+18)
(-1.7560795e+19 -4.9953003e+18 -3.6344062e+18)
(-1.3656657e+19 -4.1021286e+18 -2.5108911e+18)
(-2.4139536e+19 -2.8543304e+18 -4.5671417e+18)
(-1.8083633e+19 -3.1478429e+18 -9.213113e+18)
(-2.2525821e+19 -3.0038034e+18 -4.647025e+18)
(-9.6922986e+18 -5.7965653e+18 -7.2523921e+18)
(-1.5995263e+19 -6.8716424e+18 -2.717428e+18)
(1.208474e+19 -1.0479674e+19 1.7976641e+19)
(-1.4673629e+19 -6.1288817e+18 -1.903962e+18)
(-1.5398485e+19 -4.2712926e+18 -5.0042826e+18)
(4.2705996e+18 1.284674e+19 1.0815708e+18)
(3.5639729e+18 1.786784e+19 -3.1099502e+18)
(-7.7636884e+18 -2.2325819e+18 7.862671e+18)
(-2.0463115e+16 1.4488009e+19 2.0310637e+18)
(-1.7261409e+19 1.5799028e+18 -7.9061121e+17)
(-5.8045758e+17 -4.3311882e+17 -2.5770038e+18)
(-1.4117497e+19 -3.5652566e+18 -3.8556711e+18)
(-1.5135472e+19 -4.447373e+18 -2.0357727e+18)
(-1.4885991e+19 -1.7594935e+18 -1.4879218e+18)
(-1.730922e+19 9.6690834e+18 -3.546626e+18)
(-9.4842366e+18 -1.8502431e+18 1.6544942e+18)
(-4.419645e+18 1.1375886e+19 -3.7388422e+18)
(2.7851054e+18 -8.424041e+18 4.774658e+18)
(-2.8139102e+18 6.9013758e+18 -4.9598573e+18)
(-7.7064537e+18 -2.2644651e+18 -4.9883943e+18)
(-7.6458766e+18 -4.2266661e+18 -3.997085e+18)
(-1.4725501e+19 -4.3633295e+18 -2.8581721e+18)
(-1.6701175e+19 -2.1885257e+18 -1.663234e+18)
(-1.6950875e+19 -2.8099884e+18 -1.9837873e+18)
(3.4867379e+19 2.1434326e+19 -1.0634124e+19)
(2.2456531e+19 5.6008165e+18 -1.7660559e+19)
(1.5123091e+19 1.892005e+19 -1.1029895e+19)
(-2.6067004e+19 5.9053057e+18 -1.4134159e+19)
(7.6378306e+18 -2.8232821e+18 -1.0149767e+18)
(5.8690762e+18 -5.5161013e+18 1.4643863e+19)
(8.8435525e+18 1.7119335e+18 4.5038903e+18)
(2.733779e+19 -1.6667803e+19 8.0854222e+17)
(1.6650206e+19 -1.1577191e+19 -6.6820073e+18)
(1.4306717e+19 -3.7209172e+18 1.4787866e+19)
(-1.9773627e+19 -7.2399979e+18 -1.1822043e+19)
(1.6409659e+19 2.1690585e+19 -2.8897588e+18)
(1.3662058e+19 1.6555866e+19 -1.0053626e+19)
(8.7132538e+18 8.7812839e+18 1.0373862e+19)
(6.4420412e+18 1.230973e+19 -2.5110063e+18)
(2.2913614e+19 -2.8110313e+18 -8.5956423e+18)
(7.7039566e+18 -1.3889279e+19 1.219183e+19)
(6.1643994e+18 -1.6786588e+19 2.9174155e+17)
(1.8259907e+19 -6.5759386e+18 -9.7342036e+18)
(1.0273917e+19 3.3278864e+19 4.6449972e+18)
(3.9296103e+18 -1.6375116e+19 3.0508166e+19)
(-2.4251974e+19 4.917647e+17 -4.1077965e+18)
(-1.8660142e+19 -4.9329082e+18 -1.9912977e+19)
(7.2547937e+18 9.5899442e+18 -8.0780442e+18)
(5.7477444e+18 1.2118397e+19 -1.9145706e+18)
(3.5952527e+18 4.6643904e+18 -5.9923615e+18)
(-2.0046412e+18 1.5781309e+16 7.8634679e+18)
(-2.2276616e+17 -8.563644e+18 1.3580334e+19)
(-7.4422545e+17 -5.7943934e+18 2.7295032e+18)
(-4.5178289e+18 -5.0895836e+19 1.8809217e+19)
(7.881199e+18 -2.5347613e+19 -5.5940812e+19)
(2.1241816e+19 2.7567176e+19 -2.7050881e+19)
(1.0144985e+19 2.7249599e+19 6.6445187e+18)
(-3.0504202e+19 4.7160927e+19 -5.8084862e+18)
(-1.7534285e+19 4.1773875e+18 -2.2147781e+19)
(1.5393374e+18 1.4934948e+18 -5.1201467e+18)
(-1.6935523e+19 4.2029994e+18 -7.6833194e+18)
(-1.0036185e+19 1.2769893e+19 -6.5630952e+18)
(7.6575072e+18 1.0862148e+19 -6.7277193e+18)
(-5.0214575e+18 1.1053781e+19 -9.6798145e+18)
(2.5669399e+19 1.3234889e+19 -8.753974e+18)
(3.2698729e+19 2.1983613e+19 -1.5007042e+18)
(2.4819611e+19 1.3324542e+19 -4.7957446e+17)
(-2.2247587e+18 8.7209246e+18 5.9032689e+16)
(-1.3997973e+19 2.0263963e+18 -2.1230015e+18)
(2.3723522e+19 1.9684069e+19 -7.3707548e+18)
(4.1159905e+19 1.1154515e+19 1.0343312e+19)
(2.0629592e+19 1.5023509e+19 2.1259342e+18)
(-1.7601208e+19 -8.0365186e+17 -6.5328199e+18)
(-2.1697035e+19 -2.9576761e+18 -4.0859321e+18)
(1.6338985e+19 2.2578774e+18 5.2963609e+18)
(1.4902179e+19 6.7964599e+18 4.7933344e+18)
(8.5912925e+18 1.7893004e+19 -2.7731187e+18)
(6.4623604e+18 -3.070313e+18 1.1986902e+19)
(1.5176033e+19 1.7038919e+19 1.488798e+18)
(-2.087087e+19 -3.5847411e+18 -1.8663605e+18)
(-1.8574749e+19 -4.267452e+18 -1.541324e+18)
(-1.271317e+19 5.4852041e+18 -4.1724061e+18)
(-2.136323e+19 1.8083089e+18 -4.3908777e+18)
(-3.5692486e+18 6.3614339e+18 -3.7223928e+18)
(-8.135336e+18 -8.4959238e+17 -2.8121314e+18)
(-1.1532931e+18 -7.7819502e+18 -5.9138815e+18)
(-1.7531515e+19 -5.3881152e+18 -4.4438893e+18)
(-1.3916981e+19 -4.0131262e+18 -4.176124e+18)
(-2.6773815e+19 -2.2032089e+18 -3.8830542e+18)
(4.2482931e+18 -7.354076e+17 -1.1423053e+18)
(-2.6326278e+19 -3.719999e+18 -3.9327262e+18)
(1.5874191e+19 -2.693425e+18 6.7599889e+18)
(-1.7347782e+19 -7.2479056e+18 -3.0075859e+18)
(2.2083164e+19 -4.8172158e+18 1.3467872e+19)
(-1.3585287e+19 -5.2954145e+18 -2.117958e+18)
(-1.6369052e+19 -3.8066493e+18 -4.7073588e+18)
(-1.4123795e+19 -8.8677542e+17 -4.2842454e+18)
(-2.2502268e+19 -3.6813041e+18 -2.8752685e+18)
(-1.9845487e+19 -3.6872405e+18 -1.3610135e+19)
(-2.005054e+19 -4.3913084e+18 -1.7067479e+18)
(6.6293696e+18 -1.2736451e+19 9.5068279e+18)
(-1.7040753e+19 -5.5451071e+18 -1.2346756e+18)
(1.3849553e+19 -1.1639912e+19 1.222105e+19)
(-1.8680525e+19 -6.092762e+18 -1.7657514e+18)
(-1.58861e+19 -1.937602e+18 -1.1982386e+18)
(-8.6777272e+17 1.4888189e+19 -1.2995077e+18)
(-7.3605748e+18 6.8086157e+16 5.5866856e+18)
(-1.6336902e+18 1.2986102e+19 -6.1443707e+17)
(4.370998e+18 -3.5719564e+18 6.07541e+18)
(-6.1932949e+16 7.0112542e+18 -4.2009527e+18)
(-1.1588716e+19 -2.8342873e+18 -2.9793725e+18)
(-9.4498506e+18 -4.9919158e+18 -2.7614625e+18)
(-1.4755909e+19 -4.4521009e+18 -3.1492588e+18)
(-1.5835845e+19 -2.6237151e+18 -1.5620971e+18)
(-1.6574651e+19 -2.5897235e+18 -1.7689369e+18)
(-1.7134996e+19 2.4920893e+18 -2.7983175e+18)
(-1.5738156e+19 1.048207e+19 -4.1961515e+18)
(2.6192555e+19 -1.1937204e+19 -4.805815e+17)
(-1.0079883e+19 8.6684863e+18 -4.4923164e+18)
(2.2955839e+19 -8.4264861e+18 2.4616567e+18)
(-9.8240361e+18 1.6940892e+18 -7.8121932e+18)
(-1.369246e+19 -2.2478502e+18 -3.0676886e+18)
(-1.367846e+19 -5.7940561e+17 -3.5030222e+18)
(-1.7075262e+19 -6.6899798e+18 -9.1910312e+17)
(-1.7969348e+19 -3.6467749e+18 -2.0882033e+18)
(-1.4180982e+19 -2.1098658e+18 -1.6522064e+18)
(1.4834824e+19 2.2281335e+19 6.0430622e+17)
(1.636499e+19 2.2534392e+19 -1.4237263e+19)
(1.6605901e+19 1.5107207e+19 7.7066689e+18)
(8.9713558e+18 1.8936987e+19 -4.5509065e+18)
(1.0544634e+19 9.8096514e+17 -9.4506631e+18)
(9.92918e+18 -1.1413279e+19 1.469004e+19)
(1.0639226e+19 -5.6462832e+18 3.3371153e+18)
(2.5851792e+19 -3.605501e+18 1.6419574e+18)
(1.0048122e+19 1.6782065e+19 2.8534057e+18)
(2.5382505e+18 -1.6452379e+19 2.2214302e+19)
(-2.2460752e+19 -3.5234478e+18 -1.3067685e+19)
(-3.3088735e+19 -1.1442622e+19 -3.2558255e+19)
(1.3090638e+19 1.3235955e+19 -1.4575392e+19)
(1.1813737e+19 1.5661399e+19 -5.3394369e+18)
(6.7262001e+18 1.1739398e+19 -6.8085952e+18)
(2.2226772e+18 1.0087709e+19 1.7668775e+19)
(2.9657191e+18 -1.6468785e+18 7.6488701e+18)
(-5.0753188e+18 -2.0787535e+19 3.0750443e+19)
(-5.0569585e+18 -3.353393e+19 1.7412838e+19)
(5.8476716e+19 -6.513947e+19 -4.8022652e+19)
(4.4985322e+19 4.6413408e+19 -3.079046e+19)
(1.394874e+19 3.1789876e+19 9.2036714e+18)
(-3.6249208e+19 1.9194507e+19 -4.199305e+18)
(-3.0562534e+19 4.4739985e+18 -3.0503056e+19)
(-9.795301e+17 9.9576732e+17 -7.0007226e+18)
(1.0666403e+19 5.4685193e+18 -1.0309498e+19)
(4.3592305e+18 -4.0533173e+18 -1.0260456e+19)
(5.5480411e+18 5.5423073e+18 1.9563906e+18)
(1.5372315e+18 -2.4301543e+18 -5.0133884e+18)
(2.9902487e+18 5.7980738e+18 1.3087505e+19)
(-1.4441129e+18 -3.1564361e+19 2.6407785e+19)
(-1.7842589e+20 1.9602915e+19 1.7344502e+19)
(1.6870505e+18 -9.7518718e+19 -1.0698362e+20)
(1.0313146e+20 1.1313835e+20 -1.4011708e+20)
(1.5568588e+19 1.2575828e+19 3.4173149e+18)
(2.5314282e+19 3.8715362e+18 -4.2916382e+18)
(-3.6007682e+19 3.0113759e+19 -5.3436576e+19)
(3.5713163e+18 5.9310803e+18 -4.4622347e+18)
(2.5288206e+18 -9.6016077e+17 -2.0594785e+19)
(-1.5073978e+19 7.4683011e+18 -4.5062391e+18)
(7.010991e+17 8.6395007e+18 -3.4957467e+18)
(-1.6056766e+19 2.9199513e+17 -1.6416465e+18)
(3.1100301e+17 1.1392457e+19 -5.2157803e+18)
(-1.2002326e+19 5.2657881e+18 -8.7181912e+18)
(2.6174652e+19 1.4928217e+19 3.8686561e+18)
(-1.9626942e+19 2.8294422e+18 -1.0435978e+19)
(1.811303e+19 1.444806e+19 -9.4225595e+17)
(8.0175938e+18 1.6590582e+19 6.602431e+17)
(1.9883564e+19 2.3179007e+19 -1.1019032e+19)
(3.0471409e+19 1.5601893e+19 -3.8876192e+18)
(2.2289892e+19 8.1532806e+18 3.0685255e+18)
(5.2127849e+18 2.9938572e+18 -2.7863052e+18)
(-8.8964719e+18 -3.163239e+18 -2.3011757e+18)
(1.6821342e+19 2.1389953e+19 -2.2352826e+18)
(2.1447611e+19 4.3456575e+18 4.5441522e+18)
(4.2698853e+19 1.0549902e+19 9.2764189e+18)
(2.3805005e+19 1.2563358e+19 1.9644303e+18)
(-1.6215152e+19 -3.9057345e+18 -5.6678172e+18)
(-1.7913256e+19 -4.4684957e+18 -3.0113705e+18)
(1.2934731e+19 -4.7749138e+18 8.6911548e+18)
(1.3686704e+19 1.2427248e+19 2.7919846e+18)
(9.9454345e+17 -1.5357419e+18 8.4354178e+18)
(5.5009885e+18 1.4395886e+19 -1.6905706e+18)
(7.6848416e+18 -6.9159247e+18 6.4740964e+18)
(5.0244943e+18 8.2219327e+18 -4.0709445e+18)
(-2.3241403e+19 -5.2805051e+18 -3.1427966e+18)
(-1.7879473e+19 -4.8114293e+18 -1.5781347e+18)
(-2.7154093e+19 9.5584228e+17 -1.5966846e+18)
(-6.4387956e+18 3.9179134e+18 -4.2613253e+18)
(-2.8117434e+19 -4.681174e+18 -2.0532643e+18)
(1.9395247e+19 1.9323579e+18 1.2864993e+19)
(-2.1795759e+19 -7.5601593e+18 -3.5094984e+18)
(5.6206141e+18 -1.2268603e+19 1.5298807e+19)
(-1.3848429e+19 -3.4356108e+18 -3.0377515e+18)
(-1.759256e+19 -2.6272832e+18 -5.7516051e+18)
(-6.7493961e+18 1.4363962e+18 -2.7660318e+18)
(-2.8113e+19 -3.8017045e+18 -2.0433463e+18)
(-1.7141438e+17 -2.0127587e+18 2.4522721e+17)
(-1.9804254e+19 -4.7137984e+18 -1.3165338e+18)
(2.4681874e+18 -1.0148409e+19 6.3724708e+18)
(-1.9268908e+19 -5.1744905e+18 -1.3785003e+18)
(1.412022e+19 -8.909052e+18 8.6862413e+18)
(-1.8921167e+19 -5.7438351e+18 -2.1167957e+18)
(-1.7764287e+19 -2.7094428e+18 -1.601891e+18)
(-1.3771504e+19 -1.4964548e+18 -3.5425109e+18)
(-1.6222812e+19 -1.0975404e+18 -8.8091344e+18)
(-1.875582e+19 -4.4945548e+18 -2.8453002e+18)
(1.8594951e+18 -9.0162989e+18 3.1177712e+18)
(-1.7692e+19 -5.0184171e+18 -1.368095e+18)
(-1.3781757e+19 -8.1178462e+18 1.068138e+18)
(-1.9346239e+19 -3.0403751e+18 -1.4672161e+18)
(-1.764354e+19 -2.167096e+18 -1.3836471e+18)
(-2.5199948e+18 9.0483854e+18 4.0567831e+17)
(-8.2330938e+18 1.2857109e+19 -2.4938189e+18)
(1.3565462e+19 -6.1964539e+18 7.5047555e+18)
(-5.5684707e+18 1.0086588e+19 -3.1147796e+18)
(1.5799281e+19 -1.5478255e+18 4.3536606e+18)
(-1.0907278e+19 1.2921954e+18 -6.4893711e+18)
(-2.3697737e+19 -3.7579338e+18 -1.3691567e+18)
(-1.4327449e+19 -1.4448518e+18 -1.9485983e+18)
(-1.7890967e+19 -6.5576314e+18 -1.0201983e+18)
(-1.7900412e+19 -3.5929292e+18 -1.3533593e+18)
(-1.4633053e+19 -2.2412432e+18 -1.6521041e+18)
(-1.4773907e+19 8.0896801e+18 -5.4768576e+18)
(-1.2105901e+19 -1.5936043e+18 -4.3638651e+18)
(-1.5287648e+19 9.1298385e+18 -4.8764782e+18)
(-7.9552561e+18 3.0633133e+17 -6.2959836e+18)
(-1.02659e+19 5.7365613e+18 -5.4261989e+18)
(-1.1261218e+19 -2.8133418e+17 -4.4921772e+18)
(-1.5998259e+19 -5.8317787e+18 -5.0519682e+18)
(-1.7107811e+19 -5.5599989e+16 -2.4512544e+18)
(-1.4962799e+19 -5.1115338e+18 -1.5073349e+18)
(-1.4838007e+19 -2.7773669e+18 -1.6160044e+18)
(-1.3217743e+19 -1.7972302e+18 -1.6621861e+18)
(1.4299067e+19 1.8692749e+19 -2.1319256e+19)
(7.944996e+17 2.0716782e+19 -8.5359978e+18)
(1.1185565e+19 2.1181177e+19 -1.1415741e+19)
(-2.0102878e+19 3.2228588e+18 -4.5036832e+18)
(6.1297326e+18 5.559529e+18 6.9276114e+18)
(-1.5586932e+19 -1.930137e+19 1.5983126e+19)
(-6.9432172e+18 -1.7484527e+19 1.1774772e+19)
(4.504021e+19 -1.8913467e+19 1.1490369e+18)
(4.0160916e+19 2.3834848e+19 1.2325971e+18)
(1.464647e+19 3.3051738e+19 1.0534154e+19)
(-2.3938126e+19 5.4045257e+17 1.9246401e+18)