/*--------------------------------*- C++ -*----------------------------------*\
  =========                 |
  \\      /  F ield         | OpenFOAM: The Open Source CFD Toolbox
   \\    /   O peration     | Website:  https://openfoam.org
    \\  /    A nd           | Version:  7
     \\/     M anipulation  |
\*---------------------------------------------------------------------------*/
FoamFile
{
    version     2.0;
    format      ascii;
    class       volScalarField;
    location    "9000";
    object      k;
}
// * * * * * * * * * * * * * * * * * * * * * * * * * * * * * * * * * * * * * //

dimensions      [0 2 -2 0 0 0 0];

internalField   nonuniform List<scalar> 
34387
(
1.5184859
1.5171712
1.5143824
1.5222644
1.5199242
1.5184768
1.5184888
1.5184942
1.5183546
1.5183443
1.5171233
1.516915
1.5173204
1.5173325
1.5169654
1.5171375
1.5171127
1.5169009
1.5169543
1.5147071
1.514676
1.5143921
1.5201418
1.5195272
1.5223086
1.5224054
1.5223986
1.5223621
1.5223697
1.5234842
1.5199268
1.5200877
1.5200931
1.5196619
1.5196839
1.5184591
1.518476
1.5183628
1.5184809
1.5183486
1.5183877
1.5183735
1.5172252
1.5172214
1.5170848
1.5172506
1.5172388
1.5168868
1.5169315
1.5170992
1.5170831
1.5168701
1.5169185
1.5160826
1.51664
1.5173652
1.5174042
1.5161087
1.516679
1.5162066
1.5161865
1.5155144
1.5155349
1.5148921
1.5148676
1.5147093
1.5148253
1.5146841
1.5144242
1.5170964
1.5248978
1.5200636
1.5199343
1.5198605
1.5199181
1.5199859
1.5211819
1.5194325
1.5223354
1.5224239
1.5224374
1.5224064
1.5224053
1.5203952
1.5212847
1.5212895
1.5204392
1.5233779
1.5234544
1.5231034
1.5233999
1.5233951
1.5231124
1.5198927
1.5200166
1.5200329
1.5196846
1.5196497
1.5233619
1.5235323
1.5206433
1.5205591
1.5184422
1.5184721
1.5183615
1.5184708
1.518348
1.5183894
1.5172224
1.5183939
1.5172103
1.5183947
1.5183753
1.5170899
1.5170789
1.5170524
1.517064
1.5170736
1.5168847
1.5168378
1.5168551
1.5172034
1.5171977
1.5168996
1.5173207
1.5172786
1.5160534
1.5166013
1.5160692
1.5166418
1.5161746
1.5161479
1.5154853
1.5155062
1.5155039
1.5161015
1.5153019
1.5173144
1.5173682
1.5155219
1.5160763
1.5153193
1.5162199
1.516223
1.5154754
1.5154839
1.5149208
1.5154632
1.5149056
1.5149357
1.5148582
1.5147134
1.5151535
1.5148616
1.5146835
1.5143402
1.5196386
1.5171322
1.5170441
1.5171114
1.5169297
1.5169612
1.5170101
1.5169231
1.5169536
1.5170477
1.5259045
1.5249043
1.5198656
1.519813
1.5200121
1.5198933
1.5199324
1.518523
1.5175854
1.5176242
1.5185578
1.5209141
1.5193703
1.5223605
1.5224631
1.5224386
1.5224362
1.5224167
1.5203248
1.521284
1.5212919
1.5203706
1.5202805
1.5211815
1.5212129
1.5203228
1.5230654
1.5233256
1.5233283
1.5233371
1.523316
1.5233048
1.5234117
1.5231461
1.5234292
1.5234135
1.5231629
1.5267359
1.5276522
1.5274784
1.5265288
1.5198283
1.5199662
1.5199734
1.5196671
1.519628
1.5236682
1.5236186
1.520704
1.5207548
1.5235459
1.5237138
1.5206764
1.5206164
1.5184711
1.5184203
1.518357
1.5184688
1.5183425
1.5183855
1.5172071
1.5183881
1.5171911
1.5183829
1.5170488
1.5184163
1.5170422
1.5183481
1.5183277
1.5170068
1.5170146
1.5170226
1.5170473
1.5171806
1.5171691
1.5168669
1.5168205
1.5168014
1.5168498
1.5170556
1.5161167
1.5161368
1.5154721
1.5166001
1.5154477
1.516552
1.5160133
1.5172189
1.517245
1.5160418
1.5172603
1.5172361
1.5154803
1.5160409
1.5152745
1.5154934
1.5160666
1.5152907
1.5161704
1.5161005
1.5154709
1.5154746
1.5149855
1.5154996
1.5160118
1.5151459
1.5173499
1.5173872
1.5149964
1.5155121
1.516035
1.515167
1.5160878
1.5160717
1.5153861
1.5153984
1.514901
1.5154074
1.5148987
1.514925
1.5148411
1.5146644
1.515069
1.5148623
1.5146287
1.5148898
1.5215223
1.519594
1.51957
1.5195713
1.5193992
1.51942
1.5163403
1.5170927
1.5170041
1.516906
1.516932
1.5170924
1.5169255
1.5168982
1.5169581
1.5169897
1.5163104
1.516263
1.5168903
1.5162804
1.5169
1.5160423
1.516335
1.5163456
1.5160777
1.5258574
1.524929
1.5175656
1.5175205
1.5198151
1.5199605
1.5197625
1.5198538
1.5198911
1.5184833
1.5185083
1.518404
1.517414
1.5174629
1.5184672
1.5251903
1.5207292
1.5193145
1.5224826
1.5223867
1.5224521
1.5224328
1.5224593
1.5212661
1.5212842
1.5202555
1.5202993
1.5201602
1.5211742
1.5211878
1.5201878
1.5201604
1.5211231
1.5211187
1.5201965
1.5255411
1.5232981
1.5240017
1.5236226
1.5235002
1.5238699
1.5232695
1.5232873
1.5233026
1.5232913
1.5232709
1.5268409
1.5269307
1.5270217
1.5269031
1.5234082
1.5234365
1.5234229
1.5232107
1.5232287
1.5270863
1.527904
1.527771
1.5269122
1.5270673
1.5282385
1.5280152
1.5269081
1.519752
1.5199293
1.5199321
1.5196371
1.5195908
1.5237626
1.5237054
1.5207948
1.520836
1.5238866
1.5238548
1.520742
1.5207426
1.5236411
1.5238235
1.5206641
1.5205724
1.5183799
1.5184602
1.5183983
1.5183476
1.5184564
1.5183304
1.5171848
1.5183889
1.5171582
1.5184095
1.5170552
1.5184064
1.517068
1.5183661
1.5170202
1.5183631
1.5170255
1.5169941
1.5171575
1.5170167
1.5170312
1.5168136
1.5167637
1.5167835
1.5168303
1.5171508
1.516085
1.5171696
1.5171926
1.5159861
1.5165494
1.5159513
1.5164949
1.5154096
1.5154369
1.5161086
1.5160657
1.5160597
1.5154649
1.5152537
1.5154615
1.5152327
1.5154224
1.5154401
1.5159717
1.5172178
1.5172409
1.5159945
1.5173079
1.5172749
1.5149632
1.5154783
1.5159695
1.5151288
1.5149753
1.5154713
1.5159885
1.515153
1.5160485
1.5160261
1.5153626
1.515377
1.514878
1.5153865
1.5148902
1.5149104
1.5148226
1.5148434
1.5150558
1.5148664
1.5147157
1.5143357
1.5255821
1.5212801
1.5208306
1.5215611
1.5215616
1.5209629
1.5172056
1.5171537
1.5195678
1.5195611
1.519542
1.5194173
1.519427
1.5172454
1.5172695
1.5161772
1.5162685
1.5170743
1.5169666
1.5170747
1.516905
1.5168816
1.5168984
1.5168739
1.5169128
1.5169406
1.516238
1.5168821
1.5162517
1.5168893
1.5162912
1.5163295
1.5163207
1.5159888
1.5160179
1.5161518
1.5167125
1.5163535
1.5169641
1.5167121
1.5163606
1.5169561
1.5159894
1.5162748
1.5162774
1.516038
1.5272462
1.5258394
1.5249425
1.517404
1.5173458
1.5174954
1.5199151
1.5197616
1.5197148
1.5198463
1.5198107
1.5174431
1.518445
1.5184727
1.5183562
1.5183918
1.5183427
1.5173049
1.5173304
1.5183714
1.5240143
1.5252447
1.520597
1.5192689
1.5212319
1.5224851
1.5224118
1.5225144
1.5224551
1.5224452
1.5201887
1.5202318
1.5212557
1.5211855
1.5212235
1.5201142
1.5201075
1.5200834
1.5211318
1.5211307
1.5201198
1.5262178
1.5261982
1.5271891
1.526816
1.5264075
1.5267609
1.5235271
1.523701
1.5240557
1.523928
1.5236024
1.5275116
1.5281253
1.5279477
1.5274427
1.523223
1.5232415
1.5232571
1.5232596
1.5232423
1.5271082
1.5270538
1.5269272
1.52697
1.5271926
1.5274303
1.5275691
1.5271618
1.5234132
1.5234345
1.5234218
1.5232779
1.5232942
1.5280907
1.5279909
1.5272182
1.527381
1.527414
1.5284263
1.5283408
1.5272401
1.5272709
1.5284242
1.5282804
1.5270785
1.5196772
1.5198827
1.5195392
1.5195889
1.5198912
1.5238514
1.5238023
1.520851
1.5208533
1.5240005
1.5239617
1.5208058
1.5208375
1.5240181
1.5239519
1.5207388
1.5208017
1.5184283
1.5183546
1.5183783
1.5184388
1.518432
1.5183123
1.5183315
1.517143
1.5183131
1.5171194
1.5170947
1.518466
1.5170432
1.5183821
1.5170288
1.5183771
1.5170277
1.5169702
1.5169878
1.5167261
1.5167763
1.5169997
1.5167987
1.5171061
1.5170987
1.5167521
1.5171116
1.5160307
1.5160652
1.5153884
1.5164922
1.5153521
1.5164351
1.5158891
1.515925
1.5171439
1.516024
1.517175
1.5171773
1.5154169
1.5159452
1.5152112
1.5153895
1.5159044
1.5151869
1.5153856
1.5153949
1.5160771
1.5160052
1.5160143
1.5153433
1.5151024
1.5149445
1.5153782
1.5150754
1.5149382
1.5153204
1.5154205
1.5159202
1.5172253
1.51725
1.5159474
1.5148482
1.5148917
1.5153637
1.5150361
1.514847
1.5147339
1.5146379
1.5143665
1.5146425
1.5145027
1.5212665
1.5254862
1.5255535
1.5257551
1.5258752
1.5257314
1.5211084
1.5214968
1.5214423
1.5207531
1.5208546
1.5176156
1.5196128
1.5197328
1.5176864
1.5170831
1.5171363
1.5170291
1.5170992
1.5195542
1.5195415
1.5195155
1.5194358
1.5194184
1.5172306
1.5172458
1.5171362
1.5171585
1.5161751
1.5161308
1.5162534
1.5169367
1.5170427
1.5170398
1.5168609
1.5168804
1.516878
1.5168527
1.5168733
1.5169044
1.5162248
1.5162283
1.5168809
1.516214
1.5168764
1.5163173
1.5163091
1.5159475
1.5159709
1.5167148
1.5163206
1.5169741
1.5167127
1.5163361
1.5169685
1.5161336
1.5162744
1.5162727
1.5159315
1.5159789
1.5161593
1.516931
1.5166628
1.5162648
1.5170143
1.5166621
1.5169288
1.5162819
1.5169988
1.5159338
1.5162558
1.5162584
1.5159671
1.5235625
1.5274129
1.5258177
1.5249489
1.5172812
1.517249
1.5173447
1.5198769
1.5196719
1.519715
1.5198065
1.5197731
1.5174204
1.5173816
1.5184235
1.5183916
1.5172861
1.5183752
1.5183958
1.5183086
1.5183266
1.5188908
1.5241531
1.5252893
1.5204915
1.5192326
1.5212274
1.5211599
1.5224312
1.522544
1.5224522
1.5224507
1.522514
1.5212036
1.5201262
1.5201669
1.5200242
1.5200864
1.5211879
1.5211064
1.5211289
1.5200126
1.5200447
1.5287356
1.5266923
1.5277018
1.527371
1.5271029
1.5274706
1.5268175
1.5275083
1.5271087
1.5268185
1.5271842
1.5296121
1.5294606
1.5284526
1.5285325
1.5236702
1.5240671
1.5239945
1.5236812
1.5237185
1.5284082
1.527525
1.5275118
1.5282511
1.5279833
1.5283873
1.5282978
1.5278707
1.5231857
1.5231972
1.5232141
1.5232267
1.5232177
1.5272062
1.5269728
1.5271453
1.5270161
1.5276093
1.5275989
1.5272057
1.5272517
1.5275213
1.5277272
1.5277796
1.5275455
1.5234193
1.5233423
1.523447
1.5233319
1.523435
1.5282392
1.5281506
1.527489
1.5276229
1.5285362
1.5284726
1.5275629
1.5277427
1.5276076
1.5286368
1.5285352
1.5274546
1.5196079
1.5194807
1.5198286
1.5198389
1.5195307
1.5238631
1.5207837
1.5208214
1.5238458
1.5240912
1.5240722
1.5209072
1.5209213
1.5241672
1.5240956
1.5208678
1.5209272
1.5183855
1.5183798
1.5183613
1.5184067
1.5184147
1.5183114
1.5182919
1.5182616
1.5182073
1.5170829
1.5171098
1.517047
1.5183653
1.5170449
1.5170238
1.5183927
1.5170083
1.516951
1.5169633
1.5167244
1.5170658
1.5169746
1.5167429
1.5166907
1.5170611
1.5167711
1.5159849
1.5153052
1.5163767
1.5153338
1.5164325
1.5160095
1.5158684
1.5170696
1.517032
1.5158442
1.5171496
1.5159525
1.5159795
1.5151636
1.5153754
1.5153593
1.5151356
1.5153381
1.5153262
1.5158281
1.5158601
1.5171761
1.5159724
1.5171808
1.5172005
1.514927
1.5153678
1.5158864
1.5150608
1.5149155
1.5153547
1.515849
1.515011
1.5152767
1.5153002
1.5159945
1.51502
1.5148754
1.5148125
1.5153345
1.5150041
1.5148532
1.5147836
1.5153152
1.5148496
1.5147813
1.5147124
1.5148511
1.5147102
1.5144206
1.5257754
1.5209854
1.5209616
1.5210503
1.5211697
1.5211216
1.5244906
1.5244857
1.5255818
1.5259067
1.5255949
1.5260666
1.5259497
1.524663
1.5246352
1.5209652
1.520658
1.5213168
1.5213577
1.5207567
1.5195278
1.5194316
1.5175252
1.5175931
1.5174103
1.5194518
1.5195589
1.5175061
1.5169402
1.5170174
1.5169086
1.5169844
1.5170811
1.5170373
1.5195248
1.519508
1.5194955
1.5194061
1.5194266
1.5172337
1.5172121
1.5171335
1.5171496
1.5170437
1.5170466
1.516137
1.5161304
1.5169109
1.5168407
1.5170136
1.5170126
1.5168581
1.5168462
1.5168324
1.5168509
1.5168718
1.5162026
1.5161727
1.5161939
1.5168739
1.5162066
1.5168751
1.5159166
1.5162974
1.5163056
1.5159375
1.5161289
1.516717
1.5162925
1.5169818
1.5167198
1.5162751
1.5169928
1.5162712
1.5162666
1.5158898
1.515935
1.5169364
1.5166744
1.5162343
1.5170353
1.5166686
1.5169338
1.5162488
1.5170117
1.5161465
1.5162503
1.5162452
1.5158783
1.5159065
1.5169223
1.5169696
1.5166682
1.5169939
1.516667
1.5169651
1.5169193
1.516987
1.5304172
1.523325
1.5275459
1.5257948
1.5249514
1.5172208
1.5198431
1.5197707
1.5196742
1.5196285
1.5197399
1.5173355
1.5173704
1.5183742
1.518343
1.5172804
1.517221
1.5183279
1.5183181
1.5171821
1.5182671
1.5182941
1.5183558
1.5185696
1.5242844
1.5253266
1.520406
1.5192058
1.5211224
1.5210588
1.5224481
1.5224449
1.5225794
1.5225467
1.5224449
1.5211566
1.5200509
1.5201022
1.5211847
1.521128
1.5199637
1.5199687
1.519931
1.5199727
1.5210852
1.528601
1.5295952
1.53082
1.5303091
1.5299697
1.5304476
1.5271216
1.5276221
1.5278396
1.5275431
1.5273415
1.5295885
1.5293134
1.5292578
1.5295717
1.5272654
1.5276925
1.5274947
1.5271686
1.5273575
1.529805
1.5286221
1.5285759
1.5297091
1.5299297
1.5297514
1.5285661
1.528512
1.5237157
1.5240587
1.5237044
1.5237002
1.5240162
1.5275347
1.5275145
1.5285189
1.5286619
1.5287155
1.5279648
1.5279921
1.5285476
1.528153
1.5287665
1.5286413
1.5281284
1.523154
1.5232081
1.5231682
1.5232098
1.5231843
1.5272926
1.5272339
1.5270243
1.5270817
1.5276178
1.5272906
1.5276021
1.5273268
1.5278226
1.5278015
1.5275605
1.5275658
1.5234223
1.5234507
1.523465
1.5233702
1.5233652
1.5277532
1.5283452
1.5276774
1.5282681
1.5286982
1.5286428
1.5278311
1.5279461
1.5288064
1.5287264
1.5277557
1.5278939
1.5195453
1.5197767
1.5197629
1.5194222
1.5194706
1.520682
1.5238367
1.5238345
1.520724
1.5240686
1.520874
1.5208837
1.524106
1.5242762
1.5242349
1.5209723
1.5209872
1.5183655
1.5183479
1.5183833
1.5183906
1.5182905
1.5182698
1.5180968
1.5181536
1.5170607
1.5170226
1.5182917
1.5182516
1.5169766
1.5170428
1.5169956
1.518331
1.5169787
1.5169329
1.5170636
1.5170537
1.5167442
1.5166951
1.5166514
1.5169354
1.5169488
1.5167065
1.5159451
1.5158029
1.5163144
1.5169889
1.5159703
1.5152912
1.5163747
1.515266
1.5170054
1.5158284
1.515933
1.5150963
1.5152527
1.515282
1.5152867
1.5151155
1.5153036
1.5159292
1.5158039
1.5170864
1.5170386
1.5157841
1.5171148
1.5159263
1.5159497
1.5149044
1.5150078
1.5152475
1.5152954
1.5149817
1.5148916
1.5152115
1.5152778
1.5157787
1.5158128
1.5171544
1.5148511
1.514818
1.5152885
1.5149881
1.5147884
1.5148587
1.5152624
1.5149693
1.5148494
1.5147658
1.5146802
1.5148465
1.5146805
1.5145704
1.5224233
1.5254522
1.5254371
1.5256742
1.5252774
1.5252922
1.5207636
1.5210128
1.5209533
1.5207018
1.5208483
1.5200868
1.5209092
1.520964
1.520251
1.5244357
1.5244602
1.52448
1.5260672
1.5262277
1.5256792
1.5256526
1.5261182
1.5244675
1.5247225
1.5247059
1.524574
1.5245025
1.5208493
1.521215
1.5211732
1.5205597
1.5206526
1.5173841
1.5191841
1.5193343
1.5174797
1.5193548
1.5193024
1.5173091
1.5173719
1.5172463
1.5192833
1.5193808
1.5173115
1.5168847
1.516858
1.5169882
1.5169378
1.5170212
1.5169802
1.5194902
1.5194719
1.5194812
1.5193921
1.5194116
1.5171909
1.5172139
1.5171527
1.5171228
1.5170388
1.5170439
1.5161261
1.5168129
1.5168205
1.5169835
1.5168842
1.5169893
1.516837
1.5168299
1.5168445
1.5168205
1.5161809
1.5168752
1.5161374
1.5161584
1.5161899
1.516873
1.5158853
1.5162888
1.5162957
1.5159059
1.5161118
1.5160991
1.5167218
1.5162327
1.5170109
1.5167209
1.5162456
1.517002
1.51583
1.5162566
1.5162621
1.5158906
1.5161116
1.5166785
1.5169401
1.5162179
1.5170178
1.516943
1.5166805
1.5162006
1.517034
1.5162418
1.516238
1.5158283
1.515855
1.5169315
1.5169812
1.5166711
1.5169995
1.5166682
1.5169774
1.5169281
1.5169955
1.5169449
1.5169123
1.5169492
1.516949
1.5169036
1.5169423
1.5229128
1.5308066
1.523113
1.5276559
1.5257722
1.524948
1.5196305
1.5195713
1.519811
1.519711
1.5197389
1.5183214
1.5173169
1.5172728
1.5182854
1.5172036
1.5172179
1.5182538
1.5182417
1.5171517
1.5171182
1.5182337
1.5182062
1.5204718
1.5181538
1.518326
1.5244057
1.5253562
1.5203361
1.5191875
1.5210413
1.5224643
1.522604
1.5225746
1.5224364
1.5224463
1.5199572
1.5211131
1.5211418
1.5200149
1.5210491
1.5198998
1.5199277
1.5210595
1.5210225
1.5198674
1.5198959
1.5241576
1.5291563
1.5292212
1.5295291
1.5301275
1.529757
1.5304076
1.531274
1.5308722
1.5304952
1.5308325
1.5316423
1.5314383
1.5314216
1.5315686
1.5273877
1.5275966
1.527874
1.5277683
1.5275084
1.5295798
1.5295873
1.5293496
1.5293292
1.5298313
1.5293497
1.5293615
1.5297832
1.5275332
1.5275426
1.527814
1.5274218
1.5276838
1.5299609
1.5298727
1.5286559
1.5287019
1.53009
1.5286184
1.5285514
1.5300301
1.5299692
1.5298665
1.5286745
1.5286759
1.5236985
1.5236753
1.524023
1.5236921
1.5240096
1.5275448
1.5288703
1.528736
1.5275204
1.5278759
1.527916
1.528873
1.5290184
1.5290269
1.5281184
1.528138
1.5289016
1.5231246
1.5231401
1.5232061
1.5232005
1.5231561
1.5271291
1.5273214
1.5270875
1.5272902
1.5277067
1.5276817
1.5272779
1.5272999
1.5278815
1.5275589
1.5278499
1.5275455
1.5234223
1.5234685
1.523486
1.5233861
1.5233849
1.5283808
1.5284737
1.5278149
1.5277717
1.5279904
1.5288088
1.5279779
1.5287807
1.5289264
1.5288734
1.5280073
1.5281086
1.5194885
1.5197054
1.5197153
1.519411
1.5193614
1.5237895
1.5237704
1.5206083
1.520639
1.5207878
1.5240316
1.5240565
1.5208068
1.5243044
1.5209474
1.5209766
1.5242978
1.5183376
1.5183647
1.5182457
1.5182688
1.5183701
1.5179932
1.5180432
1.5169969
1.5169627
1.5181387
1.5181693
1.5169462
1.5168969
1.5182793
1.5182267
1.5169337
1.5169604
1.5169149
1.5166662
1.5170678
1.5169088
1.5169235
1.51667
1.516609
1.5167167
1.5170516
1.5169667
1.5169762
1.5157788
1.5163129
1.515743
1.5162472
1.5152254
1.5159003
1.5159265
1.515253
1.5159242
1.5152458
1.5157452
1.5150655
1.5169582
1.5159227
1.5152021
1.5150819
1.5152648
1.515171
1.5169819
1.515765
1.5158904
1.514955
1.5148708
1.5151512
1.5152331
1.515179
1.5149652
1.5148811
1.5152326
1.5159056
1.5157517
1.5170636
1.5170173
1.5157304
1.5148252
1.51487
1.514957
1.5152302
1.5149412
1.5148529
1.5147969
1.5152036
1.5148454
1.5147396
1.514843
1.5147677
1.5147612
1.5145024
1.5161416
1.5223825
1.5229481
1.5220691
1.5221134
1.522885
1.5244461
1.5243473
1.5254912
1.525498
1.5256545
1.5254578
1.5254097
1.5258566
1.5256665
1.5205925
1.5204988
1.520874
1.5209076
1.520617
1.5208706
1.5208453
1.5197607
1.519922
1.5200174
1.5208666
1.5208959
1.5201813
1.5244057
1.5244344
1.5245121
1.5257702
1.5258111
1.5262117
1.5263699
1.5262725
1.5247795
1.5245377
1.5244916
1.5247597
1.5245713
1.5246122
1.5245961
1.5243975
1.5243245
1.5207515
1.5204594
1.5210577
1.521088
1.5205508
1.5190408
1.5188903
1.5172406
1.5173296
1.5172002
1.5190693
1.5191912
1.5172799
1.5192107
1.5191417
1.5171547
1.517204
1.5168331
1.5167992
1.5169183
1.5168607
1.5169663
1.5169267
1.5194575
1.5194378
1.5194722
1.5193759
1.5193969
1.5171692
1.5171883
1.5170625
1.5171221
1.5170352
1.5170217
1.5162792
1.5168812
1.5168097
1.5161698
1.5168157
1.5160983
1.5169447
1.5168522
1.5169227
1.5168128
1.5167944
1.5168006
1.5167859
1.5161242
1.5161781
1.5168747
1.5162863
1.5158704
1.5158474
1.5167232
1.5161927
1.5170241
1.5160874
1.516081
1.5167219
1.5162042
1.5170164
1.5158114
1.5162512
1.5162541
1.5158277
1.5160921
1.5160731
1.516947
1.5166855
1.5161685
1.5170114
1.5169454
1.5166824
1.5161831
1.5169911
1.5157845
1.5162283
1.5162335
1.5158093
1.5166735
1.5169807
1.5169334
1.5170007
1.5169364
1.5169755
1.5166772
1.5170086
1.5169496
1.5169384
1.5169485
1.516949
1.5169364
1.5169477
1.5169205
1.5169192
1.5169115
1.5169138
1.5208992
1.5228585
1.5311071
1.5229269
1.5277492
1.5257457
1.5249376
1.5172459
1.5171931
1.5195731
1.5197787
1.5195104
1.5197094
1.5196739
1.5182288
1.5182634
1.5181976
1.517148
1.5171401
1.5182031
1.5170633
1.5170929
1.518177
1.5181576
1.5197951
1.5204772
1.5179845
1.5181593
1.5245153
1.5253792
1.520279
1.5191745
1.5224801
1.5224394
1.5226313
1.5224402
1.5225993
1.5210553
1.5210902
1.5199171
1.5198543
1.5198319
1.5210287
1.5210145
1.5198595
1.5209708
1.5197895
1.51983
1.5209905
1.5236826
1.5244071
1.5247775
1.5256055
1.5253853
1.5246671
1.5296579
1.5297989
1.5295909
1.5301061
1.5304053
1.5259556
1.5257281
1.5279068
1.5280658
1.5310076
1.5311627
1.5315491
1.5312815
1.5309312
1.5318625
1.5317657
1.531669
1.5317576
1.5317965
1.5315316
1.5314375
1.5315096
1.5275033
1.5278762
1.527596
1.5275653
1.5278159
1.5293438
1.5295567
1.5295657
1.5293397
1.5298539
1.5298418
1.5294008
1.5293754
1.5298793
1.52949
1.5294894
1.5298905
1.5276864
1.5278964
1.5276734
1.5275967
1.5278116
1.5287693
1.530136
1.5287298
1.5300346
1.530171
1.530134
1.5286852
1.5287367
1.5301022
1.5287042
1.5286843
1.530043
1.5236523
1.5239718
1.5239668
1.5236596
1.5236314
1.5290692
1.5275189
1.5289419
1.5275166
1.5278745
1.5291824
1.5290671
1.5278921
1.5280643
1.5280901
1.5291432
1.5292511
1.5230966
1.5231253
1.5231058
1.5232115
1.5231989
1.5273263
1.5271517
1.5271252
1.5273077
1.5272634
1.5277483
1.5272442
1.5277573
1.5279256
1.5279065
1.5275204
1.527508
1.5234194
1.5233939
1.523508
1.523488
1.5233945
1.5285269
1.5286251
1.5278582
1.5278179
1.5288172
1.5288603
1.5280657
1.5280338
1.5282395
1.5289975
1.5281819
1.5289658
1.5194377
1.519652
1.5196579
1.5193498
1.5192998
1.5236801
1.5237091
1.5205545
1.5205051
1.5240265
1.5239856
1.5206941
1.5207164
1.5208559
1.5242932
1.5243041
1.5208986
1.5183299
1.5183503
1.5183549
1.5182448
1.5182193
1.5179122
1.5169112
1.5169423
1.5179502
1.5180259
1.5180541
1.5168974
1.5168663
1.5181112
1.5181679
1.5169078
1.5168784
1.5168926
1.5170403
1.5170576
1.5168732
1.5168947
1.5166296
1.5165625
1.5166354
1.5166884
1.5156935
1.5161769
1.5169439
1.51586
1.5158841
1.5152096
1.516246
1.5151779
1.5157191
1.5169556
1.5169347
1.5169479
1.5152259
1.5157129
1.5150483
1.5152021
1.5156761
1.5150263
1.5151357
1.5158584
1.5158812
1.5151531
1.5158517
1.5148558
1.5151668
1.5156863
1.5149483
1.5169625
1.5158727
1.5151261
1.5149582
1.5148638
1.5151655
1.5151037
1.5169816
1.5157095
1.5149161
1.5147717
1.5148432
1.515162
1.5149275
1.5148108
1.5148778
1.5151801
1.5148446
1.5147071
1.5148363
1.5148261
1.5146485
1.5148391
1.5147763
1.5147717
1.5147968
1.5165461
1.5155821
1.5153329
1.5156188
1.5161217
1.5162828
1.5223894
1.5221011
1.5220688
1.5229234
1.5228498
1.5260788
1.5233306
1.5232799
1.5258572
1.5244501
1.5243791
1.5242405
1.5241017
1.5255357
1.5255548
1.5257156
1.5256384
1.5255663
1.5262845
1.5260694
1.5257747
1.5256017
1.5208046
1.520757
1.5204485
1.5203373
1.5204367
1.5195088
1.5207829
1.5208264
1.5196275
1.5208808
1.5209186
1.5196196
1.5198107
1.5199643
1.5208621
1.5208988
1.5201291
1.5244596
1.5246202
1.5247059
1.5259114
1.5259571
1.526336
1.5264921
1.5264057
1.5248216
1.5248111
1.5247082
1.5246138
1.5245793
1.5246479
1.5244743
1.5245239
1.5244661
1.5209772
1.5209467
1.5206678
1.5203588
1.5204501
1.5170979
1.5186555
1.5187813
1.5171842
1.5189026
1.5187669
1.5170404
1.5171487
1.5170269
1.5189178
1.5190463
1.5170986
1.5167701
1.5167365
1.5168483
1.5167975
1.5169113
1.5168727
1.5194262
1.519465
1.5194023
1.519353
1.5193779
1.51715
1.5171668
1.5170239
1.5170535
1.5169917
1.5170097
1.5170437
1.516276
1.5162433
1.5167284
1.5168811
1.5161526
1.5161647
1.5160832
1.5160715
1.516823
1.5167833
1.5168665
1.5168866
1.516795
1.5167899
1.5167778
1.5167698
1.5167387
1.5160336
1.5158313
1.5162675
1.5168924
1.5161531
1.5157998
1.516082
1.5167251
1.5161625
1.5170313
1.5162472
1.5157661
1.5157781
1.5169496
1.5166865
1.5161428
1.517051
1.5160434
1.516057
1.5169482
1.5166859
1.5161541
1.517002
1.5157505
1.5162163
1.5162227
1.515769
1.5169691
1.5169422
1.5166812
1.5170247
1.5169386
1.5169695
1.5166795
1.5170131
1.5169486
1.5169463
1.5169511
1.5169527
1.5169451
1.5169488
1.5169388
1.5169358
1.5169347
1.5169366
1.5169255
1.516922
1.5214576
1.5208488
1.5227984
1.5313665
1.5227631
1.5278278
1.5257166
1.5249254
1.5170799
1.5171573
1.5170578
1.5195119
1.5197504
1.5196661
1.5196316
1.5194542
1.5171021
1.5181974
1.5181461
1.5181497
1.5181541
1.5181323
1.5170304
1.5169994
1.5181062
1.5236633
1.5196026
1.520483
1.5178515
1.5180537
1.5246131
1.5253956
1.5202282
1.5191631
1.5224976
1.522628
1.5226636
1.5224173
1.5224378
1.5197608
1.5209885
1.5198158
1.5210283
1.5209675
1.5209724
1.5197635
1.5197404
1.5196942
1.5209264
1.5209492
1.5197436
1.5262948
1.5238861
1.5243711
1.524241
1.5241416
1.5242301
1.524628
1.5248025
1.5247376
1.5254531
1.5256137
1.5255828
1.5250143
1.5250711
1.5255411
1.5299992
1.5299594
1.5305607
1.5303864
1.5298509
1.5253519
1.5255365
1.5277188
1.5275088
1.5256217
1.5254281
1.527665
1.5278922
1.5313884
1.5312319
1.5317426
1.5315582
1.5313924
1.5319282
1.5320096
1.531933
1.5318457
1.5319411
1.5317053
1.531609
1.5318822
1.5317327
1.5315605
1.5314529
1.53154
1.5275344
1.5275654
1.5278598
1.5275688
1.5278274
1.5295385
1.5293308
1.5293243
1.5295373
1.5294234
1.5297092
1.5297877
1.5294201
1.5298708
1.5298558
1.5294884
1.5294956
1.5277819
1.52795
1.5278914
1.5277167
1.527776
1.5303039
1.5288254
1.5287935
1.5302111
1.5287472
1.5303541
1.5287136
1.5302866
1.5302281
1.5301631
1.5287207
1.5287285
1.5235942
1.5239251
1.5235799
1.5236113
1.523919
1.527468
1.5274784
1.5291449
1.5292515
1.5293042
1.5278498
1.5292106
1.5278895
1.5279939
1.5294176
1.5293334
1.5280305
1.5230705
1.5232238
1.5230688
1.5230902
1.5232031
1.5272929
1.527287
1.5271704
1.5271431
1.5276974
1.5273045
1.5272734
1.5277261
1.5274899
1.5279306
1.5274894
1.5279326
1.5234145
1.5233973
1.5235328
1.5235079
1.5233983
1.5278998
1.5287595
1.5286707
1.5278597
1.5289044
1.5289974
1.5281331
1.5281283
1.5290268
1.5290671
1.5283207
1.5282851
1.5193925
1.5192899
1.5196101
1.5196089
1.5192415
1.5235946
1.5236159
1.5204442
1.5203943
1.5239205
1.5239729
1.5206245
1.5205948
1.5242669
1.5242334
1.5207857
1.5208168
1.5183247
1.5183359
1.5181866
1.5182184
1.5183412
1.5178448
1.5178797
1.5168877
1.5168539
1.5179351
1.5168348
1.5168387
1.5179461
1.5179934
1.5180473
1.516854
1.5168256
1.5168703
1.517033
1.5168263
1.5170245
1.5166556
1.5165973
1.5165073
1.5165804
1.5168552
1.5169283
1.5169073
1.5158099
1.5158408
1.5151546
1.5161762
1.5151201
1.5160961
1.5156502
1.5156764
1.5151624
1.5156326
1.5149909
1.5169331
1.5158157
1.5158294
1.51501
1.5151221
1.5151825
1.5150959
1.5156544
1.5169434
1.5169383
1.5169493
1.5148481
1.515137
1.5156567
1.5149349
1.5148398
1.5151675
1.5156244
1.5149158
1.5150643
1.5157988
1.5158231
1.5150844
1.5148248
1.514808
1.5151284
1.5148932
1.5149061
1.514869
1.5148236
1.5151402
1.5148145
1.5146158
1.5148224
1.5148194
1.5149078
1.5148374
1.5147777
1.514777
1.5144118
1.5167753
1.5162255
1.5158826
1.5160224
1.5161377
1.5160206
1.5142634
1.5140908
1.5152942
1.5152327
1.5151133
1.5157936
1.515916
1.5171187
1.5172526
1.5224401
1.5229485
1.5220794
1.5221073
1.5228653
1.5233785
1.5234367
1.5266165
1.526308
1.5263434
1.5237442
1.5236387
1.5261816
1.5243293
1.5242314
1.5242645
1.5241438
1.523971
1.5238233
1.5255932
1.5256162
1.5257995
1.5257799
1.5257131
1.5266742
1.5264899
1.5261698
1.5259646
1.5257881
1.5255881
1.5207148
1.5206178
1.5206698
1.5203236
1.5206188
1.5201975
1.5202888
1.5193322
1.5194157
1.5194174
1.5208247
1.5208829
1.5195038
1.5208327
1.5208184
1.5196379
1.5197883
1.5246627
1.5247353
1.5248125
1.5249106
1.5260494
1.5260765
1.5264433
1.5265964
1.5265205
1.5248363
1.5248389
1.5247785
1.5247333
1.5246202
1.5245292
1.5244883
1.5245785
1.5185462
1.5184163
1.5208679
1.5205896
1.5208274
1.5202558
1.5203504
1.5169744
1.517048
1.5168901
1.5185134
1.5186174
1.5169751
1.5187668
1.5186227
1.5168865
1.5169607
1.5167099
1.5166786
1.5167987
1.5168555
1.5167524
1.5193923
1.5193625
1.5194579
1.5193544
1.5193256
1.5168154
1.5171248
1.5171487
1.51704
1.5170538
1.5169698
1.5169817
1.5170588
1.5169521
1.5170573
1.5162312
1.5161999
1.5167309
1.5166941
1.5161248
1.5161518
1.5160011
1.5160362
1.5167962
1.516768
1.5168212
1.5168391
1.5167769
1.5167717
1.5167623
1.5167005
1.5167355
1.5161357
1.5169088
1.5159785
1.5160082
1.5161471
1.5168927
1.5162642
1.5162554
1.5157758
1.5157463
1.5159737
1.5157674
1.5162125
1.5170711
1.5167332
1.5161511
1.5157469
1.516026
1.5169509
1.5166873
1.5161314
1.5170257
1.5162081
1.5157312
1.5157195
1.516972
1.5169504
1.5166826
1.5170436
1.5169462
1.51697
1.5166812
1.5170314
1.5169473
1.5169553
1.5169566
1.5169545
1.5169525
1.5169482
1.5169399
1.5169439
1.5169437
1.5169389
1.5169258
1.5169277
1.5188698
1.5215456
1.5208042
1.5227497
1.5315813
1.5226161
1.5278968
1.5256872
1.5249135
1.5169564
1.5169859
1.516913
1.5170675
1.519725
1.5194566
1.5193801
1.5195999
1.5196315
1.5181042
1.5180583
1.5170106
1.5169575
1.5180666
1.5180356
1.5180406
1.5180712
1.5197451
1.5239014
1.5194133
1.5204919
1.5177543
1.5179919
1.5246992
1.5254056
1.520181
1.519152
1.5226939
1.5225201
1.5223766
1.5226569
1.5224115
1.5209636
1.5209221
1.5196641
1.5197225
1.5196428
1.520907
1.5196704
1.5209122
1.5208539
1.5208871
1.5196391
1.519586
1.527484
1.5268394
1.527351
1.5277119
1.5269402
1.5266515
1.5240591
1.5244282
1.5242402
1.524181
1.5243304
1.5256767
1.5256706
1.5268578
1.5270849
1.5247253
1.5247648
1.5247664
1.5254665
1.525522
1.5256232
1.525605
1.5249579
1.5249112
1.5257998
1.5247781
1.5249253
1.5257055
1.530205
1.5300169
1.5300814
1.5306588
1.5305398
1.5250942
1.5271676
1.5273446
1.5252388
1.5249653
1.5251579
1.5274072
1.5271894
1.5252923
1.5250805
1.527502
1.527714
1.5316379
1.5318818
1.5317526
1.5314657
1.5315824
1.5320039
1.5321656
1.5320823
1.5320926
1.5318902
1.5320107
1.5319707
1.5318065
1.5318194
1.5317095
1.5316338
1.5317609
1.5275256
1.5278354
1.5278162
1.5275381
1.5275144
1.5293166
1.529517
1.529314
1.5295193
1.5297069
1.5293582
1.5293671
1.529737
1.529436
1.5297876
1.529825
1.5294657
1.5278467
1.52799
1.5279446
1.5278127
1.5278621
1.5304355
1.5303646
1.5288436
1.5288657
1.5305411
1.5287466
1.5287159
1.5304803
1.5287366
1.5303702
1.52873
1.5303029
1.5235338
1.5235267
1.5238728
1.5238696
1.5235566
1.5274057
1.52938
1.5292956
1.5274204
1.5277545
1.5278016
1.5293979
1.5294833
1.5295619
1.5279028
1.5294842
1.5279512
1.5230462
1.5232475
1.5230273
1.5230523
1.5232153
1.5271877
1.5272155
1.5272355
1.5271617
1.5276593
1.5276655
1.5272833
1.5273154
1.5279139
1.5274903
1.5274869
1.5279233
1.5234083
1.5235624
1.523401
1.5235316
1.5233998
1.5279556
1.5288928
1.5288056
1.5279076
1.5281771
1.5290971
1.5290354
1.5281282
1.5291118
1.5291632
1.528367
1.5283479
1.5193511
1.519566
1.5195674
1.5191877
1.519235
1.5203455
1.5235517
1.5235492
1.5203161
1.5238454
1.5238906
1.5205126
1.5204836
1.5241581
1.5241972
1.5207365
1.5206827
1.5183205
1.5183225
1.5181463
1.5181859
1.5183287
1.5177762
1.5168025
1.5168331
1.5178116
1.5178595
1.5178686
1.5168185
1.5167951
1.5178966
1.5167788
1.5168012
1.5179373
1.5168526
1.5167763
1.5164482
1.5165269
1.5168097
1.516623
1.5169922
1.5170062
1.5165627
1.5168547
1.5157502
1.5168839
1.5156231
1.5160953
1.5155829
1.516008
1.5150535
1.5150942
1.5157851
1.5169162
1.5168574
1.5157445
1.5157766
1.5149705
1.5150723
1.5151415
1.5150323
1.5149471
1.5151152
1.5155792
1.5156026
1.5148241
1.5151365
1.5155708
1.5148855
1.5169138
1.5157545
1.5157761
1.5149026
1.514832
1.515044
1.515129
1.5150206
1.5155964
1.5169285
1.5148044
1.5148204
1.5151144
1.5148781
1.514816
1.5148009
1.5151039
1.5148617
1.5148061
1.5147508
1.5148081
1.5148182
1.5150742
1.5148166
1.5147497
1.5147483
1.5149914
1.5240461
1.516903
1.5168432
1.516496
1.5160763
1.5162519
1.5160352
1.5160344
1.5159828
1.5158519
1.5159229
1.5140002
1.515462
1.5154547
1.5141202