/*--------------------------------*- C++ -*----------------------------------*\
  =========                 |
  \\      /  F ield         | OpenFOAM: The Open Source CFD Toolbox
   \\    /   O peration     | Website:  https://openfoam.org
    \\  /    A nd           | Version:  7
     \\/     M anipulation  |
\*---------------------------------------------------------------------------*/
FoamFile
{
    version     2.0;
    format      ascii;
    class       volScalarField;
    location    "9000";
    object      omega;
}
// * * * * * * * * * * * * * * * * * * * * * * * * * * * * * * * * * * * * * //

dimensions      [0 0 -1 0 0 0 0];

internalField   nonuniform List<scalar> 
34387
(
354.56947
345.05125
372.08713
345.29132
368.64267
348.81992
354.21815
357.62505
353.65737
350.60936
341.16619
340.29572
341.48221
343.66699
342.68238
345.09255
343.04407
340.76599
343.17113
367.15115
367.74056
364.94215
344.60097
339.23113
341.84527
344.04322
343.53084
345.61758
346.08288
372.22883
357.09817
370.45624
364.49116
359.61395
365.48747
344.11099
348.06008
348.54927
351.11331
346.00031
354.5619
358.23594
350.90276
348.02588
338.15788
340.21256
338.40126
337.23097
339.16227
341.43061
339.57004
337.65237
339.55605
336.57095
336.92125
339.18826
341.19062
338.7959
338.76318
343.76298
341.70849
337.39942
339.74912
361.85724
362.18848
358.64061
373.34445
359.61533
359.27588
345.38429
340.43888
341.22345
342.46858
342.28389
344.24047
344.606
349.43982
337.30273
339.35487
340.93514
340.41847
342.09496
342.55853
341.83032
341.91547
343.96166
344.11059
373.86282
361.03547
368.25961
369.96481
377.15724
375.37017
348.7924
354.5925
359.45204
355.99871
351.72702
367.31608
362.78737
356.53028
360.48995
340.9571
343.44682
344.33129
345.67125
342.43178
347.42429
345.39638
351.12274
343.07168
391.47183
400.13376
374.19807
366.37992
335.99468
336.8676
338.29574
336.73461
335.28391
334.96874
335.90118
337.35962
336.39393
337.47619
335.98319
333.02506
334.36853
334.57287
335.88553
339.72067
337.98018
334.11164
335.68166
331.2858
351.75118
331.93115
352.99222
360.63526
333.00542
358.42907
333.95726
360.74203
355.57422
351.98344
359.37773
351.50469
362.80962
355.46507
362.19583
354.30776
352.40458
366.34401
362.12977
353.08069
355.21121
349.5845
344.93901
341.35737
342.557
341.77772
344.12496
341.39036
340.45073
342.68355
343.79058
350.02454
338.32224
341.08915
339.62834
338.86318
339.45588
341.11181
340.10022
339.63339
341.14877
342.31603
341.11027
336.70259
337.60528
338.13379
339.37041
338.53926
339.78575
338.35168
338.40112
339.98974
339.84285
352.54987
351.23685
355.75308
356.34716
375.05338
360.59104
377.09878
378.6168
370.75211
369.50462
350.41895
355.77289
356.70805
363.28072
362.00121
368.76308
369.57265
375.98132
375.80522
344.55386
347.88555
351.03818
349.23939
346.63933
353.30272
357.89967
352.77263
349.26395
402.99588
396.00541
383.0912
393.88947
340.41368
338.86933
341.17926
341.87552
339.80166
341.95107
341.36024
344.28724
339.85726
370.37466
359.2687
383.67176
352.80907
425.61343
433.2514
381.97082
370.70717
334.50658
334.92497
334.17486
335.20097
334.3848
333.31376
333.56924
334.66336
335.96255
335.10008
336.50552
332.95741
333.64342
331.88676
332.47388
330.93867
333.53761
334.61763
331.90254
347.04203
342.83964
329.23452
339.96309
329.50262
330.1012
344.69717
330.76852
350.85359
346.1151
342.36909
347.02454
335.25842
345.79644
358.09755
346.71499
364.47447
379.47609
337.99512
350.71292
372.17958
355.49222
366.98613
360.02549
356.57822
366.94535
347.24691
352.80116
349.90165
352.74907
348.62643
347.56652
353.30342
354.85957
348.04626
352.61934
359.3043
349.83951
346.78197
344.41372
347.24235
350.20048
344.6257
339.08583
338.30667
338.53526
340.43505
340.96834
339.3369
337.52933
338.05116
340.05098
342.13254
340.85081
338.03557
342.80692
339.93883
338.36471
335.98705
337.62904
340.26335
341.78679
337.61898
338.36415
337.23272
338.73126
337.24391
337.6261
337.33091
338.52861
336.98557
338.37665
348.73186
348.13502
350.76111
352.65765
344.71658
338.7546
336.50629
336.5928
336.44711
336.7859
337.72357
337.44558
336.14006
337.20635
336.05788
337.1366
343.74469
344.09364
347.30598
346.43569
356.29542
355.11078
364.6957
363.22989
375.87614
360.44989
371.10829
370.42471
378.84088
379.50903
350.16718
356.85668
363.52698
362.66945
356.27115
373.97784
378.5439
372.58815
368.50322
346.04636
349.27515
352.72157
352.36024
349.40668
356.31408
357.21977
363.03465
361.52366
409.15101
404.48951
418.02016
421.67805
341.94746
343.74737
345.72844
344.92861
343.10927
347.1437
349.9693
346.46236
344.20335
368.63529
384.19829
375.77595
364.95273
437.77651
414.76387
413.74364
410.26728
338.86434
339.43122
337.50371
338.85494
338.52418
337.79557
338.62189
340.24898
337.37585
352.21509
348.0047
360.91335
345.24162
375.66571
361.47113
391.1806
353.33141
333.51041
333.01994
333.60827
334.32463
333.14941
332.35085
332.11336
332.94811
333.73875
333.37194
332.01865
332.74308
330.29921
331.97074
329.61494
331.07144
330.25781
331.0513
334.16893
338.43479
342.04404
338.93268
328.7184
328.53113
327.99208
336.46155
327.90777
334.75586
337.33722
339.9106
337.03401
352.31084
345.28724
331.79135
336.98174
341.61187
338.87203
333.36711
340.27489
347.76071
343.25124
353.22835
347.17676
344.0952
350.32985
343.77557
343.79329
345.49814
347.65277
343.75265
344.15375
347.96173
348.13499
344.219
351.10812
371.2125
349.18199
353.53415
354.31936
359.62846
359.07094
346.17011
343.78515
344.6564
342.53329
341.10004
343.16034
345.21851
344.14058
346.96654
366.73991
337.89584
337.97226
336.12961
336.65936
337.45733
335.93136
336.62309
335.15798
335.55298
337.08217
336.43914
335.24033
338.69856
336.85674
339.87332
334.42981
332.99818
335.19284
336.64895
361.31981
336.67961
364.91441
334.60301
338.45014
369.75864
336.70612
347.66336
349.4063
353.43678
354.13403
346.09857
339.15672
337.40114
345.21614
343.02294
336.23874
336.17118
336.95905
336.11893
336.75463
335.95869
335.2292
334.92566
335.91276
343.24989
345.67376
350.89788
349.09719
352.5554
359.15674
345.69529
340.05107
338.38042
336.55894
334.38825
336.13329
335.70085
335.51139
335.55913
336.24627
334.29771
335.15596
335.25988
339.19962
341.37381
338.77263
341.04946
344.70705
344.58847
348.77635
348.40442
376.25288
360.68311
371.87554
380.94884
379.55043
371.00782
349.82905
356.30939
356.75442
363.66643
362.95605
375.8932
373.30258
379.80804
382.49323
345.97593
349.41256
352.54358
352.77703
349.49083
358.49627
364.95601
362.00377
357.64221
402.62089
421.26142
414.92938
397.59144
343.45152
345.08311
347.14276
347.39805
345.46761
350.00722
353.35045
352.64335
349.71437
371.60794
376.70941
390.23275
387.09569
422.43753
417.71175
436.62078
440.68297
340.37085
341.24657
340.732
341.97567
342.47145
343.29774
345.10956
342.50332
340.93123
354.51133
360.51611
357.57582
351.66168
371.48345
390.31119
379.89239
367.37853
342.42718
337.82211
336.62106
337.81459
337.11894
336.47102
337.2039
336.45867
336.84537
335.5912
343.03801
346.91863
341.26035
353.96427
347.49357
364.08831
344.28814
332.85764
332.67857
331.51203
332.14507
333.20534
331.9351
332.73855
332.23615
331.3073
330.88793
332.14596
332.73908
329.80688
330.70142
329.29549
330.02932
328.52172
329.11371
331.43961
334.6419
334.20089
335.56182
327.34952
332.87926
327.33906
326.88055
331.89656
326.7892
332.91513
334.38289
336.18184
337.9365
342.24301
339.6601
335.70337
330.53591
334.01484
333.44498
329.43557
336.3079
332.20595
334.61943
337.24112
340.76815
337.56023
340.83939
343.13702
338.97439
342.0047
342.05468
340.38209
341.84548
343.1566
341.66684
351.01853
369.34203
363.99449
355.49666
351.94906
356.8394
365.52492
344.49605
350.24975
347.1869
347.20418
350.19758
349.87706
350.82016
355.20417
353.56573
360.88042
341.75405
356.209
340.03868
341.13134
339.65239
338.91408
341.67304
340.14538
339.86569
341.77348
357.51172
364.7161
376.69204
349.95426
336.16543
334.64541
335.81944
334.83379
334.07297
335.20692
333.86231
333.41325
334.54453
334.93431
334.96154
334.72392
334.41124
333.27172
333.15351
331.97761
331.05259
333.12725
334.09024
332.99117
352.40715
331.77816
334.65655
359.32936
333.10569
355.73914
345.81498
342.22306
340.99771
344.14874
367.72452
339.4382
360.56105
373.57626
358.11339
364.6067
342.58998
381.45097
364.42517
352.16477
354.11446
370.89743
363.82267
346.87965
341.07442
338.71415
337.43913
345.65297
342.87517
341.19029
335.48846
335.08575
335.7035
335.60342
335.0292
334.50571
333.79224
334.18219
333.48999
339.78942
339.34619
341.1549
343.31015
346.45381
345.56082
340.09366
339.43652
338.42811
336.72693
333.78494
336.39689
335.25074
334.74747
334.79437
335.26559
335.22551
333.25559
333.09877
333.68195
336.42162
337.46048
337.67188
338.48483
341.11881
338.42132
341.08747
376.41801
360.77858
371.05672
372.14449
381.37437
380.22362
349.95797
357.05729
356.54429
363.4193
364.1875
375.54448
382.08309
378.85866
372.93029
345.66003
349.28235
352.6114
352.26487
348.92633
359.30944
360.85768
367.84645
366.1409
413.02132
408.25793
419.09228
425.23718
343.54684
345.29452
347.27765
347.41296
345.52143
351.60741
354.56353
354.92993
351.55081
380.69188
402.15104
388.45513
377.53009
450.99007
507.87189
480.80856
438.08312
341.81235
342.8238
342.61874
344.12462
343.84031
346.05573
348.08934
347.87164
346.01694
359.95771
364.32031
361.91463
355.50333
375.28285
381.37054
400.10457
394.73272
339.40898
339.21295
339.71491
340.49158
340.05616
340.82459
338.62826
339.73871
341.99404
347.87215
350.95633
347.72422
344.981
354.83807
362.13318
358.51267
351.95557
341.98477
340.12059
336.06767
336.10428
336.63599
336.14355
335.67197
336.08551
335.42237
334.28672
334.90592
339.48232
338.58668
338.20826
342.06121
347.54806
340.37868
332.45618
332.09457
330.7654
331.66271
332.45041
331.45012
330.97664
332.07294
331.27973
331.22044
328.4657
329.27416
328.89308
329.82433
331.64105
328.19318
330.50322
330.1877
327.87038
332.23764
332.80168
333.63737
326.48092
331.54555
326.56016
326.21832
330.80791
326.24464
330.32361
331.01201
333.19318
333.77308
333.44344
334.99613
328.53736
330.52159
332.44159
331.26908
327.92116
329.4027
331.20539
329.7634
332.22746
333.89955
335.38881
337.69581
339.58948
338.40073
334.94043
334.5297
336.31334
336.89591
332.49981
339.96945
337.79194
340.32033
339.20589
339.99171
351.56676
369.26438
351.07737
355.80355
354.57755
362.81698
364.0142
360.53098
353.98466
351.57653
346.85993
348.42368
350.00018
353.16531
355.3471
361.99752
341.74915
343.3323
343.22157
345.12727
345.24933
347.90963
345.2411
344.58917
347.14563
361.44324
364.24696
376.12786
370.66744
364.32476
351.76307
358.17028
347.86102
338.74443
337.51936
338.7319
337.73149
337.51857
338.04407
339.1315
338.46467
337.27791
346.37521
351.51528
361.28824
371.52423
353.23413
344.42537
333.64398
332.79783
333.54836
334.25704
333.60891
332.75762
332.16858
333.01701
333.49789
334.06191
333.32819
331.26652
331.62924
332.18221
332.55677
331.69493
329.60209
330.37051
332.38884
340.07515
331.42416
345.95548
330.44257
330.29335
341.91762
329.43109
338.52863
336.25768
337.07663
338.87555
334.68565
348.14538
357.42434
347.12264
353.69327
336.80195
366.20116
351.57298
360.54793
349.78814
344.98468
342.11965
346.43585
359.21598
361.70021
369.5637
402.41066
376.00224
367.7365
368.50641
417.2995
349.1884
340.83064
340.38438
338.71561
337.60376
340.91989
335.07494
334.7975
334.87401
334.47374
334.35286
332.66976
333.2205
332.96445
332.43771
338.28083
337.14255
337.84843
336.57323
339.48558
338.94752
340.90704
345.76902
339.39061
339.48783
339.48598
338.61705
336.95201
335.31084
335.64529
335.00628
334.32556
334.23165
334.59783
334.65546
332.4381
332.29732
332.69967
332.85441
334.34915
334.55017
335.46877
335.6538
336.87276
336.84814
376.86307
360.98417
371.8758
381.84478
380.70894
371.19288
349.90231
363.6386
356.67264
356.91958
364.06993
375.4119
377.77666
384.11788
382.52459
345.74703
349.49563
352.8768
352.42225
349.05598
361.30696
358.84612
365.40733
368.61036
414.91392
423.44962
416.48989
407.96895
343.3994
345.29767
344.95486
346.86278
347.17688
352.966
356.38527
355.7975
352.556
380.55488
393.13057
402.39998
395.09051
496.92459
492.77906
487.5948
497.36822
341.93061
342.90955
342.77261
344.19426
344.02727
347.79352
349.78992
349.56995
347.58388
363.47601
368.33927
370.26704
361.63945
387.32623
443.1358
418.81221
381.29988
340.79973
341.88939
341.1428
341.04763
341.96337
343.20543
343.38142
344.55412
344.63017
351.74849
355.47188
352.20645
350.42777
360.45427
365.49153
362.98955
355.15322
338.84171
339.24902
338.71092
338.29182
338.84678
337.0747
339.10171
339.90627
337.80541
343.92964
341.8801
343.26223
345.67504
347.21436
350.71347
347.46946
344.27214
339.35062
335.74242
335.44678
335.82499
335.4778
335.12399
334.39594
334.88605
333.83316
333.44409
337.36271
336.39701
336.16599
337.12458
338.57115
337.67377
337.28645
332.25328
331.341
331.62495
330.82292
330.43584
330.63542
331.73275
331.98294
331.01489
330.62662
327.36206
328.76288
329.65253
330.90398
328.241
329.19222
328.0237
329.9192
327.63746
331.71637
325.6746
329.78305
325.72148
330.22463
325.96863
325.99043
332.3386
329.47695
331.50726
330.84604
328.9757
331.58066
331.87973
332.70574
327.55477
328.42719
330.71745
328.36628
327.58643
327.33916
329.90314
327.70313
329.72784
330.33846
332.4755
334.12165
334.07174
330.46515
331.70281
332.654
331.89203
329.19159
329.94265
336.66561
336.06795
339.1957
336.21251
338.70509
352.87983
368.64399
362.72569
354.30032
351.41271
355.72154
363.93488
346.09875
350.54234
347.62932
348.77008
351.83961
355.82254
353.89907
361.2563
363.63668
385.36594
371.08124
350.62684
344.16913
346.18463
344.84391
346.7415
348.07874
347.41748
348.43335
351.96524
368.04786
385.04385
340.08496
341.93827
340.68793
340.87538
342.10125
341.05416
341.63369
343.39815
342.7819
357.15628
352.71257
348.46038
353.83687
363.76703
366.39275
380.86547
375.42255
352.89326
347.89946
345.11622
343.02563
336.56341
335.71229
337.14735
336.46314
336.63305
336.61004
337.38367
335.41524
336.34952
342.83696
340.44112
347.61921
353.78614
346.30424
331.31469
331.91082
332.71005
332.99822
333.19845
332.52875
331.97513
332.57869
332.08558
330.00715
330.51967
332.06954
332.64623
330.60186
331.20721
330.61952
328.50142
329.03964
331.13346
337.26587
335.21296
328.3808
334.37476
327.58984
329.31178
337.22264
328.54765
334.56129
332.6137
333.91815
335.71374
340.97415
343.56736
333.19111
349.98523
343.07109
331.78317
339.77556
344.47813
340.31868
340.52704
337.51035
336.82233
339.24435
350.13643
349.98177
354.51394
356.54741
361.3383
356.18926
354.73619
368.19618
384.18185
371.29027
373.2205
380.07068
382.90409
413.63139
347.90252
342.61945
339.97162
340.38472
338.87106
337.83077
334.38029
334.09006
334.86082
333.90689
334.25793
332.10366
332.30514
331.97683
331.77368
335.09167
336.09421
335.46079
334.5414
337.90968
336.68089
337.48713
336.16393
345.91409
339.36005
338.69078
339.54986
339.68685
338.86883
337.21338
334.62845
334.91224
333.93481
334.20231
334.28501
334.06304
331.73938
331.89989
332.16526
332.02631
333.26619
333.28352
333.87386
333.73932
333.61953
333.82906
334.74699
376.98002
361.43183
380.48963
370.96984
372.20154
381.44362
350.12884
356.98315
356.18412
363.37753
364.13976
380.65588
389.92513
386.03332
378.55222
345.59699
349.13674
349.12732
352.58764
352.64319
368.36262
361.26236
361.91802
369.88108
408.24455
416.78774
432.83577
423.81248
343.57404
345.10165
345.50706
346.9849
347.36146
352.92437
356.39002
355.44216
352.32472
382.93999
380.46506
395.70498
400.29834
434.59027
448.75982
459.31057
471.87373
341.87041
342.62468
342.76756
343.7787
344.02
349.16956
348.57703
350.57522
351.11485
365.55461
375.3882
368.22498
361.65496
409.66509
422.42464
462.9302
453.88719
340.91173
341.22403
341.15883
342.06584
342.0235
344.55288
344.86183
345.98823
346.2277
354.10097
358.37544
356.10758
352.77941
366.89947
371.21481
374.91046
363.6673
340.18685
340.68468
340.15134
339.94815
340.55661
342.39523
341.58385
341.20981
342.13086
346.21943
346.31329
348.45865
348.68549
351.93753
355.73628
351.90815
350.69864
338.53503
338.05715
338.45051
338.13796
337.80211
338.49299
337.99413
336.05982
336.54191
339.51815
341.33815
342.54351
340.62777
343.44657
341.28022
342.58278
345.10139
335.58905
335.02698
334.77103
335.04927
335.30666
333.71389
334.03965
333.17929
332.93642
335.10484
335.73512
335.36207
334.62184
336.52843
335.58911
335.40449
336.28788
332.19064
330.2198
331.22149
331.54537
331.71369
330.77985
330.50894
330.57152
331.39908
329.31403
329.48022
327.23341
328.76001
327.10722
328.46545
327.65897
330.21555
330.40462
327.85999
330.86775
325.37833
328.25757
325.39424
330.21229
331.30742
329.16413
325.52642
325.55223
328.734
330.53056
328.56691
330.95324
327.09931
326.84131
329.03877
326.97482
329.37017
327.21732
327.11485
327.20172
331.5149
328.8756
330.88667
330.16033
328.38738
330.92963
330.27627
328.33328
328.02919
327.20303
329.08682
329.73483
327.14009
334.86328
334.24333
333.47125
338.64027
338.05715
354.63318
367.75991
350.99039
355.5285
354.74718
363.07885
363.81688
360.78853
353.9725
350.61015
347.9637
346.5765
348.7559
351.68667
354.52264
361.61009
343.53195
345.0636
344.369
346.10853
346.94771
350.25003
347.08784
348.16714
351.66649
372.23746
371.7243
385.99185
390.31076
393.73082
375.06803
361.25631
343.78562
342.5759
342.50199
343.59691
344.86481
344.42257
343.75094
345.49898
346.34257
356.00171
353.26043
359.67507
372.23007
393.1
339.05729
339.27644
339.08587
339.92614
340.10977
340.29823
339.17745
338.57617
339.75925
342.65977
346.43667
349.22781
344.8174
357.76645
352.16237
347.48759
354.18069
344.99959
342.79241
341.22612
339.76128
335.02048
334.44045
336.11519
335.64116
336.09917
335.6644
336.21669
334.05071
334.68163
337.85795
338.88859
343.17518
340.15157
327.79234
329.74872
331.28161
329.18643
331.79247
331.24877
332.49693
332.60404
332.15713
332.0142
330.80417
331.32682
331.66839
331.61641
329.59695
330.2855
328.15645
330.24882
329.94289
327.43711
331.54316
326.68422
333.64668
334.28434
327.85147
332.50628
327.07375
332.83213
331.17043
331.79582
333.70416
337.58145
334.88121
329.34126
333.28833
334.57139
334.0082
330.36979
336.30352
338.19434
337.26466
334.03545
332.62944
334.46197
335.27181
348.2168
347.55331
347.33351
348.03246
344.48162
343.72954
342.65439
343.68868
359.55275
353.9747
355.96698
382.71735
361.15992
370.20976
383.21795
376.0817
392.07804
403.75693
347.27681
340.94337
341.78634
339.89964
340.56757
339.09727
338.09497
331.74064
331.51717
334.0837
334.78686
333.8745
333.91626
333.68541
331.25149
331.52145
333.73538
334.24416
333.53264
333.1793
334.58625
335.62354
335.08348
334.16203
346.01858
339.30935
338.6768
338.70906
339.76227
339.95008
339.15142
337.49345
334.93487
333.88859
333.82239
334.09333
334.00574
331.57242
331.74398
331.58784
331.47745
332.40207
332.60507
332.95163
332.81988
332.64008
332.66272
333.20042
333.05319
376.49968
361.14244
371.54054
370.61706
380.37502
381.37051
350.29843
356.37003
363.54817
364.50357
357.37117
388.79512
378.71608
377.39219
385.38311
345.93179
348.91562
349.39553
352.87104
352.23937
361.95643
361.25552
369.69313
371.6097
410.09455
435.5445
430.13784
411.7399
343.43926
345.11578
345.11848
346.99843
347.01222
353.05961
352.64822
356.47888
357.29345
390.89792
379.52526
380.30338
395.38523
432.40029
457.46059
490.61971
467.29753
342.1252
343.05075
342.80901
343.94745
344.25291
348.79471
348.74976
350.66075
350.75002
363.64707
370.95159
369.66831
364.42958
393.28279
389.35224
436.62069
414.73536
340.87212
341.11468
341.97739
341.87744
341.05908
345.9595
346.38158
347.19662
347.68134
355.59729
354.59041
357.17464
359.1291
373.70878
384.11633
374.45749
367.8874
340.29084
340.77843
340.2477
340.04904
340.66955
342.97546
342.53888
343.45223
343.84751
347.98236
349.17009
350.154
351.1781
357.55529
361.98613
357.97131
354.72376
339.842
339.30628
339.47909
339.87907
339.70874
340.98399
340.47175
339.95529
340.52624
344.6747
343.34399
343.06092
344.53537
346.83311
346.82727
348.97482
349.2022
338.40479
337.69098
337.95789
337.76306
337.52399
337.21019
337.57992
335.72386
335.44962
340.37994
339.59791
337.83248
338.60984
339.04895
341.10517
342.21497
340.13341
335.56286
334.81006
335.00191
334.78163
334.59318
333.29781
332.54471
332.73948
333.49406
334.21884
334.66348
334.01441
333.62049
334.46049
335.01529
334.68956
333.97832
332.23365
331.32629
331.2357
331.50722
331.6048
330.70396
330.47385
330.12931
330.41918
326.92035
328.26634
329.14119
330.03104
330.1144
327.58178
328.53204
327.5206
327.03246
329.2344
329.67401
329.99024
325.319
327.88864
325.32151
325.29991
327.6322
325.252
328.19282
330.45689
330.71408
328.43349
330.22484
326.46209
326.44073
327.79592
326.36214
329.55836
330.61553
328.4264
326.71471
326.64548
326.72084
327.98689
329.85527
328.02699
326.53719
328.7434
328.812
326.38716
326.64993
328.7967
329.05247
326.58215
332.4614
332.94047
331.49103
329.91393
332.25422
330.96533
338.43366
337.88986
359.11529
367.80955
362.38349
353.82716
350.04481
354.73558
363.10849
346.12823
350.74037
347.95017
348.78567
351.57011
355.98476
355.7921
363.4906
363.08239
386.16719
373.42328
350.79421
347.69661
346.61572
345.13607
344.24466
345.28672
347.06075
348.0985
351.26995
373.54638
389.7605
343.33846
342.16521
341.87416
342.5174
343.81454
344.37072
343.58982
345.30789
346.23367
361.03489
354.59983
353.95257
361.82603
377.81709
375.94659
394.5007
405.5032
362.62993
342.39205
341.30775
341.94112
341.14247
341.48798
341.89346
342.74996
341.69015
342.97465
346.03898
349.4518
352.23133
348.93339
355.78441
352.87926
361.58538
338.66096
338.13029
338.43077
338.20194
338.80109
336.82741
337.39598
338.22433
337.64694
344.19683
342.4102
339.49137
340.95102
341.18587
345.61303
348.39299
343.5367
341.00211
339.49523
338.47915
337.4208
333.96373
333.5734
335.4632
335.81876
335.12441
335.0964
335.47779
333.12014
333.53824
336.21659
336.98682
337.21854
338.36727
326.16178
327.57288
329.76462
326.85144
329.64072
330.09628
328.93441
332.29355
330.97347
332.40191
330.93399
331.78959
332.05064
331.32384
330.88265
330.52174
331.6531
331.40285
330.758
329.69755
327.33875
329.25305
328.68627
329.46896
333.04694
327.17084
330.79527
326.44613
330.38066
332.15841
331.51128
328.07983
329.52984
330.93098
329.36786
333.00527
333.66457
328.59862
331.04432
332.24746
331.2008
332.34275
330.86725
331.62976
333.21373
336.31273
337.0483
334.08918
335.26242
340.10805
339.56784
337.93199
339.45736
352.51565
349.02371
353.52883
349.49081
343.89427
347.73833
356.35042
354.31771
363.61158
366.9868
383.42991
407.03576
347.65389
340.10799
340.03069
341.78737
340.03013
340.82176
339.36381
338.38241
332.95073
331.3648
332.48619
333.93634
334.8137
333.75768
333.57678
333.80447
331.21836
331.09914
330.97297
332.38405
332.77973
333.32579
333.74568
332.97903
332.73163
346.83662
339.16328
338.62551
338.71764
338.89241
340.03611
340.2438
339.44991
337.78923
335.04502
333.95006
333.84554
333.82934
333.99067
331.32838
331.42202
331.42138
331.51351
332.11572
332.38816
332.10547
331.83393
331.91704
332.06217
332.38961
332.25796
376.9364
360.94146
371.47182
381.29533
381.50952
371.41085
349.7272
356.45073
363.78799
363.30456
356.28022
380.09629
376.23128
383.76706
391.88322
345.97174
349.21185
349.58245
353.1802
352.526
361.57668
369.59021
370.29203
363.19413
427.18262
406.18539
410.95956
440.14093
343.90571
347.01854
345.48346
347.32323
345.33797
352.90592
352.88821
357.02618
356.56536
385.65734
379.43933
392.96212
395.68264
445.79039
490.33981
480.98374
444.30809
342.0207
342.82748
342.74146
343.94649
343.92688
348.59318
348.98954
350.98039
350.60145
363.16204
361.71568
369.31407
370.76934
404.95232
388.17849
388.14513
413.56232
341.18846
341.42443
342.26968
342.14743
341.44255
346.08408
346.24255
347.44831
347.33892
355.3571
354.37981
359.02013
358.50672
368.76611
377.61091
376.41487
370.51753
340.2659
340.10075
340.00338
340.6038
340.67069
344.4292
345.3354
345.02741
344.26157
351.10868
352.07332
352.58016
353.5031
363.73317
361.83206
364.00767
367.03543
339.94252
339.38561
339.58573
339.98397
339.80238
342.33926
341.8296
341.29154
341.86961
346.18053
344.96776
346.31789
347.52274
349.96425
352.7817
352.13111
354.92927
339.68353
338.95601
339.05703
339.3491
339.22256
339.15726
339.66793
340.05171
339.52626
342.29996
341.55395
341.22129
342.05133
345.20054
343.85511
343.46068
345.062
338.40381
337.55265
337.71264
337.57367
337.36916
336.75528
336.96466
335.24794
335.06951
338.64758
339.09473
337.22744
336.70877
340.23776
339.45377
337.45242
338.19045
335.63511
334.73483
334.50731
334.67216
334.86555
333.11465
333.20824
332.46963
332.43578
333.67495
333.03645
333.34304
333.97158
333.71474
334.10242
333.37133
333.00208
332.36419
331.31194
331.56594
331.38443
330.3748
330.1607
330.48121
330.69852
331.61515
329.13503
329.14687
329.99515
330.02095
327.52344
328.39375
327.51083
328.20629
326.8576
326.9128
325.26959
327.46363
325.17832
329.30419
330.12853
330.33196
325.21984
327.89841
325.30002
327.68128
327.49769
329.49498
329.08208
329.37872
326.37284
326.09698
327.43808
326.1171
326.35018
325.85208
327.13944
325.97355
327.5973
329.94803
330.13933
327.74578
328.30844
328.35009
325.96609
325.85031
326.18155
328.66388
328.72811
326.18682
329.29886
333.26915
329.54616
329.35689
332.36742
329.98242
339.4135
338.86506
373.01786
367.87221
349.90971
354.46152
353.78831
362.24349
362.95846
362.85458
354.65318
349.72803
345.1291
346.88483
347.85843
350.67708
356.24426
364.65717
343.90542
345.47234
344.97769
346.49697
347.10222
351.79106
348.57358
349.27561
352.50985
372.09763
371.48848
386.13437
388.44163
395.1805
377.51487
361.07637
354.3429
345.90727
344.24623
344.1867
343.11534
342.66932
342.84936
344.14586
344.49687
346.26006
353.58333
360.58548
378.36113
403.31163
342.20409
341.08235
341.45751
340.84541
340.59998
340.96683
341.7791
341.55553
342.85246
347.05152
348.42869
350.83045
349.57275
362.24829
354.18518
353.59253
364.13019
347.3027
345.51634
340.42035
339.68972
340.78948
340.23715
340.88973
340.79757
341.38741
339.78158
340.66198
342.6384
344.13945
344.45116
348.77702
351.60832
347.61577
336.75822
336.25614
337.9079
338.07223
337.54087
337.49715
337.93763
335.60687
336.17917
337.45379
339.84782
341.06469
338.4143
343.43085
341.58447
338.19482
339.56393
338.23886
337.14527
336.54421
333.26494
335.79941
335.06336
334.82547
335.70939
335.05205
334.81737
333.00642
332.52204
332.81277
334.90192
335.58244
335.66173
336.41702
327.18476
327.23034
325.93734
329.2104
329.38437
326.6377
327.63358
329.41455
329.44731
331.78645
331.76427
332.34677
330.72594
331.60282
331.77637
331.02703
330.67552
330.39088
331.27575
331.47086
328.31868
328.90073
330.38987
330.57056
328.52135
329.22253
327.22433
327.09269
329.33799
329.22145
331.24914
331.00069
328.78417
325.76193
326.50178
329.00882
330.53142
332.49615
327.71308
328.43284
330.10306
328.0696
330.0427
331.72189
331.03388
331.79182
332.14803
329.48107
329.5081
334.4015
333.75346
331.35021
331.82948
338.86938
336.47319
340.5809
344.42337
340.13014
342.77109
348.12965
349.36651
343.84811
343.05039
353.3402
364.57701
347.49611
340.27203
339.18511
339.96689
341.99343
340.24156
341.11592
339.65412
338.68507
332.39635
332.0782
331.92162
331.14266
334.92188
333.91058
333.79809
333.55742
333.71585
330.94622
330.92507
331.07762
331.75335
332.09048
331.80207
331.99362
332.36358
346.2524
339.90169
338.43232
338.67618
338.91863
339.1403
340.33971
340.55134
339.76064
338.09542
333.91915
335.22543
333.8564
334.01849
333.98534
331.43927
331.46688
331.28724
331.32227
331.63663
331.74653
331.71878
331.92373
331.62892
331.88567
331.67443
331.382
377.35084
361.50762
381.44681
372.17426
372.8023
382.71194
349.5339
356.31942
356.25315
363.61628
363.7312
379.45777
390.77307
388.81096
379.11918
345.2998
348.72316
352.296
352.19594
348.6884
360.76563
370.8821
367.72509
360.21416
404.8824
402.4246
423.84672
429.14517
343.86564
347.20772
345.44005
345.57077
347.44399
352.47949
353.28035
357.11803
356.13331
387.22016
394.96952
397.39575
388.62964
482.14075
440.37211
444.41917
493.17784
342.57468
343.27364
344.36564
344.27111
343.22718
351.04338
348.83002
350.81514
349.33441
363.8898
363.73696
370.26705
369.49886
397.58577
391.13844
413.37603
417.09887
341.10113
341.30497
342.05784
342.0966
341.32641
346.30773
345.88657
347.55528
347.15993
354.431
354.32505
358.5802
357.49898
367.97154
366.60169
376.03404
377.41897
340.599
340.4135
340.97864
341.01576
340.49374
344.2035
345.09327
345.31439
344.5446
349.70796
351.2954
352.95591
351.44542
361.80987
358.44394
365.14128
363.03942
339.92806
339.33442
339.50587
339.87561
339.76142
343.08558
343.03734
343.61739
343.7097
349.79765
350.83048
349.97519
349.01043
359.25366
361.17627
360.39426
362.1289
339.78844
339.02377
339.17137
339.45957
339.30147
340.47521
340.99696
341.39564
340.8521
345.08386
344.26628
343.1952
343.98894
349.88409
346.62029
348.05502
351.26128
339.66112
338.83932
338.968
339.04388
338.7985
338.67593
339.15294
339.38809
338.8989
340.28345
340.72094
341.08469
340.70676
342.86969
342.14037
341.48648
342.35745
338.49803
337.65488
337.55677
337.32323
337.47306
334.99227
336.65305
336.59332
334.9338
337.89152
338.27522
336.29311
335.97078
338.63645
339.01587
336.93002
336.44052
335.78321
334.76451
334.52577
334.64755
334.85337
333.08973
332.40222
332.43296
333.10832
333.34644
333.51917
332.81041
332.6248
333.28162
332.55461
332.79133
333.53501
332.5656
331.71406
330.57134
330.75678
331.71881
330.46303
331.48969
331.48217
330.27447
329.16129
330.05468
329.16997
326.89237
328.36263
326.90273
328.21592
327.54
327.55714
330.03341
329.23664
329.15301
329.9895
330.08421
325.20739
327.50094
325.3007
327.41364
325.25593
325.34252
327.28817
327.39038
326.31722
325.70782
326.98346
325.69676
328.78101
329.70598
329.87527
325.83285
326.34593
327.36531
325.74403
327.18729
326.99157
328.92973
328.17766
328.2557
325.61856
325.62299
328.10554
327.93931
325.33307
325.5027
328.91967
334.05601
329.14637
329.14257
333.95493
329.40147
341.33416
341.59803
388.2421
368.96755
361.65161
353.02869
349.7599
354.31285
362.80822
344.94479
349.70858
346.83557
347.55417
350.4016
355.80048
354.76576
363.47447
364.7429
381.99664
350.32298