/*--------------------------------*- C++ -*----------------------------------*\
  =========                 |
  \\      /  F ield         | OpenFOAM: The Open Source CFD Toolbox
   \\    /   O peration     | Website:  https://openfoam.org
    \\  /    A nd           | Version:  7
     \\/     M anipulation  |
\*---------------------------------------------------------------------------*/
FoamFile
{
    version     2.0;
    format      ascii;
    class       volScalarField;
    location    "9000";
    object      p;
}
// * * * * * * * * * * * * * * * * * * * * * * * * * * * * * * * * * * * * * //

dimensions      [0 2 -2 0 0 0 0];

internalField   nonuniform List<scalar> 
34387
(
-4.2494942e+106
-4.0225163e+106
-4.0911259e+106
-4.0175498e+106
-4.2353906e+106
-4.0109734e+106
-4.1899827e+106
-4.3138059e+106
-4.3187394e+106
-4.1960466e+106
-3.7994269e+106
-3.9705404e+106
-3.9692803e+106
-4.0858434e+106
-4.0858847e+106
-4.0854722e+106
-3.968478e+106
-3.970958e+106
-4.0858618e+106
-4.0910853e+106
-4.0911052e+106
-3.9764492e+106
-4.0142233e+106
-4.0030522e+106
-3.7948079e+106
-3.9669758e+106
-3.9646507e+106
-4.0816422e+106
-4.083526e+106
-4.2208782e+106
-3.9916933e+106
-4.3045997e+106
-4.1759717e+106
-4.1837478e+106
-4.3086515e+106
-3.788523e+106
-3.955814e+106
-4.0807572e+106
-4.0737124e+106
-3.9633636e+106
-4.1936372e+106
-4.3144399e+106
-4.3188505e+106
-4.1992526e+106
-3.5881129e+106
-3.860479e+106
-3.7488191e+106
-3.7515237e+106
-3.8607937e+106
-3.8593507e+106
-3.7474641e+106
-3.7521855e+106
-3.8613487e+106
-3.9722731e+106
-3.9719865e+106
-3.9723982e+106
-4.0857541e+106
-4.0859128e+106
-4.0877996e+106
-4.0865145e+106
-3.9728499e+106
-3.9740037e+106
-4.0871773e+106
-4.0906236e+106
-4.0910629e+106
-3.9764266e+106
-4.0907221e+106
-3.976478e+106
-3.8623678e+106
-4.0136362e+106
-3.9984876e+106
-3.7923865e+106
-3.963247e+106
-3.9628964e+106
-4.0788822e+106
-4.0800512e+106
-3.9763027e+106
-3.782328e+106
-3.5848036e+106
-3.7473469e+106
-3.7454253e+106
-3.8560451e+106
-3.8582428e+106
-3.9703402e+106
-3.9677336e+106
-4.0814276e+106
-4.0836513e+106
-4.2073984e+106
-3.964622e+106
-4.1684085e+106
-4.1614789e+106
-4.2945327e+106
-4.2989927e+106
-3.7725647e+106
-3.9384934e+106
-4.0569116e+106
-4.0662621e+106
-3.9482681e+106
-4.3055889e+106
-4.1810436e+106
-4.1876374e+106
-4.3093563e+106
-3.5796782e+106
-3.7368249e+106
-3.854218e+106
-3.8471257e+106
-3.7432184e+106
-3.9607574e+106
-4.0819181e+106
-4.0751632e+106
-3.967845e+106
-4.1934857e+106
-4.3144392e+106
-4.3186111e+106
-4.1994196e+106
-3.3859546e+106
-3.5381494e+106
-3.6440795e+106
-3.6467312e+106
-3.5413798e+106
-3.5429123e+106
-3.5399318e+106
-3.6456756e+106
-3.6470658e+106
-3.860679e+106
-3.7520538e+106
-3.7540495e+106
-3.7533259e+106
-3.8620939e+106
-3.8638943e+106
-3.8602121e+106
-3.7509546e+106
-3.7546456e+106
-3.8631953e+106
-3.9744637e+106
-3.972181e+106
-3.9753797e+106
-3.9720702e+106
-4.0853984e+106
-4.0872529e+106
-4.0851687e+106
-4.0884777e+106
-4.087451e+106
-3.9731626e+106
-3.974971e+106
-4.0882201e+106
-4.0905729e+106
-4.0878135e+106
-3.9760817e+106
-4.090657e+106
-3.9764545e+106
-3.8623775e+106
-4.08962e+106
-3.9767709e+106
-3.8624003e+106
-3.753228e+106
-3.99861e+106
-4.0721045e+106
-3.7931691e+106
-3.9553512e+106
-3.9601766e+106
-4.0738214e+106
-3.9624121e+106
-3.9629721e+106
-4.0755328e+106
-4.0783723e+106
-3.9681873e+106
-3.7790822e+106
-3.8548245e+106
-3.7445585e+106
-3.5832752e+106
-3.7440738e+106
-3.8547247e+106
-3.9664469e+106
-3.9662873e+106
-4.0793438e+106
-4.0800272e+106
-3.7629188e+106
-3.5757576e+106
-3.3838035e+106
-3.5371799e+106
-3.6423692e+106
-3.5387547e+106
-3.6441423e+106
-3.7507832e+106
-3.7489571e+106
-3.8569354e+106
-3.8591847e+106
-3.970879e+106
-3.967715e+106
-4.0809234e+106
-4.0838053e+106
-4.1992368e+106
-3.9431554e+106
-4.2914212e+106
-4.2891474e+106
-4.1501547e+106
-4.155435e+106
-3.7515917e+106
-3.9281421e+106
-3.9180168e+106
-4.0388767e+106
-4.047354e+106
-4.1734841e+106
-4.1672403e+106
-4.2956711e+106
-4.2997812e+106
-3.5676638e+106
-3.7225149e+106
-3.8309488e+106
-3.840539e+106
-3.7313236e+106
-3.9445158e+106
-4.0595292e+106
-4.0680732e+106
-3.9535849e+106
-4.3054049e+106
-4.1819028e+106
-4.1874252e+106
-4.3091433e+106
-3.529968e+106
-3.3797575e+106
-3.6404668e+106
-3.6342378e+106
-3.5352073e+106
-3.7410998e+106
-3.855653e+106
-3.849164e+106
-3.7470445e+106
-3.9617405e+106
-4.0825597e+106
-4.0755868e+106
-3.9685004e+106
-4.1935067e+106
-4.3144017e+106
-4.3186119e+106
-4.1994711e+106
-3.1905834e+106
-3.3375516e+106
-3.3387852e+106
-3.4408905e+106
-3.4423677e+106
-3.3410288e+106
-3.3415078e+106
-3.4416472e+106
-3.4393865e+106
-3.5414638e+106
-3.6447065e+106
-3.6473902e+106
-3.6495004e+106
-3.5432821e+106
-3.5436228e+106
-3.5452604e+106
-3.5431322e+106
-3.6462652e+106
-3.6484267e+106
-3.8606168e+106
-3.7522331e+106
-3.7550724e+106
-3.7544554e+106
-3.754739e+106
-3.8638347e+106
-3.8625338e+106
-3.8639449e+106
-3.8600546e+106
-3.7510063e+106
-3.7542974e+106
-3.8635323e+106
-3.9761235e+106
-3.9750467e+106
-3.9722016e+106
-3.9763281e+106
-3.9720619e+106
-4.0853735e+106
-4.0896405e+106
-4.0877618e+106
-4.0851519e+106
-4.0895507e+106
-4.0874886e+106
-3.9731595e+106
-3.975021e+106
-4.0882863e+106
-3.9761071e+106
-3.9750724e+106
-3.862371e+106
-3.9767678e+106
-3.8624139e+106
-3.7532603e+106
-3.9763732e+106
-3.862859e+106
-3.7532139e+106
-3.6491873e+106
-3.9703804e+106
-4.0574017e+106
-3.9406197e+106
-3.7798038e+106
-3.9494157e+106
-4.0659773e+106
-4.0717829e+106
-3.7404557e+106
-3.5839779e+106
-3.7467325e+106
-3.8533174e+106
-3.8487099e+106
-3.8560288e+106
-3.748475e+106
-3.7451592e+106
-3.8551582e+106
-3.9580152e+106
-3.9614682e+106
-3.9624477e+106
-4.0732755e+106
-4.075844e+106
-3.9655015e+106
-3.9652327e+106
-4.0754471e+106
-4.07815e+106
-3.757897e+106
-3.5738474e+106
-3.8554612e+106
-3.7479168e+106
-3.6422107e+106
-3.3825895e+106
-3.5369837e+106
-3.5368637e+106
-3.6414074e+106
-3.747452e+106
-3.8554646e+106
-3.9664582e+106
-3.9663439e+106
-4.0795611e+106
-4.0798372e+106
-3.7359486e+106
-3.5625731e+106
-3.3773187e+106
-3.338637e+106
-3.1890158e+106
-3.3386342e+106
-3.4399906e+106
-3.4391006e+106
-3.5402182e+106
-3.643064e+106
-3.5417689e+106
-3.6447778e+106
-3.751081e+106
-3.749354e+106
-3.8574141e+106
-3.8597563e+106
-3.9709013e+106
-3.9677417e+106
-4.0809227e+106
-4.0838209e+106
-4.1967614e+106
-3.9293448e+106
-4.1427132e+106
-4.1456578e+106
-4.2863644e+106
-4.2847867e+106
-3.7328154e+106
-3.9008843e+106
-4.0236316e+106
-4.0309391e+106
-3.9093282e+106
-4.2932118e+106
-4.2924461e+106
-4.157903e+106
-4.1619483e+106
-3.5534177e+106
-3.7046933e+106
-3.8114988e+106
-3.8219042e+106
-3.7144671e+106
-3.9355833e+106
-3.9265138e+106
-4.0436474e+106
-4.0510143e+106
-4.1745456e+106
-4.1681919e+106
-4.2964147e+106
-4.3001283e+106
-3.3711795e+106
-3.5180151e+106
-3.6212697e+106
-3.6291201e+106
-3.5246816e+106
-3.7274117e+106
-3.8339324e+106
-3.843113e+106
-3.736115e+106
-3.9455036e+106
-4.0604922e+106
-4.0685013e+106
-3.9544585e+106
-4.305404e+106
-4.1819713e+106
-4.1874474e+106
-4.3091077e+106
-3.5331574e+106
-3.4323523e+106
-3.1861188e+106
-3.436254e+106
-3.3319408e+106
-3.3344859e+106
-3.64146e+106
-3.6351136e+106
-3.538545e+106
-3.7416569e+106
-3.8561069e+106
-3.850202e+106
-3.7473247e+106
-3.9618395e+106
-4.0826294e+106
-4.0756682e+106
-3.9685492e+106
-3.0000552e+106
-3.1453241e+106
-3.1431446e+106
-3.2419338e+106
-3.2434544e+106
-3.1447014e+106
-3.1461764e+106
-3.2436921e+106
-3.2435589e+106
-3.3404112e+106
-3.3416301e+106
-3.4412702e+106
-3.443306e+106
-3.4454129e+106
-3.342996e+106
-3.3435116e+106
-3.3436698e+106
-3.4427134e+106
-3.4397772e+106
-3.541959e+106
-3.645114e+106
-3.6471833e+106
-3.6484958e+106
-3.6489114e+106
-3.5457702e+106
-3.543475e+106
-3.5460884e+106
-3.5453864e+106
-3.5434267e+106
-3.6466334e+106
-3.6486304e+106
-3.8606352e+106
-3.7522563e+106
-3.7540086e+106
-3.7546914e+106
-3.7544633e+106
-3.7541111e+106
-3.8633482e+106
-3.86392e+106
-3.8625563e+106
-3.8639462e+106
-3.8600559e+106
-3.7510526e+106
-3.754269e+106
-3.863525e+106
-3.8624267e+106
-3.8638922e+106
-3.753563e+106
-3.8629074e+106
-3.7532473e+106
-3.6491951e+106
-3.8639218e+106
-3.7532271e+106
-3.6491576e+106
-3.5480948e+106
-3.9193139e+106
-3.7584918e+106
-3.9288248e+106
-3.9141522e+106
-4.0303122e+106
-4.0462002e+106
-4.058403e+106
-3.9451915e+106
-3.8340387e+106
-3.7264808e+106
-3.5744586e+106
-3.7353046e+106
-3.8428991e+106
-3.9527521e+106
-4.0661258e+106
-4.0718856e+106
-3.7439923e+106
-3.6390622e+106
-3.3826392e+106
-3.5340123e+106
-3.6425245e+106
-3.5374346e+106
-3.6435949e+106
-3.5380951e+106
-3.5363446e+106
-3.6423695e+106
-3.7492676e+106
-3.7502193e+106
-3.8541595e+106
-3.857958e+106
-3.848722e+106
-3.858018e+106
-3.7518655e+106
-3.7490895e+106
-3.8558986e+106
-3.957906e+106
-3.9640839e+106
-3.9616292e+106
-3.965724e+106
-4.0741538e+106
-4.0727829e+106
-4.0754104e+106
-3.9655039e+106
-3.9655913e+106
-4.0753882e+106
-4.0778351e+106
-3.7285786e+106
-3.5599559e+106
-3.3762029e+106
-3.8555184e+106
-3.7480413e+106
-3.6429739e+106
-3.1883993e+106
-3.4377047e+106
-3.335671e+106
-3.4384781e+106
-3.3373496e+106
-3.5401167e+106
-3.539982e+106
-3.6420027e+106
-3.7477037e+106
-3.8556876e+106
-3.9664609e+106
-3.9663387e+106
-4.0795535e+106
-4.0798344e+106
-3.7141622e+106
-3.5477003e+106
-3.3688103e+106
-3.1844488e+106
-3.3418083e+106
-3.2429708e+106
-2.9989485e+106
-3.1438862e+106
-3.1441418e+106
-3.2428702e+106
-3.3415488e+106
-3.4406015e+106
-3.4398168e+106
-3.5403052e+106
-3.6432048e+106
-3.5418596e+106
-3.6448718e+106
-3.7510901e+106
-3.749354e+106
-3.8574338e+106
-3.8597753e+106
-4.199398e+106
-3.9221054e+106
-4.1394122e+106
-4.2845328e+106
-4.2843307e+106
-4.1404559e+106
-3.7186164e+106
-3.8949185e+106
-3.8892294e+106
-4.0137611e+106
-4.0180187e+106
-4.1513108e+106
-4.1538929e+106
-4.2902745e+106
-4.2886035e+106
-3.539764e+106
-3.6886573e+106
-3.8033327e+106
-3.7943786e+106
-3.6972818e+106
-3.9101602e+106
-4.0295454e+106
-4.036276e+106
-3.918471e+106
-4.2936631e+106
-4.293694e+106
-4.1594033e+106
-4.1628477e+106
-3.3617049e+106
-3.5050175e+106
-3.6058877e+106
-3.6145282e+106
-3.5120708e+106
-3.709971e+106
-3.8154744e+106
-3.8254739e+106
-3.7198196e+106
-3.9364214e+106
-3.927432e+106
-4.0447873e+106
-4.0520247e+106
-4.1746279e+106
-4.1682925e+106
-4.2964666e+106
-4.3001639e+106
-3.1801481e+106
-3.3223835e+106
-3.3272464e+106
-3.4272092e+106
-3.4214696e+106
-3.5210706e+106
-3.6225937e+106
-3.6303533e+106
-3.5277841e+106
-3.7278615e+106
-3.8347955e+106
-3.8439325e+106
-3.7365339e+106
-3.9455875e+106
-4.0605839e+106
-4.068579e+106
-3.9545463e+106
-3.5332449e+106
-3.4329805e+106
-2.9970837e+106
-3.2370584e+106
-3.1389479e+106
-3.1415517e+106
-3.2392098e+106
-3.4366627e+106
-3.3349453e+106
-3.3370734e+106
-3.6417332e+106
-3.635175e+106
-3.5388186e+106
-3.7416743e+106
-3.8561389e+106
-3.8502761e+106
-3.7473539e+106
-2.813592e+106
-2.9539081e+106
-2.955221e+106
-3.0500154e+106
-3.0502447e+106
-3.0507539e+106
-3.0516678e+106
-2.9542919e+106
-2.9546354e+106
-3.1481624e+106
-3.1455544e+106
-3.241998e+106
-3.2440882e+106
-3.2459378e+106
-3.1460155e+106
-3.1455442e+106
-3.1479862e+106
-3.244692e+106
-3.2438805e+106
-3.340642e+106
-3.3418107e+106
-3.4414966e+106
-3.4459206e+106
-3.4435269e+106
-3.4459027e+106
-3.3460095e+106
-3.3432252e+106
-3.3461471e+106
-3.3439779e+106
-3.443117e+106
-3.4401433e+106
-3.5419822e+106
-3.6451662e+106
-3.6471946e+106
-3.6481043e+106
-3.6491098e+106
-3.6487265e+106
-3.5459006e+106
-3.547555e+106
-3.543512e+106
-3.5462869e+106
-3.5453978e+106
-3.5434353e+106
-3.6466484e+106
-3.6486308e+106
-3.7535717e+106
-3.7532633e+106
-3.7546579e+106
-3.7540616e+106
-3.6493619e+106
-3.6491614e+106
-3.5480796e+106
-3.6489453e+106
-3.5480792e+106
-3.4479862e+106
-3.8885582e+106
-4.0000299e+106
-3.8805947e+106
-3.7297444e+106
-3.8956399e+106
-4.0144379e+106
-3.5602192e+106
-3.8095467e+106
-3.7048542e+106
-3.71684e+106
-3.8230415e+106
-3.933717e+106
-3.9197594e+106
-4.0341627e+106
-4.047973e+106
-4.0594119e+106
-3.8354824e+106
-3.9458509e+106
-3.7302146e+106
-3.6261701e+106
-3.5233784e+106
-3.3765635e+106
-3.6338422e+106
-3.5293991e+106
-3.7389898e+106
-3.8437537e+106
-3.9529233e+106
-4.0664314e+106
-4.0718646e+106
-3.7446323e+106
-3.6399023e+106
-3.1884517e+106
-3.4350726e+106
-3.333135e+106
-3.3359563e+106
-3.4364253e+106
-3.335033e+106
-3.3364507e+106
-3.436972e+106
-3.4370615e+106
-3.5372783e+106
-3.6438055e+106
-3.6463523e+106
-3.5394295e+106
-3.5390727e+106
-3.6452113e+106
-3.5401464e+106
-3.5392353e+106
-3.6431269e+106
-3.7525657e+106
-3.750042e+106
-3.7530399e+106
-3.8578676e+106
-3.8548497e+106
-3.8589128e+106
-3.8490266e+106
-3.8585474e+106
-3.7523051e+106
-3.7495914e+106
-3.8563003e+106
-3.9579165e+106
-3.9658779e+106
-3.9649551e+106
-3.9616859e+106
-3.9664716e+106
-4.0746924e+106
-4.0763438e+106
-4.0727728e+106
-4.0760576e+106
-3.9655201e+106
-3.9656454e+106
-4.0754056e+106
-4.0778025e+106
-3.7056567e+106
-3.5442614e+106
-3.3674823e+106
-3.183869e+106
-3.8555243e+106
-3.7480553e+106
-3.6431084e+106
-2.9989021e+106
-3.1431799e+106
-3.2405192e+106
-3.2423326e+106
-3.1439726e+106
-3.4379744e+106
-3.3380879e+106
-3.4389781e+106
-3.3401247e+106
-3.5402214e+106
-3.540065e+106
-3.6421914e+106
-3.7477132e+106
-3.8556964e+106
-3.6981177e+106
-3.5336155e+106
-3.3593249e+106
-3.1787304e+106
-2.9957529e+106
-3.2434813e+106
-3.3419017e+106
-2.8128892e+106
-2.9538981e+106
-2.953682e+106
-3.0504267e+106
-3.0503311e+106
-3.1464492e+106
-3.1465435e+106
-3.2432201e+106
-3.3416872e+106
-3.4407429e+106
-3.4399255e+106
-3.5403158e+106
-3.6432048e+106
-3.5418763e+106
-3.6448804e+106
-4.2062248e+106
-3.9198051e+106
-4.1408271e+106
-4.1392592e+106
-4.2859733e+106
-4.2889739e+106
-3.7097846e+106
-3.8828654e+106
-3.8861521e+106
-4.0108107e+106
-4.0086088e+106
-4.1469364e+106
-4.2875856e+106
-4.2877281e+106
-4.1486458e+106
-3.5282822e+106
-3.676267e+106
-3.7818481e+106
-3.7879371e+106
-3.6818829e+106
-3.9040235e+106
-3.8986287e+106
-4.020069e+106
-4.0239421e+106
-4.1529209e+106
-4.1554697e+106
-4.292161e+106
-4.2904614e+106
-3.3521972e+106
-3.4929612e+106
-3.5916609e+106
-3.5995121e+106
-3.49943e+106
-3.6940815e+106
-3.8077668e+106
-3.7987852e+106
-3.7027409e+106
-3.9110865e+106
-4.0308767e+106
-4.037588e+106
-3.9197887e+106
-4.2937313e+106
-4.2938183e+106
-4.1595376e+106
-4.1629548e+106
-3.1736899e+106
-3.3186404e+106
-3.3143889e+106
-3.4166865e+106
-3.4109214e+106
-3.5081723e+106
-3.6074146e+106
-3.61606e+106
-3.5152186e+106
-3.7103708e+106
-3.8160985e+106
-3.8260166e+106
-3.7202064e+106
-3.9364933e+106
-3.9275125e+106
-4.0448969e+106
-4.0521158e+106
-2.9927875e+106
-3.1356716e+106
-3.1336487e+106
-3.2295057e+106
-3.23305e+106
-3.3247182e+106
-3.3296187e+106
-3.4274444e+106
-3.4216441e+106
-3.5212245e+106
-3.6228151e+106
-3.6305054e+106
-3.5279365e+106
-3.7278896e+106
-3.8348522e+106
-3.8439875e+106
-3.736551e+106
-3.5332696e+106
-3.4332479e+106
-2.8114194e+106
-2.9511293e+106
-3.046608e+106
-3.049261e+106
-2.9533795e+106
-3.2373392e+106
-3.1414695e+106
-3.1439793e+106
-3.2392634e+106
-3.4369592e+106
-3.3351994e+106
-3.3373015e+106
-3.6417631e+106
-3.6351828e+106
-3.5388455e+106
-2.6303537e+106
-2.7680714e+106
-2.7701653e+106
-2.7685796e+106
-2.8627724e+106
-2.8626756e+106
-2.7689667e+106
-2.8630873e+106
-2.8625606e+106
-2.9561226e+106
-2.9565799e+106
-2.9544379e+106
-3.0503763e+106
-3.0511998e+106
-3.0500454e+106
-3.0511781e+106
-3.0516648e+106
-2.9564971e+106
-2.9558743e+106
-3.1482559e+106
-3.145695e+106
-3.2422102e+106
-3.2456561e+106
-3.2442707e+106
-3.2458735e+106
-3.1465975e+106
-3.1460828e+106
-3.147082e+106
-3.1480163e+106
-3.2448234e+106
-3.2440433e+106
-3.3406644e+106
-3.3418264e+106
-3.4415106e+106
-3.4476044e+106
-3.4462329e+106
-3.4435517e+106
-3.4462552e+106
-3.3470966e+106
-3.3462011e+106
-3.3432478e+106
-3.3464123e+106
-3.343994e+106
-3.4431477e+106
-3.4401609e+106
-3.6481024e+106
-3.6489297e+106
-3.649332e+106
-3.6487334e+106
-3.5459355e+106
-3.5478097e+106
-3.5480432e+106
-3.546319e+106
-3.548067e+106
-3.5480609e+106
-3.4479716e+106
-3.5478383e+106
-3.4479881e+106
-3.3470437e+106
-3.8703039e+106
-3.7071019e+106
-3.8676182e+106
-3.8570175e+106
-3.976736e+106
-3.9869857e+106
-4.0072214e+106
-3.8904072e+106
-3.7812939e+106
-3.5438406e+106
-3.6812781e+106
-3.6931792e+106
-3.7950251e+106
-3.9038552e+106
-4.0200616e+106
-3.3676579e+106
-3.5170283e+106
-3.509896e+106
-3.6084811e+106
-3.6181057e+106
-3.8113581e+106
-3.7084105e+106
-3.7201682e+106
-3.8244543e+106
-3.9341303e+106
-3.9203345e+106
-4.0349715e+106
-4.0490032e+106
-4.0594864e+106
-3.8358895e+106
-3.9458981e+106
-3.7305795e+106
-3.6268556e+106
-3.5262069e+106
-3.4267569e+106
-3.3272358e+106
-3.184307e+106
-3.3307558e+106
-3.4313325e+106
-3.6345769e+106
-3.5321574e+106
-3.7394844e+106
-3.8441112e+106
-3.9529668e+106
-4.0664513e+106
-3.7447047e+106
-3.6406269e+106
-2.9997046e+106
-3.1426576e+106
-3.1405051e+106
-3.2383135e+106
-3.2393663e+106
-3.1428454e+106
-3.1431198e+106
-3.2398486e+106
-3.2401735e+106
-3.4349322e+106
-3.335342e+106
-3.3374816e+106
-3.3371106e+106
-3.4369376e+106
-3.4389075e+106
-3.337268e+106
-3.3380741e+106
-3.4375913e+106
-3.4368742e+106
-3.5375934e+106
-3.6463938e+106
-3.6443371e+106
-3.6464506e+106
-3.5412901e+106
-3.539424e+106
-3.5412188e+106
-3.6453416e+106
-3.5400876e+106
-3.539276e+106
-3.6434377e+106
-3.7526583e+106
-3.7526578e+106
-3.7500904e+106
-3.7528169e+106
-3.8585103e+106
-3.858299e+106
-3.8549258e+106
-3.8592748e+106
-3.8490933e+106
-3.8585868e+106
-3.7523173e+106
-3.7496243e+106
-3.8563421e+106
-3.965902e+106
-3.9657518e+106
-3.9650232e+106
-3.9665041e+106
-4.0747409e+106
-4.0761438e+106
-4.0767525e+106
-4.0761122e+106
-3.6886512e+106
-3.5296581e+106
-3.3578585e+106
-3.1781797e+106
-2.9955518e+106
-3.6431193e+106
-2.8131489e+106
-3.050454e+106
-3.0505338e+106
-2.9545802e+106
-2.9536556e+106
-3.1455999e+106
-3.2405389e+106
-3.242732e+106
-3.1466399e+106
-3.4380682e+106
-3.3381465e+106
-3.4390612e+106
-3.3401929e+106
-3.540226e+106
-3.5400709e+106
-3.6422003e+106
-3.6877706e+106
-3.5218505e+106
-3.3498846e+106
-3.1723447e+106
-2.991757e+106
-2.8103896e+106
-3.2436239e+106
-3.341909e+106
-2.6296941e+106
-2.7691611e+106
-2.7685928e+106
-2.8627799e+106
-2.8628355e+106
-2.9561255e+106
-2.9557486e+106
-3.0503935e+106
-3.050406e+106
-3.1465728e+106
-3.1466858e+106
-3.2433722e+106
-3.3416951e+106
-3.4407574e+106
-3.4399377e+106
-4.2150786e+106
-3.920971e+106
-4.1458125e+106
-4.2984703e+106
-4.2935755e+106
-4.1425917e+106
-3.705239e+106
-4.0079193e+106
-3.8804596e+106
-3.8813933e+106
-4.0076128e+106
-4.1470956e+106
-4.1458116e+106
-4.288204e+106
-4.2908007e+106
-3.5201013e+106
-3.6693758e+106
-3.7748903e+106
-3.7783132e+106
-3.6723086e+106
-3.8929203e+106
-3.8959484e+106
-4.0170702e+106
-4.0145169e+106
-4.1467649e+106
-4.2888012e+106
-4.2893394e+106
-4.1498051e+106
-3.3438616e+106
-3.4831639e+106
-3.4875837e+106
-3.5855909e+106
-3.580416e+106
-3.6815872e+106
-3.7861745e+106
-3.791923e+106
-3.6869034e+106
-3.9046037e+106
-3.8992656e+106
-4.0209814e+106
-4.0248836e+106
-4.1530463e+106
-4.1556002e+106
-4.2922963e+106
-4.2906e+106
-3.1669956e+106
-3.3102455e+106
-3.3055237e+106
-3.4063195e+106
-3.4008255e+106
-3.4959387e+106
-3.5930677e+106
-3.6008432e+106
-3.5024586e+106
-3.6944127e+106
-3.8085463e+106
-3.7993565e+106
-3.7030057e+106
-3.9111564e+106
-4.0309809e+106
-4.0377089e+106
-3.9198797e+106
-2.9880211e+106
-3.2230934e+106
-3.1277944e+106
-3.1303729e+106
-3.2262695e+106
-3.3209985e+106
-3.3168917e+106
-3.4168051e+106
-3.4111212e+106
-3.5083045e+106
-3.6077506e+106
-3.6164085e+106
-3.5153632e+106
-3.7103995e+106
-3.81615e+106
-3.8260619e+106
-3.7202395e+106
-2.8083067e+106
-3.0419231e+106
-2.9463803e+106
-2.9488899e+106
-3.043748e+106
-3.1378268e+106
-3.1360959e+106
-3.2295438e+106
-3.2329467e+106
-3.3248314e+106
-3.3298032e+106
-3.4276632e+106
-3.421804e+106
-3.5212412e+106
-3.6228351e+106
-3.6305186e+106
-3.5279579e+106
-3.4332797e+106
-2.6286923e+106
-2.766427e+106
-2.8604541e+106
-2.8619857e+106
-2.7671792e+106
-2.9534751e+106
-3.0466983e+106
-3.0494641e+106
-2.9557928e+106
-3.2375835e+106
-3.1416649e+106
-3.1441243e+106
-3.2394626e+106
-3.4369843e+106
-3.3352209e+106
-3.3373222e+106
-2.4497895e+106
-2.5851085e+106
-2.6787216e+106
-2.6789234e+106
-2.5864347e+106
-2.5870952e+106
-2.586253e+106
-2.6789122e+106
-2.6781455e+106
-2.7701219e+106
-2.7715123e+106
-2.7699758e+106
-2.770491e+106
-2.8624105e+106
-2.8628013e+106
-2.8637437e+106
-2.769988e+106
-2.8627021e+106
-2.8629437e+106
-2.9562132e+106
-2.9555945e+106
-2.9566034e+106
-2.9555924e+106
-3.0503993e+106
-3.0501948e+106
-3.0504479e+106
-3.0501681e+106
-3.0512391e+106
-3.0517934e+106
-2.956606e+106
-2.9559467e+106
-3.1482632e+106
-3.1457079e+106
-3.2422327e+106
-3.2458948e+106
-3.2456939e+106
-3.2442817e+106
-3.2458774e+106
-3.1465956e+106
-3.1466272e+106
-3.1460898e+106
-3.1470727e+106
-3.1480154e+106
-3.2448327e+106
-3.2440567e+106
-3.4479023e+106
-3.4479044e+106
-3.4462533e+106
-3.4462777e+106
-3.3469529e+106
-3.3471342e+106
-3.3462054e+106
-3.346415e+106
-3.4478994e+106
-3.4479768e+106
-3.3470328e+106
-3.4479068e+106
-3.3470464e+106
-3.2458527e+106
-3.8603739e+106
-3.9645213e+106
-3.8423348e+106
-3.6905187e+106
-3.8489301e+106
-3.9693907e+106
-3.528704e+106
-3.7594981e+106
-3.662359e+106
-3.6717214e+106
-3.7697388e+106
-3.8781779e+106
-3.8684612e+106
-3.9852996e+106
-3.995107e+106
-4.0080083e+106
-3.8911185e+106
-3.784325e+106
-3.3576897e+106
-3.5021448e+106
-3.4943337e+106
-3.5893462e+106
-3.5992909e+106
-3.6849197e+106
-3.6967237e+106
-3.7973888e+106
-3.9043692e+106
-4.0210641e+106
-3.1786955e+106
-3.4159419e+106
-3.3183165e+106
-3.3233054e+106
-3.4216984e+106
-3.5195193e+106
-3.5124561e+106
-3.6089912e+106
-3.618482e+106
-3.8119003e+106
-3.7087733e+106
-3.7204541e+106
-3.824668e+106
-3.9341802e+106
-3.9204086e+106
-4.0350579e+106
-4.0490691e+106
-3.8359338e+106
-3.730627e+106
-3.6272505e+106
-3.5264825e+106
-3.426697e+106
-3.3294055e+106
-3.233617e+106
-3.1369027e+106
-2.9963181e+106
-3.1390145e+106
-3.2362672e+106
-3.3328344e+106
-3.4312398e+106
-3.6350708e+106
-3.5324629e+106
-3.7395362e+106
-3.8441698e+106
-3.6406729e+106
-2.9555927e+106
-2.9560042e+106
-2.9540332e+106
-2.8141313e+106
-3.048975e+106
-3.0496155e+106
-3.0495684e+106
-3.0507103e+106
-2.9548553e+106
-3.1441554e+106
-3.1429724e+106
-3.1428147e+106
-3.2380221e+106
-3.240084e+106
-3.2413599e+106
-3.1452911e+106
-3.1446591e+106
-3.2406353e+106
-3.2399495e+106
-3.4350438e+106
-3.3354766e+106
-3.3393839e+106
-3.337622e+106
-3.3395219e+106
-3.439057e+106
-3.4368833e+106
-3.4391237e+106
-3.3373123e+106
-3.3382541e+106
-3.4376193e+106
-3.436859e+106
-3.5376053e+106
-3.646159e+106
-3.6475825e+106
-3.6443427e+106
-3.6460422e+106
-3.5435988e+106
-3.5412349e+106
-3.5394142e+106
-3.5411974e+106
-3.6453346e+106
-3.5400848e+106
-3.5392753e+106
-3.6434519e+106
-3.7524985e+106
-3.7526327e+106
-3.7526389e+106
-3.752773e+106
-3.8585271e+106
-3.8581913e+106
-3.8577195e+106
-3.8592633e+106
-3.9658617e+106
-3.9658629e+106
-3.9657107e+106
-4.0761075e+106
-4.0764294e+106
-4.0767695e+106
-3.677421e+106
-3.5174978e+106
-3.3483276e+106
-3.1718584e+106
-2.9916694e+106
-2.8104457e+106
-2.8637208e+106
-2.7695844e+106
-2.6302535e+106
-2.7690284e+106
-2.8626612e+106
-3.0504912e+106
-3.0506247e+106
-2.9568194e+106
-2.9558294e+106
-3.1456654e+106
-3.2406044e+106
-3.2428006e+106
-3.1467243e+106
-3.4380694e+106
-3.3381479e+106
-3.4390666e+106
-3.3401969e+106
-3.6818669e+106
-3.5131547e+106
-3.3414713e+106
-3.1658304e+106
-2.9872706e+106
-2.8074244e+106
-2.6277284e+106
-3.2436308e+106
-2.449019e+106
-2.5854913e+106
-2.6788006e+106
-2.6791941e+106
-2.5855446e+106
-2.7713796e+106
-2.7706673e+106
-2.862672e+106
-2.8627372e+106
-2.9562045e+106
-2.955853e+106
-3.0505166e+106
-3.050498e+106
-3.1465796e+106
-3.1466949e+106
-3.2433795e+106
-4.2174645e+106
-3.9237097e+106
-4.3088938e+106
-4.1520944e+106
-4.1494358e+106
-4.3031879e+106
-3.7036325e+106
-3.8812784e+106
-3.88014e+106
-4.0082455e+106
-4.0102679e+106
-4.1516922e+106
-4.3003122e+106
-4.2956238e+106
-4.1485254e+106
-3.515042e+106
-3.6673511e+106
-3.6660447e+106
-3.7718324e+106
-3.7730739e+106
-4.0131255e+106
-3.8905584e+106
-3.8915235e+106
-4.0130801e+106
-4.146176e+106
-4.1451971e+106
-4.2886731e+106
-4.2910987e+106
-3.3371476e+106
-3.4790814e+106
-3.4763852e+106
-3.5764181e+106
-3.5734618e+106
-3.6753182e+106
-3.7800193e+106
-3.782978e+106
-3.6777297e+106
-3.8942637e+106
-3.8966343e+106
-4.0176769e+106
-4.0148291e+106
-4.1468019e+106
-4.2888467e+106
-4.2894544e+106
-4.1498973e+106
-3.1608582e+106
-3.3026231e+106
-3.2984993e+106
-3.3966314e+106
-3.3924421e+106
-3.4862884e+106
-3.490511e+106
-3.5868088e+106
-3.5819056e+106
-3.6819937e+106
-3.7866942e+106
-3.792338e+106
-3.6872178e+106
-3.9046666e+106
-3.8993298e+106
-4.021064e+106
-4.0249773e+106
-2.9831075e+106
-3.12152e+106
-3.1243203e+106
-3.2192857e+106
-3.2154825e+106
-3.3127465e+106
-3.3080164e+106
-3.4065587e+106
-3.4010785e+106
-3.4960573e+106
-3.5932573e+106
-3.6008723e+106
-3.5024848e+106
-3.6944383e+106
-3.8085929e+106
-3.7994004e+106
-3.7030216e+106
-2.8046056e+106
-3.0367056e+106
-2.9416385e+106
-2.9439322e+106
-3.0390056e+106
-3.2233019e+106
-3.1303022e+106
-3.1325702e+106
-3.2262074e+106
-3.3210054e+106
-3.3169087e+106
-3.4168053e+106
-3.4111499e+106
-3.5083077e+106
-3.6077671e+106
-3.6164277e+106
-3.5153679e+106
-2.6263253e+106
-2.7625413e+106
-2.8561381e+106
-2.8586904e+106
-2.7650577e+106
-3.0417343e+106
-2.9483574e+106
-2.95094e+106
-3.0434577e+106
-3.1379413e+106
-3.1361619e+106
-3.2296373e+106
-3.2331035e+106
-3.3248419e+106
-3.3298205e+106
-3.4276856e+106
-3.4218173e+106
-2.4480013e+106
-2.5847517e+106
-2.5861367e+106
-2.6781858e+106
-2.6773778e+106
-2.7686617e+106
-2.8604333e+106
-2.8618577e+106
-2.7692197e+106
-2.9536295e+106
-3.0468822e+106
-3.0496005e+106
-2.9559158e+106
-3.2376009e+106
-3.1416815e+106
-3.1441382e+106
-3.2394803e+106
-2.2712193e+106
-2.4068007e+106
-2.4059544e+106
-2.4060969e+106
-2.4981725e+106
-2.498431e+106
-2.408357e+106
-2.4971231e+106
-2.4972293e+106
-2.5867335e+106
-2.6781045e+106
-2.679101e+106
-2.6798032e+106
-2.5873917e+106
-2.5865889e+106
-2.5885377e+106
-2.5884956e+106
-2.6786463e+106
-2.6783875e+106
-2.7702078e+106
-2.7714347e+106
-2.7715321e+106
-2.7711938e+106
-2.7705629e+106
-2.8625102e+106
-2.8628844e+106
-2.862939e+106
-2.8630666e+106
-2.7700742e+106
-2.8627968e+106
-2.8629891e+106
-2.9562193e+106
-2.9556048e+106
-2.9554392e+106
-2.9566043e+106
-2.9556302e+106
-3.0504024e+106
-3.0501812e+106
-3.0501599e+106
-3.0504469e+106
-3.0501762e+106
-3.0512397e+106
-3.0518002e+106
-2.956612e+106
-2.9559503e+106
-3.245708e+106
-3.2458069e+106
-3.2456901e+106
-3.2458735e+106
-3.1465991e+106
-3.1466481e+106
-3.1466328e+106
-3.147073e+106
-3.3469321e+106
-3.3470406e+106
-3.3471192e+106
-3.245846e+106
-3.2458455e+106
-3.1466998e+106
-3.855355e+106
-3.6794347e+106
-3.8379829e+106
-3.8346033e+106
-3.9585112e+106
-3.9609196e+106
-3.9742861e+106
-3.8541559e+106
-3.7448786e+106
-3.6490725e+106
-3.5163735e+106
-3.6555192e+106
-3.7516541e+106
-3.8604848e+106
-3.9788758e+106
-3.3478091e+106
-3.487456e+106
-3.481083e+106
-3.5733788e+106
-3.5814231e+106
-3.7633405e+106
-3.6661916e+106
-3.6753607e+106
-3.7730879e+106
-3.8792363e+106
-3.8698163e+106
-3.9861906e+106
-3.9959172e+106
-4.0081293e+106
-3.8911971e+106
-3.7849646e+106
-3.4039476e+106
-3.3093665e+106
-3.1723586e+106
-3.3141883e+106
-3.4100653e+106
-3.5041829e+106
-3.496347e+106
-3.589246e+106
-3.5992644e+106
-3.6851868e+106
-3.696972e+106
-3.7977157e+106
-3.9044404e+106
-4.0211682e+106
-2.9926685e+106
-3.1345858e+106
-3.1317955e+106
-3.2264911e+106
-3.2304818e+106
-3.4156832e+106
-3.3202391e+106
-3.3252911e+106
-3.4214888e+106
-3.5197079e+106
-3.5125652e+106
-3.6092216e+106
-3.618793e+106
-3.8119533e+106
-3.7088029e+106
-3.7204991e+106
-3.824712e+106
-3.6272939e+106
-3.526511e+106
-3.4269264e+106
-3.3295549e+106
-3.2332763e+106
-3.1390018e+106
-3.0454823e+106
-2.950532e+106
-2.8114732e+106
-2.9517353e+106
-3.04707e+106
-3.1410299e+106
-3.2359401e+106
-3.3329749e+106
-3.431434e+106
-3.6351103e+106
-3.5324907e+106
-2.956743e+106
-2.9561522e+106
-2.8636127e+106
-2.9573481e+106
-2.863688e+106
-2.9564694e+106
-2.8632243e+106
-2.6310031e+106
-2.7683552e+106
-2.8644841e+106
-2.7703069e+106
-2.7697529e+106
-2.7700879e+106
-3.0489114e+106
-3.0500221e+106
-3.0508656e+106
-3.049794e+106
-3.0505718e+106
-2.9571265e+106
-3.1440196e+106
-3.1442795e+106
-3.144043e+106
-3.1430098e+106
-3.2382372e+106
-3.2411099e+106
-3.2403285e+106
-3.2412241e+106
-3.1453647e+106
-3.1447177e+106
-3.240845e+106
-3.2400736e+106
-3.4350552e+106
-3.3354981e+106
-3.3404752e+106
-3.3397027e+106
-3.3376524e+106
-3.3399807e+106
-3.4413433e+106
-3.4392562e+106
-3.4368965e+106
-3.4394683e+106
-3.3373187e+106
-3.3382764e+106
-3.4376343e+106
-3.4368586e+106
-3.6461392e+106
-3.6480108e+106
-3.6480837e+106
-3.6460214e+106
-3.5444233e+106
-3.5443947e+106
-3.5412609e+106
-3.5412324e+106
-3.7525124e+106
-3.7525562e+106
-3.7526587e+106
-3.8581797e+106
-3.8578383e+106
-3.8576708e+106
-3.9658636e+106
-3.9658354e+106
-4.0764091e+106
-4.0764691e+106
-3.6706128e+106
-3.5083167e+106
-3.339803e+106
-3.1653934e+106
-2.9873402e+106
-2.8076146e+106
-2.6279444e+106
-2.8636543e+106
-2.7717594e+106
-2.6800479e+106
-2.4495881e+106
-2.5870744e+106
-2.6799088e+106
-2.586903e+106
-2.7712863e+106
-2.8625358e+106
-3.0506116e+106
-3.0507309e+106
-2.9569173e+106
-2.9559364e+106
-3.1456685e+106
-3.2406066e+106
-3.2428035e+106
-3.1467288e+106
-3.6791182e+106
-3.5073932e+106
-3.334632e+106
-3.1597722e+106
-2.9826146e+106
-2.804066e+106
-2.6253602e+106
-2.4472607e+106
-2.2705525e+106
-2.4053243e+106
-2.4057827e+106
-2.4969813e+106
-2.4972039e+106
-2.5873336e+106
-2.6786141e+106
-2.6790251e+106
-2.5873447e+106
-2.7714068e+106
-2.7707535e+106
-2.8627667e+106
-2.8628055e+106
-2.9562098e+106
-2.9558599e+106
-3.0505245e+106
-3.0505032e+106
-4.2145293e+106
-3.9233817e+106
-4.1541001e+106
-4.1538716e+106
-4.311094e+106
-4.3122003e+106
-3.7034202e+106
-3.8832946e+106
-4.0141776e+106
-4.0127512e+106
-3.8826064e+106
-4.3101471e+106
-4.1576233e+106
-4.1551554e+106
-4.3039373e+106
-3.512235e+106
-3.6652243e+106
-3.6646849e+106
-3.7715781e+106
-3.7710915e+106
-3.8910651e+106