/*--------------------------------*- C++ -*----------------------------------*\
  =========                 |
  \\      /  F ield         | OpenFOAM: The Open Source CFD Toolbox
   \\    /   O peration     | Website:  https://openfoam.org
    \\  /    A nd           | Version:  7
     \\/     M anipulation  |
\*---------------------------------------------------------------------------*/
FoamFile
{
    version     2.0;
    format      ascii;
    class       volScalarField;
    location    "9000";
    object      pMean;
}
// * * * * * * * * * * * * * * * * * * * * * * * * * * * * * * * * * * * * * //

dimensions      [0 2 -2 0 0 0 0];

internalField   nonuniform List<scalar> 
34387
(
-1.1073218e+103
-1.0755966e+103
-1.0860291e+103
-1.0734703e+103
-1.1081921e+103
-1.0737213e+103
-1.1014356e+103
-1.1153568e+103
-1.1146913e+103
-1.101937e+103
-1.0478489e+103
-1.0703508e+103
-1.0716169e+103
-1.0819012e+103
-1.0827905e+103
-1.0820006e+103
-1.071459e+103
-1.0695062e+103
-1.0819724e+103
-1.0860222e+103
-1.0860123e+103
-1.0694454e+103
-1.0731687e+103
-1.0687753e+103
-1.046705e+103
-1.0699843e+103
-1.0702249e+103
-1.0815405e+103
-1.0811054e+103
-1.1086763e+103
-1.0751441e+103
-1.117769e+103
-1.1008947e+103
-1.1007013e+103
-1.114885e+103
-1.0483675e+103
-1.0689253e+103
-1.0804679e+103
-1.0795108e+103
-1.0699425e+103
-1.1005869e+103
-1.1179657e+103
-1.1170372e+103
-1.1006877e+103
-1.0204466e+103
-1.0535114e+103
-1.0430329e+103
-1.0410255e+103
-1.0526246e+103
-1.0531179e+103
-1.0431868e+103
-1.0428908e+103
-1.0528048e+103
-1.0702377e+103
-1.0691649e+103
-1.0709616e+103
-1.083834e+103
-1.0848884e+103
-1.0844695e+103
-1.0837234e+103
-1.070533e+103
-1.0686431e+103
-1.0837905e+103
-1.086023e+103
-1.0860023e+103
-1.0694297e+103
-1.0858253e+103
-1.069442e+103
-1.0545403e+103
-1.0742573e+103
-1.0685789e+103
-1.0462577e+103
-1.0694868e+103
-1.0692592e+103
-1.0806644e+103
-1.081371e+103
-1.0738267e+103
-1.0472268e+103
-1.0203332e+103
-1.0422509e+103
-1.0415193e+103
-1.0512118e+103
-1.051622e+103
-1.0688382e+103
-1.0696306e+103
-1.0844798e+103
-1.0836472e+103
-1.1046379e+103
-1.0727823e+103
-1.0977276e+103
-1.096839e+103
-1.1166031e+103
-1.1160572e+103
-1.0508968e+103
-1.0672719e+103
-1.0779355e+103
-1.0789686e+103
-1.0683805e+103
-1.1213786e+103
-1.1005196e+103
-1.0998569e+103
-1.1174406e+103
-1.0216619e+103
-1.0422703e+103
-1.0520343e+103
-1.0508107e+103
-1.0430808e+103
-1.0678263e+103
-1.0825437e+103
-1.0819616e+103
-1.0690487e+103
-1.1005087e+103
-1.1178844e+103
-1.117042e+103
-1.1005421e+103
-9.9298704e+102
-1.0157794e+103
-1.0251713e+103
-1.0259644e+103
-1.0141937e+103
-1.0149318e+103
-1.0147943e+103
-1.0244864e+103
-1.0246797e+103
-1.056101e+103
-1.0417728e+103
-1.0399548e+103
-1.0403123e+103
-1.0541568e+103
-1.0540737e+103
-1.0553622e+103
-1.0419195e+103
-1.0424954e+103
-1.054395e+103
-1.0694347e+103
-1.0703228e+103
-1.0691133e+103
-1.0707588e+103
-1.0838741e+103
-1.0852832e+103
-1.0849681e+103
-1.0853972e+103
-1.0837093e+103
-1.0703146e+103
-1.0684364e+103
-1.0838729e+103
-1.0860016e+103
-1.0851973e+103
-1.0694189e+103
-1.085827e+103
-1.0694241e+103
-1.0545347e+103
-1.0853232e+103
-1.0694124e+103
-1.0545411e+103
-1.0405884e+103
-1.0711434e+103
-1.0816811e+103
-1.0462734e+103
-1.0692356e+103
-1.0685305e+103
-1.0815247e+103
-1.0696138e+103
-1.0688665e+103
-1.0806276e+103
-1.0816691e+103
-1.077117e+103
-1.0475001e+103
-1.0508532e+103
-1.0412595e+103
-1.0204691e+103
-1.040329e+103
-1.0503435e+103
-1.0686029e+103
-1.0683563e+103
-1.0826396e+103
-1.083981e+103
-1.0507243e+103
-1.0209629e+103
-9.9329827e+102
-1.0135494e+103
-1.0231102e+103
-1.014963e+103
-1.0243277e+103
-1.0409755e+103
-1.0401552e+103
-1.0536214e+103
-1.0538642e+103
-1.0686884e+103
-1.0694945e+103
-1.084652e+103
-1.0837146e+103
-1.098989e+103
-1.0767374e+103
-1.1143438e+103
-1.1133216e+103
-1.0916818e+103
-1.0937987e+103
-1.0520194e+103
-1.0643656e+103
-1.0644142e+103
-1.0745948e+103
-1.0745876e+103
-1.0977923e+103
-1.0969837e+103
-1.1206612e+103
-1.1201501e+103
-1.0224677e+103
-1.0436569e+103
-1.0507042e+103
-1.0520172e+103
-1.0447208e+103
-1.0661236e+103
-1.0801157e+103
-1.081092e+103
-1.0675715e+103
-1.1214553e+103
-1.1005146e+103
-1.099736e+103
-1.1174429e+103
-1.0156479e+103
-9.9420094e+102
-1.0256895e+103
-1.0240514e+103
-1.0166609e+103
-1.0404125e+103
-1.0542332e+103
-1.0528302e+103
-1.0419624e+103
-1.0676849e+103
-1.08257e+103
-1.0820459e+103
-1.0689136e+103
-1.100484e+103
-1.1178737e+103
-1.1170319e+103
-1.1005306e+103
-9.6616178e+102
-9.8851598e+102
-9.8722065e+102
-9.9700874e+102
-9.9813142e+102
-9.8712927e+102
-9.884065e+102
-9.9738879e+102
-9.9755175e+102
-1.0143195e+103
-1.0270736e+103
-1.0274204e+103
-1.0263652e+103
-1.0130977e+103
-1.013024e+103
-1.0141229e+103
-1.0129555e+103
-1.0258121e+103
-1.0259395e+103
-1.0562231e+103
-1.0417846e+103
-1.0401306e+103
-1.0398222e+103
-1.0404888e+103
-1.0542342e+103
-1.0540917e+103
-1.0540432e+103
-1.0555019e+103
-1.0419068e+103
-1.0424313e+103
-1.0544419e+103
-1.0694953e+103
-1.0693115e+103
-1.0703075e+103
-1.0690837e+103
-1.0707499e+103
-1.083887e+103
-1.0860025e+103
-1.0851966e+103
-1.084949e+103
-1.0853147e+103
-1.0837139e+103
-1.0702996e+103
-1.0684298e+103
-1.083884e+103
-1.0694111e+103
-1.0693173e+103
-1.0545846e+103
-1.0694138e+103
-1.0545333e+103
-1.0405879e+103
-1.069098e+103
-1.0545184e+103
-1.0405932e+103
-1.0263445e+103
-1.0770048e+103
-1.0783869e+103
-1.0688067e+103
-1.0480717e+103
-1.0681977e+103
-1.0794793e+103
-1.0839778e+103
-1.0409088e+103
-1.0204644e+103
-1.0416543e+103
-1.0519918e+103
-1.050389e+103
-1.0525771e+103
-1.0420414e+103
-1.0411886e+103
-1.0510315e+103
-1.068115e+103
-1.0683427e+103
-1.0674107e+103
-1.0833511e+103
-1.0829307e+103
-1.0686584e+103
-1.0685559e+103
-1.0825911e+103
-1.0838136e+103
-1.0524493e+103
-1.0209562e+103
-1.0526292e+103
-1.0400259e+103
-1.0244594e+103
-9.9362756e+102
-1.016236e+103
-1.0140782e+103
-1.0225565e+103
-1.0387923e+103
-1.05242e+103
-1.0684983e+103
-1.0682047e+103
-1.0826889e+103
-1.0842593e+103
-1.0360531e+103
-1.0199532e+103
-9.9369039e+102
-9.8786984e+102
-9.6616122e+102
-9.8784414e+102
-9.9737469e+102
-9.9633635e+102
-1.0119555e+103
-1.0248504e+103
-1.0135202e+103
-1.0261855e+103
-1.0409471e+103
-1.0400768e+103
-1.0536087e+103
-1.0539143e+103
-1.0686852e+103
-1.0694877e+103
-1.084665e+103
-1.0837211e+103
-1.0937987e+103
-1.0768896e+103
-1.0866347e+103
-1.0880189e+103
-1.1097134e+103
-1.108366e+103
-1.0542356e+103
-1.0632658e+103
-1.0717049e+103
-1.0730701e+103
-1.0636508e+103
-1.1190945e+103
-1.1191623e+103
-1.0934182e+103
-1.0950776e+103
-1.0218157e+103
-1.043495e+103
-1.0497067e+103
-1.0506346e+103
-1.0444886e+103
-1.0643071e+103
-1.0640999e+103
-1.0763758e+103
-1.0764556e+103
-1.0978036e+103
-1.0970588e+103
-1.1207424e+103
-1.1200776e+103
-9.9392031e+102
-1.0168747e+103
-1.0254255e+103
-1.0263008e+103
-1.0167994e+103
-1.0418302e+103
-1.0524795e+103
-1.0543022e+103
-1.0437939e+103
-1.0659743e+103
-1.0800895e+103
-1.0810669e+103
-1.0673755e+103
-1.1214535e+103
-1.1005236e+103
-1.0997221e+103
-1.1174355e+103
-1.0140244e+103
-9.9836145e+102
-9.6656968e+102
-9.9790065e+102
-9.8992498e+102
-9.8799826e+102
-1.0278151e+103
-1.0255516e+103
-1.015615e+103
-1.040314e+103
-1.0543535e+103
-1.0528297e+103
-1.0418783e+103
-1.0676863e+103
-1.0825806e+103
-1.082044e+103
-1.0689148e+103
-9.3898568e+102
-9.617393e+102
-9.6142421e+102
-9.7096638e+102
-9.7159988e+102
-9.6128845e+102
-9.6177999e+102
-9.7042595e+102
-9.7010857e+102
-9.8679564e+102
-9.8566251e+102
-9.9843821e+102
-9.9892981e+102
-9.9939159e+102
-9.8581033e+102
-9.875123e+102
-9.8705247e+102
-9.9841595e+102
-9.9919361e+102
-1.0141677e+103
-1.0270805e+103
-1.0275063e+103
-1.0265682e+103
-1.0261635e+103
-1.012899e+103
-1.0130298e+103
-1.0126676e+103
-1.0139703e+103
-1.0129005e+103
-1.0258531e+103
-1.0259434e+103
-1.0562223e+103
-1.0417808e+103
-1.0405145e+103
-1.0401767e+103
-1.0398153e+103
-1.0405436e+103
-1.0544784e+103
-1.0543833e+103
-1.0541008e+103
-1.0541198e+103
-1.0554945e+103
-1.0419028e+103
-1.0424131e+103
-1.0544424e+103
-1.0545877e+103
-1.0543982e+103
-1.0405572e+103
-1.0545135e+103
-1.0405906e+103
-1.0263421e+103
-1.0541354e+103
-1.0405418e+103
-1.0263424e+103
-1.0126877e+103
-1.0549792e+103
-1.0528918e+103
-1.0690672e+103
-1.0719245e+103
-1.0771582e+103
-1.0781902e+103
-1.0811197e+103
-1.0677777e+103
-1.0511083e+103
-1.0428928e+103
-1.0212682e+103
-1.0425175e+103
-1.0509871e+103
-1.0672331e+103
-1.0818987e+103
-1.0840076e+103
-1.0393227e+103
-1.0244428e+103
-9.9391276e+102
-1.0169711e+103
-1.0255219e+103
-1.0160795e+103
-1.0257332e+103
-1.0160736e+103
-1.0155173e+103
-1.0239024e+103
-1.0411789e+103
-1.0405536e+103
-1.0532444e+103
-1.0532311e+103
-1.0516743e+103
-1.0537726e+103
-1.04156e+103
-1.0398858e+103
-1.0526666e+103
-1.068132e+103
-1.067891e+103
-1.06822e+103
-1.0677515e+103
-1.0838514e+103
-1.0833856e+103
-1.0840056e+103
-1.0684588e+103
-1.068429e+103
-1.0826382e+103
-1.0837828e+103
-1.0353151e+103
-1.0197619e+103
-9.9360742e+102
-1.052677e+103
-1.0399591e+103
-1.0264662e+103
-9.6640922e+102
-9.980275e+102
-9.8756778e+102
-9.9656669e+102
-9.8727557e+102
-1.0153333e+103
-1.012845e+103
-1.0241734e+103
-1.0386971e+103
-1.05242e+103
-1.0684934e+103
-1.0682011e+103
-1.0826967e+103
-1.0842744e+103
-1.031729e+103
-1.0161749e+103
-9.9263681e+102
-9.661648e+102
-9.8665341e+102
-9.7068547e+102
-9.3881031e+102
-9.6156341e+102
-9.6089244e+102
-9.6995262e+102
-9.8648362e+102
-9.9920717e+102
-9.9792527e+102
-1.0119276e+103
-1.0249235e+103
-1.0135287e+103
-1.0263243e+103
-1.0409453e+103
-1.0400785e+103
-1.053622e+103
-1.0539218e+103
-1.0883308e+103
-1.0755569e+103
-1.081995e+103
-1.1031736e+103
-1.1058972e+103
-1.0837426e+103
-1.0551892e+103
-1.0632034e+103
-1.0614411e+103
-1.0685973e+103
-1.0700497e+103
-1.0893779e+103
-1.0901636e+103
-1.1155346e+103
-1.1151e+103
-1.0220171e+103
-1.044034e+103
-1.050342e+103
-1.0494396e+103
-1.0446934e+103
-1.0627183e+103
-1.0732352e+103
-1.0745008e+103
-1.0634157e+103
-1.1191196e+103
-1.1193056e+103
-1.0938467e+103
-1.0952398e+103
-9.9304646e+102
-1.016088e+103
-1.0249009e+103
-1.026216e+103
-1.0170272e+103
-1.0416524e+103
-1.0516992e+103
-1.0529464e+103
-1.0434722e+103
-1.0640968e+103
-1.0639209e+103
-1.0765406e+103
-1.0765639e+103
-1.0978116e+103
-1.0970756e+103
-1.1207497e+103
-1.120068e+103
-9.6575515e+102
-9.880277e+102
-9.8843331e+102
-9.9792343e+102
-9.9807772e+102
-1.015292e+103
-1.0275539e+103
-1.0290601e+103
-1.0155939e+103
-1.0417203e+103
-1.0525358e+103
-1.0542817e+103
-1.043575e+103
-1.0659711e+103
-1.0801001e+103
-1.0810712e+103
-1.0673768e+103
-1.0138683e+103
-1.0002958e+103
-9.3900581e+102
-9.7184014e+102
-9.6150802e+102
-9.6069675e+102
-9.6979075e+102
-9.9978531e+102
-9.889283e+102
-9.8610438e+102
-1.0278408e+103
-1.0256491e+103
-1.0154411e+103
-1.0403108e+103
-1.0543652e+103
-1.0528403e+103
-1.0418774e+103
-9.1113343e+102
-9.3385972e+102
-9.3390335e+102
-9.4400074e+102
-9.4376546e+102
-9.4464094e+102
-9.4474326e+102
-9.344022e+102
-9.3297009e+102
-9.605166e+102
-9.6037321e+102
-9.7292791e+102
-9.7327839e+102
-9.7313159e+102
-9.6057133e+102
-9.6123752e+102
-9.6099639e+102
-9.7225075e+102
-9.7142168e+102
-9.8669979e+102
-9.8562922e+102
-9.9852544e+102
-9.991114e+102
-9.9905819e+102
-9.9932326e+102
-9.8704559e+102
-9.857861e+102
-9.8697948e+102
-9.8679306e+102
-9.9838363e+102
-9.9921901e+102
-1.01416e+103
-1.0270874e+103
-1.0275049e+103
-1.0265133e+103
-1.026369e+103
-1.0261334e+103
-1.0128906e+103
-1.0126541e+103
-1.0130261e+103
-1.0126385e+103
-1.0139537e+103
-1.0128981e+103
-1.0258592e+103
-1.0259405e+103
-1.0405569e+103
-1.0405442e+103
-1.0401762e+103
-1.0405396e+103
-1.0262596e+103
-1.0263377e+103
-1.0126847e+103
-1.026316e+103
-1.0126802e+103
-9.9924394e+102
-1.0624069e+103
-1.0830683e+103
-1.0732788e+103
-1.0410815e+103
-1.069493e+103
-1.0778332e+103
-1.0208407e+103
-1.0527379e+103
-1.0438895e+103
-1.0436381e+103
-1.0516336e+103
-1.0680636e+103
-1.0692118e+103
-1.0781502e+103
-1.0802928e+103
-1.0812131e+103
-1.0530025e+103
-1.0676407e+103
-1.0412362e+103
-1.0247347e+103
-1.0161411e+103
-9.9392845e+102
-1.0246218e+103
-1.0162169e+103
-1.0412656e+103
-1.0527922e+103
-1.0672044e+103
-1.0821299e+103
-1.0839989e+103
-1.0391416e+103
-1.0261094e+103
-9.6587381e+102
-9.9913534e+102
-9.8951034e+102
-9.8876471e+102
-9.9852457e+102
-9.8773641e+102
-9.8823508e+102
-9.9841644e+102
-9.9765083e+102
-1.0157909e+103
-1.0271212e+103
-1.0270464e+103
-1.0148429e+103
-1.0152065e+103
-1.027566e+103
-1.0151962e+103
-1.0140289e+103
-1.0257034e+103
-1.0406451e+103
-1.0409914e+103
-1.0402868e+103
-1.0532063e+103
-1.0531539e+103
-1.0528743e+103
-1.051754e+103
-1.0536787e+103
-1.0413357e+103
-1.0398249e+103
-1.0526656e+103
-1.0681143e+103
-1.0680624e+103
-1.067795e+103
-1.0681982e+103
-1.0678246e+103
-1.0838961e+103
-1.0845675e+103
-1.0833632e+103
-1.0842261e+103
-1.068437e+103
-1.0684219e+103
-1.0826304e+103
-1.0837895e+103
-1.0303134e+103
-1.0142741e+103
-9.9207807e+102
-9.6605268e+102
-1.0526796e+103
-1.0399554e+103
-1.026493e+103
-9.3850866e+102
-9.6030783e+102
-9.6958163e+102
-9.7057766e+102
-9.6182177e+102
-1.0000415e+103
-9.8588504e+102
-9.9819683e+102
-9.8577516e+102
-1.0151903e+103
-1.0127395e+103
-1.0242492e+103
-1.0386965e+103
-1.0524304e+103
-1.0298619e+103
-1.0135131e+103
-9.9091562e+102
-9.6516339e+102
-9.3864048e+102
-9.7274428e+102
-9.8640855e+102
-9.1109688e+102
-9.3371191e+102
-9.3315281e+102
-9.4303956e+102
-9.4348611e+102
-9.6016417e+102
-9.5898317e+102
-9.7147499e+102
-9.8641754e+102
-9.9928099e+102
-9.9794166e+102
-1.011927e+103
-1.0249269e+103
-1.0135278e+103
-1.0263253e+103
-1.0827193e+103
-1.0736274e+103
-1.0779356e+103
-1.0792937e+103
-1.1003484e+103
-1.0973744e+103
-1.0555839e+103
-1.0594132e+103
-1.0610815e+103
-1.0668751e+103
-1.0651353e+103
-1.0851944e+103
-1.1105389e+103
-1.1127357e+103
-1.0864544e+103
-1.0220691e+103
-1.0439158e+103
-1.0482974e+103
-1.0498711e+103
-1.0440436e+103
-1.063129e+103
-1.0608118e+103
-1.0700967e+103
-1.0714738e+103
-1.089685e+103
-1.0904185e+103
-1.115823e+103
-1.1155064e+103
-9.9206333e+102
-1.0164004e+103
-1.0254157e+103
-1.0263329e+103
-1.0171157e+103
-1.0422935e+103
-1.0523739e+103
-1.0514629e+103
-1.0434222e+103
-1.0624496e+103
-1.073524e+103
-1.0746066e+103
-1.0631227e+103
-1.1191249e+103
-1.1193207e+103
-1.0938974e+103
-1.0952688e+103
-9.6487755e+102
-9.8780696e+102
-9.8729878e+102
-9.9826432e+102
-9.9742667e+102
-1.0145058e+103
-1.02708e+103
-1.0290113e+103
-1.0159527e+103
-1.0414599e+103
-1.0517554e+103
-1.0529663e+103
-1.0432213e+103
-1.0641009e+103
-1.063925e+103
-1.076573e+103
-1.0765843e+103
-9.3809758e+102
-9.6014804e+102
-9.6130257e+102
-9.7041493e+102
-9.7026009e+102
-9.8650848e+102
-9.8692134e+102
-9.9987668e+102
-9.9985951e+102
-1.015198e+103
-1.0276552e+103
-1.0290986e+103
-1.0154945e+103
-1.0417156e+103
-1.0525474e+103
-1.0542929e+103
-1.0435649e+103
-1.0138578e+103
-1.0002704e+103
-9.1118033e+102
-9.3342145e+102
-9.4328258e+102
-9.4388386e+102
-9.3452347e+102
-9.7411502e+102
-9.6027228e+102
-9.5934736e+102
-9.7129116e+102
-9.9989301e+102
-9.8872326e+102
-9.8604209e+102
-1.0278482e+103
-1.0256525e+103
-1.0154324e+103
-8.8334458e+102
-9.0600872e+102
-9.0602867e+102
-9.0545068e+102
-9.1639075e+102
-9.1703375e+102
-9.0488307e+102
-9.1632282e+102
-9.1604271e+102
-9.3233054e+102
-9.3324995e+102
-9.3184322e+102
-9.4587861e+102
-9.4563951e+102
-9.452303e+102
-9.4619704e+102
-9.4672464e+102
-9.333506e+102
-9.3215497e+102
-9.6032627e+102
-9.6036157e+102
-9.7302012e+102
-9.7401577e+102
-9.7336953e+102
-9.7422258e+102
-9.612721e+102
-9.6058666e+102
-9.6126213e+102
-9.6080917e+102
-9.7232508e+102
-9.7147533e+102
-9.86693e+102
-9.8562685e+102
-9.985296e+102
-9.9918921e+102
-9.9905576e+102
-9.9906317e+102
-9.9925706e+102
-9.866497e+102
-9.8689861e+102
-9.857876e+102
-9.8678152e+102
-9.8677801e+102
-9.9838967e+102
-9.992181e+102
-1.0265009e+103
-1.0263243e+103
-1.0262578e+103
-1.0261285e+103
-1.0128886e+103
-1.0126418e+103
-1.0126108e+103
-1.0126343e+103
-1.0126114e+103
-1.0126747e+103
-9.9923625e+102
-1.012642e+103
-9.9923758e+102
-9.864527e+102
-1.0647063e+103
-1.0410066e+103
-1.0738198e+103
-1.0753132e+103
-1.0820689e+103
-1.0827967e+103
-1.0744353e+103
-1.0703141e+103
-1.0511741e+103
-1.0165971e+103
-1.0419194e+103
-1.0417124e+103
-1.0495059e+103
-1.0671561e+103
-1.073392e+103
-9.9247067e+102
-1.0155517e+103
-1.0158412e+103
-1.0248893e+103
-1.0247554e+103
-1.0547328e+103
-1.0421059e+103
-1.0420255e+103
-1.0539907e+103
-1.0679062e+103
-1.0688339e+103
-1.0781571e+103
-1.0803339e+103
-1.0812367e+103
-1.0530622e+103
-1.0676388e+103
-1.0410473e+103
-1.0267088e+103
-1.0147464e+103
-9.9791029e+102
-9.8849573e+102
-9.6597541e+102
-9.8916171e+102
-9.9815553e+102
-1.0267526e+103
-1.0147025e+103
-1.0410195e+103
-1.0527585e+103
-1.0672013e+103
-1.0821383e+103
-1.0391367e+103
-1.0260356e+103
-9.3736222e+102
-9.5922214e+102
-9.6001411e+102
-9.7088794e+102
-9.7091256e+102
-9.600461e+102
-9.5925572e+102
-9.7080295e+102
-9.7004476e+102
-1.0013911e+103
-9.8808681e+102
-9.8763755e+102
-9.8743182e+102
-1.0003755e+103
-1.0000877e+103
-9.8619574e+102
-9.8725022e+102
-1.0002961e+103
-9.9939318e+102
-1.0155812e+103
-1.0276713e+103
-1.0271626e+103
-1.0275689e+103
-1.014973e+103
-1.0147377e+103
-1.0149341e+103
-1.0276383e+103
-1.0151391e+103
-1.0139717e+103
-1.0258207e+103
-1.0406791e+103
-1.0404519e+103
-1.0409866e+103
-1.0399784e+103
-1.0530434e+103
-1.0533792e+103
-1.0531509e+103
-1.0526957e+103
-1.0517515e+103
-1.0536802e+103
-1.0413206e+103
-1.0398214e+103
-1.0526648e+103
-1.0678291e+103
-1.0674606e+103
-1.067792e+103
-1.0678479e+103
-1.0838734e+103
-1.0842298e+103
-1.084556e+103
-1.0842679e+103
-1.0278844e+103
-1.0104839e+103
-9.8969875e+102
-9.6482262e+102
-9.3825334e+102
-1.0264991e+103
-9.1067048e+102
-9.4346312e+102
-9.4268971e+102
-9.3286117e+102
-9.3297635e+102
-9.5882984e+102
-9.7075973e+102
-9.7237713e+102
-9.6077474e+102
-1.0002021e+103
-9.8589637e+102
-9.9824525e+102
-9.8566566e+102
-1.0151839e+103
-1.0127365e+103
-1.0242558e+103
-1.0290064e+103
-1.0121668e+103
-9.8908834e+102
-9.6400573e+102
-9.3775787e+102
-9.1094228e+102
-9.7268448e+102
-9.8639778e+102
-8.8349973e+102
-9.0630415e+102
-9.0509296e+102
-9.156776e+102
-9.1593466e+102
-9.3256322e+102
-9.316093e+102
-9.4454868e+102
-9.4557766e+102
-9.6008896e+102
-9.5895256e+102
-9.7152736e+102
-9.8641487e+102
-9.9928864e+102
-9.9794674e+102
-1.0787727e+103
-1.0713861e+103
-1.0732946e+103
-1.0916984e+103
-1.0954412e+103
-1.0752069e+103
-1.0554374e+103
-1.0625388e+103
-1.0582116e+103
-1.058669e+103
-1.0633734e+103
-1.0818023e+103
-1.0823149e+103
-1.1073969e+103
-1.1048409e+103
-1.0222398e+103
-1.0434534e+103
-1.0471348e+103
-1.0484376e+103
-1.0437122e+103
-1.0589673e+103
-1.0607561e+103
-1.0681771e+103
-1.0668944e+103
-1.0852061e+103
-1.1106641e+103
-1.1128781e+103
-1.0867683e+103
-9.9164206e+102
-1.0163302e+103
-1.0155404e+103
-1.0250663e+103
-1.0254378e+103
-1.0420432e+103
-1.050345e+103
-1.0521017e+103
-1.0422415e+103
-1.0628195e+103
-1.0605289e+103
-1.0703178e+103
-1.0716949e+103
-1.0897206e+103
-1.0904624e+103
-1.1158436e+103
-1.1155319e+103
-9.6367397e+102
-9.8738439e+102
-9.8646711e+102
-9.9829084e+102
-9.9747901e+102
-1.0151404e+103
-1.0277356e+103
-1.029074e+103
-1.0162404e+103
-1.0419897e+103
-1.0523647e+103
-1.0515101e+103
-1.0431027e+103
-1.0624511e+103
-1.0735692e+103
-1.0746456e+103
-1.0631248e+103
-9.3744708e+102
-9.7017194e+102
-9.6066261e+102
-9.5987881e+102
-9.6978446e+102
-9.86658e+102
-9.8606261e+102
-1.0003946e+103
-9.9899423e+102
-1.0144073e+103
-1.0272173e+103
-1.02908e+103
-1.0158975e+103
-1.0414512e+103
-1.0517641e+103
-1.0529768e+103
-1.0432092e+103
-9.1037771e+102
-9.4365626e+102
-9.3336717e+102
-9.3263058e+102
-9.4216116e+102
-9.5867449e+102
-9.6031329e+102
-9.7214186e+102
-9.7204721e+102
-9.864716e+102
-9.8685595e+102
-9.9994798e+102
-9.9994222e+102
-1.015191e+103
-1.0276611e+103
-1.0290973e+103
-1.0154869e+103
-1.0002716e+103
-8.8339819e+102
-9.0556801e+102
-9.1568612e+102
-9.1638158e+102
-9.055412e+102
-9.3197614e+102
-9.4489914e+102
-9.4558837e+102
-9.3338211e+102
-9.7414795e+102
-9.6023884e+102
-9.5924268e+102
-9.7136552e+102
-9.9989641e+102
-9.8871069e+102
-9.8603672e+102
-8.5558487e+102
-8.7822908e+102
-8.8808067e+102
-8.8960537e+102
-8.7877987e+102
-8.7783948e+102
-8.7829623e+102
-8.8863595e+102
-8.8761391e+102
-9.0471032e+102
-9.0488724e+102
-9.0453967e+102
-9.0361415e+102
-9.178155e+102
-9.180289e+102
-9.1741561e+102
-9.0366216e+102
-9.1743186e+102
-9.1713657e+102
-9.3225243e+102
-9.3168356e+102
-9.3305365e+102
-9.3169595e+102
-9.4593864e+102
-9.4635854e+102
-9.4638647e+102
-9.4529031e+102
-9.4624125e+102
-9.4675349e+102
-9.3339249e+102
-9.3215345e+102
-9.6031743e+102
-9.6036419e+102
-9.7302769e+102
-9.7417354e+102
-9.7400341e+102
-9.7337203e+102
-9.7422809e+102
-9.6134123e+102
-9.6146309e+102
-9.6058826e+102
-9.612815e+102
-9.6080041e+102
-9.7233778e+102
-9.7148065e+102
-9.9916655e+102
-9.9919415e+102
-9.9905423e+102
-9.9926093e+102
-9.8655329e+102
-9.865141e+102
-9.8689196e+102
-9.867726e+102
-9.9919437e+102
-9.9922977e+102
-9.8644936e+102
-9.9917259e+102
-9.8645251e+102
-9.739462e+102
-1.0655044e+103
-1.081729e+103
-1.0757009e+103
-1.0414749e+103
-1.0752659e+103
-1.0815281e+103
-1.0139914e+103
-1.0522363e+103
-1.0421089e+103
-1.0420556e+103
-1.0513851e+103
-1.0699653e+103
-1.0710337e+103
-1.0710365e+103
-1.0725269e+103
-1.074422e+103
-1.0691777e+103
-1.0557445e+103
-9.9021107e+102
-1.013552e+103
-1.0129865e+103
-1.0231314e+103
-1.0234006e+103
-1.0421015e+103
-1.0419496e+103
-1.0544406e+103
-1.0662616e+103
-1.0735223e+103
-9.6464071e+102
-9.9739627e+102
-9.8694125e+102
-9.8774738e+102
-9.9720782e+102
-1.0142601e+103
-1.0147581e+103
-1.0268711e+103
-1.0269713e+103
-1.0548545e+103
-1.0419754e+103
-1.041856e+103
-1.0539787e+103
-1.067897e+103
-1.0688093e+103
-1.0781672e+103
-1.0803517e+103
-1.0530642e+103
-1.0410341e+103
-1.02678e+103
-1.0146062e+103
-9.9969286e+102
-9.8704449e+102
-9.7056658e+102
-9.6054122e+102
-9.3752694e+102
-9.6068856e+102
-9.7092786e+102
-9.87814e+102
-1.0003066e+103
-1.0267703e+103
-1.0146395e+103
-1.0410055e+103
-1.0527573e+103
-1.0260405e+103
-9.3111512e+102
-9.3179416e+102
-9.3232633e+102
-9.103027e+102
-9.4229117e+102
-9.4244961e+102
-9.421673e+102
-9.4252119e+102
-9.3226679e+102
-9.5829176e+102
-9.5815724e+102
-9.5847224e+102
-9.7246689e+102
-9.7246375e+102
-9.7207211e+102
-9.5879085e+102
-9.5844351e+102
-9.7221633e+102
-9.7120574e+102
-1.0015348e+103
-9.8812007e+102
-9.8723584e+102
-9.8759163e+102
-9.8704968e+102
-1.0009397e+103
-1.000523e+103
-1.0007623e+103
-9.8616275e+102
-9.8719246e+102
-1.0004186e+103
-9.9947638e+102
-1.0155635e+103
-1.0276485e+103
-1.02792e+103
-1.0271703e+103
-1.0275528e+103
-1.0151476e+103
-1.0149964e+103
-1.0147215e+103
-1.0149238e+103
-1.0276412e+103
-1.0151297e+103
-1.0139683e+103
-1.0258303e+103
-1.0404178e+103
-1.0404068e+103
-1.0404411e+103
-1.0399527e+103
-1.0530377e+103
-1.0531067e+103
-1.0530895e+103
-1.0526952e+103
-1.0678135e+103
-1.0674361e+103
-1.0674443e+103
-1.0842135e+103
-1.0842311e+103
-1.0845742e+103
-1.0271173e+103
-1.0086693e+103
-9.8730228e+102
-9.6337465e+102
-9.3738486e+102
-9.1054597e+102
-9.1504956e+102
-9.0533038e+102
-8.8357636e+102
-9.0489004e+102
-9.1478439e+102
-9.45467e+102
-9.4434723e+102
-9.3123683e+102
-9.3141868e+102
-9.5869164e+102
-9.7083435e+102
-9.7230488e+102
-9.6055515e+102
-1.0002107e+103
-9.8589929e+102
-9.9825238e+102
-9.8566154e+102
-1.0281592e+103
-1.0116515e+103
-9.8796426e+102
-9.6262258e+102
-9.3688314e+102
-9.1023803e+102
-8.8339161e+102
-9.7267997e+102
-8.5607883e+102
-8.7771748e+102
-8.8730043e+102
-8.8916582e+102
-8.7908024e+102
-9.0502804e+102
-9.0353641e+102
-9.1721202e+102
-9.1712775e+102
-9.3248178e+102
-9.3161458e+102
-9.4463359e+102
-9.4560243e+102
-9.6008115e+102
-9.5894901e+102
-9.7152892e+102
-1.0788513e+103
-1.0702759e+103
-1.08933e+103
-1.0711358e+103
-1.0724064e+103
-1.089161e+103
-1.0551434e+103
-1.0565232e+103
-1.0563037e+103
-1.0601191e+103
-1.0594152e+103
-1.0775164e+103
-1.0997668e+103
-1.1033875e+103
-1.0789558e+103
-1.0222341e+103
-1.042966e+103
-1.0427907e+103
-1.0463399e+103
-1.0467024e+103
-1.0651271e+103
-1.058152e+103
-1.058459e+103
-1.0652198e+103
-1.0816595e+103
-1.0822344e+103
-1.1075831e+103
-1.1047167e+103
-9.9125606e+102
-1.0155124e+103
-1.0161217e+103
-1.0249309e+103
-1.0251086e+103
-1.0415395e+103
-1.0494045e+103
-1.0506938e+103
-1.041798e+103
-1.0587285e+103
-1.0602621e+103
-1.0682527e+103
-1.0671173e+103
-1.0852239e+103
-1.1106899e+103
-1.1128974e+103
-1.0868126e+103
-9.6303762e+102
-9.8747145e+102
-9.8674279e+102
-9.9750322e+102
-9.9775551e+102
-1.0152381e+103
-1.0142293e+103
-1.0271982e+103
-1.0277621e+103
-1.041692e+103
-1.0502815e+103
-1.0521383e+103
-1.0419991e+103
-1.0628131e+103
-1.0605329e+103
-1.0703583e+103
-1.0717359e+103
-9.3646022e+102
-9.5949484e+102
-9.5921081e+102
-9.6932964e+102
-9.6890901e+102
-9.8645478e+102
-9.8507879e+102
-1.0005941e+103
-9.9922528e+102
-1.0150979e+103
-1.0278467e+103
-1.0291448e+103
-1.0161786e+103
-1.0419727e+103
-1.0523706e+103
-1.0515217e+103
-1.0430859e+103
-9.0986553e+102
-9.430142e+102
-9.3301711e+102
-9.3268137e+102
-9.422921e+102
-9.7183419e+102
-9.596353e+102
-9.5837885e+102
-9.7137117e+102
-9.8662475e+102
-9.8599799e+102
-1.0005022e+103
-9.9910143e+102
-1.014401e+103
-1.0272251e+103
-1.0290836e+103
-1.0158934e+103
-8.8270778e+102
-9.042557e+102
-9.1496006e+102
-9.1513489e+102
-9.0523421e+102
-9.4559009e+102
-9.3195444e+102
-9.3120177e+102
-9.4362116e+102
-9.5861559e+102
-9.6015017e+102
-9.7219942e+102
-9.7212604e+102
-9.8647043e+102
-9.8685508e+102
-9.9995329e+102
-9.9994709e+102
-8.5585962e+102
-8.7809191e+102
-8.7893399e+102
-8.8829261e+102
-8.8802585e+102
-9.0421536e+102
-9.1733141e+102
-9.1803981e+102
-9.0406347e+102
-9.3193394e+102
-9.449785e+102
-9.4555363e+102
-9.3323653e+102
-9.7414764e+102
-9.6023675e+102
-9.5923954e+102
-9.7137083e+102
-8.2810468e+102
-8.4925398e+102
-8.5130405e+102
-8.5073186e+102
-8.6096604e+102
-8.6162912e+102
-8.5059322e+102
-8.6162016e+102
-8.6131436e+102
-8.7677876e+102
-8.892258e+102
-8.9123042e+102
-8.8999164e+102
-8.782655e+102
-8.7736328e+102
-8.768968e+102
-8.7695504e+102
-8.9008045e+102
-8.8913002e+102
-9.0471517e+102
-9.0391482e+102
-9.0464673e+102
-9.0422897e+102
-9.0361203e+102
-9.1787333e+102
-9.1807318e+102
-9.1737321e+102
-9.1710462e+102
-9.0367913e+102
-9.1756679e+102
-9.1717727e+102
-9.3224725e+102
-9.3165302e+102
-9.3184045e+102
-9.3304341e+102
-9.3175535e+102
-9.4594801e+102
-9.4643735e+102
-9.4691243e+102
-9.4645309e+102
-9.4529604e+102
-9.4624048e+102
-9.4675318e+102
-9.3339092e+102
-9.3214993e+102
-9.7408437e+102
-9.7407254e+102
-9.739959e+102
-9.7422776e+102
-9.6134033e+102
-9.6149088e+102
-9.6144206e+102
-9.6127992e+102
-9.8654553e+102
-9.8644967e+102
-9.8650848e+102
-9.7395094e+102
-9.7394832e+102
-9.6146366e+102
-1.0649223e+103
-1.0422714e+103
-1.0758031e+103
-1.0763608e+103
-1.080372e+103
-1.0806571e+103
-1.0692392e+103
-1.0705853e+103
-1.052635e+103
-1.0426234e+103
-1.0130466e+103
-1.0425232e+103
-1.0523661e+103
-1.0705826e+103
-1.0699322e+103
-9.8788111e+102
-1.01189e+103
-1.0116716e+103
-1.0227193e+103
-1.0229999e+103
-1.0568257e+103
-1.0428043e+103
-1.0430454e+103
-1.0563366e+103
-1.0686716e+103
-1.0694754e+103
-1.0709191e+103
-1.0725967e+103
-1.074461e+103
-1.0691133e+103
-1.0556925e+103
-9.953536e+102
-9.8529576e+102
-9.6310402e+102
-9.8607511e+102
-9.9582106e+102
-1.0127296e+103
-1.0123374e+103
-1.0258061e+103
-1.0262556e+103
-1.0419205e+103
-1.0417604e+103
-1.0542738e+103
-1.0662133e+103
-1.0735652e+103
-9.3679661e+102
-9.5964516e+102
-9.5874888e+102
-9.6868373e+102
-9.697595e+102
-9.9932558e+102
-9.8537512e+102
-9.8640044e+102
-9.9927625e+102
-1.0141428e+103
-1.0145779e+103
-1.0269316e+103
-1.0270072e+103
-1.0548593e+103
-1.0419673e+103
-1.0418451e+103
-1.0539735e+103
-1.0267848e+103
-1.0145987e+103
-9.9977356e+102
-9.8693364e+102
-9.7219981e+102
-9.5922687e+102
-9.4256771e+102
-9.3228831e+102
-9.0993523e+102
-9.3141646e+102
-9.4214255e+102
-9.5923238e+102
-9.7278427e+102
-9.8776861e+102
-1.0004523e+103
-1.0267701e+103
-1.0146335e+103
-9.299616e+102
-9.3083319e+102
-9.1466401e+102
-9.3068503e+102
-9.1567147e+102
-9.3090733e+102
-9.1546213e+102
-8.8343958e+102
-9.059107e+102
-9.1538499e+102
-9.0529628e+102
-9.0576108e+102
-9.06355e+102
-9.4326211e+102
-9.4327137e+102
-9.4371072e+102
-9.4303377e+102
-9.438758e+102
-9.3073814e+102
-9.5796036e+102
-9.5826481e+102
-9.5798712e+102
-9.5842081e+102
-9.7257195e+102
-9.7245606e+102
-9.7253294e+102
-9.722959e+102
-9.5870056e+102
-9.5836775e+102
-9.7228566e+102
-9.7131134e+102
-1.0015338e+103
-9.8811776e+102
-9.8718431e+102
-9.8723119e+102
-9.8758285e+102
-9.8698607e+102
-1.0012756e+103
-1.0009998e+103
-1.000515e+103
-1.0007668e+103
-9.8616382e+102
-9.8719117e+102
-1.0004221e+103
-9.9948089e+102
-1.0276343e+103
-1.0276613e+103
-1.0276993e+103
-1.0275268e+103
-1.0150811e+103
-1.0150896e+103
-1.0149776e+103
-1.0149048e+103
-1.0403864e+103
-1.0402287e+103
-1.0403736e+103
-1.0530832e+103
-1.0530282e+103
-1.0530776e+103
-1.0674455e+103
-1.0674229e+103
-1.0842223e+103
-1.084226e+103
-1.026431e+103
-1.0079463e+103
-9.8577584e+102
-9.6174395e+102
-9.3635674e+102
-9.0993444e+102
-8.8329801e+102
-9.1640319e+102
-9.040148e+102
-8.8819579e+102
-8.5610001e+102
-8.7823346e+102
-8.8820363e+102
-8.7888122e+102
-9.0372579e+102
-9.1621272e+102
-9.4552129e+102
-9.4436853e+102
-9.3116442e+102
-9.3140591e+102
-9.5868274e+102
-9.7083993e+102
-9.723026e+102
-9.6054145e+102
-1.0273382e+103
-1.0113903e+103
-9.8730966e+102
-9.6164392e+102
-9.3580774e+102
-9.0956531e+102
-8.8280589e+102
-8.5602556e+102
-8.2859028e+102
-8.509704e+102
-8.5154259e+102
-8.6123408e+102
-8.6083388e+102
-8.7623817e+102
-8.8868785e+102
-8.9095766e+102
-8.7785359e+102
-9.0486209e+102
-9.0350835e+102
-9.1725069e+102
-9.1720005e+102
-9.324791e+102
-9.3161565e+102
-9.4463908e+102
-9.4560344e+102
-1.0794683e+103
-1.0704003e+103
-1.0710841e+103
-1.0707438e+103
-1.0877272e+103
-1.0884655e+103
-1.0553419e+103
-1.0546951e+103
-1.0570624e+103
-1.0590895e+103
-1.0563272e+103
-1.0978935e+103
-1.0760954e+103
-1.0767684e+103
-1.0961259e+103
-1.022294e+103
-1.0421487e+103
-1.04232e+103
-1.0454933e+103