/*--------------------------------*- C++ -*----------------------------------*\
  =========                 |
  \\      /  F ield         | OpenFOAM: The Open Source CFD Toolbox
   \\    /   O peration     | Website:  https://openfoam.org
    \\  /    A nd           | Version:  7
     \\/     M anipulation  |
\*---------------------------------------------------------------------------*/
FoamFile
{
    version     2.0;
    format      ascii;
    class       volScalarField;
    location    "6000";
    object      nut;
}
// * * * * * * * * * * * * * * * * * * * * * * * * * * * * * * * * * * * * * //

dimensions      [0 2 -1 0 0 0 0];

internalField   nonuniform List<scalar> 
33733
(
2.1638876e-36
8.2928906e-37
1.9195825e-36
4.424687e-37
8.0804553e-37
1.5064445e-36
4.348204e-37
6.2539112e-37
4.3888436e-37
4.4790826e-37
4.4264332e-37
4.8950331e-37
6.8950334e-37
6.9672032e-37
5.6896266e-37
5.4023498e-37
1.7295434e-36
4.2279384e-37
4.1218607e-37
6.1629403e-37
1.3326144e-36
3.6019499e-37
5.0060543e-37
3.6955873e-37
4.1684895e-37
1.0258699e-36
2.7152594e-37
5.591416e-37
9.1624706e-37
2.777768e-37
2.7584862e-37
3.1291981e-37
5.3816e-37
3.9167428e-37
4.0085174e-37
4.2793334e-37
4.1071438e-37
2.9912792e-37
3.2950304e-37
3.2557019e-37
2.638386e-37
2.96881e-37
1.0076672e-36
9.6771622e-37
5.6574759e-37
3.9626629e-37
4.2452191e-37
4.8769449e-37
8.250271e-37
7.7811228e-37
5.90643e-37
5.5144716e-37
3.250841e-37
3.1664421e-37
4.6949893e-37
3.5102016e-37
1.1151936e-36
1.3155465e-36
2.5843622e-37
2.3670727e-37
2.9122745e-37
2.411147e-37
2.6048426e-37
3.5521159e-37
3.0973317e-37
6.8307669e-37
5.4984746e-37
3.0772283e-37
2.47369e-37
4.3269587e-37
5.0855537e-37
1.4272472e-36
1.4173015e-36
1.1495955e-36
2.987289e-37
2.4799984e-37
2.5731121e-37
2.7419502e-37
2.5731647e-37
2.2872915e-37
1.9672938e-37
2.262665e-37
7.0692453e-37
2.0215558e-37
2.6399832e-37
1.1702087e-37
1.8783832e-37
2.5658989e-37
1.4445821e-37
1.9640278e-37
1.5036635e-37
4.2850125e-37
1.5819652e-37
1.6043038e-37
1.7769575e-37
2.2402784e-37
4.017237e-37
5.6569996e-37
5.8592708e-37
5.7329099e-37
3.8759531e-37
4.3709996e-37
4.1851296e-37
3.4284936e-37
3.4697133e-37
3.4263968e-37
3.4580274e-37
3.379312e-37
3.4283486e-37
3.2487047e-37
2.9354968e-37
2.7836217e-37
2.1266799e-37
2.7686822e-37
2.9043627e-37
1.9505852e-37
2.3824796e-37
2.9422955e-37
2.7265586e-37
2.569671e-37
2.4073165e-37
1.301952e-36
8.5168373e-37
2.5269696e-37
2.1484009e-37
2.3403618e-37
2.0332866e-37
1.7478877e-37
1.7050398e-37
1.30802e-37
2.4572e-37
1.5117979e-37
1.3648058e-37
8.6392487e-37
7.281492e-37
1.5879121e-36
5.9794784e-37
5.0265454e-37
4.807248e-37
4.1952824e-37
8.2702778e-37
9.4356271e-37
1.0154685e-36
3.0997381e-37
3.3380417e-37
3.4576944e-37
3.278617e-37
2.5245474e-37
3.3741159e-37
3.842171e-37
2.4340953e-37
3.2075018e-37
4.7801718e-37
2.6934595e-37
7.8217048e-37
1.982492e-37
1.0955943e-37
3.0499929e-37
2.5694925e-37
1.0217935e-37
2.2292234e-37
1.7995625e-37
9.7508998e-38
1.0217722e-37
2.2938331e-37
1.3425775e-37
1.6559959e-37
1.2576539e-37
1.665466e-37
2.8260934e-37
1.8032952e-37
3.2394458e-37
1.3642392e-37
9.5821928e-38
1.3547046e-37
1.4437332e-37
1.7224212e-37
2.3421498e-37
1.9970309e-37
1.5683946e-37
2.8052189e-37
2.301159e-37
2.4965494e-37
2.8032341e-37
9.4633853e-37
9.1016028e-37
8.9678551e-37
1.0185735e-36
5.0831752e-37
6.3980105e-37
3.783147e-37
5.2077093e-37
3.030893e-37
3.2855613e-37
4.4271991e-37
4.8557579e-37
5.5936418e-37
3.3852762e-37
3.5337539e-37
5.1110996e-37
1.004785e-36
1.0211342e-36
1.1789306e-36
9.6629239e-37
1.0684062e-36
1.2687248e-36
1.0114613e-36
8.2439981e-37
8.0752036e-37
8.5101115e-37
6.0934906e-37
5.8065639e-37
7.0561777e-37
2.6323892e-37
2.6229056e-37
2.3405694e-37
1.8412564e-37
1.7315232e-37
2.5809038e-37
2.8413051e-37
1.7663816e-37
2.275567e-37
2.0309525e-37
1.760547e-37
1.7132398e-37
2.0861279e-37
1.4449852e-37
1.6415899e-37
1.9487266e-37
7.6622988e-37
1.8478186e-37
1.3637917e-37
9.1547468e-38
5.6049463e-38
9.061922e-38
8.6365981e-38
7.8677689e-38
1.0751684e-37
2.9333865e-37
1.048926e-37
7.8901156e-38
9.1065068e-38
1.0471408e-37
8.020646e-38
1.0470902e-37
1.2185417e-37
1.1641455e-37
9.7580109e-38
1.4304047e-37
1.5433456e-37
1.1799668e-37
1.2260322e-37
3.3952538e-37
2.9765447e-37
2.8579286e-37
3.2685254e-37
4.6832146e-37
5.039412e-37
5.5941312e-37
5.4127114e-37
4.5503623e-37
4.7723539e-37
4.8733133e-37
5.0696826e-37
4.7018039e-37
4.5758928e-37
4.8754075e-37
3.4987266e-37
4.8971226e-37
4.6766539e-37
3.6167869e-37
2.9281699e-37
3.0449108e-37
2.0605774e-37
2.7591597e-37
2.8452547e-37
2.7068266e-37
1.9788658e-37
2.6269646e-37
2.1975667e-37
2.9302208e-37
2.4838989e-37
2.0455783e-37
9.1791227e-37
1.057989e-36
3.0116107e-37
3.1436324e-37
3.0399234e-37
3.2764748e-37
3.0492723e-37
3.1829444e-37
3.2638396e-37
3.1089209e-37
2.2309962e-37
2.4196941e-37
2.5827673e-37
2.4101907e-37
2.4027878e-37
2.4129838e-37
2.6678832e-37
2.5764859e-37
3.3011068e-37
3.3131721e-37
4.1148193e-37
3.4582716e-37
3.356551e-37
3.3542035e-37
3.3005525e-37
3.1811942e-37
3.2692507e-37
2.7161052e-37
2.3781396e-37
2.8451566e-37
2.6800787e-37
2.372377e-37
2.4605942e-37
2.7702828e-37
2.6987652e-37
1.7242477e-37
1.092051e-37
1.0939264e-37
1.9114769e-37
1.726322e-37
1.8271981e-37
1.5080667e-37
1.3885236e-37
1.6558882e-37
1.6964396e-37
1.2390482e-37
1.2740512e-37
1.6447428e-37
1.1341077e-37
1.5927295e-37
1.1244716e-37
1.3244619e-37
1.3714405e-37
1.3008762e-37
1.2781462e-37
1.5907121e-37
1.7374027e-37
1.3540989e-37
1.4152342e-37
1.7201413e-37
1.7147175e-37
1.2425248e-37
1.2364305e-37
1.1630587e-37
1.6085201e-37
1.7533847e-37
1.3820285e-37
1.6150875e-37
1.1764251e-37
2.5837969e-37
2.1371945e-37
2.0155121e-37
1.7606253e-37
1.7568047e-37
1.5506539e-37
2.1092048e-37
1.8544565e-37
1.5569479e-37
1.6322346e-37
1.4222497e-37
1.5836802e-37
2.103742e-37
1.7710964e-37
1.8393641e-37
9.2287701e-38
9.1273591e-38
6.4092329e-38
1.1806375e-37
8.8935992e-38
9.2554788e-38
1.1024125e-37
1.1460024e-37
1.4146364e-37
1.2815261e-37
2.3478315e-36
1.1418937e-36
5.1271244e-37
1.4210762e-36
7.5682296e-37
8.7864412e-37
1.4915354e-36
1.6021454e-36
1.317051e-36
5.5278458e-37
4.9768425e-37
1.8569554e-37
6.1696144e-37
1.6963918e-37
5.6166046e-37
2.2135888e-37
2.2665145e-37
2.1817596e-36
5.936861e-37
1.4495784e-36
4.6218573e-37
5.0487023e-37
6.2573229e-37
3.1511344e-37
3.3883655e-37
3.9067188e-37
3.665496e-37
3.6135832e-37
3.3085592e-37
3.2019083e-37
4.0260569e-37
4.0149299e-37
2.0066294e-37
3.5458281e-37
1.1554175e-37
1.3613043e-37
3.5833273e-37
1.2230291e-37
1.174425e-37
2.4614574e-37
7.9834721e-37
1.7310395e-37
1.6004739e-37
1.2624707e-37
9.4456922e-38
8.8305338e-38
8.3269296e-38
1.0698304e-37
8.3021918e-38
4.610669e-38
4.5431784e-38
8.2509439e-38
1.3384356e-37
2.4570262e-37
1.3722638e-37
7.7047819e-38
1.42369e-37
1.2895683e-37
1.0229605e-37
1.0339649e-37
8.3980991e-38
1.3255689e-37
8.4648712e-38
6.9631847e-38
1.9575401e-37
1.3542324e-37
3.8796465e-37
2.356638e-37
2.9102142e-37
1.7138338e-37
1.0324531e-37
1.0934663e-37
2.9743325e-37
2.6199289e-37
4.9980317e-37
4.3850446e-37
2.6647304e-37
2.8104137e-37
1.1210826e-37
6.8234445e-38
5.6793836e-38
3.5402782e-38
6.5984132e-38
5.8338238e-38
4.9339337e-38
6.4926489e-38
5.8485436e-38
8.086198e-38
9.1376198e-38
9.7430431e-38
1.2257091e-37
1.7101668e-37
1.1696282e-37
9.9397604e-38
1.5212223e-37
1.8448635e-37
1.6591871e-37
2.2271038e-37
1.7037483e-37
1.7292621e-37
1.4240147e-37
1.4547142e-37
1.91049e-37
2.2246484e-37
2.3920823e-37
2.5273199e-37
2.3361552e-37
2.3885693e-37
3.2011359e-37
2.9300538e-37
7.48491e-37
7.5894017e-37
9.1761525e-37
1.1679356e-36
4.879873e-37
5.3752778e-37
9.7141778e-37
1.0262439e-36
6.6656996e-37
8.8006803e-37
4.5970012e-37
5.8563744e-37
7.6215356e-37
8.2551706e-37
5.3451909e-37
5.7145583e-37
2.9811555e-37
7.3402717e-37
3.2745824e-37
6.7133555e-37
8.602355e-37
4.9467806e-37
3.9003835e-37
6.3839745e-37
2.0240103e-37
1.97816e-37
5.3329831e-37
4.9861281e-37
6.5248104e-37
6.8231176e-37
3.9040556e-37
3.9820511e-37
1.9347313e-37
3.2350271e-37
3.0855291e-37
2.4049846e-37
2.2691776e-37
3.6411606e-37
1.3574647e-37
4.0987834e-38
2.4328093e-37
3.8308829e-37
3.8219265e-37
2.0800657e-37
3.8714381e-37
3.604632e-37
1.9238189e-37
2.3931736e-37
3.3643938e-37
2.6913224e-37
3.6809444e-37
3.4480972e-37
2.9523308e-37
3.274371e-37
3.7033335e-37
4.4072548e-37
2.2774967e-37
2.0838245e-37
1.8510178e-37
1.9806991e-37
1.6693948e-37
1.9032255e-37
1.924418e-37
2.2086973e-37
2.2298921e-37
2.0133166e-37
1.8360105e-37
1.9656473e-37
3.3540715e-37
3.8129556e-37
3.0994721e-37
2.8844417e-37
2.9414286e-37
3.2194329e-37
2.5369711e-37
2.4026619e-37
1.7858276e-37
2.0951585e-37
1.9161519e-37
1.6478667e-37
1.540625e-37
1.4462316e-37
1.4853345e-37
1.5586427e-37
1.5316665e-37
1.3943624e-37
1.3376878e-37
1.4616245e-37
1.2739237e-37
1.2137507e-37
3.805958e-37
4.3025619e-37
9.2929891e-38
1.1246283e-37
3.1206963e-37
1.3227e-37
1.2288704e-37
1.2835067e-37
1.4135262e-37
1.47357e-37
4.9449174e-37
5.3810533e-37
6.2418554e-37
6.2912966e-37
1.304918e-37
1.2906519e-37
2.7324266e-37
5.1662003e-37
4.9224867e-37
3.7293515e-37
4.1604873e-37
8.0466965e-37
1.1876546e-37
1.134463e-37
7.9625259e-38
4.637645e-38
5.0171459e-38
4.7726581e-38
4.6109876e-38
1.0719794e-37
9.876752e-38
1.278684e-37
1.3618165e-37
1.6782697e-37
1.8061336e-37
2.8208366e-37
2.573412e-37
4.7124647e-37
3.4279927e-37
3.2357283e-37
2.8881163e-37
3.1810191e-37
2.7199371e-37
2.7558941e-37
2.4592631e-37
2.6753408e-37
2.3659515e-37
2.4555006e-37
2.830191e-37
2.8760995e-37
3.3834998e-37
3.1866783e-37
3.3925168e-37
3.3075534e-37
3.9923191e-37
4.0432885e-37
4.2705532e-37
4.2971027e-37
3.9917738e-37
4.0192551e-37
4.3603038e-37
4.424744e-37
5.4061884e-37
5.1569266e-37
5.483847e-37
5.1641793e-37
5.3069219e-37
5.1230901e-37
5.6708649e-37
5.2850749e-37
3.4022885e-37
3.5574838e-37
3.7530612e-37
3.8506286e-37
3.8282264e-37
3.9455957e-37
4.1341553e-37
4.2383868e-37
4.5217876e-37
4.3534302e-37
4.9281865e-37
4.6061546e-37
5.151467e-37
4.8430583e-37
5.4484585e-37
5.033527e-37
3.7593694e-37
3.8636643e-37
3.2609485e-37
4.0903181e-37
4.0892719e-37
3.6056508e-37
3.6521169e-37
3.0153056e-37
3.9050186e-37
3.9981978e-37
4.967584e-37
4.7598897e-37
5.0856686e-37
3.2492648e-37
3.2444777e-37
3.9759964e-37
4.1209767e-37
3.7414967e-37
4.3344311e-37
4.2910738e-37
3.824471e-37
3.7499461e-37
3.2651274e-37
3.9711748e-37
4.1931095e-37
3.7899366e-37
3.7646639e-37
3.1643882e-37
2.507649e-37
2.5542637e-37
2.9745602e-37
2.7058122e-37
2.682925e-37
2.3121321e-37
2.5533343e-37
1.5138093e-37
1.4483629e-37
1.5626349e-37
1.359215e-37
1.0580819e-37
1.660286e-37
1.5779708e-37
1.1383614e-37
1.2581926e-37
1.2498496e-37
1.6332251e-37
1.628979e-37
1.1659578e-37
1.0800484e-37
1.6380058e-37
1.7175561e-37
1.3376938e-37
1.3062445e-37
1.2540331e-37
1.3117368e-37
1.0446351e-37
1.0542176e-37
1.6965366e-37
1.911178e-37
1.4952525e-37
1.4633258e-37
1.3597265e-37
1.2867352e-37
1.5662854e-37
1.1812455e-37
1.7585604e-37
1.2040807e-37
1.6311217e-37
1.5417348e-37
1.2560357e-37
1.1970159e-37
1.3810497e-37
1.4000399e-37
1.4444477e-37
1.3876219e-37
1.9791447e-37
2.1945817e-37
2.4833645e-37
2.7622289e-37
2.6099624e-37
2.3037113e-37
2.7791004e-37
3.1150451e-37
2.6759266e-37
2.3971647e-37
2.3100371e-37
2.4840584e-37
2.3641706e-37
2.2049511e-37
2.6049287e-37
2.8191881e-37
2.6609306e-37
2.3483431e-37
1.9552415e-37
2.1737213e-37
2.0719958e-37
1.7341717e-37
2.3868053e-37
2.744689e-37
2.3308049e-37
2.0037032e-37
2.5038869e-37
2.7012492e-37
2.1324441e-37
2.0082905e-37
2.0253515e-37
2.254662e-37
1.9759674e-37
1.8361798e-37
1.5861586e-37
1.7101339e-37
1.7430645e-37
1.6264689e-37
1.7384437e-37
1.8715289e-37
1.8909861e-37
1.7506161e-37
2.2491096e-37
1.9770601e-37
1.8607676e-37
2.0660257e-37
1.9148942e-37
2.0378718e-37
1.8021151e-37
1.7047626e-37
1.7427619e-37
1.6548059e-37
1.6318698e-37
1.6278755e-37
1.5029365e-37
1.6554571e-37
1.7028227e-37
1.5255504e-37
1.862726e-37
2.0685769e-37
1.7962859e-37
1.5740836e-37
1.7029871e-37
1.9152675e-37
1.9470458e-37
1.6907799e-37
2.5763861e-37
2.9885156e-37
2.9108849e-37
2.6104138e-37
1.3964562e-36
1.4280691e-36
2.9352505e-37
3.0638517e-37
2.6815273e-37
2.5799089e-37
8.3685697e-37
2.6976234e-37
2.7772869e-37
2.6495172e-37
2.5400625e-37
2.6431696e-37
2.6493477e-37
2.7358181e-37
2.5220987e-37
2.7490783e-37
3.0769553e-37
2.7977194e-37
2.4989569e-37
2.73517e-37
2.8322553e-37
2.4865368e-37
2.4667677e-37
2.6279143e-37
2.5713302e-37
2.4401339e-37
2.3977723e-37
2.7236686e-37
2.79526e-37
2.6344391e-37
2.4542601e-37
2.1686166e-37
2.0078371e-37
1.8914937e-37
1.9077063e-37
1.7665324e-37
1.9326046e-37
1.8351055e-37
1.8495885e-37
2.2005535e-37
2.3606943e-37
1.950403e-37
1.9604955e-37
2.0585405e-37
1.9208966e-37
1.9727742e-37
2.1504491e-37
1.8073246e-37
1.7767572e-37
1.8368385e-37
1.7821355e-37
1.8415281e-37
1.8252684e-37
1.8596553e-37
1.8402644e-37
2.146195e-37
1.9606413e-37
1.9375073e-37
2.1093723e-37
2.0332644e-37
1.8705574e-37
1.9009609e-37
2.0645174e-37
1.0320752e-37
7.6509156e-38
4.8772376e-38
4.6564276e-38
9.0280897e-38
4.799921e-38
4.6581751e-38
7.3940626e-38
8.3505347e-38
1.1158989e-37
1.0536959e-37
1.244973e-37
1.2020273e-37
1.1423119e-37
1.176075e-37
1.2375928e-37
1.3408011e-37
1.2754518e-37
1.3973421e-37
1.4981535e-37
1.3914834e-37
1.3223608e-37
1.2735993e-37
1.2279704e-37
1.2368663e-37
1.2066435e-37
1.2935918e-37
1.3426876e-37
1.4976251e-37
1.4045109e-37
1.351627e-37
1.5799017e-37
1.4137845e-37
1.3847115e-37
9.1341546e-38
8.1188665e-38
8.6805297e-38
7.8136202e-38
8.296175e-38
8.5981104e-38
7.8198449e-38
7.1358038e-38
1.3784785e-37
1.2989649e-37
1.2428073e-37
1.2692523e-37
7.5762078e-38
7.7827952e-38
6.9749512e-38
6.4225956e-38
1.4599232e-37
1.2515665e-37
1.287484e-37
1.1003121e-37
7.3155265e-38
7.6719833e-38
7.2757803e-38
6.602588e-38
1.3819243e-37
1.5547206e-37
1.3064085e-37
1.2215888e-37
1.1593644e-37
1.1302328e-37
9.9101132e-38
1.0683591e-37
1.3924227e-37
1.5582819e-37
1.3113752e-37
1.2061317e-37
1.2051986e-37
1.1276053e-37
1.0232732e-37
1.0924231e-37
9.9175602e-38
1.1402159e-37
1.1144682e-37
1.0475285e-37
1.0717361e-37
1.1250743e-37
1.1833921e-37
1.1403908e-37
1.1610552e-37
1.1758098e-37
1.17064e-37
1.0954982e-37
1.2596623e-37
1.3353435e-37
1.2391078e-37
1.1771775e-37
5.2211764e-38
1.2701831e-37
1.4580089e-37
1.2989643e-37
1.2133797e-37
4.9481337e-38
1.4459997e-37
1.3957935e-37
1.1920462e-37
1.3347172e-37
7.6041872e-38
8.5380366e-38
7.7878304e-38
7.1830934e-38
7.7422589e-38
8.3232058e-38
7.5904991e-38
6.9793894e-38
7.161882e-38
8.3728791e-38
5.5677907e-38
9.903328e-38
1.2570797e-37
1.2543288e-37
1.2652542e-37
5.3455781e-38
1.2022771e-37
1.2892297e-37
1.1806691e-37
1.1482352e-37
7.572021e-38
7.7938924e-38
7.2779181e-38
7.294822e-38
9.1240771e-38
8.7866834e-38
9.9044432e-38
1.0402654e-37
7.3693338e-38
8.3496764e-38
1.3399484e-37
1.1573022e-37
1.1579683e-37
1.3762519e-37
9.9111667e-38
9.9709344e-38
1.0471138e-37
1.0416479e-37
1.5864893e-37
1.3781747e-37
1.2491216e-37
1.3878245e-37
1.2044036e-37
1.2644022e-37
1.17016e-37
1.1016204e-37
1.850827e-37
5.1528243e-38
5.7961216e-38
1.6223754e-36
1.1348175e-36
5.2991409e-37
1.2587426e-36
3.9190173e-37
6.2954808e-37
3.9547675e-37
7.9660982e-37
7.7994428e-37
6.7620792e-37
1.3338004e-36
1.7404838e-36
9.8510021e-37
1.2884009e-36
1.5617768e-36
1.2294823e-36
2.4906468e-36
3.3336444e-36
1.8708247e-37
1.4375308e-37
2.4189627e-37
2.5980658e-37
6.7324151e-37
2.6291688e-37
2.1390436e-37
1.6251111e-37
1.6444922e-37
6.0774392e-37
3.8362372e-37
3.0244242e-37
3.1933619e-37
3.9788942e-37
2.1407282e-37
2.0829509e-37
2.3665233e-37
2.3889871e-37
9.7352273e-37
8.9607372e-37
5.4209916e-37
6.0293166e-37
4.5695517e-37
4.1759191e-37
4.623587e-37
1.639007e-36
7.0831996e-37
7.1470097e-37
6.2544206e-37
3.6779718e-37
4.3916424e-37
3.8108025e-37
3.3535733e-37
4.2139662e-37
4.6523564e-37
4.3707897e-37
3.9904274e-37
5.2698668e-37
4.8874767e-37
4.373466e-37
4.6509227e-37
1.6460132e-37
1.5599317e-37
1.9068233e-37
1.3615705e-37
1.9056536e-37
1.7198638e-37
1.9632511e-37
1.7322284e-37
3.5700988e-37
5.5327832e-37
4.5729562e-37
9.5448838e-38
1.7680132e-37
1.0067758e-37
1.1932269e-37
1.4694452e-37
1.4972237e-37
3.137999e-37
1.2005331e-37
1.3730013e-37
1.0486628e-37
1.3005116e-37
1.2139203e-37
1.1683592e-37
1.3899943e-37
3.4955035e-37
1.4491685e-37
1.5761955e-37
2.4367679e-37
3.2440769e-37
5.0733111e-37
8.4950327e-37
1.4699537e-37
1.4416113e-37
1.1311367e-37
1.0639366e-37
1.3543789e-37
8.0752319e-38
6.1435545e-38
7.9997492e-38
4.3293928e-38
4.2107011e-38
3.8281836e-38
4.8884158e-38
3.7013804e-38
2.4146782e-38
3.374489e-38
2.842205e-38
9.9203481e-38
1.2945863e-37
1.4307253e-37
1.253054e-37
6.2888593e-38
9.9644499e-38
7.7942623e-38
1.2094849e-37
4.9900003e-38
4.3861784e-38
7.140338e-38
7.7050252e-38
1.3576415e-37
1.4486985e-37
7.7109757e-38
1.8719679e-37
9.5990398e-38
9.1313252e-38
1.8576432e-37
1.1420204e-37
6.8570253e-38
1.3737921e-37
7.7398948e-38
1.7605158e-37
2.6063821e-37
2.1273361e-37
1.4262166e-37
1.1597682e-37
1.393677e-37
1.1114587e-37
1.3088925e-37
2.0230846e-37
1.3225064e-37
1.3470999e-37
2.1775079e-37
7.1839613e-38
1.1073162e-37
1.1422651e-37
6.4541496e-38
7.08739e-38
1.3021955e-37
1.0977989e-37
8.4995426e-38
1.0525138e-37
1.116163e-37
1.3111175e-37
1.1777258e-37
1.9183452e-37
1.6809904e-37
2.3421189e-37
2.8508852e-37
2.2522571e-37
1.1776908e-37
2.2176148e-37
1.3549589e-37
1.7619172e-37
2.7369019e-37
2.3906119e-37
1.5431131e-37
1.7021037e-37
2.7036933e-37
2.1879753e-37
1.3744576e-37
1.1778878e-37
1.2603354e-37
1.8119359e-37
1.0717681e-37
1.7290443e-37
1.3707287e-37
1.1657374e-37
1.6511998e-37
3.4392638e-38
2.6152143e-38
4.0981582e-38
5.2790809e-38
2.854601e-38
5.5991488e-38
6.08399e-38
5.5941584e-38
4.5321644e-38
7.5901643e-38
6.020212e-38
5.227713e-38
6.7865643e-38
1.7762767e-38
2.4865176e-38
2.0087545e-38
4.7529222e-38
4.6652687e-38
3.0749882e-38
4.1459043e-38
3.62288e-38
2.7676493e-38
2.7255714e-38
5.4952867e-38
5.7522674e-38
4.7781106e-38
2.5543423e-38
6.4241166e-38
6.9219703e-38
1.0736346e-37
7.6149856e-38
6.1421473e-38
8.4919324e-38
1.1170611e-37
1.3817675e-37
1.345766e-37
1.0165559e-37
9.2461327e-38
8.5161879e-38
9.2489945e-38
9.3287059e-38
6.7316033e-38
5.6225828e-38
4.3913376e-38
5.487653e-38
2.4174052e-37
3.9114427e-37
2.7298953e-37
3.9707695e-37
2.0292755e-37
1.8636737e-37
1.8180483e-37
3.3297651e-37
3.0979985e-37
2.2803707e-37
2.1741597e-37
2.4880406e-37
2.9612805e-37
2.513914e-37
2.0973549e-37
2.981158e-37
2.9908987e-37
1.4682472e-37
1.7995865e-37
2.5388137e-37
2.6915451e-37
1.8516594e-37
2.8882267e-37
2.9739859e-37
3.5832729e-37
3.2000572e-37
2.85675e-37
3.0081235e-37
2.2589225e-37
3.1961791e-37
3.7712553e-37
2.4903678e-37
2.0058964e-37
1.741573e-37
2.0288322e-37
2.2049723e-37
2.9351923e-37
1.9997497e-37
2.4499088e-37
2.0476712e-37
2.7619926e-37
2.1488208e-37
2.475757e-37
3.2279502e-37
2.5667757e-37
2.2180042e-37
2.7284303e-37
2.5419525e-37
3.217628e-37
2.3094812e-37
1.932872e-37
2.9470648e-37
3.4643427e-37
2.4542994e-37
2.1876018e-37
1.2752106e-37
1.3396801e-37
1.5998963e-37
1.495408e-37
1.5372041e-37
1.7191543e-37
1.610272e-37
1.4471325e-37
1.2467667e-37
1.0973437e-37
3.3010684e-37
3.869768e-37
4.0477663e-37
1.3216393e-37
3.596882e-37
1.182903e-37
1.4695191e-37
1.7687587e-37
1.6289363e-37
1.3828314e-37
1.6460698e-37
1.7990993e-37
1.6096624e-37
1.5123603e-37
1.1431247e-37
1.379884e-37
3.3295781e-37
3.0156027e-37
1.3233127e-37
1.4906206e-37
2.350061e-37
3.0965717e-37
2.0792218e-37
1.9950483e-37
2.4290746e-37
2.2338451e-37
3.0753724e-37
3.3636444e-37
3.0500759e-37
2.6226725e-37
2.6949918e-37
2.3290193e-37
2.2437907e-37
1.8626766e-37
2.7389842e-37
3.5737796e-37
2.1440845e-37
2.7782175e-37
1.7499995e-37
2.3996088e-37
1.9315372e-37
1.5605655e-37
2.6657021e-37
1.3006861e-37
1.1324879e-37
2.3918346e-37
3.1580705e-37
1.3266778e-37
1.0998832e-37
1.7650896e-37
1.5911119e-37
1.9059912e-37
1.308463e-37
1.5389996e-37
1.5067404e-37
1.2365446e-37
6.0864633e-38
1.5472307e-37
1.4915351e-37
1.6154228e-37
2.2766309e-37
1.5678164e-37
3.0610997e-37
2.1303537e-37
1.6688603e-37
2.5841535e-37
2.9431998e-37
2.4226657e-37
2.230511e-37
2.3793034e-37
2.0460494e-37
2.5123176e-37
1.7332394e-37
1.4398914e-37
1.6873419e-37
2.7100051e-37
2.3284834e-37
1.5757657e-37
1.1142734e-37
1.3706112e-37
2.0454227e-37
1.940344e-37
1.2945673e-37
1.2123558e-37
1.2480713e-37
1.9180126e-37
2.0802056e-37
2.2116822e-37
2.7543207e-37
1.3433434e-37
8.9719307e-38
3.3706776e-37
2.0803505e-37
2.3626695e-37
2.3472609e-37
2.3810062e-37
2.5424745e-37
1.8449307e-37
1.9668814e-37
4.1211288e-37
3.4371407e-37
3.0746728e-37
3.073229e-37
3.5816845e-37
3.1101528e-37
2.7859805e-37
2.4170282e-37
1.9169133e-37
2.1035579e-37
1.8063054e-37
2.080335e-37
1.957324e-37
2.3500082e-37
2.0260755e-37
1.8471004e-37
1.6827386e-37
1.8099296e-37
3.0086186e-37
3.3242468e-37
3.0918009e-37
2.6374964e-37
2.5776062e-37
3.1104652e-37
2.7155095e-37
2.2214303e-37
1.6632133e-37
1.8359509e-37
1.7239857e-37
1.5837177e-37
1.8793234e-37
1.7470044e-37
1.9681959e-37
2.149654e-37
1.8322954e-37
2.1712089e-37
2.0537673e-37
2.6935826e-37
2.808573e-37
2.6073572e-37
2.549919e-37
2.6293816e-37
1.4163065e-37
1.5475141e-37
1.0230457e-37
2.2807878e-37
2.2611227e-37
1.9138672e-37
2.7071184e-37
2.092034e-37
6.0650933e-37
1.138672e-37
2.0645209e-37
6.3214731e-37
1.2090451e-37
1.4248601e-37
6.6764851e-37
1.1626717e-37
1.344552e-37
6.7220592e-37
1.1752145e-37
1.370904e-37
1.3078502e-37
1.437936e-37
1.5340937e-37
1.4212668e-37
2.3079617e-37
2.3808077e-37
8.1283918e-38
5.5101541e-37
1.2363556e-37
1.0994898e-37
5.6292654e-37
1.9917407e-37
1.1162501e-37
4.5838782e-37
2.7980052e-37
1.0807451e-37
4.8703415e-37
1.2959802e-37
1.0419562e-37
6.6977213e-38
8.1943453e-38
8.0615478e-38
7.7173763e-38
7.0014943e-38
4.4834745e-38
7.8939243e-38
7.4109558e-38
1.386011e-37
1.2931044e-37
9.5987505e-38
8.3220184e-38
1.9522692e-37
9.7430072e-38
9.844854e-38
6.9771702e-38
1.3025002e-37
2.4036786e-37
2.7822003e-38
1.3118703e-37
2.9344185e-37
3.1526345e-37
9.1129918e-38
1.5903716e-37
3.9916069e-37
9.0313651e-38
1.187393e-37
3.8764813e-37
9.3901893e-38
1.1730107e-37
5.1623532e-37
5.4266261e-37
3.8072074e-37
3.9252611e-37
4.2179714e-37
4.1021557e-37
2.8420163e-37
2.9414113e-37
2.7164541e-37
2.7609867e-37
2.7389335e-37
2.6141094e-37
2.3590537e-37
2.5332391e-37
2.3869473e-37
2.6112831e-37
2.8080351e-37
2.4986312e-37
3.1228526e-37
2.9672362e-37
2.6883873e-37
2.7764907e-37
1.9103927e-37
2.238161e-37
2.3131591e-37
2.0090983e-37
2.0198986e-37
2.03039e-37
2.0557296e-37
2.0401189e-37
1.8719182e-37
2.0493061e-37
1.9930514e-37
1.9710379e-37
2.1127763e-37
2.2306793e-37
2.3061843e-37
2.0839402e-37
1.8659964e-37
2.0015828e-37
1.9635678e-37
1.9850995e-37
1.9345755e-37
1.9249718e-37
1.9340788e-37
1.9781016e-37
2.1318385e-37
2.2779805e-37
2.3037065e-37
2.1060798e-37
2.1314393e-37
2.2006725e-37
2.3659095e-37
2.1491409e-37
2.9327405e-37
3.2894775e-37
3.1427101e-37
2.8259887e-37
2.8072334e-37
2.91364e-37
2.8387154e-37
2.7000339e-37
2.7970838e-37
2.7774848e-37
2.6498034e-37
2.709675e-37
2.7722466e-37
3.0197724e-37
3.127915e-37
2.8355255e-37
1.5227645e-36
1.5283948e-36
1.0514272e-36
1.0627472e-36
1.1847868e-36
1.1764038e-36
1.6426632e-36
1.6011126e-36
8.8282321e-37
8.9285693e-37
1.5375704e-36
1.5574032e-36
1.0784152e-36
1.0912674e-36
1.1137991e-36
1.1317926e-36
1.5669433e-36
1.5837545e-36
9.0308592e-37
8.9405459e-37
1.0157334e-36
1.004687e-36
7.985431e-37
8.1249779e-37
8.265781e-37
6.2632525e-37
6.1482554e-37
8.1119226e-37
7.9529495e-37
9.9418976e-37
7.9980048e-37
9.835346e-37
8.1709218e-37
6.1814416e-37
8.0974288e-37
6.1028658e-37
9.9521086e-37
9.8364652e-37
7.9543049e-37
7.8027123e-37
7.9091447e-37
6.1417176e-37
5.9807666e-37
8.1311123e-37
1.00824e-36
9.8479799e-37
8.0507259e-37
8.2400106e-37
8.4281935e-37
8.2155552e-37
6.4188871e-37
6.307337e-37
1.2801551e-36
1.3351863e-36
8.761221e-37
9.1506928e-37
1.0352756e-36
1.0516379e-36
1.4600258e-36
1.4919807e-36
7.8985061e-37
8.2344926e-37
1.5032327e-36
1.5317854e-36
1.0478853e-36
1.0758035e-36
1.1276888e-36
1.1327909e-36
1.577952e-36
1.5795005e-36
8.457995e-37
8.7462233e-37
6.7027028e-37
8.3990928e-37
6.675182e-37
8.4357966e-37
6.7939387e-37
6.8036483e-37
5.1431987e-37
5.097045e-37
7.2572796e-37
9.0346251e-37
7.2510969e-37
8.969909e-37
5.5508654e-37
7.3705448e-37
7.3724147e-37
5.5199113e-37
7.6157449e-37
9.5714934e-37
7.6677849e-37
9.4734037e-37
5.828052e-37
7.7469352e-37
7.5951541e-37
5.7077259e-37
7.8535639e-37
9.8903726e-37
7.9781504e-37
9.6517611e-37
6.1556467e-37
8.1316042e-37
7.9589708e-37
6.008969e-37
1.451312e-36
1.4763856e-36
1.028571e-36
1.0417594e-36
1.0811532e-36
1.0816343e-36
1.497322e-36
1.5080628e-36
2.7708919e-37
3.0191304e-37
3.129713e-37
2.758039e-37
8.6979322e-37
8.8774151e-37
1.4477567e-36
1.4647501e-36
1.0140513e-36
1.0336119e-36
1.0633938e-36
1.0766573e-36
1.473456e-36
1.5131484e-36
2.5630324e-37
2.9288362e-37
2.8948669e-37
2.5591382e-37
8.6570358e-37
8.6091138e-37
7.5877387e-37
9.5893235e-37
7.6686672e-37
9.4905659e-37
7.7184619e-37
5.834545e-37
5.7379565e-37
7.5740485e-37
7.5354248e-37
9.4376653e-37
7.5890877e-37
9.3181067e-37
2.601857e-37
2.7876887e-37
2.7052378e-37
2.5301628e-37
2.7011199e-37
2.8519474e-37
2.6730996e-37
2.6588558e-37
1.5148784e-36
1.5158572e-36
1.0739358e-36
1.0790732e-36
1.1773248e-36
1.1597038e-36
1.6260338e-36
1.6101247e-36
2.9296542e-37
3.1661582e-37
3.3345952e-37
2.9282907e-37
9.5372667e-37
9.3630357e-37
1.4747385e-36
1.4974751e-36
1.0392517e-36
1.050564e-36
1.0606995e-36
1.0671797e-36
1.4687755e-36
1.4940623e-36
2.7232589e-37
3.0819533e-37
2.9481215e-37
2.6141366e-37
8.6200264e-37
8.8128018e-37
2.8113872e-37
2.9556401e-37
2.7879645e-37
2.6424667e-37
2.9222919e-37
3.0379277e-37
2.8193077e-37
2.8346424e-37
2.1950596e-37
2.6740318e-37
2.3916909e-37
2.0938213e-37
2.1734505e-37
1.9602658e-37
1.8824025e-37
1.9103871e-37
2.0241325e-37
2.0183164e-37
2.0649354e-37
2.0791677e-37
2.2082539e-37
2.3833494e-37
2.4060342e-37
2.1842639e-37
1.9997625e-37
2.3078136e-37
2.2287376e-37
1.96565e-37
2.0282968e-37
2.0112399e-37
1.9142471e-37
1.9211855e-37
1.7859782e-37
1.9853429e-37
1.9174878e-37
1.872074e-37
2.0503182e-37
2.1444002e-37
2.1791998e-37
1.9889034e-37
1.4656665e-37
1.7807779e-37
1.6284734e-37
1.4196406e-37
1.5389873e-37
1.3642745e-37
1.3705826e-37
1.394724e-37
1.1509917e-37
1.2979317e-37
1.2781348e-37
1.2682059e-37
1.3560307e-37
1.3173538e-37
1.3655154e-37
1.3158951e-37
4.5575407e-38
7.73145e-38
8.660984e-38
4.8735729e-38
1.4151891e-37
1.4677757e-37
1.6304379e-37
1.4947631e-37
1.5613919e-37
1.1536703e-37
1.4371256e-37
1.5319146e-37
8.2050122e-38
8.0481018e-38
7.8643485e-38
7.7008009e-38
8.5743438e-38
8.7164477e-38
8.3027558e-38
7.904051e-38
7.8451564e-38
8.7637163e-38
7.8648408e-38
7.0033718e-38
4.6246963e-38
1.4829334e-37
1.4612921e-37
1.4856774e-37
1.5530427e-37
4.7353519e-38
1.1933168e-37
1.3722209e-37
1.4373855e-37
1.1978229e-37
7.3368699e-38
7.4575462e-38
7.6046848e-38
7.2513275e-38
7.4906831e-38
8.2387291e-38
9.9458359e-38
1.0302307e-37
1.4401724e-37
1.5628901e-37
1.4311665e-37
1.3089007e-37
1.1662708e-37
1.0722484e-37
1.0640459e-37
1.158151e-37
1.1156895e-37
1.1470148e-37
1.1886156e-37
1.225497e-37
1.3518956e-37
1.3907401e-37
1.4115388e-37
1.35962e-37
4.5840708e-38
4.7790122e-38
7.0674004e-38
7.7951573e-38
4.656226e-38
4.7314294e-38
7.177769e-38
8.0611733e-38
1.0399212e-37
9.7683967e-38
1.4377542e-37
1.7004378e-37
1.3689785e-37
1.3082109e-37
1.4904238e-37
1.2574294e-37
1.3165294e-37
1.2191919e-37
1.1131944e-37
1.1808177e-37
1.3323341e-37
1.1476657e-37
1.3138228e-37
1.3373812e-37
1.3644638e-37
1.2027982e-37
1.4003246e-37
1.373028e-37
1.5080231e-37
1.5337661e-37
8.4906899e-38
7.5220144e-38
7.8997466e-38
8.0176513e-38
1.2175836e-37
1.5587099e-37
1.262105e-37
1.178455e-37
7.2124137e-38
7.0870772e-38
7.9696171e-38
7.0758171e-38
1.3981098e-37
1.4173751e-37
1.4348419e-37
1.4757172e-37
1.6247568e-37
1.4147161e-37
1.5565576e-37
1.2232513e-37
8.5583469e-38
8.1759323e-38
8.3025404e-38
8.7043906e-38
7.7433628e-38
7.4698137e-38
8.4827502e-38
7.8379993e-38
1.2132508e-37
1.2593834e-37
1.2934017e-37
1.1915801e-37
1.3074847e-37
1.3769785e-37
1.3984739e-37
1.308958e-37
1.5854145e-37
1.5616408e-37
1.4514078e-37
1.4386029e-37
1.4688538e-37
1.4780237e-37
1.3947882e-37
1.3356361e-37
1.7326779e-37
1.9201751e-37
8.9418547e-37
8.8658509e-37
8.4411564e-37
8.6296436e-37
9.5235796e-37
9.254407e-37
8.381531e-37
8.6500924e-37
7.0319572e-37
7.3605464e-37
7.478801e-37
7.257369e-37
7.4160825e-37
7.5927183e-37
7.8196539e-37
7.4402826e-37
6.7073041e-37
6.745343e-37
1.3351564e-37
1.5341652e-37
1.7712715e-37
1.5757028e-37
8.4363037e-37
8.5346094e-37
7.2537622e-37
7.4163394e-37
1.5917412e-37
1.8589664e-37
2.1731158e-37
1.9199292e-37
1.8522105e-37
1.9817064e-37
2.2873659e-37
2.2090626e-37
7.4898679e-37
7.5973544e-37
6.0064524e-37
6.3204125e-37
6.1716555e-37
5.7918318e-37
4.2975674e-37
4.5584729e-37
4.7767529e-37
4.6280769e-37
4.4647184e-37
4.7901638e-37
5.0728656e-37
4.8109456e-37
6.2640186e-37
6.232423e-37
6.0453801e-37
5.8463359e-37
5.7352633e-37
6.0446113e-37
5.9770392e-37
5.8416067e-37
4.0344819e-37
4.0918862e-37
3.6439574e-37
4.3066366e-37
4.5941767e-37
3.9971803e-37
5.9713502e-37
5.8788246e-37
4.874351e-37
5.0463492e-37
4.9749596e-37
5.1059431e-37
8.6281411e-37
9.086415e-37
8.8520825e-37
9.0819709e-37
1.1036024e-36
1.1935101e-36
8.5776406e-37
8.8757537e-37
8.9234667e-37
8.794574e-37
2.0534244e-37
2.4011474e-37
2.269288e-37
1.9218329e-37
2.2239e-37
1.8574549e-37
7.3599365e-37
7.5240806e-37
7.5912857e-37
7.530072e-37
7.6850315e-37
7.399836e-37
7.819124e-37
7.7434903e-37
9.6116089e-37
9.3377405e-37
8.6816542e-37
8.9778443e-37
8.6953376e-37
8.9849919e-37
9.0160076e-37
8.9534381e-37
7.6409019e-37
7.437269e-37
7.5932312e-37
7.6624998e-37
7.6097936e-37
7.790857e-37
7.9315137e-37
7.6692951e-37
5.431412e-37
4.9710352e-37
4.774511e-37
5.0253538e-37
4.735267e-37
5.0859882e-37
5.1515017e-37
5.0903366e-37
6.1668532e-37
6.5849111e-37
6.0807308e-37
6.2505737e-37
6.068837e-37
6.1342393e-37
6.4101379e-37
6.2495051e-37
4.812486e-37
4.855749e-37
5.1761627e-37
4.875822e-37
4.7261635e-37
5.028571e-37
5.158666e-37
5.0467712e-37
6.322768e-37
6.4321946e-37
6.2897467e-37
6.0861374e-37
6.108931e-37
6.151656e-37
6.2420941e-37
6.1227439e-37
9.6607484e-38
5.5778438e-38
6.7758438e-38
4.7461605e-38
5.047245e-38
5.1442738e-38
5.3035313e-38
4.8798306e-38
4.5885675e-38
4.8060702e-38
5.275559e-38
4.495717e-38
5.1389122e-38