/*--------------------------------*- C++ -*----------------------------------*\
  =========                 |
  \\      /  F ield         | OpenFOAM: The Open Source CFD Toolbox
   \\    /   O peration     | Website:  https://openfoam.org
    \\  /    A nd           | Version:  7
     \\/     M anipulation  |
\*---------------------------------------------------------------------------*/
FoamFile
{
    version     2.0;
    format      ascii;
    class       volScalarField;
    location    "6000";
    object      omega;
}
// * * * * * * * * * * * * * * * * * * * * * * * * * * * * * * * * * * * * * //

dimensions      [0 0 -1 0 0 0 0];

internalField   nonuniform List<scalar> 
33733
(
323.43096
468.65955
327.61294
486.70396
383.49395
304.75071
453.14202
379.84005
482.04279
450.25583
434.74314
520.61202
518.89864
636.3936
640.4794
412.28383
305.03132
465.53108
532.58867
1058.6951
1925.9334
896.32738
596.69019
828.04624
594.06666
342.70572
399.8483
353.82943
336.32475
642.18946
718.90706
543.15109
552.63694
530.19881
525.46772
461.2177
470.83878
844.85137
782.85663
626.46137
399.20358
687.91103
342.45891
450.23204
496.11772
489.35938
573.7298
590.29182
579.17455
580.3256
1077.9747
465.33329
459.46353
378.1405
525.90387
497.69501
339.22372
344.82722
401.85352
691.72326
619.80429
895.95372
703.76616
794.90772
899.29743
1502.9324
1213.9168
1383.1891
1352.904
2958.3335
3117.7959
5978.0547
5883.0052
5482.0614
2123.8537
1084.3769
2193.5034
1096.2104
1841.8707
1714.1681
969.93917
997.52919
317.43133
404.54661
460.74301
567.28365
494.12219
445.36814
896.60262
743.56481
1053.8012
771.99254
1264.4055
1453.7672
854.25533
887.64108
533.94697
1298.8756
1296.0767
1287.3898
538.63188
466.63233
470.5915
1019.8231
1016.7304
896.05036
905.00693
1053.2756
1023.795
924.41387
901.98704
400.89121
774.06861
656.42239
653.70064
759.14519
759.44527
652.94036
667.01829
407.19706
768.28511
344.16791
347.53752
1753.3618
1805.1013
1546.4008
1451.2755
966.94028
849.40274
551.08251
455.24431
1129.0635
1263.8506
394.55572
421.42985
467.64581
545.73893
530.90458
780.3434
917.71003
629.15477
625.85073
1502.1144
2645.874
2877.8385
494.32053
468.33981
432.51365
404.27818
407.94371
456.98473
668.13589
571.75703
379.37707
318.04455
405.93266
557.0735
456.72252
469.04219
591.911
864.84086
804.4888
1129.878
1313.3997
730.85263
703.04295
940.93591
797.81896
1662.7469
2287.548
2248.0768
2890.8744
970.01889
1231.195
1192.1678
1639.1017
964.54973
1022.8413
1781.6847
1554.7161
1202.1264
1151.3072
2168.9814
2419.2924
5035.1328
4621.7672
4855.5182
4798.916
3667.3608
4076.1857
3031.5441
3683.7408
4022.41
4074.619
8791.0471
8805.9455
10030.377
4430.9669
4497.6223
9888.2505
15456.714
14487.244
13852.264
12737.744
13247.389
15515.431
14151.486
12092.457
11367.768
11548.445
10737.863
10845.542
10812.098
5046.8921
5028.6367
2325.6929
2287.9932
2479.0652
5546.3584
5609.922
2469.4463
4451.4829
4508.9785
2111.8627
2146.5692
3815.2984
1877.5959
1956.4127
3913.6616
317.5241
411.27779
503.02077
596.06084
784.47692
568.47359
676.01258
1181.7596
1419.6689
1044.1561
967.69571
1756.3829
2030.4181
1264.9362
1176.7805
2419.1583
2640.6276
1489.6697
1394.4454
3323.1673
3103.4456
1637.9845
1728.0677
1073.1547
947.86876
937.40003
1068.5024
2910.4971
2899.3048
3252.3756
3277.6851
2834.3905
2885.5695
3146.2887
3232.686
2878.0915
2868.5438
3204.664
1062.0094
2979.8902
2876.0158
1084.5514
955.51352
932.97357
796.12222
678.70608
672.14096
405.12069
786.99413
407.05899
785.8573
670.6439
684.83457
803.06132
347.31757
346.25813
2276.1213
2349.8477
2113.0353
2176.1973
2211.4616
2240.2165
2091.0431
2120.7044
1638.2176
1687.6849
1859.315
1804.0151
1717.8864
1639.3515
1797.9643
1848.5234
2383.8316
2426.9665
5676.2405
2262.1776
2210.355
2350.775
2342.5607
2178.3687
2180.8461
1774.2721
1711.55
1940.3291
1886.8589
1694.3157
1691.3318
1859.1005
1858.2315
470.08472
575.64296
572.63471
466.40873
1272.4479
1335.4297
1523.8266
1458.0792
962.05779
929.11678
1135.313
1080.8312
927.1499
1080.7858
934.45436
1081.5787
1443.8786
1269.9992
1445.1083
1275.0773
1225.5854
1264.7402
1400.0825
1448.4388
901.79033
920.09545
1077.9876
1043.8827
573.3277
949.31606
925.33429
1069.8879
1106.7821
578.3544
469.50161
470.83903
1310.834
1243.7892
1478.0862
1412.2911
405.74697
3421.0683
3346.4025
3601.2111
3538.1031
3193.0712
3219.1818
2927.2663
2880.347
1713.6555
1495.7146
751.70149
1243.2879
1062.9151
588.6609
1982.8028
2134.4764
2439.6145
2602.3734
323.22804
337.57239
365.97571
329.68605
396.30488
433.02396
475.54343
637.68219
645.14378
583.33347
555.23824
1590.5773
915.67168
1386.3654
1172.0791
1914.6773
2178.3247
1907.9691
3762.371
1561.5569
3548.1861
3920.3035
4081.1573
7632.9931
7248.999
8728.0244
8966.746
507.31975
475.51261
432.19942
403.63965
424.33739
511.20012
737.15255
1016.3884
1178.8177
605.09064
858.8325
758.93639
382.18877
316.1858
406.88744
498.42427
511.67435
558.01549
641.74767
697.10791
563.65097
617.18214
835.72705
937.11388
628.92478
1433.7066
1510.0638
1856.3359
1582.9776
1733.0787
1640.365
2182.1292
2516.9022
1357.5099
992.38859
2408.0526
3086.7604
6303.0702
4857.5652
8209.1099
5618.4403
7220.5188
4984.4058
3788.6328
4546.3382
8816.5674
7815.2486
9562.4216
9902.9891
7070.3952
6590.7709
1241.592
1080.9952
1503.6298
2068.2838
1857.9743
1512.0742
2708.902
3674.5084
2295.76
3208.5183
1926.3829
2469.4711
4349.3033
5796.2407
3952.0179
3176.5231
2254.3116
4944.451
2420.6171
4141.544
2039.4753
3421.9938
1906.9541
3049.222
2757.242
2921.4597
5714.6852
6012.5903
3332.9479
3538.3914
7751.1898
6871.1731
13048.111
14153.236
13177.964
14229.431
10409.454
11226.618
13252.979
13917.766
10937.254
11781.182
10008.312
10319.381
11124.815
11871.603
9645.7021
9820.278
7876.826
12429.839
9017.1388
12550.704
11802.651
8992.5193
9096.976
11138.679
5879.1727
6563.4459
10641.499
10851.825
10880.177
11113.701
8217.3076
8076.3264
22579.405
12273.029
12458.807
23887.251
11857.761
12509.533
21907.019
12591.158
24327.499
13066.108
13096.991
23323.683
13999.045
13731.825
23572.548
25086.5
28560.466
34270.839
30483.878
27130.998
24459.575
26133.098
27156.487
29142.171
22180.716
20531.862
18199.291
18997.688
17582.111
19208.921
18495.542
20831.003
19521.917
18355.237
17193.384
17882.967
24465.663
26765.675
24719.754
22618.297
22668.097
25271.507
23021.054
20889.117
17453.206
18701.468
17487.271
16616.312
16272.208
15570.555
15930.093
16646.62
16876.292
16144.628
16478.409
17110.47
17235.568
16658.749
17232.995
16728.138
16107.634
16589.742
18859.985
17429.695
16157.249
15790.397
17041.925
16665.022
11841.645
12597.801
14011.912
13329.172
26693.169
23512.554
18105.092
10435.436
11316.609
8759.0845
9630.507
316.98605
514.09013
525.30269
624.79952
755.49964
981.40613
887.60577
716.6201
1661.2205
2537.2862
3418.0468
4381.8417
5275.986
6039.1309
8128.9238
7015.4003
2997.2217
2278.71
2281.2205
2424.5915
2453.4107
1965.7191
1816.9492
1780.1622
1953.7435
1781.8487
1769.0871
1938.6738
1955.1143
2447.5406
2270.6253
2281.1424
2462.0775
6954.9444
7151.8798
5961.7086
5792.6298
7094.3584
7049.3707
5861.9964
5931.9013
8328.4571
8483.7319
8269.268
8434.908
8177.9419
8345.51
8389.126
8564.8255
6548.5244
6686.4755
5477.4852
5551.0314
6872.6035
7081.7649
5745.8654
5910.5574
7682.0009
7827.06
7842.3077
7996.6488
8063.4519
8207.8
8293.7826
8450.6501
6932.4834
7025.4139
2443.0654
5876.2666
5794.6807
6879.1383
6842.985
2441.1141
5689.9028
5745.8449
8077.4286
8226.2711
8030.1959
2276.0569
2263
7082.377
7310.2289
2531.4471
6107.6772
5908.0316
6934.1704
6843.621
2443.7856
5698.4771
5798.7256
2277.8927
2357.4011
1955.2796
1786.7082
1852.3171
2023.7969
1949.6252
1783.5666
1761.1997
1936.1409
1565.6708
1397.2185
1340.0787
1524.6309
591.49924
982.26848
1021.8264
1192.1783
1144.4045
1129.3081
973.59924
984.90985
1144.5622
587.44731
478.39061
474.46085
1509.5795
1331.4377
1346.6383
1526.9734
588.26489
591.23238
476.4475
475.12523
1530.3293
1351.381
1328.4742
1508.9007
986.16416
1150.6609
975.07418
1129.0972
998.84699
1023.09
1192.6705
1162.8897
1362.776
1408.5415
1591.4678
1538.9998
408.8376
410.57726
4767.793
4697.6257
4664.6304
4730.1917
5002.1433
4901.3053
4681.2265
4760.391
4099.0696
4135.2798
4228.3028
4189.9149
4120.8466
4292.2634
4411.1927
4214.1511
4244.1583
4242.4856
4190.789
4130.9577
4723.3934
4655.0058
4273.563
4323.2674
4196.745
4103.3409
3803.5654
3868.5049
3937.4491
3865.1643
3879.4953
3868.2686
2981.9092
3025.1944
3184.8419
3139.7872
3015.9231
3111.245
3288.6295
3176.2272
3705.5228
3848.5927
3699.944
3578.2405
3551.2226
3591.7312
3709.1412
3667.0113
3272.2214
3040.1751
3135.1703
3297.5052
2853.4293
2985.277
3157.3038
2983.6407
3685.7474
3550.7681
3339.9733
3433.4067
3537.5356
3469.8573
3644.9957
3652.5654
4952.2259
4879.7326
4982.9079
5069.3089
19061.35
18956.472
4835.389
4939.9553
5025.2508
4920.3812
18165.347
4275.2779
4372.3431
4464.8808
4371.1895
4394.2862
4299.6964
4371.7625
4472.4374
5012.7524
4914.0387
4817.0786
4897.9953
4883.6241
4790.1544
4870.6904
4956.4063
4291.0779
4207.9251
4301.1139
4377.2662
4235.4993
4302.3394
4411.9779
4328.1401
3426.3158
3274.2177
3190.2284
3346.108
3182.6685
3168.9012
3353.0465
3323.0211
3745.5309
3836.0942
3944.7009
3858.8831
3745.3365
3858.5767
3914.0879
3783.4231
3127.4514
3086.8704
3290.5702
3240.7928
3087.7337
3134.7577
3259.2339
3302.8573
3728.3657
3856.3631
3798.7904
3678.5917
3658.6939
3770.4836
3838.3025
3721.7066
530.36479
642.88619
830.85468
853.47657
628.21352
827.64381
827.13414
624.92841
622.18405
512.97948
2055.9244
2047.6043
2256.3864
2263.6188
2120.2725
2212.058
2405.7192
2317.4427
2651.8674
2740.7562
2911.5399
2830.8001
2790.2568
2606.4794
2610.2235
2799.8213
1204.5283
1421.4591
1173.0416
1358.6664
1296.5081
1107.5837
1296.5968
1111.0584
1697.0186
1618.1181
1919.028
1835.5175
1761.9641
1545.635
1553.7835
1768.3179
1105.7251
1300.339
1291.1827
1115.179
1758.2517
1547.0789
1533.1935
1731.6608
1112.4246
1305.3151
1320.2587
1131.0809
1576.0006
1545.8917
1749.4905
1773.2502
2756.173
2574.9765
2535.755
2720.4501
2235.7493
2033.8005
2004.692
2204.7355
2714.5262
2541.4562
2577.705
2754.9133
2212.4948
2018.5013
2051.3197
2243.1037
1921.2662
1936.4089
2148.5756
2116.67
1966.152
2025.282
2229.0938
2162.7866
2442.7599
2480.9116
2662.6988
2620.358
2484.1118
2556.2952
2746.9319
2661.5543
808.20579
1047.9805
1049.4495
1225.9778
1214.945
823.01741
1083.6339
1092.9884
1292.1498
1253.481
1489.0744
1533.903
1751.3331
1696.4978
1664.7729
1452.9436
1445.4555
1652.1314
625.74437
614.97499
832.69313
1247.9432
1182.5934
1405.0426
1498.6539
829.92428
1092.069
1085.5549
1254.2415
1259.0304
1486.1819
1477.804
1683.976
1677.6251
1892.6557
1676.843
1826.1893
2070.7504
638.18135
634.35941
2394.9897
2162.5361
2317.0568
2526.1567
1925.4869
1940.6316
2139.3418
2094.339
2860.1569
2609.1582
2746.0649
2974.9192
2384.4103
2449.7118
2639.3987
2537.361
395.43407
742.05955
915.56311
321.13487
334.76061
365.1474
328.83471
509.1783
396.12384
471.32843
436.56162
596.64138
560.45403
483.37349
663.19741
662.39801
653.02193
652.55336
480.42452
1951.9126
1969.0988
3172.0048
3715.1181
1951.6169
1719.6833
930.5759
2078.8522
1647.9556
2502.1373
2763.799
1211.529
2591.115
2430.9374
2850.4432
3038.7467
4388.8368
4774.2454
6050.0682
5522.1885
4732.8407
4748.5055
8596.112
3822.2533
8792.6038
8651.6421
8416.5351
1606.5105
3867.7717
4125.8538
4121.0914
8174.1518
8227.9161
8454.7913
8531.0157
9235.2543
9328.202
9590.4421
9805.7934
9616.1169
9501.1337
9377.6046
9423.7672
19358.402
19905.654
17316.423
17202.765
22176.141
22521.693
24948.19
24810.696
435.68909
407.98977
432.49886
662.12882
530.48062
570.00226
1129.6369
1355.4742
1410.7169
737.31356
1145.0361
1697.5267
1509.5931
1933.363
2162.3392
808.16935
796.80747
604.30644
930.78757
946.29432
386.50183
435.53362
407.43329
316.59929
512.40127
517.42223
498.41344
524.01706
600.86124
661.38204
674.68287
799.62229
768.68508
960.60108
1134.6049
802.28505
1288.7214
1985.0973
1147.8361
1697.5657
2559.2271
1940.5144
3200.8694
3909.0987
2322.5171
1637.1136
3318.1385
1115.3487
1275.9135
1780.879
4397.2846
5534.1715
4633.6517
4985.1137
6961.691
19209.451
10261.093
12722.615
20593.739
14726.788
7127.2443
16666.537
8311.4943
17498.108
21342.464
21291.892
17018.818
8529.9829
15352.196
15125.175
8554.3198
19077.898
16124.054
16019.453
19613.692
7938.6018
14908.783
14047.657
7833.3712
7772.339
5296.2804
5371.426
8712.3216
5848.1495
6677.4631
12067.914
10216.442
18047.754
19388.477
22803.077
22987.463
21722.403
14052.925
21083.503
16181.168
18184.391
22540.911
21528.736
17519.022
18565.239
22741.114
21827.053
17818.533
18193.371
17676.126
10212.189
10694.665
9140.8155
16408.956
16045.141
9302.56
2758.0131
3805.3368
3077.7659
3301.8838
4826.5112
7575.3447
4215.7181
3669.5908
5880.9829
9734.8225
5499.2736
6152.6962
12219.029
7308.1568
4816.4781
5327.0528
5715.2393
7269.2653
7398.6805
7524.5045
9616.8973
3968.9487
3626.0798
2714.0718
2695.9283
5242.0029
5945.2524
4101.7747
3658.4673
14533.724
11933.124
9582.6411
11436.363
13813.548
17104.639
17524.247
14513.619
13289.909
11102.545
5996.1886
6996.4727
5263.3646
9165.7697
7644.4906
4730.7925
8405.4142
7556.6031
10960.402
7563.7205
7360.6786
6210.2
5172.0061
7957.6256
7713.3035
11481.44
11603.833
12294.995
8075.015
7985.8491
12549.618
10085.869
10716.127
19587.994
16888.807
13776.194
8741.5957
14546.251
9161.3085
24380.985
27637.23
27216.544
25770.471
28876.489
32066.471
29566.496
29828.887
23841.545
21824.552
18716.688
19811.269
20545.711
25094.744
19534.687
23316.401
16416.666
25667.885
19647.544
24329.505
26408.52
21844.808
22412.863
25638.199
24430.394
26564.659
21735.512
20279.967
25724.795
27985.444
22946.551
21451.345
16568.507
16362.801
17322.099
17416.14
16808.192
17634.285
17532.484
16855.568
17479.368
16585.873
15987.438
16142.317
15500.623
17655.644
15446.22
16812.169
17147.554
18280.422
17882.125
16985.88
17794.44
18897.781
18092.079
17316.951
17007.871
18105.074
14867.067
14790.666
17441.819
18746.263
14568.91
14067.659
11894.181
11142.378
20839.044
21394.224
25506.58
25180.134
25065.559
23738.418
23590.212
13366.961
24351.093
15536.117
24508.184
27780.812
22600.617
26772.508
17955.908
21032.218
19499.314
17326.868
12507.724
17837.814
17269.752
12731.85
13899.941
19676.648
18261.431
14006.982
18195.14
19911.962
17436.631
18425.423
8843.3218
9188.9415
13560.753
14235.136
10275.343
10089.386
18744.222
19129.623
24951.197
20873.981
20724.397
24077.884
25481.345
22983.664
23077.893
23868.2
20589.292
22329.485
18408.595
17393.769
18639.832
22924.122
21584.466
17774.608
17111.088
18380.334
11864.822
11842.178
11600.285
19118.028
17722.493
11310.858
55227.324
51012.975
20003.799
19754.013
37574.428
22273.654
26070.448
58855.571
61866.818
65311.19
64078.889
52775.64
59673.235
66395.903
62066.428
57781.434
57604.134
60024.071
55546.135
56506.019
53908.77
48110.982
49431.539
46197.653
49808.016
47299.487
51936.123
48068.354
46456.8
43920.841
45101.874
56147.511
59005.656
59241.115
54290.835
52664.916
58891.033
57397.47
50450.245
43732.292
45274.86
43110.769
41991.718
47075.877
45367.621
47821.123
50680.515
18418.094
50979.114
50345.946
59219.627
59604.805
69502.872
69276.433
19045.002
18977.593
50584.806
30939.905
63504.635
54330.094
48581.636
58111.296
49945.146
13207.687
20576.795
20013.542
13763.984
20923.008
21718.104
15001.604
21685.558
22154.026
14362.752
21197.342
21937.706
21319.795
20908.778
25166.544
25089.482
90564.343
83391.798
21632.743
11769.477
18854.761
18033.289
12609.175
16885.587
18734.156
10374.052
19294.434
18639.411
11052.913
19400.114
18164.574
670.89087
639.98474
663.84424
673.08513
866.80802
1252.8801
2289.6061
3362.6835
3973.4991
4037.8115
7763.2609
8739.8491
5221.9169
10496.085
11204.896
13210.112
12644.662
6374.6271
10794.631
13902.317
7518.3427
8193.6334
16470.318
17423.726
9765.1517
17647.361
16209.182
8893.9696
17020.897
17592.787
8266.0435
8480.8267
7040.6113
7258.5734
6089.7788
5897.4873
4464.7003
4416.797
4493.5824
4577.0222
4330.9185
4299.5497
4344.1707
4398.8837
4853.6491
4781.4025
4844.446
4924.6785
5083.1118
4980.5781
5068.56
5201.0148
3895.4986
3825.6135
3828.8716
3923.2854
3427.675
3312.7735
3291.493
3428.6951
3273.1789
3291.0737
3436.9993
3446.6733
3971.2978
3862.0222
3873.0373
4010.6981
3272.2588
3222.6964
3375.9727
3446.8004
3240.8883
3327.3479
3481.5118
3415.9257
4038.6771
3919.6849
3844.2269
3974.3692
3916.7445
3796.8772
3874.871
4015.0999
5212.2955
5105.7434
5027.5696
5152.4685
4593.0817
4496.0615
4421.0537
4528.0217
4474.4006
4360.8573
4459.1764
4590.3558
5081.3827
4957.8656
5102.4419
5232.8729
19803.798
19772.152
18224.47
18129.335
18505.599
18499.576
20058.204
20056.963
19136.321
18903.986
20087.494
20073.059
18466.106
18392.132
18511.02
18514.873
20154.188
20157.439
19267.731
19213.668
18813.87
18725.193
17121.074
17250.739
17698.002
16397.289
16230.403
17544.723
17263.024
18874.319
17276.687
18861.517
17733.647
16394.915
17698.062
16368.962
18593.936
18476.589
17053.4
16894.323
17322.846
16230.615
16025.563
17512.713
18892.493
18879.982
17330.446
17345.947
17813.982
17785.714
16510.563
16489.739
18582.76
18539.236
17012.088
16913.902
17715.004
17771.604
19381.545
19408.743
17762.884
18541.619
19588.499
19583.123
17985.167
17940.038
18385.574
18421.395
19993.677
20008.619
18726.05
19102.143
15657.409
17323.91
15824.78
17187.744
16221.177
16013.127
14979.453
14771.677
16491.617
18033.251
16425.779
18087.893
15503.032
16831.918
16885.642
15562.505
16693.705
18329.59
16781.926
18271.052
15929.923
17219.141
17108.831
15806.361
17200.012
18741.657
17164.816
18769.338
16284.603
17608.691
17627.57
16313.201
19811.774
19785.519
18201.777
18098.413
18160.015
18146.084
19710.313
19711.315
5107.8194
5017.465
5057.5756
5169.5695
18815.234
18930.516
19608.181
19578.062
17980.26
17866.535
18148.505
18146.27
19817.521
19828.317
5077.1721
5001.1675
4941.8488
5030.7876
18959.643
18757.523
16558.56
18302.16
16736.982
18170.793
17155.283
15860.456
15634.951
16950.149
16844.36
18481.097
16862.087
18473.084
4519.9049
4447.963
4374.7828
4465.0974
4416.067
4411.4035
4510.4818
4543.7807
20152.277
20167.09
18530.223
18478.068
19078.21
19029.182
20725.412
20713.437
5209.7259
5124.4425
5288.8427
5377.2844
19790.014
19243.556
19576.814
19554.9
17997.432
17886.062
17956.361
17942.978
19556.846
19565.459
5116.6085
5032.8072
4943.4643
5034.3597
18682.02
18709.518
4535.6801
4441.7608
4361.7953
4461.0456
4656.3468
4516.1703
4610.8331
4759.596
3990.7597
3872.0445
3809.6588
3929.484
3440.4417
3262.6787
3236.0973
3401.0088
3483.5071
3362.265
3515.1152
3635.2566
4058.358
3939.8725
4072.0754
4188.2004
4008.0297
3908.8274
3830.8697
3944.2
3477.4129
3329.9183
3253.651
3412.3954
3217.0947
3236.6438
3397.9007
3388.1551
3955.867
3830.0484
3814.2654
3958.2714
2952.6121
2823.9276
2770.0544
2933.0031
2482.3382
2313.3857
2253.199
2434.7654
2170.1045
2179.843
2380.3994
2371.8985
2906.8779
2732.8764
2713.5257
2896.6649
899.50068
674.68371
662.51325
875.67429
1201.6705
1199.584
1406.6764
1403.1714
1271.9743
1322.8388
1540.2455
1481.5459
1759.7307
1824.7219
2028.8031
1970.1347
1888.6656
1673.9916
1668.183
1885.2177
1892.2584
1678.5728
1639.7774
1857.8002
866.29844
1405.6761
1191.9908
1183.5887
1379.9917
869.24114
1207.3266
1216.4881
1413.6842
1419.4914
1877.8577
1675.0784
1687.0405
1898.8884
652.82271
651.78731
554.1384
534.24097
2932.4796
2753.982
2675.8516
2864.2648
2392.0853
2195.8273
2140.0035
2337.5204
2180.7848
2158.5125
2340.8826
2373.7632
2847.7598
2672.5978
2708.8621
2894.6548
875.0369
866.15709
657.74314
651.34575
884.87928
893.07287
663.91772
664.16096
535.60396
537.14928
2943.5479
2775.1681
2710.1107
2885.6926
2417.4101
2221.8887
2164.037
2366.2962
2137.7741
2332.5753
2323.2139
2132.0344
2853.758
2673.7279
2670.1032
2846.4168
1433.6561
1208.468
1201.053
1402.8883
1712.5652
1929.2909
1880.102
1665.4401
1183.605
1384.8448
1191.3282
1382.8433
1644.1084
1856.4673
1646.1934
1851.5472
1222.6964
1219.9421
1427.7926
1423.6991
1547.9598
1280.5093
1504.2323
1304.289
1790.3038
2000.986
2074.1431
1861.8284
1690.3707
1903.8151
1694.0427
1907.631
2187.8191
2380.162
2376.3326
2184.9067
2292.6216
2478.8804
2571.1592
2388.198
2931.7791
2821.0715
2989.0788
3096.8935
2704.1155
2711.7079
2894.2276
2878.3528
401.9879
402.55942
16583.26
15521.297
15551.787
16626.94
16935.291
15825.621
15541.52
16603.812
13462.909
13464.478
14489.194
14505.369
13479.749
13687.332
14749.092
14507.731
14403.561
13552.898
21078.678
22151.498
27356.53
25611.001
16291.455
15235.869
14263.717
15256.134
23315.014
25201.667
30997.102
28641.966
26107.462
26778.937
32599.368
31745.247
14208.737
13176.401
12344.064
13298.715
11950.226
12739.761
9352.8608
9409.8174
10420.303
10374.815
9431.2112
9558.5217
10571.518
10434.352
11591.458
12634.994
12460.747
11436.717
11393.254
11425.298
12445.916
12428.813
8934.134
9649.7825
8646.0198
9133.0439
10129.957
9548.8893
12155.503
11130.264
10460.219
11397.603
11165.048
10382.024
16884.83
15830.512
16214.946
17325.047
25648.432
25255.041
15723.351
15689.254
16711.216
16762.015
27149.581
33132.219
32816.322
26909.41
31924.575
26145.738
13720.186
13724.188
14699.199
14716.492
14810.757
13791.817
14068.906
15137.731
17218.53
16102.933
15973.273
17085.076
16092.76
15912.144
17009.963
17214.245
13918.64
13792.02
14845.979
15001.676
13812.547
13963.417
15025.562
14890.279
10849.926
9898.5984
9797.2113
10775.885
9866.6254
9781.0302
10907.682
10785.133
11748.26
11794.645
12757.676
12733.379
11779.036
12786.098
13008.803
11947.967
9678.2188
9648.5289
10721.237
10678.599
9557.894
9801.9701
10609.119
10834.666
11864.109
12911.923
12740.307
11663.634
11703.998
12747.604
12844.853
11769.426
505.07923
720.3706
675.5256
800.58942
995.76963
798.73079
999.0045
1053.7298
853.08306
1063.7749
839.95461
795.65919
997.20557
998.15482
788.94846
994.0149
793.33077
990.08193
788.55671
666.0658
659.44268
491.07708
5717.8986
5710.2571
6743.6836
6754.5129
5819.3223
6049.5728
7034.2445
6825.9593
7818.7754
7992.5922
8949.6058
8813.3892
8775.329
7752.1727
7782.3725
8825.1931
1672.1264
3072.5601
1571.2292
2861.8579
2725.062
1486.0974
2747.9041
1469.7188
4077.0905
3835.9566
5067.988
4825.9606
4703.8563
3712.1563
3705.4092
4704.326
1475.0132
2743.9576
2658.3225
1455.1784
4683.8766
3696.7009
3580.4478
4523.3418
1477.5715
2721.4815
2785.7352
1484.2848
3745.8107
3653.8386
4613.9049
4702.0349
8776.2427
7737.3964
7490.1663
8518.3305
6711.6973
5681.7373
5483.2493
6480.3055
8628.0757
7596.8149
7639.4946
8652.7709
6586.3676
5582.5003
5659.6214
6646.6847
5321.7258
5372.856
6389.0811
6321.8958
5436.164
5588.2356
6578.3632
6435.0217
7318.3259
7385.3972
8399.4127
8334.667
7426.7461
7559.2074
8555.5485
8429.6201
754.88416
760.8217
947.34733
943.879
1357.4648
1371.9525
2531.1372
2502.7732
785.92172
978.67811
978.61778
779.88116
1406.19
1465.9647
2715.4127
2579.6571
3502.971
3659.5305
4620.0731
4462.3782
4395.6726
3440.8245
3407.3574
4355.0047
1023.5789
821.3942
827.78029
1052.8047
2052.8525
3611.4906
979.65979
792.29746
787.46651
976.43974
1533.8818
1427.0395
2571.1951
2734.9233
3581.1283
3439.4692
4337.918
4403.8535
5429.9246
4574.1879
6193.9572
6881.7237
5217.3003
5250.7673
6202.7402
6050.8287
7537.2224
8235.1599
6888.9258
7160.5717
8141.821
7758.4782
525.67787
509.3233
327.01612
319.38617
332.75869
361.84478
434.56144
516.56001
516.7901
400.82146
475.8853
475.67775
442.39379
572.46585
612.78288
609.98339
572.79035
678.45593
663.47327
675.01893
689.14851
1624.3735
481.14633
440.19291
671.52811
653.56885
670.818
686.64023
2044.5712
2003.854
4716.1288
4835.5174
4726.3428
4785.9732
4857.1843
4739.5038
4705.9888
4802.787
2021.0122
2000.2282
3667.3264
4272.0221
8394.9622
7846.517
4555.7753
3876.0899
3266.7211
1755.8377
3645.1816
3485.8531
3153.7631
952.73497
1799.2266
2183.1785
2123.0186
4145.1602
4858.371
3995.1972
4669.0092
2944.485
3067.9423
3406.8149
3223.8641
1246.4254
3097.8141
3155.9604
2709.7964
2651.3254
5634.2423
6083.154
5882.3953
5463.8348
5750.5038
5309.6586
5031.8155
5445.6474
6904.8184
6448.1078
6229.3479
6785.5686
7247.361
6779.7101
7051.8484
6596.0554
9024.6575
9018.3543
9631.9181
9922.3542
13432.522
14287.13
12031.142
11412.007
9985.5529
9925.2152
9543.9357
9550.0709
10026.583
10167.02
15896.996
8560.6872
15306.046
15121.16
15694.839
8604.6541
8754.6059
8765.392
15208.181
15718.868
15883.211
15055.187
15939.089
15858.528
15172.752
15296.42
15846.816
15240.71
15285.621
15845.443
3903.1926
4181.5973
4234.118
3971.9384
8661.0151
8791.4579
8663.387
8504.9413
9452.2404
9567.8302
9213.3479
9294.3407
9552.1691
9595.1411
9407.4073
9298.9999
15892.38
15968.659
15275.261
16763.485
15787.784
14872.018
15170.41
15494.981
15576.937
15822.579
15198.664
15043.101
16033.199
15629.736
17140.48
17162.973
15719.469
16504.613
16285.759
16086.701
15468.505
15914.051
15556.839
15856.709
19027.201
16506.163
16637.204
18766.519
17783.43
17513.37
21009.952
21037.121
15814.047
15231.698
15295.243
15690.874
16000.463
15829.102
15342.893
15582.585
16381.2
16092.862
15488.237
15855.023
15973.254
15345.628
15388.457
15948.743
46895.39
49882.413
34723.972
44361.993
52813.861
56004.019
59072.652
62020.355
699.09578
530.28546
597.84361
696.34744
598.42078
1988.7103
2038.7999
1793.5951
1774.8562
2269.2976
2644.0214
2319.9514
2532.6413
1424.3119
2436.5901
2806.5906
2692.9
2361.352
749.36163
1154.2496
1171.6269
1468.0836
2122.3058
1812.0838
1792.4312
2057.9662
1106.6315
787.29307
611.77525
790.18713
958.2249
943.67808
1649.901
390.34095
411.55418
408.67273
439.29045
444.00823
391.68743
580.14624
588.44044
629.04243
641.1684
641.26142
647.35117
706.79909
665.40885
674.25066
644.65427
697.60076
702.73757
682.90648
722.53476
811.58982
975.08509
1909.0041
1570.2237
879.85142
1023.4049
1671.9548
4168.8241
3427.4861
2642.2517
3627.1635
2967.1405
2074.9827
2514.5803
3766.1291
3050.8738
5898.7658
4988.1476
2333.0758
3819.3195
6612.7358
6463.3988
4615.3642
7509.3041
9228.3624
2882.8456
4678.4187
5854.1006
2432.0261
4332.2052
2947.3071
4154.8038
9035.8486
8366.9094
1521.6122
2189.3059
2267.2945
1493.6256
3983.4693
3433.7213
5258.3226
10881.151
12907.797
7300.9274
9495.4702
35239.329
15359.304
18915.248
39431.804
28946.692
31887.743
45093.275
42242.138
45104.443
47152.775
48039.434
51993.787
37863.947
41095.974
42995.253
39643.666
14747.619
45079.352
44524.104
14606.299
11089.961
14137.701
19198.924
16352.497
33601.543
34419.504
50486.124
47463.128
42181.005
31353.173
44676.527
32849.175
49320.015
47302.276
49037.834
51463.19
53879.397
50936.02
52814.27
56174.359
66061.397
62090.583
18636.224
55604.208
58674.58
7459.2974
3684.8882
9126.6053
6012.46
7409.8797
12345.491
9362.5716
16199.29
25750.404
25589.607
5523.5471
7934.9679
11011.225
23389.118
30955.157
15375.264
26961.289
24317.973
12217.937
13464.014
19538.342
25106.698
30992.679
27596.128
30158.06
33106.714
36207.471
35361.573
36867.646
38886.561
41542.163
36327.505
32648.318
28918.932
10201.31
14336.011
16111.098
8037.8692
17910.445
6930.4177
13929.394
14438.15
5940.1899
12836.97
12737.179
16260.774
14975.859
16300.212
17675.887
19235.927
33617.235
27576.051
20733.261
22654.874
46599.93
62554.306
64262.501
48458.338
51175.996
55384.984
66502.139
65847.674
60124.877
58248.287
50359.252
51608.23
53622.155
61945.203
52206.268
60869.247
18468.868
17576.251
15804.458
50115.747
40754.152
54350.078
57754.066
42756.147
44747.321
60408.582
62395.315
63064.946
56105.327
54675.16
63519.32
63906.417
59612.569
57540.93
59254.293
51133.012
51356.302
59225.014
51118.676
51603.096
57595.166
58035.17
69727.019
69312.485
67798.638
68557.386
51947.475
52615.565
56413.916
56679.283
53370.681
54725.134
56887.562
55832.943
65845.253
63656.163
59915.355
58944.471
20507.314
34305.554
36271.34
57461.263
53428.092
61062.058
61270.983
39496.176
20624.295
44519.158
24425.527
61305.275
60730.748
60673.452
62899.667
55435.433
55514.812
55456.991
56632.908
62686.098
64082.905
64743.146
63305.565
19268.147
58544.298
56078.464
58587.224
55566.379
14117.968
16111.687
15560.555
14577.99
22682.75
32239.766
33137.309
54263.79
36301.295
40347.578
57558.078
59539.06
44954.246
49130.772
60451.748
55788.824
56023.063
54759.974
54842.313
56891.607
54652.859
55609.936
55179.395
61391.056
59508.97
20523.858
66236.6
57939.155
75408.486
42778.429
70155.084
25324.908
34110.132
51417.36
41288.882
24579.983
79549.457
83205.844
89260.942
86289.864
43323.665
70013.332
63023.244
56698.007
80214.687
83768.791
87517.128
80780.665
86357.472
76314.256
90164.914
89735.943
87713.687
87635.48
87437.036
88520.908
87801.696
89275.627
87719.386
86956.766
86378.316
87175.5
88447.772
84094.649
86485.38
88781.677
88961.731
88102.001
88736.762
88088.555
85219.016
86448.405
85758.55
84492.427
91790.686
90051.847
94325.588
99087.774
90952.36
91882.214
103351.14
101524.05
113203.8
115011.49
19856.966
42494.867
101812.81
42138.185
99076.695
30422.522
112496.8
102367.17
92338.712
104305.14
92792.113
20990.878
16699.791
16636.134
18979.537
74780.057
21908.81
19353.798
20949.071
17247.29
17270.281
19377.438
18533.925
76511.865
76044.787
18932.851
18733.909
19501.762
19344.141
79131.826
78099.359
19188.574
17936.91
17974.07
18731.143
77432.836
77299.486
75032.136
75034.454
83279.23
31054.839
83366.08
135118.03
135683.17
19287.172
15488.843
15394.801
19066.994
66950.002
64462.386
16041.099
16013.427
19848.792
20142.66
19172.571
19938.739
18905.705
58216.747
15095.137
14641.562
16408.15
16487.707
19038.506
21252.767
18603.131
68570.139
14917.603
15146.746
17938.812
17818.092
69124.616
68277.227
820.144
832.01106
802.07721
795.51876
848.53895
837.68041
951.93052
1008.6687
1548.6416
2961.4673
2479.1001
4837.0086
6371.8477
8982.1881
6993.2115
11924.126
13728.002
12917.252
11313.499
29935.073
12617.914
13897.607
12565.322
13490.801
33430.664
36990.989
42466.016
13397.507
13911.439
40371.851
14010.837
14405.045
13994.423
14987.776
15852.196
15596.019
15311.743
14610.925
14756.544
13871.155
14933.18
15858.49
15446.235
14176.751
13451.567
14214.198
58908.896
57382.567
14605.432
14739.651
15673.349
15843.547
62822.851
17647.295
18821.485
18683.909
13758.208
13953.201
14744.671
14313.205
62089.002
60546.894
18704.594
18639.361
17126.355
17038.473
19085.714
19031.631
17418.778
17459.327
19964.598
19951.797
18330.391
18296.759
18714.25
18695.016
20372.98
20338.205
5298.7434