/*--------------------------------*- C++ -*----------------------------------*\
  =========                 |
  \\      /  F ield         | OpenFOAM: The Open Source CFD Toolbox
   \\    /   O peration     | Website:  https://openfoam.org
    \\  /    A nd           | Version:  7
     \\/     M anipulation  |
\*---------------------------------------------------------------------------*/
FoamFile
{
    version     2.0;
    format      ascii;
    class       volScalarField;
    location    "6000";
    object      p;
}
// * * * * * * * * * * * * * * * * * * * * * * * * * * * * * * * * * * * * * //

dimensions      [0 2 -2 0 0 0 0];

internalField   nonuniform List<scalar> 
33733
(
-1.9869122e+73
-2.0878977e+73
-1.9870174e+73
-2.0279865e+73
-2.0235562e+73
-1.8770616e+73
-1.9654387e+73
-1.9630541e+73
-2.0327991e+73
-1.9686461e+73
-2.0293166e+73
-2.0873563e+73
-2.1198603e+73
-2.1224217e+73
-2.0907482e+73
-1.9661841e+73
-1.8753323e+73
-1.9659663e+73
-2.0293796e+73
-2.0920467e+73
-2.091543e+73
-2.0604973e+73
-2.053755e+73
-2.0295518e+73
-2.021717e+73
-1.8362294e+73
-1.9067065e+73
-1.907052e+73
-1.8424856e+73
-1.9664892e+73
-2.0000173e+73
-1.9598434e+73
-1.9922937e+73
-2.0402516e+73
-2.0461347e+73
-1.9742068e+73
-1.9722804e+73
-2.0647446e+73
-2.0338325e+73
-1.9698586e+73
-1.9075956e+73
-2.0038362e+73
-1.8352723e+73
-2.1033352e+73
-2.0577606e+73
-2.0244907e+73
-2.0299334e+73
-2.0618197e+73
-2.0990475e+73
-2.1316655e+73
-2.1065186e+73
-1.9941101e+73
-1.960796e+73
-1.9059382e+73
-1.9995722e+73
-1.9642333e+73
-1.8349831e+73
-1.8341051e+73
-1.9055943e+73
-2.0022151e+73
-1.9664091e+73
-2.0030209e+73
-1.968247e+73
-2.0321477e+73
-2.0633681e+73
-2.0636463e+73
-2.0328167e+73
-2.1132607e+73
-2.0986153e+73
-2.0995356e+73
-2.1133122e+73
-2.0987142e+73
-2.111853e+73
-2.0967564e+73
-2.0675794e+73
-2.0620422e+73
-2.0811633e+73
-2.0767106e+73
-2.0544725e+73
-2.0406899e+73
-2.0331329e+73
-2.0480954e+73
-1.7495342e+73
-1.8221573e+73
-1.8865009e+73
-1.9323351e+73
-1.9283538e+73
-1.8869425e+73
-1.9784011e+73
-1.9697445e+73
-1.9966658e+73
-1.9876763e+73
-2.0118505e+73
-2.0268366e+73
-2.0028184e+73
-2.0188333e+73
-2.0533753e+73
-2.1247757e+73
-2.1268568e+73
-2.1223956e+73
-2.0502368e+73
-1.9773974e+73
-1.9763043e+73
-2.0794589e+73
-2.0731764e+73
-2.0487057e+73
-2.042638e+73
-2.0875049e+73
-2.0838993e+73
-2.0552535e+73
-2.052173e+73
-1.9051146e+73
-2.0220762e+73
-1.981348e+73
-1.9798561e+73
-2.0196152e+73
-2.0171188e+73
-1.9777838e+73
-1.9755132e+73
-1.9063102e+73
-2.0117052e+73
-1.8263301e+73
-1.8302638e+73
-2.0707073e+73
-2.084134e+73
-2.0577163e+73
-2.0438652e+73
-2.0002218e+73
-1.9818059e+73
-1.9341029e+73
-1.8866019e+73
-2.0151067e+73
-2.0299204e+73
-1.9748791e+73
-2.0395331e+73
-2.1177986e+73
-2.0687522e+73
-2.0356343e+73
-2.0461127e+73
-2.0768129e+73
-2.1091794e+73
-2.142545e+73
-2.121516e+73
-2.1095448e+73
-2.1237189e+73
-2.0037254e+73
-1.9682656e+73
-1.9288733e+73
-1.8876423e+73
-1.8838874e+73
-1.9293126e+73
-2.0127415e+73
-1.9756554e+73
-1.8220088e+73
-1.7442051e+73
-1.8182769e+73
-1.9301803e+73
-1.8827669e+73
-1.8852579e+73
-1.932434e+73
-2.0244071e+73
-2.0066667e+73
-2.0128314e+73
-2.0291067e+73
-1.9892797e+73
-1.9697783e+73
-1.9956227e+73
-1.9752869e+73
-2.0159677e+73
-2.0161659e+73
-2.0315729e+73
-2.0310526e+73
-1.9788879e+73
-1.9992094e+73
-1.9810348e+73
-2.0002688e+73
-2.0395614e+73
-2.0553805e+73
-2.0585842e+73
-2.0438626e+73
-2.0847994e+73
-2.0696421e+73
-2.0720982e+73
-2.0861905e+73
-2.0860419e+73
-2.072588e+73
-2.0841904e+73
-2.0708867e+73
-2.0595771e+73
-2.0581132e+73
-2.0457417e+73
-2.0446555e+73
-2.1052083e+73
-2.1118759e+73
-2.1111949e+73
-2.1048822e+73
-2.1173876e+73
-2.1252974e+73
-2.1183184e+73
-2.1240472e+73
-2.1032813e+73
-2.1093718e+73
-2.1013977e+73
-2.1072819e+73
-2.113289e+73
-2.1155108e+73
-2.1221172e+73
-2.1198401e+73
-2.1121021e+73
-2.1002734e+73
-2.0992276e+73
-2.1051636e+73
-2.1060852e+73
-2.0739277e+73
-2.0796957e+73
-2.0768598e+73
-2.0707282e+73
-2.0895141e+73
-2.0917959e+73
-2.0855925e+73
-2.0828921e+73
-2.0623574e+73
-2.06821e+73
-2.0583551e+73
-2.0647401e+73
-2.050714e+73
-2.0457153e+73
-2.0522497e+73
-2.0566182e+73
-1.7357554e+73
-1.8139846e+73
-1.8840979e+73
-1.928765e+73
-1.9574966e+73
-1.9252737e+73
-1.9511764e+73
-1.9937754e+73
-2.003801e+73
-1.9953852e+73
-1.9852069e+73
-2.0116704e+73
-2.0189783e+73
-2.011379e+73
-2.0033811e+73
-2.0256442e+73
-2.0319947e+73
-2.0254702e+73
-2.0184587e+73
-2.0445268e+73
-2.0380803e+73
-2.0320052e+73
-2.0391209e+73
-2.0958802e+73
-2.0617058e+73
-2.0598629e+73
-2.0937695e+73
-2.1291226e+73
-2.1302796e+73
-2.1441386e+73
-2.142909e+73
-2.1320256e+73
-2.1310017e+73
-2.1459277e+73
-2.1449561e+73
-2.1261616e+73
-2.1274902e+73
-2.1411044e+73
-2.0919862e+73
-2.1244651e+73
-2.1252603e+73
-2.0904197e+73
-2.0571491e+73
-2.0584034e+73
-2.027085e+73
-1.9848962e+73
-1.9835396e+73
-1.9043146e+73
-2.0255446e+73
-1.9046546e+73
-2.0245589e+73
-1.9827816e+73
-1.982985e+73
-2.0235575e+73
-1.8236752e+73
-1.8218543e+73
-2.0985548e+73
-2.1016346e+73
-2.0862045e+73
-2.089132e+73
-2.0900957e+73
-2.0951565e+73
-2.0827734e+73
-2.0772296e+73
-2.0610916e+73
-2.0638321e+73
-2.0766877e+73
-2.0738693e+73
-2.0516736e+73
-2.057657e+73
-2.0704784e+73
-2.0647245e+73
-2.1080075e+73
-2.1102725e+73
-2.1247732e+73
-2.0974574e+73
-2.0951519e+73
-2.1059921e+73
-2.1039935e+73
-2.0913174e+73
-2.0931523e+73
-2.0711522e+73
-2.0691439e+73
-2.0846432e+73
-2.082359e+73
-2.0659062e+73
-2.0675037e+73
-2.080505e+73
-2.0787422e+73
-1.8811848e+73
-1.9370664e+73
-1.9358771e+73
-1.8796634e+73
-2.0390655e+73
-2.0405451e+73
-2.0565091e+73
-2.054753e+73
-1.9990814e+73
-1.9974171e+73
-2.0228454e+73
-2.0213809e+73
-1.9965615e+73
-2.0199349e+73
-1.9960306e+73
-2.0187556e+73
-2.0530903e+73
-2.0370836e+73
-2.0516067e+73
-2.0357251e+73
-2.0323077e+73
-2.0345424e+73
-2.0473913e+73
-2.0499483e+73
-1.9926229e+73
-1.9944237e+73
-2.0173263e+73
-2.0152317e+73
-1.9353116e+73
-1.9884193e+73
-1.9910186e+73
-2.0126699e+73
-2.007856e+73
-1.936062e+73
-1.8847125e+73
-1.8807243e+73
-2.0232545e+73
-2.0289812e+73
-2.0379927e+73
-2.0439805e+73
-1.8087148e+73
-2.0757472e+73
-2.0815134e+73
-2.0872945e+73
-2.0935215e+73
-2.0701594e+73
-2.0643597e+73
-2.0587501e+73
-2.052762e+73
-2.020773e+73
-2.0135777e+73
-1.9599126e+73
-2.0056356e+73
-1.99547e+73
-1.9295429e+73
-2.0273227e+73
-2.0338285e+73
-2.0400605e+73
-2.0466001e+73
-1.8368466e+73
-1.9057038e+73
-1.9068487e+73
-1.830876e+73
-1.9798804e+73
-2.0498804e+73
-2.130337e+73
-2.153868e+73
-2.1193077e+73
-2.0778872e+73
-2.0437806e+73
-2.0679714e+73
-2.0597348e+73
-2.0528548e+73
-2.0913316e+73
-2.0816787e+73
-2.0959136e+73
-2.1658999e+73
-2.128532e+73
-2.1345106e+73
-2.1188895e+73
-2.1330052e+73
-2.1427511e+73
-2.1180713e+73
-2.1116036e+73
-2.1244664e+73
-2.1313559e+73
-2.010079e+73
-1.972092e+73
-1.9326201e+73
-1.8871757e+73
-1.8834329e+73
-1.9343543e+73
-2.0237269e+73
-2.0184917e+73
-2.0370254e+73
-1.9823693e+73
-1.9995726e+73
-1.9790104e+73
-1.8137341e+73
-1.7283278e+73
-1.8084912e+73
-1.8802846e+73
-1.8821099e+73
-1.9237706e+73
-1.9500398e+73
-1.953453e+73
-1.9237842e+73
-1.9253676e+73
-1.9560423e+73
-1.9587522e+73
-1.9288173e+73
-2.0192493e+73
-2.0283108e+73
-2.0338327e+73
-2.0251628e+73
-2.0441982e+73
-2.036154e+73
-2.0412076e+73
-2.0484633e+73
-2.0095896e+73
-1.9883147e+73
-2.0285552e+73
-2.0364129e+73
-2.0379436e+73
-2.0312307e+73
-2.0377053e+73
-2.0359107e+73
-2.031689e+73
-2.0300065e+73
-2.043628e+73
-2.0504581e+73
-2.050295e+73
-2.0441391e+73
-2.0433987e+73
-2.0492792e+73
-2.0476716e+73
-2.0415878e+73
-1.9985906e+73
-1.9863494e+73
-1.9930473e+73
-2.0050481e+73
-2.0189052e+73
-2.0085827e+73
-2.0145242e+73
-2.0232384e+73
-1.9961774e+73
-2.0076002e+73
-1.9971732e+73
-2.0075217e+73
-2.0165616e+73
-2.0244728e+73
-2.0232628e+73
-2.0157755e+73
-2.0650755e+73
-2.0737102e+73
-2.0719352e+73
-2.0676315e+73
-2.0586205e+73
-2.0616609e+73
-2.0515612e+73
-2.055473e+73
-2.0784076e+73
-2.0849533e+73
-2.0798051e+73
-2.0857325e+73
-2.0915151e+73
-2.0985568e+73
-2.0987673e+73
-2.0919292e+73
-2.0912613e+73
-2.0975986e+73
-2.0956594e+73
-2.0898738e+73
-2.0799526e+73
-2.0854411e+73
-2.0843125e+73
-2.0788387e+73
-2.0945672e+73
-2.0887762e+73
-2.0934516e+73
-2.0875114e+73
-2.0832199e+73
-2.0776544e+73
-2.081796e+73
-2.0761798e+73
-2.0685129e+73
-2.0676405e+73
-2.0742685e+73
-2.073201e+73
-2.0664388e+73
-2.0648717e+73
-2.07053e+73
-2.0720028e+73
-2.0571634e+73
-2.062925e+73
-2.0566441e+73
-2.0620814e+73
-2.0608795e+73
-2.0552942e+73
-2.0592773e+73
-2.0536637e+73
-2.1167288e+73
-2.1181658e+73
-2.1151684e+73
-2.114301e+73
-2.1122815e+73
-2.1087667e+73
-2.1076518e+73
-2.1112168e+73
-2.1194451e+73
-2.1210864e+73
-2.1241439e+73
-2.1224055e+73
-2.1274365e+73
-2.1309028e+73
-2.1289944e+73
-2.1255993e+73
-2.1091007e+73
-2.10633e+73
-2.1042964e+73
-2.1070495e+73
-2.1130404e+73
-2.1150708e+73
-2.1100371e+73
-2.1122559e+73
-2.1029845e+73
-2.1057597e+73
-2.1047446e+73
-2.1019796e+73
-2.1105743e+73
-2.1116325e+73
-2.1075557e+73
-2.108602e+73
-2.1145948e+73
-2.1177169e+73
-2.1166407e+73
-2.1135406e+73
-2.1159839e+73
-2.1178771e+73
-2.120839e+73
-2.1190473e+73
-2.1222067e+73
-2.1239927e+73
-2.1273563e+73
-2.1255533e+73
-2.1242535e+73
-2.120897e+73
-2.1198306e+73
-2.1231563e+73
-2.1130164e+73
-2.116122e+73
-2.1157606e+73
-2.112592e+73
-2.1014486e+73
-2.1042027e+73
-2.1037006e+73
-2.1009684e+73
-2.1007771e+73
-2.1034998e+73
-2.1029537e+73
-2.100334e+73
-2.1093677e+73
-2.1094537e+73
-2.1058847e+73
-2.106345e+73
-2.1095367e+73
-2.1100343e+73
-2.1065107e+73
-2.1070098e+73
-2.0791452e+73
-2.0844936e+73
-2.0957386e+73
-2.0900878e+73
-2.1044041e+73
-2.1018686e+73
-2.110594e+73
-2.0685321e+73
-2.0738404e+73
-2.0583366e+73
-2.0633842e+73
-1.727705e+73
-1.8761209e+73
-1.8811386e+73
-1.9334186e+73
-1.9630814e+73
-1.9806358e+73
-1.9736007e+73
-1.9577015e+73
-2.0076442e+73
-2.0174727e+73
-2.0246362e+73
-2.0307454e+73
-2.0363901e+73
-2.0418293e+73
-2.0529816e+73
-2.0472716e+73
-2.1332819e+73
-2.1035042e+73
-2.1048187e+73
-2.1184863e+73
-2.1173081e+73
-2.0914127e+73
-2.0774515e+73
-2.0760341e+73
-2.0899172e+73
-2.0743705e+73
-2.0750452e+73
-2.0889655e+73
-2.0883131e+73
-2.1165438e+73
-2.102444e+73
-2.1016834e+73
-2.1155139e+73
-2.1374183e+73
-2.1365664e+73
-2.1299443e+73
-2.1307431e+73
-2.1385206e+73
-2.1380275e+73
-2.1313747e+73
-2.1319354e+73
-2.1450157e+73
-2.1519343e+73
-2.1445239e+73
-2.1513372e+73
-2.1438961e+73
-2.1507047e+73
-2.1430826e+73
-2.1499256e+73
-2.1400224e+73
-2.1395858e+73
-2.1333341e+73
-2.1327949e+73
-2.139173e+73
-2.1389239e+73
-2.1323977e+73
-2.1322433e+73
-2.1465929e+73
-2.1535038e+73
-2.1462282e+73
-2.1531605e+73
-2.1457912e+73
-2.1527455e+73
-2.1455058e+73
-2.1524369e+73
-2.1336905e+73
-2.1332437e+73
-2.1131933e+73
-2.1270251e+73
-2.1273642e+73
-2.1354252e+73
-2.13441e+73
-2.1142193e+73
-2.1279437e+73
-2.1288834e+73
-2.141912e+73
-2.1487816e+73
-2.140841e+73
-2.1006442e+73
-2.1000453e+73
-2.1319462e+73
-2.1315223e+73
-2.112027e+73
-2.1256635e+73
-2.1260433e+73
-2.1327488e+73
-2.1323459e+73
-2.112644e+73
-2.126302e+73
-2.1266291e+73
-2.0997407e+73
-2.0992259e+73
-2.0867596e+73
-2.0726491e+73
-2.0724406e+73
-2.0861823e+73
-2.0874316e+73
-2.0735836e+73
-2.0729075e+73
-2.0868094e+73
-2.0622115e+73
-2.0450527e+73
-2.0442492e+73
-2.060829e+73
-1.9379813e+73
-2.0003691e+73
-2.0025683e+73
-2.0268703e+73
-2.0257814e+73
-2.0248735e+73
-1.9995204e+73
-1.9996781e+73
-2.0241802e+73
-1.9364619e+73
-1.8793934e+73
-1.8773328e+73
-2.0597018e+73
-2.0428122e+73
-2.0421459e+73
-2.0590656e+73
-1.9363274e+73
-1.9377583e+73
-1.8777534e+73
-1.8807029e+73
-2.0585803e+73
-2.0417096e+73
-2.041049e+73
-2.0577154e+73
-1.9992528e+73
-2.0237224e+73
-1.9987972e+73
-2.0232406e+73
-1.9989703e+73
-2.0001607e+73
-2.0237036e+73
-2.0232168e+73
-2.0407686e+73
-2.0411044e+73
-2.057449e+73
-2.0574201e+73
-1.805321e+73
-1.8032816e+73
-2.1079308e+73
-2.1028542e+73
-2.101331e+73
-2.1063653e+73
-2.1107744e+73
-2.1055806e+73
-2.104243e+73
-2.1093507e+73
-2.0914235e+73
-2.0928119e+73
-2.0978568e+73
-2.0963888e+73
-2.0941046e+73
-2.0953698e+73
-2.1004817e+73
-2.0992026e+73
-2.0996303e+73
-2.0942229e+73
-2.0908732e+73
-2.096693e+73
-2.104603e+73
-2.0995971e+73
-2.0969935e+73
-2.1021778e+73
-2.094661e+73
-2.0896595e+73
-2.0867828e+73
-2.0918827e+73
-2.0797657e+73
-2.0836777e+73
-2.0889452e+73
-2.0853276e+73
-2.0705507e+73
-2.071807e+73
-2.0772004e+73
-2.0759056e+73
-2.0730185e+73
-2.0743907e+73
-2.0797403e+73
-2.0784237e+73
-2.0848109e+73
-2.0900964e+73
-2.0888038e+73
-2.0835402e+73
-2.0809864e+73
-2.082297e+73
-2.087544e+73
-2.0862325e+73
-2.0579027e+73
-2.0624475e+73
-2.0678181e+73
-2.063528e+73
-2.0658374e+73
-2.0688187e+73
-2.0741589e+73
-2.0711699e+73
-2.0844762e+73
-2.0792398e+73
-2.0762948e+73
-2.0815419e+73
-2.0783222e+73
-2.0730038e+73
-2.068789e+73
-2.0743114e+73
-2.1171654e+73
-2.1119031e+73
-2.1107272e+73
-2.1160505e+73
-2.1312428e+73
-2.1306838e+73
-2.1130772e+73
-2.1143754e+73
-2.1195934e+73
-2.1183239e+73
-2.1264884e+73
-2.1026239e+73
-2.1040401e+73
-2.1092351e+73
-2.1078824e+73
-2.1066609e+73
-2.1013616e+73
-2.1001669e+73
-2.1054845e+73
-2.1149625e+73
-2.1095725e+73
-2.1083301e+73
-2.1136936e+73
-2.1066005e+73
-2.1073723e+73
-2.112688e+73
-2.1118319e+73
-2.0962608e+73
-2.0968383e+73
-2.1021388e+73
-2.1014488e+73
-2.0976912e+73
-2.0989438e+73
-2.1042891e+73
-2.1030405e+73
-2.0880139e+73
-2.0824213e+73
-2.0810309e+73
-2.0865459e+73
-2.0787566e+73
-2.079868e+73
-2.084135e+73
-2.0853455e+73
-2.0917931e+73
-2.0932859e+73
-2.0986874e+73
-2.0971911e+73
-2.0905068e+73
-2.0959107e+73
-2.0947089e+73
-2.0892747e+73
-2.0753189e+73
-2.0759181e+73
-2.0806005e+73
-2.0811185e+73
-2.0765956e+73
-2.0777833e+73
-2.0818375e+73
-2.0830335e+73
-2.0880689e+73
-2.0934962e+73
-2.0922192e+73
-2.0868736e+73
-2.086089e+73
-2.091414e+73
-2.0909222e+73
-2.0856167e+73
-1.8752173e+73
-1.9299581e+73
-1.9673407e+73
-1.9693256e+73
-1.9270876e+73
-1.9667498e+73
-1.9665113e+73
-1.9264911e+73
-1.927777e+73
-1.8742123e+73
-2.0540474e+73
-2.0551038e+73
-2.0617555e+73
-2.0607183e+73
-2.0560165e+73
-2.0570697e+73
-2.0638208e+73
-2.0626803e+73
-2.0687775e+73
-2.0700029e+73
-2.0763385e+73
-2.074977e+73
-2.0738804e+73
-2.067741e+73
-2.0667552e+73
-2.0728778e+73
-2.0170727e+73
-2.0309864e+73
-2.015264e+73
-2.0296374e+73
-2.0277914e+73
-2.0138147e+73
-2.0284527e+73
-2.0133474e+73
-2.0408581e+73
-2.0396236e+73
-2.0494527e+73
-2.048351e+73
-2.0474207e+73
-2.0386008e+73
-2.0378159e+73
-2.0464526e+73
-2.0127405e+73
-2.0269603e+73
-2.0261766e+73
-2.0120831e+73
-2.045426e+73
-2.036847e+73
-2.0356805e+73
-2.044077e+73
-2.011749e+73
-2.0257616e+73
-2.0256884e+73
-2.0123414e+73
-2.0349314e+73
-2.0353262e+73
-2.0435771e+73
-2.0431712e+73
-2.0720123e+73
-2.0658501e+73
-2.0646072e+73
-2.0707649e+73
-2.0596241e+73
-2.0529384e+73
-2.0515848e+73
-2.0583134e+73
-2.0701164e+73
-2.0639075e+73
-2.0633496e+73
-2.0695109e+73
-2.0576369e+73
-2.0509791e+73
-2.0505674e+73
-2.0571666e+73
-2.0466086e+73
-2.0478604e+73
-2.0542912e+73
-2.0530365e+73
-2.0488786e+73
-2.0500328e+73
-2.0565431e+73
-2.0553181e+73
-2.0588614e+73
-2.0600824e+73
-2.0659923e+73
-2.0647895e+73
-2.0612043e+73
-2.0625177e+73
-2.0685779e+73
-2.0671677e+73
-1.9646791e+73
-2.0079487e+73
-2.008388e+73
-2.0221096e+73
-2.021228e+73
-1.965804e+73
-2.0096243e+73
-2.011301e+73
-2.024773e+73
-2.0233003e+73
-2.032927e+73
-2.0342913e+73
-2.042627e+73
-2.0414023e+73
-2.0403571e+73
-2.0318108e+73
-2.0307738e+73
-2.0391984e+73
-1.9277903e+73
-1.9269476e+73
-1.9640358e+73
-2.0013381e+73
-2.0042357e+73
-2.0160047e+73
-2.0119243e+73
-1.9642725e+73
-2.0057646e+73
-2.0071514e+73
-2.0201117e+73
-2.0183125e+73
-2.0272132e+73
-2.0294226e+73
-2.0376595e+73
-2.035073e+73
-2.0319889e+73
-2.0244037e+73
-2.0198614e+73
-2.0270813e+73
-1.9280619e+73
-1.9306497e+73
-2.0336627e+73
-2.0388237e+73
-2.0449601e+73
-2.0398789e+73
-2.0421312e+73
-2.0449212e+73
-2.051324e+73
-2.0483952e+73
-2.0458696e+73
-2.0508072e+73
-2.0567091e+73
-2.0520448e+73
-2.0542477e+73
-2.0571878e+73
-2.0631016e+73
-2.0601169e+73
-1.8025407e+73
-1.9638864e+73
-1.9823792e+73
-1.8322563e+73
-1.9044018e+73
-1.90532e+73
-1.8251081e+73
-2.0147722e+73
-1.9825624e+73
-1.9734572e+73
-2.0579894e+73
-2.0867041e+73
-2.0504668e+73
-2.1406182e+73
-2.133504e+73
-2.1270361e+73
-2.1625098e+73
-2.170558e+73
-2.1495525e+73
-2.1774148e+73
-2.1869726e+73
-2.073071e+73
-2.07941e+73
-2.0781352e+73
-2.0725652e+73
-2.069385e+73
-2.0872779e+73
-2.0634458e+73
-2.0607488e+73
-2.0671402e+73
-2.1029431e+73
-2.1007483e+73
-2.0914508e+73
-2.1053229e+73
-2.1148806e+73
-2.0856767e+73
-2.0918716e+73
-2.1049417e+73
-2.098212e+73
-2.1722141e+73
-2.1646146e+73
-2.1328289e+73
-2.1362755e+73
-2.1389687e+73
-2.133714e+73
-2.1274442e+73
-2.1449731e+73
-2.1436209e+73
-2.1579975e+73
-2.1505029e+73
-2.1166852e+73
-2.1223039e+73
-2.1286276e+73
-2.1230737e+73
-2.1419661e+73
-2.1350761e+73
-2.129506e+73
-2.1364127e+73
-2.1453534e+73
-2.1401316e+73
-2.1470703e+73
-2.152424e+73
-2.1185567e+73
-2.1214106e+73
-2.1115909e+73
-2.1154312e+73
-2.1243121e+73
-2.1273406e+73
-2.1306209e+73
-2.1340233e+73
-1.9335108e+73
-1.8852879e+73
-1.8808973e+73
-1.9570902e+73
-1.9362804e+73
-1.9276944e+73
-2.0267793e+73
-2.0470986e+73
-2.0555986e+73
-2.0303835e+73
-2.0334016e+73
-2.03736e+73
-2.026879e+73
-2.0459731e+73
-2.0536508e+73
-1.9841354e+73
-1.9863921e+73
-1.9851245e+73
-2.0061666e+73
-2.0108632e+73
-1.8077478e+73
-1.876306e+73
-1.8811087e+73
-1.7197455e+73
-1.8715214e+73
-1.8768092e+73
-1.87298e+73
-1.8783882e+73
-1.9285951e+73
-1.9297397e+73
-1.9330788e+73
-1.9623767e+73
-1.9568516e+73
-1.9736905e+73
-1.9784436e+73
-1.9590745e+73
-1.9628217e+73
-1.982722e+73
-1.9657021e+73
-1.9844219e+73
-2.0447605e+73
-2.0343803e+73
-2.0530019e+73
-2.0596509e+73
-2.0212629e+73
-2.0207744e+73
-2.0314968e+73
-1.9965643e+73
-1.99604e+73
-2.0098517e+73
-2.0406656e+73
-2.0462722e+73
-2.0436278e+73
-2.0483514e+73
-2.0505056e+73
-2.0477179e+73
-2.0477879e+73
-2.0507824e+73
-2.050139e+73
-2.0420152e+73
-2.0404185e+73
-2.0448175e+73
-2.0439837e+73
-2.0455773e+73
-2.046703e+73
-2.0489319e+73
-2.0477699e+73
-2.0431014e+73
-2.0447515e+73
-2.0469486e+73
-2.0454089e+73
-2.0418138e+73
-2.0411521e+73
-2.0433771e+73
-2.0442252e+73
-2.0381095e+73
-2.0404986e+73
-2.042587e+73
-2.0406673e+73
-2.0537531e+73
-2.0521999e+73
-2.0554369e+73
-2.0569069e+73
-2.0583383e+73
-2.0612441e+73
-2.0618928e+73
-2.0595285e+73
-2.0588009e+73
-2.0612355e+73
-2.0596198e+73
-2.0571264e+73
-2.0526126e+73
-2.0536903e+73
-2.0546386e+73
-2.0561481e+73
-2.0500249e+73
-2.0513428e+73
-2.0535178e+73
-2.0522803e+73
-2.0547446e+73
-2.0559609e+73
-2.05853e+73
-2.0574159e+73
-2.0568847e+73
-2.0541339e+73
-2.0530017e+73
-2.0557412e+73
-2.0478296e+73
-2.0492368e+73
-2.0515504e+73
-2.0502229e+73
-2.0067055e+73
-2.0191323e+73
-2.0122232e+73
-2.0183704e+73
-2.0245973e+73
-2.0322223e+73
-2.0279321e+73
-2.0235022e+73
-2.0290405e+73
-2.0355389e+73
-2.0323899e+73
-2.0365943e+73
-2.0387001e+73
-2.0208493e+73
-2.0110279e+73
-2.0155513e+73
-2.0197046e+73
-2.0223147e+73
-2.0214362e+73
-2.0258125e+73
-2.0258533e+73
-2.01842e+73
-2.0187455e+73
-2.0139538e+73
-2.0090988e+73
-2.0215555e+73
-2.0255279e+73
-2.022875e+73
-2.0185516e+73
-2.0331965e+73
-2.0300791e+73
-2.0291932e+73
-2.0324768e+73
-2.0354943e+73
-2.0363002e+73
-2.0389279e+73
-2.0382971e+73
-2.0376238e+73
-2.0346523e+73
-2.0320403e+73
-2.0351877e+73
-2.0292201e+73
-2.0317473e+73
-2.0286518e+73
-2.0261571e+73
-2.078771e+73
-2.0779856e+73
-2.0820035e+73
-2.081016e+73
-2.0760635e+73
-2.0712039e+73
-2.0660893e+73
-2.0840861e+73
-2.0868885e+73
-2.0875577e+73
-2.0851822e+73
-2.0901688e+73
-2.0897505e+73
-2.09269e+73
-2.0927503e+73
-2.102192e+73
-2.1053722e+73
-2.1045969e+73
-2.1015088e+73
-2.095593e+73
-2.0958391e+73
-2.0983453e+73
-2.0989184e+73
-2.0946955e+73
-2.0932764e+73
-2.0958112e+73
-2.0973373e+73
-2.1004026e+73
-2.1034047e+73
-2.1014837e+73
-2.0986453e+73
-2.0974554e+73
-2.1002418e+73
-2.0992597e+73
-2.0964783e+73
-2.0913496e+73
-2.0922535e+73
-2.0938561e+73
-2.0947775e+73
-2.0842177e+73
-2.0836652e+73
-2.0873191e+73
-2.0859609e+73
-2.0883206e+73
-2.089584e+73
-2.0919938e+73
-2.090701e+73
-2.089779e+73
-2.0873301e+73
-2.0864237e+73
-2.088911e+73
-2.0849282e+73
-2.0825329e+73
-2.0815707e+73
-2.084024e+73
-2.098235e+73
-2.0987354e+73
-2.0959455e+73
-2.095453e+73
-2.0933021e+73
-2.0907685e+73
-2.0902116e+73
-2.0927727e+73
-2.0952694e+73
-2.0980741e+73
-2.0976445e+73
-2.0948485e+73
-2.0894132e+73
-2.0899705e+73
-2.0920777e+73
-2.0925861e+73
-2.0883238e+73
-2.0858067e+73
-2.0852182e+73
-2.0877155e+73
-2.0833699e+73
-2.0808492e+73
-2.0802141e+73
-2.0827637e+73
-2.0874542e+73
-2.0849198e+73
-2.0841216e+73
-2.0867494e+73
-2.0824462e+73
-2.0798147e+73
-2.0787595e+73
-2.0815364e+73
-2.0766832e+73
-2.0744631e+73
-2.0740156e+73
-2.0762178e+73
-2.0751075e+73
-2.0728709e+73
-2.0717067e+73
-2.0740637e+73
-2.0786525e+73
-2.0791758e+73
-2.081081e+73
-2.0817721e+73
-2.0765119e+73
-2.077556e+73
-2.0790692e+73
-2.0799968e+73
-2.0699265e+73
-2.0708203e+73
-2.073204e+73
-2.0723942e+73
-2.0681614e+73
-2.0693496e+73
-2.0717979e+73
-2.0706477e+73
-2.0734409e+73
-2.0744783e+73
-2.0772811e+73
-2.0762663e+73
-2.0749206e+73
-2.0756518e+73
-2.0775999e+73
-2.0782901e+73
-2.0648119e+73
-2.0676746e+73
-2.0656883e+73
-2.0648002e+73
-2.07212e+73
-2.0698899e+73
-2.069647e+73
-2.0715863e+73
-2.0622423e+73
-2.0640381e+73
-2.0662723e+73
-2.0645377e+73
-2.0668405e+73
-2.0682832e+73
-2.0704168e+73
-2.0692827e+73
-2.068381e+73
-2.0658583e+73
-2.0648564e+73
-2.0674541e+73
-2.0599659e+73
-2.0611185e+73
-2.0634849e+73
-2.0624302e+73
-2.0668697e+73
-2.0643193e+73
-2.0632171e+73
-2.0656681e+73
-2.0583073e+73
-2.0595145e+73
-2.0618669e+73
-2.0608582e+73
-2.1179624e+73
-2.1156291e+73
-2.1133077e+73
-2.1130984e+73
-2.1095185e+73
-2.1116005e+73
-2.1117033e+73
-2.1206222e+73
-2.1235259e+73
-2.1300243e+73
-2.1267229e+73
-2.1099463e+73
-2.107258e+73
-2.1051045e+73
-2.1077574e+73
-2.1136971e+73
-2.1157727e+73
-2.1107569e+73
-2.1129889e+73
-2.1035757e+73
-2.1062919e+73
-2.1052758e+73
-2.1025508e+73
-2.1110733e+73
-2.1121264e+73
-2.108115e+73
-2.1091618e+73
-2.1151497e+73
-2.1182105e+73
-2.1171637e+73
-2.1141037e+73
-2.1166749e+73
-2.1186086e+73
-2.1215389e+73
-2.1196857e+73
-2.122867e+73
-2.12471e+73
-2.1279863e+73
-2.126125e+73
-2.1246834e+73
-2.1214146e+73
-2.1203745e+73
-2.1236196e+73
-2.1136106e+73
-2.1166558e+73
-2.1164597e+73
-2.1133532e+73
-2.1112983e+73
-2.1020207e+73
-2.1047447e+73
-2.1043952e+73
-2.1017009e+73
-2.1019034e+73
-2.1045513e+73
-2.1097322e+73
-2.1102134e+73
-2.1104875e+73
-2.107238e+73
-2.1074256e+73
-2.1102495e+73
-2.1105737e+73
-2.1072557e+73
-2.1076037e+73
-2.0833553e+73
-2.0839727e+73
-2.0808783e+73
-2.0884834e+73
-2.0890116e+73
-2.0864242e+73
-2.0988981e+73
-2.0993776e+73
-2.0967436e+73
-2.093698e+73
-2.0941773e+73
-2.0915461e+73
-2.10315e+73
-2.1044179e+73
-2.1068541e+73
-2.1056774e+73
-2.1047353e+73
-2.1022556e+73
-2.1117279e+73
-2.0734122e+73
-2.0709769e+73
-2.0733514e+73
-2.0783249e+73
-2.0790081e+73
-2.0757185e+73
-2.063984e+73
-2.06127e+73
-2.0641682e+73
-2.0685956e+73
-2.0663257e+73
-2.0686717e+73
-1.9311366e+73
-1.930792e+73
-1.9321742e+73
-1.9349949e+73
-1.9701797e+73
-1.9923747e+73
-2.0164429e+73
-2.0175253e+73
-2.0226764e+73
-2.0269914e+73
-2.0273538e+73
-2.0315422e+73
-2.0335714e+73
-2.0343e+73
-2.036786e+73
-2.0409934e+73
-2.0389685e+73
-2.039075e+73
-2.0465661e+73
-2.0431802e+73
-2.0442949e+73
-2.0490501e+73
-2.050622e+73
-2.0485491e+73
-2.0592178e+73
-2.0575143e+73
-2.0596485e+73
-2.0540882e+73
-2.0551703e+73
-2.0529067e+73
-2.1471129e+73
-2.1470051e+73
-2.1405866e+73
-2.1404068e+73
-2.1338274e+73
-2.1341169e+73
-2.1085892e+73
-2.1089594e+73
-2.1146682e+73
-2.1143923e+73
-2.1094257e+73
-2.1103179e+73
-2.1158531e+73
-2.1150494e+73
-2.1274155e+73
-2.1214758e+73
-2.1207655e+73
-2.126764e+73
-2.1201973e+73
-2.1203658e+73
-2.1263726e+73
-2.1262565e+73
-2.1047347e+73
-2.0991113e+73
-2.0981042e+73
-2.1037332e+73
-2.0936895e+73
-2.0881186e+73
-2.0871008e+73
-2.0926598e+73
-2.0858378e+73
-2.0864505e+73
-2.0921089e+73
-2.0915294e+73
-2.1031814e+73
-2.0974894e+73
-2.0969732e+73
-2.1027542e+73
-2.0841251e+73
-2.084387e+73
-2.0901513e+73
-2.0898103e+73
-2.0846308e+73
-2.0852864e+73
-2.0909425e+73
-2.0903398e+73
-2.1022003e+73
-2.0963749e+73
-2.0958296e+73
-2.1015766e+73
-2.1013133e+73
-2.0956078e+73
-2.0952726e+73
-2.1009524e+73
-2.1260219e+73
-2.1199011e+73
-2.1192981e+73
-2.125397e+73
-2.1139476e+73
-2.1080503e+73
-2.1074382e+73
-2.1133269e+73
-2.1066089e+73
-2.1070597e+73
-2.1128597e+73
-2.1122975e+73
-2.1247692e+73
-2.118708e+73
-2.118066e+73
-2.1240549e+73
-2.137768e+73
-2.1373247e+73
-2.1413806e+73
-2.140952e+73
-2.1404981e+73
-2.1399485e+73
-2.1368251e+73
-2.136255e+73
-2.1314189e+73
-2.1324178e+73
-2.1387027e+73
-2.1384629e+73
-2.1423386e+73
-2.1420918e+73
-2.141917e+73
-2.1417407e+73
-2.1382822e+73
-2.1381117e+73
-2.1331005e+73
-2.1334767e+73
-2.145577e+73
-2.1453318e+73
-2.1485155e+73
-2.1487834e+73
-2.1521294e+73
-2.1554973e+73
-2.1551931e+73
-2.151847e+73
-2.1480558e+73
-2.1451303e+73
-2.1482614e+73
-2.1449346e+73
-2.1515602e+73
-2.1548871e+73
-2.1513419e+73
-2.1546405e+73
-2.1445582e+73
-2.1441358e+73
-2.1477012e+73
-2.1472724e+73
-2.1505617e+73
-2.1542982e+73
-2.1538633e+73
-2.1509899e+73
-2.1437051e+73
-2.14317e+73
-2.1462877e+73
-2.1468054e+73
-2.1500861e+73
-2.1495872e+73
-2.1533956e+73
-2.1529083e+73
-2.1400227e+73
-2.1398747e+73
-2.1436788e+73
-2.1435671e+73
-2.1434565e+73
-2.1433702e+73
-2.1397118e+73
-2.1396029e+73
-2.134756e+73
-2.1344157e+73
-2.1394099e+73
-2.1392326e+73
-2.1431446e+73
-2.142959e+73
-2.142799e+73
-2.1426405e+73
-2.1390841e+73
-2.1389466e+73
-2.1340991e+73
-2.1338523e+73
-2.1500402e+73
-2.1469241e+73
-2.1501255e+73
-2.1468323e+73
-2.1534762e+73
-2.1533904e+73
-2.1568223e+73
-2.1567391e+73
-2.1498316e+73
-2.1467341e+73
-2.149903e+73
-2.1466509e+73
-2.1566028e+73
-2.1532424e+73
-2.1531783e+73
-2.1565254e+73
-2.1494485e+73
-2.1464213e+73
-2.1496309e+73
-2.1462449e+73
-2.1563434e+73
-2.1529835e+73
-2.1527969e+73
-2.1561392e+73
-2.149064e+73
-2.1460676e+73
-2.1492346e+73
-2.1458899e+73
-2.1559276e+73
-2.1525708e+73
-2.1524081e+73
-2.1557591e+73
-2.1338266e+73
-2.1335088e+73
-2.1373227e+73
-2.1369872e+73
-2.1367671e+73
-2.1365818e+73
-2.1332957e+73
-2.1331277e+73
-2.1217401e+73
-2.1161244e+73
-2.1160749e+73
-2.1215379e+73
-2.128441e+73
-2.1287974e+73
-2.1356022e+73
-2.134986e+73
-2.1392557e+73
-2.1386232e+73
-2.1381546e+73
-2.137773e+73
-2.1345391e+73
-2.134204e+73
-2.1230792e+73
-2.1171775e+73
-2.116424e+73
-2.1221868e+73
-2.1293909e+73
-2.1302063e+73
-2.1450406e+73
-2.1424988e+73
-2.1456792e+73
-2.1418601e+73
-2.1489937e+73
-2.1523197e+73
-2.1516573e+73
-2.1483497e+73
-2.1440371e+73
-2.1413619e+73
-2.1444832e+73
-2.1409458e+73
-2.1114832e+73
-2.1058687e+73
-2.1052652e+73
-2.1108091e+73
-2.1054926e+73
-2.1052335e+73
-2.1106862e+73
-2.1107622e+73
-2.1322945e+73
-2.132112e+73
-2.135538e+73
-2.1353381e+73
-2.1351608e+73
-2.1349346e+73
-2.1319295e+73
-2.1316892e+73
-2.1207779e+73
-2.1155556e+73
-2.1152763e+73
-2.1204733e+73
-2.1273225e+73
-2.1276873e+73
-2.1328779e+73
-2.1326698e+73
-2.1362807e+73
-2.1360625e+73
-2.1359169e+73
-2.1358102e+73
-2.1325523e+73
-2.1324888e+73
-2.1212289e+73
-2.1158358e+73
-2.1156334e+73
-2.1209411e+73
-2.1279286e+73
-2.1280787e+73
-2.1106071e+73
-2.1054753e+73
-2.1053598e+73
-2.1104516e+73
-2.105004e+73
-2.1053251e+73
-2.110454e+73
-2.1101579e+73
-2.1002581e+73
-2.0948247e+73
-2.0947044e+73
-2.1000919e+73
-2.0892847e+73
-2.0834376e+73
-2.0833925e+73
-2.0892015e+73
-2.0832303e+73
-2.083391e+73
-2.0891345e+73
-2.0888879e+73
-2.0999557e+73
-2.094536e+73
-2.0942075e+73
-2.0996467e+73
-2.1002599e+73
-2.0946104e+73
-2.0940296e+73
-2.0996275e+73
-2.0891548e+73
-2.0835454e+73
-2.0829174e+73
-2.0885518e+73
-2.0832679e+73
-2.0829283e+73
-2.0886579e+73
-2.0890822e+73
-2.0996329e+73
-2.0940615e+73
-2.0945215e+73
-2.1000429e+73
-2.0821146e+73
-2.0756248e+73
-2.0746112e+73
-2.0810236e+73
-2.0688312e+73
-2.0614497e+73
-2.0608016e+73
-2.0679839e+73
-2.0594501e+73
-2.060225e+73
-2.0673823e+73
-2.0665962e+73
-2.0802655e+73
-2.0738007e+73
-2.0730862e+73
-2.0796235e+73
-1.9709836e+73
-1.9294533e+73
-1.9260557e+73
-1.9683911e+73
-2.0157198e+73
-2.0164162e+73
-2.0319177e+73
-2.0312253e+73
-2.0180087e+73
-2.0200466e+73
-2.0342614e+73
-2.0331211e+73
-2.0434974e+73
-2.0441806e+73
-2.053238e+73
-2.0526097e+73
-2.0520379e+73
-2.0426326e+73
-2.0420596e+73
-2.0513651e+73
-2.0506466e+73
-2.0416548e+73
-2.0407749e+73
-2.0498095e+73
-1.9673125e+73
-2.030778e+73
-2.0150774e+73
-2.014378e+73
-2.0299687e+73
-1.9679119e+73
-2.0153937e+73
-2.0146428e+73
-2.0297874e+73
-2.0302314e+73
-2.0494242e+73
-2.0401934e+73
-2.0406067e+73
-2.0495897e+73
-1.9250155e+73
-1.9262839e+73
-1.8719306e+73
-1.8699299e+73
-2.0790752e+73
-2.0724179e+73
-2.0716823e+73
-2.0783218e+73
-2.0657157e+73
-2.0585387e+73
-2.0577238e+73
-2.0649166e+73
-2.0575994e+73
-2.0574945e+73
-2.0647456e+73
-2.0648045e+73
-2.0780847e+73
-2.0714537e+73
-2.0714481e+73
-2.0779659e+73
-1.9676296e+73
-1.9673069e+73
-1.926352e+73
-1.9256468e+73
-1.967987e+73
-1.9700474e+73
-1.9269114e+73
-1.9303127e+73
-1.8706777e+73
-1.8742094e+73
-2.0775607e+73
-2.071169e+73
-2.0704572e+73
-2.0768255e+73
-2.0645362e+73
-2.0573434e+73
-2.0568252e+73
-2.0639094e+73
-2.056437e+73
-2.0636117e+73
-2.0638174e+73
-2.0566779e+73
-2.0766577e+73
-2.0701663e+73
-2.0704076e+73
-2.0769678e+73
-2.0302876e+73
-2.0153303e+73
-2.0143634e+73
-2.0295564e+73
-2.0405875e+73
-2.049358e+73
-2.0488496e+73
-2.0399345e+73
-2.0142185e+73
-2.0291941e+73
-2.014078e+73
-2.0292063e+73
-2.0396404e+73
-2.0486741e+73
-2.039398e+73
-2.0484051e+73
-2.0146527e+73
-2.0143556e+73
-2.0293001e+73
-2.0296102e+73
-2.0314739e+73
-2.0157026e+73
-2.0304149e+73
-2.017415e+73
-2.040628e+73
-2.0493802e+73
-2.0497954e+73
-2.0413423e+73
-2.0399726e+73
-2.0489076e+73
-2.0397476e+73
-2.048794e+73
-2.0567543e+73
-2.0639062e+73
-2.0639071e+73
-2.0568255e+73
-2.0571716e+73
-2.0641288e+73
-2.0642459e+73
-2.0574456e+73
-2.0706514e+73
-2.0706306e+73
-2.0771287e+73
-2.0770749e+73
-2.0705152e+73
-2.0705011e+73
-2.0771288e+73
-2.0770666e+73
-1.7986957e+73
-1.7965392e+73
-2.1102847e+73
-2.1059262e+73
-2.1043441e+73
-2.1086554e+73
-2.1128146e+73
-2.1083228e+73
-2.1071822e+73
-2.1116161e+73
-2.0956731e+73
-2.0971341e+73
-2.1014863e+73