/*--------------------------------*- C++ -*----------------------------------*\
  =========                 |
  \\      /  F ield         | OpenFOAM: The Open Source CFD Toolbox
   \\    /   O peration     | Website:  https://openfoam.org
    \\  /    A nd           | Version:  7
     \\/     M anipulation  |
\*---------------------------------------------------------------------------*/
FoamFile
{
    version     2.0;
    format      ascii;
    class       volScalarField;
    location    "6000";
    object      pMean;
}
// * * * * * * * * * * * * * * * * * * * * * * * * * * * * * * * * * * * * * //

dimensions      [0 2 -2 0 0 0 0];

internalField   nonuniform List<scalar> 
33733
(
-8.6435472e+69
-9.0251624e+69
-8.6495801e+69
-8.8287171e+69
-8.7928439e+69
-8.3890281e+69
-8.6694207e+69
-8.6623548e+69
-8.8484699e+69
-8.6891603e+69
-8.8230773e+69
-9.0567929e+69
-9.1702549e+69
-9.211753e+69
-9.089754e+69
-8.6879138e+69
-8.3888029e+69
-8.6691691e+69
-8.8327068e+69
-9.0942906e+69
-9.0944435e+69
-8.9343971e+69
-8.910951e+69
-8.831377e+69
-8.8013561e+69
-8.3719646e+69
-8.5728001e+69
-8.5318704e+69
-8.3527298e+69
-8.70114e+69
-8.771558e+69
-8.6820968e+69
-8.7590591e+69
-8.8942957e+69
-8.9170912e+69
-8.6940215e+69
-8.7058491e+69
-8.9453001e+69
-8.8406578e+69
-8.7060992e+69
-8.578193e+69
-8.7721003e+69
-8.3726474e+69
-9.1085038e+69
-8.930081e+69
-8.8104147e+69
-8.8386417e+69
-8.9597835e+69
-9.1109139e+69
-9.2267623e+69
-9.1725546e+69
-8.7455919e+69
-8.6871093e+69
-8.5717374e+69
-8.7698049e+69
-8.6891078e+69
-8.3848421e+69
-8.3907178e+69
-8.5731672e+69
-8.7714261e+69
-8.7068687e+69
-8.7714649e+69
-8.702511e+69
-8.8352507e+69
-8.9603194e+69
-8.9565454e+69
-8.8417243e+69
-9.1969073e+69
-9.1396121e+69
-9.1449481e+69
-9.1961861e+69
-9.1381018e+69
-9.1851225e+69
-9.1115546e+69
-8.9610011e+69
-8.9350463e+69
-9.0110476e+69
-8.995599e+69
-8.8949879e+69
-8.8467405e+69
-8.8242951e+69
-8.8764931e+69
-8.0004819e+69
-8.2804841e+69
-8.6275934e+69
-8.6917001e+69
-8.6431238e+69
-8.5705083e+69
-8.711302e+69
-8.69826e+69
-8.7258539e+69
-8.7301552e+69
-8.7507249e+69
-8.7886003e+69
-8.736816e+69
-8.7797175e+69
-8.968186e+69
-9.2374078e+69
-9.2488825e+69
-9.2201626e+69
-8.9506853e+69
-8.7195346e+69
-8.7168709e+69
-9.0028832e+69
-8.9800207e+69
-8.888077e+69
-8.8710538e+69
-9.0327729e+69
-9.0223925e+69
-8.9131296e+69
-8.9005334e+69
-8.5464504e+69
-8.830954e+69
-8.7168255e+69
-8.7206111e+69
-8.817061e+69
-8.810937e+69
-8.7173286e+69
-8.7222749e+69
-8.5760207e+69
-8.7961218e+69
-8.3947274e+69
-8.4076432e+69
-8.9622681e+69
-9.013063e+69
-8.8956041e+69
-8.8487489e+69
-8.7317897e+69
-8.7181166e+69
-8.6863033e+69
-8.6128227e+69
-8.7548576e+69
-8.794234e+69
-8.7445799e+69
-8.8933375e+69
-9.1666972e+69
-8.9718214e+69
-8.8512725e+69
-8.8962713e+69
-9.0242076e+69
-9.1641075e+69
-9.2875961e+69
-9.245765e+69
-9.1879111e+69
-9.2491068e+69
-8.7610335e+69
-8.70382e+69
-8.6652008e+69
-8.5946769e+69
-8.5776067e+69
-8.6603249e+69
-8.783782e+69
-8.7049051e+69
-8.3060816e+69
-8.0163573e+69
-8.2749959e+69
-8.6754986e+69
-8.5876032e+69
-8.6351475e+69
-8.6953468e+69
-8.7808581e+69
-8.7182212e+69
-8.7258423e+69
-8.7838659e+69
-8.6962474e+69
-8.6751346e+69
-8.689176e+69
-8.6745563e+69
-8.7442644e+69
-8.7582464e+69
-8.7980662e+69
-8.8037007e+69
-8.6939e+69
-8.705849e+69
-8.7032572e+69
-8.7183066e+69
-8.8486448e+69
-8.920235e+69
-8.9283302e+69
-8.8662596e+69
-9.0587752e+69
-8.9894541e+69
-9.0042285e+69
-9.0600756e+69
-9.057294e+69
-9.0065231e+69
-9.0322362e+69
-8.9852236e+69
-8.9323326e+69
-8.9176716e+69
-8.8750068e+69
-8.86922e+69
-9.1759338e+69
-9.1970679e+69
-9.1901812e+69
-9.1772094e+69
-9.2354604e+69
-9.2631836e+69
-9.2391573e+69
-9.2523943e+69
-9.1594724e+69
-9.17901e+69
-9.1422883e+69
-9.1590135e+69
-9.1992101e+69
-9.2229366e+69
-9.2400955e+69
-9.2165021e+69
-9.1866843e+69
-9.1305416e+69
-9.1146742e+69
-9.1367708e+69
-9.1474756e+69
-8.9794335e+69
-8.9951795e+69
-8.9866923e+69
-8.9675277e+69
-9.0430022e+69
-9.0505154e+69
-9.034274e+69
-9.02133e+69
-8.9243004e+69
-8.939692e+69
-8.9086956e+69
-8.9288776e+69
-8.8718106e+69
-8.8557921e+69
-8.8738932e+69
-8.8874019e+69
-8.0147582e+69
-8.2793919e+69
-8.6490908e+69
-8.7921134e+69
-8.7222754e+69
-8.7431994e+69
-8.7030802e+69
-8.7125424e+69
-8.7070757e+69
-8.69402e+69
-8.6904513e+69
-8.7185711e+69
-8.7297956e+69
-8.7159057e+69
-8.6974169e+69
-8.7632807e+69
-8.782549e+69
-8.7688325e+69
-8.7464302e+69
-8.8341237e+69
-8.8164832e+69
-8.7986684e+69
-8.8188358e+69
-9.0894188e+69
-8.9580663e+69
-8.9451169e+69
-9.0781913e+69
-9.2230036e+69
-9.231809e+69
-9.2941173e+69
-9.2852866e+69
-9.2430178e+69
-9.2368788e+69
-9.3070726e+69
-9.3003262e+69
-9.2070747e+69
-9.2140556e+69
-9.2766551e+69
-9.0663875e+69
-9.193359e+69
-9.1992247e+69
-9.0518125e+69
-8.9232247e+69
-8.9379785e+69
-8.8695629e+69
-8.7460808e+69
-8.7378808e+69
-8.5385971e+69
-8.8578134e+69
-8.5486057e+69
-8.8506167e+69
-8.7311853e+69
-8.7294208e+69
-8.8385206e+69
-8.4009656e+69
-8.3992743e+69
-9.052611e+69
-9.0613544e+69
-9.0017939e+69
-9.0094653e+69
-9.0289299e+69
-9.0419629e+69
-8.9909815e+69
-8.9784524e+69
-8.8863025e+69
-8.8937602e+69
-8.943843e+69
-8.9361231e+69
-8.863326e+69
-8.8762568e+69
-8.9259882e+69
-8.9124287e+69
-9.0868703e+69
-9.0939887e+69
-9.1690669e+69
-9.0387901e+69
-9.0321857e+69
-9.0793185e+69
-9.0712562e+69
-9.0178289e+69
-9.0245765e+69
-8.9162516e+69
-8.9113331e+69
-8.9699348e+69
-8.9636992e+69
-8.9041907e+69
-8.9110748e+69
-8.9590928e+69
-8.951927e+69
-8.5876259e+69
-8.6467857e+69
-8.6670144e+69
-8.5833543e+69
-8.8123611e+69
-8.8129631e+69
-8.8525931e+69
-8.8502692e+69
-8.7392247e+69
-8.7360013e+69
-8.7895243e+69
-8.7881556e+69
-8.7286657e+69
-8.7760899e+69
-8.725859e+69
-8.7666437e+69
-8.8454309e+69
-8.8037903e+69
-8.8367491e+69
-8.7957827e+69
-8.7899537e+69
-8.7930651e+69
-8.8272234e+69
-8.831326e+69
-8.7310829e+69
-8.7300431e+69
-8.7727304e+69
-8.7691476e+69
-8.6708177e+69
-8.7318042e+69
-8.7305146e+69
-8.7653765e+69
-8.7521847e+69
-8.6929429e+69
-8.6263668e+69
-8.589099e+69
-8.771724e+69
-8.7827988e+69
-8.8089565e+69
-8.821567e+69
-8.250423e+69
-8.9783628e+69
-8.9982999e+69
-9.0338733e+69
-9.0545451e+69
-8.9434927e+69
-8.9257575e+69
-8.8903009e+69
-8.8722641e+69
-8.7232767e+69
-8.7076044e+69
-8.7176819e+69
-8.6927201e+69
-8.6930807e+69
-8.7785551e+69
-8.7632444e+69
-8.7863737e+69
-8.8188142e+69
-8.8383865e+69
-8.3134659e+69
-8.5715276e+69
-8.6205855e+69
-8.3848632e+69
-8.7537529e+69
-8.9402092e+69
-9.2219759e+69
-9.3375557e+69
-9.2076084e+69
-9.0172216e+69
-8.8894444e+69
-8.9504007e+69
-8.9326873e+69
-8.8820742e+69
-9.0830624e+69
-9.0341642e+69
-9.1031415e+69
-9.4505146e+69
-9.2863182e+69
-9.3020457e+69
-9.2412955e+69
-9.3078026e+69
-9.3618545e+69
-9.2268826e+69
-9.2040111e+69
-9.2756342e+69
-9.3015986e+69
-8.7945455e+69
-8.7327197e+69
-8.6788407e+69
-8.6141024e+69
-8.6079738e+69
-8.6867548e+69
-8.8051987e+69
-8.7095206e+69
-8.7999959e+69
-8.7080616e+69
-8.6559613e+69
-8.64766e+69
-8.3002056e+69
-7.9881036e+69
-8.2453977e+69
-8.6089004e+69
-8.6404015e+69
-8.7289356e+69
-8.6837372e+69
-8.6852485e+69
-8.7282306e+69
-8.7571997e+69
-8.701576e+69
-8.7178005e+69
-8.7981734e+69
-8.7113384e+69
-8.7178938e+69
-8.7417769e+69
-8.7399472e+69
-8.8183992e+69
-8.7797226e+69
-8.799075e+69
-8.8324067e+69
-8.6655142e+69
-8.644559e+69
-8.7396741e+69
-8.7593105e+69
-8.7832617e+69
-8.7594044e+69
-8.8036923e+69
-8.7915555e+69
-8.7890716e+69
-8.774837e+69
-8.8098688e+69
-8.8369095e+69
-8.8561364e+69
-8.8360487e+69
-8.8453721e+69
-8.8575911e+69
-8.8460163e+69
-8.8290884e+69
-8.6520139e+69
-8.6348784e+69
-8.6611462e+69
-8.6643924e+69
-8.6934816e+69
-8.6666064e+69
-8.6835243e+69
-8.7034942e+69
-8.6696917e+69
-8.689948e+69
-8.7090936e+69
-8.7086568e+69
-8.7224521e+69
-8.7399479e+69
-8.7353405e+69
-8.7252016e+69
-8.9453828e+69
-8.9754264e+69
-8.972032e+69
-8.9549622e+69
-8.8998947e+69
-8.9108592e+69
-8.8719313e+69
-8.8879636e+69
-9.0236162e+69
-9.0491034e+69
-9.0274763e+69
-9.0502762e+69
-9.0929725e+69
-9.1219655e+69
-9.1292233e+69
-9.0967134e+69
-9.0943113e+69
-9.1205032e+69
-9.0974917e+69
-9.0802382e+69
-9.0317565e+69
-9.049752e+69
-9.0388202e+69
-9.0244558e+69
-9.0849398e+69
-9.0671328e+69
-9.0665443e+69
-9.0508423e+69
-9.027436e+69
-9.0112534e+69
-9.0105126e+69
-8.9956932e+69
-8.9622658e+69
-8.9667671e+69
-8.983998e+69
-8.9797605e+69
-8.9547293e+69
-8.9398002e+69
-8.953426e+69
-8.9687805e+69
-8.8973286e+69
-8.9154228e+69
-8.9141694e+69
-8.9239971e+69
-8.9153202e+69
-8.9028582e+69
-8.9034156e+69
-8.8876696e+69
-9.2239717e+69
-9.2341859e+69
-9.2247537e+69
-9.2148925e+69
-9.1994677e+69
-9.2026418e+69
-9.1913918e+69
-9.142606e+69
-9.2473844e+69
-9.2633737e+69
-9.2700693e+69
-9.2531233e+69
-9.2946385e+69
-9.3030017e+69
-9.2843024e+69
-9.2776192e+69
-9.1737443e+69
-9.182826e+69
-9.1686003e+69
-9.1704967e+69
-9.2020831e+69
-9.21752e+69
-9.1961165e+69
-9.2097856e+69
-9.1542491e+69
-9.1594539e+69
-9.1466356e+69
-9.1392543e+69
-9.1744231e+69
-9.1885313e+69
-9.1676672e+69
-9.1809082e+69
-9.2106394e+69
-9.2198148e+69
-9.2055537e+69
-9.1965583e+69
-9.2243866e+69
-9.2402456e+69
-9.2468417e+69
-9.2319671e+69
-9.2526176e+69
-9.269081e+69
-9.2762259e+69
-9.2594096e+69
-9.2481355e+69
-9.2406925e+69
-9.2270617e+69
-9.234659e+69
-9.1891811e+69
-9.198894e+69
-9.1892894e+69
-9.1770357e+69
-9.130952e+69
-9.1397204e+69
-9.1281036e+69
-9.1192781e+69
-9.121935e+69
-9.1341772e+69
-9.1146267e+69
-9.1065116e+69
-9.1171322e+69
-9.1527035e+69
-9.1410067e+69
-9.1555627e+69
-9.153377e+69
-9.1674016e+69
-9.1492848e+69
-9.1608758e+69
-8.9823506e+69
-9.0076983e+69
-9.0643309e+69
-9.0392843e+69
-9.113164e+69
-9.0998023e+69
-9.140648e+69
-8.9353219e+69
-8.95831e+69
-8.8788693e+69
-8.9062196e+69
-8.0206095e+69
-8.5962073e+69
-8.6502595e+69
-8.8256693e+69
-8.8013954e+69
-8.7068461e+69
-8.685955e+69
-8.7637566e+69
-8.7281787e+69
-8.7214866e+69
-8.7295506e+69
-8.7469383e+69
-8.7746727e+69
-8.7982064e+69
-8.8526294e+69
-8.8271172e+69
-9.2547132e+69
-9.0852775e+69
-9.0915857e+69
-9.1523206e+69
-9.1458459e+69
-9.0192832e+69
-8.9663301e+69
-8.9579602e+69
-9.0121962e+69
-8.9465741e+69
-8.9548003e+69
-9.0079795e+69
-8.9997201e+69
-9.1408766e+69
-9.0778999e+69
-9.0717735e+69
-9.1320891e+69
-9.2339264e+69
-9.2301524e+69
-9.2057022e+69
-9.2093524e+69
-9.2416452e+69
-9.2377684e+69
-9.2132513e+69
-9.217112e+69
-9.2897945e+69
-9.316874e+69
-9.2864229e+69
-9.3131418e+69
-9.2821261e+69
-9.3092472e+69
-9.2788366e+69
-9.3054383e+69
-9.2535447e+69
-9.2500239e+69
-9.2286002e+69
-9.224601e+69
-9.2466748e+69
-9.2445317e+69
-9.221641e+69
-9.2199209e+69
-9.3026737e+69
-9.3304738e+69
-9.3000854e+69
-9.3275104e+69
-9.2961245e+69
-9.3233403e+69
-9.2937518e+69
-9.320541e+69
-9.2155541e+69
-9.2122924e+69
-9.1172019e+69
-9.188566e+69
-9.1913328e+69
-9.2245495e+69
-9.2195393e+69
-9.1240675e+69
-9.1952248e+69
-9.2001235e+69
-9.2729886e+69
-9.2999336e+69
-9.2682571e+69
-9.0660589e+69
-9.0622332e+69
-9.2004267e+69
-9.1969842e+69
-9.1050635e+69
-9.1741687e+69
-9.1771298e+69
-9.2081497e+69
-9.2039721e+69
-9.112593e+69
-9.1803783e+69
-9.1842419e+69
-9.0591645e+69
-9.0503364e+69
-8.9857954e+69
-8.9327183e+69
-8.9244236e+69
-8.9781623e+69
-8.9956581e+69
-8.9448815e+69
-8.9380056e+69
-8.9909379e+69
-8.8927896e+69
-8.8484416e+69
-8.8499483e+69
-8.8904465e+69
-8.6560937e+69
-8.7571864e+69
-8.7659405e+69
-8.8182278e+69
-8.818512e+69
-8.8091129e+69
-8.7548536e+69
-8.7489396e+69
-8.8002006e+69
-8.6567035e+69
-8.577033e+69
-8.5683807e+69
-8.8864274e+69
-8.8400684e+69
-8.8324545e+69
-8.8780002e+69
-8.6576413e+69
-8.6599253e+69
-8.5725172e+69
-8.5908857e+69
-8.872706e+69
-8.8293067e+69
-8.8248312e+69
-8.8692185e+69
-8.7456812e+69
-8.7969061e+69
-8.7403317e+69
-8.7925164e+69
-8.7362937e+69
-8.7392534e+69
-8.7837373e+69
-8.789633e+69
-8.8202517e+69
-8.8137154e+69
-8.8575666e+69
-8.866033e+69
-8.2420374e+69
-8.2313829e+69
-9.0836451e+69
-9.0663457e+69
-9.0627504e+69
-9.0801832e+69
-9.0940531e+69
-9.075684e+69
-9.070593e+69
-9.0891715e+69
-9.008547e+69
-9.0113867e+69
-9.030643e+69
-9.0274462e+69
-9.0148499e+69
-9.019647e+69
-9.0396092e+69
-9.0347154e+69
-9.0627559e+69
-9.0455558e+69
-9.0403272e+69
-9.0598626e+69
-9.0750286e+69
-9.0575651e+69
-9.051628e+69
-9.0694934e+69
-9.0223534e+69
-9.0037834e+69
-8.9968399e+69
-9.0166277e+69
-8.984016e+69
-8.9914965e+69
-9.0105507e+69
-9.0049199e+69
-8.8996195e+69
-8.9015029e+69
-8.9215866e+69
-8.9201556e+69
-8.9051876e+69
-8.9101578e+69
-8.930094e+69
-8.9253552e+69
-8.9648807e+69
-8.9823816e+69
-8.9778755e+69
-8.9608153e+69
-8.9549963e+69
-8.9571489e+69
-8.9741339e+69
-8.9723115e+69
-8.8787244e+69
-8.8850874e+69
-8.9041343e+69
-8.8975288e+69
-8.8890052e+69
-8.8953941e+69
-8.9162738e+69
-8.9094669e+69
-8.9678958e+69
-8.9503611e+69
-8.9438621e+69
-8.9613606e+69
-8.9552205e+69
-8.9383703e+69
-8.9314626e+69
-8.9485571e+69
-9.1188875e+69
-9.098925e+69
-9.0954942e+69
-9.1155688e+69
-9.2131553e+69
-9.2123761e+69
-9.103822e+69
-9.1087228e+69
-9.1292507e+69
-9.1240582e+69
-9.1690955e+69
-9.0446667e+69
-9.0498192e+69
-9.071163e+69
-9.06576e+69
-9.0605144e+69
-9.0401724e+69
-9.0373935e+69
-9.0581554e+69
-9.1105613e+69
-9.0909498e+69
-9.0864843e+69
-9.1060628e+69
-9.0795771e+69
-9.0824756e+69
-9.1016591e+69
-9.0983649e+69
-9.0226453e+69
-9.0244822e+69
-9.0450082e+69
-9.0428351e+69
-9.0279695e+69
-9.0323376e+69
-9.0535146e+69
-9.0487495e+69
-8.9546457e+69
-8.9328647e+69
-8.9281153e+69
-8.9500575e+69
-8.9228527e+69
-8.9246047e+69
-8.9438811e+69
-8.9456788e+69
-8.9873408e+69
-8.9926263e+69
-9.0126853e+69
-9.0067557e+69
-8.982704e+69
-9.0016881e+69
-8.9987878e+69
-8.9802024e+69
-8.9145339e+69
-8.9158019e+69
-8.9334141e+69
-8.9349332e+69
-8.9186502e+69
-8.9208487e+69
-8.9374552e+69
-8.9413272e+69
-8.9755639e+69
-8.9940939e+69
-8.9893647e+69
-8.9721117e+69
-8.9685492e+69
-8.985988e+69
-8.984485e+69
-8.9674796e+69
-8.5711428e+69
-8.7414036e+69
-8.69344e+69
-8.6919184e+69
-8.7277795e+69
-8.6975862e+69
-8.6973691e+69
-8.7360003e+69
-8.7543778e+69
-8.5729034e+69
-8.8093312e+69
-8.8129607e+69
-8.8333835e+69
-8.8312301e+69
-8.8136274e+69
-8.8151594e+69
-8.8395889e+69
-8.836098e+69
-8.8686379e+69
-8.8723553e+69
-8.8944729e+69
-8.8896682e+69
-8.8852413e+69
-8.8652306e+69
-8.8636072e+69
-8.8840201e+69
-8.7502735e+69
-8.7557003e+69
-8.7542534e+69
-8.7639506e+69
-8.7588709e+69
-8.750301e+69
-8.763087e+69
-8.7468371e+69
-8.7614751e+69
-8.7643953e+69
-8.7769839e+69
-8.7786528e+69
-8.7770688e+69
-8.7635664e+69
-8.7617155e+69
-8.7744678e+69
-8.7377369e+69
-8.7485645e+69
-8.741045e+69
-8.7345034e+69
-8.7737035e+69
-8.7592696e+69
-8.7545036e+69
-8.7732672e+69
-8.7280882e+69
-8.7428966e+69
-8.7338725e+69
-8.7307461e+69
-8.7474565e+69
-8.7553756e+69
-8.7709658e+69
-8.7658557e+69
-8.8822393e+69
-8.8634581e+69
-8.8606924e+69
-8.8796619e+69
-8.8315142e+69
-8.8103861e+69
-8.8087894e+69
-8.8289027e+69
-8.8766434e+69
-8.8593225e+69
-8.8559845e+69
-8.875654e+69
-8.8267978e+69
-8.8071607e+69
-8.8024194e+69
-8.8233585e+69
-8.7901277e+69
-8.794043e+69
-8.8135186e+69
-8.8118751e+69
-8.794096e+69
-8.7985537e+69
-8.820009e+69
-8.8152039e+69
-8.8438686e+69
-8.8456379e+69
-8.8642876e+69
-8.8633175e+69
-8.8486852e+69
-8.8527235e+69
-8.8727884e+69
-8.8680626e+69
-8.7078737e+69
-8.7311368e+69
-8.7329288e+69
-8.7449985e+69
-8.7396502e+69
-8.6989683e+69
-8.7348102e+69
-8.7329902e+69
-8.7419312e+69
-8.7446879e+69
-8.7483186e+69
-8.7495567e+69
-8.7640705e+69
-8.7610296e+69
-8.7598222e+69
-8.7481187e+69
-8.74365e+69
-8.7554829e+69
-8.7571579e+69
-8.7554612e+69
-8.7268855e+69
-8.7127628e+69
-8.7273547e+69
-8.7268238e+69
-8.7104601e+69
-8.7161484e+69
-8.7309434e+69
-8.7328378e+69
-8.7383315e+69
-8.733725e+69
-8.7346368e+69
-8.7401839e+69
-8.7526004e+69
-8.7470783e+69
-8.7402127e+69
-8.7258807e+69
-8.7178564e+69
-8.7345375e+69
-8.7717951e+69
-8.799693e+69
-8.771496e+69
-8.7764705e+69
-8.8010502e+69
-8.7948645e+69
-8.781804e+69
-8.7872128e+69
-8.8102398e+69
-8.8049393e+69
-8.8259311e+69
-8.8317475e+69
-8.850699e+69
-8.8457319e+69
-8.8358586e+69
-8.8409391e+69
-8.8607021e+69
-8.8549924e+69
-8.2093762e+69
-8.7781984e+69
-8.6876144e+69
-8.3058403e+69
-8.5592288e+69
-8.6204854e+69
-8.3983204e+69
-8.8280678e+69
-8.7555169e+69
-8.7320952e+69
-8.9835312e+69
-9.0583995e+69
-8.9208413e+69
-9.2657053e+69
-9.2645366e+69
-9.2425393e+69
-9.3775252e+69
-9.4072821e+69
-9.3013195e+69
-9.5038045e+69
-9.540157e+69
-8.960377e+69
-8.9898905e+69
-8.9882435e+69
-8.9266582e+69
-8.9664542e+69
-9.0189607e+69
-8.909014e+69
-8.882894e+69
-8.915355e+69
-9.1312805e+69
-9.1074373e+69
-9.0776353e+69
-9.1508979e+69
-9.1915701e+69
-9.0418711e+69
-9.069581e+69
-9.1480828e+69
-9.1181536e+69
-9.5294228e+69
-9.4952841e+69
-9.3204353e+69
-9.3273909e+69
-9.3481515e+69
-9.3184583e+69
-9.2948662e+69
-9.3467702e+69
-9.3572949e+69
-9.4382748e+69
-9.404803e+69
-9.2375512e+69
-9.2676981e+69
-9.2913861e+69
-9.2610342e+69
-9.3733859e+69
-9.3415077e+69
-9.3113144e+69
-9.3400907e+69
-9.3993068e+69
-9.3706073e+69
-9.4034783e+69
-9.435553e+69
-9.2427996e+69
-9.2487419e+69
-9.2139932e+69
-9.2107391e+69
-9.2770785e+69
-9.2857373e+69
-9.3136706e+69
-9.3235484e+69
-8.6919001e+69
-8.6223416e+69
-8.6150525e+69
-8.6768623e+69
-8.7007683e+69
-8.754981e+69
-8.7161952e+69
-8.8219631e+69
-8.8308804e+69
-8.8267477e+69
-8.7263972e+69
-8.7177618e+69
-8.7038101e+69
-8.7918039e+69
-8.8334645e+69
-8.6494505e+69
-8.6394405e+69
-8.7022813e+69
-8.6581675e+69
-8.6602724e+69
-8.2534059e+69
-8.571059e+69
-8.578946e+69
-7.9815074e+69
-8.5489984e+69
-8.6097347e+69
-8.5659942e+69
-8.6272296e+69
-8.7482833e+69
-8.7768236e+69
-8.7938681e+69
-8.6812371e+69
-8.734895e+69
-8.6421256e+69
-8.659894e+69
-8.738638e+69
-8.7239679e+69
-8.657036e+69
-8.7814862e+69
-8.7000403e+69
-8.7409882e+69
-8.7090137e+69
-8.8073122e+69
-8.8466475e+69
-8.6514116e+69
-8.6587172e+69
-8.683019e+69
-8.6254769e+69
-8.5882886e+69
-8.6183863e+69
-8.7167468e+69
-8.7791077e+69
-8.7506302e+69
-8.7739269e+69
-8.797526e+69
-8.8411687e+69
-8.8135444e+69
-8.8296152e+69
-8.8490358e+69
-8.7896452e+69
-8.757554e+69
-8.8052441e+69
-8.7742208e+69
-8.8354901e+69
-8.8495486e+69
-8.8519587e+69
-8.840966e+69
-8.8027683e+69
-8.8139811e+69
-8.8225131e+69
-8.8143589e+69
-8.8169419e+69
-8.8140053e+69
-8.8168387e+69
-8.8216847e+69
-8.78827e+69
-8.7982212e+69
-8.7980328e+69
-8.7906625e+69
-8.8389428e+69
-8.8223444e+69
-8.8354412e+69
-8.8548049e+69
-8.8616121e+69
-8.8741025e+69
-8.8982671e+69
-8.8865873e+69
-8.9099496e+69
-8.9205557e+69
-8.9143572e+69
-8.9118819e+69
-8.8741734e+69
-8.8593792e+69
-8.8891647e+69
-8.8777146e+69
-8.861642e+69
-8.8785388e+69
-8.8852975e+69
-8.8663533e+69
-8.8838968e+69
-8.9060967e+69
-8.9119545e+69
-8.8930461e+69
-8.881027e+69
-8.8679004e+69
-8.8601052e+69
-8.8676026e+69
-8.8364992e+69
-8.844238e+69
-8.8489987e+69
-8.8399108e+69
-8.6053152e+69
-8.6559234e+69
-8.6263248e+69
-8.610986e+69
-8.6354861e+69
-8.7001458e+69
-8.6694919e+69
-8.6494127e+69
-8.6790928e+69
-8.738669e+69
-8.7057824e+69
-8.7203447e+69
-8.740951e+69
-8.6176099e+69
-8.6391366e+69
-8.6090092e+69
-8.6411491e+69
-8.681627e+69
-8.6404298e+69
-8.7042782e+69
-8.6406928e+69
-8.6719029e+69
-8.685116e+69
-8.7026531e+69
-8.7013976e+69
-8.7143189e+69
-8.7237873e+69
-8.7147493e+69
-8.7104437e+69
-8.726505e+69
-8.7009054e+69
-8.7310814e+69
-8.7482673e+69
-8.7759307e+69
-8.7692051e+69
-8.7713893e+69
-8.7834735e+69
-8.7722212e+69
-8.7635867e+69
-8.7479552e+69
-8.7584061e+69
-8.7342505e+69
-8.7422022e+69
-8.7280527e+69
-8.7275876e+69
-8.9924915e+69
-8.9892147e+69
-9.0138446e+69
-9.0024894e+69
-8.9641467e+69
-8.9275645e+69
-8.8936809e+69
-9.0396895e+69
-9.0484938e+69
-9.0556109e+69
-9.0487633e+69
-9.0787264e+69
-9.0726173e+69
-9.0806543e+69
-9.0843717e+69
-9.1511677e+69
-9.1613003e+69
-9.1589071e+69
-9.1490536e+69
-9.1131196e+69
-9.1133921e+69
-9.1202786e+69
-9.1228266e+69
-9.112701e+69
-9.1086571e+69
-9.1146089e+69
-9.1202738e+69
-9.1480343e+69
-9.1523737e+69
-9.1432107e+69
-9.1382067e+69
-9.1265305e+69
-9.1321748e+69
-9.1167051e+69
-9.1109356e+69
-9.0839866e+69
-9.0981295e+69
-9.0913612e+69
-9.1056604e+69
-9.0342927e+69
-9.0551655e+69
-9.0616108e+69
-9.0567939e+69
-9.0787195e+69
-9.0820389e+69
-9.0859451e+69
-9.0833171e+69
-9.0757935e+69
-9.0696608e+69
-9.0576514e+69
-9.063424e+69
-9.0484289e+69
-9.0450454e+69
-9.0346854e+69
-9.038981e+69
-9.0957642e+69
-9.1080989e+69
-9.1015839e+69
-9.0896433e+69
-9.0812185e+69
-9.0731745e+69
-9.0617114e+69
-9.0694417e+69
-9.0890194e+69
-9.0978465e+69
-9.0806588e+69
-9.0746721e+69
-9.048686e+69
-9.0599794e+69
-9.05413e+69
-9.0692854e+69
-9.0524078e+69
-9.0466305e+69
-9.0356335e+69
-9.0409479e+69
-9.0272332e+69
-9.0208354e+69
-9.0083778e+69
-9.0157747e+69
-9.038905e+69
-9.0320283e+69
-9.0198767e+69
-9.0248764e+69
-9.01272e+69
-9.0029679e+69
-8.9890199e+69
-8.9996794e+69
-8.9895491e+69
-8.9848688e+69
-8.9994842e+69
-9.0021124e+69
-8.9993865e+69
-8.9975895e+69
-8.9901135e+69
-8.9940909e+69
-9.0281303e+69
-9.0124933e+69
-9.0306559e+69
-9.0210136e+69
-9.0126693e+69
-9.022587e+69
-9.0153875e+69
-9.0230564e+69
-8.9597057e+69
-8.9770253e+69
-8.9808538e+69
-8.9665383e+69
-8.9344634e+69
-8.9452912e+69
-8.9511032e+69
-8.9395836e+69
-8.9629803e+69
-8.9757798e+69
-8.9832164e+69
-8.9686366e+69
-8.9849364e+69
-8.998036e+69
-8.9882968e+69
-9.0011985e+69
-8.9216136e+69
-8.9265387e+69
-8.9185189e+69
-8.9398798e+69
-8.9576045e+69
-8.9508708e+69
-8.9687865e+69
-8.9708459e+69
-8.9442635e+69
-8.9606886e+69
-8.9524086e+69
-8.9445953e+69
-8.9632819e+69
-8.9689582e+69
-8.9707043e+69
-8.9676355e+69
-8.9576883e+69
-8.9541292e+69
-8.9337493e+69
-8.9409065e+69
-8.9130702e+69
-8.9367181e+69
-8.937924e+69
-8.9170289e+69
-8.9260578e+69
-8.9193615e+69
-8.9081195e+69
-8.913234e+69
-8.8874159e+69
-8.9015195e+69
-8.9001092e+69
-8.8894739e+69
-9.2302024e+69
-9.2220922e+69
-9.1789558e+69
-9.1947791e+69
-9.2055438e+69
-9.2070827e+69
-9.1816902e+69
-9.2458513e+69
-9.2570319e+69
-9.2894258e+69
-9.2771363e+69
-9.1795047e+69
-9.17879e+69
-9.1686823e+69
-9.1743407e+69
-9.2079169e+69
-9.2219029e+69
-9.1963033e+69
-9.2082783e+69
-9.1550353e+69
-9.1650643e+69
-9.1539472e+69
-9.1425006e+69
-9.1819326e+69
-9.1945539e+69
-9.1701582e+69
-9.1821966e+69
-9.2114775e+69
-9.2242008e+69
-9.21142e+69
-9.1987926e+69
-9.225163e+69
-9.2399103e+69
-9.2519985e+69
-9.2372485e+69
-9.2543518e+69
-9.2704939e+69
-9.2836585e+69
-9.2665155e+69
-9.2535204e+69
-9.2411639e+69
-9.2287873e+69
-9.2413857e+69
-9.1923791e+69
-9.2050921e+69
-9.1981936e+69
-9.1818311e+69
-9.1409155e+69
-9.1343916e+69
-9.1470743e+69
-9.1390651e+69
-9.1269232e+69
-9.1441008e+69
-9.1606603e+69
-9.1468524e+69
-9.1469208e+69
-9.1767595e+69
-9.1329507e+69
-9.1789056e+69
-9.1644542e+69
-9.1756281e+69
-9.1553392e+69
-9.1638467e+69
-8.9855816e+69
-8.9995442e+69
-8.9782885e+69
-9.0143117e+69
-9.0232197e+69
-9.0142315e+69
-9.0684927e+69
-9.0796664e+69
-9.0703927e+69
-9.0433443e+69
-9.0526846e+69
-9.0427761e+69
-9.0970904e+69
-9.0960238e+69
-9.1102271e+69
-9.1109643e+69
-9.1128647e+69
-9.0993515e+69
-9.1475913e+69
-8.9351513e+69
-8.9362122e+69
-8.9433467e+69
-8.9582142e+69
-8.9729826e+69
-8.9566903e+69
-8.8793434e+69
-8.8794439e+69
-8.9025197e+69
-8.9082729e+69
-8.9159497e+69
-8.9212844e+69
-8.7860751e+69
-8.7924482e+69
-8.8144199e+69
-8.8495033e+69
-8.8210786e+69
-8.7251759e+69
-8.7680072e+69
-8.6988279e+69
-8.7109897e+69
-8.7574624e+69
-8.7402106e+69
-8.734543e+69
-8.7411268e+69
-8.7471115e+69
-8.7539412e+69
-8.7672854e+69
-8.7654393e+69
-8.7507958e+69
-8.8295695e+69
-8.7786705e+69
-8.7788598e+69
-8.8035467e+69
-8.8269744e+69
-8.8219156e+69
-8.8540364e+69
-8.864251e+69
-8.8693494e+69
-8.8301378e+69
-8.8490898e+69
-8.8434341e+69
-9.309736e+69
-9.3073545e+69
-9.2611827e+69
-9.258446e+69
-9.2338586e+69
-9.2365725e+69
-9.0905152e+69
-9.0925524e+69
-9.1157231e+69
-9.1135222e+69
-9.0956929e+69
-9.0999458e+69
-9.1230102e+69
-9.1186552e+69
-9.1859443e+69
-9.1621498e+69
-9.1585596e+69
-9.1820584e+69
-9.1537134e+69
-9.1555124e+69
-9.1789072e+69
-9.1771426e+69
-9.0580268e+69
-9.0370644e+69
-9.0330659e+69
-9.0537054e+69
-8.9996457e+69
-8.9779902e+69
-8.9740318e+69
-8.995806e+69
-8.9677528e+69
-8.9697994e+69
-8.992714e+69
-8.9905895e+69
-9.051055e+69
-9.0301718e+69
-9.028204e+69
-9.0493211e+69
-8.9573335e+69
-8.9604967e+69
-8.981891e+69
-8.9788817e+69
-8.9632285e+69
-8.965708e+69
-8.988227e+69
-8.9845213e+69
-9.0454341e+69
-9.0245736e+69
-9.021566e+69
-9.0418386e+69
-9.0392134e+69
-9.0186822e+69
-9.0160675e+69
-9.0366759e+69
-9.1743792e+69
-9.1507177e+69
-9.1465439e+69
-9.1704903e+69
-9.1101393e+69
-9.0865761e+69
-9.0827152e+69
-9.1059809e+69
-9.0773948e+69
-9.079759e+69
-9.1029843e+69
-9.0997113e+69
-9.1665926e+69
-9.1426128e+69
-9.1394035e+69
-9.1630083e+69
-9.2545184e+69
-9.2528971e+69
-9.2552307e+69
-9.2535023e+69
-9.2507934e+69
-9.2488711e+69
-9.2499894e+69
-9.2480548e+69
-9.2037607e+69
-9.2082407e+69
-9.2615375e+69
-9.2607704e+69
-9.262418e+69
-9.2609904e+69
-9.2585801e+69
-9.2573867e+69
-9.2585412e+69
-9.2573466e+69
-9.2119708e+69
-9.2152675e+69
-9.2906468e+69
-9.2889314e+69
-9.2962461e+69
-9.2982299e+69
-9.3242854e+69
-9.3337708e+69
-9.3316632e+69
-9.322448e+69
-9.2929825e+69
-9.2869619e+69
-9.2944273e+69
-9.2856076e+69
-9.3204458e+69
-9.3296304e+69
-9.3188427e+69
-9.3280772e+69
-9.2831544e+69
-9.2811589e+69
-9.2908062e+69
-9.2886282e+69
-9.3144795e+69
-9.3260178e+69
-9.3238577e+69
-9.3166266e+69
-9.2789611e+69
-9.2770151e+69
-9.2847186e+69
-9.286632e+69
-9.3121079e+69
-9.3100955e+69
-9.3215666e+69
-9.3195141e+69
-9.2741764e+69
-9.2745551e+69
-9.2754219e+69
-9.2750132e+69
-9.2725037e+69
-9.2710219e+69
-9.2722035e+69
-9.2703993e+69
-9.2273164e+69
-9.22376e+69
-9.2682371e+69
-9.2669622e+69
-9.269292e+69
-9.2677056e+69
-9.2655102e+69
-9.2643036e+69
-9.2648762e+69
-9.2636138e+69
-9.2208716e+69
-9.217954e+69
-9.3096887e+69
-9.3035246e+69
-9.3110418e+69
-9.3026566e+69
-9.3375715e+69
-9.3362249e+69
-9.3471683e+69
-9.345667e+69
-9.306662e+69
-9.3009458e+69
-9.3080515e+69
-9.2995936e+69
-9.3436201e+69
-9.3343669e+69
-9.3328872e+69
-9.3422081e+69
-9.3030155e+69
-9.2977744e+69
-9.3049391e+69
-9.2960138e+69
-9.3404161e+69
-9.3310921e+69
-9.3292891e+69
-9.3386183e+69
-9.3002401e+69
-9.2941464e+69
-9.3015958e+69
-9.2927873e+69
-9.3369412e+69
-9.3276258e+69
-9.3261756e+69
-9.3356088e+69
-9.2367523e+69
-9.2350356e+69
-9.2364619e+69
-9.2345132e+69
-9.2318727e+69
-9.2305692e+69
-9.2323298e+69
-9.230783e+69
-9.1486162e+69
-9.1275146e+69
-9.1253842e+69
-9.1464115e+69
-9.1868246e+69
-9.1904389e+69
-9.2452308e+69
-9.2441216e+69
-9.2459466e+69
-9.2440327e+69
-9.2409031e+69
-9.238851e+69
-9.2414395e+69
-9.2393935e+69
-9.1575279e+69
-9.1346919e+69
-9.1304955e+69
-9.1527395e+69
-9.1943883e+69
-9.1988198e+69
-9.2789429e+69
-9.2741248e+69
-9.2815432e+69
-9.2718637e+69
-9.3074241e+69
-9.3166386e+69
-9.314017e+69
-9.3050627e+69
-9.2742308e+69
-9.2692435e+69
-9.2764657e+69
-9.2670822e+69
-9.0953462e+69
-9.0732583e+69
-9.0694751e+69
-9.0913851e+69
-9.0660758e+69
-9.0674161e+69
-9.0888987e+69
-9.0869563e+69
-9.2212274e+69
-9.2201244e+69
-9.220693e+69
-9.2192243e+69
-9.2166046e+69
-9.2150979e+69
-9.2177316e+69
-9.2161119e+69
-9.1356846e+69
-9.1160369e+69
-9.1135756e+69
-9.1336094e+69
-9.1731186e+69
-9.1765845e+69
-9.2281352e+69
-9.2272926e+69
-9.2283564e+69
-9.2270181e+69
-9.2243665e+69
-9.2229723e+69
-9.225137e+69
-9.2237246e+69
-9.1425036e+69
-9.1213597e+69
-9.1180279e+69
-9.1388594e+69
-9.1799437e+69
-9.1831895e+69
-9.0840991e+69
-9.0640444e+69
-9.0608645e+69
-9.0810409e+69
-9.0547716e+69
-9.0582078e+69
-9.0785019e+69
-9.0756858e+69
-9.0244454e+69
-9.0055308e+69
-9.0019833e+69
-9.0213177e+69
-8.9673248e+69
-8.9457094e+69
-8.9426035e+69
-8.9641579e+69
-8.936915e+69
-8.9404229e+69
-8.9617819e+69
-8.9588406e+69
-9.0186917e+69
-8.9990894e+69
-8.9963018e+69
-9.0160143e+69
-9.0317224e+69
-9.0115668e+69
-9.0083468e+69
-9.0281584e+69
-8.9748277e+69
-8.9541093e+69
-8.9510857e+69
-8.9716084e+69
-8.9473619e+69
-8.9494201e+69
-8.9700933e+69
-8.9692305e+69
-9.0266991e+69
-9.0072219e+69
-9.0065636e+69
-9.0260869e+69
-8.9369888e+69
-8.9159727e+69
-8.9115319e+69
-8.9326508e+69
-8.8783353e+69
-8.8533544e+69
-8.8511617e+69
-8.8755389e+69
-8.845622e+69
-8.8487241e+69
-8.8731545e+69
-8.8705273e+69
-8.9287948e+69
-8.9061998e+69
-8.9036391e+69
-8.9270287e+69
-8.7141053e+69
-8.7485071e+69
-8.7232017e+69
-8.7069771e+69
-8.7722464e+69
-8.7765618e+69
-8.7891481e+69
-8.7843455e+69
-8.7750942e+69
-8.7755513e+69
-8.7781408e+69
-8.787088e+69
-8.7949779e+69
-8.7899365e+69
-8.8107502e+69
-8.8114521e+69
-8.8096427e+69
-8.7916244e+69
-8.7883707e+69
-8.8052663e+69
-8.7984632e+69
-8.7866534e+69
-8.7865553e+69
-8.8012411e+69
-8.7065858e+69
-8.7805034e+69
-8.7679201e+69
-8.7604254e+69
-8.777106e+69
-8.7027826e+69
-8.7549113e+69
-8.7604998e+69
-8.7694801e+69
-8.7659847e+69
-8.8004295e+69
-8.7807619e+69
-8.7787128e+69
-8.7961457e+69
-8.7207051e+69
-8.7365804e+69
-8.5424697e+69
-8.5313952e+69
-8.9238578e+69
-8.9020062e+69
-8.9003093e+69
-8.9217181e+69
-8.8690814e+69
-8.8431099e+69
-8.8435679e+69
-8.8675103e+69
-8.8372182e+69
-8.8413044e+69
-8.8656561e+69
-8.8614517e+69
-8.9200222e+69
-8.8985176e+69
-8.8956852e+69
-8.9172456e+69
-8.6998572e+69
-8.7016428e+69
-8.7361352e+69
-8.7274009e+69
-8.7014013e+69
-8.7008749e+69
-8.7321246e+69
-8.7525261e+69
-8.5386173e+69
-8.5632561e+69
-8.9135349e+69
-8.8932363e+69
-8.889613e+69
-8.9103261e+69
-8.8565764e+69
-8.8327933e+69
-8.8327164e+69
-8.8542769e+69
-8.8311884e+69
-8.8530218e+69
-8.8510397e+69
-8.829043e+69
-8.908947e+69
-8.8879439e+69
-8.8868461e+69
-8.9093258e+69
-8.7657903e+69
-8.7550748e+69
-8.7509787e+69
-8.7661755e+69
-8.7759247e+69
-8.79297e+69
-8.7940882e+69
-8.7776013e+69
-8.7468453e+69
-8.7602175e+69
-8.7524775e+69
-8.7591007e+69
-8.7718684e+69
-8.7891756e+69
-8.7720985e+69
-8.7930244e+69
-8.744788e+69
-8.7451932e+69
-8.7586153e+69
-8.7574312e+69
-8.750469e+69
-8.7462319e+69
-8.7570269e+69
-8.7468766e+69
-8.766671e+69
-8.7828071e+69
-8.7755088e+69
-8.7600906e+69
-8.7684434e+69
-8.7850835e+69
-8.7700725e+69
-8.7869104e+69
-8.8272743e+69
-8.8508899e+69
-8.8481785e+69
-8.8251284e+69
-8.8233336e+69
-8.8465433e+69
-8.8419904e+69
-8.8164844e+69
-8.8760068e+69
-8.8803909e+69
-8.9013939e+69
-8.898288e+69
-8.8820481e+69
-8.8848021e+69
-8.9072557e+69
-8.9038188e+69
-8.1954e+69
-8.1815485e+69
-9.0931383e+69
-9.0668737e+69
-9.0625446e+69
-9.0885351e+69
-9.1018968e+69
-9.0749813e+69
-9.0707961e+69
-9.0975413e+69
-9.0079822e+69
-9.0118876e+69