/*--------------------------------*- C++ -*----------------------------------*\
  =========                 |
  \\      /  F ield         | OpenFOAM: The Open Source CFD Toolbox
   \\    /   O peration     | Website:  https://openfoam.org
    \\  /    A nd           | Version:  7
     \\/     M anipulation  |
\*---------------------------------------------------------------------------*/
FoamFile
{
    version     2.0;
    format      ascii;
    class       volScalarField;
    location    "2000";
    object      k;
}
// * * * * * * * * * * * * * * * * * * * * * * * * * * * * * * * * * * * * * //

dimensions      [0 2 -2 0 0 0 0];

internalField   nonuniform List<scalar> 
34222
(
1.5232552
1.5230127
1.5228432
1.5232297
1.5241463
1.524029
1.5232403
1.5228313
1.5227161
1.5240625
1.5230875
1.5231323
1.5240711
1.5243774
1.5236143
1.5233149
1.5236657
1.5233051
1.5249577
1.5254898
1.5253509
1.5248772
1.5217972
1.5226741
1.5228113
1.5230245
1.5230654
1.5240187
1.5239443
1.5244447
1.5234858
1.523525
1.5231292
1.5231566
1.5255318
1.5249539
1.5249598
1.5255509
1.5248974
1.5253211
1.5256273
1.5249557
1.5247542
1.5249634
1.5251687
1.5250546
1.5250167
1.5250836
1.5255762
1.5254408
1.5250086
1.5168722
1.5206194
1.5207254
1.521928
1.5225437
1.5227566
1.5245664
1.5227499
1.5234138
1.5235627
1.5231696
1.52309
1.5230965
1.5230315
1.5239082
1.524023
1.5249346
1.5249327
1.5254618
1.5254917
1.5220227
1.5221883
1.5250556
1.5251945
1.5258561
1.5255861
1.5249919
1.5250881
1.5250959
1.5253196
1.5252379
1.525642
1.5251402
1.5251119
1.5256476
1.5256025
1.5260264
1.5256966
1.5253541
1.526361
1.5265584
1.5256079
1.5255226
1.525069
1.5253133
1.525164
1.5251552
1.5252431
1.525654
1.5255812
1.525181
1.5166785
1.5163643
1.5164985
1.5158936
1.5163352
1.5197081
1.5187397
1.5209925
1.5197282
1.5210524
1.5197322
1.519759
1.5211417
1.5207625
1.521101
1.5205707
1.5230138
1.5228645
1.5200911
1.522065
1.5215589
1.5252588
1.5216696
1.5248398
1.5258117
1.5261724
1.5254779
1.5252134
1.522226
1.5232496
1.5236369
1.523475
1.5231443
1.5250954
1.5251051
1.5255089
1.5254114
1.5249459
1.5249174
1.5254284
1.5254174
1.5251619
1.5251715
1.525577
1.5256186
1.5206978
1.5195714
1.5207304
1.5207689
1.5208016
1.522458
1.5222782
1.5223158
1.5259291
1.5263722
1.5260679
1.525668
1.5256557
1.5268117
1.5266954
1.5256334
1.525238
1.525295
1.5255107
1.5254088
1.5256675
1.5253447
1.5252884
1.5256878
1.525546
1.5266089
1.5264691
1.5256141
1.5264219
1.5266219
1.5256857
1.5255912
1.525226
1.5254822
1.5253065
1.5253475
1.5175635
1.5178074
1.5160033
1.5171886
1.5171282
1.5158517
1.5155331
1.5159335
1.5162147
1.5157047
1.5163909
1.5152536
1.5156861
1.5168826
1.5170471
1.515937
1.5151219
1.5167077
1.5151765
1.5152696
1.5154094
1.515671
1.5161968
1.5163734
1.5190108
1.5190688
1.5200709
1.5200172
1.5181047
1.5180121
1.519087
1.5191213
1.5200505
1.5190346
1.519014
1.5200368
1.5190316
1.5190271
1.5200762
1.5200502
1.5190463
1.5190292
1.5201093
1.520089
1.519679
1.5212675
1.5196093
1.5212978
1.5188821
1.5209926
1.5194016
1.5211827
1.5195475
1.5206305
1.5203229
1.5185713
1.5193885
1.5196047
1.520726
1.5193392
1.5204107
1.5194473
1.5207625
1.5204185
1.5203412
1.5194391
1.5204791
1.5193429
1.5194243
1.5204918
1.520335
1.5216342
1.5218029
1.5223907
1.5219664
1.5221934
1.5259972
1.5263377
1.5256151
1.526782
1.5263976
1.522508
1.5205566
1.5203853
1.5205246
1.5203672
1.5217611
1.5258169
1.5265206
1.5261234
1.525514
1.5269136
1.5270289
1.5256619
1.5256539
1.5208359
1.520795
1.5204536
1.5204803
1.5256976
1.5251044
1.5250822
1.5255618
1.5253158
1.5253111
1.5257592
1.5256519
1.5252719
1.5252049
1.5255155
1.5254417
1.525379
1.5253892
1.5256016
1.5256384
1.5198269
1.5198737
1.5189777
1.5189393
1.5198333
1.5198413
1.5198487
1.5198675
1.5198795
1.5198981
1.5209299
1.5209423
1.520638
1.5200182
1.5208528
1.5196932
1.5235916
1.5228853
1.5229052
1.5236598
1.5254424
1.526833
1.5267269
1.5254964
1.5256954
1.5269666
1.5268182
1.5257062
1.5253747
1.5254298
1.5257167
1.5255868
1.5254917
1.5266016
1.5264873
1.5255914
1.5265059
1.5267006
1.5257295
1.5256604
1.5175192
1.5177225
1.5158332
1.5169925
1.5169255
1.5156807
1.5156016
1.5155349
1.5153909
1.5155086
1.5153124
1.5148729
1.5149987
1.5148992
1.5160669
1.5163045
1.5159379
1.5154998
1.5164958
1.5156997
1.5157103
1.515623
1.5156108
1.515585
1.5155694
1.5165318
1.5164995
1.514181
1.5155401
1.5157676
1.514555
1.5155373
1.5166978
1.5168787
1.515775
1.5163135
1.5154481
1.5156242
1.5144912
1.5141592
1.516795
1.5166347
1.5162548
1.514173
1.5138255
1.5151564
1.5149109
1.5138423
1.5142472
1.5152851
1.5149389
1.5154701
1.515346
1.5152567
1.5154445
1.5156692
1.5156554
1.5155793
1.515598
1.515236
1.5154498
1.5163096
1.5164433
1.5155674
1.5155495
1.5165216
1.5165112
1.5184359
1.5183427
1.519397
1.5193364
1.5184518
1.5184227
1.5194006
1.5194129
1.5169303
1.5170552
1.518734
1.5187121
1.5168414
1.5168473
1.5186756
1.5186614
1.5184242
1.5183881
1.5193601
1.5193723
1.5183801
1.5183876
1.5193456
1.5193576
1.5183957
1.5183759
1.5193712
1.5193788
1.5183934
1.5184131
1.5193609
1.5193746
1.5183764
1.5184044
1.5194113
1.5194038
1.5188755
1.5183844
1.518388
1.5193766
1.5193948
1.5201374
1.5201248
1.5187323
1.5186624
1.5186742
1.5200968
1.5200906
1.5181985
1.5178612
1.5188583
1.5191827
1.5185573
1.5197943
1.5185852
1.519888
1.5186442
1.5186439
1.5200322
1.5200204
1.5179193
1.5177736
1.5187831
1.5186708
1.5196182
1.5186877
1.5186437
1.5188332
1.5187903
1.518808
1.5190027
1.5187661
1.5189626
1.519853
1.5196596
1.5199029
1.5185042
1.5186228
1.5184562
1.518574
1.5195633
1.5196688
1.5196003
1.5197129
1.5185701
1.5187266
1.5185234
1.5186799
1.5196092
1.5198557
1.5196169
1.5198712
1.5196717
1.5195504
1.5195431
1.5196578
1.5196181
1.5195938
1.5196641
1.5196336
1.5204011
1.5186578
1.5184951
1.5184425
1.518546
1.5184925
1.5195788
1.5196754
1.519636
1.5195486
1.5183309
1.5184192
1.5183363
1.5183854
1.5184374
1.5185214
1.5184687
1.5184415
1.5185705
1.5183908
1.518519
1.5196284
1.5196141
1.5195274
1.5195199
1.5195672
1.5195627
1.5196151
1.5196036
1.5204055
1.5202309
1.5202401
1.5204431
1.5206036
1.5204262
1.5219574
1.5193526
1.5208815
1.5207075
1.5203135
1.5205207
1.5199497
1.520687
1.5205087
1.5205082
1.5206731
1.5220685
1.5197057
1.522255
1.5191037
1.5229697
1.5228197
1.5235041
1.5237001
1.5253846
1.5253239
1.5264137
1.5272352
1.5268011
1.5268073
1.5269979
1.5269138
1.5205982
1.520594
1.5209791
1.5209556
1.5196776
1.5195543
1.519568
1.5196578
1.5196408
1.5196564
1.5196002
1.5195923
1.5204595
1.5196551
1.5195318
1.5195497
1.5196304
1.5196158
1.5196369
1.5195874
1.5195708
1.5204333
1.5202795
1.5202631
1.5256162
1.5272228
1.5271086
1.5256403
1.5270715
1.5271857
1.5256537
1.5256752
1.5196525
1.51967
1.5199305
1.5199067
1.5198993
1.5196245
1.5196435
1.5198723
1.5196987
1.5195769
1.5195572
1.519674
1.5197253
1.5195817
1.5195975
1.519704
1.5259572
1.5253278
1.5253033
1.5258356
1.5254482
1.5254449
1.5260248
1.5258789
1.5254635
1.5254166
1.5255701
1.5255379
1.5192569
1.5191925
1.5192683
1.519257
1.5186565
1.5186292
1.5185796
1.5185925
1.5192102
1.5192003
1.5192256
1.5192126
1.5192261
1.5192166
1.5192291
1.5192225
1.5192458
1.5192289
1.5199125
1.5192511
1.5192631
1.5198803
1.5198452
1.5198481
1.5188792
1.5195633
1.5196717
1.5185098
1.519793
1.5197872
1.518493
1.5183627
1.524669
1.5250963
1.5251313
1.5245888
1.5253635
1.5267828
1.5266955
1.525424
1.5257029
1.5270389
1.5268999
1.525735
1.5254458
1.5266373
1.5265522
1.5255577
1.5162712
1.5160929
1.5157068
1.5156491
1.5156397
1.5169816
1.5169064
1.5155571
1.5154467
1.5155503
1.5155232
1.5153839
1.514872
1.5153914
1.5152938
1.515384
1.5152322
1.5148808
1.5148542
1.5148377
1.5148858
1.5148903
1.514829
1.5149032
1.5153059
1.514831
1.514771
1.5147544
1.5147773
1.5147559
1.5152358
1.5163373
1.5159778
1.5158533
1.5151491
1.5155058
1.5165376
1.5150478
1.5150874
1.5157773
1.5157475
1.5155158
1.5154959
1.5155063
1.5154764
1.5155813
1.5165517
1.5156258
1.5166058
1.5156033
1.5155935
1.5155604
1.5155608
1.5155789
1.5155791
1.5155731
1.5155648
1.5155446
1.5155564
1.5156645
1.5156629
1.5166142
1.5165863
1.5156679
1.51659
1.5156421
1.5165745
1.5139882
1.5153011
1.5155632
1.5143433
1.5154277
1.5152843
1.5154308
1.5167158
1.5168609
1.5156554
1.5155989
1.5156153
1.5162537
1.5167237
1.5164827
1.5158063
1.5152364
1.5154451
1.5143163
1.5139801
1.5164684
1.5170766
1.5169651
1.516405
1.5162895
1.5162486
1.5165882
1.5165223
1.5156328
1.5164421
1.5160988
1.5161241
1.5140595
1.5142343
1.5141693
1.5139029
1.513723
1.5138152
1.5137963
1.5137032
1.5141525
1.5138381
1.5154506
1.5151731
1.5136835
1.5151376
1.5137073
1.5150836
1.5136995
1.5137943
1.5138203
1.513733
1.5139129
1.5140657
1.5142666
1.5142359
1.5142904
1.515239
1.5138814
1.5156143
1.5136824
1.5137206
1.5151001
1.5151033
1.5152479
1.5154348
1.5155624
1.5155796
1.5151849
1.5152942
1.5151511
1.5153234
1.5154308
1.5154525
1.5154307
1.5154622
1.5152604
1.515457
1.516352
1.5164924
1.5155512
1.5155737
1.5165349
1.5165419
1.515558
1.515562
1.5155479
1.5155414
1.5155457
1.515539
1.515522
1.5155322
1.5156337
1.5156387
1.5165855
1.5165668
1.5156508
1.5165909
1.5156471
1.5165983
1.5173616
1.5174278
1.5190208
1.5190061
1.5172562
1.5173196
1.5189603
1.5189262
1.5190222
1.5174556
1.5173971
1.5190136
1.5173932
1.5173699
1.519007
1.5190021
1.5167573
1.5168868
1.5166682
1.5166745
1.5189828
1.5174577
1.5173928
1.5189726
1.5189624
1.5173572
1.5173729
1.5189548
1.5189552
1.5173624
1.5173321
1.5189468
1.5189468
1.5173565
1.5173997
1.5189499
1.517341
1.517382
1.518972
1.5189654
1.5173385
1.5173187
1.5189635
1.5189579
1.5173432
1.5173601
1.518972
1.5189658
1.518973
1.5173926
1.5174421
1.5189691
1.5172973
1.5172732
1.5181716
1.5189848
1.5189882
1.5173535
1.5173222
1.519009
1.5190019
1.5193451
1.51798
1.5193123
1.5172995
1.5173284
1.5189847
1.5189763
1.5173715
1.5173288
1.5189732
1.5189683
1.5178302
1.517838
1.5192302
1.5192251
1.5177638
1.5177774
1.5191703
1.5191882
1.5178021
1.5177655
1.5191833
1.5191909
1.5176
1.5182452
1.5177915
1.5184479
1.5174561
1.5179993
1.5174534
1.5179831
1.5189813
1.5178482
1.5177774
1.519004
1.5177691
1.5177628
1.5190795
1.5190649
1.5177804
1.5177522
1.5191491
1.5191438
1.5191579
1.5177727
1.5177916
1.5191422
1.5180935
1.5176209
1.5174762
1.5179928
1.5174104
1.5174114
1.5178987
1.5178925
1.5189772
1.5191099
1.5189014
1.5190391
1.5182895
1.5183839
1.5183586
1.5182632
1.518224
1.5183214
1.5182007
1.5182982
1.5184712
1.5183817
1.5184948
1.5183564
1.5182957
1.5184136
1.5183176
1.5184354
1.5190166
1.5184932
1.5185749
1.5185547
1.5184705
1.5192128
1.5185731
1.5186809
1.5186588
1.518553
1.5184331
1.5184131
1.5185182
1.5184997
1.5185157
1.5184984
1.5186235
1.5186077
1.5190869
1.5192783
1.5189803
1.5191191
1.5189639
1.5191009
1.5190948
1.5192913
1.5190809
1.5192751
1.5187193
1.5179087
1.5178805
1.51801
1.5179796
1.5179522
1.5188289
1.5180682
1.517982
1.5180998
1.5179118
1.5178412
1.5179447
1.5178094
1.5179143
1.5180348
1.5180032
1.5178849
1.5188027
1.5189115
1.5188646
1.5187835
1.5190113
1.5189328
1.5188021
1.5187778
1.5189152
1.5188888
1.5188665
1.5190162
1.5188457
1.5189936
1.5180781
1.5181743
1.518143
1.5180471
1.5182641
1.5181642
1.518292
1.5181326
1.5180788
1.5180105
1.5181083
1.5179817
1.5180954
1.5182282
1.5182017
1.5180684
1.5189148
1.5190553
1.5188974
1.519036
1.5190319
1.5190181
1.5192326
1.5192158
1.5189287
1.5190701
1.518913
1.5190527
1.5190468
1.519248
1.5190325
1.5192315
1.5188113
1.5189639
1.518793
1.5189436
1.5187464
1.5188595
1.5187246
1.5188364
1.5187314
1.5188452
1.5187093
1.518819
1.5187976
1.5189499
1.5187775
1.5189258
1.5189195
1.5188825
1.5196827
1.5190162
1.5189793
1.5189352
1.518864
1.5196548
1.5189763
1.5190397
1.5187758
1.5187415
1.5188271
1.518791
1.5187895
1.5187129
1.5188355
1.5187542
1.5195995
1.5165732
1.5165657
1.5169431
1.5169149
1.5165779
1.5169227
1.5172212
1.5171907
1.5169027
1.5168224
1.5171322
1.5170962
1.5168032
1.5171964
1.5174495
1.5174173
1.5171711
1.5171069
1.5173698
1.5173298
1.5170777
1.5187307
1.5188096
1.5186987
1.5187758
1.5187376
1.5187087
1.5188617
1.5188308
1.5187404
1.5186562
1.5188612
1.5187752
1.5187381
1.5188125
1.5186552
1.5187277
1.5172669
1.5174347
1.5174483
1.5172585
1.5174144
1.5175859
1.5174073
1.5175748
1.5176685
1.5175529
1.5176773
1.5175481
1.5173078
1.5173419
1.5174869
1.5175272
1.5173948
1.5174224
1.5176013
1.5175695
1.517543
1.5177076
1.5175713
1.5177392
1.517496
1.5176698
1.5176289
1.5174604
1.5177101
1.5176819
1.5178319
1.5178013
1.5177732
1.5179071
1.5178018
1.517938
1.5177259
1.5176394
1.5177643
1.5176034
1.5177322
1.5178724
1.5178355
1.5176977
1.5186815
1.5186549
1.5188061
1.5187785
1.5186643
1.51879
1.5186399
1.5187607
1.5186768
1.5187542
1.5186453
1.5187226
1.518658
1.5187357
1.5187047
1.5186322
1.5188703
1.5188282
1.5196343
1.5189674
1.518921
1.5188462
1.5188142
1.5196277
1.5189403
1.518909
1.5187259
1.5187748
1.518688
1.5187385
1.5187039
1.5187544
1.5186771
1.5187226
1.5195502
1.5195528
1.5196131
1.519584
1.5195906
1.5196137
1.5183443
1.5194054
1.5192391
1.5193118
1.5203469
1.5194518
1.5194822
1.5195463
1.5195375
1.5194772
1.5205215
1.5195607
1.519433
1.5194398
1.5195466
1.5193491
1.5194553
1.5185182
1.5193366
1.5192022
1.5203442
1.5201434
1.5193372
1.5182166
1.518025
1.5198311
1.5195275
1.5195357
1.5198155
1.519426
1.519703
1.5193122
1.5188469
1.5196127
1.5193642
1.5194876
1.5185097
1.5193853
1.5192365
1.5196044
1.5194628
1.5194531
1.5195898
1.5185362
1.518162
1.5196021
1.519484
1.5194797
1.5195989
1.5195907
1.5195902
1.5195275
1.5195329
1.5205986
1.5195937
1.5195584
1.5196212
1.5205859
1.5196511
1.5195551
1.5196363
1.5195158
1.5196649
1.5204151
1.5204105
1.5180418
1.5181765
1.518506
1.5183836
1.5235801
1.5229277
1.5231224
1.5238339
1.5180927
1.5179348
1.5252214
1.5251536
1.5245005
1.5244362
1.5252707
1.5251788
1.5252576
1.5271635
1.525169
1.5270697
1.5269699
1.5268859
1.5196505
1.5195008
1.5195029
1.5196445
1.5195812
1.5195402
1.5196837
1.5197139
1.5195786
1.51958
1.5198842
1.5198746
1.5199137
1.519617
1.5196582
1.5199355
1.5186587
1.5187975
1.5186904
1.5188197
1.5186699
1.5186494
1.5187522
1.518726
1.5186506
1.5187374
1.5186819
1.5187617
1.5186786
1.5188101
1.5186561
1.5187821
1.5187137
1.5187694
1.5186955
1.5187451
1.518703
1.5187579
1.5187293
1.5187805
1.5188607
1.518877
1.5196648
1.5189685
1.518979
1.5188595
1.5188385
1.5196594
1.5189369
1.5189551
1.519568
1.5195762
1.5186711
1.5186611
1.5188008
1.5187869
1.5186609
1.5186461
1.5187423
1.5187211
1.5186631
1.5187447
1.5186529
1.5187308
1.5186698
1.5186536
1.518799
1.5187765
1.5187034
1.5187582
1.5186913
1.5187386
1.5187055
1.5187607
1.518695
1.5187468
1.5188491
1.5188355
1.5196556
1.5189414
1.5189284
1.5188468
1.5188313
1.5196358
1.518939
1.518928
1.5195715
1.519556
1.5196294
1.5195928
1.519613
1.5196396
1.5195949
1.5196092
1.5196354
1.5196183
1.5196703
1.5255177
1.5273456
1.527259
1.5255898
1.5271312
1.5272221
1.5256042
1.5256485
1.5189423
1.5189208
1.5190876
1.5190646
1.5189384
1.519091
1.5189604
1.5191038
1.5190655
1.5192769
1.5190822
1.5192847
1.519064
1.5192696
1.5190444
1.519248
1.5190484
1.5190415
1.5192532
1.5192429
1.5189271
1.5189142
1.5190692
1.519053
1.5189287
1.5190733
1.5189214
1.519063
1.5190457
1.5190342
1.5192481
1.5192326
1.5188088
1.5189653
1.5188006
1.5189534
1.5187404
1.5188582
1.5187311
1.5188456
1.5187396
1.5188558
1.5187233
1.518835
1.5188075
1.5187926
1.5189625
1.5189431
1.5188095
1.5189764
1.5188359
1.5189924
1.5187495
1.5188681
1.518726
1.518841
1.5188601
1.5187339
1.5187632
1.5188803
1.5188195
1.5189782
1.5187966
1.5189519
1.526251
1.5254571
1.5254457
1.5261228
1.5189452
1.5189295
1.51885
1.5188839
1.5189439
1.5189334
1.5189262
1.5189248
1.5188751
1.5188649
1.5188635
1.518872
1.5189045
1.5188922
1.5188815
1.518876
1.5188917
1.5188845
1.5188928
1.5188931
1.5188912
1.5188834
1.5188816
1.5188787
1.5189038
1.5188943
1.518891
1.5188898
1.5191245
1.5191762
1.5189018
1.5189065
1.518929
1.5189243
1.5190297
1.5190376
1.5189772
1.5189921
1.5189876
1.5189942
1.5180627
1.5182934
1.5188129
1.5188376
1.5189057
1.5188901
1.5178496
1.5178326
1.5189597
1.5189548
1.5189676
1.5189557
1.5178444
1.5179616
1.5177578
1.5177614
1.5246794
1.52527
1.5253223
1.5245782
1.5252677
1.5268047
1.5267205
1.5253565
1.5168758
1.5172769
1.5156346
1.5156429
1.5156003
1.5155933
1.5156002
1.5154492
1.5155419
1.5154546
1.5155142
1.5154046
1.5148734
1.5155236
1.5155355
1.5155215
1.5155017
1.5155111
1.515486
1.515375
1.5154404
1.5154174
1.5153097
1.5153966
1.5152612
1.5148753
1.5148673
1.5148805
1.5148417
1.5153851
1.5154029
1.5154071
1.5153778
1.5152724
1.5152184
1.5152731
1.5151836
1.5148306
1.5148841
1.5151607
1.5148875
1.5148234
1.5149138
1.5151398
1.5152715
1.5152706
1.514837
1.5147657
1.5147491
1.5147811
1.5147589
1.5152129
1.5154269
1.5155754
1.5162827
1.5161602
1.5155816
1.515454
1.5151127
1.5154177
1.5154098
1.5153727
1.5153704
1.5164327
1.5157368
1.5156595
1.5163503
1.5150189
1.5150482
1.5153801
1.5153563
1.5155066
1.5155088
1.5155011
1.5155052
1.5154856
1.5154757
1.5154687
1.5154841
1.5154832
1.5154648
1.5154881
1.5154666
1.5157468
1.5157703
1.5164125
1.5164134
1.5155111
1.515506
1.5155032
1.5154994
1.5164882
1.5158153
1.5164417
1.5157934
1.5156077
1.5156076
1.5155777
1.515578
1.5155644
1.5155644
1.5155966
1.5156031
1.515574
1.5155662
1.5155507
1.5155605
1.5155504
1.5155569
1.5155574
1.5155517
1.5155523
1.5155581
1.5155519
1.5155575
1.5155461
1.5155412
1.5155345
1.5155417
1.5155533
1.5155545
1.5155493
1.5155478
1.5155497
1.5155471
1.5155488
1.5155527
1.515553
1.5155495
1.5155491
1.5155528
1.5165186
1.5158502
1.5158253
1.5164593
1.5164467
1.5158366
1.515812
1.5164354
1.5155468
1.5155448
1.5155482
1.5155506
1.5164389
1.5158219
1.5158117
1.5164198
1.5155419
1.5155388
1.5155305
1.5155326
1.5164442
1.5158281
1.5157986
1.5164456
1.5138519
1.5137459
1.5137201
1.5153012
1.5155281
1.5141863
1.5139603
1.5141911
1.5154243
1.5152938
1.5152451
1.5154086
1.5156076
1.5155944
1.5155562
1.5155717
1.5162079
1.5166719
1.516397
1.5157708
1.5152284
1.515427
1.5141844
1.514173
1.513968
1.5138527
1.5137272
1.513745
1.5163911
1.5169903
1.5168746
1.5163401
1.5162844
1.516291
1.5162436
1.5162345
1.5162473
1.5162591
1.5162036
1.51622
1.5162459
1.5162339
1.5166539
1.5165838
1.5162228
1.5162031
1.5165637
1.5165486
1.5158215
1.5155726
1.5154782
1.5158725
1.5161442
1.5160904
1.5165237
1.5164792
1.515902
1.5154054
1.5164215
1.5161055
1.5161231
1.5161589
1.5160908
1.5161369
1.5141373
1.5138705
1.5137001
1.5136825
1.5142036
1.5140387
1.5142451
1.5139802
1.5138419
1.5138102
1.5138212
1.5137744
1.5144253
1.5157279
1.5141127
1.5154265
1.5139131
1.5139773
1.5153102
1.5152604
1.5136699
1.5136725
1.513669
1.5136645
1.5138633
1.5138395
1.5152414
1.5151948
1.5136837
1.5136935
1.5136918
1.5136773
1.5138355
1.5138137
1.5152039
1.5151976
1.513677
1.5137042
1.5138681
1.5141814
1.5140944
1.5143104
1.5143959
1.5140544
1.5139258
1.5152524
1.515301
1.514005
1.5138572
1.5138159
1.5137858
1.5138495
1.5142103
1.5155061
1.5145941
1.5158773
1.5136661
1.5136653
1.5136601
1.5136612
1.5137027
1.513684
1.5136743
1.513702
1.513828
1.5138232
1.5151742
1.5152206
1.5151941
1.5151935
1.5138491
1.5138563
1.5152893
1.515217
1.5153039
1.515174
1.5151589
1.5153172
1.5154375
1.5154197
1.5154509
1.5154259
1.5154299
1.5154581
1.5155686
1.515563
1.5155459
1.5155379
1.5155258
1.5155345
1.5155827
1.5155801
1.5155557
1.5155443
1.5155606
1.51555
1.5151762
1.5151217
1.5150929
1.5151909
1.5153183
1.5153167
1.5153354
1.5153494
1.5154254
1.5154274
1.5154363
1.5154337
1.5154566
1.5154642
1.5154682
1.515456
1.5150651
1.5150754
1.5152001
1.5152151
1.5153245
1.5153188
1.5153574
1.5153703
1.5161624
1.5153929
1.5155339
1.5162544
1.5156731
1.515642
1.5163275
1.5163591
1.5154271
1.5154239
1.5154378
1.515444
1.5154557
1.5154707
1.5154784
1.5154604
1.5163771
1.5157266
1.5157241
1.5163625
1.5163925
1.5157527
1.51576
1.5164167
1.5155433
1.5155452
1.5155408
1.5155373
1.515538
1.5155371
1.5155308
1.5155324
1.5155108
1.5155177
1.5155205
1.5155159
1.5155226
1.5155283
1.5155294
1.5155248
1.5155093
1.515507
1.5155134
1.5155174
1.5155232
1.5155196
1.5155222
1.5155257
1.5164459
1.5158015
1.5157901
1.5164143
1.5157869
1.5158009
1.516408
1.5164073
1.5155294
1.5155275
1.5155301
1.5155331
1.5164298
1.5158047
1.5158037
1.5164257
1.5155377
1.5155341
1.5155386
1.5155425
1.5158201
1.5158277
1.5164679
1.5164882
1.5172055
1.5172701
1.5170964
1.5171586
1.5173003
1.5172429
1.517241
1.5172152
1.5158602
1.5168254
1.5160074
1.516951
1.5157604
1.5167387
1.5157772
1.5167443
1.5173028
1.5172406
1.5172023
1.5172212
1.5172104
1.5171807
1.517201
1.5172509
1.5171882
1.5172273
1.5171882
1.5171653
1.5171887
1.5172075
1.517239
1.5172943
1.5171345
1.5170292
1.5171015
1.5167991
1.5188641
1.5188835
1.5171975
1.51716
1.5165697
1.5164998
1.5187722
1.5187817
1.5171433
1.5171693
1.5172199
1.5171715
1.5163247
1.5163854
1.5186627
1.518656
1.5163835
1.5163119
1.5186691
1.5186755
1.5162673
1.5162334
1.5186078
1.5186176
1.5163382
1.5162735
1.5186123
1.518611
1.5163104
1.516382
1.5186289
1.5186203
1.5162826
1.5162572
1.5186193
1.5186119
1.5177447
1.5172698
1.5172772
1.517762
1.5173591
1.5174106
1.5179284
1.5180317
1.5171715
1.5171829
1.5175866
1.5175936
1.5171971
1.5171812
1.5175844
1.5175805
1.5165849
1.5167457
1.5185056
1.5185138
1.5185334
1.5164559
1.516434
1.5185292
1.5163178
1.5163763
1.5185769
1.5185677
1.5163701
1.5163333
1.5185654
1.5185609
1.5162968
1.5163556
1.5186014
1.5185948
1.5162759
1.5162553
1.5185958
1.5185887
1.5162671
1.5163029
1.5186105
1.5186032
1.5163833
1.5163215
1.5186113
1.5186071
1.5177752
1.5174127
1.5172998
1.5177097
1.5172256
1.5172067
1.5175921
1.5176127
1.5171652
1.5171577
1.5175277
1.5175315
1.5171615
1.5171669
1.5175288
1.5175308
1.518675
1.5186047
1.5186909
1.5185895
1.5186873
1.5187925
1.5187777
1.5186725
1.5184915
1.5185792
1.5185382
1.518623
1.5186197
1.5187268
1.5185753
1.5186855
1.5163514
1.5164043
1.5162939
1.5162425
1.5161767
1.5162239
1.5161466
1.5161983
1.5164535
1.5164695
1.516569
1.5163562
1.5162624
1.5163612
1.516285
1.5163801
1.5186839
1.5187641
1.5187256
1.5188017
1.5166766
1.5168026
1.5166827
1.5165581
1.5189059
1.5188005
1.5187616
1.5188702
1.5168971
1.5167739
1.5164848
1.5164687
1.5166071
1.5165955
1.5166965
1.5166879
1.518854
1.5187906
1.5188667
1.5187773
1.5189676
1.5188648
1.5188528
1.5189533
1.5186734
1.5185946
1.5186836
1.5185855
1.5186799
1.5186717
1.5187882
1.5187794
1.5186536
1.5185742
1.5186648
1.5185654
1.5187721
1.5186622
1.5186535
1.5187615
1.5188576
1.5187857
1.5188642
1.5187793
1.5188615
1.5188565
1.518967
1.5189583
1.5187632
1.5188422
1.5187713
1.5188509
1.5189527
1.5188492
1.5188432
1.5189461
1.5181217
1.5181786
1.5182726
1.5182163
1.516364
1.5162838
1.5163537
1.5162705
1.5162574
1.5181938
1.5183599
1.5182489
1.518306
1.516245
1.5163434
1.5163334
1.5161741
1.5162121
1.5162002
1.5161875
1.5161881
1.5161763
1.5161483
1.5161614
1.5182514
1.5183463
1.5183269
1.5182338
1.518431
1.5183212
1.5183045
1.5184122
1.5184831
1.5184127
1.5183959
1.5185024
1.5182912
1.5183818
1.5183435
1.5184324
1.5186099
1.5185919
1.5184934
1.5184746
1.5184252
1.5185428
1.5183744
1.518494
1.5182427
1.5183356
1.5183212
1.5182306
1.5182129
1.5183078
1.5182896
1.5181969
1.5184188
1.5183093
1.518298
1.5184046
1.5183932
1.5182822
1.518269
1.5183765
1.5184727
1.5183979
1.5184872
1.5183863
1.5184763
1.5184629
1.5185981
1.5185846
1.5183608
1.5184485
1.5183729
1.5184625
1.5185766
1.5184517
1.5184417
1.5185628
1.5163235
1.5163176
1.5162235
1.5162329
1.5162222
1.5163133
1.5163271
1.5162166
1.5161264
1.5161648
1.5161561
1.5161361
1.5161495
1.5161573
1.5161256
1.5161192
1.5185998
1.5185184
1.5186098
1.5185095
1.5186071
1.5187175
1.5187081
1.5185985
1.5185016
1.5185907
1.5184998
1.5185922
1.5185902
1.5187019
1.5185919
1.5187001
1.5187889
1.5187162
1.5187965
1.5187086
1.5187032
1.5187016
1.5187829
1.5187826
1.5187945
1.5189
1.5187877
1.5188905
1.518785
1.5188879
1.5188897
1.5187816
1.5185464
1.518539
1.5186361
1.5186275
1.5186266
1.5187343
1.518634
1.5187423
1.5186028
1.518526
1.5186166
1.5185136
1.5186146
1.5186026
1.5187247
1.5187117
1.5187412
1.5188198
1.5187348
1.5188134
1.5188126
1.5189157
1.5188182
1.5189249
1.5187132
1.518793
1.5187241
1.5188036
1.5188021
1.5189066
1.5188979
1.5187935
1.5183461
1.5183378
1.5184352
1.5184238
1.5184148
1.5185375
1.5184256
1.5185477
1.5183095
1.5183969
1.5183249
1.5184138
1.5184033
1.5183892
1.5185277
1.5185118
1.5181907
1.5181832
1.5182836
1.5182735
1.5182503
1.5183559
1.5182578
1.5183665
1.5182399
1.518166
1.5182602
1.5181481
1.5182351
1.5182183
1.5183453
1.518326
1.5182454
1.5181635
1.5182577
1.5181549
1.5182314
1.5183418
1.5183289
1.5182219
1.5182294
1.5181456
1.518238
1.51814
1.5182117
1.518321
1.5182092
1.5183142
1.5183971
1.5183208
1.5184104
1.5183105
1.5185218
1.5183987
1.518386
1.5185086
1.5182987
1.5183843
1.5183001
1.5183885
1.5185014
1.5183763
1.5183773
1.5184974
1.5170635
1.5170601
1.5173842
1.5173612
1.5173325
1.5173059
1.517006
1.5170061
1.5190899
1.5190206
1.5190492
1.5189776
1.5170753
1.5170196
1.517017
1.5170112
1.5173558
1.5173293
1.5172596
1.5172102
1.5169043
1.5168878
1.5190379
1.5191067
1.5169085
1.5170282
1.5173673
1.5176293
1.5176033
1.517352
1.5173171
1.5175831
1.5175512
1.5173003
1.5178049
1.5176077
1.5178326
1.5175871
1.5177556
1.5175616
1.5177901
1.5175372
1.5173391
1.5176144
1.5175849
1.5173205
1.5172428
1.517526
1.5174665
1.5171992
1.5177931
1.5175912
1.5178247
1.5175669
1.5175026
1.5177416
1.5176756
1.5174465
1.5190702
1.5190132
1.519026
1.5189695
1.5164821
1.5164536
1.5164825
1.516452
1.5163988
1.5164962
1.5164387
1.5163307
1.5164771
1.5164693
1.5164309
1.5164427
1.5163466
1.5163372
1.5163273
1.516338
1.5164603
1.5164519
1.5164058
1.5164179
1.5163265
1.5163164
1.5163042
1.5163156
1.5178085
1.5177861
1.5179675
1.5179414
1.5179399
1.5179189
1.5180906
1.5180672
1.5177662
1.5179281
1.5178954
1.5177391
1.5180544
1.5180244
1.5179008
1.5178749
1.5181534
1.5180637
1.5181728
1.5180459
1.5180281
1.5181393
1.5181137
1.5180049
1.5181444
1.5182695
1.5181295
1.5182522
1.5182388
1.5182162
1.5181114
1.5180918
1.5180656
1.5181782
1.5181533
1.5180431
1.5179266
1.5179881
1.5181013
1.5180387
1.5181498
1.5182774
1.5182548
1.5181291
1.5180137
1.5180741
1.518203
1.5181424
1.5178001
1.5179659
1.5177735
1.5179355
1.5179121
1.5179378
1.5180929
1.5180648
1.517818
1.5177173
1.5178852
1.5176546
1.5180147
1.5178577
1.5177931
1.5179487
1.516262
1.5162447
1.5162504
1.5162564
1.5162378
1.5162259
1.5162324
1.5162204
1.5161939
1.5162131
1.5162005
1.5162076
1.5162927
1.5163058
1.5162814
1.5162954
1.5163932
1.5164429
1.5164342
1.516381
1.5163676
1.5163546
1.5164246
1.5164154
1.516284
1.5162732
1.5162563
1.5162689
1.5164056
1.5163408
1.5163959
1.5163271
1.5163124
1.5162989
1.5163853
1.5163754
1.5162296
1.5162615
1.5162499
1.5162433
1.5162373
1.5162255
1.5162019
1.5162156
1.5180117
1.5181204
1.5181061
1.5179993
1.5179594
1.5179816
1.518092
1.5180671
1.518205
1.5180924
1.518217
1.5180823
1.5180442
1.5181915
1.5180646
1.5181684
1.5179845
1.5179723
1.5180931
1.5180783
1.5180538
1.51819
1.5180644
1.5181767
1.5180592
1.5179689
1.5180755
1.517955
1.5180472
1.5181717
1.5181588
1.5180382
1.5178964
1.5177581
1.517917
1.5177412
1.5178896
1.5178735
1.5180391
1.5180213
1.5178529
1.5177228
1.5178832
1.5176985
1.5180082
1.5178562
1.5178314
1.5179802
1.5178898
1.517732
1.5177178
1.5178708
1.5178476
1.5179939
1.5178621
1.5180118
1.5179732
1.5178485
1.5178314
1.5179956
1.5177048
1.5178764
1.5177235
1.5178515
1.5170121
1.5170099
1.5173357
1.5173174
1.5172974
1.5172744
1.5169732
1.5169737
1.51904
1.5189681
1.5189195
1.5189918
1.5170233
1.5169856
1.5169984
1.5169989
1.517316
1.5172993
1.5173211
1.5172986
1.5170145
1.5170167
1.5190141
1.5189466
1.5189197
1.5189819
1.5170118
1.5170292
1.5175606
1.517318
1.5175811
1.517307
1.5175592
1.5175431
1.5177832
1.5177613
1.5175163
1.5172815
1.5175445
1.5172671
1.5177478
1.5175226
1.5175004
1.517717
1.5175395
1.5172996
1.5175585
1.5172911
1.5177573
1.5175358
1.5175224
1.5177372
1.5175294
1.5173056
1.5175559
1.5172933
1.5177485
1.5175337
1.5175155
1.5177212
1.5190139
1.5189498
1.5189036
1.5189666
1.5189155
1.5189382
1.5189958
1.5189683
1.5189949
1.5189218
1.5188801
1.5189504
1.5189748
1.5189183
1.5188869
1.5189367
1.5189108
1.5189191
1.5189718
1.5189552
1.5189858
1.5189184
1.5189005
1.5189619
1.5176714
1.517902
1.5177463
1.5179527
1.5183522
1.5184982
1.5184757
1.5194767
1.5186169
1.5186374
1.5183872
1.5184049
1.5193232
1.5185388
1.5184988
1.5182154
1.518224
1.5182852
1.5182824
1.5192014
1.5193766
1.5183065
1.5182844
1.5183675
1.5183395
1.5185174
1.5185088
1.5195552
1.5186456
1.5186537
1.5183216
1.518388
1.5183131
1.5183773
1.5183123
1.5183816
1.5182974
1.5183593
1.5185089
1.5184931
1.5195483
1.5186335
1.5186458
1.5194388
1.5194373
1.5182604
1.5184258
1.5182505
1.5184131
1.5182476
1.5182279
1.5183562
1.5183303
1.5182551
1.518361
1.5182456
1.5183488
1.5182552
1.5184232
1.5182328
1.5183947
1.5182387
1.5183385
1.5182116
1.5183065
1.5182427
1.5184006
1.5182125
1.5183661
1.5178156
1.5177005
1.517925
1.5180158
1.5181786
1.518333
1.5181704
1.5183239
1.5181684
1.5182668
1.518163
1.5182567
1.5194701
1.5194736
1.5195097
1.5195116
1.5192867
1.5194253
1.5194493
1.5181531
1.5178708
1.5180752
1.5176214
1.5175253
1.5175328
1.5176271
1.517512
1.517521
1.5175643
1.5175697
1.5187308
1.5189929
1.5187252
1.5189845
1.518579
1.5185601
1.5187703
1.5187492
1.5185739
1.5187656
1.5185679
1.5187568
1.5187372
1.5189984
1.5187211
1.5189801
1.5185445
1.5187223
1.5185173
1.5186961
1.5186915
1.5189361
1.5186693
1.5189145
1.5184723
1.5186416
1.5184822
1.5186507
1.5180843
1.5178617
1.5180852
1.5182799
1.5186082
1.5188478
1.5186251
1.518863
1.5183208
1.5184651
1.5182895
1.5184316
1.5184006
1.5185914
1.5183706
1.5185599
1.5179951
1.5177735
1.5178941
1.5180906
1.5183333
1.5185193
1.5183359
1.5185213
1.5182577
1.5183947
1.518254
1.5183911
1.5184229
1.5186254
1.5184157
1.5186155
1.5183407
1.518493
1.518332
1.518482
1.5183161
1.5183392
1.5184932
1.5184662
1.5184246
1.5184033
1.5186289
1.518604
1.5176623
1.5176498
1.5178515
1.5178616
1.5176771
1.517586
1.5175954
1.5176851
1.5182565
1.5184293
1.5182517
1.5184205
1.5182615
1.5182441
1.5183711
1.5183456
1.5182516
1.5183615
1.5182461
1.5183526
1.5182676
1.5182464
1.5184392
1.5184104
1.5183269
1.5183977
1.5183152
1.5183768
1.518319
1.5183895
1.5183137
1.5183808
1.5185201
1.5185133