/*--------------------------------*- C++ -*----------------------------------*\
  =========                 |
  \\      /  F ield         | OpenFOAM: The Open Source CFD Toolbox
   \\    /   O peration     | Website:  https://openfoam.org
    \\  /    A nd           | Version:  7
     \\/     M anipulation  |
\*---------------------------------------------------------------------------*/
FoamFile
{
    version     2.0;
    format      ascii;
    class       volScalarField;
    location    "2000";
    object      nut;
}
// * * * * * * * * * * * * * * * * * * * * * * * * * * * * * * * * * * * * * //

dimensions      [0 2 -1 0 0 0 0];

internalField   nonuniform List<scalar> 
34222
(
9.8989478e-91
3.8313915e-91
7.2989258e-91
1.1805343e-90
9.9238141e-91
1.167594e-90
3.1873943e-90
4.3924269e-91
4.3207063e-91
4.1217142e-91
4.5221924e-91
8.1264855e-91
5.4101133e-91
1.1286925e-90
2.5716447e-90
1.1407284e-90
1.4206505e-90
2.2670106e-90
1.2348134e-90
1.5790248e-90
1.8879897e-90
3.541068e-90
6.979013e-90
4.6561632e-91
4.6727738e-91
5.4373704e-91
3.789436e-91
3.5930008e-91
4.1223857e-91
5.0065904e-91
1.0042352e-90
4.8494049e-91
4.6375352e-91
6.8944674e-91
8.090777e-91
6.1841588e-91
1.2117916e-90
9.7291298e-91
1.5964261e-90
2.000001e-90
1.1914816e-90
9.9572595e-91
1.4417553e-90
2.2870265e-90
1.2859472e-90
9.96085e-91
2.7927874e-90
5.5114617e-91
5.2643507e-91
4.2997277e-91
4.7817061e-91
2.3324123e-89
3.0400026e-90
3.3012603e-90
7.4129528e-90
8.3813837e-91
1.2560683e-90
5.0880269e-91
5.0263901e-91
6.0748461e-91
4.0479464e-91
3.8652228e-91
4.7118412e-91
3.9636552e-91
5.3668517e-91
4.3675376e-91
3.8025775e-91
7.8835356e-91
9.3040874e-91
1.198728e-90
1.0201609e-90
2.6867964e-91
3.0635764e-91
5.3886388e-91
4.4787038e-91
5.1430487e-91
1.0688109e-90
6.8390445e-91
1.1369771e-90
6.4530372e-91
6.8543296e-91
1.0480351e-90
3.7814246e-91
7.9594549e-91
7.2644525e-91
4.4416068e-91
1.0112668e-90
8.8902678e-91
1.2465999e-90
1.6191025e-90
2.0302065e-90
1.1110757e-90
9.4659623e-91
1.6307122e-90
4.0408153e-91
3.7001917e-91
3.7629939e-91
3.7313632e-91
5.6173387e-91
5.7703104e-91
5.1676192e-91
5.5756729e-91
7.1570293e-91
1.4134688e-89
6.8032662e-91
2.48651e-89
1.2936762e-89
1.1808385e-90
4.6168869e-91
4.6950891e-91
1.373223e-90
5.6933638e-91
1.3073821e-90
1.2879496e-90
5.7951528e-91
3.6409926e-90
5.9117537e-91
3.3160304e-90
7.4207216e-91
1.1281442e-90
6.5877491e-90
2.5793968e-91
2.0157511e-91
5.4122586e-91
1.9655415e-91
5.3543716e-91
6.7753152e-91
4.7400654e-91
4.0912595e-91
4.8180248e-91
3.1475806e-91
3.8759373e-91
4.0504145e-91
5.7769029e-91
4.578278e-91
7.5994795e-91
4.8897728e-91
5.1433605e-91
6.0741209e-91
9.5662611e-91
7.5578975e-91
1.4963621e-90
7.9109074e-91
4.128913e-91
3.8995968e-91
1.4584031e-90
3.7926749e-91
2.0413599e-91
1.7366486e-91
2.3046611e-91
2.2962569e-91
2.3992789e-91
2.649213e-91
3.0600081e-91
5.7161286e-91
5.3211151e-91
4.5867706e-91
6.9452942e-91
1.0018471e-90
6.1986001e-91
6.5994808e-91
1.0919694e-90
9.2444555e-91
3.9180582e-91
4.8526066e-91
5.4316205e-91
3.8271736e-91
3.9926118e-91
6.0657893e-91
6.3381852e-91
4.6680705e-91
9.7917092e-91
1.13838e-90
2.7149357e-90
1.7470679e-90
4.3378008e-91
4.2133597e-91
2.690584e-91
3.0814264e-91
4.1775295e-91
3.9606342e-91
3.6770982e-91
4.3422961e-91
6.270766e-91
5.4311409e-91
5.6954385e-91
2.5406907e-91
2.1552665e-91
5.4456484e-91
8.0649535e-91
2.3731552e-90
6.084994e-90
8.0339008e-91
5.8512404e-90
6.7588431e-91
5.4146758e-91
2.2431089e-91
2.2479961e-91
5.6099479e-91
6.5816346e-91
2.139312e-89
1.187879e-89
1.3030827e-89
7.0436743e-91
7.4445231e-91
5.176342e-90
6.0284056e-90
4.4847072e-91
5.0080108e-91
2.6766755e-91
2.383251e-91
1.8859073e-91
1.9819146e-91
1.5010564e-91
1.4035767e-91
2.7925443e-91
5.0751019e-91
5.0469908e-91
2.7861536e-91
5.4225786e-91
5.2456634e-91
2.8812409e-91
2.8073997e-91
4.7521378e-91
5.1661686e-91
2.6145212e-91
2.8346962e-91
1.4665602e-90
5.0002178e-91
1.5708677e-90
5.7288308e-91
2.9526235e-90
5.5307077e-91
1.2396808e-90
5.5700634e-91
1.2809349e-90
8.1466609e-91
1.2542932e-90
3.2649726e-90
1.5490296e-91
1.3583857e-91
1.727416e-91
1.2352394e-91
1.8566015e-91
1.2001542e-91
1.997541e-91
2.1038728e-91
1.0055288e-91
7.6459566e-92
1.2227609e-91
9.1089466e-92
8.6404207e-92
1.4921047e-91
1.1618592e-91
8.2548697e-92
1.9933131e-91
2.9413424e-91
1.9512293e-91
5.6991104e-91
7.0847997e-91
4.5887042e-91
5.506667e-91
4.260499e-91
5.1176662e-91
2.5845888e-91
1.5440779e-91
1.1853029e-91
1.5213384e-91
1.1521665e-91
8.6220601e-92
3.9643901e-91
4.3050966e-91
7.0031121e-91
4.8791583e-91
7.4664239e-91
5.3862519e-91
4.6406806e-91
6.0170868e-91
2.0600933e-91
2.1158248e-91
2.2700546e-91
2.0610373e-91
1.0878697e-90
1.0136091e-90
6.5752029e-91
7.8087573e-91
6.3336519e-91
6.0028104e-91
3.9471411e-91
6.0738497e-91
4.1192057e-91
6.2029763e-91
5.8381508e-91
5.0156856e-91
3.8878526e-91
4.5557901e-91
1.2655603e-90
4.5654398e-91
1.6013819e-91
1.7257631e-91
1.0842234e-91
1.1426576e-91
1.7718265e-91
1.7644112e-91
1.8425332e-91
1.9014158e-91
1.8541574e-91
1.7140605e-91
2.1233008e-91
2.3084982e-91
2.2999021e-91
2.5328659e-91
2.2034319e-91
3.342685e-91
8.1793092e-91
9.5873724e-91
5.092749e-91
4.9077674e-91
5.8666798e-91
6.5368451e-91
1.0760048e-90
9.2357633e-91
2.6878805e-91
4.0321679e-91
4.0559965e-91
2.6225919e-91
3.8063702e-91
4.3632459e-91
4.8087311e-91
3.9369857e-91
3.929057e-91
3.6468802e-91
3.6933528e-91
4.1634189e-91
4.8088694e-91
4.5599458e-91
2.748439e-91
3.166932e-91
2.8669724e-91
2.3821371e-91
2.2213873e-91
1.7178603e-91
1.5361689e-91
2.2125236e-91
3.4126858e-91
4.5011189e-91
4.3682513e-91
3.3332687e-91
5.6963098e-91
2.0002209e-91
1.7483092e-91
1.9916418e-91
5.8441003e-91
2.5086086e-90
6.5519405e-91
5.8016736e-91
2.655127e-90
3.3914818e-91
3.290524e-91
4.2993195e-91
4.3806244e-91
5.3096444e-91
5.4979814e-91
2.4588008e-90
2.7859855e-90
5.35486e-91
2.2897637e-91
2.0663804e-91
5.02521e-91
2.1887117e-91
1.63691e-91
1.537502e-91
2.1835692e-91
6.6773952e-91
2.2176594e-91
2.1084798e-91
5.2535127e-91
5.1946461e-91
6.2055262e-91
1.2413505e-89
1.3923403e-89
6.8688564e-91
7.1396816e-91
4.8698233e-90
5.7789036e-90
7.7398501e-91
7.6010604e-91
5.7918125e-90
5.6188487e-90
3.3485997e-91
3.2134956e-91
4.2148804e-91
4.2715816e-91
3.2762364e-91
3.3663274e-91
4.514337e-91
4.3590042e-91
5.1583254e-91
5.3563049e-91
2.3381179e-90
2.731471e-90
5.7274297e-91
5.8504396e-91
2.735736e-90
2.6585496e-90
1.870101e-91
1.7170782e-91
1.3978989e-91
1.3005244e-91
2.011543e-91
1.9437962e-91
1.4879662e-91
1.5014748e-91
2.2517809e-91
1.9892136e-91
4.8975943e-92
5.734691e-92
2.2938534e-91
2.3374452e-91
5.397078e-92
5.4023282e-92
1.9917647e-91
2.0673086e-91
1.5783499e-91
1.4876062e-91
2.2354575e-91
2.0439297e-91
1.5026082e-91
1.585646e-91
2.1124112e-91
2.1162033e-91
1.5620374e-91
1.5639939e-91
2.1932843e-91
1.9664737e-91
1.4724461e-91
1.6039591e-91
1.8000376e-91
1.9244367e-91
1.4837548e-91
1.3848006e-91
5.139504e-91
2.2016032e-91
2.0699832e-91
1.4938224e-91
1.5656612e-91
2.5832099e-91
2.9093113e-91
5.6212093e-91
5.390126e-91
5.404248e-91
2.9565907e-91
2.8648374e-91
1.2181148e-90
1.3765637e-90
6.1537705e-91
5.2687166e-91
4.5853443e-91
2.559126e-91
4.8809442e-91
2.7045302e-91
5.2960452e-91
5.2458748e-91
2.6747818e-91
2.6477015e-91
1.2901814e-90
1.2962093e-90
5.9267779e-91
6.0117982e-91
1.5176243e-91
9.4836648e-92
1.0113502e-91
8.3171266e-92
8.5282122e-92
9.5481639e-92
6.7323101e-92
1.0489829e-91
7.0912873e-92
1.2396883e-91
1.5691179e-91
1.3423109e-91
9.5954283e-92
8.1757688e-92
1.0272875e-91
8.6162322e-92
1.1558688e-91
1.1245816e-91
1.1980883e-91
1.2085345e-91
9.0091894e-92
6.9706311e-92
9.7282686e-92
7.3658872e-92
1.680725e-91
1.3830968e-91
1.5974678e-91
1.3383423e-91
1.2128518e-91
1.2679133e-91
1.2983562e-91
1.1838459e-91
6.6396904e-92
6.2912187e-92
6.9660407e-92
6.6586495e-92
6.7475875e-92
4.3280888e-92
6.2103706e-92
6.7390149e-92
6.0014724e-92
6.3429983e-92
8.6443238e-92
8.3523304e-92
8.0458601e-92
8.3946416e-92
9.7542762e-92
9.0390842e-92
1.0759076e-91
8.9158307e-92
8.40856e-92
7.6689166e-92
8.0772414e-92
9.4882418e-92
7.7416159e-92
1.0200336e-91
8.2478764e-92
9.3797125e-92
9.466412e-92
9.6349138e-92
9.8564726e-92
7.1416794e-92
7.4030502e-92
7.5753988e-92
7.6265196e-92
7.793979e-92
7.9778754e-92
1.0644557e-91
1.0569898e-91
1.2777455e-91
1.2674839e-91
8.7475121e-92
1.9600514e-91
1.9566873e-91
1.8534712e-91
1.8260312e-91
2.0147769e-91
2.4171801e-91
1.5660645e-91
1.1623913e-91
1.0966336e-91
1.3695454e-91
8.4173768e-92
3.4233931e-91
5.8001902e-91
1.9082874e-91
4.4612029e-91
7.0057987e-91
5.7728493e-91
4.5951509e-91
6.4420275e-91
5.2980653e-91
7.1755465e-91
4.2218879e-91
4.6442319e-91
5.4705967e-91
5.1122104e-91
6.277019e-91
2.0618092e-91
2.0203618e-91
1.9428095e-91
1.890811e-91
8.6352308e-92
9.7268488e-92
9.2889921e-92
8.8955909e-92
7.6751712e-92
7.5723559e-92
7.1117689e-92
7.4135907e-92
7.8016879e-92
9.1684634e-92
9.8728023e-92
9.6101464e-92
9.0855297e-92
7.8464399e-92
7.7125864e-92
7.2247337e-92
7.4160447e-92
7.4676288e-92
7.9812857e-92
8.3897873e-92
5.3474404e-91
8.9295151e-91
6.7616059e-91
4.6613808e-91
4.7628567e-91
5.1349155e-91
3.8545508e-91
2.9928351e-91
1.7401029e-91
1.5542707e-91
1.3058278e-91
1.4331853e-91
1.5052274e-91
1.7637501e-91
1.7127694e-91
1.439525e-91
1.2572468e-91
1.2802953e-91
1.3108376e-91
1.2604411e-91
1.1318446e-91
1.2694649e-91
1.18594e-91
1.1934631e-91
4.5579431e-91
5.4673843e-91
2.6908694e-91
3.0005669e-91
5.0125305e-91
4.3927765e-91
3.5040662e-91
4.8741935e-91
4.022637e-91
5.5551997e-91
7.6934894e-91
4.8438572e-91
1.109253e-91
1.0757343e-91
1.1673967e-91
1.1680163e-91
5.1661007e-92
5.8725767e-92
5.7378707e-92
5.6930991e-92
1.3078358e-91
1.2546394e-91
1.1586501e-91
1.2224572e-91
1.3071852e-91
1.2267472e-91
1.2300089e-91
1.2321524e-91
1.287608e-91
1.259618e-91
1.7260261e-91
1.0711767e-91
1.156599e-91
1.891953e-91
1.8581476e-91
1.8734827e-91
2.0316669e-91
1.6447085e-91
1.7503635e-91
2.235831e-91
1.8042184e-91
1.7649929e-91
2.3093315e-91
2.1590995e-91
8.8442256e-91
9.5778447e-91
6.235954e-91
5.9370006e-91
4.1009981e-91
3.2265802e-91
3.3633282e-91
4.0333403e-91
2.645438e-91
3.8559184e-91
4.1329154e-91
2.6787531e-91
4.0681204e-91
3.9541021e-91
4.418066e-91
4.6961601e-91
2.3189624e-91
2.5721467e-91
2.8470588e-91
3.4070982e-91
3.3813734e-91
1.5843031e-91
1.516983e-91
3.0367155e-91
3.2992916e-91
3.4835407e-91
1.9499352e-91
1.9480677e-91
1.6896665e-91
2.7495806e-91
2.5730157e-91
2.1021453e-91
2.1366379e-91
2.0944379e-91
2.068989e-91
9.8230336e-92
9.3953378e-92
5.6304372e-92
6.0043812e-92
8.5645578e-92
1.9468151e-91
9.4749741e-92
6.0461369e-92
6.1595044e-92
9.4660455e-92
9.5902566e-92
5.4054461e-92
6.2115616e-91
6.3200078e-92
6.863153e-92
5.5964441e-92
1.9454001e-91
6.3845055e-91
5.7037171e-92
5.8587857e-92
6.9355574e-92
7.0033129e-92
2.757194e-91
2.6908965e-91
2.0109618e-91
2.1166339e-91
1.9680392e-91
6.6015753e-91
1.8033275e-91
6.2505136e-91
1.8803221e-91
1.9498108e-91
1.9681686e-91
2.100199e-91
2.632456e-91
2.6528956e-91
2.7487062e-91
2.5706113e-91
2.1561182e-91
2.1002393e-91
1.7261656e-91
1.9269579e-91
6.1803878e-91
6.7210319e-91
1.9657243e-91
6.8519918e-91
2.0135068e-91
6.7731785e-91
2.1921095e-91
1.676827e-91
1.496651e-91
2.1032776e-91
2.8080856e-91
3.3218867e-91
3.3655651e-91
1.5033271e-91
1.4974913e-91
2.9868308e-91
3.3152204e-91
3.0974001e-91
5.1658977e-91
2.2603116e-91
2.0160298e-91
4.9604281e-91
1.3257975e-91
1.6194659e-91
2.2256216e-91
2.0964158e-91
4.9105214e-91
2.0582027e-91
2.1020123e-91
4.9542241e-91
6.3188043e-91
6.8000781e-91
4.7591362e-90
5.4530086e-90
7.8726995e-91
5.4864117e-90
5.9410369e-90
7.7409874e-91
3.272673e-91
3.1720219e-91
4.0335414e-91
4.0873365e-91
4.2809516e-91
3.2355845e-91
3.1512034e-91
4.1063717e-91
5.2458719e-91
5.4089539e-91
2.2553997e-90
2.6338799e-90
5.629969e-91
2.6631898e-90
5.8138282e-91
2.6219157e-90
4.1883351e-91
3.1872266e-91
3.3220405e-91
4.3190818e-91
4.24252e-91
3.2173498e-91
3.2508038e-91
4.2796864e-91
5.3633958e-91
2.6142457e-90
5.4785601e-91
2.4938059e-90
5.2406724e-91
5.4120096e-91
2.4599175e-90
2.7856917e-90
1.8665455e-91
1.907899e-91
1.9164701e-91
1.9185167e-91
2.6329524e-91
2.6262633e-91
1.9386614e-91
2.0541879e-91
2.7032654e-91
2.4949397e-91
2.0781472e-91
2.1022401e-91
1.6600739e-91
1.8387301e-91
5.8241203e-91
6.5466734e-91
1.8907449e-91
1.9171023e-91
6.8557354e-91
6.8130086e-91
2.7370281e-91
2.5623347e-91
2.1035778e-91
2.0842835e-91
2.7105247e-91
2.7807592e-91
1.9912322e-91
2.0953718e-91
1.7542671e-91
1.913554e-91
6.3525336e-91
6.8536688e-91
1.8987106e-91
6.8026377e-91
1.9064088e-91
6.6875326e-91
1.9017097e-91
1.8978237e-91
4.8159823e-92
5.1197188e-92
1.8861069e-91
1.8886938e-91
4.7872032e-92
4.6893779e-92
5.2109504e-92
2.1389728e-91
2.2419111e-91
5.7734966e-92
2.13116e-91
2.2769903e-91
5.4714567e-92
5.1783144e-92
7.9427021e-92
7.1201885e-92
8.0597915e-92
8.0305849e-92
5.2546905e-92
2.2274996e-91
2.4162948e-91
5.7470849e-92
5.7043153e-92
2.5095761e-91
2.3975113e-91
5.7820961e-92
5.7205395e-92
2.3553789e-91
2.3846458e-91
6.0863144e-92
5.8228784e-92
2.4897971e-91
2.2953978e-91
5.5438363e-92
2.4265482e-91
2.3449526e-91
5.5486181e-92
6.1536054e-92
2.4050187e-91
2.5282257e-91
5.7885055e-92
5.7880042e-92
2.3266033e-91
2.3314587e-91
5.5374589e-92
6.0345211e-92
5.4087233e-92
2.2980296e-91
2.1802805e-91
5.2613255e-92
2.1485179e-91
1.9760936e-91
1.7862474e-91
4.8657101e-92
5.427674e-92
2.2762585e-91
2.3286477e-91
5.276575e-92
5.2671423e-92
1.3347249e-91
2.0354179e-91
1.456036e-91
2.4235558e-91
2.4374445e-91
5.6210488e-92
5.980612e-92
2.4107987e-91
2.563098e-91
5.6443808e-92
5.5309932e-92
2.0735565e-91
2.0716133e-91
1.559934e-91
1.5554912e-91
2.2350832e-91
2.0595488e-91
1.4556105e-91
1.5883031e-91
2.0717483e-91
2.1124307e-91
1.5524596e-91
1.5689251e-91
4.9773059e-91
2.6980555e-91
4.597425e-91
2.4776007e-91
4.9992069e-91
2.7833908e-91
4.7039829e-91
2.6940256e-91
1.3260972e-91
1.7543127e-91
1.8515432e-91
1.4036253e-91
2.0888489e-91
1.9724868e-91
1.4429697e-91
1.3892896e-91
2.0136234e-91
2.0008258e-91
1.4355997e-91
1.4224479e-91
1.488931e-91
2.1185739e-91
1.9379133e-91
1.4074106e-91
2.888474e-91
4.7536279e-91
5.0117193e-91
3.0301543e-91
5.5761653e-91
5.0995835e-91
3.1194446e-91
2.7999748e-91
9.6286942e-92
9.0342544e-92
9.4880537e-92
8.4858695e-92
2.7376168e-92
2.5716377e-92
2.6644872e-92
2.8370535e-92
2.8669258e-92
2.691696e-92
2.9610331e-92
2.7677927e-92
2.4428816e-92
2.6650559e-92
2.3730627e-92
2.8842595e-92
2.8559607e-92
2.4946346e-92
2.7737389e-92
2.4645219e-92
1.0265517e-91
3.0177989e-92
2.9478753e-92
2.9429706e-92
3.1600959e-92
6.7508835e-92
3.3525415e-92
2.6844886e-92
2.7036568e-92
3.5650501e-92
3.1406519e-92
3.1858366e-92
3.0482281e-92
3.0334965e-92
3.5261558e-92
3.5943565e-92
2.7169447e-92
2.7159261e-92
1.0195004e-91
6.9128056e-92
1.0079621e-91
9.1747297e-92
1.0516255e-91
9.2164677e-92
1.0422849e-91
7.2598104e-92
1.1265006e-91
7.3747516e-92
9.2321756e-92
4.2094468e-92
4.3750303e-92
3.7543103e-92
3.869595e-92
3.9483069e-92
8.0141821e-92
3.202917e-92
3.7830083e-92
3.0898696e-92
4.1880616e-92
4.4519134e-92
3.9914053e-92
4.6805859e-92
3.9565386e-92
3.2580975e-92
3.3691342e-92
4.2264818e-92
9.2953867e-92
8.1995391e-92
8.8566487e-92
8.8436423e-92
7.0898553e-92
6.9164667e-92
9.747364e-92
1.026312e-91
8.5357167e-92
8.8036001e-92
9.429666e-92
7.5696861e-92
9.9632481e-92
7.7758919e-92
3.4128428e-92
3.0636672e-92
3.158771e-92
3.556475e-92
2.6132321e-92
3.0717401e-92
2.5238524e-92
3.2213256e-92
3.354645e-92
3.6167543e-92
3.2604816e-92
3.792226e-92
3.2222142e-92
2.6464251e-92
2.7084349e-92
3.3656298e-92
1.1047831e-91
1.0187548e-91
1.1069756e-91
9.7761295e-92
1.1729499e-91
1.178368e-91
7.9070631e-92
7.7186777e-92
9.6803284e-92
8.4315217e-92
1.0536533e-91
8.9590783e-92
9.9903033e-92
6.9924081e-92
1.1117268e-91
7.5007683e-92
9.1616031e-92
7.0671724e-92
1.0062241e-91
7.6687859e-92
9.8159449e-92
8.3084289e-92
1.071162e-91
8.969999e-92
1.0654112e-91
9.2388405e-92
1.0778834e-91
9.1844533e-92
1.0020114e-91
7.9907765e-92
1.0087886e-91
7.8776014e-92
4.353704e-92
4.7128986e-92
5.1432448e-92
4.7468606e-92
5.1551578e-92
4.0518785e-92
4.1207379e-92
4.7645292e-92
4.4373706e-92
4.2700869e-92
6.241213e-92
6.82793e-92
6.1152904e-92
6.5571449e-92
5.8051891e-92
5.9525888e-92
5.7313282e-92
5.788448e-92
5.3496078e-92
1.7142634e-91
1.7338848e-91
1.1694389e-91
1.2000766e-91
1.0981963e-91
1.0570945e-91
8.5269553e-92
8.7631956e-92
1.0725015e-91
1.1336709e-91
9.4042591e-92
9.6725828e-92
1.1516152e-91
8.6614128e-92
6.5882463e-92
6.8429823e-92
8.9602641e-92
9.2783129e-92
7.0156792e-92
7.2702882e-92
9.817285e-92
8.5453325e-92
7.9416371e-92
9.1846583e-92
8.4240663e-92
9.6554447e-92
1.0369201e-91
8.0581184e-92
8.4442055e-92
9.1841982e-92
9.2012235e-92
7.6020787e-92
7.5199442e-92
8.0740537e-92
7.6102617e-92
8.1409978e-92
7.6016546e-92
8.5910733e-92
7.4823081e-92
7.2842786e-92
8.7740929e-92
7.2501883e-92
5.7728672e-92
7.4683653e-92
5.7998546e-92
5.5945821e-92
6.3623233e-92
5.5745888e-92
6.430818e-92
8.1704571e-92
7.7771433e-92
6.7696617e-92
6.5490868e-92
7.5217934e-92
7.2278569e-92
6.0729577e-92
6.269782e-92
6.3620991e-92
4.9927719e-92
6.1129885e-92
4.8143638e-92
6.5014599e-92
5.1370501e-92
5.3097759e-92
6.763159e-92
5.3814994e-92
5.5912723e-92
4.7079263e-92
4.8561828e-92
5.0337476e-92
4.0623203e-92
4.835171e-92
3.9239168e-92
5.2358395e-92
5.7328483e-92
5.0366325e-92
5.9754954e-92
5.0824585e-92
4.1359275e-92
4.2808796e-92
5.3190284e-92
9.8680501e-92
1.0948463e-91
8.0251931e-92
8.747444e-92
1.0599391e-91
8.6362885e-92
1.0918815e-91
8.5627768e-92
8.7537884e-92
8.1655541e-92
9.7753252e-92
8.9169872e-92
9.4829148e-92
8.8781096e-92
9.1273051e-92
9.702298e-92
4.3766809e-92
4.9519744e-92
5.6762324e-92
4.812752e-92
5.3596527e-92
4.8165883e-92
5.0649477e-92
5.9398263e-92
5.2522939e-92
5.4996657e-92
6.2709291e-92
6.2064392e-92
7.2124929e-92
6.9179376e-92
6.7953096e-92
6.7088383e-92
7.1621986e-92
6.8598797e-92
6.0530341e-92
5.9795113e-92
6.2917441e-92
5.4097054e-92
5.2411362e-92
5.707427e-92
9.5807686e-92
6.7132549e-92
6.536891e-92
6.7687275e-92
7.3042799e-92
6.8184967e-92
6.7616218e-92
6.990114e-92
7.3342355e-92
6.980397e-92
7.1966998e-92
8.5651555e-92
9.146385e-92
8.8949661e-92
8.5717558e-92
8.740611e-92
8.2199518e-92
1.1489898e-91
7.9981134e-92
8.4515875e-92
8.1760976e-92
7.3110403e-92
8.6946974e-92
1.3215842e-91
9.7903051e-92
1.401027e-91
1.6763538e-91
1.629243e-91
1.3529408e-91
1.5868623e-91
1.3139351e-91
1.4579395e-91
1.7216294e-91
1.221421e-91
1.1950561e-91
1.1238909e-91
1.7355289e-91
1.0786e-91
1.1333872e-91
1.197095e-91
1.2169539e-91
1.2503883e-91
1.2093366e-91
1.8394516e-91
1.8165246e-91
9.0927271e-92
9.6707789e-92
9.59791e-92
8.9628269e-92
7.5835663e-92
7.6402339e-92
7.2479488e-92
7.2318797e-92
7.7203776e-92
7.0548251e-92
7.1664241e-92
7.4617712e-92
7.4450476e-92
7.225447e-92
9.098693e-92
9.1813613e-92
9.3798645e-92
8.7454236e-92
8.2269689e-92
8.469497e-92
2.1902843e-91
2.1044326e-91
1.9328028e-91
1.9194415e-91
6.0554876e-91
6.805058e-91
4.4853045e-91
4.2263244e-91
1.4204655e-91
1.0454744e-91
5.053625e-91
6.0980524e-91
6.0509962e-91
5.0572492e-91
4.9836906e-91
6.6384588e-91
6.1980352e-91
6.5968557e-91
7.3633604e-91
5.5912253e-91
4.5729911e-91
3.5692827e-91
1.1998867e-91
1.251758e-91
1.2706054e-91
1.20624e-91
1.234631e-91
1.281659e-91
1.2713685e-91
1.2090675e-91
1.7439128e-91
1.6486177e-91
1.4004298e-91
1.4315926e-91
1.4535553e-91
1.7114102e-91
1.6636013e-91
1.3669758e-91
9.3232958e-92
7.4409545e-92
1.0156822e-91
8.0769526e-92
9.5122741e-92
9.7019183e-92
8.7705774e-92
8.898708e-92
8.526283e-92
7.7418431e-92
9.2059255e-92
8.3202953e-92
1.0416465e-91
8.4812141e-92
1.0604051e-91
8.5702801e-92
6.9504502e-92
6.6711382e-92
7.2984806e-92
6.7954098e-92
6.3607167e-92
6.0351418e-92
6.9292518e-92
6.4894935e-92
4.3842854e-92
4.6827231e-92
5.4762386e-92
4.755337e-92
5.0558055e-92
4.8964403e-92
5.0836096e-92
5.8445528e-92
5.5272662e-92
5.4024622e-92
5.7888564e-92
6.1491973e-92
1.0369359e-91
1.0977994e-91
8.4042781e-92
8.8346486e-92
9.7930854e-92
9.506906e-92
9.0954682e-92
8.8018705e-92
9.3424442e-92
8.6046872e-92
9.8360761e-92
8.9895234e-92
1.0798133e-91
1.0508501e-91
8.906737e-92
8.6149768e-92
7.1689707e-92
6.9538904e-92
7.1570941e-92
6.7630336e-92
6.9509185e-92
6.6921567e-92
7.4643948e-92
7.018875e-92
4.871194e-92
5.1191719e-92
5.5177058e-92
5.3864048e-92
5.5262783e-92
5.0463208e-92
4.970933e-92
5.6303866e-92
5.486459e-92
5.3684332e-92
5.7608415e-92
5.9827704e-92
5.9587933e-92
5.3248085e-92
4.9078577e-92
5.3914304e-92
4.7207692e-92
4.5643016e-92
5.0572836e-92
5.1687175e-92
3.2190133e-92
2.9226189e-91
4.3466428e-91
3.1894955e-91
2.8885425e-91
4.000635e-91
3.8278123e-91
3.0505802e-91
2.7488324e-91
1.0856611e-91
1.1022269e-91
9.885742e-92
9.7451351e-92
9.1189633e-92
7.9073239e-92
9.9414481e-92
8.4578227e-92
9.2694191e-92
6.470996e-92
1.0364935e-91
7.0460518e-92
1.1570075e-91
7.7654818e-92
1.1780872e-91
7.7508086e-92
1.1141374e-91
1.1848168e-91
7.592875e-92
7.8131657e-92
1.1184876e-91
1.0828494e-91
1.0491328e-91
9.797199e-92
1.0571073e-91
9.4289465e-92
1.1088388e-91
9.5923733e-92
1.2077873e-91
1.1887717e-91
8.207587e-92
7.8885545e-92
9.9237954e-92
7.8047255e-92
1.0597385e-91
8.2232379e-92
1.0206441e-91
8.7377238e-92
1.0787831e-91
9.1527308e-92
1.0957549e-91
9.5693146e-92
1.0669525e-91
9.2335881e-92
1.0482278e-91
1.0268174e-91
8.3731822e-92
8.08496e-92
8.7453403e-92
6.6413597e-92
9.5384466e-92
7.2321311e-92
1.0615611e-91
9.1647145e-92
1.0810985e-91
9.2343779e-92
7.7706839e-92
9.1927545e-92
9.9824479e-92
8.3318246e-92
1.0153187e-91
7.9610378e-92
1.0356184e-91
8.0049708e-92
4.4015707e-91
6.9015726e-91
2.5812857e-91
3.274033e-91
5.0007007e-92
5.163419e-92
5.078899e-92
5.2173893e-92
5.428725e-92
5.8279176e-92
5.905483e-92
5.6676094e-92
6.04713e-92
6.2693239e-92
6.4703343e-92
6.113315e-92
5.6773673e-92
6.0545356e-92
6.1976892e-92
6.377912e-92
5.9707756e-92
6.4824921e-92
6.0617098e-92
5.9618265e-92
5.9661969e-92
6.7547061e-92
6.386918e-92
6.2912299e-92
6.3391323e-92
6.3548355e-92
6.5183243e-92
6.3149479e-92
1.2040553e-91
1.1314845e-91
5.3721311e-92
5.8199566e-92
6.0101017e-92
5.8723682e-92
1.2513625e-91
1.2648399e-91
1.2555373e-91
1.3124423e-91
1.2548973e-91
1.2651187e-91
1.6756323e-91
1.6109057e-91
1.0189458e-91
1.090273e-91
1.1880536e-91
1.1689557e-91
1.7367707e-91
1.6820258e-91
1.1518302e-91
1.1528733e-91
1.2457996e-91
1.1937265e-91
1.8152173e-91
1.7715661e-91
1.7833034e-91
1.9453374e-91
4.3918261e-91
5.4565146e-91
5.5083345e-91
4.9372338e-91
3.4254007e-91
3.0717797e-91
3.501369e-91
3.7089934e-91
2.2629374e-91
2.6864576e-91
1.3861718e-91
1.385468e-91
2.4576101e-91
1.6726608e-91
1.6174066e-91
1.3784129e-91
1.4315575e-91
2.6112893e-91
1.6788631e-91
1.6488122e-91
1.2752644e-91
2.195096e-91
2.0658795e-91
1.9458136e-91
2.0517307e-91
1.7036106e-91
1.736025e-91
2.1089559e-91
2.128957e-91
1.9539706e-91
1.988552e-91
1.7197809e-91
1.6775361e-91
9.1522099e-92
1.2260262e-91
1.3896689e-91
1.3967148e-91
2.1244405e-91
2.142382e-91
9.5778473e-92
9.8852482e-92
2.1944427e-91
2.0857725e-91
1.0120887e-91
1.0061737e-91
9.4416117e-92
9.0574461e-92
5.8903054e-92
2.3251666e-92
2.3567052e-92
2.1547461e-92
9.2580965e-92
5.8313927e-92
8.9895284e-92
2.3952419e-92
2.3688178e-92
2.4090478e-92
2.2557322e-92
2.2017262e-92
9.0061747e-93
5.4818756e-92
5.6794188e-92
6.6350312e-92
6.5750221e-92
1.4750345e-92
1.569131e-92
9.1664113e-93
8.8312832e-92
5.6770945e-92
5.994918e-92
9.0808309e-92
6.5133267e-92
5.5637059e-92
5.6519462e-92
6.9114417e-92
8.9388264e-93
9.2351173e-93
1.5771266e-92
1.586346e-92
9.5006465e-92
2.1196296e-91
9.7830456e-92
2.082033e-91
2.2090275e-91
2.1347407e-91
1.025366e-91
1.0221318e-91
5.8704924e-92
5.9841148e-92
1.0234368e-91
1.0133995e-91
5.6392496e-92
5.7706206e-92
7.0220898e-92
7.0453347e-92
9.1141186e-92
5.547763e-92
9.8953231e-92
5.8637793e-92
6.4888014e-92
5.4196496e-92
7.0292839e-92
5.5812121e-92
2.0810166e-91
1.9273654e-91
1.8671574e-91
1.9572713e-91
1.7050511e-91
1.6521384e-91
2.1351741e-91
2.1575795e-91
1.9391858e-91
1.9908496e-91
1.6941044e-91
1.7216665e-91
9.3024748e-92
2.0602558e-91
2.0396859e-91
9.6546166e-92
1.0167664e-91
2.1886661e-91
1.014324e-91
2.100022e-91
2.2152967e-91
1.0091726e-91
1.0133583e-91
2.1121009e-91
2.1422358e-91
2.1836912e-91
9.5459801e-92
9.8923109e-92
8.6485937e-92
5.4435594e-92
5.7881218e-92
9.3288329e-92
9.8212331e-92
5.7329862e-92
5.8332988e-92
9.6966671e-92
6.4050311e-92
5.3424494e-92
5.5083443e-92
7.0187648e-92
7.0294611e-92
5.7878406e-92
5.6172547e-92
7.0899117e-92
5.5875974e-92
5.8989972e-92
9.4583737e-92
9.0307706e-92
6.7602756e-92
5.5591211e-92
5.6723133e-92
7.2679891e-92
9.5958113e-92
5.7022247e-92
5.8360663e-92
9.4392173e-92
7.0440749e-92
5.7597657e-92
5.485084e-92
6.9772813e-92
2.9021557e-91
3.3015589e-91
3.2403766e-91
1.6391382e-91
1.3449883e-91
2.707142e-91
3.2585184e-91
3.2602929e-91
1.3674859e-91
1.3492692e-91
1.5972844e-91
1.6499993e-91
1.3345097e-91
1.3805547e-91
1.6958724e-91
1.6724435e-91
2.1420298e-91
1.578152e-91
1.4279679e-91
2.1676175e-91
1.3794004e-91
1.4989677e-91
2.893002e-91
3.0471161e-91
2.9981713e-91
2.6339023e-91
3.1876478e-91
3.4037151e-91
2.0375413e-91
1.5020239e-91
1.2194959e-91
2.0134782e-91
2.8722633e-91
2.8086455e-91
3.7603908e-91
3.8106298e-91
2.9377573e-91
2.9542744e-91
3.9056708e-91
3.9509141e-91
5.0469518e-91
5.1247697e-91
2.3942168e-90
2.6837014e-90
5.6577295e-91
5.5614589e-91
2.7429687e-90
2.6421503e-90
3.1635786e-91
3.1380986e-91
4.0409561e-91
4.1163762e-91
5.27815e-91
5.4412962e-91
2.3551504e-90
2.6071471e-90
5.8303541e-91
5.7070768e-91
2.560689e-90
2.4597195e-90
3.0962214e-91
3.0362818e-91
3.9785016e-91
3.9996828e-91
1.8255598e-91
1.8809803e-91
1.906997e-91
1.8882232e-91
2.6094415e-91
2.5536878e-91
1.9835928e-91
2.0991056e-91
2.647116e-91
2.4338149e-91
2.1150018e-91
2.1306289e-91
1.7059992e-91
5.5560878e-91
1.8857022e-91
6.1453197e-91
1.9597579e-91
1.9170886e-91
6.5650617e-91
6.5237369e-91
2.4724364e-91
2.6510181e-91
2.0783979e-91
2.1054977e-91
1.7527228e-91
1.910369e-91
6.1354994e-91
6.6148515e-91
2.6228809e-91
2.7063411e-91
2.0069439e-91
2.1054008e-91
1.8687434e-91
1.8761741e-91
6.6837516e-91
6.5447046e-91
1.8637449e-91
1.9498079e-91
1.8600966e-91
1.9086397e-91
2.6839632e-91
2.5064874e-91
2.0630414e-91
2.0612166e-91
1.719179e-91
6.3341554e-91
6.7849503e-91
1.8584682e-91
2.6018017e-91
2.6184895e-91
1.9949952e-91
2.0949232e-91
1.8148547e-91
6.668961e-91
1.7964507e-91
6.4416996e-91
2.604061e-91
2.6578262e-91
1.9646811e-91
2.0890473e-91
2.558923e-91
2.7251743e-91
2.101337e-91
2.1463457e-91
1.7050613e-91
1.8756117e-91
6.8096591e-91
6.1461896e-91
6.8346231e-91
6.8993599e-91
1.8841092e-91
1.9158646e-91
2.0658288e-91
1.9216996e-91
1.9788368e-91
1.8745918e-91
1.6451287e-91
1.6889814e-91
2.0523795e-91
2.0577524e-91
1.9307923e-91
1.9167431e-91
1.6876516e-91
1.654361e-91
2.0389212e-91
1.9877792e-91
2.027032e-91
1.9462819e-91
1.698087e-91
1.7177415e-91
2.0160486e-91
2.0578715e-91
1.9446827e-91
1.7039093e-91
1.9600369e-91
1.6692635e-91
2.0250953e-91
2.0438562e-91
9.1727768e-92
9.5083366e-92
9.9729299e-92
2.1449485e-91
2.0999218e-91
9.9524979e-92
9.4758909e-92
2.099244e-91
9.8558441e-92
2.097106e-91
2.1224703e-91
2.0132441e-91
9.7701027e-92
9.8464904e-92
9.2297835e-92
5.3053094e-92
5.6076612e-92
9.7597179e-92
1.0413752e-91
5.542615e-92
5.6224047e-92
9.8797502e-92
6.1586451e-92
5.3311721e-92
5.528688e-92
6.7018983e-92
5.6663365e-92
5.8035979e-92
6.8962653e-92
6.9668102e-92
9.393565e-92
5.4726662e-92
5.7991217e-92
9.4469094e-92
5.59496e-92
5.609737e-92
9.4079412e-92
9.8254382e-92
6.8213684e-92
5.6230003e-92
5.7148958e-92
7.2717473e-92
7.1242985e-92
5.8166701e-92
5.5686296e-92
7.0366169e-92
2.1351993e-91
2.0733267e-91
9.9111357e-92
9.808688e-92
2.1085666e-91
2.1104395e-91
9.4826912e-92
9.8234515e-92
9.5493682e-92
2.1689126e-91
2.116484e-91
9.7658316e-92
1.0193564e-91
2.1990625e-91
2.1552693e-91
1.0224465e-91
9.8867373e-92
5.4377063e-92
5.7087313e-92
1.0472352e-91
1.0986782e-91
5.6529595e-92
5.7726393e-92
1.0201779e-91
6.6372877e-92
5.4820343e-92
5.6320016e-92
7.1290308e-92
5.7007818e-92
5.8523136e-92
7.1767969e-92
7.2148174e-92
5.8448265e-92
5.5314693e-92
9.5628537e-92
9.6083214e-92
6.8498069e-92
5.6096417e-92
5.7292941e-92
7.2777666e-92
9.4949095e-92
5.586617e-92
5.696277e-92
9.1774742e-92
5.450476e-92
5.7349742e-92
7.0422446e-92
6.8372418e-92
7.3919983e-92
7.1726042e-92
6.6625773e-92
6.8383931e-92
7.8208496e-92
8.3943371e-92
7.826318e-92
8.3013141e-92
4.2823195e-92
7.6205926e-92
3.855068e-92
7.4880691e-92
4.3575967e-92
7.7225177e-92
4.3902038e-92
7.7622463e-92
7.6281653e-92
8.2891049e-92
8.6630403e-92
8.499122e-92
8.5960812e-92
9.0019293e-92
8.6893711e-92
8.1842977e-92
8.8467979e-92
8.3316041e-92
8.816721e-92
9.0062142e-92
8.8586083e-92
8.4956094e-92
8.2039345e-92
7.6583214e-92
7.5841099e-92
1.9371824e-91
6.7977393e-92
2.0898166e-91
4.9439373e-92
4.7573241e-92
7.9966578e-92
7.9161478e-92
2.1301296e-91
2.1954791e-91
5.1846879e-92
5.3477102e-92
9.0257206e-92
8.4973413e-92
8.3413665e-92
8.6767314e-92
2.3718832e-91
2.2313539e-91
5.4306318e-92
5.8118371e-92
2.2600242e-91
2.4874725e-91
5.6593348e-92
5.5219036e-92
2.4161205e-91
2.3822183e-91
6.0285345e-92
5.6976863e-92
2.291705e-91
2.4286679e-91
5.4252589e-92
5.3038929e-92
2.2554827e-91
2.2262196e-91
5.8576215e-92
6.1164129e-92
2.4994045e-91
2.5815707e-91
5.5912404e-92
5.5096864e-92
1.4175756e-91
1.8908598e-91
1.876541e-91
1.4212172e-91
1.8714719e-91
1.6993024e-91
1.3494026e-91
1.2797244e-91
2.1677679e-91
2.0058581e-91
1.5216126e-91
1.4506484e-91
1.8610165e-91
1.9343274e-91
1.4436437e-91
1.4468151e-91
2.0997193e-91
1.9281515e-91
4.6578729e-92
5.0283549e-92
5.0158491e-92
2.2072002e-91
2.157829e-91
5.2041159e-92
2.3296258e-91
2.3356833e-91
5.2120791e-92
5.3514317e-92
2.2445183e-91
2.344166e-91
5.1743894e-92
5.1174088e-92
2.3001635e-91
2.237209e-91
5.2517979e-92
5.6785055e-92
2.281074e-91
2.391779e-91
5.3856609e-92
5.3145708e-92
2.2816215e-91
2.3016255e-91
5.4079135e-92
5.6175418e-92
2.2126829e-91
2.3223922e-91
5.3030116e-92
5.1714102e-92
1.5349135e-91
1.9624394e-91
2.0935444e-91
1.6847082e-91
2.2735859e-91
2.1519834e-91
1.610829e-91
1.619748e-91
2.2424741e-91
2.2050051e-91
1.6600694e-91
1.7258957e-91
2.2750169e-91
1.9838256e-91
1.4820669e-91
1.6114307e-91
2.4892123e-92
2.5715173e-92
2.4494293e-92
2.6078746e-92
2.5436673e-92
2.3226405e-92
2.3572152e-92
2.7109629e-92
2.5768653e-92
2.4430201e-92
2.5489593e-92
2.4501084e-92
2.5234277e-92