/*--------------------------------*- C++ -*----------------------------------*\
  =========                 |
  \\      /  F ield         | OpenFOAM: The Open Source CFD Toolbox
   \\    /   O peration     | Website:  https://openfoam.org
    \\  /    A nd           | Version:  7
     \\/     M anipulation  |
\*---------------------------------------------------------------------------*/
FoamFile
{
    version     2.0;
    format      ascii;
    class       volScalarField;
    location    "2000";
    object      omega;
}
// * * * * * * * * * * * * * * * * * * * * * * * * * * * * * * * * * * * * * //

dimensions      [0 0 -1 0 0 0 0];

internalField   nonuniform List<scalar> 
34222
(
654.76524
580.19733
651.38406
556.51288
555.55109
588.62668
588.86731
542.67968
580.73755
527.00423
528.64865
548.30117
545.26973
647.48808
590.46799
562.40263
556.53289
591.22431
543.88266
542.77478
554.56911
555.11631
2308.3207
543.28981
505.56945
520.6662
505.57013
504.88322
519.18505
581.90872
547.40694
528.11243
532.31747
551.9032
520.75854
524.75278
533.68268
531.59337
654.78332
588.14495
560.17632
558.55611
589.13393
566.30841
545.26918
551.53301
556.78673
571.1081
577.87171
577.55382
576.04804
4689.3057
4077.7441
4197.9988
2356.9629
925.98043
937.94315
544.26749
506.09459
520.84697
505.86834
505.60515
521.15969
489.05397
498.51047
498.16716
488.76686
514.73139
505.51931
502.23764
510.38548
947.46989
959.17975
581.13985
529.99989
532.12689
552.08556
548.52786
536.65551
525.87771
525.88355
534.99442
582.38228
572.22297
569.92726
581.65051
553.11616
555.93824
583.73098
584.118
557.40208
546.93478
549.00733
564.64335
587.06981
577.41024
579.06921
579.84838
621.49274
627.43858
620.01234
625.15327
1351.8812
9473.6938
1352.2
4702.3033
9511.3802
7470.4534
13042.546
1933.9695
7838.6158
1982.1717
7976.4994
7817.1523
2003.6754
4284.6605
2026.2568
4181.4784
959.66679
940.42518
2363.5675
862.52572
791.83593
543.39098
799.14413
506.77693
522.24255
506.17578
507.05034
522.10102
866.28561
489.01021
489.32763
498.90913
498.61141
516.85509
508.08092
506.72701
516.48149
490.41908
497.60511
493.95605
486.97269
565.77068
550.98604
551.22294
566.7933
2102.9066
4922.5116
2180.9241
2200.6532
2187.3331
965.63144
946.96254
578.49904
527.50274
530.1336
548.17362
545.62018
530.42886
529.17921
536.97181
537.72757
572.84812
571.73334
573.4926
574.083
643.10932
633.93981
625.6937
638.32712
543.29862
549.09393
555.95438
550.90356
589.97248
601.7373
580.24898
584.28225
628.91288
630.44802
622.00715
630.76
655.83036
656.83725
2097.7979
758.73662
764.98377
2120.684
4709.0549
32757.543
18638.04
4671.315
18788.5
1359.7775
2094.1972
757.75711
763.43483
2126.8144
1371.6676
4649.4869
9465.689
9517.3031
4666.893
4727.8581
18740.482
18945.447
12589.552
13149.438
4344.1437
4287.4649
20961.401
21772.888
8096.3991
7931.8238
4552.6692
13498.375
13722.319
4619.6043
13797.943
13642.062
4605.6582
4657.5188
13051.57
13807.009
4456.1361
4626.846
7900.649
2042.6724
8096.795
2050.9577
4148.544
1969.0212
7722.0527
2012.6017
7970.3746
946.95589
954.57736
4282.7752
5146.6783
4657.9776
1939.7443
4805.4497
1916.6641
4697.12
1998.3752
1990.8679
1471.0075
3447.056
1632.3658
4068.6659
4218.6763
1679.596
1514.004
694.16365
789.61915
856.08086
800.0393
541.05845
520.38332
505.37543
506.55332
506.6384
521.65232
874.76264
1682.336
1523.1124
1689.3088
1514.79
694.82376
490.42839
490.08993
499.44543
499.96652
520.4474
509.32753
513.40291
523.7534
2000.0195
2020.9467
1995.9974
1992.5596
490.7592
492.15281
499.28508
497.88113
566.49318
551.31476
559.83266
572.22815
524.50567
537.27243
533.10857
521.81171
627.85023
606.0195
603.80086
627.22971
4762.3683
4871.2725
8722.9628
8892.1433
5139.148
5098.8837
5167.7049
5142.5881
5141.9183
4966.3543
2199.2283
2216.1691
2133.008
944.41345
2173.5399
954.43473
545.91368
545.32565
526.80333
527.30906
519.73965
524.76489
537.62344
531.23909
584.44706
611.8286
607.66828
579.28839
624.21925
630.96134
637.22529
632.664
570.51128
608.64381
603.65902
573.13733
646.78272
665.92628
623.13691
623.37873
651.37222
653.31239
2274.3725
780.00868
784.9976
2300.225
3662.1705
6877.5043
6832.36
3679.6856
13021.008
18205.336
28814.911
29217.379
48249.951
32439.291
49116.225
13146.476
32908.136
3662.7305
3612.7375
6770.0181
6853.5841
13009.879
13085.994
32946.289
33184.832
2119.4879
759.95082
759.90438
2096.4362
2268.0591
776.8275
784.55192
2311.1269
1380.3974
761.87096
762.26328
2118.1056
2120.741
1359.0243
9405.5737
9457.5112
4726.3465
4732.0556
18613.264
18805.724
4721.391
4668.3212
18723.017
18876.011
3646.4759
3631.7631
6797.1488
6813.4126
3687.1712
3693.8908
6929.135
6844.1037
13006.512
13065.654
32570.211
33197.153
13058.273
13215.655
33316.883
33076.383
20600.011
20248.155
7661.3804
7727.0916
21535.617
21735.492
8071.3083
8030.6643
37752.223
36273.383
11380.26
11524.039
38556.373
38653.455
11696.881
11792.582
21562.398
22415.297
8425.1843
8251.5248
22463.346
22247.909
8496.6366
8418.7042
22293.13
22801.184
8541.5461
8439.7274
22407.75
21760.024
8412.3241
8413.0842
20554.329
21639.612
8136.4221
7934.7859
13195.848
22438.495
22392.339
8505.5393
8392.1136
4534.3665
4584.3184
13728.435
13976.236
13818.054
4663.7717
4702.0682
7607.8224
7840.3075
1988.8345
1967.4809
12933.946
4365.9386
13577.97
4510.5315
13636.07
13659.638
4534.8419
4623.5524
7973.2921
8118.7663
2041.6837
2048.3361
4957.5103
9774.0434
9973.3395
9002.8936
9210.1813
9342.5955
8396.8804
9532.2939
8583.129
4540.2831
5088.7318
4615.4656
9874.9651
9421.4287
10087.046
9651.9498
4621.7089
4560.4334
4741.0638
4646.529
10003.401
9317.5365
10214.465
9541.4793
5373.6926
4899.2413
5331.5692
4835.5708
4869.0591
4961.583
5003.3465
4933.8484
3095.9806
3043.5577
3397.9478
3343.4502
1260.6534
7017.5218
8199.8259
8362.6885
8292.3162
8493.3767
4009.6682
4167.4905
4093.6358
3917.6611
9578.6786
9373.7801
10121.182
9346.7845
9147.3098
8945.4966
9172.316
9655.5707
9231.3992
9871.4369
9467.3774
4358.0113
4420.7007
4185.5638
4223.8459
3226.0125
3239.3832
3545.3434
3587.9226
1283.2422
1147.8295
1492.4508
1498.361
1663.683
1643.0668
690.0743
785.20538
1991.1405
1951.5359
1943.4953
1968.2663
855.27164
1692.5081
1520.716
1524.2988
1694.6347
698.01947
859.17277
505.15259
788.14919
504.55153
519.25265
519.29788
504.65496
511.27761
504.36572
498.80074
490.32147
489.43082
499.74184
506.70832
514.14409
2008.9574
1996.5769
2026.6579
2023.2802
4294.963
4223.0124
4151.2678
4405.7558
3579.8871
3524.7758
3226.7082
3239.2619
1290.8246
4392.3165
4260.1314
4222.8916
4448.6446
3622.0173
3577.4411
3248.9867
3276.9079
1286.4211
1154.7077
1139.5676
495.12489
493.96522
500.10034
501.95475
606.55346
557.73478
576.62925
586.16541
5365.9052
5194.2411
4708.6518
4887.7512
4871.951
5393.7227
5363.989
4927.6231
4901.1808
4996.5967
5033.7732
4957.6198
4758.0686
5002.1162
4874.8397
4918.465
528.41172
524.29916
536.12605
543.39529
626.06333
608.48915
626.17153
640.27615
567.81624
582.22734
570.19702
552.35194
8439.0765
8468.6868
8837.4965
8864.6762
12021.179
12214.938
12466.092
12394.769
9235.3196
9312.2113
9049.9529
9249.8756
9246.0238
9201.8903
9261.3316
9365.7354
9192.6977
9304.4811
5016.2956
8684.225
8914.702
5104.6199
5198.6023
5172.1835
2111.8105
4845.0578
4998.5005
2139.7176
5031.177
5110.7442
2206.9436
2208.2408
523.70062
526.58777
517.29158
515.41443
546.31344
578.51394
595.53919
560.88482
636.68056
671.35539
673.73838
627.66332
621.30031
663.10485
659.95391
626.61458
651.9092
651.20146
2353.8992
4113.1098
4171.2935
772.35484
778.31034
2378.6312
4171.8329
4183.8235
7566.3318
7506.7658
15602.212
12504.566
12523.791
18372.142
18200.829
18656.294
18827.506
23040.936
22782.074
26685.101
26983.538
40734.337
28379.921
41497.4
27191.581
27079.541
41872.039
41365.959
64644.644
47732.983
53226.446
54175.241
65108.208
29152.466
48213.226
65237.773
65719.678
54629.583
54638.703
12533.969
12705.523
18318.239
18505.942
29006.528
48888.604
29056.586
48697.878
7440.5408
7540.5484
18124.742
18386.307
12569.133
12364.538
12546.613
12597.6
18298.573
18403.425
28618.545
28951.969
48553.378
49267.996
29277.607
49309.38
28642.273
48912.879
2299.0777
781.79893
778.01414
2272.4436
2348.5928
4140.8094
4150.5183
768.63748
778.09098
2389.3099
4218.7729
4178.4681
2102.8316
758.52487
764.87227
2135.6264
782.58997
782.3036
2291.6072
2300.5379
2064.5728
757.64099
758.74547
2099.4543
4632.421
4703.1888
18648.984
18791.462
4781.988
18633.215
18635.464
4722.2092
3688.3942
3671.9316
6850.7497
6878.4743
6918.2267
3685.9006
3669.8751
6812.3659
13115.941
13132.41
32272.268
32853.275
13055.492
32963.869
13236.024
32796.11
6836.594
3656.1245
3700.9315
6908.7765
6777.3505
3606.4373
3661.2924
6814.5718
13005.066
33028.543
13069.437
32582.99
13123.855
13162.229
32975.964
33228.574
7474.0046
7491.9438
7625.5842
7521.2479
12377.437
12560.441
18138.391
18375.999
12518.633
12541.288
18403.749
18279.285
28485.025
28885.601
47682.854
48810.469
29135.252
28563.103
49367.678
49141.468
12534.485
12533.832
18212.625
18396.111
12744.746
12609.392
18379.475
18523.187
29124.109
29166.641
49170.516
49599.505
29134.028
49350.801
28446.92
48749.61
36799.512
36613.848
11150.615
11190.245
35236.684
35801.821
11025.637
11108.505
11619.004
37676.711
38846.587
11741.713
38040.024
39145.186
11767.654
11727.991
39933.308
38383.347
40761.717
40863.213
11741.679
37115.003
38745.891
11918.871
12137.202
39845.875
39428.399
12200.987
12156.199
39536.877
40152.809
12256.406
12210.796
39693.323
38627.731
12178.76
39876.574
38890.906
12095.634
12205.823
40130.212
40619.885
12322.875
12364.958
39940.236
39668.304
12136.739
12190.765
11936.994
38786.845
37485.97
11931.074
36749.325
35198.121
20730.595
11230.972
11371.359
38236.364
38144.338
11632.327
11750.454
8075.9467
21649.257
8132.5959
40259.653
39341.688
12063.041
12180.896
38999.779
39909.722
12146.813
12161.759
22157.628
22499.632
8462.9726
8393.6611
22686.396
22389.654
8581.3203
8523.367
21961.628
22652.464
8537.9969
8418.0083
13138.835
4361.911
12801.25
4360.3843
13755.881
4574.8681
13191.28
4446.5969
7790.4536
20287.043
21352.141
8000.0776
21951.162
21890.969
8192.1684
8300.0281
21912.643
22326.351
8294.6992
8367.2099
8316.7315
22154.38
21775.162
8383.2744
4567.6297
13357.594
13924.848
4683.0733
14146.458
13763.26
4723.838
4676.9321
9420.17
8690.6066
9435.8731
8753.5236
13695.868
13008.553
13151.435
13833.903
14025.153
13316.156
14198.217
13498.844
12565.84
13270.338
12442.064
13394.747
13744.616
12894.519
13579.073
12722.554
9053.9716
12654.499
11985.055
12083.617
12755.433
8194.6215
12193.05
11493.827
11624.232
12278.188
12931.314
13082.287
12244.146
12390.471
12450.132
12577.764
11783.461
11894.925
9025.8078
8127.7451
9898.0267
9116.4317
9978.5948
9211.0327
9471.0078
8506.8165
9523.4896
8572.2834
9532.4024
14862.925
15030.671
14292.567
14491.482
15016.633
9142.2678
14341.465
14829.522
14128.213
14891.038
15207.489
14623.809
15466.673
15177.995
14463.918
14720.385
15414.799
9506.0408
9070.0262
9628.9461
9648.2758
8975.497
9041.8025
9946.9247
10119.638
9502.7857
9677.6019
10106.351
9425.2353
10231.495
9556.8846
14599.492
13954.403
14168.801
14802.124
13602.524
14308.624
13433.726
14515.566
14542.514
14956.608
14301.547
15189.412
14674.185
13758.377
13964.756
14889.017
10365.316
9556.9659
10509.23
9714.935
9906.6226
10023.399
8904.1781
9029.7932
10145.399
9360.2488
10442.779
9630.5392
9705.1274
8728.7251
9953.3719
8947.7257
10359.377
9677.4879
10707.717
10000.546
10180.081
9749.8955
10577.5
10121.437
10442.887
9981.0557
10620.503
10187.585
10594.257
9888.7341
10760.301
10080.03
6991.5759
7234.0221
2687.1644
5911.5197
6099.9738
6699.0711
6803.603
2667.6355
5718.7492
5632.3993
8168.2305
8427.6216
8280.5507
8560.6449
7843.4508
7924.7003
7954.367
8066.2337
2546.1954
19798.245
19860.247
17925.707
18113.838
19095.844
18281.457
16597.302
16801.2
18416.881
18860.521
17089.942
17358.882
19020.866
17024.879
15645.648
15858.228
17193.831
17527.631
16076.861
16371.876
17754.727
9140.4399
8963.9993
9405.2045
9229.7058
9691.0464
9919.9965
9287.1248
9510.3664
9291.5635
9335.4446
8888.8695
8976.2152
8782.4214
8601.3546
8850.2095
8701.1923
17171.667
16242.321
16155.677
17225.231
16705.769
15749.162
16738.394
15813.948
15644.095
16289.224
15590.164
16304.747
16787.514
16530.336
15820.514
15519.422
16268.367
16090.889
15131.664
15338.194
15807.543
14932.801
15632.007
14733.07
16028.744
15087.523
15398.316
16300.52
15223.928
15391.941
14568.554
14761.466
15266.085
14539.163
15095.611
14342.818
15214.643
15587.859
14910.018
15869.14
15451.522
14674.235
14972.282
15730.514
9902.226
10350.219
9509.7517
9929.2989
10196.106
9770.8099
10387.32
9991.8809
9315.8182
9159.6227
9792.2749
9618.5659
9620.3763
9447.9814
9677.4618
9809.1315
7118.499
7531.143
2801.0304
6031.0272
6371.1446
7359.7643
7560.8399
2811.3988
6230.4731
6419.8592
8304.5054
8438.1729
8766.1583
8904.5906
8585.2297
8721.3277
8766.3986
8938.6107
2656.6536
2641.8034
2326.5734
2151.0363
2128.834
2315.0273
1477.4693
3152.511
3154.0855
3436.9351
1269.5971
3471.4429
3183.3733
3495.3326
3562.9039
3233.1387
1275.0781
4286.7715
4195.8247
4119.8853
4377.8764
4100.6745
4271.6856
1632.3009
4184.7004
4044.8102
1136.785
1142.7486
688.94545
1634.9385
1473.6817
4767.7952
5330.1249
5244.0117
4864.249
5215.616
4745.3519
5069.4802
1940.5239
4596.0109
4858.3514
4773.0967
1920.0257
4642.2297
4752.1875
4792.4731
4876.6742
4966.1079
4890.6914
1956.386
1938.2354
4444.0304
4253.9344
4272.0964
4444.6879
3607.6771
3617.1189
3286.3015
3263.1749
1285.9217
3232.2486
3267.4006
3579.0873
1299.5832
3544.6917
4155.4759
4377.8256
4211.925
4334.4241
1142.5101
1154.4031
1986.2298
1992.9585
2015.2588
2018.7729
498.28264
498.0579
488.89599
489.22077
1666.0497
1480.8793
502.27114
508.73001
508.40893
501.63598
536.90899
532.8896
498.26992
494.83432
492.07913
501.09651
539.19257
552.86634
4950.7239
5052.597
5041.8727
4967.8397
4896.6925
4974.1255
4877.2013
4819.738
5419.6514
5410.7261
4910.3074
4946.7213
4843.0454
5330.3602
5235.8001
4787.6777
9761.1195
9313.3146
10080.635
9636.1338
9676.4349
9790.4825
9480.5078
9638.7376
9272.5513
9060.1458
9568.1762
9369.5092
10233.959
9789.7248
10373.066
9967.5597
8656.4682
8768.6458
8742.6684
8899.7986
8329.0278
8418.2617
8572.0831
8692.3414
7135.3658
7334.8708
2812.046
6032.3258
6171.3108
7414.1581
7511.1988
2804.6189
6348.5322
6271.6704
2687.8506
2637.2047
10252.966
10466.799
9822.0031
10041.416
9863.1832
9720.0979
9640.9445
9566.6433
9677.3094
9493.1534
9892.6567
9722.1694
10393.026
10272.438
9920.3035
9871.0851
8840.7823
8947.2827
8689.0395
8853.2865
8667.1623
8780.1576
8852.7234
8995.812
7444.2759
7608.6054
2811.557
6328.2692
6442.9062
7572.562
7474.7024
2845.9247
6413.6991
6326.4779
2648.9261
2675.8201
2363.0812
2198.9354
2127.8924
2308.3177
2152.7499
2126.9559
2312.0951
2342.4416
1914.1635
535.35929
522.03817
528.63677
543.34322
651.84582
593.53713
619.17879
637.65378
10346.66
10494.863
9526.1899
9688.4025
9743.6009
8978.6124
10049.935
9260.4137
9302.4462
8376.0994
9574.7395
8613.8692
9868.6608
8864.1987
10006.469
9007.6669
9939.1075
10066.219
8929.8011
9055.079
10430.891
10359.347
9598.9445
9587.6152
10406.85
9585.9832
10557.611
9738.573
9942.5408
9893.6204
8926.0643
8927.5565
10648.28
9927.7342
10823.186
10107.061
10502.384
10029.762
10698.787
10230.021
10590.952
10088.165
10492.395
10054.833
10697.21
10613.104
9956.4432
9934.3674
10011.55
9310.6547
10335.758
9625.3083
10467.097
9988.4125
10619.705
10171.425
9459.1038
9932.3806
10257.705
9781.8775
10599.433
9872.2808
10755.319
10051.882
568.0121
559.26797
586.5097
597.39889
11815.67
11850.99
11701.108
11662.684
12313.982
12464.718
12503.853
12403.785
12878.874
13003.758
12972.179
12869.877
12416.134
12634.084
12879.031
12909.223
12854.85
12920.703
12642.791
12575.202
12797.628
12926.968
13061.865
13067.075
12756.377
12894.277
12862.429
12826.649
8919.3303
8811.791
11853.701
12017.827
12299.774
12399.184
9176.4381
9253.3989
9347.215
9306.7565
9317.8276
9191.8878
4827.8518
4815.3685
8497.006
8745.6648
8932.1757
9051.3283
5055.6039
4914.5887
9056.5767
9131.0032
9091.0765
9138.3356
5199.2958
5086.1616
5186.0446
5243.6985
556.85759
574.75593
559.8277
545.71405
584.24961
625.43343
649.88414
605.2073
651.55112
648.41026
4171.1701
4095.3804
2333.0953
4824.2926
4751.7456
4172.4728
4170.9144
2355.4434
4844.2479
4815.1406
8181.51
6356.0077
6344.1781
10470.623
10532.805
15707.995
15982.927
6322.7176
6276.2122
10434.287
10359.002
15755.946
15670.75
11322.143
16561.203
20915.416
21273.54
19007.332
18899.499
23091.837
23220.046
18695.129
18748.692
22898.454
22809.994
25098.674
24755.394
26656.438
28757.78
29139.527
57471.251
40189.389
26804.588
40252.66
58803.016
29328.74
29158.662
59062.065
58188.584
98231.568
64175.386
64330.153
53086.75
52900.506
58334.673
59002.076
98383.153
40715.617
26996.9
27109.766
40634.753
53529.479
64648.346
64619.389
53757.622
98559.952
98573.265
59346.346
59195.879
22882.485
18769.874
23133.358
18941.901
19041.574
19126.983
23225.735
23244.378
27128.074
27061.136
40941.642
40641.976
64628.376
64974.507
54847.95
54428.358
40305.704
26750.128
40822.273
27023.399
53829.867
64405.186
54626.504
64808.555
6245.3305
6216.6719
10277.786
10388.429
15842.979
15502.055
6360.0971
6286.8463
10459.071
10444.779
15773.487
15799.329
22670.678
18556.758
18734.817
22934.889
23109.633
18908.979
23113.825
19008.134
18791.133
22967.703
22908.399
18864.626
19039.517
18920.744
23086.761
23227.966
39683.19
26532.647
26809.934
40302.467
40758.679
26995.34
26947.34
40455.548
53599.29
64181.161
64644.466
54671.296
55023.574
65164.72
64748.766
55051.209
26961.65
27080.448
40702.007
40651.658
55029.827
64859.073
65017.188
55257.093
40368.539
26838.376
26705.593
39904.149
54728.54
64725.347
64065.02
54456.573
2377.9668
4215.733
4158.2221
774.58413
770.9196
2352.2039
4110.135
4159.5913
4144.2127
4123.944
4801.5251
4792.5566
4178.8879
4209.7765
4891.1509
4819.4207
2272.8278
777.93
784.52333
2312.247
774.9909
773.00027
2369.6022
4177.9163
4196.0131
2378.8322
4158.168
4209.2884
2226.5309
775.9553
778.59207
2272.9754
3589.5106
3580.7609
6730.3672
6748.3098
3657.9141
3634.8407
6823.1319
6826.0646
13113.969
13082.812
32675.191
33053.352
13195.766
13124.977
33136.523
32904.724
3704.6603
3709.6191
6886.0358
6943.7564
13149.146
13167.564
32513.422
32828.793
13280.637
13163.492
32645.701
32302.383
3659.8012
3646.6335
6851.1776
6831.5023
7526.2602
7561.3888
7611.738
7479.8064
12460.154
12601.48
18219.593
18431.246
12575.205
12581.331
18423.609
18302.777
28543.427
47337.955
28833.281
48318.359
28621.988
29050.961
48851.431
48700.209
12484.247
12476.327
18333.347
18186.776
28952.332
29015.113
48683.331
49126.81
12708.758
12600.098
18359.022
18501.313
28898.05
28287.272
48935.895
48537.711
7507.5511
7600.2033
7450.3489
7492.3733
12465.733
12470.295
18149.228
18324.734
28629.24
48907.251
49320.324
28759.96
12588.644
12408.076
18228.9
18432.202
28823.793
48739.701
28134.798
47867.456
12629.673
12456.372
18224.143
18445.793
12624.007
12616.404
18453.007
18314.066
28738.58
28957.86
49265.302
48516.964
49444.595
49129.766
29175.29
28482.947
6291.9751
6270.8023
10419.929
10323.908
15502.959
15806.939
6304.3773
6253.1275
10357.098
10415.434
15779.176
15702.401
6412.7756
6402.8787
10602.756
10557.012
15796.431
16012.999
6329.5138
6294.5162
10463.664
15795.761
10368.705
15677.041
18736.333
18541.225
22670.823
22965.98
23076.61
18863.182
18978.727
23110.41
23101.229
18913.071
23240.416
19032.709
18741.513
18831.429
22919.96
22945.302
39280.024
26565.525
26885.185
40081.932
40627.946
27006.776
26983.083
40343.412
52408.993
63898.434
64625.215
53574.9
65023.251
65436.893
54329.699
54619.299
40458.197
27010.25
27112.715
40287.726
26832.722
26755.6
39791.121
39787.803
55020.132
65244.398
65143.258
55527.019
55276.355
64774.265
64620.981
54973.646
18706.522
18755.919
22792.972
22898.118
19035.126
18920.993
23095.85
23231.582
22933.076
18832.456
18998.903
23176.834
23225.709
19048.638
19134.566
23210.251
40249.819
26805.201
27056.719
40707.054
41115.832
27122.33
27029.212
40447.724
54746.271
64892.659
65238.443
55348.44
64994.996
65734.37
55578.379
55520.321
27084.172
26976.62
40261.86
40421.093
55264.352
64828.843
65142.419
55429.284
40117.219
26779.605
26577.51
39423.197
63987.156
64945.708
54748.148
54186.313
38923.222
38792.818
37222.757
37923.158
39920.471
41099.077
40208.866
41420.906
72811.505
34827.543
70676.387
33449.601
73515.285
35706.626
73878.602
35727.177
39331.984
40963.151
42192.501
41696.137
41804.212
42433.561
42076.407
40831.14
42114.81
41144.254
42365.038
42924.738
42258.89
41936.731
41087.849
39620.851
38793.312
35542.354
37236.126
36867.738
11405.255
11397.137
40354.345
40328.63
38368.81
38486.945
11727.596
11731.574
42511.333
41591.696
41193.974
42227.9
39617.8
38503.019
11990.249
12090.224
39390.444
40249.162
12184.015
12149.179
39976.331
40381.463
12311.283
12241.818
38800.455
39787.71
12191.344
12179.542
39041.643
37921.839
11957.164
12063.619
39752.148
40109.397
12213.859
12256.563
7947.1218
21138.743
21449.062
8017.9849
20781.52
20276.176
7786.4902
7827.1761
22368.134
22121.034
8342.4027
8427.9977
20799.674
21699.82
7965.9786
8150.2489
36241.532
34762.565
11051.016
11194.587
11465.049
37685.45
37614.805
11549.319
39268.948
38493.816
11755.299
11858.657
38153.837
38952.044
11826.464
11852.412
38937.479
38269.295
11880.119
11943.911
39283.362
39611.789
12021.424
12068.231
39496.067
39013.04
11936.296
11995.544
37625.589
38637.506
11857.11
11876.024
8168.5433
21025.425
22048.744
8361.4461
22387.116
22497.739
8625.3378
8466.0997
22736.781
23041.826
8740.6809
8693.3591
22623.679
21732.094
8457.9206
8531.1393
12741.149
13391.884
12728.399
13369.139
13016.317
12191.325
12200.537
12997.755
13257.536
12668.001
13125.637
12517.533
12795.072
12016.82
12924.872
12162.694
38365.071
38074.351
39275.865
39552.229
40347.354
40108.972
40659.53
40377.728
37924.334
37577.404
36686.205
38804.627
39881.147
38968.59
39644.929
38780.327
12357.024
11728.875
12232.829
11599.44
35610.839
34320.849
35585.527
36873.258
11152.647
11801.73
11915.436
11258.64
33378.149
34677.751
37714.245
37866.481
36435.435
36529.386
35532.37
35583.866
11748.145
12418.038
11746.012
12395.725
11281.42
11963.655
11943.203
11310.348
13434.67
14016.382
13307.219
14137.527
13586.178
13688.467
12725.003
12829.076
13494.098
14228.593
13484.039
14185.391
12857.639
13750.894
13728.666
12879.438
12332.876
12948.415
12254.436
13024.591
12474.546
12533.418
11766.262
11871.265
13054.316
12365.543
13065.842
12348.667
11881.225
12562.024
12540.393
11867.99
14311.82
14145.051
13611.902
13807.546
34616.064
35428.879
35256.93
36111.505
36798.969
14261.261
13447.34
14103.096
13632.544
37505.413
35902.296
36567.618
37169.529
36234.551
36911.308
36489.826
37593.974
38303.967
38579.712
37859.625
14491.189
13914.038
13918.922
14460.529
13746.487
14447.495
14406.959
13753.397
13584.065
14206.277
14180.916
13556.978
14014.879
13444.837
13868.011
13269.515
13080.27
13101.022
13914.135
13922.313
13596.701
12823.283
13749.869
12997.79
15157.5
14588.227
14776.187
15323.855
15539.898
14925.252
14941.071
15511.575
14442.196
15156.026
15318.44
14633.199
14742.385
15491.732
15441.769
14753.606
14484.676
14944.917
14285.723
15117.45
14664.953
14856.799
13739.574
13913.171
15199.449
14564.528
15246.739
14564.219
13961.738
14948.92
14894.078
13978.467
37222.179
37718.428
38747.947
38207.224
39473.138
38135.991
38337.014
39204.365
39865.344
39007.199
39557.581
39303.931
40014.137
40271.894
40595.914
40336.028
14053.811
14714.108
13948.665
14807.112
14211.181
13300.064
13394.979
14296.576
14846.534
14112.609
14894.402
14106.568
14357.351
13428.546
14333.921
13452.041
12856.709
13508.517
12780.604
13580.566
13617.074
13625.759
12884.894
12904.763
12992.169
12283.932
13057.834
12383.813
13068.777
12373.92
12360.638
13088.766
14200.576
14368.395
13489.725
13655.302
13901.317
13040.489
13749.889
12898.003
14101.85
14743.373
13972.913
14847.366
14227.452
14334.846
13308.783
13432.249
13105.503
12417.208
13230.187
12534.109
12729.44
12059.205
12622.227
11913.086
13606.797
12880.249
13507.915
12776.784
12979.721
12277.811
12350.424
13057.915
15158.252
15371.196
14502.919
14740.185
15110.505
14147.181
14871.737
13949.687
15956.148
15277.068
15818.833
15118.23
15503.236
15627.092
14488.816
14633.487
15351.194
15550.05
14788.101
15003.497
15560.986
14882.063
15356.998
14659.156
15676.174
16120.706
15490.849
16273.081
16070.446
16219.974
15301.479
15481.505
15493.476
15975.668
15359.234
16067.45
15945.185
15191.897
15334.647
16055.119
15609.827
16194.969
15586.193
16176.229
16179.076
15426.394
16135.156
15439.79
15174.443
15711.528
15017.978
15831.718
14437.678
15416.885
15569.777
14587.189
15906.717
15264.076
15952.396
15262.548
14645.673
15668.776
15611.087
14660.77
19756.612
19849.296
17943.663
18187.708
18814.696
18930.214
20732.958
20676.538
5269.6533
5237.7779
5457.052
5420.7511
19018.412
19879.47
19398.705
19418.511
17558.298
17701.032
17406.671
17622.419
19302.94
19336.026
5029.4451
5048.7798
18597.378
18625.694
18286.349
16636.407
16913.498
18488.529
19165.308
17403.401
17542.216
19186.294
16014.139
17066.646
15720.353
17318.126
16541.908
17848.439
16400.963
17907.519
17894.174
16213.157
16356.559
17965.859
17703.075
16013.714
16269.777
17853.462
15412.016
16640.526
15273.069
16729.338
16398.985
15040.352
15314.94
16603.903
4786.7237
4744.8482
4960.432
4897.3871
26164.313
26650.751
26363.942
26784.777
32710.118
26745.894
27733.867
34037.936
26856.095
27481.009
27989.086
27318.344
28023.548
28694.643
28841.687
28158.72
28149.636
28790.586
29362.09
28698.006
29408.282
30093.775
30246.113
29559.448
16182.785
16443.634
15255.258
15536.545
15784.476
16028.263
14908.913
15163.131
16866.596
15851.534
15969.875
16929.312
15421.402
15516.468
16377.4
16420.167
15020.229
15431.856
14798.652
15643.264
15937.392
15241.364
15307.099
15959.822
15361.93
14611.195
15550.229
14818.5
14996.921
15042.998
15802.239
15799.116
14858.66
14202.404
14253.291
14875.667
14727.151
14536.233
13906.837
14133.9
14734.829
13978.909
14008.168
14730.742
14577.093
14392.367
13676.61
13893.592
15716.377
14756.274
15798.621
14868.683
15313.867
15259.036
14363.806
14445.37
14763.065
15438.712
14495.658
15663.549
14085.306
14951.413
15170.328
14334.012
31644.001
32499.458
32368.792
31814.211
33115.325
33824.467
33213.635
33905.498
35325.699
34544.039
35248.971
34620.854
30932.555
30784.133
31610.593
31462.956
30033.349
29442.301
30087.85
30692.424
31378.596
32032.644
30757.008
31393.82
32162.115
32829.879
32996.075
32318.002
32040.793
32705.977
32674.123
33368.657
34065.418
34726.064
33333.294
33956.342
34382.443
33509.517
34178.844
33695.29
34874.845
35535.429
35778.356
35102.545
15601.061
14976.182
15222.383
15837.548
16684.542
16520.469
15809.086
16012.293
15029.41
15543.064
14802.819
15765.046
16553.829
15561.342
16389.666
15758.371
16304.689
16418.641
15627.29
15770.148
16317.109
15414.012
16213.88
15547.405
15924.325
16524.575
15849.683
16561.126
16435.712
15632.748
15684.35
16436.989
15692.072
16324.201
15398.855
16598.908
15929.161
16198.172
15067.413
15337.574
16638.025
17454.876
16409.004
17629.446
15976.889
16953.492
17132.522
16191.139
16158.284
17154.816
17280.682
16327.351
16833.936
15928.749
16700.715
15765.101
16100.833
16918.764
16969.789
15986.637
17388.126
16366.7
17336.308
16486.587
19935.925
20041.107
18081.382
18318.727
19475.443
19654.448
21510.38
21512.562
5396.0488
5378.8484
5670.5762
5702.4211
19246.34
20712.044
20868.043
20883.444
18972.032
19115.789
19024.259
19147.751
20834.789
20790.854
5562.1571
5513.6831
5662.2589
5740.2023
20054.671
19972.159
17038.668
18426.28
16764.45
18634.119
17195.422
17459.809
15852.777
16151.555
18217.987
19827.401
17997.996
19938.444
16965.034
18452.988
18620.636
17197.381
17776.373
19340.308
17608.789
19425.731
16662.137
18075.595
18201.587
16837.715
17869.719
19403.255
17728.373
19430.906
16833.559
18207.2
18266.313
16967.423
4943.2035
4933.8271
5169.3445
5201.3956
5113.0917
4998.2314
5047.3322
5188.0412
4529.7004
4489.068
4662.4615
4734.4229
4073.4667
3956.8649
4050.0941
4210.5576
3989.7669
3934.5049
4072.1212
4153.8849
4570.5973
4495.7829
4586.9691
4683.2519
3091.5854
3118.1477
3380.7022
3406.4435
1263.8328
7186.4594
7244.0116
2734.8556
6095.75
6031.6765
6875.6866
7191.9228
2752.8569
6046.879
5806.1478
8024.6345
8413.6476
8124.111
8518.5336
2639.6557
2591.3778
8412.9461
8459.6092
8529.5528
8609.1212
7222.0256
7320.9194
2767.1103
6185.5631
6119.8471
8412.7008
8534.6928
8533.8839
8667.2217
8620.785
8733.1634
8601.0532
8752.5687
7383.5561
7381.764
2810.8547
6237.9702
6232.0008
2620.0778
2653.2714
9968.2775
9559.181
10100.258
9693.191
9625.7578
9629.4988
9422.4737
9468.7177
9407.1081
9234.3823
9543.1569
9372.7606
10159.385
9715.3367
10187.685
9785.6771
9413.7174
9220.1926
9487.3081
9329.7862
9949.6897
9514.6165
10052.259
9651.3646
4127.5633
3976.7201
3995.0625
4152.3305
9440.2749
9024.0312
9887.4792
9440.3583
8950.4921
8760.8333
9386.531
9179.6659
2122.5561
2144.7915
2325.7748
2297.3765
2327.5916
2111.6272
2275.9424
1133.5693
1122.0519
1251.7693
4167.6472
4002.4681
4115.9031
4299.8902
3094.7044
3146.7027
3394.3259
3482.1839
9709.5189
8732.3984
9795.7307
8818.3628
10237.264
10290.729
9431.863
9513.5163
10157.269
9366.5781
10252.377
9466.9767
9765.2842
8776.5772
9824.9433
8853.9454
10051.664
9257.3911
10200.302
9413.6129
9587.7935
8613.4796
9731.5245
8754.5878
9501.151
8768.7963
9870.0579
9084.6934
5019.8925
5026.5013
4577.4689
4586.9685
9088.3697
8190.9768
9398.871
8443.3512
10171.441
9708.5663
10297.269
9861.5717
10300.554
9594.6225
10442.657
9756.9971
4695.5096
4687.4633
4597.6683
4613.6129
9738.2325
9076.8435
10149.696
9444.0342
9629.7993
9193.3206
10063.046
9592.2911
10380.01
9692.1676
10485.784
9802.456
10221.286
9776.9768
10340.61
9897.9995
10419.236
10374.763
9899.7101
9978.3461
10493.791
10543.344
9776.8767
9857.383
5269.3335
5111.9555
4659.5011
4805.2271
4668.6277
4742.8498
4888.9321
4820.4759
10277.006
9845.4701
10486.007
10045.477
9819.9583
9773.8104
9623.0652
9633.6185
9701.533
9522.8264
9928.8269
9742.574
10375.029
10363.357
9926.29
9969.8456
8791.6897
8909.3004
8720.62
8886.1687
8686.4069
8802.18
8895.228
9024.1891
7464.7732
7634.7183
6347.1669
2843.1884