/*--------------------------------*- C++ -*----------------------------------*\
  =========                 |
  \\      /  F ield         | OpenFOAM: The Open Source CFD Toolbox
   \\    /   O peration     | Website:  https://openfoam.org
    \\  /    A nd           | Version:  7
     \\/     M anipulation  |
\*---------------------------------------------------------------------------*/
FoamFile
{
    version     2.0;
    format      ascii;
    class       volScalarField;
    location    "2000";
    object      p;
}
// * * * * * * * * * * * * * * * * * * * * * * * * * * * * * * * * * * * * * //

dimensions      [0 2 -2 0 0 0 0];

internalField   nonuniform List<scalar> 
34222
(
-1.5034318e+183
-1.4125955e+183
-1.4894508e+183
-1.4671694e+183
-1.4751572e+183
-1.5218767e+183
-1.5127216e+183
-1.3190578e+183
-1.4007299e+183
-1.3845848e+183
-1.3785925e+183
-1.4238082e+183
-1.4308217e+183
-1.4806438e+183
-1.5010005e+183
-1.4610925e+183
-1.4558621e+183
-1.5060243e+183
-1.4659216e+183
-1.4737911e+183
-1.5199877e+183
-1.5109528e+183
-1.4986948e+183
-1.3083965e+183
-1.2268366e+183
-1.3349275e+183
-1.2895966e+183
-1.2951747e+183
-1.3405127e+183
-1.3902447e+183
-1.4131024e+183
-1.3681093e+183
-1.3731359e+183
-1.4181819e+183
-1.3829898e+183
-1.3771085e+183
-1.4211503e+183
-1.4280925e+183
-1.4692821e+183
-1.4929622e+183
-1.4461963e+183
-1.4516069e+183
-1.497574e+183
-1.4988558e+183
-1.4598613e+183
-1.4547729e+183
-1.5040363e+183
-1.4660607e+183
-1.4738697e+183
-1.5204726e+183
-1.5114673e+183
-1.5096852e+183
-1.4613328e+183
-1.4561307e+183
-1.4882875e+183
-1.4375355e+183
-1.4320726e+183
-1.2985274e+183
-1.2172694e+183
-1.324553e+183
-1.279277e+183
-1.2843531e+183
-1.3295751e+183
-1.2025282e+183
-1.2464519e+183
-1.2519267e+183
-1.2076844e+183
-1.3328803e+183
-1.2890926e+183
-1.2946958e+183
-1.3384043e+183
-1.387179e+183
-1.3817851e+183
-1.3797258e+183
-1.3632652e+183
-1.3581485e+183
-1.4029331e+183
-1.4083207e+183
-1.4108053e+183
-1.3670846e+183
-1.3718258e+183
-1.4156822e+183
-1.382707e+183
-1.3768894e+183
-1.4210324e+183
-1.4278736e+183
-1.4348729e+183
-1.4411755e+183
-1.4876604e+183
-1.4809378e+183
-1.4910502e+183
-1.4453982e+183
-1.4505566e+183
-1.4954002e+183
-1.49914e+183
-1.4599367e+183
-1.4548454e+183
-1.5044057e+183
-1.4660891e+183
-1.4738942e+183
-1.5205467e+183
-1.5115406e+183
-1.4707912e+183
-1.4717349e+183
-1.465282e+183
-1.49991e+183
-1.4665024e+183
-1.4416977e+183
-1.4310188e+183
-1.4235581e+183
-1.439234e+183
-1.4209767e+183
-1.4368881e+183
-1.4343365e+183
-1.4158946e+183
-1.4511183e+183
-1.418573e+183
-1.4446838e+183
-1.4267306e+183
-1.4206367e+183
-1.4743165e+183
-1.3381146e+183
-1.289531e+183
-1.2893052e+183
-1.2847051e+183
-1.2083115e+183
-1.3148672e+183
-1.2699048e+183
-1.2746683e+183
-1.3197399e+183
-1.3329601e+183
-1.1979253e+183
-1.1930372e+183
-1.2364449e+183
-1.2414774e+183
-1.3226762e+183
-1.2786663e+183
-1.2837376e+183
-1.3275929e+183
-1.2033593e+183
-1.2455788e+183
-1.2511789e+183
-1.2085443e+183
-1.3326069e+183
-1.2889296e+183
-1.2946422e+183
-1.3381521e+183
-1.392319e+183
-1.3985449e+183
-1.3894087e+183
-1.3870517e+183
-1.3846442e+183
-1.3767854e+183
-1.3713243e+183
-1.3696108e+183
-1.3483965e+183
-1.3533793e+183
-1.3979341e+183
-1.392265e+183
-1.3623014e+183
-1.3572847e+183
-1.4009086e+183
-1.4061829e+183
-1.4107233e+183
-1.3670141e+183
-1.3716684e+183
-1.4155497e+183
-1.3826857e+183
-1.3768699e+183
-1.4210273e+183
-1.4278611e+183
-1.4341269e+183
-1.4402611e+183
-1.4858185e+183
-1.4792029e+183
-1.4914175e+183
-1.4455707e+183
-1.4506048e+183
-1.4956433e+183
-1.499195e+183
-1.4599595e+183
-1.4548674e+183
-1.504467e+183
-1.4570937e+183
-1.4628139e+183
-1.4451362e+183
-1.4381373e+183
-1.4407763e+183
-1.447789e+183
-1.4519419e+183
-1.4379936e+183
-1.4502473e+183
-1.449338e+183
-1.4477739e+183
-1.4604295e+183
-1.4398528e+183
-1.4328397e+183
-1.4357022e+183
-1.4427126e+183
-1.4540987e+183
-1.4858787e+183
-1.455334e+183
-1.4616454e+183
-1.4442237e+183
-1.4469837e+183
-1.4428188e+183
-1.4454224e+183
-1.4298662e+183
-1.4286426e+183
-1.4156378e+183
-1.4169427e+183
-1.4227335e+183
-1.4233146e+183
-1.4147926e+183
-1.4142287e+183
-1.4129516e+183
-1.4260601e+183
-1.4273776e+183
-1.4143161e+183
-1.4237969e+183
-1.4249424e+183
-1.4106694e+183
-1.4118441e+183
-1.4215673e+183
-1.4227059e+183
-1.408428e+183
-1.4095722e+183
-1.4320653e+183
-1.4134949e+183
-1.4292637e+183
-1.4106069e+183
-1.4385587e+183
-1.4049022e+183
-1.4232233e+183
-1.4078652e+183
-1.4264211e+183
-1.4151449e+183
-1.4085932e+183
-1.4310832e+183
-1.362768e+183
-1.380468e+183
-1.3633302e+183
-1.3349526e+183
-1.3349909e+183
-1.3484043e+183
-1.3604601e+183
-1.3323096e+183
-1.2901445e+183
-1.3019282e+183
-1.3121307e+183
-1.3118044e+183
-1.3232919e+183
-1.3097558e+183
-1.287739e+183
-1.2448051e+183
-1.2753728e+183
-1.3230484e+183
-1.2803345e+183
-1.280717e+183
-1.3061522e+183
-1.2620389e+183
-1.2000688e+183
-1.2659898e+183
-1.3104584e+183
-1.3282304e+183
-1.305117e+183
-1.2831928e+183
-1.3075154e+183
-1.28546e+183
-1.2400237e+183
-1.1886387e+183
-1.1847009e+183
-1.2275298e+183
-1.2319476e+183
-1.3130523e+183
-1.2692653e+183
-1.274009e+183
-1.317921e+183
-1.3556997e+183
-1.3580845e+183
-1.3299275e+183
-1.3274858e+183
-1.1984973e+183
-1.1935488e+183
-1.2352729e+183
-1.2403855e+183
-1.3225445e+183
-1.2784884e+183
-1.2835254e+183
-1.3273733e+183
-1.2036284e+183
-1.2456224e+183
-1.251331e+183
-1.2088122e+183
-1.332585e+183
-1.2889229e+183
-1.2946395e+183
-1.3381371e+183
-1.3974044e+183
-1.3958703e+183
-1.4019707e+183
-1.4024568e+183
-1.3944547e+183
-1.3931521e+183
-1.3921724e+183
-1.3909741e+183
-1.3899035e+183
-1.3888939e+183
-1.3824418e+183
-1.3794015e+183
-1.374334e+183
-1.3665908e+183
-1.3769012e+183
-1.3613324e+183
-1.3875649e+183
-1.3818806e+183
-1.3387136e+183
-1.3440071e+183
-1.3476361e+183
-1.3524923e+183
-1.3958991e+183
-1.3903155e+183
-1.3622241e+183
-1.3571913e+183
-1.4008581e+183
-1.406092e+183
-1.4107205e+183
-1.3670077e+183
-1.3716559e+183
-1.415544e+183
-1.4343557e+183
-1.4404129e+183
-1.4863545e+183
-1.4797611e+183
-1.4914816e+183
-1.4456003e+183
-1.4506254e+183
-1.4956944e+183
-1.4138116e+183
-1.4188876e+183
-1.4216144e+183
-1.4144781e+183
-1.4172089e+183
-1.4242843e+183
-1.4349068e+183
-1.4382432e+183
-1.4394962e+183
-1.4361467e+183
-1.4402872e+183
-1.4345155e+183
-1.4329335e+183
-1.4336018e+183
-1.4284739e+183
-1.4368622e+183
-1.4291002e+183
-1.4390599e+183
-1.4356584e+183
-1.4336646e+183
-1.4322091e+183
-1.4355904e+183
-1.4370431e+183
-1.4364801e+183
-1.4379003e+183
-1.4331129e+183
-1.4344586e+183
-1.4348476e+183
-1.4278032e+183
-1.4304842e+183
-1.4375384e+183
-1.4164665e+183
-1.4093659e+183
-1.4120806e+183
-1.4190743e+183
-1.4474504e+183
-1.4250944e+183
-1.4217576e+183
-1.4287056e+183
-1.4321812e+183
-1.4397706e+183
-1.440854e+183
-1.4486408e+183
-1.4330447e+183
-1.4365007e+183
-1.4317018e+183
-1.4350251e+183
-1.4392443e+183
-1.4419264e+183
-1.4405414e+183
-1.4378783e+183
-1.4284973e+183
-1.427166e+183
-1.4306437e+183
-1.4319698e+183
-1.4309467e+183
-1.4296645e+183
-1.4331066e+183
-1.434394e+183
-1.431654e+183
-1.4329403e+183
-1.4284867e+183
-1.4296821e+183
-1.4352925e+183
-1.4340487e+183
-1.4307841e+183
-1.4319649e+183
-1.4215424e+183
-1.4221454e+183
-1.4129635e+183
-1.4136335e+183
-1.4201501e+183
-1.4208744e+183
-1.4122852e+183
-1.4115497e+183
-1.4162551e+183
-1.4159561e+183
-1.4115634e+183
-1.4118488e+183
-1.4167622e+183
-1.4164976e+183
-1.4120627e+183
-1.4123539e+183
-1.4176368e+183
-1.4182458e+183
-1.4095686e+183
-1.4089862e+183
-1.4188433e+183
-1.4194757e+183
-1.410855e+183
-1.4101635e+183
-1.415413e+183
-1.4159859e+183
-1.4073244e+183
-1.4067726e+183
-1.4165506e+183
-1.4170813e+183
-1.408461e+183
-1.4078822e+183
-1.4134076e+183
-1.4139189e+183
-1.4052488e+183
-1.4047714e+183
-1.4205551e+183
-1.4144096e+183
-1.4148988e+183
-1.4062503e+183
-1.4057198e+183
-1.4073711e+183
-1.406058e+183
-1.419299e+183
-1.4179212e+183
-1.4163605e+183
-1.4030593e+183
-1.4046302e+183
-1.4204011e+183
-1.4170554e+183
-1.3994043e+183
-1.4024513e+183
-1.4106564e+183
-1.397691e+183
-1.4121855e+183
-1.3990913e+183
-1.4135747e+183
-1.4150237e+183
-1.4003771e+183
-1.4017776e+183
-1.4102761e+183
-1.4137829e+183
-1.3931173e+183
-1.3963434e+183
-1.3615948e+183
-1.3611792e+183
-1.3618148e+183
-1.3698396e+183
-1.3704654e+183
-1.3790893e+183
-1.3904105e+183
-1.3796603e+183
-1.3909073e+183
-1.3792697e+183
-1.3600023e+183
-1.3776743e+183
-1.3335274e+183
-1.3398206e+183
-1.3342024e+183
-1.34053e+183
-1.3338705e+183
-1.3472564e+183
-1.3323839e+183
-1.3457736e+183
-1.3462801e+183
-1.3536831e+183
-1.3469768e+183
-1.3543438e+183
-1.3585695e+183
-1.3762335e+183
-1.3572934e+183
-1.3749512e+183
-1.3431277e+183
-1.3299146e+183
-1.3311156e+183
-1.3443665e+183
-1.2897253e+183
-1.2909465e+183
-1.2995043e+183
-1.300789e+183
-1.2696638e+183
-1.2959963e+183
-1.3008018e+183
-1.301513e+183
-1.3058594e+183
-1.3064921e+183
-1.3094016e+183
-1.3208133e+183
-1.3222296e+183
-1.3107539e+183
-1.3121253e+183
-1.3174469e+183
-1.3229012e+183
-1.3114475e+183
-1.3108353e+183
-1.3161333e+183
-1.3167662e+183
-1.3216382e+183
-1.3276344e+183
-1.3222711e+183
-1.3282731e+183
-1.3185183e+183
-1.3196673e+183
-1.3072131e+183
-1.3083525e+183
-1.2875319e+183
-1.2886667e+183
-1.2973109e+183
-1.2984353e+183
-1.2672862e+183
-1.2455817e+183
-1.273709e+183
-1.2760705e+183
-1.2979335e+183
-1.2953995e+183
-1.2312652e+183
-1.271169e+183
-1.3482187e+183
-1.3458026e+183
-1.3177978e+183
-1.3203091e+183
-1.3187084e+183
-1.3004776e+183
-1.2785667e+183
-1.2810759e+183
-1.3029533e+183
-1.2357955e+183
-1.3142968e+183
-1.1925372e+183
-1.2666331e+183
-1.2542946e+183
-1.2972555e+183
-1.3019759e+183
-1.2582489e+183
-1.3046298e+183
-1.2617107e+183
-1.2198969e+183
-1.1808478e+183
-1.1769476e+183
-1.2237408e+183
-1.2655061e+183
-1.3087795e+183
-1.3226656e+183
-1.3254109e+183
-1.3505685e+183
-1.3535036e+183
-1.3140115e+183
-1.3039384e+183
-1.3028383e+183
-1.3149631e+183
-1.2941855e+183
-1.2929986e+183
-1.2831515e+183
-1.28442e+183
-1.2627222e+183
-1.3160865e+183
-1.3062382e+183
-1.3050069e+183
-1.3173902e+183
-1.2964183e+183
-1.2952635e+183
-1.2854747e+183
-1.2866542e+183
-1.26492e+183
-1.2409314e+183
-1.2432722e+183
-1.1889788e+183
-1.1851549e+183
-1.2262867e+183
-1.2306752e+183
-1.3129067e+183
-1.2690689e+183
-1.2738373e+183
-1.3177932e+183
-1.353969e+183
-1.3529673e+183
-1.3707289e+183
-1.3717182e+183
-1.3727961e+183
-1.3563057e+183
-1.3550253e+183
-1.3739829e+183
-1.3407252e+183
-1.327353e+183
-1.3287355e+183
-1.3420285e+183
-1.3386066e+183
-1.3262459e+183
-1.325294e+183
-1.3396054e+183
-1.1985688e+183
-1.1935686e+183
-1.2350781e+183
-1.2402335e+183
-1.3225324e+183
-1.2784729e+183
-1.2835093e+183
-1.3273541e+183
-1.2036472e+183
-1.2456319e+183
-1.2513391e+183
-1.2088319e+183
-1.4006219e+183
-1.4014156e+183
-1.399183e+183
-1.3999081e+183
-1.403899e+183
-1.4041532e+183
-1.4046818e+183
-1.404363e+183
-1.3977132e+183
-1.3985092e+183
-1.3966012e+183
-1.3971096e+183
-1.3955001e+183
-1.3961503e+183
-1.3944496e+183
-1.394927e+183
-1.3933965e+183
-1.3939986e+183
-1.387945e+183
-1.3925421e+183
-1.3929286e+183
-1.3864957e+183
-1.3850538e+183
-1.3836056e+183
-1.3721295e+183
-1.3786472e+183
-1.3798826e+183
-1.36916e+183
-1.3810905e+183
-1.3824556e+183
-1.3639283e+183
-1.3665198e+183
-1.3856222e+183
-1.380019e+183
-1.3379609e+183
-1.3431878e+183
-1.3475613e+183
-1.3523819e+183
-1.3958236e+183
-1.390307e+183
-1.3622162e+183
-1.3571834e+183
-1.4008567e+183
-1.4060875e+183
-1.4343885e+183
-1.4404409e+183
-1.4864279e+183
-1.4798331e+183
-1.4087502e+183
-1.4033107e+183
-1.3973527e+183
-1.4206039e+183
-1.4220434e+183
-1.391296e+183
-1.3940633e+183
-1.4001759e+183
-1.4246221e+183
-1.4232964e+183
-1.4275913e+183
-1.4288817e+183
-1.4286022e+183
-1.4327331e+183
-1.4333298e+183
-1.4333202e+183
-1.4339436e+183
-1.4304391e+183
-1.4308374e+183
-1.4310826e+183
-1.4307051e+183
-1.4301308e+183
-1.4305018e+183
-1.4285997e+183
-1.432345e+183
-1.4289437e+183
-1.4307882e+183
-1.4310842e+183
-1.429245e+183
-1.4295135e+183
-1.4256938e+183
-1.4278977e+183
-1.4204019e+183
-1.4207034e+183
-1.4260254e+183
-1.4317635e+183
-1.4273319e+183
-1.4265667e+183
-1.4263185e+183
-1.4209528e+183
-1.4212189e+183
-1.4314552e+183
-1.4321308e+183
-1.432054e+183
-1.4327552e+183
-1.4311885e+183
-1.4267222e+183
-1.4304843e+183
-1.4260048e+183
-1.4249313e+183
-1.4263153e+183
-1.4294821e+183
-1.430191e+183
-1.4295369e+183
-1.4288284e+183
-1.4301906e+183
-1.4308354e+183
-1.4314613e+183
-1.4307883e+183
-1.4279358e+183
-1.428624e+183
-1.4234786e+183
-1.4241306e+183
-1.4292204e+183
-1.4247321e+183
-1.4298576e+183
-1.4253462e+183
-1.4115174e+183
-1.404391e+183
-1.4070464e+183
-1.4140658e+183
-1.3922599e+183
-1.4155801e+183
-1.416882e+183
-1.3862873e+183
-1.3889555e+183
-1.3949254e+183
-1.4179862e+183
-1.4192939e+183
-1.4219599e+183
-1.415276e+183
-1.4187452e+183
-1.4255892e+183
-1.4017722e+183
-1.3987704e+183
-1.4058971e+183
-1.408938e+183
-1.4150343e+183
-1.4085764e+183
-1.4121316e+183
-1.4187402e+183
-1.41909e+183
-1.4228175e+183
-1.4179915e+183
-1.4216571e+183
-1.4298326e+183
-1.4250496e+183
-1.4285552e+183
-1.4261638e+183
-1.4178881e+183
-1.4161567e+183
-1.4196245e+183
-1.4213662e+183
-1.4228263e+183
-1.4194153e+183
-1.4209016e+183
-1.4243429e+183
-1.4206192e+183
-1.4223286e+183
-1.4175179e+183
-1.4191414e+183
-1.4252629e+183
-1.4205892e+183
-1.4237688e+183
-1.4220561e+183
-1.4256363e+183
-1.42217e+183
-1.4236305e+183
-1.4271363e+183
-1.428346e+183
-1.4248531e+183
-1.4260483e+183
-1.4295636e+183
-1.4305838e+183
-1.4262653e+183
-1.4293778e+183
-1.4274663e+183
-1.4266234e+183
-1.428141e+183
-1.4234304e+183
-1.4249608e+183
-1.4200138e+183
-1.4212418e+183
-1.4223694e+183
-1.4236401e+183
-1.4240439e+183
-1.424677e+183
-1.4247935e+183
-1.4254268e+183
-1.4252495e+183
-1.4258082e+183
-1.4259542e+183
-1.426532e+183
-1.4233778e+183
-1.4239882e+183
-1.4191415e+183
-1.4197035e+183
-1.4245003e+183
-1.425042e+183
-1.4202006e+183
-1.4207028e+183
-1.4276053e+183
-1.4282138e+183
-1.428902e+183
-1.4282801e+183
-1.427013e+183
-1.4263724e+183
-1.4270676e+183
-1.4277285e+183
-1.4255966e+183
-1.4262422e+183
-1.4212489e+183
-1.4218618e+183
-1.426789e+183
-1.4224062e+183
-1.4273601e+183
-1.4229281e+183
-1.4150485e+183
-1.414661e+183
-1.4102232e+183
-1.4106096e+183
-1.4156807e+183
-1.4153653e+183
-1.4109174e+183
-1.411271e+183
-1.4088286e+183
-1.4132787e+183
-1.4136574e+183
-1.4092052e+183
-1.4143273e+183
-1.4139745e+183
-1.4095131e+183
-1.409888e+183
-1.4070494e+183
-1.4067609e+183
-1.407561e+183
-1.4072847e+183
-1.4063281e+183
-1.4108168e+183
-1.4111245e+183
-1.4066171e+183
-1.4068608e+183
-1.411384e+183
-1.4116501e+183
-1.4071513e+183
-1.4074374e+183
-1.4119326e+183
-1.4122966e+183
-1.4078026e+183
-1.4081152e+183
-1.4126125e+183
-1.4129477e+183
-1.4084925e+183
-1.4088663e+183
-1.4086148e+183
-1.4041632e+183
-1.4043931e+183
-1.4094024e+183
-1.4091232e+183
-1.4046133e+183
-1.4049179e+183
-1.4100057e+183
-1.4096765e+183
-1.4051962e+183
-1.4055102e+183
-1.4057643e+183
-1.4102843e+183
-1.4105517e+183
-1.4060714e+183
-1.4069763e+183
-1.4067254e+183
-1.4129027e+183
-1.4022527e+183
-1.4024884e+183
-1.407407e+183
-1.4071825e+183
-1.4026642e+183
-1.4029133e+183
-1.4042684e+183
-1.4123335e+183
-1.4036436e+183
-1.4079131e+183
-1.4076248e+183
-1.4031399e+183
-1.403421e+183
-1.4083973e+183
-1.4081532e+183
-1.4036539e+183
-1.4039318e+183
-1.4109441e+183
-1.4116774e+183
-1.4029993e+183
-1.402282e+183
-1.4095531e+183
-1.4102583e+183
-1.4015734e+183
-1.400799e+183
-1.4080643e+183
-1.408828e+183
-1.4000854e+183
-1.3994019e+183
-1.4077988e+183
-1.3950473e+183
-1.4093309e+183
-1.3965068e+183
-1.406184e+183
-1.3935066e+183
-1.4043742e+183
-1.3918264e+183
-1.3941526e+183
-1.4026489e+183
-1.4033344e+183
-1.3947797e+183
-1.4040148e+183
-1.4047027e+183
-1.3954065e+183
-1.3961059e+183
-1.405341e+183
-1.4060649e+183
-1.3967154e+183
-1.3973845e+183
-1.3980669e+183
-1.4067712e+183
-1.4074461e+183
-1.3987888e+183
-1.3862648e+183
-1.3983159e+183
-1.3997871e+183
-1.3875791e+183
-1.4012592e+183
-1.4028737e+183
-1.3889449e+183
-1.3904374e+183
-1.3597949e+183
-1.3685194e+183
-1.3606e+183
-1.3692891e+183
-1.3600696e+183
-1.3643047e+183
-1.364662e+183
-1.3604194e+183
-1.3606958e+183
-1.3649212e+183
-1.3610332e+183
-1.3652208e+183
-1.3737165e+183
-1.3685309e+183
-1.3734423e+183
-1.3688421e+183
-1.369418e+183
-1.3743191e+183
-1.3690995e+183
-1.3739896e+183
-1.3785383e+183
-1.3783283e+183
-1.3840597e+183
-1.3843404e+183
-1.3785979e+183
-1.3898512e+183
-1.3899707e+183
-1.3969163e+183
-1.3971437e+183
-1.3902217e+183
-1.3788607e+183
-1.3791884e+183
-1.3845966e+183
-1.3848875e+183
-1.3904377e+183
-1.3907472e+183
-1.3973511e+183
-1.3976632e+183
-1.3777212e+183
-1.3890324e+183
-1.3582467e+183
-1.3669355e+183
-1.3590525e+183
-1.3677703e+183
-1.3761939e+183
-1.38755e+183
-1.3770034e+183
-1.3883018e+183
-1.3329835e+183
-1.3325163e+183
-1.3328708e+183
-1.335586e+183
-1.3359594e+183
-1.3389931e+183
-1.3392587e+183
-1.3422683e+183
-1.3386213e+183
-1.3419056e+183
-1.3366761e+183
-1.3332013e+183
-1.3363029e+183
-1.3335793e+183
-1.3393265e+183
-1.3426023e+183
-1.3429659e+183
-1.3396966e+183
-1.332253e+183
-1.3385326e+183
-1.3449226e+183
-1.3457017e+183
-1.352304e+183
-1.3530984e+183
-1.3307882e+183
-1.3315689e+183
-1.337031e+183
-1.3378365e+183
-1.3434397e+183
-1.3507977e+183
-1.3442384e+183
-1.3515844e+183
-1.3451462e+183
-1.3486968e+183
-1.3490733e+183
-1.345514e+183
-1.3565828e+183
-1.3522655e+183
-1.3562312e+183
-1.3526311e+183
-1.3497487e+183
-1.3458404e+183
-1.3493974e+183
-1.3462063e+183
-1.3529345e+183
-1.3568797e+183
-1.3572252e+183
-1.3532937e+183
-1.356735e+183
-1.3654579e+183
-1.3575424e+183
-1.3662308e+183
-1.3746832e+183
-1.3754972e+183
-1.386034e+183
-1.3868424e+183
-1.3556355e+183
-1.3642926e+183
-1.3561308e+183
-1.3648279e+183
-1.3735623e+183
-1.3849364e+183
-1.374083e+183
-1.3854248e+183
-1.3409143e+183
-1.348205e+183
-1.3414374e+183
-1.3486855e+183
-1.3283433e+183
-1.3345294e+183
-1.3288981e+183
-1.3350839e+183
-1.3294489e+183
-1.3356496e+183
-1.3301268e+183
-1.3363421e+183
-1.3419794e+183
-1.3492754e+183
-1.3427339e+183
-1.3500694e+183
-1.2935753e+183
-1.2941003e+183
-1.280499e+183
-1.2888366e+183
-1.2893105e+183
-1.294681e+183
-1.2953912e+183
-1.2816899e+183
-1.2904867e+183
-1.2898152e+183
-1.2982685e+183
-1.2988276e+183
-1.3033194e+183
-1.3038792e+183
-1.2994441e+183
-1.300199e+183
-1.3045269e+183
-1.3052851e+183
-1.2711045e+183
-1.2953308e+183
-1.295697e+183
-1.2981255e+183
-1.2984952e+183
-1.2915649e+183
-1.3005252e+183
-1.3029037e+183
-1.3032925e+183
-1.3009203e+183
-1.3013057e+183
-1.3036401e+183
-1.3039744e+183
-1.301647e+183
-1.3053453e+183
-1.3078229e+183
-1.3081441e+183
-1.3057042e+183
-1.3060018e+183
-1.3084387e+183
-1.3087821e+183
-1.306343e+183
-1.3083356e+183
-1.3136379e+183
-1.3089238e+183
-1.3142824e+183
-1.319071e+183
-1.3197668e+183
-1.3249678e+183
-1.3257113e+183
-1.3204257e+183
-1.3211452e+183
-1.3263948e+183
-1.3271097e+183
-1.3095717e+183
-1.3149444e+183
-1.3103151e+183
-1.3156456e+183
-1.3115769e+183
-1.3144706e+183
-1.3140987e+183
-1.3119442e+183
-1.3166487e+183
-1.3193513e+183
-1.3170045e+183
-1.3196873e+183
-1.3252767e+183
-1.3220504e+183
-1.3249119e+183
-1.3223997e+183
-1.3112445e+183
-1.3108891e+183
-1.3137611e+183
-1.3134071e+183
-1.3106015e+183
-1.3102888e+183
-1.3128031e+183
-1.3131098e+183
-1.3156633e+183
-1.3183683e+183
-1.3153601e+183
-1.3180738e+183
-1.3159549e+183
-1.3186705e+183
-1.3190373e+183
-1.3163217e+183
-1.3207852e+183
-1.3210905e+183
-1.3236346e+183
-1.3239595e+183
-1.3268489e+183
-1.3299055e+183
-1.3265173e+183
-1.3295681e+183
-1.3246152e+183
-1.3213911e+183
-1.324268e+183
-1.3217535e+183
-1.3271521e+183
-1.3302256e+183
-1.3305937e+183
-1.3275107e+183
-1.3167656e+183
-1.3173549e+183
-1.3225786e+183
-1.3231323e+183
-1.3178967e+183
-1.3236841e+183
-1.3185413e+183
-1.3243402e+183
-1.3061873e+183
-1.3114024e+183
-1.3067312e+183
-1.3119909e+183
-1.307267e+183
-1.3125445e+183
-1.3131499e+183
-1.3078748e+183
-1.2915314e+183
-1.2920234e+183
-1.2783038e+183
-1.2867452e+183
-1.2872096e+183
-1.2925418e+183
-1.2931336e+183
-1.2794355e+183
-1.2877539e+183
-1.2883712e+183
-1.2962265e+183
-1.3012157e+183
-1.296721e+183
-1.3017151e+183
-1.2972108e+183
-1.3022384e+183
-1.2978245e+183
-1.3028463e+183
-1.2689278e+183
-1.2700312e+183
-1.2601775e+183
-1.2512663e+183
-1.2524105e+183
-1.2612214e+183
-1.2718007e+183
-1.2746141e+183
-1.2733728e+183
-1.2831797e+183
-1.2534355e+183
-1.2843741e+183
-1.2757696e+183
-1.2856113e+183
-1.2871615e+183
-1.2773509e+183
-1.2557381e+183
-1.3067475e+183
-1.2969523e+183
-1.2954557e+183
-1.3081499e+183
-1.2942185e+183
-1.305514e+183
-1.2935647e+183
-1.3044316e+183
-1.2930773e+183
-1.2342968e+183
-1.2318264e+183
-1.2272703e+183
-1.2917472e+183
-1.2696234e+183
-1.3632279e+183
-1.3469669e+183
-1.3457379e+183
-1.3644708e+183
-1.3446065e+183
-1.3620441e+183
-1.3434526e+183
-1.3437278e+183
-1.3608807e+183
-1.3170326e+183
-1.3303953e+183
-1.3159285e+183
-1.3292372e+183
-1.3159209e+183
-1.3315788e+183
-1.3182191e+183
-1.3195512e+183
-1.3327862e+183
-1.3411442e+183
-1.3138568e+183
-1.3092458e+183
-1.2993389e+183
-1.2981315e+183
-1.31037e+183
-1.2896019e+183
-1.2883612e+183
-1.2786084e+183
-1.279875e+183
-1.2580971e+183
-1.2821706e+183
-1.2809169e+183
-1.2906752e+183
-1.2605993e+183
-1.2919607e+183
-1.3018225e+183
-1.3116482e+183
-1.3004455e+183
-1.3130724e+183
-1.2364024e+183
-1.239194e+183
-1.312179e+183
-1.3099692e+183
-1.3367577e+183
-1.3390046e+183
-1.216504e+183
-1.2127871e+183
-1.1702342e+183
-1.1738948e+183
-1.2899615e+183
-1.2675297e+183
-1.2541868e+183
-1.2958869e+183
-1.3004552e+183
-1.2579709e+183
-1.3045137e+183
-1.2615755e+183
-1.2188562e+183
-1.1813025e+183
-1.1774645e+183
-1.2226328e+183
-1.265336e+183
-1.3086357e+183
-1.3336937e+183
-1.3204788e+183
-1.3216706e+183
-1.334984e+183
-1.3244911e+183
-1.3230534e+183
-1.3364081e+183
-1.3377919e+183
-1.3492417e+183
-1.3478954e+183
-1.365528e+183
-1.3669129e+183
-1.3683568e+183
-1.3506459e+183
-1.3521018e+183
-1.369823e+183
-1.3124421e+183
-1.3182104e+183
-1.3128471e+183
-1.3185604e+183
-1.302918e+183
-1.3035269e+183
-1.3080385e+183
-1.3086058e+183
-1.3019358e+183
-1.3071055e+183
-1.3024101e+183
-1.3075572e+183
-1.3132703e+183
-1.3189969e+183
-1.3138541e+183
-1.3195816e+183
-1.2931585e+183
-1.2980527e+183
-1.2938218e+183
-1.2986844e+183
-1.2920396e+183
-1.2970233e+183
-1.2926317e+183
-1.297528e+183
-1.2872398e+183
-1.2878715e+183
-1.2738497e+183
-1.2823595e+183
-1.2830042e+183
-1.2884642e+183
-1.2891274e+183
-1.2751301e+183
-1.2843549e+183
-1.2836581e+183
-1.2644145e+183
-1.2657169e+183
-1.3143674e+183
-1.3149491e+183
-1.3200809e+183
-1.3206562e+183
-1.3051078e+183
-1.3057113e+183
-1.3102541e+183
-1.3108844e+183
-1.3040244e+183
-1.3091054e+183
-1.3045578e+183
-1.3096782e+183
-1.3155225e+183
-1.3162173e+183
-1.3212895e+183
-1.3220314e+183
-1.2953484e+183
-1.3002348e+183
-1.2958955e+183
-1.3008049e+183
-1.294304e+183
-1.2991877e+183
-1.2948707e+183
-1.2997125e+183
-1.2896132e+183
-1.2901804e+183
-1.2761585e+183
-1.284858e+183
-1.2853925e+183
-1.2906791e+183
-1.291196e+183
-1.2773545e+183
-1.2859007e+183
-1.2864045e+183
-1.2667044e+183
-1.2679641e+183
-1.2556269e+183
-1.2467435e+183
-1.2477397e+183
-1.2568206e+183
-1.2501462e+183
-1.2487147e+183
-1.257802e+183
-1.259113e+183
-1.2376459e+183
-1.1888689e+183
-1.1851113e+183
-1.226049e+183
-1.230415e+183
-1.3128955e+183
-1.2690549e+183
-1.2738244e+183
-1.3177819e+183
-1.3523728e+183
-1.3529834e+183
-1.361147e+183
-1.3617143e+183
-1.3515192e+183
-1.3602411e+183
-1.3519015e+183
-1.3606573e+183
-1.3695495e+183
-1.3809362e+183
-1.369953e+183
-1.3813018e+183
-1.3704137e+183
-1.3817655e+183
-1.3710209e+183
-1.3823739e+183
-1.3714929e+183
-1.3720209e+183
-1.3828386e+183
-1.3833086e+183
-1.3546032e+183
-1.3552493e+183
-1.3633193e+183
-1.3639178e+183
-1.353454e+183
-1.3621727e+183
-1.3540044e+183
-1.3627321e+183
-1.372549e+183
-1.3731813e+183
-1.3838702e+183
-1.3845239e+183
-1.3385285e+183
-1.3459523e+183
-1.339147e+183
-1.3465111e+183
-1.3257883e+183
-1.3320291e+183
-1.3263894e+183
-1.3326609e+183
-1.3270545e+183
-1.3333301e+183
-1.3278115e+183
-1.3340426e+183
-1.3397596e+183
-1.3404637e+183
-1.3471257e+183
-1.3477992e+183
-1.3366527e+183
-1.3440149e+183
-1.3370115e+183
-1.3443765e+183
-1.3247428e+183
-1.3310086e+183
-1.3253222e+183
-1.3315591e+183
-1.3301862e+183
-1.3239429e+183
-1.3242957e+183
-1.3305501e+183
-1.3374495e+183
-1.3448469e+183
-1.3380381e+183
-1.3454587e+183
-1.1985825e+183
-1.1935802e+183
-1.2350677e+183
-1.2402299e+183
-1.4025317e+183
-1.4028964e+183
-1.4036389e+183
-1.4032348e+183
-1.4011155e+183
-1.4014665e+183
-1.4017914e+183
-1.4022047e+183
-1.3996821e+183
-1.4000229e+183
-1.4003628e+183
-1.4007962e+183
-1.3985992e+183
-1.3988362e+183
-1.3990742e+183
-1.3994048e+183
-1.397473e+183
-1.3977788e+183
-1.3980423e+183
-1.398384e+183
-1.3964675e+183
-1.3966558e+183
-1.3968757e+183
-1.3972122e+183
-1.3954475e+183
-1.3957041e+183
-1.3959557e+183
-1.3962765e+183
-1.3914451e+183
-1.3921308e+183
-1.3946093e+183
-1.3947822e+183
-1.394953e+183
-1.3952285e+183
-1.3901168e+183
-1.3908013e+183
-1.3894349e+183
-1.3885798e+183
-1.3878729e+183
-1.3873004e+183
-1.3760314e+183
-1.3775871e+183
-1.3822684e+183
-1.3828151e+183
-1.3834083e+183
-1.3841751e+183
-1.3745662e+183
-1.3730465e+183
-1.3847127e+183
-1.3852873e+183
-1.3859529e+183
-1.3867482e+183
-1.3691762e+183
-1.3681614e+183
-1.3718135e+183
-1.3703687e+183
-1.3855644e+183
-1.3800397e+183
-1.3379221e+183
-1.3430926e+183
-1.3475551e+183
-1.352373e+183
-1.3958207e+183
-1.3903091e+183
-1.3974711e+183
-1.3913276e+183
-1.4100411e+183
-1.4086112e+183
-1.3736395e+183
-1.3972113e+183
-1.3957429e+183
-1.4126982e+183
-1.4113545e+183
-1.3765979e+183
-1.398565e+183
-1.3999543e+183
-1.4013177e+183
-1.4182967e+183
-1.4176671e+183
-1.4196944e+183
-1.4203435e+183
-1.4260767e+183
-1.4267198e+183
-1.4196833e+183
-1.4189316e+183
-1.4209752e+183
-1.4216897e+183
-1.4273399e+183
-1.4279757e+183
-1.4157375e+183
-1.4236526e+183
-1.4278127e+183
-1.4281729e+183
-1.4295854e+183
-1.4292009e+183
-1.4294717e+183
-1.4298323e+183
-1.4298756e+183
-1.4301318e+183
-1.4301127e+183
-1.4304072e+183
-1.4285273e+183
-1.4281813e+183
-1.429822e+183
-1.4284473e+183
-1.428791e+183
-1.4277229e+183
-1.4282967e+183
-1.4295232e+183
-1.4280165e+183
-1.4280459e+183
-1.4290985e+183
-1.4293936e+183
-1.4283428e+183
-1.4286268e+183
-1.4236777e+183
-1.4254041e+183
-1.4251367e+183
-1.4198233e+183
-1.4201232e+183
-1.4157988e+183
-1.4160423e+183
-1.4239688e+183
-1.427386e+183
-1.4289025e+183
-1.4292577e+183
-1.4277338e+183
-1.4191484e+183
-1.4244861e+183
-1.4248368e+183
-1.4195131e+183
-1.4245272e+183
-1.4242636e+183
-1.4163259e+183
-1.4165969e+183
-1.4282179e+183
-1.4279409e+183
-1.4285875e+183
-1.4283348e+183
-1.4286401e+183
-1.4288949e+183
-1.4291788e+183
-1.4288826e+183
-1.4282998e+183
-1.4286088e+183
-1.4267749e+183
-1.4270828e+183
-1.4241734e+183
-1.4238646e+183
-1.4184664e+183
-1.4188123e+183
-1.426101e+183
-1.4276446e+183
-1.4264621e+183
-1.4280125e+183
-1.4177822e+183
-1.4231674e+183
-1.4181465e+183
-1.4235361e+183
-1.415605e+183
-1.4149343e+183
-1.4170109e+183
-1.4176619e+183
-1.4241031e+183
-1.423437e+183
-1.4170592e+183
-1.4162812e+183
-1.418322e+183
-1.4190659e+183
-1.4254342e+183
-1.4247578e+183
-1.4256393e+183
-1.4253336e+183
-1.4257398e+183
-1.4260189e+183
-1.4263207e+183
-1.4260575e+183
-1.4266195e+183
-1.4263203e+183
-1.4273522e+183
-1.4275982e+183
-1.4279146e+183
-1.4276262e+183
-1.4270417e+183
-1.4266341e+183
-1.426916e+183
-1.4272988e+183
-1.4235957e+183
-1.425093e+183
-1.42546e+183
-1.4239299e+183
-1.4242285e+183
-1.4257483e+183
-1.4260536e+183
-1.4245149e+183
-1.4153449e+183
-1.4207064e+183
-1.4210292e+183
-1.4156531e+183
-1.415914e+183
-1.4213273e+183
-1.4215894e+183
-1.4161871e+183
-1.4263517e+183
-1.426725e+183
-1.425173e+183
-1.4248216e+183
-1.4164759e+183
-1.4218832e+183
-1.4222452e+183
-1.4168337e+183
-1.4254735e+183
-1.4270087e+183
-1.427333e+183
-1.4257831e+183
-1.4171353e+183
-1.4225537e+183
-1.4228441e+183
-1.4174553e+183
-1.3875455e+183
-1.4120301e+183
-1.4106845e+183
-1.3814782e+183
-1.3839699e+183
-1.3898837e+183
-1.4131877e+183
-1.4144293e+183
-1.4048883e+183
-1.4035282e+183
-1.390611e+183
-1.3920985e+183
-1.407316e+183
-1.4060567e+183
-1.3933312e+183
-1.3945545e+183
-1.3992858e+183
-1.3923826e+183
-1.3958789e+183
-1.4027933e+183
-1.3790778e+183
-1.3762117e+183
-1.3824376e+183
-1.4049979e+183
-1.4066018e+183
-1.3851586e+183
-1.4094752e+183
-1.4080211e+183
-1.3928016e+183
-1.3861506e+183
-1.3893467e+183
-1.3960326e+183
-1.4044208e+183
-1.4027378e+183
-1.4061024e+183
-1.4078231e+183
-1.4077581e+183
-1.4060108e+183
-1.4111899e+183
-1.4093864e+183
-1.4072074e+183
-1.4089096e+183
-1.4044327e+183
-1.4060425e+183
-1.4104831e+183
-1.412262e+183
-1.4076241e+183
-1.4093332e+183
-1.4129996e+183
-1.41468e+183
-1.4181442e+183
-1.4164345e+183
-1.4139218e+183
-1.4158425e+183
-1.4109639e+183
-1.4128433e+183
-1.4174515e+183
-1.4191186e+183
-1.4144755e+183
-1.4160719e+183
-1.411307e+183
-1.4093711e+183
-1.4147962e+183
-1.4128246e+183
-1.4093873e+183
-1.4109565e+183
-1.4123681e+183
-1.4138209e+183
-1.4131717e+183
-1.413998e+183
-1.4138778e+183
-1.4147263e+183
-1.4147574e+183
-1.415494e+183
-1.4154426e+183
-1.4162156e+183
-1.4124725e+183
-1.4082985e+183
-1.4133031e+183
-1.4090678e+183
-1.4147618e+183
-1.4140163e+183
-1.4097719e+183
-1.4104806e+183
-1.4183577e+183
-1.4176871e+183
-1.4183665e+183
-1.4190697e+183
-1.4154696e+183
-1.4162583e+183
-1.4111835e+183
-1.4119508e+183
-1.4169868e+183
-1.4162065e+183
-1.4169043e+183
-1.4177092e+183
-1.4169183e+183
-1.4175949e+183
-1.4126268e+183
-1.4132825e+183
-1.4150985e+183
-1.4164569e+183
-1.4176443e+183
-1.4188679e+183
-1.4229371e+183
-1.4234916e+183
-1.424277e+183
-1.4236983e+183
-1.4210393e+183
-1.4167806e+183
-1.4175149e+183
-1.4217454e+183
-1.4223518e+183
-1.4216835e+183
-1.4224474e+183
-1.4231475e+183
-1.4223171e+183
-1.4181251e+183
-1.4228608e+183
-1.4186536e+183
-1.4197488e+183
-1.419014e+183
-1.4197096e+183
-1.4204802e+183
-1.4210686e+183
-1.4204225e+183
-1.42113e+183
-1.4218323e+183
-1.4182569e+183
-1.4190347e+183
-1.4147205e+183
-1.413939e+183
-1.4154199e+183
-1.4161054e+183
-1.4197028e+183
-1.4203925e+183
-1.4105813e+183
-1.40998e+183