/*--------------------------------*- C++ -*----------------------------------*\
  =========                 |
  \\      /  F ield         | OpenFOAM: The Open Source CFD Toolbox
   \\    /   O peration     | Website:  https://openfoam.org
    \\  /    A nd           | Version:  7
     \\/     M anipulation  |
\*---------------------------------------------------------------------------*/
FoamFile
{
    version     2.0;
    format      ascii;
    class       surfaceScalarField;
    location    "2000";
    object      phi;
}
// * * * * * * * * * * * * * * * * * * * * * * * * * * * * * * * * * * * * * //

dimensions      [0 3 -1 0 0 0 0];

internalField   nonuniform List<scalar> 
101811
(
-5.113231e+88
8.1077423e+87
-1.3133041e+87
-2.5735597e+87
1.6774702e+87
3.3435198e+87
-5.7034526e+88
5.3447821e+87
-2.735891e+87
-1.572566e+87
3.2289982e+87
1.7256385e+87
-5.244769e+88
1.0308248e+88
3.7583989e+87
-2.635285e+87
-1.3315149e+87
2.0790017e+87
-2.7879979e+87
8.0182998e+87
-1.0296871e+88
3.3102078e+87
4.4306103e+86
7.6213861e+87
-9.773003e+87
3.8879511e+86
3.2098884e+87
5.1937352e+86
3.7180958e+87
5.6953706e+86
3.6897563e+87
-5.907007e+88
3.2302593e+87
-1.7451253e+87
-2.7843006e+87
1.9288796e+87
-5.7054707e+88
5.7260292e+87
3.5014554e+87
-1.4813305e+87
-2.6482372e+87
2.0605493e+87
2.2966599e+87
7.7090011e+87
-1.0060705e+88
5.7209105e+85
8.0776069e+87
-1.0326794e+88
2.736825e+87
2.3646121e+86
-2.5508839e+87
3.1196502e+87
4.409693e+86
2.6973706e+86
2.8455027e+87
-5.3833044e+88
8.8952764e+87
3.6661542e+87
-1.5499598e+87
-2.8436239e+87
2.1133414e+87
-8.484712e+87
-2.9691364e+87
3.7772913e+87
7.2066956e+86
2.6034691e+87
8.0725767e+87
-1.0453918e+88
4.5279571e+86
-1.0990333e+88
3.2213308e+87
5.5624438e+86
6.1040738e+86
-2.6354531e+87
7.509683e+87
-7.4939648e+87
2.5998246e+87
4.6297388e+86
7.1110037e+87
-6.9520585e+87
3.7429756e+86
2.9009973e+87
4.9913046e+86
2.7861621e+87
5.7157956e+86
3.1827336e+87
-1.2135946e+88
-1.1858196e+88
9.57443e+87
-1.3321928e+88
-1.2321776e+88
3.8396134e+87
-5.8896698e+88
3.4736871e+87
-1.6585486e+87
-2.7146091e+87
2.2531841e+87
2.9636174e+87
-2.0857545e+87
2.9375422e+87
1.9675376e+87
-2.8866077e+87
-7.8131705e+87
-2.1423805e+87
2.5702979e+87
2.8872491e+86
-1.8267623e+87
2.256074e+87
-1.006708e+88
7.9478727e+85
7.7782322e+87
-1.0050256e+88
-6.9460509e+85
2.6828702e+85
3.1676278e+87
3.7957344e+87
-5.776509e+88
-2.4954301e+87
-1.6956633e+87
5.1464403e+87
-2.5772822e+87
-1.5849819e+87
3.5905346e+87
2.3110854e+87
-8.5358056e+87
-2.4768306e+87
2.9380052e+87
5.8575285e+86
-2.2073526e+87
-1.0824502e+88
2.5725598e+87
4.4215575e+86
8.1715338e+87
-1.0546411e+88
2.5611268e+86
4.2098467e+86
2.2386909e+87
6.8806921e+87
-6.9900517e+87
1.1549223e+86
7.4586619e+87
-7.429294e+87
2.1880616e+87
2.5772517e+86
-2.3886739e+87
2.40642e+87
3.8792167e+86
2.5849812e+86
3.5563306e+87
-5.4926665e+88
-1.9723487e+87
-3.0602119e+87
2.0369449e+87
3.4297429e+87
-9.0414027e+87
-2.816948e+87
3.272996e+87
5.3642403e+86
-2.3634901e+87
-1.1601234e+88
2.8516621e+87
5.2169961e+86
8.7577738e+87
-1.1209059e+88
4.6550299e+86
5.1513104e+86
-8.1810394e+87
-2.6667294e+87
2.6345984e+87
7.3927636e+86
2.4542084e+87
7.5064653e+87
-7.4619266e+87
5.5387371e+86
-8.16781e+87
2.3756069e+87
6.2161669e+86
6.566673e+86
-2.2954946e+86
5.8297534e+86
-5.4474392e+86
2.223979e+86
4.3189773e+86
5.7299951e+86
-5.2376669e+86
3.3776159e+86
2.4589874e+86
4.4675862e+86
2.3297575e+86
5.2513117e+86
-1.1783522e+88
-1.0323094e+88
-1.1530235e+88
9.4505092e+87
-1.0260627e+88
7.4050097e+86
-1.9231711e+87
1.2901916e+87
-2.4505037e+87
-3.1573509e+87
-2.4897853e+87
-3.2066182e+87
-2.0925817e+87
1.4481356e+87
-2.5469923e+87
-2.4597567e+87
-3.1108345e+87
9.6926984e+86
-3.3249274e+87
3.7977762e+87
-1.197655e+88
-1.1978806e+88
-1.3315466e+88
-1.2808623e+88
8.8984509e+87
1.4889491e+87
-1.1428476e+88
-1.1115808e+88
1.986134e+87
3.1016578e+87
-3.6498142e+87
3.6074645e+87
-2.9376675e+87
-5.9527533e+88
3.6190824e+87
-1.7806786e+87
-2.6088449e+87
2.5357684e+87
3.7150669e+87
3.1217038e+87
-2.830384e+87
-2.0876239e+87
3.1200514e+87
2.1399017e+87
-8.2160657e+87
-2.0810828e+87
2.4252219e+87
5.2110927e+86
-1.8247773e+87
2.1583722e+87
-1.0496646e+88
2.884325e+86
8.1086946e+87
-1.0483266e+88
9.1259662e+85
3.0468367e+86
7.6962458e+87
-1.4138265e+87
1.7676942e+87
-6.2464978e+84
-1.6804168e+87
2.0942475e+87
1.5287898e+86
-7.7230275e+87
6.152362e+85
-5.1672785e+85
-7.249513e+87
-2.0400557e+87
2.0186687e+87
1.3033409e+86
-1.7408196e+87
1.8088846e+87
-7.2376444e+87
-4.5214979e+83
7.0750661e+87
-7.1299187e+87
5.2784122e+85
2.9881598e+85
1.3570159e+87
8.3951005e+86
1.0068971e+87
-1.4552933e+88
-4.6891884e+86
-3.2926523e+86
1.0059612e+87
8.8695498e+86
-1.4262307e+88
-4.878228e+86
-2.9303913e+86
1.6957975e+87
3.0769455e+87
3.9016992e+87
-5.8492354e+88
-2.6717183e+87
-1.7852984e+87
4.709738e+87
-1.8383604e+87
-2.6549866e+87
2.416739e+87
3.5573649e+87
1.9139937e+87
8.6997293e+87
-1.1079404e+88
4.6095585e+86
9.0709435e+87
-1.1479054e+88
2.2255293e+87
5.1158958e+86
-2.1800872e+87
2.5926005e+87
6.4773089e+86
5.5967378e+86
-8.0047498e+87
-2.2827004e+87
2.1350523e+87
5.7034062e+86
-2.1290839e+87
-7.8902002e+87
1.9457633e+87
5.1092625e+86
7.4056988e+87
-7.4951627e+87
4.0455448e+86
4.884764e+86
1.9766706e+86
4.9638845e+86
-5.1861479e+86
1.3060569e+86
5.0982599e+86
-4.9134015e+86
1.9365777e+86
2.4325267e+86
-2.1058208e+86
2.0731554e+86
3.5627458e+86
2.3454309e+86
-1.9610078e+87
9.6664524e+87
-1.2338407e+88
3.3707511e+86
9.3728489e+87
-1.183529e+88
2.9288324e+86
2.3146409e+87
2.6380271e+86
3.2533703e+86
-8.7408527e+87
-2.2698611e+87
2.0398124e+87
5.4975317e+86
-2.0282987e+87
-8.6844392e+87
1.8898e+87
6.0378502e+86
8.2666833e+87
-8.1525026e+87
6.9863134e+86
7.6099711e+86
-5.9063115e+86
-2.2106241e+86
2.1138083e+86
7.3552241e+86
2.0874978e+86
5.7488996e+86
-5.4218718e+86
5.3481934e+86
-5.7607488e+86
1.9679324e+86
6.1901683e+86
6.2807934e+86
-1.9136398e+86
5.72152e+86
-5.3102279e+86
1.8203755e+86
5.6251096e+86
-5.1855985e+86
1.9847991e+86
1.857006e+86
4.4299651e+86
8.0786688e+86
-5.1276894e+86
-2.6566636e+87
-3.0578518e+87
-3.0541733e+87
-2.6703579e+87
6.6040331e+86
-2.3138603e+87
-1.8522437e+87
-2.3247083e+87
-1.8905105e+87
4.5591114e+86
-6.1883044e+86
1.112566e+87
-2.6421965e+87
-3.0408539e+87
-3.2062055e+87
-2.7827451e+87
-1.2022501e+88
-1.1752304e+88
9.8745535e+87
-1.0526422e+88
-1.0771983e+88
8.9727621e+86
-2.3243885e+87
-2.4180275e+87
-1.9076325e+87
-1.9433981e+87
-4.3551753e+86
1.439334e+86
3.4522838e+86
-5.0401392e+86
-5.1183333e+86
-6.8433552e+86
-6.6612158e+86
9.426052e+85
2.383218e+85
-1.0773807e+86
-1.1131812e+86
-1.52225e+86
-1.4274919e+86
2.6368423e+86
-2.670658e+87
-4.6395149e+86
1.5277987e+86
3.8511374e+86
-6.7530992e+86
-5.0834067e+86
-5.2392647e+86
-7.1221259e+86
3.3618232e+86
-2.73617e+87
8.2525252e+85
-4.2269923e+86
3.4872597e+86
-5.1787919e+86
-5.0719584e+86
-7.003942e+86
-6.7729238e+86
-4.8142212e+86
3.9126418e+86
-5.0755004e+86
-5.2497552e+86
-6.7245932e+86
-7.1547401e+86
1.3338696e+86
-2.0021593e+86
-2.6870914e+87
3.0101229e+86
6.1163665e+86
-1.8834133e+87
1.3972126e+87
-2.4106614e+87
-3.1058718e+87
-2.4434552e+87
-3.172724e+87
-2.7247051e+87
-2.1708688e+87
1.644373e+87
7.3114585e+86
-3.170693e+87
-2.4841493e+87
-3.3661945e+87
-2.5507868e+87
1.3180554e+87
-1.1453856e+88
-1.1479644e+88
1.7199073e+87
3.9729665e+87
-1.2558845e+88
-1.3723766e+88
-1.3506182e+88
-1.2382003e+88
-1.1244155e+88
1.1569112e+87
7.1021193e+86
-7.7843267e+86
8.8908236e+86
-6.4671674e+86
1.0599657e+87
-8.8390376e+86
5.5434622e+86
7.0235749e+86
-7.8673493e+86
-1.4164945e+88
-3.0863426e+87
3.7534968e+87
-3.6888888e+87
3.2877504e+87
3.7662548e+87
-1.7703413e+87
-6.0301331e+88
-2.6069579e+87
2.7162729e+87
3.0451933e+87
1.1024207e+88
1.2894572e+87
7.252655e+86
-7.4004516e+86
5.9972494e+86
-9.0718987e+86
-1.3869124e+88
2.8007511e+87
3.0583789e+87
3.4335528e+87
-2.9511745e+87
-2.0847081e+87
3.2949282e+87
2.3132823e+87
-8.7698933e+87
-1.8317483e+87
2.1498851e+87
5.9177997e+86
-1.5952012e+87
1.9431937e+87
-1.1229991e+88
3.3142192e+86
8.4848851e+87
-1.0822253e+88
2.916899e+86
5.347219e+86
1.4191814e+87
8.6302459e+86
7.3146899e+86
-7.7305635e+86
-6.0674159e+86
1.3827587e+87
8.0182549e+87
-8.6708865e+85
8.0137388e+87
1.7175694e+87
-3.7268078e+85
-1.6791334e+87
2.0441699e+87
2.7210583e+86
9.0004913e+85
-7.6699171e+87
-1.9536662e+87
1.8050188e+87
4.4947283e+86
-1.772729e+87
1.6807171e+87
-7.5539836e+87
2.645101e+86
7.441146e+87
-7.4521971e+87
1.3846672e+86
3.1566966e+86
7.2278787e+87
-1.2209741e+87
1.2706629e+87
2.0016664e+86
-1.4659409e+87
1.5501853e+87
5.8870628e+85
-7.144555e+87
1.8153836e+86
2.5049006e+86
-5.1307536e+86
-1.7515534e+86
1.8143186e+86
1.4579865e+86
-1.3813467e+86
1.5941948e+86
-6.121899e+86
7.7384933e+85
5.8620705e+86
-6.1553456e+86
8.9352699e+85
9.0593621e+85
2.3569386e+86
2.1882243e+86
1.8422329e+86
-3.3024204e+87
-8.7675946e+85
-6.0211577e+85
4.7574242e+85
5.0031541e+85
-7.0668986e+86
6.2352119e+85
-7.902054e+84
-1.4637069e+85
3.0680318e+86
2.1893156e+86
1.9846827e+86
-3.4051121e+87
-9.1385142e+85
-5.7446605e+85
2.3242519e+86
2.1985051e+86
1.8334545e+86
-3.3826308e+87
-9.3853576e+85
-6.4861331e+85
2.221875e+86
2.0575733e+86
-3.332801e+87
-8.6285057e+85
-5.2310572e+85
2.9574668e+86
1.2532078e+87
8.0142265e+86
9.7461506e+86
-1.4586851e+88
-5.070027e+86
-3.6516917e+86
1.0344268e+87
9.193806e+86
-1.4683643e+88
-3.0140787e+86
1.5046098e+87
-4.8509937e+86
3.3901933e+87
4.2433295e+87
-6.0248148e+88
-2.5623739e+87
-1.7187635e+87
2.580035e+87
3.5718487e+87
-2.0106396e+87
-2.8627408e+87
-1.644643e+87
9.7044299e+87
-1.2237032e+88
1.9038485e+87
4.3503617e+86
9.1639392e+87
-1.1622532e+88
3.844911e+86
1.8498098e+87
4.8817881e+86
2.234097e+87
5.3910152e+86
1.6787203e+87
7.9863056e+87
-7.9550814e+87
6.9677378e+86
8.5430946e+87
-8.4678677e+87
1.5296479e+87
5.8543429e+86
-1.8150915e+87
1.6896933e+87
6.3178441e+86
7.1343758e+86
-5.5198168e+86
-1.9524554e+86
1.8075909e+86
5.6073323e+86
-1.8504197e+86
-5.2419522e+86
1.6916688e+86
4.9901455e+86
5.1157769e+86
-4.8839983e+86
3.8999161e+86
4.6993661e+86
1.6857424e+86
5.0194797e+86
-5.2117567e+86
4.9674674e+86
-4.9123517e+86
1.6354613e+86
-1.7826575e+86
1.7278337e+86
-1.5159042e+87
8.9753998e+87
-9.1082053e+87
5.2751114e+86
8.6811623e+87
-8.5938915e+87
5.7950792e+86
1.6579648e+87
5.9119139e+86
5.3064475e+86
-6.5534065e+86
-1.822097e+86
1.5779031e+86
5.6961223e+86
-1.6989499e+86
-6.2683074e+86
1.5119317e+86
5.9397799e+86
5.8820936e+86
-5.7117478e+86
7.0849634e+86
7.7658726e+86
-6.0111179e+86
-1.7354481e+86
1.6317306e+86
1.6647574e+86
5.8321367e+86
-5.5001981e+86
-5.8342674e+86
1.5224536e+86
-1.3305152e+87
-1.3077186e+88
-1.2805031e+88
-2.5007763e+86
-2.233751e+86
2.8564358e+86
2.6055882e+86
-2.7294092e+87
-2.8295896e+86
3.5619491e+86
-8.2283896e+86
-2.5583244e+87
2.1380147e+86
-6.5704547e+86
-2.535206e+87
2.6411667e+86
-2.6871512e+87
9.1901202e+85
1.6060898e+86
-5.8125988e+86
-4.8233111e+86
-4.8477788e+86
-5.7958441e+86
-5.892639e+85
-6.223487e+85
-6.3756937e+85
2.8601084e+85
-6.5788892e+85
1.3471161e+86
-3.7933674e+86
-3.2661789e+86
-3.7845787e+86
-3.2959402e+86
8.9014389e+85
1.9070105e+86
-6.0524334e+86
-5.7310486e+86
-4.7671442e+86
-5.0310517e+86
1.6316459e+86
-3.7708059e+86
-3.9588347e+86
-3.3292287e+86
-3.3894561e+86
7.5057218e+86
4.3297596e+86
-2.7104114e+87
-3.1347204e+87
-3.1216726e+87
-2.7138986e+87
-2.537073e+86
-1.5892839e+86
2.8622249e+86
2.3179948e+86
-2.7475805e+87
-2.1170671e+86
-8.1340318e+86
3.2443951e+86
-2.5938885e+87
2.0702428e+86
-6.8183506e+86
-2.5869047e+87
2.5658112e+86
-2.73067e+87
4.0873764e+86
9.1788345e+86
-3.2548104e+87
-3.090173e+87
-2.6960777e+87
-2.8273865e+87
-1.2242392e+88
-1.2224216e+88
-1.0655638e+88
-1.0736099e+88
-5.6566957e+86
7.6366426e+86
-2.3516985e+87
-2.4374065e+87
-1.9180178e+87
-1.9641856e+87
-2.3676715e+87
-2.3633669e+87
-1.9414197e+87
-1.9377294e+87
-9.7411271e+85
8.5001423e+85
1.5525839e+86
-6.1248067e+86
-5.7820997e+86
-4.8077828e+86
-5.0954351e+86
8.7816496e+85
-5.8694558e+86
-5.8824851e+86
-4.8837311e+86
-4.924046e+86
-9.5200617e+85
1.3314008e+86
-3.799874e+86
-4.0171377e+86
-3.3906538e+86
-3.4853792e+86
-3.8517775e+86
-3.8186613e+86
-3.3771024e+86
-3.3413705e+86
2.8437451e+85
-9.0211907e+85
8.5191144e+85
-1.0894522e+86
-1.0638966e+86
-1.4652969e+86
-1.4173307e+86
-9.6133687e+85
2.9478712e+85
9.4757698e+85
-1.0676028e+86
-1.1068166e+86
-1.5105638e+86
-1.4299928e+86
-4.9691223e+85
6.1951308e+85
-5.739066e+86
-5.6133056e+86
-2.2641025e+84
-2.4185864e+85
2.8077073e+85
4.1683803e+84
-2.3098334e+85
-2.1781162e+85
-3.3178127e+85
-3.5475816e+85
-2.21705e+85
2.5446022e+85
-2.208324e+85
-2.2205486e+85
-3.452241e+85
-3.3716855e+85
6.4609548e+84
-1.2288446e+86
-1.2118639e+86
1.0743878e+85
9.9975947e+85
-3.7963944e+85
5.7622822e+85
-5.7601286e+86
-1.7392115e+85
2.6484269e+85
9.5315971e+85
-1.0653664e+86
-1.1116265e+86
-1.5231633e+86
-1.4275649e+86
-8.8153225e+85
8.2549338e+85
-1.0844048e+86
-1.0643852e+86
-1.4378413e+86
-1.4757228e+86
-5.779101e+86
-2.557671e+85
-9.8647925e+85
2.4165906e+85
9.9231267e+85
-1.0753215e+86
-1.1090324e+86
-1.5321144e+86
-1.4540431e+86
-8.9406691e+85
8.7554552e+85
-1.0859175e+86
-1.0589637e+86
-1.4240737e+86
-1.4754035e+86
-4.3572102e+85
5.1969451e+85
-5.8758879e+86
-5.6930285e+86
-1.2858702e+85
-1.0396868e+86
9.981337e+85
-1.0726412e+86
-1.1125762e+86
-1.5265176e+86
-1.4336844e+86
2.4006164e+85
-9.2288085e+85
8.7739293e+85
-1.0906081e+86
-1.067019e+86
-1.4475219e+86
-1.4860439e+86
-3.0947488e+85
-5.7453845e+86
5.1245492e+85
-5.8098275e+86
-4.2806877e+86
1.2633164e+86
3.8350618e+86
-4.9729261e+86
-6.6391479e+86
-6.8870656e+86
-5.091298e+86
2.3594569e+86
-2.6674512e+87
-4.630673e+86
1.3247745e+86
4.1704933e+86
-5.1797509e+86
-5.0224918e+86
-6.7304379e+86
-7.103147e+86
2.9275827e+86
-2.7179888e+87
-2.0753276e+87
3.2806434e+86
1.4923596e+87
-2.5048005e+87
-2.560682e+87
-3.3008605e+87
-3.2064573e+87
5.0028672e+86
-1.6822035e+86
-2.727855e+87
2.5952239e+86
-6.2360567e+85
4.2152651e+86
1.0968814e+86
-5.1330332e+86
-6.841851e+86
-5.3002441e+86
-7.2520396e+86
4.4329908e+86
-2.7655748e+87
3.851763e+86
-5.1924018e+86
-5.0666159e+86
-7.1216367e+86
-6.8448162e+86
1.0792225e+87
-1.1768214e+88
2.3414419e+87
-1.1885868e+88
1.690377e+87
-2.5638003e+87
-2.6163549e+87
-3.2577308e+87
-3.4291196e+87
5.5767246e+86
-6.9877279e+86
5.4274307e+85
-2.333362e+85
-2.9956633e+85
4.1715385e+85
3.7028944e+85
-1.7426967e+85
4.6649797e+85
-2.4177676e+85
4.2059159e+85
6.0381619e+85
-2.6246647e+87
2.1883062e+86
-1.4131246e+86
1.7079962e+86
-1.1750903e+86
2.0452951e+86
5.4230864e+86
-6.8994046e+86
-2.915675e+85
3.321406e+85
-3.5275745e+85
2.8848925e+85
4.9140193e+85
1.7195278e+86
-3.2964321e+87
-1.7170215e+86
1.372527e+86
-1.5397808e+86
1.6495918e+86
5.3597548e+85
-2.7366555e+85
3.5640456e+85
-3.3816252e+85
3.128407e+85
-2.6954847e+87
2.7513248e+86
-1.4735474e+86
1.7920379e+86
-1.1459351e+86
2.0589748e+86
-3.3788413e+87
2.0461669e+86
1.7397279e+86
-1.4533162e+86
-1.7395135e+86
1.4928653e+86
2.5676569e+87
1.5114792e+86
-1.8201561e+86
-1.9461677e+86
1.3629792e+86
1.1278538e+86
-3.2734511e+87
7.0429631e+86
3.6787971e+85
-3.3293371e+85
-3.8786868e+85
3.0764321e+85
2.7688405e+85
1.7297048e+86
-1.7345872e+86
1.391927e+86
1.1231661e+86
-1.8978542e+86
5.4758159e+86
4.0822156e+85
-3.7527801e+85
-3.1822623e+85
3.1283162e+85
2.7436578e+85
4.8332577e+85
-3.1508746e+85
3.1022299e+85
-3.7520711e+85
2.7048443e+85
-2.6075586e+87
2.0346581e+86
1.4327278e+86
1.2320009e+86
-1.6946343e+86
-1.9643011e+86
1.7420874e+86
-1.7681547e+86
-2.0039414e+86
1.3832528e+86
1.2014682e+86
-3.298616e+87
1.0886008e+87
5.3160625e+86
6.4897718e+86
-8.018646e+86
1.1410295e+88
-9.0985989e+86
-7.5545344e+86
-9.0969491e+86
6.270051e+86
7.39232e+86
-1.4420391e+88
1.1325246e+87
-1.0305614e+87
7.6032892e+86
8.8412951e+86
-6.2746931e+86
-7.8603064e+86
1.2797515e+87
1.1231754e+88
7.0126642e+86
-8.1163714e+86
-9.0141511e+86
5.6073926e+86
-1.4089999e+88
-3.8079176e+87
3.2049613e+87
3.8284152e+87
-6.1485658e+88
-3.2081789e+87
-1.8753574e+87
3.7782252e+87
2.9520756e+87
-2.6278538e+87
-9.2693549e+87
-1.6292165e+87
1.8291906e+87
5.9860272e+86
-1.4415801e+87
1.5879587e+87
4.0719416e+86
-1.1593269e+88
3.389806e+87
2.7937978e+87
2.82611e+87
3.4225719e+87
-2.8710932e+87
-2.1782241e+87
2.5439004e+87
8.8872973e+87
-1.127126e+88
2.7861706e+86
5.0170656e+86
-6.7026068e+86
-7.9604977e+86
8.590602e+86
6.8596697e+86
-2.5976522e+87
-1.5258538e+86
3.3519974e+87
1.9219339e+86
1.4992322e+86
-1.8870039e+86
-1.6124157e+86
1.3133091e+86
-1.3369386e+86
1.643314e+86
1.2777221e+86
1.4296701e+86
-1.7167553e+86
-1.9499607e+86
-3.272402e+87
-2.6373169e+87
3.3956297e+87
1.4364367e+86
-1.9286814e+86
-1.7721142e+86
1.187284e+86
1.1562398e+86
1.3711955e+86
-1.873395e+86
-1.9952509e+86
-3.3698707e+87
1.3567818e+87
6.4664844e+86
5.5688419e+86
-7.7613737e+86
-9.3485238e+86
1.4023449e+87
8.2704088e+87
-1.2092215e+86
8.5826484e+87
1.5788919e+87
6.8978601e+85
-1.5670739e+87
1.8839381e+87
3.3071924e+86
2.3853372e+86
-8.3125855e+87
-1.5448867e+87
1.4576569e+87
5.2372551e+86
-1.4188482e+87
1.4242593e+87
-8.3216779e+87
3.3510133e+86
7.81714e+87
-7.7328397e+87
4.6925676e+86
6.5691212e+86
-2.1108147e+86
-2.6745145e+87
2.7357186e+86
-1.4197298e+86
-1.0900537e+86
2.0887964e+86
1.843465e+86
-2.6931888e+87
2.0565055e+86
-1.4704097e+86
-1.2277952e+86
1.702479e+86
1.5878354e+86
1.6760615e+86
-1.5717495e+86
-1.749495e+86
1.3973626e+86
2.1246394e+86
1.7678698e+86
-1.7210101e+86
-1.4095582e+86
1.533309e+86
1.2415703e+87
7.3550103e+87
4.437229e+85
7.3576277e+87
1.2911241e+87
-4.9722641e+83
-1.526415e+87
1.5126088e+87
8.9555499e+85
1.6588301e+85
-4.8699733e+86
-1.7521021e+86
1.6127467e+86
4.2621074e+86
-1.6415011e+86
1.5494797e+86
-4.751913e+86
2.6190685e+86
4.662171e+86
-4.9433414e+86
1.6185342e+86
2.9970947e+86
6.7234436e+86
-9.4733983e+85
8.5343037e+85
1.5151369e+86
-1.0795957e+86
1.2098815e+86
1.0600204e+86
-5.6695535e+86
1.4637791e+86
1.9862163e+86
-5.1471203e+86
-1.4945423e+86
1.5326482e+86
-1.2190268e+86
1.3430724e+86
-5.6056228e+86
5.4848267e+86
-5.6369058e+86
4.7328195e+85
4.9031435e+85
4.1926828e+85
-6.9887878e+86
-1.0478783e+85
-1.5583148e+85
5.827036e+85
4.5213209e+85
4.8707127e+85
-7.1350759e+86
-9.5175137e+84
-1.5955346e+85
-8.768308e+84
1.1370215e+85
1.1387223e+85
-1.4839593e+86
1.1441216e+85
-2.4820671e+84
-3.6407441e+84
1.1497445e+85
1.0358324e+85
-1.5088158e+86
-3.8556467e+84
-3.0281698e+84
4.5542444e+85
4.2049233e+85
4.8757871e+85
-7.1955978e+86
-1.1401851e+85
-1.64127e+85
5.9682572e+85
4.6508958e+85
4.8955148e+85
-7.183765e+86
-9.2095289e+84
-1.547753e+85
4.3099147e+85
4.1686338e+85
4.8603455e+85
-7.0923866e+86
-1.1416197e+85
-1.6207865e+85
5.1129303e+85
4.6465393e+85
4.9175036e+85
-7.2986336e+86
-1.0234161e+85
-1.6023066e+85
4.1216662e+85
4.3308521e+85
4.924431e+85
-7.2300351e+86
-1.1232071e+85
-1.5672395e+85
4.779881e+85
4.9686765e+85
-7.1454742e+86
5.4310719e+85
-8.5197598e+84
-1.4361427e+85
2.1015219e+86
1.8110673e+86
2.1699535e+86
-3.3286498e+87
-9.1506425e+85
-6.6805377e+85
2.6991453e+86
2.1624968e+86
1.9925287e+86
-3.4067233e+87
-9.1464855e+85
-6.0234406e+85
-1.9941705e+86
2.2638654e+86
2.1218992e+86
-3.3834124e+87
2.5375884e+86
-5.3811192e+85
-8.4957312e+85
1.0646525e+87
1.0466609e+87
8.7937328e+86
-1.4987284e+88
-4.7643043e+86
-3.5295051e+86
2.2470161e+86
1.89435e+86
-3.4353923e+87
-6.6683559e+85
-9.2237433e+85
1.0781704e+87
9.7725715e+86
-1.4958711e+88
-3.1068454e+86
-4.6652854e+86
1.58914e+87
-9.9465007e+87
3.9362952e+86
-9.9137825e+87
5.1922924e+86
-1.3516939e+87
-1.2549497e+88
4.0370334e+86
-1.2551839e+88
2.947529e+86
-1.3406055e+87
9.1045713e+87
-9.084068e+87
1.2308863e+87
5.2425251e+86
8.4063937e+87
-8.4110951e+87
5.7823455e+86
1.3829665e+87
6.074077e+86
1.3575514e+87
5.6088298e+86
1.4758551e+86
5.4235449e+86
-5.1228967e+86
6.8829026e+86
5.9114014e+86
-5.6312224e+86
1.3245898e+86
5.7254351e+86
-1.5666112e+86
1.4076234e+86
6.1199231e+86
7.0871542e+86
-5.5330282e+86
-1.5825249e+86
1.415537e+86
-1.5308767e+86
-5.2018041e+86
1.3455614e+86
5.1363445e+86
-4.8699313e+86
-1.2557932e+86
6.7726692e+86
-6.5359678e+86
5.1234474e+86
6.7546868e+86
-6.3302425e+86
5.6267524e+86
1.2812293e+86
5.5504806e+86
5.0295601e+86
-6.5484224e+86
-1.3757663e+86
1.1814824e+86
-1.2830231e+86
-6.2934958e+86
1.1382525e+86
6.1980982e+86
-6.0226603e+86
-1.3234563e+87
-4.3631852e+86
-6.1202907e+86
1.3139841e+87
-4.193378e+86
-5.9870076e+86
-2.1171001e+86
-1.9128202e+86
1.6941368e+86
1.8878478e+86
1.9113829e+86
-2.7770067e+87
-3.5287817e+85
-6.3457123e+85
-2.5581609e+86
3.1806852e+86
-3.2516235e+87
1.7202093e+86
-3.2290808e+87
1.8848008e+86
1.611949e+86
-2.755352e+87
-6.5040609e+85
-3.6661294e+85
7.6363606e+85
-5.3055312e+85
6.5816986e+85
-4.819044e+86
-3.6936442e+85
7.1317263e+85
4.2228242e+85
-4.8257531e+86
-7.2002229e+85
6.8400897e+85
-4.7793521e+86
-4.7876983e+86
-1.8287735e+84
3.4140236e+85
-8.4711099e+85
-8.4485242e+85
-6.8566071e+85
-6.8511187e+85
7.1856004e+84
8.5461907e+84
-1.6209839e+85
-1.7433319e+85
-1.226586e+85
-1.1204502e+85
-4.6938505e+84
-1.736328e+85
-9.9032354e+84
-1.1018121e+85
-7.2275898e+84
6.6093663e+84
-8.1439415e+84
-1.5636232e+85
-1.005932e+85
-1.0690902e+85
-7.4398082e+84
-8.0400298e+84
-3.1352474e+84
-8.0968241e+84
4.6819341e+84
-1.8076291e+85
-1.9051784e+85
-9.3648431e+84
2.8938438e+85
-5.9120227e+85
-6.1710713e+85
-5.9588737e+85
-6.3172556e+85
-9.0215571e+84
-8.1511652e+84
-1.829339e+85
-1.8215699e+85
-5.8555056e+84
4.1943677e+85
-8.2803844e+85
-8.7991609e+85
-6.7095137e+85
-7.11969e+85
3.5906211e+85
-6.1442167e+85
-6.460638e+85
-5.8547072e+85
-6.3063259e+85
4.1312805e+85
7.2819746e+85
-4.8414476e+86
7.8240134e+85
6.2758647e+85
-4.8400577e+86
-2.6379507e+85
7.2248562e+85
3.9878937e+85
-4.842216e+86
6.869357e+85
-4.8312971e+86
-2.5152745e+85
-5.6930504e+84
3.7603406e+85
-6.7485408e+85
-7.1854403e+85
-8.8796452e+85
-8.3452534e+85
-1.8256097e+84
-8.4915832e+85
-8.5168873e+85
-6.937803e+85
-6.9110175e+85
-2.336134e+85
3.2910415e+85
-5.952323e+85
-6.3029554e+85
-6.3979978e+85
-6.6315534e+85
-6.0092523e+85
-6.3855709e+85
-5.9727353e+85
-6.2001272e+85
-2.4830241e+86
-1.9979168e+86
2.3667891e+86
2.7727662e+86
-2.7762721e+87
-2.5897077e+86
3.2797316e+86
-8.3152169e+86
-2.6205036e+87
2.1096403e+86
-6.696048e+86
-2.5975634e+87
2.630126e+86
-2.7339392e+87
-2.1245283e+86
-1.7371101e+86
1.7230891e+86
1.8966693e+86
1.7908266e+86
-2.8025459e+87
-3.6312403e+85
-6.3615501e+85
-2.3702347e+86
3.0052295e+86
-3.3061586e+87
1.6260903e+86
-3.2804968e+87
1.5916655e+86
1.8538309e+86
-2.782892e+87
-4.3004122e+85
-6.9286551e+85
5.7371172e+86
3.5647616e+86
-2.7880436e+87
-3.2044851e+87
-3.1754058e+87
-2.7850843e+87
2.0232047e+86
2.03403e+86
-6.7921365e+86
-2.6533465e+87
2.4599267e+86
-8.1237889e+86
3.1714723e+86
-2.6386132e+87
-1.4201938e+86
2.6144826e+86
2.1822531e+86
-2.7877395e+87
2.4182046e+86
-2.7711443e+87
3.075392e+86
-2.8019177e+87
-3.2031125e+87
-3.3482614e+87
-2.9205889e+87
-5.1381054e+86
-2.4338618e+87
-2.49036e+87
-1.9785764e+87
-2.0134822e+87
-2.3625122e+87
-1.9610404e+87
-1.9121394e+87
-2.40172e+87
-6.7347654e+85
7.2721096e+85
1.1255567e+86
-6.1935191e+86
-5.8829969e+86
-4.8717104e+86
-5.1335728e+86
7.6287669e+85
-1.5324245e+86
-4.9515919e+86
-5.985017e+86
-5.9461437e+86
-4.9770368e+86
-8.1939553e+85
1.2106981e+86
-3.7774013e+86
-3.9772028e+86
-3.3835638e+86
-3.4908429e+86
-1.3635669e+86
-3.8504295e+86
-3.4233659e+86
-3.8240818e+86
-3.385163e+86
-1.3938795e+86
7.8416432e+85
-4.8197663e+86
-5.8187938e+86
-6.1096177e+86
-5.0784772e+86
8.1765011e+85
-4.9209928e+86
-5.9435073e+86
-5.8775565e+86
-4.9204323e+86
1.2012505e+86
-3.8781992e+86
-3.4498162e+86
-3.8790022e+86
-3.4243177e+86
-3.7737717e+86
-3.973755e+86
-3.3592617e+86
-3.4781637e+86
3.508871e+85
7.3549483e+85
-5.8186854e+85
-4.9062264e+86
7.8771126e+85
-4.8863018e+86
5.6404803e+85
-2.1220898e+85
7.1675466e+85
3.4898241e+85
-4.8735964e+86
-3.6019776e+85
6.8785946e+85
-4.8998073e+86
4.8581922e+85
7.0423805e+85
-4.8402589e+86
7.534874e+85
-4.8781896e+86
-3.3161499e+85
6.917765e+85
-4.8506001e+86
6.6859992e+85
-4.8212318e+86
-2.207973e+85
-6.5780981e+84
3.4026673e+85
-8.3865295e+85
-8.9160342e+85
-6.8193459e+85
-7.2461413e+85
-3.2180152e+84
-3.7711489e+85
-8.6521482e+85
-8.6507464e+85
-7.0470119e+85
-7.0578606e+85
-2.1655816e+85
3.1486529e+85
-5.9986712e+85
-6.3770825e+85
-6.4749681e+85
-6.7153451e+85
-3.4595296e+85
-6.1489977e+85
-6.1044415e+85
-6.4998256e+85
-6.3544268e+85
3.2144801e+85
-3.5049966e+84
-8.5309539e+85
-8.5171393e+85
-6.9577199e+85
-6.9295699e+85
-8.6965588e+84
-8.7871437e+85
-8.2535578e+85
-6.7500441e+85
-7.1650952e+85
-2.9846993e+85
-5.9136119e+85
-6.2542771e+85
-6.4195946e+85
-6.6048748e+85
-6.0133663e+85
-6.3851733e+85
-6.0308462e+85
-6.2730166e+85
-5.6559134e+84
-2.2709013e+85
5.7484463e+84
2.7950564e+85
-2.3140939e+85
-2.1895121e+85
-3.3742669e+85
-3.5500407e+85
-2.111237e+85
2.4816265e+85
-2.1899071e+85
-2.2127199e+85
-3.4400487e+85
-3.3154257e+85
-9.3223415e+84
1.1737215e+85
-1.2262209e+86
-1.1949706e+86
-3.3898484e+84
-2.3428929e+85
5.0742036e+84
2.810487e+85
-3.3116424e+85
-2.167576e+85
-2.30001e+85
-3.5328133e+85
-2.113969e+85
2.5008138e+85
-2.1977084e+85
-2.2078586e+85
-3.4518227e+85
-3.3617511e+85
7.2350999e+84
-1.2248071e+86
1.0901669e+85
-1.2138762e+86
7.8361261e+83
-4.6323294e+84
-1.3182362e+84
1.1463323e+85
-2.9394686e+85
-4.6718984e+84
1.1378907e+85
1.3855095e+84
-2.9090057e+85
-1.1442298e+84
-2.7432329e+85
2.0967572e+84
-1.9371251e+84
-2.7928021e+85
1.3157943e+84
-4.3729485e+84
1.1199077e+85
-2.8803179e+85
-4.5088957e+84
1.1331469e+85
-2.9030485e+85
-1.592506e+84
-2.7878474e+85
-2.7390279e+85
-2.6310625e+84
-2.3791381e+85
4.5828138e+84
2.8189897e+85
-3.311361e+85
-2.1694495e+85
-2.2810867e+85
-3.5267854e+85
-2.1895764e+85
-5.0642774e+84
2.5933125e+85
-3.4636734e+85
-2.2209022e+85
-2.211543e+85
-3.3805529e+85
6.1706936e+84
-1.0463335e+85
-1.2341045e+86
1.013958e+85
-1.2156159e+86
-5.4593992e+84
-2.2731267e+85
2.8376017e+85
-3.3524666e+85
-2.1798639e+85
-2.2986303e+85
-3.5380402e+85
-2.0850441e+85
2.4761462e+85
-3.4197076e+85
-2.1868122e+85
-2.167267e+85
-3.2996789e+85
8.7080829e+84
-1.2039173e+86
-1.2330092e+86
-2.9338738e+84
-2.3807305e+85
4.2434036e+84
2.903406e+85
-2.3122121e+85
-2.1840849e+85
-3.3417922e+85
-3.5687492e+85
-2.1866043e+85
-5.4745982e+84
2.6429848e+85
-2.2172486e+85
-2.2203192e+85
-3.4742614e+85
-3.3807992e+85
5.8632155e+84
-1.0224528e+85
-1.2425076e+86
8.9541385e+84
-1.2312749e+86
-5.6693826e+84
-2.2679487e+85
2.8486336e+85
-2.3103065e+85
-2.1809684e+85
-3.3679599e+85
-3.5611435e+85
-2.1038379e+85
2.5334344e+85
-3.4300952e+85
-2.2040463e+85
-2.1824174e+85
-3.3113286e+85
8.564372e+84
-1.2018419e+86
-1.2327653e+86
-2.1031259e+84
-2.4553094e+85
2.9240971e+85
-2.3144825e+85
-2.1838444e+85
4.0955122e+84
-3.3441417e+85
-3.5519676e+85
-2.2691458e+85
-4.2843484e+84
2.7074345e+85
-2.2207177e+85
-2.2337511e+85
-3.495948e+85
-3.3955079e+85
5.183183e+84
-8.7624731e+84
-1.239651e+86
-1.2200447e+86
8.952895e+84
-9.0498767e+85
2.5253677e+85
9.4166322e+85
-1.0555611e+86
-1.417855e+86
-1.0779936e+86
-1.4706682e+86
-4.7951759e+84
-2.3096423e+85
2.8800485e+85
-2.3068043e+85
-2.1855179e+85
-3.3804763e+85
-3.5526039e+85
-2.152415e+85
2.5891161e+85
-2.1834358e+85
-2.2017734e+85
-3.4534862e+85
-3.3233702e+85
7.3640579e+84
-1.2137774e+86
-1.2385491e+86
4.2698331e+85
-5.647597e+86
9.7839065e+85
5.1841368e+85
-5.7869342e+86
2.5106003e+85
1.0214443e+86
-1.0652058e+86
-1.1026083e+86
-1.5202147e+86
-1.4448475e+86
1.3125061e+85
-9.0637738e+85
9.1492871e+85
-1.0857905e+86
-1.0550875e+86
-1.4427571e+86
-1.4848585e+86
-1.0075097e+86
2.268281e+85
1.0085979e+86
-1.0670516e+86
-1.0966151e+86
-1.5199339e+86
-1.4355554e+86
-3.1397993e+85
4.8697705e+85
-5.7484479e+86
-5.8125618e+86
9.9559476e+85
-4.6042802e+86
3.8950587e+86
-5.2294228e+86
-7.0721055e+86
-5.1174904e+86
-6.8184927e+86
-4.9333076e+86
8.4412896e+85
4.1965477e+86
-5.3225584e+86
-7.2727161e+86
-5.1749757e+86
-6.9483603e+86
-1.9711178e+86
2.3257874e+86
-2.7829978e+87
-2.7251014e+87
-1.0543132e+86
-9.543796e+84
1.0040443e+86
2.1255799e+85
-1.4517963e+86
-1.0804182e+86
-1.1236054e+86
-1.5440643e+86
-2.5484242e+85
-5.8199795e+86
4.4252287e+85
-9.4515636e+85
-2.1257756e+85
8.9979067e+85
-1.0955489e+86
-1.0739879e+86
-1.5052018e+86
-1.4629995e+86
-4.4489498e+85
-5.8852437e+86
-2.2305288e+85
-1.0084366e+86
1.0313989e+86
-1.0772945e+86
-1.1119188e+86
-1.4697085e+86
-1.5459647e+86
-9.2129837e+85
9.3101201e+85
-1.4899174e+86
-1.0869373e+86
-1.0612522e+86
-1.4344463e+86
-3.7324261e+85
-5.9547096e+86
-5.75803e+86
-1.3677749e+85
-5.3784068e+86
4.4734637e+86
-7.0027786e+86
-5.295501e+86
-5.4303362e+86
-7.3864902e+86
-4.7616495e+86
4.0712688e+86
-5.3350105e+86
-5.1967133e+86
-7.2361734e+86
-6.9979313e+86
-1.3170127e+86
-2.7946311e+87
-2.8271499e+87
5.5261191e+86
3.7964185e+85
-6.9441752e+86
-2.6464171e+85
4.0324071e+85
-3.0692109e+85
3.3635549e+85
-7.5581734e+84
1.1112125e+86
-1.4085442e+86
1.0502648e+85
-5.1875669e+84
7.9187717e+84
7.1357285e+84
-6.4118316e+84
1.1250425e+86
-1.4336794e+86
-5.7536545e+84
7.7771212e+84
-6.4693089e+84
6.7019806e+84
-8.0688882e+84
1.4420159e+86
1.1169634e+85
7.6591387e+84
-4.6572831e+84
8.4298874e+84
-5.8974265e+84
1.4659481e+86
-6.0146998e+84
7.2088931e+84
-5.2362404e+84
8.3521196e+84
1.1534344e+86
-7.7658716e+84
1.0562188e+85
-4.0402102e+84
9.3693483e+84
8.574291e+84
-5.2685285e+84
-8.6658625e+84
1.1574646e+85
-3.4565599e+84
9.800768e+84
9.0167412e+84
-4.6723945e+84
1.1650489e+86
-4.6341404e+84
-5.3332968e+84
9.2139558e+84
8.1169274e+84
-4.0029074e+84
-4.8054631e+84
9.7242111e+84
8.5644563e+84
4.4786858e+85
-2.487012e+85
3.8967388e+85
-1.9983394e+85
4.6013704e+85
5.6043376e+86
-7.0623898e+86
4.6873481e+85
-2.5100507e+85
4.0234202e+85
-3.1231837e+85
3.548543e+85
5.4288779e+85
-1.8952031e+85
4.545734e+85
-2.5291412e+85
4.0739937e+85
1.0882776e+86
-6.9678416e+84
-1.3976253e+86
9.9300302e+84
-6.160343e+84
-7.3862392e+84
6.614751e+84
5.7477344e+84
-7.2707303e+84
1.3965843e+86
-7.2796445e+84
1.039652e+85
5.8709149e+84
-6.0324784e+84
6.6988887e+84
1.1019667e+86
-1.4232045e+86
5.5252157e+84
-6.631941e+84
6.6045729e+84
-7.3382575e+84
1.4207837e+86
-6.508299e+84
6.6973163e+84
5.552899e+84
-7.274964e+84
5.393285e+86
3.385098e+85
-6.8561601e+86
-3.5898372e+85
2.5863672e+85
-3.2137615e+85
3.2047126e+85
3.8003665e+85