/*--------------------------------*- C++ -*----------------------------------*\
  =========                 |
  \\      /  F ield         | OpenFOAM: The Open Source CFD Toolbox
   \\    /   O peration     | Website:  https://openfoam.org
    \\  /    A nd           | Version:  7
     \\/     M anipulation  |
\*---------------------------------------------------------------------------*/
FoamFile
{
    version     2.0;
    format      ascii;
    class       volScalarField;
    location    "2000";
    object      pMean;
}
// * * * * * * * * * * * * * * * * * * * * * * * * * * * * * * * * * * * * * //

dimensions      [0 2 -2 0 0 0 0];

internalField   nonuniform List<scalar> 
34222
(
-1.9269596e+179
-1.8753603e+179
-1.9116954e+179
-1.9213822e+179
-1.9218298e+179
-1.966454e+179
-1.9629904e+179
-1.8184415e+179
-1.8796132e+179
-1.8560094e+179
-1.8560119e+179
-1.8785455e+179
-1.8808523e+179
-1.9350026e+179
-1.9607276e+179
-1.9327799e+179
-1.9287008e+179
-1.9598897e+179
-1.9151519e+179
-1.9257867e+179
-1.9743428e+179
-1.9722581e+179
-1.9497536e+179
-1.8256382e+179
-1.724069e+179
-1.8111595e+179
-1.7937737e+179
-1.7910505e+179
-1.8093768e+179
-1.8902329e+179
-1.8920635e+179
-1.8695333e+179
-1.8551541e+179
-1.8889076e+179
-1.8473692e+179
-1.8556582e+179
-1.8790567e+179
-1.8815819e+179
-1.9492366e+179
-1.9572798e+179
-1.9373728e+179
-1.9170252e+179
-1.9460023e+179
-1.9578675e+179
-1.9230959e+179
-1.9020611e+179
-1.9682334e+179
-1.9207543e+179
-1.9277302e+179
-1.9741884e+179
-1.9750569e+179
-1.9679289e+179
-1.9420517e+179
-1.9499847e+179
-1.9650819e+179
-1.9297618e+179
-1.9373471e+179
-1.8309893e+179
-1.7302083e+179
-1.8207471e+179
-1.8029229e+179
-1.7979009e+179
-1.8119859e+179
-1.7188345e+179
-1.7420475e+179
-1.7381973e+179
-1.7142469e+179
-1.8185475e+179
-1.7848442e+179
-1.78261e+179
-1.8132495e+179
-1.9241199e+179
-1.9293145e+179
-1.9006482e+179
-1.8710579e+179
-1.8722192e+179
-1.9030121e+179
-1.8921011e+179
-1.8700128e+179
-1.8616046e+179
-1.8608354e+179
-1.8903612e+179
-1.846866e+179
-1.8565795e+179
-1.8854174e+179
-1.8851673e+179
-1.933445e+179
-1.9401366e+179
-1.9645105e+179
-1.9713957e+179
-1.9541105e+179
-1.9256936e+179
-1.9064958e+179
-1.9294514e+179
-1.9623073e+179
-1.9272708e+179
-1.9123871e+179
-1.9727092e+179
-1.9211811e+179
-1.9278326e+179
-1.974251e+179
-1.9752081e+179
-1.9433184e+179
-1.9488014e+179
-1.9488859e+179
-1.9819715e+179
-1.9562352e+179
-1.966222e+179
-1.974232e+179
-1.9697403e+179
-1.9691773e+179
-1.973316e+179
-1.9725519e+179
-1.9753162e+179
-1.9787106e+179
-1.9579959e+179
-1.9775987e+179
-1.9610246e+179
-1.9445605e+179
-1.9476241e+179
-1.9786871e+179
-1.870703e+179
-1.832504e+179
-1.837439e+179
-1.8349238e+179
-1.7347438e+179
-1.8249219e+179
-1.8083074e+179
-1.8067481e+179
-1.8222931e+179
-1.8748085e+179
-1.723248e+179
-1.7248849e+179
-1.7477058e+179
-1.7447991e+179
-1.829538e+179
-1.7941548e+179
-1.7877427e+179
-1.821836e+179
-1.7140687e+179
-1.7451909e+179
-1.7412346e+179
-1.7084092e+179
-1.816696e+179
-1.7820873e+179
-1.7823243e+179
-1.8118693e+179
-1.9632654e+179
-1.980602e+179
-1.96572e+179
-1.9692171e+179
-1.9711583e+179
-1.935087e+179
-1.9392955e+179
-1.907458e+179
-1.885859e+179
-1.8790044e+179
-1.9065214e+179
-1.9047949e+179
-1.8668799e+179
-1.8722624e+179
-1.901999e+179
-1.8939297e+179
-1.8842601e+179
-1.8667654e+179
-1.8629767e+179
-1.8937959e+179
-1.8468181e+179
-1.8565125e+179
-1.8857781e+179
-1.8853364e+179
-1.9400971e+179
-1.9381508e+179
-1.9616995e+179
-1.9733823e+179
-1.9616056e+179
-1.9299493e+179
-1.9158926e+179
-1.9431579e+179
-1.9627387e+179
-1.9276215e+179
-1.9132879e+179
-1.9729948e+179
-1.9476357e+179
-1.9417905e+179
-1.9588918e+179
-1.9541689e+179
-1.9518742e+179
-1.9572173e+179
-1.9517641e+179
-1.9673251e+179
-1.963535e+179
-1.9530963e+179
-1.9656551e+179
-1.9571181e+179
-1.9652734e+179
-1.9597475e+179
-1.9572642e+179
-1.9623951e+179
-1.9591409e+179
-1.9969012e+179
-1.9665249e+179
-1.9648037e+179
-1.9600401e+179
-1.9575566e+179
-1.97263e+179
-1.9694442e+179
-1.9757083e+179
-1.9778057e+179
-1.9826809e+179
-1.9795214e+179
-1.9811388e+179
-1.9810274e+179
-1.9848715e+179
-1.9843421e+179
-1.9842036e+179
-1.9806755e+179
-1.9795168e+179
-1.9842726e+179
-1.9835256e+179
-1.9820854e+179
-1.9887262e+179
-1.9860208e+179
-1.9855975e+179
-1.9845913e+179
-1.9893575e+179
-1.9898624e+179
-1.9785128e+179
-1.9808392e+179
-1.9806982e+179
-1.9833478e+179
-1.9664775e+179
-1.987213e+179
-1.9845247e+179
-1.9869069e+179
-1.9828e+179
-1.9522789e+179
-1.9509957e+179
-1.9643665e+179
-1.9390412e+179
-1.9556691e+179
-1.9230465e+179
-1.8968995e+179
-1.8918537e+179
-1.9148031e+179
-1.9264007e+179
-1.8942291e+179
-1.8341721e+179
-1.8423121e+179
-1.8614633e+179
-1.8595928e+179
-1.8737801e+179
-1.8634443e+179
-1.8369845e+179
-1.773922e+179
-1.840589e+179
-1.8824636e+179
-1.8392156e+179
-1.8428406e+179
-1.8378782e+179
-1.8173409e+179
-1.7381552e+179
-1.8128505e+179
-1.8308054e+179
-1.8797591e+179
-1.8663637e+179
-1.8389514e+179
-1.8647938e+179
-1.8366819e+179
-1.7779614e+179
-1.7261065e+179
-1.7287983e+179
-1.7518566e+179
-1.7502553e+179
-1.8348595e+179
-1.7988592e+179
-1.797782e+179
-1.8290459e+179
-1.9305368e+179
-1.9293215e+179
-1.8956515e+179
-1.8965446e+179
-1.7188283e+179
-1.7206048e+179
-1.7507328e+179
-1.7467689e+179
-1.8290117e+179
-1.791555e+179
-1.7865125e+179
-1.8237217e+179
-1.7144222e+179
-1.7449627e+179
-1.7407184e+179
-1.7073174e+179
-1.8165104e+179
-1.7819142e+179
-1.7824042e+179
-1.8118475e+179
-1.9823301e+179
-1.9845646e+179
-1.9888356e+179
-1.9887646e+179
-1.9857031e+179
-1.9862224e+179
-1.9882164e+179
-1.9904692e+179
-1.9916121e+179
-1.9919351e+179
-1.9735837e+179
-1.9756471e+179
-1.980151e+179
-1.9434137e+179
-1.9786821e+179
-1.9457325e+179
-1.9110499e+179
-1.9217581e+179
-1.8953288e+179
-1.887174e+179
-1.8777747e+179
-1.8736557e+179
-1.9105036e+179
-1.9104672e+179
-1.86709e+179
-1.8710191e+179
-1.9015723e+179
-1.9026569e+179
-1.8853846e+179
-1.8671343e+179
-1.863087e+179
-1.8940772e+179
-1.9405777e+179
-1.9391589e+179
-1.9650152e+179
-1.977089e+179
-1.9621039e+179
-1.9301508e+179
-1.9166629e+179
-1.9443745e+179
-1.9339788e+179
-1.9281395e+179
-1.9630316e+179
-1.9536285e+179
-1.9506626e+179
-1.9603431e+179
-1.9609946e+179
-1.96915e+179
-1.9684065e+179
-1.9594908e+179
-1.9636145e+179
-1.972646e+179
-1.9760498e+179
-1.9753821e+179
-1.978298e+179
-1.9688898e+179
-1.9782641e+179
-1.9644166e+179
-1.9701002e+179
-1.9626934e+179
-1.9635228e+179
-1.9722048e+179
-1.9708986e+179
-1.9675876e+179
-1.9664429e+179
-1.9731957e+179
-1.9718811e+179
-1.9695428e+179
-1.9648172e+179
-1.9630887e+179
-1.968936e+179
-1.9686709e+179
-1.9586662e+179
-1.9565212e+179
-1.9659509e+179
-1.9659583e+179
-1.96764e+179
-1.9702883e+179
-1.9749507e+179
-1.9729964e+179
-1.96659e+179
-1.9730719e+179
-1.973379e+179
-1.9687749e+179
-1.9672675e+179
-1.981783e+179
-1.9798294e+179
-1.9642379e+179
-1.9637447e+179
-1.9761765e+179
-1.977405e+179
-1.9678631e+179
-1.9689772e+179
-1.9778032e+179
-1.9762957e+179
-1.9650156e+179
-1.9663811e+179
-1.9748458e+179
-1.9740047e+179
-1.9730371e+179
-1.9716804e+179
-1.9784762e+179
-1.977019e+179
-1.9693205e+179
-1.9701932e+179
-1.9756337e+179
-1.9745765e+179
-1.9834306e+179
-1.9817486e+179
-1.9870651e+179
-1.9849827e+179
-1.9848065e+179
-1.9843503e+179
-1.9881345e+179
-1.9878722e+179
-1.9823579e+179
-1.9825754e+179
-1.9882201e+179
-1.9889673e+179
-1.981819e+179
-1.9822488e+179
-1.9886534e+179
-1.9877929e+179
-1.9870991e+179
-1.9869455e+179
-1.9908163e+179
-1.9902783e+179
-1.9864532e+179
-1.9852836e+179
-1.9883829e+179
-1.989978e+179
-1.9901628e+179
-1.9899924e+179
-1.9935575e+179
-1.9932343e+179
-1.9892025e+179
-1.9878073e+179
-1.9909288e+179
-1.9927757e+179
-1.9917486e+179
-1.9916873e+179
-1.9957508e+179
-1.9950444e+179
-1.9869581e+179
-1.9913933e+179
-1.9904374e+179
-1.993674e+179
-1.9952789e+179
-1.9901919e+179
-1.9929265e+179
-1.9887071e+179
-1.9901424e+179
-1.9906685e+179
-1.9936032e+179
-1.9940333e+179
-1.9865077e+179
-1.9867129e+179
-1.9891264e+179
-1.9885743e+179
-1.9941458e+179
-1.9970694e+179
-1.9936318e+179
-1.9981588e+179
-1.9927498e+179
-1.9915513e+179
-1.9971505e+179
-1.9947975e+179
-1.9871229e+179
-1.9870333e+179
-1.9884306e+179
-1.9895777e+179
-1.9406528e+179
-1.9457387e+179
-1.9454606e+179
-1.9560412e+179
-1.9559657e+179
-1.9692468e+179
-1.9740208e+179
-1.9691808e+179
-1.9742091e+179
-1.9571789e+179
-1.9424466e+179
-1.9596248e+179
-1.8964289e+179
-1.9044581e+179
-1.8960428e+179
-1.9041691e+179
-1.8985988e+179
-1.9165182e+179
-1.8996146e+179
-1.9180871e+179
-1.9181733e+179
-1.9289126e+179
-1.9179404e+179
-1.9288111e+179
-1.943156e+179
-1.9606189e+179
-1.9437133e+179
-1.960793e+179
-1.9199184e+179
-1.9017838e+179
-1.9007792e+179
-1.9192116e+179
-1.8320247e+179
-1.8306358e+179
-1.8447338e+179
-1.8435715e+179
-1.799276e+179
-1.830383e+179
-1.8407445e+179
-1.8403548e+179
-1.8463782e+179
-1.8458631e+179
-1.8623237e+179
-1.8764774e+179
-1.875341e+179
-1.8613072e+179
-1.8574734e+179
-1.863289e+179
-1.8745465e+179
-1.8578896e+179
-1.8584144e+179
-1.8641553e+179
-1.8637091e+179
-1.8753239e+179
-1.8824306e+179
-1.8749834e+179
-1.8820722e+179
-1.87815e+179
-1.8774e+179
-1.8638236e+179
-1.8632788e+179
-1.8329416e+179
-1.8327014e+179
-1.8461309e+179
-1.8456206e+179
-1.8022024e+179
-1.7758581e+179
-1.8451382e+179
-1.8426952e+179
-1.871663e+179
-1.8730324e+179
-1.7806916e+179
-1.8449794e+179
-1.9374263e+179
-1.9385412e+179
-1.904091e+179
-1.903374e+179
-1.8863763e+179
-1.8705095e+179
-1.8423177e+179
-1.8391292e+179
-1.8682529e+179
-1.781026e+179
-1.8886068e+179
-1.7421606e+179
-1.8469306e+179
-1.8190801e+179
-1.8444539e+179
-1.8398123e+179
-1.8171224e+179
-1.8395085e+179
-1.8082225e+179
-1.7582893e+179
-1.7304594e+179
-1.7310594e+179
-1.7552717e+179
-1.8036303e+179
-1.8356876e+179
-1.9013018e+179
-1.8989821e+179
-1.9351988e+179
-1.9326234e+179
-1.8816698e+179
-1.8666401e+179
-1.8672984e+179
-1.8810797e+179
-1.8487826e+179
-1.849377e+179
-1.8360338e+179
-1.835857e+179
-1.8044026e+179
-1.8803996e+179
-1.8649052e+179
-1.8660475e+179
-1.879228e+179
-1.8469645e+179
-1.8480467e+179
-1.8350942e+179
-1.8340103e+179
-1.8032141e+179
-1.7779457e+179
-1.7776681e+179
-1.7218918e+179
-1.7242836e+179
-1.7543751e+179
-1.7540373e+179
-1.8348977e+179
-1.7979845e+179
-1.7985011e+179
-1.8277364e+179
-1.9480267e+179
-1.9483606e+179
-1.9663298e+179
-1.966239e+179
-1.965221e+179
-1.9454769e+179
-1.9472501e+179
-1.9627675e+179
-1.9226586e+179
-1.9034582e+179
-1.9024886e+179
-1.9211196e+179
-1.9237304e+179
-1.9040682e+179
-1.9048621e+179
-1.9232158e+179
-1.7184955e+179
-1.7210639e+179
-1.7491217e+179
-1.7441986e+179
-1.8289569e+179
-1.7914049e+179
-1.7863554e+179
-1.8238192e+179
-1.7145062e+179
-1.7449828e+179
-1.7407231e+179
-1.7072574e+179
-1.9911256e+179
-1.9897172e+179
-1.9922005e+179
-1.9920074e+179
-1.9918715e+179
-1.992362e+179
-1.9913279e+179
-1.9919792e+179
-1.9940139e+179
-1.9929923e+179
-1.9947507e+179
-1.9947475e+179
-1.9969278e+179
-1.9955983e+179
-1.9978291e+179
-1.9975526e+179
-1.9996858e+179
-1.9985658e+179
-1.9931601e+179
-2.0000332e+179
-2.0001239e+179
-1.9951299e+179
-1.9958421e+179
-1.9961633e+179
-1.981669e+179
-1.9999216e+179
-2.000055e+179
-1.9821453e+179
-1.9992536e+179
-1.9973857e+179
-1.9819975e+179
-1.9819348e+179
-1.9111904e+179
-1.9122839e+179
-1.8818813e+179
-1.8790834e+179
-1.8789717e+179
-1.8731225e+179
-1.9104952e+179
-1.9116533e+179
-1.8670825e+179
-1.8709137e+179
-1.9015288e+179
-1.9032477e+179
-1.9405689e+179
-1.9391007e+179
-1.96523e+179
-1.9773981e+179
-1.9395457e+179
-1.9438328e+179
-1.9629996e+179
-1.9751172e+179
-1.9743776e+179
-1.9380052e+179
-1.9359588e+179
-1.9609444e+179
-1.9710668e+179
-1.9728229e+179
-1.981161e+179
-1.9797997e+179
-1.9840265e+179
-1.9729297e+179
-1.9724438e+179
-1.9735676e+179
-1.9736296e+179
-1.9801648e+179
-1.9801474e+179
-1.9814261e+179
-1.9816738e+179
-1.9793348e+179
-1.9790621e+179
-1.9774186e+179
-1.976594e+179
-1.9771146e+179
-1.9786789e+179
-1.9784284e+179
-1.9769413e+179
-1.9766992e+179
-1.975205e+179
-1.9784418e+179
-1.9700431e+179
-1.9697178e+179
-1.9750513e+179
-1.9771781e+179
-1.9799375e+179
-1.974518e+179
-1.9749176e+179
-1.9696651e+179
-1.9692897e+179
-1.9744458e+179
-1.9739771e+179
-1.975164e+179
-1.9747976e+179
-1.9782812e+179
-1.9812617e+179
-1.9787316e+179
-1.9813428e+179
-1.9837807e+179
-1.9826085e+179
-1.9780029e+179
-1.9773374e+179
-1.9766052e+179
-1.9770451e+179
-1.9759433e+179
-1.9753775e+179
-1.9762632e+179
-1.9764242e+179
-1.981262e+179
-1.9808148e+179
-1.9834152e+179
-1.9834807e+179
-1.980111e+179
-1.9831145e+179
-1.9794616e+179
-1.9817809e+179
-1.9731323e+179
-1.9635508e+179
-1.9613707e+179
-1.9714121e+179
-1.9681222e+179
-1.9805156e+179
-1.9795648e+179
-1.9424429e+179
-1.9411726e+179
-1.9660729e+179
-1.9777703e+179
-1.9762028e+179
-1.9781556e+179
-1.9739517e+179
-1.9733671e+179
-1.9781288e+179
-1.9644785e+179
-1.9673802e+179
-1.9772382e+179
-1.9751169e+179
-1.9809783e+179
-1.9762366e+179
-1.9750472e+179
-1.9799632e+179
-1.9736679e+179
-1.9727316e+179
-1.9857733e+179
-1.9847799e+179
-1.9717224e+179
-1.9841966e+179
-1.9843389e+179
-1.9712285e+179
-1.9766124e+179
-1.9770921e+179
-1.9859642e+179
-1.9850903e+179
-1.9840045e+179
-1.975888e+179
-1.9750035e+179
-1.9835431e+179
-1.9810105e+179
-1.9802527e+179
-1.9870353e+179
-1.9861481e+179
-1.9787166e+179
-1.9851975e+179
-1.9792366e+179
-1.9844266e+179
-1.9822548e+179
-1.9736639e+179
-1.9731237e+179
-1.981294e+179
-1.9797687e+179
-1.971598e+179
-1.9706633e+179
-1.9794625e+179
-1.9745793e+179
-1.9808668e+179
-1.974825e+179
-1.979985e+179
-1.9775848e+179
-1.9766207e+179
-1.9834223e+179
-1.9824951e+179
-1.9892019e+179
-1.9879166e+179
-1.9865955e+179
-1.9852384e+179
-1.9821641e+179
-1.9817466e+179
-1.9831952e+179
-1.9825519e+179
-1.9809849e+179
-1.9804632e+179
-1.9816962e+179
-1.9815427e+179
-1.9861316e+179
-1.9857305e+179
-1.9880712e+179
-1.9881997e+179
-1.9850282e+179
-1.9845041e+179
-1.9876866e+179
-1.986834e+179
-1.9783643e+179
-1.9779053e+179
-1.9789591e+179
-1.9791023e+179
-1.9793334e+179
-1.9798106e+179
-1.9805957e+179
-1.9800971e+179
-1.9841204e+179
-1.9836143e+179
-1.9868496e+179
-1.9866897e+179
-1.9826222e+179
-1.9854844e+179
-1.9819503e+179
-1.9839892e+179
-1.9846177e+179
-1.9853222e+179
-1.9903671e+179
-1.9905596e+179
-1.9830711e+179
-1.9842484e+179
-1.9897089e+179
-1.9882795e+179
-1.9919042e+179
-1.9869428e+179
-1.9864074e+179
-1.9923996e+179
-1.9851589e+179
-1.9856457e+179
-1.9917662e+179
-1.990716e+179
-1.9912918e+179
-1.9911914e+179
-1.9905701e+179
-1.9909901e+179
-1.9944125e+179
-1.9897602e+179
-1.9891352e+179
-1.995085e+179
-1.9949766e+179
-1.9893269e+179
-1.988148e+179
-1.9938583e+179
-1.9935813e+179
-1.988055e+179
-1.9878956e+179
-1.9939683e+179
-1.9933558e+179
-1.9879335e+179
-1.9866415e+179
-1.9920093e+179
-1.9917707e+179
-1.9924257e+179
-1.9972641e+179
-1.9977422e+179
-1.9910211e+179
-1.9918692e+179
-1.9973814e+179
-1.9963829e+179
-1.9908354e+179
-1.9909942e+179
-1.9961001e+179
-1.9964956e+179
-1.9957634e+179
-1.9906837e+179
-1.9895625e+179
-1.9944298e+179
-1.9944688e+179
-1.9950599e+179
-1.9923708e+179
-1.9991437e+179
-1.9998486e+179
-1.9937636e+179
-1.9946154e+179
-1.9997387e+179
-1.9987561e+179
-1.9953549e+179
-1.9936852e+179
-1.9970883e+179
-1.993546e+179
-1.9939461e+179
-1.9987803e+179
-1.9991408e+179
-1.9924667e+179
-1.9933578e+179
-1.9986304e+179
-1.997394e+179
-1.9944955e+179
-1.994517e+179
-1.9981269e+179
-1.9975702e+179
-1.9962991e+179
-1.9953125e+179
-1.9979318e+179
-1.9995159e+179
-1.9961748e+179
-1.9965476e+179
-1.9999445e+179
-1.9993256e+179
-1.9962063e+179
-1.999391e+179
-1.9951149e+179
-1.9974923e+179
-1.9963041e+179
-1.9996777e+179
-1.996272e+179
-1.9983397e+179
-2.002481e+179
-2.0000443e+179
-1.9999427e+179
-2.0034322e+179
-1.9998107e+179
-1.9990366e+179
-2.0030655e+179
-2.0016783e+179
-1.9986362e+179
-1.9985608e+179
-2.0012988e+179
-2.0017783e+179
-2.0011896e+179
-1.9979535e+179
-1.9966908e+179
-1.9995454e+179
-1.9996922e+179
-1.9969501e+179
-1.9967907e+179
-2.0005697e+179
-1.9967859e+179
-1.996679e+179
-2.0001255e+179
-1.9985875e+179
-1.9473748e+179
-1.9581038e+179
-1.9466545e+179
-1.9570259e+179
-1.9460321e+179
-1.9526792e+179
-1.9526104e+179
-1.9459349e+179
-1.9456069e+179
-1.9523552e+179
-1.9453306e+179
-1.9519298e+179
-1.9669482e+179
-1.9606443e+179
-1.9669246e+179
-1.9605356e+179
-1.9599427e+179
-1.9662246e+179
-1.9603049e+179
-1.966738e+179
-1.9703502e+179
-1.97537e+179
-1.9798342e+179
-1.9799551e+179
-1.9752883e+179
-1.9750538e+179
-1.9848536e+179
-1.9846294e+179
-1.9849564e+179
-1.9849584e+179
-1.9750577e+179
-1.9746613e+179
-1.979698e+179
-1.9790467e+179
-1.9845731e+179
-1.984061e+179
-1.9845656e+179
-1.9838505e+179
-1.9714896e+179
-1.9766793e+179
-1.9484709e+179
-1.9589037e+179
-1.9481918e+179
-1.9588705e+179
-1.9725032e+179
-1.9774362e+179
-1.9723662e+179
-1.9775158e+179
-1.8973439e+179
-1.8932955e+179
-1.8930999e+179
-1.897118e+179
-1.8969363e+179
-1.9034918e+179
-1.9053694e+179
-1.907688e+179
-1.903652e+179
-1.9078381e+179
-1.8964282e+179
-1.8928475e+179
-1.8967099e+179
-1.8926584e+179
-1.903258e+179
-1.9074636e+179
-1.9071783e+179
-1.9030118e+179
-1.8978381e+179
-1.9060224e+179
-1.9198133e+179
-1.919155e+179
-1.9307116e+179
-1.9298485e+179
-1.8987177e+179
-1.8984152e+179
-1.9068096e+179
-1.9065816e+179
-1.9207634e+179
-1.931578e+179
-1.9205195e+179
-1.9314163e+179
-1.9159376e+179
-1.922082e+179
-1.921951e+179
-1.9157647e+179
-1.9365845e+179
-1.9301041e+179
-1.9365886e+179
-1.9300311e+179
-1.9214711e+179
-1.9155408e+179
-1.9217479e+179
-1.915311e+179
-1.929801e+179
-1.9363122e+179
-1.9359862e+179
-1.9295884e+179
-1.9496248e+179
-1.9604509e+179
-1.9492412e+179
-1.959703e+179
-1.974037e+179
-1.9733339e+179
-1.9793456e+179
-1.9782042e+179
-1.9505701e+179
-1.9611332e+179
-1.9501522e+179
-1.9609278e+179
-1.9746625e+179
-1.9797235e+179
-1.9745514e+179
-1.9799115e+179
-1.9228308e+179
-1.9335357e+179
-1.9224562e+179
-1.9332316e+179
-1.9008307e+179
-1.9089116e+179
-1.900314e+179
-1.9084814e+179
-1.8997345e+179
-1.9079314e+179
-1.8993764e+179
-1.9074887e+179
-1.9218663e+179
-1.9327304e+179
-1.9214981e+179
-1.9322382e+179
-1.8326313e+179
-1.8321238e+179
-1.8121321e+179
-1.8278928e+179
-1.8273679e+179
-1.8314845e+179
-1.8309773e+179
-1.8110069e+179
-1.8262888e+179
-1.8267526e+179
-1.8428615e+179
-1.8424948e+179
-1.8483845e+179
-1.8479936e+179
-1.842007e+179
-1.8414993e+179
-1.8476115e+179
-1.8471312e+179
-1.8002984e+179
-1.8356289e+179
-1.8354774e+179
-1.835598e+179
-1.8353484e+179
-1.8252114e+179
-1.8414278e+179
-1.8425441e+179
-1.842292e+179
-1.8412237e+179
-1.8409859e+179
-1.842077e+179
-1.8417793e+179
-1.8407306e+179
-1.8481334e+179
-1.8499542e+179
-1.8496791e+179
-1.8479223e+179
-1.8476901e+179
-1.8494603e+179
-1.8492609e+179
-1.8474496e+179
-1.8605194e+179
-1.8662704e+179
-1.860118e+179
-1.8659242e+179
-1.8776916e+179
-1.8774054e+179
-1.8847225e+179
-1.8844519e+179
-1.8768573e+179
-1.876283e+179
-1.883926e+179
-1.8833131e+179
-1.8596125e+179
-1.8654819e+179
-1.8591949e+179
-1.8649679e+179
-1.8554751e+179
-1.857567e+179
-1.8578677e+179
-1.8552673e+179
-1.8635979e+179
-1.8660675e+179
-1.8633618e+179
-1.8658787e+179
-1.8754093e+179
-1.8724479e+179
-1.8755984e+179
-1.872261e+179
-1.8557178e+179
-1.8558919e+179
-1.8581015e+179
-1.8582622e+179
-1.8561357e+179
-1.8563969e+179
-1.858766e+179
-1.8584932e+179
-1.8642294e+179
-1.866684e+179
-1.8644582e+179
-1.8669428e+179
-1.8639847e+179
-1.8664555e+179
-1.8662748e+179
-1.8638398e+179
-1.8733345e+179
-1.8730918e+179
-1.8765208e+179
-1.876278e+179
-1.8824732e+179
-1.8859016e+179
-1.8826766e+179
-1.8860963e+179
-1.8758361e+179
-1.8728535e+179
-1.8760519e+179
-1.8727047e+179
-1.882221e+179
-1.8856525e+179
-1.885415e+179
-1.8820351e+179
-1.8798222e+179
-1.8793721e+179
-1.8867442e+179
-1.8862583e+179
-1.8788578e+179
-1.8857263e+179
-1.8785004e+179
-1.8853266e+179
-1.8624773e+179
-1.8683519e+179
-1.8619201e+179
-1.8677858e+179
-1.8614787e+179
-1.8673449e+179
-1.8669662e+179
-1.8612691e+179
-1.8343972e+179
-1.8337386e+179
-1.8133296e+179
-1.8296125e+179
-1.8290276e+179
-1.8335039e+179
-1.8332446e+179
-1.8129401e+179
-1.82871e+179
-1.8285913e+179
-1.8446442e+179
-1.8502835e+179
-1.844202e+179
-1.8497314e+179
-1.8437535e+179
-1.8493055e+179
-1.8435833e+179
-1.849051e+179
-1.8006639e+179
-1.8002266e+179
-1.7863005e+179
-1.7759763e+179
-1.775717e+179
-1.7861317e+179
-1.8461992e+179
-1.841608e+179
-1.8414956e+179
-1.8550814e+179
-1.808207e+179
-1.8548452e+179
-1.8407145e+179
-1.8542254e+179
-1.8532045e+179
-1.8399987e+179
-1.8082122e+179
-1.8872743e+179
-1.8714104e+179
-1.8723135e+179
-1.8862572e+179
-1.8728194e+179
-1.8877227e+179
-1.8747391e+179
-1.8880157e+179
-1.8731671e+179
-1.7821762e+179
-1.7796433e+179
-1.7838899e+179
-1.8763143e+179
-1.8481129e+179
-1.9739278e+179
-1.9539349e+179
-1.9556365e+179
-1.9716871e+179
-1.9561441e+179
-1.9745811e+179
-1.9562974e+179
-1.9403055e+179
-1.9743689e+179
-1.9114761e+179
-1.9307554e+179
-1.9063025e+179
-1.9310229e+179
-1.9119943e+179
-1.9303689e+179
-1.9110015e+179
-1.9099444e+179
-1.9288508e+179
-1.9426991e+179
-1.909526e+179
-1.8852339e+179
-1.8701265e+179
-1.8707058e+179
-1.884705e+179
-1.8520232e+179
-1.8525446e+179
-1.839482e+179
-1.8388289e+179
-1.8078836e+179
-1.8371723e+179
-1.8379257e+179
-1.8512432e+179
-1.8052788e+179
-1.8503656e+179
-1.8684272e+179
-1.8840783e+179
-1.869342e+179
-1.883048e+179
-1.7806681e+179
-1.7802913e+179
-1.9115496e+179
-1.9114551e+179
-1.9432267e+179
-1.943689e+179
-1.7606463e+179
-1.7609629e+179
-1.7353548e+179
-1.7359192e+179
-1.8777781e+179
-1.8488973e+179
-1.8098459e+179
-1.8441224e+179
-1.8411515e+179
-1.8075426e+179
-1.8406328e+179
-1.8084384e+179
-1.7630974e+179
-1.726131e+179
-1.7264379e+179
-1.7602457e+179
-1.8032354e+179
-1.8356044e+179
-1.9277529e+179
-1.9087835e+179
-1.9079944e+179
-1.9273089e+179
-1.9064451e+179
-1.9073878e+179
-1.926531e+179
-1.9251177e+179
-1.9521905e+179
-1.9525018e+179
-1.9706104e+179
-1.9706071e+179
-1.9698477e+179
-1.9514664e+179
-1.9499886e+179
-1.9677881e+179
-1.8832478e+179
-1.8902912e+179
-1.8827642e+179
-1.8897615e+179
-1.864983e+179
-1.8646842e+179
-1.8708993e+179
-1.8705137e+179
-1.8658799e+179
-1.8718034e+179
-1.8653348e+179
-1.8712795e+179
-1.8823239e+179
-1.8893256e+179
-1.8819745e+179
-1.8889134e+179
-1.8470802e+179
-1.8527517e+179
-1.8468423e+179
-1.8524247e+179
-1.8479124e+179
-1.8536612e+179
-1.8474418e+179
-1.8531367e+179
-1.8373284e+179
-1.836855e+179
-1.8161981e+179
-1.8325399e+179
-1.8320774e+179
-1.8367405e+179
-1.8364972e+179
-1.8160139e+179
-1.8318114e+179
-1.8319322e+179
-1.8033593e+179
-1.8036789e+179
-1.8815434e+179
-1.8811964e+179
-1.8883732e+179
-1.8880525e+179
-1.8634327e+179
-1.8630124e+179
-1.8693108e+179
-1.8688668e+179
-1.8642729e+179
-1.8700613e+179
-1.8638062e+179
-1.8696638e+179
-1.8807818e+179
-1.8803465e+179
-1.8877383e+179
-1.8873127e+179
-1.8456151e+179
-1.8511969e+179
-1.8452253e+179
-1.8507356e+179
-1.8464457e+179
-1.8520105e+179
-1.8460483e+179
-1.8515568e+179
-1.8361629e+179
-1.8356725e+179
-1.8150694e+179
-1.8314493e+179
-1.8310098e+179
-1.8353457e+179
-1.8349466e+179
-1.8138227e+179
-1.8306207e+179
-1.8302644e+179
-1.8029801e+179
-1.8016458e+179
-1.78873e+179
-1.7779117e+179
-1.7772407e+179
-1.7886148e+179
-1.7760983e+179
-1.7769401e+179
-1.7881167e+179
-1.7868425e+179
-1.7646267e+179
-1.7215251e+179
-1.7231053e+179
-1.7520831e+179
-1.7541312e+179
-1.8348649e+179
-1.7980297e+179
-1.7985128e+179
-1.8275075e+179
-1.9544571e+179
-1.9539771e+179
-1.9655623e+179
-1.9647013e+179
-1.9552383e+179
-1.9660475e+179
-1.9549073e+179
-1.9659606e+179
-1.9798096e+179
-1.9851428e+179
-1.9797999e+179
-1.9854531e+179
-1.9793258e+179
-1.9849744e+179
-1.9785385e+179
-1.9837347e+179
-1.9778905e+179
-1.9776498e+179
-1.9829867e+179
-1.9828907e+179
-1.9523022e+179
-1.9515846e+179
-1.9632113e+179
-1.9621875e+179
-1.9533752e+179
-1.9640642e+179
-1.9530014e+179
-1.9638961e+179
-1.9768582e+179
-1.9758084e+179
-1.9822823e+179
-1.9808066e+179
-1.9250078e+179
-1.9361067e+179
-1.9247807e+179
-1.9358714e+179
-1.9024982e+179
-1.910732e+179
-1.9021781e+179
-1.9105206e+179
-1.901811e+179
-1.9101301e+179
-1.9014395e+179
-1.9096008e+179
-1.924247e+179
-1.9236582e+179
-1.9353348e+179
-1.9345095e+179
-1.9268269e+179
-1.9379597e+179
-1.9264456e+179
-1.9377209e+179
-1.903402e+179
-1.9118034e+179
-1.9030515e+179
-1.911293e+179
-1.9127039e+179
-1.9044466e+179
-1.9038811e+179
-1.9122728e+179
-1.9259817e+179
-1.9372896e+179
-1.9255356e+179
-1.9366837e+179
-1.7184261e+179
-1.7210261e+179
-1.7489315e+179
-1.7437686e+179
-1.9939683e+179
-1.9939741e+179
-1.9921659e+179
-1.9932473e+179
-1.9954232e+179
-1.9957418e+179
-1.9952776e+179
-1.9944598e+179
-1.997128e+179
-1.9973208e+179
-1.9967506e+179
-1.9957575e+179
-1.9980719e+179
-1.9984309e+179
-1.9982378e+179
-1.9974404e+179
-1.9998553e+179
-2.0000623e+179
-1.9993505e+179
-1.9983039e+179
-2.0010342e+179
-2.0012963e+179
-2.0009741e+179
-2.0002309e+179
-2.0026808e+179
-2.0028093e+179
-2.002287e+179
-2.0013097e+179
-2.0018746e+179
-2.0006673e+179
-2.0032715e+179
-2.003676e+179
-2.0035073e+179
-2.0027685e+179
-2.0026729e+179
-2.0026844e+179
-2.0030422e+179
-2.0040754e+179
-2.0043677e+179
-2.0045045e+179
-2.0018792e+179
-2.0007656e+179
-2.0076284e+179
-2.007981e+179
-2.0076969e+179
-2.006852e+179
-2.0019048e+179
-2.0013235e+179
-2.0063228e+179
-2.0062372e+179
-2.0058944e+179
-2.0048655e+179
-2.0027091e+179
-2.0027749e+179
-2.0013738e+179
-2.0025195e+179
-1.9127424e+179
-1.9145738e+179
-1.8825227e+179
-1.8791266e+179
-1.879009e+179
-1.8731958e+179
-1.910466e+179
-1.9116565e+179
-1.9478046e+179
-1.9493412e+179
-1.9759782e+179
-1.9767849e+179
-1.9514262e+179
-1.9833296e+179
-1.9841637e+179
-1.9726379e+179
-1.9744906e+179
-1.9511383e+179
-1.9818481e+179
-1.9801435e+179
-1.9954886e+179
-1.9878663e+179
-1.9877554e+179
-1.9950117e+179
-1.9944993e+179
-1.9868748e+179
-1.9862068e+179
-1.9855535e+179
-1.9868721e+179
-1.9936354e+179
-1.993036e+179
-1.9854997e+179
-1.9848003e+179
-1.9952047e+179
-1.9896053e+179
-1.9867386e+179
-1.9866008e+179
-1.9816016e+179
-1.9816568e+179
-1.9832245e+179
-1.9829448e+179
-1.9811611e+179
-1.9806032e+179
-1.9824355e+179
-1.9821189e+179
-1.9855504e+179
-1.9858405e+179
-1.9795646e+179
-1.9859708e+179
-1.9857114e+179
-1.9819193e+179
-1.9778296e+179
-1.9798449e+179
-1.9782174e+179
-1.9817234e+179
-1.9853307e+179
-1.9849801e+179
-1.9813857e+179
-1.9810988e+179
-1.981367e+179
-1.975857e+179
-1.9767142e+179
-1.9716771e+179
-1.9706328e+179
-1.9758234e+179
-1.9753354e+179
-1.9813792e+179
-1.9792286e+179
-1.98096e+179
-1.9806337e+179
-1.979121e+179
-1.9729566e+179
-1.9776758e+179
-1.9775114e+179
-1.9723671e+179
-1.9805246e+179
-1.9810875e+179
-1.9754001e+179
-1.9748314e+179
-1.9846218e+179
-1.9830238e+179
-1.9843682e+179
-1.9829782e+179
-1.982691e+179
-1.9821011e+179
-1.983687e+179
-1.9840263e+179
-1.9816503e+179
-1.9813491e+179
-1.9800924e+179
-1.9798193e+179
-1.9780166e+179
-1.9784492e+179
-1.9732694e+179
-1.9728382e+179
-1.9805704e+179
-1.9823558e+179
-1.9804162e+179
-1.9820701e+179
-1.9743928e+179
-1.9791058e+179
-1.9739226e+179
-1.9789896e+179
-1.9904474e+179
-1.9900814e+179
-1.9975472e+179
-1.9970058e+179
-1.9889309e+179
-1.9895339e+179
-1.988544e+179
-1.9897803e+179
-1.9963907e+179
-1.9958104e+179
-1.9876609e+179
-1.9883598e+179
-1.9872611e+179
-1.9856405e+179
-1.9856984e+179
-1.9870909e+179
-1.9867211e+179
-1.9853759e+179
-1.9864372e+179
-1.9848064e+179
-1.9840311e+179
-1.9853668e+179
-1.9851082e+179
-1.9835028e+179
-1.9844886e+179
-1.9844737e+179
-1.9860676e+179
-1.9858527e+179
-1.9831195e+179
-1.9848998e+179
-1.9847024e+179
-1.9830295e+179
-1.9826616e+179
-1.9843317e+179
-1.9841641e+179
-1.9825846e+179
-1.9771308e+179
-1.9817245e+179
-1.981382e+179
-1.9764114e+179
-1.9765704e+179
-1.9813438e+179
-1.980707e+179
-1.9756038e+179
-1.9838727e+179
-1.9835583e+179
-1.9820446e+179
-1.9822712e+179
-1.9755243e+179
-1.9804507e+179
-1.9804921e+179
-1.9753703e+179
-1.9812344e+179
-1.9828776e+179
-1.9827098e+179
-1.9811083e+179
-1.9752247e+179
-1.9800236e+179
-1.979343e+179
-1.9742532e+179
-1.9727128e+179
-1.9844661e+179
-1.9849703e+179
-1.9475163e+179
-1.9448598e+179
-1.9704456e+179
-1.9832979e+179
-1.9819878e+179
-1.9810307e+179
-1.9817309e+179
-1.9888403e+179
-1.9882523e+179
-1.978104e+179
-1.9797387e+179
-1.9870534e+179
-1.9855286e+179
-1.9804756e+179
-1.9707611e+179
-1.9696163e+179
-1.9793234e+179
-1.9493984e+179
-1.9510775e+179
-1.9766601e+179
-1.9883249e+179
-1.9879122e+179
-1.9740512e+179
-1.9862536e+179
-1.9873799e+179
-1.9823791e+179
-1.9719233e+179
-1.9706482e+179
-1.9814093e+179
-1.9819464e+179
-1.9820053e+179
-1.9896804e+179
-1.9892358e+179
-1.9810702e+179
-1.9815805e+179
-1.9888318e+179
-1.988801e+179
-1.9844301e+179
-1.9841481e+179
-1.9895703e+179
-1.9892631e+179
-1.9836664e+179
-1.9836333e+179
-1.9893322e+179
-1.9893425e+179
-1.9793304e+179
-1.9785355e+179
-1.9870416e+179
-1.987109e+179
-1.9833728e+179
-1.9829965e+179
-1.9893536e+179
-1.9892007e+179
-1.9820412e+179
-1.9818352e+179
-1.9885417e+179
-1.9880683e+179
-1.9801625e+179
-1.9803919e+179
-1.9879562e+179
-1.9883762e+179
-1.9973053e+179
-1.9965115e+179
-1.9956901e+179
-1.9947605e+179
-1.9900716e+179
-1.9898684e+179
-1.9909631e+179
-1.9906229e+179
-1.9893676e+179
-1.9889978e+179
-1.9900265e+179
-1.9899747e+179
-1.9939348e+179
-1.9964393e+179
-1.9937266e+179
-1.9964384e+179
-1.9929782e+179
-1.9933096e+179
-1.9961845e+179
-1.9954346e+179
-1.9872184e+179
-1.9875818e+179
-1.9883291e+179
-1.9883292e+179
-1.9926923e+179
-1.9922773e+179
-1.9953851e+179
-1.9952225e+179
-1.988361e+179
-1.9886342e+179
-1.9893637e+179
-1.9890687e+179
-1.9914797e+179
-1.9909788e+179
-1.9942386e+179
-1.9929652e+179
-1.9936673e+179
-1.9928557e+179
-1.9915446e+179
-1.9905502e+179
-1.9832989e+179
-1.9829421e+179
-1.9841442e+179
-1.9841487e+179
-1.9884135e+179
-1.9908192e+179
-1.9905747e+179
-1.9878912e+179
-1.9842015e+179
-1.984516e+179
-1.9855686e+179
-1.9851341e+179
-1.9870803e+179
-1.9896435e+179
-1.9865884e+179
-1.9882971e+179
-1.9863488e+179
-1.9866767e+179
-1.9874982e+179
-1.987152e+179
-1.985364e+179
-1.9857476e+179
-1.9864528e+179
-1.9865214e+179
-1.9906275e+179
-1.9903676e+179
-1.9931874e+179
-1.9928264e+179
-1.992798e+179
-1.9917267e+179
-1.9898402e+179
-1.9892608e+179
-1.9957235e+179
-1.9953442e+179