/*--------------------------------*- C++ -*----------------------------------*\
  =========                 |
  \\      /  F ield         | OpenFOAM: The Open Source CFD Toolbox
   \\    /   O peration     | Website:  https://openfoam.org
    \\  /    A nd           | Version:  7
     \\/     M anipulation  |
\*---------------------------------------------------------------------------*/
FoamFile
{
    version     2.0;
    format      ascii;
    class       volVectorField;
    location    "2000";
    object      U;
}
// * * * * * * * * * * * * * * * * * * * * * * * * * * * * * * * * * * * * * //

dimensions      [0 1 -1 0 0 0 0];

internalField   nonuniform List<vector> 
34222
(
(-4.5751173e+90 8.9425205e+89 -9.6945699e+87)
(-6.0081221e+90 5.2097999e+89 5.3284102e+89)
(-4.8641361e+90 9.6992571e+89 -6.3720702e+88)
(-4.0308451e+90 1.044321e+90 2.7733135e+89)
(-3.6502624e+90 1.4081872e+90 1.6090315e+89)
(-3.6299855e+90 1.3607273e+90 -6.6496408e+89)
(-3.6014361e+90 1.4413431e+90 -5.5739436e+89)
(-6.4009936e+90 4.1696764e+89 3.6098563e+89)
(-6.0154808e+90 6.0727503e+89 4.371213e+89)
(-3.7230062e+90 1.1483145e+90 3.5330575e+89)
(-4.0639934e+90 8.1499083e+89 3.6086756e+89)
(-3.5946488e+90 1.2017426e+90 -6.5760261e+89)
(-3.5785871e+90 1.0193581e+90 -6.5686091e+89)
(-5.3410106e+90 1.1024085e+90 -7.4669076e+88)
(-3.7232341e+90 1.4082409e+90 -7.0396315e+89)
(-3.962206e+90 1.2863093e+90 1.7442448e+89)
(-4.3273969e+90 1.0028449e+90 2.1635241e+89)
(-3.6882103e+90 1.191684e+90 -6.8955405e+89)
(-3.708721e+90 1.2494954e+90 -1.7454316e+89)
(-3.497665e+90 1.3088704e+90 -1.5927863e+89)
(-3.5939005e+90 1.4429972e+90 -1.5497574e+89)
(-3.7576921e+90 1.342136e+90 -1.636931e+89)
(-5.4180473e+90 8.3493316e+89 1.7298797e+89)
(-6.3757806e+90 4.6092921e+89 2.9631461e+89)
(-6.3478269e+90 3.482514e+89 4.8126594e+89)
(-3.5027991e+90 1.0410419e+90 -6.506655e+89)
(-3.954646e+90 6.6158759e+89 4.4643913e+89)
(-3.8026524e+90 9.5562571e+89 4.5677749e+89)
(-3.6527511e+90 8.0155113e+89 -5.9791512e+89)
(-6.1628728e+90 6.0142724e+89 3.9306348e+89)
(-3.8181935e+90 1.1554363e+90 -7.091563e+89)
(-4.2356423e+90 7.8450334e+89 2.9187375e+89)
(-3.9524204e+90 1.1243149e+90 2.9309453e+89)
(-3.7648892e+90 9.9863468e+89 -6.9047458e+89)
(-3.3928124e+90 1.0844676e+90 -4.0355174e+88)
(-3.6914588e+90 1.0623332e+90 -8.632914e+88)
(-3.7084707e+90 1.1489433e+90 -8.4734723e+88)
(-3.3973186e+90 1.1802555e+90 -5.6300558e+88)
(-5.5156733e+90 9.5646925e+89 1.0914591e+88)
(-4.1294422e+90 1.3005228e+90 -6.5435686e+89)
(-4.5024671e+90 8.9244118e+89 2.7216628e+89)
(-4.2601998e+90 1.2358414e+90 2.462768e+89)
(-4.0893457e+90 1.1909613e+90 -6.4049036e+89)
(-4.0437846e+90 1.2440554e+90 -1.9460419e+89)
(-3.7296506e+90 1.2210724e+90 -2.0648207e+89)
(-4.0838792e+90 1.141096e+90 -2.246148e+89)
(-3.71899e+90 1.3044455e+90 -1.8590348e+89)
(-3.3728949e+90 1.3121381e+90 -1.7954061e+89)
(-3.2927723e+90 1.3750417e+90 -1.4677314e+89)
(-3.6667171e+90 1.4675051e+90 -1.8448276e+89)
(-3.6891325e+90 1.3678761e+90 -2.1154336e+89)
(-4.842845e+90 7.2333545e+89 3.025214e+89)
(-4.685384e+90 5.3979204e+89 4.4701419e+89)
(-4.9769446e+90 6.7522021e+88 4.5379729e+89)
(-5.3734358e+90 9.2424868e+89 1.971026e+89)
(-4.8347043e+90 7.6298789e+89 8.7866931e+89)
(-4.7194785e+90 7.2343724e+89 8.512004e+89)
(-6.4613212e+90 4.4402464e+89 2.6797656e+89)
(-6.3376269e+90 3.7308636e+89 4.6593025e+89)
(-3.6800327e+90 1.0005894e+90 -7.1136118e+89)
(-4.1179783e+90 6.4899584e+89 3.5743722e+89)
(-3.9484747e+90 9.5331539e+89 3.8249954e+89)
(-3.7596477e+90 8.0571474e+89 -6.745414e+89)
(-3.9537991e+90 4.7154792e+89 6.129972e+89)
(-3.4280585e+90 8.7134661e+89 -5.9919983e+89)
(-3.5704975e+90 6.2986128e+89 -5.9672008e+89)
(-3.8394971e+90 7.751856e+89 5.9053937e+89)
(-3.5928514e+90 1.0027086e+90 7.3944236e+87)
(-3.5550448e+90 8.8953313e+89 -1.2924663e+88)
(-3.5334861e+90 8.5480349e+89 -1.0171851e+88)
(-3.4687871e+90 9.7187902e+89 5.2688154e+88)
(-5.1357477e+90 6.4698697e+89 4.6216704e+88)
(-5.1144257e+90 5.2406691e+89 9.7994801e+87)
(-6.2702492e+90 5.496467e+89 3.8906765e+89)
(-4.1743555e+90 1.0289231e+90 2.5739069e+89)
(-4.4547811e+90 6.5392558e+89 2.7607666e+89)
(-4.1066858e+90 1.0291971e+90 -7.146632e+89)
(-4.0321495e+90 9.0979096e+89 -7.009118e+89)
(-4.0182667e+90 1.0536844e+90 -1.3928662e+89)
(-3.9225606e+90 9.8084667e+89 -1.8667443e+89)
(-3.6748253e+90 1.0673308e+90 -1.4299979e+89)
(-3.663486e+90 1.1468104e+90 -1.1581769e+89)
(-2.9699416e+90 1.1559599e+90 -5.6754026e+88)
(-2.9969447e+90 1.1704444e+90 -1.0738778e+89)
(-3.2129252e+90 1.2308955e+90 -1.5692155e+89)
(-3.046504e+90 1.2601833e+90 -1.1008571e+89)
(-4.7270098e+90 7.0034465e+89 3.6523583e+89)
(-4.4972009e+90 1.0920929e+90 3.2491771e+89)
(-4.4822965e+90 1.0095821e+90 -5.312967e+89)
(-4.5375136e+90 1.0662174e+90 -5.2650225e+89)
(-4.390458e+90 1.0038417e+90 -1.1705575e+89)
(-4.3194668e+90 9.2855503e+89 -2.2406588e+89)
(-4.0889787e+90 1.0694186e+90 -2.5043124e+89)
(-4.1434847e+90 1.1623106e+90 -1.8013828e+89)
(-3.6345712e+90 1.2344179e+90 -2.8439049e+89)
(-3.358563e+90 1.2645079e+90 -2.1675164e+89)
(-3.5195592e+90 1.168544e+90 -2.4364989e+89)
(-3.5970709e+90 1.3073421e+90 -2.4908216e+89)
(-3.6354318e+90 1.1954865e+90 -1.390297e+89)
(-3.5435884e+90 1.2658359e+90 -9.8027355e+88)
(-3.967676e+90 1.304109e+90 -1.1540286e+89)
(-3.9853821e+90 1.2094623e+90 -1.5244342e+89)
(-4.798913e+90 5.8944057e+89 -2.3964387e+89)
(-3.7987329e+90 6.518206e+89 3.8526537e+89)
(-5.0895031e+90 9.9149927e+88 -2.9769434e+89)
(-5.0366763e+90 9.5073037e+89 3.2420392e+89)
(-4.2206553e+90 -9.1041262e+88 4.9259936e+89)
(-3.8303233e+90 3.1200018e+89 4.6981717e+89)
(-3.3636242e+90 3.6668134e+88 4.9868176e+89)
(-4.6234658e+90 4.5216651e+89 8.4973877e+89)
(-4.0076428e+90 8.6430537e+88 4.8442592e+89)
(-4.6608233e+90 4.945499e+89 8.2875394e+89)
(-3.8178965e+90 3.1911823e+89 4.4101443e+89)
(-4.0342332e+90 4.5020841e+88 4.9656304e+89)
(-4.6705277e+90 4.3780905e+89 8.8575049e+89)
(-4.5873539e+90 5.3480223e+89 4.1864985e+89)
(-4.6086962e+90 4.4683327e+89 8.1779769e+89)
(-5.037367e+90 1.3319391e+88 4.7756405e+89)
(-4.8734597e+90 7.1603312e+89 8.4109184e+89)
(-4.980818e+90 6.116992e+89 9.1571137e+89)
(-5.6484616e+90 8.7254936e+89 3.4347176e+89)
(-5.5009007e+90 3.5061924e+89 5.7330095e+89)
(-5.1849729e+90 5.6302963e+89 -6.1695431e+89)
(-6.5480094e+90 4.0963931e+89 2.359984e+89)
(-5.1772079e+90 4.0397413e+89 -6.227633e+89)
(-6.4057975e+90 3.7458399e+89 4.3876956e+89)
(-3.9336821e+90 8.8770341e+89 -7.3434645e+89)
(-4.3560109e+90 5.5340816e+89 3.3509039e+89)
(-4.130298e+90 8.7790028e+89 3.1701537e+89)
(-3.9156094e+90 7.2735564e+89 -7.2195714e+89)
(-5.3127257e+90 6.9394067e+89 5.155011e+89)
(-3.9437226e+90 7.597333e+89 5.250718e+89)
(-4.0852217e+90 4.6356972e+89 5.6327202e+89)
(-3.57308e+90 8.5973382e+89 -6.4345723e+89)
(-3.730279e+90 6.2390569e+89 -6.1727811e+89)
(-3.7955519e+90 9.2276029e+89 -1.0658075e+89)
(-3.7474044e+90 8.58661e+89 -1.1619454e+89)
(-3.6532898e+90 8.8833578e+89 -6.7361744e+88)
(-3.668688e+90 9.7898304e+89 -5.5912998e+88)
(-3.6238847e+90 6.1516288e+89 -8.7141757e+88)
(-3.5212593e+90 7.386123e+89 2.6685613e+88)
(-3.4542477e+90 7.633721e+89 -4.6743624e+87)
(-3.593957e+90 6.0553596e+89 -1.1903564e+89)
(-2.9239609e+90 1.0987427e+90 -6.1572573e+88)
(-3.2977757e+90 9.1495345e+89 -1.0952807e+88)
(-3.8551942e+90 7.9935464e+89 -2.3889341e+88)
(-3.2850294e+90 9.9328045e+89 -2.6146492e+88)
(-4.6726889e+90 4.2992558e+89 3.0506879e+89)
(-4.0688265e+90 3.458287e+89 4.4467308e+89)
(-4.7742005e+90 4.0653489e+89 3.0279694e+89)
(-4.6993608e+90 4.1587908e+89 2.5872423e+89)
(-4.7591132e+90 3.8763897e+89 3.324883e+89)
(-5.1326786e+90 6.2628069e+89 -3.4450222e+88)
(-5.2487125e+90 4.6260811e+89 3.3019591e+88)
(-6.4811799e+90 4.3018792e+89 4.4318754e+89)
(-4.7217574e+90 5.4165106e+89 3.0638383e+89)
(-4.3860711e+90 9.0947649e+89 2.8220208e+89)
(-4.2536478e+90 7.8639504e+89 -6.7370992e+89)
(-4.4150035e+90 8.8240447e+89 -6.733588e+89)
(-3.9219147e+90 9.0693975e+89 -2.5540646e+89)
(-4.1841523e+90 7.5036878e+89 -2.2333071e+89)
(-4.3124092e+90 8.2491712e+89 -1.7064636e+89)
(-4.0022284e+90 9.7786931e+89 -1.9211951e+89)
(-3.4565113e+90 1.0986159e+90 -2.2833311e+89)
(-3.2645567e+90 1.0479842e+90 -2.0259712e+89)
(-3.0240784e+90 1.1444081e+90 -1.6381689e+89)
(-3.2015018e+90 1.2004469e+90 -1.9777909e+89)
(-3.3333377e+90 1.0802296e+90 -4.9389087e+88)
(-3.2269539e+90 1.0996714e+90 -9.0999824e+88)
(-3.4271387e+90 1.1458692e+90 -1.202232e+89)
(-3.3592836e+90 1.1708634e+90 -7.2441459e+88)
(-4.4947633e+90 7.0580791e+89 -1.7612735e+89)
(-4.326233e+90 8.4599193e+89 -2.0879817e+89)
(-4.3549265e+90 9.218432e+89 -1.2012599e+89)
(-4.4857662e+90 7.4664063e+89 -8.2647843e+88)
(-4.0691343e+90 9.5660947e+89 -2.1155526e+89)
(-3.8814672e+90 9.1723078e+89 -2.3347319e+89)
(-3.5098265e+90 1.0856351e+90 -2.7455442e+89)
(-3.6291463e+90 1.1330551e+90 -2.9503976e+89)
(-4.0644687e+90 1.0584912e+90 -2.4472295e+89)
(-3.755435e+90 1.119987e+90 -1.8305294e+89)
(-3.942673e+90 1.0112511e+90 -2.2147998e+89)
(-4.0043642e+90 1.132273e+90 -1.9685849e+89)
(-4.8623877e+90 3.8077368e+89 2.5570862e+89)
(-4.5595298e+90 8.523357e+89 2.457452e+89)
(-4.0004566e+90 2.5620183e+89 -1.1057779e+89)
(-4.4021642e+90 4.7151665e+89 -5.3809089e+89)
(-4.3556588e+90 4.7698313e+89 -5.1261923e+89)
(-3.870788e+90 4.79428e+89 -1.0269509e+89)
(-3.6050545e+90 3.6005803e+89 -4.3094135e+89)
(-2.1122638e+90 -5.395758e+88 5.8353064e+89)
(-2.7458661e+90 4.4983075e+89 4.3598509e+89)
(-3.738627e+90 1.0668514e+89 -4.6922764e+89)
(-2.9972042e+90 -4.546022e+88 5.2078659e+89)
(-4.8880305e+90 5.8496639e+89 -2.0977608e+89)
(-4.0530899e+90 2.1269442e+89 -1.1594931e+89)
(-4.490643e+90 4.2724869e+89 -5.545082e+89)
(-4.4176542e+90 4.7678e+89 -5.0305545e+89)
(-3.8958797e+90 4.8125075e+89 -8.1590816e+88)
(-5.1902823e+90 5.447422e+88 -2.5891984e+89)
(-4.7669639e+90 1.2365549e+90 3.1836257e+89)
(-4.3288978e+90 -1.5202527e+89 5.7127879e+89)
(-3.963584e+90 6.5451713e+89 4.5810571e+89)
(-3.7893181e+90 5.4301723e+88 -4.6596125e+89)
(-3.6131597e+90 3.7542314e+89 -4.1293989e+89)
(-3.0504728e+90 -8.7162197e+88 5.4220899e+89)
(-2.7335726e+90 4.868587e+89 4.4859488e+89)
(-3.1854019e+90 2.1896466e+89 4.3601407e+89)
(-3.2820841e+90 7.6485889e+88 4.529012e+89)
(-3.9976736e+90 3.5562926e+89 7.0436539e+89)
(-3.9654619e+90 3.3176307e+89 7.1136649e+89)
(-2.929669e+90 1.6248338e+88 5.7089699e+89)
(-2.8090367e+90 1.643002e+89 5.044783e+89)
(-3.427312e+90 2.4524474e+89 6.7518253e+89)
(-3.457119e+90 2.4222496e+89 7.0432818e+89)
(-4.0641084e+90 3.3450711e+89 7.4662189e+89)
(-3.3206384e+90 5.605406e+88 4.7049811e+89)
(-3.1523133e+90 2.3461859e+89 4.0210115e+89)
(-3.9972751e+90 3.3440307e+89 7.0011788e+89)
(-3.3132507e+90 6.2627896e+88 4.5596143e+89)
(-3.1791348e+90 2.2567012e+89 4.1976367e+89)
(-4.0982574e+90 3.1011777e+89 7.2839482e+89)
(-3.9965664e+90 3.1202057e+89 6.9557181e+89)
(-3.335377e+90 3.9678648e+88 4.9252112e+89)
(-3.1791449e+90 2.1463039e+89 4.1787145e+89)
(-4.0951072e+90 2.9223631e+89 7.8646789e+89)
(-4.0359752e+90 2.9624232e+89 7.3105915e+89)
(-3.7904955e+90 2.8598131e+89 4.5968883e+89)
(-4.593173e+90 4.0045561e+89 8.0061628e+89)
(-3.9394128e+90 6.7199906e+88 4.7396471e+89)
(-4.6434697e+90 4.4093131e+89 8.1176077e+89)
(-4.8506292e+90 4.2752893e+89 5.3007697e+89)
(-4.778856e+90 3.8116777e+89 9.3067649e+89)
(-4.0895547e+90 1.9251395e+88 5.3709113e+89)
(-4.6929656e+90 3.809075e+89 8.4942516e+89)
(-3.8310981e+90 2.8237589e+89 4.7336547e+89)
(-5.0206408e+90 6.0167154e+89 9.2572201e+89)
(-5.2435404e+90 4.7992194e+89 1.0277372e+90)
(-5.1734057e+90 -9.7736215e+88 5.637084e+89)
(-4.1646604e+90 2.8406565e+89 3.2026275e+88)
(-4.2401006e+90 4.3979984e+89 5.5310943e+89)
(-4.9637008e+90 2.9161177e+89 4.8474746e+89)
(-4.0327248e+90 2.5535119e+89 -1.7581878e+89)
(-4.7975409e+90 3.8155161e+89 -3.2436892e+89)
(-4.156199e+90 3.753294e+89 2.3473398e+89)
(-4.9973779e+90 5.1866182e+89 4.5805385e+89)
(-4.9041659e+90 2.5124388e+89 -2.8477263e+89)
(-4.7048282e+90 3.1147413e+89 -5.2477635e+89)
(-4.1837611e+90 2.6338785e+89 1.0205484e+88)
(-4.9281338e+90 2.0991647e+89 9.2728706e+88)
(-4.0936155e+90 1.9470562e+89 -2.3021409e+89)
(-4.0726396e+90 3.192068e+89 1.9409471e+88)
(-4.9151828e+90 3.962218e+89 7.3807415e+88)
(-4.7275121e+90 2.3328838e+89 -5.2096183e+89)
(-5.273249e+90 3.3923251e+89 4.4409474e+89)
(-5.3778351e+90 3.4139706e+89 -6.1402994e+89)
(-5.4700637e+90 6.3722181e+89 5.4465931e+89)
(-5.1738711e+90 5.1270811e+89 -6.4457882e+89)
(-6.6897751e+90 3.3677635e+89 2.3420458e+89)
(-4.2310362e+90 7.7974734e+89 -7.3751743e+89)
(-4.5238615e+90 4.5920249e+89 2.8333381e+89)
(-6.4870219e+90 3.5296981e+89 3.9238248e+89)
(-4.3096251e+90 8.0567481e+89 3.1112601e+89)
(-4.1008558e+90 6.3867289e+89 -7.1734941e+89)
(-5.5255099e+90 3.1341782e+89 5.2646503e+89)
(-4.9597537e+90 3.8278449e+89 1.2649357e+89)
(-4.7593998e+90 2.1032684e+89 -4.7971992e+89)
(-4.9891908e+90 1.777801e+89 8.6448174e+88)
(-4.7583962e+90 2.7544996e+89 -5.4113241e+89)
(-5.0601942e+90 6.6090206e+89 4.4840885e+89)
(-4.0849016e+90 7.6787052e+89 5.3333882e+89)
(-4.3089131e+90 4.2708614e+89 4.82656e+89)
(-3.8663848e+90 7.8979882e+89 -6.6903797e+89)
(-3.7861283e+90 6.0089615e+89 -6.5677405e+89)
(-4.1035748e+90 7.1472158e+89 -1.3374029e+89)
(-4.0652949e+90 6.791769e+89 -1.4320573e+89)
(-3.8279234e+90 7.6716285e+89 -1.7685414e+89)
(-3.8651315e+90 8.3072221e+89 -1.7048699e+89)
(-4.9634635e+90 5.031752e+89 4.8556635e+89)
(-5.004248e+90 2.5715377e+89 4.631255e+89)
(-4.8890423e+90 3.2485275e+89 -2.9232508e+89)
(-4.9635102e+90 2.5062966e+89 -2.318738e+89)
(-3.640796e+90 6.1011805e+89 -4.9515618e+88)
(-3.6385447e+90 6.3598646e+89 -3.6882757e+88)
(-3.6412148e+90 7.5513404e+89 -2.8560921e+87)
(-3.6385685e+90 7.6787457e+89 2.9711189e+88)
(-3.0493951e+90 1.0105184e+90 -1.8104872e+89)
(-2.8403576e+90 9.7122775e+89 -1.0917428e+89)
(-2.7785279e+90 1.0115439e+90 -6.2674455e+88)
(-2.8623233e+90 1.0879051e+90 -1.3136979e+89)
(-4.1207288e+90 5.0978767e+89 -6.604215e+88)
(-4.0666653e+90 6.3427045e+89 -2.6420188e+88)
(-3.576868e+90 7.2991773e+89 -6.354001e+88)
(-3.3069979e+90 6.4363014e+89 -8.779801e+88)
(-3.2865591e+90 1.0274898e+90 -5.8946221e+88)
(-3.5804628e+90 8.6071989e+89 -4.2081195e+88)
(-3.7606656e+90 8.0225815e+89 -4.4794146e+88)
(-3.5864723e+90 9.3765896e+89 -4.1208e+88)
(-3.9709865e+90 3.3386737e+89 3.7060214e+89)
(-4.0090617e+90 3.311679e+89 3.7141852e+89)
(-3.4208592e+90 2.5319082e+89 4.3021834e+89)
(-3.3901965e+90 2.2350378e+89 3.8779282e+89)
(-3.9947229e+90 3.1301293e+89 3.4799726e+89)
(-4.0708163e+90 3.2018459e+89 4.0028523e+89)
(-4.0023106e+90 3.1632183e+89 3.4004515e+89)
(-4.0950306e+90 2.8794323e+89 3.8294363e+89)
(-4.027444e+90 2.7966455e+89 3.6790001e+89)
(-4.0788137e+90 2.915149e+89 4.3149297e+89)
(-4.6910618e+90 3.9082744e+89 2.4415907e+89)
(-4.747543e+90 3.6434771e+89 2.6673029e+89)
(-4.8202731e+90 3.3731467e+89 3.530353e+89)
(-5.2823572e+90 5.3846586e+89 2.2179976e+88)
(-4.7691134e+90 3.5631297e+89 2.7220847e+89)
(-5.4048919e+90 3.5607401e+89 1.0488483e+89)
(-4.5899048e+90 6.4383319e+89 -6.5658184e+89)
(-4.5237025e+90 7.6576836e+89 -6.7851805e+89)
(-4.7759953e+90 4.4495688e+89 3.0950069e+89)
(-4.7562981e+90 7.5913434e+89 3.1299964e+89)
(-4.5029376e+90 6.0231792e+89 -1.9955628e+89)
(-4.1383096e+90 7.2715215e+89 -2.2220622e+89)
(-4.2136896e+90 7.7619176e+89 -1.6185714e+89)
(-4.549959e+90 6.3573727e+89 -1.3423093e+89)
(-3.1906814e+90 9.747277e+89 -2.7613707e+89)
(-3.4894163e+90 8.0477955e+89 -2.3296876e+89)
(-3.7188862e+90 8.5697704e+89 -2.5081912e+89)
(-3.410567e+90 1.0214428e+90 -2.8453206e+89)
(-3.8294505e+90 9.6711368e+89 -2.0843869e+89)
(-3.5790083e+90 9.431062e+89 -1.9360648e+89)
(-3.3084543e+90 1.0496558e+90 -1.4694956e+89)
(-3.5656854e+90 1.0799208e+90 -1.6782107e+89)
(-4.0256163e+90 6.931043e+89 -2.0264913e+89)
(-3.9503102e+90 8.2585247e+89 -2.2486811e+89)
(-4.2645177e+90 8.3861267e+89 -2.1918371e+89)
(-4.2214981e+90 6.9580507e+89 -1.9402632e+89)
(-4.4629475e+90 7.9221912e+89 -1.8051762e+89)
(-4.2725996e+90 7.6549306e+89 -2.1061418e+89)
(-4.0794268e+90 8.9907944e+89 -2.5949308e+89)
(-4.1916117e+90 9.396108e+89 -2.6540507e+89)
(-5.32592e+90 5.148146e+89 -1.8311962e+89)
(-5.2677809e+90 5.0110322e+89 -1.8720968e+89)
(-4.5302851e+90 3.0664483e+89 -4.7125621e+89)
(-4.5219034e+90 3.9099371e+89 7.9389005e+88)
(-4.451774e+90 4.7227437e+89 1.3198388e+89)
(-4.4972434e+90 3.0005404e+89 -4.5171965e+89)
(-3.3326062e+90 3.4810494e+89 -5.7229899e+89)
(-2.8571556e+90 1.5410022e+89 -3.2928607e+89)
(-2.7984925e+90 3.099422e+89 -3.2990852e+89)
(-3.3106807e+90 3.573763e+89 -5.7328603e+89)
(-2.1738794e+90 2.8303062e+89 -3.1123576e+89)
(-1.7197339e+90 1.0688428e+89 -3.0450241e+89)
(-1.3832792e+90 8.2726953e+88 1.6483797e+89)
(-1.2637415e+90 2.2961507e+89 1.4549554e+89)
(-1.8787834e+90 -4.1540005e+88 6.7987765e+89)
(-1.939535e+90 3.6601425e+89 5.2011008e+89)
(-1.7467911e+90 2.6635786e+89 5.9426944e+89)
(-2.2636979e+90 1.1302403e+89 -3.2240319e+89)
(-2.0830092e+90 -1.3118155e+88 5.9741765e+89)
(-3.3345582e+90 3.5419944e+89 -5.8038468e+89)
(-3.3670219e+90 3.4097243e+89 -5.9657794e+89)
(-2.8837843e+90 1.4426432e+89 -3.3862401e+89)
(-2.801743e+90 3.0959797e+89 -3.225491e+89)
(-2.2813492e+90 9.5436223e+88 -3.2896514e+89)
(-2.161292e+90 2.9793617e+89 -2.9856069e+89)
(-2.1187669e+90 -2.7465962e+88 5.9922394e+89)
(-1.8854146e+90 3.9895966e+89 4.9713193e+89)
(-4.066083e+90 2.1250633e+89 -8.8964705e+88)
(-4.5250196e+90 4.2308093e+89 -5.500294e+89)
(-4.4802269e+90 4.3148903e+89 -5.1809369e+89)
(-3.9410203e+90 4.3572051e+89 -8.6321959e+88)
(-4.5754177e+90 2.9240803e+89 -4.7853352e+89)
(-4.594084e+90 3.7214068e+89 7.6230787e+88)
(-4.5170628e+90 4.5875525e+89 1.4012623e+89)
(-4.5417049e+90 2.8931341e+89 -4.3082909e+89)
(-5.0078364e+90 5.4871419e+89 -1.8471231e+89)
(-4.5009521e+90 4.4795468e+89 -4.9504136e+89)
(-4.5774303e+90 4.143054e+89 -5.4386762e+89)
(-4.1404802e+90 1.945421e+89 -8.3677279e+88)
(-3.9655802e+90 4.4419158e+89 -6.428582e+88)
(-5.4762462e+90 -1.5312607e+88 -2.8591281e+89)
(-4.3884936e+90 -1.328384e+89 5.9662763e+89)
(-3.8902702e+90 6.704958e+89 4.6106363e+89)
(-3.8380128e+90 -7.3057627e+86 -4.3418964e+89)
(-3.6505323e+90 3.2382473e+89 -3.8821022e+89)
(-3.0660259e+90 -1.0993814e+89 5.7366226e+89)
(-2.7495288e+90 4.5835435e+89 4.9832448e+89)
(-3.7836388e+90 5.3541565e+88 -4.5278117e+89)
(-3.6807706e+90 3.2921832e+89 -4.2817466e+89)
(-2.8905902e+90 4.3344458e+89 5.3636828e+89)
(-3.0516416e+90 -8.4863903e+88 5.9482975e+89)
(-3.385443e+90 3.2552187e+89 -5.8506868e+89)
(-3.4113306e+90 3.0495563e+89 -6.0931232e+89)
(-2.9092121e+90 1.1565421e+89 -3.3876661e+89)
(-2.8510545e+90 2.8365137e+89 -3.2252048e+89)
(-3.3321821e+90 3.4752022e+89 -5.5657949e+89)
(-3.3609559e+90 3.2029999e+89 -5.6927735e+89)
(-2.8675641e+90 1.2920062e+89 -3.0940164e+89)
(-2.8198516e+90 3.0732041e+89 -3.1303842e+89)
(-2.3075546e+90 7.7455447e+88 -3.2856012e+89)
(-2.2055749e+90 2.8680146e+89 -3.0175815e+89)
(-2.1613757e+90 -3.6950458e+88 6.3534685e+89)
(-1.9518791e+90 3.9527364e+89 5.4043423e+89)
(-2.1974361e+90 2.9063269e+89 -3.0147215e+89)
(-2.2834703e+90 9.8580805e+88 -3.0997469e+89)
(-2.1279258e+90 -8.3386706e+87 6.3744168e+89)
(-1.9690978e+90 3.935413e+89 5.4822432e+89)
(-2.8991375e+90 5.2723593e+88 5.355404e+89)
(-2.8050287e+90 1.6493679e+89 4.9918948e+89)
(-3.4247191e+90 2.5388729e+89 6.3701902e+89)
(-3.3904996e+90 2.476825e+89 6.360212e+89)
(-2.8901801e+90 3.563736e+88 5.4775681e+89)
(-2.7851086e+90 1.8141247e+89 4.8407251e+89)
(-3.4103993e+90 2.5657269e+89 6.4004793e+89)
(-3.4423516e+90 2.441679e+89 6.7354955e+89)
(-2.3043589e+90 1.662438e+89 6.5962084e+89)
(-2.3023981e+90 3.1574497e+88 6.7833296e+89)
(-3.0458482e+90 1.630806e+89 6.5101418e+89)
(-3.0552327e+90 1.6622668e+89 6.6411894e+89)
(-2.2643174e+90 1.7953617e+89 6.5663981e+89)
(-2.2823298e+90 4.0691162e+88 6.5032288e+89)
(-3.0447979e+90 1.5819547e+89 6.2047595e+89)
(-3.0376454e+90 1.6780811e+89 6.2010211e+89)
(-2.8904403e+90 2.6676142e+88 5.5354032e+89)
(-2.8046286e+90 1.7487165e+89 4.993175e+89)
(-3.4390812e+90 2.3899178e+89 6.579858e+89)
(-3.4629311e+90 2.277273e+89 6.9128318e+89)
(-2.8643436e+90 5.0758499e+88 5.2194879e+89)
(-2.7652157e+90 1.8012745e+89 4.8038975e+89)
(-3.4022246e+90 2.4397088e+89 6.3073193e+89)
(-3.4434233e+90 2.4076174e+89 6.4297722e+89)
(-2.9017733e+90 2.4536823e+88 5.5028029e+89)
(-2.7899741e+90 1.7686279e+89 4.963676e+89)
(-3.4646754e+90 2.2210969e+89 6.5707728e+89)
(-3.4999813e+90 2.0307075e+89 6.9059373e+89)
(-2.8745229e+90 5.289066e+88 5.2530609e+89)
(-2.7760797e+90 1.7055509e+89 4.9036833e+89)
(-3.405202e+90 2.2910301e+89 6.3277499e+89)
(-3.4419539e+90 2.2940874e+89 6.4115031e+89)
(-2.9207955e+90 1.6894158e+88 5.7573781e+89)
(-2.8241554e+90 1.59035e+89 5.1574371e+89)
(-3.4608878e+90 2.0865612e+89 6.7950892e+89)
(-3.4839526e+90 1.9849397e+89 7.1228421e+89)
(-3.157314e+90 2.0407711e+89 4.2986188e+89)
(-2.8759009e+90 4.2281488e+88 5.2523944e+89)
(-2.7844532e+90 1.6299299e+89 4.9186463e+89)
(-3.4323235e+90 2.0863615e+89 6.4664106e+89)
(-3.4634121e+90 2.0496676e+89 6.5782426e+89)
(-3.984613e+90 2.8370812e+89 6.9587582e+89)
(-4.0431162e+90 2.8972864e+89 7.1418889e+89)
(-3.2723e+90 5.5575244e+88 4.5067044e+89)
(-3.1434933e+90 2.0405124e+89 4.1591906e+89)
(-3.2917562e+90 3.5539062e+88 4.6537076e+89)
(-4.0770135e+90 2.8282758e+89 7.5114051e+89)
(-4.0304892e+90 2.8504536e+89 7.0699534e+89)
(-3.9255511e+90 2.4576615e+89 5.2904559e+89)
(-4.1006114e+90 7.4055194e+87 5.3814627e+89)
(-4.7616067e+90 3.5467576e+89 8.9409277e+89)
(-4.6910348e+90 3.2439091e+89 8.7675698e+89)
(-3.3674255e+90 2.4701498e+88 5.0906694e+89)
(-4.1626353e+90 2.531031e+89 8.0826244e+89)
(-3.2124556e+90 1.9137764e+89 4.4227719e+89)
(-4.0979467e+90 2.5547756e+89 7.4988282e+89)
(-3.3163079e+90 4.772216e+88 4.6267446e+89)
(-3.1731405e+90 1.9712938e+89 4.325963e+89)
(-4.1721917e+90 2.6159316e+89 7.5419111e+89)
(-4.0529525e+90 2.5970355e+89 7.1632931e+89)
(-4.2237481e+90 -6.2811704e+88 6.377939e+89)
(-3.9863567e+90 2.1090091e+89 5.6783264e+89)
(-4.8875197e+90 3.1144276e+89 9.8171995e+89)
(-4.7816222e+90 3.0645797e+89 8.941142e+89)
(-4.1002519e+90 3.2526585e+89 -3.4160967e+88)
(-3.4532681e+90 2.3450642e+89 -1.2425067e+88)
(-3.4316127e+90 2.2633115e+89 -4.0800155e+88)
(-3.5523846e+90 3.1480156e+89 3.1518531e+89)
(-3.5624309e+90 1.7986982e+89 2.9688472e+89)
(-3.5395924e+90 2.353205e+89 1.8651327e+89)
(-3.576541e+90 3.3950443e+89 5.5178536e+89)
(-3.5090174e+90 2.3131574e+89 1.5397004e+89)
(-3.5912279e+90 1.7370178e+89 5.41029e+89)
(-4.2409681e+90 2.5182235e+89 5.1775953e+89)
(-4.1260146e+90 2.5384656e+89 -3.8718029e+88)
(-4.2145101e+90 4.2133306e+89 4.9375131e+89)
(-3.3125649e+90 2.1078886e+89 -1.4543116e+89)
(-3.3913723e+90 2.7111202e+89 5.423219e+88)
(-3.2964735e+90 2.1217335e+89 -1.6476536e+89)
(-3.3991725e+90 1.7647104e+89 4.0183721e+88)
(-3.9876102e+90 2.9474897e+89 -2.3495349e+89)
(-4.1659972e+90 2.2136417e+89 1.8388506e+89)
(-4.007767e+90 2.2509481e+89 -2.3892961e+89)
(-4.1326614e+90 3.3680725e+89 1.5774463e+89)
(-3.3706854e+90 2.1369286e+89 -1.2393527e+89)
(-3.4370647e+90 2.9267246e+89 1.1201097e+89)
(-3.3478104e+90 2.2474084e+89 -1.4740905e+89)
(-3.444785e+90 1.8546463e+89 9.9575174e+88)
(-4.1394194e+90 2.9233083e+89 -5.0741282e+88)
(-4.2857089e+90 2.1473122e+89 5.0837192e+89)
(-4.2416763e+90 2.4277082e+89 -1.4542909e+87)
(-4.3210017e+90 4.030424e+89 5.2476855e+89)
(-4.2693256e+90 3.3026133e+89 1.9995706e+89)
(-4.0921667e+90 2.0754048e+89 -1.9751341e+89)
(-4.0340423e+90 2.4594475e+89 -2.32356e+89)
(-4.2454602e+90 1.8885622e+89 1.7712962e+89)
(-4.1007926e+90 1.3517168e+89 -3.3673741e+89)
(-4.0942172e+90 1.9539127e+89 -3.4327601e+89)
(-4.17636e+90 2.293957e+89 -4.7245959e+88)
(-4.1835437e+90 1.4864759e+89 -3.7334244e+88)
(-4.8567259e+90 2.0462317e+89 -6.9517678e+88)
(-3.5516844e+90 1.9285518e+89 7.9302849e+87)
(-3.4034945e+90 1.5558935e+89 -1.21272e+89)
(-3.3787144e+90 1.727686e+89 -1.5020605e+89)
(-3.4277514e+90 2.1465263e+89 -1.2665183e+88)
(-3.4450868e+90 1.4028104e+89 -2.3354762e+88)
(-4.0451435e+90 1.6645964e+89 -3.0733536e+89)
(-4.0490646e+90 2.9861952e+89 -4.1735572e+88)
(-4.0649334e+90 2.2040468e+89 -2.9954872e+88)
(-4.02463e+90 2.5202633e+89 -3.1068751e+89)
(-3.3129651e+90 1.4798666e+89 -1.9708147e+89)
(-3.3729013e+90 1.9773389e+89 -4.0775544e+88)
(-3.2957669e+90 1.5432954e+89 -2.0422875e+89)
(-3.3321158e+90 1.8134011e+89 -1.7533759e+89)
(-3.3430003e+90 1.8001769e+89 -1.5409148e+89)
(-3.3999211e+90 2.3397053e+89 2.1921621e+87)
(-3.401617e+90 1.5442763e+89 -1.1390518e+88)
(-3.3217687e+90 1.8633384e+89 -1.6639055e+89)
(-3.3545223e+90 2.5577899e+89 3.5244816e+87)
(-3.303133e+90 2.0368071e+89 -1.876548e+89)
(-3.3604663e+90 1.7113235e+89 -6.2537543e+87)
(-4.1301235e+90 2.6951677e+89 -3.1678901e+87)
(-4.1272184e+90 1.7048178e+89 -2.212136e+88)
(-4.0983687e+90 1.6277078e+89 -2.9608432e+89)
(-4.057744e+90 2.2546547e+89 -3.3378379e+89)
(-4.1664463e+90 1.3271655e+89 -3.1926681e+89)
(-4.115704e+90 1.7024912e+89 -3.5847953e+89)
(-4.2351813e+90 2.310048e+89 -2.8941776e+88)
(-4.2304178e+90 1.2961709e+89 -5.3461305e+88)
(-4.7462243e+90 4.0353463e+89 -1.2822979e+89)
(-4.52235e+90 2.9817269e+89 -6.1639274e+89)
(-4.8457633e+90 1.6363199e+89 -4.6254005e+89)
(-4.8546412e+90 2.0874607e+89 -5.2125989e+89)
(-5.0645594e+90 1.1681994e+89 1.0848859e+89)
(-5.0485809e+90 3.3421103e+89 1.5491043e+89)
(-5.2651373e+90 5.9013888e+89 3.872235e+89)
(-5.4169593e+90 4.6197546e+89 -6.2649032e+89)
(-5.0761646e+90 2.0639423e+89 4.7453538e+89)
(-5.0469415e+90 4.4970427e+89 5.1115562e+89)
(-5.0015141e+90 2.0953038e+89 -2.366764e+89)
(-4.9494739e+90 2.903279e+89 -3.088137e+89)
(-5.6517026e+90 2.671529e+89 5.658563e+89)
(-5.0003463e+90 3.2910401e+89 8.0551719e+88)
(-4.8128656e+90 1.6825603e+89 -5.1071412e+89)
(-4.8016657e+90 2.5482838e+89 -5.3838061e+89)
(-5.0094844e+90 1.5179184e+89 7.6074415e+88)
(-5.2205033e+90 3.1128231e+89 4.5111742e+89)
(-5.5298193e+90 5.692729e+89 5.5680216e+89)
(-6.6021398e+90 2.9639762e+89 3.3532254e+89)
(-5.3677971e+90 3.10884e+89 -6.1369446e+89)
(-4.6407654e+90 3.6435701e+89 2.7132398e+89)
(-4.3945738e+90 6.6145635e+89 -7.2613558e+89)
(-4.4080053e+90 5.0653849e+89 -7.1410775e+89)
(-4.6133696e+90 6.6885323e+89 2.8949028e+89)
(-4.4208281e+90 5.648116e+89 -1.2756916e+89)
(-4.2460953e+90 5.4489653e+89 -1.6214055e+89)
(-3.9481995e+90 7.3887013e+89 -7.0337835e+89)
(-4.2209298e+90 6.9976178e+89 4.9107381e+89)
(-4.3901274e+90 4.0020508e+89 4.9315906e+89)
(-3.9294002e+90 5.4254957e+89 -6.8119594e+89)
(-4.0421402e+90 6.688833e+89 -1.6027891e+89)
(-4.1071096e+90 6.8932407e+89 -1.3816982e+89)
(-4.9883289e+90 2.0002672e+89 -2.7197265e+89)
(-4.8924462e+90 3.2295812e+89 -3.3660579e+89)
(-5.0126385e+90 4.764513e+89 4.4162561e+89)
(-5.0083681e+90 2.5220792e+89 4.3474083e+89)
(-4.1800341e+90 2.5998642e+89 3.7768052e+88)
(-4.0902507e+90 1.8780768e+89 -2.9437134e+89)
(-4.1297026e+90 1.4113029e+89 -2.4556376e+89)
(-4.1727651e+90 1.4029643e+89 7.2747502e+87)
(-4.2469756e+90 9.7647347e+88 -2.4167285e+88)
(-4.2469216e+90 2.0649333e+89 8.6813153e+87)
(-4.1633113e+90 1.080328e+89 -2.9285929e+89)
(-4.1205088e+90 1.384903e+89 -3.36721e+89)
(-4.8001899e+90 3.6747407e+89 -9.794432e+88)
(-4.1545073e+90 2.5060299e+89 -2.5900381e+88)
(-4.092269e+90 2.0536313e+89 -3.2117192e+89)
(-4.1093309e+90 1.2748747e+89 -3.0647013e+89)
(-4.1560003e+90 1.6549292e+89 -2.789091e+88)
(-4.2471082e+90 1.2217712e+89 -6.225396e+88)
(-4.2388497e+90 1.9679892e+89 -5.3231999e+88)
(-4.1490912e+90 1.0314334e+89 -3.4658418e+89)
(-4.1330668e+90 1.7156572e+89 -3.6667258e+89)
(-4.9130307e+90 1.6514984e+89 -7.9711737e+88)
(-4.5795574e+90 2.6364781e+89 -6.1517385e+89)
(-4.6604309e+90 3.2057665e+89 -6.2707215e+89)
(-3.7047066e+90 6.5295638e+89 -3.1490686e+88)
(-3.9584402e+90 5.72671e+89 -6.213888e+88)
(-4.080391e+90 6.1897402e+89 -2.2586093e+88)
(-3.7371437e+90 7.1633297e+89 -2.8619251e+88)
(-3.3006649e+90 7.6864966e+89 -2.123531e+89)
(-3.1518729e+90 7.4388012e+89 -1.3950332e+89)
(-2.7516851e+90 8.8380987e+89 -1.9216592e+89)
(-2.9870738e+90 9.2585503e+89 -2.6487257e+89)
(-4.173075e+90 2.6390075e+89 -3.1235242e+88)
(-4.2402259e+90 2.272861e+89 2.4106812e+88)
(-4.3149811e+90 3.813939e+89 5.5934718e+89)
(-4.3056402e+90 1.8530254e+89 5.2613124e+89)
(-4.3052486e+90 3.8374506e+89 4.9674359e+89)
(-4.1558029e+90 2.9669122e+89 -6.1538572e+88)
(-4.2085815e+90 2.1476397e+89 -3.7225552e+88)
(-4.2816515e+90 2.3292943e+89 4.8529375e+89)
(-4.2306127e+90 2.9997777e+89 1.6239936e+89)
(-4.1133091e+90 1.8005953e+89 -2.1964842e+89)
(-4.0534605e+90 2.4800778e+89 -2.4612148e+89)
(-4.2211854e+90 1.9209445e+89 1.530902e+89)
(-4.2542126e+90 3.2520135e+89 2.2978201e+89)
(-4.0718188e+90 2.2554059e+89 -2.2160344e+89)
(-4.1328477e+90 1.9905307e+89 -1.6045843e+89)
(-4.2396175e+90 1.7226493e+89 1.9171256e+89)
(-4.0657603e+90 5.2120094e+89 -2.1210239e+88)
(-3.5028505e+90 6.3176152e+89 -7.6389726e+87)
(-2.8570222e+90 8.6442302e+89 -4.7884258e+88)
(-3.152973e+90 8.2466965e+89 -2.0974301e+88)
(-3.3169396e+90 9.2481033e+89 -1.6186575e+89)
(-3.1354562e+90 8.9496176e+89 -1.0406736e+89)
(-3.1691354e+90 9.2630908e+89 -6.8405879e+88)
(-3.1506287e+90 1.0043505e+90 -1.1271478e+89)
(-3.8233572e+90 5.3816849e+89 -5.5604228e+88)
(-3.8443852e+90 6.5760165e+89 -4.708364e+88)
(-3.7253838e+90 7.002877e+89 -5.7051227e+88)
(-3.5301499e+90 6.0107781e+89 -6.954713e+88)
(-3.4117316e+90 2.502535e+89 3.789688e+89)
(-3.3698353e+90 2.4574546e+89 3.706745e+89)
(-3.4033663e+90 2.5067574e+89 3.9500709e+89)
(-3.3717049e+90 2.3824596e+89 3.6143288e+89)
(-2.9554966e+90 1.8667583e+89 3.0880276e+89)
(-2.9316208e+90 1.5952708e+89 2.8611919e+89)
(-2.915744e+90 1.6069182e+89 2.5836433e+89)
(-2.9374872e+90 1.6744252e+89 2.6827752e+89)
(-3.412299e+90 2.3671538e+89 3.6890768e+89)
(-3.3630104e+90 2.3589854e+89 3.5441992e+89)
(-3.4258355e+90 2.3750078e+89 4.1187509e+89)
(-3.4007208e+90 2.1720453e+89 3.7684111e+89)
(-3.4233165e+90 2.2544793e+89 3.7559319e+89)
(-3.3838925e+90 2.2521851e+89 3.6193856e+89)
(-3.4431228e+90 2.1174666e+89 4.002077e+89)
(-3.4126689e+90 2.0594409e+89 3.6557429e+89)
(-3.4311402e+90 2.0366556e+89 3.8242272e+89)
(-3.3952369e+90 2.0179526e+89 3.6736551e+89)
(-4.003309e+90 2.8725682e+89 3.4611956e+89)
(-3.4448858e+90 2.1451298e+89 4.3486829e+89)
(-3.4257185e+90 1.9078758e+89 3.9700137e+89)
(-4.04146e+90 2.7768739e+89 3.5607232e+89)