/*--------------------------------*- C++ -*----------------------------------*\
  =========                 |
  \\      /  F ield         | OpenFOAM: The Open Source CFD Toolbox
   \\    /   O peration     | Website:  https://openfoam.org
    \\  /    A nd           | Version:  7
     \\/     M anipulation  |
\*---------------------------------------------------------------------------*/
FoamFile
{
    version     2.0;
    format      ascii;
    class       volVectorField;
    location    "2000";
    object      UMean;
}
// * * * * * * * * * * * * * * * * * * * * * * * * * * * * * * * * * * * * * //

dimensions      [0 1 -1 0 0 0 0];

internalField   nonuniform List<vector> 
34222
(
(-3.1547388e+88 1.2942942e+87 1.0318008e+87)
(-3.4382454e+88 1.5827399e+87 2.1452698e+87)
(-3.0870575e+88 7.5045378e+86 6.5517498e+86)
(-2.2456944e+88 3.1972759e+86 -2.718138e+86)
(-2.2294839e+88 1.5521807e+86 -6.4817097e+86)
(-2.0278671e+88 -6.9108546e+86 -1.2203241e+87)
(-2.1622372e+88 -6.2345714e+86 -9.301649e+86)
(-3.5226066e+88 1.2776183e+87 6.1136854e+86)
(-3.4270368e+88 1.2996745e+87 2.085974e+87)
(-2.309838e+88 8.7815695e+86 3.4631497e+86)
(-2.3052751e+88 3.4581413e+86 -1.1964991e+85)
(-2.255996e+88 5.8846689e+86 -2.2933728e+85)
(-2.2526e+88 7.4890777e+86 1.4050089e+86)
(-3.0040065e+88 1.2242537e+87 1.2161564e+87)
(-2.3145453e+88 -1.2354608e+86 -6.7490227e+86)
(-2.1436907e+88 -3.255691e+86 -3.7175159e+86)
(-2.3724147e+88 5.3948145e+85 1.2202201e+86)
(-2.145875e+88 -9.4462238e+86 -1.027569e+87)
(-2.0343057e+88 2.004813e+86 -8.4131107e+86)
(-2.0701406e+88 5.4245674e+86 -8.3854809e+86)
(-2.0982948e+88 -1.9468423e+86 -1.3058846e+87)
(-1.9663409e+88 -8.9059236e+86 -1.3142692e+87)
(-2.6705877e+88 2.1684512e+87 2.914662e+87)
(-3.5238684e+88 1.0721812e+87 5.2262283e+86)
(-3.4349678e+88 9.7426492e+86 -5.4097709e+86)
(-2.3047996e+88 4.3980702e+86 -3.79406e+86)
(-2.3526589e+88 5.4507628e+86 -1.9098834e+86)
(-2.3605512e+88 8.1814623e+86 -1.0209043e+86)
(-2.3297215e+88 7.4065735e+86 -1.8727146e+86)
(-3.3601119e+88 1.0186175e+87 2.0272814e+87)
(-2.3769383e+88 6.5326623e+86 -2.214146e+86)
(-2.3476527e+88 4.702267e+86 -8.5564687e+85)
(-2.2509248e+88 6.0398739e+86 -1.8532903e+86)
(-2.0830504e+88 2.7978858e+86 2.9493522e+86)
(-2.2599983e+88 1.5822172e+87 2.4055474e+85)
(-2.2673241e+88 1.4035648e+87 -1.7055443e+86)
(-2.2269329e+88 1.3761613e+87 -4.2154459e+86)
(-2.1276473e+88 1.3296498e+87 -2.8656318e+86)
(-2.9914506e+88 1.2813426e+87 1.0302651e+87)
(-2.1256329e+88 1.6061063e+87 -2.5543951e+86)
(-2.2303841e+88 1.0327004e+87 -2.0041771e+86)
(-2.1792942e+88 6.6084356e+86 -2.3459394e+86)
(-1.8611133e+88 5.1861531e+86 2.979991e+85)
(-1.801056e+88 8.1892041e+86 -1.2822997e+87)
(-2.2625946e+88 5.670139e+86 -7.5351505e+86)
(-1.9350021e+88 4.1860903e+86 -7.8374753e+86)
(-2.1348227e+88 -1.6353638e+86 -1.2621186e+87)
(-1.9723125e+88 2.6651702e+86 -9.6205189e+86)
(-2.0468058e+88 5.3976354e+86 -8.0949203e+86)
(-2.2631516e+88 3.750983e+86 -8.1420259e+86)
(-2.1965305e+88 -2.8228754e+86 -9.6915553e+86)
(-2.4346459e+88 2.208208e+87 -2.1581845e+86)
(-2.5443307e+88 1.8464791e+87 3.6014007e+87)
(-2.5311919e+88 1.1172405e+87 3.5653252e+87)
(-2.6624101e+88 2.3830149e+87 2.692449e+87)
(-2.7718846e+88 7.6295646e+86 2.9700087e+87)
(-2.7057502e+88 1.0281539e+87 2.7586763e+87)
(-3.5207398e+88 8.932831e+86 4.9111807e+86)
(-3.44205e+88 8.5923699e+86 -6.121671e+86)
(-2.3641598e+88 5.3066946e+86 -6.1889486e+86)
(-2.3475132e+88 4.0696497e+86 -3.5404466e+86)
(-2.3641834e+88 7.3893677e+86 -1.461765e+86)
(-2.3827632e+88 7.357746e+86 -5.0175397e+86)
(-2.3377723e+88 4.9970339e+86 -1.379029e+86)
(-2.3071791e+88 5.9849446e+86 -8.2478599e+86)
(-2.3328098e+88 6.5060338e+86 -7.4608066e+86)
(-2.3548379e+88 7.1570649e+86 1.8876649e+85)
(-2.2265943e+88 1.0731699e+87 -1.7472299e+86)
(-2.2246647e+88 9.4918839e+86 -1.7029261e+86)
(-2.2869356e+88 1.1623502e+87 -1.9715997e+86)
(-2.2836328e+88 1.3043371e+87 -1.4871053e+86)
(-2.7063228e+88 4.0554213e+86 2.0598692e+87)
(-2.681573e+88 8.1799932e+86 2.026854e+87)
(-3.3517306e+88 1.1375438e+87 2.0062748e+87)
(-2.2390234e+88 2.9671955e+86 -3.0763497e+86)
(-2.2458473e+88 3.7747239e+86 -3.5352486e+86)
(-2.0997963e+88 6.0264634e+86 -1.5243458e+86)
(-2.2444812e+88 3.8690872e+86 -4.7369336e+86)
(-2.1862631e+88 8.1384424e+86 -5.5330956e+86)
(-2.3336487e+88 9.8807184e+86 -3.7843307e+86)
(-2.2531102e+88 1.0969809e+87 -4.840621e+86)
(-2.2755829e+88 9.9232092e+86 -5.1412548e+86)
(-1.9089834e+88 9.8995146e+86 -3.5907951e+86)
(-1.8743854e+88 9.0255116e+86 -5.03034e+86)
(-1.9447425e+88 9.7875408e+86 -8.0253262e+86)
(-1.9309206e+88 8.0185511e+86 -6.2823927e+86)
(-2.2534601e+88 7.8063278e+86 -2.9805042e+86)
(-2.2029419e+88 3.6420037e+86 -2.9823295e+86)
(-2.1176167e+88 1.0180474e+87 -2.8684722e+86)
(-2.0277849e+88 1.1457847e+87 -5.8197956e+86)
(-2.2528947e+88 2.1492273e+87 -8.2976669e+86)
(-2.2699922e+88 1.4854046e+87 -5.9299106e+86)
(-2.1317781e+88 1.6065331e+87 -9.6557053e+86)
(-1.84575e+88 1.6168148e+87 -1.1029863e+87)
(-1.8712846e+88 2.8783316e+86 -1.2549039e+87)
(-1.9792896e+88 2.1620983e+86 -9.2242072e+86)
(-1.8554936e+88 4.6027262e+85 -1.0605681e+87)
(-2.1208344e+88 -3.0011419e+86 -1.0993446e+87)
(-2.1128401e+88 4.5196414e+86 -8.5494055e+86)
(-2.142845e+88 6.4491127e+86 -6.710574e+86)
(-2.3154856e+88 5.1423297e+86 -6.7857782e+86)
(-2.2903307e+88 -6.3171214e+85 -8.2292477e+86)
(-2.4581534e+88 1.4472838e+87 -2.8189786e+87)
(-1.9474079e+88 2.3448351e+87 2.7427738e+84)
(-2.4491001e+88 6.6436591e+86 -2.8175768e+87)
(-2.460634e+88 2.373007e+87 2.7234345e+85)
(-1.9364288e+88 9.8086562e+86 -1.5047354e+86)
(-2.1391873e+88 9.8007698e+86 2.7757895e+87)
(-1.8031684e+88 4.6131276e+86 2.2513747e+87)
(-2.6310046e+88 3.6528163e+86 3.2412598e+87)
(-2.1474534e+88 8.340884e+86 2.7763689e+87)
(-2.6314057e+88 8.9833392e+86 3.1981401e+87)
(-2.1482718e+88 9.5438609e+86 2.6275283e+87)
(-2.1345513e+88 7.6059905e+86 2.6994249e+87)
(-2.5951554e+88 9.3140084e+86 3.0686577e+87)
(-2.5044441e+88 1.6740176e+87 3.3472447e+87)
(-2.6158178e+88 4.0334064e+86 3.0418532e+87)
(-2.5372194e+88 1.0535904e+87 3.6006881e+87)
(-2.7329707e+88 6.4710435e+86 2.6948686e+87)
(-2.7352805e+88 1.0170239e+87 2.8579196e+87)
(-2.715607e+88 2.5215974e+87 2.7442504e+87)
(-2.8762016e+88 2.9873793e+86 1.0424788e+87)
(-2.75405e+88 3.3211524e+86 -6.6853681e+86)
(-3.5100272e+88 9.3712105e+86 3.9013671e+86)
(-2.7250498e+88 5.5544793e+86 -6.3679503e+86)
(-3.445433e+88 7.5522291e+86 -6.5619407e+86)
(-2.3327731e+88 4.6204396e+86 -6.5893317e+86)
(-2.3461683e+88 3.3186367e+86 -3.6014601e+86)
(-2.3236312e+88 4.5362158e+86 -4.0540797e+86)
(-2.3435444e+88 3.9809086e+86 -5.8857266e+86)
(-2.8241728e+88 7.7570923e+86 9.3612663e+86)
(-2.3469192e+88 6.3721187e+86 -2.4182701e+86)
(-2.3319936e+88 2.8966603e+86 -2.4709418e+86)
(-2.3137379e+88 4.2543067e+86 -9.0343985e+86)
(-2.3671493e+88 5.7737586e+86 -8.7216604e+86)
(-2.2856004e+88 8.3819868e+86 -3.5916763e+86)
(-2.2381194e+88 7.3222658e+86 -2.5179317e+86)
(-2.2788087e+88 9.7362977e+86 -2.1257225e+86)
(-2.2892364e+88 1.1294411e+87 -4.2129513e+86)
(-2.1969763e+88 9.1054882e+86 -5.4737495e+86)
(-2.2028524e+88 9.1731787e+86 -4.9865316e+86)
(-2.2475891e+88 9.9176132e+86 -3.9529578e+86)
(-2.2449559e+88 8.4273634e+86 -4.4906086e+86)
(-1.914067e+88 6.295487e+86 -3.2017545e+86)
(-2.0611911e+88 7.4942627e+86 -2.8988832e+86)
(-2.1246125e+88 1.0552847e+87 -2.5311742e+86)
(-2.1011224e+88 1.0623772e+87 -2.7691333e+86)
(-2.4783505e+88 2.5131552e+86 2.1039213e+87)
(-2.1704869e+88 6.3232331e+86 1.883719e+87)
(-2.4974879e+88 7.5094605e+86 2.0477495e+87)
(-2.4757247e+88 2.5259002e+86 1.9505492e+87)
(-2.4675348e+88 7.3760662e+86 2.0161489e+87)
(-2.6802947e+88 4.2307648e+86 1.8733099e+87)
(-2.6893018e+88 8.3779335e+86 2.0543142e+87)
(-3.4000034e+88 1.1520739e+87 2.0766863e+87)
(-2.3591982e+88 6.2786568e+86 -3.5462471e+85)
(-2.2498815e+88 7.9682786e+86 -2.7489066e+86)
(-2.1822321e+88 5.0311228e+86 -3.0241515e+86)
(-2.3407507e+88 6.3043558e+86 -3.7756152e+86)
(-2.1918153e+88 7.6561049e+86 -3.9121603e+86)
(-2.2777147e+88 6.0811323e+86 -4.2449458e+86)
(-2.2694572e+88 7.5048804e+86 -3.9910151e+86)
(-2.1898328e+88 1.1280074e+87 -6.3307949e+86)
(-1.9273958e+88 5.5521305e+86 -9.7774068e+86)
(-1.8499363e+88 5.1127665e+86 -7.1480125e+86)
(-1.8951867e+88 6.8380083e+86 -7.4771207e+86)
(-1.9902783e+88 8.8383566e+86 -8.5893224e+86)
(-2.0260612e+88 1.0921844e+87 -3.8529903e+86)
(-1.9270337e+88 9.0815402e+86 -5.252318e+86)
(-2.0278254e+88 9.8217584e+86 -7.4526619e+86)
(-2.0660052e+88 9.5704713e+86 -5.5059764e+86)
(-2.1356475e+88 5.83754e+86 -5.8976753e+86)
(-2.1988696e+88 6.7370802e+86 -6.2804019e+86)
(-2.1686973e+88 1.3681255e+87 -8.3742441e+86)
(-2.1104989e+88 1.1081229e+87 -8.4697076e+86)
(-2.2022646e+88 2.1508951e+87 -9.4200635e+86)
(-1.9294619e+88 1.3262352e+87 -8.0246321e+86)
(-1.9670358e+88 1.3427433e+87 -1.2257049e+87)
(-1.9857638e+88 1.493752e+87 -1.2984352e+87)
(-2.0660472e+88 2.7291468e+85 -1.0780814e+87)
(-2.0484581e+88 5.7946348e+85 -8.86628e+86)
(-1.9726988e+88 -5.4281207e+85 -1.0594757e+87)
(-2.2176947e+88 -3.0871563e+86 -9.1648521e+86)
(-2.7052018e+88 5.4267625e+86 -2.0001652e+87)
(-2.6961596e+88 1.224249e+87 -1.9621168e+87)
(-2.2886619e+88 5.8547056e+86 -2.6365367e+87)
(-2.4161612e+88 6.7716228e+86 -2.3844756e+87)
(-2.4234954e+88 3.0608921e+86 -2.3472423e+87)
(-2.2874672e+88 6.2976128e+86 -2.6363808e+87)
(-1.8576235e+88 8.7279688e+86 -3.4442185e+87)
(-9.8545703e+87 2.5855158e+86 7.5737226e+86)
(-1.3996731e+88 1.5357005e+87 9.5361569e+85)
(-1.8646279e+88 6.1284382e+86 -3.4579008e+87)
(-1.4213912e+88 7.077255e+86 1.7916158e+86)
(-2.4584754e+88 1.3834608e+87 -2.7796791e+87)
(-2.2933004e+88 6.1122838e+86 -2.7037421e+87)
(-2.4213532e+88 7.2705533e+86 -2.402254e+87)
(-2.4358458e+88 3.2147995e+86 -2.3960406e+87)
(-2.2904103e+88 6.3437797e+86 -2.5950031e+87)
(-2.4774484e+88 5.982085e+86 -2.8125884e+87)
(-2.5287553e+88 2.2598603e+87 2.4062629e+86)
(-1.9708423e+88 9.0520149e+86 4.2157421e+85)
(-1.9512889e+88 2.3587218e+87 -7.1011993e+85)
(-1.8594383e+88 6.2083003e+86 -3.4935857e+87)
(-1.8624977e+88 8.9541794e+86 -3.4412198e+87)
(-1.4052012e+88 7.1300459e+86 7.4377505e+84)
(-1.4138883e+88 1.5843255e+87 1.0968341e+86)
(-1.8099825e+88 6.3415098e+86 2.2031913e+87)
(-1.8117848e+88 6.2096444e+86 2.1660638e+87)
(-2.3076133e+88 6.6547073e+86 2.7804363e+87)
(-2.3049436e+88 2.8691594e+86 2.7877187e+87)
(-1.5707942e+88 2.9511771e+86 2.075112e+87)
(-1.5658952e+88 3.1751634e+86 1.9682884e+87)
(-1.9827194e+88 2.9818861e+86 2.4816628e+87)
(-1.9786051e+88 5.5268997e+86 2.5219293e+87)
(-2.3056463e+88 7.6810443e+86 2.7238556e+87)
(-1.8125541e+88 5.4194563e+86 2.1860133e+87)
(-1.8055863e+88 6.284798e+86 2.0400476e+87)
(-2.3096194e+88 3.9643091e+86 2.648866e+87)
(-1.8162363e+88 5.367331e+86 2.1081424e+87)
(-1.8112599e+88 6.2653712e+86 2.0785978e+87)
(-2.3208936e+88 6.3381708e+86 2.6915487e+87)
(-2.3070515e+88 3.1155996e+86 2.6022166e+87)
(-1.8091471e+88 5.2355749e+86 2.15204e+87)
(-1.8045694e+88 5.5915569e+86 1.9876255e+87)
(-2.297365e+88 7.461574e+86 2.6999436e+87)
(-2.3040482e+88 3.4941843e+86 2.6109547e+87)
(-2.133922e+88 9.5546093e+86 2.5745928e+87)
(-2.6020482e+88 3.0217197e+86 2.8823195e+87)
(-2.1329712e+88 8.1633301e+86 2.5576261e+87)
(-2.6013673e+88 8.8996546e+86 2.8924758e+87)
(-2.5246762e+88 1.5244258e+87 3.4208096e+87)
(-2.6110801e+88 9.2787317e+86 3.1254027e+87)
(-2.1400383e+88 7.4464848e+86 2.7084539e+87)
(-2.6260448e+88 4.0558589e+86 3.0341985e+87)
(-2.1455813e+88 8.9460501e+86 2.5783525e+87)
(-2.7702754e+88 5.8151974e+86 2.8012887e+87)
(-2.7992961e+88 8.1985886e+86 2.9463154e+87)
(-2.5274406e+88 7.8449237e+86 3.4983724e+87)
(-2.1901961e+88 5.1027776e+86 8.1553102e+86)
(-2.2833391e+88 6.2639985e+86 1.8715639e+87)
(-2.6034687e+88 2.3915971e+86 1.6331311e+87)
(-2.142504e+88 4.1035805e+86 -3.279592e+86)
(-2.5085315e+88 3.0335776e+86 1.7207998e+86)
(-2.2153497e+88 5.0547836e+86 3.385059e+86)
(-2.6211598e+88 6.7382361e+86 1.5550119e+87)
(-2.5169584e+88 5.1310454e+86 1.6061892e+85)
(-2.4688315e+88 2.6586101e+86 -9.3310983e+86)
(-2.1901996e+88 3.5894858e+86 -7.5766193e+86)
(-2.544579e+88 2.615071e+86 -3.5713259e+86)
(-2.1427539e+88 3.5136547e+86 -7.6218578e+86)
(-2.1681617e+88 4.0175486e+86 -4.7526357e+86)
(-2.5536474e+88 4.9461543e+86 -5.2539923e+86)
(-2.4727808e+88 3.9779789e+86 -1.2056712e+87)
(-2.8060602e+88 2.1966384e+86 -5.7634551e+86)
(-2.7532915e+88 5.5398509e+86 -5.34406e+86)
(-2.840867e+88 7.9248814e+86 1.0214894e+87)
(-2.721251e+88 3.0259606e+86 -6.9954775e+86)
(-3.5312144e+88 9.0407846e+86 4.0402239e+86)
(-2.3787189e+88 5.9271114e+86 -5.3924111e+86)
(-2.3580838e+88 4.3395375e+86 -4.5363097e+86)
(-3.4511701e+88 7.6022746e+86 -6.8319456e+86)
(-2.3127826e+88 5.4869317e+86 -4.4469549e+86)
(-2.322258e+88 6.8020197e+86 -4.9995804e+86)
(-2.8376102e+88 3.2831288e+86 8.5404077e+86)
(-2.53955e+88 5.0981625e+86 -4.2359238e+86)
(-2.464083e+88 3.8214577e+86 -1.0818651e+87)
(-2.5544894e+88 2.6808337e+86 -4.7938798e+86)
(-2.4838097e+88 2.6024149e+86 -1.1227589e+87)
(-2.7638105e+88 6.3721459e+86 -6.5144235e+86)
(-2.3367047e+88 5.2311142e+86 -2.5550466e+86)
(-2.3484715e+88 2.4188342e+86 -3.3018639e+86)
(-2.3290541e+88 3.8710057e+86 -9.0558569e+86)
(-2.322949e+88 4.2273057e+86 -9.2887363e+86)
(-2.2215873e+88 5.7051136e+86 -4.9896905e+86)
(-2.2292176e+88 5.422123e+86 -3.2387043e+86)
(-2.2026506e+88 5.9060633e+86 -4.6936375e+86)
(-2.2154816e+88 6.3505095e+86 -4.9015624e+86)
(-2.5781689e+88 6.7805842e+86 1.4925535e+87)
(-2.5983345e+88 2.5461951e+86 1.4669667e+87)
(-2.5135374e+88 2.6391756e+86 7.1291506e+85)
(-2.51059e+88 5.2846919e+86 1.4057949e+86)
(-2.2333128e+88 8.0527035e+86 -6.1412818e+86)
(-2.1910502e+88 5.4681525e+86 -6.5643949e+86)
(-2.2158575e+88 6.1609756e+86 -5.5695265e+86)
(-2.283546e+88 8.9083351e+86 -4.5173608e+86)
(-1.8963714e+88 5.3807439e+86 -4.7621691e+86)
(-1.9659412e+88 6.2126217e+86 -3.576269e+86)
(-2.0202381e+88 6.2651224e+86 -2.8517991e+86)
(-2.0017548e+88 6.6963096e+86 -5.7685045e+86)
(-2.0077603e+88 8.8540245e+86 -4.1819725e+86)
(-2.0983293e+88 8.4699795e+86 -4.5348071e+86)
(-2.1433685e+88 1.0156461e+87 -2.5655721e+86)
(-2.1034727e+88 8.4876226e+86 -2.4483031e+86)
(-1.9915714e+88 8.5193336e+86 -3.9575994e+86)
(-2.1270593e+88 1.0141435e+87 -3.9008272e+86)
(-2.084907e+88 1.0475459e+87 -2.6909971e+86)
(-2.1582561e+88 1.1014916e+87 -3.1085335e+86)
(-2.1750313e+88 2.6250577e+86 1.8860883e+87)
(-2.1775701e+88 6.504216e+86 1.8485186e+87)
(-1.8677638e+88 4.8520754e+86 1.8412719e+87)
(-1.869366e+88 2.0049282e+86 1.7758292e+87)
(-2.1820488e+88 2.9565616e+86 1.7309213e+87)
(-2.1843407e+88 6.538108e+86 1.8155016e+87)
(-2.1791564e+88 2.7553009e+86 1.7598186e+87)
(-2.1892109e+88 6.017636e+86 1.7807605e+87)
(-2.1728711e+88 2.3542748e+86 1.7391357e+87)
(-2.1729905e+88 6.3256047e+86 1.8389713e+87)
(-2.4697532e+88 2.2959334e+86 1.9094933e+87)
(-2.4731627e+88 7.346197e+86 1.868885e+87)
(-2.4763553e+88 7.5512699e+86 2.0492237e+87)
(-2.7049477e+88 4.301509e+86 1.9199549e+87)
(-2.481365e+88 2.571794e+86 1.942247e+87)
(-2.7075946e+88 6.9746884e+86 1.9434515e+87)
(-2.2522034e+88 8.1400128e+86 -8.1811645e+85)
(-2.3842749e+88 4.9499112e+86 -1.1445438e+86)
(-2.3791416e+88 3.905285e+86 1.9294392e+86)
(-2.3511978e+88 7.3350096e+86 8.9152353e+85)
(-2.222977e+88 6.4943043e+86 -2.1863846e+86)
(-2.1624522e+88 5.3278679e+86 -2.7575482e+86)
(-2.106597e+88 3.1633041e+86 -4.1305317e+86)
(-2.1619595e+88 4.5920257e+86 -3.4549397e+86)
(-1.7043533e+88 3.0533533e+86 -6.713985e+86)
(-1.7771762e+88 2.4405251e+86 -4.9019546e+86)
(-1.7834464e+88 3.5263061e+86 -6.048107e+86)
(-1.8714707e+88 8.957177e+86 -1.0252218e+87)
(-1.989568e+88 5.2472447e+86 -1.015003e+87)
(-1.8244898e+88 2.3425565e+86 -7.5417839e+86)
(-1.8218571e+88 4.6020224e+86 -7.3953276e+86)
(-1.9673272e+88 4.5338659e+86 -8.3249587e+86)
(-2.0707297e+88 5.9052231e+86 -7.5610648e+86)
(-1.9361118e+88 7.7271902e+86 -7.0047227e+86)
(-2.2258657e+88 1.6034984e+87 -7.5700251e+86)
(-2.2216682e+88 1.2334582e+87 -8.1090643e+86)
(-2.2386634e+88 1.9958588e+87 -7.9311623e+86)
(-2.0688678e+88 1.483002e+87 -6.6677337e+86)
(-2.0521653e+88 1.3383769e+87 -1.1325406e+87)
(-2.1026e+88 1.273068e+87 -1.2228636e+87)
(-2.8355691e+88 7.6135953e+86 -2.3322138e+87)
(-2.8248108e+88 6.9368256e+86 -2.3169943e+87)
(-2.430482e+88 6.1489989e+86 -3.0322922e+87)
(-2.3701915e+88 5.8470323e+86 -1.8495869e+87)
(-2.373147e+88 1.8044676e+86 -1.8112147e+87)
(-2.4266356e+88 4.7959691e+86 -2.9909956e+87)
(-1.9547132e+88 5.3840731e+86 -3.1121657e+87)
(-1.6365175e+88 5.1724428e+86 -3.7155868e+87)
(-1.6395919e+88 4.4884737e+86 -3.7739144e+87)
(-1.9581251e+88 2.9026984e+86 -3.1325178e+87)
(-1.1266293e+88 5.8842569e+86 -3.3586312e+87)
(-8.357214e+87 4.2605725e+86 -3.8751988e+87)
(-6.474547e+87 3.7318481e+86 -1.2743361e+87)
(-6.6067465e+87 3.3296744e+86 -1.076743e+87)
(-9.6319538e+87 9.9924519e+85 1.2859259e+87)
(-9.8779736e+87 9.6896845e+86 7.2853058e+86)
(-9.7842913e+87 2.9786455e+86 1.3473706e+87)
(-1.1339101e+88 5.3038257e+86 -3.2536994e+87)
(-1.0106728e+88 4.6736693e+86 9.0490624e+86)
(-1.9616572e+88 3.2545168e+86 -3.1536381e+87)
(-1.955216e+88 5.8445654e+86 -3.160697e+87)
(-1.640242e+88 5.4267058e+86 -3.7773284e+87)
(-1.6417095e+88 4.5876329e+86 -3.7336124e+87)
(-1.1309155e+88 5.3917988e+86 -3.3235285e+87)
(-1.1363084e+88 6.2859419e+86 -3.3003086e+87)
(-1.0073088e+88 3.988049e+86 8.1365682e+86)
(-1.0060885e+88 9.7349675e+86 8.0965086e+86)
(-2.2987395e+88 5.4645155e+86 -2.6036111e+87)
(-2.431995e+88 6.3384137e+86 -2.397139e+87)
(-2.4379014e+88 2.96141e+86 -2.3564069e+87)
(-2.297835e+88 6.3694486e+86 -2.6839177e+87)
(-2.4346953e+88 6.0472231e+86 -3.0693297e+87)
(-2.3788487e+88 5.9579721e+86 -1.8913472e+87)
(-2.3802689e+88 1.7419834e+86 -1.8126809e+87)
(-2.4283297e+88 4.677205e+86 -2.9304351e+87)
(-2.5048203e+88 1.2218729e+87 -2.8123541e+87)
(-2.4449905e+88 3.0515323e+86 -2.3989544e+87)
(-2.4276229e+88 6.9413904e+86 -2.3912578e+87)
(-2.3054076e+88 5.3333489e+86 -2.6656626e+87)
(-2.3025918e+88 5.8300707e+86 -2.6239308e+87)
(-2.5143355e+88 1.8423585e+86 -2.8762057e+87)
(-1.987728e+88 3.5164161e+86 1.0058634e+86)
(-1.999242e+88 2.0721115e+87 1.7152098e+86)
(-1.8705257e+88 5.3577971e+86 -3.4874874e+87)
(-1.8715177e+88 8.3457173e+86 -3.4608886e+87)
(-1.4261168e+88 6.350952e+86 1.2485132e+86)
(-1.4312367e+88 1.5233e+87 1.5221179e+86)
(-1.8714061e+88 6.0828606e+86 -3.464335e+87)
(-1.8667541e+88 9.1878669e+86 -3.5016509e+87)
(-1.4095592e+88 1.6623412e+87 -3.9108343e+84)
(-1.4289384e+88 7.882656e+86 1.5218274e+86)
(-1.9707676e+88 3.2867083e+86 -3.1924362e+87)
(-1.9608432e+88 6.0305562e+86 -3.1995789e+87)
(-1.6453886e+88 5.7224781e+86 -3.8048579e+87)
(-1.6516176e+88 4.6815351e+86 -3.7588678e+87)
(-1.9564436e+88 3.0503577e+86 -3.1025082e+87)
(-1.9510865e+88 5.3075371e+86 -3.0820303e+87)
(-1.6343364e+88 5.0776293e+86 -3.7010931e+87)
(-1.6422913e+88 4.8053368e+86 -3.7591001e+87)
(-1.132077e+88 5.8731496e+86 -3.3745343e+87)
(-1.1426422e+88 6.4067148e+86 -3.3541016e+87)
(-9.9868213e+87 4.3647098e+86 7.6708209e+86)
(-1.0061585e+88 9.6599249e+86 7.7580597e+86)
(-1.13161e+88 6.448028e+86 -3.3478402e+87)
(-1.1315941e+88 5.2929438e+86 -3.2460327e+87)
(-1.0100908e+88 4.3492665e+86 8.8100269e+86)
(-9.9727931e+87 1.0136531e+87 7.2970389e+86)
(-1.5818105e+88 4.8853395e+86 2.0571806e+87)
(-1.5755486e+88 4.8039714e+86 2.0538973e+87)
(-1.9954069e+88 5.2360935e+86 2.5289254e+87)
(-1.9885474e+88 2.6422032e+86 2.5212114e+87)
(-1.5765109e+88 4.4049812e+86 2.0750187e+87)
(-1.5696812e+88 5.1266771e+86 1.9365383e+87)
(-1.992059e+88 4.1205044e+86 2.4372427e+87)
(-1.9905187e+88 6.0639147e+86 2.4989279e+87)
(-1.3587043e+88 2.9461986e+86 1.9418004e+87)
(-1.3554459e+88 1.7398101e+86 2.0099468e+87)
(-1.7255684e+88 4.0970848e+86 2.1316757e+87)
(-1.733716e+88 2.4002755e+86 2.1691168e+87)
(-1.3493063e+88 3.1897776e+86 1.9469431e+87)
(-1.3469709e+88 1.5037892e+86 1.892984e+87)
(-1.7309297e+88 3.0665194e+86 2.064238e+87)
(-1.7286458e+88 1.5364892e+86 2.0639459e+87)
(-1.5753029e+88 3.6318763e+86 2.064312e+87)
(-1.5771291e+88 4.2509378e+86 1.9847537e+87)
(-1.9938273e+88 3.5686766e+86 2.4631428e+87)
(-1.9881866e+88 5.9447975e+86 2.4996787e+87)
(-1.5731485e+88 4.0278973e+86 1.9744685e+87)
(-1.5661262e+88 5.0537464e+86 1.9698629e+87)
(-1.9870672e+88 3.0446713e+86 2.4010125e+87)
(-1.9935131e+88 4.9629766e+86 2.4031418e+87)
(-1.5790409e+88 3.5725385e+86 2.0526225e+87)
(-1.5732178e+88 4.5918796e+86 1.9356687e+87)
(-2.00073e+88 3.6831787e+86 2.4192729e+87)
(-1.9982818e+88 5.5780692e+86 2.4659103e+87)
(-1.58005e+88 4.3835359e+86 1.9944223e+87)
(-1.5750055e+88 4.903814e+86 2.0023747e+87)
(-1.9914764e+88 2.8727077e+86 2.4356205e+87)
(-1.9976646e+88 5.068422e+86 2.4290128e+87)
(-1.5779967e+88 3.7309656e+86 2.0778671e+87)
(-1.5765076e+88 3.8948762e+86 1.963535e+87)
(-1.9940844e+88 3.4187796e+86 2.4561808e+87)
(-1.9885171e+88 5.8828524e+86 2.5017587e+87)
(-1.8056118e+88 6.5003354e+86 2.0421809e+87)
(-1.574931e+88 3.6583679e+86 1.9583648e+87)
(-1.5723978e+88 4.4138228e+86 1.9726378e+87)
(-1.9901948e+88 2.6194901e+86 2.3903174e+87)
(-1.9934935e+88 4.5865107e+86 2.3797499e+87)
(-2.3008277e+88 2.81032e+86 2.5817765e+87)
(-2.3133005e+88 6.6293027e+86 2.6061083e+87)
(-1.8145982e+88 6.3567676e+86 2.049127e+87)
(-1.8051355e+88 6.2328591e+86 1.9311419e+87)
(-1.8067713e+88 5.2256175e+86 2.0451384e+87)
(-2.2978122e+88 7.4220976e+86 2.5547826e+87)
(-2.3059973e+88 3.8986774e+86 2.5043782e+87)
(-2.1387952e+88 8.7197463e+86 2.6380374e+87)
(-2.1346756e+88 7.0916889e+86 2.6222075e+87)
(-2.6290023e+88 7.9656142e+86 3.0135366e+87)
(-2.6322889e+88 2.9185567e+86 3.0385973e+87)
(-1.81201e+88 5.2458789e+86 2.1457152e+87)
(-2.3078877e+88 7.367737e+86 2.714355e+87)
(-1.8054033e+88 5.3923998e+86 1.9693772e+87)
(-2.3128149e+88 3.6259376e+86 2.6171972e+87)
(-1.8184487e+88 5.3680498e+86 2.0697606e+87)
(-1.8103471e+88 5.8148928e+86 2.0335562e+87)
(-2.3327729e+88 6.2078867e+86 2.6766018e+87)
(-2.3154195e+88 2.874469e+86 2.5767062e+87)
(-2.1359006e+88 5.8162261e+86 2.7064586e+87)
(-2.1369487e+88 7.4785748e+86 2.5846405e+87)
(-2.6271431e+88 7.9562101e+86 3.0496582e+87)
(-2.6396464e+88 2.7918889e+86 2.9949848e+87)
(-2.1983516e+88 2.9918404e+86 8.6749801e+86)
(-1.8690546e+88 3.7665e+86 3.1820777e+86)
(-1.8707937e+88 2.1299259e+86 2.8994288e+86)
(-1.9396529e+88 4.3817476e+86 9.3080137e+86)
(-1.9416209e+88 2.183873e+86 8.9665727e+86)
(-1.8960159e+88 4.4362031e+86 1.3328301e+87)
(-1.9719504e+88 5.148131e+86 2.03734e+87)
(-1.8956642e+88 1.8327349e+86 1.2793168e+87)
(-1.9763291e+88 2.2041209e+86 1.9968748e+87)
(-2.294987e+88 2.3277689e+86 1.9256477e+87)
(-2.1928807e+88 5.536132e+86 8.1100017e+86)
(-2.293461e+88 6.0177633e+86 1.869191e+87)
(-1.7928491e+88 3.1741711e+86 -4.8348548e+86)
(-1.837441e+88 3.4268232e+86 -3.2732967e+86)
(-1.7947238e+88 2.5601261e+86 -4.9140323e+86)
(-1.8399252e+88 2.5735673e+86 -3.3825956e+86)
(-2.1496422e+88 3.3603432e+86 -2.5849944e+86)
(-2.2268215e+88 2.884872e+86 3.957784e+86)
(-2.1456918e+88 4.5979128e+86 -3.0711534e+86)
(-2.2171738e+88 5.1231218e+86 3.2692748e+86)
(-1.8175215e+88 3.3649461e+86 -2.7629463e+86)
(-1.8831694e+88 3.793013e+86 1.3072794e+86)
(-1.8180711e+88 2.4110737e+86 -2.9460004e+86)
(-1.8862822e+88 2.3724776e+86 1.1502443e+86)
(-2.2041217e+88 3.4218436e+86 6.6622047e+86)
(-2.3015716e+88 3.0785309e+86 1.7568147e+87)
(-2.211581e+88 5.2359651e+86 7.2750599e+86)
(-2.3031178e+88 6.4520343e+86 1.8186566e+87)
(-2.2407005e+88 5.0821391e+86 2.7648893e+86)
(-2.1563004e+88 4.0444465e+86 -4.1274798e+86)
(-2.1552499e+88 4.0036427e+86 -4.4839842e+86)
(-2.2384139e+88 3.5811565e+86 2.2866076e+86)
(-2.1636643e+88 3.6711898e+86 -9.091352e+86)
(-2.1737756e+88 3.2267309e+86 -8.3226411e+86)
(-2.1875155e+88 4.0453883e+86 -7.3639154e+86)
(-2.192784e+88 3.1249576e+86 -6.8105773e+86)
(-2.5232391e+88 2.3161884e+86 -9.8642075e+86)
(-1.8769841e+88 2.9863778e+86 -6.1405785e+86)
(-1.8173415e+88 2.8813061e+86 -6.2935223e+86)
(-1.8206872e+88 2.8135206e+86 -6.3935125e+86)
(-1.8359948e+88 3.0324712e+86 -5.5814199e+86)
(-1.8397614e+88 2.7537083e+86 -5.4993129e+86)
(-2.1412625e+88 4.0816356e+86 -7.3954351e+86)
(-2.1697791e+88 4.3481705e+86 -4.536889e+86)
(-2.1757473e+88 3.2830688e+86 -4.0093164e+86)
(-2.1479631e+88 3.5386303e+86 -6.842177e+86)
(-1.7884174e+88 2.5069202e+86 -6.9085588e+86)
(-1.8139773e+88 2.7426935e+86 -6.0463095e+86)
(-1.7768897e+88 2.6683107e+86 -6.1634234e+86)
(-1.7976418e+88 2.8084949e+86 -6.2390742e+86)
(-1.7953262e+88 2.952379e+86 -6.2363417e+86)
(-1.8215074e+88 3.1531197e+86 -5.3856639e+86)
(-1.8231285e+88 2.7689026e+86 -5.4194567e+86)
(-1.784026e+88 3.1030534e+86 -5.5454947e+86)
(-1.8179869e+88 3.2971249e+86 -4.1350206e+86)
(-1.7846527e+88 2.7056706e+86 -5.6309984e+86)
(-1.8209702e+88 2.570801e+86 -4.1549603e+86)
(-2.1829777e+88 3.9645646e+86 -5.5649877e+86)
(-2.1868249e+88 3.9336656e+86 -5.8271034e+86)
(-2.1559687e+88 3.4793151e+86 -8.7737559e+86)
(-2.1530397e+88 4.328986e+86 -9.3708188e+86)
(-2.1887929e+88 3.0338453e+86 -1.0326646e+87)
(-2.1831289e+88 4.2991474e+86 -1.1150093e+87)
(-2.2020668e+88 3.5662156e+86 -8.8473453e+86)
(-2.2011972e+88 4.1439739e+86 -9.3789786e+86)
(-2.4970309e+88 4.0837705e+86 -1.3226102e+87)
(-2.4270523e+88 4.1476951e+86 -1.8102705e+87)
(-2.467097e+88 3.6992409e+86 -9.1657553e+86)
(-2.4897619e+88 1.5650259e+86 -1.0437078e+87)
(-2.5551546e+88 1.9820044e+86 -4.2509158e+86)
(-2.5417725e+88 5.0663172e+86 -2.9893195e+86)
(-2.796757e+88 6.3600162e+86 -5.0290875e+86)
(-2.7631605e+88 3.5091867e+86 -6.2762927e+86)
(-2.6044326e+88 2.5007078e+86 1.504993e+87)
(-2.5854404e+88 6.9643853e+86 1.5791535e+87)
(-2.5176917e+88 5.4229185e+86 2.4977545e+86)
(-2.5227952e+88 2.3597314e+86 1.0975216e+86)
(-2.866218e+88 3.5352274e+86 9.7773014e+86)
(-2.5509253e+88 4.1801879e+86 -5.3253363e+86)
(-2.4763398e+88 2.9177424e+86 -1.1818001e+87)
(-2.4914119e+88 2.047166e+86 -1.0749334e+87)
(-2.5557866e+88 2.1984073e+86 -4.7604301e+86)
(-2.7703379e+88 2.0687272e+86 -7.1140623e+86)
(-2.8390142e+88 7.1307511e+86 9.5504586e+86)
(-3.4661106e+88 7.2512625e+86 -7.4841714e+86)
(-2.7345538e+88 5.5253397e+86 -7.2841026e+86)
(-2.3595152e+88 3.0254906e+86 -4.0285315e+86)
(-2.3691737e+88 3.7866424e+86 -4.0799107e+86)
(-2.3710812e+88 5.3838264e+86 -4.2543946e+86)
(-2.3748282e+88 4.7890432e+86 -3.7612462e+86)
(-2.2611074e+88 6.4959014e+86 -3.7915102e+86)
(-2.2552707e+88 6.3803559e+86 -3.8780807e+86)
(-2.323352e+88 4.9046821e+86 -9.6288244e+86)
(-2.3300598e+88 4.3521693e+86 -2.5455479e+86)
(-2.3575755e+88 3.4639536e+86 -2.4775443e+86)
(-2.3077424e+88 4.3328716e+86 -8.9654283e+86)
(-2.209315e+88 7.1527759e+86 -3.3233822e+86)
(-2.1842833e+88 6.8863049e+86 -3.9799763e+86)
(-2.516577e+88 4.7905598e+86 2.3156056e+85)
(-2.5237903e+88 2.775693e+86 8.1691258e+85)
(-2.5973979e+88 6.4202578e+86 1.4091576e+87)
(-2.5932762e+88 2.3610422e+86 1.4306265e+87)
(-2.1834986e+88 4.0836807e+86 -4.1848285e+86)
(-2.1489511e+88 3.6090434e+86 -8.3768287e+86)
(-2.1515973e+88 3.4077805e+86 -7.496559e+86)
(-2.1832023e+88 3.3204279e+86 -4.8709458e+86)
(-2.1983197e+88 3.411633e+86 -8.3076038e+86)
(-2.1973785e+88 3.3996765e+86 -7.5779198e+86)
(-2.1795217e+88 2.7289399e+86 -9.1957705e+86)
(-2.1743673e+88 3.4640874e+86 -1.030639e+87)
(-2.488595e+88 3.9221671e+86 -1.2162259e+87)
(-2.1918501e+88 3.9165577e+86 -4.9274147e+86)
(-2.159533e+88 3.4264561e+86 -8.2147548e+86)
(-2.1565572e+88 3.4474136e+86 -8.3997677e+86)
(-2.1898386e+88 3.1048733e+86 -4.8375047e+86)
(-2.2094876e+88 3.09582e+86 -8.3072594e+86)
(-2.2062272e+88 3.4347356e+86 -8.4654876e+86)
(-2.1837183e+88 2.9119573e+86 -1.0444097e+87)
(-2.1879308e+88 3.3116216e+86 -1.0376366e+87)
(-2.5350453e+88 2.5128793e+86 -1.1933552e+87)
(-2.4245803e+88 3.5578536e+86 -1.6381897e+87)
(-2.4474935e+88 1.8794728e+86 -1.6869942e+87)
(-2.2016633e+88 6.1468221e+86 -7.1136726e+86)
(-2.2298961e+88 4.1322087e+86 -6.23383e+86)
(-2.2463723e+88 5.0023016e+86 -5.2559517e+86)
(-2.2117845e+88 6.1289835e+86 -6.7352396e+86)
(-1.7903602e+88 4.5507961e+86 -5.2092435e+86)
(-1.8312244e+88 2.9395915e+86 -4.7699539e+86)
(-1.8755317e+88 3.2780806e+86 -6.2904473e+86)
(-1.9249e+88 2.668848e+86 -5.7608297e+86)
(-2.2044056e+88 2.6862124e+86 7.6496497e+86)
(-2.209004e+88 5.3280288e+86 8.6267191e+86)
(-2.290713e+88 6.3752934e+86 1.8727042e+87)
(-2.2930546e+88 2.602137e+86 1.7929328e+87)
(-2.3082761e+88 5.6794672e+86 1.8001753e+87)
(-2.2093136e+88 2.8598575e+86 7.6156622e+86)
(-2.2131839e+88 4.9320758e+86 7.480755e+86)
(-2.297125e+88 2.4945976e+86 1.7852602e+87)
(-2.2398596e+88 4.6000107e+86 3.0115662e+86)
(-2.1630734e+88 4.0263394e+86 -3.5302631e+86)
(-2.1602335e+88 3.0741201e+86 -3.4761148e+86)
(-2.2351777e+88 2.5622082e+86 3.0160674e+86)
(-2.2332787e+88 5.2339377e+86 4.0167251e+86)
(-2.1559301e+88 3.283338e+86 -3.5606338e+86)
(-2.1559621e+88 4.279369e+86 -2.7209137e+86)
(-2.2309828e+88 2.8923623e+86 3.131164e+86)
(-2.016538e+88 7.8684474e+86 -4.5652472e+86)
(-1.9465474e+88 5.5760322e+86 -5.0938416e+86)
(-2.1403121e+88 6.4255743e+86 -4.7966883e+86)
(-2.183051e+88 9.2043955e+86 -3.194761e+86)
(-1.8492912e+88 2.4713639e+86 -5.5249531e+86)
(-1.9545406e+88 5.4154453e+86 -4.8064499e+86)
(-1.7772411e+88 6.0126752e+86 -4.3114492e+86)
(-1.8052916e+88 5.2059763e+86 -6.2180787e+86)
(-2.0615931e+88 9.826476e+86 -3.70136e+86)
(-2.1854812e+88 1.0778355e+87 -3.9592954e+86)
(-2.0973519e+88 1.0914772e+87 -2.2331217e+86)
(-2.103032e+88 9.2171879e+86 -2.095756e+86)
(-1.8847062e+88 5.3949565e+86 1.8585689e+87)
(-1.8771186e+88 2.4743844e+86 1.8699654e+87)
(-1.8765595e+88 5.6300663e+86 1.8118802e+87)
(-1.8779635e+88 3.3799154e+86 1.7516537e+87)
(-1.6404751e+88 3.9423074e+86 1.6946277e+87)
(-1.6384557e+88 1.5729145e+86 1.6525546e+87)
(-1.6370053e+88 1.143128e+86 1.5986499e+87)
(-1.6389432e+88 3.2137285e+86 1.5898014e+87)
(-1.8809299e+88 5.0157854e+86 1.7369572e+87)
(-1.8726301e+88 2.9442169e+86 1.7448839e+87)
(-1.8775823e+88 5.2573689e+86 1.8382357e+87)
(-1.8804197e+88 2.5575165e+86 1.7856516e+87)
(-1.8867139e+88 4.9893992e+86 1.7910482e+87)
(-1.8801063e+88 2.529129e+86 1.8145495e+87)
(-1.8871588e+88 4.9427357e+86 1.7865785e+87)
(-1.8877515e+88 2.7564182e+86 1.7274798e+87)
(-1.8828364e+88 4.5051496e+86 1.7454092e+87)
(-1.8774533e+88 2.3060931e+86 1.7605957e+87)
(-2.1786028e+88 2.659619e+86 1.787893e+87)
(-1.8804769e+88 5.2099936e+86 1.8735294e+87)