/*--------------------------------*- C++ -*----------------------------------*\
  =========                 |
  \\      /  F ield         | OpenFOAM: The Open Source CFD Toolbox
   \\    /   O peration     | Website:  https://openfoam.org
    \\  /    A nd           | Version:  7
     \\/     M anipulation  |
\*---------------------------------------------------------------------------*/
FoamFile
{
    version     2.0;
    format      ascii;
    class       volScalarField;
    location    "2000";
    object      k;
}
// * * * * * * * * * * * * * * * * * * * * * * * * * * * * * * * * * * * * * //

dimensions      [0 2 -2 0 0 0 0];

internalField   nonuniform List<scalar> 
33730
(
1.5227824
1.5209499
1.5228886
1.5237766
1.5224
1.5218637
1.5225843
1.5226836
1.523423
1.5231256
1.5229962
1.5231769
1.5182686
1.521107
1.5203951
1.5209732
1.519832
1.5215531
1.5208196
1.5241584
1.5233352
1.5237135
1.5234961
1.5231978
1.5240398
1.5226539
1.5248328
1.5235269
1.52344
1.5230089
1.5244526
1.5239318
1.5242248
1.5215724
1.5204136
1.5221884
1.5226114
1.5217157
1.5229882
1.5241988
1.5241583
1.5237649
1.5238157
1.5193586
1.5177127
1.5184096
1.5185085
1.5183251
1.5180324
1.5187912
1.5217343
1.5192214
1.5200854
1.521321
1.5176821
1.5202569
1.5212986
1.5193894
1.5215422
1.5200248
1.5245942
1.5252613
1.5246496
1.5244158
1.5249571
1.5247699
1.5247905
1.5245105
1.5244612
1.5227341
1.5230772
1.5251365
1.5249013
1.5234583
1.5229702
1.5237481
1.524518
1.5246773
1.5208374
1.5256509
1.523515
1.5239843
1.5229858
1.5236195
1.5224378
1.5252848
1.5244219
1.5247947
1.519346
1.5174658
1.5205872
1.520321
1.5229503
1.5219949
1.5171021
1.5232073
1.5243991
1.5243757
1.5238915
1.5239084
1.5194264
1.518473
1.5197021
1.519633
1.5203195
1.5206482
1.5184184
1.5187137
1.5181857
1.5188408
1.5173808
1.5171522
1.5176544
1.5186308
1.5165675
1.5183837
1.5184226
1.5182893
1.5175537
1.5186103
1.5217954
1.5192099
1.5204575
1.5172649
1.5174833
1.5123852
1.5183914
1.5211719
1.5143872
1.5201789
1.520436
1.5204796
1.5211896
1.5181787
1.5227449
1.5252731
1.5250299
1.5252791
1.5255808
1.5261497
1.5253519
1.525083
1.5259253
1.5249134
1.5248898
1.5246727
1.5246613
1.5225956
1.5223858
1.5221822
1.5238581
1.523205
1.5230853
1.5236986
1.5225976
1.5224632
1.5221656
1.525959
1.5255973
1.5225824
1.5236864
1.5217676
1.524043
1.5239295
1.5251832
1.5255271
1.517644
1.5258129
1.5234617
1.5285505
1.5244352
1.5235022
1.5232068
1.5238052
1.5227414
1.5253836
1.524544
1.5250184
1.515497
1.5113919
1.5145451
1.5111008
1.5198128
1.5229943
1.5175736
1.5214145
1.5095487
1.5231525
1.5247115
1.5247145
1.5241403
1.5241265
1.5096486
1.5183819
1.5206578
1.5196936
1.5196457
1.520926
1.5174089
1.5184476
1.5183631
1.5189256
1.5190213
1.5183965
1.5183485
1.5182069
1.5183952
1.5199385
1.5197455
1.5190352
1.5205161
1.5189472
1.5212058
1.5161444
1.5164146
1.5151289
1.517324
1.51665
1.5137343
1.5184369
1.5150133
1.5183946
1.510363
1.51827
1.5184171
1.5186104
1.5178347
1.517527
1.5179487
1.518406
1.5187839
1.5203621
1.5260106
1.523259
1.5217164
1.5128505
1.5096714
1.5182214
1.5137623
1.5171255
1.5071332
1.52066
1.5200091
1.5199881
1.5203789
1.5206247
1.5192443
1.5193743
1.5123863
1.5225451
1.5225636
1.5230721
1.5231169
1.5238304
1.5238661
1.5256716
1.5256692
1.5261539
1.5263227
1.5262292
1.52542
1.5251991
1.5260301
1.5251513
1.5250728
1.5249293
1.5249476
1.5234061
1.5222606
1.5219923
1.5222674
1.5223823
1.5230727
1.52334
1.5232862
1.5230728
1.5219332
1.5213924
1.5249532
1.524649
1.5241491
1.5223774
1.5247175
1.5229894
1.5205827
1.5218046
1.519133
1.5261214
1.5256746
1.5217918
1.5235286
1.5244127
1.517908
1.5230971
1.52261
1.5246114
1.5253498
1.5257154
1.5145011
1.5259976
1.5235599
1.5234205
1.5421136
1.5245357
1.5227271
1.5245022
1.520694
1.5237744
1.5398768
1.525598
1.5247745
1.5252865
1.505078
1.5126004
1.5202048
1.5231413
1.5102096
1.5145529
1.5212786
1.5232311
1.5162166
1.5090257
1.5110072
1.5183129
1.5172072
1.5185648
1.5184628
1.5189703
1.519067
1.5214324
1.5198008
1.5198866
1.5216521
1.5175998
1.5173829
1.5174052
1.5177424
1.5177774
1.5174033
1.5173728
1.5176381
1.5176424
1.5181621
1.518158
1.5180207
1.5188841
1.5184826
1.5188745
1.51718
1.5184657
1.5177446
1.5178312
1.5200953
1.5181401
1.5199028
1.5172308
1.5206357
1.5183244
1.5165037
1.5214114
1.5110551
1.5115243
1.5089959
1.5173396
1.5170467
1.5097782
1.5183115
1.5104808
1.5181008
1.5048452
1.5179639
1.5192686
1.5178238
1.5175178
1.5184052
1.5178731
1.5180289
1.518025
1.5179768
1.5187778
1.5190276
1.532549
1.5207096
1.5276634
1.5108226
1.5121352
1.5091714
1.5102712
1.5033727
1.5219111
1.5209646
1.5205606
1.5202682
1.5207571
1.519692
1.519326
1.519282
1.5198612
1.5128517
1.5136356
1.522476
1.5230132
1.5238052
1.5237176
1.5229688
1.5238277
1.5232676
1.5232286
1.5229908
1.522969
1.5248738
1.5247935
1.5249622
1.5249048
1.525671
1.5256978
1.5262561
1.5263752
1.5263352
1.5255334
1.5253898
1.5261636
1.522983
1.5228358
1.522504
1.5239445
1.5241259
1.522482
1.5223938
1.5237911
1.5237638
1.521862
1.5207169
1.5197363
1.5224119
1.5208314
1.5228716
1.524702
1.5248384
1.5245386
1.5242664
1.521153
1.5203514
1.5249866
1.5248836
1.5230811
1.524323
1.5203515
1.5238611
1.5248256
1.5199902
1.5155926
1.5225343
1.5192657
1.5262557
1.5256958
1.5158414
1.5250444
1.5384925
1.5244642
1.5127431
1.51715
1.5198104
1.5243564
1.5247777
1.5254995
1.525876
1.5364605
1.5229728
1.5237279
1.5247035
1.5212878
1.5184266
1.5209721
1.5239058
1.5067212
1.515115
1.5208662
1.5070141
1.5169569
1.5215438
1.5182695
1.5099908
1.5072677
1.5170215
1.5190546
1.5187193
1.5185959
1.519175
1.5175015
1.5173518
1.5173475
1.5177265
1.5177888
1.5179949
1.5180647
1.5187371
1.5186138
1.5216587
1.5198534
1.520005
1.5218144
1.5188037
1.5180152
1.5179019
1.5175537
1.5174979
1.517671
1.5174483
1.517983
1.5176316
1.5171134
1.5171947
1.5173549
1.5175734
1.5175513
1.5175239
1.5166131
1.5168598
1.518125
1.5178324
1.518146
1.5177788
1.5181629
1.5173842
1.518958
1.5181662
1.5168454
1.5189233
1.5142128
1.5230291
1.5178167
1.5171466
1.5201836
1.5179681
1.5149933
1.5200454
1.5140914
1.5209212
1.5181073
1.5147927
1.5118116
1.5215609
1.5048045
1.5071882
1.5040274
1.5147708
1.5180348
1.5290952
1.5148954
1.513403
1.5190535
1.5167984
1.5110971
1.5196874
1.519091
1.5185721
1.5183941
1.5187003
1.5177321
1.5180261
1.5177711
1.5186795
1.5187889
1.5168189
1.5223875
1.5059752
1.5041909
1.5211348
1.521633
1.5211178
1.5210334
1.5215657
1.5212729
1.5212904
1.518593
1.5194006
1.5185775
1.5169476
1.5155929
1.517035
1.5057618
1.5076104
1.5223896
1.5240267
1.5229994
1.5233034
1.5229143
1.5231783
1.525064
1.5247576
1.5248245
1.5249598
1.5231728
1.5243764
1.5242024
1.5240064
1.5241103
1.5249975
1.5249147
1.5248223
1.5249556
1.5250342
1.5249762
1.5249709
1.5249296
1.5256509
1.5256926
1.5263688
1.526465
1.5217889
1.5223489
1.5239028
1.5234667
1.5227028
1.5226039
1.5223078
1.5238043
1.5235015
1.521759
1.5233775
1.5199246
1.5251246
1.5253819
1.5211999
1.519798
1.5222921
1.5248194
1.5247998
1.5224177
1.5191665
1.5185275
1.5138422
1.5228342
1.5157315
1.5218126
1.5236921
1.5249784
1.5250758
1.5248257
1.5245115
1.5297445
1.5192944
1.5250457
1.5250534
1.5208215
1.5229281
1.5245065
1.5150673
1.522056
1.5237809
1.5249529
1.5139502
1.5115194
1.5333538
1.5108009
1.5317525
1.5243139
1.5246455
1.5183774
1.5249156
1.5245632
1.5249913
1.5224684
1.5232891
1.5239903
1.5216371
1.5145774
1.5134868
1.515127
1.5074811
1.527959
1.5174359
1.5173312
1.5173025
1.5177301
1.5177878
1.5171702
1.517501
1.5164145
1.5161963
1.5184775
1.517889
1.5179374
1.5183559
1.5189352
1.5180806
1.5180195
1.5174882
1.5174727
1.5168988
1.5169989
1.5174241
1.5173437
1.517984
1.5180551
1.518765
1.5185873
1.5218065
1.5198978
1.5200763
1.5219696
1.519576
1.5196138
1.5193079
1.5187977
1.5189966
1.518616
1.5186358
1.5187134
1.5185893
1.5181261
1.5178985
1.5176982
1.5174442
1.5175516
1.517337
1.5172109
1.5151315
1.5183678
1.5171545
1.517021
1.5170658
1.5171147
1.5167587
1.5175429
1.5171827
1.5172903
1.5175049
1.5134845
1.5148367
1.5184959
1.5180748
1.518109
1.5177413
1.5166652
1.5181879
1.5173983
1.5190107
1.5181076
1.5163863
1.513135
1.5189075
1.5132281
1.5327713
1.5346913
1.5200089
1.5182906
1.5144802
1.5083267
1.5104925
1.5184756
1.5145751
1.5090394
1.506289
1.519601
1.5070683
1.5128883
1.5194511
1.5195698
1.5199894
1.5197653
1.5199089
1.518708
1.5173111
1.5179621
1.5177193
1.5152924
1.5164452
1.5116586
1.5177348
1.512634
1.5083896
1.5211933
1.5198467
1.5207522
1.5207711
1.5212066
1.521022
1.5209357
1.5199758
1.5185067
1.5207757
1.5224985
1.5256071
1.5107797
1.5163938
1.5148927
1.5123036
1.5149127
1.5187315
1.5241874
1.5231786
1.5232441
1.5229156
1.522945
1.5232315
1.524311
1.5246364
1.5241695
1.5244415
1.5252595
1.5251299
1.5251151
1.5250781
1.5252151
1.5247829
1.5248643
1.5251103
1.5215981
1.5234503
1.5233733
1.5238588
1.5239976
1.5258168
1.5256175
1.5252904
1.5254194
1.5251692
1.525106
1.5250684
1.5251657
1.5251908
1.5251357
1.5249989
1.5249439
1.5224347
1.5210561
1.5211621
1.5225232
1.5225814
1.5227187
1.5226612
1.5218111
1.5216491
1.5222853
1.5253902
1.5252748
1.5221831
1.523032
1.5215972
1.5230832
1.5210808
1.5249803
1.5249374
1.5232226
1.5183725
1.5239874
1.5140161
1.5253275
1.5256835
1.5187985
1.5156538
1.5190159
1.522878
1.5251777
1.5250473
1.52613
1.5153673
1.5111918
1.5191487
1.5104253
1.5229922
1.5128624
1.5212714
1.5223637
1.5238186
1.5251871
1.5252317
1.5250605
1.5247295
1.5151438
1.5209085
1.5229373
1.5071287
1.5216552
1.5219404
1.5238379
1.509855
1.5323871
1.525651
1.5242436
1.5182186
1.5239531
1.5248334
1.5197932
1.52377
1.5196418
1.5190656
1.5180801
1.5180168
1.5174584
1.5174546
1.5174356
1.5178789
1.5168875
1.5173382
1.5167241
1.517308
1.5168086
1.5172647
1.517197
1.5177482
1.5184133
1.517825
1.517895
1.5182696
1.5196977
1.5191168
1.5198592
1.5196925
1.5192673
1.5181426
1.5181661
1.5172069
1.5171014
1.5168349
1.5169267
1.5173961
1.5173076
1.5179246
1.5180224
1.5187357
1.5185343
1.5195402
1.5200425
1.5198558
1.51969
1.5198773
1.5192159
1.5195775
1.5195148
1.5195488
1.5202755
1.5195665
1.5188762
1.518893
1.5185118
1.5194475
1.5183023
1.5169427
1.5177813
1.5184924
1.5179936
1.5179224
1.5171394
1.5168272
1.5173559
1.5173802
1.5171534
1.517179
1.5155925
1.5097382
1.5157713
1.5163129
1.5169466
1.516816
1.5158495
1.5170765
1.5171739
1.5175442
1.5169727
1.5144914
1.5178111
1.517444
1.5084483
1.5150309
1.5184974
1.5346143
1.5178278
1.5168025
1.5150724
1.5304147
1.5182583
1.516323
1.5135649
1.5103943
1.5148695
1.5084905
1.5045515
1.5153255
1.5100586
1.5039256
1.5193186
1.5180788
1.5193893
1.5195039
1.5196049
1.5194385
1.5196026
1.5222918
1.5191696
1.5200103
1.5154591
1.5133923
1.5162111
1.5129379
1.5116877
1.5124631
1.5045777
1.5100045
1.5194388
1.5207826
1.5198997
1.5200547
1.5200357
1.5199075
1.5200162
1.5199423
1.5208088
1.5211084
1.5212255
1.5191708
1.5142459
1.5190393
1.5467905
1.5323424
1.5050627
1.513969
1.5232326
1.5247833
1.5244751
1.5243577
1.5246441
1.5251153
1.5250914
1.5253303
1.525391
1.5214244
1.5241723
1.523649
1.5239893
1.523505
1.5256238
1.5261826
1.5255359
1.5260091
1.5254196
1.5252956
1.5252818
1.5252423
1.5253694
1.5247951
1.5248759
1.5252701
1.5225159
1.5224017
1.5223469
1.5223555
1.5224053
1.5255752
1.5253991
1.5255505
1.5257053
1.5259911
1.5258404
1.5254533
1.5255492
1.5253219
1.5252594
1.5252878
1.5253995
1.5222364
1.5221007
1.5219664
1.5223899
1.522517
1.5233413
1.5235971
1.5233004
1.5231774
1.5198293
1.5197669
1.52595
1.5253138
1.5248406
1.5224192
1.5253854
1.5226609
1.521695
1.5208579
1.525626
1.5256653
1.5256369
1.5245952
1.5216868
1.5233654
1.521169
1.52115
1.523497
1.5185042
1.5252201
1.5252089
1.5230773
1.5227866
1.5124344
1.5240175
1.5074695
1.525504
1.5258957
1.517372
1.5104638
1.511051
1.5181632
1.5232583
1.5254057
1.5252692
1.5052249
1.5155844
1.5195864
1.5230646
1.5161345
1.5241968
1.5223438
1.5239875
1.5080753
1.5162247
1.5209542
1.5292329
1.5214508
1.5219959
1.5266529
1.526196
1.5174894
1.5248144
1.5298608
1.5197615
1.5200985
1.5198807
1.519326
1.5194909
1.5193428
1.5198044
1.5184736
1.5189292
1.5180307
1.5180403
1.5180858
1.517013
1.5169297
1.5174497
1.5174374
1.5178439
1.5166609
1.5166639
1.5167428
1.5172204
1.5171518
1.517155
1.5183386
1.5177601
1.5178275
1.5181757
1.519749
1.5201869
1.5200759
1.5199216
1.5199649
1.5196776
1.520918
1.5206948
1.5198294
1.51811
1.5181127
1.5170787
1.5170063
1.5167542
1.5168442
1.5173557
1.5172656
1.5180402
1.5192157
1.5192162
1.5198153
1.5200123
1.519216
1.51922
1.5192109
1.5185933
1.5209868
1.520659
1.5195593
1.520188
1.5192637
1.520664
1.5182616
1.519017
1.5192245
1.5192777
1.5205377
1.5188407
1.5198144
1.5179462
1.5190054
1.5181745
1.5180141
1.5194572
1.5172536
1.5116927
1.5149195
1.5204715
1.5179086
1.5179344
1.5173203
1.5146799
1.5146794
1.5172628
1.5172782
1.5159604
1.5156128
1.5170903
1.5109766
1.5046748
1.5081071
1.517156
1.516854
1.5155431
1.5111171
1.5227718
1.5172003
1.514846
1.5079067
1.5186859
1.5170919
1.516228
1.5182665
1.5166561
1.5148953
1.5132406
1.5104264
1.504034
1.5133973
1.5057997
1.5174239
1.5190613
1.5189318
1.5185174
1.5184158
1.5188233
1.5188932
1.5204688
1.5193995
1.518996
1.5187421
1.5258167
1.5152281
1.5206128
1.5101132
1.5085985
1.5199946
1.5086717
1.5208077
1.5213418
1.5204497
1.5207898
1.5211648
1.5207198
1.519998
1.5196355
1.5206467
1.5195339
1.5185241
1.5186924
1.5198217
1.5235343
1.5230321
1.5164712
1.5089448
1.5234586
1.5238411
1.5236752
1.5241257
1.524303
1.5263935
1.5256822
1.5256524
1.5262924
1.5253045
1.5252873
1.5255311
1.5256183
1.52263
1.5224221
1.5224007
1.5223081
1.5223101
1.525881
1.5258372
1.5258088
1.5257349
1.5257203
1.5262927
1.5256454
1.5261423
1.5256314
1.5254469
1.525511
1.5253891
1.5221464
1.5232288
1.5230696
1.5230455
1.523244
1.5265393
1.5261996
1.5254527
1.5256828
1.5257555
1.5256771
1.5257301
1.5258176
1.526162
1.5260329
1.5255971
1.5256831
1.5220942
1.5221639
1.5222335
1.5223921
1.522378
1.5233634
1.5234296
1.5231758
1.5230718
1.5227484
1.521827
1.5226152
1.523241
1.5228541
1.5234921
1.5270181
1.5267366
1.5261834
1.5268099
1.5174138
1.5145678
1.5267132
1.5258447
1.5230403
1.5251355
1.5202329
1.5241373
1.5257602
1.522102
1.5212955
1.5194654
1.5483806
1.5258531
1.5258821
1.527597
1.5223184
1.5193765
1.5236096
1.5195255
1.5196593
1.5277043
1.5235366
1.5188246
1.5254016
1.5254913
1.51896
1.522232
1.5226421
1.5241498
1.504835
1.5118419
1.5194252
1.5234742
1.5116269
1.5152879
1.5186412
1.524186
1.5209389
1.5222201
1.5102211
1.5178136
1.5215336
1.5223231
1.5273949
1.5199608
1.5199498
1.5202254
1.5201642
1.5199712
1.5197881
1.5199502
1.519815
1.5195625
1.5212246
1.5201099
1.5210792
1.5199165
1.519991
1.5195249
1.5193805
1.5198077
1.5180225
1.5179692
1.5180045
1.5180884
1.5169486
1.5168654
1.5168938
1.5174503
1.5165903
1.5165954
1.5166683
1.5171721
1.5170948
1.5171052
1.5175755
1.5195746
1.5193816
1.5201383
1.5204041
1.5214711
1.5212428
1.5209105
1.5210137
1.5196574
1.5210372
1.5208625
1.5198581
1.5180372
1.5180033
1.5169977
1.5169304
1.5190131
1.5178574
1.5180714
1.5181572
1.5179933
1.518389
1.5183305
1.5183494
1.5183231
1.5194972
1.5194175
1.5190592
1.5204837
1.519576
1.5207492
1.5190866
1.5198633
1.518565
1.5165516
1.5213495
1.5202403
1.5209746
1.5190504
1.5204996
1.5195319
1.5182979
1.5209248
1.5151698
1.5144476
1.5200105
1.5155035
1.5207397
1.5190677
1.5175046
1.5200739
1.5169317
1.5191059
1.5183251
1.5167948
1.5176157
1.5194733
1.5113736
1.5055085
1.5117094
1.5184658
1.5174946
1.5154874
1.5089054
1.511211
1.5172234
1.5161448
1.5123222
1.5104691
1.5156491
1.512968
1.5054611
1.5152799
1.5107647
1.5038237
1.5167766
1.5207549
1.5161438
1.5155876
1.5074291
1.5092315
1.5185983
1.5208937
1.5190529
1.5195041
1.5197952
1.5194283
1.5188146
1.5187473
1.5182698
1.5185491
1.517109
1.5282007
1.5184087
1.516297
1.5139745
1.5194454
1.5128543
1.5253695
1.5213214
1.5215045
1.5214713
1.5213331
1.5214763
1.5216186
1.5202093
1.5215232
1.5222753
1.5206736
1.5201103
1.5195223
1.5218943
1.5170815
1.5168333
1.5293798
1.5208208
1.561987
1.5221793
1.5221596
1.5223011
1.5222462
1.5258676
1.5258481
1.5258876
1.5258817
1.5265127
1.52578
1.5257527
1.526408
1.5254689
1.525462
1.5257408
1.5258352
1.5220929
1.5234785
1.5234309
1.5232756
1.523243
1.5259279
1.5269165
1.5258736
1.5268004
1.5259696
1.5259674
1.5258983
1.5258767
1.5258392
1.526425
1.5257676
1.5262917
1.5221944
1.5227576
1.522799
1.5226872
1.5226995
1.5275254
1.5271362
1.5271634
1.527756
1.5270021
1.5268301
1.5258748
1.5259912
1.5259686
1.5259189
1.5259042
1.5259579
1.5210901
1.5220849
1.5222339
1.5223885
1.5221467
1.5230778
1.5227466
1.5228704
1.5231802
1.522858
1.5228128
1.5226192
1.5233089
1.5237392
1.523312
1.5264035
1.5264416
1.5267866
1.5267759
1.5244468
1.5233761
1.5227219
1.5253471
1.5246272
1.5239244
1.523709
1.5250736
1.527837
1.5274231
1.5268462
1.5276541
1.5176185
1.5117346
1.5272165
1.526206
1.51901
1.5232352
1.5254161
1.5150448
1.5218606
1.5240782
1.526183
1.5219078
1.5181202
1.5261219
1.529396
1.513243
1.5205336
1.5236018
1.5210919
1.5144936
1.5201956
1.5235762
1.5180196
1.5232999
1.5227007
1.5066881
1.5128199
1.5196857
1.5096429
1.5131118
1.5177793
1.520294
1.5117042
1.5172428
1.5200378
1.5198388
1.5205457
1.5207912
1.5200997
1.5205949
1.5201762
1.5196771
1.5210286
1.5217658
1.5201801
1.5216366
1.5210173
1.5199336
1.5197761
1.5199197
1.5213055
1.5213386
1.5201187
1.521185
1.5199842
1.5200433
1.5200597
1.5195745
1.5179912
1.5179365
1.5179171
1.5180391
1.5168764
1.5168248
1.5168162
1.5168107
1.5165215
1.5170365
1.5187948
1.517425
1.5176462
1.5178361
1.5177717
1.5200601
1.5197529
1.5210334
1.5213747
1.5216561
1.5215188
1.5210339
1.5210851
1.519703
1.5211772
1.5210002
1.5199143
1.5207687
1.5193938
1.5193455
1.5186585
1.5185356
1.5191136
1.5191807
1.5194395
1.5194365
1.5177161
1.5179576
1.5182633
1.5181724
1.5181953
1.5180575
1.5179887
1.5172356
1.5179602
1.517741
1.5196454
1.5195448
1.5193068
1.5193191
1.5208073
1.5201279
1.5193879
1.5210852
1.5230022
1.5295379
1.5178944
1.5107112
1.5215562
1.5204415
1.5194135
1.521259
1.5191543
1.520733
1.5197458
1.5184333
1.5158783
1.5210596
1.5118277
1.5073178
1.5431665
1.5068072
1.5192261
1.5180414
1.5153544
1.5172196
1.5183573
1.5171805
1.5145186
1.5182682
1.5160148
1.5110212
1.5040596
1.5162081
1.5132407
1.5070491
1.5151151
1.510293
1.513414
1.5060798
1.5211991
1.5193113
1.5209861
1.5216749
1.5212498
1.5207756
1.5208934
1.5211524
1.5191615
1.5194261
1.5203958
1.5194116
1.5165658
1.5194807
1.5168053
1.515291
1.519648
1.5307645
1.5149908
1.5164862
1.5214876
1.520855
1.5218255
1.5217614
1.5217819
1.5217112
1.5210165
1.5215784
1.521815
1.5227572
1.5182592
1.5254498
1.5263198
1.5213868
1.5155184
1.5167682
1.5152823
1.5116414
1.5211459
1.5259523
1.5258752
1.5258653
1.5258873
1.5220028
1.5233471
1.5234282
1.5234105
1.5233545
1.5268383
1.5267816
1.5257694
1.5258343
1.5260324
1.5260026
1.5259962
1.5259989
1.5266646
1.5258956
1.5258753
1.5265474
1.5223597
1.5226792
1.5226549
1.5226126
1.5226371
1.5287729
1.5287826
1.5283284
1.528196
1.5261757
1.5273054
1.5261337
1.5272087
1.5260779
1.5261309
1.52602
1.5260546
1.5209537
1.5227236
1.5226652
1.522901
1.5229648
1.5272673
1.5269606
1.5268435
1.5270926
1.5280914
1.5278905
1.5279281
1.5282539
1.5274816
1.5273492
1.5262389
1.5263223
1.5207601
1.5213145
1.5212839
1.5215559
1.5213237
1.5220283
1.5218018
1.5217026
1.522079
1.5222541
1.5231103
1.5240944
1.5228806
1.5228814
1.5225042
1.5259274
1.5257521
1.5265118
1.5266774
1.5298967
1.5257154
1.5226098
1.5225649
1.5248353
1.5402126
1.5231481
1.5253643
1.5270169
1.5271613
1.5275018
1.5276117
1.5211197
1.5240173
1.5201998
1.5225361
1.5359679
1.5245944
1.5284273
1.5285888
1.5232771
1.5253874
1.5285341
1.5279566
1.5274788
1.5283553
1.5199095
1.5129641
1.5231669
1.5102752
1.5180886
1.521474
1.5243263
1.5286372
1.5071405
1.5170217
1.5212556
1.5104565
1.5169732
1.5206098
1.5277489
1.5224591
1.506787
1.514837
1.5074363
1.5189725
1.5186199
1.5169752
1.5172155
1.5176799
1.517613
1.5173312
1.5168743
1.517013
1.5166253
1.5205176
1.5201656
1.520344
1.5216641
1.5218697
1.5208381
1.5202127
1.520632
1.5211123
1.5218895
1.5218533
1.5201133
1.5217774
1.5209783
1.5211142
1.5198869
1.5214557
1.521434
1.5214302
1.5213211
1.5200343
1.5200987
1.5200861
1.5201057
1.517913
1.5178651
1.5167293
1.5167466
1.5207775
1.5194564
1.5193847
1.5185049
1.5183793
1.5171608
1.5174351
1.517992
1.5180159
1.5200756
1.5198597
1.5213013
1.5215228
1.5218315
1.5217021
1.5211367
1.5211796
1.5212873
1.5207833
1.5207807
1.5204559
1.5204583
1.5211445
1.5209528
1.5206838
1.5205903
1.5197852
1.5196667
1.5194263
1.5185926
1.5188734
1.518501
1.519201
1.5194805
1.5195927
1.5196465
1.5176341
1.5178986
1.5180708
1.5176336
1.518253
1.5182112
1.5176512
1.5180705
1.5162266
1.5125002
1.5156512
1.5151353
1.5198254
1.5197338
1.519466
1.5191687
1.5228641
1.5210973
1.5203392
1.5196427
1.5183206
1.5213502
1.5231099
1.537413
1.5140737
1.5057697
1.520656
1.5198277
1.5199394
1.5274052
1.5199669
1.5187388
1.5161107
1.5158815
1.5182825
1.5177101
1.5106189
1.5171953
1.5180965
1.5098423
1.5145971
1.5067302
1.5139977
1.508781
1.5173054
1.5108529
1.5215948
1.5222669
1.5222019
1.5219214
1.5218049
1.5221058
1.5216152
1.5206594
1.5212024
1.5213629
1.5185756
1.5174527
1.5213801
1.5180688
1.5119204
1.5233671
1.5147672
1.5093899
1.5204993
1.5210822
1.5213649
1.5209902
1.5211924
1.5217102
1.5237989
1.5221555
1.5225742
1.5226633
1.5162721
1.5220397
1.5210248
1.5237022
1.5119436
1.5238473
1.5320985
1.5207387
1.5219451
1.5229519
1.5213918
1.5223448
1.5221157
1.5222598
1.5225019
1.5268117
1.5267496
1.5257263
1.5257617
1.5260825
1.5260012
1.525867
1.5258817
1.5261287
1.5259933
1.5259952
1.5260598
1.5224451
1.5224843
1.5224236
1.5225012
1.5225206
1.529096
1.5292713
1.5290771
1.5289595
1.5272471
1.5271878
1.5260735
1.5261134
1.5262104
1.5261762
1.526107
1.526111
1.5209954
1.5226917
1.5227672
1.5228883
1.5229841
1.5276356
1.5277027
1.5273885
1.527528
1.5291158
1.5291373
1.5287056
1.5286035
1.5264632
1.5277493
1.5264284
1.5276616
1.5203001
1.5215783
1.5214263
1.5218215
1.5219513
1.5269801
1.5267183
1.5270024
1.5273535
1.5277622
1.527583
1.5276242
1.5276378
1.5287878
1.5286233
1.5286437
1.5289095
1.5212154
1.5205758
1.520594
1.521446
1.5212884
1.5210001
1.5212085
1.5210687
1.5210472
1.5220886
1.521675
1.5214315
1.522373
1.5219984
1.5199923
1.525347
1.5243798
1.5255459
1.5260473
1.5216662
1.5287141
1.5291003
1.5225245
1.5245719
1.5223315
1.5238105
1.5242724
1.5266386
1.526267
1.5271481
1.527309
1.5519537
1.5232212
1.5188538
1.5219526
1.5188707
1.5249147
1.5670749
1.5241917
1.5231854
1.5254696
1.5275885
1.5277278
1.5280737
1.528202
1.5155803
1.5202811
1.5230237
1.5247656
1.5542698
1.5209573
1.5232308
1.5257132
1.5203146
1.5173286
1.507078
1.5121426
1.5183191
1.5217449
1.5120207
1.5195879
1.5136809
1.5185214
1.5402721
1.5090763
1.5209135
1.5193614
1.5193354
1.5182889
1.5181585
1.5182167
1.5190268
1.5178704
1.5186791
1.5166052
1.5168381
1.5168855
1.5180507
1.5180337
1.5175012
1.5172351
1.5167943
1.5206391
1.5204606
1.5202959
1.5202887
1.521721
1.5219983
1.5218841
1.5208854
1.5212041
1.5220802
1.5220068
1.5219163
1.5219507
1.5210853
1.5209232
1.5212126
1.5215954
1.5215643
1.5201372
1.5201287
1.517841
1.5166452
1.5209999
1.5208911
1.5208127
1.5205577
1.5206497
1.5199955
1.5199165
1.5183993
1.5182705
1.5170814
1.5173377
1.5179842
1.517966
1.5201507
1.5199883
1.5215349
1.521715
1.5217668
1.5219813
1.5215169
1.5209324
1.5210383
1.5209809
1.5208611
1.5215862
1.5220074
1.5206346
1.5206245
1.5208873
1.52047
1.5203825
1.5206175
1.5217107
1.5216913
1.5203684
1.5202684
1.5198756
1.5197777
1.5195237
1.5183655
1.5186205
1.518538
1.5188362
1.51843
1.5183792
1.5165719
1.5194104
1.5215569
1.5175025
1.5177917
1.5179608
1.5176632
1.5142324
1.518293
1.5185021
1.5182125
1.5164987
1.5180469
1.5136221
1.5076868
1.511587
1.5129824
1.5196121
1.5193067
1.5193773
1.5274557
1.5205373
1.5197652
1.5192648
1.5128139
1.5200673
1.5188052
1.5286056
1.5190021
1.5175263
1.513203
1.5182466
1.517694
1.5184233
1.5210744
1.5090924
1.509561
1.5223901
1.522086
1.5222379
1.5222019
1.5229589
1.5228421
1.5223261
1.5225506
1.5220111
1.5231159
1.5209164
1.5189209
1.5211907
1.52202
1.5192821
1.5216941
1.526032
1.5166396
1.52031
1.5205444
1.5226245
1.5211133
1.5235919
1.5212776
1.523019
1.5212664
1.521487
1.522373
1.5246177
1.5314714
1.5225023
1.5250579
1.525977
1.5108518
1.5325122
1.5160094
1.5152731
1.522548
1.5219485
1.5223577
1.5223161
1.522393
1.5224628
1.5232486
1.5238331
1.5237832
1.5235536
1.5236031
1.5294879
1.5293385
1.5291812
1.5293706
1.52182
1.5226406
1.5224695
1.5222635
1.5224189
1.5269301
1.5268264
1.5257849
1.5258672
1.5272851
1.5272063
1.5260808
1.5261298
1.5262854
1.5262067
1.5259837
1.5259732
1.5263127
1.5260941
1.5261022
1.5262488
1.5209671
1.5227078
1.5227644
1.5228795
1.5229156
1.5277427
1.5277263
1.5277413
1.5277287
1.5295053
1.5297619
1.5295999
1.529379
1.5277187
1.5276631
1.5264032
1.5264271
1.5201055
1.5217006
1.5218892
1.5218405
1.5216271
1.5272845
1.5275434
1.5277404
1.5280865
1.5280467
1.5281395
1.5278125
1.5279489
1.5296346
1.5296539
1.5292834
1.5291945
1.5215491
1.5208915
1.5208095
1.5207599
1.5208847
1.5259967
1.5256744
1.5260934
1.5263215
1.5274816
1.5273176
1.5276338
1.527918
1.5283186
1.5281712
1.5282422
1.5282317
1.5194226
1.5209113
1.5207703
1.5205677
1.5208315
1.5209877
1.5208383
1.5214275
1.5215882
1.5201159
1.5206395
1.5197617
1.5213548
1.5211538
1.52096
1.523443
1.5231004
1.5227755
1.524259
1.5270834
1.5201955
1.5237443
1.5223528
1.525874
1.522241
1.5236748
1.5149333
1.5260799
1.5254669
1.5264882
1.5267971
1.5202505
1.5495563
1.5325627
1.5208685
1.5233498
1.5247485
1.5205608
1.5230118
1.5320528
1.524445
1.5273007
1.5268932
1.5277009
1.5278944
1.5156514
1.5167643
1.5220175
1.5254349
1.5416416
1.5184625
1.5224208
1.5258528
1.5187064
1.5222899
1.5230858
1.5223332
1.5175248
1.5231004
1.5188627
1.514225
1.5099083
1.5171463
1.5174925
1.5194766
1.5208763
1.521287
1.5211505
1.521042
1.5209582
1.5207496
1.5208191
1.5208229
1.5208957
1.5200359
1.5192909
1.5200182
1.5180604
1.5177903
1.5181412
1.5182385
1.5189472
1.5166039
1.516335
1.5167115
1.5168509
1.5179938
1.5179852
1.5180117
1.5173785
1.5207592
1.5206184
1.5204731
1.5203113
1.5218787
1.5220334
1.5221023
1.5220305
1.5222242
1.522121
1.5211927
1.5210242
1.5217217
1.5201557
1.521618
1.520689
1.5208376
1.5208115
1.5207161
1.5206151
1.5206311
1.5207755
1.5209325
1.5200756
1.5200145
1.5183592
1.5182704
1.5169576
1.517202
1.5179839
1.5179597
1.5219369
1.5215416
1.5215485
1.5217946
1.5217899
1.5224072
1.5223651
1.5213754
1.5212832
1.5208443
1.5218063
1.5210993
1.5205974
1.520652
1.5206215
1.5212047
1.5205631
1.5225768
1.5225828
1.5205726
1.5205751
1.5206548
1.5215447
1.520266
1.5204747
1.5199494
1.5206679
1.5233498
1.5243543
1.5193706
1.5202016
1.5199864
1.5198522
1.5194936
1.5186792
1.5135898
1.518595
1.5182043
1.5184641
1.516972
1.5183804
1.5228569
1.5123404
1.5366118
1.5232189
1.5178657
1.5175121
1.5177473
1.5116485
1.5183525
1.5184279
1.5201567
1.51448
1.5193495
1.5195746
1.5336098
1.5197741
1.5190833
1.5438135
1.5193915
1.5241424
1.5183603
1.5145251
1.5264514
1.5215749
1.5220623
1.5229866
1.5220918
1.5222971
1.5223208
1.5224203
1.5217746
1.5225066
1.5248315
1.5227232
1.5193453
1.5248583
1.5205133
1.5227067
1.5161978
1.5142187
1.51756
1.5341604
1.5200931
1.5201192
1.5204596
1.5235342
1.5215006
1.5302854
1.5223798
1.5232447
1.5225483
1.5227077
1.522503
1.5226143
1.5220862
1.521333
1.5229521
1.5245301
1.5291194
1.552867
1.5341501
1.5253067
1.5389884
1.5210305
1.5227904
1.5229064
1.5226612
1.522991
1.5228859
1.5220206
1.5224114
1.5223099
1.522382
1.5225025
1.5276191
1.527624
1.5276832
1.5277099
1.5236661
1.5238378
1.5240426
1.5240173
1.5237978
1.5298119
1.5297492
1.529506
1.5295819
1.530164
1.5299624
1.5298025
1.5300129
1.5225556
1.5224119
1.5225677
1.5227211
1.5260143
1.5271058
1.526951
1.5258929
1.5274579
1.5273575
1.5261863
1.5262668
1.5277644
1.5276805
1.5264201
1.5264699
1.5264445
1.52638
1.5260818
1.5260677
1.5197965
1.5213185
1.5217063
1.5216741
1.521416
1.5276668
1.5277467
1.5282531
1.5283623
1.528225
1.5282223
1.5282068
1.5281687
1.530036
1.5303118
1.5301614
1.5299206
1.5218678
1.5207087
1.5206377
1.5208005
1.5207432
1.5268602
1.5269483
1.5266765
1.5264823
1.5276944
1.5279487
1.5282162
1.5285415
1.5285486
1.5286658
1.5283517
1.5284831
1.5195304
1.5212706
1.5211468
1.5216672
1.5218027
1.5241891
1.5237715
1.5246434
1.5251158
1.5269112
1.5266361
1.5268808
1.5270093
1.5280055
1.527865
1.528188
1.5284573
1.5175119
1.519733
1.5201051
1.5189861
1.5193547
1.5186422
1.5187277
1.5195534
1.5197505
1.519805
1.5193583
1.5182311
1.5199439
1.5200149
1.5209709
1.5210236
1.5208511
1.5223065
1.5226931
1.5192562
1.5185785
1.5215021
1.5159264
1.5171824
1.5172207
1.5193744
1.5216869
1.5240995
1.5239753
1.5228562
1.5251649
1.544749
1.51616
1.5200498
1.5322154
1.523153
1.5290052
1.5221635
1.5228703
1.524359
1.5078637
1.5267732
1.5262566
1.5271204
1.5274044
1.5234565
1.5242798
1.5234828
1.5251035
1.5234879
1.5224457
1.5230581
1.5248873
1.5119512
1.5181002
1.5224358
1.5125504
1.5174102
1.5224598
1.5179126
1.523245
1.5089179
1.5168414
1.5159279
1.5089472
1.5215672
1.5205398
1.5206287
1.5206864
1.5206219
1.5209822
1.5206338
1.5206814
1.5208714
1.5210915
1.5211846
1.5205597
1.5205855
1.5211029
1.5212936
1.5208767
1.5208724
1.5200607
1.5200596
1.5192103
1.5200749
1.5180805
1.5175671
1.5178286
1.5181467
1.5182603
1.5188691
1.5165482
1.5163378
1.5161159
1.5167518
1.5179644
1.5179502
1.5179968
1.5179714
1.5207769
1.5206481
1.5221852
1.522183
1.5223562
1.521142
1.5214149
1.5219355
1.521505
1.521211
1.5209627
1.5204513
1.520523
1.520506
1.5204448
1.5205633
1.5205863
1.5208403
1.5209792
1.5201283
1.5200979
1.518301
1.5181642
1.5218231
1.5217129
1.5217323
1.5217123
1.5217883
1.5228998
1.5223086
1.5223478
1.5223125
1.5211987
1.5213116
1.521251
1.5219583
1.5214576
1.5212512
1.521818
1.5227676
1.5208356
1.520815
1.5129888
1.5242129
1.5215542
1.5206113
1.5204573
1.5205425
1.52075
1.5205066
1.5223574
1.5204539
1.5250852
1.5221355
1.5205584
1.5205568
1.5205965
1.5210305
1.5216232
1.520091
1.5197098
1.5205306
1.5182751
1.5207577
1.5287619
1.5245896
1.5216401
1.5288886
1.5194514
1.5183096
1.5159038
1.511104
1.5184702
1.518135
1.5173851
1.5176817
1.5174323
1.5167685
1.5170602
1.518392
1.5185731
1.5246543
1.518919
1.5218783
1.5184534
1.5356309
1.5256023
1.5153343
1.5220355
1.5230803
1.5231709