/*--------------------------------*- C++ -*----------------------------------*\
  =========                 |
  \\      /  F ield         | OpenFOAM: The Open Source CFD Toolbox
   \\    /   O peration     | Website:  https://openfoam.org
    \\  /    A nd           | Version:  7
     \\/     M anipulation  |
\*---------------------------------------------------------------------------*/
FoamFile
{
    version     2.0;
    format      ascii;
    class       volScalarField;
    location    "2000";
    object      nut;
}
// * * * * * * * * * * * * * * * * * * * * * * * * * * * * * * * * * * * * * //

dimensions      [0 2 -1 0 0 0 0];

internalField   nonuniform List<scalar> 
33730
(
9.5584848e-91
1.3662953e-89
6.0686978e-91
6.2131853e-91
9.4865234e-91
2.9071397e-91
1.0720099e-90
1.0731613e-90
8.7822575e-91
1.0042904e-90
7.8650252e-91
1.0334075e-90
1.3815611e-89
6.6478683e-90
9.1713999e-91
2.5428785e-90
2.4556304e-90
1.0173106e-89
2.9655185e-90
7.1231886e-91
8.0520358e-90
2.7310046e-90
2.320601e-90
2.8637024e-90
1.2304707e-90
8.7090247e-91
4.0055031e-91
8.7086438e-91
5.3564019e-91
4.6159021e-91
2.8850997e-91
6.1328082e-91
7.3136654e-91
7.5691643e-91
8.1897266e-91
1.9798114e-91
4.6473055e-91
7.3098177e-91
1.3182405e-90
1.7904702e-90
1.6943179e-90
8.006034e-91
9.7070214e-91
1.22915e-90
2.401398e-89
9.3722979e-91
5.9728255e-90
6.562413e-90
2.0057393e-89
6.1091524e-90
5.2093035e-90
1.4507979e-90
4.8411608e-91
6.1533599e-91
7.1010689e-91
1.1799455e-90
2.1671487e-90
3.8827707e-90
7.3007973e-90
1.5698727e-90
7.4640473e-91
1.6119606e-90
1.4198863e-90
1.6746978e-90
1.7083093e-90
8.5772005e-90
2.4344134e-90
3.0500137e-90
2.6149795e-90
9.543099e-91
3.1346135e-91
3.9261769e-91
3.764074e-91
7.0195269e-91
1.1811696e-90
7.8270276e-91
6.5453259e-91
5.237507e-91
4.2735444e-91
2.923658e-91
2.3017488e-91
1.5790068e-91
5.3132215e-91
3.1411938e-91
2.3468478e-91
3.0034436e-91
4.5142234e-91
1.5265059e-90
5.4338668e-91
1.2054681e-91
6.568781e-92
5.7682782e-91
6.1830049e-91
6.4165722e-91
3.6488393e-91
9.5689968e-91
1.2640444e-90
1.1344371e-90
7.2205161e-91
9.1266468e-91
1.5300731e-90
2.5504027e-90
1.0778178e-90
6.773454e-91
5.58656e-91
1.1252022e-90
2.954525e-90
1.1465903e-90
1.5163731e-90
2.1753272e-90
2.2620426e-89
1.1199331e-90
1.3950022e-90
1.4604751e-90
1.0775979e-90
8.170896e-90
9.1457533e-90
1.0142904e-89
3.6537334e-89
9.9993853e-91
6.0800708e-90
7.7510794e-91
8.8615982e-91
6.4155937e-91
4.4386479e-91
3.6563284e-91
5.2686561e-91
3.8325576e-90
7.5237757e-91
5.8041096e-90
7.4102105e-90
7.388007e-90
5.3031029e-90
6.0828664e-91
7.9350555e-91
1.0836028e-90
8.0499411e-91
8.0463551e-91
1.1858432e-90
1.3392169e-90
1.4282959e-90
2.3739674e-90
9.2998156e-91
5.0122225e-91
5.4233585e-91
8.1765552e-91
6.9682804e-91
1.0861731e-90
3.5106728e-91
6.9740041e-91
3.1243559e-91
4.9966384e-91
5.7742117e-91
1.2176053e-91
4.3791098e-91
4.2770077e-91
2.1294529e-91
3.7005333e-91
5.0776835e-91
4.1742339e-91
2.502077e-91
1.3471986e-90
2.9166742e-91
4.6841152e-91
5.0539445e-91
4.4732734e-91
4.139595e-91
2.5798313e-91
1.1003488e-91
7.8282638e-91
4.2760353e-91
3.0225716e-91
3.7077047e-91
3.1200905e-91
1.1481388e-90
1.4635526e-91
5.189517e-91
7.6092799e-91
1.1687159e-91
7.6191631e-93
4.1462703e-92
4.9692059e-92
2.6407262e-91
7.3599886e-91
1.8695034e-91
3.8461012e-91
4.188221e-92
2.9523076e-90
1.5724564e-90
1.4167917e-90
7.6354071e-91
1.2053606e-90
1.7895181e-92
2.1818385e-90
2.0567661e-90
1.4327193e-90
1.6495176e-90
1.6403158e-90
1.4475797e-90
1.507237e-90
1.3250704e-90
1.1473422e-90
1.8733409e-90
1.1131894e-90
1.2234425e-90
5.1589986e-91
5.6755229e-91
1.126364e-90
5.2075933e-91
8.8184363e-91
6.245392e-91
9.209856e-91
1.3427575e-90
6.5585438e-91
9.8384009e-91
4.9766176e-91
6.0823503e-91
1.9407041e-89
4.791956e-91
7.8297214e-91
1.4221429e-90
5.7900922e-90
7.1954381e-91
2.2350861e-90
7.788422e-90
4.2630059e-90
9.1366714e-90
1.2556354e-89
3.8109991e-90
1.2180734e-89
1.3433168e-90
9.7424019e-90
2.0516768e-91
6.6679959e-91
5.5414101e-91
4.5631745e-91
3.1984055e-91
1.2018946e-90
4.3393398e-91
4.1221735e-90
2.9090434e-91
8.4312182e-90
6.9075751e-90
3.2210859e-90
7.5618904e-91
1.3487909e-90
1.0360366e-89
1.229808e-90
1.0792927e-91
1.3589567e-90
8.4315224e-91
9.0924054e-91
6.3996398e-91
8.7058256e-91
9.0437131e-91
1.4603845e-90
9.6080224e-91
1.4533689e-90
1.5800425e-90
5.0725992e-91
4.7875041e-91
1.0292222e-90
4.6991963e-91
6.009036e-91
5.4218479e-91
8.5411563e-91
8.6758156e-91
1.2338616e-90
1.4128726e-90
1.3531581e-90
6.5364787e-91
5.6095526e-91
5.6293763e-91
6.5647552e-91
6.1498418e-91
7.3817872e-91
2.3112909e-91
4.4676025e-91
3.9912587e-91
4.0673361e-91
7.3648066e-91
2.5307665e-91
3.8404968e-91
1.0436238e-91
1.8535978e-91
1.5178513e-91
4.1981753e-91
3.8515533e-91
4.5222998e-91
1.2718807e-91
4.9631567e-91
5.2912578e-91
2.2774404e-91
2.6181595e-91
1.8951063e-91
3.9774538e-91
6.0836708e-91
5.5526461e-91
8.5658598e-92
2.4504803e-91
3.2634649e-91
1.3939226e-91
5.4341082e-91
1.7504278e-91
1.8460779e-91
9.0632713e-92
1.2341652e-91
2.8794726e-91
6.7260823e-91
1.7375145e-91
5.8137721e-91
7.4434278e-91
6.9518371e-93
8.6123211e-92
2.5291404e-91
6.6138718e-91
5.1772471e-92
2.8228227e-92
5.0187619e-91
1.4551665e-90
1.6449716e-91
1.6489147e-92
4.5637876e-92
1.0566742e-90
1.1856262e-90
1.2517593e-90
1.6664852e-90
1.6221431e-90
1.2269083e-90
1.3101545e-90
1.2767153e-90
1.076869e-90
1.3255078e-90
2.6827399e-90
1.1167767e-90
5.9177557e-91
8.0695635e-91
1.050625e-90
1.7156876e-90
8.4880311e-91
4.5530331e-91
5.1211935e-91
1.2893869e-90
8.9553192e-91
3.153898e-91
8.1113481e-91
9.7116603e-91
9.6632462e-91
3.2229429e-91
1.5447065e-90
3.1213879e-91
4.7739256e-91
7.2577461e-91
6.2475078e-91
4.4575972e-91
3.5089512e-91
6.7320901e-91
4.0951309e-91
9.5258674e-91
7.041724e-91
1.9346214e-91
2.0458573e-91
4.0154023e-91
1.0439073e-90
2.843206e-89
3.4253189e-92
5.5532092e-90
6.8684786e-92
4.1092139e-90
5.1563076e-92
4.0708047e-90
1.3280101e-90
1.9356754e-90
4.1937726e-90
2.1406627e-89
4.6621798e-90
5.5318367e-90
1.1538855e-89
9.0740144e-90
2.1132574e-90
4.5582988e-90
5.2566149e-90
1.4079861e-89
1.8040387e-91
1.2487257e-91
4.1891661e-91
3.5673878e-92
1.939191e-90
5.1586798e-92
7.8614082e-90
1.1033939e-90
5.1976865e-90
3.5686305e-90
2.4803581e-90
1.5304572e-90
2.5765717e-90
4.0944951e-91
1.0055753e-90
4.2972448e-91
3.6189317e-91
1.3968242e-90
8.5733049e-91
8.913617e-91
1.2473112e-90
1.4083718e-90
1.0722092e-90
9.6757885e-91
8.8657393e-91
8.1355255e-91
9.9240156e-91
1.0610626e-90
8.1781395e-91
9.9895014e-91
9.6204776e-91
1.0491113e-90
3.888366e-91
1.0718068e-90
5.0684257e-91
5.1416036e-91
4.7423975e-91
1.4975829e-90
4.058225e-91
1.2476252e-90
5.6934775e-91
1.1249809e-90
1.2101247e-90
5.9116771e-91
5.5390347e-91
5.8428556e-91
3.2811991e-91
9.7510486e-91
4.1396211e-91
6.9173367e-91
1.7752058e-91
6.3714944e-91
3.2006326e-91
3.6077418e-91
6.5290993e-91
8.1631174e-91
9.1215936e-91
6.927311e-91
7.4986471e-91
2.3516138e-91
2.8993593e-91
4.7642657e-91
5.7169671e-91
6.3068027e-91
1.9140752e-91
2.0343693e-91
3.0939926e-91
1.5692554e-91
2.8335126e-91
5.0786796e-91
8.032707e-92
4.794919e-91
6.473384e-91
3.0383399e-92
4.5384667e-91
1.0631332e-90
3.4211782e-91
9.8555982e-92
1.0995664e-91
1.2135448e-91
7.7346651e-91
3.8454894e-91
7.4258869e-91
6.2889275e-91
1.692621e-91
1.7104635e-91
2.2135408e-91
2.0034304e-91
2.1441915e-91
3.1762377e-91
3.6070104e-92
3.3175776e-91
2.5408778e-92
4.2157671e-91
3.4781984e-91
8.1816053e-93
1.4767985e-91
3.778348e-91
1.6608755e-91
3.6328103e-92
6.2262193e-93
1.0148626e-90
8.8276025e-91
1.0620065e-90
1.3373598e-90
1.2602376e-90
8.5740025e-91
1.5405261e-90
2.3221313e-90
2.2253062e-90
1.2059071e-90
1.2117363e-90
1.0180055e-90
1.0927401e-90
1.1801288e-90
6.4025098e-91
7.4895108e-91
8.0801247e-91
6.3663126e-91
2.5281698e-90
8.652973e-91
1.4801887e-90
1.1452916e-90
8.7039411e-91
1.8433257e-90
1.2367103e-90
1.121539e-90
1.9839414e-90
1.705097e-90
7.9447548e-91
1.0305518e-90
4.9242472e-91
1.9964879e-91
1.2797581e-90
9.9757025e-91
3.3299154e-91
7.4277986e-91
3.3865468e-91
4.8118525e-91
1.7548562e-91
5.2611243e-91
1.7057852e-91
6.7174899e-91
2.0267652e-91
3.1158429e-91
6.3589974e-91
5.0398221e-91
1.8461548e-90
3.7591742e-91
1.2412972e-90
1.1389572e-90
2.0911804e-91
2.9672022e-91
5.1805448e-91
4.4613671e-91
8.9716042e-91
3.5356767e-91
3.1636124e-91
3.7462647e-91
1.1454647e-90
1.6904787e-92
4.879952e-92
1.854552e-92
1.7150955e-91
3.1356312e-89
1.2895469e-90
1.0506529e-90
2.6411251e-90
7.9907273e-91
2.6773829e-90
3.994283e-91
1.9430725e-89
5.8196592e-90
3.032843e-90
7.3677851e-90
3.8099829e-90
1.5161787e-90
3.3094506e-90
4.3393708e-90
3.6061878e-90
1.7726652e-90
2.8664712e-90
1.4618222e-89
3.8567625e-92
2.6627611e-91
1.2612863e-89
9.4943736e-91
3.2567364e-90
2.1935818e-90
2.3761977e-90
4.5400034e-91
2.501995e-90
2.1621074e-90
7.9630662e-91
9.1972768e-91
8.2419923e-91
4.4465545e-91
5.1843386e-91
8.9416609e-92
3.5592843e-92
5.7008321e-91
9.1392041e-91
7.7347336e-91
7.9318889e-91
1.1643805e-90
1.2397592e-90
9.3874995e-91
8.2609497e-91
1.1823525e-90
1.4500963e-90
1.2074255e-90
1.1233748e-90
1.0543722e-90
1.2885979e-90
1.2211681e-90
1.0536665e-90
1.2895872e-90
7.7978968e-91
9.9553789e-91
4.2078079e-91
5.2530806e-91
9.1025155e-91
3.0660267e-91
1.4743634e-90
3.9649466e-91
2.1888286e-90
7.3532664e-91
1.0860494e-90
1.0909581e-90
4.476918e-91
4.6550666e-91
6.7545921e-91
3.168485e-91
4.5357993e-91
3.7152292e-91
1.9092906e-91
1.324929e-90
3.0361255e-91
4.0441003e-91
1.4835967e-90
7.5514993e-91
3.0961928e-91
2.7035953e-91
4.3332757e-91
7.9841361e-91
3.3895952e-90
8.4741411e-91
8.9358382e-91
3.086491e-91
2.7997374e-91
7.1509443e-91
2.0215769e-91
7.7827281e-91
1.4373304e-90
2.0766681e-91
5.1160777e-91
4.9380351e-91
8.2145394e-91
2.8929586e-91
2.9485399e-91
4.4973065e-91
5.3502692e-91
3.4493519e-91
4.1110294e-91
6.1402594e-91
1.1507633e-91
7.5732513e-92
2.007555e-91
4.6598087e-91
3.191739e-92
2.3326275e-92
2.4025545e-91
1.2698467e-92
4.8632074e-91
4.5676625e-91
4.8394588e-91
9.5612892e-92
7.4215929e-91
4.8902219e-91
4.3355837e-91
4.1232217e-92
3.3964382e-92
1.8157813e-91
9.2884026e-92
3.014271e-92
7.4815788e-92
5.3334554e-92
9.6746364e-93
3.9143834e-92
1.3762879e-90
1.1307734e-90
1.4196693e-90
9.7544226e-91
1.1161032e-90
9.0055747e-91
6.5215625e-91
5.2598995e-91
6.4178798e-91
1.319647e-90
1.6935205e-90
1.2403852e-90
2.0209696e-90
1.9894444e-90
1.8167885e-90
1.5856664e-90
2.6481349e-90
2.1103701e-90
1.6424385e-90
1.7096154e-90
1.3694723e-90
1.3000981e-90
7.265363e-91
8.1318157e-91
7.0420721e-91
7.1679576e-91
1.1401764e-90
1.4414298e-90
1.4564423e-90
1.1566247e-90
4.4487864e-90
1.1321475e-90
9.1017602e-91
8.3340968e-91
9.0768378e-91
1.5257769e-90
1.7284411e-90
2.0179474e-90
1.8151623e-90
9.4198167e-91
7.2366972e-91
7.9917238e-91
6.0010881e-91
9.3280131e-91
1.310424e-90
1.2826638e-90
6.8380606e-91
1.3121017e-90
1.2004511e-90
6.1081138e-91
6.8828306e-91
5.13267e-91
3.6905376e-91
4.0017069e-91
5.694336e-91
2.5215588e-91
5.0764892e-91
5.0043209e-91
5.2318922e-91
2.928807e-91
1.1094608e-90
7.0012092e-91
2.9329597e-91
8.8400284e-92
6.1396256e-91
9.4098279e-91
9.6374049e-91
3.4979351e-91
1.0681358e-91
2.2311802e-91
1.0998759e-90
3.9215395e-91
1.6748697e-90
9.3409643e-91
5.0994066e-91
3.4336688e-91
1.3252323e-91
7.0807764e-92
5.1629648e-92
4.1785413e-91
1.7387717e-91
1.0621742e-91
5.9206841e-92
2.9173261e-89
1.5309369e-91
9.3695489e-92
1.5998908e-89
3.5615281e-90
2.3486877e-90
2.3864733e-90
3.1586397e-90
2.6063664e-90
2.8117138e-90
1.2625484e-90
1.5874953e-90
1.581122e-90
9.809186e-91
9.6169933e-91
2.02892e-90
2.7183156e-91
1.7367925e-91
1.8006915e-89
8.4493302e-90
5.7508395e-91
1.4409182e-90
7.8442455e-90
1.3612108e-90
1.6408711e-90
1.2530956e-90
1.1876704e-90
6.2260114e-91
1.1995883e-90
3.7323263e-90
1.5534513e-90
3.2640475e-91
4.2343702e-91
5.0892882e-91
1.8092576e-91
4.6849676e-91
5.0242209e-91
8.5968165e-91
4.8996913e-91
7.5687564e-91
4.6486597e-91
8.8201527e-91
7.8491763e-91
7.5188034e-91
1.2145988e-90
1.1467541e-90
9.3012674e-91
9.5939604e-91
1.5344807e-90
1.4696403e-90
5.073328e-91
3.9762413e-91
3.2939494e-91
4.5429554e-91
1.4951608e-90
9.1375073e-91
9.7346035e-91
9.6790364e-91
9.6652691e-91
1.0747103e-90
1.0966018e-90
1.4132529e-90
1.1937442e-90
5.890489e-91
1.084401e-90
1.2721012e-90
5.0799178e-91
5.0539424e-91
8.0255232e-91
1.405583e-90
3.2665255e-91
1.2272264e-90
4.0595265e-91
1.0936831e-90
7.3807278e-91
6.428731e-91
4.9471608e-91
5.7921523e-91
4.6546167e-91
2.1007973e-91
2.8941398e-91
8.5907813e-91
3.2319074e-91
2.3283473e-91
3.1194732e-91
2.1608171e-91
6.6676554e-92
2.4243885e-91
3.1023578e-91
2.5788509e-91
2.6430574e-91
4.2888683e-91
9.3663525e-91
3.5025093e-91
5.9585553e-91
4.2008934e-91
3.7261046e-91
2.1484844e-91
1.0909925e-91
4.9621586e-91
4.6068827e-91
5.5969938e-91
3.2487988e-91
9.164252e-92
6.9240481e-92
2.4524599e-91
5.3213446e-92
3.2542657e-91
1.4785116e-91
2.0316778e-91
4.5345081e-91
7.4420473e-91
2.7704685e-91
7.743156e-91
5.2973907e-91
8.2826644e-91
1.0120405e-91
3.7254065e-91
5.0563855e-91
7.0189998e-93
2.1007494e-91
9.4415144e-92
2.2178158e-91
3.281006e-93
2.1768103e-91
1.8478482e-91
4.4651833e-91
8.5343066e-92
2.0981797e-91
4.3765494e-91
2.5402346e-92
5.4332546e-92
8.7058229e-92
9.596137e-91
1.1229568e-90
1.2754384e-90
1.0767415e-90
1.2324417e-90
8.172155e-91
9.5502138e-91
4.905217e-91
6.5570907e-91
1.6334256e-90
9.4320557e-91
1.3972124e-90
1.4708752e-90
1.6902264e-90
1.0144995e-90
5.5217634e-91
5.1120205e-91
5.8972939e-91
4.8812721e-91
2.3726268e-90
1.27582e-90
1.3141425e-90
1.5895245e-90
1.35341e-90
1.5803345e-90
1.2920613e-90
2.0473343e-90
1.8721731e-90
8.0635137e-91
6.3595501e-91
6.9373252e-91
6.9130778e-91
1.1855555e-90
1.2335999e-90
1.2285263e-90
1.2886157e-90
2.5397477e-90
1.6453373e-90
1.1551966e-90
1.2089804e-90
1.2776246e-90
1.5263607e-90
1.7080319e-90
4.0330696e-91
2.1874593e-90
7.0618654e-91
7.2229483e-91
9.3619079e-91
8.8505541e-91
1.3985866e-91
7.130954e-91
4.9800295e-91
1.051799e-90
5.5312791e-91
1.5311067e-90
7.2697466e-91
4.5249111e-91
1.1898278e-90
2.3215202e-91
1.1484511e-91
1.1886119e-90
5.0593472e-91
5.3005353e-91
1.4134857e-90
6.8859443e-91
1.2806642e-90
9.4706058e-91
8.9844299e-91
2.5068184e-91
3.7296462e-91
5.4276588e-91
2.925623e-91
6.585962e-91
3.8517114e-91
1.5109074e-91
3.6512819e-91
6.6496901e-91
6.6704701e-92
2.043247e-91
6.9292393e-92
7.8383528e-91
4.6815506e-91
4.5970213e-91
2.3582427e-91
5.2549114e-91
5.7828719e-91
3.7785672e-91
3.0996144e-91
1.2369624e-91
9.9806104e-92
2.1535772e-92
1.0042107e-92
1.8753603e-91
6.3136818e-92
7.5585121e-93
4.0517984e-89
1.3825135e-89
6.5260764e-90
6.3920266e-90
6.5084882e-90
2.4179183e-90
3.2884966e-90
3.1041946e-90
1.007737e-90
1.1380619e-90
1.1064218e-90
6.5355607e-91
1.2596331e-90
9.3580747e-91
8.8462972e-91
5.7862566e-91
7.6626829e-92
2.7665818e-91
1.1998124e-89
7.9049938e-90
5.7706418e-90
2.8750752e-90
3.8151729e-90
2.1753425e-90
5.8641592e-91
5.4189297e-91
1.4445349e-90
5.3309772e-91
8.5870731e-91
1.589733e-90
2.3135854e-91
1.7424686e-90
9.9582086e-91
1.3539683e-90
5.0058108e-92
1.9134714e-91
4.7589055e-91
4.3843249e-91
4.5336198e-91
7.4901093e-91
7.3566512e-91
1.0028354e-90
5.9235025e-91
8.9659791e-91
5.8229405e-91
7.3311617e-91
7.3345407e-91
7.1224575e-91
1.2412792e-90
1.0766866e-90
9.2064894e-91
8.3354338e-91
1.574681e-90
1.2720939e-90
4.384698e-91
4.8609519e-91
4.150881e-91
5.028226e-91
5.1211415e-91
3.8825181e-91
3.406661e-91
4.7423373e-91
8.3087453e-91
9.6237977e-91
1.0209629e-90
9.9484369e-91
9.2310761e-91
1.1181717e-90
1.0377955e-90
1.4724777e-90
9.7352373e-91
4.2646661e-91
5.3679159e-91
6.1624766e-91
5.21779e-91
6.9097118e-91
1.9511656e-90
7.0171604e-91
7.4498458e-91
1.1683383e-90
1.1476795e-90
4.4486437e-91
2.7301307e-91
3.596488e-91
1.6865943e-90
1.0335047e-90
3.2613919e-91
6.9118954e-91
2.4847398e-91
3.2472897e-91
4.2184527e-91
2.9325673e-91
4.4570655e-91
3.9764746e-91
4.3677395e-91
2.974126e-91
4.9921125e-91
1.1818248e-91
9.8181286e-91
1.0821453e-90
4.4726467e-91
8.4809707e-91
1.1250707e-91
2.5407965e-91
1.980342e-91
2.1432342e-91
1.5817679e-91
1.9559957e-90
3.8654561e-91
1.5761222e-91
4.2736923e-91
4.8248502e-91
4.576117e-92
1.2417969e-90
3.1665036e-92
8.4085512e-91
5.6822182e-91
1.5191367e-91
1.2888858e-92
8.4744148e-92
4.0640578e-91
6.9803767e-91
5.5156086e-91
7.0509518e-91
6.2355697e-93
1.7443552e-91
3.4602162e-92
1.9009626e-91
1.0963063e-91
6.203477e-91
1.2087333e-91
4.4344498e-91
1.7567081e-92
7.7124065e-92
2.5139365e-91
1.2946701e-91
6.3486401e-92
1.2565693e-91
9.3803916e-92
1.7742085e-91
6.3197416e-92
1.5652747e-91
1.9844805e-91
7.82452e-91
1.1018397e-90
1.3172517e-90
9.0595566e-91
1.1538039e-90
7.6633653e-91
9.6732087e-91
5.5043723e-91
6.5044963e-91
1.5842526e-90
1.0235256e-90
1.4819985e-90
1.8894806e-90
1.8300686e-90
1.0722771e-90
4.4218232e-91
5.6516156e-91
6.2013325e-91
1.2569093e-90
6.9173401e-91
5.5067845e-91
5.0170571e-91
1.2476882e-90
8.9799151e-91
6.5904111e-91
9.0132575e-91
6.7318897e-91
1.4104144e-90
1.4069712e-90
2.0232887e-90
1.593751e-90
1.2553927e-90
1.0743479e-90
1.4101105e-90
9.2212096e-91
1.4867283e-90
8.7298256e-91
6.6898239e-91
4.7461844e-91
7.5692698e-91
1.3369341e-90
1.0843961e-90
1.124522e-90
1.1170901e-90
2.082517e-90
9.2343072e-91
5.653345e-91
5.7779239e-91
1.690627e-90
2.0933898e-90
1.4564078e-90
9.3626049e-91
2.8005383e-90
1.5949109e-90
3.7303057e-91
6.4664341e-91
9.0863233e-91
6.1893047e-91
7.7963597e-91
4.3076963e-91
1.2808769e-90
3.7103395e-91
1.2854277e-90
4.9563843e-91
7.2186025e-91
3.0921813e-91
4.2228505e-91
2.8775519e-91
7.5504732e-91
5.1608085e-91
4.469455e-91
5.9441832e-91
6.4814581e-91
7.2596698e-91
1.9265694e-90
6.7855879e-91
4.2443334e-91
2.9091602e-91
5.1466881e-91
3.9874393e-91
1.0918157e-91
5.388335e-91
5.5787611e-91
5.3314766e-91
1.6030236e-90
1.1120958e-91
1.7176103e-92
1.5826461e-91
9.4159256e-91
2.0362337e-91
5.0356753e-91
6.688308e-92
5.9527815e-91
2.799492e-91
2.6720047e-91
7.0397245e-92
2.8345202e-91
1.1268694e-91
1.2833029e-91
1.1924759e-91
1.2497997e-91
1.2867464e-91
6.4821324e-92
4.5091104e-92
5.3948679e-93
1.278718e-91
2.3597383e-92
1.913327e-89
1.1006711e-89
2.1241958e-90
4.156596e-90
5.0849938e-90
5.6218254e-90
1.7676766e-90
2.3515645e-90
1.6120413e-90
9.3529718e-91
1.7184288e-90
8.0814405e-91
5.3905123e-91
2.1858233e-90
2.1969282e-91
6.1991867e-92
2.9709884e-90
5.8964346e-91
1.2573391e-89
1.3405488e-89
2.5241582e-90
2.8352737e-90
2.5544637e-90
3.3542382e-90
2.2271012e-90
9.454536e-91
1.1413276e-90
8.2562013e-91
8.1187902e-91
1.1403669e-90
3.779875e-90
1.1843039e-90
1.4086588e-91
2.5410185e-91
3.7214042e-92
5.1279871e-91
4.1441927e-91
7.1092297e-91
7.3220203e-91
4.2905477e-91
6.1940764e-91
5.9326711e-91
9.4976536e-91
9.0096887e-91
5.3179894e-91
4.7443621e-91
4.8500918e-91
4.9933043e-91
5.6865896e-91
6.7735496e-91
6.9713322e-91
1.0670868e-90
1.1504384e-90
7.7787256e-91
8.05624e-91
1.0236541e-90
1.277432e-90
3.7250671e-91
3.9313437e-91
4.1874412e-91
4.0512286e-91
4.8705681e-91
4.9957341e-91
4.9871545e-91
5.3511946e-91
9.3585166e-91
1.3170925e-90
2.3533519e-90
1.2758621e-90
1.1526282e-90
8.8641064e-91
7.9132344e-91
8.7838945e-91
1.0014532e-90
7.5717675e-91
1.408463e-90
9.6465016e-91
5.5107275e-91
4.5548312e-91
6.4447668e-91
7.6217246e-91
5.7858147e-91
1.0743689e-90
5.9126175e-91
7.0048741e-91
3.0689544e-91
2.0543153e-90
1.3654653e-90
8.9545959e-91
1.6561379e-90
1.5403745e-90
2.4325408e-91
3.383518e-91
7.3877253e-92
3.3406955e-91
1.1540231e-91
2.7224349e-91
9.4876333e-91
5.5557973e-91
2.5596241e-91
3.2364644e-91
3.5209238e-91
3.956619e-91
4.8151175e-91
4.0285259e-91
3.1078728e-91
1.3682279e-91
1.256594e-91
3.15933e-91
2.1404146e-91
1.0060338e-91
2.4988538e-91
4.5027035e-91
1.4318304e-90
1.8027759e-90
5.7599463e-91
2.182818e-91
1.3352561e-91
9.5284419e-92
8.2728789e-92
2.7351442e-92
6.7325207e-92
1.7814498e-91
1.7104766e-91
1.6450899e-91
6.0379392e-91
2.2356699e-91
1.8108689e-91
1.4176104e-91
1.9153155e-91
1.3011224e-90
6.4617438e-93
7.1332607e-92
3.9332959e-91
6.4999403e-91
2.404057e-92
1.0700952e-92
3.6459552e-92
1.4435606e-91
6.4449472e-92
1.2961158e-91
2.9803972e-92
1.0959515e-91
4.459371e-92
7.5101039e-92
6.8785942e-92
7.2043377e-91
9.4874759e-91
1.1567384e-90
1.3393916e-90
1.0349618e-90
7.0449336e-91
7.3214e-91
6.5504838e-91
5.5340539e-91
1.544942e-90
9.8714874e-91
1.5228875e-90
1.6963068e-90
1.7991989e-90
9.8600239e-91
4.3170579e-91
5.5948497e-91
8.2285878e-91
1.3152935e-90
8.633087e-91
8.8110605e-91
7.7486176e-91
1.2754306e-90
7.3030244e-91
7.6560341e-91
8.3731863e-91
5.8392445e-91
1.0829073e-90
8.373596e-91
6.3930433e-91
4.3375369e-91
1.8317111e-90
1.1666098e-90
1.8112823e-90
2.2331454e-90
1.5257141e-90
1.7574369e-90
2.0565712e-90
1.3966985e-90
1.5123204e-90
9.6481312e-91
1.1472547e-90
8.2877343e-91
8.8938664e-91
1.4410912e-90
1.0575951e-90
6.967394e-91
1.2510806e-90
1.4572496e-90
1.5137149e-90
2.049867e-90
1.1719978e-90
1.5265791e-90
1.7433426e-90
1.8283382e-90
1.66947e-90
1.4767008e-90
9.7573688e-91
5.2851905e-91
8.8402692e-91
5.3223708e-91
8.333785e-91
1.0305459e-90
2.8224719e-90
9.9518584e-91
4.5349571e-91
1.2770866e-90
1.0245412e-90
6.1140742e-91
3.3450895e-91
2.2981596e-91
3.0907661e-91
3.686323e-91
3.1958667e-91
5.9090892e-91
6.1542361e-91
7.2699222e-91
7.8572163e-91
4.4245727e-91
3.2311479e-92
3.5612681e-91
4.5497361e-91
2.8596236e-91
7.7257153e-91
2.7343959e-91
4.3532017e-91
2.701413e-91
1.1227392e-91
7.2400701e-91
1.4028608e-91
5.7433749e-92
2.1214638e-91
7.0628524e-91
2.4824458e-91
3.037464e-91
1.1779005e-91
9.119042e-92
5.5953935e-91
2.7299139e-91
1.5530388e-91
7.448525e-92
3.3691511e-91
1.0186965e-91
4.0710641e-92
2.7528538e-91
1.8201901e-91
7.3008156e-93
1.7137999e-91
2.538255e-91
1.7866425e-91
1.4021064e-91
2.1627514e-92
2.3785822e-92
2.1826893e-89
1.7739337e-89
8.1335207e-90
2.3596107e-90
2.5133707e-90
9.1251583e-90
8.9943744e-91
1.3607598e-90
1.5241096e-90
4.5189763e-90
9.2006162e-91
4.9460711e-90
2.345606e-90
1.6272164e-90
3.4244536e-91
1.643894e-91
5.194845e-91
5.7860684e-90
4.4255421e-90
8.3217755e-90
2.6152404e-90
8.8941021e-91
3.4361232e-90
5.8673038e-90
1.5531682e-90
6.7993986e-91
5.4025632e-91
4.4820698e-91
1.0466767e-90
4.5185102e-91
2.0657784e-90
1.0402977e-90
2.8836365e-91
7.847217e-91
8.0234946e-91
2.6340443e-90
6.2087186e-91
3.8487354e-91
4.2046755e-91
6.9875063e-91
6.1321683e-91
8.4624036e-91
9.4813154e-91
6.1205204e-91
5.0051364e-91
4.3461593e-91
4.2151708e-91
4.4436496e-91
5.1138872e-91
4.1802105e-91
4.8654603e-91
4.4741592e-91
6.2501411e-91
7.1468647e-91
7.0727539e-91
1.3549748e-90
1.5676106e-90
7.0931497e-91
7.4800192e-91
1.306662e-90
1.0639041e-90
5.3923851e-91
5.4332231e-91
5.1654512e-91
5.6413447e-91
3.808981e-91
3.916406e-91
4.4854927e-91
4.1560662e-91
7.4054554e-91
1.8279076e-90
3.1900144e-90
2.422554e-90
1.62827e-90
1.4359516e-90
1.8515215e-90
9.2662119e-91
1.0403277e-90
1.0229604e-90
1.1462143e-90
1.0028895e-90
8.9554309e-91
8.4871298e-91
1.7438078e-90
1.3484152e-90
5.5914202e-91
3.8849398e-90
2.4151027e-91
8.5301167e-91
5.1535914e-91
1.3411526e-91
7.6419e-91
8.6930279e-91
1.3492005e-90
1.295522e-90
6.244975e-91
5.1151267e-91
3.1124458e-91
4.6341764e-91
2.8631245e-91
5.5884502e-91
1.3682167e-90
5.4676917e-91
1.3757027e-90
7.2405838e-91
2.4446812e-91
2.594205e-91
8.9604773e-92
4.7086805e-92
3.4533251e-92
1.3132714e-91
1.2737996e-91
2.0968513e-91
6.5062208e-91
3.5270783e-91
5.219344e-91
5.1086792e-91
1.3643425e-91
1.4872311e-91
7.6326185e-91
7.2129216e-91
2.9192642e-91
4.1585332e-91
1.9014986e-91
5.6019252e-92
7.8638917e-92
1.7708555e-91
2.9557379e-91
3.5318846e-91
8.6338082e-92
1.3473154e-91
2.8462403e-91
1.268496e-91
4.369408e-92
1.021048e-91
7.8749529e-93
5.2285805e-92
4.4080692e-92
1.7409732e-91
7.6975206e-92
9.0355243e-92
1.8793231e-91
6.191801e-93
5.3174411e-92
6.737054e-91
6.1903616e-93
2.8313515e-92
3.2575022e-92
4.4031879e-92
5.4545376e-92
5.649451e-91
9.972068e-91
1.1325749e-90
9.7157376e-91
9.4946388e-91
5.0644412e-91
5.1454522e-91
5.219306e-91
5.0579555e-91
1.6645766e-90
1.750484e-90
1.0048665e-90
1.7401728e-90
1.5439866e-90
9.7665264e-91
4.3433025e-91
4.5529855e-91
1.196723e-90
1.3846567e-90
8.8511045e-91
1.2838399e-90
1.0654368e-90
1.5009565e-90
1.1458367e-90
7.4645596e-91
1.159128e-90
9.7056693e-91
8.9461372e-91
1.4247558e-90
1.2519264e-90
7.0144191e-91
8.7031319e-91
1.031212e-90
6.9459856e-91
4.9239247e-91
1.7068739e-90
8.5084337e-91
1.3023476e-90
1.5623344e-90
8.515031e-91
1.7024685e-90
1.1211908e-90
1.8327131e-90
1.7768436e-90
1.1570535e-90
1.1392513e-90
9.8189666e-91
1.0159238e-90
1.3654127e-90
1.7465739e-90
1.1597281e-90
1.3545303e-90
7.2405831e-91
2.2197093e-90
1.6148398e-90
1.4996371e-90
2.1460348e-90
1.5581257e-90
8.5329192e-91
5.1281735e-91
2.4244858e-90
1.0132086e-90
7.0451877e-91
1.0483998e-90
7.0803386e-91
1.1692463e-90
7.7580694e-91
1.2071508e-90
1.0896327e-90
6.2639898e-91
1.0848928e-90
8.491657e-91
1.9777307e-91
3.3910566e-91
3.3703735e-91
2.6823557e-91
1.4066094e-91
3.011215e-91
6.9055439e-91
8.1217531e-91
1.3011116e-90
4.7944921e-91
5.5857857e-91
2.6284091e-92
2.0798845e-91
2.9086707e-91
2.8338622e-92
3.9397112e-91
2.5491816e-92
1.6925536e-91
2.4409403e-91
3.9508446e-91
2.4648843e-92
1.7875234e-91
4.5393531e-92
9.3972297e-91
3.5438567e-92
3.4358624e-91
4.8207376e-91
4.0586256e-91
1.5336768e-91
3.7579005e-91
1.5841029e-91
2.3467542e-91
3.1022709e-92
3.5707524e-91
9.3193305e-92
8.6173354e-93
2.8594666e-91
2.1159351e-91
2.7546866e-92
1.3779206e-91
2.5006592e-92
8.0325037e-92
1.067465e-92
2.9585523e-91
2.2468555e-91
1.4637939e-89
2.617453e-89
3.4624624e-90
4.1200475e-90
6.3787021e-90
1.0928512e-90
1.3693009e-90
1.094976e-90
9.6959958e-91
1.6934875e-90
1.1438279e-90
2.1590535e-90
1.7372136e-90
5.6038579e-91
1.5238528e-90
2.182133e-90
2.9168724e-91
5.1084371e-91
6.5734563e-90
4.2805277e-90
2.8224862e-90
1.5958146e-90
4.0817372e-90
2.0620805e-90
7.384722e-91
5.1043332e-91
5.7116959e-91
1.9412217e-90
5.459826e-91
2.7077635e-90
2.8205942e-91
2.1607292e-91
5.9975449e-91
2.1823286e-91
1.580363e-91
1.2990776e-91
5.4020605e-91
5.8845098e-91
5.5291203e-91
6.3374724e-91
6.7362789e-91
4.2939943e-91
6.2913158e-91
3.8654169e-91
3.8266252e-91
7.2246772e-91
8.8868374e-91
6.0654192e-91
5.3266209e-91
7.0397336e-91
6.9834628e-91
6.6561616e-91
6.2734726e-91
6.451708e-91
4.2831006e-91
3.7236555e-91
3.9649804e-91
4.1371726e-91
6.4527791e-91
7.7674692e-91
7.1518217e-91
1.7923242e-90
1.8660316e-90
8.8425541e-91
1.1001217e-90
1.7781137e-90
2.4512804e-90
5.0890466e-91
8.030859e-91
5.7955216e-91
8.2584899e-91
4.8766928e-91
5.1189007e-91
4.6568169e-91
5.6540225e-91
1.022876e-90
1.2210373e-90
1.5938437e-90
2.6186809e-90
1.604289e-90
1.8415409e-90
2.339412e-90
2.5416379e-90
1.6580104e-90
1.8453988e-90
1.1510567e-90
1.0465964e-90
1.3713251e-90
1.1818066e-90
1.3272326e-90
1.2691151e-90
1.1153003e-90
9.5776138e-91
6.5513899e-92
6.9042779e-91
5.4804847e-91
9.2886561e-91
6.3988419e-91
4.1695584e-91
7.0859141e-91
1.0279297e-90
2.1303771e-91
4.0606223e-91
1.4448609e-91
9.358866e-92
1.1927959e-91
2.4528213e-91
7.2374304e-91
4.9948226e-91
8.8073939e-91
1.3761095e-90
7.7869424e-91
4.7632974e-91
3.2430516e-91
2.1183589e-91
5.4553214e-91
1.1843941e-90
1.246264e-91
1.0281068e-90
6.7486059e-91
6.3996277e-91
1.5900923e-90
1.1167972e-90
1.0507226e-91
1.9967994e-91
1.9348014e-91
5.8347426e-92
2.3964372e-92
1.4072457e-91
1.3531675e-91
3.6176703e-91
5.6816577e-92
2.6338614e-91
7.0607522e-91
4.5030606e-91
9.2073783e-91
6.1069849e-91
2.419012e-91
1.4971628e-91
2.7551003e-91
2.7020984e-92
1.1041835e-91
2.3295297e-91
1.8760658e-91
1.4454749e-91
1.4294581e-92
3.4904563e-92
3.4640956e-92
2.9029087e-92
2.6565487e-92
4.9178671e-92
1.4022689e-91
1.0563677e-91
1.4561107e-92
6.365214e-92
2.5701482e-93
1.1241759e-91
6.6837262e-91
7.3892076e-91
7.7470138e-91
8.1469339e-91
8.1941779e-91
4.7623816e-91
3.7780953e-91
4.6895582e-91
3.6288148e-91
1.4168366e-90
8.6858764e-91
1.662974e-90
1.7136478e-90
1.5867791e-90
9.2097597e-91
4.0541707e-91
3.8641623e-91
9.705281e-91
7.4286793e-91
1.9881925e-90
8.0573122e-91
8.6817279e-91
1.2378876e-90
8.3013719e-91
7.5700711e-91
1.7011882e-90
1.3025994e-90
8.614294e-91
1.8968452e-90
1.8593159e-90
1.3454358e-90
9.794698e-91
1.8064461e-90
1.1591391e-90
1.3011778e-90
8.4146473e-91
9.7685113e-91
4.5679343e-91
1.0954338e-90
1.2714309e-90
1.5531158e-90
1.0896886e-90
1.3427756e-90
1.3438161e-90
1.1679639e-90
1.260118e-90
1.0421272e-90
7.5871153e-91
9.558291e-91
1.1118801e-90
1.8909347e-90
1.8081135e-90
1.2967075e-90
1.4952407e-90
1.46489e-90
6.436816e-91
7.1807273e-91
7.1783371e-91
7.0673823e-91
1.4851919e-90
8.9954428e-91
2.8048397e-91
9.9784987e-91
1.5403418e-90
1.4473654e-90
1.8519791e-91
7.7276498e-91
4.6124658e-91
8.6503723e-91
9.187219e-91
5.7649743e-91
3.190411e-91
1.2829351e-90
1.1747774e-90
7.7821306e-91
7.6165841e-91
6.0662685e-91
8.5861893e-91
4.5487894e-91
4.5101647e-91
7.3325554e-91
7.4285034e-91
1.4505178e-91
3.7822183e-91
5.9605206e-91
1.0926454e-90
2.1761236e-91
2.9527822e-91
2.0389005e-91
4.3822331e-91
3.6799169e-91
2.0321263e-91
1.0162514e-91
3.0213096e-91
8.5920211e-91
7.5502326e-91
7.9252017e-91
5.4731881e-92
4.5702806e-92
2.3984961e-91
3.7269127e-92
2.795724e-91
4.2194901e-91
1.0609382e-91
1.5675967e-91
1.9983259e-91
1.3170839e-91
6.631006e-91
1.0692406e-91
3.8519025e-92
2.7090864e-91
3.8431551e-92
3.4389196e-92
8.4278828e-92
2.6484605e-92
1.5997364e-91
6.4698946e-92
7.5694361e-92
2.1063741e-92
3.2987982e-89
7.7026441e-90
7.7344846e-90
3.5466161e-90
1.409275e-90
1.0605282e-89
1.4719544e-90
1.6795212e-90
1.5775834e-90
5.8026924e-91
1.7915144e-90
2.4926844e-90
5.7306461e-91
1.6478839e-90
3.5334548e-91
1.9679183e-90
4.7302898e-91
1.6758461e-91
6.908005e-90
2.0356778e-90
3.9596112e-90
5.7913523e-90
1.7748266e-90
2.3194503e-90
2.7439754e-90
7.7913778e-91
3.5638735e-90
1.5878801e-90
4.9546719e-91
1.4765047e-90
3.3330341e-91
8.6115166e-91
1.6319181e-91
1.1941505e-91
1.8662002e-91
3.5361401e-92
4.3090466e-91
5.5546779e-91
5.0844474e-91
4.1716733e-91
5.8589917e-91
6.182984e-91
4.4086089e-91
5.7593371e-91
6.3772475e-91
6.2342936e-91
5.7386243e-91
5.8118475e-91
6.2094729e-91
5.9554857e-91
5.7186662e-91
1.6285629e-90
1.1949274e-90
1.07398e-90
1.3115116e-90
4.3542735e-91
5.9712743e-91
3.7048313e-91
4.04353e-91
7.235007e-91
1.9120065e-90
9.0086941e-91
7.6413762e-91
1.291294e-90
1.1129977e-90
1.5388891e-90
1.0400953e-90
6.5486608e-91
5.356637e-91
5.3421119e-91
5.2932718e-91
4.9358864e-91
4.7577181e-91
1.2094042e-90