/*--------------------------------*- C++ -*----------------------------------*\
  =========                 |
  \\      /  F ield         | OpenFOAM: The Open Source CFD Toolbox
   \\    /   O peration     | Website:  https://openfoam.org
    \\  /    A nd           | Version:  7
     \\/     M anipulation  |
\*---------------------------------------------------------------------------*/
FoamFile
{
    version     2.0;
    format      ascii;
    class       volScalarField;
    location    "2000";
    object      omega;
}
// * * * * * * * * * * * * * * * * * * * * * * * * * * * * * * * * * * * * * //

dimensions      [0 0 -1 0 0 0 0];

internalField   nonuniform List<scalar> 
33730
(
963.42992
2363.0493
764.52691
951.88321
1333.6629
1432.4454
1189.4711
1173.3827
755.20021
748.78456
882.18804
903.36004
3676.3214
2318.6306
2447.6972
2171.947
2488.7336
2229.8061
2172.5206
754.13225
608.79632
605.50873
682.27488
681.54908
953.93578
1363.0525
697.68709
1137.8881
1136.9943
1327.4067
816.66316
878.02348
740.80261
1458.7642
1428.2453
1247.0489
1044.2223
1229.988
1062.6879
683.88868
665.37501
768.51135
785.1435
1063.1918
4250.1881
3089.1078
3201.966
3055.7916
3812.1422
3291.453
2276.8158
2390.7232
2029.2437
2136.373
2308.7545
2359.0931
2096.5084
2202.7999
2307.5962
1980.5472
755.45447
597.68767
609.18966
668.40076
648.81777
575.82108
585.66239
622.56394
610.54192
890.55119
1359.2935
658.88581
641.4383
1078.1262
1409.2024
1061.4702
726.30225
765.00985
1494.2259
611.05473
1245.0807
940.16365
1247.0675
1002.9398
1472.0628
669.46284
747.78381
661.08899
1378.263
1258.8276
1132.187
994.89931
913.60417
1068.8526
983.86673
925.78973
685.38952
660.91109
760.90547
779.25696
815.97579
1124.5221
688.24313
794.31898
779.68808
672.48525
1723.0353
1276.0589
1745.2574
1288.1479
4301.963
2568.4422
2890.1105
3280.6295
2540.2628
3168.6249
3296.6947
3446.3171
3843.3755
3038.1573
2338.7774
2441.5985
2105.2626
1770.0081
2174.2157
1676.8113
1898.6078
2176.5931
1816.7173
2377.4351
2382.5049
2533.2999
2273.293
1814.2727
735.13212
588.0448
630.05219
631.47055
590.66186
567.22254
584.90285
613.80702
580.95592
590.32098
598.18565
634.43487
615.30059
909.30435
1218.2225
1213.9817
635.73478
640.1236
715.95286
702.46095
981.32258
981.98544
1537.7708
583.70314
574.17506
1208.3052
856.26402
1602.589
1221.8268
884.33771
626.24762
642.23372
1254.568
613.34999
980.53625
1490.017
787.89169
1062.7019
1268.8994
850.01328
1570.0227
663.98903
732.67629
659.00094
1146.7863
861.63549
824.09425
558.24872
841.6261
886.36959
828.08456
926.95475
578.89579
887.27219
682.59148
666.13891
739.61711
755.38493
405.44422
871.94845
645.29103
567.66288
654.15699
566.76715
1190.2387
662.59073
774.31639
775.56161
669.31132
1210.7956
1688.1931
1252.8574
1596.6824
597.17002
668.35612
952.17117
670.61192
1004.6816
590.88306
1846.0938
1372.2089
1702.1161
1404.8748
4332.5709
2060.1867
3020.097
2417.5995
2923.9152
1610.9538
3020.2516
3309.1143
3122.3868
3448.5151
3871.3707
3432.5318
3422.2007
2986.9254
2359.2621
3330.1912
2380.6272
2226.9467
1684.1163
1365.3322
1921.2506
1439.6689
2181.4874
982.24131
2440.943
2594.0076
2579.4057
2320.5432
2314.9923
2460.9395
2072.0752
1270.0704
655.55399
742.02778
588.75896
621.59657
616.71339
587.44894
554.76811
561.16319
566.86822
559.94054
583.46463
597.01268
622.46337
588.99601
632.2544
630.83237
654.20689
641.57359
917.77573
1241.812
1295.6485
1028.0608
1022.0618
652.68931
660.26963
732.43419
724.19044
1411.4278
1419.0573
570.1897
579.14459
631.77029
817.55032
608.82472
787.39239
1003.0818
1070.4501
1329.916
598.75341
588.15526
881.55576
1236.3861
730.69245
1308.9494
1200.3715
949.0916
777.10311
617.66553
632.97423
1025.0067
640.18957
989.03753
825.76894
2147.9002
764.94217
876.07561
1066.5139
1145.767
816.39667
2834.9036
663.88251
711.95231
667.27251
314.58567
547.97942
801.04772
844.04937
511.39432
629.0954
854.30128
840.64911
613.07961
392.54071
432.8997
658.11559
878.66854
561.91873
647.88269
644.59644
563.14893
570.45016
556.05499
572.8659
555.19857
1202.818
654.41854
767.96025
756.53462
653.19218
1308.7801
1392.1539
1834.3764
1726.3948
596.6965
679.44019
942.39978
672.15244
923.9249
592.75165
1352.3717
2091.1199
1466.276
1803.7892
628.67002
832.29421
680.38557
1071.2621
683.949
836.65766
1053.2719
621.28622
1317.3296
1026.0228
1047.66
1394.5803
4234.7267
1491.3557
2964.7474
1700.3119
2830.9447
789.1567
2951.746
3110.3401
3020.4467
2763.3941
3787.4118
3426.6048
3505.7285
3420.4491
3381.0826
3217.4686
3126.8054
5035.4061
2388.9744
2805.6246
1462.1691
1235.8782
987.66033
1413.6341
534.40194
2368.5854
2304.5247
2614.4954
2613.2469
2299.6981
2540.7476
2536.9787
2146.5438
2158.6926
1695.6779
1426.2492
655.08844
552.28029
555.61173
584.20004
583.60883
719.86599
595.24016
635.4433
628.27364
593.99527
552.317
560.67942
556.04406
547.87391
573.66944
579.14101
590.50589
593.78816
632.52608
631.8554
648.86961
628.56657
854.88255
1105.2106
1254.5993
672.17284
664.47649
1246.7704
1067.7552
773.84063
763.14224
1368.1082
1423.1957
1003.6877
804.33884
1011.214
822.03904
579.80611
586.12344
629.16606
628.23535
1395.311
1378.4156
586.32514
597.30487
722.76874
633.79924
859.08124
695.93249
609.60714
808.18417
826.99088
1172.2363
1308.374
660.11182
650.96507
700.27159
854.68717
1929.233
707.59194
929.36096
915.592
852.66791
852.00654
750.07778
644.69162
656.32885
1546.4305
812.46123
802.32951
741.87792
774.85192
716.74745
917.91252
780.71757
341.84919
594.83374
784.65542
361.58089
647.61819
807.86869
662.90656
413.62526
309.79982
665.85117
548.65807
513.5824
551.13653
514.1818
848.42953
555.58231
642.33533
636.86388
557.59105
548.2066
565.31648
567.51495
552.08173
612.36812
609.24322
616.91448
603.95852
1307.8554
669.01408
867.76524
818.97647
658.27614
1711.4179
1380.5278
1960.4548
1403.7023
572.08536
645.66915
957.95022
642.22711
963.71453
581.41106
1408.4761
1574.4593
2300.2032
1997.3609
616.33498
825.8078
689.046
1091.791
689.2979
832.70562
1074.5219
626.38592
1224.2918
2567.0536
1512.4942
1873.6209
710.3087
850.65994
883.95566
725.59081
960.16183
722.85238
834.58004
852.38798
864.47066
706.28082
642.20671
696.2104
517.00173
1227.7427
4232.804
4649.4099
2328.8702
2172.9568
3057.0572
2682.4918
1734.8704
3715.6269
3273.3059
3212.2594
3334.7714
3392.2264
2991.1403
3047.5349
2917.8527
3169.961
3050.2408
2703.1076
2368.1896
627.38546
627.97115
2422.5615
2252.2747
2553.8788
2516.4399
2273.0443
2186.4421
2673.0416
2367.5964
2064.4985
2326.0022
2161.0553
1678.7011
1800.1597
814.18044
822.4911
580.49438
648.90986
551.39172
550.25617
584.51325
585.92577
537.27498
533.65862
541.80632
546.11824
705.48878
588.50108
627.11447
629.51924
592.10047
556.81931
568.96678
564.33399
554.78606
578.52249
583.53914
576.09372
571.1894
631.43432
641.76789
654.69292
654.49709
822.15413
1136.6364
641.04728
635.67447
939.17164
990.95532
1153.5923
710.12588
694.49923
1149.8561
892.58689
1288.7613
597.62122
598.25187
1359.7886
1084.9376
856.51873
664.47695
647.23775
1412.7096
1321.7225
794.47702
764.34004
719.28816
830.43205
866.01773
708.45548
594.71394
593.51225
624.27097
624.84786
1930.222
1297.8767
643.12619
655.37409
777.66863
725.48342
659.19821
685.50913
761.70558
691.35791
645.58738
621.76516
649.16987
1751.5287
516.01763
1087.9201
784.42188
695.62316
821.48293
859.83759
811.11791
730.99085
808.86694
778.56665
778.61854
752.40679
550.27518
573.19445
546.22933
330.5402
902.31451
668.17596
512.32307
550.31964
549.47816
513.47279
530.85263
532.70577
655.4948
654.28527
542.39635
531.24809
538.11046
535.0774
888.61588
557.12486
639.72867
636.90568
557.18845
541.1309
550.49081
554.65299
541.99315
578.00166
590.28298
606.14395
595.80323
714.99419
722.59396
719.80877
711.136
1237.401
727.3847
951.50639
897.23339
708.95893
1471.0308
1740.3336
1527.4886
1671.0882
585.41618
739.38152
1078.1674
649.97558
1003.851
571.60327
1955.7292
1390.8874
2280.7655
1605.7808
597.32981
802.53721
658.49345
1168.3135
664.34027
788.53878
1151.079
600.64368
1239.7498
1448.2275
2306.0478
2036.7849
688.78173
853.74625
934.44365
733.18481
1173.8784
749.49657
865.38563
951.73972
953.24049
708.7818
1217.4827
3635.4925
3007.8226
2334.1063
862.09197
861.67004
572.88497
785.51638
841.94099
817.87137
596.49856
518.9738
4221.6039
1172.1423
1986.7124
3695.4514
3132.3037
3282.1465
3245.997
3386.5834
2854.3021
2577.7573
2897.2408
2850.7119
2498.4353
2641.6283
1862.0038
2917.9428
2029.9128
1376.502
2429.7909
2401.9935
2502.8105
2545.8963
2317.0063
2335.7809
2097.2802
2461.7025
2299.971
2135.1271
2149.2319
3032.253
1335.3677
1671.839
1850.711
1558.0362
1564.3286
1966.8173
580.7953
543.75438
526.053
544.16347
526.75016
651.04319
550.96517
549.80997
582.61038
581.49646
535.27512
534.91718
545.6067
545.70076
583.34633
566.07922
569.85516
581.14749
722.04338
588.82323
620.7288
619.5636
586.06219
559.02391
574.19767
574.39857
559.49882
573.7119
579.13051
583.37726
581.80667
634.87246
643.15234
630.9526
623.74481
819.45639
1185.6605
1172.1221
647.19904
642.72294
691.75959
704.89745
936.95137
929.08298
1350.6227
591.18474
591.05628
1043.2185
765.7307
1094.8542
809.38842
1319.6493
636.16604
625.25892
946.05927
978.20867
743.26942
933.29725
601.53727
601.85114
1260.6064
882.16023
846.72642
757.19301
645.17405
638.87452
1670.7784
1069.3437
543.72192
727.7823
648.66687
708.00911
731.98007
873.93805
783.88455
700.34021
646.03363
627.68526
650.35644
651.63282
629.17178
768.84642
720.56337
372.97421
789.96809
750.16395
691.73001
491.36313
1125.0696
841.92493
752.32614
652.76844
777.41093
784.86374
674.65989
769.06911
653.40756
658.6875
512.21316
551.04233
549.66528
512.63996
530.76854
530.53655
653.22728
650.17967
532.30677
507.52436
536.26017
535.54384
530.28911
508.59574
586.56376
568.02743
571.56551
577.99311
835.54027
656.08632
566.41063
664.88082
566.23032
541.43573
551.29058
551.02151
541.82565
574.73642
579.26962
578.58255
571.40773
644.60516
656.57338
698.24637
689.43642
1165.0656
754.6435
971.6819
929.03207
738.67775
1506.2771
1803.7203
1488.6443
1891.7453
611.07416
763.23531
1186.1253
726.21413
1097.6046
581.20589
1616.5146
1845.4804
1600.4
1940.5343
615.2594
726.99625
939.2739
1228.1188
661.78242
838.63463
1186.0739
602.2553
1897.173
978.91051
2039.7492
1627.7609
676.30307
849.11503
925.94146
716.35235
1277.6251
719.32782
824.65758
873.69915
1280.6385
658.9243
827.17053
1515.5655
2312.8188
3929.7309
860.54456
954.81348
910.22494
2148.9031
880.22063
966.03086
856.86581
829.28934
868.16758
560.28054
392.56761
837.14646
606.63367
338.8713
4270.99
3906.9576
3275.6629
3268.7142
3410.0482
3372.2924
2843.9679
3264.7744
2882.7338
3072.1321
2265.2037
1965.331
2577.4352
1985.7538
1876.6912
1973.2619
778.55229
1658.8332
2455.6122
2393.0635
2451.8921
2284.2666
2301.0323
2451.1655
2490.0664
2460.6786
2152.4715
2296.2725
2031.9526
2296.2422
1763.5914
1912.8988
4104.3525
3689.4488
656.31795
1378.8288
580.76399
527.68049
527.63316
544.44822
544.52479
524.75478
515.67861
525.31919
516.63354
652.8319
549.03757
551.01495
578.70869
581.15433
535.86147
535.51766
546.98888
546.37622
587.42014
568.59946
583.75349
569.92425
647.89059
621.11424
621.88322
638.1907
716.90422
598.95467
631.90402
627.22142
593.09837
561.71067
573.89024
570.62244
555.50067
577.11097
586.65417
585.9563
577.93811
619.5284
616.29766
647.25943
656.67842
825.79715
1252.0144
1080.3173
903.03553
892.84095
631.73719
671.27023
686.82901
635.13523
1432.105
1283.3472
582.31113
585.57713
621.51731
748.21014
623.76731
769.60455
1044.0034
1016.9608
1678.4591
601.46897
606.39449
1224.7432
817.3447
694.18196
871.20066
1117.2127
721.23724
1257.259
636.48633
636.61579
967.79558
797.64552
694.10874
736.76711
540.7784
628.66542
633.5408
1196.2413
622.62661
537.0738
705.07883
746.89397
658.98359
655.71474
310.94736
633.93865
704.052
701.71252
694.51196
880.34349
733.03321
696.85148
386.73874
626.26794
753.70656
1093.0807
771.05853
738.8168
900.3519
839.10961
593.07536
789.02667
983.3693
654.60195
513.04735
550.30267
550.40784
513.78767
530.3166
529.12644
649.5907
650.9314
531.14699
507.22525
536.03168
536.88404
532.28846
507.98312
524.14838
523.44352
579.4384
528.81884
574.97607
570.04313
571.73195
526.64976
672.3943
628.66193
634.804
654.40934
800.27275
563.83722
670.24089
659.68604
564.65138
554.64459
543.71727
562.07081
542.81267
581.60045
592.13621
587.28722
583.3101
640.57044
648.86723
638.5783
629.97981
1218.7172
735.07913
965.29073
930.5466
729.49292
1708.1286
1456.1544
1441.9282
1893.8621
601.10191
684.67368
1106.7385
710.92813
1137.7939
603.08015
1562.1651
2075.9599
1664.1794
2068.4203
619.2244
963.51074
723.92583
1291.0429
710.22909
946.977
1283.469
613.47205
1614.9816
1327.1604
1370.2337
2313.2045
703.45561
723.74665
898.99858
945.88654
1091.8164
702.25845
853.42695
985.71504
1211.8564
680.59544
1391.457
522.3578
1097.3682
1791.659
849.92013
949.86759
770.08219
1742.2314
822.70344
874.89412
577.52082
1399.3182
959.402
948.71474
1174.8985
969.33193
903.49594
893.63817
643.98442
337.54428
753.27796
391.26168
4415.4338
3837.3529
3200.2771
3334.6762
3489.9481
3210.061
2887.7118
3142.6009
3062.841
3037.389
2645.0181
3654.6226
2217.3577
3066.717
1459.2022
1287.7476
3124.0196
1330.9635
2477.6849
2396.4219
2447.6001
2420.7194
2146.0276
2208.5103
2519.5208
2121.9952
2264.5034
2448.9415
2313.8875
2305.5928
1995.5019
2460.1167
2137.0193
1934.9603
1126.6293
2273.6419
527.5536
544.87438
543.65947
526.91331
517.74514
517.3671
526.00788
525.8187
567.12659
562.78595
586.87902
579.71484
652.1113
555.22035
560.16037
584.47916
589.33315
533.71462
538.28558
543.73554
549.93181
567.26821
566.97463
571.67723
570.42055
668.48657
627.55341
663.98436
621.22635
704.11153
588.04088
627.81939
626.0784
588.68117
553.89721
567.08488
570.40551
559.05309
585.89385
590.97023
584.19768
573.98759
620.05817
624.57976
620.37086
618.51645
758.38214
1142.4968
1066.9227
893.4792
897.12414
671.03898
663.42808
624.57887
630.16513
1401.6794
1231.0018
1020.0966
763.5878
1010.6676
739.30976
582.74831
607.9152
622.99024
582.34199
1322.2775
1044.0987
600.05627
605.71095
685.71762
637.5115
775.34647
694.01842
637.68136
849.99977
1103.7265
996.61822
3290.2815
636.04048
644.89489
1411.2402
899.049
686.39762
702.08666
857.74158
720.715
1486.8465
718.5981
1319.5563
661.20983
665.74501
827.2821
835.68539
783.49623
725.96995
289.96813
530.53823
719.64991
736.94467
524.2524
603.07098
671.38653
918.61589
732.82704
723.73273
435.06704
665.19502
801.70159
778.70158
976.68322
655.19685
549.4433
514.80586
550.56221
514.51862
530.6338
530.62644
648.09987
650.09187
529.31596
507.31906
535.925
537.08066
532.08968
508.59162
523.82535
522.24162
578.10507
525.88304
500.17713
577.29138
585.3506
527.92766
592.5535
501.02208
652.15437
585.17103
641.52678
627.29967
630.07665
574.06671
809.91585
562.71558
654.44786
654.24639
563.4691
551.25696
568.71582
564.48558
547.09521
585.16803
575.07143
582.51528
579.40102
677.59744
699.31784
667.67867
660.63423
1336.2065
760.66314
978.33018
969.05504
752.13405
1684.8412
1435.5456
1497.2992
1878.5004
609.65343
713.40868
1128.0491
690.88103
1105.6038
600.78358
2014.4234
1659.8714
1501.6313
1742.8584
590.94913
792.02857
648.61948
1162.7697
678.66667
883.61045
1199.1084
603.2467
1311.7718
1520.717
1655.7898
1671.5755
687.02711
916.27687
1044.6593
709.25947
1238.2323
720.06826
919.31812
1041.1373
1315.8733
713.51384
1114.9425
678.0413
1109.2528
2115.5679
869.5454
945.72409
623.28437
869.83634
847.98199
975.28328
853.49554
860.99522
957.43338
861.74089
451.30219
879.07991
696.97013
339.14898
953.44044
1217.6511
943.89449
951.7708
508.43345
552.35404
4377.2858
3876.6772
3439.0604
3430.5753
3353.4191
3187.9201
2891.0143
2974.0866
3053.9243
2904.7916
2584.3309
4178.8247
2805.5855
2539.908
1987.1969
2747.7618
1831.0984
3706.2179
2425.882
2306.1257
2444.2203
2416.1767
2152.7282
2182.68
2441.0376
2498.7079
2102.4811
1979.6127
2554.0074
2073.6404
2296.6213
2160.122
2094.2028
3567.527
2070.516
6012.9722
549.92669
530.56408
528.91623
547.23974
520.74785
528.04015
525.30599
518.30722
556.0284
551.63544
560.47827
562.68976
631.0006
621.40274
663.89566
648.43035
641.31557
551.56335
549.98084
581.9392
580.15575
537.41053
534.85153
548.21858
543.49584
566.52251
576.92501
568.922
581.97721
613.05295
613.13
613.6094
613.11697
671.40966
586.88055
620.64582
628.17483
589.30478
561.21919
572.05261
569.37476
557.41906
574.57475
585.28612
589.48415
581.22848
629.60217
631.1175
619.00115
611.7239
756.25278
1041.9591
1054.1403
867.90367
874.19908
683.32649
672.26724
623.5833
631.03938
1436.8923
1267.6392
974.60557
730.62108
1023.4294
720.60708
607.33298
599.2893
572.29179
578.91988
1527.1655
1444.6923
895.25037
1224.9251
714.15152
1101.7123
851.77992
694.341
603.1831
628.87708
625.90634
595.49564
1385.4586
925.9727
663.44146
653.91659
699.28779
701.17259
672.10335
672.33487
767.70475
715.05004
671.18568
921.489
976.19878
1381.4705
1236.805
538.07245
710.64382
712.34635
961.54666
609.83303
730.65035
723.49818
718.91965
831.93097
768.25614
367.14978
530.93503
718.06813
433.37449
538.0277
668.26283
712.98144
473.37207
653.76343
515.67679
549.8672
549.96265
515.93855
531.40341
531.53125
650.0268
650.46614
539.88215
538.09016
508.50939
544.45936
532.51117
508.62952
523.98811
523.36852
574.72377
522.45015
500.07387
574.05565
580.48832
526.33192
583.98953
501.37358
652.33152
579.03501
520.00927
660.01996
661.2084
599.85164
522.23483
672.54238
670.17857
636.8539
870.11667
569.0164
664.93151
659.86778
568.24455
553.30294
571.90599
570.1263
552.80438
572.39001
577.25308
580.03342
573.51615
707.05964
649.96917
655.4787
680.02663
1263.1311
751.17386
944.10834
969.16662
767.61726
1998.4158
1566.4456
1498.7856
1896.8741
646.34318
762.81296
1181.6878
746.67288
1120.8
625.92348
1893.2822
1489.7586
1642.5367
2092.6973
596.70669
663.33956
840.9201
1229.9094
647.46473
817.16411
1225.6637
590.51181
2626.8225
2499.0165
1458.0954
1224.6755
665.52395
752.57365
890.4884
672.62685
1205.4995
696.51131
834.63267
975.27764
1070.1082
667.42099
1053.2775
802.49917
3455.6412
785.03474
877.96478
1013.8572
964.35447
1281.7662
903.79128
1025.5424
964.24369
1410.9312
940.20305
705.67315
341.49406
964.44541
860.48092
544.00444
964.30554
719.69328
810.54025
447.41052
1205.9115
1123.2568
4292.2947
3859.6683
3437.7178
3473.6421
3558.0367
3455.2393
3136.3124
3056.6882
3127.0713
2953.2031
2527.536
2975.3951
2679.9686
2401.5564
2889.7532
4511.908
2260.808
2511.9667
2336.9715
2037.9337
2448.0157
2380.826
2129.2384
2112.8308
2390.7086
2519.0866
2041.2515
2164.1455
2270.7929
3047.8999
2482.4874
2126.6825
1968.8149
1783.3818
1596.6219
1489.1615
506.51558
505.92831
504.35465
511.13145
513.27569
576.84975
543.29522
526.47236
527.61516
544.62729
527.40501
520.43119
519.75408
527.70403
559.08355
567.62231
561.20387
551.85331
602.51998
595.70517
608.64383
612.2412
627.71142
551.30157
546.80749
581.09608
576.42293
537.40749
538.92444
546.83951
548.981
568.04746
567.79631
574.88857
569.66407
616.49359
628.28961
612.76788
630.74894
678.2322
585.95391
614.37494
620.60634
586.96498
546.9442
558.53844
566.18161
553.99788
577.81569
587.64804
583.80889
576.5177
620.60281
635.5103
636.85118
626.58586
784.76464
986.88356
813.72895
870.26637
1068.4216
668.55379
652.09792
624.50021
632.02214
1237.5023
1282.6336
1039.8418
757.80134
1030.8369
759.55482
613.80945
602.64025
569.04583
575.56216
1802.6326
1563.5677
809.16375
1033.6425
673.41994
1740.88
800.68903
648.20789
624.75771
618.67133
594.60041
604.25349
1366.2312
1542.1092
882.05358
813.44949
1777.5693
726.31432
1324.1044
1069.4693
759.06703
704.32745
656.15164
673.09273
664.23137
650.17431
719.67075
556.62475
721.21665
544.03891
727.52148
780.57345
732.9068
1267.8565
344.50321
638.13613
733.10701
522.4225
661.68996
739.35544
1009.5388
777.88617
330.23889
584.08538
355.40029
714.45009
659.43128
518.27004
553.91255
553.06939
517.45809
533.0893
534.23318
649.75319
649.69555
537.98385
509.15277
545.17777
546.30649
539.55441
509.83849
523.99102
524.36526
572.18463
587.81848
531.44972
501.07821
576.50499
524.91923
574.05573
501.37272
643.06321
570.63279
515.14109
645.62714
675.97792
581.38407
519.27567
675.56536
652.38846
575.61795
688.09707
596.72472
835.45811
589.2774
692.69659
694.82676
587.89684
563.76913
591.62551
578.79754
556.60212
573.73504
579.24597
580.55043
580.85551
615.9176
635.13578
635.81727
633.48115
1236.9735
750.09518
921.77181
929.74212
759.22966
1836.6472
1474.3925
1841.0683
1435.0459
619.35329
688.16784
1044.1381
716.85169
1154.556
628.05814
2279.4274
1719.6584
1560.6313
2183.9142
637.24526
741.49579
941.16052
1281.5392
908.54431
707.06297
1209.4516
613.89312
1839.7722
1149.4433
1439.9282
1826.5752
613.38222
645.75458
779.78823
914.969
1487.9694
652.65848
767.4254
927.87318
1187.0008
643.39797
2690.0666
3210.5665
1177.0798
718.27278
733.3156
809.53478
962.10589
1776.1776
795.71584
950.84473
897.9468
1100.5246
985.12755
1010.8045
709.11277
1008.7976
1122.7236
702.82811
873.87428
465.86407
875.64936
613.25548
1116.1366
692.104
4247.9319
3576.3466
3487.649
3512.8254
3494.1516
3491.3393
3181.4704
3133.6976
3293.7367
3147.256
2915.4006
2683.762
3288.2703
2803.7723
1822.4564
3482.6152
2292.7219
1489.9713
2154.4562
1921.0444
2252.0934
1482.4085
2006.8124
2368.1647
2662.8225
2406.3576
2069.549
2045.7567
1891.4606
2589.8551
1978.4601
2208.0901
1512.163
2868.3736
3021.2085
2043.8089
542.30151
506.8964
481.09102
489.54262
498.84278
498.3723
488.97764
506.2288
513.04652
512.04859
504.78779
491.76589
498.64738
498.11477
492.48755
537.58658
534.23197
540.95787
546.35112
576.1161
540.63172
524.51081
526.87427
544.139
530.66489
522.40068
520.0149
528.64085
563.98905
555.55499
547.78943
557.61271
605.50198
616.71241
611.3616
596.41092
621.71619
576.28209
550.065
575.8443
546.34008
534.56154
529.45423
543.67323
537.83788
577.83442
577.17553
575.39534
575.38054
613.9324
610.21443
619.99321
613.00134
630.73483
606.76326
626.38318
630.13001
600.48911
547.50047
556.80752
559.30523
546.25556
577.04557
582.02027
589.39859
576.05077
615.62609
631.3802
635.18926
622.65004
584.53256
783.79696
923.26202
1123.7549
889.08523
619.59954
666.84316
658.3599
629.99217
1243.5034
908.63096
709.9833
1032.185
739.25013
1233.869
598.73204
613.8672
577.73905
572.88705
1249.1873
1603.2267
1297.1915
839.74881
685.45015
854.87876
1080.1659
682.33276
616.44866
613.63575
590.40825
590.93617
3019.6967
1463.3644
744.46708
728.35911
907.69838
678.74754
2931.878
902.7565
707.78954
662.72811
674.8788
676.08415
659.5773
667.63833
725.22012
795.78177
815.40036
740.54444
2057.446
732.96189
754.13002
717.08634
738.79264
690.82718
357.46353
534.35814
704.87849
785.72705
484.04796
710.56851
587.7285
702.39929
1395.6426
399.20064
651.58543
520.18026
560.70357
561.3944
519.6765
534.64093
533.94343
650.15625
650.62148
541.87713
510.85212
551.61157
547.57021
539.33344
510.78099
525.67723
526.15289
530.77661
581.99981
501.61259
576.21583
586.70723
532.67645
597.82848
502.43766
632.56408
647.09378
600.25484
522.58544
626.7936
573.93631
517.12666
633.96343
634.06785
558.51055
658.61707
570.69638
641.50023
690.65526
790.17043
581.2958
675.95607
693.46485
591.64838
568.61887
588.65577
587.4932
566.31666
585.22823
599.3301
586.25395
575.58958
610.21777
617.80974
636.20492
631.56667
1149.4931
2218.6498
1493.0745
762.12372
914.50584
976.12065
798.17984
1468.3384
1988.9808
621.12884
695.74298
1078.2225
698.08092
1052.4243
622.82249
2168.4107
1624.7396
2276.0789
1605.7104
617.01393
660.85911
801.49892
1088.5695
919.45543
694.6814
1289.0995
620.61888
2174.3875
1427.4874
1514.548
2314.5666
636.31815
707.16446
902.76944
1051.6743
1077.7735
872.29149
1005.346
678.62299
1188.2248
631.01916
1614.9631
751.6798
1095.8123
1570.8049
757.07312
878.96301
976.77548
1823.5626
747.38351
852.53593
930.91505
865.62699
791.03149
813.22842
1447.5904
918.66231
926.72026
785.65747
1003.4221
1042.9093
1109.3265
1323.2254
592.06874
636.53177
4073.0324
2672.6361
3105.7559
3199.8399
3372.2864
3303.2081
3144.7335
3263.1278
3204.9954
3280.4032
2953.4611
2756.0115
3146.5188
3130.8303
2932.313
3165.8701
3958.004
2577.4613
2211.5804
1646.5794
1973.5895
1470.0184
2441.3661
1738.4243
773.78311
1212.8643
1499.2408
2030.3334
2653.8592
3432.7638
2514.9513
2191.9448
2230.8979
1284.141
3824.962
1516.9771
1396.935
542.44295
506.21583
503.83682
517.8099
519.53204
505.13145
481.34624
489.48259
489.239
498.74535
498.57185
505.48956
513.14608
511.22029
504.14505
467.72394
475.31822
475.71771
482.67427
482.30622
494.22282
500.34866
498.42106
492.14342
538.00903
544.62796
537.96461
533.5935
525.23705
531.88292
528.79192
520.44557
580.46395
579.15744
582.95379
589.48579
577.82325
541.80633
524.86465
540.8137
524.37985
523.12445
518.15631
520.26727
526.98274
582.25106
583.31052
572.5548
578.71595
605.85345
595.38957
594.3059
603.39387
594.31463
581.43974
563.66865
589.9565
599.74026
539.17041
531.5739
536.05407
527.19195
566.37896
572.86784
570.55476
574.16739
629.15002
619.93899
621.96914
613.85185
553.62245
570.69258
595.64711
610.14455
591.94931
566.42344
571.63069
567.15317
560.72639
567.88652
574.01342
577.83069
569.44612
641.92169
645.48003
645.12768
625.08651
537.96266
671.45694
636.99234
610.26355
638.45765
548.81684
566.36509
577.99949
564.91908
829.91592
674.89397
998.13662
1260.5416
943.00676
708.324
577.17714
622.71578
601.86763
587.50347
1478.1372
756.93452
1023.5753
666.62263
1179.3594
868.52025
674.71616
912.23616
610.75465
622.36353
598.78087
590.79053
1220.3209
2764.2761
1484.165
827.7543
759.94775
683.13859
830.87247
761.65882
1458.0139
679.39531
658.10008
655.85961
658.80173
650.33542
666.2856
611.7999
708.99654
685.71286
1649.1878
658.38865
699.44942
688.58685
787.77642
830.64521
827.45952
832.0431
606.35873
739.83646
730.35737
603.37733
420.65067
655.03064
660.59836
771.67205
622.53295
643.17628
532.78427
517.44834
552.83467
560.46378
519.41536
534.21087
648.74427
547.25255
511.24856
556.70842
556.43469
546.45006
511.64418
527.25325
526.21096
589.35449
532.62591
502.48936
587.93095
576.61997
532.09047
578.65711
503.00598
522.35406
585.82683
635.24135
620.76231
636.38125
608.01377
524.44666
656.96541
667.40139
596.85295
635.7926
564.71853
611.30178
633.95888
766.15187
576.6494
670.26156
696.84765
596.83397
558.43717
583.71563
586.22953
564.48135
588.05739
601.78059
593.72666
583.40889
616.38246
618.10838
610.98157
610.08592
927.36545
850.62171
709.00878
1235.8711
1462.3628
2042.3525
1659.3536
881.45825
733.7444
2233.0275
1695.7173
1035.5875
619.20128
664.58031
690.78871
1084.3532
627.39146
1620.671
2289.2684
632.65119
681.46809
848.7942
1253.3221
840.69709
687.01733
1161.372
631.59171
2397.3327
1844.9745
2192.6079
1656.5308
655.61554
671.58659
781.3008
909.02464
850.17314
853.92731
1020.3439
675.0796
1166.9048
627.92271
2590.4472
1083.9336
2827.4391
2419.7127
847.35769
985.4744
1088.6779
922.13607
826.808
959.58612
1150.4619
1080.0461
877.48216
972.85689
1795.8596
825.64708
843.24919
2179.2543
817.58029
1116.5955
936.28885
802.84762
1483.6532
1316.3549
3207.473
999.11818
2538.3674
2468.9589
2165.136
2338.385
2789.3381
2968.7196
3292.1393
2991.1796
2607.6799
3399.6266
2900.7466
3041.2643
2262.245
2052.9725
2537.8026
4735.7773
1792.1206
896.98249
879.72347
762.07436
1635.2965
2480.7212
2022.0339
2311.297
761.7947
766.69681
568.07374
860.80434
868.87775
1351.1942
1713.1801
2148.9148
3012.8461
5702.5833
3820.8094
2165.999
3307.4161
541.99986
517.2828
502.73499
506.24409
503.5516
517.91088
481.15463
498.70938
497.70751
488.97675
489.36484
508.46055
513.81606
513.82233
508.13015
468.08861
482.86157
476.06704
475.52641
482.52417
493.00976
491.56425
497.60073
499.04121
555.11698
571.26548
557.19135
545.91925
464.58737
469.87288
469.54307
464.14392
479.25559
480.69705
487.11598
485.52734
529.54454
534.71466
530.70152
524.90515
580.29285
583.55982
586.38122
585.46909
564.7441
574.99267
575.88576
563.62501
570.01734
540.16327
530.71359
551.95971
565.6208
525.86577
521.36599
521.0964
516.29856
569.23182
555.73764
559.6246
561.74846
630.36541
631.93328
620.42349
631.79291
542.10393
579.33724
559.48341
589.22123
569.01258
549.43568
541.81896
551.93233
559.29616
570.45471
576.36224
565.61598
560.91976
609.72112
642.10862
615.75514
640.51345
517.54863
535.94673
542.38893
554.38072
545.62075
553.75247
562.53184
571.67795
563.22629
580.61795
586.11118
581.12605
575.78944
627.56334
639.53675
638.55698
627.25547
507.75353
577.21526
606.26557
602.18238
574.08333
538.14223
522.02522
558.72447
535.37113
751.78399
683.62055
638.12247
602.49299
702.98215
610.36535
549.43856
563.9817
573.92284
557.50588
691.64808
784.81274
633.59129
824.83757
966.22806
776.11608
739.04758
658.71093
605.19048
622.19433
614.09607
608.57728
2470.3071
668.58899
689.6185
1425.9694
657.19474
1329.748
902.7202
768.77181
661.37161
520.45662
668.19762
684.59766
690.31355
668.05777
973.38719
822.52616
743.36098
684.87964
992.03889
775.16114
730.24903
678.69368
488.58255
621.73477
708.5469
505.58666
610.75815
691.56627
686.9741
834.95761
357.31835
576.94407
650.32331
378.26182
622.4171
516.52678
545.44911
557.44068
520.16567
646.00106
533.61882
533.68237
646.03441
509.92721
525.57522
539.18119
545.96677
552.73575
544.01842
511.05539
527.01225
585.26494
537.49857
502.46794
581.11059
587.20929
536.13966
596.26291
503.22359
520.03127
519.31811
634.17469
583.87152
524.28617
627.882
619.4755
525.04827
579.84771
630.14157
578.98579
644.32428
672.3736
602.62391
671.79764
621.60101
570.45879
701.25221
646.31643
663.5718
575.31321
557.25401
581.11456
587.24933
560.7651
600.52053
611.34865
610.68021
593.03943
629.95803
646.3778
618.56848
618.37004
679.98077
655.15352
690.60509
721.92174
769.99896
1460.5
1071.1839
1272.406
1011.5092
663.79365
972.30954
601.72323
1370.3104
1655.3606
1036.951
2267.9319
1846.148
647.82277
603.74229
1373.1526
1810.9804
1152.2326
791.80445
628.64716
662.75703
793.36252
668.23897
1217.1783
633.48737
1836.9101
2202.9436
727.58663
721.90457
842.24098
1034.6335
1302.6694
850.68687
966.62723
702.84878
1110.3849
691.85019
2938.9028
1887.9462
2424.4603
2359.6275
766.20812
876.86919
828.07442
756.7005
805.31412
955.79615
999.58289
1211.5542
922.19877
941.96785
1073.8341
921.61571
989.01442
1451.1247
948.13352
1158.1106
814.01482
1645.4833
1160.504
824.19802
3769.9881
1034.3378