/*--------------------------------*- C++ -*----------------------------------*\
  =========                 |
  \\      /  F ield         | OpenFOAM: The Open Source CFD Toolbox
   \\    /   O peration     | Website:  https://openfoam.org
    \\  /    A nd           | Version:  7
     \\/     M anipulation  |
\*---------------------------------------------------------------------------*/
FoamFile
{
    version     2.0;
    format      ascii;
    class       volScalarField;
    location    "2000";
    object      p;
}
// * * * * * * * * * * * * * * * * * * * * * * * * * * * * * * * * * * * * * //

dimensions      [0 2 -2 0 0 0 0];

internalField   nonuniform List<scalar> 
33730
(
-1.6065036e+183
-1.6176338e+183
-1.56463e+183
-1.6639896e+183
-1.5812159e+183
-1.5307714e+183
-1.5000493e+183
-1.5426224e+183
-1.6053965e+183
-1.6045123e+183
-1.595563e+183
-1.6063104e+183
-1.6179815e+183
-1.5660056e+183
-1.6026718e+183
-1.6493693e+183
-1.6887787e+183
-1.6422234e+183
-1.5858768e+183
-1.5692042e+183
-1.5459911e+183
-1.5415256e+183
-1.5802347e+183
-1.5830395e+183
-1.6731869e+183
-1.5950102e+183
-1.6295143e+183
-1.5425506e+183
-1.5787836e+183
-1.6297411e+183
-1.6794011e+183
-1.6601209e+183
-1.6207454e+183
-1.4542976e+183
-1.27082e+183
-1.2938795e+183
-1.5246457e+183
-1.430761e+183
-1.5462208e+183
-1.608347e+183
-1.6101077e+183
-1.6069243e+183
-1.6130535e+183
-1.6427943e+183
-1.5698954e+183
-1.6248582e+183
-1.6619785e+183
-1.6789428e+183
-1.6325934e+183
-1.6320536e+183
-1.562601e+183
-1.4772715e+183
-1.6244798e+183
-1.6356203e+183
-1.7302395e+183
-1.7123215e+183
-1.6448469e+183
-1.6691039e+183
-1.6366395e+183
-1.500425e+183
-1.5584913e+183
-1.5375592e+183
-1.5406024e+183
-1.5836711e+183
-1.5836355e+183
-1.5468478e+183
-1.5418914e+183
-1.5805133e+183
-1.5847701e+183
-1.6595185e+183
-1.6673263e+183
-1.6289601e+183
-1.6313424e+183
-1.5555345e+183
-1.6649918e+183
-1.5854208e+183
-1.6651577e+183
-1.6575208e+183
-1.2966478e+183
-1.6264251e+183
-1.1998978e+183
-1.6158155e+183
-1.3834255e+183
-1.6150496e+183
-1.5047162e+183
-1.6778211e+183
-1.6743979e+183
-1.6203564e+183
-1.3754753e+183
-3.0340334e+182
-1.1955964e+183
-1.3365742e+183
-1.5451253e+183
-1.3894859e+183
-1.4080111e+183
-1.5738726e+183
-1.6097184e+183
-1.6114223e+183
-1.6067819e+183
-1.6128119e+183
-1.5823775e+183
-1.6493139e+183
-1.6568147e+183
-1.7174271e+183
-1.6997635e+183
-1.6606343e+183
-1.6878634e+183
-1.7308965e+183
-1.6486055e+183
-1.6922412e+183
-1.5642139e+183
-1.5160158e+183
-1.6243778e+183
-1.7061514e+183
-1.6863284e+183
-1.7011556e+183
-1.6769367e+183
-1.6713215e+183
-1.6261266e+183
-1.5943844e+183
-1.5554227e+183
-3.2248547e+182
-1.4669568e+183
-4.3639898e+182
-1.7377692e+183
-5.0421015e+182
-1.5185167e+183
-1.6640129e+183
-1.6455203e+183
-1.6525439e+183
-1.6250603e+183
-1.623766e+183
-1.6653495e+183
-1.6462274e+183
-1.5426588e+183
-1.5261841e+183
-1.5761641e+183
-1.5809251e+183
-1.5330325e+183
-1.537416e+183
-1.5400712e+183
-1.5820576e+183
-1.5823168e+183
-1.5478423e+183
-1.5427577e+183
-1.5818149e+183
-1.5862173e+183
-1.6134193e+183
-1.6560734e+183
-1.676873e+183
-1.6265483e+183
-1.6000717e+183
-1.6270668e+183
-1.6983811e+183
-1.5390058e+183
-1.618017e+183
-1.5757745e+183
-1.6263038e+183
-1.6222742e+183
-1.2796971e+183
-1.5722704e+183
-1.5380268e+183
-1.3499572e+183
-1.6055446e+183
-1.6537039e+183
-1.6566491e+183
-1.433215e+183
-1.6281315e+183
-1.4261253e+183
-1.2125996e+183
-1.6254446e+183
-1.3441235e+183
-1.3311576e+183
-1.7388841e+183
-3.7579206e+182
-1.6825062e+183
-1.6753314e+183
-1.6223644e+183
-1.3702329e+183
-1.3875506e+182
-1.1884544e+183
-4.8866101e+182
-1.3585552e+183
-1.5442783e+183
-1.3178488e+183
-1.4285754e+183
-1.4059234e+183
-1.5779625e+183
-1.6098497e+183
-1.6115428e+183
-1.6066701e+183
-1.6127436e+183
-1.3028842e+183
-1.573946e+183
-1.6200669e+183
-1.570653e+183
-1.6129371e+183
-1.5783541e+183
-1.6411445e+183
-1.6410847e+183
-1.7023807e+183
-1.7203687e+183
-1.6516906e+183
-1.7981858e+183
-1.6862052e+183
-1.7363772e+183
-1.7288141e+183
-1.6709504e+183
-1.7298079e+183
-1.7438988e+183
-1.7128635e+183
-1.7105267e+183
-1.6734313e+183
-1.681157e+183
-1.6922857e+183
-1.6170201e+183
-1.6545085e+183
-1.5586846e+183
-4.3625819e+182
-1.7632504e+183
-2.7411924e+183
-1.7117399e+183
-1.7296061e+183
-1.6667466e+183
-1.6506697e+183
-1.6500183e+183
-1.6363344e+183
-1.5982677e+183
-1.5434015e+183
-1.6068759e+183
-5.1841814e+182
-1.5429288e+183
-1.3444369e+182
-3.0926938e+182
-1.2429242e+182
-4.4099148e+182
-1.4780726e+182
-1.604457e+183
-1.489845e+183
-1.6335053e+183
-1.5874483e+183
-1.5827211e+183
-1.5863151e+183
-1.5712918e+183
-1.9620004e+183
-1.6863631e+183
-1.6028157e+183
-1.5951656e+183
-1.6668877e+183
-1.4560725e+183
-1.5216146e+183
-1.5096514e+183
-1.5550896e+183
-1.5688585e+183
-1.5195102e+183
-1.5259655e+183
-1.5737303e+183
-1.5803776e+183
-1.5328596e+183
-1.5381352e+183
-1.5409463e+183
-1.5836795e+183
-1.5835251e+183
-1.5479731e+183
-1.5428805e+183
-1.5819748e+183
-1.5863829e+183
-1.5625555e+183
-1.5258216e+183
-1.5805671e+183
-1.5936751e+183
-1.492369e+183
-1.5799102e+183
-1.5616663e+183
-1.5761566e+183
-1.5981956e+183
-1.5155571e+183
-1.3816803e+183
-1.6165305e+183
-1.5953731e+183
-1.6196564e+183
-1.5417697e+183
-1.6658894e+183
-1.5276296e+183
-1.2422696e+183
-1.4808694e+183
-3.7571485e+182
-1.6275528e+183
-1.6235473e+183
-1.333553e+183
-1.3036535e+183
-1.5856048e+183
-1.3375559e+183
-1.3084024e+183
-1.4797227e+183
-1.6100744e+183
-1.6554246e+183
-1.6592546e+183
-1.4601769e+183
-1.6284e+183
-3.5978822e+182
-1.4032363e+183
-1.2242408e+183
-1.6568322e+183
-1.5000885e+183
-2.9790361e+182
-1.3288319e+183
-1.7298002e+183
-1.018951e+182
-1.6827808e+183
-1.6754959e+183
-1.6226261e+183
-2.2700187e+182
-1.2120863e+183
-1.3397169e+183
-1.5437613e+183
-1.312626e+183
-1.2909244e+183
-1.382203e+183
-1.5777516e+183
-1.3045149e+183
-1.2961096e+183
-1.2804527e+183
-1.5098789e+183
-1.5644646e+183
-1.557331e+183
-1.5980784e+183
-1.6065616e+183
-1.5646508e+183
-1.627852e+183
-1.5752729e+183
-1.6207387e+183
-1.5829579e+183
-1.5905172e+183
-1.6045331e+183
-1.6163291e+183
-1.6646759e+183
-1.6272663e+183
-1.6403564e+183
-1.5756905e+183
-1.4790509e+183
-1.6342901e+183
-1.6528497e+183
-1.7174091e+183
-1.7671412e+183
-1.7391532e+183
-1.7839798e+183
-1.666186e+183
-1.8372062e+183
-1.6722145e+183
-1.7366904e+183
-1.7495861e+183
-1.6741167e+183
-1.7736228e+183
-1.7354005e+183
-1.6622652e+183
-1.7166777e+183
-1.727374e+183
-1.6486247e+183
-1.6758849e+183
-1.64686e+183
-1.6383055e+183
-1.6247492e+183
-1.6462223e+183
-1.5456103e+183
-1.9394507e+182
-5.022569e+182
-2.9252975e+183
-1.6742519e+183
-1.7328459e+183
-1.6184742e+183
-1.6280741e+183
-1.591166e+183
-1.6532212e+183
-1.5619646e+183
-1.5640851e+183
-1.5502522e+183
-1.5407533e+183
-1.4941355e+183
-1.4675602e+183
-1.5704272e+183
-1.6579791e+182
-1.5215934e+183
-1.1515774e+182
-1.1705688e+182
-1.5801321e+183
-1.4886191e+183
-1.6309256e+183
-1.5825832e+183
-1.563913e+183
-1.5853048e+183
-1.494559e+183
-1.5367704e+183
-1.6416193e+183
-1.5058329e+183
-1.4192329e+183
-2.1763018e+183
-1.5788389e+183
-1.5934994e+183
-1.5622027e+183
-1.4411219e+183
-1.4233494e+183
-1.4296623e+183
-1.4746185e+183
-1.4667966e+183
-1.4968548e+183
-1.4892443e+183
-1.528107e+183
-1.5420739e+183
-1.5002344e+183
-1.5095681e+183
-1.5543214e+183
-1.5666056e+183
-1.5192143e+183
-1.5272428e+183
-1.5752639e+183
-1.5820539e+183
-1.5340468e+183
-1.5382591e+183
-1.5410643e+183
-1.5838738e+183
-1.5837167e+183
-1.5581397e+183
-1.5348048e+183
-1.5411802e+183
-1.5460641e+183
-1.5318409e+183
-1.6049983e+183
-1.5112195e+183
-1.5394347e+183
-1.5640551e+183
-1.2662656e+183
-1.34101e+183
-1.4875092e+183
-1.5687523e+183
-1.2400596e+183
-1.541554e+183
-1.5756653e+183
-1.5564863e+183
-1.5676068e+183
-1.5945183e+183
-3.6389531e+182
-2.0306159e+182
-1.6179926e+183
-1.5964273e+183
-1.5625148e+183
-1.6183635e+183
-1.3791701e+183
-1.5923879e+183
-1.6621778e+183
-1.1035535e+183
-1.1009538e+183
-2.9468433e+182
-9.925629e+181
-1.6277279e+183
-1.6237462e+183
-1.3168263e+183
-1.4510687e+183
-1.3070884e+183
-1.5948006e+183
-1.3222989e+183
-1.3079983e+183
-1.4004477e+183
-1.5079246e+183
-1.6195302e+183
-1.6555298e+183
-1.6594048e+183
-9.6612168e+181
-1.6044688e+183
-1.416553e+183
-1.6593608e+183
-1.4223256e+183
-2.8424514e+182
-1.2263179e+182
-1.7291037e+183
-1.2023605e+183
-1.297703e+183
-1.3383585e+183
-1.2811112e+183
-1.285138e+183
-1.3780431e+183
-1.2857946e+183
-1.279446e+183
-4.4289827e+182
-1.4993902e+183
-1.5281114e+183
-1.4822586e+183
-1.5215353e+183
-1.4882789e+183
-1.547114e+183
-1.5423119e+183
-1.5755607e+183
-1.5890385e+183
-1.5512194e+183
-1.5603303e+183
-1.6031084e+183
-1.6131309e+183
-1.5682992e+183
-1.6299665e+183
-1.5766308e+183
-1.6230301e+183
-1.5842502e+183
-1.5464442e+183
-1.561356e+183
-1.5421484e+183
-1.5826333e+183
-1.5844331e+183
-1.4467378e+183
-1.4460353e+183
-1.4468335e+183
-1.469884e+183
-1.6048858e+183
-1.6221584e+183
-1.5869133e+183
-1.6692011e+183
-1.6687292e+183
-1.6310194e+183
-1.547239e+183
-1.4225811e+183
-1.1719661e+183
-1.5585937e+183
-1.6561772e+183
-1.7842449e+183
-1.7217982e+183
-1.7378189e+183
-1.7444343e+183
-1.825878e+183
-1.7008283e+183
-1.6700227e+183
-6.0863703e+182
-1.2908885e+183
-4.3279718e+182
-5.3515651e+182
-1.674488e+183
-1.804517e+183
-1.680256e+183
-1.7359633e+183
-1.8740013e+183
-1.7170179e+183
-1.7319034e+183
-1.6350807e+183
-1.6338402e+183
-1.6761712e+183
-1.6437096e+183
-1.634485e+183
-1.6271743e+183
-1.6462236e+183
-1.5253474e+183
-1.5018462e+182
-1.6713619e+183
-1.6167714e+183
-1.6249426e+183
-1.5709656e+183
-1.6555213e+183
-1.5413757e+183
-1.5103962e+183
-1.3689185e+183
-1.5186157e+183
-1.6196364e+183
-1.5235605e+183
-1.3558744e+183
-1.4664363e+183
-1.3583238e+183
-1.6184508e+183
-1.572993e+183
-1.5005883e+183
-1.5775551e+183
-1.6308909e+183
-1.558948e+183
-1.5493056e+183
-1.4999121e+183
-1.5576076e+183
-1.6423326e+183
-1.4482822e+183
-1.3447135e+183
-1.3715394e+183
-1.4395511e+183
-1.4527606e+183
-1.2876715e+183
7.4966679e+181
-4.0149313e+182
-1.592837e+183
-1.5601399e+183
-1.3584586e+183
-1.4252086e+183
-1.4170497e+183
-1.4094764e+183
-1.459266e+183
-1.4502186e+183
-1.4227315e+183
-1.4288948e+183
-1.4730429e+183
-1.4654581e+183
-1.4803392e+183
-1.4687375e+183
-1.503534e+183
-1.5156294e+183
-1.4791445e+183
-1.4884221e+183
-1.5263783e+183
-1.5402681e+183
-1.4992844e+183
-1.510838e+183
-1.5561216e+183
-1.5684872e+183
-1.5204322e+183
-1.5273895e+183
-1.5754672e+183
-1.5822672e+183
-1.5341961e+183
-1.5247671e+183
-1.6587512e+183
-1.5267563e+183
-1.5197948e+183
-1.5381983e+183
-1.5169835e+183
-1.6287213e+183
-1.547077e+183
-1.5604515e+183
-1.3472333e+183
-1.5843407e+183
-1.3492563e+183
-1.5431503e+183
-1.5303722e+183
-1.5424884e+183
-1.3868756e+183
-1.4990554e+183
-1.5404077e+183
-1.5570205e+183
-1.1443185e+183
-1.236394e+183
-1.4473732e+183
-4.209976e+182
-1.5571393e+183
-1.1530619e+183
-1.3877661e+183
-1.5332647e+183
-1.576653e+183
-1.5572448e+183
-1.5669174e+183
-1.5941955e+183
-9.2439447e+181
-5.961596e+181
-1.6181995e+183
-1.5965593e+183
-1.4482205e+183
-1.5659332e+183
-1.6182393e+183
-1.5403585e+183
-1.4005989e+183
-1.6048452e+183
-1.6618856e+183
-2.1752347e+182
-1.0907344e+183
-5.2357984e+181
-1.3168811e+183
-1.4540509e+183
-1.4763305e+183
-1.5955809e+183
-1.394035e+183
-1.5207697e+183
-1.5043214e+183
-1.6202664e+183
-1.6458332e+183
-4.834811e+182
-1.4182158e+183
-1.4147133e+183
-4.7758385e+182
-4.071223e+181
-5.0635071e+182
-4.061606e+182
-1.7494167e+182
-1.48569e+183
-1.4709628e+183
-1.5088423e+183
-1.51605e+183
-1.4771363e+183
-1.4368563e+183
-1.4426273e+183
-1.4523669e+183
-1.4462481e+183
-1.5272164e+183
-1.4806131e+183
-1.5204423e+183
-1.4864799e+183
-1.5250019e+183
-1.5228723e+183
-1.5475527e+183
-1.5632344e+183
-1.5340049e+183
-1.5426126e+183
-1.5760296e+183
-1.5908915e+183
-1.5524071e+183
-1.561574e+183
-1.6051739e+183
-1.6154864e+183
-1.5695832e+183
-1.6302102e+183
-1.5767939e+183
-1.6232923e+183
-1.5844097e+183
-1.5244904e+183
-1.5365468e+183
-1.5225388e+183
-1.5043242e+183
-1.5438707e+183
-1.4107983e+183
-1.3492223e+183
-1.4707113e+183
-1.4226148e+183
-1.5556913e+183
-1.5350853e+183
-1.4595193e+183
-1.5734737e+183
-1.5090078e+183
-1.5800334e+183
-1.3240483e+183
-1.344357e+183
-1.2774626e+183
-1.2928938e+183
-1.6059156e+183
-1.6044436e+183
-1.6213593e+183
-1.4634198e+183
-1.6699675e+183
-1.6727275e+183
-1.5400466e+183
-1.6330764e+183
-1.4373867e+183
-2.2573072e+182
-3.1432848e+182
-3.5731712e+182
-1.6565431e+183
-1.7994587e+183
-1.716951e+183
-1.7222815e+183
-4.2754322e+182
-1.7450252e+183
-1.8440984e+183
-1.7644269e+183
-1.3582508e+183
-1.6704465e+183
-2.0771837e+182
-1.2599154e+183
-1.1329121e+182
-1.8074159e+182
-1.8065189e+183
-1.5469285e+183
-1.5092728e+183
-1.9101067e+183
-1.7320639e+183
-1.5513744e+183
-1.4075139e+183
-1.6338769e+183
-1.508199e+183
-1.616857e+183
-1.570838e+183
-1.5414979e+183
-1.3687216e+183
-1.3714202e+183
-1.5700362e+183
-1.6094951e+183
-1.3204483e+183
-1.0442906e+183
-1.3723366e+183
-1.506419e+183
-5.3475467e+182
-1.0989288e+183
-1.4708127e+183
-1.4453801e+183
-1.6431323e+183
-1.5734781e+183
-1.4878469e+183
-1.5410311e+183
-1.5761915e+183
-1.5942963e+183
-1.6044806e+183
-1.6270801e+183
-1.3095414e+183
-1.2696699e+183
-1.2030378e+183
-1.5366559e+183
-3.1951783e+182
-1.3934013e+183
-1.3473712e+183
-1.1418111e+183
-1.4486368e+183
-1.2801097e+183
1.837496e+182
-1.4288008e+182
-1.3468718e+183
-1.3697507e+183
-1.3281262e+183
-1.3762914e+183
-1.3337181e+183
-1.4120326e+183
-1.4022634e+183
-1.3945972e+183
-1.441943e+183
-1.4328819e+183
-1.4162207e+183
-1.4087793e+183
-1.4575881e+183
-1.4487323e+183
-1.4229645e+183
-1.4290342e+183
-1.4734982e+183
-1.4660516e+183
-1.4685927e+183
-1.4520756e+183
-1.4855317e+183
-1.4949577e+183
-1.4603208e+183
-1.468198e+183
-1.5024492e+183
-1.5138803e+183
-1.4783274e+183
-1.489514e+183
-1.5279005e+183
-1.5417069e+183
-1.5005375e+183
-1.5109913e+183
-1.5563236e+183
-1.5687128e+183
-1.5205806e+183
-1.4912968e+183
-1.6137432e+183
-1.5234025e+183
-1.4872098e+183
-1.5045875e+183
-1.5295872e+183
-1.4936092e+183
-1.4459528e+183
-1.5499356e+183
-1.6453361e+183
-1.5253203e+183
-1.5154693e+183
-1.3905463e+183
-1.5053073e+183
-1.3667315e+183
-1.484193e+183
-1.5600026e+183
-1.5560225e+183
-1.5393704e+183
-1.4408835e+183
-1.3366047e+183
-1.5367816e+183
-1.3144995e+183
-1.5439089e+183
-1.5314058e+183
-3.9349603e+182
-2.1342872e+183
-1.3710348e+183
-1.4939464e+183
-1.5395562e+183
-1.5558883e+183
-1.1391389e+183
-1.2293053e+183
-1.4308085e+183
-1.4634361e+183
-1.2523601e+182
-1.5700791e+183
-1.1493447e+183
-1.2681564e+183
-1.4301391e+183
-1.5459132e+183
-1.576776e+183
-1.5573502e+183
-1.5668573e+183
-1.594154e+183
-1.4557393e+183
-1.4641238e+183
-1.5659741e+183
-1.5553495e+183
-3.3318374e+182
-1.3972762e+183
-1.6056269e+183
-6.9935711e+181
-1.4566227e+183
-1.5437245e+183
-1.4783009e+183
-1.5237436e+183
-1.4883105e+183
-1.5040566e+183
-2.1118819e+182
-4.4790628e+182
-1.4809721e+183
-1.4698463e+183
-1.4573951e+183
-1.4928921e+183
-1.501933e+183
-1.4648004e+183
-1.4309881e+183
-1.424308e+183
-1.4401715e+183
-1.4329692e+183
-1.4690444e+183
-1.432459e+183
-1.5068627e+183
-1.5142643e+183
-1.4751177e+183
-1.4380099e+183
-1.5275482e+183
-1.4805535e+183
-1.5208084e+183
-1.4864018e+183
-1.5078159e+183
-1.535233e+183
-1.5040671e+183
-1.525759e+183
-1.513495e+183
-1.5216881e+183
-1.5457089e+183
-1.5614624e+183
-1.5329689e+183
-1.5434454e+183
-1.5772104e+183
-1.5924519e+183
-1.5533956e+183
-1.561725e+183
-1.6054197e+183
-1.6157558e+183
-1.5697406e+183
-1.5247375e+183
-1.5305274e+183
-1.5343846e+183
-1.5353291e+183
-1.5341896e+183
-1.5135295e+183
-1.3766184e+183
-1.4531509e+183
-1.3622967e+183
-1.535077e+183
-1.5149837e+183
-1.4463771e+183
-1.5029608e+183
-1.3696145e+183
-1.5388205e+183
-1.227291e+183
-1.1698805e+183
-1.3163118e+183
-1.2751366e+183
-1.5552784e+183
-1.5369265e+183
-1.4363918e+183
-1.2881475e+183
-1.5725726e+183
-1.5080689e+183
-1.3480082e+183
-1.5795667e+183
-1.6126904e+183
-1.5900448e+183
-1.2410264e+183
-1.2153944e+183
-1.6060429e+183
-1.572579e+183
-1.5008381e+183
-1.6212818e+183
-1.3318915e+183
-1.6700437e+183
-1.6520062e+183
-1.5683304e+183
-3.7672069e+182
-1.633317e+183
-1.427413e+183
-2.4445528e+181
-1.2613103e+182
-8.2128223e+181
-1.8000992e+183
-1.6404667e+183
-3.7866075e+182
-1.115265e+182
-1.8449689e+183
-1.7018583e+183
-4.2917252e+182
-1.3288953e+183
-1.5324669e+183
-4.5419968e+182
-1.4957558e+183
-1.5423274e+183
-1.488394e+183
-1.3824942e+183
-1.497459e+183
-1.5624266e+183
-1.5462254e+183
-1.4147797e+183
-1.5184009e+183
-1.584962e+183
-1.1162914e+183
-1.0723312e+183
-1.6564234e+183
-1.708576e+183
-2.6843224e+182
-2.0736314e+182
-3.6580037e+182
-5.1964667e+182
-1.9356205e+182
-1.0819777e+183
-1.4718655e+183
-1.4575623e+183
-1.4861257e+183
-1.5176134e+183
-1.4416959e+183
-1.4936993e+183
-1.5638326e+183
-1.5749346e+183
-1.4490299e+183
-1.4905512e+183
-1.4606835e+183
-1.5873445e+183
-2.533544e+182
-1.1710237e+183
-1.6931527e+182
-3.2860704e+182
-7.3616894e+181
-1.406893e+183
-1.3477928e+183
-1.1256048e+183
-1.3361444e+183
-1.31743e+183
-1.3229172e+183
-1.3635458e+183
-1.3570982e+183
-1.3678466e+183
-1.3272532e+183
-1.3742829e+183
-1.3327957e+183
-1.4021732e+183
-1.3885947e+183
-1.382042e+183
-1.4256482e+183
-1.4183315e+183
-1.4011632e+183
-1.3935541e+183
-1.4401396e+183
-1.4312344e+183
-1.416417e+183
-1.4090099e+183
-1.4581573e+183
-1.4492705e+183
-1.4229974e+183
-1.4290628e+183
-1.4735691e+183
-1.4661287e+183
-1.4608978e+183
-1.4376241e+183
-1.4653793e+183
-1.4759034e+183
-1.4449065e+183
-1.4513659e+183
-1.4842782e+183
-1.4935048e+183
-1.459348e+183
-1.4691124e+183
-1.5037466e+183
-1.5151592e+183
-1.4792148e+183
-1.4896435e+183
-1.5280709e+183
-1.5418914e+183
-1.5006761e+183
-1.4867918e+183
-1.345221e+183
-1.3997907e+183
-1.3591521e+183
-1.4569373e+183
-1.4727181e+183
-1.4763587e+183
-1.4677883e+183
-1.4740949e+183
-1.5772394e+183
-1.4472165e+183
-1.4819092e+183
-1.5004612e+183
-1.5158983e+183
-1.5134125e+183
-1.4866707e+183
-1.4663714e+183
-1.2498813e+183
-1.4867703e+183
-3.7240857e+182
-1.526937e+183
-1.5165089e+183
-1.3853585e+183
-1.3004408e+183
-1.4943122e+183
-1.1947504e+183
-1.7302923e+183
-1.5766007e+183
-3.7023204e+182
-1.5555132e+183
-1.5394905e+183
-5.8040818e+182
-1.4113406e+183
-1.3349239e+183
-1.5468656e+183
-1.3173179e+183
-1.5440114e+183
-1.5315225e+183
-1.2149139e+182
-2.2667191e+183
-1.3351878e+183
-1.3391478e+183
-1.4890674e+183
-1.5394404e+183
-1.5558172e+183
-1.4317627e+183
-1.4714318e+183
-1.4523898e+183
-1.5704414e+183
-1.2585398e+183
-1.4637001e+183
-1.4312987e+183
-1.5472626e+183
-1.4589481e+183
-1.4219361e+183
-1.4651703e+183
-8.4320684e+181
-2.3734169e+182
-1.398383e+183
-1.5519411e+183
-1.5496631e+183
-1.4871393e+183
-1.483545e+183
-1.5591859e+183
-1.4569898e+183
-1.4433488e+183
-1.4765783e+183
-1.4849394e+183
-1.4504227e+183
-1.4178206e+183
-1.4115124e+183
-1.4265894e+183
-1.4199768e+183
-1.4555068e+183
-1.4202945e+183
-1.4906303e+183
-1.4994671e+183
-1.4626806e+183
-1.426726e+183
-1.3887463e+183
-1.3828371e+183
-1.4689583e+183
-1.4294654e+183
-1.5070958e+183
-1.514505e+183
-1.4750143e+183
-1.4349116e+183
-1.5276092e+183
-1.4805566e+183
-1.52087e+183
-1.4864043e+183
-1.4999518e+183
-1.4915601e+183
-1.5150413e+183
-1.5197849e+183
-1.4976198e+183
-1.5334955e+183
-1.5033675e+183
-1.5251239e+183
-1.5120872e+183
-1.5222111e+183
-1.5461611e+183
-1.5620737e+183
-1.5334982e+183
-1.5435594e+183
-1.5773556e+183
-1.5926438e+183
-1.5535248e+183
-1.5524111e+183
-1.5438894e+183
-1.5526856e+183
-1.5237118e+183
-1.5312125e+183
-1.4562831e+183
-1.4299926e+183
-1.41823e+183
-1.3876182e+183
-1.5323544e+183
-1.5317886e+183
-1.5175313e+183
-1.5428832e+183
-1.5223416e+183
-1.5373281e+183
-1.4080706e+183
-1.2622433e+183
-1.3424374e+183
-1.2037232e+183
-1.5342275e+183
-1.4186311e+183
-1.5137992e+183
-1.1092998e+183
-1.5012302e+183
-1.3640808e+183
-1.071027e+183
-1.5377463e+183
-1.2089454e+183
-1.118578e+183
-3.5458072e+182
-1.2961807e+183
-1.5552311e+183
-1.5366524e+183
-1.4651561e+183
-1.2350066e+183
-3.7682676e+182
-1.5724385e+183
-1.5193908e+183
-1.3599386e+183
-1.3048411e+183
-1.5795836e+183
-1.6553455e+183
-1.6249971e+183
-1.2389871e+183
-1.2116005e+183
-1.5700511e+183
-1.3968443e+183
-1.3725166e+183
-1.3200338e+183
-1.6500375e+183
-1.4683777e+183
-1.4833836e+183
-1.1533574e+182
-1.6315729e+183
-2.1050589e+182
-1.0425678e+182
-1.6950519e+183
-2.4364081e+182
-1.1894962e+182
-3.6743749e+182
-2.2369836e+182
-1.4991381e+183
-1.4888306e+183
-1.4990028e+183
-1.5631386e+183
-1.7284008e+183
-1.5609392e+183
-1.6118892e+183
-1.5148398e+183
-1.5295391e+183
-1.2006499e+183
-1.3865863e+183
-1.4966033e+183
-2.3949362e+182
-1.6020598e+182
-1.0466902e+183
-5.3909788e+182
-7.514444e+181
-7.6524618e+181
-1.0066701e+182
-1.9249829e+182
-1.4809902e+183
-1.4954379e+183
-1.3872865e+183
-1.3548418e+183
-1.2007282e+183
-1.383361e+183
-1.2943118e+183
-1.435103e+183
-1.4832124e+183
-1.3603117e+183
-3.1972562e+182
-2.9941613e+182
-1.3053494e+183
-3.8892605e+182
-7.8333673e+181
-1.1650046e+183
-5.6083906e+181
-7.7860408e+181
-1.3072478e+183
-1.3457619e+183
-1.3515939e+183
-1.3123011e+183
-1.316435e+183
-1.3218917e+183
-1.3614165e+183
-1.3550622e+183
-1.3678935e+183
-1.3272377e+183
-1.3742644e+183
-1.332715e+183
-1.3943836e+183
-1.3767446e+183
-1.3720101e+183
-1.4123434e+183
-1.4065895e+183
-1.3872199e+183
-1.3807844e+183
-1.4236046e+183
-1.4165383e+183
-1.4012856e+183
-1.3936778e+183
-1.4405353e+183
-1.4316291e+183
-1.4164465e+183
-1.4090404e+183
-1.4582286e+183
-1.4493385e+183
-1.4467838e+183
-1.4271141e+183
-1.4541219e+183
-1.4581246e+183
-1.4324213e+183
-1.4351208e+183
-1.4619547e+183
-1.4737179e+183
-1.4432107e+183
-1.4522551e+183
-1.4855255e+183
-1.4948258e+183
-1.4602332e+183
-1.469229e+183
-1.5039017e+183
-1.515313e+183
-1.4793301e+183
-1.4763949e+183
-1.3457137e+183
-1.3736979e+183
-1.4191031e+183
-1.4147289e+183
-1.4742492e+183
-1.4840227e+183
-1.4675595e+183
-1.4690521e+183
-1.1235503e+183
-1.12985e+183
-8.1642726e+182
-1.3996661e+183
-1.489245e+183
-1.4463518e+183
-1.4651035e+183
-1.4696264e+183
-1.4555116e+183
-1.4658092e+183
-3.4008666e+182
-4.0229225e+182
-1.4824584e+183
-1.5012388e+183
-1.4748143e+183
-1.5162569e+183
-1.3645363e+183
-1.4255213e+183
-1.4853316e+183
-1.3305414e+183
-1.0579702e+183
-3.7863328e+182
-9.0911427e+181
-1.5271342e+183
-1.5166621e+183
-1.3941467e+183
-1.2381654e+183
-1.3810047e+183
-1.5066758e+183
-4.0060107e+182
-1.293136e+183
-1.7965416e+183
-1.5663811e+183
-1.0132356e+182
-1.5555139e+183
-1.5395239e+183
-2.4364165e+182
-1.1481858e+183
-1.4325952e+183
-1.5479503e+183
-1.3318528e+183
-1.2942471e+183
-1.3254731e+183
-1.4885382e+183
-1.4714996e+183
-7.2240651e+182
-1.4479346e+183
-1.4702658e+183
-1.4087093e+183
-1.4318637e+183
-1.4195253e+183
-1.4201527e+183
-6.6494925e+181
-2.5635687e+182
-7.3717399e+181
-1.4479106e+183
-1.4704015e+183
-1.4320667e+183
-1.4643601e+183
-1.4376435e+183
-1.4065091e+183
-1.4015907e+183
-1.4099916e+183
-1.415056e+183
-1.441738e+183
-1.407843e+183
-1.4746864e+183
-1.4826363e+183
-1.4485133e+183
-1.4139781e+183
-1.3771035e+183
-1.3715012e+183
-1.4554731e+183
-1.4175805e+183
-1.3780247e+183
-1.4908157e+183
-1.4995912e+183
-1.4237613e+183
-1.4625913e+183
-1.3836751e+183
-1.4689605e+183
-1.4291601e+183
-1.507147e+183
-1.5145573e+183
-1.4750151e+183
-1.4345766e+183
-1.4982467e+183
-1.4853171e+183
-1.514638e+183
-1.513186e+183
-1.4881318e+183
-1.4913409e+183
-1.5155994e+183
-1.5204127e+183
-1.4971642e+183
-1.533695e+183
-1.5038627e+183
-1.525524e+183
-1.5124741e+183
-1.5222922e+183
-1.5462323e+183
-1.5621647e+183
-1.5335869e+183
-1.5771223e+183
-1.5365065e+183
-1.5430049e+183
-1.5412458e+183
-1.5416623e+183
-1.5106306e+183
-1.4499261e+183
-1.5153121e+183
-1.6320042e+183
-1.5409232e+183
-1.5584169e+183
-1.4478879e+183
-1.54303e+183
-1.4688323e+183
-1.5347869e+183
-1.2898104e+183
-1.2562585e+183
-1.2695678e+183
-1.2543865e+183
-1.5328729e+183
-1.4995342e+183
-1.5344179e+183
-1.3698368e+183
-1.5405318e+183
-1.5466739e+183
-1.3005458e+183
-1.5373578e+183
-2.6885095e+182
-1.3513262e+183
-2.8719907e+182
-1.241966e+183
-1.534151e+183
-1.4636232e+183
-1.155292e+183
-1.5135857e+183
-9.1990724e+182
-1.500921e+183
-1.3926169e+183
-1.1011524e+183
-3.0746357e+182
-1.5376317e+183
-1.211389e+183
-1.1156091e+183
-1.053321e+182
-1.3012743e+183
-1.4678816e+183
-1.2967741e+183
-1.1917355e+183
-1.178281e+182
-1.5194987e+183
-1.3547685e+183
-1.4116735e+183
-1.3021028e+183
-1.3829885e+183
-5.0342563e+182
-1.3581598e+183
-1.4593257e+183
-9.9470834e+182
-1.4785157e+183
-2.1347966e+182
-4.4824412e+181
-2.4267859e+182
-5.3108495e+181
-1.4538858e+182
-1.508954e+183
-1.4899042e+183
-1.527691e+183
-1.6187367e+183
-1.4860227e+183
-1.3776041e+183
-1.5196099e+183
-1.8987022e+183
-1.4499762e+183
-1.4281328e+183
-1.265028e+183
-8.3377383e+182
-1.1485999e+183
-1.6173611e+183
-2.7908774e+182
-8.4935732e+181
-5.8662107e+181
-4.4565701e+182
-1.5727715e+182
-1.4633241e+183
-1.4915325e+183
-1.4278919e+183
-1.3925813e+183
-1.33191e+183
-1.3746947e+183
-1.1788552e+183
-9.7738199e+182
-6.6250565e+182
-1.1766058e+183
-1.2406576e+183
-1.2814872e+183
-1.4059865e+183
-1.283608e+183
-1.009406e+182
-6.3941999e+181
-1.2935957e+183
-9.9130089e+181
-1.3364407e+183
-1.2981994e+183
-1.3027989e+183
-1.3409208e+183
-1.3061167e+183
-1.3436149e+183
-1.3492977e+183
-1.3110922e+183
-1.3163592e+183
-1.3218007e+183
-1.3613756e+183
-1.3550197e+183
-1.3678981e+183
-1.3272341e+183
-1.3742654e+183
-1.3327078e+183
-1.3826821e+183
-1.3670926e+183
-1.3619301e+183
-1.4017992e+183
-1.3964707e+183
-1.3750409e+183
-1.3702922e+183
-1.4098722e+183
-1.403856e+183
-1.3872261e+183
-1.3808772e+183
-1.4239259e+183
-1.4169382e+183
-1.4013085e+183
-1.3937013e+183
-1.4405925e+183
-1.4316871e+183
-1.429888e+183
-1.414834e+183
-1.4441328e+183
-1.4490518e+183
-1.4214104e+183
-1.4225213e+183
-1.447674e+183
-1.452287e+183
-1.4281918e+183
-1.4358473e+183
-1.4629312e+183
-1.4746461e+183
-1.4439611e+183
-1.4523638e+183
-1.4856696e+183
-1.4949836e+183
-1.4603454e+183
-1.4379112e+183
-1.37715e+183
-1.3508948e+183
-1.4134674e+183
-1.4061273e+183
-1.4782789e+183
-1.4641845e+183
-1.4513814e+183
-1.4623568e+183
-1.1598399e+183
-1.0998284e+183
-1.1326791e+183
-1.4231812e+183
-1.2360776e+183
-1.476191e+183
-1.4783456e+183
-1.4859739e+183
-1.4647013e+183
-1.4647331e+183
-1.1275343e+183
-7.4809274e+182
-1.0474999e+183
-2.2526682e+182
-1.3356686e+183
-4.776815e+182
-1.2619647e+183
-1.4245372e+183
-1.465453e+183
-1.469866e+183
-1.4576463e+183
-1.4662095e+183
-8.1628969e+181
-1.2229969e+182
-1.4825181e+183
-1.5013557e+183
-1.3752607e+183
-1.4559237e+183
-1.5162157e+183
-1.1702272e+183
-1.2288757e+183
-1.4233624e+183
-1.4851713e+183
-3.5864677e+182
-1.0457982e+183
-1.0519925e+182
-1.236395e+183
-1.4194322e+183
-1.3295673e+183
-1.507285e+183
-1.7757411e+182
-1.6344508e+182
-1.2012947e+183
-1.5651619e+183
-1.126507e+183
-5.5643155e+182
-1.4338859e+183
-1.2911633e+183
-1.2607942e+183
-1.324888e+183
-4.3682784e+182
-7.3486523e+182
-1.415105e+183
-1.3916533e+183
-1.4171448e+183
-1.43974e+183
-1.423089e+183
-1.4562482e+183
-1.4603228e+183
-1.4276619e+183
-1.3929354e+183
-1.3975726e+183
-1.4061798e+183
-1.4017052e+183
-1.4684883e+183
-1.4304246e+183
-1.3974835e+183
-1.4625821e+183
-1.4358657e+183
-1.4025597e+183
-1.3667397e+183
-1.3621947e+183
-1.4417488e+183
-1.4054522e+183
-1.3670574e+183
-1.4749168e+183
-1.4827991e+183
-1.4113753e+183
-1.4485103e+183
-1.3724896e+183
-1.4554795e+183
-1.4173626e+183
-1.376328e+183
-1.4908615e+183
-1.4996345e+183
-1.4234907e+183
-1.3818662e+183
-1.4625933e+183
-1.4291362e+183
-1.4345499e+183
-1.4896181e+183
-1.4782873e+183
-1.508904e+183
-1.513091e+183
-1.4828228e+183
-1.4851565e+183
-1.5148578e+183
-1.5141504e+183
-1.4879748e+183
-1.4918629e+183
-1.51629e+183
-1.5209972e+183
-1.4976053e+183
-1.533731e+183
-1.5039378e+183
-1.5255834e+183
-1.5125428e+183
-1.5789895e+183
-1.5375505e+183
-1.572374e+183
-1.557483e+183
-1.5360946e+183
-1.5943101e+183
-1.6593979e+183
-1.5713071e+183
-1.4665796e+183
-1.5335186e+183
-1.5467989e+183
-1.5016708e+183
-1.5528705e+183
-1.4560344e+183
-1.541124e+183
-1.342478e+183
-1.2864022e+183
-1.3328183e+183
-1.4563219e+183
-1.540826e+183
-1.5499427e+183
-1.4991529e+183
-1.196006e+183
-1.5469769e+183
-1.500447e+183
-1.324833e+183
-1.5355519e+183
-1.1164471e+183
-1.2723351e+183
-1.7384378e+183
-1.3314605e+183
-1.5329283e+183
-1.5152739e+183
-1.3365962e+183
-1.534563e+183
-2.1206448e+182
-1.5404128e+183
-1.5401285e+183
-1.3293385e+183
-2.2074291e+182
-1.5373598e+183
-4.5573747e+181
-1.3607064e+183
-8.2782986e+181
-1.2500957e+183
-1.4667039e+183
-1.1464634e+183
-1.0793463e+183
-9.1413887e+182
-1.3942087e+183
-1.0535e+183
-9.6388954e+182
-1.2117124e+182
-1.3073132e+183
-1.2474082e+183
-1.189592e+183
-1.3546853e+183
-1.354611e+183
-1.423963e+183
-4.4657854e+182
-2.8972214e+182
-8.9215868e+182
-9.3739049e+182
-4.9184132e+181
-5.6177935e+181
-1.4732546e+183
-1.4955876e+183
-1.3696448e+183
-1.4349658e+183
-1.4091808e+183
-1.4449197e+183
-1.4972723e+183
-1.325533e+183
-9.6246665e+182
-1.2737764e+183
-5.623556e+182
-2.6812574e+182
-2.3752899e+182
-8.343387e+182
-3.6445406e+182
-1.1449305e+183
-1.656956e+183
-6.2157393e+181
-1.4444663e+183
-1.4661961e+183
-1.4190161e+183
-1.4955195e+183
-1.3881992e+183
-1.3855583e+183
-1.2611818e+183
-1.227486e+183
-1.0748941e+183
-1.2029639e+183
-8.9395405e+182
-8.7142554e+182
-3.1981107e+183
-1.3488517e+183
-1.2375809e+183
-1.2668566e+183
-1.399541e+183
-1.2804519e+183
-1.1639358e+183
-1.2284487e+183
-1.232871e+183
-1.2721097e+183
-1.2674476e+183
-1.3076239e+183
-1.3266184e+183
-1.2887849e+183
-1.2939231e+183
-1.3317287e+183
-1.3341669e+183
-1.2970519e+183
-1.3015606e+183
-1.3385117e+183
-1.3060016e+183
-1.3435468e+183
-1.3491909e+183
-1.3109656e+183
-1.3163531e+183
-1.3217933e+183
-1.361375e+183
-1.3550196e+183
-1.3676745e+183
-1.355985e+183
-1.349884e+183
-1.3907194e+183
-1.3841779e+183
-1.3646743e+183
-1.3594681e+183
-1.3979047e+183
-1.3922825e+183
-1.3750853e+183
-1.3703049e+183
-1.4102107e+183
-1.4041317e+183
-1.3872416e+183
-1.3808973e+183
-1.4239777e+183
-1.4169928e+183
-1.4085569e+183
-1.3994106e+183
-1.4280123e+183
-1.4374298e+183
-1.4078541e+183
-1.4111702e+183
-1.4395086e+183
-1.4436805e+183
-1.4170934e+183
-1.422827e+183
-1.4481924e+183