/*--------------------------------*- C++ -*----------------------------------*\
  =========                 |
  \\      /  F ield         | OpenFOAM: The Open Source CFD Toolbox
   \\    /   O peration     | Website:  https://openfoam.org
    \\  /    A nd           | Version:  7
     \\/     M anipulation  |
\*---------------------------------------------------------------------------*/
FoamFile
{
    version     2.0;
    format      ascii;
    class       surfaceScalarField;
    location    "2000";
    object      phi;
}
// * * * * * * * * * * * * * * * * * * * * * * * * * * * * * * * * * * * * * //

dimensions      [0 3 -1 0 0 0 0];

internalField   nonuniform List<scalar> 
99138
(
3.8267899e+87
-3.3143719e+88
6.2050135e+88
-8.0849622e+87
-1.5951793e+88
-9.4440348e+87
-5.9704945e+87
9.2630817e+86
-1.0775394e+87
2.4519282e+87
3.6930574e+87
-2.8511725e+87
-3.1306267e+88
1.7195521e+87
7.1347746e+87
9.041499e+87
4.0184398e+88
5.2154784e+86
-4.6078767e+87
2.2945261e+88
-1.9420329e+87
-2.3514693e+86
4.3279817e+87
2.4347125e+87
-1.2739571e+88
-6.9728466e+88
2.2677717e+88
4.9186664e+88
-5.3953886e+87
5.8162974e+88
1.2203406e+88
9.4548971e+87
2.8254517e+87
2.4770038e+87
-7.0744457e+87
-7.5102075e+87
-1.6677819e+86
8.1889443e+87
7.3722389e+87
-1.596911e+88
9.2261133e+87
-5.2878008e+87
-3.5586033e+88
-1.7583024e+87
-1.6399941e+88
1.2177871e+88
-2.0677534e+87
-1.3132693e+88
7.3048833e+87
-3.0148419e+87
6.6148648e+87
-1.0070844e+88
5.7978443e+87
1.5992982e+87
7.0445043e+87
-1.0191288e+88
1.596891e+87
2.1933352e+87
4.0669787e+87
3.3646709e+87
5.6285775e+87
3.6350847e+87
3.2376046e+87
1.1572675e+88
-2.0751316e+88
-1.0573492e+88
-8.1211165e+86
3.0788422e+86
3.8280329e+88
4.0651301e+86
4.6292992e+86
2.0642404e+88
1.5094237e+88
3.1350853e+87
3.772666e+87
-1.0914844e+88
1.2416081e+87
-1.1987943e+88
2.6746503e+88
-6.7642326e+86
-1.3933859e+88
2.7165337e+88
1.2145881e+88
5.5509606e+86
-3.8504657e+88
1.670733e+86
4.2270029e+87
2.353405e+88
8.736674e+87
2.872968e+88
-1.2345142e+88
-8.6591762e+87
1.3883791e+88
-1.6616791e+87
-3.2702661e+87
1.2430611e+87
2.6957238e+87
3.0974187e+87
8.2341045e+87
8.1319009e+86
8.3941059e+87
4.2749407e+87
9.0752227e+86
-3.2666726e+87
4.8766231e+87
1.0413001e+87
9.7385983e+86
-9.3504161e+87
-5.9720131e+88
1.853174e+88
1.2664953e+88
-8.5510752e+87
-5.1833081e+87
4.5285309e+88
6.146787e+87
2.7129167e+88
1.4415183e+87
-5.7167685e+87
-2.812503e+87
5.2814871e+87
9.8272464e+87
1.101756e+88
2.5872901e+88
8.0859464e+87
-3.5196332e+87
-1.149219e+88
3.5736514e+87
-2.0431494e+87
5.9040644e+87
4.5864239e+87
3.8922311e+88
5.937689e+87
5.2931825e+87
3.8288431e+87
6.9177099e+87
3.4198692e+87
2.3981952e+88
-2.1774306e+87
-5.3435459e+87
1.9249898e+88
-8.1749946e+86
-7.0040184e+87
9.6383587e+87
3.2938192e+87
-1.1495746e+88
-3.0450206e+86
-2.1172653e+88
-4.0911943e+85
9.7075762e+87
6.2764664e+87
-1.0739592e+88
1.9346491e+88
2.9857769e+87
-9.9766078e+88
6.6977107e+87
-2.7586658e+88
1.4972326e+88
-2.3455089e+87
2.2309582e+87
8.6665034e+87
-5.8401625e+87
3.4355125e+87
-4.0712339e+87
7.3745024e+86
-2.4932398e+87
1.035026e+88
-2.5822066e+87
7.8557935e+87
-8.0656643e+87
3.1644393e+87
1.226945e+87
7.449453e+87
-7.6772532e+87
9.0828179e+86
2.2983424e+87
5.7611825e+87
1.1031425e+87
4.8024648e+87
7.1098459e+87
1.4794365e+87
-3.6292379e+88
3.1033853e+88
3.7244257e+87
9.4579222e+87
7.830518e+87
4.6732337e+86
1.5901328e+87
8.8947981e+87
-3.3409343e+87
5.1303096e+87
8.5169686e+87
2.0133131e+88
1.3935337e+88
4.4899035e+86
9.3358798e+87
-3.124556e+88
-3.2424106e+87
-4.3224205e+87
-2.5097869e+88
1.791677e+88
5.2498679e+87
-8.793838e+87
1.4544813e+88
1.26038e+88
-2.8396777e+88
1.0161355e+88
-3.5546081e+86
1.4078773e+87
1.264186e+87
4.2150584e+88
2.0301613e+88
8.2470315e+86
2.0790406e+88
2.2875582e+88
8.6372361e+87
5.9526328e+87
-4.1908535e+88
-1.6849315e+86
-1.304257e+88
-1.3455977e+88
6.3121118e+88
1.2539158e+88
5.519927e+86
-1.0180621e+88
-1.3923549e+88
5.5495335e+87
5.8246444e+88
-1.9413078e+87
-3.2258834e+87
3.4079261e+88
1.2211852e+88
1.2604388e+88
9.0970646e+87
6.3776765e+87
4.5503442e+87
8.0792228e+87
7.5930249e+87
-4.3248715e+88
5.8561633e+87
5.7114674e+86
3.7722197e+88
3.4459244e+87
7.4396158e+87
-1.4970275e+88
-3.2324264e+87
1.2234462e+88
-2.0169815e+87
2.5456312e+87
7.2261557e+86
-3.6091702e+87
-3.0111053e+87
9.262241e+87
3.5636022e+87
2.3867841e+86
8.8746267e+87
4.3527854e+86
3.3197881e+87
1.7878131e+86
3.9726628e+87
-1.870965e+86
2.8232614e+87
7.6894873e+87
7.357637e+86
8.1626274e+87
2.8721802e+87
8.9054585e+86
-2.8123771e+87
2.947441e+87
1.0032031e+87
7.7854142e+86
8.9364022e+87
-6.1022285e+88
-4.872747e+86
1.57749e+88
1.7308918e+88
-8.7245042e+87
-9.6589479e+87
-4.7507184e+87
2.2445886e+87
4.1765444e+88
1.7145284e+88
4.2734179e+87
-1.0753735e+88
5.288083e+87
2.487477e+88
4.4649866e+87
4.6516043e+87
-1.1668389e+88
-2.4256188e+87
1.0265819e+88
-1.3158572e+88
5.0636948e+87
-2.889256e+87
7.1719621e+87
-2.2465736e+87
1.0932678e+88
2.4574399e+88
4.8528582e+87
3.1067849e+87
1.0260903e+88
4.2244939e+87
1.6618921e+88
2.0963686e+87
-5.4029405e+87
1.5192409e+88
3.0017287e+87
-1.0838415e+87
-9.971566e+87
-1.8400736e+87
-2.0792039e+87
1.1777059e+88
1.1336939e+88
1.8747991e+88
-1.390988e+88
6.1014308e+87
-2.1610042e+87
-8.3900543e+87
2.1553927e+87
2.5109577e+86
1.0337598e+88
1.2494676e+88
1.9798093e+88
-5.7872542e+87
5.3144226e+87
-4.5674421e+87
1.8645742e+88
5.7948801e+87
8.9006267e+87
4.3141057e+87
-4.8884507e+87
7.4837957e+87
1.5124148e+88
-9.2802184e+87
6.0216326e+88
2.0057869e+87
-5.1375872e+87
6.977781e+87
1.4379598e+87
-8.4227644e+87
1.7450251e+88
1.0745883e+87
-8.2085794e+87
4.8475132e+86
-3.1288184e+87
-3.1966478e+86
-8.0270448e+86
-8.2238456e+86
-5.6660281e+87
7.2091789e+87
1.1338257e+87
-1.1185966e+89
1.4727634e+87
-1.4391077e+88
-2.9082934e+87
-6.1250493e+87
7.0415441e+86
1.1148659e+88
3.2165169e+86
2.7466832e+86
7.4718607e+87
-6.431204e+87
-1.2597342e+88
1.3845774e+88
5.0577551e+86
-4.9360401e+86
-2.930296e+87
4.9629217e+87
3.6994613e+87
9.1193794e+87
-1.8540613e+86
7.4320212e+86
-6.604634e+86
2.4094227e+86
1.0886772e+87
7.2173146e+86
-6.9538607e+86
8.1264418e+86
1.5512171e+86
5.9709778e+86
9.4129196e+86
2.1733899e+86
7.9973372e+86
1.3606955e+87
1.9345356e+88
2.7564856e+87
7.833158e+86
4.9956606e+87
-1.2578065e+87
-4.6422293e+88
2.7160796e+88
8.2690165e+86
6.1906032e+87
3.814188e+87
-1.9507084e+87
1.7278404e+88
1.1672952e+88
1.8552538e+88
6.5143306e+87
9.9590845e+87
-5.6337955e+87
-1.0227174e+88
7.7662974e+87
1.8600306e+87
-8.6354073e+87
7.7624571e+87
2.0503576e+87
1.8239624e+88
-7.7237e+87
3.0873315e+87
1.972159e+87
-9.8340966e+87
1.7304629e+87
8.2362946e+87
-1.4136484e+88
1.800003e+88
-5.2598043e+87
-1.0898803e+88
1.6979648e+88
5.5588825e+87
5.4913816e+87
9.3811274e+87
-1.4587493e+88
5.0505459e+87
6.9972058e+86
8.3196738e+87
2.6242929e+88
1.7870286e+88
3.094121e+86
2.8743891e+88
-7.3288046e+88
-2.5680964e+87
3.5364445e+86
8.2677834e+87
-4.5074748e+88
-9.4240746e+86
-5.4988478e+87
3.1293528e+88
7.3323964e+87
6.7940471e+87
-7.6180878e+87
9.0672069e+86
1.2408727e+88
-6.8475203e+85
-9.6139684e+86
-5.0840769e+87
8.33221e+87
8.4528418e+87
-6.9733909e+87
-2.6990056e+86
1.6638229e+88
-4.2205727e+88
-1.0095713e+87
5.2988143e+87
4.590452e+88
1.7214077e+88
7.9033286e+87
6.679763e+88
3.1780972e+87
2.1645179e+88
2.8203773e+87
2.0558817e+85
1.3226107e+87
-4.5182761e+88
1.6155035e+88
2.3414782e+87
-5.141332e+88
1.3055828e+86
3.0868806e+86
-5.7711823e+86
6.2456289e+88
-6.7583694e+87
-1.2476776e+86
6.2666975e+88
-4.5204615e+86
1.726007e+86
6.1476828e+88
1.557434e+88
1.586581e+88
-5.1573397e+87
8.7618509e+87
1.1104161e+88
3.7531525e+86
3.9125713e+87
5.6916428e+87
3.7621081e+87
1.1210027e+88
6.8808388e+87
-6.7862397e+86
1.7026859e+87
-5.9742322e+88
1.6126523e+88
5.2280743e+87
1.7227184e+88
4.9985526e+88
1.6130957e+88
-6.1339198e+86
1.0345784e+87
1.3463727e+88
7.7106531e+86
1.8085781e+88
2.9514019e+87
-1.3239584e+88
4.2087784e+87
-5.490692e+88
7.9497412e+87
-2.9730433e+87
1.1614086e+87
-3.4120205e+85
-4.193676e+87
1.0012996e+88
-2.5808792e+87
3.0703641e+87
-8.5695524e+85
-3.1499169e+87
3.4628782e+87
-9.1290249e+86
-9.5847674e+87
-5.3825911e+86
-1.0686797e+86
-2.4554713e+87
9.0322922e+87
2.1870816e+87
4.3235507e+86
8.3928669e+87
8.4467935e+86
2.4558024e+87
8.5471e+86
2.4716278e+87
4.3931787e+86
2.2947449e+86
6.5733343e+86
6.9732136e+86
6.1914504e+86
2.2170848e+86
8.832388e+86
-2.1711385e+86
2.1388126e+86
9.6512398e+86
7.2533711e+86
7.3009522e+87
-6.3369838e+88
-1.9096002e+88
3.7744326e+88
1.2645254e+88
1.1019575e+88
4.3654587e+88
-9.9523975e+87
-9.1724479e+87
-4.5637524e+87
-6.6974883e+87
9.778415e+87
-1.6938703e+88
9.7943579e+87
2.3401753e+88
-1.0309793e+88
2.4406559e+88
-5.4153059e+87
1.8405883e+88
4.4189943e+86
1.4695621e+88
-1.400454e+88
-4.7937821e+87
5.4847946e+87
-1.2395079e+88
1.2654631e+87
-3.5722202e+87
2.6619634e+87
4.9324557e+87
-2.7240299e+87
-4.1363031e+87
-7.4043185e+87
4.2198913e+88
2.1843765e+88
-1.1507769e+88
2.5423437e+88
5.6493708e+87
-1.4953342e+88
3.7983232e+88
3.3420074e+87
-1.872567e+88
-3.4389463e+87
6.2445383e+88
2.7383679e+87
5.2675157e+87
-8.0863621e+87
-1.8974191e+86
4.17197e+87
-7.339481e+87
3.2070759e+87
-1.9044788e+86
1.1570771e+88
9.6666278e+86
5.0615323e+87
5.7640199e+87
1.2114186e+87
2.2756278e+87
-5.4633164e+86
-2.6965653e+87
8.8218747e+87
3.9293223e+87
8.8201608e+87
6.3877916e+87
-2.8976955e+87
1.425229e+88
-1.3957685e+88
3.7906873e+87
-3.5377737e+87
7.7309158e+87
-2.5467052e+87
1.4416987e+87
-5.8099214e+87
5.6201102e+86
6.3351815e+85
-6.6255613e+86
-1.2318235e+87
-8.1307735e+86
-1.1265776e+88
1.1344607e+86
-1.0760205e+86
-4.1565109e+86
1.1004424e+86
5.5086656e+86
-3.7862643e+87
3.1515012e+87
3.9620741e+88
-5.4212491e+86
-6.1098074e+86
4.3303625e+85
-9.0715818e+86
-4.2490631e+87
1.2569683e+88
-5.8707788e+87
-5.9550907e+86
6.6692789e+87
1.6986312e+88
-1.5405872e+88
-5.2548924e+86
-8.8570008e+86
-3.5824573e+87
4.6081458e+88
4.0255471e+87
-5.0105865e+84
5.8210913e+88
2.6892917e+86
-3.1833717e+86
6.687677e+86
9.3205206e+86
-7.4917858e+86
1.2989816e+87
1.011059e+87
-7.0887799e+86
5.7780196e+86
-2.2035581e+87
-4.0972617e+85
-8.5489441e+86
-8.9529431e+86
8.836093e+87
2.0374692e+87
1.5302861e+87
-4.7508214e+87
3.0825771e+87
-7.7092356e+87
1.8652682e+87
-2.8894235e+87
5.8999612e+86
5.3904471e+87
-6.703104e+85
2.7849964e+86
7.8373556e+87
-4.6489645e+87
-5.912375e+87
5.5298369e+86
6.2290525e+86
6.2656709e+87
7.7672416e+87
6.8065217e+84
-5.889897e+86
6.2277785e+84
7.1595607e+86
9.1299025e+87
-1.4599778e+86
6.9605749e+86
-6.3429196e+86
1.8151064e+86
6.7332129e+86
-6.5516125e+86
1.2924956e+86
5.0510323e+86
2.0091176e+86
6.8709885e+86
4.6686034e+86
6.6740038e+84
2.3951494e+85
-4.3787355e+88
2.0725773e+88
7.8396542e+84
4.7243108e+87
1.8484084e+87
-2.2761974e+87
4.7490462e+87
-7.9787729e+87
1.3225081e+87
8.1955414e+87
-3.9220767e+87
5.3246258e+87
1.157948e+87
6.4412365e+87
1.2718426e+87
1.0828223e+87
-5.8797478e+88
1.3104733e+88
-3.2932916e+87
1.9570974e+87
1.090796e+87
-5.0190809e+87
3.5111542e+87
1.1156541e+88
6.7755403e+88
1.2333246e+88
1.2229049e+88
-5.747366e+87
-1.3072999e+88
6.1414294e+87
1.2768009e+87
-4.9118238e+87
2.28213e+87
1.6909658e+87
1.9358394e+88
-1.0282031e+88
2.0495249e+87
1.4897335e+88
-1.1723603e+88
1.5097996e+87
3.8256194e+87
-8.2437245e+87
-4.1581266e+87
4.2834294e+88
8.4417667e+87
-3.3523131e+87
1.4333951e+85
1.5022036e+88
-5.8236165e+87
3.7695061e+87
3.2874044e+88
2.5327049e+88
9.5064516e+87
-4.6723538e+87
-8.6876772e+87
5.2609068e+87
4.5271329e+86
-6.3279613e+87
6.9953034e+87
9.8032686e+87
1.0862084e+87
-1.1067039e+88
1.5855294e+88
1.0238251e+88
8.7720184e+87
-8.7947849e+87
9.3533406e+86
5.7966655e+87
7.3120967e+87
-7.7498188e+87
-8.5613153e+87
3.9465823e+86
8.8181627e+87
-1.485186e+88
1.4409935e+88
-6.3036435e+87
-8.9649785e+87
2.0670097e+88
4.953435e+87
-2.3490048e+87
9.4535386e+87
-4.5028163e+87
4.0167305e+87
-4.2720979e+87
6.9052581e+87
2.6726366e+88
1.6869845e+87
2.1265551e+86
1.7388272e+87
-7.910471e+88
-2.5768418e+87
-8.8130847e+87
5.0826483e+88
-8.5486928e+86
-2.6072974e+86
-9.1161411e+86
-4.3499582e+88
-3.2252965e+87
1.5528385e+88
-8.154357e+87
2.79446e+86
1.003488e+86
-7.1657684e+87
-1.9164401e+87
-3.0014319e+86
-7.7680025e+87
-3.3624283e+87
1.6220974e+88
1.3449495e+87
1.0006358e+88
-1.7740388e+88
-4.3810918e+87
2.8732932e+85
-8.0357674e+86
2.4413499e+87
3.1059612e+87
-5.230841e+88
3.4339674e+88
2.9794032e+88
1.8692271e+88
3.1290452e+87
1.0854697e+88
1.9554897e+87
-8.9880233e+87
1.8678921e+88
5.5964629e+87
2.2418275e+88
4.6961028e+87
6.9527062e+88
4.3698145e+87
1.6013186e+88
2.4655178e+87
1.1992201e+86
1.208615e+87
2.3044594e+86
2.424069e+87
-5.4649944e+88
2.2294672e+86
5.1263021e+86
-1.1680009e+87
1.8509272e+87
6.7051843e+84
6.1212396e+88
-1.0161243e+86
-1.1285882e+86
5.381357e+87
1.2323042e+88
-4.9022121e+87
-5.9954874e+86
1.8462015e+86
-3.550166e+87
1.0565674e+88
-5.7919779e+86
4.0790742e+86
2.1132704e+86
1.3748973e+86
4.6646706e+87
8.3802453e+87
-6.0470892e+88
9.4540426e+87
2.0252376e+88
1.4999259e+88
1.1706346e+88
1.9106161e+88
1.2821274e+88
4.3470534e+87
-3.0311419e+87
4.5546351e+87
1.3638623e+88
-9.1294888e+86
6.4044127e+87
1.0918386e+88
-2.7569727e+88
-1.632225e+88
1.3192269e+89
2.0788422e+88
-7.7601848e+87
5.9174115e+87
1.2585713e+88
5.9380731e+86
1.6995144e+88
-5.5515624e+87
5.0586496e+87
-2.2165441e+87
-3.2957973e+87
2.0990124e+87
3.3360648e+87
6.9112434e+87
-5.5790319e+88
1.0605147e+87
-3.5358144e+87
8.4589125e+86
-3.4549907e+86
-4.5660924e+87
1.0098164e+88
-1.9470615e+87
-1.2939505e+88
2.2428968e+87
-4.2753293e+86
-1.5666116e+87
1.7404308e+87
-1.3093231e+87
-1.0386059e+88
-1.7563323e+87
-1.2911591e+88
-5.4483987e+86
8.4716533e+87
-1.7979389e+87
1.6331798e+87
5.3396077e+86
-1.9633465e+87
1.9247697e+87
2.5784923e+86
-8.4885219e+87
3.7218287e+86
5.293747e+86
-1.8795948e+86
5.7792391e+86
1.6434424e+86
5.3795498e+86
6.339629e+86
8.4626262e+86
1.6853441e+86
8.2514891e+86
1.7104079e+86
5.9909125e+86
1.7984591e+86
6.4061343e+86
6.1469184e+86
1.7400671e+86
-1.6907402e+86
1.7040117e+86
1.71933e+88
-4.8394681e+88
5.853181e+87
-3.5539406e+87
1.0498442e+88
-5.372867e+87
-5.3864513e+87
1.2198649e+88
1.1186509e+87
-2.1982629e+87
-1.0519611e+87
4.6272346e+87
-9.8570076e+87
1.5812556e+88
4.8792808e+87
2.2282288e+88
-3.5309526e+87
1.2891954e+88
2.4961878e+87
-1.0509202e+88
3.3826797e+88
-1.0179596e+88
-6.2575684e+86
2.1492283e+88
2.4218609e+87
1.2443243e+87
4.7030761e+87
-1.2052201e+88
-2.5821285e+87
6.6941365e+87
-1.2543935e+88
3.1917651e+86
-2.3974942e+87
-3.1170118e+87
9.9053928e+86
6.102952e+87
-1.8460824e+87
1.4062918e+87
-1.5852547e+87
-1.1295802e+87
-2.3746023e+88
5.8345621e+86
5.6514066e+88
1.3297232e+87
2.3564532e+88
-1.8579022e+87
-5.7600466e+87
2.1132536e+86
6.2680766e+87
-7.8239544e+87
-2.4214712e+86
2.1623453e+87
-6.5615997e+87
1.100226e+87
-6.1859541e+85
-2.4268639e+87
5.1924505e+87
-3.1178375e+87
-2.0942518e+86
-7.2142212e+87
8.908741e+87
2.1761387e+87
-2.2960291e+88
5.3737895e+87
-1.2059748e+87
1.4442441e+88
8.488156e+87
3.0253519e+88
-1.3841112e+88
-9.6734628e+87
5.6490016e+87
-7.6112187e+87
7.1528696e+88
1.529078e+87
2.1151204e+87
1.0763138e+87
5.6911804e+88
2.1354779e+86
3.350825e+86
-8.1470471e+86
1.8638453e+86
2.7078783e+86
-6.7324711e+86
1.9369785e+86
2.318699e+86
1.0637281e+88
-1.5251656e+88
-4.1133133e+87
1.1795152e+88
-4.3357067e+86
3.7506025e+84
-2.4709637e+86
-5.3549171e+86
2.4238267e+87
5.4690761e+86
7.6717197e+87
-6.8474508e+87
4.9040057e+87
6.4974745e+85
-2.2208432e+86
7.640408e+87
-7.7003991e+86
3.4523732e+85
8.1148507e+87
5.9685433e+87
-1.2786248e+88
5.443152e+87
-2.9047159e+86
5.2716149e+86
1.5580731e+86
1.3199933e+87
-1.556076e+86
4.4389909e+86
-7.5931027e+85
-8.1530573e+86
-4.0274434e+86
-9.117381e+86
3.679597e+86
-7.8758409e+85
-5.1981981e+86
9.5675591e+85
-3.2020695e+86
1.1248341e+87
3.7161886e+88
7.4708069e+86
4.2176395e+87
6.7799316e+87
-1.613183e+88
3.9966265e+87
-8.7809799e+85
-7.7319647e+85
-7.8787113e+86
5.300043e+86
-3.2836003e+86
2.1628851e+87
4.9735209e+87
-1.455648e+87
6.9363965e+88
1.2107489e+87
-2.2471478e+88
-7.5160723e+86
-3.6565025e+86
1.646059e+87
4.2147055e+87
6.5859794e+84
2.0295088e+86
-2.7754967e+86
5.5864706e+86
-6.7469216e+86
1.0432428e+87
-6.3406398e+86
4.5218174e+87
2.239707e+87
-1.6649474e+85
2.2039613e+87
3.6376674e+85
-2.4816674e+86
-5.4111927e+86
5.8960077e+87
-2.8345464e+85
1.5781519e+86
-5.3659004e+87
2.8340306e+86
3.6681903e+86
6.0827906e+87
3.5239887e+86
7.5822923e+85
-2.6898285e+86
8.4282202e+87
6.1273663e+85
5.1331896e+86
-2.5516745e+85
4.4743051e+86
3.3215558e+85
-4.1934134e+85
5.4056678e+86
4.8176647e+85
2.4973354e+86
-1.4783799e+86
-5.7101567e+85
1.0713275e+88
1.9425254e+87
-1.0255677e+87
3.7884482e+87
-1.8555285e+87
-5.0415735e+88
1.7422336e+88
-9.6293544e+86
4.0647534e+87
1.7333794e+87
-3.0082459e+87
9.7839019e+87
-4.0701209e+87
-1.1497301e+88
4.9443644e+87
8.4700397e+86
-4.8915667e+87
5.5073103e+87
8.194766e+86
-9.2504336e+87
9.2491174e+86
-1.1042523e+88
7.7040005e+86
3.9463041e+87
-8.1547061e+87
5.2572412e+86
8.3483654e+87
-3.3638276e+87
3.6705229e+87
5.7018849e+86
4.3458751e+87
5.3296262e+86
5.6917587e+86
-5.8455045e+88
2.9110856e+88
-2.5898572e+87
3.1088388e+87
1.3778793e+87
-5.0464965e+87
8.8096255e+87
6.2088963e+87
9.5207328e+87
2.4165306e+88
9.091963e+87
-3.5205938e+87
-1.3319524e+88
4.264433e+87
1.9044366e+86
-8.4377482e+86
4.2309296e+87
1.7403233e+87
5.9215963e+87
-1.1397461e+88
5.8184297e+86
1.3344783e+88
-1.3963676e+88
1.6797434e+86
-4.6405775e+85
-3.0139382e+87
6.6822855e+87
-5.9343789e+87
-2.5759654e+88
-1.0931155e+88
2.7379299e+87
4.5063044e+88
3.0282523e+88
1.6108817e+87
1.1143432e+87
3.8812586e+88
1.1812025e+88
-4.6395287e+87
-9.9522252e+87
3.5854725e+87
4.7106316e+86
-4.1281171e+87
1.1845107e+87
1.5947611e+88
4.989951e+86
-6.4754175e+87
-5.1020057e+87
2.3495663e+87
3.2355771e+88
-1.0831328e+88
7.3091275e+86
1.5017132e+88
4.453391e+87
1.5665701e+88
-9.3258031e+87
6.2565533e+86
5.0955713e+87
-1.3045353e+88
-4.791407e+87
7.6245583e+88
1.7197015e+88
-4.6942093e+87
2.4479928e+86
1.2280786e+88
-7.3007366e+87
7.6522114e+87
5.4815163e+88
3.7525812e+88
7.0835091e+86
-3.4624592e+86
-7.7427629e+86
3.9194459e+86
4.7295542e+86
-6.1343195e+87
1.1950796e+88
6.1591559e+87
8.065899e+87
-3.8602232e+86
5.4329355e+86
8.7915951e+86
7.5813969e+86
-2.2483272e+87
1.2049376e+88
1.440041e+88
-1.0475999e+88
-6.6091626e+86
5.9811287e+86
5.8549665e+86
5.0290863e+87
-9.6333572e+86
8.7098548e+87
-2.8231655e+87
-7.5871415e+86
3.7873744e+86
5.9085941e+86
-6.8608625e+86
-3.1089582e+87
-2.8200107e+87
-5.592096e+86
4.6126697e+86
1.1428602e+87
-2.8030628e+87
2.926225e+86
-3.5689002e+87
1.878323e+86
-3.970999e+87
2.651197e+87
2.2831845e+88
1.8326318e+87
8.5254106e+86
1.3517297e+87
1.8028115e+87
1.5748036e+87
4.6543968e+88
-7.9688037e+86
-3.4469146e+86
-7.2861933e+86
-1.9009395e+86
-1.2866798e+87
-4.7744233e+87
1.6153674e+86
-1.5908059e+85
-7.9615788e+87
1.0345902e+88
-1.9187103e+87
-6.8184396e+85
-1.2971343e+87
-4.6165513e+87
-2.0376119e+88
-4.4710166e+86
-2.4373923e+87
1.0149179e+87
-1.7049086e+87
-3.9493791e+87
2.4839042e+86
-6.9512641e+88
1.7665983e+88
2.435927e+88
1.8366849e+88
2.3757244e+88
2.7834855e+88
1.6464673e+87
-2.6321133e+88
-2.0927842e+88
1.4782053e+88
6.0614505e+88
-2.0666844e+88
2.324999e+88
1.6842651e+88
-3.8760798e+87
5.7254205e+87
-1.024934e+88
9.5857555e+87
-4.0901274e+87
-8.1842403e+87
1.1926629e+88
-1.4431917e+88
1.6291593e+88
5.7769826e+86
8.5300606e+87
9.4516939e+87
1.6814657e+86
1.7815987e+87
1.990378e+87
1.1208304e+86
-4.2421887e+86
9.5612602e+86
-4.1731818e+87
-2.1559489e+85
1.3331318e+86
4.1022862e+86
-1.1935148e+86
-1.6969079e+86
1.7172199e+86
-7.6998768e+86
4.4134185e+87
-6.0031613e+88
7.1418426e+87
1.5034782e+88
1.3073301e+88
2.3572138e+88
2.3443518e+88
-1.0707336e+87
4.9655025e+87
-1.9243583e+87
3.4094537e+88
7.2670112e+86
1.0345699e+88
5.435109e+87
-2.5789675e+87
-1.4868192e+87
1.5472315e+88
4.8519704e+87
1.9154548e+88
1.3337608e+88
3.4757467e+87
3.255225e+87
-2.92823e+87
1.8316607e+88
3.3290137e+87
5.1615698e+87
-2.5511941e+87
-2.7529866e+88
-2.6000417e+88
2.2733412e+89
1.4312908e+88
-3.2787186e+86
7.8177729e+86
5.5227547e+86
-2.1335627e+84
-1.8443578e+87
-3.0139727e+87
-5.8034022e+88
2.2774428e+87
-3.3245888e+87
-2.5723178e+87
2.160134e+87
3.0955268e+87
-1.5981438e+87
1.0092396e+88
1.7895579e+87
2.6240327e+86
1.0066041e+88
1.4142225e+86
1.8066698e+87
9.8527958e+85
2.0652585e+87
2.3036822e+86
9.5635046e+87
-5.3084144e+88
2.3531604e+87
-3.3578653e+87
8.9843909e+86
3.4721572e+86
-4.0544813e+87
1.0262705e+88
-1.4441171e+87
-1.3247605e+88
1.4813316e+87
-5.8812703e+86
-1.085551e+87
8.6546672e+86
-1.2152527e+87
-1.023955e+88
-1.5032686e+87
-1.324036e+88
-7.665019e+86
8.2858651e+87
-1.0044888e+87
-9.1578371e+87
9.8336957e+86
4.6556155e+86
-9.5254513e+86
9.7483629e+86
3.9265368e+86
-9.0515274e+87
4.4346666e+86
-9.4699835e+87
5.0230812e+86
7.7859966e+86
-1.2500526e+86
1.1755452e+86
4.7855582e+86
-1.1318016e+86
1.0428961e+86
3.720974e+86
-8.1479873e+86
4.301414e+86
4.9519486e+86
-1.4405793e+86
6.0423067e+86
1.2610732e+86
6.068309e+86
1.3012815e+86
1.3814388e+86
1.9471394e+88
-5.4455754e+88
-8.7282104e+87
2.2136847e+88
-8.3776727e+87
-7.4383199e+87
1.2994542e+88
1.7252915e+88
1.7384617e+88
-3.0740318e+87
-1.31311e+87
-4.634035e+86
-6.8570101e+87
-9.0054778e+87
1.2146203e+88
9.5379246e+87
8.2881512e+87
-2.9117333e+87
2.8304396e+86
7.673001e+87
-1.1585193e+88
-1.424533e+87
4.2140482e+87
-1.083281e+88
2.4000375e+87
-8.846761e+86
-1.670099e+88
1.2837652e+88
6.2536064e+87
1.9346322e+88
1.46912e+87
-2.2185068e+88
-1.7233937e+87
3.6171309e+87
4.3386454e+87
-7.7971709e+87
1.8571956e+87
1.1855603e+88
-6.2688361e+86
5.8878085e+87
-1.0407306e+88
1.8056203e+88
1.1450229e+88
-2.7046436e+87
5.3917617e+87
8.9239047e+87
-7.7895732e+87
-1.1497132e+88
-8.4791006e+87
6.4843796e+88
4.6976469e+87
-1.0370318e+87
-3.525171e+87
2.4098345e+87
-1.0982685e+87
-1.7237191e+87
9.95527e+87
2.9830928e+87
2.8410626e+86
1.1284157e+87
3.7728203e+87
-6.2539185e+87
-1.2921566e+86
4.7000053e+87
-6.7925151e+87
8.0933001e+86
1.4106963e+85
-2.3669275e+87
1.1447347e+87
4.1393125e+87
-6.3189459e+85
4.781627e+87
2.3146537e+86
4.0481201e+86
1.0558798e+87
-8.9954951e+85
5.4921251e+88
-5.1097823e+86
4.5048617e+86
1.434273e+87
-6.7290076e+87
-1.2808479e+86
6.7919234e+86
-7.7192022e+86
1.7237388e+86
4.0611856e+86
-7.5104985e+86
-3.2848528e+85
1.8784999e+86
-3.8042653e+87
6.5254862e+87
-8.1326607e+87
4.4697532e+87
5.5855396e+85
2.9789691e+86
-3.2336251e+86
1.6631639e+86
-2.0327336e+88
5.7537402e+87
5.4903158e+87
-2.1488225e+88
1.8608285e+88
5.0754024e+87
3.6869166e+86
-3.124479e+86
3.1899736e+88
-7.2831671e+88
-8.6920279e+86
-2.0243887e+87
-5.9710926e+87
3.1057764e+86
3.5957479e+86
6.9478367e+88
1.6433096e+87
1.0666194e+87
1.2520195e+87
1.8436033e+86
2.865215e+86
-7.4365533e+86
2.3724817e+86
-5.3305543e+86
1.5657266e+86
1.6436758e+86
-4.6958996e+87
-6.209039e+85
-5.5176e+85
1.7486811e+87
2.4982089e+87
-4.6574124e+87
5.3582297e+87
-7.8690417e+86
-3.2652285e+85
-1.6917849e+86
-6.3430511e+86
-2.4024781e+86
6.0869993e+86
4.7365263e+85
4.6440004e+87
-3.773053e+86
-1.112769e+87
-1.6554069e+86
9.3594663e+87
7.911548e+85
-2.6506206e+87
4.3615339e+87
5.3890459e+86
4.1800378e+87
-2.3275893e+86
4.2564174e+86
1.908392e+86
-2.309884e+86
-8.5091217e+86
9.1334998e+86
6.0754949e+86
-4.3977983e+86
-2.3832779e+86
-1.3523112e+88
-1.1835458e+87
3.3585439e+85
-9.3150216e+84
1.3493799e+87
4.7858691e+87
3.3389435e+86
-2.4854892e+86
2.02502e+87
6.5945576e+86
-3.5963441e+86
7.4022774e+86
6.9761525e+88
1.4860423e+87
1.4362051e+87
7.784635e+86
5.9261578e+85
-1.9990119e+86
1.6399349e+86
9.1101989e+86
3.2624931e+86
-1.5992533e+86
-2.36304e+85
-3.6088873e+86
6.6590897e+85
-2.0873435e+85
-6.4822507e+85
7.6039101e+86
-7.4106584e+86
-1.0765015e+85
9.634656e+87
-1.3393002e+87
3.9028143e+87
2.1261277e+87
-2.1278712e+87
-1.1765161e+88
-1.2162458e+88
-1.329347e+88
-1.2647079e+88
3.3275197e+87
-8.8034467e+87
6.8176965e+86
9.2613728e+87
-2.5313578e+87
2.8019943e+87
7.0699957e+86
4.131476e+87
7.4856581e+86
6.7147562e+86
-5.3635909e+88
1.5978579e+88
-1.7021892e+87
3.3984279e+87
1.2332156e+87
-3.6536121e+87
1.0365573e+88
-3.3936386e+87
-1.255033e+88
4.1194879e+87
4.9597787e+86
-3.4847082e+87
4.2900878e+87
3.0542627e+86
-1.0463618e+88
2.5592656e+86
-1.2337838e+88
4.1670249e+86
9.1997714e+87
-3.5593237e+87
-8.814095e+87
3.4657715e+87
5.5488449e+86
-4.2116086e+87
3.8021373e+87
4.7649729e+86
-8.8164181e+87
5.4979542e+86
-8.4629034e+87
5.280866e+86
2.7824573e+86
-7.4441221e+86
4.8447848e+86
7.6344419e+86
-2.4167296e+86
2.5374931e+86
5.1469302e+86
2.982231e+86
5.0216415e+86
5.1874646e+86
-6.506396e+88
2.4001292e+88
-3.1046469e+87
4.3244192e+87
-3.5773242e+86
-6.5896044e+87
1.8885188e+88
1.620552e+88
2.5864111e+88
1.5194696e+88
7.5382859e+87
-3.4687153e+87
-1.2251491e+88
5.9765599e+87
-3.8448906e+86
-3.7737845e+87
4.3465258e+87
1.4206724e+87
8.6537225e+87
-9.1438133e+87
1.1224289e+86
1.0866602e+88
-1.3053682e+88
-3.4090792e+86
1.219095e+87
-9.6152934e+87
6.8017744e+87
-1.0523776e+88
-1.5787261e+87
5.9731596e+87
1.0141926e+88
-7.1083549e+87
6.0870051e+87
-1.4820016e+88
8.0056061e+87
9.7368303e+87
8.8026007e+87
-3.0775618e+87
-9.2184725e+87
3.4096925e+87
2.7419173e+86
-2.0630162e+87
2.4692254e+87
1.0212464e+88
-7.5738951e+85
3.6814705e+87
1.3058933e+86
4.0990983e+87
7.4839023e+86
-1.0203133e+88
1.3061969e+86
9.7758592e+87
1.7119167e+87
1.6894622e+88
-9.871243e+87
3.4399762e+86
-1.1041916e+86
-4.5593745e+87
3.3964132e+87
-1.1961735e+88
-2.9755862e+88
-1.2061647e+88
1.1250265e+87
8.5645111e+88
3.3761082e+88
1.558091e+88
-8.6167732e+88
6.7811999e+88
1.0138896e+87
-3.1662419e+86
-8.9724979e+86
2.1353482e+86
4.575219e+86
-2.1236927e+87
-7.0496443e+87
3.6572362e+87
2.3813285e+88
-2.7713589e+86
-1.2856658e+86
1.5144813e+87
4.0411314e+86
-1.0609533e+88
-5.0453067e+87
5.9929696e+87
4.966986e+88
-1.0274431e+87
5.9863502e+86
1.4258862e+87
3.5286743e+87
2.5768951e+88
9.9615558e+87
2.3525807e+87
-8.8212891e+86
5.5567075e+86
4.7245979e+86
-5.4373049e+86
9.4433346e+86
7.5833789e+88
1.3812551e+87
-1.4761459e+87
1.4700549e+86
1.3243587e+88
1.0704777e+87
4.1282531e+86
5.5185579e+88
3.1110305e+88
7.0844885e+86
-2.7903847e+86
-7.1614745e+86
3.2450761e+86
-1.67526e+86
6.127087e+86
3.677441e+87
2.9156953e+87
-2.5106144e+87
1.1319119e+88
1.4587545e+88
-9.2973862e+86
-3.3591648e+86
4.6146751e+86
9.4367966e+86
-2.8475507e+86
3.054996e+86
7.8530984e+86
-1.0139192e+88
-6.2638011e+86
5.5174536e+86
4.9147983e+87
4.1724363e+86
8.0729279e+87
-2.2213727e+87
4.1033966e+86
-2.774087e+87
-7.0522933e+86
3.9988162e+86
-7.6590496e+86
-1.3614147e+87
-3.0259637e+86
-7.7253642e+85
6.8218407e+86
9.1537949e+85
-2.3031037e+84
2.1846742e+87
1.4761735e+88
1.6064626e+87
2.146404e+87
-1.8219446e+86
-9.7029795e+86
-8.6288418e+86
-3.0710894e+86
-2.1652012e+87
-4.7081144e+85
-5.9356794e+86
-1.4121796e+87
-1.5125934e+87
-2.0804123e+87
8.0885805e+86
-1.3423987e+87
-5.9964493e+87
-8.3187566e+88
7.6930315e+87
1.6039525e+88
1.8906472e+88
3.0059483e+88
3.8564959e+88
-6.2475364e+87
-6.2522158e+87
1.4412948e+88
3.2791782e+88
5.5656601e+86
-2.1206963e+87
4.9800881e+87
8.7033645e+87
4.5519675e+87
-1.3417715e+88
4.7961613e+88
6.4856911e+88
-1.3488288e+88
-3.3669079e+88
-8.5779089e+87
1.3371798e+88
1.0297798e+89
-2.3808301e+88
2.8404683e+88
2.0869948e+87
1.7510042e+87
-2.8706594e+86
-4.6787943e+87
-5.7268951e+87
-1.2145117e+87
-1.2347948e+87
9.175536e+86
-1.4312344e+88
4.8609099e+86
-6.4823153e+86
1.1350552e+88
3.8008087e+87
4.3411911e+84
2.7301886e+86
5.29e+85
-1.7601858e+86
5.0150343e+87
-6.2893628e+88
-1.3162656e+88
1.5923612e+88
2.1137304e+88
4.1720209e+88
1.8873437e+88
1.0441082e+88
8.2392133e+87
2.7182849e+87
5.162653e+87
1.843474e+88
5.352107e+87
-8.3764183e+87
1.5900755e+88
5.5046973e+87
1.5705773e+88
-5.3999842e+87
4.1543953e+88
-9.9851179e+87
4.7149016e+87
-1.093107e+88
6.8352029e+88
-1.6614713e+86
-7.1338365e+85
-2.2022142e+87
-1.0124388e+88
-6.6700937e+87
2.1386918e+88
-4.8694321e+87
1.2284349e+86
4.5915461e+86
-2.2280274e+87
4.1501221e+86
-1.0220902e+87
-1.695317e+87
-2.3018533e+85
9.0513692e+86
-1.2788401e+87
4.7183554e+86
7.84838e+85
2.2553897e+89
1.0622414e+88
-1.6262097e+86
2.9660191e+86
-2.0962458e+86
-1.9273998e+87
1.2183133e+87
3.3924745e+87
-2.2880239e+87
2.623947e+87
-2.9334499e+87
-5.8260048e+88
1.2193449e+87
-3.3705015e+87
-2.8496703e+87
2.1025649e+87
2.692431e+87
1.1520574e+87
1.0288327e+88
-1.3029244e+88
5.3833905e+85
1.0342143e+88
-1.3129959e+88
1.2405347e+87
1.2702462e+86
1.3181983e+87
-4.4837221e+85
1.4448154e+87
6.3449888e+85
-1.1228041e+87
9.3282024e+87
9.6015951e+86
4.7451946e+86
9.4301538e+87
4.7783077e+86
1.0715886e+87
4.8862051e+86
9.7780759e+86
4.9451547e+86
9.037691e+87
-5.2478384e+88
-4.9175862e+86
-3.8806471e+87
1.254471e+86
-8.6217027e+85
-4.3287031e+87
9.6057669e+87
-9.9445476e+86
-1.2673738e+88
1.1286223e+87
-4.2406024e+86
-6.1553234e+86
1.1476674e+87
-8.6073715e+86
-9.8376951e+87
-1.1503468e+87
-1.2791734e+88
-6.1356444e+86
8.0370428e+87
-7.3499389e+86
-8.933016e+87
6.2921264e+86
4.1362966e+86
-8.6786747e+86
4.5677978e+86
4.4036475e+86
-7.992504e+87
3.4228675e+86
-9.0169965e+87
5.0636708e+86
7.2519125e+86
-7.9800515e+85
-7.0883196e+86
5.8991582e+85
4.7001507e+86
-2.8571243e+85
-1.4645537e+85
4.1001737e+86
-7.2436586e+86
4.7163515e+86
-6.7946447e+86
4.9516349e+86
6.624756e+86
-9.3571939e+85
8.0044986e+85
-9.9527046e+85
8.8525055e+85
-7.6158685e+86
2.4319332e+88
-5.4301471e+88
-1.7283324e+88
2.2774439e+88
2.0342862e+88
-7.1789918e+87
-7.1066161e+87
-3.5375881e+87
-2.989109e+87
3.4654813e+87
1.2766833e+88
-1.8112983e+88
-6.8628729e+87
3.7393604e+87
-1.1207929e+87
4.4494158e+88
1.0596053e+87
6.7288383e+87
-1.1895714e+88
-1.8703614e+87
1.00635e+88
-1.2056328e+88
-9.2633795e+86
-3.4595441e+87
-5.9795329e+87
5.6763576e+87
4.2061666e+87
-9.0214252e+87
1.8537788e+88
1.0839944e+87
-6.8792623e+87
3.9512389e+87
3.1361904e+88
4.590063e+87
1.314472e+87
2.0889295e+87
-5.2334709e+87
2.8951491e+88
-1.0377556e+88
-8.801227e+86
-6.4780095e+87
4.4527041e+87
-3.6902142e+87
-1.5816675e+88
4.9516396e+88
2.5736174e+86
1.7051961e+88
-4.877421e+86
-8.9058501e+87
4.9039314e+85
5.5452543e+87
-6.5898464e+87
3.8035616e+86
3.2071681e+87
-5.9653207e+87
1.3860968e+87
5.3642572e+86
-8.8943525e+87
3.7671307e+87
4.494778e+87
3.7030728e+88
-3.9438722e+87
-3.3016881e+88