/*--------------------------------*- C++ -*----------------------------------*\
  =========                 |
  \\      /  F ield         | OpenFOAM: The Open Source CFD Toolbox
   \\    /   O peration     | Website:  https://openfoam.org
    \\  /    A nd           | Version:  7
     \\/     M anipulation  |
\*---------------------------------------------------------------------------*/
FoamFile
{
    version     2.0;
    format      ascii;
    class       volScalarField;
    location    "2000";
    object      pMean;
}
// * * * * * * * * * * * * * * * * * * * * * * * * * * * * * * * * * * * * * //

dimensions      [0 2 -2 0 0 0 0];

internalField   nonuniform List<scalar> 
33730
(
-2.1192912e+179
-2.1363568e+179
-1.9841888e+179
-2.2275749e+179
-1.8663409e+179
-1.5606849e+179
-1.7872767e+179
-1.7239102e+179
-2.1555642e+179
-2.1008207e+179
-2.1512518e+179
-2.2764557e+179
-2.1669273e+179
-1.9446461e+179
-1.9016464e+179
-2.0003484e+179
-2.1078537e+179
-2.1830658e+179
-1.753253e+179
-2.025594e+179
-2.0085018e+179
-2.0150869e+179
-2.07504e+179
-2.0481165e+179
-2.2779444e+179
-1.6936144e+179
-2.1776403e+179
-2.2818792e+179
-1.9403819e+179
-2.0369216e+179
-2.343556e+179
-2.3691937e+179
-2.2334462e+179
-2.114325e+179
-1.502907e+179
-1.9754715e+179
-1.9941349e+179
-1.1906048e+179
-2.0682205e+179
-2.1998052e+179
-2.1281157e+179
-2.2414295e+179
-2.4013312e+179
-2.1389861e+179
-1.9695247e+179
-1.8247706e+179
-2.0291339e+179
-1.8914247e+179
-2.2513458e+179
-2.1978241e+179
-1.9777581e+179
-2.745195e+179
-2.3771465e+179
-1.9649808e+179
-2.410019e+179
-2.1531025e+179
-2.1588021e+179
-1.7498333e+179
-2.2237514e+179
-2.4579662e+179
-2.0536905e+179
-2.0178148e+179
-2.0198028e+179
-2.1192619e+179
-2.0839179e+179
-2.013231e+179
-2.0177435e+179
-2.0741488e+179
-2.0575616e+179
-2.3658225e+179
-2.0599324e+179
-2.1473963e+179
-2.1614239e+179
-2.0239775e+179
-1.8933543e+179
-2.0465057e+179
-2.1951536e+179
-2.2290087e+179
-2.0955156e+179
-2.150099e+179
-2.7765452e+179
-2.4063063e+179
-1.7592925e+179
-2.1821861e+179
-2.7401754e+179
-2.2780837e+179
-2.3424405e+179
-2.197921e+179
-3.9624602e+179
-7.105286e+179
-5.5266821e+179
-1.851605e+179
-2.309846e+179
-1.7643858e+179
-5.3592494e+179
-2.2079103e+179
-2.1528156e+179
-2.1083261e+179
-2.1689891e+179
-2.3357548e+179
-2.0029392e+179
-2.2948836e+179
-2.1457681e+179
-2.2965714e+179
-2.2211468e+179
-2.1218284e+179
-2.0165102e+179
-2.1369586e+179
-1.7336226e+179
-2.0170232e+179
-2.0022679e+179
-2.3335919e+179
-1.83146e+179
-2.2595733e+179
-1.7523022e+179
-1.9503065e+179
-1.865983e+179
-1.7498941e+179
-2.2515773e+179
-3.1611716e+179
-2.014654e+179
-3.8560031e+179
-2.8318697e+179
-3.3773888e+179
-2.2330903e+179
-3.2586689e+179
-2.2017557e+179
-2.0009711e+179
-1.8032044e+179
-1.8329334e+179
-2.3936542e+179
-1.975004e+179
-1.9124057e+179
-7.0243147e+179
-2.0833986e+179
-2.0443313e+179
-2.0930022e+179
-2.0895511e+179
-2.033416e+179
-2.0100627e+179
-2.0001265e+179
-2.0865554e+179
-2.0616083e+179
-2.0161472e+179
-2.0285204e+179
-2.0661796e+179
-2.0509824e+179
-2.3053007e+179
-2.2515553e+179
-2.4053442e+179
-2.1740879e+179
-2.133959e+179
-2.1524998e+179
-2.2844093e+179
-1.8282908e+179
-2.2690424e+179
-2.3482644e+179
-2.1210259e+179
-2.1515493e+179
-2.9848958e+179
-1.9788348e+179
-1.7441273e+179
-1.9774256e+179
-2.0726608e+179
-2.2391691e+179
-2.1982538e+179
-6.471365e+179
-2.1462655e+179
-2.624002e+179
-6.9672364e+179
-2.5331964e+179
-1.9065034e+179
-4.0768689e+179
-2.4168697e+179
-5.0028265e+179
-2.2696361e+179
-2.3011901e+179
-2.1758615e+179
-3.5026234e+179
-7.3574276e+179
-5.1100622e+179
-2.0377467e+179
-2.1896146e+179
-2.8048231e+179
-4.5025069e+179
-1.6554183e+179
-5.6000279e+179
-3.1555042e+179
-2.1499341e+179
-2.1074393e+179
-2.1655489e+179
-2.3319401e+179
-3.6896275e+179
-2.0563425e+179
-2.0781183e+179
-2.0476381e+179
-2.0840966e+179
-2.0466234e+179
-2.264635e+179
-2.1983561e+179
-2.4326027e+179
-2.2743074e+179
-2.1724723e+179
-2.5365762e+179
-2.0235598e+179
-2.3260219e+179
-2.1670403e+179
-2.1528117e+179
-2.2237824e+179
-2.328198e+179
-2.1846489e+179
-2.2751344e+179
-2.1231627e+179
-1.8530322e+179
-1.9590974e+179
-2.2100682e+179
-2.6994851e+179
-2.0236809e+179
-4.2760592e+179
-3.0233311e+179
-3.3653599e+179
-1.8651331e+179
-2.7341065e+179
-2.2391406e+179
-1.8762647e+179
-1.7884858e+179
-1.6445271e+179
-2.2878073e+179
-1.8690444e+179
-1.9243917e+179
-4.8745929e+179
-2.0777559e+179
-2.9041284e+179
-6.8001074e+179
-2.8887109e+179
-2.6359542e+179
-3.0955498e+179
-1.8352953e+179
-3.3093905e+179
-1.8558611e+179
-4.1446446e+179
-2.3755611e+179
-1.9696772e+179
-2.0460341e+179
-2.6719419e+179
-2.4980379e+179
-1.5669171e+179
-1.328789e+179
-6.5384715e+179
-1.9560389e+179
-2.0837753e+179
-2.0443698e+179
-2.0822614e+179
-2.0960207e+179
-2.0440878e+179
-2.0321528e+179
-2.084309e+179
-2.0721569e+179
-2.0202608e+179
-2.0178898e+179
-2.0170448e+179
-2.0891519e+179
-2.0706641e+179
-2.0163908e+179
-2.0295293e+179
-2.0659535e+179
-2.0506763e+179
-2.1202463e+179
-2.0477754e+179
-2.0804605e+179
-2.1396498e+179
-2.0944957e+179
-2.1345471e+179
-2.1553804e+179
-2.2919592e+179
-2.1805215e+179
-2.6391162e+179
-2.8972897e+179
-2.1546479e+179
-2.1048271e+179
-2.1590729e+179
-1.8871573e+179
-2.2718398e+179
-2.0192428e+179
-1.4322911e+179
-2.9462762e+179
-5.0815321e+179
-2.1171243e+179
-2.1506803e+179
-1.7566057e+179
-6.9164026e+179
-2.2276559e+179
-3.1710263e+179
-2.8088349e+179
-1.7525834e+179
-2.3378239e+179
-2.224006e+179
-2.1764533e+179
-6.5720989e+179
-2.1463496e+179
-5.3087409e+179
-2.5923953e+179
-5.9964987e+179
-2.5822316e+179
-2.0618373e+179
-4.0241917e+179
-3.8514296e+179
-2.4929797e+179
-4.2422398e+179
-2.2705726e+179
-2.2983167e+179
-2.1746161e+179
-1.6652407e+179
-4.9325639e+179
-2.8915709e+179
-2.8480475e+179
-4.3777745e+179
-1.1582332e+180
-3.1228556e+179
-3.2267106e+179
-3.9745214e+179
-3.9812383e+179
-1.9096005e+179
-1.986435e+179
-2.0734478e+179
-2.077782e+179
-2.1283894e+179
-2.1118583e+179
-2.0679322e+179
-2.0840099e+179
-2.0405707e+179
-2.0902358e+179
-2.0413941e+179
-2.2312493e+179
-2.2056422e+179
-2.3948579e+179
-2.403852e+179
-2.2028393e+179
-2.1871909e+179
-2.2183787e+179
-1.9795262e+179
-2.1933783e+179
-2.1967664e+179
-2.36857e+179
-2.6001931e+179
-2.2991455e+179
-2.294198e+179
-2.1782253e+179
-2.5487981e+179
-3.785957e+179
-3.1514845e+179
-2.0531598e+179
-2.1589478e+179
-2.2365187e+179
-2.2128129e+179
-2.2719453e+179
-2.1896777e+179
-2.3466991e+179
-2.1724121e+179
-2.1173659e+179
-5.4815182e+179
-4.5897576e+179
-4.4659083e+179
-5.9506226e+179
-2.0571939e+179
-3.507856e+179
-4.8917162e+179
-3.27065e+179
-3.9341198e+179
-2.6890546e+179
-2.1108391e+179
-6.9127816e+179
-1.6207746e+179
-6.0748537e+179
-2.2872644e+179
-1.6172965e+179
-1.9743697e+179
-1.7758892e+179
-1.7639711e+179
-1.5978829e+179
-1.8580174e+179
-4.049558e+179
-2.077444e+179
-4.787854e+179
-2.4036898e+179
-5.5164944e+179
-2.9194725e+179
-3.0326064e+179
-4.221568e+179
-2.3192019e+179
-2.1855704e+179
-2.0235865e+179
-2.0231137e+179
-2.1961675e+179
-1.6305183e+179
-1.8006323e+179
-2.8150609e+179
-2.6572739e+179
-2.8303132e+179
-6.8583617e+179
-1.9592007e+179
-1.950958e+179
-1.946353e+179
-1.9780733e+179
-1.9784998e+179
-2.0339745e+179
-2.0567305e+179
-2.0926504e+179
-2.0877609e+179
-2.0524084e+179
-2.0325782e+179
-2.0658826e+179
-2.0809385e+179
-2.0287535e+179
-2.0343431e+179
-2.084603e+179
-2.0735888e+179
-2.021343e+179
-2.0185578e+179
-2.0184042e+179
-2.0895372e+179
-2.0715352e+179
-2.3021302e+179
-1.9067574e+179
-1.9025122e+179
-2.1238632e+179
-2.0866273e+179
-2.1103541e+179
-1.8176687e+179
-2.1165191e+179
-2.261529e+179
-2.3786762e+179
-2.0716721e+179
-2.128076e+179
-1.9523813e+179
-2.3000125e+179
-2.156791e+179
-2.1227233e+179
-2.1510076e+179
-2.2883555e+179
-2.1966222e+179
-4.7724738e+179
-4.087307e+179
-2.1519993e+179
-2.0950362e+179
-2.1323401e+179
-2.1286e+179
-1.5474386e+179
-2.3954947e+179
-2.2456683e+179
-1.7674891e+179
-3.1359192e+179
-4.0710033e+179
-4.6821186e+179
-2.1170606e+179
-2.1508718e+179
-1.182512e+179
-2.8017427e+179
-5.4006555e+179
-2.2606097e+179
-3.1955211e+179
-2.524742e+179
-5.1168264e+179
-2.695649e+179
-2.3179143e+179
-2.2237766e+179
-2.1760326e+179
-4.3320199e+179
-4.1758931e+179
-2.6521162e+179
-2.5910197e+179
-1.9878532e+179
-2.3026685e+179
-3.5589852e+179
-2.5078302e+179
-4.8103197e+179
-4.1511941e+179
-2.968869e+179
-1.2824359e+180
-3.1343254e+179
-3.2047274e+179
-2.538495e+179
-2.4438544e+179
-2.8198756e+179
-2.0013361e+179
-2.0044379e+179
-1.9636044e+179
-2.0130913e+179
-1.9546751e+179
-2.0772496e+179
-2.0923269e+179
-2.1317277e+179
-2.1334803e+179
-2.0872999e+179
-2.0660889e+179
-2.1220658e+179
-2.110176e+179
-2.0595421e+179
-2.0828301e+179
-2.0432508e+179
-2.0941491e+179
-2.0423635e+179
-2.2876873e+179
-2.1531e+179
-2.2537633e+179
-2.3595635e+179
-2.1739368e+179
-1.4000112e+179
-1.6347809e+179
-1.4851223e+179
-1.9900869e+179
-2.1674903e+179
-2.3150485e+179
-2.3024702e+179
-2.3063048e+179
-2.4208967e+179
-2.1767782e+179
-2.0083602e+179
-2.8018489e+179
-2.0795257e+179
-2.7263067e+179
-2.1905148e+179
-2.6605956e+179
-2.3512729e+179
-3.0347326e+179
-2.2817108e+179
-2.4948281e+179
-2.2860824e+179
-2.1761521e+179
-4.6294438e+179
-7.3136217e+179
-4.2862794e+179
-3.7388943e+179
-2.1596267e+179
-2.3449228e+179
-2.426067e+179
-2.2125028e+179
-3.2593858e+179
-2.1907171e+179
-2.6104994e+179
-2.5602667e+179
-4.1998234e+179
-2.1172564e+179
-5.6609784e+179
-4.5360019e+179
-4.3161689e+179
-5.3049542e+179
-2.0659745e+179
-3.7663348e+179
-3.6131489e+179
-3.4892478e+179
-6.7278003e+179
-6.9810843e+179
-5.4474752e+179
-2.3326375e+179
-2.266762e+179
-1.9600244e+179
-2.2026035e+179
-2.2303705e+179
-1.5348375e+179
-1.8155837e+179
-1.3242421e+179
-1.8327854e+179
-3.3141392e+179
-2.8222784e+179
-2.0627563e+179
-5.5640747e+179
-2.9342852e+179
-2.3952062e+179
-2.2168006e+179
-1.8733003e+179
-1.6242987e+179
-2.310331e+179
-3.0462319e+179
-3.31259e+179
-1.9399775e+179
-2.1849849e+179
-7.8639223e+179
-3.534477e+179
-4.2076023e+179
-3.7883462e+179
-2.7462866e+179
-7.0826085e+179
-1.9075629e+179
-1.9608805e+179
-1.9531558e+179
-1.9571759e+179
-1.9911256e+179
-1.9986003e+179
-1.9523595e+179
-1.9470262e+179
-1.9805487e+179
-1.9878757e+179
-2.0574713e+179
-2.0445194e+179
-2.0656795e+179
-2.0826729e+179
-2.0519774e+179
-2.0472647e+179
-2.0915731e+179
-2.0799077e+179
-2.0400767e+179
-2.0334852e+179
-2.0653132e+179
-2.0830044e+179
-2.0322292e+179
-2.0346067e+179
-2.0847856e+179
-2.0737682e+179
-2.0215455e+179
-2.1788456e+179
-2.4407327e+179
-2.1413707e+179
-2.1524171e+179
-2.1541567e+179
-2.0883561e+179
-2.0520369e+179
-2.2314446e+179
-2.2710928e+179
-2.4846168e+179
-2.121136e+179
-1.645411e+179
-2.1214908e+179
-2.0887318e+179
-2.2474982e+179
-2.3887476e+179
-1.9510006e+179
-2.1461964e+179
-2.2467575e+179
-4.9798234e+179
-4.6041977e+179
-1.5027796e+179
-2.9958797e+179
-1.982576e+179
-4.2233194e+179
-1.9692719e+179
-2.2581204e+179
-2.121734e+179
-2.1399217e+179
-2.2731173e+179
-2.1858996e+179
-4.0080086e+179
-3.0084056e+179
-2.1520998e+179
-2.0945508e+179
-1.9208292e+179
-2.3221566e+179
-2.1274387e+179
-3.8859318e+179
-2.8149612e+179
-2.4147107e+179
-2.2444196e+179
-2.7355355e+179
-3.0860105e+179
-2.8427095e+179
-8.2727952e+178
-6.2644148e+179
-2.759433e+179
-2.2633152e+179
-5.2408015e+179
-5.1883185e+179
-2.5379767e+179
-2.3201682e+179
-3.9831926e+179
-1.7328484e+179
-2.660865e+179
-1.9976915e+179
-3.0861011e+179
-2.0950459e+179
-2.8759701e+179
-3.0162992e+179
-1.2717193e+179
-2.0156493e+179
-1.9772739e+179
-2.0299755e+179
-2.0242119e+179
-1.9722141e+179
-1.9581241e+179
-1.954821e+179
-1.9560762e+179
-1.959029e+179
-2.0068555e+179
-1.9732968e+179
-2.0154944e+179
-1.9624871e+179
-2.1024419e+179
-2.0939889e+179
-2.1067851e+179
-2.1217953e+179
-2.0959337e+179
-2.0835667e+179
-2.1206092e+179
-2.123475e+179
-2.0803952e+179
-2.0701359e+179
-2.1238633e+179
-2.1119454e+179
-2.0621754e+179
-2.0828911e+179
-2.043537e+179
-2.094596e+179
-2.0424902e+179
-2.2634171e+179
-2.2354206e+179
-2.4114089e+179
-2.346582e+179
-2.2004014e+179
-1.7893132e+179
-1.885335e+179
-2.066881e+179
-1.7545393e+179
-2.112421e+179
-2.2506425e+179
-1.9996993e+179
-2.3341944e+179
-2.2291886e+179
-2.1501829e+179
-1.3126952e+179
-1.2966966e+179
-1.5886535e+179
-2.03851e+179
-2.1615907e+179
-2.4067256e+179
-2.2900769e+179
-2.4594407e+179
-2.2789017e+179
-2.2878311e+179
-2.1138633e+179
-2.1771577e+179
-3.268643e+179
-4.1244285e+179
-2.4989488e+179
-4.3311955e+179
-2.1903858e+179
-2.76868e+179
-2.89281e+179
-2.3510071e+179
-6.4133776e+179
-2.2812386e+179
-2.6203777e+179
-3.1596187e+179
-4.0801658e+179
-2.1762314e+179
-3.9628833e+179
-4.7047042e+179
-3.4058946e+179
-3.6355379e+179
-2.3572433e+179
-2.8712968e+179
-3.3199515e+179
-2.7623703e+179
-2.6243875e+179
-2.889696e+179
-4.9136592e+179
-4.180641e+179
-2.0784249e+179
-3.1416777e+179
-7.0846682e+179
-2.3599145e+179
-2.1167761e+179
-1.9708885e+179
-2.7464226e+179
-2.1866223e+179
-2.3950805e+179
-1.94247e+179
-2.8602728e+179
-2.1606393e+179
-7.9172469e+179
-5.0668165e+179
-2.2690411e+179
-4.4268808e+179
-3.001156e+179
-2.3949142e+179
-2.0703606e+179
-2.3300516e+179
-2.1123198e+179
-2.2852029e+179
-2.1741856e+179
-2.3228826e+179
-2.8596127e+179
-1.5083792e+179
-1.510166e+179
-2.7177272e+179
-4.9319902e+179
-7.7552274e+179
-4.1649653e+179
-3.8767874e+179
-7.760291e+179
-3.3459333e+179
-4.5483103e+179
-3.1259148e+179
-1.9111679e+179
-1.9103923e+179
-1.8895394e+179
-1.9110238e+179
-1.8899026e+179
-1.9596017e+179
-1.957094e+179
-1.9545303e+179
-1.9920274e+179
-1.9909744e+179
-1.9524359e+179
-1.9527825e+179
-1.9909934e+179
-1.9948912e+179
-1.9555752e+179
-1.9486116e+179
-1.983167e+179
-1.9908918e+179
-2.0180478e+179
-2.0401415e+179
-2.0785737e+179
-2.0813718e+179
-2.0478049e+179
-2.0355297e+179
-2.0646159e+179
-2.0771915e+179
-2.0455713e+179
-2.0493993e+179
-2.0930103e+179
-2.0809202e+179
-2.0410266e+179
-2.0336191e+179
-2.0652882e+179
-2.08328e+179
-2.0325634e+179
-2.1604586e+179
-2.1417954e+179
-2.2096053e+179
-2.1064937e+179
-2.1308072e+179
-2.1765898e+179
-2.218997e+179
-2.0791941e+179
-2.1338166e+179
-3.188478e+179
-2.114179e+179
-2.0960827e+179
-2.8724848e+179
-2.1624906e+179
-2.7125259e+179
-2.1859333e+179
-1.6145344e+179
-2.1840889e+179
-2.1146512e+179
-2.2125191e+179
-4.3095902e+179
-2.2940579e+179
-4.3903751e+179
-2.1150139e+179
-2.0802423e+179
-5.9542127e+179
-6.047011e+179
-2.1813514e+179
-2.1152518e+179
-2.1223743e+179
-2.2339359e+179
-4.656448e+179
-4.3005818e+179
-2.7322586e+179
-1.8898084e+179
-2.4553867e+179
-2.0619614e+179
-3.6134841e+179
-3.7403109e+179
-2.4058154e+179
-2.3222043e+179
-2.1218365e+179
-2.139459e+179
-2.2725478e+179
-2.1853018e+179
-3.8374766e+179
-2.1390467e+179
-2.3368154e+179
-3.6979118e+179
-3.7665781e+179
-2.801048e+179
-2.4187836e+179
-2.2860955e+179
-5.4085126e+179
-3.2699548e+179
-2.7767352e+179
-4.2328266e+179
-2.2024828e+179
-2.5403284e+179
-1.1374384e+179
-1.7489599e+179
-1.266365e+179
-2.0170031e+179
-1.9837074e+179
-2.0377473e+179
-2.0351959e+179
-1.9828741e+179
-1.9643853e+179
-1.964503e+179
-1.9656167e+179
-1.9660255e+179
-1.9873827e+179
-1.9454041e+179
-2.03286e+179
-2.0287765e+179
-1.9824502e+179
-1.9401295e+179
-2.008249e+179
-1.9742524e+179
-2.0175103e+179
-1.9636982e+179
-2.1134749e+179
-2.1257483e+179
-2.1102489e+179
-2.1481627e+179
-2.1009639e+179
-2.0802771e+179
-2.0860403e+179
-2.1069163e+179
-2.0821112e+179
-2.0834741e+179
-2.1200923e+179
-2.1234038e+179
-2.0805563e+179
-2.0704604e+179
-2.1240286e+179
-2.11217e+179
-2.0624071e+179
-2.2708858e+179
-2.2386839e+179
-2.5088595e+179
-2.4434654e+179
-2.2509236e+179
-2.3570862e+179
-1.9580264e+179
-2.5885766e+179
-2.0565179e+179
-2.1986328e+179
-2.3717562e+179
-2.2350968e+179
-2.3037695e+179
-2.1712752e+179
-2.1551465e+179
-1.9931852e+179
-1.4650036e+179
-2.1731045e+179
-2.1665189e+179
-2.1047847e+179
-2.2138399e+179
-2.1970141e+179
-1.8849868e+179
-2.3113709e+179
-2.3872292e+179
-2.3501005e+179
-2.1443016e+179
-5.3505406e+179
-4.583678e+179
-7.3189653e+179
-2.2946583e+179
-2.1614358e+179
-2.4829654e+179
-1.9951767e+179
-2.2889594e+179
-6.6062394e+179
-2.2771329e+179
-2.2727777e+179
-1.6153893e+179
-2.9199041e+179
-2.1776502e+179
-2.8656346e+179
-3.3614759e+179
-1.9710683e+179
-3.4405329e+179
-2.7799319e+179
-3.2908744e+179
-2.8346038e+179
-5.628568e+179
-2.6362677e+179
-3.2879188e+179
-4.7390143e+179
-4.0832753e+179
-2.9351735e+179
-5.8633713e+179
-3.3376297e+179
-2.9439914e+179
-3.6333684e+179
-5.0439249e+179
-2.0733043e+179
-2.3052469e+179
-2.3271277e+179
-2.1166687e+179
-2.2917464e+179
-2.4019114e+179
-2.5429864e+179
-2.529383e+179
-3.1052637e+179
-2.4835756e+179
-3.3587368e+179
-5.0808766e+179
-6.2149481e+179
-4.0001264e+179
-8.1893471e+179
-4.7504163e+179
-2.2323792e+179
-4.1201011e+179
-2.0293383e+179
-2.2455377e+179
-1.8090373e+179
-1.9673578e+179
-2.1200278e+179
-2.0981963e+179
-2.1427842e+179
-2.6992754e+179
-1.8927007e+179
-3.5335688e+179
-3.270974e+179
-5.4740887e+179
-8.7348435e+179
-4.7166628e+179
-3.9394063e+179
-6.1286985e+179
-4.0932799e+179
-3.5998953e+179
-1.9060204e+179
-1.8917045e+179
-1.8881166e+179
-1.9119602e+179
-1.9124107e+179
-1.9121679e+179
-1.8803101e+179
-1.9137659e+179
-1.8807335e+179
-1.9496102e+179
-1.9536419e+179
-1.9469241e+179
-1.9874548e+179
-1.9788941e+179
-1.9556544e+179
-1.9541668e+179
-1.9992519e+179
-1.9947192e+179
-1.9545952e+179
-1.9560034e+179
-1.9925512e+179
-1.9995958e+179
-1.9557562e+179
-1.9487247e+179
-1.9833845e+179
-1.9910354e+179
-1.9933886e+179
-2.0171688e+179
-2.0456373e+179
-2.0559773e+179
-2.0200733e+179
-2.0246272e+179
-2.0549536e+179
-2.0679246e+179
-2.0301352e+179
-2.0394633e+179
-2.0655972e+179
-2.0786808e+179
-2.0461724e+179
-2.0495711e+179
-2.0933045e+179
-2.0811809e+179
-2.0411549e+179
-2.2142912e+179
-1.6217615e+179
-1.5789156e+179
-2.1952553e+179
-2.0886203e+179
-2.1026033e+179
-2.2800216e+179
-2.1088861e+179
-2.0558015e+179
-2.3748774e+179
-2.8907818e+179
-2.0576926e+179
-2.06752e+179
-2.0548216e+179
-1.9961718e+179
-2.1132282e+179
-2.1876265e+179
-2.2476978e+179
-2.5368117e+179
-5.6713996e+179
-2.1084106e+179
-2.0911402e+179
-4.9154555e+179
-2.546225e+179
-1.9417445e+179
-2.1759582e+179
-5.355985e+179
-2.2761796e+179
-6.6619613e+179
-2.1785398e+179
-2.1079895e+179
-6.3702631e+179
-2.3089518e+179
-3.7908135e+179
-2.4820177e+179
-4.4770011e+179
-2.1149605e+179
-2.0799927e+179
-5.603785e+179
-6.0171764e+179
-3.5748235e+179
-2.2785387e+179
-2.1991768e+179
-2.1221077e+179
-2.2343507e+179
-2.7101533e+179
-5.9241099e+179
-2.2119478e+179
-2.0678114e+179
-3.4723788e+179
-4.7160439e+179
-2.1153114e+179
-2.3251714e+179
-3.7722792e+179
-2.2510131e+179
-2.1830987e+179
-3.1116304e+179
-1.5083791e+179
-2.8116609e+179
-2.8104329e+179
-3.0659896e+179
-1.7741679e+179
-1.9413072e+179
-2.5990801e+179
-2.0236708e+179
-1.9861064e+179
-2.0459192e+179
-2.0413009e+179
-1.9845975e+179
-1.9639364e+179
-1.9649425e+179
-1.9669008e+179
-1.9676015e+179
-1.9932408e+179
-1.950462e+179
-2.0377945e+179
-2.0363546e+179
-1.9914738e+179
-1.9493498e+179
-1.9336605e+179
-1.9351791e+179
-1.9884639e+179
-1.9465862e+179
-2.0341464e+179
-2.0294186e+179
-1.9839141e+179
-1.9416422e+179
-2.0083848e+179
-1.9743571e+179
-2.0176793e+179
-1.963808e+179
-2.094078e+179
-2.1248661e+179
-2.1696454e+179
-2.1710826e+179
-2.1221627e+179
-2.1126764e+179
-2.0964962e+179
-2.1280979e+179
-2.0904569e+179
-2.0789774e+179
-2.0842585e+179
-2.1067394e+179
-2.0815238e+179
-2.083483e+179
-2.1200432e+179
-2.123518e+179
-2.0805761e+179
-2.2729309e+179
-2.2456562e+179
-2.5059184e+179
-2.4768981e+179
-2.2376517e+179
-2.0862575e+179
-2.3921877e+179
-2.0371188e+179
-1.8337144e+179
-2.249167e+179
-2.5013898e+179
-2.732656e+179
-2.4337464e+179
-2.57592e+179
-2.2320484e+179
-2.3571375e+179
-2.0592532e+179
-3.8882108e+179
-2.4577203e+179
-2.1880211e+179
-2.3987914e+179
-2.3455567e+179
-2.4122523e+179
-2.268525e+179
-2.3786919e+179
-2.419969e+179
-2.146034e+179
-5.492133e+179
-4.2299633e+179
-7.0453042e+179
-7.7645353e+179
-2.1041988e+179
-2.2109914e+179
-2.4651117e+179
-1.6995539e+179
-4.4918404e+179
-2.3107698e+179
-2.5404335e+179
-2.0144506e+179
-3.9428686e+179
-2.1442668e+179
-5.1222017e+179
-4.5913155e+179
-7.2557027e+179
-1.7771035e+179
-2.4908048e+179
-2.7794889e+179
-2.3758306e+179
-6.3469933e+179
-2.2728627e+179
-2.1642046e+179
-1.8345677e+179
-2.3477283e+179
-3.3613592e+179
-2.2256679e+179
-2.4272843e+179
-3.2966847e+179
-3.1367859e+179
-4.049813e+179
-6.8789129e+179
-5.9274709e+179
-3.4766423e+179
-3.1258092e+179
-2.0317135e+179
-2.2711544e+179
-2.4915073e+179
-2.3702775e+179
-2.4309425e+179
-1.9567689e+179
-2.7835937e+179
-2.7041797e+179
-2.2344389e+179
-2.8424901e+179
-4.8417037e+179
-5.1343121e+179
-4.0614446e+179
-1.244255e+180
-2.9019961e+179
-5.0435532e+179
-5.2091017e+179
-3.7991797e+179
-1.9863857e+179
-2.1474142e+179
-1.4892993e+179
-1.8460414e+179
-1.1613502e+179
-1.6004969e+179
-2.5712932e+179
-2.0175106e+179
-2.292812e+179
-1.8475757e+179
-5.4215815e+179
-5.5119978e+179
-3.1853653e+179
-7.2282363e+179
-1.8651105e+179
-5.442271e+179
-9.2780382e+179
-4.108482e+179
-1.8861471e+179
-1.9069141e+179
-1.9115804e+179
-1.8890144e+179
-1.882258e+179
-1.8796195e+179
-1.9116691e+179
-1.9136277e+179
-1.914448e+179
-1.8804936e+179
-1.9154836e+179
-1.8805771e+179
-1.9282881e+179
-1.9462633e+179
-1.9384963e+179
-1.970807e+179
-1.9641691e+179
-1.9512433e+179
-1.9442817e+179
-1.984179e+179
-1.9813209e+179
-1.9588663e+179
-1.958497e+179
-2.0012651e+179
-1.9991089e+179
-1.9546642e+179
-1.9561657e+179
-1.9926801e+179
-1.9999125e+179
-1.9718161e+179
-1.9990265e+179
-2.0449903e+179
-2.0246843e+179
-2.0051027e+179
-2.00121e+179
-2.0277453e+179
-2.036915e+179
-2.0103688e+179
-2.0269757e+179
-2.0548275e+179
-2.068035e+179
-2.0356314e+179
-2.0397376e+179
-2.0657879e+179
-2.0789118e+179
-2.0462678e+179
-2.1749463e+179
-1.9016474e+179
-1.621359e+179
-1.9647941e+179
-2.177981e+179
-2.2532437e+179
-2.368833e+179
-2.0829215e+179
-2.0908622e+179
-2.0923267e+179
-1.6295329e+179
-2.3597461e+179
-2.001778e+179
-2.5219275e+179
-2.3035352e+179
-2.0497041e+179
-2.098779e+179
-2.0124744e+179
-2.0150471e+179
-2.4324638e+179
-3.8840804e+179
-2.0469545e+179
-2.0609058e+179
-1.8940563e+179
-2.0712718e+179
-1.6867698e+179
-1.9647421e+179
-2.1514192e+179
-2.6276307e+179
-6.9555456e+179
-3.0800351e+179
-4.642272e+179
-2.1084171e+179
-2.0910701e+179
-3.4798267e+179
-6.13934e+179
-1.5430259e+179
-2.1975633e+179
-2.6618862e+179
-2.1888592e+179
-4.7822034e+179
-2.5175771e+179
-7.1808754e+179
-2.1794335e+179
-2.1080752e+179
-5.689466e+179
-4.6024642e+179
-2.596477e+179
-2.4966723e+179
-3.4293694e+179
-4.3135082e+179
-2.5737858e+179
-2.2025963e+179
-6.0419791e+179
-2.4450925e+179
-2.2362652e+179
-4.2964108e+179
-1.1285024e+179
-2.0861418e+179
-1.8048047e+179
-1.9597833e+179
-1.1918129e+179
-1.3961404e+179
-9.7800537e+178
-2.0120011e+179
-2.0514302e+179
-1.987402e+179
-2.0499621e+179
-1.9895618e+179
-1.9661493e+179
-1.9643341e+179
-1.9669329e+179
-1.969297e+179
-1.9980997e+179
-1.9521899e+179
-2.0453315e+179
-2.0433237e+179
-1.9957682e+179
-1.9503499e+179
-1.9372479e+179
-1.9367698e+179
-1.9942255e+179
-1.951743e+179
-1.9171942e+179
-2.0387132e+179
-2.0376068e+179
-1.9499585e+179
-1.9925474e+179
-1.916067e+179
-1.9885508e+179
-1.9462694e+179
-2.0342687e+179
-2.0294956e+179
-1.9840181e+179
-1.9422093e+179
-2.0592777e+179
-2.1161754e+179
-2.1704893e+179
-2.1754794e+179
-2.1275521e+179
-2.1232937e+179
-2.1792842e+179
-2.1602822e+179
-2.1136698e+179
-2.1089657e+179
-2.0957895e+179
-2.1240025e+179
-2.0887506e+179
-2.0789357e+179
-2.0840889e+179
-2.1067648e+179
-2.0815418e+179
-2.2785334e+179
-2.2252877e+179
-2.4083993e+179
-2.4580854e+179
-2.2300517e+179
-2.1384393e+179
-2.2826021e+179
-2.446434e+179
-2.4755202e+179
-2.2763257e+179
-2.5895684e+179
-2.5857377e+179
-2.5475887e+179
-2.4620498e+179
-2.2680064e+179
-4.0412168e+179
-3.8178451e+179
-1.7136279e+179
-1.5748349e+179
-2.243644e+179
-2.6851493e+179
-2.486037e+179
-4.4624543e+179
-2.4210072e+179
-2.5954018e+179
-2.5425526e+179
-2.2247316e+179
-3.8203559e+179
-3.1429299e+179
-5.2195958e+179
-4.667452e+179
-2.1875928e+179
-2.9209491e+179
-2.3775656e+179
-2.345395e+179
-7.0470191e+179
-2.2675681e+179
-2.8420848e+179
-2.268739e+179
-4.0346916e+179
-2.1455651e+179
-4.9395038e+179
-4.230577e+179
-7.0430467e+179
-7.1319994e+179
-2.4969345e+179
-2.2663145e+179
-3.2919384e+179
-4.2315533e+179
-2.5538756e+179
-2.0115453e+179
-3.3458565e+179
-3.4578498e+179
-2.8635545e+179
-3.7668745e+179
-2.1153612e+179
-2.2235684e+179
-3.1626634e+179
-1.8270913e+179
-2.1624049e+179
-1.9583433e+179
-3.1557438e+179
-2.9223433e+179
-6.6925549e+179
-2.9980626e+179
-1.9931372e+179
-2.1878925e+179
-2.4094026e+179
-2.0103867e+179
-1.9435867e+179
-1.9619468e+179
-3.3075282e+179
-3.2224246e+179
-2.7184923e+179
-1.7987786e+179
-4.3078606e+179
-7.0151382e+179
-4.3384617e+179
-3.4620759e+179
-4.3895904e+179
-4.3855139e+179
-3.3585387e+179
-1.2946614e+180
-1.9444901e+179
-2.2065272e+179
-1.3894444e+179
-1.9752115e+179
-1.4078971e+179
-1.7238024e+179
-1.744062e+179
-1.6202634e+179
-1.4123985e+179
-1.9519134e+179
-6.4135607e+179
-8.9938597e+179
-4.8160754e+179
-3.5703931e+179
-5.0989877e+179
-4.6811324e+179
-3.0396068e+179
-5.3760999e+179
-1.8949467e+179
-1.8722411e+179
-1.8855954e+179
-1.9081177e+179
-1.8757439e+179
-1.9070424e+179
-1.912546e+179
-1.8796177e+179
-1.8824319e+179
-1.8803638e+179
-1.9148125e+179
-1.9160622e+179
-1.914592e+179
-1.8805652e+179
-1.9155662e+179
-1.8806527e+179
-1.9051779e+179
-1.9297064e+179
-1.909803e+179
-1.9549405e+179
-1.9363108e+179
-1.9435501e+179
-1.9313329e+179
-1.9788684e+179
-1.9663823e+179
-1.9561234e+179
-1.9477204e+179
-1.992864e+179
-1.9837932e+179
-1.9590091e+179
-1.9587207e+179
-2.0014616e+179
-1.999387e+179
-1.933218e+179
-1.9671228e+179
-1.9909716e+179
-2.026058e+179
-1.9921323e+179
-1.9982557e+179
-2.0233006e+179
-2.006173e+179
-1.9968875e+179
-2.0019077e+179
-2.0243337e+179
-2.0317133e+179
-2.0102541e+179
-2.0271698e+179
-2.0549733e+179
-2.0681353e+179
-2.0360087e+179
-2.0898719e+179
-1.7815358e+179
-1.6765049e+179
-1.8061013e+179
-2.0551446e+179
-2.3163331e+179
-2.2168388e+179
-2.0494457e+179
-2.070813e+179
-2.4037415e+179
-1.6983939e+179
-1.3539133e+179
-2.0091447e+179
-2.802569e+179
-2.3619574e+179
-2.1228702e+179
-2.2094142e+179
-2.0496107e+179
-2.0482943e+179
-5.2025835e+179
-7.8278467e+179
-1.4038969e+179
-3.909198e+179
-1.8405496e+179
-4.4155183e+179
-3.0242737e+179
-1.9894055e+179
-2.0367689e+179
-2.1020762e+179
-2.0112154e+179
-2.0043318e+179
-2.1757527e+179
-3.0318499e+179
-2.0465048e+179
-2.0605368e+179
-2.129988e+179
-2.1574215e+179
-2.0732635e+179
-2.0042069e+179
-2.0879887e+179
-2.0419324e+179
-2.1558935e+179
-8.9612177e+179
-6.8035582e+179
-2.452988e+179
-4.9406971e+179
-3.6787347e+179
-2.1834006e+179
-2.2146752e+179
-2.1938315e+179
-3.26571e+179
-2.7563206e+179
-2.5391845e+179
-4.3169291e+179
-1.7794148e+179
-2.6275251e+179
-4.2922318e+179
-3.6416402e+179
-2.6328325e+179
-1.85275e+179
-2.4493854e+179
-6.0039563e+178
-1.0898371e+179
-1.5392075e+179
-1.993004e+179
-1.9811134e+179
-2.0382167e+179
-2.0505565e+179
-1.9861891e+179
-1.9573512e+179
-1.961629e+179
-1.9636763e+179
-1.9590781e+179
-2.0534144e+179
-2.0013238e+179
-1.9503322e+179
-2.0552558e+179
-2.0019758e+179
-1.9519922e+179
-1.9370825e+179
-1.9348502e+179
-1.9994102e+179
-1.9542124e+179
-1.9175984e+179
-2.0466503e+179
-2.0441453e+179
-1.9526128e+179
-1.9967417e+179
-1.9184447e+179
-1.9943014e+179
-1.9520432e+179
-1.9154834e+179
-2.0388218e+179
-2.0377198e+179
-1.9500728e+179
-1.9145774e+179
-1.9926243e+179
-1.9462734e+179
-1.9422624e+179
-2.0424209e+179
-2.0902237e+179
-2.1380272e+179
-2.1604538e+179
-2.1121362e+179
-2.1162363e+179
-2.1884078e+179
-2.1876422e+179
-2.1255712e+179
-2.1219893e+179
-2.1756709e+179
-2.1570848e+179
-2.1124519e+179
-2.1086111e+179
-2.0958084e+179
-2.1238389e+179
-2.0886939e+179
-2.2476191e+179
-2.2365257e+179
-2.4076592e+179
-2.3440638e+179
-2.2064625e+179
-2.4532543e+179
-2.4260362e+179
-2.3023659e+179
-2.0862925e+179
-2.2406287e+179
-2.4785283e+179
-2.500952e+179
-2.6136468e+179
-2.2537868e+179
-2.2762244e+179
-2.2094834e+179
-1.9377014e+179
-2.6030625e+179
-3.002853e+179
-2.2669917e+179
-2.5515669e+179
-2.8207334e+179
-2.9230874e+179
-2.534592e+179
-2.7101893e+179
-2.667167e+179
-2.2604831e+179
-8.9346839e+179
-8.1595682e+179
-5.4866164e+179
-3.4135999e+179
-2.2438087e+179
-2.795992e+179
-3.2199856e+179
-2.4864522e+179
-6.5391342e+179
-2.421319e+179
-2.6731242e+179
-2.3940109e+179
-4.0407644e+179
-2.2247485e+179
-3.7510009e+179
-2.9746963e+179
-3.8244374e+179
-4.1252327e+179
-2.9621851e+179
-3.1334181e+179
-8.0512776e+179
-6.6557704e+179
-2.8798495e+179
-2.5559027e+179
-4.7391417e+179
-3.2117097e+179
-2.3485724e+179
-3.594821e+179
-3.2818501e+179
-2.0252083e+179
-1.9018492e+179
-3.0047757e+179
-3.8369185e+179
-3.2718221e+179
-3.6301257e+179
-2.7798296e+179
-1.5938713e+179
-2.8718748e+179
-1.9582803e+179
-2.0939644e+179
-1.6350974e+179
-1.779138e+179
-1.6680624e+179
-2.0037956e+179
-3.3246202e+179
-2.6880482e+179
-2.5444255e+179
-2.4425756e+179
-2.6720526e+179
-5.2052539e+179
-4.4715989e+179
-5.595895e+179
-3.8337112e+179
-6.2444837e+179
-3.9906954e+179
-2.767106e+179
-1.9210474e+179
-2.2523079e+179
-1.8808874e+179
-1.6696065e+179
-1.4481795e+179
-1.7483508e+179
-1.626541e+178
-2.3063742e+179
-1.3093218e+179
-1.5971056e+179
-5.5902466e+179
-5.2749536e+179
-1.8402277e+180
-6.7969034e+179
-5.4163173e+179
-9.0829175e+179
-3.833227e+179
-3.4073593e+179
-1.7398236e+179
-1.8073233e+179
-1.8113928e+179
-1.8444585e+179
-1.8398252e+179
-1.867618e+179
-1.8762847e+179
-1.8594075e+179
-1.8688166e+179
-1.8916758e+179
-1.8944346e+179
-1.8648118e+179
-1.8709693e+179
-1.9020697e+179
-1.875997e+179
-1.9098032e+179
-1.912937e+179
-1.8790562e+179
-1.8824081e+179
-1.8804406e+179
-1.9149316e+179
-1.9161844e+179
-1.8729212e+179
-1.8930265e+179
-1.8957778e+179
-1.9300647e+179
-1.9219959e+179
-1.922833e+179
-1.9149442e+179
-1.9619545e+179
-1.9554656e+179
-1.945054e+179
-1.9337114e+179
-1.980681e+179
-1.9691015e+179
-1.9562868e+179
-1.94786e+179
-1.993335e+179
-1.9840588e+179
-1.8717337e+179
-1.9367735e+179
-1.97971e+179
-1.9817992e+179
-1.9356843e+179
-1.9663677e+179
-2.0005999e+179
-2.0157406e+179
-1.9831915e+179
-1.9958644e+179
-2.0154344e+179