/*--------------------------------*- C++ -*----------------------------------*\
  =========                 |
  \\      /  F ield         | OpenFOAM: The Open Source CFD Toolbox
   \\    /   O peration     | Website:  https://openfoam.org
    \\  /    A nd           | Version:  7
     \\/     M anipulation  |
\*---------------------------------------------------------------------------*/
FoamFile
{
    version     2.0;
    format      ascii;
    class       volVectorField;
    location    "2000";
    object      U;
}
// * * * * * * * * * * * * * * * * * * * * * * * * * * * * * * * * * * * * * //

dimensions      [0 1 -1 0 0 0 0];

internalField   nonuniform List<vector> 
33730
(
(2.9324032e+90 2.7804193e+90 -1.1358954e+89)
(-1.2038273e+90 3.1535447e+90 3.674799e+89)
(-3.7982167e+90 1.5084781e+90 -6.3534248e+89)
(5.1983058e+88 3.812752e+90 1.7197467e+89)
(5.3295023e+90 2.8153942e+90 2.5837896e+90)
(1.0083089e+91 -2.4591636e+89 -3.9887677e+90)
(4.6624153e+90 -2.1586577e+90 -4.2250689e+90)
(1.6751304e+90 -1.2024047e+90 -1.6893988e+90)
(-3.5350715e+90 1.8308222e+90 -6.5246955e+89)
(-3.5075678e+90 9.0168463e+89 -4.9360831e+89)
(-2.2416178e+90 2.3995791e+89 -1.0523902e+90)
(-1.7796642e+90 1.9331975e+90 -1.3725091e+90)
(-8.7078441e+89 2.9232116e+90 6.7357519e+89)
(-3.8186427e+90 1.3788131e+90 -9.6337568e+88)
(-4.8760449e+88 5.109054e+90 7.7003414e+89)
(-9.2995103e+89 2.4982124e+90 1.5467365e+90)
(-2.365894e+90 5.157075e+90 -1.0658871e+90)
(-1.934326e+89 2.9975056e+90 8.9055833e+88)
(9.2996186e+89 3.7803341e+90 -1.8251257e+90)
(-5.5354424e+90 1.9063987e+90 -4.0398649e+89)
(-3.8883349e+90 1.3689501e+90 -7.9190661e+88)
(-4.1825443e+90 1.3547825e+90 -7.5889715e+88)
(-3.5236484e+90 1.6720882e+90 -7.796382e+89)
(-3.5977621e+90 1.1583473e+90 -6.9752366e+89)
(5.9645491e+89 2.0903982e+90 1.2443914e+90)
(-2.7752179e+91 -5.838008e+89 -8.5169628e+89)
(-4.2591917e+90 1.1675467e+90 1.2454702e+90)
(-3.6852411e+91 -8.2519843e+89 -5.5478637e+89)
(-7.2752835e+90 -1.9604196e+90 -1.7338635e+89)
(-3.3108003e+90 8.439531e+88 1.7343078e+90)
(4.1771619e+90 -8.9645956e+89 -5.3565851e+89)
(-2.1003048e+89 1.0051597e+90 -1.2522833e+90)
(-4.7250812e+90 1.8795493e+90 6.6394339e+89)
(4.9394615e+90 8.1699384e+90 5.675287e+90)
(5.9537256e+91 -1.9057044e+90 -2.1871165e+90)
(4.6243244e+90 -3.2991907e+90 -7.5423027e+90)
(-2.5443672e+88 -3.1867274e+90 -3.6672918e+90)
(3.5678608e+90 8.5100207e+89 1.3483481e+89)
(-8.0236212e+89 -1.198048e+89 -3.835875e+90)
(-3.8253246e+90 1.460393e+90 -6.1412701e+89)
(-3.5450902e+90 9.5242345e+89 -5.3717225e+89)
(-3.2821089e+90 -1.2269986e+88 -9.3134017e+89)
(-3.7742711e+90 2.3715726e+90 -9.3261194e+89)
(-3.4986552e+90 2.8643126e+90 1.947917e+90)
(-3.0626521e+90 1.4025095e+90 5.2630914e+89)
(1.02015e+91 3.8191385e+90 9.0122753e+89)
(4.4063537e+90 2.0369079e+90 -6.515797e+90)
(2.8636489e+90 5.3602078e+90 1.6395003e+90)
(-1.2789854e+90 3.3282607e+90 1.0068065e+90)
(5.6235804e+89 4.103265e+90 8.6941523e+89)
(-4.9341151e+90 1.9023998e+90 -2.8483074e+89)
(4.6185205e+91 9.073536e+90 1.8507614e+90)
(9.6043293e+90 6.6488123e+89 1.8477379e+90)
(3.9173817e+90 -4.8791571e+89 3.9408121e+90)
(1.3574281e+91 6.4062493e+90 -2.421175e+90)
(-1.4127715e+90 2.151343e+90 2.8781594e+90)
(-1.2012195e+91 3.8959388e+89 6.2883779e+90)
(-1.9381268e+90 -5.8546161e+89 4.77296e+90)
(-8.2638616e+89 3.5448575e+90 2.4608965e+89)
(-2.9172966e+90 5.9786578e+90 -2.0775148e+90)
(-6.216855e+90 1.3785983e+90 -7.8872192e+88)
(-4.5586602e+90 1.1282644e+90 3.5614451e+89)
(-4.2894932e+90 1.5238795e+90 2.5869982e+89)
(-4.0470871e+90 1.4678561e+90 -4.6721279e+89)
(-4.3750413e+90 1.4978298e+90 -4.0211696e+89)
(-3.7616686e+90 1.3367741e+90 -3.0929224e+89)
(-4.0551736e+90 1.3311979e+90 -3.4075746e+89)
(-3.9434499e+90 1.3681451e+90 -3.4994923e+89)
(-3.7209604e+90 1.2600003e+90 -3.068574e+89)
(-8.646805e+89 1.9159123e+90 2.8974196e+90)
(-4.5029827e+90 4.2869586e+90 2.7035364e+90)
(-3.2330585e+90 1.9134209e+90 1.8430759e+90)
(-3.6774109e+90 1.736153e+90 1.7564753e+90)
(-2.6853703e+91 2.2469073e+90 -2.9051708e+89)
(-1.265817e+90 2.6468219e+90 2.2680751e+90)
(-1.4963522e+91 1.9717767e+90 1.251094e+90)
(1.8864566e+90 4.4403004e+90 -1.6537047e+89)
(3.0653802e+90 5.1751945e+89 1.3881903e+90)
(-5.6076367e+90 -5.7191615e+89 -1.6820881e+90)
(-4.3736227e+90 9.6851562e+89 3.4178977e+89)
(-7.270319e+90 -1.5568467e+88 -4.3883903e+89)
(-2.109894e+91 -2.8334636e+90 -5.3553099e+90)
(-2.402019e+90 -3.4733334e+90 5.5165088e+90)
(-5.6818731e+90 -1.331439e+90 -6.2654923e+90)
(2.2948474e+91 -1.9731903e+90 1.6013252e+90)
(5.0726721e+90 -2.4486338e+90 -3.3868621e+89)
(-3.6175525e+90 2.4980123e+88 -8.5706092e+89)
(-4.7824366e+90 1.0138897e+90 -6.2383126e+88)
(2.9462564e+90 5.89486e+90 -2.1408308e+90)
(3.5381613e+91 5.0489256e+90 -1.2027784e+90)
(8.5891299e+90 3.1673988e+91 -8.0628819e+90)
(1.5865247e+91 -8.1235368e+90 -5.603375e+90)
(-1.5562193e+90 -2.9583981e+90 -3.1380171e+90)
(4.5648956e+89 -3.4473007e+90 -5.608256e+90)
(1.4153973e+90 3.3976038e+90 2.1258545e+90)
(-2.7419636e+90 2.2435578e+90 -3.9642901e+90)
(-4.0138008e+90 1.1646532e+90 -4.527345e+89)
(-4.0869316e+90 8.834244e+89 -3.287896e+89)
(-3.9752005e+90 -1.0668086e+88 -4.0176319e+89)
(-4.8884968e+90 1.6005226e+90 -5.9096954e+89)
(-4.4013849e+90 1.5152932e+90 1.0680976e+90)
(-6.1998537e+90 2.9023659e+90 1.4845401e+90)
(-4.0050052e+90 2.763369e+90 5.6019408e+89)
(-3.5653643e+90 4.0181514e+90 2.2002238e+90)
(-2.4056981e+90 1.2092433e+90 2.6632269e+90)
(-3.2308967e+90 2.0838526e+90 3.9336019e+89)
(2.624745e+90 6.7300008e+90 3.8003036e+90)
(-1.2560286e+89 7.3351176e+90 1.5620767e+90)
(4.7553365e+90 4.8646726e+90 5.1498475e+90)
(-3.5316446e+89 2.835696e+90 1.6190611e+90)
(-4.1066972e+90 1.9948493e+90 5.7993401e+89)
(8.1222756e+91 5.7700976e+90 2.4372196e+90)
(-7.8678661e+90 -7.5083832e+89 -8.4465272e+90)
(-5.0633302e+90 2.31086e+90 -3.3832112e+90)
(7.6917875e+89 4.3681419e+90 4.2939879e+90)
(2.0233645e+90 3.7903296e+90 3.6065992e+90)
(3.4621875e+90 1.1412372e+89 -5.9086542e+89)
(5.2869384e+90 -9.8252371e+89 2.2863411e+90)
(-1.5778932e+89 4.8538841e+90 1.2297389e+90)
(6.1838515e+90 4.6221585e+90 5.1205923e+89)
(-5.2051273e+90 1.981443e+90 2.3412437e+88)
(9.7930119e+90 2.2629588e+91 1.2822963e+91)
(5.8037412e+91 -5.4102436e+90 3.7616213e+90)
(-2.6297991e+91 -1.3068788e+90 3.2951205e+89)
(3.0732141e+91 -5.7808758e+89 5.348856e+90)
(-2.3979153e+91 4.722399e+90 -3.8163163e+88)
(-3.6996744e+90 3.7145599e+90 8.5777744e+90)
(-3.0931081e+90 5.0632379e+90 3.6166925e+90)
(1.0392487e+90 -1.0272877e+90 6.3692798e+90)
(-2.5305476e+89 4.9419097e+90 4.8839527e+90)
(-6.1240335e+90 4.0671991e+90 3.2643926e+89)
(7.350602e+89 4.4795358e+90 1.2914916e+90)
(-1.0765543e+90 5.635896e+90 8.4857795e+89)
(6.8102462e+90 1.140209e+90 -5.1495944e+90)
(-6.4806546e+90 1.168e+90 5.3654044e+89)
(-4.7309648e+90 9.5540637e+89 4.9582924e+89)
(-5.0174384e+90 1.4108182e+90 -1.3542094e+89)
(-4.7201389e+90 1.3050326e+90 -2.0239203e+89)
(-4.4705252e+90 1.3613109e+90 4.6806782e+89)
(-4.4899047e+90 1.0403179e+90 -1.1477656e+89)
(-4.1682683e+90 1.2333084e+90 -2.6855474e+89)
(-4.2357926e+90 1.1831377e+90 -1.6458254e+89)
(-4.6105738e+90 1.1017262e+90 6.2491492e+88)
(-3.8021916e+90 1.312242e+90 -2.6590015e+89)
(-3.6423178e+90 1.2907512e+90 -3.2976922e+89)
(-3.7872586e+90 1.2506682e+90 -3.684293e+89)
(-4.0305846e+90 1.1893718e+90 -2.7700058e+89)
(-1.3814211e+90 -1.2538075e+90 2.479428e+90)
(-6.8508923e+90 5.4105292e+90 5.675393e+90)
(-3.8832268e+90 1.0828777e+90 7.7040965e+90)
(-4.8486899e+90 1.4641644e+90 2.0727337e+90)
(-3.665501e+90 -1.8252254e+89 2.5383938e+90)
(4.4745808e+89 1.2298498e+90 2.3421165e+90)
(3.8255703e+90 2.2498882e+90 1.0197757e+90)
(-2.2038483e+91 9.7847746e+90 4.6170107e+90)
(-8.141586e+90 5.883306e+90 5.5546241e+90)
(4.2827837e+91 7.1248695e+90 5.1400733e+90)
(-3.3233329e+90 1.380553e+90 4.4508009e+89)
(-2.6354998e+90 1.4918783e+90 4.1721642e+89)
(-4.001562e+90 2.2155992e+90 8.1847928e+89)
(-6.8658608e+90 -2.4118936e+89 -4.9967014e+90)
(1.099421e+90 3.3102853e+90 3.7450656e+90)
(-9.2380414e+90 3.1102588e+90 3.0907461e+90)
(4.6101252e+90 -1.2719848e+90 -1.1918815e+90)
(6.97849e+89 3.2754863e+90 -1.5641991e+89)
(2.5751212e+90 -3.1501974e+89 1.1520757e+89)
(6.6825128e+90 -1.3490185e+90 -3.5866045e+90)
(-2.2627038e+90 3.3132682e+89 -1.1590146e+89)
(5.6691314e+91 1.7986121e+90 -6.4614612e+90)
(3.4419824e+90 5.4054418e+89 4.4404207e+90)
(-1.3105053e+91 -6.8855566e+90 -3.8113813e+90)
(2.7146162e+91 -1.3167086e+89 -8.7833131e+90)
(2.1976676e+90 7.7321532e+90 6.3387718e+90)
(-1.0235323e+91 -2.0005538e+90 -3.6243739e+90)
(-2.8167982e+91 3.5078754e+90 -3.6772128e+89)
(2.8155493e+90 -2.5019456e+90 -4.0288216e+89)
(-3.1223587e+90 -6.5174171e+89 -4.471559e+89)
(-5.4356303e+90 1.0876282e+90 -1.7396967e+89)
(1.6110034e+90 1.4316802e+90 -5.2782161e+90)
(4.7962812e+91 2.3935344e+89 2.1512629e+90)
(3.5119014e+90 4.7253006e+91 -2.906025e+90)
(5.9697237e+88 -6.378417e+90 -3.8776164e+90)
(1.3372202e+89 -8.7112348e+90 -4.4842938e+90)
(-4.0450312e+90 -8.6691973e+89 -3.3208634e+90)
(3.4075198e+90 -7.8547686e+90 8.9279908e+88)
(-1.3818159e+90 6.3799311e+89 -5.1705134e+90)
(8.3859179e+89 2.8220351e+90 1.5177797e+90)
(-5.023177e+90 -3.5807865e+89 -4.0149008e+90)
(-4.1551217e+90 1.0693254e+90 -3.8591386e+89)
(-4.1439558e+90 6.6937081e+89 -2.9430396e+89)
(-4.3809665e+90 -2.1045548e+88 -4.219242e+89)
(-5.0682093e+90 1.5791155e+90 -5.5671393e+89)
(3.1568092e+90 2.5732784e+90 -2.4108765e+89)
(-4.6292737e+90 2.0890881e+90 7.7978978e+89)
(-3.9255702e+90 1.7150514e+90 8.0262318e+89)
(-3.8858841e+90 1.7664117e+90 1.73937e+89)
(-3.9005206e+90 2.3502625e+90 6.7413464e+89)
(-3.61525e+90 1.6621542e+90 1.8673633e+89)
(-8.6005488e+89 1.1492291e+90 4.5570902e+89)
(-5.2196105e+90 2.3977177e+90 2.2524856e+89)
(-6.1623116e+90 1.9757438e+90 1.0570237e+90)
(-4.7066804e+90 2.7012321e+90 1.2294271e+90)
(-4.4828286e+90 2.8455257e+90 1.7437033e+89)
(-6.2189752e+90 4.8817818e+90 1.0223109e+90)
(-1.7050455e+90 4.1226444e+89 3.6243496e+90)
(-5.9428768e+90 -3.6147257e+89 2.99284e+90)
(-1.5733777e+90 4.1625158e+90 5.0884189e+90)
(-4.6693994e+90 2.4829374e+90 5.7383808e+89)
(-4.2626743e+90 3.6046585e+90 7.9063597e+89)
(-8.8307845e+90 6.0904914e+90 4.3372044e+90)
(-3.8300135e+90 1.4501431e+90 9.7113987e+89)
(3.17532e+90 3.4011273e+90 3.3561977e+90)
(-4.3552909e+90 1.8922167e+90 6.2979935e+89)
(3.3254104e+90 7.077855e+90 4.7998149e+90)
(-4.2479138e+90 1.0947217e+91 2.7983804e+90)
(5.6257877e+89 7.0809503e+90 9.9684367e+90)
(-2.5538876e+90 5.885303e+89 2.2586987e+90)
(-4.3837536e+90 2.5324491e+90 5.6822669e+89)
(2.114152e+91 -8.5434129e+89 2.054117e+90)
(4.9037237e+91 2.463445e+90 -3.1212013e+90)
(1.9488387e+91 -1.8549762e+90 -8.5389083e+90)
(2.6352606e+89 2.2731511e+90 2.0709029e+90)
(3.3938405e+90 6.7676016e+90 2.0732725e+90)
(1.2980555e+90 -3.7111704e+90 -2.8317953e+89)
(-2.5315128e+89 5.3121317e+90 -5.1272848e+89)
(-4.0232144e+90 -2.6343447e+90 9.3506561e+89)
(-2.7460123e+90 -6.5838424e+89 -1.5369579e+90)
(-2.8004891e+90 4.8744152e+90 -3.3978877e+89)
(-8.0691992e+90 4.1747094e+90 8.4172622e+89)
(-1.8542577e+90 8.3587782e+90 -1.8991484e+90)
(-2.6235235e+91 9.5105444e+89 -7.4301529e+88)
(-5.4429449e+90 2.0071736e+90 6.2527195e+89)
(1.9536193e+91 1.8809728e+91 1.1083601e+91)
(1.2250354e+91 -9.5324392e+89 -1.2325038e+90)
(-2.2013982e+91 -3.8633554e+90 2.0649013e+90)
(-2.8402779e+91 -1.1089967e+90 2.8011417e+90)
(-2.2485105e+91 4.6891708e+90 -1.5799807e+89)
(-2.2835486e+89 6.4928968e+90 1.7760246e+89)
(2.0425085e+90 1.1565851e+91 -1.0632011e+91)
(-1.0049659e+90 2.3270881e+90 3.0120597e+90)
(-2.3627254e+90 1.0290317e+91 2.7064719e+90)
(-4.2886345e+90 8.3037517e+89 1.232066e+90)
(-2.6269139e+90 5.5212474e+90 -1.591146e+90)
(-4.2077517e+90 4.5129792e+90 -4.5526344e+90)
(-1.7366791e+91 3.9482414e+90 1.7801946e+90)
(-5.375499e+90 1.0411024e+91 5.9881342e+89)
(-1.7267399e+90 6.7281958e+90 5.3897066e+90)
(-2.9832866e+90 8.3345813e+90 2.3343329e+90)
(3.4153271e+90 1.3375294e+90 -1.8911595e+90)
(-5.9100385e+90 7.404421e+89 1.2146868e+89)
(-6.0511785e+90 5.5380098e+89 7.7812425e+89)
(-4.7479343e+90 6.7924967e+89 6.7217868e+89)
(-4.8522443e+90 7.0354575e+89 2.7269204e+89)
(-5.5356466e+90 8.6728516e+89 1.4045282e+89)
(-4.7286476e+90 1.10084e+90 6.3222183e+89)
(-4.4281924e+90 8.022908e+89 -8.3740418e+88)
(-4.0626303e+90 9.1068165e+89 1.6960359e+89)
(-4.0787924e+90 1.1658021e+90 4.9204321e+88)
(-4.357998e+90 1.0181278e+90 -1.2056339e+89)
(-3.8962278e+90 9.9160648e+89 -1.6995277e+89)
(-3.6368693e+90 1.1377085e+90 -3.1004168e+89)
(-4.0658379e+90 1.0106131e+90 -3.023853e+89)
(-3.1923163e+90 9.5105116e+89 -1.7741461e+89)
(-4.1283572e+90 1.1194547e+90 -2.1310758e+89)
(-4.0279222e+90 1.1167188e+90 -2.9323972e+89)
(-4.0893416e+90 1.0955914e+90 -3.2084993e+89)
(-4.2662836e+90 9.7604299e+89 -2.2788501e+89)
(-2.5331724e+90 -1.225918e+90 1.8012311e+90)
(-1.6053586e+91 -5.7200402e+89 3.7685986e+90)
(-3.8029009e+90 -2.6579388e+90 2.7102498e+90)
(-6.4022603e+90 -2.6734346e+89 2.333405e+90)
(-2.2196533e+91 -3.3153689e+90 2.1937957e+90)
(-3.5151347e+90 9.1344836e+89 1.8294355e+90)
(-4.0269917e+90 5.8261714e+88 1.8988156e+90)
(-8.2780637e+89 7.4412026e+89 1.6507654e+90)
(-5.1575461e+88 2.2382804e+90 1.7073428e+90)
(2.8592837e+91 3.3069688e+90 6.5107244e+90)
(9.4237902e+90 -1.742027e+90 8.8595831e+90)
(-3.189343e+90 9.6101361e+89 9.8797612e+89)
(-2.0712857e+90 1.5315657e+89 7.1733793e+89)
(1.6659503e+90 2.2428615e+90 2.8177396e+88)
(2.4973393e+90 1.2342534e+90 3.7532968e+90)
(9.0280143e+89 2.7435442e+90 1.2767269e+90)
(-3.6167847e+91 3.1491316e+90 -3.7483827e+90)
(-8.0625296e+90 1.1829788e+91 1.3137387e+91)
(1.143302e+91 7.7282325e+90 2.2960087e+90)
(-3.1270813e+91 -1.0902717e+90 -9.8898312e+89)
(-4.2898001e+90 1.0164432e+90 5.9311512e+88)
(-2.4825753e+90 1.6289441e+90 6.4054756e+88)
(-2.8599993e+90 -4.190328e+90 -5.1729915e+90)
(2.0441387e+89 2.0606249e+90 -1.1625786e+90)
(1.5209714e+90 3.4361906e+90 -2.8796342e+90)
(-4.3519096e+90 4.6616205e+90 -3.8346221e+90)
(1.3837128e+90 -1.5574748e+90 -9.9765469e+90)
(5.1040944e+90 -3.6339492e+90 -5.0947517e+90)
(2.4495879e+90 -2.6357299e+90 -3.178258e+90)
(1.1859685e+88 3.2604541e+90 -5.4302156e+89)
(2.4093929e+90 -1.5991112e+89 -5.0405099e+88)
(2.8875035e+90 -8.4133659e+89 -8.7014376e+89)
(-3.521268e+90 2.9995486e+89 -1.6073488e+89)
(-2.4866843e+91 1.1168982e+90 -2.2621136e+90)
(-2.913553e+90 -1.5745798e+90 4.9911976e+89)
(8.5344065e+89 -2.3707079e+89 3.6839998e+90)
(-1.0474645e+91 -3.8857509e+90 -2.4728818e+90)
(-2.3725134e+91 -7.2251648e+89 -3.6841266e+90)
(3.1016418e+90 2.6696793e+90 -8.7289296e+90)
(1.2823986e+90 1.930116e+90 2.0918962e+90)
(-9.4889827e+90 -1.4857753e+90 -1.7948574e+90)
(-2.0230241e+91 4.8450673e+90 1.7192768e+89)
(6.3375826e+89 -2.0618966e+90 -3.7261129e+89)
(-3.5481058e+90 -5.3383556e+89 -3.4887043e+89)
(-5.0955048e+90 7.7260671e+89 -1.4804321e+89)
(5.9775597e+90 -1.0040984e+91 -3.5045661e+90)
(-1.8604552e+90 -8.5627381e+90 -1.0278009e+91)
(-1.6596115e+90 -5.5186052e+90 -3.0428765e+90)
(-3.1103301e+90 -6.7874438e+89 -3.6572953e+90)
(1.2652042e+90 -4.2765879e+90 2.0997033e+90)
(-4.3628709e+90 7.2735284e+90 -4.6882305e+90)
(-4.6205066e+90 -3.5337941e+89 -4.4638236e+90)
(-4.3371954e+90 1.0645213e+88 -4.1222149e+90)
(3.1974479e+90 3.1593034e+90 -7.2231543e+89)
(3.1720264e+90 4.3298415e+90 3.8453234e+89)
(1.2948221e+90 -1.1265958e+90 -6.9941959e+89)
(-5.3725753e+90 1.0492271e+90 4.1926417e+89)
(-5.5296088e+90 1.8657265e+90 5.2613635e+89)
(-4.4690584e+90 1.7170445e+90 4.1377341e+88)
(-4.7867506e+90 2.1820113e+90 5.7272389e+89)
(-4.6238172e+90 2.1066991e+90 5.7478623e+89)
(-4.1843913e+90 1.8873971e+90 8.3942981e+87)
(-4.065808e+90 1.7346861e+90 3.9880017e+89)
(-4.1372013e+90 1.6766284e+90 3.6113334e+89)
(-4.3040078e+90 1.9788278e+90 3.6126767e+89)
(-4.0676417e+90 1.5302717e+90 3.7972312e+89)
(6.6304373e+89 2.9882345e+90 1.8658763e+88)
(-4.5823312e+90 1.4419797e+90 -3.6281408e+89)
(-3.1282873e+90 9.5614266e+89 3.5533528e+89)
(-4.5423645e+90 4.0228577e+89 5.3696663e+89)
(-5.0392039e+90 1.981484e+90 -2.5377555e+89)
(1.1430588e+89 -2.3087043e+90 2.2827889e+90)
(-3.9109803e+90 -5.2730442e+89 3.3665625e+90)
(-2.2257118e+91 -1.1256263e+91 7.5532531e+90)
(-6.1091855e+90 -3.3626697e+90 1.1053696e+90)
(-5.4478167e+90 2.0913994e+90 3.8347836e+89)
(-6.307165e+90 1.358466e+90 4.7554448e+89)
(-6.5672833e+90 7.37561e+88 1.0613399e+90)
(-5.7207512e+90 3.1567591e+90 6.8374562e+89)
(-4.0872486e+90 5.1661806e+90 -4.3227409e+89)
(-5.2647926e+90 2.5531009e+90 5.2497388e+89)
(-9.0559579e+90 7.106515e+90 1.4263598e+90)
(6.4827684e+90 1.3237812e+90 7.9647663e+90)
(1.5922626e+91 -1.2946616e+90 5.5472786e+90)
(2.5746203e+91 4.7497496e+90 8.5277679e+90)
(-4.9033085e+90 2.2649574e+90 1.3471572e+89)
(-8.5780657e+88 6.9973073e+90 5.3393987e+90)
(-3.6985536e+90 3.1765304e+90 3.2772999e+89)
(-1.0844727e+91 5.0768969e+90 4.9104191e+90)
(-2.9864545e+90 6.8967535e+89 2.6332619e+89)
(8.8132197e+88 -1.3699764e+90 2.5118742e+90)
(-1.9965665e+90 2.0932828e+90 2.9038847e+90)
(-4.5421598e+90 1.5788233e+90 1.1558726e+89)
(1.5296733e+90 -1.5515745e+91 -2.6642353e+89)
(8.7524385e+89 5.1122881e+90 7.0930338e+90)
(1.6228038e+90 1.6931342e+90 7.3521377e+90)
(2.0788075e+90 2.585416e+90 1.2540158e+90)
(-3.9245513e+90 2.6193477e+90 1.8849388e+89)
(3.1653789e+91 -2.0001679e+89 -4.9645678e+90)
(-2.457547e+91 1.1083565e+89 -9.5284115e+89)
(1.3469469e+91 1.8450803e+89 -4.4254008e+90)
(2.2482127e+90 -5.9002196e+89 -1.7209276e+90)
(1.9981414e+90 5.5724987e+90 -1.9615567e+90)
(-2.9813077e+90 1.6935238e+90 -1.7149429e+90)
(2.2881464e+90 6.6425594e+89 1.6748782e+89)
(-1.6601203e+90 -1.6906017e+91 -5.9168455e+90)
(2.0634007e+90 -2.1260224e+90 -2.4679959e+90)
(-6.4847519e+90 2.4850594e+90 -1.8230406e+89)
(-1.2563648e+91 8.3891037e+90 -2.788967e+90)
(-5.4935262e+90 8.5131337e+90 -3.7994595e+89)
(-4.3471481e+90 8.6017955e+90 -1.4141857e+90)
(-7.8971491e+90 1.0424122e+91 -2.1794997e+90)
(-3.7931173e+90 1.0769981e+90 2.7937128e+90)
(-2.9337037e+90 6.7417959e+90 2.9074841e+89)
(-2.5392523e+91 -9.8063785e+88 -9.3358846e+89)
(-5.1943173e+90 1.3239309e+90 1.0790611e+90)
(2.3389216e+91 -4.1304504e+90 -1.1471568e+90)
(-1.9773469e+91 -4.4692291e+90 3.960842e+90)
(1.9372488e+90 1.014757e+90 1.727368e+90)
(9.3604702e+89 9.5017975e+90 -3.7306102e+90)
(-1.2267636e+89 -8.832567e+89 -4.9903543e+89)
(-1.616014e+90 8.1733896e+90 2.4661387e+90)
(-4.4952322e+90 1.004518e+90 1.9054685e+90)
(-6.1094197e+90 -1.2314636e+90 2.9855208e+90)
(-3.4387089e+90 6.9431232e+89 2.3179171e+90)
(-2.7536336e+90 6.5598742e+88 4.0189607e+90)
(-5.9095553e+90 -7.0133372e+90 3.1061231e+90)
(-1.4370192e+90 6.4744037e+90 1.0236734e+89)
(-4.2504107e+90 5.9027216e+90 -1.0688304e+91)
(-6.2061228e+91 2.430287e+89 6.3250134e+89)
(1.9125565e+91 1.4921737e+91 -6.4636913e+89)
(-3.6076025e+89 4.3827117e+90 4.3650365e+90)
(1.8047088e+90 -5.8389252e+90 1.2700387e+90)
(-5.9992091e+90 4.838896e+89 2.1552258e+89)
(-4.8908289e+90 5.3471431e+89 3.6978797e+89)
(-4.8440383e+90 8.8230631e+89 3.7966379e+89)
(-4.8360599e+90 7.6005511e+89 -4.6890556e+89)
(-4.8177837e+90 8.4790461e+89 -4.5828852e+89)
(-5.2013727e+90 1.5056145e+89 8.049394e+89)
(-4.8184615e+90 4.2865468e+89 7.0146028e+89)
(-4.7514371e+90 4.1158211e+89 2.9965124e+89)
(-4.8261191e+90 4.9951529e+89 2.453124e+89)
(-4.7769866e+90 8.4239127e+89 6.8121896e+89)
(-4.40028e+90 5.0537019e+89 6.1705944e+87)
(-3.6808078e+90 4.8327277e+89 2.4955383e+89)
(-4.4653961e+90 6.4171171e+89 3.1338702e+89)
(-4.7028797e+90 5.7684843e+89 -2.2387918e+88)
(-4.441767e+90 6.8784952e+89 -1.7418139e+89)
(-5.0645729e+90 6.6812624e+89 -8.5959069e+88)
(-5.1264822e+90 8.4974604e+89 -1.24671e+89)
(-4.7164278e+90 8.3284027e+89 -1.8154977e+89)
(-4.3031042e+90 8.2606192e+89 -1.6241484e+89)
(-4.084222e+90 9.645045e+89 -2.8620702e+89)
(-4.0343705e+90 8.6638541e+89 -2.6487311e+89)
(-3.8351697e+90 7.9377008e+89 -1.7200224e+89)
(-4.1444907e+90 5.6718765e+89 3.1414603e+90)
(4.4615475e+90 -3.2719843e+90 -2.724165e+90)
(1.3262254e+90 3.5781637e+90 2.2411868e+90)
(-3.7311534e+90 7.5057245e+88 1.0055517e+90)
(-3.075913e+90 3.9157011e+89 1.0639744e+90)
(-2.4262658e+90 2.5902666e+90 5.5124297e+90)
(2.9838041e+90 -1.4926443e+90 5.7946797e+90)
(1.0704791e+90 -8.9119988e+88 1.497208e+89)
(-4.2304709e+90 -1.1993843e+90 3.0366572e+89)
(-7.9222143e+90 5.3740639e+89 6.5615464e+90)
(-2.2389322e+90 -1.4729786e+90 -8.9694494e+89)
(8.3571375e+89 -1.036958e+90 1.2822219e+90)
(-6.6255378e+88 4.4458133e+90 3.9039044e+90)
(-5.778097e+90 -2.0522347e+90 3.4777632e+90)
(-1.3443527e+90 3.4522084e+90 -1.6265917e+90)
(-2.3630212e+90 8.80317e+89 4.2922521e+89)
(-2.7972285e+90 4.9636167e+89 3.7834142e+89)
(-1.2207484e+90 5.4044682e+89 5.7501435e+88)
(-6.6771459e+89 2.5503873e+90 -2.0401681e+89)
(-2.7218226e+91 3.9939812e+90 -6.0998407e+89)
(-1.4479421e+90 2.412025e+90 1.6710415e+90)
(-4.394849e+90 1.2209928e+89 7.6113392e+88)
(-4.0835624e+90 -9.3168172e+89 9.2710865e+87)
(1.4216686e+90 2.2979717e+90 -2.4701537e+90)
(1.7325796e+90 1.4420796e+89 9.7387107e+88)
(7.7565546e+90 1.9755851e+90 1.6963486e+90)
(-6.8598455e+90 3.5900637e+90 -3.926271e+90)
(-5.2969783e+89 1.6298752e+90 4.1638895e+89)
(5.7633894e+91 3.7315835e+90 -5.8813779e+90)
(3.9718404e+90 -8.4865409e+90 -2.4126361e+89)
(-3.4837433e+91 2.5791627e+90 -1.7130587e+88)
(-1.8129158e+91 -2.9320373e+90 -1.4998462e+90)
(-4.2817766e+90 9.8256714e+89 -5.0516082e+88)
(-2.2320006e+90 1.5603996e+90 -1.1116628e+89)
(1.4840957e+90 -2.3216222e+91 3.3143501e+90)
(-3.6998507e+89 2.8861933e+90 -3.9781997e+90)
(-1.8827449e+90 1.5736556e+90 -2.6889792e+89)
(-2.8670218e+90 3.9218874e+90 -2.0211081e+90)
(-2.2510085e+90 2.5579665e+90 -9.6282765e+90)
(3.39805e+89 -1.5786992e+90 -3.6280071e+90)
(-5.1489703e+90 2.3037396e+90 -6.2899988e+89)
(-2.0620111e+86 1.5961247e+90 -2.2170441e+90)
(-1.9560156e+90 -6.188196e+89 -2.0893225e+90)
(-3.3932411e+88 2.9397449e+90 -5.3671304e+89)
(2.7244744e+90 -3.3402443e+89 -2.8622374e+89)
(-1.419064e+91 7.3669393e+89 -8.8965728e+89)
(1.0485862e+91 8.9366138e+89 2.9286798e+90)
(-4.193691e+90 -7.0230273e+89 -2.0225742e+90)
(-7.8440413e+90 -2.6021254e+90 -1.8676902e+90)
(5.8197414e+90 1.1717582e+90 7.4673574e+89)
(-3.9404949e+91 3.659022e+90 -5.1995664e+90)
(1.420903e+91 9.2530383e+90 -1.1413807e+91)
(-7.5647961e+90 -8.1142174e+89 -1.8662194e+90)
(-4.0729419e+89 -5.7471024e+90 -1.2353079e+91)
(3.5614281e+90 5.5115033e+90 6.0958606e+89)
(-1.0974292e+90 -4.6272656e+90 -3.3265774e+90)
(-2.4972131e+90 1.9894276e+91 -3.6035229e+90)
(1.1821005e+90 1.8768084e+90 -2.0566923e+90)
(-3.5390993e+90 -3.9702207e+89 -4.7137519e+90)
(2.1800444e+90 1.8105247e+90 -1.6912587e+90)
(9.2408838e+89 -2.1382601e+89 -1.0105407e+90)
(4.4623352e+90 -3.6521036e+90 -2.1997518e+90)
(-5.8395373e+90 1.0782978e+90 3.9853922e+89)
(-4.0720952e+90 1.390615e+90 5.6970693e+89)
(-4.528954e+90 1.0028844e+90 2.6161673e+87)
(-4.1260902e+90 1.575822e+90 5.5883455e+89)
(-4.192805e+90 1.2541407e+90 1.1443426e+89)
(-5.0410846e+90 1.7966336e+90 1.0934413e+89)
(-4.8093507e+90 1.3867764e+90 -1.069049e+89)
(-4.866033e+90 1.5785019e+90 3.9973338e+89)
(-5.1601858e+90 1.5890003e+90 4.1260497e+89)
(-4.7130968e+90 1.639626e+90 -1.3021348e+89)
(-4.5123896e+90 1.6828547e+90 2.920973e+89)
(-4.8699447e+90 1.9320381e+90 2.245987e+89)
(-4.5979816e+90 2.0998646e+90 3.0138752e+89)
(-4.424716e+90 1.7291199e+90 3.0712933e+89)
(-4.552403e+90 1.4665396e+90 1.6442639e+89)
(-4.5909899e+90 1.4325572e+90 1.8919633e+89)
(-4.7785583e+90 1.6806091e+90 1.6330469e+89)
(-4.4689629e+90 1.3404315e+90 1.917991e+89)
(-4.725279e+90 3.7514148e+90 9.2838994e+88)
(-3.785279e+90 1.8384133e+90 -3.4842103e+89)
(-1.903948e+90 1.5282539e+90 9.6225644e+88)
(-2.7037057e+90 2.1040598e+90 4.913699e+89)
(-4.1967227e+90 1.4501213e+90 -1.0763e+89)
(-6.0504403e+90 1.4249737e+90 -6.2142025e+90)
(-4.4112465e+90 3.040663e+89 3.7070821e+90)
(-6.9210075e+90 4.8433053e+90 -4.0956872e+89)
(-1.3877497e+91 -3.4917522e+90 3.4105606e+90)
(-4.3912822e+90 1.6655855e+90 1.3084778e+89)
(-3.8183258e+90 1.3462502e+90 2.5065205e+89)
(1.6798423e+90 -2.6142502e+90 1.7689908e+90)
(-4.2261351e+90 7.4229288e+89 5.8129585e+88)
(-2.4319126e+90 -1.5012081e+90 1.5068215e+90)
(-4.9636423e+90 1.6143588e+90 1.7556939e+89)
(5.5472444e+90 -3.3152539e+90 -1.1411547e+90)
(-7.9623437e+90 1.1384042e+90 3.7046238e+90)
(5.0403288e+91 -5.3010762e+90 5.5559619e+90)
(4.0367776e+91 -6.8198812e+90 1.0561625e+90)
(-5.6940727e+90 1.6862544e+90 1.3117105e+89)
(-5.7016788e+90 -1.2094929e+90 1.7155416e+90)
(-6.5780068e+90 7.3422609e+89 1.3758017e+89)
(1.9746727e+91 6.6219885e+89 4.8797541e+89)
(-6.7293049e+90 2.9343434e+90 2.1806503e+89)
(-5.1873479e+90 3.9663065e+90 2.3831772e+90)
(-2.0313597e+89 8.1719835e+90 -1.3519508e+90)
(-6.023802e+90 2.1387348e+90 1.7846145e+89)
(-3.3003014e+91 6.5122255e+90 1.7500427e+90)
(-8.2062837e+90 5.0310606e+90 1.45696e+91)
(-2.6947196e+91 6.3086368e+88 7.0613499e+90)
(-1.7196848e+91 4.2973549e+90 7.7471108e+90)
(-5.0476115e+90 2.0526918e+90 6.4509739e+88)
(-3.2370405e+90 3.2432526e+90 1.9107172e+90)
(-5.9638106e+90 7.3435451e+90 1.8527987e+90)
(-4.44214e+90 3.1089376e+90 1.393557e+89)
(6.5368171e+90 2.8681753e+90 4.1955887e+90)
(-3.2077267e+90 4.7754826e+89 1.5843122e+89)
(-3.3876365e+90 -1.6337719e+90 2.136385e+90)
(6.5738563e+90 -1.6534087e+90 2.1183743e+90)
(1.4796445e+90 5.5051263e+89 -3.480776e+89)
(-4.6088185e+90 1.3023826e+90 5.5288492e+88)
(7.6922596e+89 -4.2014809e+90 1.6494097e+90)
(1.4483917e+90 -6.9210577e+89 4.1082537e+90)
(1.368263e+90 8.2104777e+89 7.4627867e+90)
(1.3219093e+90 5.2993574e+90 4.3165113e+89)
(-4.919287e+90 2.0384993e+90 4.3681461e+89)
(-1.4187748e+91 -6.4187104e+89 -7.3063443e+89)
(7.9260312e+89 -6.1147041e+89 -7.9636149e+89)
(1.0288745e+90 -4.3257981e+90 -1.5720703e+89)
(1.0034656e+90 8.5820173e+90 3.5357963e+89)
(1.1304091e+90 -1.6175511e+91 -1.3447893e+91)
(1.0951076e+90 -2.2188899e+90 -2.5370047e+90)
(-8.1755215e+90 9.5797279e+89 -1.1768828e+90)
(-7.7004919e+90 5.7159313e+90 5.2769994e+89)
(-5.6572154e+90 1.0682323e+90 -2.3210282e+90)
(-1.0351441e+91 1.9212499e+90 -3.4757363e+90)
(-1.0411481e+91 4.2651311e+90 1.8695888e+90)
(-2.1430112e+91 1.3229972e+91 2.8188344e+90)
(-5.9239427e+90 1.4668744e+91 8.7214148e+90)
(-2.0920997e+90 8.9428878e+90 1.7925761e+90)
(-6.2564083e+90 1.3286003e+91 1.4419013e+90)
(6.4541932e+90 -2.4618511e+89 4.3876069e+90)
(7.1237026e+88 1.0654795e+89 7.3655274e+90)
(-5.3341109e+90 7.170281e+89 1.3759149e+90)
(8.3124452e+89 5.376471e+89 6.4291424e+90)
(2.676999e+89 -3.7149392e+89 1.5502293e+89)
(-5.3968031e+90 1.1410369e+89 1.6349574e+90)
(-4.4408616e+90 1.4840985e+90 2.8983148e+90)
(-2.3768728e+90 2.1880482e+90 9.2494475e+90)
(-4.4320219e+90 1.2486221e+90 8.2895659e+90)
(-7.6111334e+90 1.2331185e+90 2.9846029e+90)
(3.0523562e+91 -2.3729722e+90 4.0942573e+90)
(-5.507917e+90 -2.8546376e+89 -5.522696e+90)
(-5.9402073e+90 -1.2037259e+90 7.7605807e+90)
(-5.8127342e+90 -1.3186217e+91 4.0606372e+90)
(1.0296152e+89 3.6256041e+90 1.4486595e+91)
(-8.1244599e+89 3.8850077e+90 5.8426514e+90)
(-8.6813032e+91 -9.6662964e+90 -1.0647104e+90)
(-6.5479458e+90 3.1244198e+90 -1.7589422e+90)
(2.206997e+89 -5.1541605e+89 1.3119931e+90)
(6.5855785e+89 -1.0042654e+91 1.4631895e+90)
(-6.532139e+90 2.6750633e+89 4.8367574e+89)
(-5.884872e+90 2.3220319e+89 3.6410798e+89)
(-4.901736e+90 6.9772699e+89 3.7754306e+89)
(-4.976311e+90 3.2497097e+89 4.1472169e+89)
(-4.9650976e+90 5.6862894e+89 -4.0244907e+89)
(-4.9310405e+90 6.1150286e+89 -3.6708994e+89)
(-4.6457124e+90 5.0292309e+89 -1.4497569e+89)
(-4.7240742e+90 6.0897053e+89 -1.5455004e+89)
(-4.7479941e+90 5.9164739e+89 -4.450364e+88)
(-4.7353824e+90 4.9102785e+89 -4.5818149e+88)
(-5.7081988e+90 2.2252467e+89 8.8906288e+89)
(-4.588949e+90 3.0043373e+89 6.3020755e+89)
(-4.3210122e+90 3.8104222e+89 2.0136718e+89)
(-4.5007223e+90 1.6933068e+89 8.9603094e+88)
(-4.6588167e+90 5.7117455e+89 5.7588895e+89)
(-4.245354e+90 3.3808384e+89 5.2264931e+88)
(-3.502038e+90 3.3819505e+89 1.8969427e+89)
(-3.4544833e+90 5.5698215e+89 2.6816613e+89)
(-4.3191391e+90 4.309948e+89 3.2663283e+88)
(-4.3129876e+90 4.226326e+89 -1.5852013e+89)
(-4.3412378e+90 1.3667359e+89 -1.2646208e+89)
(-4.787439e+90 3.2322687e+89 -1.4787613e+89)
(-4.0787835e+90 5.587021e+89 -1.7190836e+89)
(-4.5209893e+90 5.7347546e+89 -1.262836e+89)
(-4.3683485e+90 7.0762484e+89 -8.5730704e+88)
(-5.0978007e+90 7.7539492e+89 -7.9544669e+88)
(-5.0125958e+90 6.9787101e+89 -1.1958212e+89)
(-5.0245172e+90 -1.5716239e+90 2.6126557e+90)
(-5.6290704e+90 1.8385735e+90 4.1065e+90)
(-3.8068347e+90 9.5041573e+89 1.4983859e+90)
(-4.2632797e+90 -3.3693749e+89 1.8635353e+90)
(-2.009303e+90 2.6158283e+90 6.6990074e+90)
(-5.1475109e+90 2.2024235e+90 6.357132e+90)
(-3.4935139e+90 2.7050131e+90 4.1357365e+90)
(1.5814312e+90 2.3428306e+90 2.7120145e+88)
(1.1342711e+90 -8.4450252e+89 1.9640633e+90)
(-9.0979849e+89 -2.7631478e+90 -3.800989e+90)
(-3.5462153e+89 -6.5086595e+89 -3.1800368e+90)
(-7.7519628e+90 8.7282045e+90 3.9669619e+89)
(-2.6358142e+90 6.9111812e+88 7.3988055e+88)
(-1.9801664e+90 3.9833998e+89 -4.3211688e+88)
(1.8822433e+91 3.5787461e+90 4.8606777e+90)
(-5.4618551e+90 -3.841783e+90 1.6293146e+90)
(8.3364015e+90 -6.2903133e+90 -1.8752257e+90)
(2.2193917e+88 8.8998869e+89 -8.0014176e+89)
(-2.5682301e+90 -6.8672678e+88 -3.2759365e+89)
(7.6647634e+89 -3.1241612e+89 -2.7714736e+90)
(2.9795213e+90 7.0185613e+90 -6.933676e+88)
(-2.9052969e+90 4.5869888e+90 5.1308228e+90)
(-2.9182243e+91 7.672108e+89 5.6519473e+89)
(-4.0531436e+90 3.8794313e+90 -9.019634e+89)
(5.7456654e+89 1.9944428e+90 5.8103231e+90)
(-3.3572634e+90 5.1766449e+90 2.3752642e+90)
(-2.391936e+90 2.2269011e+90 -1.2102811e+90)
(-3.3698676e+90 4.635001e+89 4.8379826e+88)
(-3.6196849e+90 9.4258598e+88 -1.3249141e+88)
(-1.1826018e+90 3.4479922e+89 3.5667915e+88)
(-1.2133292e+90 2.6752061e+90 -6.906264e+88)
(-1.9063728e+91 1.654372e+90 -9.4476056e+89)
(5.1897744e+90 -9.3519867e+89 -1.2559525e+90)
(-4.8566577e+90 -1.2010503e+89 -6.309468e+88)
(-3.7223631e+90 -8.0480797e+89 -6.9657042e+88)
(7.2518765e+89 8.1278192e+89 -3.7182058e+90)
(-3.7123413e+89 -5.291995e+88 -1.8756126e+90)
(1.5745411e+90 3.9840111e+89 -1.963881e+89)
(1.0299342e+91 8.610782e+89 -2.7407534e+90)
(1.3506417e+91 1.6806535e+90 -6.1763058e+90)