/*--------------------------------*- C++ -*----------------------------------*\
  =========                 |
  \\      /  F ield         | OpenFOAM: The Open Source CFD Toolbox
   \\    /   O peration     | Website:  https://openfoam.org
    \\  /    A nd           | Version:  7
     \\/     M anipulation  |
\*---------------------------------------------------------------------------*/
FoamFile
{
    version     2.0;
    format      ascii;
    class       volVectorField;
    location    "2000";
    object      UMean;
}
// * * * * * * * * * * * * * * * * * * * * * * * * * * * * * * * * * * * * * //

dimensions      [0 1 -1 0 0 0 0];

internalField   nonuniform List<vector> 
33730
(
(-1.980419e+88 -1.0684271e+86 -6.7672036e+87)
(-1.4208564e+88 1.0073921e+87 -7.240394e+86)
(-2.7742184e+88 -7.7268722e+85 -3.0842491e+87)
(-2.123935e+88 -3.3491788e+86 -4.2781191e+87)
(-2.1563969e+88 1.9193372e+87 -5.4369612e+87)
(-1.9502501e+88 1.5164226e+86 -2.1762673e+87)
(-3.2586767e+88 -3.904449e+87 -1.0521551e+88)
(-2.5323879e+88 -1.9755158e+86 -1.1501722e+88)
(-2.2282735e+88 6.8969922e+86 -3.7815886e+87)
(-2.0979156e+88 -7.8167263e+86 -3.8988006e+87)
(-1.936209e+88 -5.9260298e+86 -7.8697395e+87)
(-2.0740055e+88 7.3504859e+86 -7.8833484e+87)
(-1.9170818e+88 9.1886034e+86 -1.1390677e+87)
(-2.7231027e+88 1.9495505e+87 1.3610586e+87)
(-2.8378145e+88 -1.1647307e+86 2.1824638e+87)
(-2.2472619e+88 -5.7618183e+86 -4.2494904e+87)
(-6.9842915e+87 -2.9874715e+86 -1.1987038e+87)
(-1.7684965e+88 1.4534204e+87 8.1414954e+86)
(-2.9147373e+88 1.2644942e+87 -6.7070964e+86)
(-2.8945231e+88 1.7626147e+87 -1.1310801e+87)
(-2.058034e+88 -1.6732276e+87 -2.20446e+87)
(-2.2574338e+88 1.9566809e+85 -1.394808e+87)
(-2.2910116e+88 6.2063978e+86 -2.3974124e+87)
(-2.2676523e+88 -1.2010981e+87 -2.6043679e+87)
(-2.3134734e+88 7.8010695e+86 -1.9025235e+87)
(-1.8117056e+88 -8.4584117e+87 -8.8380195e+87)
(-2.2311888e+88 -8.411054e+86 -1.8077364e+87)
(-3.4430649e+88 -3.6000557e+87 -9.4553197e+87)
(-3.3339698e+88 2.1609272e+87 -9.4864116e+87)
(-2.8004069e+88 -3.9832934e+87 -5.3093584e+87)
(-2.0443238e+88 -2.2757615e+87 -4.9480642e+87)
(-2.2115614e+88 -1.8708232e+87 -7.4524817e+87)
(-2.2578137e+88 4.6215344e+86 -2.8757209e+87)
(-1.3286106e+88 2.1344972e+87 -4.2622246e+87)
(7.361181e+87 -6.1217296e+86 4.1901249e+87)
(-1.2913675e+88 -7.5646961e+87 -9.6736929e+87)
(-2.6298254e+88 -3.6818823e+87 -1.4815289e+88)
(-1.4237629e+88 -3.9932606e+87 -9.0079572e+87)
(-2.8132925e+88 2.6680027e+87 -1.5109094e+88)
(-1.5581118e+88 3.7716422e+87 -3.0391339e+87)
(-1.924712e+88 1.2807247e+87 -2.992926e+87)
(-1.8606586e+88 2.48264e+87 -6.452101e+87)
(-1.4400206e+88 5.1712223e+87 -7.5315663e+87)
(-1.817604e+88 2.9608672e+87 4.4596093e+86)
(-2.6660068e+88 2.0567205e+87 1.4233642e+86)
(-2.7896343e+88 -1.6492609e+86 -4.0647361e+87)
(-3.0092949e+88 -2.9986881e+86 2.076837e+86)
(-2.3553039e+88 1.6211175e+87 -1.8094748e+87)
(-1.8569143e+88 2.8424422e+87 3.089616e+87)
(-3.6524703e+88 -2.323973e+87 -1.586337e+87)
(-2.801066e+88 2.8695406e+87 2.2163311e+87)
(-9.4453054e+86 -4.4288077e+87 -9.5373668e+86)
(-3.0306268e+88 3.5101374e+86 -4.5791306e+87)
(-3.568144e+88 -6.6850409e+87 -4.5548351e+87)
(-7.3990342e+87 -6.457995e+87 -4.7978587e+87)
(-1.7251699e+88 -2.9487506e+87 -2.4311662e+87)
(-2.3307352e+88 -1.0706653e+88 -2.4008885e+87)
(-9.1502418e+87 -5.4828364e+87 2.2177758e+87)
(-1.8353316e+88 3.8574411e+87 1.7727829e+87)
(-8.246423e+87 8.0849237e+86 3.4129423e+87)
(-2.8705449e+88 1.7075707e+87 -6.1412045e+86)
(-2.0890626e+88 1.8531358e+87 -6.6772783e+86)
(-1.8621391e+88 4.9604714e+86 -1.0786587e+87)
(-1.8083703e+88 9.6093301e+86 -1.0869323e+87)
(-2.0525829e+88 9.4336923e+86 -9.2630992e+86)
(-2.0581647e+88 7.5534067e+85 -1.5224549e+87)
(-1.6941913e+88 1.8340269e+87 -1.5608256e+87)
(-1.572668e+88 3.3001888e+87 -1.8455772e+87)
(-1.9185432e+88 7.7502808e+86 -1.914514e+87)
(-2.5345326e+88 5.3734808e+86 3.8241771e+86)
(-2.9237676e+88 -2.222464e+87 -7.2349086e+87)
(-2.2665285e+88 -1.7021439e+86 -6.5729683e+86)
(-2.1553571e+88 1.0760969e+87 -1.4655969e+86)
(-3.7941233e+88 -2.8068627e+87 -9.4220473e+87)
(-2.8515151e+88 -3.4727105e+86 -1.0920832e+88)
(-2.7702139e+88 -2.8207996e+87 -9.29827e+87)
(-1.7507908e+88 9.8530207e+86 -3.5088192e+87)
(-1.6213188e+88 -1.2677583e+87 -4.3414186e+87)
(1.8265139e+88 -1.8072183e+88 -1.5333008e+88)
(-2.1393552e+88 1.5629975e+87 -9.7160812e+86)
(-4.9588575e+88 -8.9919524e+87 -9.4569062e+87)
(-2.7891463e+88 -5.5477082e+87 -7.6335769e+87)
(-3.0807757e+88 7.6341035e+87 -6.1927156e+87)
(-3.151599e+88 2.7973359e+87 -1.2428638e+88)
(-3.3276604e+88 -6.0939328e+87 -4.3250367e+86)
(-2.3349038e+88 1.0509347e+86 -3.1246227e+87)
(-2.0395615e+88 2.0146096e+87 -4.2975345e+87)
(-1.7653065e+88 3.6400699e+87 -1.5512963e+87)
(-2.016785e+88 -6.2095602e+87 -1.7131606e+88)
(1.380526e+88 6.2570697e+86 2.7672415e+87)
(-1.7435308e+88 -3.5346437e+87 3.9143472e+87)
(-3.5876706e+87 -3.0923062e+87 -1.0219783e+88)
(-2.2286007e+88 2.0186193e+87 -2.3058792e+88)
(-2.0231226e+88 3.3998997e+87 -1.2049867e+88)
(5.2323351e+87 -2.9058969e+87 -1.1977127e+88)
(-1.9953146e+88 6.0058096e+87 -2.4022067e+88)
(-1.7373532e+88 3.3112345e+87 -1.8292745e+87)
(-2.0318366e+88 1.4808349e+87 -1.8690693e+87)
(-1.5144132e+88 2.934064e+87 -5.6999991e+87)
(-1.3590715e+88 4.5079915e+87 -6.6524452e+87)
(-2.7973449e+88 1.9219e+87 4.8531288e+86)
(-2.1003121e+88 2.9087905e+87 9.9877814e+86)
(-2.1566701e+88 2.4564138e+87 5.1323615e+86)
(-1.9628374e+88 3.9522374e+87 1.5596205e+87)
(-1.8333644e+88 8.2445793e+86 1.9566555e+87)
(-2.1413978e+88 9.881121e+86 -6.5134968e+86)
(-1.6956784e+88 3.6216594e+87 3.8402563e+87)
(-3.3077714e+88 4.8814526e+87 1.2312223e+88)
(-1.0103241e+88 3.2766993e+87 4.4821071e+87)
(-3.2196109e+88 -1.8627233e+86 1.011934e+88)
(-2.708624e+88 2.1837344e+87 1.0346704e+87)
(3.3607411e+87 -4.8523289e+87 -4.9407383e+87)
(-2.9418898e+88 -1.1327854e+87 -4.8840578e+87)
(-3.0223749e+88 -1.5494193e+87 4.9146581e+87)
(-1.2849888e+88 -1.2695765e+87 6.3507152e+86)
(-3.0280406e+88 3.6730391e+87 1.7200428e+87)
(-3.5082864e+88 -5.0400309e+87 3.1676772e+87)
(-3.7675596e+88 1.3419959e+87 6.9638063e+87)
(-1.6774236e+88 2.9761118e+87 2.2306483e+87)
(-4.0138402e+88 -1.3828219e+88 -3.1376457e+87)
(-2.7394974e+88 3.2164888e+87 1.7369496e+87)
(-2.6509736e+88 -8.4842437e+87 -3.805907e+87)
(-2.2796024e+88 -1.3011965e+88 -1.0145668e+88)
(-2.494351e+88 3.4755702e+87 -1.1392625e+88)
(-1.7222581e+88 -8.2167443e+87 -8.4505481e+87)
(-4.2424869e+87 -4.9944835e+87 -5.1378019e+87)
(-1.8028085e+88 -2.359049e+88 -9.6081831e+87)
(-1.7987185e+88 -1.8440249e+87 -4.7011066e+87)
(5.9591396e+87 -8.7650251e+87 2.3233412e+87)
(-1.8824391e+88 -3.1258718e+86 7.0477528e+86)
(-2.3561864e+88 3.2145207e+87 1.6673692e+86)
(-2.3394564e+88 1.7722854e+86 -2.005349e+85)
(-2.6420025e+88 -1.9014172e+86 -6.1943273e+87)
(-2.8478104e+88 -5.9475207e+87 -2.1540308e+87)
(-2.9465184e+88 1.450776e+87 -3.3750595e+85)
(-2.1156477e+88 1.6933122e+87 -4.8735791e+86)
(-2.2474169e+88 1.7419064e+87 -9.4090032e+86)
(-2.2739412e+88 1.1382765e+87 -8.2850403e+86)
(-2.1149944e+88 1.5716241e+87 -3.9430219e+86)
(-2.1975224e+88 2.5053401e+87 -8.6797087e+86)
(-1.558859e+88 2.084505e+87 -9.7380065e+86)
(-1.5554824e+88 3.1350581e+87 -8.981785e+86)
(-2.1614505e+88 2.1948367e+87 -7.9264824e+86)
(-2.3304136e+88 2.5780543e+85 -1.3211022e+87)
(-2.0214325e+88 1.6052551e+87 -1.6818712e+87)
(-2.1643362e+88 2.6038733e+87 -1.4402244e+87)
(-2.328869e+88 4.3166031e+86 -1.5641001e+87)
(-2.5729491e+88 -2.4382429e+87 -1.1837936e+87)
(-4.029143e+88 9.0698952e+86 -5.6529699e+87)
(-3.4476765e+88 -7.4977729e+85 -7.4097552e+87)
(-2.4181936e+88 8.4851554e+86 7.0873706e+86)
(-2.31452e+88 -4.4267683e+86 1.3985783e+87)
(-1.843933e+88 -1.2023397e+87 -7.9405688e+86)
(-2.0653834e+88 -5.0195392e+86 -1.5795283e+87)
(-3.8470994e+88 -3.1158293e+87 -4.9805286e+87)
(-3.3023074e+88 4.6903091e+86 -6.6977941e+87)
(-1.8370141e+88 -1.018218e+88 -1.0408154e+88)
(-2.2452386e+88 1.5072327e+87 -6.2613787e+86)
(-2.2509145e+88 1.4915799e+87 -8.9272632e+86)
(-2.9483526e+88 -8.0956209e+87 -1.1312232e+88)
(-2.01552e+88 -3.8863476e+87 -8.3098883e+87)
(-1.7691078e+88 -1.7024313e+87 -2.0029495e+88)
(-2.8698827e+88 -5.5411047e+87 -9.7808475e+87)
(-2.1304959e+88 -3.7553068e+87 -9.4925723e+87)
(-2.2965526e+88 8.9760463e+86 -3.6968482e+87)
(-2.0168486e+88 -9.1693008e+85 -3.0482472e+87)
(1.0985668e+87 -1.0459591e+88 -1.3863887e+88)
(-2.3443459e+88 9.1441431e+86 -1.0405966e+87)
(-3.5392533e+88 -6.2136875e+87 -1.2737524e+87)
(-5.2846149e+88 -8.892528e+87 -9.8940102e+87)
(-2.4284845e+88 6.3359098e+86 -1.041674e+88)
(-3.4632691e+88 4.6309442e+87 -8.6693833e+87)
(-1.7851316e+88 5.5471254e+87 -1.7986557e+87)
(-2.8565185e+88 4.0724905e+87 -1.3248642e+88)
(-4.1128515e+88 2.8815861e+87 -1.9813716e+87)
(-2.0413405e+88 2.437626e+87 -2.5761697e+87)
(-1.6845112e+88 2.5216546e+87 -3.7016e+87)
(-2.0230825e+88 1.8882886e+87 -1.0848187e+87)
(-2.1138478e+88 -7.8811139e+87 -1.6109124e+88)
(9.1429961e+87 -1.969711e+87 5.8855698e+87)
(-2.4677023e+88 -4.7971191e+87 1.1369173e+88)
(-3.5076041e+87 4.1941151e+87 1.2387031e+87)
(-1.0922176e+88 2.7068489e+87 -1.9140685e+88)
(-1.6821687e+88 1.8195e+87 -2.2085879e+88)
(-2.0850522e+88 1.0675172e+88 -5.1120421e+87)
(-1.004316e+88 1.2116821e+87 -1.2247928e+88)
(-1.7032243e+87 -2.7566112e+87 -4.8927726e+87)
(-1.7604749e+88 5.2784762e+87 -2.4278434e+88)
(-2.0019157e+88 2.7585622e+87 -2.0144494e+87)
(-2.0575881e+88 9.6617414e+86 -1.9025244e+87)
(-1.5918011e+88 2.6530857e+87 -5.3516337e+87)
(-1.589819e+88 4.1949219e+87 -6.3728925e+87)
(-8.9483906e+87 4.529838e+87 -6.57486e+87)
(-2.8466748e+88 2.3161386e+87 8.2210133e+86)
(-2.1105275e+88 7.3560496e+86 3.1689086e+86)
(-2.1309919e+88 1.2771967e+87 2.224547e+86)
(-2.1832599e+88 1.7873694e+87 5.0927875e+86)
(-2.0422841e+88 8.4113664e+86 2.7131058e+86)
(-2.26663e+88 7.9263209e+86 2.424051e+87)
(-2.324107e+88 2.4953286e+87 -7.7697415e+86)
(-1.7403884e+88 3.5493662e+87 3.8095455e+86)
(-1.9060043e+88 3.8198563e+87 1.67359e+87)
(-2.2539041e+88 2.5132963e+87 -1.0198195e+87)
(-3.4105812e+88 6.2118825e+87 7.982254e+87)
(-4.5885596e+88 2.9526274e+87 5.029119e+87)
(-3.6342629e+88 -6.7221581e+86 6.6535127e+87)
(-3.2697202e+88 7.7857576e+87 3.8996792e+87)
(-1.748389e+88 2.3015643e+87 8.7536306e+85)
(-1.3868168e+88 4.3864474e+87 4.2130351e+86)
(-3.0433702e+88 3.9574947e+87 1.1004344e+88)
(-1.6382517e+88 -1.6922975e+87 1.3428478e+87)
(-1.8145345e+88 6.412181e+86 8.4678396e+87)
(-2.1720596e+88 6.1604408e+86 -4.5281514e+86)
(-1.74419e+88 3.5421692e+87 5.9819036e+87)
(-1.7245113e+88 1.333939e+87 1.4344743e+88)
(1.7082926e+88 4.3478888e+87 3.2021696e+87)
(-1.7047661e+88 -8.0785684e+87 4.7343578e+87)
(-2.6185472e+88 2.5220413e+87 8.8088922e+86)
(-1.1955443e+88 -8.9869365e+87 2.1074512e+87)
(-3.1732501e+88 -1.9874389e+87 2.4573008e+87)
(-1.0830109e+88 1.2209345e+87 -5.4676237e+87)
(-2.8196681e+88 7.0905865e+87 -2.5631818e+87)
(-1.6646732e+87 -2.318862e+87 3.2757972e+87)
(-2.0882066e+88 -9.0369963e+87 4.813693e+87)
(-2.779821e+88 -8.860116e+86 9.1681181e+86)
(-2.6332001e+88 -1.3280343e+87 1.7183097e+88)
(-2.9907705e+88 -1.7448104e+86 5.8218482e+87)
(-1.8822971e+88 1.3111359e+87 8.9997296e+86)
(-3.8288904e+88 -1.9854277e+86 4.0738678e+87)
(-3.3314756e+88 -1.6009587e+86 1.5196384e+87)
(-4.2304379e+88 -2.9476191e+88 -3.8655976e+87)
(-2.8598986e+88 2.8786794e+87 1.7552692e+87)
(-2.6285262e+88 -1.0217823e+88 -5.5663081e+87)
(-4.781801e+88 -6.1166355e+87 -1.429731e+88)
(-2.6950992e+88 -1.1841351e+87 -9.9903417e+87)
(-7.7566004e+87 -2.6465046e+87 -8.4769931e+87)
(-5.7238249e+87 -9.0699837e+87 -7.6597728e+87)
(-2.7246077e+87 -4.8070244e+87 -1.3304522e+88)
(-6.3608809e+87 -1.8397068e+88 -1.3888938e+88)
(-8.8691091e+87 -3.2868712e+87 -3.196564e+87)
(1.2179167e+88 -5.9004688e+86 1.4699606e+88)
(-2.0155889e+88 2.4120731e+87 -8.2969207e+86)
(-3.5586325e+88 1.0410844e+87 -3.6993329e+87)
(-3.2265318e+88 -4.1696241e+86 -4.8970886e+87)
(-3.2741839e+88 -1.5015278e+87 -6.2751853e+87)
(-3.541885e+88 1.6216527e+86 -7.289567e+87)
(-2.5834711e+88 2.0587113e+86 3.8424894e+87)
(-1.4881554e+88 -3.6620995e+87 -9.3639922e+87)
(-3.2678123e+88 -6.1548227e+87 -8.9909623e+87)
(-3.1011376e+88 1.4994723e+87 1.2279901e+87)
(-2.8970978e+88 2.2234496e+86 -8.0008736e+86)
(-2.2973595e+88 1.0832463e+87 -2.7559809e+86)
(-2.3928923e+88 8.0892405e+86 -1.6154609e+86)
(-2.395357e+88 1.2409362e+87 -5.8591858e+86)
(-2.258166e+88 1.0755042e+87 -5.4997853e+86)
(-2.1290361e+88 1.683135e+87 -6.2472741e+86)
(-2.1792222e+88 1.8293308e+87 -5.6758681e+86)
(-2.1835755e+88 2.0550821e+87 -4.2502084e+86)
(-2.1662902e+88 2.0676879e+87 -5.8745101e+86)
(-2.3280974e+88 2.4388692e+87 -1.0292632e+87)
(-1.9911786e+88 1.6980265e+87 -1.3311513e+87)
(-2.1367229e+88 2.235887e+87 -1.1760149e+87)
(-2.3995465e+88 1.9149956e+87 -1.0144856e+87)
(-2.3178601e+88 -1.5011486e+86 -1.0824771e+87)
(-2.1686341e+88 1.270842e+87 -1.4152052e+87)
(-2.4799908e+88 2.4965525e+87 -1.2828795e+87)
(-2.3664467e+88 2.993979e+86 -1.4067716e+87)
(-2.0655258e+88 1.123561e+87 -2.461841e+87)
(-3.9434991e+88 8.4784181e+86 -2.5751019e+87)
(-3.1804186e+88 -2.5787741e+87 -3.1585539e+87)
(-3.0996485e+88 -5.2455367e+87 -6.7626535e+87)
(-3.0738524e+88 -2.78155e+87 -6.9946345e+87)
(-2.2784513e+88 3.0800798e+86 1.099966e+86)
(-2.3958068e+88 -7.7883691e+86 -3.5227667e+86)
(-2.1355412e+88 1.1674637e+87 -3.139777e+87)
(-1.7631106e+88 -3.0912948e+86 -3.0520092e+87)
(-3.2797995e+88 3.552509e+87 -6.958703e+87)
(-3.5198843e+88 4.3084331e+87 -1.2291239e+88)
(-2.2490221e+88 1.6143557e+86 -4.8240669e+86)
(-2.0330734e+88 -4.574162e+86 -8.0897359e+86)
(-1.8167497e+88 -1.3370338e+87 -2.8658245e+87)
(-2.1055782e+88 -3.9679786e+87 -6.5324981e+87)
(-2.2309151e+88 -1.6134754e+87 -2.053138e+87)
(-2.8920399e+88 -4.1973095e+87 -9.6620271e+87)
(-1.0057097e+88 -5.4153093e+87 -9.0089053e+86)
(-3.8682618e+88 3.0620737e+87 -9.5670877e+87)
(-2.0000324e+88 -1.1063099e+88 -4.3952976e+87)
(-2.4345882e+88 1.2383815e+87 -7.0624044e+86)
(-2.3345947e+88 1.240176e+87 -7.3816791e+86)
(-7.7040818e+87 -7.162654e+87 -6.4711235e+87)
(-5.74573e+88 -2.3699577e+87 -4.4017813e+87)
(-3.4816966e+88 -7.3723403e+86 -1.2858469e+88)
(-8.6901808e+87 -7.0372984e+87 -7.5690505e+87)
(-1.5537188e+88 -8.6202897e+87 -1.4215308e+88)
(-1.7812612e+88 -8.9885895e+87 -8.8506375e+87)
(-2.7335812e+88 -1.0263806e+87 -1.2058407e+88)
(-2.2347814e+88 8.2838809e+86 -1.8840262e+87)
(-1.9533023e+88 2.1853932e+87 -2.0774463e+87)
(-2.528527e+87 -6.6074062e+87 -9.3574218e+87)
(-2.3888385e+88 -8.9506151e+85 -1.0793561e+87)
(-3.4743377e+88 -1.2654476e+87 -1.2455328e+86)
(-3.1120148e+88 1.6546187e+87 -5.3544901e+87)
(-6.0734095e+88 -7.0471511e+87 -1.439272e+88)
(-2.2552157e+88 1.5404529e+87 -9.2353841e+87)
(-3.4562865e+88 5.953942e+86 -9.0333582e+87)
(-3.0869645e+88 9.1276109e+87 3.3150061e+87)
(-2.3360181e+88 4.8633768e+87 -1.6100057e+87)
(-1.8216845e+88 4.6887021e+87 -1.2486145e+88)
(-4.6089915e+88 5.5941791e+87 -5.8753118e+84)
(-2.17608e+88 2.8256638e+87 -2.4842768e+87)
(-1.6614632e+88 1.8004293e+87 -3.7594217e+87)
(-2.1694352e+88 8.6325992e+86 -1.3323357e+87)
(-5.8364694e+87 4.098323e+87 4.6272346e+87)
(-7.9037659e+87 1.7156808e+87 -3.0151263e+86)
(-3.3088232e+88 2.0679709e+87 -2.0657212e+88)
(-1.7907767e+88 2.823196e+87 -2.1572532e+88)
(-2.4926e+88 1.2333076e+88 2.0871354e+86)
(1.2703631e+88 4.2411745e+86 1.3859214e+88)
(-4.5486649e+88 4.8790011e+86 -2.2795702e+88)
(-1.8468413e+88 4.8950353e+87 -2.4054402e+88)
(-1.7335078e+88 3.1904927e+87 -1.45072e+88)
(-1.117367e+88 6.7933396e+87 2.8653318e+87)
(-1.1794871e+88 -2.0742582e+87 -2.3507093e+87)
(-2.6879818e+88 1.6053981e+87 -1.4039621e+87)
(-2.8707464e+88 2.1004769e+87 9.7140569e+86)
(-2.0343626e+88 1.4286673e+87 3.0356508e+86)
(-2.1998986e+88 1.9438341e+87 5.932699e+86)
(-2.261079e+88 1.9196715e+87 2.1085255e+86)
(-2.0244732e+88 1.0768339e+87 4.4566624e+85)
(-2.0932123e+88 8.0553913e+86 1.5178611e+86)
(-1.9778685e+88 1.0611902e+87 4.4006765e+86)
(-1.778508e+88 1.0594356e+87 3.7657108e+86)
(-2.0849145e+88 7.4840767e+86 5.2975392e+86)
(-2.2212392e+88 1.1475393e+87 3.7286071e+87)
(-2.2577542e+88 1.4139344e+87 -8.2597448e+86)
(-2.1820552e+88 2.5835683e+87 1.7501434e+87)
(-1.9378956e+88 6.3187846e+86 1.1122162e+87)
(-2.3392479e+88 1.9881041e+87 -1.1148067e+87)
(-2.4805231e+88 -1.1988809e+87 7.3210804e+87)
(-2.4246277e+88 -2.275239e+87 1.1764428e+88)
(-3.7986264e+88 -2.4781575e+87 8.8443761e+87)
(-3.987109e+88 -2.1176162e+87 6.650681e+87)
(-1.9660243e+88 3.0482242e+87 2.4569463e+86)
(-1.7918938e+88 3.5796612e+87 1.8612457e+87)
(-3.0479389e+88 1.5328315e+87 6.1981836e+87)
(-1.6384473e+88 3.9749904e+87 2.3133228e+87)
(-1.910892e+88 5.8403417e+87 1.0165707e+88)
(-1.9047658e+88 2.8395901e+87 1.9612195e+86)
(-3.7711712e+88 1.4162969e+88 8.8323531e+87)
(-2.0510367e+88 4.3204402e+87 9.6361443e+87)
(-1.9917418e+88 -2.2490279e+86 1.3975129e+87)
(-2.2794435e+88 2.1262633e+88 6.8415468e+87)
(-2.0095826e+88 2.849837e+87 8.6659953e+86)
(-9.2625498e+87 3.8808232e+87 1.0576731e+88)
(-1.7644785e+88 4.9640141e+87 1.9667267e+87)
(-3.3411559e+88 2.6534452e+87 1.7292382e+88)
(-1.3560577e+88 9.6552359e+86 2.6351319e+87)
(-9.0338127e+87 -3.0512888e+87 1.3011386e+88)
(-2.9209038e+88 -7.2614627e+86 6.2527352e+87)
(-2.0999494e+88 1.5417464e+87 4.1844507e+86)
(2.5123279e+87 3.8961528e+87 7.7052991e+87)
(-2.222772e+87 2.8994064e+87 1.3789815e+88)
(6.4703074e+87 7.3572786e+87 -9.3009909e+87)
(-2.3258115e+88 -7.9559994e+87 -2.6521595e+87)
(-2.7278374e+88 2.1106529e+87 7.0136686e+86)
(-1.814526e+88 -1.2200417e+88 -4.9490115e+87)
(-3.8425773e+88 2.2769972e+87 -3.7221528e+87)
(-1.3358027e+88 -2.6695592e+86 -6.0128233e+87)
(-2.2919063e+88 1.4157891e+88 7.156259e+86)
(-1.986102e+87 -3.5868184e+87 3.2022788e+87)
(-8.1260643e+87 -1.0801556e+87 -1.9316414e+86)
(-1.5489902e+88 -6.8228131e+87 1.9681907e+87)
(-9.0013571e+87 -5.4573464e+87 7.5972526e+87)
(-2.9648388e+88 -1.2754624e+87 6.1105643e+87)
(-1.9077509e+88 1.6987716e+87 3.3559516e+86)
(-4.0338996e+88 4.2550633e+87 2.675384e+87)
(-2.8074148e+88 2.8480813e+87 -2.4106368e+87)
(-2.9542923e+88 -1.0302762e+87 -1.2728267e+87)
(-3.797299e+88 -5.5304906e+86 4.517517e+87)
(-2.552872e+88 -3.2686092e+87 7.6463452e+87)
(-1.9197053e+88 -9.1409452e+87 4.4836293e+87)
(-4.5250054e+88 -2.5205931e+88 -6.6028453e+87)
(-2.9266982e+88 1.6694415e+87 1.360893e+87)
(-5.7953504e+88 2.1714548e+87 -1.7097402e+88)
(-9.8300689e+87 -4.9741869e+87 -1.0059501e+88)
(-1.1402234e+87 5.5252e+87 -1.4220425e+88)
(-1.0130942e+88 -2.3385631e+88 -1.227764e+88)
(-4.6112065e+87 8.2178579e+87 -1.050109e+88)
(1.2604624e+88 2.6912969e+85 1.7140478e+88)
(-2.0158134e+88 2.5160459e+87 1.0463838e+87)
(-3.9805379e+88 5.2148979e+87 -3.353343e+87)
(-4.3600553e+88 2.8052019e+87 -2.2345536e+87)
(-2.7598533e+88 4.2255047e+87 -3.0023329e+87)
(-3.0142819e+88 3.0501751e+87 -4.3075461e+87)
(-3.7340341e+88 1.3709426e+87 -3.4808217e+87)
(-2.5628914e+88 -1.3051448e+87 -3.5193851e+87)
(-4.2457995e+88 8.8364632e+86 -9.8839709e+87)
(-4.3692678e+88 1.6535172e+86 -6.3121451e+87)
(-6.5812844e+87 1.1858665e+88 -4.7533415e+87)
(9.0535035e+87 -1.4869201e+88 -8.1830331e+87)
(-3.1289396e+88 1.5489093e+87 1.1884487e+87)
(-2.5384025e+88 3.3398493e+86 7.8184818e+86)
(-2.2863853e+88 9.6270311e+86 -7.8740216e+85)
(-2.2414106e+88 8.3273477e+86 -6.2982965e+86)
(-2.2632014e+88 5.8286628e+86 -3.9700457e+86)
(-3.0102815e+88 1.1306353e+87 -4.6050853e+86)
(-2.2762213e+88 7.5069973e+86 -1.2072302e+87)
(-2.3490519e+88 7.9088307e+85 -1.4564863e+87)
(-2.261765e+88 5.8183577e+86 -9.7222583e+86)
(-2.139561e+88 8.760326e+86 -1.0991393e+87)
(-2.0529816e+88 9.0057345e+86 -5.906464e+86)
(-2.0452295e+88 8.5795934e+86 -6.1727063e+86)
(-2.1156934e+88 1.0837383e+87 -4.7931753e+86)
(-2.1265363e+88 1.1618192e+87 -5.9002526e+86)
(-2.3844486e+88 1.5430911e+87 -7.3428314e+86)
(-2.4080403e+88 1.4014247e+87 -6.3979692e+86)
(-2.4421646e+88 1.8214682e+87 -6.0062958e+86)
(-2.4085264e+88 1.9760046e+87 -6.9732065e+86)
(-2.3672625e+88 2.100456e+87 -9.1614348e+86)
(-2.1518075e+88 1.1889828e+87 -1.2967477e+87)
(-2.2285765e+88 1.4680442e+87 -1.1979446e+87)
(-2.438626e+88 1.4480473e+87 -9.9926555e+86)
(-2.5492842e+88 3.3679322e+87 -4.9594278e+86)
(-2.041298e+88 -2.0204512e+87 -1.1489483e+88)
(-1.7601136e+88 -1.506614e+87 -3.8614039e+87)
(-2.3062597e+88 -6.5604363e+86 -2.2005926e+87)
(-2.2391375e+88 1.1632401e+87 -1.9434364e+87)
(-2.0720219e+88 8.1049682e+86 -5.1293862e+87)
(-9.5649999e+87 1.4873738e+86 -5.7195178e+87)
(-1.6975203e+88 1.9917882e+87 -4.3372392e+87)
(-2.0804758e+88 -8.4381613e+86 -4.2424664e+87)
(-2.9186826e+88 -3.683057e+86 3.4790664e+87)
(-2.2968783e+88 -1.0625173e+87 -2.3777555e+87)
(-2.2754728e+88 -5.2126275e+87 -4.2649946e+87)
(-2.2522286e+88 -2.4822454e+87 -8.4029897e+87)
(-2.0866008e+88 4.4299866e+87 -5.8567642e+87)
(-3.1258452e+88 1.4454716e+87 -1.0905487e+88)
(-2.2672578e+88 3.6968252e+84 -7.9938021e+86)
(-2.2879115e+88 -4.6723222e+86 -4.1482327e+86)
(-2.2044301e+88 1.5816111e+87 -2.1133938e+87)
(-1.8581506e+88 1.0513399e+87 -3.0311945e+87)
(-3.7005614e+88 9.619047e+87 -9.4701492e+87)
(-3.7969822e+88 1.0155293e+88 -1.5050794e+88)
(-2.3984441e+88 2.2133948e+86 -6.1752237e+86)
(-2.1254959e+88 5.3781111e+86 -5.3778202e+86)
(-1.8345732e+88 -3.9648355e+87 -1.4132272e+88)
(-1.6738768e+88 -7.0923397e+86 -2.5853454e+87)
(-1.7514779e+88 -4.3503848e+87 -8.9639101e+87)
(-2.6525618e+88 -5.283413e+87 -1.418817e+88)
(-2.1290654e+88 -2.1882566e+87 -1.7159018e+87)
(-1.4792697e+88 -1.9349831e+87 -1.1847781e+88)
(-1.6422198e+87 -3.5809057e+87 6.2492059e+87)
(-4.1925898e+88 -3.5923859e+87 -1.4250278e+88)
(-2.3715951e+88 -1.1784981e+88 -5.2219012e+87)
(-2.4112689e+88 8.8925766e+86 -7.0284294e+86)
(-2.3854868e+88 9.1548277e+86 -7.443645e+86)
(-1.1027198e+87 -1.2887994e+88 3.764168e+87)
(-3.5802e+88 -1.852634e+87 -1.3841243e+88)
(-6.2975948e+88 -5.5832265e+87 3.3298509e+87)
(-3.2922403e+88 -9.0715536e+86 -8.9823261e+87)
(-1.02982e+88 -8.1829027e+87 -4.2475216e+87)
(-1.874169e+88 -1.0725656e+88 -1.3540198e+88)
(-1.1106306e+86 -4.6298407e+87 -6.9586096e+87)
(-3.380071e+88 1.2341807e+87 -1.1672758e+88)
(-2.6338729e+88 -2.1541991e+86 -8.2631956e+87)
(-2.3845006e+88 1.0104895e+87 -1.4869775e+87)
(-2.1488892e+88 2.9555815e+87 -1.7558314e+87)
(-4.3465643e+88 -2.152593e+87 7.2517297e+87)
(-1.9300078e+88 1.874013e+87 1.0078519e+88)
(-3.4491001e+88 2.635879e+87 -7.8821274e+87)
(-2.4586926e+88 2.7276434e+87 -8.674775e+87)
(-2.1617909e+88 2.3449251e+87 -1.3903435e+88)
(-1.5827821e+88 -4.4253622e+87 7.7689216e+87)
(-3.5133106e+88 1.3482362e+88 5.4594061e+87)
(-1.6423557e+88 3.9460792e+87 -1.2974743e+88)
(-9.1844354e+87 2.1827633e+86 3.4699719e+87)
(-1.5060297e+88 3.7216505e+87 -2.7533104e+87)
(-2.8800176e+88 4.480435e+87 -2.2550312e+88)
(6.5943624e+87 4.3434259e+87 1.2731532e+88)
(-2.5317175e+88 -7.1819815e+87 -1.1439245e+86)
(-3.4321426e+88 7.2380752e+85 -2.4266203e+88)
(-2.4111719e+88 -5.0522996e+87 -9.6633103e+87)
(-1.7795116e+88 -2.7591385e+87 8.1320861e+87)
(7.0722714e+86 -1.9899266e+87 -3.1678482e+87)
(-2.6973058e+88 1.4869936e+87 -1.2385021e+87)
(-2.0258906e+88 9.3020793e+86 -4.4256957e+86)
(-2.2730946e+88 8.8584876e+86 -8.1170887e+86)
(-2.0095887e+88 1.0787863e+87 -3.1126675e+86)
(-2.2442287e+88 1.17254e+87 -8.4906508e+86)
(-3.0275799e+88 1.7432317e+87 7.8539824e+86)
(-2.1069917e+88 1.3774066e+87 2.3335184e+86)
(-2.2745433e+88 1.6286675e+87 8.1003523e+86)
(-2.1950255e+88 1.2509991e+87 4.1271208e+86)
(-2.0524325e+88 1.3027449e+87 2.8767036e+86)
(-2.0307439e+88 1.4203727e+87 4.3789216e+86)
(-1.8914927e+88 1.3938994e+87 1.9141771e+86)
(-1.9794854e+88 1.6137507e+87 2.3879354e+86)
(-2.0592743e+88 1.4449468e+87 2.9590739e+86)
(-2.3120589e+88 2.1540137e+87 5.0959823e+86)
(-2.3099721e+88 2.0588576e+87 6.2505675e+86)
(-2.2048141e+88 1.9212136e+87 7.4506882e+86)
(-2.2912621e+88 1.6694222e+87 6.0391328e+86)
(-2.2872165e+88 1.0422993e+87 4.7156794e+87)
(-2.4905964e+88 1.5137569e+87 -1.2091739e+87)
(-2.4661702e+88 1.2210272e+87 3.3729441e+87)
(-2.0716482e+88 4.2579217e+86 3.4927511e+87)
(-2.4139035e+88 1.8220717e+87 -1.4422491e+87)
(-3.7873912e+88 2.0697469e+87 7.3084363e+87)
(-3.4042784e+88 8.1345501e+86 1.1901507e+88)
(-4.2169404e+88 4.89831e+86 9.6967941e+87)
(-3.2656534e+88 -5.4720567e+87 1.3519496e+88)
(-2.23592e+88 1.8090914e+87 -4.6883999e+86)
(-1.6767061e+88 2.2026502e+87 1.7468069e+87)
(-2.8117128e+88 -5.7421348e+86 9.973095e+87)
(-1.6510439e+88 -1.2881951e+86 2.4821766e+86)
(-3.1113478e+88 -3.1765626e+87 8.6840048e+87)
(-2.0845662e+88 1.5026181e+87 2.3581377e+86)
(-2.4298216e+88 -3.6002197e+87 6.364987e+86)
(-2.7255723e+88 -5.6158989e+87 1.6304797e+88)
(-2.0284639e+88 -5.7718188e+87 1.3666546e+88)
(-4.2513903e+88 -1.2382788e+88 1.0296257e+88)
(-2.2023272e+88 2.6749239e+87 5.0516066e+86)
(-2.5082614e+88 9.8382069e+86 1.3208168e+88)
(-1.7232879e+88 3.9734609e+87 1.6386338e+87)
(-3.1335703e+88 -2.8818127e+87 8.0937192e+87)
(-1.6529892e+88 5.1345806e+87 1.8605046e+87)
(-2.1757081e+88 7.1650997e+87 1.5444891e+88)
(-1.4897509e+88 1.1236245e+88 1.9298965e+88)
(-2.0289067e+88 3.3810677e+87 6.5256893e+86)
(-2.4999217e+88 1.1178715e+88 -7.0294566e+85)
(-6.9623443e+88 1.1357656e+87 1.4116122e+88)
(-4.2316387e+88 1.5418449e+86 2.7823798e+86)
(-1.2998477e+88 2.5770225e+88 7.7429758e+87)
(-2.0430354e+88 2.9847373e+87 1.082284e+87)
(-8.2362257e+87 2.0667918e+87 1.0873839e+88)
(3.2352472e+87 6.7409328e+87 1.4198281e+88)
(-2.019848e+88 4.5555405e+87 1.8723605e+87)
(-2.4114009e+88 9.1661201e+87 1.3621978e+88)
(-1.73868e+88 1.6614261e+87 2.5302006e+87)
(-1.5057239e+88 -2.3640153e+87 1.5665297e+88)
(-8.0160386e+87 -4.7594043e+87 1.0030711e+88)
(-1.1051952e+87 -1.0816552e+88 1.2471779e+88)
(-2.2189307e+88 2.0987548e+87 5.8342966e+86)
(-2.5022862e+85 8.861804e+87 7.029233e+87)
(-3.3743811e+87 5.6291019e+87 7.8802245e+87)
(2.0505411e+87 2.1869326e+87 -1.3896963e+88)
(-2.6759755e+88 -7.136836e+87 -1.9151304e+87)
(-2.6526901e+88 1.7838931e+87 8.8684809e+86)
(-4.4869753e+88 4.4605172e+87 1.9758503e+86)
(-2.5307926e+88 1.1275001e+88 1.1244591e+85)
(-1.5693375e+88 -5.1020268e+87 6.9819849e+87)
(-2.3276635e+88 -1.6220415e+87 5.3124856e+87)
(-8.5572551e+87 -1.6526674e+88 1.6411461e+87)
(-3.5352141e+88 -2.0680683e+87 3.2141561e+87)
(-1.9969007e+88 1.9993081e+87 9.8271527e+86)
(-2.2054429e+88 4.9440218e+87 -2.7367572e+87)
(-1.745323e+88 2.0332827e+87 -1.0751661e+87)
(-2.8336272e+88 1.7237324e+87 2.9101975e+87)
(-2.1206102e+88 3.138235e+87 1.6265418e+87)
(-1.1982378e+88 1.1236888e+88 7.5042415e+87)
(-1.8136813e+88 7.6460764e+87 -9.0624957e+86)
(-8.0285393e+87 1.7617265e+87 4.1135411e+87)
(-1.0315193e+88 1.3554436e+87 1.4242229e+88)
(-1.8345204e+88 -1.1794034e+88 1.4448911e+87)
(-3.0221752e+88 -7.7393227e+87 7.9802614e+87)
(-2.956349e+88 1.1714602e+87 1.7265033e+87)
(-4.1425556e+87 -6.7169073e+86 -1.2127419e+88)
(-5.0150286e+87 3.9547933e+87 -7.6790716e+87)
(-2.2283194e+88 2.2062612e+87 3.095007e+86)
(-3.5149055e+88 6.6662393e+86 -3.1992484e+87)
(-3.471097e+88 -5.31827e+86 -7.1013529e+86)
(-2.2024131e+88 3.4120883e+87 -1.7962107e+87)
(-3.2315524e+88 -6.3260713e+86 -3.5150862e+87)
(-2.138952e+88 7.3011958e+87 1.9805094e+87)
(-2.5707916e+88 1.2236214e+87 -7.7375442e+87)
(-1.337258e+88 8.9748033e+87 -6.0485762e+87)
(-1.7691032e+88 1.381125e+88 -3.0193877e+87)
(-1.686529e+88 4.0302732e+87 1.9824112e+86)
(-2.0331734e+88 -8.1362922e+87 -2.6913972e+87)
(-2.0335182e+88 2.2887018e+87 -1.2811371e+88)
(-3.1872189e+88 -6.8665714e+87 -4.9443149e+87)
(-9.7376063e+87 4.7795837e+87 -1.624227e+88)
(-1.7054558e+87 -1.5495991e+88 -7.1483734e+87)
(-3.4288503e+88 1.0187591e+87 2.1710706e+87)
(-3.1773391e+88 1.3846432e+87 1.3406278e+87)
(-2.2165359e+88 3.146878e+86 7.7315253e+85)
(-2.1864221e+88 6.8501437e+86 -2.0700936e+86)
(-2.0685351e+88 6.3148833e+86 -7.89241e+86)
(-2.0954281e+88 5.0991771e+86 -9.6488144e+86)
(-2.0647287e+88 2.8071203e+86 -2.5710348e+86)
(-2.1411409e+88 6.1675922e+86 -4.0373031e+86)
(-2.1374589e+88 8.8591303e+86 -7.6204344e+86)
(-2.0524199e+88 4.0065924e+86 -7.8169108e+86)
(-3.1034186e+88 1.3867472e+87 -4.1466786e+86)
(-2.2591947e+88 3.0316172e+86 -1.5949895e+87)
(-2.3321919e+88 4.1192529e+86 -1.8625745e+87)
(-2.2970149e+88 -3.6465252e+86 -2.2067706e+87)
(-2.090406e+88 -1.276152e+86 -2.1212908e+87)
(-2.0475042e+88 3.5657146e+86 -8.8282789e+86)
(-2.177382e+88 -9.4307959e+85 -1.0817348e+87)
(-2.1643723e+88 6.4238319e+86 -7.8629307e+86)
(-2.1004586e+88 7.9239454e+86 -6.9737101e+86)
(-2.3684516e+88 9.1444124e+86 -6.2687362e+86)
(-2.3070189e+88 9.0870203e+86 -4.5325616e+86)
(-2.3600961e+88 6.6011004e+86 -6.1189429e+86)
(-2.391814e+88 1.0867161e+87 -7.3458729e+86)
(-2.4031802e+88 1.3520504e+87 -6.7284831e+86)
(-2.4323832e+88 1.1155903e+87 -6.3752233e+86)
(-2.4664228e+88 1.3750077e+87 -5.7433091e+86)
(-2.4172906e+88 1.6123827e+87 -5.8876051e+86)
(-2.3907317e+88 1.3657391e+87 1.0491975e+86)
(-4.682035e+88 1.3972547e+87 -2.9004404e+87)
(-2.4147316e+88 3.1384774e+87 -1.042558e+86)
(-2.4971445e+88 1.1956168e+87 -1.8773667e+86)
(-4.1051793e+88 4.7264099e+87 -5.8556036e+87)
(-3.1809994e+88 5.9891165e+87 -8.5733858e+87)
(-1.9151491e+88 3.5087577e+87 -5.3725884e+87)
(-2.1108778e+88 6.4211212e+87 -2.784084e+87)
(-2.4170902e+88 2.5700106e+87 -2.287793e+87)
(-8.1849858e+86 9.5596005e+86 -1.5393048e+88)
(-3.5109327e+88 -1.157081e+87 -1.1814057e+88)
(-1.6321476e+88 -3.3528589e+87 -4.4346388e+87)
(-2.2218357e+88 -1.3061074e+87 -9.6098287e+86)
(-2.1377825e+88 1.1519232e+87 -1.1392726e+87)
(-2.1731893e+88 -1.2919003e+87 -7.8338876e+87)
(1.1147065e+88 -2.789194e+87 -4.8667867e+87)
(-1.858946e+88 1.6250005e+87 -1.0005457e+88)
(-1.6665413e+88 1.8603881e+87 -2.6036048e+87)
(-1.9581707e+88 -1.3878945e+87 -1.9677335e+87)
(-3.3257743e+88 -7.7460224e+86 2.328659e+88)
(-2.1645491e+88 -3.3709656e+87 4.9736343e+87)
(-7.9289206e+87 -9.0096478e+86 -8.5964239e+87)
(-1.2995274e+88 -1.179137e+88 -6.7297681e+87)
(-2.6920139e+88 -4.3805511e+86 -1.2514508e+88)
(-1.0675146e+88 1.3780963e+88 -5.7577224e+87)
(-2.7583589e+88 7.6156618e+87 -1.2618605e+88)
(-3.1915322e+88 1.7603008e+87 -1.2788481e+88)
(-2.2237678e+88 1.9754505e+87 -8.9040781e+86)
(-2.4464629e+88 6.1812271e+86 -7.9647468e+86)
(-1.9444161e+88 1.3457579e+87 -1.4053048e+87)
(-1.8591095e+88 1.882489e+87 -2.2951793e+87)
(-3.7951522e+88 9.9802127e+87 -5.4061379e+87)