/*--------------------------------*- C++ -*----------------------------------*\
  =========                 |
  \\      /  F ield         | OpenFOAM: The Open Source CFD Toolbox
   \\    /   O peration     | Website:  https://openfoam.org
    \\  /    A nd           | Version:  7
     \\/     M anipulation  |
\*---------------------------------------------------------------------------*/
FoamFile
{
    version     2.0;
    format      ascii;
    class       volScalarField;
    location    "2000";
    object      k;
}
// * * * * * * * * * * * * * * * * * * * * * * * * * * * * * * * * * * * * * //

dimensions      [0 2 -2 0 0 0 0];

internalField   nonuniform List<scalar> 
34387
(
1.5206021
1.5206817
1.5200809
1.5200591
1.5262144
1.5217118
1.5215692
1.5210955
1.5210164
1.5202162
1.5202231
1.5199886
1.5200493
1.5198112
1.5198752
1.5200528
1.5201994
1.5201902
1.5199933
1.5198699
1.5198147
1.5201515
1.5198313
1.5197334
1.5196899
1.5197829
1.5197808
1.5196902
1.5197413
1.5198315
1.5201014
1.5193888
1.5194079
1.5193805
1.5220215
1.5217913
1.5210102
1.5208828
1.5277657
1.5282409
1.5273523
1.5277561
1.5208274
1.5206491
1.5206779
1.5208439
1.5207457
1.5208247
1.5205914
1.5206591
1.5206582
1.5205628
1.5205892
1.5211935
1.5206774
1.5210846
1.5206584
1.5205728
1.5205132
1.5205922
1.520439
1.5203935
1.5207268
1.5207503
1.5201608
1.5206623
1.520639
1.520747
1.5201666
1.5206879
1.5206583
1.5201327
1.5201294
1.5207094
1.5202132
1.5207476
1.5203321
1.5201757
1.5202927
1.5200704
1.5200434
1.5200732
1.5200436
1.5201788
1.5200837
1.5201151
1.5202168
1.5201955
1.5201652
1.5201296
1.5201659
1.5208023
1.5207033
1.5207049
1.5206242
1.5201462
1.5206237
1.5206649
1.520694
1.5201396
1.5206077
1.5205813
1.5201111
1.5201049
1.5200871
1.520112
1.5200785
1.5200477
1.5200251
1.5200256
1.5200543
1.5200519
1.5195923
1.5197202
1.5196847
1.5195761
1.5200248
1.5199805
1.5199885
1.5199391
1.519832
1.5198695
1.5199141
1.5198776
1.5198178
1.519858
1.5198598
1.5198187
1.5199198
1.5199644
1.5199658
1.5199213
1.5199369
1.5199383
1.5199804
1.5199808
1.5198345
1.5198337
1.5196872
1.5198735
1.5198744
1.5198637
1.5199216
1.5197293
1.5199704
1.5199064
1.5200189
1.5199716
1.5200472
1.5201004
1.5195798
1.5196322
1.5195541
1.5196034
1.5223551
1.5232034
1.5204393
1.5207578
1.5205716
1.5204662
1.5202908
1.5204956
1.5205107
1.5202209
1.5202562
1.5204531
1.5202982
1.5201353
1.5202877
1.521112
1.5202258
1.5200771
1.5201124
1.5202502
1.5209466
1.5198151
1.5198003
1.520652
1.5206161
1.5205719
1.5206118
1.520589
1.5205544
1.520572
1.5206062
1.5206072
1.5206059
1.5206258
1.5206267
1.5206331
1.5206317
1.5206729
1.520673
1.5206498
1.5206193
1.5206144
1.5205817
1.5206743
1.5206753
1.5206355
1.520636
1.5205867
1.5206023
1.520571
1.5205539
1.5206069
1.5206076
1.5206271
1.5206263
1.5205524
1.5205244
1.5205515
1.5205797
1.5205737
1.5204935
1.5205161
1.520517
1.5205394
1.5205322
1.5205309
1.5205543
1.5205552
1.5205855
1.5204436
1.5204555
1.5205961
1.5205663
1.5205967
1.5205675
1.5205785
1.5205178
1.5204508
1.520397
1.5205652
1.5205665
1.5205951
1.5205939
1.5205245
1.5205262
1.5205505
1.5205489
1.5205058
1.5205276
1.5204971
1.520472
1.5205136
1.5205454
1.5205714
1.5205407
1.52046
1.5204164
1.5221407
1.5221431
1.5218972
1.5219029
1.521946
1.5219556
1.5221966
1.5221971
1.5205726
1.5205983
1.5206237
1.5205961
1.5221933
1.5221396
1.5221879
1.5221884
1.5219426
1.5219457
1.5206435
1.5206177
1.5205913
1.520619
1.5222106
1.5221841
1.5206124
1.5205914
1.5205639
1.5205877
1.5205976
1.5205732
1.520545
1.5205696
1.5222873
1.5206382
1.5206607
1.5206996
1.5206751
1.5223627
1.5207481
1.5207658
1.5206039
1.5206288
1.5206667
1.5206401
1.5207063
1.5207225
1.5208918
1.5205186
1.5205454
1.5205669
1.5205408
1.5204834
1.5204992
1.5205174
1.5205024
1.5205356
1.5205612
1.5205774
1.5205546
1.5204967
1.5205091
1.5205234
1.5205123
1.5207738
1.5206289
1.5206177
1.52076
1.520583
1.5205477
1.5205308
1.5205667
1.5205712
1.5205933
1.5206331
1.5206075
1.5208378
1.5206813
1.5206635
1.5208165
1.5205063
1.520543
1.5205268
1.5205655
1.5205368
1.5205195
1.5205445
1.5205586
1.5205382
1.520531
1.5205129
1.520501
1.5205468
1.5205108
1.5204867
1.5205222
1.5218286
1.5218358
1.5216519
1.5216389
1.5220108
1.5220122
1.5217923
1.5217961
1.5218099
1.5218186
1.5220366
1.5220367
1.5220091
1.5205596
1.5205844
1.5205836
1.5205611
1.5220333
1.5220222
1.522023
1.5217893
1.5217933
1.5218196
1.5218327
1.5220538
1.5220566
1.520521
1.5205451
1.5205682
1.5205459
1.522051
1.5220193
1.5205308
1.5205552
1.5205567
1.5205327
1.5204973
1.5205232
1.5205442
1.5205195
1.5204487
1.5204666
1.5204877
1.520473
1.5205249
1.5204948
1.52047
1.5205016
1.5204859
1.520515
1.5205144
1.5204906
1.5204618
1.5204803
1.5204754
1.5204599
1.5204749
1.5204622
1.5204449
1.5204607
1.5204784
1.5204687
1.520457
1.5204659
1.5204995
1.5205173
1.5205251
1.5205039
1.5205179
1.5205004
1.5204745
1.5204942
1.5197767
1.5198259
1.5197991
1.5198162
1.519801
1.5197822
1.5197809
1.5197878
1.5197887
1.5197743
1.5204172
1.520434
1.5204427
1.5204325
1.5203775
1.5203817
1.5203794
1.520382
1.5204241
1.5204372
1.520418
1.5204266
1.5203714
1.52037
1.5203604
1.5203644
1.5201495
1.5201543
1.5202073
1.5202018
1.5201693
1.5201938
1.5202418
1.5202226
1.5203246
1.5203189
1.5203028
1.5203164
1.5202821
1.5202904
1.5203042
1.5202961
1.5201477
1.5201529
1.5201999
1.5202003
1.520289
1.5202806
1.5202858
1.5202977
1.5202831
1.5202752
1.5202993
1.5202932
1.5201922
1.520148
1.5202071
1.5201557
1.5203527
1.5203537
1.5203652
1.520365
1.5204288
1.5204171
1.5204087
1.520419
1.5204037
1.5204162
1.5204268
1.5204162
1.5203516
1.5203513
1.5203655
1.5203635
1.5204057
1.5203955
1.5203947
1.5204054
1.5204076
1.5203956
1.5203892
1.5204043
1.5204382
1.5204513
1.5204706
1.5204562
1.5204721
1.5204602
1.520448
1.520461
1.5197968
1.5201918
1.5202419
1.5202372
1.5201869
1.5197984
1.5201806
1.5202294
1.520233
1.5201841
1.519804
1.5198054
1.5203226
1.5203154
1.520326
1.5203347
1.5203279
1.5203264
1.5203316
1.5203374
1.5198245
1.5202224
1.5202695
1.5202775
1.5202275
1.519877
1.5202715
1.5203233
1.5204083
1.5203451
1.5198332
1.5198935
1.5205193
1.5204148
1.5204279
1.520535
1.5203729
1.5203565
1.5203657
1.5203857
1.5204854
1.5205002
1.5205318
1.5205181
1.5204333
1.5204348
1.520461
1.5204607
1.520623
1.5205015
1.5205043
1.5206256
1.5205651
1.5205726
1.5207079
1.5206971
1.5197898
1.5198695
1.5229938
1.5234386
1.5224109
1.5223612
1.522318
1.5225974
1.5226519
1.5226608
1.5229204
1.5210298
1.5233886
1.5229901
1.5197638
1.520539
1.5204033
1.5204733
1.5203288
1.5202967
1.5202797
1.5202182
1.5202335
1.5204536
1.5204174
1.5202882
1.5203254
1.5202042
1.5202286
1.5202153
1.5201921
1.5202262
1.5202307
1.520171
1.5201674
1.5202433
1.5202832
1.520227
1.5201822
1.5201409
1.5201446
1.5201665
1.5201628
1.5201539
1.5201785
1.5202188
1.520195
1.520386
1.5203327
1.5202175
1.5202748
1.5201408
1.5202641
1.5203011
1.5201914
1.520273
1.5201157
1.5200707
1.520065
1.5201076
1.5201362
1.5201439
1.5201343
1.5201898
1.520179
1.5200016
1.5199321
1.5200927
1.5201328
1.5200887
1.5201291
1.5200251
1.5200278
1.5200672
1.5200788
1.5200639
1.5200668
1.5200374
1.5201002
1.5200778
1.5201076
1.5201353
1.5201009
1.5201427
1.5201777
1.5198624
1.5198988
1.519897
1.5198792
1.520661
1.520656
1.5206574
1.5206629
1.5206043
1.520596
1.5206249
1.5206295
1.5205914
1.5205914
1.5206219
1.5206188
1.5206501
1.5206512
1.5206519
1.5206513
1.5206342
1.5206354
1.5206362
1.5206358
1.520612
1.5205819
1.5205815
1.5206098
1.5205874
1.5205862
1.5206172
1.5206158
1.520644
1.5206442
1.5206448
1.5206452
1.5206499
1.5206483
1.5206498
1.5206522
1.5206493
1.5206477
1.5206493
1.5206514
1.5206592
1.5206574
1.5206599
1.5206616
1.5206593
1.5206576
1.5206607
1.5206625
1.520669
1.5206652
1.5206649
1.520669
1.5206679
1.5206655
1.5206654
1.5206676
1.5206775
1.5206712
1.5206732
1.5206793
1.5206746
1.5206702
1.5206765
1.5206809
1.5206874
1.5206921
1.5206851
1.5206896
1.5206944
1.5206863
1.5206917
1.5206856
1.520676
1.5206777
1.5206801
1.5206814
1.5206782
1.5206735
1.5206771
1.5206798
1.5206945
1.5206904
1.5206897
1.5206859
1.5206868
1.5206833
1.5206883
1.5206914
1.5206823
1.5206798
1.520679
1.5206823
1.5206806
1.5206768
1.5206765
1.52068
1.5206558
1.5206537
1.520655
1.5206575
1.5206673
1.5206669
1.52067
1.5206705
1.5206652
1.5206677
1.5206647
1.5206648
1.5206524
1.5206529
1.5206472
1.5206482
1.5206589
1.5206587
1.5206606
1.5206615
1.5206588
1.5206553
1.5206575
1.5206611
1.5206711
1.5206671
1.5206689
1.5206726
1.5206719
1.5206704
1.5206718
1.5206738
1.520605
1.5206064
1.5206107
1.5206093
1.5205923
1.5205692
1.5205692
1.5205928
1.5205769
1.5205755
1.5206033
1.5206038
1.5206258
1.5206219
1.5206204
1.5206246
1.5204825
1.5204613
1.520473
1.5205007
1.5205477
1.5205316
1.5205443
1.5205604
1.5205574
1.5205609
1.5205802
1.520576
1.5205701
1.5205561
1.5205569
1.5205703
1.5205853
1.5205859
1.5205932
1.5205923
1.520518
1.5205695
1.5205688
1.5205811
1.5205831
1.5205178
1.5205678
1.520568
1.5205812
1.520581
1.5206041
1.5205964
1.5205965
1.5206042
1.5205984
1.520596
1.5206035
1.5206057
1.5204909
1.5204914
1.5204746
1.5204878
1.520638
1.5206333
1.5206341
1.5206391
1.5206214
1.5206166
1.5206169
1.5206218
1.5206385
1.5206336
1.5206349
1.5206398
1.5206215
1.5206161
1.5206183
1.5206229
1.5205128
1.5205107
1.5204912
1.5204899
1.5204923
1.5204737
1.5204357
1.520456
1.5204818
1.520436
1.5206242
1.5206237
1.5206292
1.5206287
1.5206253
1.5206231
1.5206274
1.5206298
1.5206427
1.5206398
1.5206442
1.5206472
1.520647
1.5206419
1.5206421
1.5206471
1.5205686
1.5205692
1.5205835
1.5205837
1.5205701
1.5205714
1.5205854
1.5205853
1.5206094
1.5206021
1.520603
1.5206107
1.5206091
1.5206008
1.5206014
1.5206094
1.5205592
1.5205601
1.5205759
1.5205755
1.520596
1.520596
1.5206031
1.5206038
1.5206001
1.5205937
1.5205853
1.5205928
1.5205697
1.5205542
1.5205424
1.5205609
1.5206105
1.5206181
1.5206202
1.5206133
1.5206199
1.5206185
1.5206223
1.5206241
1.5206403
1.5206364
1.5206387
1.5206422
1.5206293
1.5206365
1.5206376
1.5206316
1.5209869
1.5211148
1.5222039
1.5222138
1.5221993
1.5222097
1.5222627
1.5222657
1.5222675
1.5222705
1.5221326
1.5221277
1.5221757
1.5221836
1.5222912
1.5222851
1.5223493
1.5223571
1.5222276
1.522204
1.5222672
1.5222938
1.5222575
1.5222606
1.522254
1.5222568
1.5221875
1.5221664
1.5221741
1.5221979
1.5223161
1.5223032
1.5223709
1.5223876
1.5222742
1.5222671
1.5223331
1.522342
1.5221569
1.5221408
1.5221555
1.5221741
1.5221492
1.522108
1.5221197
1.5221646
1.5222763
1.5223883
1.5223637
1.5224325
1.5224608
1.5222673
1.5223326
1.5223464
1.5224816
1.5224633
1.5225351
1.5225582
1.5224585
1.5224393
1.5222545
1.522237
1.5222936
1.5223151
1.5224168
1.5223898
1.5227583
1.5220911
1.5220676
1.5221017
1.5221283
1.5220364
1.5219954
1.5220231
1.5220663
1.5221206
1.5220934
1.5221062
1.5221343
1.5220581
1.5220132
1.5220251
1.5220695
1.5225263
1.5222282
1.5222785
1.5225914
1.5221447
1.5221049
1.5221488
1.5221932
1.5222139
1.5221843
1.5222331
1.522266
1.5226505
1.5223213
1.5223578
1.5227061
1.521727
1.5219341
1.5217265
1.5219301
1.5219695
1.5219605
1.5219571
1.5219645
1.521946
1.5219424
1.5219568
1.5219513
1.5219127
1.5217182
1.521724
1.5219232
1.5221201
1.5221283
1.5221298
1.522121
1.5220737
1.5220805
1.5220694
1.5220763
1.5221012
1.5221017
1.5221055
1.5221064
1.5220019
1.5221009
1.5220832
1.5221427
1.5221623
1.5220172
1.5219969
1.5220241
1.5221268
1.5221265
1.5221873
1.522189
1.5220896
1.5220919
1.5220861
1.5220882
1.5221196
1.5221273
1.522123
1.5221303
1.5220105
1.5220045
1.5220323
1.5220403
1.5221463
1.5221366
1.5222001
1.5222138
1.5221071
1.5221023
1.5221647
1.5221707
1.5219893
1.5219781
1.5219952
1.5220079
1.5219962
1.5219847
1.5220095
1.5220225
1.5216765
1.5216502
1.521813
1.5218494
1.5218768
1.5216951
1.5217087
1.5218975
1.5219291
1.5219098
1.5219104
1.5219308
1.5218828
1.5218461
1.5218449
1.5218817
1.5219042
1.521886
1.5219215
1.5219415
1.5218856
1.521875
1.521912
1.5219247
1.5219622
1.5219402
1.5219547
1.5219776
1.5219702
1.5219486
1.521969
1.5219924
1.5228618
1.5200662
1.5200622
1.5201076
1.5201004
1.5200903
1.520091
1.5200719
1.5200755
1.5200748
1.5200722
1.5200677
1.5200764
1.5200785
1.5200741
1.520071
1.5200768
1.5200757
1.5200703
1.520058
1.5200663
1.5229316
1.5216148
1.5215685
1.5217032
1.5217636
1.5215104
1.5214401
1.5215398
1.5216272
1.5217973
1.5217341
1.5217945
1.5217299
1.5216562
1.5215639
1.5215598
1.5216509
1.5209031
1.5209149
1.5211824
1.5211752
1.5209177
1.5209093
1.5211395
1.5211764
1.5213572
1.5212599
1.5213194
1.5214374
1.5213278
1.5213332
1.5214571
1.5214523
1.5209214
1.5209311
1.5212062
1.521201
1.5214887
1.5213612
1.5213605
1.5214899
1.521488
1.5213561
1.5215074
1.5213755
1.5211977
1.5209207
1.5212149
1.5209323
1.5216881
1.5215955
1.521599
1.5216916
1.5217694
1.5217637
1.5218251
1.5218332
1.5218374
1.5217739
1.5217915
1.5218538
1.5216946
1.5215988
1.5216181
1.5217116
1.5217217
1.5217131
1.5218091
1.5218188
1.5217214
1.5217082
1.5218003
1.5218182
1.5219431
1.5218775
1.5218994
1.5219667
1.5219002
1.5218898
1.5219568
1.5219679
1.5201066
1.520117
1.5201162
1.520107
1.5210177
1.5213077
1.5213044
1.5210111
1.5201005
1.5201137
1.5201152
1.5201054
1.5210015
1.5212952
1.5212988
1.521006
1.5200938
1.5200985
1.5214679
1.5214627
1.5215982
1.5216052
1.5214713
1.5214689
1.5215984
1.5216064
1.5201395
1.520153
1.5201548
1.5201454
1.5210759
1.5213748
1.5213881
1.5210836
1.520182
1.5201933
1.5202541
1.5202463
1.5211488
1.5214624
1.521626
1.5212851
1.5201352
1.5202314
1.5218286
1.5216421
1.5217875
1.5219988
1.5215647
1.5215468
1.5216852
1.5217079
1.5220484
1.5219795
1.5220132
1.5220838
1.5218969
1.5217991
1.5218266
1.5219265
1.522142
1.5219076
1.5220078
1.5222622
1.522166
1.5220922
1.5223628
1.5224494
1.5231796
1.5235907
1.5228659
1.5229316
1.5231778
1.5235688
1.5226172
1.522578
1.5228299
1.5228674
1.522912
1.523002
1.5174864
1.5179871
1.5224797
1.5226949
1.522455
1.5224005
1.5226479
1.5226484
1.5228821
1.5223481
1.5229421
1.5226859
1.5229174
1.5230505
1.523045
1.5230758
1.5230814
1.5212833
1.5208967
1.5210178
1.5231566
1.5231589
1.5235349
1.5234877
1.5228747
1.5229342
1.5229328
1.5228804
1.5204834
1.5205463
1.5205498
1.5204983
1.5203864
1.5203982
1.5203939
1.5203814
1.520541
1.5205473
1.5204748
1.5204794
1.5203748
1.5203817
1.5203741
1.5203792
1.5203389
1.5203333
1.5203327
1.5203265
1.5203067
1.5203066
1.5203129
1.5203136
1.5203043
1.5203048
1.5202974
1.5202979
1.5203221
1.5203276
1.5203219
1.5203166
1.5205379
1.5205414
1.5204627
1.5204691
1.5205252
1.5205244
1.5204453
1.5204528
1.520359
1.5203689
1.520366
1.5203577
1.520375
1.5203757
1.5203667
1.5203682
1.5203131
1.5203161
1.5203102
1.5203073
1.5203182
1.5203222
1.5203177
1.5203136
1.5202971
1.5203043
1.5203025
1.5202968
1.5202942
1.5203018
1.5203004
1.5202935
1.5202857
1.5202811
1.5202857
1.5202915
1.5202869
1.5202826
1.5202827
1.5202879
1.5202695
1.5202773
1.5202772
1.5202701
1.5202677
1.520275
1.5202779
1.5202722
1.5202924
1.5202858
1.5202924
1.5202987
1.5203332
1.5203049
1.5203125
1.5203384
1.5203289
1.5202997
1.520295
1.5203225
1.5202854
1.5202779
1.5202725
1.5202796
1.5202679
1.5202669
1.5202583
1.5202602
1.5202707
1.5202671
1.5202592
1.5202618
1.5202655
1.5202722
1.5202739
1.5202668
1.5202726
1.5202706
1.5202639
1.5202667
1.5202765
1.5202676
1.5202603
1.5202685
1.520267
1.5202723
1.5202803
1.5202749
1.5202916
1.5202972
1.5203255
1.5203193
1.5202872
1.5202934
1.5203206
1.520314
1.5205019
1.5204951
1.5204214
1.5204318
1.520466
1.5204553
1.5203908
1.5204029
1.5203302
1.5203362
1.5203389
1.5203324
1.5203575
1.5203561
1.5203472
1.520349
1.5201304
1.5202255
1.5202316
1.5202616
1.5202564
1.5202356
1.5202789
1.5203544
1.5203767
1.5203119
1.5203449
1.5204092
1.5204242
1.5203663
1.5203122
1.5202977
1.5202924
1.5203068
1.5201662
1.5201047
1.5202668
1.520258
1.5202542
1.5202641
1.5200472
1.5202185
1.5201869
1.5201819
1.5202145
1.5200413
1.5201791
1.5201803
1.5202104
1.520211
1.5202572
1.5202477
1.5202484
1.5202575
1.5200196
1.5200149
1.5202896
1.5202913
1.520288
1.5202871
1.5202802
1.5202803
1.5202783
1.5202781
1.5203043
1.5203069
1.5203038
1.5203016
1.5202944
1.5202908
1.52029
1.5202939
1.5200687
1.520009
1.5202538
1.5202503
1.5202457
1.5202497
1.520262
1.5202554
1.520259
1.5202665
1.5202424
1.5202461
1.5202486
1.5202455
1.5202626
1.5202607
1.5202551
1.5202566
1.5199986
1.5201517
1.5201513
1.5201813
1.5201786
1.5200008
1.5201547
1.5201589
1.5201869
1.5201853
1.5202231
1.5202225
1.5202279
1.5202302
1.5199632
1.5199626
1.5202147
1.5202222
1.5202256
1.5202182
1.5200377
1.5201939
1.5201731
1.5202252
1.5202011
1.5200107
1.520161
1.5201596
1.5201899
1.5201848
1.5199714
1.5200015
1.5202187
1.520225
1.5202344
1.5202266
1.5202358
1.5202447
1.5202704
1.5202623
1.5202954
1.5202682
1.5202684
1.5202936
1.5202579
1.5202474
1.5202446
1.5202544
1.520256
1.5202609
1.5202711
1.5202655
1.5203119
1.5202854
1.5202828
1.520308
1.5199517
1.5199872
1.5212089
1.5212464
1.5208639
1.5208632
1.5208604
1.5208613
1.5208571
1.5208563
1.5208626
1.5208636
1.5208553
1.5208538
1.5208589
1.5208611
1.5208619
1.5208598
1.5208566
1.5208589
1.520836
1.5208398
1.5208471
1.5208435
1.5208396
1.5208401
1.5208455
1.5208466
1.5208519
1.5208492
1.5208519
1.5208559
1.5208491
1.5208526
1.5208567
1.5208533
1.520842
1.5208389
1.5208463
1.5208501
1.5208392
1.5208395
1.5208468
1.5208473
1.5208565
1.5208524
1.5208534
1.5208579
1.5208564
1.5208521
1.5208564
1.5208612
1.5208646
1.5208594
1.5208615
1.5208673
1.5208612
1.5208594
1.5208613
1.5208636
1.5208633
1.5208626
1.5208652
1.520866
1.5208691
1.520863
1.5208639
1.5208703
1.5209359
1.520954
1.5209339
1.5209507
1.5211453
1.5210028
1.521132
1.5209974
1.5209308
1.5209262
1.5209461
1.52094
1.5209832
1.5209908
1.521118
1.5211031
1.5209097
1.5209034
1.5209077
1.5209021
1.5209023
1.5208916
1.5208926
1.5209036
1.5209006
1.5208967
1.5208999
1.5209047
1.5208968
1.520887
1.5208898
1.5209002
1.5208988
1.5208903
1.5209021
1.520912
1.5209201
1.5209119
1.520923
1.5209323
1.520974
1.5209627
1.5210871
1.5210697
1.5209492
1.5209333
1.5210284
1.52105
1.5208686
1.5208675
1.5208776
1.5208794
1.5208672
1.5208605
1.5208699
1.5208776
1.5208857
1.5208772
1.5208827
1.520892
1.5208921
1.5208857
1.5208881
1.5208951
1.5207798
1.5207832
1.5208012
1.5207977
1.5207844
1.5207875
1.5208059
1.5208025
1.520832
1.5208206
1.5208176
1.5208298
1.5208298
1.5208167
1.5208131
1.5208257
1.5205139
1.5205055
1.5205121
1.5205259
1.5205082
1.5205174
1.5205246
1.5205362
1.5205375
1.5205256
1.5206657
1.5206621
1.5207122
1.5207128
1.5207408
1.5207654
1.5207633
1.5207399
1.5207129
1.5206675
1.5206663
1.5207109
1.5207369
1.5207393
1.5207622
1.5207592
1.520551
1.5205412
1.5205413
1.5205511
1.5206737
1.5206721
1.5207134
1.5207167
1.5205406
1.5205404
1.52055
1.5205501
1.5206721
1.5206732
1.5207151
1.5207145
1.520762
1.52074
1.5207397
1.5207614
1.520742
1.5207384
1.5207602
1.5207637
1.5205322
1.5205339
1.5209841
1.5209784
1.5208293
1.5208161
1.5208151
1.5208283
1.5208001
1.5207817
1.520781
1.5207988
1.5208285
1.520815
1.5208178
1.520831
1.5207987
1.5207801
1.5207834
1.5208013
1.5205512
1.5205431
1.5205427
1.5205504
1.5205494
1.5205418
1.5205414
1.520549
1.5205364
1.5205366
1.5205326
1.5205332
1.5205389
1.5205383
1.5205229
1.5205002
1.5205066
1.5205252
1.5205311
1.5205154
1.5210296
1.5211638
1.5208015
1.5208007
1.5208211
1.5208201
1.5208008
1.5207981
1.5208168
1.5208203
1.520838
1.5208336
1.520848
1.5208536
1.5208542
1.5208379
1.5208389
1.5208547
1.5206833
1.5206832
1.5207286
1.5207293
1.5206845
1.5206851
1.5207292
1.5207299
1.5207774
1.5207549
1.5207566
1.5207794
1.5207791
1.5207556
1.5207566
1.5207799
1.5206925
1.5206911
1.5207418
1.520744
1.520775
1.520772
1.5207971
1.520801
1.5208262
1.5207966
1.5208403
1.5208792
1.5207623
1.5207059
1.5207266
1.5207965
1.5209143
1.5208516
1.5208745
1.5209466
1.5208242
1.5208192
1.5208393
1.5208454
1.5208753
1.5208579
1.5208649
1.5208826
1.520976
1.5208957
1.5209151
1.5210032
1.5209809
1.520976
1.521027
1.5211557
1.5223455
1.5223726
1.5225448
1.5225735
1.5226222
1.5226297
1.5224269
1.5224342
1.5221757
1.5221771
1.5222007
1.5221979
1.522173
1.522182
1.5222049
1.5221942
1.5222646
1.5222613
1.5222502
1.5222543
1.5222548
1.5222582
1.5222629
1.5222603
1.5233304
1.5233217
1.5233224
1.5233313
1.523303
1.5232531
1.5232558
1.5233036
1.5224135
1.5224217
1.5226166
1.5226246
1.5222818
1.5222719
1.5222625
1.5222727
1.5222305
1.5222407
1.5222463
1.5222368
1.522236
1.5222376
1.5222446
1.5222432
1.5222705
1.522272
1.5222834
1.5222822
1.5234053
1.5233639
1.5233663
1.5234091
1.5233475
1.5233358
1.5233373
1.5233483
1.5222816
1.5222757
1.5222622
1.5222693
1.5222551
1.5222508
1.5222363
1.5222413
1.5222331
1.5222452
1.5222504
1.5222385
1.5222619
1.5222734
1.5222818
1.5222707
1.5222699
1.5222712
1.5222562
1.5222568
1.5221838
1.5221974
1.5222188
1.5222036
1.5221778
1.5221892
1.5222115
1.5221983
1.5222529
1.5222662
1.5222675
1.5222554
1.5223319
1.522333
1.5223567
1.5223546
1.5235438
1.5234901
1.5234919
1.5235448
1.522326
1.5223351
1.5223584
1.5223477
1.5224411
1.5224267
1.5224174
1.5224318
1.5224279
1.5224289
1.5224451
1.5224442
1.5236279
1.5235794
1.5235814
1.5236328
1.5225283
1.5225259
1.5225682
1.52257
1.5225134
1.5225199
1.5225592
1.5225512
1.5223278
1.5223392
1.5223618
1.5223487
1.5223296
1.5223425
1.5223637
1.5223496
1.5224362
1.5224267
1.5224128
1.5224231
1.5224145
1.5224261
1.5224385
1.5224271
1.5225065
1.5225154
1.5225517
1.5225414
1.5225426
1.5225109
1.5224998
1.5225314
1.5229913
1.5228183
1.5228257
1.5229866
1.5221902
1.5222077
1.522228
1.5222088
1.5221982
1.5222199
1.522239
1.5222159
1.5222786
1.5222862
1.5222635
1.5222589
1.522259
1.5222772
1.5222733
1.5222569
1.522208
1.5222369
1.5222551
1.5222246
1.522222
1.5222604
1.5222774
1.522238
1.5223057
1.5223216
1.5222813
1.52227
1.5222695
1.5222988
1.5222881
1.5222614
1.5222404
1.5222588
1.5222615
1.5222439
1.5222461
1.522268
1.5222687
1.5222479
1.5222874
1.5222867
1.5222653
1.522268
1.5222627
1.5222795
1.5222834
1.5222673
1.5222521
1.5222815
1.5222798
1.5222521
1.5222957
1.5223028
1.522263
1.5222603
1.522311
1.5223176
1.522279
1.5222759
1.5222695
1.5222971
1.5222953
1.522269
1.5229266
1.5227522
1.5227299
1.5228866
1.5225457
1.5225296
1.5224921
1.5225094
1.5224889
1.522515
1.5225363
1.5225093
1.5227438
1.5227535
1.5229252
1.5228978
1.5224545
1.5224575
1.5224185
1.5224185
1.5224052
1.5223914
1.5223511
1.5223651
1.5223389
1.5223678
1.5223845
1.5223545
1.5224122
1.5224404
1.5224423
1.522415
1.522331
1.5223473
1.5223666
1.5223491
1.5223335
1.5223535
1.5223717
1.5223502
1.5224363
1.5224314
1.5224098
1.5224163
1.5224104
1.5224271
1.5224353
1.5224186
1.5229377
1.522767
1.5227645
1.5229206
1.5224901
1.5225086
1.5225335
1.5225142
1.5224938
1.5225079
1.5225365
1.5225212
1.5227927
1.5227881
1.5229605
1.5229491
1.5217195
1.5217179
1.5218005
1.5217959
1.5219842
1.521988
1.5219993
1.5219964
1.5217203
1.5217232
1.5218072
1.5217949
1.5220023
1.5219933
1.5219834
1.5219928
1.5220241
1.5220269
1.5220276
1.5220261
1.5220024
1.5220044
1.5220125
1.5220105
1.5220007
1.5220097
1.5220169
1.5220079
1.5220295
1.5220301
1.5220209
1.5220213
1.5220372
1.5220416
1.5220282
1.5220255
1.5220319
1.5220259
1.5220125
1.5220186
1.5220239
1.5220354
1.522033
1.5220229
1.522006
1.5220171
1.522024
1.5220125
1.5220119
1.5220079
1.5219943
1.5219993
1.5217311
1.521737
1.5218273
1.5218105
1.5217255
1.5217298
1.5218165
1.521802
1.5219884
1.5220005
1.522007
1.5219956
1.5224694
1.5224932
1.5224973
1.5224728
1.5222152
1.522234
1.5223997
1.5224172
1.5224418
1.5224446
1.5222598
1.5222613
1.5220563
1.5220589
1.5220763
1.5220732
1.5230764
1.5230585
1.5230592
1.523077
1.5221002
1.5221026
1.5220921
1.5220909
1.5220532
1.522063
1.5220795
1.5220692
1.5220974
1.5221007
1.5220996
1.5220976
1.5230929
1.523086
1.523087
1.523094
1.52224
1.5222453
1.5224286
1.5224346
1.5224668
1.5224904
1.5222761
1.5222922
1.5220731
1.5220754
1.5220799
1.5220783
1.5220683
1.5220782
1.522082
1.5220729
1.5221148
1.5221068
1.5220984
1.5221063
1.522106
1.5221071
1.5221155
1.5221146
1.5231664
1.5231198
1.5231232
1.5231708
1.5231028
1.523095
1.5230975
1.523105
1.5220572
1.5220691
1.5220846
1.5220721
1.5220618
1.522075
1.5220891
1.5220757
1.5221055
1.5221115
1.5220971
1.5220928
1.5220939
1.5221066
1.5221026
1.5220914
1.5220708
1.5220827
1.5220857
1.5220746
1.5220886
1.5220867
1.5220739
1.5220767
1.5221184
1.5221122
1.5220998
1.5221066
1.5220983
1.522109
1.5221166
1.5221059
1.5217551
1.5217721
1.5218853
1.5218515
1.5217681
1.521792
1.5219177
1.5218748
1.5220633
1.5220708
1.5220332
1.522029
1.5220179
1.5220458
1.5220422
1.5220157
1.5220272
1.5220284
1.5220072
1.522008
1.5217454
1.5217572
1.5218595
1.5218337
1.5217377
1.5217459
1.521841
1.5218207
1.5219999
1.5220165
1.5220182
1.5220026
1.5220201
1.5220372
1.5220421
1.5220251
1.5220297
1.5220508
1.5220546
1.5220337
1.5220538
1.5220624
1.5220407
1.5220343
1.5220331
1.52205
1.5220435
1.5220283
1.5220412
1.5220697
1.5220729
1.5220445
1.5220982
1.522097
1.5220583
1.5220609
1.5220935
1.5221062
1.5220675
1.5220575
1.5220512
1.5220802
1.5220698
1.5220427
1.5221631
1.5221635
1.5221262
1.5221277
1.5221417
1.5221449
1.5221062
1.522105
1.5220908
1.5221187
1.5221176
1.5220907
1.5221127
1.5221397
1.5221419
1.5221157
1.5221532
1.5221631
1.5221252
1.5221176
1.5221379
1.5221285
1.5220911
1.5221015
1.5220782
1.5221043
1.5221156
1.5220884
1.5221124
1.5221406
1.5221323
1.5221051
1.5220661
1.5220821
1.5220943
1.5220781
1.5220711
1.5220899
1.5221015
1.5220819
1.5221183
1.522126
1.5221046
1.5220985
1.5221
1.5221172
1.5221105
1.5220945
1.5221288
1.5221248
1.5221051
1.5221102
1.5220822
1.5221021
1.5221023
1.5220832
1.5220768
1.5220928
1.5220941
1.5220788
1.5221014
1.5221166
1.5221223
1.5221072
1.5227464
1.5228027
1.5227451
1.5228021
1.520331
1.5203356
1.5203228
1.5203216
1.520606
1.5206117
1.5206055
1.5205989
1.5206181
1.5203333
1.5203371
1.5206184
1.5206223
1.5203333
1.5203333
1.5206172
1.5228863
1.5229011
1.5228867
1.5229016
1.5217848
1.5218165
1.521957
1.5219033
1.5218044
1.5218458
1.5220002
1.5219361
1.5221172
1.5221311
1.5220752
1.5220648
1.5220529
1.522098
1.5220879
1.5220447
1.5218284
1.5218845
1.5220503
1.5219721
1.5218654
1.5219432
1.5221154
1.5220181
1.5222003
1.5222132
1.5221289
1.5221164
1.5220984
1.5221636
1.5221508
1.5220848
1.5220816
1.5221299
1.5221298
1.5220822
1.5221064
1.5221626
1.5221621
1.5221061
1.5220881
1.5221354
1.5221223
1.5220763
1.5221531
1.5221667
1.5221098
1.5220982
1.5221297
1.522199
1.5222007
1.5221298
1.5222501
1.5222481
1.5221602
1.5221625
1.5222424
1.5222467
1.5221605
1.5221547
1.5221322
1.522198
1.5221899
1.5221209
1.5225762
1.5225601
1.5225024
1.5225154
1.522569
1.5225148
1.5225758
1.5225197
1.5223986
1.5225734
1.5225779
1.5224107
1.5225774
1.5224065
1.5225742
1.522405
1.5225306
1.5224775
1.522518
1.5224649
1.5224182
1.5223374
1.5224251
1.5224814
1.5224695
1.5223493
1.5221701
1.5222975
1.5225218
1.5223691
1.522528
1.5223566
1.5221998
1.5220358
1.5219266
1.5220818
1.5220225
1.5221644
1.5223143
1.5221678
1.5223778
1.5223866
1.5222484
1.5222355
1.5222701
1.5222816
1.5221745
1.522161
1.5224298
1.522428
1.5222798
1.5222795
1.5222816
1.5224233
1.5224341
1.5222872
1.5223232
1.522319
1.5222065
1.5222097
1.5223163
1.5223165
1.5222042
1.5222016
1.5225532
1.5226372
1.5225741
1.522617
1.5225651
1.5226376
1.522574
1.5226283
1.5226393
1.5226388
1.522464
1.5224661
1.522471
1.522642
1.5226327
1.5224662
1.5223801
1.522374
1.522253
1.5222608
1.5223334
1.5224862
1.5224936
1.5223391
1.5224963
1.5224972
1.5223443
1.5223442
1.5223827
1.5223826
1.5222671
1.522266
1.5223763
1.5223868
1.5222645
1.5222553
1.5223449
1.5225009
1.5224901
1.522333
1.5224061
1.5224043
1.5222837
1.522284
1.5225169
1.5225189
1.5223638
1.5223625
1.5226354
1.5224713
1.5226476
1.5224586
1.5226373
1.5225745
1.5226261
1.5225562
1.5224886
1.5226563
1.5226566
1.5224843
1.5225745
1.5226479
1.5225842
1.5226372
1.5221649
1.522238
1.5222455
1.522172
1.5222001
1.5222909
1.5222994
1.5222072
1.5223054
1.5223077
1.5222191
1.522216
1.5221889
1.522257
1.5222524
1.5221815
1.5222119
1.5222208
1.5221636
1.5221559
1.5221366
1.5221939
1.5222014
1.5221437
1.5221116
1.5221578
1.5221662
1.5221197
1.5221427
1.5221884
1.5221795
1.522134
1.522129
1.5221782
1.5221727
1.5221251
1.5221551
1.5222138
1.5222065
1.5221492
1.5222265
1.5222305
1.5221715
1.522169
1.5221461
1.5221929
1.522191
1.5221448
1.5221818
1.5222525
1.5222458
1.5221744
1.5222959
1.5223045
1.5222129
1.5222059
1.5223245
1.522323
1.5222316
1.5222312
1.5221982
1.5222678
1.5222676
1.5221946
1.5224658
1.5224753
1.522377
1.5223672
1.5224509
1.5224673
1.5223675
1.5223528
1.5223294
1.5224051
1.5223905
1.5223152
1.5223408
1.5224151
1.5224057
1.5223295
1.5224605
1.5224818
1.5223839
1.5223636
1.5223438
1.5224411
1.5224476
1.5223473
1.5223003
1.5223778
1.5223835
1.5223055
1.5223476
1.5224223
1.5224016
1.5223264
1.5222421
1.5222928
1.5223048
1.5222558
1.5222684
1.5223289
1.5223373
1.522277
1.5223596
1.5223811
1.5223196
1.5223019
1.5222983
1.5223467
1.5223289
1.5222827
1.522363
1.5223741
1.5223137
1.522305
1.5223028
1.5223622
1.5223484
1.5222909
1.5222806
1.5223292
1.5223182
1.5222724
1.5222941
1.5223409
1.5223328
1.5222869
1.5206883
1.520387
1.5203891
1.520688
1.5228149
1.5227514
1.5227538
1.5228167
1.5226413
1.5228199
1.5228302
1.522647
1.5226681
1.5228435
1.5228233
1.5226411
1.5228323
1.5227705
1.5227367
1.5228053
1.5206833
1.5203848
1.5203886
1.5206826
1.5228158
1.522828
1.522761
1.5227466
1.5228306
1.5226571
1.5228397
1.5226417
1.5226609
1.5228447
1.5228322
1.5226445
1.5227384
1.5228363
1.5227669
1.5228156
1.5231017
1.5231177
1.5226782
1.5226913
1.5225251
1.5225115
1.5225187
1.5226833
1.5226713
1.522502
1.5225394
1.5225555
1.5224255
1.5224091
1.5225516
1.5225621
1.5224331
1.5224222
1.5226706
1.5226947
1.5225314
1.5225066
1.5225007
1.5226635
1.5226719
1.5225037
1.5225391
1.5225333
1.5224035
1.5224078
1.5225449
1.5225672
1.5224399
1.5224178
1.520741
1.5204342
1.5204398
1.5207472
1.5229666
1.5228919
1.5228831
1.5229602
1.5227716
1.5229677
1.5229732
1.5227774
1.5228112
1.5229983
1.5229853
1.5227939
1.52289
1.5229891
1.5229186
1.5229668
1.5208034
1.5204889
1.5205683
1.5209009
1.5231042
1.5230967
1.5230191
1.5230195
1.5231097
1.5229116
1.5231058
1.5229068
1.5230601
1.5232445
1.5234561
1.5232582
1.5233368
1.5232331
1.5231594
1.5233884
1.5232983
1.5236438
1.5233187
1.5230964
1.5229298
1.5231384
1.5227667
1.5229433
1.5229415
1.5227608