/*--------------------------------*- C++ -*----------------------------------*\
  =========                 |
  \\      /  F ield         | OpenFOAM: The Open Source CFD Toolbox
   \\    /   O peration     | Website:  https://openfoam.org
    \\  /    A nd           | Version:  7
     \\/     M anipulation  |
\*---------------------------------------------------------------------------*/
FoamFile
{
    version     2.0;
    format      ascii;
    class       volScalarField;
    location    "2000";
    object      nut;
}
// * * * * * * * * * * * * * * * * * * * * * * * * * * * * * * * * * * * * * //

dimensions      [0 2 -1 0 0 0 0];

internalField   nonuniform List<scalar> 
34387
(
6.5713473e-92
7.0926328e-92
7.8772615e-92
8.0093634e-92
5.1707061e-91
7.5080068e-92
6.9082324e-92
8.4283611e-92
8.4303204e-92
8.1978402e-92
8.0935585e-92
6.7105346e-92
6.4737233e-92
7.1115499e-92
7.8022963e-92
6.9525254e-92
8.8552825e-92
8.5094222e-92
6.8503725e-92
7.8363877e-92
8.3329315e-92
5.3643493e-92
3.5595988e-92
5.9780046e-92
5.9990966e-92
3.4901765e-92
3.6131654e-92
5.9806081e-92
5.1183391e-92
3.387144e-92
5.1760297e-92
2.2270412e-91
1.7944184e-91
1.9923143e-91
7.9811295e-92
7.3117272e-92
8.7048033e-92
8.6903767e-92
3.625869e-91
3.8813717e-91
3.870429e-91
4.7187463e-91
6.939001e-92
7.5142788e-92
9.029587e-92
6.941348e-92
7.2088986e-92
6.7947859e-92
8.3321789e-92
7.4718331e-92
3.6880042e-92
5.5386978e-92
6.112826e-92
5.4781081e-92
3.6269911e-92
5.2351016e-92
3.7918078e-92
6.252172e-92
5.3311881e-92
3.5667655e-92
2.450056e-91
2.0139303e-91
4.7200288e-92
5.0096746e-92
6.3109134e-92
5.8277766e-92
5.5488815e-92
4.782757e-92
6.1853458e-92
5.9169459e-92
5.5347094e-92
7.7775069e-92
7.4934098e-92
5.5476436e-92
7.0976715e-92
5.8691009e-92
7.1177904e-92
7.6023388e-92
8.2372162e-92
8.8630349e-92
6.6662743e-92
7.9282029e-92
6.5648941e-92
5.9898878e-92
6.8294041e-92
8.8046476e-92
7.6768895e-92
7.0436022e-92
6.3732439e-92
7.4249269e-92
7.0848786e-92
7.473963e-92
5.2773579e-92
5.3568026e-92
6.1907745e-92
7.1043866e-92
6.1365769e-92
4.7257666e-92
4.9857995e-92
6.4483208e-92
5.6715541e-92
5.4330247e-92
8.132502e-92
6.8668769e-92
7.0868447e-92
6.6880811e-92
7.3481403e-92
7.1392433e-92
5.998036e-92
6.7319064e-92
8.2824662e-92
6.7624257e-92
2.9657368e-92
1.824574e-92
1.7299242e-92
2.7758365e-92
3.1202624e-92
3.7177057e-92
3.2129555e-92
3.9425358e-92
2.4505393e-92
2.2169414e-92
1.6375631e-92
1.6113803e-92
2.3109089e-92
1.6210899e-92
1.6379518e-92
2.3640835e-92
2.9192646e-92
2.77878e-92
2.8503613e-92
3.304216e-92
3.604009e-92
3.3469004e-92
2.8011954e-92
2.8144058e-92
2.3817221e-92
2.5306619e-92
1.6881692e-92
1.6067945e-92
1.6422473e-92
2.330689e-92
2.1411429e-92
1.6758685e-92
1.5993412e-92
1.6535733e-92
3.0671063e-92
3.2731481e-92
3.4565822e-92
2.8567296e-92
3.4405312e-92
3.1698151e-92
3.9730624e-92
3.4771508e-92
2.4665874e-91
2.0231313e-91
1.9955099e-91
7.2493636e-92
7.6808003e-92
7.6932734e-92
8.785469e-92
7.0284008e-92
7.4303684e-92
7.7561214e-92
8.3887717e-92
3.8772082e-92
5.7488958e-92
6.0929949e-92
3.8078037e-92
5.5701167e-92
3.9164279e-92
6.1712844e-92
5.6314907e-92
3.7012533e-92
5.3363926e-92
2.5340438e-91
2.0234589e-91
6.7100915e-92
6.6737525e-92
7.1432251e-92
7.3648452e-92
6.4279939e-92
6.1193956e-92
6.2718798e-92
6.3376044e-92
6.1164387e-92
6.5114759e-92
7.3947624e-92
6.9244877e-92
6.4520276e-92
6.4822999e-92
6.3117109e-92
5.966864e-92
7.2506063e-92
6.6380663e-92
7.9874519e-92
9.0565696e-92
6.5876203e-92
6.640974e-92
7.3898116e-92
7.3307421e-92
6.6562402e-92
8.4818926e-92
8.4949207e-92
6.3834085e-92
6.1914371e-92
6.3403703e-92
7.0791321e-92
6.6720465e-92
3.858641e-92
3.2622423e-92
2.722419e-92
2.8857105e-92
1.7617693e-92
2.2116336e-92
1.6973297e-92
2.6830034e-92
1.7655148e-92
2.4181916e-92
2.2587418e-92
1.679492e-92
1.6877278e-92
1.7334367e-92
2.928898e-92
2.7224662e-92
2.979203e-92
3.0229198e-92
2.9148509e-92
3.2617517e-92
1.7011365e-92
1.6929146e-92
3.4214238e-92
3.2549546e-92
3.7329912e-92
3.3651931e-92
2.8000403e-92
2.911874e-92
2.5621135e-92
2.4211379e-92
1.7026249e-92
1.6644616e-92
2.2963595e-92
1.6708348e-92
1.7033434e-92
2.328694e-92
3.8288494e-92
3.2714419e-92
3.0645807e-92
3.1186666e-92
4.1818384e-92
3.6202916e-92
1.8578806e-91
1.8902358e-91
1.252664e-91
1.2880302e-91
1.3825963e-91
1.4051959e-91
2.100843e-91
2.1212508e-91
3.7810324e-92
4.0584565e-92
4.3540452e-92
3.9075798e-92
1.2338187e-91
1.1391301e-91
1.971102e-91
2.0171577e-91
1.3247715e-91
1.3452213e-91
4.3240578e-92
4.0587515e-92
3.6649446e-92
3.8538849e-92
1.19132e-91
1.1191276e-91
3.9926999e-92
3.8330765e-92
3.6476585e-92
3.8337814e-92
3.9688328e-92
3.8116232e-92
3.5841474e-92
3.7903538e-92
1.0940247e-91
3.843379e-92
4.2297065e-92
4.4962921e-92
4.0394047e-92
1.2310627e-91
3.9054232e-92
4.4209221e-92
3.8010136e-92
3.9064145e-92
4.0834774e-92
3.8800813e-92
4.0151213e-92
3.9306846e-92
4.1323193e-92
3.1297005e-92
3.6041152e-92
3.7912854e-92
3.2468443e-92
3.301108e-92
3.2651636e-92
3.2124871e-92
3.2482416e-92
3.1089355e-92
3.7438926e-92
3.8115001e-92
3.1935313e-92
3.4422547e-92
3.1017879e-92
3.071642e-92
3.2107249e-92
3.1869561e-92
3.3642723e-92
3.3100808e-92
3.399177e-92
3.4057559e-92
3.0189067e-92
3.0714816e-92
3.4403007e-92
3.1481323e-92
3.3586802e-92
3.7296571e-92
3.3220573e-92
3.9209599e-92
3.5158961e-92
3.2409776e-92
3.4236487e-92
3.5356013e-92
3.8499456e-92
3.857208e-92
4.2663351e-92
3.6389988e-92
3.5040286e-92
3.8404525e-92
4.007686e-92
3.7037151e-92
3.6788199e-92
3.509318e-92
3.4108026e-92
3.8352615e-92
3.4558593e-92
3.3302141e-92
3.6271118e-92
1.1869383e-91
1.1894722e-91
1.0294331e-91
1.0377698e-91
2.1123385e-91
2.0906789e-91
1.4156926e-91
1.4158972e-91
1.447695e-91
1.4488569e-91
2.1547031e-91
2.1240899e-91
1.1967671e-91
4.2923945e-92
4.7273668e-92
4.7598768e-92
4.2440902e-92
1.2872566e-91
1.9693265e-91
1.9450506e-91
1.3224328e-91
1.3239719e-91
1.346894e-91
1.3899487e-91
2.0021534e-91
2.0757111e-91
3.6686557e-92
4.0989599e-92
4.2842202e-92
3.8103262e-92
1.2194699e-91
1.1393068e-91
4.1699602e-92
4.2864686e-92
4.2063944e-92
4.0394007e-92
3.6660282e-92
3.6445015e-92
3.8209699e-92
3.7027549e-92
2.9704806e-92
2.9820701e-92
3.2102211e-92
3.184598e-92
3.3526062e-92
3.0706349e-92
2.718406e-92
3.0018548e-92
2.9357597e-92
3.4061756e-92
3.2652518e-92
2.8751168e-92
3.1696466e-92
3.0611397e-92
3.1356737e-92
2.9920845e-92
3.0838304e-92
2.9082849e-92
2.8860818e-92
3.108753e-92
3.2265411e-92
3.1161494e-92
3.279457e-92
3.3719722e-92
3.4904213e-92
3.728616e-92
3.8623846e-92
3.4437911e-92
3.4086355e-92
3.1889811e-92
2.8706427e-92
3.0195664e-92
1.9971218e-92
6.407857e-93
6.2864892e-93
9.2753134e-93
9.1634195e-93
5.9578858e-93
5.9947372e-93
9.4392911e-93
9.3860255e-93
1.8582752e-92
2.464824e-92
2.7463786e-92
2.9644476e-92
2.6294368e-92
3.0200921e-92
3.0005721e-92
2.8907043e-92
3.0652997e-92
2.5561687e-92
3.0346269e-92
2.6854846e-92
2.9108045e-92
3.3390937e-92
2.6267406e-92
2.4793979e-92
2.8364567e-92
1.3801375e-92
1.3220182e-92
1.3830318e-92
1.2711753e-92
1.6616567e-92
1.3426964e-92
1.4236196e-92
1.3701406e-92
1.5634746e-92
1.4394316e-92
1.5559796e-92
1.5218471e-92
1.5685786e-92
1.4100117e-92
1.4743869e-92
1.5266527e-92
1.669426e-92
1.2125885e-92
1.4924129e-92
1.3238144e-92
1.4359737e-92
1.3340815e-92
1.4388373e-92
1.4333382e-92
1.4061352e-92
1.4408675e-92
1.5119322e-92
1.3803371e-92
1.2768846e-92
1.1004445e-92
1.1567764e-92
1.3160741e-92
2.8888277e-92
2.5587554e-92
2.5785669e-92
2.8882698e-92
2.9915126e-92
2.7848137e-92
2.6028807e-92
2.7286759e-92
2.5675993e-92
2.922482e-92
2.7896066e-92
2.5021878e-92
2.5559753e-92
2.1764433e-92
2.2349176e-92
2.4593717e-92
2.4906057e-92
2.5329437e-92
2.8997403e-92
2.9057405e-92
2.6575071e-92
2.6654905e-92
2.8852005e-92
2.9233861e-92
2.6338596e-92
2.7195872e-92
2.799176e-92
2.615094e-92
2.7929334e-92
2.759857e-92
2.5205533e-92
2.5158611e-92
6.1320608e-93
1.1582988e-92
1.4037289e-92
1.1884227e-92
1.6312821e-92
6.1348823e-93
1.1353349e-92
1.3739086e-92
1.1365622e-92
1.3890031e-92
8.6441215e-93
8.6826981e-93
1.3517693e-92
1.2680734e-92
1.3667742e-92
1.4084847e-92
1.3794638e-92
1.2786282e-92
1.4037854e-92
1.4118241e-92
5.8635224e-93
1.1291529e-92
1.3844496e-92
1.1670934e-92
1.5290439e-92
5.7759571e-93
1.1048398e-92
1.3162664e-92
1.0764482e-92
1.1398398e-92
9.7927687e-93
9.6006845e-93
1.4295315e-92
1.3500549e-92
1.4587251e-92
1.5193569e-92
1.3995656e-92
1.3195327e-92
1.4428813e-92
1.502447e-92
2.893311e-92
3.343933e-92
3.1703755e-92
2.8908639e-92
3.0336351e-92
2.5521038e-92
2.6328088e-92
3.0123315e-92
2.6695067e-92
2.6015438e-92
2.9691001e-92
2.9321404e-92
2.805393e-92
3.0133936e-92
3.036105e-92
2.7573013e-92
1.8411198e-92
1.4721694e-92
4.4410168e-92
3.6604434e-92
1.5579233e-91
1.7354985e-91
1.6285718e-91
1.6705841e-91
2.0104735e-91
3.9874683e-91
4.5645295e-91
2.0313303e-91
4.4564242e-92
5.1146567e-92
2.0517169e-91
5.8183303e-92
6.2297694e-92
6.2641911e-92
6.8032258e-92
6.400535e-92
5.657542e-92
7.4412528e-92
6.9341371e-92
5.7286584e-92
5.8893933e-92
5.6592163e-92
5.805253e-92
5.876491e-92
6.8202832e-92
6.9783943e-92
5.5725435e-92
6.4526984e-92
6.661724e-92
7.0315575e-92
7.0165926e-92
6.8100653e-92
6.1128104e-92
8.0788066e-92
7.447613e-92
5.9976647e-92
5.9027508e-92
6.2447761e-92
6.2055823e-92
6.2181082e-92
7.5247219e-92
7.4751042e-92
5.9703775e-92
2.9835824e-92
3.1151952e-92
3.5426143e-92
2.8352028e-92
2.6505035e-92
2.3735936e-92
1.7980395e-92
1.7892203e-92
1.7440199e-92
1.8467057e-92
2.4086656e-92
2.5215935e-92
1.7963235e-92
1.7367724e-92
3.0721868e-92
3.3795197e-92
2.8871567e-92
2.9190659e-92
2.962298e-92
2.7374753e-92
3.3019812e-92
2.8318796e-92
3.7756659e-92
3.0627461e-92
2.6992101e-92
2.5488749e-92
1.8012465e-92
1.7090931e-92
1.7809597e-92
2.3288706e-92
2.5375896e-92
1.687596e-92
1.8467338e-92
1.7768963e-92
3.6881891e-92
3.4008453e-92
3.092097e-92
3.1042959e-92
3.3972473e-92
3.1997389e-92
4.3705283e-92
3.7964566e-92
3.8672918e-92
4.4371362e-92
4.2953574e-92
3.7629191e-92
3.593908e-92
4.0398833e-92
4.1916973e-92
3.7204211e-92
3.6298275e-92
3.8201463e-92
3.8525308e-92
3.6058686e-92
3.9744575e-92
4.0087375e-92
3.8941376e-92
3.7250081e-92
3.0270873e-92
3.3708626e-92
3.2366675e-92
3.1560201e-92
3.0994984e-92
3.165374e-92
2.9786298e-92
3.1005851e-92
2.9723073e-92
3.1806075e-92
3.4596655e-92
3.0200403e-92
3.516766e-92
3.4615359e-92
3.1256612e-92
3.0550554e-92
3.209558e-92
2.9458028e-92
2.9641095e-92
3.2470475e-92
3.3360614e-92
3.0530027e-92
3.0806035e-92
3.3548036e-92
3.1455863e-92
3.4272162e-92
3.6519121e-92
3.2298518e-92
2.9307158e-92
3.2442158e-92
3.4911541e-92
3.0591673e-92
3.8206319e-92
3.6070787e-92
3.4356392e-92
3.667027e-92
3.9718243e-92
3.8426573e-92
3.6610484e-92
3.7676057e-92
3.9768801e-92
4.2223666e-92
4.3702556e-92
4.0113484e-92
4.1576592e-92
3.8634484e-92
3.5651944e-92
3.7994045e-92
4.0661901e-92
4.1879915e-92
4.5274412e-92
4.7835807e-92
3.8168741e-92
4.0366658e-92
4.3072567e-92
4.4004471e-92
4.0401547e-92
4.1711075e-92
4.2196933e-92
4.2014339e-92
4.292286e-92
4.0193227e-92
3.9562533e-92
4.1676336e-92
4.0153013e-92
3.7948612e-92
4.4818668e-92
4.1166037e-92
4.4916186e-92
4.3180732e-92
3.8455843e-92
3.9705871e-92
3.9907339e-92
3.9154744e-92
3.6856128e-92
3.8536611e-92
4.0367436e-92
3.8792598e-92
3.7217388e-92
3.8231603e-92
3.2820057e-92
3.3819607e-92
3.2950628e-92
3.3639219e-92
3.3826472e-92
3.5629207e-92
3.8271255e-92
3.4059619e-92
3.5068604e-92
4.2457565e-92
3.5543422e-92
4.0552928e-92
3.7713454e-92
3.4116307e-92
3.1885466e-92
3.3030432e-92
3.1337467e-92
3.2269563e-92
3.1143032e-92
3.2149969e-92
3.2041195e-92
3.0107804e-92
3.1196526e-92
3.230232e-92
3.6536645e-92
3.4625301e-92
3.0881089e-92
3.2055784e-92
3.050827e-92
3.3208259e-92
3.5966197e-92
3.1119293e-92
2.499984e-92
2.6581308e-92
2.9709821e-92
2.7889167e-92
3.0422064e-92
2.7304187e-92
2.6446983e-92
2.702367e-92
2.4366389e-92
2.5884859e-92
2.5525234e-92
2.4427134e-92
2.6189046e-92
2.7727498e-92
2.6594408e-92
2.4117604e-92
6.5756288e-93
9.4546618e-93
9.3402833e-93
6.5844916e-93
1.6732718e-92
1.4899642e-92
1.5343496e-92
1.4189207e-92
1.4542864e-92
1.4579531e-92
1.5088833e-92
1.5017749e-92
1.3000902e-92
1.3500788e-92
1.4041389e-92
1.4204913e-92
1.5798269e-92
1.5016689e-92
1.5528115e-92
1.5916144e-92
6.1651967e-93
1.3276359e-92
1.1973381e-92
1.4861778e-92
1.354056e-92
6.2587767e-93
1.5717758e-92
1.5711931e-92
1.5745463e-92
1.3227344e-92
1.5156979e-92
1.4652988e-92
1.5246684e-92
1.5209554e-92
1.5145193e-92
1.3736695e-92
1.4215524e-92
1.5216774e-92
9.8673627e-93
9.7909704e-93
2.20928e-92
2.0036562e-92
2.7449052e-92
3.1037675e-92
2.989433e-92
2.6703911e-92
2.8726834e-92
2.594231e-92
2.6413669e-92
2.8480162e-92
2.6888281e-92
3.1651585e-92
2.9200123e-92
2.5929154e-92
2.7776521e-92
2.429936e-92
2.4651563e-92
2.5395801e-92
6.3407237e-93
6.3305219e-93
8.847675e-93
8.8581294e-93
6.1329553e-93
1.0046275e-92
9.9872617e-93
6.1791417e-93
2.0344878e-92
1.6108077e-92
2.58768e-92
2.749117e-92
2.908326e-92
2.655755e-92
2.6969763e-92
2.7987704e-92
2.5229149e-92
2.7852354e-92
2.7796028e-92
2.3981729e-92
2.3913013e-92
2.5753658e-92
2.5334407e-92
2.5351326e-92
2.8149825e-92
2.5343085e-92
1.4678979e-92
1.1648032e-92
1.4534529e-92
1.4821319e-92
1.6555899e-92
1.2022556e-92
1.5014441e-92
1.4213949e-92
1.4391005e-92
1.3638814e-92
1.4818281e-92
1.4704142e-92
1.4352265e-92
1.3248482e-92
1.4409569e-92
1.4668736e-92
1.5813242e-92
1.47109e-92
1.4828115e-92
1.4160083e-92
1.4861461e-92
1.4317265e-92
1.4894788e-92
1.4611851e-92
1.7902283e-92
1.6160675e-92
1.7063187e-92
1.7105082e-92
1.2065384e-92
1.3754697e-92
1.2527788e-92
1.2902365e-92
2.6136444e-92
2.4145801e-92
2.813355e-92
2.8579639e-92
2.6154112e-92
2.5962146e-92
2.9174265e-92
2.9359899e-92
2.7906691e-92
2.9250334e-92
3.0749083e-92
2.8284965e-92
3.0762966e-92
3.034007e-92
2.8479276e-92
2.7945933e-92
4.5919908e-92
3.7717685e-92
1.9551286e-91
2.2112665e-91
1.336634e-91
1.3754904e-91
1.5695536e-91
1.5214257e-91
2.1365399e-91
2.3574228e-91
1.3186133e-91
1.2045275e-91
1.3333565e-91
1.4012712e-91
2.877248e-92
2.841957e-92
3.4173843e-92
3.4562207e-92
2.5310095e-92
2.4627166e-92
2.9822827e-92
3.0839238e-92
1.9018692e-91
2.176484e-91
1.4502391e-91
1.4426751e-91
1.2891608e-91
1.2037594e-91
1.3027676e-91
1.3528959e-91
2.7199899e-92
2.7060679e-92
3.2721774e-92
3.2824376e-92
2.6313323e-92
2.5998975e-92
3.1535938e-92
3.1892467e-92
1.1303879e-91
1.0678152e-91
1.0668729e-91
1.1367532e-91
1.1721206e-91
1.0872683e-91
1.0714792e-91
1.1786751e-91
1.2720465e-91
2.4917862e-92
2.4226818e-92
2.9071617e-92
3.0128521e-92
1.2066085e-91
1.3334808e-91
1.4005622e-91
2.8091599e-92
2.7815878e-92
3.3358073e-92
3.3686556e-92
1.2953374e-91
1.2984962e-91
1.143548e-91
1.1088554e-91
1.1539389e-91
1.1757173e-91
1.1671509e-91
1.0890338e-91
1.186197e-91
9.4468024e-92
9.3509689e-92
9.8292318e-92
1.0096544e-91
8.3341431e-92
7.833268e-92
7.4531573e-92
8.048732e-92
9.2300496e-92
9.7802853e-92
9.513646e-92
9.777586e-92
8.080976e-92
7.0745227e-92
7.3556485e-92
7.9280121e-92
8.1821531e-92
7.9484377e-92
8.4483216e-92
8.9052513e-92
7.957387e-92
7.4209036e-92
7.5055148e-92
8.5023026e-92
9.4620735e-92
8.8723106e-92
9.7578079e-92
9.9297986e-92
1.0156776e-91
9.0977761e-92
9.5706482e-92
1.0431636e-91
1.2088298e-91
1.3982665e-91
1.1257504e-91
1.3164493e-91
1.3248953e-91
1.2983755e-91
1.2006116e-91
1.2532299e-91
1.1083995e-91
1.0734942e-91
1.1161929e-91
1.0662737e-91
1.1426907e-91
1.0052655e-91
1.0317569e-91
1.1698067e-91
1.0250197e-91
1.055658e-91
9.4398454e-92
9.2769117e-92
2.056702e-91
2.2874171e-91
1.4128833e-91
1.4015115e-91
1.5498269e-91
1.5109809e-91
2.1875651e-91
2.2964575e-91
1.3730549e-91
2.8338848e-92
2.7427297e-92
3.2929156e-92
3.4325509e-92
1.3892421e-91
1.3014696e-91
1.4624971e-91
2.9278496e-92
2.9771582e-92
3.5710968e-92
3.5211949e-92
2.0032975e-91
2.1997874e-91
1.4520662e-91
1.451906e-91
1.5454666e-91
1.5262922e-91
2.1089716e-91
2.3278805e-91
1.2800715e-91
1.2691857e-91
1.285763e-91
1.3708331e-91
2.794043e-92
2.8291285e-92
3.4421161e-92
3.4119827e-92
2.7659346e-92
2.8102479e-92
3.3562386e-92
3.3652396e-92
1.2224099e-91
1.1921439e-91
1.1809877e-91
1.2250902e-91
1.1196304e-91
1.0388657e-91
1.1038405e-91
1.1392797e-91
7.4690169e-92
7.2772361e-92
7.6525174e-92
8.0349986e-92
9.4726114e-92
8.5831439e-92
8.7132702e-92
9.8752679e-92
9.3540894e-92
9.2300777e-92
9.0725974e-92
9.4481533e-92
7.6739488e-92
7.2851955e-92
7.7605915e-92
7.4752313e-92
7.408209e-92
6.8965949e-92
7.0892167e-92
8.0089964e-92
7.437082e-92
7.4766425e-92
8.2375744e-92
8.1528363e-92
1.0151282e-91
9.4355714e-92
9.6273602e-92
1.0098419e-91
9.2619082e-92
8.4323408e-92
8.9464334e-92
9.551898e-92
2.8514025e-92
1.4947336e-92
1.8143137e-92
4.9515416e-93
4.4912252e-93
4.6592099e-93
5.11024e-93
4.6192292e-93
4.5729332e-93
4.6337134e-93
4.8029269e-93
4.2713989e-93
4.4227082e-93
4.6065918e-93
4.7042345e-93
4.4916845e-93
4.2218957e-93
4.3776442e-93
5.0733326e-93
1.6801807e-92
1.4036284e-92
2.5070858e-92
5.8420781e-92
5.7529627e-92
5.9956888e-92
6.2221907e-92
4.8645086e-92
5.0855721e-92
4.7152937e-92
4.5825231e-92
5.8338487e-92
6.4232604e-92
6.3866043e-92
5.8348276e-92
4.9120952e-92
4.6559269e-92
4.6286127e-92
4.5489366e-92
1.4275795e-92
1.8917086e-92
1.86586e-92
1.8885399e-92
1.6148864e-92
1.889481e-92
1.9436529e-92
1.9003347e-92
3.5307263e-92
3.3010112e-92
3.321526e-92
3.393774e-92
3.3243067e-92
3.3236845e-92
3.3625322e-92
3.3979047e-92
1.4886696e-92
2.0121832e-92
1.5883156e-92
2.0541135e-92
3.3676908e-92
3.177002e-92
3.8083842e-92
3.5936672e-92
3.1048707e-92
3.3753014e-92
3.4793455e-92
4.211613e-92
1.636581e-92
1.7186539e-92
2.0540501e-92
1.3857722e-92
4.6265407e-92
4.5999701e-92
4.7329237e-92
4.6197839e-92
5.6642129e-92
5.7925054e-92
5.9176214e-92
6.0066137e-92
5.8063646e-92
5.5607804e-92
5.5473029e-92
5.9100759e-92
4.1658655e-92
4.1746918e-92
4.5146286e-92
4.2149725e-92
4.8817655e-92
4.7316045e-92
4.5569915e-92
4.6361783e-92
4.6774345e-92
4.7202058e-92
4.5544385e-92
4.5230989e-92
6.0412962e-92
5.6083187e-92
5.6605719e-92
5.9321003e-92
5.6847251e-92
5.5542023e-92
5.7695664e-92
5.8785261e-92
4.5904809e-93
4.2824768e-93
4.390973e-93
5.0151849e-93
2.0455206e-92
1.5400337e-92
1.9672094e-92
1.4120049e-92
4.3090069e-93
4.3503806e-93
4.582977e-93
4.7490287e-93
1.8422407e-92
1.5537894e-92
2.0117074e-92
1.2971714e-92
1.7465048e-92
1.8015618e-92
3.7529646e-92
3.5579843e-92
3.4274063e-92
3.4998636e-92
3.4061674e-92
3.3293499e-92
3.415963e-92
3.3110474e-92
4.3698186e-93
4.1437125e-93
4.3464134e-93
4.8538765e-93
1.9709049e-92
1.6677088e-92
2.1508233e-92
1.5056352e-92
4.1494483e-93
4.3961858e-93
4.3740004e-93
4.4758198e-93
1.8208809e-92
1.7813684e-92
2.0334616e-92
1.2553817e-92
1.4957428e-92
1.1235725e-92
4.2032138e-92
4.2405775e-92
3.8893709e-92
4.0068738e-92
3.9152483e-92
3.7871231e-92
3.6182329e-92
3.623052e-92
6.5508761e-92
6.3196576e-92
6.092306e-92
6.2985146e-92
4.7896223e-92
5.0070685e-92
5.0206392e-92
4.8378202e-92
5.500493e-92
5.2390139e-92
4.9687038e-92
5.3116075e-92
6.2660553e-92
6.0495005e-92
6.4674459e-92
6.7545111e-92
2.5000348e-92
1.878246e-92
2.3378078e-92
2.1821451e-92
2.1611262e-92
1.7905199e-92
3.12367e-91
4.1588833e-91
3.8703342e-91
2.3759587e-91
5.8292084e-91
1.34585e-91
1.6575739e-91
1.6118464e-91
1.3536984e-91
8.3499198e-92
8.137004e-92
7.8419171e-92
7.5846158e-92
3.0605449e-91
2.740349e-91
5.3701348e-91
7.6644219e-92
1.5380872e-91
1.4342939e-91
1.4266718e-91
1.527095e-91
1.4269486e-91
1.5709129e-91
2.1020105e-91
5.2899691e-92
4.6002199e-92
3.1666423e-92
1.3196483e-91
9.8490922e-92
3.0861193e-92
7.7740355e-92
8.9425565e-92
2.9331599e-92
2.8971691e-92
3.8583534e-92
3.4497227e-92
3.0367452e-92
3.4281517e-92
3.9544582e-92
3.5598225e-92
3.816349e-92
4.2560603e-92
3.0801875e-92
3.3151571e-92
3.6441347e-92
3.3580675e-92
3.8618173e-92
3.8024273e-92
3.7013457e-92
3.5507216e-92
4.2173259e-92
4.6341721e-92
4.1187106e-92
4.5604837e-92
3.9238663e-92
3.8454127e-92
3.4530154e-92
3.4925952e-92
3.7874433e-92
3.7856173e-92
3.5291839e-92
3.5865894e-92
4.0524337e-92
4.0822666e-92
3.9514e-92
3.8919858e-92
2.6340166e-92
3.0739275e-92
3.3557885e-92
2.8728954e-92
2.7951326e-92
2.8300183e-92
3.1128349e-92
3.0260367e-92
3.0059625e-92
3.0995168e-92
2.9816748e-92
3.0666201e-92
2.9437428e-92
3.2155261e-92
3.4274871e-92
2.9876761e-92
3.1327327e-92
3.0670501e-92
3.1427479e-92
3.1666438e-92
3.6337186e-92
3.5978836e-92
3.2522071e-92
3.2375121e-92
3.0990423e-92
3.7634814e-92
3.4413176e-92
3.0509819e-92
3.318098e-92
3.0305898e-92
3.1540487e-92
3.0509818e-92
3.8046036e-92
4.3344761e-92
4.399085e-92
3.8732942e-92
3.8686175e-92
4.3357019e-92
4.3475438e-92
3.8785725e-92
3.8763018e-92
4.0802981e-92
3.9673261e-92
3.7429641e-92
3.9134731e-92
3.938756e-92
3.9999498e-92
3.8285818e-92
3.9562415e-92
4.2477845e-92
4.5350902e-92
4.0064787e-92
4.0515023e-92
4.0537476e-92
3.6353577e-92
3.6067874e-92
3.9155628e-92
4.0222006e-92
3.7421586e-92
3.7093588e-92
4.0702348e-92
4.0000345e-92
3.7527543e-92
3.9018236e-92
3.1525146e-92
3.0932668e-92
3.1893705e-92
3.1991652e-92
3.3971632e-92
3.0995964e-92
3.1537976e-92
3.1823321e-92
3.1844361e-92
3.5013478e-92
3.4509137e-92
3.118249e-92
3.6143711e-92
3.5028222e-92
3.0681128e-92
3.1232165e-92
3.2622589e-92
3.2892601e-92
3.1826396e-92
3.3080282e-92
3.2438236e-92
3.4533397e-92
3.7402592e-92
3.3118051e-92
3.3106692e-92
4.0776755e-92
3.833639e-92
3.2256163e-92
3.6050203e-92
3.2810285e-92
3.0502205e-92
3.1068411e-92
2.2722262e-92
2.7293522e-92
2.8916598e-92
2.4832681e-92
2.7710611e-92
2.5614929e-92
2.6808809e-92
2.6108804e-92
2.4214668e-92
2.657808e-92
2.4898893e-92
2.6470506e-92
2.376605e-92
2.4063903e-92
2.6539046e-92
2.3763065e-92
6.5939002e-93
1.5905096e-92
1.2190984e-92
1.5526031e-92
1.5772181e-92
6.6865279e-93
1.7561184e-92
1.3589138e-92
1.7518066e-92
1.5419514e-92
1.6151841e-92
1.5044893e-92
1.5098442e-92
1.5839486e-92
1.4944805e-92
1.3848138e-92
1.5468984e-92
1.5011832e-92
9.6782156e-93
9.307731e-93
1.550463e-92
1.5102752e-92
1.5892493e-92
1.5589066e-92
6.4213083e-93
1.3965874e-92
1.4478887e-92
1.6145211e-92
1.4596261e-92
6.3353466e-93
1.3860819e-92
1.2192327e-92
1.584089e-92
1.4598937e-92
1.5512116e-92
1.4177983e-92
1.5884711e-92
1.5956275e-92
9.9906065e-93
1.0000753e-92
2.4725846e-92
2.2187832e-92
2.3810301e-92
2.6041881e-92
2.4588177e-92
2.4734368e-92
2.6037655e-92
2.5998442e-92
2.8006811e-92
2.6441578e-92
2.4337589e-92
2.5683259e-92
2.7549285e-92
2.5144905e-92
2.5606528e-92
2.7914921e-92
2.4077217e-92
2.1506105e-92
2.7141087e-92
2.5605499e-92
2.6371913e-92
2.752579e-92
2.6324619e-92
2.4274206e-92
2.6106988e-92
2.7224331e-92
3.0258907e-92
2.5005597e-92
2.6963557e-92
2.6707167e-92
2.6167334e-92
2.8024137e-92
2.378637e-92
2.5273403e-92
6.535321e-93
1.4741367e-92
1.1993929e-92
1.4953418e-92
1.5929765e-92
6.5776621e-93
1.7410864e-92
1.277625e-92
1.6682406e-92
1.5204774e-92
1.5678371e-92
1.4301027e-92
1.4752559e-92
1.5598727e-92
9.1417006e-93
9.1431284e-93
1.37438e-92
1.4531728e-92
1.6200441e-92
1.5484771e-92
6.2271924e-93
1.4110633e-92
1.1773992e-92
1.5744018e-92
1.5498828e-92
6.2879236e-93
1.6887086e-92
1.2453716e-92
1.5256619e-92
1.6318331e-92
1.0251527e-92
1.0202257e-92
1.4178866e-92
1.4985657e-92
1.7223068e-92
1.6248176e-92
1.492308e-92
1.5830201e-92
1.739252e-92
1.618738e-92
2.6855199e-92
2.662008e-92
2.9217048e-92
2.7237509e-92
2.7208902e-92
2.4456893e-92
2.7294262e-92
2.8074275e-92
2.6553564e-92
2.8021753e-92
2.9552385e-92
2.7403981e-92
2.9123737e-92
3.0497797e-92
2.7457626e-92
2.6509737e-92
2.1821683e-92
1.724672e-92
4.7718624e-92
3.9409255e-92
1.3794851e-91
1.4052816e-91
1.3170636e-91
1.3726408e-91
1.2374535e-91
1.2094462e-91
1.3314299e-91
1.3673661e-91
1.1488868e-91
1.1471071e-91
1.15805e-91
1.1666047e-91
1.2354413e-91
1.1661832e-91
1.130621e-91
1.1526535e-91
7.479281e-92
8.0258641e-92
8.3088125e-92
8.095073e-92
7.669287e-92
8.1332174e-92
8.1920585e-92
8.188386e-92
9.7654683e-92
9.3576438e-92
9.8384608e-92
9.9039459e-92
9.5079374e-92
9.576025e-92
9.9983946e-92
9.6988423e-92
7.9915796e-92
7.244073e-92
7.4671937e-92
8.5878172e-92
7.9201946e-92
7.6478203e-92
7.7886037e-92
8.4568208e-92
9.7842368e-92
9.3004652e-92
9.8114609e-92
9.9931904e-92
9.3714431e-92
8.8808084e-92
9.8380512e-92
9.9896331e-92
1.155246e-91
1.074525e-91
1.1041061e-91
1.1709763e-91
1.1678189e-91
1.1249392e-91
1.1445978e-91
1.1918249e-91
1.374041e-91
1.268466e-91
1.3493757e-91
1.431717e-91
1.3014347e-91
1.2245469e-91
1.3202249e-91
1.3772259e-91
1.3213449e-91
1.3639464e-91
1.2700413e-91
1.4045017e-91
1.3460384e-91
1.4556463e-91
1.308793e-91
1.3413237e-91
1.2010584e-91
1.1779865e-91
1.2364038e-91
1.1769834e-91
1.1967393e-91
1.1831132e-91
1.1729518e-91
1.2251067e-91
1.3855693e-91
1.3307325e-91
1.306457e-91
1.2426067e-91
1.3947279e-91
1.2566966e-91
1.3177838e-91
1.4379805e-91
1.1203431e-91
1.1132738e-91
1.1232085e-91
1.1490706e-91
1.2030353e-91
1.1098126e-91
1.1292228e-91
1.2162638e-91
7.8004713e-92
8.2512859e-92
8.5884461e-92
8.3171192e-92
1.0013589e-91
9.4469797e-92
9.800285e-92
1.0113978e-91
1.0365379e-91
1.1105942e-91
1.0992103e-91
1.0306949e-91
9.2017818e-92
8.1977906e-92
8.2516861e-92
8.7989438e-92
7.5084342e-92
7.5778497e-92
7.8976266e-92
8.0457222e-92
7.7928017e-92
7.5065817e-92
8.1051157e-92
8.358232e-92
1.0039051e-91
9.4397507e-92
9.6784833e-92
1.0216935e-91
9.4383362e-92
8.9775242e-92
9.4620383e-92
9.5906848e-92
4.6687193e-92
4.5446353e-92
4.6547587e-92
4.6420835e-92
5.2476099e-92
4.6953187e-92
4.6023055e-92
4.6397857e-92
6.208261e-92
5.8680053e-92
5.6656623e-92
5.9852233e-92
6.1965551e-92
5.8094228e-92
5.7439011e-92
5.9645594e-92
4.9601188e-93
4.7960272e-93
5.412592e-93
5.5414751e-93
1.4845306e-92
1.6938235e-92
4.8504443e-93
4.9038737e-93
5.048596e-93
4.9709797e-93
1.5502687e-92
2.1875413e-92
2.0619327e-92
1.8596939e-92
3.515503e-92
3.3708751e-92
3.4835525e-92
3.3152693e-92
1.9207854e-92
1.842271e-92
1.4723776e-92
1.8605144e-92
3.3751444e-92
3.1273391e-92
3.1959067e-92
3.4808461e-92
4.4542126e-93
4.6673777e-93
4.8706843e-93
4.8917693e-93
1.4267773e-92
1.6514352e-92
1.7844822e-92
2.1139565e-92
4.6482008e-93
4.5178212e-93
5.0082927e-93
5.2939433e-93
1.5740724e-92
1.9295911e-92
1.942435e-92
1.9971169e-92
3.5685877e-92
3.5143887e-92
3.716905e-92
3.6276238e-92
4.150338e-92
3.3464698e-92
3.3168327e-92
3.7970171e-92
1.6093626e-92
1.3854558e-92
3.0281404e-92
2.5880932e-92
6.335331e-92
6.3565307e-92
5.8918052e-92
6.1539911e-92
4.7865979e-92
4.8216031e-92
4.862608e-92
4.6748701e-92
6.3338226e-92
6.0359939e-92
6.0439892e-92
6.3603024e-92
4.5879999e-92
4.5526215e-92
4.9574722e-92
4.8257737e-92
4.8227175e-93
4.5028981e-93
4.654182e-93
5.300705e-93
4.5035227e-93
4.5609439e-93
4.8766409e-93
5.0660652e-93
1.7373352e-92
1.8269508e-92
4.562781e-93
4.3657761e-93
4.8562949e-93
5.1454797e-93
1.5888419e-92
1.2301238e-92
4.6452128e-93
4.6863767e-93
4.5459094e-93
4.7185343e-93
2.6888296e-92
1.981003e-92
5.0771211e-92
5.0628824e-92
4.9229908e-92
4.6352236e-92
4.7362313e-92
4.8000105e-92
4.4526851e-92
4.687978e-92
5.9556742e-92
5.4277889e-92
5.9283018e-92
6.17262e-92
5.9023421e-92
5.4868357e-92
5.9630867e-92
6.0499509e-92
1.3067561e-92
1.7758942e-92
1.6099699e-92
2.2952254e-92
1.5124166e-92
1.9742985e-92
1.6757369e-92
1.9919403e-92
3.2285501e-92
3.0899338e-92
3.5569321e-92
3.3758346e-92
3.4155768e-92
3.2824933e-92
4.2325263e-92
3.7968468e-92
1.6535606e-92
2.0182052e-92
2.1148435e-92
2.1465014e-92
4.2247414e-92
4.2726012e-92
3.8845623e-92
3.7896944e-92
3.5968761e-92
4.1296704e-92
4.4220682e-92
4.3041577e-92
2.2403886e-92
2.0773595e-92
1.3912906e-92
2.1615651e-92
5.7164624e-92
4.8662955e-92
4.8200946e-92
5.5923443e-92
5.1364216e-92
5.2350981e-92
5.0427262e-92
5.0185694e-92
6.4457679e-92
6.2022806e-92
6.1863064e-92
6.3293008e-92
6.7454582e-92
6.3047444e-92
6.7113377e-92
6.9579522e-92
2.4937505e-92
2.2881866e-92
2.305378e-92
1.8971569e-92
2.8075522e-92
2.9248111e-92
7.4581076e-92
7.8553006e-92
8.3059616e-92
8.3298965e-92
3.1810212e-92
3.2007796e-92
2.1873711e-92
2.1850794e-92
2.2505661e-92
2.2130242e-92
1.9226763e-92
1.9835076e-92
2.0694511e-92
1.9789506e-92
2.3301624e-92
2.3120205e-92
2.2268966e-92
2.2315479e-92
2.4938813e-92
2.4776582e-92
2.5322954e-92
2.5047486e-92
7.4717589e-92
7.4012652e-92
6.440161e-92
6.4879323e-92
7.0759029e-92
7.0570632e-92
6.2245059e-92
6.2966474e-92
2.9547828e-92
3.0176417e-92
7.8138049e-92
8.077428e-92
2.1883976e-92
2.1721264e-92
2.0997148e-92
2.0974213e-92
2.0180392e-92
2.0904063e-92
2.1123596e-92
2.0150078e-92
2.278013e-92
2.2922795e-92
2.2851991e-92
2.2728451e-92
2.3617304e-92
2.3389219e-92
2.3819807e-92
2.3557463e-92
7.2572389e-92
7.1533675e-92
6.2876064e-92
6.355981e-92
7.1501768e-92
7.1638736e-92
6.2817957e-92
6.3178098e-92
1.854743e-92
1.8493355e-92
1.7696079e-92
1.7687454e-92
1.8037814e-92
1.7967856e-92
1.7025128e-92
1.7013964e-92
1.8390692e-92
1.9134875e-92
1.9462603e-92
1.8459319e-92
1.9278379e-92
1.9878969e-92
2.0234147e-92
1.922841e-92
1.9712366e-92
1.9561117e-92
1.8763181e-92
1.8855258e-92
1.6498692e-92
1.7390486e-92
1.7554025e-92
1.6630555e-92
1.7516153e-92
1.8584119e-92
1.8963558e-92
1.806117e-92
2.0492445e-92
2.1145956e-92
2.1539904e-92
2.0494466e-92
2.1271712e-92
2.137538e-92
2.1956245e-92
2.1508488e-92
7.0871981e-92
6.9818793e-92
6.1262101e-92
6.2836644e-92
1.9038887e-92
1.9829572e-92
2.0310213e-92
1.929428e-92
2.2799674e-92
2.2530677e-92
2.1744869e-92
2.1856633e-92
2.4379007e-92
2.4176523e-92
2.4758706e-92
2.4486409e-92
7.4312946e-92
7.3375235e-92
6.3971926e-92
6.4661537e-92
2.2438081e-92
2.2506157e-92
2.2662958e-92
2.2237258e-92
2.0246774e-92
2.0964333e-92
2.1460868e-92
2.0202134e-92
1.7952983e-92
1.8948754e-92
1.9348226e-92
1.8082393e-92
1.6791021e-92
1.7633117e-92
1.7959433e-92
1.6911898e-92
1.9359856e-92
1.9253517e-92
1.8369894e-92
1.8467978e-92
1.9998321e-92
2.0649238e-92
2.1137164e-92
2.0069628e-92
1.9040639e-92
1.9696453e-92
2.0468613e-92
1.9066388e-92
1.8626491e-92
1.8209308e-92
1.7448485e-92
1.7756184e-92
1.8915542e-92
1.9697587e-92
1.8780078e-92
1.8171041e-92
1.523672e-92
1.6166051e-92
1.6176742e-92
1.5184952e-92
1.39927e-92
1.4819095e-92
1.4660751e-92
1.3804203e-92
1.6171435e-92
1.6113812e-92
1.5273814e-92
1.5367366e-92
1.6943591e-92
1.7566114e-92
1.7905014e-92
1.7007108e-92
1.2865723e-92
1.3656083e-92
1.3514888e-92
1.2539105e-92
1.170317e-92
1.251862e-92
1.2486157e-92
1.1471229e-92
1.3265451e-92
1.3288176e-92
1.2278839e-92
1.2366112e-92
1.3667262e-92
1.4254732e-92
1.45604e-92
1.3695238e-92
1.571465e-92
1.6595589e-92
1.6695159e-92
1.5557242e-92
1.4440194e-92