/*--------------------------------*- C++ -*----------------------------------*\
  =========                 |
  \\      /  F ield         | OpenFOAM: The Open Source CFD Toolbox
   \\    /   O peration     | Website:  https://openfoam.org
    \\  /    A nd           | Version:  7
     \\/     M anipulation  |
\*---------------------------------------------------------------------------*/
FoamFile
{
    version     2.0;
    format      ascii;
    class       volScalarField;
    location    "2000";
    object      omega;
}
// * * * * * * * * * * * * * * * * * * * * * * * * * * * * * * * * * * * * * //

dimensions      [0 0 -1 0 0 0 0];

internalField   nonuniform List<scalar> 
34387
(
682.93174
678.8916
611.66366
611.69883
505.13689
680.43896
686.9333
613.48825
614.23289
3086.8468
3061.6411
1221.9153
1246.8454
1091.8481
1109.3975
1237.3974
3126.7999
3074.717
1228.5898
1108.7313
1090.3055
552.64615
952.66593
833.11532
823.49863
941.92269
938.79045
826.20049
834.42914
957.32529
553.65386
501.33414
502.39046
478.70622
682.12065
688.58519
615.33945
615.73954
489.76931
489.84284
498.97359
499.13038
1241.5028
1113.8271
1101.5493
1238.9552
1267.6195
1234.4456
1127.4157
1101.4403
956.37779
843.83161
831.91984
553.706
951.78914
554.92238
945.4803
832.15723
842.39839
968.5179
501.9786
502.86109
7002.3744
7191.7548
2658.5195
6064.8845
5925.862
6983.4527
2640.8119
6109.5565
5899.9396
2470.2464
2498.1728
5899.6927
2647.5959
6096.6974
2700.3129
2485.8731
2533.1187
2171.0922
2008.9207
2150.6028
1980.2683
2053.8957
2008.2982
2167.6746
2218.1381
2668.4243
2648.9128
2488.7231
2523.4208
8450.2057
7339.608
7370.9106
6232.2812
2680.7753
6225.7521
7038.8802
7232.282
2653.8506
6096.5743
5939.5788
2502.7806
2479.9394
2051.3445
2203.4221
2172.2797
2005.9593
1994.883
1994.5536
2167.8502
2162.6979
619.21839
730.99151
731.4539
619.03458
1791.5601
1618.5236
1749.5199
1568.2899
1197.1899
1236.8921
1408.366
1367.925
1187.4931
1348.0775
1352.1982
1192.5005
1556.1813
1735.5634
1739.6497
1559.5698
1547.4859
1571.8767
1750.8364
1730.1316
1204.3196
1187.5577
732.78578
1349.8087
1366.3463
1208.3854
1232.8882
737.25435
1404.9268
1369.9359
1752.6162
1577.6431
1616.9654
1799.8666
616.51506
620.05183
552.92378
558.18887
614.12826
476.63788
478.86377
1238.5733
1245.3948
1115.8439
1110.977
1242.6473
1267.0246
1110.5047
1130.5044
959.46158
848.33142
837.53958
957.78261
553.99407
952.07702
837.85167
846.11728
972.37248
555.1575
502.11947
502.95349
2682.8687
2656.9342
2522.6549
2520.4616
2032.5639
2063.6623
2205.587
2198.9739
2022.0306
2012.6395
2173.2943
2181.6569
2491.7774
2494.6
2655.9193
2655.018
2705.58
2780.8932
2541.1122
2619.2894
2668.5099
2681.6783
2497.7063
2520.5073
2047.7677
2213.0954
2293.7133
2119.3945
2010.4415
2031.1192
2191.2757
2177.3717
1592.5106
1639.5611
1807.5632
1775.7381
739.25343
1261.32
1427.3245
1215.2166
1387.542
1211.8924
1205.7082
1368.9209
1380.7046
737.75379
622.9987
622.77016
1753.884
1578.8987
1769.6499
1590.5613
737.45025
742.52363
619.34509
622.61126
1573.1779
1593.6207
1772.1421
1756.5491
1206.6235
1222.9472
1385.3597
1371.2824
1221.6528
1387.4442
1427.4202
1242.7936
1654.6448
1603.1253
1785.5475
1850.4695
553.81202
559.07127
19504.175
19514.073
17822.966
17847.209
18629.666
18723.492
20442.144
20448.387
5265.2321
5188.6902
5304.8793
5388.8072
19611.525
18720.775
19606.807
19600.04
17945.445
17950.417
5323.7209
5162.1126
5245.3082
5425.4565
19272.116
18776.084
4728.7617
4605.1455
4685.7551
4827.5737
4725.9932
4636.9777
4706.9209
4810.1201
18658.161
5240.2185
5158.3421
5327.4667
5417.3192
19558.786
5286.4606
5204.9419
4683.2762
4608.2509
4747.5428
4830.8717
4732.9245
4645.8396
4814.1498
4207.4968
4118.5618
4174.8307
4282.0304
3707.9911
3575.7383
3601.5107
3750.3289
4180.1855
4082.226
4168.056
4286.9637
3670.6615
3523.0636
3587.4605
3747.4255
3724.731
3612.3388
3740.0016
3862.9404
3650.2945
3556.5538
3682.2046
3789.9218
4184.3931
4084.1422
4211.9418
4312.2496
4266.5772
4131.4344
4230.7853
4379.2702
5127.6521
5324.4212
5076.5184
5265.8067
5343.8411
5204.5474
5153.0298
5265.0777
4710.5882
4650.4218
4785.8833
4695.5211
4731.4483
4587.9974
4632.0149
4792.6942
18963.622
18979.989
17386.431
17307.923
20227.554
20242.073
18561.366
18599.036
18913.4
18999.857
20678.51
20678.658
19419.333
5518.8566
5408.1699
5423.0979
5519.4319
19829.58
20015.091
20008.11
18279.199
18297.451
18577.024
18661.1
20334.312
20328.266
5281.029
5203.6016
5317.8298
5418.2706
19472.365
19177.392
4900.9526
4800.4926
4776.2921
4888.5402
4725.2415
4645.1522
4734.7753
4829.8625
3749.5359
3658.4254
3699.4653
3817.2883
4225.1758
4132.0784
4192.5565
4308.0006
4238.6221
4170.1821
4183.1101
4281.6352
3767.4767
3651.2943
3643.0209
3772.599
3633.0709
3590.5904
3719.203
3776.1342
3599.4126
3604.3
3761.1141
3761.7768
4328.8317
4191.7383
4188.9056
4320.3228
4192.0368
4125.7572
4220.8504
4301.3199
694.41406
1086.8903
1068.9045
852.41494
844.58764
1067.8669
1060.905
835.47517
839.46844
692.3647
3316.0533
3203.7654
3189.5591
3338.2373
2869.3955
2702.5213
2660.1198
2847.2498
3290.2338
3144.6856
3277.4471
3116.0162
2788.4636
2594.3746
2578.4752
2776.0556
1546.7015
1553.6965
1767.8422
1767.351
1635.9594
1683.9317
1907.889
1853.2745
2410.9035
2205.0069
2137.8474
2359.7388
2049.4306
2055.5291
2289.5422
2278.7647
1514.2029
1551.7472
1758.9277
1730.5397
2255.7336
2040.6261
2008.1622
2234.2669
2256.2027
2044.5831
2285.3462
2074.7244
1760.3582
1555.9178
1776.6053
1540.2733
2728.9323
2549.8068
2531.5919
2722.6572
3060.0276
3070.4886
3236.5534
3232.3608
3229.1729
3081.6168
3109.3768
3271.127
2744.9783
2565.1185
2592.7027
2772.6422
2540.5721
2509.0357
2690.9931
2727.0993
2566.0463
2576.0927
2745.2453
2749.7154
3217.9359
3068.9152
3086.2088
3243.3341
3062.3355
3016.9899
3174.3088
3227.6716
1070.3145
1583.3914
1801.0173
1773.6969
1548.8934
1065.4168
1529.0128
1731.6898
1741.2195
1515.5605
844.84887
843.20258
2028.2448
2006.7967
2222.6062
2246.9555
2059.1968
2084.9464
2293.3611
2272.1308
1081.0412
1579.5585
1785.0527
1785.248
1556.0647
1095.9147
1630.9927
1839.5416
1893.2383
1643.2349
848.88498
856.08146
2204.546
2127.7474
2336.3694
2417.1348
2080.3755
2066.132
2277.3279
2297.949
3203.2074
3064.5462
3131.187
3286.9716
2740.9124
2567.1268
2603.2761
2790.6218
2720.5453
2628.7479
2800.6004
2893.9419
3268.0699
3122.7167
3225.801
3375.1425
690.30181
709.50785
546.27409
553.32201
581.01476
796.70821
776.24181
790.70472
810.08823
2116.823
2124.4506
475.67906
539.4283
535.72918
478.58278
2637.072
2665.0317
2521.5746
2507.2922
2704.0254
2667.1307
2511.1661
2536.0391
2211.1668
2077.8654
2030.3316
2190.8233
2035.3424
2204.1128
2203.5234
2040.2796
2697.7346
2693.9124
2542.3539
2528.6394
2693.5227
2727.0641
2578.2494
2537.8671
2038.1008
2057.3374
2214.4985
2206.5798
2057.5466
2216.6982
2268.3086
2108.2863
1820.8594
1661.918
1604.4054
1778.2691
1237.518
1277.5301
1444.248
1402.184
742.04442
1377.8771
1218.5186
1224.6453
1396.471
740.4376
1593.5344
1607.9368
1772.8112
1788.5623
625.03715
624.69754
1617.4688
1794.951
1596.7292
1780.6755
1222.1368
1237.4039
1402.9529
740.23481
1390.3271
1262.4927
1236.8206
745.46277
1402.0263
1443.3425
1665.5883
1617.8088
1796.8492
1851.2381
620.78257
624.08362
553.74885
558.50075
5396.8594
5359.7418
5297.7569
5386.1522
5117.0502
5093.4979
5198.4854
5257.1563
4651.0302
4618.2644
4665.834
4729.7596
4876.0634
4817.4498
4721.068
4814.4471
3618.2931
3741.8631
3873.523
3766.6453
3643.5734
3647.8756
3750.7854
3762.6748
4208.8179
4144.3805
4164.1723
4246.5656
4177.47
4297.6609
4380.1505
4289.2039
3627.2527
3599.7212
3717.0247
3768.8893
3635.2476
3618.2763
3747.3756
3785.3754
4257.341
4163.6801
4212.2843
4310.6483
4187.175
4112.6927
4178.2683
4274.0516
4689.7886
4590.4758
4643.0766
4761.7309
4740.6694
4687.2848
4755.5427
4811.4844
5342.5422
5236.5371
5289.1566
5392.8605
5223.6891
5092.0834
5179.385
5333.2248
5396.1688
5521.4394
5320.5754
5439.0828
5458.4268
5630.6975
5392.4759
5577.602
4825.7785
4745.9495
4934.4592
4834.0547
5024.2227
5076.1962
4934.9332
4878.1444
5453.1776
5286.3831
5352.6533
5216.5997
5338.8241
5269.4595
5343.3132
5418.0422
4744.5788
4661.7325
4736.6927
4852.9333
4755.8554
4696.9301
4774.0412
4840.7027
3695.96
3647.3981
3780.4474
3837.5648
4301.6846
4194.0046
4260.734
4379.5396
4572.9151
4497.2448
4459.3709
4373.3756
4056.6326
3920.5205
3831.6477
3967.2495
3615.4682
3596.9435
3728.4521
3764.9695
3638.7355
3611.7819
3743.0565
3782.3972
4206.0008
4155.4749
4256.0586
4311.6753
4232.7024
4137.3311
4180.4796
4301.5141
2594.2217
2666.6983
2862.7922
2777.7973
2664.8291
2726.106
2870.6968
2836.3951
3301.0894
3186.6127
3171.7207
3299.1836
3365.9531
3213.0904
3108.2374
3264.2711
1107.1873
865.67203
857.57039
1084.4233
1678.2006
1728.4564
1961.8813
1899.712
2253.7031
2445.4998
2378.9467
2181.2994
1817.4585
1590.205
1590.5466
1803.0161
2084.2006
2119.2258
2352.656
2302.1077
1081.8077
1581.2501
1594.6185
1798.6771
1813.5416
1074.3014
1553.8209
1567.8403
1789.3267
1776.1666
2292.6482
2075.1268
2053.0107
2273.2845
2100.9308
2081.0707
2296.0205
2316.2963
843.74903
847.67173
698.36408
696.85342
3251.3897
3107.1971
3100.5718
3265.4784
2766.6664
2590.1208
2571.2903
2760.1351
3242.5445
3103.5423
3118.0896
3273.9884
2773.0361
2593.0529
2610.8034
2791.2657
1085.1288
1080.6563
854.23082
852.61401
1090.6744
855.70129
862.23143
1102.892
693.44795
711.68659
2585.612
2562.0877
2766.3824
2749.7531
2611.4689
2612.8885
2785.6904
2789.3806
3126.4517
3119.5198
3259.5375
3277.3601
3240.0878
3090.3637
3099.9815
3258.7339
1560.0018
1572.8911
1778.1884
1780.2864
1594.7744
1628.8427
1844.4958
1817.202
2327.335
2126.0085
2099.032
2315.3313
2270.8967
2057.1242
2066.7257
2290.1234
1593.7903
1591.8858
1811.1039
1813.817
2103.9886
2101.0937
2321.3005
2332.2715
2455.6271
2222.5128
2271.1815
2501.616
1900.3326
1663.7895
1694.8248
1950.0377
2816.428
2802.998
3005.1838
2993.8918
2644.1263
2620.4603
2797.5154
2831.1026
3284.5668
3130.417
3174.8769
3331.6591
3333.2055
3375.818
3536.9403
3477.9282
546.35312
552.73343
26113.037
26237.997
26392.17
26462.853
27713.608
27726.233
27439.292
27503.519
17296.526
16313.644
16960.2
18054.053
29418.612
29289.427
35339.486
35558.455
27529.362
27173.886
33084.05
33542.337
26422.083
26426.781
26718.285
26670.285
16620.744
16242.157
17279.141
17710.479
29046.244
28736.223
34794.926
35209.476
27807.347
27863.908
33856.213
33887.031
14542.667
14259.702
15247.041
15575.957
14850.357
14430.142
15370.533
15902.566
17213.879
27639.414
27244.176
33121.774
33639.319
16217.364
16905.872
17996.451
29427.096
29205.986
35263.313
35579.399
17397.364
16357.687
15264.015
14312.746
14831.598
15862.06
15364.604
14379.644
14865.428
13501.327
12560.007
12781.138
13813.478
11631.011
10691.45
10774.168
11770.748
13290.345
12311.365
12529.821
13533.327
11353.675
10399.438
10583.982
11550.876
11079.659
10615.639
11542.203
12001.552
10853.627
10624.551
11540.452
11834.294
13379.421
12447.965
12816.791
13822.064
12932.546
12469.21
13419.986
13890.531
16680.955
18048.817
15815.231
17025.86
17686.016
17514.927
16541.482
16660.639
14688.939
14667.522
15672.09
15603.835
15045.406
14162.61
14985.266
16034.676
28363.391
28235.648
28910.556
29062.722
27139.627
27334.501
27404.705
27552.938
28140.811
28065.238
27871.415
27852.457
17882.972
29355.795
28730.098
34801.726
35531.759
17076
16808.593
18214.798
29931.193
30055.009
36205.924
36143.851
26938.517
26945.246
27229.743
27188.335
27711.643
27615.792
27410.66
27389.802
17635.106
16554.796
16807.831
17901.372
29055.25
29218.085
35362.636
35275.24
28610.225
28660.272
34704.316
34727.654
15772.027
14734.088
14896.936
15979.386
15521.855
14498.148
14731.305
15761.478
11715.323
10872.366
11115.376
12101.21
13074.522
12529.204
13348.442
14060.118
13737.937
12791.412
12749.63
13718.936
11852.875
10894.873
10819.975
11790.086
10781.935
10585.179
11547.522
11750.076
10728.536
10715.417
11696.584
11748.049
13710.68
12689.115
12777.243
13831.822
12722.365
12509.516
13500.124
13721.91
698.73294
967.86539
934.1425
1478.9432
1195.0475
1184.2102
1461.4356
1390.2846
1129.4938
1130.2803
1386.8045
1387.7663
1121.5288
1119.8636
1372.3564
1379.1939
1121.8184
1119.3131
1363.549
922.30787
936.06686
695.80217
10013.689
9109.4475
9107.9609
10120.978
8183.8649
7208.838
7057.5592
8094.6594
9931.7898
8929.0228
9844.3236
8845.229
7922.9069
6891.861
6825.1964
7847.9769
2243.3801
2269.1245
3712.5737
3684.045
2432.9779
2631.5624
4140.4272
3897.5168
6219.9232
5185.4586
4944.4927
6018.2333
4731.1463
4770.7073
5850.6462
5794.7778
2158.4854
2229.3567
3680.9011
3561.8301
5773.0104
4721.8062
4604.893
5659.9403
5703.2158
4663.6106
5867.2864
4784.1925
3630.7198
2198.5253
3696.2888
2229.9574
7782.7285
6783.5727
6686.6755
7708.1292
8709.945
8761.6363
9740.669
9718.2191
9632.7478
8657.9348
8858.6977
9824.2284
7689.7449
6698.6618
6888.009
7890.7322
6708.2151
6581.305
7560.5742
7705.8732
6784.1907
6874.2144
7859.2394
7805.1998
9756.6738
8808.8968
8795.4152
9787.6063
8666.9966
8508.2882
9458.0001
9628.8634
1401.1982
1139.3103
1139.439
1391.9753
2317.3126
3812.9803
3643.0897
2236.4896
1370.9863
1112.6605
1113.4741
1359.8644
2146.6711
3562.5374
3579.6403
2176.6944
932.87226
921.96978
4641.768
4575.3276
5596.6997
5697.9579
4701.4199
4850.9509
5884.0042
5761.6102
1408.6496
1147.4881
1144.9045
1395.9356
2265.8792
3736.4585
3700.8331
2264.4334
1453.7602
1170.5771
1179.8416
1450.7412
2335.4458
3804.5446
4012.1636
2453.2201
941.47632
976.24172
5142.4081
4843.1691
5880.7808
6248.2337
4789.7707
4785.8584
5831.4029
5872.6061
9707.5974
8760.8569
8906.5274
9885.275
7810.6871
6829.8594
6907.4503
7924.3656
7284.6718
6869.554
7837.6931
8280.8844
9697.5023
8769.2928
9228.953
10160.408
694.91235
711.90535
690.55184
687.54315
686.81499
702.86518
487.38034
480.42211
480.68953
488.44371
498.32697
545.73235
582.14793
582.48244
545.77405
720.09796
714.75793
754.18961
764.29961
1791.3905
1790.1496
497.92703
717.52107
5004.1983
4903.3614
4953.3981
4834.9477
4844.5625
4943.0425
475.46607
535.01764
538.71145
592.80219
558.33159
560.42686
595.69063
561.14779
559.6888
594.55468
595.60326
5174.2518
4963.0196
4960.6848
5202.3358
5198.431
5243.3656
5381.4054
5296.3687
4554.6617
4562.5878
4702.2774
4729.8903
4715.0498
4677.298
4811.4445
4731.0479
5600.3542
5519.6233
5493.7786
5402.3498
5174.1336
5174.58
5228.6275
5250.9666
4657.4483
4664.4112
4713.9268
4728.1656
4801.3789
4896.1905
4988.6389
4902.5527
4183.0724
4164.9726
4240.5838
4296.7564
3783.1496
3710.6921
3726.5814
3836.7997
3604.1994
3651.3095
3772.4176
3753.7842
4254.9485
4178.6192
4165.8663
4280.6166
3661.9663
3722.5745
3869.7076
3812.8945
4236.7254
4309.6322
4425.0921
4355.1569
4249.224
4176.1391
4162.8834
4254.0175
3763.4278
3627.9172
3633.7259
3768.426
5388.6377
5330.1342
5393.5227
5490.8126
5354.9409
5306.8662
5324.8245
5402.54
4825.5703
4764.6446
4763.2946
4841.3061
4840.4088
4763.3038
4798.5285
4901.0335
5358.5748
5290.9939
5368.334
5450.1358
5261.627
5297.8742
5338.8998
5324.1832
4763.0477
4801.6151
4837.4989
4819.2355
4793.6834
4733.6925
4804.599
4881.804
3686.9885
3682.9799
3815.4581
3832.7117
3694.8402
3666.013
3798.9258
3827.5987
4317.6046
4218.3219
4243.0035
4333.813
4247.8644
4230.9272
4325.2097
4360.5979
3706.2183
3663.5126
3793.4691
3842.0692
4298.3613
4203.666
4255.1144
4358.9356
4385.6145
4327.7519
4275.9157
4357.5806
3911.7912
3789.4983
3758.1128
3883.2883
3365.8942
3265.1015
3233.1689
3369.2259
2925.651
2785.0298
2732.5079
2902.0603
2611.3864
2633.7698
2815.1806
2782.6501
3293.3816
3155.4667
3103.1146
3252.9972
1101.8276
1612.6481
1637.5169
1848.6281
1833.2007
1118.0076
1711.785
1784.5792
2010.4687
1943.2379
2231.0239
2307.791
2498.5105
2438.0587
2341.9802
2132.8699
2111.8611
2324.4557
874.47107
867.70207
2335.0163
2118.9979
2087.3943
2305.415
1083.5118
1822.7182
1592.3514
1578.1299
1803.2337
1089.4358
1603.4144
1615.5188
1826.3266
1836.058
2324.6931
2113.3361
2124.3238
2338.0132
849.48942
852.59417
2831.0516
2653.1127
2604.1238
2787.0813
2629.1504
2618.5866
2804.248
2791.0305
3128.2322
3181.8213
3341.6216
3293.2448
3120.0913
3271.753
3282.4395
3128.1401
700.97207
698.42393
2658.1007
2671.7701
2838.0208
2838.1766
3167.7236
3307.5627
3327.6311
3179.2414
2806.4954
2624.0162
2630.696
2822.1902
3169.7814
3163.7116
3318.2717
3326.4838
1091.0362
1591.6998
1605.3307
1821.8503
1813.8414
1094.6826
1623.9492
1658.2912
1880.7085
1852.4114
2140.0345
2170.6587
2379.0101
2358.3835
860.07717
858.76004
2100.571
2322.8427
2331.2208
2111.1167
1115.041
1717.7471
1706.8083
1970.1885
1926.1896
1099.9158
1624.9511
1644.3564
1854.4012
1851.5932
859.47587
866.06293
2135.4468
2345.2052
2366.7874
2147.2792
2228.8641
2447.2377
2496.3174
2284.6517
2803.7973
2761.8288
2940.6521
2963.4567
2675.4031
2642.4228
2816.4853
2853.9356
3299.4845
3148.6147
3194.3935
3346.1418
3287.8094
3285.3403
3429.2132
3418.7545
694.86285
711.21521
546.41179
552.12697
18181.51
17164.818
16753.965
17799.687
16939.986
16091.82
16767.552
17780.01
15269.527
14433.064
14825.247
15792.91
16179.45
15188.083
14751.064
15747.351
10872.17
11253.266
12247.176
11831.567
11038.074
11046.169
11914.359
11979.551
13599.826
12753.939
12915.549
13868.432
12789.403
13222.49
14207.748
13767.026
10968.349
10853.865
11810.1
11918.212
10969.55
10936.779
11887.108
11988.156
13777.848
12823.561
13002.138
14030.98
13712.992
12752.723
12862.164
13823.33
14780.267
14660.253
15622.974
15751.89
15051.101
14718.641
15673.945
16084.452
17642.343
16636.443
17120.419
18197.295
16730.098
16592.348
17606.954
17751.584
17569.466
18142.619
16581.083
17055.956
17972.365
18890.878
16997.352
17803.466
15633.095
14683.701
16012.762
14973.566
15717.198
16758.237
16058.735
15118.121
17703.328
17534.269
16623.944
16501.248
17155.079
16478.288
17482.461
18226.183
14587.064
14529.886
15511.345
15595.406
15085.147
14559.609
15516.543
16117.429
11013.138
10952.231
11887.06
11982.671
13748.163
12809.794
12956.913
13958.676
14696.582
13666.183
14191.932
13260.755
12657.076
11649.438
11441.936
12346.944
10746.774
10697.48
11650.265
11688.323
11048.4
10823.7
11746.734
12047.037
13044.384
12669.359
13613.86
14062.511
13564.021
12595.577
12632.15
13603.118
6922.9511
7138.7287
8202.4388
7943.495
7110.3349
7350.5225
8325.9966
8137.2737
10165.894
9254.0367
9117.6398
10087.256
10252.993
9229.7457
8928.0198
9905.9553
1218.6633
1230.0404
1513.4472
1496.5381
985.32198
951.0351
1155.1976
1418.6603
1420.4788
1155.6534
2542.0143
2791.0581
4344.1974
4008.1059
5357.5421
6374.5744
6080.7466
5033.7665
3842.5255
2361.8112
2342.963
3788.3796
4832.5727
4941.0275
6058.4833
5890.8431
1417.1518
1143.1618
1141.3767
1402.062
2327.7895
2313.4472
3742.1084
3842.4609
1141.5799
1143.4792
1397.1996
1392.4711
2254.3651
2325.3871
3780.0545
3687.4368
5901.9373
4835.3058
4742.2287
5817.4375
4919.8656
4775.7354
5831.1482
6000.5871
936.62389
949.68578
705.61613
704.0898
9976.4081
8977.2564
8933.1196
9954.838
7973.2106
6941.9241
6865.53
7909.9236
9891.2308
8892.04
9046.2517
10016.245
7886.8309
6859.9827
7038.3107
8058.4039
1436.2509
1165.0572
1165.2972
1427.5346
1405.2754
1138.1181
1138.9333
1393.9723
948.20358
937.08194
1166.6326
1166.358
1424.7005
1426.4063
951.44355
984.39581
1201.1069
1190.7537
1478.5506
1488.0383
702.74678
719.32743
6875.3551
6780.8655
7882.7722
7797.7857
6972.8246
7004.7732
8004.7139
8018.4566
9035.3204
8958.5456
9900.2364
10048.599
9746.3167
8773.2253
8849.2007
9806.4041
2278.0235
2248.3638
3687.2031
3722.6364
2350.0634
2442.1133
3937.4136
3797.7274
6006.5633
4972.3529
4853.0699
5929.4248
5767.1078
4720.4479
4785.745
5851.9119
2362.8497
2357.2635
3848.177
3810.6383
4882.0776
4936.4796
6023.2597
5967.9885
6409.8293
5232.8656
5420.7791
6560.3922
4064.1435
2514.7288
2621.9411
4264.967
7621.8318
7521.1024
8599.7471
8636.8299
7019.5027
7059.2395
8071.4565
8054.5183
10010.878
9046.6453
9053.5485
10041.726
9596.7506
9630.0534
10648.906
10529.451
694.84836
691.72038
690.07462
705.16083
40493.836
40833.612
57412.255
57699.925
59330.51
59271.75
42646.789
42729.395
24064.274
23705.251
24067.311
24463.365
22394.109
22488.272
22814.543
22726.407
24420.978
24351.437
24202.172
24323.564
26028.598
25681.255
25794.303
26188.415
105194.02
104848.98
109578.59
109643.37
102536.55
101401.23
107257.4
108257.97
41205.801
41170.487
58021.157
58021.771
24041.761
23722.934
23639.367
23967.947
22888.559
23004.578
22950.474
22895.479
24665.865
24274.744
24261.111
24696.332
25500.862
25104.793
25430.045
25839.464
104376.02
103237
108412.72
109132.33
102120.39
102443.42
107784.59
107720.25
21550.108
21251.582
21157.131
21464.736
20724.274
20723.864
20580.349
20612.116
21688.702
21829.889
21812.021
21687.742
22339.229
22461.823
22788.387
22663.056
21900.992
21915.185
21780.727
21819.893
20283.752
20432.127
20727.429
20574.267
21280.391
21429.642
21746.659
21586.949
22946.806
23120.584
23159.339
23024.979
24152.746
23788.815
24180.804
24574.884
102297.17
101091.27
106738.09
107765.32
22442.815
22546.826
22934.888
22836.807
24421.615
24181.095
24081.897
24336.484
25960.317
25572.578
25814.974
26218.613
104779.64
104194.67
108916.46
109217.16
24638.675
24262.24
24711.689
25100.987
22875.081
22980.287
23435.656
23335.508
21314.253
21465.461
21847.964
21689.8
20263.357
20384.861
20723.121
20619.543
21948.34
21740.245
21617.251
21832.342
22780.515
22931.563
23166.582
23027.052
21677.367
21824.969
22256.242
22127.275
21012.083
20654.628
20556.336
20944.902
21303.421
21752.351
21648.23
21240.595
19309.435
19491.649
19759.524
19566.914
18388.343
18537.213
18773.725
18622.636
19454.852
19542.094
19451.851
19413.934
20585.454
20721.848
20682.866
20578.9
17443.711
17606.474
17835.339
17652.024
16527.912
16722.633
16963.082
16759.766
17248
17393.58
17229.593
17128.481
18276.117
18390.069
18288.614
18202.184
19518.672
19691.353
19692.039
19548.184
18515.856
18618.515
18604.325
18528.562
19232.388
18947.376
18881.25
19166.086
19978.733
20098.981
20402.041
20265.156
17427.589
17564.553
17531.152
17438.907
16496.536
16607.279
16442.501
16406.599
17089.468
16823.75
16694.244
16961.451
17738.544
17820.889
18114.32
18011.148
17204.085
17337.822
17148.551
17040.476
16751.64
16544.657
16386.899
16598.085
17360.792
17471.841
17708.648
17589.59
18143.892
18260.687
18082.767
17941.349
17525.393
17310.557
17155.778
17368.026
16876.769
16614.986
16402.689
16638.658
17249.281
17419.151
17681.249
17497.215
18196.402
18309.534
18544.262
18415.098
19229.061
19358.185
19641.34
19515.638
18235.754
18313.738
18591.683
18490.531
19640.389
19397.232
19314.268
19554.641
20435.978
20556.494
20805.493
20659.844
19061.767
19324.813
19253.34
18988.459
18400.242
18467.89
18739.693
18675.536
19449.64
19550.616
19870.763
19772.134
20418.915
20504.567
20160.766
20062.745
22174.877
21808.257
22481.997
22890.649
25554.509
25278.02
24952.705
25361.782
20719.65
20741.485
21348.608
21301.301
23627.764
24056.97
23872.353
23560.97
24998.142
24671.748
24547.586
24956.09
24254.481
23904.713
23944.678
24350.289
22607.487
22726.15
22719.096
22653.737
23217.564
23392.898
23263.807
23165.822
20889.285
21152.081
21004.527
20810.664
20700.922
20712.56
20538.803
20567.085
22079.068
22244.702
22030.71
21926.745
21519.23
21678.215
21686.796
21539.853
21316.767
21880.047
21696.555
21241.763
18845.657
18932.178
19435.303
19351.406
19724.26
19779.538
20368.164
20272.688
22739.154
22958.065
22461.151
22341.277
60697.994
60427.395
61553.539
61851.386
42203.971
42757.22
59229.764
59537.592
60219.626
59922.633
43515.615
43325.323
25531.594
25189.341
25783.545
26162.612
105915.12
104917.58
110111.66
110670
24738.089
24909.388
24770.461
24670.966
23742.715
23877.535
24415.878
24304.637
26712.437
26350.209
26212.844
26639.275
106136.79
106188.29
110611.35
110374.43
42005.438
41952.315
58622.826
58646.882
59587.506
59398.779
42720.492
42552.908
25427.38
25065.251
25025.846
25461.759
23595.403
23721.525
23662.29
23610.887
24002.801
24086.135
23998.484
23943.678
25911.348
25507.658
25385.222
25822.716
104939.39
104593
109455.99
109797.26
103648.24
103831.87
108573.93
108663.9
22524.12
22701.112
23189.657
23022.442
21375.58
21502.839
21919.228
21821.977
22085.224
22306.633
22164.112
21997.956
23406.221
23575.606
23385.003
23270.545
22333.427
22488.18
22418.335
22329.465
21139.61
21226.468
21134.505
21106.615
21543.07
21561.377
21466.396
21474.695
22668.934
22798.793
22771.078
22653.077
16528.944
16702.89
17071.991
16887.128
15878.747
16096.168
16438.67
16214.679
17179.455
17910.346
17662.778
17051.381
18584.5
18790.858
18111.702
17992.695
19106.291
19752.504
19589.347
19050.406
17253.084
17372.265
17773.255
17645.289
18020.56
18100.472
18565.597
18470.1
20614.746
20793.811
20202.292
20110.572
19598.507
19799.085
19760.985
19587.313
18705.602
18862.759
18797.346
18663.85
18782.059
19113.759
18952.316
18682.39
19935.358
20111.599
19807.697
19689.33
17760.807
17955.44
17891.077
17714.204
17058.345
17148.8
16910.627
16856.271
16952.29
17292.833
17074.46
16770.662
17970.083
18172.935
17828.062
17672.877
17110.996
17025.649
16894.246
16979.507
16726.595
16779.047
16633.064
16607.944
17662.582
17762.005
17708.975
17623.045
17936.758
18033.229
18108.631
18004.533
17444.78
17464.897
17340.965
17324.567
17191.14
16947.524
16784.526
17059.85
17859.224
17933.044
18222.724
18122.402
18458.509
18558.849
18507.508
18388.712
20207.689
20323.42
20644.527
20552.838
19042.92
19068.97
19366.165
19325.785
19632.407
19748.391
19670.467
19563.136
20895.925
21010.013
20850.286
20736.402
19193.477
19133.537
19075.66
19145.78
18794.23
18839.955
18780.845
18756.396
19930.808
20025.015
19960.776
19894.858
20239.188
20327.893
20372.549
20272.846
1057.9476
1019.2959
1038.5108
1002.3583
1315.5342
1285.4409
1221.1723
1225.4409
1936.3678
1860.0915
1754.3003
1734.1148
1729.4399
1209.6506
1208.0579
1714.1791
1730.0865
1217.143
1203.0774
1692.7351
984.77396
1000.4116
1002.8506
1021.5347
15280.454
15532.743
15865.417
15584.068
14703.006
14985.539
15294.232
14998.803
15411.059
16233.024
15996.791
15273.39
16801.88
17074.407
16288.453
16132.824
14112.714
14435.217
14707.721
14397.421
13565.166
13943.457
14098.47
13814.625
13679.262
14497.266
14347.5
13580.721
15148.239
15409.564
14570.895
14404.381
16123.166
16394.134
16284.817
16053.291
15347.923
15559.61
15428.666
15264.822
16195.592
16442.923
16109.694
15907.906
15235.193
15548.216
15369.745
15083.56
14481.194
14736.081
14573.782
14385.9
13633.463
13853.386
13707.636
13547.159
13492.27
13649.665
13565.515
13387.379
14461.216
14635.668
14400.7
14222.406
4466.8717
4416.6169
6215.2668
6268.4849
4484.3753
6320.5058
4702.7341
6673.718
10076.156
10191.856
9953.5384
9993.3516
9910.8983
9948.4419
10046.702
10029.005
4929.9382
6989.1237
4846.6746
6683.7276
6024.6244
8028.6636
7530.3564
5554.2669
10989.649
11498.376
11256.388
10848.707
10247.014
10745.239
10804.142
10232.288
13203.563
13346.709
13073.221
13136.862
12321.838
12295.588
11928.222
12125.373
11301.965
11858.115
12166.69
11527.653
12635.858
13381.497
13416.935
12654.513
11112.178
11062.505
11332.159
11309.482
11548.411
11249.371
11104.305
11375.973
12525.956
12751.695
12766.878
12569.718
12439.53
12505.057
12556.149
12444.206
5738.0011
4193.3536
5755.2035
4112.5152
6025.7381
4647.7549
6436.1698
4363.3851
9696.2288
10098.287
10166.285
9805.4646
9489.0177
9355.8268
9552.3213
9716.7848
12328.392
12598.101
12550.165
12369.685
11446.088
11267.584
10937.353
11178.878
10898.511
10612.286
10880.885
11162.301
12341.647
12033.741
12132.31
12401.764
11803.662
12024.538
12003.786
11810.701
10969.113
10824.346
10540.323
10726.331
12742.293
12374.614
12345.638
12661.231
11396.923
11073.421
11278.78
11589.57
9417.795
9756.902
9765.4308
9478.4762
4294.7396
6040.7569
4271.4258
5826.4441
9918.9696
9779.8632
10171.738
10225.489
6272.4499
4416.8908
6099.5305
4513.213
14132.212
14392.214
14423.558
14259.536
13389.56
13596.439
13470.037
13377.503
13534.782
13260.231
13248.346
13480.406
14246.952
14351.256
14578.98
14434.131
15516.7
15360.33
15263.335
15376.11
14991.25
15177.28
15325.733
15177.789
15866.295
16029.287
16243.575
16086.398
16269.78
16389.645
16471.999
16315.347
15693.72
15862.43
15800.939
15660.037
14788.36
14931.861
14831.436
14738.838
15349.22
15213.782
15064.651
15176.118
15931.673
16094.982
16204.542
16028.311
13873.56
14009.481
13869.133
13775.781
12870.027
13060.455
12981.126
12830.218
13736.594
13400.984
13296.52
13549.9
14168.132
14320.137
14562.219
14342.112
13510.739
13155.117
13078.495
13383.745
12835.923
13116.162
13011.768
12768.69
13839.05
14032.399
13789.592
13650.538
13953.765
14111.661
14453.172
14243.886
13520.387
13588.538
13513.331
13431.847
13534.034
13739.324
13597.02
13463.135
14251.167
14540.117
14480.402
14264.964
14414.209
14587.504
14503.77
14326.682
15702.595
15978.832
16099.297
15907.914
14990.67
15227.067
15273.761
15085.675
15385.65
15496.809
15336.546
15236.309
16250.329
16419.73
16304.488
16146.404
15288.016
14982.361
14840.27
15114.297
14690.833
14859.383
14661.561
14546.697
15543.709
15725.949
15570.637
15444.689
15734.932
15876.561
16175.136
15998.915
1774.5061
1238.6597
1228.5814
1739.9412
4879.6051
6772.3857
6476.1286
4698.7165
10528.09
10565.39
10102.388
10219.088
9874.983
9682.5542
9659.0591
9779.1117
4369.2051
6045.4764
5916.8787
4276.0556
1701.7652
1199.3162
1201.5307
1691.0507
4177.4186
4216.2966
5920.4081
5760.6602
9295.5704
9663.6209
9635.6744
9395.7145
9540.3309
9363.288
9656.2304
9784.9084
5895.2141
4290.2715
5886.4432
4309.693
1002.0992
985.55355
10997.66
10704.196
10954.391
11229.872
10946.209
10738.368
10490.275
10699.748
11777.028
12056.048
12067.921
11801.482
12408.429
12065.249
12101.724
12406.335
10943.319
11053.681
11329.677
11205.569
11746.807
11619.819
11327.779
11516.298
12616.978
12832.65
12739.482
12578.083
12380.344
12470.015
12512.718
12419.491
1770.2622
1247.2045
1241.057
1754.0116
4720.354
6451.9982
6196.6621
4520.6595
10072.402
10063.788
9880.0482
9984.6945
9883.3746
9655.242
9936.4365
10049.078
6135.6919
4531.5993
6129.2807
4477.5806
1829.8677
1269.0814
1281.3379
1843.1781
4613.9887
4517.6086
6234.1926
6208.9597
9794.3413
10048.812
10053.346
9826.4811
10635.229
10525.805
11051.004
11028.348
7120.0308
4861.892
6643.1101
5195.6562
1012.5408
1039.6399
12221.423
11847.69
12044.322
12344.811
11279.676
11125.879
10902.869
11069.735
12149.019
12351.756
12296.53