/*--------------------------------*- C++ -*----------------------------------*\
  =========                 |
  \\      /  F ield         | OpenFOAM: The Open Source CFD Toolbox
   \\    /   O peration     | Website:  https://openfoam.org
    \\  /    A nd           | Version:  7
     \\/     M anipulation  |
\*---------------------------------------------------------------------------*/
FoamFile
{
    version     2.0;
    format      ascii;
    class       volScalarField;
    location    "2000";
    object      p;
}
// * * * * * * * * * * * * * * * * * * * * * * * * * * * * * * * * * * * * * //

dimensions      [0 2 -2 0 0 0 0];

internalField   nonuniform List<scalar> 
34387
(
-1.3016451e+183
-1.297431e+183
-1.2468199e+183
-1.2514264e+183
-1.2466368e+183
-1.2885685e+183
-1.2933486e+183
-1.2379145e+183
-1.2425891e+183
-1.3456516e+183
-1.3466447e+183
-1.3245995e+183
-1.3268134e+183
-1.3015269e+183
-1.3038689e+183
-1.3210053e+183
-1.3439235e+183
-1.3449181e+183
-1.3227416e+183
-1.2979739e+183
-1.2995115e+183
-1.1979405e+183
-1.2752921e+183
-1.2484312e+183
-1.2505017e+183
-1.2770199e+183
-1.2792311e+183
-1.2528327e+183
-1.2556178e+183
-1.2816027e+183
-1.2025633e+183
-1.1424806e+183
-1.1473806e+183
-1.0799271e+183
-1.2788111e+183
-1.2840253e+183
-1.228545e+183
-1.2334992e+183
-1.2279024e+183
-1.2226976e+183
-1.2729079e+183
-1.2676018e+183
-1.3121016e+183
-1.288877e+183
-1.2910572e+183
-1.3143313e+183
-1.3192938e+183
-1.3166413e+183
-1.2959754e+183
-1.2933187e+183
-1.266505e+183
-1.2402398e+183
-1.2419948e+183
-1.1888362e+183
-1.2685465e+183
-1.1933507e+183
-1.2709218e+183
-1.2442577e+183
-1.2468508e+183
-1.2734469e+183
-1.1329629e+183
-1.1376991e+183
-1.3498743e+183
-1.3503214e+183
-1.3358959e+183
-1.3450881e+183
-1.344698e+183
-1.350791e+183
-1.3369275e+183
-1.3462593e+183
-1.3455714e+183
-1.3269721e+183
-1.3258538e+183
-1.3468466e+183
-1.3380863e+183
-1.3474578e+183
-1.3393127e+183
-1.3280677e+183
-1.3293529e+183
-1.3165914e+183
-1.3069946e+183
-1.3177691e+183
-1.3081882e+183
-1.3108251e+183
-1.3094764e+183
-1.3188644e+183
-1.3201675e+183
-1.3325524e+183
-1.3332275e+183
-1.3230918e+183
-1.3223805e+183
-1.3545148e+183
-1.3480762e+183
-1.3485804e+183
-1.3429435e+183
-1.3341102e+183
-1.3434228e+183
-1.3490116e+183
-1.3495269e+183
-1.3351177e+183
-1.3443509e+183
-1.3438586e+183
-1.3239731e+183
-1.3249646e+183
-1.3038376e+183
-1.3131866e+183
-1.3138956e+183
-1.304438e+183
-1.3060819e+183
-1.3050139e+183
-1.3146393e+183
-1.3156061e+183
-1.1802659e+183
-1.2190895e+183
-1.2207108e+183
-1.18112e+183
-1.294423e+183
-1.283835e+183
-1.2949055e+183
-1.2841612e+183
-1.2580951e+183
-1.2580022e+183
-1.2725173e+183
-1.2728242e+183
-1.2591661e+183
-1.2736189e+183
-1.2750695e+183
-1.2608797e+183
-1.2846149e+183
-1.2953143e+183
-1.2963866e+183
-1.2858304e+183
-1.288005e+183
-1.2867563e+183
-1.2973391e+183
-1.2985456e+183
-1.2619166e+183
-1.2630394e+183
-1.2231049e+183
-1.2772022e+183
-1.2759295e+183
-1.2646141e+183
-1.2664886e+183
-1.2261402e+183
-1.2802102e+183
-1.278614e+183
-1.2998413e+183
-1.2892628e+183
-1.2908399e+183
-1.3012904e+183
-1.1832961e+183
-1.1870808e+183
-1.1307887e+183
-1.1356005e+183
-1.3716436e+183
-1.0745721e+183
-1.069992e+183
-1.3019739e+183
-1.3047033e+183
-1.2791652e+183
-1.2815758e+183
-1.3071768e+183
-1.3101285e+183
-1.2841145e+183
-1.2868983e+183
-1.2570399e+183
-1.2311195e+183
-1.2331604e+183
-1.2593699e+183
-1.1795577e+183
-1.2619603e+183
-1.2356105e+183
-1.2384821e+183
-1.2646012e+183
-1.1842198e+183
-1.123809e+183
-1.1283899e+183
-1.3252503e+183
-1.3242816e+183
-1.314156e+183
-1.3149785e+183
-1.296005e+183
-1.2952523e+183
-1.3047734e+183
-1.3055485e+183
-1.2982066e+183
-1.2969622e+183
-1.3064762e+183
-1.3077096e+183
-1.3171608e+183
-1.3158488e+183
-1.3262466e+183
-1.3276181e+183
-1.3310594e+183
-1.3319892e+183
-1.3209362e+183
-1.3219824e+183
-1.3299265e+183
-1.3287316e+183
-1.3196761e+183
-1.318299e+183
-1.3017388e+183
-1.3114796e+183
-1.3126918e+183
-1.3030961e+183
-1.3004102e+183
-1.2991104e+183
-1.3087508e+183
-1.31013e+183
-1.2757888e+183
-1.2751446e+183
-1.2856171e+183
-1.2863295e+183
-1.2108908e+183
-1.2501645e+183
-1.2642195e+183
-1.2500263e+183
-1.2646568e+183
-1.2524452e+183
-1.2508745e+183
-1.2653331e+183
-1.2665737e+183
-1.2121727e+183
-1.1716072e+183
-1.172334e+183
-1.287171e+183
-1.2763615e+183
-1.2884182e+183
-1.2775819e+183
-1.2143989e+183
-1.2171921e+183
-1.1744e+183
-1.1780799e+183
-1.2800443e+183
-1.2787153e+183
-1.2894145e+183
-1.2906627e+183
-1.254538e+183
-1.2534968e+183
-1.2676422e+183
-1.2689965e+183
-1.2558801e+183
-1.2704699e+183
-1.2721992e+183
-1.2575054e+183
-1.2831892e+183
-1.2813778e+183
-1.2919703e+183
-1.2934903e+183
-1.1214733e+183
-1.1260246e+183
-1.3490789e+183
-1.3492675e+183
-1.3520294e+183
-1.352232e+183
-1.3525136e+183
-1.3527732e+183
-1.3495121e+183
-1.3497637e+183
-1.3402464e+183
-1.3356324e+183
-1.3360671e+183
-1.3406334e+183
-1.3455219e+183
-1.345074e+183
-1.3500153e+183
-1.3502894e+183
-1.353e+183
-1.3532577e+183
-1.3373456e+183
-1.3365748e+183
-1.3411257e+183
-1.3418557e+183
-1.3466996e+183
-1.346052e+183
-1.3288638e+183
-1.3281286e+183
-1.3323446e+183
-1.3331071e+183
-1.3275639e+183
-1.3270601e+183
-1.3313351e+183
-1.3317991e+183
-1.3472967e+183
-1.3425047e+183
-1.3380219e+183
-1.3386641e+183
-1.3431237e+183
-1.3479307e+183
-1.3436806e+183
-1.3392367e+183
-1.3337838e+183
-1.32948e+183
-1.3301002e+183
-1.33441e+183
-1.3349925e+183
-1.3307013e+183
-1.3312567e+183
-1.3230008e+183
-1.3188684e+183
-1.3194478e+183
-1.3235301e+183
-1.3150356e+183
-1.311057e+183
-1.3116264e+183
-1.3155996e+183
-1.3241275e+183
-1.3200609e+183
-1.3207416e+183
-1.3248162e+183
-1.3162144e+183
-1.3122542e+183
-1.3131055e+183
-1.316975e+183
-1.3156988e+183
-1.3150361e+183
-1.3188468e+183
-1.3194523e+183
-1.3143988e+183
-1.3138011e+183
-1.3175753e+183
-1.3182013e+183
-1.3253789e+183
-1.3212649e+183
-1.3219055e+183
-1.3259883e+183
-1.3231497e+183
-1.3225451e+183
-1.3266205e+183
-1.3272178e+183
-1.337073e+183
-1.3373319e+183
-1.3324581e+183
-1.3326827e+183
-1.3380976e+183
-1.3375986e+183
-1.3329346e+183
-1.3334868e+183
-1.3247859e+183
-1.3242234e+183
-1.3291407e+183
-1.3285836e+183
-1.3239472e+183
-1.3238068e+183
-1.3281348e+183
-1.3283163e+183
-1.354138e+183
-1.3543788e+183
-1.3568426e+183
-1.3565992e+183
-1.3472577e+183
-1.347483e+183
-1.3501799e+183
-1.3504177e+183
-1.3507157e+183
-1.3509615e+183
-1.3477592e+183
-1.3480066e+183
-1.3433255e+183
-1.338553e+183
-1.3344753e+183
-1.3340027e+183
-1.339021e+183
-1.3438324e+183
-1.3482094e+183
-1.3484154e+183
-1.3511437e+183
-1.3513582e+183
-1.3516439e+183
-1.3518771e+183
-1.3486753e+183
-1.3489085e+183
-1.3394705e+183
-1.3349028e+183
-1.3353276e+183
-1.3399163e+183
-1.3447023e+183
-1.344247e+183
-1.3296946e+183
-1.3253207e+183
-1.3257311e+183
-1.3301347e+183
-1.3305393e+183
-1.3261102e+183
-1.3266465e+183
-1.3309966e+183
-1.311841e+183
-1.3080641e+183
-1.3082157e+183
-1.3119466e+183
-1.3156753e+183
-1.3155679e+183
-1.3196923e+183
-1.319798e+183
-1.3200951e+183
-1.315965e+183
-1.3164785e+183
-1.320645e+183
-1.3122184e+183
-1.3084647e+183
-1.3089206e+183
-1.3127067e+183
-1.310485e+183
-1.3098635e+183
-1.3137985e+183
-1.3144396e+183
-1.309472e+183
-1.3091946e+183
-1.3130999e+183
-1.3134303e+183
-1.3211546e+183
-1.3169368e+183
-1.3173002e+183
-1.3215283e+183
-1.3182751e+183
-1.3176275e+183
-1.3218703e+183
-1.3224734e+183
-1.1773e+183
-1.2399113e+183
-1.2396603e+183
-1.2140663e+183
-1.213056e+183
-1.2422495e+183
-1.2405527e+183
-1.2135115e+183
-1.2155354e+183
-1.1778869e+183
-1.3043262e+183
-1.3004423e+183
-1.3006114e+183
-1.3044905e+183
-1.296647e+183
-1.292483e+183
-1.2924675e+183
-1.2967378e+183
-1.3047125e+183
-1.300783e+183
-1.3050685e+183
-1.3010145e+183
-1.2968218e+183
-1.2924647e+183
-1.2926804e+183
-1.2970341e+183
-1.2682544e+183
-1.2677986e+183
-1.2761819e+183
-1.2764786e+183
-1.2680177e+183
-1.2687884e+183
-1.2767488e+183
-1.2763847e+183
-1.2878231e+183
-1.2825225e+183
-1.2822803e+183
-1.2876998e+183
-1.2823807e+183
-1.2821173e+183
-1.287618e+183
-1.2878661e+183
-1.269213e+183
-1.2687647e+183
-1.2768325e+183
-1.2775658e+183
-1.2880799e+183
-1.2826045e+183
-1.2833503e+183
-1.2885602e+183
-1.2891153e+183
-1.2840715e+183
-1.289876e+183
-1.2850298e+183
-1.2784511e+183
-1.2702657e+183
-1.2794353e+183
-1.2713827e+183
-1.2971473e+183
-1.2928173e+183
-1.2931282e+183
-1.2973568e+183
-1.3013556e+183
-1.3011709e+183
-1.3052835e+183
-1.3055014e+183
-1.3058788e+183
-1.3017122e+183
-1.3023362e+183
-1.3064976e+183
-1.2977174e+183
-1.2935614e+183
-1.2942449e+183
-1.2983667e+183
-1.2968249e+183
-1.2959508e+183
-1.300218e+183
-1.3010955e+183
-1.2953331e+183
-1.2947908e+183
-1.2989729e+183
-1.299579e+183
-1.3070573e+183
-1.3029108e+183
-1.3035173e+183
-1.3076308e+183
-1.305041e+183
-1.3041504e+183
-1.3082605e+183
-1.3091665e+183
-1.2434639e+183
-1.2719125e+183
-1.2797316e+183
-1.28016e+183
-1.2718757e+183
-1.2443522e+183
-1.2724326e+183
-1.280563e+183
-1.2815958e+183
-1.27348e+183
-1.2167363e+183
-1.2172425e+183
-1.2871418e+183
-1.2860978e+183
-1.291289e+183
-1.2921935e+183
-1.2857226e+183
-1.2851986e+183
-1.2902713e+183
-1.2907306e+183
-1.2459884e+183
-1.2744343e+183
-1.2823264e+183
-1.2833979e+183
-1.2752632e+183
-1.2482111e+183
-1.276456e+183
-1.2842516e+183
-1.2852912e+183
-1.2775882e+183
-1.2187829e+183
-1.2218341e+183
-1.2906357e+183
-1.2895686e+183
-1.2945734e+183
-1.2954877e+183
-1.2888471e+183
-1.287767e+183
-1.2929351e+183
-1.2937656e+183
-1.3099434e+183
-1.3057943e+183
-1.3064834e+183
-1.3105309e+183
-1.3017973e+183
-1.2975256e+183
-1.2982878e+183
-1.3025248e+183
-1.2999779e+183
-1.2990964e+183
-1.3032807e+183
-1.304127e+183
-1.3111767e+183
-1.3071704e+183
-1.3079772e+183
-1.3119249e+183
-1.1800909e+183
-1.1838234e+183
-1.127341e+183
-1.1321181e+183
-1.3163206e+183
-1.3671325e+183
-1.3947734e+183
-1.3961903e+183
-1.3685727e+183
-1.4026874e+183
-1.4039497e+183
-1.0645836e+183
-1.1358125e+183
-1.1310501e+183
-1.0608635e+183
-1.313399e+183
-1.3147912e+183
-1.3035385e+183
-1.3048592e+183
-1.3161683e+183
-1.317719e+183
-1.3078443e+183
-1.30622e+183
-1.2944287e+183
-1.2851689e+183
-1.2860824e+183
-1.2955626e+183
-1.2872044e+183
-1.2968801e+183
-1.2985676e+183
-1.2888982e+183
-1.3204843e+183
-1.3189967e+183
-1.3089701e+183
-1.3104488e+183
-1.3218909e+183
-1.3233231e+183
-1.3134122e+183
-1.3119399e+183
-1.291452e+183
-1.2900519e+183
-1.2996159e+183
-1.3010376e+183
-1.2929122e+183
-1.3025721e+183
-1.3041126e+183
-1.2944828e+183
-1.2758263e+183
-1.2655125e+183
-1.2663014e+183
-1.2765475e+183
-1.2415581e+183
-1.2412432e+183
-1.2548566e+183
-1.2556124e+183
-1.2018825e+183
-1.2566256e+183
-1.2424304e+183
-1.2439656e+183
-1.2578688e+183
-1.2034123e+183
-1.2671707e+183
-1.2685949e+183
-1.2775028e+183
-1.2791326e+183
-1.1626204e+183
-1.163505e+183
-1.2698413e+183
-1.2803894e+183
-1.2713626e+183
-1.2818447e+183
-1.2463663e+183
-1.2450904e+183
-1.25902e+183
-1.205814e+183
-1.2605201e+183
-1.2498219e+183
-1.2480013e+183
-1.2088615e+183
-1.2620764e+183
-1.2636935e+183
-1.2743723e+183
-1.2727264e+183
-1.283201e+183
-1.2848091e+183
-1.1656434e+183
-1.1694179e+183
-1.1125385e+183
-1.1169457e+183
-1.3301639e+183
-1.3255724e+183
-1.3260979e+183
-1.3307797e+183
-1.3291171e+183
-1.3246445e+183
-1.3251253e+183
-1.3296481e+183
-1.3203967e+183
-1.3160979e+183
-1.3164138e+183
-1.3207988e+183
-1.3211903e+183
-1.3167511e+183
-1.3172225e+183
-1.3216747e+183
-1.3009674e+183
-1.3004868e+183
-1.3044496e+183
-1.30489e+183
-1.3002285e+183
-1.30009e+183
-1.3040061e+183
-1.30417e+183
-1.3119658e+183
-1.3078047e+183
-1.308009e+183
-1.3122042e+183
-1.3087216e+183
-1.3082768e+183
-1.3125027e+183
-1.3129706e+183
-1.3030269e+183
-1.302369e+183
-1.3062341e+183
-1.3069651e+183
-1.3018117e+183
-1.301381e+183
-1.3052493e+183
-1.3056927e+183
-1.3133215e+183
-1.3090492e+183
-1.3095035e+183
-1.3137396e+183
-1.3142991e+183
-1.3100311e+183
-1.3108146e+183
-1.3150951e+183
-1.3193911e+183
-1.3186062e+183
-1.3231822e+183
-1.3239424e+183
-1.3180249e+183
-1.3175746e+183
-1.3220762e+183
-1.3225803e+183
-1.3313491e+183
-1.3265662e+183
-1.3271251e+183
-1.3319519e+183
-1.3284733e+183
-1.3277222e+183
-1.3325673e+183
-1.3332864e+183
-1.3357548e+183
-1.3360967e+183
-1.3312869e+183
-1.3316413e+183
-1.3367729e+183
-1.3363735e+183
-1.3322262e+183
-1.3318649e+183
-1.3270089e+183
-1.3226466e+183
-1.3273715e+183
-1.3230892e+183
-1.3234189e+183
-1.327642e+183
-1.3279695e+183
-1.323733e+183
-1.3353353e+183
-1.3347436e+183
-1.3307888e+183
-1.3301066e+183
-1.3295542e+183
-1.3289996e+183
-1.333758e+183
-1.3342323e+183
-1.322054e+183
-1.3212594e+183
-1.3257269e+183
-1.3264523e+183
-1.3206148e+183
-1.3199961e+183
-1.324514e+183
-1.32511e+183
-1.3068215e+183
-1.3062435e+183
-1.3102691e+183
-1.3108352e+183
-1.3184589e+183
-1.3141822e+183
-1.3147592e+183
-1.3189599e+183
-1.3193751e+183
-1.3152259e+183
-1.3196657e+183
-1.3155387e+183
-1.311318e+183
-1.3073287e+183
-1.3078623e+183
-1.3117335e+183
-1.3055525e+183
-1.30466e+183
-1.308716e+183
-1.3095827e+183
-1.3040255e+183
-1.3034961e+183
-1.3074856e+183
-1.3080651e+183
-1.3119994e+183
-1.3113897e+183
-1.3157051e+183
-1.3163066e+183
-1.3169588e+183
-1.31264e+183
-1.3135082e+183
-1.3178022e+183
-1.2844583e+183
-1.28408e+183
-1.2883672e+183
-1.2888054e+183
-1.2840422e+183
-1.2840052e+183
-1.2881297e+183
-1.2882289e+183
-1.2961149e+183
-1.2920144e+183
-1.2921238e+183
-1.2962268e+183
-1.296452e+183
-1.2923017e+183
-1.2927996e+183
-1.2969793e+183
-1.2321726e+183
-1.2061587e+183
-1.2050371e+183
-1.2316072e+183
-1.2600959e+183
-1.260889e+183
-1.2686775e+183
-1.2683522e+183
-1.2743292e+183
-1.2794434e+183
-1.2793899e+183
-1.2741516e+183
-1.2682633e+183
-1.2598407e+183
-1.2601202e+183
-1.2683758e+183
-1.2742488e+183
-1.2740926e+183
-1.2793507e+183
-1.2796834e+183
-1.2339388e+183
-1.2629944e+183
-1.2618741e+183
-1.2698397e+183
-1.2708338e+183
-1.232309e+183
-1.2609101e+183
-1.2603972e+183
-1.2686176e+183
-1.2691613e+183
-1.279966e+183
-1.2745291e+183
-1.2749835e+183
-1.2803353e+183
-1.2764763e+183
-1.2754681e+183
-1.2808225e+183
-1.281731e+183
-1.2053341e+183
-1.207277e+183
-1.1689039e+183
-1.1694084e+183
-1.2974453e+183
-1.2932277e+183
-1.293638e+183
-1.2978397e+183
-1.2891005e+183
-1.2847201e+183
-1.2850822e+183
-1.2894986e+183
-1.2983929e+183
-1.2941635e+183
-1.2948539e+183
-1.2990317e+183
-1.2900284e+183
-1.2856012e+183
-1.2864473e+183
-1.2907928e+183
-1.2350883e+183
-1.2358345e+183
-1.2084375e+183
-1.2088592e+183
-1.237237e+183
-1.2102782e+183
-1.2131994e+183
-1.239198e+183
-1.1715406e+183
-1.175163e+183
-1.2890108e+183
-1.2880967e+183
-1.2932937e+183
-1.2924125e+183
-1.2874998e+183
-1.2869904e+183
-1.2913014e+183
-1.2917914e+183
-1.295785e+183
-1.2952928e+183
-1.2994775e+183
-1.299961e+183
-1.3005724e+183
-1.2963771e+183
-1.2972845e+183
-1.3014889e+183
-1.2648642e+183
-1.2640129e+183
-1.2721787e+183
-1.2731212e+183
-1.2634929e+183
-1.2635493e+183
-1.2713001e+183
-1.2716996e+183
-1.2822482e+183
-1.2768978e+183
-1.2774579e+183
-1.2827702e+183
-1.2833101e+183
-1.2778972e+183
-1.2789637e+183
-1.2842953e+183
-1.2664819e+183
-1.2656548e+183
-1.2739292e+183
-1.2749239e+183
-1.2808576e+183
-1.2798243e+183
-1.2851205e+183
-1.2860547e+183
-1.2869199e+183
-1.2818887e+183
-1.2825565e+183
-1.2876689e+183
-1.2759846e+183
-1.2675785e+183
-1.268761e+183
-1.2767667e+183
-1.2921263e+183
-1.2912939e+183
-1.2953745e+183
-1.2962012e+183
-1.2905803e+183
-1.2897536e+183
-1.2940097e+183
-1.2947349e+183
-1.3022203e+183
-1.2980165e+183
-1.2986813e+183
-1.302812e+183
-1.300006e+183
-1.2992412e+183
-1.3033373e+183
-1.303992e+183
-1.1180428e+183
-1.1225588e+183
-1.3491695e+183
-1.3493813e+183
-1.3523157e+183
-1.352541e+183
-1.35282e+183
-1.3530788e+183
-1.3496468e+183
-1.3499015e+183
-1.3408817e+183
-1.3367031e+183
-1.3371745e+183
-1.3413117e+183
-1.3448386e+183
-1.3445635e+183
-1.3467086e+183
-1.3469931e+183
-1.344336e+183
-1.3441043e+183
-1.3462271e+183
-1.346476e+183
-1.3501784e+183
-1.3504665e+183
-1.3533383e+183
-1.3536141e+183
-1.3384661e+183
-1.3377291e+183
-1.3418542e+183
-1.3425416e+183
-1.3460544e+183
-1.3457195e+183
-1.3478594e+183
-1.3481761e+183
-1.3454216e+183
-1.3450927e+183
-1.3472435e+183
-1.3475722e+183
-1.3305258e+183
-1.3297852e+183
-1.3336569e+183
-1.334416e+183
-1.3291965e+183
-1.3286197e+183
-1.3325694e+183
-1.333082e+183
-1.3432031e+183
-1.34667e+183
-1.3463233e+183
-1.3484299e+183
-1.3487754e+183
-1.339167e+183
-1.3398619e+183
-1.3438608e+183
-1.3472979e+183
-1.3469875e+183
-1.349078e+183
-1.3493744e+183
-1.344392e+183
-1.340398e+183
-1.3351475e+183
-1.3312258e+183
-1.3319074e+183
-1.3358363e+183
-1.3364091e+183
-1.3324916e+183
-1.3329159e+183
-1.3247681e+183
-1.3210812e+183
-1.3218098e+183
-1.3254027e+183
-1.3175574e+183
-1.314183e+183
-1.3149372e+183
-1.3183079e+183
-1.326039e+183
-1.3224566e+183
-1.3231108e+183
-1.3267098e+183
-1.3190165e+183
-1.3156621e+183
-1.3163798e+183
-1.3196644e+183
-1.3189436e+183
-1.3184482e+183
-1.3215772e+183
-1.3221025e+183
-1.317751e+183
-1.3169763e+183
-1.3201878e+183
-1.3209185e+183
-1.3273644e+183
-1.3236562e+183
-1.3243564e+183
-1.3280378e+183
-1.3254877e+183
-1.3249865e+183
-1.3286506e+183
-1.3291128e+183
-1.3377109e+183
-1.338001e+183
-1.333548e+183
-1.3337907e+183
-1.3387468e+183
-1.3382999e+183
-1.3340586e+183
-1.3345653e+183
-1.3263599e+183
-1.3258022e+183
-1.3303891e+183
-1.3298422e+183
-1.3255578e+183
-1.3253984e+183
-1.3294055e+183
-1.329595e+183
-1.3545614e+183
-1.3547834e+183
-1.3572666e+183
-1.3570385e+183
-1.3473482e+183
-1.3475941e+183
-1.3504646e+183
-1.3507195e+183
-1.3510049e+183
-1.351239e+183
-1.3478784e+183
-1.3481113e+183
-1.3391956e+183
-1.342623e+183
-1.3423565e+183
-1.3444516e+183
-1.3447326e+183
-1.3355996e+183
-1.335081e+183
-1.3396957e+183
-1.343126e+183
-1.3428772e+183
-1.3449808e+183
-1.345231e+183
-1.3483116e+183
-1.3485241e+183
-1.3514403e+183
-1.351663e+183
-1.351918e+183
-1.3521343e+183
-1.3487729e+183
-1.3489871e+183
-1.3401273e+183
-1.3360045e+183
-1.3363808e+183
-1.3405227e+183
-1.3439441e+183
-1.3437307e+183
-1.3458511e+183
-1.3460737e+183
-1.3435209e+183
-1.3433004e+183
-1.3454008e+183
-1.3456418e+183
-1.3309672e+183
-1.3269532e+183
-1.3274205e+183
-1.3314619e+183
-1.3318642e+183
-1.3277851e+183
-1.3282179e+183
-1.3322407e+183
-1.314294e+183
-1.311036e+183
-1.3112448e+183
-1.3144274e+183
-1.3178948e+183
-1.31775e+183
-1.3214817e+183
-1.3216252e+183
-1.3218742e+183
-1.3181427e+183
-1.3186512e+183
-1.3224059e+183
-1.3146684e+183
-1.3114645e+183
-1.3119031e+183
-1.3151293e+183
-1.3134529e+183
-1.3128327e+183
-1.3162475e+183
-1.3168554e+183
-1.3126144e+183
-1.3123352e+183
-1.3156668e+183
-1.3160108e+183
-1.323013e+183
-1.3192165e+183
-1.3196101e+183
-1.3234349e+183
-1.3204601e+183
-1.3198901e+183
-1.3237625e+183
-1.3242605e+183
-1.1764438e+183
-1.2170096e+183
-1.215637e+183
-1.2582047e+183
-1.2422369e+183
-1.2405555e+183
-1.2571014e+183
-1.2567699e+183
-1.2399937e+183
-1.2407664e+183
-1.257287e+183
-1.2590336e+183
-1.2418718e+183
-1.2439507e+183
-1.2604454e+183
-1.2578335e+183
-1.241163e+183
-1.2410146e+183
-1.2580228e+183
-1.2159145e+183
-1.2178098e+183
-1.1768046e+183
-1.3078649e+183
-1.3048753e+183
-1.3052051e+183
-1.3081276e+183
-1.3019643e+183
-1.2990747e+183
-1.2991745e+183
-1.3022168e+183
-1.3083753e+183
-1.3053914e+183
-1.3087426e+183
-1.3056625e+183
-1.3023664e+183
-1.299191e+183
-1.299301e+183
-1.302509e+183
-1.27752e+183
-1.2771265e+183
-1.2859504e+183
-1.2861417e+183
-1.2775694e+183
-1.2785318e+183
-1.2868923e+183
-1.2863117e+183
-1.2957146e+183
-1.2918908e+183
-1.2916085e+183
-1.2956201e+183
-1.2914763e+183
-1.2913572e+183
-1.2955115e+183
-1.2956176e+183
-1.2784073e+183
-1.2778912e+183
-1.2864184e+183
-1.2871303e+183
-1.2958123e+183
-1.2916857e+183
-1.2923115e+183
-1.29617e+183
-1.2965584e+183
-1.2930245e+183
-1.2972534e+183
-1.2938592e+183
-1.2880494e+183
-1.279492e+183
-1.289047e+183
-1.280767e+183
-1.3026281e+183
-1.2994059e+183
-1.2996153e+183
-1.3027641e+183
-1.3059743e+183
-1.3058027e+183
-1.3090373e+183
-1.3092538e+183
-1.3094443e+183
-1.3061456e+183
-1.3066928e+183
-1.3100263e+183
-1.3028918e+183
-1.2997777e+183
-1.3003612e+183
-1.3034332e+183
-1.3034228e+183
-1.30262e+183
-1.3057831e+183
-1.3066001e+183
-1.3019054e+183
-1.3012185e+183
-1.3042886e+183
-1.3050365e+183
-1.3107916e+183
-1.3074686e+183
-1.3082392e+183
-1.3115421e+183
-1.3098128e+183
-1.3089907e+183
-1.3122854e+183
-1.3130685e+183
-1.2610601e+183
-1.244592e+183
-1.2437771e+183
-1.2607216e+183
-1.2811203e+183
-1.2893607e+183
-1.28968e+183
-1.2810726e+183
-1.2611829e+183
-1.2440247e+183
-1.2455706e+183
-1.2623406e+183
-1.2815234e+183
-1.2900845e+183
-1.291162e+183
-1.2827245e+183
-1.2190996e+183
-1.2195952e+183
-1.2960659e+183
-1.2951618e+183
-1.2990667e+183
-1.2998639e+183
-1.2946382e+183
-1.2942106e+183
-1.2978852e+183
-1.2984025e+183
-1.2633893e+183
-1.2465191e+183
-1.2469011e+183
-1.2640674e+183
-1.2836949e+183
-1.2920366e+183
-1.2931324e+183
-1.2846901e+183
-1.2653603e+183
-1.2481884e+183
-1.2506062e+183
-1.2669151e+183
-1.2859826e+183
-1.2941219e+183
-1.2952648e+183
-1.2873255e+183
-1.2212941e+183
-1.2244151e+183
-1.2998586e+183
-1.298884e+183
-1.3025634e+183
-1.3033943e+183
-1.2979351e+183
-1.2969067e+183
-1.3007279e+183
-1.3016184e+183
-1.3137667e+183
-1.3106239e+183
-1.3114122e+183
-1.3145499e+183
-1.3074374e+183
-1.304234e+183
-1.3050799e+183
-1.3082429e+183
-1.3067369e+183
-1.3059466e+183
-1.309041e+183
-1.3097643e+183
-1.3152818e+183
-1.3121428e+183
-1.3127774e+183
-1.3158239e+183
-1.1789619e+183
-1.1828295e+183
-1.1764998e+183
-1.1768623e+183
-1.1788812e+183
-1.1828121e+183
-1.1398801e+183
-1.1467708e+183
-1.151289e+183
-1.1445456e+183
-1.2596475e+183
-1.2620437e+183
-1.3094273e+183
-1.313103e+183
-1.2587646e+183
-1.3134973e+183
-1.3118824e+183
-1.3407456e+183
-1.3422904e+183
-1.3771908e+183
-1.3784663e+183
-1.2563231e+183
-1.3147654e+183
-1.4019491e+183
-1.4024369e+183
-1.4029111e+183
-1.4153353e+183
-1.4157473e+183
-1.4034718e+183
-1.0554288e+183
-1.1217224e+183
-1.1262793e+183
-1.1824151e+183
-1.1851908e+183
-1.1888692e+183
-1.1862756e+183
-1.1825893e+183
-1.1832631e+183
-1.1804332e+183
-1.1800073e+183
-1.3139835e+183
-1.3133792e+183
-1.3177716e+183
-1.3184275e+183
-1.3147124e+183
-1.3191783e+183
-1.320112e+183
-1.3156422e+183
-1.3091956e+183
-1.3050077e+183
-1.3055025e+183
-1.3097469e+183
-1.3071142e+183
-1.306201e+183
-1.3113919e+183
-1.3104819e+183
-1.3208155e+183
-1.3163551e+183
-1.3214794e+183
-1.3170527e+183
-1.3185091e+183
-1.3176667e+183
-1.3221006e+183
-1.3229332e+183
-1.3100852e+183
-1.3092925e+183
-1.3134838e+183
-1.3143005e+183
-1.3086078e+183
-1.3078498e+183
-1.3121136e+183
-1.312835e+183
-1.3009811e+183
-1.2969181e+183
-1.2973348e+183
-1.3014093e+183
-1.2931902e+183
-1.289481e+183
-1.2897976e+183
-1.2935649e+183
-1.2909121e+183
-1.2902378e+183
-1.2941156e+183
-1.2948881e+183
-1.3020547e+183
-1.2979119e+183
-1.2987617e+183
-1.3029597e+183
-1.2922311e+183
-1.2914902e+183
-1.2955387e+183
-1.296321e+183
-1.3002938e+183
-1.299476e+183
-1.3037092e+183
-1.3044921e+183
-1.3052601e+183
-1.3011084e+183
-1.3019056e+183
-1.306029e+183
-1.2971433e+183
-1.2930531e+183
-1.2940021e+183
-1.298018e+183
-1.3251117e+183
-1.3206773e+183
-1.3215045e+183
-1.3259314e+183
-1.3236267e+183
-1.3192111e+183
-1.3199484e+183
-1.3243734e+183
-1.3149884e+183
-1.3107044e+183
-1.3113364e+183
-1.3156772e+183
-1.3164016e+183
-1.3120448e+183
-1.3129824e+183
-1.3172752e+183
-1.3266017e+183
-1.3221727e+183
-1.3228203e+183
-1.3272274e+183
-1.3241083e+183
-1.3233795e+183
-1.3278196e+183
-1.3285626e+183
-1.3157025e+183
-1.3150536e+183
-1.3192159e+183
-1.3199029e+183
-1.3144449e+183
-1.3137313e+183
-1.3179745e+183
-1.3186356e+183
-1.2966616e+183
-1.2957145e+183
-1.2997065e+183
-1.3006692e+183
-1.2950981e+183
-1.2945544e+183
-1.2985225e+183
-1.2990753e+183
-1.3065611e+183
-1.3023884e+183
-1.3029401e+183
-1.3071366e+183
-1.3045589e+183
-1.3035901e+183
-1.3078205e+183
-1.3087912e+183
-1.2983084e+183
-1.2974804e+183
-1.3014913e+183
-1.3023061e+183
-1.3096083e+183
-1.3053842e+183
-1.3062159e+183
-1.3103715e+183
-1.3110579e+183
-1.3069449e+183
-1.3075538e+183
-1.3116602e+183
-1.3030367e+183
-1.2990564e+183
-1.2997915e+183
-1.3037183e+183
-1.2857863e+183
-1.2819398e+183
-1.2821099e+183
-1.2859952e+183
-1.2781099e+183
-1.274086e+183
-1.2742831e+183
-1.2783053e+183
-1.2749094e+183
-1.2744567e+183
-1.278526e+183
-1.2789569e+183
-1.2863021e+183
-1.2823141e+183
-1.2828093e+183
-1.2869055e+183
-1.2231872e+183
-1.2516891e+183
-1.2514288e+183
-1.2593312e+183
-1.2597837e+183
-1.2233471e+183
-1.2515006e+183
-1.2520916e+183
-1.2594532e+183
-1.259391e+183
-1.2648594e+183
-1.2647185e+183
-1.2696492e+183
-1.2698199e+183
-1.269917e+183
-1.2648163e+183
-1.2654286e+183
-1.2704541e+183
-1.1973455e+183
-1.1964885e+183
-1.2708726e+183
-1.2659659e+183
-1.2663657e+183
-1.271355e+183
-1.2238924e+183
-1.2602511e+183
-1.2520501e+183
-1.2525412e+183
-1.2606795e+183
-1.225525e+183
-1.2546135e+183
-1.253479e+183
-1.2613393e+183
-1.2623309e+183
-1.2719097e+183
-1.2668095e+183
-1.2678153e+183
-1.2728777e+183
-1.196879e+183
-1.1988813e+183
-1.279295e+183
-1.2752127e+183
-1.2757525e+183
-1.2799106e+183
-1.277445e+183
-1.2764638e+183
-1.2817051e+183
-1.2806931e+183
-1.2839165e+183
-1.2832507e+183
-1.2874323e+183
-1.2881252e+183
-1.2847145e+183
-1.2889392e+183
-1.2899352e+183
-1.2857275e+183
-1.1601714e+183
-1.1608362e+183
-1.2787081e+183
-1.2780663e+183
-1.2823313e+183
-1.2829567e+183
-1.2863353e+183
-1.2905205e+183
-1.2910572e+183
-1.2869362e+183
-1.2836414e+183
-1.2793672e+183
-1.2803781e+183
-1.2845626e+183
-1.28847e+183
-1.2875997e+183
-1.2916897e+183
-1.2926195e+183
-1.227738e+183
-1.2570367e+183
-1.2559296e+183
-1.2649579e+183
-1.2639134e+183
-1.22675e+183
-1.2552609e+183
-1.255203e+183
-1.2628438e+183
-1.2633468e+183
-1.2689418e+183
-1.2682848e+183
-1.2734445e+183
-1.2740798e+183
-1.2001137e+183
-1.2006703e+183
-1.269441e+183
-1.2746723e+183
-1.2757495e+183
-1.2705583e+183
-1.2315296e+183
-1.2609727e+183
-1.2600624e+183
-1.268685e+183
-1.2678451e+183
-1.2293821e+183
-1.2588926e+183
-1.2580524e+183
-1.266926e+183
-1.2658401e+183
-1.2022199e+183
-1.2052385e+183
-1.2713403e+183
-1.276555e+183
-1.2775719e+183
-1.2724905e+183
-1.2732471e+183
-1.278333e+183
-1.2792558e+183
-1.2742256e+183
-1.2837425e+183
-1.2828627e+183
-1.2870152e+183
-1.2878305e+183
-1.28206e+183
-1.2811185e+183
-1.2852945e+183
-1.2861962e+183
-1.2934585e+183
-1.2892731e+183
-1.2901588e+183
-1.2942946e+183
-1.2917289e+183
-1.290943e+183
-1.2950498e+183
-1.2958224e+183
-1.1630538e+183
-1.1667491e+183
-1.1091299e+183
-1.1135048e+183
-1.3311291e+183
-1.3269937e+183
-1.3275015e+183
-1.3317327e+183
-1.3299933e+183
-1.325977e+183
-1.3265274e+183
-1.3305789e+183
-1.3219713e+183
-1.3180584e+183
-1.3184361e+183
-1.3224374e+183
-1.3228473e+183
-1.3187675e+183
-1.3191444e+183
-1.3232632e+183
-1.3043236e+183
-1.3039674e+183
-1.3073131e+183
-1.3076734e+183
-1.3037308e+183
-1.3035629e+183
-1.3068866e+183
-1.3071115e+183
-1.3141819e+183
-1.3104302e+183
-1.3106844e+183
-1.3144765e+183
-1.3112596e+183
-1.3109096e+183
-1.3147497e+183
-1.3151066e+183
-1.3062747e+183
-1.3055963e+183
-1.3089152e+183
-1.3096528e+183
-1.3051186e+183
-1.3046022e+183
-1.3079275e+183
-1.3084081e+183
-1.3154287e+183
-1.3115366e+183
-1.3120032e+183
-1.3158788e+183
-1.3164526e+183
-1.3125366e+183
-1.3132977e+183
-1.3172009e+183
-1.3213105e+183
-1.320559e+183
-1.3248166e+183
-1.3255419e+183
-1.3199747e+183
-1.3194895e+183
-1.3236829e+183
-1.32421e+183
-1.3323636e+183
-1.3280014e+183
-1.3285818e+183
-1.3329942e+183
-1.3298891e+183
-1.3291951e+183
-1.3336226e+183
-1.3342656e+183
-1.3365042e+183
-1.3368113e+183
-1.3325039e+183
-1.3328116e+183
-1.3373816e+183
-1.3370682e+183
-1.3332706e+183
-1.3329957e+183
-1.328478e+183
-1.3245209e+183
-1.328813e+183
-1.3249159e+183
-1.3250819e+183
-1.3289562e+183
-1.3292036e+183
-1.3252876e+183
-1.3361803e+183
-1.3357032e+183
-1.332103e+183
-1.3315258e+183
-1.3310091e+183
-1.330458e+183
-1.3347445e+183
-1.3352269e+183
-1.3239627e+183
-1.323258e+183
-1.3273261e+183
-1.3279873e+183
-1.322641e+183
-1.3219941e+183
-1.3261664e+183
-1.3267663e+183
-1.3103137e+183
-1.3097373e+183
-1.3131192e+183
-1.3137395e+183
-1.3205883e+183
-1.3167502e+183
-1.3173245e+183
-1.3210622e+183
-1.3212999e+183
-1.3176361e+183
-1.321465e+183
-1.3178166e+183
-1.3141299e+183
-1.3107116e+183
-1.3110002e+183
-1.3143317e+183
-1.3089893e+183
-1.3081293e+183
-1.3115872e+183
-1.3124366e+183
-1.307456e+183
-1.30685e+183
-1.3103311e+183
-1.310958e+183
-1.314654e+183
-1.313998e+183
-1.3179079e+183
-1.318566e+183
-1.3192151e+183
-1.3152894e+183
-1.3160924e+183
-1.3199614e+183
-1.2910337e+183
-1.2907383e+183
-1.293957e+183
-1.2943302e+183
-1.2907201e+183
-1.2907369e+183
-1.2937577e+183
-1.2937555e+183
-1.3001993e+183
-1.2968979e+183
-1.2969706e+183
-1.3003108e+183
-1.3005772e+183
-1.2972237e+183
-1.2976391e+183
-1.3009615e+183
-1.2327572e+183
-1.2344976e+183
-1.2504065e+183
-1.2492391e+183
-1.209096e+183
-1.2076722e+183
-1.2320795e+183
-1.2488027e+183
-1.2491889e+183
-1.2327476e+183
-1.2696149e+183
-1.2706054e+183
-1.2786964e+183
-1.2781474e+183
-1.283607e+183
-1.2873646e+183
-1.2872241e+183
-1.2833146e+183
-1.2779259e+183
-1.2692293e+183
-1.2694623e+183
-1.2780041e+183
-1.2832501e+183
-1.2831053e+183
-1.2870827e+183
-1.2873311e+183
-1.2508291e+183
-1.2337666e+183
-1.2358306e+183
-1.2522147e+183
-1.2724549e+183
-1.2712169e+183
-1.2794516e+183
-1.2805316e+183
-1.2329218e+183
-1.2330631e+183
-1.2495571e+183
-1.2498275e+183
-1.2701903e+183
-1.2697008e+183
-1.2782433e+183
-1.2787575e+183
-1.2876512e+183
-1.2835218e+183
-1.2840002e+183
-1.2880795e+183
-1.2854928e+183
-1.284562e+183
-1.2886375e+183
-1.2894265e+183
-1.2079026e+183
-1.2097649e+183
-1.1680293e+183
-1.16837e+183
-1.3012988e+183
-1.2980354e+183
-1.2985252e+183
-1.3018037e+183
-1.29472e+183
-1.2913466e+183
-1.2917972e+183
-1.2951751e+183
-1.3022839e+183
-1.2990363e+183
-1.2995712e+183
-1.3028751e+183
-1.2957048e+183
-1.2923392e+183
-1.293029e+183
-1.2962888e+183
-1.2528067e+183
-1.2364578e+183
-1.2356197e+183
-1.2524325e+183
-1.2528268e+183
-1.2358152e+183
-1.2372724e+183
-1.2538184e+183
-1.2110629e+183
-1.2115145e+183
-1.2384651e+183
-1.2381457e+183
-1.2547043e+183
-1.2553548e+183
-1.2131596e+183
-1.2161479e+183