/*--------------------------------*- C++ -*----------------------------------*\
  =========                 |
  \\      /  F ield         | OpenFOAM: The Open Source CFD Toolbox
   \\    /   O peration     | Website:  https://openfoam.org
    \\  /    A nd           | Version:  7
     \\/     M anipulation  |
\*---------------------------------------------------------------------------*/
FoamFile
{
    version     2.0;
    format      ascii;
    class       surfaceScalarField;
    location    "2000";
    object      phi;
}
// * * * * * * * * * * * * * * * * * * * * * * * * * * * * * * * * * * * * * //

dimensions      [0 3 -1 0 0 0 0];

internalField   nonuniform List<scalar> 
102329
(
8.9469376e+86
-9.0640827e+87
6.3617858e+86
5.0379867e+86
-6.1491321e+86
-7.266101e+86
-9.0327322e+87
1.2243333e+87
6.4316718e+86
5.3291449e+86
-5.6545271e+86
-7.2938656e+86
-8.8463703e+86
1.2495215e+87
-1.1707606e+88
7.5193798e+86
-1.5886792e+86
-3.3862394e+86
6.5578926e+86
7.3396818e+86
-1.9455206e+86
-3.0525286e+86
6.0592195e+86
-1.1685374e+88
3.4236167e+87
2.7680664e+87
-1.65763e+87
-2.2716446e+87
-2.745352e+87
-2.1133712e+87
1.8463414e+87
2.610337e+87
-1.0071963e+87
-9.1654879e+87
1.367142e+87
6.4033801e+86
-6.0221482e+86
-7.6740288e+86
5.161712e+86
-9.152875e+87
4.9711436e+86
6.3423544e+86
-7.6197372e+86
-6.3851996e+86
-1.0552722e+87
1.4165968e+87
7.7311208e+86
-2.1674522e+86
-3.9499705e+86
-1.1820011e+88
6.4002809e+86
-1.1751413e+88
7.398253e+86
-2.3192663e+86
-3.6174566e+86
5.8782835e+86
-1.3682267e+85
2.1823609e+85
2.554607e+85
2.3629702e+85
-6.4399939e+86
-4.0173303e+85
-3.5996432e+85
2.4707522e+85
-6.5692037e+86
-4.0300918e+85
-3.9045252e+85
-1.3533185e+86
-2.1636809e+87
1.7754834e+86
1.2063079e+86
1.1179885e+86
-1.7707263e+86
-1.5775657e+86
-2.102791e+87
1.1571142e+86
9.9295343e+85
-1.7146619e+86
-1.8324711e+86
-1.3353474e+86
1.7730047e+86
-2.7136377e+87
1.2601228e+86
-1.6570145e+86
1.1667188e+86
-1.8570216e+86
-2.6524232e+87
-1.8390847e+86
-1.718266e+86
1.2251321e+86
9.7705996e+85
-1.5167923e+86
-2.1485225e+87
2.14042e+86
1.2058186e+86
1.135321e+86
-1.7991218e+86
-1.634602e+86
-1.5020878e+85
2.4518252e+85
2.2746503e+85
-3.7373224e+85
-6.4961908e+86
-4.0966482e+85
2.465939e+85
2.1169297e+85
-6.4236233e+86
-4.0194654e+85
-3.8655218e+85
-2.1616113e+87
1.1804503e+86
1.0108837e+86
-1.7373377e+86
-1.8387076e+86
-1.7243846e+86
-2.6651863e+87
2.028155e+86
-1.5564904e+86
1.3330884e+86
1.2215047e+86
-1.7897526e+86
-2.7541186e+87
-1.828432e+86
-1.7609046e+86
1.165444e+86
1.1037287e+86
-9.9348153e+86
-9.3338833e+87
1.2708377e+87
-1.1123606e+86
9.6799571e+86
8.4435608e+86
-2.9865192e+86
-1.8998757e+87
-1.9900079e+86
2.475225e+86
1.3455515e+86
-1.4576542e+86
1.227882e+86
-1.7347133e+86
-2.2875248e+86
3.2999853e+86
-2.3225029e+87
-9.3723886e+85
-5.7774426e+85
1.6714409e+86
1.468692e+86
2.00278e+87
-2.6469206e+86
-2.4630886e+87
-6.9407465e+85
1.6987749e+86
1.509769e+86
-9.3820036e+85
-2.0701924e+86
-1.5642016e+86
1.2706992e+86
1.1283102e+86
-1.7101056e+86
-1.9451732e+87
-1.5632633e+86
-1.7424491e+86
-1.5227586e+86
1.2538583e+86
1.1594703e+86
-1.89851e+86
-6.0532972e+85
-8.92231e+85
-2.3871794e+87
1.5265114e+86
1.6971941e+86
1.9093649e+87
-5.9845917e+85
-8.1281027e+85
-2.3247876e+87
1.4485723e+86
1.6761023e+86
1.2371565e+86
-1.5523843e+86
-1.6895717e+86
1.0509567e+86
-9.414153e+87
9.9580935e+86
8.4644712e+86
-1.5699468e+86
-2.6306254e+86
-1.3534859e+87
-1.0282803e+88
1.8388651e+87
-1.512988e+87
-9.8311972e+87
-1.6339297e+87
9.0355774e+87
8.5093529e+87
-2.9955447e+87
2.5796927e+87
-1.1022446e+87
-9.3944285e+87
6.6447858e+86
5.290508e+86
-6.2372099e+86
-8.142624e+86
-9.3521783e+87
6.5008938e+86
4.8552175e+86
-6.635189e+86
-8.0720353e+86
-1.1496579e+87
7.7843087e+86
-2.6638582e+86
-4.5445992e+86
6.299892e+86
-1.2063237e+88
7.4696505e+86
-2.7332382e+86
-4.2371893e+86
5.7809427e+86
-1.1984902e+88
1.1995957e+87
7.4955184e+87
7.3562651e+87
1.4281848e+87
-2.2303049e+87
-1.6665572e+86
2.4394785e+86
1.1344773e+86
1.280509e+86
-1.6036069e+86
-1.8766729e+86
-1.7172452e+86
-2.8069306e+87
2.4300446e+86
-1.8906514e+86
-1.6243379e+86
1.3464575e+86
1.1998493e+86
2.2223327e+87
-2.0311244e+86
-2.8384984e+87
-1.8712512e+86
-1.7475011e+86
1.3009022e+86
1.1193562e+86
-2.0004902e+86
-1.8689271e+86
-1.743461e+86
1.1517711e+86
9.6848227e+85
1.5258537e+86
-2.1669712e+87
1.2114802e+86
1.0386132e+86
-1.7373695e+86
-1.7895295e+86
-2.2242165e+87
1.111009e+86
1.2326994e+86
-1.8782156e+86
-1.6559669e+86
1.5094539e+86
-2.7266977e+87
-1.7836959e+86
1.1772567e+86
1.015122e+86
-1.9124541e+86
-2.8001823e+87
-1.9008875e+86
-1.6799253e+86
1.2761553e+86
1.1574485e+86
-2.0323112e+87
-2.1110063e+86
2.832545e+86
-1.7996399e+86
-1.499785e+86
1.3551194e+86
1.2076976e+86
-2.6271877e+86
3.4775966e+86
-2.4675448e+87
-7.1557495e+85
1.7140537e+86
-1.0924526e+86
1.4284502e+86
2.0733156e+87
-3.036873e+86
-1.0907877e+86
-8.0249104e+85
1.6781183e+86
1.4104498e+86
-2.546873e+87
-1.1798583e+87
-9.3782086e+87
1.4348976e+87
9.8234762e+86
8.2718396e+86
-1.1609807e+86
-3.2030032e+86
-2.3186567e+86
1.3030583e+86
-1.627482e+86
1.0971444e+86
-1.8166146e+86
-9.4970754e+87
9.8995241e+86
8.045221e+86
-1.6594816e+86
-2.8945395e+86
-2.0209508e+87
-1.803022e+86
-1.8094919e+86
-1.5596539e+86
1.2907093e+86
1.1687414e+86
-2.3342378e+86
-2.4624309e+87
-1.045368e+86
-7.29224e+85
1.6779133e+86
1.4895782e+86
1.9683144e+87
-2.3656921e+87
-7.2626186e+85
1.6796058e+86
1.363099e+86
-9.9436802e+85
-1.7386639e+86
-1.6025517e+86
1.2410249e+86
1.066843e+86
-1.4241716e+87
-1.0455622e+88
1.9463373e+87
-1.3952662e+87
-1.0014801e+88
-1.5356611e+87
-2.9571551e+84
-1.1225978e+86
4.7645256e+84
-6.4827551e+84
-7.1580721e+84
5.6001742e+84
5.2323683e+84
-1.1341843e+86
-3.528773e+84
5.650242e+84
4.9732849e+84
-6.9323022e+84
-7.2247066e+84
-1.3074648e+85
-5.0721991e+86
2.2359735e+85
2.5033076e+85
-3.5215392e+85
-3.8868982e+85
2.3618044e+85
2.7935284e+84
-3.0722167e+84
-1.4458234e+86
-8.7305648e+84
3.9374095e+84
-1.4199358e+86
-7.4065038e+84
-1.1372207e+86
-6.8082484e+84
-7.4146573e+84
5.4655159e+84
5.1166185e+84
-5.1376939e+86
-1.5187579e+85
-3.8836623e+85
-3.7561699e+85
2.4922968e+85
2.2236409e+85
2.3205378e+84
-3.1433243e+84
-1.4237543e+86
-9.2567806e+84
-1.4502827e+86
-8.4906477e+84
1.0727167e+85
-1.2900188e+85
-6.6318107e+86
-3.8806866e+85
-3.722614e+85
2.6731455e+85
2.3814181e+85
-6.5147704e+86
1.7512045e+85
-3.8611018e+85
-3.4634258e+85
2.7329046e+85
2.5632173e+85
-2.1865075e+84
-7.7098124e+84
-1.432013e+86
-1.4347154e+85
-5.0502239e+86
2.4979884e+85
-3.5098777e+85
-3.9018007e+85
2.3231533e+85
-1.441643e+86
-9.0624838e+84
-4.9588362e+86
2.4899125e+85
-3.6205337e+85
-1.0545913e+85
-6.5381332e+86
2.6469243e+85
-3.6344959e+85
-3.9534982e+85
2.4381592e+85
-6.369543e+86
2.4578687e+85
-3.8591395e+85
-3.9581552e+85
-5.0835427e+86
-1.0954989e+85
1.6077632e+85
2.7186631e+85
-3.5361395e+85
-3.9853434e+85
2.579538e+85
-1.1513231e+85
1.8011884e+85
-6.5211664e+86
2.714407e+85
-3.8407027e+85
-4.2079286e+85
2.4904715e+85
-5.1595295e+86
-1.5077641e+85
2.7403673e+85
-3.7433451e+85
-4.0355194e+85
2.3951695e+85
-1.3000325e+85
-6.6469689e+86
2.5424322e+85
-4.1657037e+85
-4.2295121e+85
2.305702e+85
1.2403216e+85
4.9754111e+86
-6.393664e+86
-4.2148642e+85
-4.1079191e+85
2.5940604e+85
2.1391167e+85
5.0788144e+86
-6.5418985e+86
-4.1942498e+85
-3.7338279e+85
2.7464516e+85
2.5701301e+85
-1.2039524e+85
2.5390189e+85
-3.6731616e+85
-3.9559716e+85
2.44446e+85
-4.0226849e+85
-3.8667927e+85
2.4292402e+85
2.1105968e+85
-1.775071e+85
-5.1161417e+86
2.7714528e+85
2.6188647e+85
2.4535926e+85
-3.5181776e+85
-3.8927398e+85
-5.2482357e+86
-1.9469617e+85
2.3296674e+85
2.626553e+85
-3.7447175e+85
-3.9029996e+85
1.4722186e+85
-1.5140345e+85
-6.8074652e+86
-3.9106125e+85
-3.7341535e+85
2.4900506e+85
2.7976231e+85
-6.634578e+86
2.5870883e+85
-3.9527493e+85
-3.5879118e+85
2.7116147e+85
2.5525131e+85
-1.3846457e+86
-6.5548835e+84
-6.8805724e+84
5.1799037e+84
5.9310595e+84
-2.7783498e+84
-1.1274452e+86
-6.7561558e+84
-7.4011804e+84
5.4145398e+84
5.084149e+84
-1.1354695e+86
-4.0116829e+84
5.547217e+84
4.8470814e+84
-7.1170498e+84
-7.3967738e+84
-2.6840945e+84
-8.2012996e+84
-1.4291431e+86
-1.6867041e+85
-5.0735625e+86
2.4779471e+85
-3.9324503e+85
-3.5325747e+85
2.3050662e+85
-3.4443003e+84
-1.4452849e+86
-9.224673e+84
-3.2263385e+84
-1.1416405e+86
-6.7745161e+84
-7.3770282e+84
5.3929405e+84
5.0080386e+84
-1.1161288e+86
5.4624805e+84
4.6908526e+84
-7.0176968e+84
-7.279834e+84
-5.0681032e+86
2.5265344e+85
-3.6475142e+85
-3.9144151e+85
2.1383077e+85
2.7358005e+84
-1.4119632e+86
-9.4095536e+84
-1.4530137e+86
-8.2263682e+84
-1.3101419e+85
-6.5620076e+86
2.6065586e+85
-3.6690106e+85
-4.0219853e+85
2.3916319e+85
-6.5574217e+86
2.5294917e+85
-3.8493693e+85
-3.9586154e+85
2.2256691e+85
5.1992681e+86
-1.5483913e+85
-6.6124537e+86
2.2963063e+85
2.9136628e+85
-3.680035e+85
-4.1328879e+85
2.7182922e+85
-1.5320953e+85
2.8058661e+85
-4.0033136e+85
-3.5494639e+85
2.7071451e+85
2.5496387e+85
-5.2958041e+86
-1.8786878e+85
2.8216929e+85
-3.8352834e+85
-4.029794e+85
2.4884156e+85
-1.9955623e+85
-6.7835095e+86
2.8396739e+85
-3.9857763e+85
-4.0313137e+85
2.604116e+85
1.2993385e+85
5.1407486e+86
-6.6193091e+86
-4.186018e+85
-3.9513974e+85
2.7426295e+85
2.397926e+85
5.1202395e+86
-6.6098166e+86
-4.2906656e+85
-4.0087955e+85
2.4990733e+85
2.3908922e+85
-1.4187932e+85
2.4054264e+85
-3.8245224e+85
-4.1185803e+85
2.3145438e+85
-3.9520063e+85
-3.8492479e+85
2.5732245e+85
2.2875541e+85
1.8337543e+87
-3.6423832e+86
-2.0281392e+87
5.3927076e+86
-9.1880078e+85
-2.9946847e+86
4.0364124e+86
2.200486e+86
1.8954485e+86
3.176528e+84
-3.7693789e+85
-1.9315035e+87
-3.5514123e+86
1.9025382e+86
2.2514184e+86
-9.9543408e+84
-3.6995427e+85
-5.4051279e+86
-1.9368989e+87
-1.1697939e+86
-5.0648551e+86
-2.0373208e+85
2.4217373e+85
2.9125873e+85
-3.7554605e+85
-4.2788725e+85
2.7168569e+85
-2.638277e+85
-6.3265379e+86
3.1425261e+85
3.0466826e+85
-3.903697e+85
-4.3153057e+85
2.7083601e+85
-5.1774059e+86
-2.9994293e+85
2.9490019e+85
-4.0065342e+85
2.5727649e+85
-4.3353417e+85
-6.4845005e+86
-3.5202234e+85
2.7845955e+85
-4.2806646e+85
-4.3828472e+85
2.4846775e+85
5.0591456e+85
4.7566818e+86
-5.4778604e+85
-5.739104e+86
-3.1109735e+85
-2.6332421e+85
3.570351e+85
3.0444476e+85
4.6345481e+86
6.7719444e+85
-5.518897e+86
-3.0551286e+85
-2.414456e+85
3.6130299e+85
3.2098347e+85
-3.6643402e+85
5.06976e+85
3.0194555e+85
-3.5328905e+85
-3.9715308e+85
2.8740638e+85
-4.1945324e+85
-4.0283705e+85
-3.7867598e+85
3.0441119e+85
2.7099513e+85
4.8192457e+86
-4.0893363e+85
-5.7911004e+86
-3.0910088e+85
-2.4644904e+85
3.7219021e+85
3.2229066e+85
-2.6823253e+85
6.5361841e+86
3.0264966e+85
-3.6304692e+85
-3.9894921e+85
2.8996345e+85
-4.7799221e+86
6.5137974e+86
-4.0139787e+85
3.4089904e+85
-3.5933891e+85
3.0659982e+85
-3.7909893e+85
-5.5273873e+85
-5.7267184e+86
3.850197e+85
-2.4676444e+85
3.1408358e+85
-2.9993552e+85
5.1068863e+86
-2.0086221e+85
2.7547077e+85
-3.9274645e+85
-4.3077893e+85
2.6199085e+85
-1.9118137e+85
-4.3715291e+85
-3.9626962e+85
2.5196307e+85
2.404669e+85
-5.1393965e+86
-2.2495877e+85
2.8372124e+85
-4.1096114e+85
-4.2813488e+85
2.3755055e+85
-2.6861313e+85
2.852918e+85
-3.9957399e+85
-4.0926463e+85
2.55594e+85
1.787454e+85
5.1028734e+86
-6.4778335e+86
-2.3792768e+85
-4.2443409e+85
-4.1617404e+85
2.7678938e+85
2.5551563e+85
5.043795e+86
-6.3908691e+86
-4.2252926e+85
-3.9411941e+85
2.7662677e+85
2.7447068e+85
-1.319736e+85
2.5315255e+85
-3.9482977e+85
-4.2377924e+85
2.48959e+85
-1.744091e+85
-4.2199484e+85
-4.1642084e+85
2.5851624e+85
2.3771144e+85
-4.0153964e+85
4.6979136e+86
-5.6353711e+86
-2.3294476e+85
3.7198022e+85
3.3536796e+85
-2.934724e+85
4.7360153e+86
-4.6410193e+85
-5.7231866e+86
-2.4412578e+85
3.7443958e+85
3.1867959e+85
-2.9148879e+85
-2.7456911e+86
-1.8546853e+87
2.2305259e+86
1.9388627e+86
2.1118404e+84
-3.6306326e+85
2.5778303e+85
-3.0784279e+85
-3.8062096e+85
-3.6865473e+85
3.0458185e+85
2.7944815e+85
-3.8173707e+85
-3.5234755e+85
2.9824442e+85
2.9646399e+85
-3.4369565e+85
4.6281221e+86
-5.5501091e+86
-2.2430408e+85
3.7548183e+85
3.3496099e+85
-2.830151e+85
4.5351937e+86
-5.3838053e+86
-2.2195974e+85
3.7742619e+85
3.15216e+85
-2.7144044e+85
-1.8219295e+87
2.301677e+86
1.9546263e+86
4.2277201e+84
-1.9014075e+85
2.2753297e+85
6.2434672e+86
-3.6625181e+85
-3.497634e+85
3.0766794e+85
2.7683268e+85
6.361232e+86
-3.7833096e+85
-3.4967182e+85
2.9807903e+85
2.9260751e+85
-5.0198481e+86
-1.6408999e+85
2.8005015e+85
-3.9421283e+85
-4.2927466e+85
2.4822577e+85
-1.6755295e+85
2.6997976e+85
-3.910593e+85
-4.2170225e+85
2.6140737e+85
4.939569e+86
-4.151254e+85
-4.0367759e+85
2.6744743e+85
2.3977722e+85
2.4800383e+85
-4.1312746e+85
-4.2161221e+85
2.2057322e+85
-3.9508085e+86
-2.0465585e+87
-1.1055159e+86
-1.8574474e+87
-1.2455775e+86
-1.4576959e+87
1.7953938e+87
1.9133162e+87
1.7418159e+87
-4.3526533e+86
1.9049596e+87
1.6934385e+87
-4.7607787e+86
-1.1624089e+88
-5.6608664e+86
6.9239907e+86
5.7482298e+86
-7.0905471e+86
8.6409079e+87
8.0739331e+87
2.4751293e+87
8.9569746e+87
9.5048576e+87
9.2118887e+87
8.6196095e+87
-2.9347939e+87
3.238062e+87
-1.7513063e+86
-2.3065295e+87
1.3500589e+86
1.1517686e+86
-1.5785356e+86
-1.9185135e+86
-2.3097618e+87
-2.3239094e+86
1.2629038e+86
1.0871321e+86
-1.8564109e+86
-1.7896854e+86
-1.9152297e+86
-2.9131545e+87
1.4390537e+86
-1.5893157e+86
-1.9665415e+86
1.1901124e+86
-2.2635052e+86
-2.9348753e+87
-1.8524908e+86
1.2428707e+86
1.0504794e+86
-1.9840745e+86
-1.7444134e+86
-2.2974283e+87
1.1292839e+86
1.2752071e+86
-1.6797307e+86
-1.9324686e+86
-2.2381935e+87
1.2406111e+86
1.0493212e+86
-1.822745e+86
-1.7641841e+86
-1.7648073e+86
-2.8943806e+87
-1.9623596e+86
-1.7051626e+86
1.3286587e+86
1.1744996e+86
-2.8251385e+87
-1.8160299e+86
1.2212467e+86
1.0173384e+86
-1.9599033e+86
-2.120049e+87
-2.2677526e+86
1.4049445e+86
-1.5902513e+86
-1.896255e+86
1.2103377e+86
-2.8173184e+86
-1.2439437e+86
-8.5338967e+85
1.6867351e+86
1.4678865e+86
-2.5736661e+87
2.149948e+87
-3.3783385e+86
1.7178751e+86
-9.0806452e+85
-1.2320746e+86
1.3789985e+86
-2.6439797e+87
-2.5875638e+86
-1.6841627e+86
-1.9112879e+86
1.3088223e+86
1.0570569e+86
-1.2435533e+87
-9.5138071e+87
9.7597133e+86
8.1383837e+86
-1.3655202e+86
-3.4383367e+86
-2.0954676e+87
-2.0784436e+86
-1.6288551e+86
1.3147852e+86
-1.8946273e+86
1.1800966e+86
-2.5718333e+86
-1.2007931e+86
-8.3921981e+85
1.6674608e+86
-2.5572583e+87
1.4507092e+86
2.0484439e+87
-1.1497164e+86
-8.5226168e+85
-2.4815352e+87
1.6535469e+86
1.3479154e+86
-1.8670272e+86
-1.6705094e+86
1.2713279e+86
1.0343063e+86
-9.6443489e+87
9.9135187e+86
7.9800142e+86
-1.8137453e+86
-3.1241497e+86
-1.4694835e+87
-1.0678197e+88
-1.312702e+87
-1.0201329e+88
-1.440472e+87
2.1284291e+85
-5.2396121e+86
-2.6235598e+85
2.7306874e+85
-3.6207331e+85
-3.9476674e+85
2.315199e+85
-5.1230341e+86
3.1406077e+85
2.7605227e+85
-3.3381988e+85
-3.8575011e+85
2.4946429e+85
-1.9057924e+85
-6.6245677e+86
2.8355011e+85
2.8792139e+85
-3.4935748e+85
-3.9266939e+85
2.5906134e+85
-6.8028289e+86
-2.1709093e+85
2.68293e+85
-3.8755648e+85
-4.0367237e+85
2.3599081e+85
1.8275931e+85
5.2898886e+86
-1.9380022e+85
-6.8411386e+86
-4.3159646e+85
-4.1543407e+85
2.7962346e+85
2.3904663e+85
5.1858155e+86
-6.6725335e+86
2.841527e+85
-4.1586758e+85
-3.7607741e+85
2.8989738e+85
2.630343e+85
-1.9300232e+85
3.2252498e+85
2.7232016e+85
-3.5460318e+85
-3.9606524e+85
2.5653037e+85
-2.1103526e+85
-4.0934074e+85
-3.9007821e+85
2.6772975e+85
2.3663076e+85
1.5139195e+85
5.1894238e+86
-2.3620002e+85
-6.6752798e+86
-4.2566305e+85
-3.9636179e+85
2.8074963e+85
2.4068778e+85
5.2511997e+86
-6.7769881e+86
-4.2907738e+85
-3.8137088e+85
2.8332887e+85
2.6299805e+85
-1.5094883e+85
6.7504449e+86
2.6717503e+85
-3.7202872e+85
-4.0567489e+85
2.5209867e+85
6.6528297e+86
-2.1519377e+85
2.687898e+85
-3.8453196e+85
-3.9856428e+85
2.3450126e+85
1.4038391e+85
5.1363887e+86
-2.0717767e+85
-3.9731416e+85
-3.7936279e+85
2.6352822e+85
2.2745552e+85
5.1828147e+86
-4.017165e+85
-3.6389561e+85
2.6637429e+85
2.4669968e+85
-2.0420655e+85
2.4404985e+85
-3.6366456e+85
-4.0244092e+85
2.2340627e+85
-2.6781577e+85
-3.9807939e+85
-3.7628485e+85
2.4676739e+85
2.0706358e+85
-2.1233973e+85
-5.1285816e+86
2.3000691e+85
2.5853571e+85
2.3921108e+85
-3.5158222e+85
-3.8611292e+85
-5.122886e+86
2.2370231e+85
2.5317848e+85
-3.8812445e+85
-3.7848751e+85
-1.5505354e+85
1.8461014e+85
-6.6396288e+86
2.7162411e+85
-3.6557766e+85
2.431097e+85
-4.0503593e+85
-6.565945e+86
-3.7256722e+85
2.7136679e+85
2.411851e+85
-3.8280089e+85
1.815346e+85
-5.1868795e+86
2.2502142e+85
2.6218954e+85
-3.9578775e+85
-3.7113936e+85
-5.1295093e+86
-3.9124162e+85
-3.4994157e+85
2.6272039e+85
2.4365971e+85
1.435596e+85
-6.7409767e+86
-4.0311635e+85
-3.8158708e+85
2.7210685e+85
2.2952779e+85
-6.6171152e+86
-3.9616565e+85
-3.5930426e+85
2.7011895e+85
2.5337174e+85
5.181479e+86
-1.5407553e+85
1.7999716e+85
-6.6878124e+86
-4.2901181e+85
-3.9667979e+85
2.7564603e+85
2.4676056e+85
-1.6918742e+85
1.7599833e+85
2.5560186e+85
-3.7330318e+85
-4.099186e+85
2.3991469e+85
-5.1522069e+86
2.7428469e+85
-3.8024807e+85
2.3334415e+85
-4.145985e+85
-6.6004342e+86
2.5007907e+85
-4.2404775e+85
-4.3384878e+85
2.191448e+85
1.4035105e+85
5.2490559e+86
-6.7870548e+86
-4.2783913e+85
-4.1059209e+85
2.791053e+85
2.360827e+85
5.1667979e+86
-6.6509188e+86
-4.2223174e+85
-3.900978e+85
2.6502681e+85
2.556494e+85
-1.3527354e+85
-4.0080356e+85
-3.6703924e+85
2.6251774e+85
2.5124243e+85
2.663357e+85
-3.860002e+85
-4.0625972e+85
2.321764e+85
2.5906176e+85
5.2273927e+86
-6.5912373e+86
-3.5085204e+85
-4.426836e+85
-4.3535643e+85
2.8021055e+85
2.5382456e+85
5.1703198e+86
-6.5798462e+86
3.7228449e+85
-4.1570035e+85
-3.8923256e+85
2.9481514e+85
3.0663615e+85
-2.107907e+85
3.284358e+85
2.7200065e+85
-3.8749457e+85
-4.1570511e+85
2.6645904e+85
-2.6456032e+85
2.6754913e+85
-4.2835663e+85
-4.3499177e+85
2.4352024e+85
-3.4973006e+86
-1.9036104e+87
4.303598e+86
2.1871098e+86
-8.5688932e+84
-5.3946028e+85
1.8158771e+86
4.8682478e+86
-5.7309869e+85
7.2984277e+85
-5.821239e+86
-3.2917488e+85
-2.5862457e+85
3.5117891e+85
3.1729382e+85
-3.8341484e+85
5.328611e+85
-3.5610805e+85
3.1153527e+85
2.9918628e+85
-4.0160494e+85
4.863769e+86
-6.3229929e+85
-5.9447323e+86
3.5547105e+85
-2.7868665e+85
-3.3276915e+85
3.0369737e+85
-4.6320582e+85
-4.1467168e+85
-3.8634709e+85
3.1031697e+85
2.7147484e+85
4.7191592e+85
4.8908604e+86
-6.1653025e+85
-5.8988244e+86
-3.2896672e+85
-2.7051381e+85
3.6844322e+85
2.9282837e+85
4.9427534e+86
-5.9545287e+86
-3.3820919e+85
-2.6974448e+85
3.4599551e+85
3.1085978e+85
-3.2908021e+85
6.6825064e+86
3.0544425e+85
-3.7259397e+85
-4.1625098e+85
2.8764032e+85
6.6016867e+86
-4.2458391e+85
-4.0600866e+85
-3.8222294e+85
3.1122779e+85
2.7213073e+85
-1.9868615e+87
-4.122221e+86
1.8184966e+86
2.2054297e+86
-2.1327528e+85
-5.1400526e+85
-3.9607896e+86
-2.0982826e+87
5.6901951e+86
-9.4366449e+85
-5.8776988e+86
-1.9981669e+87
-1.1730278e+86
-5.2320291e+86
-2.1091368e+85
2.8807359e+85
-3.9802111e+85
-4.4113817e+85
2.5553797e+85
-2.3697121e+85
2.8255512e+85
-3.992152e+85
-4.3939185e+85
2.6516614e+85
-5.1864563e+86
-2.7536432e+85
2.910251e+85
-4.1780449e+85
-4.3544665e+85
2.3499731e+85
-3.0358245e+85
2.7514751e+85
-4.2279534e+85
-4.3260074e+85
2.4547563e+85
-3.3327302e+86
-1.8940484e+87
2.1843974e+86
1.8466282e+86
-8.9333206e+84
-5.1547401e+85
-1.8490681e+87
2.2246556e+86
-7.3447485e+84
-3.5296139e+85
1.7844275e+86
-4.2902206e+86
-2.1122752e+87
-1.0646756e+86
-1.9085858e+87
-1.1968597e+86
2.1768232e+85
5.2208693e+86
-6.6701027e+86
-2.8675149e+85
-4.3446539e+85
-4.1522544e+85
2.5498065e+85
3.035205e+85
5.1706909e+86
-6.5834573e+86
-4.3029852e+85
-3.885891e+85
3.0799855e+85
2.7810149e+85
-1.6794771e+85
-4.2828914e+85
-3.905589e+85
2.6634388e+85
2.5556851e+85
-2.2975755e+85
2.703093e+85
-4.1549173e+85
-4.3049288e+85
2.400404e+85
4.5841973e+85
4.9174188e+86
-5.5555459e+85
-5.9383896e+86
-3.2316062e+85
-2.6965994e+85
3.6680209e+85
2.9875697e+85
4.8548949e+86
-5.8319246e+86
-3.2697611e+85
-2.5801157e+85
3.6282036e+85
3.1186258e+85
-2.9612572e+85
3.0478947e+85
-3.6720209e+85
-4.0689028e+85
2.9019564e+85
-3.5504896e+85
3.0970101e+85
-3.844607e+85
-4.0327749e+85
2.7385475e+85
4.8277271e+86
-4.6852819e+85
-5.7311286e+86
-3.1924434e+85
-2.5472e+85
3.4749476e+85
3.1658481e+85
-2.6501393e+85
6.5831377e+86
-3.9999757e+85
-3.6193226e+85
3.0369738e+85
2.9239281e+85
-4.607741e+86
6.3560991e+86
3.3952487e+85
-3.6419563e+85
-3.9657866e+85
2.7795274e+85
-5.4742812e+86
3.5470273e+85
-2.5352936e+85
-3.103458e+85
2.900121e+85
1.6754337e+85
5.0915656e+86
-4.3376106e+85
-4.1108715e+85
2.7743983e+85
2.3998635e+85
5.147445e+86
-4.3040589e+85
-3.9861168e+85
2.7631324e+85
2.6663689e+85
-1.8604886e+85
2.5529401e+85
-4.0723506e+85
-4.3677566e+85
2.4566484e+85
-4.3743509e+85
-4.277758e+85
2.5462076e+85
2.2468904e+85
-1.601606e+87
1.9565499e+87
1.9834488e+87
1.7989297e+87
-4.1714577e+86
1.9759545e+87
1.7400769e+87
-4.5915148e+86
-1.1989781e+84
2.1689476e+85
-2.5947099e+85
1.7158465e+84
-2.7419828e+84
2.2010545e+85
-1.5308295e+84
-2.6069987e+85
-2.766771e+84
-1.0744846e+84
1.5362048e+84
-1.3965586e+84
-1.2021775e+84
-1.4098044e+84
-1.0777733e+84
-2.1987747e+85
-1.5333361e+84
-2.1700273e+85
-1.3071516e+84
-1.5490263e+84
-1.1435869e+84
-2.6406274e+85
-2.9009996e+84
-2.5551046e+85
-1.5923775e+84
-2.9251188e+84
-1.1365745e+86
-2.5563171e+84
4.0327931e+84
-4.779477e+84
-2.4114593e+84
-1.4640136e+86
3.7673708e+84
-3.8273958e+84
1.1496991e+86
-2.6161006e+84
-1.486646e+86
-4.9695505e+84
-3.0807051e+84
-5.4699193e+84
3.2411797e+84
-3.0890231e+84
1.8184524e+85
1.7821053e+85
-8.6532203e+85
-5.7384706e+84
-5.258076e+84
5.444183e+83
1.3880772e+83
3.6810775e+84
1.8284253e+85
1.7999086e+85
-8.6395849e+85
-5.5956311e+84
-5.0985193e+84
6.7364042e+83
2.6959557e+83
-1.1791295e+84
2.1729445e+85
-2.6044796e+85
-2.9061166e+84
2.1947316e+85
-2.6054839e+85
-2.9293969e+84
-9.7855745e+83
-1.5040797e+84
-1.508268e+84
1.6648385e+84
1.1369803e+86
-1.4629627e+86
-2.431327e+84
-5.4718014e+84
1.1537618e+86
-1.4941471e+86
-4.4743557e+84
-2.4576487e+84
-5.3521262e+84
-2.8893904e+84
-6.009208e+84
2.720067e+84
-3.0005289e+84
-8.6752461e+85
-5.8070448e+84
-5.3101076e+84
5.1262561e+83
9.0106228e+82
1.8201413e+85
1.7922984e+85
-8.6867232e+85
-5.7344952e+84
-5.2403348e+84
5.8486756e+83
1.7362164e+83
1.275698e+84
1.1742121e+86
-1.931968e+84
-1.4982262e+86
-5.7491378e+84
1.1968227e+86
1.8582734e+84
-1.5354141e+86
-3.9495322e+84
-1.5916673e+84
2.221621e+84
-3.6308728e+84
-1.9955219e+84
-4.6569896e+84
1.8995161e+84
1.1865198e+86
-1.5201105e+86
-5.293134e+84
1.1780645e+86
-1.5022806e+86
3.0237209e+84
-3.3368531e+84
-1.9890627e+84
3.5911747e+84
-2.8679316e+84
-4.1478659e+84
-2.3852478e+84
-8.7145295e+85
-5.6642291e+84
-5.1667369e+84
6.442318e+83
2.4885632e+83
-1.1441119e+86
-1.9773396e+84
-4.7222265e+84
-1.9144735e+84
-1.4661272e+86
-3.414076e+84
1.1454276e+86
-2.0281577e+84
-1.4801915e+86
-5.4278694e+84
-2.6340083e+84
-5.7333324e+84
-8.627256e+85
-5.7699711e+84
-5.3062141e+84
4.8898318e+83
9.3523679e+82
-1.1424887e+86
-5.1241821e+84
-1.4686519e+86
-3.8143727e+84
-1.1755907e+86
-1.5632252e+84
-3.016664e+84
-1.4250966e+84
-1.5002939e+86
-4.3814793e+84
1.1849146e+86
-1.6200739e+84
-1.5213566e+86
-5.6957183e+84
-1.9967447e+84
-4.7125371e+84
-1.175224e+86
-4.4267236e+84
-1.7352141e+84
-1.5075981e+86
-5.2387488e+84
-1.4699236e+86
-6.3236273e+84
-1.2074401e+86
-1.4029121e+84
2.5148001e+84
-3.40927e+84
-1.3560346e+84
-1.5316382e+86
1.6663119e+84
-3.2518489e+84
1.2133956e+86
-1.554573e+86
-1.110379e+84
-5.9812832e+84
-1.555636e+84
-4.7233403e+84
-1.2319275e+86
-9.2000441e+83
1.3172058e+84
-3.2241667e+84
-8.9028677e+83
1.3044563e+84
-1.5669806e+86
-5.3158915e+84
1.2485713e+86
-7.3952253e+83
-1.6017545e+86
-6.9116831e+84
-1.0353006e+84
-5.5801186e+84
-1.2219957e+86
-1.6082557e+84
-3.8855062e+84
-1.0910663e+84
-1.5598652e+86
-3.6657812e+84
1.2031765e+86
-1.533701e+86
-1.9012486e+84
-6.4924967e+84
-1.9101073e+84
-5.2513883e+84
-1.2523525e+86
-1.1370218e+84
-5.2251848e+84
-5.4770329e+83
-1.6062267e+86
-6.4614074e+84
1.237934e+86
-1.0232084e+84
-1.5820474e+86
-7.4082482e+84
-1.5003482e+84
-6.156323e+84
9.7190234e+83
1.2155376e+86
-1.5481485e+86
-7.6769509e+84
1.2358962e+86
7.3765257e+83
-1.5822962e+86
-6.2049269e+84
-1.5446555e+84
7.0324264e+83
1.5407551e+86
-3.7037859e+84
1.5065214e+86
-6.6698706e+84
8.8443867e+83
1.2467116e+86
-1.597191e+86
-7.0413024e+84
1.2443981e+86
-1.5819284e+86
-3.7239916e+84
-5.0050514e+83
1.5415993e+86
-3.2554038e+84
1.5542595e+86
-4.8507145e+84
-1.2065928e+86
-1.0030865e+84
-4.8868875e+84
-8.5610948e+83
-4.2760604e+84
1.2145877e+86
-8.1578612e+83
-5.6327727e+84
-1.5539644e+84
-5.6813333e+84
1.0477663e+84
1.1834705e+86
-6.5427437e+84
1.2043505e+86
-4.795422e+84
-2.1372339e+84
-5.4490218e+84
-6.5942653e+84
-3.2423743e+84
-1.1571461e+86
4.6290046e+84
-4.2430789e+84
-1.1708823e+86
-4.0291706e+84
-4.9933613e+84
-3.1374592e+84
-1.4820854e+86
4.1234648e+84
-3.6738533e+84
-3.5301529e+84
-1.5091865e+86
-4.7042717e+84
3.1876989e+84
-1.1630587e+86
-3.7934048e+84
-5.525024e+84
-1.1783965e+86
-4.9367368e+84
-2.3702733e+84
-1.5235639e+86
-4.0903147e+84
-1.4949648e+86
-3.2705423e+84
-4.9391117e+84
1.9473156e+84
1.2005856e+86
-2.5265421e+84
-1.5339709e+86
-5.1883859e+84
1.2209791e+86
2.8380487e+84
-1.5671783e+86
-3.6123513e+84
2.3773093e+84
-2.7655557e+84
-4.14914e+84
3.3488746e+84
-3.2537889e+84
2.677195e+84
1.2071849e+86
-1.5496692e+86
-5.1181911e+84
1.1911181e+86
-1.5205391e+86
3.7733998e+84
-4.0332362e+84
-2.8838423e+84
4.209348e+84
-3.3060699e+84
-4.2099778e+84
-1.0201763e+84
2.3061777e+85
-2.8875131e+85
-8.7406366e+83
2.2573036e+85
-2.811494e+85
-9.1831174e+83
9.563494e+83
-6.9697116e+83
-6.5183428e+83
-1.1432738e+84
2.1847489e+85
-2.6214883e+85
-2.8734802e+84
2.216945e+85
-1.4667311e+84
-2.6348871e+85
-2.8982945e+84
-9.9716891e+83
-1.526439e+84
-1.1630563e+84
-1.5421991e+84
-1.0929196e+84
-2.2203462e+85
-1.6066652e+84
-2.1865191e+85
-1.3684923e+84
-1.6299386e+84
-1.1327998e+84
-2.6685847e+85
-2.9685863e+84
-2.5802396e+85
-1.5864961e+84
-3.0058624e+84
-2.9146022e+84
1.8353907e+85
1.8088137e+85
-8.7478295e+85
-5.7396966e+84
-5.2630491e+84
5.5629449e+83
1.7043954e+83
-1.1421315e+86
-2.5876693e+84
-5.1273845e+84
2.6015508e+84
1.1471483e+86
-3.0110463e+84
-1.4807474e+86
-5.5550614e+84
-1.4635544e+86
-3.8524281e+84
-3.4707728e+84
-5.8798691e+84
-3.3876895e+84
1.8301414e+85
1.7925103e+85
-8.6867874e+85
-5.8177849e+84
-5.353227e+84
4.816739e+83
9.0912598e+82
-1.1498018e+84
2.1574204e+85
-2.5884673e+85
-2.900712e+84
2.1809593e+85
-1.5304482e+84
-2.5880797e+85
-2.925164e+84
-1.0274216e+84
-1.5538543e+84
-1.2469544e+84
-1.5672451e+84
-1.2097359e+84
-2.181787e+85
-1.6319919e+84
-2.1449765e+85
-1.6478485e+84
-1.1979694e+84
-2.6218842e+85
-2.9491929e+84
-2.5230616e+85
-2.9810975e+84
-1.1502088e+86
-3.2705216e+84
-5.2153735e+84
-2.5664777e+84
-1.4803071e+86
-3.909887e+84
1.1291859e+86
-1.4511316e+86
-5.7486648e+84
-6.1323561e+84
3.1064814e+84
1.8027465e+85
1.7640607e+85
-8.5448218e+85
-5.7611098e+84
-5.272914e+84
4.7099424e+83
5.8808247e+82
1.8062948e+85
1.7776377e+85
-8.5929892e+85
-5.6631296e+84
-5.1947738e+84
5.3315893e+83
1.4230142e+83
-1.1731622e+86
-2.324484e+84
-3.4146789e+84
-2.20527e+84
-1.49602e+86
-4.7255872e+84
1.1857919e+86
-2.6868604e+84
-1.5234156e+86
-5.9758923e+84
-3.034667e+84
-4.8690427e+84
-1.1850067e+86
-2.7365855e+84
-4.533194e+84
-2.045593e+84
-1.5241463e+86
-5.221008e+84
1.1680182e+86
-1.4937313e+86
-6.0366893e+84
-5.200046e+84
-1.2649067e+86
-2.0891566e+84
1.5676145e+86
3.7564399e+84
-2.8014374e+84
-1.9957022e+84
-1.6079273e+86
3.1122578e+84
-3.6148694e+84
1.2718679e+86
-1.7054436e+84
-1.6237177e+86
-6.4341466e+84
1.5893003e+86
-2.0363263e+84
-4.6131576e+84
2.3274311e+84
1.2384591e+86
-2.0391615e+84
-5.2372883e+84
1.2261375e+86
3.7888059e+84
-2.8083135e+84
-2.3370571e+84
4.0856553e+84
-4.1173014e+84
-2.6818847e+84
-5.2797894e+84
-1.252803e+86
-2.1812646e+84
-3.7212233e+84
-1.3976334e+84
-1.6050839e+86
-3.7662924e+84
1.2341463e+86
-1.5767572e+86
-1.9877333e+84
-5.4467443e+84
-2.3039206e+84
-4.9756302e+84
-1.2871785e+86
-1.4820571e+84
-3.9480691e+84
-8.8331513e+83
-1.6482365e+86
-4.5740953e+84
1.2689284e+86
-1.760324e+84
-1.6123986e+86
-5.0891261e+84
-1.8536309e+84
-4.370133e+84
9.2213925e+83
1.2384399e+86
-1.5818811e+86
-7.1337359e+84
1.2642035e+86
1.4567021e+84
-1.6214361e+86
-4.3253061e+84
-1.2153798e+84
1.9783996e+84
1.5694417e+86
-3.8605214e+84
1.5319211e+86
-5.2670213e+84
1.3936326e+84
1.2570056e+86
-1.6117838e+86
-7.3657539e+84
1.2386159e+86
-1.5790504e+86
-6.4111759e+84
-1.4309595e+84
1.5370408e+86
-5.2743955e+84
1.5646052e+86
-6.3035744e+84
-1.204604e+86
-1.7952432e+84
-5.5959963e+84
-1.7435103e+84
-5.2457572e+84
1.2197533e+86
-2.2181648e+84
-6.2259463e+84
-2.8572055e+84
-6.158815e+84
1.069056e+84
1.2014321e+86
-5.8738748e+84
1.2204147e+86
-4.7388746e+84
-2.2449754e+84
-5.2531206e+84
-6.0845408e+84
4.497752e+86
4.3068713e+86
-4.3289719e+86
5.2883988e+86
-3.9473582e+84
4.4362278e+86
4.0535994e+86
-7.2657231e+85
-4.0482868e+86
9.0448878e+85
4.2152731e+85
-7.2560428e+84
-1.5770701e+85
3.6070445e+85
-4.2802172e+86
-8.0552587e+85
4.2563e+85
-1.0494427e+85
-1.5772827e+85
3.5256152e+85
-7.6074526e+85
1.2004962e+86
4.1484137e+84
-1.1241863e+86
1.3162696e+84
6.1496203e+85
-4.2063443e+86
-7.8442336e+85
4.3608744e+85
-9.3091465e+84
-1.4465942e+85
3.5329255e+85
-4.2444383e+86
4.2104769e+85
-9.2471849e+84
-1.7122143e+85
3.5684096e+85
-8.2886192e+85
-4.6444859e+86
5.1842333e+83
-4.2318668e+86
-1.1469764e+86
-2.6312024e+84
-5.2331413e+86
4.4848086e+86
3.9737354e+86
-1.8233654e+85
-1.2946462e+86
-1.7075476e+84
3.0083197e+84
-3.5029884e+84
-1.8717191e+84
-1.6392798e+86
2.221132e+84
-3.440663e+84
1.2964286e+86
-1.6569546e+86
-1.3653528e+84
-7.2424702e+84
-1.7634234e+84
-5.5044492e+84
-1.3121683e+86
-1.9610461e+84
2.3926617e+84
-2.6759301e+84
-2.2680196e+84
-1.6425437e+86
2.5696562e+84
-6.3010719e+84
1.3239499e+86
-2.2004471e+84
-1.6750438e+86
-8.111219e+84
-1.994973e+84
-6.1829275e+84
-1.3122695e+86
-1.6170469e+84
-4.2530559e+84
-1.3057677e+84
-1.6709615e+86
-4.2557228e+84
-1.2922726e+86
-2.1216719e+84
-5.7803205e+84
-1.6425516e+86
-2.1571165e+84
-7.474146e+84
-1.3348698e+86
-1.9595051e+84
-5.7986722e+84
-1.9468424e+84
-1.688563e+86
-7.690932e+84