/*--------------------------------*- C++ -*----------------------------------*\
  =========                 |
  \\      /  F ield         | OpenFOAM: The Open Source CFD Toolbox
   \\    /   O peration     | Website:  https://openfoam.org
    \\  /    A nd           | Version:  7
     \\/     M anipulation  |
\*---------------------------------------------------------------------------*/
FoamFile
{
    version     2.0;
    format      ascii;
    class       volScalarField;
    location    "2000";
    object      pMean;
}
// * * * * * * * * * * * * * * * * * * * * * * * * * * * * * * * * * * * * * //

dimensions      [0 2 -2 0 0 0 0];

internalField   nonuniform List<scalar> 
34387
(
-1.744179e+179
-1.7443995e+179
-1.6968738e+179
-1.6982879e+179
-1.7149845e+179
-1.747984e+179
-1.7470178e+179
-1.6986491e+179
-1.6988944e+179
-1.7933294e+179
-1.7930117e+179
-1.7659129e+179
-1.7647959e+179
-1.7429451e+179
-1.7417914e+179
-1.7666696e+179
-1.7950829e+179
-1.7946167e+179
-1.7667982e+179
-1.7449161e+179
-1.7431606e+179
-1.6599611e+179
-1.7314589e+179
-1.7080857e+179
-1.708312e+179
-1.7293489e+179
-1.7289335e+179
-1.7076214e+179
-1.7081925e+179
-1.7283929e+179
-1.6628928e+179
-1.6402686e+179
-1.6423753e+179
-1.5677899e+179
-1.7525003e+179
-1.7507753e+179
-1.7022254e+179
-1.7009005e+179
-1.7078837e+179
-1.7067484e+179
-1.7289257e+179
-1.7295579e+179
-1.7708783e+179
-1.7467029e+179
-1.746252e+179
-1.7708523e+179
-1.7683615e+179
-1.7695015e+179
-1.7443972e+179
-1.7455008e+179
-1.7332254e+179
-1.7107869e+179
-1.7099416e+179
-1.6592027e+179
-1.7324453e+179
-1.6601608e+179
-1.7318041e+179
-1.7095823e+179
-1.7099113e+179
-1.731159e+179
-1.6380343e+179
-1.6390716e+179
-1.7945109e+179
-1.7941105e+179
-1.7760206e+179
-1.7900811e+179
-1.7904822e+179
-1.7938756e+179
-1.7759827e+179
-1.7899113e+179
-1.7899111e+179
-1.7661653e+179
-1.7661308e+179
-1.789736e+179
-1.7758741e+179
-1.7895083e+179
-1.7754533e+179
-1.7654157e+179
-1.7653171e+179
-1.7526807e+179
-1.7440543e+179
-1.7527904e+179
-1.7442347e+179
-1.7432246e+179
-1.7441754e+179
-1.7526695e+179
-1.7519442e+179
-1.7774752e+179
-1.7775397e+179
-1.7666577e+179
-1.7663464e+179
-1.8040572e+179
-1.7957326e+179
-1.7953549e+179
-1.7916561e+179
-1.7772777e+179
-1.7913598e+179
-1.7950442e+179
-1.7949308e+179
-1.7768592e+179
-1.7909782e+179
-1.7910722e+179
-1.7667434e+179
-1.7662651e+179
-1.7446712e+179
-1.7538249e+179
-1.7540079e+179
-1.7450507e+179
-1.7446361e+179
-1.7444719e+179
-1.7535082e+179
-1.7532321e+179
-1.6723377e+179
-1.6904761e+179
-1.6928892e+179
-1.6710573e+179
-1.7333763e+179
-1.7288242e+179
-1.734213e+179
-1.7293502e+179
-1.7190195e+179
-1.7195305e+179
-1.7275969e+179
-1.7280544e+179
-1.7175329e+179
-1.7253416e+179
-1.7238525e+179
-1.7177378e+179
-1.7273214e+179
-1.7335114e+179
-1.7330092e+179
-1.7266955e+179
-1.7263439e+179
-1.7258113e+179
-1.7321289e+179
-1.7326154e+179
-1.7167134e+179
-1.7164867e+179
-1.6931487e+179
-1.7240495e+179
-1.7233938e+179
-1.716359e+179
-1.7170739e+179
-1.6941403e+179
-1.7233691e+179
-1.7238621e+179
-1.7325737e+179
-1.726102e+179
-1.7255731e+179
-1.7317051e+179
-1.6720596e+179
-1.6770006e+179
-1.6030178e+179
-1.6055702e+179
-1.8144116e+179
-1.5570846e+179
-1.5656236e+179
-1.7768489e+179
-1.7768995e+179
-1.7525852e+179
-1.7513786e+179
-1.7748129e+179
-1.7735405e+179
-1.7502368e+179
-1.7485563e+179
-1.7384373e+179
-1.7156784e+179
-1.7132713e+179
-1.7367135e+179
-1.6604348e+179
-1.7359711e+179
-1.7125113e+179
-1.7124009e+179
-1.7347243e+179
-1.6602021e+179
-1.6364541e+179
-1.6375735e+179
-1.7828092e+179
-1.7832695e+179
-1.772334e+179
-1.7716933e+179
-1.7485611e+179
-1.7489781e+179
-1.7583892e+179
-1.7579053e+179
-1.7484675e+179
-1.7489096e+179
-1.7576927e+179
-1.7570573e+179
-1.7699239e+179
-1.7703984e+179
-1.7824083e+179
-1.7818289e+179
-1.7802237e+179
-1.7792723e+179
-1.769759e+179
-1.7688398e+179
-1.7805419e+179
-1.7807169e+179
-1.7699968e+179
-1.7697488e+179
-1.7463815e+179
-1.7558269e+179
-1.7546395e+179
-1.7452195e+179
-1.7471792e+179
-1.7471665e+179
-1.7561737e+179
-1.7563132e+179
-1.7319434e+179
-1.7306368e+179
-1.7367555e+179
-1.7371974e+179
-1.6926953e+179
-1.7208587e+179
-1.728824e+179
-1.7201389e+179
-1.7297479e+179
-1.7190346e+179
-1.7191871e+179
-1.7281487e+179
-1.7269336e+179
-1.6929052e+179
-1.6723728e+179
-1.6694723e+179
-1.7368722e+179
-1.7303752e+179
-1.7360869e+179
-1.7294365e+179
-1.693111e+179
-1.6932666e+179
-1.6694729e+179
-1.6731272e+179
-1.7292083e+179
-1.728677e+179
-1.7350939e+179
-1.7355697e+179
-1.718528e+179
-1.7186411e+179
-1.726309e+179
-1.726828e+179
-1.7184476e+179
-1.7265689e+179
-1.7272871e+179
-1.7195627e+179
-1.7291247e+179
-1.728557e+179
-1.7351542e+179
-1.7340071e+179
-1.5994629e+179
-1.6004214e+179
-1.799161e+179
-1.7991104e+179
-1.7988653e+179
-1.7987658e+179
-1.7986401e+179
-1.7985222e+179
-1.7989988e+179
-1.7988468e+179
-1.782208e+179
-1.7783574e+179
-1.7780063e+179
-1.7818506e+179
-1.7896519e+179
-1.7899271e+179
-1.7986868e+179
-1.7985952e+179
-1.7983992e+179
-1.7983064e+179
-1.7779934e+179
-1.7778824e+179
-1.7816968e+179
-1.7817728e+179
-1.7893263e+179
-1.7894409e+179
-1.7673765e+179
-1.7673191e+179
-1.7706887e+179
-1.770709e+179
-1.7673831e+179
-1.7676142e+179
-1.7711426e+179
-1.7707096e+179
-1.7891185e+179
-1.7817992e+179
-1.7780431e+179
-1.7779031e+179
-1.7815428e+179
-1.7890455e+179
-1.781451e+179
-1.7778394e+179
-1.7704861e+179
-1.7670295e+179
-1.766689e+179
-1.7702273e+179
-1.770094e+179
-1.7666719e+179
-1.7666803e+179
-1.7601848e+179
-1.7574923e+179
-1.7573639e+179
-1.7599365e+179
-1.7507091e+179
-1.7480645e+179
-1.7476555e+179
-1.7504701e+179
-1.7599556e+179
-1.7574319e+179
-1.7572947e+179
-1.7598992e+179
-1.7503846e+179
-1.7477177e+179
-1.7476605e+179
-1.7505511e+179
-1.7470971e+179
-1.7474123e+179
-1.7500931e+179
-1.7499102e+179
-1.7474579e+179
-1.7476551e+179
-1.7505219e+179
-1.750094e+179
-1.7596449e+179
-1.7568606e+179
-1.7566738e+179
-1.7593539e+179
-1.7564616e+179
-1.7566282e+179
-1.7594412e+179
-1.7593391e+179
-1.7844079e+179
-1.7839052e+179
-1.7804179e+179
-1.7800442e+179
-1.7834504e+179
-1.7834901e+179
-1.7796212e+179
-1.7796554e+179
-1.7685282e+179
-1.7683099e+179
-1.7720676e+179
-1.7720368e+179
-1.7685227e+179
-1.7689841e+179
-1.7728166e+179
-1.7722107e+179
-1.8044735e+179
-1.8043269e+179
-1.8052246e+179
-1.8053254e+179
-1.8001699e+179
-1.7999946e+179
-1.7999484e+179
-1.7997625e+179
-1.7996392e+179
-1.7995889e+179
-1.7999566e+179
-1.7999632e+179
-1.790943e+179
-1.7834692e+179
-1.77944e+179
-1.7796607e+179
-1.7832093e+179
-1.7907864e+179
-1.7998652e+179
-1.7998846e+179
-1.7994148e+179
-1.7993585e+179
-1.7992691e+179
-1.7990957e+179
-1.7997784e+179
-1.7995173e+179
-1.7830226e+179
-1.7792436e+179
-1.7789261e+179
-1.7827917e+179
-1.7903491e+179
-1.7905215e+179
-1.7719595e+179
-1.7685353e+179
-1.7681293e+179
-1.7716565e+179
-1.7713532e+179
-1.7678675e+179
-1.7677641e+179
-1.7713098e+179
-1.7516684e+179
-1.7486324e+179
-1.7485163e+179
-1.7511939e+179
-1.7579236e+179
-1.7583838e+179
-1.7616355e+179
-1.7609168e+179
-1.7605064e+179
-1.7575969e+179
-1.7578838e+179
-1.7607974e+179
-1.7508492e+179
-1.7482113e+179
-1.7484974e+179
-1.7514493e+179
-1.7480967e+179
-1.748063e+179
-1.7508774e+179
-1.7507549e+179
-1.7480522e+179
-1.7482151e+179
-1.7512276e+179
-1.7509157e+179
-1.7608961e+179
-1.7578582e+179
-1.7576928e+179
-1.7605898e+179
-1.7574034e+179
-1.7574513e+179
-1.7602983e+179
-1.7602435e+179
-1.6691508e+179
-1.7122759e+179
-1.7126111e+179
-1.7183958e+179
-1.7137776e+179
-1.711634e+179
-1.7124597e+179
-1.7140244e+179
-1.7176069e+179
-1.6666301e+179
-1.7415702e+179
-1.7390083e+179
-1.7392718e+179
-1.7413987e+179
-1.7334765e+179
-1.7304781e+179
-1.7308905e+179
-1.7337419e+179
-1.7411696e+179
-1.7390831e+179
-1.7413009e+179
-1.7391133e+179
-1.7334366e+179
-1.730817e+179
-1.7309679e+179
-1.7337465e+179
-1.728449e+179
-1.7294622e+179
-1.7285064e+179
-1.7273353e+179
-1.730196e+179
-1.7293312e+179
-1.7271499e+179
-1.7292068e+179
-1.7240415e+179
-1.7240503e+179
-1.7256449e+179
-1.7254097e+179
-1.7248363e+179
-1.7249588e+179
-1.7252024e+179
-1.7252841e+179
-1.7259375e+179
-1.7267954e+179
-1.7247471e+179
-1.7257874e+179
-1.7245868e+179
-1.7236069e+179
-1.7246755e+179
-1.7249773e+179
-1.7238623e+179
-1.7235282e+179
-1.7228712e+179
-1.7231616e+179
-1.724733e+179
-1.7266976e+179
-1.7240137e+179
-1.7252567e+179
-1.733812e+179
-1.7309218e+179
-1.7310481e+179
-1.7336847e+179
-1.7388752e+179
-1.7390616e+179
-1.7417067e+179
-1.7413142e+179
-1.7408084e+179
-1.73867e+179
-1.7383342e+179
-1.7408933e+179
-1.7335247e+179
-1.7306088e+179
-1.7299929e+179
-1.7332505e+179
-1.7297108e+179
-1.7300791e+179
-1.7328525e+179
-1.7326174e+179
-1.7297797e+179
-1.7297874e+179
-1.7328786e+179
-1.7326554e+179
-1.7410922e+179
-1.7385005e+179
-1.7384595e+179
-1.7409087e+179
-1.7383762e+179
-1.738537e+179
-1.7409507e+179
-1.7408956e+179
-1.7111224e+179
-1.7246571e+179
-1.7224932e+179
-1.724607e+179
-1.7249341e+179
-1.7120203e+179
-1.7248488e+179
-1.7236028e+179
-1.7237958e+179
-1.7247929e+179
-1.7175881e+179
-1.7156605e+179
-1.7229242e+179
-1.7226815e+179
-1.7239294e+179
-1.7236882e+179
-1.7234254e+179
-1.7219725e+179
-1.7231631e+179
-1.723983e+179
-1.7119476e+179
-1.7245892e+179
-1.7227434e+179
-1.7240833e+179
-1.7249562e+179
-1.7118795e+179
-1.7253692e+179
-1.7229405e+179
-1.722544e+179
-1.7246215e+179
-1.7166266e+179
-1.7218056e+179
-1.7219074e+179
-1.7221363e+179
-1.7234408e+179
-1.7227229e+179
-1.7229203e+179
-1.7220274e+179
-1.723354e+179
-1.7236215e+179
-1.7407999e+179
-1.7385624e+179
-1.738078e+179
-1.7405517e+179
-1.7328139e+179
-1.729793e+179
-1.7295917e+179
-1.7325601e+179
-1.7290507e+179
-1.7297262e+179
-1.7326526e+179
-1.7322499e+179
-1.7406502e+179
-1.7381252e+179
-1.7378183e+179
-1.7404274e+179
-1.6676999e+179
-1.6731985e+179
-1.58901e+179
-1.5916886e+179
-1.7638495e+179
-1.8237925e+179
-1.8508072e+179
-1.8501374e+179
-1.8231772e+179
-1.8810416e+179
-1.8793145e+179
-1.5551055e+179
-1.6012544e+179
-1.5984584e+179
-1.5642295e+179
-1.7889289e+179
-1.7888351e+179
-1.7774015e+179
-1.7776731e+179
-1.7883507e+179
-1.7878262e+179
-1.7771477e+179
-1.7771875e+179
-1.7636807e+179
-1.7547904e+179
-1.7540049e+179
-1.7635025e+179
-1.7529199e+179
-1.7629181e+179
-1.7623935e+179
-1.7527514e+179
-1.786168e+179
-1.7864317e+179
-1.7754305e+179
-1.7752311e+179
-1.7857196e+179
-1.784981e+179
-1.77443e+179
-1.7748388e+179
-1.7515765e+179
-1.7517503e+179
-1.761267e+179
-1.7610983e+179
-1.7506303e+179
-1.7604807e+179
-1.759637e+179
-1.7500863e+179
-1.7417805e+179
-1.7359141e+179
-1.7357204e+179
-1.7419656e+179
-1.7248487e+179
-1.7265077e+179
-1.7340275e+179
-1.7335604e+179
-1.6967693e+179
-1.7323136e+179
-1.7239288e+179
-1.722967e+179
-1.7310946e+179
-1.6953931e+179
-1.7344136e+179
-1.7334231e+179
-1.7412838e+179
-1.7403949e+179
-1.672754e+179
-1.6699115e+179
-1.7324496e+179
-1.7391969e+179
-1.7331195e+179
-1.7395256e+179
-1.7219248e+179
-1.7221983e+179
-1.7302737e+179
-1.694937e+179
-1.7308244e+179
-1.722426e+179
-1.7218977e+179
-1.6948869e+179
-1.7303354e+179
-1.7295466e+179
-1.7314366e+179
-1.7322189e+179
-1.7389691e+179
-1.7380254e+179
-1.6694911e+179
-1.6732191e+179
-1.5968548e+179
-1.5976881e+179
-1.7896393e+179
-1.7854963e+179
-1.7852263e+179
-1.7895385e+179
-1.7903166e+179
-1.786146e+179
-1.7858419e+179
-1.789959e+179
-1.7783291e+179
-1.7745774e+179
-1.7739691e+179
-1.7778642e+179
-1.7773706e+179
-1.7735664e+179
-1.7733495e+179
-1.7772669e+179
-1.7521602e+179
-1.7523936e+179
-1.7556863e+179
-1.7554438e+179
-1.7526266e+179
-1.753464e+179
-1.7567212e+179
-1.7559956e+179
-1.766814e+179
-1.7637045e+179
-1.7631353e+179
-1.766238e+179
-1.762409e+179
-1.7627345e+179
-1.7658299e+179
-1.7655878e+179
-1.7517641e+179
-1.7518301e+179
-1.754752e+179
-1.7546882e+179
-1.7519997e+179
-1.7520656e+179
-1.7552346e+179
-1.7547969e+179
-1.7649845e+179
-1.7618784e+179
-1.7616113e+179
-1.7645176e+179
-1.7642699e+179
-1.7613242e+179
-1.7614239e+179
-1.7644249e+179
-1.7720596e+179
-1.7720323e+179
-1.7761995e+179
-1.7761237e+179
-1.7722608e+179
-1.7727095e+179
-1.7768665e+179
-1.7763233e+179
-1.7893758e+179
-1.7847676e+179
-1.7844144e+179
-1.7889388e+179
-1.7840567e+179
-1.784165e+179
-1.7887222e+179
-1.7885847e+179
-1.7864829e+179
-1.7859402e+179
-1.7826778e+179
-1.7821739e+179
-1.784975e+179
-1.7852278e+179
-1.7809486e+179
-1.7813786e+179
-1.7748653e+179
-1.7713232e+179
-1.7742409e+179
-1.7708779e+179
-1.7704952e+179
-1.7739286e+179
-1.7735798e+179
-1.7700168e+179
-1.7867764e+179
-1.7870147e+179
-1.7830352e+179
-1.7831219e+179
-1.7834216e+179
-1.7837643e+179
-1.7880091e+179
-1.7874707e+179
-1.7716068e+179
-1.7715553e+179
-1.7753584e+179
-1.7752495e+179
-1.7716602e+179
-1.77192e+179
-1.7758448e+179
-1.7754757e+179
-1.7500639e+179
-1.7505729e+179
-1.7536198e+179
-1.7531277e+179
-1.763728e+179
-1.7605625e+179
-1.7602664e+179
-1.7632765e+179
-1.7628077e+179
-1.7599602e+179
-1.76222e+179
-1.7594078e+179
-1.7525707e+179
-1.7495734e+179
-1.7492682e+179
-1.7524171e+179
-1.7508248e+179
-1.7506899e+179
-1.7537705e+179
-1.7538627e+179
-1.7509465e+179
-1.7511113e+179
-1.7542787e+179
-1.7539747e+179
-1.7610449e+179
-1.7611776e+179
-1.7642867e+179
-1.7639986e+179
-1.7637963e+179
-1.7608143e+179
-1.7608811e+179
-1.7639417e+179
-1.7335842e+179
-1.7333744e+179
-1.7366586e+179
-1.7367771e+179
-1.7342168e+179
-1.7340897e+179
-1.7373001e+179
-1.7369395e+179
-1.7462794e+179
-1.7433337e+179
-1.7428338e+179
-1.7456483e+179
-1.745132e+179
-1.7421971e+179
-1.7421574e+179
-1.7451472e+179
-1.7133893e+179
-1.7200174e+179
-1.7143522e+179
-1.712984e+179
-1.7307028e+179
-1.7299085e+179
-1.7286991e+179
-1.7304112e+179
-1.7274805e+179
-1.7274056e+179
-1.7281126e+179
-1.7285284e+179
-1.7312757e+179
-1.7312977e+179
-1.7303889e+179
-1.7300778e+179
-1.7270197e+179
-1.7277718e+179
-1.7277345e+179
-1.7276866e+179
-1.7126588e+179
-1.7271677e+179
-1.7286017e+179
-1.7274664e+179
-1.7268086e+179
-1.7129577e+179
-1.728347e+179
-1.7286305e+179
-1.7287238e+179
-1.7289458e+179
-1.7273294e+179
-1.7272208e+179
-1.727735e+179
-1.7280067e+179
-1.7264355e+179
-1.7264885e+179
-1.7275732e+179
-1.727019e+179
-1.7137206e+179
-1.7173844e+179
-1.6676496e+179
-1.6640631e+179
-1.7449612e+179
-1.7423914e+179
-1.7423408e+179
-1.7448276e+179
-1.7366569e+179
-1.7335843e+179
-1.7340158e+179
-1.7368095e+179
-1.7446214e+179
-1.7425647e+179
-1.741971e+179
-1.7445803e+179
-1.7367151e+179
-1.7339171e+179
-1.7334432e+179
-1.7363399e+179
-1.7126765e+179
-1.7136097e+179
-1.717493e+179
-1.7154376e+179
-1.7136693e+179
-1.7158961e+179
-1.7204103e+179
-1.7132376e+179
-1.6642835e+179
-1.6687355e+179
-1.7327276e+179
-1.7331685e+179
-1.7355081e+179
-1.7356207e+179
-1.7330272e+179
-1.7329736e+179
-1.7357757e+179
-1.7357315e+179
-1.741537e+179
-1.7415204e+179
-1.744253e+179
-1.7440266e+179
-1.7436447e+179
-1.7412072e+179
-1.7412114e+179
-1.7439193e+179
-1.7269851e+179
-1.7274641e+179
-1.7265561e+179
-1.7268432e+179
-1.7270412e+179
-1.7271655e+179
-1.7254552e+179
-1.7274752e+179
-1.7261902e+179
-1.7250445e+179
-1.7266425e+179
-1.7269728e+179
-1.7266709e+179
-1.7257033e+179
-1.7260496e+179
-1.7263898e+179
-1.72867e+179
-1.7271722e+179
-1.7270665e+179
-1.7281891e+179
-1.7261341e+179
-1.725832e+179
-1.7259137e+179
-1.7258611e+179
-1.7242359e+179
-1.7257641e+179
-1.7244132e+179
-1.7241141e+179
-1.7297976e+179
-1.7305133e+179
-1.729484e+179
-1.7277308e+179
-1.7309417e+179
-1.7312247e+179
-1.7349329e+179
-1.7342924e+179
-1.7323361e+179
-1.7323635e+179
-1.735422e+179
-1.7353504e+179
-1.7437221e+179
-1.740946e+179
-1.7406814e+179
-1.7432549e+179
-1.7393539e+179
-1.7397612e+179
-1.7425584e+179
-1.742299e+179
-1.584916e+179
-1.5860314e+179
-1.7970597e+179
-1.7969369e+179
-1.7982033e+179
-1.7981039e+179
-1.7979483e+179
-1.7978322e+179
-1.7968237e+179
-1.7966888e+179
-1.7834759e+179
-1.7779171e+179
-1.7776372e+179
-1.783203e+179
-1.7885306e+179
-1.7885897e+179
-1.7916417e+179
-1.7916012e+179
-1.7887691e+179
-1.7888433e+179
-1.7918753e+179
-1.7918346e+179
-1.7966083e+179
-1.7964594e+179
-1.7977895e+179
-1.7977111e+179
-1.7775013e+179
-1.777495e+179
-1.78303e+179
-1.7829689e+179
-1.7882534e+179
-1.788242e+179
-1.7912785e+179
-1.791271e+179
-1.7883645e+179
-1.7883776e+179
-1.7914277e+179
-1.7914122e+179
-1.7664971e+179
-1.7665658e+179
-1.7716597e+179
-1.7716082e+179
-1.7666512e+179
-1.7668311e+179
-1.7720398e+179
-1.7717402e+179
-1.7828969e+179
-1.788053e+179
-1.7880597e+179
-1.791066e+179
-1.7910662e+179
-1.7775086e+179
-1.777403e+179
-1.7828121e+179
-1.7879254e+179
-1.7879365e+179
-1.7909216e+179
-1.7909033e+179
-1.7826063e+179
-1.7773099e+179
-1.7715388e+179
-1.7662677e+179
-1.7660929e+179
-1.7714144e+179
-1.7712423e+179
-1.7659444e+179
-1.7658506e+179
-1.7612914e+179
-1.7571357e+179
-1.7569453e+179
-1.7611668e+179
-1.7520961e+179
-1.7475777e+179
-1.7473106e+179
-1.7519549e+179
-1.7610937e+179
-1.7570499e+179
-1.756765e+179
-1.7609768e+179
-1.751891e+179
-1.7472692e+179
-1.7473015e+179
-1.7518989e+179
-1.7467399e+179
-1.7469183e+179
-1.7515333e+179
-1.751233e+179
-1.7470619e+179
-1.7473636e+179
-1.7517362e+179
-1.7515832e+179
-1.7606979e+179
-1.7565473e+179
-1.7564513e+179
-1.7605242e+179
-1.7560637e+179
-1.7563224e+179
-1.7604707e+179
-1.7603655e+179
-1.7858084e+179
-1.785346e+179
-1.7800361e+179
-1.779612e+179
-1.7846762e+179
-1.7849666e+179
-1.7792909e+179
-1.7791013e+179
-1.7676955e+179
-1.767837e+179
-1.7730191e+179
-1.7732278e+179
-1.768017e+179
-1.7684582e+179
-1.7739483e+179
-1.773485e+179
-1.802232e+179
-1.8020931e+179
-1.805677e+179
-1.8058018e+179
-1.7981457e+179
-1.7979528e+179
-1.7992716e+179
-1.7991229e+179
-1.7989665e+179
-1.7988731e+179
-1.7978454e+179
-1.7978024e+179
-1.7845487e+179
-1.7897867e+179
-1.7898839e+179
-1.7929682e+179
-1.7928987e+179
-1.7788624e+179
-1.7790764e+179
-1.7843894e+179
-1.7896177e+179
-1.7896668e+179
-1.7927355e+179
-1.7926911e+179
-1.7977079e+179
-1.7976256e+179
-1.7987881e+179
-1.7987092e+179
-1.7985407e+179
-1.798379e+179
-1.7974805e+179
-1.7972864e+179
-1.7841728e+179
-1.7786391e+179
-1.778275e+179
-1.7838946e+179
-1.7891216e+179
-1.7892085e+179
-1.7922487e+179
-1.7921747e+179
-1.7893604e+179
-1.7894181e+179
-1.7924803e+179
-1.7924459e+179
-1.7730011e+179
-1.767685e+179
-1.7673848e+179
-1.772779e+179
-1.7724526e+179
-1.7670639e+179
-1.7669277e+179
-1.7722768e+179
-1.7531287e+179
-1.7486562e+179
-1.7481714e+179
-1.7525707e+179
-1.7577938e+179
-1.7584014e+179
-1.7628628e+179
-1.7622956e+179
-1.7620105e+179
-1.7575217e+179
-1.7574171e+179
-1.7618865e+179
-1.7523494e+179
-1.7481487e+179
-1.7481839e+179
-1.7524541e+179
-1.7475145e+179
-1.747658e+179
-1.7521329e+179
-1.7520468e+179
-1.7476484e+179
-1.747876e+179
-1.7525143e+179
-1.7522866e+179
-1.7619776e+179
-1.7574783e+179
-1.7572994e+179
-1.7617423e+179
-1.7570804e+179
-1.7570948e+179
-1.7614104e+179
-1.7613162e+179
-1.6599504e+179
-1.7314264e+179
-1.7260019e+179
-1.7249906e+179
-1.7390274e+179
-1.73459e+179
-1.7253665e+179
-1.7245087e+179
-1.7328705e+179
-1.7356065e+179
-1.7237565e+179
-1.7217727e+179
-1.7318599e+179
-1.7352826e+179
-1.7207091e+179
-1.7228784e+179
-1.7350722e+179
-1.7316386e+179
-1.7215919e+179
-1.7254309e+179
-1.7282898e+179
-1.6557838e+179
-1.7438108e+179
-1.7405682e+179
-1.7400511e+179
-1.7434423e+179
-1.7363765e+179
-1.7327782e+179
-1.7327493e+179
-1.7360104e+179
-1.7433764e+179
-1.7403969e+179
-1.743253e+179
-1.7399412e+179
-1.7358778e+179
-1.7328028e+179
-1.7330635e+179
-1.7360441e+179
-1.7405707e+179
-1.7410335e+179
-1.741486e+179
-1.7409053e+179
-1.7422793e+179
-1.7415507e+179
-1.7411752e+179
-1.7421133e+179
-1.7290279e+179
-1.7320735e+179
-1.7330125e+179
-1.7295599e+179
-1.7330504e+179
-1.7329028e+179
-1.7297717e+179
-1.7301354e+179
-1.7391055e+179
-1.7387024e+179
-1.7387623e+179
-1.7393571e+179
-1.7299593e+179
-1.7323249e+179
-1.7327423e+179
-1.7300218e+179
-1.7296475e+179
-1.7317308e+179
-1.7288686e+179
-1.7315741e+179
-1.7372978e+179
-1.738387e+179
-1.7378116e+179
-1.7383016e+179
-1.7360276e+179
-1.7331925e+179
-1.7329768e+179
-1.735577e+179
-1.7393404e+179
-1.7400471e+179
-1.7433958e+179
-1.7429247e+179
-1.7427054e+179
-1.7390956e+179
-1.7389506e+179
-1.7426416e+179
-1.7354178e+179
-1.7333798e+179
-1.7329654e+179
-1.7352883e+179
-1.731828e+179
-1.7318884e+179
-1.7350134e+179
-1.7349803e+179
-1.7318019e+179
-1.7319962e+179
-1.7351435e+179
-1.7350127e+179
-1.7426937e+179
-1.739118e+179
-1.7391559e+179
-1.74258e+179
-1.7391379e+179
-1.739107e+179
-1.7425375e+179
-1.7425687e+179
-1.720634e+179
-1.7349705e+179
-1.7312815e+179
-1.7205407e+179
-1.7370198e+179
-1.7369561e+179
-1.7382116e+179
-1.738335e+179
-1.7206711e+179
-1.7312798e+179
-1.7344554e+179
-1.7206291e+179
-1.7370704e+179
-1.7373601e+179
-1.7378179e+179
-1.7379156e+179
-1.7284175e+179
-1.7266831e+179
-1.7317016e+179
-1.7313857e+179
-1.7289933e+179
-1.7289823e+179
-1.731998e+179
-1.7310381e+179
-1.7288094e+179
-1.72899e+179
-1.7208439e+179
-1.7345417e+179
-1.7318247e+179
-1.7210217e+179
-1.7372358e+179
-1.737106e+179
-1.7378329e+179
-1.7384677e+179
-1.7217691e+179
-1.7333067e+179
-1.7374259e+179
-1.7210493e+179
-1.7377613e+179
-1.7366393e+179
-1.736867e+179
-1.7380974e+179
-1.7277316e+179
-1.7333252e+179
-1.7307831e+179
-1.7307258e+179
-1.7283753e+179
-1.7280572e+179
-1.7315756e+179
-1.7309014e+179
-1.7286669e+179
-1.7286966e+179
-1.7424984e+179
-1.7389382e+179
-1.7388051e+179
-1.7423431e+179
-1.7349054e+179
-1.7318147e+179
-1.7317349e+179
-1.7347706e+179
-1.7313739e+179
-1.7315372e+179
-1.7346188e+179
-1.7346105e+179
-1.7422402e+179
-1.7386339e+179
-1.738676e+179
-1.7421634e+179
-1.6569339e+179
-1.6641917e+179
-1.6568705e+179
-1.6527693e+179
-1.653917e+179
-1.6613576e+179
-1.6294734e+179
-1.6046248e+179
-1.606556e+179
-1.6312494e+179
-1.7153423e+179
-1.7120935e+179
-1.7693387e+179
-1.767108e+179
-1.7126679e+179
-1.7673306e+179
-1.7667827e+179
-1.7937149e+179
-1.7931062e+179
-1.8494468e+179
-1.8479785e+179
-1.7154619e+179
-1.7653673e+179
-1.8972013e+179
-1.8959789e+179
-1.8945292e+179
-1.9074908e+179
-1.9060702e+179
-1.8938636e+179
-1.5541918e+179
-1.5944835e+179
-1.5954667e+179
-1.6650339e+179
-1.663391e+179
-1.6681921e+179
-1.670286e+179
-1.6642305e+179
-1.6628691e+179
-1.6640444e+179
-1.6665607e+179
-1.7911178e+179
-1.7914436e+179
-1.7959171e+179
-1.7954284e+179
-1.7910169e+179
-1.7952464e+179
-1.7950315e+179
-1.7910468e+179
-1.7835591e+179
-1.7796194e+179
-1.7792175e+179
-1.7831397e+179
-1.7791621e+179
-1.7791237e+179
-1.7830472e+179
-1.7830894e+179
-1.7947498e+179
-1.7908429e+179
-1.7942508e+179
-1.7903567e+179
-1.7894517e+179
-1.7897196e+179
-1.793872e+179
-1.7936604e+179
-1.77808e+179
-1.7783303e+179
-1.7820794e+179
-1.7817948e+179
-1.7785773e+179
-1.7789767e+179
-1.7827986e+179
-1.7823041e+179
-1.7714435e+179
-1.7681572e+179
-1.7678315e+179
-1.7709569e+179
-1.7611557e+179
-1.758176e+179
-1.7579202e+179
-1.7608517e+179
-1.757258e+179
-1.7573878e+179
-1.7606079e+179
-1.76059e+179
-1.7710135e+179
-1.7677841e+179
-1.7678852e+179
-1.7712279e+179
-1.7566572e+179
-1.7568143e+179
-1.7602172e+179
-1.7599064e+179
-1.7674006e+179
-1.7676015e+179
-1.7710561e+179
-1.7706574e+179
-1.7704162e+179
-1.7673726e+179
-1.7669466e+179
-1.7700612e+179
-1.7596757e+179
-1.7565725e+179
-1.7565616e+179
-1.7597217e+179
-1.7927405e+179
-1.7887607e+179
-1.7885374e+179
-1.7925181e+179
-1.793336e+179
-1.789218e+179
-1.7889507e+179
-1.7930118e+179
-1.7812916e+179
-1.7775803e+179
-1.7769893e+179
-1.7808988e+179
-1.780575e+179
-1.7768423e+179
-1.776807e+179
-1.7806069e+179
-1.7920376e+179
-1.788134e+179
-1.7876229e+179
-1.7915726e+179
-1.7865821e+179
-1.7869456e+179
-1.7910527e+179
-1.790752e+179
-1.7753839e+179
-1.7757422e+179
-1.7794031e+179
-1.7790244e+179
-1.7760094e+179
-1.7765095e+179
-1.7803129e+179
-1.7796951e+179
-1.7549091e+179
-1.7550375e+179
-1.7582343e+179
-1.7582327e+179
-1.7555151e+179
-1.7560288e+179
-1.7591502e+179
-1.7586476e+179
-1.7695192e+179
-1.7663291e+179
-1.7659287e+179
-1.7690945e+179
-1.765569e+179
-1.7656311e+179
-1.7688466e+179
-1.7688812e+179
-1.7543855e+179
-1.7549203e+179
-1.7581181e+179
-1.7576042e+179
-1.768676e+179
-1.765333e+179
-1.7649899e+179
-1.7681937e+179
-1.7679317e+179
-1.7649701e+179
-1.7644005e+179
-1.7674367e+179
-1.7573294e+179
-1.7542865e+179
-1.7539555e+179
-1.7572061e+179
-1.7508828e+179
-1.7485156e+179
-1.7481431e+179
-1.7504583e+179
-1.742177e+179
-1.739135e+179
-1.7394129e+179
-1.7421845e+179
-1.7383633e+179
-1.7390734e+179
-1.7416744e+179
-1.7411922e+179
-1.7500101e+179
-1.747353e+179
-1.7469833e+179
-1.7500217e+179
-1.7173755e+179
-1.7327354e+179
-1.7342383e+179
-1.7333539e+179
-1.7329665e+179
-1.7183423e+179
-1.7349013e+179
-1.7356259e+179
-1.7331376e+179
-1.7349412e+179
-1.7331532e+179
-1.7313362e+179
-1.732226e+179
-1.7331571e+179
-1.7322998e+179
-1.7315692e+179
-1.7315409e+179
-1.731555e+179
-1.7239346e+179
-1.7185316e+179
-1.7298774e+179
-1.730858e+179
-1.7312696e+179
-1.7310112e+179
-1.7163716e+179
-1.7327576e+179
-1.7324332e+179
-1.7322429e+179
-1.7330787e+179
-1.7156881e+179
-1.7310178e+179
-1.7323705e+179
-1.7314992e+179
-1.7307657e+179
-1.7308995e+179
-1.7300313e+179
-1.7299178e+179
-1.7304889e+179
-1.7167539e+179
-1.719661e+179
-1.7408374e+179
-1.7373839e+179
-1.7379367e+179
-1.7410109e+179
-1.7371496e+179
-1.7375935e+179
-1.7404424e+179
-1.740874e+179
-1.7465437e+179
-1.746326e+179
-1.7496215e+179
-1.7494106e+179
-1.7465092e+179
-1.7493584e+179
-1.749309e+179
-1.7463164e+179
-1.6681054e+179
-1.6639527e+179
-1.7365989e+179
-1.7363953e+179
-1.7397556e+179
-1.7394361e+179
-1.7459379e+179
-1.7488874e+179
-1.7482836e+179
-1.7456582e+179
-1.7391378e+179
-1.7365207e+179
-1.7362938e+179
-1.7389154e+179
-1.7448903e+179
-1.7454657e+179
-1.7482059e+179
-1.7478116e+179
-1.7162448e+179
-1.7304614e+179
-1.7309182e+179
-1.7301469e+179
-1.7303391e+179
-1.7153957e+179
-1.7307073e+179
-1.7307133e+179
-1.7292559e+179
-1.731376e+179
-1.7301233e+179
-1.7283907e+179
-1.7296056e+179
-1.7304071e+179
-1.7192695e+179
-1.717088e+179
-1.7290675e+179
-1.7299976e+179
-1.7297448e+179
-1.7293536e+179
-1.7158019e+179
-1.7304183e+179
-1.7315922e+179
-1.7289023e+179
-1.7293086e+179
-1.7163525e+179
-1.730912e+179
-1.7306709e+179
-1.7305118e+179
-1.7289987e+179
-1.7173823e+179
-1.7220959e+179
-1.7279714e+179
-1.7291086e+179
-1.729506e+179
-1.729145e+179
-1.7279574e+179
-1.728987e+179
-1.7280136e+179
-1.7278633e+179
-1.7347572e+179
-1.7356331e+179
-1.7387161e+179
-1.7381491e+179
-1.7358204e+179
-1.7358545e+179
-1.7389302e+179
-1.7388759e+179
-1.7477322e+179
-1.7447236e+179
-1.7445106e+179
-1.7473123e+179
-1.7439556e+179
-1.7444976e+179
-1.7472323e+179
-1.7469524e+179
-1.6635345e+179
-1.6676839e+179
-1.5824142e+179
-1.583139e+179
-1.7909906e+179
-1.7851938e+179
-1.7847545e+179
-1.7907291e+179
-1.7916482e+179
-1.7858987e+179
-1.7854559e+179
-1.7912931e+179
-1.7795826e+179
-1.7739323e+179
-1.773299e+179
-1.7790656e+179
-1.7786349e+179
-1.7729214e+179
-1.7725715e+179
-1.7783042e+179
-1.7517915e+179
-1.7521454e+179
-1.7572491e+179
-1.7567653e+179
-1.7522088e+179
-1.7530107e+179
-1.7581428e+179
-1.7573423e+179
-1.7679342e+179
-1.7634428e+179
-1.7627219e+179
-1.7672943e+179
-1.7620432e+179
-1.7625433e+179
-1.7669675e+179
-1.7665846e+179
-1.7510232e+179
-1.7513494e+179
-1.7559539e+179
-1.7559148e+179
-1.7513223e+179
-1.7517252e+179
-1.7564812e+179
-1.7561147e+179
-1.7661096e+179
-1.7616454e+179
-1.7613559e+179
-1.7657455e+179
-1.7654934e+179
-1.7610878e+179
-1.7611308e+179
-1.7654877e+179
-1.7714388e+179
-1.7715791e+179
-1.7773478e+179
-1.7771665e+179
-1.7717911e+179
-1.7721704e+179
-1.7779191e+179
-1.7775326e+179
-1.7905552e+179
-1.7843688e+179
-1.7840807e+179
-1.7902712e+179
-1.7836223e+179
-1.7838138e+179
-1.7900215e+179
-1.7897605e+179
-1.7876334e+179
-1.7871947e+179
-1.7821576e+179
-1.7816606e+179
-1.7862488e+179
-1.7865988e+179
-1.7805365e+179
-1.7809162e+179
-1.7759785e+179
-1.7704663e+179
-1.7754066e+179
-1.770039e+179
-1.7696193e+179
-1.774848e+179
-1.7744379e+179
-1.7692203e+179
-1.7880446e+179
-1.7884033e+179
-1.7824606e+179
-1.7827544e+179
-1.7830008e+179
-1.7833304e+179
-1.7892957e+179
-1.7888534e+179
-1.770711e+179
-1.7708498e+179
-1.7766009e+179
-1.7763059e+179
-1.7710542e+179
-1.7712638e+179
-1.7770083e+179
-1.7767479e+179
-1.7497209e+179
-1.7501775e+179
-1.7551585e+179
-1.7546139e+179
-1.7646937e+179
-1.7603292e+179
-1.7599014e+179
-1.7643379e+179
-1.7639133e+179
-1.7596002e+179
-1.7633718e+179
-1.7589597e+179
-1.7541366e+179
-1.7493087e+179
-1.749008e+179
-1.7538268e+179
-1.7502549e+179
-1.7502791e+179
-1.7553755e+179
-1.7552218e+179
-1.7503618e+179
-1.750634e+179
-1.7556567e+179
-1.7554208e+179
-1.7607048e+179
-1.7608803e+179
-1.7654115e+179
-1.7651676e+179
-1.7649464e+179
-1.7606143e+179
-1.7604242e+179
-1.7648553e+179
-1.7353668e+179
-1.7352762e+179
-1.7388178e+179
-1.7387499e+179
-1.7356001e+179
-1.7359679e+179
-1.7396086e+179
-1.7393409e+179
-1.7476562e+179
-1.7439046e+179
-1.7436667e+179
-1.7470165e+179
-1.7468659e+179
-1.7432464e+179
-1.74309e+179
-1.7467474e+179
-1.7349114e+179
-1.7394984e+179
-1.7257335e+179
-1.7256925e+179
-1.7316669e+179
-1.7259153e+179
-1.7332961e+179
-1.7255832e+179
-1.7253164e+179
-1.7362116e+179
-1.7441777e+179
-1.7434776e+179
-1.7435873e+179
-1.7444055e+179
-1.7353395e+179
-1.7321999e+179
-1.7322183e+179
-1.736089e+179
-1.7439091e+179
-1.7438552e+179
-1.7432376e+179
-1.7434931e+179
-1.7352168e+179
-1.7359702e+179
-1.7322137e+179
-1.7320829e+179
-1.7242123e+179
-1.7334713e+179
-1.737001e+179
-1.7229888e+179
-1.7408507e+179
-1.7414687e+179
-1.7413873e+179
-1.7414364e+179
-1.7330101e+179
-1.7356822e+179
-1.724371e+179
-1.7239087e+179
-1.7419143e+179
-1.7421573e+179
-1.742926e+179
-1.7429868e+179
-1.7320128e+179
-1.7350622e+179
-1.7355168e+179
-1.7323658e+179
-1.7346038e+179
-1.7348956e+179
-1.7323402e+179
-1.7318872e+179
-1.7252079e+179
-1.7283422e+179
-1.6576414e+179
-1.6525586e+179
-1.7465877e+179
-1.7429596e+179
-1.7426192e+179
-1.7463129e+179
-1.7385453e+179
-1.7354276e+179
-1.7354397e+179
-1.738456e+179
-1.7462003e+179
-1.7424716e+179
-1.7423355e+179
-1.7460119e+179
-1.7384124e+179
-1.7354555e+179
-1.7351802e+179
-1.7383543e+179
-1.7233075e+179
-1.7370855e+179
-1.733555e+179
-1.7230719e+179
-1.7234897e+179
-1.7335959e+179
-1.7367048e+179
-1.7233253e+179
-1.7286768e+179
-1.7268374e+179
-1.7348487e+179
-1.7368044e+179
-1.7235938e+179