/*--------------------------------*- C++ -*----------------------------------*\
  =========                 |
  \\      /  F ield         | OpenFOAM: The Open Source CFD Toolbox
   \\    /   O peration     | Website:  https://openfoam.org
    \\  /    A nd           | Version:  7
     \\/     M anipulation  |
\*---------------------------------------------------------------------------*/
FoamFile
{
    version     2.0;
    format      ascii;
    class       volVectorField;
    location    "2000";
    object      U;
}
// * * * * * * * * * * * * * * * * * * * * * * * * * * * * * * * * * * * * * //

dimensions      [0 1 -1 0 0 0 0];

internalField   nonuniform List<vector> 
34387
(
(-4.6656679e+90 1.9768976e+89 7.8063123e+89)
(-4.4569425e+90 6.1385571e+89 7.290663e+89)
(-4.1249229e+90 2.9858393e+89 9.5089093e+88)
(-3.9609986e+90 5.1462007e+89 1.1199828e+89)
(-6.2795943e+90 3.4245279e+89 4.9088011e+89)
(-4.5014642e+90 6.6053738e+89 6.6026279e+89)
(-4.7083956e+90 2.607036e+89 7.2077089e+89)
(-4.2046297e+90 3.73451e+89 6.9980756e+88)
(-3.9981477e+90 5.8265506e+89 9.2047659e+88)
(-3.7554513e+90 8.4936868e+88 -3.0389337e+89)
(-3.7481411e+90 1.1571985e+89 -3.2775599e+89)
(-4.0920534e+90 3.5624685e+89 2.9687165e+88)
(-4.1071871e+90 1.4923199e+89 3.0931015e+88)
(-3.9045801e+90 1.89727e+89 -4.9740475e+89)
(-3.7712043e+90 3.0427818e+89 -5.4961633e+89)
(-4.1258948e+90 3.9410648e+89 4.4804407e+88)
(-3.7475817e+90 8.2399784e+88 -3.313863e+89)
(-3.7255915e+90 1.4788004e+89 -3.4134604e+89)
(-4.1529226e+90 1.5181414e+89 3.6683821e+88)
(-3.9310236e+90 2.4790126e+89 -4.8422302e+89)
(-3.8416501e+90 3.2798484e+89 -5.422887e+89)
(-4.7894281e+90 5.3503115e+89 1.0829873e+90)
(-3.9444701e+90 4.9513553e+89 4.3876678e+89)
(-3.2280681e+90 4.1533606e+89 2.4006609e+89)
(-3.3300242e+90 4.0768176e+89 1.8917442e+89)
(-4.178497e+90 1.7994946e+89 4.4181114e+89)
(-4.0000343e+90 4.2901147e+89 4.0221359e+89)
(-3.2970932e+90 3.5108071e+89 2.045723e+89)
(-3.1981943e+90 3.9372621e+89 2.3052796e+89)
(-4.0779717e+90 1.3321961e+89 4.4804052e+89)
(-4.9233579e+90 2.8175999e+89 1.1749812e+90)
(-3.0374572e+90 8.1244784e+89 -9.7928644e+89)
(-3.1496415e+90 5.1210427e+89 -9.051251e+89)
(-5.3462855e+90 2.3003326e+89 -7.6055703e+89)
(-4.5973321e+90 6.9230464e+89 5.9776012e+89)
(-4.7773558e+90 3.1856749e+89 6.4900466e+89)
(-4.3162149e+90 4.0307007e+89 3.2233729e+88)
(-4.1090499e+90 6.3149257e+89 5.8378839e+88)
(-3.6987237e+90 7.0708787e+89 6.3668918e+89)
(-3.8477483e+90 3.596483e+89 7.1105757e+89)
(-3.5846689e+90 4.8809781e+89 -5.8497777e+89)
(-3.2923248e+90 7.8004093e+89 -5.4732471e+89)
(-4.2248721e+90 4.2798061e+89 5.3586829e+88)
(-4.1033759e+90 2.7713936e+89 -4.5567408e+89)
(-3.962228e+90 3.4497434e+89 -5.3556929e+89)
(-4.2592798e+90 1.8287569e+89 2.6405801e+88)
(-4.212688e+90 1.9336496e+89 8.1578302e+87)
(-4.1869659e+90 3.9275418e+89 2.2105926e+88)
(-3.8895901e+90 3.3483254e+89 -5.6099132e+89)
(-4.0311202e+90 2.2809821e+89 -4.9573024e+89)
(-4.1968107e+90 5.2853923e+89 4.0413398e+89)
(-3.4952494e+90 4.4563418e+89 1.5674059e+89)
(-3.4597574e+90 4.7119501e+89 1.275807e+89)
(-4.7825268e+90 6.0558658e+89 1.0682052e+90)
(-4.2983172e+90 2.1004583e+89 3.993734e+89)
(-4.9350369e+90 3.6135654e+89 1.1328472e+90)
(-4.1310124e+90 4.6460528e+89 3.6036036e+89)
(-3.4213886e+90 4.1247824e+89 1.476917e+89)
(-3.262817e+90 4.7755305e+89 1.6643823e+89)
(-4.1879956e+90 1.9100434e+89 3.9116242e+89)
(-3.0889949e+90 8.5007848e+89 -9.2612504e+89)
(-3.21121e+90 5.5943378e+89 -8.6166566e+89)
(-3.2994341e+90 1.2038768e+89 2.0531282e+88)
(-3.2961706e+90 4.7434054e+88 5.3048622e+87)
(-3.8210824e+90 1.6322654e+89 -4.6906958e+88)
(-3.2639858e+90 9.0730278e+88 -2.7030181e+89)
(-3.2832872e+90 6.9995939e+88 -2.325328e+89)
(-3.2876425e+90 9.8645039e+88 -1.0268882e+88)
(-3.8651206e+90 3.5726732e+88 -4.698939e+88)
(-3.2582202e+90 9.9515133e+88 -2.8958051e+89)
(-3.2769831e+90 5.444477e+88 -2.7533193e+89)
(-3.7577209e+90 1.0727208e+89 -3.4898239e+89)
(-3.7774744e+90 5.4154792e+88 -3.1790338e+89)
(-3.2941727e+90 4.9960937e+88 -2.4654373e+89)
(-3.770103e+90 1.4857934e+89 -8.6823759e+88)
(-3.2537099e+90 8.2518158e+88 -2.8296097e+89)
(-3.7816549e+90 7.6900057e+88 -7.3742932e+88)
(-3.727695e+90 3.3073216e+88 -3.9538646e+89)
(-3.6857919e+90 1.4898824e+89 -4.3827945e+89)
(-3.8694813e+90 1.449711e+89 -3.2803366e+88)
(-3.7139703e+90 6.197423e+88 -4.3615198e+89)
(-3.9122321e+90 2.7426964e+88 -3.6469604e+88)
(-3.702463e+90 1.1239452e+89 -4.6229021e+89)
(-3.6465756e+90 1.4560236e+89 -4.8688685e+89)
(-3.6873791e+90 4.477164e+88 -4.4143704e+89)
(-3.8397708e+90 1.3292079e+89 -2.9010287e+88)
(-3.8294611e+90 5.6822772e+88 -9.1521383e+88)
(-3.8414575e+90 1.969587e+89 -5.8883706e+88)
(-3.9276407e+90 6.6843854e+88 -4.2633277e+88)
(-3.8566912e+90 1.2984961e+89 -3.3944943e+89)
(-3.8437634e+90 9.3033973e+88 -3.6020376e+89)
(-3.1275997e+90 1.2274271e+89 -1.8061972e+89)
(-3.3003133e+90 1.0861341e+89 -7.2713551e+87)
(-3.3037813e+90 5.556943e+88 -1.8197677e+88)
(-3.2842429e+90 6.4660376e+88 -2.6100934e+89)
(-3.7791437e+90 1.7043125e+89 -8.2141957e+88)
(-3.258796e+90 9.9917694e+88 -2.8877483e+89)
(-3.3068448e+90 1.0804226e+89 -1.2824171e+88)
(-3.2957309e+90 7.041299e+88 -2.3423384e+88)
(-3.8328745e+90 7.9079029e+88 -8.1684982e+88)
(-3.2538771e+90 1.1271461e+89 -2.9132513e+89)
(-3.2938314e+90 6.2388579e+88 -2.6059358e+89)
(-3.743041e+90 5.2148246e+88 -4.1431198e+89)
(-3.7591297e+90 1.3666221e+89 -4.099921e+89)
(-3.8084931e+90 9.120761e+88 -3.5196323e+89)
(-3.9909364e+90 1.9000446e+89 -2.8613287e+87)
(-4.0320778e+90 5.0412956e+88 -1.6747755e+88)
(-3.8008822e+90 1.3412926e+89 -3.9008145e+89)
(-3.7538761e+90 1.3076382e+89 -4.4231845e+89)
(-3.7169452e+90 7.705004e+88 -4.6616189e+89)
(-3.8433932e+90 1.5851011e+89 -1.0154312e+89)
(-3.9323864e+90 3.4476536e+88 -2.2850293e+88)
(-2.2742629e+90 7.4288274e+89 -4.4336951e+89)
(-3.8347641e+90 5.5949226e+89 9.9177858e+89)
(-4.0106138e+90 3.785741e+89 1.0262762e+90)
(-2.3250206e+90 5.411349e+89 -4.5700739e+89)
(-3.9346086e+90 1.9692082e+89 -7.7135569e+88)
(-3.6323165e+90 1.5228634e+89 -3.980125e+89)
(-3.9912107e+90 9.5250789e+88 -7.1520244e+88)
(-3.6327404e+90 2.2030284e+89 -4.3498542e+89)
(-3.1939259e+90 3.4181487e+89 3.2304309e+88)
(-3.1691322e+90 3.381507e+89 7.037458e+88)
(-3.8355225e+90 3.5429739e+89 2.384013e+89)
(-3.8942776e+90 1.6164885e+89 2.2828372e+89)
(-3.2564544e+90 3.0812732e+89 4.4180785e+88)
(-3.9290401e+90 3.0879474e+89 2.28977e+89)
(-3.9839231e+90 1.1820656e+89 2.779019e+89)
(-3.2293268e+90 3.3671443e+89 4.8339523e+88)
(-3.6592452e+90 1.5528796e+89 -3.8717777e+89)
(-3.8471629e+90 2.1608662e+89 -1.3552718e+89)
(-3.9314379e+90 7.9977863e+88 -1.0522102e+89)
(-3.7057751e+90 1.7219994e+89 -3.8744303e+89)
(-3.6028187e+90 1.6111641e+89 -4.1018634e+89)
(-3.6313975e+90 1.1008491e+89 -3.834641e+89)
(-3.8617285e+90 1.6454783e+89 -9.1296685e+88)
(-3.9027788e+90 3.6931816e+88 -7.7609228e+88)
(-3.2091223e+90 2.7581742e+89 6.8845563e+88)
(-3.1608524e+90 2.8463427e+89 4.8010894e+88)
(-3.8166107e+90 6.0907194e+89 9.9261703e+89)
(-3.9257714e+90 9.1329497e+88 2.5932287e+89)
(-3.8965665e+90 2.9110937e+89 2.535855e+89)
(-3.1162619e+90 2.6463905e+89 7.2889446e+88)
(-3.0547755e+90 3.0270602e+89 8.033645e+88)
(-3.8576015e+90 4.2738384e+89 1.1131625e+90)
(-3.8536094e+90 9.5965425e+88 2.7404798e+89)
(-3.8277974e+90 2.5960421e+89 2.3940182e+89)
(-3.8006071e+90 1.6600314e+89 -1.2699673e+89)
(-3.5826052e+90 9.9894801e+88 -3.881384e+89)
(-3.551591e+90 1.6631047e+89 -4.0638821e+89)
(-3.820893e+90 7.2261233e+88 -1.1773556e+89)
(-2.1279043e+90 9.928616e+89 -5.2087274e+89)
(-2.2454546e+90 7.3261327e+89 -4.4472467e+89)
(-3.5588523e+90 8.6384784e+89 -1.4914089e+89)
(-3.8018168e+90 3.2844685e+89 -1.441209e+89)
(-4.815726e+90 5.0202547e+89 -2.5434478e+89)
(-5.3115507e+90 2.4043226e+89 1.9356127e+89)
(-5.4042311e+90 2.9218833e+89 -7.4157734e+89)
(-4.3565517e+90 4.4502683e+89 3.6507381e+88)
(-4.3948206e+90 2.1911224e+89 1.205812e+88)
(-4.2478219e+90 3.1400164e+89 -4.6832801e+89)
(-4.1119299e+90 3.7818304e+89 -5.5309825e+89)
(-4.3053048e+90 4.3110395e+89 8.9395662e+87)
(-4.315746e+90 2.3641398e+89 -8.4882166e+87)
(-4.1655849e+90 2.6893667e+89 -4.9491353e+89)
(-4.0353654e+90 3.836905e+89 -5.5899508e+89)
(-4.34864e+90 5.513296e+89 3.4485975e+89)
(-3.6683604e+90 4.6051647e+89 1.0098631e+89)
(-3.6101612e+90 5.1329782e+89 7.5827225e+88)
(-4.4275198e+90 2.4783737e+89 3.3428129e+89)
(-4.8291315e+90 6.1645051e+89 1.0290254e+90)
(-4.2606713e+90 5.0383586e+89 3.1573236e+89)
(-3.5668063e+90 4.6271352e+89 9.6057812e+88)
(-3.4403025e+90 5.1803872e+89 1.0335971e+89)
(-4.3243957e+90 2.4654125e+89 3.4230894e+89)
(-4.9807234e+90 4.0530741e+89 1.0980059e+90)
(-3.1847931e+90 8.7059628e+89 -8.9002566e+89)
(-3.2954031e+90 5.9646465e+89 -8.2345837e+89)
(-3.9310606e+90 9.3135235e+88 -4.9566613e+88)
(-3.8658173e+90 2.2481777e+89 -3.5369765e+88)
(-3.8385584e+90 1.1787248e+89 -3.4618844e+89)
(-3.8449902e+90 1.6211528e+89 -3.9609156e+89)
(-3.8115701e+90 1.4637031e+89 -4.5330443e+89)
(-3.8130235e+90 1.1680881e+89 -4.0235748e+89)
(-3.9694797e+90 2.1556516e+89 -1.118105e+88)
(-4.0237952e+90 7.0803042e+88 -3.7493063e+88)
(-3.7812186e+90 1.558808e+89 -4.4847852e+89)
(-3.8052167e+90 8.0235984e+88 -4.2953396e+89)
(-3.9649644e+90 1.6664623e+89 -2.4624907e+88)
(-3.9878905e+90 5.4261451e+88 -1.6524945e+88)
(-3.818433e+90 1.4888516e+89 -3.909244e+89)
(-3.8411879e+90 7.2553515e+88 -3.7744191e+89)
(-3.8365625e+90 2.0257425e+89 -1.2925106e+89)
(-3.8710635e+90 1.0940114e+89 -1.1362948e+89)
(-3.8296708e+90 1.9817414e+89 -8.0578344e+88)
(-3.9201027e+90 1.0523708e+89 -6.5637086e+88)
(-3.7875541e+90 7.7385589e+88 -4.0788957e+89)
(-3.7939587e+90 1.5940261e+89 -3.5680529e+89)
(-3.8945578e+90 8.1640664e+88 -5.9558584e+88)
(-3.8560533e+90 1.9429004e+89 -4.8753681e+88)
(-3.7987997e+90 1.4389813e+89 -4.0482003e+89)
(-3.819559e+90 7.6057081e+88 -3.6752945e+89)
(-3.7688802e+90 7.9715609e+88 -4.5984792e+89)
(-3.8911273e+90 1.6676743e+89 -9.3845097e+88)
(-3.955826e+90 8.5260464e+88 -9.1963012e+88)
(-3.7643378e+90 1.5849892e+89 -4.9760579e+89)
(-3.7757857e+90 1.3283809e+89 -4.5823608e+89)
(-3.7820954e+90 8.7591006e+88 -4.2756234e+89)
(-3.9379492e+90 1.6908215e+89 -3.4667677e+88)
(-3.9808263e+90 4.4312e+88 -4.3127696e+88)
(-3.691155e+90 2.1196983e+89 -4.3908058e+89)
(-3.7494083e+90 1.7077901e+89 -3.5944893e+89)
(-3.9784003e+90 2.238511e+89 -6.8596178e+88)
(-4.0251117e+90 8.6013679e+88 -9.0494856e+88)
(-3.9730221e+90 6.2563599e+89 9.2651127e+89)
(-3.3409946e+90 3.8830203e+89 2.9677621e+88)
(-4.0253257e+90 3.7446164e+89 2.3773403e+89)
(-3.2770829e+90 3.8977779e+89 -6.2150641e+87)
(-3.9611694e+90 1.7571127e+89 1.9471954e+89)
(-3.3367369e+90 3.7878515e+89 -6.2055399e+87)
(-3.3475511e+90 3.5367415e+89 -3.7774746e+87)
(-4.0130562e+90 3.3821768e+89 1.9815375e+89)
(-4.0490638e+90 1.4921111e+89 2.1749231e+89)
(-4.1217028e+90 4.6077197e+89 9.5788713e+89)
(-2.3910827e+90 7.9924605e+89 -4.4239803e+89)
(-2.4311204e+90 6.117208e+89 -4.5701918e+89)
(-3.9410461e+90 2.0973564e+89 -1.3091703e+89)
(-3.7433771e+90 1.5766082e+89 -3.9514196e+89)
(-3.9703923e+90 1.0546692e+89 -1.1888145e+89)
(-3.7258804e+90 2.0252097e+89 -4.1683666e+89)
(-3.9049734e+90 6.9145536e+89 9.2406229e+89)
(-3.9131364e+90 5.2825614e+89 1.0222763e+90)
(-2.2197686e+90 1.0566778e+90 -5.083632e+89)
(-2.3340002e+90 7.9912903e+89 -4.3376258e+89)
(-3.6973756e+90 1.8451226e+89 -4.1496516e+89)
(-3.73409e+90 1.3694916e+89 -3.7636538e+89)
(-3.9483461e+90 1.9262005e+89 -8.5969835e+88)
(-3.9900303e+90 6.4110279e+88 -8.3321924e+88)
(-3.2911364e+90 3.3092361e+89 -5.2271129e+87)
(-3.3276716e+90 3.1794434e+89 1.0029128e+88)
(-4.0029236e+90 3.151866e+89 2.1499268e+89)
(-4.0419414e+90 1.1641328e+89 2.2718449e+89)
(-3.2234623e+90 3.1561495e+89 1.6829299e+88)
(-3.966383e+90 2.8505722e+89 2.1189751e+89)
(-3.8455201e+90 1.57403e+89 2.2242717e+89)
(-3.0908251e+90 4.2017163e+89 2.3119166e+88)
(-3.6888917e+90 1.7271526e+89 -4.2676532e+89)
(-3.6968792e+90 1.2605053e+89 -3.9589839e+89)
(-3.8906199e+90 1.9743605e+89 -1.4795176e+89)
(-3.9448431e+90 8.247175e+88 -1.3823683e+89)
(-3.5842295e+90 9.1901513e+89 -1.3022737e+89)
(-3.8121947e+90 4.105721e+89 -1.3403762e+89)
(-2.2466854e+90 1.6353711e+89 -1.5296327e+89)
(-2.2540879e+90 1.1533897e+89 -1.478019e+89)
(-2.5093107e+90 1.3813344e+89 -5.0585214e+87)
(-2.5102532e+90 9.496071e+88 1.5144235e+86)
(-2.5071458e+90 1.2171278e+89 -1.737322e+88)
(-2.5014974e+90 9.8871711e+88 -1.0671355e+88)
(-2.2256283e+90 1.5180394e+89 -1.7631976e+89)
(-2.2350965e+90 1.1318126e+89 -1.6905862e+89)
(-3.3213224e+90 1.0710389e+89 -9.9578056e+88)
(-3.3187015e+90 5.4358385e+88 -2.5026501e+89)
(-3.2983388e+90 7.9645081e+88 -2.7826956e+89)
(-3.3259032e+90 4.2732402e+88 -1.1251449e+89)
(-2.6704473e+90 8.9907027e+88 -8.7671897e+88)
(-2.6804275e+90 9.6991758e+88 -6.0255829e+88)
(-2.2280041e+90 1.5892078e+89 -1.791442e+89)
(-2.2365467e+90 1.1405232e+89 -1.7133356e+89)
(-2.5026843e+90 1.2197703e+89 -1.8031798e+88)
(-2.5006417e+90 8.8095142e+88 -1.1366541e+88)
(-3.2930885e+90 7.7277897e+88 -2.950901e+89)
(-3.3134009e+90 2.9106446e+88 -2.7676813e+89)
(-3.3235969e+90 9.2472794e+88 -1.2683416e+89)
(-3.3284466e+90 4.8640185e+88 -1.3210807e+89)
(-2.6805731e+90 8.9230443e+88 -9.361921e+88)
(-2.6779801e+90 8.5906412e+88 -8.4774308e+88)
(-3.3290686e+90 5.9264307e+88 -3.1188416e+89)
(-3.3653263e+90 1.9868187e+88 -2.6718652e+89)
(-3.426185e+90 6.731095e+88 -1.0474772e+89)
(-3.4153744e+90 1.9660449e+88 -1.2114209e+89)
(-3.3313491e+90 5.9445097e+88 -2.9350749e+89)
(-3.3676628e+90 4.2948096e+88 -2.4212058e+89)
(-3.428746e+90 9.4350993e+88 -7.4008652e+88)
(-3.4145172e+90 2.4937758e+88 -1.0106449e+89)
(-2.6977712e+90 7.8418425e+88 -6.6942415e+88)
(-3.3361571e+90 8.4222533e+88 -1.0078688e+89)
(-3.3259069e+90 3.2434737e+88 -2.3510864e+89)
(-3.2840736e+90 6.6565277e+88 -2.9107345e+89)
(-3.3160965e+90 3.0518749e+88 -1.1963736e+89)
(-2.6657437e+90 7.8259047e+88 -9.4015487e+88)
(-3.3174277e+90 8.904045e+88 -1.1806146e+89)
(-3.2757555e+90 2.5828174e+88 -2.5389891e+89)
(-3.4011254e+90 7.0927993e+88 -8.2845539e+88)
(-3.349505e+90 2.4336972e+88 -2.76352e+89)
(-3.3301427e+90 4.8349568e+88 -3.1258578e+89)
(-3.3968525e+90 1.4479636e+88 -1.2163358e+89)
(-3.3649804e+90 7.5744219e+88 -1.308064e+89)
(-3.3189877e+90 2.605646e+88 -3.1302427e+89)
(-3.2945669e+90 8.1458082e+88 -3.3564305e+89)
(-3.473468e+90 7.2477327e+88 -1.1196128e+89)
(-3.4146577e+90 1.9556404e+88 -2.5202978e+89)
(-3.3778169e+90 4.5271556e+88 -3.2865041e+89)
(-3.4494425e+90 7.4631331e+87 -1.3877341e+89)
(-3.5278146e+90 5.7170558e+88 -1.1608541e+89)
(-3.4448212e+90 1.0257797e+88 -3.291796e+89)
(-3.4420225e+90 3.0908771e+88 -3.7362798e+89)
(-3.5225815e+90 -6.1673158e+87 -1.7372745e+89)
(-3.4754937e+90 6.2953359e+88 -1.3603575e+89)
(-3.3889408e+90 3.2635965e+87 -2.753316e+89)
(-3.3839186e+90 5.8714293e+88 -3.5068067e+89)
(-3.4551524e+90 1.8782081e+88 -1.6081176e+89)
(-3.5234476e+90 4.8144078e+88 -1.8562183e+89)
(-3.4528329e+90 -4.7819893e+87 -3.7826066e+89)
(-3.4484447e+90 4.2627337e+88 -3.9064428e+89)
(-3.5313991e+90 8.558008e+87 -1.9545637e+89)
(-3.4044219e+90 6.2595848e+88 -4.0097053e+89)
(-3.4145816e+90 2.0274151e+87 -3.7111079e+89)
(-3.4879164e+90 5.0569735e+88 -1.5061418e+89)
(-3.4876184e+90 2.8621238e+88 -2.1682192e+89)
(-3.430011e+90 3.119569e+88 -3.7823302e+89)
(-3.4712215e+90 2.3945814e+87 -2.8210781e+89)
(-3.5498146e+90 4.731342e+88 -1.1515174e+89)
(-3.5221629e+90 -1.7639728e+88 -1.5179498e+89)
(-3.445111e+90 5.8468157e+88 -1.701312e+89)
(-3.4088635e+90 1.1450383e+88 -2.8793066e+89)
(-3.3802677e+90 3.5302188e+88 -3.2384865e+89)
(-3.446334e+90 9.9382428e+86 -1.8533045e+89)
(-3.3539348e+90 6.4500306e+88 -3.5453052e+89)
(-3.3684305e+90 2.6436539e+87 -3.1388437e+89)
(-3.4116738e+90 7.0808098e+88 -1.988288e+89)
(-3.4092784e+90 4.460621e+88 -2.1406312e+89)
(-3.3833658e+90 1.3149522e+89 -8.1149808e+88)
(-3.3858801e+90 5.9717028e+88 -9.355912e+88)
(-3.3813675e+90 7.8656325e+88 -2.4094781e+89)
(-3.3616057e+90 9.307482e+88 -2.6528692e+89)
(-3.4007782e+90 7.1163233e+88 -1.1886299e+89)
(-3.3951352e+90 1.1471082e+89 -1.1144809e+89)
(-3.3826344e+90 5.0871846e+88 -2.6188649e+89)
(-3.3693023e+90 9.851855e+88 -2.7910486e+89)
(-3.409932e+90 7.8718389e+88 -2.951105e+89)
(-3.4360332e+90 4.3688456e+88 -2.5474621e+89)
(-3.4864957e+90 4.2984983e+88 -1.0875274e+89)
(-3.4949149e+90 9.2665994e+88 -9.1935332e+88)
(-3.4046889e+90 7.6478623e+88 -2.8883038e+89)
(-3.4161539e+90 6.9481027e+88 -2.6151093e+89)
(-3.4617492e+90 1.2125743e+89 -8.8193047e+88)
(-3.462755e+90 4.641896e+88 -1.0440788e+89)
(-2.4785216e+90 9.9447037e+88 -1.4538225e+89)
(-2.4565101e+90 1.2659936e+89 -1.4448413e+89)
(-2.5967065e+90 8.7391655e+88 -5.5771163e+88)
(-2.6054319e+90 1.1779891e+89 -5.6201239e+88)
(-2.2644211e+90 1.5734072e+89 -1.6734947e+89)
(-2.2720947e+90 1.0963091e+89 -1.609576e+89)
(-2.520267e+90 1.2777967e+89 -2.2324734e+88)
(-2.5217475e+90 8.8375548e+88 -1.6400122e+88)
(-2.5246492e+90 1.2171927e+89 -2.8478867e+88)
(-2.5147884e+90 1.0129969e+89 -2.191738e+88)
(-2.254251e+90 1.48022e+89 -1.8030558e+89)
(-2.2609164e+90 1.1521498e+89 -1.7379526e+89)
(-2.7043368e+90 9.2476364e+88 -7.6277857e+88)
(-3.3317339e+90 1.0364509e+89 -1.1082608e+89)
(-3.2831108e+90 8.687317e+88 -2.9604794e+89)
(-3.317075e+90 5.2246744e+88 -2.4918925e+89)
(-3.3214501e+90 5.0874675e+88 -1.2472869e+89)
(-2.6807853e+90 9.3331753e+88 -9.644348e+88)
(-2.2162455e+90 1.5441502e+89 -1.7557552e+89)
(-2.2237848e+90 1.1097936e+89 -1.6894865e+89)
(-2.4877081e+90 1.268279e+89 -2.4347813e+88)
(-2.488364e+90 9.2031222e+88 -1.8472429e+88)
(-2.4943104e+90 1.3183939e+89 -3.0646351e+88)
(-2.4863245e+90 1.1707256e+89 -2.2830358e+88)
(-2.2142768e+90 1.5573122e+89 -1.8203361e+89)
(-2.2245408e+90 1.2619494e+89 -1.7460546e+89)
(-3.3336525e+90 1.0789434e+89 -1.1526893e+89)
(-3.2940827e+90 4.5132267e+88 -2.5097328e+89)
(-3.2885213e+90 1.0142723e+89 -3.0376459e+89)
(-3.3143964e+90 6.9513686e+88 -1.3271627e+89)
(-2.648734e+90 1.0164045e+89 -9.9445594e+88)
(-2.6621345e+90 9.0835332e+88 -8.1227584e+88)
(-3.3954321e+90 9.1899933e+88 -9.2288028e+88)
(-3.3392576e+90 4.427017e+88 -2.8697939e+89)
(-3.3335083e+90 6.8682119e+88 -3.2127908e+89)
(-3.3940089e+90 3.615195e+88 -1.2545289e+89)
(-3.3895491e+90 9.338862e+88 -1.2759719e+89)
(-3.3434041e+90 4.105495e+88 -3.0410415e+89)
(-3.3393051e+90 8.3466406e+88 -3.2116763e+89)
(-3.3997729e+90 5.2026982e+88 -1.3799911e+89)
(-3.6313875e+90 9.6726601e+88 -1.0663932e+89)
(-3.5366852e+90 4.5964866e+88 -2.7660084e+89)
(-3.4981613e+90 5.6867707e+88 -3.5103924e+89)
(-3.6066167e+90 2.223372e+88 -1.4705424e+89)
(-3.4584623e+90 6.6277502e+88 -3.0647457e+89)
(-3.4859045e+90 5.612589e+88 -2.3993342e+89)
(-3.5154721e+90 1.0482238e+89 -1.4552114e+89)
(-3.5115079e+90 3.4219932e+88 -1.7229096e+89)
(-3.5468715e+90 8.4694575e+88 -1.3605742e+89)
(-3.4880881e+90 2.1462023e+88 -2.7464235e+89)
(-3.4730358e+90 6.4976596e+88 -3.1837155e+89)
(-3.5376707e+90 3.8013522e+88 -1.5882565e+89)
(-3.6329307e+90 6.6112359e+88 -1.4408505e+89)
(-3.5440244e+90 1.3920557e+88 -3.1054108e+89)
(-3.5244645e+90 5.1332179e+88 -3.175692e+89)
(-3.6365573e+90 1.6342027e+88 -1.4657122e+89)
(-3.4646295e+90 4.9259741e+88 -3.7628869e+89)
(-3.4921281e+90 6.6586972e+87 -2.9779273e+89)
(-3.5624682e+90 5.8064266e+88 -1.3424395e+89)
(-3.5459345e+90 4.2081315e+87 -1.6205878e+89)
(-3.4647202e+90 5.0392105e+88 -3.834865e+89)
(-3.4577765e+90 1.9915403e+88 -3.6128202e+89)
(-3.5235328e+90 6.689084e+88 -1.8299647e+89)
(-3.5372697e+90 1.3153499e+88 -2.0022242e+89)
(-3.4351603e+90 7.5753366e+88 -1.9227965e+89)
(-3.4068442e+90 2.8115012e+88 -3.1701487e+89)
(-3.4015175e+90 6.1032331e+88 -3.4026429e+89)
(-3.448467e+90 2.4734956e+88 -1.9907574e+89)
(-3.3991017e+90 5.5431866e+88 -3.2740852e+89)
(-3.4115184e+90 1.5386965e+88 -3.0334645e+89)
(-3.4487366e+90 8.4820998e+88 -1.8331972e+89)
(-3.4573369e+90 3.8835343e+88 -1.9285904e+89)
(-2.9873118e+90 8.0619546e+89 6.5045596e+88)
(-3.5135766e+90 5.0136836e+89 7.6210512e+89)
(-3.6410555e+90 3.7854357e+89 7.5919937e+89)
(-2.0947745e+90 5.8243641e+89 -2.0466859e+89)
(-2.1155921e+90 4.4738716e+89 -2.3040924e+89)
(-3.6490033e+90 3.9062799e+89 7.7945861e+89)
(-3.6015439e+90 5.2168897e+89 7.099194e+89)
(-2.0451634e+90 8.1959925e+89 -2.7090094e+89)
(-2.1230291e+90 6.2638882e+89 -2.3666238e+89)
(-3.069415e+90 4.6378356e+89 5.3068343e+88)
(-3.6917986e+90 8.2494352e+88 -1.4626157e+89)
(-3.5902277e+90 3.1066389e+88 -2.9962809e+89)
(-3.5386253e+90 5.6219538e+88 -3.9716678e+89)
(-3.6522861e+90 1.3631227e+88 -1.8745307e+89)
(-3.7510127e+90 8.4841353e+88 -1.23326e+89)
(-3.5701908e+90 4.1189214e+88 -3.9242447e+89)
(-3.5487752e+90 6.9685739e+88 -4.3575829e+89)
(-3.7269248e+90 1.7412413e+88 -2.0100618e+89)
(-3.7018912e+90 6.2768376e+88 -1.7319242e+89)
(-3.5635284e+90 -2.1486388e+86 -3.3167163e+89)
(-3.6735212e+90 2.6097324e+88 -2.0227413e+89)
(-3.5586346e+90 7.2744051e+88 -4.1620169e+89)
(-3.7471339e+90 6.2762666e+88 -2.1123525e+89)
(-3.5743184e+90 1.6809342e+88 -4.4282304e+89)
(-3.5760802e+90 9.8170677e+88 -4.406526e+89)
(-3.7478291e+90 3.9566612e+88 -2.1691945e+89)
(-3.1865048e+90 2.935188e+89 -3.2459737e+89)
(-3.1835995e+90 2.3965457e+89 -3.2555744e+89)
(-3.676685e+90 2.0906748e+89 -4.1511444e+88)
(-3.6747714e+90 1.4137265e+89 -4.4467224e+88)
(-3.1479081e+90 2.6624575e+89 -3.2905297e+89)
(-3.1479031e+90 2.6822021e+89 -3.2688293e+89)
(-3.6599872e+90 2.6680347e+89 -2.3861025e+88)
(-3.6511677e+90 1.2825145e+89 -4.1284859e+88)
(-3.7027346e+90 1.2573639e+89 -2.2287386e+89)
(-3.4528318e+90 1.2169129e+89 -4.0660412e+89)
(-3.4427769e+90 1.2976455e+89 -4.232043e+89)
(-3.7155287e+90 4.9383911e+88 -2.2349727e+89)
(-3.4847292e+90 1.5720717e+89 -4.1593766e+89)
(-3.4818585e+90 7.5641749e+88 -4.1553802e+89)
(-3.732578e+90 1.0463403e+89 -2.3642268e+89)
(-3.7442754e+90 7.9582096e+88 -2.2646581e+89)
(-3.1424941e+90 2.7146232e+89 -3.1849375e+89)
(-3.2490988e+90 2.209468e+89 -2.8953786e+89)
(-3.775063e+90 2.1530674e+89 -8.2425409e+86)
(-3.6378833e+90 9.4977959e+88 -3.3282974e+88)
(-3.7029719e+90 1.1426273e+89 -2.1083709e+89)
(-3.4941886e+90 9.3304039e+88 -3.8110231e+89)
(-3.4283543e+90 1.2564015e+89 -4.0785466e+89)
(-3.6952924e+90 5.5222717e+88 -2.1714669e+89)
(-3.7740542e+90 9.3903619e+88 -1.5141983e+89)
(-3.5245225e+90 6.3787479e+88 -3.5637767e+89)
(-3.7814654e+90 2.7302082e+88 -1.478929e+89)
(-3.4877057e+90 1.1326167e+89 -3.7817527e+89)
(-3.7725922e+90 1.7887984e+89 1.2888524e+88)
(-3.1979133e+90 2.1092465e+89 -2.8429569e+89)
(-3.6138769e+90 1.081377e+89 -1.0330314e+88)
(-3.09442e+90 2.9640587e+89 -3.160229e+89)
(-3.6827388e+90 8.1088117e+88 -2.0797189e+89)
(-3.5397788e+90 3.9505879e+88 -3.8815115e+89)
(-3.5375389e+90 8.5113859e+88 -4.2511801e+89)
(-3.700266e+90 2.547601e+88 -2.2849361e+89)
(-3.5301355e+90 5.9857449e+88 -4.1014476e+89)
(-3.5200383e+90 1.6620401e+88 -3.5326831e+89)
(-3.5906863e+90 6.268928e+88 -2.3769817e+89)
(-3.6111165e+90 1.1070475e+88 -2.5822634e+89)
(-3.6345495e+90 5.994644e+88 -1.7122251e+89)
(-3.5465996e+90 -3.4458854e+87 -3.6181951e+89)
(-3.5389408e+90 5.1818139e+88 -4.0477271e+89)
(-3.6300858e+90 1.6047776e+88 -2.3228182e+89)
(-3.7165696e+90 6.1955242e+88 -2.020259e+89)
(-3.587314e+90 1.4595346e+88 -3.5089015e+89)
(-3.5864852e+90 4.5913563e+88 -3.6549848e+89)
(-3.7279028e+90 5.1372952e+87 -2.1133608e+89)
(-3.5163427e+90 4.9752631e+88 -4.3047988e+89)
(-3.5111012e+90 -1.2586594e+88 -4.2315212e+89)
(-3.6742163e+90 2.8496862e+88 -2.0539636e+89)
(-3.6982322e+90 -1.2159915e+88 -2.0272318e+89)
(-3.5178964e+90 3.0104398e+88 -4.191421e+89)
(-3.5063011e+90 8.264504e+87 -4.1083349e+89)
(-3.6674162e+90 4.961145e+88 -1.9220225e+89)
(-3.6923859e+90 -2.5838435e+88 -1.9045481e+89)
(-3.5812533e+90 4.96382e+88 -2.3323159e+89)
(-3.5076347e+90 2.2546575e+87 -3.7235921e+89)
(-3.5053959e+90 2.6514143e+88 -3.9133773e+89)
(-3.5958081e+90 -1.5905632e+88 -2.4039039e+89)
(-3.5107879e+90 3.0370018e+88 -4.043004e+89)
(-3.5070792e+90 -2.6746979e+88 -3.9586169e+89)
(-3.5934321e+90 4.173712e+88 -2.5273097e+89)
(-3.6093841e+90 -1.0350548e+87 -2.5467486e+89)
(-3.5580012e+90 4.7229814e+89 7.5853767e+89)
(-3.1744852e+90 2.1304373e+89 -2.810861e+89)
(-3.7218472e+90 2.0303015e+89 1.1793364e+88)
(-3.5984711e+90 7.3918706e+88 -1.4886891e+87)
(-3.0965217e+90 2.4221137e+89 -3.0580192e+89)
(-3.6263321e+90 3.436341e+89 7.9750597e+89)
(-3.1538028e+90 1.8878665e+89 -2.7978866e+89)
(-3.7108144e+90 1.5226026e+89 1.1393875e+88)
(-3.5804839e+90 7.8167222e+88 3.8486013e+87)
(-3.0639269e+90 2.7175456e+89 -3.0535028e+89)
(-2.0258621e+90 6.7818853e+89 -2.3924133e+89)
(-2.054802e+90 5.0880786e+89 -2.4291117e+89)
(-3.4558613e+90 8.5290455e+88 -3.7546628e+89)
(-3.4309959e+90 3.5789795e+88 -3.828558e+89)
(-3.6642256e+90 6.444744e+88 -2.20803e+89)
(-3.6914229e+90 1.9541151e+88 -2.0936471e+89)
(-3.4598167e+90 7.987248e+88 -3.7680842e+89)
(-3.4375849e+90 7.6226692e+88 -3.7854288e+89)
(-3.6549654e+90 8.3566615e+88 -2.1601269e+89)
(-3.6911229e+90 2.9221602e+86 -2.0268873e+89)
(-3.4702827e+90 5.0706075e+89 7.8452195e+89)
(-3.1148216e+90 1.7648745e+89 -2.6914639e+89)
(-3.6880364e+90 1.7578736e+89 3.0782822e+88)
(-3.5396615e+90 6.7689757e+88 1.1262767e+88)
(-3.0103209e+90 2.5649236e+89 -3.0321456e+89)
(-3.470358e+90 3.9528419e+89 8.778009e+89)
(-3.0341484e+90 1.8812989e+89 -2.6782455e+89)
(-3.6270949e+90 1.7400495e+89 2.5072778e+88)
(-3.4913144e+90 9.879457e+88 1.2756604e+88)
(-2.9297388e+90 2.8769851e+89 -3.0122312e+89)
(-1.8425115e+90 8.7834023e+89 -2.6177668e+89)
(-1.9170871e+90 7.0139179e+89 -1.9242215e+89)
(-3.3814594e+90 1.0894517e+89 -3.7508859e+89)
(-3.3626855e+90 6.9839916e+88 -3.6862737e+89)
(-3.6112567e+90 9.3518908e+88 -2.1084706e+89)
(-3.636246e+90 3.9524073e+88 -2.0446945e+89)
(-3.4169753e+90 9.3144875e+88 -3.7339324e+89)
(-3.4074334e+90 6.5873587e+88 -3.6561149e+89)
(-3.6350588e+90 8.1707238e+88 -2.0576958e+89)
(-3.6632822e+90 1.6147058e+88 -1.9935863e+89)
(-3.594837e+90 3.9835728e+88 -1.4902449e+89)
(-3.4899914e+90 -8.6775658e+87 -3.6858294e+89)
(-3.4837991e+90 3.8360106e+88 -4.1283357e+89)
(-3.5878245e+90 -9.9588718e+87 -2.3455944e+89)
(-3.6442505e+90 5.1053922e+88 -2.1584534e+89)
(-3.4823224e+90 1.6975734e+88 -4.0555157e+89)
(-3.4914887e+90 4.9572982e+88 -4.2251005e+89)
(-3.6627911e+90 -9.5825309e+87 -2.2427046e+89)
(-3.461535e+90 6.6726076e+88 -4.3148937e+89)
(-3.4637722e+90 1.4828678e+88 -4.1444264e+89)
(-3.6222388e+90 5.6995322e+88 -2.3118592e+89)
(-3.6340187e+90 1.7100694e+88 -2.3387569e+89)
(-3.5491327e+90 6.0018419e+88 -2.6407543e+89)
(-3.4646435e+90 -5.0167272e+87 -4.0508038e+89)
(-3.4595379e+90 5.4493097e+88 -4.1983637e+89)
(-3.5553083e+90 2.7657148e+88 -2.6998442e+89)
(-2.8467138e+90 9.9395623e+89 3.9063646e+88)
(-3.0563748e+90 5.8739212e+89 7.7625165e+88)
(-3.3456638e+90 9.2684171e+89 -1.3480576e+89)
(-3.6138009e+90 3.6948081e+89 -1.7381877e+89)
(-4.641313e+90 4.8670993e+89 -3.9989737e+89)
(-3.9773831e+90 2.9181944e+89 5.1363133e+89)
(-4.0101713e+90 4.8179676e+89 -2.5211075e+89)
(-4.1802425e+90 2.4384932e+89 -2.4558999e+89)
(-3.9544111e+90 3.8218479e+89 5.6335454e+89)
(-4.5159842e+90 2.2009028e+89 5.3625146e+87)
(-4.4857258e+90 2.0807549e+89 5.2641026e+88)
(-5.4013594e+90 3.0205082e+89 1.9336955e+89)
(-3.8962054e+90 3.2658466e+89 7.5810797e+89)
(-3.6552655e+90 9.1913608e+89 7.0714972e+89)
(-5.4283256e+90 3.6012221e+89 -7.1287801e+89)
(-4.0010081e+90 2.4040106e+89 -2.4621726e+88)
(-3.9965991e+90 1.1666735e+89 -5.8199189e+88)
(-3.9829232e+90 1.2968627e+89 -2.784357e+89)
(-3.9070033e+90 1.7220405e+89 -3.8981955e+89)
(-3.9467194e+90 2.1685686e+89 -9.2646397e+88)
(-4.0223712e+90 1.2235758e+89 -6.4776972e+88)
(-3.8871496e+90 1.6900728e+89 -3.4736597e+89)
(-3.9035892e+90 9.6936016e+88 -4.045617e+89)
(-4.1184201e+90 2.2196597e+89 8.2515728e+87)
(-3.9431278e+90 1.3268673e+89 -3.2708655e+89)
(-3.9054692e+90 1.6300376e+89 -4.5714056e+89)
(-4.0882012e+90 8.3317439e+88 -5.4192814e+88)
(-3.913158e+90 9.6397695e+88 -4.5535624e+89)
(-4.0293971e+90 1.7997638e+89 -9.70015e+88)
(-4.0545114e+90 1.000578e+89 -9.1555226e+88)
(-3.8744852e+90 1.742978e+89 -4.7425267e+89)
(-3.9766929e+90 1.0473957e+89 -6.6550292e+88)
(-3.9304226e+90 2.2078477e+89 -6.4791881e+88)
(-3.892277e+90 1.1405125e+89 -3.6940566e+89)
(-3.8770811e+90 1.666257e+89 -4.0376961e+89)
(-3.9046177e+90 2.1794553e+89 -9.1104807e+88)
(-3.9724587e+90 1.254935e+89 -6.3142007e+88)
(-3.837623e+90 1.743482e+89 -3.4685806e+89)
(-3.8647782e+90 9.78707e+88 -4.0496751e+89)
(-3.8662818e+90 1.5592333e+89 -4.60641e+89)
(-3.8781462e+90 1.14967e+89 -4.1881493e+89)
(-4.0323276e+90 2.0444332e+89 -4.1093757e+88)
(-4.0679158e+90 7.0155313e+88 -5.1247972e+88)
(-3.8564244e+90 1.0219707e+89 -4.5646748e+89)
(-3.9758333e+90 1.8522148e+89 -1.0075296e+89)
(-4.0044372e+90 1.0788416e+89 -9.4231141e+88)
(-3.8240606e+90 1.8358126e+89 -4.8581162e+89)
(-4.0908612e+90 2.5152379e+89 -7.7791769e+88)
(-3.8767189e+90 2.1064762e+89 -3.9004062e+89)
(-3.8563504e+90 2.300117e+89 -4.3036001e+89)
(-4.1261571e+90 1.1246981e+89 -1.0306219e+89)
(-3.5121892e+90 4.0412594e+89 -5.9562065e+88)
(-3.5028502e+90 3.9721303e+89 -3.4120975e+88)
(-4.142933e+90 3.935374e+89 1.6654547e+89)
(-4.1970069e+90 1.8374807e+89 1.7380055e+89)
(-4.0968923e+90 6.2124136e+89 8.6770051e+89)
(-4.1396468e+90 3.4919887e+89 1.7326587e+89)
(-3.4930919e+90 3.8902599e+89 -4.3371829e+88)
(-3.4662251e+90 4.1479512e+89 -5.3055787e+88)
(-4.1477044e+90 1.7563642e+89 1.7151881e+89)
(-4.2379395e+90 4.9203456e+89 8.9542287e+89)
(-3.9118828e+90 1.604682e+89 -3.841713e+89)
(-3.8272145e+90 2.1458521e+89 -4.37333e+89)
(-4.0659545e+90 2.1626668e+89 -1.5039343e+89)
(-4.0613702e+90 1.157763e+89 -1.5294955e+89)
(-2.5190544e+90 8.0499023e+89 -4.4014491e+89)
(-2.5601251e+90 6.3746674e+89 -4.530003e+89)
(-3.8353661e+90 1.621635e+89 -3.9336814e+89)
(-4.0457305e+90 2.0936208e+89 -9.4995319e+88)
(-3.8015475e+90 2.0988317e+89 -4.2906132e+89)
(-4.0850883e+90 8.8569306e+88 -9.7481644e+88)
(-3.4172029e+90 3.6896777e+89 -5.9433034e+88)
(-3.4401327e+90 3.5807993e+89 -3.9202787e+88)
(-4.0997721e+90 3.4425116e+89 1.6778579e+89)
(-4.0230938e+90 7.2413171e+89 8.6173663e+89)
(-4.1401008e+90 1.5339293e+89 1.8012189e+89)
(-3.3000365e+90 4.1975595e+89 -4.8403434e+88)
(-3.3698914e+90 3.6031673e+89 -4.4338177e+88)
(-4.0636106e+90 5.5339095e+89 9.5812525e+89)
(-4.0612458e+90 3.3161377e+89 1.5172496e+89)