/*--------------------------------*- C++ -*----------------------------------*\
  =========                 |
  \\      /  F ield         | OpenFOAM: The Open Source CFD Toolbox
   \\    /   O peration     | Website:  https://openfoam.org
    \\  /    A nd           | Version:  7
     \\/     M anipulation  |
\*---------------------------------------------------------------------------*/
FoamFile
{
    version     2.0;
    format      ascii;
    class       volVectorField;
    location    "2000";
    object      UMean;
}
// * * * * * * * * * * * * * * * * * * * * * * * * * * * * * * * * * * * * * //

dimensions      [0 1 -1 0 0 0 0];

internalField   nonuniform List<vector> 
34387
(
(-2.7072037e+88 6.8822313e+85 -5.9035049e+86)
(-2.7230945e+88 5.3035546e+86 -4.9662733e+86)
(-2.4871325e+88 2.8421797e+86 -1.3659369e+87)
(-2.4800649e+88 -1.0330781e+85 -1.3750116e+87)
(-3.381927e+88 9.218284e+86 -4.7516956e+86)
(-2.7413759e+88 6.1994528e+86 -4.8642895e+86)
(-2.7367798e+88 1.8142478e+86 -5.9078899e+86)
(-2.5108295e+88 3.8773094e+86 -1.383654e+87)
(-2.4997598e+88 1.3278286e+86 -1.4278158e+87)
(-2.1271632e+88 4.0375729e+84 -1.0121696e+87)
(-2.1319474e+88 3.1084048e+85 -1.0439754e+87)
(-2.4708527e+88 8.975309e+85 -1.1580761e+87)
(-2.4329006e+88 -4.9807702e+85 -1.2112224e+87)
(-2.3970433e+88 2.2693328e+85 -1.5815117e+87)
(-2.3873054e+88 -9.4597211e+85 -1.5553559e+87)
(-2.4789931e+88 2.3581987e+86 -1.1449812e+87)
(-2.1260129e+88 -1.2423873e+85 -1.1009979e+87)
(-2.1328957e+88 5.8189582e+85 -1.0330644e+87)
(-2.4463477e+88 3.8456362e+85 -1.1832399e+87)
(-2.4040207e+88 1.4043168e+86 -1.5835583e+87)
(-2.3938247e+88 -2.325534e+85 -1.5580701e+87)
(-2.7530886e+88 5.3245661e+86 -7.6988969e+86)
(-2.467876e+88 2.2773683e+86 -1.5106873e+87)
(-2.2202327e+88 1.5220968e+86 -2.1798598e+87)
(-2.2607897e+88 -1.4137616e+86 -2.0681394e+87)
(-2.4762543e+88 -6.3462679e+84 -1.3987232e+87)
(-2.4805556e+88 7.9742273e+85 -1.3914129e+87)
(-2.2535162e+88 4.6709453e+83 -2.1819765e+87)
(-2.2406818e+88 -1.9871484e+86 -2.1541309e+87)
(-2.4600377e+88 -1.1502647e+86 -1.4397507e+87)
(-2.7346067e+88 3.2098293e+85 -7.5103004e+86)
(-2.4220373e+88 5.2385398e+86 -2.5110984e+87)
(-2.4109389e+88 3.8951187e+85 -2.4436297e+87)
(-2.6116387e+88 2.7005529e+86 -2.4152333e+87)
(-2.7612708e+88 7.0191127e+86 -4.350923e+86)
(-2.7555045e+88 2.4964237e+86 -5.6794888e+86)
(-2.5343076e+88 4.1714127e+86 -1.3651623e+87)
(-2.5210614e+88 2.1859688e+86 -1.4383508e+87)
(-2.3050789e+88 5.4523336e+86 -8.024444e+85)
(-2.2977456e+88 2.6690317e+86 -6.2171587e+85)
(-2.3018537e+88 4.4357405e+86 -6.2874561e+86)
(-2.2467842e+88 2.9306786e+86 -6.1529923e+86)
(-2.4813621e+88 3.3873842e+86 -1.0416738e+87)
(-2.420338e+88 2.4287485e+86 -1.4176374e+87)
(-2.4069233e+88 2.6662683e+85 -1.5636437e+87)
(-2.4484527e+88 1.0376787e+86 -1.2309725e+87)
(-2.4616841e+88 3.8660068e+85 -1.2150134e+87)
(-2.4850908e+88 2.0174929e+86 -1.1655696e+87)
(-2.4099419e+88 -1.6101735e+85 -1.5986859e+87)
(-2.4130553e+88 1.3481667e+86 -1.5866067e+87)
(-2.4976683e+88 3.2064998e+86 -1.2574425e+87)
(-2.2531228e+88 2.1653948e+86 -2.1249215e+87)
(-2.2629633e+88 -7.001616e+85 -2.1414878e+87)
(-2.7720604e+88 6.3997038e+86 -7.8780539e+86)
(-2.4897573e+88 4.0416697e+85 -1.4150587e+87)
(-2.7581362e+88 1.6103999e+86 -8.2128846e+86)
(-2.501096e+88 1.9098852e+86 -1.4003065e+87)
(-2.262792e+88 1.0006804e+86 -2.2140802e+87)
(-2.2511695e+88 -4.1042961e+85 -2.1922493e+87)
(-2.4882787e+88 1.7098844e+84 -1.4611981e+87)
(-2.4326459e+88 5.7670181e+86 -2.645459e+87)
(-2.4232189e+88 8.6373677e+85 -2.6023236e+87)
(-1.8310479e+88 8.0645987e+84 -6.8342479e+86)
(-1.8375313e+88 1.2823536e+84 -7.1694946e+86)
(-2.1686888e+88 -2.1780299e+84 -9.0444845e+86)
(-1.8582379e+88 -7.6835702e+84 -9.1156418e+86)
(-1.8510494e+88 -5.9597681e+84 -8.8194985e+86)
(-1.8391965e+88 -9.848132e+84 -7.2100002e+86)
(-2.1758097e+88 1.8862411e+85 -9.2533309e+86)
(-1.8562483e+88 1.4615432e+84 -9.5139479e+86)
(-1.8596695e+88 -2.2512041e+85 -9.1149336e+86)
(-2.1527672e+88 2.4503563e+85 -1.1725822e+87)
(-2.1493345e+88 -7.2598043e+85 -1.1329097e+87)
(-1.8536648e+88 -3.2545507e+85 -8.928251e+86)
(-2.1652782e+88 -5.6903798e+85 -9.3051194e+86)
(-1.8569436e+88 -1.713534e+85 -9.4199043e+86)
(-2.1546406e+88 -2.5767739e+85 -9.3555927e+86)
(-2.1539318e+88 -9.8709269e+85 -1.0858146e+87)
(-2.1392693e+88 -2.335221e+85 -1.1220629e+87)
(-2.2025761e+88 -6.0610934e+85 -1.1601742e+87)
(-2.197835e+88 -1.1510252e+86 -1.3844822e+87)
(-2.2079363e+88 1.0785683e+85 -1.1915426e+87)
(-2.2013192e+88 -5.3331654e+84 -1.4253613e+87)
(-2.1866824e+88 -6.8803556e+85 -1.3606869e+87)
(-2.1936471e+88 -1.8633723e+86 -1.380375e+87)
(-2.2023513e+88 -1.2062672e+86 -1.1134085e+87)
(-2.1798551e+88 -4.9359545e+85 -1.2022381e+87)
(-2.1902515e+88 7.5328364e+85 -9.1994897e+86)
(-2.20532e+88 9.1773471e+85 -8.8012232e+86)
(-2.1892629e+88 1.1065936e+86 -1.0989126e+87)
(-2.1875152e+88 2.0349074e+85 -1.0792622e+87)
(-1.7818514e+88 1.8672039e+85 -7.2980483e+86)
(-1.8252825e+88 -1.6621734e+85 -7.8575693e+86)
(-1.8338713e+88 3.9751557e+85 -7.9557699e+86)
(-1.844502e+88 -2.8752262e+85 -9.856852e+86)
(-2.1654021e+88 -5.3846502e+84 -1.0011882e+87)
(-1.853475e+88 4.0126622e+85 -9.8939908e+86)
(-1.8408921e+88 3.3465831e+85 -6.8106687e+86)
(-1.8402757e+88 1.2500966e+85 -7.209668e+86)
(-2.1730486e+88 2.3004147e+85 -9.3422515e+86)
(-1.8606358e+88 1.9719031e+84 -9.1250651e+86)
(-1.8605531e+88 2.3735586e+85 -8.6815166e+86)
(-2.1526851e+88 -3.7822341e+85 -1.1798752e+87)
(-2.1641074e+88 2.1707466e+85 -1.0905949e+87)
(-2.2267738e+88 -6.6225538e+85 -1.4109051e+87)
(-2.2387794e+88 1.0036966e+85 -1.1072212e+87)
(-2.2501172e+88 1.3949476e+86 -1.1111664e+87)
(-2.2345666e+88 1.5285963e+86 -1.4298455e+87)
(-2.2086774e+88 1.0120262e+85 -1.3920231e+87)
(-2.2032985e+88 -6.2177225e+85 -1.4263167e+87)
(-2.195216e+88 -4.0899072e+85 -1.2516086e+87)
(-2.2147076e+88 1.3286036e+85 -1.1061575e+87)
(-2.1602505e+88 7.214441e+85 -1.4323874e+87)
(-2.4523707e+88 2.4762406e+86 -9.6192834e+86)
(-2.4774419e+88 -3.4414547e+84 -9.7398724e+86)
(-2.1525972e+88 -4.3406131e+85 -1.4259204e+87)
(-2.2880235e+88 -3.2427748e+85 -1.4240106e+87)
(-2.2590788e+88 -6.9760777e+85 -1.8853798e+87)
(-2.2999603e+88 1.9121712e+86 -1.4248202e+87)
(-2.2658881e+88 1.4721898e+86 -1.9216383e+87)
(-2.1992506e+88 4.4808803e+85 -2.5007872e+87)
(-2.1866873e+88 -4.026285e+85 -2.5383877e+87)
(-2.3432674e+88 -2.0420305e+84 -1.752515e+87)
(-2.3552359e+88 1.9730695e+86 -1.7509994e+87)
(-2.2146862e+88 -8.4764721e+85 -2.4468914e+87)
(-2.3417531e+88 -2.423415e+85 -1.5098415e+87)
(-2.3502877e+88 -1.8669634e+85 -1.3868691e+87)
(-2.2091632e+88 -2.5883727e+85 -2.4383322e+87)
(-2.2469666e+88 -3.8793086e+85 -1.7698243e+87)
(-2.2560294e+88 -6.4123942e+85 -1.5187844e+87)
(-2.2695297e+88 2.1512403e+85 -1.393131e+87)
(-2.2490748e+88 -5.801771e+84 -1.7504976e+87)
(-2.2413892e+88 -5.8553811e+85 -1.7730347e+87)
(-2.2408805e+88 -1.6318152e+86 -1.7217441e+87)
(-2.2495924e+88 -1.138397e+86 -1.4470814e+87)
(-2.2560431e+88 2.207756e+84 -1.4628537e+87)
(-2.2043372e+88 -1.9173332e+86 -2.4919492e+87)
(-2.2031424e+88 -1.1539297e+86 -2.5041113e+87)
(-2.4741974e+88 9.6708116e+85 -9.9740066e+86)
(-2.3291048e+88 -4.3133365e+85 -1.569797e+87)
(-2.326672e+88 -1.2793042e+86 -1.5438765e+87)
(-2.1916957e+88 -2.359527e+86 -2.4743151e+87)
(-2.1819467e+88 -1.3726352e+86 -2.4985242e+87)
(-2.4552546e+88 -3.924861e+85 -9.3310804e+86)
(-2.312114e+88 -1.3751217e+86 -1.5000703e+87)
(-2.3194466e+88 -2.3614476e+86 -1.5134762e+87)
(-2.2492333e+88 -2.182312e+86 -1.4285118e+87)
(-2.2322932e+88 -2.3814425e+86 -1.7453459e+87)
(-2.2278452e+88 -1.235268e+86 -1.6994316e+87)
(-2.2360863e+88 -7.4239745e+85 -1.4603088e+87)
(-2.1446079e+88 1.0345301e+86 -1.4101086e+87)
(-2.139167e+88 6.694106e+85 -1.3215815e+87)
(-2.3006024e+88 4.6721088e+85 -2.5040623e+87)
(-2.2829439e+88 2.5994084e+86 -2.4649044e+87)
(-2.7822155e+88 5.9730112e+86 -2.3318432e+86)
(-2.4893284e+88 2.2670802e+86 6.8103317e+86)
(-2.6318756e+88 3.3238296e+86 -2.5061763e+87)
(-2.4981567e+88 4.7284426e+86 -9.8737802e+86)
(-2.4773254e+88 2.0752672e+86 -1.1585033e+87)
(-2.4357887e+88 3.8818364e+86 -1.3658381e+87)
(-2.4246733e+88 1.2289497e+86 -1.5744836e+87)
(-2.5025518e+88 3.0978721e+86 -1.1395895e+87)
(-2.473219e+88 1.6217208e+86 -1.1830284e+87)
(-2.4277455e+88 2.3740278e+86 -1.5763824e+87)
(-2.4236109e+88 1.1247396e+86 -1.5668769e+87)
(-2.5219885e+88 4.2094554e+86 -1.1900819e+87)
(-2.2800345e+88 2.7422213e+86 -2.073154e+87)
(-2.275861e+88 2.513558e+85 -2.1664884e+87)
(-2.5066366e+88 1.1749819e+86 -1.4458922e+87)
(-2.7843742e+88 6.2440695e+86 -8.1791833e+86)
(-2.5149959e+88 2.7899272e+86 -1.4141317e+87)
(-2.2692736e+88 1.9955382e+86 -2.2503155e+87)
(-2.2631097e+88 1.0567806e+84 -2.2300254e+87)
(-2.4995305e+88 8.2328802e+85 -1.4638216e+87)
(-2.781279e+88 2.0823557e+86 -8.395821e+86)
(-2.4420136e+88 5.9131459e+86 -2.7383822e+87)
(-2.4353165e+88 1.0570445e+86 -2.7163621e+87)
(-2.2017065e+88 1.6265961e+86 -8.5912643e+86)
(-2.1855581e+88 2.0046881e+86 -8.1245747e+86)
(-2.1724427e+88 1.352782e+86 -9.9144199e+86)
(-2.1838956e+88 1.5456459e+86 -1.1074325e+87)
(-2.2247072e+88 1.1389207e+86 -1.3930908e+87)
(-2.2097733e+88 4.9106635e+85 -1.2527999e+87)
(-2.2176499e+88 1.1183805e+86 -1.0353219e+87)
(-2.2319157e+88 1.3202321e+86 -1.1456304e+87)
(-2.210026e+88 7.8659368e+85 -1.3747954e+87)
(-2.213961e+88 -5.7755827e+85 -1.4096919e+87)
(-2.2273291e+88 -5.5196037e+84 -1.1063498e+87)
(-2.2243988e+88 8.7849236e+85 -1.0656805e+87)
(-2.175111e+88 9.505513e+85 -1.0334399e+87)
(-2.1781507e+88 1.8008696e+85 -1.0721885e+87)
(-2.1777304e+88 5.7820351e+85 -9.8470055e+86)
(-2.174837e+88 1.0556569e+86 -9.5223277e+86)
(-2.1798109e+88 4.1492825e+85 -9.5104503e+86)
(-2.1946451e+88 7.559251e+85 -8.7864969e+86)
(-2.1627393e+88 3.2907359e+84 -1.1378077e+87)
(-2.1703529e+88 6.3954715e+85 -1.1249873e+87)
(-2.1885967e+88 1.028725e+86 -9.4268026e+86)
(-2.1804405e+88 7.8726976e+85 -9.2175268e+86)
(-2.1711317e+88 1.029649e+86 -1.1545832e+87)
(-2.1664467e+88 1.2533792e+85 -1.1069348e+87)
(-2.2116379e+88 -7.5077919e+85 -1.3725508e+87)
(-2.2055676e+88 -2.1773444e+85 -1.2116791e+87)
(-2.2211944e+88 1.6176886e+85 -1.1964259e+87)
(-2.2197422e+88 -1.3140815e+85 -1.4373766e+87)
(-2.2159819e+88 8.9576934e+85 -1.3956242e+87)
(-2.2102712e+88 -2.7993667e+85 -1.3601591e+87)
(-2.2129457e+88 2.8343988e+85 -1.1534485e+87)
(-2.2213493e+88 1.0654361e+86 -1.1786379e+87)
(-2.2498746e+88 7.4310348e+85 -1.9149081e+87)
(-2.2440598e+88 4.1427977e+84 -1.6131695e+87)
(-2.2600743e+88 4.6975193e+85 -1.3302463e+87)
(-2.2797299e+88 1.496017e+86 -1.459439e+87)
(-2.4806148e+88 3.4015978e+86 -9.7580209e+86)
(-2.1852551e+88 1.7607908e+85 -2.4647997e+87)
(-2.3324744e+88 8.6780027e+85 -1.3996178e+87)
(-2.1901739e+88 3.6752697e+85 -2.497846e+87)
(-2.3341528e+88 1.2861132e+86 -1.7582728e+87)
(-2.2110673e+88 -7.8702482e+84 -2.4584058e+87)
(-2.2068829e+88 -7.1125607e+85 -2.4994649e+87)
(-2.3454681e+88 -2.761082e+85 -1.5257901e+87)
(-2.3459662e+88 1.13851e+85 -1.4825425e+87)
(-2.4933255e+88 9.8554742e+85 -1.0217791e+87)
(-2.1586674e+88 1.3212073e+86 -1.5446067e+87)
(-2.1528546e+88 2.7084236e+85 -1.5496121e+87)
(-2.2719735e+88 -5.0866276e+85 -1.4602354e+87)
(-2.2519827e+88 -4.2098306e+85 -1.7734042e+87)
(-2.2683824e+88 7.1912883e+85 -1.4222063e+87)
(-2.2526516e+88 2.6932781e+85 -1.707896e+87)
(-2.4872751e+88 2.2762831e+86 -1.0615697e+87)
(-2.4662393e+88 1.4015976e+86 -1.014899e+87)
(-2.1427492e+88 2.2410006e+86 -1.5341636e+87)
(-2.1392142e+88 1.8580115e+86 -1.4353272e+87)
(-2.2534063e+88 2.0169566e+85 -1.7620481e+87)
(-2.2529669e+88 -9.1608054e+85 -1.689965e+87)
(-2.2633688e+88 -4.2797088e+85 -1.4280537e+87)
(-2.2713247e+88 8.7701805e+85 -1.4470779e+87)
(-2.2110855e+88 -5.2311287e+85 -2.5118399e+87)
(-2.2105302e+88 -1.3129275e+86 -2.5266586e+87)
(-2.341025e+88 -5.0139067e+85 -1.5153702e+87)
(-2.3460132e+88 3.2509748e+85 -1.5310141e+87)
(-2.2041381e+88 -1.3916992e+86 -2.4817159e+87)
(-2.3445546e+88 -1.3244771e+86 -1.4685928e+87)
(-2.3393287e+88 -7.4867777e+85 -1.6761403e+87)
(-2.1843444e+88 -7.8489693e+85 -2.5748139e+87)
(-2.2511884e+88 -9.3155328e+85 -1.9305995e+87)
(-2.2503627e+88 -1.4817286e+86 -1.7439889e+87)
(-2.2620443e+88 -1.2593626e+86 -1.4881832e+87)
(-2.2739822e+88 -3.4105613e+85 -1.524348e+87)
(-2.3084346e+88 1.1701191e+86 -2.6088493e+87)
(-2.2939802e+88 3.341438e+86 -2.5846151e+87)
(-1.4301734e+88 8.0220092e+84 -5.4197475e+86)
(-1.4308345e+88 -6.5253032e+85 -5.4084873e+86)
(-1.4678155e+88 3.5936186e+84 -5.4023225e+86)
(-1.4705154e+88 -6.6547361e+85 -5.3898848e+86)
(-1.4723072e+88 -2.0553143e+84 -5.6417713e+86)
(-1.4729678e+88 -7.6113446e+85 -5.6578102e+86)
(-1.4325007e+88 -8.8117857e+84 -5.7570661e+86)
(-1.4331621e+88 -7.5771955e+85 -5.7688096e+86)
(-1.8819173e+88 -1.1001186e+85 -8.4409066e+86)
(-1.8722942e+88 -2.5155928e+85 -9.0727123e+86)
(-1.8757519e+88 -2.735193e+85 -9.5373599e+86)
(-1.8869599e+88 -3.6890751e+85 -8.7043219e+86)
(-1.4827419e+88 -3.0759034e+85 -5.7660828e+86)
(-1.4804502e+88 -1.1782847e+85 -5.43718e+86)
(-1.4355025e+88 -1.2998873e+85 -5.7196839e+86)
(-1.4360158e+88 -8.1770611e+85 -5.71707e+86)
(-1.4730537e+88 -1.348576e+85 -5.6434312e+86)
(-1.4755816e+88 -8.0193061e+85 -5.6531197e+86)
(-1.8752044e+88 -1.5080202e+85 -9.9911476e+86)
(-1.8768222e+88 -4.2779613e+85 -9.4808034e+86)
(-1.8883368e+88 -1.8009515e+85 -8.7200438e+86)
(-1.8866855e+88 -2.0662908e+85 -9.0995708e+86)
(-1.4862628e+88 -3.9100592e+85 -6.0215249e+86)
(-1.485823e+88 -3.7755788e+85 -5.682245e+86)
(-1.9072744e+88 -2.4552017e+85 -1.0862527e+87)
(-1.9066511e+88 -8.0501327e+85 -1.0326464e+87)
(-1.9149122e+88 -4.8051147e+85 -9.6164373e+86)
(-1.9136217e+88 -1.2072171e+85 -1.0146636e+87)
(-1.9070407e+88 -3.5558727e+85 -1.0408308e+87)
(-1.9015398e+88 -6.3237607e+85 -9.9216272e+86)
(-1.9090954e+88 -4.2466126e+85 -9.2351566e+86)
(-1.9128705e+88 -3.3167121e+85 -9.7497965e+86)
(-1.4817041e+88 -3.0785365e+85 -5.6066179e+86)
(-1.8865316e+88 -2.8182626e+85 -8.4003173e+86)
(-1.8745951e+88 -3.6864127e+85 -9.2008037e+86)
(-1.8765236e+88 -4.0635021e+85 -9.8891142e+86)
(-1.8870859e+88 -4.6773178e+85 -8.976551e+86)
(-1.4820129e+88 -3.8972953e+85 -5.9424679e+86)
(-1.8797521e+88 -3.1156933e+85 -8.3461586e+86)
(-1.8645495e+88 -5.3760902e+85 -9.4235291e+86)
(-1.91447e+88 -4.5301291e+85 -9.4207193e+86)
(-1.9092194e+88 -6.4510524e+85 -9.9842121e+86)
(-1.9088581e+88 -4.5413995e+85 -1.059393e+87)
(-1.9127576e+88 -4.5670287e+85 -1.0102159e+87)
(-1.9029103e+88 -6.5942646e+85 -9.7235828e+86)
(-1.9001435e+88 -8.6048031e+85 -9.9689093e+86)
(-1.8927364e+88 -4.6987056e+85 -1.0771287e+87)
(-1.9419487e+88 -6.4029578e+85 -9.7023348e+86)
(-1.9295216e+88 -9.8708283e+85 -1.0882466e+87)
(-1.9349088e+88 -4.2953695e+85 -1.1394066e+87)
(-1.9439106e+88 -4.2447155e+85 -1.0360924e+87)
(-1.9757029e+88 -1.1218943e+86 -1.1219364e+87)
(-1.9778303e+88 -1.4267189e+86 -1.1844014e+87)
(-1.98437e+88 -3.4800423e+85 -1.1855537e+87)
(-1.9766775e+88 -3.583985e+85 -1.1835959e+87)
(-1.9477518e+88 -8.2800986e+85 -1.008109e+87)
(-1.9326073e+88 -1.286061e+86 -1.1710955e+87)
(-1.9364699e+88 -4.2666305e+85 -1.1809477e+87)
(-1.9449369e+88 -3.6217813e+85 -1.0766101e+87)
(-1.9783696e+88 -1.4938419e+86 -1.1929151e+87)
(-1.9850404e+88 -1.8463447e+86 -1.1919233e+87)
(-1.9864229e+88 -5.6045629e+85 -1.2259195e+87)
(-1.9781657e+88 -4.7818537e+85 -1.2261037e+87)
(-1.9738734e+88 -9.9928278e+85 -1.1724838e+87)
(-1.9720053e+88 -1.7831232e+86 -1.1340634e+87)
(-1.9693355e+88 -1.5212072e+86 -1.0983891e+87)
(-1.9643275e+88 -8.3277479e+85 -1.1832212e+87)
(-1.98256e+88 -5.6241732e+85 -1.2196168e+87)
(-1.9827182e+88 -1.661438e+86 -1.1260541e+87)
(-1.9824393e+88 -1.3520752e+86 -1.0620343e+87)
(-1.9787334e+88 -5.1803259e+85 -1.1858158e+87)
(-1.9462763e+88 -8.3040044e+85 -9.8476189e+86)
(-1.93917e+88 -1.0688444e+86 -1.0453815e+87)
(-1.935792e+88 -5.0664903e+85 -1.1551508e+87)
(-1.9451432e+88 -6.0305385e+85 -1.0529272e+87)
(-1.9254964e+88 -7.5173271e+85 -1.1266591e+87)
(-1.9298415e+88 -1.2628199e+86 -1.0463822e+87)
(-1.9339904e+88 -9.2701954e+85 -1.0010429e+87)
(-1.9269766e+88 -5.8917617e+85 -1.0841302e+87)
(-1.9171066e+88 7.0748965e+85 -7.9852449e+86)
(-1.9183715e+88 1.00755e+85 -8.1244567e+86)
(-1.910826e+88 6.6288964e+85 -8.6020236e+86)
(-1.9082126e+88 1.2601411e+85 -8.970769e+86)
(-1.9188122e+88 -1.0971264e+85 -8.4033812e+86)
(-1.9222692e+88 3.5109816e+85 -8.094774e+86)
(-1.9114482e+88 1.1846635e+85 -8.862899e+86)
(-1.9074387e+88 -5.4567227e+84 -9.2886592e+86)
(-1.9398512e+88 -8.1912278e+83 -1.0170273e+87)
(-1.9406264e+88 -2.0407348e+85 -9.7783826e+86)
(-1.9469192e+88 5.9442389e+84 -9.415511e+86)
(-1.9496563e+88 9.2799326e+84 -9.0165552e+86)
(-1.9410926e+88 2.0984172e+85 -9.7444915e+86)
(-1.9436938e+88 5.0895992e+85 -9.1654813e+86)
(-1.9447516e+88 5.626563e+85 -8.9047501e+86)
(-1.943837e+88 9.7359996e+84 -9.2874491e+86)
(-1.4452253e+88 1.2696965e+84 -6.3733724e+86)
(-1.4455178e+88 -6.9544774e+85 -6.3945944e+86)
(-1.4873071e+88 -5.5247299e+85 -6.281628e+86)
(-1.4869638e+88 8.999493e+83 -6.2625897e+86)
(-1.4331429e+88 -8.7127715e+84 -5.9923835e+86)
(-1.4334882e+88 -8.3705269e+85 -5.9927333e+86)
(-1.4671515e+88 -1.438246e+85 -6.0182209e+86)
(-1.4697086e+88 -8.0888032e+85 -6.0234644e+86)
(-1.4735801e+88 5.637055e+84 -6.0352354e+86)
(-1.4737564e+88 -6.6593936e+85 -6.0280246e+86)
(-1.4361292e+88 -2.515639e+84 -6.0721891e+86)
(-1.4367784e+88 -6.911491e+85 -6.0694578e+86)
(-1.484128e+88 -3.4414929e+85 -6.0066326e+86)
(-1.8762507e+88 -2.1249661e+85 -9.3635423e+86)
(-1.8711049e+88 2.7481797e+85 -1.0425205e+87)
(-1.863288e+88 -3.0010594e+85 -1.0333936e+87)
(-1.8828752e+88 1.1409759e+85 -9.4670816e+86)
(-1.4857646e+88 -1.5140571e+85 -6.0941303e+86)
(-1.4173814e+88 4.5566017e+84 -5.754502e+86)
(-1.4178877e+88 -6.381564e+85 -5.732177e+86)
(-1.4589871e+88 5.9070527e+84 -5.6160386e+86)
(-1.460872e+88 -6.2668002e+85 -5.586954e+86)
(-1.4672339e+88 3.9599659e+84 -5.7708699e+86)
(-1.4680226e+88 -6.5756431e+85 -5.7523269e+86)
(-1.4258977e+88 -2.0639188e+84 -5.8920378e+86)
(-1.4270115e+88 -6.5654175e+85 -5.8835478e+86)
(-1.8930765e+88 2.9504657e+85 -8.1891704e+86)
(-1.8787703e+88 9.3486158e+84 -9.1573063e+86)
(-1.8803354e+88 -3.3290946e+85 -9.5366946e+86)
(-1.8905524e+88 -2.6024938e+85 -8.6850737e+86)
(-1.4757168e+88 -2.3998272e+85 -5.9249045e+86)
(-1.4677592e+88 -6.7814148e+84 -5.7485076e+86)
(-1.9026615e+88 -3.3745784e+85 -1.0642942e+87)
(-1.898332e+88 -4.9658567e+85 -1.1417199e+87)
(-1.9049447e+88 4.0345455e+85 -1.1213074e+87)
(-1.9073693e+88 2.8197444e+85 -1.0744013e+87)
(-1.9178575e+88 -2.0553386e+84 -9.4475047e+86)
(-1.9135145e+88 -1.3921378e+85 -9.7503448e+86)
(-1.9123868e+88 -4.4418889e+85 -1.0265034e+87)
(-1.9160512e+88 -4.3747776e+85 -9.8135754e+86)
(-2.0175416e+88 -9.0279426e+84 -1.0047983e+87)
(-2.0158813e+88 -4.3595606e+85 -1.092672e+87)
(-2.0151816e+88 3.3041702e+85 -1.1445666e+87)
(-2.0136031e+88 2.6076096e+85 -1.0765661e+87)
(-1.9700704e+88 1.9915391e+85 -1.0490016e+87)
(-1.969663e+88 4.2440723e+84 -9.9170929e+86)
(-1.9789367e+88 3.0615174e+85 -9.2482862e+86)
(-1.9772191e+88 1.7380342e+85 -9.8473135e+86)
(-1.9824898e+88 -1.0102335e+85 -9.7068427e+86)
(-1.9692939e+88 -5.8564947e+85 -1.0942746e+87)
(-1.9709837e+88 1.6178541e+85 -1.1006513e+87)
(-1.9796158e+88 1.1376951e+85 -1.0062659e+87)
(-2.0188387e+88 -5.6705152e+85 -1.1063444e+87)
(-2.0174598e+88 -1.0150019e+86 -1.203557e+87)
(-2.0149914e+88 4.1470331e+85 -1.2341931e+87)
(-2.0175178e+88 3.7444534e+85 -1.1095785e+87)
(-1.989424e+88 -5.6187051e+85 -1.179175e+87)
(-1.9841637e+88 -1.00873e+86 -1.1220589e+87)
(-1.9852247e+88 -7.1683759e+85 -1.0604488e+87)
(-1.9846252e+88 -4.4153207e+85 -1.1405799e+87)
(-1.9889771e+88 8.404892e+85 -1.2344388e+87)
(-1.9847895e+88 -6.497965e+85 -1.2023364e+87)
(-1.9738786e+88 -6.5040633e+85 -1.2228406e+87)
(-1.9788782e+88 5.6646787e+85 -1.2343284e+87)
(-1.9341475e+88 -5.6911776e+85 -1.1468521e+87)
(-1.9350236e+88 -5.206748e+85 -1.1659538e+87)
(-1.9381937e+88 4.9945492e+85 -1.1826065e+87)
(-1.9400681e+88 2.8398595e+85 -1.130264e+87)
(-1.94067e+88 -5.4222869e+85 -1.1067871e+87)
(-1.9402153e+88 -5.7623457e+85 -1.0405397e+87)
(-1.9494538e+88 -2.2836248e+85 -9.7399994e+86)
(-1.9487166e+88 -4.7989368e+85 -1.0261163e+87)
(-2.0851013e+88 -3.4824213e+86 -2.4556849e+87)
(-2.3095456e+88 5.8409084e+85 -1.4052683e+87)
(-2.3356182e+88 1.3523925e+86 -1.3791502e+87)
(-2.059376e+88 -1.8904604e+86 -1.0911572e+87)
(-2.0688997e+88 3.5337638e+85 -1.0358202e+87)
(-2.3438123e+88 7.3893215e+84 -1.3908796e+87)
(-2.3446402e+88 -1.2841028e+86 -1.4308707e+87)
(-2.0793253e+88 -2.5240199e+86 -1.2054824e+87)
(-2.0819526e+88 1.062695e+86 -1.1861834e+87)
(-2.078084e+88 3.0384264e+86 -2.4812755e+87)
(-2.0621537e+88 -4.2856126e+85 -1.0770541e+87)
(-2.0531766e+88 -1.0046733e+86 -1.2616628e+87)
(-2.0523288e+88 4.8217642e+85 -1.2735117e+87)
(-2.0558683e+88 4.2474511e+85 -1.1661438e+87)
(-2.1055351e+88 -1.0084553e+86 -1.2779813e+87)
(-2.1048903e+88 -1.4723697e+86 -1.4351044e+87)
(-2.1112117e+88 7.5683317e+85 -1.4567498e+87)
(-2.0996785e+88 8.1171964e+85 -1.3345459e+87)
(-2.0644719e+88 -9.6068189e+85 -1.1936355e+87)
(-2.0526451e+88 -1.7473939e+86 -1.4527064e+87)
(-2.0617367e+88 6.3852413e+85 -1.2227999e+87)
(-2.058456e+88 7.8442834e+85 -1.3403394e+87)
(-2.1046537e+88 -1.7257259e+86 -1.4060107e+87)
(-2.1180738e+88 -2.1252188e+86 -1.5471797e+87)
(-2.120804e+88 1.2493223e+86 -1.5067034e+87)
(-2.1065333e+88 1.1137902e+86 -1.3992437e+87)
(-2.1300682e+88 1.3973425e+86 -2.6285296e+87)
(-2.1265656e+88 -2.0697668e+86 -2.6801349e+87)
(-2.2016581e+88 -2.3248781e+86 -1.9006783e+87)
(-2.2030599e+88 1.89167e+86 -1.8687145e+87)
(-2.1130945e+88 9.9448024e+85 -2.6302308e+87)
(-2.105397e+88 -6.1947426e+85 -2.7048628e+87)
(-2.1835647e+88 -1.0448102e+86 -1.8420248e+87)
(-2.189627e+88 1.478665e+86 -1.8346647e+87)
(-2.1495335e+88 -1.4080075e+86 -1.4764138e+87)
(-2.126187e+88 -1.5338011e+86 -1.8377026e+87)
(-2.1290902e+88 5.5121235e+85 -1.8481247e+87)
(-2.1523394e+88 1.1625251e+86 -1.4879214e+87)
(-2.1441538e+88 1.3958827e+86 -1.8586628e+87)
(-2.1401278e+88 -2.2422823e+86 -1.9152563e+87)
(-2.1590181e+88 -2.1418949e+86 -1.5927096e+87)
(-2.16167e+88 1.6603612e+86 -1.5529711e+87)
(-2.1158663e+88 1.1842628e+86 -2.6185685e+87)
(-2.1248983e+88 -1.5707997e+86 -2.5943693e+87)
(-2.1686601e+88 -7.9523259e+85 -1.6352976e+87)
(-2.1639548e+88 1.3161395e+86 -1.8996102e+87)
(-2.1249064e+88 -8.3028166e+85 -1.4749572e+87)
(-2.1069892e+88 -9.5007175e+85 -1.7356913e+87)
(-2.1095789e+88 9.4889435e+85 -1.8959178e+87)
(-2.1312661e+88 1.5404014e+86 -1.5420052e+87)
(-2.1297032e+88 -2.0692819e+86 -1.38656e+87)
(-2.0971795e+88 -2.3784213e+86 -1.8369635e+87)
(-2.1346069e+88 -6.6276051e+85 -1.3952939e+87)
(-2.1012419e+88 -6.1301133e+85 -1.9055233e+87)
(-2.1724815e+88 -2.7308449e+86 -1.5496406e+87)
(-2.1116484e+88 -2.6491674e+86 -2.5774971e+87)
(-2.1579852e+88 -6.3636454e+85 -1.7772206e+87)
(-2.1025475e+88 -6.3886807e+85 -2.6426719e+87)
(-2.0741735e+88 -8.9757357e+85 -1.3340417e+87)
(-2.0815246e+88 -1.030049e+86 -1.4480684e+87)
(-2.0922094e+88 1.2109978e+86 -1.4873185e+87)
(-2.0815876e+88 1.1766421e+86 -1.379552e+87)
(-2.035241e+88 9.8065084e+85 -1.3221813e+87)
(-2.0267016e+88 -8.7143382e+85 -1.3135424e+87)
(-2.022499e+88 -7.986586e+85 -1.2413332e+87)
(-2.0281182e+88 8.9443849e+85 -1.2700635e+87)
(-2.0309768e+88 -1.0228394e+86 -1.1114717e+87)
(-2.0230182e+88 -1.376601e+86 -1.2499522e+87)
(-2.0330519e+88 -5.1601251e+85 -1.2616303e+87)
(-2.0303441e+88 -5.4483002e+85 -1.1878948e+87)
(-2.0772747e+88 -1.6070531e+86 -1.2518121e+87)
(-2.0756867e+88 -2.0039432e+86 -1.4666354e+87)
(-2.0839564e+88 -5.6947498e+85 -1.4871605e+87)
(-2.0836866e+88 -4.3456687e+85 -1.2773909e+87)
(-2.0840964e+88 -8.8475309e+85 -1.5027794e+87)
(-2.0797781e+88 -3.4826607e+86 -1.4545515e+87)
(-2.071372e+88 -3.0088134e+86 -1.3310835e+87)
(-2.0748251e+88 -8.0296588e+85 -1.3685793e+87)
(-2.0828259e+88 -3.4514923e+85 -1.4635358e+87)
(-2.0772496e+88 -2.4062994e+86 -1.3908034e+87)
(-2.0663922e+88 -1.97543e+86 -1.2911029e+87)
(-2.0729282e+88 -2.302166e+85 -1.3316571e+87)
(-2.0182283e+88 -1.6107531e+86 -1.1854954e+87)
(-2.0224104e+88 -1.8127847e+86 -1.2299192e+87)
(-2.0268898e+88 -3.6462732e+85 -1.2848363e+87)
(-2.0237346e+88 -4.2971369e+85 -1.2052894e+87)
(-2.0286856e+88 -8.5108246e+85 -1.3300536e+87)
(-2.0258306e+88 -2.6617158e+86 -1.2911881e+87)
(-2.0241819e+88 -2.0270212e+86 -1.2118131e+87)
(-2.0261235e+88 -6.3837223e+85 -1.2402525e+87)
(-2.332749e+88 -1.0245994e+86 -1.4180773e+87)
(-2.1068434e+88 -2.8421345e+86 -2.6151074e+87)
(-2.1504968e+88 -2.4723476e+86 -1.6508447e+87)
(-2.1548357e+88 -2.6105599e+85 -1.7820513e+87)
(-2.0990368e+88 -3.5371326e+85 -2.5937263e+87)
(-2.3402598e+88 2.3396829e+85 -1.4260617e+87)
(-2.1128555e+88 -3.9123196e+86 -2.5811645e+87)
(-2.157535e+88 -4.2392875e+86 -1.6489522e+87)
(-2.1552206e+88 -1.1060709e+86 -1.7767179e+87)
(-2.1021477e+88 -1.0065247e+86 -2.5942798e+87)
(-2.0787635e+88 -2.6878716e+86 -1.204342e+87)
(-2.0711296e+88 6.7366498e+85 -1.1818487e+87)
(-2.0988446e+88 -1.0391553e+86 -1.9177804e+87)
(-2.0993364e+88 -3.9407226e+86 -1.7566995e+87)
(-2.1193768e+88 -3.7610553e+86 -1.4725252e+87)
(-2.1251937e+88 -8.7042613e+85 -1.5115959e+87)
(-2.0964209e+88 -6.487498e+85 -1.9208519e+87)
(-2.0954235e+88 -2.6498254e+86 -1.7175428e+87)
(-2.1137985e+88 -2.5956963e+86 -1.4373515e+87)
(-2.1249555e+88 -1.7421267e+85 -1.4772928e+87)
(-2.3278223e+88 -2.1851416e+86 -1.3223992e+87)
(-2.0990147e+88 -3.7334276e+86 -2.543647e+87)
(-2.1453465e+88 -3.385604e+86 -1.5749763e+87)
(-2.1452338e+88 -7.6368515e+85 -1.7636905e+87)
(-2.0886475e+88 -5.7573548e+85 -2.6094841e+87)
(-2.3081212e+88 -6.6258847e+85 -1.3240381e+87)
(-2.0834511e+88 -3.7114575e+86 -2.5445836e+87)
(-2.1326796e+88 -4.0462077e+86 -1.5277476e+87)
(-2.1283849e+88 -1.7342308e+86 -1.7047125e+87)
(-2.0700094e+88 -1.5488823e+86 -2.6374331e+87)
(-2.0530943e+88 -2.0745379e+86 -1.0852998e+87)
(-2.0440094e+88 1.162083e+86 -1.0996379e+87)
(-2.076106e+88 -1.682101e+86 -1.884903e+87)
(-2.0769193e+88 -3.6099652e+86 -1.6754995e+87)
(-2.101842e+88 -3.5699033e+86 -1.3643591e+87)
(-2.107426e+88 -1.5927287e+86 -1.429139e+87)
(-2.0888151e+88 -6.7827208e+85 -1.9409517e+87)
(-2.0894767e+88 -3.2375563e+86 -1.6852719e+87)
(-2.1093878e+88 -2.9851959e+86 -1.4132706e+87)
(-2.119181e+88 -3.7492112e+85 -1.4905923e+87)
(-2.0266339e+88 -1.8063342e+86 -1.1082261e+87)
(-2.0187817e+88 -2.2652468e+86 -1.2503858e+87)
(-2.0241802e+88 -4.3663262e+85 -1.3405859e+87)
(-2.0216189e+88 -6.2177418e+85 -1.2334297e+87)
(-2.0646399e+88 -2.5715864e+86 -1.3091622e+87)
(-2.0719545e+88 -2.8125554e+86 -1.4044807e+87)
(-2.0782008e+88 -4.511238e+85 -1.4982742e+87)
(-2.0698168e+88 -4.2732955e+85 -1.3789032e+87)
(-2.0687939e+88 -1.515323e+86 -1.4328024e+87)
(-2.063954e+88 -3.2145964e+86 -1.3647233e+87)
(-2.0578611e+88 -2.8592886e+86 -1.262934e+87)
(-2.0615162e+88 -1.3083977e+86 -1.3176944e+87)
(-2.0100899e+88 -2.044634e+86 -1.1665686e+87)
(-2.0141065e+88 -2.5030501e+86 -1.2136335e+87)
(-2.01789e+88 -1.3668936e+86 -1.2588423e+87)
(-2.0107474e+88 -1.1235455e+86 -1.2158755e+87)
(-2.0708286e+88 -3.3623732e+86 -2.4814693e+87)
(-2.052173e+88 3.7137464e+86 -2.444982e+87)
(-2.1338793e+88 -1.5734735e+86 6.0517103e+86)
(-2.1166478e+88 3.1436289e+86 6.2543788e+86)
(-2.7400856e+88 5.1647566e+86 4.9282406e+86)
(-2.4292033e+88 1.1529513e+86 8.4899251e+86)
(-2.4614511e+88 1.9847559e+86 8.8773325e+85)
(-2.4789815e+88 -4.9071405e+85 1.0380463e+86)
(-2.4250789e+88 -1.9414886e+86 9.4682445e+86)
(-2.5047134e+88 1.9624394e+86 -3.1443148e+86)
(-2.4909811e+88 -3.6983816e+84 -1.1942899e+86)
(-2.5073583e+88 3.1663515e+86 7.1655759e+86)
(-2.3383539e+88 9.6957141e+85 1.0574573e+87)
(-2.3627954e+88 1.4202812e+86 1.1224578e+87)
(-2.6549389e+88 3.8978398e+86 -2.5759873e+87)
(-2.2089875e+88 3.30404e+86 -6.9240031e+86)
(-2.2016882e+88 2.7283763e+86 -8.3718045e+86)
(-2.1912108e+88 2.7213195e+86 -8.8729381e+86)
(-2.1861192e+88 2.6445502e+86 -1.0480947e+87)
(-2.195117e+88 1.5510489e+86 -9.6005417e+86)
(-2.2072263e+88 2.0278228e+86 -8.3684503e+86)
(-2.1799942e+88 1.9588499e+86 -1.0784728e+87)
(-2.1804079e+88 1.0661497e+86 -1.142996e+87)
(-2.2498292e+88 2.9726152e+86 -8.8248805e+86)
(-2.2211824e+88 2.2183491e+86 -1.2364271e+87)
(-2.2296184e+88 2.549306e+86 -1.3055356e+87)
(-2.2358564e+88 2.7582298e+86 -1.0797769e+87)
(-2.2299421e+88 5.6895532e+85 -1.391907e+87)
(-2.2265345e+88 1.0000212e+86 -1.2001522e+87)
(-2.230049e+88 1.7529345e+86 -1.1221012e+87)
(-2.2267845e+88 1.5417225e+86 -1.3508473e+87)
(-2.2039124e+88 2.1536491e+86 -9.2585057e+86)
(-2.1942307e+88 2.0569601e+86 -9.1762629e+86)
(-2.1804682e+88 1.4499411e+86 -1.1034828e+87)
(-2.1856572e+88 2.1113171e+86 -1.1476632e+87)
(-2.1939157e+88 1.3689908e+86 -9.2290459e+86)
(-2.2029367e+88 1.8066212e+86 -8.0395673e+86)
(-2.174489e+88 1.7522096e+86 -1.0470393e+87)
(-2.1768735e+88 8.8973761e+85 -1.1012421e+87)
(-2.2293845e+88 1.8314665e+86 -1.3926201e+87)
(-2.2228847e+88 5.8930104e+85 -1.3552192e+87)
(-2.2290139e+88 1.2575318e+86 -1.1393352e+87)
(-2.2374603e+88 2.055491e+86 -1.1635173e+87)
(-2.2232412e+88 1.5373084e+85 -1.357822e+87)
(-2.2203938e+88 7.2199694e+85 -1.1752269e+87)
(-2.2241344e+88 1.496207e+86 -1.0946218e+87)
(-2.2196067e+88 1.2395733e+86 -1.3267412e+87)
(-2.2825457e+88 2.5338485e+86 -1.2566389e+87)
(-2.2582681e+88 2.1717802e+86 -1.6067129e+87)
(-2.2662986e+88 1.842693e+86 -1.6923934e+87)
(-2.2857798e+88 2.4882549e+86 -1.355423e+87)
(-2.2185436e+88 1.0333348e+86 -2.4736501e+87)
(-2.2092185e+88 1.5707754e+86 -2.4984089e+87)
(-2.351149e+88 2.4744551e+86 -1.4028127e+87)
(-2.3636681e+88 1.965268e+86 -1.433533e+87)
(-2.4963272e+88 2.8485162e+86 -9.7870179e+86)
(-2.3738727e+88 4.0574701e+85 -1.4431047e+87)
(-2.2153785e+88 1.2323938e+85 -2.5695841e+87)
(-2.223225e+88 5.8596535e+85 -2.5098734e+87)
(-2.3625342e+88 6.5301137e+85 -1.5071049e+87)
(-2.5129325e+88 1.4191039e+86 -1.0292374e+87)
(-2.2667984e+88 2.1419646e+85 -1.8187264e+87)
(-2.2678932e+88 8.8941373e+85 -1.7225464e+87)
(-2.2869689e+88 3.3768001e+85 -1.465598e+87)
(-2.2772985e+88 1.4875636e+86 -1.4678016e+87)
(-2.1585832e+88 9.4134281e+85 -1.5539145e+87)
(-2.1573781e+88 4.0515471e+85 -1.6002672e+87)
(-2.2637759e+88 -9.7014301e+84 -1.7107425e+87)
(-2.2759884e+88 4.9124163e+85 -1.4246063e+87)
(-2.2638794e+88 1.0029259e+86 -1.7817078e+87)