/*--------------------------------*- C++ -*----------------------------------*\
  =========                 |
  \\      /  F ield         | OpenFOAM: The Open Source CFD Toolbox
   \\    /   O peration     | Website:  https://openfoam.org
    \\  /    A nd           | Version:  7
     \\/     M anipulation  |
\*---------------------------------------------------------------------------*/
FoamFile
{
    version     2.0;
    format      ascii;
    class       volScalarField;
    location    "4000";
    object      nut;
}
// * * * * * * * * * * * * * * * * * * * * * * * * * * * * * * * * * * * * * //

dimensions      [0 2 -1 0 0 0 0];

internalField   nonuniform List<scalar> 
34124
(
1.233971e-27
2.4200938e-27
9.1389944e-28
9.9406162e-28
9.6070452e-27
3.1047086e-27
2.5317712e-27
1.6192348e-27
9.8373933e-28
1.927153e-27
3.1080376e-26
9.550147e-27
7.3456786e-27
4.3454348e-27
2.8248035e-27
5.9944993e-27
3.4444855e-27
1.8889438e-27
1.3530869e-27
2.3977017e-27
2.4810144e-26
2.8915802e-26
7.8056669e-26
1.3179486e-26
8.3854663e-27
1.3391647e-26
7.174258e-27
4.0152147e-27
5.3664822e-27
1.4163685e-26
3.6313264e-27
3.2015848e-27
1.6120349e-27
2.050794e-27
4.7600253e-27
3.9137557e-26
2.4287328e-26
6.8573117e-26
3.8914999e-26
7.2808521e-26
1.2826743e-25
1.4940972e-26
9.8306818e-27
1.597176e-26
3.1851945e-26
6.4540227e-27
6.4250367e-27
7.6464961e-27
1.3845917e-26
1.7960629e-26
1.6981661e-27
2.5536854e-27
2.0266487e-27
1.8516637e-27
2.2218315e-27
6.7853158e-27
3.9361161e-26
7.1474958e-26
8.7200349e-26
3.0278375e-26
5.7340911e-26
1.1475628e-25
4.434993e-26
8.0369891e-26
1.0255183e-25
1.9623999e-25
1.2636497e-26
1.3757223e-26
1.7186501e-26
2.5060568e-26
5.1430953e-26
1.3605878e-26
5.031954e-27
2.1646425e-27
1.1295765e-26
1.0988712e-26
2.6217623e-26
2.2214464e-27
3.7165031e-27
1.1469034e-27
2.0801387e-27
1.6287125e-27
2.7531382e-27
4.7829661e-27
6.1084975e-26
5.8541346e-26
7.4373744e-26
8.0097541e-26
1.0739681e-25
1.5214554e-25
3.3619286e-26
6.3746698e-26
9.9031972e-26
1.688043e-25
2.2101922e-26
9.5425979e-26
1.2776021e-25
1.5267669e-25
3.8123248e-25
2.4864594e-26
9.6322458e-27
4.5550051e-27
2.9261272e-26
2.2472076e-26
6.4655011e-26
2.3355797e-26
7.9810049e-27
1.9479738e-27
4.0609035e-27
1.2370941e-26
1.2522414e-26
1.922632e-26
2.7664969e-27
5.1392616e-27
1.3516742e-27
1.6286412e-27
4.0939867e-27
1.4700011e-27
4.2595339e-27
1.0833722e-26
5.9912866e-26
7.8587146e-26
9.2601334e-26
5.4323281e-26
1.0881378e-25
1.3280805e-25
1.2798267e-25
6.549498e-26
1.7518367e-25
2.6566859e-25
2.2116278e-26
7.1753055e-26
1.0838245e-25
1.3886249e-25
1.7489746e-25
2.0258548e-26
5.8572165e-26
1.4758823e-25
2.17212e-25
3.3878859e-25
3.6541606e-25
4.4914328e-26
1.4330498e-26
5.0681587e-27
1.0188251e-26
2.5331805e-26
2.8090896e-26
4.7662573e-26
3.6024646e-26
1.9447076e-26
3.2908196e-27
1.9292925e-27
4.9705966e-27
1.6253798e-26
3.3410917e-26
1.2533086e-26
6.7158815e-27
2.9566592e-27
1.8867162e-27
1.5457501e-27
2.2260351e-27
4.6956665e-27
2.7003479e-27
5.0403083e-27
1.3699893e-26
7.9009579e-26
3.7371322e-26
1.0481354e-25
6.4737915e-26
1.7413878e-25
1.2553189e-25
1.1299119e-25
4.1275128e-26
1.5888856e-25
1.776577e-25
9.4714899e-26
2.1257457e-25
5.7269697e-26
4.7331626e-25
2.7479657e-25
1.5374511e-26
5.1389004e-26
1.0136422e-25
1.0291053e-25
1.3763276e-25
1.3348221e-25
2.0533646e-26
4.1997261e-26
1.2950801e-25
1.8963521e-25
1.9549359e-25
1.8955278e-25
3.7073862e-25
6.0842278e-26
3.3629713e-26
9.4146481e-27
7.354606e-27
6.074793e-27
2.994127e-26
3.653906e-26
2.4901235e-26
3.9410676e-26
1.9912452e-26
9.6628385e-27
5.8734793e-27
3.0939176e-27
1.6332283e-26
1.6138619e-26
2.7313796e-26
3.0939834e-26
2.1554481e-27
3.5078427e-27
1.2640143e-27
4.5700964e-27
3.8345501e-27
3.4108322e-27
4.2591672e-27
3.1212614e-27
9.812184e-27
1.683619e-26
8.0639236e-26
1.2319283e-25
6.0944655e-26
2.4181649e-26
8.0794438e-26
1.54922e-25
1.0654845e-25
5.6694879e-26
1.7000367e-25
1.1770377e-25
6.3923947e-26
1.3841547e-25
3.2135297e-26
2.0301295e-25
1.6231846e-25
1.458826e-25
6.4542661e-26
2.5469906e-25
5.0950524e-26
4.3391205e-25
1.4846829e-25
2.6676628e-26
4.5290205e-26
1.0838536e-25
8.8645196e-26
9.0397157e-26
9.1247097e-26
1.4758524e-25
7.5148148e-26
9.8183839e-27
1.0379491e-25
2.0429854e-25
1.6673166e-25
1.5348543e-25
1.6126031e-25
1.7035991e-25
4.7320856e-26
4.1610294e-26
1.797353e-26
1.4625043e-26
6.1605859e-27
1.9218853e-26
3.1951709e-26
2.2689621e-26
3.7085864e-26
3.1904313e-26
1.3877056e-26
1.3549002e-26
8.7100971e-27
7.1984923e-27
7.4748374e-27
1.985419e-26
1.5517299e-26
2.6021349e-26
1.3980135e-26
1.2519333e-27
7.6505147e-28
3.2871201e-27
3.3991688e-27
9.0265294e-27
3.666071e-27
2.6789868e-27
3.6596731e-27
1.206626e-26
2.7658274e-27
2.3536983e-27
5.6622205e-26
8.8529749e-26
5.3314815e-26
1.1677497e-25
1.738482e-25
3.6665777e-26
4.5930377e-26
5.5519071e-26
1.5967329e-25
1.753332e-25
7.1787118e-26
1.2332134e-25
3.6569416e-26
1.6522165e-25
1.1617157e-25
9.4723361e-26
4.3986259e-26
1.7012202e-25
3.2547633e-26
2.1266618e-25
9.7402478e-26
1.1447639e-25
1.6358463e-25
9.3469008e-26
4.0151275e-25
7.6732595e-26
3.4445014e-25
1.0943259e-25
7.1645606e-26
1.9381373e-26
1.0155149e-25
1.5088152e-25
8.0914714e-26
7.6314395e-26
1.0139559e-25
1.260501e-25
4.8595396e-26
1.1601752e-25
3.0473285e-26
1.5969849e-25
1.7692298e-25
1.5781452e-25
1.5856949e-25
1.400937e-25
1.3019219e-25
2.4925327e-26
2.4897221e-26
4.651762e-26
2.2072235e-26
1.7967207e-26
8.8328635e-27
2.1321136e-26
2.4050911e-26
1.8852915e-26
1.7795588e-26
2.7244732e-26
2.5810552e-26
1.0857588e-26
2.0230491e-26
8.6764133e-27
3.6048705e-27
9.9806338e-27
4.7056054e-27
9.4636007e-27
1.6783498e-26
1.8668523e-26
6.2617937e-28
2.6626045e-27
2.0490499e-27
8.6094397e-27
8.6620359e-27
4.2249336e-27
2.0279336e-27
2.7691538e-27
3.334431e-27
2.7270452e-27
1.4329032e-27
2.7156398e-27
6.5420942e-26
6.3292695e-26
3.5268897e-26
5.2953068e-26
7.295153e-26
3.3792676e-26
8.1766408e-26
1.8724937e-25
1.9689491e-25
6.8303951e-26
8.9200066e-26
4.0486798e-26
9.2939816e-26
1.9345518e-25
1.613255e-25
7.2745253e-26
5.0873827e-26
1.1837843e-25
3.8989772e-26
1.7287559e-25
9.0744389e-26
6.6318475e-26
1.2757496e-25
5.0815452e-26
1.7047568e-25
3.3655655e-26
1.267557e-25
9.5558126e-26
1.4174474e-25
1.8670605e-25
2.1187205e-25
6.4690486e-26
2.4446552e-25
2.5496113e-26
1.3960235e-25
1.1590056e-25
5.3721882e-26
1.1654406e-25
1.0738224e-26
1.2456768e-25
9.7775823e-26
7.4029475e-26
9.6308297e-26
1.057628e-25
9.1436375e-26
1.0566292e-25
4.4095906e-26
1.4681416e-25
1.8402365e-26
1.442754e-25
1.6379266e-25
2.2945824e-25
1.4660833e-25
1.0285697e-25
1.7937668e-25
2.860552e-26
2.0471249e-26
2.6008598e-26
2.1905876e-26
1.4180727e-26
8.7433636e-27
1.4859224e-26
5.6380458e-27
1.1565164e-26
1.1925244e-26
3.5720479e-26
1.5463767e-26
1.7676411e-26
1.3635231e-26
8.2905489e-27
1.1704774e-26
1.1760692e-26
8.1768699e-27
1.3098242e-26
1.2604508e-26
3.8742226e-26
8.3077502e-27
1.8325526e-26
1.8293511e-27
9.7976337e-28
5.7131823e-27
5.91879e-27
7.7804862e-27
3.6802879e-27
1.8086824e-27
1.6560627e-27
6.1261889e-27
6.8293605e-27
1.0441515e-27
1.9496409e-27
3.2005385e-27
5.823766e-26
7.0790354e-26
3.7103146e-26
4.046341e-26
3.4805413e-26
2.6321564e-26
5.6671575e-26
1.547336e-25
1.1970456e-25
6.5152355e-26
1.0273151e-25
1.4345419e-25
2.6039848e-25
1.1550707e-25
3.8695399e-26
8.3042444e-26
2.1194543e-25
1.7835018e-26
1.2915505e-25
2.2742206e-25
1.1016423e-25
5.9561152e-26
8.7411108e-26
6.2312761e-26
1.1947665e-25
3.2712109e-26
1.0146505e-25
8.8072764e-26
8.9768451e-26
7.9372089e-26
2.5205698e-25
4.5503063e-26
1.1196487e-25
1.9149839e-26
1.9584653e-25
9.870794e-26
2.125708e-25
1.7863901e-25
1.7345675e-25
2.7759368e-25
4.5625267e-26
1.5962331e-25
3.9348e-26
1.2350119e-25
1.2284294e-25
1.4405699e-25
2.69084e-26
9.2065971e-26
1.7701997e-26
1.0215269e-25
1.0421531e-25
9.6130096e-26
1.0339049e-25
7.6124448e-26
1.7268714e-25
1.23096e-25
1.6152666e-25
4.0429433e-26
1.6536131e-25
2.1203255e-26
1.6915749e-25
1.0074472e-25
1.311314e-25
1.5430226e-25
1.7911424e-25
4.6996023e-25
1.3056823e-26
2.5225625e-26
1.8723181e-26
1.8181908e-26
2.9212888e-26
1.2638703e-26
9.7680456e-27
2.4873236e-26
2.1036267e-26
1.8735102e-26
1.3431737e-26
4.8166272e-26
1.7609621e-26
1.5490291e-26
2.7691968e-26
2.0480532e-26
3.1128216e-26
3.5657883e-26
1.2517858e-26
7.7884212e-27
1.0270706e-26
1.579404e-26
1.2436841e-26
1.0765835e-26
3.1342056e-26
9.3133706e-28
2.5812671e-27
4.8469606e-27
8.0934081e-27
6.6970095e-27
3.5884096e-27
1.184137e-27
1.158745e-27
3.0410195e-27
4.0284095e-27
4.5649216e-27
2.0528434e-27
1.8656974e-27
7.9456093e-27
7.1327074e-26
7.6151589e-26
5.8401705e-26
3.5426009e-26
5.2037316e-26
3.1652375e-26
5.4837035e-26
2.603272e-26
1.728437e-26
4.6377103e-26
9.2544917e-26
4.7011413e-25
2.8442513e-25
1.9804901e-25
2.7865773e-26
5.9886372e-26
1.3841959e-25
2.4920795e-25
2.7093393e-25
5.5151439e-26
1.7015256e-26
2.5639197e-25
2.9794449e-26
2.6580225e-25
1.0278669e-26
2.2792432e-25
1.0292595e-25
8.104802e-26
7.9367072e-26
6.9626474e-26
1.0613377e-25
7.8464256e-26
8.9859992e-26
1.931325e-26
2.9234142e-26
1.1462773e-25
1.1991613e-25
1.1770471e-25
1.2960831e-25
1.9710569e-25
4.6199136e-26
9.1358692e-26
2.9832708e-26
9.6219137e-26
1.0865223e-25
1.6498659e-25
2.9843501e-25
1.1186322e-25
4.4652107e-26
2.470236e-25
4.9885042e-26
1.2631402e-25
2.6637926e-25
5.5501647e-26
1.1129386e-25
3.2551686e-26
9.1788108e-26
2.1924907e-26
1.3359959e-25
5.2668047e-26
8.7320536e-26
1.0137196e-25
1.839185e-25
3.57719e-25
1.4515614e-25
1.0929961e-25
1.6093569e-25
2.5112258e-26
2.245112e-25
9.845275e-26
2.758746e-25
8.0638277e-26
1.3008926e-25
5.4898915e-25
7.1076252e-25
2.2196513e-26
1.92408e-26
2.7786938e-26
4.1327057e-26
3.204883e-26
3.6120575e-26
1.7495436e-26
2.128323e-26
3.6755811e-26
4.1076781e-26
1.0548254e-26
2.6150903e-26
4.4142804e-26
7.1426004e-27
1.2432947e-26
1.8327953e-26
2.3709128e-26
1.1271341e-26
1.1982539e-26
9.4287421e-27
2.8209021e-27
6.2446053e-27
1.1396361e-26
7.9017533e-27
1.5360789e-26
1.5339769e-26
6.1086768e-26
2.2476404e-27
3.7991775e-27
8.6691814e-27
6.9859243e-27
3.5795077e-27
3.7332047e-27
1.8741297e-27
1.8552066e-27
4.5386848e-28
1.7683333e-27
3.4131167e-27
5.4221952e-27
2.6751861e-27
6.4125686e-27
8.222072e-27
8.0274582e-26
5.0273392e-26
5.1919234e-26
9.1121643e-26
1.2193337e-25
1.826728e-25
4.0785542e-26
2.5169894e-26
1.0018781e-25
9.0888873e-26
5.651659e-26
2.300342e-26
2.8452206e-26
2.9168458e-26
4.1094605e-26
1.5469118e-25
5.6076292e-26
2.5763424e-25
2.1599051e-25
1.3145888e-25
4.3913638e-26
1.1719978e-25
5.2431831e-26
1.2807026e-25
1.3314656e-25
1.3244082e-25
1.4994721e-26
1.5551345e-26
1.0988894e-25
1.6144868e-25
2.4387674e-26
2.0568755e-25
2.1924535e-26
9.2339008e-27
1.4312501e-25
1.3311599e-25
1.066897e-25
3.7250853e-26
9.703441e-26
1.0156797e-25
9.6936169e-26
1.2066052e-25
3.7507829e-26
1.1295659e-25
2.5913139e-26
1.5492961e-26
1.2712354e-25
4.3669329e-26
1.355872e-25
1.2883509e-25
1.4536898e-25
1.2570492e-25
2.4445367e-26
9.2989481e-26
3.392091e-26
1.1214169e-25
2.6923439e-25
2.603602e-25
1.6333344e-25
1.4601781e-25
1.1373877e-25
6.2482379e-26
1.644559e-25
6.2222654e-26
2.5642665e-25
6.1366267e-25
7.3121071e-26
5.0148017e-26
1.2571919e-25
2.9966169e-26
1.2983816e-25
6.6527596e-26
2.9401048e-25
9.3141503e-26
1.1241646e-25
3.8557113e-25
5.2033628e-25
1.6975113e-25
1.2758478e-25
5.9992199e-26
3.4979463e-25
5.0577345e-26
2.9971912e-25
3.7125844e-26
1.1228002e-25
2.5671995e-25
5.683903e-25
5.6707244e-25
1.4695786e-26
3.8826273e-26
3.17591e-26
6.9459767e-26
1.7645953e-26
2.1415034e-26
1.0016317e-26
3.1345411e-26
5.5239023e-27
2.7855152e-26
1.6022629e-26
3.7767194e-26
4.3342446e-26
1.8640598e-26
2.1271789e-26
6.1007129e-26
1.1403877e-26
1.1987547e-26
2.290761e-26
1.2212918e-26
1.7863219e-26
6.1706908e-27
4.4217007e-27
5.6818152e-27
1.3346585e-27
1.8726261e-26
9.0595244e-27
1.4367497e-26
1.0525335e-26
1.9305787e-26
8.5229876e-26
2.748711e-27
1.8884791e-27
6.9180079e-27
5.2288565e-27
3.5194958e-27
4.8983081e-27
4.7457232e-27
7.4736704e-27
2.0469589e-27
6.4125357e-27
5.6845353e-27
4.8350912e-27
6.0818603e-27
6.4293609e-27
1.3439698e-25
5.6972855e-26
1.1906437e-25
7.6904059e-26
1.1118876e-25
1.067961e-25
1.2105484e-25
2.2354859e-25
1.9259122e-25
1.8883028e-25
1.166006e-25
5.0540965e-26
3.6812532e-26
7.661722e-26
6.8338803e-26
4.2127196e-26
2.4761243e-26
1.8077541e-26
4.4668679e-26
4.5809675e-26
9.2740486e-26
4.9559172e-26
1.3491368e-25
8.9669206e-26
8.5504662e-26
2.3445709e-25
5.0400848e-25
1.5892805e-25
3.1604485e-26
1.6992082e-25
7.4055653e-26
3.9567272e-26
1.9172109e-25
1.1125588e-25
8.6715885e-26
2.6538681e-26
3.1455264e-26
1.2932522e-26
1.6344588e-26
1.7958903e-25
7.4213059e-26
2.436474e-25
2.275911e-26
2.0843197e-25
2.1741528e-26
1.9065286e-25
8.8797375e-26
1.1690357e-25
7.1895227e-26
1.2451914e-25
7.9899634e-26
1.7237157e-25
8.161305e-26
1.2984696e-25
5.2790761e-26
1.0258962e-25
1.1862706e-26
2.0644694e-26
3.9877044e-25
8.8246899e-26
2.2313215e-25
1.0308817e-25
7.6135473e-26
6.9458729e-26
1.6989782e-25
3.9415021e-26
5.1127934e-25
5.0118536e-25
1.8750296e-25
2.6081604e-25
2.3719424e-25
4.2362196e-25
2.0085982e-25
3.1940687e-26
6.1481054e-26
4.5539379e-25
2.5416246e-25
8.2587033e-25
7.2127338e-26
5.7353936e-26
8.1127757e-26
2.3393385e-25
7.3539276e-26
9.6780018e-26
3.8010753e-26
1.191674e-25
2.6966143e-25
4.0808391e-25
4.2425566e-25
1.6434495e-25
9.1313208e-26
1.9487115e-25
1.9286879e-25
2.5519444e-26
1.6182734e-25
6.5219372e-26
2.561998e-25
6.0061369e-25
4.6192878e-25
3.7475805e-25
4.5624086e-25
3.2855467e-26
1.4874871e-26
3.0039793e-26
1.4533257e-26
2.5293625e-26
1.6029786e-26
1.3704108e-26
1.4318652e-26
1.3234058e-26
5.7916636e-27
1.0908795e-26
2.2858288e-26
1.903639e-26
3.3596435e-26
3.9501495e-26
5.6478918e-26
6.259722e-26
7.7660418e-27
9.2020796e-27
6.3456828e-27
8.9238122e-27
4.6079731e-27
1.137365e-26
8.5526357e-27
2.2489569e-26
6.9984103e-27
2.2712781e-26
8.879106e-27
2.2421779e-26
2.6530648e-26
1.9547405e-26
2.0794821e-27
3.4327345e-27
6.4522653e-27
9.6947218e-27
1.6079519e-26
4.6881504e-27
1.0572923e-26
8.1618253e-27
3.6937449e-27
4.1031058e-27
5.9365871e-27
2.1719045e-27
1.0823732e-26
4.731183e-27
3.6174721e-27
6.3471012e-26
1.0817028e-25
7.8318402e-26
5.5299246e-26
8.0490389e-26
3.1004933e-25
6.0538136e-25
2.2678795e-25
8.1891535e-26
1.0399791e-25
8.949663e-26
1.6754701e-25
1.7341245e-25
1.7304533e-25
2.9478372e-25
1.2937147e-25
4.0351785e-26
8.5940156e-26
7.4413911e-26
4.9211947e-26
2.4249765e-26
4.9586329e-26
6.527005e-26
4.5114306e-26
7.6924462e-26
1.1975502e-25
9.0512055e-26
1.2717724e-25
7.8499311e-26
7.9000172e-26
8.7347743e-25
3.5148813e-25
9.5402245e-25
1.6280788e-25
1.1016175e-25
1.8243413e-25
1.2732738e-25
4.9055912e-26
6.7768822e-27
9.6382366e-26
1.8056454e-25
5.5463448e-26
3.2495232e-25
4.6634894e-26
1.1245268e-25
1.8205962e-25
1.0059207e-24
7.3987945e-26
9.0755031e-26
8.2304184e-26
1.3216031e-25
1.4226329e-25
1.6420282e-25
5.8130919e-26
2.9037208e-25
6.8879187e-25
8.3152643e-26
8.5015536e-26
9.8683734e-26
7.3652506e-26
1.5716948e-25
5.0755576e-26
5.8149484e-26
4.3773044e-25
3.9942259e-25
6.6632632e-25
2.1157191e-25
3.9786102e-25
1.7851987e-25
2.3636312e-25
1.1941021e-25
2.8066122e-25
1.2446651e-25
7.7509545e-25
5.7908989e-25
8.3399258e-25
5.7511539e-25
6.6730879e-26
9.0919108e-26
8.7355471e-26
1.119298e-25
1.6222017e-26
1.7471237e-25
6.4445416e-26
4.5182783e-25
9.8223419e-25
3.884197e-25
2.8525803e-25
3.3017943e-25
1.1607147e-25
2.2299526e-25
1.3760603e-25
7.6491007e-26
2.8663557e-26
5.7544171e-26
5.7971857e-26
2.7397394e-25
4.4157075e-25
6.2109131e-25
3.6643996e-25
2.8328471e-25
3.6916871e-25
1.1020485e-26
1.894252e-26
1.4060205e-26
2.985594e-26
2.7840129e-26
3.1604021e-26
2.3141867e-26
5.5877846e-26
2.515795e-26
6.0761306e-26
1.1105536e-26
4.9333206e-26
3.5225669e-26
3.6247897e-26
1.5517387e-26
1.4770146e-26
1.2600872e-26
9.2768808e-27
2.7428141e-26
2.3204002e-26
1.3159975e-26
1.2636715e-26
1.4534181e-26
1.2025403e-26
1.0211347e-26
2.9943917e-27
1.8876188e-26
1.4878994e-26
8.1095313e-27
3.2323975e-27
2.8559111e-27
6.6827066e-27
1.1871708e-26
8.4561528e-27
1.3343567e-26
1.2056749e-26
7.4267606e-27
1.0796008e-26
1.063361e-27
5.0609058e-27
1.4975227e-27
1.2733792e-26
8.196874e-27
5.4308128e-27
3.2159852e-27
7.3641875e-26
1.9165053e-25
1.124666e-25
7.2527525e-26
2.6908048e-25
9.5544606e-26
3.5772048e-25
1.6340988e-25
1.43472e-25
6.683817e-26
6.1677354e-26
2.7944074e-25
1.2666803e-25
2.4209301e-25
1.1480202e-25
2.5354329e-25
7.2845161e-26
1.5370339e-25
1.5203876e-25
8.7252005e-26
3.7837268e-26
2.4070919e-26
3.0308517e-26
1.1194759e-25
8.2418479e-26
7.0593517e-26
4.9799221e-26
1.1139121e-25
9.7289805e-26
1.0419876e-25
8.8520088e-26
1.2937979e-25
1.2408547e-25
2.6288943e-25
1.4692507e-25
8.6147021e-26
3.4225468e-26
1.0799409e-25
1.2716059e-25
8.9587656e-25
5.8101005e-25
3.3216931e-25
1.0529067e-24
2.7587905e-25
1.0939738e-25
1.3931166e-25
9.5092595e-26
1.2751338e-25
2.659786e-25
1.6092093e-25
6.7731176e-26
4.9740823e-26
2.1406879e-25
3.0492185e-25
7.2596017e-25
7.1547985e-26
1.1328191e-25
9.6036329e-26
1.2024302e-25
1.6250338e-25
6.2025605e-26
9.7831857e-26
7.0323114e-25
4.1644383e-25
8.7388592e-25
8.4651344e-26
1.2307987e-25
9.6499584e-26
1.4299434e-25
2.2976394e-25
1.5620857e-25
1.1317377e-25
6.1761312e-25
6.1368064e-25
3.513211e-25
6.0962322e-25
3.4457847e-25
3.0561353e-25
3.8430313e-25
2.5394529e-25
1.0281341e-25
1.3067091e-25
6.4483528e-26
8.2594971e-26
1.5440677e-24
1.3890642e-24
1.3069523e-24
2.2913381e-25
4.9911692e-25
1.1573454e-25
8.2047725e-26
6.0945705e-26
1.41477e-25
6.4124364e-26
3.5479101e-26
7.8724815e-26
2.0621335e-25
4.7771546e-25
5.6856498e-25
3.4194731e-25
2.0732162e-25
2.5983722e-25
9.4977139e-26
1.6103208e-25
1.0853397e-25
1.2765989e-26
1.0569958e-25
3.3205349e-25
1.0929911e-25
1.1959481e-25
8.6139378e-26
3.9357433e-25
1.8083519e-24
5.8992867e-25
2.4532815e-25
2.2599387e-25
4.9646644e-26
2.646823e-26
9.5896144e-27
3.206215e-26
2.2994521e-26
3.7419832e-26
6.9420933e-26
2.7975712e-26
4.49724e-26
4.1487099e-26
2.2597785e-26
3.8166633e-26
9.3218113e-27
4.5863648e-26
2.3671891e-26
8.1514934e-26
1.518825e-26
6.8765212e-27
4.4261909e-27
1.066749e-26
1.4406786e-26
1.8641271e-26
1.6332863e-26
1.2125173e-26
3.6021539e-26
1.0207425e-26
2.5200045e-26
3.6472572e-27
9.2950876e-27
1.4554884e-26
7.2608087e-27
5.8466559e-27
1.9151432e-27
3.8395685e-27
3.516128e-27
1.2896447e-26
2.9451048e-27
1.2559308e-26
1.707242e-27
1.1477712e-26
5.0195851e-27
7.5177906e-27
4.3008626e-27
7.1411335e-27
6.7933596e-27
5.8544558e-27
6.4361093e-27
3.4957651e-27
5.5672641e-27
3.8525194e-27
2.2724712e-25
1.9899127e-25
7.2362537e-26
1.2721826e-25
2.6142305e-25
1.348947e-25
4.9963939e-26
5.5427084e-26
1.0763032e-25
8.9268467e-26
4.259999e-25
1.4926244e-25
7.0773234e-26
7.650763e-26
1.5537248e-25
5.6223985e-26
2.4333102e-26
2.1810467e-26
3.070141e-26
9.8741642e-27
7.0643056e-26
1.2089937e-25
6.8459755e-26
2.5890814e-25
2.5781769e-25
1.0434983e-25
1.2053504e-25
2.616655e-25
1.338015e-25
2.0778003e-25
1.3426193e-25
1.8468342e-26
3.4146893e-26
1.3777203e-25
3.5664431e-25
6.7629162e-25
3.7532656e-25
7.6070337e-25
9.9966867e-26
2.5543908e-25
1.0156562e-25
7.7604777e-26
9.3458649e-26
5.3063599e-26
2.0782454e-25
4.2351415e-25
7.6058549e-25
9.6229012e-26
1.0962266e-25
1.1102582e-25
1.4531597e-25
1.8433826e-25
8.5844045e-25
8.9944109e-25
3.1158554e-25
8.4080489e-25
1.0720218e-25
9.1755412e-26
3.0005279e-25
9.4871222e-26
1.8447115e-25
1.6829756e-25
9.9801275e-26
5.738426e-26
1.5671067e-24
8.285832e-25
7.7163689e-25
9.1077832e-26
5.8703306e-25
2.6827064e-25
3.5990883e-26
4.21459e-26
2.6641461e-26
1.1035178e-25
1.1057805e-24
1.0426624e-24
1.2999082e-24
4.1239987e-25
8.0528066e-26
6.620325e-26
1.8187293e-25
3.3577164e-26
6.0030933e-26
6.2733143e-26
6.1684269e-26
1.4693054e-25
8.5355559e-26
3.8930621e-25
1.1961956e-24
6.3410281e-25
2.0744235e-25
1.6195374e-25
2.1166279e-25
1.9117426e-26
6.5206943e-26
1.9480727e-25
2.2858695e-25
3.4940137e-25
8.4389501e-25
1.5614888e-24
3.9629659e-25
2.4036781e-25
3.4960457e-26
3.4756282e-26
1.8523688e-26
1.8860129e-26
6.7716384e-26
1.9374529e-25
2.1454314e-26
2.834364e-26
6.2292289e-26
3.444426e-26
4.2793949e-26
9.6261514e-27
2.513123e-26
3.5781702e-26
4.5516105e-26
3.5198186e-26
6.4952241e-27
1.2625708e-26
1.9659977e-26
5.1240653e-26
3.554314e-26
2.3329761e-26
5.3300782e-27
1.2443814e-26
9.0499849e-27
9.5835347e-27
1.0975479e-26
6.8886966e-27
1.0457935e-26
7.9006117e-27
4.0812137e-26
6.7335675e-27
1.8718792e-26
6.4977983e-27
5.4942086e-27
1.1960989e-26
1.8061466e-27
2.8882476e-27
3.6882196e-27
7.1326158e-27
6.5131137e-27
3.2670533e-27
1.1213844e-27
5.1426926e-27
5.2799884e-26
6.7049946e-27
1.8655402e-27
6.2289892e-27
1.6267432e-25
1.2786578e-25
2.0206841e-25
1.347853e-25
7.809092e-26
4.583529e-26
3.607466e-25
2.0604538e-25
1.1811212e-25
5.6723044e-26
9.506463e-26
6.8661634e-26
7.1624806e-26
7.0886959e-26
1.2761558e-25
4.9650146e-25
5.9947035e-25
2.3293127e-25
1.0021026e-25
9.1380001e-26
2.4020218e-26
1.0350293e-26
2.2945899e-26
1.9722784e-26
1.0280465e-26
1.6230454e-25
1.3103443e-25
5.1216643e-26
1.1243385e-25
8.3867717e-26
3.201403e-25
2.6337486e-25
1.2168374e-25
8.2265885e-26
8.8602289e-26
5.7538176e-26
1.1740909e-25
5.3041333e-26
2.2555173e-26
4.6938029e-25
6.2021738e-25
4.3411941e-25
5.69859e-25
3.4639777e-26
7.2852129e-26
6.0589058e-26
8.1433117e-26
3.5462214e-25
4.8068715e-25
1.3075691e-24
1.7465649e-25
1.3938859e-25
1.1650652e-25
1.1992116e-25
1.2833596e-24
7.1321149e-25
1.1335623e-24
5.7272421e-25
4.0150417e-25
7.7926722e-26
7.7569554e-26
1.1469371e-25
6.9551228e-26
9.1673812e-25
6.6743091e-25
1.0730647e-24
3.4844881e-25
7.4918913e-25
9.3773201e-26
1.9011526e-26
2.1141193e-26
1.608837e-26
1.0602012e-24
1.1277563e-24
2.4293167e-25
1.5011003e-26
2.9437258e-26
2.3241115e-25
2.2623507e-25
2.9999879e-25
6.4958211e-25
8.0910955e-25
3.9981351e-25
2.0412904e-25
1.2138863e-25
3.2638334e-26
8.9740804e-26
1.1450997e-25
4.8631011e-25
3.1454212e-25
4.0344646e-25
1.0219925e-24
7.0014206e-25
4.6968561e-25
2.0613086e-25
3.0287978e-25
3.4236042e-26
1.1482752e-25
2.0990682e-26
5.4905935e-26
1.890272e-26
3.9773386e-26
2.6225653e-26
1.7647719e-26
1.6326023e-26
5.3487952e-26
6.7414935e-26
3.2407823e-26
4.0997622e-26
5.5995405e-27
1.8581551e-26
7.3267118e-26
1.5983374e-26
1.4440008e-26
1.7189742e-26
1.1200055e-26
2.146296e-26
1.2419213e-26
6.7937123e-27
3.0739218e-26
8.3982068e-26
9.2731517e-27
8.4521895e-27
3.1140229e-26
6.3969402e-27
3.1348584e-27
9.5616111e-27
6.4532002e-27
2.0759298e-27
1.7291518e-26
4.4796354e-27
1.3330355e-26
4.8928284e-27
1.6161759e-26
5.1197562e-26
2.436606e-26
1.2800858e-26
5.2912225e-27
2.9656045e-26
1.6794949e-25
7.5807322e-26
1.9717814e-25
1.0600662e-25
1.5216252e-25
7.3943047e-26
5.9094874e-26
1.5206299e-25
2.6385222e-26
4.2326056e-26
1.9922289e-26
1.5927826e-26
5.1947058e-26
1.6806148e-25
5.8787037e-25
1.1366785e-25
8.779044e-26
8.6812295e-26
2.2991699e-25
3.7719682e-25
6.3371004e-25
1.3709273e-25
2.3592643e-25
7.6421944e-26
2.2647361e-25
2.6598052e-25
1.3011887e-25
1.0276186e-25
1.1050624e-25
1.6931031e-25
1.8836848e-25
2.2842871e-25
3.2319966e-25
6.8734039e-26
1.2579214e-26
7.0703583e-27
1.7601986e-26
1.4399448e-26
2.9984574e-25
6.5470992e-25
4.9043687e-25
5.9366702e-25
5.2029898e-25
2.7791037e-25
2.6767776e-25
1.8286116e-26
5.7374279e-26
1.1762266e-25
7.5304742e-26
1.3949515e-25
3.8100426e-25
5.3797532e-25
9.1803001e-25
3.2235729e-25
7.1137107e-26
1.4053884e-25
1.004777e-25
8.5740207e-26
1.0543822e-24
6.4555008e-25
7.4102815e-25
7.1956559e-25
1.0319863e-24
1.3362274e-25
1.1967124e-25
1.4629543e-25
1.4768713e-25
5.230344e-25
7.8546374e-25
1.5373746e-25
1.0834964e-24
3.8018889e-25
1.7150282e-26
2.3936958e-26
1.5205049e-25
4.7803426e-26
7.4525332e-25
1.6030736e-24
3.2273221e-26
7.0442262e-26
5.2843443e-26
3.9829656e-25
2.7135979e-25
2.8541459e-25
4.0264199e-25
3.9070409e-25
4.6179506e-25
1.6814455e-25
1.7568451e-25
3.6014883e-26
1.2123461e-25
1.8993659e-25
2.1060912e-25
3.1058933e-25
2.749666e-25
3.6083483e-25
5.2092828e-25
1.410444e-24
8.3069655e-25
1.0022588e-24
2.9799671e-26
5.3395772e-26
7.5708764e-26
5.2120598e-26
3.2638297e-26
4.3008154e-26
6.1270135e-26
5.0896878e-26
1.7830215e-26
3.3035387e-26
6.0299945e-26
8.8289541e-26
2.7170775e-26
1.1479501e-26
6.3132998e-26
1.4031079e-26
2.4756414e-26
2.7746823e-26
2.9693334e-26
7.8218994e-27
3.4037353e-26
8.4592233e-27
2.1984445e-26
1.7513988e-26
3.5002519e-26
4.9029153e-26
3.7099108e-26
1.9150945e-26
1.6472633e-26
5.0270679e-26
5.9290783e-27
9.6576878e-27
6.0325609e-27
4.6394586e-27
3.2811152e-26
1.9061243e-27
6.5886226e-27
1.5667933e-26
1.3007782e-26
2.6046874e-26
1.1933114e-26
1.9416743e-26
1.1080572e-26
9.7868385e-27
2.1613649e-25
8.8075623e-26
2.1219316e-25
2.1512249e-25
1.7248468e-25
1.794964e-25
1.4584665e-25
1.5488947e-25
2.9838299e-25
1.624127e-25
6.6690143e-26
5.2656323e-26
8.9875395e-26
1.1826358e-25
6.4344214e-26
2.5832494e-26
3.049028e-26
4.39975e-25
2.0512409e-25
5.777933e-25
1.2007418e-25
7.6780497e-26
4.3330474e-26
1.6532951e-25
2.7267047e-25
5.7672514e-25
3.2866625e-25
1.0276068e-25
1.3009472e-25
1.3933455e-25
1.4649793e-25
1.1068363e-25
1.9877848e-25
1.7256284e-25
3.9908113e-26
1.3925223e-25
1.6469376e-25
2.6945525e-25
3.6115748e-25
9.0645921e-26
1.6245114e-26
1.9101877e-26
1.9421775e-26
7.0353784e-25
3.8491163e-25
1.7950089e-25
9.0019278e-25
5.0723411e-25
6.984096e-25
5.7297908e-25
3.3613282e-25
6.5250358e-26
1.124015e-25
1.4735771e-25
2.8350264e-25
3.9764225e-25
6.406834e-25
5.8078349e-25
1.3109066e-25
2.2219325e-25
1.0994403e-25
8.0038183e-25
6.8932018e-25
1.1837937e-24
4.5890824e-25
2.6265357e-25
2.5031188e-25
1.1031322e-25
7.4257534e-26
7.8760578e-25
6.056969e-25
1.6164359e-25
1.6655502e-24
1.1629894e-24
1.8391248e-26
1.7868286e-26
1.8354546e-25
8.7183607e-26
1.0707837e-25
3.1508958e-26
8.3247394e-25
3.2746096e-26
2.5348813e-25
2.3536007e-25
4.3469787e-25
3.8650687e-25
2.7380066e-25
2.370518e-25
3.7467096e-25
3.3515489e-25
6.0338244e-25
3.636287e-25
3.3081654e-26
1.2334063e-25
1.2048731e-25
2.2807179e-25
2.1214932e-25
6.7608393e-25
3.7008403e-25
2.8530835e-25
2.124144e-25
2.0521606e-25
7.9362562e-25
4.1771659e-25
2.6464559e-25
8.476055e-26
1.8333058e-26
4.6022016e-26
2.7750071e-26
3.4076096e-26
4.3921429e-26
2.7054873e-26
9.1599379e-26
8.5063301e-26
2.3419186e-26
2.5053351e-26
7.1393707e-26
3.3561937e-26
3.7150463e-26
4.6415496e-26
2.3976141e-26
2.4304399e-26
4.9241289e-26
7.6943058e-27
3.4155826e-26
3.0538579e-26
2.5382283e-26
1.2199392e-25
3.0632424e-26
2.120715e-26
1.853862e-26
2.3406429e-26
1.2812466e-26
4.6859144e-27
1.5151479e-26
1.0125631e-26
1.5360393e-26
1.0377708e-26
1.3203822e-26
1.4587261e-27
4.1253835e-27
6.2185681e-26
9.4070232e-27
3.804273e-26
1.2027835e-26
8.933837e-27
1.7796185e-26
5.8428868e-26
4.2635726e-26
9.8128792e-26
1.0781728e-25
8.3500876e-26
1.0464715e-25
1.2297356e-25
4.3389468e-25
1.9138896e-25
2.4351385e-25
2.2330851e-25
2.4559586e-25
1.3550022e-25
3.6841033e-25
1.0367199e-25
8.9868934e-26
4.2242273e-26
6.8559964e-26
9.4265685e-26
9.9631507e-26
1.1410105e-25
9.3308555e-26
6.2496253e-25
6.2808774e-26
1.9267734e-25
1.9194406e-25
6.4244834e-25
1.2014011e-25
5.4244874e-26
3.7653985e-25
1.3278679e-25
8.1330188e-25
5.3542092e-26
3.2417322e-26
6.8843436e-26
7.7833428e-26
8.1020498e-26
9.8566721e-26
5.8872433e-26
2.7056673e-25
2.7586711e-25
2.0265328e-25
1.7830399e-25
1.0369495e-25
1.9307685e-25
1.0691976e-25
8.4728768e-26
1.5086233e-25
2.1065599e-25
4.7877091e-25
1.3646243e-25
6.05331e-25
7.5646343e-25
6.3276389e-25
3.1657246e-25
1.9518216e-25
8.0643376e-25
1.5285962e-25
1.2665259e-25
2.2907844e-25
2.4819672e-25
2.6659714e-25
8.5048586e-25
3.1110157e-25
3.6675818e-25
1.5577099e-25
1.3814795e-24
9.2520331e-25
9.6247583e-25
3.711232e-25
4.0662026e-25
2.3440241e-25
1.155593e-25
1.4088883e-25
1.8410106e-25
6.7991092e-25
3.1656974e-25
2.0870741e-24
7.0396676e-25
2.2184303e-26
2.0193808e-26
1.5200485e-26
2.2455181e-25
5.9453986e-25
3.9024183e-25
2.3286837e-26
1.3513247e-24
3.0744894e-26
1.4138847e-25
1.5095877e-25
2.1356504e-25
2.2372856e-25
4.7084911e-25
2.2809255e-25
2.0647104e-25
1.5165139e-25
1.9497327e-25
6.7219121e-25
3.2172195e-25
2.6185963e-25
1.1662895e-25
2.3132051e-25
4.6439887e-25
3.0101722e-25
4.6631771e-25
9.5000176e-25
3.6202837e-25
2.4419473e-25
2.3821948e-24
7.6579801e-25
4.6126734e-25
2.4707347e-25
5.3271931e-25
3.5311046e-26
5.1555843e-26
2.2402794e-26
5.2787946e-26
6.8337096e-26
4.4667969e-26
5.810181e-26
3.1392125e-26
5.1966254e-26
3.3604559e-26
7.8606007e-26
1.6853844e-26
4.9779513e-26
2.9303657e-26
4.6057786e-26
1.5617612e-26
2.3974252e-26
9.7762633e-27
3.7145281e-26
7.1673833e-26
1.8877718e-26
3.0966705e-26
1.6287865e-26
2.3440523e-26
6.1248406e-26
1.6974886e-26
4.5814038e-27
9.6950471e-27
2.4545059e-26
6.8664819e-26
4.3294488e-27
2.3244938e-27
5.6948863e-25
3.1304466e-26
5.4873648e-27
1.0700683e-25
2.6366435e-26
1.9625238e-26
3.9692723e-27
5.1532608e-27
1.2460693e-27
2.8723531e-26
3.3543905e-26
9.0777846e-26
2.32638e-25
1.7835814e-25
1.0544765e-25
1.8763312e-25
7.4423058e-26
2.7616706e-26
1.8037197e-26
1.0624604e-25
6.1623972e-25
1.8137039e-25
5.8747554e-25
8.5209028e-25
1.4230717e-24
9.0531196e-25
1.5288439e-25
2.1401929e-25
1.3881672e-25
2.4639287e-26
2.0553974e-26
1.7788486e-25
2.5079561e-26
5.3644342e-26
2.7642485e-26
2.5858507e-26
4.4843023e-26
6.9010557e-25
5.6639428e-26
1.5705878e-26
3.5669094e-26
8.1128989e-26
1.7342755e-25
3.5033406e-26
1.8373152e-25
9.0138165e-26
2.1730068e-25
5.49383e-26
7.3271107e-26
1.2859753e-25
3.400928e-25
5.1768482e-25
8.2576557e-25
3.2578462e-25
2.2996062e-25
2.3226424e-25
1.4913706e-25
2.8499071e-25
2.6927962e-25
2.579737e-25
2.9887418e-25
9.000216e-25
4.4759021e-25
5.6822956e-25
7.5490867e-25
4.199199e-25
9.6346213e-25
4.3605665e-25
5.2512682e-25
8.1749563e-25
2.0665299e-25
2.1537813e-25
4.7387071e-25
4.5910282e-25
7.887759e-25
8.105827e-25
5.5109678e-25
5.330359e-25
2.2317646e-25
6.355921e-26
1.790338e-25
3.5798845e-25
4.2349229e-25
1.9598099e-25
1.1944611e-24
9.7602961e-25
1.1178561e-24
1.6592112e-24
2.4263068e-26
1.4816684e-26
2.6755563e-26
3.815854e-25
1.6730131e-24
9.9802372e-25
2.2161145e-26
5.9924633e-25
2.5176241e-26
9.2734268e-25
2.2245721e-26
1.2687355e-25
2.381122e-25
4.1306093e-25
2.3289191e-25
3.2683648e-25
8.453988e-25
2.2218098e-25
3.0744434e-25
9.1547388e-25
7.4652848e-25
3.7529806e-25
1.7442638e-25
3.9207433e-25