/*--------------------------------*- C++ -*----------------------------------*\
  =========                 |
  \\      /  F ield         | OpenFOAM: The Open Source CFD Toolbox
   \\    /   O peration     | Website:  https://openfoam.org
    \\  /    A nd           | Version:  7
     \\/     M anipulation  |
\*---------------------------------------------------------------------------*/
FoamFile
{
    version     2.0;
    format      ascii;
    class       volScalarField;
    location    "6000";
    object      omega;
}
// * * * * * * * * * * * * * * * * * * * * * * * * * * * * * * * * * * * * * //

dimensions      [0 0 -1 0 0 0 0];

internalField   nonuniform List<scalar> 
34387
(
544.85956
541.48634
473.3932
475.80037
349.89419
545.6824
551.35638
477.2752
480.72021
2959.6794
2941.6906
1085.0503
1105.6221
955.93465
973.92912
1103.6987
2985.6879
2954.8747
1088.6969
974.88583
956.9656
409.36107
818.55986
690.80633
684.27469
804.01192
804.11043
684.09731
696.15144
819.85185
410.69749
348.36613
348.71652
317.43933
549.79383
555.45723
481.05961
484.53436
333.66255
333.52582
345.83316
345.7186
1113.7176
986.20864
973.25429
1104.4157
1130.8253
1101.9188
997.18271
970.63051
827.83648
704.93108
696.97535
412.29593
819.78228
413.98615
816.93224
694.27402
708.84157
838.1468
350.21012
350.33674
7000.5958
7153.2245
2517.5485
5979.1037
5871.9142
6961.7461
2503.7094
6038.7939
5834.8757
2324.8394
2349.9794
5838.9501
2500.7678
6019.927
2557.3371
2335.2466
2387.887
2013.1013
1842.6433
1994.1368
1815.1587
1887.4995
1838.9546
2003.5838
2059.3904
2538.7732
2520.1374
2350.9535
2386.1576
8427.1292
7253.4308
7324.3804
6099.4936
2520.8417
6121.7574
7013.0456
7198.9534
2512.9604
6022.2605
5874.6754
2342.3761
2337.0019
1894.3759
2053.6319
2022.0948
1843.5187
1829.7877
1820.0548
1996.9913
2005.0495
484.30955
600.96193
596.17909
480.26866
1627.9215
1443.883
1577.8352
1389.1395
1016.6101
1052.5173
1234.2264
1186.262
1004.5818
1171.0777
1173.8921
1015.7148
1374.9244
1556.5766
1565.9979
1382.9947
1374.8416
1396.38
1582.4723
1561.5671
1020.6233
1010.1633
596.99696
1171.9776
1191.0142
1027.5752
1052.8346
599.35566
1226.0472
1196.2771
1579.4635
1402.7547
1441.8924
1626.0818
481.23964
480.12599
415.55354
411.50965
480.52861
314.91328
318.03793
1117.2005
1115.334
993.29468
987.42695
1114.9343
1136.4818
984.2662
1006.6416
834.68553
711.95131
706.74449
830.30546
414.6762
828.29152
703.56163
715.75897
846.89205
416.12481
351.70795
351.5154
2553.2116
2530.7808
2388.3736
2383.0666
1876.2252
1913.8161
2061.7751
2050.814
1864.5062
1847.1598
2010.0204
2031.4104
2353.2582
2343.4423
2505.4936
2518.2856
2559.617
2644.7342
2391.7557
2477.5032
2534.0354
2542.7821
2356.7862
2375.4736
1883.829
2054.3064
2138.8645
1957.4471
1852.4779
1872.2271
2039.2586
2028.1653
1422.1265
1474.6259
1652.9178
1612.8571
611.31523
1085.6547
1264.8949
1044.5061
1217.1487
1042.6319
1030.0039
1201.3408
1213.671
605.844
490.63433
486.34745
1584.1188
1406.2904
1604.9231
1422.7919
605.31492
608.18228
486.40213
485.09293
1407.5234
1425.6425
1612.1317
1596.233
1035.93
1046.91
1220.1014
1203.5945
1048.1919
1226.942
1258.2308
1071.3569
1487.1211
1438.9088
1621.9514
1684.7653
419.49178
414.50303
19771.991
19757.687
18132.897
18094.158
18711.568
18768.268
20425.617
20439.456
5188.3359
5098.2291
5191.385
5289.4184
19560.346
18922.005
19778.473
19757.909
18151.416
18111.644
5216.6754
5055.0714
5140.6421
5322.1223
19381.621
18901.527
4588.2046
4462.4664
4549.2091
4700.4782
4591.5483
4525.8746
4607.9972
4695.5216
18880.79
5145.1868
5057.6615
5213.3955
5312.0551
19636.746
5197.7427
5118.5853
4563.6381
4476.7389
4604.8388
4706.7665
4612.3096
4519.4839
4693.0058
4078.3534
3970.613
4004.2615
4137.1917
3540.4949
3386.4452
3389.2704
3567.649
4005.9603
3900.3186
3986.9605
4123.1099
3462.4545
3300.1769
3365.001
3545.7712
3507.3651
3396.749
3538.0375
3670.2798
3429.7489
3352.9526
3495.9553
3599.2881
4030.7854
3917.2652
4031.5173
4154.2809
4102.1397
3960.0244
4068.6661
4230.4671
5078.7426
5266.1618
5014.5272
5191.7754
5270.1427
5129.2404
5074.2048
5186.5233
4601.8483
4535.9367
4690.1356
4585.4521
4639.0762
4500.6519
4559.1822
4717.6252
19056.448
19068.811
17451.582
17422.155
20338.333
20350.029
18684.85
18698.72
19077.546
19130.677
20778.394
20780.314
19473.145
5363.6556
5276.092
5267.4189
5391.688
19876.251
20139.435
20115.618
18439.13
18404.846
18682.4
18721.563
20385.369
20383.331
5169.3796
5097.0099
5210.4256
5303.6039
19499.903
19260.045
4736.0352
4630.4103
4625.4242
4750.8216
4587.2839
4505.0517
4598.8692
4698.087
3600.5874
3494.2274
3523.4545
3670.2534
4096.0006
4007.4777
4083.1326
4203.2844
4087.8015
4008.7822
4033.331
4150.6761
3566.6257
3433.2587
3439.3515
3596.3217
3405.957
3362.151
3501.8453
3572.4911
3376.2986
3383.8977
3557.9851
3565.5542
4147.1177
4000.5584
4004.5617
4156.4829
4011.4375
3940.8041
4042.9404
4136.1417
572.09988
923.21089
900.72906
695.9917
683.88368
893.1108
888.56928
671.76909
672.04574
549.15064
3122.6329
2995.6901
2964.0499
3139.0328
2640.9395
2455.943
2392.0964
2601.7686
3035.7412
2881.0179
3048.6161
2861.1598
2503.3408
2301.8652
2292.3571
2503.4523
1263.6626
1262.0694
1481.0075
1481.5667
1332.1969
1369.6088
1611.5877
1552.4868
2144.7263
1922.2648
1850.4973
2084.4801
1763.7468
1769.9759
1996.0313
1995.0611
1239.2582
1267.0266
1478.6896
1453.2237
1968.7291
1755.7215
1732.4319
1956.0601
1973.4505
1774.1121
2007.9163
1790.3702
1488.2282
1274.1328
1495.0659
1262.6874
2454.516
2263.2876
2242.7802
2448.2711
2794.4708
2810.1886
2992.7999
2990.3925
2970.9782
2814.1102
2845.2387
3021.7695
2454.6705
2275.5453
2311.3923
2497.2767
2257.8519
2226.0722
2410.8922
2457.7688
2280.9483
2309.8452
2494.1482
2479.9679
3003.5038
2832.1037
2823.6879
3009.7229
2802.067
2752.2574
2921.4643
2983.0488
901.36422
1294.2251
1516.5668
1485.895
1266.9575
893.2846
1252.0518
1460.521
1469.2667
1246.3223
678.25366
672.63472
1754.0585
1733.2953
1941.5401
1969.3297
1772.4104
1801.4829
2017.5979
1990.0637
906.47347
1296.7828
1514.188
1511.557
1280.9048
916.96813
1347.8349
1572.5269
1605.954
1352.0704
679.63803
680.51067
1920.4225
1862.4817
2062.3625
2130.2223
1805.5747
1794.5431
2005.0495
2023.1234
2977.7543
2820.5092
2868.6304
3049.9034
2481.3439
2293.3859
2319.2566
2521.4329
2429.9523
2351.6198
2526.9606
2614.0738
3022.8439
2864.813
2958.0427
3125.6491
551.98154
549.61494
407.61359
403.32916
441.32021
679.21195
659.86529
668.88793
686.85617
2027.2208
2023.6671
314.40804
390.7989
393.51781
318.57033
2519.5969
2550.1088
2396.3152
2385.5755
2559.6595
2543.5062
2384.2307
2391.5631
2075.1764
1935.1539
1891.3172
2059.3769
1878.679
2048.4563
2061.8861
1893.8364
2571.1368
2560.7531
2401.7892
2395.5588
2555.3369
2604.6101
2450.2728
2397.1556
1887.7428
1903.7635
2065.6846
2063.7426
1903.9944
2065.5065
2126.2403
1960.3881
1669.9523
1499.0289
1446.0445
1629.1888
1074.547
1105.4241
1283.0407
1241.4241
615.3276
1217.0934
1050.471
1063.2723
1237.3393
611.26904
1429.2296
1449.0233
1612.3423
1634.8922
494.81655
491.1079
1454.749
1641.0659
1437.0742
1626.8034
1058.5192
1069.0822
1245.9276
611.89976
1230.5788
1098.9215
1070.4333
614.15302
1249.5397
1287.7109
1510.7448
1461.3003
1643.5345
1699.3687
490.90588
489.20548
423.27912
416.95009
5281.8205
5234.626
5205.6497
5304.5281
5055.6643
5007.6912
5129.2371
5210.8937
4557.3754
4512.1962
4577.1451
4659.2875
4726.0723
4662.7876
4602.457
4704.9489
3429.034
3520.7417
3652.2125
3593.4494
3491.9164
3500.2187
3605.5743
3632.6351
4090.5105
4013.2036
4045.4179
4149.6242
4023.1242
4103.4828
4193.2214
4149.0378
3438.288
3385.0419
3511.4582
3599.4103
3421.7428
3409.9372
3548.8259
3592.379
4085.4346
3983.1047
4027.7725
4144.0189
4020.215
3937.4555
4027.5836
4136.9537
4577.2237
4454.527
4513.6772
4657.2821
4589.7262
4534.8104
4611.4846
4677.2327
5221.4185
5106.9422
5166.1596
5279.1881
5140.4608
4993.2958
5080.7417
5243.0912
5294.5752
5432.9333
5208.8248
5336.4032
5397.0667
5533.1843
5330.1186
5481.2197
4699.4959
4608.3138
4827.6644
4714.277
4883.3838
4938.0825
4842.1399
4769.1362
5350.4232
5178.5881
5244.4052
5102.4144
5234.6614
5168.1535
5258.4564
5331.2463
4611.3085
4521.0258
4599.5293
4730.8506
4636.1451
4579.7672
4670.7994
4739.7427
3504.9129
3446.3142
3595.3798
3676.6477
4147.1805
4023.932
4111.2235
4251.4193
4390.2761
4311.8834
4322.0224
4222.0577
3840.8115
3690.5059
3630.4591
3788.6804
3407.5348
3381.8105
3523.2847
3576.1391
3446.8
3435.1288
3585.6648
3617.4334
4050.839
4012.3053
4129.9159
4184.0134
4064.6973
3956.7328
4007.8975
4148.9359
2337.7194
2383.0884
2581.2153
2534.141
2431.6992
2492.574
2650.9063
2622.1682
3129.0834
2993.1782
2968.0757
3123.4669
3114.8347
2950.7371
2879.1432
3050.9557
949.82477
715.28855
703.05356
924.20276
1383.4746
1416.0582
1667.2811
1613.15
1979.5701
2189.105
2132.5926
1915.8963
1534.1577
1303.4472
1313.2119
1531.7606
1820.0082
1841.5362
2066.6381
2045.5282
913.58519
1309.1873
1316.9329
1535.9252
1548.6978
909.24235
1280.3293
1288.5569
1520.3006
1501.9455
2024.5724
1806.1087
1785.2465
2013.1172
1842.0069
1824.633
2033.478
2064.2823
688.62237
688.76583
585.48643
561.44688
3021.8938
2866.9173
2856.1293
3037.0296
2510.118
2323.5244
2305.2707
2507.6759
3001.5376
2856.5722
2887.3045
3059.9644
2508.4172
2327.6641
2357.386
2545.2127
922.46183
913.79267
695.42338
689.85234
921.72675
693.44657
694.36928
931.64783
564.39076
559.86187
2322.2096
2295.7058
2515.8699
2486.2094
2347.396
2364.1822
2546.8146
2539.665
2886.7978
2895.6812
3056.6588
3066.7757
2998.521
2838.4939
2857.5299
3033.7451
1292.0593
1295.538
1510.414
1521.7043
1313.1655
1340.3954
1564.3483
1535.4983
2067.7062
1855.3837
1824.9335
2052.0192
2003.7696
1794.9215
1810.535
2035.0582
1318.8645
1311.9276
1549.9084
1556.2058
1860.4472
1845.0411
2067.0239
2094.0203
2194.9117
1970.443
2002.0075
2236.6349
1637.8285
1372.1904
1398.887
1675.5267
2548.9122
2531.3435
2724.8103
2737.732
2393.7859
2362.0353
2550.9321
2595.2414
3066.6345
2894.6236
2943.9371
3127.3418
3087.4949
3108.0578
3276.8405
3249.6776
412.86124
406.64804
26408.854
26426.728
26698.646
26705.225
27688.65
27691.366
27411.859
27439.377
17448.85
16405.922
16846.892
17971.31
29505.586
29383.516
35594.92
35677.054
27785.724
27739.589
33799.951
33836.471
26602.215
26565.746
26900.989
26844.588
16637.899
16284.527
17367.097
17774.285
29328.066
29097.241
35343.99
35524.146
28033.578
28216.313
34353.816
34177.239
14446.806
14184.629
15230.165
15535.709
14666.675
14392.939
15396.482
15753.042
17380.699
27872.884
27731.459
33772.168
33944.847
16315.632
16885.415
18023.65
29662.381
29419.618
35656.366
35865.472
17524.204
16419.475
15290.158
14267.898
14704.629
15785.962
15358.583
14305.677
14695.378
13394.254
12382.586
12513.984
13589.113
11384.805
10380.945
10405.634
11453.588
13149.683
12105.694
12311.413
13374.927
11082.21
10064.523
10239.308
11268.534
10673.627
10255.665
11253.129
11659.999
10495.859
10293.054
11278.574
11536.972
13263.077
12259.054
12578.791
13639.207
12653.03
12253.943
13275.841
13668.921
16835.965
17982.178
15902.006
16930.436
17721.529
17547.216
16542.869
16658.883
14593.777
14580.019
15625.662
15562.485
14890.231
14109.295
15000.764
15909.663
28418.868
28263.751
28989.808
29159.787
27211.98
27363.306
27502.169
27642.27
28240.282
28147.417
27949.109
27882.484
17905.379
29343.09
28862.804
35046.456
35546.604
17035.968
16782.285
18216.78
30073.221
30227.992
36532.405
36310.812
27070.256
27019.452
27367.813
27289.354
27769.145
27660.766
27491.851
27406.379
17690.082
16567.755
16753.359
17891.249
29340.863
29527.833
35832.757
35567.296
28777.214
28943.831
35121.169
34935.318
15693.893
14604.592
14758.042
15889.867
15486.913
14411.424
14570.651
15654.105
11450.964
10552.905
10797.573
11827.939
12845.633
12330.377
13221.095
13870.922
13595.794
12589.954
12534.087
13566.052
11586.936
10565.397
10468.978
11505.005
10375.229
10248.465
11277.483
11405.76
10367.527
10387.345
11419.01
11446.855
13531.184
12461.408
12534.244
13641.48
12442.503
12306.406
13356.629
13503.041
548.13231
799.71792
751.44811
1192.988
956.83595
946.50176
1183.8723
1117.4246
897.68164
897.60004
1123.5012
1118.9035
886.78151
883.02079
1112.0045
1109.8116
882.90652
880.64755
1102.8358
736.1693
733.02304
528.2789
9654.9636
8725.6229
8705.0497
9759.7571
7778.8657
6769.1265
6567.3032
7644.3112
9544.2287
8493.9969
9431.2866
8377.3877
7442.8001
6374.1783
6281.8055
7332.9126
1759.779
1768.6534
3218.5722
3186.1548
1879.2766
1991.3313
3595.9905
3363.9124
5743.8418
4692.3621
4436.4599
5501.0411
4220.5922
4272.844
5322.6594
5250.8407
1711.4617
1752.575
3202.4382
3101.7913
5260.0992
4231.6381
4114.2596
5126.5103
5199.2261
4202.2116
5332.4294
4300.9231
3189.1239
1760.8995
3235.4958
1770.9443
7317.4651
6280.4994
6146.736
7193.6685
8238.9853
8337.3343
9360.9317
9298.7568
9233.5105
8208.6888
8349.6429
9361.2466
7199.4854
6184.7216
6331.6356
7346.2538
6191.2575
6079.3699
7078.6068
7209.4451
6254.2333
6387.6932
7399.462
7295.2617
9387.6303
8390.7314
8325.73
9364.8501
8211.1326
8066.201
9065.0926
9224.1036
1131.0809
902.39292
903.24831
1130.1922
1810.9039
3317.159
3164.3902
1765.0534
1105.2241
881.38826
881.77733
1104.2547
1712.3909
3126.4002
3148.2702
1732.7399
760.81288
733.16821
4183.6469
4117.9244
5099.0627
5191.9361
4203.5126
4357.718
5377.0593
5229.4097
1137.6291
904.60178
902.73259
1133.6552
1800.4907
3291.1612
3258.4355
1801.8666
1175.9145
925.52755
927.68555
1173.7085
1883.5778
3368.785
3534.7922
1935.5718
747.04733
757.03946
4652.9505
4386.9246
5372.5441
5700.2107
4316.8555
4318.9939
5322.0348
5346.6587
9314.2032
8316.032
8433.9365
9465.8507
7322.1173
6315.225
6366.8072
7405.0157
6712.4482
6342.6946
7325.156
7723.9108
9273.1379
8293.089
8710.3889
9695.0516
530.87317
529.26608
562.12623
542.67638
543.80893
544.53556
329.06769
319.03077
319.68016
329.20137
343.81846
402.12322
442.92627
443.65567
401.51363
592.76607
587.56434
627.58074
632.50904
1687.6898
1682.0086
342.74704
588.80667
4981.1684
4897.2676
4931.8131
4815.572
4821.7603
4927.7703
314.67868
395.48526
392.12221
449.65846
415.11015
417.93616
450.41317
417.75769
417.53104
450.03354
453.57598
5100.0235
4894.4082
4916.0913
5154.4051
5101.5986
5158.4856
5317.0661
5219.9393
4474.8221
4467.5811
4603.4157
4651.9958
4615.9287
4556.127
4720.1239
4611.1217
5440.1386
5351.1962
5393.0063
5295.7638
5108.9034
5094.8691
5148.6294
5187.8354
4552.8395
4542.8124
4594.7424
4632.9313
4672.4093
4713.8771
4810.2256
4783.1154
4068.8432
4033.8798
4106.5525
4186.0803
3632.7974
3549.12
3564.2252
3691.5918
3450.4192
3465.0526
3589.1581
3610.9618
4108.1598
4021.1933
4036.9091
4165.2725
3474.4012
3504.717
3658.0192
3638.9638
4072.5499
4106.422
4230.201
4207.6054
4088.1896
4012.5996
4016.5684
4119.0326
3573.1311
3436.8159
3453.154
3598.4687
5277.7087
5212.9173
5293.2223
5398.4755
5256.314
5184.0377
5236.9361
5333.459
4695.0255
4621.5764
4652.9544
4749.2734
4699.6841
4618.9175
4668.3252
4780.2231
5256.8149
5175.621
5277.5205
5370.7135
5205.9645
5238.2106
5282.9561
5274.0694
4664.5243
4690.3116
4733.112
4734.2812
4677.6438
4593.8182
4672.7193
4779.3815
3489.9049
3466.6748
3606.5294
3647.3135
3512.1374
3481.2053
3624.2017
3665.0003
4166.1674
4054.0784
4092.8302
4210.2117
4078.0097
4048.9386
4151.2792
4207.8966
3528.1113
3471.6908
3609.1817
3682.3891
4140.493
4031.4264
4104.3072
4228.0399
4230.5518
4167.2452
4138.1999
4231.7763
3721.595
3592.3042
3585.0775
3723.1983
3180.5729
3074.6944
3030.5816
3188.8234
2711.8705
2551.3591
2496.3878
2678.2298
2381.476
2393.4898
2569.7904
2565.0518
3075.5683
2927.3109
2906.5865
3075.6118
944.79792
1352.1849
1367.7292
1590.4833
1583.4029
964.49993
1424.7352
1485.9648
1721.9392
1662.234
1969.6046
2038.8876
2242.7775
2191.2771
2093.278
1891.0466
1878.142
2093.3387
729.6963
719.71354
2080.5049
1861.5998
1836.7042
2070.3409
925.61035
1557.1588
1319.1818
1316.3501
1543.5126
929.10587
1345.8101
1349.0229
1576.4082
1588.3403
2082.9159
1873.6462
1886.039
2108.4936
703.22964
703.22066
2572.9536
2394.8214
2370.9697
2567.1939
2399.9177
2383.2728
2584.5496
2556.0795
2915.4941
2939.2041
3108.7612
3094.8273
2903.0713
3055.5608
3085.3277
2920.0095
595.32282
570.41987
2407.899
2422.6161
2598.3349
2602.7112
2943.9572
3101.0571
3126.7001
2952.2915
2547.9148
2368.5766
2385.2465
2589.8028
2943.0878
2918.5694
3072.0981
3113.6192
930.99911
1331.0728
1334.5904
1567.4674
1555.5466
939.89706
1349.365
1379.2546
1608.6023
1581.5638
1879.4487
1906.6291
2123.5407
2109.4225
710.51957
704.79939
1850.3927
2067.9918
2089.2417
1862.9645
949.55589
1440.9581
1431.714
1724.0236
1685.3978
937.76831
1359.3513
1371.6003
1609.5748
1597.7571
705.30214
706.12994
1894.9997
2112.507
2144.4529
1915.1226
2006.3444
2216.3714
2267.7599
2053.0735
2569.6431
2527.9314
2701.3595
2735.7756
2448.6788
2410.8682
2594.1689
2640.6189
3096.9643
2936.1375
2986.3046
3156.9426
3073.4067
3058.9364
3204.5384
3221.1406
574.75679
567.37944
418.34255
410.44472
18102.198
17055.509
16768.949
17852.163
17001.674
16079.598
16735.854
17774.67
15183.782
14277.767
14715.976
15724.801
16036.275
15004.745
14660.121
15713.575
10512.665
10873.498
11913.453
11536.02
10715.622
10671.922
11575.386
11708.967
13377.187
12468.348
12701.197
13708.47
12562.734
12940.863
13976.352
13609.969
10578.043
10476.271
11498.657
11591.602
10584.492
10570.419
11579.402
11655.453
13599.474
12579.906
12725.12
13808.06
13540.973
12511.589
12603.854
13632.856
14653.42
14547.066
15563.681
15684.888
14878.226
14598.391
15605.768
15952.729
17665.743
16613.92
17022.236
18126.468
16718.155
16580.45
17635.541
17789.576
17703.422
18245.201
16637.929
17100.123
18019.129
18891.506
16992.383
17764.423
15608.672
14578.387
15996.229
14895.545
15573.393
16667.946
15989.664
14976.74
17760.769
17547.555
16636.224
16480.147
17053.196
16514.804
17577.085
18155.064
14483.109
14412.509
15443.21
15551.793
14904.18
14464.033
15483.999
15977.548
10651.959
10547.415
11546.355
11692.597
13561.48
12542.441
12741.389
13814.021
14484.85
13384.877
13976.247
12970.047
12306.349
11233.342
11010.115
11983.429
10358.042
10332.132
11345.156
11367.984
10652.192
10482.284
11460.424
11706.404
12761.845
12444.895
13451.452
13833.097
13388.317
12355.108
12385.59
13428.894
6429.4226
6626.5048
7711.1137
7463.5765
6667.1966
6898.5675
7896.6875
7715.6877
9768.1738
8841.8895
8721.7422
9723.2316
9829.1215
8768.0349
8476.3125
9494.7869
985.73105
995.85634
1232.7057
1225.7624
830.4695
777.80244
933.30014
1151.92
1160.5311
933.18366
1968.5387
2089.1154
3727.9717
3490.7879
4833.5737
5880.6843
5618.8938
4563.9666
3351.6587
1859.6963
1849.3489
3323.3747
4372.5497
4457.2169
5543.1702
5406.1485
1150.4465
914.18074
911.16627
1145.8566
1856.791
1858.3814
3306.336
3397.2289
908.62263
910.68516
1134.1552
1135.9138
1787.537
1834.1892
3310.5923
3228.6327
5411.4999
4367.5271
4273.4938
5313.7554
4469.7448
4334.6366
5351.527
5505.3672
758.24862
753.87562
563.4536
541.59489
9562.0487
8531.7318
8463.1079
9522.128
7500.5821
6450.1307
6351.5794
7409.717
9459.6576
8422.9031
8562.4777
9574.0318
7394.2562
6362.1088
6522.1139
7549.6509
1166.3956
933.33891
934.6718
1166.7787
1139.2265
910.88499
911.41128
1137.7944
784.44422
754.86254
927.13514
927.63834
1156.428
1161.6327
764.3916
774.55487
952.05924
947.93019
1196.2879
1205.8221
543.64071
540.41691
6352.4996
6284.2503
7366.9316
7312.4474
6449.9788
6538.5728
7557.8799
7507.8272
8551.9411
8534.8715
9511.2677
9603.0185
9326.8556
8311.9189
8360.2387
9360.3674
1817.4034
1791.1519
3249.7595
3295.914
1847.6588
1910.7465
3435.5383
3306.9753
5523.965
4493.4029
4363.888
5409.0115
5282.2607
4275.3908
4343.0949
5355.6998
1884.0272
1869.3379
3401.4968
3397.1779
4462.3341
4476.8104
5508.3946
5493.7495
5906.3392
4826.7061
4984.0767
6044.2168
3666.8741
2009.4858
2077.1352
3833.4187
7062.1131
6968.5737
8051.5087
8079.7223
6519.9741
6525.9832
7549.0562
7563.6255
9552.4542
8551.3199
8592.8181
9624.1607
9068.1827
9113.6878
10176.366
10045.467
574.89094
553.77735
554.27734
552.93394
41150.369
41206.44
57472.96
57688.503
59205.05
59132.648
42899.026
42926.393
24638.122
24260.567
24303.112
24682.625
22922.036
23031.471
23072.908
22959.547
24530.618
24422.365
24302.874
24400.465
26152.726
25779.45
25895.844
26265.193
104824.1
104519.81
109106.39
109144.99
102611.75
102125.26
107429.51
107971.29
41714.783
41600.706
58022.473
58101.042
24292.71
24010.442
23938.419
24178.172
23214.454
23335.7
23127.709
23035.539
25012.514
24621.834
24436.629
24843.865
25842.299
25423.137
25682.372
26066.317
104546.6
103738.57
108622.3
108996.7
102479.01
102621.04
107695.8
107844.65
21797.767
21476.828
21378.48
21667.856
20839.891
20985.713
20833.344
20696.207
21976.761
22120.658
21948.133
21802.241
22597.497
22719.52
23037.007
22869.723
22072.61
21970.467
21837.727
21935.871
20718.615
20877.033
20978.644
20806.149
21760.8
21919.905
22000.142
21819.485
23017.158
23187.601
23296.043
23116.899
24613.414
24212.81
24326.557
24724.374
102570.29
101659.18
106893.2
107826.94
22837.899
22934.229
23051.217
22940.08
24608.798
24310.191
24233.908
24488.098
26159.436
25733.691
26007.297
26397.193
105103.12
104406.9
108983.33
109350.87
25069.27
24666.124
24756.684
25147.441
23245.469
23355.496
23439.1
23321.32
21654.538
21813.398
21938.166
21761.336
20579.097
20717.979
20843.266
20702.488
22143.832
21821.983
21700.105
21988.386
22893.587
23034.093
23355.704
23177.568
22018.536
22173.213
22236.735
22083.722
21022.948
20999.367
20875.371
20920.021
21797.746
21967.957
21856.937
21653.704
19697.902
19894.63
20012.376
19806.071
18723.67
18865.527
18998.121
18852.189
19655.81
19582.546
19487.144
19580.953
20635.943
20788.536
20890.517
20739.649
17691.532
17863.755
17996.232
17835.342
16695.838
16874.353
16961.325
16835.445
17260.231
17244.512
17123.99
17166.433
18276.618
18380.452
18422.513
18346.047
19733.761
19923.643
19787.855
19612.683
18694.012
18817.24
18679.355
18584.329
19423.54
19070.014
19006.262
19331.063
20158.861
20279.594
20626.272
20464.084
17568.917
17697.68
17537.315
17459.38
16395.075
16605.739
16474.062
16337.396
17081.298
16707.484
16622.791
16983.345
17791.556
17852.32
18229.09
18136.634
17504.472
17270.022
17149.832
17344.346
16577.256
16621.698
16466.771
16490.845
17537.373
17650.723
17662.464
17568.407
18264.726
18368.592
18534.756
18390.139
17521.277
17174.625
17051.879
17406.111
16817.262
16610.362
16435.376
16640.885
17433.955
17566.558
17752.586
17595.512
18178.454
18282.179
18666.748
18543.372
19528.5
19695.287
19787.911
19632.559
18509.733
18593.908
18736.557
18625.055
19824.273
19431.405
19357.816
19713.398
20502.283
20632.516
21005.889
20822.314
19613.737
19522.34
19455.797
19494.094
18656.884
18737.396
18761.605
18687.627
19740.707
19876.282
19901.591
19770.413
20627.106
20748.994
20727.639
20547.56
22727.08
22321.349
22666.002
23074.306
25626.998
25291.101
25234.295
25611.153
21164.015
21222.112
21542.031
21470.222
23980.236
24076.114
23922.682
23853.906
25330.412
24979.778
24877.555
25251.34
24596.821
24259.225
24130.08
24492.95
22951.496
23109.762
22936.575
22817.079
23596.583
23711.268
23586.395
23486.298
21326.456
21477.746
21308.773
21195.386
20904.156
21038.059
20840.924
20718.664
22385.139
22571.242
22456.223
22288.981
21851.136
22037.626
21883.909
21701.781
21780.683
21946.349
21758.672
21637.183
19232.963
19370.187
19652.195
19525.268
20131.736
20236.182
20568.583
20438.311
22776.893
23004.076
22882.394
22690.285
60739.627
60379.705
61525.476
61882.546
42462.209
42907.904
58973.164
59319.813
60145.33
59806.176
43838.343
43568.333
25656.43
25277.293
25705.877
26073.014
105461.33
104609.51
109536.72
110056.18
24954.456
25090.658
24963.255
24843.713
23826.998
23959.135
24350.942
24198.888
26904.121
26521.989
26387.33
26782.031
105955.02
106100.17
110301.74
109985.47
42467.356
42326.135
58591.902
58653.035
59626.215
59279.627
43233.99
42931.875
25692.571
25324.464
25133.763
25528
23833.061
23982.214
23758.934
23645.834
24253.671
24343.975
24254.559
24135.481
26211.799
25798.333
25649.537
26044.376
105003.21
104842.48
109500.38
109589.08
103657.05
103759.25
108304.92
108537.49
22599.033
22783.586
23124.866
22927.989
21456.768
21603.328
21892.017
21749.863
22366.26
22493.151
22358.614
22247.499
23601.545
23777.322
23653.118
23494.77
22568.456
22737.079
22497.766
22351.787
21237.02
21478.72
21356.401
21140.026
21783.168
21723.994
21626.782
21650.169
22882.56
23009.609
23001.253
22828.492
16711.342
16917.827
17209.563
17002.91
15961.295
16201.23
16471.749
16256.811
17412.179
17853.506
17635.901
17310.284
18625.428
18839.859
18497.689
18377.758
19585.32
19836.073
19672.674
19487.524
17548.023
17685.302
17977.294
17826.758
18376.681
18521.081
18812.453
18647.239
20692.5
20899.851
20707.322
20548.25
19866.34
20114.678
19975.383
19752.111
18958.994
19160.871
19005.055
18839.968
19185.954
19389.823
19221.352
19059.9
20225.08
20430.614
20257.107
20088.829
17983.21
18191.23
18035.401
17858.576
17068.692
17240.867
17014.902
16903.174
17130.417
17311.933
17124.903
16982.218
18156.945
18330.91
18145.278
17995.05
17104.51
16831.68
16734.573
17003.551
16630.463
16803.702
16665.856
16542.885
17794.239
17892.774
17723.153
17641.125
17905.232
17976.47
18237.24
18134.255
17472.941
17351.832
17288.389
17399.143
17124.112
17021.728
16888.672
17029.89
17999.646
18101.877
18252.815
18168.491
18538.059
18606.495
18681.405
18594.458
20311.807
20474.819
20680.375
20542.008
19183.883
19255.515
19443.305
19371.467
19907.714
19888.181
19829.78
19826.792
21078.586
21203.263
21155.138
21009.087
19403.952
19182.192
19136.653
19322.379
18989.813
19057.43
18865.809
18810.733
20143.081
20274.203
20059.925
19940.725
20355.22
20450.953
20612.028
20458.503
849.80043
787.71501
792.5291
746.31828
1017.868
995.74908
953.96779
953.20282
1463.3484
1434.7032
1345.7306
1350.4947
1336.9568
934.95777
934.87571
1333.8633
1326.3133
932.28565
921.49593
1315.9008
727.35751
727.86749
770.56827
767.23734
15248.212
15552.823
15768.074
15525.865
14611.599
14915.887
15013.825
14823.971
15219.715
15775.242
15628.83
15182.404
16640.164
16845.126
16335.593
16240.319
13933.639
14255.198
14149.852
14013.829
13194.943
13434.97
13088.006
13072.63
12863.439
13272.678
13289.264
12917.54
14505.837
14560.328
14070.054
14057.546
16072.051
16311.265
16112.944
15946.025
15131.302
15292.473
15062.531
14988.319
16075.749
16242.515
16075.984
15953.617
14938.463
15075.603
14999.069
14898.755
14045.214
14158.862
13887.021
13880.501
12617.953
12918.746
12912.128
12705.405
12544.501
12525.942
12568.387
12606.774
13810.28
13809.034
13773.732
13760.156
3193.1977
3239.7602
4941.5139
4862.8293
3203.2441
4885.1335
3278.0156
5012.9486
9165.7105
8966.6154
8679.6064
8952.8525
8696.7058
8869.657
8835.1353
9041.0308
3480.4833
5249.0583
3436.4832
5156.2138
3972.0236
5952.2561
5531.9974
3731.8053
9558.3875
10327.732
10336.995
9755.1644
9084.5992
9433.3774
9232.3624
9293.4676
11958.053
12507.689
12340.342
11998.603
11420.506
11446.569
10824.006
10932.036
10386.455
10606.136
10760.874
10563.93
11629.099
11937.369
12009.464
11727.674
10117.797
9978.1753
10121.356
10271.932
10481.005
10325.767
10040.708
10260.246
11334.443
11645.104
11689.295
11473.288
11333.035
11244.205
11318.253
11408.41
4730.7271
3080.5178
4657.6076
3071.7821
4837.172
3284.4138
5009.4243
3180.0267
8622.4627
8980.8357
9119.6567
8896.0209
8589.0047
8376.7062
8537.9617
8821.7819
11252.874
11539.802
11533.337
11375.908
10386.411
10254.587
9976.175
10173.264
9903.422
9666.3943
9835.445
10120.143
11206.741
10925.803
11031.944
11349.32
10876.014
11101.519
11119.086
10970.551
10040.425
9968.0301
9743.8459
9896.8332
11637.86
11261.077
11260.06
11653.881
10478.321
10123.194
10202.397
10590.286
8506.3909
8901.6906
8707.6736
8749.4658
3166.8813
4847.3372
3202.9346
4811.2877
9051.8324
8837.1718
9168.1277
9391.6687
5125.8055
3228.7431
4946.4081
3342.9355
13736.111
13864.031
13761.632
13755.965
12670.068
12708.349
12510.434
12589.553
12519.984
12201.957
12287.752
12633.079
13552.377
13511.962
13847.385
13871.429
15090.384
14796.426
14804.851
15072.46
14788.425
14915.089
14922.497
14880.909
15816.913
15945.075
16035.481
15942.901
16035.99
16064.778
16295.497
16223.429
15589.656
15735.294
15559.078
15473.916
14547.343
14640.681
14426.156
14425.947
14956.409
14651.025
14570.243
14877.778
15621.994
15726.453
16021.306
15906.629
13432.136
13468.987
13241.822
13285.342
12036.438
12269.219
12284.749
12137.569
12774.404
12393.341
12385.6
12765.186
13477.246
13525.207
13881.773
13816.386
12598.286
12236.403
12240.072
12620.389
11984.488
12212.239
12214.109
12056.281
13312.451
13373.993
13153.853
13151.785
13347.69
13395.695
13782.732
13725.633
12608.636
12537.182
12559.231
12670.994
12812.002
12871.685
12635.422
12673.362
13815.445
13976.46
13796.546
13754.324
13729.373
13766.874
13852.088
13833.025
15724.233
15917.831
15924.227
15808.106
14779.772
14938.048
14870.828
14802.914
15014.409
14944.192
14874.425
14966.227
15990.003
16088.882
16146.88
16046.224
14889.451
14506.388
14436.872
14822.712
14392.15
14475.625
14253.61
14230.812
15417.701
15547.17
15333.227
15260.843
15501.234
15589.464
15988.552
15878.154
1357.5064
954.44666
947.94009
1351.9453
3454.1104
5263.0011
5046.2277
3323.8855
9480.6883
9358.4945
8934.5821
9157.7561
8877.0403
8647.5367
8664.3988
8941.042
3206.8198
4836.3265
4821.8142
3181.8918
1313.7924
929.40839
932.5317
1318.2317
3072.4568
3108.3955
4759.5658
4683.8452
8410.8998
8784.2627
8604.4272
8634.5227
8798.7109
8568.2776
8866.7791
9112.9545
4923.6128
3131.9815
4767.5507
3218.2137
757.88214
727.14956
10202.585
9881.8345
9998.6569
10341.556
9959.2443
9837.8877
9643.5293
9817.0648
10813.529
11028.462
11066.4
10921.671
11398.875
11064.172
11107.84
11462.508
10044.347
9996.5687
10149.287
10242.095
10638.131
10569.148
10223.875
10388.863
11439.903
11734.116
11713.847
11526.64
11326.392
11268.835
11347.02
11445.706
1358.306
952.35927
945.68536
1357.4384
3349.0795
5117.2663
5025.1024
3294.8657
9300.7639
9159.4806
8946.5475
9175.2334
9103.7204
8863.9736
9091.9828
9362.2955
5079.1324
3283.9873
4960.4004
3324.679
1410.2548
975.10037
978.38429
1416.2359
3452.865
3387.1127
5142.9995
5163.9531
9007.4357
9304.278
9120.5796
9222.6836
9857.2397
9637.2721
10176.443
10353.627
5763.8007
3598.6278
5476.9337
3777.2903
745.31399
747.44733
11480.581
10971.67
10987.9
11483.479
10374.643
10324.004
10215.116
10323.869