/*--------------------------------*- C++ -*----------------------------------*\
  =========                 |
  \\      /  F ield         | OpenFOAM: The Open Source CFD Toolbox
   \\    /   O peration     | Website:  https://openfoam.org
    \\  /    A nd           | Version:  7
     \\/     M anipulation  |
\*---------------------------------------------------------------------------*/
FoamFile
{
    version     2.0;
    format      ascii;
    class       volScalarField;
    location    "6000";
    object      p;
}
// * * * * * * * * * * * * * * * * * * * * * * * * * * * * * * * * * * * * * //

dimensions      [0 2 -2 0 0 0 0];

internalField   nonuniform List<scalar> 
34387
(
-2.0567472e+73
-2.0600279e+73
-1.9809902e+73
-1.9794115e+73
-2.0135468e+73
-2.0672367e+73
-2.0635523e+73
-1.9863473e+73
-1.9836537e+73
-2.1355279e+73
-2.1343758e+73
-2.0996665e+73
-2.0980798e+73
-2.0645178e+73
-2.063408e+73
-2.104427e+73
-2.1381871e+73
-2.1369576e+73
-2.1018052e+73
-2.0692339e+73
-2.0663982e+73
-1.9053021e+73
-2.0326375e+73
-1.9878524e+73
-1.9866329e+73
-2.0304407e+73
-2.0291686e+73
-1.9856947e+73
-1.9860264e+73
-2.0282737e+73
-1.9046775e+73
-1.8204529e+73
-1.8208387e+73
-1.7235751e+73
-2.0760363e+73
-2.0713614e+73
-1.9934065e+73
-1.9898736e+73
-1.9785575e+73
-1.9819058e+73
-2.0478135e+73
-2.0521797e+73
-2.1132025e+73
-2.0763137e+73
-2.0740198e+73
-2.1105924e+73
-2.1067954e+73
-2.108424e+73
-2.0706922e+73
-2.0719629e+73
-2.0393348e+73
-1.9946623e+73
-1.9921476e+73
-1.9087449e+73
-2.0369985e+73
-1.9067525e+73
-2.0354011e+73
-1.990475e+73
-1.9897908e+73
-2.0340848e+73
-1.8217648e+73
-1.8207784e+73
-2.1430605e+73
-2.142341e+73
-2.1219202e+73
-2.135582e+73
-2.1363743e+73
-2.1417881e+73
-2.1208607e+73
-2.1349112e+73
-2.1350681e+73
-2.107204e+73
-2.1081029e+73
-2.1346795e+73
-2.1204511e+73
-2.1344116e+73
-2.1199123e+73
-2.1066884e+73
-2.1062014e+73
-2.0943488e+73
-2.0796983e+73
-2.0934733e+73
-2.0788734e+73
-2.0784427e+73
-2.0786938e+73
-2.0929785e+73
-2.0925875e+73
-2.1274306e+73
-2.1255998e+73
-2.1116281e+73
-2.1133177e+73
-2.1504651e+73
-2.1455816e+73
-2.1449601e+73
-2.138957e+73
-2.124521e+73
-2.1383258e+73
-2.1443332e+73
-2.1437946e+73
-2.1232943e+73
-2.1371319e+73
-2.1377135e+73
-2.110517e+73
-2.1092085e+73
-2.0851186e+73
-2.0995139e+73
-2.0978991e+73
-2.0834981e+73
-2.0807214e+73
-2.0818617e+73
-2.0965648e+73
-2.0952326e+73
-1.8799219e+73
-1.9396482e+73
-1.9380397e+73
-1.8774102e+73
-2.0693256e+73
-2.0513805e+73
-2.0675883e+73
-2.049528e+73
-2.0031407e+73
-2.0052404e+73
-2.0315222e+73
-2.0297188e+73
-2.0023909e+73
-2.0284952e+73
-2.0282821e+73
-2.0027493e+73
-2.047669e+73
-2.0657331e+73
-2.0646134e+73
-2.0469363e+73
-2.0454203e+73
-2.046091e+73
-2.0636605e+73
-2.0628939e+73
-2.0021808e+73
-2.0015014e+73
-1.9375247e+73
-2.0268581e+73
-2.0274699e+73
-2.0017908e+73
-2.0032309e+73
-1.9386575e+73
-2.0274414e+73
-2.0268528e+73
-2.0627768e+73
-2.045153e+73
-2.045508e+73
-2.0627745e+73
-1.8772119e+73
-1.8794999e+73
-1.8014614e+73
-1.8018834e+73
-2.1634458e+73
-1.7154813e+73
-1.7223573e+73
-2.1228684e+73
-2.1201515e+73
-2.0854308e+73
-2.0825152e+73
-2.1176157e+73
-2.1157735e+73
-2.0802226e+73
-2.0784247e+73
-2.0475832e+73
-2.0021071e+73
-1.9994675e+73
-2.0449052e+73
-1.9141379e+73
-2.0429349e+73
-1.9974812e+73
-1.9966216e+73
-2.0411051e+73
-1.9112996e+73
-1.8255324e+73
-1.8233939e+73
-2.1372905e+73
-2.1390143e+73
-2.124331e+73
-2.1222868e+73
-2.0921349e+73
-2.0939265e+73
-2.1094455e+73
-2.1073983e+73
-2.0897312e+73
-2.0909264e+73
-2.1060883e+73
-2.1048914e+73
-2.1196222e+73
-2.1207758e+73
-2.1359728e+73
-2.1347214e+73
-2.1308101e+73
-2.1292491e+73
-2.1165911e+73
-2.1152449e+73
-2.1318584e+73
-2.1333713e+73
-2.1174152e+73
-2.1185465e+73
-2.0867712e+73
-2.1021373e+73
-2.1011561e+73
-2.0861944e+73
-2.0873078e+73
-2.0883881e+73
-2.1037586e+73
-2.1026903e+73
-2.0569013e+73
-2.058294e+73
-2.0768913e+73
-2.0752994e+73
-1.9451007e+73
-2.0125746e+73
-2.0385924e+73
-2.0098101e+73
-2.0369143e+73
-2.0079486e+73
-2.0082553e+73
-2.035172e+73
-2.0340887e+73
-1.9423275e+73
-1.8834089e+73
-1.8801147e+73
-2.0739664e+73
-2.0549913e+73
-2.0727317e+73
-2.0537874e+73
-1.9409479e+73
-1.9410625e+73
-1.8791993e+73
-1.8806946e+73
-2.052043e+73
-2.0529751e+73
-2.071582e+73
-2.0704655e+73
-2.0058595e+73
-2.007069e+73
-2.0332337e+73
-2.0323308e+73
-2.0054336e+73
-2.0320034e+73
-2.0326492e+73
-2.0061553e+73
-2.0521395e+73
-2.0515582e+73
-2.0699863e+73
-2.0698606e+73
-1.8023801e+73
-1.8014439e+73
-2.1429209e+73
-2.142521e+73
-2.1465979e+73
-2.1462241e+73
-2.14595e+73
-2.1457292e+73
-2.1422071e+73
-2.141982e+73
-2.1304326e+73
-2.1244718e+73
-2.1237389e+73
-2.1296228e+73
-2.1368706e+73
-2.1375059e+73
-2.1417156e+73
-2.1415132e+73
-2.1454223e+73
-2.1451978e+73
-2.1233352e+73
-2.1233312e+73
-2.129155e+73
-2.1290866e+73
-2.1361947e+73
-2.1364219e+73
-2.1122204e+73
-2.1122575e+73
-2.1177322e+73
-2.1177453e+73
-2.1125395e+73
-2.1131185e+73
-2.1187309e+73
-2.11805e+73
-2.1359443e+73
-2.1289831e+73
-2.1233006e+73
-2.1230709e+73
-2.1287153e+73
-2.1357742e+73
-2.1284498e+73
-2.1228121e+73
-2.1177159e+73
-2.1120918e+73
-2.1118109e+73
-2.1174432e+73
-2.1172015e+73
-2.1116078e+73
-2.1112039e+73
-2.1074767e+73
-2.1017846e+73
-2.1013389e+73
-2.1069417e+73
-2.0961253e+73
-2.0900464e+73
-2.0895448e+73
-2.0956316e+73
-2.1066982e+73
-2.1010938e+73
-2.1008857e+73
-2.1065665e+73
-2.0953894e+73
-2.0893236e+73
-2.0893407e+73
-2.0952693e+73
-2.0888183e+73
-2.0889965e+73
-2.0948038e+73
-2.0944965e+73
-2.0890354e+73
-2.0893239e+73
-2.0951075e+73
-2.0948267e+73
-2.1063365e+73
-2.1005954e+73
-2.1003426e+73
-2.1060171e+73
-2.0999482e+73
-2.1002687e+73
-2.1059067e+73
-2.1055748e+73
-2.1362805e+73
-2.1351337e+73
-2.1303132e+73
-2.1290992e+73
-2.1336202e+73
-2.1341792e+73
-2.1281412e+73
-2.1276759e+73
-2.1161681e+73
-2.1165451e+73
-2.1218871e+73
-2.1223071e+73
-2.1174023e+73
-2.1187319e+73
-2.1244982e+73
-2.1232066e+73
-2.1506186e+73
-2.1503345e+73
-2.1535116e+73
-2.1537894e+73
-2.1453727e+73
-2.1450689e+73
-2.1490338e+73
-2.1487381e+73
-2.14849e+73
-2.1482498e+73
-2.1448124e+73
-2.1445891e+73
-2.1400701e+73
-2.1331319e+73
-2.1266444e+73
-2.1272959e+73
-2.1324779e+73
-2.1395676e+73
-2.1442415e+73
-2.1439099e+73
-2.1478725e+73
-2.1475514e+73
-2.1473029e+73
-2.1470131e+73
-2.1436311e+73
-2.1433222e+73
-2.1318823e+73
-2.126005e+73
-2.1252954e+73
-2.1312345e+73
-2.1382822e+73
-2.1389038e+73
-2.1215814e+73
-2.1158254e+73
-2.1150089e+73
-2.1208483e+73
-2.1201586e+73
-2.1142709e+73
-2.1137351e+73
-2.1194917e+73
-2.1015563e+73
-2.0957916e+73
-2.0946642e+73
-2.1002649e+73
-2.1057882e+73
-2.1071153e+73
-2.1129132e+73
-2.1115257e+73
-2.11075e+73
-2.1050307e+73
-2.1045785e+73
-2.1103676e+73
-2.0995298e+73
-2.0939253e+73
-2.0933068e+73
-2.0990119e+73
-2.0903222e+73
-2.0906112e+73
-2.0966129e+73
-2.0963385e+73
-2.0912456e+73
-2.0924493e+73
-2.0983875e+73
-2.0972842e+73
-2.109974e+73
-2.1040732e+73
-2.1030849e+73
-2.1090363e+73
-2.1020128e+73
-2.1023023e+73
-2.1082629e+73
-2.1078621e+73
-1.87204e+73
-1.97283e+73
-1.9703659e+73
-1.9307938e+73
-1.9271967e+73
-1.9698465e+73
-1.9693589e+73
-1.926031e+73
-1.927098e+73
-1.8693454e+73
-2.0895647e+73
-2.0829065e+73
-2.081998e+73
-2.0885217e+73
-2.0759654e+73
-2.0681278e+73
-2.067141e+73
-2.0750328e+73
-2.0877792e+73
-2.0811768e+73
-2.0869478e+73
-2.0801298e+73
-2.0741078e+73
-2.0661238e+73
-2.0650429e+73
-2.0730078e+73
-2.0185463e+73
-2.0191341e+73
-2.0353624e+73
-2.0344855e+73
-2.020694e+73
-2.0227361e+73
-2.0381522e+73
-2.0367671e+73
-2.0592312e+73
-2.0492695e+73
-2.0480499e+73
-2.0581195e+73
-2.0458338e+73
-2.0467715e+73
-2.057038e+73
-2.0560261e+73
-2.0173007e+73
-2.0180965e+73
-2.0338228e+73
-2.0333648e+73
-2.0549956e+73
-2.0448675e+73
-2.0444202e+73
-2.0540509e+73
-2.0537453e+73
-2.0443414e+73
-2.0537106e+73
-2.0447008e+73
-2.0335324e+73
-2.0176861e+73
-2.033965e+73
-2.0184522e+73
-2.0718508e+73
-2.0639046e+73
-2.0626794e+73
-2.0704161e+73
-2.0776196e+73
-2.0790341e+73
-2.085969e+73
-2.0846154e+73
-2.083974e+73
-2.0768839e+73
-2.0765579e+73
-2.0836629e+73
-2.0697054e+73
-2.0620897e+73
-2.0618954e+73
-2.0694238e+73
-2.0609259e+73
-2.0609137e+73
-2.0686302e+73
-2.0686631e+73
-2.0611192e+73
-2.061653e+73
-2.0692628e+73
-2.0687879e+73
-2.0833597e+73
-2.0762933e+73
-2.0758367e+73
-2.0828275e+73
-2.0757465e+73
-2.0756565e+73
-2.0826465e+73
-2.0827479e+73
-1.9693967e+73
-2.018361e+73
-2.0335161e+73
-2.0328712e+73
-2.0170251e+73
-1.9687792e+73
-2.0165068e+73
-2.0322051e+73
-2.0324311e+73
-2.0168532e+73
-1.9268017e+73
-1.9256882e+73
-2.0430901e+73
-2.0428387e+73
-2.0523619e+73
-2.0524038e+73
-2.0434837e+73
-2.0439737e+73
-2.0532885e+73
-2.0526441e+73
-1.9694223e+73
-2.0171649e+73
-2.0324368e+73
-2.032935e+73
-2.0174116e+73
-1.971575e+73
-2.0185464e+73
-2.0335073e+73
-2.0345715e+73
-2.020057e+73
-1.9266597e+73
-1.929929e+73
-2.0446092e+73
-2.0436913e+73
-2.052859e+73
-2.0534018e+73
-2.0433682e+73
-2.0429129e+73
-2.0523861e+73
-2.0524169e+73
-2.0828604e+73
-2.0758098e+73
-2.0756138e+73
-2.0825282e+73
-2.0686442e+73
-2.0608761e+73
-2.0608062e+73
-2.0684809e+73
-2.0615967e+73
-2.0611765e+73
-2.0687524e+73
-2.0690544e+73
-2.0825578e+73
-2.0757271e+73
-2.0759067e+73
-2.08257e+73
-1.8692405e+73
-1.8718073e+73
-1.794587e+73
-1.795014e+73
-2.0817726e+73
-2.1637376e+73
-2.2047858e+73
-2.2017134e+73
-2.1610645e+73
-2.2217375e+73
-2.2183615e+73
-1.7142185e+73
-1.8005181e+73
-1.8003079e+73
-1.7238077e+73
-2.1479855e+73
-2.1465436e+73
-2.1331921e+73
-2.1317477e+73
-2.1454846e+73
-2.144318e+73
-2.1296809e+73
-2.1306804e+73
-2.1183678e+73
-2.1027942e+73
-2.1008677e+73
-2.116641e+73
-2.0995446e+73
-2.1156204e+73
-2.1147467e+73
-2.0986566e+73
-2.1420033e+73
-2.1432391e+73
-2.1284714e+73
-2.1272202e+73
-2.1412259e+73
-2.1402996e+73
-2.1258541e+73
-2.1266364e+73
-2.0961506e+73
-2.0974395e+73
-2.1133593e+73
-2.1120664e+73
-2.0955917e+73
-2.1116397e+73
-2.1110492e+73
-2.0951378e+73
-2.0856268e+73
-2.0663975e+73
-2.064731e+73
-2.0835283e+73
-2.0181441e+73
-2.020226e+73
-2.0463769e+73
-2.0448469e+73
-1.9515889e+73
-2.0435505e+73
-2.0163798e+73
-2.0154994e+73
-2.0420523e+73
-1.9486576e+73
-2.0631852e+73
-2.0619444e+73
-2.0820816e+73
-2.0810709e+73
-1.888544e+73
-1.8849512e+73
-2.0608687e+73
-2.0799757e+73
-2.0597487e+73
-2.0787845e+73
-2.0130223e+73
-2.0143559e+73
-2.0408881e+73
-1.9469614e+73
-2.0397445e+73
-2.0136546e+73
-2.0127681e+73
-1.9468319e+73
-2.0392638e+73
-2.0393873e+73
-2.0589582e+73
-2.0589883e+73
-2.0780752e+73
-2.0777868e+73
-1.8836626e+73
-1.8847217e+73
-1.8056592e+73
-1.8036025e+73
-2.147717e+73
-2.141543e+73
-2.140825e+73
-2.1472189e+73
-2.1491449e+73
-2.1432105e+73
-2.1423258e+73
-2.1483622e+73
-2.1373546e+73
-2.1314366e+73
-2.1302157e+73
-2.1363119e+73
-2.1353954e+73
-2.1291805e+73
-2.1282584e+73
-2.1345575e+73
-2.1032315e+73
-2.104132e+73
-2.1105474e+73
-2.109535e+73
-2.1050998e+73
-2.1064693e+73
-2.1130019e+73
-2.1115508e+73
-2.1252992e+73
-2.1190679e+73
-2.1176455e+73
-2.123911e+73
-2.115534e+73
-2.1165406e+73
-2.1228283e+73
-2.1218739e+73
-2.1005112e+73
-2.1009845e+73
-2.1071958e+73
-2.106877e+73
-2.1014834e+73
-2.1025087e+73
-2.1086962e+73
-2.1076871e+73
-2.1209686e+73
-2.1146097e+73
-2.1136371e+73
-2.1199237e+73
-2.1194084e+73
-2.1130995e+73
-2.1128841e+73
-2.1191994e+73
-2.1255639e+73
-2.1258317e+73
-2.1322582e+73
-2.1318811e+73
-2.1263632e+73
-2.1273499e+73
-2.1337474e+73
-2.1328089e+73
-2.1467136e+73
-2.1401461e+73
-2.1392959e+73
-2.1459123e+73
-2.1381992e+73
-2.1386693e+73
-2.1452471e+73
-2.1446474e+73
-2.1402147e+73
-2.1390857e+73
-2.1344739e+73
-2.1333363e+73
-2.1372226e+73
-2.1380681e+73
-2.1313354e+73
-2.1322426e+73
-2.1287526e+73
-2.122935e+73
-2.1275905e+73
-2.1219056e+73
-2.1209726e+73
-2.1265633e+73
-2.1256022e+73
-2.1199748e+73
-2.1410547e+73
-2.1418111e+73
-2.1351963e+73
-2.135812e+73
-2.1365449e+73
-2.1374681e+73
-2.1437568e+73
-2.1426607e+73
-2.1234917e+73
-2.1238625e+73
-2.1299002e+73
-2.1293826e+73
-2.1243669e+73
-2.125092e+73
-2.1312978e+73
-2.130474e+73
-2.0975686e+73
-2.0982517e+73
-2.1047327e+73
-2.1039943e+73
-2.1169175e+73
-2.1107693e+73
-2.1100305e+73
-2.1159933e+73
-2.1152467e+73
-2.1093928e+73
-2.1142171e+73
-2.1083861e+73
-2.1034476e+73
-2.0971336e+73
-2.0966323e+73
-2.1026402e+73
-2.0985223e+73
-2.0986534e+73
-2.1051897e+73
-2.1049987e+73
-2.0990491e+73
-2.0998692e+73
-2.1063383e+73
-2.1055564e+73
-2.1117244e+73
-2.1124369e+73
-2.1187811e+73
-2.1180334e+73
-2.1175833e+73
-2.1112878e+73
-2.1110902e+73
-2.1173215e+73
-2.0729967e+73
-2.0738733e+73
-2.082207e+73
-2.081382e+73
-2.0747533e+73
-2.0756716e+73
-2.0839969e+73
-2.0830068e+73
-2.0992754e+73
-2.0916154e+73
-2.0905022e+73
-2.097967e+73
-2.0970643e+73
-2.0896317e+73
-2.0888832e+73
-2.0962817e+73
-1.9793882e+73
-1.9361398e+73
-1.9320124e+73
-1.9761918e+73
-2.0275617e+73
-2.0296407e+73
-2.0451724e+73
-2.0438658e+73
-2.0563451e+73
-2.0664486e+73
-2.0654761e+73
-2.0552564e+73
-2.042639e+73
-2.0258412e+73
-2.0248254e+73
-2.0413504e+73
-2.0530782e+73
-2.0542585e+73
-2.0645755e+73
-2.0636408e+73
-1.9744553e+73
-2.023475e+73
-2.0229203e+73
-2.0390468e+73
-2.0392168e+73
-1.974494e+73
-2.0228525e+73
-2.0237989e+73
-2.040332e+73
-2.0393933e+73
-2.0626272e+73
-2.0520793e+73
-2.0509719e+73
-2.061341e+73
-2.0504541e+73
-2.0502995e+73
-2.0607065e+73
-2.0606184e+73
-1.9302849e+73
-1.9308639e+73
-1.8752716e+73
-1.8718143e+73
-2.0956653e+73
-2.0882082e+73
-2.0870796e+73
-2.0945414e+73
-2.0804747e+73
-2.0720043e+73
-2.0707265e+73
-2.0792434e+73
-2.0940241e+73
-2.0864461e+73
-2.0859172e+73
-2.0934709e+73
-2.0786202e+73
-2.070083e+73
-2.0698528e+73
-2.0781976e+73
-1.9735421e+73
-1.9723297e+73
-1.9301265e+73
-1.9284791e+73
-1.9723184e+73
-1.9289399e+73
-1.931685e+73
-1.973716e+73
-1.8709598e+73
-1.8726669e+73
-2.0680357e+73
-2.0681918e+73
-2.0763074e+73
-2.0764864e+73
-2.0686392e+73
-2.0694386e+73
-2.0777452e+73
-2.076865e+73
-2.0844009e+73
-2.0852768e+73
-2.0928036e+73
-2.0918835e+73
-2.0914809e+73
-2.0839656e+73
-2.0838462e+73
-2.0913763e+73
-2.0206835e+73
-2.0208767e+73
-2.0371555e+73
-2.0369527e+73
-2.0216552e+73
-2.0232715e+73
-2.0388485e+73
-2.0379285e+73
-2.0601971e+73
-2.049915e+73
-2.0492397e+73
-2.0594128e+73
-2.0588944e+73
-2.0484646e+73
-2.0484816e+73
-2.0588044e+73
-2.0205753e+73
-2.0205363e+73
-2.0368557e+73
-2.0370163e+73
-2.0485908e+73
-2.0484321e+73
-2.0587024e+73
-2.0586728e+73
-2.0591719e+73
-2.0493796e+73
-2.0498131e+73
-2.0595831e+73
-2.0378404e+73
-2.021471e+73
-2.0230468e+73
-2.0385695e+73
-2.0682697e+73
-2.0678342e+73
-2.0757171e+73
-2.0760136e+73
-2.0676609e+73
-2.067855e+73
-2.0761013e+73
-2.0756876e+73
-2.0911757e+73
-2.0836527e+73
-2.0831444e+73
-2.0905215e+73
-2.0830896e+73
-2.082966e+73
-2.0902327e+73
-2.0900426e+73
-1.7953775e+73
-1.7944868e+73
-2.143322e+73
-2.1429601e+73
-2.1472225e+73
-2.1468929e+73
-2.1466397e+73
-2.1464081e+73
-2.1427046e+73
-2.1424715e+73
-2.132118e+73
-2.1268119e+73
-2.1262139e+73
-2.1314448e+73
-2.1359642e+73
-2.1361839e+73
-2.1389129e+73
-2.1387065e+73
-2.1364803e+73
-2.136811e+73
-2.1395033e+73
-2.1392039e+73
-2.1422502e+73
-2.1420589e+73
-2.1461529e+73
-2.1459469e+73
-2.1258154e+73
-2.1258527e+73
-2.131039e+73
-2.1308934e+73
-2.1353827e+73
-2.1354686e+73
-2.1381662e+73
-2.1380504e+73
-2.1356186e+73
-2.1357377e+73
-2.1384623e+73
-2.1383374e+73
-2.1159601e+73
-2.1159326e+73
-2.1207449e+73
-2.1207713e+73
-2.1161932e+73
-2.1165542e+73
-2.1215517e+73
-2.1210411e+73
-2.1307708e+73
-2.1351676e+73
-2.1352119e+73
-2.1378548e+73
-2.1378035e+73
-2.1257744e+73
-2.1257168e+73
-2.1306331e+73
-2.1350063e+73
-2.1350914e+73
-2.137703e+73
-2.1376011e+73
-2.1302872e+73
-2.1253394e+73
-2.1208101e+73
-2.1159633e+73
-2.11587e+73
-2.1207417e+73
-2.1204393e+73
-2.1155768e+73
-2.114925e+73
-2.1116e+73
-2.1067973e+73
-2.1067665e+73
-2.1113613e+73
-2.1020229e+73
-2.097201e+73
-2.0971905e+73
-2.102032e+73
-2.1111764e+73
-2.1065559e+73
-2.1063617e+73
-2.1110686e+73
-2.1019163e+73
-2.0970473e+73
-2.0967987e+73
-2.101596e+73
-2.0961829e+73
-2.0966564e+73
-2.101129e+73
-2.1006868e+73
-2.0966519e+73
-2.0965113e+73
-2.1012006e+73
-2.1012131e+73
-2.1109847e+73
-2.1060392e+73
-2.1059755e+73
-2.1108627e+73
-2.1052882e+73
-2.1057961e+73
-2.1106399e+73
-2.1100394e+73
-2.1379242e+73
-2.1368912e+73
-2.1326649e+73
-2.1315417e+73
-2.13532e+73
-2.1359621e+73
-2.1305552e+73
-2.1300298e+73
-2.1196624e+73
-2.1200024e+73
-2.1247393e+73
-2.1251613e+73
-2.1209845e+73
-2.1222633e+73
-2.1273921e+73
-2.1261638e+73
-2.151303e+73
-2.1509879e+73
-2.1542006e+73
-2.1545049e+73
-2.1457737e+73
-2.1455049e+73
-2.149651e+73
-2.1493928e+73
-2.149157e+73
-2.148886e+73
-2.1452927e+73
-2.1450292e+73
-2.1347875e+73
-2.1391111e+73
-2.1393283e+73
-2.141998e+73
-2.1417922e+73
-2.1291548e+73
-2.1296171e+73
-2.1342776e+73
-2.138619e+73
-2.1388826e+73
-2.1415476e+73
-2.1412867e+73
-2.1446749e+73
-2.1443472e+73
-2.1485322e+73
-2.1482219e+73
-2.1479394e+73
-2.147609e+73
-2.1440712e+73
-2.1437206e+73
-2.1336332e+73
-2.1284365e+73
-2.1276706e+73
-2.1329119e+73
-2.1372368e+73
-2.1376097e+73
-2.1402877e+73
-2.1399368e+73
-2.1379326e+73
-2.1382472e+73
-2.1409047e+73
-2.140613e+73
-2.1244614e+73
-2.1194385e+73
-2.1188345e+73
-2.1239488e+73
-2.1232247e+73
-2.1180134e+73
-2.117277e+73
-2.1224065e+73
-2.1073926e+73
-2.1027473e+73
-2.1017306e+73
-2.1061652e+73
-2.1108826e+73
-2.1121314e+73
-2.11713e+73
-2.1158286e+73
-2.114888e+73
-2.1099596e+73
-2.10957e+73
-2.1145262e+73
-2.1052579e+73
-2.1007891e+73
-2.1002001e+73
-2.1047419e+73
-2.0971481e+73
-2.0973237e+73
-2.1023242e+73
-2.1020499e+73
-2.0983915e+73
-2.0995628e+73
-2.1043603e+73
-2.1033617e+73
-2.114333e+73
-2.1092623e+73
-2.1084189e+73
-2.113589e+73
-2.1070303e+73
-2.107442e+73
-2.1127005e+73
-2.1120967e+73
-1.8670334e+73
-1.9322596e+73
-1.928429e+73
-2.0024081e+73
-1.9745515e+73
-1.970875e+73
-1.9998845e+73
-1.9981923e+73
-1.969122e+73
-1.9693901e+73
-1.9978675e+73
-1.9966147e+73
-1.9674552e+73
-1.9698528e+73
-1.9979754e+73
-1.9972283e+73
-1.9686445e+73
-1.9670308e+73
-1.9962058e+73
-1.9269182e+73
-1.9278961e+73
-1.8641681e+73
-2.0978777e+73
-2.0929231e+73
-2.0923707e+73
-2.0970412e+73
-2.0876082e+73
-2.0818703e+73
-2.0812198e+73
-2.0870811e+73
-2.0961852e+73
-2.0914149e+73
-2.09542e+73
-2.0904246e+73
-2.0861248e+73
-2.0800914e+73
-2.0787346e+73
-2.084836e+73
-2.0351597e+73
-2.0360088e+73
-2.0534281e+73
-2.0523328e+73
-2.0380372e+73
-2.0402565e+73
-2.0567184e+73
-2.0551983e+73
-2.0748441e+73
-2.0668531e+73
-2.065746e+73
-2.0739803e+73
-2.0630103e+73
-2.0642747e+73
-2.072719e+73
-2.0713875e+73
-2.0335882e+73
-2.0344158e+73
-2.0513375e+73
-2.0507769e+73
-2.0700477e+73
-2.0617772e+73
-2.0610683e+73
-2.0688027e+73
-2.0678673e+73
-2.0606823e+73
-2.067776e+73
-2.0608648e+73
-2.0507365e+73
-2.0338421e+73
-2.0512828e+73
-2.0348825e+73
-2.0834088e+73
-2.0772236e+73
-2.0756932e+73
-2.0817839e+73
-2.0876173e+73
-2.0890782e+73
-2.094448e+73
-2.0931037e+73
-2.0919868e+73
-2.0864037e+73
-2.0860796e+73
-2.0917497e+73
-2.0804375e+73
-2.0743533e+73
-2.0741003e+73
-2.0800922e+73
-2.0739429e+73
-2.0740497e+73
-2.0801582e+73
-2.0801069e+73
-2.0742477e+73
-2.0744071e+73
-2.0803662e+73
-2.0802908e+73
-2.0918689e+73
-2.0861978e+73
-2.0861737e+73
-2.0918075e+73
-2.0860074e+73
-2.0860442e+73
-2.0916829e+73
-2.0915363e+73
-1.9977745e+73
-1.9695116e+73
-1.9669686e+73
-1.9960992e+73
-2.0347765e+73
-2.0509359e+73
-2.0502174e+73
-2.0334196e+73
-1.9955919e+73
-1.9665086e+73
-1.9680905e+73
-1.9963459e+73
-2.0325069e+73
-2.0493071e+73
-2.04952e+73
-2.0329068e+73
-1.9275806e+73
-1.9266543e+73
-2.059324e+73
-2.0593352e+73
-2.0670539e+73
-2.0669072e+73
-2.0598918e+73
-2.0604145e+73
-2.0677364e+73
-2.0673368e+73
-1.9966885e+73
-1.9685183e+73
-1.9682794e+73
-1.9969013e+73
-2.0332737e+73
-2.0496161e+73
-2.0502053e+73
-2.0337195e+73
-1.9983188e+73
-1.9698834e+73
-1.9732895e+73
-2.0005358e+73
-2.0349249e+73
-2.0508524e+73
-2.0522326e+73
-2.036885e+73
-1.9278876e+73
-1.9315876e+73
-2.0612289e+73
-2.0603669e+73
-2.0677123e+73
-2.0682471e+73
-2.0597845e+73
-2.0593619e+73
-2.0669695e+73
-2.0671634e+73
-2.0914282e+73
-2.0860947e+73
-2.0861908e+73
-2.0915745e+73
-2.0802082e+73
-2.0739467e+73
-2.07408e+73
-2.0802823e+73
-2.0748665e+73
-2.074471e+73
-2.0805313e+73
-2.0807185e+73
-2.0916713e+73
-2.0862798e+73
-2.0862004e+73
-2.0913222e+73
-1.8641628e+73
-1.8670198e+73
-1.8658364e+73
-1.8628712e+73
-1.8627067e+73
-1.8655617e+73
-1.8148787e+73
-1.82472e+73
-1.8244733e+73
-1.8148517e+73
-1.9864069e+73
-1.9919011e+73
-2.0911878e+73
-2.0865272e+73
-1.9950541e+73
-2.0776595e+73
-2.0795552e+73
-2.124096e+73
-2.1218133e+73
-2.1844664e+73
-2.1814988e+73
-1.9894734e+73
-2.0755904e+73
-2.2278687e+73
-2.2257034e+73
-2.2237886e+73
-2.2406883e+73
-2.2384528e+73
-2.2218662e+73
-1.7155557e+73
-1.80134e+73
-1.8003083e+73
-1.8694976e+73
-1.8762574e+73
-1.8783298e+73
-1.8720308e+73
-1.8795361e+73
-1.8768265e+73
-1.8699255e+73
-1.8728259e+73
-2.1505015e+73
-2.1512768e+73
-2.1574557e+73
-2.1566954e+73
-2.1500976e+73
-2.1562431e+73
-2.1559959e+73
-2.1498782e+73
-2.1452255e+73
-2.1392236e+73
-2.1383444e+73
-2.1443933e+73
-2.1377517e+73
-2.1379662e+73
-2.1438378e+73
-2.1440619e+73
-2.1555425e+73
-2.1494332e+73
-2.1546956e+73
-2.1485918e+73
-2.1475226e+73
-2.1478792e+73
-2.1539693e+73
-2.1535641e+73
-2.135717e+73
-2.1360623e+73
-2.1419405e+73
-2.1415977e+73
-2.1366051e+73
-2.1373531e+73
-2.1434127e+73
-2.1425793e+73
-2.1331072e+73
-2.126923e+73
-2.1258899e+73
-2.1321095e+73
-2.1208861e+73
-2.1146165e+73
-2.1134338e+73
-2.1197696e+73
-2.1120202e+73
-2.1126812e+73
-2.1192125e+73
-2.1187395e+73
-2.1316494e+73
-2.1253366e+73
-2.1250129e+73
-2.1314143e+73
-2.1108044e+73
-2.1114568e+73
-2.1182877e+73
-2.1176594e+73
-2.1240594e+73
-2.1246469e+73
-2.1310765e+73
-2.1303727e+73
-2.1300156e+73
-2.1237903e+73
-2.123389e+73
-2.1296384e+73
-2.1174003e+73
-2.1105553e+73
-2.1103114e+73
-2.1170792e+73
-2.1521431e+73
-2.1461641e+73
-2.1458271e+73
-2.1518068e+73
-2.1531777e+73
-2.1471979e+73
-2.1466115e+73
-2.1525902e+73
-2.141274e+73
-2.1352659e+73
-2.1344742e+73
-2.1405987e+73
-2.1401398e+73
-2.1339897e+73
-2.1338274e+73
-2.1398738e+73
-2.1513811e+73
-2.1454201e+73
-2.144724e+73
-2.1506552e+73
-2.1437389e+73
-2.1441147e+73
-2.1500554e+73
-2.1496753e+73
-2.1321764e+73
-2.1325905e+73
-2.1383224e+73
-2.1379306e+73
-2.1330341e+73
-2.1335825e+73
-2.1395455e+73
-2.1388644e+73
-2.1078202e+73
-2.1079557e+73
-2.1147541e+73
-2.114625e+73
-2.1085439e+73
-2.1096208e+73
-2.116343e+73
-2.1153159e+73
-2.1289944e+73
-2.1226246e+73
-2.1216371e+73
-2.1280548e+73
-2.1209806e+73
-2.121086e+73
-2.1275549e+73
-2.1274541e+73
-2.1074831e+73
-2.1077628e+73
-2.1146114e+73
-2.1143226e+73
-2.127358e+73
-2.1209444e+73
-2.1206804e+73
-2.1269118e+73
-2.1266647e+73
-2.1205302e+73
-2.1200347e+73
-2.1261991e+73
-2.1142033e+73
-2.1074255e+73
-2.1072193e+73
-2.1138292e+73
-2.1077589e+73
-2.100262e+73
-2.0988904e+73
-2.1064044e+73
-2.0923182e+73
-2.0835859e+73
-2.0825526e+73
-2.0910659e+73
-2.0807844e+73
-2.0816882e+73
-2.0901763e+73
-2.0891782e+73
-2.1054576e+73
-2.0978353e+73
-2.0968947e+73
-2.1046533e+73
-1.9838565e+73
-2.0330647e+73
-2.0341874e+73
-2.0504563e+73
-2.0495626e+73
-1.9865924e+73
-2.0355336e+73
-2.037304e+73
-2.0525938e+73
-2.0516039e+73
-2.0628132e+73
-2.0635976e+73
-2.0740138e+73
-2.0730801e+73
-2.072236e+73
-2.0617382e+73
-2.0611744e+73
-2.0715036e+73
-1.9426955e+73
-1.9386394e+73
-2.0707661e+73
-2.0606634e+73
-2.0594412e+73
-2.069706e+73
-1.9818913e+73
-2.0488775e+73
-2.0319783e+73
-2.0306961e+73
-2.0476299e+73
-1.9814548e+73
-2.030834e+73
-2.0305149e+73
-2.0470212e+73
-2.0469121e+73
-2.0690191e+73
-2.058503e+73
-2.0583723e+73
-2.0687494e+73
-1.9367342e+73
-1.9370524e+73
-2.0883111e+73
-2.0798782e+73
-2.0789095e+73
-2.0874094e+73
-2.0782184e+73
-2.0784567e+73
-2.0868995e+73
-2.0871065e+73
-2.0953724e+73
-2.0961612e+73
-2.1040223e+73
-2.1032675e+73
-2.0950895e+73
-2.1030363e+73
-2.1028429e+73
-2.0949117e+73
-1.8805868e+73
-1.8766757e+73
-2.0767739e+73
-2.0776905e+73
-2.0863956e+73
-2.0854135e+73
-2.0943175e+73
-2.1022079e+73
-2.101069e+73
-2.0932829e+73
-2.0848696e+73
-2.0761727e+73
-2.0759031e+73
-2.0845478e+73
-2.0924395e+73
-2.0927587e+73
-2.1005276e+73
-2.1003302e+73
-1.9789873e+73
-2.0278398e+73
-2.0279068e+73
-2.0441637e+73
-2.0444109e+73
-1.9803088e+73
-2.0287531e+73
-2.0304799e+73
-2.0463802e+73
-2.045297e+73
-2.0568019e+73
-2.0576579e+73
-2.0681592e+73
-2.0672283e+73
-1.936122e+73
-1.9342897e+73
-2.0558858e+73
-2.0665458e+73
-2.0663442e+73
-2.0557677e+73
-1.9805346e+73
-2.0300167e+73
-2.0288408e+73
-2.0454574e+73
-2.0447063e+73
-1.9790055e+73
-2.0278866e+73
-2.0279017e+73
-2.0441885e+73
-2.0440278e+73
-1.9346077e+73
-1.9372474e+73
-2.055424e+73
-2.0660386e+73
-2.0659304e+73
-2.0555892e+73
-2.0558084e+73
-2.0661334e+73
-2.0666734e+73
-2.0565864e+73
-2.0759239e+73
-2.0755448e+73
-2.0841605e+73
-2.0843245e+73
-2.0753617e+73
-2.0755757e+73
-2.0842821e+73
-2.0839851e+73
-2.1002676e+73
-2.0922808e+73
-2.0920127e+73
-2.0999551e+73
-2.0921334e+73
-2.0920937e+73
-2.099986e+73
-2.0999139e+73
-1.8753591e+73
-1.8765464e+73
-1.7985415e+73
-1.7965005e+73
-2.1501986e+73
-2.1447903e+73
-2.1441155e+73
-2.1497262e+73
-2.151371e+73
-2.1462035e+73
-2.1455636e+73
-2.150783e+73
-2.1410594e+73
-2.1360128e+73
-2.1350049e+73
-2.1402566e+73
-2.139357e+73
-2.1339094e+73
-2.1328304e+73
-2.1384185e+73
-2.1112733e+73
-2.1124563e+73
-2.1175556e+73
-2.1163846e+73
-2.1136825e+73
-2.1150254e+73
-2.1202033e+73
-2.1188988e+73
-2.1307646e+73
-2.1254577e+73
-2.1241821e+73
-2.1295612e+73
-2.1216793e+73
-2.1228567e+73
-2.1283407e+73
-2.1271817e+73
-2.1083597e+73
-2.1086548e+73
-2.1137275e+73
-2.1135192e+73
-2.1093477e+73
-2.1101052e+73
-2.1151688e+73
-2.1143377e+73
-2.1261049e+73
-2.1205079e+73
-2.1196467e+73
-2.1251949e+73
-2.124656e+73
-2.1190615e+73
-2.1188702e+73
-2.1243897e+73
-2.1300612e+73
-2.1303734e+73
-2.1361625e+73
-2.1357184e+73
-2.1309501e+73
-2.1318068e+73
-2.1375668e+73
-2.1367606e+73
-2.1492977e+73
-2.1434251e+73
-2.1426983e+73
-2.148642e+73
-2.1414659e+73
-2.142044e+73
-2.1479587e+73
-2.1472136e+73
-2.1421347e+73
-2.1409947e+73
-2.1371479e+73
-2.1359823e+73
-2.1388689e+73
-2.1398908e+73
-2.1336566e+73
-2.1347373e+73
-2.1321388e+73
-2.1271889e+73
-2.1309896e+73
-2.1260945e+73
-2.1247258e+73
-2.1296171e+73
-2.1284936e+73
-2.1235293e+73
-2.1432498e+73
-2.144214e+73
-2.1381806e+73
-2.1389681e+73
-2.1398464e+73
-2.1407161e+73
-2.1462238e+73
-2.1451877e+73
-2.1279288e+73
-2.1284399e+73
-2.133637e+73
-2.1330201e+73
-2.1290463e+73
-2.1296582e+73
-2.1351407e+73
-2.1343947e+73
-2.1058468e+73
-2.106435e+73
-2.1115669e+73
-2.1110152e+73
-2.1220296e+73
-2.1167849e+73
-2.1160811e+73
-2.1210747e+73
-2.1198452e+73
-2.1150129e+73
-2.1185816e+73
-2.1137672e+73
-2.1101765e+73
-2.105079e+73
-2.1040921e+73
-2.1089513e+73
-2.1066882e+73
-2.106824e+73
-2.1121207e+73
-2.1119562e+73
-2.1072325e+73
-2.107842e+73
-2.1132204e+73
-2.1126244e+73
-2.1180527e+73
-2.1185907e+73
-2.1240899e+73
-2.1235296e+73
-2.1230199e+73
-2.1175325e+73
-2.1172647e+73
-2.1226083e+73
-2.0871247e+73
-2.0881388e+73
-2.0947086e+73
-2.0937876e+73
-2.0891772e+73
-2.0900434e+73
-2.0966762e+73
-2.0955648e+73
-2.1092721e+73
-2.1030906e+73
-2.1018995e+73
-2.1079456e+73
-2.1068778e+73
-2.1009395e+73
-2.1000079e+73
-2.1057726e+73
-1.9767557e+73
-1.9806229e+73
-2.0089705e+73
-2.0063081e+73
-1.9371498e+73
-1.932885e+73
-1.9747357e+73
-2.0043591e+73
-2.0036755e+73
-1.9746669e+73
-2.0449154e+73
-2.0471061e+73
-2.0636998e+73
-2.0623283e+73
-2.0739934e+73
-2.0823871e+73
-2.0815425e+73
-2.0730255e+73
-2.0609092e+73
-2.042944e+73
-2.041747e+73
-2.0595265e+73
-2.0705517e+73
-2.0717736e+73
-2.0803557e+73
-2.0792942e+73
-2.0015652e+73
-1.9719552e+73
-1.974099e+73
-2.0026734e+73
-2.0401707e+73
-2.039392e+73
-2.0565996e+73
-2.0570174e+73
-1.971759e+73
-1.9736131e+73
-2.0025547e+73
-2.0013743e+73
-2.0393981e+73
-2.0405549e+73
-2.0582619e+73
-2.0571589e+73
-2.0781429e+73
-2.0693229e+73
-2.0681895e+73
-2.0769486e+73
-2.0675227e+73
-2.0674267e+73
-2.0761722e+73
-2.0759576e+73
-1.9309309e+73
-1.9314394e+73
-1.8698472e+73
-1.8662765e+73
-2.1047407e+73
-2.0991127e+73
-2.098231e+73
-2.1039308e+73
-2.0928678e+73
-2.0860065e+73
-2.0849046e+73
-2.0918255e+73
-2.1032059e+73
-2.0974685e+73
-2.0967321e+73
-2.1026766e+73
-2.0910317e+73
-2.0840922e+73
-2.083644e+73
-2.0903359e+73
-2.0022671e+73
-1.9735121e+73
-1.970686e+73
-2.0002892e+73
-1.9994759e+73
-1.9699318e+73
-1.97115e+73
-1.9997773e+73
-1.9306573e+73
-1.9291725e+73
-1.970726e+73
-1.9712473e+73
-1.9996419e+73
-1.9996107e+73
-1.9299148e+73
-1.9331276e+73
-1.9752113e+73
-1.9720022e+73
-2.0006641e+73
-2.0028512e+73
-1.8655368e+73
-1.86752e+73
-2.0817069e+73
-2.0819403e+73
-2.0883343e+73
-2.0883651e+73
-2.082486e+73
-2.0831318e+73
-2.0895274e+73
-2.0889191e+73
-2.0952544e+73
-2.0958826e+73
-2.1020034e+73
-2.101361e+73
-2.1009869e+73
-2.0947874e+73
-2.0947646e+73
-2.1008868e+73
-2.0370731e+73
-2.0371149e+73
-2.0546801e+73
-2.0545289e+73
-2.0383065e+73
-2.0399812e+73
-2.0566829e+73
-2.0557679e+73
-2.0755991e+73
-2.0671012e+73
-2.0664554e+73
-2.0749208e+73
-2.0743265e+73
-2.0656197e+73
-2.06544e+73
-2.0740155e+73
-2.0372617e+73
-2.0370661e+73
-2.0545152e+73
-2.0548138e+73
-2.0656354e+73
-2.0654052e+73
-2.0738734e+73
-2.0738495e+73
-2.0741233e+73
-2.0664025e+73
-2.0671177e+73
-2.0747716e+73
-2.0558775e+73
-2.038476e+73
-2.0403512e+73
-2.0569497e+73
-2.0816776e+73
-2.0810177e+73
-2.0873685e+73
-2.0876809e+73
-2.0811921e+73
-2.0814751e+73
-2.088177e+73
-2.0877129e+73
-2.1007143e+73
-2.0945994e+73
-2.0940649e+73
-2.1001069e+73
-2.0934078e+73
-2.0935617e+73
-2.0994869e+73
-2.0988544e+73
-1.8685801e+73
-1.8649659e+73
-1.8641493e+73
-1.8661682e+73
-2.1426062e+73
-2.1422962e+73
-2.1479004e+73
-2.1475931e+73
-2.1473341e+73
-2.1471006e+73
-2.1420415e+73
-2.1418311e+73
-2.1343418e+73
-2.1318172e+73
-2.1314508e+73
-2.1339838e+73
-2.1293638e+73
-2.1268008e+73
-2.1264523e+73
-2.1289966e+73
-2.1260085e+73
-2.1261801e+73
-2.1286912e+73
-2.1285043e+73
-2.1336702e+73
-2.1311265e+73
-2.1309257e+73
-2.1334518e+73
-2.1359909e+73
-2.1362044e+73
-2.1387984e+73
-2.1385964e+73
-2.1365052e+73
-2.1368115e+73
-2.1393726e+73
-2.1390917e+73
-2.1415935e+73
-2.1414425e+73
-2.1468542e+73
-2.1466469e+73
-2.125771e+73
-2.1257307e+73
-2.1281558e+73
-2.1281565e+73
-2.1283199e+73
-2.1258234e+73
-2.1257729e+73
-2.1282364e+73
-2.1332377e+73
-2.1307202e+73
-2.1306241e+73