/*--------------------------------*- C++ -*----------------------------------*\
  =========                 |
  \\      /  F ield         | OpenFOAM: The Open Source CFD Toolbox
   \\    /   O peration     | Website:  https://openfoam.org
    \\  /    A nd           | Version:  7
     \\/     M anipulation  |
\*---------------------------------------------------------------------------*/
FoamFile
{
    version     2.0;
    format      ascii;
    class       volVectorField;
    location    "6000";
    object      U;
}
// * * * * * * * * * * * * * * * * * * * * * * * * * * * * * * * * * * * * * //

dimensions      [0 1 -1 0 0 0 0];

internalField   nonuniform List<vector> 
34387
(
(-7.9964025e+35 3.4801256e+34 2.0814598e+34)
(-8.0288224e+35 7.507438e+34 3.4485256e+34)
(-7.4391256e+35 2.8673374e+34 -5.4420196e+34)
(-7.2782543e+35 4.4517252e+34 -6.6313306e+34)
(-1.0172947e+36 6.7173511e+34 -5.4978613e+33)
(-8.3439423e+35 6.7230244e+34 2.9226715e+34)
(-8.3106914e+35 3.007879e+34 1.6324795e+34)
(-7.6747625e+35 2.2680784e+34 -6.2705368e+34)
(-7.516558e+35 4.0457309e+34 -7.4500198e+34)
(-5.4851463e+35 3.5034299e+34 -3.8689432e+34)
(-5.51189e+35 4.1523245e+34 -4.1459031e+34)
(-6.6757944e+35 4.6334404e+34 -7.9467046e+33)
(-6.5905677e+35 2.8113649e+34 -2.0101079e+34)
(-6.4492143e+35 1.5246873e+34 -7.5418663e+34)
(-6.3295859e+35 2.9297042e+34 -9.0569743e+34)
(-6.7404393e+35 5.1803122e+34 -4.9595296e+33)
(-5.5079724e+35 3.5247815e+34 -3.7913175e+34)
(-5.5280188e+35 4.3447299e+34 -3.9784208e+34)
(-6.6534796e+35 2.509378e+34 -1.7051226e+34)
(-6.5004595e+35 2.1558007e+34 -7.4117577e+34)
(-6.4034046e+35 2.7826608e+34 -8.852659e+34)
(-8.3175544e+35 5.2529587e+34 3.9814493e+34)
(-7.0026284e+35 2.9580139e+34 1.0796379e+34)
(-6.174302e+35 5.1073171e+32 -4.7414216e+34)
(-6.2917388e+35 2.1574976e+33 -5.8098253e+34)
(-7.1621025e+35 -2.2808852e+33 3.3093314e+33)
(-7.1041675e+35 2.2304127e+34 7.8210707e+33)
(-6.211644e+35 -5.4570433e+33 -5.3369438e+34)
(-6.139086e+35 8.6222432e+33 -5.7880307e+34)
(-7.0460581e+35 -2.3996833e+33 1.1803586e+31)
(-8.2738587e+35 3.0578294e+34 3.8173569e+34)
(-6.1670075e+35 6.4122053e+34 -1.3009129e+35)
(-6.1277227e+35 3.8842481e+34 -1.3086621e+35)
(-8.6498144e+35 4.3939884e+34 -1.0329422e+35)
(-8.6152857e+35 5.3622014e+34 2.7198724e+34)
(-8.5743724e+35 1.8629388e+34 1.3457596e+34)
(-7.8823954e+35 9.3252032e+33 -6.8090896e+34)
(-7.7565177e+35 3.128296e+34 -7.9975789e+34)
(-7.4154504e+35 6.1997536e+34 2.4483944e+34)
(-7.3709127e+35 2.1335414e+34 2.5732758e+34)
(-7.5826279e+35 4.5628393e+34 -7.892952e+34)
(-7.4051201e+35 5.4442693e+34 -8.6030476e+34)
(-6.9043947e+35 4.7314988e+34 -7.2944994e+32)
(-6.7198438e+35 1.6776973e+34 -6.8922598e+34)
(-6.5878627e+35 2.2655069e+34 -8.8782698e+34)
(-6.8406675e+35 2.1670551e+34 -1.7051876e+34)
(-6.7908462e+35 2.8690511e+34 -2.1047243e+34)
(-6.8717839e+35 4.6615866e+34 -7.5172505e+33)
(-6.5172515e+35 2.725682e+34 -9.3993517e+34)
(-6.6334136e+35 1.5039986e+34 -7.7123521e+34)
(-7.3772621e+35 2.4844659e+34 1.1082957e+34)
(-6.4670985e+35 -6.2950367e+33 -6.1427953e+34)
(-6.4660994e+35 -2.3640259e+32 -6.8849212e+34)
(-8.5615748e+35 4.7512387e+34 3.3795172e+34)
(-7.3607729e+35 -7.2569732e+33 -9.5816298e+32)
(-8.5102209e+35 2.5993196e+34 2.8748987e+34)
(-7.327669e+35 2.1761229e+34 3.888009e+33)
(-6.4065192e+35 -6.0974789e+33 -6.3641384e+34)
(-6.3352347e+35 9.5345177e+33 -6.7136113e+34)
(-7.2725056e+35 -3.5789765e+33 -4.1608651e+33)
(-6.301424e+35 5.3341645e+34 -1.3630569e+35)
(-6.2448883e+35 2.866587e+34 -1.3759156e+35)
(-4.7853089e+35 2.6220637e+34 -8.6209849e+33)
(-4.7899314e+35 2.2353566e+34 -1.2231517e+34)
(-5.6387627e+35 4.2180461e+34 -1.2085582e+34)
(-4.7335779e+35 2.78576e+34 -3.7947048e+34)
(-4.7265562e+35 2.2862739e+34 -3.1782431e+34)
(-4.8121503e+35 2.7964463e+34 -8.3937023e+33)
(-5.6770259e+35 3.2036614e+34 -1.2760079e+34)
(-4.7463947e+35 2.8660791e+34 -3.6591057e+34)
(-4.7661607e+35 2.504018e+34 -3.3015207e+34)
(-5.4879972e+35 3.9672711e+34 -4.5156499e+34)
(-5.4725721e+35 3.2349092e+34 -4.1473085e+34)
(-4.7429645e+35 2.3308358e+34 -3.1762548e+34)
(-5.6023049e+35 4.0538116e+34 -1.5360954e+34)
(-4.726997e+35 2.8306871e+34 -3.7865942e+34)
(-5.609151e+35 3.5778423e+34 -1.5508041e+34)
(-5.4500902e+35 2.9231175e+34 -4.967877e+34)
(-5.4408692e+35 4.2829065e+34 -5.5835619e+34)
(-5.7257491e+35 3.6007001e+34 -1.3461443e+34)
(-5.5283139e+35 2.0508568e+34 -6.0598414e+34)
(-5.7694348e+35 2.5429289e+34 -1.4638825e+34)
(-5.5541949e+35 2.7618587e+34 -6.4125909e+34)
(-5.5082783e+35 3.1098324e+34 -6.6942692e+34)
(-5.5138239e+35 1.8296156e+34 -6.1071054e+34)
(-5.7152005e+35 3.4855384e+34 -1.1792381e+34)
(-5.7013036e+35 2.8476742e+34 -2.2167235e+34)
(-5.6844759e+35 4.7232413e+34 -1.3251804e+34)
(-5.7499731e+35 3.5759598e+34 -9.8796056e+33)
(-5.5932016e+35 4.3381504e+34 -4.1393247e+34)
(-5.5601648e+35 3.8049386e+34 -4.6282851e+34)
(-4.6384342e+35 2.3052438e+34 -2.5719969e+34)
(-4.8128831e+35 2.7117917e+34 -1.0041029e+34)
(-4.8191855e+35 2.4072312e+34 -1.2905782e+34)
(-4.7533769e+35 2.3863848e+34 -3.3575908e+34)
(-5.6187988e+35 4.197799e+34 -1.463129e+34)
(-4.7537379e+35 2.9352476e+34 -3.8176076e+34)
(-4.8534905e+35 2.7998332e+34 -6.6060385e+33)
(-4.8333013e+35 2.2516275e+34 -1.0524296e+34)
(-5.6764993e+35 3.6187096e+34 -1.5128563e+34)
(-4.7779293e+35 2.7384817e+34 -3.5277838e+34)
(-4.810969e+35 2.4790317e+34 -2.8816622e+34)
(-5.4648827e+35 2.9871504e+34 -5.3511456e+34)
(-5.5245035e+35 4.2730786e+34 -5.077187e+34)
(-5.6216119e+35 2.6653206e+34 -4.9997352e+34)
(-5.854027e+35 4.3601575e+34 -8.0170248e+33)
(-5.8954076e+35 3.006259e+34 -9.2058991e+33)
(-5.6597645e+35 3.2516124e+34 -5.3194574e+34)
(-5.6050705e+35 3.049339e+34 -6.0134048e+34)
(-5.5471513e+35 2.0332297e+34 -6.6183769e+34)
(-5.7227045e+35 3.5615812e+34 -2.2712018e+34)
(-5.7980469e+35 2.7763078e+34 -1.0886494e+34)
(-5.3944726e+35 2.9338182e+34 -1.1513222e+35)
(-7.2202408e+35 1.654395e+34 2.1726737e+34)
(-7.2781808e+35 1.5601345e+33 1.7972552e+34)
(-5.3356974e+35 1.0578619e+34 -1.1789973e+35)
(-6.0099064e+35 2.37032e+34 -2.3788169e+34)
(-5.7129756e+35 6.5708025e+32 -7.4051656e+34)
(-6.0708147e+35 1.4583657e+34 -2.4323012e+34)
(-5.758627e+35 1.2813989e+34 -7.773255e+34)
(-5.6257767e+35 -1.0698646e+34 -6.0805282e+34)
(-5.5689757e+35 -1.7862971e+34 -5.7642179e+34)
(-6.252246e+35 4.9293265e+33 -1.147928e+34)
(-6.2757594e+35 -1.152775e+34 -1.6901927e+34)
(-5.6943146e+35 -2.2090986e+34 -6.1115755e+34)
(-6.4249356e+35 1.3628175e+33 -9.6455601e+33)
(-6.430237e+35 -1.6104086e+34 -8.6636276e+33)
(-5.6923706e+35 -1.0062529e+34 -6.2384034e+34)
(-5.7571484e+35 2.1347596e+33 -7.3089008e+34)
(-5.9375017e+35 2.3856877e+34 -3.183166e+34)
(-5.9903821e+35 1.2740388e+34 -2.788136e+34)
(-5.8288777e+35 8.2271801e+33 -6.8486902e+34)
(-5.7234533e+35 7.5839488e+33 -7.3879271e+34)
(-5.7084248e+35 -2.324899e+33 -7.085098e+34)
(-5.9283906e+35 1.9893421e+34 -2.4546679e+34)
(-5.9594039e+35 7.7397683e+33 -2.6025845e+34)
(-5.5975071e+35 -2.4497056e+34 -6.0048926e+34)
(-5.613388e+35 -1.4212743e+34 -6.2841532e+34)
(-7.2128054e+35 2.1231531e+34 2.2989668e+34)
(-6.3334814e+35 -1.7034815e+34 -1.2792327e+34)
(-6.3280509e+35 -1.6316846e+32 -9.4357545e+33)
(-5.5659841e+35 -2.2987785e+34 -5.7741711e+34)
(-5.5403962e+35 -9.5548048e+33 -6.0432295e+34)
(-7.1209338e+35 1.3847809e+34 2.5343531e+34)
(-6.2994697e+35 -1.6351464e+34 -1.0324383e+34)
(-6.309194e+35 -2.4025534e+33 -7.7638622e+33)
(-5.8880583e+35 1.9274385e+34 -2.9799892e+34)
(-5.6820659e+35 -2.8974113e+33 -7.0695764e+34)
(-5.6888365e+35 7.8735635e+33 -7.3351853e+34)
(-5.8833855e+35 1.1671423e+34 -3.2508967e+34)
(-5.2186668e+35 5.5058767e+34 -1.1466159e+35)
(-5.2169263e+35 3.8559227e+34 -1.1143118e+35)
(-6.5709803e+35 7.0793187e+34 -6.7416959e+34)
(-6.5532549e+35 3.1503319e+34 -6.7498221e+34)
(-7.9418944e+35 6.5312607e+34 -1.6337351e+34)
(-8.2754162e+35 4.2674947e+34 1.7312892e+34)
(-8.8414887e+35 4.3086795e+34 -1.0688014e+35)
(-7.0392173e+35 3.8496885e+34 -1.7369747e+33)
(-7.0018717e+35 1.4252769e+34 -1.6443467e+34)
(-6.8732548e+35 1.0682467e+34 -6.944706e+34)
(-6.7691991e+35 1.6995637e+34 -9.0178566e+34)
(-7.0404875e+35 4.0842675e+34 -7.6074511e+33)
(-6.9516607e+35 2.3019842e+34 -1.8979151e+34)
(-6.7957424e+35 1.0266788e+34 -7.8120269e+34)
(-6.7021892e+35 2.4055762e+34 -9.2051331e+34)
(-7.5580715e+35 1.7735623e+34 8.2134141e+33)
(-6.6524507e+35 -1.6465272e+34 -6.6352136e+34)
(-6.6307568e+35 -6.3744327e+33 -7.4502582e+34)
(-7.5129162e+35 -1.284372e+34 -5.5737349e+33)
(-8.7738382e+35 3.3666841e+34 2.9574278e+34)
(-7.521496e+35 1.7519759e+34 1.3862439e+33)
(-6.5760884e+35 -1.1679327e+34 -7.1921828e+34)
(-6.5406226e+35 2.755353e+33 -7.4050034e+34)
(-7.4638875e+35 -7.5074021e+33 -5.9247217e+33)
(-8.7246621e+35 1.5826113e+34 2.3608765e+34)
(-6.403448e+35 3.747829e+34 -1.4213996e+35)
(-6.3360898e+35 1.4633648e+34 -1.4367482e+35)
(-5.8116349e+35 3.3407469e+34 -1.0824019e+34)
(-5.7482947e+35 4.5453887e+34 -1.0006702e+34)
(-5.5726636e+35 3.6217808e+34 -4.6847991e+34)
(-5.6245308e+35 4.217083e+34 -5.0948692e+34)
(-5.6884973e+35 2.8878709e+34 -6.3044472e+34)
(-5.6333515e+35 2.5000439e+34 -5.7299494e+34)
(-5.861429e+35 4.201611e+34 -9.3694785e+33)
(-5.9265783e+35 2.7339734e+34 -1.1744675e+34)
(-5.6686981e+35 3.0912714e+34 -6.3262505e+34)
(-5.6571286e+35 1.9302033e+34 -6.2187704e+34)
(-5.8885714e+35 3.6479844e+34 -9.3431603e+33)
(-5.9049806e+35 2.7789849e+34 -9.2264195e+33)
(-5.6221418e+35 4.2315397e+34 -4.8935513e+34)
(-5.6127774e+35 3.0870901e+34 -4.7454646e+34)
(-5.7463826e+35 4.2357596e+34 -2.0808996e+34)
(-5.7749086e+35 3.6855127e+34 -1.9377534e+34)
(-5.6993611e+35 4.6171021e+34 -1.5684394e+34)
(-5.7759995e+35 4.0783455e+34 -1.2880927e+34)
(-5.5206414e+35 3.3873247e+34 -5.4748562e+34)
(-5.5592596e+35 4.6586677e+34 -4.5277546e+34)
(-5.7623653e+35 3.5697052e+34 -1.5128229e+34)
(-5.7351321e+35 4.4603653e+34 -1.3063309e+34)
(-5.5688583e+35 4.2558633e+34 -5.4467871e+34)
(-5.5572087e+35 3.2950358e+34 -5.0399934e+34)
(-5.6100891e+35 2.1369873e+34 -6.6737329e+34)
(-5.793486e+35 3.7631922e+34 -2.2133073e+34)
(-5.8464705e+35 3.258476e+34 -2.1993125e+34)
(-5.6309832e+35 3.3053411e+34 -7.0666711e+34)
(-5.6657176e+35 2.9328021e+34 -6.4444549e+34)
(-5.6315653e+35 2.2192965e+34 -6.13445e+34)
(-5.8429184e+35 3.7933396e+34 -1.3714037e+34)
(-5.8822711e+35 2.6723659e+34 -1.5070184e+34)
(-5.8275752e+35 6.7015707e+33 -7.8888858e+34)
(-5.8226266e+35 -1.0563483e+33 -6.8069842e+34)
(-6.0569665e+35 2.3153878e+34 -2.071778e+34)
(-6.1206287e+35 8.8585703e+33 -2.5903243e+34)
(-7.446341e+35 1.1911486e+34 1.1873054e+34)
(-5.7379702e+35 -2.0217999e+34 -6.4785556e+34)
(-6.4987404e+35 1.3635627e+33 -6.5399466e+33)
(-5.7399861e+35 -1.4747533e+34 -6.7523729e+34)
(-6.3670179e+35 -1.6493066e+34 -2.1300432e+34)
(-5.8430624e+35 -1.1926435e+34 -6.9511964e+34)
(-5.8095307e+35 -2.36061e+34 -6.9173403e+34)
(-6.5493691e+35 9.8533836e+32 -1.3648196e+34)
(-6.5542244e+35 -1.6992084e+34 -1.4672299e+34)
(-7.4612633e+35 -2.001164e+33 6.5431078e+33)
(-5.5352904e+35 1.8294856e+34 -1.2555612e+35)
(-5.4713694e+35 2.1481747e+32 -1.287744e+35)
(-6.0716523e+35 2.067833e+34 -3.0174145e+34)
(-5.8721237e+35 -5.8105074e+32 -7.4181058e+34)
(-6.0860903e+35 1.1843016e+34 -3.0576142e+34)
(-5.8961676e+35 7.6118396e+33 -7.5357122e+34)
(-7.411816e+35 1.9102094e+34 1.1769689e+34)
(-7.3235655e+35 1.2252104e+34 1.324268e+34)
(-5.3822327e+35 4.4894875e+34 -1.248561e+35)
(-5.3782904e+35 2.881723e+34 -1.2265357e+35)
(-5.8613681e+35 8.9241778e+33 -7.5519265e+34)
(-5.8436144e+35 -1.5647566e+33 -7.1628938e+34)
(-6.0607485e+35 2.1674206e+34 -2.4444438e+34)
(-6.0972671e+35 9.7135575e+33 -2.6440455e+34)
(-5.7833279e+35 -1.2810568e+34 -7.0484496e+34)
(-5.7531944e+35 -2.4680837e+34 -6.7840786e+34)
(-6.4993272e+35 -1.0346914e+31 -1.1638224e+34)
(-6.5156407e+35 -1.6117521e+34 -1.5129792e+34)
(-5.7281547e+35 -2.0409654e+34 -6.4973795e+34)
(-6.5009619e+35 -8.0267283e+32 -8.1185861e+33)
(-6.3356245e+35 -1.5735549e+34 -1.5980172e+34)
(-5.641338e+35 -2.7228097e+33 -6.5914513e+34)
(-5.8431828e+35 4.3972224e+33 -7.7203387e+34)
(-5.8032432e+35 -1.4486043e+33 -7.4786847e+34)
(-6.0049649e+35 2.1914734e+34 -3.3493105e+34)
(-6.0293354e+35 1.0759153e+34 -3.4617341e+34)
(-6.7453496e+35 6.0848141e+34 -7.2759296e+34)
(-6.6936572e+35 2.219564e+34 -7.2862878e+34)
(-3.620853e+35 1.2703135e+34 -2.3708888e+34)
(-3.6115488e+35 7.9705834e+33 -2.4960209e+34)
(-3.8406692e+35 1.1235858e+34 -8.4927964e+33)
(-3.8451794e+35 7.3702997e+33 -1.0317631e+34)
(-3.8493825e+35 1.2130072e+34 -9.0988322e+33)
(-3.8428514e+35 8.8752133e+33 -1.0611767e+34)
(-3.609937e+35 1.3899531e+34 -2.5607002e+34)
(-3.6036764e+35 9.5522098e+33 -2.6488425e+34)
(-4.8216802e+35 2.9701659e+34 -1.9439519e+34)
(-4.7424118e+35 2.7196896e+34 -3.4807281e+34)
(-4.7518968e+35 3.2132088e+34 -3.8976181e+34)
(-4.8359345e+35 2.5818413e+34 -2.1991555e+34)
(-4.0141906e+35 1.7805223e+34 -1.6762333e+34)
(-4.0138689e+35 1.6119652e+34 -1.4624006e+34)
(-3.6222388e+35 1.463048e+34 -2.5077412e+34)
(-3.6162143e+35 9.6259765e+33 -2.5994027e+34)
(-3.8579765e+35 1.2030501e+34 -7.905047e+33)
(-3.8580598e+35 7.8379171e+33 -9.3871762e+33)
(-4.7652212e+35 3.1190606e+34 -3.7125133e+34)
(-4.7827233e+35 2.7539538e+34 -3.3181585e+34)
(-4.8627904e+35 3.180644e+34 -1.8454151e+34)
(-4.8569837e+35 2.658074e+34 -2.0674108e+34)
(-4.0204309e+35 1.7534646e+34 -1.7707434e+34)
(-4.0296536e+35 1.7025106e+34 -1.6091872e+34)
(-4.8072079e+35 3.2871245e+34 -3.9555391e+34)
(-4.835147e+35 2.9586147e+34 -3.2136826e+34)
(-4.9400755e+35 3.3406362e+34 -1.7000991e+34)
(-4.92785e+35 2.7972746e+34 -2.0172108e+34)
(-4.8001225e+35 3.4521518e+34 -4.0706248e+34)
(-4.7979708e+35 3.0212474e+34 -3.3753897e+34)
(-4.903768e+35 3.3396942e+34 -1.7829156e+34)
(-4.9109684e+35 2.902846e+34 -2.1653722e+34)
(-4.0225116e+35 1.6184477e+34 -1.441636e+34)
(-4.8415845e+35 2.9065858e+34 -1.8145651e+34)
(-4.7587432e+35 2.6173267e+34 -3.1611284e+34)
(-4.7366747e+35 3.1444923e+34 -3.9744057e+34)
(-4.8306401e+35 2.570829e+34 -2.1504501e+34)
(-3.9993943e+35 1.8075774e+34 -1.7491125e+34)
(-4.8464617e+35 3.1520254e+34 -1.6183723e+34)
(-4.7471128e+35 2.745002e+34 -2.9096806e+34)
(-4.8948755e+35 3.142603e+34 -1.8236243e+34)
(-4.7936501e+35 2.8017284e+34 -3.8305255e+34)
(-4.7853409e+35 3.3540234e+34 -4.3400998e+34)
(-4.8914505e+35 2.8207057e+34 -2.3584977e+34)
(-4.8910516e+35 3.4227366e+34 -2.0040848e+34)
(-4.7968909e+35 3.0528195e+34 -3.8233133e+34)
(-4.7817094e+35 3.5130361e+34 -4.2078745e+34)
(-4.966666e+35 3.4653927e+34 -2.0175619e+34)
(-4.8508207e+35 3.1013031e+34 -3.4152774e+34)
(-4.8445356e+35 3.6351578e+34 -4.3744123e+34)
(-4.9666002e+35 3.0350203e+34 -2.3133599e+34)
(-5.0501711e+35 3.4238707e+34 -1.9890755e+34)
(-4.9284228e+35 2.799982e+34 -4.3166696e+34)
(-4.9456573e+35 3.4883739e+34 -4.8404817e+34)
(-5.0583482e+35 3.0391888e+34 -2.6174873e+34)
(-5.0015023e+35 3.5595847e+34 -1.8946577e+34)
(-4.8607581e+35 3.0561555e+34 -3.2571787e+34)
(-4.85608e+35 3.5887859e+34 -4.3382438e+34)
(-4.9808989e+35 3.0170012e+34 -2.2898581e+34)
(-5.0728488e+35 3.431974e+34 -2.5316463e+34)
(-4.9590442e+35 2.7303831e+34 -4.5377219e+34)
(-4.9548356e+35 3.426062e+34 -4.70309e+34)
(-5.0754714e+35 3.0758203e+34 -2.6223946e+34)
(-4.9311916e+35 3.5222371e+34 -4.8194991e+34)
(-4.9158725e+35 2.7146044e+34 -4.4443535e+34)
(-5.0396766e+35 3.4447243e+34 -2.0818511e+34)
(-5.0522367e+35 3.2273644e+34 -2.8908926e+34)
(-4.9151505e+35 3.401736e+34 -4.9358324e+34)
(-4.9439302e+35 2.6662725e+34 -3.6820496e+34)
(-5.0662129e+35 3.244573e+34 -1.9711782e+34)
(-5.0458374e+35 2.9063454e+34 -2.4410153e+34)
(-4.9509551e+35 3.2247917e+34 -2.8385475e+34)
(-4.846963e+35 2.9148677e+34 -3.9097376e+34)
(-4.8300368e+35 3.5361232e+34 -4.4362411e+34)
(-4.9547022e+35 2.934277e+34 -2.999079e+34)
(-4.8459664e+35 3.6427858e+34 -4.3414483e+34)
(-4.8446852e+35 3.0157292e+34 -3.7605971e+34)
(-4.94985e+35 3.6081239e+34 -2.7935254e+34)
(-4.9515617e+35 3.2775443e+34 -2.9748471e+34)
(-4.9082079e+35 3.424434e+34 -1.7092346e+34)
(-4.9067379e+35 2.8683884e+34 -1.9387517e+34)
(-4.8350958e+35 3.144109e+34 -3.3863777e+34)
(-4.8287721e+35 3.4315184e+34 -3.7257956e+34)
(-4.9230827e+35 2.794698e+34 -1.8879096e+34)
(-4.9450304e+35 3.423696e+34 -1.5932348e+34)
(-4.8688269e+35 3.0091121e+34 -3.063135e+34)
(-4.8356233e+35 3.2452881e+34 -3.526159e+34)
(-4.8820452e+35 3.423521e+34 -3.7348094e+34)
(-4.9313239e+35 3.2885646e+34 -2.9119464e+34)
(-4.9935064e+35 2.9677935e+34 -1.8315516e+34)
(-5.0272756e+35 3.6590227e+34 -1.4196515e+34)
(-4.8963459e+35 3.738963e+34 -3.9277632e+34)
(-4.8878945e+35 3.4321931e+34 -3.6117926e+34)
(-4.9749834e+35 3.7438583e+34 -1.9762188e+34)
(-4.9795973e+35 3.2103485e+34 -2.1727733e+34)
(-3.7796619e+35 6.944221e+33 -1.9449686e+34)
(-3.7737109e+35 7.9680131e+33 -2.1751544e+34)
(-3.9001584e+35 6.0245835e+33 -1.3760287e+34)
(-3.9028983e+35 1.0101688e+34 -1.1352146e+34)
(-3.6626155e+35 1.38387e+34 -2.4109602e+34)
(-3.6541186e+35 9.0804557e+33 -2.5184528e+34)
(-3.8768595e+35 1.2576356e+34 -9.2884237e+33)
(-3.8781225e+35 8.6231674e+33 -1.0934299e+34)
(-3.8768597e+35 1.3215873e+34 -1.0144771e+34)
(-3.866287e+35 1.0115878e+34 -1.1595027e+34)
(-3.6463013e+35 1.4219508e+34 -2.6251163e+34)
(-3.6389124e+35 1.0513217e+34 -2.7189573e+34)
(-4.0631964e+35 1.6668292e+34 -1.5476704e+34)
(-4.8507218e+35 3.0029775e+34 -1.946776e+34)
(-4.7546036e+35 3.2877238e+34 -3.990354e+34)
(-4.7624014e+35 2.7239183e+34 -3.3545377e+34)
(-4.8526531e+35 2.7187248e+34 -2.1656564e+34)
(-4.0374778e+35 1.8592393e+34 -1.8201622e+34)
(-3.6208727e+35 1.3379818e+34 -2.3549099e+34)
(-3.6129671e+35 8.5738198e+33 -2.4735042e+34)
(-3.850309e+35 1.2481358e+34 -7.9542296e+33)
(-3.8513913e+35 8.2822795e+33 -9.5431933e+33)
(-3.8518355e+35 1.1388087e+34 -8.6968284e+33)
(-3.8465383e+35 8.5610126e+33 -1.0245448e+34)
(-3.6099541e+35 1.1932549e+34 -2.5237632e+34)
(-3.6031716e+35 8.4434817e+33 -2.6352245e+34)
(-4.9081232e+35 3.2374238e+34 -1.4999235e+34)
(-4.8124508e+35 2.8492017e+34 -2.7894604e+34)
(-4.79291e+35 3.1979181e+34 -3.7300117e+34)
(-4.8763261e+35 2.6700197e+34 -1.932203e+34)
(-4.0086519e+35 1.6325332e+34 -1.7284423e+34)
(-4.0297023e+35 1.6832188e+34 -1.4157285e+34)
(-4.8970816e+35 3.2687102e+34 -1.979979e+34)
(-4.7931942e+35 2.9101264e+34 -4.0457598e+34)
(-4.8040346e+35 3.5263011e+34 -4.4174909e+34)
(-4.9020907e+35 3.0088711e+34 -2.3772292e+34)
(-4.9570935e+35 3.5615499e+34 -1.8875954e+34)
(-4.8652264e+35 3.1925409e+34 -3.6108671e+34)
(-4.8466261e+35 3.5580459e+34 -3.9897231e+34)
(-4.9433414e+35 3.0555277e+34 -2.1910671e+34)
(-5.1829215e+35 4.1251379e+34 -1.6286291e+34)
(-5.0492712e+35 3.5341954e+34 -3.3510561e+34)
(-5.0361657e+35 3.9502587e+34 -4.3838557e+34)
(-5.1710252e+35 3.5532383e+34 -2.0870203e+34)
(-4.958293e+35 4.0315034e+34 -3.9216176e+34)
(-4.9610472e+35 3.7269318e+34 -3.0346406e+34)
(-5.0474501e+35 3.9438209e+34 -2.3977604e+34)
(-5.0555869e+35 3.4202932e+34 -2.6407449e+34)
(-5.0978795e+35 3.881359e+34 -1.7271954e+34)
(-4.9869036e+35 3.3851986e+34 -3.0130967e+34)
(-4.9430768e+35 3.6356883e+34 -3.8995243e+34)
(-5.0585922e+35 3.1778416e+34 -2.2058602e+34)
(-5.2025543e+35 3.844401e+34 -1.7455783e+34)
(-5.0707111e+35 3.1918131e+34 -3.4284257e+34)
(-5.0297097e+35 3.6050774e+34 -3.8004847e+34)
(-5.1731514e+35 3.2154556e+34 -1.9017854e+34)
(-4.9797903e+35 3.5863102e+34 -4.4730895e+34)
(-4.9995766e+35 3.0894231e+34 -3.3600924e+34)
(-5.1237798e+35 3.7276157e+34 -1.7263792e+34)
(-5.1026897e+35 3.1628229e+34 -2.1242887e+34)
(-4.9596039e+35 3.7605138e+34 -5.0160601e+34)
(-4.9457558e+35 2.7862729e+34 -4.8846962e+34)
(-5.0557816e+35 3.3190378e+34 -3.0456669e+34)
(-5.0709755e+35 3.2678709e+34 -3.0596464e+34)
(-4.9501126e+35 3.2794862e+34 -3.2276788e+34)
(-4.8599664e+35 2.9988385e+34 -4.4017184e+34)
(-4.8662932e+35 3.8248166e+34 -4.5891804e+34)
(-4.9676164e+35 3.1613228e+34 -3.159638e+34)
(-4.8939941e+35 3.6794108e+34 -3.9821062e+34)
(-4.9136905e+35 3.2658705e+34 -3.5111149e+34)
(-5.0176872e+35 3.8086722e+34 -2.4921189e+34)
(-5.0089655e+35 3.2904168e+34 -2.6674203e+34)
(-5.9990572e+35 3.7272366e+34 -7.15573e+34)
(-6.2963523e+35 -6.2506134e+33 1.2329895e+34)
(-6.3545616e+35 -1.4548147e+34 6.1091034e+33)
(-4.7508978e+35 -3.5900984e+33 -9.9189198e+34)
(-4.7301634e+35 -1.5193757e+34 -1.0349599e+35)
(-6.4225105e+35 -9.5268815e+33 5.9712241e+33)
(-6.4547306e+35 -6.1901592e+33 6.3638034e+33)
(-4.7673947e+35 1.824433e+34 -1.04534e+35)
(-4.7716241e+35 7.7548555e+33 -1.0317295e+35)
(-5.9340897e+35 7.7009736e+33 -7.384256e+34)
(-5.2926321e+35 3.5447258e+34 -1.9376933e+34)
(-5.1336426e+35 2.6258418e+34 -3.8076195e+34)
(-5.1101704e+35 3.3567483e+34 -5.1399182e+34)
(-5.2693077e+35 3.1282509e+34 -2.4295092e+34)
(-5.41518e+35 2.3505372e+34 -2.0200501e+34)
(-5.2039369e+35 7.7007716e+33 -5.5032758e+34)
(-5.2188521e+35 2.0118496e+34 -6.1573921e+34)
(-5.4111686e+35 2.1457479e+34 -3.0481953e+34)
(-5.3134165e+35 3.4274067e+34 -2.0303814e+34)
(-5.123668e+35 2.3840405e+34 -4.0012393e+34)
(-5.2706839e+35 3.0386588e+34 -2.544364e+34)
(-5.1136133e+35 3.3084107e+34 -5.2768305e+34)
(-5.435841e+35 2.2323568e+34 -3.0388679e+34)
(-5.2368236e+35 7.6671474e+33 -6.0673907e+34)
(-5.2427041e+35 2.282462e+34 -6.2128957e+34)
(-5.4261105e+35 2.3320396e+34 -3.1957462e+34)
(-5.1898694e+35 -1.1049717e+34 -8.0228321e+34)
(-5.158663e+35 -2.5771592e+34 -8.1604005e+34)
(-5.6710906e+35 -1.0001928e+34 -2.911283e+34)
(-5.6599112e+35 -1.1828979e+34 -3.219099e+34)
(-5.1028504e+35 -1.479972e+34 -8.028894e+34)
(-5.042358e+35 -2.5156001e+34 -8.0041957e+34)
(-5.5794022e+35 -7.8233065e+33 -2.5981008e+34)
(-5.590937e+35 -1.5209137e+34 -3.1850251e+34)
(-5.4839979e+35 4.4403517e+33 -3.6364866e+34)
(-5.1978554e+35 -9.7052811e+33 -6.5205289e+34)
(-5.2410335e+35 1.7420563e+33 -6.7903195e+34)
(-5.5162762e+35 4.5569369e+33 -3.8917721e+34)
(-5.3009633e+35 6.0137537e+33 -6.8660402e+34)
(-5.2796208e+35 -1.1189919e+34 -6.7188197e+34)
(-5.5471338e+35 6.047836e+33 -3.8752358e+34)
(-5.5536356e+35 9.2566501e+33 -3.9623801e+34)
(-5.138697e+35 -1.2867035e+34 -8.1377438e+34)
(-5.1781665e+35 -2.8592962e+34 -7.841255e+34)
(-5.7490704e+35 -8.3780738e+33 -2.3521625e+34)
(-5.5959966e+35 -1.4900825e+34 -3.21984e+34)
(-5.4912324e+35 7.6699246e+33 -3.642979e+34)
(-5.2599981e+35 -7.8882864e+33 -6.2773989e+34)
(-5.2023594e+35 4.7122175e+33 -7.035208e+34)
(-5.4704567e+35 7.9818929e+33 -4.1292782e+34)
(-5.528786e+35 7.1207078e+33 -2.6119771e+34)
(-5.2641857e+35 -1.105985e+34 -5.8492436e+34)
(-5.5667643e+35 2.4693967e+33 -2.7313353e+34)
(-5.2888915e+35 -1.4333144e+33 -6.1856151e+34)
(-5.7738005e+35 -1.3065585e+34 -2.0330366e+34)
(-5.1935123e+35 -2.9432038e+34 -7.6894747e+34)
(-5.5948296e+35 -1.9297095e+34 -2.8976443e+34)
(-5.1220773e+35 -1.3596402e+34 -8.080311e+34)
(-5.3439118e+35 2.2432292e+34 -3.3175669e+34)
(-5.1748334e+35 1.0461089e+34 -5.5281163e+34)
(-5.1757346e+35 2.3549135e+34 -6.3119827e+34)
(-5.3530454e+35 2.2799593e+34 -3.6711853e+34)
(-5.0622525e+35 3.3815131e+34 -5.5254719e+34)
(-5.0519853e+35 2.2709464e+34 -4.7390879e+34)
(-5.1746958e+35 2.9435894e+34 -3.5120727e+34)
(-5.1920105e+35 2.9397514e+34 -3.5804787e+34)
(-5.2239975e+35 3.3446131e+34 -2.0892766e+34)
(-5.0749696e+35 2.2914646e+34 -4.3031317e+34)
(-5.0900084e+35 3.1314019e+34 -4.9022657e+34)
(-5.2259794e+35 2.9034653e+34 -2.8463294e+34)
(-5.3613592e+35 2.289753e+34 -2.7962051e+34)
(-5.1862758e+35 1.033729e+34 -4.6280165e+34)
(-5.2210034e+35 1.7392813e+34 -4.9077708e+34)
(-5.3848469e+35 1.9199061e+34 -2.9221787e+34)
(-5.1809551e+35 1.704925e+34 -5.8775835e+34)
(-5.1662035e+35 3.8684238e+33 -5.6521226e+34)
(-5.348214e+35 1.7436707e+34 -2.9415978e+34)
(-5.3669379e+35 1.7059303e+34 -2.9912904e+34)
(-5.1731469e+35 1.7502836e+34 -5.898756e+34)
(-5.1425118e+35 3.9393901e+33 -5.7024271e+34)
(-5.3235383e+35 1.7689832e+34 -3.037701e+34)
(-5.3516553e+35 1.7657726e+34 -3.0385488e+34)
(-5.1646004e+35 2.8259224e+34 -3.3191287e+34)
(-5.0443655e+35 2.0358862e+34 -4.8418764e+34)
(-5.0550525e+35 3.0193921e+34 -5.1191504e+34)
(-5.1866402e+35 2.6116991e+34 -3.3112966e+34)
(-5.0595328e+35 2.8007695e+34 -5.0059847e+34)
(-5.0593623e+35 1.8100409e+34 -4.7969604e+34)
(-5.1923962e+35 2.8987459e+34 -3.2562973e+34)
(-5.2042399e+35 2.6095617e+34 -3.1737547e+34)
(-6.3430428e+35 -8.1282766e+33 9.7213553e+33)
(-5.0779564e+35 -3.0846417e+34 -7.7614414e+34)
(-5.6546278e+35 -1.2943334e+34 -2.2953795e+34)
(-5.5312195e+35 -1.8942307e+34 -2.8916612e+34)
(-5.0536666e+35 -1.7300865e+34 -7.9552609e+34)
(-6.3524639e+35 -1.4332381e+34 6.0267447e+33)
(-5.1500335e+35 -3.0609647e+34 -7.5996618e+34)
(-5.7043805e+35 -1.4843491e+34 -2.243343e+34)
(-5.5629176e+35 -1.8224924e+34 -2.7684269e+34)
(-5.090122e+35 -1.2896763e+34 -7.8172453e+34)
(-4.7187047e+35 8.7628544e+33 -1.0064766e+35)
(-4.6803873e+35 -3.0534542e+33 -1.0155166e+35)
(-5.2703005e+35 -1.0332769e+33 -6.1465613e+34)
(-5.2196101e+35 -1.4565856e+34 -6.1628007e+34)
(-5.4631829e+35 1.7266522e+33 -3.5992898e+34)
(-5.4908532e+35 2.8919728e+33 -3.6328252e+34)
(-5.2468913e+35 -3.0324556e+32 -6.1911428e+34)
(-5.1876074e+35 -1.29337e+34 -6.1987474e+34)
(-5.4320912e+35 9.5016017e+32 -3.6052308e+34)
(-5.4722598e+35 2.093558e+33 -3.6538032e+34)
(-6.3389099e+35 -3.0021901e+33 1.2418275e+34)
(-5.0849827e+35 -3.1284326e+34 -7.3496793e+34)
(-5.646631e+35 -1.3264251e+34 -2.0309763e+34)
(-5.5051064e+35 -1.9415204e+34 -2.7304924e+34)
(-5.0254591e+35 -1.3205805e+34 -7.7786974e+34)
(-6.2491953e+35 -3.475901e+33 1.3757853e+34)
(-5.0704682e+35 -2.954717e+34 -7.305607e+34)
(-5.6333303e+35 -1.4364663e+34 -2.0151114e+34)
(-5.4826151e+35 -1.9622214e+34 -2.6989222e+34)
(-4.9826263e+35 -9.8894369e+33 -7.8325903e+34)
(-4.5759301e+35 3.1060563e+34 -9.8614368e+34)
(-4.5881898e+35 2.4592837e+34 -9.5464041e+34)
(-5.2028218e+35 -3.3944562e+33 -6.0919101e+34)
(-5.1475159e+35 -1.2673286e+34 -6.0535052e+34)
(-5.4095644e+35 2.5969436e+33 -3.5063059e+34)
(-5.4447843e+35 5.0823366e+32 -3.5742339e+34)
(-5.2122431e+35 1.8811696e+32 -6.2507894e+34)
(-5.1725149e+35 -1.2524782e+34 -6.0378187e+34)
(-5.4203729e+35 1.6998807e+33 -3.5124273e+34)
(-5.451323e+35 2.3988739e+33 -3.6752048e+34)
(-5.1728935e+35 2.7196897e+34 -2.2067072e+34)
(-5.0171458e+35 1.7440686e+34 -4.8808163e+34)
(-5.0231847e+35 2.9576541e+34 -5.4985409e+34)
(-5.1682557e+35 2.5639184e+34 -3.2742919e+34)
(-5.3036734e+35 1.6547958e+34 -3.3596061e+34)
(-5.1245136e+35 4.8696144e+33 -5.6412317e+34)
(-5.1469896e+35 1.7814154e+34 -5.9904455e+34)
(-5.3227226e+35 1.7009514e+34 -3.5161699e+34)
(-5.1387731e+35 1.4724067e+34 -5.8375825e+34)
(-5.1156835e+35 4.7176778e+33 -5.5585688e+34)
(-5.2971601e+35 1.7737956e+34 -3.2999808e+34)
(-5.320898e+35 1.6246799e+34 -3.3474432e+34)
(-5.145988e+35 2.9432491e+34 -3.4281083e+34)
(-5.0160284e+35 1.8449567e+34 -4.9484961e+34)
(-5.0334388e+35 2.778781e+34 -5.1622912e+34)
(-5.1689113e+35 2.7391635e+34 -3.3931266e+34)
(-5.8247105e+35 5.9031864e+34 -7.1960257e+34)
(-5.8617906e+35 2.9975985e+34 -6.9445016e+34)
(-6.344607e+35 7.2729031e+34 -1.2737596e+34)
(-6.3422968e+35 2.6797284e+34 -1.2599386e+34)
(-7.9102507e+35 5.492468e+34 9.1464059e+33)
(-6.3498301e+35 2.4198797e+34 4.9829378e+34)
(-6.4808844e+35 5.0430802e+34 -3.9520005e+34)
(-6.5581932e+35 2.6060409e+34 -3.0613364e+34)
(-6.3363734e+35 3.2305473e+34 6.2497059e+34)
(-6.818489e+35 4.8388968e+34 -5.8040614e+33)
(-6.7768764e+35 4.5466772e+34 -2.0794769e+33)
(-8.4304747e+35 4.3620747e+34 1.7426613e+34)
(-6.8952571e+35 2.2176479e+34 9.1684136e+34)
(-6.8951265e+35 7.8350083e+34 9.3362431e+34)
(-9.008288e+35 3.8263982e+34 -1.0955443e+35)
(-5.882867e+35 4.4231146e+34 -6.4725606e+33)
(-5.8829142e+35 3.1734918e+34 -1.1230539e+34)
(-5.7149052e+35 3.590824e+34 -3.5715702e+34)
(-5.6936276e+35 3.9575703e+34 -5.064092e+34)
(-5.8560659e+35 4.0349243e+34 -1.4186144e+34)
(-5.9261036e+35 3.362396e+34 -8.673285e+33)
(-5.6868929e+35 4.0391201e+34 -4.1941793e+34)
(-5.6689464e+35 2.8510609e+34 -5.3900094e+34)
(-6.0044089e+35 4.0128841e+34 -3.3648681e+33)
(-5.7416109e+35 2.4933563e+34 -4.6266165e+34)
(-5.7833881e+35 2.7059166e+34 -6.1650772e+34)
(-5.995718e+35 2.4124807e+34 -1.1986042e+34)
(-5.7722264e+35 1.7016571e+34 -6.533974e+34)
(-5.9631561e+35 3.2151268e+34 -1.9479363e+34)
(-5.9846208e+35 2.556056e+34 -1.8172795e+34)
(-5.7782244e+35 2.7419079e+34 -6.6108005e+34)
(-5.8706718e+35 3.3169229e+34 -1.3702061e+34)
(-5.8286031e+35 4.1174564e+34 -1.4702015e+34)
(-5.6410545e+35 3.1151582e+34 -5.2070946e+34)
(-5.663508e+35 4.0955929e+34 -5.4023627e+34)
(-5.8015586e+35 4.4052499e+34 -1.4982016e+34)
(-5.8628554e+35 3.8224398e+34 -1.0108214e+34)
(-5.6129061e+35 4.471318e+34 -4.3175302e+34)
(-5.6051439e+35 3.1781102e+34 -5.4359349e+34)
(-5.7624325e+35 2.7918004e+34 -6.4829876e+34)
(-5.7283085e+35 2.0241975e+34 -6.2022553e+34)
(-5.9521904e+35 3.6719454e+34 -1.3853914e+34)
(-5.9884488e+35 2.4989077e+34 -1.409148e+34)
(-5.701007e+35 1.9653887e+34 -6.6474552e+34)
(-5.895194e+35 3.5327483e+34 -2.0895386e+34)
(-5.9146265e+35 3.047566e+34 -1.9302557e+34)
(-5.694473e+35 3.1970849e+34 -6.8096589e+34)
(-6.1661052e+35 2.2952277e+34 -1.9939949e+34)
(-5.9426189e+35 1.0455591e+33 -7.0552011e+34)
(-5.9893375e+35 5.7126661e+33 -7.2907848e+34)
(-6.216964e+35 7.6449884e+33 -2.3438285e+34)
(-5.9525955e+35 -1.8481593e+34 -7.2651856e+34)
(-5.88936e+35 -2.5712528e+34 -7.0167904e+34)
(-6.6194195e+35 6.6685147e+32 -1.2469446e+34)
(-6.6365532e+35 -2.0621687e+34 -1.7019896e+34)
(-7.5722953e+35 -1.8780736e+33 4.4043272e+33)
(-6.6938948e+35 -2.2626341e+33 -1.4897198e+34)
(-5.9373909e+35 -2.6103814e+34 -7.5677867e+34)
(-5.98289e+35 -1.4584215e+34 -7.5405425e+34)
(-6.6756173e+35 -1.9182808e+34 -1.9957192e+34)
(-7.5974886e+35 -1.2532941e+34 -1.5002593e+33)
(-6.0416116e+35 -2.5942072e+33 -7.061426e+34)
(-6.0232526e+35 4.2045522e+33 -7.693983e+34)
(-6.2074739e+35 1.8394733e+34 -3.0049852e+34)
(-6.1965087e+35 7.6187184e+33 -3.2963157e+34)
(-5.6202758e+35 9.8670202e+32 -1.326717e+35)
(-5.5621886e+35 -1.607463e+34 -1.3662998e+35)
(-5.9520651e+35 -2.9784184e+33 -7.4928281e+34)
(-6.1730893e+35 1.9136127e+34 -2.5638429e+34)
(-5.9748459e+35 7.4065135e+33 -7.7283208e+34)
(-6.2069503e+35 8.0407627e+33 -2.6866734e+34)
(-5.9279067e+35 -1.4984409e+34 -7.6183851e+34)
(-5.8909135e+35 -2.5745781e+34 -7.4268817e+34)
(-6.6148996e+35 -5.3407096e+32 -1.7078357e+34)
(-7.592104e+35 9.8952852e+33 2.6045821e+33)
(-6.6312124e+35 -1.706311e+34 -2.004832e+34)