/*--------------------------------*- C++ -*----------------------------------*\
  =========                 |
  \\      /  F ield         | OpenFOAM: The Open Source CFD Toolbox
   \\    /   O peration     | Website:  https://openfoam.org
    \\  /    A nd           | Version:  7
     \\/     M anipulation  |
\*---------------------------------------------------------------------------*/
FoamFile
{
    version     2.0;
    format      ascii;
    class       volVectorField;
    location    "6000";
    object      UMean;
}
// * * * * * * * * * * * * * * * * * * * * * * * * * * * * * * * * * * * * * //

dimensions      [0 1 -1 0 0 0 0];

internalField   nonuniform List<vector> 
34387
(
(-9.5939085e+33 6.8420874e+31 -1.8406045e+32)
(-9.6516889e+33 2.2605768e+32 -1.5263087e+32)
(-8.836177e+33 1.1382938e+32 -4.8096331e+32)
(-8.8200387e+33 7.920897e+30 -4.7956884e+32)
(-1.2109869e+34 4.7117353e+32 -1.8161596e+32)
(-9.7192879e+33 2.6893428e+32 -1.4873795e+32)
(-9.6955864e+33 1.2148178e+32 -1.8511855e+32)
(-8.9309454e+33 1.5940269e+32 -4.9046615e+32)
(-8.8931258e+33 7.0963821e+31 -5.0235044e+32)
(-7.5746333e+33 2.5725325e+31 -3.5769682e+32)
(-7.5905266e+33 3.7592168e+31 -3.6414592e+32)
(-8.7539518e+33 8.906101e+31 -3.8191555e+32)
(-8.6396073e+33 4.1515918e+31 -3.9013259e+32)
(-8.4830903e+33 6.6242596e+31 -5.3544602e+32)
(-8.462782e+33 3.0940113e+31 -5.2141513e+32)
(-8.7637679e+33 1.4212448e+32 -3.7853967e+32)
(-7.5760752e+33 2.7715571e+31 -3.7956743e+32)
(-7.5924324e+33 4.3574214e+31 -3.5664585e+32)
(-8.6698287e+33 7.7565704e+31 -3.7867701e+32)
(-8.4979104e+33 1.1178881e+32 -5.332589e+32)
(-8.476574e+33 6.1993503e+31 -5.1274379e+32)
(-9.7874804e+33 2.1110785e+32 -2.8591287e+32)
(-8.7204768e+33 1.3177063e+32 -5.0840539e+32)
(-7.8722903e+33 6.4480462e+31 -7.5848193e+32)
(-8.0230094e+33 -1.8358249e+31 -7.0146047e+32)
(-8.75927e+33 6.3892822e+31 -4.5582462e+32)
(-8.7759339e+33 7.8164262e+31 -4.6862919e+32)
(-7.9962283e+33 1.2264545e+31 -7.5992424e+32)
(-7.9715574e+33 -4.2101283e+31 -7.416719e+32)
(-8.7196315e+33 2.0213197e+31 -4.7871663e+32)
(-9.7197026e+33 3.527444e+31 -2.8232054e+32)
(-8.6321473e+33 1.4355603e+32 -8.576752e+32)
(-8.5815706e+33 -1.8383017e+31 -8.2772066e+32)
(-9.3695649e+33 9.1012271e+31 -8.4914252e+32)
(-9.8002664e+33 3.034966e+32 -1.2702358e+32)
(-9.7687049e+33 1.5358318e+32 -1.7666262e+32)
(-9.0337705e+33 1.7383357e+32 -4.8757747e+32)
(-8.9828731e+33 1.1271655e+32 -5.097769e+32)
(-8.3046575e+33 2.2689461e+32 -2.0021846e+31)
(-8.2987931e+33 1.1627006e+32 1.4227417e+31)
(-8.3006456e+33 1.726627e+32 -2.4236948e+32)
(-8.1530114e+33 1.3692485e+32 -2.302775e+32)
(-8.7668269e+33 1.880555e+32 -3.4503025e+32)
(-8.5487442e+33 1.5978846e+32 -4.7587908e+32)
(-8.5116662e+33 8.7845042e+31 -5.1715012e+32)
(-8.6687046e+33 1.0836979e+32 -3.9555466e+32)
(-8.7179112e+33 8.2852636e+31 -3.9359642e+32)
(-8.7890085e+33 1.3702541e+32 -3.8708918e+32)
(-8.5177805e+33 6.7907696e+31 -5.3961905e+32)
(-8.5236907e+33 1.1602208e+32 -5.4132902e+32)
(-8.8163361e+33 1.7842338e+32 -4.2026235e+32)
(-7.973261e+33 1.0188584e+32 -7.4134191e+32)
(-8.0208784e+33 1.3814698e+31 -7.325142e+32)
(-9.8805605e+33 2.5751396e+32 -3.0068246e+32)
(-8.7989635e+33 8.9456385e+31 -4.6644745e+32)
(-9.8206684e+33 9.1328653e+31 -3.1484421e+32)
(-8.8351431e+33 1.2915927e+32 -4.7928903e+32)
(-8.007672e+33 5.7455776e+31 -7.8002646e+32)
(-7.9825188e+33 1.7208478e+31 -7.5853489e+32)
(-8.7950875e+33 7.0785766e+31 -4.9459702e+32)
(-8.6830363e+33 1.6729917e+32 -9.3010351e+32)
(-8.6338552e+33 3.409528e+30 -9.0546094e+32)
(-6.5499482e+33 -8.3409746e+30 -2.4470702e+32)
(-6.5701255e+33 -9.3420399e+30 -2.5681406e+32)
(-7.7053373e+33 3.5772109e+31 -3.1810814e+32)
(-6.6327057e+33 -1.0624234e+31 -3.2506388e+32)
(-6.6121402e+33 -1.2816824e+31 -3.1510965e+32)
(-6.5773584e+33 -1.1078449e+31 -2.5914682e+32)
(-7.7301443e+33 4.52144e+31 -3.1959872e+32)
(-6.6262732e+33 -8.1199981e+30 -3.3684923e+32)
(-6.6407058e+33 -1.4366651e+31 -3.2685487e+32)
(-7.6401339e+33 5.8623058e+31 -4.081069e+32)
(-7.6275635e+33 2.110665e+31 -4.0153439e+32)
(-6.6253109e+33 -1.7844952e+31 -3.1758593e+32)
(-7.7022304e+33 2.0879871e+31 -3.2262636e+32)
(-6.6343863e+33 -1.3102345e+31 -3.3276513e+32)
(-7.6707798e+33 2.5637862e+31 -3.1886928e+32)
(-7.6474622e+33 1.614166e+31 -3.8338007e+32)
(-7.6027748e+33 3.8996241e+31 -3.9080747e+32)
(-7.7979152e+33 3.7360593e+31 -4.0768962e+32)
(-7.7684905e+33 2.5592881e+31 -4.8745639e+32)
(-7.8197171e+33 6.6473929e+31 -4.0833627e+32)
(-7.7833975e+33 7.2384083e+31 -4.9296818e+32)
(-7.7433582e+33 4.740851e+31 -4.7231229e+32)
(-7.7594903e+33 5.4818652e+30 -4.8450248e+32)
(-7.8054622e+33 2.1763528e+31 -3.8730375e+32)
(-7.7369456e+33 4.2132264e+31 -4.1099676e+32)
(-7.7653208e+33 6.6816011e+31 -3.23302e+32)
(-7.8163768e+33 7.2828332e+31 -3.0559651e+32)
(-7.7500049e+33 9.1669438e+31 -3.8359201e+32)
(-7.7444589e+33 6.0743578e+31 -3.815313e+32)
(-6.3725494e+33 -9.0790908e+30 -2.6095372e+32)
(-6.5394271e+33 -9.9701075e+30 -2.7377377e+32)
(-6.5608064e+33 5.8094733e+30 -2.7838979e+32)
(-6.5990042e+33 -1.3726299e+31 -3.4504196e+32)
(-7.7007458e+33 4.1498916e+31 -3.4172063e+32)
(-6.6202975e+33 7.708232e+30 -3.4616751e+32)
(-6.5748939e+33 3.5696527e+30 -2.4625446e+32)
(-6.5720547e+33 -6.9564631e+30 -2.5566248e+32)
(-7.7229049e+33 4.4456917e+31 -3.1731538e+32)
(-6.6338353e+33 -9.1424188e+30 -3.2270168e+32)
(-6.6357469e+33 9.3698992e+29 -3.1267718e+32)
(-7.6426835e+33 3.9101236e+31 -4.0931059e+32)
(-7.6786523e+33 5.6451785e+31 -3.7762818e+32)
(-7.8547388e+33 5.6879787e+31 -4.9443915e+32)
(-7.9094357e+33 7.2539141e+31 -3.8634286e+32)
(-7.9491467e+33 1.1616588e+32 -3.8164461e+32)
(-7.8846361e+33 1.3515789e+32 -4.9160462e+32)
(-7.8064327e+33 7.6864958e+31 -4.7995426e+32)
(-7.7885915e+33 4.9963847e+31 -4.960541e+32)
(-7.7787264e+33 4.9928878e+31 -4.2995468e+32)
(-7.843122e+33 6.7327931e+31 -3.7699965e+32)
(-7.7052695e+33 -3.8655058e+31 -4.7792436e+32)
(-8.6979154e+33 8.6290524e+31 -3.3896699e+32)
(-8.7949507e+33 1.2145583e+31 -3.3335239e+32)
(-7.6945748e+33 -6.2859835e+31 -4.656606e+32)
(-8.0554089e+33 7.4378964e+31 -4.97994e+32)
(-7.9503402e+33 5.8178663e+31 -6.489626e+32)
(-8.1047376e+33 1.5685042e+32 -4.8114345e+32)
(-7.9811464e+33 1.4421614e+32 -6.4768219e+32)
(-7.7604922e+33 7.2618701e+31 -8.4588072e+32)
(-7.7066681e+33 2.5353228e+31 -8.6877481e+32)
(-8.2494002e+33 7.449264e+31 -5.8086064e+32)
(-8.2955159e+33 1.5401974e+32 -5.7407123e+32)
(-7.8167985e+33 1.8131094e+31 -8.3494106e+32)
(-8.247602e+33 6.9168692e+31 -5.0430607e+32)
(-8.2798221e+33 7.4525956e+31 -4.546821e+32)
(-7.804473e+33 4.3440354e+31 -8.2360855e+32)
(-7.9190793e+33 6.6033744e+31 -6.0513541e+32)
(-7.9639348e+33 5.7038249e+31 -5.1785437e+32)
(-8.0103109e+33 8.9957744e+31 -4.7070351e+32)
(-7.9261341e+33 8.5384572e+31 -5.9383806e+32)
(-7.9041843e+33 6.5744526e+31 -6.0092514e+32)
(-7.8975658e+33 1.6128515e+31 -5.9279301e+32)
(-7.9362464e+33 3.2957214e+31 -5.0261282e+32)
(-7.9626545e+33 8.3090009e+31 -4.9869401e+32)
(-7.7849991e+33 -2.7808194e+31 -8.5138479e+32)
(-7.7878275e+33 1.476147e+31 -8.4611733e+32)
(-8.7937181e+33 2.9270172e+31 -3.5141176e+32)
(-8.2073261e+33 6.544031e+31 -5.165791e+32)
(-8.1946706e+33 2.4607889e+31 -5.1542993e+32)
(-7.7517268e+33 -3.8138544e+31 -8.492734e+32)
(-7.7342032e+33 1.2394236e+30 -8.4958131e+32)
(-8.7337946e+33 -6.8625442e+30 -3.297933e+32)
(-8.1616372e+33 2.5596292e+31 -4.9918404e+32)
(-8.1774044e+33 -9.7650029e+30 -5.0992947e+32)
(-7.9432977e+33 7.9405793e+29 -4.9504517e+32)
(-7.8739405e+33 -6.7701122e+30 -6.0326062e+32)
(-7.8668408e+33 3.7528033e+31 -5.825134e+32)
(-7.9070234e+33 5.1277563e+31 -4.9900152e+32)
(-7.664013e+33 -3.5545697e+31 -4.708938e+32)
(-7.661359e+33 -3.2197557e+31 -4.3684235e+32)
(-8.1879201e+33 -4.8141971e+31 -8.4612862e+32)
(-8.1232312e+33 3.6191802e+31 -8.2833261e+32)
(-1.0010118e+34 2.4583189e+32 -6.0856411e+31)
(-8.9259839e+33 5.848773e+31 2.5451319e+32)
(-9.4610566e+33 1.1955132e+32 -8.9635479e+32)
(-8.8216667e+33 2.464054e+32 -3.3028268e+32)
(-8.7608457e+33 1.5542544e+32 -3.7385777e+32)
(-8.6034532e+33 2.2139457e+32 -4.6006802e+32)
(-8.5718135e+33 1.3233938e+32 -5.2161197e+32)
(-8.8467606e+33 1.859366e+32 -3.7948079e+32)
(-8.7464738e+33 1.3547513e+32 -3.8611726e+32)
(-8.5713985e+33 1.6315091e+32 -5.3808257e+32)
(-8.5580668e+33 1.2377349e+32 -5.2851134e+32)
(-8.8983582e+33 2.2281921e+32 -3.9826149e+32)
(-8.0619786e+33 1.2966312e+32 -7.2271284e+32)
(-8.062773e+33 5.4129701e+31 -7.4112574e+32)
(-8.8567894e+33 1.2492414e+32 -4.750364e+32)
(-9.9468225e+33 2.5418133e+32 -3.1594158e+32)
(-8.8832653e+33 1.7147537e+32 -4.8075291e+32)
(-8.0205544e+33 1.0312934e+32 -7.9526596e+32)
(-8.009712e+33 4.0703191e+31 -7.737127e+32)
(-8.8294445e+33 1.0861703e+32 -4.9354289e+32)
(-9.9263566e+33 1.1401746e+32 -3.2564496e+32)
(-8.7174975e+33 1.7083322e+32 -9.8150385e+32)
(-8.6808924e+33 1.098638e+31 -9.6681001e+32)
(-7.8030905e+33 1.0542864e+32 -2.9679154e+32)
(-7.7512902e+33 1.186398e+32 -2.8689155e+32)
(-7.6981298e+33 1.0944219e+32 -3.5131019e+32)
(-7.7337194e+33 1.1637967e+32 -3.8305968e+32)
(-7.8522736e+33 1.3248172e+32 -4.8039977e+32)
(-7.8048211e+33 1.04909e+32 -4.4269626e+32)
(-7.8433873e+33 1.1635674e+32 -3.6299643e+32)
(-7.8903848e+33 1.2390488e+32 -3.8972901e+32)
(-7.8047002e+33 1.1188657e+32 -4.7488018e+32)
(-7.8171251e+33 6.5204017e+31 -4.916456e+32)
(-7.8795697e+33 7.5738982e+31 -3.8013025e+32)
(-7.8689654e+33 1.0260515e+32 -3.6327542e+32)
(-7.7050473e+33 8.8566142e+31 -3.5773182e+32)
(-7.7189127e+33 6.8770941e+31 -3.7303793e+32)
(-7.7304075e+33 6.966918e+31 -3.3849447e+32)
(-7.7189261e+33 7.6950479e+31 -3.2271844e+32)
(-7.7380852e+33 6.1321341e+31 -3.2825743e+32)
(-7.7808523e+33 6.9178235e+31 -3.0038473e+32)
(-7.6643822e+33 5.8828381e+31 -3.9961689e+32)
(-7.6843203e+33 7.9796558e+31 -3.9086746e+32)
(-7.7609329e+33 7.8724217e+31 -3.248682e+32)
(-7.7321909e+33 6.9573569e+31 -3.2487176e+32)
(-7.6899218e+33 9.1230636e+31 -4.0159922e+32)
(-7.674332e+33 5.7994918e+31 -3.9193102e+32)
(-7.8068927e+33 5.3416969e+31 -4.8428754e+32)
(-7.8019518e+33 6.3151984e+31 -4.2373531e+32)
(-7.8532153e+33 7.8087047e+31 -4.0870656e+32)
(-7.8313083e+33 8.1966116e+31 -4.9815745e+32)
(-7.8236502e+33 1.1505098e+32 -4.838175e+32)
(-7.8027466e+33 6.6601705e+31 -4.8027227e+32)
(-7.8235957e+33 7.6978973e+31 -4.0686721e+32)
(-7.8527561e+33 1.0746639e+32 -4.0729021e+32)
(-7.924862e+33 1.3266607e+32 -6.4771181e+32)
(-7.9024527e+33 9.8034318e+31 -5.6021935e+32)
(-7.9691253e+33 1.1270891e+32 -4.6354407e+32)
(-8.0355213e+33 1.5530364e+32 -4.9495163e+32)
(-8.7896975e+33 1.2869858e+32 -3.4690325e+32)
(-7.7067839e+33 6.0869862e+31 -8.4011264e+32)
(-8.2119216e+33 1.1935022e+32 -4.6791364e+32)
(-7.7196545e+33 8.242226e+31 -8.4661479e+32)
(-8.22209e+33 1.4373565e+32 -5.7856221e+32)
(-7.8026866e+33 6.2954256e+31 -8.3590578e+32)
(-7.7794601e+33 3.4977921e+31 -8.5883846e+32)
(-8.2600521e+33 8.2695707e+31 -5.0905791e+32)
(-8.26501e+33 9.8369198e+31 -4.9040539e+32)
(-8.8447595e+33 5.655414e+31 -3.5574023e+32)
(-7.6894539e+33 -1.3998784e+31 -5.2526658e+32)
(-7.6849796e+33 -3.5521707e+31 -5.1602022e+32)
(-8.0118793e+33 7.5193519e+31 -5.0107398e+32)
(-7.9313418e+33 7.9183269e+31 -6.0683763e+32)
(-8.0032745e+33 1.1872792e+32 -4.8192577e+32)
(-7.9336486e+33 1.0791111e+32 -5.8435756e+32)
(-8.8349844e+33 8.6304953e+31 -3.7851464e+32)
(-8.7614216e+33 6.2170065e+31 -3.6075798e+32)
(-7.647776e+33 9.0090905e+30 -5.2196663e+32)
(-7.6528696e+33 1.2046202e+31 -4.8322797e+32)
(-7.9392646e+33 1.0540546e+32 -5.9821754e+32)
(-7.9317526e+33 5.3179014e+31 -5.8541765e+32)
(-7.9777438e+33 6.9891506e+31 -4.9756326e+32)
(-8.0076249e+33 1.2438202e+32 -4.9458e+32)
(-7.8050375e+33 4.9004344e+31 -8.5007957e+32)
(-7.7943471e+33 4.5820029e+30 -8.667862e+32)
(-8.2414295e+33 6.4190666e+31 -5.0842684e+32)
(-8.2623382e+33 1.0565871e+32 -5.0567323e+32)
(-7.7711679e+33 6.5972577e+30 -8.5557641e+32)
(-8.2496515e+33 3.928947e+31 -5.0103832e+32)
(-8.2352151e+33 6.0690715e+31 -5.6192621e+32)
(-7.7016401e+33 2.4405603e+31 -8.8414868e+32)
(-7.9171511e+33 6.6788743e+31 -6.6648785e+32)
(-7.9193393e+33 3.6733822e+31 -6.0969521e+32)
(-7.9731759e+33 4.317524e+31 -5.1972166e+32)
(-8.0108472e+33 8.3411513e+31 -5.2413629e+32)
(-8.2322204e+33 -2.1164895e+31 -8.9969107e+32)
(-8.1766542e+33 6.1737166e+31 -8.8476988e+32)
(-5.1645809e+33 -3.4261518e+31 -1.9912462e+32)
(-5.1675761e+33 -5.8809575e+31 -1.9896594e+32)
(-5.2887705e+33 -2.8579734e+31 -1.9357534e+32)
(-5.30007e+33 -5.1395347e+31 -1.9306481e+32)
(-5.3076743e+33 -2.8829786e+31 -2.0522991e+32)
(-5.3124633e+33 -5.5100097e+31 -2.0553159e+32)
(-5.1788207e+33 -3.8905528e+31 -2.1484794e+32)
(-5.1818322e+33 -6.2554747e+31 -2.1506354e+32)
(-6.7175179e+33 -8.4719337e+30 -3.0028378e+32)
(-6.6783424e+33 -1.1393188e+31 -3.2635151e+32)
(-6.6873682e+33 -9.5723121e+30 -3.4125543e+32)
(-6.7324702e+33 -1.5148843e+31 -3.0816516e+32)
(-5.3563152e+33 -4.4579191e+31 -2.1469048e+32)
(-5.3430889e+33 -3.951973e+31 -1.9974369e+32)
(-5.1896308e+33 -4.0268355e+31 -2.0956505e+32)
(-5.192004e+33 -6.4145126e+31 -2.0955051e+32)
(-5.3114694e+33 -3.2867848e+31 -2.0280669e+32)
(-5.3219254e+33 -5.5784112e+31 -2.0294474e+32)
(-6.6862484e+33 -6.3815234e+30 -3.5397089e+32)
(-6.6957092e+33 -1.3083659e+31 -3.3991536e+32)
(-6.7401614e+33 -6.5340659e+30 -3.0934459e+32)
(-6.7322272e+33 -1.0336013e+31 -3.1890329e+32)
(-5.3667774e+33 -4.7079638e+31 -2.2228302e+32)
(-5.3678791e+33 -4.6435757e+31 -2.0766871e+32)
(-6.7892829e+33 1.8678244e+30 -3.8468135e+32)
(-6.7918516e+33 -1.4319512e+31 -3.6955959e+32)
(-6.8238035e+33 -5.7244172e+30 -3.417402e+32)
(-6.8163058e+33 2.5321162e+30 -3.5669487e+32)
(-6.7883925e+33 2.967163e+29 -3.7317814e+32)
(-6.7701841e+33 -1.2723267e+31 -3.5815526e+32)
(-6.8008399e+33 -8.3507192e+30 -3.3043281e+32)
(-6.8129503e+33 -3.4117618e+30 -3.4672892e+32)
(-5.3573358e+33 -4.5095389e+31 -2.0359304e+32)
(-6.7374359e+33 -9.9861864e+30 -2.9729697e+32)
(-6.690706e+33 -1.2085345e+31 -3.2931623e+32)
(-6.6954195e+33 -1.2751835e+31 -3.5022622e+32)
(-6.7390909e+33 -1.7025366e+31 -3.1448994e+32)
(-5.3602793e+33 -4.888032e+31 -2.192033e+32)
(-6.7127517e+33 -1.0031519e+31 -2.9884656e+32)
(-6.6562788e+33 -1.5678414e+31 -3.4092825e+32)
(-6.8243829e+33 -6.0450645e+30 -3.3559731e+32)
(-6.8012943e+33 -9.4152545e+30 -3.5882895e+32)
(-6.7981862e+33 -1.6191351e+30 -3.7621939e+32)
(-6.8178421e+33 -6.2662387e+30 -3.556945e+32)
(-6.7859879e+33 -9.9032049e+30 -3.4846426e+32)
(-6.7718488e+33 -1.2453317e+31 -3.6095516e+32)
(-6.7407416e+33 -3.4812267e+30 -3.8293742e+32)
(-6.9032577e+33 -2.021427e+30 -3.4956358e+32)
(-6.8570222e+33 -8.879107e+30 -3.9284411e+32)
(-6.8762593e+33 1.4171413e+31 -4.0701662e+32)
(-6.9116153e+33 7.7382827e+30 -3.6867378e+32)
(-7.0098516e+33 -5.849784e+29 -4.0126651e+32)
(-7.0121665e+33 -3.5439502e+30 -4.2390241e+32)
(-7.0350236e+33 3.7560059e+31 -4.1942272e+32)
(-7.01495e+33 2.750231e+31 -4.1746707e+32)
(-6.9289444e+33 -3.5093926e+30 -3.5817478e+32)
(-6.8741404e+33 -1.5218198e+31 -4.166961e+32)
(-6.8806569e+33 1.2697525e+31 -4.1643733e+32)
(-6.9155844e+33 8.1822035e+30 -3.7801541e+32)
(-7.0259328e+33 -8.4728309e+30 -4.1985415e+32)
(-7.0430555e+33 -1.3353761e+31 -4.207866e+32)
(-7.0410374e+33 2.9101523e+31 -4.2821619e+32)
(-7.0200017e+33 2.2637992e+31 -4.2630554e+32)
(-6.999322e+33 1.6911363e+31 -4.1573984e+32)
(-6.9991987e+33 -8.8431534e+30 -4.0615173e+32)
(-6.9970604e+33 -6.9112949e+30 -3.9146513e+32)
(-6.9744843e+33 1.3059751e+31 -4.157145e+32)
(-7.0293371e+33 3.231092e+31 -4.2873016e+32)
(-7.0317793e+33 -9.6861754e+30 -4.0193767e+32)
(-7.0361971e+33 -5.8909552e+30 -3.7835819e+32)
(-7.0232653e+33 2.460273e+31 -4.1592272e+32)
(-6.9231293e+33 -5.4115476e+30 -3.5293434e+32)
(-6.893928e+33 -8.7510946e+30 -3.7572516e+32)
(-6.8809358e+33 1.31308e+31 -4.0944925e+32)
(-6.9186067e+33 3.5302033e+30 -3.7198808e+32)
(-6.8429074e+33 4.7035503e+30 -4.0212747e+32)
(-6.8648281e+33 -1.024156e+31 -3.7865836e+32)
(-6.8850164e+33 -4.6170472e+30 -3.5918977e+32)
(-6.8566998e+33 2.3048237e+30 -3.816936e+32)
(-6.8170952e+33 2.2586017e+31 -2.8578218e+32)
(-6.82008e+33 4.7464392e+30 -2.902917e+32)
(-6.7888506e+33 2.3736991e+31 -3.1142925e+32)
(-6.7783101e+33 8.2251504e+30 -3.2335932e+32)
(-6.8250085e+33 -3.1735959e+30 -2.9831675e+32)
(-6.837689e+33 1.3169626e+31 -2.9096061e+32)
(-6.7963254e+33 7.0801513e+30 -3.2118078e+32)
(-6.7798548e+33 5.4000402e+29 -3.329019e+32)
(-6.8835008e+33 1.3286829e+31 -3.6376685e+32)
(-6.8915141e+33 7.8358567e+30 -3.5229917e+32)
(-6.9131248e+33 1.2212029e+31 -3.3478208e+32)
(-6.9254968e+33 1.5471857e+31 -3.2317583e+32)
(-6.8840884e+33 2.4498692e+31 -3.5215557e+32)
(-6.8932674e+33 3.158999e+31 -3.333815e+32)
(-6.9028931e+33 2.9621914e+31 -3.2033006e+32)
(-6.8997193e+33 1.5829892e+31 -3.319745e+32)
(-5.2018438e+33 -2.456702e+31 -2.3197709e+32)
(-5.2043515e+33 -4.9973527e+31 -2.3115901e+32)
(-5.3456081e+33 -4.0626512e+31 -2.2436313e+32)
(-5.3424897e+33 -2.0241712e+31 -2.2551723e+32)
(-5.1764958e+33 -3.5375773e+31 -2.1479488e+32)
(-5.1779584e+33 -6.1116261e+31 -2.1520014e+32)
(-5.2907021e+33 -2.977995e+31 -2.1091583e+32)
(-5.3002358e+33 -5.2773699e+31 -2.112542e+32)
(-5.3101586e+33 -2.4712383e+31 -2.1651101e+32)
(-5.3129509e+33 -5.0637506e+31 -2.1591264e+32)
(-5.1872253e+33 -3.4919179e+31 -2.2383464e+32)
(-5.1899574e+33 -5.8580788e+31 -2.23466e+32)
(-5.3588199e+33 -4.1389014e+31 -2.1484437e+32)
(-6.7070598e+33 -5.072308e+30 -3.2596633e+32)
(-6.6751749e+33 1.1187167e+31 -3.6547962e+32)
(-6.6568141e+33 -7.4116486e+30 -3.6347901e+32)
(-6.7227178e+33 4.1450492e+30 -3.2844515e+32)
(-5.3644351e+33 -3.709991e+31 -2.2427052e+32)
(-5.1262731e+33 -3.3017941e+31 -2.1012857e+32)
(-5.1277003e+33 -5.6743071e+31 -2.0963531e+32)
(-5.2606134e+33 -2.5309801e+31 -2.020219e+32)
(-5.2676312e+33 -4.8563237e+31 -2.0083204e+32)
(-5.2820372e+33 -2.6113511e+31 -2.0939463e+32)
(-5.287115e+33 -5.2372042e+31 -2.0801643e+32)
(-5.1482637e+33 -3.6256431e+31 -2.1905812e+32)
(-5.1528034e+33 -5.9502487e+31 -2.1832405e+32)
(-6.7494257e+33 9.3254648e+30 -2.917051e+32)
(-6.697191e+33 3.6078188e+30 -3.2940446e+32)
(-6.6963728e+33 -1.3439845e+31 -3.3817585e+32)
(-6.7391453e+33 -1.3588426e+31 -3.0378318e+32)
(-5.3251121e+33 -4.2639247e+31 -2.1940068e+32)
(-5.30527e+33 -3.4773676e+31 -2.0893911e+32)
(-6.7882774e+33 2.5682567e+28 -3.7274983e+32)
(-6.7673449e+33 -2.5478572e+30 -4.0317467e+32)
(-6.7823736e+33 2.7849946e+31 -3.9427169e+32)
(-6.7979934e+33 1.961102e+31 -3.7425927e+32)
(-6.8304392e+33 9.4213661e+30 -3.3634328e+32)
(-6.8128379e+33 8.5307439e+30 -3.4990018e+32)
(-6.8010231e+33 -4.565759e+30 -3.6439958e+32)
(-6.8193973e+33 -8.6610067e+30 -3.4471954e+32)
(-7.1343326e+33 4.2165044e+31 -3.6059245e+32)
(-7.1238028e+33 3.7673309e+31 -3.9239582e+32)
(-7.1235044e+33 6.9386207e+31 -4.0839519e+32)
(-7.1223061e+33 5.6958488e+31 -3.8357768e+32)
(-6.9763637e+33 4.2135047e+31 -3.7883e+32)
(-6.9743728e+33 3.2330734e+31 -3.596036e+32)
(-7.0109072e+33 3.6009747e+31 -3.3395519e+32)
(-7.0057145e+33 3.3965894e+31 -3.5293369e+32)
(-7.0318878e+33 2.2924554e+31 -3.4622377e+32)
(-6.9837796e+33 1.1382521e+31 -3.9096527e+32)
(-6.9814465e+33 3.5225253e+31 -3.9242524e+32)
(-7.0164234e+33 2.7558668e+31 -3.5708796e+32)
(-7.1494316e+33 2.629292e+31 -3.9000218e+32)
(-7.1403397e+33 1.7997518e+31 -4.2381211e+32)
(-7.1228088e+33 6.4673134e+31 -4.3401768e+32)
(-7.1365665e+33 5.4921312e+31 -3.9064456e+32)
(-7.0464977e+33 3.0010869e+31 -4.1431133e+32)
(-7.0404028e+33 1.3821747e+31 -3.9703142e+32)
(-7.0484661e+33 1.7145396e+31 -3.7427461e+32)
(-7.0369056e+33 2.4817783e+31 -3.9975243e+32)
(-7.0488004e+33 7.9899956e+31 -4.3200319e+32)
(-7.0396295e+33 2.5130854e+31 -4.2476252e+32)
(-7.0089495e+33 1.7961917e+31 -4.3040717e+32)
(-7.0218317e+33 6.1028515e+31 -4.2963312e+32)
(-6.884389e+33 4.7501298e+30 -4.0416596e+32)
(-6.8814013e+33 1.1387687e+31 -4.1335944e+32)
(-6.886547e+33 4.7239892e+31 -4.1608022e+32)
(-6.8997021e+33 3.3692124e+31 -3.9483117e+32)
(-6.8894918e+33 9.1265166e+30 -3.9319615e+32)
(-6.8984558e+33 8.9345211e+30 -3.7218307e+32)
(-6.9338376e+33 1.5885846e+31 -3.4598543e+32)
(-6.9236457e+33 4.3073276e+30 -3.6087895e+32)
(-7.424763e+33 -1.8431477e+32 -8.2602298e+32)
(-8.15914e+33 3.5922459e+31 -4.6297111e+32)
(-8.2537796e+33 7.9998852e+31 -4.4975317e+32)
(-7.3418856e+33 -1.0013971e+32 -3.5694525e+32)
(-7.4019455e+33 -4.809757e+30 -3.3737635e+32)
(-8.2895041e+33 3.0464408e+31 -4.5673374e+32)
(-8.2806115e+33 -2.1834141e+31 -4.7434025e+32)
(-7.4266412e+33 -1.1210196e+32 -3.9928366e+32)
(-7.4476102e+33 1.5725067e+31 -3.8814916e+32)
(-7.4382083e+33 5.5638994e+31 -8.3481686e+32)
(-7.2778074e+33 5.1621575e+31 -3.8051257e+32)
(-7.2421785e+33 3.9649349e+31 -4.4369269e+32)
(-7.241177e+33 9.65728e+31 -4.4474905e+32)
(-7.2588965e+33 8.5008752e+31 -4.0795646e+32)
(-7.415617e+33 4.9970514e+31 -4.4193034e+32)
(-7.4045391e+33 3.6294755e+31 -4.9293434e+32)
(-7.4267471e+33 1.2248471e+32 -4.9748084e+32)
(-7.397391e+33 1.1703386e+32 -4.5597011e+32)
(-7.2958853e+33 3.4057947e+31 -4.1307325e+32)
(-7.2492525e+33 1.3354771e+31 -5.0156004e+32)
(-7.2778352e+33 8.6108812e+31 -4.2189777e+32)
(-7.2581455e+33 1.0046873e+32 -4.629728e+32)
(-7.4200054e+33 2.5672556e+31 -4.7694344e+32)
(-7.4555955e+33 1.4775126e+31 -5.2420413e+32)
(-7.454308e+33 1.339026e+32 -5.1094171e+32)
(-7.4171203e+33 1.2194258e+32 -4.7345438e+32)
(-7.4717867e+33 1.1641623e+32 -8.4861971e+32)
(-7.4622603e+33 -5.336269e+30 -8.6970804e+32)
(-7.7322636e+33 6.780987e+30 -6.0464436e+32)
(-7.7279445e+33 1.5156332e+32 -5.9477665e+32)
(-7.4152714e+33 1.0392257e+32 -8.5112363e+32)
(-7.3846117e+33 2.9385058e+31 -8.7647233e+32)
(-7.6609134e+33 3.9926194e+31 -5.8601417e+32)
(-7.6845335e+33 1.4028782e+32 -5.8166472e+32)
(-7.5491896e+33 3.9266635e+31 -4.978094e+32)
(-7.459869e+33 2.9731885e+31 -6.1275322e+32)
(-7.4710038e+33 1.1752594e+32 -6.1422076e+32)
(-7.5612851e+33 1.3917317e+32 -4.969844e+32)
(-7.5189941e+33 1.4193828e+32 -6.1484096e+32)
(-7.5135e+33 1.0264125e+31 -6.3591747e+32)
(-7.5911378e+33 1.8385939e+31 -5.2793066e+32)
(-7.5910225e+33 1.5208709e+32 -5.1339224e+32)
(-7.4285971e+33 1.1468057e+32 -8.479656e+32)
(-7.4686052e+33 6.4581923e+30 -8.3814891e+32)
(-7.6223618e+33 5.3744353e+31 -5.1673566e+32)
(-7.6016706e+33 1.3721142e+32 -6.0749283e+32)
(-7.4823423e+33 5.6232319e+31 -4.9082024e+32)
(-7.411301e+33 5.0264184e+31 -5.7242787e+32)
(-7.4110224e+33 1.3037241e+32 -6.278694e+32)
(-7.4971138e+33 1.4990522e+32 -5.1060953e+32)
(-7.5005852e+33 2.1034003e+31 -4.5886925e+32)
(-7.3747565e+33 6.8231237e+30 -6.1024268e+32)
(-7.5072143e+33 7.3315743e+31 -4.5959738e+32)
(-7.3816065e+33 7.3727339e+31 -6.2841718e+32)
(-7.6322774e+33 -8.8732307e+30 -4.9445038e+32)
(-7.4270404e+33 -2.5453012e+31 -8.3607381e+32)
(-7.5802524e+33 6.1924668e+31 -5.6622727e+32)
(-7.3856962e+33 3.999565e+31 -8.5733894e+32)
(-7.3241604e+33 4.5291831e+31 -4.557437e+32)
(-7.340492e+33 4.5345927e+31 -4.9245404e+32)
(-7.3690941e+33 1.3406104e+32 -5.0333673e+32)
(-7.3436741e+33 1.2364755e+32 -4.6688852e+32)
(-7.1916058e+33 1.0688412e+32 -4.5582584e+32)
(-7.1694279e+33 3.6203818e+31 -4.5616239e+32)
(-7.1615575e+33 3.1077735e+31 -4.3346823e+32)
(-7.1766665e+33 9.3136585e+31 -4.3785648e+32)
(-7.1951349e+33 2.6242531e+31 -3.8637998e+32)
(-7.1596834e+33 2.1750764e+31 -4.3404715e+32)
(-7.1815113e+33 5.4336452e+31 -4.3551974e+32)
(-7.1822367e+33 4.2365673e+31 -4.0904401e+32)
(-7.338625e+33 2.536065e+31 -4.2588397e+32)
(-7.3227624e+33 1.6903995e+31 -4.9830701e+32)
(-7.3385653e+33 7.1653547e+31 -5.0336448e+32)
(-7.3487245e+33 6.7797959e+31 -4.319569e+32)
(-7.3458643e+33 5.6756495e+31 -5.0505632e+32)
(-7.3395125e+33 -3.5477936e+31 -4.9354026e+32)
(-7.3194967e+33 -2.3078498e+31 -4.5280976e+32)
(-7.3235702e+33 5.2014628e+31 -4.6097349e+32)
(-7.3448284e+33 7.9231282e+31 -4.9580293e+32)
(-7.3260778e+33 -3.3083871e+30 -4.7761796e+32)
(-7.2964441e+33 7.347977e+30 -4.4581139e+32)
(-7.3189822e+33 7.3884923e+31 -4.5261471e+32)
(-7.1442586e+33 1.5919005e+30 -4.1881786e+32)
(-7.1534706e+33 3.6228791e+30 -4.3127701e+32)
(-7.169178e+33 5.9025301e+31 -4.4458277e+32)
(-7.1643104e+33 4.5818698e+31 -4.1919063e+32)
(-7.1717854e+33 4.0370293e+31 -4.5688074e+32)
(-7.1703541e+33 -2.1604699e+31 -4.4735377e+32)
(-7.1716757e+33 -7.629142e+30 -4.2083098e+32)
(-7.1723045e+33 3.787458e+31 -4.2525492e+32)
(-8.2403693e+33 -2.1174355e+31 -4.7251514e+32)
(-7.4145862e+33 -4.5740645e+31 -8.4666876e+32)
(-7.5608719e+33 -9.4311593e+30 -5.2402431e+32)
(-7.5766431e+33 8.0008467e+31 -5.6675202e+32)
(-7.378018e+33 5.5988869e+31 -8.4175567e+32)
(-8.2736543e+33 3.6671807e+31 -4.6888816e+32)
(-7.4390513e+33 -6.9361124e+31 -8.357184e+32)
(-7.588865e+33 -6.0981649e+31 -5.2255831e+32)
(-7.5747035e+33 4.68243e+31 -5.6693215e+32)
(-7.3883163e+33 3.0078228e+31 -8.3982257e+32)
(-7.4179347e+33 -1.2829231e+32 -3.9710153e+32)
(-7.4125416e+33 3.3379028e+30 -3.8523527e+32)
(-7.3776352e+33 5.6888624e+31 -6.3303146e+32)
(-7.3882172e+33 -4.9517261e+31 -5.8185566e+32)
(-7.4680954e+33 -4.0660602e+31 -4.8931261e+32)
(-7.4799236e+33 6.2023217e+31 -4.9755628e+32)
(-7.372553e+33 7.6100574e+31 -6.3547806e+32)
(-7.3717016e+33 -1.1366763e+31 -5.7071872e+32)
(-7.4438365e+33 -7.2739316e+30 -4.8335812e+32)
(-7.4799982e+33 9.0026799e+31 -4.9122782e+32)
(-8.2398863e+33 -5.8526828e+31 -4.4326616e+32)
(-7.3918105e+33 -7.117313e+31 -8.246838e+32)
(-7.5431562e+33 -4.019569e+31 -5.0389707e+32)
(-7.5419297e+33 5.9640149e+31 -5.6773002e+32)
(-7.3456361e+33 4.8153803e+31 -8.4919603e+32)
(-8.1869494e+33 -2.7630147e+30 -4.439377e+32)
(-7.3481916e+33 -6.7682226e+31 -8.3120017e+32)
(-7.5062097e+33 -6.1365382e+31 -4.9372321e+32)
(-7.4935174e+33 1.3529679e+31 -5.5160384e+32)
(-7.2969125e+33 1.0357082e+30 -8.6115559e+32)
(-7.3452638e+33 -1.0509286e+32 -3.6408607e+32)
(-7.3314754e+33 7.4895334e+30 -3.6948964e+32)
(-7.3112617e+33 2.6735463e+31 -6.2828451e+32)
(-7.3167081e+33 -4.2591126e+31 -5.6094954e+32)
(-7.4120162e+33 -3.7396326e+31 -4.5832989e+32)
(-7.4272899e+33 3.1438509e+31 -4.7625591e+32)
(-7.3464582e+33 7.1261613e+31 -6.4324023e+32)
(-7.353919e+33 -3.2450846e+31 -5.6096219e+32)
(-7.4314842e+33 -2.0951745e+31 -4.7504251e+32)
(-7.4598693e+33 8.090484e+31 -4.9536707e+32)
(-7.1763093e+33 -2.5397381e+30 -3.9064644e+32)
(-7.1427669e+33 -1.1548711e+31 -4.3784397e+32)
(-7.1577317e+33 5.7036951e+31 -4.6284557e+32)
(-7.1573886e+33 4.1210245e+31 -4.2642878e+32)
(-7.2929921e+33 -1.3621318e+31 -4.513233e+32)
(-7.3106021e+33 -1.8115761e+31 -4.810789e+32)
(-7.327181e+33 7.4075208e+31 -5.0716059e+32)
(-7.3071643e+33 6.6554682e+31 -4.6836295e+32)
(-7.3002334e+33 3.229731e+31 -4.8780912e+32)
(-7.2877138e+33 -2.7896214e+31 -4.6901824e+32)
(-7.2749218e+33 -1.9157482e+31 -4.3601869e+32)
(-7.2835628e+33 3.3289277e+31 -4.4956142e+32)
(-7.12511e+33 -6.9882046e+30 -4.1023643e+32)
(-7.1305092e+33 -1.5398856e+31 -4.2676431e+32)
(-7.1384106e+33 2.4003181e+31 -4.3827144e+32)
(-7.1229558e+33 2.2354455e+31 -4.2193868e+32)
(-7.4048363e+33 -1.7978923e+32 -8.3410708e+32)
(-7.3783777e+33 6.7862791e+31 -8.2595556e+32)
(-7.644627e+33 -1.2361158e+32 2.4785648e+32)
(-7.5899339e+33 4.3793789e+31 2.5488356e+32)
(-9.8412882e+33 2.0173003e+32 1.8931383e+32)
(-8.8149217e+33 7.4197012e+31 3.4414767e+32)
(-8.9184668e+33 9.4419679e+31 6.8402375e+31)
(-8.9933879e+33 1.8231704e+31 5.7307213e+31)
(-8.8150258e+33 -1.7130014e+31 3.6141889e+32)
(-9.0504908e+33 1.0184546e+32 -7.2479902e+31)
(-9.0074293e+33 4.0848975e+31 -1.5751138e+31)
(-8.9924457e+33 9.1759567e+31 2.6377343e+32)
(-8.3865379e+33 -1.6460024e+31 3.7179535e+32)
(-8.4699399e+33 -4.8999831e+30 3.9389197e+32)
(-9.5543697e+33 1.4258719e+32 -9.3403208e+32)
(-7.8284689e+33 1.7593532e+32 -2.4806528e+32)
(-7.8035171e+33 1.5445467e+32 -2.9071018e+32)
(-7.7626758e+33 1.686583e+32 -3.1684877e+32)
(-7.7435663e+33 1.6444557e+32 -3.6623261e+32)
(-7.7875821e+33 1.164706e+32 -3.2666898e+32)
(-7.8205567e+33 1.2414159e+32 -2.8365825e+32)
(-7.7173865e+33 1.3479817e+32 -3.7159397e+32)
(-7.7255237e+33 1.1026449e+32 -3.9501064e+32)
(-7.9547163e+33 1.9265597e+32 -3.1087172e+32)
(-7.8458103e+33 1.7700187e+32 -4.3479874e+32)
(-7.8751074e+33 1.9241782e+32 -4.5294062e+32)
(-7.906934e+33 1.8364219e+32 -3.7194403e+32)
(-7.871546e+33 1.1525228e+32 -4.8246226e+32)
(-7.8753808e+33 1.2095979e+32 -4.1278355e+32)
(-7.8854968e+33 1.4203584e+32 -3.8056394e+32)
(-7.8583592e+33 1.4812459e+32 -4.6614913e+32)
(-7.8082039e+33 1.2763678e+32 -3.177637e+32)
(-7.7774962e+33 1.2309449e+32 -3.2188399e+32)
(-7.7208119e+33 1.1334444e+32 -3.8859791e+32)
(-7.735199e+33 1.3906436e+32 -3.9720147e+32)
(-7.7777658e+33 1.0426434e+32 -3.1916795e+32)
(-7.8004e+33 1.1454533e+32 -2.7586943e+32)
(-7.690611e+33 1.2761978e+32 -3.6490296e+32)
(-7.7053065e+33 9.9224871e+31 -3.8601448e+32)
(-7.8652213e+33 1.5989838e+32 -4.8067375e+32)
(-7.844204e+33 1.0816307e+32 -4.766381e+32)
(-7.8786478e+33 1.2181063e+32 -3.9761779e+32)
(-7.9049384e+33 1.5303421e+32 -3.9912672e+32)
(-7.8391593e+33 9.6693137e+31 -4.7771573e+32)
(-7.8457599e+33 1.0702257e+32 -4.1037233e+32)
(-7.8564795e+33 1.3435405e+32 -3.7599152e+32)
(-7.825233e+33 1.3994115e+32 -4.6206374e+32)
(-8.0501976e+33 1.9437387e+32 -4.3718387e+32)
(-7.9570607e+33 1.8139824e+32 -5.5195898e+32)
(-7.9872088e+33 1.8474026e+32 -5.7346676e+32)
(-8.064914e+33 2.0111889e+32 -4.592647e+32)
(-7.8231054e+33 1.2189642e+32 -8.3147689e+32)
(-7.7875492e+33 1.2400783e+32 -8.5473854e+32)
(-8.2797096e+33 1.8757152e+32 -4.6780091e+32)
(-8.3250603e+33 1.8299735e+32 -4.711835e+32)
(-8.8297213e+33 1.1121401e+32 -3.4977927e+32)
(-8.3560698e+33 1.1865131e+32 -4.8340499e+32)
(-7.8049116e+33 7.7023964e+31 -8.806333e+32)
(-7.8388063e+33 9.6821558e+31 -8.5765718e+32)
(-8.3218102e+33 1.2834561e+32 -5.0047818e+32)
(-8.9030718e+33 7.5994297e+31 -3.6163353e+32)
(-7.9787942e+33 1.159332e+32 -6.2361548e+32)
(-7.983243e+33 1.407718e+32 -5.9034858e+32)
(-8.0629667e+33 1.1623894e+32 -5.0160194e+32)
(-8.0302449e+33 1.5521072e+32 -4.9956143e+32)
(-7.6847829e+33 -2.8260756e+31 -5.4067748e+32)
(-7.692347e+33 -3.2354899e+31 -5.456798e+32)
(-7.9652419e+33 9.2266356e+31 -5.9240426e+32)
(-8.0188725e+33 1.1294006e+32 -4.9670593e+32)
(-7.9692969e+33 1.4645635e+32 -6.0481004e+32)
(-8.0529023e+33 1.6852086e+32 -4.912589e+32)
(-7.8141481e+33 9.2678707e+31 -8.7084089e+32)
(-7.8061375e+33 4.8708477e+31 -8.8916334e+32)
(-8.2815149e+33 1.0237335e+32 -5.203808e+32)