/*--------------------------------*- C++ -*----------------------------------*\
  =========                 |
  \\      /  F ield         | OpenFOAM: The Open Source CFD Toolbox
   \\    /   O peration     | Website:  https://openfoam.org
    \\  /    A nd           | Version:  7
     \\/     M anipulation  |
\*---------------------------------------------------------------------------*/
FoamFile
{
    version     2.0;
    format      ascii;
    class       volScalarField;
    location    "1000";
    object      k;
}
// * * * * * * * * * * * * * * * * * * * * * * * * * * * * * * * * * * * * * //

dimensions      [0 2 -2 0 0 0 0];

internalField   nonuniform List<scalar> 
33730
(
1.5634349
1.5906725
1.5478653
1.5628118
1.602633
1.5832196
1.5793099
1.5853592
1.5808078
1.5772349
1.5892909
1.5885146
1.6481647
1.5791704
1.6150363
1.6158469
1.617658
1.5938608
1.6101272
1.5500115
1.563325
1.5640109
1.5678067
1.565317
1.5643519
1.5920927
1.5808945
1.5822432
1.5857145
1.5882147
1.5915534
1.5912353
1.5810212
1.6429772
1.6186722
1.6103306
1.603133
1.6161502
1.6036853
1.6422297
1.642132
1.6499297
1.6470446
1.5891678
1.6405725
1.6669945
1.6584182
1.6695713
1.6491657
1.6596133
1.5830977
1.6452201
1.6439466
1.6112458
1.6494887
1.6164089
1.6131961
1.6172755
1.5944963
1.6379076
1.5498578
1.5646832
1.5640603
1.5685878
1.5682889
1.6300471
1.6294323
1.634914
1.6349355
1.562037
1.5962554
1.5781897
1.5791439
1.597109
1.6085137
1.5926609
1.5916
1.5902064
1.6388038
1.645282
1.61641
1.6068409
1.6281567
1.6063711
1.6417804
1.6483503
1.649299
1.6436278
1.6662214
1.6491878
1.6259598
1.6203516
1.649285
1.6257135
1.6101642
1.6459513
1.6612591
1.6588734
1.6660862
1.6651538
1.5605703
1.5938678
1.5957627
1.6073931
1.6096055
1.5959882
1.6393077
1.6296853
1.6334512
1.6250131
1.6443244
1.679878
1.6748147
1.6557229
1.6609338
1.6706692
1.6601208
1.6746886
1.6587827
1.6769405
1.5830446
1.6687786
1.6466886
1.6507453
1.6479491
1.6693617
1.646485
1.6150368
1.6503163
1.619149
1.5956619
1.6202638
1.6134786
1.6788583
1.5484303
1.5644032
1.5672754
1.5667518
1.5638682
1.6306679
1.6283348
1.6351839
1.6368151
1.644897
1.6458395
1.6521754
1.6514311
1.5624035
1.5869884
1.5910452
1.5807488
1.5787472
1.5946458
1.5953953
1.5916254
1.5853864
1.6291987
1.6425945
1.6451233
1.6296004
1.6165713
1.6441371
1.623889
1.6123262
1.6481681
1.6450228
1.6777709
1.6680843
1.628142
1.638562
1.6492662
1.6322761
1.6740717
1.6502101
1.6815165
1.670508
1.6708683
1.6653842
1.6439224
1.7865966
1.6072339
1.6280703
1.6492643
1.6604452
1.636824
1.6474115
1.6044235
1.6599411
1.6749415
1.6715799
1.6769995
1.6776209
1.6182624
1.5641231
1.5821087
1.5779653
1.5817334
1.5780615
1.585965
1.5974042
1.6098601
1.6130269
1.5988635
1.6281403
1.6379313
1.620327
1.6327342
1.6429997
1.6513676
1.6337975
1.6544902
1.6330633
1.6453333
1.6661559
1.6566193
1.6602731
1.6537299
1.6546232
1.6525653
1.6732172
1.6917565
1.6961797
1.6076959
1.6880512
1.6666171
1.7143728
1.6735339
1.6713743
1.6734584
1.67378
1.7008812
1.5842776
1.8028513
1.6491465
1.6095234
1.6666904
1.7253354
1.6294654
1.6809578
1.6558467
1.7087062
1.5976471
1.6199997
1.6253552
1.6088329
1.6084984
1.6489435
1.6369837
1.7609659
1.5414374
1.5487048
1.5642519
1.5676312
1.567387
1.5637129
1.6344478
1.6383373
1.6361846
1.6317564
1.6497356
1.6460978
1.6542811
1.6575455
1.6588495
1.6610539
1.6672564
1.6650839
1.5653958
1.587222
1.5835808
1.5813496
1.5852587
1.5797672
1.5821408
1.5962211
1.592961
1.6224857
1.6316115
1.6523802
1.6508069
1.6583427
1.6097793
1.6554897
1.6136075
1.6206907
1.632702
1.6645103
1.6651095
1.6661027
1.6482837
1.6263463
1.6525036
1.6481908
1.6294102
1.63815
1.6491797
1.6670203
1.6653931
1.6773364
1.682777
1.6318709
1.654579
1.5989289
1.6623647
1.6511138
1.6390929
1.706341
1.6643746
1.6461938
1.6846964
1.6840646
1.6791635
1.788723
1.6353531
1.6584063
1.6693602
1.6780174
1.6363654
1.6580862
1.6703911
1.6426671
1.608472
1.6566835
1.546625
1.559757
1.578008
1.5847597
1.5846358
1.5786276
1.6368411
1.6299259
1.6349525
1.6302134
1.5860273
1.6029632
1.6155358
1.6104929
1.6005364
1.6198319
1.6162534
1.620622
1.6323063
1.6532503
1.6574506
1.631368
1.6515477
1.6352417
1.6461349
1.6645031
1.6880781
1.6525793
1.6802168
1.6612824
1.6627919
1.669932
1.6620014
1.6693497
1.6631633
1.6605518
1.6606492
1.6403398
1.6421352
1.6385976
1.663492
1.6623739
1.5834677
1.6752743
1.8630772
1.7111997
1.5515312
1.7056281
1.7395668
1.702851
1.7891709
1.6748313
1.6847295
1.6935556
1.6851078
1.6784414
1.6880377
1.6981592
1.843826
1.5866426
1.5876509
1.6758793
1.6052971
1.6881069
1.6965117
1.7384624
1.6040055
1.6104103
1.6290517
1.6213668
1.6065685
1.6495405
1.6635494
1.6408469
1.6375291
1.664741
1.6535383
1.541209
1.5559471
1.5561629
1.557364
1.5580297
1.5502654
1.5650603
1.5695493
1.5684659
1.5640763
1.6373208
1.642134
1.6427665
1.6374079
1.6529312
1.6578102
1.6562665
1.6501508
1.6666567
1.6620835
1.6697641
1.6739105
1.5666561
1.5839791
1.58708
1.5843549
1.5852287
1.5927942
1.5843327
1.5948634
1.5964316
1.6218587
1.628682
1.6188377
1.6061421
1.6155037
1.6067632
1.6518347
1.6520651
1.6571543
1.6586119
1.6698487
1.6718222
1.6705602
1.6695208
1.6563712
1.6750235
1.6312394
1.6553931
1.6696276
1.6367422
1.6314393
1.6780834
1.6622715
1.6810975
1.6809664
1.6820133
1.6639588
1.6239381
1.6654601
1.5901165
1.623865
1.6492683
1.6555201
1.6617002
1.682088
1.6812097
1.6403078
1.6616224
1.6640913
1.6743554
1.6590514
1.6305262
1.6413186
1.6762241
1.6106103
1.6413718
1.6636742
1.6218605
1.6437404
1.6656339
1.662091
1.6039055
1.6367695
1.5466405
1.5693126
1.5659122
1.5691494
1.5646949
1.5601702
1.5859237
1.5913608
1.587676
1.5813179
1.6359472
1.6448534
1.6383923
1.6298824
1.6521159
1.6445181
1.6525794
1.644003
1.5899645
1.6109841
1.626394
1.6208564
1.6051005
1.6170291
1.6119833
1.6138395
1.6109555
1.6565692
1.6625101
1.6332553
1.660278
1.6321572
1.6549579
1.6555214
1.6445663
1.649707
1.6810196
1.6692765
1.6621349
1.6756576
1.6566553
1.6696923
1.6620416
1.6617632
1.6647672
1.6781365
1.7471707
1.6670869
1.6800178
1.6742238
1.6756704
1.6755286
1.6816056
1.6777779
1.6798007
1.6733427
1.6734995
1.6705497
1.672266
1.5931542
1.6293832
1.6261216
1.689412
1.6669475
1.7429895
1.7601133
1.7613343
1.8424362
1.7605438
1.9521901
1.6770689
1.6895091
1.693005
1.692587
1.6906926
1.7076161
1.7207234
1.7046045
1.7008136
1.6931928
1.7436911
1.588028
1.5741818
1.6925366
1.5989749
1.6172468
1.6420822
1.6391699
1.6207357
1.6348686
1.6595296
1.6482995
1.6281335
1.6773384
1.7178179
1.6933014
1.6412003
1.7613628
1.71039
1.5348163
1.5426433
1.5547605
1.5560733
1.5569974
1.5585451
1.6263186
1.6285614
1.6332311
1.6319179
1.5484514
1.5684955
1.5729667
1.5719527
1.5676576
1.6390936
1.6441472
1.6445078
1.638687
1.6528626
1.6596701
1.6607584
1.6536565
1.6688012
1.6739061
1.6733788
1.6670746
1.5641482
1.6184669
1.5801926
1.5823836
1.5988831
1.5875868
1.5959378
1.5917358
1.5933724
1.6089612
1.6053929
1.625798
1.6517951
1.6512754
1.6366661
1.6140729
1.6067879
1.6544886
1.6526938
1.629494
1.7012033
1.6292066
1.6682014
1.6549919
1.6108778
1.626939
1.6510224
1.6719379
1.6745674
1.6767117
1.677222
1.7800937
1.8183795
1.6830369
1.681439
1.6524238
1.6684923
1.6862654
1.6428346
1.6581689
1.6647466
1.6818888
1.649242
1.6423769
1.7256946
1.7398972
1.6741957
1.6767575
1.6769937
1.7523541
1.6332658
1.666345
1.6736178
1.7085077
1.6698659
1.6750911
1.6688346
1.634301
1.6143715
1.6552025
1.5985901
1.7316455
1.5459718
1.5691936
1.5755408
1.5721254
1.5678306
1.5406964
1.5405911
1.5340877
1.5341228
1.6230135
1.620149
1.6270372
1.6162733
1.5630432
1.5871687
1.5958098
1.5917542
1.5859301
1.6419737
1.6489333
1.648303
1.6403235
1.6509563
1.6591939
1.6553956
1.6462205
1.6642521
1.6574712
1.6655063
1.6563475
1.5912682
1.6199375
1.6342791
1.6315585
1.6174112
1.6157864
1.6249529
1.6262858
1.6230173
1.6617691
1.6684131
1.6413394
1.6689972
1.6351907
1.659425
1.655121
1.6412066
1.6421116
1.643773
1.6748985
1.6642723
1.6803172
1.6587696
1.6775896
1.6637112
1.6613368
1.6739331
1.6706577
1.6541672
1.6109383
1.7001106
1.6813074
1.674445
1.6700909
1.6882897
1.6548189
1.6835559
1.6752469
1.6791031
1.6610005
1.677689
1.7456736
1.8629852
1.6671722
1.6337998
1.6845288
1.6909907
1.6562528
1.7280087
1.6807793
1.6817986
1.6566016
1.7747696
1.671445
1.7933626
1.8793491
1.6830574
1.6953073
1.6889966
1.6955829
1.6970446
1.7116265
1.7190746
1.7165639
1.71003
1.7418902
1.7647349
1.7418172
1.7542507
1.737237
1.8419876
1.5832275
1.5926475
1.6340106
1.6311166
1.6189594
1.6245533
1.6461628
1.6754588
1.6666049
1.659035
1.6823219
1.6978044
1.7014925
1.707355
1.7486569
1.8137078
1.8303954
1.5932965
1.536477
1.550035
1.5462413
1.5488384
1.5457195
1.5412931
1.5570959
1.5575608
1.5597602
1.5613932
1.6257433
1.6271472
1.6320623
1.6331657
1.6404593
1.6420731
1.6476343
1.646257
1.5468885
1.5645963
1.5696786
1.5683114
1.5650059
1.6396072
1.6447196
1.6455639
1.6412704
1.6572944
1.6659075
1.6623492
1.6542934
1.6669157
1.6733142
1.6752475
1.6684496
1.5628793
1.6068672
1.5997284
1.5787489
1.5809473
1.5912662
1.5910184
1.5878836
1.5922565
1.6648046
1.6434271
1.6369867
1.6387296
1.6093992
1.6154376
1.6083928
1.641255
1.6435496
1.6379731
1.6237628
1.6007662
1.6435542
1.6371447
1.6740343
1.6728804
1.686343
1.6626717
1.630542
1.6473709
1.6763519
1.6737853
1.6104472
1.7559117
1.6593727
1.6539263
1.7134065
1.6659903
1.5680793
1.6600803
1.6465887
1.6594111
1.6835679
1.6859978
1.687518
1.6878908
1.6250922
1.6544064
1.6777207
1.7762279
1.6332486
1.6691555
1.674766
1.6865474
1.7438462
1.6812393
1.6874767
1.5931873
1.6629128
1.6751914
1.6662871
1.6895723
1.7603666
1.546909
1.5714691
1.5780158
1.5753352
1.569021
1.5396837
1.5402403
1.533971
1.5344292
1.6241544
1.5594775
1.6324584
1.6314238
1.6226282
1.5587028
1.6373037
1.6334049
1.642044
1.6288403
1.559917
1.5991418
1.5935729
1.6052284
1.589412
1.6424258
1.6509633
1.6488115
1.6401348
1.6561042
1.6646055
1.6645059
1.6551503
1.6644307
1.6720418
1.6686413
1.659873
1.5833837
1.6039122
1.6159162
1.6244022
1.6104067
1.637418
1.6374512
1.6359997
1.6469673
1.6599069
1.6630194
1.6460846
1.6649759
1.6447728
1.6611939
1.6581576
1.6761738
1.6764507
1.658255
1.6751032
1.6810882
1.667674
1.6710682
1.6833232
1.6690707
1.6609046
1.6753751
1.6775992
1.6729397
1.6206209
1.6705888
1.6868017
1.6724131
1.6801688
1.6924396
1.6800958
1.6909373
1.6722365
1.668471
1.6798389
1.6864289
1.7124619
1.7238349
1.5527113
1.6926476
1.6849621
1.6772469
1.6797121
1.6191469
1.6858253
1.6892157
1.713685
1.6356738
1.7029634
1.6774279
1.6472102
1.6891784
1.6746153
1.6622947
1.6789487
1.6804951
1.6987066
1.6944257
1.6989913
1.6972507
1.7273654
1.7006249
1.719694
1.7102408
1.724087
1.7819598
1.7367322
1.7234557
1.8199726
1.7655114
1.7382443
1.7346651
1.5792959
1.5903201
1.6215176
1.6202257
1.6159422
1.6206113
1.6665958
1.6636083
1.6615099
1.6649821
1.6827824
1.7098081
1.6608133
1.6931998
1.8268548
1.7708674
1.8555385
2.0092977
1.5356387
1.5477456
1.5470906
1.5503135
1.5509008
1.6186803
1.6090342
1.6170056
1.607447
1.5400333
1.5563106
1.5560839
1.5586831
1.5589459
1.6284647
1.6272802
1.6350066
1.6325201
1.6393617
1.6409179
1.646364
1.6484182
1.6536773
1.6559024
1.6620126
1.6600889
1.5466931
1.564292
1.5675441
1.5676825
1.5641759
1.6319481
1.63204
1.6377432
1.6360799
1.6582401
1.665197
1.666762
1.6589133
1.6716529
1.6787023
1.6757115
1.6683916
1.5628732
1.5895191
1.5988801
1.5889553
1.5859102
1.5755211
1.5856839
1.587944
1.5757163
1.6531793
1.6364506
1.6359969
1.6364434
1.6378066
1.6045329
1.6339848
1.602952
1.6087422
1.6240364
1.6646406
1.6652673
1.6570083
1.6522724
1.6339303
1.6360332
1.6287729
1.6282129
1.6407903
1.6965699
1.6651641
1.6557429
1.6299071
1.6547145
1.5821525
1.6544764
1.6052133
1.6860866
1.6841832
1.6928967
1.8957545
1.6722631
1.6642584
1.6617937
1.6864224
1.6869669
1.7284733
1.6679448
1.6619399
1.6755334
1.7296628
1.6223661
1.655099
1.6684603
1.5822453
1.6306951
1.6659524
1.5763397
1.6475812
1.6790451
1.8044776
1.693369
1.6930465
1.6697385
1.8560153
1.5467879
1.567004
1.578576
1.5759885
1.5677072
1.5401194
1.5403297
1.5349471
1.5352046
1.6219157
1.5593474
1.6330668
1.6305606
1.6220074
1.5583547
1.5341727
1.5343597
1.6392532
1.6137959
1.6474851
1.6461224
1.6366666
1.6124702
1.6509385
1.6471779
1.6556827
1.6422007
1.5589301
1.5852893
1.5905868
1.5954495
1.5909104
1.6509547
1.6395486
1.6499655
1.6397716
1.6545432
1.6643356
1.6642393
1.6550592
1.6697641
1.6777325
1.6773564
1.6686685
1.5874831
1.6006002
1.6161389
1.6147836
1.6014357
1.6441277
1.6226304
1.6213383
1.6373247
1.6478369
1.6535737
1.6416797
1.6562738
1.6462458
1.6517744
1.686946
1.6740595
1.6630362
1.706007
1.6689123
1.6590381
1.6749763
1.6651812
1.6763595
1.6629678
1.6695373
1.6722686
1.7411886
1.7799245
1.7379824
1.6932027
1.6849313
1.6903819
1.6769319
1.6726959
1.7032964
1.6931576
1.6759144
1.6837754
1.7099882
1.6859247
1.7439887
1.7844489
1.5720229
1.6994241
1.6827236
1.6776826
1.7297937
1.7326334
1.6810867
1.6729614
1.6640526
1.6709852
1.682054
1.6738616
1.7965887
1.6968298
1.7021933
1.9055793
1.7039652
1.6507799
1.6924883
1.6592608
1.681309
1.6787446
1.6853508
1.6908351
1.6870105
1.6787717
1.7165227
1.7080027
1.711171
1.7072147
1.6957617
1.6491531
1.7517178
1.7200177
1.6639754
1.9421123
1.9921519
1.720969
1.5786736
1.6001042
1.6157713
1.62267
1.6136591
1.608812
1.6500427
1.64598
1.6477763
1.6575084
1.6923202
1.6737446
1.6979593
1.6798939
1.8176025
1.8110135
1.6095929
1.724521
1.5468509
1.5500805
1.5498371
1.5471892
1.6118041
1.6108077
1.6195836
1.6205574
1.6324186
1.6232307
1.6308072
1.6214389
1.5402573
1.5542136
1.5547671
1.5572361
1.5582288
1.627964
1.6258661
1.6329706
1.6307689
1.6422973
1.6416431
1.6501785
1.6492288
1.6532492
1.6556208
1.6605808
1.6633409
1.5465124
1.5638246
1.566562
1.5662206
1.5639196
1.6331733
1.6340778
1.6322311
1.6315093
1.6483792
1.6509637
1.658754
1.6539036
1.6726632
1.6783486
1.6801287
1.6733862
1.5627593
1.595015
1.5922136
1.5863983
1.5888281
1.5886072
1.5915945
1.576966
1.5759447
1.6112639
1.6129075
1.5930767
1.5999136
1.606398
1.6007785
1.635626
1.6355929
1.6299337
1.6352369
1.6763265
1.6451494
1.6534724
1.6544869
1.632254
1.654438
1.6172836
1.6262196
1.652312
1.6113478
1.638321
1.6293376
1.5793875
1.6789805
1.6718872
1.6012829
1.645763
1.6397726
1.6457705
1.6248072
1.6485189
1.6104373
1.6547335
1.6657042
1.6789291
1.6704439
1.6230435
1.6568124
1.6651212
1.6659824
1.6830953
1.6994242
1.6746288
1.6723984
1.695334
1.6616242
1.6701392
1.5680246
1.6286675
1.6651169
1.5859125
1.6580738
1.588197
1.6669818
1.6192486
1.5461149
1.5762814
1.5652387
1.5740529
1.5650649
1.5394198
1.5403358
1.535743
1.5351818
1.6186636
1.5566185
1.6272261
1.6291707
1.6197891
1.5571732
1.5349841
1.5349664
1.6347136
1.6112409
1.5487214
1.644059
1.6465048
1.6118016
1.6383662
1.5489676
1.6527963
1.6289942
1.6612003
1.6599457
1.6508093
1.6270688
1.5599559
1.5799724
1.5858776
1.5866994
1.5813752
1.6319995
1.6396921
1.6440974
1.6368696
1.662149
1.6486144
1.6582943
1.6522724
1.6665643
1.6753644
1.6765856
1.6682828
1.588634
1.5981948
1.613002
1.6143505
1.5981008
1.6303904
1.6213353
1.6238421
1.6303
1.6412628
1.6471537
1.6374038
1.6511582
1.6398605
1.6440759
1.6713603
1.661997
1.6635296
1.6788415
1.660724
1.6593391
1.6684247
1.6655113
1.6718173
1.6546822
1.6681704
1.6634168
1.7247862
1.6696757
1.6462932
1.7248252
1.6780604
1.6675487
1.6498449
1.6848163
1.6490442
1.6866281
1.6725325
1.6665653
1.6831496
1.6818895
1.8009577
1.9492978
1.7808009
2.028946
1.6848039
1.6794002
1.6428431
1.745773
1.6839847
1.6850168
1.7412654
1.7273306
1.6833392
1.6866166
1.8064857
1.6784472
1.6779467
1.6991524
1.6698734
1.7212594
1.7038646
1.8131417
1.7030936
1.7137071
1.6800767
1.6763139
1.69188
1.6923287
1.6908901
1.6815228
1.6803203
1.7006863
1.6877601
1.6531659
1.715924
1.6715242
1.6855157
1.6891841
1.5917721
1.5643232
1.7659493
1.7205687
1.5822427
1.5945165
1.6401079
1.6368089
1.6308747
1.6359515
1.6625846
1.6548387
1.6321579
1.6355665
1.6626432
1.6447364
1.6619227
1.698911
1.7240083
1.8209052
1.6854652
1.7029565
1.5486674
1.5453374
1.5453372
1.5479008
1.6090086
1.6174515
1.6200089
1.6110886
1.6264217
1.6250572
1.6334567
1.6345183
1.6466283
1.6374114
1.6444791
1.6352968
1.5393129
1.5537746
1.5537061
1.5569158
1.5572538
1.6232348
1.6224813
1.6286644
1.6283313
1.6426595
1.6394257
1.6484395
1.6444298
1.6570905
1.6569739
1.6651994
1.6647977
1.5467458
1.5625377
1.5665999
1.5662647
1.5630036
1.631975
1.633838
1.6345459
1.6326109
1.6455131
1.6486152
1.6490454
1.6460002
1.663259
1.6668034
1.6736867
1.6690346
1.5624679
1.5937536
1.5936523
1.5852473
1.5916639
1.5883517
1.5877617
1.5750737
1.5762018
1.6248777
1.6124512
1.6078753
1.6042757
1.6146837
1.6051866
1.6362806
1.6403996
1.6369953
1.6353325
1.6100811
1.5731636
1.6041855
1.5556375
1.6220462
1.6036163
1.6199879
1.6281783
1.6547961
1.6561442
1.6529522
1.6529822
1.6137045
1.594419
1.6674135
1.6685116
1.6272547
1.6409075
1.6680059
1.6144509
1.6124855
1.6371722
1.668251
1.6043169
1.684855
1.6780472
1.6047165
1.6409085
1.6467717
1.6558008
1.5771449
1.6471958
1.6587199
1.6653867
1.6035332
1.6666098
1.6745835
1.6891658
1.7013829
1.6787345
1.6637645
1.6711093
1.57662
1.6458251
1.6319397
1.5442915
1.5644761
1.5696716
1.5710553
1.5652189
1.5408039
1.5412257
1.5362758
1.5354963
1.6247749
1.6140807
1.5558694
1.6229684
1.6142533
1.5548544
1.5342263
1.5349186
1.6312287
1.6090338
1.548471
1.6392477
1.6425476
1.6095824
1.6332832
1.5488486
1.6481101
1.6256742
1.6006867
1.6567288
1.659981
1.6280994
1.6009139
1.650828
1.6432758
1.641642
1.5610916
1.5762337
1.5834353
1.5832721
1.5767988
1.6282976
1.6341933
1.6371098
1.6303211
1.6447316
1.6530227
1.6538746
1.6454535
1.6728966
1.6600293
1.6681255
1.6640684
1.6028799
1.5979252
1.61134
1.6119975
1.5981339
1.6255786
1.6183542
1.6175165
1.631443
1.6391926
1.6489991
1.6356969
1.6472243
1.6364424
1.6385936
1.6655027
1.6458391
1.6564809
1.6621751
1.6549873
1.6606747
1.655632
1.6590686
1.6647888
1.6593285
1.6688647
1.65888
1.6351331
1.6609453
1.6536813
1.6716598
1.6717278
1.6696005
1.6660423
1.6782522
1.6308782
1.6818429
1.6626884
1.6394358
1.6280057
1.674059
1.7103176
1.6021071
1.5822002
1.6576927
1.677403
1.6563392
1.610537
1.6644783
1.6819806
1.673468
1.6403958
1.655079
1.6856707
1.6602604
1.5876094
1.6899726
1.7399793
1.7776335
1.6938895
1.9282459
1.6819807
1.8655043
1.7081886
1.8271894
1.6709811
1.6613299
1.7048884
1.6982867
1.6978568
1.699889
1.7054134
1.7115912
1.7057388
1.6873096
1.645288
1.709288
1.6938702
1.6069371
1.6505109
1.5805709
1.6421177
1.6161427
1.5826607
1.5801348
1.6339179
1.6261135
1.6199694
1.6188837
1.6745682
1.6733994
1.6512487
1.6636398
1.6814351
1.6567741
1.6233385
1.6537269
1.6808499
1.6076869
1.6474343
1.695724
1.5290143
1.5916332
1.5935089
1.6017776
1.5996666
1.5336371
1.5481897
1.5451291
1.5452135
1.5476019
1.6145527
1.6064207
1.6077482
1.6153354
1.6239309
1.6321832
1.6356389
1.6277007
1.640136
1.6394763
1.647952
1.6485423
1.5391264
1.5515391
1.5519015
1.5552029
1.555572
1.6217193
1.6202882
1.6272826
1.6260593
1.636219
1.6341942
1.641659
1.6399176
1.6567876
1.6520345
1.6632365
1.6579204
1.5451021
1.5619331
1.5659512
1.5657925
1.5618235
1.6288245
1.6333308
1.6325593
1.6290922
1.6432975
1.647851
1.6485895
1.6444983
1.6580462
1.6622186
1.6637813
1.6598043
1.5631452
1.5907739
1.5939161
1.5890018
1.5865237
1.5910111
1.5962302
1.5796722
1.5761541
1.6233926
1.6219955
1.6137753
1.6042854
1.6214021
1.6033354
1.6413387
1.6400855
1.6367887
1.638254
1.6717447
1.6146356
1.6248873
1.6229642
1.6349824
1.634724
1.6230353
1.6404845
1.6581422
1.655899
1.6515853
1.652027
1.5767107
1.5311511
1.5695655
1.611085
1.528551
1.6328581
1.5713052
1.6289335
1.6270977
1.6400291
1.6671945
1.6699748
1.6693682
1.6672695
1.6356756
1.6197667
1.6504655
1.6470542
1.5886371
1.6198442
1.6473805
1.5771311
1.654363
1.6449862
1.6540531
1.6959427
1.6584274
1.6650112
1.6228444
1.6931021
1.6766834
1.6945046
1.7222602
1.5891965
1.5454679
1.561302
1.5663325
1.5661766
1.5615776
1.5385268
1.5385773
1.5333693
1.5333965
1.6121934
1.5567981
1.619995
1.6218261
1.6130769
1.556897
1.5357311
1.5362575
1.6356439
1.6252057
1.6043706
1.547723
1.6348837
1.6046708
1.625726
1.5469527
1.6435381
1.6210846
1.5991461
1.651745
1.6551596
1.6229761
1.5990787
1.645797
1.6392337
1.6153448
1.6407787
1.6160206
1.5690028
1.5772842
1.5848406
1.5831537
1.5755556
1.6232696
1.6297918
1.6304197
1.623968
1.6399796
1.6466281
1.6506517
1.6423995
1.6561654
1.6642238
1.6644171
1.6561244
1.6158207
1.6053595
1.6221261
1.6121739
1.5965191
1.6723275
1.6379119
1.6452269
1.6256594
1.6393035
1.646724
1.6315623
1.6485296
1.633612
1.640138
1.6619892
1.6566267
1.6688599
1.6808037
1.6546754
1.6628104
1.6576288
1.6567309
1.656044
1.6590805
1.6468841
1.6510811
1.6785878
1.6292697
1.6636839
1.6486397
1.6666053
1.6726049
1.6646251
1.6596439
1.6642929
1.6762584
1.6668628
1.671984
1.6652572
1.6704212
1.5660681
1.5997844
1.5768343
1.604204
1.6779638
1.6689477
1.6366458
1.5554086
1.6717993
1.6471541
1.5751428
1.5607647
1.6687031
1.632847
1.577384
1.6820759
1.666422
1.6036137
1.6833035
1.6192485
1.7025518
1.9194002
1.9586607
1.9169166
1.6535481
1.6325391
1.6810635
1.6957821
1.6922924
1.694341
1.7553999
1.7326569
1.7260087
1.7414478
1.7498415
1.7104366
1.7294664
1.6801849
1.6193026
1.8557266
1.6944685
1.5884084
1.5702089
1.6087034
1.6144815
1.5667913
1.6078148
1.6187151
1.6776953
1.6713353
1.651856
1.6472574
1.6693936
1.6779759
1.6564278
1.682637
1.6130011
1.67451
1.5984539
1.5938536
1.5303067
1.5299023
1.5281868
1.5366504
1.5371588
1.5369992
1.5364879
1.59108
1.5983125
1.5993518
1.5913873
1.5763984
1.5830434
1.5847689
1.5773875
1.6056048
1.6081428
1.61743
1.6143324
1.5331835
1.5463071
1.5431886
1.5431891
1.5454904
1.6128226
1.6051549
1.6068415
1.6140012
1.6269798
1.6195532
1.621979
1.6291091
1.6366296
1.6444583
1.6487831
1.6402993
1.537772
1.5555924
1.5518055
1.5544927
1.5509826
1.6165442
1.6157581
1.622361
1.6218781
1.6330043
1.6313984
1.6386762
1.6371777
1.6489868
1.6464368
1.6545962
1.6521288
1.5444744
1.5623062
1.5672045
1.5652929
1.5613149
1.6269527
1.6314096
1.6329736
1.6273575
1.6398676
1.6457479
1.6465287
1.6408457
1.6555398
1.6607634
1.6620688
1.6569285
1.5550629
1.5939673
1.5884546
1.5885346
1.5977548
1.5793013
1.5984941
1.5953447
1.583095
1.6263048
1.6173121
1.6109714
1.6187554
1.6071569
1.6255668
1.6359439
1.6313171
1.628898
1.632917
1.6348674
1.6403306
1.6378575
1.6250856
1.6416359
1.6187713
1.6378306
1.6378026
1.656302
1.6543849
1.6528625
1.6533203
1.8265097
1.6917995
1.6552713
1.644442
1.6069764
1.6527125
1.6448447
1.631299
1.6352961
1.6519038
1.6712941
1.6685019
1.6645748
1.6654672
1.531374
1.5739722
1.6189912
1.643294
1.5923554
1.6127026
1.6345109
1.6505099
1.6439912
1.6326125
1.6142849
1.5592119
1.6052198
1.6283497
1.7084789
1.6582191
1.6380005
1.6673358
1.6738828
1.7423506
1.5489103
1.5615704
1.5673562
1.56532
1.5606794
1.5384013
1.5391242
1.5337108
1.5346125
1.6076035
1.5540068
1.6152144
1.6163978
1.6083438
1.5541801
1.5335821
1.5335176
1.6034463
1.6235419
1.5489628
1.6314379
1.6332746
1.6038912
1.6239737
1.5490154
1.64739
1.6372877
1.6156424
1.5949511
1.6464304
1.6163376
1.5948582
1.6381053
1.6343535
1.611944
1.635832
1.6119764
1.6296954
1.6302393
1.583346
1.5808329
1.5910779
1.5842649
1.577529
1.6227445
1.6303618
1.6311023
1.6231293
1.6350615
1.6435356
1.6432628
1.6369903
1.6511439
1.6581783
1.6620586
1.6537714
1.5915034
1.6467988
1.63752
1.6079969
1.622625
1.6324413
1.6169124
1.6398792
1.6645684
1.6339459
1.6430579
1.6421003
1.6444337
1.6305826
1.6358412
1.7116847
1.6620088
1.6893776
1.6572514
1.6532182
1.6615988
1.654719
1.6498724
1.657516
1.662438
1.6593621
1.6550871
1.7042236
1.7011234
1.7144716
1.7154881
1.6646156
1.6724514
1.6660946
1.6552619
1.6530119
1.6653011
1.654943
1.6702096
1.6149464
1.6626852
1.6670922
1.591651
1.7071317
1.610602
1.6732375
1.6633269
1.6467039
1.6333864
1.6750169
1.6767636
1.6765465
1.6003022
1.676828
1.6333036
1.6127093
1.6598809
1.6118452
1.5302656
1.6442804
1.5901282
1.6812453
1.668953
1.719896
2.0134328
1.6350377
1.5922874
1.6530717
1.6519352
1.6642497
1.66287
1.7104021
1.729129
1.7293949
1.7281354
1.795971
1.75402
1.7217488
1.7738642
2.1115172
1.7055886
1.866571
1.7484646
1.5669106
1.5548728
1.6404092
1.6052392
1.6542557
1.6022045
1.5455839
1.5937617
1.5907862
1.6417665
1.6640353
1.6840387
1.6990433
1.6649756
1.646638
1.6334538
1.6480203
1.6458593
1.6454044
1.530004
1.5284494
1.5378377
1.5390225
1.5390672
1.5381675
1.5290938
1.5365851
1.536969
1.5373318
1.5370738
1.5910937
1.5975456
1.5990381
1.5919922
1.5280338
1.5338435
1.5338796
1.5342798
1.5340286
1.5770069
1.5831332
1.5832904
1.5764136
1.6042361
1.6116048
1.6137306
1.6053184
1.5885177
1.5965299
1.5986896
1.5901053
1.6187974
1.6220785
1.6309807
1.6275097
1.5322366
1.5460327
1.5428347
1.5447998
1.5420809
1.6081387
1.600418
1.6023066
1.6092355
1.6244579
1.6176402
1.6195604
1.6259167
1.6394097
1.6321333
1.6349337
1.64179
1.5362124
1.5510249
1.550591
1.5537522
1.5547622
1.6207195
1.6140723
1.6205293
1.6137554
1.6281915
1.6269293
1.6341994
1.6330563
1.6452253
1.6435107
1.6508909
1.6492983
1.5421343
1.5615546
1.5663301
1.567585
1.5619469
1.6216504
1.6243504
1.6277197
1.6233856
1.6381524
1.6448086
1.6459142
1.6387926
1.6519102
1.6583141
1.6596235
1.6532364
1.5584832
1.5835421
1.5719678
1.5796817
1.5814717
1.5725181
1.579231
1.5843369
1.573748
1.6206546
1.6133118
1.6264137
1.6244776
1.6142145
1.6115724
1.6189296
1.624947
1.6234769
1.6214512
1.6649974
1.6063993
1.6141184
1.6295996
1.6236168
1.6107181
1.632708
1.650584
1.6484864
1.641002
1.644903
1.6487663
1.6837252
1.620342
1.8276693
1.6537166
1.6462004
1.6498315
1.6171706
1.6358354
1.6468214
1.6483967
1.6686566
1.6670475
1.664671
1.6653688
1.688031
1.6695881
1.6528089
1.6655269
1.7080801
1.6014491
1.6469526
1.6633573
1.5385596
1.5928915
1.6268903
1.5898718
1.6202542
1.6414959
1.647168
1.6960284
1.5841535
1.6269677
1.781283
1.6489824
1.5550606
1.536405
1.5400417
1.5619925
1.5689327
1.5670481
1.5617007
1.5394825
1.5358501
1.6076235
1.5541334
1.6148751
1.6148366
1.6067867
1.553543
1.5338126
1.534263
1.6193847
1.5984722
1.5462983
1.6266666
1.6284744
1.5993158
1.6200362
1.546368
1.5948516
1.6155775
1.6350643
1.6427468
1.6447528
1.6151536
1.5948887
1.6356913
1.6281944
1.6067731
1.6291378
1.607194
1.6257976
1.625855
1.5667085
1.5802375
1.5921039
1.5987374
1.5843664
1.617986
1.6254538
1.6277485
1.620283
1.6342938
1.6428655
1.6440957
1.6348269
1.6464403
1.6545437
1.6549667
1.6478804
1.5755218
1.6169284
1.6072164
1.6200599
1.6195019
1.6319428
1.6242214
1.6135327
1.6042309
1.6752832
1.6709985
1.6398579
1.636499
1.6451975
1.6447273
1.6503805
1.6343899
1.6625821
1.6869342
1.6489081
1.6599096
1.6539162
1.6618557
1.6513531
1.6615432
1.6532522
1.6510209
1.723857
1.6476159
1.696726
1.6549729
1.6640556
1.6715281
1.6638887
1.6547704
1.625322
1.6674009
1.6652062
1.6729225
1.6621427
1.6652328
2.0051216
1.800737
1.6852759
1.7816541
1.6747762
1.6546644
1.5998638
1.6371943
1.6743517
1.6663425
1.6236013
1.5654718
1.6694232
1.6635029
1.6591851
1.6820056
1.6887595
1.6740636
1.6499081
1.5720255
1.6280647
1.5497088
1.6028343
1.693836
1.596285
1.5500809
1.6330382
1.6262706
1.602334
1.6009281
1.6878594
1.6934944
1.7031009
1.69793
1.7651724
1.7065746
1.7233958
1.7589109
1.7093565
1.7801264
1.6851141
1.7144289
1.5552991
1.535297
1.5353966
1.5354908
1.6413359
1.6390349
1.6437969
1.6715988
1.569043
1.5625992
1.5382666
1.5724621
1.5753929
1.6371992
1.6274025
1.642161
1.7095696
1.7119965
1.8033986
1.6392081
1.6580389
1.5290908
1.5386921
1.5373317
1.5282535
1.5371979
1.5380162
1.5274682
1.5353274
1.5351752
1.5344512
1.5347497
1.5865275
1.5929075
1.5947169
1.587919
1.5288342
1.5344364
1.533873
1.5343191
1.5345943
1.5783481
1.5791909
1.5847842
1.5839054
1.6041668
1.6105307
1.6123429
1.6051771
1.5319493
1.532251
1.5321719
1.5318851
1.5638883
1.5647376
1.5700635
1.5693095
1.5887644
1.5961266
1.5969342
1.5886967
1.616401
1.624143
1.6268256
1.6181757
1.600445
1.6091176
1.6121117
1.6025411
1.531115
1.5420258
1.5416858
1.5442528
1.54519
1.6063423
1.5987739
1.6060983
1.5986518
1.6197985
1.6127726
1.6148196
1.6211632
1.6366873
1.6298651
1.6321115
1.638335
1.5362308
1.5494281
1.5497631
1.5523866
1.553201
1.6115299
1.6113514
1.6178391
1.6165707
1.6315286
1.6248754
1.6319596
1.625258
1.6403729
1.6387425
1.6465153
1.6449818
1.5423521
1.5604169
1.5631607
1.564266
1.5616548
1.6140117
1.6146901
1.6166571
1.6155855
1.63302
1.6377148
1.6415496
1.6351634
1.6500884
1.6570025
1.6582458
1.6509252
1.5668256
1.5740099
1.5753124
1.5899193
1.5952145
1.5879833
1.5775312
1.5858366
1.5728931
1.6284172
1.6124571
1.6104435
1.5972579
1.6113765
1.606037
1.6156259
1.6200963
1.6237318
1.6179748
1.6195786
1.6190929
1.6288591
1.6227396
1.6421842
1.594939
1.6046967
1.6279895
1.6363557
1.6352433
1.6371885
1.6371649
1.7254055
1.5513823
1.6209894
1.5835784
1.6360117
1.5982406
1.5547229
1.6149547
1.6429778
1.7392666
1.660853
1.6513301
1.6576046
1.6613106
1.938298
1.6489298
1.6503934
1.6591374
1.6383683
1.6202994
1.6414481
1.6579528
1.7167227
1.6593751
1.6590949
1.5559562
1.6220988
1.6574689
1.5602136
1.6186867
1.5911682
1.6336668
1.7379134
1.6285514
1.5497019
1.5624913
1.5686779
1.5683809
1.5613489
1.5366519
1.540392
1.5397693
1.5361978
1.5542041
1.5353456
1.6057111
1.6107547
1.6131635
1.6061866
1.5540053
1.5350551
1.6189075
1.5986472
1.5468121
1.6258797
1.6263205
1.5976131
1.6187098
1.546245
1.5300342
1.5304823
1.630396
1.6114477
1.5895923
1.6380217
1.6394783
1.5905562
1.6117432
1.6311612
1.6075163
1.6271592
1.6271544
1.6066534
1.6196059
1.6203603
1.5808895
1.5600696
1.5932235
1.588689
1.5789543
1.6183012
1.6265777
1.6245921
1.615615
1.6319124
1.6398024
1.6414607
1.6330371
1.6461901
1.6546703
1.6554786
1.6464454
1.601298
1.5977802
1.5588242
1.6063659
1.609832
1.6015274
1.5956504
1.593827
1.5936681
1.6451776
1.6357403
1.6423656
1.6685368
1.6743291
1.6299012
1.6718163
1.6721636
1.6464253
1.6401758
1.6601727
1.677679
1.6652529
1.6558311
1.6505712
1.6574968
1.6597605
1.6578365
1.671724
1.6480967
1.6571902
1.6592341
1.6618517
1.6705537
1.6651296
1.6594088
1.6702831
1.6605422
1.6450303
1.6716178
1.656007
1.6628674
1.6554491
1.6545575
1.644956
1.6279756
1.6729596
1.6624374
1.6331149
1.5642529
1.6771235
1.6724454
1.6618321
1.6338146
1.6596026
1.5801532
1.5417342
1.6750422
1.6889786
1.5750247
1.6766314
1.6964318
1.6930443
1.7287493
1.5813908
1.553977
1.6134693
1.53982
1.5691391