/*--------------------------------*- C++ -*----------------------------------*\
  =========                 |
  \\      /  F ield         | OpenFOAM: The Open Source CFD Toolbox
   \\    /   O peration     | Website:  https://openfoam.org
    \\  /    A nd           | Version:  7
     \\/     M anipulation  |
\*---------------------------------------------------------------------------*/
FoamFile
{
    version     2.0;
    format      ascii;
    class       volScalarField;
    location    "1000";
    object      omega;
}
// * * * * * * * * * * * * * * * * * * * * * * * * * * * * * * * * * * * * * //

dimensions      [0 0 -1 0 0 0 0];

internalField   nonuniform List<scalar> 
33730
(
638.15816
2087.1047
485.27383
589.46993
925.45872
855.54454
710.37477
725.54414
435.24743
446.75363
503.9442
498.6414
3648.7076
2111.158
2234.0665
1745.6955
2144.1015
2072.8306
1948.6668
484.83539
376.25478
370.64566
412.1642
421.62726
614.18103
950.78083
433.45498
684.74489
689.73159
812.27517
491.47374
474.82309
425.84774
1159.4079
1088.1226
801.76966
561.72186
821.01679
564.36755
386.31924
386.91262
425.5046
432.37118
1046.0456
4340.4582
3073.5902
3241.8719
2857.4115
3722.6105
3369.5016
2161.0335
2275.2031
1691.3087
1776.4564
2177.0749
2085.6166
1920.3118
2142.1499
2099.6556
1890.934
475.66427
370.36033
370.79327
413.84155
414.8567
348.52376
343.91419
362.19762
367.14727
576.89811
1036.5303
445.48011
445.39842
789.93815
1066.166
778.94098
525.55168
526.45932
1213.6551
385.48272
829.12417
569.57941
891.61748
543.56592
1178.7721
423.46864
409.1782
378.81843
1253.3165
1227.6222
794.61711
640.86793
516.73295
658.22996
718.12223
508.86799
403.61748
408.17017
445.68631
451.61676
652.78112
1065.1102
486.54273
653.53653
625.40423
475.04748
1684.0511
1211.8448
1653.083
1219.0855
4248.4135
2522.1516
2921.7411
3211.2287
2049.9083
3237.7548
3302.856
3467.6915
4009.9669
2998.9071
2171.1143
2275.1141
1654.38
1582.1046
2085.058
2144.2062
1783.2271
1906.1052
2181.8405
2210.2215
2174.6894
2236.4154
1958.7739
2026.401
481.34579
362.9893
405.8361
410.88831
368.25524
352.43463
347.87458
362.17779
367.74018
383.76705
373.56884
382.15638
393.1414
578.46615
845.21641
884.35937
405.21033
405.63298
450.24035
461.19591
703.52575
662.63187
1244.0647
396.86881
384.13605
937.8011
654.40294
1308.6676
923.76249
629.56859
433.76385
440.67418
1294.981
411.62092
672.38324
852.91325
508.67193
665.45441
1043.5399
472.66292
1345.1972
433.90448
444.72727
416.35054
1065.7095
2121.5837
666.59263
654.72426
602.60053
520.51825
679.43061
585.75295
681.66386
516.32226
507.2939
519.54673
536.63
515.45522
464.91915
687.93863
432.95724
333.82763
426.1382
352.5717
876.58954
470.02006
628.4612
689.39458
529.06126
1113.8912
1630.2089
1104.2846
1592.2064
377.58051
435.28406
811.40574
428.69803
804.19484
368.07226
1768.4754
1251.1626
1772.8028
1299.089
4487.547
1856.4588
2902.4509
2831.7886
2834.2534
1255.935
3129.5746
3500.1637
3300.7395
3651.7389
4087.3855
3515.8605
3567.6182
2896.7615
2223.9123
3508.2147
1493.6951
1084.361
2071.7459
2555.5576
1657.8607
1946.9092
2257.1485
2641.9877
2147.8686
2276.0938
2338.0877
2002.017
2004.7473
2271.1934
1812.019
2610.3343
397.15087
485.4582
348.83085
391.02896
391.87818
350.66965
345.03874
362.28679
375.13804
357.18094
378.3253
374.59458
386.15097
390.89098
502.05363
464.2492
486.33727
515.48541
623.1237
832.7709
791.66808
643.93444
671.99072
407.04888
414.70848
461.62587
458.36603
1114.9431
1136.9367
376.61212
366.6597
403.84354
534.1059
440.64829
585.21445
818.53249
851.13514
1293.9093
409.26752
395.52417
777.59111
819.0696
547.69286
1124.3413
811.16019
729.2239
529.13495
432.67824
437.29823
1243.7901
531.36753
644.25312
588.03539
611.40415
506.06168
552.93115
661.20328
1190.5558
493.22821
1060.7399
515.44475
550.72039
551.68134
1373.1153
569.40546
599.82916
561.21645
860.17175
564.11139
584.06409
540.21125
532.66533
437.28944
570.26753
441.98269
545.60111
340.38181
428.12969
464.98929
369.9222
346.43748
334.94431
352.31219
334.95321
791.9428
449.23641
607.44758
635.4539
442.74573
1108.9467
1065.5972
1247.3476
1517.958
381.92142
440.43621
739.45597
467.76958
787.53035
397.04456
1252.5674
1980.9003
1185.9927
1894.9293
403.29481
561.45263
436.02481
918.22733
441.5649
560.21348
909.46181
401.73138
1349.8813
1029.8104
1401.1927
1230.5447
4524.6256
1012.0404
2575.3836
4677.7471
2603.5334
619.55008
3263.4201
3374.2464
3301.5769
3606.9155
3992.6936
3699.7073
3680.1165
3634.7609
3579.223
3039.7545
3252.1649
4426.7593
2234.4568
870.52801
2029.0909
1158.8522
1902.0734
2415.3442
2803.2701
2250.5387
1899.6722
2370.6928
2293.029
1919.9675
2259.3795
2420.1602
1934.4246
1846.5856
2226.6097
1810.549
401.12405
304.66852
306.35036
339.85849
335.02065
477.91189
357.23085
396.6755
394.04654
350.20186
332.27713
349.24091
352.49968
334.48264
374.85682
381.36883
394.69095
386.08758
474.29586
480.76802
508.61915
496.96376
646.05454
717.63978
914.13369
416.78395
425.98701
965.82471
735.46419
494.03969
476.97911
1021.7318
1083.3754
784.00565
539.73955
779.07407
555.21523
369.90333
377.2181
423.8494
408.78835
1328.1532
1297.5513
416.50193
425.13253
482.68656
450.98457
637.99572
564.77689
455.82457
699.93746
816.56231
1016.2338
1161.8662
491.20897
476.46269
850.82582
638.49954
769.36787
539.83333
701.29585
746.42153
711.75915
594.19837
523.99395
475.37769
475.97522
671.93976
611.06871
577.68957
519.64398
550.60589
520.2501
681.84589
544.9024
500.65924
538.30594
600.69082
528.8952
544.88968
584.7253
583.04574
419.06677
503.34711
413.50176
324.43916
271.72431
315.25227
275.79408
498.77238
326.71531
389.75372
395.05501
322.67488
349.99455
360.01411
365.02003
347.45276
389.6039
380.74877
390.12717
394.04795
735.25988
428.01951
551.89236
566.92706
436.8041
1265.5542
984.1917
1180.8717
996.19698
392.95066
473.07524
782.84918
461.87385
786.40108
389.64615
1266.9184
1221.4878
1511.5666
1887.0405
411.18727
556.80376
445.96596
855.69657
451.19885
593.62198
876.86314
412.1123
1236.3534
2240.5784
1189.2181
1647.0428
529.45826
569.68718
707.54117
530.53496
938.92497
553.74391
560.17068
690.16386
902.04109
553.7458
871.56265
901.66249
1175.7756
1316.2256
4410.683
3128.791
2902.3965
3430.8185
4314.7881
3375.2316
4988.9046
3947.687
3641.1263
3680.4208
3735.1047
3692.9711
3192.0199
3340.265
3196.0269
3066.2869
2664.2168
3349.3614
2209.4095
809.54601
2206.2466
2137.8334
2025.8262
2485.7499
2457.7577
2007.7366
1774.7296
2363.9101
2317.8628
1825.7688
2220.0754
2657.202
2117.008
1531.5904
3120.95
2253.0283
326.92313
396.97763
306.97997
308.68953
338.36272
338.66944
305.19009
306.59697
319.76678
317.05959
452.92731
363.2762
401.55611
398.97196
357.27141
340.04618
355.84675
349.86345
333.03759
385.21762
396.64592
389.36766
376.82272
467.70784
466.99488
483.85802
478.06329
612.01321
1250.9536
444.71182
457.56994
871.39105
767.83093
975.52432
535.53289
549.01687
807.73814
577.33503
1152.8171
381.26411
382.79096
1235.5548
841.58796
568.29039
424.99073
429.27546
964.65007
1442.3911
642.74563
969.62373
486.47284
654.2244
658.42462
522.14139
439.9464
472.44883
502.62604
471.78619
1968.2393
2155.1592
540.34344
536.79641
549.33747
514.34316
546.49034
689.17027
609.23742
562.12272
505.17622
703.60656
862.35769
1225.4707
1040.8983
652.92528
628.83819
539.55812
1093.1594
523.96391
590.92233
521.1174
783.35665
579.59272
576.84187
568.23988
497.32464
512.66716
546.2121
398.65259
733.97056
388.4659
273.83354
309.35095
310.20664
272.80504
293.29298
294.59481
435.308
434.60113
329.28427
317.86401
335.39399
317.35602
489.78383
338.92192
387.88879
397.52373
338.02105
352.95163
369.73987
359.08325
343.0704
398.04177
398.032
393.76804
386.21526
566.23771
523.53544
530.65335
583.41873
817.07731
501.45865
659.31862
623.91885
458.21744
971.02229
1291.9089
1046.1005
1326.6122
397.82935
463.37504
742.00126
449.64166
773.33651
391.89995
1714.9612
1171.2186
1518.5116
1211.6081
429.61556
638.54281
465.14557
935.44503
460.68187
586.13313
924.54263
426.71333
1312.0226
1222.5829
1046.3517
1856.3478
562.30404
558.23634
669.57494
571.4352
828.21842
528.90543
576.54589
716.57451
856.31662
543.51391
1619.4757
2995.1307
1159.3081
1159.2669
594.05564
744.04011
654.84928
1147.9358
585.80848
701.60368
652.57761
1404.8774
4435.6618
3525.9117
4306.716
4093.1069
3391.7503
3283.0388
3622.9456
3633.2523
3164.3029
3395.8126
3409.6818
3280.7404
3173.1365
3355.8984
3146.1596
3191.6697
2921.6418
4199.6803
2120.2064
1991.8173
2378.0952
2375.4603
1965.6193
1983.7503
1921.5085
2437.9029
2266.3715
1923.6458
1984.7369
2397.1521
2591.5177
2334.5095
2736.692
3432.0094
3157.2866
957.42887
328.79033
296.48108
275.69513
296.67054
275.26449
378.10381
311.85384
317.79855
343.97956
345.16028
304.09197
308.03848
317.61421
324.05341
396.06644
366.11251
370.14702
387.26499
448.81366
357.55888
400.30206
403.03167
355.92365
347.89069
362.37467
360.26347
343.71733
414.03438
443.98672
409.4894
393.35443
502.1249
509.148
506.83569
486.99304
587.84579
1082.5239
948.29571
438.29253
445.31316
528.67355
524.54243
749.2434
799.798
1411.7868
392.34932
407.72308
1019.082
680.00014
842.36267
635.31376
1224.8612
442.34694
468.11129
683.96557
669.93144
553.21958
1098.738
483.61472
471.81957
1432.6373
1069.3896
666.76368
501.14782
492.75153
498.42593
824.78031
1747.6967
759.55618
577.82035
1165.4647
500.81729
420.75789
785.96027
606.20237
546.23426
589.83529
670.57729
638.80723
613.57728
510.95327
561.78291
549.56975
1279.0107
517.6056
617.86166
560.04604
836.47148
889.79304
622.82011
626.50748
404.53785
573.15616
583.85873
566.34813
613.66097
838.28233
395.64774
286.26336
321.00259
318.93772
281.39276
296.27519
296.42481
433.19388
431.17203
327.57539
260.33223
338.86049
329.79785
315.22917
259.95519
380.13276
387.74975
393.66949
379.67366
478.5376
396.53226
344.18908
418.56182
338.41713
372.61013
376.48265
375.87971
365.88957
410.92896
411.99455
410.01305
406.5573
543.76429
543.27594
524.61077
518.76729
798.52894
458.24227
634.02937
721.47907
556.74213
1138.4286
1520.5478
1171.6883
1521.9827
452.61477
566.64523
884.60427
537.08934
790.41541
430.33211
1221.781
1841.6141
1385.1879
1726.8464
446.19242
490.2852
631.14069
949.06438
484.47538
679.6077
961.42511
438.66805
1795.7678
1342.8327
1200.1423
1338.2348
616.07351
618.31537
788.60331
612.23981
1059.3765
590.48642
584.82711
698.75367
1002.9644
657.80947
1552.639
1671.7105
527.68248
1695.4171
585.04063
656.38163
746.75322
668.59188
585.2326
696.91532
840.91522
726.41954
750.784
687.68422
645.52038
706.62511
682.03662
714.88688
4657.1438
4039.6393
3284.5108
3378.0726
3646.6721
3413.1503
3012.8615
2751.9155
3205.5035
3097.8926
2795.1334
3612.8178
3271.6339
2966.9776
3766.0034
3083.6941
2869.6179
2781.666
2032.7164
1884.7842
2095.8223
1722.3193
1907.6038
2171.3042
2283.7058
2336.8799
1915.4866
1951.5759
2003.7224
2471.5084
1813.0828
1939.4224
3133.7364
2887.7543
3902.7656
4891.3886
327.63764
278.95192
276.8521
299.16946
300.82191
292.1488
276.44618
290.501
275.37918
378.11357
309.99056
310.28415
338.24034
336.3074
312.26034
318.31374
327.97725
334.25612
389.56137
392.23898
387.82342
397.62525
507.22681
468.08031
481.36302
512.01027
438.95761
349.84631
392.6258
401.67969
354.73478
348.29672
372.59906
364.8876
343.8288
430.33137
445.67313
459.29223
436.86622
593.96712
647.67208
556.53608
540.9724
611.27746
853.66491
926.28759
744.68176
730.22775
422.46096
506.40612
536.14337
422.05772
1334.4166
1134.4161
395.27734
404.72533
461.90704
621.18952
463.59013
602.24026
806.74116
929.05013
1197.6833
442.68021
438.15538
963.67547
802.01605
563.77031
718.27304
839.99091
528.01459
1516.1013
463.13018
473.62424
673.04179
672.99342
546.3243
556.19265
817.88079
690.66889
655.79035
1390.5319
2321.4556
826.2322
625.04646
508.89195
624.63743
646.7038
1050.275
643.29096
573.90872
539.02394
1089.0591
537.05887
605.15455
566.97857
392.25982
502.23739
584.80973
334.32218
537.33867
622.75333
985.84075
628.84099
682.05744
560.91238
1083.6157
393.80229
277.48888
314.96246
319.99665
280.53544
296.77576
294.91881
435.81298
435.85489
345.8861
266.63676
368.70676
358.18647
343.47149
263.92187
283.04331
282.73316
446.60345
316.40889
428.17417
416.12546
421.64548
301.2555
507.27012
497.99322
522.14208
495.08076
509.51691
331.46642
394.90988
447.28436
356.45244
376.42866
372.34279
396.33804
358.16401
428.13906
430.34346
419.18267
421.96491
582.01298
580.55361
625.56557
595.28382
936.86975
470.45764
663.02855
634.8364
454.24329
1590.8074
1131.1717
1097.5878
1523.1666
428.30695
544.17393
924.74142
600.39987
952.69011
458.98051
1420.1908
1778.6223
1285.4287
2090.0908
470.52649
734.58554
560.53162
979.07808
521.72325
705.44891
964.49121
458.25394
1758.0223
2641.5964
1687.0271
1992.5369
588.60539
565.52903
639.57879
753.81724
1073.1401
605.19514
657.04379
841.85772
1191.1584
592.60794
2287.3368
2062.6761
730.91618
1493.4412
623.15472
720.31104
1000.0311
1322.495
596.60551
688.10082
704.89806
945.04041
654.58773
654.8725
1227.0382
696.19351
740.39071
1536.0853
736.22996
600.86297
708.84865
620.83966
4682.8609
3996.6677
3360.2008
3397.7055
3337.8099
3196.2086
2732.9155
2712.6804
3031.5424
2773.6898
2245.3267
1740.2757
3110.164
2803.4341
1921.8348
4985.0156
5875.2725
2651.1879
1999.679
2035.2026
2008.9532
2095.8993
1779.9216
1721.3557
2083.0531
1677.2004
1849.4875
2146.821
2235.6264
2179.5859
1938.1854
1842.4232
2995.7163
3280.174
1160.6981
2048.0976
277.4412
297.88127
298.72361
276.36445
283.5271
280.71518
296.98764
304.3885
381.15894
346.26377
374.60305
342.57233
376.16658
310.36272
310.592
339.63226
335.28666
314.67892
309.59451
327.76701
328.02567
406.7578
419.08207
418.20588
417.24996
498.67074
521.98807
513.45541
546.86395
457.13396
343.66137
388.92369
392.0479
346.35497
343.13896
364.05505
371.4517
346.65086
403.99936
410.67634
419.49878
415.26474
643.14308
654.79174
681.57449
648.6445
590.20609
1023.3394
960.5491
749.11514
778.03665
513.51167
466.87239
409.83087
422.6192
1036.8505
1029.5631
718.42945
633.44924
809.25057
620.62155
382.12297
435.48217
453.29607
387.18477
1293.0587
1101.8434
432.08218
434.46162
564.41494
478.37504
675.37337
539.75226
472.91885
629.39231
914.33359
880.2951
596.67471
567.54741
517.64985
641.08549
764.96982
635.3142
552.5919
634.37145
604.75301
718.29212
517.80459
1254.0541
552.26871
514.35407
627.30808
647.89001
639.10885
578.71958
885.21299
731.02311
621.84435
544.52925
774.71456
587.82847
587.92679
351.20113
516.50919
616.19323
367.81285
563.63794
355.39019
574.96306
434.96889
387.10166
325.08612
279.5657
312.26682
281.93376
298.34013
297.42197
429.02217
432.25184
327.17236
261.04755
350.23526
346.3392
333.00028
263.88382
282.53753
280.40818
454.19111
313.83922
246.13959
432.66953
441.03889
322.72185
468.40964
246.3994
599.25964
454.28226
595.15123
589.34569
564.06052
422.27028
606.89947
330.83863
408.12128
398.90167
327.46287
361.27448
383.85579
411.3122
384.36975
433.61169
435.35955
434.53083
431.70243
565.00908
561.42607
571.07396
592.74487
900.60229
500.06285
653.92001
687.026
519.02833
1453.9275
1106.2311
1102.7724
1471.1771
414.36142
524.98512
886.52767
544.5309
894.33521
411.71269
1636.4273
1268.0087
1289.0123
1762.944
460.35213
761.47794
550.2119
1056.1963
582.83459
776.73688
1048.6316
489.42382
1591.7289
1587.7357
1069.6545
2012.1773
527.52678
700.78708
727.76113
575.71785
845.06738
543.90813
664.59838
761.52279
1029.3442
543.14948
2130.8753
3986.9387
1926.4431
4843.7602
647.37026
737.79469
651.01885
1269.0603
661.27668
800.75907
1034.7034
1255.3825
696.9599
748.71557
1309.9645
680.93885
713.05513
870.55017
631.7292
845.98554
725.42695
1102.5784
726.29887
765.79391
4563.2866
3770.9924
3627.9909
3563.9729
3564.274
3441.8915
2670.4593
2720.0483
2589.3542
2203.0192
2466.588
1903.4707
2291.2287
2193.6048
1041.8828
750.80399
3037.4753
2581.8531
2086.2449
1971.082
2184.1218
2207.4875
1847.5614
1892.1287
2162.7884
2108.4804
1644.5432
1686.3366
1946.8266
1506.7422
1657.4366
2235.8466
2372.034
3453.167
1678.4084
1896.5028
299.18012
278.01484
275.62961
298.82206
276.0766
291.25314
307.15673
294.12763
392.81353
354.82875
388.51325
429.97575
488.16251
465.53076
464.78556
445.20028
385.37487
308.60666
305.4608
335.34217
329.93145
306.72462
308.57718
326.33876
326.0351
445.95549
414.28494
422.23916
405.78896
542.68926
551.77722
597.5589
601.04609
473.67705
340.43008
384.9431
392.43505
343.34718
331.26767
352.01569
357.73442
336.93282
392.99054
405.07488
408.78904
396.03087
521.99133
510.13821
575.66014
603.15608
521.42418
914.71691
979.72668
739.86165
746.4941
457.1987
449.27252
400.24699
404.43509
1170.1545
1051.6607
817.40795
616.93538
843.95322
594.19964
434.98311
428.77044
367.86832
378.30435
969.36552
642.35977
639.10915
427.99937
550.36242
730.41647
714.70738
536.9433
442.63236
471.51599
466.22508
431.61135
822.73236
713.65877
530.47672
513.29393
593.1757
559.87007
529.99488
639.05441
537.85015
537.48464
547.30093
586.97335
1142.7248
1135.4124
557.65121
624.10819
609.22406
552.0433
423.27011
595.26238
594.02959
536.34938
453.60959
615.61559
648.35565
703.68582
681.3381
615.57679
615.28653
595.11429
346.94424
541.22168
486.41941
404.58077
275.10814
310.16824
312.51868
276.67248
294.62385
296.1857
430.85545
432.33152
357.53295
328.01661
264.13362
344.03454
334.08148
263.65236
284.48855
282.47796
439.31771
308.28912
243.15146
452.88036
440.7801
317.64446
452.1181
246.31781
549.20478
458.59575
287.98493
555.5835
625.21246
484.49718
298.66242
614.1787
580.38949
539.43214
596.21136
350.24077
447.21712
463.98166
349.1836
350.85931
373.03238
370.42374
351.51088
442.65023
451.78231
453.91504
441.49391
536.07111
513.7427
508.26488
553.38127
1131.8136
455.93496
567.8586
575.39123
460.93319
1397.0565
1032.6214
1061.5924
1445.2023
422.63713
502.61005
808.09401
520.6542
866.0841
432.37692
1600.9745
1137.7339
1183.4653
1566.4372
436.17418
517.87915
703.53517
1011.4345
522.13498
746.85055
1050.142
447.47787
1221.5706
1181.7675
1106.871
1555.3451
555.31994
712.00537
863.18423
587.86418
772.71477
604.75128
718.49833
740.7283
775.31609
551.65233
1449.675
944.85274
620.22109
1369.357
679.24989
695.62339
544.98525
935.16902
636.88485
716.25118
654.52306
892.75675
734.17561
659.23043
434.19493
781.16134
968.84657
1164.6337
733.5026
1600.0571
693.06592
1385.8879
788.00069
1128.7412
4221.499
3315.1
3506.3831
3565.5158
3411.9087
3393.0226
3127.518
3165.0594
3157.9585
2868.1876
1839.4079
2568.1117
2286.5282
1399.9123
1651.6473
895.44561
1630.9369
1319.1536
2061.4547
1586.3495
2170.3007
2135.7325
1910.1726
1929.67
2199.4527
2206.7203
1674.8277
1808.6745
2022.354
1861.9028
1355.4319
1583.9528
1980.1396
1089.5605
1399.582
2072.874
226.72207
245.02945
247.21988
265.48767
259.17441
325.61909
294.73166
274.80733
275.85086
297.98564
292.89528
276.99979
272.18149
288.96865
393.02303
413.02121
492.76169
497.57351
488.70802
464.93851
500.22365
526.40947
398.57225
303.79015
303.41995
332.1153
328.37912
305.49671
301.14426
320.74218
314.90489
382.07436
370.03722
387.40174
379.69337
612.73793
532.77607
617.74428
524.60823
418.6831
342.20677
379.3798
386.58884
342.012
325.6448
343.52943
351.49237
330.068
384.22592
405.67209
408.72012
392.57832
495.3705
510.5421
507.13019
500.37832
494.31877
791.10611
655.50251
669.78165
789.93328
466.88727
493.68468
422.89417
409.03475
1093.8966
1114.6402
840.22155
547.35961
826.82481
546.45211
403.75714
395.81157
361.50092
359.54068
1394.3704
1020.9739
711.15027
831.42044
522.77178
858.33018
667.10782
525.09666
468.31205
457.874
415.72653
424.88814
686.79257
317.98005
434.44944
554.17013
257.38777
535.094
513.63326
704.59029
589.47761
530.74591
566.98299
584.76118
561.52653
563.66203
592.12967
561.92908
566.14422
805.39225
452.9364
539.27015
555.59156
467.31204
687.11274
589.38329
598.7845
781.76023
588.4711
602.54947
469.264
680.93539
597.27289
658.68621
762.83916
359.33537
420.40677
279.06944
316.27867
320.68178
278.82984
297.21198
297.28988
433.78227
434.28431
323.62506
259.47854
336.27284
337.27928
323.67954
262.03931
279.94511
282.60396
422.83889
402.71088
313.3498
245.41879
424.41528
317.62554
408.0291
245.57448
489.2675
387.86183
292.29893
514.75336
561.9546
438.14432
297.21094
551.51611
533.19213
411.48128
595.15512
466.94915
696.47537
339.93406
421.3812
432.94803
340.41694
356.73018
382.40035
387.19151
357.18722
410.49086
413.34347
430.46461
424.50829
567.65003
571.37587
538.74046
547.56784
1228.3423
554.11526
677.66764
635.11049
483.50094
2050.1236
1277.9198
1716.2547
1211.8469
395.36957
454.75789
724.00918
466.10317
727.39498
401.97213
1574.3942
1152.1355
1300.7451
1809.8678
457.8429
523.95557
630.89946
901.17176
669.19165
521.00077
896.4298
444.48732
1606.404
959.82234
1153.9684
1326.0809
519.50869
548.988
692.01813
799.19466
1003.0344
585.56323
714.93539
869.04174
941.24165
562.65526
639.19693
746.85517
581.54692
946.05093
697.4585
763.34068
687.44544
387.48669
690.15352
700.95949
427.11729
425.7119
695.57072
563.53753
439.88265
697.70432
668.85692
536.20186
717.21049
501.71499
804.80571
1567.9019
1613.8889
1474.1218
3741.9665
2915.2179
2910.701
3083.1176
3225.4508
3144.0521
3301.2743
3279.1428
3045.4739
3189.7328
3222.7669
2740.3401
3059.6804
2415.548
1405.2761
3900.249
2168.3146
1086.4488
1711.4578
1542.123
1758.3749
1064.7005
1686.6765
1884.6828
2205.9609
2251.7126
1807.909
1805.3225
1867.2824
1931.5186
1563.8085
1758.3946
1228.4216
1909.4708
1025.3364
965.4183
276.17867
225.84342
187.45965
213.97333
228.77974
226.68464
211.74708
244.58975
259.84443
256.31741
242.36627
218.26456
231.76074
232.51874
220.32553
331.882
332.60717
391.96388
359.50554
325.55206
293.11048
272.93402
272.93251
294.08944
287.92837
274.46263
274.76276
290.55644
357.5424
343.22481
358.59545
373.65776
496.50255
520.50402
596.8613
576.58508
374.46998
330.33856
304.76102
333.89554
303.83165
300.14138
298.62896
313.41491
311.14046
368.88911
361.43899
378.65812
371.81725
474.70567
458.49608
487.52087
475.05309
389.35315
349.19429
383.76551
381.95245
349.39175
329.70404
343.1332
339.73143
324.58142
380.99124
397.02498
408.00979
389.7225
507.32064
533.86291
538.03954
507.88946
382.06732
615.86751
738.32165
724.14579
642.36288
426.33328
517.90581
494.15314
449.32373
1021.367
757.74128
557.43759
765.69094
546.04035
1070.6046
412.11105
438.19969
385.32653
372.23814
1076.6175
1101.737
898.78064
632.78532
485.96145
609.88512
805.36806
479.31337
441.89334
432.39698
413.37073
417.66977
2387.0228
1586.7611
810.06278
617.4269
700.10297
534.80796
895.98533
669.82626
569.396
551.15911
589.51691
542.11356
538.01486
559.36865
246.64781
409.61297
546.77335
542.60596
522.24305
534.33245
573.81994
550.5838
594.91696
567.04322
559.58123
347.5476
482.08265
553.247
817.70881
602.88943
515.98412
596.35143
614.32213
783.86773
467.61073
278.04748
316.44141
322.99068
279.21208
298.19685
298.47723
434.82412
436.33584
328.56354
263.5273
340.85201
340.25338
327.0273
262.97803
282.47638
282.01135
307.26155
409.10812
242.03711
407.50097
415.46816
310.1422
407.11645
244.10398
527.75135
502.58856
389.92977
298.30333
535.29371
392.49788
299.42055
494.8254
455.17141
360.48161
520.94351
374.84066
501.7515
570.19739
861.69046
393.84755
497.28348
455.31703
353.54041
347.84944
367.24531
372.84973
353.61796
409.13816
422.60616
417.35286
411.52505
536.72214
530.88313
559.5011
546.15362
1006.767
1467.3919
1127.6722
561.88761
709.44863
808.34753
687.6322
1200.2767
1715.8267
413.09477
468.03324
838.6915
453.38704
769.18251
394.03109
2269.9504
1335.8083
2071.4498
1332.1519
435.24223
485.04646
605.20158
857.82187
608.96489
493.03359
874.32354
456.733
1793.1921
1397.9241
1440.8349
1954.8774
573.17424
569.52123
653.91671
710.93874
860.35198
661.98329
746.87646
540.04526
688.18378
501.58607
1481.4884
694.03542
1403.8916
991.6064
681.50524
747.4421
737.81329
826.528
692.19866
825.4261
846.46346
591.02112
760.18543
586.31116
589.26414
693.73681
479.17522
238.2301
585.85376
408.47788
686.1676
687.30192
830.70926
1807.5033
3503.1003
1981.633
2479.4492
2580.2426
2893.4876
2676.5607
2760.8081
2916.0558
2927.5504
2892.4097
3203.7059
3076.5289
2644.2531
3108.4926
6815.2384
2399.8917
4385.6206
2934.4542
1903.1819
1192.1743
1541.5695
1252.799
1843.2202
1374.915
536.67188
1065.1798
1161.2325
1725.3821
2023.0012
1979.1742
2277.182
1680.3259
1583.2144
1406.7033
1524.9435
1386.8735
1336.8139
275.51219
224.30344
240.12286
259.71316
260.36969
240.5446
186.55101
213.5963
211.75375
226.66354
227.98124
243.41796
258.03304
258.87226
245.08843
161.62023
182.35737
184.42937
198.97986
196.54212
216.33348
230.2618
228.49065
213.48264
316.7335
329.53344
340.77214
317.48327
289.74694
306.02016
299.878
287.42428
438.80072
436.59618
501.08159
475.31782
324.48965
293.20377
271.79838
294.1522
271.8964
285.86286
272.27234
274.152
287.63901
348.72248
336.80937
338.48249
356.12644
440.38346
433.85818
447.03425
457.86576
349.72615
311.04517
309.62152
336.81702
337.09208
315.95651
300.99841
311.0604
298.20259
366.09587
364.34704
376.08939
370.80256
463.0145
455.59347
479.76685
477.32428
329.14832
340.92724
373.11051
391.16186
355.01351
338.26124
358.29754
351.5823
336.66289
377.51679
391.95749
394.70862
378.4484
502.51244
527.31654
550.53509
521.33195
331.69602
591.20959
480.03459
450.05568
485.94029
345.95378
377.25036
420.70798
377.48997
742.90069
555.76789
931.34799
912.99408
695.78032
559.87605
388.91683
452.90361
437.22731
400.75729
1208.4569
540.61406
698.83266
522.6061
729.13711
577.39186
497.44781
1155.924
436.68116
445.76406
412.55711
411.51789
1364.739
896.14242
1830.2411
728.36409
575.0218
505.04162
578.75703
539.22188
811.12891
494.6779
535.95207
521.30502
536.25741
547.82808
934.90285
694.81225
614.91922
591.76618
998.02936
451.10301
576.45707
574.14732
270.12338
449.88194
548.69277
470.68887
519.87814
577.85906
588.66081
792.21335
407.01586
543.60196
1005.9114
536.55506
574.79214
443.83453
307.94383
293.17828
343.18732
334.28333
284.5873
303.84488
439.98933
320.28875
263.21362
333.52639
340.53287
329.07289
264.51994
283.74939
283.36028
417.78768
313.35125
245.55706
406.13912
408.08018
312.19576
415.2466
245.37813
285.9405
413.64995
494.51263
507.66585
522.26215
399.84655
295.97272
502.57399
477.19148
386.44774
464.14551
372.22776
435.19692
460.87178
691.08825
397.00608
492.96972
592.70946
473.45863
362.89792
383.59868
369.48812
351.03751
394.07084
406.41193
427.63982
416.30828
529.0366
524.01453
521.43489
558.16978
750.61114
656.69217
512.20263
1004.674
1069.2725
1440.1604
1357.075
662.98145
525.41593
1579.7695
1231.3788
823.43405
419.64984
482.66523
514.46693
885.62466
442.04946
1215.6785
1769.9225
431.60499
484.38649
607.59108
964.18526
595.85452
484.06007
930.75953
426.0154
2116.878
1153.6615
1908.8354
1154.9079
578.36855
607.59314
632.24496
727.17283
720.64283
626.0584
738.84905
578.92469
866.34881
595.92558
4028.4925
1997.9788
1221.291
2371.1592
667.37573
688.01264
510.03675
789.08923
656.45367
751.80585
620.31128
431.40026
731.93374
725.38149
811.51935
793.38754
832.88308
831.48265
629.65477
351.19797
535.79609
260.77051
446.33356
745.69785
2625.4113
700.38398
2093.2629
1958.6229
1653.2643
1535.7719
2367.6602
2453.2534
2737.854
2423.8396
3067.3932
2328.7862
2403.7081
2903.1263
2190.3176
3083.3386
2062.5988
2320.2427
1447.9269
706.38451
680.01508
479.84104
1344.4544
1327.4295
1587.1529
1754.9918
596.82114
622.13133
332.42132
719.00182
698.58081
1195.5443
1229.0385
1402.6958
2173.6637
2070.2715
3089.6764
1347.8926
1557.1095
274.97902
258.06281
237.69795
223.43267
238.26362
258.54685
185.6426
226.97607
226.63606
212.88886
212.78747
243.9744
257.38141
259.63308
246.18954
161.39528
199.09301
184.94376
182.57435
196.64609
215.65079
215.93622
230.52766
229.02118
319.94734
323.23103
321.65613
316.26586
156.78795
170.2596
168.11854
154.69512
188.01195
189.47115
202.22766
200.57471
279.23654
302.95588
296.76718
272.26688
443.22181
449.11202
444.30326
407.00522
345.31464
381.30753
383.50454
353.35846
315.86565
276.84056
275.01088
298.11664
298.88358
285.49381
269.67055
284.64041
269.83794
353.09224
342.04357
339.76269
353.15121
432.48335
417.58694
419.7662
441.62281
301.71978
313.54508
307.70582
347.20195
325.90303
312.78617
310.71157
326.05227
326.28511
367.86666
358.83911
369.13919
360.70201
475.00579
471.13437
492.88292
485.67555
288.16967
315.58224
327.87882
350.30481
331.84318
351.59837
364.72468
368.41599
350.41425
376.40468
385.74478
393.36886
383.77702
497.35007
511.69713
527.45018
505.92071
280.76775
397.69584
449.78243
440.85739
418.08327
348.69279
319.78357
372.9809
335.28196
805.37712
628.48403
540.22023
444.40906
608.5207
497.04446
349.61391
380.14617
407.1174
376.13492
564.12805
656.29596
485.80918
751.75062
953.33491
551.90672
517.03381
525.37306
408.8713
443.94619
439.15598
407.59593
1518.8904
328.38433
524.86012
540.48
519.58198
592.418
331.69114
513.28968
497.83896
1641.522
499.20947
473.61091
505.57234
520.38268
1852.9349
598.75698
561.877
532.63546
671.11568
503.42272
544.52981
534.46513
868.85515
622.7985
613.12412
299.45222
469.84782
599.6022
326.60007
521.69884
426.154
551.42597
887.88719
548.60054
497.90376
288.96964
354.37582
385.10971
302.63393
461.17267
313.63839
317.89083
462.46718
273.23158
288.43815
330.85943
346.05399
337.43251
323.09983
267.86529
286.69745
406.62209
306.4285
245.74131
393.8203
417.07851
314.37196
433.76214
247.03508
267.52341
267.18993
632.38609
437.60078
291.97081
550.04484
544.39447
290.95386
426.62576
512.25466
401.66955
489.23886
479.86387
396.0158
468.83318
447.86644
349.85374
604.13957
447.57059
456.70634
362.83231
354.92512
382.96395
399.23259
373.69773
398.53309
410.69571
401.40301
390.50566
515.67834
539.26845
542.47688
528.85787
484.56926
426.00725
446.63494
512.73101
571.56901
1035.1037
756.86888
880.43905
697.88043
551.12392
787.99266
453.26557
1187.3016
1278.3414
779.89944
1633.6639
1568.314
504.83551
426.89099
1378.6916
1179.161
924.09966
631.59956
440.79917
483.2118
653.26178
500.53746
965.12693
445.22206
1105.0179
1377.9267
545.70259
597.74169
615.67395
735.52771
965.13704
620.57329
696.36957
604.94104
897.61221
546.34048
1411.0934
1169.8508
1324.4098
907.3857
650.76544
725.87153
642.87523
412.75355
642.20306
722.85614
717.11341
744.84015
677.69152
402.16478
294.94124
745.84448
830.83315
413.94741
747.85649
857.21522
808.45338
971.19027
373.17604
277.15201