/*--------------------------------*- C++ -*----------------------------------*\
  =========                 |
  \\      /  F ield         | OpenFOAM: The Open Source CFD Toolbox
   \\    /   O peration     | Website:  https://openfoam.org
    \\  /    A nd           | Version:  7
     \\/     M anipulation  |
\*---------------------------------------------------------------------------*/
FoamFile
{
    version     2.0;
    format      ascii;
    class       volVectorField;
    location    "1000";
    object      UMean;
}
// * * * * * * * * * * * * * * * * * * * * * * * * * * * * * * * * * * * * * //

dimensions      [0 1 -1 0 0 0 0];

internalField   nonuniform List<vector> 
33730
(
(-28505886 -126439.87 -2959678.6)
(-23220966 1030735.1 961343.09)
(-34084949 -89287.635 -1056941.9)
(-28916644 -781174.4 -1297835.6)
(-25532259 -2495460.5 -4299918.9)
(-40626318 -3944698 -5156509.8)
(-38993289 -3947718.8 -9351846.3)
(-28510832 -1401001.3 -8904522.1)
(-25630449 -1605131.7 -921658.51)
(-27884062 -1236284.1 -1647200.5)
(-31847464 -2118433.4 -2336273.2)
(-25966723 -2583451.2 -2810432.5)
(-18889595 1070614 -500832.22)
(-31992523 31328.98 616865.08)
(-43084653 1430577.7 -3646835.2)
(-28389171 -4706224.9 1099510.4)
(-37676811 -2616276 365746.18)
(-21124785 -165238.01 1825898.5)
(-38748477 -2382244.7 -4007138.7)
(-33463406 -1489151.7 -807260.23)
(-23480694 -507812.36 -2038703.1)
(-24001489 -527480.7 -1940824.9)
(-25484007 -750362.49 -1871755.6)
(-25430396 -985269.45 -2194268.2)
(-24316650 -1775076.3 -1803226.9)
(-35964891 -771920.39 -8081923.3)
(-25515627 -2651277.7 -1396215.7)
(-32366854 -463710.64 -6897756.4)
(-41004368 990257.41 -9416975.5)
(-33655361 706099.68 -2152056.7)
(-25738423 -1249154.7 -4597111.9)
(-28644872 -1633260.3 -2474298.4)
(-26605033 -1537850.3 73397.114)
(-23833021 629000.03 -1969769)
(-24669006 -6460925.1 -5520490)
(-39009296 -15976032 -12523596)
(-48300498 -3487080.6 -8285375.1)
(-22332674 1806116.6 -10170929)
(-30150295 -6040139.2 -9665716)
(-25052891 -1926406.5 143227.33)
(-26180278 -1608040.3 418098.63)
(-22469663 -3270904 1292204.8)
(-21520878 -2889346.5 -1966238)
(-22231417 -1207377.2 2967646.3)
(-29748798 585712.17 71368.004)
(-33395446 -5172094 1062039.2)
(-45936954 -2477946.9 517198.01)
(-10133423 -2136768.7 -697524.86)
(-20621031 1776014 1322940.9)
(-51463069 -2706266.4 -3564139.4)
(-32745782 -856738.38 1316927.3)
(-29470248 120302.01 -3479649.3)
(-24020572 -7317532.2 -4740402.1)
(-36994570 1159966.8 2510407.9)
(-33849937 -5815828.4 2863342.3)
(-34624449 -3546694 6348181.8)
(-41198918 -2114212.5 -2938201.1)
(-42967015 -1573241.3 -518416.37)
(-20874068 -235623.55 2434931.3)
(-32677801 -1951786.1 -7371370.4)
(-32345663 -1710876.6 -990773.44)
(-23119899 -873447.85 -1878810.8)
(-23591720 -1325645.2 -2033973.4)
(-26315806 -1479818.2 -1257652.2)
(-25391743 -1899567.2 -1711227.2)
(-22899935 -333291.62 -554617.51)
(-25432313 314318.91 -567061.24)
(-24119001 -701343.17 -768889.48)
(-23015047 -1040536.7 -780141.19)
(-26255828 210084.63 1072768.8)
(-29044366 -1018859.9 -10053207)
(-23621922 -3240130.5 -2563291.3)
(-22819589 -541536.66 -2074682.3)
(-15645510 -262651.09 -11823044)
(-28916173 633536.48 -9346679.3)
(-18726354 -2319597.7 -8845306.3)
(-20612399 -1321744.3 -4770568.1)
(-22840852 -3815445.1 -5445840)
(-54610247 -1195498.9 -8744617.5)
(-27534819 -3009302.5 -778842.5)
(-34376257 -1018541.8 -9949168.9)
(-26682675 359889.46 -13258149)
(-10091022 169171.65 -11305123)
(-31941354 -986749.73 -8146935.9)
(-2813192.6 -284161.65 -5103205.4)
(-27065256 -3134122.3 -2921496.4)
(-27784602 -1224803.7 -1368453.4)
(-26584733 -1754459.9 35945.404)
(-16983785 21807398 2393159.4)
(-43947290 10103586 -8336892.7)
(-16035889 -13385901 -2529278.3)
(-50499695 -5951602 -16448902)
(-22081878 -654578.36 -9451467.4)
(-30155213 -9521108.9 -18284884)
(-8195715.2 17427950 -159897.24)
(-25190926 -3509702.2 -13853798)
(-27710587 -284760.96 -554510.07)
(-27402865 -1102827.5 -624828.46)
(-23124460 -3363101.1 -1368617.1)
(-22344921 -2681735.7 -2142501.2)
(-31302954 -38438.04 881789.58)
(-24267679 -1196267.8 1586996.2)
(-23772892 -222522.95 2191046.1)
(-21836361 477800.92 4986025.5)
(-25295740 -129459.74 3439066.3)
(-25575054 -410241.34 1404007.8)
(-24323854 -3584248.4 9037792)
(-20454181 -2894288.1 12749104)
(-27677773 -2858065.4 8439944.6)
(-28565922 -2024550 12450818)
(-30190197 -91891.006 40165.85)
(-12890287 -8070147.2 1402468.6)
(-41295651 -6209789.7 -3318519.3)
(-36505696 -2364794.1 4117104.9)
(14030912 -1186404.7 -4529733.2)
(-36607536 5222191.7 5322137.9)
(-38757503 -1943427.8 3117293.3)
(-45051526 -2015413.6 5185195.5)
(-19263545 -1399647.4 1355036.2)
(-24065906 -99415.676 -3358450.2)
(-33218016 -1335737.3 1521694)
(-49314706 -2509678.3 2876340.1)
(-20408748 2787629.3 -484569.52)
(-16215036 351193.62 -19705270)
(-14291411 -2756909.3 8538547.6)
(-33011142 -8817041 11447500)
(-22737769 3392145.3 -2350144.8)
(-21588020 663153.39 -4952714)
(-7825139.1 645002.51 -419448.47)
(-43153366 1496534.8 2041304.9)
(-25196952 -1021765.4 1107972.4)
(-36521120 877415 -915740.42)
(-35768672 -1334825.7 -3271651.4)
(-36613043 4378863.6 -4549454.1)
(-34479452 -1194879 -302608.47)
(-23122147 -419079.24 -2084295)
(-23782460 -389137.3 -2067904.2)
(-25164676 -2130866.1 -2012226.6)
(-24487286 -1344809.2 -2143046.8)
(-23568441 -1075852.9 -929327.67)
(-25558408 -69767.646 -990672.37)
(-26143750 -498515.91 -538108.55)
(-25355694 -1858387 -937841.96)
(-27811387 424284.16 -677048.55)
(-26706366 310919.59 -776808.49)
(-27918465 49188.822 -702448.47)
(-27756897 32963.083 -545839.35)
(-30083150 -3570494.4 429748.37)
(-48458688 -276255.37 -5990405.4)
(-45202978 -1987710 -3431973.4)
(-26471716 949497.25 865719.26)
(-27198122 -379520.06 53428.368)
(-25127502 1616808 -771783.38)
(-24629002 1426366.2 -475649.04)
(-25420229 -2513274.8 -8372908.9)
(-39891377 1856601 -6822642)
(-42089818 1559824 -13717243)
(-23365603 -2604982.1 -878906.26)
(-25219943 -2063179.7 -415546.61)
(-13026595 3268083.8 -15381420)
(-20502377 -2976199.5 -14025536)
(-9545845.2 5026976.4 -18164567)
(-26230047 6063481.4 -15787001)
(-31336250 -1393740.5 -11360754)
(-24250066 -3250072.6 -2502683.5)
(-22521801 -3600938.2 -1956101.1)
(-34889261 -11871109 10861902)
(-28724613 -2750163.9 -459296.68)
(-21058098 4725812.3 -22719674)
(-18917750 -4787555.8 -3179266.8)
(-37382746 -3706525.8 -16887600)
(-25858189 1572087.7 -11214781)
(-29956798 7869327.4 -13138575)
(-25360565 -1280304 -11421690)
(-5365648.4 -2225042.7 406741)
(-24759377 -2934105.6 -2293349.6)
(-23840093 -1118322.2 -1837049.4)
(-27483524 -513197.7 -354171.27)
(-25979345 23709178 4148636)
(-42043338 8585868.3 -8446204.1)
(-22264287 -15145424 1289472.9)
(-53253716 -12151580 -2491361.2)
(-4330026.7 1617268.4 -9107172.2)
(-21042650 -2469229.5 -10764507)
(-22419991 -1154376.8 -8624700.2)
(-25360805 -2708008.7 -13791091)
(-8932410.4 10042465 -1205373.8)
(-19216297 -6281415.9 -11480542)
(-27848815 104138.22 -609299.02)
(-27485564 -525713.33 -757528.27)
(-27004572 -3271823 -1508206.3)
(-24688390 -1552157 -1947341.4)
(-6781839.4 1499186.6 -7751071.6)
(-30479346 -528493.74 892686.62)
(-24359835 -239310.53 1963903.7)
(-22053768 265299.82 905766.86)
(-23805128 15547.882 2156085.8)
(-22080117 105326.2 872685.81)
(-27500158 -783203.45 4111063.7)
(-26190914 -373038.67 1101682.8)
(-24838142 1741515.1 4322304.6)
(-23339632 783204.81 5577287.2)
(-25208997 -1157222.7 1835473.3)
(-25527346 -2369199.6 4619663.8)
(-38798315 -7338386.4 4377426.7)
(-42394798 -5023467.2 7254352.7)
(-31540987 848055.13 5600449.5)
(-27146508 848193.15 1417831)
(-29037798 1944030.8 2324979.1)
(-33090552 -3073257.6 11686579)
(-28748380 2000296.7 749675.87)
(-35368783 -360573.88 8345728.9)
(-28345661 1239115.6 524023.54)
(-6345376 -3661838.9 9313964.2)
(-27620800 3192790.6 12135662)
(-3131746.2 -6017193.8 9194237.2)
(-26632814 -1397155.3 12580757)
(-32217871 -1908654.8 253152.08)
(-13997846 -7169768.8 -6555970.5)
(-17497763 -11321881 1764427.4)
(-49752918 -8482174.4 994273.26)
(-23293770 4679266.5 8593223.5)
(20186175 -3851238.8 -3630340.3)
(-21277155 -1651618 2482089.2)
(-53011994 -2056709.6 4403950.8)
(-31886090 -7335018.1 10191508)
(-45483556 -5615407.6 2893150.1)
(-17624905 -3416850.4 -161882.96)
(-32932839 -5376710.4 -1867786.5)
(-49334709 -3684601.2 1338565.1)
(-30528543 2962755.1 5416606.5)
(-35678722 -2385918 539097.18)
(-48811929 -4306972.7 1642047.7)
(-6868884.7 12391480 -16943076)
(-21961739 -2151429.7 -23991421)
(-26649221 -4741615.3 7340184.8)
(-35699780 -9573243.3 10614067)
(-6640884.2 -2393323.4 -10907670)
(-17144022 671536.19 -9845326.8)
(-26666580 -9258339 6044970.8)
(-42211979 3632905 -12045136)
(-26460205 -7207748.9 1315585.2)
(-45109454 -405983.13 48567.802)
(-50547042 -1179729 -3160692.8)
(-55144315 2570707.2 -1294998.8)
(-46705508 -2701392.3 -2107198.2)
(-26045001 3078053.4 -1869433.3)
(-27917937 -130903.69 -12204183)
(-35444018 8656985.8 -9162293.3)
(-34796874 -1416187.6 1838224.9)
(-35435605 -3080017.4 -358569.24)
(-24461909 -788183.71 -957790.27)
(-25265348 -720305.88 -1541496.5)
(-24874944 -331814.51 -1531561.7)
(-24964034 -741407.49 -1180702.7)
(-24612770 -838158.9 -932420.72)
(-24226237 -848444.79 -1109040.8)
(-22776266 -2058151.9 -1239505.7)
(-23205910 -1264315.1 -974882.29)
(-26918930 -1013098 -820289.25)
(-27566319 104673.78 -880172.28)
(-28141920 -115095.91 -648041.27)
(-27973898 -1666610.3 -634569.54)
(-27250336 623223.84 -569126.2)
(-27067385 511813.39 -598091.46)
(-28218937 462499.4 -646959.1)
(-28145107 345777.09 -601635.18)
(-27854129 -6182145.2 -348281.16)
(-34537794 -3904697.3 -1343323.4)
(-51002226 -2746077.3 -1581621.5)
(-45734939 -4663068.2 -6555224.7)
(-34825698 -4634380 -9217758.1)
(-29357110 -1935699.1 610560.74)
(-26764749 -2708466.8 359549.67)
(-25564557 -4868169.3 -1115179.5)
(-26290152 -2491794.4 -1240927.5)
(-40534836 3489371.9 -11153000)
(-24886215 -395001.2 -9004448.8)
(-26047483 -912869.42 525985.03)
(-26242571 -245517.64 -10329.73)
(-23477051 1129765.4 -1126355)
(-32940237 304459.23 -7769950.8)
(-18000614 -1274329.9 -2088815.8)
(-29112845 -1144529.4 -11051895)
(-6956578.3 -301624.71 -4768507.8)
(-19628952 3975297.5 -6872585)
(-32064354 4761906.9 -363742.53)
(-27983062 -2690990.4 -643938.79)
(-28752477 -2038844.5 -524539.04)
(-26767506 -4011136.4 -16386477)
(-22417210 7434488.3 4652255)
(-31166052 -2556963.1 -14265195)
(-2635445.6 7158973.3 -17355704)
(-9474635.4 5604732.4 -15224788)
(-30233463 7967704.4 -12917293)
(-27897417 -6085457.6 -10820488)
(-20360812 -1942476.2 -2222109.1)
(-20776075 -3443041 -2108258.4)
(-47385888 -5291723.9 16641677)
(-27776787 -2232831.8 -552175.73)
(-9560701.3 -40988.086 -28119670)
(-62051766 -2881030.1 -20699273)
(-20985080 -4656932 1536012.3)
(-31264731 -2473631.9 -12162641)
(-29873610 5578398.1 -10667186)
(-8438261.8 5730597.9 -1435200.5)
(-37484379 3308008.7 -14003652)
(-22952135 -1173057.7 -10587472)
(-9418690 1504109.5 -302521.78)
(-25915209 -2993103.2 -1951897.5)
(-24494751 -1243896 -1755594.6)
(-28255688 -525212.46 -559241.74)
(-57561642 -7909856.4 -347696.07)
(-23474646 -3623613.3 6738422.3)
(-35133818 -343411.7 -13198726)
(-25527654 -1954904.9 -10734763)
(-26032382 7065894.9 -7197340.3)
(-25683951 3616373 3609103.7)
(-37045663 -3895189.3 -16042746)
(-26126535 -5708596 -10748991)
(-16092236 -2367053.5 -8830879)
(-3572900.7 -1254917.1 2133516.3)
(-10213110 -3395675.8 -7075101.7)
(-29931640 -74802.689 -1703824.8)
(-33637029 -1180914.5 522625.98)
(-23530470 23178.431 713822.89)
(-25042756 -89297.207 1418374.1)
(-24356743 -1269091.4 2110371.1)
(-21690344 -655242.62 977111.23)
(-26306744 738859.1 707631.3)
(-22912872 83553.739 607552.07)
(-23948711 122962.99 997992.51)
(-24580427 489929.46 560514.96)
(-22945191 -1322367.8 1884725.7)
(-26953152 -2655870.2 706452.76)
(-21777250 -2492851.6 4963937.6)
(-22051498 -1406477.2 6763308)
(-28991133 -1879707.5 2506586.7)
(-31526829 -6768216.9 11314425)
(-39184595 -1733786.3 11894799)
(-28961263 -6186599.5 7124368.2)
(-22164338 -10580427 9705185.5)
(-27711936 -1081156.9 316769.64)
(-27108439 548317.07 2830775.4)
(-30427040 -3175863.1 10092508)
(-26314087 1313882.8 2848559.8)
(-24649268 -2821638.6 11292290)
(-27070525 -628686.63 468095.92)
(-2730642.7 -286012.88 663517.77)
(-34306420 -9394095.6 -471316.3)
(-34241686 -9898053.5 1295758.6)
(-50651540 1195026.6 14484562)
(-26188687 608620.86 597657.65)
(-32933420 5216691.5 12769648)
(-26136660 2093954.3 1968905.9)
(-27773966 -2180910.4 9510826.5)
(-28514067 1471421.1 1526047.4)
(-32950008 3574032.3 10586402)
(-44422597 -789401.85 9689436.9)
(-28707528 958737.81 343530.08)
(-2086164.5 -521568.32 8284020.1)
(-14616433 9155041.2 14678264)
(-13798806 -3601300.3 -3622569.1)
(-18888139 -534272.02 10855672)
(-31046307 -3818117 -800075.17)
(-20806161 -5073814.8 -9905604.4)
(-10128888 -11171115 -136913.55)
(-63069404 -13759111 -3973015.7)
(-29041775 4596175.9 1446696.7)
(19210856 -455799.24 -5095325.2)
(-22013945 762129.94 8407391.9)
(-26668140 -57791.995 6578086.3)
(-32975008 -11241241 7840078.6)
(-47702976 -10918297 -502066.45)
(-21100586 -7528563.1 -714434.88)
(-38295266 -1310410.5 -184723.47)
(-34913528 -3784693.1 -968428.86)
(-38090203 792865.21 778705.21)
(-38161707 2018939.2 47017.247)
(-31192000 -1165762.2 618218.14)
(-12475391 -3249676 -3535884)
(-36730051 -2501841.9 5275518.3)
(-34876408 -4512217.4 545202.44)
(-9268041 6713540.8 -15218451)
(-24874316 -3043292.8 2578784.1)
(10430471 -16446429 -4792917.6)
(-33989640 1369680.4 -8539143.4)
(-25483492 -16684419 18310417)
(-39314255 4879284.8 -7662082.2)
(-23470846 -9171405.2 -395775.06)
(-42153615 -8072725.5 3504951)
(-46262199 -7016468.1 248009.98)
(-52557922 -9380051.9 -2353726.6)
(-59760332 -5166007.8 3329495.9)
(-28779882 1566481.2 4164285)
(-54412823 -3580146.9 -4713518)
(-39876972 8504478.6 -7832652.4)
(-9641524.8 -1748991.9 -12193424)
(-27964718 8452443.4 -1897574.6)
(-22297642 1728285.2 -16318626)
(-34965814 -2469191.5 1780636.5)
(-25399591 -1163154 493440.44)
(-25078003 -467732.81 236360.64)
(-23344586 -501889.72 -664850.94)
(-23720264 -872843.29 -423795.5)
(-35048601 -5429426.4 -236596.32)
(-23361035 -1333700.8 -1375436.4)
(-25483782 -2090791 -1172170.9)
(-27392856 -1783585.3 -1043992.7)
(-24879788 -1122668.4 -1210190.6)
(-23654680 -1172011 -602458.43)
(-24107407 -1233386.8 -519610.27)
(-24758637 -802640.77 -680118.02)
(-24148197 -979723.65 -921215.14)
(-27679000 -1354050.1 -788700.81)
(-28696919 -1186493.9 -737075.74)
(-29038863 -1892993.2 -901443.07)
(-27777804 -1366485.5 -919211.14)
(-27449749 -871422.67 -741520.97)
(-27522891 125377.36 -741925.85)
(-28658096 170482.73 -676659.63)
(-28426793 -1390284.9 -636088.03)
(-21339952 -5315479.3 -2366413.1)
(-34763593 -2391484.8 -11428907)
(-39163559 -7059608.4 -3041761.9)
(-26107411 -2375431 1103584.5)
(-25945099 -3831597.7 348148.44)
(-44440230 -4300756.6 -7004729.4)
(-51523483 -4709010.3 -12680319)
(-24021343 -3165828.7 -1690038.4)
(-20617559 -2355113.7 -1589770.4)
(-28953050 -10227821 3232939.8)
(-602070.35 -5907410 -729374.01)
(-39887363 -8710435.5 -8159765.8)
(-39244432 -3135728.5 -10247855)
(-27043173 -9154461.3 -15829629)
(-36127379 -6638803.3 -10838956)
(-25893793 -2070000.7 560809.32)
(-25093464 -3742543.5 907423.8)
(-20587105 -4823142.3 226716.28)
(-24700503 -2911126.6 -55939.851)
(-64082648 9832407.7 -6466159.1)
(-30849131 4002889.9 -433097.62)
(-27400632 -2456876.4 -118153.11)
(-24986377 -1522234.6 -245948.57)
(-28557346 1667333.6 -14375666)
(-19876816 59007.869 -1961697.9)
(-33729182 -2405831.5 -2987273.9)
(-17924326 -2237262.9 -14390091)
(-16629637 -1718366.5 -2575796.4)
(-19376772 -4531765 -15944907)
(6377670 -2033407.2 2996089.5)
(-39318230 12854099 -5195782.9)
(-37330784 -698529.26 2928877.5)
(-27361302 -2295054.2 -764091.56)
(-27922212 -1912855.5 -665791.38)
(-26399022 -4630320.6 -12301661)
(-33204860 776265.43 -13663970)
(-25512750 7683949.5 381920.29)
(-26299266 -571967.48 -12842284)
(-6351841.8 7391395.8 -14050155)
(-11254581 7916658 -12803559)
(-43469984 15841193 -12310232)
(-9051340.5 -5790173 -5150643.7)
(-21275525 -4494845.8 -11529142)
(-22924966 -2014334.1 -2096131.6)
(-22549866 -3917062 -1809262.9)
(-15682551 1564242.4 -34874458)
(-56265943 -4473464 -2098464.7)
(-53776307 -2283952.4 -13072336)
(-34066828 -2722331.6 -11072236)
(-41243758 6809870.7 -15123756)
(-7549521 23450827 12640034)
(-18050223 4899541.3 -2117591.8)
(-28171658 -1282960.6 -9510652.5)
(-22323137 -2030345 11899296)
(-10784326 -4801087.6 -167124.01)
(-33416387 -1588087.3 -16074412)
(-26177304 4820603.1 -1653331.5)
(-10664818 -2641529.6 -4627514.2)
(-30606656 -4346326.2 -17474947)
(-20483283 -4990561 -10830193)
(-10817243 825028.22 -2451635.4)
(-19542355 10028112 -9202515.1)
(-30304210 -1030217 -1968616.4)
(-21080773 -337390.38 -152337.41)
(-24942045 -712780.37 -991049.23)
(-22178984 -194558.41 -126589.55)
(-24789638 72656.095 -1036971.6)
(-32668000 -3253612.2 256688.32)
(-22505288 -1986661.6 -348816.9)
(-23773473 -2635189 622156.24)
(-24645549 -1588202.4 1332048.3)
(-23095151 -1194225.5 284104.46)
(-26959656 173216.03 780633.83)
(-26041434 -650474.72 486627.83)
(-24385560 -662954.64 631185.68)
(-23269625 -273019.27 630873.8)
(-27982350 792532.11 421355.94)
(-26637166 244501.73 452720.11)
(-26084189 365880.54 357666.84)
(-26988758 520979.64 481051.64)
(-23399991 -7601500.1 -141240.07)
(-26398468 -5182893.4 -2108947.9)
(-24538329 -6231534.2 1330574.4)
(-20586202 -4356072.1 2366574.5)
(-26234674 -3343831.6 -632018.71)
(-42085822 2423080.9 7633153)
(-47702774 -1339827.3 9065852.7)
(-44257984 -426769.57 4294799.5)
(-41458848 -1698022.6 11902250)
(-25751777 -3192108.5 698681.87)
(-24018435 -5924208.2 2777420.6)
(-42138145 -767797.93 14491823)
(-28835725 -3336635.2 3601449.8)
(-47021056 -3458588.8 12476670)
(-29703784 -2153269.3 879714.4)
(-20456447 -6937257.8 9414817.4)
(-20906289 -5289480.6 11237686)
(10039513 -11034594 13391875)
(-18754435 -13385222 10220724)
(-29710950 -863354.78 318346.47)
(-39152201 -1560687.6 16782748)
(-24648756 342067.63 1971368.6)
(-25510982 -4354719.6 3129599.8)
(-26183885 1475515.8 2399554.9)
(-38761875 101321.09 13973651)
(-23523794 -7219136 7874180.3)
(-27662835 112667.62 456744.53)
(-38248290 9222266.8 7561986.5)
(-45986135 4550310.9 -10834758)
(-36605856 -10812501 -4796608.9)
(-33405121 6367609.8 15860422)
(-25994516 354567.92 453763.44)
(-22898661 6095195.7 13150245)
(-21072631 11844505 12883251)
(-26930972 2847608.5 1749640.2)
(-22787077 8304930.9 2541671.1)
(-28675662 1641036.9 1158491.3)
(-27963665 3376126.5 10625079)
(-33573516 4979016.6 11177453)
(-42661187 5501619.6 17846290)
(-28062525 582377.58 294787.71)
(-3788494.1 -2369493.9 3466492.2)
(-17005844 11646468 11718228)
(-12926922 3090924.9 -17022798)
(-26430541 -1854711.1 11339511)
(-30615695 -5094781.8 -1061367.8)
(-18491629 -10741335 -1411368)
(-35168457 -2609677.2 -9053304.4)
(-18682781 8282870.1 12483240)
(-26374498 -2920518 6429443.4)
(-39729048 -17560274 -5387104.9)
(-53777202 -11828902 -6040776.2)
(-21387406 -9909377.8 -1861845.5)
(-35642451 -5425925 -984236.27)
(-49831782 -7377967.8 3490135.6)
(-50377685 -975123.9 7447170)
(-41709993 -9474825.4 -853216.95)
(-15889539 -2493660 -1971625.5)
(-28531592 286317.4 -3717088)
(-1411662.8 5691155 -1064781.3)
(-24942701 6268511.5 5073802.1)
(-11929608 -3327406 -3632271.1)
(-34544308 -9621763.6 -5083214.8)
(-32880938 -5961536.2 273196.81)
(7546476.9 -18065371 -2208356.4)
(-28225844 -19828069 11242808)
(-21184408 -7591651.4 480811.55)
(-47824730 -10509225 1399834.1)
(-31525644 -10955478 -102948.56)
(-30971163 -9358680.8 -195517.45)
(-44156654 -11138206 -2165334)
(-36414354 -3944831.3 4598862.7)
(-30467218 19057.18 -3459599.9)
(-42416082 -8163690 -1709455.3)
(-46996605 -3253165.6 3520975.8)
(-41383662 -10361009 12933927)
(-42640222 -3181616.6 -6509026.3)
(-43720471 18219814 6604047.6)
(-2423685.7 8054277.1 -10441695)
(-27458015 10835511 -693562.98)
(-30437349 2115969.8 -13733107)
(-37338612 -2177222.1 2649030.8)
(-34830731 -3792233.1 1921192.6)
(-25274472 -1293221.8 372477.42)
(-24633488 -1733611.8 398322.49)
(-23377135 -1066842.7 -488933.58)
(-22100837 -1156523 -385874.22)
(-23652431 -1221779 -238726.34)
(-24514599 -813436.3 -459215.7)
(-23838075 -933770.58 -934372.8)
(-23633231 -1156421.7 -660367.86)
(-31927226 -5352113 -687810.75)
(-22788310 -2659079.5 -965313.75)
(-23485263 -2789918.5 -1157427.2)
(-25494932 -2618453.2 -959559.78)
(-25096406 -2219347.6 -810672.02)
(-23531065 -2300668.3 -332198.75)
(-24124706 -2594861.6 -122590.72)
(-25364804 -2062348.6 -95441.774)
(-24589887 -1960615.5 -350037.43)
(-27697420 -1676959.1 -675942.87)
(-27257771 -2205942.7 -453156.62)
(-28783962 -1674341.1 -526201.38)
(-28435142 -1513929.5 -729087.17)
(-27736479 -1326773.2 -610904.31)
(-28161843 -1428793.5 -653256.47)
(-28174569 -1861817.3 -826866.59)
(-27575087 -1384610.2 -809321.38)
(-23993770 -6641494 -1138125.9)
(-21866850 -647115.17 -10847586)
(-24746921 -4369963.9 -1197252.4)
(-20483485 -2578160.3 -1525578.3)
(-22633181 78540.231 -10474345)
(-38354820 -3707415.7 -9067208)
(-40140081 -2954501.5 -4268050.7)
(-21703949 -4818562.2 -2789202.1)
(-18229017 -3660905.2 -3842737.1)
(-14820873 8465038.1 -19112372)
(-26741082 -3369818.1 -15327638)
(-26535895 -4378586.4 -5281656.8)
(-23997923 -2484054.8 865257.13)
(-25691984 -3268146.4 763994.1)
(-27667932 2108314.7 -13279062)
(-33358554 -1730179.9 -19980621)
(-42070861 -1866945.4 -11189431)
(-25483750 -1763301.1 136194.43)
(-20084535 157711.8 -551372.95)
(-14429808 -5650125.2 15830409)
(-40600211 -4357796.7 1711000)
(-27175376 -1399378.1 -12900360)
(-37613402 -12098543 -6419121.9)
(-32737209 -4990732 -11685693)
(-7094361 -8110948.4 -8687198)
(-51413861 -6916324.1 -17327556)
(-15537353 -5721229.5 -11392500)
(-25907104 -2842451.3 -158624.43)
(-24996073 -3773051.7 -44994.893)
(-20067897 -3944690.3 -1363525.2)
(-22992204 -3902692.9 -1367588.3)
(-67920440 8230853.5 -5388165.8)
(-36004720 1352241.2 3675637.2)
(-27552596 -1810322.6 -463833.38)
(-26007035 -1396645.5 -513317.91)
(-29588184 -1403629.7 -11157502)
(-23156435 472149.61 -13776980)
(-19587401 -331765.69 -2156222.5)
(-30182136 3137878.1 5757195.1)
(-3560172.6 -6479353.3 -11677670)
(-18734914 -2403696.2 -11797473)
(-19917597 -1777269.5 -2355791.6)
(-23008811 -1605642 -10492943)
(3580485.1 1584102.1 899708.23)
(-42479799 12904439 -5395550.6)
(-35128107 -5125576.5 -9580107.5)
(-25137047 -3651232.2 3262266.4)
(-47793921 -1201730 -15587637)
(-27475817 114221.7 -11646079)
(-52030413 18995198 -6885848.8)
(6594142.5 -21399559 9741025.5)
(-48059464 -10351230 -16370981)
(-24277922 -5469498.5 -10041204)
(-76313829 -4161984.3 -7333597.4)
(-47716131 -3255554.6 -1335351.8)
(-46620498 -1371536.4 -15206895)
(-36578317 6459494.5 -16927078)
(-13689889 14498281 -2736698.5)
(-9769498 29703417 14187351)
(-26804129 13828373 -10560408)
(-7445997.1 13926484 703897.74)
(-37668797 -3910436.9 -19030808)
(-30257838 -2570407.5 -2159564.3)
(-24750111 -1546594.7 -1583527.9)
(-21941170 -1633550.7 -949779.89)
(-21843239 -873172.31 -513793.72)
(-24490986 -717477.45 -1229842.2)
(-28051736 -1396876.7 -2545419.5)
(-27862992 -320207.36 -2468421.4)
(-29374714 -198621.42 -2405944.9)
(-29306714 -1315879.8 -2426704.3)
(-23102246 -55133.215 1006401.3)
(-24441257 -476321.9 814791.65)
(-25193701 -121437.04 983287.04)
(-23316486 -92816.154 837066.19)
(-31843154 -4578956 -676397.62)
(-22593994 -3372290 -604589.4)
(-24453560 -3966981.2 92465.182)
(-25266867 -2926365.3 327284.51)
(-24336555 -2279366.1 -626675.48)
(-23400515 -2422443.3 543560.88)
(-22432605 -2529563.2 493296.9)
(-27015153 -1757514.9 467179.63)
(-25457393 -1586578.9 740781.82)
(-27311116 -678896.01 480832.69)
(-29235061 -580658.62 483480.57)
(-26543285 -297814.38 435379.85)
(-25945761 -82815.349 463339)
(-27920333 759178.3 307283.72)
(-26903794 256264.75 339645.1)
(-27040185 359775.41 317200.98)
(-27039784 784282.58 338742.83)
(-20422113 -8657529.2 1455323.3)
(-19533437 -8289577.9 -3322131.7)
(-12059481 -12886139 -134889.76)
(-20045077 -10363565 665135.02)
(-24014921 -6800026.1 -3496381.2)
(-48359463 -6598430.8 7673815.2)
(-54255580 -8690384.9 4641452.7)
(-45677537 -9187130.3 6501635.7)
(-50708419 -3722034 6363405.2)
(-23216545 -6634081.2 -612790.44)
(-21000965 -7529338.1 43838.491)
(-41619180 -4568620.8 10736677)
(-22784453 -5751537.6 677926.13)
(-39966815 -758835.6 13776402)
(-24358571 -4375255 -10182.228)
(-22255300 10235405 7045555.8)
(-36733133 3077880.7 12178634)
(-2417241.2 -172657.4 3716189.2)
(-18950172 -5061433.2 16456301)
(-30013572 -3430311.9 89701.745)
(-32188788 -712945.47 18592900)
(-26203682 -4718538.2 2037913.9)
(-14991230 540570.68 12799550)
(-29404008 -2841504.6 2445221)
(-45954195 -3002576.5 18084601)
(-21870768 -1101583.8 8397828.9)
(-30023861 -2615581.7 210635.11)
(-30928337 -1904659 13062079)
(-30550851 -11731627 19030656)
(5210430.5 -12472076 12563915)
(-5424402.8 -7453618.6 5975818.2)
(-28864701 -693076.11 359120.08)
(-36268184 -1349807.6 13117748)
(-45121188 -7461010.1 12398212)
(-26066391 185370.12 1427634.7)
(-3637790.1 13777623 5532534.8)
(-27873155 2341345.2 1737763)
(-38799888 3376322.9 11412220)
(-44415513 1205526.7 11947132)
(-8633764.3 -10635583 -3959495.9)
(-27224526 160157.38 379950.61)
(-43401409 12459863 -4217126.6)
(-52958897 8002021.7 -16126417)
(-38043622 -5025298.3 -7963590.8)
(-35388884 6459199.4 10678982)
(-26591343 5998007.8 12751415)
(-41348699 8409524.6 16062039)
(-14264932 4983170.8 11896122)
(-27405472 12389973 2066272.2)
(-32537552 3529738.3 10106124)
(-41634874 1615249.6 17990111)
(-8409383 7017798.6 -9385601.7)
(-45363839 5575140.4 12665739)
(-29560720 -6895271 -964460.89)
(-29233498 7695511.3 8509783.6)
(-42856913 -19201974 -2113036.7)
(-17792818 -8642691.1 -1095197.4)
(-27165728 -10088384 -393267.69)
(-23410392 -4419249.7 -287250.02)
(-33965522 -6195874.2 -1066390.9)
(-33999740 -11736743 -2527567.6)
(-22445295 3253479.9 5347054)
(-46345575 -7431382.6 10396505)
(-21542198 4120876.1 13828689)
(-9286793.4 -11353573 4599504.4)
(-21491349 -5826447.5 -6828423.7)
(-43358235 1452963.5 -2319955.2)
(-9799326.2 4120476.8 -2193000.1)
(-30731955 10366816 11242490)
(-10389164 -4556105 1999154.8)
(-39414889 -6614098.1 -3714580.3)
(-31806263 -6176612.6 819880.77)
(-23616950 -7832633.4 1334137.3)
(-36718240 -5864088.1 -1769593.7)
(-47998169 -2767443.5 291441.73)
(-37615009 -4001631 -1458607)
(-33769360 -4617908.5 -2587345.7)
(-48538239 -1869531.5 4492911.1)
(-31936096 -8609462.9 1272636.7)
(-20270754 -1454525.6 2569196.8)
(-5984950.3 -12109980 -7577160.5)
(-33548407 7649554.8 -4258672.7)
(-37746760 6658258.9 -6063907.2)
(-48260783 -5363977.4 -2576403.5)
(-65644133 -3767724.7 5662939.4)
(-47083003 -6266461 10144814)
(-50489516 -6682792.2 -6411429.5)
(-48827310 21102187 10883738)
(-3656026.6 9893119.4 -6900608.2)
(-36775565 -2899391.6 2614045.9)
(-24417492 -1578481.7 232885.16)
(-25284382 -1488586.4 401888.28)
(-24849288 -1254196.4 148595.31)
(-25490057 -980084.41 392015.39)
(-33489830 -4341864 2004687.5)
(-24249976 -2016986.5 448285.22)
(-23465607 -2151232.7 470939.84)
(-22366630 -1727360.1 -328742.82)
(-19674214 -1784275.6 -380097.05)
(-23731360 -1835274.6 -264112.91)
(-23841347 -2041712.7 -351908.8)
(-23716115 -1932791.4 -586808.74)
(-23316198 -2151953.5 -650905.22)
(-22855063 -1010283.9 -560789.98)
(-22768764 -742178.97 -662499.54)
(-25235128 -1168515.5 -784499.42)
(-24474183 -1288657.8 -716357.36)
(-31160605 -5322631.2 -180276.5)
(-21752646 -2521227.5 -1795872.4)
(-21426676 -2306056.2 -1812825)
(-24272486 -4125748.4 -2148365.7)
(-23098081 -3710680.1 -1643041.4)
(-23090295 -3462583.9 -277040.92)
(-24072541 -3835117.6 -201816.22)
(-24092152 -2930956.8 -115477.09)
(-23664020 -2798326 -217915)
(-26868993 -2996625.6 -468061.79)
(-26488672 -3354349.9 -249104.44)
(-27384232 -2484047.1 -343597.82)
(-26771959 -2282997.1 -507016.87)
(-27796339 -1746024.3 -553933.83)
(-28123844 -2164360.1 -537333.32)
(-28723169 -1655283.5 -555696.27)
(-28157125 -1527479.2 -579686.74)
(-21423389 -4311637.1 169787.51)
(-27777010 -4976442 -7180575.1)
(-30201991 -6571409.1 -4247156.9)
(-21042040 -2098644.4 -1115333.6)
(-21262180 -2587816.4 -1455170.9)
(-19759188 -4271763.3 -4990742.9)
(-17680716 -3308279.9 -3687010.9)
(-36400712 -6333086.7 -5738839.1)
(-25048673 -2843806.2 -8784473.6)
(-16852255 4659498.1 -13129627)
(-26231725 -5045531.5 -144780.87)
(-23034782 -4095289.1 -743518.6)
(-25570700 6464581.6 -13786220)
(-24396943 -2338181.4 -12930298)
(-16583876 -8074625.9 -9709989.6)
(-27816163 -2377780.7 -13808282)
(-8303271.1 -930531.39 -2300830.4)
(-25329722 -5754733 -1806884.9)
(-21881659 -3250640.1 -3430717.7)
(-15407968 -3254962.8 -22247874)
(2010639 13170404 -13603154)
(-19671540 -648612.93 -17450597)
(-9587516.8 5600895.2 -4858705.4)
(-25546892 -3044402 -49286.568)
(-27193517 -4434588.5 38937.014)
(-15094736 -79892.837 -6575015.6)
(-65275869 -7693557.2 -13834288)
(-39492970 -1156259.9 -9555843.4)
(-36680718 -1370661.9 -10689106)
(-24324958 -3464126.6 -462408.69)
(-19872372 1222881.3 -1195954.9)
(-19255284 -8871887.5 11656439)
(-40298081 -5102098.3 202683.38)
(-16268331 5262104.9 -12986544)
(-33782670 -2966861.2 -12819330)
(-41437741 -9211050.8 -3550190.5)
(-24744582 -6004481.2 -12589558)
(-6416832.7 -4868567.5 -6763125.6)
(-49042162 -13607188 -16451455)
(-15815903 -4934277.1 -13093796)
(-15240499 -4528141.1 -13751500)
(-26542836 -3018990.9 -381991.55)
(-25204589 -4011022.4 -310038.23)
(-20136398 -4054931.3 -1500862.9)
(-21732387 -3674155.2 -1540988.9)
(-3991834 2567828.4 5345312.5)
(-28609595 -1456073.9 -15072428)
(-24144789 -1136609.8 -13713119)
(-38715991 8879781.6 8360235.2)
(-3909812.4 -8189516 5723359.2)
(-31474800 -7870861.6 -17710223)
(-25082803 -2690807.8 -11729940)
(-26650391 2847604.1 -9472854.7)
(-30220790 -8268546.1 -857257.46)
(-13825635 -3167242.5 -5637115.2)
(-46519597 -1819699.9 -17586825)
(3035137.4 -25244152 400793.38)
(-24333175 -14970503 -8116721.7)
(-40063007 -12453515 -17874649)
(-25937057 -5854037.7 -2913289.3)
(-38723478 -2314638.8 -14070003)
(-26925217 -14488175 -13238513)
(-29418193 -3072180.2 -2387562.6)
(-24359860 -2085235.6 -2302094.8)
(-22197776 -2740763.1 -1410340.8)
(-21797616 -1701603.1 -957093.63)
(-24710508 -1469483.1 -1573529.3)
(-27870915 -888150.51 -2556702.2)