/*--------------------------------*- C++ -*----------------------------------*\
  =========                 |
  \\      /  F ield         | OpenFOAM: The Open Source CFD Toolbox
   \\    /   O peration     | Website:  https://openfoam.org
    \\  /    A nd           | Version:  7
     \\/     M anipulation  |
\*---------------------------------------------------------------------------*/
FoamFile
{
    version     2.0;
    format      ascii;
    class       volScalarField;
    location    "7000";
    object      pMean;
}
// * * * * * * * * * * * * * * * * * * * * * * * * * * * * * * * * * * * * * //

dimensions      [0 2 -2 0 0 0 0];

internalField   nonuniform List<scalar> 
34377
(
-3.2791621e+81
-3.3013193e+81
-3.2401527e+81
-3.2462327e+81
-3.2197267e+81
-3.2292715e+81
-3.2256624e+81
-3.0131811e+81
-3.1883729e+81
-3.1841701e+81
-3.2493489e+81
-3.2526278e+81
-3.2403957e+81
-3.2504745e+81
-3.2439873e+81
-3.2282347e+81
-3.2577394e+81
-3.2583715e+81
-3.2598612e+81
-3.262079e+81
-3.261167e+81
-3.2627762e+81
-3.2625387e+81
-3.2630447e+81
-3.2054352e+81
-3.2184071e+81
-3.1953056e+81
-3.0021579e+81
-3.0864256e+81
-3.0108732e+81
-3.0137436e+81
-2.838251e+81
-2.9693241e+81
-2.9657283e+81
-3.0098762e+81
-3.0136724e+81
-3.0899665e+81
-3.2459756e+81
-3.2460576e+81
-3.164417e+81
-3.1715486e+81
-3.2382402e+81
-3.242957e+81
-3.2441065e+81
-3.2353414e+81
-3.2400668e+81
-3.2471108e+81
-3.2437745e+81
-3.2579569e+81
-3.2405341e+81
-3.2612686e+81
-3.2305033e+81
-3.2420307e+81
-3.2317462e+81
-3.2343631e+81
-3.2439293e+81
-3.2201466e+81
-3.2209431e+81
-3.2336085e+81
-3.2369301e+81
-3.2542173e+81
-3.2385072e+81
-3.2559059e+81
-3.253176e+81
-3.2513117e+81
-3.2522702e+81
-3.252155e+81
-3.265578e+81
-3.2669388e+81
-3.2666535e+81
-3.2698886e+81
-3.2707201e+81
-3.2682957e+81
-3.2683405e+81
-3.269556e+81
-3.2698775e+81
-3.2722325e+81
-3.2713003e+81
-3.2750473e+81
-3.27159e+81
-3.2745965e+81
-3.2713036e+81
-3.2722809e+81
-3.2457791e+81
-3.2442792e+81
-3.2472004e+81
-3.2511231e+81
-3.0043839e+81
-2.9971162e+81
-3.0700764e+81
-3.0780111e+81
-2.8303424e+81
-2.9557873e+81
-2.9617709e+81
-3.0020036e+81
-2.994198e+81
-3.1685206e+81
-3.1737233e+81
-3.1176245e+81
-3.1141706e+81
-3.0596425e+81
-3.0111607e+81
-3.0117217e+81
-3.0621239e+81
-2.9059763e+81
-3.0637616e+81
-3.0150119e+81
-3.0142058e+81
-3.0644939e+81
-2.9102428e+81
-2.8068502e+81
-2.810148e+81
-2.8233373e+81
-2.8733713e+81
-2.8705022e+81
-2.8236037e+81
-3.1761227e+81
-3.1190773e+81
-3.1190025e+81
-3.175217e+81
-3.27514e+81
-3.2759339e+81
-3.2732846e+81
-3.2751562e+81
-3.2304242e+81
-3.2254821e+81
-3.2329724e+81
-3.2337048e+81
-3.2697173e+81
-3.2674431e+81
-3.2708923e+81
-3.2707277e+81
-3.1835399e+81
-3.1882933e+81
-3.2385657e+81
-3.2187591e+81
-3.2211961e+81
-3.2401271e+81
-3.2471449e+81
-3.2615212e+81
-3.2627862e+81
-3.2475865e+81
-3.2529987e+81
-3.2536126e+81
-3.2611002e+81
-3.2623633e+81
-3.2467632e+81
-3.245446e+81
-3.2610909e+81
-3.2602868e+81
-3.2544752e+81
-3.2634495e+81
-3.2630808e+81
-3.2344844e+81
-3.2251843e+81
-3.2283831e+81
-3.2386473e+81
-3.2350855e+81
-3.2154149e+81
-3.2165459e+81
-3.2368492e+81
-3.2208738e+81
-3.2175859e+81
-3.2277295e+81
-3.2313667e+81
-3.219812e+81
-3.2223835e+81
-3.2364932e+81
-3.239716e+81
-3.2274898e+81
-3.232005e+81
-3.2449073e+81
-3.2492594e+81
-3.2422806e+81
-3.2401599e+81
-3.2550627e+81
-3.25587e+81
-3.2475364e+81
-3.2481565e+81
-3.255882e+81
-3.2568186e+81
-3.2442151e+81
-3.2434707e+81
-3.2587327e+81
-3.2570951e+81
-3.2499761e+81
-3.2514097e+81
-3.2585727e+81
-3.2597305e+81
-3.2630256e+81
-3.2634103e+81
-3.2643956e+81
-3.2663096e+81
-3.2610636e+81
-3.2623225e+81
-3.2631263e+81
-3.2658553e+81
-3.2724198e+81
-3.2738391e+81
-3.2774796e+81
-3.2750493e+81
-3.2745116e+81
-3.2738439e+81
-3.275918e+81
-3.2777491e+81
-3.2745999e+81
-3.2751217e+81
-3.2781846e+81
-3.2768579e+81
-3.2753367e+81
-3.2745558e+81
-3.2783307e+81
-3.27664e+81
-3.278718e+81
-3.2759493e+81
-3.2764693e+81
-3.2806355e+81
-3.2771054e+81
-3.2766341e+81
-3.2792402e+81
-3.2806194e+81
-3.2776511e+81
-3.2776927e+81
-3.2803824e+81
-3.2819922e+81
-3.2819103e+81
-3.2781717e+81
-3.2775776e+81
-3.2800584e+81
-3.255688e+81
-3.2609543e+81
-3.2567819e+81
-3.2534024e+81
-3.2577649e+81
-3.258522e+81
-3.2608799e+81
-3.2622178e+81
-3.054687e+81
-3.0044626e+81
-3.0034182e+81
-3.0527424e+81
-2.9033902e+81
-3.0465692e+81
-2.9998432e+81
-2.9997281e+81
-2.8952774e+81
-3.0497632e+81
-3.156397e+81
-3.1617922e+81
-3.1037442e+81
-3.0996307e+81
-3.1064384e+81
-3.1641619e+81
-3.1079274e+81
-3.164656e+81
-2.8015094e+81
-2.8159903e+81
-2.8622868e+81
-2.8668036e+81
-2.8170973e+81
-3.1968112e+81
-3.1940901e+81
-3.2232959e+81
-3.2264662e+81
-3.1995796e+81
-3.1992914e+81
-3.2282991e+81
-3.2278403e+81
-3.157564e+81
-3.1261583e+81
-3.1268302e+81
-3.1580214e+81
-3.1532568e+81
-3.124101e+81
-3.1222694e+81
-3.1556003e+81
-3.0828401e+81
-3.0599826e+81
-3.05821e+81
-3.0848921e+81
-3.0286791e+81
-3.0266919e+81
-3.0037666e+81
-3.0058813e+81
-2.9499905e+81
-3.0071888e+81
-3.0066232e+81
-3.0295738e+81
-2.9534864e+81
-3.0300674e+81
-3.0614012e+81
-3.0610697e+81
-3.0865289e+81
-3.0868714e+81
-2.9052649e+81
-2.9008755e+81
-3.087865e+81
-3.0638248e+81
-3.0628211e+81
-3.0891597e+81
-3.0097067e+81
-3.0080747e+81
-3.0327161e+81
-3.0315065e+81
-2.9561895e+81
-3.0105299e+81
-3.0335968e+81
-3.0904136e+81
-3.0648067e+81
-3.0906104e+81
-2.9087094e+81
-2.7246105e+81
-2.808744e+81
-2.8629578e+81
-2.866763e+81
-2.8113093e+81
-2.8150932e+81
-2.8712643e+81
-3.2296546e+81
-3.2321808e+81
-3.2010391e+81
-3.2026846e+81
-3.1596343e+81
-3.1610834e+81
-3.1280136e+81
-3.1289637e+81
-3.1300626e+81
-3.129711e+81
-3.1616457e+81
-3.1613912e+81
-3.2024566e+81
-3.2031207e+81
-3.2329789e+81
-3.2315618e+81
-3.286618e+81
-3.2876045e+81
-3.2862013e+81
-3.2873828e+81
-3.283916e+81
-3.2851763e+81
-3.2858279e+81
-3.2852512e+81
-3.2614878e+81
-3.2615656e+81
-3.2560581e+81
-3.2593685e+81
-3.2634443e+81
-3.2651978e+81
-3.2659109e+81
-3.2663746e+81
-3.2820146e+81
-3.2811863e+81
-3.2797551e+81
-3.2812681e+81
-3.2826857e+81
-3.2835221e+81
-3.2819969e+81
-3.2827827e+81
-3.1760665e+81
-3.1669308e+81
-3.114396e+81
-3.2261144e+81
-3.2584502e+81
-3.2570549e+81
-3.2595987e+81
-3.2596172e+81
-3.2752703e+81
-3.26363e+81
-3.2643916e+81
-3.265468e+81
-3.2658172e+81
-3.2649078e+81
-3.2652513e+81
-3.2662438e+81
-3.2671466e+81
-3.2685957e+81
-3.2692543e+81
-3.2724521e+81
-3.2711862e+81
-3.2734106e+81
-3.2729797e+81
-3.2700331e+81
-3.2701931e+81
-3.2742634e+81
-3.2732163e+81
-3.2657908e+81
-3.266355e+81
-3.2677697e+81
-3.2677191e+81
-3.2711691e+81
-3.2742758e+81
-3.2710665e+81
-3.2740805e+81
-3.2712328e+81
-3.274186e+81
-3.2289645e+81
-3.2097724e+81
-3.2126166e+81
-3.2317569e+81
-3.2229493e+81
-3.2518458e+81
-3.2540704e+81
-3.1789929e+81
-3.1811266e+81
-3.2243443e+81
-3.2553679e+81
-3.2557998e+81
-3.2031248e+81
-3.2013356e+81
-3.2205872e+81
-3.2240908e+81
-3.2396712e+81
-3.2249603e+81
-3.2275772e+81
-3.2412387e+81
-3.2434048e+81
-3.2297494e+81
-3.2310922e+81
-3.2456285e+81
-3.2326377e+81
-3.2338664e+81
-3.2409914e+81
-3.2428011e+81
-3.236459e+81
-3.2382973e+81
-3.2454402e+81
-3.2473242e+81
-3.2483731e+81
-3.2338839e+81
-3.2358642e+81
-3.2498801e+81
-3.2510515e+81
-3.2369909e+81
-3.238146e+81
-3.2529698e+81
-3.2413753e+81
-3.2425861e+81
-3.2502051e+81
-3.2515421e+81
-3.245711e+81
-3.2526099e+81
-3.244179e+81
-3.2543083e+81
-3.2679893e+81
-3.2693125e+81
-3.2582512e+81
-3.2590493e+81
-3.2604895e+81
-3.2604761e+81
-3.2596361e+81
-3.2602604e+81
-3.2611201e+81
-3.2620909e+81
-3.2671321e+81
-3.2687053e+81
-3.2637828e+81
-3.2642557e+81
-3.2695906e+81
-3.2692799e+81
-3.2650638e+81
-3.2654707e+81
-3.2718321e+81
-3.2706856e+81
-3.261104e+81
-3.2618964e+81
-3.2630455e+81
-3.263346e+81
-3.2621618e+81
-3.2628112e+81
-3.2637108e+81
-3.2646781e+81
-3.2665167e+81
-3.269998e+81
-3.2670824e+81
-3.2710501e+81
-3.2675146e+81
-3.2677808e+81
-3.2713072e+81
-3.2706439e+81
-3.2703732e+81
-3.2714797e+81
-3.2749554e+81
-3.2731339e+81
-3.2715572e+81
-3.2750081e+81
-3.2707883e+81
-3.2732676e+81
-3.2679258e+81
-3.2690464e+81
-3.270583e+81
-3.272794e+81
-3.2730666e+81
-3.2699562e+81
-3.269423e+81
-3.2717585e+81
-3.2743428e+81
-3.2730191e+81
-3.2810866e+81
-3.2834338e+81
-3.2743366e+81
-3.2748876e+81
-3.2839817e+81
-3.2829398e+81
-3.275621e+81
-3.2747604e+81
-3.2835865e+81
-3.2850758e+81
-3.2749513e+81
-3.2755626e+81
-3.2844918e+81
-3.2831064e+81
-3.2760183e+81
-3.2751705e+81
-3.283663e+81
-3.285539e+81
-3.2755775e+81
-3.2762865e+81
-3.2853339e+81
-3.2841915e+81
-3.2845572e+81
-3.2760151e+81
-3.2765828e+81
-3.2858899e+81
-3.2765035e+81
-3.2763045e+81
-3.2851819e+81
-3.2839452e+81
-3.2773682e+81
-3.2775287e+81
-3.2849231e+81
-3.2866591e+81
-3.2770474e+81
-3.27759e+81
-3.2867241e+81
-3.2857391e+81
-3.2778582e+81
-3.2862633e+81
-3.2786318e+81
-3.287622e+81
-3.2871958e+81
-3.2787868e+81
-3.2776934e+81
-3.2858321e+81
-3.2794155e+81
-3.2775599e+81
-3.2862145e+81
-3.2882604e+81
-3.2882908e+81
-3.2798857e+81
-3.2781091e+81
-3.2870613e+81
-3.2799587e+81
-3.2802926e+81
-3.2876003e+81
-3.2886731e+81
-3.2794346e+81
-3.2792999e+81
-3.2880532e+81
-3.2866785e+81
-3.2647159e+81
-3.2645555e+81
-3.2677284e+81
-3.2665431e+81
-3.2614694e+81
-3.2633266e+81
-3.2638154e+81
-3.2665955e+81
-3.2682393e+81
-3.2653227e+81
-3.2668025e+81
-3.270107e+81
-3.2670902e+81
-3.266647e+81
-3.2704035e+81
-3.2688668e+81
-3.0557707e+81
-3.0547105e+81
-3.0806709e+81
-3.0799776e+81
-3.0247494e+81
-3.0236877e+81
-3.0007243e+81
-3.001856e+81
-2.9467418e+81
-3.0209902e+81
-2.9991938e+81
-2.9980791e+81
-3.0222851e+81
-2.9460669e+81
-3.0530132e+81
-3.0519632e+81
-3.0776873e+81
-3.0788411e+81
-2.8980482e+81
-2.9002254e+81
-3.0481983e+81
-3.0730959e+81
-3.0176491e+81
-2.9949856e+81
-2.9951477e+81
-3.0184932e+81
-2.9418884e+81
-2.9961646e+81
-3.0193212e+81
-2.8932241e+81
-3.0506321e+81
-3.0761889e+81
-3.0496844e+81
-3.0751874e+81
-3.2128983e+81
-3.1854014e+81
-3.2165899e+81
-3.1886526e+81
-3.187955e+81
-3.2187542e+81
-3.218926e+81
-3.1460158e+81
-3.1139153e+81
-3.1468158e+81
-3.1151558e+81
-3.1114881e+81
-3.1438811e+81
-3.1168454e+81
-3.1178483e+81
-3.1501292e+81
-3.1485698e+81
-3.1915994e+81
-3.1902843e+81
-3.2204443e+81
-3.2226388e+81
-3.1509681e+81
-3.1186406e+81
-3.1194517e+81
-3.1510593e+81
-3.192076e+81
-3.1923783e+81
-3.2235244e+81
-3.2224139e+81
-2.8094295e+81
-2.8635314e+81
-2.8667968e+81
-2.8127339e+81
-3.2045759e+81
-3.2050062e+81
-3.2227326e+81
-3.2226836e+81
-3.2024233e+81
-3.2203143e+81
-3.2034006e+81
-3.22174e+81
-3.2436524e+81
-3.2534133e+81
-3.2450038e+81
-3.2552872e+81
-3.2460415e+81
-3.2560886e+81
-3.2458956e+81
-3.2551625e+81
-3.2077042e+81
-3.2078383e+81
-3.225471e+81
-3.2252674e+81
-3.2062435e+81
-3.2237374e+81
-3.2070291e+81
-3.2248887e+81
-3.2466947e+81
-3.2558199e+81
-3.2475657e+81
-3.2570692e+81
-3.2483688e+81
-3.2480104e+81
-3.2578468e+81
-3.2568366e+81
-3.1602027e+81
-3.1781243e+81
-3.160983e+81
-3.179202e+81
-3.1226208e+81
-3.1232386e+81
-3.1366301e+81
-3.1374635e+81
-3.1239349e+81
-3.1243323e+81
-3.1380911e+81
-3.1383727e+81
-3.1616001e+81
-3.1617358e+81
-3.1799176e+81
-3.1798027e+81
-3.1563891e+81
-3.174275e+81
-3.1574348e+81
-3.1755871e+81
-3.1207396e+81
-3.1214471e+81
-3.1348405e+81
-3.1354669e+81
-3.1189644e+81
-3.1329353e+81
-3.1197924e+81
-3.1339822e+81
-3.1584381e+81
-3.1589635e+81
-3.1766524e+81
-3.1769528e+81
-3.0835385e+81
-3.0954563e+81
-3.0843672e+81
-3.0964025e+81
-3.0551983e+81
-3.0558429e+81
-3.065706e+81
-3.066371e+81
-3.0537464e+81
-3.0642627e+81
-3.0543751e+81
-3.0649911e+81
-3.0851769e+81
-3.0858081e+81
-3.0972413e+81
-3.0978725e+81
-3.0245235e+81
-3.0345917e+81
-3.0251826e+81
-3.0352148e+81
-3.0230869e+81
-3.0331524e+81
-3.0238188e+81
-3.0338854e+81
-3.0055371e+81
-3.0060544e+81
-2.9964599e+81
-2.9702281e+81
-2.9970744e+81
-3.0068865e+81
-3.0075392e+81
-2.9719923e+81
-2.9986202e+81
-2.9978718e+81
-2.9495112e+81
-2.9508481e+81
-3.0089954e+81
-3.0095418e+81
-2.9729583e+81
-3.0005839e+81
-2.9999803e+81
-3.0081059e+81
-3.0084716e+81
-2.9725997e+81
-2.9995188e+81
-2.9991245e+81
-3.0258471e+81
-3.0359881e+81
-3.0262167e+81
-3.0363623e+81
-2.9510447e+81
-2.9516478e+81
-3.0266807e+81
-3.0368704e+81
-3.0271433e+81
-3.0373013e+81
-3.0575441e+81
-3.0682925e+81
-3.0579428e+81
-3.068667e+81
-3.0566824e+81
-3.0672706e+81
-3.0569654e+81
-3.0677483e+81
-3.0868375e+81
-3.0989888e+81
-3.0873392e+81
-3.0997184e+81
-3.0879784e+81
-3.1004129e+81
-3.0882373e+81
-3.1007131e+81
-2.904974e+81
-2.9049024e+81
-2.9248421e+81
-2.9247367e+81
-2.9215639e+81
-2.9018242e+81
-2.9037121e+81
-2.9237148e+81
-3.0891085e+81
-3.101327e+81
-3.0895267e+81
-3.1018073e+81
-3.0597152e+81
-3.0601972e+81
-3.0704125e+81
-3.0708377e+81
-3.0588546e+81
-3.0695183e+81
-3.0590912e+81
-3.0698495e+81
-3.0900985e+81
-3.0904321e+81
-3.1023984e+81
-3.1026332e+81
-3.0114173e+81
-3.0120623e+81
-2.9758488e+81
-3.003232e+81
-3.0023952e+81
-3.0103052e+81
-3.0106491e+81
-2.974372e+81
-3.0016554e+81
-3.0012052e+81
-3.0289503e+81
-3.0390462e+81
-3.029528e+81
-3.0395678e+81
-3.027993e+81
-3.0381652e+81
-3.0283953e+81
-3.0385062e+81
-2.9524321e+81
-2.9542584e+81
-3.0124746e+81
-3.0128342e+81
-3.0039668e+81
-3.0035144e+81
-3.0300182e+81
-3.040165e+81
-3.0304255e+81
-3.0406096e+81
-3.072624e+81
-3.0911476e+81
-3.1033919e+81
-3.0915362e+81
-3.1039434e+81
-3.0608443e+81
-3.0715812e+81
-3.0611613e+81
-3.0720081e+81
-3.0921429e+81
-3.1045935e+81
-3.0924569e+81
-3.1047813e+81
-2.9263149e+81
-2.9066687e+81
-2.9075812e+81
-2.9282961e+81
-2.773741e+81
-2.771224e+81
-2.733636e+81
-2.7318791e+81
-2.6107058e+81
-2.8171743e+81
-2.8440722e+81
-2.8465714e+81
-2.8182555e+81
-2.8634013e+81
-2.8605561e+81
-2.8775684e+81
-2.8802151e+81
-2.8810677e+81
-2.8655436e+81
-2.8653627e+81
-2.8810469e+81
-2.8478223e+81
-2.8191197e+81
-2.8482392e+81
-2.8210669e+81
-2.8531992e+81
-2.8252486e+81
-2.8569289e+81
-2.8831829e+81
-2.8669322e+81
-2.8694389e+81
-2.8853772e+81
-3.2490069e+81
-3.2577582e+81
-3.2501889e+81
-3.2595618e+81
-3.250938e+81
-3.2508238e+81
-3.2602465e+81
-3.2595644e+81
-3.2087368e+81
-3.2261892e+81
-3.2094551e+81
-3.2273353e+81
-3.2101581e+81
-3.22795e+81
-3.2103801e+81
-3.2278303e+81
-3.1626026e+81
-3.1631966e+81
-3.1805906e+81
-3.1815133e+81
-3.1638618e+81
-3.1640103e+81
-3.1821634e+81
-3.1821893e+81
-3.1249865e+81
-3.1391725e+81
-3.1253261e+81
-3.1396954e+81
-3.1259191e+81
-3.1262244e+81
-3.1402037e+81
-3.1403811e+81
-3.1279052e+81
-3.1282273e+81
-3.1421316e+81
-3.1422098e+81
-3.1268964e+81
-3.1273136e+81
-3.1410193e+81
-3.1416117e+81
-3.1645488e+81
-3.1650068e+81
-3.1827991e+81
-3.1834978e+81
-3.1654837e+81
-3.1654547e+81
-3.1838934e+81
-3.1835087e+81
-3.2115496e+81
-3.2295194e+81
-3.2114141e+81
-3.228877e+81
-3.2108443e+81
-3.2283792e+81
-3.2113009e+81
-3.2293411e+81
-3.2514109e+81
-3.260442e+81
-3.2522157e+81
-3.2619396e+81
-3.2524821e+81
-3.2622132e+81
-3.25176e+81
-3.2608661e+81
-3.2917595e+81
-3.2907438e+81
-3.2913483e+81
-3.2921111e+81
-3.2899048e+81
-3.2914549e+81
-3.291779e+81
-3.2913388e+81
-3.2880238e+81
-3.2893127e+81
-3.2896799e+81
-3.2891916e+81
-3.2895648e+81
-3.2906441e+81
-3.2905339e+81
-3.2897712e+81
-3.2724296e+81
-3.2735425e+81
-3.2744858e+81
-3.2739005e+81
-3.2675824e+81
-3.2692154e+81
-3.2710475e+81
-3.2710774e+81
-3.2751395e+81
-3.2766408e+81
-3.2774081e+81
-3.277137e+81
-3.279558e+81
-3.2787683e+81
-3.2780952e+81
-3.2790548e+81
-3.2860215e+81
-3.2872488e+81
-3.2870137e+81
-3.2862117e+81
-3.2838293e+81
-3.2854609e+81
-3.2859949e+81
-3.2855454e+81
-3.2884433e+81
-3.2876529e+81
-3.2887872e+81
-3.2876771e+81
-3.2863766e+81
-3.2879232e+81
-3.2874957e+81
-3.288027e+81
-3.1123078e+81
-3.1065764e+81
-3.021416e+81
-3.1446105e+81
-3.1469496e+81
-3.2555978e+81
-3.2541421e+81
-3.1939686e+81
-3.2569951e+81
-3.2583376e+81
-3.2571915e+81
-3.2820807e+81
-3.2800159e+81
-3.2922006e+81
-3.2930863e+81
-3.2828183e+81
-3.2833083e+81
-3.2804933e+81
-3.2811467e+81
-3.2768571e+81
-3.2746947e+81
-3.2773025e+81
-3.2755914e+81
-3.2757593e+81
-3.2757198e+81
-3.2775326e+81
-3.2778232e+81
-3.2818252e+81
-3.2821832e+81
-3.2781217e+81
-3.2759819e+81
-3.2784488e+81
-3.276755e+81
-3.2766363e+81
-3.2765914e+81
-3.2784445e+81
-3.2786778e+81
-3.2690889e+81
-3.272694e+81
-3.272993e+81
-3.2695058e+81
-3.273764e+81
-3.2733962e+81
-3.269943e+81
-3.2701255e+81
-3.2674208e+81
-3.2606718e+81
-3.2605278e+81
-3.266977e+81
-3.2603074e+81
-3.2664615e+81
-3.2665829e+81
-3.2601899e+81
-3.267257e+81
-3.2678094e+81
-3.2617458e+81
-3.2610342e+81
-3.2617308e+81
-3.2678772e+81
-3.2671899e+81
-3.2609973e+81
-3.2742824e+81
-3.2741816e+81
-3.2703967e+81
-3.2703915e+81
-3.2743974e+81
-3.2741151e+81
-3.2704053e+81
-3.2702566e+81
-3.279441e+81
-3.2805238e+81
-3.2914633e+81
-3.2917852e+81
-3.280072e+81
-3.2775212e+81
-3.2899473e+81
-3.2909531e+81
-3.2776034e+81
-3.2768397e+81
-3.2790018e+81
-3.2793191e+81
-3.2793835e+81
-3.2776474e+81
-3.2775697e+81
-3.279666e+81
-3.272079e+81
-3.2757671e+81
-3.2757717e+81
-3.2722112e+81
-3.2634404e+81
-3.2696622e+81
-3.2693934e+81
-3.2630516e+81
-3.2749965e+81
-3.2748876e+81
-3.2710628e+81
-3.2711435e+81
-3.2610323e+81
-3.2676504e+81
-3.2683625e+81
-3.2621231e+81
-3.2717485e+81
-3.2752182e+81
-3.2756896e+81
-3.2719838e+81
-3.2685751e+81
-3.2693083e+81
-3.2626434e+81
-3.2617287e+81
-3.2175291e+81
-3.2476195e+81
-3.245986e+81
-3.1741192e+81
-3.1772771e+81
-3.2211574e+81
-3.2492946e+81
-3.2500692e+81
-3.2511623e+81
-3.249264e+81
-3.1914561e+81
-3.2531662e+81
-3.2543056e+81
-3.2527439e+81
-3.252581e+81
-3.1928357e+81
-3.2556615e+81
-3.2559531e+81
-3.170243e+81
-3.1676747e+81
-3.2109355e+81
-3.2401544e+81
-3.2375799e+81
-3.2131917e+81
-3.2433523e+81
-3.2425663e+81
-3.2533718e+81
-3.2553891e+81
-3.2577544e+81
-3.2593691e+81
-3.2466359e+81
-3.2470398e+81
-3.2450142e+81
-3.2438174e+81
-3.2460618e+81
-3.2468368e+81
-3.2479971e+81
-3.2490982e+81
-3.2504481e+81
-3.2547289e+81
-3.2515029e+81
-3.2570104e+81
-3.2525864e+81
-3.2532051e+81
-3.2583069e+81
-3.2583533e+81
-3.2508273e+81
-3.2494274e+81
-3.2482484e+81
-3.2513376e+81
-3.2499586e+81
-3.2506767e+81
-3.2520969e+81
-3.2532643e+81
-3.2546693e+81
-3.2556017e+81
-3.2592519e+81
-3.2610285e+81
-3.2563983e+81
-3.2614195e+81
-3.2567891e+81
-3.2607957e+81
-3.2616615e+81
-3.2632584e+81
-3.2650172e+81
-3.2662134e+81
-3.2521206e+81
-3.2531604e+81
-3.2548377e+81
-3.2552337e+81
-3.2538891e+81
-3.2545905e+81
-3.2559965e+81
-3.2568902e+81
-3.2581484e+81
-3.258996e+81
-3.2619519e+81
-3.2635451e+81
-3.260607e+81
-3.2600441e+81
-3.2649762e+81
-3.2645157e+81
-3.2566073e+81
-3.2573987e+81
-3.2596517e+81
-3.2586579e+81
-3.261614e+81
-3.2622525e+81
-3.2654632e+81
-3.2671332e+81
-3.2563888e+81
-3.2555171e+81
-3.2576754e+81
-3.2581139e+81
-3.2627716e+81
-3.2630257e+81
-3.2669888e+81
-3.2662495e+81
-3.2748797e+81
-3.2722116e+81
-3.2858481e+81
-3.2849185e+81
-3.2752083e+81
-3.2759576e+81
-3.2749828e+81
-3.2758077e+81
-3.2870129e+81
-3.2865828e+81
-3.2766078e+81
-3.2771966e+81
-3.2705388e+81
-3.2696048e+81
-3.2719304e+81
-3.2723871e+81
-3.2727157e+81
-3.2707782e+81
-3.2707944e+81
-3.2730516e+81
-3.2734471e+81
-3.2710786e+81
-3.2738383e+81
-3.2719355e+81
-3.2719361e+81
-3.2719643e+81
-3.2739226e+81
-3.2742085e+81
-3.2558693e+81
-3.2617861e+81
-3.2624093e+81
-3.2567619e+81
-3.25747e+81
-3.26344e+81
-3.2630461e+81
-3.2571497e+81
-3.2681138e+81
-3.2678523e+81
-3.2646777e+81
-3.2644101e+81
-3.2691604e+81
-3.268759e+81
-3.2659379e+81
-3.2656098e+81
-3.2575895e+81
-3.2636926e+81
-3.264107e+81
-3.258249e+81
-3.2580683e+81
-3.2641883e+81
-3.2636493e+81
-3.2576649e+81
-3.2698456e+81
-3.269677e+81
-3.2665407e+81
-3.2665086e+81
-3.2701763e+81
-3.2698974e+81
-3.2667185e+81
-3.2666237e+81
-3.2770638e+81
-3.2782479e+81
-3.2890071e+81
-3.2893959e+81
-3.2791724e+81
-3.2797014e+81
-3.2779242e+81
-3.2755981e+81
-3.2885639e+81
-3.2874873e+81
-3.2778932e+81
-3.2785674e+81
-3.2732127e+81
-3.2723069e+81
-3.2746339e+81
-3.2750648e+81
-3.2752691e+81
-3.2733649e+81
-3.2733519e+81
-3.2755516e+81
-3.2758138e+81
-3.2735378e+81
-3.2761912e+81
-3.2744044e+81
-3.2743374e+81
-3.2743459e+81
-3.2762091e+81
-3.2764638e+81
-3.2709393e+81
-3.2707169e+81
-3.2674528e+81
-3.2677204e+81
-3.2579714e+81
-3.2644033e+81
-3.2650618e+81
-3.2585849e+81
-3.2716715e+81
-3.2713516e+81
-3.268503e+81
-3.2686913e+81
-3.2655913e+81
-3.2659166e+81
-3.2589975e+81
-3.2587656e+81
-3.2721663e+81
-3.2720463e+81
-3.2690629e+81
-3.2689805e+81
-3.2722607e+81
-3.2721031e+81
-3.2689939e+81
-3.2686607e+81
-3.2662573e+81
-3.2659178e+81
-3.2591287e+81
-3.2597184e+81
-3.2656017e+81
-3.2661216e+81
-3.2593547e+81
-3.2594801e+81
-3.2723571e+81
-3.2715152e+81
-3.2794824e+81
-3.2813899e+81
-3.2715688e+81
-3.2723333e+81
-3.2812435e+81
-3.2800906e+81
-3.2730255e+81
-3.2717792e+81
-3.280308e+81
-3.281902e+81
-3.2723714e+81
-3.272818e+81
-3.2815168e+81
-3.2801875e+81
-3.2685065e+81
-3.2696239e+81
-3.2762672e+81
-3.2783005e+81
-3.2695227e+81
-3.2700535e+81
-3.2788092e+81
-3.2778039e+81
-3.2705166e+81
-3.2700523e+81
-3.278496e+81
-3.2799131e+81
-3.2712704e+81
-3.2710101e+81
-3.2799373e+81
-3.2788471e+81
-3.2843369e+81
-3.28291e+81
-3.2847549e+81
-3.2848117e+81
-3.2861117e+81
-3.2850628e+81
-3.2855331e+81
-3.2859068e+81
-3.2866942e+81
-3.2855032e+81
-3.2866088e+81
-3.2869235e+81
-3.2867577e+81
-3.2875165e+81
-3.2870776e+81
-3.2871929e+81
-3.2880003e+81
-3.2873921e+81
-3.2881538e+81
-3.2884409e+81
-3.2886762e+81
-3.289397e+81
-3.2893733e+81
-3.288767e+81
-3.2900442e+81
-3.2885689e+81
-3.2905282e+81
-3.2899773e+81
-3.2908508e+81
-3.2906033e+81
-3.2898617e+81
-3.2902791e+81
-3.2645243e+81
-3.2648344e+81
-3.2724993e+81
-3.2738567e+81
-3.2645941e+81
-3.265875e+81
-3.2727914e+81
-3.2741959e+81
-3.2625653e+81
-3.2616737e+81
-3.2690042e+81
-3.2712053e+81
-3.2718966e+81
-3.2635002e+81
-3.2630365e+81
-3.2711998e+81
-3.2660358e+81
-3.2655795e+81
-3.2754789e+81
-3.2736741e+81
-3.2667173e+81
-3.2673412e+81
-3.2759124e+81
-3.2750017e+81
-3.2679472e+81
-3.2675541e+81
-3.2756501e+81
-3.2771259e+81
-3.2680117e+81
-3.2687229e+81
-3.2768692e+81
-3.2754392e+81
-3.0519335e+81
-3.052635e+81
-3.0624919e+81
-3.0631578e+81
-3.0506552e+81
-3.0611953e+81
-3.0512237e+81
-3.0618881e+81
-3.0818685e+81
-3.0940066e+81
-3.0823872e+81
-3.0944661e+81
-3.080684e+81
-3.0928044e+81
-3.0812326e+81
-3.0934299e+81
-3.0213353e+81
-3.0314567e+81
-3.0219658e+81
-3.0320903e+81
-3.0201716e+81
-3.0301249e+81
-3.0206783e+81
-3.0307786e+81
-3.002768e+81
-3.0033093e+81
-2.9937279e+81
-2.9941483e+81
-2.9667736e+81
-3.0038797e+81
-3.0046233e+81
-2.9955023e+81
-2.9947912e+81
-2.9677486e+81
-2.9448345e+81
-2.9462185e+81
-3.0181769e+81
-3.0281292e+81
-3.0185257e+81
-3.0285816e+81
-3.0015909e+81
-3.0023256e+81
-2.9932335e+81
-2.992521e+81
-2.9655895e+81
-3.0005883e+81
-3.0009498e+81
-2.9643748e+81
-2.99194e+81
-2.9917259e+81
-3.019057e+81
-3.0291251e+81
-3.0195903e+81
-3.0296125e+81
-2.9442238e+81
-2.9429665e+81
-3.0494395e+81
-3.060133e+81
-3.0499744e+81
-3.0606482e+81
-3.048546e+81
-3.0592572e+81
-3.0488406e+81
-3.0596619e+81
-3.0787033e+81
-3.091106e+81
-3.0791308e+81
-3.0916517e+81
-3.079748e+81
-3.0921284e+81
-3.0801428e+81
-3.092443e+81
-2.8950284e+81
-2.897221e+81
-2.9180232e+81
-2.9161352e+81
-2.8987527e+81
-2.8982648e+81
-2.9190931e+81
-2.9194957e+81
-3.0441395e+81
-3.0448082e+81
-3.0545513e+81
-3.0552916e+81
-3.0738319e+81
-3.0745274e+81
-3.0858197e+81
-3.0865255e+81
-3.0139486e+81
-3.0238879e+81
-3.0145767e+81
-3.0244989e+81
-2.9970985e+81
-2.9881125e+81
-2.9976383e+81
-2.9980738e+81
-2.9620945e+81
-2.9890462e+81
-2.9886206e+81
-3.0152519e+81
-3.0253549e+81
-3.0158622e+81
-3.0260555e+81
-2.9412562e+81
-2.9410152e+81
-2.9626569e+81
-2.9987972e+81
-2.9995971e+81
-2.990647e+81
-2.9898356e+81
-3.0167561e+81
-3.0268797e+81
-3.0173919e+81
-3.0274722e+81
-2.8936309e+81
-2.913163e+81
-2.9139981e+81
-3.0471044e+81
-3.0578187e+81
-3.047735e+81
-3.0584222e+81
-3.0772996e+81
-3.0896856e+81
-3.0778066e+81
-3.0902456e+81
-3.0457646e+81
-3.0563116e+81
-3.0463183e+81
-3.057091e+81
-3.0757018e+81
-3.0878035e+81
-3.076461e+81
-3.0888129e+81
-3.2319796e+81
-3.2418567e+81
-3.2339396e+81
-3.2444054e+81
-3.1934849e+81
-3.1940971e+81
-3.2119238e+81
-3.2122137e+81
-3.210806e+81
-3.2354151e+81
-3.2459557e+81
-3.235664e+81
-3.2456536e+81
-3.1973662e+81
-3.1977283e+81
-3.2155234e+81
-3.2155313e+81
-3.195531e+81
-3.2134705e+81
-3.1965007e+81
-3.2148196e+81
-3.2386758e+81
-3.238506e+81
-3.2490861e+81
-3.2482917e+81
-3.2468768e+81
-3.2369133e+81
-3.2379123e+81
-3.2482752e+81
-3.1487741e+81
-3.1672179e+81
-3.1497517e+81
-3.1684762e+81
-3.1111298e+81
-3.1119786e+81
-3.1251884e+81
-3.1262909e+81
-3.1506606e+81
-3.1510502e+81
-3.1693604e+81
-3.1695554e+81
-3.112882e+81
-3.1135217e+81
-3.1271351e+81
-3.1276386e+81
-3.1090642e+81
-3.1098112e+81
-3.1232586e+81
-3.1239123e+81
-3.1468826e+81
-3.147465e+81
-3.165435e+81
-3.1659034e+81
-3.1144622e+81
-3.1286279e+81
-3.1148745e+81
-3.1293144e+81
-3.1153867e+81
-3.1297311e+81
-3.1157361e+81
-3.1299203e+81
-3.1533411e+81
-3.1720093e+81
-3.1534763e+81
-3.1719808e+81
-3.1521133e+81
-3.1705537e+81
-3.1527646e+81
-3.1714796e+81
-3.1998908e+81
-3.2182949e+81
-3.2000562e+81
-3.2181028e+81
-3.1986359e+81
-3.2165898e+81
-3.199271e+81
-3.2177495e+81
-3.2396839e+81
-3.2493913e+81
-3.240884e+81
-3.2512654e+81
-3.2416452e+81
-3.2519701e+81
-3.2415105e+81
-3.2514132e+81
-3.1540272e+81
-3.1723952e+81
-3.1546163e+81
-3.1732369e+81
-3.1161841e+81
-3.1303781e+81
-3.1166831e+81
-3.1310906e+81
-3.1172722e+81
-3.1315566e+81
-3.1178048e+81
-3.1318581e+81
-3.1550809e+81
-3.1736545e+81
-3.155217e+81
-3.1734255e+81
-3.2014962e+81
-3.2014754e+81
-3.2200205e+81
-3.2195362e+81
-3.2011528e+81
-3.2005443e+81
-3.2186094e+81
-3.2197485e+81
-3.2421448e+81
-3.2430632e+81
-3.2535292e+81
-3.2521079e+81
-3.2434841e+81
-3.2540023e+81
-3.2429204e+81
-3.2528828e+81
-2.7695245e+81
-2.8438816e+81
-2.8188698e+81
-2.8466145e+81
-2.8584595e+81
-2.8563303e+81
-2.8725837e+81
-2.8752381e+81
-2.875415e+81
-2.8589118e+81
-2.8592112e+81
-2.8760501e+81
-2.8464485e+81
-2.8194186e+81
-2.845852e+81
-2.8198801e+81
-3.2035782e+81
-3.2146821e+81
-3.2153793e+81
-3.2041599e+81
-3.2047337e+81
-3.2045213e+81
-3.2157752e+81
-3.2157805e+81
-3.2396741e+81
-3.2282887e+81
-3.2390629e+81
-3.2288315e+81
-3.2292011e+81
-3.2397393e+81
-3.2292604e+81
-3.2400051e+81
-3.2135158e+81
-3.2016316e+81
-3.2127701e+81
-3.2021836e+81
-3.2263577e+81
-3.2371359e+81
-3.2380139e+81
-3.2270656e+81
-3.2139994e+81
-3.2026613e+81
-3.2139986e+81
-3.2028562e+81
-3.227641e+81
-3.2385403e+81
-3.2276642e+81
-3.238405e+81
-3.2609321e+81
-3.2516897e+81
-3.2598695e+81
-3.252366e+81
-3.2701735e+81
-3.2692532e+81
-3.2702678e+81
-3.2717399e+81
-3.2528703e+81
-3.2609368e+81
-3.2529169e+81
-3.2613131e+81
-3.2719152e+81
-3.270566e+81
-3.2703326e+81
-3.2714721e+81
-3.2535283e+81
-3.2614609e+81
-3.2621918e+81
-3.2539784e+81
-3.2716909e+81
-3.272779e+81
-3.2713453e+81
-3.2706992e+81
-3.2542427e+81
-3.2623361e+81
-3.2541171e+81
-3.2619272e+81
-3.2710186e+81
-3.2719936e+81
-3.2714092e+81
-3.2727064e+81
-3.2067896e+81
-3.2177564e+81
-3.2183717e+81
-3.2072554e+81
-3.2074728e+81
-3.2074193e+81
-3.2186009e+81
-3.2184807e+81
-3.2423322e+81
-3.231209e+81
-3.2417274e+81
-3.2316862e+81
-3.2317999e+81
-3.2421817e+81
-3.2319571e+81
-3.2425353e+81
-3.2169945e+81
-3.2053212e+81
-3.2163042e+81
-3.2058404e+81
-3.2297373e+81
-3.2402359e+81
-3.241037e+81
-3.2303782e+81
-3.2174278e+81
-3.2062418e+81
-3.2174079e+81
-3.2063954e+81
-3.2308672e+81
-3.2414575e+81
-3.2309209e+81
-3.2413735e+81
-3.2632791e+81
-3.2546049e+81
-3.2623682e+81
-3.2552099e+81
-3.2736455e+81
-3.2714268e+81
-3.2722321e+81
-3.2723266e+81
-3.255625e+81
-3.2632729e+81
-3.2556074e+81
-3.2635112e+81
-3.2725107e+81
-3.2736965e+81
-3.2723304e+81
-3.2732233e+81
-3.2559747e+81
-3.263558e+81
-3.2643744e+81
-3.2564333e+81
-3.2565495e+81
-3.2644451e+81
-3.2563718e+81
-3.2640288e+81
-3.2733816e+81
-3.2745063e+81
-3.2725938e+81
-3.2733005e+81
-3.2729969e+81
-3.2733631e+81
-3.2744524e+81
-3.2738166e+81
-3.1661404e+81
-3.1554266e+81
-3.1656381e+81
-3.155877e+81
-3.1791691e+81
-3.1898518e+81
-3.190481e+81
-3.1796751e+81
-3.1668156e+81
-3.1562695e+81
-3.1665709e+81
-3.1566073e+81
-3.1802239e+81
-3.1909332e+81
-3.1803713e+81
-3.1910009e+81
-3.1167028e+81
-3.1233771e+81
-3.1237918e+81
-3.1170744e+81
-3.117433e+81
-3.1241256e+81
-3.1244051e+81
-3.1177203e+81
-3.1345701e+81
-3.1418047e+81
-3.1423367e+81
-3.1350195e+81
-3.1353907e+81
-3.142654e+81
-3.1429692e+81
-3.1356999e+81
-3.1180483e+81
-3.1247493e+81
-3.1250603e+81
-3.1183397e+81
-3.1188083e+81
-3.1186195e+81
-3.1253488e+81
-3.1255557e+81
-3.1359999e+81
-3.1432564e+81
-3.1436211e+81
-3.1363099e+81
-3.1366978e+81
-3.136558e+81
-3.1438609e+81
-3.1439821e+81
-3.1569147e+81
-3.1672405e+81
-3.1675794e+81
-3.1571708e+81
-3.1575429e+81
-3.1574011e+81
-3.1677481e+81
-3.1678288e+81
-3.1914077e+81
-3.1918906e+81
-3.1808246e+81
-3.1811178e+81
-3.1812653e+81
-3.1812838e+81
-3.1920695e+81
-3.1919908e+81
-3.1624076e+81
-3.1516237e+81
-3.1618625e+81
-3.1521111e+81
-3.1752718e+81
-3.1860381e+81
-3.1867187e+81
-3.1758752e+81
-3.1529617e+81
-3.1632377e+81
-3.1526292e+81
-3.1629426e+81
-3.1765255e+81
-3.187247e+81
-3.1767646e+81
-3.1873687e+81
-3.1148696e+81
-3.12152e+81
-3.1219783e+81
-3.1153227e+81
-3.1157701e+81
-3.1224504e+81
-3.122803e+81
-3.1161524e+81
-3.140462e+81
-3.1327417e+81
-3.1400221e+81
-3.1331343e+81
-3.1412264e+81
-3.1336386e+81
-3.1409004e+81
-3.1339969e+81
-3.1201264e+81
-3.1130195e+81
-3.1196667e+81
-3.113467e+81
-3.1307945e+81
-3.1381037e+81
-3.1386397e+81
-3.1312793e+81
-3.1208865e+81
-3.1139238e+81
-3.1205837e+81
-3.1142518e+81
-3.1318125e+81
-3.1390857e+81
-3.132131e+81
-3.1394226e+81
-3.1536391e+81
-3.1639202e+81
-3.1644049e+81
-3.154019e+81
-3.1544777e+81
-3.1648014e+81
-3.1547773e+81
-3.1650546e+81
-3.1881085e+81
-3.1887511e+81
-3.1774836e+81
-3.1779778e+81
-3.1785348e+81
-3.1783787e+81
-3.1891299e+81
-3.1892348e+81
-3.0851648e+81
-3.0791648e+81
-3.0847618e+81
-3.0795431e+81
-3.0950803e+81
-3.1010197e+81
-3.1015241e+81
-3.0955374e+81
-3.0803714e+81
-3.0860027e+81
-3.0799984e+81
-3.0856255e+81
-3.0960673e+81
-3.1019186e+81
-3.0963906e+81
-3.1022094e+81
-3.051129e+81
-3.0556145e+81
-3.0558976e+81
-3.051396e+81
-3.0521396e+81
-3.0517682e+81
-3.0562771e+81
-3.0567025e+81
-3.070408e+81
-3.0654978e+81
-3.0700706e+81
-3.0658052e+81
-3.066537e+81
-3.071185e+81
-3.0661965e+81
-3.0707882e+81
-3.054351e+81
-3.0495077e+81