/*--------------------------------*- C++ -*----------------------------------*\
  =========                 |
  \\      /  F ield         | OpenFOAM: The Open Source CFD Toolbox
   \\    /   O peration     | Website:  https://openfoam.org
    \\  /    A nd           | Version:  7
     \\/     M anipulation  |
\*---------------------------------------------------------------------------*/
FoamFile
{
    version     2.0;
    format      ascii;
    class       volVectorField;
    location    "7000";
    object      U;
}
// * * * * * * * * * * * * * * * * * * * * * * * * * * * * * * * * * * * * * //

dimensions      [0 1 -1 0 0 0 0];

internalField   nonuniform List<vector> 
34377
(
(-5.0764603e+41 -9.9941556e+40 2.6369655e+40)
(-4.7975669e+41 -9.8871865e+40 4.1668039e+40)
(-4.3791793e+41 -6.3571128e+40 4.8573209e+40)
(-4.6248712e+41 -1.5666926e+40 5.0965394e+40)
(-4.263337e+41 -7.3095887e+40 9.0347659e+40)
(-5.1071972e+41 -1.1157239e+41 3.9045805e+40)
(-4.2140628e+41 -7.0950825e+40 9.6073655e+40)
(-6.2317278e+41 -4.008408e+40 3.2814966e+40)
(-4.6653049e+41 -4.8509631e+40 2.3951046e+40)
(-4.5980997e+41 -5.6608682e+40 1.8596292e+40)
(-4.6879157e+41 -1.5304739e+40 -2.8523803e+40)
(-3.7743261e+41 -1.5108255e+40 3.2265539e+40)
(-4.4595295e+41 -6.7710625e+40 -2.2944866e+40)
(-4.7069908e+41 -1.2755314e+41 5.250153e+40)
(-3.4395627e+41 -8.8110397e+40 2.781879e+40)
(-4.5297321e+41 -2.3138977e+40 6.012965e+40)
(-4.1352271e+41 -3.9839332e+40 8.6665112e+40)
(-3.6695889e+41 -3.4695565e+40 4.9591843e+40)
(-3.7529881e+41 -9.9084068e+39 5.0941921e+40)
(-4.1542206e+41 -4.2351785e+40 9.0373164e+40)
(-3.6887073e+41 -3.0704325e+40 4.8469292e+40)
(-3.768281e+41 -7.2281761e+39 5.2275912e+40)
(-4.080332e+41 -4.7483813e+40 8.9280769e+40)
(-4.1406711e+41 -4.0067468e+40 8.7086965e+40)
(-4.0475602e+41 -6.967887e+40 1.016422e+41)
(-4.4111149e+41 -7.0608554e+40 5.7320344e+40)
(-4.1013293e+41 -7.5180491e+40 9.5918446e+40)
(-6.1350433e+41 -4.5751575e+40 3.2431816e+40)
(-4.8094262e+41 -2.9377645e+40 5.9195421e+40)
(-4.5728583e+41 -3.8456598e+40 -4.4525334e+40)
(-4.6658507e+41 -2.8494949e+40 -3.7235988e+40)
(-6.1018454e+41 -3.3031942e+40 1.912691e+40)
(-4.1207211e+41 -2.4195219e+40 4.5572925e+40)
(-3.9418961e+41 -5.471627e+40 5.3836639e+40)
(-3.981659e+41 -3.8596522e+40 -3.8009875e+40)
(-3.916028e+41 -5.5193712e+40 -4.4038981e+40)
(-4.6362194e+41 -6.0171228e+40 6.0503859e+40)
(-4.2525077e+41 -3.7146477e+40 4.0399649e+40)
(-4.2589341e+41 -3.3886906e+40 3.529402e+40)
(-4.4716711e+41 -6.1902681e+40 1.3828099e+40)
(-4.5801616e+41 -4.9116848e+40 2.1282428e+40)
(-4.2499457e+41 -3.5194937e+40 3.8129377e+40)
(-4.3083779e+41 -3.5569577e+40 4.2356802e+40)
(-3.6732298e+41 -4.8143833e+40 -2.1609444e+40)
(-4.0697745e+41 -3.9228749e+40 -5.4422969e+40)
(-4.0325188e+41 -3.6857061e+40 -5.7208676e+40)
(-3.7565027e+41 -2.6271023e+40 -2.1397194e+40)
(-3.4132586e+41 -1.089817e+40 -4.9322706e+40)
(-2.4755915e+41 -5.4451742e+40 2.167382e+40)
(-3.2991686e+41 -3.89611e+40 -4.622362e+40)
(-2.6800888e+41 -7.2273477e+39 2.977078e+40)
(-4.7329717e+41 -2.6459585e+40 -2.9080785e+40)
(-3.6303909e+41 -5.0709013e+40 -1.9433875e+40)
(-4.0291575e+41 -4.2125961e+40 -5.3672677e+40)
(-3.9803222e+41 -4.045935e+40 -5.7600826e+40)
(-3.6846677e+41 -2.8580605e+40 -1.9331606e+40)
(-4.5068874e+41 -8.0469468e+40 -2.4380348e+40)
(-3.2999903e+41 -1.0036477e+41 3.3377667e+40)
(-3.6277924e+41 -3.1054434e+40 4.1127003e+40)
(-3.2890768e+41 -4.1568879e+40 -4.3922937e+40)
(-2.501139e+41 -5.7729723e+40 2.6423816e+40)
(-3.394936e+41 -1.3919824e+40 -4.6898632e+40)
(-2.670736e+41 -1.1365124e+40 3.3484163e+40)
(-3.7455973e+41 -1.083973e+40 5.6071736e+40)
(-3.6624954e+41 -3.4997334e+40 4.9856605e+40)
(-3.9647456e+41 -4.1214069e+40 8.728491e+40)
(-3.9253716e+41 -4.7184363e+40 9.3245354e+40)
(-3.0618761e+41 -2.1610466e+40 5.0309693e+40)
(-3.066317e+41 -6.1928419e+39 5.0150605e+40)
(-3.6331976e+41 -2.4110574e+40 7.3133462e+40)
(-3.633716e+41 -2.6365117e+40 7.4598342e+40)
(-3.6598861e+41 -2.495858e+40 7.1924133e+40)
(-3.0355791e+41 -2.0182549e+40 4.8580011e+40)
(-3.0746442e+41 -5.0618342e+39 5.1880888e+40)
(-3.6499275e+41 -2.8527218e+40 7.4875488e+40)
(-3.0510647e+41 -2.1452624e+40 4.74964e+40)
(-3.6981211e+41 -2.4594648e+40 6.9167289e+40)
(-3.0737369e+41 -4.3323923e+39 4.7945315e+40)
(-3.6995428e+41 -2.4974722e+40 7.1018934e+40)
(-3.046965e+41 -1.7516688e+40 4.7298028e+40)
(-3.6547947e+41 -2.50131e+40 6.9540892e+40)
(-3.1098127e+41 -2.9165424e+39 5.1721104e+40)
(-3.6445005e+41 -2.9845574e+40 7.2913291e+40)
(-3.9803925e+41 -4.232134e+40 8.8350033e+40)
(-3.7129304e+41 -4.077122e+40 5.1799757e+40)
(-3.7437702e+41 -1.4983267e+40 5.3130738e+40)
(-3.9350868e+41 -4.3645052e+40 9.2108392e+40)
(-4.516887e+41 -2.8197447e+40 -4.227791e+40)
(-4.5038952e+41 -4.134621e+40 -4.6696062e+40)
(-4.7466697e+41 -3.0361066e+40 5.9785172e+40)
(-4.6052986e+41 -6.0633189e+40 6.0215963e+40)
(-6.02711e+41 -3.4963545e+40 2.2245576e+40)
(-3.8320951e+41 -5.6056415e+40 5.5859061e+40)
(-4.050308e+41 -2.235618e+40 4.874881e+40)
(-3.8847724e+41 -5.5351039e+40 -4.828613e+40)
(-3.929487e+41 -3.8790443e+40 -4.1711381e+40)
(-4.4043689e+41 -2.5761247e+40 4.9677702e+40)
(-4.3069792e+41 -4.6702503e+40 4.9007109e+40)
(-4.2789623e+41 -2.4786609e+40 -1.7048353e+40)
(-4.2878383e+41 -3.3073134e+40 -1.7474051e+40)
(-4.2810884e+41 -1.8187159e+40 1.4173328e+40)
(-4.0350022e+41 -2.5593425e+40 -3.8395836e+40)
(-4.0937699e+41 -1.9095691e+40 -3.5448699e+40)
(-4.2094959e+41 -3.3916009e+40 1.5111515e+40)
(-4.6848981e+41 -1.4395791e+40 4.569939e+40)
(-4.2884857e+41 -1.7556592e+40 1.5345577e+40)
(-4.0400134e+41 -2.4580991e+40 -3.9107489e+40)
(-4.1290973e+41 -2.0868824e+40 -3.2861282e+40)
(-4.2272312e+41 -3.7498995e+40 1.9660748e+40)
(-4.5847307e+41 -4.5165329e+40 5.0659684e+40)
(-4.2790779e+41 -3.2029042e+40 -1.5156976e+40)
(-4.3479602e+41 -1.4622306e+40 -9.8684824e+39)
(-3.9311965e+41 -4.8378798e+40 5.4546644e+40)
(-3.8399166e+41 -5.0015998e+40 -5.0710704e+40)
(-3.9296882e+41 -2.9371604e+40 -4.5496696e+40)
(-4.0853984e+41 -1.9024577e+40 4.9124804e+40)
(-4.3681576e+41 -2.3902637e+40 4.7869629e+40)
(-4.3031906e+41 -2.9659868e+40 -1.576889e+40)
(-4.3076667e+41 -2.7439298e+40 -1.4050229e+40)
(-4.2492076e+41 -4.7087801e+40 4.7863146e+40)
(-3.6934579e+41 -2.5886464e+40 4.246046e+40)
(-3.6782513e+41 -2.0844893e+40 3.7389849e+40)
(-3.70313e+41 -2.1583406e+40 3.828242e+40)
(-3.7452452e+41 -2.2639822e+40 4.1260873e+40)
(-4.1819441e+41 -3.6649088e+40 4.1743146e+40)
(-4.1483351e+41 -3.8090529e+40 3.7457548e+40)
(-4.1356403e+41 -3.5027041e+40 3.430887e+40)
(-4.1749596e+41 -3.7583787e+40 4.2580366e+40)
(-3.6938079e+41 -2.504847e+40 4.3695607e+40)
(-3.6598257e+41 -2.2004842e+40 4.0980753e+40)
(-3.6898636e+41 -2.5614838e+40 4.2894056e+40)
(-3.6816734e+41 -2.2000098e+40 3.8341613e+40)
(-5.0488627e+41 -4.0378168e+40 -2.9857914e+40)
(-5.1099309e+41 -3.6778815e+40 -2.9700745e+40)
(-4.2006992e+41 -3.1647298e+40 -5.1441306e+40)
(-4.1074263e+41 -3.5603579e+40 1.1067395e+39)
(-4.1083626e+41 -2.8943511e+40 -2.7959484e+39)
(-4.1944689e+41 -3.1955039e+40 -5.1903636e+40)
(-3.0645093e+41 -2.7543291e+40 -6.0912857e+40)
(-2.5583234e+41 -2.8137804e+40 -3.82505e+40)
(-2.5985494e+41 -1.4765332e+40 -3.9758054e+40)
(-3.0401244e+41 -2.8617806e+40 -6.2615138e+40)
(-1.989421e+41 -2.7814308e+40 -3.6950861e+40)
(-2.0827201e+41 -1.0121811e+40 -3.7183984e+40)
(-1.7513447e+41 -3.8702185e+40 2.8475939e+40)
(-1.8944104e+41 -3.7972652e+39 3.8684453e+40)
(-3.0227175e+41 -2.7987764e+40 -6.229942e+40)
(-3.0267911e+41 -2.8646649e+40 -5.9487623e+40)
(-2.5898691e+41 -1.4828117e+40 -3.7826841e+40)
(-2.5426291e+41 -2.9773143e+40 -3.7225491e+40)
(-1.986541e+41 -2.6371886e+40 -3.6982866e+40)
(-1.8922919e+41 -1.1707778e+39 3.7175813e+40)
(-1.7565598e+41 -3.5979251e+40 2.8888685e+40)
(-3.6164181e+41 -5.2265969e+40 -1.6492599e+40)
(-3.9628754e+41 -4.5632934e+40 -5.3723992e+40)
(-3.9000113e+41 -4.3029948e+40 -5.71736e+40)
(-3.6442157e+41 -2.9114824e+40 -1.6744682e+40)
(-4.1512579e+41 -3.3292336e+40 -5.1242012e+40)
(-4.0654924e+41 -3.7431632e+40 1.9099158e+39)
(-4.1268117e+41 -3.1929275e+40 -2.4754459e+39)
(-4.1442716e+41 -3.4996618e+40 -5.2088293e+40)
(-3.8046491e+41 -4.4218558e+40 -5.7389441e+40)
(-3.8497923e+41 -4.5050714e+40 -5.2208632e+40)
(-3.5417077e+41 -5.3908334e+40 -1.4892396e+40)
(-3.5962208e+41 -3.1506002e+40 -1.5876943e+40)
(-3.2807808e+41 -4.6988941e+40 -4.0550184e+40)
(-3.3729216e+41 -1.8670431e+40 -4.3019112e+40)
(-2.4324896e+41 -6.4633911e+40 2.4557256e+40)
(-2.6116568e+41 -1.9215278e+40 3.2892427e+40)
(-3.3159294e+41 -4.4132803e+40 -4.1862199e+40)
(-3.3785256e+41 -1.4662989e+40 -4.3485429e+40)
(-2.4917769e+41 -5.9863748e+40 2.6382981e+40)
(-2.6413538e+41 -1.2052062e+40 3.4592689e+40)
(-2.9565694e+41 -2.8368422e+40 -6.1316434e+40)
(-2.9713883e+41 -2.8258648e+40 -5.8448783e+40)
(-2.5100894e+41 -2.8843762e+40 -3.5301972e+40)
(-2.5422527e+41 -1.4474054e+40 -3.5377085e+40)
(-1.9834385e+41 -2.6821569e+40 -3.527132e+40)
(-2.0584671e+41 -1.0114119e+40 -3.433963e+40)
(-1.786903e+41 -3.8135612e+40 3.4234535e+40)
(-1.8846987e+41 -5.2093638e+39 4.1349705e+40)
(-2.965597e+41 -2.9435447e+40 -6.1732705e+40)
(-2.9785153e+41 -2.8791932e+40 -5.8564434e+40)
(-2.5554208e+41 -1.5282231e+40 -3.7018916e+40)
(-2.5147209e+41 -2.9078828e+40 -3.4880307e+40)
(-1.9870277e+41 -2.7573466e+40 -3.4014842e+40)
(-2.0491375e+41 -1.0609802e+40 -3.536367e+40)
(-1.7730537e+41 -3.8397635e+40 3.1653089e+40)
(-1.8813417e+41 -3.329377e+39 3.9431035e+40)
(-3.0708713e+41 -1.9519826e+40 5.1475261e+40)
(-3.102978e+41 -4.9415224e+39 5.5107365e+40)
(-3.566867e+41 -2.9291036e+40 7.7851337e+40)
(-3.5865525e+41 -2.4467053e+40 7.4121465e+40)
(-3.0461718e+41 -2.3541712e+40 4.8360395e+40)
(-3.0608673e+41 -6.6466467e+39 5.0100605e+40)
(-3.5650475e+41 -2.5694335e+40 6.8630903e+40)
(-3.5560747e+41 -2.6991929e+40 7.1182729e+40)
(-2.6490389e+41 -1.5220882e+40 5.1932687e+40)
(-2.6635047e+41 -5.6841856e+39 5.2144124e+40)
(-3.1230943e+41 -1.7124577e+40 6.6059941e+40)
(-3.1158133e+41 -1.6395043e+40 6.4967838e+40)
(-2.6541226e+41 -1.5046797e+40 5.2395967e+40)
(-2.6501741e+41 -3.5357036e+39 5.4680224e+40)
(-3.1160561e+41 -1.832182e+40 6.7396241e+40)
(-3.1323167e+41 -1.6592589e+40 6.6009551e+40)
(-2.6302142e+41 -1.5763513e+40 5.1109516e+40)
(-2.646639e+41 -4.4363889e+39 5.258817e+40)
(-3.131566e+41 -1.6623925e+40 6.429208e+40)
(-3.124884e+41 -1.7051611e+40 6.2578046e+40)
(-2.648885e+41 -1.3512324e+40 5.3065812e+40)
(-2.6468919e+41 -2.5981889e+39 5.4640592e+40)
(-3.1361899e+41 -1.5959209e+40 6.5621568e+40)
(-3.1172517e+41 -1.8445881e+40 6.6804391e+40)
(-3.1439304e+41 -1.6703122e+40 6.2056934e+40)
(-2.6231917e+41 -1.5044531e+40 4.9876525e+40)
(-2.6523618e+41 -4.8399274e+39 5.0714181e+40)
(-3.1593536e+41 -1.6664906e+40 6.3472784e+40)
(-2.6303725e+41 -1.4207346e+40 5.0704281e+40)
(-2.6403987e+41 -1.965888e+39 5.2836101e+40)
(-3.1511e+41 -1.7151011e+40 6.5245871e+40)
(-3.1637536e+41 -1.5919425e+40 6.3655041e+40)
(-2.6205253e+41 -1.3505439e+40 4.8913987e+40)
(-2.6583192e+41 -2.3755412e+39 4.9819963e+40)
(-3.1426261e+41 -1.6680423e+40 5.9984357e+40)
(-3.1557249e+41 -1.6180708e+40 6.1135535e+40)
(-3.150607e+41 -1.5935355e+40 6.3308254e+40)
(-2.6303696e+41 -1.1561664e+40 5.0372872e+40)
(-2.6615948e+41 -1.1640749e+39 5.227217e+40)
(-3.1402902e+41 -1.8783679e+40 6.4622305e+40)
(-3.0797994e+41 -1.0585729e+40 5.0697001e+40)
(-3.5575114e+41 -2.7608575e+40 7.4218434e+40)
(-3.6128424e+41 -2.5045064e+40 7.428745e+40)
(-3.0904459e+41 -2.5717257e+40 5.0915375e+40)
(-3.0819052e+41 -2.365237e+40 4.98771e+40)
(-3.0899808e+41 -8.2732965e+39 5.370872e+40)
(-3.5705859e+41 -2.8586012e+40 7.7129534e+40)
(-3.5944696e+41 -2.5130612e+40 7.3736501e+40)
(-4.1705728e+41 -3.7080653e+40 1.6984372e+40)
(-4.0546035e+41 -1.9381969e+40 -3.5766664e+40)
(-3.9924981e+41 -2.5810994e+40 -4.1329718e+40)
(-4.2279911e+41 -1.8563425e+40 1.3467689e+40)
(-4.415856e+41 -4.5472955e+40 5.2942777e+40)
(-4.2271571e+41 -1.8024974e+40 1.5417355e+40)
(-3.9734613e+41 -2.6454032e+40 -3.8448233e+40)
(-4.0281402e+41 -1.9394559e+40 -3.6356128e+40)
(-4.6116502e+41 -1.5265349e+40 4.7429564e+40)
(-4.1436102e+41 -3.4222028e+40 1.5433259e+40)
(-4.2364501e+41 -2.6993653e+40 4.7515417e+40)
(-4.1505233e+41 -4.7755051e+40 4.6350069e+40)
(-4.1993187e+41 -2.5076182e+40 -1.7743851e+40)
(-4.2191825e+41 -3.2480293e+40 -1.7352523e+40)
(-4.193441e+41 -3.2871604e+40 -2.2362306e+40)
(-4.2422122e+41 -2.42734e+40 4.5591005e+40)
(-4.2749313e+41 -2.6509632e+40 -1.3553288e+40)
(-4.1767894e+41 -4.6993149e+40 4.8791094e+40)
(-4.0820754e+41 -1.7732756e+40 -4.7046846e+39)
(-3.8214655e+41 -4.7794551e+40 5.8814626e+40)
(-3.8523216e+41 -2.8288264e+40 -4.5084621e+40)
(-3.7792065e+41 -4.8002952e+40 -5.054061e+40)
(-4.0056337e+41 -1.8411403e+40 5.3631204e+40)
(-3.7301437e+41 -2.0725776e+40 3.173753e+39)
(-3.7417067e+41 -2.254536e+40 2.4422188e+39)
(-3.8351345e+41 -1.6053226e+40 4.9365676e+40)
(-3.7896344e+41 -3.3196393e+40 4.9162875e+40)
(-3.7353329e+41 -2.0831421e+40 2.9432065e+39)
(-3.7201038e+41 -2.2419851e+40 6.8552003e+38)
(-3.8583015e+41 -1.6165326e+40 4.8078034e+40)
(-3.7917096e+41 -3.2879233e+40 4.9495727e+40)
(-3.7162709e+41 -1.7154981e+40 1.763754e+40)
(-3.5570712e+41 -2.2358891e+40 -1.9253824e+40)
(-3.5668067e+41 -1.8121412e+40 -1.600686e+40)
(-3.6834192e+41 -2.8506595e+40 2.0038318e+40)
(-3.7478325e+41 -1.6222145e+40 1.8982648e+40)
(-3.5811736e+41 -1.8932929e+40 -1.6027292e+40)
(-3.582432e+41 -2.2560149e+40 -1.676673e+40)
(-3.7007056e+41 -2.7878518e+40 1.9476169e+40)
(-3.6214847e+41 -1.7097882e+40 1.2792911e+39)
(-3.5626187e+41 -1.4374273e+40 -2.2448864e+40)
(-3.5501517e+41 -2.1228339e+40 -2.3889018e+40)
(-3.6015629e+41 -2.4707112e+40 1.9064193e+39)
(-3.626621e+41 -2.1027546e+40 -6.2053017e+38)
(-3.6479086e+41 -1.4186216e+40 -8.384222e+38)
(-3.5514114e+41 -1.9292311e+40 -2.6552807e+40)
(-3.5457908e+41 -1.427783e+40 -2.5825443e+40)
(-4.0714612e+41 -1.3229835e+40 -3.8155139e+39)
(-3.556243e+41 -1.495042e+40 -2.4801605e+40)
(-3.5506606e+41 -1.8690225e+40 -2.6847806e+40)
(-3.6530518e+41 -1.3358837e+40 -7.2976041e+38)
(-4.0955204e+41 -3.0188384e+40 5.4774808e+38)
(-3.629537e+41 -2.2273626e+40 6.6481254e+38)
(-3.5574302e+41 -1.5877176e+40 -2.286928e+40)
(-3.5416591e+41 -2.120369e+40 -2.5658822e+40)
(-3.5931649e+41 -1.6655444e+40 -9.5130206e+38)
(-3.5611887e+41 -2.4499385e+40 6.9002128e+38)
(-3.9672185e+41 -1.3398741e+40 -4.5448916e+40)
(-3.887803e+41 -1.8631892e+40 -5.2284363e+40)
(-3.6305077e+41 -1.6147492e+40 7.7309239e+38)
(-3.566797e+41 -1.416963e+40 -2.3804459e+40)
(-3.5577539e+41 -2.1178731e+40 -2.5070972e+40)
(-3.6104181e+41 -2.3741895e+40 1.3864236e+39)
(-3.5655438e+41 -1.4154301e+40 -2.6289379e+40)
(-3.5742347e+41 -1.9749996e+40 -2.6863909e+40)
(-3.6481414e+41 -2.0548432e+40 -1.4490961e+39)
(-3.6709771e+41 -1.4178487e+40 -1.6626031e+39)
(-4.0637642e+41 -1.4198627e+40 -5.285499e+39)
(-3.5827441e+41 -1.8902317e+40 -2.4924941e+40)
(-3.6832878e+41 -1.3686632e+40 5.7447341e+38)
(-3.6278546e+41 -1.5889166e+40 6.9873436e+38)
(-3.5716483e+41 -2.0376444e+40 -2.3354526e+40)
(-3.5958592e+41 -2.5946952e+40 2.601089e+39)
(-3.7942489e+41 -2.2628236e+40 -5.4687582e+40)
(-4.904419e+41 -1.7387819e+40 5.391638e+40)
(-3.6482223e+41 -1.2929155e+40 -5.6733093e+39)
(-4.1657321e+41 1.5580586e+39 1.9566722e+40)
(-4.1565947e+41 -2.3367025e+40 2.3674088e+40)
(-3.7046308e+41 -7.3519891e+39 -1.8251769e+39)
(-3.4153954e+41 -1.6895421e+40 -3.7139522e+39)
(-4.0278416e+41 -5.2804833e+39 1.9098446e+40)
(-3.854284e+41 -1.6971569e+40 4.658523e+40)
(-3.8263757e+41 -3.1330879e+40 4.6932988e+40)
(-3.7475218e+41 -2.2580434e+40 6.8524635e+37)
(-3.7616628e+41 -1.8222974e+40 2.061326e+39)
(-3.7469286e+41 -1.5931871e+40 1.6834351e+40)
(-3.7152623e+41 -2.6658285e+40 1.7358886e+40)
(-3.5923034e+41 -2.0315138e+40 -1.6135068e+40)
(-3.6019036e+41 -1.7478186e+40 -1.6053731e+40)
(-3.6048176e+41 -1.9339139e+40 -1.3419052e+40)
(-3.5981615e+41 -2.0676474e+40 -1.6646618e+40)
(-3.7371243e+41 -1.6006749e+40 1.7962798e+40)
(-3.6941549e+41 -2.9725057e+40 2.0207489e+40)
(-3.7578307e+41 -2.1306901e+40 5.002705e+39)
(-3.7403353e+41 -2.152181e+40 1.2475875e+39)
(-3.8250168e+41 -1.6015302e+40 4.6398778e+40)
(-3.7737288e+41 -3.3554071e+40 4.7966344e+40)
(-3.1258625e+41 -1.7308949e+40 3.9743233e+40)
(-3.1195227e+41 -1.3060182e+40 3.6472638e+40)
(-3.1059625e+41 -1.4159682e+40 3.4621268e+40)
(-3.1350924e+41 -1.5149664e+40 3.6546818e+40)
(-3.1006706e+41 -1.4728784e+40 3.6326406e+40)
(-3.1330703e+41 -1.636413e+40 3.8037872e+40)
(-3.1102562e+41 -1.3904068e+40 3.5223967e+40)
(-3.1160061e+41 -1.5993699e+40 3.8381839e+40)
(-3.614585e+41 -2.2513455e+40 3.8219991e+40)
(-3.6348128e+41 -2.5268419e+40 4.3549527e+40)
(-3.6537127e+41 -2.2613859e+40 4.1628005e+40)
(-3.6415559e+41 -2.634444e+40 4.2529878e+40)
(-3.5976415e+41 -2.2951611e+40 3.6692855e+40)
(-3.6401239e+41 -2.4552843e+40 4.0457017e+40)
(-3.64736e+41 -2.5631215e+40 4.5618392e+40)
(-3.6311514e+41 -2.0862936e+40 3.9863534e+40)
(-3.0993561e+41 -1.4697747e+40 3.7440902e+40)
(-3.1048782e+41 -1.7393702e+40 4.0451035e+40)
(-3.0931691e+41 -1.4792913e+40 3.8748936e+40)
(-3.1207075e+41 -1.706428e+40 4.0327027e+40)
(-3.1048733e+41 -1.7316517e+40 4.0460539e+40)
(-3.1044653e+41 -1.3885415e+40 3.754695e+40)
(-3.091206e+41 -1.518534e+40 3.6189171e+40)
(-3.119017e+41 -1.6418247e+40 3.8182082e+40)
(-5.0335805e+41 -4.6410081e+40 -3.0834904e+40)
(-4.9806327e+41 -4.7318085e+40 -3.1162427e+40)
(-5.0485972e+41 -2.8982449e+40 -2.3279115e+40)
(-4.3439201e+41 -2.8475783e+40 -4.3757087e+40)
(-3.204729e+41 -2.3035574e+40 -3.5669699e+40)
(-3.1754432e+41 -2.5142902e+40 -3.1941299e+40)
(-3.2111911e+41 -2.2943987e+40 -3.6446051e+40)
(-3.2133782e+41 -2.4002872e+40 -3.3800787e+40)
(-3.0878334e+41 -1.1791426e+40 -6.7283756e+40)
(-1.7026129e+41 -1.9857479e+40 -5.3756298e+40)
(-1.7063568e+41 -1.9598849e+40 -5.3775689e+40)
(-1.5283766e+41 -1.8315762e+40 -3.6726314e+40)
(-1.5700454e+41 -5.2550947e+39 -3.4181975e+40)
(-1.7067577e+41 -1.9732022e+40 -5.3819499e+40)
(-1.7131185e+41 -2.0365281e+40 -5.5157362e+40)
(-1.5293942e+41 -1.7522801e+40 -3.5000357e+40)
(-1.5579986e+41 -6.3599501e+39 -3.5695147e+40)
(-1.1964993e+41 -2.0296884e+40 4.0499261e+39)
(-1.295454e+41 -8.0449277e+39 1.271536e+40)
(-1.7195379e+41 -2.7801339e+39 4.6943729e+40)
(-1.6453505e+41 -2.2251633e+40 4.1078012e+40)
(-1.7050536e+41 -2.1738006e+40 4.461412e+40)
(-1.734771e+41 1.9720988e+39 4.9564404e+40)
(-1.2408708e+41 -1.9054897e+40 1.0958753e+40)
(-1.2787197e+41 -7.7980906e+39 1.0729126e+40)
(-3.0751246e+41 -1.3172461e+40 -6.8821784e+40)
(-3.0890879e+41 -1.2472432e+40 -6.7324163e+40)
(-1.7207993e+41 -2.0260185e+40 -5.4399057e+40)
(-1.7223155e+41 -1.9777226e+40 -5.4124739e+40)
(-1.5184311e+41 -1.8511099e+40 -3.6843619e+40)
(-1.5614775e+41 -5.3145347e+39 -3.4482294e+40)
(-1.2140047e+41 -1.7246319e+40 7.9134389e+39)
(-1.6887528e+41 -1.919535e+40 4.3066599e+40)
(-1.1881354e+41 -2.041389e+40 3.3796868e+39)
(-1.6542939e+41 -2.1484556e+40 4.0453712e+40)
(-1.28684e+41 -7.3140947e+39 1.1017267e+40)
(-1.7246679e+41 -1.4823059e+37 4.645207e+40)
(-4.1376755e+41 -3.4853756e+40 -4.9945014e+40)
(-4.0507445e+41 -4.0953076e+40 4.5290712e+39)
(-4.0526726e+41 -3.4202887e+40 -9.4487799e+37)
(-4.1127593e+41 -3.566771e+40 -5.0013539e+40)
(-4.2893075e+41 -2.8956748e+40 -4.4107233e+40)
(-3.1469702e+41 -2.5062188e+40 -3.0206611e+40)
(-3.1557247e+41 -2.3158103e+40 -3.4282275e+40)
(-4.2182108e+41 -2.375304e+40 -3.5345739e+40)
(-4.2076053e+41 -4.1427493e+40 -3.9598577e+40)
(-4.2981347e+41 -3.0372161e+40 -4.3982918e+40)
(-3.1328927e+41 -2.5281136e+40 -3.0297285e+40)
(-3.1646035e+41 -2.3657758e+40 -3.4625698e+40)
(-4.0793361e+41 -3.495064e+40 -3.7464078e+38)
(-3.9673002e+41 -3.9867795e+40 5.1546911e+39)
(-4.0736516e+41 -3.5470023e+40 -5.0059528e+40)
(-4.0840756e+41 -3.7697645e+40 -5.1221174e+40)
(-2.4665408e+41 -3.0638164e+40 -3.3251398e+40)
(-2.9059837e+41 -2.8499034e+40 -5.5682301e+40)
(-2.8837939e+41 -2.8145142e+40 -5.8825178e+40)
(-2.4934445e+41 -1.5876519e+40 -3.3872899e+40)
(-2.4842402e+41 -2.9769948e+40 -3.3268279e+40)
(-2.9116653e+41 -2.8515888e+40 -5.6790448e+40)
(-2.8823589e+41 -2.8980874e+40 -6.0333352e+40)
(-2.5029976e+41 -1.5534836e+40 -3.5201411e+40)
(-1.9606444e+41 -3.0837234e+40 -3.4899878e+40)
(-2.0262057e+41 -1.3497995e+40 -3.3963279e+40)
(-1.766704e+41 -4.2715064e+40 2.9655623e+40)
(-1.8570901e+41 -1.1307145e+40 3.7452929e+40)
(-1.9967502e+41 -2.9536816e+40 -3.4104491e+40)
(-2.0285501e+41 -1.2221984e+40 -3.4794834e+40)
(-1.793321e+41 -4.173128e+40 3.0757217e+40)
(-1.868107e+41 -8.0292946e+39 3.7876433e+40)
(-2.5055657e+41 -3.0029051e+40 -3.3833934e+40)
(-2.9546893e+41 -2.8661816e+40 -5.7004645e+40)
(-2.9285027e+41 -2.7686685e+40 -6.006814e+40)
(-2.5295235e+41 -1.4205019e+40 -3.4288287e+40)
(-2.4968922e+41 -2.8135464e+40 -3.309593e+40)
(-2.9404963e+41 -2.7925593e+40 -5.7148826e+40)
(-2.9189425e+41 -2.8028682e+40 -6.0571997e+40)
(-2.525412e+41 -1.3425758e+40 -3.5119071e+40)
(-1.9850917e+41 -2.9286315e+40 -3.5458463e+40)
(-2.0558241e+41 -1.0262514e+40 -3.4213811e+40)
(-1.7749368e+41 -4.1174378e+40 2.9926279e+40)
(-1.8815759e+41 -6.1590564e+39 3.9034836e+40)
(-2.0517642e+41 -8.4674327e+39 -3.4197747e+40)
(-1.8131922e+41 -3.7052194e+40 3.3692546e+40)
(-2.0033194e+41 -2.6431368e+40 -3.3058599e+40)
(-1.8954926e+41 -2.209044e+39 4.0239383e+40)
(-3.0809331e+41 -1.1451567e+40 -6.7387141e+40)
(-3.0726564e+41 -1.2633899e+40 -6.8456776e+40)
(-1.6629109e+41 -1.7295939e+40 -5.3291623e+40)
(-1.6544729e+41 -1.7682956e+40 -5.3254673e+40)
(-1.5286069e+41 -1.6021623e+40 -3.5271965e+40)
(-1.5612413e+41 -3.5436955e+39 -3.2727401e+40)
(-1.6616884e+41 -1.797736e+40 -5.2709982e+40)
(-1.6601355e+41 -1.8985251e+40 -5.423174e+40)
(-1.5315795e+41 -1.6254983e+40 -3.3239462e+40)
(-1.5499589e+41 -5.1019451e+39 -3.3938993e+40)
(-1.6606827e+41 -2.1884126e+40 4.4033013e+40)
(-1.719573e+41 -3.5464851e+39 4.8868435e+40)
(-1.2068574e+41 -1.7392834e+40 6.264178e+39)
(-1.3007528e+41 -6.4899746e+39 1.5781532e+40)
(-1.7069444e+41 -2.2403588e+40 4.6183479e+40)
(-1.7311164e+41 1.372338e+38 5.1007444e+40)
(-1.2516548e+41 -1.7931182e+40 1.3435315e+40)
(-1.2827228e+41 -7.1990309e+39 1.3969069e+40)
(-3.0691259e+41 -1.2875012e+40 -6.8778477e+40)
(-3.0868946e+41 -1.1921826e+40 -6.660146e+40)
(-1.668293e+41 -1.8841438e+40 -5.2354618e+40)
(-1.6706984e+41 -1.8374743e+40 -5.2723582e+40)
(-1.5191481e+41 -1.7625133e+40 -3.481328e+40)
(-1.5636254e+41 -3.8111984e+39 -3.2343084e+40)
(-1.6853198e+41 -1.8594644e+40 -5.3583281e+40)
(-1.6817514e+41 -1.9973209e+40 -5.4661186e+40)
(-1.5327599e+41 -1.6435628e+40 -3.3785652e+40)
(-1.5505898e+41 -5.8451039e+39 -3.4691233e+40)
(-1.2009049e+41 -2.0378528e+40 6.8599464e+39)
(-1.6595683e+41 -2.3444571e+40 4.1855357e+40)
(-1.3054425e+41 -6.4886316e+39 1.5757325e+40)
(-1.7317003e+41 -1.8433649e+39 4.87656e+40)
(-1.2529939e+41 -1.759997e+40 1.3185109e+40)
(-1.2840882e+41 -6.8611308e+39 1.2951833e+40)
(-1.710412e+41 -2.0497866e+40 4.649878e+40)
(-1.7342019e+41 2.1332576e+39 5.0259394e+40)
(-2.6606315e+41 -1.481839e+40 5.1767372e+40)
(-2.6659734e+41 -4.1073147e+39 5.2954125e+40)
(-3.1242967e+41 -1.6132702e+40 6.5059163e+40)
(-3.1159592e+41 -1.6185462e+40 6.2981207e+40)
(-2.6639852e+41 -1.277138e+40 5.4037647e+40)
(-3.1224933e+41 -1.5524347e+40 6.7146324e+40)
(-2.6748724e+41 -2.4365653e+39 5.5702067e+40)
(-3.1064723e+41 -1.8313683e+40 6.8375193e+40)
(-2.6248155e+41 -1.690043e+40 4.9189314e+40)
(-2.6435963e+41 -6.6648655e+39 5.0373939e+40)
(-3.0795158e+41 -1.768325e+40 6.0576859e+40)
(-3.089046e+41 -1.772312e+40 6.2300931e+40)
(-3.1031475e+41 -1.6671398e+40 6.3536965e+40)
(-2.6390704e+41 -1.536639e+40 5.1296307e+40)
(-2.6585421e+41 -3.6641921e+39 5.4103631e+40)
(-3.0915556e+41 -1.8230538e+40 6.5476044e+40)
(-2.1198651e+41 -6.1996403e+39 5.2899423e+40)
(-2.1018448e+41 -1.5193224e+40 5.4360811e+40)
(-2.7165933e+41 -1.086545e+40 5.6107659e+40)
(-2.7132643e+41 -1.2047879e+40 5.5267685e+40)
(-2.1160047e+41 -4.9821119e+39 5.4623032e+40)
(-2.0837491e+41 -1.6810665e+40 5.1780844e+40)
(-2.7274036e+41 -1.1900135e+40 5.5868369e+40)
(-2.7235075e+41 -1.270519e+40 5.5549535e+40)
(-2.1194203e+41 -5.6120167e+39 5.3100563e+40)
(-2.0787174e+41 -1.7346177e+40 5.226792e+40)
(-2.7170769e+41 -1.1884826e+40 5.4525888e+40)
(-2.7307126e+41 -1.0941173e+40 5.5780099e+40)
(-2.1040074e+41 -3.040633e+39 5.5859391e+40)
(-2.0781734e+41 -1.4994177e+40 5.3263715e+40)
(-2.710985e+41 -1.1123186e+40 5.5329183e+40)
(-2.7009752e+41 -1.2106889e+40 5.6225971e+40)
(-2.1078785e+41 -5.6578129e+39 5.2515765e+40)
(-2.0700409e+41 -1.5621644e+40 5.2732107e+40)
(-2.6998612e+41 -1.2107008e+40 5.2385181e+40)
(-2.7176373e+41 -1.1463733e+40 5.5203767e+40)
(-2.0986407e+41 -3.3495176e+39 5.4952579e+40)
(-2.0711479e+41 -1.5824867e+40 5.1875034e+40)
(-2.7184436e+41 -1.1618521e+40 5.3480237e+40)
(-2.7131446e+41 -1.1536461e+40 5.4809628e+40)
(-2.7190091e+41 -1.0447199e+40 5.4652288e+40)
(-2.0762982e+41 -1.5115804e+40 5.3105778e+40)
(-2.103019e+41 -3.892581e+39 5.3230402e+40)
(-2.7315394e+41 -9.9569512e+39 5.5928784e+40)
(-2.0990088e+41 -1.9994142e+39 5.5814918e+40)
(-2.0740444e+41 -1.3059847e+40 5.3679923e+40)
(-2.7131885e+41 -1.0233746e+40 5.5316869e+40)
(-2.7010388e+41 -1.1537032e+40 5.5851675e+40)
(-2.0905761e+41 -5.3818849e+39 5.174756e+40)
(-2.0777268e+41 -1.4675745e+40 5.28761e+40)
(-2.714828e+41 -1.0800386e+40 5.42011e+40)
(-2.7121232e+41 -1.1706284e+40 5.3535862e+40)
(-2.1207932e+41 -3.683259e+39 5.3700304e+40)
(-2.0733157e+41 -1.5310947e+40 5.0880175e+40)
(-2.7235247e+41 -1.1933357e+40 5.2656492e+40)
(-2.7348962e+41 -1.1476772e+40 5.5476518e+40)
(-2.0716009e+41 -1.5951997e+40 5.1102528e+40)
(-2.7151126e+41 -1.1645974e+40 5.1202677e+40)
(-2.0938949e+41 -4.321986e+39 5.1604355e+40)
(-2.7309775e+41 -1.0142822e+40 5.4252122e+40)
(-2.7132974e+41 -1.0258366e+40 5.3672103e+40)
(-2.073648e+41 -1.3447381e+40 5.2249252e+40)
(-2.092393e+41 -1.2961264e+39 5.4378285e+40)
(-2.7022262e+41 -1.0714051e+40 5.4608772e+40)
(-2.0905744e+41 -4.2147665e+39 5.0822942e+40)
(-2.0725084e+41 -1.356355e+40 5.1636347e+40)
(-2.7160968e+41 -1.0845591e+40 5.0936301e+40)
(-2.7230322e+41 -1.0875941e+40 5.2044869e+40)
(-2.7338593e+41 -1.0985209e+40 5.1632524e+40)
(-2.0708942e+41 -1.3246937e+40 5.0634397e+40)
(-2.1202467e+41 -1.5164569e+39 5.3227647e+40)
(-2.7460975e+41 -1.0039353e+40 5.4350343e+40)
(-2.1015531e+41 -2.7061375e+39 5.1892069e+40)
(-2.0774456e+41 -1.3549712e+40 5.1450054e+40)
(-2.7344868e+41 -1.0537987e+40 5.1493059e+40)
(-2.7389507e+41 -1.0026564e+40 5.2673529e+40)
(-2.1174709e+41 -1.2417487e+39 5.4178137e+40)
(-2.0835641e+41 -1.1805066e+40 5.2451522e+40)
(-2.7326129e+41 -1.0532112e+40 5.3851792e+40)
(-2.7268336e+41 -1.1485458e+40 5.4595738e+40)
(-2.6581471e+41 -1.8213449e+40 5.0327599e+40)
(-2.6675191e+41 -6.7236691e+39 5.270612e+40)
(-3.1026549e+41 -1.8003276e+40 6.3619966e+40)
(-3.0857046e+41 -1.9399139e+40 6.5202479e+40)
(-2.6550415e+41 -1.7846301e+40 4.9836011e+40)
(-2.6493569e+41 -9.1996633e+39 5.0483843e+40)
(-3.1065559e+41 -1.6914016e+40 6.3869036e+40)
(-3.1121724e+41 -1.7910531e+40 6.5397352e+40)
(-3.1140324e+41 -1.7086823e+40 6.2749427e+40)
(-2.64914e+41 -1.8121368e+40 4.9698588e+40)
(-2.6519359e+41 -7.3677338e+39 5.0980792e+40)
(-3.1061738e+41 -1.727517e+40 6.3288101e+40)
(-2.6624079e+41 -1.5691342e+40 5.189853e+40)
(-2.6515895e+41 -5.2353283e+39 5.3687209e+40)
(-3.1090765e+41 -1.631473e+40 6.510004e+40)
(-3.0861874e+41 -1.876764e+40 6.6432168e+40)
(-3.5592926e+41 -1.5877706e+40 -2.0925147e+40)
(-3.5452035e+41 -1.9437831e+40 -2.3695119e+40)
(-3.5794672e+41 -2.4536925e+40 3.9724705e+39)
(-3.6103291e+41 -1.3687588e+40 2.242149e+39)
(-3.6219256e+41 -2.2422924e+40 1.2940529e+39)
(-3.6475064e+41 -1.2529698e+40 8.3069819e+35)
(-3.5438197e+41 -1.7429432e+40 -2.6318733e+40)
(-3.5478121e+41 -1.4457229e+40 -2.4571647e+40)
(-4.0499467e+41 -2.8275159e+40 1.2767491e+39)
(-3.6285862e+41 -1.2994003e+40 -1.6270755e+39)
(-3.5277152e+41 -1.3005638e+40 -2.7134663e+40)
(-3.5097699e+41 -1.902783e+40 -2.8218626e+40)
(-3.6086703e+41 -1.9999174e+40 -1.6349254e+39)
(-4.0229293e+41 -1.3046539e+40 -4.8122557e+39)
(-3.5176647e+41 -1.4097131e+40 -2.5128532e+40)
(-3.5198565e+41 -1.9542111e+40 -2.4942642e+40)
(-3.5603983e+41 -1.6072605e+40 -1.4786356e+39)
(-3.5324583e+41 -2.4109455e+40 -1.4218709e+39)
(-3.7234127e+41 -2.1285008e+40 -5.5505127e+40)
(-3.9263101e+41 -1.0485773e+40 -4.6393875e+40)
(-3.525417e+41 -1.4080313e+40 -2.2073677e+40)
(-3.565661e+41 -2.4483779e+40 2.4803715e+39)
(-3.5996571e+41 -2.0634934e+40 3.2763946e+38)
(-3.5064861e+41 -1.3961524e+40 -2.5666895e+40)
(-3.5205134e+41 -1.8318718e+40 -2.6729462e+40)
(-3.6119624e+41 -1.2864436e+40 -8.8799064e+36)
(-4.0303913e+41 -3.0596556e+40 1.0610022e+39)
(-3.4847814e+41 -1.5010308e+40 -2.8438281e+40)
(-3.5542287e+41 -2.2170233e+40 1.376843e+38)
(-3.8731443e+41 -1.3608578e+40 -4.560345e+40)
(-3.4934856e+41 -1.5194007e+40 -2.360335e+40)
(-3.5063126e+41 -2.4222133e+40 5.0011381e+38)
(-3.4911189e+41 -2.0839357e+40 -2.5819331e+40)
(-3.5402566e+41 -1.6150021e+40 -7.1132355e+38)
(-3.7583145e+41 -1.7157329e+40 4.9190462e+40)
(-3.6833286e+41 -2.0549025e+40 3.6736978e+39)
(-3.712264e+41 -3.4081077e+40 4.7921541e+40)
(-3.681899e+41 -2.0353977e+40 3.8597615e+39)
(-3.6565462e+41 -2.3569106e+40 -1.5553419e+38)
(-3.7129059e+41 -3.2465319e+40 4.9747987e+40)
(-3.745367e+41 -1.6265601e+40 4.7772626e+40)
(-3.6472905e+41 -1.7359708e+40 1.7796092e+40)
(-3.5046176e+41 -2.2326906e+40 -1.9003687e+40)
(-3.6135451e+41 -2.9301803e+40 2.0008917e+40)
(-3.5145119e+41 -1.8410925e+40 -1.5960006e+40)
(-3.5436846e+41 -1.8734488e+40 -1.5298978e+40)
(-3.6335746e+41 -2.8618071e+40 1.9637989e+40)
(-3.5115578e+41 -2.1808267e+40 -1.9247968e+40)
(-3.5372955e+41 -1.7124536e+40 -1.7445556e+40)
(-3.6373786e+41 -2.6752714e+40 1.7105264e+40)
(-3.6611782e+41 -1.6094692e+40 1.6203886e+40)
(-3.6907116e+41 -1.8814948e+40 1.5809923e+39)
(-3.6613391e+41 -2.2955127e+40 -7.0405526e+38)
(-3.7417088e+41 -1.7626758e+40 4.5049833e+40)
(-3.720238e+41 -3.2853387e+40 4.5742601e+40)
(-3.6860241e+41 -1.5223273e+40 1.8899294e+40)
(-3.5543077e+41 -2.0002669e+40 -1.704933e+40)
(-3.5637158e+41 -1.9081244e+40 -1.3810983e+40)
(-3.6486472e+41 -2.960258e+40 2.142311e+40)
(-3.7158586e+41 -2.1050191e+40 5.3809713e+39)
(-3.6988252e+41 -2.1353556e+40 1.766622e+39)