/*--------------------------------*- C++ -*----------------------------------*\
  =========                 |
  \\      /  F ield         | OpenFOAM: The Open Source CFD Toolbox
   \\    /   O peration     | Website:  https://openfoam.org
    \\  /    A nd           | Version:  7
     \\/     M anipulation  |
\*---------------------------------------------------------------------------*/
FoamFile
{
    version     2.0;
    format      ascii;
    class       volVectorField;
    location    "7000";
    object      UMean;
}
// * * * * * * * * * * * * * * * * * * * * * * * * * * * * * * * * * * * * * //

dimensions      [0 1 -1 0 0 0 0];

internalField   nonuniform List<vector> 
34377
(
(-5.0751753e+39 -2.348881e+38 4.7378684e+38)
(-4.4701755e+39 -1.1472721e+38 -8.4205677e+37)
(-4.5498504e+39 -1.9171831e+38 5.5825451e+38)
(-4.4634732e+39 -2.8123049e+37 5.3012175e+38)
(-5.1011763e+39 -8.4338558e+37 5.1766944e+38)
(-5.0666163e+39 -3.8717608e+38 4.9595852e+38)
(-5.0207164e+39 -1.2382389e+38 4.8068677e+38)
(-6.2859576e+39 -9.803828e+37 8.5966782e+37)
(-4.8778902e+39 -1.1239002e+38 3.1553673e+38)
(-4.9017678e+39 -5.2199807e+37 3.2699492e+38)
(-4.3150268e+39 7.0977188e+37 -6.1348614e+38)
(-3.5404876e+39 9.5709608e+37 -1.3110108e+38)
(-4.3852459e+39 -8.9296198e+37 -6.0157366e+38)
(-4.6649866e+39 -3.624463e+38 -4.3919866e+37)
(-3.6017216e+39 -2.1109598e+38 -8.3441406e+37)
(-4.4636124e+39 -1.1234858e+38 5.7519829e+38)
(-4.7453559e+39 -3.5389006e+37 5.3487482e+38)
(-3.7603255e+39 -9.8542477e+37 4.3867929e+38)
(-3.7535532e+39 -5.2612028e+37 4.2844404e+38)
(-4.7491275e+39 -1.1573373e+38 5.2731078e+38)
(-3.7602545e+39 -6.6441508e+37 4.1487111e+38)
(-3.6960208e+39 -2.7796247e+37 4.0723478e+38)
(-4.6551962e+39 -1.2043743e+38 4.8691418e+38)
(-4.7167976e+39 -1.6975358e+37 4.9956121e+38)
(-4.9403149e+39 -1.8223366e+38 4.8842424e+38)
(-4.5701872e+39 -2.7990568e+38 5.9780772e+38)
(-4.9746027e+39 -1.2749687e+38 5.1006373e+38)
(-6.2637415e+39 -1.314102e+38 8.9936537e+37)
(-5.1844584e+39 -3.2404644e+37 1.7599102e+38)
(-4.9361488e+39 -4.0395985e+37 -1.2828482e+38)
(-4.9360964e+39 -7.9926308e+37 -1.1907015e+38)
(-6.1509624e+39 -6.788572e+37 -1.1935504e+38)
(-4.2170645e+39 -2.8230787e+37 -5.6724046e+37)
(-4.1565963e+39 -6.7606244e+37 -5.8150767e+37)
(-4.1208835e+39 -8.2525336e+37 -3.8453678e+37)
(-4.1854678e+39 -4.6801721e+37 -4.6515203e+37)
(-5.1515541e+39 -1.1532825e+38 1.702073e+38)
(-4.4017029e+39 -9.7005551e+37 3.0924401e+38)
(-4.4319158e+39 -2.9345089e+36 3.0454458e+38)
(-4.8565608e+39 -7.759777e+37 3.366286e+38)
(-4.8552757e+39 -1.4899463e+38 3.3268168e+38)
(-4.4588198e+39 -2.26986e+37 3.3240063e+38)
(-4.4582511e+39 -1.0131804e+38 3.1946005e+38)
(-4.1025771e+39 4.8660299e+36 -5.7963022e+38)
(-4.2292375e+39 5.0544521e+37 -5.6337302e+38)
(-4.1998796e+39 -2.3389526e+37 -5.5737573e+38)
(-4.0780196e+39 1.3778069e+37 -5.8211375e+38)
(-3.3437979e+39 3.1504449e+37 -7.1632936e+38)
(-2.6251247e+39 -1.0564313e+38 -4.2661261e+37)
(-3.3809883e+39 -1.5557751e+37 -7.1813462e+38)
(-2.5580977e+39 7.0299546e+37 -7.264242e+37)
(-4.3782938e+39 1.0283325e+37 -5.6525315e+38)
(-4.0964297e+39 8.1673767e+36 -5.6099664e+38)
(-4.2650566e+39 5.8095766e+37 -5.2324696e+38)
(-4.2503486e+39 -6.4960796e+36 -5.3134383e+38)
(-4.0807497e+39 2.8068437e+37 -5.6512704e+38)
(-4.4479204e+39 -1.8634932e+38 -5.5976738e+38)
(-3.5886254e+39 -3.5424325e+38 -2.7381419e+37)
(-3.5355289e+39 2.0329416e+36 -7.0775235e+37)
(-3.3591579e+39 -1.6233414e+37 -6.9671243e+38)
(-2.5991472e+39 -1.289101e+38 -2.9006918e+37)
(-3.3523994e+39 4.1376917e+37 -6.9745799e+38)
(-2.5964463e+39 4.9284995e+37 -3.5027351e+37)
(-3.737092e+39 -6.9222836e+37 4.3953043e+38)
(-3.7533084e+39 -9.9656203e+37 4.1567362e+38)
(-4.6646908e+39 -4.3075652e+37 5.0143753e+38)
(-4.644094e+39 -1.5645076e+38 5.1341123e+38)
(-3.1463676e+39 -6.6156554e+37 3.6585624e+38)
(-3.1274567e+39 -4.762103e+37 3.4362649e+38)
(-4.0912309e+39 -1.9876646e+37 4.7387764e+38)
(-4.093737e+39 -8.3855488e+37 4.6236101e+38)
(-4.0974393e+39 -3.354104e+37 4.4753592e+38)
(-3.122524e+39 -4.6609562e+37 3.3046442e+38)
(-3.1057958e+39 -3.3032399e+37 3.3837276e+38)
(-4.0823973e+39 -9.6474502e+37 4.4770991e+38)
(-3.1341426e+39 -4.4011936e+37 3.5185424e+38)
(-4.1063851e+39 -8.3398171e+36 4.5187549e+38)
(-3.0982532e+39 -1.7724286e+37 3.24719e+38)
(-4.0962804e+39 -5.7527674e+37 4.3732943e+38)
(-3.1041159e+39 -1.7139461e+37 3.1749259e+38)
(-4.0622805e+39 -1.0073675e+37 4.2930748e+38)
(-3.0910608e+39 -1.2572603e+37 3.3709622e+38)
(-4.0421812e+39 -8.5176812e+37 4.3767953e+38)
(-4.6957891e+39 -5.8744158e+37 5.3953652e+38)
(-3.7995667e+39 -1.4935335e+38 4.6220883e+38)
(-3.764285e+39 -1.0123947e+38 4.3992771e+38)
(-4.6809849e+39 -1.4237609e+38 5.2369177e+38)
(-4.8826057e+39 -9.2665354e+37 -1.2842591e+38)
(-4.9272323e+39 -5.6161442e+37 -1.2469366e+38)
(-5.1184692e+39 -5.3891532e+37 1.7127472e+38)
(-5.1071618e+39 -1.3853852e+38 1.6457442e+38)
(-6.1247387e+39 -8.5822013e+37 -1.1070215e+38)
(-4.1483096e+39 -7.2503878e+37 -5.5670242e+37)
(-4.20886e+39 -4.5588407e+37 -5.9376387e+37)
(-4.1745149e+39 -7.2518376e+37 -5.634683e+37)
(-4.1291437e+39 -8.576614e+37 -4.463337e+37)
(-4.7122122e+39 -2.2021583e+37 2.7402872e+38)
(-4.6939472e+39 -9.7104874e+37 2.6089006e+38)
(-4.5076126e+39 -7.635354e+37 -4.0481134e+36)
(-4.5133792e+39 -4.0171529e+37 -1.0099447e+36)
(-4.5822822e+39 -2.6892479e+37 -8.3499932e+37)
(-4.4416027e+39 -2.7764227e+37 -1.9924431e+38)
(-4.4686187e+39 -6.8326993e+37 -1.937481e+38)
(-4.5735305e+39 -7.6603556e+37 -8.8445615e+37)
(-5.0264701e+39 -1.1746982e+37 -1.0604228e+38)
(-4.5784581e+39 -3.329326e+37 -9.4905935e+37)
(-4.4424069e+39 -4.0885237e+37 -2.1680376e+38)
(-4.4516207e+39 -7.3350836e+37 -1.9586901e+38)
(-4.566578e+39 -8.8532621e+37 -7.9169438e+37)
(-5.0185058e+39 -8.928904e+37 -9.9768796e+37)
(-4.614754e+39 -2.2608105e+37 -2.8368224e+38)
(-4.5796083e+39 -4.2904699e+37 -2.7801266e+38)
(-4.1540487e+39 -6.7172908e+37 -3.23329e+37)
(-4.1549486e+39 -3.57021e+37 -1.5258417e+38)
(-4.1289253e+39 -5.0821877e+37 -1.4487091e+38)
(-4.1944157e+39 -7.9397469e+36 -2.8689704e+37)
(-4.676385e+39 -1.5008305e+37 2.4700963e+38)
(-4.5013205e+39 -2.7871644e+37 -9.2459287e+36)
(-4.4997742e+39 -8.342533e+37 6.083801e+36)
(-4.6278271e+39 -1.0003139e+38 2.4642382e+38)
(-3.809804e+39 -7.0111262e+37 2.9039508e+38)
(-3.8202761e+39 5.2579351e+36 2.7852996e+38)
(-3.8475917e+39 -4.1247153e+36 2.8854772e+38)
(-3.8447683e+39 -5.7836677e+37 2.7544974e+38)
(-4.4192584e+39 -1.2107713e+38 3.3418952e+38)
(-4.4244752e+39 -3.8768634e+37 3.4472158e+38)
(-4.4029936e+39 -2.556029e+37 3.1002679e+38)
(-4.404905e+39 -1.2132573e+38 3.3305186e+38)
(-3.8509296e+39 -8.3743672e+37 3.0068062e+38)
(-3.8486698e+39 -1.5839488e+37 3.1386463e+38)
(-3.8437429e+39 -7.8719402e+37 2.890016e+38)
(-3.8586965e+39 -1.7395466e+37 2.8692194e+38)
(-4.9957188e+39 1.3789522e+37 -5.2212285e+38)
(-4.935414e+39 1.5513053e+37 -5.9271696e+38)
(-4.3422587e+39 1.8016194e+37 -6.4020992e+38)
(-4.1510015e+39 5.6392067e+37 -4.5370218e+38)
(-4.1299784e+39 -2.8190085e+37 -4.5260326e+38)
(-4.3225997e+39 -1.3284898e+37 -6.3515314e+38)
(-3.5251597e+39 3.8480297e+37 -6.5500786e+38)
(-2.9887829e+39 1.6972572e+37 -7.3421037e+38)
(-2.9648381e+39 5.9582851e+36 -7.3813514e+38)
(-3.4966237e+39 -1.1782607e+37 -6.485589e+38)
(-2.1015583e+39 1.1855816e+37 -6.7103099e+38)
(-2.0953849e+39 3.0135381e+37 -6.6471503e+38)
(-1.8326728e+39 -5.5898004e+37 1.0791284e+38)
(-1.8267267e+39 5.6458541e+37 1.1183649e+38)
(-3.5097998e+39 2.2251919e+36 -6.4861554e+38)
(-3.511181e+39 5.6310749e+37 -6.4963918e+38)
(-2.9807232e+39 1.1952748e+37 -7.3473991e+38)
(-2.9880885e+39 2.4555697e+37 -7.3990905e+38)
(-2.097337e+39 1.137357e+37 -6.7088644e+38)
(-1.7879225e+39 7.2211747e+37 9.4783629e+37)
(-1.8230089e+39 -3.3511181e+37 1.0524167e+38)
(-4.1188876e+39 -1.7069254e+37 -5.2454189e+38)
(-4.3087434e+39 2.2112723e+37 -4.9038969e+38)
(-4.2716844e+39 -3.7200045e+37 -4.8986995e+38)
(-4.0728523e+39 9.3256959e+36 -5.3763936e+38)
(-4.3308137e+39 2.8539599e+37 -6.2151436e+38)
(-4.1723646e+39 6.7569645e+37 -4.2523683e+38)
(-4.1912168e+39 -1.176195e+37 -4.3223131e+38)
(-4.323847e+39 1.8736758e+36 -6.2379565e+38)
(-4.2857613e+39 -4.9727578e+37 -4.7404765e+38)
(-4.2942501e+39 1.1269698e+37 -4.6616361e+38)
(-4.1066327e+39 -4.2300861e+37 -5.127634e+38)
(-4.0947026e+39 -1.3222781e+37 -5.2282923e+38)
(-3.3573013e+39 -7.7229742e+37 -6.5707379e+38)
(-3.3453727e+39 -5.555002e+36 -6.6255951e+38)
(-2.5699542e+39 -2.2747481e+38 -1.0784947e+37)
(-2.5777075e+39 -3.9156665e+37 -1.323848e+37)
(-3.3802185e+39 -4.0595e+37 -6.7590561e+38)
(-3.3206544e+39 2.7597635e+37 -6.7611606e+38)
(-2.6141025e+39 -1.6101308e+38 -2.0285539e+37)
(-2.5566194e+39 3.3765934e+37 -3.5479389e+37)
(-3.5011724e+39 9.8179051e+36 -6.3465032e+38)
(-3.5034623e+39 5.8341382e+37 -6.3395048e+38)
(-2.9742418e+39 2.6126054e+37 -7.2920137e+38)
(-2.9722266e+39 1.7444531e+37 -7.2198116e+38)
(-2.0823721e+39 9.1384268e+36 -6.6267492e+38)
(-2.0925354e+39 2.5727351e+37 -6.5335434e+38)
(-1.830608e+39 -8.0152366e+37 1.2786433e+38)
(-1.8444088e+39 2.7863525e+37 1.3725717e+38)
(-3.4887257e+39 3.3514428e+36 -6.3689681e+38)
(-3.5012824e+39 5.3304833e+37 -6.3429425e+38)
(-2.9679685e+39 1.4456902e+37 -7.3156309e+38)
(-2.9780174e+39 2.5176839e+37 -7.2204836e+38)
(-2.098425e+39 8.0709906e+36 -6.5812212e+38)
(-2.0763511e+39 2.785027e+37 -6.6350442e+38)
(-1.8432427e+39 -6.3984362e+37 1.216608e+38)
(-1.8075466e+39 5.0889611e+37 1.03952e+38)
(-3.1480511e+39 -4.2715122e+37 3.4078943e+38)
(-3.1308728e+39 -4.3463601e+37 3.5448814e+38)
(-4.0582732e+39 -1.0816792e+38 4.6048323e+38)
(-4.0807708e+39 -3.2190676e+37 4.5418045e+38)
(-3.1267695e+39 -6.903719e+37 3.3684476e+38)
(-3.1108343e+39 -4.7577719e+37 3.217943e+38)
(-4.0614749e+39 -2.4582789e+37 4.3481613e+38)
(-4.0597883e+39 -8.383077e+37 4.259793e+38)
(-2.7310996e+39 -6.1855245e+37 3.5805211e+38)
(-2.730188e+39 -4.3955671e+37 3.4839376e+38)
(-3.4965814e+39 -6.2307822e+37 4.4426671e+38)
(-3.4877359e+39 -2.1203184e+37 4.4798516e+38)
(-2.721378e+39 -4.8344198e+37 3.3736689e+38)
(-2.6964298e+39 -2.300574e+37 3.3749989e+38)
(-3.4776446e+39 -7.0994245e+37 4.2749315e+38)
(-3.4927714e+39 -3.7122855e+37 4.2835562e+38)
(-2.7093529e+39 -4.2750767e+37 3.3965906e+38)
(-2.6857785e+39 -1.8071262e+37 3.2065569e+38)
(-3.4813153e+39 -5.0280201e+37 4.1218807e+38)
(-3.4817407e+39 -1.6532552e+37 4.2218083e+38)
(-2.6987892e+39 -2.4914973e+37 3.2844718e+38)
(-2.6763982e+39 -1.7322267e+37 3.3148499e+38)
(-3.4821466e+39 -2.6201957e+37 4.2071573e+38)
(-3.4648575e+39 -6.8476995e+37 4.2145023e+38)
(-3.4807378e+39 -8.8382353e+36 4.3003354e+38)
(-2.703003e+39 -3.3754957e+37 3.4577233e+38)
(-2.690335e+39 -1.5039649e+37 3.2839859e+38)
(-3.4853327e+39 -4.2110087e+37 4.2114518e+38)
(-2.6760402e+39 -2.1358453e+37 3.184827e+38)
(-2.6511362e+39 6.4662147e+36 3.1547978e+38)
(-3.45956e+39 -4.7151882e+37 4.0724528e+38)
(-3.4779582e+39 -1.4568782e+37 4.0954668e+38)
(-2.6806952e+39 -1.8495766e+37 3.2169171e+38)
(-2.6719536e+39 2.2433901e+36 3.0916735e+38)
(-3.4694115e+39 3.0761837e+36 4.0884834e+38)
(-3.4710995e+39 -3.1325372e+37 3.9989712e+38)
(-3.4666239e+39 -1.1094035e+37 4.172438e+38)
(-2.6754529e+39 -5.0973836e+36 3.2056136e+38)
(-2.6696005e+39 1.8911432e+36 3.311464e+38)
(-3.4533484e+39 -5.512158e+37 4.2225614e+38)
(-3.1420066e+39 -8.5049801e+37 3.4625974e+38)
(-4.0879311e+39 -1.0718237e+38 4.6047198e+38)
(-4.1050832e+39 -4.3204553e+37 4.8788702e+38)
(-3.162201e+39 -9.7507309e+37 3.7694431e+38)
(-3.1588096e+39 -8.0385147e+37 3.4303378e+38)
(-3.1323653e+39 -6.2724434e+37 3.5255153e+38)
(-4.0793891e+39 -1.1477681e+38 4.5657083e+38)
(-4.1002248e+39 -5.2198902e+37 4.5349454e+38)
(-4.5591655e+39 -8.6844982e+37 -8.1709301e+37)
(-4.4449872e+39 -6.2660526e+37 -1.9692784e+38)
(-4.4272166e+39 -5.2181206e+37 -2.28222e+38)
(-4.5416633e+39 -4.9036049e+37 -1.0940656e+38)
(-4.9413581e+39 -9.5615234e+37 -1.2497478e+38)
(-4.5661057e+39 -3.9992535e+37 -7.3225574e+37)
(-4.4169809e+39 -4.2146608e+37 -1.9954773e+38)
(-4.4363568e+39 -6.9575986e+37 -1.9366458e+38)
(-4.9945774e+39 -2.187012e+37 -1.0291083e+38)
(-4.5428105e+39 -8.4624335e+37 -8.4761587e+37)
(-4.6548187e+39 -3.6088785e+37 2.7059103e+38)
(-4.634834e+39 -1.123581e+38 2.5658411e+38)
(-4.4806534e+39 -8.979321e+37 6.8093528e+36)
(-4.4903249e+39 -4.6345937e+37 1.3057276e+37)
(-4.4824115e+39 -4.8652442e+37 -1.8528723e+37)
(-4.6255894e+39 -3.7923212e+37 2.3385614e+38)
(-4.494333e+39 -9.067745e+37 1.1596989e+37)
(-4.6257216e+39 -1.1680483e+38 2.552846e+38)
(-4.4587332e+39 -6.2958641e+37 -2.8129106e+38)
(-4.1468025e+39 -6.491892e+37 -2.7092913e+37)
(-4.115289e+39 -5.1569405e+37 -1.4654132e+38)
(-4.1322028e+39 -4.9906906e+37 -1.5326131e+38)
(-4.195727e+39 -2.7658455e+37 -2.1915274e+37)
(-3.8888398e+39 -7.4689476e+37 1.1883716e+38)
(-3.9028729e+39 -3.3473101e+37 1.3175109e+38)
(-4.0876618e+39 -1.4705208e+37 3.2956053e+38)
(-4.0800846e+39 -8.408392e+37 3.1461538e+38)
(-3.8863155e+39 -6.5758609e+37 1.1662702e+38)
(-3.8914606e+39 -3.1083086e+37 1.0936187e+38)
(-4.0951484e+39 -2.4842837e+37 3.0686629e+38)
(-4.0721903e+39 -8.3676442e+37 3.0699874e+38)
(-3.9553077e+39 -3.4693219e+37 3.4033892e+37)
(-3.8171828e+39 -3.9319057e+37 -7.9480819e+37)
(-3.8094385e+39 -5.24458e+37 -7.3261905e+37)
(-3.942599e+39 -6.7164521e+37 3.863864e+37)
(-3.9702347e+39 -3.1246612e+37 5.4553078e+37)
(-3.8136742e+39 -5.4568964e+37 -7.5564663e+37)
(-3.8176845e+39 -4.2240573e+37 -6.5621035e+37)
(-3.9543491e+39 -6.8067671e+37 4.192039e+37)
(-3.8758603e+39 -3.8009992e+37 -8.3436629e+37)
(-3.8003984e+39 -4.2091399e+37 -1.5554251e+38)
(-3.8053114e+39 -4.4213609e+37 -1.4624741e+38)
(-3.8715391e+39 -5.1538117e+37 -9.2105756e+37)
(-3.8927888e+39 -4.3150006e+37 -1.5258219e+38)
(-3.8962598e+39 -3.6990015e+37 -1.4370378e+38)
(-3.8573267e+39 -4.0300004e+37 -1.7255851e+38)
(-3.8483635e+39 -3.6955111e+37 -1.8392087e+38)
(-4.4962773e+39 -1.4491633e+37 -2.0805546e+38)
(-3.8615945e+39 -4.7714828e+37 -1.7610962e+38)
(-3.8679593e+39 -4.5673199e+37 -1.7886434e+38)
(-3.9034945e+39 -4.2752577e+37 -1.4962911e+38)
(-4.5581738e+39 -7.4891593e+37 -1.9810812e+38)
(-3.8978955e+39 -5.5114871e+37 -1.4512143e+38)
(-3.8130716e+39 -4.997204e+37 -1.4603867e+38)
(-3.8138672e+39 -4.3640447e+37 -1.5207145e+38)
(-3.8675552e+39 -3.9224736e+37 -9.8435441e+37)
(-3.8569292e+39 -5.4023443e+37 -9.4865176e+37)
(-4.4411552e+39 -7.1432293e+37 -2.9208232e+38)
(-4.4273617e+39 -6.2865946e+36 -2.9294714e+38)
(-3.8761477e+39 -3.5503481e+37 -9.406034e+37)
(-3.804645e+39 -3.7624202e+37 -1.6771373e+38)
(-3.8170763e+39 -4.5856119e+37 -1.5575559e+38)
(-3.8660488e+39 -4.4655596e+37 -1.0482761e+38)
(-3.8596623e+39 -3.5696856e+37 -2.0030806e+38)
(-3.8779274e+39 -5.0772708e+37 -1.836268e+38)
(-3.8947018e+39 -4.1567894e+37 -1.6727977e+38)
(-3.9063224e+39 -4.3695051e+37 -1.5491234e+38)
(-4.4980072e+39 -4.0775513e+37 -2.2764024e+38)
(-3.8845123e+39 -4.3460674e+37 -1.7296702e+38)
(-3.9154116e+39 -3.9204043e+37 -1.42159e+38)
(-3.8757194e+39 -3.28859e+37 -8.8392301e+37)
(-3.8234804e+39 -3.7667215e+37 -1.4326618e+38)
(-3.8632477e+39 -5.6177421e+37 -8.4348715e+37)
(-4.3703952e+39 -3.6525385e+37 -3.2793633e+38)
(-5.0032338e+39 6.0344917e+36 -1.9107116e+38)
(-4.2591447e+39 8.8222136e+36 -4.0618907e+38)
(-4.5762174e+39 1.0002135e+37 -2.7109252e+38)
(-4.6171391e+39 -7.1119927e+37 -2.5933418e+38)
(-4.2691942e+39 -4.5477091e+37 -4.0919497e+38)
(-4.0879671e+39 -8.9527118e+36 -4.3178364e+38)
(-4.5061347e+39 -3.0198468e+37 -3.2598084e+38)
(-4.0873574e+39 -5.1204401e+36 3.0845907e+38)
(-4.0828337e+39 -6.1263637e+37 2.9750618e+38)
(-3.8946735e+39 -1.8920867e+37 1.1563369e+38)
(-3.8857392e+39 -5.0630663e+37 1.0472313e+38)
(-3.9628722e+39 -2.0096738e+37 4.1066074e+37)
(-3.9508326e+39 -5.0865592e+37 2.9265021e+37)
(-3.8118387e+39 -3.2361178e+37 -7.3032304e+37)
(-3.8087027e+39 -4.253995e+37 -8.4990633e+37)
(-3.8117516e+39 -5.4245229e+37 -6.0004294e+37)
(-3.8217492e+39 -2.7167493e+37 -6.5693454e+37)
(-3.948734e+39 -2.049678e+37 4.5397645e+37)
(-3.9348274e+39 -6.8065621e+37 5.1900691e+37)
(-3.882657e+39 -6.410625e+37 1.3466662e+38)
(-3.8871185e+39 -9.3659508e+36 1.2443388e+38)
(-4.0570111e+39 -5.9210646e+36 3.0253965e+38)
(-4.0357084e+39 -7.6916445e+37 3.0849534e+38)
(-3.2427284e+39 -4.5963804e+37 3.0276958e+38)
(-3.2499649e+39 3.7657156e+36 2.9383148e+38)
(-3.2505973e+39 7.3180558e+36 2.86052e+38)
(-3.2589549e+39 -3.3980463e+37 2.8154477e+38)
(-3.2614604e+39 -2.7247098e+36 3.0300391e+38)
(-3.2720658e+39 -4.631621e+37 2.9496502e+38)
(-3.2580485e+39 -2.1259276e+36 2.803045e+38)
(-3.2471478e+39 -3.7959467e+37 2.8251241e+38)
(-3.8544737e+39 -3.6219038e+37 2.9306421e+38)
(-3.8423908e+39 -9.5978961e+37 3.0018739e+38)
(-3.8605136e+39 -3.4171606e+37 3.2803258e+38)
(-3.8533591e+39 -1.0346201e+38 3.0602678e+38)
(-3.8202297e+39 -2.1933915e+37 2.8189705e+38)
(-3.8272927e+39 -8.1721714e+37 2.7689023e+38)
(-3.8309372e+39 -8.9113374e+37 3.1210798e+38)
(-3.8410421e+39 -1.377015e+37 2.9889156e+38)
(-3.270914e+39 -2.4717755e+37 2.9978821e+38)
(-3.2624591e+39 -6.2647014e+37 3.023916e+38)
(-3.2685855e+39 -1.8455375e+37 3.2165625e+38)
(-3.2815842e+39 -6.8947025e+37 3.1621932e+38)
(-3.2541607e+39 -5.4716483e+37 3.0125649e+38)
(-3.263347e+39 -9.7601904e+36 2.9633885e+38)
(-3.2612745e+39 -1.2516108e+37 2.9573621e+38)
(-3.268928e+39 -5.2076911e+37 2.8806397e+38)
(-5.0383848e+39 -4.2122251e+37 -4.8118673e+38)
(-5.0504887e+39 -5.3679964e+37 -4.6590264e+38)
(-5.0647266e+39 1.5743602e+37 -3.1413684e+38)
(-4.4346208e+39 1.2345489e+37 -5.3422271e+38)
(-3.5321045e+39 -1.0772768e+37 -6.6470234e+38)
(-3.5347703e+39 6.0875874e+37 -6.6669989e+38)
(-3.5165771e+39 -1.5984349e+37 -6.6508509e+38)
(-3.5352758e+39 4.7144944e+37 -6.641155e+38)
(-3.0971832e+39 2.1378627e+37 -7.7638431e+38)
(-2.1833763e+39 3.966315e+37 -6.7395196e+38)
(-2.1799494e+39 2.077045e+37 -6.6716803e+38)
(-1.5951837e+39 3.0993835e+37 -7.1887649e+38)
(-1.5833151e+39 1.8365398e+37 -7.092316e+38)
(-2.1786082e+39 3.2917522e+37 -6.6354843e+38)
(-2.1725845e+39 1.5488768e+37 -6.7164673e+38)
(-1.5853399e+39 3.0533417e+37 -7.0435708e+38)
(-1.5731265e+39 1.9552024e+37 -7.1990404e+38)
(-1.2303268e+39 1.0791146e+37 -2.8390662e+38)
(-1.2320448e+39 1.4269812e+37 -2.6167141e+38)
(-1.7219168e+39 3.0108267e+37 2.3557565e+38)
(-1.7203252e+39 -2.2107942e+37 2.3944271e+38)
(-1.7267738e+39 -6.6400401e+36 2.4125924e+38)
(-1.6823444e+39 5.5649276e+37 2.1456291e+38)
(-1.2449089e+39 1.973293e+37 -2.5145057e+38)
(-1.1984579e+39 2.6758196e+37 -3.0202095e+38)
(-3.0951293e+39 6.2834797e+36 -7.7840028e+38)
(-3.1034499e+39 2.7069113e+37 -7.8271088e+38)
(-2.1786919e+39 3.7178247e+37 -6.7048049e+38)
(-2.1712142e+39 1.9947322e+37 -6.6302251e+38)
(-1.5796134e+39 3.6835458e+37 -7.1898295e+38)
(-1.5667878e+39 2.6185281e+37 -7.0780446e+38)
(-1.2367155e+39 3.029948e+37 -2.4145456e+38)
(-1.7182085e+39 1.3406503e+37 2.4236052e+38)
(-1.2062527e+39 2.4656957e+37 -2.9843569e+38)
(-1.6968018e+39 -8.8621017e+36 2.1447501e+38)
(-1.2131298e+39 3.1384372e+37 -2.667906e+38)
(-1.6911049e+39 5.6377265e+37 2.1863844e+38)
(-4.3536182e+39 4.2508928e+36 -5.912534e+38)
(-4.2101016e+39 3.6128996e+37 -3.8456028e+38)
(-4.1848178e+39 -2.703398e+37 -3.9175929e+38)
(-4.3182486e+39 -3.6817707e+36 -5.9403991e+38)
(-4.4214904e+39 3.0080198e+37 -5.2637669e+38)
(-3.5252012e+39 6.5281843e+37 -6.5312637e+38)
(-3.5154053e+39 3.1268799e+35 -6.541606e+38)
(-4.3430821e+39 5.0935204e+37 -3.3596153e+38)
(-4.377593e+39 -1.2035253e+37 -3.5370865e+38)
(-4.419103e+39 1.4631876e+36 -5.2217517e+38)
(-3.5159012e+39 6.2507559e+37 -6.513917e+38)
(-3.5106713e+39 -1.6033796e+36 -6.565081e+38)
(-4.2485451e+39 -4.2523169e+37 -3.8074286e+38)
(-4.2011604e+39 3.396064e+37 -3.7045893e+38)
(-4.3424729e+39 -1.0562448e+37 -5.7679076e+38)
(-4.3413063e+39 -2.5196962e+37 -5.8924413e+38)
(-2.9467053e+39 -1.6855272e+37 -6.9986545e+38)
(-3.5032834e+39 2.0566e+37 -5.9535054e+38)
(-3.4989601e+39 -2.0220296e+37 -5.9671175e+38)
(-2.9448922e+39 -1.7422337e+37 -6.9616279e+38)
(-2.9580563e+39 1.5191236e+36 -7.0110113e+38)
(-3.5035218e+39 3.2054209e+37 -6.048786e+38)
(-3.4876751e+39 -1.9715512e+37 -6.0811478e+38)
(-2.9468575e+39 -9.8396648e+36 -7.1221113e+38)
(-2.0580003e+39 -4.8799804e+37 -6.3789735e+38)
(-2.0586363e+39 -2.2259835e+37 -6.2972425e+38)
(-1.800602e+39 -1.4581285e+38 1.199928e+38)
(-1.8057072e+39 -3.811912e+37 1.2918196e+38)
(-2.0800625e+39 -2.7500313e+37 -6.3923082e+38)
(-2.0531869e+39 -8.4909687e+36 -6.4642254e+38)
(-1.8324031e+39 -1.2362641e+38 1.3236342e+38)
(-1.802485e+39 -7.9629256e+36 1.2164064e+38)
(-2.9748667e+39 9.4611924e+36 -7.1188204e+38)
(-3.5152852e+39 4.2862506e+37 -6.0996626e+38)
(-3.5035563e+39 -2.3587613e+35 -6.0948952e+38)
(-2.9587224e+39 9.8739605e+36 -7.0863731e+38)
(-2.9548176e+39 2.4866715e+37 -7.077741e+38)
(-3.4904337e+39 5.010249e+37 -6.1104755e+38)
(-3.4780192e+39 9.4769578e+35 -6.1641576e+38)
(-2.9468782e+39 1.6015118e+37 -7.1946321e+38)
(-2.0831821e+39 -1.4825446e+37 -6.5234998e+38)
(-2.0686119e+39 1.771173e+37 -6.4380929e+38)
(-1.8123466e+39 -1.0423215e+38 1.0780893e+38)
(-1.8076096e+39 2.2786423e+37 1.1584696e+38)
(-2.0507156e+39 2.7692494e+37 -6.5668827e+38)
(-1.835489e+39 -6.4573362e+37 1.2921891e+38)
(-2.075921e+39 7.9367126e+36 -6.4612474e+38)
(-1.7955417e+39 4.411806e+37 1.0824693e+38)
(-3.0883793e+39 3.1916852e+37 -7.7348715e+38)
(-3.0897834e+39 1.4316357e+37 -7.7091354e+38)
(-2.1689405e+39 3.8799805e+37 -6.6705389e+38)
(-2.1632686e+39 2.0719044e+37 -6.5961509e+38)
(-1.5791928e+39 2.7696386e+37 -7.1688411e+38)
(-1.5709058e+39 1.3965059e+37 -7.0393233e+38)
(-2.1668457e+39 3.3937738e+37 -6.5651944e+38)
(-2.1605484e+39 1.5914871e+37 -6.6518785e+38)
(-1.5805414e+39 2.4398933e+37 -7.008361e+38)
(-1.5688665e+39 1.2043044e+37 -7.1645181e+38)
(-1.7259961e+39 -5.807897e+37 2.4101928e+38)
(-1.7652074e+39 -7.2610247e+36 2.6624874e+38)
(-1.2087678e+39 3.3468282e+36 -2.9367657e+38)
(-1.2398279e+39 1.5064939e+36 -2.4202196e+38)
(-1.7628547e+39 -4.0194316e+37 2.6173137e+38)
(-1.7278192e+39 2.3010033e+37 2.4068373e+38)
(-1.247058e+39 4.9773114e+36 -2.4281701e+38)
(-1.2099472e+39 9.7753225e+36 -2.8272476e+38)
(-3.0871091e+39 1.4595512e+37 -7.7563322e+38)
(-3.0967709e+39 3.1056725e+37 -7.7003477e+38)
(-2.1693162e+39 4.1148896e+37 -6.62698e+38)
(-2.163064e+39 2.4495288e+37 -6.5657847e+38)
(-1.583634e+39 3.0297547e+37 -7.1437199e+38)
(-1.571605e+39 2.1246027e+37 -7.0339656e+38)
(-2.1718522e+39 3.7998357e+37 -6.6092434e+38)
(-2.1622066e+39 1.7467741e+37 -6.692205e+38)
(-1.5835807e+39 3.3269652e+37 -7.0401854e+38)
(-1.568288e+39 1.7276705e+37 -7.1982241e+38)
(-1.2212758e+39 7.8746574e+36 -2.8287088e+38)
(-1.7293414e+39 -3.6442569e+37 2.3414256e+38)
(-1.2274765e+39 1.4791938e+37 -2.5316078e+38)
(-1.7261697e+39 2.7205464e+37 2.3726185e+38)
(-1.2424714e+39 2.0724594e+37 -2.518779e+38)
(-1.197385e+39 2.1259418e+37 -2.9399912e+38)
(-1.7327449e+39 -6.5420104e+36 2.4090666e+38)
(-1.6947704e+39 3.8082215e+37 2.2321727e+38)
(-2.7381696e+39 -4.0188495e+37 3.4982247e+38)
(-2.7155485e+39 -1.7874074e+37 3.2721251e+38)
(-3.4987853e+39 -4.8929964e+37 4.1958778e+38)
(-3.4989163e+39 -1.4129756e+37 4.281325e+38)
(-2.7216982e+39 -2.8043304e+37 3.3532902e+38)
(-3.4951943e+39 -2.9118878e+37 4.3504235e+38)
(-2.7170841e+39 -2.7425602e+37 3.4665639e+38)
(-3.483389e+39 -7.7481933e+37 4.3996329e+38)
(-2.7061859e+39 -6.1585604e+37 3.3555106e+38)
(-2.7037219e+39 -4.3989882e+37 3.248912e+38)
(-3.4669547e+39 -2.7512996e+37 4.1809906e+38)
(-3.4769557e+39 -6.367343e+37 4.1323123e+38)
(-3.478529e+39 -3.617626e+37 4.0698134e+38)
(-2.7016013e+39 -4.5771497e+37 3.1913337e+38)
(-2.6926851e+39 -2.7200002e+37 3.2753062e+38)
(-3.4680407e+39 -7.2069913e+37 4.090847e+38)
(-2.3595288e+39 -3.7876606e+37 3.4826882e+38)
(-2.3453109e+39 -6.0401745e+37 3.52226e+38)
(-3.0170509e+39 -2.2891029e+37 3.8836455e+38)
(-3.0195207e+39 -5.3126442e+37 3.8544169e+38)
(-2.3372626e+39 -2.0948524e+37 3.420712e+38)
(-2.3446039e+39 -5.2203419e+37 3.3811934e+38)
(-3.0324044e+39 -3.8059957e+37 3.8178122e+38)
(-3.0235911e+39 -6.4223996e+37 3.7197392e+38)
(-2.3393804e+39 -1.8423966e+37 3.3889895e+38)
(-2.3249808e+39 -6.3327933e+37 3.3713091e+38)
(-3.0152635e+39 -2.7248642e+37 3.6712858e+38)
(-3.0225924e+39 -4.3102693e+37 3.697613e+38)
(-2.3189737e+39 -4.4420203e+36 3.4188461e+38)
(-2.3257353e+39 -3.1656597e+37 3.336321e+38)
(-3.0076625e+39 -2.1984969e+37 3.7238616e+38)
(-2.998875e+39 -5.5968054e+37 3.6736447e+38)
(-2.3276095e+39 -1.6376072e+37 3.3705752e+38)
(-2.3133411e+39 -4.7210939e+37 3.356615e+38)
(-2.9965324e+39 -1.4090884e+37 3.623949e+38)
(-3.0114512e+39 -3.9749848e+37 3.7134474e+38)
(-2.2969309e+39 4.1595658e+36 3.2879867e+38)
(-2.3115846e+39 -2.9114344e+37 3.2587522e+38)
(-3.0070621e+39 -1.8973904e+37 3.5790012e+38)
(-2.9981833e+39 -4.6422695e+37 3.5156944e+38)
(-3.0065113e+39 -8.6509352e+36 3.6333845e+38)
(-2.3058164e+39 -3.6668581e+37 3.3397485e+38)
(-2.3134394e+39 5.1821937e+36 3.3195236e+38)
(-3.0111032e+39 -2.7858964e+37 3.6485929e+38)
(-2.3132714e+39 -4.2682156e+36 3.4822811e+38)
(-2.300697e+39 -1.6606949e+37 3.2589738e+38)
(-2.9965855e+39 -1.1538679e+37 3.6897937e+38)
(-2.9900785e+39 -4.9846727e+37 3.6874964e+38)
(-2.307526e+39 -9.3663039e+34 3.3132975e+38)
(-2.3270317e+39 -3.3838007e+37 3.5475449e+38)
(-3.0022876e+39 -4.3878527e+36 3.7898488e+38)
(-2.9991761e+39 -3.0885146e+37 3.6710162e+38)
(-2.3176698e+39 7.4870417e+36 3.4114691e+38)
(-2.3034113e+39 -2.2615297e+37 3.2372709e+38)
(-3.0028302e+39 -1.5765987e+37 3.5757352e+38)
(-3.006657e+39 -4.1404599e+37 3.6359002e+38)
(-2.293843e+39 -3.4201898e+37 3.2924786e+38)
(-2.9854404e+39 -2.5206849e+36 3.4753909e+38)
(-2.3001818e+39 1.1395918e+37 3.3064e+38)
(-2.9966863e+39 -2.03198e+37 3.5704892e+38)
(-2.9812314e+39 1.5155856e+36 3.5773552e+38)
(-2.2956816e+39 6.2447901e+35 3.275326e+38)
(-2.2767576e+39 3.5007061e+37 3.2731864e+38)
(-2.9690742e+39 -2.8324768e+37 3.5028102e+38)
(-2.2974683e+39 -3.2333145e+36 3.2275427e+38)
(-2.2766925e+39 -1.7494496e+37 3.1680408e+38)
(-2.9868846e+39 8.4191876e+36 3.511747e+38)
(-2.9965937e+39 -2.2481822e+37 3.5690558e+38)
(-2.999981e+39 -4.8935738e+36 3.5103493e+38)
(-2.2965959e+39 -3.6854931e+36 3.2220252e+38)
(-2.2861243e+39 1.9489726e+37 3.2278079e+38)
(-2.9995248e+39 -2.86201e+37 3.517066e+38)
(-2.2963185e+39 3.2422388e+37 3.2665785e+38)
(-2.3127513e+39 -2.0113228e+37 3.4464559e+38)
(-2.9969029e+39 7.3153927e+36 3.6151222e+38)
(-2.9973333e+39 -1.2304359e+37 3.5743369e+38)
(-2.3026347e+39 2.7065499e+37 3.468688e+38)
(-2.2922176e+39 4.798905e+36 3.2557606e+38)
(-2.9917201e+39 -2.085779e+36 3.7048021e+38)
(-2.9862852e+39 -3.4383608e+37 3.7132258e+38)
(-2.7400703e+39 -7.8198531e+37 3.4260789e+38)
(-2.7306324e+39 -5.4537523e+37 3.4848242e+38)
(-3.498819e+39 -6.1693121e+37 4.2646046e+38)
(-3.4915856e+39 -9.6789532e+37 4.2859832e+38)
(-2.745515e+39 -8.01138e+37 3.6892326e+38)
(-2.7405653e+39 -7.2590617e+37 3.613174e+38)
(-3.4933996e+39 -3.8252189e+37 4.5306692e+38)
(-3.5011029e+39 -8.2719512e+37 4.5251695e+38)
(-3.5012515e+39 -4.0594977e+37 4.2544099e+38)
(-2.7359756e+39 -7.4568564e+37 3.4752677e+38)
(-2.7183491e+39 -5.0096409e+37 3.3004652e+38)
(-3.4962284e+39 -6.9775971e+37 4.148238e+38)
(-2.7280352e+39 -5.1190608e+37 3.388001e+38)
(-2.7066744e+39 -3.9360685e+37 3.4359464e+38)
(-3.4933265e+39 -4.3949212e+37 4.2867405e+38)
(-3.4765459e+39 -8.6765647e+37 4.3002963e+38)
(-3.8233919e+39 -4.8714909e+37 -1.3729605e+38)
(-3.8293118e+39 -3.8364969e+37 -1.440448e+38)
(-3.8753673e+39 -5.9968679e+37 -7.7433553e+37)
(-3.8882715e+39 -3.5583817e+37 -8.2870645e+37)
(-3.911934e+39 -5.0244442e+37 -1.3828291e+38)
(-3.9208469e+39 -3.4799138e+37 -1.4347863e+38)
(-3.8839307e+39 -3.5002821e+37 -1.7595599e+38)
(-3.8762846e+39 -3.923252e+37 -1.7184242e+38)
(-4.5271869e+39 -5.9784015e+37 -2.0463425e+38)
(-3.8894052e+39 -4.659465e+37 -1.6266531e+38)
(-3.8527601e+39 -2.933757e+37 -1.998448e+38)
(-3.8488484e+39 -5.0902442e+37 -1.9855968e+38)
(-3.8897236e+39 -4.1034768e+37 -1.6623419e+38)
(-4.4803811e+39 -4.7385837e+37 -2.3848555e+38)
(-3.8003752e+39 -4.0892462e+37 -1.6487009e+38)
(-3.7972621e+39 -4.9473231e+37 -1.6223177e+38)
(-3.8504881e+39 -4.448878e+37 -1.0595375e+38)
(-3.8519094e+39 -5.1149655e+37 -1.095673e+38)
(-4.3452048e+39 -3.5875522e+37 -3.3598005e+38)
(-4.3905424e+39 -3.959117e+37 -2.9565869e+38)
(-3.8023241e+39 -4.721024e+37 -1.4893963e+38)
(-3.8774587e+39 -5.9786029e+37 -8.297239e+37)
(-3.8981847e+39 -4.6937093e+37 -1.4785545e+38)
(-3.8509659e+39 -3.9904581e+37 -1.8148928e+38)
(-3.8614754e+39 -4.7751581e+37 -1.7606149e+38)
(-3.8958151e+39 -4.5325853e+37 -1.455052e+38)
(-4.5234574e+39 -7.6443565e+37 -1.9971315e+38)
(-3.8456958e+39 -4.8055579e+37 -1.7704891e+38)
(-3.874069e+39 -5.6222013e+37 -1.4800804e+38)
(-4.3919009e+39 -6.6592776e+37 -2.9402733e+38)
(-3.7971554e+39 -5.4006656e+37 -1.4403549e+38)
(-3.8459066e+39 -6.2652645e+37 -9.2514692e+37)
(-3.8076688e+39 -4.8801083e+37 -1.4715866e+38)
(-3.8610108e+39 -4.7934765e+37 -9.3285776e+37)
(-4.0856746e+39 -2.9413599e+37 3.3593168e+38)
(-3.8955736e+39 -8.5559549e+37 1.3229044e+38)
(-4.0723794e+39 -9.7842774e+37 3.1768949e+38)
(-3.8868058e+39 -8.1914566e+37 1.282953e+38)
(-3.8929964e+39 -4.5128534e+37 1.2006386e+38)
(-4.0613824e+39 -9.9695495e+37 3.1250806e+38)
(-4.076245e+39 -4.1780598e+37 3.0752908e+38)
(-3.9474666e+39 -4.7014162e+37 4.296058e+37)
(-3.8141429e+39 -4.9854096e+37 -7.0978165e+37)
(-3.9349765e+39 -8.1282653e+37 4.7509233e+37)
(-3.8023035e+39 -6.4735258e+37 -6.668222e+37)
(-3.8185958e+39 -6.4621165e+37 -6.3098808e+37)
(-3.9552517e+39 -7.7845433e+37 5.3445899e+37)
(-3.7957168e+39 -4.4510237e+37 -8.2095098e+37)
(-3.8024038e+39 -5.1822975e+37 -8.3937187e+37)
(-3.9339038e+39 -6.3953592e+37 2.8817156e+37)
(-3.9311467e+39 -3.5016702e+37 3.26846e+37)
(-3.8788909e+39 -6.7002795e+37 1.0998721e+38)
(-3.8739642e+39 -3.3746643e+37 1.1358092e+38)
(-4.0476151e+39 -2.3068173e+37 2.9633501e+38)
(-4.0522173e+39 -7.9251002e+37 2.9113624e+38)
(-3.9621765e+39 -2.9488218e+37 5.2569668e+37)
(-3.8307271e+39 -3.3390078e+37 -6.1747115e+37)
(-3.8215146e+39 -6.1746843e+37 -5.4071629e+37)
(-3.9489558e+39 -7.854994e+37 6.0369726e+37)
(-3.8982264e+39 -7.7027841e+37 1.4391121e+38)
(-3.9027206e+39 -2.2438807e+37 1.32604e+38)
(-4.0695408e+39 -2.1261895e+37 3.1300776e+38)
(-4.0480254e+39 -9.2157714e+37 3.1939132e+38)