/*--------------------------------*- C++ -*----------------------------------*\
  =========                 |
  \\      /  F ield         | OpenFOAM: The Open Source CFD Toolbox
   \\    /   O peration     | Website:  https://openfoam.org
    \\  /    A nd           | Version:  7
     \\/     M anipulation  |
\*---------------------------------------------------------------------------*/
FoamFile
{
    version     2.0;
    format      ascii;
    class       volScalarField;
    location    "10000";
    object      omega;
}
// * * * * * * * * * * * * * * * * * * * * * * * * * * * * * * * * * * * * * //

dimensions      [0 0 -1 0 0 0 0];

internalField   nonuniform List<scalar> 
34387
(
371.66597
362.46767
400.54448
362.88937
385.40754
366.09961
371.57604
374.81869
371.02596
368.12703
358.79426
358.04833
359.18827
361.20806
360.26765
362.45967
360.59719
358.43106
360.71751
397.08051
396.44312
392.1366
362.2376
357.40629
359.54682
361.75733
361.24609
363.27689
363.69944
388.82495
374.48516
387.22659
381.44794
376.95135
382.56484
361.64971
365.61514
366.06393
368.52742
363.66346
372.92459
376.851
368.40963
365.73183
355.90376
357.9091
356.17151
355.04712
356.86825
359.06398
357.29875
355.43046
357.2759
354.00858
354.7606
356.325
358.37168
356.04011
356.519
363.14827
361.03188
356.44756
359.36596
396.07418
388.93057
384.04586
395.39064
385.89064
385.43474
362.88973
358.67515
358.96075
360.22727
360.07185
361.95828
362.29034
367.32126
355.44366
357.14537
358.73294
358.21812
359.82884
360.28946
359.551
359.45362
361.5309
361.96013
390.88701
378.87559
385.36781
386.90381
393.97527
392.18988
366.28392
372.0793
376.70789
373.45769
369.36143
385.53634
381.34436
375.83898
379.77918
358.65545
361.13884
362.03966
363.27496
360.22305
364.66662
363.16324
368.46972
360.96317
406.86411
408.99585
388.18934
382.51332
353.83307
354.65502
356.03894
354.54907
353.1506
352.86035
353.75355
355.15087
354.22359
354.65056
353.46855
351.03794
352.28019
352.5372
353.74298
358.74719
356.64694
352.33966
354.42349
350.16287
368.54609
351.2996
366.81
370.51646
352.73992
373.26147
353.75688
389.88918
384.35418
378.14105
388.06439
376.3715
386.48518
382.78438
379.53213
379.47382
374.96111
393.91067
384.71658
378.29378
380.01347
367.07531
362.41657
359.02102
360.17171
359.51569
361.76744
359.14361
358.21711
360.40626
361.44923
368.10073
356.53875
358.92581
357.53258
356.70042
357.32745
358.91879
357.76774
357.60653
359.1569
359.49018
359.43851
354.90789
355.4718
356.03005
357.21441
356.41127
357.61271
356.0953
356.51216
357.88873
357.55193
374.65231
367.52857
372.94558
382.53035
392.10573
378.30103
394.20355
394.9419
387.35021
386.70648
367.91776
373.4134
374.17792
380.58922
379.46566
383.09112
384.43557
391.43472
389.2768
362.26582
365.56109
368.59777
366.90889
364.38844
371.5686
375.77352
370.90892
367.46609
418.41404
418.42268
410.04954
413.73719
358.21662
356.67004
359.00018
359.62676
357.67011
359.50529
359.05139
361.703
357.55447
385.10882
376.93664
397.35405
371.58678
420.25259
428.38594
396.99082
388.30064
352.41677
352.81632
352.11391
353.08752
352.30273
351.28758
351.52143
352.57234
353.8035
353.24119
354.71433
351.01076
351.57495
349.89957
350.45231
349.00956
351.47128
352.37578
349.94208
362.99284
359.73313
347.6972
359.76213
348.01776
349.08207
365.25977
349.46251
378.95325
371.00752
363.46557
371.29731
354.32263
366.19892
375.01844
372.62913
370.19534
379.00348
357.67819
375.73628
383.80567
381.29926
401.83737
393.18994
386.81384
400.15267
369.43695
373.74129
372.78891
371.85714
372.46467
368.30275
382.389
377.19933
370.84568
376.458
377.02042
367.33869
364.37105
362.02254
364.84007
367.60408
362.81925
356.80197
356.07137
356.2317
358.08192
358.62576
357.07287
355.31711
355.86761
357.81104
360.14216
360.50023
355.85706
362.83507
357.69539
357.13558
354.54839
357.14988
360.00684
360.20087
355.85387
356.19973
354.9852
356.65032
355.14812
355.58631
355.2912
356.44004
354.90497
356.23808
366.80613
365.89041
368.91381
371.7758
363.0825
356.96663
354.72231
354.54807
354.36143
354.72834
355.6253
355.36349
354.03161
355.21536
353.9299
354.95867
363.85776
360.50761
363.39724
369.83033
380.11976
371.36573
380.40971
390.21702
392.71537
378.31505
387.4563
387.58763
395.73157
395.40735
367.72521
374.28253
380.68628
380.19444
373.99478
391.59728
393.25949
387.74145
385.71189
363.78683
366.99112
370.2999
370.02571
367.15765
373.19175
373.35289
377.75891
377.68274
417.41089
420.37314
430.71085
435.92546
359.79006
361.60442
363.51616
362.76097
361.01335
364.51031
367.47443
364.22725
361.66976
394.29342
405.74893
395.02369
387.4865
434.45036
428.37204
419.63967
429.40158
356.52217
357.26783
355.37251
356.75724
356.40005
355.73023
356.31639
357.94473
355.12752
368.5015
366.71155
375.93714
363.35337
391.96364
379.82474
406.91092
373.31215
351.47066
351.01833
351.57122
352.24734
351.12427
350.35646
350.14688
350.93862
351.69787
351.31888
349.99364
350.71717
348.34318
349.96626
347.65238
349.11384
348.25081
349.06762
352.19283
360.06338
364.84371
359.59145
346.97846
346.8295
346.17398
355.40359
346.12802
352.87262
354.62479
357.16907
356.13985
365.35802
361.24621
350.51664
357.5047
362.78485
359.84483
352.32102
362.44651
369.90897
364.91791
385.65162
375.98527
367.6292
377.73167
364.82303
368.21128
366.92686
367.40426
366.1362
364.08105
371.98235
370.08868
366.29963
373.33027
389.4464
366.78607
371.08004
372.04294
377.32159
376.48309
364.03665
361.40872
362.32858
360.27102
358.84168
360.91793
362.8989
362.71343
366.49791
390.09514
355.3414
355.73877
353.99353
354.47923
355.22694
353.7633
354.4792
353.07842
353.47053
354.94529
354.38315
353.10503
356.58433
354.68107
357.32452
352.74931
351.15371
353.23482
354.93314
383.43455
354.97618
389.73844
352.99448
356.84976
392.33267
355.1249
373.30293
370.1814
378.34857
383.07207
364.42441
357.46958
355.63929
363.18614
361.16449
353.99415
354.11859
354.94539
354.13161
354.73941
353.97233
353.0654
352.84998
353.8246
360.58087
363.21976
369.522
367.7202
371.68229
376.43657
364.11946
358.3885
356.63216
354.77284
352.30386
354.10698
353.64621
353.51209
353.55908
354.21512
352.25234
353.05768
353.11511
357.1266
358.66178
356.77862
359.56692
366.17752
361.10592
365.3502
374.04274
393.11616
378.67264
387.82317
396.07196
395.76694
387.61779
367.40789
374.02084
374.06671
380.6826
380.5541
387.93094
388.57178
394.39513
394.90849
363.67593
367.17265
370.27153
370.36391
367.28351
376.73343
382.31079
379.70166
375.26808
422.29783
420.88638
408.84414
410.37659
361.35748
363.04789
365.02751
365.28527
363.43448
367.5168
370.34477
369.61045
366.71817
389.73198
390.91506
404.17976
403.87087
436.8347
428.79982
446.28556
449.27681
358.29903
359.20967
358.72668
359.9199
360.38117
360.77598
362.543
360.05143
358.54677
374.61149
381.9147
376.96344
370.13635
399.38876
412.65277
402.8474
392.15787
359.70652
355.50753
354.53563
355.71391
355.05288
354.4551
355.15743
354.29584
354.62149
353.49757
360.84356
362.97385
359.00328
370.00909
367.2806
380.12006
363.05317
350.85255
350.69192
349.56052
350.16704
351.18898
349.97593
350.74897
350.27646
349.38287
348.87621
350.08165
350.64631
347.76778
348.75406
347.29362
348.11411
346.58841
347.15549
349.4068
353.39325
351.86264
353.06324
345.48062
351.06992
345.35991
344.9761
349.83564
344.86177
350.68309
352.7653
356.13916
361.80712
368.15943
362.53436
355.52325
349.14975
354.38201
352.95678
347.96529
356.59678
351.7501
353.68687
354.65886
357.91314
357.97664
361.61157
362.89943
361.25529
364.25377
362.10627
361.89992
360.77675
365.64676
362.27126
371.67602
387.63
381.40108
373.29086
369.83078
374.61153
383.06241
362.25333
367.95664
364.90905
364.90232
367.83779
368.05817
368.54193
373.16487
372.25246
381.17002
359.41973
374.52974
357.71211
358.93591
357.50961
356.75051
359.49188
358.00902
357.72866
359.93862
384.29022
398.16195
402.51384
366.79831
353.79032
352.57614
353.69319
352.7522
352.01296
353.10488
351.86273
351.41844
352.50342
352.88747
352.73989
352.49481
352.30758
351.06688
351.11832
350.06822
349.09999
351.06354
352.0153
350.64971
369.82412
349.67896
352.36886
375.62568
351.26861
374.95943
365.40309
360.48016
362.27264
369.15206
391.73026
357.97445
378.88179
406.26996
370.1121
382.51352
360.93783
418.31162
375.69955
379.7656
377.69278
391.28472
391.24056
365.42242
359.44183
357.02487
355.66316
364.41053
361.58028
359.18183
353.46581
353.13252
353.72963
353.62865
353.07813
352.41419
351.73898
352.11346
351.44974
357.56504
357.0724
358.68695
360.93206
364.62717
363.93955
358.45771
357.7324
356.6735
354.92661
351.73947
354.39964
353.21633
352.7792
352.82804
353.27451
353.23382
351.25289
351.10292
351.65848
354.26979
355.32532
355.7907
356.51762
358.48556
357.00438
360.70047
393.37954
378.88759
387.03378
388.58557
397.2305
395.07565
367.55071
374.21592
374.06703
380.64275
380.90628
390.46157
398.82038
393.03901
385.68559
363.30703
366.96418
370.07882
369.95909
366.7424
375.24557
374.84939
380.96956
380.87164
419.95311
424.37329
428.82169
433.79404
361.43058
363.29022
365.16117
365.30829
363.48783
368.5539
372.00732
372.57187
368.49736
397.28808
401.17057
399.3192
389.88748
452.00372
439.00574
423.21436
422.14452
359.82126
360.89643
360.69176
362.13721
361.84433
363.46107
365.53075
364.81803
362.95121
375.72136
382.04093
380.21227
373.3244
392.57571
393.66528
408.94526
407.79935
357.38812
357.26496
357.74226
358.47689
358.07016
358.37345
356.35539
357.3995
359.48468
364.85175
368.72571
365.19864
362.1229
376.6778
385.29285
380.37715
371.59076
359.02983
357.87613
354.01347
354.08423
354.58623
354.12926
353.6833
353.93542
353.32791
352.25111
352.84663
357.08468
356.31845
355.77279
360.21489
363.23585
358.26017
350.46844
350.14269
348.86796
349.73276
350.47628
349.51079
349.06011
350.12053
349.35553
349.23326
346.53007
347.40158
346.92867
347.9236
349.61412
346.27453
348.4994
348.21402
345.97922
350.19184
350.79084
351.69564
344.53282
349.44204
344.65102
344.30785
348.66533
344.36433
348.32275
348.98241
351.06989
353.08957
351.29958
352.71939
346.82016
349.33265
351.20253
350.04095
346.00804
347.77606
349.53218
348.00014
350.50539
353.00938
356.71921
358.12318
360.27616
357.90997
356.88016
354.52618
358.16528
356.27195
352.99862
359.64421
358.23037
357.9677
362.3955
358.67195
371.42162
387.62
369.16166
373.43888
372.37144
380.22251
381.4225
376.99528
371.3185
369.60751
364.75517
366.31243
367.81082
371.07621
372.21414
379.12385
359.59657
361.18501
361.08693
362.94806
363.06135
365.76669
362.97318
362.31133
365.06567
389.02054
385.24074
397.58446
396.42977
386.51476
368.93755
377.47327
365.18689
356.44048
355.25853
356.62994
355.6737
355.42037
355.99185
357.04334
356.16817
355.03881
367.03874
376.58002
390.16791
406.04835
370.73679
361.2431
351.62471
350.80547
351.53828
352.20855
351.58119
350.80892
350.23065
351.04046
351.51398
351.94864
351.24135
349.13937
349.65642
350.07165
350.539
349.6479
347.60844
348.37012
350.32131
356.8429
349.16353
363.58333
348.61406
347.98913
358.809
347.21603
356.79109
353.77608
355.06434
358.43427
353.32499
365.08591
376.83855
362.5004
370.34137
356.38506
386.16353
366.45803
380.43786
370.78525
364.50711
365.47567
374.04957
374.58281
382.37963
392.78432
383.66478
412.98417
390.38319
380.82767
396.12877
367.87323
359.23569
358.69009
357.01443
355.81097
359.1272
353.06945
352.85319
352.92426
352.54355
352.42815
350.64042
351.17771
350.94472
350.44039
355.91246
354.81049
355.65891
354.40579
357.36794
356.67763
358.49136
364.06455
357.74411
357.7954
357.77581
356.8521
355.13257
353.23815
353.75471
352.98133
352.37642
352.28312
352.63043
352.68933
350.47246
350.33027
350.70885
350.86676
352.24993
352.44808
353.33191
353.57781
354.87629
355.05765
393.14737
379.12191
387.61188
395.85418
395.71941
387.25858
367.53597
380.50519
373.91126
374.32591
381.26396
391.03289
392.03194
401.87141
401.04617
363.373
367.12659
370.23588
370.04225
366.84892
375.61013
374.43556
378.73928
381.9885
426.92471
457.46042
441.14857
418.02653
361.2508
363.24706
362.96477
364.77863
364.9829
368.63661
371.62592
371.41202
368.48072
395.39085
397.80545
408.00608
415.90115
435.21274
440.96886
456.65806
460.64902
359.92281
360.97654
360.86503
362.19232
362.04938
364.75533
366.61279
366.40731
364.52875
380.17654
382.55181
386.20887
376.14029
403.45843
411.68776
408.0011
395.81088
358.87177
359.97654
359.27322
359.18668
360.05838
360.36366
360.85827
361.57937
362.04358
367.34515
370.89183
368.52968
365.42381
376.84852
384.20401
382.02893
374.03127
356.85367
357.29052
356.78086
356.37952
356.9079
354.94151
356.81071
357.54214
355.60933
360.93232
359.14505
360.38874
362.39787
364.53735
369.2602
365.5146
362.06037
357.03614
353.7067
353.45852
353.81301
353.4897
353.1548
352.36972
352.82367
351.81462
351.45302
355.04419
354.11107
353.97735
354.81565
356.30253
355.48869
354.90357
350.2703
349.42637
349.69517
348.91985
348.55198
348.73609
349.80201
350.03521
349.09962
348.69666
345.48686
346.91702
347.71199
348.94108
346.32471
347.32231
346.13674
347.96025
345.7537
349.62159
343.80189
347.67823
343.86815
348.0622
344.08884
344.12772
350.23742
347.43562
349.48361
348.79215
346.91198
349.58489
350.15394
351.19106
345.54201
346.5918
348.94932
346.49541
345.61508
345.28149
347.93202
345.72182
347.79283
348.50244
350.41033
353.97355
352.55291
349.8514
350.73223
350.81524
351.63272
347.88684
348.31209
355.24615
354.56934
356.45412
357.39337
356.82942
371.9329
386.95563
380.02568
372.15749
369.4971
373.47676
381.19092
364.08352
368.58061
365.58295
366.64868
369.82598
372.00146
371.74091
379.42703
378.98299
403.49831
391.37499
368.52879
362.13215
364.14563
362.8556
364.73183
366.01595
365.38591
366.1574
369.44541
391.57075
407.36759
357.99976
359.84718
358.64082
358.81237
359.99843
358.69678
359.38031
361.11104
360.36975
375.76267
370.31598
369.1544
377.17931
394.64616
389.19917
405.32682
405.57195
370.11293
365.56314
362.52312
360.55054
354.36806
353.57548
355.10984
354.46098
354.5787
354.61198
355.35351
353.29886
354.18813
362.00435
358.37297
369.42192
380.10666
363.46791
349.42163
349.97018
350.75152
351.01217
351.20562
350.55901
350.04981
350.63601
350.16842
348.02757
348.61201
350.05309
350.58139
348.54432
349.26601
348.62307
346.60484
347.09597
349.11074
354.26391
352.82644
346.42456
351.84225
345.6556
347.06219
354.82767
346.40728
352.34327
350.66894
351.86506
353.43409
357.46812
360.27532
351.52728
368.20486
359.84781
349.33745
355.77324
361.37952
354.79405
359.26937
355.20146
355.4687
360.03171
365.74667
371.06079
372.09885
368.89752
380.04781
377.64922
373.20666
375.20011
388.32254
390.28974
414.90477
422.64166
400.16937
400.53676
366.59493
361.00484
358.30651
358.67373
357.15925
356.02498
352.44971
352.17245
352.86103
351.9959
352.33139
350.12282
350.28886
349.9794
349.81546
352.95259
353.88386
353.32306
352.43419
355.57904
354.36151
355.33324
354.04017
364.09643
357.70463
356.98688
357.84363
357.96852
357.08779
355.37487
352.66317
352.88774
351.99517
352.24982
352.33209
352.12091
349.79894
349.9626
350.20958
350.06908
351.23194
351.23771
351.80995
351.67088
351.6571
351.79171
352.66737
392.89915
379.37738
394.83688
386.98742
388.18502
396.12673
367.81088
374.19086
373.52776
380.27539
380.79294
391.47386
400.2406
398.50857
389.76909
363.23327
366.88348
366.85208
370.00285
370.15934
383.15296
376.48105
376.34634
383.85186
426.859
428.59167
453.4295
453.35053
361.41431
363.08952
363.42606
364.85414
365.11342
368.95214
372.6518
371.85095
368.68071
390.17363
388.60813
399.17173
406.73672
485.14269
527.76182
494.34063
451.52387
359.84141
360.70763
360.84105
361.79895
361.99941
365.40088
365.09479
366.93051
367.21184
377.7171
386.1035
384.25545
376.96287
402.6154
403.73401
417.7552
425.95246
358.97177
359.36786
359.29049
360.14953
360.12018
361.92329
362.18728
363.16324
363.40641
369.18938
373.03034
370.94217
367.97152
383.00265
385.70651
390.15739
378.36438
358.30075
358.82361
358.31915
358.13151
358.70842
359.96449
359.2628
358.69545
359.45689
361.82379
363.16007
363.30085
365.01771
367.4283
371.20782
368.3746
365.04291
356.56865
356.15811
356.52661
356.22537
355.90734
356.28555
355.88642
354.01997
354.45941
357.04715
358.65914
359.74172
358.04874
360.36785
358.55636
359.97295
362.00029
353.56117
353.05809
352.81191
353.0764
353.32067
351.75043
352.04247
351.20953
350.99831
352.96299
353.53224
353.24066
352.53107
354.29742
353.40598
353.27254
354.02224
350.20464
348.34366
349.31097
349.62506
349.78196
348.87368
348.61055
348.67726
349.47767
347.39251
347.54707
345.36428
346.91165
345.25238
346.6283
345.81037
348.33417
348.50197
345.99811
348.85148
343.53718
346.29108
343.52336
348.18278
349.26232
347.12561
343.64831
343.70701
346.72181
348.47615
346.53923
348.99111
344.97428
344.67875
346.99817
344.94642
347.3172
345.16483
344.99346
345.1728
349.55206
346.9048
348.95844
348.28782
346.38178
348.98534
349.30989
346.63631
346.37795
345.39749
347.97368
348.157
345.37424
352.82424
352.28153
354.17601
355.66713
355.7187
372.33078
385.97119
369.0282
373.24131
372.50345
380.31303
380.9932
378.93125
371.76236
368.49446
365.84581
364.60729
366.67791
369.62203
372.38835
379.90497
361.54083
363.0919
362.43731
364.17396
364.97122
368.20666
365.07378
366.13256
369.45705
389.94344
390.25991
399.93311
402.13514
412.38938
395.3055
378.15949
361.8356
360.66796
360.53087
361.63984
362.87632
362.23596
361.66051
363.38585
364.09609
373.03624
369.15351
376.52851
396.3859
417.63578
357.01737
357.27542
357.10256
357.90514
358.07534
358.10965
357.06508
356.36215
357.4687
360.5406
364.10172
366.71444
363.16139
377.53841
370.14734
369.13203
379.77771
362.52559
360.42922
358.80195
357.36244
352.92108
352.38102
354.12329
353.67488
354.07044
353.70647
354.23377
352.00726
352.58859
355.34791
356.41964
363.11984
358.46815
345.92399
347.88615
349.39201
347.23688
349.86168
349.27383
350.54928
350.63345
350.23137
350.09897
348.93695
349.41642
349.77497
349.61836
347.64215
348.38872
346.27522
348.26744
347.98296
345.62186
349.27879
344.84103
351.47701
352.13324
346.00793
350.19039
345.16023
350.71405
349.04733
349.74763
351.57001
354.33753
352.55961
346.84068
349.30393
351.89032
349.63687
347.9224
352.25018
355.94004
352.72367
351.90872
350.72972
352.54117
353.33694
364.8434
364.40409
363.92957
364.32185
357.55449
359.4658
358.75331
357.71186
373.35939
376.77948
379.30457
389.24439
383.45712
383.25571
394.66057
398.17633
411.19764
409.23528
365.89729
359.32956
360.08352
358.20659
358.84423
357.37544
356.27428
349.75329
349.54213
352.15925
352.78508
351.95676
351.99865
351.77775
349.31389
349.5719
351.63992
352.13257
351.4372
351.08996
352.48766
353.43986
352.99149
352.10666
364.00436
357.63295
356.97734
356.98399
358.04913
358.21731
357.35508
355.63596
352.90412
351.94861
351.88136
352.14467
352.05598
349.64334
349.80853
349.64682
349.54458
350.39065
350.595
350.93341
350.783
350.70785
350.68686
351.20812
351.13185
393.35385
378.77494
387.52851
386.46368
394.40966
395.81109
367.94905
373.69864
380.3111
381.29844
374.68327
397.61348
391.19498
392.30962
399.97958
363.57575
366.70001
367.09697
370.24677
369.72909
376.42921
376.41012
382.63101
383.08997
433.60732
441.98157
441.9837
427.03174
361.28964
363.09411
363.11447
364.84801
364.8231
369.10386
369.26265
373.05494
372.65488
408.17378
392.09782
391.58688
408.74369
491.18042
459.09265
517.47558
529.41483
360.09368
361.09911
360.89144
361.94846
362.19954
365.15698
365.27735
366.99259
367.07373
377.44699
381.99412
380.62468
375.83746
394.28167
392.77683
406.19239
432.89074
358.91256
359.24796
360.05972
359.96446
359.18577
362.71077
362.9428
363.83099
364.0878
369.08348
369.42844
371.85375
371.96264
380.68624
390.3013
388.30069
379.71925
358.39745
358.92148
358.41972
358.22133
358.80907
360.47887
360.18169
360.9647
361.27214
364.26491
365.18693
365.76116
366.85007
370.63507
375.20839
372.02733
368.94431
357.98896
357.51389
357.67387
358.04911
357.89298
358.76805
358.36704
357.70854
358.1579
361.86955
360.67197
359.8399
360.81363
361.28191
362.98213
362.70584
364.88205
356.45143
355.80682
356.05636
355.86369
355.63617
355.24658
355.55322
353.72124
353.49308
357.83275
357.11399
355.56875
356.25743
356.51428
358.25927
359.23521
357.50114
353.5341
352.85085
353.03042
352.81579
352.63552
351.37353
350.63735
350.81863
351.55
352.14172
352.56538
351.9497
351.56534
352.41236
352.92037
352.63593
351.96721
350.23916
349.4073
349.32227
349.58811
349.67748
348.79651
348.57137
348.25115
348.52831
345.07806
346.43126
347.23368
348.16782
348.24295
345.73728
346.69244
345.67132
345.18752
347.31967
347.70501
347.99614
343.48144
345.95008
343.47022
343.47192
345.67887
343.42639
346.25053
348.48583
348.71776
346.45224
348.39521
344.30676
344.51521
345.86807
344.39168
347.63054
348.73354
346.46668
344.68956
344.47372
344.74408
346.06099
347.95935
346.04283
344.49025
346.53452
346.79651
344.454
344.84477
347.09603
347.29155
344.79866
350.36957
350.81972
350.96656
349.05026
349.75947
349.02377
355.44655
354.93659
372.59374
385.84113
379.51037
371.50151
368.03842
372.36453
380.17255
364.11948
368.50317
365.72601
366.56768
369.33708
373.41534
373.04484
380.57545
381.07382
399.37828
389.59285
368.67645
365.45574
364.61974
363.17744
362.29045
363.3785
365.14261
365.88536
369.22747
387.6909
398.19693
361.43504
360.29692
359.93193
360.61809
361.89206
362.36567
361.71256
363.37805
364.19363
379.38904
372.37705
369.7597
376.26537
392.61553
393.46108
407.94377
408.83829
379.07543
360.36066
359.352
360.05654
359.29403
359.56662
360.00038
360.82792
359.65093
360.85028
363.64355
367.36029
370.07816
365.7735
372.26372
368.17145
376.98569
356.68777
356.18262
356.42099
356.24205
356.81677
354.71069
355.35662
356.15197
355.47712
361.88247
360.04874
357.12719
358.62249
359.42253
363.45585
366.08492
362.60514
358.67702
357.18039
356.15632
355.14241
351.92966
351.56877
353.50078
353.80172
353.18071
353.16215
353.52457
351.12907
351.51516
353.91241
354.62075
354.86907
356.22466
344.32617
345.7213
347.72956
344.9974
347.77915
348.01546
346.99739
350.17548
349.0091
350.43543
349.04658
349.88319
350.1281
349.41923
349.01128
348.66739
349.75752
349.5207
348.81376
347.7533
345.50121
347.41467
346.7762
347.53723
350.8885
345.32283
348.54722
344.60627
348.28197
350.04409
349.40716
345.66826
346.55748
348.61159
346.31383
350.87546
351.57972
346.20658
347.66185
349.81276
347.76114
350.28418
348.77524
349.52735
351.14937
351.26315
351.78997
349.83663
350.64297
354.6918
354.33866
353.73147
354.69927
370.71866
368.58038
370.65816
362.43517
361.00062
364.38447
376.72917
378.25733
388.80948
384.55076
395.67116
410.84065
366.06282
358.48575
358.33193
360.04614
358.32089
359.08973
357.62891
356.54368
350.88364
349.39925
350.43915
352.00689
352.80486
351.84069
351.66719
351.8795
349.25844
349.16254
349.03552
350.33779
350.71447
351.28993
351.68575
350.93561
350.69702
364.6763
357.43716
356.93098
357.00296
357.15946
358.3129
358.5008
357.64115
355.91159
353.00528
351.99653
351.89642
351.88349
352.03781
349.40428
349.49398
349.48992
349.58313
350.14635
350.3995
350.12084
349.85187
349.95196
350.13495
350.46104
350.27698
393.86323
378.74228
387.70399
396.18974
395.51986
387.14175
367.28148
373.54008
380.36321
379.84763
373.37717
389.0631
387.85531
396.95279
403.71088
363.62599
366.98057
367.31225
370.58176
369.9515
377.22387
383.11428
383.94368
377.04501
445.83493
428.08747
429.07163
446.73537
361.76993
364.87725
363.46022
365.10754
363.35207
369.19812
369.14515
372.8795
372.63013
392.52273
390.12833
403.75272
407.81612
487.5782
535.79404
513.99574
473.41609
360.00031
360.92071
360.81942
361.9543
361.91399
365.19286
365.3022
367.08609
367.0243
377.85883
378.58043
383.3035
382.78399
435.427
398.86888
396.28818
434.7666
359.23573
359.55044
360.33094
360.23072
359.57359
362.91122
362.84047
363.91849
364.02568
369.47738
369.36215
372.08641
372.72438
379.46361
385.90699
383.7216
377.4041
358.35314
358.25721
358.16196
358.73045
358.7982
361.35207
362.08641
361.8787
361.26384
366.70823
366.32272
367.90247
367.64326
371.81091
371.86616
374.12816
374.66999
358.08401
357.58381
357.77509
358.151
357.97534
359.93707
359.55145
359.16638
359.6323
362.99997
362.07214
363.11264
363.93938
365.25225
366.80405
366.8045
368.41946
357.85628
357.17694
357.27084
357.54451
357.42664
357.11139
357.73735
358.04134
357.39087
359.73584
359.07219
358.51501
359.14602
361.80611
360.76916
359.47696
360.34681
356.45582
355.65981
355.8225
355.69186
355.48083
354.88216
355.05375
353.32509
353.17528
356.34094
356.70183
355.03283
354.55163
357.56936
356.87974
355.13219
355.77389
353.59913
352.77263
352.54928
352.70695
352.89637
351.21453
351.29353
350.56625
350.54337
351.67694
351.06664
351.3264
351.93024
351.73344
352.10267
351.40013
351.02719
350.35683
349.39111
349.63702
349.45924
348.4788
348.26985
348.57001
348.78592
349.68338
347.22349
347.23863
348.13575
348.15884
345.66649
346.5521
345.64912
346.36422
345.00622
345.06729
343.44433
345.49601
343.35672
347.36711
348.22268
348.39874
343.40311
345.99025
343.47786
345.78636
345.52499
347.54383
347.18655
347.4585
344.26004
344.19056
345.56901
344.13872
344.27843
343.91939
345.31405
343.97398
345.68619
348.08551
348.28006
345.83206
345.62118
345.86895
344.07944
343.93546
344.19686
346.06433
346.34298
344.26238
347.11991
349.28459
347.46123
347.89077
349.3475
348.03223
355.21543
354.56657
373.35646
385.63354
367.9195
372.08379
371.43718
379.30891
379.99626
379.74885
371.68718
367.43223
363.06846
364.61598
365.61994
368.41735
372.38183
380.1141
361.90157
363.46225
362.94188
364.41151
365.04525
369.33908
366.0862
366.8105
370.09692
390.00371
389.66933
402.86058
401.93239
406.94354
392.04491
378.84287
372.33339
363.79333
362.27937
362.2679
361.23888
360.77149
361.01424
362.2869
362.64682
364.21962
371.2618
378.07616
390.1332
406.8034
360.31899
359.24173
359.60799
358.94722
358.78109
359.11672
359.90316
359.64294
360.87746
364.75948
366.13701
368.55179
366.85886
380.9008
372.15075
368.5704
376.36412
365.16703
363.35688
358.51587
357.83172
358.95315
358.42804
359.00236
358.95082
359.51501
357.82846
358.66034
360.35939
361.84932
362.09952
366.87472
369.49154
364.24249
354.73932
354.26455
355.96247
356.07951
355.61391
355.562
355.98513
353.55998
354.09453
355.18445
357.63243
358.7773
356.09277
361.28744
359.35512
356.0182
357.45746
355.99039
354.93935
354.31983
351.2771
353.60273
353.11768
352.89228
353.69411
353.11427
352.89045
351.03715
350.56331
350.83507
352.69955
353.3362
353.41244
354.12889
345.01373
344.99498
344.14384
347.22262
347.38983
344.81266
345.60556
347.37877
347.47398
349.71052
349.71648
350.37615
348.84824
349.70457
349.86647
349.13731
348.81164
348.53882
349.39515
349.58103
346.45815
347.0835
348.48801
348.64716
346.64147
347.39095
345.4014
345.27729
347.42098
347.32192
349.22665
348.94175
346.81571
344.01044
344.70515
347.03993
348.50702
350.36903
345.30992
345.96466
347.83724
345.51626
347.96829
349.66595
348.97928
347.35038
347.896
346.22225
346.07978
349.55354
348.87602
347.65725
348.06461
353.17388
351.76042
354.11567
358.29702
355.45591
357.77952
369.62599
368.75684
361.43021
361.13394
373.49931
384.52439
365.63456
358.61481
357.49869
358.23967
360.2361
358.51808
359.37524
357.90398
356.82809
350.38212
350.0467
349.92527
349.18133
352.90361
351.97369
351.86521
351.64082
351.79267
349.00441
348.98198
349.11141
349.73597
350.06738
349.7943
349.98363
350.34248
363.8807
358.17976
356.71203
356.97796
357.19627
357.39847
358.61181
358.8028
357.93989
356.19921
351.95949
353.17521
351.90081
352.0544
352.02377
349.5037
349.52982
349.36128
349.39518
349.65287
349.79479
349.7308
349.96081
349.71578
349.95809
349.75576
349.52036
393.50675
379.40887
396.88757
388.59198
388.60464
396.96189
367.17249
373.57571
373.22364
379.92744
380.53111
392.10086
415.07166
404.3725
390.88414
362.94084
366.41629
369.5971
369.45408
366.3003
374.50209
380.58283
380.44791
374.81557
443.66284
430.36756
448.56661
495.41062
361.74838
365.0429
363.46267
363.56883
365.26445
368.96662
369.324
373.21545
372.48604
401.28399
411.33807
411.46176
396.44003
520.48111
476.99812
481.16099
558.76012
360.57296
361.36744
362.35521
362.29374
361.33306
367.35384
365.42036
367.16994
365.70288
378.39253
379.13968
385.62508
384.47072
398.82838
395.354
429.50008
432.10594
359.15966
359.4464
360.13669
360.19663
359.47381
362.98823
362.85875
364.08565
363.96383
370.46003
370.10403
373.42391
374.12826
380.00023
381.48655
387.38409
386.26535
358.69794
358.58214
359.1081
359.14494
358.65293
361.27244
362.04239
362.0145
361.34477
365.74125
366.12358
367.6279
367.34342
370.95005
370.81938
373.38236
374.2299
358.05179
357.51337
357.67464
358.02321
357.9177
360.31241
360.34953
360.76995
360.79502
364.53526
365.34666
365.77226
364.98687
369.99978
369.56395
370.77355
370.63624
357.95768
357.23661
357.37238
357.64575
357.49732
358.54078
358.9311
359.23061
358.82985
362.25487
361.59773
360.76039
361.34358
365.08903
363.23038
364.16814
365.75487
357.8521
357.06727
357.18689
357.25901
357.02795
356.76637
357.34546
357.52886
356.9346
357.85939
358.42562
358.7051
358.16806
360.06805
359.56572
358.37801
358.92654
356.54915
355.76763
355.67599
355.43174
355.57777
353.11861
354.80681
354.76833
353.08283
355.73521
356.05762
354.18278
353.90978
356.16968
356.49334
354.68869
354.23667
353.73547
352.79311
352.56072
352.67815
352.87854
351.20058
350.52052
350.54561
351.21209
351.39882
351.55493
350.87748
350.69397
351.36574
350.63351
350.82297
351.57214
350.54486
349.76853
348.64236
348.83225
349.77537
348.55176
349.55441
349.54666
348.36508
347.2468
348.18673
347.25909
345.03038
346.51034
345.03185
346.35951
345.66171
345.68638
348.16946
347.30319
347.21546
348.11026
348.1934
343.37337
345.61413
343.46171
345.5335
343.40817
343.48685
345.35693
345.43949
344.27414
343.73841
345.06819
343.73327
346.90482
347.90148
348.0322
343.84144
344.30138
345.48302
343.77635
345.3376
345.15298
347.0396
345.4675
345.33845
343.76531
343.71803
345.17782
345.19212
343.48797
343.56278
346.06098
348.40288
346.40049
346.5199
348.9395
346.9061
354.81433
355.41389
373.84998
386.52299
378.72617
370.71462
367.78386
372.05435
379.86024
362.89313
367.39477
364.56929
365.32977
368.15503
372.59639
371.77596
379.07601
380.76942
397.72608