/*--------------------------------*- C++ -*----------------------------------*\
  =========                 |
  \\      /  F ield         | OpenFOAM: The Open Source CFD Toolbox
   \\    /   O peration     | Website:  https://openfoam.org
    \\  /    A nd           | Version:  7
     \\/     M anipulation  |
\*---------------------------------------------------------------------------*/
FoamFile
{
    version     2.0;
    format      ascii;
    class       surfaceScalarField;
    location    "10000";
    object      phi;
}
// * * * * * * * * * * * * * * * * * * * * * * * * * * * * * * * * * * * * * //

dimensions      [0 3 -1 0 0 0 0];

internalField   nonuniform List<scalar> 
99977
(
2.2603413e+54
-1.3806727e+56
-5.1621706e+54
6.4701311e+54
6.3345915e+54
-5.6069285e+54
-2.0015841e+54
-1.5638966e+52
-1.2579633e+56
-4.1021596e+54
-5.7722155e+54
5.1112409e+54
3.4291372e+54
6.179034e+54
-5.0019105e+54
-3.8717744e+54
3.8821308e+54
-1.6709949e+52
-1.7834788e+52
-7.4522169e+52
-1.4868394e+54
-1.2966633e+54
-1.3625011e+56
-5.887094e+54
-5.9868531e+54
5.6188839e+54
5.4908818e+54
4.8849578e+54
-1.3868001e+56
6.5414676e+54
-5.412379e+54
-6.3727457e+54
6.0027429e+54
-3.1064547e+54
-4.4772369e+53
-1.3582642e+56
-5.3654663e+54
6.195043e+54
6.3130691e+54
-5.8448514e+54
1.9741174e+55
-2.0808084e+52
5.3502445e+53
-2.5502464e+55
8.4916855e+52
-3.5665709e+53
7.6420202e+53
4.9473654e+53
-2.057191e+55
5.5930991e+53
-2.6492426e+55
2.3123515e+53
-1.6597789e+54
-6.8184164e+53
-1.2460329e+56
5.2065426e+54
-5.5692731e+54
-3.8056021e+54
3.7271578e+54
5.8624406e+54
-4.929742e+54
-3.4973283e+54
4.1544392e+54
-3.2830134e+53
1.7059177e+55
-1.9781925e+55
-8.3385561e+52
-9.6771042e+53
1.8409476e+55
-6.1461608e+53
-2.3716873e+55
-1.7848535e+53
1.6767727e+53
-4.3121029e+53
-1.4318564e+53
-3.5119063e+53
1.426147e+54
-1.8626237e+55
-5.6566336e+53
4.0387985e+53
3.3645841e+53
-2.1187627e+53
7.186551e+52
-2.3573937e+55
8.580768e+52
1.7399452e+55
-2.018543e+55
-1.4023072e+54
1.046433e+53
8.9309534e+53
-3.7927781e+52
-2.0767216e+52
-2.289683e+52
-8.8170742e+52
-2.2869191e+52
-1.9005244e+52
-8.633327e+52
-1.062191e+52
-1.234004e+52
-7.3124749e+52
-1.0602135e+54
-1.8605656e+54
-1.3696749e+56
-5.8814432e+54
-6.0801753e+54
5.8663971e+54
5.9423581e+54
-2.0740639e+54
-5.7167939e+54
-1.4489225e+56
-1.0097127e+54
-1.1834272e+54
-1.3488336e+56
-5.8736452e+54
-6.1378047e+54
5.6080991e+54
5.5700101e+54
-4.0761106e+53
1.9455514e+55
-2.5382761e+55
-1.6683115e+53
1.99197e+55
-3.8183515e+53
-2.6024509e+55
9.2199031e+52
2.6504377e+53
-4.4638843e+53
2.6091405e+53
-1.9915848e+53
2.595614e+54
-1.4684838e+56
-6.0632777e+54
-5.0671713e+54
7.1002071e+54
6.3180644e+54
-3.4841174e+54
-1.6048791e+54
-1.3511791e+56
-5.2733002e+54
6.3725723e+54
6.0348638e+54
-6.0549507e+54
-2.0079573e+55
-7.7674842e+53
6.823417e+53
4.8288742e+53
-4.3176407e+53
6.907811e+53
-2.5779096e+55
2.8137108e+52
2.086095e+55
-2.6974451e+55
-1.5597957e+53
3.558789e+53
-1.8558225e+54
-1.3715588e+54
-1.3419421e+56
-5.5327666e+54
6.0365533e+54
6.256915e+54
-5.8472723e+54
1.9915921e+55
-1.8859649e+53
5.8153441e+53
-2.5969067e+55
2.9475649e+53
3.7481433e+53
-2.050027e+55
2.3195915e+53
7.3500773e+53
3.663376e+53
-2.6544556e+55
8.2708588e+52
1.834084e+55
1.370081e+53
2.7926517e+53
-1.8488065e+55
-1.8411708e+53
3.904443e+52
3.8068607e+53
-2.7736445e+53
-2.0235139e+55
1.4578193e+53
-1.9790566e+55
-8.8263996e+52
-1.2694922e+54
-1.3527695e+54
-1.2357643e+56
-5.092331e+54
5.8596572e+54
4.204183e+54
-3.7186128e+54
-3.7339705e+54
-5.4953391e+54
5.4192343e+54
4.1526222e+54
-1.835839e+55
5.0823379e+52
-3.0587531e+53
1.0312677e+53
3.9362461e+53
-4.4392659e+53
-2.396203e+55
8.4666624e+52
1.7977346e+55
-2.0934977e+55
3.3091177e+53
-7.8524846e+53
2.5937538e+53
1.7140322e+54
-1.8112498e+55
-4.020007e+53
4.9799008e+53
3.0502327e+53
1.4445273e+53
1.504642e+53
-2.368017e+55
3.4301525e+53
1.8085286e+55
-2.0637206e+55
-1.2639923e+54
4.630529e+53
1.2621081e+54
3.9019356e+53
-2.5350566e+53
1.6219162e+55
-1.7065033e+55
6.367304e+53
3.7927353e+53
1.9159961e+55
-2.2479151e+55
3.7539466e+53
5.7379226e+53
1.7190383e+55
-3.2562816e+53
-1.7476796e+55
1.8006728e+53
2.0121574e+53
-3.2377018e+53
-1.1641473e+52
4.9561481e+53
1.0489613e+53
-5.0802857e+52
2.1547733e+53
-1.6841565e+55
-4.9316414e+53
8.0879211e+52
-3.3311489e+53
-3.3349589e+53
1.4736828e+53
-1.6599737e+55
3.0113358e+52
1.6204045e+55
-1.7097818e+55
2.6047589e+53
4.0445474e+53
-3.2834081e+52
-3.7262486e+52
-3.6290101e+53
-5.8700598e+52
-8.9973545e+53
-3.1223482e+52
-2.8702566e+52
-9.9328075e+52
-1.5601936e+52
-1.6912718e+52
-8.0688096e+52
-4.1728348e+53
-4.2828596e+52
-9.1139401e+53
-1.648106e+52
-1.177253e+52
-8.2467081e+52
-5.4873632e+51
-8.3943532e+51
-7.4533949e+52
-1.7508657e+54
5.296173e+54
-1.2519309e+56
-5.6612643e+54
-4.1571443e+54
3.3681601e+54
-5.3569755e+54
-3.9575381e+54
3.6860819e+54
5.3455951e+54
-9.1515735e+53
-7.3023642e+54
-1.4494423e+56
-2.4424825e+53
-1.8389842e+54
5.8427349e+54
-6.0221519e+54
-1.353446e+56
-6.1414736e+54
5.7715658e+54
-1.5109718e+53
2.0139506e+55
-2.6287851e+55
3.6179995e+52
2.0614214e+55
-1.7600685e+53
-2.6676107e+55
6.642374e+51
4.2530343e+53
-4.1386384e+53
1.7465902e+53
3.0201564e+53
-2.7239042e+54
-1.4234885e+56
-1.477493e+54
-3.3294561e+54
-1.4312447e+56
-6.4051715e+53
-1.4189642e+54
-1.3365233e+56
-6.0888574e+54
5.7380043e+54
-5.7926265e+54
5.7024799e+54
-3.6010507e+53
1.992332e+55
-2.5891382e+55
1.0604631e+52
2.0466541e+55
-2.6990802e+53
-2.6589893e+55
-1.0464148e+53
2.633719e+53
-3.3806625e+53
1.2483865e+53
6.8070205e+52
-2.9908621e+53
1.7961024e+55
-1.8250066e+55
9.568628e+52
1.8700064e+55
-2.8391711e+53
-1.8985048e+55
3.6203363e+53
2.2929699e+53
-2.3157053e+53
5.4722225e+53
-7.2116255e+51
2.4169966e+54
-1.4773602e+56
6.8149152e+54
7.5486372e+54
-5.0851397e+54
-6.0057022e+54
-1.5542082e+54
-1.3152199e+56
-5.1495982e+54
-4.4359643e+54
7.9511082e+54
7.3043875e+54
8.3182561e+53
2.0842971e+55
-2.7266076e+55
2.1879817e+53
2.1032527e+55
1.3388379e+54
-2.7101347e+55
4.9464911e+53
-8.7890388e+53
1.3732682e+54
7.6227898e+53
3.7802633e+53
-3.1139102e+54
-2.8326031e+54
-1.3224549e+56
-5.105702e+54
6.2443279e+54
6.1175651e+54
-5.5535706e+54
1.9833754e+55
-4.2435802e+53
5.0715837e+53
-2.5645949e+55
4.5611054e+53
-5.3727556e+53
6.367548e+53
3.2775805e+53
-2.0847597e+55
1.0574599e+53
-2.6900006e+55
1.5464261e+53
-1.8350517e+55
-6.6113841e+53
3.7849262e+53
-4.3813151e+53
-4.4937087e+53
5.845876e+53
-1.8253231e+55
-2.0435292e+53
1.983079e+55
-1.9789891e+55
-3.6697621e+53
-2.7144383e+53
-1.319149e+54
-2.4368828e+54
-5.7133127e+54
-1.327397e+56
6.0689085e+54
6.2888207e+54
-5.6956075e+54
2.0565845e+55
-9.8882377e+52
5.1385957e+53
-2.6759284e+55
2.4571006e+53
4.464543e+53
-2.0698602e+55
2.4214144e+53
8.0780357e+53
4.9235152e+53
-2.6640885e+55
1.4659637e+53
1.883327e+55
-1.4440803e+53
3.7797905e+53
-1.9275538e+55
5.0346274e+53
-3.7120999e+52
-1.9458577e+55
1.7975466e+52
2.5684553e+53
4.1757955e+53
-1.9606709e+55
2.3380457e+53
1.5398678e+54
1.8158166e+52
4.7243901e+51
-1.8439516e+54
9.7116724e+52
6.3651035e+51
2.9598429e+52
7.7423145e+52
-1.338894e+54
8.5500299e+52
-1.4828893e+54
7.4793105e+52
-8.1824155e+53
-1.3841892e+54
-1.2250835e+56
-5.277453e+54
-5.602087e+54
5.5365124e+54
4.0177152e+54
-3.7817615e+54
-3.6552275e+54
4.1572742e+54
5.7394274e+54
1.8634292e+55
7.759147e+52
3.0472628e+51
-2.4092378e+55
2.8512373e+53
-1.7719693e+53
3.9065328e+53
6.0033324e+53
-1.8230759e+55
3.3472543e+53
1.2858188e+54
-2.0806913e+55
1.5274723e+53
-1.2176066e+54
-4.1024352e+53
1.8495329e+55
-2.0749615e+55
-1.1673971e+54
9.7963793e+52
1.8834718e+55
-3.7207085e+53
-2.4441752e+55
7.3523125e+52
1.6118814e+53
-1.7109126e+53
3.0182836e+53
1.6539606e+54
2.2020478e+53
-1.7754731e+55
4.4780618e+53
-4.0117281e+53
3.3443943e+53
3.8950633e+53
-4.3054864e+53
-1.792739e+55
2.9837499e+53
1.7339016e+55
-1.7197174e+55
2.6532787e+53
3.1325084e+53
2.0425402e+55
-2.302601e+55
2.1963174e+53
3.3175038e+53
5.2829027e+53
4.5287706e+53
3.8340058e+53
5.3899859e+53
-1.7048037e+55
6.1783389e+52
1.7910187e+53
5.1244407e+53
1.6507802e+53
1.19839e+53
-1.7583822e+55
5.9389061e+53
1.7390769e+55
-1.7035989e+55
-1.2421725e+53
3.9757781e+53
2.3331907e+53
5.1161373e+53
1.6308002e+55
-1.6381839e+55
6.7850877e+53
4.0746198e+53
-2.8711796e+52
1.6018206e+54
-1.5160558e+54
5.7181859e+52
2.6504324e+53
1.6266549e+55
-1.6359987e+55
4.9184134e+53
4.3587264e+53
1.6028531e+54
-2.5461485e+52
-1.5372522e+54
1.1125147e+53
2.2713082e+52
-1.9584686e+52
6.6315019e+52
8.3356685e+53
2.7365065e+53
5.2991965e+52
1.0350103e+53
5.865074e+53
3.2503727e+53
-1.5925037e+54
-1.7040259e+52
1.6337521e+52
-5.0229288e+51
7.1644287e+50
4.9869843e+51
-1.7396406e+54
1.7156195e+53
1.7070518e+54
-1.6007691e+54
3.2106443e+52
2.6679857e+53
2.5166452e+52
1.6079437e+53
-5.2513111e+53
-7.019612e+52
-9.4300718e+53
-1.5503269e+53
-4.3222276e+52
-1.2353161e+54
-2.44883e+53
-4.2873162e+52
-8.5289317e+53
-5.8759068e+53
-5.3187733e+52
-9.4262971e+53
-2.5882113e+52
-2.1420122e+52
-8.5419062e+52
-1.0493127e+52
-1.0190613e+52
-7.5649945e+52
-1.8639777e+53
-1.1979537e+52
-1.1887766e+54
-3.4043486e+53
-3.0654339e+52
-8.399903e+53
-9.1089386e+51
-8.2659204e+51
-8.0606809e+52
-5.6912284e+51
-8.6094859e+51
-7.3775805e+52
-5.8761747e+54
6.1881935e+54
-5.8721603e+54
-1.3477845e+56
-6.2829729e+54
5.4624265e+54
-1.8157519e+55
-2.7195421e+53
2.4743517e+53
-7.0543824e+52
-2.3089215e+54
-5.3305129e+54
-1.2450266e+56
-3.5547547e+54
3.8863245e+54
5.5676218e+54
4.0896044e+54
-3.4529099e+54
-5.2150366e+54
5.3839423e+54
1.8797249e+53
5.7700976e+50
-2.3752692e+55
-2.5462116e+53
1.6898996e+55
-1.9691496e+55
-9.7933494e+52
-1.0787171e+54
-4.3383461e+53
1.2575739e+54
1.1957671e+53
1.7527266e+55
-2.2984311e+55
-1.9549532e+53
1.7543418e+55
-2.0209125e+55
-1.2224106e+54
5.0174504e+52
3.8413443e+53
1.2049863e+54
-1.2433258e+53
-8.047016e+52
-2.819601e+53
-1.4096274e+56
-9.0788795e+53
-4.732457e+54
-1.4262031e+56
-2.0829932e+55
1.6766583e+53
-2.7905711e+53
1.0796465e+53
-4.7794018e+52
5.8157813e+52
4.0449942e+52
-2.690289e+55
6.5180294e+52
-1.9572746e+54
6.0147135e+54
-1.3429163e+56
-5.7873258e+54
-6.0383747e+54
6.0096195e+54
2.0764847e+55
-2.7166697e+55
-5.7317837e+52
7.8165543e+52
-2.2208845e+53
1.9431688e+55
-1.9639572e+55
1.8225181e+53
1.9959033e+55
-3.0468131e+53
-1.9870609e+55
8.299007e+50
3.6620798e+53
-3.6861688e+53
2.0740656e+52
2.3730532e+53
-2.1734832e+54
-7.351531e+54
-1.3926716e+56
-1.1148277e+54
-3.0445535e+54
-1.4170315e+56
-5.7395285e+53
-1.3908641e+54
-5.8197804e+54
-1.3294515e+56
-5.7377943e+54
5.864938e+54
6.1320553e+54
2.0952111e+55
2.9824428e+53
-9.5368713e+52
-2.7269653e+55
2.5809206e+52
2.0415554e+53
-1.9811426e+53
9.4183853e+52
2.0312632e+55
-2.6224712e+55
4.5629766e+52
1.5679615e+53
-4.3388182e+53
1.8421637e+55
-1.8640637e+55
2.3294936e+53
1.9115779e+55
-2.2829648e+53
-1.9401679e+55
-2.4312599e+52
3.8304159e+53
-2.7804673e+53
1.5058541e+53
2.2151442e+53
-2.1480473e+52
1.6027273e+54
-1.4911598e+54
-1.9824673e+52
1.2172022e+54
-2.4147278e+52
-1.2055194e+54
3.530584e+53
1.1650444e+52
-2.2828523e+52
4.6580732e+53
-4.1597115e+52
2.5471486e+54
-1.4976544e+56
-5.462785e+54
-6.3544672e+54
6.8228266e+54
7.6524759e+54
-6.262626e+53
-1.3146476e+56
-4.6561099e+54
8.0807934e+54
7.7829077e+54
-5.1335342e+54
1.0619574e+54
-2.2229536e+55
9.416269e+53
-2.1760143e+55
9.6600724e+53
1.327314e+54
-7.7870808e+53
8.2909086e+53
-2.7858922e+55
9.632683e+53
-2.852662e+55
8.515175e+53
-7.0543079e+54
-2.2024385e+54
-1.2802351e+56
-4.8653563e+54
6.5378364e+54
6.3783072e+54
-5.1250642e+54
4.9329814e+53
2.0856038e+55
-2.6796276e+55
8.0451642e+53
2.0352155e+55
7.0161292e+53
-2.5963357e+55
9.6693437e+53
-7.5789391e+53
1.0215735e+54
9.3824481e+53
7.7321359e+53
8.8669714e+53
1.9643119e+55
-2.0215378e+55
4.88962e+53
1.9844479e+55
1.2786376e+54
-1.9815304e+55
7.3547353e+52
-9.5051662e+53
1.4221408e+54
9.1167471e+52
-5.6744103e+52
-2.0643314e+54
-3.3396687e+54
-1.3066105e+56
-5.3868374e+54
6.25953e+54
6.0898408e+54
-5.579717e+54
2.0257985e+55
-1.7892252e+53
3.556389e+53
-2.602106e+55
4.806823e+53
-4.3731987e+53
5.9557968e+53
6.981194e+53
-2.0906659e+55
4.9470864e+53
-2.6473782e+55
3.4849496e+53
1.8575843e+55
-3.4072541e+53
4.8563099e+53
-1.8929328e+55
6.6470415e+53
-3.2322607e+53
5.2209916e+53
4.5150301e+53
-2.0066782e+55
3.1625937e+53
-2.0394628e+55
5.1974586e+53
-1.558465e+54
-5.2153073e+52
3.8473016e+52
-6.8023912e+52
-3.4225249e+52
4.1376295e+52
-1.8527306e+54
8.2792583e+52
1.5260333e+54
-1.9389796e+54
1.649382e+52
9.091875e+52
2.1165364e+55
1.0661104e+53
-3.2553356e+52
2.1976863e+53
-2.717249e+55
-8.6565882e+53
-2.3737199e+54
6.2869255e+54
-1.3148551e+56
5.8927985e+54
-5.7147903e+54
-5.8638608e+54
1.7872435e+53
-2.0671826e+55
3.1178376e+53
4.7647333e+53
3.9715565e+53
-2.6386084e+55
1.2831459e+53
1.9411356e+55
-5.9385071e+52
4.8272144e+53
-1.9687999e+55
9.9025844e+52
1.6553838e+53
-1.9697518e+55
3.4651751e+53
4.8720028e+53
3.0651044e+53
-1.9763811e+55
2.7334604e+53
1.6875449e+54
-1.4125039e+52
1.6413161e+52
-1.4666899e+54
2.8032931e+53
-1.1874052e+50
-1.6507528e+54
2.0231024e+53
2.4007995e+51
2.5866984e+53
-1.6671033e+54
2.4102877e+53
1.3697002e+54
1.6963029e+52
7.8487556e+51
-1.4378418e+54
1.3027775e+52
2.065834e+52
-1.4136074e+54
-1.4344068e+54
-6.0803386e+53
-1.2987973e+54
-1.218391e+56
-5.4189148e+54
-5.4223052e+54
5.6189741e+54
4.074715e+54
-3.8158416e+54
-3.6793109e+54
4.143527e+54
5.7367876e+54
3.0837807e+53
1.8772842e+55
-2.5421581e+53
-2.4229708e+55
1.2526253e+53
1.9180196e+55
3.7569145e+53
-2.1832783e+53
-2.4961715e+55
2.2078447e+52
1.3995465e+53
-5.0781494e+52
1.8578921e+53
-1.824254e+55
3.8242439e+52
1.6123567e+54
-2.0978919e+55
9.2992821e+52
-7.6268065e+53
1.8379562e+55
-2.0823376e+55
-1.0732903e+54
1.7026192e+53
9.7242592e+52
1.4879857e+54
1.4470329e+53
1.8392713e+53
3.3321372e+53
1.742009e+55
-1.6801355e+53
9.6357427e+52
-1.7180489e+55
1.1718806e+53
7.1321784e+51
4.027939e+52
3.8919421e+53
-1.6629282e+55
1.8976063e+53
-2.546058e+53
-2.0117765e+55
6.5395266e+52
-3.3850358e+52
-1.6653246e+55
-6.592393e+52
7.4631156e+52
-2.2683399e+55
1.417457e+53
3.8891868e+52
-2.1928129e+53
1.6798622e+55
-1.6516812e+55
-1.7046427e+52
5.2489253e+52
1.7760053e+55
-2.6471178e+53
-1.7774076e+55
1.3298342e+53
3.2382408e+53
-4.0649727e+53
2.1716813e+53
4.1684282e+52
1.0379793e+53
-1.4062966e+54
3.8661961e+52
-3.1288343e+52
1.961379e+53
3.3598091e+52
-3.4132441e+52
-1.3001451e+54
1.9277659e+53
1.6004332e+55
-1.5458102e+55
-1.8119911e+53
1.1994419e+53
1.3380989e+54
-1.1932239e+54
2.3762087e+52
1.7819357e+53
1.5943169e+55
-1.5467641e+55
-3.1976417e+53
5.1787621e+52
2.1927832e+53
3.1491211e+53
4.4841224e+52
2.6873936e+53
6.5891717e+52
2.8961398e+53
-1.5883533e+54
1.7373773e+52
1.5594092e+51
3.4223134e+53
1.3926184e+52
3.0886387e+49
-1.3547073e+54
3.4629714e+53
1.4048977e+54
-1.2195419e+54
-9.6997311e+51
2.3586105e+53
2.1261728e+52
3.1186594e+53
1.2456157e+55
3.3750603e+53
4.5204795e+53
-1.207535e+55
1.45419e+54
5.4102541e+52
2.0994334e+53
-1.2535735e+54
-2.3758483e+52
1.2740722e+54
5.0953189e+52
-1.2087105e+54
1.3932555e+54
3.8344972e+52
2.1951491e+53
-1.1831168e+54
1.2199196e+54
-2.4651103e+52
-1.2492723e+54
1.8675672e+52
-2.0293553e+52
-1.3959605e+54
-2.4814177e+52
1.7568079e+52
-8.147973e+51
1.1323952e+52
-1.3855155e+54
1.3388074e+54
2.6362978e+52
-1.290972e+54
-8.2216372e+53
-1.1583951e+54
-9.4391256e+52
-8.5582038e+51
-8.9180429e+53
-8.1409156e+53
-1.6994481e+52
-1.2627132e+52
-7.5096043e+52
-6.6476664e+51
-9.540756e+51
-7.3232582e+52
-1.1306651e+54
-1.5117555e+53
8.938434e+50
-8.7511411e+53
-8.104395e+51
-9.2385913e+51
-7.8747159e+52
-1.1119778e+52
-1.0625654e+52
-6.852555e+52
-1.6077695e+55
-1.3254314e+56
-6.0761207e+54
-5.7773086e+54
5.36309e+54
5.5420725e+54
-2.0762303e+55
-3.8532327e+53
2.9410291e+53
4.8749291e+53
-1.3205721e+53
9.0226083e+52
1.3384243e+53
-2.6726457e+55
-4.8340946e+54
6.0019102e+54
-5.8883216e+54
-1.3305808e+56
-5.8030937e+54
5.5864594e+54
1.9508798e+55
-2.5569519e+55
-3.5372179e+53
-1.9349786e+53
-1.6724223e+55
-1.2797725e+53
1.1504817e+53
-1.0025386e+53
3.1109849e+53
1.8680615e+55
2.5143365e+51
2.5160208e+53
-2.4576327e+55
-2.422241e+54
5.9171133e+54
-1.2367344e+56
-5.2859916e+54
4.0790685e+54
-3.6953364e+54
4.1188787e+54
-3.6875154e+54
-5.3927587e+54
5.6047794e+54
1.7665644e+55
-2.0242826e+55
3.9048846e+53
-1.0569505e+54
9.3431618e+52
3.0671426e+53
1.4603408e+54
3.9213715e+53
1.9684637e+53
-1.7938559e+55
2.7863751e+52
1.4391568e+54
3.5203343e+53
-4.0598626e+53
-2.0410353e+55
-9.6970307e+53
3.9458284e+53
1.8025455e+55
-2.3774573e+55
1.862632e+53
1.7389679e+53
2.5441425e+53
1.6371942e+53
-1.7603914e+55
2.069517e+53
1.6259583e+55
-1.7032854e+55
4.1976378e+53
5.1000288e+53
1.8913011e+55
-2.1997564e+55
3.4947462e+53
4.339699e+53
5.1305278e+53
2.9753343e+53
2.0550014e+53
4.5224208e+53
1.4311984e+53
1.6106577e+55
-1.705341e+55
3.0355468e+53
1.7096803e+55
-1.7689411e+55
3.213618e+53
4.6455669e+53
2.045635e+53
4.6345475e+53
2.2367056e+53
-3.7830864e+52
-8.701523e+53
-9.3129338e+54
-1.3768556e+56
-5.4335712e+53
-3.8439317e+54
-1.4130506e+56
-1.9969605e+55
7.1278306e+52
-4.266889e+52
1.7836542e+53
-7.4048803e+52
1.2038421e+53
2.5822395e+53
-2.0233702e+55
-2.0981494e+55
1.7003614e+52
-1.8846632e+53
2.6478594e+53
-2.4843012e+53
-1.5773593e+54
-1.3337094e+56
5.968786e+54
-5.9717572e+54
6.2805449e+54
-5.9463626e+54
-6.7434477e+52
2.9715927e+52
-2.6874333e+55
1.4323545e+53
2.152351e+55
-2.7833287e+55
1.0860303e+53
1.8532455e+53
1.9967784e+55
-2.0498177e+55
1.7073891e+53
1.9961408e+53
-2.2209809e+52
1.3380818e+54
-1.4274001e+54
2.6967502e+53
1.4248249e+54
-1.1422778e+52
-1.6095158e+54
1.7478113e+53
3.534746e+52
-2.6498918e+52
1.5581219e+53
2.3636497e+53
-4.1842859e+54
-6.1590501e+54
-1.3514722e+56
-1.5655545e+54
-4.0199983e+54
-1.387904e+56
-7.7430947e+53
-2.2831722e+54
-1.4090207e+56
7.6418952e+52
2.1386899e+55
-2.4128624e+53
2.1959658e+53
-2.7261399e+55
-3.839867e+53
-1.2126164e+54
6.1674488e+54
-1.3244188e+56
-5.8179022e+54
-5.8013034e+54
5.9371188e+54
2.0530172e+55
-2.6472965e+55
6.3096737e+52
-6.8460283e+52
1.8807943e+53
-1.4289999e+53
3.2374412e+53
1.966014e+55
3.6553042e+53
-8.8717592e+52
-2.0126214e+55
2.1507833e+53
4.484637e+53
-1.7521523e+53
7.9401437e+52
1.8690554e+55
-1.8772199e+55
2.2809774e+53
2.4868116e+53
-4.0332303e+52
1.3803921e+54
-1.3608946e+54
2.1967962e+53
1.2927362e+54
-1.5775278e+52
-1.4833785e+54
1.4180851e+53
3.3496248e+52
-2.0971849e+52
2.2531128e+53
1.1298276e+53
-2.0307113e+52
1.2848541e+54
-1.3762376e+54
1.1653312e+54
-2.1300935e+52
-1.1485442e+54
1.0871228e+52
-2.041858e+52
1.7756324e+54
-1.5252004e+56
-5.5328459e+54
7.8805251e+54
7.2449609e+54
-6.2549198e+54
4.9091952e+52
-1.3168045e+56
-5.0989907e+54
-4.6422018e+54
8.0899431e+54
7.6988148e+54
-9.0235284e+53
2.2131574e+55
1.0196021e+54
-2.8245852e+55
5.3425405e+53
2.199747e+55
-2.8493465e+55
6.8271133e+52
1.011895e+54
6.1151222e+53
1.1659314e+54
1.0800758e+54
-9.2380739e+54
-1.6441688e+54
-1.2603723e+56
-4.7104814e+54
6.4118221e+54
6.5817106e+54
-5.0307615e+54
2.0724691e+55
-4.8743986e+53
7.7058937e+53
-2.6261226e+55
5.9728148e+53
-6.4397795e+53
7.8860373e+53
8.0194104e+53
-2.1282386e+55
9.1627215e+53
-2.6887112e+55
6.853674e+53
1.1940182e+54
-2.173429e+55
8.0976106e+53
-2.0164596e+55
6.8230354e+53
1.0049175e+54
-6.829815e+53
4.3475234e+53
-1.9637578e+55
6.8448773e+53
-2.1042324e+55
7.552113e+53
-2.5448434e+54
-2.8945141e+54
-1.2764475e+56
-5.3539161e+54
6.3158171e+54
6.1359019e+54
-5.3768559e+54
2.0421597e+55
-1.5455126e+53
4.7073588e+53
-2.6038605e+55
4.3548719e+53
-3.1812847e+53
5.415944e+53
7.7262001e+53
-2.0811824e+55
6.7131637e+53
-2.6109055e+55
3.7326815e+53
3.3490881e+53
2.0314774e+55
-1.9918213e+55
5.5868908e+53
1.9492222e+55
2.5228382e+53
-1.9046058e+55
6.0340674e+53
-6.5533132e+53
7.1053192e+53
5.599695e+53
7.3937947e+53
4.79795e+52
1.8821348e+54
-1.7891804e+54
3.8943504e+53
1.4536312e+54
1.0448875e+53
-1.7091092e+54
2.7254972e+53
-6.1066937e+52
1.0180368e+53
1.985887e+53
2.3105822e+53
-9.9483226e+53
-2.7133839e+54
-1.2977194e+56
-5.6995147e+54
-5.7354418e+54
5.8841298e+54
5.9963276e+54
2.0392074e+55
2.691811e+52
6.7624598e+52
-2.6116827e+55
2.4339376e+53
-1.5401154e+53
2.774856e+53
5.0708311e+53
-2.0454278e+55
3.9280442e+53
-2.616743e+55
1.2780885e+53
1.8942496e+55
-3.9870077e+52
2.2381893e+53
-1.8866672e+55
2.2092553e+53
-1.7698196e+53
3.4357669e+53
5.4470037e+53
-2.0059322e+55
4.6962563e+53
-1.9513075e+55
2.4510246e+53
1.742418e+54
-1.650295e+52
3.2098886e+52
-1.5176475e+54
4.2435106e+53
-1.4174039e+52
2.6607482e+52
3.2877255e+53
-1.8850341e+54
2.5055077e+53
-1.7159106e+54
3.5053814e+53
-1.5054478e+54
-5.0757043e+52
3.1700141e+52
-3.0798938e+52
3.498058e+52
-1.56313e+54
1.4458022e+54
-1.5861369e+54
1.9873859e+55
1.4202676e+53
-4.1992128e+52
2.2372705e+53
-1.9977844e+55
-1.5764524e+53
-2.1121194e+55
-4.8286537e+52
4.4157617e+53
-5.623503e+53
-1.9589749e+54
-1.3051745e+56
6.0208353e+54
-5.7996251e+54
-5.9283479e+54
5.9616982e+54
-2.0689047e+55
2.2204785e+53
5.2709446e+52
-3.8407346e+53
-2.6727137e+55
2.225264e+53
-2.6788912e+55
3.4501308e+52
-1.5798832e+53
-1.947786e+55
2.241041e+53
2.6416793e+53
1.6086218e+53
-1.9304982e+55
1.9382398e+53
1.3619489e+54
-8.9409995e+51
4.6987199e+52
-1.4328698e+54
1.3191127e+53
1.6558072e+52
-1.5724971e+54
2.3692023e+53
4.2081937e+52
1.7625385e+53
-1.5107216e+54
2.0267004e+53
1.3615477e+54
-1.7351546e+52
2.3601671e+52
-1.3000184e+54
2.3363837e+51
-1.3812997e+54
7.1307484e+51
-1.3481821e+54
-4.7108934e+53
-1.0907748e+54
-1.213663e+56
-5.3838682e+54
-3.7817659e+54
4.0991424e+54
5.6221826e+54
4.0693427e+54
5.7427876e+54
-5.440171e+54
-3.8385755e+54
2.6164458e+53
1.9520028e+55
-3.9504317e+53
-2.496996e+55
1.6442336e+53
1.8913255e+55
2.0454685e+53
-2.2869327e+53
-2.4395485e+55
8.4081319e+52
7.6203693e+51
-1.2959088e+52
3.0786203e+53
-1.8491124e+55
2.2773803e+53
1.5223587e+54
-2.1143758e+55
1.3559705e+53
-1.0942459e+54
1.8684034e+55
-2.1067957e+55
-1.2445581e+54
2.1082011e+53
-7.7755482e+52
1.6825436e+54
2.4386332e+53
-5.4985761e+52
2.7233637e+53
1.5066197e+53
1.7008734e+55
-9.868385e+52
-1.7152472e+55
2.1703382e+53
1.7883821e+55
2.7282725e+53
-5.814348e+52
-1.8282579e+55
2.0616495e+53
2.5581772e+53
-1.3583691e+53
1.7556024e+53
-1.6716423e+55
3.3478269e+53
1.5889684e+53
-1.9900464e+55
9.8438242e+52
2.1897858e+53
-1.7154763e+55
5.761362e+53
2.2802983e+53
-2.2374696e+55
2.6921634e+53
3.6905582e+53
1.679057e+55
-1.6939606e+55
2.4191191e+53
2.2806258e+53
-1.5331074e+52
1.8571095e+53
1.1165623e+53
2.7535843e+52
1.1859632e+53
1.1896154e+54
-1.5613611e+52
1.3796978e+52
-1.1948459e+54
1.2424705e+53
-2.6037434e+51
5.8866973e+51
2.2082717e+53
-1.1526299e+54
1.439944e+53
-2.3762019e+52
-1.5418706e+55
-8.8412789e+51
-2.292937e+53
-1.5336866e+55
-1.0866981e+53
-4.7270494e+51
-1.5614101e+55
1.7810772e+53
9.3128764e+52
-1.2309052e+54
-7.0237821e+50
1.3801339e+53
-1.5622114e+55
2.1187935e+53
9.5223051e+52
-1.7349058e+52
1.1895769e+54
-1.275401e+54
2.999908e+51
1.5268564e+53
1.2669024e+54
-2.0525974e+52
-1.3201818e+54
1.894595e+53
2.4395369e+52
-3.0741453e+52
1.9028686e+53
3.5124737e+51
1.2104437e+53
-1.2219297e+54
3.4131931e+52
-3.0797612e+52
2.8837774e+52
-3.3069902e+52
-1.2082399e+54
1.1844208e+55
-1.2071825e+55
-1.3839821e+53
-1.3490333e+53
1.1101121e+54
-1.0784715e+54
-2.5807087e+51
1.1467231e+53
1.1437187e+54
-1.1357957e+54
1.4038037e+52
1.0581766e+54
-1.1168108e+54
-1.5093559e+52
1.158581e+53
-3.1055299e+52
8.5091623e+52
2.3611665e+52
1.9270407e+53
3.5788982e+52
1.0206821e+52
1.7575255e+53
-1.2718019e+54
8.8341587e+51
7.666695e+51
7.9810562e+51
2.5152623e+51
-1.1939259e+54
1.2027501e+54
-1.1509562e+54
-1.9076056e+52
1.2486984e+52
-9.4099306e+53
-1.0933094e+54
-5.8035224e+52
9.2785024e+51
-9.369177e+53
-8.8259487e+53
-8.4398138e+51
-9.197708e+51
-7.5100774e+52
-8.6676196e+51
-1.3966547e+52
-7.1602664e+52
-1.0979044e+54
-6.3563016e+52
2.0734945e+52
-9.3560797e+53
-1.5109489e+52
-1.1922801e+52
-7.3104272e+52
-1.3821191e+52
-1.0449269e+52
-6.3564839e+52
-5.2064069e+54
8.5709211e+54
-2.3220709e+54
-1.206286e+56
-2.6426678e+54
8.6984479e+54
-8.607857e+54
-1.2928713e+56
5.6994915e+54
-5.7613275e+54
-5.7571728e+54
5.4666428e+54
5.6788233e+51
1.9783083e+55
-2.5751314e+55
-2.3322704e+52
2.0825566e+55
-7.3396347e+53
-2.6146048e+55
2.8283109e+53
9.944502e+52
2.6655018e+53
5.4784841e+53
2.1079468e+53
-2.0432051e+55
-9.6290088e+52
-3.1739147e+52
4.236367e+53
-1.5662283e+53
2.8105154e+52
-2.0362239e+55
1.9255927e+53
-2.0805493e+55
-2.2808058e+53
7.3009948e+52
2.3602938e+53
2.0793285e+53
-2.1185958e+53
6.965377e+52
-2.6759532e+55
-4.1151157e+54
5.9508607e+54
-5.9963048e+54
-1.3173647e+56
5.6289454e+54
-5.7555723e+54
1.9849708e+55
-2.5515546e+55
7.3199497e+52
3.0707631e+52
1.7588598e+55
-1.8266137e+55
3.3092155e+53
-2.0929349e+53
-1.548993e+54
2.1537919e+52
-8.9005464e+50
1.7653184e+53
3.3772375e+53
1.84002e+55
-6.4965708e+52
4.1301361e+53
-1.8834358e+55
-1.9181816e+55
-9.0567482e+52
1.1495034e+53
4.9822694e+53
-1.727769e+54
-1.2237872e+56
5.6278375e+54
-5.5082206e+54
-3.880759e+54
3.8397472e+54
-5.5403012e+54
-3.83194e+54
3.8642463e+54
5.6140205e+54
8.4476745e+52
-3.3158681e+53
-2.4430946e+55
2.1025503e+53
-1.7803305e+55
2.5557896e+53
1.2934087e+54
-2.0201679e+55
8.8378717e+52
-1.3008574e+54
-1.7911291e+55
-1.070273e+53
1.4914365e+54
2.3541459e+53
-2.5644943e+53
-2.0325755e+55
-1.0766514e+54
6.0056186e+52
1.8807673e+55
-2.4497281e+55
7.0122024e+52
3.4238847e+53
1.6953826e+55
-1.6404936e+55
-9.0885471e+52
2.7021827e+53
1.9498155e+55
-2.1786245e+55
2.4667245e+53
1.4777839e+52
-4.6680419e+53
1.5947051e+53
5.3502824e+53
2.5151278e+53
1.4858227e+53
2.204296e+52
5.0429034e+53
-1.737034e+55
-3.9152856e+53
6.10268e+52
3.6347553e+53
-3.7732967e+53
-1.6712085e+55
-7.6178705e+52
1.898454e+53
1.7660629e+55
-1.7975085e+55
2.4378159e+53
3.4692164e+53
4.8218484e+52
-5.4425423e+50
-1.6899722e+54
3.0029295e+53
1.582629e+55
-1.5263013e+55
-6.2618863e+50
2.065984e+53
1.6873854e+54
-1.4947655e+54
4.3085459e+52
3.2254043e+53
1.5686038e+55
-1.5215484e+55
1.2815683e+52
2.7197347e+53
1.6423039e+53
4.7378799e+53
4.7757418e+52
1.8062638e+53
3.3231371e+53
6.0310818e+53
2.6681868e+52
1.6285602e+54
-1.5734099e+54
2.1034464e+53
1.688183e+54
-1.5021148e+54
2.2489568e+52
2.8271697e+53
-5.5981474e+51
4.313861e+52
3.0917011e+53
2.4923547e+53
2.6847208e+53
-7.6721042e+54
-1.3379098e+56
-3.7176719e+53
-4.6345331e+54
-1.380887e+56
-4.8967744e+53
-2.6315771e+54
-1.4053546e+56
-1.6557982e+54
4.0864569e+51
5.3132425e+51
2.1528358e+53
-1.1013894e+52
1.1684407e+52
2.018174e+53
-1.6000329e+54
-2.0080636e+55
-1.7550117e+53
2.6229646e+52
2.6099874e+53
-4.3423644e+53
-1.3722378e+54
-1.3271378e+56
-5.9774991e+54
6.0678551e+54
6.4359991e+54
-5.7610192e+54
-2.1076841e+55
1.716817e+53
-2.1846324e+53
2.1808103e+53
1.7879321e+53
1.36288e+52
-2.7287591e+55
4.6576989e+52
-2.1845748e+55
3.2179005e+53
-2.8031526e+55
1.7692691e+53
-6.1157877e+52
-1.256889e+53
-1.9981437e+55
2.308918e+53
2.0864018e+55
-2.1107908e+55
2.0262311e+53
2.0045095e+53
1.5104587e+54
-1.5704351e+54
2.0395296e+53
2.6581661e+53
-2.0018166e+52
1.3355717e+54
-1.2998074e+54
1.3256584e+54
-1.7085706e+52
-1.3500581e+54
3.3240539e+52
-2.7863067e+52
-5.1035859e+54
-4.0153414e+54
-1.3209695e+56
-1.926101e+54
-3.9489715e+54
-1.3583696e+56
-9.0043169e+53
-2.9089626e+54
-1.3825898e+56
-5.5698315e+53
-1.8619333e+54
-1.4025809e+56
-5.7319283e+51
2.0110483e+55
-2.5380441e+53
-1.9876467e+55
2.4512604e+53
-2.1223516e+55
-6.0541679e+52
-1.679597e+53
3.5807513e+53
-1.5723599e+53
-1.0047048e+54
-1.3198959e+56
-5.9405775e+54
-5.9224664e+54
6.0184791e+54
6.0831734e+54
1.2433434e+53
-8.6524824e+52
-2.7242779e+55
1.6355895e+53
2.0841594e+55
-2.6964956e+55
5.135427e+52
1.902229e+53
1.8734568e+55
-1.8917941e+55
1.8260039e+53
-2.0073788e+53
2.1535298e+53
-1.6239706e+53
2.6967517e+53
1.6002857e+54
2.982378e+52
-7.8266159e+51
-1.5988241e+54
1.9163744e+53
3.8966841e+52
-1.249814e+52
1.6985676e+53
1.3908047e+54
-1.4094966e+54
2.5609949e+53
2.8682865e+53
-3.8601841e+52
1.3683195e+54
-1.3160545e+54
1.2051904e+54
-1.4185369e+52
-1.2880861e+54
3.3275826e+52
-1.8405215e+52
6.6692383e+53
-1.5422733e+56
-5.6016993e+54
-6.0902248e+54
7.5613228e+54
8.2393184e+54
-9.6380334e+52
-1.3282196e+56
-4.9192623e+54
-5.183442e+54
7.9409793e+54
8.2015817e+54
2.2567882e+55
-7.2692022e+53
7.2698734e+53
-2.898405e+55
8.8326661e+53
-8.6378737e+53
9.468812e+53
1.401705e+54
-2.259254e+55
9.9583411e+53
-2.9161061e+55
6.062867e+53
-1.0301064e+55
-9.5696395e+53
-1.2535338e+56
-4.7387679e+54
6.685814e+54
6.3768661e+54
-5.0370928e+54
4.1888209e+53
2.1216485e+55
-2.6698216e+55
7.3445397e+53
2.0941051e+55
6.9290102e+53
-2.6582912e+55
7.2564537e+53
-6.5709567e+53
7.8895791e+53
6.532837e+53
5.5334469e+53
-1.0671256e+54
2.0420934e+55
1.0802659e+54
-1.9922183e+55
2.2371164e+52
2.0419777e+55
-2.0845524e+55
-1.3834939e+53
1.3018411e+54
5.4610456e+52
1.1922051e+54
4.9374675e+53
-3.2392942e+54
-2.4078837e+54
-1.2558968e+56
-5.099837e+54
6.3793413e+54
6.2150062e+54
-5.1893024e+54
2.0512035e+55
-2.3775838e+53
3.9323554e+53
-2.5870216e+55
4.9222809e+53
3.4412777e+53
-2.083293e+55
5.5510993e+53
5.5024184e+53
6.2641047e+53
-2.6022592e+55
3.9187891e+53
1.9130027e+55
-2.4378678e+53
6.404733e+53
-1.8838108e+55
-9.1314594e+52
-3.2451399e+53
5.3045287e+53
8.8455732e+52
-2.0208698e+55
4.6866697e+53
-1.9648271e+55
1.3343969e+53
8.2184259e+52
-1.5267619e+54
6.1027863e+53
-1.1652879e+54
5.4081702e+52
7.7610912e+53
-6.75212e+52
3.5271468e+52
-1.0307719e+54
5.822363e+53
-1.3015341e+54
5.6696455e+53
-1.1147315e+54
-2.7331039e+54
-1.2710576e+56
-5.5939659e+54
-5.6443742e+54
5.7824642e+54
6.0514291e+54
2.0491932e+55
2.0929847e+52
1.7035199e+53
-2.6298936e+55
2.6182381e+53
-8.4795297e+52
3.4397207e+53
5.0997702e+53
-2.019562e+55
4.1516666e+53
-2.5653812e+55
1.6989811e+53
1.8720583e+55
7.4312817e+52
2.7898523e+53
-1.8759797e+55
1.2141958e+53
-6.6987037e+52
2.0050464e+53
3.1363528e+53
-1.9219679e+55
2.4937927e+53
-1.8657998e+55
1.0972665e+53
4.2312256e+52
1.5258074e+54
-1.3439772e+54
3.666621e+53
1.5778355e+54
3.1779905e+52
-1.315077e+54
3.5119797e+53
-3.7068982e+52
5.9129804e+52
4.0665548e+53
4.6555873e+53
4.4259138e+52
1.5999722e+54
-1.4834545e+54
1.4707401e+54
9.5168534e+52
-1.451734e+54
-5.1299214e+52
9.7312454e+52
-6.6532755e+53
-2.2087804e+54
-1.2941254e+56
-5.8173355e+54