/*--------------------------------*- C++ -*----------------------------------*\
  =========                 |
  \\      /  F ield         | OpenFOAM: The Open Source CFD Toolbox
   \\    /   O peration     | Website:  https://openfoam.org
    \\  /    A nd           | Version:  7
     \\/     M anipulation  |
\*---------------------------------------------------------------------------*/
FoamFile
{
    version     2.0;
    format      ascii;
    class       volScalarField;
    location    "2000";
    object      nut;
}
// * * * * * * * * * * * * * * * * * * * * * * * * * * * * * * * * * * * * * //

dimensions      [0 2 -1 0 0 0 0];

internalField   nonuniform List<scalar> 
33943
(
1.9188122e-13
8.4321222e-14
1.7299031e-14
5.0419413e-15
1.958009e-14
7.9913976e-13
4.5231491e-13
1.6008076e-13
7.0060654e-14
6.4275675e-14
1.3020204e-14
9.1880543e-15
6.1325665e-14
3.4287092e-14
2.114825e-14
5.8416512e-14
2.8229719e-15
4.6034263e-15
5.0452581e-15
4.6879783e-15
9.3502392e-15
1.0351113e-14
1.039831e-14
7.5188089e-15
3.412347e-15
5.6458951e-15
5.0970724e-15
3.2982259e-15
1.0290234e-12
9.940251e-15
9.2052182e-15
4.0447153e-13
3.5248111e-13
7.1042815e-14
5.7038332e-15
2.6362761e-14
2.57176e-14
2.3038336e-13
2.176905e-13
7.7864948e-14
7.5344817e-14
1.7673772e-14
1.2802011e-14
6.5556861e-14
6.1360409e-14
3.0116273e-14
3.672683e-14
6.3284495e-14
5.6433314e-14
2.4362973e-14
1.6246043e-14
2.6831313e-14
1.3321896e-14
2.712226e-14
1.4348754e-14
2.9403051e-14
2.725892e-14
1.4131438e-14
1.2518796e-14
7.6158288e-15
2.772462e-15
4.307533e-15
2.8890425e-15
4.6248464e-15
5.1963548e-15
3.5507197e-15
4.907259e-15
3.388267e-15
7.5372009e-15
7.020429e-15
8.2879723e-15
7.3155961e-15
9.6834907e-15
9.0372089e-15
9.8567143e-15
1.0863767e-14
5.4285245e-15
6.8399159e-15
4.5186861e-15
4.6317659e-15
5.0217554e-15
3.960058e-15
2.5775327e-15
1.1198931e-14
1.0127374e-14
1.077761e-14
1.1270833e-14
2.998655e-15
4.532334e-15
1.1488054e-14
4.8195773e-15
1.8191161e-15
6.0782714e-15
5.8480832e-15
3.3012909e-15
7.8936268e-15
7.1446892e-15
3.1262012e-13
2.7608922e-13
3.9854267e-15
4.9785526e-15
7.1764029e-14
3.5086522e-14
4.5422352e-15
6.1452009e-14
2.7115295e-14
3.2360503e-15
2.3754248e-14
2.291917e-14
2.0462916e-13
2.192492e-13
2.2225064e-14
2.0804721e-14
1.8369997e-13
2.0575129e-13
9.1912955e-15
4.3108643e-15
1.4091485e-14
1.4603548e-14
2.7711022e-14
2.7776536e-14
1.5227838e-14
2.8921849e-14
2.4243428e-14
2.3583983e-14
1.1035472e-13
1.0716893e-13
2.4187469e-14
1.1474602e-13
9.6149438e-14
9.197866e-15
5.5872584e-14
5.7449821e-14
5.1469155e-14
5.0291712e-14
5.4103121e-14
1.493613e-14
6.2343204e-14
2.9404043e-14
2.961695e-14
3.1184924e-14
1.7322453e-14
1.8465797e-14
3.158848e-14
2.9540542e-14
1.57324e-14
1.4244755e-14
3.2426535e-14
3.1063573e-14
1.518845e-14
1.5214254e-14
3.1013476e-14
2.822938e-14
1.2462322e-14
1.3513957e-14
1.1210323e-14
1.0827407e-14
8.2246078e-15
8.2722976e-15
1.0473201e-14
1.1324343e-14
9.0564827e-15
9.6371166e-15
1.2184717e-14
1.2865203e-14
9.3761781e-15
9.9954015e-15
8.3216719e-15
1.1794356e-14
1.1159859e-14
7.8321157e-15
6.1345318e-15
4.9436588e-15
2.7834463e-15
2.9340033e-15
5.3765856e-15
5.6746189e-15
5.1186784e-15
4.8810019e-15
4.5716292e-15
3.4550433e-15
3.3453107e-15
5.0389438e-15
4.8077091e-15
6.9043236e-15
7.1757925e-15
7.9577294e-15
7.5296868e-15
5.0239821e-15
3.4342937e-15
3.2870328e-15
4.6706225e-15
8.271952e-15
8.042489e-15
7.3365182e-15
7.8151402e-15
4.0845801e-15
4.34457e-15
4.3673123e-15
4.0220998e-15
3.4467438e-15
3.5489119e-15
3.092219e-15
2.8588527e-15
4.3569709e-15
4.4660848e-15
4.670712e-15
4.1109905e-15
3.5140391e-15
3.6985764e-15
9.7777358e-15
8.63782e-15
9.0420725e-15
8.6302576e-15
5.6740905e-15
5.8581031e-15
5.6580789e-15
5.9417246e-15
9.7636965e-15
9.3352784e-15
9.2211797e-15
9.4306927e-15
6.069855e-15
6.1459522e-15
6.2062809e-15
5.8573524e-15
1.1504778e-14
1.1363701e-14
1.0446218e-14
1.0991753e-14
1.2487149e-14
9.0595773e-15
1.2807561e-14
1.1233201e-14
1.2259838e-14
1.0703568e-14
5.8855388e-15
3.8526574e-15
4.3786415e-15
5.0440673e-15
5.8848738e-15
1.0721499e-14
9.9398988e-15
2.1231667e-15
2.7839102e-15
5.587777e-15
1.4539132e-15
7.996976e-15
7.901254e-15
6.9213958e-15
6.3863593e-15
6.9923774e-15
7.2741738e-15
6.9755767e-15
6.734697e-15
1.7714185e-15
5.1732101e-15
1.1410523e-14
5.1574206e-15
1.0267007e-15
2.4162682e-15
4.6392739e-15
4.5206647e-15
4.0127306e-15
4.2356457e-15
8.2724318e-15
4.2553556e-15
4.3405355e-15
4.3323548e-14
5.51614e-14
3.9796743e-15
2.9438079e-15
2.667953e-14
4.9242351e-14
2.2715071e-14
2.2047798e-14
2.1069226e-13
2.1173929e-13
2.0519654e-14
1.9304964e-14
2.0677302e-13
1.8693081e-13
4.6464332e-15
4.8586762e-15
9.0739094e-15
9.1846147e-15
4.6482618e-15
8.8875055e-15
9.5585569e-15
4.3067374e-15
1.4504832e-14
1.4296519e-14
2.9517643e-14
3.020951e-14
3.0594332e-14
1.4778215e-14
1.3513954e-14
2.9665969e-14
2.0719277e-14
1.0366286e-13
9.0480924e-14
2.2175373e-14
2.296276e-14
2.2563977e-14
9.9392582e-14
1.0188262e-13
1.4488118e-14
1.4317161e-14
2.8709998e-14
2.8377807e-14
3.0589758e-14
1.516722e-14
1.3526213e-14
2.8840384e-14
2.2583e-14
2.0954352e-14
1.1163519e-13
9.281861e-14
2.2978056e-14
2.2261326e-14
1.08424e-13
1.0714247e-13
4.3728607e-14
1.9885478e-14
1.9884227e-14
5.3709001e-15
7.9310121e-15
3.3285187e-14
2.0461442e-14
1.0760078e-14
1.0262818e-14
1.0947044e-14
1.2840767e-14
1.3481902e-14
9.6168819e-15
9.4331577e-15
9.8310203e-15
1.3258523e-14
1.3219214e-14
9.3775104e-15
2.4514064e-14
2.4548612e-14
7.7019237e-15
7.8882804e-15
8.1205111e-15
2.5199421e-14
7.7312737e-15
2.3617879e-14
1.2934573e-14
1.3871666e-14
9.9158993e-15
1.0078619e-14
8.2739214e-15
2.7520385e-14
8.2205609e-15
2.6349357e-14
8.0228395e-15
2.6400003e-14
4.6237029e-14
1.6159434e-14
3.0731415e-14
1.9092035e-14
2.5888797e-14
1.7440765e-14
2.8014623e-14
2.205044e-14
2.6032509e-14
2.3801024e-14
2.9306646e-14
2.5579327e-14
1.5378706e-14
1.2614855e-14
3.1144508e-14
1.6617793e-14
3.0791166e-14
1.7254947e-14
1.110777e-14
1.243909e-14
1.0213632e-14
1.0976779e-14
1.3028317e-14
1.2682396e-14
1.1207472e-14
1.1788615e-14
1.0337187e-14
1.3635973e-14
1.3685009e-14
1.0199599e-14
1.3299219e-14
1.2664427e-14
1.0207714e-14
9.8751222e-15
1.2891233e-14
1.291979e-14
1.0444953e-14
1.0223935e-14
1.2882173e-14
1.2629965e-14
9.6565645e-15
9.574426e-15
1.2794406e-14
1.3254514e-14
9.5154802e-15
9.122914e-15
1.2784412e-14
1.078658e-14
8.1474335e-15
8.5202051e-15
1.0166413e-14
1.092622e-14
3.179954e-15
3.3771195e-15
1.1415975e-14
9.4575699e-15
2.9115802e-15
3.1911779e-15
3.189917e-15
1.0346881e-14
9.4185115e-15
3.2284276e-15
9.1641196e-15
1.1144106e-14
3.1986242e-15
3.0344174e-15
1.3446237e-14
1.1984877e-14
3.5238533e-15
3.9017954e-15
3.5006347e-15
1.3112256e-14
1.0896552e-14
3.5180127e-15
1.1465355e-14
1.2396434e-14
3.3921462e-15
3.5755296e-15
1.0197944e-14
1.1997288e-14
3.1995556e-15
3.082706e-15
2.9895247e-15
4.0003298e-15
4.3399933e-15
4.2485739e-15
4.0173811e-15
4.793485e-15
7.6903636e-15
7.3460747e-15
7.9547787e-15
8.1502667e-15
3.4451217e-15
5.1039219e-15
3.475698e-15
4.9847935e-15
3.4244544e-15
5.05248e-15
3.4380267e-15
4.9685622e-15
1.0046643e-14
7.0034519e-15
6.8784287e-15
9.4034624e-15
6.755261e-15
7.3885739e-15
6.9079768e-15
7.2678785e-15
3.1581938e-15
3.1347922e-15
3.4402925e-15
3.4721423e-15
3.1325155e-15
2.919794e-15
3.9714971e-15
3.6840402e-15
4.6395876e-15
4.9523187e-15
4.7429973e-15
4.4286854e-15
4.4222154e-15
4.2219476e-15
4.0798207e-15
4.2280142e-15
5.8780754e-15
6.1215865e-15
6.5332965e-15
6.3168145e-15
9.9887193e-15
9.9298086e-15
9.0772343e-15
1.0611035e-14
1.055569e-14
1.0000501e-14
1.036108e-14
9.8038984e-15
6.9243016e-15
6.1980689e-15
6.4901663e-15
6.6330906e-15
4.6027117e-15
4.5571987e-15
4.1224452e-15
4.167735e-15
3.771245e-15
3.7517133e-15
3.2153456e-15
3.1462325e-15
3.5427613e-15
2.9634898e-15
3.0622913e-15
3.36885e-15
4.1602141e-15
4.3219084e-15
4.3217419e-15
4.2336614e-15
9.2242324e-15
9.2920608e-15
9.0473747e-15
9.0574871e-15
9.5521814e-15
9.2787873e-15
9.2026328e-15
1.0062136e-14
6.5654827e-15
6.1514848e-15
6.1039367e-15
6.5159463e-15
6.1378721e-15
6.0091503e-15
5.9339876e-15
6.0882624e-15
4.8905255e-15
3.9636341e-15
5.2721215e-15
4.260564e-15
4.4739065e-15
4.5794415e-15
4.2019433e-15
4.3091595e-15
4.302759e-15
4.0709202e-15
4.6705671e-15
4.3907757e-15
5.0663001e-15
4.1436725e-15
5.1567168e-15
4.2570364e-15
3.2254944e-15
3.1115767e-15
3.3828545e-15
3.2267603e-15
3.08727e-15
2.9990035e-15
3.4516305e-15
3.3078918e-15
2.1226724e-15
2.3198328e-15
2.4653073e-15
2.6401574e-15
2.1614935e-15
2.2474205e-15
2.5672975e-15
2.4682192e-15
5.7491463e-15
5.8086069e-15
4.5858077e-15
4.6687778e-15
4.7028385e-15
4.4159813e-15
4.4648317e-15
5.128019e-15
4.8129667e-15
5.1808754e-15
4.8758785e-15
5.3206448e-15
5.2581223e-15
4.3662325e-15
4.3206771e-15
3.3829432e-15
3.2422795e-15
3.7104916e-15
3.5335247e-15
3.8751328e-15
3.624306e-15
5.6955633e-15
5.8478012e-15
3.8180354e-15
3.9497527e-15
4.9165725e-15
4.6277734e-15
4.2314836e-15
4.5539642e-15
4.9413591e-15
5.0208517e-15
4.5293338e-15
4.7036278e-15
5.5363339e-15
5.0803346e-15
3.6342821e-15
3.9080632e-15
5.0586291e-15
4.4210749e-15
5.152295e-15
4.552187e-15
4.9611722e-15
4.6235443e-15
3.5285203e-15
3.7902804e-15
4.7952397e-15
4.1645148e-15
5.1044502e-15
4.4516551e-15
4.9219623e-15
5.0325498e-15
3.7703649e-15
3.8822681e-15
5.6716434e-15
5.6570846e-15
5.1887791e-15
5.2766938e-15
6.1355353e-15
6.2756032e-15
4.1673886e-15
4.3667327e-15
5.8166691e-15
5.6953951e-15
3.908969e-15
3.8039966e-15
5.2746873e-15
5.1955432e-15
4.7593822e-15
4.6945817e-15
5.2068349e-15
5.2022431e-15
3.9501435e-15
3.9164257e-15
5.6550078e-15
4.8894664e-15
5.6804482e-15
4.9662401e-15
5.4154659e-15
5.4952935e-15
4.147673e-15
4.2376164e-15
5.3986518e-15
4.728148e-15
5.3973955e-15
4.7360006e-15
7.7542853e-15
7.2197057e-15
7.7004675e-15
7.563813e-15
7.5910922e-15
6.7132274e-15
7.6211413e-15
7.4046193e-15
7.6973532e-15
7.3484994e-15
1.1059193e-14
9.6317716e-15
7.3900683e-15
7.4584635e-15
8.0211584e-15
7.3367581e-15
7.7275958e-15
7.3429671e-15
1.1413727e-14
1.190447e-14
1.1186711e-14
5.6209201e-15
3.0708211e-15
1.3613112e-15
5.2372342e-15
1.2460985e-14
1.1663871e-14
1.2561838e-14
1.1989421e-14
3.7717587e-15
6.2745256e-16
3.9936346e-15
7.6469131e-16
5.0970933e-15
4.7402652e-15
4.395826e-15
4.5444857e-15
4.3298379e-15
4.2527175e-15
4.2327699e-15
3.7527544e-15
4.2693763e-15
3.7506287e-15
4.2522588e-15
3.7649206e-15
4.1436513e-15
4.0478177e-15
4.1824237e-15
3.564939e-15
1.2755667e-15
1.8390547e-15
2.5251073e-15
1.7395392e-15
1.3707401e-15
4.1969176e-15
8.3699835e-15
4.7773828e-15
4.4807425e-15
4.5105038e-15
5.9652803e-15
6.6549322e-15
6.7289078e-15
5.455485e-15
3.7645233e-14
4.5552328e-15
4.4802293e-15
8.7089138e-15
8.9329032e-15
5.0057336e-15
4.267872e-15
9.1280027e-15
8.9009253e-15
2.4049039e-14
1.413524e-14
3.041726e-14
3.10298e-14
1.4394758e-14
1.4376672e-14
1.3224941e-14
3.190098e-14
2.9626487e-14
2.2734099e-14
2.3086123e-13
9.5530515e-14
2.2988394e-14
1.021935e-13
2.1958009e-14
2.3188938e-14
1.0982394e-13
9.4059626e-14
1.3817362e-14
1.3929669e-14
3.0511673e-14
3.1097321e-14
1.4418964e-14
1.2813177e-14
2.9088894e-14
3.1693743e-14
2.295169e-14
1.0384312e-13
2.2429522e-14
1.0514436e-13
2.2914777e-14
2.1647468e-14
9.1212046e-14
1.0763795e-13
7.9855187e-15
7.5767436e-15
4.4284498e-14
2.0023685e-14
1.8849716e-14
6.0547153e-14
2.0214134e-14
1.8394585e-14
6.653909e-15
3.3330729e-14
2.0121299e-14
1.9604352e-14
5.3485973e-14
2.094661e-14
1.9750133e-14
6.1024289e-15
9.9325874e-15
1.0337627e-14
1.0410393e-14
1.0157649e-14
1.3582765e-14
1.3719677e-14
9.1142811e-15
9.6067167e-15
7.8451945e-15
7.9987871e-15
2.3602009e-14
2.3612259e-14
7.8680447e-15
2.3188384e-14
7.5249718e-15
2.1375159e-14
1.3804443e-14
1.3071336e-14
9.5713999e-15
9.7365383e-15
1.3157028e-14
1.3835577e-14
9.258609e-15
9.3644422e-15
1.3714761e-14
1.3552319e-14
9.4919887e-15
9.2003961e-15
7.6659967e-15
7.9724862e-15
2.2044762e-14
2.2629748e-14
8.0608332e-15
7.7079064e-15
2.2891839e-14
2.0916487e-14
1.0464612e-14
1.0044901e-14
1.0876643e-14
1.0431293e-14
9.5198176e-15
1.3082255e-14
1.3769776e-14
9.5577161e-15
9.5161336e-15
1.3442253e-14
1.3548678e-14
9.0324488e-15
7.6164291e-15
7.653067e-15
2.4160392e-14
2.5253179e-14
7.2598207e-15
2.4735119e-14
2.206304e-14
7.6108827e-15
1.2878467e-14
9.30936e-15
9.5777735e-15
1.3542291e-14
1.3229842e-14
1.3094988e-14
9.5741474e-15
9.1046906e-15
7.5041102e-15
7.6194008e-15
2.3718327e-14
2.3299701e-14
7.7496344e-15
7.4106968e-15
2.4169025e-14
2.216472e-14
6.3971794e-15
6.3265709e-15
1.4626982e-14
8.1346965e-15
7.9447795e-15
6.5466782e-15
1.7658594e-14
8.6180111e-15
1.2111365e-14
1.3242387e-14
1.3790346e-14
1.5408065e-14
7.6564851e-15
7.4473846e-15
1.040473e-14
1.2157783e-14
1.4835727e-14
1.2651421e-14
7.5774582e-15
7.5206105e-15
1.1515478e-14
1.3204023e-14
1.502559e-14
1.3510812e-14
7.501627e-15
7.7843404e-15
1.0836787e-14
5.1434247e-15
1.081598e-14
4.9758541e-15
1.0477387e-14
1.0526773e-14
5.1169612e-15
5.061651e-15
1.0627667e-14
1.0964964e-14
5.336807e-15
5.2751406e-15
5.1625268e-15
1.0744852e-14
1.042909e-14
4.9146852e-15
2.9406035e-15
2.8553608e-15
3.0100456e-15
3.1480742e-15
3.252886e-15
3.0068287e-15
2.9078121e-15
3.1389071e-15
2.7759833e-15
2.7403084e-15
3.2683263e-15
3.1262613e-15
2.8481389e-15
2.9073415e-15
3.292831e-15
4.114885e-15
2.9063819e-15
2.9423954e-15
3.8918923e-15
3.6596738e-15
3.1923112e-15
2.8758516e-15
2.99498e-15
3.2592044e-15
3.6958315e-15
3.0054506e-15
2.8936111e-15
2.9269916e-15
2.9274352e-15
2.8578048e-15
3.1799346e-15
3.2836471e-15
1.0769428e-14
1.0588028e-14
5.2110693e-15
5.2563055e-15
1.0968284e-14
1.1009834e-14
5.2670698e-15
5.0908154e-15
2.8406837e-15
2.8043112e-15
3.7982419e-15
3.9116291e-15
3.2043536e-15
2.9196258e-15
2.953671e-15
3.2519884e-15
2.889579e-15
2.9927833e-15
4.3780801e-15
3.5342569e-15
2.7756469e-15
2.87377e-15
3.3194211e-15
3.1881539e-15
2.9587807e-15
2.918169e-15
3.8262621e-15
3.5063337e-15
3.1614445e-15
2.7535185e-15
2.9456552e-15
3.2612696e-15
2.335921e-14
2.849271e-14
2.4997659e-14
1.7673063e-14
1.4231255e-14
1.4157753e-14
1.3922278e-14
1.371553e-14
1.2585742e-14
1.1095561e-14
1.1402003e-14
1.2626404e-14
1.2927833e-14
1.2164647e-14
1.3492141e-14
1.2504029e-14
1.0397963e-14
1.1718921e-14
1.333719e-14
1.409967e-14
1.3508011e-14
1.32618e-14
1.1946568e-14
1.1472516e-14
1.2049084e-14
1.0609136e-14
1.0629288e-14
8.8742092e-15
1.2693273e-14
1.3464789e-14
1.1853834e-14
1.2585409e-14
1.3708549e-14
1.237395e-14
1.3069226e-14
1.2574874e-14
9.0231338e-15
9.1505682e-15
3.2889253e-15
3.3900175e-15
9.0355091e-15
1.1177078e-14
3.4259022e-15
3.3571891e-15
1.0460103e-14
1.1423973e-14
3.5413605e-15
3.7202634e-15
9.2860357e-15
1.123187e-14
3.5038476e-15
3.4500383e-15
1.092931e-14
1.4327285e-14
3.8867366e-15
3.872411e-15
1.0835095e-14
1.3151181e-14
3.7269838e-15
3.503593e-15
1.0147146e-14
1.1432905e-14
3.5358192e-15
3.7644355e-15
9.1709929e-15
1.1580965e-14
3.3939315e-15
3.2771886e-15
1.0356408e-14
1.2466653e-14
3.6349246e-15
3.8163911e-15
9.6411036e-15
1.1756343e-14
3.4762695e-15
3.275459e-15
1.0299698e-14
1.1752544e-14
3.5564512e-15
3.6783928e-15
9.5044643e-15
1.1414739e-14
3.3360007e-15
3.2528072e-15
1.0594118e-14
1.255216e-14
3.5821929e-15
3.7363397e-15
1.022578e-14
1.1183062e-14
3.4504057e-15
3.4311416e-15
1.0917866e-14
3.4269093e-15
1.0577533e-14
3.5745769e-15
9.9696162e-15
8.3684775e-15
3.056068e-15
2.8815956e-15
4.2588393e-15
4.157635e-15
4.2698403e-15
4.0393101e-15
3.5926385e-15
3.7825326e-15
4.0185561e-15
4.2149014e-15
4.5524563e-15
4.7667967e-15
4.8537381e-15
4.6196163e-15
4.5858306e-15
4.5079205e-15
4.1554372e-15
4.4974936e-15
3.8645329e-15
5.4241285e-15
7.6873843e-15
8.5533736e-15
6.681966e-15
8.2060957e-15
7.9651274e-15
7.5781133e-15
9.4095745e-15
8.6035103e-15
8.8005085e-15
9.6462084e-15
8.0959273e-15
8.3213837e-15
7.2583263e-15
8.3145609e-15
6.0312609e-15
5.9599676e-15
5.7457509e-15
5.7001077e-15
6.5176976e-15
6.2100252e-15
6.2090552e-15
6.5372387e-15
3.009534e-15
3.424355e-15
3.1014198e-15
3.4448931e-15
4.3469995e-15
4.6581597e-15
4.1788817e-15
3.8856323e-15
3.543129e-15
3.8251785e-15
3.2690003e-15
2.980586e-15
4.4185399e-15
4.1778243e-15
4.0542521e-15
4.24355e-15
3.0749141e-15
3.1442469e-15
3.5264625e-15
3.4836892e-15
4.4066759e-15
4.4750714e-15
3.8913046e-15
4.1174634e-15
3.2188732e-15
3.6539185e-15
3.6147407e-15
3.0721314e-15
4.3591397e-15
4.4336501e-15
4.297961e-15
4.3830934e-15
3.168351e-15
3.0401667e-15
9.2548289e-15
6.3066667e-15
1.6662005e-15
2.3575496e-15
1.5178266e-15
1.4182607e-15
6.3522364e-15
5.5672671e-15
5.9314617e-15
6.0335571e-15
9.3141613e-15
9.8699155e-15
1.0207505e-14
9.4725875e-15
8.7731252e-15
9.9060318e-15
9.5824236e-15
1.0480856e-14
5.6551963e-15
6.0577879e-15
6.2114118e-15
5.8054791e-15
2.3795593e-15
2.3333098e-15
2.7947066e-15
2.8778615e-15
2.1428817e-15
2.2870179e-15
2.6690439e-15
2.6095747e-15
3.0356726e-15
2.9768724e-15
3.330172e-15
3.1925136e-15
3.4061476e-15
3.3019456e-15
3.4047223e-15
3.2269325e-15
2.4967632e-15
2.5173995e-15
2.8904426e-15
2.9378081e-15
2.3424943e-15
2.4481644e-15
2.7988526e-15
2.6673212e-15
3.5410339e-15
3.503036e-15
3.813194e-15
3.6402373e-15
3.4861485e-15
3.3880016e-15
3.6861386e-15
3.5018502e-15
5.7805143e-15
4.6650462e-15
5.9236716e-15
4.7750373e-15
5.0152676e-15
5.1623488e-15
4.8881099e-15
4.7657551e-15
4.8697199e-15
4.9371832e-15
4.6493615e-15
4.6845036e-15
5.5942565e-15
5.6024632e-15
4.5624906e-15
4.5669576e-15
4.8564117e-15
4.5260272e-15
4.463837e-15
4.7568459e-15
4.3217911e-15
4.1154517e-15
4.6219363e-15
4.327392e-15
4.9968008e-15
4.1385537e-15
4.3762127e-15
5.3095234e-15
5.5422137e-15
4.494101e-15
5.4173457e-15
4.3975338e-15
4.96261e-15
4.3833166e-15
5.2366986e-15
4.5806281e-15
5.4953364e-15
4.7605158e-15
5.3777114e-15
4.6776533e-15
5.3149118e-15
4.0216813e-15
5.1902536e-15
3.9415295e-15
4.7828639e-15
3.7187138e-15
5.0729575e-15
3.8734373e-15
5.396905e-15
3.9122035e-15
5.8295793e-15
4.1563972e-15
5.2787585e-15
4.8058295e-15
5.1625624e-15
4.7367987e-15
4.7186878e-15
4.4505173e-15
4.9785473e-15
4.6186961e-15
5.9947372e-15
4.1642992e-15
5.9130095e-15
4.2178374e-15
5.8897452e-15
4.0001329e-15
5.9072051e-15
4.0995992e-15
5.4011622e-15
5.3160464e-15
5.0156644e-15
4.8891744e-15
5.5952589e-15
4.9509393e-15
5.5087165e-15
4.9274729e-15
5.9360993e-15
4.1306622e-15
5.8796642e-15
4.1018063e-15
5.4914827e-15
4.1462112e-15
5.5376821e-15
4.169312e-15
5.5686666e-15
4.8867313e-15
5.5326921e-15
4.8510771e-15
5.6977939e-15
4.9604614e-15
5.7637884e-15
5.0201621e-15
5.3198442e-15
5.2816328e-15
4.035564e-15
4.0039532e-15
5.136334e-15
4.6555359e-15
4.7667969e-15
4.3565293e-15
4.8839088e-15
4.5574939e-15
5.0734075e-15
4.7401074e-15
5.3572986e-15
4.3168164e-15
5.5912329e-15
4.5619188e-15
5.6934519e-15
4.5940191e-15
5.1484156e-15
4.2179531e-15
3.7461008e-15
3.5565522e-15
3.4766363e-15
3.2797103e-15
3.5332058e-15
3.3550904e-15
3.7474167e-15
3.5358661e-15
2.462219e-15
2.5603049e-15
2.8694292e-15
2.9671677e-15
2.5617567e-15
2.3494319e-15
2.7521134e-15
2.9815126e-15
3.4333032e-15
3.2130649e-15
3.6528481e-15
3.4011746e-15
2.3252841e-15
2.4355329e-15
2.8360724e-15
2.6935164e-15
2.3709902e-15
2.4611256e-15
2.7986769e-15
2.7794902e-15
3.3216072e-15
3.2640627e-15
3.5019835e-15
3.3984539e-15
5.4203747e-15
4.4183383e-15
5.6076934e-15
4.5622883e-15
4.7453901e-15
4.5252388e-15
4.8674554e-15
4.647828e-15
4.7119982e-15
4.4148661e-15
4.8826227e-15
4.570253e-15
5.4780291e-15
4.4768912e-15
5.6010279e-15
4.6077624e-15
5.3758302e-15
4.9186486e-15
4.9383538e-15
4.5817458e-15
5.3523448e-15
5.4792963e-15
4.7924048e-15
4.9758327e-15
5.5124233e-15
3.9830905e-15
5.8462716e-15
4.1970203e-15
5.9045167e-15
4.1120374e-15
5.5125294e-15
3.8778156e-15
5.3024338e-15
5.3398016e-15
4.8994561e-15
4.9716831e-15
5.30472e-15
4.7579455e-15
5.3039389e-15
4.8220068e-15
5.5115502e-15
4.0150108e-15
5.74222e-15
4.1576423e-15
5.9588526e-15
6.0470469e-15
4.1864594e-15
4.2498145e-15
5.1778976e-15
3.9462107e-15
5.3522628e-15
4.0719207e-15
5.4483501e-15
5.5148983e-15
4.7185346e-15
4.8425237e-15
5.3991526e-15
5.4709477e-15
4.7328907e-15
4.8347189e-15
5.2176088e-15
5.3134399e-15
3.9877819e-15
4.0984361e-15
5.1641824e-15
5.4190565e-15
3.9254523e-15
4.134337e-15
5.4675452e-15
5.666856e-15
4.7325261e-15
4.9620823e-15
5.1438183e-15
5.6805191e-15
4.9088098e-15
4.5157724e-15
5.3649431e-15
4.9117098e-15
4.0507527e-15
3.760907e-15
2.7611262e-15
2.9726381e-15
2.6633724e-15
3.0673864e-15
2.6833489e-15
2.200336e-15
2.2488335e-15
2.826245e-15
3.2933836e-15
2.9512483e-15
3.3418986e-15
2.9425695e-15
3.0063183e-15
2.437549e-15
2.9955135e-15
2.4228684e-15
4.2753776e-15
3.7163442e-15
3.7112049e-15
4.2092964e-15
4.3888738e-15
4.4464225e-15
3.8683658e-15
3.8351487e-15
2.8280632e-15
3.5746667e-15
2.8340142e-15
3.5884517e-15
3.7395351e-15
2.9554626e-15
3.7808952e-15
2.9755728e-15
3.5904712e-15
3.9495719e-15
3.4344613e-15
4.0968395e-15
3.3342606e-15
2.6567525e-15
2.7333095e-15
3.5147693e-15
3.9098953e-15
4.4937205e-15
3.8557175e-15
4.4937159e-15
3.8065732e-15
3.0016855e-15
3.8157266e-15
2.9690158e-15
3.1620216e-15
2.8285883e-15
2.8384134e-15
3.1870132e-15
2.3630027e-15
2.889429e-15
2.8920815e-15
2.3486894e-15
3.3035703e-15
3.2793337e-15
2.9554713e-15
2.9447021e-15
2.4769673e-15
3.0224171e-15
2.4702389e-15
3.0432304e-15
5.9473475e-15
5.9258684e-15
4.9610991e-15
4.9354371e-15
4.8726988e-15
3.8138396e-15
3.7926393e-15
4.9116618e-15
6.0319438e-15
6.0012721e-15
5.0693252e-15
5.1064582e-15
5.1883333e-15
5.1326623e-15
4.0023904e-15
3.9547074e-15
4.5923362e-15
5.4655714e-15
4.5537912e-15
5.4899744e-15
4.5258298e-15
3.5477212e-15
3.6028981e-15
4.5887917e-15
5.2212142e-15
6.2019588e-15
5.1776759e-15
6.2226036e-15
5.2760164e-15
4.0404688e-15
5.4571804e-15
4.0660293e-15
9.5388767e-15
9.4547362e-15
6.4118577e-15
6.3488744e-15
7.4882958e-15
7.2718361e-15
1.1408156e-14
1.1106941e-14
5.1575731e-15
6.0548219e-15
1.0448921e-14
1.0327616e-14
6.9514386e-15
6.8729501e-15
7.2366936e-15
6.9785158e-15
1.0817969e-14
1.0663541e-14
5.7775188e-15
5.5837615e-15
3.8422542e-15
3.4584292e-15
3.5417512e-15
3.9049448e-15
3.8653219e-15
3.9315651e-15
3.4990768e-15
3.5001075e-15
2.8651637e-15
3.4917924e-15
2.8443118e-15
3.6113038e-15
3.5376851e-15
2.8636567e-15
3.5636698e-15
2.8921579e-15
4.7050969e-15
4.1276185e-15
4.1299115e-15
4.612463e-15
3.1445728e-15
3.9511753e-15
3.1479038e-15
3.9753436e-15
3.9908778e-15
3.1272109e-15
4.0281277e-15
3.163872e-15
4.5421553e-15
5.0015196e-15
4.3828188e-15
5.1292799e-15
4.2746318e-15
3.3997023e-15
3.4571055e-15
4.4390189e-15
4.5467505e-15
5.1647718e-15
4.4993846e-15
5.1432872e-15
4.4330494e-15
3.5167042e-15
4.4229651e-15
3.4585835e-15
3.5197548e-15
3.1762521e-15
3.1946359e-15
3.553071e-15
3.5177704e-15
3.1430575e-15
3.4841705e-15
3.1117164e-15
2.6385633e-15
3.2311727e-15
2.6399434e-15
3.2437128e-15
3.2480127e-15
3.2939258e-15
2.6737444e-15
2.6356673e-15
6.4228224e-15
6.3570492e-15
5.3846238e-15
5.3322492e-15
5.2631492e-15
4.165862e-15
4.1274799e-15
5.3310745e-15
5.7276267e-15
6.7864961e-15
5.7001747e-15
6.7852329e-15
5.6769528e-15
4.4447479e-15
4.4775745e-15
5.6826347e-15
5.9130573e-15
6.8214994e-15
5.9079157e-15
6.7712516e-15
5.9518909e-15
4.6132846e-15
6.1210918e-15
4.6127907e-15
1.8393628e-15
1.7866758e-15
1.7969653e-15
1.7516298e-15
1.8438556e-15
1.8298075e-15
1.9063679e-15
1.8658079e-15
2.1998815e-15
1.5144768e-15
2.2094512e-15
1.5029981e-15
1.5606407e-15
1.5437317e-15
2.1948518e-15
2.3012187e-15
1.5821413e-15
1.6662933e-15
1.5646294e-15
1.6457926e-15
1.5283804e-15
1.5324125e-15
1.4894663e-15
1.4835953e-15
1.524732e-15
1.5320949e-15
1.3669932e-15
1.3520738e-15
1.4236664e-15
1.4498994e-15
1.6168903e-15
1.7123141e-15
1.5651199e-15
1.6341207e-15
1.5424123e-15
1.6172592e-15
1.6810785e-15
1.5894343e-15
1.6496673e-15
1.699667e-15
1.6069809e-15
1.4149107e-15
1.6245545e-15
1.4047269e-15
1.4415512e-15
1.466904e-15
1.6390372e-15
1.7344308e-15
1.8410303e-15
1.8131572e-15
1.7944726e-15
1.8440505e-15
1.7062285e-15
1.7275419e-15
1.80211e-15
1.7591429e-15
1.5796711e-15
2.2051823e-15
2.2178801e-15
1.5366618e-15
1.5509832e-15
1.5513173e-15
2.2578621e-15
2.2253005e-15
2.2590232e-15
2.5107449e-15
2.2769131e-15
2.4784073e-15
2.27068e-15
1.8446195e-15
1.8358807e-15
2.2456916e-15
2.3727481e-15
2.6125423e-15
2.3672667e-15
2.6028658e-15
2.3682363e-15
1.9179961e-15
1.9201277e-15
2.3620554e-15
2.0553274e-15
1.8677429e-15
2.0851075e-15
1.8806208e-15
1.8923071e-15
1.8844275e-15
1.7243905e-15
1.7389181e-15
1.7429144e-15
1.7254589e-15
1.4246524e-15
1.4339182e-15
1.5463628e-15
1.5369074e-15
1.9012067e-15
1.8770616e-15
2.4048884e-15
2.3505213e-15
2.1401783e-15
2.1637657e-15
2.1403609e-15
2.1225174e-15
1.7222795e-15
1.7361015e-15
2.3210496e-15
2.596701e-15
2.3351909e-15
2.5712768e-15
1.901896e-15
2.3554713e-15
2.3269123e-15
1.8821567e-15
1.8510583e-15
2.0338012e-15
1.8575989e-15
2.013202e-15
2.0952086e-15
1.9137353e-15
1.9126759e-15
2.0907512e-15
1.8717267e-15
1.5321806e-15
1.8754736e-15
1.5272452e-15
1.5793975e-15
1.5834808e-15
1.9399709e-15
1.9482587e-15
1.9736822e-15
1.8554183e-15
1.9181695e-15
1.9472093e-15
1.9611264e-15
1.8261663e-15
1.8932527e-15
1.9616303e-15
1.8945545e-15
1.6638542e-15
1.6946392e-15
2.0145433e-15
1.8848161e-15
1.6487529e-15
1.6717122e-15
1.9838468e-15
2.0776412e-15
2.0930878e-15
2.1080592e-15
2.1248006e-15
2.0524303e-15
2.0469437e-15
2.0821838e-15
2.098842e-15
2.5732759e-15
1.7637235e-15
1.7798566e-15
2.6130461e-15
2.5267238e-15
1.7458881e-15
1.7423565e-15
2.4910583e-15
1.9146475e-15
1.9244277e-15
2.0264562e-15
1.9781249e-15
1.8781648e-15
1.916258e-15
1.901848e-15
1.8900161e-15
2.2674478e-15
1.6092708e-15
1.6426335e-15
2.487842e-15
2.2176157e-15
2.2747431e-15
1.6051629e-15
1.5708195e-15
1.7890714e-15
1.6812065e-15
1.7404889e-15
1.820244e-15
1.7619759e-15
1.797527e-15
1.7123796e-15
1.6779579e-15
1.7049918e-15
1.4996062e-15
1.5397523e-15
1.8214072e-15
1.6901344e-15
1.7269271e-15
1.5022807e-15
1.4725214e-15
2.276003e-15
2.0835974e-15
2.0829551e-15
2.2396767e-15
2.2515207e-15
2.3015287e-15
2.1048451e-15
2.0636047e-15
2.0773349e-15
1.6872144e-15
1.6692543e-15
2.0692942e-15
2.048938e-15
2.0955491e-15
1.6963638e-15
1.6543725e-15
3.0613048e-15
3.0731188e-15
2.7930416e-15
2.7770191e-15
2.7757444e-15
2.7432247e-15
2.2495204e-15
2.2250768e-15
3.0846198e-15
2.7921697e-15
2.7681974e-15
3.0483164e-15
2.2734862e-15
2.2440994e-15
2.8080661e-15
2.7649526e-15
2.4852482e-15
2.2820884e-15
2.2552929e-15
2.4393713e-15
2.4954308e-15
2.2790684e-15
2.252562e-15
2.4618254e-15
2.3000203e-15
1.8735256e-15
1.8544829e-15
2.2647748e-15
2.3125363e-15
1.8716671e-15
1.8462042e-15
2.2910426e-15
2.7964273e-15
2.5536911e-15
2.787325e-15
2.5305028e-15
2.5044475e-15
2.5363362e-15
2.0640982e-15
2.0429086e-15
2.8055953e-15
2.5526132e-15
2.845444e-15
2.5855667e-15
2.0889274e-15
2.5780691e-15
2.5312052e-15
2.052888e-15
4.8175983e-15
4.2678507e-15
4.4005478e-15
3.8806386e-15
4.9197285e-15
4.4890795e-15
4.6859519e-15
3.877729e-15
4.6425839e-15
4.1408057e-15
4.18707e-15
3.7002202e-15
4.9716338e-15
4.2912356e-15
4.6216511e-15
4.0062969e-15
4.4191606e-15
4.6389406e-15
4.3277965e-15
3.9342233e-15
7.6671669e-15
6.9275477e-15
7.2329368e-15
6.1795426e-15
4.1615082e-15
3.9972012e-15
4.2556338e-15
4.2985419e-15
4.7339904e-15
4.3699081e-15
4.1229901e-15
4.5509451e-15
5.6466747e-15
4.764488e-15
4.7711118e-15
4.1444187e-15
7.2398525e-15
7.157172e-15
7.7619457e-15
7.3616753e-15
1.2557155e-14
1.4088693e-14
1.5949383e-15
1.7561456e-15
9.6011375e-16
9.4961019e-16
8.1223028e-15
7.5894505e-15
7.2949991e-15
6.7482261e-15
7.3322474e-15
7.0613253e-15
6.2600934e-15
6.6495373e-15
4.5682452e-15
8.7468851e-16
1.1689915e-14
1.1645142e-15
1.2979513e-15
2.5708227e-15
4.4635757e-15
2.2243261e-15
6.5416033e-15
7.062312e-15
3.5415319e-15
7.3903147e-15
6.7210627e-15
4.3404241e-15
6.097683e-15
5.6307716e-15
8.9836582e-15
6.4216011e-15
1.0096263e-14
3.7186318e-14
2.0127185e-14
1.8604206e-14
4.3119996e-14
1.8840342e-14
1.8947298e-14
8.6052177e-15
6.4299256e-15
4.8821976e-14
2.0337288e-14
1.9240906e-14
3.9711929e-14
1.8474526e-14
2.0044444e-14
1.4748495e-14
1.3627073e-14
2.9999891e-14
3.2411754e-14
1.0079757e-14
9.8795319e-15
1.0088878e-14
9.7591429e-15
1.3421087e-14
1.3917396e-14
9.1736848e-15
9.0305259e-15
2.4869886e-14
2.4429973e-14
1.0640589e-13
9.5580555e-14
7.6796201e-15
1.9987946e-14
8.0966634e-15
2.1175703e-14
1.406262e-14
1.3369249e-14
9.1062822e-15
9.3141726e-15
8.0921096e-15
7.8375643e-15
2.1414299e-14
2.0671212e-14
1.3740677e-14
1.3420366e-14
8.9151893e-15
9.0476069e-15
1.4183116e-14
1.3407752e-14
8.9752469e-15
9.1746747e-15
7.8006466e-15
8.092956e-15
2.1414383e-14
2.139008e-14
8.1294507e-15
7.8021164e-15
2.176249e-14
2.056189e-14
9.7544097e-15
9.7843624e-15
9.8797352e-15
1.0155442e-14
8.8410055e-15
1.3612735e-14
1.2908166e-14
8.8858997e-15
7.7251705e-15
7.4895533e-15
2.1054641e-14
2.1291239e-14
1.359318e-14
1.3248194e-14
8.9206872e-15
8.7537719e-15
7.6353638e-15
7.9809522e-15
2.2204465e-14
2.0460218e-14
1.3064736e-14
1.3810872e-14
9.0588393e-15
8.8998852e-15
1.3610786e-14
1.3236685e-14
9.0757459e-15
9.2101866e-15
8.2023224e-15
7.81839e-15
2.2476619e-14
2.074103e-14
7.8348694e-15
2.1408059e-14
8.1403677e-15
2.2107422e-14
6.3366896e-15
6.431113e-15
1.6725206e-14
7.9897425e-15
8.130814e-15
6.2023771e-15
6.3225803e-15
1.6350155e-14
7.9330055e-15
7.9705968e-15
6.349126e-15
6.3614517e-15
1.5060409e-14
8.088859e-15
7.7883353e-15
6.459833e-15
6.5392139e-15
1.5963713e-14
8.6158852e-15
8.2389712e-15
9.6977142e-15
1.1151427e-14
1.5569079e-14
1.3492132e-14
7.2619219e-15
7.1907116e-15
1.1091953e-14
1.1844515e-14
1.5790443e-14
1.4576339e-14
7.1107666e-15
7.3355013e-15
1.0655582e-14
1.1577323e-14
1.4140282e-14
1.5533084e-14
7.1644601e-15
7.4028905e-15
1.0020069e-14
1.1343877e-14
1.3831125e-14
1.5726451e-14
7.2544902e-15
7.1672124e-15
1.0867279e-14
5.2377372e-15
1.0493543e-14
5.07552e-15
5.4884224e-15
1.0982569e-14
1.1278431e-14
5.5027479e-15
3.475128e-15
2.9669983e-15
3.0869352e-15
3.4333352e-15
4.2018887e-15
3.2020905e-15
3.1764571e-15
3.2293416e-15
3.0842207e-15
3.1379435e-15
3.2627864e-15
3.2625461e-15
3.2788322e-15
3.1405106e-15
3.0687944e-15
3.1932238e-15
3.0173993e-15
3.0875877e-15
3.5396539e-15
3.8214449e-15
3.2152718e-15
3.0902333e-15
3.1703822e-15
3.2838738e-15
3.9551408e-15
3.0760288e-15
3.0318782e-15
2.9228889e-15
3.291901e-15
3.060463e-15
2.9888527e-15
3.2231983e-15
5.3848235e-15
1.0721882e-14
1.0868307e-14
5.3697157e-15