/*--------------------------------*- C++ -*----------------------------------*\
  =========                 |
  \\      /  F ield         | OpenFOAM: The Open Source CFD Toolbox
   \\    /   O peration     | Website:  https://openfoam.org
    \\  /    A nd           | Version:  7
     \\/     M anipulation  |
\*---------------------------------------------------------------------------*/
FoamFile
{
    version     2.0;
    format      ascii;
    class       volScalarField;
    location    "2000";
    object      omega;
}
// * * * * * * * * * * * * * * * * * * * * * * * * * * * * * * * * * * * * * //

dimensions      [0 0 -1 0 0 0 0];

internalField   nonuniform List<scalar> 
33943
(
2111.9388
3980.0116
689.52224
729.55778
425.65422
4669.8661
9582.6629
2117.8887
3997.2176
4038.4788
696.86047
701.63681
7531.3949
1741.4591
1767.2448
7818.1495
568.96821
632.23189
740.75459
733.34319
349.24078
1962.6833
1934.7045
439.07094
340.40646
380.90743
380.96716
340.37766
4738.2656
1181.7298
1182.9242
9691.0511
9648.2808
1925.3961
575.0883
4537.0583
4583.775
19082.646
19345.534
3964.7334
4000.34
706.08334
700.16273
7592.9177
7836.2046
1773.3649
1749.4412
7830.2953
7804.4455
1789.2984
1806.3598
13275.399
4254.6461
12952.798
4230.974
13899.963
13496.983
4468.9001
4378.828
305.04092
574.40165
636.99139
577.08835
644.06736
1414.1733
1252.3601
1419.0218
1240.5538
1737.4978
1724.4451
1759.9467
1739.2152
1971.4743
1997.7544
1940.7767
1970.9794
739.05893
352.58536
736.81726
304.99839
303.58616
326.75966
329.16885
4973.7235
4882.6722
4742.567
4759.0293
340.39797
339.55072
375.57373
377.22745
332.07319
344.60885
340.3085
324.89618
1189.3103
1188.9652
9801.9705
9772.5333
583.15433
579.7999
1959.4916
1970.9522
579.51888
1941.9517
1980.3601
586.55209
4602.6201
4617.3922
19481.841
19303.309
4551.0298
4633.7376
19380.308
19292.485
2065.6844
600.26353
3465.4806
3507.0019
6793.922
6738.3169
3526.5212
6848.4749
13247.077
13254.5
33227.608
33629.466
13382.972
33973.124
33758.453
754.31837
7672.7326
7440.4587
1752.6634
1777.08
7622.1633
1787.6544
7761.9972
1786.1516
12937.416
13485.055
4218.4394
4307.4983
13856.581
13593.916
4447.712
4410.1575
13589.026
13703.899
4401.6542
4408.4003
13772.178
13377.173
4404.6535
4443.5757
21778.567
21839.65
7936.8243
8046.1309
20657.906
21644.772
7759.2662
7889.2401
22667.096
22928.731
8411.5466
8416.626
8154.3918
22285.356
21990.62
8194.9821
307.77706
644.66913
578.58784
580.88684
270.60891
290.98599
289.57465
269.15789
638.95838
1265.4003
1255.0564
1428.7137
1422.1812
1733.354
1741.7676
1768.0875
1749.1929
1463.0963
1288.2513
1253.3534
1424.5607
1795.4946
1762.4005
1744.872
1782.788
4008.4639
3797.2766
3834.8961
3978.2903
3166.8438
3203.6075
2880.1817
2833.1419
4162.9001
3876.989
3962.9543
4079.138
3220.4121
3285.4884
4476.3847
4943.8683
4938.0538
4470.7999
4565.157
4490.3618
4591.079
4476.3936
5183.3802
4680.5005
4599.1394
5076.9937
4607.1989
4787.5101
4697.0198
4686.0509
4893.0685
4908.5835
4915.1382
4954.3051
4829.9124
1972.3883
4725.7745
4908.5887
4965.0453
1971.7935
763.74716
304.64499
327.31505
328.28182
306.21297
1955.9373
1926.3812
305.65695
302.15554
309.57408
317.93647
9175.2528
9198.6514
8914.3589
8964.4091
8497.3249
8673.6121
8667.9757
8808.3048
327.25644
326.22577
339.45278
340.18654
403.96845
399.88754
399.09287
384.69697
453.78588
453.10782
428.69699
587.97106
589.68627
1987.4116
1975.9298
584.9184
589.71777
1989.4356
1971.7356
4624.5132
4648.7704
19484.399
19697.681
4607.2159
4635.8469
19550.973
19512.299
608.51724
604.67827
2103.1889
2118.7898
604.3664
2082.6397
2126.4238
609.61652
3540.1004
3526.1328
6845.035
6848.9763
6849.1742
3533.3183
3558.8977
6875.4377
13447.56
34107.129
33975.67
13466.616
13443.231
13473.511
33314.817
33979.803
3502.2206
3477.3914
6780.3098
6748.8992
6898.716
3567.3974
3561.8696
6867.3601
13425.259
13420.93
34017.978
33677.062
13286.18
13307.96
33750.754
34034.651
2136.9326
4047.8552
3997.194
583.2763
585.47422
2158.0894
4070.1387
7467.0325
7408.1633
7521.5332
12682.349
12753.445
18938.601
18720.252
18993.225
12671.93
12771.702
18829.766
48395.912
49522.433
29284.854
29831.032
29867.274
49659.944
29560.798
49560.224
12809.37
12894.565
18891.497
19128.151
29749.111
49929.898
30210.19
50289.899
30006.34
49952.654
7768.3039
1881.5174
13702.724
4438.2843
13049.929
4309.1155
13291.839
4287.7604
12538.328
4145.7243
13489.23
12961.124
4366.3986
4296.3253
13422.063
4383.6756
13654.274
4410.5514
20579.148
21658.401
7732.8139
7888.0934
22193.843
21972.549
8096.5906
8115.3008
8355.8257
22557.496
22867.04
8366.2607
22384.193
22092.134
8224.1882
8184.8485
21979.82
22383.413
8183.9604
8157.7985
22446.949
22377.929
8266.6088
8186.0325
22263.88
22798.457
8339.0019
8245.8756
22415.104
21172.762
8039.7261
8214.2572
39279.397
38779.403
11516.554
11553.332
39379.078
38836.351
11662.077
11636.804
11077.204
35861.809
37450.426
11182.043
38614.14
39277.745
11514.68
11507.904
39857.147
40818.609
12065.9
12163.325
12254.401
41609.814
40646.326
12205.093
40179.472
39696.698
11804.554
11832.068
38609.466
39927.293
11805.297
11758.106
597.48305
270.34332
272.5994
293.4227
291.30734
665.52185
1767.7518
1778.0339
1769.655
1756.9015
1265.4715
1433.5599
1264.796
1415.8803
1266.1111
1455.4842
1286.997
1434.932
275.37742
288.71465
284.39012
271.02417
1722.3413
1761.0411
1728.545
1746.9615
2887.9032
2872.0288
3181.3967
3223.9788
2882.7562
2858.1773
3246.4534
3217.7658
4124.0322
3910.6462
3867.6006
4081.175
3869.7147
3807.1544
3980.3596
4053.898
4565.5089
4656.1028
4556.1782
4463.6931
4449.5339
5025.9532
4918.6287
4542.3219
4667.0495
5096.0024
5166.3026
4619.4511
4675.0635
4691.5509
4749.153
4622.5206
4003.4794
3965.1287
4158.227
4183.2887
3348.479
3297.7789
2940.5034
3004.1244
3251.2207
2866.3955
2904.3983
3213.5784
4106.9179
3864.0115
3908.5964
4064.5293
5135.9015
5165.178
4659.8818
4636.9651
5072.1206
5107.6804
4617.0069
4597.8652
4630.0929
4718.7601
4673.2292
4594.3112
4683.9877
4776.3915
4782.4417
4676.6327
9346.4182
8967.933
9715.904
9274.3933
8955.9714
9162.4187
8779.7424
8976.139
8813.9569
8653.5715
9203.8739
8988.5696
9481.1784
9089.3325
9706.6018
9295.9036
7977.6005
8105.9414
8159.576
8283.4102
7841.8516
7978.351
8215.1527
8321.6712
6664.2583
6951.7252
5563.3797
5780.2547
6766.8909
6917.1892
5771.6614
5628.6427
10141.12
10202.501
9738.3348
9773.2174
9221.5331
9056.4326
9212.0193
9548.48
9383.4186
9613.9823
9427.8359
9783.4743
9948.769
9392.1007
9535.9078
8194.1612
8342.8899
8492.2237
8641.5727
8551.9171
8687.6412
9252.2536
9429.0651
8332.1741
8472.858
9764.7439
9496.3549
8749.9353
8959.937
9658.8227
9865.1531
8903.3888
9070.2479
9303.5742
9082.2627
8185.6577
8348.8489
9714.5189
9284.3405
9946.3815
9487.9549
10016.029
9709.1799
9061.6529
9307.1351
9576.6323
9153.8325
9914.3544
9432.3673
9858.71
10083.337
9203.6261
9393.0812
10345.554
10369.261
9507.5184
9520.122
9854.2036
9877.7007
8843.8877
8856.1204
9543.8831
9621.5042
8577.8376
8641.6484
9982.7113
10080.508
9193.9407
9274.1796
10198.416
10319.624
9523.0759
9620.2951
10411.852
9958.464
10460.809
9982.3508
10574.443
10609.438
9873.1938
9883.5669
10040.235
9607.1181
10186.789
9728.2497
8939.9659
9049.2761
8942.1186
8971.5462
9018.2926
8787.2266
9024.8453
9142.7987
8888.8771
8914.6809
4897.779
4807.4828
8471.5554
8663.0319
8956.5402
9007.0464
9164.2503
9174.698
4899.7468
4927.2123
2040.7085
299.46764
312.03644
313.51015
303.06836
4955.0031
4792.9917
4784.6281
4633.4291
410.43081
402.71589
380.90268
428.31403
12810.573
12962.018
12996.549
13051.642
12614.178
12555.719
12586.767
12516.312
11754.371
11901.866
12270.374
12258.461
12234.284
12302.673
12392.774
12406.676
391.10916
397.85911
410.02595
400.90909
497.82164
498.3803
490.00757
475.02115
457.31041
459.29459
433.04954
432.86661
607.44415
602.6946
2010.5859
614.10996
615.92299
2138.6713
2122.5228
610.61551
613.04293
2137.2609
2117.3982
4673.9886
3550.2352
6869.2899
6873.3087
3549.9423
3564.903
3570.3821
6919.2938
6886.8927
13508.195
19936.223
33530.47
13482.208
34147.54
13520.403
13617.664
34372.895
33939.391
3530.8142
3537.7283
6853.1689
6818.7833
3566.4743
3558.0679
6844.4967
6901.8479
13426.012
33756.723
13510.147
34193.14
13535.173
13456.082
33570.407
34037.122
592.8437
588.29897
2173.6801
4079.7659
4067.5556
2185.0399
4069.3575
4094.7508
588.20465
2150.7916
4036.606
4006.3354
2197.8415
4119.1174
4092.8727
593.94597
7518.0317
7514.6831
7509.745
7541.0938
12916.567
12836.241
18991.404
19184.542
30221.836
30585.968
49969.135
50440.447
30319.781
49961.156
29960.35
49824.782
12932.606
12860.424
19063.495
19257.947
12784.715
12897.852
18963.398
19221.225
12950.777
12853.772
19287.695
19087.274
29901.69
30511.14
48317.228
49606.265
30689.044
30148.437
50054.143
49697.052
7444.3945
7411.0985
7571.4496
7530.28
18914.896
12839.765
12926.275
19126.08
19102.962
12810.46
12891.857
18925.632
29837.127
30247.802
50381.592
49858.962
29464.272
50109.502
48905.729
29984.077
12705.712
18824.043
19060.281
12790.175
12797.248
12717.504
19072.769
18904.576
29745.521
30168.336
49543.923
50122.47
30145.397
29835
50177.484
50028.304
3945.1458
3995.1257
2116.9314
4683.0602
4604.42
4016.8784
2133.7787
4692.3422
6205.1299
6244.0741
10538.053
10497.641
16099.428
15903.116
6136.8967
6149.8714
10501.026
10377.519
16126.18
15922.043
6238.7599
6260.0723
10554.369
10621.592
16064.473
16264.071
19529.376
24032.499
19527.548
23963.657
19318.551
19218.121
23540.159
23813.041
19557.791
19608.15
24157.613
23993.065
23901.068
19364.05
19327.97
23752.834
53701.607
66143.628
67355.592
54842.5
55851.175
67788.703
67462.03
55529.222
27939.758
27557.568
42199.391
40786.537
28063.022
28147.059
42299.458
42652.829
28077.174
28307.607
42307.719
42817.62
55671.16
67216.039
67735.187
56010.345
42500.772
28046.3
27833.542
41523.289
67531.317
66709.849
55489.638
55773.486
19488.567
19407.221
23756.274
23982.45
19709.164
19713.4
24219.374
24151.807
28131.253
27817.65
42194.236
43301.324
55657.376
67185.97
67903.501
56118.522
28263.818
28351.876
43529.723
42828.664
67348.289
67898.048
56372.11
56001.125
28374.685
28160.066
42468.031
42862.371
55624.597
66954.863
67550.267
56042.241
13162.477
13675.258
4528.9107
4464.0442
8355.9483
22610.842
22480.523
8269.8186
21648.191
21165.707
7915.3611
7928.1775
21902.386
21896.515
7970.789
8066.6606
19923.18
21160.329
7498.5625
7688.9411
21985.264
22322.502
8132.707
8175.7267
21527.598
20820.62
7919.9207
7870.0092
21646.458
22316.116
8072.3638
8159.1409
22559.333
8233.8069
22337.932
8269.5871
37455.873
35700.517
11068.077
11176.973
38814.556
39215.168
11519.663
11520.207
40289.235
39598.434
11804.905
11864.011
39122.745
39925.887
11784.916
11771.1
40823.89
39848.706
12086.566
12135.804
40729.751
41557.959
12230.467
12188.603
40319.801
39937.073
11884.354
11914.494
39022.102
40080.998
11883.2
11840.459
39784.935
38686.422
11724.511
11787.023
39838.616
40648.71
11942.086
11915.26
40506.111
39933.692
11883.854
11936.987
39604.459
40594.623
11981.654
11956.37
40190.746
39095.965
11842.014
11924.489
40594.483
41271.281
12169.346
12150.123
40206.597
11951.444
40211.274
11946.453
38386.693
36690.233
11529.761
11434.302
41511.814
40977.444
41729.593
41105.211
38013.554
39616.87
40918.029
41608.333
42208.855
43219.093
44018.254
43063.136
42579.601
42043.172
40967.231
42354.703
1327.2744
1505.2494
270.75607
275.56907
285.54775
283.39528
1827.7994
1843.4849
5131.7705
5116.9247
4611.8375
4637.5378
5026.5027
5122.728
4537.8923
4608.3909
4643.2292
4739.0515
4577.1231
4672.7037
4637.5299
4731.4923
4730.6062
4650.4975
2843.8919
3135.843
2867.7752
3199.7613
3843.4959
3979.3984
4170.9722
4037.4023
3207.4939
3302.1995
2940.8692
2864.1082
3838.1613
3747.7893
3909.1493
4024.4217
2901.5097
2915.5016
3254.8093
3253.1556
3902.7865
3930.2565
4086.8787
4123.211
2922.1119
3265.2135
3269.0891
2931.4768
4113.3464
3910.5941
4116.3179
3912.3924
244.21741
251.06484
258.10174
263.19445
382.8506
393.01809
358.09597
351.08996
4522.0802
4482.4788
4621.1036
4372.4821
4990.549
5181.3313
4661.8117
4518.5838
4818.2385
4984.3721
4355.7322
4503.2291
4623.7933
4797.1316
4693.6443
4537.7233
7064.6305
7012.6314
5849.8431
5884.8013
6664.7345
6873.5936
5711.8761
5554.3906
7846.5919
7971.087
8117.3862
8228.8508
8322.3655
8444.0702
8259.0214
8392.5079
7022.8453
7100.814
5879.2273
5843.3543
6875.5844
7011.8147
5825.2113
5677.1228
8270.8501
8446.044
8386.3494
8545.7488
8108.8574
8282.8376
8254.0143
8418.6434
9959.9592
9595.4353
10062.146
9659.4487
9342.3396
9464.159
9293.5203
9204.2776
9163.1732
9304.6733
9018.627
9150.2795
9748.6281
9885.4999
9379.5871
9506.4311
9330.9751
9130.6646
9099.4895
9280.984
8807.6872
8627.8267
9105.8236
8894.2194
9318.9148
8935.234
9196.4668
9619.9318
9861.9636
9436.0358
9839.4066
9428.9733
9544.4238
9114.3557
9838.2895
9368.6603
10085.877
9617.0317
10088.35
9626.7272
10214.2
9510.8499
10230.233
9531.2785
9668.7275
9020.3054
9955.7889
9262.6852
9046.5841
8149.825
9276.1897
8326.8215
9981.4025
9165.2912
10006.631
9193.1924
9458.7623
8707.7484
9725.4199
8924.3167
9520.3547
8542.6228
9552.2772
8574.9575
9826.7062
8820.5252
9838.2696
8824.9303
10011.935
10110.004
9221.573
9306.3816
10286.699
9467.1092
10303.226
9472.9462
9574.9804
8611.2341
9656.0469
8677.2707
10473.95
9804.6356
10514.482
9814.7949
10032.47
9613.0799
10162.515
9729.1759
10271.872
9850.9078
10343.651
9887.7473
10210.185
10326.256
9547.1945
9647.2877
9711.7578
9282.2374
9490.7037
9096.2761
9373.8429
9208.5791
9608.1406
9415.7111
9949.8377
9551.6561
10190.902
9753.7508
10229.98
9765.689
9795.1215
9380.2335
8690.568
8803.9974
8294.6237
8423.2374
8329.795
8479.2343
8541.1271
8674.5393
7070.9371
7232.4938
5886.936
6024.0189
7386.4943
7060.8104
5910.5258
6169.6403
8243.9254
8381.6683
8375.2926
8492.7052
6906.0616
7072.774
5905.616
5738.1547
6992.139
7083.0399
5876.3037
5815.9494
8139.4104
8287.2305
8331.9219
8476.7267
9841.1042
9449.8147
9936.3392
9504.7898
9162.2929
8996.6201
9376.7828
9201.9984
9268.2845
9097.4595
9395.0017
9188.135
9720.9125
9334.3678
9950.5073
9545.1102
10199.064
9847.4856
9348.6233
9077.1036
10127.563
10309.16
9316.7141
9458.9204
9666.3425
8688.7967
9815.4609
8798.3702
9692.5432
8683.4176
9409.0106
8474.2132
9960.5958
10146.538
9181.0812
9332.8859
10038.866
9230.8625
10064.828
9251.7237
9580.124
8609.7493
9607.0767
8629.6403
9539.5919
9691.9798
8588.6131
8707.8498
10257.948
9576.3843
10295.286
9591.8142
10103.454
10164.161
9660.65
9692.3317
9982.2617
10212.291
9552.8693
9755.5068
10149.422
10364.009
9488.0682
9668.3252
10355.899
10566.884
9665.8454
9830.0184
10208.776
10438.732
9758.6632
9947.3497
9993.5656
10414.159
9906.8259
9540.3154
10493.527
10094.9
9746.3318
9412.8299
14151.605
14764.388
14166.333
14760.213
14660.87
13974.378
13967.945
14664.181
15702.223
15019.86
15659.337
14987.621
15524.971
14752.672
15566.371
14783.712
16097.008
15156.819
15036.457
15977.325
16429.431
16346.122
15409.08
15493.116
14649.556
15637.984
14778.85
15523.099
16010.96
15131.492
15902.897
15029.122
14622.501
15525.507
14648.692
15508.582
15111.721
14300.769
14278.476
15103.735
15627.995
16583.146
15588.292
16623.361
16082.783
15160.809
16129.435
15197.445
15260.945
14637.405
14506.908
15134.737
14456.778
15044.57
15168.289
14326.66
15520.963
15644.447
14892.386
15004.506
14701.222
15563.548
14815.382
15431.327
18219.029
18104.173
16593.339
16449.56
16867.678
15673.39
15531.837
16996.663
18477.819
18492.768
16857.627
16835.025
17245.044
17291.56
15906.607
15962.522
15888.219
17469.933
15944.389
17434.155
16344.468
15104.753
15062.048
16310.393
17154.65
18876.201
17142.924
18886.831
17555.914
16143.131
17580.482
16167.337
18744.966
18766.65
17119.082
17080.969
18525.13
18526.222
20381.365
20390.362
17974.996
19561.281
19593.028
19567.385
17874.015
17763.703
18131.992
18138.384
19874.674
19885.524
19042.391
18767.647
16346.781
15725.581
15626.076
16266.989
16577.685
16539.585
15879.973
15908.16
15463.742
16305.445
15568.831
16215.573
16508.333
15719.608
16473.032
15695.881
16643.742
15696.569
15590.507
16538.583
15221.386
16206.947
15337.727
16104.685
16413.959
15518.457
16393.699
15495.369
16041.061
17027.73
16120.497
16972.353
16653.657
15807.563
15716.355
16586.798
16378.941
17312.029
16345.471
17339.804
16891.246
15988.474
16933.033
16021.293
15847.164
15211.412
15090.974
15732.161
15998.059
15346.174
16017.485
15361.122
14919.647
15771.285
15040.836
15655.494
15906.141
15898.482
15148.684
15150.004
18720.218
18622.978
17095.967
16972.416
17412.607
16194.59
16071.011
17524.58
17342.537
19019.351
17417.972
18976.371
17852.564
16554.045
16477.21
17800.61
17752.295
19447.335
17761.573
19434.72
18206.701
16828.304
18210.969
16838.535
12048.136
12740.73
12073.12
12710.531
12903.216
12224.963
12311.102
13005.838
12308.52
11679.535
12307.503
11696.075
11822.838
11867.961
12462.942
12548.421
13237.125
13947.734
13205.116
13974.87
13399.229
13319.799
12664.479
12721.032
12974.099
12908.732
12120.367
12162.714
12574.9
12613.952
13446.696
13487.312
13063.386
13830.488
13111.573
13775.493
14024.578
13298.176
13395.128
14128.225
13357.817
12521.474
13320.038
12481.508
12687.062
12781.115
13546.478
13656.282
12139.265
12785.498
12099.674
12829.949
12385.464
12336.257
11703.372
11739.288
11290.816
11972.421
11922.322
11355.147
11691.862
11707.222
12333.096
12373.865
14290.486
14959.363
14401.271
14844.16
14933.899
14263.66
14159.599
14834.995
14763.255
15211.24
14646.808
15346.029
15186.144
14492.458
14600.496
15318.434
14972.985
14281.025
14955.58
14278.394
14249.502
14167.849
13545.365
13624.786
13978.49
13858.923
13062.512
13133.044
13705.534
13711.688
14642.218
14643.255
14459.937
14442.368
13904.877
13920.574
14441.638
14391.799
13740.902
13782.908
14688.612
15261.8
14662.908
15298.76
14477.172
15199.498
15228.644
14492.161
14017.634
14741.794
14101.542
14649.447
14975.023
14328.61
14413.096
15090.391
14469.272
13583.873
14405.174
13507.616
13778.481
13853.45
14702.662
14786.037
14831.289
14017.112
14000.132
14821.594
14955.836
14119.231
14106.138
14927.808
14230.919
13298.273
13289.436
14227.991
14347.407
13391.937
13393.098
14340.28
13488.337
12760.273
12762.718
13491.694
13592.225
12850.664
12857.246
13595.495
12973.99
12279.916
12330.714
13003.647
13089.253
12418.81
12396.014
13092.96
13134.866
12435.735
12406.104
13102.287
13180.137
13172.033
12468.435
12480.339
12665.588
11999.287
12002.753
12651.664
12705.853
12700.674
12035.336
12015.851
14336.565
13565.638
13520.799
14287.574
14339.687
14376.776
13611.248
13598.26
13802.941
12922.444
12884.512
13765.586
13847.242
13853.414
12963.913
12970.147
15355.485
14684.837
14617.457
15278.488
15382.71
15429.975
14754.18
14704.137
15065.773
14108.4
14041.356
15015.54
15062.666
15131.385
14148.546
14095.784
16119.374
16030.214
15536.291
15444.431
16109.73
16043.397
15393.11
15320.37
16259.896
15653.541
15666.43
16286.522
15504.234
15502.202
16246.905
16259.603
15904.051
15212.276
15173.77
15859.549
16037.662
15340.678
15312.792
16029.851
15598.384
14612.112
14577.017
15593.244
15761.875
14726.483
14677.916
15718.019
15573.184
14997.659
15459.825
14887.267
15460.219
15556.281
14861.452
14764.503
15667.395
15079.953
15674.895
15094.521
14939.504
15650.145
15623.57
14909.244
12625.461
12700.036
12747.832
12710.7
12445.873
12541.379
12704.335
12667.831
12724.947
12734.9
12275.429
12143.405
12575.415
12693.769
12949.146
12931.077
12640.584
12544.232
12552.028
12525.083
8966.3745
9018.6681
8740.9412
8650.1921
11741.04
11895.815
12268.791
12263.272
12630.342
12682.627
12591.42
12651.173
12839.371
12920.457
13023.488
12969.967
8994.4319
8896.7651
9053.2987
9107.8274
4950.0525
5041.682
377.82384
384.71723
390.07324
407.97176
9198.2994
9081.4159
8731.5177
8699.1773
8762.3384
8875.9905
8246.968
8469.3288
536.81561
499.61898
476.79197
545.43036
474.94693
478.02332
507.76082
502.92187
436.53175
437.90506
406.16748
614.44172
608.73683
405.96212
608.89423
615.92996
2163.4464
598.7205
600.90451
2208.334
4109.0204
4101.4583
2193.1084
4090.0477
4085.4255
595.49138
598.91711
2209.0602
4117.7082
4086.0755
2187.2127
4062.4381
4076.7527
3578.5094
3601.0033
6928.2784
6922.8187
7528.3643
7536.5384
7582.8646
7542.8449
12857.395
12934.367
19263.613
19051.86
13610.453
13555.671
34788.655
34111.969
29880.841
48056.586
30427.567
49520.765
12944.277
12810.862
19021.834
19257.27
30465.312
29997.628
49862.523
49736.768
12931.261
12845.766
19000.49
19232.246
13041.783
12917.467
19136.403
19366.018
30354.053
30758.201
49974.593
50221.106
30521.032
29869.671
49564.731
49170.303
7513.9142
7474.9736
7495.6804
7568.5951
18907.416
12851.775
12739.527
19142.863
30437.863
29920.284
49087.223
49817.123
12904.672
12842
19217.845
19041.625
30127.009
30648.308
50118.045
49832.115
12867.58
12956.232
19243.253
19045.466
12862.109
12797.661
19004.634
19189.419
30440.662
29642.642
49462.522
48685.12
30284.8
49378.24
30698.432
50069.11
4016.3019
4029.5176
2152.7187
4720.1268
4690.2353
4047.1781
4019.4894
2157.8195
4687.9635
4725.9442
3955.9335
3986.4305
2127.6432
4669.5419
4613.6835
4044.2964
4071.4232
2176.5519
4763.4687
4718.701
6245.829
6242.7499
10649.893
10540.778
16340.876
16133.742
6252.5284
6268.6943
10541.357
10622.909
16029.884
16278.818
6217.0376
6244.8009
10592.732
10552.775
16137.697
16316.291
6294.4358
6259.6699
10570.463
10624.606
16269.653
16080.518
19512.986
24098.383
19468.21
23908.376
24241.558
19724.049
19786.792
24403.62
42691.012
28213.183
28548.07
43569.98
43765.035
28704.728
28562.428
43374.411
55938.071
68410.332
68772.502
56545.012
56657.481
68855.038
68477.284
56311.515
28440.364
28648.228
43758.415
43109.415
56093.478
68138.435
68738.257
56396.523
43184.074
28335.28
28054.7
42220.719
56208.778
68451.114
67704.195
55778.929
24026.191
19552.128
19665.008
24293.341
24458.973
19828.547
19827.793
24362.803
19413.915
23885.413
19556.711
24201.125
19801.716
19768.944
24409.551
24362.603
19909.28
19828.732
24398.795
24579.767
19593.598
19611.892
24249.39
24094.811
42011.925
28065.343
28464.729
43182.583
43866.853
28675.698
28581.19
43313.097
53850.753
66897.716
68060.148
55025.12
68468.442
69030.115
55901.402
55851.807
43815.324
28651.098
28861.402
44144.735
43433.225
28514.88
28264.819
42360.536
56201.044
69074.329
69230.836
56482.865
67741.251
68784.318
56201.472
55775.051
6176.7164
6215.1993
10513.101
10468.507
16154.342
15938.864
6156.1545
6127.8997
10467.397
10414.603
16157.243
15983.856
6308.1693
6315.0806
10598.097
10678.594
16083.671
16281.187
6269.931
6262.3276
10621.557
10528.201
16241.886
16046.505
23774.166
19423.625
24014.08
19515.119
24222.368
19716.334
19703.52
24120.774
24056.793
19649.839
19721.083
24251.937
19458.014
19411.37
23782.613
23965.018
42276.797
27845.813
28151.059
43030.156
28207.683
28351.531
42639.784
43294.192
68064.289
56817.771
56549.297
67499.479
55716.066
67577.309
67943.56
56430.083
28068.935
27814.058
41988.057
41113.613
67359.254
67783.63
56462.428
56301.833
66295.075
67145.582
55481.325
54418.369
28375.113
28120.247
42509.012
42078.247
23728.333
19308.1
19411.468
23989.091
24228.974
19638.357
19633.161
24132.902
24115.185
19624.973
19685.824
24289.403
19445.939
19398.862
23830.006
24020.222
42074.477
27870.132
28205.618
42937.814
43532.664
28441.993
28297.747
42874.375
55455.438
67861.037
68311.563
56192.334
68039.832
68841.493
56512.873
56135.327
42801.329
28268.178
28493.992
43264.637
42839.898
28212.466
27927.321
41825.611
56172.999
67943.079
68258.793
56604.654
67263.147
68087.099
56486.75
56085.832
7046.1102
7010.0762
7154.3398
7106.2481
5110.8117
5005.4907
4450.1196
4526.6481
8139.0627
8083.0697
7056.0989
7102.4959
8013.5469
7955.5317
6955.721
6990.6767
7156.0526
7131.9024
5089.3223
4535.2987
7106.1086
8096.1516
8125.188
7078.4939
11457.911
17090.439
11418.93
16894.771
21949.876
21867.705
21496.271
21724.098
11421.732
17111.463
11284.471
16881.455
22050.961
21913.447
21645.04
21783.194
11468.737
17031.221
11534.432
17230.552
21704.612
21893.042
22134.248
22049.1
26131.843
26001.301
25549.005
25919.509
26276.29
26045.879
25993.438
25775.291
59139.131
97715.492
98438.529
59917.339
60519.014
98820.948
98600.821
60390.795
30123.197
29617.895
59876.834
57626.041
30185.726
30315.637
59900.161
60585.831
30194.624
30507.665
60230.002
60795.043
60420.499
98624.263
98653.782
60788.004
60455.608
30219.221
29939.509
58845.844
98762.999
98353.628
60311.125
60641.344
25776.814
26077.554
26305.257
26178.917
30322.661
29920.725
60224.702
61850.671
60015.272
98565.1
98749.297
60206.654
30384.736
30525.844
62116.164
60896.075
98562.163
98916.008
60202.672
60077.429
60351.329
60806.976
59966.627
98478.654
98629.814
60468.897
22006.664
20998.727
8075.5157
8159.1104
22416.365
22654.199
8365.3565
8358.6732
41131.208
40339.07
12113.271
12174.162
40201.967
41167.958
12073.84
12006.949
39300.558
38972.441
11559.815
11566.163
37636.138
38472.569
11424.503
11416.896
39928.903
39414.339
11626.428
11669.166
39348.247
39817.619
11720.008
11741.188
36454.953
34724.77
10754.315
10847.364
11232.293
38514.054
38303.018
11274.626
39817.233
39053.252
11799.111
11843.3
39929.073
40779.483
11986.742
11941.332
38934.45
38759.857
11551.824
11551.897
36412.761
37950.085
11343.76
11275.164
39473.085
38109.397
11619.991
11727.7
40114.907
40599.21
11944.456
11936.761
41026.048
40377.442
12009.874
12068.491
39754.747
40821.776
12056.699
12009.773
39559.109
37743.925
41035.021
41464.061
42590.362
41788.035
41384.484
42226.405
43109.177
42182.227
43126.087
43948.78
42613.518
42147.251
41280.582
42409.182
42041.287
40972.037
42124.502
42986.793
42782.805
42178.948
41881.822
42912.674
42455.015
41389.835
42934.399
43604.871
42531.705
42597.727
40677.646
38812.138
75287.885
36112.049
74509.844
35669.137
75402.418
36398.615
74410.545
35900.612
70738.983
32939.161
73050.713
34355.579
74409.008
35718.383
75232.829
36304.371
75039.381
37136.403
75966.245
38080.875
76549.842
38884.434
75569.806
37986.88
75753.471
37314.599
74858.558
36880.133
73959.746
35929.025
75547.627
37185.777
3051.0513
3035.2114
3389.5506
3398.6097
4047.8844
4241.5427
4066.7416
4261.7258
246.25021
248.0131
261.09225
258.96472
342.34872
346.39466
354.26867
359.69206
4731.575
4887.1236
4832.2131
4781.2929
4747.9335
4686.193
5263.0991
5177.0765
10148.333
10233.813
9334.5576
9414.8389
10003.529
9193.5144
10117.521
9294.0617
9542.3921
8560.5858
9649.9631
8648.8408
9695.4771
8698.4766
9771.3775
8767.8642
9849.1182
9703.5814
9040.4722
8940.663
10085.069
9268.6051
10170.172
9338.4331
9382.2788
9270.159
8411.1
8340.1989
8626.9126
9622.4676
9689.6698
8679.1888
10306.994
9616.4335
10416.31
9701.2184
10149.419
10281.512
9704.9514
9811.3466
10122.926
9950.9932
9407.4576
9278.2603
10039.431
9850.2959
9555.2866
9404.1104
10228.027
9540.198
10347.211
9644.0398
10202.166
10298.882
9750.2322
9847.3223
10077.11
9633.3689
10201.239
9740.9804
10358.603
10453.891
9667.9454
9759.6262
6477.1637
6799.7296
5640.5414
5399.6974
7640.3427
7751.8431
8047.2572
8153.4586
6898.3821
7014.7016
5851.6808
5738.8256
8141.1842
8272.7795
8265.5228
8403.2336
9196.3983
9078.363
9005.3153
8913.788
9687.1818
9500.3776
9544.4143
9358.0678
10275.122
9846.4047
10111.089
9683.6879
9723.6912
9615.8965
9302.5101
9225.0947
8183.3391
8317.1265
8077.2825
8224.212
8614.768
8755.2453
8484.4486
8629.5478
7309.5189
7188.2021
6109.9828
5984.6824
6931.1846
6862.2105
5720.9503
5755.6511
9155.7207
8966.6329
9292.4611
9110.5257
8571.9332
8379.3977
9022.0397
8794.9138
9052.604
8663.1285
9501.3354
9062.4817
9695.7923
9280.3553
9849.7631
9438.6688
7059.9882
7144.3272
5967.828
5869.9411
6976.7191
7066.0506
5867.9652
5813.1184
8223.8152
8365.7172
8346.9
8485.7188
8328.4123
8474.1092
8407.7551
8557.7203
9335.4388
9134.363
9130.4294
8955.2217
9305.2173
9140.9973
9460.8912
9278.3417
9851.5344
9650.7801
9410.9585
9244.8554
9881.6747
9488.9556
10033.333
9613.4722
7006.7722
7117.377
5927.2111
5846.5558
8320.5141
8446.658
8145.4915
8280.0963
8251.6883
8408.5924
8395.9343
8544.8011
7050.4808
6924.7947
5857.2601
5780.0893
9819.3988
9424.2786
9953.9281
9536.3443
9376.3764
9197.3791
9459.1898
9286.6233
9943.5496
9536.9464
10035.18
9633.7294
9254.9716
9077.9776
9393.9577
9200.4684
297.2012
330.09039
318.2039
348.7936
572.55272
545.79149
508.75706
506.85802
10063.652
10226.836
9365.1255
9519.658
9257.6855
8828.6535
9682.0532
9202.4358
9928.7855
9469.8063
10094.444
9630.2869
9369.1422
8730.6794
9763.8937
9067.8253
9798.3133
9736.6529
9002.0227
8970.1336
10422.835
10231.599
9547.8425
9398.7518
9899.8256
9747.2509
8855.2404
8741.8761
9347.3135
8391.4714
9308.5553
8376.814
9165.9625
8443.0158
9511.9093
8724.2314
9832.1142
9027.9641
9987.1511
9167.1827
8782.532
7920.7488
9063.1155
8139.8335
9380.1449
8415.8123
9519.8326
8538.737
9933.3127
9841.6453
9470.1859
9405.2267
10534.771
10348.356
9873.7558
10050.539
10676.514
9941.5242
10478.059
9762.7487
10043.525
9964.9686
9350.3078
9298.8137
20486.788
20493.656
18679.314
18617.301
18377.758
18339.612
20113.314
20089.411
19247.804
19656.48
18952.123
18992.125
17240.888
17236.957
18297.305
18296.404
20121.688
20118.019
19285.241
18208.707
17579.025
17567.971
15966.367
16005.187
16399.32
16378.189
15122.519
15093.953
16960.031
18651.271
16941.93
18653.89
15968.427
17360.957
17392.862
16006.756
17244.526
19029.238
17336.837
18968.197
16376.19
17757.357
17679.256
16276.23
17048.614
18735.621
17090.342
18683.017
16176.597
17519.059
17481.012
16154.557
19940.931
19950.364
18272.104
18209.108
18914.967
18901.878
20712.355
20707.662
19832.881
19096.733
19964.293
19949.051
18256.72
18168.708
18377.085
18361.025
20090.546
20075.833
19244.159
19103.086
18634.632
18574.571
16958.88
17056.725
17495.247
17416.573
16230.554
16132.196
17575.872
19288.254
17585.564
19273.453
16663.701
18033.51
18031.034
16663.177
16874.254
18621.637
16999.085
18524.795
16130.325
17434.11
17313.706
15993.974
17085.02
18728.008
17099.184
18700.972
16214.201
17522.145
17506.635
16214.168
15364.334
16063.858
15460.36
15980.582
15350.97
16042.389
15952.151
15239.544
16357.373
16379.401
15701.058
15707.88
15535.277
16297.556
15535.491
16288.331
15722.595
16697.312
15811.306
16619.161
17135.138
16166.497
16185.685
17147.141
15832.857
16705.757
15810.19
16731.614
16343.253
16268.007
15524.462
15426.799
16583.577
15655.69
15525.551
16456.696
16666.534
16663.101
15742.475