/*--------------------------------*- C++ -*----------------------------------*\
  =========                 |
  \\      /  F ield         | OpenFOAM: The Open Source CFD Toolbox
   \\    /   O peration     | Website:  https://openfoam.org
    \\  /    A nd           | Version:  7
     \\/     M anipulation  |
\*---------------------------------------------------------------------------*/
FoamFile
{
    version     2.0;
    format      ascii;
    class       volScalarField;
    location    "2000";
    object      k;
}
// * * * * * * * * * * * * * * * * * * * * * * * * * * * * * * * * * * * * * //

dimensions      [0 2 -2 0 0 0 0];

internalField   nonuniform List<scalar> 
33943
(
1.5220104
1.5207488
1.5215795
1.5211045
1.5255341
1.5208173
1.5226364
1.5226309
1.5213394
1.5212268
1.522593
1.5223639
1.5206154
1.5206421
1.5205911
1.5206096
1.5206283
1.5211348
1.5218983
1.5220835
1.5256962
1.5204117
1.5204664
1.5262452
1.5271931
1.5267883
1.5263877
1.5266757
1.5202466
1.5192839
1.5199766
1.520878
1.521271
1.5225492
1.5221852
1.5227243
1.5230941
1.522311
1.5226034
1.5215379
1.5213315
1.5234765
1.5231576
1.5209229
1.520947
1.5214024
1.5213957
1.5209337
1.5208923
1.52134
1.5212348
1.5207742
1.5204528
1.5207537
1.5204669
1.5208011
1.5207935
1.5204293
1.5204261
1.5258527
1.5216236
1.5221465
1.5214952
1.5219598
1.5202186
1.5200814
1.5201618
1.5200225
1.5204653
1.5202393
1.5204086
1.5201829
1.5211456
1.5210503
1.5211628
1.521183
1.5224003
1.5265038
1.5226733
1.5274687
1.5269712
1.526693
1.527127
1.5204247
1.5204212
1.5204553
1.5204398
1.5273677
1.5266127
1.5262363
1.5270135
1.5296218
1.5292743
1.5291786
1.5294899
1.5193467
1.5194537
1.5208931
1.5209795
1.5186036
1.5185642
1.5203268
1.5203261
1.5189525
1.5204352
1.5208527
1.5193999
1.5208195
1.5208035
1.5209501
1.5209495
1.5208838
1.5212809
1.5213834
1.5210256
1.5225996
1.5222107
1.5227801
1.5226368
1.5226821
1.5229201
1.5230386
1.5231034
1.522688
1.5229608
1.5220785
1.5222879
1.5230959
1.5223729
1.5224298
1.5246302
1.5208021
1.5209646
1.5216977
1.5215218
1.5207696
1.5213655
1.5207388
1.5213822
1.5207901
1.5208109
1.5209155
1.520932
1.5208254
1.520826
1.5209552
1.5209495
1.5208254
1.5208269
1.5209402
1.5209362
1.5208209
1.5208631
1.5208658
1.5208983
1.5210592
1.5210742
1.5205731
1.5205826
1.5209854
1.5210462
1.5205732
1.5205823
1.5211122
1.5211195
1.5205887
1.5205878
1.5205743
1.5210985
1.5211215
1.520588
1.5267221
1.5224657
1.5219176
1.5217074
1.5278188
1.5273943
1.5269896
1.5273462
1.5227492
1.5208046
1.5208352
1.5209631
1.5209466
1.5209206
1.5211928
1.5212
1.5209472
1.5208547
1.5207377
1.5208155
1.5209374
1.5210707
1.5211642
1.5209229
1.5208385
1.5203527
1.5203025
1.5203256
1.520336
1.5202485
1.5202717
1.5202432
1.5202121
1.5203227
1.5202846
1.5202933
1.5203172
1.5202261
1.5202333
1.5204317
1.5204174
1.5204027
1.5204447
1.5203753
1.5203913
1.5203924
1.5203789
1.5203919
1.520414
1.5204106
1.5203878
1.5203607
1.5203671
1.5203637
1.520361
1.5208707
1.5208727
1.5208167
1.5208419
1.5208589
1.5210473
1.5208364
1.5208797
1.5208815
1.5210308
1.5241626
1.5270866
1.5268072
1.5274318
1.5277103
1.5211445
1.5213407
1.5301925
1.5299223
1.5297298
1.5299338
1.520634
1.5206327
1.5206184
1.5206331
1.5206061
1.5206189
1.5206113
1.5206219
1.5282176
1.526803
1.5265962
1.5280126
1.5298392
1.5296394
1.5296103
1.5298388
1.5177681
1.5185811
1.5223158
1.5186597
1.5188079
1.5205742
1.5202926
1.518818
1.5188019
1.5205584
1.5206131
1.5207426
1.5210385
1.5209218
1.5210766
1.5210846
1.5210265
1.5210948
1.5210548
1.5188633
1.5188367
1.5205564
1.5205518
1.5191141
1.5206199
1.5209711
1.5195379
1.5208299
1.5208173
1.5209524
1.5209795
1.5209373
1.5207951
1.5208056
1.5209462
1.5209851
1.5209186
1.5209297
1.5209736
1.5210147
1.5209833
1.5209298
1.5209186
1.5208454
1.52087
1.5209842
1.5210139
1.5211582
1.521066
1.5212589
1.5214526
1.5211955
1.5215745
1.5210817
1.5214417
1.5210226
1.5210589
1.5209526
1.5209832
1.5226341
1.5226612
1.5228331
1.5222485
1.5225494
1.5229453
1.52306
1.5226975
1.5229393
1.5231088
1.5226341
1.5227742
1.522819
1.5225983
1.5229566
1.5229799
1.5229547
1.5229936
1.5219377
1.5221051
1.5225069
1.5227495
1.5228616
1.5221653
1.5229117
1.5222084
1.5230973
1.5231101
1.5230765
1.5230947
1.5229653
1.5222525
1.5229882
1.5222719
1.5230102
1.5222722
1.522127
1.5231614
1.5206495
1.5207927
1.5206328
1.5207685
1.52072
1.5209299
1.5207916
1.5210107
1.5206228
1.5206489
1.5207218
1.5207411
1.5206058
1.5207022
1.5206077
1.5206984
1.520772
1.5207818
1.5207691
1.5207776
1.5207937
1.5207947
1.5207977
1.5207984
1.5208156
1.5208039
1.5208049
1.5208157
1.5208049
1.5208083
1.5208156
1.5208161
1.5208095
1.5208121
1.5208131
1.520813
1.5208139
1.5208185
1.5208124
1.5208133
1.5208131
1.5208338
1.5207975
1.5207947
1.520884
1.5209932
1.5208072
1.5207981
1.5216852
1.5216656
1.5207124
1.520715
1.5216944
1.5216883
1.520728
1.5207252
1.5206884
1.521452
1.5215519
1.5206933
1.5216405
1.5216353
1.5207139
1.5207163
1.5217316
1.5217618
1.5207496
1.5207537
1.5207542
1.5217877
1.5217658
1.5207528
1.5217644
1.5217478
1.5207325
1.5207344
1.5217811
1.5217842
1.5207487
1.5207522
1.5238352
1.5275471
1.5280651
1.5277429
1.5272227
1.5242749
1.5210659
1.5210635
1.5206793
1.5206485
1.5207499
1.5207783
1.5205548
1.5209738
1.520469
1.5206973
1.5205025
1.5206813
1.5305332
1.5303641
1.530037
1.5301625
1.5209517
1.5211712
1.5213672
1.5207489
1.520654
1.5206132
1.5206488
1.5206832
1.5206749
1.520676
1.5207058
1.5207056
1.5207566
1.5207072
1.5207081
1.5207553
1.5206851
1.5206484
1.5207049
1.5207339
1.5207003
1.5207323
1.5207694
1.5207446
1.5208475
1.520766
1.5207386
1.5208657
1.5208897
1.5207883
1.5207881
1.520885
1.5207925
1.5207545
1.520754
1.5207913
1.5206698
1.5206905
1.5207308
1.5207123
1.5206583
1.5206826
1.5206578
1.5206291
1.5207087
1.5206791
1.520679
1.5207081
1.5207568
1.5207121
1.5207118
1.5207556
1.5207464
1.5207623
1.520845
1.5208226
1.5207876
1.5207876
1.5208797
1.5208757
1.5207908
1.5207556
1.520756
1.5207897
1.5207614
1.5207343
1.5207186
1.5207453
1.5207642
1.5207158
1.5208184
1.5207632
1.5208058
1.5208261
1.520763
1.5207847
1.5207597
1.5207241
1.5208192
1.5207784
1.5208066
1.52075
1.5208268
1.5207708
1.5207585
1.5207426
1.5207785
1.5207645
1.5207168
1.5207032
1.5207746
1.5207598
1.5206272
1.5206765
1.5205574
1.5205969
1.5206561
1.5206764
1.520594
1.5205753
1.5208541
1.5208557
1.5207915
1.5207946
1.5208222
1.5207783
1.5208101
1.5208541
1.5208074
1.5208559
1.5208112
1.5208255
1.5208559
1.5207659
1.5207957
1.5207718
1.5207553
1.5208089
1.5207884
1.5208099
1.5207917
1.5206547
1.5206676
1.5206022
1.5206138
1.5207129
1.5206843
1.5206302
1.5206528
1.520706
1.5207213
1.5206439
1.5206582
1.5206618
1.5206415
1.5205964
1.5206114
1.5207823
1.5207266
1.5208014
1.5207458
1.5207606
1.520723
1.5206674
1.5206986
1.5207459
1.5206988
1.5207921
1.5207382
1.5207522
1.5207698
1.5206887
1.520706
1.5207439
1.5207427
1.5206731
1.5206737
1.5206861
1.5206848
1.5206231
1.5206232
1.520668
1.5206862
1.5206079
1.5206239
1.5207229
1.5207448
1.5206556
1.5206755
1.5207719
1.5207972
1.5207034
1.5207275
1.520827
1.5207659
1.5208278
1.5207681
1.520795
1.5207949
1.5207239
1.5207252
1.5208014
1.5207433
1.5208296
1.5207705
1.5207942
1.5207946
1.5207932
1.5207935
1.5207883
1.5208071
1.5207786
1.5207825
1.5207768
1.5207783
1.5206109
1.5206403
1.5207467
1.520757
1.5207944
1.5207952
1.5207938
1.5207941
1.5205913
1.5205897
1.5229147
1.5269609
1.5269375
1.5284009
1.528497
1.5206724
1.5206521
1.5207959
1.5208882
1.530397
1.5301916
1.5300417
1.5301174
1.5207875
1.5207924
1.5207908
1.5207932
1.5207718
1.5207702
1.5207878
1.5207903
1.520715
1.5207216
1.5207459
1.5207482
1.5207453
1.5207483
1.5207598
1.5207615
1.5281911
1.526694
1.5265455
1.5280532
1.5301567
1.5300081
1.5299641
1.5301467
1.5179565
1.5179522
1.5177522
1.5184202
1.5226055
1.522281
1.519065
1.5189185
1.5190935
1.5208173
1.5205282
1.5191153
1.5190803
1.5208031
1.5208558
1.5193761
1.5206878
1.5207953
1.5210085
1.5208195
1.521041
1.521062
1.5211682
1.5211916
1.5210847
1.5201001
1.5208501
1.5208433
1.5209826
1.5212255
1.5211996
1.5210186
1.5210332
1.5211017
1.5211048
1.5212306
1.5212287
1.521067
1.5210421
1.5211601
1.5212065
1.5212575
1.5210451
1.521259
1.5210517
1.5212364
1.5211752
1.5209945
1.521034
1.5188562
1.5188151
1.5207253
1.520928
1.5209101
1.5207136
1.5208876
1.5208944
1.5191062
1.5207642
1.5209304
1.5209529
1.5210625
1.5211137
1.5213157
1.5194724
1.5209779
1.5210062
1.5209624
1.5209699
1.5209855
1.5209925
1.5210014
1.5209913
1.5209746
1.5209752
1.5208922
1.5208937
1.5209801
1.5208964
1.5209932
1.5209073
1.5209803
1.5209801
1.5209863
1.5209861
1.5210316
1.5210142
1.5210404
1.5210128
1.5209925
1.5209904
1.520996
1.5209927
1.5210223
1.5209944
1.5209011
1.5208921
1.5209816
1.5209795
1.5208906
1.5208913
1.5210082
1.5210328
1.5211626
1.5214303
1.5211513
1.5211569
1.5211891
1.521201
1.5213774
1.5215832
1.5213864
1.5216877
1.5211275
1.5211941
1.5210509
1.5209814
1.5217555
1.5212238
1.5215632
1.5213746
1.5210256
1.5210312
1.5210389
1.5210309
1.5210471
1.5210608
1.5210524
1.5210722
1.5210174
1.5210264
1.5209192
1.5209258
1.5210384
1.5210631
1.5209339
1.5209526
1.5228185
1.5226644
1.5226567
1.5226832
1.5228761
1.5230447
1.5229443
1.5230679
1.5227399
1.5226427
1.5228094
1.522628
1.5228237
1.5226159
1.5229332
1.5229125
1.5229671
1.5229957
1.5229665
1.5229992
1.5231085
1.5230981
1.5231099
1.5231257
1.5230907
1.5231074
1.5228204
1.5228206
1.5228414
1.5228552
1.5226326
1.5225602
1.5225228
1.5226561
1.522958
1.5229662
1.5229634
1.5229497
1.5229856
1.5229926
1.5230005
1.522998
1.5219871
1.5223067
1.5225081
1.5221353
1.5222199
1.5226129
1.5226746
1.5222522
1.5226695
1.5224997
1.5226772
1.5224786
1.5228613
1.5228187
1.5228608
1.5228092
1.5229428
1.5229597
1.5229294
1.5229482
1.5222737
1.522716
1.5227365
1.5222962
1.5229679
1.5229799
1.5229946
1.5229855
1.5227433
1.5227763
1.5223193
1.5223021
1.5230793
1.5230744
1.5230579
1.5230665
1.5230956
1.5230934
1.5230774
1.523082
1.5230571
1.5230464
1.5230277
1.5230394
1.5223468
1.5228
1.5228213
1.5223798
1.5230715
1.5230666
1.5230467
1.5230535
1.5228463
1.5228336
1.5224001
1.5223956
1.5230978
1.5230893
1.5230698
1.523079
1.5223816
1.5228454
1.5228594
1.5224038
1.5216037
1.5217619
1.5225376
1.5223218
1.5206028
1.5206696
1.5206663
1.5205979
1.5206547
1.5206533
1.5205806
1.5205851
1.5207039
1.5207033
1.5206965
1.5206869
1.5207455
1.5207367
1.5207935
1.5207671
1.5206571
1.520661
1.5205608
1.5205631
1.5206664
1.5206739
1.5205839
1.5206008
1.5206436
1.5206482
1.5205438
1.5205431
1.5206497
1.5205432
1.5206503
1.5205447
1.5208228
1.5208198
1.5207334
1.5207379
1.520825
1.5208268
1.5207482
1.5207494
1.5208317
1.5208303
1.5207651
1.520766
1.5208289
1.5208304
1.5207672
1.5207676
1.5208356
1.5208334
1.5207788
1.5207793
1.520836
1.5208374
1.5207799
1.5207794
1.5208381
1.5208357
1.5207793
1.5207796
1.5208447
1.5208428
1.5207815
1.5207811
1.5208532
1.5208489
1.520779
1.5207792
1.5208569
1.5208577
1.5207801
1.5207798
1.520864
1.5208598
1.52078
1.5207804
1.5208739
1.520871
1.5207825
1.5207813
1.5208884
1.5208766
1.5207669
1.5207675
1.520936
1.5209111
1.520773
1.5207748
1.5209889
1.5207824
1.521078
1.5207908
1.5212157
1.5213343
1.5208278
1.5208272
1.52177
1.5217509
1.521784
1.521774
1.5215269
1.5216304
1.5217258
1.5217221
1.5218193
1.5218481
1.5218733
1.5218532
1.5218542
1.521836
1.5218729
1.5218758
1.5226854
1.5227839
1.526893
1.5284781
1.5285082
1.5269479
1.5227002
1.5229703
1.5204417
1.5204419
1.5205986
1.5205928
1.5204954
1.5204604
1.5206392
1.5206169
1.5204596
1.5203954
1.5204898
1.5204325
1.5204412
1.5203786
1.5203791
1.5204389
1.520544
1.5205891
1.520401
1.5204645
1.5203369
1.5203546
1.5204441
1.520424
1.5203309
1.5203492
1.5202968
1.5202797
1.5204657
1.5205919
1.520671
1.5205608
1.5202293
1.5202318
1.5202838
1.5202807
1.5203471
1.5203066
1.5204239
1.5203911
1.5202444
1.5203355
1.5202985
1.5202881
1.5203751
1.5202913
1.5203718
1.520293
1.5303902
1.5308301
1.5302507
1.5306597
1.530764
1.5305988
1.530341
1.5304583
1.5206373
1.5206687
1.5205578
1.5207331
1.5204939
1.5205117
1.5206806
1.5206571
1.5207305
1.5206318
1.5208942
1.5208056
1.5204275
1.5204457
1.5205133
1.5204942
1.5206849
1.5206871
1.5206703
1.5206684
1.5206357
1.5206561
1.5206376
1.5206122
1.5206524
1.5206636
1.520672
1.5206797
1.5206983
1.5207055
1.5207004
1.5207076
1.5207011
1.5207024
1.5206862
1.5206849
1.5206997
1.5207047
1.520688
1.5206834
1.5207134
1.5207213
1.5207146
1.5207224
1.5207121
1.5207203
1.5207173
1.5207252
1.5207333
1.5207405
1.5207343
1.5207414
1.5207279
1.520729
1.5207305
1.5207294
1.5207271
1.5207323
1.5207289
1.5207337
1.5207331
1.520738
1.5207407
1.5207446
1.5207128
1.5207132
1.5207156
1.5207151
1.5206726
1.5206748
1.5206888
1.5206887
1.5206803
1.5206887
1.520701
1.5206947
1.5207179
1.5207245
1.5207203
1.5207266
1.5206915
1.5206954
1.5207049
1.5207072
1.5207271
1.5207302
1.5207293
1.5207322
1.5207321
1.5207414
1.5207342
1.520743
1.5206975
1.5207086
1.5207102
1.5207194
1.5207157
1.5207491
1.5207271
1.5207576
1.5207419
1.5207478
1.5207439
1.5207494
1.5207089
1.5207159
1.520721
1.5207261
1.520748
1.5207784
1.5207499
1.5207791
1.5207645
1.5207961
1.5207651
1.5207958
1.5207586
1.5207614
1.5207656
1.5207675
1.520758
1.520765
1.5207586
1.5207654
1.5207653
1.5207964
1.5207673
1.5207967
1.5207477
1.520758
1.5207485
1.5207585
1.5207428
1.5207468
1.520747
1.5207503
1.5207426
1.5207465
1.5207435
1.5207472
1.5207481
1.5207518
1.5207585
1.520761
1.5207645
1.5208152
1.5207601
1.5208095
1.5207471
1.5207445
1.5207545
1.5207518
1.5207504
1.5207512
1.5207583
1.5207585
1.5207706
1.5207689
1.5208262
1.5208192
1.5207458
1.5207494
1.520784
1.5207913
1.5207334
1.5207374
1.5207399
1.5207442
1.5207161
1.5207218
1.520698
1.5207027
1.5207218
1.5207478
1.5207138
1.5207005
1.5207264
1.5207331
1.5207299
1.5207365
1.5207155
1.5207203
1.520703
1.5206985
1.520713
1.5207162
1.5206992
1.5206963
1.5207295
1.5207363
1.5207349
1.5207415
1.5207446
1.5207499
1.5207476
1.5207523
1.5207439
1.5207439
1.5207494
1.5207492
1.5207403
1.5207406
1.5207437
1.5207437
1.5207482
1.5207531
1.5207537
1.5207578
1.5207773
1.5208203
1.5207725
1.5208047
1.5207582
1.5207649
1.5207593
1.5207646
1.5207588
1.5207806
1.5207643
1.5207841
1.5207736
1.5207887
1.5208053
1.5208088
1.5207657
1.5207689
1.5207706
1.5207726
1.5207631
1.5207685
1.5207645
1.5207695
1.5207677
1.5207957
1.5207687
1.5207956
1.5207697
1.5207717
1.5207966
1.5207967
1.5207553
1.5207635
1.5207572
1.5207648
1.5207519
1.5207543
1.5207543
1.5207562
1.5207553
1.5207602
1.5207572
1.5207613
1.5207584
1.5207626
1.520766
1.520769
1.5207552
1.5207627
1.5207579
1.5207643
1.5207545
1.5207624
1.5207532
1.5207603
1.5208309
1.520776
1.5207713
1.5208191
1.5207765
1.5208274
1.5207747
1.5208161
1.5210753
1.5211176
1.5210578
1.5211357
1.5210707
1.5210076
1.5210242
1.5210883
1.5212418
1.5211722
1.5212307
1.5211598
1.5211734
1.5210986
1.5211846
1.5211108
1.521426
1.5213151
1.5213118
1.5214208
1.5214483
1.5214425
1.521333
1.5213419
1.5212232
1.5213289
1.5212279
1.5213228
1.5213531
1.5212551
1.5213467
1.5212461
1.5211962
1.5212674
1.5211766
1.5212874
1.5211885
1.5211059
1.5211245
1.521208
1.5213172
1.5214112
1.5213041
1.5214223
1.5213167
1.5212188
1.5213278
1.5212318
1.5212411
1.5211677
1.5211622
1.5212337
1.5211058
1.5211751
1.5211828
1.5211005
1.5212591
1.5212661
1.5211864
1.5211954
1.5211241
1.5212087
1.5211335
1.5212013
1.5217452
1.5217443
1.5215582
1.5215593
1.5215666
1.5214145
1.5214132
1.5215696
1.5217589
1.5217636
1.5215843
1.5215741
1.5215851
1.5215912
1.5214312
1.521441
1.5213976
1.5215322
1.5213763
1.5215517
1.5213855
1.5212573
1.5212781
1.5214067
1.5215547
1.5217221
1.5215408
1.521731
1.5215509
1.5214006
1.5215618
1.5214147
1.521722
1.5217332
1.5215259
1.5215453
1.5217145
1.5217272
1.5219401
1.5219424
1.5217293
1.5219401
1.5219676
1.5219682
1.521737
1.5217413
1.5217506
1.521761
1.5219793
1.5219802
1.521977
1.5219659
1.5213141
1.5212407
1.521232
1.5213032
1.5213206
1.5213171
1.5212425
1.5212484
1.5211705
1.5212577
1.5211787
1.5212471
1.5212633
1.521185
1.5212594
1.521179
1.5214757
1.5213621
1.5213581
1.5214695
1.5212683
1.521378
1.5212739
1.5213709
1.5214165
1.5213141
1.5214077
1.5213025
1.521378
1.5214932
1.5213848
1.5214852
1.5213998
1.5212994
1.5212914
1.5213902
1.5213969
1.5215015
1.5213905
1.5215054
1.5214054
1.5213025
1.5214092
1.521309
1.5212892
1.5212137
1.5212073
1.5212809
1.5213175
1.5212416
1.5213271
1.5212529
1.5211446
1.5212313
1.5211511
1.5212226
1.5212685
1.5212588
1.5211779
1.5211892
1.5217984
1.5217967
1.5216085
1.5216088
1.5216172
1.5214627
1.5214606
1.5216214
1.5216208
1.5218013
1.5216216
1.5217999
1.5216328
1.5214812
1.5214772
1.5216283
1.5216417
1.5218187
1.5216338
1.5218219
1.5216452
1.5214895
1.5216492
1.5214972
1.5207636
1.5208058
1.5207656
1.5208024
1.5208191
1.5207787
1.5207829
1.5208232
1.520766
1.520729
1.5207647
1.5207304
1.5207424
1.5207455
1.5207795
1.5207832
1.5208635
1.5209054
1.5208578
1.5209114
1.5208583
1.5208503
1.5208106
1.5208173
1.5208168
1.5208114
1.5207659
1.5207703
1.5208034
1.5208085
1.5208567
1.5208616
1.5208591
1.5209125
1.5208627
1.5209069
1.520928
1.5208776
1.5208824
1.5209323
1.5208622
1.5208067
1.5208578
1.520804
1.52082
1.5208249
1.5208767
1.5208809
1.5207682
1.5208024
1.5207644
1.5208066
1.5207699
1.5207667
1.5207341
1.5207367
1.5207026
1.5207374
1.5207353
1.5207066
1.5207298
1.5207329
1.5207648
1.520768
1.5210564
1.5211192
1.5210615
1.5211121
1.5210759
1.5210122
1.5210078
1.5210694
1.5210888
1.5211373
1.5210801
1.5211452
1.5210944
1.5210303
1.5210388
1.5211019
1.5210254
1.5209745
1.5210156
1.5209647
1.5209554
1.520941
1.520898
1.5209108
1.5209146
1.5209023
1.5208494
1.5208591
1.5209065
1.520914
1.5209694
1.5209777
1.5210357
1.5210193
1.5209723
1.520988
1.5210001
1.5209842
1.5209317
1.5209466
1.5210661
1.5211106
1.5210548
1.5211216
1.5210058
1.5210676
1.5210781
1.5210169
1.5209669
1.5210235
1.5209708
1.5210176
1.5210415
1.520989
1.5209962
1.5210486
1.5209768
1.5209122
1.5209718
1.5209081
1.5209285
1.5209341
1.5209949
1.5210006
1.5209773
1.5209214
1.5209185
1.5209724
1.5209776
1.5209216
1.5209219
1.5209767
1.5209208
1.5208586
1.5208566
1.5209176
1.520921
1.5208582
1.5208587
1.5209201
1.5208581
1.5208131
1.5208115
1.5208555
1.5208575
1.5208122
1.5208122
1.5208567
1.5208138
1.5207704
1.5207722
1.520813
1.5208139
1.5207725
1.5207718
1.5208129
1.5208364
1.5207923
1.5207894
1.520832
1.5208601
1.5208548
1.5208101
1.5208157
1.5207932
1.5207519
1.5207521
1.5207911
1.5208161
1.5208114
1.5207692
1.5207734
1.5209525
1.520898
1.5208939
1.5209463
1.5209802
1.5209743
1.520919
1.5209256
1.5208979
1.520837
1.5208337
1.5208929
1.520924
1.5209182
1.5208558
1.520862
1.5210704
1.5210145
1.5210102
1.5210635
1.5211039
1.5210954
1.5210395
1.5210488
1.5210225
1.5209517
1.5209471
1.5210173
1.5210548
1.5210471
1.5209743
1.5209821
1.5211942
1.5211843
1.5211348
1.5211278
1.5211513
1.5211432
1.5210841
1.5210786
1.5211943
1.5211342
1.5211395
1.5211983
1.5210831
1.5210881
1.5211507
1.5211544
1.5210978
1.521042
1.5210377
1.5210911
1.5210968
1.5210416
1.5210452
1.5211
1.5210498
1.5209776
1.5209734
1.521045
1.5210501
1.5209772
1.5209787
1.5210517
1.521167
1.5211066
1.5211582
1.5211005
1.5211158
1.5211236
1.5210568
1.5210516
1.521203
1.5211438
1.5211934
1.5211332
1.5210821
1.52115
1.5211592
1.5210925
1.5207761
1.5207765
1.5207792
1.5207783
1.5207747
1.5207749
1.520776
1.5207758
1.5207827
1.5207926
1.5208355
1.5208374
1.5207647
1.5207653
1.5207716
1.5207739
1.5207613
1.5207604
1.5207625
1.520763
1.5205385
1.5205409
1.5205598
1.5205793
1.5207283
1.5207335
1.5207437
1.5207451
1.520774
1.5207743
1.5207764
1.5207766
1.5207737
1.5207741
1.5207748
1.5207744
1.5205215
1.5205222
1.520522
1.5205245
1.5221786
1.5224052
1.5267808
1.5267891
1.5283134
1.5283538
1.5205749
1.5205695
1.5205571
1.5205543
1.5206585
1.5206505
1.5207529
1.5207242
1.5305618
1.5304365
1.5303005
1.5303531
1.5282602
1.5266764
1.5266074
1.5282228
1.5179843
1.5179796
1.5176617
1.5191658
1.5191424
1.5182348
1.5193427
1.5196879
1.5191468
1.5189203
1.5191017
1.5209848
1.5211363
1.5211548
1.5206964
1.5209318
1.520776
1.5191008
1.5190867
1.5209783
1.5211703
1.5211379
1.5210282
1.5211979
1.5212005
1.5191616
1.5193817
1.5195479
1.5191942
1.5208291
1.521045
1.5211966
1.5212178
1.5211021
1.5210766
1.5211004
1.5211357
1.5192089
1.5196829
1.5199654
1.5203334
1.5207808
1.5207984
1.5209925
1.5208999
1.5209172
1.5207904
1.520778
1.5209758
1.5210901
1.5211301
1.5209332
1.5209589
1.5212282
1.521236
1.5212439
1.5212332
1.5212138
1.5212054
1.5212092
1.5212215
1.5211806
1.5211942
1.520973
1.5209809
1.5212016
1.5212177
1.5209766
1.5209889
1.5212589
1.5212562
1.521194
1.5212376
1.5212701
1.5212696
1.5212664
1.5212749
1.5212435
1.5212377
1.5209974
1.5210057
1.5212715
1.5212699
1.5212767
1.5212738
1.5212435
1.5212431
1.5210052
1.5210088
1.5212546
1.5212491
1.5212526
1.5212618
1.5212161
1.5211834
1.5211713
1.5212225
1.5211874
1.5211319
1.5209655
1.5209302
1.5212296
1.5209985
1.5212196
1.5209944
1.5209033
1.5209184
1.5208642
1.5209941
1.5209706
1.5208879
1.5208806
1.5208465
1.5209494
1.5209549
1.5209427
1.5209228
1.5208812
1.5209881
1.5210056
1.5212855
1.5211109
1.521144
1.5211395
1.5213356
1.5209748
1.520976
1.521004
1.521001
1.5210006
1.5209978
1.5209973
1.5210081
1.521046
1.5210236
1.5210446
1.5210185
1.5209578
1.5209574
1.5209901
1.5209904
1.5209898
1.5209898
1.5209662
1.5209609
1.521001
1.5209942
1.5209943
1.5210034
1.5210011
1.5209988
1.5210051
1.5210053
1.5209911
1.5209932
1.5209943
1.520993
1.520983
1.5209862
1.5209862
1.5209829
1.5209821
1.5209848
1.520986
1.5209834
1.5208908
1.5209494
1.5209508
1.5208939
1.5208941
1.5209493
1.5209527
1.5208952
1.5209896
1.5209916
1.5209887
1.5209863
1.5208959
1.520954
1.5209568
1.5208995
1.5209944
1.5209973
1.521005
1.5210036
1.5209047
1.5209615
1.5209727
1.5209118
1.5209879
1.5209896
1.5209894
1.5209876
1.5209865
1.5209886
1.5209891
1.5209873
1.5210495
1.5210509
1.5210406
1.5210348
1.5210141
1.5210169
1.5210135
1.5210094
1.5209986
1.5209995
1.5209973
1.5209956
1.5209955
1.5209962
1.5209935
1.5209925
1.5210463
1.5210504
1.5210303
1.5210231
1.5210059
1.5210109
1.521006
1.5210003
1.5209059
1.5209967
1.5209779
1.5208999
1.5209616
1.5209651
1.5208963
1.5208937
1.5209917
1.5209955
1.5209933
1.5209893
1.5209876
1.5209914
1.5209902
1.5209864
1.520893
1.5209552
1.5209543
1.5208939
1.5209535
1.5209521
1.5208916
1.5208913
1.5210034
1.5209995
1.5210408
1.5210348
1.5210421
1.521035
1.521026
1.5210157
1.521053
1.5210654
1.5210548
1.5210709
1.5211559
1.5211379
1.521153
1.5211838
1.5211524
1.5211919
1.5214281
1.5213013
1.5213362
1.5215402
1.5213614
1.5216246
1.5211364
1.521145
1.5211472
1.5211511
1.5211733
1.5211815
1.5211979
1.5211988
1.5213211
1.5213386
1.5213696
1.5213742
1.521582
1.5217001
1.5217649
1.5215727
1.5211221
1.52113
1.5211442
1.521139
1.5211988
1.5211682
1.5212013
1.5211629
1.5211186
1.5210315
1.5210877
1.5211686
1.5209718
1.5210652
1.5210887
1.520995
1.5215731
1.5218094
1.5215911
1.5218755
1.5212703
1.5213966
1.521341
1.5211849
1.5218782
1.5216049
1.5215471
1.5217671
1.5213783
1.5213108
1.521393
1.5213039
1.5210302
1.5210333
1.5210353
1.5210339
1.5210385
1.521041
1.5210424
1.5210411
1.5210501
1.5210532
1.5210546
1.5210527
1.5210662
1.5210743
1.521075
1.5210627
1.5210228
1.5210276
1.5210323
1.5210286
1.521032
1.5210364
1.5210395
1.5210359
1.5209172
1.5209837
1.5209909
1.520924
1.5209986
1.5209929
1.5209272
1.5209297
1.5210432
1.5210477
1.5210507
1.5210473
1.5210565
1.5210603
1.5210748
1.5210735
1.5209328
1.5210031
1.5210093
1.52094
1.5210355
1.5210181
1.5209494
1.5209601
1.5229459
1.522968
1.5226452
1.5227648
1.5226922
1.522909
1.5228592
1.522683
1.5226489
1.5227863
1.5227586
1.5226529
1.5229621
1.5229839
1.5229589
1.5229399
1.5231106
1.5231219
1.5230667
1.5230505
1.5231041
1.5231217
1.5231106
1.5231134
1.5228203
1.5228365
1.5226309
1.5226131
1.5228259
1.5228521
1.5225466
1.5226485
1.5229774
1.5229713
1.5230053
1.5230035
1.5229671
1.5229568
1.5230005
1.5229912
1.523111
1.5230901
1.5231264
1.5231072
1.5230675
1.5230735
1.5230861
1.5230893
1.5228247
1.5228591
1.5225198
1.5226646
1.522963
1.522949
1.5229841
1.522996
1.5221988
1.5223519
1.5225441
1.5223477
1.5224375
1.5226534
1.5226902
1.5224632
1.5226754
1.5225015
1.5226772
1.5224696
1.5228626
1.522822
1.5228532
1.5228054
1.5229426
1.5229578
1.5229185
1.5229341
1.5224875
1.5227348
1.5227478
1.5225047
1.5229548
1.5229777
1.5229916
1.5229695
1.5227656
1.5227846
1.522534
1.5225228
1.5230535
1.523062
1.5230725
1.5230769
1.5230529
1.5230425
1.5230093
1.5230193
1.5225661
1.5228154
1.5228248
1.5225883
1.5230665
1.5230616
1.5230255
1.5230324
1.5228407
1.5228358
1.5226044
1.5226016
1.5230483
1.5230552
1.5226012
1.5228527
1.5228674
1.5226227
1.5212557
1.5212533
1.5217852
1.5219017
1.5212767
1.5212744
1.5220253
1.5220439
1.5208151
1.5208068
1.5205765
1.5205758
1.5208105
1.520816
1.5205705
1.5205691
1.5208063
1.5208005
1.5205572
1.5205575
1.5208018
1.5208044
1.5205567
1.5205551
1.5208002
1.5207923
1.5206376
1.5206367
1.5208071
1.5208051
1.5206341
1.52063
1.5207658
1.5207383
1.5207321
1.5207195
1.5206952
1.5207873
1.5207937
1.5206904
1.5208238
1.5208178
1.5205505
1.520552
1.5208221
1.5208299
1.520554
1.5205558
1.5208099
1.5208137
1.5205711
1.5205732
1.5207886
1.5207993
1.5205844
1.5205962
1.5208183
1.5208058
1.5205345
1.5205352
1.520823
1.5208264
1.5205352
1.5205354
1.5208306
1.5208251
1.5205358
1.5205369
1.5208208
1.5208283
1.5205388
1.5205398
1.5208313
1.5208291
1.5208324
1.5208348
1.5208384
1.5208371
1.5208351
1.520837
1.5208414
1.5208394
1.5208419
1.5208435
1.520844
1.5208416
1.5208511
1.5208493
1.520861
1.5208568
1.520865
1.520866
1.5208722
1.5208682
1.5208833
1.5208802
1.5208995
1.5208884
1.5209491
1.5209231
1.5210063
1.5210984
1.521247
1.5213755
1.5222577
1.5217281
1.5222383
1.5217093
1.5222763
1.5217423
1.5222795
1.5217305
1.5219666
1.5214861
1.5221054
1.5215875
1.522217
1.5216849
1.5222013
1.5216808
1.5223178
1.5217775
1.5223477
1.5218055
1.5223686
1.5218305
1.5223578
1.5218107
1.5223682
1.5218095
1.5223458
1.5217923
1.5224136
1.5218289
1.5223991
1.5218325
1.5220506
1.5222995
1.5223063
1.5220744
1.522003
1.5220667
1.5222415
1.5222899
1.5268054
1.5284073
1.5284544
1.5268611
1.5266869
1.5284074
1.5283961
1.526768
1.5220841
1.5222338
1.5220046
1.5222947
1.5224265
1.5222183
1.5222563
1.5220317
1.5204836
1.5204879
1.5204798
1.5204839
1.5204836
1.5204797
1.5204835
1.5204799
1.5204858
1.520519
1.5204856
1.5205178
1.5204859
1.5205184
1.5204898
1.5205202
1.520514
1.5205325
1.5205147
1.5205324
1.5204962
1.5204938
1.5204991
1.5204968
1.5205206
1.5205405
1.5205561
1.5205725
1.5205349
1.5205001
1.5205032
1.5205364
1.5204833
1.5204875
1.5204863
1.5204904
1.5204732
1.5204764
1.5204704
1.520474
1.5204997
1.5205179
1.5205058
1.5205231
1.5204884
1.5205062
1.520488
1.5205058
1.5204725
1.520475
1.5204727
1.5204753
1.5204635
1.520469
1.5204595
1.5204652
1.5204636
1.5204596
1.5204641
1.5204606
1.5204722
1.5204774
1.5204747
1.5204794
1.5205693
1.5205368
1.520505
1.520555
1.5205806
1.5205916
1.5205541
1.5205737
1.5204462
1.5204444
1.5204065
1.5204104
1.5204735
1.5204935
1.5204722
1.5204931
1.5204439
1.5204465
1.5204433
1.5204468
1.5204643
1.5204634
1.5204595
1.5204599
1.5204806
1.5204877
1.5204761
1.5204838
1.5204609
1.5204636
1.5204684
1.5204708
1.5204058
1.5204206
1.5204079
1.5204235
1.5204287
1.5204418
1.5204226
1.5204375
1.5203942
1.5203883
1.5203567
1.5203489
1.5203698
1.5203718
1.52033
1.5203293
1.5205104
1.5205161
1.5205102
1.5205166
1.5205987
1.5206043
1.5205831
1.5205922
1.5206102
1.5206281
1.5205978
1.5206159
1.5205282
1.520545
1.5205285
1.5205444
1.5203487
1.5203552
1.5203123
1.5203064
1.52035
1.5203513
1.5203079
1.5203077
1.5203906
1.5204027
1.5203916
1.5204045
1.5203896
1.5204019
1.5203957
1.5204086
1.5204505
1.5204696
1.5204507
1.5204696
1.520436
1.5204341
1.52044
1.5204387
1.5204688
1.5204877
1.5204745
1.5204924
1.5204539
1.520458
1.5204577
1.5204618
1.520356
1.520361
1.5203185
1.5203131
1.520411
1.5204261
1.5204328
1.5204461
1.5203961
1.5204098
1.5204006
1.5204145
1.5203733
1.5203962
1.5203297
1.5203558
1.5204458
1.5204483
1.5204469
1.5204496
1.5204285
1.5204254
1.5204346
1.5204323
1.5204454
1.5204481
1.5204516
1.5204541
1.520429
1.5204257
1.5204303
1.5204277
1.5306532
1.5311218
1.5305693
1.5309245
1.5309537
1.5307562
1.5305463
1.5306447
1.5205671
1.5205655
1.5205877
1.5205845
1.5206324
1.5206449
1.5206186
1.5206305
1.5205529
1.520561
1.5205522
1.5205597
1.520649
1.5206721
1.5206319
1.5206542
1.5205069
1.5205071
1.5205087
1.5205085
1.5205257
1.5205205
1.5205272
1.5205228
1.5205317
1.5205266
1.5205734
1.5205678
1.5205132
1.5205552
1.5205125
1.5205522
1.5206748
1.5206924
1.5206538
1.5206717
1.5205906
1.5206033
1.5205871
1.5205989
1.5206955
1.5207517
1.5206709
1.5207269
1.5206049
1.5206598
1.5205998
1.5206521
1.5204812
1.5204831
1.5204811
1.520483
1.5205004
1.5204957
1.5204963
1.5205003
1.5205107
1.520519
1.5205057
1.5205144
1.5204914
1.5204928
1.5205001
1.5205007
1.5208648
1.5208649
1.5208331
1.5208341
1.5208317
1.5208332
1.5208626
1.5208626
1.5208623
1.5208647
1.520859
1.5208592
1.5208194
1.5208211
1.5208276
1.5208298
1.520865
1.520865
1.5208647
1.5208583
1.5208213
1.5208221
1.5207905
1.5207889
1.5207909
1.5207919
1.5207667
1.5207683
1.5208013
1.520829
1.5207988
1.5208303
1.5207778
1.5208007
1.5208024
1.5207801
1.5208089
1.5208341
1.5208083
1.5208343
1.5207901
1.5208098
1.5208096
1.5207904
1.5208092
1.5208326
1.5208076
1.5208334
1.52079
1.520809
1.5208099
1.5207915
1.5208638
1.5208642
1.5208358
1.5208368
1.5208383
1.5208396
1.5208672
1.5208671
1.5208669
1.520864
1.5208649
1.5208652
1.520836
1.5208371
1.5208422
1.5208445
1.5208715
1.5208722
1.5208716
1.5208649
1.5208367
1.520837
1.5208143
1.5208137
1.5208149
1.5208149
1.5207978
1.5207979
1.5208169
1.5208391
1.5208157
1.5208397
1.5207992
1.5208168
1.5208174
1.5208003
1.520814
1.520837
1.5208134
1.5208373
1.5207972
1.5208147
1.5208146
1.5207974
1.5208216
1.520843
1.5208193
1.5208447
1.5208028
1.5208206
1.5208223
1.5208051
1.5207716
1.5207796
1.5207722
1.520779
1.5207687
1.520774
1.5207732
1.5207681
1.5207804
1.5207808
1.5207729
1.5207735
1.5207693
1.5207749
1.5207697
1.5207747
1.5207864
1.520799
1.5207867
1.5207987
1.5208005
1.5207878
1.5207887
1.5208011
1.5207797
1.5207893
1.520779
1.5207898
1.5207882
1.5207876
1.5207782
1.5207779
1.5207985
1.5207859
1.5207858