/*--------------------------------*- C++ -*----------------------------------*\
  =========                 |
  \\      /  F ield         | OpenFOAM: The Open Source CFD Toolbox
   \\    /   O peration     | Website:  https://openfoam.org
    \\  /    A nd           | Version:  7
     \\/     M anipulation  |
\*---------------------------------------------------------------------------*/
FoamFile
{
    version     2.0;
    format      ascii;
    class       volScalarField;
    location    "2000";
    object      nut;
}
// * * * * * * * * * * * * * * * * * * * * * * * * * * * * * * * * * * * * * //

dimensions      [0 2 -1 0 0 0 0];

internalField   nonuniform List<scalar> 
33943
(
9.7832261e-90
2.53097e-90
6.2338176e-91
2.6809984e-91
8.1701679e-91
2.2024258e-89
9.3651868e-90
5.7369123e-90
2.8189945e-90
2.572082e-90
4.6835347e-91
8.7774891e-91
1.1946113e-90
4.793497e-91
6.6858077e-91
1.2300221e-90
1.5838844e-91
2.6988148e-91
2.7876309e-91
2.7304017e-91
6.3663528e-91
2.9672627e-91
3.2989209e-91
7.8238402e-91
5.459434e-91
1.1902041e-90
8.7870293e-91
5.7125477e-91
1.5278251e-89
5.2720805e-91
5.5544003e-91
1.3554236e-89
1.8111823e-89
6.7873644e-91
1.3655536e-91
5.599893e-91
6.1438517e-91
4.676656e-90
5.8893387e-90
3.5758168e-90
4.2792326e-90
8.4400489e-91
7.5798382e-91
1.2475377e-90
1.2952769e-90
7.2560315e-91
5.3217439e-91
1.4382055e-90
1.2264475e-90
7.3391806e-91
6.6599587e-91
4.7590741e-91
3.9011789e-91
4.8329855e-91
3.3063143e-91
5.953179e-91
4.916725e-91
4.7868379e-91
3.8931909e-91
4.846208e-91
1.5444055e-91
2.3642615e-91
1.6183065e-91
1.9921215e-91
1.9580472e-91
1.2714738e-91
1.6611654e-91
1.2292344e-91
2.1959438e-91
2.382142e-91
2.3612994e-91
2.6443286e-91
3.2501221e-91
2.5963897e-91
3.3441652e-91
3.0985095e-91
2.0865463e-91
4.4810177e-91
2.6745809e-91
3.4742785e-91
3.6393051e-91
4.1077356e-91
4.9894156e-91
2.9647991e-91
2.6229278e-91
2.5068376e-91
2.8021984e-91
8.0411328e-91
7.1392437e-91
1.2216205e-90
9.5334458e-91
8.1906258e-91
1.9720658e-90
1.3882557e-90
1.0112995e-90
4.882628e-91
5.2396431e-91
1.0233334e-89
1.2380332e-89
1.7751493e-91
1.7074883e-91
7.2712881e-91
7.9541985e-91
2.557734e-91
9.010727e-91
6.8482625e-91
1.80988e-91
6.4929919e-91
6.8489868e-91
6.5268191e-90
5.3114872e-90
8.0786507e-91
8.2571547e-91
8.1077358e-90
6.9546903e-90
2.1283956e-91
1.6708246e-91
3.388776e-91
3.2018222e-91
5.4367439e-91
5.3231299e-91
3.5978675e-91
5.9569242e-91
5.0642289e-91
5.4553745e-91
2.1633601e-90
2.5703344e-90
5.9502685e-91
2.7956348e-90
2.6348e-90
9.7590653e-91
1.1548327e-90
1.1527468e-90
5.2968561e-91
6.9696068e-91
1.2597848e-90
5.8636497e-91
1.4414652e-90
8.3632955e-91
4.6167976e-91
4.8759611e-91
3.8838185e-91
4.7982678e-91
5.5472662e-91
4.9996421e-91
6.464984e-91
5.0703903e-91
5.2308091e-91
5.092024e-91
4.5545427e-91
5.1041958e-91
5.6230856e-91
4.729891e-91
4.5621865e-91
5.938205e-91
2.2912078e-91
2.1297441e-91
2.2876211e-91
2.202185e-91
2.0174536e-91
2.1332707e-91
1.905612e-91
2.3266981e-91
2.5543474e-91
2.4974022e-91
2.4144166e-91
2.392136e-91
2.1951431e-91
2.4225825e-91
2.1624176e-91
1.9296303e-91
4.2785318e-91
2.2319319e-91
1.6576765e-91
1.6878388e-91
3.6090428e-91
4.1968895e-91
3.6127849e-91
3.6481764e-91
2.8664353e-91
1.2385818e-91
1.2140221e-91
1.6911686e-91
1.7617077e-91
2.3264172e-91
2.2016475e-91
2.4531885e-91
2.8860748e-91
1.7280729e-91
1.2562779e-91
1.2265648e-91
1.9511326e-91
2.0376121e-91
2.453361e-91
2.2320056e-91
2.4420987e-91
1.0540385e-91
1.1410167e-91
1.105616e-91
1.0246882e-91
8.9746389e-92
9.3034137e-92
8.7040872e-92
8.3034232e-92
1.0725843e-91
1.1141089e-91
1.1234617e-91
9.9781469e-92
9.1179086e-92
9.7619698e-92
2.2472932e-91
2.0798959e-91
2.3800134e-91
2.0054853e-91
1.4346031e-91
1.4617832e-91
1.3925012e-91
1.4258418e-91
2.2215182e-91
2.1283805e-91
1.9481151e-91
2.3119683e-91
1.5186192e-91
1.5305848e-91
1.6273524e-91
1.5040942e-91
2.6947551e-91
2.6573061e-91
2.5514121e-91
2.7357123e-91
2.7887418e-91
2.4760615e-91
2.7109619e-91
2.5859054e-91
2.945514e-91
3.5059187e-91
2.4488186e-91
3.6433966e-91
5.7125945e-91
4.5440111e-91
3.6892991e-91
2.9396382e-91
3.1996052e-91
3.8408809e-91
5.5009275e-91
5.4125232e-91
7.4432747e-91
1.7050902e-91
1.7055251e-91
1.6079553e-91
1.4872614e-91
1.3641197e-91
1.5401825e-91
1.5391113e-91
1.5180191e-91
1.9436616e-90
1.2858759e-90
1.4807151e-90
1.215951e-90
2.3539995e-91
2.0589864e-91
2.0600743e-91
2.4729076e-91
3.0214202e-91
2.2906032e-91
4.6905206e-91
2.3276487e-91
2.171355e-91
7.2814038e-91
8.605293e-91
2.901579e-91
1.9492027e-91
6.7014229e-91
8.7737342e-91
6.4484517e-91
6.7198938e-91
4.9767601e-90
5.8523064e-90
7.5562643e-91
7.5971116e-91
6.0541858e-90
6.7485249e-90
1.6371636e-91
2.0269099e-91
2.3080058e-91
2.1859099e-91
1.960438e-91
2.1805632e-91
2.1302774e-91
1.5070503e-91
3.3982928e-91
3.4973935e-91
4.980109e-91
5.1021714e-91
5.4270767e-91
3.5770892e-91
3.2721777e-91
4.9035905e-91
6.5777943e-91
2.6302542e-90
2.529047e-90
6.4608952e-91
5.5686057e-91
5.9834925e-91
2.2977973e-90
2.6040614e-90
3.4493518e-91
3.4465418e-91
5.3532516e-91
5.1562757e-91
5.7203251e-91
3.6162404e-91
3.2727009e-91
4.9436282e-91
6.7841885e-91
6.9397471e-91
2.6524718e-90
2.5012817e-90
5.6112371e-91
5.9837353e-91
2.3111599e-90
2.5830834e-90
4.7587201e-91
4.151361e-91
4.1556813e-91
2.0107175e-91
1.9087512e-91
3.7164721e-91
4.5423502e-91
2.0373977e-91
2.0819707e-91
2.06903e-91
2.7795286e-91
2.8336247e-91
2.0885862e-91
1.92597e-91
2.1012281e-91
2.6229553e-91
2.8512154e-91
2.1640659e-91
4.7797065e-91
5.1572754e-91
1.6915945e-91
1.9009161e-91
1.9311681e-91
5.3549469e-91
2.0423311e-91
5.422698e-91
2.8414723e-91
2.8725387e-91
1.9080452e-91
2.0892094e-91
1.705099e-91
4.9430378e-91
1.9181288e-91
5.265226e-91
1.9946311e-91
5.5064992e-91
1.4787067e-90
6.685472e-91
5.2791882e-91
5.6090405e-91
4.4062324e-91
4.4575859e-91
4.5770932e-91
4.9422083e-91
4.3765e-91
4.138171e-91
5.1193934e-91
4.3919723e-91
4.9034475e-91
3.8480837e-91
4.7927465e-91
4.0100239e-91
4.7034548e-91
4.3519361e-91
1.9443142e-91
2.1205576e-91
1.8227808e-91
2.3078824e-91
2.2996101e-91
2.1331838e-91
2.5661477e-91
2.3203843e-91
2.1747867e-91
2.2958303e-91
2.2736777e-91
2.3643561e-91
2.32846e-91
2.1235139e-91
2.3139812e-91
2.6045543e-91
2.1966163e-91
2.2175125e-91
2.584775e-91
2.1854332e-91
2.3518721e-91
2.2052033e-91
2.5206009e-91
2.8182839e-91
2.2821225e-91
2.3047459e-91
2.5953427e-91
2.3787928e-91
2.3208321e-91
1.9597698e-91
2.2016568e-91
2.6111524e-91
1.8290621e-91
1.715642e-91
6.0682533e-92
6.3396092e-92
2.1056335e-91
1.6890704e-91
6.3776959e-92
6.6637599e-92
5.9276197e-92
1.765718e-91
1.8577325e-91
6.3176249e-92
1.6672776e-91
2.1206394e-91
6.7204337e-92
6.40438e-92
1.9182029e-91
1.8748322e-91
6.8544196e-92
7.2790728e-92
7.0183233e-92
2.0016913e-91
1.7433883e-91
6.9602764e-92
1.8163484e-91
1.7146186e-91
6.1491875e-92
6.5658777e-92
1.6424701e-91
1.9134811e-91
6.3431895e-92
6.0110039e-92
1.8166961e-91
3.5128647e-91
3.4227942e-91
3.6300316e-91
4.3038134e-91
2.353754e-91
2.8045625e-91
2.1549646e-91
2.6686966e-91
2.6011352e-91
1.2117584e-91
1.702796e-91
1.2564045e-91
1.7535529e-91
1.2490122e-91
1.6656663e-91
1.223748e-91
1.9191987e-91
1.1318412e-90
5.3212324e-91
8.7597501e-91
1.0248704e-90
2.3450891e-91
2.5907409e-91
2.3238519e-91
2.8273521e-91
8.6896047e-92
8.2873737e-92
8.5163187e-92
8.6072775e-92
8.4048948e-92
8.0403875e-92
9.8950432e-92
9.0882959e-92
1.1255003e-91
1.1654864e-91
1.1455879e-91
1.049471e-91
1.1316269e-91
1.0419365e-91
1.0292917e-91
1.0652858e-91
1.4302998e-91
1.5485291e-91
1.5126704e-91
1.4856591e-91
2.0782212e-91
2.4864577e-91
2.069633e-91
2.1609448e-91
2.2520637e-91
2.3658441e-91
2.2984354e-91
1.906636e-91
1.7223998e-91
1.5717902e-91
1.6102051e-91
1.5729831e-91
1.1399023e-91
1.0841681e-91
1.0135831e-91
1.020404e-91
9.5523633e-92
9.6478214e-92
8.7204152e-92
8.6093288e-92
9.0785287e-92
8.3719347e-92
8.388664e-92
8.527336e-92
1.0909333e-91
1.1185833e-91
1.0896046e-91
1.0848555e-91
2.302425e-91
2.1396235e-91
2.0503162e-91
1.9237604e-91
2.5194704e-91
2.253869e-91
2.1986242e-91
2.2474298e-91
1.6206143e-91
1.5096203e-91
1.5411063e-91
1.5542113e-91
1.5926318e-91
1.4940042e-91
1.5272398e-91
1.5250961e-91
1.0431185e-91
8.5721253e-92
1.1549549e-91
9.2470492e-92
9.5546727e-92
9.8282513e-92
9.046279e-92
9.1032179e-92
9.0259736e-92
8.4940075e-92
9.9710134e-92
9.121788e-92
1.0772497e-91
8.9757573e-92
1.1030499e-91
8.9748127e-92
6.6483444e-92
6.596895e-92
7.0386365e-92
6.7635735e-92
6.399195e-92
6.3832609e-92
7.2629976e-92
7.0315469e-92
4.34992e-92
4.7627772e-92
5.0087187e-92
5.5152719e-92
4.5084819e-92
4.698975e-92
5.4343119e-92
5.1552202e-92
1.2195244e-91
1.2508452e-91
1.002117e-91
1.0086759e-91
9.9081386e-92
9.5094719e-92
9.690815e-92
1.0667104e-91
1.0053871e-91
1.0873477e-91
1.0044351e-91
1.1236508e-91
1.1512914e-91
9.5083377e-92
9.4436481e-92
6.8531765e-92
6.8326604e-92
7.6865548e-92
7.568294e-92
8.0884389e-92
7.6790753e-92
1.2169875e-91
1.293764e-91
8.3800436e-92
8.2061929e-92
1.0955176e-91
9.9207699e-92
8.9648756e-92
9.4084543e-92
1.104771e-91
1.1338112e-91
1.0402796e-91
1.0049438e-91
1.2567139e-91
1.0739294e-91
8.021882e-92
8.3952669e-92
1.1050714e-91
9.7296964e-92
1.1288546e-91
9.6465945e-92
1.1096192e-91
9.958255e-92
7.688915e-92
8.2513277e-92
1.0142855e-91
8.7742963e-92
1.1075587e-91
9.2941236e-92
1.062795e-91
1.0947309e-91
8.3586438e-92
8.2978163e-92
1.2016543e-91
1.2376676e-91
1.1190383e-91
1.0909445e-91
1.2941792e-91
1.4038052e-91
9.3126825e-92
9.1657477e-92
1.2587255e-91
1.2914899e-91
8.5528308e-92
7.9822718e-92
1.1801723e-91
1.1904786e-91
1.1125503e-91
1.0369102e-91
1.1262133e-91
1.157594e-91
8.9177455e-92
8.6997269e-92
1.1778061e-91
1.0274682e-91
1.2049183e-91
1.0301621e-91
1.1612127e-91
1.2178496e-91
9.2573482e-92
9.3226813e-92
1.167692e-91
1.0470123e-91
1.1971343e-91
1.0338722e-91
1.6493666e-91
1.5840073e-91
1.4767613e-91
1.582554e-91
1.6473182e-91
1.4990383e-91
1.5530498e-91
1.6131946e-91
1.5542195e-91
1.5030698e-91
2.50115e-91
2.2071555e-91
1.3248584e-91
1.4817082e-91
1.6109731e-91
1.5149059e-91
1.4721455e-91
1.4843129e-91
2.4158232e-91
2.4288727e-91
2.78239e-91
7.1098535e-91
1.2423676e-90
1.5601548e-90
8.8941199e-91
2.6582642e-91
2.3377205e-91
2.4870087e-91
2.2570643e-91
2.6412598e-91
4.7248303e-91
2.2535989e-91
2.5071846e-91
7.427886e-92
7.827755e-92
7.4934317e-92
7.3280036e-92
6.9968602e-92
6.3414193e-92
6.8761888e-92
6.4815397e-92
5.8146945e-92
6.1939764e-92
6.5133088e-92
6.5074093e-92
6.0192749e-92
6.5354249e-92
6.8866184e-92
6.489916e-92
3.153218e-91
4.3264427e-91
4.3517396e-91
2.4950644e-91
2.6347789e-91
2.4533432e-91
2.4544937e-91
2.625376e-91
2.4871253e-91
4.0679572e-91
5.2016369e-91
5.1027078e-91
2.0654387e-91
1.7785474e-91
7.4506728e-91
2.0547398e-91
1.4861155e-91
2.2626708e-91
2.3958141e-91
2.173232e-91
1.5302122e-91
2.2251072e-91
2.3131481e-91
6.5774597e-91
3.7283017e-91
5.0002604e-91
4.7405503e-91
3.4616024e-91
3.5164388e-91
3.1557198e-91
5.1097719e-91
4.5817829e-91
5.796628e-91
4.6499524e-90
2.2332581e-90
5.5452659e-91
2.4581179e-90
6.306212e-91
6.2909665e-91
2.5876205e-90
2.4037528e-90
3.5616638e-91
3.4613175e-91
4.8655415e-91
5.2575055e-91
3.4738746e-91
3.1922623e-91
4.6084095e-91
5.1904346e-91
5.5902737e-91
2.4034614e-90
5.869807e-91
2.6769526e-90
6.4576462e-91
6.5162378e-91
2.4466472e-90
2.631907e-90
2.0457429e-91
2.3081425e-91
4.4607728e-91
4.1030139e-91
3.823485e-91
3.8408629e-91
4.2334176e-91
3.6853815e-91
2.2104246e-91
3.8950236e-91
4.193543e-91
3.8398715e-91
3.9379176e-91
4.4218284e-91
3.9073272e-91
1.7396076e-91
2.0879439e-91
2.0336457e-91
2.0485945e-91
2.1068881e-91
2.9347123e-91
2.6931688e-91
2.3566514e-91
2.2479467e-91
1.8078461e-91
2.0336745e-91
5.3581231e-91
5.6590641e-91
2.067703e-91
5.6919931e-91
2.1837035e-91
5.5581271e-91
2.8681062e-91
2.8920849e-91
2.0801437e-91
2.2364955e-91
2.8301703e-91
2.8053444e-91
2.078418e-91
2.2556026e-91
2.8860219e-91
2.6455814e-91
2.2628144e-91
2.3660117e-91
1.7727355e-91
1.9951732e-91
4.8566452e-91
5.3132469e-91
2.0340448e-91
2.1425471e-91
5.5423533e-91
5.5041825e-91
2.0448508e-91
2.0840903e-91
2.11136e-91
2.1686106e-91
2.043547e-91
2.9462503e-91
2.9194643e-91
2.2130429e-91
2.2980685e-91
2.6256432e-91
2.9208921e-91
2.3704132e-91
1.8148194e-91
2.0235026e-91
5.3562645e-91
5.1103086e-91
2.2369466e-91
5.5614567e-91
5.2669818e-91
2.1291661e-91
2.8277176e-91
2.0293021e-91
2.2051317e-91
2.8489638e-91
2.8740403e-91
2.6138192e-91
2.2080359e-91
2.2869109e-91
1.7662518e-91
1.9938816e-91
5.1954025e-91
5.5297136e-91
2.0582062e-91
2.1756766e-91
5.638512e-91
5.5939388e-91
1.4447871e-91
1.4929397e-91
3.2338201e-91
1.6822832e-91
1.7405365e-91
1.5457324e-91
3.3539793e-91
1.764271e-91
2.9733798e-91
2.7983856e-91
2.8723247e-91
2.6247934e-91
1.6222031e-91
1.5757632e-91
2.5768935e-91
2.729004e-91
2.6248474e-91
2.594188e-91
1.5826275e-91
1.557366e-91
2.696065e-91
2.9650484e-91
2.7538511e-91
2.862903e-91
1.534058e-91
1.5953271e-91
2.57024e-91
1.1179414e-91
2.4454906e-91
1.1066959e-91
2.426383e-91
2.4967012e-91
1.0388573e-91
1.0516381e-91
2.3881459e-91
2.4309952e-91
1.0672625e-91
1.035949e-91
1.1392473e-91
2.5870299e-91
2.3304068e-91
1.0856299e-91
5.7984278e-92
5.3227989e-92
5.736297e-92
6.5166694e-92
6.5683297e-92
6.0331336e-92
5.8842297e-92
6.7315179e-92
6.4542701e-92
6.1228227e-92
1.3323748e-91
1.1276326e-91
6.6296999e-92
6.4183547e-92
1.3736819e-91
1.3465031e-91
6.2809867e-92
6.6251149e-92
1.1839941e-91
1.2634617e-91
6.4853181e-92
5.6714194e-92
5.9529869e-92
6.9023833e-92
1.2546206e-91
6.5253436e-92
6.543463e-92
1.2080303e-91
6.0659756e-92
5.7480805e-92
6.8251598e-92
6.8143267e-92
2.3896532e-91
2.4083766e-91
1.0331307e-91
1.0550833e-91
2.4271127e-91
2.5608083e-91
1.1251793e-91
1.1095294e-91
6.2829212e-92
5.9976964e-92
1.2407374e-91
1.4262577e-91
6.5410646e-92
5.5646218e-92
6.0153619e-92
7.0598017e-92
6.6884712e-92
6.4763266e-92
1.4259008e-91
1.3454759e-91
5.9049742e-92
6.1950868e-92
7.170836e-92
7.1493119e-92
6.7887957e-92
6.4375227e-92
1.1448089e-91
1.2229945e-91
6.7090217e-92
5.6783838e-92
5.9904204e-92
7.0698656e-92
5.04195e-91
5.627576e-91
5.3505326e-91
4.4506751e-91
2.28421e-91
2.3375035e-91
2.2141843e-91
2.3677133e-91
2.204763e-91
1.9427434e-91
2.0551377e-91
2.2947758e-91
2.3277855e-91
2.1452027e-91
2.4494018e-91
2.2810753e-91
1.9402317e-91
2.0407257e-91
1.8501247e-91
2.2066852e-91
2.1896657e-91
2.1425037e-91
2.0804552e-91
2.1687146e-91
2.0954978e-91
1.8709165e-91
2.2304183e-91
1.8963446e-91
2.1492312e-91
2.1778132e-91
1.966468e-91
2.2771374e-91
2.3670173e-91
2.4373892e-91
2.1443248e-91
2.1860466e-91
1.7762517e-91
1.5649313e-91
5.4157341e-92
6.1666194e-92
1.8214628e-91
1.9834154e-91
6.4070296e-92
6.6114795e-92
1.9664134e-91
1.9186098e-91
5.9774825e-92
6.5140696e-92
1.8247943e-91
2.1515739e-91
6.4497742e-92
6.5121828e-92
2.2860604e-91
2.1517063e-91
6.5865479e-92
7.1987964e-92
2.0357935e-91
2.5583071e-91
7.0278309e-92
6.9520034e-92
2.047819e-91
1.9906431e-91
6.2642441e-92
6.9177737e-92
1.8320895e-91
2.3234435e-91
6.6346111e-92
6.3753032e-92
2.1928791e-91
2.0666208e-91
6.328616e-92
7.2176582e-92
2.0016919e-91
2.4741692e-91
7.0183395e-92
6.7742121e-92
2.0420718e-91
2.063749e-91
6.4665227e-92
7.0155657e-92
1.8752877e-91
2.402015e-91
6.864438e-92
6.5768007e-92
1.8738819e-91
2.028395e-91
6.6284269e-92
7.124805e-92
1.8986884e-91
2.0519838e-91
7.0839574e-92
7.1095429e-92
1.8010708e-91
6.4149553e-92
1.905363e-91
6.7893717e-92
1.8739808e-91
1.6450944e-91
6.5004764e-92
5.9492528e-92
7.905124e-92
7.5073817e-92
7.9370957e-92
7.6149888e-92
6.8887308e-92
7.3511794e-92
7.4959998e-92
7.7680017e-92
8.2397177e-92
8.5851725e-92
8.5648241e-92
8.257783e-92
8.1324101e-92
7.8800435e-92
7.5707197e-92
7.9838628e-92
1.2992876e-91
1.6420184e-91
7.5684433e-91
6.487463e-91
6.6263953e-91
7.9457199e-91
2.6267663e-91
2.517129e-91
2.2249312e-91
1.9586888e-91
1.9180168e-91
2.0058563e-91
1.9900897e-91
1.9114662e-91
1.5899682e-91
1.8241078e-91
1.5049883e-91
1.4551239e-91
1.3915315e-91
1.4213975e-91
1.5012072e-91
1.4976794e-91
1.467628e-91
1.4488522e-91
7.479363e-92
7.8607963e-92
7.958249e-92
8.0079189e-92
1.0228609e-91
1.0575816e-91
9.8960474e-92
9.2624643e-92
8.2886447e-92
8.9385475e-92
8.201493e-92
7.610014e-92
1.0485419e-91
9.6918568e-92
9.4718185e-92
9.9399589e-92
8.0896392e-92
8.0693383e-92
8.4711803e-92
8.3092516e-92
1.0624639e-91
1.0474835e-91
9.5082426e-92
1.0082184e-91
8.2761522e-92
8.7509249e-92
8.8221493e-92
7.9575821e-92
1.0863961e-91
1.0907081e-91
1.0580332e-91
1.0588935e-91
6.8039156e-91
9.9757767e-91
1.3303484e-90
5.5343627e-91
3.1950044e-91
1.9786551e-91
6.7541422e-91
8.9924981e-91
1.3633677e-91
1.2917174e-91
1.404666e-91
1.3008154e-91
2.0148886e-91
2.0344725e-91
2.0258243e-91
1.7586131e-91
1.7946185e-91
2.157647e-91
1.8493414e-91
2.0482846e-91
1.3770927e-91
1.4365269e-91
1.4617166e-91
1.3255256e-91
4.9890551e-92
5.0235309e-92
5.7099609e-92
5.7771217e-92
4.4751626e-92
4.7968322e-92
5.452723e-92
5.2174771e-92
6.3782431e-92
6.378068e-92
7.1394645e-92
6.9223916e-92
7.0632172e-92
7.0442294e-92
7.2820381e-92
6.9985832e-92
5.2093603e-92
5.2423829e-92
5.9136105e-92
5.893836e-92
4.8044251e-92
5.1203822e-92
5.7523697e-92
5.3134055e-92
7.4212937e-92
7.57335e-92
7.9765571e-92
7.7690195e-92
6.9898422e-92
7.0560836e-92
7.5864521e-92
7.3254083e-92
1.2186327e-91
1.0128366e-91
1.2721763e-91
1.0304731e-91
1.0572147e-91
1.0968102e-91
1.0183473e-91
1.0037677e-91
1.0151263e-91
1.052546e-91
9.8367452e-92
9.9281534e-92
1.1579687e-91
1.1986542e-91
9.7416593e-92
9.7441766e-92
1.0357503e-91
9.7627107e-92
9.669495e-92
1.0448781e-91
9.1005481e-92
8.5563138e-92
1.0034963e-91
9.1481046e-92
1.0483842e-91
8.7565739e-92
9.4845705e-92
1.1683549e-91
1.1666944e-91
9.6088967e-92
1.1774326e-91
9.4184996e-92
1.0398234e-91
9.0199947e-92
1.1455552e-91
9.5550561e-92
1.1895164e-91
1.037373e-91
1.1942446e-91
1.0090646e-91
1.1220799e-91
8.776429e-92
1.1346828e-91
8.5356696e-92
9.9571888e-92
7.8552632e-92
1.1205916e-91
8.3951175e-92
1.1208335e-91
8.2875695e-92
1.3156246e-91
8.847001e-92
1.1823544e-91
1.0964628e-91
1.1904383e-91
1.031364e-91
1.0137565e-91
9.4040788e-92
1.1227919e-91
9.6303539e-92
1.2654131e-91
8.9260225e-92
1.3084404e-91
8.6034196e-92
1.2783837e-91
9.0032272e-92
1.3691241e-91
9.1289441e-92
1.2124779e-91
1.2202733e-91
1.1770203e-91
1.0815471e-91
1.2088247e-91
1.0868178e-91
1.2370015e-91
1.0592435e-91
1.2904604e-91
9.2511083e-92
1.3450338e-91
8.8189596e-92
1.1675939e-91
9.2662682e-92
1.213359e-91
9.2749143e-92
1.1865834e-91
1.0611357e-91
1.2060932e-91
1.0438243e-91
1.1921152e-91
1.0410586e-91
1.2291777e-91
1.0397701e-91
1.126306e-91
1.1623306e-91
9.032695e-92
8.8912367e-92
1.0701518e-91
1.0079938e-91
1.0192761e-91
9.4909887e-92
1.005567e-91
9.4192189e-92
1.0455474e-91
9.6445696e-92
1.1278853e-91
9.4345595e-92
1.1906132e-91
9.8014769e-92
1.1995139e-91
1.0011492e-91
1.1356857e-91
9.3139213e-92
7.5100134e-92
7.4372871e-92
7.2831217e-92
7.0623281e-92
7.2877707e-92
7.1442249e-92
7.7168298e-92
7.4104646e-92
5.0528141e-92
5.1933949e-92
5.8238308e-92
5.999925e-92
5.1921756e-92
4.9183042e-92
5.6094607e-92
5.9171415e-92
7.1458732e-92
6.8426595e-92
7.7358465e-92
7.2704519e-92
4.8509644e-92
5.1398261e-92
6.0058963e-92
5.6267906e-92
4.8988472e-92
5.1047674e-92
5.9300075e-92
5.7382833e-92
6.8340775e-92
6.9011995e-92
7.370597e-92
7.1977186e-92
1.150416e-91
9.5292799e-92
1.2220536e-91
9.8680775e-92
1.0035602e-91
9.6387249e-92
1.049414e-91
9.818647e-92
9.8157532e-92
9.1847178e-92
1.0385828e-91
9.506387e-92
1.1472508e-91
9.604416e-92
1.1966091e-91
9.757257e-92
1.2221362e-91
1.1499735e-91
1.1854841e-91
1.0354743e-91
1.1646089e-91
1.2309071e-91
1.0764035e-91
1.0845052e-91
1.2421274e-91
9.2096447e-92
1.4029648e-91
9.425875e-92
1.3229942e-91
9.4039005e-92
1.3039897e-91
8.5573632e-92
1.1930991e-91
1.2325103e-91
1.1459572e-91
1.0962919e-91
1.1435479e-91
1.027552e-91
1.1923236e-91
1.0236358e-91
1.2085851e-91
8.9684294e-92
1.3526523e-91
9.2236732e-92
1.3010934e-91
1.3864514e-91
9.3426552e-92
9.0198292e-92
1.113802e-91
8.6347184e-92
1.1950554e-91
8.9431987e-92
1.1480464e-91
1.1936667e-91
9.9444127e-92
1.0102402e-91
1.1707415e-91
1.2099816e-91
1.037751e-91
1.0411639e-91
1.1174813e-91
1.1725947e-91
8.8640517e-92
8.9598423e-92
1.12595e-91
1.2073831e-91
8.9713479e-92
9.2912446e-92
1.1412565e-91
1.1957365e-91
1.0042606e-91
1.026734e-91
1.1500034e-91
1.2253118e-91
1.0847179e-91
9.9829128e-92
1.1594893e-91
1.1132927e-91
9.2409402e-92
8.5647555e-92
4.8134806e-92
5.4322366e-92
4.8003828e-92
5.5041564e-92
4.899801e-92
4.0329588e-92
4.0328034e-92
5.0671088e-92
6.1161252e-92
5.3645202e-92
6.0499957e-92
5.2973554e-92
5.3259153e-92
4.3502812e-92
5.4442645e-92
4.383848e-92
7.8258581e-92
6.7144125e-92
6.6283058e-92
7.7387284e-92
8.1904348e-92
8.2313036e-92
7.0667829e-92
7.0203053e-92
5.2042596e-92
6.5845265e-92
5.2794347e-92
6.6136874e-92
6.8641038e-92
5.4539742e-92
6.8554542e-92
5.4720911e-92
6.3132995e-92
7.2431533e-92
6.2205124e-92
7.4349318e-92
6.1550301e-92
4.9216989e-92
4.9379596e-92
6.3729483e-92
7.2459804e-92
8.3121445e-92
7.0613217e-92
8.5126605e-92
6.8874149e-92
5.4585814e-92
7.0960377e-92
5.4794142e-92
5.7273128e-92
5.0632708e-92
5.0050016e-92
5.7565528e-92
4.3079757e-92
5.2342193e-92
5.2211684e-92
4.2541708e-92
6.029314e-92
6.0465364e-92
5.3596698e-92
5.3328343e-92
4.4732912e-92
5.4493809e-92
4.4574261e-92
5.425556e-92
1.1107561e-91
1.1103784e-91
9.1540284e-92
9.1381452e-92
9.234251e-92
7.2051848e-92
7.1448944e-92
9.211146e-92
1.139109e-91
1.1315794e-91
9.4963906e-92
9.6471927e-92
9.673799e-92
9.5978008e-92
7.4873557e-92
7.4024003e-92
8.3594299e-92
1.0063098e-91
8.2980289e-92
1.0133171e-91
8.4338143e-92
6.6068674e-92
6.6548479e-92
8.59187e-92
9.8810343e-92
1.1699063e-91
9.7805814e-92
1.1812064e-91
9.8021594e-92
7.5240174e-92
1.0249329e-91
7.6511528e-92
1.6432635e-91
1.655923e-91
1.116287e-91
1.1415722e-91
1.3036829e-91
1.328002e-91
1.9247315e-91
1.9406593e-91
1.0488704e-91
1.245842e-91
1.8415812e-91
1.8615614e-91
1.2543282e-91
1.2689573e-91
1.2711112e-91
1.2747997e-91
1.8545157e-91
1.8563987e-91
1.1829196e-91
1.145659e-91
6.9644667e-92
6.2012585e-92
6.1704591e-92
6.9945112e-92
6.9814225e-92
6.9805635e-92
6.1848453e-92
6.1963861e-92
5.1263097e-92
6.3077888e-92
5.1891523e-92
6.4506488e-92
6.2710141e-92
5.0770123e-92
6.1948556e-92
5.086352e-92
8.380832e-92
7.262816e-92
7.2480548e-92
8.3360951e-92
5.6952033e-92
7.1011574e-92
5.7297871e-92
7.2103887e-92
7.370589e-92
5.8354876e-92
7.3015921e-92
5.8401185e-92
8.1094666e-92
9.2739012e-92
8.0353295e-92
9.4531205e-92
7.9156576e-92
6.3344726e-92
6.2842152e-92
8.1237296e-92
8.2171884e-92
9.4433911e-92
8.1259451e-92
9.5100063e-92
7.8961999e-92
6.2986116e-92
8.0265503e-92
6.2375832e-92
6.2070356e-92
5.5311069e-92
5.5054736e-92
6.2915441e-92
6.3973599e-92
5.680445e-92
6.4308898e-92
5.6698583e-92
4.6888636e-92
5.6939158e-92
4.7220344e-92
5.7583823e-92
5.8868662e-92
5.8277817e-92
4.8053679e-92
4.7990249e-92
1.1679112e-91
1.1657167e-91
9.695881e-92
9.7022021e-92
9.8421139e-92
7.6982064e-92
7.6821727e-92
9.7505024e-92
1.0553012e-91
1.2585518e-91
1.0542913e-91
1.2615682e-91
1.0726616e-91
8.4494017e-92
8.4223763e-92
1.0823274e-91
1.0903452e-91
1.2744154e-91
1.1032974e-91
1.2573489e-91
1.0964036e-91
8.5153658e-92
1.1229439e-91
8.4876477e-92
3.1112229e-92
3.1248279e-92
3.1389811e-92
3.0984634e-92
3.3088727e-92
3.3425213e-92
3.2946395e-92
3.3237723e-92
3.625278e-92
2.8808956e-92
3.8177973e-92
2.8126788e-92
2.9664474e-92
2.8542304e-92
3.783079e-92
4.0127754e-92
2.7581809e-92
2.9601209e-92
2.8160048e-92
2.9409952e-92
2.7383176e-92
2.7353673e-92
2.6178631e-92
2.5707419e-92
2.8017187e-92
2.7602287e-92
2.4873929e-92
2.4701188e-92
2.5886148e-92
2.5831621e-92
2.8801031e-92
3.0398975e-92
2.68777e-92
2.8541036e-92
2.7106598e-92
2.8348634e-92
3.0185695e-92
2.8859466e-92
2.8645731e-92
3.0279941e-92
2.8595097e-92
2.6140878e-92
2.9224916e-92
2.5642006e-92
2.6654342e-92
2.6419254e-92
2.931663e-92
3.0763879e-92
3.1656797e-92
3.2421239e-92
3.2243832e-92
3.3020761e-92
3.0563688e-92
3.0451314e-92
3.1047438e-92
2.9921928e-92
3.0182947e-92
3.8717859e-92
3.6748207e-92
2.9583349e-92
2.958431e-92
2.8630363e-92
3.8038911e-92
3.9067303e-92
3.9418104e-92
4.4619148e-92
4.0001574e-92
4.4276025e-92
4.0506992e-92
3.343673e-92
3.316982e-92
4.0603818e-92
4.2330918e-92
4.7088753e-92
4.2522099e-92
4.7242633e-92
4.2165568e-92
3.4703605e-92
3.4688415e-92
4.2522348e-92
3.6971205e-92
3.2835896e-92
3.6841508e-92
3.3238958e-92
3.3949178e-92
3.3760872e-92
3.0341858e-92
3.0307353e-92
3.1446583e-92
3.0837887e-92
2.5787391e-92
2.5823428e-92
2.7413024e-92
2.7222934e-92
3.3050141e-92
3.3291631e-92
4.2959863e-92
4.2464374e-92
3.7988545e-92
3.7713508e-92
3.8917226e-92
3.8517684e-92
3.1435716e-92
3.145791e-92
4.1480702e-92
4.6332856e-92
4.1409724e-92
4.6927657e-92
3.3804289e-92
4.1351308e-92
4.1949372e-92
3.3779766e-92
3.1704926e-92
3.5570525e-92
3.2100937e-92
3.559417e-92
3.7579581e-92
3.4146561e-92
3.3780932e-92
3.7802189e-92
3.2774448e-92
2.7485662e-92
3.3228652e-92
2.7259114e-92
2.8457436e-92
2.8286473e-92
3.4118343e-92
3.462948e-92
3.4457892e-92
3.2465029e-92
3.2459835e-92
3.4338528e-92
3.4379211e-92
3.2268966e-92
3.2283533e-92
3.4636537e-92
3.3532263e-92
3.0206395e-92
3.0164826e-92
3.5781139e-92
3.2721265e-92
2.9277424e-92
2.9266934e-92
3.4642037e-92
3.6124631e-92
3.6255622e-92
3.5073008e-92
3.6901201e-92
3.5762684e-92
3.5540051e-92
3.4722815e-92
3.672111e-92
4.2506657e-92
3.3148255e-92
3.2436045e-92
4.4652587e-92
4.1624458e-92
3.1357898e-92
3.0541171e-92
4.2490673e-92
3.322065e-92
3.3135318e-92
3.3034848e-92
3.4006856e-92
3.3353169e-92
3.3801536e-92
3.3621853e-92
3.2247878e-92
3.7477699e-92
2.9284103e-92
2.9168301e-92
4.1115322e-92
3.8112881e-92
3.8061738e-92
2.9088575e-92
2.8133083e-92
3.1096142e-92
2.9438908e-92
2.9412004e-92
3.1543823e-92
3.1694612e-92
3.1984606e-92
3.0401949e-92
2.9505246e-92
3.0392594e-92
2.7645931e-92
2.759412e-92
3.218489e-92
3.0445619e-92
3.0495666e-92
2.736695e-92
2.6720101e-92
3.936197e-92
3.5660263e-92
3.5553813e-92
3.9168564e-92
4.0647571e-92
4.0937727e-92
3.7286271e-92
3.6418186e-92
3.6120993e-92
3.010778e-92
2.9741169e-92
3.6638327e-92
3.6589429e-92
3.6593284e-92
3.0370639e-92
2.9896247e-92
5.4489714e-92
5.4533336e-92
4.9079318e-92
4.8148107e-92
4.9541974e-92
4.9390914e-92
4.0498044e-92
3.9913483e-92
5.4196969e-92
4.891776e-92
4.8604422e-92
5.445763e-92
4.000051e-92
3.9739494e-92
4.8675331e-92
4.8977391e-92
4.3428345e-92
3.9338133e-92
3.8593417e-92
4.3039457e-92
4.3713279e-92
3.9672289e-92
3.9124389e-92
4.378416e-92
4.0174697e-92
3.3283885e-92
3.2937606e-92
4.0442225e-92
3.9696176e-92
3.2714407e-92
3.2354177e-92
4.0198081e-92
4.8736641e-92
4.4065814e-92
4.8914421e-92
4.3445781e-92
4.4576242e-92
4.456043e-92
3.6941133e-92
3.6562747e-92
5.1061738e-92
4.5742636e-92
5.0843102e-92
4.6085523e-92
3.7708455e-92
4.565485e-92
4.5876492e-92
3.7365931e-92
6.4326266e-92
6.6835475e-92
6.6531478e-92
6.4417377e-92
6.3257111e-92
6.8919884e-92
6.7616741e-92
6.4090987e-92
6.2987996e-92
6.5149705e-92
6.2597918e-92
6.0427573e-92
6.4928258e-92
6.7771754e-92
6.8951619e-92
6.7760469e-92
5.987899e-92
5.6328607e-92
5.9424198e-92
5.899972e-92
1.4354619e-91
1.4089575e-91
1.4432565e-91
1.3299717e-91
5.1186695e-92
5.5409597e-92
5.7437264e-92
6.0962531e-92
5.9840166e-92
6.4787471e-92
6.1881435e-92
6.329238e-92
6.4557521e-92
6.8120878e-92
6.4949395e-92
6.3147348e-92
1.4303717e-91
1.3282885e-91
1.5310292e-91
1.4650439e-91
2.4461496e-91
2.6417461e-91
3.7284788e-91
3.9310246e-91
3.1089338e-91
2.9285166e-91
1.4840619e-91
1.4584236e-91
1.4144789e-91
1.3286213e-91
1.4486372e-91
1.4063656e-91
1.1732371e-91
1.2936001e-91
2.4478996e-91
4.3155611e-91
2.24022e-91
2.5653875e-91
3.8924784e-91
4.6296544e-91
4.974972e-91
3.1738693e-91
6.4324199e-91
7.161781e-91
2.5915827e-91
1.9747597e-91
2.0023692e-91
2.7467635e-91
1.8627009e-91
1.7150175e-91
2.4606835e-91
2.5257442e-91
1.9815629e-91
3.6456377e-91
4.1789999e-91
3.6219866e-91
4.318326e-91
3.6874432e-91
4.0623339e-91
2.6059205e-91
1.6508937e-91
3.5602787e-91
4.2170078e-91
3.7526898e-91
3.9798292e-91
4.0156968e-91
3.803708e-91
3.9265514e-91
3.4164024e-91
4.9856477e-91
5.3087632e-91
2.0352737e-91
2.0902657e-91
2.0421364e-91
2.062588e-91
2.566341e-91
2.8400937e-91
2.2565476e-91
2.3381709e-91
5.512333e-91
5.5030042e-91
2.2708968e-90
2.0917576e-90
1.794565e-91
4.6116355e-91
2.0038376e-91
4.9980039e-91
2.7176962e-91
2.8233256e-91
2.1160438e-91
2.2550412e-91
2.0202383e-91
2.1280313e-91
5.2039228e-91
5.1947293e-91
2.8580726e-91
2.6021797e-91
2.3597257e-91
2.2635584e-91
2.7876934e-91
2.8552712e-91
2.087851e-91
2.2737541e-91
1.863481e-91
2.0664192e-91
5.1331377e-91
5.3497257e-91
2.1000368e-91
2.2077556e-91
5.3582823e-91
5.1352253e-91
2.0892528e-91
1.9858933e-91
2.0985995e-91
2.043499e-91
2.0758364e-91
2.7095962e-91
2.7686553e-91
2.238138e-91
2.0656228e-91
1.8340413e-91
5.055127e-91
5.3938791e-91
2.8453651e-91
2.5699929e-91
2.2471288e-91
2.3472572e-91
2.2552006e-91
2.1256893e-91
5.6025751e-91
5.4419573e-91
2.8482493e-91
2.7904724e-91
2.2803437e-91
2.0804317e-91
2.8467431e-91
2.5841064e-91
2.420352e-91
2.3250571e-91
2.1183214e-91
2.21584e-91
5.44553e-91
5.2098207e-91
1.8548274e-91
5.0229349e-91
2.0813088e-91
5.4585963e-91
1.4679387e-91
1.5410862e-91
3.283979e-91
1.7354511e-91
1.8337174e-91
1.432806e-91
1.5236293e-91
3.1728728e-91
1.7026517e-91
1.7583514e-91
1.4402571e-91
1.526144e-91
2.8437978e-91
1.7173779e-91
1.7165335e-91
1.4528728e-91
1.5603224e-91
3.1653785e-91
1.7788131e-91
1.7726977e-91
2.5411875e-91
2.7292435e-91
2.4604542e-91
2.4601954e-91
1.6670038e-91
1.6515057e-91
2.8893097e-91
2.775892e-91
2.4409837e-91
2.5850087e-91
1.6362126e-91
1.6822125e-91
2.8902576e-91
2.9231128e-91
2.6503646e-91
2.5256876e-91
1.6291314e-91
1.683357e-91
2.614172e-91
2.793656e-91
2.5552584e-91
2.5376979e-91
1.6455453e-91
1.630371e-91
2.6283407e-91
1.1413003e-91
2.4269121e-91
1.1257199e-91
1.0706887e-91
2.501369e-91
2.4631947e-91
1.0885595e-91
1.1987626e-91
6.1688541e-92
6.5938043e-92
1.2209938e-91
1.2784499e-91
6.6105468e-92
6.7950765e-92
1.1868975e-91
6.4585725e-92
5.6284389e-92
5.9065574e-92
6.874425e-92
6.97216e-92
6.2581331e-92
5.9263617e-92
6.9094808e-92
6.3077348e-92
6.7239879e-92
1.2606774e-91
1.2181833e-91
6.5289235e-92
5.8294757e-92
6.0247395e-92
6.9172204e-92
1.2773317e-91
6.5796947e-92
6.744984e-92
1.1751952e-91
6.9153205e-92
6.2226211e-92
5.7831304e-92
6.8081683e-92
1.0834548e-91
2.494344e-91
2.443418e-91
1.1060518e-91
1.1792656e-91
2.6399531e-91