/*--------------------------------*- C++ -*----------------------------------*\
  =========                 |
  \\      /  F ield         | OpenFOAM: The Open Source CFD Toolbox
   \\    /   O peration     | Website:  https://openfoam.org
    \\  /    A nd           | Version:  7
     \\/     M anipulation  |
\*---------------------------------------------------------------------------*/
FoamFile
{
    version     2.0;
    format      ascii;
    class       volScalarField;
    location    "2000";
    object      omega;
}
// * * * * * * * * * * * * * * * * * * * * * * * * * * * * * * * * * * * * * //

dimensions      [0 0 -1 0 0 0 0];

internalField   nonuniform List<scalar> 
33943
(
2374.8695
4157.2026
928.49721
940.51386
680.01763
4526.1001
9310.8087
2319.8373
4169.7835
4231.4724
941.93038
968.09641
7643.5275
1963.054
2003.0681
7952.2169
779.54722
843.69847
955.64494
943.10501
578.32096
2165.8616
2130.0164
669.25027
552.38395
596.3229
589.16688
550.00729
4516.9936
1332.8051
1331.8349
9308.3964
9369.9154
2059.4046
759.03098
4647.5445
4692.98
18448.153
18658.726
4060.7885
4135.072
921.19529
941.15197
7672.646
7922.2555
2003.686
1955.3239
7914.4051
7863.9675
2011.5065
2050.726
13327.393
4451.0652
12968.169
4393.7782
13953.503
13562.121
4620.3117
4583.2823
542.22533
781.75137
846.31271
786.88336
861.60043
1615.5781
1462.5662
1629.3781
1452.4179
1930.6487
1921.6145
1969.749
1938.8533
2166.6303
2195.6805
2130.1362
2169.2832
950.61367
581.97503
939.61848
528.28994
527.03502
543.36844
546.23063
5120.1711
5061.6081
4885.6868
4930.9069
555.41551
556.27833
597.75449
591.50085
540.03338
552.12496
544.14666
533.10978
1340.4481
1338.4791
9302.2679
9318.7473
764.88635
759.6809
2089.3396
2099.9996
759.7421
2066.953
2100.4578
768.02406
4699.2979
4719.1803
18877.542
18605.475
4654.3315
4719.1354
18803.897
18764.151
2220.989
780.97515
3609.8652
3621.0862
6846.7496
6821.7209
3648.3945
6914.8639
13132.66
13115.06
32132.716
32513.755
13241.937
32679.729
32700.845
959.21654
7697.8868
7487.2743
1911.4538
1960.3226
7675.8303
1995.2766
7782.1839
1965.2654
12905.351
13419.073
4351.4543
4475.8465
13718.342
13532.787
4560.8743
4586.2601
13503.973
13680.095
4546.2456
4588.0822
13642.377
13279.052
4597.1125
4568.4711
21634.127
21815.174
8054.1116
8205.4811
20678.519
21508.322
7892.2238
8025.3159
22623.265
22835.797
8539.5832
8546.912
8297.2462
22145.079
22000.362
8374.8392
544.09378
859.46882
782.27665
787.53274
505.96205
520.90749
519.75754
505.41887
844.27511
1466.93
1460.6877
1635.337
1616.7359
1923.7128
1929.4176
1974.6488
1945.5072
1671.1303
1493.5047
1460.9348
1627.5397
2006.3122
1960.6281
1942.8396
1979.1916
4155.2644
3993.4746
4002.5356
4174.2786
3385.0974
3386.2504
3084.7384
3060.0623
4310.3131
4055.5665
4124.9291
4265.0396
3428.0293
3473.5115
4660.9119
5073.8666
5104.1637
4600.8687
4735.5985
4617.7601
4726.5209
4660.43
5309.4005
4819.383
4794.135
5240.8441
4787.4552
4914.4465
4825.1625
4842.8365
5064.3974
5043.8804
5076.2594
5078.4342
4985.2284
2159.0962
4852.3955
5059.096
5080.0733
2152.5301
971.33058
527.30665
547.3903
547.57634
529.51115
2139.9274
2097.8945
520.96477
517.6186
525.11702
529.82178
9305.9057
9315.4494
9074.3429
9123.8488
8632.9286
8782.9822
8790.9669
8940.8318
548.25531
549.67243
564.54936
561.77677
575.60965
578.04387
570.0542
568.21394
652.41724
651.81794
634.392
764.74097
766.60145
2112.6213
2098.7948
761.47617
767.57201
2104.9365
2092.206
4681.4248
4719.7758
18590.571
18813.675
4682.4476
4710.9862
18707.852
18704.163
786.59981
781.09016
2260.185
2275.9912
781.67282
2229.5398
2270.4843
788.94218
3639.4042
3657.4014
6897.3363
6876.8047
6902.6864
3639.5678
3680.6818
6919.188
13282.452
33167.584
33113.365
13358.11
13245.017
13304.003
32515.308
33067.966
3603.7884
3605.3241
6831.3506
6812.1865
6927.7025
3659.9982
3674.4671
6899.9866
13269.472
13211.951
32884.318
32678.657
13171.498
13187.742
32765.239
33067.757
2308.8499
4149.5589
4128.0072
768.72211
776.14383
2336.858
4183.3431
7516.6857
7490.9781
7590.1457
12446.289
12637.593
18509.239
18248.337
18542.27
12604.114
12572.771
18461.131
47074.739
47895.055
28935.751
29253.646
29389.422
48017.022
29027.159
48171.961
12606.547
12787.194
18447.679
18715.745
29232.286
48131.502
29519.74
48552.547
29554.125
48243.283
7821.1355
2053.6779
13512.091
4493.8584
12972.371
4435.3155
13211.795
4395.866
12511.2
4220.2831
13323.971
12894.256
4456.7373
4453.4653
13309.378
4480.7723
13549.306
4555.6883
20523.825
21458.142
7817.303
7990.0918
21920.145
21871.947
8149.9108
8238.618
8417.8576
22393.055
22599.217
8433.4558
22112.552
21919.816
8346.6452
8246.2129
21856.673
22200.267
8301.9745
8262.6263
22278.476
22335.511
8443.9908
8292.2381
22109.603
22577.899
8441.9008
8346.6539
22015.812
21058.117
8178.2497
8284.8825
39001.396
38551.762
11734.81
11793.544
39154.675
38769.502
11913.552
11867.03
11317.118
35890.041
37301.764
11442.95
38346.87
38755.044
11692.184
11719.826
39735.629
40595.092
12320.356
12444.288
12504.634
41311.653
40517.357
12470.448
39915.117
39707.163
12095.313
12116.895
38819.591
39796.752
12086.765
12061.278
801.66764
504.6575
506.72342
521.46584
519.90787
877.32902
1955.5224
1979.0264
1958.3526
1946.1063
1460.1521
1634.8814
1466.551
1603.3939
1468.7555
1658.676
1487.3799
1632.0575
505.4402
512.11905
509.78778
502.41608
1903.6136
1956.6447
1905.0624
1935.9124
3103.3385
3069.0376
3357.8564
3431.7022
3088.1197
3068.1048
3429.3198
3420.0197
4265.6855
4072.5129
4041.9403
4258.5524
4053.8321
3967.7068
4117.0771
4238.0825
4690.7958
4813.3333
4730.3559
4582.4726
4566.9575
5177.4408
5035.5056
4715.6652
4785.0478
5238.8416
5274.8189
4793.6447
4792.9185
4835.8695
4870.8764
4789.6972
4174.27
4108.1248
4288.9596
4368.7279
3546.9652
3470.605
3137.9614
3202.9936
3436.7255
3090.5971
3115.0043
3429.6649
4252.7281
4053.8714
4074.4318
4259.5329
5293.2212
5271.3104
4785.9983
4826.74
5236.5593
5232.2776
4750.3798
4791.0166
4755.7441
4848.5537
4838.3741
4780.691
4795.5624
4882.9543
4936.9183
4859.2935
9358.8098
8974.4132
9755.9148
9342.5465
9038.7312
9265.9284
8856.7275
9107.4299
8838.2162
8670.5169
9255.4589
9070.2631
9551.7474
9151.0711
9797.3233
9413.7101
8084.2034
8199.6468
8289.4992
8432.0303
7905.3459
8019.0849
8289.137
8415.8158
6769.1293
7086.883
5742.4676
5969.8076
6906.9423
7101.2104
5997.9137
5832.5228
10152.718
10210.352
9743.1209
9817.0586
9259.528
9100.6842
9333.6979
9575.9794
9405.4636
9632.6364
9481.2138
9830.4833
10041.898
9439.7498
9659.6664
8243.4369
8387.6425
8562.5126
8693.9688
8601.0281
8759.2333
9354.4611
9533.9823
8431.5611
8607.4017
9817.8078
9567.112
8827.4302
9048.4351
9745.9882
9960.4358
8993.9779
9199.8467
9379.9022
9186.1177
8282.2806
8452.6443
9774.7323
9342.763
10024.899
9602.1675
10052.814
9745.6367
9103.0162
9384.4147
9589.8255
9170.7972
9944.8261
9497.3621
9926.5574
10169.642
9276.4869
9521.3489
10396.307
10420.097
9568.8864
9613.0367
9944.0584
9959.6003
8937.0457
8972.2552
9686.6493
9766.9512
8716.9537
8808.9535
10102.796
10223.194
9319.524
9442.0037
10281.552
10440.787
9617.0812
9784.4849
10413.201
9961.2643
10463.629
10026.937
10592.553
10631.817
9900.3516
9955.5578
10093.623
9665.1185
10284.418
9862.7523
9052.9631
9201.4849
9047.3438
9070.8012
9107.7342
8912.1381
9139.7996
9241.1921
8938.474
9010.0141
4986.007
4936.9548
8558.9378
8752.7087
9027.8768
9109.1921
9232.3372
9229.1554
5003.88
5062.0587
2214.212
525.55044
536.54995
536.0708
524.23009
5025.368
4913.7947
4904.283
4713.2904
573.1468
564.66013
567.98547
575.76772
13094.282
13247.629
13257.07
13315.96
12905.475
12888.056
12889.155
12823.361
11996.588
12154.384
12444.086
12451.85
12466.559
12537.988
12630.27
12641.165
581.71003
574.19292
579.74318
581.8771
635.34159
638.4912
626.56049
625.9019
654.90581
654.62723
637.28244
636.86951
797.55627
788.90399
2113.1329
786.76458
789.29106
2296.3512
2275.9446
783.67056
787.63471
2280.9716
2267.1782
4697.4664
3629.2166
6831.0852
6853.9907
3652.5055
3654.6308
3676.1303
6912.5752
6881.0301
13150.44
18859.894
32440.696
13119.91
33052.232
13199.593
13325.55
33219.159
32973.97
3617.0286
3646.2398
6865.203
6823.927
3644.972
3659.5253
6855.6777
6904.7181
13171.881
32813.888
13234.297
33229.88
13296.409
13192.438
32716.45
32970.76
778.43738
770.56236
2343.6679
4163.1975
4178.6196
2357.0809
4161.952
4192.5438
770.77352
2312.6167
4123.3702
4114.174
2357.4085
4195.659
4183.9462
779.8722
7567.3812
7541.731
7560.601
7580.3539
12642.597
12720.569
18512.192
18615.672
29528.033
29780.647
48433.009
48832.396
29707.639
48426.744
29186.978
48504.235
12813.496
12598.102
18500.96
18745.249
12490.717
12754.37
18332.575
18647.316
12668.014
12747.79
18673.672
18586.833
29314.328
29711.585
47199.067
48155.298
29935.735
29323.692
48551.661
48427.762
7490.74
7465.0068
7595.1723
7558.5137
18391.886
12559.484
12775.24
18643.644
18572.053
12679.76
12616.696
18474.747
29170.609
29386.925
48686.423
48119.75
28852.955
48339.779
47733.711
29383.577
12445.758
18298.391
18584.672
12667.742
12537.512
12614.516
18548.134
18470.079
29092.874
29493.472
47978.983
48504.197
29524.552
29085.057
48562.264
48637.127
4101.1757
4106.8959
2296.355
4797.0971
4747.0591
4144.1709
2320.3527
4820.1787
6306.5316
6326.1772
10518.243
10467.964
15938.431
15595.028
6262.3606
6263.3083
10505.274
10399.38
15846.422
15823.061
6352.9328
6365.5001
10554.572
10623.724
15792.098
16116.01
19074.96
23381.227
19124.734
23331.231
18847.373
18725.535
22908.802
23104.584
19089.398
19158.769
23480.94
23367.559
23357.56
18996.911
18991.465
23197.466
52783.278
64157.281
64916.337
53780.098
54469.386
65444.759
65045.041
54411.194
27071.685
26814.184
40349.42
39529.767
27289.709
27345.367
40601.358
40771.405
27328.516
27481.628
40747.819
41136.034
54563.769
64999.912
65520.948
54821.329
41067.816
27369.452
27153.809
40261.152
65633.691
64687.207
54463.38
54554.376
19035.737
18950.748
23156.372
23306.397
19309.424
19284.788
23604
23536.791
27307.182
27107.01
40578.908
41250.271
54601.459
64839.984
65410.398
54951.97
27506.087
27587.745
41579.67
41034.14
64987.774
65678.74
55277.095
54980.166
27564.422
27417.115
40772.815
41159.223
54579.538
64710.144
65257.87
54745.579
13153.348
13594.068
4580.998
4565.7134
8350.7313
22229.684
22075.741
8274.632
21227.193
20905.614
7988.8721
7920.1152
21543.269
21616.877
7980.0885
8137.0148
19836.134
20881.324
7552.9174
7747.2446
21687.458
21956.806
8171.8028
8239.2437
21097.076
20644.508
7951.9468
7979.2307
21406.796
22001.659
8132.7926
8226.1215
22164.177
8261.038
22075.273
8373.3967
37044.832
35503.629
11164.807
11294.416
38206.855
38426.688
11540.192
11603.529
39613.822
38882.481
11813.441
11923.648
38758.098
39242.568
11835.885
11894.465
40233.555
39468.457
12172.151
12248.264
40191.602
40703.286
12244.159
12260.284
39704.246
39442.845
11950.144
12001.515
38678.88
39449.777
11948.426
11976.212
39207.693
38367.83
11871.225
11954.085
39396.317
39897.138
12022.248
12054.312
40028.475
39566.269
12022.706
12098.527
39421.674
40172.703
12149.329
12173.425
39711.214
38830.242
12021.732
12133.61
40022.382
40714.059
12303.033
12310.536
39475.163
12052.809
39467.034
12074.213
37973.344
36670.501
11688.242
11649.292
41108.095
40687.554
41419.08
40912.158
38071.409
39401.089
40553.17
41050.581
41953.212
42787.393
43501.377
42748.72
42149.618
41898.712
41037.618
42073.455
1524.9421
1704.2225
506.16039
505.77175
513.63185
514.90495
2011.069
2034.9069
5265.6268
5217.8995
4724.0864
4802.0021
5149.1638
5202.4654
4695.8077
4707.9397
4737.5095
4830.8805
4731.2731
4800.7729
4746.8336
4873.6949
4843.4001
4813.3906
3033.5612
3302.7661
3079.5348
3399.8765
4007.4546
4126.2345
4293.2791
4199.7944
3402.9235
3479.6751
3145.346
3068.7953
4013.5906
3896.5758
4030.2631
4192.4241
3120.441
3122.3474
3436.3366
3460.3188
4063.7582
4067.9881
4253.3093
4243.0502
3116.4687
3458.9988
3439.2263
3128.5736
4245.5924
4087.6134
4293.3249
4070.3893
488.62583
491.34024
494.70342
498.1935
557.32433
566.18576
556.40574
546.48817
4674.7688
4587.4755
4761.1656
4470.0563
5113.2276
5252.4532
4745.4264
4670.9929
4904.1821
5111.0101
4442.4834
4648.0289
4752.9122
4891.296
4784.3278
4688.4694
7158.6947
7185.1277
6052.956
6055.2629
6766.108
7020.1965
5899.7702
5730.2888
7899.9184
7993.4397
8206.0339
8335.9956
8369.6333
8469.621
8382.6262
8536.4141
7143.563
7231.0764
6071.1205
6038.8714
6945.9842
7149.8784
5999.0937
5826.6438
8349.1533
8498.4298
8450.2112
8626.6611
8140.8683
8297.6511
8342.5382
8524.4416
9975.3691
9595.5779
10074.505
9701.8825
9378.5173
9496.107
9356.3066
9227.9171
9165.0587
9368.8351
9017.259
9243.9279
9744.484
9941.5935
9371.3085
9592.7762
9338.5991
9135.2679
9229.7871
9382.4466
8805.8706
8615.6594
9171.7387
8993.6538
9295.1641
8904.0046
9282.4294
9679.5207
9859.4235
9431.9288
9924.9686
9544.4781
9519.7105
9098.0412
9888.1669
9454.2061
10081.984
9618.4839
10161.55
9739.4274
10218.671
9524.4365
10307.734
9651.2956
9668.0211
9028.3723
10010.759
9352.5605
9112.1193
8213.3524
9350.2914
8426.5372
9999.7625
9199.9117
10090.344
9312.0965
9489.2011
8754.3723
9788.4223
9022.1716
9556.2255
8588.3085
9639.2622
8692.2046
9880.0481
8871.0903
9874.1437
8894.1007
10055.996
10200.558
9277.3986
9430.4426
10315.106
9503.661
10319.984
9532.6702
9639.8715
8675.4821
9754.646
8799.0321
10481.974
9814.102
10514.403
9862.8252
10025.989
9609.8334
10213.572
9818.7776
10271.588
9846.6983
10339.431
9922.3543
10221.902
10394.318
9571.2696
9760.8536
9722.1345
9389.5264
9511.9762
9239.493
9349.1597
9183.5757
9573.7907
9425.263
9915.0214
9521.3288
10151.295
9763.6016
10256.478
9797.9984
9905.7857
9524.938
8707.0126
8819.871
8409.5204
8567.4648
8355.1562
8484.5968
8548.7212
8705.5245
7160.5939
7331.8006
6073.7151
6203.6895
7447.5604
7220.5253
6097.9925
6316.2708
8309.0229
8420.9252
8458.872
8593.8926
7031.9961
7255.7784
6133.8016
5941.7134
7112.0142
7241.5222
6097.2849
6026.083
8219.6067
8350.4321
8456.1106
8620.174
9834.6142
9438.4946
9976.7601
9581.9485
9207.9875
9044.2002
9475.7023
9337.5907
9283.8639
9106.0726
9448.014
9275.8454
9763.951
9381.2171
10047.12
9682.8123
10280.624
9975.4917
9432.6833
9230.2704
10176.61
10342.56
9379.6752
9540.8844
9755.3719
8775.7781
9884.3996
8901.562
9780.1922
8766.9983
9531.7964
8619.2272
10048.749
10284.806
9278.1506
9504.2901
10092.145
9297.7193
10128.5
9353.8147
9665.386
8692.1151
9689.6573
8738.7131
9643.7987
9837.7569
8691.4843
8876.7654
10275.453
9604.0942
10340.47
9682.6973
10094.795
10200.212
9661.257
9769.6469
10029.593
10312.024
9607.5874
9901.158
10214.672
10484.63
9564.0586
9836.659
10358.773
10560.663
9684.9027
9886.313
10178.576
10403.926
9740.1703
9968.7003
10103.601
10453.06
9950.7902
9686.4076
10552.532
10215.424
9814.0939
9574.0601
14064.689
14715.372
14110.07
14635.534
14631.954
13933.969
13895.329
14556.764
15652.824
15005.368
15540.279
14865.676
15401.843
14625.214
15523.074
14771.89
16146.345
15183.18
15108.245
16037.612
16463.882
16372.698
15423.827
15555.819
14703.435
15684.174
14794.653
15567.982
16038.305
15187.509
15927.044
15040.561
14543.651
15446.227
14565.59
15402.098
15052.027
14232.299
14195.838
14990.693
15618.733
16481.976
15484.324
16580.703
15978.686
15050.272
16086.64
15190.934
15286.507
14638.528
14538.563
15154.031
14446.733
15052.024
15186.701
14348.859
15533.54
15663.696
14894.549
15053.936
14700.102
15589.059
14870.762
15442.857
18293.564
18244.303
16629.48
16602.986
16982.075
15703.801
15645.324
17059.196
18522.603
18577.471
16981.124
16863.509
17287.985
17369.008
15931.506
16058.32
15890.606
17384.421
15845.572
17410.687
16261.182
15009.419
15018.873
16259.299
17165.259
18776.538
17038.146
18837.402
17459.674
16042.652
17551.26
16177.749
18664.306
18711.382
17010.675
17099.538
18412.564
18522.607
20300.756
20308.596
17951.568
19506.598
19709.627
19698.747
17923.637
17939.132
18159.179
18270.873
19945.79
19964.08
19147.967
18913.752
16298.507
15661.796
15555.978
16165.067
16498.131
16416.664
15759.512
15872.17
15392.593
16256.569
15499.275
16117.922
16445.104
15692.203
16354.264
15573.304
16649.264
15693.994
15623.853
16545.211
15252.385
16233.666
15339.528
16122.304
16474.86
15603.811
16444.139
15531.082
16008.868
16996.535
16078.787
16911.854
16623.76
15756.228
15665.944
16515.031
16345.286
17204.123
16240.176
17270.171
16784.291
15875.625
16861.722
15987.73
15867.812
15214.582
15116.364
15738.496
16048.164
15387.685
16089.527
15460.766
14942.041
15800.921
15042.869
15665.696
16007.83
15964.327
15199.842
15274.501
18678.437
18629.224
17044.246
17018.598
17437.429
16170.01
16115.737
17512.521
17367.624
18954.144
17370.152
18937.088
17825.781
16518.49
16482.021
17782.498
17735.206
19305.552
17641.284
19337.6
18099.971
16726.27
18157.068
16829.394
12132.688
12866.888
12171.278
12794.292
12989.219
12297.378
12375.575
13057.623
12419.582
11803.272
12390.12
11835.992
11944.407
11996.03
12544.908
12602.955
13278.303
13948.194
13211.703
14001.042
13436.732
13448.85
12785.153
12796.988
13055.692
13062.652
12259.53
12272.842
12602.341
12663.572
13470.85
13512.43
13158.674
13959.715
13230.023
13847.432
14133.936
13392.734
13482.374
14209.86
13500.48
12639.497
13411.32
12586.119
12773.459
12861.403
13647.971
13719.136
12179.101
12822.13
12129.966
12859.824
12489.619
12494.689
11838.381
11854.187
11431.105
12088.484
12074.446
11514.913
11764.037
11803.482
12373.488
12402.831
14308.003
14970.023
14398.356
14840.338
14962.026
14269.931
14189.837
14844.226
14824.222
15220.024
14654.205
15375.492
15214.294
14514.865
14683.15
15369.776
14978.156
14324.868
14862.594
14197.709
14214.334
14222.855
13609.84
13630.059
13985.092
13975.147
13162.343
13179.478
13682.449
13770.161
14585.542
14677.624
14368.049
14431.701
13892.621
13874.97
14384.657
14416.297
13753.98
13764.252
14685.791
15135.266
14542.819
15261.178
14370.51
15088.249
15212.937
14514.533
14059.56
14776.3
14130.732
14667.065
15016.275
14371.327
14516.038
15161.698
14540.426
13666.695
14445.435
13585.111
13866.682
13970.609
14773.469
14886.19
14897.879
14078.156
14046.063
14829.684
14988.54
14158.924
14167.929
14972.546
14323.318
13387.617
13368.701
14279.008
14404.749
13451.186
13462.03
14386.263
13599.849
12858.454
12846.66
13563.76
13658.557
12909.264
12913.154
13641.71
13093.847
12426.286
12492.008
13096.674
13168.751
12547.338
12535.298
13149.465
13325.549
12595.635
12525.853
13220.389
13321.864
13323.675
12598.811
12620.096
12839.369
12200.699
12188.303
12774.986
12833.026
12840.034
12210.891
12206.598
14541.91
13757.337
13670.24
14414.483
14572.129
14592.525
13801.252
13815.648
14019.528
13108.285
13029.899
13907.47
14034.136
14042.928
13123.711
13147.029
15450.935
14772.931
14697.288
15326.202
15581.101
15562.965
14888.135
14932.139
15209.778
14257.459
14164.688
15109.005
15309.287
15307.216
14331.145
14352.91
16066.903
15931.622
15479.818
15389.828
16083.394
15974.558
15353.289
15286.115
16139.134
15541.38
15654.345
16233.472
15411.038
15521.674
16149.123
16239.346
15900.263
15209.82
15164.636
15813.112
15963.497
15283.188
15367.365
16042.64
15637.533
14643.626
14591.231
15585.268
15732.306
14718.655
14752.773
15775.673
15602.663
15016.154
15464.337
14920.206
15491.243
15618.364
14904.868
14818.179
15790.035
15231.308
15748.739
15165.286
15034.982
15754.875
15787.844
15095.339
12786.143
12876.752
12939.507
12928.01
12617.079
12718.864
12805.328
12806.903
12836.167
12865.284
12439.476
12333.397
12782.374
12913.282
13108.916
13088.023
12705.718
12575.769
12609.058
12633.165
9009.495
9057.8015
8761.4619
8731.82
11851.036
12019.53
12298.357
12332.001
12713.805
12778.102
12709.762
12725.64
12955.244
13038.428
13050.232
13036.873
9040.1093
8946.0781
9079.5945
9183.8968
5052.6447
5108.1266
578.07559
572.93858
588.16156
593.89402
9192.477
9070.674
8722.7749
8761.1149
8755.4054
8917.5503
8264.1541
8496.0548
641.1488
628.62173
628.44902
636.89271
631.3498
613.94395
610.5574
622.68666
639.61828
640.28431
616.17528
800.88781
793.08529
615.9337
793.17224
801.2425
2296.157
777.05844
782.60662
2377.7658
4183.3569
4181.114
2358.8612
4170.7836
4148.0735
774.1208
779.84151
2364.7783
4175.935
4159.9095
2348.5491
4129.7474
4158.7122
3640.5566
3671.3647
6863.7277
6873.6339
7498.0387
7523.6173
7584.6722
7543.6105
12623.946
12554.918
18479.688
18365.418
13207.031
13170.12
33222.975
32751.079
28912.071
46842.856
29315.083
48079.144
12659.523
12411.926
18210.275
18497.113
29502.562
29065.127
48322.738
48441.645
12592.433
12650.962
18368.715
18526.147
12822.707
12566.431
18390.732
18676.865
29493.506
29656.126
48518.2
48777.989
29697.899
29046.254
48075.311
47887.097
7526.2508
7483.1985
7505.9976
7575.3077
18213.554
12670.315
12409.881
18511.395
29479.541
29138.858
47736.279
48464.922
12582.152
12683.282
18540.554
18450.042
29191.031
29826.517
48603.562
48487.093
12546.266
12789.874
18634.147
18379.957
12550.454
12651.208
18426.425
18522.694
29603.381
28913.75
47792.795
47485.088
29437.054
47825.233
29575.418
48483.395
4163.4581
4131.0759
2328.056
4815.8896
4819.1937
4181.5495
4130.9809
2336.3772
4794.5559
4837.9547
4091.3624
4084.3492
2297.3846
4763.1992
4731.3129
4167.1646
4161.0828
2343.6127
4848.4787
4823.135
6339.7056
6318.1676
10580.863
10493.776
15952.804
15971.819
6327.4976
6319.2953
10453.04
10542.264
15640.283
16061.704
6310.1224
6318.6647
10550.171
10509.186
15793.156
16133.55
6372.6622
6325.2232
10514.117
10561.929
15900.463
15913.731
19011.063
23348.59
19029.63
23175.563
23404.008
19099.977
19212.255
23526.844
40019.644
27183.85
27403.701
40567.035
40848.677
27641.551
27492.18
40289.171
54588.889
64998.99
65458.108
54995.821
54988.507
66043.072
65150.363
54986.334
27401.371
27541.177
40695.413
40160.5
54721.781
65040.736
65636.842
54837.623
40599.324
27379.064
27122.097
39965.927
54615.284
65863.288
64842.21
54534.184
23185.808
18931.038
19089.243
23391.827
23617.054
19264.087
19326.471
23533.474
18732.687
22963.014
18928.15
23218.246
19247.793
19150.376
23490.408
23453.18
19288.739
19158.367
23486.037
23625.637
19122.301
19081.772
23445.374
23293.351
39930.511
26958.642
27253.901
40875.673
41519.811
27549.835
27459.425
41024.402
52732.042
64628.497
65650.059
53742.939
65789.802
66516.852
54302.446
54384.612
41225.289
27545.179
27678.006
41404.896
41065.805
27508.119
27252.74
39950.879
54692.912
66097.21
66286.263
55117.449
64732.716
66227.677
54753.519
54628.131
6268.1125
6285.814
10472.014
10424.941
15973.267
15602.299
6249.9261
6205.8657
10425.364
10384.58
15807.899
15833.669
6378.7254
6369.8721
10536.637
10619.535
15726.657
16077.801
6340.9978
6324.3075
10563.884
10476.128
15879.22
15876.089
23048.039
18850.531
23227.127
18982.922
23481.057
19189.86
19241.941
23403.333
23341.367
19086.703
19190.007
23473.867
19006.04
19010.07
23145.392
23320.473
39945.197
26976.574
27185.114
40388.449
27309.362
27438.362
40038.921
40775.581
65446.899
55347.749
55120.113
64773.367
54304.828
64790.092
64967.487
54900.754
27269.708
27029.613
40352.176
39668.436
64794.924
65198.034
54822.925
54753.857
64140.861
64991.737
54061.663
53557.861
27420.622
27262.371
40416.15
40113.327
22971.06
18730.929
18884.357
23182.785
23469.319
19114.851
19173.693
23390.822
23360.905
19046.479
19147.807
23484.751
18978.024
18993.096
23162.264
23340.29
39912.501
26957.224
27199.468
40551.02
41334.376
27503.275
27363.3
40478.156
54017.569
64981.477
65467.417
54577.251
65421.036
66512.24
54801.07
54807.402
40407.329
27351.961
27493.016
40636.573
40604.745
27356.359
27082.237
39717.172
54857.537
65282.74
65530.101
55104.55
64621.248
65695.478
54975.367
54765.358
7144.3484
7115.5666
7219.999
7187.3381
5237.8618
5152.4678
4621.4335
4655.407
8195.5747
8148.9891
7144.6656
7160.7641
8105.044
8052.4599
7075.5516
7086.9124
7249.1449
7223.3845
5221.7367
4675.2499
7192.9193
8176.9882
8212.1228
7182.56
11436.226
16856.449
11381.84
16610.682
21374.467
21425.961
20917.439
21208.575
11421.323
16852.108
11304.876
16712.525
21559.455
21351.024
21269.17
21307.62
11464.846
16775.872
11535.975
17018.958
21159.773
21390.217
21592.422
21603.724
25386.449
25304.651
24839.555
25127.652
25516.833
25332.481
25362.866
25154.439
58106.944
94732.742
96023.559
58630.86
59028.769
95401.947
95928.607
58805.437
29114.429
28760.971
56027.622
54280.929
29289.316
29378.99
56364.61
56396.617
29308.152
29531.662
56430.579
57223.698
58990.035
95298.916
96188.625
59172.074
57169.576
29397.721
29128.983
55928.772
96550.639
95757.37
58816.634
59068.538
25091.886
25312.415
25594.106
25491.333
29338.675
29070.745
56705.227
57875.443
58651.64
95421.512
96364.929
58593.194
29491.695
29612.416
58065.606
56967.232
95960.123
96610.221
58696.534
58467.902
56440.668
57041.866
58366.305
95120.28
95752.125
58591.254
21541.321
20828.387
8160.5017
8170.5039
22141.768
22225.985
8416.7891
8404.3187
39862.955
39186.317
12057.8
12128.15
38948.408
39749.684
11955.097
11948.564
38060.805
37768.477
11476.062
11518.786
36708.283
37352.671
11391.349
11458.874
38722.394
38231.116
11551.831
11629.191
38245.989
38609.874
11661.561
11754.161
35800.468
34221.855
10774.17
10890.121
11168.526
37443.614
37222.199
11268.566
38789.31
38191.853
11821.017
11882.615
38878.45
39616.152
11953.122
11963.762
37863.062
37648.718
11524.894
11564.896
36013.822
37141.899
11386.701
11384.868
38451.542
37242.423
11645.993
11760.743
39041.582
39372.376
11877.9
11942.176
39874.25
39252.525
11957.083
12050.329
38888.319
39726.844
12037.896
12066.426
39329.105
37780.9
40567.1
40864.874
42061.287
41317.949
41146.072
41721.657
42695.933
42006.349
42684.484
43274.799
42160.946
41876.209
41055.241
41978.195
41595.998
40835.019
41769.524
42368.092
42389.087
41955.815
41785.17
42636.219
41973.433
41240.245
42366.097
43028.039
41813.646
41863.358
40319.284
38804.136
74046.523
35721.836
73523.252
35373.075
74273.301
36098.005
73414.745
35700.388
70347.627
32946.066
72162.4
34105.51
73222.428
35347.415
73935.893
35731.633
74025.128
36835.081
74640.186
37632.089
75304.668
38333.843
74428.579
37661.017
74257.619
36941.584
73825.559
36748.942
73078.583
36044.003
74232.85
36967.095
3246.0667
3226.1925
3553.1609
3584.413
4199.8856
4393.1696
4195.4085
4369.4102
489.09067
490.58387
497.70663
497.59792
594.29464
574.86241
588.11375
588.61435
4871.4165
4965.7727
4948.9834
4863.9651
4828.6092
4821.6713
5327.6045
5286.3558
10160.984
10319.303
9363.8101
9537.474
10028.933
9234.3701
10146.668
9367.2294
9591.9012
8609.8677
9695.4452
8726.7811
9723.609
8735.3064
9856.7354
8881.9332
9846.9396
9778.6888
9053.0722
9048.266
10093.148
9290.3577
10175.849
9390.3608
9396.2313
9349.5588
8435.283
8447.0869
8663.6827
9658.9928
9718.2628
8744.4743
10286.045
9605.0346
10398.02
9735.5684
10104.115
10245.408
9667.483
9825.3506
10094.689
10006.883
9393.6024
9381.2292
9992.3037
9889.4379
9516.7361
9487.1725
10228.622
9551.5368
10360.797
9705.3843
10183.271
10356.722
9739.5861
9951.9605
10052.578
9619.336
10203.055
9787.047
10353.663
10528.845
9674.832
9881.2244
6564.8163
6940.3788
5820.0826
5540.7032
7686.3304
7770.7328
8119.7344
8231.9014
6973.922
7173.9649
6045.2964
5887.1367
8160.3837
8263.0545
8364.2174
8512.6776
9153.3321
9123.3591
8958.7212
8989.4081
9678.729
9480.5338
9539.5102
9383.4018
10237.293
9796.8745
10083.832
9687.4456
9667.6853
9656.7381
9243.2295
9297.8772
8176.9944
8293.8646
8146.8243
8311.9241
8673.3816
8781.3794
8530.2967
8687.0707
7437.7188
7320.2739
6323.5847
6171.9476
6976.7451
6989.191
5878.126
5871.1904
9119.3655
8926.8881
9356.2788
9202.7857
8571.2212
8370.5455
9052.6845
8853.7357
9032.9044
8632.7846
9516.6691
9101.9958
9642.7219
9228.0869
9899
9517.1083
7160.9216
7299.6908
6167.3096
6054.4009
7099.1005
7215.163
6069.539
6021.1597
8283.5549
8392.2363
8419.5265
8569.4477
8368.713
8490.6246
8495.9608
8664.8657
9291.0061
9188.6848
9086.9499
9039.6284
9269.7959
9103.3623
9440.9624
9297.9566
9800.0359
9692.4321
9362.0622
9321.5295
9834.805
9442.5577
10003.284
9625.5485
7098.5147
7234.9255
6112.4452
6024.7979
8313.4216
8423.7004
8229.9949
8384.3906
8279.4146
8407.0953
8427.9996
8589.7824
7097.815
7064.5817
5981.6204
5947.1451
9793.572
9395.1326
9964.1924
9583.0538
9366.8908
9188.6066
9518.3388
9385.5101
9923.4874
9520.1412
10092.378
9732.7607
9251.0775
9068.6168
9422.4728
9263.8422
520.84557
528.718
533.94457
541.95557
623.4736
639.45995
623.27685
609.21095
10017.735
10264.792
9332.1555
9598.394
9228.2148
8800.8839
9684.606
9239.1164
9873.3223
9423.7993
10132.732
9705.8814
9345.3459
8710.6177
9768.9633
9107.0178
9779.4289
9816.1524
9002.4828
9081.2375
10383.627
10203.108
9524.5703
9415.1969
9889.1197
9736.4957
8847.1967
8763.2788
9346.2253
8397.4813
9388.0192
8475.7455
9155.7947
8447.8257
9523.2601
8772.3207
9801.5675
9018.6513
10030.253
9245.6689
8793.2195
7929.6731
9088.1709
8185.5689
9369.0282
8414.5612
9565.9667
8610.4421
9874.0203
9886.8325
9415.7014
9489.3833
10476.626
10304.283
9869.9703
9992.2616
10622.282
9891.4798
10438.353
9768.0605
9997.6276
10029.99
9319.2118
9405.703
20439.836
20447.916
18567.943
18650.106
18354.602
18467.895
20150.148
20143.26
19317.675
19645.388
18859.053
18932.349
17105.275
17270.851
18171.404
18321.281
20039.55
20056.131
19251.025
18192.647
17442.208
17557.414
16000.227
15850.926
16245.576
16348.653
14956.508
15083.197
16990.229
18528.895
16814.744
18625.568
15855.521
17246.484
17373.917
16034.616
17266.773
18927.277
17203.706
18952.892
16244.013
17646.164
17656.223
16280.173
17177.103
18721.668
17054.466
18768.82
16146.496
17501.63
17566.555
16267.735
19916.755
19939.573
18209.619
18288.321
18763.845
18879.546
20600.761
20595.586
19760.398
19128.096
19906.196
19911.68
18131.213
18197.96
18305.033
18417.614
20079.043
20071.965
19250.305
19095.668
18590.642
18611.819
17047.095
17001.731
17463.724
17454.614
16182.442
16191.823
17568.229
19143.207
17438.754
19198.42
16521.799
17896.893
17975.293
16650.881
16898.025
18516.71
16867.757
18516.617
16004.377
17331.933
17302.094
15996.984
17127.976
18668.345
17014.072
18709.886
16129.419
17456.541
17508.44
16233.055
15343.203
16034.269
15414.692
15932.957
15295.871
16017.879
15900.315
15212.765
16201.286
16277.906
15539.221
15647.387
15369.175
16201.686
15476.393
16130.539
15746.3
16669.135
15771.879
16624.816
16997.538
16026.741
16151.013
17079.811
15785.019
16567.498
15661.523
16651.158
16323.95
16250.463
15481.021
15433.31
16482.254
15540.443
15504.038
16417.889
16638.235
16591.171
15659.832
15752.639
15148.879