/*--------------------------------*- C++ -*----------------------------------*\
  =========                 |
  \\      /  F ield         | OpenFOAM: The Open Source CFD Toolbox
   \\    /   O peration     | Website:  https://openfoam.org
    \\  /    A nd           | Version:  7
     \\/     M anipulation  |
\*---------------------------------------------------------------------------*/
FoamFile
{
    version     2.0;
    format      ascii;
    class       volScalarField;
    location    "2000";
    object      p;
}
// * * * * * * * * * * * * * * * * * * * * * * * * * * * * * * * * * * * * * //

dimensions      [0 2 -2 0 0 0 0];

internalField   nonuniform List<scalar> 
33943
(
-1.5728962e+183
-1.5305393e+183
-1.5059086e+183
-1.4487718e+183
-1.5409036e+183
-1.587492e+183
-1.5410235e+183
-1.5591723e+183
-1.5202963e+183
-1.5259891e+183
-1.4972842e+183
-1.5026365e+183
-1.5035342e+183
-1.485147e+183
-1.4868063e+183
-1.5055283e+183
-1.3444307e+183
-1.3960618e+183
-1.4458235e+183
-1.4406087e+183
-1.4411547e+183
-1.4517867e+183
-1.4504536e+183
-1.5232446e+183
-1.5029812e+183
-1.5546378e+183
-1.5618453e+183
-1.5096445e+183
-1.5732332e+183
-1.5294208e+183
-1.5352743e+183
-1.5299422e+183
-1.5359636e+183
-1.5092508e+183
-1.5016933e+183
-1.5137901e+183
-1.5159704e+183
-1.51207e+183
-1.5141915e+183
-1.5043018e+183
-1.5128804e+183
-1.4817279e+183
-1.490003e+183
-1.4926147e+183
-1.4959537e+183
-1.4786959e+183
-1.4751792e+183
-1.4985673e+183
-1.5009795e+183
-1.4812665e+183
-1.4833877e+183
-1.4891833e+183
-1.47605e+183
-1.4880568e+183
-1.4750453e+183
-1.4901057e+183
-1.4908102e+183
-1.4767494e+183
-1.4773868e+183
-1.3417394e+183
-1.3356855e+183
-1.3874383e+183
-1.3406644e+183
-1.3923959e+183
-1.3658165e+183
-1.3426161e+183
-1.3676059e+183
-1.3444546e+183
-1.4196658e+183
-1.3894552e+183
-1.4210913e+183
-1.3911357e+183
-1.4468313e+183
-1.4488932e+183
-1.4414408e+183
-1.4444488e+183
-1.4345372e+183
-1.4274466e+183
-1.4276951e+183
-1.4063878e+183
-1.4124852e+183
-1.4618091e+183
-1.4555632e+183
-1.4553011e+183
-1.4561188e+183
-1.4538096e+183
-1.454625e+183
-1.4943133e+183
-1.4843492e+183
-1.5327996e+183
-1.5446455e+183
-1.5021944e+183
-1.5530851e+183
-1.5605378e+183
-1.5094185e+183
-1.5163252e+183
-1.5237321e+183
-1.5159643e+183
-1.5238312e+183
-1.4947944e+183
-1.49195e+183
-1.4987585e+183
-1.5016787e+183
-1.4967972e+183
-1.5038914e+183
-1.5064967e+183
-1.4992295e+183
-1.5026939e+183
-1.5057379e+183
-1.5040435e+183
-1.5009319e+183
-1.5079662e+183
-1.5108149e+183
-1.5091397e+183
-1.506417e+183
-1.4814474e+183
-1.4736706e+183
-1.4948785e+183
-1.4936026e+183
-1.4973377e+183
-1.4986079e+183
-1.4956597e+183
-1.4994533e+183
-1.4985187e+183
-1.4998279e+183
-1.4950976e+183
-1.4963485e+183
-1.5006582e+183
-1.4972389e+183
-1.4980425e+183
-1.4749098e+183
-1.4815188e+183
-1.4771719e+183
-1.4602621e+183
-1.4643393e+183
-1.4889105e+183
-1.4715111e+183
-1.4851032e+183
-1.4677364e+183
-1.4773739e+183
-1.4792209e+183
-1.4649692e+183
-1.466877e+183
-1.4806947e+183
-1.4820312e+183
-1.4683185e+183
-1.4696616e+183
-1.4833222e+183
-1.4845088e+183
-1.4708699e+183
-1.4720782e+183
-1.4855871e+183
-1.4866865e+183
-1.4740106e+183
-1.4730255e+183
-1.4798524e+183
-1.4802945e+183
-1.4709982e+183
-1.4714136e+183
-1.478699e+183
-1.4793525e+183
-1.4700078e+183
-1.4705837e+183
-1.4808322e+183
-1.4812685e+183
-1.4718041e+183
-1.4722146e+183
-1.4725429e+183
-1.481605e+183
-1.4819634e+183
-1.4729341e+183
-1.3306421e+183
-1.3822787e+183
-1.3254104e+183
-1.3310237e+183
-1.3120547e+183
-1.3597389e+183
-1.3655106e+183
-1.3175373e+183
-1.3761059e+183
-1.3338021e+183
-1.3362523e+183
-1.3598e+183
-1.3570835e+183
-1.3809739e+183
-1.411047e+183
-1.4138464e+183
-1.3838018e+183
-1.3642525e+183
-1.3410787e+183
-1.3385793e+183
-1.362045e+183
-1.4180445e+183
-1.4160424e+183
-1.3858919e+183
-1.3879406e+183
-1.3748307e+183
-1.3638223e+183
-1.3630193e+183
-1.3755694e+183
-1.3535408e+183
-1.3527537e+183
-1.3423491e+183
-1.3430546e+183
-1.37639e+183
-1.3656164e+183
-1.3646242e+183
-1.3773556e+183
-1.3553568e+183
-1.3543847e+183
-1.4355798e+183
-1.4159098e+183
-1.4166951e+183
-1.4347871e+183
-1.3873534e+183
-1.4007666e+183
-1.38659e+183
-1.4015709e+183
-1.4173879e+183
-1.436232e+183
-1.4371328e+183
-1.4183579e+183
-1.4033059e+183
-1.3881493e+183
-1.4023457e+183
-1.3891576e+183
-1.451049e+183
-1.4501191e+183
-1.4529362e+183
-1.4519104e+183
-1.4463675e+183
-1.4382396e+183
-1.4446407e+183
-1.4490797e+183
-1.4477575e+183
-1.4346544e+183
-1.4212714e+183
-1.3916784e+183
-1.4388526e+183
-1.4475607e+183
-1.3993192e+183
-1.4313012e+183
-1.4278169e+183
-1.4053617e+183
-1.4116944e+183
-1.4601132e+183
-1.4532948e+183
-1.458608e+183
-1.4589539e+183
-1.4593307e+183
-1.4598427e+183
-1.456911e+183
-1.4573518e+183
-1.4577528e+183
-1.458225e+183
-1.4930646e+183
-1.4830439e+183
-1.530797e+183
-1.5425896e+183
-1.5022199e+183
-1.5533047e+183
-1.5608952e+183
-1.5096035e+183
-1.4711469e+183
-1.4751933e+183
-1.425101e+183
-1.4794822e+183
-1.4832277e+183
-1.4897549e+183
-1.4858437e+183
-1.486038e+183
-1.4891063e+183
-1.4958361e+183
-1.4927049e+183
-1.489227e+183
-1.4933244e+183
-1.4865904e+183
-1.4908141e+183
-1.4963599e+183
-1.4996959e+183
-1.4941429e+183
-1.4976665e+183
-1.467543e+183
-1.4649695e+183
-1.4720767e+183
-1.4746716e+183
-1.469598e+183
-1.4769795e+183
-1.4792004e+183
-1.4717488e+183
-1.4832173e+183
-1.4848239e+183
-1.4883037e+183
-1.4866674e+183
-1.4895792e+183
-1.4860863e+183
-1.4873302e+183
-1.4908771e+183
-1.4919694e+183
-1.4873009e+183
-1.488652e+183
-1.4906138e+183
-1.4876356e+183
-1.4893314e+183
-1.4841613e+183
-1.4859237e+183
-1.4885208e+183
-1.4898883e+183
-1.4920996e+183
-1.4934523e+183
-1.4945683e+183
-1.490948e+183
-1.4922268e+183
-1.4958912e+183
-1.4956436e+183
-1.497023e+183
-1.4922773e+183
-1.4935753e+183
-1.49322e+183
-1.4945763e+183
-1.4899347e+183
-1.4912048e+183
-1.4540474e+183
-1.4798953e+183
-1.4809655e+183
-1.447706e+183
-1.4490307e+183
-1.4553454e+183
-1.4817256e+183
-1.4847284e+183
-1.4858122e+183
-1.486674e+183
-1.4895184e+183
-1.4901971e+183
-1.4912329e+183
-1.4905151e+183
-1.4917592e+183
-1.4911976e+183
-1.4907364e+183
-1.4922701e+183
-1.4846171e+183
-1.4853415e+183
-1.4890137e+183
-1.4897275e+183
-1.4902586e+183
-1.4858662e+183
-1.4907411e+183
-1.4863288e+183
-1.4916635e+183
-1.4920951e+183
-1.4927174e+183
-1.4931929e+183
-1.4912395e+183
-1.4869222e+183
-1.4917111e+183
-1.4873867e+183
-1.4920475e+183
-1.4876983e+183
-1.4733796e+183
-1.4568697e+183
-1.4660007e+183
-1.4539733e+183
-1.4678715e+183
-1.4557839e+183
-1.4640779e+183
-1.4521692e+183
-1.4618359e+183
-1.4500537e+183
-1.473527e+183
-1.4754299e+183
-1.4611777e+183
-1.4630962e+183
-1.4697602e+183
-1.4574935e+183
-1.4717414e+183
-1.4594668e+183
-1.4682637e+183
-1.4692896e+183
-1.4600459e+183
-1.4610729e+183
-1.4701346e+183
-1.4708873e+183
-1.4619067e+183
-1.4627096e+183
-1.4633978e+183
-1.4716334e+183
-1.4723483e+183
-1.4640955e+183
-1.4729664e+183
-1.4735774e+183
-1.4653566e+183
-1.4647048e+183
-1.4742354e+183
-1.4748321e+183
-1.466515e+183
-1.4659477e+183
-1.4753077e+183
-1.4757578e+183
-1.4674059e+183
-1.4669543e+183
-1.4763232e+183
-1.4768884e+183
-1.4683943e+183
-1.4678689e+183
-1.4773968e+183
-1.4779764e+183
-1.4694229e+183
-1.4688541e+183
-1.4723764e+183
-1.4720978e+183
-1.467742e+183
-1.4680038e+183
-1.4726083e+183
-1.4727903e+183
-1.4684417e+183
-1.4682195e+183
-1.4667496e+183
-1.4710735e+183
-1.471407e+183
-1.467066e+183
-1.4718545e+183
-1.4716644e+183
-1.4673035e+183
-1.4675204e+183
-1.4730554e+183
-1.4733083e+183
-1.4686863e+183
-1.4689218e+183
-1.4690854e+183
-1.4734877e+183
-1.4736391e+183
-1.4692551e+183
-1.4740776e+183
-1.4738323e+183
-1.4694245e+183
-1.469642e+183
-1.4745211e+183
-1.4742851e+183
-1.469836e+183
-1.4701123e+183
-1.3203197e+183
-1.3003772e+183
-1.3065955e+183
-1.3535046e+183
-1.3466039e+183
-1.370406e+183
-1.4048406e+183
-1.4082277e+183
-1.378576e+183
-1.3752726e+183
-1.3231352e+183
-1.3489628e+183
-1.3260814e+183
-1.3457738e+183
-1.32869e+183
-1.3548755e+183
-1.3317605e+183
-1.351757e+183
-1.3119946e+183
-1.3580882e+183
-1.3640278e+183
-1.3176501e+183
-1.3690074e+183
-1.4015657e+183
-1.3983735e+183
-1.3721806e+183
-1.3351767e+183
-1.3340102e+183
-1.344366e+183
-1.3457349e+183
-1.3363774e+183
-1.3377796e+183
-1.3471357e+183
-1.3485107e+183
-1.3697409e+183
-1.35764e+183
-1.3590338e+183
-1.3710789e+183
-1.356195e+183
-1.3547192e+183
-1.3667845e+183
-1.3683077e+183
-1.3787756e+183
-1.3803555e+183
-1.3945371e+183
-1.3928405e+183
-1.4261666e+183
-1.4094261e+183
-1.4076913e+183
-1.4278821e+183
-1.4292323e+183
-1.4120712e+183
-1.4107739e+183
-1.4304784e+183
-1.3959544e+183
-1.3830847e+183
-1.3817561e+183
-1.3971906e+183
-1.3623505e+183
-1.3614066e+183
-1.3732156e+183
-1.374098e+183
-1.352075e+183
-1.3511566e+183
-1.3407966e+183
-1.3417038e+183
-1.3493758e+183
-1.3398128e+183
-1.3387691e+183
-1.3502183e+183
-1.3718612e+183
-1.3605702e+183
-1.3597812e+183
-1.3725251e+183
-1.4152036e+183
-1.4143538e+183
-1.43301e+183
-1.433974e+183
-1.4136924e+183
-1.4129259e+183
-1.4314546e+183
-1.4322764e+183
-1.3979934e+183
-1.3838399e+183
-1.3844951e+183
-1.3987154e+183
-1.3993706e+183
-1.3851009e+183
-1.3859292e+183
-1.4001064e+183
-1.3728262e+183
-1.3789149e+183
-1.3731938e+183
-1.3792614e+183
-1.3625594e+183
-1.3630214e+183
-1.3680287e+183
-1.3684607e+183
-1.361834e+183
-1.3672799e+183
-1.3621907e+183
-1.367662e+183
-1.3735194e+183
-1.379604e+183
-1.3739722e+183
-1.3800482e+183
-1.3521712e+183
-1.357436e+183
-1.3526354e+183
-1.3579007e+183
-1.3514592e+183
-1.3567229e+183
-1.3518281e+183
-1.3570712e+183
-1.3465415e+183
-1.3469013e+183
-1.3414683e+183
-1.3417812e+183
-1.3472337e+183
-1.347677e+183
-1.3425422e+183
-1.342078e+183
-1.3743781e+183
-1.3748281e+183
-1.3804368e+183
-1.3808683e+183
-1.364341e+183
-1.3697845e+183
-1.3702703e+183
-1.3634279e+183
-1.3688614e+183
-1.3638721e+183
-1.3693215e+183
-1.3752568e+183
-1.3757687e+183
-1.3813238e+183
-1.3818687e+183
-1.3539741e+183
-1.3592329e+183
-1.3530462e+183
-1.3583209e+183
-1.3535485e+183
-1.3587736e+183
-1.4337314e+183
-1.4341861e+183
-1.4456443e+183
-1.4460894e+183
-1.41435e+183
-1.4139617e+183
-1.4231645e+183
-1.4235976e+183
-1.4147226e+183
-1.4151761e+183
-1.4240045e+183
-1.424412e+183
-1.4333309e+183
-1.432908e+183
-1.4448529e+183
-1.4452605e+183
-1.3855796e+183
-1.3922189e+183
-1.386018e+183
-1.3926237e+183
-1.3986147e+183
-1.39824e+183
-1.4061009e+183
-1.4064686e+183
-1.3848585e+183
-1.3914563e+183
-1.3852156e+183
-1.3918403e+183
-1.3989703e+183
-1.3994082e+183
-1.4068376e+183
-1.4072844e+183
-1.4155269e+183
-1.4159401e+183
-1.424758e+183
-1.425194e+183
-1.4345122e+183
-1.4349243e+183
-1.4464612e+183
-1.4468286e+183
-1.4353475e+183
-1.4358765e+183
-1.4472277e+183
-1.4477569e+183
-1.4163849e+183
-1.4169071e+183
-1.425636e+183
-1.4261141e+183
-1.4006901e+183
-1.4012517e+183
-1.4085307e+183
-1.4090677e+183
-1.3863738e+183
-1.3929761e+183
-1.3868177e+183
-1.3934439e+183
-1.3997641e+183
-1.4002174e+183
-1.4076499e+183
-1.4080697e+183
-1.387298e+183
-1.3939389e+183
-1.3878625e+183
-1.3944832e+183
-1.4540694e+183
-1.4545158e+183
-1.4532429e+183
-1.453663e+183
-1.4558162e+183
-1.4564233e+183
-1.454917e+183
-1.4553366e+183
-1.4493161e+183
-1.4501751e+183
-1.4408017e+183
-1.4428306e+183
-1.4475215e+183
-1.4484891e+183
-1.4520641e+183
-1.4527532e+183
-1.4508086e+183
-1.4514254e+183
-1.4373149e+183
-1.4391246e+183
-1.4248796e+183
-1.3901782e+183
-1.4362488e+183
-1.4451419e+183
-1.3979878e+183
-1.4339125e+183
-1.4357435e+183
-1.4322863e+183
-1.4305961e+183
-1.4051431e+183
-1.4114395e+183
-1.4599131e+183
-1.4531244e+183
-1.4604764e+183
-1.4606736e+183
-1.4610495e+183
-1.4608292e+183
-1.4614295e+183
-1.4612231e+183
-1.4616751e+183
-1.4620104e+183
-1.4586314e+183
-1.4588692e+183
-1.459081e+183
-1.4593345e+183
-1.4595511e+183
-1.4597741e+183
-1.4599962e+183
-1.4602565e+183
-1.4931311e+183
-1.4831118e+183
-1.5312146e+183
-1.5428921e+183
-1.5022449e+183
-1.5533672e+183
-1.5609665e+183
-1.509636e+183
-1.465743e+183
-1.4599278e+183
-1.4180914e+183
-1.4220218e+183
-1.4217402e+183
-1.4203582e+183
-1.4821634e+183
-1.4533518e+183
-1.4566206e+183
-1.463432e+183
-1.4600851e+183
-1.459449e+183
-1.4623132e+183
-1.4692271e+183
-1.4663589e+183
-1.485328e+183
-1.4702146e+183
-1.4731534e+183
-1.4753258e+183
-1.4723136e+183
-1.473949e+183
-1.4755702e+183
-1.4769747e+183
-1.4787051e+183
-1.4756325e+183
-1.4825721e+183
-1.4690761e+183
-1.4733819e+183
-1.4713435e+183
-1.4792021e+183
-1.4773427e+183
-1.4731842e+183
-1.4750759e+183
-1.4770591e+183
-1.4788181e+183
-1.4820437e+183
-1.4802719e+183
-1.4801722e+183
-1.4817095e+183
-1.4850941e+183
-1.483465e+183
-1.4809066e+183
-1.4769429e+183
-1.4827577e+183
-1.4788598e+183
-1.4842357e+183
-1.4859625e+183
-1.4823395e+183
-1.4805053e+183
-1.4419315e+183
-1.4394989e+183
-1.445402e+183
-1.4700692e+183
-1.4715331e+183
-1.4478163e+183
-1.4727909e+183
-1.4740118e+183
-1.4439238e+183
-1.4499459e+183
-1.4752173e+183
-1.4764921e+183
-1.4521531e+183
-1.4776033e+183
-1.4787633e+183
-1.4459992e+183
-1.4760341e+183
-1.4745391e+183
-1.4773538e+183
-1.4785868e+183
-1.4831923e+183
-1.4838008e+183
-1.4848356e+183
-1.484179e+183
-1.4814961e+183
-1.4822084e+183
-1.4772691e+183
-1.4779874e+183
-1.4827773e+183
-1.4785629e+183
-1.4833921e+183
-1.479149e+183
-1.4826126e+183
-1.4819277e+183
-1.4828949e+183
-1.4836185e+183
-1.4789276e+183
-1.4797964e+183
-1.4797876e+183
-1.480715e+183
-1.4805329e+183
-1.4812338e+183
-1.4814388e+183
-1.482213e+183
-1.4782964e+183
-1.4792444e+183
-1.4739594e+183
-1.4749638e+183
-1.4800115e+183
-1.4807712e+183
-1.4757602e+183
-1.4764981e+183
-1.4798507e+183
-1.4811112e+183
-1.4823205e+183
-1.4834975e+183
-1.4879156e+183
-1.4869535e+183
-1.4875864e+183
-1.4885747e+183
-1.4891147e+183
-1.488777e+183
-1.4881452e+183
-1.4897971e+183
-1.4864295e+183
-1.4870637e+183
-1.482713e+183
-1.4821048e+183
-1.4882447e+183
-1.4832014e+183
-1.4837993e+183
-1.4875969e+183
-1.4844813e+183
-1.485484e+183
-1.486184e+183
-1.485168e+183
-1.4857569e+183
-1.4863358e+183
-1.4867292e+183
-1.4873396e+183
-1.4840712e+183
-1.4847471e+183
-1.4798493e+183
-1.4804943e+183
-1.4852744e+183
-1.4858353e+183
-1.4809851e+183
-1.4814769e+183
-1.4672007e+183
-1.466244e+183
-1.4279208e+183
-1.4517286e+183
-1.4526072e+183
-1.4679252e+183
-1.4291487e+183
-1.4532357e+183
-1.4739126e+183
-1.4734076e+183
-1.4760757e+183
-1.4755579e+183
-1.4835855e+183
-1.4829917e+183
-1.4749312e+183
-1.4743809e+183
-1.4765796e+183
-1.4770943e+183
-1.4841082e+183
-1.4845883e+183
-1.4756554e+183
-1.4753259e+183
-1.4775027e+183
-1.4778859e+183
-1.4850238e+183
-1.4854355e+183
-1.4862428e+183
-1.4866701e+183
-1.4864509e+183
-1.4869374e+183
-1.4859489e+183
-1.4855398e+183
-1.4859903e+183
-1.4863819e+183
-1.4867469e+183
-1.4870748e+183
-1.4875294e+183
-1.4872233e+183
-1.4877309e+183
-1.4872851e+183
-1.4874467e+183
-1.487945e+183
-1.4757717e+183
-1.481245e+183
-1.4816723e+183
-1.4761506e+183
-1.4764459e+183
-1.482017e+183
-1.4822718e+183
-1.4766864e+183
-1.4858854e+183
-1.4854862e+183
-1.4844837e+183
-1.4840779e+183
-1.4864548e+183
-1.4861649e+183
-1.4850865e+183
-1.4848138e+183
-1.4867382e+183
-1.4870419e+183
-1.4853786e+183
-1.4856659e+183
-1.4769629e+183
-1.4825478e+183
-1.482855e+183
-1.4772476e+183
-1.4858766e+183
-1.4872257e+183
-1.4874632e+183
-1.4861089e+183
-1.4830856e+183
-1.4832894e+183
-1.4776627e+183
-1.4774478e+183
-1.4880036e+183
-1.4877076e+183
-1.4881949e+183
-1.4884676e+183
-1.4883132e+183
-1.4881947e+183
-1.4886508e+183
-1.4888278e+183
-1.487996e+183
-1.4877248e+183
-1.4864058e+183
-1.4866814e+183
-1.4779849e+183
-1.4835981e+183
-1.4839117e+183
-1.4782746e+183
-1.4883643e+183
-1.4881681e+183
-1.4868773e+183
-1.4870422e+183
-1.4842677e+183
-1.4841307e+183
-1.4784595e+183
-1.478625e+183
-1.4887892e+183
-1.4885648e+183
-1.4872441e+183
-1.4874561e+183
-1.4788202e+183
-1.4844364e+183
-1.4846742e+183
-1.4790581e+183
-1.4598569e+183
-1.4586865e+183
-1.4470652e+183
-1.4483703e+183
-1.4487996e+183
-1.4568337e+183
-1.4577988e+183
-1.4497608e+183
-1.4586227e+183
-1.4595193e+183
-1.4515077e+183
-1.4505817e+183
-1.4549201e+183
-1.4558687e+183
-1.4469746e+183
-1.4479159e+183
-1.4528362e+183
-1.4539622e+183
-1.4450012e+183
-1.4460601e+183
-1.4642473e+183
-1.4652622e+183
-1.4560496e+183
-1.457037e+183
-1.4661757e+183
-1.4671981e+183
-1.457964e+183
-1.4590337e+183
-1.4605114e+183
-1.461528e+183
-1.4523855e+183
-1.4533856e+183
-1.4624194e+183
-1.4542611e+183
-1.4633303e+183
-1.4551925e+183
-1.4614308e+183
-1.4608422e+183
-1.4567155e+183
-1.4573e+183
-1.4623215e+183
-1.4618953e+183
-1.4577604e+183
-1.4582217e+183
-1.4632232e+183
-1.4627628e+183
-1.4586389e+183
-1.4590902e+183
-1.4639392e+183
-1.4635982e+183
-1.4594525e+183
-1.459855e+183
-1.4647078e+183
-1.4643173e+183
-1.4601937e+183
-1.4605574e+183
-1.4653265e+183
-1.4650344e+183
-1.4608465e+183
-1.4611814e+183
-1.4660128e+183
-1.4656482e+183
-1.4614888e+183
-1.4618391e+183
-1.4665799e+183
-1.4663178e+183
-1.4621211e+183
-1.4624495e+183
-1.4672221e+183
-1.4669071e+183
-1.462738e+183
-1.4630441e+183
-1.4676593e+183
-1.4674666e+183
-1.4632545e+183
-1.4634783e+183
-1.4681298e+183
-1.4678843e+183
-1.4636909e+183
-1.4639179e+183
-1.4685092e+183
-1.4683355e+183
-1.4640981e+183
-1.4643247e+183
-1.4690474e+183
-1.4687868e+183
-1.4645702e+183
-1.4648329e+183
-1.4695248e+183
-1.4692754e+183
-1.4650375e+183
-1.46529e+183
-1.4697848e+183
-1.4655296e+183
-1.4701346e+183
-1.4658469e+183
-1.470413e+183
-1.4707152e+183
-1.4661118e+183
-1.4664319e+183
-1.4626614e+183
-1.4624103e+183
-1.4628835e+183
-1.4630811e+183
-1.4614588e+183
-1.4617193e+183
-1.4621619e+183
-1.4619499e+183
-1.463333e+183
-1.4635582e+183
-1.4637332e+183
-1.463917e+183
-1.4643469e+183
-1.464118e+183
-1.4648748e+183
-1.464601e+183
-1.3208465e+183
-1.3433333e+183
-1.2998864e+183
-1.3063067e+183
-1.3516543e+183
-1.3445873e+183
-1.3664258e+183
-1.3955777e+183
-1.4028419e+183
-1.4010602e+183
-1.4190908e+183
-1.4208516e+183
-1.4061762e+183
-1.4043856e+183
-1.4244e+183
-1.4224543e+183
-1.389811e+183
-1.3758363e+183
-1.3914251e+183
-1.3774397e+183
-1.3865103e+183
-1.3743602e+183
-1.3726856e+183
-1.3882393e+183
-1.3228996e+183
-1.3330143e+183
-1.3243783e+183
-1.3345022e+183
-1.3476803e+183
-1.3460474e+183
-1.3576614e+183
-1.3593454e+183
-1.3375088e+183
-1.3359585e+183
-1.3257889e+183
-1.3272959e+183
-1.3446086e+183
-1.3431412e+183
-1.3549119e+183
-1.3562926e+183
-1.3301249e+183
-1.3286065e+183
-1.3387893e+183
-1.340342e+183
-1.3536297e+183
-1.3520747e+183
-1.3654979e+183
-1.3639449e+183
-1.3315286e+183
-1.3433038e+183
-1.3417955e+183
-1.3329607e+183
-1.3608722e+183
-1.3506043e+183
-1.3624867e+183
-1.3490024e+183
-1.2292923e+183
-1.2241242e+183
-1.2726347e+183
-1.267212e+183
-1.3118914e+183
-1.3577448e+183
-1.3638179e+183
-1.3176623e+183
-1.3817852e+183
-1.3666306e+183
-1.3679967e+183
-1.3803527e+183
-1.3994984e+183
-1.3976969e+183
-1.4157679e+183
-1.4175338e+183
-1.3948708e+183
-1.3963193e+183
-1.4128325e+183
-1.414312e+183
-1.3710622e+183
-1.3693131e+183
-1.383158e+183
-1.384882e+183
-1.3397035e+183
-1.3405326e+183
-1.335296e+183
-1.334569e+183
-1.3384615e+183
-1.339095e+183
-1.3340095e+183
-1.3334264e+183
-1.3433815e+183
-1.3487079e+183
-1.3440355e+183
-1.3493799e+183
-1.344672e+183
-1.3500772e+183
-1.3455691e+183
-1.3509904e+183
-1.341259e+183
-1.341986e+183
-1.3365941e+183
-1.3359393e+183
-1.3426152e+183
-1.3432475e+183
-1.3379021e+183
-1.3372199e+183
-1.3463348e+183
-1.3517834e+183
-1.3471198e+183
-1.3525671e+183
-1.3477395e+183
-1.3532011e+183
-1.3483526e+183
-1.353766e+183
-1.3683424e+183
-1.3745599e+183
-1.3691112e+183
-1.3752769e+183
-1.3570379e+183
-1.3578221e+183
-1.3634441e+183
-1.3626634e+183
-1.3584499e+183
-1.3589795e+183
-1.3640622e+183
-1.3645482e+183
-1.3696878e+183
-1.3702012e+183
-1.3758703e+183
-1.3763986e+183
-1.355351e+183
-1.3610158e+183
-1.361911e+183
-1.3562692e+183
-1.3539017e+183
-1.359465e+183
-1.3546177e+183
-1.3602502e+183
-1.3651393e+183
-1.3713787e+183
-1.3721909e+183
-1.3659483e+183
-1.3666938e+183
-1.3729392e+183
-1.3676049e+183
-1.3738303e+183
-1.3774014e+183
-1.383959e+183
-1.3782294e+183
-1.3848333e+183
-1.3789903e+183
-1.3856278e+183
-1.3798776e+183
-1.3864919e+183
-1.3923111e+183
-1.4000457e+183
-1.3932246e+183
-1.4009662e+183
-1.3906294e+183
-1.3983037e+183
-1.3915166e+183
-1.3992216e+183
-1.4244077e+183
-1.4359588e+183
-1.425436e+183
-1.4369447e+183
-1.4077355e+183
-1.4167851e+183
-1.4086519e+183
-1.4176313e+183
-1.4059477e+183
-1.4149044e+183
-1.4068967e+183
-1.415936e+183
-1.4262235e+183
-1.437738e+183
-1.4270949e+183
-1.4385917e+183
-1.4277184e+183
-1.4392161e+183
-1.4283702e+183
-1.4398215e+183
-1.4105719e+183
-1.4111391e+183
-1.4195393e+183
-1.4200875e+183
-1.4093186e+183
-1.4182645e+183
-1.4099834e+183
-1.4189385e+183
-1.4289198e+183
-1.4404224e+183
-1.4295319e+183
-1.4410858e+183
-1.3939203e+183
-1.4016565e+183
-1.3946146e+183
-1.4023147e+183
-1.3818836e+183
-1.3884978e+183
-1.3824189e+183
-1.3890132e+183
-1.3805692e+183
-1.3871776e+183
-1.3812839e+183
-1.3878972e+183
-1.3951735e+183
-1.3957245e+183
-1.402892e+183
-1.4034531e+183
-1.3610399e+183
-1.3615032e+183
-1.3665074e+183
-1.3669497e+183
-1.3603329e+183
-1.3658035e+183
-1.3606507e+183
-1.3661192e+183
-1.3713597e+183
-1.3775181e+183
-1.3716581e+183
-1.37778e+183
-1.3720155e+183
-1.3781293e+183
-1.3724847e+183
-1.3785858e+183
-1.3506953e+183
-1.3559234e+183
-1.3511541e+183
-1.3563905e+183
-1.3499459e+183
-1.3552074e+183
-1.3503225e+183
-1.3555343e+183
-1.3450556e+183
-1.3454261e+183
-1.3400536e+183
-1.3403946e+183
-1.3458015e+183
-1.3462319e+183
-1.3411485e+183
-1.3407413e+183
-1.3486746e+183
-1.3540239e+183
-1.3489701e+183
-1.3542426e+183
-1.3443102e+183
-1.344725e+183
-1.3397152e+183
-1.3392062e+183
-1.3435972e+183
-1.3439572e+183
-1.3387484e+183
-1.3383135e+183
-1.3492061e+183
-1.3545107e+183
-1.3495941e+183
-1.3548832e+183
-1.3704409e+183
-1.3766574e+183
-1.3706624e+183
-1.376861e+183
-1.3597003e+183
-1.3652745e+183
-1.3600556e+183
-1.3655706e+183
-1.3591853e+183
-1.3647564e+183
-1.3594004e+183
-1.3649841e+183
-1.3708901e+183
-1.3770836e+183
-1.37117e+183
-1.3773377e+183
-1.4132375e+183
-1.4136529e+183
-1.4224237e+183
-1.4228472e+183
-1.4126288e+183
-1.412907e+183
-1.4216859e+183
-1.4220355e+183
-1.4312581e+183
-1.4430182e+183
-1.4316383e+183
-1.443405e+183
-1.4320424e+183
-1.4438516e+183
-1.4325575e+183
-1.4444251e+183
-1.4120638e+183
-1.4124004e+183
-1.4211168e+183
-1.421438e+183
-1.4114568e+183
-1.4204122e+183
-1.4117591e+183
-1.4207769e+183
-1.429889e+183
-1.4415256e+183
-1.4302653e+183
-1.4419009e+183
-1.4305918e+183
-1.4309795e+183
-1.4422555e+183
-1.4426682e+183
-1.3960119e+183
-1.4037624e+183
-1.3962989e+183
-1.4040423e+183
-1.3826705e+183
-1.3828972e+183
-1.3892784e+183
-1.3895509e+183
-1.3831273e+183
-1.3833826e+183
-1.3897988e+183
-1.3900381e+183
-1.3965333e+183
-1.3968235e+183
-1.404318e+183
-1.404635e+183
-1.3970365e+183
-1.3972988e+183
-1.4048604e+183
-1.4051089e+183
-1.3835549e+183
-1.3838134e+183
-1.3902243e+183
-1.3904943e+183
-1.384573e+183
-1.3841428e+183
-1.3908114e+183
-1.391186e+183
-1.3975752e+183
-1.3979648e+183
-1.4054086e+183
-1.4058068e+183
-1.3749452e+183
-1.3718547e+183
-1.3747524e+183
-1.3720338e+183
-1.3776474e+183
-1.3807494e+183
-1.3809076e+183
-1.3778217e+183
-1.3724014e+183
-1.3752888e+183
-1.3721973e+183
-1.3750999e+183
-1.3779759e+183
-1.3810743e+183
-1.3781777e+183
-1.381282e+183
-1.3618988e+183
-1.3644922e+183
-1.364703e+183
-1.3620955e+183
-1.3625547e+183
-1.3622968e+183
-1.3649067e+183
-1.3651524e+183
-1.3700477e+183
-1.3670784e+183
-1.3698444e+183
-1.3672895e+183
-1.3677367e+183
-1.3704956e+183
-1.3674856e+183
-1.3702467e+183
-1.3639604e+183
-1.3611699e+183
-1.3637644e+183
-1.3613564e+183
-1.3663499e+183
-1.3691164e+183
-1.3692864e+183
-1.3665332e+183
-1.3643159e+183
-1.361509e+183
-1.3641165e+183
-1.3617114e+183
-1.3666978e+183
-1.369461e+183
-1.3669043e+183
-1.3696671e+183
-1.3725672e+183
-1.3754574e+183
-1.3756629e+183
-1.3727684e+183
-1.3814665e+183
-1.3785595e+183
-1.3783554e+183
-1.3816645e+183
-1.3729716e+183
-1.3732213e+183
-1.375874e+183
-1.3761106e+183
-1.3818655e+183
-1.3790005e+183
-1.382097e+183
-1.3787596e+183
-1.3518321e+183
-1.3520201e+183
-1.3543095e+183
-1.3545016e+183
-1.3569853e+183
-1.3593662e+183
-1.3595572e+183
-1.3567906e+183
-1.3522422e+183
-1.3524735e+183
-1.3549435e+183
-1.3547065e+183
-1.3571741e+183
-1.357427e+183
-1.3597561e+183
-1.3600154e+183
-1.3537728e+183
-1.3510917e+183
-1.3535662e+183
-1.3512847e+183
-1.3560589e+183
-1.3586386e+183
-1.3588196e+183
-1.3562548e+183
-1.3541473e+183
-1.351486e+183
-1.3539459e+183
-1.3516791e+183
-1.3564042e+183
-1.3589744e+183
-1.3566131e+183
-1.3591727e+183
-1.3457617e+183
-1.3459434e+183
-1.3486318e+183
-1.34881e+183
-1.3490183e+183
-1.3491981e+183
-1.3461318e+183
-1.346297e+183
-1.3418397e+183
-1.3421804e+183
-1.3464681e+183
-1.3466409e+183
-1.3493629e+183
-1.3495353e+183
-1.3497607e+183
-1.3499824e+183
-1.3468526e+183
-1.3470651e+183
-1.342913e+183
-1.3424995e+183
-1.3734166e+183
-1.3763028e+183
-1.3765231e+183
-1.3736254e+183
-1.3740815e+183
-1.37383e+183
-1.3767179e+183
-1.3769554e+183
-1.3824549e+183
-1.37918e+183
-1.3822673e+183
-1.3793819e+183
-1.3798297e+183
-1.3829237e+183
-1.3795782e+183
-1.3826642e+183
-1.3636815e+183
-1.3662604e+183
-1.3665057e+183
-1.3639176e+183
-1.3718178e+183
-1.3688296e+183
-1.3715786e+183
-1.3690745e+183
-1.3695458e+183
-1.3722996e+183
-1.3692861e+183
-1.3720306e+183
-1.3655931e+183
-1.3627687e+183
-1.3653619e+183
-1.3629952e+183
-1.3679366e+183
-1.3706919e+183
-1.3708926e+183
-1.3681523e+183
-1.366045e+183
-1.3631959e+183
-1.3657934e+183
-1.3634514e+183
-1.3683606e+183
-1.3711089e+183
-1.3686164e+183
-1.3713628e+183
-1.3742853e+183
-1.3771623e+183
-1.3774044e+183
-1.3745198e+183
-1.3747352e+183
-1.3776366e+183
-1.3750182e+183
-1.377921e+183
-1.383407e+183
-1.3800501e+183
-1.3831535e+183
-1.3802974e+183
-1.3808345e+183
-1.3805325e+183
-1.3836517e+183
-1.3839576e+183
-1.3536318e+183
-1.3538634e+183
-1.3561184e+183
-1.356355e+183
-1.3588374e+183
-1.3611625e+183
-1.3614002e+183
-1.3585949e+183
-1.3554245e+183
-1.3526632e+183
-1.3551602e+183
-1.3529201e+183
-1.3576555e+183
-1.3602398e+183
-1.3604654e+183
-1.3579024e+183
-1.3559224e+183
-1.3532043e+183
-1.3556632e+183
-1.3534571e+183
-1.358109e+183
-1.3606723e+183
-1.3583739e+183
-1.3609251e+183
-1.4390718e+183
-1.4328162e+183
-1.438819e+183
-1.4330458e+183
-1.4332537e+183
-1.4392774e+183
-1.439506e+183
-1.4334813e+183
-1.4449466e+183
-1.4521825e+183
-1.4451655e+183
-1.4523799e+183
-1.4525949e+183
-1.4528502e+183
-1.4453598e+183
-1.4456187e+183
-1.4177964e+183
-1.4130658e+183
-1.4175603e+183
-1.4132915e+183
-1.4128838e+183
-1.4126903e+183
-1.4171552e+183
-1.4173713e+183
-1.4218162e+183
-1.4216138e+183
-1.426824e+183
-1.4270212e+183
-1.4272137e+183
-1.4274473e+183
-1.4219994e+183
-1.4222474e+183
-1.4182009e+183
-1.413467e+183
-1.417966e+183
-1.4136823e+183
-1.4138882e+183
-1.4184018e+183
-1.4186392e+183
-1.4141354e+183
-1.4224472e+183
-1.4276737e+183
-1.4226622e+183
-1.4278815e+183
-1.4280863e+183
-1.4283055e+183
-1.4228539e+183
-1.4230912e+183
-1.4385986e+183
-1.4323496e+183
-1.4383777e+183
-1.4325907e+183
-1.4321578e+183
-1.4319584e+183
-1.4379675e+183
-1.4381893e+183
-1.4513545e+183
-1.4443307e+183
-1.4441288e+183
-1.451551e+183
-1.4517276e+183
-1.4519716e+183
-1.444499e+183
-1.4447411e+183
-1.387884e+183
-1.384467e+183
-1.3876697e+183
-1.3846704e+183
-1.390845e+183
-1.3943299e+183
-1.3945266e+183
-1.3910517e+183
-1.3882858e+183
-1.3848664e+183
-1.3880769e+183
-1.3850923e+183
-1.3912347e+183
-1.3947129e+183
-1.3949317e+183
-1.3914525e+183
-1.3975502e+183
-1.401302e+183
-1.3973326e+183
-1.4011005e+183
-1.3971637e+183
-1.3969896e+183
-1.4007432e+183
-1.400933e+183
-1.4046674e+183
-1.4044853e+183
-1.4086726e+183
-1.4088579e+183
-1.4090277e+183
-1.4092468e+183
-1.4048261e+183
-1.4050478e+183
-1.3839031e+183
-1.3837431e+183
-1.386934e+183
-1.3871021e+183
-1.3902681e+183
-1.3901015e+183
-1.3935836e+183
-1.3937497e+183
-1.3874866e+183
-1.3840707e+183
-1.3872782e+183
-1.3842856e+183
-1.3939212e+183
-1.3904377e+183
-1.3906609e+183
-1.3941423e+183
-1.4017083e+183
-1.3977301e+183
-1.4014858e+183
-1.3979312e+183
-1.3981213e+183
-1.401904e+183
-1.4021158e+183
-1.3983422e+183
-1.405233e+183
-1.4094315e+183
-1.4054529e+183
-1.4096437e+183
-1.4098472e+183
-1.4100866e+183
-1.4056455e+183
-1.4058779e+183
-1.4143001e+183
-1.4187979e+183
-1.4190296e+183
-1.4145081e+183
-1.4146866e+183
-1.4192027e+183
-1.4194381e+183
-1.4149363e+183
-1.4232604e+183
-1.4284785e+183
-1.4286534e+183
-1.4234615e+183
-1.4236479e+183
-1.4288525e+183
-1.4290924e+183
-1.4238878e+183
-1.4336292e+183
-1.4396479e+183
-1.4398343e+183
-1.4338001e+183
-1.4339948e+183
-1.4400251e+183
-1.4402467e+183
-1.4342422e+183
-1.4458036e+183
-1.45307e+183
-1.4532437e+183
-1.4459811e+183
-1.446142e+183
-1.4533965e+183
-1.4536246e+183
-1.4463789e+183
-1.4344558e+183
-1.4404629e+183
-1.4407328e+183
-1.4346948e+183
-1.4352283e+183
-1.4349269e+183
-1.4409608e+183
-1.4412454e+183
-1.4465782e+183
-1.4538133e+183
-1.4540204e+183
-1.4468166e+183
-1.4473813e+183
-1.4470538e+183
-1.4542794e+183
-1.4546223e+183
-1.4151358e+183
-1.4196214e+183
-1.419881e+183
-1.4153843e+183
-1.4158706e+183
-1.4155961e+183
-1.420089e+183
-1.420344e+183
-1.4240843e+183
-1.4293035e+183
-1.4295235e+183
-1.4243199e+183
-1.424819e+183
-1.4245346e+183
-1.4297589e+183
-1.4300565e+183
-1.3994184e+183
-1.4031827e+183
-1.4034605e+183
-1.3996868e+183
-1.4002218e+183
-1.3999333e+183
-1.4036974e+183
-1.4039654e+183
-1.4069269e+183
-1.4111128e+183
-1.4113681e+183
-1.4071875e+183
-1.4076985e+183
-1.4074104e+183
-1.4115857e+183
-1.4118674e+183
-1.3852552e+183
-1.3854451e+183
-1.3884447e+183
-1.3886431e+183
-1.3916097e+183
-1.3918088e+183
-1.3950916e+183
-1.3952905e+183
-1.3856558e+183
-1.3888618e+183
-1.389122e+183
-1.3859224e+183
-1.3955068e+183
-1.3957811e+183
-1.3920224e+183
-1.3922958e+183
-1.3985028e+183
-1.4022774e+183
-1.4024976e+183
-1.3987094e+183
-1.3989216e+183
-1.4027056e+183
-1.4029602e+183
-1.3991918e+183
-1.4060435e+183
-1.4102578e+183
-1.4104635e+183
-1.4062569e+183
-1.4064503e+183
-1.4106501e+183
-1.4109012e+183
-1.4067114e+183
-1.386151e+183
-1.3893515e+183
-1.3864102e+183
-1.3896207e+183
-1.3927932e+183