/*--------------------------------*- C++ -*----------------------------------*\
  =========                 |
  \\      /  F ield         | OpenFOAM: The Open Source CFD Toolbox
   \\    /   O peration     | Website:  https://openfoam.org
    \\  /    A nd           | Version:  7
     \\/     M anipulation  |
\*---------------------------------------------------------------------------*/
FoamFile
{
    version     2.0;
    format      ascii;
    class       surfaceScalarField;
    location    "2000";
    object      phi;
}
// * * * * * * * * * * * * * * * * * * * * * * * * * * * * * * * * * * * * * //

dimensions      [0 3 -1 0 0 0 0];

internalField   nonuniform List<scalar> 
101024
(
6.1060794e+87
5.8670307e+87
-1.1728539e+88
-1.2020753e+88
-1.0812829e+88
-1.2019862e+88
-2.8858639e+87
1.8626628e+87
3.9332992e+86
-2.5797901e+87
-2.8028381e+87
-3.064841e+87
-2.6558709e+87
-9.9704973e+87
1.774967e+87
1.1344311e+87
1.0576333e+87
-1.2861446e+88
1.7737346e+87
-2.2285499e+86
-4.1850302e+85
5.6784947e+87
-5.8738631e+88
6.378883e+87
-1.4032315e+87
3.0351602e+87
1.0220202e+87
-2.9298722e+87
8.1159875e+87
-1.1104118e+88
-1.0894917e+88
-9.4157765e+87
-8.7421635e+87
6.0228196e+86
-2.2517015e+87
-2.334038e+87
-1.9155383e+87
-1.8897129e+87
5.4886436e+87
-1.1657325e+88
-1.1434146e+88
-1.0405185e+88
-1.0941269e+88
-5.8130172e+86
-2.6736676e+87
1.596531e+87
9.0055756e+86
-2.5272258e+87
-2.6410216e+87
-3.0443884e+87
-2.7580222e+87
-2.6505314e+87
1.2623862e+87
-2.5961997e+87
-2.5287056e+87
-2.8501995e+87
-2.84547e+87
-1.3816609e+87
-9.9671208e+87
2.1893169e+87
-1.0401992e+88
-5.8544326e+86
-6.542943e+85
4.1612252e+86
7.0358709e+85
-5.4920509e+86
-6.981624e+86
-5.2788346e+86
-6.4014533e+86
-2.0622733e+86
-2.3714095e+87
3.2378829e+86
5.4107315e+86
-2.4278793e+87
3.4297827e+86
-5.2565023e+86
-5.2172899e+86
-6.6444894e+86
-6.6075768e+86
9.7376621e+87
1.2647208e+87
6.9230031e+86
-5.8409393e+86
5.8958135e+86
-7.1660492e+86
1.432905e+87
8.1612713e+86
-4.6497766e+86
7.146215e+86
-6.2046108e+86
1.3631489e+87
1.0872229e+87
9.0358132e+86
-1.3139251e+88
-1.0971361e+86
-2.7227894e+86
1.0087486e+87
1.1072545e+87
-1.2823399e+88
-6.413726e+85
-2.6259291e+86
1.7973166e+87
3.9635495e+87
2.9076824e+87
-5.8979511e+88
-1.9405559e+87
3.9085954e+87
-1.0254251e+87
-1.8068239e+87
-3.0481207e+87
9.2874717e+86
2.5191876e+87
2.2239403e+86
2.3802082e+86
2.1046344e+86
-2.9777239e+87
-2.6579417e+85
-5.000231e+85
2.3663014e+86
2.4295801e+86
-2.9055036e+87
2.9079461e+86
-1.3543177e+85
-4.2199953e+85
-5.5391549e+88
-2.4269485e+87
-1.2061107e+87
3.2582848e+87
1.1974407e+87
6.3920831e+87
-3.0623836e+87
-9.0123031e+87
3.6420351e+87
6.3733525e+86
-3.7896258e+87
4.5367819e+87
7.9966098e+86
-5.551251e+87
6.2492144e+86
-8.4631081e+87
4.5393212e+86
-1.1863694e+88
-1.1809015e+88
-1.022425e+88
-1.0077187e+88
-9.6794586e+86
2.3988058e+86
1.4398986e+87
-2.8956994e+87
-2.6354546e+87
-2.4870242e+87
-2.6637552e+87
2.9418144e+86
-2.6259147e+87
-2.4887242e+87
-2.4630102e+87
-2.6530132e+87
-9.7613316e+86
1.4681105e+87
-2.171319e+87
-2.3058412e+87
-1.8290855e+87
-1.7650957e+87
-2.1569972e+87
-2.0709452e+87
-1.5802233e+87
-1.7512798e+87
-2.9157056e+86
3.4643935e+86
2.3165312e+86
-2.5930333e+87
3.452957e+86
-2.1654272e+87
-9.3426488e+85
5.3241821e+85
1.1708635e+86
-5.4565141e+86
-5.0586693e+86
-4.5067638e+86
-4.7996672e+86
6.8202717e+85
-5.1892254e+86
-4.6647456e+86
-6.9784076e+85
6.4670795e+85
-3.6893233e+86
-3.8711717e+86
-3.430331e+86
-3.4197677e+86
-3.7619315e+86
-3.4047643e+86
-3.1432073e+86
-9.0887691e+86
-2.4903882e+87
1.911798e+87
-2.6855398e+87
-2.5588625e+87
-2.8970609e+87
-3.1937803e+87
-2.027718e+87
1.5250261e+87
-2.5058446e+87
-2.9219804e+87
-2.5566412e+87
-2.9553104e+87
-1.8143283e+87
-9.7547983e+87
2.6371056e+87
-9.6863164e+87
-7.7774937e+85
-5.5420039e+86
3.8325373e+86
1.3163618e+86
-5.2871912e+86
-5.5280747e+86
-6.372964e+86
-6.9131648e+86
-4.9647137e+86
-1.288573e+86
3.0946994e+86
-5.4354778e+86
-5.3207443e+86
-6.7281399e+86
-6.545008e+86
2.6743402e+86
-3.7313972e+86
-2.4264048e+87
-2.3495181e+87
4.1198359e+86
-1.265854e+86
-5.3063193e+86
3.3640532e+86
-5.2959427e+86
-5.5162352e+86
-6.3917027e+86
-6.8385575e+86
-4.9395e+86
2.6572451e+86
-5.366131e+86
-5.2387293e+86
-6.3934524e+86
-6.5687481e+86
-2.6914442e+86
-2.3976035e+87
-2.3811945e+87
-1.0882801e+86
1.0216779e+85
-1.9818393e+85
8.4823464e+85
-1.119276e+86
-1.1047462e+86
-1.4858686e+86
-1.4460896e+86
3.1413075e+85
-4.9406233e+85
-5.5236668e+86
-1.168785e+86
9.934066e+85
1.5266856e+85
-1.0952676e+86
-1.1454644e+86
-1.404906e+86
-1.5083161e+86
-5.3524619e+86
5.2593583e+85
-2.6218474e+85
-1.0847549e+86
9.4640923e+85
-1.0635966e+86
-1.1136316e+86
-1.3929122e+86
-1.4840093e+86
-1.0273783e+86
7.7547205e+85
-1.4541526e+86
-1.0874294e+86
-1.0590843e+86
-1.4008092e+86
-4.0199049e+85
-5.4411042e+86
-5.4041509e+86
3.1537405e+87
2.9785787e+87
-2.4860232e+87
-3.2124222e+87
-1.9612355e+87
2.7463013e+87
1.6736462e+87
-2.8954911e+87
3.7556965e+87
9.8560827e+87
-9.8059822e+86
1.3862368e+87
-5.9638381e+86
-7.8417331e+86
5.5652939e+86
7.0043646e+86
-1.1532183e+87
1.5786118e+87
-4.727449e+86
8.2392531e+86
7.008636e+86
-6.5138718e+86
9.9931511e+87
5.4245353e+86
-7.3858023e+86
-6.5080166e+86
6.5297628e+86
6.8624702e+86
8.231861e+86
-5.3394459e+86
-6.4768979e+86
-2.2534947e+87
-1.55929e+86
2.9316137e+87
2.2661709e+86
1.3341524e+86
-1.6679015e+86
-1.4230625e+86
1.1917681e+86
-1.3156314e+86
2.0268666e+86
1.1907469e+86
1.3270133e+86
-1.4900962e+86
-1.7289161e+86
-2.2745422e+87
2.9848268e+87
1.2844494e+86
-1.6978129e+86
-1.5673666e+86
1.0850155e+86
1.0715548e+86
1.2433221e+86
-2.3449455e+87
-2.0957165e+86
2.8204198e+86
1.8069153e+86
-8.3374295e+85
-1.1305896e+86
1.9884213e+86
-1.6002937e+86
2.3035917e+86
-1.4800226e+86
1.6933966e+86
-1.2019796e+86
1.5022237e+86
-2.3814681e+87
-9.5298564e+85
1.9852461e+86
1.7509085e+86
-1.1453121e+86
1.3766278e+86
-1.346537e+86
1.5976312e+86
-1.4871157e+86
-2.4622659e+86
3.1300111e+86
2.3764648e+86
2.2083308e+86
-2.9547544e+87
-5.5652776e+85
-2.2163427e+85
1.9940267e+86
2.3510414e+86
-2.9583805e+87
-5.5547048e+85
-2.9484454e+85
-2.6090667e+86
2.4350404e+86
2.2722369e+86
-2.8984745e+87
-5.3214468e+85
3.4302239e+86
-1.4809162e+85
2.4056922e+86
2.0135345e+86
-2.9881011e+87
-6.0959281e+85
-2.9765279e+85
1.593481e+87
8.6279576e+86
1.0979486e+87
-1.2939069e+88
-3.2011514e+86
-1.2459341e+86
3.2918444e+87
-5.8538328e+88
-2.1023062e+87
-1.6525973e+87
2.7615946e+87
1.1113891e+87
-2.7969058e+87
1.1430227e+87
1.0040773e+87
-1.2915234e+88
1.9831457e+87
-3.1527419e+86
-8.6478481e+85
-2.0738055e+87
7.1900254e+87
-9.5156401e+87
2.5527095e+87
3.9887531e+85
7.1849365e+87
-9.6624848e+87
-1.7750171e+86
2.5082238e+87
-2.8848583e+85
3.0325543e+87
1.7257909e+86
-3.5411424e+85
4.5077278e+85
5.0682859e+85
4.9420947e+85
-6.6330746e+86
-6.0483755e+84
-1.1102889e+85
5.1878027e+85
4.5416137e+85
-6.5891582e+86
-7.2969192e+84
-1.1224287e+85
-3.6595399e+85
5.2576454e+85
5.1801735e+85
-6.5288587e+86
4.999665e+85
-4.1994039e+84
-9.4830826e+84
5.3369685e+85
4.7674661e+85
-6.6946637e+86
-6.9097253e+84
-1.0752762e+85
3.0703337e+87
5.7764833e+87
-8.1413403e+87
5.0960817e+86
6.6244134e+87
-8.9063883e+87
5.474657e+86
-3.8183228e+87
7.2275331e+86
6.1959709e+86
6.0553513e+87
-2.7766311e+87
-5.9412106e+87
2.8189994e+87
4.8082648e+86
-3.2632921e+87
3.2533476e+87
6.1171967e+86
-6.1928377e+87
4.9251543e+86
-6.1330105e+87
4.30654e+86
-1.0766405e+87
3.9456469e+86
-2.7935676e+87
-3.0332234e+87
-2.7626401e+87
-2.5860546e+87
3.0273501e+86
-2.7383853e+87
-2.7900027e+87
-2.571496e+87
-2.5446964e+87
-1.1369986e+87
-2.2791346e+87
-2.4073549e+87
-1.7967003e+87
-1.8886424e+87
-2.2229976e+87
-2.1992632e+87
-1.7817185e+87
-1.7143352e+87
2.8431916e+86
2.5591044e+86
-4.3017158e+86
-7.289807e+86
-2.2767747e+87
2.8759965e+86
-8.4383088e+86
4.3413222e+86
-2.2290373e+87
-2.2037674e+86
3.1425547e+86
3.1847498e+86
-2.6117776e+87
-3.140265e+86
2.8734174e+86
-2.6015349e+87
2.8086076e+86
-3.0358471e+86
-8.357911e+86
-2.1975685e+87
-2.4445158e+86
3.1014422e+86
-2.5875807e+87
-2.3976116e+86
2.8130083e+86
-2.5173467e+87
-6.7364117e+86
-2.1774209e+87
-1.4151734e+86
6.1562047e+85
2.3232638e+86
-5.1663988e+86
-5.5829915e+86
-4.8437506e+86
-4.5011992e+86
6.9831003e+85
-2.3674716e+86
-4.6368302e+86
-5.2851195e+86
-5.339373e+86
-4.6696725e+86
1.2913672e+86
-2.0565907e+86
-3.6089518e+86
-3.345663e+86
-3.1308357e+86
-3.6471612e+86
2.0122011e+86
-3.5443626e+86
-3.7896507e+86
-3.239328e+86
-3.3502904e+86
-1.6648202e+86
6.9428033e+85
-5.1013377e+86
-5.4797757e+86
-4.4899255e+86
-4.7944105e+86
8.3222693e+85
-4.5229493e+86
-5.1013756e+86
-5.1011563e+86
-4.4971422e+86
1.4878787e+86
-3.5708447e+86
-3.4339166e+86
-3.2208332e+86
-2.9283323e+86
-3.5912615e+86
-3.8059762e+86
-3.2961835e+86
-3.3297533e+86
-3.107998e+86
1.7837887e+86
1.8869596e+86
1.8512789e+86
-2.6049055e+87
-6.1720582e+84
-3.0043628e+85
2.9854382e+86
-2.7586178e+87
3.5650313e+85
7.740898e+85
-5.4518024e+85
-4.2581326e+86
8.0319745e+85
5.776611e+85
-4.1960633e+86
-2.4412178e+85
8.1513019e+85
3.6567545e+85
-4.6402466e+86
-3.636143e+85
8.0208791e+85
-4.7081691e+86
7.7123039e+85
-4.1930141e+86
7.9840038e+85
-4.7172761e+86
-1.6997899e+85
-9.0724476e+84
2.5521006e+85
-7.4513501e+85
-8.0472054e+85
-6.8180704e+85
-6.3703368e+85
-1.7253365e+84
-3.1524211e+85
-6.7587789e+85
-7.8154189e+85
-7.8313095e+85
-6.6601144e+85
-9.7767524e+84
1.0703906e+85
-6.7538229e+85
-6.9318427e+85
-5.6873798e+85
-5.9961266e+85
-2.0091644e+85
-5.9426106e+85
-6.8002324e+85
-5.696706e+85
-6.4167904e+85
-9.015927e+84
-7.5316005e+85
-8.05584e+85
-6.5435319e+85
-6.9568899e+85
-2.1447614e+85
-5.7446154e+85
-6.6650585e+85
-6.0599404e+85
-6.8798923e+85
-5.7875276e+85
-6.5834199e+85
-1.0132643e+88
1.2875529e+86
-4.8884504e+86
-2.014221e+86
3.4362842e+86
-5.5122038e+86
-6.8801777e+86
-5.4743222e+86
-6.8098565e+86
-5.5186027e+86
4.1002875e+86
1.993314e+86
-5.6897876e+86
-7.1613639e+86
-5.4107632e+86
-6.6141468e+86
-3.0673692e+86
-2.4526717e+87
4.5351048e+86
-4.569645e+86
-2.5283201e+87
-4.6341748e+86
1.6988448e+86
3.1023918e+86
-5.3744106e+86
-5.2851971e+86
-6.6994389e+86
-6.5501026e+86
3.3246077e+86
-2.4430792e+87
-5.2786021e+86
4.0167014e+86
-5.3232259e+86
-6.6349933e+86
-5.5695267e+86
-7.092144e+86
-2.5097258e+87
-8.4398321e+84
-1.1557782e+86
9.4014784e+85
2.0138814e+85
-1.0960943e+86
-1.1456299e+86
-1.4223763e+86
-1.5244474e+86
-1.0417799e+86
-1.8165825e+85
7.9671125e+85
-1.1308049e+86
-1.1117803e+86
-1.4877218e+86
-1.4554369e+86
-4.1488846e+85
-5.3499226e+86
6.7110971e+85
-6.0435332e+85
-5.4932419e+86
-2.3847476e+85
-1.0936271e+86
9.2495649e+85
-1.440194e+86
-1.0981421e+86
-1.1443806e+86
-1.5272726e+86
-9.7406614e+85
-2.1769696e+85
7.1673953e+85
-1.1148775e+86
-1.0925217e+86
-1.4138261e+86
-1.4629699e+86
-4.6938619e+85
-5.5510418e+86
-6.1155363e+85
-5.3633716e+86
-1.5277258e+85
-1.1272408e+86
9.1358174e+85
-1.0893664e+86
-1.1436678e+86
-1.5091209e+86
-1.4050506e+86
-1.0167007e+86
-2.6050652e+85
7.4901415e+85
-1.1269744e+86
-1.1064064e+86
-1.435779e+86
-1.4716556e+86
-3.941423e+85
-5.3598897e+86
-5.959362e+85
-5.4451327e+86
-2.6969286e+85
-1.0696671e+86
8.665108e+85
-1.093337e+86
-1.1438366e+86
-1.5022882e+86
-1.414326e+86
-9.7872046e+85
6.8381462e+85
-1.1140247e+86
-1.0934421e+86
-1.4027935e+86
-1.4505867e+86
4.519355e+85
-5.3041451e+86
-5.4313743e+86
-4.6370346e+84
-2.5465529e+85
3.6592254e+84
3.0366179e+85
-2.3577914e+85
-2.2477744e+85
-3.3918746e+85
-3.5875949e+85
-2.422443e+85
-3.4975144e+84
2.7075515e+85
-2.2933377e+85
-2.2603666e+85
-3.3820356e+85
-3.5107737e+85
-6.7303392e+84
8.1694558e+84
-1.2212175e+86
-8.4689051e+84
-1.194201e+86
-1.4516202e+84
-2.6127535e+85
2.9820498e+85
3.1087304e+84
-3.3266951e+85
-2.2626629e+85
-2.3494048e+85
-3.5489123e+85
-2.5015608e+85
2.8372284e+85
-2.2911104e+85
-2.3188994e+85
-3.5221289e+85
-3.4374062e+85
-5.1436305e+84
-1.1810935e+86
9.2113557e+84
-1.2101965e+86
-2.6492556e+84
-2.582712e+85
3.1879426e+85
-2.1925551e+85
-2.305469e+85
-3.2982117e+85
-3.5297739e+85
-2.4564444e+85
-5.3342203e+84
2.9316393e+85
-3.4664153e+85
-2.2429799e+85
-2.2405336e+85
-3.3930661e+85
-5.3303233e+84
-1.1757399e+86
-9.0913442e+84
-1.1978334e+86
2.5226361e+85
-7.4177184e+84
-1.2043712e+86
-5.5079495e+84
3.0631478e+85
-2.3093155e+85
-2.1911648e+85
-3.3504056e+85
-3.5465359e+85
-2.3314562e+85
-2.1725673e+85
-2.2030906e+85
-3.4215993e+85
-3.2999999e+85
-1.1688437e+86
-3.2746225e+87
-1.9741505e+87
-2.8592938e+87
1.6241237e+87
2.7804129e+87
3.0152381e+87
-1.0021951e+88
1.2877355e+87
8.7157923e+86
6.9087664e+86
-6.7259882e+86
-5.375163e+86
-1.1003426e+87
9.9492967e+87
1.4440928e+87
-6.1030867e+86
5.9241176e+86
-7.767378e+86
7.2221708e+86
-6.6485998e+86
5.2988311e+86
-7.6917289e+86
6.7592631e+86
7.2732724e+87
-1.5710806e+87
2.0174909e+87
-1.7123315e+86
-1.8001098e+87
2.270959e+87
3.3086065e+85
-7.4403825e+87
-1.4923527e+86
-2.3780356e+86
1.6616456e+87
-4.8911688e+86
7.1512522e+86
8.5892088e+86
-6.6907658e+86
-1.5526866e+86
2.2896059e+87
2.2745705e+86
-1.7238725e+86
-1.4573637e+86
1.3858662e+86
1.2123987e+86
2.2949188e+87
-1.8641775e+86
-1.6861666e+86
-1.8181296e+86
1.2183599e+86
1.0176138e+86
1.7709908e+86
2.9866795e+87
-2.1808818e+86
1.2927794e+86
-1.5516313e+86
-1.7327235e+86
1.0491593e+86
2.9589653e+87
2.6473752e+86
-1.6979719e+86
-1.4025733e+86
1.3611467e+86
1.1737932e+86
2.3414578e+87
-1.8618659e+86
2.7576897e+86
-1.1714968e+86
-1.5002027e+86
1.4956702e+86
1.7278412e+86
-2.4511039e+86
3.3263382e+86
2.0010361e+86
-1.1690534e+86
-8.1210923e+85
1.7739832e+86
-2.3789743e+87
-3.0837425e+86
2.0366057e+86
-1.2167018e+86
-9.5472857e+85
1.6848324e+86
-2.3779493e+86
1.6164671e+86
-1.538971e+86
-1.3364053e+86
1.3381754e+86
-2.2860286e+87
1.6518542e+86
2.9836037e+87
-1.7282842e+86
-1.5791959e+86
1.302377e+86
1.0682078e+86
1.380665e+86
1.0489207e+86
1.26647e+86
-1.6249441e+86
-1.7581169e+86
2.3034968e+87
1.3422994e+86
-1.7413549e+86
-1.5114715e+86
1.1843815e+86
2.9821789e+87
1.2963117e+86
-1.7378611e+86
-1.4640081e+86
1.1194749e+86
2.4330662e+86
-2.383689e+87
-1.1971865e+86
-9.6932693e+85
1.9949041e+86
1.6745205e+86
-2.3564086e+87
-1.2039707e+86
-8.8304603e+85
1.963401e+86
1.7213446e+86
-1.7631481e+86
1.6531144e+86
-1.2486413e+86
-1.5356028e+86
1.434589e+86
1.6097393e+86
-1.3659253e+86
-1.5273136e+86
1.3461928e+86
-5.0503758e+86
-2.5882929e+85
6.3704317e+86
3.6887826e+85
-2.979534e+85
2.8613226e+85
-3.4450598e+85
2.6037808e+85
2.1716982e+85
5.1297805e+86
-6.6323035e+86
-2.3854153e+85
-3.2856247e+85
-3.4760644e+85
2.8433932e+85
2.4782963e+85
-6.4888076e+86
3.2169559e+85
-3.0181487e+85
2.9142292e+85
-3.4533433e+85
2.6657238e+85
-2.9398853e+85
6.5044855e+86
-3.2397195e+85
2.8091184e+85
-3.4709234e+85
2.4237822e+85
2.1167812e+85
-5.240396e+86
-2.3182048e+85
-3.4213968e+85
2.7966849e+85
-3.6283746e+85
2.4429476e+85
-5.1283039e+86
3.1262287e+85
-3.1769546e+85
2.8107445e+85
-3.5880911e+85
2.6099612e+85
-1.8262864e+85
2.6090258e+85
2.6625853e+85
2.4663229e+85
-3.5770388e+85
-3.9569182e+85
2.6116012e+85
2.2990972e+85
-4.0036292e+85
-3.8514524e+85
-5.0615989e+86
-2.3612237e+85
6.4432138e+86
-3.1424046e+85
-3.5286574e+85
2.665044e+85
2.4557714e+85
1.7467172e+85
5.0140947e+86
-6.4540407e+86
-3.3044667e+85
2.7083887e+85
2.3827563e+85
-6.5402428e+86
-3.1760268e+85
2.6893254e+85
-3.5358678e+85
2.4966744e+85
6.3285811e+86
-3.266628e+85
-3.4619503e+85
2.6832411e+85
2.3103397e+85
1.8087621e+85
-3.4376627e+85
2.6620951e+85
-3.3369033e+85
2.5970333e+85
-3.6641723e+85
2.4533143e+85
-5.2845218e+86
3.6778611e+85
-4.601532e+85
-1.72924e+85
-2.084198e+85
4.6048992e+85
4.0999899e+85
-3.1670786e+85
5.2128076e+86
-6.5032198e+86
4.4413396e+85
-2.6037859e+85
-2.0770111e+85
4.1451131e+85
3.8281519e+85
-6.6190096e+86
-3.691184e+85
-2.3741362e+85
-2.6458678e+85
4.016292e+85
3.5668497e+85
5.0719785e+85
-1.9993683e+85
-1.4688002e+85
4.5397146e+85
4.2580486e+85
2.6595099e+85
5.1072623e+86
-2.9448135e+85
-3.0066746e+85
3.0551445e+85
-3.2393402e+85
2.6482216e+85
-5.0385913e+86
-3.2308349e+85
4.5941301e+85
-3.0319853e+85
-2.5172589e+85
3.3838023e+85
3.0898512e+85
3.8675229e+85
-2.7226714e+85
3.1571074e+85
-3.2013611e+85
2.8575265e+85
-3.6422789e+85
-2.8040472e+85
-3.094422e+85
3.3305402e+85
2.8841602e+85
5.2367833e+86
-2.6166048e+85
-6.5564516e+86
-2.2491801e+85
-2.6915119e+85
3.9035504e+85
3.629461e+85
-3.4135531e+85
-1.64488e+85
-2.116024e+85
4.3648527e+85
4.0976447e+85
-5.2057601e+86
-1.7486772e+85
-2.0843237e+85
4.5319659e+85
4.0014617e+85
-6.466063e+86
-2.4012668e+85
-2.6589451e+85
3.9186651e+85
3.4475516e+85
2.6809624e+85
-4.9959913e+86
-2.8391604e+85
-3.0997061e+85
3.2169357e+85
2.7668685e+85
5.0765795e+86
-2.2155013e+85
-2.8909532e+85
2.943935e+85
-3.2828503e+85
2.7015664e+85
-2.7189793e+85
-3.1345501e+85
3.1512101e+85
2.9186006e+85
-3.0299522e+85
2.9224642e+85
-3.2289674e+85
2.5169629e+85
4.2762599e+85
-5.2229153e+85
4.5057141e+85
5.1370222e+85
-6.6651751e+86
-8.010968e+84
-1.2598269e+85
5.5597142e+85
5.0181184e+85
5.1583805e+85
-6.5622219e+86
-5.3689279e+84
-1.1160702e+85
4.038532e+85
4.4430002e+85
5.1045607e+85
-6.5252859e+86
-7.5408092e+84
-1.1756362e+85
4.8910156e+85
5.1137824e+85
-6.6639327e+86
-6.3067341e+84
-1.1813636e+85
4.5900607e+85
-5.3681636e+85
5.2333771e+85
4.6126007e+85
-6.7246243e+86
-7.9302645e+84
-1.2824649e+85
2.8475073e+86
2.3786878e+86
1.9706521e+86
-3.0405679e+87
-3.3595059e+85
-6.5693572e+85
5.3271794e+85
5.1354953e+85
-6.5373809e+86
6.0961295e+85
-4.5250925e+84
-1.1225571e+85
4.3432074e+85
4.3948565e+85
5.0967295e+85
-6.5894275e+86
-8.2028725e+84
-1.2901573e+85
5.2082705e+85
4.9745761e+85
-6.7739383e+86
-6.8218147e+84
-1.27318e+85
3.624843e+86
2.4550058e+86
2.207586e+86
-3.0869156e+87
-2.5477497e+85
-6.5917758e+85
8.914236e+86
-1.3241321e+88
-3.6778999e+86
7.0310786e+87
-2.216435e+87
-9.3697261e+87
1.6444148e+86
-2.6387837e+87
3.6608714e+86
-6.797958e+87
1.6177736e+86
-9.3038782e+87
4.528937e+85
2.9428498e+86
2.4504406e+86
2.0346509e+86
-3.1200826e+87
-3.4249594e+85
-6.9571171e+85
2.301365e+86
2.5033517e+86
-3.026189e+87
3.7959979e+86
-6.028175e+85
-1.846514e+85
-1.9291076e+87
6.2362824e+87
-6.4702986e+87
2.0214979e+87
1.81514e+86
6.4547262e+87
-6.6850242e+87
2.9545458e+85
2.3532841e+87
2.427951e+86
2.4614301e+87
3.5950484e+86
-6.3783413e+84
7.8091547e+84
1.12669e+85
1.152453e+85
-1.4214772e+86
-2.4174363e+84
-3.2793653e+84
-7.9632478e+84
1.1486137e+85
1.0592441e+85
-1.4501065e+86
-3.4938933e+84
-2.8752717e+84
-6.1991582e+84
1.133665e+85
1.1364544e+85
-1.4607998e+86
-3.4924137e+84
-2.6268577e+84
1.1507485e+85
1.0328641e+85
-1.4228589e+86
-2.7745196e+84
-3.3468685e+84
-6.6369842e+84
1.1669809e+85
1.1619113e+85
-1.4258976e+86
8.9637265e+84
-2.1934474e+84
-3.1411687e+84
-7.6466327e+84
1.1985769e+85
1.0906457e+85
-1.4630786e+86
-2.7091765e+84
-3.3682235e+84
-5.9797943e+84
1.1435778e+85
1.1423242e+85
-1.4738377e+86
-2.6756803e+84
-3.4978341e+84
1.0634142e+85
1.1890941e+85
-1.4465371e+86
-2.797693e+84
-3.4171465e+84
2.8302984e+87
6.0633805e+87
-5.9284274e+87
3.6335526e+86
6.553915e+87
-6.3539035e+87
3.9785368e+86
-3.29806e+87
5.2605635e+86
4.6497677e+86
4.30745e+86
-2.4383473e+86
-3.8222933e+86
2.4735461e+86
4.2879325e+86
-2.7504844e+86
2.8284574e+86
5.3379996e+86
-4.3143023e+86
4.25769e+86
-3.6831006e+86
3.6150427e+86
-1.4642878e+87
-4.407956e+86
-2.4894945e+86
1.3901941e+87
-1.2332163e+88
-2.4185791e+86
-4.1313882e+86
-1.2122468e+88
7.9919665e+86
7.0124041e+86
1.1753577e+87
-5.6668446e+86
-4.324004e+86
-3.1645958e+86
3.222917e+86
-8.8427025e+86
-2.3678768e+87
2.7806567e+86
-4.8616232e+86
-7.3589773e+86
-2.4056896e+87
2.4703683e+86
-3.6670791e+86
3.1239031e+86
-2.6772942e+87
3.5229871e+86
3.2813868e+86
-2.6971637e+87
-3.5410433e+86
3.0132434e+86
-8.7404997e+86
-2.2977186e+87
2.5119345e+86
-6.8448455e+86
-2.2766845e+87
2.929313e+86
2.8438272e+86
-2.579142e+87
3.2143976e+86
-2.6385889e+87
-1.965439e+86
7.6108903e+85
2.9955602e+86
-5.4669143e+86
-4.6809343e+86
-5.0372859e+86
-5.8744363e+86
8.243775e+85
-2.9694162e+86
-5.5444646e+86
-5.6239334e+86
-4.7548799e+86
-4.8467728e+86
-2.482486e+86
-4.0294803e+86
3.9671356e+86
-3.3190072e+86
-3.7140444e+86
-3.5277398e+86
-3.0423651e+86
-3.7801243e+86
-3.7258001e+86
-3.3039941e+86
-3.2559632e+86
-2.2388693e+86
7.0723299e+85
-5.2946755e+86
-5.6768538e+86
-4.913394e+86
-4.5684357e+86
8.3052379e+85
-5.3033881e+86
-5.3417886e+86
-4.6531921e+86
-4.5965664e+86
-2.1284456e+86
-3.6049338e+86
-3.2099805e+86
-3.8633022e+86
-3.3289545e+86
-3.5617277e+86
-3.5529232e+86
-3.0450032e+86
-3.167027e+86
2.7982935e+86
2.4970183e+86
-3.4956297e+86
-2.8975391e+87
2.9387615e+86
3.5553836e+86
-2.8475723e+87
-2.2288327e+86
1.9013051e+86
1.7146886e+86
2.296516e+86
-2.6341044e+87
-1.0227492e+85
-4.1937203e+85
-2.2770474e+86
1.8664583e+86
1.5993305e+86
-2.6334276e+87
-1.5383061e+85
-4.4779104e+85
2.9519689e+86
-2.6515807e+86
-2.8190271e+87
-2.1918741e+86
1.8810977e+86
1.7076044e+86
-2.6136867e+87
-8.664452e+84
-3.7419329e+85
-2.5404541e+86
1.8345491e+86
1.5768204e+86
-2.5891648e+87
-1.1824231e+85
-3.7507677e+85
-2.811219e+87
-4.6662611e+85
8.086141e+85
7.4906967e+85
-4.3561505e+86
7.618228e+85
-6.9242115e+85
-4.4043287e+86
3.3661058e+85
-4.7939967e+85
7.6103625e+85
-4.7001724e+86
7.8149012e+85
5.2153248e+85
-4.6589953e+86
-7.6889564e+85
-4.228503e+85
7.6621052e+85
-4.6906919e+86
-5.4766389e+85
-4.3323134e+86
7.2677067e+85
-7.064578e+85
-4.3080162e+86
7.4787064e+85
-4.9297445e+85
-4.6206461e+86
3.0618766e+84
3.7477144e+85
-4.3474607e+85
-7.6823801e+85
-7.757405e+85
-6.4377202e+85
-6.4397258e+85
-2.6904868e+85
7.2565179e+84
2.8722578e+85
-5.7029979e+85
-6.0415135e+85
-6.5532731e+85
-6.8166783e+85
-2.775881e+85
-5.643278e+85
-6.3938796e+85
-5.550792e+85
-6.1614179e+85
4.5398792e+85
-8.177967e+85
-7.5889399e+85
-6.3116939e+85
-6.7973986e+85
-2.9914691e+85
-6.3204396e+84
4.6414468e+85
-7.561871e+85
-8.1788243e+85
-6.2092821e+85
-6.6966528e+85
3.4139332e+83
-7.8343547e+85
-7.9150393e+85
-6.5066935e+85
-6.5157739e+85
-1.7243949e+85
2.8592966e+85
-5.5848031e+85
-5.9812774e+85
-6.4405252e+85
-6.7521289e+85
-5.791297e+85
-5.6837525e+85
-6.5632122e+85
-6.3155215e+85
-4.5143922e+85
8.028408e+85
-4.2780973e+86
7.5715002e+85
-6.8160357e+85
-4.2991541e+86
-3.3264339e+85
8.0686114e+85
-4.6542742e+86
-4.721142e+85
7.816709e+85
-4.6794581e+86
-7.6528235e+85
-3.8562453e+85
7.803181e+85
-4.6244745e+86
-5.0464284e+85
-4.209069e+86
7.1159112e+85
-4.1629084e+86
7.4913871e+85
-4.5546383e+86
-3.1843148e+85
-5.0014924e+84
4.4196136e+85
-6.3175616e+85
-7.4915281e+85
-8.0670603e+85
-6.7642427e+85
4.0675473e+84
-6.4360458e+85
-7.57467e+85
-7.5898907e+85
-6.2861352e+85
-2.4849448e+85
3.2929711e+85
-5.6326621e+85
-5.9635784e+85
-6.767983e+85
-6.487162e+85
-5.3646223e+85
-6.3887622e+85
-6.0945529e+85
-5.6050378e+85
-2.8633515e+85
-4.6886108e+84
-7.5461281e+85
-6.29552e+85
-6.826451e+85
-8.1911297e+85
2.1644647e+84
-7.8445621e+85
-7.8892939e+85
-6.6003791e+85
-6.5689908e+85
-2.0550659e+85
-5.6260245e+85
-6.088619e+85
-6.4862156e+85
-6.8148228e+85
-5.8065427e+85
-5.6800655e+85
-6.5621795e+85
-6.304251e+85
-1.9204312e+86
-1.6795046e+86
1.645138e+86
1.8319441e+86
2.0298221e+86
-2.6681614e+87
-5.3016405e+85
-7.442225e+85
-3.4285092e+85
1.116586e+86
4.6123666e+85
-5.4927525e+86
-4.2922113e+85
1.0727688e+86
-5.5449626e+86
-2.4246633e+86
-2.2194038e+87
3.104067e+86
1.8758467e+86
-2.3153979e+87
1.9917869e+86
-2.6813679e+87
-5.6893982e+85
1.1050023e+86
-5.4651883e+86
-2.1885963e+85
3.8002624e+85
3.6227586e+85
2.3255626e+85
-1.2709198e+86
-1.2087849e+86
-9.8598042e+85
-9.5530707e+85
5.9314123e+84
8.2022358e+84
-2.3749185e+85
3.4910072e+85
3.851168e+85
-1.2593236e+86
-1.2556437e+86
-9.7599211e+85
-9.9033965e+85
7.5045087e+84
5.5270956e+84
3.7566739e+85
3.5676232e+85
-1.2673128e+86
-1.2222435e+86
-9.6583923e+85
-9.8549668e+85
7.5853782e+84
5.3631087e+84
-6.3658972e+84
2.1737916e+85
9.6897833e+84
-6.1572593e+85
2.1728014e+85
-9.1120127e+84
-6.3226246e+85
4.432198e+84
-6.7720402e+84
9.0153717e+84
-1.5357536e+85
-1.0933031e+85
-1.5564411e+85
-1.1273116e+85
8.0771865e+84
7.1415085e+84
-1.6087713e+85
-1.4741038e+85
-1.0465824e+85
-1.1457298e+85
-2.1771342e+85
-6.0887409e+84
7.6589484e+84
-1.5154165e+85
-1.6399498e+85
-1.1806823e+85
-1.079805e+85
7.1922606e+84
2.1589736e+85
-8.8461854e+84
-6.3179801e+85
-6.3492485e+85
9.3676466e+84
-7.1253064e+84
-1.1070264e+85
-1.5520662e+85
-1.5483489e+85
-1.1267906e+85
-7.6975954e+83
1.6037546e+85
1.0945044e+84
-1.8106151e+85
-8.3661411e+84
-9.0267437e+84
-1.8580933e+85
1.3813568e+85
-2.7870139e+84
-1.8294051e+85
-8.4674917e+84
-8.5236246e+84
-1.7457253e+85
-4.0144298e+84
5.8504242e+84
-1.0264748e+85
-9.3715156e+84
-7.8036481e+84
-7.1551146e+84
-6.275502e+84
-1.0047969e+85
-9.5948232e+84
-7.5714571e+84
-7.6569554e+84
-1.6201691e+85
-5.9149457e+84
-9.5903901e+84
-1.0636267e+85
-7.4554045e+84
-8.2439042e+84
-3.652343e+84
-1.7418544e+85
-8.0620155e+84
-9.1019456e+84
-1.8389987e+85
-1.2604316e+85
-5.9692828e+84
-7.7475336e+84
-9.7741877e+84
-9.9868301e+84
-7.4321276e+84
-1.4821142e+84
-8.5129967e+84
-8.3766531e+84
-1.7096316e+85
-1.7880928e+85
-5.8833457e+84
2.1618375e+85
-6.2330371e+85
2.1572803e+85
-6.3342841e+85
-4.7558501e+84
6.7013954e+84
-1.6018354e+85
-1.4729534e+85
-1.0575764e+85
-1.1564058e+85
8.1784108e+84
-1.5522471e+85
-1.5368706e+85
-1.1055471e+85
-1.1375492e+85
-1.6992876e+85
-4.6229655e+84
-1.0314141e+85
-9.3446455e+84
-7.3108305e+84
-8.1284535e+84
-1.7500546e+84
-1.7319782e+85
-7.7463743e+84
-8.4702818e+84
-1.7959599e+85
-1.395664e+85
-7.5652097e+84
-1.0126366e+85
-9.6932693e+84
-7.9017468e+84
-7.8005718e+84
-4.4544352e+84
-8.4013125e+84
-7.9969159e+84
-1.7314921e+85
-1.7021566e+85
-1.6177634e+85
-1.0511263e+85
-9.5487171e+84
-7.574704e+84
-8.3004538e+84
-1.6890275e+85
-7.9751328e+84
-8.9310291e+84
-1.7968105e+85
-4.6003626e+86
3.5570357e+86
-5.4762813e+86
-5.5902888e+86
-6.9278712e+86
-6.7965553e+86
-2.501605e+87
-1.0678707e+86
-3.4074796e+85
3.1538276e+85
9.2577771e+85
-1.4696516e+86
-1.1270171e+86
-1.1799581e+86
-1.5681143e+86
-5.7145615e+85
7.2161803e+85
-5.6477683e+86
-9.5553872e+85
-3.3219359e+85
7.30315e+85
-1.1479401e+86
-1.1347861e+86
-1.466265e+86
-1.5086601e+86
-7.6163556e+85
-5.5405645e+86
-1.0248854e+86
2.007153e+85
8.0051927e+85
-1.1643728e+86
-1.1533943e+86
-1.5309903e+86
-1.5019932e+86
4.8070912e+85
-5.6439752e+86
-1.1372832e+86
9.4994734e+85
3.4045048e+85
-1.1296925e+86
-1.1927672e+86
-1.464327e+86
-1.5763756e+86
-5.5210429e+86
7.5367398e+85
-2.9498212e+85
-1.0651055e+86
3.2247554e+85
9.1354931e+85
-1.1101665e+86
-1.1526535e+86
-1.452384e+86
-1.5351443e+86
-9.6279178e+85
7.2421495e+85
-1.1264895e+86
-1.1008568e+86
-1.4797213e+86
-1.4331468e+86
-5.5737015e+85
7.4774434e+85
-5.5762312e+86
-5.4285027e+86
-1.1148368e+86
-2.1118447e+85
9.3698585e+85
-1.1057233e+86
-1.1663309e+86
-1.4404794e+86
-1.5538501e+86
-4.9441543e+85
-5.5620447e+86
-9.8427121e+85
7.6095045e+85
-1.1355512e+86
-1.5024452e+86
-1.1240624e+86
-1.4728567e+86
-5.6155002e+86
-1.4647766e+84
-2.5324701e+85
2.8170835e+85
3.9061642e+84
-2.3688637e+85
-2.2543732e+85
-3.3202236e+85
-3.5462295e+85
-2.3785077e+85
-3.281878e+84
2.6418004e+85
-2.3203982e+85
-2.3184468e+85
-3.4901229e+85
-3.4089081e+85
-6.5457051e+84
-1.1919908e+86
1.1454273e+85
-9.8437343e+84
-1.2157682e+86
-4.4812531e+84
-2.3563893e+85
2.7207691e+85
-2.3609701e+85
-2.2576552e+85
-3.3690028e+85
-3.5648592e+85
-2.2129324e+85
-3.6767509e+84
2.3939831e+85
-2.2827593e+85
-2.2857433e+85
-3.4624215e+85
-3.3483755e+85
-8.0162071e+84
-1.2182981e+86
-9.9687072e+84
-1.195945e+86
2.4534976e+85
-6.2425864e+84
-1.2019778e+86
-2.5798936e+84
2.7817932e+85
-2.3491357e+85
-2.2281463e+85
-3.3171501e+85
-3.5249688e+85
-2.2986608e+85
-5.2482242e+84
2.543008e+85
-2.2840932e+85
-2.286019e+85
-3.4695888e+85
-3.3816194e+85
-1.0355422e+85
-1.2185527e+86
-5.5780114e+84
-2.3190291e+85
2.6718516e+85
-2.3611154e+85
-2.232369e+85
-3.3367903e+85
-3.5383453e+85
-2.1547658e+85
-4.1565405e+84
2.3092859e+85
-2.2409786e+85
-2.2560275e+85
-3.4167629e+85
-3.3081126e+85
8.4805155e+84
-1.0133405e+85
-1.1732881e+86
-1.2039489e+86
-2.1942602e+84
-2.4754828e+85
2.7613134e+85
-2.3555853e+85
-2.2171576e+85
-3.2903174e+85
-3.5126572e+85
-2.3405892e+85
-4.6543105e+84
2.5747499e+85
-2.2761434e+85
-2.2887944e+85
-3.4744356e+85
-3.3854573e+85
5.8893903e+84
-9.4189894e+84
-1.2060718e+86
-1.1792009e+86
-5.5806591e+84
-2.3447848e+85
2.6911235e+85
-2.3673922e+85
-2.2426476e+85
-3.3579762e+85
-3.5554304e+85
-2.1905473e+85
-4.9771966e+84
2.3279193e+85
-2.2433129e+85
-2.2599018e+85
-3.4319058e+85
-3.3266609e+85
7.8981286e+84
-1.013296e+85
-1.1819138e+86
-1.2076404e+86
-3.3403187e+84
-2.4526628e+85
2.7941382e+85
-2.3599425e+85
-2.2303091e+85
-3.3110404e+85
-3.5372415e+85
-2.3008886e+85
-5.7793911e+84
2.5537078e+85
-2.2946378e+85
-2.2795776e+85
-3.4812366e+85
-3.391827e+85
6.3858695e+84
-1.0344702e+85
-1.2036872e+86
-1.1856849e+86
-5.4316709e+84
-2.3667958e+85
2.6860284e+85
-2.2342347e+85
-3.3582722e+85
-2.3577783e+85
-3.5439674e+85
-2.2374464e+85
2.3728512e+85
-2.277804e+85
-2.2386193e+85
-3.4540081e+85
-3.331687e+85
8.1064474e+84
-1.171189e+86
-1.1991927e+86
7.1828788e+83
-4.0641261e+84
-1.2476746e+84
1.0201488e+85
-2.9185886e+85
-4.1729771e+84
1.2539932e+84
1.0026727e+85
-2.8867194e+85
-8.9713026e+83
1.5699005e+84
-2.732871e+85
-1.6415925e+84
-2.7772368e+85
-1.4618297e+84
-4.2922349e+84
1.0693254e+85
-2.9120241e+85
-3.9480541e+84
-1.2093376e+84
9.724499e+84
-2.8632599e+85
1.4398652e+84
-1.5231826e+84
-2.7050943e+85
-2.7710758e+85
4.5978291e+84
-9.2079283e+83
-2.7037768e+85
1.7635968e+84
-6.0593075e+83
1.0792751e+85
1.0589141e+84
-2.9274532e+85
-4.2913062e+84
-1.0954617e+84
1.0463168e+85
-2.9176369e+85
-1.5105578e+84
-2.7571546e+85
1.359066e+84
-4.0005583e+84
9.6820883e+84
-2.8697699e+85
-4.3365151e+84
1.0597979e+85
-2.9186847e+85
-1.346769e+84
-2.773582e+85
-2.724503e+85
-7.121348e+83
-4.1661379e+84
1.0165345e+85
-2.8421955e+85
-4.0605197e+84
-1.2244094e+84
1.0047729e+85
-2.8529613e+85
-8.0766469e+83
-2.6596869e+85
-1.4844985e+84
-2.7156888e+85
3.8776013e+84
-1.3774522e+84
-2.7162656e+85
-1.3688653e+84
9.8893427e+84
-2.8297081e+85
-3.7516672e+84
-1.3877531e+84
9.3814307e+84
-2.80162e+85
-1.707663e+84
-2.6759669e+85
8.4912811e+83
-4.0235479e+84
-1.3999273e+84
1.0047225e+85
-2.8566015e+85
-4.0492448e+84
9.856002e+84
-2.825702e+85
-1.0067488e+84
-2.6917558e+85
-1.7554478e+84
-2.7375655e+85