/*--------------------------------*- C++ -*----------------------------------*\
  =========                 |
  \\      /  F ield         | OpenFOAM: The Open Source CFD Toolbox
   \\    /   O peration     | Website:  https://openfoam.org
    \\  /    A nd           | Version:  7
     \\/     M anipulation  |
\*---------------------------------------------------------------------------*/
FoamFile
{
    version     2.0;
    format      ascii;
    class       volScalarField;
    location    "2000";
    object      pMean;
}
// * * * * * * * * * * * * * * * * * * * * * * * * * * * * * * * * * * * * * //

dimensions      [0 2 -2 0 0 0 0];

internalField   nonuniform List<scalar> 
33943
(
-1.8884377e+179
-1.8902279e+179
-1.8743296e+179
-1.8705985e+179
-1.8977833e+179
-1.8964439e+179
-1.8911319e+179
-1.9077284e+179
-1.8961204e+179
-1.8938471e+179
-1.8796441e+179
-1.8777129e+179
-1.9170909e+179
-1.9162481e+179
-1.916389e+179
-1.917147e+179
-1.7942002e+179
-1.8262127e+179
-1.8775067e+179
-1.8797266e+179
-1.852687e+179
-1.9099323e+179
-1.9108797e+179
-1.9219353e+179
-1.9013381e+179
-1.9398754e+179
-1.9312296e+179
-1.8943513e+179
-1.9295502e+179
-1.8977374e+179
-1.8960416e+179
-1.9022557e+179
-1.9002447e+179
-1.9062105e+179
-1.898899e+179
-1.9010235e+179
-1.9009787e+179
-1.9134148e+179
-1.9134928e+179
-1.9073754e+179
-1.9030469e+179
-1.8904749e+179
-1.8865748e+179
-1.925573e+179
-1.9238719e+179
-1.9248222e+179
-1.925269e+179
-1.9218534e+179
-1.9209721e+179
-1.9231887e+179
-1.9206945e+179
-1.9287065e+179
-1.9296775e+179
-1.9293555e+179
-1.9290654e+179
-1.9283621e+179
-1.9275803e+179
-1.9293817e+179
-1.9273893e+179
-1.8053096e+179
-1.7995095e+179
-1.8323186e+179
-1.798799e+179
-1.8301592e+179
-1.8208182e+179
-1.7972058e+179
-1.8205875e+179
-1.7979925e+179
-1.874946e+179
-1.8466977e+179
-1.8744614e+179
-1.8467566e+179
-1.9171534e+179
-1.9141658e+179
-1.9206507e+179
-1.919993e+179
-1.8871155e+179
-1.8634385e+179
-1.889674e+179
-1.8401118e+179
-1.837948e+179
-1.856947e+179
-1.8619032e+179
-1.9304435e+179
-1.9289823e+179
-1.9318927e+179
-1.9319161e+179
-1.9166496e+179
-1.9198929e+179
-1.9653301e+179
-1.9559557e+179
-1.9050383e+179
-1.9511034e+179
-1.9351202e+179
-1.8962584e+179
-1.9140994e+179
-1.9108207e+179
-1.917831e+179
-1.9145881e+179
-1.9099118e+179
-1.9118298e+179
-1.9178481e+179
-1.9155213e+179
-1.9065699e+179
-1.9124436e+179
-1.9116556e+179
-1.9045112e+179
-1.9110725e+179
-1.9093416e+179
-1.9208693e+179
-1.9230459e+179
-1.9058249e+179
-1.906509e+179
-1.9178912e+179
-1.9178027e+179
-1.9091891e+179
-1.8964231e+179
-1.9110517e+179
-1.9114079e+179
-1.9199418e+179
-1.919303e+179
-1.9105008e+179
-1.9188351e+179
-1.9160002e+179
-1.9158502e+179
-1.9223766e+179
-1.922237e+179
-1.9152467e+179
-1.921585e+179
-1.9210444e+179
-1.9007656e+179
-1.9349699e+179
-1.9373833e+179
-1.9376302e+179
-1.9363501e+179
-1.9304367e+179
-1.9306274e+179
-1.932186e+179
-1.9338964e+179
-1.9371523e+179
-1.9368361e+179
-1.9389139e+179
-1.9394713e+179
-1.9362381e+179
-1.9354441e+179
-1.9393775e+179
-1.9370387e+179
-1.9337826e+179
-1.9334537e+179
-1.9347947e+179
-1.9351868e+179
-1.932347e+179
-1.9313692e+179
-1.9316888e+179
-1.934136e+179
-1.9352116e+179
-1.9343745e+179
-1.9366357e+179
-1.9351127e+179
-1.935871e+179
-1.9360003e+179
-1.9363597e+179
-1.9369634e+179
-1.933392e+179
-1.9338907e+179
-1.9339294e+179
-1.9345805e+179
-1.9344509e+179
-1.9332863e+179
-1.9324909e+179
-1.9327516e+179
-1.8108465e+179
-1.8376224e+179
-1.805927e+179
-1.8048586e+179
-1.782162e+179
-1.7989983e+179
-1.796404e+179
-1.7799291e+179
-1.8406319e+179
-1.8030981e+179
-1.802468e+179
-1.8266962e+179
-1.8276079e+179
-1.8542477e+179
-1.8835649e+179
-1.8831541e+179
-1.8550583e+179
-1.8236445e+179
-1.8009109e+179
-1.8007313e+179
-1.8251033e+179
-1.8776316e+179
-1.8805525e+179
-1.8519687e+179
-1.8498641e+179
-1.8347646e+179
-1.8223531e+179
-1.8226261e+179
-1.8344854e+179
-1.8065193e+179
-1.8069282e+179
-1.7957665e+179
-1.7952119e+179
-1.833654e+179
-1.8210615e+179
-1.8215804e+179
-1.8330502e+179
-1.8054937e+179
-1.8059695e+179
-1.9086061e+179
-1.8931453e+179
-1.8930583e+179
-1.9085781e+179
-1.8547014e+179
-1.8713847e+179
-1.8552104e+179
-1.8710012e+179
-1.8919165e+179
-1.9072735e+179
-1.9058163e+179
-1.8912012e+179
-1.8693569e+179
-1.8539998e+179
-1.8702859e+179
-1.8534462e+179
-1.9370322e+179
-1.9375142e+179
-1.9337258e+179
-1.9355367e+179
-1.9421692e+179
-1.9236265e+179
-1.9426092e+179
-1.9391648e+179
-1.941214e+179
-1.9274263e+179
-1.8963768e+179
-1.8477484e+179
-1.8721569e+179
-1.8719473e+179
-1.8469481e+179
-1.9301485e+179
-1.9316293e+179
-1.835115e+179
-1.8327539e+179
-1.8625109e+179
-1.8664335e+179
-1.9380848e+179
-1.9379837e+179
-1.9372466e+179
-1.9361204e+179
-1.9404718e+179
-1.9405484e+179
-1.9398957e+179
-1.9388846e+179
-1.9167451e+179
-1.9188378e+179
-1.9746164e+179
-1.9660642e+179
-1.9058049e+179
-1.9511632e+179
-1.9371794e+179
-1.898537e+179
-1.8803861e+179
-1.8744383e+179
-1.8511445e+179
-1.9251375e+179
-1.9222083e+179
-1.9287505e+179
-1.9312375e+179
-1.9192355e+179
-1.9172733e+179
-1.9240134e+179
-1.9253742e+179
-1.9243644e+179
-1.9221898e+179
-1.9350947e+179
-1.9329241e+179
-1.9181593e+179
-1.9173512e+179
-1.9296867e+179
-1.9284892e+179
-1.9070334e+179
-1.9089175e+179
-1.9203398e+179
-1.9180265e+179
-1.9031145e+179
-1.9147876e+179
-1.9124826e+179
-1.9004408e+179
-1.9218766e+179
-1.9209521e+179
-1.9282467e+179
-1.9294715e+179
-1.9270834e+179
-1.9200507e+179
-1.9190512e+179
-1.9266148e+179
-1.9223805e+179
-1.9282602e+179
-1.9278748e+179
-1.9226213e+179
-1.9250076e+179
-1.9240269e+179
-1.9302035e+179
-1.9295189e+179
-1.9167858e+179
-1.916333e+179
-1.924472e+179
-1.9235634e+179
-1.9225234e+179
-1.9150527e+179
-1.9141532e+179
-1.9222518e+179
-1.9180882e+179
-1.9180839e+179
-1.9243652e+179
-1.9240893e+179
-1.9201028e+179
-1.9193877e+179
-1.9261245e+179
-1.9257123e+179
-1.9109345e+179
-1.922215e+179
-1.9218484e+179
-1.8840796e+179
-1.8821688e+179
-1.9079241e+179
-1.9205607e+179
-1.9311859e+179
-1.9304121e+179
-1.9293395e+179
-1.9254976e+179
-1.9253184e+179
-1.9263873e+179
-1.9266517e+179
-1.9260429e+179
-1.9246064e+179
-1.9249369e+179
-1.9260534e+179
-1.9339892e+179
-1.9346123e+179
-1.9308062e+179
-1.9307648e+179
-1.9304438e+179
-1.9339354e+179
-1.9301406e+179
-1.933006e+179
-1.9239743e+179
-1.9236698e+179
-1.9252586e+179
-1.9248576e+179
-1.9295316e+179
-1.9325707e+179
-1.9292057e+179
-1.9329824e+179
-1.9285849e+179
-1.9319514e+179
-1.9436638e+179
-1.9430134e+179
-1.9474782e+179
-1.9515273e+179
-1.9457071e+179
-1.9485461e+179
-1.9487224e+179
-1.9524187e+179
-1.94971e+179
-1.9517469e+179
-1.940718e+179
-1.9391527e+179
-1.9436513e+179
-1.9409229e+179
-1.9435612e+179
-1.9457611e+179
-1.9425302e+179
-1.9456021e+179
-1.9443781e+179
-1.9444727e+179
-1.945876e+179
-1.9465272e+179
-1.944419e+179
-1.9437655e+179
-1.9463237e+179
-1.9449292e+179
-1.9442061e+179
-1.9429858e+179
-1.9432363e+179
-1.944743e+179
-1.942586e+179
-1.9418358e+179
-1.9427272e+179
-1.9443827e+179
-1.9403922e+179
-1.9405471e+179
-1.9419134e+179
-1.9413403e+179
-1.9400878e+179
-1.9395647e+179
-1.9405559e+179
-1.9419276e+179
-1.9385338e+179
-1.9389419e+179
-1.9402794e+179
-1.9396372e+179
-1.938123e+179
-1.9371152e+179
-1.9378695e+179
-1.9397227e+179
-1.9347846e+179
-1.9351412e+179
-1.9399143e+179
-1.940174e+179
-1.9349836e+179
-1.9340041e+179
-1.9387161e+179
-1.9400257e+179
-1.941019e+179
-1.9371974e+179
-1.9365575e+179
-1.9415031e+179
-1.9355591e+179
-1.9365247e+179
-1.9416079e+179
-1.9405251e+179
-1.9335015e+179
-1.9328935e+179
-1.9379353e+179
-1.9384295e+179
-1.9386498e+179
-1.9330694e+179
-1.9325597e+179
-1.9378574e+179
-1.9324641e+179
-1.9325294e+179
-1.9373367e+179
-1.93772e+179
-1.931778e+179
-1.9323358e+179
-1.937343e+179
-1.9360746e+179
-1.8119023e+179
-1.7851841e+179
-1.7844916e+179
-1.8032477e+179
-1.8050933e+179
-1.8462858e+179
-1.8899748e+179
-1.8867203e+179
-1.8583824e+179
-1.8601289e+179
-1.8092548e+179
-1.8341998e+179
-1.8101126e+179
-1.8348212e+179
-1.8070194e+179
-1.8310205e+179
-1.8072555e+179
-1.832312e+179
-1.7725108e+179
-1.802198e+179
-1.7993111e+179
-1.7696058e+179
-1.8621617e+179
-1.8923578e+179
-1.8933911e+179
-1.8619213e+179
-1.8012388e+179
-1.801814e+179
-1.8132504e+179
-1.8130511e+179
-1.8004259e+179
-1.7999464e+179
-1.8124815e+179
-1.8116244e+179
-1.8419296e+179
-1.8290279e+179
-1.8283024e+179
-1.8410369e+179
-1.8292162e+179
-1.8292043e+179
-1.8423489e+179
-1.8422855e+179
-1.8635268e+179
-1.8631832e+179
-1.8800958e+179
-1.88022e+179
-1.9189978e+179
-1.902739e+179
-1.902696e+179
-1.9190593e+179
-1.9180631e+179
-1.9004888e+179
-1.9020452e+179
-1.9158217e+179
-1.8797018e+179
-1.8619306e+179
-1.8627853e+179
-1.8782653e+179
-1.8241421e+179
-1.8250465e+179
-1.8373084e+179
-1.8362276e+179
-1.8082556e+179
-1.8092556e+179
-1.7982536e+179
-1.7970518e+179
-1.8105777e+179
-1.7987519e+179
-1.799286e+179
-1.809889e+179
-1.8396237e+179
-1.8259396e+179
-1.8267564e+179
-1.8386458e+179
-1.8949991e+179
-1.8966992e+179
-1.9124341e+179
-1.9102867e+179
-1.8983304e+179
-1.8991279e+179
-1.9144871e+179
-1.9140391e+179
-1.8768417e+179
-1.8604322e+179
-1.85942e+179
-1.8758786e+179
-1.8745384e+179
-1.8579456e+179
-1.8568908e+179
-1.8729916e+179
-1.8366186e+179
-1.8425133e+179
-1.8363122e+179
-1.8421767e+179
-1.8207715e+179
-1.8205617e+179
-1.8257188e+179
-1.825406e+179
-1.8215105e+179
-1.8264512e+179
-1.8211177e+179
-1.8260812e+179
-1.8358601e+179
-1.8417411e+179
-1.835592e+179
-1.8413751e+179
-1.805197e+179
-1.8098927e+179
-1.8050408e+179
-1.8096529e+179
-1.8058679e+179
-1.8106067e+179
-1.8055443e+179
-1.8102347e+179
-1.7968805e+179
-1.7964565e+179
-1.7927131e+179
-1.7922517e+179
-1.7960796e+179
-1.795919e+179
-1.7917798e+179
-1.7918756e+179
-1.835149e+179
-1.8348545e+179
-1.8408873e+179
-1.8406131e+179
-1.8195526e+179
-1.8244216e+179
-1.8241463e+179
-1.8201587e+179
-1.8250141e+179
-1.8197657e+179
-1.8246668e+179
-1.8345322e+179
-1.8342194e+179
-1.8403594e+179
-1.840129e+179
-1.8041835e+179
-1.8087632e+179
-1.804758e+179
-1.8093319e+179
-1.8044739e+179
-1.8089771e+179
-1.9212953e+179
-1.9205331e+179
-1.9260436e+179
-1.924791e+179
-1.89968e+179
-1.8999467e+179
-1.9093281e+179
-1.9092395e+179
-1.8992165e+179
-1.8987369e+179
-1.9088475e+179
-1.9080052e+179
-1.9218214e+179
-1.9217971e+179
-1.9264362e+179
-1.9266814e+179
-1.8542481e+179
-1.8613781e+179
-1.853934e+179
-1.8609009e+179
-1.8745073e+179
-1.8747091e+179
-1.884433e+179
-1.8843139e+179
-1.855084e+179
-1.8621024e+179
-1.8547034e+179
-1.8618281e+179
-1.8740055e+179
-1.8736166e+179
-1.8838206e+179
-1.8832591e+179
-1.8980766e+179
-1.8977438e+179
-1.9073106e+179
-1.9071419e+179
-1.9197254e+179
-1.9195611e+179
-1.9240431e+179
-1.9240646e+179
-1.9189066e+179
-1.9180658e+179
-1.9233806e+179
-1.922112e+179
-1.8973226e+179
-1.8968657e+179
-1.906702e+179
-1.9058946e+179
-1.8725132e+179
-1.8721496e+179
-1.8820969e+179
-1.8815776e+179
-1.8534164e+179
-1.8604122e+179
-1.8531157e+179
-1.8602022e+179
-1.8730621e+179
-1.8728883e+179
-1.882697e+179
-1.8825179e+179
-1.8528456e+179
-1.8599165e+179
-1.8526341e+179
-1.8595784e+179
-1.9455442e+179
-1.9443352e+179
-1.9459488e+179
-1.9459517e+179
-1.9427751e+179
-1.9414848e+179
-1.9435439e+179
-1.943458e+179
-1.9506261e+179
-1.9494997e+179
-1.9454902e+179
-1.9435958e+179
-1.9510625e+179
-1.9511896e+179
-1.9481027e+179
-1.9468416e+179
-1.9487753e+179
-1.948624e+179
-1.948107e+179
-1.9474347e+179
-1.9350125e+179
-1.8419642e+179
-1.8706921e+179
-1.8717284e+179
-1.8411857e+179
-1.9525096e+179
-1.9502744e+179
-1.9538153e+179
-1.9541465e+179
-1.8360243e+179
-1.8330569e+179
-1.86444e+179
-1.8691135e+179
-1.9413135e+179
-1.9416158e+179
-1.9407471e+179
-1.941336e+179
-1.9403693e+179
-1.9402228e+179
-1.9399672e+179
-1.9391305e+179
-1.9440856e+179
-1.9443e+179
-1.9441638e+179
-1.9433738e+179
-1.9429365e+179
-1.9430267e+179
-1.9426941e+179
-1.9416771e+179
-1.9185016e+179
-1.9221565e+179
-1.9728198e+179
-1.9657717e+179
-1.9058763e+179
-1.9512033e+179
-1.9374007e+179
-1.898691e+179
-1.8876421e+179
-1.893483e+179
-1.8619938e+179
-1.8560641e+179
-1.8742073e+179
-1.8750155e+179
-1.9351252e+179
-1.9211698e+179
-1.9178759e+179
-1.9297093e+179
-1.9323019e+179
-1.915608e+179
-1.9129926e+179
-1.9243763e+179
-1.9269066e+179
-1.9305911e+179
-1.9344945e+179
-1.942155e+179
-1.9407407e+179
-1.9334649e+179
-1.9321436e+179
-1.930802e+179
-1.9391143e+179
-1.9382777e+179
-1.9358142e+179
-1.9410238e+179
-1.9420099e+179
-1.936937e+179
-1.9407465e+179
-1.9334408e+179
-1.9341105e+179
-1.9390771e+179
-1.9378049e+179
-1.928388e+179
-1.927783e+179
-1.9346122e+179
-1.9358575e+179
-1.9259907e+179
-1.924701e+179
-1.9321252e+179
-1.9328913e+179
-1.9310262e+179
-1.9358966e+179
-1.9300035e+179
-1.9348164e+179
-1.9280072e+179
-1.927345e+179
-1.9319402e+179
-1.9327783e+179
-1.8938597e+179
-1.8957048e+179
-1.9218965e+179
-1.9328005e+179
-1.9318404e+179
-1.9192332e+179
-1.9305876e+179
-1.9291905e+179
-1.8899333e+179
-1.9159895e+179
-1.9275124e+179
-1.9269679e+179
-1.9137658e+179
-1.925384e+179
-1.9241423e+179
-1.8875009e+179
-1.9398239e+179
-1.9409371e+179
-1.9384561e+179
-1.9374879e+179
-1.9311207e+179
-1.930787e+179
-1.9321762e+179
-1.932158e+179
-1.9370955e+179
-1.9365755e+179
-1.9407134e+179
-1.9406551e+179
-1.9361152e+179
-1.9399915e+179
-1.9357574e+179
-1.939068e+179
-1.9317512e+179
-1.9320574e+179
-1.9332204e+179
-1.932751e+179
-1.9342769e+179
-1.9339903e+179
-1.9353349e+179
-1.9349543e+179
-1.9333947e+179
-1.9329664e+179
-1.9343135e+179
-1.9342891e+179
-1.9390617e+179
-1.9387912e+179
-1.9420512e+179
-1.9423909e+179
-1.9384579e+179
-1.937993e+179
-1.9422605e+179
-1.9415098e+179
-1.9358322e+179
-1.9349357e+179
-1.9337251e+179
-1.9327782e+179
-1.9289887e+179
-1.9278038e+179
-1.9275527e+179
-1.9286244e+179
-1.9278791e+179
-1.9265667e+179
-1.9268626e+179
-1.9279358e+179
-1.9331471e+179
-1.9329722e+179
-1.9370927e+179
-1.9365461e+179
-1.9317811e+179
-1.9358787e+179
-1.9348249e+179
-1.9321786e+179
-1.9296868e+179
-1.931037e+179
-1.9305525e+179
-1.9294475e+179
-1.9290147e+179
-1.9286853e+179
-1.9300375e+179
-1.9300337e+179
-1.9348539e+179
-1.9345607e+179
-1.9381226e+179
-1.9384776e+179
-1.9341606e+179
-1.9339159e+179
-1.9378758e+179
-1.9373091e+179
-1.9229296e+179
-1.9234369e+179
-1.9028506e+179
-1.930063e+179
-1.9294675e+179
-1.9216613e+179
-1.9009387e+179
-1.9281559e+179
-1.937789e+179
-1.9374034e+179
-1.944095e+179
-1.9444985e+179
-1.936454e+179
-1.9367694e+179
-1.9358834e+179
-1.937023e+179
-1.9434628e+179
-1.9428859e+179
-1.93596e+179
-1.9355089e+179
-1.9354479e+179
-1.935124e+179
-1.9420745e+179
-1.9417595e+179
-1.9348217e+179
-1.9344211e+179
-1.9337837e+179
-1.9352383e+179
-1.9332445e+179
-1.9349819e+179
-1.9338371e+179
-1.9338206e+179
-1.9355664e+179
-1.9353817e+179
-1.9329806e+179
-1.932996e+179
-1.9345144e+179
-1.9346948e+179
-1.9342634e+179
-1.9328278e+179
-1.932311e+179
-1.9340023e+179
-1.9263678e+179
-1.9296892e+179
-1.9295657e+179
-1.9257915e+179
-1.9258819e+179
-1.9294657e+179
-1.9289306e+179
-1.9250113e+179
-1.933371e+179
-1.9334865e+179
-1.9312448e+179
-1.9312019e+179
-1.933096e+179
-1.933195e+179
-1.9309179e+179
-1.9309843e+179
-1.9327898e+179
-1.9325688e+179
-1.9304969e+179
-1.9305748e+179
-1.9246687e+179
-1.928594e+179
-1.928689e+179
-1.9242618e+179
-1.9299647e+179
-1.9320899e+179
-1.9319547e+179
-1.9297112e+179
-1.928352e+179
-1.9276336e+179
-1.9234979e+179
-1.9242598e+179
-1.9319305e+179
-1.9319224e+179
-1.9335807e+179
-1.9334215e+179
-1.9313362e+179
-1.9318839e+179
-1.9333256e+179
-1.9330616e+179
-1.9315111e+179
-1.9316378e+179
-1.9291515e+179
-1.9292829e+179
-1.9230941e+179
-1.9271383e+179
-1.9271502e+179
-1.9225432e+179
-1.9312287e+179
-1.9313916e+179
-1.9291788e+179
-1.9290554e+179
-1.9268584e+179
-1.9271762e+179
-1.9228292e+179
-1.9223875e+179
-1.9306642e+179
-1.9308952e+179
-1.9285589e+179
-1.9286645e+179
-1.9223861e+179
-1.9265734e+179
-1.9267331e+179
-1.9222268e+179
-1.9524244e+179
-1.9535404e+179
-1.9567259e+179
-1.9541518e+179
-1.956702e+179
-1.9543804e+179
-1.9544071e+179
-1.9570934e+179
-1.9534502e+179
-1.9523152e+179
-1.9543636e+179
-1.9563849e+179
-1.9560258e+179
-1.9553527e+179
-1.9591897e+179
-1.9576411e+179
-1.9564468e+179
-1.9565897e+179
-1.9585232e+179
-1.9595647e+179
-1.9477518e+179
-1.9480449e+179
-1.9496042e+179
-1.949974e+179
-1.946762e+179
-1.9455188e+179
-1.9489852e+179
-1.94693e+179
-1.9507233e+179
-1.9505202e+179
-1.9526407e+179
-1.9528932e+179
-1.9498371e+179
-1.952304e+179
-1.9490884e+179
-1.9507317e+179
-1.946622e+179
-1.9471103e+179
-1.9507177e+179
-1.9513089e+179
-1.9458169e+179
-1.9467202e+179
-1.9512357e+179
-1.9502588e+179
-1.9457688e+179
-1.9460247e+179
-1.9500273e+179
-1.9505678e+179
-1.944805e+179
-1.9457709e+179
-1.9503345e+179
-1.9491397e+179
-1.9445684e+179
-1.9449123e+179
-1.9487848e+179
-1.9493233e+179
-1.9443023e+179
-1.9451328e+179
-1.9493997e+179
-1.948453e+179
-1.9437265e+179
-1.9438749e+179
-1.9480048e+179
-1.9485155e+179
-1.9427349e+179
-1.9439732e+179
-1.9481711e+179
-1.9467845e+179
-1.9417789e+179
-1.9425026e+179
-1.9462063e+179
-1.9467413e+179
-1.941371e+179
-1.9421056e+179
-1.9468339e+179
-1.9458592e+179
-1.9408537e+179
-1.9412657e+179
-1.9456176e+179
-1.9460583e+179
-1.9401236e+179
-1.9410079e+179
-1.9458075e+179
-1.9445986e+179
-1.9388929e+179
-1.9398289e+179
-1.9439867e+179
-1.9444231e+179
-1.9385414e+179
-1.9388015e+179
-1.9444441e+179
-1.9436141e+179
-1.9381697e+179
-1.9430587e+179
-1.9382632e+179
-1.9435058e+179
-1.9380534e+179
-1.9372751e+179
-1.9430271e+179
-1.9416301e+179
-1.9422345e+179
-1.9423094e+179
-1.9419223e+179
-1.9411075e+179
-1.9437578e+179
-1.9435813e+179
-1.9428242e+179
-1.9433848e+179
-1.9406697e+179
-1.9405956e+179
-1.9403187e+179
-1.9400234e+179
-1.939553e+179
-1.9395969e+179
-1.9387283e+179
-1.9392303e+179
-1.8124126e+179
-1.8376276e+179
-1.7763029e+179
-1.7754225e+179
-1.8082686e+179
-1.8100637e+179
-1.8652885e+179
-1.8963943e+179
-1.9077931e+179
-1.9082842e+179
-1.9243334e+179
-1.9240038e+179
-1.9044572e+179
-1.9060754e+179
-1.9200149e+179
-1.9222255e+179
-1.8833981e+179
-1.8664951e+179
-1.8818984e+179
-1.8653244e+179
-1.8854262e+179
-1.867597e+179
-1.8685951e+179
-1.8845992e+179
-1.8075502e+179
-1.8196912e+179
-1.8075403e+179
-1.8192406e+179
-1.8342564e+179
-1.8351103e+179
-1.8482611e+179
-1.8473684e+179
-1.8177687e+179
-1.8187196e+179
-1.8071478e+179
-1.8060097e+179
-1.835833e+179
-1.8361317e+179
-1.8497082e+179
-1.8492361e+179
-1.8046916e+179
-1.8051078e+179
-1.8167147e+179
-1.8162597e+179
-1.8310969e+179
-1.8319151e+179
-1.8438153e+179
-1.844831e+179
-1.8041883e+179
-1.8147159e+179
-1.8157101e+179
-1.8031041e+179
-1.8465483e+179
-1.8327135e+179
-1.8459376e+179
-1.8330655e+179
-1.7026031e+179
-1.7013846e+179
-1.7304564e+179
-1.7316975e+179
-1.7716383e+179
-1.8016104e+179
-1.8000467e+179
-1.7685478e+179
-1.8885924e+179
-1.871533e+179
-1.8709732e+179
-1.8890648e+179
-1.9095892e+179
-1.9109902e+179
-1.9283696e+179
-1.926031e+179
-1.9125056e+179
-1.9122841e+179
-1.9298596e+179
-1.9297802e+179
-1.869169e+179
-1.8699638e+179
-1.8877906e+179
-1.8864955e+179
-1.8022184e+179
-1.8021729e+179
-1.7980185e+179
-1.7980071e+179
-1.8028216e+179
-1.8024362e+179
-1.7982934e+179
-1.7986259e+179
-1.8121961e+179
-1.8172581e+179
-1.8119673e+179
-1.8169889e+179
-1.8116855e+179
-1.816746e+179
-1.8117149e+179
-1.8167213e+179
-1.8020206e+179
-1.801635e+179
-1.7973144e+179
-1.7978218e+179
-1.8012825e+179
-1.8010618e+179
-1.7968974e+179
-1.7970188e+179
-1.8115587e+179
-1.8166639e+179
-1.8114373e+179
-1.8164441e+179
-1.8110648e+179
-1.8161489e+179
-1.8107734e+179
-1.8157862e+179
-1.8432699e+179
-1.8495836e+179
-1.8430151e+179
-1.8493001e+179
-1.8276132e+179
-1.8273223e+179
-1.8325137e+179
-1.8327951e+179
-1.826994e+179
-1.8267157e+179
-1.8322038e+179
-1.8318095e+179
-1.8425785e+179
-1.8421914e+179
-1.8489258e+179
-1.8484999e+179
-1.8279419e+179
-1.8332547e+179
-1.8330557e+179
-1.8278668e+179
-1.8284395e+179
-1.8337416e+179
-1.8281301e+179
-1.8334756e+179
-1.8443085e+179
-1.8507541e+179
-1.8505421e+179
-1.8441331e+179
-1.8438089e+179
-1.8501644e+179
-1.8436417e+179
-1.8499428e+179
-1.8636536e+179
-1.8709794e+179
-1.8633934e+179
-1.8708464e+179
-1.8630102e+179
-1.8704701e+179
-1.8627932e+179
-1.8700763e+179
-1.8833606e+179
-1.8936455e+179
-1.8830511e+179
-1.8931527e+179
-1.8838312e+179
-1.8939798e+179
-1.8837597e+179
-1.8940562e+179
-1.9322172e+179
-1.9371008e+179
-1.9324138e+179
-1.937527e+179
-1.9093149e+179
-1.9192539e+179
-1.9089053e+179
-1.9183912e+179
-1.909706e+179
-1.9194426e+179
-1.9096565e+179
-1.919635e+179
-1.9318017e+179
-1.9368935e+179
-1.9310522e+179
-1.9356294e+179
-1.9303374e+179
-1.934849e+179
-1.9301141e+179
-1.9348276e+179
-1.9073098e+179
-1.906699e+179
-1.916958e+179
-1.9160392e+179
-1.9083807e+179
-1.9178058e+179
-1.9079829e+179
-1.9176038e+179
-1.9293263e+179
-1.9342729e+179
-1.9284207e+179
-1.9328795e+179
-1.8825749e+179
-1.8926724e+179
-1.8823255e+179
-1.8924203e+179
-1.8616136e+179
-1.8689809e+179
-1.8612579e+179
-1.8684565e+179
-1.8623669e+179
-1.8696692e+179
-1.8620393e+179
-1.8694164e+179
-1.8817442e+179
-1.8812334e+179
-1.8918467e+179
-1.8911475e+179
-1.8226574e+179
-1.822302e+179
-1.8276183e+179
-1.8272237e+179
-1.8236521e+179
-1.82862e+179
-1.8231244e+179
-1.8280826e+179
-1.8389517e+179
-1.8448989e+179
-1.8384824e+179
-1.8443729e+179
-1.8379185e+179
-1.8438151e+179
-1.8374686e+179
-1.8433548e+179
-1.8070508e+179
-1.8116569e+179
-1.8066641e+179
-1.8113204e+179
-1.807979e+179
-1.8126312e+179
-1.8075474e+179
-1.8120965e+179
-1.798859e+179
-1.7983177e+179
-1.7946924e+179
-1.7941815e+179
-1.7978151e+179
-1.7975192e+179
-1.7933151e+179
-1.7936947e+179
-1.8099056e+179
-1.8147904e+179
-1.8093993e+179
-1.8141899e+179
-1.7996342e+179
-1.7993687e+179
-1.7952473e+179
-1.7955e+179
-1.8004543e+179
-1.8e+179
-1.795931e+179
-1.7964317e+179
-1.8088105e+179
-1.8136841e+179
-1.8084995e+179
-1.8132242e+179
-1.8413567e+179
-1.8476367e+179
-1.840884e+179
-1.8470849e+179
-1.8247243e+179
-1.8298795e+179
-1.8243137e+179
-1.8293274e+179
-1.8258144e+179
-1.8309577e+179
-1.8252481e+179
-1.8304149e+179
-1.8402714e+179
-1.8464312e+179
-1.8397636e+179
-1.8457812e+179
-1.9016935e+179
-1.9009781e+179
-1.9114031e+179
-1.9104053e+179
-1.9030572e+179
-1.9025404e+179
-1.9124298e+179
-1.912149e+179
-1.925009e+179
-1.9295925e+179
-1.9248144e+179
-1.9296259e+179
-1.9239445e+179
-1.9288865e+179
-1.9229461e+179
-1.9274108e+179
-1.9047257e+179
-1.904049e+179
-1.9143561e+179
-1.9134186e+179
-1.9057876e+179
-1.9150718e+179
-1.9053615e+179
-1.9149123e+179
-1.9273986e+179
-1.9320258e+179
-1.9273761e+179
-1.9322231e+179
-1.9267425e+179
-1.9259486e+179
-1.9316954e+179
-1.9304005e+179
-1.880297e+179
-1.8902229e+179
-1.8799255e+179
-1.8899143e+179
-1.8603786e+179
-1.8598224e+179
-1.8675647e+179
-1.8671097e+179
-1.8591381e+179
-1.8585775e+179
-1.8664232e+179
-1.8657025e+179
-1.8791768e+179
-1.8785665e+179
-1.8892307e+179
-1.8884404e+179
-1.8776838e+179
-1.8772461e+179
-1.8874818e+179
-1.8870554e+179
-1.8576544e+179
-1.8571177e+179
-1.8648163e+179
-1.8643051e+179
-1.8560291e+179
-1.8564874e+179
-1.8636611e+179
-1.8630339e+179
-1.8764257e+179
-1.875771e+179
-1.8862676e+179
-1.8854414e+179
-1.8372914e+179
-1.8348791e+179
-1.8375643e+179
-1.8346447e+179
-1.8431016e+179
-1.8459567e+179
-1.8457508e+179
-1.8428707e+179
-1.8342314e+179
-1.8368497e+179
-1.8343985e+179
-1.8370542e+179
-1.8426114e+179
-1.8454728e+179
-1.8424186e+179
-1.845221e+179
-1.8190205e+179
-1.820945e+179
-1.8207547e+179
-1.8188585e+179
-1.8186195e+179
-1.8187372e+179
-1.820661e+179
-1.8205538e+179
-1.8280438e+179
-1.8262128e+179
-1.8282187e+179
-1.8260614e+179
-1.8257628e+179
-1.8277702e+179
-1.8258918e+179
-1.8279045e+179
-1.8215813e+179
-1.8198688e+179
-1.8218464e+179
-1.8196357e+179
-1.8270501e+179
-1.8291186e+179
-1.8289029e+179
-1.8268322e+179
-1.8211756e+179
-1.8194108e+179
-1.8213549e+179
-1.8192619e+179
-1.8266012e+179
-1.8286418e+179
-1.8264506e+179
-1.8284693e+179
-1.8339912e+179
-1.836627e+179
-1.8364543e+179
-1.8337942e+179
-1.8449986e+179
-1.8420266e+179
-1.8421925e+179
-1.8448484e+179
-1.8336678e+179
-1.8335348e+179
-1.8363313e+179
-1.8361699e+179
-1.8446741e+179
-1.8416865e+179
-1.8444726e+179
-1.841856e+179
-1.8058441e+179
-1.8057111e+179
-1.8066335e+179
-1.8065001e+179
-1.811698e+179
-1.8131822e+179
-1.8130277e+179
-1.8118206e+179
-1.8055384e+179
-1.8053495e+179
-1.806266e+179
-1.8063941e+179
-1.8115276e+179
-1.8113913e+179
-1.8128976e+179
-1.8127928e+179
-1.8072452e+179
-1.8065548e+179
-1.8074376e+179
-1.8064258e+179
-1.8126022e+179
-1.8140481e+179
-1.8138275e+179
-1.8124323e+179
-1.8068284e+179
-1.8062165e+179
-1.8070394e+179
-1.8060353e+179
-1.8121835e+179
-1.8135856e+179
-1.8120146e+179
-1.8134277e+179
-1.8018319e+179
-1.8018955e+179
-1.8013621e+179
-1.8012568e+179
-1.8010236e+179
-1.8007868e+179
-1.801737e+179
-1.8014708e+179
-1.7923571e+179
-1.7919811e+179
-1.8013026e+179
-1.8012268e+179
-1.8006318e+179
-1.8004986e+179
-1.8003065e+179
-1.8000729e+179
-1.8010027e+179
-1.8005843e+179
-1.7912666e+179
-1.7916064e+179
-1.8333504e+179
-1.8360074e+179
-1.8357698e+179
-1.8331405e+179
-1.8328845e+179
-1.8329728e+179
-1.8356158e+179
-1.8354998e+179
-1.8441427e+179
-1.8414776e+179
-1.844308e+179
-1.8412836e+179
-1.8409957e+179
-1.8437956e+179
-1.8411116e+179
-1.8439572e+179
-1.8177887e+179
-1.819716e+179
-1.8195661e+179
-1.8176844e+179
-1.8267956e+179
-1.8249117e+179
-1.8269213e+179
-1.8248016e+179
-1.8244705e+179
-1.8264769e+179
-1.8245878e+179
-1.8265912e+179
-1.820194e+179
-1.8184498e+179
-1.820447e+179
-1.8182203e+179
-1.8255706e+179
-1.8276455e+179
-1.8274521e+179
-1.8253673e+179
-1.8199655e+179
-1.8180784e+179
-1.8200501e+179
-1.8180213e+179
-1.8252213e+179
-1.8272754e+179
-1.8251499e+179
-1.8271892e+179
-1.8326369e+179
-1.8352607e+179
-1.8351447e+179
-1.8324973e+179
-1.8323272e+179
-1.8349932e+179
-1.8322273e+179
-1.8348869e+179
-1.8434899e+179
-1.8407793e+179
-1.8435782e+179
-1.8406777e+179
-1.8403842e+179
-1.8405014e+179
-1.8433294e+179
-1.843197e+179
-1.8046729e+179
-1.8046049e+179
-1.8055396e+179
-1.8054405e+179
-1.8105586e+179
-1.8120252e+179
-1.8119206e+179
-1.8106382e+179
-1.8059643e+179
-1.8051466e+179
-1.8061739e+179
-1.8049868e+179
-1.8112127e+179
-1.8127122e+179
-1.8124936e+179
-1.8110268e+179
-1.8057641e+179
-1.8048884e+179
-1.8058442e+179
-1.804849e+179
-1.8108554e+179
-1.8123328e+179
-1.8107901e+179
-1.8122751e+179
-1.9306659e+179
-1.9267397e+179
-1.9306772e+179
-1.926609e+179
-1.9262979e+179
-1.9303119e+179
-1.9295885e+179
-1.9257916e+179
-1.9354578e+179
-1.9355284e+179
-1.9354126e+179
-1.9356019e+179
-1.9352169e+179
-1.9342023e+179
-1.9349025e+179
-1.9342167e+179
-1.9058582e+179
-1.9001111e+179
-1.9062937e+179
-1.8998593e+179
-1.9003773e+179
-1.9005325e+179
-1.9065876e+179
-1.9065723e+179
-1.9139635e+179
-1.9139689e+179
-1.9197241e+179
-1.9198174e+179
-1.9195779e+179
-1.9190778e+179
-1.9136784e+179
-1.913283e+179
-1.9055792e+179
-1.8995569e+179
-1.905588e+179
-1.8994399e+179
-1.8992146e+179
-1.9053226e+179
-1.904842e+179
-1.8989131e+179
-1.9130677e+179
-1.918866e+179
-1.9130195e+179
-1.9188242e+179
-1.9185056e+179
-1.9178943e+179
-1.9126849e+179
-1.9122014e+179
-1.9310053e+179
-1.9273996e+179
-1.9316492e+179
-1.9269761e+179
-1.9275863e+179
-1.927617e+179
-1.9317188e+179
-1.9318426e+179
-1.9367803e+179
-1.9366379e+179
-1.936559e+179
-1.9369796e+179
-1.9366784e+179
-1.9358952e+179
-1.9363237e+179
-1.935821e+179
-1.854606e+179
-1.8515039e+179
-1.8547695e+179
-1.8513327e+179
-1.8607841e+179
-1.8644764e+179
-1.8643239e+179
-1.8606344e+179
-1.8542277e+179
-1.8511658e+179
-1.8544447e+179
-1.8509774e+179
-1.8604257e+179
-1.8641178e+179
-1.8638761e+179
-1.8602202e+179
-1.8722382e+179
-1.8778043e+179
-1.8724633e+179
-1.8780952e+179
-1.8727127e+179
-1.8729115e+179
-1.8785035e+179
-1.8783461e+179
-1.8858301e+179
-1.8859374e+179
-1.891832e+179
-1.8917713e+179
-1.891483e+179
-1.8912123e+179
-1.8855727e+179
-1.8853551e+179
-1.8522121e+179
-1.8524514e+179
-1.8557491e+179
-1.8555315e+179
-1.8615086e+179
-1.8616923e+179
-1.8654206e+179
-1.8652466e+179
-1.8550128e+179
-1.8519522e+179
-1.8552613e+179
-1.8517384e+179
-1.8649626e+179
-1.8612322e+179
-1.8610276e+179
-1.8647184e+179
-1.8774008e+179
-1.8719851e+179
-1.8775381e+179
-1.8718086e+179
-1.8716153e+179
-1.8772138e+179
-1.8769436e+179
-1.8714079e+179
-1.8850746e+179
-1.8909182e+179
-1.8849572e+179
-1.8908654e+179
-1.8906053e+179
-1.8902734e+179
-1.8847201e+179
-1.8844552e+179
-1.8985821e+179
-1.9045319e+179
-1.9044867e+179
-1.8984931e+179
-1.8982002e+179
-1.9042467e+179
-1.9038772e+179
-1.89798e+179
-1.911827e+179
-1.9175334e+179
-1.9175128e+179
-1.9117361e+179
-1.911528e+179
-1.9173197e+179
-1.9168361e+179
-1.9111682e+179
-1.9253131e+179
-1.9290876e+179
-1.9291403e+179
-1.925181e+179
-1.9250025e+179
-1.9289479e+179
-1.9283845e+179
-1.9245992e+179
-1.9337324e+179
-1.9338177e+179
-1.9340307e+179
-1.9338143e+179
-1.9334802e+179
-1.933709e+179
-1.9330806e+179
-1.9330429e+179
-1.9242395e+179
-1.9279953e+179
-1.9281027e+179
-1.9241871e+179
-1.9233352e+179
-1.923781e+179
-1.9277188e+179
-1.9270908e+179
-1.9326501e+179
-1.9327081e+179
-1.9328668e+179
-1.9326718e+179
-1.9316997e+179
-1.9322675e+179
-1.9325733e+179
-1.9317386e+179
-1.8976079e+179
-1.9035169e+179
-1.9035081e+179
-1.8975268e+179
-1.8969953e+179
-1.8972581e+179
-1.9032492e+179
-1.9028593e+179
-1.9108758e+179
-1.9165182e+179
-1.9165156e+179
-1.91082e+179
-1.9101118e+179
-1.9105087e+179
-1.9161675e+179
-1.9156335e+179
-1.8704253e+179
-1.8759305e+179
-1.8758413e+179
-1.870309e+179
-1.8699034e+179
-1.8701016e+179
-1.8756215e+179
-1.8753665e+179
-1.8834126e+179
-1.8891077e+179
-1.8891078e+179
-1.8833542e+179
-1.8827881e+179
-1.883044e+179
-1.8888094e+179
-1.8884992e+179
-1.850773e+179
-1.850577e+179
-1.8540461e+179
-1.8538762e+179
-1.8599827e+179
-1.8598473e+179
-1.8636805e+179
-1.8635627e+179
-1.8504061e+179
-1.853697e+179
-1.8535428e+179
-1.8502766e+179
-1.8633655e+179
-1.8631975e+179
-1.8596557e+179
-1.8595255e+179
-1.871176e+179
-1.8767209e+179
-1.8766028e+179
-1.8710327e+179
-1.8708524e+179
-1.8764189e+179
-1.8762196e+179
-1.8707037e+179
-1.8841854e+179
-1.8900015e+179
-1.8899871e+179
-1.8841135e+179
-1.8838896e+179
-1.8897023e+179
-1.8894582e+179
-1.8837146e+179
-1.8500549e+179
-1.8533077e+179
-1.8499448e+179
-1.853221e+179
-1.8592025e+179