/*--------------------------------*- C++ -*----------------------------------*\
  =========                 |
  \\      /  F ield         | OpenFOAM: The Open Source CFD Toolbox
   \\    /   O peration     | Website:  https://openfoam.org
    \\  /    A nd           | Version:  7
     \\/     M anipulation  |
\*---------------------------------------------------------------------------*/
FoamFile
{
    version     2.0;
    format      ascii;
    class       volVectorField;
    location    "2000";
    object      U;
}
// * * * * * * * * * * * * * * * * * * * * * * * * * * * * * * * * * * * * * //

dimensions      [0 1 -1 0 0 0 0];

internalField   nonuniform List<vector> 
33943
(
(-5.3082421e+90 3.8992033e+89 6.174939e+89)
(-5.1351554e+90 -1.13381e+89 6.4664654e+89)
(-3.8396645e+90 5.9585917e+89 1.3939087e+90)
(-4.7886498e+90 4.6267936e+89 2.6075945e+89)
(-5.9655502e+90 8.2764419e+89 2.8207733e+89)
(-4.1009669e+90 9.1335099e+89 4.7831769e+89)
(-4.1462548e+90 -2.9985517e+89 6.9854277e+89)
(-4.7880969e+90 8.9469322e+89 4.4684731e+89)
(-4.9726808e+90 -3.6547193e+88 6.8847339e+89)
(-4.7562165e+90 4.4314346e+89 6.3833353e+89)
(-4.0022029e+90 7.0502524e+89 1.2884595e+90)
(-4.3344415e+90 6.5132574e+89 1.5048046e+90)
(-4.2348675e+90 -4.6997614e+88 5.7990113e+89)
(-3.8938683e+90 4.7218429e+89 1.1699502e+90)
(-3.9642432e+90 4.2381514e+89 1.1403568e+90)
(-4.0174246e+90 3.2922069e+89 4.8972714e+89)
(-4.6330126e+90 3.2358168e+89 -5.6661866e+89)
(-4.7018272e+90 7.1390576e+89 7.7282535e+89)
(-4.5321896e+90 6.9223042e+89 1.5608804e+89)
(-4.6924209e+90 5.0775916e+89 2.0250718e+89)
(-6.3816101e+90 5.4403644e+89 6.3249143e+89)
(-4.2310629e+90 3.7008032e+89 4.8138878e+89)
(-4.3271668e+90 3.7835207e+89 5.6833308e+89)
(-5.3388443e+90 8.0917592e+89 1.7982874e+89)
(-3.625113e+90 1.0403267e+90 4.9742595e+89)
(-2.6289014e+90 1.6865976e+90 -7.6814454e+89)
(-2.4859093e+90 1.5817677e+90 -7.1493054e+89)
(-2.9217625e+90 1.5241783e+90 4.0814108e+89)
(-4.8824283e+90 8.7721529e+89 4.2698532e+89)
(-5.1251596e+90 1.0240421e+89 -4.4720992e+89)
(-4.5818877e+90 7.1107147e+89 -3.3907408e+89)
(-3.8898841e+90 4.3160213e+88 5.6975683e+89)
(-3.067688e+90 7.9285773e+89 3.6318494e+89)
(-3.6621651e+90 1.8057641e+89 -1.8854136e+89)
(-3.539678e+90 4.6159932e+89 -7.3643149e+89)
(-3.7303507e+90 -2.8069408e+88 -4.8850002e+89)
(-3.5798798e+90 4.0783974e+89 -4.4504834e+89)
(-3.0309307e+90 -2.5152662e+89 5.9621706e+89)
(-2.6453484e+90 4.9445368e+89 4.5206269e+89)
(-5.1464624e+90 1.3433398e+89 7.2670787e+89)
(-4.5045479e+90 6.75137e+89 6.0891641e+89)
(-3.9729736e+90 8.9662083e+89 1.1028957e+90)
(-3.831632e+90 9.5869418e+89 9.8459758e+89)
(-4.1958764e+90 6.3960174e+85 6.074818e+89)
(-4.0061547e+90 3.2373506e+89 5.2151704e+89)
(-3.9883737e+90 5.136787e+89 1.0714603e+90)
(-3.918399e+90 6.1172793e+89 1.0847611e+90)
(-4.1763304e+90 1.4090325e+87 5.350439e+89)
(-3.9976972e+90 2.9537374e+89 4.9422105e+89)
(-3.8961267e+90 5.3222234e+89 1.0450076e+90)
(-3.948084e+90 4.453239e+89 1.0520349e+90)
(-3.3222003e+90 2.0468802e+89 4.7451632e+89)
(-3.7924573e+90 2.7204108e+89 9.1631539e+89)
(-3.4409413e+90 -7.4850765e+87 5.4574227e+89)
(-3.7187816e+90 3.1691224e+89 9.2801107e+89)
(-3.2838725e+90 3.4325078e+88 4.4680737e+89)
(-3.228337e+90 2.3510435e+89 4.2551299e+89)
(-3.7159188e+90 2.9611155e+89 8.6660451e+89)
(-3.7684247e+90 2.8228118e+89 8.6236247e+89)
(-6.4501746e+90 4.2766135e+89 3.827752e+89)
(-4.7362102e+90 3.7011282e+89 -5.4963584e+89)
(-4.7088407e+90 7.4300662e+89 7.3087963e+89)
(-4.5462153e+90 5.5913947e+89 -5.822115e+89)
(-5.0787152e+90 3.0367698e+89 8.0017939e+89)
(-4.2958473e+90 4.2108344e+89 2.2019878e+89)
(-4.1768148e+90 2.2073023e+89 -4.5036563e+89)
(-4.4021852e+90 1.5150405e+89 2.0899264e+89)
(-4.0653987e+90 2.7646817e+89 -4.9196893e+89)
(-4.2198578e+90 5.2299679e+89 6.0236417e+89)
(-4.4544231e+90 2.5149083e+89 -2.052377e+89)
(-4.3835288e+90 2.0905728e+89 6.2895678e+89)
(-4.3498746e+90 3.2916331e+89 -2.6311011e+89)
(-4.2970465e+90 4.2166589e+89 4.5878806e+89)
(-4.2365745e+90 4.1710117e+89 4.4255648e+89)
(-4.2964679e+90 4.630135e+89 5.0452815e+89)
(-4.2203213e+90 4.3127087e+89 4.3908017e+89)
(-4.5364954e+90 7.5919123e+89 1.6024495e+89)
(-6.2703841e+90 4.4009019e+89 6.3093158e+89)
(-4.7677504e+90 6.0990897e+89 1.8927781e+89)
(-3.7250274e+90 7.0002058e+89 6.0085323e+89)
(-3.4982003e+90 1.0839133e+90 6.292838e+89)
(-3.4436872e+90 9.2989415e+89 -4.8567353e+89)
(-3.1940425e+90 1.1806142e+90 -5.4176634e+89)
(-3.8093577e+90 2.6001419e+89 4.8105841e+89)
(-3.7943593e+90 2.4162652e+89 4.6879329e+89)
(-3.8462337e+90 2.7735854e+89 5.4997668e+89)
(-3.8233268e+90 2.29609e+89 5.0722514e+89)
(-2.9284134e+90 1.5769832e+90 1.6648374e+89)
(-3.5502296e+90 1.1718919e+90 2.8039975e+89)
(-2.8657997e+90 1.7567536e+90 -6.5959449e+89)
(-2.7187671e+90 1.6428449e+90 -7.6903048e+89)
(-2.9554012e+90 1.366216e+90 -2.3364435e+89)
(-3.0149818e+90 1.5402251e+90 -2.4947176e+89)
(-3.0058774e+90 1.5722294e+90 -2.131416e+89)
(-3.0539316e+90 1.3167705e+90 -2.0807305e+89)
(-5.2408238e+90 1.6878411e+89 -5.281566e+89)
(-4.7016137e+90 7.772484e+89 -3.8726474e+89)
(-4.1326615e+90 1.4172473e+89 5.485533e+89)
(-3.4295694e+90 9.0509114e+89 4.4030725e+89)
(-3.7721659e+90 5.7823714e+89 -6.843995e+89)
(-3.695277e+90 5.7907015e+89 -6.7290594e+89)
(-3.8033453e+90 3.0281442e+89 -1.881284e+89)
(-3.6447766e+90 5.9122073e+89 -1.5411498e+89)
(-3.6242296e+90 5.4256757e+89 -6.7519899e+89)
(-3.7397389e+90 2.6867819e+89 -1.6122388e+89)
(-3.4915127e+90 5.4291266e+89 -1.4148959e+89)
(-3.6153664e+90 5.1592944e+89 -6.5576807e+89)
(-3.6961081e+90 1.0518842e+89 -4.6948693e+89)
(-3.525127e+90 4.6170768e+89 -4.1594946e+89)
(-2.5280421e+90 5.4848794e+89 3.4860816e+89)
(-2.8658102e+90 -5.4022309e+88 4.7709638e+89)
(-3.7055843e+90 8.2544583e+88 -4.7480897e+89)
(-3.4046161e+90 4.0353232e+89 -4.0512281e+89)
(-2.3695047e+90 5.0274631e+89 2.8645752e+89)
(-2.8982081e+90 -6.6032883e+88 4.5039668e+89)
(-4.3014362e+90 3.1731195e+89 -6.5574285e+89)
(-3.9699632e+90 3.6812163e+89 2.9633189e+88)
(-2.846581e+90 3.1247328e+89 -7.0702681e+89)
(-2.809198e+90 3.094763e+89 -6.8360793e+89)
(-2.6421034e+90 1.0617418e+89 -3.4378728e+89)
(-2.5863724e+90 3.1290261e+89 -3.288833e+89)
(-2.782639e+90 2.8478782e+89 -6.6646895e+89)
(-2.6433181e+90 9.8711284e+88 -3.1294238e+89)
(-2.2310409e+90 9.6168706e+87 -3.7269518e+89)
(-2.1313493e+90 2.6196817e+89 -3.5428494e+89)
(-2.142297e+90 -1.7523625e+89 6.1282306e+89)
(-1.8966816e+90 3.2095917e+89 4.7649422e+89)
(-2.2696507e+90 3.4638536e+88 -3.5969347e+89)
(-2.1243771e+90 -1.2789727e+89 6.2329365e+89)
(-1.8426727e+90 3.5529988e+89 4.5300354e+89)
(-4.0881762e+90 9.6881168e+89 1.0485883e+90)
(-4.0317147e+90 4.0612031e+89 5.9195227e+89)
(-4.2657405e+90 1.5012143e+89 7.0235088e+89)
(-4.1555432e+90 6.9280082e+89 1.1060056e+90)
(-4.1954777e+90 6.1725948e+89 1.0623577e+90)
(-3.93963e+90 3.8016305e+89 5.2665428e+89)
(-4.1269768e+90 5.814935e+89 9.8983029e+89)
(-4.2175673e+90 8.9961932e+88 5.9205758e+89)
(-4.2095083e+90 6.4597339e+89 1.0307919e+90)
(-3.4934747e+90 -3.8749613e+87 5.8408202e+89)
(-3.3814706e+90 1.9276297e+89 5.1879382e+89)
(-3.7466371e+90 4.0285003e+89 9.0116839e+89)
(-3.7615962e+90 3.4725527e+89 8.6381541e+89)
(-3.4729093e+90 8.8615835e+87 5.2807538e+89)
(-3.3341655e+90 2.3187083e+89 4.7561108e+89)
(-3.8095932e+90 3.440942e+89 8.4121447e+89)
(-3.7282732e+90 3.3191875e+89 8.0128508e+89)
(-3.466808e+90 1.3993199e+88 5.4841709e+89)
(-3.3604581e+90 2.2832765e+89 4.8012299e+89)
(-3.704811e+90 3.6348433e+89 8.6819048e+89)
(-3.7073279e+90 3.1794215e+89 8.3957807e+89)
(-3.4284263e+90 3.3678556e+88 4.9813895e+89)
(-3.3047134e+90 2.1551444e+89 4.5449236e+89)
(-3.6840422e+90 2.9368185e+89 8.1746554e+89)
(-3.7017804e+90 3.3180982e+89 8.3023042e+89)
(-2.9720329e+90 1.5780842e+88 5.496116e+89)
(-2.9299107e+90 1.6772299e+89 5.2904562e+89)
(-3.3938046e+90 1.8534473e+89 7.6157532e+89)
(-3.3692132e+90 1.9096224e+89 7.4647446e+89)
(-3.002275e+90 -7.7106156e+87 5.8648077e+89)
(-2.9569463e+90 1.5359188e+89 5.4647671e+89)
(-3.3361304e+90 2.1149385e+89 7.9249413e+89)
(-3.3537849e+90 1.9471308e+89 7.7940802e+89)
(-2.9278977e+90 8.0727217e+87 5.562451e+89)
(-2.8869897e+90 1.7274444e+89 5.1584893e+89)
(-3.30782e+90 1.9720387e+89 7.6193773e+89)
(-3.3271323e+90 1.9625077e+89 7.4771615e+89)
(-3.350739e+90 1.9664897e+89 7.4477244e+89)
(-2.9125323e+90 3.7476128e+88 5.2899816e+89)
(-2.8145387e+90 1.6883791e+89 4.8679073e+89)
(-3.3188678e+90 1.9541796e+89 7.2850677e+89)
(-6.4672886e+90 3.786442e+89 4.0813632e+89)
(-4.9573548e+90 3.9245711e+89 7.0344355e+89)
(-4.8027379e+90 4.2197379e+89 -5.4477891e+89)
(-4.6327621e+90 6.0545682e+89 -5.6825008e+89)
(-3.7268653e+90 5.1619509e+89 6.5554421e+89)
(-3.2837932e+90 9.1830198e+89 -5.6024352e+89)
(-3.6003751e+90 6.4753581e+89 -5.5907598e+89)
(-3.5756367e+90 8.7478164e+89 6.4810369e+89)
(-4.6972283e+90 7.8240486e+89 6.5473002e+89)
(-4.2582097e+90 2.5719074e+89 -4.2656094e+89)
(-4.1368859e+90 3.2395606e+89 -5.4416903e+89)
(-4.3952921e+90 2.0158837e+89 1.9374218e+89)
(-4.350927e+90 4.6583155e+89 2.2389293e+89)
(-4.445045e+90 3.1848776e+89 -2.0915415e+89)
(-4.2164301e+90 6.0166105e+89 5.6388033e+89)
(-4.3994572e+90 2.8551551e+89 5.9567922e+89)
(-4.328378e+90 3.8783226e+89 -2.8031249e+89)
(-4.4834092e+90 1.9110148e+89 1.8025005e+89)
(-4.1292032e+90 3.2275772e+89 -5.0552083e+89)
(-4.2278385e+90 2.1352004e+89 -4.7393663e+89)
(-4.3298176e+90 4.0937723e+89 1.6934089e+89)
(-4.4451854e+90 2.8241869e+89 5.9782628e+89)
(-4.228262e+90 5.8904593e+89 5.2124866e+89)
(-4.4028475e+90 2.6738926e+89 -2.7842692e+89)
(-4.4016538e+90 3.8028956e+89 -2.6615725e+89)
(-3.7445164e+90 2.6033695e+89 5.6595021e+88)
(-3.7634356e+90 1.7755652e+89 -2.7996408e+89)
(-3.7886759e+90 1.3912693e+89 -2.4862233e+89)
(-3.7971044e+90 1.1587987e+89 4.9221398e+88)
(-3.892635e+90 8.5031815e+88 2.4704301e+88)
(-3.8498542e+90 2.2554304e+89 3.9475858e+88)
(-3.7973418e+90 1.181465e+89 -2.8314805e+89)
(-3.8131771e+90 1.4259383e+89 -3.1395707e+89)
(-3.7161858e+90 2.2628963e+89 8.6442009e+87)
(-3.7056507e+90 1.7999e+89 -3.1175525e+89)
(-3.7266869e+90 8.87688e+88 -3.049158e+89)
(-3.7538049e+90 1.1863764e+89 1.7289298e+88)
(-3.8476464e+90 8.2083297e+88 1.1242925e+87)
(-3.8164399e+90 1.7929849e+89 -4.6402591e+87)
(-3.9421963e+90 1.5174322e+89 6.2558109e+89)
(-3.9595571e+90 2.2052657e+89 7.1170127e+88)
(-3.8958111e+90 2.3964518e+89 2.3478931e+88)
(-3.8709307e+90 3.8266251e+89 6.3042284e+89)
(-3.7375958e+90 2.0160024e+89 -2.0029832e+89)
(-3.8095783e+90 3.3545296e+89 2.9593419e+89)
(-3.7866795e+90 1.8624273e+89 -1.5435366e+89)
(-3.8603957e+90 1.4034571e+89 2.7400716e+89)
(-3.8854983e+90 1.7013022e+89 5.525934e+87)
(-3.8686985e+90 3.6541348e+89 5.8021497e+89)
(-3.9478098e+90 1.5013998e+89 6.1202861e+89)
(-3.8482869e+90 2.3822667e+89 -4.6165706e+87)
(-3.8327802e+90 1.2584892e+89 2.3983529e+89)
(-3.7394779e+90 1.3639689e+89 -2.1149977e+89)
(-3.7947138e+90 2.7061468e+89 2.406672e+89)
(-3.6734239e+90 2.0144505e+89 -2.3051564e+89)
(-3.7765961e+90 2.7572558e+89 4.3281362e+89)
(-3.8313282e+90 3.0554369e+89 4.9162819e+89)
(-3.7670514e+90 2.7747221e+89 4.4476921e+89)
(-3.8322913e+90 2.886826e+89 4.6623373e+89)
(-3.8245979e+90 2.8902965e+89 4.5684316e+89)
(-4.3442057e+90 4.8507703e+89 4.355423e+89)
(-3.8582888e+90 3.4712858e+89 5.2015902e+89)
(-3.7722328e+90 3.0379979e+89 4.1358081e+89)
(-3.9059829e+90 2.9773381e+89 4.6745048e+89)
(-4.4885202e+90 4.9143713e+89 4.7509074e+89)
(-4.7109062e+90 7.6905456e+89 1.6382918e+89)
(-3.6445464e+90 8.1348835e+89 4.4662846e+89)
(-3.0893952e+90 1.2619427e+90 -6.0456544e+89)
(-3.146524e+90 1.0566948e+90 -5.9491013e+89)
(-3.3962891e+90 1.138255e+90 4.4524429e+89)
(-4.4253049e+90 4.9668572e+89 4.4716953e+89)
(-4.4905143e+90 5.2181067e+89 5.1359323e+89)
(-3.1763543e+90 9.7559531e+89 -3.8173924e+88)
(-3.2918965e+90 9.0953505e+89 1.7692068e+88)
(-3.0775527e+90 1.1169854e+90 -1.516991e+88)
(-2.9866274e+90 1.1737352e+90 -6.486491e+88)
(-3.2929386e+90 1.7909066e+89 4.279744e+89)
(-3.2787179e+90 1.6396738e+89 3.9273041e+89)
(-3.3269703e+90 1.79113e+89 4.1521799e+89)
(-3.2659009e+90 1.6714365e+89 3.9229742e+89)
(-3.3433174e+90 2.0141651e+89 4.7275665e+89)
(-3.3329702e+90 1.626559e+89 4.3755478e+89)
(-3.3691335e+90 1.7135946e+89 4.2693078e+89)
(-3.3178649e+90 1.641657e+89 4.0830623e+89)
(-3.0419342e+90 1.4056047e+90 -1.8828884e+89)
(-3.2242996e+90 1.3973543e+90 -1.8264542e+89)
(-3.333369e+90 1.5850223e+90 -1.9398773e+89)
(-3.0006431e+90 1.657165e+90 -2.0229367e+89)
(-2.4576709e+90 1.4757293e+90 -1.9205164e+89)
(-2.7472059e+90 1.6451271e+90 -2.3747441e+89)
(-2.7974361e+90 1.5429129e+90 -1.8816451e+89)
(-2.3816163e+90 1.3921746e+90 -1.6676244e+89)
(-4.9834698e+90 5.5969438e+89 -4.1199622e+89)
(-4.9091321e+90 5.4603309e+89 -4.1503432e+89)
(-4.9885305e+90 5.1482574e+89 -3.5392397e+89)
(-3.9609978e+90 6.4881405e+89 -6.7161528e+89)
(-3.9743412e+90 6.4206621e+89 -6.5628493e+89)
(-3.8204714e+90 6.4821568e+89 -2.2150815e+89)
(-4.0152019e+90 3.6791945e+89 -2.6381725e+89)
(-3.8065186e+90 6.3803067e+89 -6.6582348e+89)
(-3.8040241e+90 6.0344699e+89 -6.3955609e+89)
(-3.6645834e+90 6.2437544e+89 -1.7502194e+89)
(-3.8696064e+90 3.6753851e+89 -2.0115249e+89)
(-3.7832321e+90 2.4664004e+89 -5.4367994e+89)
(-3.5639762e+90 5.3088681e+89 -4.5286721e+89)
(-2.8956327e+90 2.8165719e+89 3.8304924e+89)
(-2.5362279e+90 6.9884781e+89 2.8916494e+89)
(-3.716304e+90 1.8710128e+89 -4.8466028e+89)
(-3.4569712e+90 5.0176149e+89 -4.131336e+89)
(-2.8949054e+90 6.6157273e+88 4.628733e+89)
(-2.4481203e+90 6.2404315e+89 3.0699345e+89)
(-4.0380703e+90 5.1765669e+89 5.4853904e+88)
(-4.0796835e+90 4.4543473e+89 1.1890571e+88)
(-4.3374336e+90 3.7473038e+89 -5.9592709e+89)
(-4.3323301e+90 3.4791478e+89 -5.5612609e+89)
(-4.0321076e+90 4.1849691e+89 2.4661183e+88)
(-4.2905997e+90 3.6290789e+89 -6.0612535e+89)
(-4.2526081e+90 3.1295903e+89 -5.7900685e+89)
(-3.9048137e+90 4.702316e+89 7.0057821e+88)
(-2.9528741e+90 4.020288e+89 -6.6421492e+89)
(-2.9633435e+90 3.910772e+89 -6.6727962e+89)
(-2.6423425e+90 3.7247467e+89 -3.3667345e+89)
(-2.7138653e+90 1.9491604e+89 -3.5047884e+89)
(-2.701064e+90 1.7380847e+89 -3.1916094e+89)
(-2.9238454e+90 3.7309983e+89 -6.3218692e+89)
(-2.9159398e+90 3.9488028e+89 -6.3941641e+89)
(-2.600026e+90 3.8773243e+89 -3.2318864e+89)
(-2.0512726e+90 3.4893709e+89 -3.5651875e+89)
(-2.1106629e+90 -7.6158314e+88 5.5628998e+89)
(-1.8060896e+90 3.949681e+89 3.7734105e+89)
(-2.2201965e+90 1.0831249e+89 -3.63334e+89)
(-2.1826857e+90 1.1538528e+89 -3.6536354e+89)
(-2.0628187e+90 3.4005184e+89 -3.4736186e+89)
(-2.0480212e+90 -9.1937247e+88 5.3136755e+89)
(-1.8375219e+90 3.6878321e+89 4.0704311e+89)
(-2.8802648e+90 3.7986803e+89 -6.6128262e+89)
(-2.8922343e+90 3.7022996e+89 -6.6724721e+89)
(-2.6782103e+90 1.7903151e+89 -3.5089615e+89)
(-2.6053871e+90 3.5831016e+89 -3.3500705e+89)
(-2.6497711e+90 1.4630791e+89 -3.1923807e+89)
(-2.8323196e+90 3.4232849e+89 -6.3081393e+89)
(-2.8144406e+90 3.4378423e+89 -6.3402453e+89)
(-2.5319687e+90 3.4075718e+89 -3.1955614e+89)
(-2.2192144e+90 7.8281082e+88 -3.7222179e+89)
(-2.0100786e+90 2.8910294e+89 -3.5121827e+89)
(-2.1016561e+90 -7.375384e+88 5.2578509e+89)
(-1.7623007e+90 3.4433063e+89 3.5436001e+89)
(-2.2078042e+90 1.0135741e+89 -3.8040182e+89)
(-2.0885173e+90 3.2239688e+89 -3.6048978e+89)
(-2.0993894e+90 -8.3576136e+88 5.3866549e+89)
(-1.8533976e+90 3.7971831e+89 3.9038508e+89)
(-4.4057569e+90 2.8607293e+89 -4.7593008e+89)
(-3.1852216e+90 2.4503366e+89 -3.2476399e+89)
(-3.1507608e+90 2.8645718e+89 -3.0811244e+89)
(-3.8354924e+90 5.4208008e+89 -4.4195536e+89)
(-4.1388684e+90 2.7578992e+89 -4.9355762e+89)
(-4.4258088e+90 2.6599539e+89 -4.610692e+89)
(-3.1702673e+90 2.2589089e+89 -2.933091e+89)
(-3.4024202e+90 1.4918024e+89 -7.739151e+89)
(-3.4603978e+90 1.4127865e+89 -7.5897949e+89)
(-3.4571109e+90 1.5432558e+89 -7.7049999e+89)
(-1.6190004e+90 2.2663814e+89 -5.7081126e+89)
(-1.6109952e+90 2.1915996e+89 -5.9569628e+89)
(-1.6222483e+90 2.2022256e+89 -3.5943544e+89)
(-1.6781998e+90 6.3422851e+88 -3.526122e+89)
(-1.7295022e+90 6.0033733e+88 -3.3391944e+89)
(-1.619706e+90 2.1334675e+89 -5.8575237e+89)
(-1.651661e+90 2.0922663e+89 -5.6643382e+89)
(-1.6354093e+90 2.3564705e+89 -3.6154144e+89)
(-2.0532144e+90 -1.2177785e+89 7.1235876e+89)
(-1.947226e+90 2.0331084e+89 6.423673e+89)
(-1.3334308e+90 5.6503983e+88 1.0955313e+89)
(-1.2255428e+90 1.9928076e+89 6.7912676e+88)
(-1.3817835e+90 7.8308626e+88 1.1539572e+89)
(-2.0781839e+90 -8.2813602e+88 7.3015981e+89)
(-1.2085695e+90 2.1791337e+89 3.8034441e+88)
(-1.9018085e+90 2.2430045e+89 6.2404853e+89)
(-1.6073817e+90 2.0441968e+89 -5.6815672e+89)
(-1.5994443e+90 2.0242586e+89 -5.8326329e+89)
(-1.7021385e+90 6.1728539e+88 -3.3047801e+89)
(-1.6509071e+90 2.3086091e+89 -3.4087619e+89)
(-1.3507897e+90 6.324348e+88 1.4800572e+89)
(-2.086031e+90 -1.1906391e+89 7.9360914e+89)
(-1.2562136e+90 2.2119804e+89 8.007697e+88)
(-1.9799887e+90 2.3207924e+89 6.9120254e+89)
(-1.362493e+90 9.5436486e+88 1.2486442e+89)
(-2.0687863e+90 -6.2285347e+88 7.5265363e+89)
(-4.0312247e+90 4.4561109e+89 6.3290856e+89)
(-4.2586241e+90 6.0640423e+89 9.9748933e+89)
(-3.5275454e+90 8.3123141e+88 5.7871193e+89)
(-3.9073417e+90 4.2147415e+89 8.3572607e+89)
(-3.3946972e+90 2.9271565e+89 5.3095319e+89)
(-3.8738149e+90 4.1339088e+89 8.0910031e+89)
(-3.4449645e+90 2.6495694e+89 5.8540081e+89)
(-3.8842117e+90 4.0783691e+89 8.7249592e+89)
(-3.5789379e+90 1.1129907e+89 6.691883e+89)
(-3.8905722e+90 4.6365804e+89 9.0819017e+89)
(-3.4748409e+90 5.5729514e+88 5.3870173e+89)
(-3.3379852e+90 2.3916327e+89 4.988243e+89)
(-3.8423026e+90 4.1620184e+89 8.1437565e+89)
(-3.805444e+90 3.7406053e+89 8.0222813e+89)
(-3.4959947e+90 7.2768007e+88 5.8590886e+89)
(-3.8952166e+90 4.4630086e+89 8.7597401e+89)
(-3.3570949e+90 2.6247643e+89 5.0713494e+89)
(-3.8622151e+90 4.0227104e+89 8.2923345e+89)
(-2.9895514e+90 4.7185114e+87 5.8291836e+89)
(-2.9222177e+90 1.379935e+89 5.4493021e+89)
(-3.3864323e+90 2.6048181e+89 7.8291516e+89)
(-3.3767548e+90 2.3135458e+89 7.656577e+89)
(-2.9695991e+90 1.5848941e+88 5.3078062e+89)
(-2.8997392e+90 1.5900754e+89 5.1347337e+89)
(-3.38404e+90 2.2682257e+89 7.1292238e+89)
(-3.3647601e+90 2.2679264e+89 7.055838e+89)
(-3.393004e+90 2.2675589e+89 7.496672e+89)
(-2.961594e+90 9.0172346e+87 5.56189e+89)
(-2.8971663e+90 1.6999977e+89 5.1914461e+89)
(-3.3823536e+90 2.2028413e+89 7.269739e+89)
(-2.9429344e+90 3.943618e+88 5.1957829e+89)
(-2.869864e+90 1.7573753e+89 4.9287518e+89)
(-3.3109606e+90 2.2703456e+89 6.8274132e+89)
(-3.3417932e+90 2.3145491e+89 6.9685108e+89)
(-2.9628431e+90 1.3991961e+88 5.6138681e+89)
(-2.9159118e+90 1.6470244e+89 5.220415e+89)
(-3.3362889e+90 2.1218284e+89 7.3849071e+89)
(-3.3256903e+90 2.3381475e+89 7.5494508e+89)
(-2.9664002e+90 3.8877868e+88 5.1910295e+89)
(-2.8832821e+90 1.8784901e+89 4.9063066e+89)
(-3.3149563e+90 2.2039153e+89 6.925297e+89)
(-3.3383897e+90 2.1552699e+89 7.0771489e+89)
(-2.9727714e+90 3.2619804e+88 5.4872485e+89)
(-2.9167129e+90 1.8145049e+89 5.0531836e+89)
(-3.328249e+90 2.1942206e+89 7.2348381e+89)
(-3.3250957e+90 2.2999936e+89 7.4322343e+89)
(-2.9624092e+90 3.99045e+88 5.2043897e+89)
(-2.9033435e+90 1.6216567e+89 5.0209809e+89)
(-3.3021633e+90 2.1235208e+89 7.0103566e+89)
(-3.321826e+90 2.2066441e+89 7.0951477e+89)
(-2.2822906e+90 1.6765869e+89 6.2700909e+89)
(-2.2943071e+90 3.5664041e+87 6.4601737e+89)
(-3.0540986e+90 1.2031729e+89 6.5310529e+89)
(-3.0699629e+90 1.348312e+89 6.5381963e+89)
(-2.298044e+90 1.9260252e+88 6.4218891e+89)
(-2.2512799e+90 1.9213825e+89 6.1531422e+89)
(-3.0448074e+90 1.3444999e+89 6.5553228e+89)
(-3.0593256e+90 1.2276083e+89 6.6413747e+89)
(-3.0137943e+90 1.36388e+89 6.8554086e+89)
(-2.3627924e+90 -6.8458022e+87 6.8433568e+89)
(-2.295173e+90 1.6370387e+89 6.4178819e+89)
(-3.0281909e+90 1.3947702e+89 6.7208931e+89)
(-2.2637082e+90 1.945319e+89 6.1114487e+89)
(-2.3173008e+90 1.4463811e+88 6.4118417e+89)
(-3.0510792e+90 1.2062443e+89 6.6679557e+89)
(-3.0491905e+90 1.4101928e+89 6.5920315e+89)
(-2.2464966e+90 2.921809e+87 6.5714628e+89)
(-2.2185028e+90 1.7336718e+89 6.2295745e+89)
(-2.9991483e+90 1.1963968e+89 6.6089115e+89)
(-3.0241863e+90 1.2766228e+89 6.7873953e+89)
(-3.0148404e+90 1.1917805e+89 6.3062704e+89)
(-2.2021604e+90 1.7224593e+88 6.1142386e+89)
(-2.1904292e+90 1.9673136e+89 5.9329415e+89)
(-3.0258026e+90 1.4312439e+89 6.4600575e+89)
(-2.2162748e+90 1.7752603e+89 6.1584008e+89)
(-2.2218162e+90 1.2194422e+88 6.3761309e+89)
(-3.0294203e+90 1.2896965e+89 6.51512e+89)
(-3.0440539e+90 1.3924288e+89 6.6705544e+89)
(-2.1632341e+90 1.7468034e+89 6.0782162e+89)
(-2.1961647e+90 2.0910357e+88 6.1845964e+89)
(-3.0123962e+90 1.2513862e+89 6.4340227e+89)
(-3.0062541e+90 1.3483449e+89 6.4177346e+89)
(-4.7218208e+90 6.0531311e+89 -5.5315112e+89)
(-3.7826425e+90 6.1029371e+89 5.8501229e+89)
(-3.5973047e+90 9.0215934e+89 5.6803317e+89)
(-3.4435485e+90 7.0915805e+89 -5.7046057e+89)
(-3.2410288e+90 1.0015556e+90 -5.6055292e+89)
(-5.0016098e+90 4.3083809e+89 6.5333645e+89)
(-4.4186315e+90 6.292335e+89 5.3000106e+89)
(-4.5766134e+90 3.4271488e+89 5.8819796e+89)
(-4.4794358e+90 4.198293e+89 -2.4752265e+89)
(-4.5247215e+90 3.0542317e+89 -2.5915266e+89)
(-4.3973625e+90 2.7883873e+89 -4.1731909e+89)
(-4.6018229e+90 2.2855603e+89 1.8162404e+89)
(-4.313206e+90 3.3224458e+89 -4.7142539e+89)
(-4.4830398e+90 4.8132906e+89 2.0757858e+89)
(-4.3499972e+90 2.5218898e+89 -4.6880581e+89)
(-4.5496187e+90 2.3602688e+89 1.5939394e+89)
(-4.2349156e+90 3.5223528e+89 -4.9611196e+89)
(-4.4398993e+90 4.4317616e+89 1.4643542e+89)
(-3.2791857e+90 7.2019267e+89 6.9770091e+88)
(-3.1616273e+90 8.3384937e+89 9.0081975e+88)
(-3.2550939e+90 8.0207365e+89 1.0726336e+89)
(-3.3588101e+90 6.9445247e+89 3.0402127e+88)
(-4.601607e+90 3.4755155e+89 -1.8822431e+89)
(-4.5691814e+90 3.4473851e+89 5.7810569e+89)
(-4.3910506e+90 6.4575253e+89 5.5654546e+89)
(-4.5648369e+90 3.9585175e+89 -2.1424624e+89)
(-3.8155702e+90 1.5683074e+89 -2.9833808e+89)
(-3.8230389e+90 1.5064583e+89 -2.6137156e+89)
(-3.8873707e+90 2.6261442e+89 5.2473605e+88)
(-3.9344333e+90 1.0273163e+89 3.7374228e+88)
(-3.7744263e+90 1.1014456e+89 -3.6497984e+89)
(-3.7538959e+90 1.8753973e+89 -3.7591234e+89)
(-3.8008569e+90 2.1116255e+89 -2.5686865e+88)
(-3.8411294e+90 1.2821394e+89 -1.4108224e+88)
(-3.7200519e+90 2.8322487e+89 -1.7192517e+88)
(-3.7327078e+90 1.3229624e+89 -3.1084987e+89)
(-3.7055943e+90 2.3117649e+89 -3.2701367e+89)
(-3.759258e+90 1.8614201e+89 -6.4571213e+87)
(-3.7742001e+90 2.065151e+89 -2.7911084e+89)
(-3.8042353e+90 1.8498623e+89 -2.410124e+89)
(-3.7401797e+90 3.1488227e+89 4.0401383e+88)
(-3.8039045e+90 1.5917349e+89 3.3012093e+88)
(-3.7702281e+90 2.4569615e+89 -1.5837842e+89)
(-3.7470222e+90 2.4334915e+89 -1.9898997e+89)
(-3.8952583e+90 1.872238e+89 2.6286759e+89)
(-3.8187685e+90 3.9486867e+89 2.7696124e+89)
(-3.8618774e+90 4.5733345e+89 5.8123791e+89)
(-3.9151923e+90 2.7719147e+89 2.8189131e+88)
(-3.9521607e+90 2.8167107e+89 7.0100675e+88)
(-3.9688968e+90 2.1570417e+89 5.9101927e+89)
(-3.9308695e+90 4.1666227e+89 5.5256614e+89)
(-3.8634479e+90 2.9345311e+89 -2.1137875e+88)
(-3.9266384e+90 2.189178e+89 1.6947089e+87)
(-3.9602531e+90 2.2696816e+89 5.6241977e+89)
(-3.8303069e+90 3.2761052e+89 2.1109997e+89)
(-3.6936613e+90 2.6433623e+89 -2.4357778e+89)
(-3.7442013e+90 1.9244978e+89 -2.18703e+89)
(-3.8719195e+90 1.938335e+89 2.1707738e+89)
(-3.7529844e+90 2.1183622e+89 -3.1311751e+89)
(-3.7795525e+90 1.15556e+89 -2.9903507e+89)
(-3.7718741e+90 2.6677908e+89 5.5428635e+87)
(-3.8064944e+90 1.6393393e+89 1.1662797e+88)
(-3.8971433e+90 1.154464e+89 -1.4725204e+88)
(-3.8659023e+90 2.0531977e+89 -1.0351589e+88)
(-3.7887999e+90 1.0619661e+89 -3.2955491e+89)
(-3.7922212e+90 1.7475745e+89 -3.477925e+89)
(-3.8727672e+90 2.3862914e+89 4.2112359e+88)
(-3.7792052e+90 1.5828362e+89 -3.2079677e+89)
(-3.7986329e+90 1.2369575e+89 -2.8500977e+89)
(-3.9047946e+90 1.0445499e+89 1.8477614e+88)
(-3.7290024e+90 2.7963688e+89 2.2415321e+88)
(-3.7435944e+90 2.0466584e+89 -3.1382507e+89)
(-3.7946468e+90 1.4923334e+89 -2.5339052e+89)
(-3.7694004e+90 1.5578266e+89 5.6730305e+87)
(-3.8772258e+90 2.8432509e+89 -6.8795381e+87)
(-3.9155043e+90 2.1166507e+89 5.7080428e+87)
(-3.8890706e+90 4.0720884e+89 5.6215275e+89)
(-3.941479e+90 2.0368625e+89 5.8135164e+89)
(-3.8701195e+90 2.7148706e+89 -6.685696e+87)
(-3.9215042e+90 2.3541791e+89 3.8336756e+88)
(-3.8764446e+90 4.1245952e+89 5.8044627e+89)
(-3.9380182e+90 1.9802721e+89 5.7463415e+89)
(-3.8085579e+90 3.5128797e+89 2.5740126e+89)
(-3.7482977e+90 2.0137157e+89 -1.8712667e+89)
(-3.7125632e+90 2.3836171e+89 -2.3081757e+89)
(-3.8637601e+90 1.7783756e+89 2.4009847e+89)
(-3.8221528e+90 3.2316184e+89 2.2746361e+89)
(-3.7580941e+90 1.8423892e+89 -2.2219216e+89)
(-3.7242361e+90 2.551108e+89 -2.3242861e+89)
(-3.8794632e+90 1.8440171e+89 2.3137041e+89)
(-3.1483205e+90 1.2507129e+89 -1.5887884e+89)
(-3.1538221e+90 1.937387e+89 2.5397018e+88)
(-3.1335727e+90 1.4539813e+89 -1.8113931e+89)
(-3.1730572e+90 1.0423663e+89 1.4792878e+88)
(-3.1592976e+90 8.3820917e+88 -1.7731767e+89)
(-3.1303221e+90 1.2565628e+89 -1.9272503e+89)
(-3.2091145e+90 1.3653733e+89 1.1322798e+87)
(-3.2051026e+90 8.4069771e+88 -7.1339453e+87)
(-3.1543993e+90 1.1575835e+89 -1.5086851e+89)
(-3.1994898e+90 1.7583563e+89 2.953483e+88)
(-3.1451907e+90 1.2486118e+89 -1.7206529e+89)
(-3.2134729e+90 9.1428758e+88 1.5698609e+88)
(-3.1510235e+90 8.73584e+88 -1.8597388e+89)
(-3.153153e+90 1.6296773e+89 -1.0178391e+88)
(-3.119782e+90 1.3748433e+89 -2.0083774e+89)
(-3.1532835e+90 1.0419652e+89 -1.5545593e+88)
(-3.2177214e+90 6.6038115e+88 -1.5178379e+89)
(-3.2308772e+90 1.306366e+89 -2.4402904e+88)
(-3.2023545e+90 1.14746e+89 -1.6911965e+89)
(-3.2310141e+90 8.2915852e+88 -3.2689264e+88)
(-3.2242007e+90 9.9391189e+88 -1.2572003e+89)
(-3.2250102e+90 1.5430307e+89 5.0237532e+86)
(-3.2093911e+90 1.1664353e+89 -1.4732654e+89)
(-3.2386076e+90 8.0983501e+88 -1.1273584e+88)
(-3.3703226e+90 1.4504362e+89 2.7306994e+88)
(-3.377707e+90 6.4761192e+88 1.5557539e+88)
(-3.3613127e+90 9.5518683e+88 -2.1405584e+89)
(-3.3414363e+90 9.8244948e+88 -2.3384866e+89)
(-3.370509e+90 1.1549694e+89 1.2578311e+87)
(-3.377711e+90 6.4727693e+88 -6.9643637e+87)
(-3.3418821e+90 1.080266e+89 -2.5776217e+89)
(-3.3539247e+90 7.0349431e+88 -2.4190963e+89)
(-3.0732445e+90 8.2929859e+88 -1.9822697e+89)
(-3.0684698e+90 1.2989974e+89 -2.1186829e+89)
(-3.0953609e+90 1.5157997e+89 -6.7935275e+87)
(-3.1199713e+90 8.354583e+88 -1.1045154e+88)
(-3.0938441e+90 7.7175539e+88 -1.9501714e+89)
(-3.1496394e+90 1.3132286e+89 -1.3516856e+88)
(-3.1795354e+90 8.4604588e+88 -1.0861841e+88)
(-3.0743427e+90 7.7593235e+88 -1.9214331e+89)
(-3.1337931e+90 1.3495942e+89 -4.8291336e+87)
(-3.078374e+90 1.1255616e+89 -2.048482e+89)
(-3.156693e+90 7.2471393e+88 -1.2197118e+88)
(-3.092653e+90 8.113761e+88 -2.0194872e+89)
(-3.0990407e+90 1.3508136e+89 -2.0146522e+89)
(-3.0982679e+90 1.5762422e+89 -2.3173305e+88)
(-3.1174252e+90 1.0085919e+89 -1.962011e+88)
(-3.1490787e+90 5.8963466e+88 -1.6766612e+89)
(-3.1663989e+90 1.2319723e+89 -3.9261925e+88)
(-3.1416338e+90 6.1208863e+88 -1.6722397e+89)
(-3.1541867e+90 1.1596001e+89 -3.4744258e+88)
(-3.1338549e+90 1.0756807e+89 -1.799263e+89)
(-3.1811403e+90 6.4724668e+88 -3.9978942e+88)
(-3.4368518e+90 1.3176635e+89 1.6999222e+89)
(-3.4013617e+90 1.7021324e+89 1.5554265e+89)
(-3.4538792e+90 2.5523728e+89 5.6467124e+89)
(-3.473696e+90 1.041266e+89 5.7161694e+89)
(-3.296277e+90 1.6503855e+89 -1.6703482e+88)
(-3.3029581e+90 1.7366263e+89 5.9920004e+87)
(-3.3670138e+90 2.6489156e+89 3.7086969e+89)
(-3.4081921e+90 1.1273974e+89 3.5722248e+89)
(-3.3134926e+90 1.3258669e+89 -2.9933106e+88)
(-3.2755751e+90 1.6322337e+89 -4.172548e+88)
(-3.3810787e+90 2.0996658e+89 3.2538561e+89)
(-3.3992923e+90 1.020114e+89 3.2267985e+89)
(-3.4192755e+90 1.7050472e+89 1.8668283e+89)
(-3.4396499e+90 1.7952666e+89 2.1587522e+89)
(-3.4000167e+90 2.8820193e+89 5.8761231e+89)
(-3.4562958e+90 1.0860849e+89 5.864011e+89)
(-3.146906e+90 1.0891026e+89 -1.6655615e+89)
(-3.2008014e+90 1.7182447e+89 5.2215502e+88)
(-3.1139797e+90 1.4881202e+89 -1.8120478e+89)
(-3.2060939e+90 1.0305249e+89 4.4929033e+88)
(-3.2005795e+90 1.6791513e+89 -1.3462031e+89)
(-3.2133348e+90 1.5522083e+89 -1.1207306e+89)
(-3.2311235e+90 2.3621265e+89 1.4728876e+89)
(-3.2674772e+90 1.1960436e+89 1.368152e+89)
(-3.1411106e+90 1.4944019e+89 -1.3621999e+89)
(-3.1894392e+90 2.2052118e+89 8.4905432e+88)
(-3.1317993e+90 1.4842855e+89 -1.557123e+89)
(-3.2151466e+90 1.129832e+89 7.0811267e+88)
(-3.2193702e+90 1.0899251e+89 -1.4385798e+89)
(-3.1887368e+90 1.5974166e+89 -1.5846798e+89)
(-3.2420822e+90 2.0058089e+89 1.118707e+89)
(-3.2505948e+90 1.164435e+89 1.0870781e+89)
(-3.2399404e+90 1.3069152e+89 -3.2468495e+88)
(-3.2363418e+90 1.5125384e+89 -4.8320202e+88)
(-3.3211654e+90 2.2520874e+89 3.2936085e+89)
(-3.3613354e+90 9.7740413e+88 3.1977212e+89)
(-3.3776639e+90 1.4470903e+89 1.6896103e+89)
(-3.3593538e+90 1.6394582e+89 1.4593259e+89)
(-3.3781816e+90 2.5889404e+89 5.5345495e+89)
(-3.4279671e+90 9.839702e+88 5.544805e+89)
(-3.3947081e+90 1.3431215e+89 1.5714003e+89)
(-3.354388e+90 1.7708594e+89 1.4538624e+89)
(-3.4355297e+90 2.6186821e+89 5.5293998e+89)
(-3.4461713e+90 1.0494123e+89 5.6446403e+89)
(-3.2682927e+90 1.3089978e+89 -4.4031555e+88)
(-3.2318429e+90 1.7479298e+89 -5.5505065e+88)
(-3.3556357e+90 2.1158108e+89 3.1525408e+89)
(-3.3712226e+90 1.0645303e+89 3.1547858e+89)
(-3.1680223e+90 1.0390145e+89 -1.5776079e+89)
(-3.139953e+90 1.6896856e+89 -1.687508e+89)
(-3.2034687e+90 1.9757632e+89 1.0112341e+89)
(-3.2161021e+90 1.2289395e+89 9.9373976e+88)
(-3.0748056e+90 1.0441713e+89 -1.7444059e+89)
(-3.1392381e+90 1.7439248e+89 5.3123431e+88)
(-3.0722759e+90 1.3088512e+89 -1.8523502e+89)
(-3.1674532e+90 8.9656716e+88 4.580824e+88)
(-3.1543275e+90 1.0785249e+89 -1.5044326e+89)
(-3.1452318e+90 1.4969493e+89 -1.6346603e+89)
(-3.1776002e+90 1.9034775e+89 1.1047901e+89)
(-3.2136307e+90 9.8800748e+88 1.0647288e+89)
(-3.0931711e+90 1.0094389e+89 -1.818539e+89)
(-3.1515458e+90 1.6665934e+89 3.7593577e+88)
(-3.0704995e+90 1.4950281e+89 -1.8864107e+89)
(-3.1642103e+90 1.0568505e+89 3.5494735e+88)
(-3.3454381e+90 1.9836819e+89 4.0051432e+89)
(-3.2958371e+90 1.9474067e+89 3.7616284e+89)