/*--------------------------------*- C++ -*----------------------------------*\
  =========                 |
  \\      /  F ield         | OpenFOAM: The Open Source CFD Toolbox
   \\    /   O peration     | Website:  https://openfoam.org
    \\  /    A nd           | Version:  7
     \\/     M anipulation  |
\*---------------------------------------------------------------------------*/
FoamFile
{
    version     2.0;
    format      ascii;
    class       volVectorField;
    location    "2000";
    object      UMean;
}
// * * * * * * * * * * * * * * * * * * * * * * * * * * * * * * * * * * * * * //

dimensions      [0 1 -1 0 0 0 0];

internalField   nonuniform List<vector> 
33943
(
(-2.5743745e+88 2.1044465e+87 2.0732013e+87)
(-2.3928853e+88 1.2197227e+87 3.3899623e+87)
(-2.6576514e+88 1.0642079e+87 2.6176741e+87)
(-2.6451005e+88 7.1122342e+86 1.7468429e+87)
(-3.0097835e+88 1.6456226e+87 7.859795e+86)
(-2.4399725e+88 3.7189581e+87 -5.5067173e+86)
(-1.84595e+88 1.6223164e+87 -1.3799283e+86)
(-2.5755556e+88 1.8976028e+87 2.2855995e+87)
(-2.4099295e+88 1.1737713e+87 3.4253072e+87)
(-2.4385571e+88 1.781621e+87 3.1869182e+87)
(-2.6813638e+88 1.1530189e+87 2.6173398e+87)
(-2.7127926e+88 8.0608253e+86 2.5564772e+87)
(-2.0273191e+88 7.6854312e+86 2.6316426e+87)
(-2.5149956e+88 9.6349703e+86 2.8629983e+87)
(-2.5344131e+88 3.1693731e+86 2.8300305e+87)
(-2.0442628e+88 7.6809133e+86 2.4606072e+87)
(-2.6804151e+88 4.315043e+86 -6.5369825e+86)
(-2.7862512e+88 7.6724652e+86 9.0112008e+86)
(-2.646898e+88 4.5640074e+86 1.5725373e+87)
(-2.6577926e+88 8.6326847e+86 1.7855023e+87)
(-3.3792616e+88 1.6500078e+87 2.1925767e+87)
(-2.4057082e+88 2.1762619e+85 1.7164358e+87)
(-2.4123428e+88 5.6013279e+86 1.8178985e+87)
(-3.0434381e+88 1.9111879e+87 8.5345993e+86)
(-2.181007e+88 7.8821079e+86 -6.1415214e+86)
(-1.9388983e+88 6.9182659e+86 -1.6287634e+87)
(-2.0703938e+88 2.615654e+86 -1.2497246e+87)
(-2.1918212e+88 6.1334149e+86 -3.5000599e+86)
(-2.4831147e+88 3.2848524e+87 -3.9957332e+86)
(-2.4085995e+88 1.2395933e+87 -2.9822914e+87)
(-2.4145315e+88 1.8151216e+87 -3.0047483e+87)
(-1.8683924e+88 1.5610392e+87 -6.3346133e+85)
(-1.8913678e+88 2.820116e+87 -4.3716994e+85)
(-2.2077616e+88 6.7817861e+86 -2.7579535e+87)
(-2.3273965e+88 7.939915e+86 -2.4133835e+87)
(-1.7851007e+88 5.9070513e+86 -3.4296402e+87)
(-1.8056883e+88 6.5148157e+86 -3.4339943e+87)
(-1.3454975e+88 8.974236e+86 1.2960637e+86)
(-1.3750396e+88 1.5999823e+87 1.2357033e+86)
(-2.4578228e+88 1.262127e+87 3.5802832e+87)
(-2.4908396e+88 1.8582295e+87 3.4420223e+87)
(-2.689107e+88 1.2139891e+87 2.731617e+87)
(-2.7537461e+88 9.1492313e+86 2.8489099e+87)
(-2.0469573e+88 8.0994554e+86 2.6442222e+87)
(-2.0610147e+88 8.3954033e+86 2.5332415e+87)
(-2.5452807e+88 4.2230351e+86 2.8484698e+87)
(-2.5108253e+88 1.0730101e+87 2.8279954e+87)
(-2.0357863e+88 7.8734271e+86 2.498747e+87)
(-2.0497233e+88 9.2386286e+86 2.4854973e+87)
(-2.5364105e+88 9.0615188e+86 2.6514547e+87)
(-2.5473398e+88 4.1805799e+86 2.6683847e+87)
(-1.7302743e+88 4.0840741e+86 1.9489756e+87)
(-2.2405647e+88 2.3878969e+86 2.5150563e+87)
(-1.7172385e+88 4.7331357e+86 2.0733515e+87)
(-2.2134562e+88 6.7815279e+86 2.5103278e+87)
(-1.6980132e+88 3.4207975e+86 1.8393653e+87)
(-1.7293358e+88 4.4022476e+86 1.9878244e+87)
(-2.2135017e+88 4.5173398e+86 2.3075426e+87)
(-2.2355693e+88 1.4920742e+86 2.4351056e+87)
(-3.4642373e+88 1.2668227e+87 6.404682e+86)
(-2.7067337e+88 5.3190916e+86 -6.5558892e+86)
(-2.8021881e+88 8.7013564e+86 9.3919388e+86)
(-2.696108e+88 3.1483068e+86 -7.798423e+86)
(-2.8089051e+88 3.9843924e+86 7.8723882e+86)
(-2.4998745e+88 3.698462e+86 -4.6220658e+86)
(-2.4387919e+88 2.1889457e+86 -1.0898235e+87)
(-2.4892824e+88 9.3802453e+85 -5.1713487e+86)
(-2.417656e+88 3.6804806e+85 -1.125513e+87)
(-2.5308584e+88 5.6064029e+86 1.3551468e+87)
(-2.4631202e+88 3.715301e+86 2.892705e+85)
(-2.5365385e+88 1.1543151e+86 1.3141226e+87)
(-2.4475846e+88 9.0399401e+85 -4.8795873e+85)
(-2.4161119e+88 5.9968125e+86 1.6711741e+87)
(-2.4178237e+88 1.4123667e+86 1.6847841e+87)
(-2.4134719e+88 7.0600319e+86 1.873999e+87)
(-2.4077818e+88 1.3913209e+86 1.7244329e+87)
(-2.6646053e+88 5.5442701e+86 1.7989871e+87)
(-3.4011537e+88 1.7453973e+87 2.2107063e+87)
(-2.664458e+88 9.1450967e+86 1.9034613e+87)
(-2.2557186e+88 3.4452846e+86 5.3844339e+85)
(-2.2665168e+88 5.4296437e+86 1.33792e+86)
(-2.1751318e+88 4.3956356e+86 -4.7879933e+85)
(-2.1037769e+88 2.3063254e+86 1.7270045e+85)
(-2.0990847e+88 3.1047312e+86 1.50277e+87)
(-2.1061553e+88 -2.8877547e+85 1.5643307e+87)
(-2.1095625e+88 4.3096557e+86 1.6920229e+87)
(-2.1137396e+88 1.2214091e+85 1.5906019e+87)
(-2.1737725e+88 6.9021443e+86 -4.6289183e+86)
(-2.0864283e+88 2.9349037e+85 -9.6181897e+86)
(-1.9948607e+88 -1.1337762e+86 -1.5188198e+87)
(-2.0888234e+88 7.0610221e+86 -1.4374702e+87)
(-2.0245497e+88 9.9563779e+86 -7.9516492e+86)
(-2.092865e+88 1.8018879e+87 -1.4650439e+87)
(-1.9810467e+88 1.1583788e+87 -1.0792056e+87)
(-2.0730664e+88 9.4185678e+86 -6.3023204e+86)
(-2.4582396e+88 1.1102396e+87 -3.0205167e+87)
(-2.4601151e+88 1.8752828e+87 -2.9916744e+87)
(-1.92514e+88 1.4393838e+87 4.1463727e+85)
(-1.929917e+88 2.7403194e+87 1.1436453e+86)
(-2.3781475e+88 4.5089193e+86 -2.4346528e+87)
(-2.3502015e+88 9.2700623e+86 -2.3770424e+87)
(-2.235706e+88 8.1210901e+86 -2.7277907e+87)
(-2.2442678e+88 7.2245811e+86 -2.6148214e+87)
(-2.3441846e+88 7.5918404e+86 -2.333366e+87)
(-2.2249139e+88 6.7466121e+86 -2.6791993e+87)
(-2.2264298e+88 7.1849797e+86 -2.6509275e+87)
(-2.3571975e+88 3.9675126e+86 -2.3691301e+87)
(-1.8213366e+88 7.8238171e+86 -3.4098864e+87)
(-1.8413891e+88 9.364532e+86 -3.388931e+87)
(-1.3823331e+88 1.6786495e+87 1.9348941e+86)
(-1.3534909e+88 9.1507614e+86 9.6779245e+85)
(-1.8202535e+88 6.5425535e+86 -3.3989609e+87)
(-1.8222917e+88 9.2213908e+86 -3.403134e+87)
(-1.3613755e+88 1.7288825e+87 4.8581291e+85)
(-1.3573089e+88 9.3846977e+86 6.7237567e+85)
(-2.3532387e+88 6.1121442e+86 -3.1095556e+87)
(-2.302138e+88 4.8105585e+86 -1.8793023e+87)
(-1.9114838e+88 7.9617874e+85 -3.1371543e+87)
(-1.8929699e+88 4.4177947e+86 -3.1061209e+87)
(-1.5761512e+88 4.6371796e+86 -3.7211494e+87)
(-1.5930432e+88 2.475984e+86 -3.6765737e+87)
(-1.8929617e+88 2.3085525e+86 -3.015562e+87)
(-1.5766143e+88 2.9080181e+86 -3.6236493e+87)
(-1.0782227e+88 3.5707578e+86 -3.2835895e+87)
(-1.0948206e+88 2.8326821e+86 -3.3073615e+87)
(-9.5548509e+87 3.2084932e+86 9.0287263e+86)
(-9.7008837e+87 7.1649291e+86 8.2038358e+86)
(-1.076242e+88 1.8503063e+86 -3.2314155e+87)
(-9.3761876e+87 2.0372473e+86 7.1026437e+86)
(-9.6014994e+87 7.8759124e+86 7.1886471e+86)
(-2.7386574e+88 9.4888528e+86 2.6647925e+87)
(-2.1104538e+88 9.6958048e+86 2.707009e+87)
(-2.088411e+88 9.2590568e+86 2.7700691e+87)
(-2.5296953e+88 1.1103015e+87 2.9365408e+87)
(-2.5742298e+88 4.6944792e+86 3.0182116e+87)
(-2.0835081e+88 9.9195739e+86 2.6194686e+87)
(-2.5857134e+88 5.3523369e+86 2.8783008e+87)
(-2.0877811e+88 8.8987324e+86 2.6940969e+87)
(-2.5878288e+88 9.9425844e+86 2.970382e+87)
(-1.7325115e+88 4.8650719e+86 2.0818102e+87)
(-1.7379736e+88 4.184838e+86 1.9377682e+87)
(-2.2263202e+88 7.6227307e+86 2.5353074e+87)
(-2.2373829e+88 3.0130727e+86 2.4728254e+87)
(-1.7256937e+88 4.332865e+86 1.9735444e+87)
(-1.7290738e+88 4.9477098e+86 1.9557974e+87)
(-2.2429817e+88 5.5442916e+86 2.4300253e+87)
(-2.231769e+88 2.3936408e+86 2.3314115e+87)
(-1.7150768e+88 4.770221e+86 1.9804837e+87)
(-1.7294435e+88 4.8226274e+86 1.8756473e+87)
(-2.2196651e+88 7.0545929e+86 2.3635835e+87)
(-2.2335655e+88 3.197326e+86 2.3150691e+87)
(-1.7301107e+88 5.2083812e+86 1.9891556e+87)
(-1.7367011e+88 5.5380496e+86 1.9969748e+87)
(-2.2320515e+88 2.5131961e+86 2.3699441e+87)
(-2.2329521e+88 5.9932392e+86 2.3783721e+87)
(-1.4934258e+88 2.5427508e+86 1.8412054e+87)
(-1.5053077e+88 3.1588526e+86 1.8902472e+87)
(-1.9240904e+88 2.9281637e+86 2.2371002e+87)
(-1.9267393e+88 1.1035158e+86 2.2479871e+87)
(-1.4971996e+88 3.0554918e+86 1.9636685e+87)
(-1.507006e+88 2.9034019e+86 1.8878543e+87)
(-1.9098253e+88 4.775133e+86 2.3425245e+87)
(-1.923226e+88 2.0061487e+86 2.320227e+87)
(-1.4638378e+88 1.9732945e+86 1.7443553e+87)
(-1.4842465e+88 2.1608387e+86 1.7376217e+87)
(-1.8951396e+88 3.614437e+86 2.153448e+87)
(-1.9089782e+88 1.3540743e+86 2.1533711e+87)
(-1.9115889e+88 2.5655173e+86 2.2179164e+87)
(-1.4840981e+88 2.2175148e+86 1.8200864e+87)
(-1.4892298e+88 2.8719119e+86 1.8499163e+87)
(-1.9109144e+88 7.1970745e+85 2.2329976e+87)
(-3.4938199e+88 1.309434e+87 6.6767691e+86)
(-2.8332729e+88 4.6664617e+86 9.0063329e+86)
(-2.7158403e+88 6.0833737e+86 -5.9444633e+86)
(-2.7106109e+88 3.8266162e+86 -7.4196915e+86)
(-2.2924075e+88 2.8601719e+86 -1.226464e+86)
(-2.2541821e+88 3.6305246e+86 -2.1199423e+86)
(-2.301912e+88 5.3705415e+86 -1.8037145e+86)
(-2.3149515e+88 5.5698309e+86 4.550556e+83)
(-2.8119663e+88 9.1691744e+86 9.6749091e+86)
(-2.4421688e+88 3.4972014e+86 -9.9961527e+86)
(-2.4311854e+88 1.255788e+86 -1.1580322e+87)
(-2.4726971e+88 1.7521185e+86 -6.2141259e+86)
(-2.5009876e+88 4.9971715e+86 -4.1152307e+86)
(-2.4689441e+88 5.1008064e+86 9.704661e+85)
(-2.5228473e+88 6.6850688e+86 1.3649585e+87)
(-2.5330455e+88 2.1131057e+86 1.2961009e+87)
(-2.4462932e+88 1.7426178e+86 -8.1041434e+85)
(-2.5134572e+88 1.4172361e+86 -5.4689274e+86)
(-2.4319138e+88 7.2000048e+85 -1.1690832e+87)
(-2.4397556e+88 1.7080658e+86 -1.1432893e+87)
(-2.4978982e+88 3.1478479e+86 -5.8734303e+86)
(-2.5584802e+88 1.8474029e+86 1.3191042e+87)
(-2.5381615e+88 5.724001e+86 1.2487256e+87)
(-2.4599375e+88 3.7130466e+86 -9.6241195e+85)
(-2.4667371e+88 1.8397604e+86 -7.7007996e+85)
(-2.1435688e+88 2.0172846e+86 -4.9283701e+86)
(-2.121675e+88 1.0186592e+86 -8.256344e+86)
(-2.1184691e+88 1.4407268e+86 -8.0919675e+86)
(-2.1502808e+88 9.0953523e+85 -5.1164664e+86)
(-2.1724711e+88 9.6746847e+85 -8.3581558e+86)
(-2.1656047e+88 1.4872829e+86 -8.2765535e+86)
(-2.1522924e+88 7.8849154e+85 -9.939131e+86)
(-2.1603905e+88 9.5522025e+85 -9.8602125e+86)
(-2.1300309e+88 1.0836661e+86 -5.846514e+86)
(-2.1019209e+88 8.2661723e+85 -8.760526e+86)
(-2.0954556e+88 4.6552619e+85 -9.2416596e+86)
(-2.1336148e+88 5.1639927e+85 -5.521366e+86)
(-2.1515307e+88 6.226216e+85 -8.7599866e+86)
(-2.1454128e+88 4.8724507e+85 -9.2493357e+86)
(-2.2373098e+88 7.1619478e+85 1.6410804e+87)
(-2.1525305e+88 3.3227713e+86 7.2876346e+86)
(-2.1519191e+88 4.3779823e+85 6.5295023e+86)
(-2.2246848e+88 4.5370551e+86 1.6899464e+87)
(-2.1195394e+88 7.7717723e+85 -3.8934661e+86)
(-2.1797264e+88 3.2408085e+86 2.7747326e+86)
(-2.114915e+88 2.1422498e+86 -3.4953877e+86)
(-2.1850475e+88 7.2692745e+85 2.230343e+86)
(-2.1341828e+88 2.1561122e+86 5.8303686e+86)
(-2.220239e+88 3.1810375e+86 1.5679192e+87)
(-2.234027e+88 -5.6794547e+84 1.6270825e+87)
(-2.1369248e+88 1.9422286e+85 5.9636676e+86)
(-2.1740624e+88 2.4187984e+85 1.7671742e+86)
(-2.097841e+88 1.1319342e+86 -4.6133719e+86)
(-2.1686201e+88 1.9866986e+86 1.5986464e+86)
(-2.1001986e+88 5.0410149e+85 -4.427954e+86)
(-2.1141724e+88 1.0917484e+86 1.500803e+87)
(-2.1119959e+88 4.6515772e+86 1.5773487e+87)
(-2.1146524e+88 9.0308968e+85 1.6123563e+87)
(-2.1208994e+88 4.6325604e+86 1.6014833e+87)
(-2.1201055e+88 1.0851954e+86 1.6115493e+87)
(-2.4526447e+88 3.0168488e+86 1.8601409e+87)
(-2.1143116e+88 5.4873463e+86 1.7039793e+87)
(-2.1089017e+88 9.9616154e+85 1.5287731e+87)
(-2.1213117e+88 4.3276991e+86 1.5603384e+87)
(-2.4545527e+88 7.2466464e+86 1.8582997e+87)
(-2.680509e+88 6.4221869e+86 1.7374613e+87)
(-2.2947018e+88 5.985829e+86 2.0210761e+86)
(-2.0751296e+88 8.5712857e+85 5.064608e+85)
(-2.1153367e+88 2.7307032e+86 1.5082437e+86)
(-2.2488775e+88 6.1579294e+86 5.9851745e+85)
(-2.4422292e+88 2.2518172e+86 1.9121424e+87)
(-2.4336994e+88 7.7916911e+86 2.0098293e+87)
(-2.1054432e+88 8.075903e+86 -1.0386819e+86)
(-2.1339459e+88 7.6199786e+86 -6.500756e+85)
(-2.0882569e+88 6.7524715e+86 -3.1059805e+86)
(-2.0255258e+88 5.4826046e+86 -3.853502e+86)
(-1.7952264e+88 2.1883848e+86 1.5820219e+87)
(-1.8012892e+88 -1.4223428e+85 1.5376557e+87)
(-1.8102328e+88 2.0453586e+86 1.6160958e+87)
(-1.8047263e+88 -5.0379571e+85 1.6254551e+87)
(-1.8129561e+88 3.2362078e+86 1.7526322e+87)
(-1.8175421e+88 2.587843e+85 1.6835398e+87)
(-1.8219262e+88 2.1661465e+86 1.6099536e+87)
(-1.8185811e+88 -1.4750431e+85 1.6203248e+87)
(-1.9165199e+88 2.7004493e+86 -1.160834e+87)
(-1.7507961e+88 -5.8562858e+86 -1.3954979e+87)
(-1.8431254e+88 -3.3526277e+86 -1.8973256e+87)
(-2.0588283e+88 1.0618973e+87 -1.7327998e+87)
(-1.9493232e+88 7.9744513e+86 -6.9046856e+86)
(-2.1448965e+88 1.3829864e+87 -7.0821944e+86)
(-2.1718796e+88 1.3316516e+87 -7.7294738e+86)
(-1.9759191e+88 7.6407139e+86 -6.7492689e+86)
(-2.7799393e+88 1.1754024e+87 -2.4565399e+87)
(-2.750022e+88 9.905205e+86 -2.4174892e+87)
(-2.7881589e+88 7.9685951e+86 -1.3715282e+87)
(-2.3828092e+88 8.8916457e+86 -2.3812749e+87)
(-2.4139479e+88 4.383635e+86 -2.4356382e+87)
(-2.2781081e+88 7.5918209e+86 -2.6748757e+87)
(-2.2661468e+88 7.7237742e+86 -2.7612842e+87)
(-2.3805232e+88 8.0378432e+86 -2.358313e+87)
(-2.3928507e+88 4.8105142e+86 -2.3593803e+87)
(-2.2601499e+88 8.2273724e+86 -2.696637e+87)
(-2.2556302e+88 7.3587053e+86 -2.6859614e+87)
(-1.855143e+88 8.1400144e+86 -3.4815127e+87)
(-1.8740763e+88 1.0327955e+87 -3.4481644e+87)
(-1.4001243e+88 9.8718396e+86 1.5325476e+86)
(-1.4193369e+88 1.7655455e+87 2.5722378e+86)
(-1.852328e+88 7.7220015e+86 -3.4196766e+87)
(-1.8544196e+88 1.062929e+87 -3.4260375e+87)
(-1.3905918e+88 9.5374088e+86 1.8387937e+86)
(-1.3773178e+88 1.7453573e+87 5.8982362e+85)
(-2.3322439e+88 2.0621759e+86 -1.8264817e+87)
(-2.32385e+88 6.6292672e+86 -1.8689932e+87)
(-2.3818999e+88 7.2869057e+86 -3.0862996e+87)
(-2.3803009e+88 5.659611e+86 -2.9676259e+87)
(-2.3212899e+88 5.5938037e+86 -1.8383088e+87)
(-2.3687563e+88 6.7090235e+86 -3.0684114e+87)
(-2.3621852e+88 5.1304234e+86 -3.0093884e+87)
(-2.3176385e+88 1.0154417e+86 -1.8294378e+87)
(-1.9134051e+88 6.1611406e+86 -3.0903602e+87)
(-1.9261411e+88 2.7502098e+86 -3.0937936e+87)
(-1.6109769e+88 4.3974413e+86 -3.6370598e+87)
(-1.6025289e+88 6.0886605e+86 -3.6944658e+87)
(-1.5994399e+88 4.872548e+86 -3.5941467e+87)
(-1.9123972e+88 4.6227317e+86 -2.9932655e+87)
(-1.9156562e+88 2.4361786e+86 -3.0161898e+87)
(-1.6015252e+88 4.5238056e+86 -3.6193211e+87)
(-1.1062176e+88 5.4208221e+86 -3.2383082e+87)
(-9.4982251e+87 3.184632e+86 7.9202869e+86)
(-9.5013084e+87 8.6914658e+86 7.0825602e+86)
(-1.1024516e+88 4.2296209e+86 -3.1869698e+87)
(-1.0993524e+88 5.3111756e+86 -3.2644721e+87)
(-1.1137636e+88 5.3023912e+86 -3.2503084e+87)
(-9.4400452e+87 3.1419756e+86 7.7231327e+86)
(-9.598297e+87 8.0483318e+86 7.8817829e+86)
(-1.9054093e+88 5.1880422e+86 -3.0733191e+87)
(-1.9204709e+88 2.0318316e+86 -3.0965344e+87)
(-1.5940191e+88 5.3453017e+86 -3.6824868e+87)
(-1.6076734e+88 3.7737887e+86 -3.6400666e+87)
(-1.5880615e+88 4.3634465e+86 -3.6134847e+87)
(-1.9016817e+88 3.9904934e+86 -3.0105948e+87)
(-1.908911e+88 1.9181781e+86 -3.0446082e+87)
(-1.59531e+88 4.0622207e+86 -3.6525139e+87)
(-1.0959375e+88 3.816572e+86 -3.2054815e+87)
(-1.1007368e+88 4.8899088e+86 -3.2777759e+87)
(-9.605916e+87 3.9238451e+86 8.0484463e+86)
(-9.6073072e+87 8.9838899e+86 7.3212976e+86)
(-1.0946543e+88 4.5375795e+86 -3.2655754e+87)
(-1.1163886e+88 4.7420827e+86 -3.2675673e+87)
(-9.4851762e+87 3.481903e+86 7.6242448e+86)
(-9.7572165e+87 8.6451734e+86 7.9796293e+86)
(-2.4133074e+88 4.2793444e+86 -2.5709809e+87)
(-1.911351e+88 3.5629004e+86 -3.2263388e+87)
(-1.9197953e+88 -3.1219483e+85 -3.1918657e+87)
(-2.4047065e+88 3.9487771e+86 -1.3771079e+87)
(-2.4528861e+88 9.2174834e+85 -1.4968333e+87)
(-2.4115274e+88 2.4430712e+86 -2.4269371e+87)
(-1.9069713e+88 2.1740332e+86 -3.1097197e+87)
(-1.6544638e+88 3.6883398e+86 -3.9706287e+87)
(-1.6649361e+88 2.2066466e+86 -3.916935e+87)
(-1.6498931e+88 2.6069989e+86 -3.8691224e+87)
(-1.1447529e+88 2.2964456e+86 -3.399129e+87)
(-1.1484881e+88 6.7588821e+85 -3.3645008e+87)
(-8.0862333e+87 9.2881038e+85 -3.694825e+87)
(-8.0030904e+87 2.6615009e+86 -3.7805097e+87)
(-8.0394163e+87 1.38063e+86 -3.7100238e+87)
(-1.1567213e+88 1.0295805e+84 -3.3672278e+87)
(-1.1531155e+88 1.0841319e+86 -3.333032e+87)
(-8.1904519e+87 6.904018e+85 -3.7219021e+87)
(-9.269833e+87 6.2402915e+85 1.327799e+87)
(-9.468387e+87 2.3758726e+86 1.408917e+87)
(-6.3363437e+87 3.6166772e+86 -1.1225057e+87)
(-6.5228327e+87 2.9196801e+86 -1.0282038e+87)
(-6.4444526e+87 2.8940151e+86 -1.0493205e+87)
(-9.2820513e+87 3.8541711e+85 1.2847124e+87)
(-6.4384227e+87 2.7176193e+86 -1.2388938e+87)
(-9.2636047e+87 2.4214763e+86 1.2314012e+87)
(-1.138897e+88 1.0690011e+86 -3.3195857e+87)
(-1.1447055e+88 -1.8493648e+85 -3.2910473e+87)
(-7.926367e+87 1.4095569e+86 -3.7254172e+87)
(-8.0860629e+87 4.2157861e+85 -3.6358384e+87)
(-6.2866811e+87 2.3457079e+86 -1.1087916e+87)
(-9.0189423e+87 -9.4101607e+85 1.1525769e+87)
(-6.538165e+87 2.6521767e+86 -1.0077439e+87)
(-9.3522655e+87 1.5807336e+86 1.3049734e+87)
(-6.4570995e+87 2.7804418e+86 -9.7293972e+86)
(-9.2640429e+87 1.8440988e+85 1.2707056e+87)
(-2.1132899e+88 9.9827471e+86 2.581929e+87)
(-2.5700098e+88 4.8888537e+86 2.7097741e+87)
(-1.7718141e+88 5.5687118e+86 2.0836674e+87)
(-2.2663648e+88 6.4467032e+86 2.5350271e+87)
(-1.7842552e+88 6.2955596e+86 2.1456542e+87)
(-2.2699415e+88 3.1047377e+86 2.547412e+87)
(-1.780671e+88 5.439875e+86 2.0565662e+87)
(-2.2631832e+88 3.7232041e+86 2.5969019e+87)
(-1.7776457e+88 5.9318952e+86 2.1842897e+87)
(-2.2487308e+88 8.4594477e+86 2.6313563e+87)
(-1.7648445e+88 6.1453428e+86 2.1051737e+87)
(-1.756497e+88 5.99836e+86 2.0734854e+87)
(-2.2658043e+88 7.1482179e+86 2.5653932e+87)
(-2.2599273e+88 3.1049533e+86 2.5319408e+87)
(-1.7616155e+88 5.826438e+86 2.1392698e+87)
(-2.2607294e+88 7.9278924e+86 2.5973642e+87)
(-1.7667987e+88 6.1643508e+86 2.0153229e+87)
(-2.2714457e+88 4.3480973e+86 2.5311082e+87)
(-1.5091531e+88 3.30063e+86 1.9957837e+87)
(-1.5096122e+88 2.9956725e+86 1.8890579e+87)
(-1.9264655e+88 5.2061698e+86 2.3672332e+87)
(-1.9352024e+88 2.7202414e+86 2.3266094e+87)
(-1.5037405e+88 2.8052489e+86 1.8643805e+87)
(-1.5104065e+88 3.2889548e+86 1.911209e+87)
(-1.9300912e+88 3.7245134e+86 2.2352385e+87)
(-1.929765e+88 1.5753397e+86 2.2515878e+87)
(-1.9173759e+88 4.3691704e+86 2.2593392e+87)
(-1.4874049e+88 2.5162446e+86 1.8877232e+87)
(-1.4978493e+88 3.0936381e+86 1.8374163e+87)
(-1.9273704e+88 2.3457983e+86 2.2380598e+87)
(-1.4974112e+88 3.2963004e+86 1.8718969e+87)
(-1.5019314e+88 4.0142738e+86 1.9071896e+87)
(-1.9163158e+88 1.8118387e+86 2.2150203e+87)
(-1.9193987e+88 3.764382e+86 2.2091325e+87)
(-1.4877836e+88 3.2347215e+86 1.9133545e+87)
(-1.4972527e+88 3.0402112e+86 1.8340476e+87)
(-1.9196448e+88 2.3533826e+86 2.242906e+87)
(-1.9060355e+88 4.9346462e+86 2.257477e+87)
(-1.4959484e+88 3.1388406e+86 1.838919e+87)
(-1.5023969e+88 4.0059417e+86 1.8613497e+87)
(-1.9203073e+88 1.9769886e+86 2.1615074e+87)
(-1.9203483e+88 3.6678894e+86 2.1503751e+87)
(-1.4939401e+88 3.4502292e+86 1.8941931e+87)
(-1.50622e+88 3.6652447e+86 1.8309585e+87)
(-1.9263703e+88 2.7599793e+86 2.2322805e+87)
(-1.9153774e+88 4.8695846e+86 2.248849e+87)
(-1.5053554e+88 3.8251073e+86 1.8995025e+87)
(-1.5118787e+88 4.2700973e+86 1.9275043e+87)
(-1.9234521e+88 1.9816213e+86 2.2647072e+87)
(-1.9238398e+88 4.0106869e+86 2.2543421e+87)
(-1.2961259e+88 2.3156423e+86 1.8271066e+87)
(-1.2913641e+88 9.4680122e+85 1.8971598e+87)
(-1.6704737e+88 2.4930341e+86 1.9503164e+87)
(-1.6779205e+88 1.032792e+86 1.9558792e+87)
(-1.2896744e+88 1.3885727e+86 1.8656076e+87)
(-1.2960791e+88 2.9695345e+86 1.9000494e+87)
(-1.6752352e+88 4.2378112e+85 2.001619e+87)
(-1.6767775e+88 1.8514867e+86 2.0102186e+87)
(-1.6714039e+88 3.484096e+86 2.1246237e+87)
(-1.3072152e+88 1.7212674e+86 2.0241183e+87)
(-1.301091e+88 2.481621e+86 1.8801836e+87)
(-1.6757086e+88 1.3638829e+86 2.0827979e+87)
(-1.3022436e+88 2.8721736e+86 1.9145223e+87)
(-1.2944346e+88 1.3236118e+86 1.8798834e+87)
(-1.6796631e+88 1.9385663e+86 2.0251599e+87)
(-1.6815004e+88 7.0782869e+85 2.0254884e+87)
(-1.2770374e+88 9.4777303e+85 1.8978702e+87)
(-1.2773163e+88 2.0963085e+86 1.80069e+87)
(-1.6465542e+88 2.4931188e+86 1.9479136e+87)
(-1.65764e+88 7.0860534e+85 1.9802858e+87)
(-1.6570953e+88 1.3771246e+86 1.8738932e+87)
(-1.2697521e+88 7.0181437e+85 1.7624986e+87)
(-1.2820237e+88 2.5220363e+86 1.8376429e+87)
(-1.6637138e+88 3.5015208e+85 1.9263176e+87)
(-1.2858133e+88 2.2601209e+86 1.8159922e+87)
(-1.279118e+88 6.295219e+85 1.8715465e+87)
(-1.6577979e+88 2.2866661e+86 1.9382517e+87)
(-1.6669941e+88 9.0633084e+85 1.9821196e+87)
(-1.2820937e+88 2.260414e+86 1.8785905e+87)
(-1.276733e+88 1.2037223e+86 1.8257174e+87)
(-1.6589497e+88 1.6185468e+86 1.9755297e+87)
(-1.658817e+88 -4.4388101e+84 1.9802734e+87)
(-2.7038766e+88 4.2916947e+86 -7.9149417e+86)
(-2.3492393e+88 5.5184977e+86 -7.6559669e+85)
(-2.3003134e+88 5.6485851e+86 -9.7348794e+85)
(-2.2635748e+88 5.8509777e+86 -1.8903482e+86)
(-2.2707036e+88 5.4994816e+86 -2.3589893e+86)
(-2.8395443e+88 5.3773417e+86 8.3761976e+86)
(-2.5754414e+88 6.581142e+86 1.4069724e+87)
(-2.5935037e+88 2.9728634e+86 1.4931425e+87)
(-2.4884661e+88 3.1577889e+86 -2.1335892e+85)
(-2.4831086e+88 4.520625e+86 -5.4845402e+85)
(-2.4564768e+88 4.3758061e+86 -9.2851507e+86)
(-2.5260392e+88 2.6557999e+86 -4.5991599e+86)
(-2.4499365e+88 2.1655161e+86 -1.10189e+87)
(-2.5136831e+88 5.6318599e+86 -3.6224083e+86)
(-2.4558736e+88 2.983739e+86 -1.1216354e+87)
(-2.5297846e+88 2.543581e+86 -5.0350689e+86)
(-2.4458397e+88 1.9920341e+86 -1.1374072e+87)
(-2.51894e+88 4.279914e+86 -5.5469887e+86)
(-2.1486705e+88 7.41957e+86 -7.9586053e+85)
(-2.1440219e+88 8.6720243e+86 -7.3749063e+85)
(-2.1964134e+88 8.9750882e+86 -1.0047435e+86)
(-2.1980049e+88 8.3366099e+86 -4.2742255e+85)
(-2.4890156e+88 5.7678315e+86 1.70613e+86)
(-2.5680056e+88 2.7503672e+86 1.426637e+87)
(-2.5380825e+88 7.2468026e+86 1.4411817e+87)
(-2.4850046e+88 2.5998727e+86 3.7538481e+85)
(-2.1587473e+88 1.7987556e+86 -9.748928e+86)
(-2.1483168e+88 1.986978e+86 -9.1231122e+86)
(-2.1676263e+88 2.672784e+86 -7.4816569e+86)
(-2.1783272e+88 1.9173136e+86 -8.0108613e+86)
(-2.1468272e+88 7.3692408e+85 -1.049865e+87)
(-2.1436582e+88 1.2984592e+86 -1.0248434e+87)
(-2.1473933e+88 1.1231651e+86 -9.639353e+86)
(-2.1463477e+88 1.3206448e+86 -9.30427e+86)
(-2.1347695e+88 1.7097468e+86 -6.2954761e+86)
(-2.1072755e+88 1.1992765e+86 -9.1264212e+86)
(-2.1061299e+88 1.6121464e+86 -8.8738481e+86)
(-2.1332661e+88 1.498292e+86 -6.060008e+86)
(-2.1277534e+88 1.8152492e+86 -8.0714051e+86)
(-2.1223193e+88 2.5991952e+86 -7.4100401e+86)
(-2.1416573e+88 3.0093296e+86 -4.8860937e+86)
(-2.1543117e+88 1.7074419e+86 -5.1749965e+86)
(-2.1176337e+88 3.2053058e+86 -3.238607e+86)
(-2.124698e+88 1.5058658e+86 -3.7424608e+86)
(-2.1896442e+88 1.5074872e+86 2.4388599e+86)
(-2.1777237e+88 4.202811e+86 2.8266047e+86)
(-2.2234578e+88 5.3984973e+86 1.6806522e+87)
(-2.158104e+88 1.1461673e+86 6.9863421e+86)
(-2.1551787e+88 4.413608e+86 7.7421852e+86)
(-2.2391835e+88 1.5213591e+86 1.655491e+87)
(-2.2423983e+88 4.2639614e+86 1.6122504e+87)
(-2.1413981e+88 1.297665e+86 5.8984252e+86)
(-2.1452079e+88 3.0268999e+86 5.7395961e+86)
(-2.2325788e+88 1.1280597e+86 1.5961982e+87)
(-2.1767884e+88 2.6588703e+86 1.1960108e+86)
(-2.104742e+88 1.5480602e+86 -4.7409352e+86)
(-2.1074956e+88 1.8299037e+86 -4.9066081e+86)
(-2.1755897e+88 1.3256556e+86 1.3981206e+86)
(-2.1154761e+88 1.5057718e+86 -8.5252826e+86)
(-2.1101155e+88 1.223259e+86 -8.8937731e+86)
(-2.1456882e+88 1.9727576e+86 -5.5935687e+86)
(-2.1484425e+88 1.322941e+86 -5.3274544e+86)
(-2.1670347e+88 1.2080018e+86 -8.6018286e+86)
(-2.1612749e+88 1.1953669e+86 -8.8932557e+86)
(-2.1392459e+88 5.3277266e+85 -1.0582357e+87)
(-2.1504451e+88 1.1771692e+86 -1.0118657e+87)
(-2.1610371e+88 1.5061943e+86 -8.4599656e+86)
(-2.1460159e+88 1.1767231e+86 -1.0437621e+87)
(-2.1406403e+88 7.6625973e+85 -1.0223594e+87)
(-2.1652974e+88 1.2468335e+86 -8.7946639e+86)
(-2.1369967e+88 2.1060249e+86 -5.7772967e+86)
(-2.1159478e+88 1.419008e+86 -8.84232e+86)
(-2.1118557e+88 1.5705038e+86 -8.4356688e+86)
(-2.1421342e+88 1.3445283e+86 -6.0877847e+86)
(-2.1509629e+88 1.3049099e+86 6.558698e+86)
(-2.1498452e+88 3.5784697e+86 6.3409963e+86)
(-2.2400416e+88 4.6385437e+86 1.6321763e+87)
(-2.238498e+88 1.0301134e+86 1.6493173e+87)
(-2.1461823e+88 1.3586808e+86 5.6713254e+86)
(-2.1440765e+88 3.5511062e+86 6.2494155e+86)
(-2.2275319e+88 4.8767951e+86 1.5990504e+87)
(-2.2351086e+88 1.6317579e+86 1.5483557e+87)
(-2.1724909e+88 3.3706159e+86 1.6598345e+86)
(-2.1082372e+88 2.2997478e+86 -4.3933422e+86)
(-2.1139935e+88 1.4432075e+86 -4.754345e+86)
(-2.1797321e+88 1.5033759e+86 1.2734532e+86)
(-2.183351e+88 3.150476e+86 1.8278998e+86)
(-2.1140999e+88 2.176422e+86 -4.3565676e+86)
(-2.1154421e+88 1.4268877e+86 -4.1161311e+86)
(-2.1876058e+88 1.2236231e+86 2.1037532e+86)
(-1.759726e+88 1.0210018e+86 -5.7485575e+86)
(-1.7932853e+88 1.2322761e+86 -4.1658364e+86)
(-1.7621389e+88 5.4454544e+85 -5.9462666e+86)
(-1.7990491e+88 4.3508723e+85 -4.3038205e+86)
(-1.7838168e+88 2.6242578e+85 -6.5152331e+86)
(-1.777518e+88 1.5312322e+85 -6.8203118e+86)
(-1.8046943e+88 4.9122076e+85 -5.8222664e+86)
(-1.7999234e+88 2.0773138e+85 -6.0499961e+86)
(-1.7777094e+88 7.8634994e+85 -6.4125015e+86)
(-1.7971564e+88 1.0201587e+86 -5.6509328e+86)
(-1.7803506e+88 5.568976e+85 -6.5632721e+86)
(-1.8011596e+88 5.9360485e+85 -5.8081715e+86)
(-1.7652194e+88 4.5522332e+85 -5.9617442e+86)
(-1.800839e+88 6.5262692e+85 -4.4916145e+86)
(-1.75937e+88 1.6808459e+85 -6.2218014e+86)
(-1.796938e+88 5.8206987e+84 -4.6356788e+86)
(-1.8089808e+88 2.1308608e+85 -6.5977348e+86)
(-1.8247819e+88 4.0240311e+85 -5.8427883e+86)
(-1.8040093e+88 1.0481368e+85 -6.9606529e+86)
(-1.8197033e+88 1.2073614e+85 -6.1154107e+86)
(-1.8046066e+88 7.2735342e+85 -6.5057853e+86)
(-1.8174935e+88 8.4216086e+85 -5.7899367e+86)
(-1.8060329e+88 5.4576442e+85 -6.6794854e+86)
(-1.8213594e+88 5.0940566e+85 -5.8996814e+86)
(-1.8624148e+88 8.2687286e+85 -6.4153214e+86)
(-1.8648889e+88 5.0956954e+85 -6.5372329e+86)
(-1.885668e+88 7.2645228e+85 -8.379006e+86)
(-1.8857491e+88 3.7165588e+85 -8.5074241e+86)
(-1.8683656e+88 4.0320234e+85 -6.4816066e+86)
(-1.8640311e+88 1.0097713e+85 -6.8016921e+86)
(-1.8843688e+88 1.655486e+84 -8.8031988e+86)
(-1.8899668e+88 2.9348097e+85 -8.453275e+86)
(-1.7308299e+88 1.2788229e+85 -6.890714e+86)
(-1.7377471e+88 3.0387604e+85 -6.9075814e+86)
(-1.7676705e+88 3.7881259e+85 -5.1820548e+86)
(-1.776751e+88 1.0689272e+85 -5.1660899e+86)
(-1.7595625e+88 1.9614834e+85 -6.8392001e+86)
(-1.7816674e+88 4.1451593e+85 -6.1196535e+86)
(-1.7830195e+88 2.357642e+85 -6.1036908e+86)
(-1.7465617e+88 -1.3050864e+85 -7.6490049e+86)
(-1.7677878e+88 1.1684346e+85 -6.8073505e+86)
(-1.75461e+88 3.7298261e+85 -7.6363176e+86)
(-1.776312e+88 3.1117154e+85 -6.8067127e+86)
(-1.7431958e+88 4.0807167e+85 -6.2263232e+86)
(-1.7409022e+88 2.2654144e+85 -6.2960074e+86)
(-1.7803728e+88 5.5112409e+85 -4.7287274e+86)
(-1.7792874e+88 -6.7870583e+82 -4.7013069e+86)
(-1.7817805e+88 1.6823181e+85 -6.9629378e+86)
(-1.7999174e+88 3.2468449e+85 -6.1844037e+86)
(-1.7686318e+88 -2.5996385e+85 -7.9306783e+86)
(-1.7852047e+88 -9.6771119e+84 -7.0470772e+86)
(-1.7767231e+88 4.5159396e+85 -7.9984661e+86)
(-1.7945838e+88 2.932187e+85 -7.0231944e+86)
(-1.8532076e+88 1.7605486e+86 1.1541501e+87)
(-1.8507505e+88 -3.5805701e+85 1.1572316e+87)
(-1.9295622e+88 2.3407988e+86 1.8305425e+87)
(-1.9297532e+88 -2.1839199e+85 1.8460477e+87)
(-1.8355883e+88 1.5825718e+85 2.6085809e+86)
(-1.830746e+88 1.9085612e+86 2.9477206e+86)
(-1.8941208e+88 2.6960694e+86 8.8072057e+86)
(-1.9011691e+88 3.9858266e+85 8.4124737e+86)
(-1.836817e+88 1.1170772e+86 2.2789681e+86)
(-1.8325722e+88 -2.4613292e+85 2.2445e+86)
(-1.901067e+88 1.5304903e+86 7.9070443e+86)
(-1.9013857e+88 -2.6574493e+85 7.988959e+86)
(-1.8513543e+88 -1.7191036e+84 1.2074662e+87)
(-1.8496416e+88 2.7889913e+86 1.2720077e+87)
(-1.916815e+88 3.5640358e+86 1.9229699e+87)
(-1.9268052e+88 5.7166272e+85 1.8833757e+87)
(-1.7732646e+88 5.5949605e+85 -5.1357969e+86)
(-1.8153907e+88 7.6404143e+85 -3.6931381e+86)
(-1.7678383e+88 8.422846e+84 -5.3155991e+86)
(-1.8131282e+88 6.9089891e+84 -3.7820991e+86)
(-1.7904862e+88 4.0684436e+85 -3.0954326e+86)
(-1.7871149e+88 1.4635824e+86 -2.8000606e+86)
(-1.8466904e+88 1.8545637e+86 1.0699964e+86)
(-1.8547753e+88 3.8490952e+85 8.7414427e+85)
(-1.7665941e+88 1.1657477e+86 -4.8057131e+86)
(-1.8083906e+88 1.4830567e+86 -3.2747097e+86)
(-1.7704383e+88 4.4458235e+85 -5.0021897e+86)
(-1.814428e+88 5.4013255e+85 -3.4959662e+86)
(-1.7926582e+88 7.6952453e+85 -3.2630826e+86)
(-1.7885947e+88 2.4397202e+84 -3.3892548e+86)
(-1.8548599e+88 1.0510031e+86 5.6135481e+85)
(-1.8534865e+88 -1.5886609e+85 5.631219e+85)
(-1.8093819e+88 9.6222385e+85 1.8309671e+86)
(-1.8158806e+88 -1.8837973e+85 1.6803224e+86)
(-1.8738786e+88 1.7071651e+86 7.5563463e+86)
(-1.882007e+88 -1.9804154e+84 7.3299293e+86)
(-1.8283651e+88 1.8308758e+86 1.1303385e+87)
(-1.8320048e+88 -2.922033e+85 1.08888e+87)
(-1.9010794e+88 2.5713743e+86 1.7838548e+87)
(-1.9108484e+88 1.1278896e+85 1.758288e+87)
(-1.8376596e+88 1.7539716e+86 1.1346848e+87)
(-1.8349905e+88 -4.4151727e+85 1.1474625e+87)
(-1.9170994e+88 2.1637707e+86 1.8267059e+87)
(-1.9154587e+88 -6.0398324e+85 1.8507036e+87)
(-1.8203789e+88 1.0137037e+86 2.0696859e+86)
(-1.8166554e+88 -2.6147237e+85 2.1136622e+86)
(-1.8868761e+88 1.4560606e+86 7.6946001e+86)
(-1.8869896e+88 -3.5602598e+85 7.8345967e+86)
(-1.7737371e+88 6.5992431e+85 -3.5198245e+86)
(-1.7705049e+88 5.7917406e+84 -3.5530707e+86)
(-1.8388713e+88 9.2920621e+85 3.7604937e+85)
(-1.8378241e+88 -2.0388251e+85 4.3420974e+85)
(-1.74144e+88 2.9246433e+85 -5.8270933e+86)
(-1.7852019e+88 5.8461645e+85 -4.2674373e+86)
(-1.7487242e+88 1.4267637e+85 -5.8450034e+86)
(-1.7937463e+88 1.4031461e+85 -4.3299274e+86)
(-1.7639566e+88 5.4072978e+85 -3.8244221e+86)
(-1.7695951e+88 6.5022459e+84 -3.9369087e+86)
(-1.825699e+88 8.8924636e+85 2.0220376e+84)
(-1.8353729e+88 -5.1151379e+84 -2.2779349e+84)
(-1.7536177e+88 4.465133e+85 -5.3844238e+86)
(-1.7964711e+88 6.231007e+85 -3.9808297e+86)
(-1.7497463e+88 6.1285693e+84 -5.4372831e+86)
(-1.7952361e+88 2.9742133e+84 -3.9711956e+86)
(-1.8200582e+88 2.9273986e+86 1.5931004e+87)