/*--------------------------------*- C++ -*----------------------------------*\
  =========                 |
  \\      /  F ield         | OpenFOAM: The Open Source CFD Toolbox
   \\    /   O peration     | Website:  https://openfoam.org
    \\  /    A nd           | Version:  7
     \\/     M anipulation  |
\*---------------------------------------------------------------------------*/
FoamFile
{
    version     2.0;
    format      ascii;
    class       volScalarField;
    location    "2000";
    object      k;
}
// * * * * * * * * * * * * * * * * * * * * * * * * * * * * * * * * * * * * * //

dimensions      [0 2 -2 0 0 0 0];

internalField   nonuniform List<scalar> 
34378
(
1.523775
1.5193134
1.5230693
1.5214744
1.5247986
1.522917
1.5243106
1.518396
1.5198682
1.5183195
1.5194395
1.5189318
1.5222026
1.5224204
1.5234912
1.5233066
1.5206731
1.5200949
1.521423
1.5219352
1.5224206
1.5234816
1.5244631
1.523989
1.5270489
1.5232478
1.5232534
1.5230226
1.5214574
1.5209445
1.518699
1.5179133
1.518069
1.519736
1.5189477
1.5192043
1.5180563
1.5181498
1.518491
1.5186309
1.5186212
1.5188274
1.5193884
1.5183218
1.5195717
1.5190953
1.5177822
1.5215248
1.5217437
1.520165
1.5225253
1.5223641
1.5218123
1.5218324
1.5226822
1.5226837
1.5209034
1.5204768
1.5196149
1.5194566
1.5202454
1.5194848
1.5202424
1.5218652
1.5218277
1.5227178
1.522688
1.520953
1.5209868
1.5213818
1.5231034
1.5232876
1.5230226
1.5227857
1.5228933
1.5227571
1.5229757
1.5230859
1.5241575
1.5230851
1.5229766
1.523975
1.5235832
1.5234519
1.5279623
1.5284434
1.5280938
1.5276465
1.5230228
1.5232854
1.5225282
1.5225547
1.5225169
1.5225252
1.5223823
1.5221811
1.5206749
1.5201996
1.520024
1.5200263
1.5178578
1.5176101
1.5187857
1.5180185
1.5182023
1.5189831
1.5190326
1.5198073
1.519811
1.5189359
1.5189054
1.5190182
1.5189771
1.5180829
1.5200558
1.5198362
1.5181965
1.5181061
1.5181795
1.5185236
1.5186944
1.5178257
1.5186599
1.5185611
1.5185889
1.5187522
1.5188258
1.5188045
1.5188969
1.5188669
1.5185904
1.5187795
1.5194294
1.5182363
1.5196235
1.5178016
1.5175882
1.5188699
1.5189056
1.5197128
1.5196933
1.5175946
1.5198434
1.5200778
1.5179479
1.5170843
1.5174445
1.517656
1.5174087
1.5198996
1.5209102
1.5211039
1.5218416
1.5217249
1.5212188
1.5212525
1.522021
1.5220123
1.5194556
1.5200838
1.5203825
1.5212546
1.521254
1.5220978
1.5221007
1.5212877
1.5213083
1.5221174
1.5221254
1.5191414
1.5191941
1.519738
1.5197758
1.5190221
1.519052
1.5196349
1.5196326
1.5196445
1.5190763
1.5190938
1.5196445
1.5213378
1.5213195
1.5221469
1.522151
1.5212959
1.5212966
1.5221067
1.5221287
1.5202482
1.5203871
1.5199907
1.5198408
1.5197981
1.5198031
1.5200499
1.520036
1.5199427
1.5202286
1.520636
1.5203959
1.5222296
1.5222165
1.5219901
1.5224052
1.5223528
1.5223413
1.5225484
1.5225493
1.5223929
1.5222978
1.5223107
1.5223963
1.5220538
1.5221848
1.5219363
1.522258
1.5220205
1.5221821
1.5219152
1.5222452
1.5222525
1.5220097
1.5219592
1.5222355
1.5228683
1.5223525
1.5223347
1.5223687
1.5230354
1.5223789
1.5223066
1.5222911
1.522368
1.5223732
1.5228941
1.5227099
1.5224122
1.5223251
1.5223413
1.5223878
1.5223746
1.5223866
1.5223985
1.5224174
1.5230331
1.5227652
1.5228882
1.5226452
1.5227386
1.5228047
1.5237329
1.5228981
1.5229538
1.5230316
1.5229016
1.5235595
1.5229414
1.5228859
1.5226907
1.5227248
1.5224367
1.5223239
1.5223441
1.5224096
1.5225845
1.5223638
1.522388
1.5225537
1.5220076
1.5219875
1.5220263
1.5220295
1.5219723
1.5219796
1.5220028
1.5219996
1.5219004
1.5219141
1.5215909
1.5217376
1.5202603
1.5199221
1.519605
1.519649
1.5195155
1.5195066
1.5195239
1.51953
1.5210188
1.5206888
1.5177885
1.5175997
1.5188362
1.5189762
1.5189449
1.5180105
1.5181905
1.5189803
1.5189896
1.5189661
1.5189806
1.5190146
1.5190324
1.519001
1.5190269
1.5190589
1.5190735
1.5198536
1.5198622
1.5198675
1.5198679
1.5190985
1.5191163
1.5190238
1.5189881
1.5177774
1.519777
1.5196028
1.517936
1.5180962
1.5181342
1.5185425
1.5185758
1.5186967
1.5187316
1.5188378
1.5188603
1.5176908
1.5178225
1.5177591
1.5175311
1.518598
1.5187655
1.5189047
1.5188763
1.5177684
1.5185444
1.5186461
1.5185088
1.5186701
1.5187712
1.5187895
1.5187697
1.5187959
1.5185925
1.5187867
1.5193868
1.5196027
1.5184167
1.517465
1.5179885
1.5188805
1.5196984
1.5197169
1.5189064
1.5173075
1.5173464
1.5177472
1.5177954
1.5175608
1.5175417
1.5174155
1.5173851
1.518867
1.5188741
1.5188525
1.5188633
1.5188956
1.51891
1.5188812
1.5189037
1.5189819
1.518998
1.5197839
1.5197869
1.5189511
1.519742
1.5189584
1.5197314
1.5172987
1.519492
1.5197608
1.5176281
1.5171402
1.5169861
1.5170668
1.5168317
1.5174257
1.5174011
1.5172904
1.517251
1.5171782
1.5176595
1.5172239
1.5176916
1.5167792
1.5173803
1.5170449
1.5175701
1.519336
1.5196984
1.5201246
1.5199161
1.5201313
1.5199857
1.5213393
1.5214022
1.5202988
1.5202408
1.5215516
1.5215641
1.5203334
1.5203406
1.5216993
1.5217041
1.5204056
1.5203692
1.5217234
1.5217235
1.5190185
1.5190715
1.5196499
1.5196128
1.5203474
1.5203765
1.5217463
1.521745
1.5203265
1.5203546
1.5217531
1.5217534
1.5203751
1.5203892
1.5217813
1.5217792
1.5204601
1.5204067
1.5217851
1.5217848
1.5187693
1.5187767
1.5193276
1.519336
1.5187993
1.5188342
1.5193858
1.5193689
1.5188306
1.5185921
1.5186529
1.519242
1.5192228
1.5186699
1.5186818
1.5192484
1.5192537
1.5187067
1.5192653
1.5187053
1.5192664
1.5187256
1.518744
1.5192794
1.5192798
1.520462
1.5205006
1.5218072
1.5218103
1.5204561
1.5204309
1.5218054
1.5218001
1.5204304
1.5217811
1.5217744
1.5204098
1.5204275
1.5204678
1.5217588
1.5217665
1.5230448
1.5193687
1.5202407
1.5200873
1.5196005
1.5199219
1.5196684
1.5199641
1.5199452
1.5196224
1.5197196
1.5200157
1.5194357
1.5193969
1.5194668
1.5193582
1.5193939
1.519431
1.5194082
1.5193377
1.5194064
1.5193393
1.5193289
1.519392
1.5193973
1.5193752
1.5193641
1.5195225
1.5195243
1.5193843
1.5195363
1.5193883
1.5195342
1.5193968
1.5194787
1.5195119
1.519437
1.5194507
1.5196228
1.5194931
1.5196545
1.5200861
1.5197538
1.5199436
1.520239
1.5200045
1.5197864
1.5196768
1.5200852
1.520091
1.5200228
1.5214337
1.5216225
1.5215982
1.521751
1.5216731
1.5216881
1.5217838
1.5217927
1.5213316
1.5214637
1.5215122
1.5216106
1.5217642
1.5219202
1.5217783
1.5219276
1.521761
1.5217556
1.5218799
1.5218709
1.5217242
1.5218469
1.5217348
1.5218517
1.5218576
1.5218535
1.5220249
1.5220164
1.5219959
1.5218233
1.5218322
1.5219987
1.5216297
1.521759
1.5216401
1.5217635
1.5215789
1.5215883
1.5216755
1.5216795
1.5216151
1.5216074
1.5217104
1.521697
1.521667
1.5216601
1.5217937
1.5217816
1.521227
1.5213724
1.5214192
1.5215322
1.5215315
1.5215487
1.5216239
1.5216331
1.5211674
1.5212768
1.5213673
1.5214476
1.5215838
1.5215995
1.521703
1.5217111
1.5211015
1.5212263
1.5213106
1.5214041
1.5214755
1.5214987
1.5215403
1.5215535
1.5210874
1.52117
1.5213076
1.5213591
1.5214797
1.5214989
1.521581
1.5215907
1.5215183
1.5215585
1.5215472
1.5215756
1.5211126
1.5211778
1.521348
1.5213788
1.5212432
1.5214599
1.5220441
1.5213114
1.5215499
1.5216417
1.5216666
1.5222892
1.521758
1.5217236
1.5222327
1.5219642
1.5217309
1.5217197
1.5224045
1.5218064
1.5218135
1.5216912
1.5216973
1.522393
1.5217815
1.5217709
1.5215662
1.5216096
1.5215757
1.521613
1.5223244
1.5223422
1.5216048
1.5216465
1.5215978
1.5216323
1.5215611
1.5216278
1.5215526
1.521613
1.5215246
1.5215923
1.5215327
1.521595
1.5215279
1.5216331
1.5215358
1.5216355
1.5215638
1.5216679
1.5215552
1.5216526
1.5223648
1.5223502
1.522375
1.5223871
1.5222679
1.5220252
1.5220488
1.5222814
1.5215937
1.5216996
1.5215942
1.5216941
1.5215805
1.5215621
1.5216467
1.5216216
1.5215909
1.5216593
1.5215912
1.521654
1.5215827
1.5215627
1.5216862
1.5216595
1.5217474
1.5217261
1.5224294
1.5218082
1.521826
1.521761
1.5217555
1.5224434
1.5218369
1.5218405
1.5216232
1.5216658
1.521606
1.5216418
1.5216344
1.5216778
1.5216336
1.5216723
1.5223807
1.5223745
1.5221051
1.5217419
1.5223456
1.5218229
1.5223028
1.5220523
1.5224276
1.5224025
1.5224008
1.5224197
1.5221088
1.5223347
1.5223413
1.5221107
1.5222514
1.522396
1.5222166
1.5224234
1.5228081
1.5221119
1.5223222
1.5221185
1.5223251
1.5226978
1.5227671
1.5229145
1.5224852
1.522479
1.5225087
1.5225026
1.5224003
1.522411
1.522409
1.5224182
1.5228073
1.5226722
1.5227742
1.5229229
1.5227417
1.5225984
1.5224397
1.5224389
1.5224484
1.5224528
1.5225025
1.5225136
1.5225142
1.5224992
1.5224285
1.5224471
1.5223025
1.5222686
1.5223778
1.5223723
1.5221879
1.5221782
1.5216983
1.5216987
1.5218269
1.5218212
1.5216335
1.5216123
1.521728
1.5217017
1.5216461
1.5217431
1.5216465
1.5217382
1.5216836
1.5216621
1.5218091
1.5217826
1.5218885
1.5220544
1.521887
1.5220479
1.5217749
1.5218925
1.5217531
1.5218686
1.5217928
1.5219132
1.5217918
1.5219079
1.5218683
1.5218478
1.5220322
1.5220087
1.5217102
1.5217022
1.5216948
1.521691
1.5217343
1.5217311
1.5217401
1.5217359
1.5216719
1.5216694
1.5216813
1.5216777
1.5217087
1.5217059
1.5217166
1.5217127
1.5216319
1.521637
1.5216561
1.5216599
1.5200534
1.5212623
1.5213357
1.5214867
1.5215033
1.519812
1.519518
1.5195613
1.5192407
1.5192536
1.5192829
1.5193048
1.5191688
1.519166
1.5195301
1.5191297
1.5191581
1.5191856
1.5191813
1.5191967
1.5192006
1.5210654
1.5207827
1.5176995
1.5181687
1.5181836
1.5175394
1.5183362
1.5181296
1.5189632
1.5189357
1.5188705
1.5189676
1.5189761
1.5189887
1.518953
1.5189646
1.5189601
1.5189684
1.5189796
1.5189818
1.5189702
1.518974
1.5190086
1.5190306
1.518988
1.5189985
1.5189909
1.5190004
1.5190173
1.5190273
1.5190058
1.5190217
1.5189427
1.5189457
1.5189551
1.5189547
1.518969
1.5189643
1.5189682
1.5189635
1.5191721
1.519658
1.5196741
1.5191808
1.5197051
1.5191756
1.5191737
1.5196775
1.5191873
1.5191943
1.5196688
1.5196699
1.5196859
1.5192089
1.5192248
1.5197165
1.5189852
1.5189815
1.5189847
1.5189806
1.5190182
1.5189993
1.5190197
1.5189973
1.5190228
1.5190097
1.5190219
1.5190399
1.5189893
1.5189829
1.518992
1.5190028
1.5175394
1.5174226
1.5174449
1.5197436
1.5195953
1.5177305
1.5175718
1.5177324
1.5186861
1.5185746
1.5185593
1.5185873
1.5187282
1.5188484
1.518828
1.5187557
1.5188566
1.5188793
1.5177043
1.5174829
1.5186298
1.518565
1.5185433
1.5186671
1.5185229
1.518673
1.5187646
1.5187492
1.5187805
1.5188015
1.5187764
1.5188003
1.5189056
1.5188954
1.5189047
1.5189205
1.5188896
1.5189095
1.518878
1.5188726
1.5188789
1.5188871
1.5188623
1.5188716
1.5176191
1.5177798
1.5175669
1.5178182
1.5185311
1.5184805
1.5184472
1.5185401
1.5186658
1.518668
1.5186833
1.5186912
1.5187634
1.5187698
1.5187721
1.5187748
1.5187943
1.5188004
1.5187893
1.5187988
1.5179393
1.5184257
1.5185463
1.5185565
1.5184086
1.5186635
1.5186956
1.5187038
1.5186644
1.5186021
1.5191479
1.51861
1.5187884
1.5193255
1.5194335
1.5189019
1.5189385
1.5194806
1.5176281
1.5181932
1.5174184
1.5174475
1.5173691
1.5174138
1.5174638
1.5174103
1.51792
1.5179714
1.5187589
1.5187704
1.5187731
1.5187579
1.5195246
1.5189917
1.519004
1.5195261
1.5195545
1.5190271
1.5190288
1.5195718
1.5187975
1.518786
1.5188004
1.5187873
1.5172942
1.5173017
1.5172507
1.5172635
1.5173216
1.5173346
1.5172794
1.5173005
1.5172835
1.5177576
1.5172982
1.5177666
1.5173184
1.5173381
1.5177899
1.5178091
1.5173724
1.5173455
1.5188539
1.5188514
1.518841
1.5188457
1.5188526
1.5188621
1.5188639
1.5188559
1.5188682
1.5188789
1.5188719
1.518881
1.5188978
1.5189058
1.5188874
1.5189009
1.5188666
1.5188618
1.5188604
1.5188668
1.518898
1.5188816
1.5188815
1.5189002
1.5195908
1.5190815
1.5190853
1.5195863
1.5191237
1.5191042
1.5196127
1.5196494
1.5188405
1.5188345
1.5188322
1.5188404
1.5195728
1.5190526
1.5190574
1.5195595
1.518851
1.5188471
1.5188476
1.5188515
1.5190599
1.5190602
1.5195446
1.5195561
1.5170786
1.5168723
1.5170524
1.5195236
1.5197295
1.5173919
1.5172852
1.517316
1.5170415
1.5168093
1.5172507
1.5172139
1.5171642
1.5171234
1.5171734
1.5171378
1.5171629
1.5176671
1.5171779
1.5176711
1.5172012
1.5172177
1.5171602
1.5171867
1.5177048
1.5177212
1.5172065
1.5172293
1.5165124
1.5167138
1.5168519
1.5168731
1.5166583
1.5167078
1.5169485
1.5173545
1.5175295
1.5170035
1.5170426
1.5170201
1.5170475
1.517061
1.5175976
1.5170975
1.5176193
1.5189076
1.5186898
1.5185898
1.5196749
1.5197037
1.519254
1.5189737
1.5199178
1.5200264
1.5199991
1.5198433
1.5201696
1.5201091
1.5201966
1.5202017
1.5202726
1.5202324
1.5183532
1.5183644
1.5193699
1.5193754
1.5184278
1.5183679
1.5194145
1.5194357
1.5202084
1.5202371
1.5201895
1.5202176
1.520235
1.5202484
1.520324
1.5202677
1.5181604
1.518179
1.5190962
1.5190965
1.5181596
1.5181754
1.5191103
1.5191111
1.5181748
1.5181788
1.5191368
1.5191379
1.5182451
1.5181953
1.5191575
1.5191745
1.5181605
1.5183626
1.5191142
1.519158
1.5179349
1.5178722
1.5189673
1.5189762
1.5180276
1.5179894
1.5190103
1.5190111
1.5180307
1.5180378
1.5190206
1.5190192
1.5180809
1.5180493
1.5190212
1.519021
1.5181095
1.5180923
1.5190389
1.5190394
1.5180822
1.5180969
1.5190438
1.5190427
1.5181092
1.5181172
1.5190579
1.519057
1.5181724
1.5181377
1.5190662
1.5190675
1.5203266
1.5203614
1.520321
1.5202961
1.5202951
1.5202748
1.5202932
1.5203387
1.5188729
1.5188753
1.5189434
1.5189406
1.5198616
1.5195405
1.5196323
1.5199306
1.5198069
1.5195696
1.5198575
1.5191914
1.519211
1.5192543
1.5192316
1.5194062
1.5196213
1.5196726
1.5194446
1.5191171
1.5191598
1.5191417
1.5191793
1.5193222
1.5193733
1.5195582
1.5195879
1.5193192
1.5195575
1.5193896
1.5196092
1.51911
1.5191643
1.5191357
1.5191858
1.5191278
1.5192123
1.5191564
1.519236
1.5193523
1.5194485
1.5195979
1.5196734
1.5189068
1.5189789
1.5189261
1.5189925
1.5189399
1.5189845
1.5189528
1.5189921
1.5189508
1.5190217
1.5189638
1.5190291
1.5188974
1.5189419
1.5189167
1.5189562
1.519035
1.5190822
1.5189596
1.5189554
1.5189859
1.5189693
1.5189937
1.5189431
1.5189492
1.5190277
1.5190296
1.5189037
1.5189094
1.5189674
1.5189691
1.5189574
1.5190414
1.5189602
1.5190397
1.5189156
1.5189176
1.5189794
1.5189774
1.5189522
1.5188821
1.5189431
1.5189371
1.5188656
1.5189626
1.5189154
1.5189995
1.5189273
1.5190136
1.518922
1.5190045
1.5189955
1.5190758
1.5189906
1.5190686
1.5189413
1.5190316
1.5189844
1.5190627
1.5190182
1.5191434
1.5190539
1.5191668
1.5190648
1.5191798
1.519061
1.5191726
1.5190101
1.5190893
1.5190159
1.5190914
1.5190785
1.5190835
1.5191924
1.5191918
1.5190257
1.5191035
1.5190285
1.5191032
1.5190941
1.5192055
1.5190974
1.5192048
1.5189496
1.5189685
1.5190146
1.5190283
1.5189907
1.5190091
1.5190782
1.5190907
1.5190357
1.5190508
1.5191213
1.5191314
1.5189939
1.5190583
1.5190074
1.5190673
1.5190604
1.5190775
1.5191424
1.5191538
1.5191317
1.519252
1.5191468
1.5192605
1.5191045
1.519185
1.5191211
1.5191981
1.5192929
1.5191751
1.5191944
1.5193069
1.5195871
1.5196924
1.5198395
1.5199151
1.5193162
1.5194083
1.5193556
1.5194416
1.5193967
1.5195298
1.5194384
1.5195634
1.5196854
1.5198182
1.5199338
1.5200322
1.5194207
1.5195119
1.519672
1.5197417
1.5192325
1.5192689
1.5193345
1.5193648
1.5191821
1.5192569
1.5192143
1.5192847
1.519491
1.5196008
1.5197473
1.5198299
1.5200234
1.5197628
1.5198051
1.519784
1.5196008
1.5197854
1.5195889
1.5212673
1.521116
1.5211921
1.5212087
1.5211846
1.5212886
1.5213539
1.5212683
1.5213879
1.5214432
1.5213726
1.5214311
1.5214305
1.5215077
1.5214457
1.5215199
1.5213461
1.5214218
1.521433
1.5213612
1.5213803
1.5213804
1.5214529
1.5214508
1.5215191
1.5214196
1.5215094
1.5214331
1.5214517
1.5215356
1.521452
1.5215381
1.5211196
1.5209441
1.5210292
1.5210535
1.5210208
1.5211247
1.5212067
1.5211214
1.5213053
1.5212237
1.5212925
1.5212402
1.521292
1.5213727
1.5213081
1.5213847
1.5215079
1.5215731
1.5215822
1.5215201
1.5216548
1.5215714
1.5215817
1.5216594
1.5215378
1.521537
1.5216001
1.5215982
1.5216782
1.5215992
1.5216779
1.5215994
1.521411
1.5214902
1.521493
1.5214166
1.521419
1.5214171
1.5214948
1.5214938
1.5215839
1.5214863
1.5215819
1.5214912
1.5214931
1.521584
1.5214921
1.5215862
1.5214502
1.5213635
1.5214456
1.5213715
1.5214425
1.5215404
1.5215433
1.5214485
1.52146
1.5213806
1.5214612
1.5213825
1.5214581
1.5215544
1.521459
1.5215526
1.5215789
1.5216482
1.5216501
1.5215829
1.5215841
1.5216521
1.521584
1.5216503
1.5217339
1.5217315
1.5216444
1.5216468
1.5216494
1.521649
1.5217366
1.5217363
1.5216046
1.5216973
1.5216951
1.5216075
1.521611
1.5215375
1.5216086
1.5215422
1.5215524
1.5215519
1.5216217
1.5216207
1.5216188
1.5216175
1.521705
1.5217049
1.52128
1.5211976
1.5212737
1.5212079
1.5212595
1.5213672
1.5213722
1.5212677
1.5212888
1.5212177
1.5212921
1.5212159
1.5212778
1.5213844
1.5212784
1.5213818
1.521076
1.521154
1.5211614
1.5210878
1.5210951
1.521173
1.5211654
1.5210906
1.521128
1.5212204
1.521227
1.5211388
1.521148
1.5212397
1.521233
1.5211443
1.5211193
1.5211995
1.5212018
1.5211261
1.5211255
1.5211268
1.5212044
1.5211994
1.5211747
1.5212683
1.5212699
1.5211804
1.5211805
1.521181
1.5212724
1.5212681
1.5212477
1.5213244
1.5213256
1.5212528
1.5212539
1.5212536
1.5213283
1.5213262
1.5214163
1.5214176
1.521312
1.5213149
1.5213188
1.5213167
1.5214206
1.5214183
1.5209573
1.520769
1.5208534
1.52089
1.5208394
1.5209532
1.5210507
1.5209551
1.5210839
1.5211494
1.5210678
1.5211373
1.5211312
1.521224
1.5211473
1.5212363
1.5210531
1.5211327
1.5211461
1.521071
1.5210959
1.5211714
1.5211658
1.5210932
1.5212147
1.5211098
1.5212021
1.5211275
1.5212333
1.5211504
1.5212384
1.5211483
1.5208245
1.5206325
1.5207189
1.5207511
1.5206908
1.5207932
1.5208989
1.5208126
1.5210256
1.5209396
1.5210143
1.5209549
1.5209969
1.5210817
1.5210129
1.5210928
1.5211838
1.5212598
1.5212709
1.5212
1.5212219
1.5212938
1.5212202
1.52129
1.5213496
1.5213608
1.5212496
1.5212631
1.5212838
1.521285
1.521382
1.5213779
1.5206678
1.52048
1.5205776
1.5205766
1.5205477
1.520662
1.5207611
1.5206571
1.5207993
1.5208843
1.5207877
1.5208763
1.5208572
1.520957
1.5208711
1.5209661
1.5206857
1.5208207
1.5208267
1.5206963
1.5207319
1.520738
1.5208691
1.5208581
1.5209328
1.5207964
1.5209245
1.5208084
1.5208408
1.5209599
1.5208465
1.52097
1.5204691
1.5202712
1.5204077
1.5203371
1.5203783
1.5205103
1.5205855
1.5204581
1.5207078
1.5205777
1.5207066
1.5205839
1.5206863
1.5208066
1.5206947
1.5208108
1.5209016
1.5209952
1.5210061
1.5209161
1.5209488
1.5210386
1.5209438
1.5210304
1.5210764
1.5210884
1.5209707
1.5209869
1.521012
1.5210159
1.521117
1.5211094
1.5203253
1.5203296
1.5205433
1.5205426
1.5205283
1.5207088
1.5207119
1.5205213
1.5203799
1.5203751
1.5205814
1.5205955
1.5205754
1.5205687
1.5207591
1.5207458
1.5201707
1.519919
1.5201346
1.5199586
1.5201088
1.5202996
1.5203475
1.5201618
1.5204341
1.5202295
1.5204389
1.5202331
1.5204191
1.5205979
1.5204231
1.5205958
1.5196915
1.5197109
1.5199473
1.5199662
1.5202495
1.5202413
1.5199963
1.520001
1.5215627
1.5213125
1.5213883
1.521607
1.5197192
1.5200123
1.5200806
1.520083
1.5203452
1.5203392
1.5203978
1.5203826
1.5201349
1.5201356
1.5217882
1.5217325
1.5217748
1.5218192
1.5201483
1.5200954
1.5217763
1.5217292
1.5217768
1.521815
1.5215707
1.5213139
1.5213727
1.5216022
1.5201364
1.5201372
1.5204068
1.5203959
1.5204278
1.520411
1.5201621
1.5201639
1.5218791
1.5218231
1.5218212
1.5218701
1.5201757
1.5201498
1.5201422
1.5201419
1.5203975
1.5203885
1.5203964
1.5203795
1.5201336
1.5201334
1.5218407
1.5217851
1.5217952
1.5218461
1.5201462
1.5201543
1.5203799
1.5203797
1.5205863
1.5205906
1.5205698
1.5205728
1.5207521
1.5207513
1.5205791
1.5203803
1.5205963
1.5203722
1.5207616
1.5205762
1.520566
1.5207452
1.5218335
1.5217862
1.5217971
1.5218401
1.5218233
1.5218191
1.5218676
1.5218643
1.5206027
1.5203897
1.5206111
1.5203877
1.5207788
1.5205892
1.5205882
1.5207733
1.5206115
1.5204117
1.5206283
1.5204051
1.5207925
1.5206075
1.5205989
1.5207769
1.5208889
1.520756
1.5208919
1.5207572
1.5208664
1.5209953
1.5209938
1.5208689
1.5207627
1.5208897
1.5207709
1.520903
1.5208786
1.5210041
1.5208716
1.5209924
1.5208622
1.5207296
1.5208596
1.5207354
1.5208344
1.5208424
1.520959
1.5209633
1.5208581
1.52074
1.5208727
1.5207301
1.5209741
1.5208482
1.520839
1.5209608
1.5210311
1.5209341
1.5210249
1.5209438
1.5211021
1.5209982
1.5210088
1.5211088
1.5209422
1.5210306
1.5209502
1.5210417
1.5211199
1.5210158
1.5210093
1.5211101
1.5210652
1.5209708
1.5210647
1.5209748
1.5211445
1.5210382
1.5210433
1.521146
1.5209752
1.5210629
1.5209808
1.5210718
1.5211502
1.5210466
1.521043
1.5211429
1.5218103
1.5217961
1.521846
1.5218552
1.5217843
1.5217802
1.5218265
1.5218301
1.5218322
1.5217796
1.5217861
1.5218377
1.52186
1.5218025
1.5218136
1.5218628
1.5217596
1.521715
1.5217619
1.5218035
1.5215787
1.5213383
1.5213844
1.5216094
1.5215656
1.5213145
1.5213773
1.5216085
1.5217719
1.5217167
1.5217639
1.5218125
1.5211098
1.5210152
1.5211069
1.521022
1.521081
1.5211864
1.5211894
1.5210885
1.5210122
1.5210996
1.5210221
1.5211132
1.5210877
1.5211926
1.5210785
1.5211795
1.5208008
1.5209309
1.5209236
1.5207987
1.520792
1.5208047
1.5209299
1.5209115
1.5210237
1.5209055
1.5210298
1.5209037
1.5208928
1.5210078
1.520905
1.5210251
1.5209379
1.5208072
1.5209397
1.5208093
1.5209145
1.5210405
1.5210408
1.5209186
1.5209277
1.5208123
1.520945
1.5208003
1.5209204
1.5210466
1.5209089
1.5210307
1.5210053
1.5210952
1.5210907
1.5210045
1.5210009
1.5210874
1.5209894
1.5210725
1.5211722
1.5211679
1.5210687
1.5210684
1.5210512
1.5210613
1.521162
1.5211475
1.5202103
1.5202108
1.5204691
1.520456
1.520483
1.5204637
1.5202315
1.520233
1.5218952
1.5218438
1.5218314
1.5218762
1.520245
1.5202232
1.520202
1.520202
1.5204677
1.5204561
1.5204677
1.5204488
1.5201998
1.5202
1.5219103
1.521855
1.5218512
1.5219027
1.5202119
1.5202135
1.5204521
1.5204476
1.5206637
1.520652
1.5206379
1.5208243
1.5208147
1.5206422
1.5204666
1.5204567
1.5206506
1.5206717
1.5206506
1.5206379
1.5208274
1.5208066
1.5206576
1.5204492
1.520666
1.5204469
1.5206446
1.5208308
1.5208252
1.5206438
1.5206489
1.5204509
1.5206688
1.5204412
1.5206481
1.5208349
1.5206358
1.5208153
1.521904
1.5218558
1.5218541
1.5218983
1.5218437
1.5218514
1.5218936
1.5218802
1.5217804
1.5217486
1.521585
1.5216267
1.5202636
1.5202635
1.520515
1.5205006
1.521888
1.5218451
1.5218302
1.521871
1.5202757
1.5218906
1.5218519
1.5218348
1.521873
1.5215906
1.5217572
1.5217804
1.5216221
1.521902
1.5218462
1.5218468
1.5218983
1.5218942
1.5218471
1.5218476
1.5218921
1.52185
1.5218523
1.5218949
1.521889
1.5218976
1.5218483
1.5218438
1.5218879
1.5215983
1.521757
1.521783
1.5216289
1.5218282
1.5218464
1.5218892
1.521869
1.5218276
1.5218478
1.5218921
1.5218723
1.5217853
1.5217519
1.5215877
1.5216266
1.5218562
1.5216945
1.5216204
1.5217879
1.5223335
1.5218096
1.5217861
1.5217976
1.5218242
1.5216882
1.5214983
1.5215044
1.5216863
1.5218849
1.5219428
1.5224574
1.5219605
1.5219032
1.5223152
1.5223887
1.5214175
1.5216215
1.5216378
1.5214407
1.5217654
1.5217319
1.5217959
1.5217606
1.5213622
1.5214102
1.5216229
1.5215854
1.5217078
1.5217581
1.5217979
1.5217493
1.5224321
1.522508
1.5225528
1.5225533
1.5224968
1.5224935
1.5218793
1.521865
1.5218739
1.5218672
1.52186
1.5218489
1.5218582
1.5218648
1.5220282
1.5220267
1.5219648
1.5219651
1.5220265
1.5220123
1.5219475
1.5219607
1.5218253
1.5217946
1.5218269
1.5217985
1.5218089
1.5218363
1.5218445
1.5218145
1.5217744
1.5217732
1.5218229
1.5218242
1.5218372
1.5217849
1.5217962
1.5218467
1.5187837
1.5190019
1.5225248
1.522354
1.5225605
1.5225549
1.5225166
1.5225141
1.5224965
1.522361
1.5224521
1.5223141
1.5218583
1.5218881
1.5218936
1.5218643
1.5218669
1.5218669
1.5218922
1.5218897
1.5218427
1.5218441
1.5218912
1.5218875
1.5218401
1.5218378
1.5218885
1.5218886
1.5218987
1.5219143
1.5219256
1.521913
1.5220023
1.5220375
1.5220485
1.5219861
1.5220558
1.5220566
1.5220077
1.5220075
1.5219213
1.521919
1.521925
1.5219256
1.5219085
1.5218935
1.5218857
1.5218962
1.5219738
1.5220116
1.5220094
1.5219645
1.5218638
1.5219591
1.5219074
1.5218009
1.5218327
1.5218289
1.5217112
1.5217125
1.5218831
1.5218352
1.5218208
1.5218644
1.5218791
1.5218512
1.52184
1.5218652
1.5216495
1.5217815
1.5217955
1.5216625
1.521787
1.5217552
1.5216087
1.5216408
1.5212898
1.521366
1.521367
1.5212945
1.521286
1.5212939
1.521368
1.521358
1.5214586
1.5213544
1.5214578
1.5213573
1.5213482
1.5214494
1.5213555
1.5214589
1.5211475
1.521225
1.521221
1.5211474
1.5211378
1.5212126
1.5211997
1.5211282
1.5212855
1.5211995
1.5212908
1.5211986
1.5212637
1.5211875
1.5212766
1.5211787
1.5212438
1.5211623
1.5212409
1.5211697
1.521217
1.5213099
1.5213112
1.5212229
1.5212354
1.5211692
1.521247
1.5211604
1.5212231
1.5213145
1.5212147
1.5213026
1.5212692
1.5213437
1.5213377
1.5212669
1.5212557
1.521328
1.5212468
1.5213171
1.5214262
1.5213294
1.5214323
1.5213249
1.5213065
1.5213137
1.5214166
1.5214059
1.5216138
1.5216168
1.5216813
1.5216823
1.5217644
1.5216772
1.5217618
1.5216757
1.5216164
1.5216831
1.5216758
1.5216098
1.5217559
1.5216772
1.5217623
1.5216716
1.5214265
1.5215042
1.5214237
1.5215002
1.521497
1.521499
1.5215931
1.5215893
1.5214052
1.5214803
1.5214122
1.5214896
1.5215789
1.5214855
1.5214779
1.5215692
1.5214536
1.5214571
1.5215305
1.5215316
1.5215288
1.5216197
1.5215257
1.5216191
1.521455
1.5215319
1.5215237
1.5214486
1.521612
1.5215278
1.5216207
1.5215213
1.5215884
1.5216564
1.521653
1.5215865
1.5215669
1.5215752
1.5216424
1.5216332
1.5217372
1.5216503
1.5216469
1.5217306
1.5216291
1.5217222
1.5216364
1.5217142
1.5199858
1.5198639
1.5196193
1.519651
1.5193163
1.5193219
1.5193591
1.5193841
1.5190466
1.5190464
1.5190632
1.5190604
1.5190868
1.5190874
1.5191053
1.5191263
1.5189725
1.5189708
1.5189721
1.5189746
1.5189809
1.5190464
1.5189151
1.5189256
1.5189613
1.5189646
1.5189957
1.5189965
1.518992
1.5189912
1.5190111
1.5190097
1.5190192
1.5190232
1.5212171
1.5190851
1.5193277
1.5209493
1.5193676
1.519273
1.5175858
1.5182221
1.5181484
1.5181606
1.5182551
1.5174322
1.5184715
1.518257
1.5181193
1.5183222
1.5190242
1.5190381
1.5190041
1.5189966
1.5188683
1.5189731
1.5189559
1.5189977
1.5190061
1.5189992
1.5189925
1.5189758
1.5189641
1.5189592
1.5189888
1.5189748
1.5189776
1.5189496
1.5189572
1.5189667
1.5189708
1.5190069
1.5189947
1.5189928
1.519028
1.5190107
1.5190227
1.5189841
1.5189869
1.5190012
1.5190167
1.5189416
1.5189425
1.5189522
1.5189557
1.5189659
1.518961
1.5189678
1.5189643
1.519139
1.5193661
1.5193791
1.5191419
1.5193849
1.5191292
1.5191381
1.5193768
1.519156
1.5191578
1.5193822
1.5193803
1.5194023
1.5191678
1.5191974
1.5194431
1.5189813
1.5189779
1.5189837
1.5189812
1.5190125
1.5189947
1.5190135
1.5189935
1.5190234
1.5190405
1.5189933
1.5190044
1.5174266
1.5174088
1.5173416
1.5173248
1.5173472
1.5177039
1.5175605
1.5175489
1.517467
1.5176413
1.5187885
1.5187719
1.5186457
1.5185658
1.5185604
1.5185892
1.518752
1.5187155
1.5185841
1.518564
1.5186578
1.5186408
1.5185688
1.5187829
1.5187995
1.5187831
1.5187686
1.5189204
1.5189089
1.518891
1.5188852
1.5187497
1.5188854
1.5188618
1.5188446
1.5188655
1.5188864
1.5188922
1.5188863
1.5188813
1.5189093
1.5189218
1.5189147
1.5189044
1.5177244
1.5176203
1.5177487
1.5175742
1.5175631
1.5177841
1.5174893
1.5174723
1.5174361
1.5174071
1.5173772
1.5174125
1.5185422
1.5185181
1.5186728
1.5186788
1.5184642
1.5185375
1.5186694
1.5186893
1.5187869
1.5187786
1.5188075
1.5188024
1.5187743
1.518768
1.5187926
1.5188
1.5189058
1.5188883
1.5189219
1.5189087
1.5188756
1.5188733
1.5188922
1.5189028
1.5188802
1.518862
1.5188882
1.5188714
1.5188465
1.5188496
1.5188573
1.5188597
1.5175532
1.5175272
1.5174957
1.5175393
1.5177098
1.5177365
1.5178284
1.5178613
1.5184392
1.5185431
1.5186671
1.5186934
1.5187626
1.5187715
1.5187879
1.5187975
1.5176991
1.5176984
1.5178868
1.5179263
1.518421
1.5185479
1.5185611
1.5183967
1.5186644
1.5186963
1.5187095
1.5186703
1.5183534
1.5179162
1.5181693
1.5186447
1.5188251
1.5185565
1.5187597
1.5190224
1.5191254
1.5188677
1.5189198
1.5191852
1.517477
1.5175328
1.5175349
1.5174624
1.517967
1.5176039
1.5177049
1.5180873
1.5173325
1.5173545
1.5173591
1.5173405
1.5173648
1.5173873
1.5173883
1.5174024
1.5173518
1.5173803
1.5173764
1.5173421
1.5173073
1.5173189
1.5173294
1.5173208
1.5177907
1.5174467
1.5174497
1.5177816
1.5177997
1.5174753
1.5175087
1.5178463
1.518758
1.5187693
1.5187773
1.5187612
1.5192097
1.5189548
1.5189747
1.5192224
1.5192438
1.5189857
1.5190012
1.519271
1.5187956
1.5187842
1.5188025
1.5187905
1.5172623
1.5172723
1.5172453
1.5172416
1.5172222
1.5172292
1.5172375
1.5172548
1.5172564
1.5172408
1.5172884
1.5173051
1.5172515
1.5172695
1.5172544
1.5172712
1.5172853
1.5172927
1.5172674
1.5172795
1.5172192
1.5172103
1.5172004
1.517212
1.51765
1.5173292
1.5173366
1.5176462
1.5172312
1.5172272
1.5172197
1.5172244
1.5173452
1.5173447
1.5176472
1.5176531
1.5172445
1.5172408
1.5172325
1.5172377
1.5172718
1.5172571
1.51725
1.5172674
1.5176622
1.517358
1.5173624
1.5176654
1.5173949
1.5173765
1.5176805
1.5177143
1.5173766
1.5173683
1.5173166
1.5173302
1.5173522
1.517347
1.5173019
1.5172926
1.5188379
1.5188428
1.5188494
1.5188528
1.5188645
1.5188681
1.5188836
1.5188978
1.5188629
1.5188584
1.5188601
1.518867
1.5188947
1.5188779
1.5188814
1.5188995
1.519284
1.5190414
1.5190518
1.5192888
1.5190931
1.5190705
1.5193126
1.5193528
1.5188378
1.5188318
1.5188326
1.5188422
1.5192651
1.5190136
1.5190248
1.51926
1.518848
1.5188441
1.5188503
1.5188535
1.519037
1.5190324
1.5192535
1.5192685
1.5170388
1.5168795
1.5168963
1.516994
1.5167953
1.5172975
1.5172724
1.5171953
1.5171929
1.5172234
1.5170435
1.5170213
1.5170468
1.5170166
1.5170434
1.517009
1.5168585
1.5167671
1.5167026
1.5168675
1.516874
1.5166763
1.517256
1.5172452
1.5171964
1.5172153
1.517169
1.517192
1.5172218
1.5172143
1.5171746
1.5171633
1.5171343
1.5171457
1.5170968
1.5171147
1.5171185
1.5171035
1.517112
1.5171287
1.5171309
1.5171161
1.5170858
1.5170945
1.5170887
1.5170781
1.5172153
1.5172246
1.5175527
1.5175579
1.5170958
1.5171019
1.5171071
1.5171016
1.5175521
1.5172362
1.5172282
1.5175513
1.5171314
1.5171497
1.5171361
1.5171523
1.5171725
1.5171813
1.517155
1.5171699
1.5175741
1.5172484
1.5172544
1.5175756
1.5175998
1.5172783
1.5172914
1.5176246
1.5171266
1.5171206
1.517121
1.5171132
1.5171632
1.517145
1.5171605
1.5171385
1.5156717
1.5158505
1.5163491
1.5167801
1.5153842
1.5168652
1.5168616
1.5168864
1.5168954
1.5166898
1.5166191
1.5165789
1.5167045
1.5165367
1.516554
1.5167142
1.5167276
1.5168572
1.5168582
1.5169003
1.5169082
1.5171849
1.5167217
1.5169066
1.5173139
1.5174039
1.5170287
1.5170677
1.5174403
1.5169972
1.517005
1.5169998
1.5169866
1.517024
1.5170327
1.5170421
1.5170385
1.5169793
1.5169962
1.5169745
1.5169958
1.5174745
1.5171244
1.5171416
1.5174796
1.5170166
1.5170186
1.5170359
1.5170368