/*--------------------------------*- C++ -*----------------------------------*\
  =========                 |
  \\      /  F ield         | OpenFOAM: The Open Source CFD Toolbox
   \\    /   O peration     | Website:  https://openfoam.org
    \\  /    A nd           | Version:  7
     \\/     M anipulation  |
\*---------------------------------------------------------------------------*/
FoamFile
{
    version     2.0;
    format      ascii;
    class       volScalarField;
    location    "2000";
    object      nut;
}
// * * * * * * * * * * * * * * * * * * * * * * * * * * * * * * * * * * * * * //

dimensions      [0 2 -1 0 0 0 0];

internalField   nonuniform List<scalar> 
34378
(
1.0582894e-89
2.5581301e-89
2.5614152e-90
1.027642e-89
8.701017e-91
3.8937088e-90
3.1639223e-91
5.1616498e-91
9.1233838e-90
4.1605707e-91
9.795265e-90
3.5104944e-89
1.0645074e-90
1.4581297e-90
6.5472728e-91
4.1443373e-91
4.5831826e-90
3.1001592e-90
7.4330158e-91
7.3939499e-91
1.4682144e-90
6.5185107e-91
3.4142035e-91
1.7843763e-91
5.1633459e-91
3.3214152e-91
3.0159668e-91
2.6453302e-91
2.6445605e-91
3.0915492e-91
6.9021358e-91
2.6409571e-91
2.0620357e-91
4.7139916e-90
6.2187015e-91
5.5601022e-91
2.1742416e-91
1.6288371e-91
5.5574777e-91
6.8906713e-91
6.0687438e-91
6.3480318e-91
4.477265e-90
1.2025547e-89
4.8886462e-90
5.1390796e-91
1.0362474e-89
4.4236656e-91
4.962673e-91
1.7392184e-90
3.121164e-91
2.714772e-91
5.6036518e-91
5.9165288e-91
3.7642046e-91
4.1537745e-91
4.1849529e-91
5.795311e-91
1.6332249e-90
1.1969739e-90
4.9670365e-91
1.2161248e-90
5.3099755e-91
5.0672569e-91
5.7157513e-91
4.2548477e-91
4.9562547e-91
1.8413924e-91
3.0203466e-91
2.2242227e-91
2.2563755e-91
2.8728213e-91
3.0202413e-91
2.4353988e-91
1.6899213e-91
1.2417082e-91
1.3414086e-91
1.569373e-91
8.0974807e-92
2.0561399e-91
1.3864872e-91
7.6055732e-92
8.8633865e-92
9.1462875e-92
3.9536936e-91
3.6854663e-91
3.82942e-91
4.7840838e-91
2.6454452e-91
2.8745246e-91
2.5993825e-91
2.5068849e-91
2.2953225e-91
2.3414521e-91
2.0172439e-91
1.8127255e-91
2.2455606e-91
2.8142216e-91
2.4026102e-91
2.1164565e-91
3.1664654e-91
2.6818784e-91
2.442244e-91
1.8339207e-91
1.7119534e-91
5.1231092e-91
5.2625049e-91
2.3281764e-90
2.5076308e-90
3.6515013e-91
3.2120012e-91
5.0779643e-91
4.8701528e-91
5.7905838e-91
2.2640447e-91
2.3103148e-91
6.3890506e-91
1.653069e-91
1.5011737e-91
2.2641057e-91
2.1530032e-91
6.5630965e-91
3.4406395e-91
3.1896026e-91
4.8299629e-91
4.8833978e-91
3.4174911e-91
3.3659607e-91
5.116414e-91
5.0640276e-91
4.9166527e-91
5.0816832e-91
2.2041911e-90
4.7119907e-90
2.6929536e-90
4.6239345e-90
6.1266388e-91
4.9008594e-91
4.6935606e-91
2.3838212e-90
2.4217915e-90
5.9503276e-91
2.0028565e-91
2.1592255e-91
5.7075737e-91
6.970819e-91
7.2900558e-91
6.5748661e-90
5.1624843e-90
5.2753778e-91
1.893771e-91
2.0313947e-91
1.7860155e-91
1.4737391e-91
2.2528395e-91
2.1636249e-91
1.7563834e-91
1.7732229e-91
5.141028e-91
2.7058351e-91
2.290838e-91
2.3409077e-91
2.3514434e-91
2.0382198e-91
2.1297037e-91
2.4000535e-91
2.3070794e-91
2.0853696e-91
2.0512932e-91
5.5569297e-91
5.3727136e-91
3.3064194e-91
3.0734354e-91
4.6125137e-91
4.7203001e-91
2.8738396e-91
2.6994043e-91
2.886901e-91
5.1544548e-91
4.8776568e-91
2.6709082e-91
2.1449913e-91
2.3527822e-91
2.5146324e-91
2.0646065e-91
2.5788148e-91
2.4524728e-91
2.6101597e-91
2.5977331e-91
1.0991924e-91
1.3179494e-91
1.9072172e-91
1.2750388e-91
2.3968495e-91
2.1284435e-91
2.0060565e-91
2.0005124e-91
2.3760001e-91
2.2520843e-91
2.0088872e-91
2.1035217e-91
1.4477962e-91
1.8237722e-91
1.5794142e-91
1.6132739e-91
2.0449202e-91
1.9321537e-91
1.8114924e-91
1.7784483e-91
1.5037294e-91
1.4621913e-91
1.4597182e-91
1.4345363e-91
1.1829597e-91
1.3272897e-91
1.2560277e-91
1.2275395e-91
9.1773691e-92
1.0390452e-91
9.9085627e-92
9.3279637e-92
8.1606362e-92
8.1810287e-92
7.8773768e-92
7.9862211e-92
7.6784154e-92
8.284945e-92
8.3083711e-92
8.6547599e-92
7.8678029e-92
8.5803346e-92
1.0614291e-91
1.0464287e-91
1.0160267e-91
1.003199e-91
9.890832e-92
8.3672965e-92
1.0878291e-91
1.1608969e-91
1.1192648e-91
1.0942983e-91
8.586383e-92
8.2377767e-92
8.7675585e-92
8.7823271e-92
7.7465651e-92
7.695519e-92
8.5195614e-92
9.3961184e-92
6.2119174e-92
4.211693e-92
5.6429059e-92
6.5164246e-92
4.1453488e-92
2.5523141e-91
2.0548973e-91
5.4720102e-92
4.0055397e-92
6.6546934e-92
5.7575679e-92
3.9579321e-92
1.4097506e-91
1.4922541e-91
1.4235451e-91
1.4382605e-91
2.104649e-91
2.2767583e-91
1.9978542e-91
2.2303511e-91
1.5938917e-91
1.5973357e-91
1.5218519e-91
1.3662752e-91
1.4357239e-91
1.4149076e-91
1.4760965e-91
1.4797519e-91
1.3542618e-91
1.3446569e-91
1.0898508e-91
1.1946112e-91
1.7776958e-91
1.8766344e-91
2.1710444e-91
2.1037219e-91
1.8652251e-91
1.7785826e-91
1.8907587e-91
1.8419373e-91
2.8330161e-91
2.3014265e-91
6.3363459e-91
6.2477579e-91
4.0541294e-91
3.9140667e-91
3.6612246e-91
2.3066857e-91
2.0242851e-91
2.7254097e-91
2.7984191e-91
1.8271804e-91
1.9802055e-91
2.9070899e-91
2.7551734e-91
1.9852324e-91
2.0572096e-91
1.7007716e-91
1.812847e-91
5.303617e-91
5.1796802e-91
5.4976708e-91
5.3120509e-91
1.7800582e-91
1.7463522e-91
2.0148277e-91
1.9637468e-91
2.0563341e-91
1.487268e-91
1.623402e-91
2.1143973e-91
1.8779661e-91
1.6696695e-91
3.7458139e-91
3.7653503e-91
3.8657834e-91
3.2162479e-91
3.8160964e-91
3.881063e-91
3.3295887e-91
3.3561001e-91
4.8981445e-91
4.8841075e-91
2.0113672e-91
2.0325531e-91
2.015692e-91
2.020053e-91
4.7160681e-91
2.7150769e-91
2.7657262e-91
1.8782389e-91
2.0424795e-91
2.7722286e-91
2.6171562e-91
2.0003647e-91
2.0594834e-91
1.6015071e-91
1.7889686e-91
5.0815437e-91
5.6214764e-91
2.479054e-90
4.8208126e-91
2.4255864e-90
1.7821947e-91
5.9382514e-91
5.8306039e-91
1.7536893e-91
4.9657821e-91
5.2755888e-91
2.5245759e-90
3.0953419e-90
3.2871419e-91
3.0582682e-91
4.5573875e-91
4.5124367e-91
2.7541781e-91
2.7740931e-91
1.8920449e-91
2.0308166e-91
2.7819348e-91
2.6873363e-91
1.9244606e-91
1.9125557e-91
1.6562351e-91
1.582039e-91
5.66905e-91
5.5721044e-91
1.6417747e-91
5.3753069e-91
1.8029441e-91
5.8064458e-91
2.2704059e-91
1.7367147e-91
1.5082166e-91
2.0863049e-91
3.4852682e-91
3.4243673e-91
4.6009101e-91
4.6649759e-91
3.1935382e-91
3.376099e-91
4.4636715e-91
4.7941007e-91
6.1337734e-91
2.8481455e-90
6.0675742e-91
2.980146e-90
5.3899229e-91
2.3929675e-90
5.6595717e-91
2.9356438e-90
2.0651587e-91
1.9564515e-91
1.311603e-91
1.4272342e-91
2.0426795e-91
1.8113463e-91
5.2817451e-92
6.3231573e-92
2.1276108e-91
2.130493e-91
6.1728564e-92
6.1745454e-92
2.1302763e-91
2.0568538e-91
5.9633254e-92
6.4540984e-92
2.2040976e-91
2.1480284e-91
6.3286492e-92
6.3144887e-92
2.0074681e-91
2.0053743e-91
1.5651232e-91
1.5421611e-91
2.1372861e-91
1.9776697e-91
6.9111419e-92
7.5983664e-92
2.3198605e-91
2.276529e-91
7.0508521e-92
6.8602851e-92
2.0772056e-91
1.9868097e-91
6.3362702e-92
7.1202343e-92
2.2169569e-91
2.1114754e-91
6.8838065e-92
6.9471468e-92
2.2376412e-91
2.2354013e-91
1.7884296e-91
1.8154269e-91
2.4643691e-91
2.1973791e-91
1.5584044e-91
1.8145865e-91
4.5243728e-91
1.8426116e-91
1.9411256e-91
1.6046732e-91
1.4938413e-91
2.1500675e-91
1.9944382e-91
1.5295418e-91
1.6306807e-91
2.0156584e-91
1.6008662e-91
2.018494e-91
1.6043665e-91
2.144107e-91
1.9793761e-91
1.4522484e-91
1.5889762e-91
2.0820156e-91
1.9347724e-91
7.0963835e-92
6.3380181e-92
2.0725031e-91
2.0665309e-91
7.0940982e-92
7.4715834e-92
2.0066716e-91
7.0027973e-92
7.5252362e-92
2.1417285e-91
2.1061137e-91
2.0288261e-91
7.3340068e-92
7.5050479e-92
2.1441739e-91
9.135101e-92
6.8419713e-92
7.9202821e-92
6.8081429e-92
6.6969868e-92
7.4549105e-92
7.2073783e-92
8.9323471e-92
9.0374653e-92
8.6785078e-92
8.3688624e-92
1.0938291e-91
1.1406088e-91
1.0690872e-91
1.1478288e-91
8.4089926e-92
8.9986985e-92
1.255707e-91
1.2664298e-91
1.2318219e-91
1.2960384e-91
1.3274431e-91
1.2212668e-91
1.2406429e-91
1.7883052e-91
1.5886961e-91
1.3790586e-91
1.4654717e-91
1.5936621e-91
1.3584844e-91
1.6974078e-91
1.3456135e-91
1.4501123e-91
1.4208027e-91
1.4273011e-91
1.472484e-91
1.9743173e-91
1.7486282e-91
2.1271404e-91
1.7290404e-91
1.7087676e-91
1.7332807e-91
1.5063644e-91
1.4551553e-91
1.2229111e-91
1.2803804e-91
1.2577408e-91
1.1923544e-91
3.9051527e-92
5.6778195e-92
9.437645e-92
6.7360559e-92
1.0528727e-91
7.2455569e-92
1.0825508e-91
1.0701679e-91
9.9267653e-92
9.4753231e-92
9.2177782e-92
7.9572516e-92
9.8884308e-92
8.3102456e-92
1.1180552e-91
7.9110115e-92
1.1337836e-91
7.8047182e-92
1.1571101e-91
1.15961e-91
1.1104594e-91
1.0602556e-91
1.1194009e-91
1.0016215e-91
1.1673898e-91
1.0236234e-91
1.2367366e-91
1.2706793e-91
8.9425129e-92
8.9541813e-92
8.5313537e-92
1.1520462e-91
1.2396641e-91
8.7050222e-92
1.0956989e-91
8.5897073e-92
1.1512175e-91
8.8993823e-92
1.1364243e-91
1.178928e-91
9.8902265e-92
1.0120109e-91
1.1474193e-91
1.1436005e-91
1.0136774e-91
9.9786465e-92
1.0856519e-91
1.0980024e-91
8.7258821e-92
8.6271431e-92
8.9807519e-92
6.7633229e-92
9.6799111e-92
7.202046e-92
1.1014867e-91
1.073257e-91
9.4396555e-92
9.0906666e-92
9.7652647e-92
8.1083324e-92
1.0430984e-91
8.5417644e-92
1.0118165e-91
9.9925139e-92
7.9082378e-92
7.6527767e-92
9.8863184e-92
7.8517337e-92
1.0712123e-91
8.4247227e-92
9.7985903e-92
9.4573711e-92
9.0091147e-92
8.6801911e-92
8.9839642e-92
8.1191839e-92
9.6367058e-92
8.6645328e-92
1.0698805e-91
1.0414606e-91
8.6944249e-92
8.3736317e-92
6.9844908e-92
6.7296446e-92
6.8965707e-92
6.4826078e-92
6.6257913e-92
6.2509016e-92
7.1721564e-92
6.7133102e-92
4.6244989e-92
4.8371882e-92
6.4564085e-92
5.2471846e-92
5.3872624e-92
4.8970618e-92
4.74537e-92
6.3605379e-92
5.2659502e-92
5.550886e-92
7.0997334e-92
6.932025e-92
5.1266429e-92
5.1761144e-92
6.503365e-92
5.7086008e-92
5.7036697e-92
5.2244348e-92
5.3711531e-92
6.6151829e-92
5.9421275e-92
5.9660634e-92
7.3348057e-92
7.2529652e-92
7.7474345e-92
7.513723e-92
7.2432021e-92
7.167299e-92
7.1642254e-92
7.1415679e-92
7.3329919e-92
7.1406222e-92
1.0126535e-91
9.6154338e-92
1.0145642e-91
9.5202556e-92
1.013714e-91
9.532733e-92
1.0543023e-91
9.7894098e-92
1.1464611e-91
9.5313735e-92
1.1991047e-91
9.8257117e-92
1.1435762e-91
9.5230734e-92
1.1464498e-91
9.4314335e-92
5.8262527e-92
6.1354712e-92
7.1208955e-92
6.6543119e-92
5.6961748e-92
5.6850288e-92
6.1374523e-92
5.9511958e-92
1.1220271e-91
9.0828804e-92
1.2001612e-91
9.6484148e-92
1.0710238e-91
1.0753313e-91
1.008814e-91
1.0019498e-91
9.9674839e-92
9.2793359e-92
1.0548772e-91
9.6917017e-92
1.192901e-91
1.2020406e-91
9.8451716e-92
9.7469686e-92
5.4331556e-92
5.5540993e-92
6.8882793e-92
6.2018188e-92
6.1455792e-92
5.0063233e-92
5.2483246e-92
6.4497491e-92
5.8428365e-92
5.7052177e-92
7.6037282e-92
7.5027721e-92
7.8352044e-92
7.5123168e-92
7.1596779e-92
7.0732515e-92
7.7131961e-92
7.4701187e-92
7.3179316e-92
7.3132629e-92
6.8772983e-92
4.9742741e-92
6.8704135e-92
5.5785666e-92
7.0925733e-92
7.5663624e-92
7.7134371e-92
6.0327494e-92
6.3549286e-92
6.9225591e-92
5.7375513e-92
6.370962e-92
7.603234e-92
7.1069833e-92
2.7206205e-92
1.9321823e-92
1.9691716e-92
2.7956281e-92
1.8199743e-92
3.0885852e-92
3.2986412e-92
2.9505127e-92
2.8947817e-92
3.1382932e-92
2.9918601e-92
1.8725155e-92
1.7443754e-92
1.8327333e-92
2.3885433e-92
2.4729309e-92
3.5449408e-92
3.7851143e-92
3.3071594e-92
3.2372932e-92
4.538399e-92
3.9858082e-92
3.8438049e-92
1.8650637e-92
1.7711038e-92
3.4579463e-92
3.8130756e-92
4.2571818e-92
3.4162948e-92
3.151958e-92
1.8256e-92
2.4739228e-92
2.6478485e-92
1.851243e-92
1.8530697e-92
2.442902e-92
2.4028747e-92
1.9085207e-92
3.5110082e-92
3.6140683e-92
4.3738026e-92
3.4702265e-92
1.0445451e-91
1.1282166e-91
8.1586475e-92
8.6484463e-92
1.2092755e-91
1.2190695e-91
1.0573126e-91
1.0434941e-91
1.089941e-91
9.352736e-92
1.1624148e-91
9.8202564e-92
1.1441898e-91
1.1622128e-91
9.1446349e-92
9.0465246e-92
1.1536973e-91
8.7125005e-92
1.3140236e-91
9.5648954e-92
1.2054978e-91
1.1469648e-91
1.2255355e-91
1.1108714e-91
1.0622771e-91
9.7478706e-92
1.1425109e-91
1.0231258e-91
1.3300861e-91
1.3718787e-91
9.9020754e-92
9.8833183e-92
6.3278196e-92
6.3036986e-92
6.4224545e-92
6.3872091e-92
6.0813351e-92
6.7794012e-92
5.9990179e-92
6.1646194e-92
6.2631237e-92
7.5177467e-92
6.6384985e-92
6.522167e-92
6.0710843e-92
6.6629206e-92
6.5478366e-92
6.2284856e-92
5.9758996e-92
6.2511614e-92
6.0873299e-92
6.1502057e-92
1.21923e-91
5.2734964e-92
6.4121646e-92
5.8964093e-92
6.0738205e-92
1.2299234e-91
1.2051362e-91
1.2347685e-91
1.400152e-91
1.4227949e-91
1.535749e-91
1.4069874e-91
1.2987581e-91
1.2809705e-91
1.7516167e-91
1.122029e-91
1.1908958e-91
1.2348981e-91
1.2195791e-91
1.3278837e-91
1.268844e-91
6.564438e-91
6.6941333e-91
2.9736005e-91
2.1878427e-91
1.6247134e-91
3.0323524e-91
1.887536e-91
1.8806794e-91
1.4813005e-91
1.4664229e-91
2.9408979e-91
1.6737219e-91
1.5789313e-91
1.6467673e-91
9.6390023e-92
2.0732382e-91
1.007207e-91
2.1097501e-91
2.2760044e-91
2.2082422e-91
1.0525317e-91
1.0513482e-91
1.6569878e-91
1.6565733e-91
1.0062747e-91
2.1852871e-91
1.048657e-91
2.2098529e-91
2.2894037e-91
2.1945178e-91
1.0500059e-91
1.0431671e-91
5.1769007e-92
5.3852035e-92
5.6570592e-92
4.8686057e-92
5.7514462e-92
5.714496e-92
5.4614938e-92
5.6813027e-92
5.2890544e-92
6.6166636e-92
6.6333896e-92
5.3300725e-92
6.0456513e-92
4.9824837e-92
5.2108149e-92
6.6770824e-92
5.1706653e-92
5.3798459e-92
7.1133515e-92
6.5851551e-92
6.8972659e-92
5.3046571e-92
5.1198641e-92
6.9190179e-92
5.8493273e-92
5.5731877e-92
5.1544849e-92
5.184836e-92
5.6949735e-92
5.7110376e-92
4.8666872e-92
5.5090789e-92
2.4417701e-91
2.4338274e-91
2.1936377e-91
2.2003538e-91
2.5309889e-91
2.2294005e-91
2.15294e-91
2.2962956e-91
3.0118409e-91
3.4999903e-91
3.5447991e-91
1.5204375e-91
1.6116111e-91
3.4743616e-91
3.7449052e-91
3.6760151e-91
1.4054182e-91
1.4062695e-91
3.1114776e-91
1.681402e-91
1.6930197e-91
1.4242356e-91
1.4322776e-91
2.7683972e-91
1.6811977e-91
1.6733913e-91
2.0057737e-91
1.9798094e-91
2.4918667e-91
2.2603813e-91
2.2076472e-91
2.3875167e-91
1.5796982e-91
1.6413822e-91
2.4694425e-91
2.4230138e-91
2.2494821e-91
2.3140592e-91
1.6021969e-91
1.5872305e-91
2.5916654e-91
2.5530897e-91
2.272041e-91
2.3007025e-91
1.595169e-91
1.5726478e-91
2.5568367e-91
2.3838986e-91
2.2626886e-91
2.3936453e-91
1.5839261e-91
1.6209011e-91
2.7535548e-91
2.6182536e-91
1.9918327e-91
1.9978771e-91
2.1130661e-91
2.1070142e-91
9.562195e-92
9.9282758e-92
1.0726757e-91
2.2902949e-91
2.2106376e-91
1.0559643e-91
9.9810181e-92
2.1675429e-91
1.0268605e-91
2.1609277e-91
2.2116892e-91
2.1208387e-91
1.0364678e-91
1.0282907e-91
1.6335405e-91
5.3850128e-92
5.6924935e-92
6.3355424e-92
6.4046403e-92
5.8075227e-92
5.8211528e-92
6.5895756e-92
6.988663e-92
6.0239964e-91
5.6888148e-92
4.9554228e-92
5.0869324e-92
6.1624657e-92
6.2080991e-92
5.3277118e-92
5.1549397e-92
6.2974716e-92
1.6818434e-91
5.8877406e-91
2.7576427e-91
2.7363825e-91
1.9357559e-91
2.0815459e-91
1.8831716e-91
1.7018221e-91
5.5979513e-91
6.3101841e-91
5.5247232e-92
5.759827e-92
6.0183863e-92
6.1567184e-92
6.0695969e-92
5.1840635e-92
5.2809788e-92
6.5736335e-92
6.4318597e-92
5.356056e-92
5.0798588e-92
6.4060893e-92
5.5054986e-92
5.5311809e-92
5.9861967e-92
6.7621785e-92
2.6635131e-91
2.6550948e-91
1.9097942e-91
2.0864379e-91
2.7730998e-91
2.5042389e-91
2.0891454e-91
2.1538819e-91
1.7025246e-91
5.8054803e-91
1.9587374e-91
6.5705923e-91
1.9438993e-91
2.0448587e-91
6.6746571e-91
7.0764231e-91
1.9752134e-91
1.879544e-91
2.1522583e-91
2.1565414e-91
9.7643208e-92
1.0210874e-91
1.0806634e-91
2.2828302e-91
2.2191942e-91
1.0759692e-91
9.9837824e-92
2.1428155e-91
1.0349164e-91
2.1466106e-91
2.1716863e-91
2.1305857e-91
1.0221847e-91
1.0166901e-91
5.6537494e-92
5.4327346e-92
5.5833716e-92
5.1312391e-92
5.236773e-92
5.3354601e-92
5.373978e-92
4.7631899e-92
6.338765e-92
5.1490475e-92
5.2990529e-92
6.8441095e-92
5.1320436e-92
5.1870205e-92
6.6694022e-92
6.5491914e-92
5.7181318e-92
5.3715447e-92
6.3335563e-92
5.8708926e-92
5.9786759e-92
4.9956619e-92
5.1745001e-92
6.5899442e-92
5.8165787e-92
5.7627173e-92
6.2882846e-92
5.8194505e-92
5.2279389e-92
5.2511758e-92
6.6790455e-92
6.7522563e-92
3.3271853e-91
3.7911397e-91
3.6601105e-91
1.7426284e-91
1.4904689e-91
2.9125808e-91
3.7786593e-91
3.4218308e-91
2.0206819e-91
1.9708858e-91
1.980816e-91
1.9589841e-91
2.8151496e-91
2.0027746e-91
2.7419873e-91
2.1731172e-91
1.8005123e-91
5.7693925e-91
2.0302332e-91
6.4641796e-91
2.7755725e-91
2.5549783e-91
2.1099406e-91
2.1831982e-91
6.4691276e-91
6.6294861e-91
1.9467891e-91
2.0232639e-91
2.7300846e-90
2.8063847e-91
2.7673773e-91
2.1781149e-91
2.012949e-91
1.7672962e-91
2.0115547e-91
5.5710929e-91
6.2729398e-91
2.1912515e-91
2.2470806e-91
2.8414952e-91
2.5897036e-91
2.0517494e-91
6.529942e-91
2.1827206e-91
6.5998321e-91
2.2174094e-91
1.9297623e-91
1.8153318e-91
5.2312907e-92
5.6617881e-92
1.9879778e-91
1.9654265e-91
5.3761903e-92
5.3218077e-92
7.6525271e-92
7.0686293e-92
7.8663778e-92
7.8224562e-92
8.4493118e-92
7.9781553e-92
7.8351039e-92
7.9183095e-92
1.9406495e-91
1.8595237e-91
5.2035877e-92
5.8708248e-92
1.9875956e-91
2.0900434e-91
5.6621644e-92
5.4137337e-92
9.267991e-92
8.5213436e-92
9.0996131e-92
8.8924283e-92
8.9330572e-92
8.4176726e-92
8.2085727e-92
8.4483823e-92
2.3846673e-91
2.1968494e-91
6.1275852e-92
6.7897717e-92
2.4434844e-91
2.3713611e-91
6.6516924e-92
6.4021708e-92
2.1293447e-91
2.1345455e-91
6.5693252e-92
6.8446618e-92
2.2750647e-91
2.3934822e-91
6.1195617e-92
5.8043109e-92
1.951951e-91
1.7624964e-91
1.563895e-91
1.4051817e-91
1.9662428e-91
1.8178619e-91
4.9355549e-92
5.5520602e-92
2.0264182e-91
2.1276071e-91
5.5293014e-92
5.4195516e-92
2.0815401e-91
2.0248304e-91
5.4832053e-92
5.8580623e-92
2.0665938e-91
2.18081e-91
5.6586685e-92
5.5141619e-92
1.9356846e-91
2.0890577e-91
5.8977924e-92
5.3979711e-92
2.2093658e-91
2.0704342e-91
5.6551269e-92
5.5572026e-92
1.9740269e-91
1.9533026e-91
5.2952911e-92
5.8554789e-92
2.0422711e-91
2.0906021e-91
5.4557581e-92
5.3082491e-92
8.471251e-92
7.8791798e-92
8.7586733e-92
8.7693708e-92
8.9423965e-92
9.3146837e-92
9.0158787e-92
8.638391e-92
1.0556463e-91
1.0623377e-91
8.5081928e-92
8.495276e-92
5.8239015e-92
6.0848109e-92
4.9004017e-92
5.0139989e-92
4.9681599e-92
6.1783935e-92
5.2757951e-92
4.4813362e-92
4.5400919e-92
4.9817935e-92
4.9551954e-92
4.3377989e-92
4.3357652e-92
4.6961725e-92
4.6917083e-92
6.2714521e-92
6.1925526e-92
6.6760757e-92
6.4212944e-92
6.1498464e-92
6.0357391e-92
6.2180188e-92
5.9677692e-92
8.660268e-92
8.5222291e-92
8.1918478e-92
7.9906304e-92
8.753213e-92
8.2229121e-92
9.1025284e-92
8.4187874e-92
9.9393305e-92
8.250139e-92
1.0371032e-91
8.4552778e-92
9.7385808e-92
8.0226754e-92
9.6172628e-92
7.8465244e-92
1.1417669e-91
9.2906247e-92
1.1776234e-91
9.4685272e-92
1.0448085e-91
9.8553341e-92
1.0476884e-91
9.747445e-92
1.1597877e-91
9.5404237e-92
1.1612747e-91
9.3486341e-92
1.0330866e-91
9.4567971e-92
1.0654688e-91
9.5948119e-92
5.4030284e-92
5.9859278e-92
7.6404173e-92
7.5636933e-92
7.2862923e-92
7.5991095e-92
7.3059508e-92
9.6424248e-92
1.0034413e-91
7.5025968e-92
7.6728456e-92
1.0124091e-91
1.0387641e-91
8.6939616e-92
8.8251574e-92
9.9582866e-92
7.9154291e-92
1.0107202e-91
7.7788663e-92
1.0357457e-91
1.0450972e-91
9.0257452e-92
8.9699257e-92
9.2752901e-92
1.1003309e-91
9.3038613e-92
8.7327701e-92
9.132471e-92
7.0396068e-92
9.9183397e-92
7.4997175e-92
1.0126489e-91
7.8788128e-92
1.037454e-91
7.9360345e-92
1.0883143e-91
9.9246669e-92
1.1175654e-91
9.7680517e-92
9.5034217e-92
8.4836301e-92
1.0337567e-91
8.7997432e-92
9.8792962e-92
6.9701826e-92
1.1172154e-91
7.3766687e-92
1.1498274e-91
7.701676e-92
1.2075011e-91
7.6655295e-92
1.0088318e-91
9.0107862e-92
1.0452757e-91
9.0561365e-92
1.0691526e-91
1.1580776e-91
7.6071564e-92
7.5103626e-92
1.0720096e-91
9.9766211e-92
1.0775705e-91
9.5158756e-92
1.155715e-91
7.82779e-92
1.1827895e-91
7.5987257e-92
1.1278789e-91
1.1619369e-91
9.6347862e-92
9.7664499e-92
1.0816695e-91
1.1306326e-91
8.5199432e-92
8.6424497e-92
1.1276076e-91
1.1235932e-91
8.8755037e-92
8.5869879e-92
1.1819672e-91
1.030702e-91
1.1817279e-91
1.0037372e-91
1.1418749e-91
1.1845723e-91
1.0229376e-91
1.016538e-91
1.2061682e-91
8.4157211e-92
1.3068034e-91
8.4816162e-92
1.2041669e-91
1.0928196e-91
1.209101e-91
1.0466319e-91
8.640405e-92
1.2805486e-91
1.308556e-91
8.1947815e-92
9.9822216e-92
9.3921603e-92
9.7785691e-92
8.7502362e-92
1.0137294e-91
9.0880865e-92
1.0575019e-91
9.1945053e-92
1.0363908e-91
7.2903187e-92
1.1356678e-91
7.4618616e-92
1.0761429e-91
7.3508241e-92
1.0861889e-91
7.2341726e-92
9.7996066e-92
8.5930498e-92
9.6315801e-92
8.3171112e-92
9.5679876e-92
1.0039614e-91
7.6489858e-92
7.7734269e-92
9.8773335e-92
8.5854793e-92
1.0241245e-91
8.7145475e-92
9.2997613e-92
7.3982706e-92
9.2636514e-92
7.2017576e-92
1.7227986e-92
3.6221221e-92
2.8457149e-92
2.3808166e-92
2.5139744e-92
1.9530846e-92
1.9304669e-92
3.2050128e-92
3.1266217e-92
3.0572081e-92
3.2838371e-92
3.4373996e-92
2.7537825e-92
2.8415126e-92
4.0009528e-92
3.2156986e-92
3.1542798e-92
3.2058147e-92
3.122512e-92
3.6517987e-92
2.7812673e-92
3.7540554e-92
2.7980438e-92
2.9963545e-92
2.8105259e-92
2.8393302e-92
3.0198597e-92
2.9646762e-92
2.9478752e-92
2.7830057e-92
2.7805906e-92
2.6626394e-92
2.9157901e-92
2.6404545e-92
3.0867833e-92
2.897077e-92
2.5864834e-92
2.8614474e-92
2.5712803e-92
2.6723242e-92
2.8037028e-92
2.6350528e-92
2.8733409e-92
2.7164478e-92
2.4138135e-92
2.4736873e-92
2.9079604e-92
2.7023508e-92
2.8722696e-92
2.6919732e-92
2.8950836e-92
2.7773367e-92
2.4766632e-92
2.837471e-92
2.4692682e-92
3.2558263e-92
3.2230792e-92
3.1928375e-92
3.3485085e-92
2.9496549e-92
3.7026405e-92
3.8779305e-92
2.9082566e-92
3.2204525e-92
3.2538047e-92
3.2003354e-92
3.2031559e-92
2.8849172e-92
3.8483782e-92
2.9167486e-92
3.7653283e-92
3.1990755e-92
3.0297853e-92
3.0652135e-92
3.237373e-92
3.2144587e-92
3.2310761e-92
3.0658097e-92
3.0385418e-92
2.8913834e-92
3.1255269e-92
2.8581423e-92
3.3188361e-92
3.1664832e-92
2.8464292e-92
3.1338574e-92
2.8390575e-92
3.2352168e-92
3.3719056e-92
3.1423779e-92
3.4904339e-92
3.181292e-92
2.8341086e-92
2.9112986e-92
3.4263863e-92
3.204042e-92
3.3984498e-92
3.1744717e-92
3.4249245e-92
3.2031068e-92
2.8609909e-92
3.277906e-92
2.8573963e-92
3.4831426e-92
3.4721233e-92
3.4507161e-92
3.592431e-92
3.5356217e-92
3.5604036e-92
3.552534e-92
3.530327e-92
3.1616049e-92
3.1689928e-92
3.9269935e-92
4.1485527e-92
4.1919906e-92
4.127613e-92
3.2287978e-92
3.2835987e-92
4.0555996e-92
3.1690157e-92
3.4335372e-92
4.4103143e-92
3.552872e-92
3.5571799e-92
3.50941e-92
3.713326e-92
3.6267745e-92
3.6064565e-92
3.546598e-92
3.5198358e-92
4.1983168e-92
4.1550355e-92
3.1625918e-92
3.1748813e-92
4.0171884e-92
4.3218691e-92
3.9219284e-92
4.4657363e-92
3.8822975e-92
3.1839577e-92
3.2725521e-92
4.1127852e-92
4.0535652e-92
4.3511088e-92
3.9669198e-92
4.4865905e-92
3.8744807e-92
3.1888847e-92
4.0598851e-92
3.2329106e-92
5.3392488e-92
4.7942363e-92
4.8723842e-92
5.377597e-92
5.3644357e-92
4.8430876e-92
4.9394526e-92
5.4422133e-92
4.7880982e-92
3.9485249e-92
4.0008223e-92
4.9495747e-92
4.776742e-92
3.9531315e-92
3.9923796e-92
4.9201286e-92
5.0343378e-92
4.5206456e-92
4.5919119e-92
5.0614493e-92
5.0932934e-92
5.1118657e-92
4.6325024e-92
4.6057131e-92
4.5074306e-92
3.7464257e-92
3.7894486e-92
4.6411905e-92
4.5827167e-92
4.5475948e-92
3.7807804e-92
3.7833788e-92
4.0352993e-92
3.6426643e-92
3.7090811e-92
4.1499321e-92
4.111173e-92
4.1149951e-92
3.7493631e-92
3.7076323e-92
3.0401106e-92
3.0917797e-92
3.638988e-92
3.7608496e-92
3.6912961e-92
3.695711e-92
3.0716272e-92
3.0625753e-92
3.2285598e-92
3.5633946e-92
3.1784105e-92
3.641711e-92
3.1312089e-92
2.5613645e-92
2.6112195e-92
3.2989248e-92
3.7232239e-92
3.3304394e-92
3.6654122e-92
3.2714493e-92
3.2077362e-92
2.625064e-92
3.2890214e-92
2.6552776e-92
4.8507561e-92
4.3090272e-92
4.3804366e-92
4.9017962e-92
4.6804103e-92
4.204819e-92
4.2954442e-92
4.7419882e-92
3.5626928e-92
4.2810412e-92
3.5246785e-92
4.4596343e-92
3.4463356e-92
4.151121e-92
3.4242983e-92
4.2502317e-92
4.0225451e-92
4.4726459e-92
3.9683113e-92
4.5536191e-92
3.9260936e-92
3.1912283e-92
3.2327681e-92
4.0865916e-92
4.1907384e-92
4.6186463e-92
4.092439e-92
4.715477e-92
4.0216677e-92
3.2858319e-92
4.1516261e-92
3.3260597e-92
3.8174949e-92
3.4233002e-92
3.4568761e-92
3.9058587e-92
3.749821e-92
3.4053815e-92
3.8415599e-92
3.422336e-92
2.8322268e-92
2.8541257e-92
3.4281932e-92
3.5095746e-92
3.4083305e-92
3.3646104e-92
2.7813069e-92
2.8056222e-92
5.1395638e-92
5.7962283e-92
5.0541381e-92
5.9198646e-92
5.0954984e-92
4.1266012e-92
4.1700625e-92
5.2872521e-92
6.2089727e-92
5.4321898e-92
6.119157e-92
5.3166687e-92
5.2949295e-92
4.2722645e-92
5.4405175e-92
4.3505485e-92
8.6322198e-92
7.3063684e-92
7.4237619e-92
8.6891929e-92
8.2191173e-92
8.1338323e-92
6.9686975e-92
7.0360125e-92
5.7262252e-92
7.1458663e-92
5.6943135e-92
7.3366586e-92
6.8601592e-92
5.4527086e-92
6.7717132e-92
5.4097419e-92
6.7148694e-92
7.7227738e-92
6.5081096e-92
8.0088583e-92
6.4252574e-92
5.0740852e-92
5.1537106e-92
6.6810994e-92
7.3150894e-92
8.4108773e-92
7.0716314e-92
8.5865421e-92
6.8810283e-92
5.4215467e-92
7.1025364e-92
5.4688095e-92
6.2997147e-92
5.5210698e-92
5.5653347e-92
6.4256812e-92
6.0279321e-92
5.3408224e-92
6.1019914e-92
5.3824197e-92
4.5861915e-92
4.6129215e-92
5.6282164e-92
5.7251991e-92
5.4421361e-92
5.372444e-92
4.3991498e-92
4.4368925e-92
1.2487942e-91
1.262677e-91
1.0153323e-91
1.0335048e-91
1.0311496e-91
7.8032356e-92
7.9017247e-92
1.0099365e-91
1.1333297e-91
1.1448663e-91
9.6954124e-92
9.630834e-92
9.5098035e-92
9.6198411e-92
7.3513885e-92
7.4008573e-92
9.1491048e-92
1.1041349e-91
8.9466531e-92
1.1128822e-91
8.9090314e-92
6.8245257e-92
6.9749023e-92
9.1559352e-92
1.0209082e-91
1.2162228e-91
1.0084072e-91
1.2189707e-91
9.8923822e-92
7.5035714e-92
1.0280945e-91
7.6176439e-92
1.8177431e-91
1.8120214e-91
1.230579e-91
1.2583736e-91
1.3813705e-91
1.3974528e-91
2.019999e-91
2.0334432e-91
4.182883e-92
4.0926072e-92
3.5952412e-92
3.6773121e-92
1.1147493e-91
1.2767299e-91
1.9854958e-91
2.0128932e-91
1.3845717e-91
1.4080138e-91
1.2841307e-91
1.3213117e-91
1.8358872e-91
1.9051884e-91
3.7728615e-92
4.1419453e-92
4.0420596e-92
3.5440058e-92
1.1602693e-91
1.2680553e-91
3.6662629e-92
3.9872457e-92
3.671589e-92
3.5043467e-92
3.7959201e-92
3.7421598e-92
3.5435602e-92
3.5829549e-92
2.0057022e-91
2.0056189e-91
1.3931754e-91
1.4140637e-91
1.3812404e-91
1.4057937e-91
1.9865137e-91
2.003419e-91
4.0126585e-92
4.3680808e-92
4.4967372e-92
3.9781738e-92
1.2353247e-91
1.2704974e-91
1.9727064e-91
2.00485e-91
1.3683125e-91
1.4009446e-91
1.4586812e-91
1.4871809e-91
2.0858592e-91
2.1297124e-91
4.1596958e-92
4.6540419e-92
4.6698572e-92
4.1547069e-92
1.2963126e-91
1.2094227e-91
1.2468828e-91
1.2703076e-91
1.048007e-91
1.0305392e-91
1.0513558e-91
1.0778683e-91
8.2124068e-92
8.3481797e-92
1.1028676e-91
1.2977707e-91
1.085096e-91
1.3077279e-91
8.4532658e-92
1.0844892e-91
1.1104719e-91
8.57073e-92
4.1201577e-92
4.3150277e-92
4.2126498e-92
4.0189274e-92
4.0482282e-92
4.1743181e-92
3.9188018e-92
3.9351051e-92
1.0455383e-91
1.2608692e-91
1.0316161e-91
1.2728949e-91
8.1384303e-92
1.045919e-91
1.066719e-91
8.2244174e-92
1.0357769e-91
1.2357161e-91
1.0346298e-91
1.2303106e-91
8.1019487e-92
1.035932e-91
1.044309e-91
8.1243274e-92
7.5147237e-92
8.7125189e-92
7.4407924e-92
8.8283291e-92
7.4119681e-92
5.9581524e-92
6.0334319e-92
7.5496166e-92
8.8069148e-92
7.5706684e-92
8.7879365e-92
7.5567965e-92
7.4082549e-92
5.9524114e-92
7.4682055e-92
5.985189e-92
7.7594431e-92
8.9323849e-92
7.6721887e-92
9.0892683e-92
7.6619156e-92
7.8087369e-92
6.1322889e-92
6.186727e-92
8.0348016e-92
9.2131775e-92
7.879681e-92
9.3918656e-92
6.2053675e-92
7.7451407e-92
7.9560875e-92
6.2926995e-92
6.0111528e-92
6.7495908e-92
5.9787303e-92
6.8271412e-92
5.0210936e-92
6.106314e-92
6.2069248e-92
5.0569415e-92
6.9912718e-92
6.1704957e-92
6.8585353e-92
6.0738833e-92
5.0164503e-92
6.1014386e-92
6.2431294e-92
5.0849431e-92
5.7535716e-92
6.4783027e-92
5.732529e-92
6.5654435e-92
4.793069e-92
5.8075706e-92
5.9188312e-92
4.8259615e-92
6.5675583e-92
5.8273988e-92
6.534889e-92
5.8318095e-92
4.8318274e-92
5.8444683e-92
5.881801e-92
4.8352805e-92
3.137276e-92
3.4289187e-92
3.2990597e-92
3.2096829e-92
3.2671816e-92
3.1915013e-92
3.2426616e-92
3.2830245e-92
3.4243551e-92
3.736393e-92
3.7818591e-92
3.377519e-92
3.31965e-92
3.6007144e-92
3.6385673e-92
3.2524557e-92
3.0866892e-92
3.0054076e-92
3.0233374e-92
2.9265766e-92
3.2274996e-92
2.8851785e-92
2.8952543e-92
3.0189971e-92
3.3192062e-92
3.3239521e-92
2.9581144e-92
3.0114682e-92
3.0907581e-92
3.4609343e-92
3.2050702e-92
2.8772739e-92
5.6804999e-92
6.3368894e-92
5.5808492e-92
6.4859265e-92
5.6197522e-92
4.5916402e-92
4.6580726e-92
5.848707e-92
6.839612e-92
6.0556826e-92
6.7228936e-92
5.9236465e-92
5.8994491e-92
4.8145889e-92
6.0639117e-92
4.9052522e-92
9.1752596e-92
7.8367782e-92
8.009544e-92
9.2878856e-92
9.4286257e-92
9.3670711e-92
8.0832169e-92
8.1428808e-92
6.3236219e-92
7.7533519e-92
6.2578369e-92
7.9937351e-92
8.0225932e-92
6.4153123e-92
7.9153835e-92
6.3661775e-92
7.4250488e-92
8.4459442e-92
7.203133e-92
8.6380067e-92
7.1346541e-92
5.7004772e-92
5.7915835e-92
7.4312635e-92
8.0182651e-92
9.0693636e-92
7.7436335e-92
9.312406e-92
7.5769877e-92
6.0493585e-92
7.8512113e-92
6.1198137e-92
6.8172891e-92
6.0531754e-92
6.121497e-92
6.9928956e-92
7.0409604e-92
6.2895757e-92
7.1189551e-92
6.3168109e-92
5.0819643e-92
5.1387002e-92
6.1611574e-92
6.3082848e-92
6.3904516e-92
6.3124111e-92
5.2054131e-92
5.2310664e-92
2.0394787e-91
2.0997345e-91
1.4361054e-91
1.4750753e-91
1.4565789e-91
1.4730669e-91
2.0747061e-91
2.0955163e-91
4.2988694e-92
4.6955693e-92
4.8286545e-92
4.2704815e-92
1.2925399e-91
1.3181691e-91
1.9521997e-91
1.9290341e-91
1.3254619e-91
1.3486111e-91
1.4586951e-91
1.4924864e-91
2.1083692e-91
2.1781904e-91
3.9639323e-92
4.4612605e-92
4.5121423e-92
4.037149e-92
1.3346132e-91
1.213007e-91
1.312498e-91
1.331271e-91
1.0769657e-91
1.0908292e-91
1.1181749e-91
8.524434e-92
8.6435222e-92
1.095853e-91
1.3145108e-91
1.3002079e-91
1.097587e-91
1.0991137e-91
1.1035185e-91
1.1084974e-91
8.5931918e-92
8.633725e-92
9.9642025e-92
1.2098413e-91
9.8289968e-92
1.2193612e-91
1.0019904e-91
7.7537375e-92
7.9149693e-92
1.0244814e-91
1.0983729e-91
1.3036479e-91
1.0796172e-91
1.3137331e-91
1.0764313e-91
8.3114756e-92
1.1039251e-91
8.4774682e-92
3.9853801e-92
4.2298903e-92
4.2123304e-92
3.957795e-92
4.3850054e-92
4.4469704e-92
4.1804922e-92
4.2104309e-92
3.9976296e-92
4.3717688e-92