/*--------------------------------*- C++ -*----------------------------------*\
  =========                 |
  \\      /  F ield         | OpenFOAM: The Open Source CFD Toolbox
   \\    /   O peration     | Website:  https://openfoam.org
    \\  /    A nd           | Version:  7
     \\/     M anipulation  |
\*---------------------------------------------------------------------------*/
FoamFile
{
    version     2.0;
    format      ascii;
    class       volScalarField;
    location    "2000";
    object      omega;
}
// * * * * * * * * * * * * * * * * * * * * * * * * * * * * * * * * * * * * * //

dimensions      [0 0 -1 0 0 0 0];

internalField   nonuniform List<scalar> 
34378
(
2352.4257
4638.6644
4119.8695
2309.4926
924.72534
4249.9511
953.06492
1337.4023
9521.7505
1340.7531
9432.7878
4594.5777
7493.9451
7948.2116
2054.8953
1953.9269
4166.3979
4065.6981
922.94179
953.69831
8034.6259
2058.2314
856.62922
792.38239
505.71733
2240.7122
2224.2325
2143.1199
957.22778
944.80656
2090.4121
762.19561
769.85266
18950.246
4651.4239
1332.1236
764.57836
767.01512
2115.4282
2102.4915
4704.1903
4677.8392
18665.072
9381.5602
18948.638
1346.6045
9375.6081
12752.512
13229.429
7485.8985
4491.0181
4369.4144
13797.064
13684.698
4724.263
4673.995
1984.251
2063.3763
8040.9419
7574.3795
1956.4183
7692.5335
1991.582
13649.916
14021.654
4677.1717
4782.9754
792.18824
851.20357
866.36607
1951.8388
2035.8137
2011.2214
1952.5894
1641.9571
1489.2483
1515.3246
1695.4325
688.33649
1701.0419
1526.5361
697.00826
619.07211
618.98208
489.13955
490.47367
499.79839
498.3243
2027.3239
2037.8011
5292.2667
5198.695
5188.8182
5199.0024
4976.8306
4890.2265
2106.7383
2232.6445
2139.5803
2146.1197
654.54203
655.29884
2270.4438
784.08093
790.40532
13071.715
13120.192
33244.718
33625.067
3631.688
3613.0816
6820.6696
6797.8453
2059.5765
750.72657
765.07818
2104.3901
785.54875
789.05561
2299.4617
2288.6783
4688.2558
3664.9697
3670.0184
6887.7141
6856.31
3643.6424
3636.5486
6805.3721
6865.4843
13140.635
13137.504
32558.053
18613.409
33124.785
18718.491
4605.7728
13206.89
13095.895
33282.61
33531.979
2126.7954
765.55866
761.7773
2105.0367
4718.3499
4677.0962
18725.917
18642.175
12691.104
20562.206
21205.047
8017.7342
7897.0725
21666.912
21397.1
8178.3558
8145.7815
12979.046
4351.2274
4359.0549
22383.435
22763.783
8551.027
8623.8625
22281.269
21999.302
8524.1294
8442.4595
13846.044
13937.531
4744.6943
4755.6279
12851.674
13309.397
4484.1426
4361.9474
4427.1183
13194.223
13208.101
4530.6823
21835.904
22538.481
8549.5495
8432.5697
22881.458
22688.574
8743.0175
8655.6554
1455.3392
1618.8546
1697.791
1525.3595
1942.0754
1947.7736
1950.0716
1969.0394
2023.8037
2034.7931
1936.5872
1905.1402
4626.0125
5198.4331
5128.3931
4728.7431
5421.7676
5419.1714
4948.8701
4907.9657
4939.9188
5030.448
5033.2719
4977.7926
4679.6773
4843.694
4804.6948
4762.8269
4220.6246
4094.0489
4081.2065
4273.3432
3470.49
3450.448
3151.5969
3137.9769
1260.0294
3243.7241
3248.3559
3587.0286
1283.6937
3600.5089
4237.487
4239.3351
4418.2912
4448.1353
1138.0407
1133.4563
4453.2898
4332.6266
4286.0192
4538.1782
3317.23
3302.9773
3676.7825
3626.2036
1285.8383
1297.0594
1140.1931
1149.0203
855.59987
971.06153
555.29168
842.66434
973.31364
502.62103
503.41963
556.08793
966.17947
837.17675
846.81476
981.72422
4951.405
5137.1926
5063.9687
5060.9804
4914.7605
5519.8469
5424.6568
5030.5372
9472.6263
9549.8769
9346.465
9220.3743
9363.2864
9404.7882
9243.0032
9289.5724
8924.2065
8922.0249
8680.3815
8776.8217
4769.9198
4814.0598
5250.1742
5225.7272
4970.5468
4871.3544
4924.6309
4996.1192
654.34925
650.84561
639.95228
640.45176
2351.8706
4145.4149
4128.3972
775.74945
782.89044
12389.054
12604.706
18174.51
18450.094
12544.308
12601.465
18498.432
18380.857
29235.264
29547.818
49099.17
48421.111
49414.298
49075.813
29867.884
29047.445
7492.2555
7464.9732
2234.1583
769.20578
784.80782
2285.3841
779.81578
781.01441
2381.5894
4192.1886
4177.2106
2370.0384
4160.4928
4143.1593
3625.2161
3645.172
6822.0665
6863.4567
7570.7972
7535.2358
7470.019
7546.6208
13138.812
12502.4
12729.233
18256.234
18541.98
12589.44
12645.037
18489.528
18389.145
28913.214
29407.53
47308.642
48257.316
32480.927
13201.82
32997.207
29747.023
48556.832
48420.508
29130.228
12970.627
13070.774
33170.476
33421.221
3603.7049
3547.8442
6792.2301
6693.0572
12553.622
12730.855
18361.239
18569.427
12509.996
12527.505
18432.308
18254.592
29752.442
28990.949
49057.407
48737.989
29504.34
48780.472
29708.748
49528.29
2310.3792
787.99327
782.16165
2293.005
3686.806
3682.1383
6873.9255
6892.1095
3649.9795
3637.5757
6801.1811
6851.5862
13173.894
33082.012
13042.44
33034.265
13151.914
32698.731
13133.867
33177.686
20731.165
20360.527
7804.0133
7739.3691
36853.502
35976.886
11286.791
11354.441
37768.869
37977.387
11508.426
11565.743
39008.936
38474.279
11747.178
11789.306
37833.032
38512.43
11657.562
11691.396
21118.016
21469.191
7996.6194
7945.259
40095.915
39194.932
12232.395
12303.401
40955.527
40302.329
12391.971
12385.301
40034.701
39569.909
12121.128
12171.727
38489.403
39614.879
12091.982
12087.723
22187.024
22636.696
8573.7608
8638.9609
22768.4
22535.936
8669.1402
8625.9692
12812.241
20547.772
21372.121
7987.6081
7815.4011
21681.28
21729.018
8233.0175
8099.3472
21388.219
8089.8461
21777.255
8151.1465
21461.689
21378.236
8198.8886
8069.06
39207.926
37970.163
12075.601
11968.733
39823.232
40429.795
12250.207
12273.222
40421.735
12419.928
12520.755
41101.772
40850.699
39745.272
12462.07
12480.113
478.86484
4291.3336
1247.9639
1116.6849
3019.8535
3005.4717
3319.9099
3319.5614
3899.2636
3922.4813
4084.3396
4086.1667
4482.4348
4244.0658
4461.1506
4299.3038
3233.4624
3601.3607
4682.0403
4771.4065
4789.0941
4853.6148
4832.2006
4640.971
4760.6086
5191.7181
5085.8719
4606.4949
4733.1612
5132.7889
4660.8977
5213.1953
4765.4774
5103.3366
5005.9022
4997.1301
5049.7666
5482.9729
4974.2456
5443.5177
4982.4104
4956.2961
4999.9252
4551.3014
4548.6681
4615.9079
4560.7481
4648.1742
4560.0482
964.10787
846.67699
9316.8124
8360.3816
9427.8019
8480.6063
10070.396
10007.516
9252.2594
9256.3464
9757.4947
8973.6767
9894.7617
9118.758
9594.081
8601.9971
9569.5169
8631.5198
10376.775
10450.343
9563.4673
9668.5634
10533.143
9701.2901
10572.253
9768.5122
9915.6246
9979.6533
8910.7497
8999.4368
9027.9559
10061.813
10099.623
9091.797
10740.881
10040.403
10795.368
10121.237
10556.334
10630.836
10106.196
10205.481
10453.08
10530.915
9990.0707
10121.353
10601.592
10685.662
9899.0373
10025.884
9999.1405
9299.7354
10169.1
9480.0005
10225.925
10080.739
9731.2822
9673.5838
9880.7058
9416.7357
10087.452
9627.932
10329.296
10229.723
9603.3661
9585.8479
9673.6732
9240.4916
9921.3947
9489.6537
9525.9873
9307.6577
9299.3823
9165.8381
9165.2979
8959.8986
9429.3609
9234.5441
10032.611
9850.5709
9568.7785
9476.7868
8552.5228
8636.7189
8318.3257
8475.6147
8240.5059
8316.1416
8464.4835
8580.7124
7062.801
7242.5258
2725.3595
5992.0898
6074.4392
7309.664
7136.9155
2717.445
6006.3825
6180.7791
2560.4056
2589.1843
7407.6433
7485.6847
2815.0848
6342.175
6279.8992
7511.0803
7565.9143
2803.5771
6412.5737
6411.5398
8724.9134
8838.0441
8784.513
8943.9692
2634.2602
2637.7893
8642.0889
8763.4752
8689.0873
8861.1663
9656.7208
9464.9449
9715.6034
9577.9769
9720.5024
9535.7733
9811.7304
9658.6436
10284.307
9873.0988
10377.974
9991.0257
10210.002
9784.1181
10281.648
9912.6008
2123.0548
2113.0633
2294.7579
2308.4284
2079.5156
2119.0464
2265.1427
2242.1368
10242.969
9801.8074
10483.22
10056.341
9959.6361
10046.139
9758.2867
9908.4278
9694.5854
9494.4449
9942.3552
9764.0332
10519.821
10633.607
10066.653
10242.002
7666.7751
7766.7287
2868.2204
6609.5093
6531.404
7475.7168
7680.3014
2854.4377
6525.8625
6385.7388
8926.3054
9041.4848
8995.9115
9166.9894
8697.6749
8800.206
8921.311
9060.6831
2693.1764
2679.3404
2830.173
7396.0118
2792.1639
6304.9977
2633.4166
2666.0926
2341.1327
2156.4939
2133.1522
2331.3194
2168.5595
2124.0385
2298.3681
2343.6886
1299.1619
1421.056
1466.9129
1257.6003
746.78553
1688.4877
1636.1563
1854.8664
1817.5406
627.17859
625.88183
741.53077
1415.993
1407.4336
1232.2894
1228.7192
1637.0774
1644.5305
1834.7349
1848.3184
554.2625
558.52547
619.19339
737.27808
744.79765
623.19015
1655.3197
1636.8317
1849.8702
1863.6297
1420.1259
1242.7452
1225.5284
1409.6633
1415.2343
1241.1067
1268.6866
1465.0266
1841.7117
1647.2693
1696.7358
1896.3721
10591.938
10793.744
9869.8424
10087.922
10746.239
10882.113
10256.035
10442.73
10465.449
9987.5777
10687.178
10222.358
10882.194
11026.493
10150.166
10334.799
9877.2368
8881.3945
10028.15
9030.3675
10640.326
9795.4717
10775.866
9948.4063
10342.822
9522.8925
10527.897
9707.6222
10155.725
10264.423
9124.7219
9247.8798
13243.804
13372.858
13336.92
13246.396
13086.151
13066.781
12746.502
12886.343
13060.757
13157.088
13200.273
13258.842
12936.506
13003.299
12838.867
12909.798
12542.932
12599.707
12459.992
12436.329
8484.1051
12016.905
12118.799
12297.668
12325.506
8461.0298
8696.4941
8706.0914
9376.7059
9397.8463
9409.1639
9407.1771
8879.5857
9005.035
4876.5227
8592.8033
8747.0458
8907.389
8883.9052
8854.3396
8949.4318
639.94272
634.9622
619.22588
804.41442
805.59006
619.40806
806.68178
801.27084
4141.6754
4110.2128
2333.4825
4781.4854
15525.304
15875.772
22739.226
18572.234
22971.528
18726.044
18955.096
19013.08
23246.569
23169.596
15812.926
15790.422
23239.119
18969.673
23384.213
19087.962
18872.55
18894.03
23172.374
23008.766
40265.437
26705.861
26978.444
41078.193
27131.014
27276.477
41048.368
41641.109
65811.588
55362.588
55230.55
65529.633
54036.224
64598.827
65465.612
54756.504
66033.314
66064.799
55630.76
55408.272
55605.946
65200.932
64894.079
55194.114
27399.807
27263.19
41275.017
41422.041
26912.81
27170.251
39909.189
40409.564
6288.379
6247.9181
10441.594
10383.422
6262.3092
6252.6205
10326.688
10415.403
2311.1729
4045.839
4111.7719
760.99063
778.87514
2360.7059
4143.7371
4135.3344
4180.7698
4180.3297
2361.6785
4865.7309
4828.8893
4146.68
4149.6931
2348.8651
4820.8618
4791.5926
7488.6772
7548.708
6361.2274
6353.9946
10459.322
10550.09
15643.234
16016.996
6327.4699
6292.2189
10477.161
10422.014
15843.399
15828.238
6272.2361
6236.7716
10403.824
10319.54
15761.451
15670.939
6311.3469
6322.9035
10472.858
10504.612
15735.425
16015.563
12551.137
12596.896
18492.379
18338.22
18831.24
18674.951
22807.48
23048.641
23325.459
19079.853
19136.157
23264.13
23196.353
18982.123
23328.587
19081.37
18895.474
18909.211
23161.247
23000.217
28708.975
26711.07
27018.605
41161.949
39866.706
27296.586
27194.969
41575.424
41737.573
47556.608
52967.588
63430.706
64371.446
53447.379
54066.406
64936.468
64895.622
54123.752
29397.474
48136.423
12559.758
12766.29
18405.725
18617.946
29392.615
29420.161
48458.115
48847.044
27159.545
27311.547
41822.978
41542.897
54213.279
65025.937
65266.776
54563.646
54506.772
64933.774
64427.373
54351.589
26895.125
27143.557
40323.363
41058.194
12311.532
12542.966
18158.773
18447.733
12548.643
12567.69
18514.913
18340.566
29017.817
48839.592
29375.407
49444.736
29738.432
29016.854
49471.229
49272.577
7477.8283
7360.1135
18934.038
18791.897
22945.203
23159.16
23372.078
19099.27
19137.497
23270.153
23150.987
18912.801
23278.913
19011.902
18737.288
18746.01
23019.503
22839.381
27268.85
27134.214
41096.079
41332.836
26745.938
27028.56
40846.743
39985.774
55168.199
65141.85
65519.332
55432.978
64599.838
65165.504
55216.361
54760.37
27131.306
26878.369
40470.588
41482.812
54705.266
64369.114
65254.18
55186.787
27201.008
27375.255
42139.958
41473.821
65476.822
65884.043
55744.203
55642.087
2393.1747
4203.6775
4198.8758
780.61203
777.35826
2374.1488
4156.1166
4144.3583
7559.4163
7576.5083
7478.8301
7535.4299
12533.674
18373.538
12727.811
18587.735
29338.481
48578.447
29520.812
49149.434
12503.553
12532.179
18417.151
18258.664
48780.903
48589.758
29546.173
28803.811
32666.339
12528.082
12730.155
18559.386
18317.199
29002.245
29329.487
47847.587
48808.07
18540.987
18380.277
12617.028
12637.283
29663.097
49058.223
29084.11
48983.298
474.63576
37363.467
37043.722
11177.942
11211.472
35680.78
36511.555
11074.813
11116.143
39241.725
38357.17
40217.988
40439.191
41548.705
41042.597
40286.377
41070.172
38212.283
37255.334
11431.72
11498.629
38129.317
38913.092
11546.317
11554.855
42698.412
41797.7
43560.563
42883.106
42642.022
42188.023
41023.928
42240.411
39807.809
38641.014
12168.313
12271.534
40396.376
40032.814
12320.877
12349.188
40737.551
40413.841
12392.665
12431.611
39279.925
40661.737
12364.868
12280.334
20979.867
20523.668
7863.0555
7886.7975
37084.843
35568.513
11182.254
11301.868
37937.154
38215.908
11498.365
11558.332
39013.312
38342.236
11685.811
11752.883
38234.417
39054.713
11798.477
11809.355
37589.875
38330.977
11696.432
11642.186
39085.668
38709.332
11753.207
11786.344
38619.849
38158.85
11629.387
11681.4
37549.223
38236.526
11634.553
11685.581
41754.938
40571.891
42441.641
43049.88
43071.552
43771.79
43570.375
42330.876
9866.586
9967.7176
9426.7384
9588.9607
2485.7896
2484.9351
2622.7875
2627.3068
2047.2916
2175.7408
2194.115
6875.5368
6975.4181
5861.0673
5822.8709
6709.7304
6763.5898
5667.8724
5622.7217
8032.9299
8138.8688
8134.8312
8283.866
7864.5918
7981.9308
7881.6461
8042.7595
8810.4566
8827.0767
8630.0684
8698.8509
8980.5618
8799.2479
9102.112
8949.0849
9507.8623
9109.0224
9618.6984
9243.6405
9316.4469
8916.9324
9340.4267
8999.079
10420.628
9991.67
10431.028
10041.899
9798.923
9615.2069
9788.8814
9675.0058
10372.763
9947.2282
10381.052
10024.016
9832.0342
9652.5168
9850.7668
9709.7515
7530.1827
6359.3154
8973.5177
8764.4626
8889.9824
8736.7123
8930.0867
10188.002
10220.184
9495.6106
9567.2794
10038.745
10079.614
9583.9334
9662.9848
10183.61
9486.6201
10310.645
9659.4075
10067.505
10189.851
9599.2841
9770.7096
9583.9117
10266.61
9848.2411
9534.7943
9813.7138
9146.2911
10078.462
9414.2845
10178.296
9490.0102
10409.338
9743.8483
9955.504
9173.021
10165.183
9385.9332
9600.0463
8849.619
9830.7614
9073.9698
9187.4762
8270.3466
9378.9675
8455.8724
9514.1046
8554.2828
9685.9944
8729.5215
9964.6637
9172.9207
9994.0153
9235.3329
9522.6077
9549.2033
8616.1803
8558.4542
9941.8596
9158.3942
10070.602
9312.3707
9495.7462
8540.9631
9612.5481
8680.0353
10676.694
10676.181
10204.43
10243.46
10827.895
10819.262
10102.95
10140.844
10787.532
10817.653
10077.473
10171.608
10628.126
10161.346
10650.585
10246.806
10581.02
10574.955
9733.6937
9774.6003
10077.502
9052.1362
10084.761
9102.522
10564.451
9735.8282
10601.058
9810.0033
9074.573
10088.195
10108.214
9133.3123
9447.5922
8711.0636
9475.5017
8782.791
9701.4903
8940.4313
9737.8721
9004.4611
9292.6482
8368.2363
9313.6408
8415.4129
9042.3082
8151.0072
9074.6652
8218.4943
9528.5355
9094.2099
9561.7069
9179.9809
9896.3702
9955.7098
9233.8468
9325.4016
9747.8608
9307.8852
9833.2363
9419.2625
9653.8647
9006.5088
9689.4513
9089.7425
747.42256
1631.4242
1805.2378
1244.6152
1205.6994
1417.9749
1372.2348
11997.848
12671.837
11991.811
12655.123
12202.136
11496.807
11553.926
12194.249
12904.405
12222.147
12829.741
12140.339
12349.566
11697.271
12408.429
11758.843
14412.942
13637.531
13586.648
14325.16
14181.635
14145.753
13411.288
13476.406
12935.075
13893.376
12977.196
13815.965
13706.717
12863.957
13663.542
12791.269
13031.481
13724.772
13025.96
13692.414
13291.913
12452.467
12462.65
13274.996
13335.812
13942.303
13224.158
14044.33
13481.649
12620.815
13568.473
12723.831
13182.784
12449.741
12415.995
13117.411
11946.394
12655.926
12616.375
11982.928
12995.931
13048.846
12298.503
12367.04
11853.615
12548.217
11890.121
12502.817
14794.437
14011.02
13982.164
14735.494
14739.238
14760.886
13983.752
14006.555
13316.043
14270.654
13343.946
14209.473
14224.277
13350.372
14229.149
13312.833
14210.459
15037.682
14215.897
15002.61
14459.086
13517.898
13519.92
14433.427
14306.452
15112.378
14289.312
15087.434
14537.551
13586.416
14527.175
13614.668
13553.897
12814.463
12790.63
13498.733
13512.023
12783.983
13523.967
12820.924
12319.845
12363.548
13031.599
13004.158
12994.754
12991.794
12306.619
12304.759
13179.153
12448.375
12517.751
13182.58
12974.183
13719.32
12969.843
13701.396
13788.528
13788.541
13035.042
13058.95
13253.444
13261.761
12588.243
12586.724
15382.705
16059.173
15374.463
16032.264
15804.532
14792.183
14794.994
15790.828
15501.754
16122.218
15444.518
16173.229
15885.648
14859.492
15884.829
14893.726
16199.996
15618.983
15630.181
16170.401
16295.105
15696.689
15830.168
16395.468
16229.014
15502.958
15516.317
16208.625
16302.753
15565.866
15680.214
16392.465
16043.234
15422.143
15422.684
15992.078
16025.127
16004.254
15411.788
15480.619
16010.963
15258.809
15265.06
15973.958
16009.119
15993.526
15260.835
15321.322
15785.762
15082.796
15094.367
15751.071
15775.291
15773.75
15088.773
15121.227
14513.209
14514.394
15485.744
15479.998
15460.285
15484.947
14504.028
14536.915
14005.224
14662.594
13999.517
14637.393
14350.167
13461.872
13458.827
14331.934
15082.889
14422.994
14922.14
14247.206
14603.139
13683.294
14748.104
13827.063
15774.876
15132.594
15067.242
15662.976
15297.538
14725.601
14823.277
15357.391
14874.569
15707.352
14931.066
15599.516
14673.004
15288.55
14578.522
15348.696
14377.341
14945.67
14363.509
14922.222
14900.969
14187.756
14202.407
14877.9
14856.986
15274.988
14661.5
15445.7
15190.628
14448.339
15362.009
14647.229
15438.345
14716.023
14683.863
15348.269
15077.994
14420.786
15133.865
14506.458
14139.159
14095.613
15101.985
15052.154
14857.057
14805.582
13880.488
13969.742
14678.698
15288.073
14640.091
15294.912
15177.889
14423.791
14450.991
15173.743
15914.213
15246.438
15749.38
15046.352
15574.436
14765.719
15747.73
14973.354
17170.99
16126.155
16104.427
17099.372
16475.289
16416.538
15463.145
15575.211
15639.694
16659.229
15677.514
16584.323
16041.559
15196.915
15980.135
15087.01
15235.401
16088.83
15152.237
16142.282
15659.239
14782.509
14844.58
15696.091
15930.422
16766.029
15725.91
16921.153
16222.773
15255.809
16389.466
15463.835
16198.176
15478.53
15423.642
16103.898
15593.502
14947.005
15657.073
15052.088
15221.469
15165.064
16049.084
15947.151
15569.433
15505.271
14756.475
14866.23
19485.361
19440.637
17703.312
17715.035
18111.066
16692.436
16684.533
18162.938
18526.239
18573.678
17000.424
16869.513
17312.588
17376.962
15953.789
16080.058
16694.936
18199.272
16556.946
18293.542
16977.887
15636.076
15748.592
17063.922
17580.577
19198.826
17379.015
19310.477
17802.637
16317.925
17951.109
16526.664
19629.419
19704.46
17834.782
18004
18833.295
19020.989
20840.872
20875.88
5365.1582
5301.4955
5332.1253
5411.8647
18953.82
20070.987
21017.784
20981.842
19096.608
19136.917
18148.907
18290.91
19934.395
19951.367
5495.2182
5461.2113
5275.7307
5355.0144
19124.995
20166.395
4732.3309
4918.2137
4967.3134
4811.9408
4836.1779
4778.5723
4825.2303
4888.8329
21008.188
21010.609
19116.332
19220.071
18861.647
19017.019
20695.102
20698.814
5604.3221
5551.029
5587.9913
5673.8918
19869.99
20178.025
20604.331
20639.823
18841.877
18959.236
19221.706
19390.765
21073.549
21095.745
5706.8
5647.416
5634.5338
5723.1897
20249.466
19833.95
19207.646
19256.416
17657.313
17569.73
18017.009
18048.402
16675.7
16739.157
18056.55
19591.033
17873.388
19687.77
16925.252
18329.387
18456.11
17112.386
5137.5076
5066.4738
5038.2738
5132.8715
5014.9849
5004.5468
5064.2274
5108.2096
17828.632
19492.163
17743.859
19517.84
16784.54
18211.071
18231.476
16848.304
17694.511
19229.323
17536.979
19295.641
16621.802
17997.735
18080.616
16770.028
16296.629
17266.408
16252.421
17269.723
16796.858
15847.526
15877.972
16788.379
17177.559
16260.415
17098.642
16128.196
16668.951
15759.048
16738.653
15879.226
16252.801
17154.104
16216.561
17163.558
16760.936
16753.096
15874.573
15900.843
16591.703
17403.29
16413.304
17536.285
16029.872
16956.671
17089.13
16204.733
15786.817
16419.7
15773.747
16400.506
15614.163
16369.031
16345.642
15631.744
16698.696
16060.22
16570.047
15897.832
15715.458
16492.318
16611.451
15869.864
15697.054
16381.818
15684.557
16357.179
15475.645
16271.268
16234.596
15481.725
16350.672
15729.575
16291.161
15628.622
15445.437
16211.369
16255.34
15532.696
3904.2363
3912.0488
4044.7259
4045.2158
3889.6281
3902.418
4045.706
4039.6288
4595.8901
4486.0226
4473.5648
4587.4261
4560.0707
4472.788
4464.4404
4576.7875
3707.1182
3832.3162
3958.2634
3831.6828
3815.9638
3753.8477
3866.6579
3932.5199
4345.5964
4273.2039
4345.8959
4411.6829
4464.4417
4384.3214
4228.9086
4317.8972
15624.226
16244.844
15564.82
16271.705
16134.887
15341.181
15394.171
16151.566
16853.73
16176.263
16745.014
16023.124
16602.199
15761.454
16711.183
15916.344
17768.227
16735.06
16830.021
17809.848
17810.968
17718.372
16735.651
16891.495
16395.581
17287.698
16313.474
17330.557
17389.579
16514.302
17303.361
16370.172
16204.284
17077.909
16095.207
17157.093
16632.822
15711.48
15796.078
16691.074
16836.118
17710.439
16655.871
17837.933
17198.598
16208.222
17320.455
16378.013
16854.864
16141.515
16209.654
16882.904
16925.136
16243.385
17003.931
16369.265
15905.345
15974.908
16734.692
16759.34
16913.658
16849.918
16044.345
16161.769
21506.224
21518.533
19601.19
19739.234
19422.053
19588.177
21256.228
21244.112
5820.8978
5758.3563
5800.0899
5901.3409
20396.941
20665.746
20778.818
20838.204
18886.751
19059.807
19686.281
19869.74
21690.852
21702.606
5702.4387
5672.6795
5778.0074
5836.7189
20880.419
20051.214
19996.081
20054.669
18233.342
18362.036
18776.446
17266.552
17378.75
18716.082
19817.159
19889.468
18298.217
18116.832
18605.809
18703.106
17210.371
17385.976
17699.688
19258.227
17541.628
19362.436
17994.195
16595.833
16736.621
18098.081
18445.698
20068.429
18245.612
20169.48
18713.845
17221.188
18845.125
17421.909
5178.0824
5139.3969
5210.8277
5275.3111
5176.4393
5160.1437
5239.9036
5287.0011
5542.1398
5496.2148
5550.6589
5620.0883
20684.537
20739.967
18827.27
19023.667
5622.5812
5582.965
5605.1297
5673.3376
19906.805
5087.8209
5038.5511
5053.8503
5118.4801
5016.5802
4975.6333
5022.0355
5091.1919
4679.8252
4608.673
4653.9125
4747.4286
4152.3128
4014.9797
4055.6894
4200.0456
3969.6744
3965.6204
4120.9076
4137.2081
4685.0281
4573.551
4582.0759
4712.2108
3949.1692
3939.8147
4061.9503
4087.0137
3946.6016
3957.4457
4076.7615
4089.0325
4526.5451
4512.5798
4590.4845
4616.5214
4548.3199
4475.3588
4492.3514
4593.3518
1775.6368
1823.512
2055.8977
2004.1894
1136.6246
2192.0722
2218.9389
2440.3957
2398.2862
2301.2858
2355.4358
2540.5945
2508.479
1918.1354
1685.8384
1117.2605
1677.6575
1900.3368
886.54843
879.31664
2826.348
2810.4843
2975.9093
2968.0191
2693.4228
2759.0991
2865.0182
2946.1767
3285.05
3403.9285
3449.2632
3314.1226
3302.3577
3454.7579
3348.6371
3198.0148
706.11245
702.97555
1088.8442
1093.6461
857.8245
854.95579
2447.8993
2179.9244
2428.3763
2204.2044
2149.9782
2192.9067
2436.126
2401.4861
1635.3464
1629.6562
1865.568
1887.4374
1607.8846
1624.9299
1881.4411
1846.7457
2967.3143
2763.0652
2948.8946
2734.1198
2762.5241
2976.6951
2999.9882
2794.3025
3324.757
3338.9483
3511.2686
3502.8666
3521.6485
3348.8366
3366.3445
3531.4054
545.38186
550.51477
697.67619
712.15017
1096.2413
1090.9332
863.0153
860.97213
1099.1487
1115.3472
860.72407
867.90881
2839.1408
3052.7911
3060.5313
2835.7233
2777.8996
2773.6918
3000.2506
3008.1094
3386.5074
3383.0037
3567.7778
3576.408
3468.9486
3441.7699
3611.6205
3647.6221
2254.9559
2502.9558
2475.1027
2218.3271
1893.2078
1673.8736
1654.5913
1926.5707
1619.0365
1614.7755
1847.7458
1855.1271
2166.6931
2166.6694
2431.4628
2432.437
2452.3674
2210.5134
2200.2246
2447.6201
1889.6969
1653.4841
1650.9181
1888.1467
1739.8997
1712.114
1957.2182
2018.171
2521.4924
2283.2863
2346.9194
2580.9622
3558.3092
3399.0583
3375.2457
3551.6928
3013.8548
2805.5651
2784.5192
2996.6728
2902.0535
2852.4337
3044.2227
3088.1944
3560.7106
3405.0137
3435.1184
3589.3325
15574.351
14872.023
14942.608
15614.991
16089.552
15985.179
15270.334
15401.917
14339.822
15246.323
14292.505
15296.388
15758.668
14761.706
15666.295
14648.93
16471.536
15830.163
15902.754
16499.329
16620.768
15998.685
16096.141
16677.284
15740.044
16431.187
15655.589
16470.736
15926.966
16606.884
15839.287
16646.63
15327.968
15882.7
15270.534
15898.437
15831.38
15079.446
15153.284
15865.404
15811.237
16310.222
15666.441
16421.758
16245.463
15467.276
16354.635
15620.335
16193.218
15469.532
15565.313
16244.692
16379.092
15663.697
16405.166
15723.021
14960.254
15888.674
14879.492
15968.051
16083.209
16088.371
15043.005
15090.305
13381.536
13390.714
12670.295
12699.85
12185.761
12918.281
12271.977
12891.276
13614.051
12879.07
12952.662
13679.322
12470.047
13108.527
12431.68
13149.178
15149.538
14335.353
15180.629
14381.647
14605.404
14590.314
13639.603
13677.828
15273.338
14480.468
15287.48
14449.543
13720.681
14685.282
14683.329
13763.486
14543.178
14558.761
13790.756
13828.868
14062.981
13198.011
14049.421
13163.023
14893.66
14092.372
14188.105
14965.049
13504.727
14338.134
13409.191
14409.223
13849.289
13096.248
13127.56
13861.508
13927.791
13917.459
13158.676
13194.959
12613.941
13323.381
13356.175
12701.166
13375.586
12685.691
13383.737
12685.39
11798.111
11814.327
11924.025
11966.032
12184.472
12274.51
12349.245
12307.414
12947.581
13088.766
13135.653
13147.811
13214.556
13271.472
13216.49
13059.634
12414.789
12501.973
12569.098
12526.049
8646.0652
8608.692
11843.514
12005.38
12235.97
12259.445
12531.142
12526.002
12376.918
12450.304
12371.652
12444.887
12385.551
12388.87
618.9921
805.59712
800.16536
614.29059
781.02184
800.9772
584.78219
817.47236
795.77782
799.94785
820.79399
584.85559
818.84413
814.63045
792.62431
800.40841
7112.9453
7140.8104
7123.6681
7117.8642
2145.3161
5222.5122
4653.6286
8085.4733
8090.4833
7097.5263
7076.9811
16447.76
21142.267
20804.866
16710.387
21282.038
21341.842
24676
25008.254
25253.488
25138.973
16757.443
21547.132
21266.151
16619.47
21189.932
21187.013
25210.836
25438.827
25172.987
24960.65
56479.766
28729.861
29097.342
58269.018
29179.228
29399.951
57550.433
59194.298
100113.4
59601.003
59562.33
99151.304
59107.812
99107.484
99901.068
59380.048
100218.21
99675.538
59839.737
59719.116
59831.11
98758.308
99225.009
59614.004
29525.855
29329.935
58265.912
58510.571
28934.067
29254.789
56198.824
56558.586
11351.462
11286.916
11225.943
11320.924
4120.7651
4031.2361
2286.6979
4678.9197
4768.391
4143.9163
4137.9712
2333.1961
4800.346
4778.5408
7178.6963
7157.7907
7233.8957
7235.5275
2167.8232
5320.0249
5251.4865
4715.6339
4737.9568
8224.8231
8219.8226
7213.4566
7198.3122
8127.5245
8146.6053
7162.3502
7122.3941
7118.8314
7095.2196
7170.9715
7196.5366
2153.156
5215.6139
5249.6436
4692.3342
4683.5733
8179.9757
8141.8655
7150.4475
7159.7685
8054.3357
8080.3931
7102.074
7059.7635
6276.8193
6233.8674
10359.068
10426.939
15811.272
15763.062
6316.3775
6299.1337
10545.621
10454.746
15740.857
16070.028
11369.845
16575.422
11467.347
16863.452
20907.277
21242.27
21413.358
21469.976
11384.135
16778.049
11327.073
16652.136
21527.714
21277.963
21221.483
21203.968
11305.55
16700.826
11216.775
16496.729
21458.549
21204.816
21050.107
21020.065
11380.705
16656.465
11411.784
16843.237
21034.756
21355.506
21433.095
21467.744
19078.45
18977.409
23219.545
23339.915
23092.407
18827.432
18851.803
22943.797
24748.594
25084.09
25344.395
25246.487
25170.125
25385.152
25176.269
24960.478
40775.438
27066.087
26827.116
39961.995
28744.561
29156.679
58712.939
55856.096
29425.037
29279.517
59266.175
59115.238
53523.805
64335.175
63464.68
53287.445
58137.449
97948.17
99070.435
58371.661
58783.893
99230.038
99627.578
58709.536
27179.611
27302.491
41057.325
40917.859
53992.714
64510.112
64609.333
54165.126
23013.684
18823.2
18971.111
23225.65
23413.812
19144.952
23317.875
19189.358
27401.825
27246.837
41334.907
41753.43
41140.912
26995.821
27229.003
41621.902
53919.777
64857.634
65088.445
54660.262
55056.182
65279.666
64838.715
54804.519
29227.217
29460.982
59812.637
58592.543
58815.529
99339.258
99643.807
59024.681
59184.533
99004.862
99198.11
59115.454
28936.728
29256.236
57093.943
57886.312
15455.815
15835.473
18701.185
18565.339
22785.942
22990.257
23282.544
18950.121
19003.291
23207.497
15820.226
15744.578
23272.337
19000.781
23391.331
19095.602
18815.637
18836
23131.793
22971.598
27032.516
26789.382
40374.023
41207.432
54355.383
64623.223
65242.3
54893.027
27208.306
27338.323
41839.232
41433.857
65407.299
65786.962
55243.483
55236.381
27424.59
27296.217
41500.69
41820.766
26922.955
27177.12
41527.892
40789.129
55281.428
65386.864
65616.333
55429.267
64721.761
65432.1
55487.561
55054.527
6268.9924
6235.823
10441.122
10346.293
6153.4335
6135.0733
10299.652
10197.497
24889.209
25195.338
25386.284
25244.685
25115.971
25333.114
25025.685
24785.322
29405.55
29188.778
57837.084
58908.933
28768.659
29138.24
58040.71
56383.529
59751.731
99623.996
100065.39
59945.224
99302.955
99971.32
59863.028
59565.118
29262.819
28918.759
56845.154
59107.261
59262.364
98766.34
99596.481
59619.067
29274.962
29510.315
60104.249
59082.166
100328.88
100431.58
59871.34
59834.78
4208.2823
4191.8176
2370.9019
4856.3664
4875.1321
4159.3922
4149.3448
2352.2266
4814.9906
4801.9384
6353.9662
6322.6082
10424.538
10512.312
15814.999
15877.829
6365.144
6361.8085
10469.964
10538.058
16022.312
15674.827
6283.9721
6257.7921
10415.602
10323.883
15745.844
15688.132
6311.6192
6303.2087
10493.69
10432.856
15710.365
16022.675
23007.739
18803.279
18934.326
23188.244
23428.141
19119.13
19145.71
23310.19
27021.879
27223.848
42041.234
41386.08
65345.525
65737.891
54335.259
53887.372
42550.694
27484.511
27289.366
41621.194
54715.456
66153.184
65464.245
54799.574
23156.544
18906.639
23266.199
18994.683
18745.89
18751.021
23043.177
22869.908
54375.578
65496.712
65721.803
54602.827
54510.849
65355.994
64645.482
54279.838
27301.738
27176.894
41656.129
41379.313
26826.661
27087.361
40462.841
41195.705
18298.505
28492.913
48488.486
47832.466
29251.269
19086.093
23375.874
19134.154
23295.458
18885.73
18738.022
22908.801
23130.08
40866.788
26893.779
27155.34
41489.838
42225.568
27425.739
27297
41851.8
52717.059
64763.891
65244.492
53800.731
54265.595
65947.182
65683.62
54486.299
19043.458
19130.333
23414.322
23306.057
23167.311
18869.422
18884.886
23016.527
27346.387
27468.309
41912.955
42222.224
54542.636
65847.743
66189.881
54879.408
42214.21
27243.857
27002.62
41307.424
65264.979