/*--------------------------------*- C++ -*----------------------------------*\
  =========                 |
  \\      /  F ield         | OpenFOAM: The Open Source CFD Toolbox
   \\    /   O peration     | Website:  https://openfoam.org
    \\  /    A nd           | Version:  7
     \\/     M anipulation  |
\*---------------------------------------------------------------------------*/
FoamFile
{
    version     2.0;
    format      ascii;
    class       volScalarField;
    location    "2000";
    object      p;
}
// * * * * * * * * * * * * * * * * * * * * * * * * * * * * * * * * * * * * * //

dimensions      [0 2 -2 0 0 0 0];

internalField   nonuniform List<scalar> 
34378
(
-1.5409177e+183
-1.5535088e+183
-1.4911002e+183
-1.5231259e+183
-1.4678259e+183
-1.497004e+183
-1.4154147e+183
-1.5089565e+183
-1.5082393e+183
-1.5021013e+183
-1.5015937e+183
-1.5349923e+183
-1.4684575e+183
-1.4701238e+183
-1.4520896e+183
-1.4497503e+183
-1.486423e+183
-1.4794686e+183
-1.4545393e+183
-1.4614361e+183
-1.4710195e+183
-1.4540932e+183
-1.3649854e+183
-1.3148016e+183
-1.2367636e+183
-1.4219437e+183
-1.4197294e+183
-1.4175663e+183
-1.4095145e+183
-1.4033075e+183
-1.4787667e+183
-1.4726493e+183
-1.4760281e+183
-1.4795386e+183
-1.482001e+183
-1.4966448e+183
-1.469962e+183
-1.4674828e+183
-1.474463e+183
-1.476563e+183
-1.4786564e+183
-1.4802759e+183
-1.4769441e+183
-1.4970982e+183
-1.4783463e+183
-1.4902179e+183
-1.4908741e+183
-1.4555753e+183
-1.4564173e+183
-1.4666851e+183
-1.443144e+183
-1.4421604e+183
-1.4572464e+183
-1.4577778e+183
-1.4448017e+183
-1.4440881e+183
-1.4473456e+183
-1.4443715e+183
-1.4636442e+183
-1.4563339e+183
-1.4376764e+183
-1.4600699e+183
-1.4410932e+183
-1.4578044e+183
-1.4582422e+183
-1.4453584e+183
-1.4461853e+183
-1.3096539e+183
-1.3536373e+183
-1.359306e+183
-1.3880921e+183
-1.3903445e+183
-1.3613309e+183
-1.3589279e+183
-1.3357179e+183
-1.3130987e+183
-1.3155904e+183
-1.3381654e+183
-1.2686153e+183
-1.3406546e+183
-1.3179462e+183
-1.2739863e+183
-1.2187393e+183
-1.2236588e+183
-1.2126151e+183
-1.2176853e+183
-1.262481e+183
-1.2568164e+183
-1.3635587e+183
-1.3925712e+183
-1.4266367e+183
-1.4256499e+183
-1.4237143e+183
-1.4247698e+183
-1.4227941e+183
-1.4219757e+183
-1.4152857e+183
-1.4119275e+183
-1.4058231e+183
-1.4087094e+183
-1.4474682e+183
-1.4532897e+183
-1.4538e+183
-1.4471318e+183
-1.4502364e+183
-1.4681791e+183
-1.4686967e+183
-1.4646912e+183
-1.4649854e+183
-1.4653072e+183
-1.4642714e+183
-1.4682683e+183
-1.4674345e+183
-1.4699623e+183
-1.4625212e+183
-1.4652212e+183
-1.4724951e+183
-1.4446163e+183
-1.4423731e+183
-1.4496614e+183
-1.4516438e+183
-1.477008e+183
-1.4620795e+183
-1.4611304e+183
-1.4647177e+183
-1.4656291e+183
-1.4635671e+183
-1.4629079e+183
-1.4669361e+183
-1.4663821e+183
-1.4658301e+183
-1.4667061e+183
-1.4625513e+183
-1.4753921e+183
-1.4633813e+183
-1.4728174e+183
-1.4745554e+183
-1.4674816e+183
-1.4678938e+183
-1.464613e+183
-1.4642009e+183
-1.4629207e+183
-1.4558381e+183
-1.4594965e+183
-1.4667488e+183
-1.4670774e+183
-1.4710614e+183
-1.4691872e+183
-1.4652354e+183
-1.454756e+183
-1.4472764e+183
-1.4476535e+183
-1.438846e+183
-1.4384526e+183
-1.448034e+183
-1.4484633e+183
-1.439628e+183
-1.4391801e+183
-1.4534514e+183
-1.4397624e+183
-1.4410635e+183
-1.44879e+183
-1.4492424e+183
-1.4400726e+183
-1.4405114e+183
-1.4496048e+183
-1.4498052e+183
-1.4412065e+183
-1.4408776e+183
-1.4497502e+183
-1.4517193e+183
-1.4362739e+183
-1.4381485e+183
-1.4427477e+183
-1.4444298e+183
-1.4313156e+183
-1.4297589e+183
-1.4328119e+183
-1.4461117e+183
-1.4478941e+183
-1.4345111e+183
-1.4497901e+183
-1.4499454e+183
-1.4416724e+183
-1.4414074e+183
-1.4502068e+183
-1.4504333e+183
-1.4423374e+183
-1.4419893e+183
-1.3107378e+183
-1.3333029e+183
-1.3306587e+183
-1.3080156e+183
-1.3508942e+183
-1.3479269e+183
-1.3765952e+183
-1.3793449e+183
-1.3535451e+183
-1.3822684e+183
-1.3856373e+183
-1.356529e+183
-1.4034241e+183
-1.3861389e+183
-1.3851464e+183
-1.4042858e+183
-1.3882872e+183
-1.3871596e+183
-1.4063508e+183
-1.4052229e+183
-1.3726893e+183
-1.3589581e+183
-1.3602281e+183
-1.3737993e+183
-1.3705307e+183
-1.3578212e+183
-1.3568912e+183
-1.371539e+183
-1.3452462e+183
-1.3346335e+183
-1.3336897e+183
-1.3461259e+183
-1.3246442e+183
-1.3236398e+183
-1.3135483e+183
-1.3146061e+183
-1.2918327e+183
-1.3167112e+183
-1.3155515e+183
-1.3255743e+183
-1.2944439e+183
-1.3267329e+183
-1.3368428e+183
-1.3355722e+183
-1.3471974e+183
-1.3485228e+183
-1.2715776e+183
-1.2688548e+183
-1.3496127e+183
-1.3392379e+183
-1.3379611e+183
-1.3507825e+183
-1.3190085e+183
-1.3176602e+183
-1.3291035e+183
-1.3277749e+183
-1.2968838e+183
-1.299732e+183
-1.2741774e+183
-1.2770658e+183
-1.2211609e+183
-1.2468237e+183
-1.1702971e+183
-1.2225897e+183
-1.2492703e+183
-1.1152032e+183
-1.1194671e+183
-1.1746599e+183
-1.2519351e+183
-1.2252176e+183
-1.2287235e+183
-1.254856e+183
-1.3747197e+183
-1.3623608e+183
-1.3611397e+183
-1.3760375e+183
-1.407388e+183
-1.3905688e+183
-1.3892358e+183
-1.4085993e+183
-1.4296615e+183
-1.4302028e+183
-1.4292637e+183
-1.4289527e+183
-1.4272849e+183
-1.4276387e+183
-1.4281055e+183
-1.4286124e+183
-1.4263514e+183
-1.4268655e+183
-1.4256996e+183
-1.4259663e+183
-1.4210274e+183
-1.4195236e+183
-1.4161102e+183
-1.4179055e+183
-1.4113451e+183
-1.4100671e+183
-1.412687e+183
-1.4144271e+183
-1.4359514e+183
-1.4417118e+183
-1.3972011e+183
-1.4023141e+183
-1.428493e+183
-1.4532493e+183
-1.4522051e+183
-1.4227774e+183
-1.4257578e+183
-1.4606889e+183
-1.460968e+183
-1.4614419e+183
-1.4616672e+183
-1.4612541e+183
-1.4615716e+183
-1.4618722e+183
-1.4621308e+183
-1.4600133e+183
-1.4601774e+183
-1.455815e+183
-1.4556916e+183
-1.4560473e+183
-1.4561775e+183
-1.4603728e+183
-1.4605343e+183
-1.457326e+183
-1.4564893e+183
-1.4446943e+183
-1.4371189e+183
-1.4401136e+183
-1.4475055e+183
-1.420337e+183
-1.4180727e+183
-1.4242189e+183
-1.4487855e+183
-1.4497157e+183
-1.4261781e+183
-1.4505468e+183
-1.4513572e+183
-1.4591697e+183
-1.4602468e+183
-1.4639009e+183
-1.4628275e+183
-1.4535038e+183
-1.4543762e+183
-1.455838e+183
-1.4551499e+183
-1.465071e+183
-1.4579568e+183
-1.4584201e+183
-1.4588421e+183
-1.4593113e+183
-1.4588233e+183
-1.4591968e+183
-1.4596918e+183
-1.4600744e+183
-1.4574845e+183
-1.4579311e+183
-1.4532149e+183
-1.4536004e+183
-1.4618724e+183
-1.4640276e+183
-1.4607406e+183
-1.4583358e+183
-1.4540276e+183
-1.4543898e+183
-1.4586882e+183
-1.4605721e+183
-1.4625073e+183
-1.457077e+183
-1.4590676e+183
-1.4577761e+183
-1.4559661e+183
-1.4614116e+183
-1.4595502e+183
-1.459613e+183
-1.4600152e+183
-1.4604773e+183
-1.4608992e+183
-1.4603025e+183
-1.4604816e+183
-1.4611558e+183
-1.4612993e+183
-1.4598524e+183
-1.4599432e+183
-1.4556454e+183
-1.4557358e+183
-1.4591299e+183
-1.4548273e+183
-1.4595531e+183
-1.4552576e+183
-1.4383459e+183
-1.4311558e+183
-1.4343047e+183
-1.441547e+183
-1.4508329e+183
-1.4489979e+183
-1.4542077e+183
-1.4523348e+183
-1.4541954e+183
-1.4524575e+183
-1.4577182e+183
-1.45587e+183
-1.4567707e+183
-1.4532729e+183
-1.4586585e+183
-1.4551356e+183
-1.4531832e+183
-1.4497205e+183
-1.4550854e+183
-1.4515486e+183
-1.4463675e+183
-1.446907e+183
-1.437945e+183
-1.4373613e+183
-1.440286e+183
-1.4401425e+183
-1.4357471e+183
-1.4358806e+183
-1.4406009e+183
-1.4404373e+183
-1.4360153e+183
-1.4361943e+183
-1.4410234e+183
-1.4407523e+183
-1.4363648e+183
-1.4366114e+183
-1.4414541e+183
-1.4412592e+183
-1.4368507e+183
-1.4370841e+183
-1.4447431e+183
-1.4456238e+183
-1.4366887e+183
-1.4358578e+183
-1.4417194e+183
-1.4415524e+183
-1.4372363e+183
-1.4373869e+183
-1.4419307e+183
-1.4421273e+183
-1.4375654e+183
-1.4377791e+183
-1.4425409e+183
-1.4422963e+183
-1.4379624e+183
-1.4381929e+183
-1.4427913e+183
-1.4427088e+183
-1.4383766e+183
-1.4385185e+183
-1.4409598e+183
-1.4419485e+183
-1.4322272e+183
-1.4331858e+183
-1.4428674e+183
-1.4437918e+183
-1.4349492e+183
-1.4340522e+183
-1.441104e+183
-1.4342918e+183
-1.4351028e+183
-1.4265979e+183
-1.4258538e+183
-1.4358268e+183
-1.4365544e+183
-1.42796e+183
-1.4272424e+183
-1.437387e+183
-1.4287309e+183
-1.4382727e+183
-1.4295609e+183
-1.4391511e+183
-1.4400258e+183
-1.4312959e+183
-1.4303791e+183
-1.4428371e+183
-1.4427672e+183
-1.438636e+183
-1.4385531e+183
-1.4429652e+183
-1.4428915e+183
-1.438725e+183
-1.4388276e+183
-1.4430871e+183
-1.4389569e+183
-1.4391779e+183
-1.4433215e+183
-1.4434616e+183
-1.4435634e+183
-1.4395196e+183
-1.4393618e+183
-1.0524981e+183
-1.3387306e+183
-1.2895887e+183
-1.267012e+183
-1.3109505e+183
-1.312418e+183
-1.3211961e+183
-1.3225843e+183
-1.3327262e+183
-1.3313087e+183
-1.3428518e+183
-1.3442933e+183
-1.340114e+183
-1.3301395e+183
-1.3415257e+183
-1.3287279e+183
-1.3099242e+183
-1.3200553e+183
-1.3621173e+183
-1.3486451e+183
-1.3635047e+183
-1.3501677e+183
-1.3472993e+183
-1.3594993e+183
-1.3608304e+183
-1.3751735e+183
-1.3739083e+183
-1.3918169e+183
-1.3930234e+183
-1.3763186e+183
-1.3942161e+183
-1.3778415e+183
-1.3958638e+183
-1.3514415e+183
-1.3648576e+183
-1.366631e+183
-1.3530209e+183
-1.3793291e+183
-1.3975265e+183
-1.3811668e+183
-1.3993358e+183
-1.3842756e+183
-1.3827791e+183
-1.4009362e+183
-1.4024811e+183
-1.3559993e+183
-1.368229e+183
-1.3545234e+183
-1.3696478e+183
-1.2451345e+183
-1.2195037e+183
-1.4021372e+183
-1.4138169e+183
-1.4024741e+183
-1.4140949e+183
-1.3845093e+183
-1.385096e+183
-1.3934201e+183
-1.3939273e+183
-1.3836953e+183
-1.3925912e+183
-1.3840418e+183
-1.3929717e+183
-1.4028391e+183
-1.4144621e+183
-1.4033528e+183
-1.4149777e+183
-1.3865913e+183
-1.3871587e+183
-1.3954064e+183
-1.3959569e+183
-1.3855704e+183
-1.3943575e+183
-1.3860736e+183
-1.3948757e+183
-1.4047455e+183
-1.405356e+183
-1.4162998e+183
-1.4168987e+183
-1.415407e+183
-1.4037548e+183
-1.4042371e+183
-1.4158046e+183
-1.3705558e+183
-1.378035e+183
-1.3711341e+183
-1.378555e+183
-1.3575878e+183
-1.3581913e+183
-1.3640019e+183
-1.3646109e+183
-1.3587456e+183
-1.3593222e+183
-1.3651444e+183
-1.365666e+183
-1.3716154e+183
-1.3721659e+183
-1.3790621e+183
-1.3796299e+183
-1.3685917e+183
-1.3760842e+183
-1.3689404e+183
-1.3764166e+183
-1.3564733e+183
-1.3570469e+183
-1.3628709e+183
-1.3634543e+183
-1.3557354e+183
-1.3620651e+183
-1.356059e+183
-1.3624245e+183
-1.3693696e+183
-1.3699962e+183
-1.3768835e+183
-1.3775071e+183
-1.3439215e+183
-1.3498654e+183
-1.3442328e+183
-1.350163e+183
-1.3338829e+183
-1.3343394e+183
-1.339172e+183
-1.3396366e+183
-1.3331912e+183
-1.3384736e+183
-1.3335202e+183
-1.3388044e+183
-1.3445687e+183
-1.3450872e+183
-1.3505432e+183
-1.3510972e+183
-1.3238633e+183
-1.3289039e+183
-1.3243189e+183
-1.3293534e+183
-1.3231012e+183
-1.3281984e+183
-1.3235227e+183
-1.3285464e+183
-1.318235e+183
-1.3186895e+183
-1.3039272e+183
-1.3132422e+183
-1.3137243e+183
-1.3190818e+183
-1.3195319e+183
-1.3050219e+183
-1.3146238e+183
-1.314158e+183
-1.2950519e+183
-1.2939671e+183
-1.3208205e+183
-1.3213716e+183
-1.3071799e+183
-1.3164441e+183
-1.3159175e+183
-1.3198795e+183
-1.3203494e+183
-1.3060038e+183
-1.3154417e+183
-1.3149968e+183
-1.3246433e+183
-1.3297414e+183
-1.3251142e+183
-1.3302112e+183
-1.2960523e+183
-1.2973125e+183
-1.3255748e+183
-1.3307203e+183
-1.3261701e+183
-1.3313398e+183
-1.3358162e+183
-1.3412606e+183
-1.3364593e+183
-1.3418909e+183
-1.3347645e+183
-1.3401127e+183
-1.3352738e+183
-1.3406851e+183
-1.3456077e+183
-1.3516482e+183
-1.3462118e+183
-1.3522496e+183
-1.3467817e+183
-1.3528243e+183
-1.3474282e+183
-1.3534392e+183
-1.2782935e+183
-1.2768866e+183
-1.2866529e+183
-1.2879668e+183
-1.275859e+183
-1.2750654e+183
-1.2846006e+183
-1.2855984e+183
-1.3478934e+183
-1.3538537e+183
-1.3484365e+183
-1.3543512e+183
-1.3381267e+183
-1.338832e+183
-1.3435358e+183
-1.3442025e+183
-1.3369643e+183
-1.3423796e+183
-1.337538e+183
-1.3429568e+183
-1.3489725e+183
-1.3496805e+183
-1.3549191e+183
-1.3556639e+183
-1.3230224e+183
-1.3237876e+183
-1.3094581e+183
-1.3188637e+183
-1.3180776e+183
-1.3217855e+183
-1.3223893e+183
-1.3081483e+183
-1.3174159e+183
-1.3168456e+183
-1.3278146e+183
-1.3329992e+183
-1.3285908e+183
-1.3337385e+183
-1.3266121e+183
-1.3318246e+183
-1.3272204e+183
-1.3323985e+183
-1.2982608e+183
-1.2995676e+183
-1.3123461e+183
-1.3244044e+183
-1.3108291e+183
-1.3195002e+183
-1.3009296e+183
-1.3025918e+183
-1.2890117e+183
-1.2793195e+183
-1.2808533e+183
-1.2903194e+183
-1.2842246e+183
-1.282431e+183
-1.2917546e+183
-1.2934647e+183
-1.2314494e+183
-1.2454156e+183
-1.2447141e+183
-1.2314021e+183
-1.1923964e+183
-1.2551457e+183
-1.2558227e+183
-1.2654351e+183
-1.2661282e+183
-1.1538607e+183
-1.1543143e+183
-1.1932125e+183
-1.2477624e+183
-1.2463162e+183
-1.2331097e+183
-1.2316771e+183
-1.2569891e+183
-1.258525e+183
-1.2671959e+183
-1.2686613e+183
-1.1041245e+183
-1.1082381e+183
-1.1562993e+183
-1.1956205e+183
-1.1993039e+183
-1.1602232e+183
-1.2597771e+183
-1.2613124e+183
-1.2714309e+183
-1.2698278e+183
-1.248943e+183
-1.234296e+183
-1.2357301e+183
-1.2504288e+183
-1.2523111e+183
-1.2377394e+183
-1.2401606e+183
-1.2540045e+183
-1.2729845e+183
-1.2629294e+183
-1.2646719e+183
-1.2748241e+183
-1.3725633e+183
-1.3731018e+183
-1.3800346e+183
-1.3805702e+183
-1.3607844e+183
-1.3615622e+183
-1.3671948e+183
-1.3679706e+183
-1.3596812e+183
-1.3660296e+183
-1.3601875e+183
-1.3665694e+183
-1.373712e+183
-1.3745343e+183
-1.3812109e+183
-1.3820465e+183
-1.4058295e+183
-1.4173501e+183
-1.4063895e+183
-1.4177905e+183
-1.3887537e+183
-1.3976203e+183
-1.3895837e+183
-1.3983749e+183
-1.3875516e+183
-1.3963828e+183
-1.3881063e+183
-1.3969846e+183
-1.4069332e+183
-1.4076787e+183
-1.4182721e+183
-1.4189281e+183
-1.431331e+183
-1.4315443e+183
-1.4317644e+183
-1.4320382e+183
-1.4309677e+183
-1.4311593e+183
-1.4307685e+183
-1.4308541e+183
-1.429272e+183
-1.4294129e+183
-1.4297816e+183
-1.429537e+183
-1.4299775e+183
-1.4301997e+183
-1.4306425e+183
-1.4303922e+183
-1.4283461e+183
-1.428556e+183
-1.4287824e+183
-1.4290801e+183
-1.4253265e+183
-1.427769e+183
-1.427847e+183
-1.4279588e+183
-1.4281662e+183
-1.4246656e+183
-1.4232073e+183
-1.4239713e+183
-1.4196555e+183
-1.4205613e+183
-1.4214498e+183
-1.4223969e+183
-1.4148472e+183
-1.4155718e+183
-1.4088096e+183
-1.4136341e+183
-1.4142445e+183
-1.4169325e+183
-1.4162073e+183
-1.4177657e+183
-1.4187776e+183
-1.3866598e+183
-1.392031e+183
-1.3456984e+183
-1.3944619e+183
-1.3921368e+183
-1.350504e+183
-1.3995697e+183
-1.3966738e+183
-1.4408295e+183
-1.4396876e+183
-1.4037015e+183
-1.4261952e+183
-1.4549939e+183
-1.4552796e+183
-1.4576184e+183
-1.4572366e+183
-1.4577446e+183
-1.4574132e+183
-1.4575131e+183
-1.4575742e+183
-1.4578234e+183
-1.4579064e+183
-1.4556153e+183
-1.456017e+183
-1.4580271e+183
-1.4577178e+183
-1.4582134e+183
-1.4579476e+183
-1.4580884e+183
-1.4581927e+183
-1.4583284e+183
-1.458446e+183
-1.4556481e+183
-1.4571203e+183
-1.4572097e+183
-1.4556966e+183
-1.4573469e+183
-1.4572749e+183
-1.4557945e+183
-1.4557472e+183
-1.4527426e+183
-1.4473374e+183
-1.4474042e+183
-1.4527714e+183
-1.4472591e+183
-1.4526536e+183
-1.4526866e+183
-1.4472912e+183
-1.4528481e+183
-1.4530084e+183
-1.4477189e+183
-1.4475121e+183
-1.4478307e+183
-1.4531112e+183
-1.4531622e+183
-1.4479039e+183
-1.4576227e+183
-1.457464e+183
-1.4560136e+183
-1.4558825e+183
-1.4578089e+183
-1.4577149e+183
-1.4561864e+183
-1.4561078e+183
-1.4477285e+183
-1.4471294e+183
-1.4490552e+183
-1.4495862e+183
-1.4466796e+183
-1.4462735e+183
-1.4482855e+183
-1.4486468e+183
-1.4188895e+183
-1.4432747e+183
-1.4450199e+183
-1.4127467e+183
-1.4157074e+183
-1.4219334e+183
-1.4464713e+183
-1.4477749e+183
-1.4369396e+183
-1.4360125e+183
-1.3995056e+183
-1.4223743e+183
-1.4232882e+183
-1.4386803e+183
-1.4377947e+183
-1.4014435e+183
-1.4241551e+183
-1.4250939e+183
-1.4525139e+183
-1.4512382e+183
-1.443443e+183
-1.44302e+183
-1.4452013e+183
-1.4456346e+183
-1.452122e+183
-1.452565e+183
-1.4443432e+183
-1.4438661e+183
-1.4460627e+183
-1.4465027e+183
-1.4529824e+183
-1.4533789e+183
-1.4459039e+183
-1.4454553e+183
-1.4475705e+183
-1.4479582e+183
-1.4544373e+183
-1.454719e+183
-1.4450768e+183
-1.4447262e+183
-1.4468669e+183
-1.4472167e+183
-1.4537547e+183
-1.4541099e+183
-1.4570559e+183
-1.4575182e+183
-1.4579659e+183
-1.4584345e+183
-1.4547263e+183
-1.454435e+183
-1.4548742e+183
-1.4551339e+183
-1.4553378e+183
-1.4549363e+183
-1.4550817e+183
-1.4555187e+183
-1.4557346e+183
-1.4553011e+183
-1.455983e+183
-1.4555766e+183
-1.4557473e+183
-1.4558709e+183
-1.4561502e+183
-1.4563062e+183
-1.4570886e+183
-1.4544279e+183
-1.4546728e+183
-1.4532287e+183
-1.4530113e+183
-1.4548654e+183
-1.4550513e+183
-1.4535924e+183
-1.4534141e+183
-1.4528806e+183
-1.4447273e+183
-1.4500901e+183
-1.450281e+183
-1.444885e+183
-1.4450286e+183
-1.4504604e+183
-1.4506065e+183
-1.4451906e+183
-1.4566471e+183
-1.4524069e+183
-1.455664e+183
-1.4564507e+183
-1.4565369e+183
-1.4573777e+183
-1.4559964e+183
-1.4551289e+183
-1.4507657e+183
-1.4516669e+183
-1.4552766e+183
-1.4555185e+183
-1.4540344e+183
-1.4537981e+183
-1.445361e+183
-1.4507965e+183
-1.4510484e+183
-1.445629e+183
-1.4458591e+183
-1.4512563e+183
-1.4514039e+183
-1.4460269e+183
-1.4558369e+183
-1.4556794e+183
-1.454378e+183
-1.4542117e+183
-1.4521272e+183
-1.4531126e+183
-1.4528998e+183
-1.4539332e+183
-1.4539941e+183
-1.454839e+183
-1.4547996e+183
-1.4557084e+183
-1.4513669e+183
-1.4468852e+183
-1.4524105e+183
-1.4479157e+183
-1.4533191e+183
-1.45423e+183
-1.4488715e+183
-1.4497986e+183
-1.4496949e+183
-1.4479317e+183
-1.4563385e+183
-1.4560714e+183
-1.4565011e+183
-1.4567431e+183
-1.4569167e+183
-1.4565106e+183
-1.4566225e+183
-1.4570667e+183
-1.4572287e+183
-1.4567893e+183
-1.4574131e+183
-1.457007e+183
-1.4571056e+183
-1.4571317e+183
-1.4574983e+183
-1.4575419e+183
-1.4569643e+183
-1.4567912e+183
-1.4553345e+183
-1.4555208e+183
-1.457063e+183
-1.4570393e+183
-1.4556188e+183
-1.4556438e+183
-1.4469098e+183
-1.4523448e+183
-1.4525628e+183
-1.4471479e+183
-1.4526975e+183
-1.4526858e+183
-1.4472945e+183
-1.4473331e+183
-1.45628e+183
-1.4560453e+183
-1.4545682e+183
-1.4548056e+183
-1.4461108e+183
-1.451568e+183
-1.4518051e+183
-1.4463195e+183
-1.4566118e+183
-1.4564538e+183
-1.4549935e+183
-1.4551648e+183
-1.4521718e+183
-1.4520064e+183
-1.4465185e+183
-1.4467173e+183
-1.4132354e+183
-1.4368947e+183
-1.4385077e+183
-1.4072105e+183
-1.4100676e+183
-1.415998e+183
-1.4400019e+183
-1.4416333e+183
-1.442859e+183
-1.4412344e+183
-1.4461594e+183
-1.4444513e+183
-1.4485243e+183
-1.4492376e+183
-1.4494367e+183
-1.4501986e+183
-1.4476839e+183
-1.4432192e+183
-1.4486408e+183
-1.444154e+183
-1.450292e+183
-1.4511841e+183
-1.4510295e+183
-1.4519663e+183
-1.4450445e+183
-1.4459249e+183
-1.4494985e+183
-1.4504054e+183
-1.4480302e+183
-1.4451679e+183
-1.4460522e+183
-1.4467544e+183
-1.4458321e+183
-1.4442929e+183
-1.4451996e+183
-1.4399312e+183
-1.4407955e+183
-1.4475392e+183
-1.448403e+183
-1.4468656e+183
-1.4476835e+183
-1.4459905e+183
-1.4415668e+183
-1.4468155e+183
-1.4423388e+183
-1.0470034e+183
-1.4395671e+183
-1.4391745e+183
-1.4347164e+183
-1.4350825e+183
-1.4400389e+183
-1.4398523e+183
-1.4353468e+183
-1.4355884e+183
-1.4308076e+183
-1.4307038e+183
-1.4311178e+183
-1.430947e+183
-1.4315197e+183
-1.4312845e+183
-1.4319917e+183
-1.4317416e+183
-1.438025e+183
-1.4375473e+183
-1.4331263e+183
-1.4335814e+183
-1.4388127e+183
-1.4384099e+183
-1.4339417e+183
-1.4343561e+183
-1.4323298e+183
-1.4321862e+183
-1.4324829e+183
-1.4326778e+183
-1.433101e+183
-1.4328659e+183
-1.4334506e+183
-1.4332739e+183
-1.4343209e+183
-1.4337996e+183
-1.4294376e+183
-1.42994e+183
-1.4347699e+183
-1.4352633e+183
-1.4303704e+183
-1.4308748e+183
-1.4361965e+183
-1.435709e+183
-1.4313249e+183
-1.4317865e+183
-1.4371133e+183
-1.4366591e+183
-1.4321989e+183
-1.4326871e+183
-1.4326298e+183
-1.4334386e+183
-1.4242924e+183
-1.4251011e+183
-1.4278606e+183
-1.4274509e+183
-1.4231482e+183
-1.4235444e+183
-1.4285356e+183
-1.428192e+183
-1.4238495e+183
-1.4242084e+183
-1.4292558e+183
-1.4288554e+183
-1.4245257e+183
-1.424893e+183
-1.4299495e+183
-1.429592e+183
-1.4252076e+183
-1.4255993e+183
-1.4303105e+183
-1.4307575e+183
-1.4263499e+183
-1.4259529e+183
-1.4311336e+183
-1.4315482e+183
-1.4267019e+183
-1.4271367e+183
-1.4324654e+183
-1.4319655e+183
-1.4275529e+183
-1.428031e+183
-1.4333632e+183
-1.432903e+183
-1.4284543e+183
-1.4289727e+183
-1.4336453e+183
-1.4335409e+183
-1.433875e+183
-1.4337435e+183
-1.4340526e+183
-1.434272e+183
-1.4344576e+183
-1.4346518e+183
-1.3370663e+183
-1.3379455e+183
-1.3429256e+183
-1.3437437e+183
-1.2929292e+183
-1.2915118e+183
-1.3012756e+183
-1.3027373e+183
-1.2742927e+183
-1.2823907e+183
-1.2836662e+183
-1.3156829e+183
-1.3163209e+183
-1.3112331e+183
-1.3106765e+183
-1.3170067e+183
-1.317766e+183
-1.3127275e+183
-1.3119208e+183
-1.3205355e+183
-1.3256936e+183
-1.3212299e+183
-1.3263904e+183
-1.3218956e+183
-1.3270754e+183
-1.3226461e+183
-1.3277902e+183
-1.3321436e+183
-1.3328294e+183
-1.3375258e+183
-1.3381511e+183
-1.3307449e+183
-1.3360843e+183
-1.3314626e+183
-1.3368409e+183
-1.3415312e+183
-1.347494e+183
-1.3423185e+183
-1.3482868e+183
-1.3429801e+183
-1.3489572e+183
-1.3436093e+183
-1.3495664e+183
-1.3385859e+183
-1.3443726e+183
-1.3392705e+183
-1.345059e+183
-1.3293555e+183
-1.3346224e+183
-1.3301307e+183
-1.3354154e+183
-1.3399446e+183
-1.3457947e+183
-1.3408024e+183
-1.3467078e+183
-1.3279746e+183
-1.3332318e+183
-1.3287214e+183
-1.3339331e+183
-1.3151777e+183
-1.3102202e+183
-1.3237174e+183
-1.3192649e+183
-1.3243474e+183
-1.3199753e+183
-1.3250866e+183
-1.3601115e+183
-1.3607486e+183
-1.3674425e+183
-1.3680279e+183
-1.3473285e+183
-1.348024e+183
-1.3536539e+183
-1.3543186e+183
-1.3613759e+183
-1.3686994e+183
-1.3621464e+183
-1.3695182e+183
-1.3486847e+183
-1.3494697e+183
-1.354961e+183
-1.3557015e+183
-1.35242e+183
-1.3467331e+183
-1.3530841e+183
-1.3518011e+183
-1.3576428e+183
-1.365078e+183
-1.3582852e+183
-1.3656651e+183
-1.3588594e+183
-1.3662415e+183
-1.3595437e+183
-1.3669166e+183
-1.3737097e+183
-1.3825032e+183
-1.374362e+183
-1.3830919e+183
-1.3725497e+183
-1.3812996e+183
-1.3731422e+183
-1.3819295e+183
-1.3906539e+183
-1.4020805e+183
-1.391269e+183
-1.4026586e+183
-1.3917963e+183
-1.4032077e+183
-1.3924296e+183
-1.4038757e+183
-1.3748321e+183
-1.3835649e+183
-1.3754323e+183
-1.3842155e+183
-1.3929381e+183
-1.3936118e+183
-1.4051358e+183
-1.4044583e+183
-1.3761352e+183
-1.3849657e+183
-1.3770105e+183
-1.3858486e+183
-1.3943594e+183
-1.405933e+183
-1.3953234e+183
-1.4069381e+183
-1.3500783e+183
-1.3508039e+183
-1.3563174e+183
-1.3571145e+183
-1.3627752e+183
-1.3636054e+183
-1.370211e+183
-1.3710681e+183
-1.3644729e+183
-1.3654835e+183
-1.371958e+183
-1.3729873e+183
-1.3515984e+183
-1.357965e+183
-1.3525593e+183
-1.358931e+183
-1.3777425e+183
-1.3786275e+183
-1.3866185e+183
-1.3875515e+183
-1.3961308e+183
-1.407797e+183
-1.3970549e+183
-1.4086932e+183
-1.3795152e+183
-1.3884485e+183
-1.3805576e+183
-1.3894374e+183
-1.4095725e+183
-1.3979131e+183
-1.3989153e+183
-1.4105381e+183
-1.3828402e+183
-1.3917434e+183
-1.3834173e+183
-1.3923058e+183
-1.381388e+183
-1.3902312e+183
-1.3821871e+183
-1.3910587e+183
-1.3996823e+183
-1.4113313e+183
-1.4004965e+183
-1.4121035e+183
-1.4011704e+183
-1.4127971e+183
-1.4018042e+183
-1.413469e+183
-1.3548343e+183
-1.3612362e+183
-1.3554373e+183
-1.3617896e+183
-1.3662992e+183
-1.3671263e+183
-1.3738317e+183
-1.3746198e+183
-1.3533524e+183
-1.3597382e+183
-1.354169e+183
-1.3605753e+183
-1.3677464e+183
-1.3752582e+183
-1.3683152e+183
-1.375823e+183
-1.1906216e+183
-1.2545926e+183
-1.2647467e+183
-1.2306883e+183
-1.228545e+183
-1.2440283e+183
-1.2425434e+183
-1.4075225e+183
-1.4014434e+183
-1.4073577e+183
-1.4015741e+183
-1.4134359e+183
-1.4205713e+183
-1.420637e+183
-1.4135508e+183
-1.4019163e+183
-1.4077982e+183
-1.4017092e+183
-1.4076318e+183
-1.4136508e+183
-1.4207439e+183
-1.4138405e+183
-1.4209494e+183
-1.3833988e+183
-1.3877177e+183
-1.3880076e+183
-1.3836766e+183
-1.3842377e+183
-1.3839269e+183
-1.3882433e+183
-1.3885236e+183
-1.3972982e+183
-1.3920351e+183
-1.3970843e+183
-1.3922884e+183
-1.3928122e+183
-1.3978288e+183
-1.392523e+183
-1.3975429e+183
-1.3871451e+183
-1.3826762e+183
-1.3869859e+183
-1.382799e+183
-1.3913123e+183
-1.3963884e+183
-1.3965072e+183
-1.3914506e+183
-1.3874999e+183
-1.3829366e+183
-1.3872807e+183
-1.3831719e+183
-1.3915972e+183
-1.3966632e+183
-1.3918249e+183
-1.3968829e+183
-1.4020883e+183
-1.4079693e+183
-1.4081951e+183
-1.402295e+183
-1.4211453e+183
-1.4140263e+183
-1.4142372e+183
-1.4213399e+183
-1.4025349e+183
-1.4028193e+183
-1.4084355e+183
-1.4086963e+183
-1.4215668e+183
-1.414758e+183
-1.4218809e+183
-1.4144624e+183
-1.385452e+183
-1.3897138e+183
-1.3900218e+183
-1.3857384e+183
-1.3862404e+183
-1.3859658e+183
-1.3902455e+183
-1.3905009e+183
-1.399227e+183
-1.3939767e+183
-1.398967e+183
-1.3942608e+183
-1.3947813e+183
-1.3997912e+183
-1.3944968e+183
-1.3994869e+183
-1.3889853e+183
-1.3844572e+183
-1.3887309e+183
-1.3846947e+183
-1.3930072e+183
-1.398009e+183
-1.3982e+183
-1.3932291e+183
-1.3894718e+183
-1.3849153e+183
-1.3891945e+183
-1.3851998e+183
-1.3934463e+183
-1.3984303e+183
-1.3937333e+183
-1.3987198e+183
-1.4039176e+183
-1.4097575e+183
-1.4100354e+183
-1.4041784e+183
-1.4044445e+183
-1.410305e+183
-1.4047605e+183
-1.4105964e+183
-1.4228451e+183
-1.4230741e+183
-1.4157815e+183
-1.4160361e+183
-1.4165942e+183
-1.4162843e+183
-1.4233051e+183
-1.4236053e+183
-1.4149563e+183
-1.422086e+183
-1.4222547e+183
-1.4151448e+183
-1.4090785e+183
-1.4029945e+183
-1.4088728e+183
-1.4031816e+183
-1.4036864e+183
-1.4034005e+183
-1.4092838e+183
-1.4095346e+183
-1.415558e+183
-1.4152972e+183
-1.4223676e+183
-1.4226223e+183
-1.3733674e+183
-1.3694766e+183
-1.3730599e+183
-1.369776e+183
-1.3766296e+183
-1.3806035e+183
-1.3808451e+183
-1.3769061e+183
-1.3738939e+183
-1.3700329e+183
-1.3736149e+183
-1.3703342e+183
-1.3771423e+183
-1.3810826e+183
-1.3774243e+183
-1.3813568e+183
-1.3566448e+183
-1.3597686e+183
-1.3600728e+183
-1.3569374e+183
-1.3572096e+183
-1.3603425e+183
-1.3606464e+183
-1.3575256e+183
-1.3628439e+183
-1.3661898e+183
-1.3664823e+183
-1.3631418e+183
-1.3634058e+183
-1.3667475e+183
-1.3670589e+183
-1.3637171e+183
-1.3577693e+183
-1.3608825e+183
-1.3611524e+183
-1.3580385e+183
-1.3585387e+183
-1.3582774e+183
-1.3613784e+183
-1.361618e+183
-1.3639483e+183
-1.3672781e+183
-1.3675193e+183
-1.3642039e+183
-1.3646739e+183
-1.3644158e+183
-1.3677369e+183
-1.3680024e+183
-1.3705341e+183
-1.3740949e+183
-1.3743537e+183
-1.3707755e+183
-1.3712787e+183
-1.3710007e+183
-1.3745946e+183
-1.3748658e+183
-1.3816158e+183
-1.3818963e+183
-1.3776513e+183
-1.3779223e+183
-1.3784425e+183
-1.3781562e+183
-1.3821327e+183
-1.3824107e+183
-1.3713494e+183
-1.3676206e+183
-1.3712052e+183
-1.3677452e+183
-1.3747844e+183
-1.3787875e+183
-1.3788979e+183
-1.3749106e+183
-1.3681009e+183
-1.3716794e+183
-1.3678833e+183
-1.371479e+183
-1.3750394e+183
-1.3790403e+183
-1.3752609e+183
-1.3792718e+183
-1.3555701e+183
-1.3586758e+183
-1.3589476e+183
-1.3558196e+183
-1.3560663e+183
-1.3591999e+183
-1.3595187e+183
-1.3563904e+183
-1.3652934e+183
-1.3617249e+183
-1.3650388e+183
-1.3619907e+183
-1.365936e+183
-1.3622598e+183
-1.365585e+183
-1.3625916e+183
-1.3581308e+183
-1.3549127e+183
-1.3579883e+183
-1.3550336e+183
-1.3610265e+183
-1.3643419e+183
-1.3644548e+183
-1.3611563e+183
-1.3584706e+183
-1.3551609e+183
-1.3582619e+183
-1.3553705e+183
-1.3612962e+183
-1.3646074e+183
-1.3615171e+183
-1.3648268e+183
-1.3683003e+183
-1.3718859e+183
-1.3721666e+183
-1.3685631e+183
-1.3688566e+183
-1.3724605e+183
-1.3692111e+183
-1.3727914e+183
-1.3795041e+183
-1.379784e+183
-1.3754814e+183
-1.3757653e+183
-1.3763795e+183
-1.376041e+183
-1.380053e+183
-1.3803751e+183
-1.3462464e+183
-1.3433052e+183
-1.3461198e+183
-1.3434165e+183
-1.3489505e+183
-1.3519729e+183
-1.3520777e+183
-1.3490656e+183
-1.3437034e+183
-1.3465187e+183
-1.343531e+183
-1.3463567e+183
-1.3491766e+183
-1.3522068e+183
-1.3493583e+183
-1.3524033e+183
-1.3335061e+183
-1.3359963e+183
-1.3361802e+183
-1.3336723e+183
-1.334093e+183
-1.3338547e+183
-1.3363751e+183
-1.3366181e+183
-1.3413764e+183
-1.3385062e+183
-1.341184e+183
-1.3386984e+183
-1.3391606e+183
-1.3418723e+183
-1.3388936e+183
-1.3415887e+183
-1.3355735e+183
-1.332935e+183
-1.335436e+183
-1.3330762e+183
-1.33795e+183
-1.3406286e+183
-1.34073e+183
-1.3380711e+183
-1.3358478e+183
-1.3331889e+183
-1.3356872e+183
-1.3333519e+183
-1.3381869e+183
-1.3408573e+183
-1.3383569e+183
-1.3410296e+183
-1.3438514e+183
-1.3466772e+183
-1.3468929e+183
-1.3440519e+183
-1.3442768e+183
-1.347137e+183
-1.3445726e+183
-1.3474332e+183
-1.3525991e+183
-1.352833e+183
-1.3495366e+183
-1.3497632e+183
-1.3503195e+183
-1.3500045e+183
-1.3530834e+183
-1.3534032e+183
-1.3238732e+183
-1.3240222e+183
-1.3262304e+183
-1.3263792e+183
-1.3287627e+183
-1.3310603e+183
-1.331215e+183
-1.3286083e+183
-1.3242325e+183
-1.3244039e+183
-1.3267403e+183
-1.3265612e+183
-1.3289237e+183
-1.3291306e+183
-1.3313915e+183
-1.3316198e+183
-1.3257894e+183
-1.3232043e+183
-1.3255818e+183
-1.3234179e+183
-1.327994e+183
-1.3304743e+183
-1.3306202e+183
-1.3281756e+183
-1.3261132e+183
-1.3236184e+183
-1.3259517e+183
-1.3237745e+183
-1.3283005e+183
-1.3307442e+183
-1.3284689e+183
-1.3309028e+183
-1.3179438e+183
-1.3181497e+183
-1.3207883e+183
-1.320987e+183
-1.3212089e+183
-1.3213636e+183
-1.3183708e+183
-1.3185369e+183
-1.3049712e+183
-1.3044627e+183
-1.3089186e+183
-1.3094071e+183
-1.3141142e+183
-1.3145604e+183
-1.3186987e+183
-1.3188434e+183
-1.3214806e+183
-1.3216189e+183
-1.3218444e+183
-1.3220124e+183
-1.3190469e+183
-1.3192203e+183
-1.3098558e+183
-1.3054231e+183
-1.3059617e+183
-1.3103536e+183
-1.3152738e+183
-1.3149018e+183
-1.2974043e+183
-1.2968587e+183
-1.301186e+183
-1.3017241e+183
-1.2964205e+183
-1.2959793e+183
-1.3002286e+183
-1.3007189e+183
-1.3202243e+183
-1.3204244e+183
-1.3229687e+183
-1.3231792e+183
-1.3234679e+183
-1.3237121e+183
-1.3206812e+183
-1.3209142e+183
-1.3116409e+183
-1.3072432e+183
-1.307775e+183
-1.3121673e+183
-1.3168928e+183
-1.3164464e+183
-1.3193615e+183
-1.3195229e+183
-1.3221254e+183
-1.3222865e+183
-1.3225517e+183
-1.322782e+183
-1.319775e+183
-1.3200115e+183
-1.3107529e+183
-1.306385e+183
-1.3067896e+183
-1.3111672e+183
-1.3160338e+183
-1.3155859e+183
-1.3245015e+183
-1.3246773e+183
-1.3270693e+183
-1.326879e+183
-1.3293121e+183