/*--------------------------------*- C++ -*----------------------------------*\
  =========                 |
  \\      /  F ield         | OpenFOAM: The Open Source CFD Toolbox
   \\    /   O peration     | Website:  https://openfoam.org
    \\  /    A nd           | Version:  7
     \\/     M anipulation  |
\*---------------------------------------------------------------------------*/
FoamFile
{
    version     2.0;
    format      ascii;
    class       surfaceScalarField;
    location    "2000";
    object      phi;
}
// * * * * * * * * * * * * * * * * * * * * * * * * * * * * * * * * * * * * * //

dimensions      [0 3 -1 0 0 0 0];

internalField   nonuniform List<scalar> 
102298
(
3.9661925e+87
-1.2686138e+88
4.5260745e+87
-1.166131e+88
-1.2541909e+88
-1.3292509e+88
-1.2641878e+88
-1.2682868e+88
-1.1950398e+88
-6.2234026e+85
-2.5663896e+87
-6.4429114e+86
1.6284063e+87
-2.5620344e+87
-2.6581928e+87
-3.3270683e+87
-3.070197e+87
5.1362828e+86
4.3820527e+87
-1.1201695e+88
-1.1446854e+88
-1.1796797e+88
-1.2301869e+88
-1.0444486e+88
2.0587e+87
1.5659407e+87
-2.6921733e+87
-3.0892553e+87
1.0581562e+87
1.1473596e+87
-1.3499324e+88
-3.2652707e+86
-1.3836127e+86
1.6950206e+87
3.2058226e+86
6.0228701e+86
-2.7620075e+87
-3.0153147e+87
-3.0564244e+87
5.0004698e+86
-2.2170796e+87
-2.602104e+87
3.8737181e+86
1.9603216e+86
-3.1287896e+87
-2.9037505e+87
-2.6263591e+87
-2.7713645e+87
-2.341729e+87
-2.4489502e+87
-2.0318432e+87
-4.1036948e+86
-2.2016808e+87
-1.1429424e+88
-1.1016578e+88
-1.1207913e+88
-9.8471874e+87
-2.1457659e+85
-5.9564613e+86
4.4746448e+86
-5.2818901e+86
-5.3334299e+86
6.2417649e+85
-7.1581625e+86
-6.7746285e+86
-5.5380853e+86
-1.4659323e+86
4.7963749e+86
-5.407659e+86
-5.2243775e+86
-6.9080138e+86
-7.0487923e+86
2.1413907e+86
-3.7576236e+86
-2.6610968e+87
-2.6120369e+87
3.0769256e+86
2.2605854e+86
-2.1514306e+87
1.8706546e+87
-2.2876245e+87
-2.9741657e+87
-2.9984542e+87
-2.373105e+87
-2.2062263e+87
1.5944779e+87
-2.4298694e+87
-2.9863932e+87
-2.4546441e+87
-3.1988972e+87
-1.4382148e+87
-1.0790766e+88
-1.0665709e+88
-5.4208681e+86
3.8321366e+86
-5.4146411e+86
-5.641305e+86
-6.8136449e+86
-7.2523507e+86
-2.5806728e+87
-1.0280786e+88
1.5359393e+87
9.1456599e+86
7.6323399e+86
-7.1280612e+86
-4.9994111e+86
1.3935283e+87
7.4096134e+86
-6.2575176e+86
-8.0580226e+86
6.0302767e+86
-1.3000373e+88
3.4193926e+87
2.8124785e+87
-1.7446346e+87
-2.3488525e+87
-2.0923175e+87
-2.9058504e+87
1.7860336e+87
2.7196353e+87
3.176358e+86
2.4825723e+86
2.3033648e+86
-3.1986686e+87
-6.6458994e+85
-3.1230235e+85
2.3970531e+86
2.1726387e+86
2.4654378e+86
-3.2670373e+87
-4.1226381e+85
-6.5236687e+85
2.3237468e+86
2.4737127e+86
-3.2142944e+87
-5.9651861e+85
-2.6339092e+85
3.0984785e+86
1.3735836e+87
8.6378675e+86
9.9610735e+86
-1.3786476e+88
-3.9632149e+86
-2.6049915e+86
1.0210462e+87
8.9849712e+86
-1.3814375e+88
-2.2912292e+86
-4.3240922e+86
-3.5940774e+86
3.9806685e+86
2.010189e+86
-2.771079e+87
-3.1196426e+86
3.3597673e+86
-9.4300179e+86
-2.455733e+87
-7.8527607e+86
-2.4575338e+87
-8.4695758e+85
3.1705324e+85
-4.0575244e+86
-4.2645852e+86
-3.6069187e+86
-3.8379404e+86
9.0663179e+85
-6.1001948e+86
-5.7339704e+86
-5.1979827e+86
-4.9206028e+86
4.0971901e+86
2.5769766e+86
-2.5842459e+87
-2.9468852e+87
-2.9579586e+87
-2.5708409e+87
1.9854713e+86
2.9241376e+86
-7.8565057e+86
-2.4981231e+87
3.0554673e+86
-8.7335382e+86
2.915774e+86
-2.4289736e+87
-1.0980846e+86
3.500002e+86
1.5570074e+86
-2.7167047e+87
3.3840688e+86
-2.7261468e+87
-2.3563821e+85
8.4087954e+85
5.7033219e+85
-5.8562627e+86
-5.5419749e+86
-4.7388806e+86
-4.9557348e+86
7.0557607e+85
-5.6959467e+86
-5.709225e+86
-4.863266e+86
-4.8715661e+86
4.2572106e+85
-3.8888778e+86
-3.9885179e+86
-3.5844802e+86
-4.1551078e+85
-3.5512301e+86
-4.0085272e+86
-2.3264946e+87
-2.069387e+87
-1.9758332e+87
-2.3740069e+87
-4.0969086e+86
-4.0741816e+86
-3.8072617e+86
-3.7937178e+86
4.5531696e+86
-2.5370025e+87
-2.8757633e+87
-3.0518444e+87
-2.6337038e+87
-2.2420751e+87
-2.2602603e+87
-1.7483597e+87
-1.8180985e+87
-1.3673255e+84
-1.2307938e+86
1.1103183e+86
8.9188378e+84
-1.099627e+86
-1.1328989e+86
-1.5458557e+86
-1.4585439e+86
-1.0897185e+86
-8.7460404e+84
1.0058162e+86
-1.1152872e+86
-1.0911687e+86
-1.4628715e+86
-1.5064039e+86
-4.9873097e+86
5.9964366e+85
5.0893613e+86
-4.7796398e+86
-5.0385056e+86
-6.6860379e+86
-6.4495886e+86
2.9561464e+85
-4.7758239e+85
-5.7421637e+86
-5.70308e+86
4.6698482e+85
-1.6732155e+85
-1.1611975e+86
1.1312945e+86
-1.1158875e+86
-1.1411245e+86
-1.4864204e+86
-1.5544548e+86
-1.1117356e+86
-2.6384924e+85
1.1902878e+86
-1.1229295e+86
-1.098766e+86
-1.4642663e+86
-1.5204323e+86
4.1158149e+85
-5.6875264e+85
-5.6899371e+86
-5.8105523e+86
2.5367425e+86
-2.5550915e+87
4.8192522e+86
3.4478504e+86
-2.575383e+87
6.1673615e+85
4.4162161e+86
-4.9791692e+86
-5.0504381e+86
-6.4628679e+86
-6.8526386e+86
-4.8211938e+86
-4.3238711e+85
3.7699683e+86
-5.0816001e+86
-5.2031372e+86
-6.9484231e+86
-6.475913e+86
-2.3456234e+86
-2.5746088e+87
-4.3627286e+86
3.3355003e+86
-6.7136533e+86
-5.1326767e+86
-4.9391491e+86
-6.549386e+86
-2.6264501e+87
-1.2341606e+85
-1.1898844e+86
9.904796e+85
-1.1195832e+86
-1.1718892e+86
-1.5824133e+86
-1.4817794e+86
-1.0883886e+86
9.8501625e+85
-1.1490034e+86
-1.1384164e+86
-1.5098605e+86
-1.5445372e+86
-3.8933905e+85
-5.7003704e+86
-5.7411934e+86
1.0680358e+88
-8.2783783e+86
5.5678565e+86
6.8003212e+86
-7.4623381e+86
-1.2687486e+87
-7.2642164e+86
-5.5507442e+86
8.6754493e+86
7.4276578e+86
-5.8173689e+86
8.5015397e+86
6.9322879e+86
-7.2914279e+86
-2.4454519e+86
-2.5601174e+87
3.0996317e+86
2.1797689e+86
-1.2604663e+86
-9.0771091e+85
1.9381291e+86
-2.5782463e+87
-3.2681154e+86
-1.3304072e+86
-1.0615348e+86
1.8170323e+86
2.1420167e+86
2.0076937e+86
-3.2258181e+87
-2.5656964e+86
1.6720685e+86
-1.4769462e+86
-1.6762166e+86
1.3867697e+86
-3.1639012e+87
2.5072412e+86
1.828354e+86
-1.6010518e+86
-1.2589113e+86
1.5705053e+86
-2.4189458e+87
-1.9752147e+86
2.4294537e+86
1.4824601e+86
-1.7775662e+86
-1.4669057e+86
1.2678396e+86
-1.6722596e+86
2.1429101e+86
1.2544107e+86
1.4418769e+86
-1.5261214e+86
-1.8074658e+86
-3.0280323e+87
2.4716656e+87
-2.136658e+86
-1.8912355e+86
-1.7427519e+86
1.3245825e+86
-3.1095257e+87
1.0943892e+86
-2.3846602e+86
-1.8701243e+86
-1.688754e+86
1.3552668e+86
1.1018184e+86
-1.1252296e+87
-9.5992938e+87
6.4408468e+86
5.3870004e+86
-8.284548e+86
-6.6755446e+86
-2.4640315e+87
3.2017081e+87
1.4147753e+86
-1.8719913e+86
-1.5729345e+86
1.1892288e+86
-1.8980644e+86
-1.6442326e+86
1.1804298e+86
1.3713004e+86
-3.1123432e+87
-9.3927895e+87
6.6890892e+86
4.9912539e+86
-6.7538244e+86
-8.182654e+86
-1.2350488e+87
-3.0970882e+86
7.6251546e+86
-1.2256159e+88
-4.8342268e+86
6.0222696e+86
-1.2081352e+88
7.3975667e+86
-2.7461191e+86
-4.5130247e+86
5.6408323e+86
-1.3579285e+87
7.6582257e+87
7.4743693e+87
1.5442052e+87
2.5516799e+87
1.7567849e+86
-1.647638e+86
-1.3195714e+86
1.4934631e+86
2.0846616e+86
-1.340522e+86
-9.9179483e+85
1.8195775e+86
4.553666e+85
4.8834807e+85
5.4794803e+85
-7.0723167e+86
-8.6252357e+84
-1.3267657e+85
5.4240866e+85
5.3753784e+85
5.4682355e+85
-7.00397e+86
-1.1882251e+85
-6.1281492e+84
-3.8895683e+85
4.7674026e+85
5.3855799e+85
5.1653234e+85
-7.1695743e+86
-7.234899e+84
-1.2376342e+85
4.8656171e+85
5.4640827e+85
-7.0195694e+86
-8.1323098e+84
-1.2092835e+85
4.0299313e+85
4.8912092e+85
5.3964295e+85
-7.0982953e+86
-7.9239369e+84
-1.1616268e+85
5.3126671e+85
5.4173534e+85
-7.0172903e+86
-5.1174205e+84
-1.0426586e+85
5.3625315e+85
2.3380197e+86
2.2541159e+86
1.9377779e+86
-3.1742941e+87
-7.2167267e+85
-4.8094632e+85
3.0667019e+86
2.1627207e+86
1.9848517e+86
-3.1980875e+87
-4.5989702e+85
-7.9429724e+85
-2.6806294e+86
2.0061026e+86
2.1868292e+86
-3.1883265e+87
-8.0516975e+85
-4.2357352e+85
2.1844552e+86
1.8332941e+86
-3.2835941e+87
-5.4852977e+85
-8.3579755e+85
-1.2619586e+87
-5.0512521e+86
-3.3418669e+86
1.1291413e+87
-1.286563e+88
-3.049201e+86
-4.7759416e+86
-1.2634976e+88
-3.0914322e+86
1.9395722e+86
2.0728505e+86
1.6443296e+86
-2.7790393e+87
-4.1052184e+85
-1.6458478e+85
-2.6348412e+86
2.9557491e+86
-3.1018867e+87
-3.1061511e+87
-1.7883616e+85
-1.8256949e+84
-8.6934578e+85
1.9693613e+85
-8.5256349e+85
-9.003674e+85
-7.0409418e+85
-7.3098379e+85
-2.381169e+84
-8.5095092e+85
-8.8163907e+85
-8.7979822e+85
-7.1736507e+85
-7.1117397e+85
-1.0917332e+85
1.4599983e+85
-6.4832889e+85
-6.6677314e+85
-6.9479334e+85
-6.6162027e+85
-7.0135309e+85
-6.844567e+85
-6.6821499e+85
-6.4831917e+85
3.4992829e+85
9.0000267e+85
-4.7761664e+86
9.1986916e+85
4.9509076e+85
-4.7261494e+86
1.8946681e+85
-4.9421546e+86
2.3453357e+85
-4.9151427e+86
-2.7840628e+86
-1.6908655e+86
3.5469569e+86
2.0385278e+86
-2.6953021e+87
-2.4788576e+86
3.363601e+86
-8.5347227e+86
-2.4602933e+87
2.5143939e+86
-7.2908271e+86
-2.4366236e+87
3.3893101e+86
-2.6717185e+87
2.3146011e+86
2.5361016e+86
-3.1927439e+87
2.7412429e+86
2.8814812e+86
-3.0939727e+87
-1.4162148e+86
1.8614112e+86
1.9596538e+86
1.4292752e+86
-2.7643339e+87
-2.0655278e+85
-4.1003749e+85
1.8147073e+86
2.0090305e+86
-2.7696171e+87
-2.1037015e+85
-4.144452e+85
6.0062267e+85
8.2294209e+85
-5.6319321e+86
-5.5783328e+86
-4.7439195e+86
-4.774688e+86
2.860039e+85
8.1704924e+85
-4.6733769e+85
-4.6305625e+86
8.27467e+85
-4.5998757e+86
4.760922e+85
-1.1607967e+85
8.1292136e+85
2.1294998e+85
-4.8212012e+86
-2.1517987e+85
8.1548372e+85
-4.8550632e+86
3.9112507e+85
8.3142944e+85
-4.6087002e+86
8.4914202e+85
-4.6255472e+86
2.2059631e+85
8.3662135e+85
-4.8545145e+86
8.5618379e+85
-4.8731866e+86
-7.0405806e+84
-8.1469245e+84
1.3473023e+85
-8.1181117e+85
-8.551849e+85
-6.8414722e+85
-7.0766337e+85
-4.4463958e+84
-1.3330271e+85
-8.4102551e+85
-8.30074e+85
-7.0622617e+85
-6.8833893e+85
1.5236789e+84
-6.2894559e+85
-6.3695898e+85
-6.6204701e+85
-6.6742744e+85
2.4514889e+84
-3.8018683e+85
-3.9004425e+86
-3.5898633e+86
-3.9597368e+86
-3.5891727e+86
1.0009329e+84
-6.5061205e+85
-6.7155137e+85
-6.4519038e+85
-6.1729116e+85
-9.1001564e+85
-5.5486089e+85
-3.8179277e+86
-3.8345318e+86
-3.3705686e+86
-3.2344034e+86
7.05658e+85
-5.8286126e+86
-5.5396291e+86
-4.9040175e+86
-4.7135867e+86
-1.8644797e+85
-8.3453837e+84
-8.2830144e+85
-8.664687e+85
-6.9331797e+85
-7.1603018e+85
-1.1442938e+85
-8.5561488e+85
-8.4197455e+85
-7.1376468e+85
-7.0128395e+85
8.8609912e+84
-6.6845232e+85
-6.4737069e+85
-6.9367181e+85
-6.6451395e+85
-6.4481261e+85
-6.7838512e+85
-6.4951034e+85
-6.7454857e+85
-2.4831116e+86
-1.4715582e+86
2.9671997e+86
-2.6597211e+87
-2.2238506e+86
-7.974485e+86
-2.4414671e+87
2.2170522e+86
-6.9067192e+86
-2.468903e+87
2.8777749e+86
-2.6430793e+87
-5.3482743e+85
8.602988e+85
-5.8200908e+86
-5.4740201e+86
-4.8943603e+86
-4.6404069e+86
1.0374197e+86
-5.5558455e+86
-5.5704248e+86
-4.71867e+86
-4.7464783e+86
-3.9488518e+84
-3.7229164e+86
-3.2572021e+86
-3.6156542e+86
-3.0302773e+86
-3.6636498e+86
-3.2456281e+86
-3.7991548e+86
-3.1886148e+86
1.3684637e+85
-1.0188795e+86
1.148099e+86
-1.0760373e+86
-1.0368562e+86
-1.3944398e+86
-1.4491856e+86
-4.4530189e+82
-2.7316168e+85
3.1468213e+85
1.6840324e+84
-2.3635936e+85
-2.2572303e+85
-3.3663322e+85
-3.5882598e+85
-2.615864e+85
-1.7992423e+84
3.0513067e+85
-2.285958e+85
-2.3240739e+85
-3.5392052e+85
-3.4397134e+85
4.4418909e+84
-7.8208792e+84
-1.2423851e+86
-1.2212107e+86
7.5659604e+84
-2.3730112e+84
-2.613987e+85
3.1931926e+85
-2.3647233e+85
-2.2743198e+85
-3.4368048e+85
-3.5988438e+85
-2.6053429e+85
-2.0998052e+84
3.2174124e+85
-2.2751048e+85
-2.3133514e+85
-3.5535747e+85
-3.4090355e+85
6.1887636e+84
-7.2592721e+84
-1.2235792e+86
-1.2444807e+86
-1.0551637e+86
9.9890467e+84
1.1420128e+86
-1.0729425e+86
-1.0917345e+86
-1.4971621e+86
-1.4265624e+86
-4.3128301e+85
5.6722537e+85
-5.623029e+86
-5.4949881e+86
-5.9016663e+83
-2.6699073e+85
3.1619185e+85
-2.4225013e+85
-2.3274534e+85
-3.4059308e+85
-3.6459562e+85
-2.5363617e+85
-3.3284857e+84
3.0412813e+85
-2.3337998e+85
-2.2991854e+85
-3.5539197e+85
-3.4554187e+85
-4.8345329e+84
-1.2391002e+86
-8.9475802e+84
-1.2504279e+86
-4.1927683e+84
-2.6396675e+85
3.323868e+85
-2.4080367e+85
-2.3034047e+85
-3.4708242e+85
-3.6447943e+85
-2.6340677e+85
-4.3092367e+84
3.3070171e+85
-2.3170629e+85
-2.3342241e+85
-3.5610292e+85
-3.436632e+85
7.3092474e+84
-8.8503604e+84
-1.2256998e+86
-1.254374e+86
-4.3072277e+84
-1.0080057e+86
1.0664768e+85
9.7766017e+85
-1.0559147e+86
-1.0841053e+86
-1.3900121e+86
-1.4823696e+86
-9.0956176e+85
8.7348638e+85
-1.0780155e+86
-1.0272889e+86
-1.4023778e+86
-1.4498638e+86
-3.8135624e+85
5.8338219e+85
-5.5101794e+86
-5.5914794e+86
-9.357024e+84
-9.9597266e+85
9.1527116e+85
1.6399692e+85
-1.0717868e+86
-1.1049606e+86
-1.4933918e+86
-1.4011849e+86
-8.9321141e+85
-1.6599494e+85
7.7598092e+85
-1.0874435e+86
-1.0571874e+86
-1.417047e+86
-1.451804e+86
4.0794591e+85
-6.2820085e+85
-5.615277e+86
-5.520008e+86
9.7779655e+85
-4.846925e+85
-5.6505035e+86
-1.8116162e+85
9.54183e+85
-1.0747617e+86
-1.4197414e+86
-1.0996283e+86
-1.4997663e+86
-9.0002249e+85
8.3647789e+85
-1.0783314e+86
-1.0343487e+86
-1.391722e+86
-1.4457173e+86
-5.5174247e+86
-1.4114045e+84
-2.7019389e+85
3.0285723e+85
-2.4161143e+85
-2.3124844e+85
-3.6399174e+85
-3.4437241e+85
-2.6041093e+85
-3.6015515e+84
3.0415186e+85
-2.3921126e+85
-2.393489e+85
-3.6135917e+85
-3.5380804e+85
5.23084e+84
-9.3798408e+84
-1.263796e+86
-1.2413448e+86
-4.983936e+84
-2.544828e+85
3.1457351e+85
-2.345134e+85
-3.4924763e+85
-3.6659372e+85
-2.4491473e+85
-2.4863635e+85
3.0259546e+85
-2.3765294e+85
-2.362374e+85
-3.473655e+85
-3.5947267e+85
8.1743611e+84
-1.2388483e+86
-1.2631266e+86
2.4765497e+87
1.7086113e+86
-3.1377852e+87
-1.7757886e+86
-1.9112041e+86
1.3523039e+86
1.1029687e+86
1.9335811e+86
3.183231e+87
-1.8347657e+86
-1.6587039e+86
1.3809438e+86
1.109447e+86
-2.4557801e+87
3.1862781e+87
1.3948787e+86
-1.8923548e+86
1.1683754e+86
-1.5787722e+86
-1.9799351e+86
1.1443841e+86
1.9470057e+86
2.6140459e+87
-2.460845e+86
1.7045769e+86
-1.4744104e+86
1.3853612e+86
-1.6698292e+86
2.5546564e+87
-1.6715883e+86
1.7392719e+86
1.4821256e+86
-2.4639224e+86
-1.3559196e+86
-9.7534024e+85
2.0396236e+86
1.7738006e+86
-2.9854486e+86
-1.1129406e+86
2.0465649e+86
-1.3814078e+86
1.7014898e+86
2.540971e+87
-1.8552212e+86
-1.3715998e+86
1.6681295e+86
1.42532e+86
-1.6917641e+86
-2.3241506e+86
-1.056211e+86
1.9654134e+86
-1.3769666e+86
1.7368443e+86
-2.5334197e+87
-1.3445418e+86
-1.0988283e+86
2.0408697e+86
1.7015313e+86
-1.6591962e+86
1.6395246e+86
-1.4725454e+86
1.3509254e+86
-5.5517985e+86
-4.2808197e+85
5.8496643e+85
-1.5694052e+85
4.8237568e+85
-2.1576762e+85
4.4772732e+85
3.6991354e+85
5.5683234e+86
-4.2976059e+85
-6.9952424e+86
-2.5365408e+85
-2.8879437e+85
4.1000942e+85
3.5874192e+85
-6.9272277e+86
5.2746493e+85
-2.2133555e+85
4.2569329e+85
-2.8100162e+85
3.8681486e+85
-5.0769189e+85
-1.8525436e+85
4.7521866e+85
-2.2444727e+85
4.2225111e+85
3.4907415e+85
5.5156345e+86
-6.8800933e+86
-5.0616944e+85
-2.6169917e+85
-2.9694811e+85
4.0332081e+85
3.4647658e+85
5.606016e+86
-6.9805829e+86
-2.4595154e+85
4.0548477e+85
-2.9801062e+85
3.7082594e+85
4.073323e+85
-5.596405e+85
-1.9177331e+85
-2.3075329e+85
4.7334647e+85
4.1458732e+85
4.655677e+85
-1.8405427e+85
-2.3538978e+85
4.3197545e+85
-5.3742951e+86
-3.786663e+85
4.4228475e+85
-2.9093105e+85
3.3547035e+85
-3.4379028e+85
3.0141701e+85
-3.3573984e+85
3.9661009e+85
-6.825275e+86
-3.0660553e+85
-3.5818169e+85
3.0682212e+85
2.7113264e+85
5.3137639e+86
-6.72723e+86
-4.8379264e+85
-3.2015547e+85
-3.5507778e+85
3.0884645e+85
2.5169304e+85
-5.3389706e+85
-3.0250873e+85
-3.4044828e+85
3.3827203e+85
2.8035762e+85
-5.352243e+86
-3.8907645e+85
5.5003242e+85
-2.6368466e+85
3.5952082e+85
-3.2398998e+85
3.2057054e+85
3.4913895e+85
5.3905972e+86
-6.8755554e+86
-3.1188598e+85
-3.4478799e+85
3.1896125e+85
2.6909394e+85
-6.7578466e+86
4.8754475e+85
-2.8044429e+85
3.3345792e+85
-3.3818353e+85
2.934588e+85
-2.9347543e+85
-3.3038914e+85
3.4771674e+85
2.9521638e+85
-5.3306582e+86
-3.4856264e+85
4.8363309e+85
-3.031052e+85
3.0995119e+85
-3.601843e+85
2.7354138e+85
3.0165129e+85
5.3978927e+86
-6.9618385e+86
-3.5787147e+85
-3.3865828e+85
-3.6795336e+85
2.9775272e+85
2.51461e+85
-6.8285637e+86
4.1790838e+85
-3.0778012e+85
3.0967798e+85
-3.6176965e+85
2.7461477e+85
-4.1165121e+85
-3.3216633e+85
-3.6509789e+85
2.9948444e+85
2.5104648e+85
2.9205841e+85
-5.4601326e+86
-3.5323063e+85
-3.5046807e+85
2.9531802e+85
-3.8120047e+85
2.5022831e+85
-5.3793544e+86
3.9698854e+85
-3.1921254e+85
3.0433161e+85
-3.7137547e+85
2.739941e+85
-2.4837297e+85
3.4170744e+85
2.8093241e+85
2.5121548e+85
-6.7503363e+86
-3.6543872e+85
-4.151827e+85
-2.9473872e+85
2.7183082e+85
2.2675734e+85
-6.9043899e+86
-4.2341193e+85
-3.9201921e+85
-1.7311373e+86
-2.3316931e+87
2.368414e+86
1.3178142e+86
1.1668497e+86
-1.9564364e+86
-1.6880493e+86
2.3139354e+85
5.4200195e+86
-3.3478017e+85
2.6092023e+85
2.1141483e+85
-6.8402182e+86
-4.3413378e+85
-4.058509e+85
5.4750991e+86
2.6019317e+85
2.288842e+85
-6.940307e+86
-4.3951166e+85
-3.90455e+85
-2.7596386e+85
6.9457093e+86
-3.5056068e+85
2.7593943e+85
-3.968311e+85
2.4815921e+85
-2.3546915e+87
-2.2825796e+86
1.0435024e+86
1.2658387e+86
-1.8845153e+86
-2.0347222e+86
6.8611256e+86
-3.8166968e+85
-3.6367458e+85
2.8205975e+85
-3.9186632e+85
2.3247138e+85
2.7526978e+85
5.3147946e+86
-3.9338494e+85
-3.479557e+85
2.849854e+85
-3.7665807e+85
2.3395301e+85
5.3581632e+86
-3.3397683e+85
2.8166361e+85
-3.8183971e+85
2.5034439e+85
-3.458652e+85
-3.2913704e+85
2.8218297e+85
-3.7990242e+85
2.4922681e+85
-4.6227533e+85
-3.4059176e+85
2.8865305e+85
-3.7571814e+85
2.3345211e+85
1.7066273e+86
-2.261382e+86
-2.9455874e+87
-2.0841712e+86
-1.9624586e+86
1.2092841e+86
1.0165202e+86
-2.956851e+87
2.5652193e+86
-2.0126517e+86
-1.7468574e+86
1.308986e+86
1.167967e+86
-5.3453072e+86
-3.4699826e+85
6.7644689e+86
-3.1260998e+85
3.016512e+85
-3.7190678e+85
2.6320576e+85
3.0171912e+85
5.3791157e+86
-6.9674564e+86
-3.4586825e+85
-3.7921999e+85
2.8844294e+85
2.3620334e+85
-6.8762647e+86
-3.1857255e+85
2.9890786e+85
-3.7485611e+85
2.608795e+85
6.8404907e+86
-3.3696643e+85
-3.740255e+85
2.933562e+85
2.394978e+85
2.2636419e+85
5.47975e+86
2.6211761e+85
2.1473319e+85
-6.9504646e+86
-4.3577308e+85
-4.0509458e+85
5.4385258e+86
2.7158878e+85
2.3734549e+85
-6.8891003e+86
-4.3236692e+85
-3.7864028e+85
2.7332635e+85
-3.6173198e+85
2.8458459e+85
-3.9299002e+85
2.3530937e+85
-3.3496503e+85
2.9021996e+85
-3.8745753e+85
2.5742114e+85
-1.8651498e+86
-2.3482037e+87
1.1012084e+86
1.3036644e+86
-1.7198084e+86
-2.054793e+86
-2.2886198e+87
1.001643e+86
1.2471241e+86
-1.8457696e+86
-2.01542e+86
-1.8851665e+86
-2.9061696e+87
1.2920588e+86
-1.8508492e+86
-2.1037837e+86
1.1122044e+86
-2.8582843e+87
-2.0534332e+86
-1.878773e+86
1.2681767e+86
9.6384282e+85
2.1798743e+87
-3.0850907e+86
3.7162293e+86
-9.5222471e+85
1.5092593e+86
1.6930153e+86
-1.3308853e+86
-2.6446126e+87
-2.1254474e+86
3.1016744e+86
-1.6749478e+86
-1.9361537e+86
1.3064651e+86
1.1837991e+86
-9.6946668e+87
-1.3344746e+87
9.6083821e+86
-1.6612322e+86
-3.8298772e+86
7.6710724e+86
2.1483067e+87
-3.7280126e+86
-2.644352e+87
1.3956376e+86
1.6636714e+86
-1.3066755e+86
-9.8347467e+85
-2.7049154e+86
-1.7848332e+86
-1.9445077e+86
1.2829323e+86
1.0753453e+86
-1.50102e+87
-1.09686e+88
-1.2449246e+87
9.8088642e+87
-1.0463235e+88
-1.3639428e+87
-2.1595246e+86
9.6133899e+86
7.736809e+86
-3.4292762e+86
-2.0972848e+87
-2.2101949e+86
-1.6816326e+86
-1.9974232e+86
1.1406315e+86
1.352432e+86
-2.8450627e+86
-2.5479881e+87
1.693937e+86
-8.9655945e+85
-1.3088243e+86
1.3894189e+86
2.0837485e+87
-2.5338325e+87
1.6675121e+86
-9.1233801e+85
-1.2647234e+86
1.2846572e+86
1.3107238e+86
-1.7065931e+86
-1.9425985e+86
1.0159901e+86
-5.3477842e+86
-3.9792489e+85
6.9199633e+86
-2.7421662e+85
-3.3561289e+85
3.4922575e+85
3.0924104e+85
3.5212588e+85
5.3747805e+86
-3.1629753e+85
-3.5258847e+85
3.1304931e+85
2.5684516e+85
-2.9022333e+85
3.2312887e+85
-3.4911315e+85
2.8165487e+85
6.9805366e+86
-2.9864071e+85
-3.402205e+85
3.4352531e+85
2.8446524e+85
-5.5381374e+86
-4.5715826e+85
-1.6808911e+85
4.7557922e+85
-2.2907643e+85
4.3793465e+85
3.8273691e+85
5.5574665e+86
-2.5834956e+85
4.0822999e+85
-2.9790778e+85
3.4915315e+85
-2.3296583e+85
4.1653836e+85
-2.9336291e+85
3.7638927e+85
-1.9132983e+85
-2.3751174e+85
4.7382883e+85
4.1128296e+85
-7.7465333e+84
9.3190448e+84
1.1704668e+85
1.1385019e+85
-1.5284812e+86
-2.8798513e+84
-3.8720762e+84
1.0540654e+85
1.1987828e+85
-1.4971874e+86
-3.020284e+84
-3.7829349e+84
7.3520755e+84
1.1999535e+85
1.1099468e+85
-1.5270732e+86
-3.0124183e+84
-3.6741055e+84
9.1573997e+84
1.1782442e+85
1.1919319e+85
-1.4986394e+86
-2.4502867e+84
-3.4554468e+84
-6.6585893e+84
7.7979902e+84
1.1696845e+85
1.1925493e+85
-1.4993537e+86
-2.5973605e+84
-3.3738888e+84
-8.2486772e+84
1.189552e+85
1.089338e+85
-1.5203287e+86
-3.5857279e+84
-2.999313e+84
-6.7894869e+84
1.1885709e+85
1.1766522e+85
-1.5236571e+86
-2.7327702e+84
-3.5826269e+84
1.2016236e+85
1.0871034e+85
-1.4885332e+86
-3.4642029e+84
-2.8646297e+84
-5.9363695e+84
7.6493278e+84
1.1833209e+85
1.1668257e+85
-1.5140932e+86
-2.6942161e+84
-3.4828518e+84
1.2189085e+85
1.0924082e+85
-1.4900426e+86
-2.8470287e+84
-3.3744294e+84
-6.8752978e+84
1.1795337e+85
1.2062543e+85
-1.4804142e+86
9.1818027e+84
-2.2241251e+84
-3.1373053e+84
1.2108102e+85
1.1179457e+85
-1.5113664e+86
-2.744253e+84
-3.2977083e+84
4.2225796e+85
4.4841372e+85
5.0771236e+85
-6.8456244e+86
-1.2630491e+85
-8.6861825e+84
5.4825107e+85
4.718003e+85
4.9986222e+85
-6.9837474e+86
-8.0930806e+84
-1.3695224e+85
-4.5427861e+85
5.8815849e+85
4.8712297e+85
4.6424061e+85
-6.837788e+86
-7.7195743e+84
-1.4033601e+85
4.2342756e+85
4.9424072e+85
-6.9615401e+86
-9.873734e+84
-1.4919509e+85
5.1080335e+85
-6.1201816e+85
4.2455942e+85
4.8925409e+85
-6.9814154e+86
-9.9831172e+84
-1.5179881e+85
4.6242977e+85
4.8997086e+85
-6.8449515e+86
6.7529682e+85
-7.3607822e+84
-1.4191575e+85
-4.6914528e+85
4.8698117e+85
4.5803986e+85
-7.0453385e+86
-1.5236372e+85
-8.9225328e+84
4.1982654e+85
4.9174288e+85
-6.8995816e+86
-9.8100606e+84
-1.4809652e+85
-1.1516823e+87
-3.8477582e+86
-5.4957363e+86
-1.2735551e+88
-3.5858654e+86
-5.0380384e+86
-1.2686529e+88
-1.1739575e+87
7.1354079e+86
8.3721053e+86
1.1009959e+87
-1.2723753e+88
-6.8261809e+86
-5.3113283e+86
8.5195816e+86
6.9645736e+86
-1.2525557e+88
-6.7123061e+86
-5.143186e+86
-1.9058771e+86
1.418825e+86
2.0082686e+86
2.2212961e+86
-2.8581686e+87
-5.8957365e+85
3.592195e+85
1.0461569e+86
-6.1055919e+86
1.0983452e+86
4.3182027e+85
-6.0616783e+86
-2.7179683e+86
3.219881e+86
-2.4907076e+87
-2.4803309e+87
-4.2300992e+84
2.2155702e+85
-4.0617847e+85
6.3221607e+84
-6.8886079e+85
2.2160322e+85
-7.7525119e+84
-3.9529354e+85
-6.9145174e+85
-3.3931943e+84
8.5892178e+84
4.6677609e+84
-1.1648699e+85
-1.6656953e+85
-1.228544e+85
-1.7526213e+85
-6.3265158e+84
9.4715679e+84
-1.706451e+85
-1.6775927e+85
-1.1761038e+85
-1.1874685e+85
-6.6930147e+84
2.2514929e+85
-4.1955525e+85
-6.9782667e+85
2.2268967e+85
-3.862316e+85
-6.9162426e+85
-5.6969713e+84
8.7930791e+84
-1.1611618e+85
-1.6844026e+85
-1.2396372e+85
-1.7792092e+85
1.0244012e+85
-1.727206e+85
-1.6972447e+85
-1.1782582e+85
-1.1948404e+85
-2.1555428e+84
-1.7454781e+85
2.6604182e+84
-7.9380812e+84
-1.1078914e+85
-1.1767564e+85
-8.5090531e+84
-1.6933733e+85
-4.3012925e+84
-1.132948e+85
-1.1066513e+85
-8.0868849e+84
-7.643281e+84
1.2390823e+84
-2.8965823e+84
-7.9831136e+84
-1.8851038e+85
-1.8930986e+85
-8.5751467e+84
3.0046838e+84
-1.8560157e+85
-8.3170954e+84
-8.9414918e+84
-1.9277894e+85
-4.0861092e+84
1.8423795e+85
-8.1099403e+84
-9.3485263e+84
-1.9697621e+85
-1.87561e+85
1.6359512e+85
-1.8836388e+85
-8.0717163e+84
-8.7193284e+84
-1.8828092e+85
-4.5395645e+84
-1.2058978e+85
-1.1179569e+85
-8.4871585e+84
-7.6406017e+84
-1.1487215e+85
-1.1168222e+85
-8.0841431e+84
-7.4823974e+84
1.9632269e+85
7.8247676e+84
6.1745166e+84
-1.3554158e+86
-1.3611693e+86
-1.0314387e+86
-1.0449156e+86
1.9255339e+85
7.9588297e+84
6.2802317e+84
-1.3764274e+86
-1.3212002e+86
-1.0170019e+86
-1.0422593e+86
-2.5421336e+86
-1.3841595e+86
1.7850341e+86
1.9286418e+86
1.4692114e+86
-2.7485628e+87
-2.4220784e+85
-4.8178311e+85
-2.2370136e+86
3.0277653e+86
-3.1521686e+87
2.1860078e+86
-3.0945814e+87
1.9570584e+86
1.7455278e+86
-2.748821e+87
-2.4391939e+85
-4.5651871e+85
2.5649892e+86
1.6424877e+86
-2.5779622e+87
1.7930411e+86
-2.4929733e+87
3.1340589e+86
-1.4014372e+86
1.318939e+86
1.9518075e+86
2.1486072e+86
-2.8415376e+87
-6.2197342e+85
-8.3086117e+85
-3.1908169e+85
1.0523283e+86
4.1824571e+85
-5.9579187e+86
-4.0346926e+85
1.0294458e+86
-5.9856562e+86
1.9372285e+86
2.1324215e+86
-2.8605991e+87
-6.5129621e+85
-8.4865459e+85
-3.380785e+85
1.0644759e+86
-5.9657822e+86
1.0446271e+86
-5.9740296e+86
-4.3015812e+85
7.8812072e+85
5.6097944e+85
-4.5938168e+86
7.6757217e+85
-4.5544434e+86
2.4447808e+85
7.8162683e+85
-4.7895025e+86
8.0034923e+85
2.7284792e+85
-4.8152876e+86
-1.3799212e+85
3.7991665e+85
3.6894535e+85
1.4640886e+85
-1.3483317e+86
-1.2940821e+86
-9.9315183e+85
-1.0160526e+86
7.0177503e+84
5.5291625e+84
-1.5722468e+85
3.8897206e+85
3.6182145e+85
-1.3253491e+86
-1.3308164e+86
-1.0081777e+86
-1.0186302e+86
6.8761373e+84
5.7036475e+84
1.7616118e+85
4.0359522e+85
3.742465e+85
-1.3298029e+86
-1.3363753e+86
-1.0166444e+86
-1.0267645e+86
7.5590971e+84
6.2661945e+84
3.88575e+85
3.7634809e+85
-1.3545884e+86
-1.3030998e+86
-1.0029495e+86
-1.0250431e+86
7.260216e+84
5.8382755e+84
-1.1982646e+85
1.6211719e+85
-8.2742107e+85
-8.1416557e+85
-7.001832e+85
-6.8460676e+85
-4.1274818e+84
2.0575628e+85
-6.6387794e+85
6.7502766e+84
2.0674161e+85
-6.6675169e+84
-6.6758015e+85
-2.6323492e+84
6.6655864e+84
4.269746e+84
-1.6934968e+85
-1.5905083e+85
-1.1275484e+85
-1.2026429e+85
-4.8165948e+84
7.690714e+84
-1.1443717e+85
-1.6312761e+85
-1.6203885e+85
-1.1638174e+85
-5.4156844e+84
2.0893229e+85
-6.7350313e+85
2.0824028e+85
-6.1447924e+84
-6.6920086e+85
-4.2932231e+84
6.4121137e+84
-1.1356831e+85
-1.6161665e+85
-1.206977e+85
-1.7076508e+85
7.5261107e+84
-3.9586224e+84
-1.6594127e+85
-1.6172666e+85
-1.1542144e+85
-1.1561532e+85
-1.1689341e+84
-1.8904617e+85
1.3190481e+84
-1.0377413e+85
-1.1101754e+85
-8.2460426e+84
-7.7491744e+84
-1.7897472e+85
-2.4542843e+84
-1.0504516e+85
-1.0726892e+85
-7.9539049e+84
-7.63696e+84
-2.2388346e+83
8.1570397e+83
-1.8324933e+85
-7.8217621e+84
-8.8325773e+84
-1.9253622e+85
-9.3880693e+83
-1.8765245e+85
-7.7518312e+84
-8.3768665e+84
-1.8518239e+85
1.4029691e+84
-6.1554249e+85
-6.3461449e+85
-6.3598094e+85
-6.649684e+85
-1.0459187e+85
1.2444645e+85
-8.0096679e+85
-8.3966811e+85
-6.785438e+85
-6.9794747e+85
-5.5966368e+84
-6.0280985e+85
-6.0393294e+85
-6.4718372e+85
-6.2783046e+85
-2.0321462e+85
-2.7088787e+84
-1.0652575e+85
-1.1389814e+85
-8.3229795e+84
-7.7075908e+84
-1.8836899e+84
-1.8569425e+85
-7.8772969e+84
-8.9211668e+84
-1.9231873e+85
1.928075e+85
5.7261474e+82
-1.8845312e+85
-7.7305178e+84
-8.3308518e+84
-1.8659859e+85
-6.3729792e+83
-1.0772411e+85
-1.0610557e+85
-8.0108772e+84
-7.5999372e+84
-6.5413934e+84
-6.1375252e+84
-7.7169435e+85
1.2532121e+85
-8.086752e+85
-8.5700358e+85
-6.7680171e+85
-7.0228741e+85
-1.0826374e+84
-7.588246e+85
-8.2425848e+85
-8.1230601e+85
-6.9834696e+85
-6.7093812e+85
4.1225013e+84
-2.971104e+84
-5.9611226e+85
-6.3775163e+85
-6.0085198e+85
-6.3108358e+85
-6.1008333e+85
-5.6308515e+85
-6.3660038e+85
-5.7671612e+85
3.8349554e+85
7.6746244e+85
-4.6335576e+86
7.9915332e+85
5.9809368e+85
-4.6247396e+86
1.7992741e+85
-4.8024596e+86
2.8912852e+85
-4.7953297e+86
-4.1886251e+84
2.1155611e+85
-6.7084351e+85
2.1240732e+85
-6.9192055e+84
-6.7522133e+85
-2.8141446e+84
7.0912304e+84
-1.696976e+85
-1.61303e+85
-1.1337472e+85
-1.197427e+85
-5.5107017e+84
8.2786525e+84
-1.15377e+85
-1.6553357e+85
-1.6231806e+85
-1.1621403e+85
-5.5119737e+84
2.1614704e+85
-6.8223802e+85
2.1417625e+85
-6.738018e+85
-5.0069425e+84
7.2011489e+84
-1.1521756e+85
-1.6494633e+85
-1.2168801e+85
-1.7281379e+85
7.450502e+84
-1.6804815e+85
-1.6370426e+85
-1.1639178e+85
-1.1685958e+85
-3.6272241e+84
-2.0053474e+85
3.0121382e+84
-1.1691523e+85
-1.096445e+85
-7.7687316e+84
-8.5506837e+84
-1.9751899e+85
-1.1141393e+85
-1.095802e+85
-7.8506508e+84
-8.5513635e+84
-3.409672e+84
2.0443438e+84
-1.8656819e+85
-7.9031044e+84
-8.8938226e+84
-1.9362825e+85
-8.3182282e+84
-7.6495432e+84
-1.8743713e+85
-1.8826624e+85
-1.9246264e+85
-1.1843424e+84
-1.126886e+85
-1.0576719e+85
-7.5446432e+84
-8.2064263e+84
-6.5883165e+83
-1.8500673e+85
-7.8753236e+84
-8.9363003e+84
-1.943717e+85
-1.7664193e+85
-1.0906515e+85
-1.0719582e+85
-7.5757928e+84
-7.9784657e+84
-8.3503542e+84
-7.7402036e+84
-1.8724747e+85
-1.8505417e+85
-2.1840291e+86
-1.5472345e+86
1.6871389e+86
1.8495398e+86
-2.7253662e+87
-2.9288413e+85
-5.568269e+85
-2.4538733e+86
-3.1118627e+87
1.8830622e+86
-3.1493939e+87
1.6043465e+86
1.8473512e+86
-2.7202785e+87
-3.1177209e+85
-5.6289548e+85
4.1223521e+85
7.2301928e+85
-6.3146089e+85
-4.6367451e+86
7.5622026e+85
-4.6178895e+86
2.2095521e+85
-3.4172016e+85
6.9997863e+85
-4.7505541e+86
7.0782543e+85
-4.7288988e+86
5.0355085e+85
7.1280176e+85
-4.5697588e+86
7.3944206e+85
-4.5904259e+86
2.9505779e+85
7.0061775e+85
-4.7124162e+86
7.1115241e+85
-4.7648517e+86
-8.5481098e+84
-1.9873125e+85
2.6631961e+85
-7.9509926e+85
-6.6259239e+85
-8.4419317e+85
-6.9198736e+85
-1.0526377e+85
1.4420228e+85
-5.7848889e+85
-6.2790342e+85
-5.922682e+85
-6.2877917e+85
-2.7404183e+84
-8.118652e+85
-8.0684024e+85
-6.7971766e+85
-6.6261994e+85
-6.2620985e+85
-5.7959212e+85
-5.9165282e+85
-5.58724e+85
-6.7917725e+84
-1.5870517e+85
-7.940674e+85
-8.4355592e+85
-6.8978028e+85
-6.5569876e+85
-8.8619993e+84
1.1639656e+85
-5.7491989e+85
-5.9437292e+85
-6.2637158e+85
-6.3038395e+85
-6.3331308e+83
-6.8066135e+85
-6.7129049e+85
-8.1602482e+85
-8.1725187e+85
-5.9121376e+85
-6.226749e+85
-5.6513258e+85
-5.8436355e+85
-3.1719012e+84
-2.5017142e+85
2.584015e+84
3.251844e+85
-2.3157161e+85
-2.2169599e+85
-3.3784001e+85
-3.5406408e+85
-2.434226e+85
3.1536258e+85
-2.2077225e+85
-2.2408415e+85
-3.4615162e+85
-3.3266673e+85
7.4876691e+84
-1.1886659e+86
9.8471788e+84
-1.21524e+86
2.5176983e+83
-4.7954383e+84
-5.3429565e+83
1.1438327e+85
-2.9996281e+85
-4.7750466e+84
1.113013e+85
8.7434756e+83
-2.9549957e+85
-7.6976367e+83
-2.7428121e+85
1.5548565e+84
-1.3297086e+84
-2.8055544e+85
6.9467631e+83