/*--------------------------------*- C++ -*----------------------------------*\
  =========                 |
  \\      /  F ield         | OpenFOAM: The Open Source CFD Toolbox
   \\    /   O peration     | Website:  https://openfoam.org
    \\  /    A nd           | Version:  7
     \\/     M anipulation  |
\*---------------------------------------------------------------------------*/
FoamFile
{
    version     2.0;
    format      ascii;
    class       volScalarField;
    location    "2000";
    object      pMean;
}
// * * * * * * * * * * * * * * * * * * * * * * * * * * * * * * * * * * * * * //

dimensions      [0 2 -2 0 0 0 0];

internalField   nonuniform List<scalar> 
34378
(
-1.9296679e+179
-1.9399431e+179
-1.917245e+179
-1.9374188e+179
-1.902718e+179
-1.9177756e+179
-1.9011931e+179
-1.921419e+179
-1.9246865e+179
-1.9218991e+179
-1.9246544e+179
-1.9473835e+179
-1.9459136e+179
-1.9449292e+179
-1.9466928e+179
-1.9467005e+179
-1.9245808e+179
-1.925412e+179
-1.9095281e+179
-1.9081666e+179
-1.9438262e+179
-1.9451838e+179
-1.8504893e+179
-1.813855e+179
-1.7180748e+179
-1.9371095e+179
-1.9396682e+179
-1.9405876e+179
-1.905125e+179
-1.9080978e+179
-1.9351553e+179
-1.9297423e+179
-1.9289007e+179
-1.941109e+179
-1.9302054e+179
-1.9253415e+179
-1.9298705e+179
-1.9311183e+179
-1.9370362e+179
-1.9359913e+179
-1.9312707e+179
-1.9306074e+179
-1.9428206e+179
-1.9295577e+179
-1.9416082e+179
-1.9254278e+179
-1.9298884e+179
-1.9577244e+179
-1.9573711e+179
-1.9484847e+179
-1.9607816e+179
-1.9600134e+179
-1.9570389e+179
-1.9557983e+179
-1.9579419e+179
-1.96004e+179
-1.9491283e+179
-1.950544e+179
-1.9493779e+179
-1.9516694e+179
-1.953135e+179
-1.9501149e+179
-1.9520605e+179
-1.9549515e+179
-1.9545044e+179
-1.9570505e+179
-1.957537e+179
-1.8179762e+179
-1.8574359e+179
-1.8538301e+179
-1.9019614e+179
-1.9012277e+179
-1.8707661e+179
-1.8719917e+179
-1.8435575e+179
-1.8187852e+179
-1.8166767e+179
-1.8417107e+179
-1.7574103e+179
-1.8390276e+179
-1.812676e+179
-1.7572914e+179
-1.7052239e+179
-1.7039421e+179
-1.7115732e+179
-1.7072791e+179
-1.7305308e+179
-1.7332281e+179
-1.8673068e+179
-1.8988802e+179
-1.9589536e+179
-1.9593123e+179
-1.9610741e+179
-1.9599159e+179
-1.9620483e+179
-1.9622369e+179
-1.9435798e+179
-1.9443985e+179
-1.9483246e+179
-1.9461075e+179
-1.9027808e+179
-1.8987503e+179
-1.9370476e+179
-1.9265945e+179
-1.9247774e+179
-1.9420235e+179
-1.9412279e+179
-1.947464e+179
-1.9465998e+179
-1.9387429e+179
-1.9390052e+179
-1.9461946e+179
-1.9469358e+179
-1.9393543e+179
-1.9331372e+179
-1.932973e+179
-1.9392045e+179
-1.9272903e+179
-1.9294249e+179
-1.9400589e+179
-1.9384063e+179
-1.9338875e+179
-1.9407767e+179
-1.9409709e+179
-1.9493506e+179
-1.9484497e+179
-1.9396011e+179
-1.9401519e+179
-1.947517e+179
-1.9477677e+179
-1.9448434e+179
-1.9441591e+179
-1.9502309e+179
-1.9451115e+179
-1.9494406e+179
-1.9452392e+179
-1.9333231e+179
-1.943294e+179
-1.9429792e+179
-1.9481118e+179
-1.9488004e+179
-1.9432748e+179
-1.9379024e+179
-1.9364112e+179
-1.9418704e+179
-1.9374929e+179
-1.9361701e+179
-1.9468767e+179
-1.9486664e+179
-1.9584947e+179
-1.9640951e+179
-1.9644548e+179
-1.9677487e+179
-1.9667866e+179
-1.9641905e+179
-1.9637672e+179
-1.9661162e+179
-1.9674419e+179
-1.9593518e+179
-1.9627371e+179
-1.9608323e+179
-1.9629855e+179
-1.9635447e+179
-1.965648e+179
-1.96618e+179
-1.9628383e+179
-1.9618837e+179
-1.9640133e+179
-1.9656736e+179
-1.959929e+179
-1.9598599e+179
-1.9623522e+179
-1.9632452e+179
-1.9633068e+179
-1.9626062e+179
-1.9671669e+179
-1.9666305e+179
-1.9658141e+179
-1.9618637e+179
-1.960907e+179
-1.9635941e+179
-1.9612297e+179
-1.9614881e+179
-1.9644055e+179
-1.9635761e+179
-1.9613767e+179
-1.9607017e+179
-1.9626989e+179
-1.9640576e+179
-1.8196613e+179
-1.845288e+179
-1.8467205e+179
-1.8215185e+179
-1.8790373e+179
-1.8790305e+179
-1.9092956e+179
-1.9086739e+179
-1.8767867e+179
-1.9068528e+179
-1.9046491e+179
-1.874269e+179
-1.9372115e+179
-1.9206467e+179
-1.9207661e+179
-1.9374031e+179
-1.9187612e+179
-1.9200576e+179
-1.9351456e+179
-1.9366869e+179
-1.8964335e+179
-1.8788091e+179
-1.8779087e+179
-1.8951698e+179
-1.8976051e+179
-1.8793925e+179
-1.8803037e+179
-1.8970773e+179
-1.8578595e+179
-1.8438561e+179
-1.844615e+179
-1.8572433e+179
-1.8272742e+179
-1.827899e+179
-1.8162062e+179
-1.8155395e+179
-1.7831375e+179
-1.812817e+179
-1.8141496e+179
-1.8261106e+179
-1.7830192e+179
-1.8249269e+179
-1.8415295e+179
-1.8424927e+179
-1.8563229e+179
-1.8553043e+179
-1.758421e+179
-1.7569285e+179
-1.8538319e+179
-1.8397806e+179
-1.8404833e+179
-1.8529905e+179
-1.81057e+179
-1.8109759e+179
-1.822699e+179
-1.8234711e+179
-1.7814311e+179
-1.7798133e+179
-1.7578563e+179
-1.7561305e+179
-1.7174541e+179
-1.741712e+179
-1.6628875e+179
-1.7163449e+179
-1.7429013e+179
-1.6369929e+179
-1.6361363e+179
-1.659315e+179
-1.7441723e+179
-1.7172966e+179
-1.7169488e+179
-1.7420707e+179
-1.8938602e+179
-1.8753428e+179
-1.8763056e+179
-1.8933481e+179
-1.9343406e+179
-1.917018e+179
-1.917106e+179
-1.9344829e+179
-1.9679877e+179
-1.9670512e+179
-1.9684712e+179
-1.968209e+179
-1.9699307e+179
-1.9697733e+179
-1.9695029e+179
-1.9684477e+179
-1.9710718e+179
-1.9702593e+179
-1.9710474e+179
-1.9713029e+179
-1.963605e+179
-1.9648569e+179
-1.9653236e+179
-1.9654439e+179
-1.9694605e+179
-1.9698944e+179
-1.9678457e+179
-1.9662786e+179
-1.9117569e+179
-1.906835e+179
-1.8814746e+179
-1.8773139e+179
-1.9375607e+179
-1.9490218e+179
-1.9494097e+179
-1.9117445e+179
-1.9102558e+179
-1.9510788e+179
-1.9509177e+179
-1.9520989e+179
-1.951792e+179
-1.9503801e+179
-1.9500347e+179
-1.9511675e+179
-1.9512404e+179
-1.955661e+179
-1.9555246e+179
-1.9587995e+179
-1.9582305e+179
-1.9582959e+179
-1.957334e+179
-1.9549532e+179
-1.9543826e+179
-1.9573616e+179
-1.9581113e+179
-1.9432226e+179
-1.9318276e+179
-1.9313333e+179
-1.9416505e+179
-1.9136574e+179
-1.9154915e+179
-1.9412085e+179
-1.9523306e+179
-1.9521602e+179
-1.9387752e+179
-1.9512963e+179
-1.9503527e+179
-1.9428017e+179
-1.9420367e+179
-1.9505407e+179
-1.9508069e+179
-1.9609678e+179
-1.9602492e+179
-1.9588051e+179
-1.9595345e+179
-1.9458983e+179
-1.9540752e+179
-1.9538565e+179
-1.9551857e+179
-1.9547514e+179
-1.9533718e+179
-1.9530569e+179
-1.9541632e+179
-1.9541875e+179
-1.9587295e+179
-1.9586453e+179
-1.9611593e+179
-1.9617075e+179
-1.9510272e+179
-1.9460425e+179
-1.9513794e+179
-1.9581761e+179
-1.9612228e+179
-1.9604991e+179
-1.9577817e+179
-1.9474875e+179
-1.9472363e+179
-1.9526556e+179
-1.9524034e+179
-1.9438289e+179
-1.9439227e+179
-1.9519049e+179
-1.9524118e+179
-1.952641e+179
-1.9524766e+179
-1.9536084e+179
-1.9533593e+179
-1.9518184e+179
-1.951573e+179
-1.9526629e+179
-1.9527931e+179
-1.9565165e+179
-1.9560351e+179
-1.9596297e+179
-1.9585342e+179
-1.957514e+179
-1.9603228e+179
-1.9572893e+179
-1.9607033e+179
-1.947177e+179
-1.9372191e+179
-1.9354287e+179
-1.9455136e+179
-1.9471762e+179
-1.9476084e+179
-1.9548618e+179
-1.9558395e+179
-1.9454466e+179
-1.9461499e+179
-1.9536631e+179
-1.9537721e+179
-1.9486237e+179
-1.9538506e+179
-1.9484631e+179
-1.953246e+179
-1.9508186e+179
-1.9560098e+179
-1.9499675e+179
-1.9549777e+179
-1.965623e+179
-1.9647098e+179
-1.9671464e+179
-1.9686553e+179
-1.965997e+179
-1.9663987e+179
-1.9709265e+179
-1.97178e+179
-1.9657871e+179
-1.9663495e+179
-1.9718057e+179
-1.9709524e+179
-1.9659985e+179
-1.966091e+179
-1.9709285e+179
-1.9716139e+179
-1.9657135e+179
-1.9662805e+179
-1.9715579e+179
-1.9704446e+179
-1.9658974e+179
-1.9662999e+179
-1.9691306e+179
-1.9682936e+179
-1.9647779e+179
-1.9652104e+179
-1.9702285e+179
-1.9707944e+179
-1.9652817e+179
-1.9649584e+179
-1.9707222e+179
-1.9698751e+179
-1.9649838e+179
-1.965082e+179
-1.9696597e+179
-1.9702556e+179
-1.9642443e+179
-1.9648572e+179
-1.9697194e+179
-1.9684598e+179
-1.9662509e+179
-1.9663829e+179
-1.9690492e+179
-1.9697192e+179
-1.9661099e+179
-1.9660518e+179
-1.9684947e+179
-1.9696596e+179
-1.9643753e+179
-1.9701015e+179
-1.9703772e+179
-1.9742171e+179
-1.9733668e+179
-1.9699395e+179
-1.9692831e+179
-1.9722734e+179
-1.9737401e+179
-1.9686131e+179
-1.9715291e+179
-1.9688839e+179
-1.9721703e+179
-1.9683193e+179
-1.9673269e+179
-1.9698213e+179
-1.9716415e+179
-1.9638683e+179
-1.9643174e+179
-1.9689862e+179
-1.968263e+179
-1.9633584e+179
-1.9637261e+179
-1.9689743e+179
-1.968074e+179
-1.9634683e+179
-1.9679693e+179
-1.9686457e+179
-1.9638149e+179
-1.9635e+179
-1.9627696e+179
-1.9669576e+179
-1.9682835e+179
-1.5639644e+179
-1.8631325e+179
-1.7856462e+179
-1.7602172e+179
-1.8173876e+179
-1.816981e+179
-1.8300417e+179
-1.8290171e+179
-1.8462674e+179
-1.8473186e+179
-1.8608351e+179
-1.8595577e+179
-1.8621502e+179
-1.8485283e+179
-1.8619496e+179
-1.8489443e+179
-1.8187622e+179
-1.8311655e+179
-1.9040427e+179
-1.8866687e+179
-1.9027754e+179
-1.8856629e+179
-1.8873441e+179
-1.9053977e+179
-1.9049257e+179
-1.9285989e+179
-1.9289745e+179
-1.945395e+179
-1.9453036e+179
-1.9270235e+179
-1.943781e+179
-1.9257244e+179
-1.9418972e+179
-1.8842214e+179
-1.9017832e+179
-1.9017946e+179
-1.8838443e+179
-1.9245506e+179
-1.9411422e+179
-1.9248595e+179
-1.9417124e+179
-1.9227596e+179
-1.9242049e+179
-1.9408604e+179
-1.9390197e+179
-1.8818262e+179
-1.9007207e+179
-1.8827549e+179
-1.8992221e+179
-1.7437895e+179
-1.7190288e+179
-1.9512323e+179
-1.9561897e+179
-1.9513738e+179
-1.9566319e+179
-1.9273039e+179
-1.9269018e+179
-1.9377759e+179
-1.9370694e+179
-1.9279412e+179
-1.9380856e+179
-1.9276611e+179
-1.9381368e+179
-1.9509296e+179
-1.9563211e+179
-1.9503507e+179
-1.9553183e+179
-1.9255747e+179
-1.9250813e+179
-1.9360682e+179
-1.9353142e+179
-1.9264102e+179
-1.9365624e+179
-1.9261312e+179
-1.9365622e+179
-1.949351e+179
-1.9486908e+179
-1.9547746e+179
-1.9536783e+179
-1.9548821e+179
-1.9497537e+179
-1.9497707e+179
-1.95504e+179
-1.8995133e+179
-1.9099518e+179
-1.8992796e+179
-1.9098173e+179
-1.8781407e+179
-1.8777954e+179
-1.8858978e+179
-1.8856424e+179
-1.8772998e+179
-1.8768928e+179
-1.8851226e+179
-1.8845542e+179
-1.8986151e+179
-1.8980954e+179
-1.9092658e+179
-1.9086138e+179
-1.9011137e+179
-1.9114507e+179
-1.9008286e+179
-1.9112959e+179
-1.8789481e+179
-1.8786059e+179
-1.8868095e+179
-1.8863967e+179
-1.8800432e+179
-1.8877314e+179
-1.8795091e+179
-1.8873637e+179
-1.900308e+179
-1.8999571e+179
-1.9108924e+179
-1.9104181e+179
-1.8598845e+179
-1.8664526e+179
-1.859394e+179
-1.8659453e+179
-1.842468e+179
-1.8420083e+179
-1.8479003e+179
-1.8474557e+179
-1.843586e+179
-1.8490325e+179
-1.8430002e+179
-1.8484719e+179
-1.8587841e+179
-1.858403e+179
-1.8653586e+179
-1.8649925e+179
-1.8256695e+179
-1.8308208e+179
-1.8252759e+179
-1.8303654e+179
-1.8267867e+179
-1.8320166e+179
-1.8262424e+179
-1.8314437e+179
-1.8168316e+179
-1.8163126e+179
-1.7965211e+179
-1.8125942e+179
-1.8120487e+179
-1.815881e+179
-1.8154918e+179
-1.7962525e+179
-1.8111898e+179
-1.8115985e+179
-1.7844402e+179
-1.784746e+179
-1.8139084e+179
-1.8134596e+179
-1.7935061e+179
-1.8091266e+179
-1.8095247e+179
-1.8150358e+179
-1.8144106e+179
-1.7949509e+179
-1.8100745e+179
-1.8107017e+179
-1.8247011e+179
-1.8298101e+179
-1.8241987e+179
-1.8292534e+179
-1.7830526e+179
-1.7818513e+179
-1.8236189e+179
-1.828769e+179
-1.8232548e+179
-1.8283687e+179
-1.8403793e+179
-1.8459704e+179
-1.840039e+179
-1.8455582e+179
-1.8413861e+179
-1.8468712e+179
-1.8408281e+179
-1.8463916e+179
-1.8578999e+179
-1.8645578e+179
-1.8575392e+179
-1.864247e+179
-1.8570575e+179
-1.8637824e+179
-1.8566355e+179
-1.8633053e+179
-1.7562759e+179
-1.7574968e+179
-1.768599e+179
-1.7673534e+179
-1.758487e+179
-1.759229e+179
-1.7695994e+179
-1.7693054e+179
-1.8558801e+179
-1.862378e+179
-1.8554291e+179
-1.8619053e+179
-1.838322e+179
-1.8380035e+179
-1.8437701e+179
-1.8433388e+179
-1.8393667e+179
-1.8447946e+179
-1.8388197e+179
-1.8442567e+179
-1.8548299e+179
-1.854461e+179
-1.8613739e+179
-1.8609759e+179
-1.8118096e+179
-1.8115076e+179
-1.791365e+179
-1.8072975e+179
-1.8074486e+179
-1.8127198e+179
-1.8120859e+179
-1.7921167e+179
-1.8077663e+179
-1.8083335e+179
-1.8215525e+179
-1.8266272e+179
-1.8213163e+179
-1.8263092e+179
-1.8225164e+179
-1.8276629e+179
-1.8220682e+179
-1.8271259e+179
-1.7807941e+179
-1.7799292e+179
-1.7900051e+179
-1.8109223e+179
-1.7908851e+179
-1.8066715e+179
-1.7790118e+179
-1.7786248e+179
-1.7660423e+179
-1.7547735e+179
-1.7552553e+179
-1.7657753e+179
-1.7548923e+179
-1.7553767e+179
-1.7654849e+179
-1.764646e+179
-1.7286372e+179
-1.737149e+179
-1.736818e+179
-1.7296134e+179
-1.6985731e+179
-1.7393828e+179
-1.7391269e+179
-1.7464736e+179
-1.7465303e+179
-1.6744546e+179
-1.6698854e+179
-1.6965963e+179
-1.7390955e+179
-1.7393357e+179
-1.729955e+179
-1.7294199e+179
-1.739962e+179
-1.7394643e+179
-1.7466128e+179
-1.7454758e+179
-1.5955925e+179
-1.595122e+179
-1.6676206e+179
-1.6957439e+179
-1.6963985e+179
-1.6717814e+179
-1.7396622e+179
-1.7404189e+179
-1.7455029e+179
-1.744636e+179
-1.73955e+179
-1.7305112e+179
-1.7301709e+179
-1.7402673e+179
-1.7390057e+179
-1.730042e+179
-1.7288264e+179
-1.7375621e+179
-1.7447282e+179
-1.7391975e+179
-1.7383075e+179
-1.7438828e+179
-1.8971541e+179
-1.8969398e+179
-1.9076668e+179
-1.9075774e+179
-1.8749051e+179
-1.8745818e+179
-1.8828379e+179
-1.882375e+179
-1.8759235e+179
-1.8836621e+179
-1.8754528e+179
-1.8833384e+179
-1.8964459e+179
-1.89609e+179
-1.9071492e+179
-1.9066656e+179
-1.9480395e+179
-1.953297e+179
-1.9483182e+179
-1.9538542e+179
-1.9236206e+179
-1.9343332e+179
-1.9232568e+179
-1.9336103e+179
-1.9241502e+179
-1.9345258e+179
-1.9240137e+179
-1.9347065e+179
-1.9477903e+179
-1.9472051e+179
-1.9533506e+179
-1.9523378e+179
-1.9715731e+179
-1.9719114e+179
-1.9714633e+179
-1.970472e+179
-1.9722701e+179
-1.9716671e+179
-1.9718649e+179
-1.9723486e+179
-1.9735637e+179
-1.974057e+179
-1.9732088e+179
-1.973759e+179
-1.9729594e+179
-1.9733661e+179
-1.9719528e+179
-1.9728136e+179
-1.9743124e+179
-1.9747352e+179
-1.974455e+179
-1.9736306e+179
-1.9717122e+179
-1.9743741e+179
-1.9749154e+179
-1.9748555e+179
-1.9743104e+179
-1.9726852e+179
-1.9728333e+179
-1.973093e+179
-1.9741807e+179
-1.9743927e+179
-1.9741403e+179
-1.9732081e+179
-1.9779991e+179
-1.9770311e+179
-1.9718992e+179
-1.9784273e+179
-1.9785961e+179
-1.9763194e+179
-1.9762806e+179
-1.9757875e+179
-1.9746361e+179
-1.8891971e+179
-1.8851082e+179
-1.8374565e+179
-1.902744e+179
-1.9052969e+179
-1.8341272e+179
-1.8999051e+179
-1.8995801e+179
-1.9501758e+179
-1.9506344e+179
-1.9268205e+179
-1.9578578e+179
-1.9629181e+179
-1.9625959e+179
-1.9610918e+179
-1.9595851e+179
-1.9610168e+179
-1.9597464e+179
-1.9595292e+179
-1.9591441e+179
-1.9607576e+179
-1.9606122e+179
-1.9621381e+179
-1.9616573e+179
-1.9603167e+179
-1.9588683e+179
-1.9602264e+179
-1.9589971e+179
-1.9586377e+179
-1.9582189e+179
-1.95987e+179
-1.9597103e+179
-1.956795e+179
-1.9587558e+179
-1.9586763e+179
-1.9568211e+179
-1.9582919e+179
-1.958413e+179
-1.9562533e+179
-1.956655e+179
-1.9552034e+179
-1.9514163e+179
-1.9511916e+179
-1.9546564e+179
-1.9521059e+179
-1.9556486e+179
-1.955349e+179
-1.9515415e+179
-1.9545469e+179
-1.9548228e+179
-1.9513965e+179
-1.9511184e+179
-1.9510291e+179
-1.9542286e+179
-1.953656e+179
-1.9504462e+179
-1.957837e+179
-1.9580319e+179
-1.9560285e+179
-1.9561072e+179
-1.9571744e+179
-1.9572705e+179
-1.9551771e+179
-1.9553641e+179
-1.9636496e+179
-1.9647222e+179
-1.9709128e+179
-1.9705199e+179
-1.9653368e+179
-1.9646572e+179
-1.9715961e+179
-1.9714083e+179
-1.9443247e+179
-1.9553638e+179
-1.9552823e+179
-1.9187697e+179
-1.9177355e+179
-1.9431068e+179
-1.9542971e+179
-1.9532456e+179
-1.9534542e+179
-1.9536873e+179
-1.9321424e+179
-1.9613076e+179
-1.9607162e+179
-1.9514343e+179
-1.9525669e+179
-1.9293218e+179
-1.9598068e+179
-1.9586759e+179
-1.9617377e+179
-1.9625387e+179
-1.9682175e+179
-1.9675843e+179
-1.9746384e+179
-1.9743866e+179
-1.9661574e+179
-1.965795e+179
-1.9668441e+179
-1.9678349e+179
-1.9740326e+179
-1.9736561e+179
-1.9653564e+179
-1.964903e+179
-1.9652406e+179
-1.9663856e+179
-1.9724772e+179
-1.9721271e+179
-1.9637292e+179
-1.9633515e+179
-1.9669303e+179
-1.9663809e+179
-1.9731633e+179
-1.9729436e+179
-1.9644632e+179
-1.9641392e+179
-1.9548679e+179
-1.9546622e+179
-1.9557788e+179
-1.9559367e+179
-1.9627385e+179
-1.9626253e+179
-1.9641295e+179
-1.9640356e+179
-1.9638699e+179
-1.9626019e+179
-1.9621468e+179
-1.9637088e+179
-1.9635096e+179
-1.9619666e+179
-1.963428e+179
-1.962087e+179
-1.9617807e+179
-1.9614078e+179
-1.9631303e+179
-1.9630136e+179
-1.9589795e+179
-1.9618411e+179
-1.9617896e+179
-1.9598256e+179
-1.9597038e+179
-1.961651e+179
-1.9616238e+179
-1.9596639e+179
-1.9597052e+179
-1.9611045e+179
-1.9543163e+179
-1.95822e+179
-1.9582304e+179
-1.9538105e+179
-1.954107e+179
-1.9582561e+179
-1.9577893e+179
-1.9535862e+179
-1.9592604e+179
-1.9621048e+179
-1.9556644e+179
-1.9556204e+179
-1.9566798e+179
-1.9565589e+179
-1.9600288e+179
-1.9600628e+179
-1.9627181e+179
-1.9632836e+179
-1.9614252e+179
-1.9613156e+179
-1.959501e+179
-1.9594464e+179
-1.9539237e+179
-1.9578734e+179
-1.9579444e+179
-1.9536968e+179
-1.9537773e+179
-1.9574597e+179
-1.9569837e+179
-1.9533152e+179
-1.9607769e+179
-1.9608275e+179
-1.9586794e+179
-1.9588422e+179
-1.9568553e+179
-1.95675e+179
-1.9579642e+179
-1.9576932e+179
-1.9564615e+179
-1.9563146e+179
-1.9572589e+179
-1.9575349e+179
-1.9608504e+179
-1.9630646e+179
-1.9607649e+179
-1.9634867e+179
-1.9605329e+179
-1.9604688e+179
-1.9632149e+179
-1.9629418e+179
-1.963362e+179
-1.9639637e+179
-1.9612948e+179
-1.9611263e+179
-1.9627124e+179
-1.9626673e+179
-1.9624712e+179
-1.9611305e+179
-1.960795e+179
-1.9623739e+179
-1.9620761e+179
-1.9605046e+179
-1.9619948e+179
-1.9606614e+179
-1.960319e+179
-1.9599172e+179
-1.9616188e+179
-1.9614568e+179
-1.9598026e+179
-1.959972e+179
-1.9581352e+179
-1.9582192e+179
-1.9590331e+179
-1.9591819e+179
-1.9575862e+179
-1.9571865e+179
-1.9528723e+179
-1.9566342e+179
-1.9568358e+179
-1.9527711e+179
-1.9555436e+179
-1.9562295e+179
-1.9524112e+179
-1.9519445e+179
-1.960534e+179
-1.9605868e+179
-1.9584798e+179
-1.958704e+179
-1.9530107e+179
-1.9569919e+179
-1.9571461e+179
-1.952615e+179
-1.9602606e+179
-1.9603061e+179
-1.9586165e+179
-1.9585265e+179
-1.9567071e+179
-1.9570693e+179
-1.9528804e+179
-1.9526564e+179
-1.948676e+179
-1.9592661e+179
-1.9588669e+179
-1.9232016e+179
-1.9212352e+179
-1.9463625e+179
-1.9577326e+179
-1.9565335e+179
-1.9668556e+179
-1.967677e+179
-1.9650112e+179
-1.9657241e+179
-1.958553e+179
-1.9596497e+179
-1.9582105e+179
-1.959131e+179
-1.9629241e+179
-1.965581e+179
-1.9625228e+179
-1.9656782e+179
-1.9576231e+179
-1.9574607e+179
-1.9583831e+179
-1.9586035e+179
-1.9647793e+179
-1.9638389e+179
-1.9617552e+179
-1.9614294e+179
-1.9570723e+179
-1.9604106e+179
-1.9602066e+179
-1.9611803e+179
-1.9615666e+179
-1.9645617e+179
-1.9644241e+179
-1.9668424e+179
-1.9674494e+179
-1.9605345e+179
-1.9604576e+179
-1.9596671e+179
-1.9592895e+179
-1.9639449e+179
-1.9669781e+179
-1.9635407e+179
-1.9661455e+179
-1.5544385e+179
-1.9675898e+179
-1.96768e+179
-1.9721622e+179
-1.9727099e+179
-1.9666204e+179
-1.9678141e+179
-1.9723123e+179
-1.9710688e+179
-1.9742556e+179
-1.9742213e+179
-1.9741056e+179
-1.9744079e+179
-1.9742973e+179
-1.9740726e+179
-1.9735416e+179
-1.9740301e+179
-1.9678307e+179
-1.9683948e+179
-1.9725013e+179
-1.9732557e+179
-1.9675047e+179
-1.9679616e+179
-1.9731271e+179
-1.9722981e+179
-1.9734158e+179
-1.9734341e+179
-1.9733993e+179
-1.9731122e+179
-1.9730678e+179
-1.9729413e+179
-1.9720426e+179
-1.9725898e+179
-1.9689096e+179
-1.9691306e+179
-1.9737055e+179
-1.9744967e+179
-1.9689453e+179
-1.9684569e+179
-1.9744135e+179
-1.9734949e+179
-1.9680965e+179
-1.9682783e+179
-1.9733939e+179
-1.9738404e+179
-1.9679643e+179
-1.9683843e+179
-1.973495e+179
-1.9725816e+179
-1.9715897e+179
-1.9704885e+179
-1.9760026e+179
-1.9741836e+179
-1.9724023e+179
-1.972922e+179
-1.9773281e+179
-1.9781298e+179
-1.9717154e+179
-1.972742e+179
-1.9781287e+179
-1.9771369e+179
-1.9717019e+179
-1.9718128e+179
-1.9769927e+179
-1.9775015e+179
-1.9709798e+179
-1.9718915e+179
-1.9772832e+179
-1.9760673e+179
-1.9709597e+179
-1.9708155e+179
-1.9763262e+179
-1.9756538e+179
-1.9711626e+179
-1.9703614e+179
-1.9762683e+179
-1.9753284e+179
-1.9703422e+179
-1.9704891e+179
-1.975087e+179
-1.9756308e+179
-1.9692607e+179
-1.9700641e+179
-1.9750153e+179
-1.9737554e+179
-1.9719857e+179
-1.9719482e+179
-1.9715293e+179
-1.9719224e+179
-1.9715553e+179
-1.9716831e+179
-1.9711836e+179
-1.9704662e+179
-1.8650441e+179
-1.8646347e+179
-1.8714817e+179
-1.8710202e+179
-1.785888e+179
-1.7867815e+179
-1.7983681e+179
-1.7974585e+179
-1.7609897e+179
-1.7718615e+179
-1.7710554e+179
-1.8189221e+179
-1.8183529e+179
-1.8137908e+179
-1.8144422e+179
-1.8178569e+179
-1.8174525e+179
-1.8130848e+179
-1.8133469e+179
-1.828985e+179
-1.8343081e+179
-1.8287734e+179
-1.8340079e+179
-1.8282179e+179
-1.8335113e+179
-1.8277585e+179
-1.832979e+179
-1.8449589e+179
-1.844512e+179
-1.8505619e+179
-1.8499721e+179
-1.8458735e+179
-1.8513794e+179
-1.8455505e+179
-1.8510752e+179
-1.8623591e+179
-1.8689765e+179
-1.8621141e+179
-1.8687392e+179
-1.8614831e+179
-1.8681712e+179
-1.8609044e+179
-1.8675279e+179
-1.8638941e+179
-1.8703846e+179
-1.8635084e+179
-1.8700511e+179
-1.8466261e+179
-1.8522176e+179
-1.8465793e+179
-1.8520665e+179
-1.8631564e+179
-1.8696997e+179
-1.8630464e+179
-1.8695809e+179
-1.8475483e+179
-1.8530352e+179
-1.8471039e+179
-1.8526451e+179
-1.8197675e+179
-1.8153221e+179
-1.8355521e+179
-1.829857e+179
-1.8350941e+179
-1.8297558e+179
-1.8350389e+179
-1.9071979e+179
-1.9069443e+179
-1.9174518e+179
-1.9172354e+179
-1.8858842e+179
-1.8855782e+179
-1.8935821e+179
-1.8933031e+179
-1.9062486e+179
-1.9166556e+179
-1.9057242e+179
-1.9159793e+179
-1.8850056e+179
-1.88462e+179
-1.892779e+179
-1.8922543e+179
-1.8947653e+179
-1.886514e+179
-1.8942713e+179
-1.8953243e+179
-1.9091118e+179
-1.9196974e+179
-1.908875e+179
-1.919563e+179
-1.9082645e+179
-1.9189589e+179
-1.9078211e+179
-1.9183248e+179
-1.9352076e+179
-1.9456336e+179
-1.9347159e+179
-1.9447619e+179
-1.9360609e+179
-1.946175e+179
-1.935799e+179
-1.9461793e+179
-1.9591901e+179
-1.9640472e+179
-1.9592694e+179
-1.964429e+179
-1.9586034e+179
-1.9637929e+179
-1.9578882e+179
-1.9626553e+179
-1.933792e+179
-1.9439013e+179
-1.9334903e+179
-1.9438656e+179
-1.9570326e+179
-1.9570251e+179
-1.9620901e+179
-1.9618872e+179
-1.9328688e+179
-1.9432895e+179
-1.9323668e+179
-1.9424235e+179
-1.9563583e+179
-1.9615264e+179
-1.9555282e+179
-1.9602222e+179
-1.8838543e+179
-1.8834821e+179
-1.891566e+179
-1.891352e+179
-1.9049177e+179
-1.9048302e+179
-1.9153692e+179
-1.91543e+179
-1.9045367e+179
-1.9043946e+179
-1.9150967e+179
-1.9148711e+179
-1.8831063e+179
-1.890995e+179
-1.8830203e+179
-1.8907971e+179
-1.9316708e+179
-1.931567e+179
-1.9417724e+179
-1.94191e+179
-1.9548408e+179
-1.9597324e+179
-1.9550428e+179
-1.9601746e+179
-1.9312796e+179
-1.9416529e+179
-1.9311885e+179
-1.9412455e+179
-1.9598955e+179
-1.9546913e+179
-1.9542922e+179
-1.9589662e+179
-1.9297464e+179
-1.9400949e+179
-1.9290806e+179
-1.9391339e+179
-1.9305982e+179
-1.9405156e+179
-1.9304854e+179
-1.9406945e+179
-1.9536028e+179
-1.9584616e+179
-1.9538056e+179
-1.9589524e+179
-1.9531677e+179
-1.9584678e+179
-1.9522985e+179
-1.9572121e+179
-1.8815449e+179
-1.8894157e+179
-1.881052e+179
-1.8887334e+179
-1.9036881e+179
-1.9035889e+179
-1.9142559e+179
-1.9142229e+179
-1.8823695e+179
-1.8900955e+179
-1.8821464e+179
-1.8899755e+179
-1.9028487e+179
-1.9135375e+179
-1.9021956e+179
-1.9126565e+179
-1.700276e+179
-1.7410263e+179
-1.7476573e+179
-1.7266829e+179
-1.72838e+179
-1.7369687e+179
-1.7401354e+179
-1.9622742e+179
-1.957454e+179
-1.9619473e+179
-1.9575566e+179
-1.967018e+179
-1.9671336e+179
-1.9675726e+179
-1.9672659e+179
-1.9569424e+179
-1.9614304e+179
-1.9573065e+179
-1.9620083e+179
-1.9669611e+179
-1.9673742e+179
-1.9665483e+179
-1.9667328e+179
-1.9275312e+179
-1.9340427e+179
-1.9340948e+179
-1.9275179e+179
-1.9270154e+179
-1.9272659e+179
-1.9339136e+179
-1.9335524e+179
-1.948414e+179
-1.9419969e+179
-1.948323e+179
-1.9420256e+179
-1.9414768e+179
-1.947682e+179
-1.9418198e+179
-1.9482128e+179
-1.9349556e+179
-1.9285077e+179
-1.9349996e+179
-1.9283286e+179
-1.9428249e+179
-1.949035e+179
-1.9492024e+179
-1.9428097e+179
-1.9342958e+179
-1.9280085e+179
-1.9346785e+179
-1.9277384e+179
-1.9425588e+179
-1.9489779e+179
-1.9422421e+179
-1.9485262e+179
-1.9567294e+179
-1.9612427e+179
-1.9614701e+179
-1.9567347e+179
-1.9666384e+179
-1.9664121e+179
-1.9665872e+179
-1.9670136e+179
-1.9565214e+179
-1.9561154e+179
-1.9612749e+179
-1.9606397e+179
-1.9667231e+179
-1.9657692e+179
-1.9659502e+179
-1.9662856e+179
-1.9259211e+179
-1.9324246e+179
-1.9324349e+179
-1.9258619e+179
-1.9251517e+179
-1.9254856e+179
-1.9321382e+179
-1.9316991e+179
-1.9468488e+179
-1.9404041e+179
-1.9467417e+179
-1.9404069e+179
-1.9396817e+179
-1.9459867e+179
-1.9400865e+179
-1.9465518e+179
-1.9333628e+179
-1.926821e+179
-1.9333558e+179
-1.9267278e+179
-1.9412387e+179
-1.9474461e+179
-1.9476047e+179
-1.9412542e+179
-1.9328224e+179
-1.9264912e+179
-1.9331518e+179
-1.9262508e+179
-1.9410723e+179
-1.9474486e+179
-1.9407983e+179
-1.9470485e+179
-1.9551694e+179
-1.9596873e+179
-1.9599469e+179
-1.9551951e+179
-1.9548842e+179
-1.9596877e+179
-1.9544611e+179
-1.9590578e+179
-1.9651854e+179
-1.9656058e+179
-1.9649049e+179
-1.9651137e+179
-1.9642181e+179
-1.9647634e+179
-1.9652459e+179
-1.964415e+179
-1.9655559e+179
-1.9657978e+179
-1.9664078e+179
-1.9659764e+179
-1.9607252e+179
-1.9558909e+179
-1.9603973e+179
-1.9559615e+179
-1.9554859e+179
-1.95579e+179
-1.9604853e+179
-1.9599801e+179
-1.9651297e+179
-1.965506e+179
-1.9659244e+179
-1.96537e+179
-1.9032432e+179
-1.8974e+179
-1.9034033e+179
-1.8972475e+179
-1.9113803e+179
-1.9176239e+179
-1.9176125e+179
-1.9112638e+179
-1.902766e+179
-1.8970217e+179
-1.9030551e+179
-1.8968325e+179
-1.9110707e+179
-1.9174036e+179
-1.9107914e+179
-1.9171047e+179
-1.8752593e+179
-1.878914e+179
-1.8787246e+179
-1.8750671e+179
-1.8748388e+179
-1.8785089e+179
-1.8782956e+179
-1.8746581e+179
-1.8853514e+179
-1.8894063e+179
-1.8892897e+179
-1.8852114e+179
-1.8849624e+179
-1.8890369e+179
-1.8888272e+179
-1.8847962e+179
-1.8742904e+179
-1.8779264e+179
-1.8777336e+179
-1.8741191e+179
-1.8735368e+179
-1.8738107e+179
-1.8774464e+179
-1.8771352e+179
-1.8844021e+179
-1.8884325e+179
-1.8882809e+179
-1.8842454e+179
-1.8835842e+179
-1.8838662e+179
-1.8879541e+179
-1.8876338e+179
-1.8964113e+179
-1.9024019e+179
-1.9022964e+179
-1.8962259e+179
-1.8956416e+179
-1.8959016e+179
-1.901997e+179
-1.9016707e+179
-1.9167504e+179
-1.9167487e+179
-1.9104267e+179
-1.9103587e+179
-1.9096488e+179
-1.9099824e+179
-1.9163675e+179
-1.9159493e+179
-1.9048732e+179
-1.8991672e+179
-1.905141e+179
-1.8988967e+179
-1.9129814e+179
-1.9192637e+179
-1.9191677e+179
-1.912781e+179
-1.8983345e+179
-1.9042895e+179
-1.8985706e+179
-1.9045794e+179
-1.9124732e+179
-1.918855e+179
-1.9122439e+179
-1.9185331e+179
-1.8760098e+179
-1.8796473e+179
-1.8794539e+179
-1.875836e+179
-1.8756119e+179
-1.8792961e+179
-1.8791099e+179
-1.8754572e+179
-1.8900025e+179
-1.8861093e+179
-1.8901386e+179
-1.8859446e+179
-1.8896018e+179
-1.8857517e+179
-1.8898247e+179
-1.8855867e+179
-1.8805628e+179
-1.8772651e+179
-1.8809063e+179
-1.8769372e+179
-1.8872479e+179
-1.8912547e+179
-1.8910178e+179
-1.8869634e+179
-1.8799463e+179
-1.8765615e+179
-1.8802287e+179
-1.8763087e+179
-1.8866301e+179
-1.8906925e+179
-1.8863981e+179
-1.8904283e+179
-1.8980765e+179
-1.9040399e+179
-1.9039705e+179
-1.8979221e+179
-1.8977492e+179
-1.9038102e+179
-1.8975469e+179
-1.9035742e+179
-1.9183025e+179
-1.9183652e+179
-1.9120154e+179
-1.9119955e+179
-1.9115179e+179
-1.9117479e+179
-1.9181106e+179
-1.9177865e+179
-1.8607959e+179
-1.8582019e+179
-1.8612146e+179
-1.8578325e+179
-1.8671117e+179
-1.8703111e+179
-1.8700062e+179
-1.8667625e+179
-1.8572306e+179
-1.860173e+179
-1.8574692e+179
-1.8604516e+179
-1.8663827e+179
-1.8696191e+179
-1.8661287e+179
-1.869302e+179
-1.8406774e+179
-1.8428602e+179
-1.8425509e+179
-1.8404117e+179
-1.8399636e+179
-1.8401607e+179
-1.8423567e+179
-1.84217e+179
-1.8504862e+179
-1.848456e+179
-1.8507276e+179
-1.8482252e+179
-1.8477407e+179
-1.8500708e+179
-1.8479307e+179
-1.8502516e+179
-1.843806e+179
-1.8419647e+179
-1.8442456e+179
-1.8415825e+179
-1.8497339e+179
-1.8520745e+179
-1.8517268e+179
-1.8493748e+179
-1.8431959e+179
-1.8412439e+179
-1.843466e+179
-1.84102e+179
-1.8490243e+179
-1.8513538e+179
-1.8487987e+179
-1.8511054e+179
-1.8568947e+179
-1.8598537e+179
-1.8596332e+179
-1.8566432e+179
-1.8564288e+179
-1.8594435e+179
-1.8562726e+179
-1.8592634e+179
-1.8689886e+179
-1.8688224e+179
-1.8658257e+179
-1.8656344e+179
-1.86521e+179
-1.865386e+179
-1.8686039e+179
-1.8684162e+179
-1.8263793e+179
-1.8261219e+179
-1.8274168e+179
-1.8271337e+179
-1.8326273e+179
-1.8344758e+179
-1.8341965e+179
-1.832871e+179
-1.8258958e+179
-1.8255875e+179
-1.8266508e+179
-1.8269214e+179
-1.8322985e+179
-1.8320452e+179
-1.83394e+179
-1.8337362e+179
-1.8283803e+179
-1.8276196e+179
-1.8287572e+179
-1.8273308e+179
-1.8340762e+179
-1.835796e+179
-1.8354329e+179
-1.8337752e+179
-1.8277552e+179
-1.8270319e+179
-1.8280706e+179
-1.8267416e+179
-1.8334203e+179
-1.8350849e+179
-1.833169e+179
-1.8348478e+179
-1.8219304e+179
-1.821788e+179
-1.8219708e+179
-1.8216849e+179
-1.821388e+179
-1.8210446e+179
-1.8216704e+179
-1.8213578e+179
-1.7989478e+179
-1.7994143e+179
-1.8038092e+179
-1.8032827e+179
-1.8121167e+179
-1.8116528e+179
-1.8211397e+179
-1.8209621e+179
-1.8207531e+179
-1.8204985e+179
-1.8203081e+179
-1.8199451e+179
-1.8206952e+179
-1.820219e+179
-1.8026897e+179
-1.7985754e+179
-1.7981428e+179
-1.8024172e+179
-1.8105748e+179
-1.8111187e+179
-1.7857658e+179
-1.7862344e+179
-1.7903197e+179
-1.7898633e+179
-1.7863834e+179
-1.7869247e+179
-1.7911197e+179
-1.7906157e+179
-1.818972e+179
-1.8188976e+179
-1.8185874e+179
-1.818437e+179
-1.8182676e+179
-1.8178693e+179
-1.8186654e+179
-1.8181514e+179
-1.8006366e+179
-1.7964752e+179
-1.7959558e+179
-1.8002529e+179
-1.8084083e+179
-1.8089021e+179
-1.8198338e+179
-1.8195607e+179
-1.8196709e+179
-1.8193511e+179
-1.8191412e+179
-1.8189028e+179
-1.8194397e+179
-1.8192557e+179
-1.801957e+179
-1.7977426e+179
-1.7970111e+179
-1.8012518e+179
-1.8094975e+179
-1.8099206e+179
-1.8252629e+179
-1.824983e+179
-1.8260541e+179
-1.826379e+179
-1.831758e+179
-1.8314743e+179
-1.8334936e+179