/*--------------------------------*- C++ -*----------------------------------*\
  =========                 |
  \\      /  F ield         | OpenFOAM: The Open Source CFD Toolbox
   \\    /   O peration     | Website:  https://openfoam.org
    \\  /    A nd           | Version:  7
     \\/     M anipulation  |
\*---------------------------------------------------------------------------*/
FoamFile
{
    version     2.0;
    format      ascii;
    class       volVectorField;
    location    "2000";
    object      U;
}
// * * * * * * * * * * * * * * * * * * * * * * * * * * * * * * * * * * * * * //

dimensions      [0 1 -1 0 0 0 0];

internalField   nonuniform List<vector> 
34378
(
(-5.484957e+90 6.2616228e+89 4.8607097e+89)
(-5.5760833e+90 4.3702026e+89 2.6723084e+89)
(-5.2620814e+90 -1.8649147e+89 6.5011962e+89)
(-5.0022466e+90 3.9624043e+89 2.5855581e+89)
(-4.2894554e+90 7.357928e+89 1.0828717e+90)
(-4.7946736e+90 6.4327901e+89 7.0322897e+89)
(-5.0367652e+90 5.0478401e+89 2.4635251e+89)
(-5.0506902e+90 6.6034636e+89 -5.8671901e+89)
(-4.4154963e+90 9.0942559e+89 3.891869e+89)
(-5.2096807e+90 -2.0117951e+89 -5.1544376e+89)
(-4.3878998e+90 -5.7811639e+89 5.5031846e+89)
(-4.8843976e+90 -1.7720452e+89 4.8533098e+89)
(-4.222263e+90 -7.2697238e+88 6.4724235e+89)
(-4.0912418e+90 2.5603721e+89 6.121413e+89)
(-4.4798389e+90 4.5308908e+89 1.0546948e+90)
(-4.470488e+90 4.6828325e+89 1.0789652e+90)
(-4.3620234e+90 3.4088095e+89 4.8277949e+89)
(-4.8429932e+90 -8.9492402e+88 4.7858169e+89)
(-4.5115277e+90 7.185827e+89 8.9839835e+89)
(-4.3890906e+90 7.2588323e+89 9.6645374e+89)
(-4.3005963e+90 1.2365962e+88 6.5893334e+89)
(-4.340077e+90 5.6894085e+89 1.0253804e+90)
(-4.8652145e+90 7.6524411e+89 6.5931153e+89)
(-4.9155283e+90 4.2302262e+89 -5.2653837e+89)
(-6.3155424e+90 3.3310645e+89 4.9021815e+89)
(-4.6111598e+90 4.4642649e+89 4.4360092e+89)
(-4.6118484e+90 4.0144853e+89 4.7318382e+89)
(-4.6809373e+90 4.0492432e+89 5.2275559e+89)
(-4.8454552e+90 6.5682957e+89 1.2204439e+89)
(-5.0511154e+90 5.1932701e+89 1.2687671e+89)
(-4.1585365e+90 1.7211525e+89 -3.2041713e+89)
(-4.1556902e+90 4.8949082e+89 -7.1485911e+89)
(-4.1577762e+90 5.8157006e+89 -7.0174326e+89)
(-3.1448874e+90 -1.8191087e+89 4.3451788e+89)
(-3.9384777e+90 -1.1636012e+88 -6.387306e+89)
(-4.7354757e+90 2.549617e+89 -3.1301346e+89)
(-4.1879014e+90 4.1209378e+89 -6.6638803e+89)
(-4.1411684e+90 3.9516899e+89 -6.6164474e+89)
(-3.9943362e+90 7.9799771e+88 -2.0461833e+89)
(-3.9228504e+90 3.8107298e+89 -2.1728885e+89)
(-3.8002679e+90 -9.2581879e+88 -5.4029967e+89)
(-3.7076032e+90 2.1012808e+89 -5.1632965e+89)
(-3.2143118e+90 -3.4215236e+89 6.0605691e+89)
(-4.2670789e+90 1.3868365e+89 7.0911302e+89)
(-3.3017201e+90 2.5297461e+89 7.0208455e+89)
(-4.9033217e+90 -9.8854075e+88 -3.1974233e+89)
(-3.9816212e+90 -4.4515395e+89 5.1743539e+89)
(-3.4766806e+90 -5.5839942e+88 6.2089895e+89)
(-3.2616603e+90 1.4342957e+89 5.1214277e+89)
(-3.6727932e+90 1.7330586e+89 4.9448963e+89)
(-3.946635e+90 2.6996038e+89 8.4683601e+89)
(-4.0220092e+90 2.8040394e+89 9.0204379e+89)
(-3.460016e+90 -9.4096082e+87 5.8698985e+89)
(-3.3245004e+90 1.9472455e+89 5.5753345e+89)
(-3.9818705e+90 2.8179023e+89 8.4702942e+89)
(-3.9968449e+90 3.0228007e+89 8.3804836e+89)
(-4.3593892e+90 3.9593001e+89 9.4268433e+89)
(-4.344506e+90 5.0869649e+89 8.3582154e+89)
(-3.8592877e+90 -3.1378988e+88 4.8182302e+89)
(-3.9955257e+90 -1.9540492e+88 5.0311837e+89)
(-4.4528783e+90 5.2677048e+89 8.7715133e+89)
(-3.6729798e+90 2.2813136e+89 4.4670786e+89)
(-4.3942545e+90 4.8466184e+89 8.4548472e+89)
(-3.5420154e+90 2.7950837e+88 6.4711257e+89)
(-3.4673129e+90 2.2614219e+89 6.054616e+89)
(-4.0002001e+90 3.4658734e+89 8.9744911e+89)
(-3.9736195e+90 3.3929067e+89 8.4925052e+89)
(-4.9413033e+90 5.8439808e+89 -5.4499626e+89)
(-5.0574995e+90 7.5038852e+89 5.9240263e+89)
(-5.2343761e+90 3.6780146e+89 6.6644342e+89)
(-4.7270391e+90 5.6286586e+89 6.1256278e+89)
(-4.7923506e+90 3.0032518e+89 5.8799774e+89)
(-4.6524698e+90 4.071139e+89 -2.8368806e+89)
(-4.7481139e+90 3.0957375e+89 -1.7799199e+89)
(-4.6275953e+90 4.702283e+89 1.9443782e+89)
(-4.4523985e+90 2.7938514e+89 -4.2045089e+89)
(-4.43335e+90 3.3536673e+89 -4.923949e+89)
(-4.7372683e+90 2.3194124e+89 1.58438e+89)
(-4.6971715e+90 6.8934853e+89 5.6627433e+89)
(-4.6164898e+90 4.4746909e+89 1.241026e+89)
(-4.4920053e+90 2.64364e+89 -4.8904444e+89)
(-4.7923941e+90 3.509329e+89 6.4088102e+89)
(-4.3954822e+90 4.4535964e+89 1.0802691e+88)
(-4.0997705e+90 6.6883659e+89 5.090216e+88)
(-3.9687333e+90 4.0885365e+89 6.406423e+89)
(-3.7234929e+90 7.547328e+89 6.5782591e+89)
(-3.4978035e+90 5.4953344e+89 -5.6819879e+89)
(-3.4247765e+90 8.3594927e+89 -5.4130558e+89)
(-4.7359642e+90 2.9577648e+89 -2.202708e+89)
(-4.5915646e+90 6.0809562e+89 4.9969426e+89)
(-4.0035308e+90 3.0505039e+89 4.6334889e+89)
(-4.0575065e+90 3.1600849e+89 5.1986306e+89)
(-4.0549431e+90 2.7581466e+89 4.8221607e+89)
(-4.0091566e+90 2.7334261e+89 4.7755843e+89)
(-3.997097e+90 2.540193e+89 4.9412487e+89)
(-4.0657392e+90 2.8959798e+89 5.5914808e+89)
(-4.5140558e+90 4.1277034e+89 3.713613e+89)
(-4.5203442e+90 4.1694897e+89 3.1428496e+89)
(-4.5800098e+90 4.6677062e+89 3.5142728e+89)
(-4.5368924e+90 4.4054034e+89 3.0928604e+89)
(-5.2116633e+90 4.4986495e+89 -3.8256056e+89)
(-5.1296606e+90 5.0979578e+89 -4.1662021e+89)
(-4.612312e+90 2.7445766e+89 -6.3378683e+89)
(-4.4185087e+90 3.8397467e+89 -2.0922226e+88)
(-4.3578138e+90 4.9916851e+89 -8.7047509e+87)
(-2.4229005e+90 2.6266155e+87 -4.1965987e+89)
(-2.3250248e+90 2.4957861e+89 -4.2583192e+89)
(-2.1877415e+90 -1.2562694e+89 4.964581e+89)
(-2.1494855e+90 3.0962825e+89 5.3210648e+89)
(-3.284335e+90 3.0664792e+89 -7.2140853e+89)
(-3.273713e+90 2.8027927e+89 -7.2089745e+89)
(-2.9357628e+90 2.7135292e+89 -4.2049249e+89)
(-2.955532e+90 4.9240991e+88 -4.2046121e+89)
(-3.8519901e+90 1.6304028e+89 -1.8180889e+89)
(-4.1455136e+90 4.3649965e+89 -6.0200032e+89)
(-4.1653965e+90 3.7689092e+89 -6.3578715e+89)
(-3.7372202e+90 3.5714183e+89 -1.6499726e+89)
(-4.4297693e+90 4.1375354e+89 3.8525192e+88)
(-4.354421e+90 3.5367123e+89 3.3216414e+88)
(-4.5322857e+90 2.2594822e+89 -6.0611206e+89)
(-4.5533084e+90 2.2270457e+89 -5.9211375e+89)
(-3.6348626e+90 2.0845391e+89 -4.9345594e+89)
(-3.1661968e+90 2.7017811e+89 -6.7458513e+89)
(-3.175314e+90 2.4845256e+89 -6.6633014e+89)
(-2.8184737e+90 2.3442426e+88 -3.6539924e+89)
(-2.7772284e+90 2.2197869e+89 -3.6528472e+89)
(-3.1679986e+90 2.5420279e+89 -6.8113648e+89)
(-3.1651049e+90 2.6437846e+89 -6.6957105e+89)
(-2.8208479e+90 2.0674942e+89 -3.8497661e+89)
(-2.8314262e+90 4.9765511e+88 -3.7943335e+89)
(-2.3134815e+90 -4.0738808e+88 -3.6677392e+89)
(-2.2110847e+90 1.8770941e+89 -3.5788593e+89)
(-2.2091608e+90 -2.1883961e+89 6.610747e+89)
(-3.2213187e+90 1.785951e+89 8.2066655e+89)
(-2.0205732e+90 2.4203786e+89 6.0877854e+89)
(-3.0169585e+90 -3.6387649e+89 6.2478466e+89)
(-3.6962236e+90 -4.5413187e+88 -5.1959385e+89)
(-2.3450869e+90 -5.0418759e+87 -3.7715065e+89)
(-2.315368e+90 1.8642485e+89 -3.776278e+89)
(-2.2501414e+90 2.8130192e+89 7.7536673e+89)
(-2.235043e+90 -1.7753203e+89 6.6723591e+89)
(-3.8786243e+90 1.8486882e+89 -1.3159335e+89)
(-4.2008215e+90 4.4908194e+89 -5.4128957e+89)
(-4.1639545e+90 4.7162998e+89 -5.5086407e+89)
(-3.660348e+90 4.4586523e+89 -1.3020392e+89)
(-3.6705063e+90 -2.7174036e+88 -4.6797257e+89)
(-3.4282089e+90 2.7677321e+89 -4.1887119e+89)
(-2.4884393e+90 2.8204521e+89 3.8751542e+89)
(-2.9096236e+90 -2.656875e+89 5.0509698e+89)
(-3.0762878e+90 1.2009024e+89 4.5661752e+89)
(-2.9916939e+90 -4.4646321e+88 6.4834027e+89)
(-2.9268192e+90 1.1262165e+89 6.0900636e+89)
(-3.4506213e+90 1.8234947e+89 7.7563255e+89)
(-3.4740123e+90 1.7320031e+89 7.9903084e+89)
(-2.9712546e+90 -1.807685e+88 6.1273003e+89)
(-2.954561e+90 1.1205807e+89 6.2378553e+89)
(-3.4429668e+90 1.6401743e+89 7.5484182e+89)
(-3.4607175e+90 1.8180213e+89 7.4912562e+89)
(-3.2644346e+90 -2.4905e+88 5.0018546e+89)
(-3.9029e+90 3.1609503e+89 7.4918292e+89)
(-3.8559435e+90 2.5729856e+89 7.8522765e+89)
(-3.0176849e+90 -3.2589714e+88 6.404222e+89)
(-2.9389938e+90 1.2856447e+89 6.0497866e+89)
(-3.503894e+90 1.731032e+89 7.8689961e+89)
(-3.4616773e+90 1.9003438e+89 7.500206e+89)
(-3.0113612e+90 1.42698e+88 6.3731701e+89)
(-2.9975406e+90 1.4678664e+89 6.5921862e+89)
(-3.4679579e+90 1.8542834e+89 7.6819482e+89)
(-3.4845443e+90 2.0237157e+89 7.5968615e+89)
(-3.250439e+90 -3.7379815e+88 4.731936e+89)
(-3.0549273e+90 1.3881656e+89 4.024323e+89)
(-3.8855678e+90 3.4217662e+89 7.3741615e+89)
(-3.8506495e+90 3.2013012e+89 7.213406e+89)
(-3.3358123e+90 -2.7404089e+87 4.8717219e+89)
(-3.1294589e+90 1.8589759e+89 4.0972852e+89)
(-3.8782812e+90 3.6055617e+89 7.1794459e+89)
(-3.9203961e+90 3.7628271e+89 7.4114481e+89)
(-3.927524e+90 3.6384659e+89 7.0671547e+89)
(-3.2973436e+90 9.5074974e+87 4.6037727e+89)
(-3.0952069e+90 1.6013145e+89 4.1723023e+89)
(-3.8572983e+90 3.302686e+89 7.0898199e+89)
(-3.0585401e+90 9.4462426e+87 6.7168879e+89)
(-3.0421724e+90 1.4212859e+89 6.4411802e+89)
(-3.520691e+90 2.0365839e+89 7.8988494e+89)
(-3.5190203e+90 2.062386e+89 8.0640401e+89)
(-3.0485005e+90 3.9693282e+88 6.3258771e+89)
(-3.0363964e+90 1.786756e+89 6.348229e+89)
(-3.4959348e+90 2.2887016e+89 7.5201253e+89)
(-3.5046902e+90 2.3173102e+89 7.506808e+89)
(-4.5280573e+90 3.3398026e+89 -4.8035518e+89)
(-4.7718712e+90 2.2055964e+89 1.5439224e+89)
(-4.612515e+90 4.4916192e+89 7.9541425e+88)
(-4.4724425e+90 2.817972e+89 -5.5939554e+89)
(-4.7262359e+90 3.8639775e+89 -2.6195107e+89)
(-4.7433304e+90 3.2961267e+89 -2.4611866e+89)
(-4.7385565e+90 5.8624509e+89 5.1456326e+89)
(-4.8930978e+90 2.855855e+89 5.3915468e+89)
(-4.6786254e+90 2.9618227e+89 -2.7017416e+89)
(-4.6559253e+90 5.6857156e+89 4.4684849e+89)
(-4.7556186e+90 3.0420547e+89 5.1432568e+89)
(-4.6487897e+90 3.9047303e+89 -2.9051412e+89)
(-4.1911714e+90 4.1671948e+89 6.2433184e+89)
(-4.0723429e+90 2.7560634e+89 1.5870918e+88)
(-4.1533969e+90 2.5794482e+89 7.4750762e+88)
(-4.1999825e+90 1.9496508e+89 6.0858633e+89)
(-4.0654893e+90 3.0202509e+89 -2.4542724e+88)
(-4.1047825e+90 2.2005885e+89 1.0843974e+87)
(-4.1992657e+90 2.1382264e+89 5.7037554e+89)
(-4.2092943e+90 3.8997058e+89 5.5789283e+89)
(-4.0571852e+90 3.2971037e+89 1.8691384e+89)
(-3.9226369e+90 2.1633609e+89 -2.4325335e+89)
(-3.8997871e+90 2.9476086e+89 -2.4865806e+89)
(-4.0916673e+90 2.1670763e+89 1.9253282e+89)
(-4.1096926e+90 3.7217198e+89 2.8176214e+89)
(-3.9176862e+90 2.5437158e+89 -1.9939266e+89)
(-3.9692846e+90 2.4293208e+89 -1.4573475e+89)
(-4.1080214e+90 1.9045228e+89 2.5217143e+89)
(-3.9850975e+90 3.199086e+89 5.9253843e+88)
(-3.9398901e+90 2.3300817e+89 -2.7362237e+89)
(-3.9668003e+90 1.9832775e+89 -2.3116783e+89)
(-4.0128829e+90 1.7991027e+89 4.0068082e+88)
(-4.0859722e+90 1.487019e+89 1.378519e+88)
(-4.0580445e+90 2.7770026e+89 4.19077e+88)
(-3.9649539e+90 1.7239931e+89 -2.6086029e+89)
(-3.9508976e+90 1.9168275e+89 -3.0352019e+89)
(-4.4014964e+90 4.4092916e+89 -9.5264582e+86)
(-3.9634894e+90 2.0984009e+89 -3.5536556e+89)
(-3.9795771e+90 1.4148396e+89 -3.4299605e+89)
(-4.0625656e+90 2.410772e+89 -4.5891871e+88)
(-4.5123985e+90 2.1210067e+89 -1.801606e+88)
(-4.0896934e+90 1.553443e+89 -4.1961306e+88)
(-3.923192e+90 2.4916463e+89 -3.3104382e+89)
(-3.9362073e+90 1.6300485e+89 -3.2715368e+89)
(-3.9371838e+90 2.9864838e+89 -4.5377125e+88)
(-3.9676891e+90 2.150601e+89 -3.1960608e+88)
(-4.174129e+90 3.5529897e+89 -5.8096081e+89)
(-4.2829347e+90 3.020972e+89 -5.078177e+89)
(-3.9672698e+90 3.1114611e+89 2.0393168e+88)
(-3.9232455e+90 2.4770028e+89 -3.2076309e+89)
(-3.9616837e+90 1.9106891e+89 -2.8252831e+89)
(-3.9865168e+90 1.9100588e+89 4.9845394e+87)
(-3.966534e+90 1.8950818e+89 -3.4130786e+89)
(-4.0069738e+90 1.5718991e+89 -3.0867443e+89)
(-4.0862133e+90 1.4368338e+89 -2.2950282e+88)
(-4.0641012e+90 2.6344333e+89 -7.1267316e+87)
(-4.4667166e+90 4.3382475e+89 -3.4455124e+88)
(-4.4484534e+90 2.554123e+89 -3.9828235e+88)
(-4.2007686e+90 2.8331188e+89 -5.5706472e+89)
(-4.1058866e+90 4.1110862e+89 -5.9177568e+89)
(-3.7860839e+90 4.8538705e+89 7.241469e+88)
(-4.4437656e+90 5.3914867e+89 2.902566e+89)
(-4.888573e+90 6.7405399e+89 9.7598776e+89)
(-3.5889131e+90 5.6209277e+89 8.2681577e+88)
(-4.3866979e+90 2.4354256e+89 2.7855862e+89)
(-3.314294e+90 8.8779719e+89 -8.5711424e+89)
(-3.4120302e+90 6.1526754e+89 -7.9666588e+89)
(-5.043137e+90 4.2049463e+89 1.0254935e+90)
(-4.2438768e+90 5.3352038e+89 2.7858488e+89)
(-3.5488486e+90 5.280038e+89 9.7947609e+88)
(-3.5449408e+90 5.6704284e+89 9.796796e+88)
(-4.3303903e+90 2.7014466e+89 3.0183254e+89)
(-4.0670617e+90 3.717041e+89 2.318499e+89)
(-3.9023231e+90 2.7077781e+89 -2.2085379e+89)
(-3.9605052e+90 2.4236764e+89 -1.7270817e+89)
(-4.0801894e+90 2.1298061e+89 2.0929291e+89)
(-4.1356665e+90 4.2651378e+89 5.6471933e+89)
(-4.0682228e+90 3.0053544e+89 -3.2389874e+87)
(-4.1401893e+90 2.5928503e+89 3.5763331e+88)
(-4.1557878e+90 2.3670132e+89 5.533356e+89)
(-3.4907207e+90 2.2327824e+89 4.4137583e+89)
(-3.4567072e+90 2.1779901e+89 4.3399118e+89)
(-3.4754027e+90 1.8658417e+89 4.5520296e+89)
(-3.4869671e+90 2.1349529e+89 4.8979232e+89)
(-3.4534158e+90 1.821448e+89 4.6314509e+89)
(-3.432088e+90 1.6920193e+89 4.328509e+89)
(-3.4654075e+90 1.9615818e+89 4.499509e+89)
(-3.4381321e+90 1.8408969e+89 4.4922887e+89)
(-3.4354517e+90 1.7652792e+89 4.4663406e+89)
(-3.4125969e+90 1.6055885e+89 4.4588909e+89)
(-3.4298938e+90 2.0274955e+89 4.9654489e+89)
(-3.4188031e+90 1.6288764e+89 4.6755505e+89)
(-3.9056769e+90 2.8819958e+89 4.2873122e+89)
(-3.9358995e+90 3.0354027e+89 4.0721396e+89)
(-3.9029603e+90 3.2808909e+89 3.95429e+89)
(-3.8694108e+90 3.0049996e+89 3.7012846e+89)
(-3.895398e+90 3.3240656e+89 3.7534115e+89)
(-3.9390293e+90 3.6969779e+89 4.2048312e+89)
(-3.9519421e+90 3.3484002e+89 3.761962e+89)
(-3.8843701e+90 3.2159239e+89 3.6946781e+89)
(-5.1298295e+90 4.5668424e+89 -2.4434373e+89)
(-5.1500381e+90 4.3563049e+89 -3.0275789e+89)
(-5.2918765e+90 4.6709836e+89 -2.5152135e+89)
(-5.2047154e+90 4.8513655e+89 -2.6744138e+89)
(-4.6928313e+90 2.5286268e+89 -4.6418847e+89)
(-3.4828487e+90 2.8873689e+89 -3.9001855e+89)
(-3.4825196e+90 2.4588812e+89 -3.9107849e+89)
(-4.3047059e+90 5.6419148e+89 -4.0546121e+89)
(-4.3821627e+90 3.5960589e+89 -4.1515318e+89)
(-1.8624552e+90 1.5129371e+89 -5.9034725e+89)
(-1.8474678e+90 1.7057124e+89 -5.9688522e+89)
(-1.8048179e+90 2.7938597e+88 -3.8693491e+89)
(-1.7335739e+90 2.0354989e+89 -3.9862261e+89)
(-1.8934636e+90 1.9309028e+89 -5.9177483e+89)
(-1.8721043e+90 1.9062527e+89 -6.0653355e+89)
(-1.8154147e+90 6.7794138e+88 -3.9854956e+89)
(-1.7452283e+90 1.9976941e+89 -4.1927989e+89)
(-1.5829978e+90 -7.4299112e+87 2.0891836e+89)
(-1.4977128e+90 1.7340319e+89 1.7628138e+89)
(-1.9766287e+90 2.0162555e+89 6.0814913e+89)
(-1.9859113e+90 -7.5289624e+88 6.028149e+89)
(-2.072559e+90 -2.4254393e+88 6.5455193e+89)
(-1.9991214e+90 2.1818445e+89 6.3643635e+89)
(-1.622926e+90 4.5592878e+88 2.1518373e+89)
(-1.4928037e+90 1.6322263e+89 1.4106839e+89)
(-3.5190847e+90 1.2847855e+89 -7.468538e+89)
(-3.5157592e+90 1.191744e+89 -7.7269831e+89)
(-4.4771874e+90 2.4238643e+89 -5.7416586e+89)
(-4.3874641e+90 3.5887286e+89 7.2637859e+88)
(-4.2613819e+90 4.0593593e+89 9.4940379e+88)
(-4.4913555e+90 2.0294086e+89 -5.7141411e+89)
(-4.5357676e+90 3.0112241e+89 -4.1765669e+89)
(-4.3321356e+90 5.390495e+89 -3.8264806e+89)
(-4.6947703e+90 2.2354386e+89 -4.5709867e+89)
(-3.392353e+90 2.2265526e+89 -3.2363079e+89)
(-3.3840732e+90 2.6120716e+89 -3.2916745e+89)
(-4.6940845e+90 2.1820653e+89 -4.3095202e+89)
(-3.4016408e+90 2.2331553e+89 -3.3436073e+89)
(-3.3849859e+90 2.6411923e+89 -3.4578904e+89)
(-3.1290359e+90 2.8286751e+89 -6.2900634e+89)
(-3.1159572e+90 2.6884174e+89 -6.5003702e+89)
(-2.7263539e+90 2.1312816e+89 -3.4403021e+89)
(-2.7630287e+90 5.8530072e+88 -3.3641888e+89)
(-3.4775349e+90 8.9145808e+88 -7.5465395e+89)
(-3.5005671e+90 9.468346e+88 -7.464768e+89)
(-3.5093231e+90 1.0333454e+89 -7.6324352e+89)
(-3.4998644e+90 1.0336266e+89 -7.6216958e+89)
(-2.2314857e+90 1.5739256e+89 -3.330313e+89)
(-1.7710272e+90 1.5217507e+89 -5.4868201e+89)
(-1.7455133e+90 1.5904381e+89 -5.6082503e+89)
(-1.751253e+90 7.871715e+87 -3.2287065e+89)
(-1.6717472e+90 1.8197191e+89 -3.3732057e+89)
(-1.7891877e+90 1.5941155e+89 -5.4465146e+89)
(-1.7578772e+90 1.4732828e+89 -5.6425133e+89)
(-1.7705486e+90 2.5240861e+88 -3.2828819e+89)
(-1.6865549e+90 1.6801776e+89 -3.487227e+89)
(-1.5138801e+90 -3.7666894e+88 2.331572e+89)
(-1.3911938e+90 1.3695214e+89 2.0184697e+89)
(-1.9874222e+90 -1.3296239e+89 7.0313636e+89)
(-1.8899935e+90 1.8122523e+89 6.7298444e+89)
(-2.1339979e+90 2.0143755e+89 7.9733965e+89)
(-2.2668248e+90 -3.6546838e+88 -3.4091281e+89)
(-2.1117915e+90 -2.459481e+89 7.2602289e+89)
(-1.5796057e+90 -1.1725037e+88 2.7183156e+89)
(-2.0105281e+90 -1.0117286e+89 7.1611422e+89)
(-1.9463396e+90 1.6461529e+89 7.4772871e+89)
(-1.4360542e+90 1.0606156e+89 2.2390934e+89)
(-2.2769106e+90 -4.9105212e+88 -3.4978379e+89)
(-2.1141553e+90 1.6876547e+89 -3.1627911e+89)
(-2.0755511e+90 -2.5066754e+89 6.2020955e+89)
(-1.7943921e+90 2.114424e+89 5.2819541e+89)
(-3.1459426e+90 3.2042245e+89 -6.5152463e+89)
(-3.1794267e+90 3.193756e+89 -6.3457328e+89)
(-2.7062457e+90 2.4931513e+89 -3.335134e+89)
(-2.8091192e+90 7.1543902e+88 -3.3733397e+89)
(-1.7831178e+90 1.4730998e+89 -5.5701986e+89)
(-1.7590559e+90 1.5717827e+89 -5.6859872e+89)
(-1.7531164e+90 8.9594649e+87 -3.4653392e+89)
(-1.6856915e+90 1.8502852e+89 -3.6015224e+89)
(-1.8034313e+90 1.5701989e+89 -5.6770639e+89)
(-1.782953e+90 1.3988812e+89 -5.8491226e+89)
(-1.7839647e+90 4.1759421e+88 -3.5918971e+89)
(-1.7314783e+90 1.6995133e+89 -3.6854442e+89)
(-1.6176624e+90 1.1028794e+88 2.7771347e+89)
(-1.5322795e+90 1.27032e+89 2.635385e+89)
(-2.0312546e+90 -5.9359566e+88 7.0915765e+89)
(-1.9574474e+90 2.0393114e+89 7.271404e+89)
(-1.5557094e+90 -4.5221819e+88 2.5325059e+89)
(-2.0166813e+90 -1.2594824e+89 6.7700277e+89)
(-1.4334859e+90 1.4011551e+89 2.1048318e+89)
(-1.8981749e+90 1.9228115e+89 6.3925248e+89)
(-4.4373904e+90 2.7281038e+89 -5.0276852e+89)
(-4.3443376e+90 3.8975418e+89 1.0370614e+89)
(-4.3111706e+90 4.5425785e+89 1.2755641e+89)
(-4.426123e+90 2.3917258e+89 -4.908007e+89)
(-3.1714499e+90 3.5888241e+89 -6.0925806e+89)
(-3.2075228e+90 3.4924125e+89 -5.9794394e+89)
(-2.7101727e+90 2.8950908e+89 -3.147829e+89)
(-2.8056216e+90 1.0793919e+89 -3.1712578e+89)
(-3.1193846e+90 3.4768141e+89 -6.0012064e+89)
(-3.1627863e+90 3.3887938e+89 -5.8208283e+89)
(-2.6917818e+90 2.7557976e+89 -3.1257253e+89)
(-2.7946183e+90 9.8210876e+88 -2.9605615e+89)
(-2.2556481e+90 1.1188984e+88 -3.223632e+89)
(-2.0715287e+90 -1.6166676e+89 6.1222318e+89)
(-2.0986167e+90 1.9431024e+89 -3.0474177e+89)
(-1.7995647e+90 2.4337042e+89 5.1572747e+89)
(-2.233844e+90 1.8509494e+88 -3.2449301e+89)
(-2.062315e+90 -1.6404586e+89 5.782294e+89)
(-2.0867551e+90 2.4189692e+89 -2.9921242e+89)
(-1.7637046e+90 3.0742861e+89 4.5185845e+89)
(-2.903387e+90 -1.6276461e+88 5.9107581e+89)
(-2.8253597e+90 1.0462357e+89 5.7018442e+89)
(-3.3644951e+90 1.7704167e+89 7.1124106e+89)
(-3.3894451e+90 2.0652009e+89 6.8874669e+89)
(-2.3592725e+90 1.2150416e+89 6.915214e+89)
(-2.3545747e+90 -2.6655306e+88 7.1084598e+89)
(-3.0522435e+90 1.180689e+89 6.7838046e+89)
(-3.0693294e+90 1.2111056e+89 6.9716416e+89)
(-2.3412843e+90 1.3095501e+89 6.937856e+89)
(-2.343726e+90 -2.7299149e+88 6.7572791e+89)
(-3.0668803e+90 1.1090448e+89 6.5561671e+89)
(-3.0628665e+90 1.1748367e+89 6.6057504e+89)
(-2.3478363e+90 1.2415907e+89 6.7405892e+89)
(-2.3520883e+90 -3.7378742e+88 6.9506883e+89)
(-3.0903853e+90 1.071793e+89 6.7811769e+89)
(-3.0795866e+90 1.1898804e+89 6.5745091e+89)
(-2.3354895e+90 1.3907947e+89 6.8864889e+89)
(-2.3290814e+90 -1.7774046e+88 6.6717428e+89)
(-3.076406e+90 1.1218238e+89 6.6550501e+89)
(-3.0626489e+90 1.1395295e+89 6.5062731e+89)
(-2.9184826e+90 -4.0485564e+88 5.8226856e+89)
(-2.7831687e+90 1.1967801e+89 5.2250504e+89)
(-3.3803966e+90 2.1759109e+89 6.8419385e+89)
(-3.4224387e+90 2.0641684e+89 7.0527283e+89)
(-2.4067707e+90 1.3166371e+89 6.6880063e+89)
(-2.4321363e+90 -2.7217531e+88 6.889985e+89)
(-3.0822812e+90 1.0961516e+89 6.6927618e+89)
(-3.1197105e+90 1.1761364e+89 6.7832182e+89)
(-2.344123e+90 -1.48505e+88 6.5554377e+89)
(-2.3304716e+90 1.5266794e+89 6.6853355e+89)
(-3.0773698e+90 1.2146625e+89 6.3353849e+89)
(-3.0739399e+90 1.2820192e+89 6.3827573e+89)
(-2.375895e+90 1.4918489e+89 6.6377989e+89)
(-2.374715e+90 -9.5025398e+87 6.7727295e+89)
(-3.1127903e+90 1.2573883e+89 6.7189103e+89)
(-3.1100124e+90 1.3063756e+89 6.683357e+89)
(-2.3770206e+90 1.5894529e+89 6.8733291e+89)
(-2.3490534e+90 9.9975056e+87 6.5941889e+89)
(-3.0789508e+90 1.3389577e+89 6.4016202e+89)
(-3.0812797e+90 1.3339124e+89 6.4796709e+89)
(-2.8827291e+90 -4.854277e+88 5.6479762e+89)
(-2.7560915e+90 1.192441e+89 5.0820446e+89)
(-3.3767342e+90 2.2375465e+89 6.9603163e+89)
(-3.3512952e+90 2.3165087e+89 6.748308e+89)
(-2.867976e+90 -1.7325522e+88 5.4206195e+89)
(-2.6854042e+90 1.1196383e+89 4.7727493e+89)
(-3.3315026e+90 2.1588519e+89 6.5093521e+89)
(-3.394215e+90 2.2455395e+89 6.6501609e+89)
(-3.162046e+90 1.9057838e+89 4.0668293e+89)
(-2.9159691e+90 -1.3470141e+88 5.5641255e+89)
(-2.8002776e+90 1.4386984e+89 4.9902279e+89)
(-3.3594929e+90 2.5612471e+89 6.5548245e+89)
(-3.3934964e+90 2.5600919e+89 6.8247866e+89)
(-2.8835768e+90 1.6858989e+88 5.2497671e+89)
(-2.7652236e+90 1.4244404e+89 4.8554633e+89)
(-3.347246e+90 2.4285438e+89 6.3964577e+89)
(-3.3874346e+90 2.5000332e+89 6.4028723e+89)
(-2.914602e+90 -1.4248408e+88 5.5488628e+89)
(-3.4106829e+90 2.3978982e+89 6.7084097e+89)
(-2.7805069e+90 1.442778e+89 5.0045701e+89)
(-3.3745956e+90 2.4956064e+89 6.5577341e+89)
(-2.886186e+90 6.6789375e+87 5.4186522e+89)
(-2.7365449e+90 1.1920595e+89 4.950875e+89)
(-3.3319258e+90 2.2818778e+89 6.5284448e+89)
(-3.3858168e+90 2.4900309e+89 6.5214051e+89)
(-2.3808511e+90 1.4828629e+89 6.4610569e+89)
(-2.3980664e+90 3.9528212e+87 6.7608966e+89)
(-3.0972781e+90 1.3159273e+89 6.5615363e+89)
(-3.1114028e+90 1.3169263e+89 6.8401961e+89)
(-2.4165377e+90 1.5969101e+89 6.403738e+89)
(-2.3890635e+90 1.5782207e+88 6.2766177e+89)
(-3.1106085e+90 1.3151365e+89 6.315382e+89)
(-3.1249651e+90 1.3281317e+89 6.4670828e+89)
(-2.4119417e+90 9.5023346e+87 6.4444517e+89)
(-3.1231541e+90 1.4385161e+89 6.4906919e+89)
(-3.1108403e+90 1.552332e+89 6.261366e+89)
(-2.3973657e+90 1.7228415e+89 6.1244345e+89)
(-2.384852e+90 5.57149e+88 6.0800745e+89)
(-2.3784821e+90 2.0449856e+89 6.1681854e+89)
(-3.0916724e+90 1.7099132e+89 6.1456469e+89)
(-3.1008055e+90 1.6110306e+89 6.3271642e+89)
(-5.4458942e+90 4.1343764e+89 -6.825375e+89)
(-4.0354032e+90 2.1992067e+89 -7.4898999e+87)
(-4.6409708e+90 2.2000981e+89 1.4131393e+87)
(-4.3767913e+90 3.7218952e+89 -5.1880429e+89)
(-4.0283157e+90 1.5925864e+89 -3.5451329e+89)
(-3.9635071e+90 2.2214592e+89 -3.6918142e+89)
(-4.0766321e+90 2.5449217e+89 -4.0554863e+88)
(-4.0695778e+90 1.6715265e+89 -2.5900458e+88)
(-3.9166253e+90 2.6441763e+89 -3.1439981e+89)
(-3.9569118e+90 1.8251288e+89 -3.1060382e+89)
(-3.9541949e+90 3.1462573e+89 -4.2074436e+88)
(-3.9710974e+90 2.2718963e+89 -2.0917246e+88)
(-3.9843792e+90 3.1381224e+89 -3.4193145e+87)
(-3.9229801e+90 2.5079223e+89 -3.3572898e+89)
(-4.0002701e+90 1.9071229e+89 -1.3062704e+88)
(-3.9617099e+90 2.0131432e+89 -2.9085621e+89)
(-3.9849554e+90 2.1257527e+89 -3.8229176e+89)
(-4.0848225e+90 1.5356103e+89 -3.3701897e+88)
(-4.1181475e+90 3.5410605e+89 1.8229084e+89)
(-3.975145e+90 2.4800141e+89 -2.2854664e+89)
(-4.1281816e+90 2.2556699e+89 1.8378112e+89)
(-3.9589317e+90 2.9337295e+89 -2.1511307e+89)
(-3.9223751e+90 2.8734157e+89 -2.1857616e+89)
(-4.0689277e+90 4.0929098e+89 2.2782338e+89)
(-4.0987313e+90 2.3173274e+89 2.1338932e+89)
(-4.0341467e+90 3.2651199e+89 -1.9621246e+88)
(-4.0873866e+90 3.1121382e+89 2.742062e+88)
(-4.1074597e+90 4.7429052e+89 5.295419e+89)
(-4.1556729e+90 2.5490793e+89 5.3052124e+89)
(-4.1163466e+90 2.5435387e+89 -1.0518035e+88)
(-4.1534119e+90 4.3969358e+89 4.902444e+89)
(-4.0611874e+90 3.102884e+89 -3.0855583e+88)
(-4.1700768e+90 2.4330657e+89 5.1392842e+89)
(-3.9512343e+90 2.4135698e+89 -2.0314773e+89)
(-4.0556082e+90 3.6384514e+89 1.8778695e+89)
(-4.0840377e+90 2.0470298e+89 1.7913133e+89)
(-3.8978293e+90 2.6827054e+89 -2.4524928e+89)
(-4.0596112e+90 2.6170754e+89 -1.738349e+88)
(-4.0890464e+90 4.2793634e+89 5.023089e+89)
(-4.0208459e+90 2.9227104e+89 -3.2311941e+88)
(-4.1483114e+90 2.2007344e+89 5.2430048e+89)
(-4.0325263e+90 3.1955295e+89 -2.820562e+88)
(-4.0620157e+90 2.4812674e+89 -2.9461346e+88)
(-4.118451e+90 4.20342e+89 5.1494134e+89)
(-4.1443612e+90 2.4071966e+89 5.4378224e+89)
(-3.8960149e+90 3.0168555e+89 -2.3865888e+89)
(-4.038839e+90 3.52093e+89 1.6320002e+89)
(-3.9339843e+90 2.3160792e+89 -2.391268e+89)
(-4.0719612e+90 2.3280645e+89 1.8652033e+89)
(-4.5897914e+90 2.787258e+89 3.0032312e+89)
(-3.8307294e+90 5.4263554e+89 2.6791132e+88)
(-3.5188501e+90 1.9988138e+89 2.18034e+89)
(-3.5556867e+90 3.0220372e+89 6.1003983e+89)
(-3.501433e+90 1.9084542e+89 1.9030985e+89)
(-3.5820574e+90 1.2217748e+89 6.0421003e+89)
(-3.416425e+90 1.6720818e+89 -3.8490945e+88)
(-3.3898956e+90 1.9692516e+89 -5.1526456e+88)
(-3.5120944e+90 2.3683741e+89 2.9986506e+89)
(-3.5221096e+90 1.3324909e+89 2.9844134e+89)
(-3.407691e+90 2.0874581e+89 1.1711445e+87)
(-3.5137563e+90 2.904823e+89 3.4870376e+89)
(-3.397472e+90 1.9445525e+89 -2.1610433e+88)
(-3.5325636e+90 1.4323099e+89 3.3430349e+89)
(-3.5220812e+90 1.574877e+89 1.7222313e+89)
(-3.5601029e+90 2.6972742e+89 5.5588258e+89)
(-3.5037893e+90 1.833555e+89 1.6430875e+89)
(-3.5734701e+90 1.2166485e+89 5.6676633e+89)
(-3.4254704e+90 1.8285475e+89 -5.306929e+88)
(-3.3943655e+90 2.2684211e+89 -6.1733328e+88)
(-3.5228966e+90 2.5219701e+89 2.8110662e+89)
(-3.5322813e+90 1.6096842e+89 2.842466e+89)
(-3.4030235e+90 1.6855576e+89 -4.2391799e+88)
(-3.5355382e+90 2.4686399e+89 3.0370591e+89)
(-3.3952387e+90 1.9119684e+89 -5.6521894e+88)
(-3.5514206e+90 1.3408898e+89 2.9524781e+89)
(-3.5394421e+90 1.720409e+89 1.6467868e+89)
(-3.5131886e+90 2.0713473e+89 1.6205802e+89)
(-3.5814382e+90 2.8692836e+89 5.463854e+89)
(-3.5830309e+90 1.4811913e+89 5.5881061e+89)
(-3.5748523e+90 2.6938254e+89 5.6473823e+89)
(-3.533254e+90 1.6396007e+89 1.7564784e+89)
(-3.5143442e+90 1.8485581e+89 1.5929987e+89)
(-3.592947e+90 1.2110507e+89 5.6010496e+89)
(-3.3009217e+90 1.5564219e+89 -1.6206261e+89)
(-3.3785363e+90 2.2849524e+89 9.1409236e+88)
(-3.290039e+90 2.0332162e+89 -1.7568691e+89)
(-3.3972186e+90 1.4947099e+89 8.5622732e+88)
(-3.2273378e+90 1.6041294e+89 -1.8437748e+89)
(-3.2232673e+90 1.9341457e+89 -1.9642446e+89)
(-3.3162633e+90 2.2083859e+89 2.2239952e+88)
(-3.3341559e+90 1.5264352e+89 1.5813451e+88)
(-3.2560104e+90 1.7585173e+89 -1.8988885e+89)
(-3.2254506e+90 2.2999167e+89 -2.0234162e+89)
(-3.3352683e+90 2.334371e+89 6.6869781e+87)
(-3.3349284e+90 1.8488003e+89 2.182725e+87)
(-3.3224984e+90 1.7003232e+89 -1.6748259e+89)
(-3.2956629e+90 2.2945906e+89 -1.7780156e+89)
(-3.3838984e+90 2.5342993e+89 6.6378136e+88)
(-3.3857519e+90 1.9042411e+89 6.7154565e+88)
(-3.3128022e+90 1.9483387e+89 -1.1694995e+89)
(-3.3855093e+90 2.737508e+89 1.3625016e+89)
(-3.2981208e+90 2.0365045e+89 -1.3973267e+89)
(-3.4019888e+90 1.5690718e+89 1.2386622e+89)
(-3.2490548e+90 1.5608539e+89 -1.717154e+89)
(-3.2276329e+90 1.9272583e+89 -1.8457678e+89)
(-3.3295635e+90 2.1266378e+89 3.0619753e+88)
(-3.3342754e+90 1.4638105e+89 2.6268738e+88)
(-3.2441043e+90 1.9554716e+89 -1.3719843e+89)
(-3.3380606e+90 2.6036421e+89 7.1875242e+88)
(-3.2357307e+90 1.9238014e+89 -1.5676259e+89)
(-3.3481739e+90 1.5592401e+89 5.7434309e+88)
(-3.3157707e+90 1.5075405e+89 -1.5292528e+89)
(-3.2947902e+90 1.9568322e+89 -1.641259e+89)
(-3.3763214e+90 2.3707431e+89 8.7776192e+88)
(-3.3814443e+90 1.5952358e+89 8.4268138e+88)
(-3.242037e+90 1.7487817e+89 -1.5979759e+89)
(-3.2860599e+90 2.4434595e+89 2.2523398e+88)
(-3.232072e+90 1.899854e+89 -1.8072527e+89)
(-3.2979057e+90 1.5306513e+89 1.1706787e+88)
(-3.2519884e+90 1.3444076e+89 -1.8461978e+89)
(-3.2396408e+90 1.7434538e+89 -1.9882391e+89)
(-3.3210662e+90 1.8448215e+89 -1.6399405e+88)
(-3.3248179e+90 1.3414073e+89 -2.3527007e+88)
(-3.2543616e+90 1.7013833e+89 -1.5195056e+89)
(-3.3241295e+90 2.2631872e+89 1.9482395e+88)
(-3.2477551e+90 1.7542589e+89 -1.7231232e+89)
(-3.3315362e+90 1.4342043e+89 5.610717e+87)
(-3.2430713e+90 1.3546815e+89 -1.9074431e+89)
(-3.2270335e+90 1.8154413e+89 -2.0283947e+89)
(-3.2786131e+90 2.1138077e+89 -2.1562139e+88)
(-3.2828081e+90 1.5255973e+89 -2.5461421e+88)
(-3.300138e+90 1.1971028e+89 -1.5888724e+89)
(-3.341194e+90 1.8228449e+89 -3.95416e+88)
(-3.2901486e+90 1.6895433e+89 -1.7630171e+89)
(-3.3499849e+90 1.3911747e+89 -4.8343875e+88)
(-3.3047765e+90 1.5175208e+89 -1.2125962e+89)
(-3.3512019e+90 2.0977882e+89 -2.964838e+87)
(-3.2929848e+90 1.7048903e+89 -1.420441e+89)
(-3.3583739e+90 1.3775e+89 -1.4249035e+88)
(-3.4627238e+90 1.959716e+89 2.2394255e+88)
(-3.467312e+90 1.255609e+89 1.1093765e+88)
(-4.0135076e+90 2.3545442e+89 -4.3705945e+88)
(-3.4346432e+90 1.5111278e+89 -2.2769955e+89)
(-3.4193847e+90 1.5975456e+89 -2.4551752e+89)
(-3.4684963e+90 1.6424679e+89 -1.1860425e+88)
(-3.4624358e+90 1.2564918e+89 -3.0126818e+88)
(-4.0572836e+90 1.1729494e+89 -6.2411517e+88)
(-3.4185208e+90 1.6391506e+89 -2.8143626e+89)
(-3.4308979e+90 1.1926742e+89 -2.4406863e+89)
(-3.971057e+90 1.6558714e+89 -3.9950717e+89)
(-3.974074e+90 1.23758e+89 -3.5696825e+89)
(-3.4846298e+90 1.7076851e+89 -4.0657387e+88)
(-3.4643038e+90 1.4385653e+89 -5.2921563e+88)
(-4.0775451e+90 1.414831e+89 -1.1960607e+89)
(-3.4264605e+90 1.81952e+89 -2.9865331e+89)
(-3.460624e+90 1.251009e+89 -2.6425822e+89)
(-3.4699996e+90 1.6578632e+89 -2.7705237e+88)
(-3.4648759e+90 1.1795544e+89 -4.7375352e+88)
(-4.0573079e+90 2.1634748e+89 -1.1605111e+89)
(-3.4217584e+90 1.5414969e+89 -2.9688751e+89)
(-3.447733e+90 1.1907187e+89 -2.5951446e+89)
(-3.3005112e+90 1.2441481e+89 -1.7349701e+89)
(-3.3142192e+90 1.7710452e+89 -6.105579e+88)
(-3.2906923e+90 1.6683014e+89 -1.9226014e+89)
(-3.3333057e+90 1.3241742e+89 -6.863553e+88)
(-4.0052996e+90 9.4672133e+88 -4.3024842e+89)
(-3.9897918e+90 1.9083403e+89 -4.5225163e+89)
(-3.326452e+90 1.2865943e+89 -1.7843852e+89)