/*--------------------------------*- C++ -*----------------------------------*\
  =========                 |
  \\      /  F ield         | OpenFOAM: The Open Source CFD Toolbox
   \\    /   O peration     | Website:  https://openfoam.org
    \\  /    A nd           | Version:  7
     \\/     M anipulation  |
\*---------------------------------------------------------------------------*/
FoamFile
{
    version     2.0;
    format      ascii;
    class       volVectorField;
    location    "2000";
    object      UMean;
}
// * * * * * * * * * * * * * * * * * * * * * * * * * * * * * * * * * * * * * //

dimensions      [0 1 -1 0 0 0 0];

internalField   nonuniform List<vector> 
34378
(
(-2.6372273e+88 1.932464e+87 2.2106142e+87)
(-2.4848048e+88 3.0332275e+87 -6.4965055e+86)
(-2.5173205e+88 1.0156683e+87 3.6252506e+87)
(-2.6886803e+88 1.409162e+87 2.3279161e+87)
(-2.7794476e+88 1.216511e+87 3.0470662e+87)
(-2.5132657e+88 1.806659e+87 3.3337002e+87)
(-2.7202408e+88 9.9245254e+86 2.0447512e+87)
(-2.4868995e+88 1.7169521e+87 -3.0690816e+87)
(-2.0201429e+88 2.6117894e+87 5.3003861e+85)
(-2.4470615e+88 8.5275545e+86 -2.9344143e+87)
(-1.9310158e+88 9.2224541e+86 -6.4705173e+85)
(-2.4484466e+88 2.419474e+87 -6.9449745e+86)
(-2.1211366e+88 6.7662834e+86 2.8707264e+87)
(-2.1245613e+88 7.87566e+86 2.6484126e+87)
(-2.6175668e+88 4.690201e+86 3.0802338e+87)
(-2.5958552e+88 1.0247621e+87 3.1951186e+87)
(-2.5157696e+88 1.6907108e+87 3.3893525e+87)
(-2.5052516e+88 8.9775848e+86 3.58655e+87)
(-2.7820611e+88 1.0281624e+87 2.9636342e+87)
(-2.7663556e+88 8.3192401e+86 2.7930678e+87)
(-2.1094224e+88 7.0492396e+86 2.5963371e+87)
(-2.5825122e+88 9.5656485e+86 2.7869384e+87)
(-2.8534125e+88 9.6668023e+86 1.0559096e+87)
(-2.7347996e+88 6.6659883e+86 -5.9844813e+86)
(-3.4119047e+88 9.8546216e+86 -5.0686348e+86)
(-2.4674764e+88 7.5226156e+86 1.8188048e+87)
(-2.4768716e+88 2.8740925e+86 1.8943444e+87)
(-2.4756593e+88 7.5040008e+86 2.086222e+87)
(-2.7178067e+88 5.6864191e+86 1.7970444e+87)
(-2.7468497e+88 9.1057614e+86 2.0205622e+87)
(-2.2794096e+88 5.6707639e+86 -2.730114e+87)
(-2.3983753e+88 6.6627527e+86 -2.4171917e+87)
(-2.4136075e+88 3.7053035e+86 -2.4283446e+87)
(-1.417695e+88 5.7751434e+86 1.2535423e+86)
(-1.8757576e+88 5.4356472e+86 -3.5073258e+87)
(-2.4613679e+88 1.5224743e+87 -2.925106e+87)
(-2.4198027e+88 3.0326171e+86 -2.4449802e+87)
(-2.3886344e+88 7.5662634e+86 -2.3652851e+87)
(-2.2750875e+88 6.1888002e+86 -2.7171926e+87)
(-2.2821881e+88 5.9198602e+86 -2.6983611e+87)
(-1.8533982e+88 5.877397e+86 -3.4437598e+87)
(-1.8698753e+88 7.8259349e+86 -3.4585753e+87)
(-1.4037159e+88 5.5589826e+86 1.4737305e+86)
(-1.9429264e+88 2.2755054e+87 -1.6431601e+86)
(-1.418319e+88 1.3662409e+87 1.4425503e+86)
(-2.4542499e+88 7.6543016e+86 -2.9019621e+87)
(-1.9396868e+88 8.4514961e+86 -1.2462628e+86)
(-1.7950374e+88 3.8590684e+86 2.2969644e+87)
(-1.794555e+88 3.8454404e+86 2.1052953e+87)
(-2.1199204e+88 8.6360127e+86 2.6406323e+87)
(-2.2850776e+88 2.8099314e+86 2.6960323e+87)
(-2.2824055e+88 7.2102806e+86 2.8349282e+87)
(-1.785929e+88 3.8149122e+86 2.0714755e+87)
(-1.7872404e+88 4.5789029e+86 2.0713706e+87)
(-2.2869783e+88 2.2076139e+86 2.5517936e+87)
(-2.2857033e+88 5.7291413e+86 2.5656135e+87)
(-2.5880997e+88 3.5880999e+86 2.9030702e+87)
(-2.5687213e+88 8.5101421e+86 2.7729781e+87)
(-2.1004485e+88 6.7419964e+86 2.5419336e+87)
(-2.1140595e+88 6.9719207e+86 2.7866204e+87)
(-2.5815927e+88 1.0202233e+87 3.0774151e+87)
(-2.1370093e+88 7.9336143e+86 2.7187079e+87)
(-2.609408e+88 3.9939088e+86 3.0660488e+87)
(-1.7847293e+88 4.1440599e+86 2.1261536e+87)
(-1.7859676e+88 5.0453255e+86 1.9748199e+87)
(-2.2815204e+88 7.2509028e+86 2.5543667e+87)
(-2.2843677e+88 3.5287894e+86 2.459522e+87)
(-2.7604752e+88 4.9759826e+86 -7.3390675e+86)
(-2.878353e+88 9.5136295e+86 1.0673225e+87)
(-2.8698532e+88 4.9102247e+86 9.4676351e+86)
(-2.591673e+88 7.2316531e+86 1.5970693e+87)
(-2.601554e+88 3.341738e+86 1.4403656e+87)
(-2.5037921e+88 3.3305946e+86 -9.7073426e+85)
(-2.5019144e+88 5.055905e+86 1.1518778e+86)
(-2.5291992e+88 5.0709527e+86 -3.8052546e+86)
(-2.449087e+88 3.5553741e+86 -1.0232145e+87)
(-2.4600583e+88 2.1764582e+86 -1.238762e+87)
(-2.5388698e+88 2.9470995e+86 -5.7642324e+86)
(-2.773806e+88 7.8330248e+86 -4.570614e+86)
(-2.5540389e+88 4.8131528e+86 -6.1506882e+86)
(-2.484186e+88 3.2415938e+86 -1.2821277e+87)
(-2.7476455e+88 3.0514518e+86 -6.5198062e+86)
(-2.5445233e+88 5.9310157e+86 -1.4211799e+87)
(-2.4697118e+88 2.1567005e+86 -1.4542588e+87)
(-2.3459146e+88 4.4959057e+86 -1.3502472e+86)
(-2.3278447e+88 6.7819277e+86 1.1698198e+85)
(-2.2833456e+88 5.2982803e+86 -6.2539255e+86)
(-2.3194195e+88 5.9248716e+86 -7.2062071e+86)
(-2.5075717e+88 5.2613796e+86 -9.3877681e+85)
(-2.5886419e+88 7.0956934e+86 1.3158886e+87)
(-2.1611607e+88 2.0739386e+86 1.6124095e+87)
(-2.1603366e+88 5.5046524e+86 1.6965703e+87)
(-2.1671562e+88 4.7631013e+86 1.7023358e+87)
(-2.1602411e+88 1.2888384e+86 1.6821683e+87)
(-2.1609937e+88 1.0872562e+86 1.7870502e+87)
(-2.1615336e+88 5.4968799e+86 1.917485e+87)
(-2.4580786e+88 2.1077375e+86 1.9343137e+87)
(-2.4567777e+88 6.9257589e+86 1.8079277e+87)
(-2.4634284e+88 7.7206731e+86 2.041542e+87)
(-2.4847086e+88 2.4340834e+86 1.9957933e+87)
(-2.8357686e+88 9.4984332e+86 -2.4151607e+87)
(-2.8280821e+88 8.9367082e+86 -2.4489379e+87)
(-2.4253675e+88 6.1681866e+86 -3.1233904e+87)
(-2.3600529e+88 5.5845639e+86 -1.8561752e+87)
(-2.3626321e+88 1.8837299e+86 -1.8360827e+87)
(-1.1383738e+88 3.9748248e+86 -3.348079e+87)
(-1.1522846e+88 5.2162061e+86 -3.3566721e+87)
(-9.9721636e+87 1.8613802e+86 8.329128e+86)
(-1.0043085e+88 8.3741273e+86 8.2437636e+86)
(-1.9602612e+88 2.3990997e+86 -3.1791479e+87)
(-1.9473339e+88 5.0275011e+86 -3.1542312e+87)
(-1.6467852e+88 3.8852888e+86 -3.7213982e+87)
(-1.6366987e+88 4.4390514e+86 -3.7540487e+87)
(-2.292592e+88 5.860293e+86 -2.7286961e+87)
(-2.4071732e+88 6.6441598e+86 -2.3432061e+87)
(-2.4084211e+88 2.6603061e+86 -2.3262443e+87)
(-2.282735e+88 6.0861356e+86 -2.6539906e+87)
(-2.3855062e+88 1.7120831e+86 -1.8487073e+87)
(-2.3499997e+88 6.0507723e+86 -1.830894e+87)
(-2.4185552e+88 6.3685857e+86 -3.0898175e+87)
(-2.4208521e+88 4.7188435e+86 -3.0637891e+87)
(-1.8669278e+88 8.5463127e+86 -3.4234526e+87)
(-1.9546985e+88 2.2690075e+86 -3.1503236e+87)
(-1.9427405e+88 5.1939814e+86 -3.1277391e+87)
(-1.6287397e+88 4.68722e+86 -3.7486467e+87)
(-1.6386019e+88 3.5863194e+86 -3.7031259e+87)
(-1.9511685e+88 1.860736e+86 -3.1342094e+87)
(-1.9457728e+88 4.3920572e+86 -3.0975126e+87)
(-1.640488e+88 3.5312336e+86 -3.7351532e+87)
(-1.632834e+88 4.1109771e+86 -3.6882118e+87)
(-1.1225068e+88 4.4031951e+86 -3.329398e+87)
(-1.1383732e+88 4.8408355e+86 -3.3167497e+87)
(-9.8893581e+87 1.8580197e+86 8.4357639e+86)
(-1.3998693e+88 1.4623383e+87 2.5909225e+85)
(-9.9964949e+87 7.2135152e+86 8.5226635e+86)
(-1.4105849e+88 5.5993881e+86 -1.8260503e+85)
(-1.8754917e+88 5.7062084e+86 -3.4813798e+87)
(-1.1346816e+88 3.8086356e+86 -3.2760533e+87)
(-1.1401607e+88 4.8148117e+86 -3.3494074e+87)
(-9.8963846e+87 7.6715131e+86 7.4328846e+86)
(-9.9458511e+87 1.8062543e+86 8.405973e+86)
(-2.2803581e+88 6.3296752e+86 -2.6815283e+87)
(-2.3946637e+88 7.5200195e+86 -2.3474114e+87)
(-2.4221289e+88 3.3772096e+86 -2.3874869e+87)
(-2.2915141e+88 6.4458814e+86 -2.6602218e+87)
(-1.8602267e+88 5.9578763e+86 -3.4391874e+87)
(-1.8780481e+88 8.6877412e+86 -3.4506066e+87)
(-1.415756e+88 1.3979191e+87 9.0382283e+85)
(-1.3958586e+88 5.3434823e+86 5.3226319e+85)
(-1.7972967e+88 5.0666024e+86 2.1197648e+87)
(-1.5571857e+88 2.1977508e+86 2.1101631e+87)
(-1.5576654e+88 1.9622217e+86 2.0000056e+87)
(-1.9738745e+88 1.9286962e+86 2.5245549e+87)
(-1.9663358e+88 4.7653861e+86 2.5650439e+87)
(-1.5530189e+88 1.5414926e+86 1.9625202e+87)
(-1.5634936e+88 2.4936865e+86 2.037223e+87)
(-1.9738865e+88 9.3389572e+85 2.4299605e+87)
(-1.9722853e+88 3.0861191e+86 2.4021771e+87)
(-1.7981233e+88 4.737089e+86 2.0963962e+87)
(-2.2871105e+88 5.8272773e+86 2.5798585e+87)
(-2.2809665e+88 2.1042675e+86 2.5834379e+87)
(-1.5477718e+88 1.7826494e+86 2.0142143e+87)
(-1.5478086e+88 2.4276933e+86 1.8980425e+87)
(-1.9689694e+88 4.2300741e+86 2.4068588e+87)
(-1.9708563e+88 2.0401572e+86 2.3433585e+87)
(-1.5545869e+88 2.6949158e+86 1.9817235e+87)
(-1.5501596e+88 3.1882601e+86 1.9863448e+87)
(-1.9681604e+88 1.3179549e+86 2.377739e+87)
(-1.9733604e+88 3.615973e+86 2.3751931e+87)
(-1.7714312e+88 3.8316464e+86 2.0278215e+87)
(-1.7870846e+88 4.6093899e+86 1.960104e+87)
(-2.2564296e+88 6.5399282e+86 2.4570375e+87)
(-2.2735351e+88 2.9529289e+86 2.4375159e+87)
(-1.7898198e+88 4.1731126e+86 2.1757457e+87)
(-1.7962972e+88 4.2854743e+86 2.0678203e+87)
(-2.280603e+88 3.1688231e+86 2.6328643e+87)
(-2.2669095e+88 7.5637613e+86 2.6644622e+87)
(-2.2904291e+88 5.7371269e+86 2.6158029e+87)
(-1.8018955e+88 3.8518261e+86 2.1211028e+87)
(-1.8057667e+88 4.4497165e+86 2.1504433e+87)
(-2.2884099e+88 1.8222585e+86 2.6120295e+87)
(-1.5463297e+88 2.4132421e+86 2.0235372e+87)
(-1.5520243e+88 2.6879914e+86 1.9419858e+87)
(-1.9764122e+88 2.4700721e+86 2.373627e+87)
(-1.9671177e+88 4.7982792e+86 2.4020678e+87)
(-1.546108e+88 2.8322062e+86 1.9112776e+87)
(-1.5490181e+88 4.1697018e+86 1.9455696e+87)
(-1.9684584e+88 2.2515302e+86 2.2933933e+87)
(-1.9707765e+88 4.14571e+86 2.2787709e+87)
(-2.471024e+88 2.1990128e+86 -9.8588631e+86)
(-2.5433131e+88 2.3011217e+86 -3.8222716e+86)
(-2.5136972e+88 4.7555877e+86 -7.0470983e+86)
(-2.4594511e+88 3.6966645e+86 -1.3027718e+87)
(-2.5144805e+88 2.9548734e+86 5.3003447e+85)
(-2.5029144e+88 5.2747089e+86 1.0535287e+86)
(-2.5738654e+88 7.1204595e+86 1.5082544e+87)
(-2.6144391e+88 2.8312223e+86 1.544629e+87)
(-2.4810371e+88 5.2590169e+86 -1.1241774e+86)
(-2.5712198e+88 6.7317974e+86 1.2972216e+87)
(-2.5768708e+88 2.4052987e+86 1.4465585e+87)
(-2.5008783e+88 2.6516827e+86 9.2269731e+85)
(-2.277168e+88 5.6516954e+86 1.8947977e+87)
(-2.1855251e+88 1.4291627e+86 7.4279074e+86)
(-2.1875102e+88 4.1966278e+86 8.274341e+86)
(-2.2807964e+88 1.573625e+86 1.8113217e+87)
(-2.1855337e+88 2.1077926e+86 6.3974931e+86)
(-2.1833137e+88 3.7160877e+86 6.2114288e+86)
(-2.283959e+88 1.6083811e+86 1.7163868e+87)
(-2.2863875e+88 4.7650569e+86 1.7128457e+87)
(-2.2129619e+88 3.5333428e+86 1.4832353e+86)
(-2.1412068e+88 2.6977367e+86 -4.9569642e+86)
(-2.1435726e+88 2.4704123e+86 -4.7119738e+86)
(-2.216536e+88 2.1216365e+86 1.7329292e+86)
(-2.2161558e+88 4.1918246e+86 3.6984135e+86)
(-2.1427474e+88 2.0736319e+86 -3.6229853e+86)
(-2.1347687e+88 2.9966112e+86 -3.1496591e+86)
(-2.2181357e+88 1.8703384e+86 2.9944248e+86)
(-2.163159e+88 3.0130202e+86 -4.4306417e+86)
(-2.1361926e+88 2.4357524e+86 -8.1215153e+86)
(-2.127459e+88 2.3024319e+86 -7.7765508e+86)
(-2.1741343e+88 2.281325e+86 -4.7043894e+86)
(-2.1873195e+88 2.2664306e+86 -7.9173791e+86)
(-2.1742704e+88 2.4130834e+86 -7.6589463e+86)
(-2.1495585e+88 1.730458e+86 -9.365463e+86)
(-2.1621532e+88 2.0436208e+86 -9.6199384e+86)
(-2.472588e+88 3.8255437e+86 -1.0782535e+87)
(-2.175902e+88 2.370798e+86 -1.0987435e+87)
(-2.1708714e+88 1.3638193e+86 -1.1354032e+87)
(-2.1893736e+88 2.1115471e+86 -9.551569e+86)
(-2.4910701e+88 1.455546e+86 -1.2775724e+87)
(-2.1947013e+88 2.419312e+86 -9.2101734e+86)
(-2.1449497e+88 2.5796383e+86 -9.1337276e+86)
(-2.1398199e+88 2.1178174e+86 -9.4332372e+86)
(-2.166079e+88 2.6666805e+86 -6.4531442e+86)
(-2.1702341e+88 2.4439011e+86 -6.150742e+86)
(-2.4173167e+88 1.5140588e+85 -1.8006776e+87)
(-2.4347234e+88 3.1985188e+86 -1.4432379e+87)
(-2.1789815e+88 3.3825784e+86 -5.7622988e+86)
(-2.1497349e+88 3.2117792e+86 -9.6287637e+86)
(-2.152802e+88 2.7673636e+86 -8.961125e+86)
(-2.1807719e+88 2.9906442e+86 -6.1981661e+86)
(-2.1815284e+88 3.0024128e+86 -1.1631639e+87)
(-2.187524e+88 2.1860875e+86 -1.0768496e+87)
(-2.1991184e+88 2.9495659e+86 -9.701663e+86)
(-2.1993474e+88 2.8815239e+86 -9.1465321e+86)
(-2.5346605e+88 3.136498e+86 -1.3192501e+87)
(-2.4934182e+88 2.718082e+86 -1.2757634e+87)
(-2.4283708e+88 2.4088244e+86 -1.8900143e+87)
(-2.4136269e+88 2.1285182e+86 -1.7444358e+87)
(-2.2802694e+88 3.3453048e+86 -2.1395761e+87)
(-2.5101136e+88 4.0126722e+86 -1.3669647e+87)
(-2.8028638e+88 8.4317119e+86 -8.9870104e+86)
(-2.2455609e+88 3.1549741e+84 -2.2438481e+87)
(-2.4929759e+88 7.8963465e+85 -1.7810248e+87)
(-2.4501202e+88 6.6910405e+86 -2.8149894e+87)
(-2.4448246e+88 1.3714592e+86 -2.830618e+87)
(-2.7882367e+88 2.4383021e+86 -9.5401e+86)
(-2.5122236e+88 2.8720122e+86 -1.8255121e+87)
(-2.2198106e+88 2.332879e+86 -2.2855996e+87)
(-2.226354e+88 1.5556334e+85 -2.2227238e+87)
(-2.491926e+88 1.7836486e+86 -1.6935054e+87)
(-2.2237416e+88 4.6543026e+86 2.2840266e+86)
(-2.1484122e+88 2.9925213e+86 -4.7727892e+86)
(-2.1484063e+88 3.5720746e+86 -4.1657174e+86)
(-2.2243611e+88 2.8511849e+86 1.6506326e+86)
(-2.2736736e+88 5.6753209e+86 1.6690417e+87)
(-2.191136e+88 2.5821268e+86 6.2238315e+86)
(-2.1943904e+88 4.7008526e+86 6.9735449e+86)
(-2.2808986e+88 2.517707e+86 1.6269778e+87)
(-1.8650975e+88 3.9326399e+86 1.6743826e+87)
(-1.859943e+88 1.7140028e+86 1.6851828e+87)
(-1.8657061e+88 1.2959912e+86 1.7204766e+87)
(-1.8596041e+88 3.8197884e+86 1.777157e+87)
(-1.8571577e+88 3.1276601e+86 1.7407695e+87)
(-1.8608053e+88 8.0962376e+85 1.6772031e+87)
(-1.8660731e+88 3.403814e+86 1.7511131e+87)
(-1.8587815e+88 7.7214891e+85 1.7552746e+87)
(-1.8638723e+88 2.6746273e+86 1.7607728e+87)
(-1.8617481e+88 1.4347138e+85 1.7820219e+87)
(-1.8587744e+88 3.6402518e+86 1.8905842e+87)
(-1.8631669e+88 4.7180856e+85 1.8226812e+87)
(-2.157022e+88 1.4339307e+86 1.7867424e+87)
(-2.1666554e+88 5.3611761e+86 1.7555045e+87)
(-2.142754e+88 4.9156272e+86 1.6413582e+87)
(-2.1529186e+88 1.7483648e+86 1.5944987e+87)
(-2.1561106e+88 1.588554e+86 1.7631019e+87)
(-2.149747e+88 5.8827483e+86 1.8226621e+87)
(-2.1750533e+88 5.0850395e+86 1.7768961e+87)
(-2.1671627e+88 1.0400371e+86 1.7759364e+87)
(-2.8375903e+88 8.9716791e+86 -2.3657668e+87)
(-2.8251538e+88 7.9288289e+86 -2.3384772e+87)
(-2.8689177e+88 7.7308155e+86 -1.2967361e+87)
(-2.860678e+88 6.5737339e+86 -1.3029629e+87)
(-2.481966e+88 4.8995093e+86 -2.5754617e+87)
(-1.9713623e+88 1.6189687e+86 -3.2783684e+87)
(-1.9618044e+88 4.8417228e+86 -3.2981018e+87)
(-2.4572192e+88 4.9669245e+86 -1.3643788e+87)
(-2.4715783e+88 2.0733748e+86 -1.376002e+87)
(-1.1842135e+88 3.0283639e+86 -3.4734406e+87)
(-1.1844155e+88 1.8344404e+86 -3.4354153e+87)
(-8.5328198e+87 3.2554779e+86 -3.8204473e+87)
(-8.5489984e+87 2.3109232e+86 -3.7397104e+87)
(-1.188044e+88 2.7321952e+86 -3.4181991e+87)
(-1.1880259e+88 1.8115364e+86 -3.455339e+87)
(-8.5571377e+87 3.0085377e+86 -3.7334189e+87)
(-8.6258135e+87 2.6592287e+86 -3.7718771e+87)
(-6.698242e+87 3.1479944e+86 -1.120656e+87)
(-6.7871282e+87 3.4343679e+86 -1.0195869e+87)
(-9.7031644e+87 2.5110979e+86 1.4231081e+87)
(-9.5301301e+87 1.1257817e+85 1.3670359e+87)
(-9.6881866e+87 1.0392861e+86 1.4436159e+87)
(-9.6137475e+87 4.5334897e+86 1.375704e+87)
(-6.8311562e+87 3.5909133e+86 -9.3092827e+86)
(-6.6920299e+87 4.1243254e+86 -1.2321608e+87)
(-1.7250303e+88 3.4707393e+86 -4.0486317e+87)
(-1.7168884e+88 4.2537755e+86 -4.0716333e+87)
(-2.4372935e+88 6.3743179e+86 -3.14333e+87)
(-2.3902137e+88 5.7202303e+86 -1.8536885e+87)
(-2.3646331e+88 1.175474e+86 -1.8116649e+87)
(-2.4239627e+88 4.603318e+86 -3.0230263e+87)
(-2.5068057e+88 2.2089109e+86 -1.4728203e+87)
(-2.4486169e+88 5.183611e+86 -1.3376088e+87)
(-2.480764e+88 5.3134057e+86 -2.5796771e+87)
(-1.9570008e+88 4.8235207e+86 -3.2722015e+87)
(-1.9634537e+88 1.488187e+86 -3.2562155e+87)
(-2.4869972e+88 3.8587023e+86 -2.5278324e+87)
(-1.9596041e+88 4.5894821e+86 -3.2471552e+87)
(-1.9624474e+88 1.3147721e+86 -3.2665775e+87)
(-1.9532227e+88 4.5850621e+86 -3.0724622e+87)
(-1.9590158e+88 2.2379165e+86 -3.1043582e+87)
(-1.6432698e+88 3.9377093e+86 -3.7252024e+87)
(-1.6369046e+88 4.3938657e+86 -3.6691471e+87)
(-1.7077301e+88 4.264721e+86 -4.0482382e+87)
(-1.718886e+88 3.3629025e+86 -4.0240786e+87)
(-1.721242e+88 3.3636809e+86 -4.0488815e+87)
(-1.7149203e+88 4.1800895e+86 -4.0146467e+87)
(-1.1372992e+88 5.3500852e+86 -3.3421451e+87)
(-1.1766333e+88 3.2116371e+86 -3.4586889e+87)
(-1.1782804e+88 1.847166e+86 -3.4173083e+87)
(-8.4053854e+87 3.5976496e+86 -3.8268595e+87)
(-8.4488977e+87 2.3706221e+86 -3.7520488e+87)
(-1.1821718e+88 2.5764419e+86 -3.3935398e+87)
(-1.1826955e+88 1.4971275e+86 -3.4278074e+87)
(-8.4606534e+87 2.9829581e+86 -3.7566438e+87)
(-8.5405899e+87 2.2651599e+86 -3.7903949e+87)
(-6.5261147e+87 3.6000875e+86 -1.1856865e+87)
(-6.7118467e+87 3.4137231e+86 -1.0247337e+87)
(-9.5339941e+87 8.7800693e+84 1.3185261e+87)
(-9.7067772e+87 1.8093298e+86 1.4020647e+87)
(-9.8535045e+87 8.4588754e+86 7.0979396e+86)
(-1.1356162e+88 4.458751e+86 -3.2617176e+87)
(-9.961938e+87 3.1863364e+86 8.51047e+86)
(-6.7661032e+87 3.5157782e+86 -9.4241083e+86)
(-9.6749763e+87 -8.1291026e+84 1.3940116e+87)
(-9.7150997e+87 2.8264018e+86 1.4102876e+87)
(-6.7047506e+87 3.5617644e+86 -1.1533532e+87)
(-1.1422005e+88 4.1305515e+86 -3.3792964e+87)
(-1.1513619e+88 5.1932458e+86 -3.3440823e+87)
(-9.8592931e+87 1.8060667e+86 6.9212799e+86)
(-9.9907574e+87 7.9979987e+86 7.3231206e+86)
(-1.9671807e+88 2.5032041e+86 -3.1814682e+87)
(-1.9596229e+88 5.4318483e+86 -3.1813043e+87)
(-1.6497189e+88 3.7120188e+86 -3.7294268e+87)
(-1.6479096e+88 4.700247e+86 -3.7885473e+87)
(-1.1769117e+88 2.8470855e+86 -3.4062257e+87)
(-1.1789611e+88 1.807388e+86 -3.382917e+87)
(-8.4200911e+87 3.1114837e+86 -3.7975771e+87)
(-8.5026183e+87 2.4264737e+86 -3.7222617e+87)
(-1.1867632e+88 2.6523509e+86 -3.4082864e+87)
(-1.1859176e+88 1.6122733e+86 -3.4551266e+87)
(-8.5490847e+87 3.0608022e+86 -3.7439658e+87)
(-8.6010601e+87 2.4010137e+86 -3.7939283e+87)
(-6.8400697e+87 3.8770921e+86 -9.2127896e+86)
(-6.6629873e+87 3.7677217e+86 -1.2260514e+87)
(-9.7465447e+87 1.2358765e+86 1.4537562e+87)
(-9.5609398e+87 3.5416077e+86 1.3339349e+87)
(-6.6504162e+87 3.1761933e+86 -1.0519668e+87)
(-9.6041071e+87 -3.4441921e+85 1.3488308e+87)
(-6.7870153e+87 3.812506e+86 -9.7737375e+86)
(-9.7342915e+87 2.6111156e+86 1.4105994e+87)
(-2.4272459e+88 6.4860985e+86 -3.0695948e+87)
(-2.3581207e+88 5.9618503e+86 -1.833683e+87)
(-2.3792413e+88 1.6970203e+86 -1.8202737e+87)
(-2.4320325e+88 5.1160854e+86 -3.0376184e+87)
(-1.9562199e+88 2.6882009e+86 -3.1471707e+87)
(-1.9464198e+88 5.3930282e+86 -3.1283932e+87)
(-1.6423768e+88 3.9862007e+86 -3.7027577e+87)
(-1.6334755e+88 4.7265473e+86 -3.7426284e+87)
(-1.9569586e+88 2.580042e+86 -3.1343132e+87)
(-1.9547391e+88 4.9196311e+86 -3.1079131e+87)
(-1.6462872e+88 4.0325619e+86 -3.7449426e+87)
(-1.6424522e+88 4.4935983e+86 -3.6976055e+87)
(-1.1390294e+88 4.2231296e+86 -3.2945866e+87)
(-9.9646318e+87 2.0856748e+86 8.0669371e+86)
(-1.141463e+88 5.1293091e+86 -3.3452709e+87)
(-9.9166206e+87 7.700793e+86 7.6675346e+86)
(-1.1257654e+88 4.1487938e+86 -3.3296572e+87)
(-9.7912531e+87 1.623318e+86 7.5925556e+86)
(-1.1415885e+88 5.1512825e+86 -3.3179884e+87)
(-9.9315427e+87 7.4622092e+86 7.5976369e+86)
(-1.5667744e+88 3.3856183e+86 1.9972953e+87)
(-1.5674243e+88 3.7333547e+86 2.0372085e+87)
(-1.9735061e+88 1.5809451e+86 2.4280091e+87)
(-1.9773006e+88 3.9562983e+86 2.4099171e+87)
(-1.3579073e+88 1.6462855e+86 2.0026604e+87)
(-1.3574155e+88 9.8866172e+85 2.0954119e+87)
(-1.7126763e+88 3.1218183e+86 2.190184e+87)
(-1.7226649e+88 1.1466389e+86 2.2341224e+87)
(-1.3512884e+88 1.6331201e+86 2.0111514e+87)
(-1.3503408e+88 1.7468146e+85 1.9789712e+87)
(-1.7233043e+88 1.7357717e+86 2.1233997e+87)
(-1.7236365e+88 1.5035522e+85 2.120917e+87)
(-1.3487295e+88 1.4195283e+86 1.9441045e+87)
(-1.3433037e+88 -4.3627331e+85 2.0140384e+87)
(-1.722394e+88 2.2310913e+86 2.1181664e+87)
(-1.7248264e+88 8.6675603e+85 2.0937442e+87)
(-1.3496391e+88 1.9036764e+86 2.0115091e+87)
(-1.3444048e+88 3.9122827e+85 1.9535902e+87)
(-1.7269273e+88 1.8487793e+86 2.1639981e+87)
(-1.7221683e+88 5.44787e+83 2.1277376e+87)
(-1.5637038e+88 2.8939026e+86 2.0273706e+87)
(-1.5636261e+88 3.5072544e+86 1.9168965e+87)
(-1.980819e+88 2.7199735e+86 2.3567963e+87)
(-1.9753653e+88 4.9148351e+86 2.3984966e+87)
(-1.3551409e+88 1.6965561e+86 1.9885108e+87)
(-1.3552999e+88 1.8273024e+85 2.0738437e+87)
(-1.7105872e+88 2.5893195e+86 2.0932714e+87)
(-1.7232379e+88 9.9114986e+85 2.1478618e+87)
(-1.336317e+88 4.4234363e+85 1.9112347e+87)
(-1.3377923e+88 2.2606855e+86 1.9519781e+87)
(-1.71815e+88 2.1437251e+86 2.0253792e+87)
(-1.717835e+88 6.2771924e+85 2.0338215e+87)
(-1.3493147e+88 2.5881675e+86 1.9611895e+87)
(-1.3459493e+88 6.0318293e+85 2.0317305e+87)
(-1.7236721e+88 3.0777569e+86 2.1140401e+87)
(-1.7277186e+88 1.7389776e+86 2.1232995e+87)
(-1.3462223e+88 2.4854331e+86 2.0328866e+87)
(-1.3410526e+88 1.7067779e+86 1.9618917e+87)
(-1.7186715e+88 2.7632802e+86 2.1199858e+87)
(-1.7169005e+88 7.2746528e+85 2.1244503e+87)
(-1.5433557e+88 1.946388e+86 1.9684407e+87)
(-1.5450438e+88 2.3327396e+86 1.8826352e+87)
(-1.951734e+88 4.3205908e+86 2.361054e+87)
(-1.9607268e+88 1.8093298e+86 2.3274604e+87)
(-1.5491459e+88 2.2190429e+86 1.9100012e+87)
(-1.5451309e+88 3.2033642e+86 1.8823242e+87)
(-1.9620295e+88 1.7640756e+86 2.2637406e+87)
(-1.9708236e+88 3.5715024e+86 2.2873788e+87)
(-1.8120549e+88 5.3473551e+86 2.1460791e+87)
(-1.5566317e+88 2.2100363e+86 2.021803e+87)
(-1.5596919e+88 2.4325533e+86 1.938105e+87)
(-1.9720287e+88 2.4028106e+86 2.4261016e+87)
(-1.9637887e+88 5.1859538e+86 2.4518719e+87)
(-1.5589556e+88 2.0133788e+86 1.9461048e+87)
(-1.5652484e+88 2.9058626e+86 2.0012365e+87)
(-1.9738499e+88 1.4702914e+86 2.4005611e+87)
(-1.9738135e+88 3.5434975e+86 2.3744038e+87)
(-1.5632802e+88 1.9130135e+86 2.0153737e+87)
(-1.9785524e+88 4.4571153e+86 2.4255408e+87)
(-1.5671722e+88 2.4144538e+86 1.9379438e+87)
(-1.9868804e+88 2.0740563e+86 2.405991e+87)
(-1.5716072e+88 2.3260128e+86 2.009387e+87)
(-1.5671034e+88 2.9575666e+86 2.0232364e+87)
(-1.9784957e+88 9.6470852e+85 2.4482474e+87)
(-1.9844269e+88 3.3598435e+86 2.4460858e+87)
(-1.3452398e+88 2.3138038e+86 1.976432e+87)
(-1.3522139e+88 8.50177e+85 2.1128278e+87)
(-1.7203706e+88 1.4945367e+86 2.1370293e+87)
(-1.7188836e+88 3.353526e+86 2.1843115e+87)
(-1.3522778e+88 2.7341019e+86 2.0198805e+87)
(-1.3406893e+88 1.2353113e+86 1.9432481e+87)
(-1.7243729e+88 2.4764125e+86 2.0539061e+87)
(-1.7277759e+88 1.0393675e+86 2.1004103e+87)
(-1.3400665e+88 8.4879062e+85 1.9976493e+87)
(-1.7216882e+88 3.5012487e+86 2.0655374e+87)
(-1.7227008e+88 2.2013773e+86 2.0483612e+87)
(-1.3450379e+88 3.0853413e+86 1.9340838e+87)
(-1.3369332e+88 2.6832771e+86 1.934363e+87)
(-1.3377821e+88 4.071839e+86 1.9674262e+87)
(-1.7153025e+88 1.8102423e+86 2.061274e+87)
(-1.7216589e+88 3.4582668e+86 2.1015425e+87)
(-2.6824121e+88 4.3158637e+86 -2.6539856e+87)
(-2.186947e+88 2.1893954e+86 -4.7245776e+86)
(-2.5239787e+88 2.0358295e+86 -9.7393913e+86)
(-2.4418974e+88 1.7958323e+86 -1.3793493e+87)
(-2.1839154e+88 2.6276436e+86 -9.0754134e+86)
(-2.1716776e+88 1.9994024e+86 -8.8213032e+86)
(-2.196447e+88 2.9778062e+86 -7.6905628e+86)
(-2.188081e+88 1.9780823e+86 -7.410961e+86)
(-2.1415974e+88 2.2456705e+86 -7.2847666e+86)
(-2.1482402e+88 3.0671695e+86 -7.5557059e+86)
(-2.1765471e+88 3.4537199e+86 -4.7587864e+86)
(-2.1714798e+88 2.1637638e+86 -4.4355267e+86)
(-2.1604111e+88 3.0066036e+86 -6.4099065e+86)
(-2.1366439e+88 3.4314492e+86 -9.7947568e+86)
(-2.1697695e+88 3.1377641e+86 -6.4433924e+86)
(-2.1284291e+88 2.4654708e+86 -9.8145018e+86)
(-2.1735883e+88 3.4598972e+86 -1.1647865e+87)
(-2.1830274e+88 3.374619e+86 -1.0129736e+87)
(-2.2354527e+88 3.7633968e+86 2.9031123e+86)
(-2.1572586e+88 3.0272397e+86 -3.6505101e+86)
(-2.2341645e+88 1.7031465e+86 3.0329397e+86)
(-2.1542461e+88 2.175353e+86 -3.4319222e+86)
(-2.1402124e+88 2.3920947e+86 -3.6759465e+86)
(-2.2035972e+88 4.5317012e+86 3.1710851e+86)
(-2.2101709e+88 2.1835699e+86 2.7742537e+86)
(-2.1827152e+88 1.9241328e+86 7.5605208e+86)
(-2.1808223e+88 4.7328901e+86 8.2356288e+86)
(-2.2624163e+88 5.8647053e+86 1.8075573e+87)
(-2.2741874e+88 2.0559476e+86 1.7788325e+87)
(-2.2008331e+88 4.0119025e+86 7.5135245e+86)
(-2.292785e+88 4.9121703e+86 1.7716886e+87)
(-2.1985572e+88 1.6158683e+86 7.5682813e+86)
(-2.2902208e+88 1.1789563e+86 1.7906312e+87)
(-2.1295339e+88 3.0326823e+86 -4.9467272e+86)
(-2.2032342e+88 4.0143625e+86 1.4701286e+86)
(-2.2142953e+88 2.7834665e+86 1.2362116e+86)
(-2.1391021e+88 3.0272183e+86 -5.1101211e+86)
(-2.1760748e+88 3.9695647e+86 6.2992372e+86)
(-2.2549916e+88 4.9618984e+86 1.6092708e+87)
(-2.1813731e+88 2.3799086e+86 5.9144852e+86)
(-2.2712508e+88 2.2191082e+86 1.6019421e+87)
(-2.1888371e+88 1.8919983e+86 8.146792e+86)
(-2.1926953e+88 4.6344798e+86 7.7822615e+86)
(-2.28139e+88 5.2526146e+86 1.7739694e+87)
(-2.2735067e+88 1.5495048e+86 1.803672e+87)
(-2.1452153e+88 2.1310046e+86 -2.932799e+86)
(-2.2164716e+88 4.2703495e+86 2.8973112e+86)
(-2.1518796e+88 3.6799285e+86 -3.17737e+86)
(-2.2142702e+88 1.8081642e+86 3.3051347e+86)
(-2.5383356e+88 1.2577889e+86 -1.1823913e+87)
(-2.2876537e+88 2.4654726e+85 -2.024907e+87)
(-1.8873499e+88 3.1517166e+86 1.3686905e+87)
(-1.9614983e+88 4.076277e+86 2.0797334e+87)
(-1.8900971e+88 3.6224841e+85 1.310404e+87)
(-1.9703903e+88 8.7696239e+85 2.0399342e+87)
(-1.8643117e+88 1.8749367e+86 2.7670056e+86)
(-1.8630882e+88 4.0700721e+85 2.7797681e+86)
(-1.9337567e+88 2.2419992e+86 8.6921477e+86)
(-1.9350029e+88 2.6655492e+85 8.8025446e+86)
(-1.8596895e+88 2.3881384e+86 3.3914239e+86)
(-1.9301037e+88 3.170875e+86 9.6326063e+86)
(-1.8648879e+88 6.5834599e+85 3.1217264e+86)
(-1.9362219e+88 8.2726644e+85 9.2710592e+86)
(-1.8886666e+88 2.4176511e+86 1.2584037e+87)
(-1.9686807e+88 2.8447991e+86 1.9556564e+87)
(-1.8885905e+88 7.5632979e+84 1.2703192e+87)
(-1.9698875e+88 1.3174313e+85 1.983575e+87)
(-1.8669012e+88 2.5978787e+86 2.3915245e+86)
(-1.862325e+88 1.3186171e+86 2.4221703e+86)
(-1.9352154e+88 2.9871221e+86 8.2029601e+86)
(-1.9347907e+88 1.1498579e+86 8.3834462e+86)
(-1.8543692e+88 1.9260061e+86 1.9581266e+86)
(-1.9270414e+88 2.690434e+86 8.0517395e+86)
(-1.8627796e+88 1.0180782e+86 1.8670046e+86)
(-1.9357231e+88 1.1086193e+86 7.8658134e+86)
(-1.8896263e+88 3.2168499e+86 1.2248353e+87)
(-1.8864032e+88 9.3309122e+85 1.2440887e+87)
(-1.971587e+88 3.4545676e+86 1.9241033e+87)
(-1.9689654e+88 7.223912e+85 1.9568396e+87)
(-1.9616158e+88 3.4739654e+86 1.9113411e+87)
(-1.8825442e+88 2.6905285e+86 1.2014282e+87)
(-1.887109e+88 7.5520628e+85 1.1649509e+87)
(-1.9696244e+88 1.0368989e+86 1.879958e+87)
(-1.802229e+88 1.4966188e+86 -3.9876727e+86)
(-1.869311e+88 1.9614339e+86 8.0043133e+84)
(-1.8103281e+88 1.2676101e+86 -4.0085869e+86)
(-1.8803113e+88 1.2020108e+86 8.2134137e+84)
(-1.7775178e+88 1.2994206e+86 -6.059975e+86)
(-1.7868426e+88 1.3413722e+86 -5.9938373e+86)
(-1.8219464e+88 1.5914108e+86 -4.5370935e+86)
(-1.8325816e+88 1.3640518e+86 -4.5002837e+86)
(-1.7921435e+88 1.9881408e+86 -5.460617e+86)
(-1.7872643e+88 1.6875665e+86 -5.5807152e+86)
(-1.8368785e+88 2.2016536e+86 -4.0432353e+86)
(-1.8337823e+88 1.6763314e+86 -4.0751055e+86)
(-1.8151759e+88 2.2264361e+86 -3.4502151e+86)
(-1.8110212e+88 1.6246393e+86 -3.5120471e+86)
(-1.882031e+88 2.5118422e+86 4.4824289e+85)
(-1.8793626e+88 1.4299244e+86 4.9606771e+85)
(-1.8069765e+88 1.8770009e+86 -2.6996133e+86)
(-1.8744513e+88 2.4172662e+86 1.5121058e+86)
(-1.811033e+88 9.9349622e+85 -2.8599115e+86)
(-1.8815252e+88 9.6834267e+85 1.3567559e+86)
(-1.7861902e+88 1.3953988e+86 -5.0798937e+86)
(-1.7866756e+88 9.019699e+85 -5.166316e+86)
(-1.8320788e+88 1.6245614e+86 -3.5177626e+86)
(-1.8345281e+88 8.842181e+85 -3.5428449e+86)
(-1.7808443e+88 1.6710663e+86 -4.8098585e+86)
(-1.8278421e+88 2.0077421e+86 -3.1170239e+86)
(-1.7859268e+88 1.1369887e+86 -4.8302067e+86)
(-1.8337652e+88 1.1916757e+86 -3.2169803e+86)
(-1.8108124e+88 1.5644144e+86 -3.0501642e+86)
(-1.8114371e+88 7.4723903e+85 -3.1027745e+86)
(-1.8788776e+88 1.8709295e+86 9.330304e+85)
(-1.8799389e+88 5.9885822e+85 9.4828534e+85)
(-1.7680373e+88 1.5555518e+86 -5.7768911e+86)
(-1.8063892e+88 1.8424853e+86 -4.0609141e+86)
(-1.7720276e+88 1.2832391e+86 -5.7491298e+86)
(-1.8129422e+88 1.1761799e+86 -4.0251493e+86)
(-1.7843062e+88 1.0877159e+86 -6.691154e+86)
(-1.7879733e+88 1.1368325e+86 -6.8064323e+86)
(-1.8106833e+88 1.4065889e+86 -5.8026373e+86)
(-1.8141104e+88 1.2033979e+86 -5.8911331e+86)
(-1.7803147e+88 1.37107e+86 -6.5795555e+86)
(-1.8051456e+88 1.6344221e+86 -5.6298024e+86)
(-1.7857e+88 1.3922165e+86 -6.414549e+86)
(-1.8105794e+88 1.383729e+86 -5.5516807e+86)
(-1.7717669e+88 1.3008843e+86 -5.9614869e+86)
(-1.7739314e+88 1.0936563e+86 -6.0856689e+86)
(-1.8120139e+88 1.560902e+86 -4.401871e+86)
(-1.8145794e+88 9.6594553e+85 -4.447494e+86)
(-1.8036292e+88 9.8893806e+85 -6.8778489e+86)
(-1.8252653e+88 1.2725834e+86 -5.9826674e+86)
(-1.8103366e+88 1.0911357e+86 -7.0329518e+86)
(-1.8299446e+88 1.1425947e+86 -6.0755475e+86)
(-1.7999771e+88 1.2814315e+86 -6.8263634e+86)
(-1.819895e+88 1.4992777e+86 -5.8883515e+86)
(-1.8061726e+88 1.4417799e+86 -6.5520628e+86)
(-1.8266424e+88 1.4101974e+86 -5.6596834e+86)
(-1.8575669e+88 1.4103287e+86 -6.6543651e+86)
(-1.8654838e+88 1.4614738e+86 -6.2860843e+86)
(-2.1852438e+88 1.8986818e+86 -8.141724e+86)
(-1.8749611e+88 1.3614296e+86 -8.6900453e+86)
(-1.8833346e+88 1.4027166e+86 -8.2085772e+86)
(-1.8643015e+88 1.2495717e+86 -6.5783947e+86)
(-1.869924e+88 1.113004e+86 -6.8326235e+86)
(-2.2027785e+88 1.8082117e+86 -8.2778979e+86)
(-1.8888128e+88 9.6420103e+85 -8.8309409e+86)
(-1.8787958e+88 1.0892659e+86 -8.7283582e+86)
(-2.184597e+88 1.4961545e+86 -1.0218244e+87)
(-2.1717411e+88 1.4458718e+86 -9.6460783e+86)
(-1.8779856e+88 1.9360016e+86 -6.9749687e+86)
(-1.8738376e+88 1.7821197e+86 -7.3494186e+86)
(-2.2173956e+88 1.8987836e+86 -1.0080284e+87)
(-1.8940716e+88 1.6461899e+86 -9.4545784e+86)
(-1.8958215e+88 1.7935268e+86 -9.0613084e+86)
(-1.8619378e+88 1.151553e+86 -7.766344e+86)
(-1.8720483e+88 1.5537724e+86 -7.900829e+86)
(-2.213156e+88 1.1465063e+86 -1.0448657e+87)
(-1.8920482e+88 1.4745879e+86 -9.9425252e+86)
(-1.8801685e+88 1.0027355e+86 -9.867638e+86)
(-1.801903e+88 9.7176351e+85 -7.8841784e+86)
(-1.8187282e+88 1.0994896e+86 -7.2042165e+86)
(-1.8120166e+88 1.6062102e+86 -7.9522187e+86)
(-1.8306338e+88 1.5249295e+86 -7.13934e+86)
(-2.2002318e+88 4.3629037e+85 -1.2562835e+87)
(-2.2065652e+88 1.8086729e+86 -1.2118223e+87)