/*--------------------------------*- C++ -*----------------------------------*\
  =========                 |
  \\      /  F ield         | OpenFOAM: The Open Source CFD Toolbox
   \\    /   O peration     | Website:  https://openfoam.org
    \\  /    A nd           | Version:  7
     \\/     M anipulation  |
\*---------------------------------------------------------------------------*/
FoamFile
{
    version     2.0;
    format      ascii;
    class       volScalarField;
    location    "4000";
    object      nut;
}
// * * * * * * * * * * * * * * * * * * * * * * * * * * * * * * * * * * * * * //

dimensions      [0 2 -1 0 0 0 0];

internalField   nonuniform List<scalar> 
34387
(
1.7035149e-25
2.1929776e-25
2.6401932e-25
2.3739943e-25
8.257413e-26
1.9170126e-25
2.0100595e-25
2.0654495e-25
2.9704855e-25
2.8456993e-25
2.6503292e-25
4.0246489e-25
3.6353564e-25
3.9576564e-25
3.6696124e-25
3.636883e-25
3.2171781e-25
4.0495297e-25
3.475141e-25
3.229465e-25
3.7159613e-25
7.9511323e-25
2.347471e-25
4.7507167e-25
3.1694328e-25
3.3848461e-25
3.4360704e-25
3.1670698e-25
3.1386761e-25
1.6187841e-25
1.1535546e-25
1.3386841e-25
1.3070179e-25
1.6273351e-25
1.631696e-25
2.7447375e-25
2.4064035e-25
2.8021733e-25
2.0669686e-25
3.1807775e-25
3.7672261e-25
4.3211668e-25
4.8238891e-25
4.8934335e-25
3.4938605e-25
4.0246173e-25
4.3241002e-25
4.849396e-25
4.3021933e-25
3.4698521e-25
3.8371898e-25
4.6716599e-25
4.2762721e-25
4.4621935e-25
4.1971208e-25
6.2417497e-25
6.2533997e-25
2.8723365e-25
5.3628247e-25
4.4116947e-25
4.5287215e-25
4.9020312e-25
3.3636963e-25
2.0491895e-25
3.5628885e-25
6.1574663e-25
1.7769412e-25
6.0598237e-25
2.6999183e-25
2.0904617e-25
4.0102101e-25
3.2929144e-25
3.4845928e-25
4.0325657e-25
3.4697359e-25
3.1195977e-25
1.3355182e-25
9.8039655e-25
4.313669e-25
4.0187908e-25
4.2802802e-25
3.6417245e-25
3.5673032e-25
7.3232207e-25
5.1075161e-25
3.619341e-25
4.1333632e-25
1.134912e-25
7.5736314e-26
1.0063647e-25
1.0017782e-25
1.0403818e-25
1.1155831e-25
2.1164017e-25
1.6814255e-25
1.4861063e-25
1.8544053e-25
2.277674e-25
2.1706921e-25
2.9776296e-25
2.8312434e-25
3.8654669e-25
3.9988601e-25
3.232171e-25
3.2551216e-25
2.6658747e-25
3.8253515e-25
4.0156102e-25
5.5057794e-25
3.7676368e-25
5.3977453e-25
2.001589e-25
2.2638272e-25
6.9114211e-25
1.490806e-25
4.5614585e-25
4.7488234e-25
4.3179266e-25
5.1787384e-25
5.7750264e-25
5.5108481e-25
5.3975121e-25
4.7358468e-25
5.5281777e-25
9.3092406e-25
7.9081865e-25
7.3908997e-25
5.6098737e-25
7.0960416e-25
6.1863221e-25
5.4854776e-25
6.0574306e-25
6.9864482e-25
6.5791398e-25
7.183875e-25
1.3498858e-25
9.8692533e-25
1.361771e-24
1.5484492e-24
6.5806434e-25
1.0122797e-25
1.1505929e-24
3.3546378e-25
1.0656031e-24
2.5661317e-25
1.4941434e-25
1.8625422e-25
1.1577832e-25
6.5573693e-25
1.6221972e-25
4.2991195e-25
2.7393051e-25
3.1428439e-25
3.3118242e-25
2.4429432e-25
1.6902361e-25
1.8273244e-25
3.2798043e-25
2.6024613e-25
3.3505549e-25
3.6960253e-25
3.65585e-25
3.5187671e-25
4.1524817e-25
3.9832598e-25
3.3134912e-25
1.3858964e-25
7.6863724e-25
4.1111951e-25
4.7157995e-25
4.6064191e-25
4.4760992e-25
3.7096188e-25
4.2099098e-25
5.7843968e-25
3.9042316e-25
3.8208108e-25
3.4963728e-25
2.2249524e-24
5.9060671e-25
5.5899301e-25
4.7956367e-25
5.0001341e-25
4.4578967e-25
7.3221303e-25
6.9080094e-25
7.5155022e-25
1.1015556e-24
1.2638364e-25
8.6607398e-25
2.6229097e-25
1.3376451e-25
9.4824038e-26
7.1028065e-26
9.5759205e-26
8.7955646e-26
8.8666403e-26
9.0167086e-26
2.1748078e-25
1.9838551e-25
1.672096e-25
1.129514e-25
1.1895723e-25
2.261704e-25
2.3037078e-25
1.6484075e-25
1.7548553e-25
3.3096992e-25
2.4939085e-25
1.976626e-25
2.560299e-25
2.8765677e-25
2.7513886e-25
2.3579771e-25
3.1843853e-25
3.3219407e-25
3.7710591e-26
4.8124538e-26
1.2404217e-25
7.0015441e-26
4.4703977e-25
5.5173236e-25
4.1300241e-25
3.6494243e-25
4.3911769e-25
6.0549725e-25
5.8418276e-25
4.9385643e-25
6.4494073e-25
5.9241316e-25
2.1236039e-25
4.0221065e-25
3.2470594e-25
2.6399721e-25
3.0779558e-25
1.1269129e-24
1.7600576e-25
5.9592861e-25
5.9383827e-25
6.9088566e-25
6.2188409e-25
6.4769533e-25
7.2636827e-25
6.7289057e-25
6.4779922e-25
5.3929513e-25
7.0304155e-25
6.8438612e-25
6.4206646e-25
6.6156449e-25
6.6902639e-25
8.1990154e-25
7.1154885e-25
6.7414477e-25
8.0435161e-25
7.4449366e-25
3.5804506e-25
2.60381e-25
4.8006742e-25
1.2075995e-25
4.0874641e-25
1.333809e-24
1.4749892e-25
6.2690392e-25
3.5501862e-24
6.4455331e-25
2.2836158e-25
3.2873489e-25
3.7428417e-25
1.2094768e-25
1.2490365e-25
9.6638874e-26
1.1521506e-24
6.910032e-25
8.7979085e-25
1.0815263e-25
8.6736881e-26
2.407509e-25
1.005638e-24
6.3424297e-25
2.2309056e-25
1.2387207e-25
4.1805982e-25
1.1851555e-25
1.7683302e-25
3.4096791e-25
2.0373903e-25
1.7532257e-25
1.0161731e-25
1.3840171e-25
1.5988275e-25
2.0847071e-25
1.0546132e-25
2.4869418e-25
2.5425154e-25
2.6920774e-25
2.6024293e-25
2.2935647e-25
4.8263098e-25
4.1524124e-25
3.4204859e-25
3.9852883e-25
3.8685134e-25
3.7452223e-25
4.2166787e-25
4.5008889e-25
4.4460721e-25
3.753564e-25
4.4296975e-25
4.2350832e-25
4.971782e-25
5.9317512e-25
4.6103767e-25
6.1918368e-25
4.8548271e-25
3.696132e-25
3.2502075e-25
3.2335285e-25
1.8541884e-24
8.2809316e-25
7.8363555e-25
5.0875007e-25
6.2199934e-25
5.4520809e-25
6.1240436e-25
4.9268479e-25
6.6675385e-25
6.5107482e-25
1.0522884e-24
6.4273526e-25
2.5087654e-25
3.5048581e-25
2.2214942e-25
1.1480145e-24
4.3208672e-24
6.6396269e-25
7.7063405e-25
6.3351255e-25
5.5896649e-25
6.4694165e-25
6.7853369e-25
6.9866978e-25
6.974529e-25
7.1987984e-25
2.7779881e-25
2.610517e-25
2.5571319e-25
1.1519158e-25
1.2609702e-25
1.281175e-24
1.8062265e-25
1.2164506e-25
9.1220867e-26
6.5411697e-26
8.4315709e-26
7.9615559e-26
8.1618565e-26
8.4120754e-26
2.3184605e-25
1.6372142e-25
1.0477635e-25
1.0495808e-25
1.8950431e-25
1.8723963e-25
9.7793616e-26
1.7473289e-25
2.0008328e-25
3.4881661e-25
2.6215873e-25
1.8150839e-25
2.0432989e-25
2.6390467e-25
2.4143287e-25
2.3584657e-25
1.4831045e-25
1.6576156e-25
4.4812964e-26
3.1355802e-26
2.9223313e-26
3.0214383e-26
4.8799314e-25
3.6840447e-25
2.9573222e-25
3.3744482e-25
3.9393022e-25
5.9353946e-25
3.6756902e-25
3.7287177e-25
5.3281606e-25
2.2568451e-25
4.72948e-25
9.1713785e-25
6.1741571e-25
3.8560396e-26
5.2943606e-26
1.7022714e-25
7.8759919e-26
6.5841816e-25
5.329221e-25
7.3715267e-25
5.1924633e-25
5.232614e-25
6.0597145e-25
6.4067377e-25
6.1037958e-25
6.9436176e-25
2.5482574e-25
5.310095e-25
3.8285282e-25
3.3312808e-25
2.501403e-24
2.8730588e-25
1.0994539e-24
5.56028e-25
7.5054399e-25
8.4079212e-25
7.375736e-25
7.0296146e-25
8.1099419e-25
9.2434757e-25
9.160479e-25
8.6048988e-25
8.1924024e-25
9.0558395e-25
8.9619116e-25
8.2023993e-25
8.7124412e-25
8.7081069e-25
9.6115505e-25
8.7191877e-25
1.148368e-24
8.5880088e-25
8.344574e-25
9.1944423e-25
5.6257082e-25
8.8164704e-25
5.3240412e-25
4.9415808e-25
1.0691604e-24
2.2175393e-24
8.3549641e-25
2.0873083e-24
2.0900255e-24
4.6935979e-25
3.9910783e-25
4.2748306e-25
3.0535195e-25
2.1092278e-25
5.2005593e-25
1.2135113e-25
3.7336424e-25
2.0135128e-25
1.3087258e-25
1.5052074e-25
2.043389e-25
7.8088036e-25
1.7936389e-24
2.8036383e-25
4.4520411e-25
2.4778558e-25
1.5716769e-25
1.1251768e-25
1.9450334e-25
1.4511684e-25
1.5157178e-25
3.4755946e-25
9.5632503e-26
1.3802506e-25
7.1870634e-25
4.8656075e-26
2.0113956e-25
1.8015503e-25
1.4429362e-25
1.525616e-25
1.4573899e-25
3.7862928e-25
4.454874e-25
3.1270388e-25
3.412416e-25
3.8415755e-25
3.1997012e-25
3.0711552e-25
3.8016328e-25
4.0297938e-25
6.1534433e-25
7.2730041e-25
4.8182754e-25
4.5544856e-25
4.8221068e-25
4.3651776e-25
5.3939202e-25
4.9815039e-25
5.985215e-25
5.9455254e-25
4.7608262e-25
6.5291904e-25
5.9386691e-25
4.5548771e-25
5.391513e-25
5.8441519e-25
7.1194988e-25
8.4413947e-25
7.8144532e-25
8.7060381e-25
7.9358083e-25
4.1978501e-25
3.780039e-25
7.1772482e-25
1.9668812e-25
8.0292609e-26
1.8098727e-25
5.9653059e-25
6.9573402e-25
3.9131295e-25
9.6568181e-26
2.2213789e-25
1.0647358e-24
3.5958506e-24
2.2500672e-25
2.3360219e-25
7.3526911e-25
8.2811774e-25
6.2546563e-25
7.2518378e-25
6.8123013e-25
7.6667451e-25
8.3683567e-25
8.0409322e-25
7.41252e-25
2.4918255e-25
3.2144578e-25
5.1810028e-25
2.8087714e-24
1.7045066e-25
2.1315493e-25
2.0348725e-25
7.6922859e-25
3.1394354e-24
8.9500594e-24
9.2816203e-25
7.6229244e-25
1.004842e-24
8.3253871e-25
8.5040943e-25
7.2983314e-25
9.3473095e-25
8.5812672e-25
7.9252265e-25
6.8471769e-25
5.0060175e-25
1.9924818e-24
1.4562895e-24
3.5325515e-25
3.3052424e-25
3.281777e-25
1.1759867e-25
9.4514693e-26
6.1486956e-26
7.5556638e-26
7.6076149e-26
7.9192644e-26
7.2444688e-26
2.2298993e-25
1.6123131e-25
1.684303e-25
1.0212767e-25
1.0352378e-25
1.6215637e-25
1.7121896e-25
9.2427272e-26
5.497242e-26
3.7685494e-25
2.494387e-25
1.9145716e-25
1.7878028e-25
2.500397e-25
1.7191852e-25
1.2822228e-25
2.1171932e-25
2.5046985e-25
4.9447682e-26
3.1191952e-26
2.90134e-26
3.0158414e-26
4.7721454e-25
3.8554734e-25
3.0090585e-25
3.021456e-25
3.5225239e-25
7.0008647e-25
3.1233866e-25
2.8906923e-25
5.0790045e-25
1.8809062e-25
1.1127177e-25
4.2516343e-25
3.4521206e-25
5.1507334e-26
3.4753267e-26
3.0580024e-26
3.1426401e-26
6.8924833e-25
5.1391425e-25
5.4941991e-25
4.6357179e-25
4.4063225e-25
5.6058356e-25
5.5238415e-25
5.6967854e-25
6.3853045e-25
2.3381797e-25
1.5105286e-24
4.4922043e-25
2.5745207e-25
1.5681198e-25
5.9249439e-25
7.290662e-25
1.2296057e-24
4.3416484e-25
7.5107759e-25
9.5873367e-25
6.2668396e-25
6.6427282e-25
8.2624274e-25
7.3265542e-25
7.8445347e-25
7.9135426e-25
7.8526587e-25
4.0454436e-25
3.1620297e-25
4.5909643e-25
3.2404482e-25
1.3254657e-24
8.2311499e-25
5.1528902e-25
9.3748318e-25
9.420937e-25
1.0736294e-24
1.0540542e-24
8.7583175e-25
1.0713521e-24
1.0190088e-24
1.0388463e-24
1.1789832e-24
1.2741425e-24
1.0455361e-24
1.1073499e-24
1.2394318e-24
1.2168267e-24
1.10295e-24
1.1294358e-24
1.3451953e-24
1.1652469e-24
1.1658473e-24
1.3748585e-24
8.734708e-25
2.5251415e-24
3.8286815e-24
2.1482782e-24
4.7499229e-24
6.0581243e-24
6.483543e-25
4.5559048e-24
4.2981999e-25
1.0587337e-24
1.62516e-24
5.0971693e-24
1.3378828e-24
2.4398068e-24
2.5825197e-25
5.7042927e-25
3.8174237e-25
5.0446879e-25
3.2945864e-25
1.1766012e-24
5.4986079e-25
1.3446531e-24
1.4490535e-24
8.6434309e-25
7.4039067e-25
1.3936334e-25
1.1647585e-25
9.4591628e-25
2.5042219e-25
1.7438985e-25
1.3900216e-25
2.9237381e-25
1.4742395e-25
2.8574403e-25
5.3421283e-25
5.6327123e-26
1.0709154e-25
1.3197943e-25
2.0405915e-25
1.4243444e-25
1.1108637e-25
3.2914782e-25
2.2360257e-25
2.5501653e-25
2.7034067e-25
2.2816684e-25
3.7733786e-25
3.3719825e-25
3.4145848e-25
3.7327052e-25
3.3684918e-25
5.3284573e-25
2.0782954e-25
6.1530685e-25
4.1390862e-25
4.5694361e-25
5.4286214e-25
3.7345804e-25
4.2285202e-25
6.2283918e-25
5.5864207e-25
4.7222083e-25
3.367672e-25
1.6474952e-24
3.4351559e-25
7.924571e-25
5.831631e-25
5.7407578e-25
6.1871972e-25
6.759867e-25
5.9184638e-25
7.6862681e-25
7.4000448e-25
6.4626336e-25
6.6125535e-25
8.3230588e-25
7.8432471e-25
7.3878617e-25
8.8296829e-25
7.0172462e-25
8.7915497e-25
8.7479992e-25
7.4882189e-25
7.3023147e-25
1.1440537e-24
2.8349453e-24
7.922292e-25
8.3982495e-25
4.2884773e-25
3.4839094e-25
4.3069373e-25
3.5984076e-25
2.0468165e-25
2.0444292e-25
1.2893041e-25
1.8938429e-24
1.4120913e-25
9.6880671e-26
1.0371932e-24
1.228735e-25
6.5029167e-26
1.2329155e-24
9.4361295e-26
6.0441461e-26
1.5209372e-24
4.1081706e-25
2.3149017e-25
8.4595361e-26
2.1228672e-25
8.574339e-25
3.220179e-24
8.2140971e-24
2.8145523e-25
2.9777555e-25
4.410824e-25
1.0514055e-24
9.7321934e-25
8.116179e-25
8.5123676e-25
8.5902899e-25
9.0346105e-25
8.9334329e-25
9.4325133e-25
9.6793369e-25
4.8923533e-25
4.4335727e-25
3.7242477e-25
3.2241038e-25
5.3064169e-25
1.8060352e-25
7.9601265e-25
3.0461719e-24
7.2568427e-24
1.6124832e-23
1.1019337e-24
6.3869254e-25
1.2754777e-24
1.0233884e-24
1.0883811e-24
9.7002154e-25
9.5913948e-25
1.0824732e-24
1.0781028e-24
1.1078291e-24
8.0428261e-25
1.1092839e-24
6.4261194e-25
1.8484929e-24
1.1002794e-24
1.983914e-24
2.2849504e-24
9.3033062e-26
5.9660367e-26
7.8830852e-26
7.2670092e-26
7.4153855e-26
8.4462718e-26
2.1172984e-25
1.6795767e-25
1.6587243e-25
9.9951681e-26
9.4264163e-26
6.4930645e-26
8.7340896e-26
1.2997141e-25
6.8711293e-26
4.0205308e-25
2.4650551e-25
1.8034312e-25
1.7281066e-25
2.5494156e-25
1.3227271e-25
1.3756895e-25
1.0523731e-25
9.6228125e-26
2.9662714e-26
3.8451194e-26
5.8455599e-26
2.2203532e-26
4.7193121e-25
3.7831721e-25
3.0717427e-25
3.0978636e-25
3.5908904e-25
7.4626113e-25
2.2515533e-25
2.3231179e-25
4.5182126e-25
6.0478962e-26
2.1337413e-25
1.3904662e-25
2.5403169e-25
5.1125027e-26
3.0428235e-26
3.1046966e-26
3.2302027e-26
6.5709267e-25
4.5684474e-25
5.2509083e-25
4.0870764e-25
4.5531137e-25
5.2653308e-25
4.8297474e-25
4.5554816e-25
5.1739701e-25
1.5873558e-25
1.0566537e-24
7.6889751e-25
2.0607831e-25
1.2230522e-25
8.9885936e-26
2.2785389e-25
1.4487562e-25
9.3619415e-25
7.5590756e-25
6.5903427e-25
6.4230618e-25
6.4730235e-25
6.17425e-25
7.1563187e-25
7.2221446e-25
6.3720657e-25
4.6269093e-25
2.8974319e-25
3.5681541e-25
4.694904e-25
2.8785863e-25
7.525729e-25
1.497124e-24
3.4993403e-25
8.5898933e-25
5.8396675e-25
1.2070043e-24
8.7850028e-25
8.0553434e-25
9.7797849e-25
9.638051e-25
9.9221454e-25
9.5638281e-25
1.0659957e-24
1.0159239e-24
9.0957615e-25
6.7434134e-25
7.8540716e-25
6.8395639e-25
5.0167705e-25
7.7908762e-25
1.1600895e-24
1.1728104e-24
1.2990629e-24
1.3185292e-24
1.1500253e-24
1.241328e-24
1.3671795e-24
1.2066138e-24
1.3081731e-24
1.231996e-24
1.3815665e-24
1.5419197e-24
1.2700524e-24
1.3392843e-24
1.3553459e-24
1.3682499e-24
1.5225614e-24
1.2564416e-24
1.2534546e-24
7.0180424e-25
1.419554e-24
1.340676e-24
2.4965467e-24
6.6611166e-25
2.1373212e-24
1.3417276e-24
6.7472359e-25
1.4395742e-24
5.3021902e-25
5.9018004e-25
6.2395952e-25
1.2415443e-23
2.2923702e-24
1.2944825e-24
6.8061049e-25
3.1700812e-25
9.4785915e-25
2.6737603e-25
2.6931892e-24
2.3747367e-25
1.1542245e-24
2.0607678e-25
5.2140017e-25
3.2540335e-24
3.0590216e-24
1.916162e-25
1.3822815e-25
1.6963045e-25
2.4744069e-25
7.8284142e-25
8.1793876e-26
1.0015265e-25
5.5028266e-25
9.4858286e-26
6.4825161e-25
2.1390331e-25
7.5178711e-26
1.9337673e-25
2.6599348e-25
6.0015942e-26
2.2456404e-25
1.2444966e-25
1.153628e-25
9.2268784e-26
8.7601068e-26
1.8677332e-25
2.5309835e-25
2.8181227e-25
3.3162856e-25
3.0484244e-25
2.7336069e-25
2.4530477e-25
4.5506552e-25
1.9040466e-25
4.7679898e-25
3.7543437e-25
3.5659749e-25
3.3849311e-25
3.3170273e-25
2.961158e-25
4.7027101e-25
4.9405761e-25
3.9196382e-25
2.8890571e-25
1.6559662e-25
3.9323119e-26
8.6385102e-26
1.2536324e-24
2.1579002e-25
2.8576811e-25
2.5744148e-25
6.8519338e-25
7.2353753e-25
5.6747003e-25
6.1619381e-25
7.2564764e-25
5.5005129e-25
5.0140192e-25
7.7432203e-25
7.6089807e-25
3.093084e-25
3.2219445e-25
1.0796587e-24
8.4603911e-25
4.4641289e-25
3.4119489e-25
7.4771645e-25
8.131248e-25
7.8757593e-25
7.6472569e-25
7.8778792e-25
9.9701228e-25
9.3351073e-25
8.3684448e-25
9.033058e-25
9.4637275e-25
8.0338087e-25
8.3336079e-25
9.160319e-25
8.3330332e-25
8.8673751e-25
8.8572495e-25
8.8007566e-25
8.3125278e-25
9.1285492e-25
4.0753758e-25
1.2652862e-24
5.3235158e-25
2.0347592e-24
6.9163117e-25
3.4272856e-25
6.6458157e-25
4.2276596e-25
5.9313147e-25
1.0294152e-24
7.9900918e-25
8.4668669e-25
8.2085867e-26
1.1298506e-24
1.0046403e-25
9.1906123e-26
5.0247594e-25
2.7045713e-25
7.588519e-26
1.0473896e-24
5.0629622e-25
2.1236198e-25
2.3688729e-25
1.3461323e-25
7.5900185e-26
5.0794152e-26
9.9995443e-26
1.5366669e-25
5.9366563e-26
1.3524824e-25
7.6651168e-26
5.6163905e-26
2.0213534e-25
8.3811001e-25
3.2224874e-24
7.815795e-24
1.6149434e-23
8.4112405e-25
1.3491136e-24
1.0278071e-24
1.0811985e-24
1.2039109e-24
1.1282829e-24
1.1479231e-24
1.0648456e-24
1.0655417e-24
1.1876643e-24
7.21105e-25
5.8191027e-25
5.3652273e-25
5.2229723e-25
8.3877572e-25
8.0392208e-25
6.4131647e-25
1.6954067e-25
7.6697541e-25
2.7864525e-24
8.3436273e-24
1.34791e-23
3.0185918e-23
9.4000552e-25
1.0780582e-24
1.5788249e-24
1.272639e-24
1.3275245e-24
1.1871527e-24
1.2806684e-24
1.2469378e-24
1.2263947e-24
1.3023759e-24
1.2538557e-24
1.4089502e-24
1.0057236e-24
9.2252367e-25
1.6845877e-24
8.1526196e-24
1.8169325e-24
9.6449116e-26
6.2671293e-26
8.2476775e-26
8.3771387e-26
8.6426289e-26
8.1778556e-26
2.0174298e-25
8.8288378e-26
1.557649e-25
1.6290767e-25
8.6107497e-26
6.065925e-26
6.3872042e-26
5.2717196e-26
5.4134137e-26
4.1229753e-25
2.4418513e-25
1.7836903e-25
1.7726526e-25
2.4780411e-25
1.8049111e-25
2.1291147e-25
2.7996949e-25
3.1092266e-25
2.3058771e-26
2.1229581e-26
1.9100516e-26
2.9540969e-26
4.9901843e-25
3.6275738e-25
4.0219551e-25
3.1622735e-25
3.1420688e-25
6.1225375e-25
2.0330724e-25
2.0865458e-25
5.5699576e-25
6.3278556e-26
6.5184106e-26
1.535946e-25
1.6290715e-25
3.256046e-26
4.5992403e-26
5.5756357e-26
2.0938194e-26
6.5289673e-25
4.6462986e-25
5.11834e-25
4.2172799e-25
4.4279259e-25
5.3974506e-25
5.1041388e-25
4.2012699e-25
5.1444167e-25
1.8927094e-25
5.273446e-25
1.4141572e-25
2.7810725e-25
5.3057292e-26
1.9334137e-25
2.8300333e-25
1.557655e-25
8.8488136e-25
6.4226066e-25
6.4987321e-25
6.4478376e-25
5.542943e-25
6.209289e-25
6.1545055e-25
5.8515901e-25
5.8792804e-25
4.4118157e-25
2.5581679e-25
4.159129e-25
9.6054754e-25
1.807973e-25
4.9498095e-25
8.0395102e-25
2.7702334e-25
1.2227032e-24
8.0032618e-25
8.7925726e-25
1.0577434e-24
9.2065371e-25
9.1373282e-25
8.6086193e-25
7.7916355e-25
9.1599145e-25
7.5845305e-25
7.7096834e-25
6.8644575e-25
6.9114226e-25
1.1269638e-24
4.3967577e-25
5.3947456e-25
8.9990083e-25
1.3314085e-24
1.5240183e-24
1.1136855e-24
1.0597118e-24
1.1801604e-24
1.2403771e-24
1.1848845e-24
1.2281202e-24
1.3688593e-24
1.3526347e-24
1.1439278e-24
1.4331642e-24
6.5455197e-25
7.611261e-25
2.9720484e-24
1.2697825e-24
2.2376996e-24
1.4046223e-24
1.6987727e-24
1.571499e-24
1.5422516e-24
1.6383305e-24
1.6938642e-24
1.425899e-24
1.3990935e-24
1.5802665e-24
1.3768207e-24
1.7093565e-24
1.7390384e-24
1.4366573e-24
1.5341477e-24
1.6084991e-24
1.6221531e-24
1.4538035e-24
1.5038405e-24
1.4515828e-24
1.7773448e-24
1.5387524e-24
9.4199995e-25
1.4299564e-24
9.5560504e-25
1.2162903e-24
1.2969246e-24
1.1705575e-24
1.0563746e-24
1.0338168e-24
2.1026521e-24
1.3917487e-24
1.0856481e-24
6.4304706e-24
6.7754153e-24
1.0301911e-24
3.9453432e-25
1.0313128e-24
4.2343037e-25
1.2274084e-24
6.3913504e-25
1.086157e-24
8.800397e-25
7.0492619e-25
1.0055396e-24
1.1891259e-24
1.0749917e-25
1.1007607e-25
3.6244102e-25
2.8267888e-25
1.5779675e-25
1.4900062e-25
2.4062472e-25
2.0405297e-25
1.0606053e-25
1.1320896e-25
1.8337931e-25
1.0242483e-25
1.7384852e-25
4.0305652e-25
6.096267e-26
8.5860959e-26
1.1977783e-25
2.1944914e-25
1.1557147e-25
8.1841053e-26
3.3986627e-25
3.4343768e-25
3.4970524e-25
2.9335457e-25
2.7830467e-25
2.8474921e-25
2.2578838e-25
1.8302475e-25
1.9529134e-25
3.1781248e-26
8.4646116e-26
2.6027851e-25
4.6212253e-25
3.5017721e-25
4.1219563e-25
3.6784413e-25
3.2780258e-25
4.7003848e-25
4.6397162e-25
2.2834133e-25
1.1738084e-25
2.6870889e-26
6.6578922e-25
4.6415235e-25
5.2783889e-25
5.051418e-25
4.6477436e-25
5.886797e-25
5.9912273e-25
5.4775986e-25
5.3919835e-25
4.0832526e-25
7.5457299e-25
6.3484652e-25
5.0235751e-25
5.266857e-25
2.6540743e-25
4.0295423e-26
1.0188716e-25
3.0680343e-25
3.4884049e-25
3.5947715e-25
3.509297e-25
8.9036213e-25
8.2008871e-25
7.6206587e-25
8.0489264e-25
9.5690682e-25
7.2602894e-25
6.6752772e-25
8.1077247e-25
8.5178415e-25
4.8123745e-25
6.2915572e-25
3.626495e-25
5.3442927e-25
4.4081666e-25
1.2435897e-24
9.834476e-25
9.5715886e-25
9.4207392e-25
9.8491178e-25
9.861634e-25
1.0552068e-24
1.1695993e-24
1.2526439e-24
1.0341699e-24
1.0985136e-24
1.016465e-24
1.0848333e-24
1.0402015e-24
1.1229317e-24
1.0815494e-24
1.075105e-24
1.0542435e-24
1.0751434e-24
8.4729927e-25
1.5182744e-24
1.0378919e-24
1.2793145e-24
9.9918396e-25
7.4928721e-25
1.0596416e-24
6.7314861e-25
6.6333805e-25
8.6587505e-25
1.6144435e-24
7.5850233e-25
5.3881176e-25
2.4459875e-25
3.1082055e-25
6.5794087e-25
1.9693085e-25
3.4652379e-25
8.6666375e-25
4.1200772e-25
5.3688323e-25
5.7703639e-25
1.0892654e-24
5.2742912e-24
3.3842151e-24
1.2432946e-25
1.809773e-25
8.0436863e-26
9.6196581e-26
9.0252764e-26
6.7907194e-26
1.0167235e-25
6.9133408e-26
6.7996041e-26
1.5053098e-25
4.8075309e-26
2.2205491e-25
6.8866773e-26
9.7878104e-26
1.8567173e-25
8.3677752e-25
3.0295964e-24
8.8530839e-24
1.4164482e-23
2.728723e-23
1.3153581e-24
1.4414502e-24
1.6803746e-24
1.4351471e-24
1.2979771e-24
1.3122094e-24
1.400164e-24
1.3082302e-24
1.1820106e-24
5.9789763e-25
5.9265197e-25
6.3704913e-25
7.0784544e-25
2.2191226e-24
1.1241408e-24
1.0871867e-24
9.3166178e-25
1.6906908e-25
7.337711e-25
2.561555e-24
8.0518056e-24
1.5845824e-23
2.297846e-23
3.3825941e-23
2.2557588e-24
1.9838543e-24
1.7463509e-24
1.5411239e-24
1.4790237e-24
1.5421963e-24
1.5499905e-24
1.4112427e-24
1.4899986e-24
1.4446374e-24
1.7147325e-24
1.1914171e-24
1.1471015e-24
1.7998458e-24
7.5410446e-24
2.7140755e-24
2.5628439e-24
1.0335015e-25
6.5545313e-26
8.6461096e-26
8.0520007e-26
8.3197718e-26
8.0637336e-26
2.0816181e-25
1.5532037e-25
1.5978808e-25
8.8260973e-26
9.5256341e-26
8.1360405e-26
2.1092439e-25
1.1273096e-25
5.3609793e-26
4.1265341e-25
2.4893345e-25
2.4848387e-25
1.8107455e-25
1.7379742e-25
6.7219691e-26
2.0921173e-25
2.85814e-25
2.2135048e-25
1.9176726e-26
2.6460244e-26
1.8989659e-26
3.3611314e-26
5.2856187e-25
3.9930937e-25
3.6707503e-25
3.1269702e-25
3.1868459e-25
3.7467227e-25
1.4537987e-25
1.6112429e-25
3.5946689e-25
1.5994437e-25
1.286898e-25
3.3144998e-26
3.8433686e-26
2.1424895e-26
2.2748208e-26
2.1149194e-26
2.6366665e-26
6.5278535e-25
4.9307658e-25
4.8576915e-25
4.8086383e-25
4.3151089e-25
5.2809213e-25
5.1091856e-25
4.4666103e-25
4.7908436e-25
2.3577482e-25
1.2698263e-25
1.574343e-25
2.3174172e-25
5.3494176e-26
5.394328e-26
1.7107085e-25
1.0080142e-25
8.7954169e-25
6.4779213e-25
6.3172874e-25
5.4212261e-25
6.2214691e-25
5.9418967e-25
6.0294039e-25
5.6407689e-25
5.7575969e-25
5.3750088e-25
2.3960932e-25
4.327138e-25
8.6852354e-25
2.1937506e-25
2.2232463e-25
1.1203356e-25
4.4597668e-25
1.1503062e-24
7.9442894e-25
8.4213764e-25
9.0021556e-25
7.8834768e-25
8.2200407e-25
8.4569718e-25
7.8212642e-25
7.8738098e-25
1.6234711e-24
6.2298735e-25
1.9038583e-24
6.2542976e-25
1.2070906e-24
4.2208086e-25
9.5022891e-25
1.8002639e-24
1.5517582e-24
1.1704709e-24
1.0776699e-24
1.2584763e-24
1.3008912e-24
1.1365426e-24
9.7648216e-25
1.1678076e-24
1.1303883e-24
7.5373338e-25
7.093326e-25
6.6656424e-25
7.813381e-25
3.4735734e-24
2.9293638e-24
2.1532878e-24
4.5956023e-24
1.8665676e-24
1.4176997e-24
1.4616435e-24
1.501761e-24
1.3109477e-24
1.4065845e-24
1.4972738e-24
1.5848151e-24
1.3727785e-24
1.6381581e-24
1.4392519e-24
7.1753404e-25
9.0940457e-25
3.1903045e-24
6.9753364e-24
1.1849095e-24
2.3504842e-24
1.6914411e-24
2.0490122e-24
1.9489767e-24
1.7829504e-24
1.6837204e-24
1.936618e-24
1.7657332e-24
1.8413682e-24
2.0833988e-24
1.7121767e-24
1.8215119e-24
2.0657764e-24
2.1598972e-24
1.785517e-24
2.0506246e-24
1.9245417e-24
1.7690403e-24
1.8401539e-24
1.8169574e-24
5.434328e-24
2.664788e-24
1.2390266e-24
2.5560904e-24
2.2750122e-24
2.3815904e-24
1.8294481e-24
1.8650577e-24
1.7128498e-24
1.8362031e-24
2.3606508e-24
1.5761116e-24
1.1793143e-23
4.0624682e-24
1.7950606e-24
1.6475285e-24
5.4139593e-24
2.716098e-24
2.9490964e-24
7.2152223e-25
3.1580687e-24
3.8257922e-24
3.3201991e-24
2.3551969e-24
5.6978127e-24
8.3686023e-24
4.8517871e-25
4.6236981e-25
4.6513652e-25
5.1473987e-25
8.8444618e-24
4.4872398e-25
6.4265784e-25
2.2476497e-24
1.6282951e-25
1.3705452e-25
1.5230381e-25
5.855938e-25
3.8194096e-25
9.1820766e-26
6.3351751e-26
2.0190707e-25
1.1075797e-25
1.0415774e-25
8.9811383e-26
8.3845891e-26
1.823108e-25
2.5681937e-25
3.9885519e-25
3.6265932e-25
3.5999476e-25
2.9451951e-25
2.8939126e-25
2.5822079e-25
1.8370306e-25
4.5684239e-25
3.7178284e-25
4.2136328e-25
3.7968078e-25
3.3305659e-25
2.2066651e-25
4.5044581e-25
4.3037988e-25
2.0922304e-25
1.425317e-25
1.2588683e-25
4.5856802e-26
4.5701295e-26
3.3025771e-26
9.3520592e-26
3.0711052e-25
5.0523125e-25
5.6649854e-25
6.4265595e-25
4.6878318e-25
4.2795121e-25
5.4961077e-25
5.3711409e-25
5.0730191e-25
5.0938453e-25
5.1379697e-25
5.7948416e-25
1.2244645e-25
1.7049244e-25
2.6841667e-26
8.8745261e-25
6.5384534e-25
7.4138782e-25
6.5260712e-25
6.15262e-25
7.4696621e-25
6.4172633e-25
7.0262958e-25
7.0217668e-25
6.545201e-25
3.2102444e-25
3.0262545e-25
7.8598257e-25
2.13446e-25
2.9131953e-24
1.9586371e-24
2.0430599e-24
6.2037405e-25
5.2552019e-25
4.5196888e-25
4.5857607e-25
1.0944089e-24
9.7005533e-25
9.8570513e-25
1.0396467e-24
1.269847e-24
9.7839187e-25
8.7840114e-25
9.4375395e-25
1.0528253e-24
8.5061248e-25
9.9644137e-25
6.7837638e-25
1.0913306e-24
1.363356e-24
1.3293791e-24
1.3707251e-24
1.4638186e-24
1.1890811e-24
1.3768935e-24
1.1730431e-24
1.1725588e-24
1.215448e-24
1.4420608e-24
1.6241966e-24
1.2675579e-24
1.3897739e-24
1.3923214e-24
1.3050961e-24
1.4790291e-24
1.2875123e-24
1.3994568e-24
1.2998362e-24
1.5017909e-24
9.7751833e-25
1.8307668e-24
1.0269241e-24
1.1804793e-24
1.3426502e-24
1.9842038e-24
1.4978456e-24
6.9294894e-25
6.7523666e-25
9.8800329e-25
6.6161387e-25
2.0914896e-24
4.3252594e-24
3.7927055e-24
2.7494987e-24
8.4354371e-24
1.5366566e-24
7.759642e-25
7.8216771e-25
6.5707727e-24
4.0201631e-25
1.6124044e-24
3.0558226e-24
2.0706029e-24
3.3956452e-24
3.1694523e-25
1.9767759e-25
5.6123485e-25
2.3288967e-25
1.3162374e-25
1.4218911e-25
5.1449513e-25
3.7499148e-25
1.3893981e-25
7.3476348e-26
2.6357339e-25
7.0166928e-26
4.498873e-26
1.0107731e-25
1.6179981e-25
6.9527489e-25
7.6944982e-26
6.967346e-26
1.7735432e-25
9.0271961e-25
2.7411239e-24
9.4981612e-24
1.6220163e-23
2.0971671e-23
3.5898688e-23
1.5707172e-24
1.4821128e-24
1.6106862e-24
2.0263329e-24
1.7583486e-24
1.7020187e-24
1.6599705e-24
1.4470783e-24
1.3943756e-24
1.0685408e-24
7.4291208e-25
8.030623e-25
1.16173e-24
1.0383457e-24
1.1967826e-24
1.2676239e-24
1.2411365e-24
1.7388615e-25
7.3033107e-25
2.6242247e-24
6.990908e-24
1.6280388e-23
3.014335e-23
2.8726431e-23
4.3022205e-23
2.4021068e-24
1.9385716e-24
2.0511058e-24
1.7567331e-24
2.0865805e-24
1.6872598e-24
1.6870467e-24
1.9570512e-24
1.7083264e-24
1.4164872e-24
1.9654248e-24
1.7692719e-24
1.1996831e-24
1.1641576e-23
3.9901338e-24
5.5636851e-24
7.1444202e-24
1.095779e-25
6.7755273e-26
8.281237e-26
8.6861396e-26
8.4188686e-26
9.0288592e-26
2.1319149e-25
1.7281976e-25
9.9591478e-26
9.8587981e-26
1.6669309e-25
1.5971524e-25
1.8446827e-25
1.9127426e-25
1.1709401e-25
4.3662604e-25
2.718989e-25
2.3899117e-25
1.6871082e-25
1.8224438e-25
1.0389315e-25
1.3618597e-25
8.5883627e-26
6.0312874e-26
8.9685495e-26
6.7745911e-26
9.8257142e-26
2.8576606e-26
5.4505829e-25
3.8283193e-25
3.9426732e-25
3.1287595e-25
3.2013228e-25
2.8815156e-25
3.3873953e-25
2.919575e-25
1.4739276e-25
1.7282652e-26
3.1644983e-26
9.0173108e-26
5.6440714e-26
1.949303e-26
2.5446294e-26
1.9203789e-26
2.9177413e-26
6.9636939e-25
4.8953609e-25
5.5931134e-25
4.7370302e-25
4.4962464e-25
5.388614e-25
5.887569e-25
4.1367748e-25
4.6245519e-25
2.5602505e-25
8.9384683e-26
1.2347096e-25
3.520289e-25
4.4094738e-25
4.3533483e-25
3.6073237e-26
4.2363111e-26
8.9580646e-25
6.8206994e-25
5.8484036e-25
5.92183e-25
6.5582418e-25
5.7368697e-25
5.6001742e-25
5.2650122e-25
5.7077203e-25
5.8842936e-25
4.861324e-25
2.9095748e-25
2.9197913e-25
3.1420585e-25
1.0196654e-25
1.2228797e-25
3.7309564e-25
1.1474904e-24
7.9129085e-25
8.3498674e-25
8.8820644e-25
7.7090514e-25
7.9600139e-25
7.3951943e-25
7.4407e-25
7.5516808e-25
1.1887896e-24
8.205409e-25
1.3289984e-24
9.9103764e-25
2.0953206e-24
3.5351988e-25
1.0228222e-24
1.8288676e-24
1.4463271e-24
1.1724972e-24
1.0515261e-24
1.0224847e-24
1.0999934e-24
1.0492567e-24
9.4803992e-25
9.4051032e-25
9.9207837e-25
5.8728679e-25
7.0152114e-25
1.2658245e-24
1.2033227e-24
2.0350453e-24
2.6474607e-24
1.2051822e-24
7.2263523e-24
1.92058e-24
1.5782616e-24
1.4227339e-24
1.5391269e-24
1.4767349e-24
1.2304035e-24
1.2769895e-24
1.5970371e-24
1.461963e-24
8.7719652e-25
1.1764117e-24
7.6788385e-25
7.9147615e-25
1.7724525e-24
1.5428252e-24
2.5574474e-24
2.945955e-24
2.2951306e-24
1.7789405e-24
1.6807537e-24
1.7244947e-24
1.8232242e-24
1.7739843e-24
1.8893228e-24
1.7745492e-24
1.8127867e-24
2.0389933e-24
1.6129353e-24
1.5172605e-24
1.7442839e-24
9.1525969e-24
1.5119803e-23
1.2706938e-24
1.6158997e-24
2.0419759e-24
2.3413832e-24
2.3603771e-24
2.139546e-24
2.0802888e-24
2.0769505e-24
2.0804488e-24
2.5360864e-24
2.2647928e-24
1.9079655e-24
2.5203781e-24
2.0640458e-24
2.1373961e-24
2.2674988e-24
2.2456656e-24
2.5031846e-24
2.2012795e-24
2.044948e-24
2.0430941e-24
2.239697e-24
1.8467922e-24
2.8748476e-24
1.988289e-24
2.5739235e-24
2.2315147e-24
2.299652e-24
2.1359249e-24
1.1477325e-24
2.6469628e-24
2.4945588e-24
1.612692e-24
2.8471279e-24
3.8166832e-24
1.117108e-24
2.4674766e-24
1.3633814e-24
6.4189133e-24
5.4794034e-24
8.1649685e-24
2.0334085e-24
5.2344882e-24
1.7323754e-24
8.2848236e-24
4.7715632e-24
9.2309722e-24
2.3963627e-24
3.4352986e-25
3.5847867e-25
2.1046932e-24
1.2128628e-24
2.7493221e-25
3.4903441e-25
1.7690889e-24
8.0375133e-25
6.30779e-25
8.1468992e-25
3.22153e-25
1.1221777e-25
4.4524582e-25
8.7775227e-26
8.8572493e-26
2.4399936e-25
6.8447484e-26
7.6735106e-26
9.5458794e-26
1.9288211e-25
1.0681231e-25
8.2294483e-26
3.8199047e-25
3.4176298e-25
3.4286096e-25
2.9178515e-25
2.9481931e-25
1.4760911e-25
1.175506e-25
6.2168836e-26
8.1036407e-26
5.1979716e-26
1.0485702e-25
1.8153323e-25
3.9167476e-25
4.4315093e-25
4.3984369e-25
4.6153439e-25
3.8388564e-25
3.4946113e-25
3.8108735e-25
1.8404269e-25
1.1653789e-25
1.0355128e-25
5.183133e-25
5.0555987e-25
6.3903727e-25
5.2382071e-25
4.4646603e-25
4.8645069e-25
4.8427889e-25
4.5492626e-25
4.7045866e-25
1.6293128e-25
8.7118599e-25
4.3240002e-25
1.2220977e-25
2.3954764e-25
1.8018973e-25
4.8409104e-26
4.7005633e-26
2.7032913e-25
7.3137341e-25
6.6027623e-25
7.0514272e-25
7.708789e-25
8.7139428e-25
6.2935825e-25
5.7854303e-25
6.4359915e-25
6.6689748e-25
6.6201971e-25
3.2035898e-25
3.2916482e-25
6.2704627e-25
1.7777874e-24
2.9370565e-25
9.2672731e-26
9.0681977e-25
9.8222067e-25
1.1579866e-24
8.610047e-25
7.9801001e-25
8.5181162e-25
8.3412384e-25
8.2368179e-25
9.0487704e-25
4.7254822e-25
6.2466668e-25
1.1127601e-24
9.2886036e-25