/*--------------------------------*- C++ -*----------------------------------*\
  =========                 |
  \\      /  F ield         | OpenFOAM: The Open Source CFD Toolbox
   \\    /   O peration     | Website:  https://openfoam.org
    \\  /    A nd           | Version:  7
     \\/     M anipulation  |
\*---------------------------------------------------------------------------*/
FoamFile
{
    version     2.0;
    format      ascii;
    class       volScalarField;
    location    "4000";
    object      p;
}
// * * * * * * * * * * * * * * * * * * * * * * * * * * * * * * * * * * * * * //

dimensions      [0 2 -2 0 0 0 0];

internalField   nonuniform List<scalar> 
34387
(
-2.1671073e+51
-2.0557415e+51
-2.0882526e+51
-2.0547392e+51
-2.1634045e+51
-2.0507679e+51
-2.1381208e+51
-2.1989863e+51
-2.1998407e+51
-2.1400647e+51
-1.9462077e+51
-2.0305854e+51
-2.030335e+51
-2.0870213e+51
-2.0866288e+51
-2.0860425e+51
-2.0288752e+51
-2.030027e+51
-2.0862259e+51
-2.088234e+51
-2.0882445e+51
-2.0330373e+51
-2.0552272e+51
-2.0482759e+51
-1.9445961e+51
-2.0297648e+51
-2.0294954e+51
-2.0870707e+51
-2.0869392e+51
-2.1599479e+51
-2.0428079e+51
-2.1986932e+51
-2.1344591e+51
-2.1364574e+51
-2.1983383e+51
-1.9410141e+51
-2.0236189e+51
-2.0841403e+51
-2.0814917e+51
-2.0267133e+51
-2.1399037e+51
-2.198871e+51
-2.1995502e+51
-2.1415932e+51
-1.8408685e+51
-1.976928e+51
-1.9216525e+51
-1.9226262e+51
-1.9767644e+51
-1.9754644e+51
-1.9202689e+51
-1.922616e+51
-1.9763999e+51
-2.0316654e+51
-2.0306068e+51
-2.0321356e+51
-2.0870567e+51
-2.0868915e+51
-2.0871297e+51
-2.0860853e+51
-2.0306773e+51
-2.030985e+51
-2.0864062e+51
-2.0879461e+51
-2.0882257e+51
-2.0330356e+51
-2.0880968e+51
-2.0330321e+51
-1.9779403e+51
-2.0567399e+51
-2.0481283e+51
-1.944585e+51
-2.0295719e+51
-2.0301813e+51
-2.0876462e+51
-2.0873215e+51
-2.0360254e+51
-1.9383524e+51
-1.8395091e+51
-1.9211339e+51
-1.9205762e+51
-1.975675e+51
-1.9761452e+51
-2.0314211e+51
-2.0311577e+51
-2.0871112e+51
-2.0869303e+51
-2.1564769e+51
-2.0305789e+51
-2.1322996e+51
-2.1303415e+51
-2.1983503e+51
-2.1983643e+51
-1.9330471e+51
-2.0162977e+51
-2.0753471e+51
-2.0788422e+51
-2.0205737e+51
-2.1990332e+51
-2.1367932e+51
-2.1383421e+51
-2.1983936e+51
-1.8363784e+51
-1.9149095e+51
-1.9730935e+51
-1.9699157e+51
-1.9181289e+51
-2.0256894e+51
-2.08434e+51
-2.081869e+51
-2.0285519e+51
-2.1401162e+51
-2.1990312e+51
-2.1996076e+51
-2.1417301e+51
-1.7390266e+51
-1.8156822e+51
-1.8687616e+51
-1.8701775e+51
-1.8174158e+51
-1.8181808e+51
-1.8169637e+51
-1.8700902e+51
-1.8704751e+51
-1.9773588e+51
-1.923579e+51
-1.9240365e+51
-1.9234022e+51
-1.9774837e+51
-1.9778216e+51
-1.9757722e+51
-1.9220812e+51
-1.9238844e+51
-1.9769453e+51
-2.0319539e+51
-2.0315908e+51
-2.0316813e+51
-2.0321553e+51
-2.0870503e+51
-2.0867328e+51
-2.0867458e+51
-2.086713e+51
-2.0862358e+51
-2.0307831e+51
-2.0310067e+51
-2.0863837e+51
-2.0879253e+51
-2.0866439e+51
-2.0329245e+51
-2.0880678e+51
-2.0330297e+51
-1.9779481e+51
-2.0867638e+51
-2.032938e+51
-1.9779409e+51
-1.9234903e+51
-2.0499696e+51
-2.087267e+51
-1.9459804e+51
-2.0283986e+51
-2.0309049e+51
-2.0883986e+51
-2.030771e+51
-2.03178e+51
-2.0885868e+51
-2.0885307e+51
-2.033405e+51
-1.9378163e+51
-1.9763525e+51
-1.9211726e+51
-1.8393285e+51
-1.9204185e+51
-1.9756411e+51
-2.0311856e+51
-2.0317976e+51
-2.0875988e+51
-2.0873382e+51
-1.9282356e+51
-1.8344636e+51
-1.7381187e+51
-1.8160826e+51
-1.8689829e+51
-1.816587e+51
-1.869529e+51
-1.9229989e+51
-1.9223701e+51
-1.9760825e+51
-1.9766467e+51
-2.0314636e+51
-2.0311588e+51
-2.0870634e+51
-2.0868057e+51
-2.1539913e+51
-2.0207635e+51
-2.198599e+51
-2.1987761e+51
-2.1268707e+51
-2.1286333e+51
-1.9222823e+51
-2.0115261e+51
-2.0071308e+51
-2.0682412e+51
-2.0714339e+51
-2.1347536e+51
-2.1332004e+51
-2.1986934e+51
-2.1986729e+51
-1.8296207e+51
-1.9076582e+51
-1.9624394e+51
-1.9669069e+51
-1.9121164e+51
-2.0191037e+51
-2.0764373e+51
-2.0794557e+51
-2.0229222e+51
-2.1993231e+51
-2.137202e+51
-2.1385707e+51
-2.1986211e+51
-1.8111611e+51
-1.7355235e+51
-1.866799e+51
-1.86355e+51
-1.8140361e+51
-1.916906e+51
-1.97356e+51
-1.9706007e+51
-1.9199703e+51
-2.0259088e+51
-2.0845377e+51
-2.0821131e+51
-2.0287257e+51
-2.1401339e+51
-2.1990474e+51
-2.1996189e+51
-2.1417455e+51
-1.6400354e+51
-1.7143923e+51
-1.7153104e+51
-1.7670056e+51
-1.7674364e+51
-1.71619e+51
-1.716304e+51
-1.7669893e+51
-1.7658711e+51
-1.8172916e+51
-1.8691087e+51
-1.8707486e+51
-1.8716457e+51
-1.8184122e+51
-1.8183898e+51
-1.8193258e+51
-1.8186379e+51
-1.8705512e+51
-1.8712269e+51
-1.9774934e+51
-1.9237387e+51
-1.9244995e+51
-1.9242137e+51
-1.9243605e+51
-1.9780511e+51
-1.9775764e+51
-1.9777395e+51
-1.9759622e+51
-1.9222809e+51
-1.9240304e+51
-1.977079e+51
-2.0326765e+51
-2.0320929e+51
-2.0315967e+51
-2.0318813e+51
-2.0321584e+51
-2.0870465e+51
-2.0875761e+51
-2.0866326e+51
-2.0867296e+51
-2.0867464e+51
-2.0862424e+51
-2.0307926e+51
-2.0310152e+51
-2.0863777e+51
-2.0329178e+51
-2.0321145e+51
-1.978018e+51
-2.0329348e+51
-1.9779495e+51
-1.9235006e+51
-2.0318986e+51
-1.9779088e+51
-1.9234952e+51
-1.8702534e+51
-2.0362811e+51
-2.080446e+51
-2.0213459e+51
-1.9393263e+51
-2.0255447e+51
-2.0843844e+51
-2.08735e+51
-1.9197154e+51
-1.8401961e+51
-1.9225528e+51
-1.9766888e+51
-1.9746243e+51
-1.977627e+51
-1.9232123e+51
-1.9216779e+51
-1.9770142e+51
-2.0301135e+51
-2.0319729e+51
-2.0316466e+51
-2.0888859e+51
-2.0897237e+51
-2.0324875e+51
-2.032868e+51
-2.0890399e+51
-2.0885785e+51
-1.926589e+51
-1.8339857e+51
-1.9767862e+51
-1.923038e+51
-1.8695746e+51
-1.7378274e+51
-1.816431e+51
-1.816164e+51
-1.8688663e+51
-1.922198e+51
-1.9760224e+51
-2.0311898e+51
-2.0318057e+51
-2.0875613e+51
-2.0873405e+51
-1.9142745e+51
-1.8271592e+51
-1.7343181e+51
-1.7155662e+51
-1.6393637e+51
-1.7153841e+51
-1.7667457e+51
-1.7665272e+51
-1.8178111e+51
-1.8694805e+51
-1.8182945e+51
-1.87006e+51
-1.9231546e+51
-1.9224779e+51
-1.9761722e+51
-1.9768286e+51
-2.0314759e+51
-2.0311639e+51
-2.0870607e+51
-2.0868086e+51
-2.1512914e+51
-2.0139911e+51
-2.1235118e+51
-2.1251471e+51
-2.198248e+51
-2.1977973e+51
-1.9126645e+51
-1.9995653e+51
-2.0623375e+51
-2.0651752e+51
-2.0031769e+51
-2.1992014e+51
-2.1997509e+51
-2.1305337e+51
-2.1318174e+51
-1.8215431e+51
-1.898719e+51
-1.9531775e+51
-1.9580815e+51
-1.9035839e+51
-2.0149661e+51
-2.0111707e+51
-2.0702159e+51
-2.0728661e+51
-2.1351956e+51
-2.1337284e+51
-2.1989598e+51
-2.1989529e+51
-1.7303271e+51
-1.8042605e+51
-1.8564719e+51
-1.8606962e+51
-1.808078e+51
-1.9099792e+51
-1.9636735e+51
-1.9679315e+51
-1.9143499e+51
-2.0193387e+51
-2.0767569e+51
-2.0796849e+51
-2.0231245e+51
-2.1993562e+51
-2.1372273e+51
-2.1385867e+51
-2.1986401e+51
-1.812885e+51
-1.7618823e+51
-1.6373266e+51
-1.7641245e+51
-1.7110746e+51
-1.7126882e+51
-1.8673432e+51
-1.8640912e+51
-1.8157062e+51
-1.9171064e+51
-1.973757e+51
-1.9708191e+51
-1.9201603e+51
-2.0259298e+51
-2.0845545e+51
-2.0821339e+51
-2.0287424e+51
-1.5432303e+51
-1.6172183e+51
-1.6157764e+51
-1.66595e+51
-1.6668323e+51
-1.6168161e+51
-1.6176848e+51
-1.6670661e+51
-1.6670521e+51
-1.7158151e+51
-1.7166888e+51
-1.7671385e+51
-1.7677697e+51
-1.7686676e+51
-1.7171026e+51
-1.7171722e+51
-1.7172842e+51
-1.76736e+51
-1.7660215e+51
-1.8174236e+51
-1.8692921e+51
-1.8708587e+51
-1.8712175e+51
-1.8712711e+51
-1.8191664e+51
-1.818474e+51
-1.8192038e+51
-1.8193594e+51
-1.8187299e+51
-1.8707128e+51
-1.871352e+51
-1.977505e+51
-1.9237495e+51
-1.9239711e+51
-1.9245034e+51
-1.9242231e+51
-1.9242851e+51
-1.9780738e+51
-1.9782597e+51
-1.9775928e+51
-1.9778758e+51
-1.9759804e+51
-1.9223003e+51
-1.9240414e+51
-1.9770955e+51
-1.9780289e+51
-1.9782673e+51
-1.9236401e+51
-1.9779262e+51
-1.9235081e+51
-1.8702572e+51
-1.9778756e+51
-1.9235388e+51
-1.8702552e+51
-1.8192313e+51
-2.0100826e+51
-1.9281059e+51
-2.0157404e+51
-2.0087082e+51
-2.0678298e+51
-2.0752834e+51
-2.080946e+51
-2.0236474e+51
-1.9673735e+51
-1.9126535e+51
-1.8349772e+51
-1.9171571e+51
-1.9717861e+51
-2.0273378e+51
-2.084552e+51
-2.0875845e+51
-1.9215534e+51
-1.8681622e+51
-1.7381803e+51
-1.8148719e+51
-1.8698416e+51
-1.8166419e+51
-1.8703745e+51
-1.8170886e+51
-1.8162404e+51
-1.8697975e+51
-1.9238172e+51
-1.9239036e+51
-1.977079e+51
-1.9784761e+51
-1.9748127e+51
-1.9783082e+51
-1.9247427e+51
-1.9236522e+51
-1.977424e+51
-2.0302879e+51
-2.0322031e+51
-2.032067e+51
-2.0322395e+51
-2.0891949e+51
-2.0891471e+51
-2.089007e+51
-2.0324915e+51
-2.0327708e+51
-2.0889752e+51
-2.088501e+51
-1.9114248e+51
-1.8262917e+51
-1.7340085e+51
-1.9768841e+51
-1.9231495e+51
-1.8701514e+51
-1.6392828e+51
-1.7661899e+51
-1.7144414e+51
-1.7663969e+51
-1.7150975e+51
-1.8181886e+51
-1.817924e+51
-1.8693334e+51
-1.9222777e+51
-1.9760789e+51
-2.031194e+51
-2.0318123e+51
-2.087561e+51
-2.0873395e+51
-1.9029054e+51
-1.8190732e+51
-1.729162e+51
-1.6365327e+51
-1.7172509e+51
-1.6670087e+51
-1.5427241e+51
-1.6166614e+51
-1.6167064e+51
-1.666817e+51
-1.7169083e+51
-1.7671204e+51
-1.7669946e+51
-1.8178949e+51
-1.8695915e+51
-1.81838e+51
-1.8701812e+51
-1.9231596e+51
-1.9224835e+51
-1.9761803e+51
-1.9768384e+51
-2.1469245e+51
-2.008623e+51
-2.1196293e+51
-2.195907e+51
-2.1972455e+51
-2.1215272e+51
-1.9046595e+51
-1.9966385e+51
-1.9934354e+51
-2.0575136e+51
-2.0598992e+51
-2.1274851e+51
-2.1289599e+51
-2.1993102e+51
-2.1986162e+51
-1.8136735e+51
-1.8904993e+51
-1.9492245e+51
-1.9448998e+51
-1.8949964e+51
-2.0043224e+51
-2.0651278e+51
-2.0674978e+51
-2.0075994e+51
-2.1994319e+51
-2.200177e+51
-2.1313644e+51
-2.1323249e+51
-1.7242732e+51
-1.7967824e+51
-1.8482467e+51
-1.8527846e+51
-1.8007906e+51
-1.9014747e+51
-1.9551533e+51
-1.9597118e+51
-1.9062061e+51
-2.0151895e+51
-2.0114369e+51
-2.0706176e+51
-2.0731914e+51
-2.1352196e+51
-2.1337612e+51
-2.1990021e+51
-2.1989904e+51
-1.6334079e+51
-1.705231e+51
-1.708266e+51
-1.7588523e+51
-1.7554484e+51
-1.8058888e+51
-1.8571198e+51
-1.861336e+51
-1.8097181e+51
-1.9101858e+51
-1.963907e+51
-1.9681195e+51
-1.9145091e+51
-2.0193601e+51
-2.076776e+51
-2.0797044e+51
-2.0231455e+51
-1.8130393e+51
-1.7622437e+51
-1.5411387e+51
-1.6629505e+51
-1.613026e+51
-1.6147086e+51
-1.66438e+51
-1.7643435e+51
-1.7125762e+51
-1.7139785e+51
-1.8675327e+51
-1.8643078e+51
-1.8158614e+51
-1.9171257e+51
-1.9737759e+51
-1.9708405e+51
-1.9201791e+51
-1.4481963e+51
-1.5195846e+51
-1.5206241e+51
-1.5688297e+51
-1.5685906e+51
-1.5693505e+51
-1.5697093e+51
-1.520206e+51
-1.5205104e+51
-1.618671e+51
-1.6169581e+51
-1.6659162e+51
-1.6670519e+51
-1.6681424e+51
-1.6174792e+51
-1.6174797e+51
-1.618696e+51
-1.6674967e+51
-1.6671398e+51
-1.7159291e+51
-1.7167326e+51
-1.7671946e+51
-1.7685933e+51
-1.7678293e+51
-1.768607e+51
-1.7183766e+51
-1.7171878e+51
-1.7184026e+51
-1.7173701e+51
-1.7674281e+51
-1.766151e+51
-1.8174351e+51
-1.8693081e+51
-1.8708648e+51
-1.8710679e+51
-1.8706119e+51
-1.8711365e+51
-1.8191451e+51
-1.8192231e+51
-1.8184799e+51
-1.8191564e+51
-1.8193597e+51
-1.8187354e+51
-1.8707217e+51
-1.8713537e+51
-1.9236612e+51
-1.9235651e+51
-1.9244943e+51
-1.9242734e+51
-1.8703461e+51
-1.8702597e+51
-1.8192266e+51
-1.8702971e+51
-1.8192298e+51
-1.7695613e+51
-1.9943078e+51
-2.0532161e+51
-1.9919327e+51
-1.9131139e+51
-1.9995168e+51
-2.0600877e+51
-1.8271638e+51
-1.9550615e+51
-1.9014183e+51
-1.907677e+51
-1.9618569e+51
-2.0184441e+51
-2.0119867e+51
-2.0701602e+51
-2.0762866e+51
-2.0812271e+51
-1.9682027e+51
-2.0239056e+51
-1.9147326e+51
-1.8615208e+51
-1.8092785e+51
-1.7345812e+51
-1.8654741e+51
-1.8124697e+51
-1.9191337e+51
-1.9723068e+51
-2.0275209e+51
-2.0847872e+51
-2.0876052e+51
-1.9217128e+51
-1.8685437e+51
-1.6395665e+51
-1.7647244e+51
-1.713028e+51
-1.714522e+51
-1.7654839e+51
-1.7142742e+51
-1.7148745e+51
-1.7658918e+51
-1.7660174e+51
-1.8165104e+51
-1.8703516e+51
-1.8716638e+51
-1.8176019e+51
-1.8176088e+51
-1.871124e+51
-1.8182483e+51
-1.8178263e+51
-1.8702017e+51
-1.9251951e+51
-1.9239062e+51
-1.9255003e+51
-1.9781273e+51
-1.97713e+51
-1.978416e+51
-1.9749781e+51
-1.978346e+51
-1.9248906e+51
-1.9238154e+51
-1.9775654e+51
-2.0303057e+51
-2.0322055e+51
-2.0320258e+51
-2.0320658e+51
-2.0320035e+51
-2.0888065e+51
-2.0879878e+51
-2.0891565e+51
-2.088439e+51
-2.0325036e+51
-2.0327668e+51
-2.0889653e+51
-2.0885024e+51
-1.8994913e+51
-1.8178963e+51
-1.7287631e+51
-1.6363945e+51
-1.976893e+51
-1.9231561e+51
-1.8702442e+51
-1.5428756e+51
-1.6165532e+51
-1.6660871e+51
-1.6668301e+51
-1.6168088e+51
-1.7664667e+51
-1.7158051e+51
-1.7667869e+51
-1.716627e+51
-1.8182523e+51
-1.8179857e+51
-1.869428e+51
-1.9222827e+51
-1.9760852e+51
-1.8938347e+51
-1.8109014e+51
-1.7232917e+51
-1.632703e+51
-1.5405538e+51
-1.6672964e+51
-1.7172994e+51
-1.4478531e+51
-1.5199886e+51
-1.5198922e+51
-1.5691256e+51
-1.5691097e+51
-1.6180187e+51
-1.6179822e+51
-1.6670085e+51
-1.7169665e+51
-1.767192e+51
-1.7670642e+51
-1.8179e+51
-1.8695968e+51
-1.818386e+51
-1.8701868e+51
-2.1401677e+51
-2.0028517e+51
-2.1152016e+51
-2.1175631e+51
-2.1942468e+51
-2.1919288e+51
-1.8979432e+51
-1.9877617e+51
-1.9909551e+51
-2.055163e+51
-2.0526426e+51
-2.1230917e+51
-2.1965525e+51
-2.1979015e+51
-2.1249404e+51
-1.8064292e+51
-1.883129e+51
-1.9378187e+51
-1.9414652e+51
-1.8867514e+51
-2.0015525e+51
-1.9985938e+51
-2.0606882e+51
-2.0628475e+51
-2.1285586e+51
-2.1299692e+51
-2.1999654e+51
-2.1989342e+51
-1.7178109e+51
-1.7896928e+51
-1.840487e+51
-1.8447895e+51
-1.7935496e+51
-1.8935208e+51
-1.951448e+51
-1.9472784e+51
-1.8979494e+51
-2.0046719e+51
-2.0657858e+51
-2.0679928e+51
-2.0079603e+51
-2.1994757e+51
-2.2002363e+51
-2.131419e+51
-2.132366e+51
-1.6287511e+51
-1.7026843e+51
-1.6997379e+51
-1.7524429e+51
-1.7489133e+51
-1.7984535e+51
-1.8490632e+51
-1.8535111e+51
-1.8024219e+51
-1.9017061e+51
-1.9554208e+51
-1.9599292e+51
-1.9063851e+51
-2.0152127e+51
-2.011462e+51
-2.0706389e+51
-2.0732117e+51
-1.5379996e+51
-1.6109587e+51
-1.6093415e+51
-1.6581188e+51
-1.6604968e+51
-1.7064163e+51
-1.7094554e+51
-1.7589949e+51
-1.7555651e+51
-1.8060332e+51
-1.8573246e+51
-1.8615149e+51
-1.8098666e+51
-1.9102044e+51
-1.9639297e+51
-1.968138e+51
-1.9145251e+51
-1.8130538e+51
-1.7623814e+51
-1.4464525e+51
-1.5173403e+51
-1.5660236e+51
-1.5677519e+51
-1.5189255e+51
-1.663031e+51
-1.614271e+51
-1.6158894e+51
-1.664344e+51
-1.7644857e+51
-1.7126829e+51
-1.7140872e+51
-1.86755e+51
-1.8643262e+51
-1.8158754e+51
-1.3545103e+51
-1.4248168e+51
-1.4263753e+51
-1.4254993e+51
-1.4731591e+51
-1.4734768e+51
-1.4256694e+51
-1.4737383e+51
-1.473581e+51
-1.5207012e+51
-1.5213372e+51
-1.5204946e+51
-1.5690127e+51
-1.5697111e+51
-1.568446e+51
-1.5697183e+51
-1.5697738e+51
-1.5214459e+51
-1.5212849e+51
-1.6187315e+51
-1.6170427e+51
-1.6660379e+51
-1.6680291e+51
-1.6671673e+51
-1.6682048e+51
-1.618144e+51
-1.6175604e+51
-1.6185084e+51
-1.6187558e+51
-1.66758e+51
-1.6672091e+51
-1.7159412e+51
-1.716737e+51
-1.7671994e+51
-1.7693398e+51
-1.7686476e+51
-1.7678355e+51
-1.7686884e+51
-1.719221e+51
-1.7185054e+51
-1.7171969e+51
-1.7185396e+51
-1.7173802e+51
-1.7674375e+51
-1.7661631e+51
-1.8710588e+51
-1.8703023e+51
-1.8703506e+51
-1.8711253e+51
-1.8191501e+51
-1.8192447e+51
-1.8192251e+51
-1.8191577e+51
-1.8192351e+51
-1.8192221e+51
-1.7695556e+51
-1.8192568e+51
-1.7695605e+51
-1.7194227e+51
-1.9843173e+51
-1.9011235e+51
-1.9853812e+51
-1.980024e+51
-2.0420335e+51
-2.0470462e+51
-2.0574317e+51
-1.9976599e+51
-1.9403569e+51
-1.8183176e+51
-1.8890041e+51
-1.8953273e+51
-1.9475454e+51
-2.0044712e+51
-2.0633567e+51
-1.7292881e+51
-1.8058054e+51
-1.8018236e+51
-1.8521374e+51
-1.8572738e+51
-1.9563299e+51
-1.9034076e+51
-1.909595e+51
-1.9628355e+51
-2.0187547e+51
-2.0124238e+51
-2.0707081e+51
-2.0766897e+51
-2.0812574e+51
-1.9684822e+51
-2.0239336e+51
-1.9149633e+51
-1.8620567e+51
-1.8108661e+51
-1.7601444e+51
-1.7094775e+51
-1.6368399e+51
-1.7115804e+51
-1.7626914e+51
-1.86596e+51
-1.8139675e+51
-1.9193222e+51
-1.9724915e+51
-2.0275421e+51
-2.0848099e+51
-1.9217302e+51
-1.8687464e+51
-1.5435388e+51
-1.6164976e+51
-1.6151192e+51
-1.6648546e+51
-1.6655401e+51
-1.6165251e+51
-1.6168385e+51
-1.6658678e+51
-1.6660383e+51
-1.7646896e+51
-1.7141598e+51
-1.7151957e+51
-1.7149691e+51
-1.7657336e+51
-1.7667481e+51
-1.7155377e+51
-1.7156702e+51
-1.7663151e+51
-1.7660844e+51
-1.8166677e+51
-1.8717279e+51
-1.8705033e+51
-1.8720076e+51
-1.8185703e+51
-1.8177387e+51
-1.8188121e+51
-1.8713016e+51
-1.8183609e+51
-1.8178931e+51
-1.870337e+51
-1.9262995e+51
-1.9253907e+51
-1.9239192e+51
-1.9258092e+51
-1.9781854e+51
-1.9790915e+51
-1.9771365e+51
-1.9785264e+51
-1.9749966e+51
-1.9783534e+51
-1.9249024e+51
-1.9238236e+51
-1.9775789e+51
-2.0323041e+51
-2.0323303e+51
-2.0320318e+51
-2.0320055e+51
-2.0887766e+51
-2.0876442e+51
-2.0874835e+51
-2.0884036e+51
-1.8900191e+51
-1.8094635e+51
-1.7229231e+51
-1.6325813e+51
-1.5405725e+51
-1.8702488e+51
-1.44811e+51
-1.5692443e+51
-1.5694177e+51
-1.5205613e+51
-1.5199515e+51
-1.6178034e+51
-1.666157e+51
-1.6670886e+51
-1.6182095e+51
-1.7665382e+51
-1.7158536e+51
-1.7668602e+51
-1.7166831e+51
-1.8182555e+51
-1.8179893e+51
-1.8694328e+51
-1.886374e+51
-1.8033351e+51
-1.7169611e+51
-1.6281579e+51
-1.5375391e+51
-1.4460433e+51
-1.6673791e+51
-1.7173026e+51
-1.3541994e+51
-1.4257274e+51
-1.4254326e+51
-1.473534e+51
-1.4735782e+51
-1.5211666e+51
-1.5210257e+51
-1.5691565e+51
-1.5691673e+51
-1.6180905e+51
-1.6180584e+51
-1.6670871e+51
-1.7169699e+51
-1.767197e+51
-1.7670689e+51
-2.1318967e+51
-1.9956949e+51
-2.1080454e+51
-2.1846704e+51
-2.1890253e+51
-2.1118933e+51
-1.8913294e+51
-2.0469623e+51
-1.9809478e+51
-1.9846354e+51
-2.0500141e+51
-2.1188744e+51
-2.1210741e+51
-2.1951456e+51
-2.1933389e+51
-1.799664e+51
-1.8764167e+51
-1.9314314e+51
-1.9349525e+51
-1.8799125e+51
-1.9932211e+51
-1.996349e+51
-2.0582193e+51
-2.0558087e+51
-2.1233919e+51
-2.1959306e+51
-2.1974321e+51
-2.1253307e+51
-1.7115029e+51
-1.7829118e+51
-1.7862552e+51
-1.8368882e+51
-1.8333114e+51
-1.8861733e+51
-1.940332e+51
-1.9437727e+51
-1.8896507e+51
-2.001825e+51
-1.9989545e+51
-2.0615197e+51
-2.0635658e+51
-2.128626e+51
-2.1300404e+51
-2.200036e+51
-2.1989922e+51
-1.6234165e+51
-1.6968104e+51
-1.6934057e+51
-1.7459399e+51
-1.7423663e+51
-1.7914562e+51
-1.8414444e+51
-1.8456903e+51
-1.795271e+51
-1.8937316e+51
-1.9517205e+51
-1.9475374e+51
-1.8981233e+51
-2.0047018e+51
-2.065819e+51
-2.0680239e+51
-2.0079892e+51
-1.534155e+51
-1.6533068e+51
-1.6047697e+51
-1.6069994e+51
-1.6557972e+51
-1.7038729e+51
-1.7010287e+51
-1.7525132e+51
-1.7490215e+51
-1.7985658e+51
-1.8492628e+51
-1.8536718e+51
-1.8025264e+51
-1.9017242e+51
-1.9554479e+51
-1.9599508e+51
-1.9064002e+51
-1.4438393e+51
-1.5626425e+51
-1.5138862e+51
-1.5157642e+51
-1.5641623e+51
-1.6120142e+51
-1.6105474e+51
-1.658084e+51
-1.6603855e+51
-1.7065018e+51
-1.7095491e+51
-1.759123e+51
-1.7556785e+51
-1.8060439e+51
-1.8573398e+51
-1.86153e+51
-1.8098796e+51
-1.7623944e+51
-1.3530495e+51
-1.4230341e+51
-1.4710896e+51
-1.4723534e+51
-1.4239636e+51
-1.5184902e+51
-1.5660007e+51
-1.5677777e+51
-1.5200981e+51
-1.6631505e+51
-1.6143789e+51
-1.6159638e+51
-1.6644422e+51
-1.7644983e+51
-1.7126933e+51
-1.7140982e+51
-1.2619075e+51
-1.3316508e+51
-1.3795767e+51
-1.3797657e+51
-1.3323898e+51
-1.3326163e+51
-1.3318211e+51
-1.379253e+51
-1.3792904e+51
-1.4258931e+51
-1.4271647e+51
-1.4263996e+51
-1.4265938e+51
-1.4729651e+51
-1.4735713e+51
-1.4742425e+51
-1.4262726e+51
-1.4736379e+51
-1.4738465e+51
-1.5207759e+51
-1.521071e+51
-1.5213586e+51
-1.5211386e+51
-1.5690549e+51
-1.5692537e+51
-1.5695023e+51
-1.5685351e+51
-1.5697883e+51
-1.5698741e+51
-1.5215254e+51
-1.5213278e+51
-1.6187357e+51
-1.6170507e+51
-1.6660495e+51
-1.6686287e+51
-1.6681411e+51
-1.6671772e+51
-1.6683165e+51
-1.6181833e+51
-1.6184442e+51
-1.6175671e+51
-1.61856e+51
-1.6187586e+51
-1.667587e+51
-1.6672143e+51
-1.7695835e+51
-1.7695255e+51
-1.7686571e+51
-1.7687003e+51
-1.7193964e+51
-1.719425e+51
-1.7185159e+51
-1.7185504e+51
-1.7695362e+51
-1.7695526e+51
-1.7194243e+51
-1.7695969e+51
-1.7194266e+51
-1.6686566e+51
-1.9777019e+51
-2.0351454e+51
-1.9720052e+51
-1.891902e+51
-1.9756814e+51
-2.0381711e+51
-1.8094673e+51
-1.9290429e+51
-1.8786698e+51
-1.8838453e+51
-1.9344092e+51
-1.991472e+51
-1.9865202e+51
-2.0471913e+51
-2.0518658e+51
-2.057877e+51
-1.9981942e+51
-1.9424462e+51
-1.7232917e+51
-1.7975684e+51
-1.7931395e+51
-1.8418482e+51
-1.8472519e+51
-1.8911195e+51
-1.8973734e+51
-1.9493313e+51
-2.0049521e+51
-2.0638047e+51
-1.6330607e+51
-1.7539245e+51
-1.7040843e+51
-1.7071175e+51
-1.757284e+51
-1.8072406e+51
-1.8033028e+51
-1.8525428e+51
-1.8576512e+51
-1.9566109e+51
-1.9035643e+51
-1.9097826e+51
-1.9630992e+51
-2.018786e+51
-2.0124535e+51
-2.0707523e+51
-2.0767252e+51
-1.9685091e+51
-1.9149859e+51
-1.8622763e+51
-1.8110172e+51
-1.760191e+51
-1.7106537e+51
-1.6618202e+51
-1.6125198e+51
-1.5410987e+51
-1.614012e+51
-1.6635322e+51
-1.7126928e+51
-1.7627102e+51
-1.8661873e+51
-1.8141472e+51
-1.9193419e+51
-1.9725118e+51
-1.8687655e+51
-1.52186e+51
-1.5219352e+51
-1.5203123e+51
-1.4488094e+51
-1.5686013e+51
-1.5694426e+51
-1.5695725e+51
-1.5697288e+51
-1.5209578e+51
-1.6172237e+51
-1.6169776e+51
-1.6162437e+51
-1.6646442e+51
-1.6657008e+51
-1.6665452e+51
-1.6177591e+51
-1.6176479e+51
-1.6661181e+51
-1.6659308e+51
-1.7648484e+51
-1.7142712e+51
-1.7156777e+51
-1.7152542e+51
-1.7157218e+51
-1.7664518e+51
-1.7658374e+51
-1.766587e+51
-1.715578e+51
-1.7156978e+51
-1.7663791e+51
-1.7661458e+51
-1.8166822e+51
-1.8718941e+51
-1.8725129e+51
-1.8705192e+51
-1.8722306e+51
-1.8188449e+51
-1.8186267e+51
-1.8177496e+51
-1.8188663e+51
-1.8713126e+51
-1.8183677e+51
-1.8178975e+51
-1.8703438e+51
-1.9265818e+51
-1.9265088e+51
-1.9254025e+51
-1.9258262e+51
-1.978203e+51
-1.9794614e+51
-1.9795113e+51
-1.9785444e+51
-2.0323236e+51
-2.0323019e+51
-2.0323504e+51
-2.0876428e+51
-2.0874237e+51
-2.0874673e+51
-1.8824034e+51
-1.8017232e+51
-1.7166317e+51
-1.6281299e+51
-1.5376154e+51
-1.4461802e+51
-1.4742215e+51
-1.4261256e+51
-1.3545258e+51
-1.4257044e+51
-1.473555e+51
-1.5692842e+51
-1.5694733e+51
-1.5217719e+51
-1.5211053e+51
-1.6178368e+51
-1.6662023e+51
-1.6671418e+51
-1.6182632e+51
-1.7665416e+51
-1.7158562e+51
-1.7668644e+51
-1.7166863e+51
-1.8794982e+51
-1.7963346e+51
-1.710577e+51
-1.6230536e+51
-1.5338556e+51
-1.4435183e+51
-1.3526963e+51
-1.6673834e+51
-1.2615648e+51
-1.3317707e+51
-1.3795454e+51
-1.3797447e+51
-1.3318024e+51
-1.4269244e+51
-1.4265603e+51
-1.4735087e+51
-1.4735805e+51
-1.5212142e+51
-1.5210884e+51
-1.569232e+51
-1.5692273e+51
-1.6180946e+51
-1.6180633e+51
-1.6670914e+51
-2.122848e+51
-1.9874497e+51
-2.1761943e+51
-2.0992506e+51
-2.1040932e+51
-2.1805801e+51
-1.8841448e+51
-1.9732286e+51
-1.9770306e+51
-2.0432772e+51
-2.0395591e+51
-2.112789e+51
-2.1863986e+51
-2.1906856e+51
-2.1160158e+51
-1.792928e+51
-1.8731343e+51
-1.8694667e+51
-1.9244724e+51
-1.9282245e+51
-2.0497267e+51
-1.9862415e+51
-1.9898647e+51
-2.0530137e+51
-2.1184271e+51
-2.1211515e+51
-2.1942128e+51
-2.1933846e+51
-1.7052011e+51
-1.7794989e+51
-1.7762462e+51
-1.8299748e+51
-1.8265295e+51
-1.8794083e+51
-1.9341357e+51
-1.9375502e+51
-1.8828372e+51
-1.9939814e+51
-1.99702e+51
-2.0591519e+51
-2.0568686e+51
-2.1234467e+51
-2.1959373e+51
-2.197441e+51
-2.1253925e+51
-1.6178074e+51
-1.690936e+51
-1.687518e+51
-1.7393725e+51
-1.7360489e+51
-1.7847202e+51
-1.7879662e+51
-1.8377577e+51
-1.8343033e+51
-1.8863724e+51
-1.9405596e+51
-1.9439849e+51
-1.8898464e+51
-2.0018533e+51
-1.9989869e+51
-2.0615656e+51
-2.0636062e+51
-1.5296679e+51
-1.5993509e+51
-1.6020038e+51
-1.6504175e+51
-1.6473697e+51
-1.698094e+51
-1.6947015e+51
-1.746107e+51
-1.742569e+51
-1.79159e+51
-1.8416585e+51
-1.845844e+51
-1.7953697e+51
-1.8937516e+51
-1.9517454e+51
-1.9475672e+51
-1.8981384e+51
-1.4405126e+51
-1.5583829e+51
-1.5098509e+51
-1.5119611e+51
-1.5604801e+51
-1.6533702e+51
-1.6059986e+51
-1.6080698e+51
-1.6557112e+51
-1.7039323e+51
-1.7010833e+51
-1.7525866e+51
-1.7491043e+51
-1.7985725e+51
-1.8492753e+51
-1.853682e+51
-1.8025336e+51
-1.3507986e+51
-1.4199352e+51
-1.4678176e+51
-1.4697206e+51
-1.4218354e+51
-1.5625018e+51
-1.5148968e+51
-1.5167783e+51
-1.5639558e+51
-1.6120769e+51
-1.610589e+51
-1.6581483e+51
-1.6604643e+51
-1.7065092e+51
-1.7095586e+51
-1.7591343e+51
-1.7556872e+51
-1.2604652e+51
-1.3301621e+51
-1.3313892e+51
-1.3784919e+51
-1.37754e+51
-1.4241125e+51
-1.470991e+51
-1.4722211e+51
-1.4249702e+51
-1.5185777e+51
-1.5661061e+51
-1.5678617e+51
-1.5201809e+51
-1.6631609e+51
-1.6143891e+51
-1.6159721e+51
-1.664452e+51
-1.1701028e+51
-1.2400477e+51
-1.2396445e+51
-1.2393834e+51
-1.2866737e+51
-1.2870713e+51
-1.2406722e+51
-1.2865413e+51
-1.2865667e+51
-1.3326227e+51
-1.3793723e+51
-1.379965e+51
-1.3803836e+51
-1.3330371e+51
-1.3326191e+51
-1.3334591e+51
-1.3330406e+51
-1.3791389e+51
-1.3794831e+51
-1.4259625e+51
-1.427273e+51
-1.4271879e+51
-1.4271423e+51
-1.4266363e+51
-1.4730477e+51
-1.4736278e+51
-1.4738527e+51
-1.4739333e+51
-1.4263347e+51
-1.4737016e+51
-1.4738706e+51
-1.5207819e+51
-1.5210395e+51
-1.5208803e+51
-1.5213598e+51
-1.5211188e+51
-1.5690581e+51
-1.5692084e+51
-1.5691785e+51
-1.5694799e+51
-1.5685422e+51
-1.5697907e+51
-1.5698798e+51
-1.5215299e+51
-1.5213296e+51
-1.6687032e+51
-1.6686919e+51
-1.668146e+51
-1.6683217e+51
-1.6181838e+51
-1.6183248e+51
-1.61838e+51
-1.6185603e+51
-1.7194009e+51
-1.7194274e+51
-1.7194315e+51
-1.6686719e+51
-1.6686695e+51
-1.6182241e+51
-1.9725206e+51
-1.8846326e+51
-1.9692344e+51
-1.9668148e+51
-2.0309501e+51
-2.03282e+51
-2.0408401e+51
-1.978962e+51
-1.9208991e+51
-1.8709383e+51
-1.8016522e+51
-1.8747973e+51
-1.924776e+51
-1.9824153e+51
-2.0436796e+51
-1.7168152e+51
-1.7890391e+51
-1.7850187e+51
-1.8326194e+51
-1.8373194e+51
-1.931476e+51
-1.8809445e+51
-1.8859737e+51
-1.9366404e+51
-1.9920853e+51
-1.9871961e+51
-2.0478828e+51
-2.0524871e+51
-2.0579234e+51
-1.9982259e+51
-1.9427968e+51
-1.7468727e+51
-1.698415e+51
-1.6286087e+51
-1.7014884e+51
-1.7505294e+51
-1.7987601e+51
-1.7943327e+51
-1.8419613e+51
-1.8473782e+51
-1.8912323e+51
-1.8974676e+51
-1.949598e+51
-2.0049776e+51
-2.0638449e+51
-1.5381966e+51
-1.610865e+51
-1.6088504e+51
-1.6572295e+51
-1.659802e+51
-1.7538898e+51
-1.7051494e+51
-1.7082032e+51
-1.7572673e+51
-1.8073564e+51
-1.8033975e+51
-1.8526851e+51
-1.8578151e+51
-1.9566323e+51
-1.9035809e+51
-1.9098019e+51
-1.9631231e+51
-1.8622977e+51
-1.8110327e+51
-1.7603291e+51
-1.7107479e+51
-1.661652e+51
-1.6135962e+51
-1.5659281e+51
-1.5175039e+51
-1.4467721e+51
-1.5186775e+51
-1.5672137e+51
-1.6150186e+51
-1.66335e+51
-1.7127946e+51
-1.7628556e+51
-1.8662083e+51
-1.8141647e+51
-1.522792e+51
-1.5226585e+51
-1.4748293e+51
-1.5228888e+51
-1.4747832e+51
-1.5216692e+51
-1.4740114e+51
-1.3549568e+51
-1.4254882e+51
-1.4748285e+51
-1.4269535e+51
-1.4266086e+51
-1.4265542e+51
-1.5685692e+51
-1.5697654e+51
-1.570684e+51
-1.5698947e+51
-1.5697171e+51
-1.5222994e+51
-1.6178376e+51
-1.6172982e+51
-1.6178888e+51
-1.6163326e+51
-1.6647443e+51
-1.6662458e+51
-1.6657628e+51
-1.6662817e+51
-1.6177887e+51
-1.617696e+51
-1.6661566e+51
-1.66598e+51
-1.7648616e+51
-1.7142814e+51
-1.7156791e+51
-1.7156812e+51
-1.7152592e+51
-1.7156929e+51
-1.7664277e+51
-1.76643e+51
-1.7658444e+51
-1.766531e+51
-1.7155806e+51
-1.7157e+51
-1.7663829e+51
-1.7661498e+51
-1.8718975e+51
-1.8724524e+51
-1.8725676e+51
-1.8722367e+51
-1.8186778e+51
-1.8186894e+51
-1.8186271e+51
-1.8188632e+51
-1.9265905e+51
-1.9266511e+51
-1.9265053e+51
-1.979476e+51
-1.9795512e+51
-1.9795355e+51
-2.0323179e+51
-2.0323163e+51
-2.0874276e+51
-2.0874125e+51
-1.8755812e+51
-1.7946545e+51
-1.7102294e+51
-1.6231516e+51
-1.5340301e+51
-1.4437081e+51
-1.3528749e+51
-1.4742817e+51
-1.4273334e+51
-1.3802619e+51
-1.2618129e+51
-1.3325556e+51
-1.3801055e+51
-1.3324425e+51
-1.4269156e+51
-1.4735274e+51
-1.5693598e+51
-1.5695388e+51
-1.5218397e+51
-1.5211671e+51
-1.6178385e+51
-1.6662043e+51
-1.6671445e+51
-1.6182661e+51
-1.8724241e+51
-1.7895032e+51
-1.7042065e+51
-1.617564e+51
-1.5295884e+51
-1.4403703e+51
-1.3504786e+51
-1.2602096e+51
-1.169809e+51
-1.2393419e+51
-1.2395626e+51
-1.2864125e+51
-1.286522e+51
-1.3327959e+51
-1.3794952e+51
-1.3797038e+51
-1.3328104e+51
-1.4269476e+51
-1.4266069e+51
-1.4735656e+51
-1.4736262e+51
-1.5212173e+51
-1.5210926e+51
-1.5692368e+51
-1.5692308e+51
-2.1135816e+51
-1.978569e+51
-2.0899956e+51
-2.094778e+51
-2.1714524e+51
-2.1668594e+51
-1.8762635e+51
-1.96458e+51
-2.0307901e+51
-2.0356339e+51
-1.9692954e+51
-2.1777577e+51
-2.1039359e+51
-2.1087126e+51
-2.1820269e+51
-1.7859082e+51
-1.8659538e+51
-1.8618705e+51
-1.9168137e+51
-1.9207412e+51
-1.9780425e+51
-1.9818059e+51
-2.0458833e+51
-2.0426994e+51
-2.1139683e+51
-2.1875893e+51
-2.1915651e+51
-2.1162878e+51
-1.6988071e+51
-1.7694921e+51
-1.7728825e+51
-1.8232144e+51
-1.8196532e+51
-1.8759924e+51
-1.8725016e+51
-1.9271731e+51
-1.9307873e+51
-2.0499796e+51
-1.9870092e+51
-1.9906688e+51
-2.0539742e+51
-2.1184532e+51
-2.1211894e+51
-2.1942034e+51
-2.1933807e+51
-1.61214e+51
-1.6813808e+51
-1.6845147e+51
-1.7327366e+51
-1.729608e+51
-1.7811376e+51
-1.7780087e+51
-1.8308063e+51
-1.8274669e+51
-1.8795106e+51
-1.9343937e+51
-1.9378465e+51
-1.8829643e+51
-1.9940248e+51
-1.9970595e+51
-2.0592175e+51
-2.0569363e+51
-1.5247009e+51
-1.5935076e+51
-1.64157e+51
-1.6448294e+51
-1.596471e+51
-1.6923252e+51
-1.6888772e+51
-1.7395978e+51
-1.7363165e+51
-1.7848566e+51
-1.7880803e+51
-1.8379337e+51
-1.8345112e+51
-1.886392e+51
-1.9405881e+51
-1.944012e+51
-1.8898652e+51
-1.4365762e+51
-1.5533403e+51
-1.5051369e+51
-1.5075322e+51
-1.555817e+51
-1.6005054e+51
-1.6030305e+51
-1.6503589e+51
-1.6473795e+51
-1.6981583e+51
-1.694778e+51
-1.7461819e+51
-1.7426631e+51
-1.7915972e+51
-1.8416711e+51
-1.8458531e+51
-1.7953757e+51
-1.3478431e+51
-1.418303e+51
-1.4164521e+51
-1.4640441e+51
-1.4660385e+51
-1.5582066e+51
-1.5107921e+51
-1.5128557e+51
-1.5602298e+51
-1.6534282e+51
-1.6060557e+51
-1.6081258e+51
-1.6557761e+51
-1.7039372e+51
-1.7010875e+51
-1.7525919e+51
-1.7491097e+51
-1.2584413e+51
-1.3278495e+51
-1.3747277e+51
-1.3765804e+51
-1.3293104e+51
-1.4209295e+51
-1.4676066e+51
-1.4695364e+51
-1.4228652e+51
-1.5625804e+51
-1.5149752e+51
-1.5168209e+51
-1.5640222e+51
-1.6120832e+51
-1.6105929e+51
-1.658154e+51
-1.6604721e+51
-1.1686445e+51
-1.2376179e+51
-1.2849e+51
-1.2860338e+51
-1.2385857e+51
-1.3313145e+51
-1.3325928e+51
-1.3784433e+51
-1.3774581e+51
-1.4241842e+51
-1.4710795e+51
-1.4723136e+51
-1.4250468e+51
-1.5185862e+51
-1.5661159e+51
-1.5678695e+51