/*--------------------------------*- C++ -*----------------------------------*\
  =========                 |
  \\      /  F ield         | OpenFOAM: The Open Source CFD Toolbox
   \\    /   O peration     | Website:  https://openfoam.org
    \\  /    A nd           | Version:  7
     \\/     M anipulation  |
\*---------------------------------------------------------------------------*/
FoamFile
{
    version     2.0;
    format      ascii;
    class       volVectorField;
    location    "4000";
    object      U;
}
// * * * * * * * * * * * * * * * * * * * * * * * * * * * * * * * * * * * * * //

dimensions      [0 1 -1 0 0 0 0];

internalField   nonuniform List<vector> 
34387
(
(-8.4276043e+24 1.171963e+23 -5.928953e+22)
(-8.3114575e+24 -1.199682e+23 -1.0565627e+23)
(-5.4732489e+24 -3.870491e+22 -6.8061875e+22)
(-8.4251931e+24 -1.6849515e+23 -1.9923407e+22)
(-9.07684e+24 2.3672782e+23 7.4317298e+22)
(-8.650826e+24 -1.0750217e+23 -1.3943054e+23)
(-5.3547274e+24 -6.0171612e+22 7.9231192e+23)
(-5.2120311e+24 3.0526662e+23 -7.9218833e+23)
(-5.3319409e+24 -5.6586495e+22 -7.8828031e+23)
(-5.6670949e+24 2.3202662e+23 7.774024e+23)
(-8.2695377e+24 -1.7439673e+23 -1.3904335e+23)
(-5.2168197e+24 8.6968102e+23 1.4405351e+23)
(-5.3292083e+24 7.946833e+23 -2.4932962e+23)
(-5.2733657e+24 -6.8772567e+23 1.5678589e+23)
(-5.0403319e+24 -7.3255004e+23 -1.3913984e+23)
(-5.3423267e+24 2.6128344e+23 -8.209229e+23)
(-5.3096939e+24 -1.7628974e+23 7.1356734e+23)
(-5.2709083e+24 1.9869126e+23 8.0249769e+23)
(-5.135816e+24 -5.4148008e+22 -8.0943073e+23)
(-5.8083196e+24 -4.3277024e+22 -9.8560715e+22)
(-5.6554528e+24 -4.8223004e+22 -7.2374801e+22)
(-5.0377046e+24 -3.7153119e+22 -5.8301296e+22)
(-8.549729e+24 -1.6910288e+23 1.0408025e+22)
(-8.6199766e+24 -2.0731736e+23 -4.1133491e+22)
(-8.4060436e+24 -1.9955953e+23 -3.43256e+22)
(-5.3665055e+24 7.8670536e+23 1.0747038e+23)
(-5.3706735e+24 7.6525767e+23 -2.108405e+23)
(-5.2508924e+24 -6.8059807e+23 1.2325548e+23)
(-5.1696955e+24 -6.4378027e+23 -1.8980671e+23)
(-9.5529872e+24 2.1277126e+23 3.3180152e+22)
(-8.7745147e+24 -2.0551423e+23 -2.1367373e+23)
(-5.4093704e+24 3.1029945e+23 -7.3429733e+23)
(-5.4045449e+24 -1.2442613e+23 8.8754677e+23)
(-5.7526263e+24 3.2308516e+23 9.0538388e+23)
(-5.4309585e+24 5.5609043e+21 -7.1548705e+23)
(-8.474437e+24 -1.9783092e+23 -1.5043836e+23)
(-5.3387273e+24 -1.0312349e+23 7.5281362e+23)
(-5.4558977e+24 -1.1428241e+23 -7.5069209e+23)
(-5.346396e+24 2.5500283e+23 -7.2736817e+23)
(-5.6093362e+24 1.6224051e+23 7.1245832e+23)
(-5.2796142e+24 1.0755739e+23 -1.1040971e+23)
(-5.3040671e+24 1.3872606e+23 4.0441178e+21)
(-5.7774459e+24 7.3741172e+22 1.3214462e+22)
(-5.8086334e+24 9.2984673e+21 -1.1133181e+23)
(-8.1774617e+24 -1.9321858e+23 -1.2844294e+23)
(-5.0804603e+24 -6.8073431e+23 1.6470802e+23)
(-5.1887465e+24 7.7288274e+23 -2.3813185e+23)
(-5.3167895e+24 7.7908344e+23 6.0136524e+22)
(-5.1475415e+24 -7.2421898e+23 -1.3860658e+23)
(-5.1171441e+24 2.301755e+23 -7.7239016e+23)
(-5.1440308e+24 -2.0455049e+23 6.9523261e+23)
(-5.3134304e+24 9.0785231e+22 7.0126328e+23)
(-5.3111911e+24 -8.9516032e+22 -7.9658201e+23)
(-5.3096496e+24 -3.9557822e+22 2.0491676e+22)
(-5.5157455e+24 -1.0402928e+22 -5.6166605e+22)
(-5.3893845e+24 -1.0632401e+23 -3.3122135e+22)
(-5.6725984e+24 1.4703396e+22 -5.8121725e+22)
(-5.2401432e+24 -4.3350388e+21 1.0799597e+22)
(-5.3822753e+24 8.1220191e+22 2.0772312e+22)
(-5.7124224e+24 3.7471063e+22 -8.9285955e+21)
(-5.4112417e+24 4.4509594e+22 -1.3434207e+23)
(-5.4455389e+24 8.2386867e+22 -6.931417e+22)
(-5.3883675e+24 8.2698984e+22 -1.3513438e+22)
(-5.4865414e+24 -5.5984337e+22 -1.3028928e+23)
(-5.8460455e+24 -5.7431189e+22 -1.0482083e+23)
(-4.9824867e+24 -4.1250153e+22 -9.2384371e+22)
(-5.4250494e+24 -8.1040572e+22 -8.3088105e+22)
(-5.1156197e+24 -5.238912e+22 -6.1961095e+22)
(-4.7052078e+24 -3.621788e+22 -4.2423829e+22)
(-8.4828327e+24 -1.8725245e+23 8.1579243e+22)
(-8.7590452e+24 -2.8230412e+23 -1.0094071e+22)
(-8.4764837e+24 -2.1770493e+23 1.3453185e+22)
(-5.4271808e+24 7.860333e+23 1.6330005e+23)
(-5.6891108e+24 7.4962163e+23 -1.550985e+23)
(-5.5333644e+24 -6.8847837e+23 1.5353016e+23)
(-5.2479684e+24 -6.7561629e+23 -1.8552012e+23)
(-8.6398147e+24 -8.8511154e+23 -1.6073929e+23)
(-8.3731657e+24 -2.7305471e+23 -5.4157335e+22)
(-8.2854668e+24 -1.9124779e+23 -2.8984367e+22)
(-5.3760369e+24 7.1712034e+23 1.1300704e+23)
(-5.4122388e+24 7.2093983e+23 -2.0541301e+23)
(-5.3120136e+24 -6.3268019e+23 1.0540879e+23)
(-5.2521104e+24 -6.2609764e+23 -1.9528335e+23)
(-5.2028028e+24 -7.6941307e+22 -9.1992566e+22)
(-5.2890412e+24 -1.0501266e+23 -5.8490773e+22)
(-5.3057766e+24 -5.7964418e+21 -4.2085646e+22)
(-5.1795335e+24 4.0827925e+22 -5.4910772e+22)
(-1.0202492e+25 1.2315797e+23 -5.291702e+22)
(-8.7640083e+24 -2.2133903e+23 -9.4373967e+23)
(-5.7661351e+24 2.9778823e+23 9.7136813e+23)
(-5.6852023e+24 -1.2817362e+23 9.6213777e+23)
(-5.4567943e+24 2.6853512e+23 -7.0333007e+23)
(-5.2602879e+24 -5.9710036e+22 -6.8654609e+23)
(-8.3874297e+24 -3.3412279e+23 -2.9050849e+23)
(-5.3560814e+24 -1.7125178e+23 7.6229796e+23)
(-5.5024739e+24 2.0148314e+23 -6.5658149e+23)
(-5.6355514e+24 -7.0567683e+22 -7.0091935e+23)
(-5.6734159e+24 2.1585981e+23 7.365013e+23)
(-5.4228053e+24 1.6786006e+23 1.5357877e+22)
(-5.4244756e+24 9.9933799e+22 -1.0513847e+23)
(-5.890781e+24 1.0078181e+23 -1.1384469e+23)
(-5.7979846e+24 1.9733961e+23 -1.2313462e+21)
(-8.3341985e+24 -2.2621064e+23 -1.4256892e+23)
(-5.4338365e+24 -1.2934975e+23 6.8364742e+23)
(-5.5237058e+24 -1.3797607e+23 -7.0781337e+23)
(-5.4351221e+24 2.0913779e+23 -6.8338857e+23)
(-5.5911804e+24 1.3775194e+23 6.5684539e+23)
(-5.461733e+24 3.8359315e+22 -1.0762982e+23)
(-5.8278781e+24 -4.0189157e+22 -3.9009178e+21)
(-5.4451741e+24 4.3070811e+22 4.1919292e+21)
(-5.8647592e+24 -6.6164478e+22 -1.2068746e+23)
(-4.9983734e+24 1.0917951e+23 -3.262973e+22)
(-5.0532968e+24 1.4740461e+23 -3.9609629e+22)
(-5.3415267e+24 8.4953144e+22 -3.2912762e+22)
(-5.6211449e+24 1.0625378e+22 -3.2821173e+22)
(-8.0867501e+24 -1.7442497e+23 -1.1745148e+23)
(-5.2097564e+24 -2.0334899e+23 6.8276746e+23)
(-5.1285665e+24 1.8318869e+23 -7.1848311e+23)
(-5.1843957e+24 -1.4599829e+23 -7.5765056e+23)
(-5.3375901e+24 7.1913256e+22 7.1133881e+23)
(-5.3922911e+24 6.862115e+23 4.8658733e+22)
(-5.2761603e+24 7.1059845e+23 -2.5461015e+23)
(-5.1178424e+24 -6.6581103e+23 1.4000558e+23)
(-5.3345551e+24 -7.3758831e+23 -1.9010058e+23)
(-5.2607753e+24 2.7173983e+21 -4.1728014e+22)
(-5.253965e+24 -1.143354e+23 -5.7650966e+22)
(-5.5146571e+24 -9.5310396e+22 -9.9271379e+22)
(-5.7419095e+24 -6.879896e+22 -1.2613832e+23)
(-5.476584e+24 -1.0372025e+22 -5.5996594e+22)
(-5.6706619e+24 1.2607845e+22 -3.6179674e+22)
(-5.214942e+24 1.5171584e+22 -1.4250549e+22)
(-5.1894259e+24 -1.4769613e+22 -1.2766446e+23)
(-5.569705e+24 -5.4204536e+22 -9.9492491e+22)
(-5.6855019e+24 -1.4582758e+21 -3.3553151e+22)
(-5.6075539e+24 -9.5329261e+22 -1.3474724e+23)
(-4.6041849e+24 2.4601068e+21 1.9921686e+22)
(-5.5775971e+24 -7.749199e+22 -1.1960018e+23)
(-5.0847159e+24 -1.4763665e+22 -3.0541103e+22)
(-5.1024162e+24 -1.3588031e+22 -6.4550977e+22)
(-5.4513702e+24 6.4512191e+22 -6.3599496e+22)
(-3.8510486e+24 -5.6201893e+21 1.4871703e+22)
(-5.3791187e+24 -9.1688326e+21 2.8309107e+22)
(-5.124226e+24 5.3953483e+22 -4.3273957e+22)
(-4.9189969e+24 6.1120754e+22 -2.8262654e+22)
(-4.9107783e+24 8.258519e+22 -1.8100914e+22)
(-4.3635825e+24 9.5873273e+22 -1.9827944e+22)
(-5.9457866e+24 -9.3905304e+22 -1.5447499e+23)
(-5.6985995e+24 -3.3792212e+22 -8.5847489e+22)
(-4.9637419e+24 -4.8862131e+22 -1.6031813e+23)
(-5.9594023e+24 -1.0682284e+23 -1.4481402e+23)
(-5.0091347e+24 -6.2870893e+22 -1.0156444e+23)
(-4.3478576e+24 -3.715069e+22 -7.1882695e+22)
(-5.2784947e+24 -3.7414007e+22 -4.7609004e+22)
(-4.7929909e+24 -1.1936027e+23 -7.044578e+22)
(-4.5821005e+24 -5.9142284e+22 -4.3654218e+22)
(-4.5230756e+24 -3.3317651e+22 -3.0198299e+22)
(-8.8436157e+24 -3.0121147e+23 7.7166892e+22)
(-5.2793026e+24 2.2425139e+23 7.9619654e+23)
(-8.3629159e+24 -2.7061071e+23 1.1722626e+23)
(-5.3859999e+24 -2.3908172e+23 -8.4113624e+23)
(-5.3847339e+24 1.1536468e+23 -8.6036247e+23)
(-5.2038282e+24 -1.2657165e+23 8.422665e+23)
(-5.1882147e+24 8.4143723e+23 2.5209638e+23)
(-5.5514318e+24 8.1781576e+23 -1.0297782e+23)
(-5.3865992e+24 -8.1844084e+23 1.8539361e+23)
(-5.0466036e+24 -7.4209598e+23 -1.8064564e+23)
(-8.7279949e+24 -1.0365238e+24 -3.4693987e+22)
(-8.3699996e+24 -3.2571364e+23 -2.6992362e+22)
(-5.5751837e+24 -6.6428472e+23 1.6057293e+23)
(-5.6596987e+24 6.6918859e+23 -1.2303304e+23)
(-8.335187e+24 -2.2097297e+23 5.273259e+21)
(-5.5217243e+24 7.2696335e+23 1.792638e+23)
(-5.3861148e+24 -6.2664759e+23 -1.4598181e+23)
(-5.5071792e+24 -1.0360348e+23 1.2266513e+21)
(-5.9289431e+24 -1.0395976e+23 3.4635385e+22)
(-5.8879541e+24 9.4274254e+20 2.5869379e+22)
(-5.4617505e+24 -1.1787905e+22 -2.3231107e+22)
(-8.0823992e+24 -5.8752686e+23 -1.6552513e+23)
(-8.2410516e+24 -2.5417889e+23 -4.4292597e+22)
(-8.1868782e+24 -1.8780864e+23 -2.2282339e+22)
(-5.5036042e+24 6.6475111e+23 -1.7149126e+23)
(-5.3746792e+24 -6.130733e+23 1.0834736e+23)
(-5.3984591e+24 6.6377269e+23 1.0920591e+23)
(-5.2733796e+24 -6.1123243e+23 -1.6741398e+23)
(-5.2679264e+24 -1.1445534e+23 -8.1284935e+22)
(-5.4122575e+24 -1.125168e+23 -6.953908e+22)
(-5.3635774e+24 -1.1906062e+22 -7.271449e+22)
(-5.2881162e+24 -9.6749754e+21 -9.2220769e+22)
(-5.433872e+24 -1.8521524e+22 -9.9097711e+22)
(-4.7777592e+24 -2.1993332e+22 -5.8020104e+22)
(-4.3672168e+24 -3.0425173e+22 -3.8440076e+22)
(-4.3888767e+24 -2.0964264e+21 -5.9333199e+22)
(-1.0865674e+25 6.943278e+22 -1.1798266e+23)
(-8.8951454e+24 -8.3483811e+22 -1.1816164e+24)
(-5.4805777e+24 -8.6497147e+22 -6.7876632e+23)
(-5.5342924e+24 2.167169e+23 -7.0263103e+23)
(-5.8451405e+24 -1.9392395e+23 1.1001798e+24)
(-6.1341449e+24 3.2061163e+23 1.0574319e+24)
(-8.1594738e+24 -3.3362511e+23 -5.8231732e+23)
(-5.7468161e+24 1.4884923e+23 6.7289935e+23)
(-5.4210404e+24 -1.0313951e+23 6.8819772e+23)
(-5.672941e+24 2.8432398e+23 -7.2788532e+23)
(-5.6461581e+24 -1.1796348e+23 -7.3157662e+23)
(-5.6064484e+24 8.917382e+22 -1.2419341e+23)
(-5.5925567e+24 1.3559679e+23 -1.0591095e+23)
(-5.507952e+24 1.4247921e+23 4.7640474e+22)
(-5.5394407e+24 1.2938645e+23 1.7764579e+22)
(-8.252911e+24 -3.2586975e+23 -2.0454294e+23)
(-5.2929937e+24 -1.5162007e+23 6.1583404e+23)
(-5.4322581e+24 1.6659345e+23 -6.8356046e+23)
(-5.6077453e+24 -1.0993e+23 -7.2025508e+23)
(-5.4705821e+24 1.598402e+23 5.9002684e+23)
(-5.4087266e+24 1.011384e+22 -1.246247e+23)
(-5.584523e+24 3.9115393e+21 -5.9285281e+21)
(-5.965218e+24 3.9291961e+22 -4.0967475e+21)
(-5.9713511e+24 3.7775892e+21 -1.3600274e+23)
(-6.1386892e+24 1.4758859e+23 -5.2088499e+22)
(-5.4337759e+24 7.2222356e+22 -5.0067179e+22)
(-5.4594682e+24 1.0510011e+23 -3.5658916e+22)
(-5.7683373e+24 1.8587675e+23 -4.9607158e+22)
(-5.6454041e+24 -2.1739871e+23 6.3120058e+23)
(-8.2067294e+24 -1.9858687e+23 -1.1355616e+23)
(-5.5086207e+24 -1.5388835e+23 -6.7630104e+23)
(-5.5591188e+24 1.305701e+23 -6.5697544e+23)
(-5.4956014e+24 1.1373613e+23 6.208774e+23)
(-5.5583773e+24 1.674281e+22 -1.1658009e+23)
(-5.8058925e+24 -5.6712952e+22 -1.6170582e+22)
(-5.5913985e+24 2.5457921e+22 -1.1914092e+22)
(-5.8114581e+24 -5.769034e+22 -1.2289771e+23)
(-5.0006276e+24 5.5998821e+22 -2.6403804e+22)
(-5.4734538e+24 -3.1736815e+22 -4.0519038e+22)
(-4.9638735e+24 6.234694e+22 -3.6991229e+22)
(-5.4453241e+24 -4.8601857e+22 -2.9976864e+22)
(-4.8334987e+24 1.1562339e+23 -3.3801654e+22)
(-4.9062749e+24 1.5189258e+23 -3.8513597e+22)
(-5.3869052e+24 8.3168113e+22 -3.6996025e+22)
(-5.3334413e+24 1.7217698e+22 -3.5403817e+22)
(-8.0159225e+24 -1.7382291e+23 -8.9642777e+22)
(-5.2558152e+24 -2.6444915e+23 6.5899783e+23)
(-5.3577797e+24 6.7880134e+23 -2.2734073e+23)
(-5.171491e+24 -6.4828056e+23 1.2297795e+23)
(-5.1525374e+24 -6.9194543e+23 -1.8655231e+23)
(-5.2966371e+24 6.9514429e+23 2.1929485e+22)
(-5.3520361e+24 3.3931289e+22 6.4547732e+23)
(-5.3046568e+24 -1.7455796e+23 -7.1411266e+23)
(-5.1235126e+24 1.390719e+23 -6.6916913e+23)
(-5.2068121e+24 -6.9555037e+20 -1.1662931e+23)
(-5.2656879e+24 -2.0070089e+22 -2.0520301e+22)
(-5.49262e+24 -3.8720857e+22 -3.7200372e+22)
(-5.6256104e+24 -5.7905135e+21 -3.1878013e+22)
(-5.4251546e+24 -2.0050122e+22 -7.2376424e+22)
(-5.6423025e+24 -7.1999789e+22 -5.1490433e+22)
(-5.3814131e+24 -9.1847602e+22 -4.6749337e+22)
(-5.3088159e+24 -1.2288022e+23 -8.6957604e+22)
(-5.35045e+24 -3.0461191e+22 -8.9377946e+22)
(-5.6617143e+24 -6.2709929e+22 -9.2695204e+22)
(-5.0654474e+24 -3.9362684e+22 -3.2046642e+22)
(-5.0344881e+24 -4.0102882e+22 -5.4220481e+22)
(-5.634838e+24 -1.2321549e+23 -1.07498e+23)
(-5.6079115e+24 -4.7612281e+22 -1.0280738e+23)
(-5.7070049e+24 -4.0922036e+22 -1.1475466e+23)
(-5.7670376e+24 -6.2813854e+22 -1.5302878e+23)
(-5.6339663e+24 -3.1219352e+22 -6.8272192e+22)
(-5.8026923e+24 -9.2663285e+22 -5.8754151e+22)
(-4.7746817e+24 3.0240535e+22 -4.6549201e+22)
(-4.7509217e+24 -6.1016544e+20 -4.0910446e+22)
(-5.2468086e+24 -4.0554117e+22 -4.5049785e+22)
(-5.4127806e+24 -1.8886865e+21 -4.3781957e+22)
(-5.4940527e+24 -1.6829097e+23 -2.0260488e+23)
(-6.1200859e+24 -5.8152591e+22 -1.7768572e+23)
(-5.2192444e+24 -3.1768281e+22 1.9377054e+22)
(-5.800775e+24 -1.1962246e+23 -7.4245272e+22)
(-5.1307601e+24 -3.3546234e+22 -2.8758104e+22)
(-5.2036766e+24 -2.4573791e+22 -6.3735051e+22)
(-5.6786359e+24 -1.0554012e+23 -1.6450872e+23)
(-4.9403521e+24 -1.166308e+21 -8.2817463e+22)
(-4.7915581e+24 -1.1903227e+22 2.1681028e+22)
(-5.5234975e+24 -5.0068184e+22 -3.5118412e+22)
(-5.0700457e+24 5.8776502e+22 -3.5604716e+22)
(-5.0072294e+24 6.1427623e+22 -3.4483722e+22)
(-5.2221188e+24 7.8044627e+22 -3.2658295e+22)
(-4.9561472e+24 9.868991e+22 -2.2536071e+22)
(-4.8742255e+24 -9.7076402e+22 -1.6806624e+23)
(-5.4190464e+24 -5.0060203e+22 -1.5986437e+23)
(-4.5734671e+24 -3.4236085e+22 -1.1401996e+23)
(-4.5337115e+24 -1.2488817e+23 -1.3353117e+23)
(-4.2231388e+24 -6.7074671e+22 -7.9171937e+22)
(-4.0037788e+24 -2.9385032e+22 -4.6853529e+22)
(-5.0527948e+24 -9.9229515e+22 -5.1152817e+22)
(-4.4234564e+24 -1.0400241e+23 -4.2287877e+22)
(-4.1599877e+24 -5.3887621e+22 -2.6499371e+22)
(-4.5154375e+24 -3.363566e+22 -2.7753957e+22)
(-8.8648043e+24 -9.373518e+23 9.373602e+22)
(-5.7315988e+24 1.9218014e+23 7.3540202e+23)
(-5.6849971e+24 -2.2179801e+23 -7.8522964e+23)
(-8.4734959e+24 -3.665684e+23 9.9193818e+22)
(-5.5147823e+24 1.8556677e+23 -8.1784367e+23)
(-5.382796e+24 -1.1913362e+23 7.3698493e+23)
(-5.6402522e+24 -4.948288e+22 -3.3868487e+21)
(-5.4409467e+24 -2.6494457e+23 -7.3512599e+23)
(-8.2404943e+24 -2.4705574e+23 1.2459027e+23)
(-5.2219347e+24 5.2147625e+22 -7.2700515e+23)
(-5.3234746e+24 -1.6566969e+23 7.7915389e+23)
(-5.4121597e+24 1.6789181e+23 7.1686534e+23)
(-5.292489e+24 -7.746201e+23 1.6495118e+23)
(-5.2588362e+24 7.1801938e+23 -4.2232294e+22)
(-5.1736755e+24 7.4896148e+23 2.6083165e+23)
(-5.0941891e+24 -7.0580833e+23 -1.5937826e+23)
(-5.5738327e+24 -5.5703512e+22 9.6975343e+22)
(-5.4749328e+24 -1.4189911e+22 7.324034e+22)
(-5.5071304e+24 -1.1998718e+22 3.9691048e+21)
(-5.6485526e+24 -3.4601816e+22 4.6568385e+22)
(-5.4975073e+24 1.4254295e+22 1.7464203e+22)
(-5.2391225e+24 -8.6952707e+22 4.1819424e+22)
(-5.7078761e+24 -6.06368e+22 1.1705072e+22)
(-5.8654294e+24 -3.3578457e+22 9.0106414e+22)
(-5.3179162e+24 2.4733065e+22 6.2644963e+22)
(-8.0619781e+24 -6.9132682e+23 -4.9400505e+22)
(-8.2358655e+24 -2.9228553e+23 -3.1930964e+22)
(-5.8800034e+24 -1.7192655e+22 4.5936469e+22)
(-5.8918523e+24 -1.2681166e+23 6.5104529e+22)
(-5.5673957e+24 -6.5945799e+23 1.6097997e+23)
(-8.2339791e+24 -1.8240784e+23 -2.8651079e+22)
(-5.5558958e+24 6.1357712e+23 -1.3514578e+23)
(-5.6901878e+24 6.3676549e+23 1.7089216e+23)
(-5.5572102e+24 -6.2186911e+23 -1.1662097e+23)
(-5.6690457e+24 -1.1213496e+23 4.1564786e+22)
(-5.6271143e+24 -7.0134411e+21 2.4293075e+22)
(-4.7900758e+24 -2.6703438e+22 -1.3326069e+21)
(-5.3727921e+24 -2.3609331e+22 2.9484115e+22)
(-4.9061619e+24 -2.939153e+22 1.542288e+22)
(-4.5506018e+24 -4.221925e+22 -2.8917582e+22)
(-7.8291116e+24 -7.0976425e+23 -4.813721e+23)
(-8.0789475e+24 -3.6825219e+23 -9.8602454e+22)
(-8.1382344e+24 -2.0112699e+23 -2.6345137e+22)
(-5.5385765e+24 5.8457042e+23 -1.5634956e+23)
(-8.1184427e+24 -1.7070412e+23 -1.6160092e+22)
(-5.4102562e+24 6.2452714e+23 1.4003741e+23)
(-5.2928648e+24 -5.9824111e+23 -1.4675687e+23)
(-5.5104188e+24 -6.2138225e+23 1.2171106e+23)
(-5.5013943e+24 -1.192432e+23 -3.3502609e+22)
(-5.5191322e+24 -2.8031294e+22 -5.6787077e+22)
(-5.2642003e+24 -1.1084275e+23 -7.6863255e+22)
(-5.317082e+24 -2.4886112e+22 -8.001064e+22)
(-4.9452418e+24 -3.8812472e+22 -8.0137667e+22)
(-5.031797e+24 -3.6789951e+22 -7.4804182e+22)
(-5.0097005e+24 -3.9971157e+22 -7.8410431e+22)
(-5.3312491e+24 -4.5899225e+22 -9.7554464e+22)
(-4.8812046e+24 -4.124941e+22 -9.7550789e+22)
(-4.8230235e+24 -3.9923614e+22 -6.1830091e+22)
(-4.7460086e+24 -3.595351e+22 -3.905291e+22)
(-4.975364e+24 -3.2252688e+22 -6.3098905e+22)
(-1.1462434e+25 -3.024858e+21 -1.8907807e+23)
(-9.1290344e+24 -8.8403437e+21 -1.3280816e+24)
(-5.9871078e+24 -2.3336093e+23 1.2096745e+24)
(-6.0748764e+24 3.542055e+23 1.1781776e+24)
(-5.3080439e+24 -1.3510756e+23 -6.9083463e+23)
(-5.5531243e+24 2.4538933e+23 -7.297549e+23)
(-8.155851e+24 -2.1261715e+23 -7.3012783e+23)
(-5.5087445e+24 -7.8805413e+22 6.7111397e+23)
(-5.9631696e+24 2.8003756e+23 -7.6510272e+23)
(-5.9323419e+24 -8.8018502e+22 -7.4954446e+23)
(-5.8260493e+24 2.3117896e+23 6.6486397e+23)
(-5.8581225e+24 1.2147595e+23 3.743662e+22)
(-5.4921612e+24 4.7165412e+22 6.3557129e+22)
(-5.7346469e+24 9.6313596e+22 -1.3333795e+23)
(-6.0562762e+24 8.7481138e+22 -1.185104e+23)
(-8.0831092e+24 -3.2244907e+23 -2.6090939e+23)
(-5.3223561e+24 -1.2144372e+23 5.4719554e+23)
(-5.5616705e+24 1.940743e+23 -7.4703148e+23)
(-5.7035591e+24 -1.7186672e+23 -7.9029027e+23)
(-5.465197e+24 1.0772352e+23 5.1001223e+23)
(-6.0340942e+24 -4.0602422e+22 -1.8805236e+23)
(-5.5955292e+24 6.0630994e+22 -1.7483057e+23)
(-5.7970979e+24 9.1199507e+22 -1.4454074e+22)
(-5.9561074e+24 1.2427975e+22 -1.9255673e+22)
(-5.4464976e+24 5.4155919e+22 -5.5838091e+22)
(-5.7069573e+24 7.7484504e+22 -5.8985268e+22)
(-6.4318491e+24 1.0931871e+23 -4.9262132e+22)
(-6.3329937e+24 8.7885135e+22 -6.0295007e+22)
(-8.132203e+24 -2.7661241e+23 -1.1481408e+23)
(-5.3897855e+24 -1.9347453e+23 6.0481337e+23)
(-5.3414609e+24 1.2594608e+23 -6.7077422e+23)
(-5.3119077e+24 -1.4200319e+23 -6.8471732e+23)
(-5.3480046e+24 9.7632391e+22 5.9656782e+23)
(-5.3109189e+24 -2.040597e+21 -1.368722e+23)
(-5.4134296e+24 -7.0791257e+21 -3.5410805e+22)
(-5.8300865e+24 -1.9670872e+21 -4.0805812e+22)
(-5.5818129e+24 -1.8912513e+22 -1.4596285e+23)
(-4.8135829e+24 4.1951748e+22 -1.8360438e+22)
(-4.854913e+24 3.4965005e+22 -3.0200557e+22)
(-5.3229611e+24 6.2585987e+22 -3.7341385e+22)
(-5.3270535e+24 3.9796249e+22 -3.1522899e+22)
(-5.015456e+24 1.4257317e+23 -4.8945786e+22)
(-4.6768471e+24 9.9539947e+22 -3.6988332e+22)
(-5.2217455e+24 1.1851887e+23 -3.2910357e+22)
(-5.22524e+24 1.9393312e+23 -4.179761e+22)
(-5.7562156e+24 -1.0149076e+23 -1.2200567e+23)
(-5.5278851e+24 7.2952915e+22 -6.4099835e+23)
(-8.1067969e+24 -1.6909857e+23 -8.8928821e+22)
(-5.3523191e+24 -1.4881617e+23 -6.1724827e+23)
(-5.569777e+24 -2.2440954e+23 5.9940364e+23)
(-5.5443121e+24 1.0750072e+23 6.3699054e+23)
(-5.7249902e+24 -5.7929248e+22 -3.0833967e+22)
(-5.760275e+24 -5.9764957e+22 -3.4779389e+22)
(-5.5214856e+24 -4.5997968e+22 -1.1984936e+23)
(-5.2692751e+24 2.7840599e+22 -3.5243857e+22)
(-5.3889506e+24 -4.2598086e+22 -4.0064058e+22)
(-5.1493922e+24 4.6021166e+22 -3.5143801e+22)
(-5.4078016e+24 -4.0650965e+22 -3.854716e+22)
(-4.9966557e+24 5.4856014e+22 -3.0746524e+22)
(-5.2985454e+24 -2.6341086e+22 -3.3124455e+22)
(-4.9291766e+24 6.4992695e+22 -3.2426248e+22)
(-5.3526934e+24 -4.6973764e+22 -3.1080988e+22)
(-7.9534579e+24 -1.4995804e+23 -8.4856562e+22)
(-5.393849e+24 6.1126904e+23 -2.2727131e+23)
(-5.2625935e+24 -2.1899814e+23 6.464835e+23)
(-5.1143465e+24 1.044417e+23 -6.3756571e+23)
(-5.1841009e+24 -1.6954967e+23 -6.9397402e+23)
(-5.3259858e+24 5.7343368e+22 6.6894081e+23)
(-5.3538945e+24 6.3708305e+23 8.7908843e+22)
(-5.3128656e+24 -6.8323392e+23 -1.7159117e+23)
(-5.2904689e+24 -6.4063526e+23 1.2744147e+23)
(-5.178676e+24 -9.5138383e+22 -1.1385691e+23)
(-5.3543158e+24 -1.0109511e+23 -4.1027813e+22)
(-5.4070589e+24 -1.350873e+22 -6.9199012e+22)
(-5.327371e+24 -2.0440209e+22 -7.6097679e+22)
(-5.5267181e+24 -1.5681296e+22 -2.4919267e+22)
(-5.3739104e+24 -6.9848247e+22 -1.010998e+23)
(-5.4197613e+24 -6.4207139e+22 -1.235456e+23)
(-5.4112937e+24 -7.7379484e+22 -8.8702439e+22)
(-5.5670622e+24 -6.4674258e+22 -2.5074566e+22)
(-5.2388045e+24 -5.6223335e+22 -1.5975538e+22)
(-4.7445906e+24 1.2906501e+22 -3.6027007e+22)
(-4.7900027e+24 -3.7541262e+20 -4.7104003e+22)
(-4.894731e+24 -2.1364964e+22 -3.9969475e+22)
(-5.5330666e+24 1.1382335e+22 1.2966774e+22)
(-5.4421509e+24 5.1085119e+21 -1.2294417e+22)
(-5.4447491e+24 1.5175387e+22 -5.2987032e+22)
(-4.8644775e+24 -6.8311303e+21 -2.8422477e+22)
(-5.3852303e+24 -5.4830665e+22 3.0206426e+22)
(-4.8511024e+24 -3.3621133e+22 -4.3160679e+22)
(-4.6808174e+24 -4.0996074e+22 -8.1186756e+22)
(-4.8598939e+24 -5.1736151e+22 -8.2745303e+22)
(-5.1092237e+24 -4.4902917e+22 -8.3588883e+22)
(-4.9029737e+24 -4.2681707e+22 -2.9968362e+22)
(-4.7916174e+24 -4.2499031e+22 -5.0469945e+22)
(-5.2697884e+24 -1.9103338e+22 -1.0370155e+22)
(-4.7388695e+24 -4.4250256e+22 -1.026027e+23)
(-4.9682325e+24 -3.9949259e+22 -9.7161298e+22)
(-4.6507147e+24 -2.2395623e+22 -3.3778551e+22)
(-5.4396073e+24 -1.2605546e+23 -1.2557078e+23)
(-5.4490616e+24 -7.4857701e+22 -1.6489885e+23)
(-5.1279443e+24 -4.3754962e+22 -6.3184359e+22)
(-5.1057493e+24 -8.866109e+22 -6.8692317e+22)
(-4.84537e+24 2.7114556e+22 -3.9969419e+22)
(-4.722609e+24 -1.7331465e+21 -4.0130115e+22)
(-4.9999484e+24 -3.4974367e+22 -3.7172607e+22)
(-5.2616118e+24 1.2238407e+20 -4.0205637e+22)
(-4.0477031e+24 -7.4845053e+22 -1.2579203e+23)
(-4.9313742e+24 -4.5656404e+22 -1.6318442e+23)
(-4.6656176e+24 -1.5107412e+22 -3.3481873e+22)
(-3.745236e+24 -1.1122528e+23 -8.9623569e+22)
(-3.6006017e+24 -5.3272554e+22 -4.7043561e+22)
(-4.086576e+24 -2.8982698e+22 -3.1571669e+22)
(-4.8923696e+24 -8.5086928e+22 -4.0271363e+22)
(-4.6317828e+24 -3.6294624e+22 -1.1447589e+22)
(-4.1827074e+24 -4.3694489e+22 -2.3259031e+22)
(-4.4559935e+24 -3.2890543e+22 -3.215094e+22)
(-9.0313769e+24 -9.3326908e+23 9.3720896e+23)
(-8.2534204e+24 -6.9640228e+23 1.3318538e+23)
(-5.398408e+24 1.3268345e+23 -7.5749911e+23)
(-5.5652296e+24 -4.4067385e+23 -7.1626026e+23)
(-6.1331397e+24 2.4247839e+22 6.4786486e+23)
(-5.6233618e+24 -1.8864457e+23 6.835086e+23)
(-6.183684e+24 -9.7212732e+22 -5.6525844e+21)
(-6.072847e+24 -1.1169325e+23 1.1048362e+23)
(-5.6714499e+24 7.2675424e+22 6.6599462e+23)
(-5.6124897e+24 -2.9386839e+23 -6.9668362e+23)
(-8.3082731e+24 -3.2478555e+23 1.0111881e+23)
(-5.4169518e+24 8.1716345e+22 -6.7562961e+23)
(-5.5576712e+24 -1.6310494e+23 6.801348e+23)
(-5.6121249e+24 -3.7280196e+22 9.1646746e+22)
(-5.6609107e+24 -5.2199203e+22 -1.5302354e+22)
(-5.0768503e+24 -3.7419668e+22 4.9577676e+22)
(-5.6869541e+24 -1.0504464e+23 1.0923474e+23)
(-5.3952913e+24 1.2469908e+23 7.2760418e+23)
(-8.1298673e+24 -1.7053927e+23 6.0098808e+22)
(-5.3932503e+24 -2.6420348e+23 -6.6762009e+23)
(-5.1676658e+24 -1.6983333e+23 7.7648855e+23)
(-5.1517401e+24 8.3597323e+22 -7.0774638e+23)
(-5.1511468e+24 -7.6534001e+23 1.9911297e+23)
(-5.179247e+24 7.1090922e+23 -4.7927672e+22)
(-5.2776162e+24 6.9628819e+23 2.1645515e+23)
(-5.1477893e+24 -7.0132798e+23 -1.4907173e+23)
(-5.26815e+24 -7.7360132e+22 8.1498696e+22)
(-5.326176e+24 -6.4931473e+22 7.0347006e+22)
(-5.5471833e+24 -6.6015213e+22 5.663193e+21)
(-5.5258048e+24 2.9787354e+22 -4.4102723e+22)
(-5.7775712e+24 -9.8554715e+22 -1.8087149e+22)
(-5.5646947e+24 -1.3886875e+22 3.4106587e+22)
(-5.3947238e+24 -9.8446567e+22 7.8157822e+22)
(-5.3218142e+24 -1.3230185e+23 7.6263034e+22)
(-5.3218763e+24 1.9917827e+21 6.3425017e+22)
(-5.0371294e+24 -3.981666e+22 2.5647518e+22)
(-5.0577359e+24 6.7967421e+22 2.6217158e+22)
(-4.8515131e+24 5.939895e+21 2.6046388e+22)
(-5.0205615e+24 1.3085931e+22 -8.3101078e+22)
(-5.2606604e+24 3.2972805e+22 -1.8068071e+22)
(-5.5527269e+24 -1.7321627e+22 6.6002218e+22)
(-5.1904084e+24 5.5415017e+22 -1.5714025e+22)
(-4.919842e+24 -1.2100293e+22 4.0221376e+22)
(-5.0448148e+24 9.90911e+20 1.9375834e+21)
(-4.7537803e+24 -2.0827088e+22 7.2907136e+22)
(-4.1422295e+24 -1.4650336e+22 4.8288762e+22)
(-7.6939381e+24 -8.2121986e+23 -7.1739076e+22)
(-8.0214712e+24 -4.1640649e+23 -4.4140982e+22)
(-8.1185326e+24 -2.1466304e+23 -3.976748e+22)
(-5.5029551e+24 -4.1939219e+22 4.8226642e+22)
(-5.4620728e+24 -4.128513e+22 6.6935606e+22)
(-5.8207315e+24 -3.8847452e+22 5.068111e+22)
(-8.14877e+24 -1.6707967e+23 -3.8851592e+22)
(-5.4415773e+24 -6.1424038e+23 1.123666e+23)
(-5.5580175e+24 6.3169566e+23 -1.7888988e+23)
(-5.5603226e+24 -6.2773101e+23 -1.4711053e+23)
(-5.7018348e+24 5.8931294e+23 8.7413173e+22)
(-5.6393589e+24 -1.2695131e+23 1.4661461e+22)
(-5.8858936e+24 -1.2543873e+23 3.3293355e+22)
(-5.8733962e+24 -3.3360248e+22 4.8079807e+22)
(-5.2416011e+24 -3.5068081e+22 4.2204346e+22)
(-5.1019084e+24 -3.6038799e+22 2.2889299e+22)
(-4.9143687e+24 -4.0661358e+22 9.0160997e+20)
(-5.3675333e+24 -3.9683001e+22 3.1474466e+22)
(-5.2975608e+24 -3.3341377e+22 2.1366764e+22)
(-4.862588e+24 -3.8846655e+22 -2.622899e+22)
(-7.6316451e+24 -4.210931e+23 -6.4760368e+23)
(-7.8730226e+24 -3.9107785e+23 -1.6214808e+23)
(-8.017573e+24 -2.7073471e+23 -4.2824385e+22)
(-8.0753314e+24 -1.6167969e+23 -1.544873e+22)
(-5.4753987e+24 -1.3183728e+23 -1.6620788e+22)
(-5.340955e+24 -6.1820599e+23 1.2703287e+23)
(-8.0704641e+24 -1.3907631e+23 -7.8442195e+21)
(-5.4527925e+24 5.7842535e+23 -1.4598235e+23)
(-5.4848727e+24 6.0110564e+23 1.0341007e+23)
(-5.3120149e+24 -5.8416336e+23 -1.2467077e+23)
(-5.2547774e+24 -1.0370105e+23 5.8086548e+21)
(-5.3045646e+24 -2.0455561e+22 -4.3504735e+22)
(-5.6873432e+24 -3.872112e+22 -2.8032812e+22)
(-4.9354625e+24 -3.8280421e+22 -3.5234322e+22)
(-4.9432338e+24 -4.4986471e+22 -5.7284292e+22)
(-4.7216127e+24 -3.7423309e+22 -7.4284873e+22)
(-4.7514631e+24 -4.4313366e+22 -7.658096e+22)
(-4.7368604e+24 -3.9640959e+22 -7.9998379e+22)
(-4.8149892e+24 -4.2996881e+22 -7.6960567e+22)
(-4.801278e+24 -4.3859666e+22 -8.0671731e+22)
(-4.7319307e+24 -4.1862643e+22 -9.4288944e+22)
(-1.1737589e+25 -1.2949485e+23 -2.8093831e+23)
(-9.420808e+24 -5.3088269e+21 -1.4008332e+24)
(-6.1160356e+24 -2.4468385e+23 1.3068502e+24)
(-5.5684782e+24 2.1968986e+23 -7.8335608e+23)
(-5.3750823e+24 -1.2367464e+23 -7.516068e+23)
(-6.1840661e+24 3.6525134e+23 1.2760889e+24)
(-8.2906495e+24 -1.3124992e+23 -8.0061659e+23)
(-5.7531746e+24 2.4437884e+23 6.6004892e+23)
(-5.5967693e+24 -9.3424524e+22 6.7999156e+23)
(-6.0993808e+24 2.6936731e+23 -8.1750154e+23)
(-6.0726486e+24 -1.1364388e+23 -7.9766437e+23)
(-6.0232412e+24 4.7132983e+22 -1.8471047e+23)
(-6.0174697e+24 9.3346564e+22 -1.9397411e+23)
(-5.7273838e+24 6.2373519e+22 5.4262956e+22)
(-5.8523308e+24 7.9934611e+22 1.1335247e+23)
(-7.9239085e+24 -2.5096162e+23 -3.238008e+23)
(-5.3506216e+24 -1.2036196e+23 5.0193014e+23)
(-5.8773943e+24 -1.3529113e+23 -8.1634257e+23)
(-5.7330345e+24 2.0472004e+23 -7.7573038e+23)
(-5.4986819e+24 1.5105768e+23 4.6826731e+23)
(-5.7026757e+24 1.0374105e+23 -2.1881603e+23)
(-6.0172798e+24 8.9562838e+22 -6.7611287e+22)
(-6.2148698e+24 8.2986828e+22 -3.4654558e+22)
(-6.2277342e+24 3.3986089e+22 -2.3898173e+23)
(-6.4873918e+24 8.3066813e+22 -3.7372819e+22)
(-7.276981e+24 8.4939912e+21 -4.5825606e+22)
(-6.3129807e+24 3.6503587e+22 -9.0051597e+22)
(-6.4199788e+24 4.5729996e+22 -6.0023919e+22)
(-8.0474488e+24 -2.8627514e+23 -1.2743543e+23)
(-5.4766721e+24 -1.7743532e+23 5.7490587e+23)
(-5.4012031e+24 1.4433041e+23 -6.8998644e+23)
(-5.322687e+24 -1.741361e+23 -7.1855336e+23)
(-5.3525657e+24 9.131697e+22 5.4876433e+23)
(-5.4026138e+24 -4.646426e+21 -1.6416989e+23)
(-5.5156112e+24 6.4290369e+20 -7.0230047e+22)
(-5.8403203e+24 -5.0713378e+22 -7.1795442e+22)
(-5.5686186e+24 -7.2764717e+22 -1.8194412e+23)
(-5.1845149e+24 1.2034391e+22 -2.1908852e+22)
(-4.8563704e+24 1.0411041e+23 -6.4525547e+21)
(-4.7136664e+24 1.2123043e+23 -1.9382889e+22)
(-4.9016804e+24 4.8953019e+22 -3.3306986e+22)
(-4.6952775e+24 8.289348e+22 -3.9497726e+22)
(-4.5570737e+24 1.0982514e+23 -3.7896546e+22)
(-4.9689984e+24 1.0849152e+23 -5.4047372e+22)
(-4.9649734e+24 9.5001615e+22 -5.5736583e+22)
(-8.0665103e+24 -2.2092066e+23 -9.1515483e+22)
(-5.4872404e+24 -2.1866062e+23 6.1408132e+23)
(-5.4246448e+24 4.0815605e+22 6.0733615e+23)
(-5.2672827e+24 -2.1271732e+23 -6.2037434e+23)
(-5.3302688e+24 8.1142303e+22 -6.1551858e+23)
(-5.3734967e+24 -4.9993399e+22 -1.2772911e+23)
(-5.3819691e+24 -3.6222796e+22 -5.2293101e+22)
(-5.3763341e+24 -2.1616254e+22 -4.3994887e+22)
(-5.3226156e+24 -7.1913605e+22 -1.2214774e+23)
(-5.0848311e+24 1.4746187e+22 -4.188258e+22)
(-4.9644813e+24 2.8954599e+22 -3.6922157e+22)
(-5.3049926e+24 3.1846485e+22 -3.7995107e+22)
(-5.2494048e+24 9.042525e+21 -3.6606726e+22)
(-5.0685312e+24 2.0956195e+22 -2.6126316e+22)
(-4.9099497e+24 3.636832e+22 -2.4262561e+22)
(-5.3756375e+24 6.2470632e+22 -3.2077841e+22)
(-5.3587459e+24 3.758706e+22 -3.3031801e+22)
(-5.2660284e+24 -6.8722881e+22 -3.7278361e+22)
(-5.7042123e+24 -1.0515926e+23 -3.5551157e+22)
(-8.0430066e+24 -1.5076154e+23 -9.0037905e+22)
(-5.3143189e+24 6.9956787e+22 -5.9269846e+23)
(-5.4300121e+24 -2.2195682e+23 6.0881676e+23)
(-5.6929696e+24 8.147875e+22 5.9976079e+23)
(-5.478288e+24 -1.6247857e+23 -5.8742447e+23)
(-5.4946296e+24 -2.3329215e+22 -1.8084869e+22)
(-5.4749018e+24 -9.5163741e+22 -1.2212664e+23)
(-5.5250855e+24 -2.8917659e+22 -1.0081758e+23)
(-5.2791393e+24 -3.5239088e+22 -4.6670768e+22)
(-5.2973048e+24 -3.0282273e+22 -4.828251e+22)
(-5.1010019e+24 -2.3311918e+22 -4.1838276e+22)
(-5.1127092e+24 3.4017503e+22 -3.6335459e+22)
(-5.3514474e+24 -4.4192224e+22 -3.4461413e+22)
(-5.0937412e+24 4.6852895e+22 -3.4017831e+22)
(-5.298476e+24 -3.8598352e+22 -3.6573049e+22)
(-7.9037426e+24 -1.5555927e+23 -7.5977313e+22)