/*--------------------------------*- C++ -*----------------------------------*\
  =========                 |
  \\      /  F ield         | OpenFOAM: The Open Source CFD Toolbox
   \\    /   O peration     | Website:  https://openfoam.org
    \\  /    A nd           | Version:  7
     \\/     M anipulation  |
\*---------------------------------------------------------------------------*/
FoamFile
{
    version     2.0;
    format      ascii;
    class       volVectorField;
    location    "4000";
    object      UMean;
}
// * * * * * * * * * * * * * * * * * * * * * * * * * * * * * * * * * * * * * //

dimensions      [0 1 -1 0 0 0 0];

internalField   nonuniform List<vector> 
34387
(
(-1.2804279e+23 2.366279e+21 -1.5587227e+21)
(-1.2465428e+23 2.7181477e+20 -1.2601676e+21)
(-8.1632736e+22 -6.0387412e+20 -7.5010927e+20)
(-1.2820043e+23 -4.8829729e+20 -8.6004453e+20)
(-1.3318988e+23 2.8556231e+21 -7.2637683e+20)
(-1.278606e+23 1.0064563e+21 -1.3358409e+21)
(-9.2380573e+22 2.3870864e+21 -2.339416e+20)
(-9.3926549e+22 2.742955e+21 -1.2943495e+21)
(-9.4949156e+22 2.2665865e+21 -1.2728287e+21)
(-9.3988054e+22 1.8862069e+21 1.92777e+20)
(-1.2429251e+23 -2.2181029e+20 -1.1648545e+21)
(-8.8935375e+22 1.525212e+21 7.3036708e+19)
(-9.1287352e+22 1.0257065e+21 -9.7555642e+20)
(-9.07932e+22 2.8816076e+20 -1.0559694e+21)
(-8.8088922e+22 3.9050818e+20 -5.9958448e+20)
(-9.3070549e+22 1.4189963e+21 -2.0150233e+21)
(-9.0278945e+22 1.1512574e+21 -7.0380346e+20)
(-8.9480782e+22 1.2698107e+21 5.5590655e+20)
(-8.9538605e+22 7.5637313e+20 -1.0168039e+21)
(-8.1156832e+22 -6.2770709e+20 -8.0493566e+20)
(-8.2145156e+22 -6.1808567e+20 -7.9138567e+20)
(-8.0832162e+22 -5.9007673e+20 -7.4249476e+20)
(-1.2848667e+23 -4.9505136e+20 -3.4279884e+20)
(-1.3255839e+23 -2.2078232e+20 -1.3398317e+21)
(-1.2791569e+23 -3.8221762e+20 -5.6151459e+20)
(-9.3917608e+22 7.9861603e+20 -8.4055615e+20)
(-9.3845965e+22 5.6143987e+20 -9.4701861e+20)
(-9.3463865e+22 -1.3300672e+19 -8.594235e+20)
(-9.2766132e+22 3.4729441e+20 -9.3510557e+20)
(-1.3788743e+23 2.1171501e+21 -3.8149679e+21)
(-1.2817105e+23 6.3200401e+20 -1.3973427e+21)
(-9.6154346e+22 1.8944011e+21 -6.0384187e+20)
(-9.4680569e+22 1.0460162e+21 8.9714389e+20)
(-9.6418827e+22 2.9325182e+21 1.4369155e+21)
(-9.5892991e+22 3.1284359e+21 -9.9114613e+19)
(-1.2715952e+23 1.1651932e+20 -9.3132517e+20)
(-9.334721e+22 1.9439824e+21 5.3720088e+18)
(-9.6210102e+22 1.371575e+21 -1.0047925e+21)
(-9.5278113e+22 2.2415342e+21 -8.8173908e+20)
(-9.4961744e+22 1.1927061e+21 2.7385389e+20)
(-8.6476465e+22 2.843204e+21 -9.0911536e+20)
(-8.6169536e+22 3.3211657e+21 -1.1691859e+21)
(-9.0037938e+22 2.2872098e+21 -1.1137876e+21)
(-9.0603348e+22 1.5295671e+21 -9.5230079e+20)
(-1.2380926e+23 -6.8941802e+20 -1.0946252e+21)
(-9.1424757e+22 5.4119855e+19 -7.3675943e+20)
(-9.1244833e+22 7.3147336e+20 -6.3512025e+20)
(-9.044257e+22 1.2159413e+21 -2.4828764e+20)
(-9.0119641e+22 1.3497281e+20 -5.3968946e+20)
(-9.240969e+22 8.7084149e+20 -1.4127303e+21)
(-9.0134621e+22 7.2016232e+20 -6.5582992e+20)
(-9.0254411e+22 5.8765071e+20 1.9963698e+20)
(-9.1751619e+22 4.4379541e+20 -1.188117e+21)
(-8.6365666e+22 -5.3251772e+20 -7.7467471e+19)
(-9.0005523e+22 4.300734e+20 -5.8621564e+20)
(-8.7391883e+22 -6.7507758e+20 -8.5747412e+20)
(-8.7839991e+22 -6.7918915e+20 -1.0654693e+21)
(-8.550391e+22 -6.2109223e+20 -4.0790877e+20)
(-8.8235166e+22 1.9466247e+20 -7.1939644e+20)
(-8.8332023e+22 1.6935585e+21 -1.1753877e+21)
(-8.7083798e+22 1.4345012e+21 -1.022426e+21)
(-8.8042208e+22 1.4071289e+21 -8.3254795e+20)
(-8.6511258e+22 1.360111e+21 -9.6681751e+20)
(-8.3902596e+22 -6.0351453e+20 -8.3653601e+20)
(-8.1977404e+22 -6.9461747e+20 -9.0315241e+20)
(-8.0383654e+22 -6.1567748e+20 -7.7999584e+20)
(-8.3790894e+22 -4.2571201e+20 -7.4399011e+20)
(-8.103625e+22 -5.7716329e+20 -7.800962e+20)
(-8.051261e+22 -5.8862868e+20 -7.2549504e+20)
(-1.2459116e+23 -5.3002107e+20 4.3960898e+20)
(-1.3290142e+23 -3.7832549e+20 -4.084281e+20)
(-1.2813612e+23 -4.740571e+20 -3.0897219e+20)
(-9.4048685e+22 7.0754501e+20 -1.2495946e+20)
(-9.5918915e+22 7.1148043e+20 -2.2392713e+20)
(-9.5110761e+22 -2.0867121e+20 -1.7384556e+19)
(-9.3496628e+22 5.5060665e+19 -3.0498823e+20)
(-1.3443113e+23 -6.5131627e+21 -2.5072726e+21)
(-1.3079846e+23 -6.4232647e+20 -7.1951648e+20)
(-1.2742722e+23 -5.9712421e+20 -3.0224966e+20)
(-9.5111942e+22 5.2597342e+20 -4.9676188e+20)
(-9.5303612e+22 5.4420409e+20 -8.7419079e+20)
(-9.5358763e+22 9.1743964e+19 -8.6551932e+20)
(-9.4777776e+22 2.5362782e+20 -7.0698387e+20)
(-8.6203535e+22 -5.8775387e+20 -1.5173731e+21)
(-8.7339644e+22 -8.5735619e+20 -1.1778039e+21)
(-8.6736072e+22 -9.8617613e+20 -1.1458472e+21)
(-8.5328675e+22 -7.1029307e+20 -1.4480829e+21)
(-1.4346036e+23 2.8944374e+21 -5.0310659e+21)
(-1.3248229e+23 8.2535483e+19 -8.1293075e+21)
(-9.832304e+22 1.9841996e+21 8.3360949e+20)
(-9.7610706e+22 1.385351e+21 1.25689e+20)
(-9.6578363e+22 1.5921686e+21 -1.5070415e+21)
(-9.5458428e+22 1.8335711e+21 -9.1744537e+20)
(-1.2649416e+23 -1.8813554e+20 -1.6013836e+21)
(-9.4105013e+22 1.3326067e+21 3.0185437e+20)
(-9.6876711e+22 1.2844373e+21 -2.8553556e+20)
(-9.7682672e+22 2.2818716e+21 -4.3062586e+20)
(-9.6262951e+22 2.300532e+21 6.4462577e+20)
(-8.8924859e+22 3.5467518e+21 -1.1636348e+21)
(-8.8297617e+22 2.5421275e+21 -8.1260201e+20)
(-9.1475919e+22 3.1009354e+21 -9.6623627e+20)
(-9.0836896e+22 4.0785259e+21 -1.1360304e+21)
(-1.2686416e+23 -5.2109685e+20 -9.4534266e+20)
(-9.5355029e+22 1.2669674e+21 6.7708403e+18)
(-9.7570081e+22 8.3671345e+20 -8.1158928e+20)
(-9.6691148e+22 1.6900284e+21 -6.3503217e+20)
(-9.6094692e+22 8.5914205e+20 1.7489915e+20)
(-8.7848138e+22 2.1609831e+21 -7.6739213e+20)
(-9.0481431e+22 1.0181493e+21 -1.0709407e+21)
(-8.7256648e+22 2.4346477e+21 -9.9862909e+20)
(-9.1051864e+22 6.6400206e+20 -9.2661144e+20)
(-8.1546591e+22 3.0257674e+21 -6.9877344e+20)
(-8.113737e+22 3.4779366e+21 -7.880031e+20)
(-8.4227829e+22 2.4192956e+21 -7.5573818e+20)
(-8.4868513e+22 1.7016849e+21 -6.5167852e+20)
(-1.2353753e+23 -9.8291429e+20 -1.0467669e+21)
(-9.1429356e+22 2.7780596e+20 -4.5298963e+20)
(-9.2888594e+22 4.1158699e+20 -9.8909161e+20)
(-9.2060432e+22 -2.6347843e+20 -9.2023511e+20)
(-9.0548544e+22 -1.0067879e+20 3.4182415e+20)
(-9.1308001e+22 5.6009643e+20 -6.1983133e+20)
(-9.2372245e+22 4.3431682e+20 -7.9472961e+20)
(-9.1969752e+22 7.1445598e+19 -7.2878968e+20)
(-9.2561054e+22 -5.2361329e+20 -9.8145702e+20)
(-8.6786543e+22 -8.4529686e+20 -7.0499924e+20)
(-8.6294216e+22 -5.9532298e+20 -6.8931285e+20)
(-8.843454e+22 -5.5095906e+20 -7.3482622e+20)
(-9.1389373e+22 1.8775574e+20 -8.9709783e+20)
(-8.7361214e+22 -7.1402986e+20 -3.4344024e+20)
(-9.0575164e+22 3.058757e+20 -8.2300821e+20)
(-8.5888492e+22 1.0031083e+21 -1.205938e+21)
(-8.5596779e+22 7.3695632e+20 -9.5633643e+20)
(-8.8331005e+22 3.7443191e+20 -8.0670089e+20)
(-8.8565826e+22 8.7000686e+20 -1.0120341e+21)
(-8.7315896e+22 -5.3537365e+20 -7.4662883e+20)
(-8.2269804e+22 -6.1000425e+20 -1.2872285e+20)
(-8.7687631e+22 5.2708268e+20 -8.6546165e+20)
(-8.2491818e+22 -6.4802781e+20 -8.0442201e+20)
(-8.2655208e+22 -6.7153294e+20 -1.0279531e+21)
(-8.6391821e+22 -4.0138602e+20 -9.4186725e+20)
(-8.067911e+22 -6.2001016e+20 -4.2148118e+20)
(-8.6616931e+22 2.7027138e+20 -7.5929771e+20)
(-8.2225608e+22 1.7667456e+21 -8.264593e+20)
(-8.1974912e+22 1.5311024e+21 -7.3978115e+20)
(-8.3437138e+22 1.3829928e+21 -6.5861166e+20)
(-8.1514033e+22 1.2741975e+21 -7.5838319e+20)
(-8.4052718e+22 -6.8053073e+20 -1.0675205e+21)
(-8.2190748e+22 -6.0978947e+20 -1.0336467e+21)
(-8.3355386e+22 -6.0293022e+20 -7.1324153e+20)
(-8.3368196e+22 -6.7895017e+20 -9.2767247e+20)
(-8.072591e+22 -6.6334404e+20 -8.659663e+20)
(-8.0198624e+22 -6.2174937e+20 -7.6506924e+20)
(-8.1442386e+22 2.3953556e+20 -7.8107315e+20)
(-8.3372501e+22 -3.0584717e+20 -7.4364379e+20)
(-8.1074557e+22 -5.6558907e+20 -7.6619047e+20)
(-7.9962314e+22 -5.9056409e+20 -7.0592057e+20)
(-1.2868419e+23 -2.6687673e+20 3.9166307e+20)
(-9.1536324e+22 8.3880835e+20 1.2455526e+21)
(-1.2406098e+23 -9.4759205e+20 5.7006652e+20)
(-9.0513746e+22 6.8462356e+20 -2.0222293e+20)
(-8.8741971e+22 5.1862638e+20 -7.9836519e+20)
(-8.8419904e+22 3.3035009e+20 7.2282257e+20)
(-8.9402602e+22 7.1539971e+20 5.2483634e+20)
(-9.0547135e+22 1.1388903e+21 1.4229029e+20)
(-8.9855877e+22 -3.6607439e+20 5.872816e+20)
(-8.8820351e+22 1.1123099e+20 4.6890535e+20)
(-1.3505965e+23 -7.5479778e+21 -1.4329524e+20)
(-1.3058244e+23 -9.2918656e+20 -5.5982034e+20)
(-9.7350528e+22 -4.4417992e+20 -1.8685179e+19)
(-9.6881045e+22 3.8386164e+20 -1.5980757e+20)
(-1.2777286e+23 -8.1564931e+20 -2.5889722e+20)
(-9.6004091e+22 6.883329e+20 1.6890646e+20)
(-9.5815567e+22 1.0318859e+20 -7.5949558e+19)
(-8.9421876e+22 -7.906637e+20 -2.0306411e+20)
(-9.2284704e+22 -7.970721e+20 3.0098511e+20)
(-9.145054e+22 -8.1564618e+20 2.5507169e+20)
(-8.8251145e+22 -9.0847025e+20 -4.4661143e+20)
(-1.2858648e+23 -3.2960672e+21 -1.4462059e+21)
(-1.3049473e+23 -1.0050566e+21 -4.6992582e+20)
(-1.2717574e+23 -8.839307e+20 -1.6309389e+20)
(-9.6727674e+22 1.9643035e+20 -4.8720696e+20)
(-9.6900603e+22 -1.1003526e+20 -5.9235378e+20)
(-9.592353e+22 2.044478e+20 -2.8303054e+20)
(-9.6082141e+22 4.3306876e+19 -3.5171035e+20)
(-8.7379223e+22 -6.6501664e+20 -1.1025881e+21)
(-8.9042625e+22 -8.1976093e+20 -1.0673406e+21)
(-8.828456e+22 -1.0348541e+21 -1.2005884e+21)
(-8.7073997e+22 -8.2691559e+20 -1.3753368e+21)
(-8.1730098e+22 -6.4492462e+20 -1.5705662e+21)
(-8.2174479e+22 -7.4358331e+20 -1.2199068e+21)
(-8.2133401e+22 -7.7591994e+20 -1.1725436e+21)
(-8.1187911e+22 -6.7164793e+20 -1.4966746e+21)
(-1.4731262e+23 3.7380897e+21 -6.0131225e+21)
(-1.3546583e+23 1.7515462e+21 -9.8084511e+21)
(-9.8279231e+22 2.140013e+21 -1.5339205e+21)
(-9.7390431e+22 1.0740829e+21 -1.5536838e+21)
(-9.9356479e+22 1.0334562e+21 8.3100401e+20)
(-1.0132322e+23 2.8841256e+21 1.0976227e+21)
(-1.2419157e+23 3.9087777e+20 -4.2160485e+21)
(-9.6430343e+22 1.9485228e+21 1.5759091e+20)
(-9.4535756e+22 1.9961912e+21 -1.0356469e+20)
(-9.8634718e+22 1.8850666e+21 -1.8738274e+21)
(-9.854476e+22 1.5504121e+21 -1.6041061e+21)
(-9.0840989e+22 2.6440875e+21 -1.3196105e+21)
(-8.9779192e+22 3.5065039e+21 -1.2567803e+21)
(-9.0242325e+22 4.1298362e+21 -1.5700122e+21)
(-9.0482929e+22 3.4203772e+21 -1.5673876e+21)
(-1.2598074e+23 -8.9741754e+20 -1.4375365e+21)
(-9.466241e+22 1.350822e+21 -4.8774598e+20)
(-9.7472771e+22 1.4529833e+21 -7.3769008e+20)
(-9.8652708e+22 1.7279709e+21 -9.3251473e+20)
(-9.5821794e+22 1.5897449e+21 -1.6335488e+20)
(-8.7901538e+22 2.2093522e+21 -7.9194744e+20)
(-8.8445457e+22 2.1136767e+21 -8.5931149e+20)
(-9.1324968e+22 2.5756139e+21 -1.0766777e+21)
(-9.1494564e+22 2.2875113e+21 -1.1005349e+21)
(-8.3991826e+22 3.5112116e+21 -7.0893422e+20)
(-8.2970684e+22 2.5338971e+21 -5.6551707e+20)
(-8.5665339e+22 3.216637e+21 -5.6748191e+20)
(-8.5475551e+22 4.1284045e+21 -6.6677727e+20)
(-9.7409284e+22 1.8884575e+20 -1.753573e+20)
(-1.265862e+23 -8.2605349e+20 -8.571851e+20)
(-9.8248564e+22 4.9265435e+20 -7.7171599e+20)
(-9.8402365e+22 7.5067729e+20 -8.8219872e+20)
(-9.6189164e+22 4.8792811e+20 7.9693172e+19)
(-9.0136171e+22 1.3520964e+21 -8.0549769e+20)
(-9.1278404e+22 5.4893649e+20 -1.0851587e+21)
(-8.91846e+22 1.8186421e+21 -9.8313902e+20)
(-9.1595699e+22 5.2477718e+20 -9.6043529e+20)
(-8.2847686e+22 2.3698518e+21 -6.8340533e+20)
(-8.5135409e+22 1.2037318e+21 -7.454724e+20)
(-8.1708904e+22 2.668962e+21 -7.6530141e+20)
(-8.512713e+22 8.8528995e+20 -6.7303247e+20)
(-7.946274e+22 3.1068297e+21 -6.9364453e+20)
(-7.920066e+22 3.5590139e+21 -7.1808052e+20)
(-8.2130421e+22 2.522087e+21 -7.0130016e+20)
(-8.2562439e+22 1.7941755e+21 -6.6528669e+20)
(-1.2349736e+23 -1.1856549e+21 -9.0329202e+20)
(-9.2895066e+22 -6.2331953e+20 -2.5767058e+20)
(-9.390016e+22 5.3806618e+19 -8.2322046e+20)
(-9.3397939e+22 -4.4215272e+20 -7.5681043e+20)
(-9.2791365e+22 -7.7371064e+20 -1.2153243e+21)
(-9.1501397e+22 2.1131298e+20 -8.6526424e+20)
(-9.1822313e+22 -6.6518031e+20 9.7738516e+19)
(-9.3529513e+22 -9.4246712e+20 -1.0335316e+21)
(-9.3441453e+22 -2.7926587e+20 -7.61365e+20)
(-8.6550412e+22 3.4982445e+20 -8.8674319e+20)
(-8.6403831e+22 6.0064635e+20 -1.1518338e+21)
(-8.7939614e+22 -6.4760818e+19 -9.04256e+20)
(-9.2085841e+22 -3.7895083e+20 -9.6960754e+20)
(-8.8937347e+22 -3.5582745e+20 -7.2992592e+20)
(-9.15371e+22 -6.5423309e+20 -8.0989146e+20)
(-8.9222847e+22 -7.0556683e+20 -1.2177198e+21)
(-8.8049705e+22 -7.21224e+20 -1.0441064e+21)
(-8.7380347e+22 -8.1334813e+20 -9.2561322e+20)
(-9.0009193e+22 -7.9671956e+20 -1.1621814e+21)
(-8.2215222e+22 -7.9975674e+20 -6.5246124e+20)
(-8.07128e+22 -7.351345e+20 -6.1210586e+20)
(-8.9402198e+22 -5.3567934e+20 -1.047444e+21)
(-8.3213944e+22 -6.4634771e+20 -6.9280785e+20)
(-8.955296e+22 2.5318242e+20 -9.0179107e+20)
(-8.8627846e+22 -4.1713207e+20 -9.3036865e+20)
(-8.2140849e+22 -7.0441732e+20 -3.372243e+20)
(-8.8737702e+22 4.5827378e+20 -7.7912802e+20)
(-8.1330084e+22 1.1015574e+21 -8.8724746e+20)
(-8.0029474e+22 8.8284511e+20 -8.2222363e+20)
(-8.386155e+22 4.6001078e+20 -6.7483988e+20)
(-8.3533042e+22 9.2357022e+20 -7.2364643e+20)
(-8.5935201e+22 -3.1330276e+20 -7.0515331e+20)
(-8.3757427e+22 -7.2107624e+20 -9.5580949e+20)
(-7.9529592e+22 -6.7653104e+20 -2.095229e+19)
(-8.2996775e+22 3.5229744e+20 -8.413194e+20)
(-8.0487162e+22 -7.4836444e+20 -7.3975976e+20)
(-8.0661437e+22 -7.1226436e+20 -9.5244615e+20)
(-8.521168e+22 -3.7218719e+20 -7.5992513e+20)
(-8.4182699e+22 -7.0727104e+20 -1.246751e+21)
(-7.8515013e+22 -6.4594665e+20 -3.4055802e+20)
(-8.1712423e+22 4.1055768e+19 -8.7150524e+20)
(-8.0491464e+22 1.8692397e+21 -7.8008923e+20)
(-7.9860762e+22 1.63394e+21 -7.6555905e+20)
(-8.0738352e+22 1.5133779e+21 -6.7360203e+20)
(-7.9674488e+22 1.417125e+21 -6.9536188e+20)
(-8.466625e+22 -6.4364166e+20 -9.6019108e+20)
(-8.2210971e+22 -6.4410358e+20 -7.7993245e+20)
(-8.3021899e+22 -6.0313292e+20 -7.6465666e+20)
(-8.3353611e+22 -5.5474028e+20 -8.9677996e+20)
(-7.9963848e+22 -6.5921895e+20 -8.4083244e+20)
(-7.9753415e+22 -6.1955318e+20 -7.485207e+20)
(-8.1606074e+22 5.5021294e+20 -7.6619573e+20)
(-8.2899161e+22 -2.9525872e+20 -7.4071272e+20)
(-8.0053946e+22 -5.4984061e+20 -7.4326656e+20)
(-7.9857449e+22 -6.081293e+20 -6.8302991e+20)
(-1.3101623e+23 -5.5371384e+21 5.9379275e+20)
(-9.7242124e+22 1.7039966e+21 1.2249746e+21)
(-9.5307384e+22 1.1059856e+21 -3.2581588e+20)
(-1.2669425e+23 -9.9491991e+20 1.7872945e+20)
(-9.4045054e+22 1.3453641e+21 -7.1043368e+20)
(-9.4170223e+22 1.2999686e+21 4.2060826e+20)
(-8.7631032e+22 6.6557456e+20 9.5520122e+20)
(-9.2205035e+22 8.539434e+19 -1.790126e+20)
(-1.2405645e+23 -1.0982185e+21 6.697581e+20)
(-8.8802683e+22 -3.1052914e+19 -4.0965766e+20)
(-9.090632e+22 -3.5742441e+20 8.1240321e+20)
(-9.2871834e+22 4.9641469e+20 8.0991027e+20)
(-9.135747e+22 -8.1159234e+20 8.7114025e+20)
(-8.9606282e+22 4.0726546e+20 5.3754919e+20)
(-9.0357598e+22 3.8641579e+20 4.9667837e+20)
(-9.0541737e+22 2.5425527e+18 5.4794654e+20)
(-8.7983214e+22 4.8239562e+20 7.8365277e+20)
(-8.6482079e+22 6.2144817e+19 7.1347227e+20)
(-8.8523476e+22 -2.5809589e+19 3.3010606e+20)
(-8.5474521e+22 4.8373981e+20 8.7179084e+20)
(-8.7406582e+22 7.5397508e+19 6.137624e+20)
(-8.5310414e+22 -5.8207909e+20 5.2500389e+20)
(-8.9455578e+22 -6.3598501e+20 7.5896533e+20)
(-8.8944539e+22 -6.7157294e+20 6.5891066e+20)
(-8.5044203e+22 -6.7430496e+20 4.3455609e+20)
(-1.2797073e+23 -4.1100874e+21 -4.2915655e+20)
(-1.3037118e+23 -1.3678908e+21 -5.9450895e+20)
(-9.2783632e+22 -9.424579e+20 3.7748315e+20)
(-9.3209171e+22 -8.9337597e+20 4.5541017e+20)
(-9.8650097e+22 -8.0290683e+20 -3.010643e+18)
(-1.2748808e+23 -8.9175567e+20 -3.4771317e+20)
(-9.698842e+22 -2.0040263e+19 -1.2991851e+20)
(-9.7827995e+22 1.8464654e+20 2.1557756e+20)
(-9.824932e+22 -3.9808995e+20 1.1680566e+20)
(-9.1975296e+22 -8.2223403e+20 2.1134365e+20)
(-9.0808242e+22 -9.3828002e+20 7.7810267e+18)
(-8.2912528e+22 -7.3669155e+20 -1.6176788e+20)
(-8.5437626e+22 -6.8322325e+20 3.4010224e+20)
(-8.4950278e+22 -7.1524847e+20 3.1678536e+20)
(-8.2758714e+22 -7.9239834e+20 -3.8933445e+20)
(-1.2473045e+23 -3.8627646e+21 -4.8329949e+21)
(-1.292224e+23 -1.8503547e+21 -1.0301469e+21)
(-1.3019992e+23 -1.0134172e+21 -2.3578235e+20)
(-9.7362605e+22 -2.9612252e+20 -2.5362306e+20)
(-1.2717546e+23 -9.9212265e+20 -1.1303213e+20)
(-9.6408505e+22 -6.849712e+19 -1.5925295e+20)
(-9.7082384e+22 -1.9479661e+20 -1.6454779e+20)
(-9.8679821e+22 -6.8711588e+20 -2.7800817e+20)
(-9.0841471e+22 -9.624343e+20 -5.0587804e+20)
(-9.0157848e+22 -1.0458163e+21 -7.9659416e+20)
(-8.8231434e+22 -7.4719079e+20 -7.8506948e+20)
(-8.8084954e+22 -9.2315256e+20 -9.1493159e+20)
(-8.2126097e+22 -7.318919e+20 -1.1200896e+21)
(-8.241865e+22 -7.8062838e+20 -1.1187174e+21)
(-8.3194282e+22 -8.4326369e+20 -1.2799969e+21)
(-8.1956579e+22 -7.6239389e+20 -1.4070069e+21)
(-7.9580827e+22 -6.9064492e+20 -1.5829555e+21)
(-7.9753841e+22 -7.5542207e+20 -1.2444374e+21)
(-7.9590679e+22 -7.6213571e+20 -1.1888113e+21)
(-7.9337248e+22 -6.7532108e+20 -1.5418919e+21)
(-1.5052796e+23 4.6281711e+21 -6.6592587e+21)
(-1.3795669e+23 2.5714208e+21 -1.0845075e+22)
(-1.0034558e+23 1.4510676e+21 1.1195049e+21)
(-1.0116908e+23 3.1155007e+21 1.4127086e+21)
(-9.6973242e+22 1.9175184e+21 -1.4600405e+21)
(-9.7246507e+22 1.5175309e+21 -1.6878723e+21)
(-1.2455408e+23 1.3855606e+21 -5.2979038e+21)
(-9.5446329e+22 1.8022151e+21 3.4568264e+20)
(-1.0017423e+23 1.8908891e+21 -1.5537815e+21)
(-1.0111052e+23 2.4540469e+21 -1.6571906e+21)
(-9.750797e+22 2.8790917e+21 5.7576191e+20)
(-9.4952762e+22 4.0305101e+21 -1.9513362e+21)
(-9.1939927e+22 3.0122699e+21 -1.9297432e+21)
(-9.1110931e+22 2.8887661e+21 -1.5355684e+21)
(-9.4299044e+22 3.3166065e+21 -1.5968984e+21)
(-1.2444148e+23 -3.8183937e+20 -2.2388941e+21)
(-9.5174701e+22 1.810201e+21 -6.882074e+20)
(-9.8917688e+22 1.9005734e+21 -1.477925e+21)
(-9.9841208e+22 1.4963114e+21 -1.6671397e+21)
(-9.5975985e+22 1.4942055e+21 -5.4492499e+20)
(-9.1754043e+22 2.1577128e+21 -1.4665886e+21)
(-8.919505e+22 2.9000954e+21 -1.1120856e+21)
(-8.9702537e+22 3.1062773e+21 -1.0314119e+21)
(-9.1395123e+22 2.2791543e+21 -1.2810054e+21)
(-8.4092076e+22 2.4892352e+21 -7.1543853e+20)
(-8.2874636e+22 3.2625262e+21 -7.5978201e+20)
(-8.4139813e+22 4.0166085e+21 -9.8523308e+20)
(-8.4457275e+22 3.2264232e+21 -9.0504351e+20)
(-1.2560055e+23 -1.1269169e+21 -9.7967548e+20)
(-9.5949487e+22 6.4969531e+20 -6.0701185e+20)
(-9.7681663e+22 8.6888523e+20 -9.9786514e+20)
(-9.7709004e+22 8.8088529e+20 -8.253581e+20)
(-9.5636833e+22 4.0978476e+20 -2.8732406e+20)
(-8.8461198e+22 1.8455179e+21 -8.2243663e+20)
(-8.8402377e+22 2.1165786e+21 -1.0643529e+21)
(-9.1114728e+22 2.0368137e+21 -1.2700219e+21)
(-9.0354329e+22 1.6574644e+21 -1.078011e+21)
(-8.3518659e+22 2.440839e+21 -6.7032162e+20)
(-8.380583e+22 2.2576664e+21 -6.5344178e+20)
(-8.595175e+22 2.7651261e+21 -7.0083994e+20)
(-8.5741432e+22 2.5751315e+21 -6.7817222e+20)
(-8.2897932e+22 3.7423161e+21 -6.4344882e+20)
(-8.1725966e+22 2.7577827e+21 -6.2266659e+20)
(-8.3917458e+22 3.4131389e+21 -6.2220984e+20)
(-8.3732962e+22 4.3337707e+21 -6.3542919e+20)
(-9.2228062e+22 1.2157243e+20 -9.5745276e+20)
(-9.9267472e+22 -2.4596672e+19 -1.107601e+21)
(-1.2645704e+23 -1.0048003e+21 -7.5952207e+20)
(-9.7842092e+22 2.2324639e+20 -3.6923692e+20)
(-9.7567698e+22 -3.5108988e+20 -3.4802874e+20)
(-9.7192479e+22 3.5569576e+19 2.537585e+20)
(-9.1292818e+22 4.9943439e+20 -1.1321908e+21)
(-9.1706203e+22 6.5404919e+20 -1.114338e+21)
(-9.0467908e+22 5.1475028e+20 -8.7470619e+20)
(-8.4578946e+22 1.5851189e+21 -7.0314321e+20)
(-8.5826568e+22 7.1334515e+20 -7.8826445e+20)
(-8.3538755e+22 2.0560672e+21 -7.7184577e+20)
(-8.5810591e+22 7.0469425e+20 -7.4264957e+20)
(-8.0517086e+22 2.4931766e+21 -7.06938e+20)
(-8.2731256e+22 1.2944771e+21 -6.8769064e+20)
(-7.9912564e+22 2.7537596e+21 -7.1363051e+20)
(-8.3185128e+22 9.5486191e+20 -6.8710392e+20)
(-1.2332153e+23 -1.1653125e+21 -8.3466588e+20)
(-9.46659e+22 -3.5590529e+20 -9.0954805e+20)
(-9.363168e+22 -5.2310519e+20 -2.8122263e+20)
(-9.3948927e+22 -7.1070126e+20 -6.974052e+20)
(-9.3419199e+22 -1.0620667e+21 -1.0433103e+21)
(-9.2671049e+22 -6.3874954e+20 1.4119658e+20)
(-9.2971653e+22 -2.5683568e+19 -3.6310994e+20)
(-9.3924319e+22 -1.1703194e+21 -1.041772e+21)
(-9.4881627e+22 -9.2902096e+20 -8.0349151e+20)
(-8.7725434e+22 -7.6506961e+20 -8.970847e+20)
(-8.9889759e+22 -9.1536089e+20 -1.0416545e+21)
(-8.9674389e+22 -1.0029254e+21 -9.9092076e+20)
(-8.9591869e+22 -9.4288963e+20 -1.4333285e+21)
(-9.261523e+22 -9.6533838e+20 -1.1916609e+21)
(-9.0420823e+22 -9.1544752e+20 -1.4007837e+21)
(-9.0781189e+22 -7.7986742e+20 -1.15592e+21)
(-9.011262e+22 -9.3548591e+20 -8.4136706e+20)
(-9.0021503e+22 -8.3432799e+20 -9.5534046e+20)
(-8.7263586e+22 -3.0919543e+20 -1.1270569e+21)
(-8.1034309e+22 4.8799341e+20 -7.9742007e+20)
(-8.0767666e+22 7.4749669e+20 -8.7723818e+20)
(-8.2722951e+22 3.5227291e+19 -7.6090126e+20)
(-8.9493025e+22 -3.1361919e+20 -7.5583857e+20)
(-8.9446149e+22 -5.1722155e+20 -1.060836e+21)
(-8.9710699e+22 -6.5538718e+20 -9.1074596e+20)
(-8.378708e+22 -2.8462224e+20 -7.0913623e+20)
(-8.9551349e+22 -8.2138404e+20 -1.0174695e+21)
(-8.4623698e+22 -7.4251519e+20 -1.1956885e+21)
(-8.1833522e+22 -8.1850179e+20 -9.502585e+20)
(-8.1950707e+22 -8.3363873e+20 -8.3155117e+20)
(-8.4239251e+22 -7.192636e+20 -1.093712e+21)
(-7.9830375e+22 -8.0230742e+20 -5.9265694e+20)
(-7.8848105e+22 -8.0908335e+20 -5.5127457e+20)
(-8.7667312e+22 -3.3329384e+20 -8.0471748e+20)
(-8.344071e+22 -6.4817335e+20 -1.125485e+21)
(-8.0972634e+22 -7.2040953e+20 -6.0302589e+20)
(-8.3332543e+22 2.3354785e+20 -7.3343298e+20)
(-8.7261559e+22 -3.5013881e+20 -7.9425934e+20)
(-8.419106e+22 -7.2635063e+20 -1.1196732e+21)
(-7.9955143e+22 -7.196414e+20 -2.3200586e+20)
(-8.3118596e+22 3.5258123e+20 -8.3209928e+20)
(-7.9088652e+22 1.1891023e+21 -8.0810022e+20)
(-7.8551799e+22 9.3677745e+20 -8.1292985e+20)
(-8.1260218e+22 5.9910524e+20 -6.8075773e+20)
(-8.1343568e+22 1.0625487e+21 -6.8449767e+20)
(-8.4224874e+22 -6.6042757e+20 -9.5346369e+20)
(-8.1963271e+22 -6.7678029e+20 -9.115746e+20)
(-8.2212475e+22 -5.8576265e+20 -7.8984162e+20)
(-8.3520536e+22 -4.8002751e+20 -8.9688537e+20)
(-7.9785024e+22 -6.1723926e+20 -8.1848859e+20)
(-7.9772364e+22 -6.2782631e+20 -7.2408888e+20)
(-8.171216e+22 5.6129061e+20 -7.547075e+20)
(-8.2015667e+22 -3.1219881e+20 -6.9099851e+20)
(-7.9813153e+22 -5.7975639e+20 -7.0552537e+20)
(-7.9690854e+22 -6.2330392e+20 -6.7763541e+20)
(-1.1630738e+23 -3.5567677e+21 7.2024999e+21)
(-1.2485246e+23 -3.543202e+21 3.5105249e+20)
(-9.4228706e+22 1.4157387e+21 -9.8238512e+20)
(-9.5250234e+22 -4.9045637e+20 -4.7351351e+20)
(-1.0079367e+23 -4.2716152e+20 6.0554807e+20)
(-9.6485494e+22 9.3272234e+20 -4.575839e+20)
(-9.3113056e+22 1.1553209e+21 1.0969229e+21)
(-9.3157939e+22 7.6523328e+20 8.7445157e+20)
(-9.7644771e+22 6.4793905e+20 6.4981813e+20)
(-9.6186914e+22 2.9493638e+19 -3.3597271e+20)
(-1.2647783e+23 -1.4777357e+21 3.0837041e+20)
(-9.452608e+22 4.856296e+20 -4.8231439e+20)
(-9.612317e+22 8.2811001e+20 2.0011837e+20)
(-8.8579171e+22 1.0863134e+21 8.1367768e+20)
(-8.7718368e+22 1.2136677e+21 9.3818224e+20)
(-8.4646987e+22 7.0512915e+20 8.5572463e+20)
(-9.0063193e+22 -2.5917723e+20 8.3501066e+20)
(-9.4644342e+22 -1.3155925e+20 1.0923283e+21)
(-1.2362391e+23 -9.6549577e+20 4.4987548e+20)
(-9.3075278e+22 -4.21283e+20 8.0310695e+19)
(-9.1731396e+22 -5.2393954e+20 8.283576e+20)
(-8.960706e+22 -3.1740754e+19 -3.3770752e+20)
(-9.180197e+22 -9.405706e+20 9.959213e+20)
(-9.0086432e+22 2.8896542e+20 5.3146285e+20)
(-9.226242e+22 8.7975989e+19 4.0389478e+20)
(-9.2411601e+22 -4.8847435e+20 3.8910661e+20)
(-8.6789779e+22 -3.421921e+20 7.4233702e+20)
(-8.8679746e+22 -3.7261188e+20 5.7824003e+20)
(-8.7035943e+22 -3.7350621e+20 7.9165627e+20)
(-8.946649e+22 -3.1429166e+20 5.2991171e+20)
(-8.9316347e+22 8.0077614e+19 8.7299774e+20)
(-8.9512993e+22 -8.5145631e+20 1.0527325e+21)
(-8.8895397e+22 -8.4064304e+20 1.1213023e+21)
(-8.738854e+22 -7.5915332e+20 6.5401502e+20)
(-8.6597713e+22 -7.8009069e+20 6.8407746e+20)
(-8.2054557e+22 6.304686e+20 7.597609e+20)
(-8.5066425e+22 -1.5728847e+20 8.4943698e+20)
(-8.1811982e+22 7.566187e+19 6.6620175e+20)
(-8.5047131e+22 -6.2983135e+20 4.140058e+20)
(-8.4634806e+22 -4.6371399e+19 7.4729286e+20)
(-8.1531495e+22 4.5190812e+20 7.4520368e+20)
(-8.4720818e+22 -3.9783902e+20 7.2033666e+20)
(-7.9407878e+22 -6.7091051e+20 5.5885074e+20)
(-8.4936897e+22 -5.5956319e+20 8.9527264e+20)
(-8.4662312e+22 -5.8618953e+20 8.5897452e+20)
(-8.0450805e+22 -6.9026671e+20 4.7804326e+20)
(-1.2294208e+23 -4.8542755e+21 -3.0908439e+20)
(-1.2868377e+23 -2.3942513e+21 -5.5604872e+20)
(-1.3008745e+23 -1.2277377e+21 -5.6720618e+20)
(-8.6039537e+22 -7.9279742e+20 4.1342904e+20)
(-8.6226772e+22 -7.5892174e+20 4.9835143e+20)
(-9.3277561e+22 -1.0881531e+21 3.5426803e+20)
(-1.2728233e+23 -1.0229204e+21 -3.9872793e+20)
(-9.8625706e+22 -5.7715368e+20 -1.9611216e+20)
(-9.7732574e+22 1.2239136e+20 -4.0874019e+20)
(-9.958966e+22 -8.8046837e+20 -2.4896221e+20)
(-9.8640138e+22 -1.8510612e+20 -3.800724e+20)
(-9.247828e+22 -9.0956314e+20 1.3004181e+20)
(-9.4403955e+22 -1.017377e+21 1.3994622e+20)
(-9.3830644e+22 -1.0792772e+21 3.1623089e+20)
(-8.4893884e+22 -7.5703323e+20 2.6039214e+20)
(-8.4249304e+22 -8.0185518e+20 3.6972667e+19)
(-8.0686691e+22 -7.6357805e+20 -1.2924286e+20)
(-8.3048864e+22 -7.3780551e+20 3.5544233e+20)
(-8.2479259e+22 -7.2140768e+20 3.2617e+20)
(-8.0296723e+22 -7.8032948e+20 -3.7522814e+20)
(-1.2241586e+23 -7.1869091e+20 -6.4970473e+21)
(-1.2676238e+23 -1.7598982e+21 -1.9704105e+21)
(-1.2908285e+23 -1.4287055e+21 -4.6992146e+20)
(-1.3013293e+23 -1.0072454e+21 -6.9632537e+19)
(-9.1518771e+22 -1.1137192e+21 -2.1705611e+20)
(-9.884153e+22 -8.5212604e+20 -1.0684406e+20)
(-1.2713002e+23 -9.5506419e+20 -6.1523561e+19)
(-9.745619e+22 -5.3334426e+20 -1.8340816e+20)
(-9.7738433e+22 -1.3561719e+20 -3.9470295e+20)
(-9.7963702e+22 -3.1955325e+20 -2.2604164e+20)
(-8.9024403e+22 -7.8003363e+20 -4.6673604e+20)
(-8.8986521e+22 -9.9415147e+20 -5.9991066e+20)
(-9.202882e+22 -1.2270889e+21 -3.9933406e+20)
(-8.3856306e+22 -8.3645349e+20 -5.444458e+20)
(-8.3622576e+22 -8.6982088e+20 -8.4233739e+20)
(-8.2054346e+22 -8.2028134e+20 -7.8689617e+20)
(-8.2435441e+22 -8.4806251e+20 -9.1800036e+20)
(-7.9892857e+22 -7.9042731e+20 -1.1438412e+21)
(-8.0491556e+22 -7.9987795e+20 -1.164557e+21)
(-8.0143299e+22 -7.874987e+20 -1.2864174e+21)
(-8.0012714e+22 -7.5073209e+20 -1.4429192e+21)
(-1.5284747e+23 5.0326242e+21 -7.1075673e+21)
(-1.4014981e+23 3.2723732e+21 -1.1389047e+22)
(-1.0115851e+23 1.5666443e+21 1.2836347e+21)
(-9.7619169e+22 1.5471675e+21 -1.8774267e+21)
(-9.8188918e+22 2.2474057e+21 -1.9508044e+21)
(-1.0197466e+23 3.5299187e+21 1.5866442e+21)
(-1.2545932e+23 1.9587894e+21 -5.5942191e+21)
(-9.6723704e+22 2.9255792e+21 7.8738424e+20)
(-9.5902266e+22 1.767178e+21 6.3532852e+20)
(-1.0073761e+23 2.0659752e+21 -1.4872675e+21)
(-1.0151875e+23 2.5823162e+21 -1.5980691e+21)
(-9.2100749e+22 3.4971236e+21 -1.6990948e+21)
(-9.3248215e+22 3.3560542e+21 -1.6843732e+21)
(-9.3173257e+22 3.4397893e+21 -1.8853319e+21)
(-9.2835684e+22 3.7288594e+21 -2.02196e+21)
(-1.2340691e+23 4.8476505e+20 -2.8841332e+21)
(-9.5816039e+22 1.7106973e+21 -8.14379e+20)
(-1.0136875e+23 2.2135927e+21 -1.8539032e+21)
(-1.0048586e+23 1.8867927e+21 -1.7340243e+21)
(-9.6654119e+22 2.2191995e+21 -5.7330025e+20)
(-9.0562143e+22 3.034683e+21 -1.2956532e+21)
(-9.098252e+22 3.0235344e+21 -1.0516119e+21)
(-9.3559214e+22 3.1311698e+21 -1.2431111e+21)
(-9.3272115e+22 3.0432543e+21 -1.5270568e+21)
(-8.8708217e+22 3.8299196e+21 -9.9261907e+20)
(-8.6456113e+22 2.8510015e+21 -1.0124393e+21)
(-8.3850231e+22 2.4393083e+21 -7.4076906e+20)
(-8.7222193e+22 3.012013e+21 -7.5422539e+20)
(-1.2446615e+23 -7.2938016e+20 -1.2950506e+21)
(-9.6852542e+22 9.6292152e+20 -7.2436682e+20)
(-9.8629948e+22 1.3081768e+21 -1.4318518e+21)
(-9.8398721e+22 8.9023494e+20 -1.3211014e+21)
(-9.5973174e+22 6.3575097e+20 -6.8990215e+20)
(-8.9437909e+22 2.2515774e+21 -9.1264395e+20)
(-8.9323531e+22 2.591675e+21 -1.2502834e+21)
(-9.0980164e+22 1.9897204e+21 -1.4741918e+21)
(-8.9971319e+22 1.727658e+21 -1.2058096e+21)
(-8.5866198e+22 2.4415379e+21 -7.4410946e+20)
(-8.4869747e+22 3.1262175e+21 -7.2204153e+20)
(-8.3749587e+22 3.1502571e+21 -7.4037708e+20)
(-8.5745321e+22 2.3401781e+21 -7.8934765e+20)
(-8.313194e+22 2.8177866e+21 -7.1457819e+20)
(-8.2232458e+22 3.6308449e+21 -7.415662e+20)
(-8.3841716e+22 4.3109478e+21 -8.0611996e+20)
(-8.3578316e+22 3.518598e+21 -7.5901107e+20)
(-1.2579406e+23 -1.15759e+21 -8.2584574e+20)
(-9.7158043e+22 4.4383479e+18 -4.5511471e+20)
(-9.6492979e+22 -4.4090968e+20 -9.8492665e+19)
(-9.7307443e+22 -1.1683559e+20 -4.1367569e+20)
(-9.7790016e+22 2.6303312e+20 -8.3392861e+20)
(-8.9572993e+22 1.0962095e+21 -8.8818299e+20)
(-8.9284399e+22 1.4309016e+21 -1.2203854e+21)
(-8.9464855e+22 1.110585e+21 -1.2995863e+21)
(-8.9114698e+22 4.3458453e+20 -8.9629946e+20)
(-8.3657748e+22 2.1213685e+21 -7.5516348e+20)
(-8.3349329e+22 2.4001346e+21 -7.9145824e+20)
(-8.5479797e+22 2.3351628e+21 -7.7265546e+20)
(-8.5298881e+22 1.9395808e+21 -7.2989902e+20)
(-8.1069717e+22 2.5860383e+21 -6.7211053e+20)
(-8.144424e+22 2.4528858e+21 -6.4485032e+20)
(-8.3884495e+22 2.9216472e+21 -6.7119302e+20)
(-8.3637975e+22 2.7203272e+21 -6.8895082e+20)
(-8.5959127e+22 4.0224215e+20 -7.2529168e+20)
(-9.2263726e+22 -1.1676391e+20 -1.2057289e+21)
(-1.2643902e+23 -1.0505173e+21 -7.7637149e+20)
(-9.8438381e+22 -5.2871836e+20 -6.9415879e+20)
(-9.7286076e+22 -7.4115597e+20 -2.4039396e+20)
(-9.8814225e+22 -4.4035185e+20 8.5286557e+19)
(-9.8895129e+22 -3.4072509e+20 -5.0602693e+20)
(-9.0339899e+22 4.4468825e+20 -1.029612e+21)
(-9.1143729e+22 -2.9380586e+20 -1.0128098e+21)
(-9.1313881e+22 1.5845769e+20 -8.097849e+20)
(-8.538102e+22 7.0048496e+20 -8.1598971e+20)
(-8.5601446e+22 9.3505563e+20 -8.0400442e+20)
(-8.5031929e+22 6.9439515e+20 -7.6485547e+20)
(-8.2403718e+22 1.7037653e+21 -7.3256976e+20)
(-8.3638856e+22 7.9301623e+20 -7.3912989e+20)
(-8.1343947e+22 2.1788244e+21 -7.3581115e+20)
(-8.3626523e+22 7.8495178e+20 -7.4839093e+20)
(-1.2319944e+23 -1.2291274e+21 -8.5420178e+20)
(-9.4268486e+22 -4.250946e+20 -3.2873286e+20)