/*--------------------------------*- C++ -*----------------------------------*\
  =========                 |
  \\      /  F ield         | OpenFOAM: The Open Source CFD Toolbox
   \\    /   O peration     | Website:  https://openfoam.org
    \\  /    A nd           | Version:  7
     \\/     M anipulation  |
\*---------------------------------------------------------------------------*/
FoamFile
{
    version     2.0;
    format      ascii;
    class       volScalarField;
    location    "4000";
    object      k;
}
// * * * * * * * * * * * * * * * * * * * * * * * * * * * * * * * * * * * * * //

dimensions      [0 2 -2 0 0 0 0];

internalField   nonuniform List<scalar> 
34378
(
1.5248987
1.5192219
1.52382
1.5223933
1.5260822
1.5236767
1.5254574
1.5185168
1.519815
1.518297
1.5192776
1.5193307
1.5227306
1.5228972
1.5243669
1.5242563
1.5212903
1.5206473
1.5226897
1.5231685
1.5228703
1.5242312
1.5255875
1.5249691
1.5288063
1.5239509
1.5240539
1.5239269
1.5224709
1.5219786
1.5187418
1.5180835
1.5183036
1.5196321
1.5188938
1.5195424
1.5180676
1.5181289
1.5185175
1.5186052
1.5185767
1.5187415
1.5192989
1.5183527
1.5195156
1.5198123
1.517902
1.5218552
1.5220874
1.5206013
1.5231913
1.5230575
1.5221413
1.5221736
1.5232531
1.5232573
1.5217166
1.5211825
1.5198981
1.5197645
1.5208899
1.519742
1.5208627
1.5222293
1.5221964
1.5232529
1.5232177
1.5217779
1.522058
1.5224279
1.5239971
1.5241037
1.5237389
1.5236156
1.5237177
1.5235562
1.5236809
1.5238251
1.5251676
1.5237283
1.5235998
1.5250535
1.5244883
1.5244369
1.5297858
1.5304869
1.5300839
1.5294492
1.52365
1.523994
1.5230317
1.5230724
1.5230577
1.5230561
1.5229959
1.5228412
1.5213813
1.5207823
1.520556
1.5205183
1.5178498
1.5177648
1.5188301
1.5181977
1.518477
1.5188971
1.5189528
1.5198079
1.5198385
1.5189179
1.5188803
1.5189421
1.5188894
1.5182938
1.5204332
1.5201542
1.5184022
1.5181559
1.5182055
1.5185839
1.5186896
1.517867
1.5186483
1.5185753
1.5185307
1.5186743
1.5187663
1.5187459
1.518799
1.5187665
1.5184884
1.5186893
1.5193694
1.5181908
1.5196456
1.5177466
1.5176045
1.5187792
1.5188167
1.5197371
1.5196939
1.5180799
1.5207178
1.5208087
1.5182725
1.5172516
1.5174962
1.5176341
1.5174036
1.5201661
1.521069
1.5212937
1.5222883
1.522175
1.5214349
1.521473
1.522435
1.5224321
1.5196297
1.5206071
1.5209983
1.521495
1.5214926
1.5224937
1.5224909
1.5215344
1.5215612
1.5225118
1.5225185
1.5192567
1.5193218
1.520088
1.5201461
1.5192355
1.5192136
1.5199708
1.520009
1.5199506
1.519204
1.5192136
1.5199455
1.5216261
1.5216003
1.5225579
1.5225724
1.5215803
1.5215865
1.5225129
1.5225344
1.5207621
1.5209506
1.5204319
1.5202254
1.5201461
1.520187
1.5205843
1.5205493
1.5203683
1.5208082
1.5213338
1.5209584
1.5229017
1.5227761
1.5226155
1.5230406
1.5228303
1.5228277
1.5231009
1.5231005
1.5228943
1.5227696
1.5227735
1.5228978
1.5227
1.5227296
1.5225717
1.5228448
1.5226773
1.5227214
1.5225722
1.5228189
1.5228228
1.5226864
1.5226444
1.5227886
1.5236578
1.522813
1.5228072
1.5228505
1.5237731
1.5228572
1.5227573
1.5227512
1.5228557
1.522861
1.5235957
1.5234535
1.5228741
1.5227509
1.5227824
1.5228459
1.5228003
1.5228304
1.5228418
1.522869
1.5236885
1.5234317
1.5235258
1.5232853
1.5234718
1.5235444
1.5246881
1.5236382
1.523684
1.5238879
1.5238762
1.5246411
1.5236268
1.5236104
1.5234729
1.5234497
1.5229129
1.5227663
1.5227995
1.5228824
1.5231022
1.5228222
1.5228591
1.5230703
1.5224059
1.5223804
1.5224211
1.5224414
1.5223506
1.5223475
1.5223806
1.522374
1.5222942
1.5222961
1.5220126
1.5221448
1.5208261
1.5203835
1.5199024
1.5199619
1.5198018
1.5198474
1.5197883
1.5197847
1.5219105
1.5211959
1.517818
1.5177561
1.5189042
1.518949
1.5189083
1.5181947
1.5184494
1.5188882
1.5188985
1.5188911
1.5189088
1.5189311
1.5189473
1.5189316
1.518956
1.5190026
1.519023
1.5199475
1.5199429
1.5199367
1.5199643
1.5190401
1.5190592
1.518943
1.5188969
1.5179644
1.5201268
1.5198678
1.5181436
1.5181586
1.5181832
1.518645
1.518589
1.5186831
1.5187624
1.5187769
1.5187999
1.5177528
1.5179004
1.5177471
1.5174921
1.5185352
1.518686
1.5188067
1.5187756
1.5176897
1.5184442
1.5185496
1.5183823
1.5185649
1.5186786
1.5186987
1.5186836
1.5187161
1.5184449
1.5186867
1.5192975
1.5196214
1.5183439
1.5173917
1.5179305
1.5188011
1.5197408
1.5198004
1.5188397
1.5172359
1.5172748
1.51772
1.5177751
1.5175741
1.5175515
1.5173508
1.5173183
1.5187722
1.5187802
1.5187783
1.5187914
1.5188031
1.5188168
1.5188089
1.5188306
1.5189228
1.5189395
1.5198556
1.5198832
1.5188944
1.5198192
1.5189063
1.5198253
1.5177122
1.5202566
1.5203535
1.5178887
1.5173072
1.5171937
1.5170743
1.5168827
1.5174638
1.5174468
1.5172327
1.5171995
1.5171118
1.5176366
1.5171549
1.5176748
1.5167209
1.5173527
1.5169908
1.5175714
1.5193659
1.5198064
1.5205545
1.520275
1.5201009
1.5199232
1.5216067
1.521658
1.5203373
1.5202627
1.521803
1.5218231
1.5204148
1.5204092
1.521975
1.5219759
1.5204904
1.5204678
1.5219966
1.5219933
1.5190605
1.5191098
1.5199094
1.5198661
1.5204585
1.5204799
1.5220385
1.5220338
1.5204418
1.5204644
1.5220375
1.5220336
1.520498
1.5205054
1.5220793
1.5220716
1.5205952
1.5205399
1.5220827
1.5220877
1.5188003
1.518805
1.5194927
1.5194979
1.5188254
1.5188725
1.519566
1.5195408
1.5194656
1.5187396
1.5187767
1.5194885
1.5194962
1.5187584
1.5187644
1.5194388
1.5194526
1.518771
1.5194372
1.5187664
1.5194338
1.5187775
1.5187872
1.5194325
1.5194394
1.5205995
1.5206476
1.5221503
1.5221617
1.520591
1.5205723
1.5221392
1.5221273
1.5205681
1.5221223
1.5221095
1.5205558
1.5205868
1.5206258
1.5220989
1.5221041
1.523991
1.5195334
1.520768
1.520546
1.5198496
1.5203618
1.5199562
1.5204161
1.5203996
1.5199021
1.5200528
1.520493
1.5196213
1.5195522
1.5196724
1.5194987
1.519529
1.5195956
1.5196045
1.5195011
1.5195997
1.519496
1.5195069
1.5196521
1.519616
1.5195868
1.519629
1.5198566
1.5198187
1.5195775
1.5198042
1.5195728
1.5197996
1.5195777
1.5197008
1.5197538
1.5196346
1.5196668
1.519923
1.5197252
1.5199757
1.5205944
1.5201295
1.5204081
1.5208005
1.5204831
1.5201671
1.5200038
1.5205851
1.5205518
1.5204334
1.5218265
1.5220654
1.5219711
1.5221858
1.5220226
1.5220191
1.5221614
1.5221599
1.5217175
1.5218789
1.5218755
1.5220131
1.5221238
1.522332
1.5221227
1.522333
1.5220968
1.5220849
1.5222355
1.5222263
1.5220566
1.5222009
1.5220543
1.5222001
1.5222041
1.5221949
1.5224115
1.5224052
1.5223817
1.522169
1.522166
1.5223814
1.5219434
1.5220986
1.5219408
1.5220995
1.5218845
1.5218815
1.5219976
1.5219976
1.5219263
1.5219115
1.5220376
1.5220246
1.5219851
1.5219717
1.5221381
1.5221273
1.521608
1.52178
1.5217733
1.5219269
1.5218634
1.5218584
1.521975
1.5219714
1.5215638
1.5216842
1.5217299
1.5218366
1.5219169
1.5219127
1.52207
1.5220673
1.5215135
1.5216485
1.5216744
1.5218004
1.521788
1.5217859
1.5218743
1.5218717
1.5215235
1.521609
1.5216757
1.5217552
1.5217994
1.5217952
1.521929
1.5219254
1.5218196
1.5218842
1.5218223
1.5218853
1.521575
1.5216386
1.5217191
1.5217776
1.5217404
1.5218734
1.5227405
1.5218406
1.5219733
1.5219682
1.5219747
1.5228748
1.5220675
1.5220592
1.522802
1.5226583
1.5220028
1.5219967
1.5228999
1.5220803
1.522088
1.5219599
1.5219616
1.5228945
1.5220436
1.5220442
1.5218184
1.5218855
1.5218167
1.5218866
1.5228196
1.522823
1.5218612
1.5219278
1.5218534
1.521919
1.5218374
1.5219254
1.5218263
1.5219138
1.5217952
1.5218843
1.5217926
1.521884
1.5218146
1.5219446
1.5218111
1.5219448
1.5218562
1.5219859
1.5218427
1.5219729
1.5228849
1.5228864
1.5228997
1.5229026
1.5228624
1.5227147
1.522742
1.5228777
1.5219153
1.5220392
1.5218957
1.5220236
1.5218761
1.521853
1.5219601
1.5219372
1.5218939
1.5219793
1.5218764
1.5219645
1.5218957
1.5218707
1.5220191
1.5219951
1.5220284
1.5220076
1.5228782
1.5220835
1.5221074
1.5220515
1.5220387
1.5229046
1.5221168
1.5221329
1.5218959
1.5219596
1.5218747
1.5219389
1.5219161
1.5219781
1.5219001
1.5219656
1.5228334
1.5228067
1.5225343
1.5220311
1.5227685
1.5221128
1.5227118
1.5224575
1.5229006
1.5228842
1.522862
1.5228775
1.5225352
1.5227683
1.5227723
1.5225444
1.5229138
1.5230513
1.5228859
1.523089
1.5235825
1.522787
1.5229541
1.5228013
1.5229477
1.5234592
1.5235301
1.5236991
1.5231078
1.5231076
1.5231625
1.5231627
1.5229941
1.5229913
1.5229797
1.5229787
1.5235648
1.5235854
1.5235771
1.5237125
1.5236337
1.5235325
1.5229724
1.5229592
1.5229473
1.5229644
1.5230796
1.5231409
1.5231386
1.5230734
1.5229789
1.5230572
1.5229474
1.52284
1.5228476
1.5228671
1.5226856
1.5226515
1.5220475
1.5220267
1.5221947
1.5221779
1.5219639
1.5219377
1.5220713
1.5220471
1.5219845
1.5220943
1.5219652
1.5220781
1.5220233
1.5219967
1.5221687
1.5221446
1.5222717
1.5224657
1.5222503
1.5224495
1.5221321
1.5222653
1.5221052
1.5222418
1.5221599
1.5222972
1.5221389
1.5222798
1.5222386
1.5222124
1.5224314
1.5224092
1.5220417
1.5220245
1.5220229
1.5220215
1.5220579
1.5220458
1.5220807
1.5220657
1.5219526
1.5219437
1.5219503
1.5219514
1.5219962
1.5219849
1.5220082
1.5219998
1.5218929
1.5218919
1.5219141
1.5219136
1.5204426
1.5215118
1.5215668
1.5217184
1.521743
1.5201241
1.5197388
1.5197836
1.5193879
1.519392
1.5194324
1.5194612
1.519356
1.5193407
1.5203469
1.5193976
1.5193868
1.5193368
1.519342
1.5193438
1.5193376
1.5218622
1.5213084
1.5177538
1.5182828
1.5182894
1.5176782
1.5186498
1.518338
1.5189475
1.5189158
1.5189721
1.5189292
1.5188858
1.5189006
1.518892
1.5188874
1.518902
1.5188925
1.5189064
1.518909
1.5189153
1.5189199
1.5189226
1.5189449
1.5189329
1.518926
1.5189364
1.518928
1.5189463
1.5189545
1.5189502
1.5189651
1.5189119
1.5188973
1.5189105
1.5189287
1.5189289
1.5189236
1.5189461
1.5189406
1.5191576
1.5197374
1.5197489
1.5191609
1.519778
1.5191583
1.5191544
1.5197476
1.5191701
1.5191776
1.5197448
1.5197405
1.5197754
1.5191968
1.5192029
1.5197924
1.5189445
1.5189403
1.5189619
1.5189576
1.5189738
1.5189559
1.5189907
1.5189708
1.5189536
1.5189371
1.5189223
1.5189462
1.518907
1.5189005
1.5188887
1.5188998
1.5176922
1.5173844
1.5174083
1.5201149
1.5199343
1.5179318
1.5175951
1.5177817
1.5186891
1.5186052
1.5187066
1.5186089
1.5187173
1.5188026
1.5187834
1.5188297
1.5188019
1.5188252
1.5176791
1.5174261
1.5185901
1.5185318
1.5184523
1.5185704
1.5183993
1.5185604
1.5187004
1.5186862
1.5186797
1.5187046
1.5186787
1.5187071
1.5188153
1.5188038
1.518799
1.5188184
1.5188004
1.5188205
1.5187837
1.5187787
1.5187728
1.5187814
1.5187721
1.5187832
1.517551
1.5176998
1.5174679
1.5177105
1.5184035
1.5183482
1.5183037
1.5184083
1.5185572
1.5185566
1.5185781
1.5185979
1.5186875
1.5186806
1.5187004
1.5186877
1.5187121
1.5187196
1.5187209
1.5187342
1.5178024
1.518275
1.5184119
1.518422
1.5182498
1.5185595
1.5186119
1.5186334
1.5185681
1.5184809
1.5189565
1.518387
1.5186034
1.5191884
1.519372
1.5187751
1.5188414
1.5194536
1.5175121
1.5181029
1.5173433
1.5173667
1.5172938
1.51733
1.517384
1.51734
1.5178992
1.5179478
1.5186942
1.5187111
1.5187303
1.5187076
1.5195327
1.518928
1.5189531
1.5195556
1.5196095
1.5189932
1.5189917
1.5196145
1.5187455
1.5187295
1.5187652
1.5187473
1.5172118
1.5172202
1.5171819
1.5171964
1.5172419
1.5172536
1.5172135
1.5172318
1.5172265
1.5177447
1.5172462
1.5177673
1.5172621
1.5172789
1.5177769
1.517805
1.5172914
1.5172621
1.5187795
1.5187756
1.5187823
1.5187897
1.5187988
1.5187895
1.5187913
1.5188018
1.5188121
1.5188048
1.5188165
1.5188071
1.5188241
1.5188318
1.5188301
1.518844
1.5188248
1.5188195
1.5188356
1.5188426
1.5188535
1.5188368
1.5188528
1.5188715
1.5196539
1.5190597
1.5190636
1.5196533
1.5190959
1.519081
1.5196871
1.5197183
1.5187983
1.5187889
1.5188034
1.5188162
1.5196258
1.5190301
1.519037
1.51962
1.5188107
1.5188072
1.5188248
1.518828
1.5190319
1.5190419
1.5196142
1.5196126
1.5174273
1.5170147
1.5171441
1.5202761
1.5203415
1.517596
1.5172701
1.5172924
1.5170226
1.5168326
1.5171747
1.5171419
1.5170882
1.5170572
1.5170974
1.5170719
1.5171072
1.5176728
1.5171266
1.5176881
1.5171232
1.5171379
1.5170933
1.5171171
1.5176984
1.517717
1.5171472
1.5171693
1.5166132
1.5166649
1.5168029
1.5167837
1.5165474
1.5165449
1.5168484
1.5172885
1.5175289
1.5169304
1.5169722
1.5169631
1.5169889
1.5169854
1.5175966
1.5170313
1.5176334
1.5191533
1.5185443
1.5184659
1.5197757
1.5198104
1.519153
1.5188196
1.520101
1.5203089
1.5199959
1.5198134
1.5202417
1.5201564
1.5203075
1.5202995
1.5203879
1.5203516
1.5182819
1.5183058
1.5194627
1.5194606
1.518336
1.5182939
1.5194982
1.5195233
1.5203434
1.5203654
1.5203283
1.5203611
1.5203837
1.5203918
1.5204884
1.5204266
1.5181049
1.5181242
1.5191664
1.5191628
1.5181018
1.5181061
1.5191696
1.5191649
1.5181165
1.5181172
1.5191973
1.5191948
1.5181924
1.5181423
1.5192255
1.5192498
1.5187636
1.5188275
1.5198804
1.5198405
1.5179408
1.5179023
1.519194
1.5191868
1.5180133
1.5179939
1.5191896
1.5191784
1.5180154
1.51802
1.519153
1.5191474
1.5180567
1.5180425
1.5191432
1.5191356
1.5180873
1.518066
1.5191375
1.5191421
1.5180622
1.5180572
1.5191374
1.5191287
1.5180747
1.5180821
1.5191454
1.5191407
1.5181215
1.5181022
1.5191456
1.5191412
1.5204848
1.5205255
1.5204762
1.5204564
1.5204544
1.5204406
1.5204691
1.5205205
1.5189501
1.5189446
1.519036
1.5190299
1.5202734
1.5197709
1.5198988
1.5203627
1.5202196
1.519831
1.5202681
1.5192781
1.5193162
1.5193469
1.5193063
1.5196544
1.5200361
1.5201023
1.5196848
1.5191968
1.5192699
1.5192369
1.5193071
1.5195519
1.5196313
1.5199595
1.5199878
1.5195622
1.5199449
1.519659
1.5199976
1.5192175
1.5192951
1.5192562
1.5193312
1.5192522
1.5193655
1.5192911
1.5194028
1.5196029
1.5197281
1.5199715
1.520054
1.518974
1.5190632
1.5189827
1.519073
1.5189947
1.5190556
1.5190192
1.5190768
1.5190218
1.5191132
1.5190454
1.519134
1.518948
1.519006
1.5189573
1.5190161
1.519077
1.5191113
1.5189999
1.5189828
1.5190366
1.5190097
1.5190591
1.5190531
1.5190476
1.5191516
1.519148
1.5190057
1.5190001
1.5190774
1.5190734
1.5190573
1.5191561
1.5190489
1.5191485
1.5190088
1.5190015
1.5190811
1.519074
1.5190795
1.5189903
1.5190652
1.5190979
1.5190649
1.5191747
1.5190729
1.5191798
1.5190552
1.5191572
1.5190391
1.5191425
1.5191389
1.5192321
1.5191223
1.5192174
1.5191592
1.5192617
1.5191612
1.5192603
1.519253
1.5194063
1.5192481
1.5193996
1.5192205
1.5193683
1.519204
1.5193542
1.5191329
1.519224
1.5191278
1.5192199
1.5192111
1.5192056
1.5193513
1.5193551
1.5191373
1.5192269
1.5191286
1.5192196
1.5192138
1.5193575
1.5192058
1.5193514
1.5190328
1.5190418
1.5191087
1.5191179
1.5190804
1.5190887
1.5191874
1.519196
1.51913
1.5191543
1.5192376
1.5192591
1.5190817
1.5191595
1.5191053
1.5191807
1.5191648
1.5191722
1.5192637
1.5192699
1.5192463
1.519406
1.5192516
1.5194113
1.5192126
1.5193123
1.5192375
1.5193346
1.5194531
1.5192929
1.5193192
1.5194764
1.5198531
1.5199995
1.5201914
1.5202891
1.5194861
1.5196091
1.5195285
1.5196469
1.5195796
1.5197695
1.5196224
1.5198083
1.5199645
1.5201589
1.5202901
1.5204349
1.5196773
1.5197948
1.520034
1.5201101
1.5193834
1.5194249
1.5195193
1.519558
1.5193258
1.5194219
1.5193664
1.5194598
1.5197471
1.5198939
1.5200951
1.5201974
1.5204115
1.5201927
1.5202283
1.5201904
1.5200118
1.5202093
1.519976
1.5215198
1.5213773
1.5214695
1.5214379
1.5214409
1.521567
1.5216158
1.5214971
1.5216208
1.5216965
1.5216049
1.5216813
1.5216595
1.5217657
1.5216789
1.5217855
1.5215968
1.5216854
1.5216827
1.5215933
1.5215997
1.5216183
1.5217028
1.5216873
1.5217824
1.521675
1.5217837
1.5216714
1.5216777
1.5217885
1.5216937
1.521801
1.5213513
1.5211919
1.5212938
1.5212596
1.5212725
1.5214009
1.5214553
1.521335
1.5215376
1.5214402
1.5215271
1.5214532
1.5215115
1.5216216
1.5215249
1.5216342
1.5217738
1.52185
1.5218493
1.5217723
1.5219352
1.5218337
1.5218328
1.5219358
1.5217926
1.52178
1.5218668
1.521858
1.5219536
1.5218448
1.521951
1.5218527
1.5216837
1.5217729
1.5217596
1.5216682
1.5216825
1.5216839
1.5217706
1.5217689
1.5218631
1.5217657
1.5218743
1.5217508
1.5217623
1.5218715
1.521763
1.521872
1.5217096
1.5216216
1.5217164
1.5216144
1.5217107
1.5218243
1.521818
1.5217017
1.5217141
1.521631
1.5217227
1.5216225
1.5217159
1.5218289
1.5217067
1.5218211
1.521868
1.5219447
1.5219351
1.5218559
1.5218658
1.5219426
1.5218661
1.5219438
1.5220336
1.522025
1.5219323
1.521922
1.5219343
1.5219312
1.5220347
1.5220404
1.521885
1.5219905
1.5219849
1.5218779
1.5218923
1.5218182
1.5218982
1.5218106
1.5218149
1.5218225
1.521901
1.5218953
1.5218835
1.5218885
1.5219907
1.5219893
1.5215097
1.5214288
1.5215137
1.5214226
1.5214969
1.521623
1.5216198
1.5214913
1.5215194
1.5214434
1.5215272
1.5214328
1.5215098
1.5216351
1.5215032
1.5216289
1.5212945
1.5213808
1.5213736
1.5212847
1.5213073
1.5213946
1.5213797
1.5212904
1.5213504
1.5214544
1.52145
1.5213426
1.5213645
1.5214695
1.5214582
1.5213507
1.521353
1.5214414
1.5214267
1.5213364
1.5213481
1.5213573
1.5214444
1.5214367
1.5214128
1.5215176
1.5215051
1.521397
1.5214104
1.5214162
1.5215214
1.5215172
1.5214943
1.5215797
1.5215672
1.5214803
1.5214965
1.5214987
1.5215834
1.5215825
1.5216876
1.5216757
1.5215653
1.5215506
1.5215705
1.5215697
1.5216907
1.5216899
1.5211631
1.5209982
1.5210952
1.5210741
1.5210684
1.52121
1.5212744
1.5211421
1.521281
1.5213643
1.5212701
1.5213533
1.5213321
1.5214547
1.5213459
1.5214664
1.5212764
1.5213649
1.5213625
1.5212722
1.5213082
1.5213928
1.5213696
1.5212819
1.521439
1.5213336
1.5214398
1.5213312
1.5214467
1.5213632
1.5214668
1.5213399
1.521028
1.5208668
1.5209624
1.5209363
1.5209181
1.5210367
1.5211057
1.5209921
1.5212356
1.5211453
1.5212315
1.5211492
1.5211966
1.5213014
1.5212039
1.5213096
1.5214138
1.5214996
1.5214976
1.521412
1.521442
1.5215238
1.5214213
1.5215069
1.5216053
1.5216037
1.5214827
1.5214792
1.5214902
1.5215078
1.5216271
1.5216109
1.5208823
1.5207214
1.520828
1.5207761
1.5207812
1.5209113
1.5209727
1.5208444
1.5209898
1.5210925
1.5209966
1.5210963
1.5210606
1.5211801
1.5210596
1.5211813
1.5208637
1.521019
1.5210067
1.520849
1.5208701
1.5209039
1.5210549
1.521023
1.521132
1.5209949
1.5211412
1.5209813
1.5209977
1.5211443
1.5210317
1.5211748
1.5206939
1.5205028
1.5206572
1.5205368
1.5206157
1.5207654
1.5208119
1.5206599
1.5209006
1.5207626
1.5209145
1.520747
1.5208856
1.5210289
1.5208734
1.5210199
1.5211147
1.5212175
1.5212104
1.5211049
1.5211492
1.5212488
1.5211174
1.5212207
1.5213066
1.5213028
1.5211862
1.5211788
1.52119
1.5212189
1.5213371
1.521312
1.5204071
1.5204047
1.5206653
1.5206611
1.5206436
1.5208788
1.5208688
1.5206541
1.5204554
1.520442
1.5206903
1.5207105
1.5206993
1.5206725
1.5209193
1.5208906
1.5203681
1.5200864
1.520342
1.5201131
1.5203132
1.5205369
1.5205666
1.520341
1.5205696
1.5203223
1.5205795
1.5203178
1.5205628
1.5207839
1.5205494
1.5207698
1.5198027
1.5198157
1.5201099
1.5201349
1.5203327
1.5203324
1.5200135
1.5200167
1.5220022
1.521874
1.5219429
1.5220677
1.5198273
1.5200199
1.5200939
1.5200957
1.5204113
1.5204157
1.5204595
1.5204529
1.5201406
1.520141
1.52215
1.52208
1.5220944
1.5221625
1.5201417
1.5200971
1.5221124
1.5220935
1.5221504
1.5221669
1.5220232
1.5219002
1.5219527
1.522074
1.5201525
1.5201534
1.5204698
1.5204693
1.5205097
1.5205028
1.5201961
1.520198
1.5221737
1.5221021
1.5220977
1.5221691
1.5201971
1.5201523
1.5201503
1.5201499
1.5204521
1.5204529
1.5204525
1.520445
1.5201396
1.5201398
1.5221349
1.5220657
1.5220625
1.5221358
1.5201395
1.5201501
1.5204503
1.520444
1.5206886
1.5206972
1.5206892
1.5206732
1.5209035
1.5208887
1.520682
1.5204495
1.5207018
1.5204363
1.5209117
1.5206923
1.5206669
1.5208841
1.5221358
1.5220814
1.5220779
1.5221352
1.5221103
1.52211
1.5221686
1.5221661
1.5207157
1.5204681
1.5207259
1.5204616
1.5209412
1.5207176
1.5207009
1.5209235
1.5207389
1.5205053
1.5207564
1.5204947
1.5209629
1.5207451
1.5207242
1.5209393
1.5210639
1.5209286
1.5210841
1.5209065
1.5210633
1.5212089
1.5211899
1.5210405
1.5209228
1.5210749
1.5209476
1.5210984
1.5210757
1.5212188
1.5210531
1.5211988
1.5210237
1.5208908
1.5210401
1.5208711
1.5210189
1.5209998
1.5211599
1.5211457
1.5210207
1.5208973
1.5210491
1.5208669
1.5211707
1.5210269
1.5209978
1.521145
1.5212233
1.5211355
1.5212355
1.5211197
1.5213229
1.521206
1.5211927
1.5213143
1.5211201
1.5212248
1.5211455
1.5212466
1.5213358
1.5212169
1.5211957
1.5213185
1.5212708
1.5211855
1.5212888
1.5211648
1.5213798
1.5212602
1.521241
1.5213648
1.5211755
1.5212793
1.521194
1.521295
1.5213846
1.521266
1.5212522
1.5213738
1.5221245
1.5221162
1.5221738
1.5221806
1.5221003
1.522116
1.522164
1.5221552
1.5221507
1.5220924
1.5220816
1.5221484
1.522174
1.5221062
1.5221117
1.5221768
1.5221271
1.5221157
1.5221681
1.5221851
1.5220472
1.521942
1.5219902
1.5220983
1.5220279
1.5219117
1.5219739
1.522091
1.5221618
1.5220978
1.5221147
1.522181
1.5213406
1.5212589
1.5213595
1.5212361
1.5213323
1.5214498
1.5214331
1.521312
1.5212178
1.5213214
1.5212522
1.5213524
1.5213242
1.5214426
1.5212926
1.5214145
1.5210014
1.5211501
1.5211241
1.520974
1.5209779
1.5210072
1.5211511
1.5211227
1.5212448
1.5211294
1.5212688
1.5211015
1.5211021
1.5212411
1.5211291
1.521266
1.5211371
1.5210081
1.5211591
1.5209829
1.5211394
1.5212808
1.5212605
1.5211148
1.5211201
1.5210042
1.5211549
1.5209679
1.5211336
1.5212759
1.5210975
1.5212429
1.5212457
1.5213447
1.5213219
1.5212202
1.5212417
1.5213382
1.5212187
1.5213178
1.5214324
1.5214118
1.5213166
1.5212925
1.5212913
1.5213098
1.5214247
1.5214081
1.5202606
1.5202612
1.5205631
1.520559
1.5205873
1.5205763
1.5202899
1.5202915
1.5221876
1.52212
1.5220979
1.5221661
1.5202899
1.52026
1.5202545
1.5202543
1.5205622
1.5205598
1.5205639
1.5205538
1.5202512
1.5202514
1.5222143
1.5221448
1.5221293
1.5222016
1.5202513
1.5202544
1.5205615
1.5205518
1.5208075
1.5207926
1.5207784
1.5210131
1.5209902
1.5207994
1.520584
1.5205699
1.5208006
1.5208235
1.5208134
1.520788
1.5210211
1.5209926
1.5207974
1.5205597
1.5208104
1.5205507
1.5208026
1.5210186
1.520999
1.5207826
1.520787
1.5205597
1.5208107
1.5205442
1.5208006
1.5210174
1.5207713
1.5209853
1.5222054
1.522147
1.5221347
1.522195
1.5221071
1.5221266
1.5221815
1.5221612
1.5220623
1.522015
1.521879
1.5219403
1.5203307
1.5203308
1.5206242
1.5206181
1.5221845
1.5221266
1.5220962
1.5221579
1.5203299
1.5221784
1.5221299
1.5220961
1.5221505
1.5218842
1.522021
1.5220559
1.5219302
1.522208
1.5221408
1.5221308
1.5221998
1.5222064
1.5221557
1.5221437
1.5221994
1.5221184
1.5221387
1.5221884
1.5221701
1.5221864
1.5221245
1.5221055
1.5221684
1.5218887
1.522017
1.5220557
1.521933
1.5220863
1.5221283
1.52218
1.5221409
1.5220841
1.5221253
1.5221808
1.5221475
1.5220595
1.5220125
1.5218797
1.5219349
1.5224531
1.5222883
1.5222159
1.5223724
1.5230207
1.5223228
1.5223089
1.5223047
1.5223221
1.5222476
1.522094
1.5221097
1.5222398
1.5224465
1.5225314
1.5231496
1.5225426
1.5224592
1.5230122
1.5230845
1.5220182
1.5221429
1.5221566
1.522046
1.5222179
1.5222024
1.5222377
1.5222199
1.5219618
1.5220151
1.5221185
1.5220723
1.5221344
1.5221862
1.5222001
1.5221487
1.5231068
1.5231847
1.5232496
1.5232515
1.5231966
1.5231942
1.5223197
1.5223353
1.5223215
1.5223302
1.5223375
1.5223378
1.5223233
1.5223195
1.5225836
1.522587
1.5224832
1.5224796
1.5225932
1.5225821
1.5224768
1.5224869
1.5222301
1.5222205
1.5222176
1.5222078
1.522213
1.5222237
1.5222236
1.5222069
1.5221238
1.5221418
1.5221882
1.5221765
1.5221864
1.5221354
1.5221367
1.5221935
1.5191178
1.5192093
1.5232437
1.523213
1.5232503
1.5232503
1.5232319
1.5232325
1.5231856
1.5231216
1.5231931
1.5231584
1.5222326
1.5222474
1.5222408
1.5222227
1.5222063
1.5222234
1.522234
1.5222162
1.5221342
1.5221543
1.5222019
1.5221833
1.5221553
1.5221686
1.5222198
1.5222117
1.5223331
1.5223266
1.522326
1.5223332
1.5224796
1.5225671
1.522579
1.5224673
1.5225795
1.5225814
1.5224777
1.5224758
1.522332
1.5223387
1.5223215
1.5223109
1.5222834
1.5222912
1.5222798
1.5222655
1.5224288
1.5225272
1.5225258
1.5224211
1.5224036
1.5224686
1.5223575
1.5222789
1.5221934
1.5222199
1.5221269
1.5220992
1.5221829
1.5221308
1.5220959
1.5221457
1.522204
1.5221895
1.5221655
1.5221763
1.5219917
1.5220995
1.5221003
1.5219936
1.522065
1.5220298
1.5219113
1.5219511
1.5215709
1.5216567
1.5216422
1.5215535
1.5215334
1.521559
1.5216426
1.5216205
1.5217525
1.521646
1.5217669
1.5216287
1.5216065
1.5217291
1.5216294
1.5217502
1.5214066
1.5214927
1.521473
1.5213846
1.5213985
1.5214827
1.521469
1.5213835
1.5215493
1.5214653
1.5215678
1.521444
1.5215456
1.521455
1.5215571
1.5214429
1.5214962
1.5214252
1.5215124
1.5214066
1.5214866
1.5215907
1.5215759
1.5214684
1.5214775
1.521417
1.5215038
1.521388
1.5214768
1.5215811
1.5214496
1.5215569
1.5215455
1.5216293
1.5216107
1.5215251
1.5215345
1.5216166
1.5215245
1.5216083
1.5217172
1.5216155
1.5217351
1.5215944
1.5215957
1.5216022
1.5217207
1.5217131
1.5219526
1.5219387
1.5220275
1.5220169
1.5221146
1.5220047
1.5221035
1.5220168
1.5219336
1.522008
1.5219912
1.5219126
1.522082
1.5219977
1.5220932
1.5219806
1.5217336
1.5218223
1.5217123
1.5218039
1.5217971
1.5218175
1.521923
1.5219071
1.5217079
1.5217936
1.5217166
1.5218026
1.5219018
1.5217965
1.5217879
1.5218941
1.5217673
1.521749
1.5218558
1.5218405
1.5218345
1.5219447
1.5218519
1.5219573
1.5217478
1.5218355
1.5218138
1.521724
1.5219183
1.5218308
1.5219381
1.5218081
1.5219185
1.5219928
1.5219785
1.521901
1.5218889
1.5218968
1.5219709
1.5219646
1.5220766
1.5219823
1.5219663
1.5220626
1.5219548
1.5220568
1.5219607
1.5220542
1.520247
1.5200104
1.5196963
1.5197326
1.519394
1.5193904
1.5194257
1.5194569
1.5191068
1.5191012
1.5191078
1.5191102
1.5191372
1.5191325
1.5191621
1.5191924
1.5190958
1.5190883
1.5190839
1.51908
1.5197509
1.5197128
1.5191322
1.5191245
1.5191301
1.5191219
1.5190797
1.5190749
1.5190858
1.5190793
1.51909
1.519083
1.5190891
1.5190874
1.521975
1.5197264
1.5198075
1.5215399
1.5196973
1.5195505
1.5176281
1.5184168
1.5182812
1.5182888
1.5184474
1.5175187
1.5188168
1.5185132
1.5183355
1.5186097
1.518938
1.5189565
1.5189094
1.5189019
1.5190165
1.5189346
1.5189377
1.5189054
1.5189134
1.5189142
1.5189078
1.5188845
1.5188946
1.5188873
1.5189003
1.5189085
1.5189118
1.5188924
1.5189038
1.5189171
1.5189218
1.5189187
1.5189285
1.5189263
1.5189418
1.5189445
1.5189549
1.5189339
1.5189374
1.5189496
1.5189641
1.5189274
1.5188982
1.5189126
1.518947
1.5189312
1.5189259
1.5189641
1.5189577
1.5191683
1.5194364
1.5194504
1.5191759
1.5194512
1.5191588
1.5191694
1.5194442
1.5191852
1.5191839
1.5194506
1.5194477
1.5194704
1.5191897
1.5192221
1.5195077
1.5189463
1.5189421
1.5189769
1.5189742
1.5189727
1.5189563
1.5190038
1.518982
1.5189218
1.518944
1.518889
1.5189004
1.5174095
1.5173899
1.5174762
1.5172654
1.5172886
1.517768
1.5176038
1.5177468
1.5174688
1.5176795
1.5187113
1.5186948
1.518592
1.5185175
1.5187545
1.5186217
1.5187391
1.518724
1.5186274
1.5185119
1.5186007
1.5185982
1.5185315
1.5187042
1.5187209
1.5187158
1.5187022
1.518823
1.5188093
1.518789
1.5187831
1.5188748
1.5188362
1.5188124
1.5188095
1.5188295
1.5187873
1.5187932
1.5187925
1.5187877
1.5188122
1.5188267
1.5188246
1.5188131
1.5177371
1.5176185
1.5176925
1.5174864
1.5174551
1.5176761
1.5174478
1.5174277
1.5173456
1.517317
1.5172901
1.5173202
1.5184439
1.5183886
1.5185715
1.5185653
1.5183204
1.5184017
1.5185561
1.5185864
1.5186837
1.5186798
1.5187081
1.5187092
1.5186925
1.5186832
1.5187148
1.5187244
1.5187997
1.5187984
1.518819
1.5188197
1.5188085
1.5188057
1.518824
1.5188341
1.5187739
1.5187717
1.5187824
1.5187831
1.5187768
1.5187822
1.5187918
1.5187941
1.5174393
1.5174187
1.5173894
1.5174252
1.5175871
1.5176316
1.5177177
1.5177458
1.5182868
1.5184061
1.518559
1.5186027
1.5186908
1.5187045
1.5187236
1.5187368
1.5175626
1.5175659
1.5177628
1.5177896
1.5182637
1.5184103
1.5184328
1.5182462
1.5185628
1.518616
1.5186563
1.5185864
1.5181531
1.5177165
1.5179396
1.5184245
1.5186026
1.5183649
1.5186051
1.5188629
1.5190456
1.5187739
1.5188771
1.5191583
1.5173769
1.5174216
1.517429
1.5173733
1.5178515
1.5174873
1.5175499
1.5179287
1.517262
1.5172735
1.5172777
1.5172694
1.5172902
1.5173033
1.5173089
1.5173139
1.5172861
1.5173087
1.517315
1.517289
1.5172605
1.5172582
1.517268
1.5172734
1.5177424
1.5173872
1.5173846
1.5177275
1.5177429
1.5174052
1.517416
1.5177615
1.5186982
1.5187154
1.5187516
1.5187277
1.5192211
1.5189397
1.518974
1.5192565
1.519287
1.5189878
1.5190191
1.5193165
1.5187477
1.5187326
1.5187857
1.5187655
1.5171791
1.5171905
1.5171732
1.5171686
1.5171611
1.5171698
1.5171802
1.5171839
1.5171859
1.5171839
1.5172064
1.5172232
1.517195
1.5171992
1.5171981
1.5172009
1.5172152
1.5172209
1.5172099
1.51722
1.5171699
1.5171585
1.5171604
1.517176
1.5176044
1.5172757
1.5172857
1.5176053
1.5171851
1.5171806
1.5171866
1.5171917
1.5172906
1.5172967
1.5176083
1.5176033
1.517199
1.5171951
1.5172005
1.5172059
1.5172217
1.5172095
1.5172149
1.5172289
1.5176226
1.5173112
1.5173155
1.5176266
1.5173326
1.5173263
1.5176437
1.517666
1.5172982
1.5172881
1.5172187
1.5172348
1.5172694
1.5172643
1.5172031
1.5171951
1.5187836
1.5187918
1.5188006
1.5188036
1.5188131
1.5188176
1.5188302
1.5188443
1.5188265
1.5188211
1.5188517
1.5188597
1.5188537
1.5188376
1.5188683
1.518889
1.519346
1.5190666
1.5190761
1.5193533
1.5191208
1.5190889
1.5193751
1.5194164
1.5188007
1.5187907
1.5188212
1.5188342
1.5193201
1.5190385
1.5190509
1.5193212
1.5188127
1.5188095
1.518843
1.518848
1.5190653
1.5190542
1.5193144
1.5193312
1.5171487
1.5170391
1.5171989
1.5170374
1.5169045
1.5172963
1.5172771
1.5173612
1.5171482
1.5171716
1.5170405
1.5170232
1.51698
1.5169492
1.5169668
1.516931
1.5169052
1.5168282
1.5166776
1.5168174
1.5167874
1.5165933
1.5171832
1.5171722
1.5171014
1.5171218
1.5170874
1.5171098
1.5171516
1.5171453
1.5170814
1.5170721
1.5170549
1.5170665
1.5170376
1.5170441
1.5170491
1.5170462
1.5170549
1.5170591
1.517061
1.5170584
1.5170357
1.5170468
1.517055
1.5170404
1.5171657
1.5171735
1.5175282
1.5175302
1.517063
1.5170552
1.5170595
1.5170671
1.5175366
1.517192
1.5171704
1.517512
1.5170731
1.5170786
1.5170772
1.517081
1.5171004
1.5171083
1.5170938
1.5171081
1.5175436
1.5171985
1.5172015
1.5175458
1.5175674
1.5172219
1.5172255
1.5175781
1.5170777
1.5170725
1.5170855
1.5170783
1.51711
1.5170926
1.5171187
1.5170982
1.5155807
1.5156976
1.5165983
1.51685
1.5153656
1.5167688
1.5167577
1.5167934
1.5168026
1.5165899
1.5165063
1.5164371
1.5165862
1.5163414
1.5163864
1.5165802
1.5165785
1.5167496
1.5167512
1.5168103
1.516826
1.5170694
1.5164921
1.5167218
1.5172099
1.5173391
1.5168981
1.516955
1.5173819
1.5169177
1.5169273
1.5169287
1.5169123
1.5169541
1.5169578
1.5169668
1.51697
1.5169109
1.5169325
1.5169163
1.5169447
1.5174334
1.5170458
1.517071
1.5174483
1.5169659
1.5169555
1.5169747
1.5169865
1.5171045
1.5171036