/*--------------------------------*- C++ -*----------------------------------*\
  =========                 |
  \\      /  F ield         | OpenFOAM: The Open Source CFD Toolbox
   \\    /   O peration     | Website:  https://openfoam.org
    \\  /    A nd           | Version:  7
     \\/     M anipulation  |
\*---------------------------------------------------------------------------*/
FoamFile
{
    version     2.0;
    format      ascii;
    class       surfaceScalarField;
    location    "4000";
    object      phi;
}
// * * * * * * * * * * * * * * * * * * * * * * * * * * * * * * * * * * * * * //

dimensions      [0 3 -1 0 0 0 0];

internalField   nonuniform List<scalar> 
102298
(
1.8695337e+21
-1.5616261e+22
-1.5403127e+21
-1.8410435e+22
-1.4824578e+22
-1.6207705e+22
-1.6990782e+22
-1.6466302e+22
-1.7442109e+22
-5.8528514e+21
-4.3044973e+21
7.7094254e+20
2.719673e+21
-2.9820969e+21
-2.9865113e+21
-4.2895191e+21
-4.0831382e+21
-4.6111288e+20
-1.5626032e+21
-1.5309261e+22
-1.5918654e+22
-1.8380019e+22
-1.8343926e+22
-1.6095465e+22
3.6862696e+20
2.7980678e+21
-2.9400752e+21
-4.1683913e+21
1.5648868e+21
1.500109e+21
-2.0100765e+22
-2.8999876e+20
-2.6389667e+20
1.5956537e+20
1.1192567e+21
-9.5877958e+20
-3.6458192e+21
-3.7993407e+21
-3.6485899e+21
-1.5727888e+21
-3.5793348e+21
-3.6962968e+21
1.0386479e+21
-8.7104845e+20
-3.7080465e+21
-3.5853315e+21
-3.4718896e+21
-3.5127596e+21
-3.5053205e+21
-3.50293e+21
-3.366626e+21
-1.5540621e+21
-3.3276367e+21
-1.5163966e+22
-1.5666943e+22
-1.5395871e+22
-1.582693e+22
1.453922e+20
-9.1532064e+20
8.2835844e+20
-5.8384129e+20
-5.9424049e+20
-1.0781587e+20
-8.9493147e+20
-8.5969606e+20
-9.0434261e+20
1.4181394e+20
8.4138717e+20
-5.9630751e+20
-5.6484289e+20
-8.5796825e+20
-9.008569e+20
-3.979915e+19
3.1384619e+19
-3.6205596e+21
-3.5485357e+21
1.0386891e+19
-2.1298252e+20
-3.7959044e+21
1.9941677e+21
-2.7944946e+21
-3.9295069e+21
-4.0764377e+21
-2.9552132e+21
-3.8945822e+21
2.0307745e+21
-3.0244763e+21
-3.9976671e+21
-3.0722236e+21
-4.2413213e+21
-4.2367429e+20
-1.6060801e+22
-1.5898094e+22
-8.8132466e+20
8.6676774e+20
-5.7795074e+20
-5.8283915e+20
-8.5778486e+20
-8.8682134e+20
-3.5541582e+21
-1.5241457e+22
1.1676055e+20
1.2446163e+21
1.258319e+21
-8.3117918e+20
-7.4735491e+20
1.8030752e+20
9.3032161e+20
-9.5632883e+20
-1.0297832e+21
9.2573775e+20
-1.9390256e+22
4.6341738e+21
4.7155369e+21
-3.5717433e+21
-3.39789e+21
-3.7934207e+21
-4.0425268e+21
3.8732234e+21
4.0057554e+21
-4.1276345e+19
3.1919115e+20
3.3191369e+20
-4.4387267e+21
-5.2667291e+19
-5.157444e+19
-1.5487195e+19
3.1128978e+20
3.2451303e+20
-4.4617506e+21
-5.7779893e+19
-5.2619055e+19
3.345904e+20
3.1994296e+20
-4.3960144e+21
-5.0013617e+19
-4.4387318e+19
7.9640655e+18
3.7243868e+20
1.3338432e+21
1.3894315e+21
-2.0211228e+22
-3.6495693e+20
-3.681016e+20
1.4017159e+21
1.4156096e+21
-2.0064297e+22
-3.2568399e+20
-4.1343549e+20
-6.1876584e+20
7.803614e+20
-1.6856671e+20
-3.7523076e+21
7.7006809e+19
-1.1677591e+20
-1.4665517e+21
-2.9117853e+21
-1.4931675e+21
-2.9203102e+21
-1.0695139e+20
-3.8182281e+20
-6.3171565e+20
-6.2865943e+20
-6.3413156e+20
-6.2655098e+20
-2.579074e+20
-7.8809121e+20
-7.7262638e+20
-6.8924719e+20
-6.8515432e+20
1.2041969e+21
-2.0687846e+20
-3.4922586e+21
-3.5926969e+21
-3.4990584e+21
-3.3587185e+21
-6.0099784e+19
6.1555423e+20
-1.4325833e+21
-2.9476931e+21
5.9511986e+20
-1.3719293e+21
-1.908453e+19
-2.8495368e+21
1.249545e+20
7.4646777e+20
-9.3402605e+19
-3.6547888e+21
7.6384849e+20
-3.7046655e+21
2.045519e+20
1.0720667e+20
-1.8544384e+20
-7.7775051e+20
-7.543402e+20
-6.698672e+20
-6.8320842e+20
1.1113861e+20
-7.56346e+20
-7.8425612e+20
-6.6686054e+20
-6.9611173e+20
3.0325717e+20
-6.0795628e+20
-6.1192726e+20
-6.1705638e+20
-2.9079331e+20
-6.065831e+20
-7.9543777e+20
-3.3229183e+21
-3.0945434e+21
-3.2925166e+21
-3.5172241e+21
-6.3658747e+20
-5.9387225e+20
-5.8690265e+20
-6.3631284e+20
1.1960113e+21
-3.398144e+21
-3.4897802e+21
-3.6733956e+21
-3.4793066e+21
-3.4056444e+21
-3.4290945e+21
-3.0771334e+21
-3.0733756e+21
2.5897881e+19
-2.0110795e+20
2.3137488e+20
-2.1942708e+19
-1.2158959e+20
-1.2468772e+20
-1.9071931e+20
-1.810663e+20
-1.9576893e+20
2.3575715e+19
2.2727236e+20
-1.2632427e+20
-1.2206184e+20
-1.8358416e+20
-1.9145059e+20
-7.936977e+20
-2.1114362e+19
7.1125481e+20
-5.403406e+20
-5.7165416e+20
-8.680369e+20
-8.187216e+20
-1.4900563e+19
1.220056e+19
-7.5340968e+20
-7.4406278e+20
-1.1698818e+19
1.1023075e+19
-1.9240592e+20
2.3073866e+20
-1.2341015e+20
-1.2378435e+20
-1.8433406e+20
-1.9055827e+20
-1.8715766e+20
2.1471703e+19
2.2504144e+20
-1.2426868e+20
-1.1793075e+20
-1.8020765e+20
-1.9076742e+20
-2.1501826e+18
1.1825935e+19
-7.4351158e+20
-7.5869934e+20
6.9019985e+19
-3.4479942e+21
7.7892062e+20
8.8510463e+19
-3.485417e+21
-4.0154723e+19
6.8846266e+20
-5.6445181e+20
-5.8110237e+20
-8.2799964e+20
-8.7216134e+20
-7.8352526e+20
6.4721049e+19
6.35816e+20
-5.9292984e+20
-6.0685148e+20
-8.8205684e+20
-8.3002354e+20
-5.1608806e+19
-3.4479561e+21
-7.639968e+20
6.1834221e+20
-8.8016564e+20
-6.0053414e+20
-5.7785749e+20
-8.434452e+20
-3.5528066e+21
2.7575127e+19
-2.0409883e+20
2.4186559e+20
-1.2217063e+20
-1.253878e+20
-1.9196334e+20
-1.8229861e+20
-2.0168089e+20
2.453983e+20
-1.2604664e+20
-1.2115972e+20
-1.8456797e+20
-1.9303235e+20
1.4116443e+19
-7.4498299e+20
-7.567841e+20
1.5611224e+22
-1.0207519e+21
8.9064593e+20
8.6552941e+20
-1.0985641e+21
-3.1435255e+20
-8.3096706e+20
-7.8851116e+20
1.1647754e+21
1.2058502e+21
-8.0374216e+20
1.1870312e+21
1.1522663e+21
-8.3220234e+20
-2.0389516e+18
-3.4501881e+21
1.5306068e+19
2.7749902e+20
-1.4182358e+20
-1.3394656e+20
2.8379552e+20
-3.4750017e+21
7.9848712e+15
-1.4358193e+20
-1.4388473e+20
2.7458763e+20
2.8240383e+20
6.6413517e+18
-4.315228e+21
5.774699e+18
2.0387873e+20
-2.0820421e+20
-2.0052263e+20
2.0148114e+20
-4.2385991e+21
-4.3055711e+18
2.1621883e+20
-1.9664368e+20
-1.8597948e+20
2.1840927e+20
-3.2151642e+21
-1.3103135e+19
-5.2301561e+18
1.7369171e+20
-2.1742839e+20
-2.1127944e+20
1.8023726e+20
-2.6180444e+18
-2.7710239e+18
1.7546925e+20
1.6841435e+20
-2.1784483e+20
-2.2497433e+20
-4.0671676e+21
3.2834201e+21
1.4308264e+18
-2.3178971e+20
-2.4046183e+20
1.6210938e+20
-4.1679005e+21
1.6079136e+20
1.6046284e+19
-2.265419e+20
-2.340102e+20
1.6387278e+20
1.6146087e+20
-6.5481353e+19
-1.4410028e+22
8.0329697e+20
8.2120584e+20
-1.1002732e+21
-1.0499674e+21
-3.3378759e+21
4.3588522e+21
1.6778522e+20
-2.3291511e+20
-2.280245e+20
1.7368321e+20
-2.4229241e+20
-2.3746659e+20
1.6605028e+20
1.6014858e+20
-4.2659385e+21
-1.4065593e+22
8.7354295e+20
8.0180136e+20
-1.066509e+21
-1.0567133e+21
-2.1495496e+20
-6.3586028e+20
9.0343629e+20
-1.8553183e+22
-6.5082833e+20
8.5558713e+20
-1.8255057e+22
8.8926251e+20
-5.6821607e+20
-5.8009331e+20
8.3094666e+20
-2.0219573e+20
1.1680128e+22
1.160437e+22
1.9134012e+20
3.4948102e+21
2.0836082e+20
-2.017685e+20
-1.934008e+20
2.1303688e+20
2.6732019e+20
-1.4655578e+20
-1.4436104e+20
2.7813923e+20
-1.0094409e+19
6.9078482e+19
7.1722479e+19
-9.3534103e+20
-1.0157693e+19
-8.9940452e+18
-1.5332921e+19
7.457519e+19
6.9683695e+19
-9.1926662e+20
-8.0767458e+18
-8.2341604e+18
1.1863967e+19
-1.1317047e+19
7.0487037e+19
7.2313235e+19
-9.4156598e+20
-8.9149718e+18
-9.3450881e+18
6.832483e+19
7.1385996e+19
-9.2087433e+20
-9.890806e+18
-8.5451096e+18
-6.6464897e+18
7.0002852e+19
7.1826682e+19
-9.3213696e+20
-9.5383778e+18
-8.2478425e+18
7.4965801e+19
6.9922823e+19
-9.2085596e+20
-7.1586945e+18
-7.3307734e+18
-4.6394628e+18
1.2535263e+19
3.0770734e+20
2.8923453e+20
-4.2936342e+21
-5.9939296e+19
-6.0890003e+19
3.6227512e+19
2.8758357e+20
2.9814258e+20
-4.3294552e+21
-6.2581541e+19
-7.0899409e+19
-7.2179966e+19
2.9943418e+20
2.9118743e+20
-4.2736245e+21
-7.0351986e+19
-5.5989816e+19
2.9945274e+20
2.7838186e+20
-4.4392931e+21
-6.7520514e+19
-7.321534e+19
4.2854165e+20
-1.9502102e+20
-1.93207e+20
-1.2286139e+20
-1.8265896e+22
-1.7377392e+20
-1.0041789e+20
-1.8561954e+22
-6.3451502e+20
3.2302983e+20
3.0839412e+20
-1.4677135e+20
-3.7842706e+21
1.5055867e+19
5.1132491e+18
1.1133745e+20
-1.1054803e+20
-3.7208631e+21
-3.7207826e+21
4.4476491e+19
-2.1561082e+19
-1.5019484e+20
-4.6936811e+19
-1.2093848e+20
-1.2362472e+20
-1.0616698e+20
-1.0676779e+20
-1.8166442e+19
-1.5423856e+20
-1.2693586e+20
-1.2197723e+20
-1.1084578e+20
-1.0393153e+20
6.2270407e+19
-6.3270096e+19
-9.8908705e+19
-9.7551469e+19
-1.0754321e+20
-1.0882304e+20
-1.1045834e+20
-1.0147154e+20
-1.0353531e+20
-9.4392747e+19
-2.1832638e+19
1.4810619e+20
-6.1798328e+20
1.4615054e+20
-2.3653549e+19
-6.0856164e+20
-3.0283306e+19
-6.9689471e+20
-3.1120086e+19
-6.8836145e+20
-6.0778058e+20
-1.2543702e+19
7.5906715e+20
1.1296563e+19
-3.6422981e+21
-5.9771909e+19
1.079217e+20
-1.3615784e+21
-2.8870483e+21
5.8313988e+20
-1.3269208e+21
-2.8341336e+21
7.3036915e+20
-3.611894e+21
-3.4855953e+19
6.1970883e+20
-3.8381151e+21
6.0123544e+20
-2.3334577e+19
-3.6555004e+21
1.0827265e+20
3.1439485e+20
3.0128285e+20
-8.0092852e+19
-3.7118103e+21
4.3592853e+18
1.0040654e+19
3.0950574e+20
3.0966401e+20
-3.7590628e+21
3.5448633e+18
1.2893266e+19
1.3997713e+20
-5.9284845e+19
-7.7334243e+20
-7.4875105e+20
-6.5605602e+20
-6.8053579e+20
-1.5541225e+19
1.4503314e+20
1.8285933e+19
-6.1113301e+20
1.4388978e+20
-6.02733e+20
-9.7552347e+18
2.4537589e+19
1.4492648e+20
-1.9475978e+19
-6.7596505e+20
2.6897118e+19
1.4707873e+20
-6.8761292e+20
-7.4260931e+18
1.4386806e+20
-6.0693544e+20
1.438425e+20
-6.0757454e+20
-1.457954e+19
1.471806e+20
-6.8671299e+20
1.4613473e+20
-6.8608588e+20
3.5261824e+19
-1.9892819e+19
-3.2168835e+19
-1.1828952e+20
-1.2194217e+20
-1.0216641e+20
-1.0383132e+20
-1.7795131e+19
4.1422337e+19
-1.2426359e+20
-1.1999658e+20
-1.0731545e+20
-1.016374e+20
4.9892466e+19
-9.5773012e+19
-9.6096686e+19
-1.0571127e+20
-1.0693586e+20
-5.0949431e+19
-1.4628679e+20
-5.8173694e+20
-5.7779786e+20
-6.162583e+20
-6.1202502e+20
5.8554838e+19
-1.0008026e+20
-1.1021853e+20
-1.026885e+20
-9.2780308e+19
-1.6162608e+20
-2.0857827e+20
-6.0541172e+20
-6.0645021e+20
-5.8835394e+20
-5.799204e+20
-9.1610819e+19
-7.8165142e+20
-7.5792577e+20
-6.8070283e+20
-6.6717706e+20
2.5652773e+19
-2.13352e+19
-1.2019723e+20
-1.2285469e+20
-1.0483017e+20
-1.0546511e+20
-1.6148861e+19
-1.2409818e+20
-1.1885842e+20
-1.0779699e+20
-1.0107275e+20
-3.904827e+19
-1.0045451e+20
-9.2326486e+19
-1.0819328e+20
-1.0125708e+20
-9.7351126e+19
-1.0823777e+20
-9.6088676e+19
-1.0572508e+20
-6.0322043e+20
-6.7519042e+17
7.3973107e+20
-3.6091853e+21
-7.9505579e+19
-1.339605e+21
-2.8522345e+21
5.8835196e+20
-1.327214e+21
-2.9061174e+21
7.3259824e+20
-3.6129315e+21
9.2874507e+19
1.691905e+20
-7.8581471e+20
-7.5419092e+20
-6.8136714e+20
-6.6154779e+20
1.7661868e+20
-7.5490361e+20
-7.7501003e+20
-6.5996716e+20
-6.8197042e+20
-1.7854677e+20
-6.1155389e+20
-5.8361936e+20
-5.7740203e+20
-5.3962846e+20
-5.9027555e+20
-5.6599189e+20
-5.9791285e+20
-5.505147e+20
-4.6175536e+18
-1.7735427e+20
2.1767543e+20
-1.2056108e+20
-1.1575533e+20
-1.7593522e+20
-1.857353e+20
5.2482288e+18
-4.3612749e+19
6.1012384e+19
-4.2657257e+18
-2.7187827e+19
-2.6315536e+19
-4.2021472e+19
-4.4446778e+19
-4.4034562e+19
4.3882345e+18
6.1741999e+19
-2.6324485e+19
-2.7513748e+19
-4.4763957e+19
-4.293285e+19
-3.3812573e+18
3.1693431e+18
-1.595761e+20
-1.5508576e+20
-3.0516982e+18
1.2776769e+18
-4.2578688e+19
6.0968482e+19
-2.7302343e+19
-2.6579725e+19
-4.3053248e+19
-4.4668079e+19
-4.2412453e+19
3.4923248e+18
5.8893461e+19
-2.6047189e+19
-2.7312741e+19
-4.492464e+19
-4.2472805e+19
-6.8863549e+17
2.4922941e+18
-1.5779735e+20
-1.5972188e+20
-1.792132e+20
-9.7111167e+18
2.195974e+20
-1.1879676e+20
-1.2176859e+20
-1.8716116e+20
-1.792184e+20
-4.959695e+18
4.479399e+18
-7.3906249e+20
-7.2349979e+20
4.0762208e+18
-4.4053197e+19
6.2761471e+19
-2.7857437e+19
-2.7025623e+19
-4.2487569e+19
-4.5331586e+19
-4.2132717e+19
2.5962038e+18
5.9788338e+19
-2.694706e+19
-2.5828128e+19
-4.4512953e+19
-4.2671695e+19
2.3864267e+18
-1.5779431e+20
1.8357767e+18
-1.5982707e+20
1.124689e+18
-4.209402e+19
6.0506826e+19
-2.7079046e+19
-2.6236092e+19
-4.302842e+19
-4.4866311e+19
-4.1636133e+19
4.4643219e+18
5.9390392e+19
-2.5633267e+19
-2.669708e+19
-4.4463882e+19
-4.2230246e+19
-2.5180312e+17
3.6359949e+18
-1.5690307e+20
-1.5989146e+20
1.4325047e+19
-1.7116306e+20
-8.0216947e+18
1.9917153e+20
-1.1743517e+20
-1.2123357e+20
-1.7493048e+20
-1.8516448e+20
-1.6866118e+20
1.9567829e+20
-1.2242723e+20
-1.1622677e+20
-1.7781084e+20
-1.8704076e+20
6.2069619e+17
7.7141627e+18
-7.1991398e+20
-7.3757982e+20
1.1400207e+19
-1.6810151e+20
1.8239114e+20
-9.0053248e+18
-1.2094455e+20
-1.2514535e+20
-1.8700362e+20
-1.7652052e+20
-1.6064165e+20
9.449362e+18
1.6707708e+20
-1.2455268e+20
-1.2106736e+20
-1.7935824e+20
-1.8635767e+20
2.6271404e+18
-8.9250291e+18
-7.3696638e+20
-7.1728973e+20
1.6440732e+20
-1.2028574e+19
-7.4201668e+20
-2.2414648e+17
1.8579331e+20
-1.207096e+20
-1.7923225e+20
-1.2427682e+20
-1.8802799e+20
-1.5869227e+20
1.7721001e+20
-1.2372066e+20
-1.1774601e+20
-1.7673598e+20
-1.8641845e+20
-7.2807001e+20
4.9280307e+18
-4.4179837e+19
6.2802677e+19
-2.7115332e+19
-2.6792084e+19
-4.4534078e+19
-4.2815566e+19
-4.3905764e+19
3.777441e+18
6.2776083e+19
-2.6869366e+19
-2.7427198e+19
-4.5050304e+19
-4.376049e+19
-3.3382697e+18
2.7621342e+18
-1.6071772e+20
-1.56497e+20
8.8492012e+17
-4.1849254e+19
6.0037127e+19
-2.6327329e+19
-4.313798e+19
-4.4739341e+19
-2.713722e+19
-4.1032156e+19
5.7466954e+19
-2.6841034e+19
-2.5744319e+19
-4.2460082e+19
-4.4784826e+19
-2.4678674e+17
-1.583238e+20
-1.6064377e+20
3.2747009e+21
2.6629263e+19
-4.1904518e+21
-2.3716087e+20
-2.3063794e+20
1.6891825e+20
1.6448017e+20
3.0535425e+19
4.2333916e+21
-2.1719806e+20
-2.2213985e+20
1.7109137e+20
1.6443699e+20
-3.2260252e+21
4.2196553e+21
1.6452606e+20
-2.3156135e+20
1.6593291e+20
-2.2099242e+20
-2.4896136e+20
1.5775753e+20
3.912134e+19
3.4850479e+21
-3.7244873e+19
2.1336031e+20
-2.0028599e+20
2.0274381e+20
-1.9558592e+20
3.3780307e+21
-2.0291123e+20
2.0512286e+20
2.0575212e+20
-6.5025248e+19
-1.505456e+20
-1.3545344e+20
2.5798349e+20
2.6057551e+20
-4.8068022e+19
-1.4542571e+20
2.7111149e+20
-1.5002621e+20
2.5898871e+20
3.3865146e+21
-1.1124985e+19
-1.9281944e+20
1.9945917e+20
2.0125619e+20
-2.0461637e+20
-1.8056578e+19
-1.4655729e+20
2.5290324e+20
-1.5281376e+20
2.6054742e+20
-3.383734e+21
-1.448771e+20
-1.4573763e+20
2.7186317e+20
2.5836801e+20
-1.9580453e+20
2.0248803e+20
-2.0177416e+20
1.9711567e+20
-7.2412947e+20
2.9486259e+18
4.3311497e+17
-2.2270332e+19
6.0115575e+19
-2.3054424e+19
6.2600262e+19
-3.6769571e+18
7.2657163e+20
1.1350534e+19
-9.0761657e+20
-3.461635e+19
-3.3072271e+19
4.9686607e+19
4.9550196e+19
-8.9783822e+20
-6.9255158e+17
-3.1773275e+19
4.9930109e+19
-3.308984e+19
5.1711301e+19
8.1975622e+18
-2.4552005e+19
6.062843e+19
-2.3247063e+19
6.0152043e+19
-8.6219841e+18
7.2093855e+20
-8.9284118e+20
7.5387952e+18
-3.5295956e+19
-3.3328355e+19
4.9233054e+19
4.879557e+19
7.3098831e+20
-9.0352947e+20
-3.3791285e+19
4.8654903e+19
-3.4247707e+19
5.0769414e+19
-8.223366e+18
1.0692896e+19
-2.5040052e+19
-2.3276971e+19
6.0695748e+19
5.9803806e+19
5.9341719e+19
-2.4536408e+19
-2.4594879e+19
6.1589973e+19
-6.9376938e+20
5.6571421e+18
-1.0581148e+19
-4.0370316e+19
3.8911952e+19
-4.0615551e+19
4.1117026e+19
6.6655644e+18
-1.1362719e+19
-8.8322201e+20
-4.2730183e+19
-4.3245727e+19
3.4972779e+19
3.6949241e+19
6.8889172e+20
-8.7285416e+20
3.561751e+18
-4.3703272e+19
-4.2032085e+19
3.6448478e+19
3.5830986e+19
4.4243267e+18
-4.1084945e+19
-3.9456957e+19
4.0061675e+19
3.9244913e+19
-6.912488e+20
3.0123058e+18
6.8190589e+17
-3.8023547e+19
4.0644661e+19
-3.9134414e+19
4.2448935e+19
-4.0754445e+18
6.9853587e+20
-8.924705e+20
-4.3114812e+19
-4.142192e+19
3.7208572e+19
3.733231e+19
-8.7318008e+20
-2.156798e+18
-4.0370469e+19
3.7179024e+19
-4.1581593e+19
3.8806521e+19
-4.0431136e+19
-3.8985308e+19
4.0760355e+19
4.0415861e+19
-6.849662e+20
4.0655685e+18
-1.9168845e+18
-4.3236733e+19
3.4443547e+19
-4.4175461e+19
3.62981e+19
-4.7863922e+18
6.9708143e+20
-8.9918881e+20
9.3069217e+18
-4.6140132e+19
-4.4286437e+19
3.5226094e+19
3.5359313e+19
-8.7835933e+20
-5.5720193e+18
-4.3631026e+19
3.4584254e+19
-4.4570568e+19
3.6516785e+19
8.7833754e+18
-4.5604143e+19
-4.3892992e+19
3.4839201e+19
3.4788495e+19
-5.1391855e+18
-7.0232239e+20
7.2341209e+18
-4.7476362e+19
3.4829336e+19
-4.5644389e+19
3.4799486e+19
-6.8941811e+20
-6.1900626e+18
-4.483436e+19
3.4142293e+19
-4.5222969e+19
3.6439141e+19
5.8001833e+18
-6.7010186e+18
3.1014521e+19
3.3377486e+19
-8.676011e+20
-5.1300287e+19
-5.1852603e+19
9.2406815e+18
3.2024589e+19
3.1649436e+19
-8.8955021e+20
-5.1915567e+19
-5.2945461e+19
1.6314527e+18
-3.1297792e+21
2.0772269e+19
1.57733e+20
1.6621663e+20
-2.4342166e+20
-2.3702282e+20
-6.4338325e+18
7.0140869e+20
4.9804382e+18
3.1523823e+19
3.0538608e+19
-8.8665274e+20
-5.295284e+19
-5.4201762e+19
7.0524445e+20
2.9734545e+19
3.1439191e+19
-8.9612717e+20
-5.4543293e+19
-5.3402677e+19
5.9353968e+18
8.9823243e+20
-4.7805899e+19
3.186632e+19
-4.7856264e+19
3.4216197e+19
-3.1419016e+21
3.9691717e+18
1.5277673e+20
1.5516719e+20
-2.6181072e+20
-2.5326359e+20
8.9031123e+20
6.2741558e+18
-4.8662785e+19
3.3705801e+19
-4.6583454e+19
3.3090714e+19
-8.6687443e+18
6.8769058e+20
9.2318712e+18
-4.7033957e+19
3.3912543e+19
-4.4944988e+19
3.3582409e+19
6.904537e+20
-4.6053761e+19
3.2323335e+19
-4.6394989e+19
3.4532257e+19
4.8050764e+18
-4.5492792e+19
3.2126519e+19
-4.5772747e+19
3.4221962e+19
5.5649851e+18
-4.6356226e+19
3.3753839e+19
-4.4760603e+19
3.2900641e+19
-8.2107075e+18
2.1728754e+19
-4.0069195e+21
-2.6435325e+20
-2.7573209e+20
1.4497689e+20
1.4633626e+20
-4.0513505e+21
4.2268968e+19
-2.5424215e+20
-2.445533e+20
1.5589849e+20
1.6402156e+20
-6.9177279e+20
4.9995324e+18
8.7997118e+20
-4.4270213e+19
3.3972754e+19
-4.533189e+19
3.5782087e+19
-4.5544297e+18
7.0035127e+20
-9.0857782e+20
-4.7267514e+19
-4.6019269e+19
3.4225551e+19
3.3596463e+19
-8.927748e+20
-4.497749e+19
3.3508073e+19
-4.6166082e+19
3.5290639e+19
8.9533762e+20
-4.629823e+19
-4.4996543e+19
3.4460386e+19
3.3857924e+19
-6.1247414e+18
7.1320185e+20
3.1257284e+19
3.0149717e+19
-9.0816338e+20
-5.4252787e+19
-5.4777995e+19
7.0567668e+20
3.0645512e+19
3.2174012e+19
-8.9998398e+20
-5.4479106e+19
-5.2643878e+19
-5.9439787e+18
-4.9067057e+19
3.3673062e+19
-4.7695677e+19
3.2849623e+19
-4.6760135e+19
3.2721472e+19
-4.7418173e+19
3.4837534e+19
-6.5673336e+18
-3.1936154e+21
1.5806532e+20
1.6009365e+20
-2.43096e+20
-2.6330588e+20
-3.0968924e+21
1.5094673e+20
1.5677028e+20
-2.5547272e+20
-2.5308004e+20
-7.1672454e+18
-3.9922924e+21
1.5318482e+20
-2.6874816e+20
-2.7701478e+20
1.5364351e+20
-3.906038e+21
-2.6209345e+20
-2.6205939e+20
1.6214099e+20
1.42569e+20
3.0322708e+21
-8.1982184e+19
6.8712192e+19
-1.5915949e+20
2.120708e+20
1.9936923e+20
-1.6715423e+20
-3.7399863e+21
-2.0019824e+19
6.0720566e+19
-2.4073799e+20
-2.4640509e+20
1.598249e+20
1.7097452e+20
-1.4562829e+22
-2.9233594e+20
1.1312253e+21
-5.9868842e+20
-7.2980554e+20
1.0873341e+21
2.9894949e+21
-5.6326878e+19
-3.7530513e+21
2.0153806e+20
2.0132978e+20
-1.5711309e+20
-1.5868063e+20
3.8193037e+18
-2.579145e+20
-2.4730045e+20
1.6009819e+20
1.5944094e+20
-4.6034361e+20
-1.6272766e+22
-3.1456011e+21
1.4684157e+22
-1.6229341e+22
-3.2759356e+21
-6.9075824e+20
1.126022e+21
1.0875208e+21
-6.6227731e+20
-2.9346527e+21
4.9138261e+17
-2.4680132e+20
-2.5653931e+20
1.6716386e+20
1.7112861e+20
-1.9644188e+19
-3.6287601e+21
2.0295245e+20
-1.489478e+20
-1.5909799e+20
1.9430304e+20
2.8834307e+21
-3.5628299e+21
2.0394916e+20
-1.4937851e+20
-1.5478167e+20
1.8519727e+20
1.671185e+20
-2.474495e+20
-2.495762e+20
1.5115327e+20
-6.9449347e+20
6.1396197e+18
8.9965997e+20
-3.9307742e+19
-4.018691e+19
3.942428e+19
4.1549845e+19
-5.0643799e+18
7.0223759e+20
-4.3832591e+19
-4.2275762e+19
3.6756419e+19
3.6417795e+19
-4.1308695e+19
3.6342618e+19
-4.2522747e+19
3.8063179e+19
9.1211536e+20
-4.1354108e+19
-3.9967675e+19
4.0343299e+19
3.9760205e+19
-7.2354736e+20
8.7884316e+18
-2.3644977e+19
5.8971802e+19
-2.3799261e+19
6.1978051e+19
-7.1659736e+18
7.3117072e+20
-3.532309e+19
4.9485255e+19
-3.3619566e+19
4.9220218e+19
-3.31621e+19
4.8585972e+19
-3.4084229e+19
5.0784797e+19
-2.5340516e+19
-2.3956599e+19
6.0470153e+19
5.9833624e+19
1.8631812e+18
-2.3852045e+18
1.5642679e+19
1.6157412e+19
-1.960296e+20
-3.0005992e+18
-3.0492602e+18
1.52254e+19
1.6347329e+19
-1.9331691e+20
-3.0119357e+18
-2.8197526e+18
-1.8352682e+18
1.6152171e+19
1.6079136e+19
-1.9579435e+20
-3.0244266e+18
-2.756882e+18
-2.908416e+18
1.6460999e+19
1.578843e+19
-1.9069885e+20
-2.5870573e+18
-2.6214838e+18
1.3908611e+18
-2.5092579e+18
1.5281448e+19
1.6622537e+19
-1.9195942e+20
-2.856437e+18
-2.6789574e+18
2.6271461e+18
1.5831177e+19
1.5149542e+19
-1.9539707e+20
-2.8893093e+18
-3.1027303e+18
2.2012013e+18
1.5572973e+19
1.6330631e+19
-1.9539295e+20
-2.9564614e+18
-2.9104688e+18
1.5954562e+19
1.5291345e+19
-1.9182395e+20
-2.6302856e+18
-2.9470402e+18
2.2977666e+18
-2.7825343e+18
1.5479975e+19
1.6063018e+19
-1.9442048e+20
-2.9689823e+18
-2.9289538e+18
1.6385716e+19
1.5276566e+19
-1.9228935e+20
-2.9544201e+18
-2.6751651e+18
1.3540999e+18
1.5260702e+19
1.6564383e+19
-1.8909625e+20
-1.2958864e+18
-2.5200302e+18
-2.5114293e+18
1.6063804e+19
1.5499128e+19
-1.9433182e+20
-2.9126338e+18
-2.6537565e+18
-3.201511e+18
6.570489e+19
6.8767615e+19
-8.9973852e+20
-9.2596715e+18
-1.0351244e+19
-2.9467707e+17
6.8900659e+19
6.6401991e+19
-9.1716536e+20
-1.0035629e+19
-1.0960874e+19
-1.2782353e+18
9.9383928e+17
6.4315155e+19
6.7846917e+19
-8.9348722e+20
-9.6771225e+18
-1.1208775e+19
6.2463022e+19
6.7563931e+19
-9.1569178e+20
-1.1798937e+19
-1.2588355e+19
9.5980399e+18
-8.1096382e+18
6.1870199e+19
6.5396052e+19
-9.1171987e+20
-1.1815177e+19
-1.2537893e+19
6.6383976e+19
6.3505672e+19
-8.8723277e+20
1.4259802e+19
-9.1431087e+18
-1.1454967e+19
-3.0836651e+18
6.421473e+19
6.6531489e+19
-9.2188816e+20
-1.2660165e+19
-1.0761071e+19
6.1864688e+19
6.639059e+19
-9.0804083e+20
-1.1665953e+19
-1.1923676e+19
-1.0322108e+20
-1.805501e+20
-2.4988272e+20
-1.7659431e+22
-2.1077545e+20
-2.0507459e+20
-1.788805e+22
1.5133297e+20
1.2408008e+21
1.1777554e+21
-3.7320228e+19
-1.8498862e+22
-5.7184012e+20
-5.8220919e+20
1.2033449e+21
1.2579141e+21
-1.870635e+22
-5.365154e+20
-5.8873329e+20
-4.3531251e+20
-1.1901824e+20
3.1910087e+20
3.0578807e+20
-3.8739405e+21
-6.8806823e+19
-2.007766e+19
2.0006425e+20
-8.1113177e+20
1.9956106e+20
-2.3497218e+19
-7.9958966e+20
9.2652814e+19
-6.3426813e+19
-2.9820566e+21
-2.9537e+21
3.3313283e+18
3.4725169e+19
-5.973203e+19
-3.550515e+18
-9.5712229e+19
3.494441e+19
4.012624e+18
-6.2543719e+19
-9.6706565e+19
6.7527671e+18
1.1612884e+19
-6.1868117e+18
-1.7818264e+19
-2.3587772e+19
-1.7949975e+19
-2.4264415e+19
7.4998405e+18
1.1707248e+19
-2.4670937e+19
-2.3530708e+19
-1.8502545e+19
-1.7573338e+19
1.6056026e+18
3.5059523e+19
-6.1700241e+19
-9.788796e+19
3.5456231e+19
-6.2259685e+19
-9.7562035e+19
4.3679251e+18
1.2335269e+19
-1.8162111e+19
-2.4004904e+19
-1.8239956e+19
-2.4582516e+19
1.4322346e+19
-2.5054744e+19
-2.3757735e+19
-1.8671574e+19
-1.7693599e+19
7.8426045e+18
-2.4681377e+19
-7.5950992e+18
-1.5187477e+19
-1.6233586e+19
-1.6332487e+19
-1.5108208e+19
-2.4285884e+19
9.2848828e+18
-1.5840468e+19
-1.6813843e+19
-1.4502511e+19
-1.5843651e+19
-8.1723292e+18
8.6099011e+18
-1.4177029e+19
-2.1502266e+19
-2.047842e+19
-1.333271e+19
-8.3307162e+18
-2.1800745e+19
-1.3981276e+19
-1.3561903e+19
-2.1199341e+19
4.3519827e+18
2.336735e+19
-1.3763658e+19
-1.3960306e+19
-2.1054143e+19
-2.0752465e+19
2.0489124e+19
-2.1352541e+19
-1.4525791e+19
-1.3231099e+19
-1.9516347e+19
5.3125836e+18
-1.6582738e+19
-1.6515984e+19
-1.531404e+19
-1.5447559e+19
-1.5920654e+19
-1.693872e+19
-1.4303612e+19
-1.5698545e+19
-3.4128873e+19
1.2706553e+19
1.4964298e+19
-1.8048263e+20
-1.8594617e+20
-1.4205687e+20
-1.4002512e+20
-3.0855879e+19
1.299763e+19
1.439653e+19
-1.8264409e+20
-1.7929596e+20
-1.3990601e+20
-1.3989697e+20
-6.1484263e+20
4.0186592e+19
3.1073202e+20
3.0640569e+20
-1.023589e+19
-3.6866909e+21
7.6734398e+18
4.4738666e+18
-6.8554493e+18
6.7029637e+19
-3.7728405e+21
5.834394e+20
-3.6528374e+21
3.0591205e+20
2.9880028e+20
-3.6802655e+21
3.1391442e+18
4.0534118e+18
-4.1628418e+18
4.2992462e+20
-3.0865022e+21
4.1153889e+20
-2.9103565e+21
1.6909834e+19
6.3881569e+19
-5.976865e+19
3.0816318e+20
3.0294747e+20
-3.7808181e+21
-6.9100468e+19
-6.5575572e+19
1.2713154e+19
1.9297556e+20
-1.1754422e+19
-7.923077e+20
1.8136869e+19
1.9384276e+20
-8.0035856e+20
3.1155471e+20
3.0344975e+20
-3.8650731e+21
-7.1338188e+19
-6.2867384e+19
1.4898084e+19
1.9548887e+20
-7.9627952e+20
1.9683019e+20
-7.9947135e+20
-6.0653579e+18
1.4302822e+20
3.1670449e+18
-6.0756028e+20
1.4113484e+20
-6.0690618e+20
-2.4090532e+18
1.4361345e+20
-6.7560148e+20
1.4567097e+20
-8.6153605e+18
-6.7697223e+20
2.6581439e+19
5.9035754e+19
6.1351176e+19
-2.3209057e+19
-1.8100996e+20
-1.7680947e+20
-1.376313e+20
-1.3815795e+20
1.3043931e+19
1.3816299e+19
2.6157149e+19
6.0427053e+19
6.0420561e+19
-1.7869927e+20
-1.8285003e+20
-1.4018634e+20
-1.3883746e+20
1.2392949e+19
1.3986995e+19
-2.6421463e+19
6.0551521e+19
6.0464961e+19
-1.7865688e+20
-1.834055e+20
-1.4087219e+20
-1.3910333e+20
1.2421966e+19
1.4282561e+19
5.9074826e+19
6.1249966e+19
-1.8139638e+20
-1.7808475e+20
-1.3897862e+20
-1.3896334e+20
1.2605845e+19
1.3631286e+19
-1.3760433e+19
-1.1735778e+19
-1.2244772e+20
-1.179386e+20
-1.0490979e+20
-9.9499947e+19
1.945982e+18
3.3840776e+19
-9.3869484e+19
-1.1709372e+18
3.4057457e+19
2.3129076e+18
-9.50153e+19
4.6867189e+18
1.212559e+19
-3.4868019e+18
-2.3972299e+19
-2.2926479e+19
-1.7149262e+19
-1.7602965e+19
5.0505467e+18
1.2105379e+19
-1.7815091e+19
-2.396918e+19
-2.3222011e+19
-1.7236667e+19
4.9040817e+17
3.3974021e+19
-9.5987963e+19
3.4235798e+19
2.5200391e+18
-9.5841358e+19
2.4894605e+18
1.2089117e+19
-1.7501022e+19
-2.3384371e+19
-1.7798677e+19
-2.4185282e+19
1.3463478e+19
4.7253297e+18
-2.4456377e+19
-2.3314586e+19
-1.8069173e+19
-1.7260693e+19
5.6698175e+18
-2.3259508e+19
-5.3210655e+18
-1.5649149e+19
-1.5970841e+19
-1.4648898e+19
-1.4467659e+19
-2.3478588e+19
6.2511251e+18
-1.6356052e+19
-1.5574583e+19
-1.3969912e+19
-1.5193364e+19
7.0784252e+18
-7.0610419e+18
-2.0571634e+19
-1.3451177e+19
-1.3408892e+19
-2.0544005e+19
7.0707073e+18
-2.1910834e+19
-1.3988145e+19
-1.3129566e+19
-1.9636118e+19
-2.7706125e+19
-9.2372599e+19
-9.9835624e+19
-9.8513818e+19
-1.064041e+20
-1.5728934e+19
-2.0189686e+19
-1.1880751e+20
-1.2187406e+20
-1.023135e+20
-1.034094e+20
-3.9897065e+19
-9.405713e+19
-9.4641318e+19
-1.0405253e+20
-1.0321465e+20
-2.3567617e+19
3.1903347e+18
-1.5982323e+19
-1.6235457e+19
-1.4558388e+19
-1.4586472e+19
3.2566071e+18
-2.0942138e+19
-1.3589664e+19
-1.369476e+19
-2.0776955e+19
2.1577124e+19
7.0830386e+18
-2.1932202e+19
-1.4197993e+19
-1.3178556e+19
-1.9889737e+19
6.1325974e+18
-1.5604667e+19
-1.6386548e+19
-1.3805603e+19
-1.4885082e+19
2.3071622e+19
-6.0245389e+18
-1.510097e+20
-2.099313e+19
-1.1973022e+20
-1.241064e+20
-1.022273e+20
-1.0439205e+20
-3.5830334e+18
-1.495784e+20
-1.2372956e+20
-1.1980766e+20
-1.0630818e+20
-1.0056142e+20
3.9390533e+19
-4.0144762e+19
-9.4038587e+19
-1.0314576e+20
-9.3924715e+19
-1.0334367e+20
-9.7762447e+19
-8.9414313e+19
-1.046613e+20
-9.6493595e+19
-4.9298126e+17
1.4652237e+20
-6.1378174e+20
1.4871214e+20
9.1732083e+18
-6.0989841e+20
-1.1814315e+19
-6.8055989e+20
-5.5621307e+18
-6.7572682e+20
2.3555184e+18
3.3955472e+19
-9.4913272e+19
3.4189453e+19
2.3384114e+18
-9.5776981e+19
5.1242287e+18
1.119436e+19
-2.4010598e+19
-2.3260155e+19
-1.7480951e+19
-1.7716139e+19
4.7724046e+18
1.2129204e+19
-1.8147093e+19
-2.4303823e+19
-2.3253677e+19
-1.7348306e+19
7.4167738e+17
3.4227033e+19
-9.6176847e+19
3.4460717e+19
-9.5662943e+19
2.8030538e+18
1.1965449e+19
-1.7764659e+19
-2.3630216e+19
-1.7924799e+19
-2.4246264e+19
1.3344423e+19
-2.4498209e+19
-2.3302785e+19
-1.8205372e+19
-1.7333764e+19
3.5203959e+18
-2.3530966e+19
-6.035028e+18
-1.6376997e+19
-1.6225608e+19
-1.4906641e+19
-1.4934056e+19
-2.1641873e+19
-1.5663203e+19
-1.6552059e+19
-1.5170297e+19
-1.4029272e+19
3.8994405e+18
-6.062453e+18
-2.0582597e+19
-1.3827217e+19
-1.3917732e+19
-2.0726744e+19
-1.2988786e+19
-1.4423155e+19
-2.1013201e+19
-1.9514687e+19
-2.475361e+19
5.9049121e+18
-1.6062864e+19
-1.5843982e+19
-1.4535409e+19
-1.4733119e+19
6.6430029e+18
-2.1113109e+19
-1.3596257e+19
-1.3630412e+19
-2.1450039e+19
-2.2512945e+19
-1.5646537e+19
-1.654161e+19
-1.5322182e+19
-1.4066258e+19
-1.3135119e+19
-1.4366715e+19
-2.1161851e+19
-1.9205444e+19
-5.9538606e+20
-1.3183872e+19
3.0638736e+20
3.033569e+20
-3.6488417e+21
5.5550938e+18
-1.5125616e+18
-7.9447045e+19
-3.6615268e+21
5.755563e+20
-3.7439739e+21
2.9371462e+20
3.0619951e+20
-3.662059e+21
4.2116694e+18
-2.861684e+18
4.3307106e+18
1.4618574e+20
-1.2361433e+19
-6.1758224e+20
1.4739982e+20
-6.1149027e+20
-8.6966317e+18
3.5116915e+18
1.4831635e+20
-6.7831263e+20
1.4703353e+20
-6.703176e+20
1.5292761e+19
1.4289831e+20
-6.1020686e+20
1.4558881e+20
-6.1146796e+20
3.42434e+18
1.4629658e+20
-6.7235187e+20
1.483662e+20
-6.7781178e+20
-3.6271518e+18
7.8804978e+18
-1.6838546e+19
-1.1999042e+20
-1.0216795e+20
-1.241521e+20
-1.0429195e+20
2.0792607e+19
-3.2474757e+19
-9.2806696e+19
-1.0204147e+20
-9.3252116e+19
-1.0167072e+20
1.2986347e+18
-1.2279847e+20
-1.1881045e+20
-1.0457755e+20
-9.9330241e+19
-1.0249336e+20
-9.4803909e+19
-9.5162835e+19
-8.8011871e+19
-2.0148107e+18
2.0323954e+19
-1.1905028e+20
-1.2340747e+20
-1.0305068e+20
-1.008058e+20
3.0062558e+19
-3.3627865e+19
-9.1746842e+19
-9.2370642e+19
-9.7646047e+19
-1.0028627e+20
4.5309599e+18
-1.0534683e+20
-1.0077417e+20
-1.2390944e+20
-1.2061155e+20
-9.5239228e+19
-1.0215321e+20
-8.8947578e+19
-9.4978815e+19
1.0562891e+17
-4.048967e+19
-1.465312e+18
5.9424826e+19
-2.6429964e+19
-2.5578571e+19
-4.2247692e+19
-4.3880316e+19
-4.0592896e+19
5.80999e+19
-2.5171632e+19
-2.6586445e+19
-4.404092e+19
-4.1623409e+19
3.892592e+17
-1.5426419e+20
-2.7198704e+17
-1.5679611e+20
-7.5407266e+17
-5.4682382e+18
9.7649948e+17
1.4853277e+19
-3.6795265e+19
-5.4529056e+18
1.5153807e+19
-6.6909585e+17
-3.6101398e+19
6.9570923e+17
-3.226366e+19
-6.4571598e+17
7.2488991e+17
-3.3379805e+19
-7.8249243e+16
-4.8861446e+18
8.2968522e+17