/*--------------------------------*- C++ -*----------------------------------*\
  =========                 |
  \\      /  F ield         | OpenFOAM: The Open Source CFD Toolbox
   \\    /   O peration     | Website:  https://openfoam.org
    \\  /    A nd           | Version:  7
     \\/     M anipulation  |
\*---------------------------------------------------------------------------*/
FoamFile
{
    version     2.0;
    format      ascii;
    class       volScalarField;
    location    "1000";
    object      k;
}
// * * * * * * * * * * * * * * * * * * * * * * * * * * * * * * * * * * * * * //

dimensions      [0 2 -2 0 0 0 0];

internalField   nonuniform List<scalar> 
34251
(
1.5218144
1.5175395
1.5207492
1.5223647
1.5209799
1.522578
1.5211812
1.5219828
1.5222139
1.517378
1.5164674
1.5166962
1.5160633
1.5199194
1.5199689
1.5212884
1.5211482
1.5201839
1.5200495
1.5215128
1.5214146
1.5222609
1.5219323
1.5217169
1.522032
1.5200989
1.5202105
1.5200578
1.5202618
1.5213165
1.5216364
1.5206643
1.5209857
1.5209399
1.5210856
1.5212835
1.5211943
1.518228
1.5191384
1.5156777
1.5176199
1.5180461
1.5162096
1.5156927
1.5151804
1.5159176
1.51633
1.5171957
1.5172186
1.5155862
1.5155008
1.515167
1.5150645
1.5159603
1.5158194
1.520293
1.5192457
1.52036
1.5192361
1.5204122
1.5192281
1.5203909
1.5206514
1.5193362
1.5205563
1.5193086
1.5192821
1.5205182
1.520468
1.5213232
1.5212342
1.5210896
1.5210189
1.5210158
1.5210701
1.5210966
1.521167
1.5220215
1.521002
1.5209263
1.5207767
1.5208502
1.5218193
1.5211313
1.5209834
1.5207681
1.5209191
1.5216623
1.5214957
1.5195577
1.5196054
1.5196439
1.5201574
1.5195956
1.5195177
1.5195246
1.519605
1.5195318
1.5195391
1.5195687
1.519581
1.5201114
1.5195406
1.5195854
1.5196611
1.5196153
1.5199597
1.5199303
1.5200672
1.5202802
1.5195889
1.5196369
1.5196041
1.520774
1.5199452
1.5200166
1.5199849
1.5199222
1.5209634
1.5200571
1.5201426
1.5200059
1.5201762
1.5201882
1.5202253
1.5202125
1.5203595
1.5203298
1.5202871
1.5180655
1.5188401
1.515393
1.5171827
1.5176653
1.5158778
1.5156855
1.5154339
1.5152128
1.5155829
1.5151292
1.5150929
1.5149599
1.5150049
1.5149563
1.5160699
1.5160676
1.5149096
1.5151336
1.5155642
1.5162322
1.5168618
1.5169018
1.515346
1.5152476
1.5151002
1.5151603
1.5150778
1.5149764
1.514913
1.5150171
1.5150171
1.514916
1.5150497
1.5149204
1.5160525
1.5148743
1.5148726
1.5160523
1.5160109
1.5185154
1.5185005
1.5196505
1.519662
1.5184992
1.5184702
1.5196695
1.5196566
1.5196754
1.5184899
1.5184749
1.5196447
1.5185716
1.5185415
1.5198009
1.5197638
1.5185421
1.5185295
1.5197581
1.5197483
1.5185413
1.5185299
1.5197482
1.5197112
1.5200376
1.5201606
1.5203952
1.5200992
1.5201434
1.5203233
1.5203768
1.5202304
1.5201218
1.520069
1.5201152
1.520223
1.5201684
1.5202132
1.5202544
1.5202767
1.5202272
1.5210889
1.5203383
1.5202604
1.5202766
1.5211453
1.5201104
1.5201545
1.5202251
1.5201697
1.5201585
1.5202239
1.5209889
1.5210293
1.5201206
1.5200546
1.5200521
1.5201097
1.5201548
1.5201694
1.5201761
1.5201583
1.5210055
1.5200481
1.5201287
1.5201419
1.5208565
1.5200642
1.5199633
1.5200192
1.5200309
1.5200885
1.52091
1.5207691
1.5200361
1.5200417
1.5202499
1.5202715
1.5202259
1.5199619
1.5200142
1.5201632
1.5200829
1.5199905
1.5199326
1.5200212
1.5201204
1.5200097
1.5200106
1.5201054
1.5217275
1.5210528
1.5210986
1.5210567
1.5210196
1.5215802
1.520956
1.5209827
1.5208541
1.5208401
1.5212824
1.5212063
1.5191073
1.5190901
1.5195942
1.5191619
1.5191767
1.5191385
1.5191305
1.5196406
1.5192084
1.5192246
1.5190199
1.5190412
1.5190247
1.5190443
1.5195215
1.5195612
1.5190031
1.5190295
1.5189909
1.5190102
1.5189582
1.518955
1.5190055
1.518995
1.5189523
1.5189995
1.5189531
1.5189946
1.5189435
1.5190285
1.5189443
1.5190228
1.5191003
1.5190953
1.5195661
1.5191634
1.5191641
1.5191004
1.5190952
1.5195781
1.5191629
1.5191662
1.5190027
1.5190289
1.5190021
1.5190201
1.5190002
1.5190257
1.5190002
1.5190204
1.5195018
1.5194966
1.5189543
1.5190033
1.5189405
1.5189831
1.5189556
1.5190063
1.5189702
1.5190154
1.518941
1.5190318
1.5189603
1.5190424
1.5189458
1.5190324
1.5189312
1.5190104
1.5195245
1.5195526
1.5195896
1.5195536
1.519503
1.5195053
1.5195372
1.5195288
1.5196004
1.5195706
1.5195992
1.519627
1.5196354
1.5195563
1.5196655
1.519592
1.519785
1.5191688
1.5192259
1.5191321
1.5191392
1.5192028
1.5191919
1.5190354
1.5190628
1.5190478
1.5189856
1.5189789
1.5190668
1.5189991
1.5199782
1.5200058
1.5198466
1.5198423
1.5196114
1.5196288
1.5195975
1.5196173
1.519592
1.5195647
1.5195458
1.5195664
1.5195513
1.5195275
1.5195281
1.5195457
1.5196013
1.5195968
1.519583
1.5195842
1.5199707
1.5201198
1.5201737
1.5197272
1.519714
1.5196982
1.5196851
1.5196141
1.5196352
1.5196271
1.519648
1.5197915
1.5198403
1.519846
1.5200559
1.5194983
1.5194929
1.5194992
1.5194932
1.5195142
1.5194885
1.5196272
1.5195962
1.5195857
1.5195856
1.5195809
1.5195504
1.517986
1.5186618
1.5151746
1.5150119
1.5149762
1.5172263
1.5176137
1.5156186
1.5152673
1.5155587
1.5151481
1.5154961
1.5149248
1.5149604
1.5149209
1.5149395
1.5148883
1.5149149
1.515007
1.5150161
1.5161965
1.516172
1.514985
1.514986
1.5161995
1.5161621
1.5148667
1.5148994
1.5148954
1.5148738
1.5150669
1.5151085
1.5150077
1.5150699
1.5153515
1.5155713
1.5152665
1.5151102
1.5151703
1.5162854
1.5162795
1.516863
1.5169258
1.5151558
1.5150661
1.5149955
1.5150548
1.5149192
1.5149163
1.5150463
1.5149431
1.5148822
1.5148846
1.5150015
1.5150747
1.5149656
1.5148935
1.5148733
1.5149056
1.5149196
1.5150181
1.5149739
1.5162163
1.5161473
1.5148362
1.5148434
1.5148651
1.514861
1.514843
1.5148359
1.5148596
1.5148643
1.5149694
1.5149496
1.5161853
1.5161454
1.5149614
1.5149511
1.5161871
1.5161601
1.5172945
1.5172011
1.5172493
1.5192062
1.5191985
1.5172192
1.5171733
1.5192004
1.5191986
1.5171685
1.5172357
1.5192008
1.5191904
1.5171492
1.5171303
1.5191922
1.5191883
1.5171384
1.517176
1.5192116
1.5192029
1.5171919
1.5171492
1.5191961
1.5191898
1.5171702
1.5172329
1.5193153
1.5193
1.5172004
1.5171737
1.5192884
1.5192798
1.5171622
1.5172091
1.5192699
1.519265
1.5171736
1.5171465
1.5192784
1.5192723
1.5171708
1.5172007
1.5192746
1.5192658
1.5172366
1.5172018
1.5192619
1.5192483
1.5212582
1.5192715
1.5194545
1.5192352
1.5194125
1.5194199
1.51966
1.5193867
1.5196197
1.5192431
1.5192033
1.5194178
1.5193741
1.5192444
1.5192475
1.5194247
1.5194172
1.519383
1.5196138
1.5193487
1.5195737
1.5193859
1.5193884
1.5196226
1.5196131
1.5191273
1.519091
1.5193232
1.5192752
1.519051
1.5190148
1.5191991
1.5191508
1.5189888
1.5190347
1.5191764
1.5191208
1.5190385
1.5190397
1.5191839
1.5191728
1.5191093
1.5191113
1.5193003
1.5192899
1.5191067
1.5190629
1.5192939
1.5192414
1.5192944
1.5192463
1.5202968
1.519403
1.5194405
1.5193072
1.5192968
1.5203439
1.5194508
1.5194521
1.5190942
1.5191441
1.5190936
1.5191298
1.5190847
1.5191325
1.5190442
1.5190769
1.5202721
1.5202324
1.5193795
1.5204187
1.5196292
1.5195376
1.5193058
1.5192696
1.5203464
1.5194505
1.5194249
1.5190934
1.5190656
1.5191456
1.5191014
1.5202812
1.5203391
1.5189873
1.518942
1.519081
1.5190228
1.5189955
1.5190916
1.5189934
1.5190769
1.5189781
1.5191316
1.5189769
1.5191172
1.5189718
1.5191226
1.5189249
1.5190629
1.5189648
1.5190488
1.5189493
1.5191405
1.5190914
1.5215598
1.5202814
1.5203151
1.5203479
1.5203046
1.520363
1.5203296
1.5204053
1.5203544
1.5216373
1.5215783
1.5188771
1.5190314
1.5188756
1.5190162
1.5189487
1.5188954
1.5190382
1.5189747
1.5188968
1.5189914
1.518894
1.5189759
1.5189288
1.5188768
1.5190753
1.5190133
1.5192066
1.5191956
1.5202458
1.5193467
1.5193476
1.5190511
1.5190948
1.5189986
1.5190305
1.5189971
1.5190461
1.5189954
1.5190309
1.5192588
1.519198
1.5202405
1.5194033
1.5193493
1.520181
1.5201774
1.5192638
1.5192614
1.5201177
1.5193933
1.5194039
1.5192412
1.5192138
1.5202076
1.5193589
1.519381
1.5190383
1.5190807
1.5190209
1.5190528
1.520146
1.5200516
1.5190722
1.5191091
1.5190928
1.5191186
1.5189779
1.5190606
1.5190072
1.5190742
1.5189635
1.5190987
1.5189943
1.5191092
1.5189387
1.5190275
1.5189221
1.5190008
1.5189195
1.5190624
1.5189051
1.5190375
1.5202293
1.5202293
1.5202565
1.5202522
1.5201971
1.5202161
1.5201185
1.520097
1.5191881
1.5191493
1.5193597
1.5193184
1.5191549
1.5193364
1.5191522
1.5193239
1.5193247
1.5195479
1.5192934
1.519512
1.5192999
1.5195341
1.5192964
1.5195196
1.5193091
1.5195311
1.5193045
1.5195174
1.5192159
1.5192263
1.5193728
1.5193666
1.5191735
1.5193444
1.5191663
1.5193299
1.5193445
1.519344
1.5190444
1.5192243
1.5190355
1.5192051
1.5189763
1.5189642
1.5191144
1.5190929
1.5190228
1.5190486
1.5191512
1.5191581
1.5190911
1.5191105
1.5192586
1.519258
1.5190149
1.5192083
1.5190137
1.5191937
1.5189882
1.5189387
1.5191271
1.5190707
1.5189415
1.5190876
1.5189396
1.5190737
1.5190572
1.5190127
1.5192395
1.519188
1.5210951
1.5210607
1.5209334
1.5209224
1.5205268
1.520557
1.5205431
1.5205063
1.5204429
1.5204253
1.520408
1.5204125
1.5204015
1.5203877
1.5203628
1.5203643
1.5204893
1.5205171
1.520505
1.5204631
1.5209048
1.5210055
1.520862
1.5207939
1.5204568
1.5204601
1.5204237
1.5204151
1.5203175
1.5203193
1.5203123
1.5203144
1.5201854
1.5202827
1.5202809
1.52018
1.5203403
1.5204261
1.5203835
1.5202886
1.520882
1.5207965
1.5178469
1.5178484
1.518049
1.5180321
1.5180713
1.518049
1.5178788
1.5178792
1.5192254
1.5191798
1.5191696
1.5192089
1.5179123
1.5178823
1.5176934
1.517703
1.5179246
1.5179154
1.5180268
1.5180043
1.5178133
1.5178153
1.5192111
1.5192309
1.5192763
1.5192554
1.5178505
1.5177411
1.5178869
1.5178909
1.5180768
1.5180834
1.5180448
1.5180526
1.5182158
1.5182166
1.518149
1.5179959
1.5181765
1.5179823
1.5183002
1.518144
1.5181267
1.5182769
1.5191611
1.5191667
1.5192073
1.5191958
1.519192
1.5192109
1.5192558
1.5192352
1.5181701
1.5180199
1.5181892
1.5180108
1.518306
1.518158
1.5181478
1.5182921
1.5181788
1.5180432
1.5182056
1.5180287
1.5183171
1.5181753
1.5181573
1.5182937
1.5183109
1.5184167
1.5184077
1.5183071
1.518322
1.5183335
1.5184345
1.5184179
1.5184874
1.518391
1.5184943
1.5183887
1.5183997
1.5184932
1.5184096
1.5185083
1.5183999
1.5183044
1.5184083
1.5182995
1.5183811
1.5184836
1.5184785
1.5183802
1.5183993
1.5183175
1.5184207
1.5183006
1.5183946
1.5184955
1.5183803
1.5184772
1.5185325
1.5184592
1.5185348
1.5184607
1.5185993
1.518511
1.5185141
1.5185985
1.5184598
1.5185312
1.5184725
1.5185471
1.5186106
1.5185243
1.5185134
1.5185963
1.5178906
1.5178922
1.518086
1.5180707
1.5181177
1.5180997
1.5179317
1.5179345
1.5192083
1.519162
1.5191665
1.5192055
1.5179647
1.5179229
1.5178913
1.5178917
1.5180856
1.5180693
1.5180967
1.5180735
1.5179044
1.5179031
1.5192137
1.5191689
1.5191646
1.5192061
1.5179352
1.5179238
1.51806
1.5180519
1.5182238
1.5182077
1.5181875
1.5183387
1.5183265
1.5181957
1.518092
1.5180819
1.5182289
1.51825
1.5182223
1.5182096
1.5183605
1.5183404
1.5182027
1.5180582
1.5182205
1.5180491
1.5181911
1.5183338
1.5183196
1.5181818
1.5182044
1.5180704
1.5182322
1.518054
1.5182038
1.5183455
1.518184
1.5183198
1.5191956
1.5191552
1.5191509
1.5191884
1.5191543
1.5191468
1.5191872
1.5191889
1.5183761
1.5182768
1.5183862
1.5182716
1.5183577
1.518465
1.5184576
1.5183552
1.5182741
1.5183739
1.5182889
1.5183935
1.518366
1.5184688
1.5183538
1.5184514
1.5183131
1.5181796
1.518305
1.5181944
1.51827
1.5182907
1.5183927
1.5184062
1.5183664
1.51827
1.5183854
1.5182568
1.5184676
1.5183561
1.5183459
1.5184525
1.5184705
1.5183619
1.518454
1.5183861
1.5184244
1.5184498
1.5185294
1.5185459
1.5184342
1.5185131
1.5184419
1.5185253
1.5185947
1.5185
1.5184942
1.5185838
1.5185144
1.5184397
1.5185194
1.518439
1.5185865
1.5184946
1.518495
1.5185824
1.5184335
1.5185058
1.5184445
1.5185207
1.518585
1.5184968
1.5184873
1.5185712
1.5191315
1.5191254
1.5191664
1.519167
1.519142
1.519148
1.519198
1.5191842
1.5191591
1.5191744
1.5192297
1.519211
1.5191897
1.5191398
1.5191408
1.5191829
1.5191204
1.519106
1.5191552
1.5191465
1.5191112
1.5191148
1.5191493
1.5191565
1.5191785
1.5191299
1.5191242
1.5191707
1.5191686
1.5191191
1.519131
1.5191733
1.5192069
1.519186
1.5192231
1.5192413
1.5191621
1.5191603
1.519196
1.5191981
1.5192109
1.5191654
1.5191709
1.5192155
1.5192162
1.5191925
1.5192391
1.5192592
1.5192405
1.5191961
1.519207
1.5192464
1.5192239
1.5191843
1.5191933
1.5192305
1.5192728
1.5192261
1.5192527
1.5192904
1.5192539
1.5192129
1.5192389
1.5192749
1.5193552
1.5193367
1.5193806
1.5193976
1.5180079
1.5180094
1.518191
1.518176
1.5180386
1.5179906
1.5179911
1.5181677
1.518153
1.518182
1.5181614
1.5180023
1.5180021
1.5180317
1.5180212
1.5182738
1.5181405
1.5182895
1.5181327
1.5182599
1.5182523
1.5183918
1.5183804
1.5182823
1.5181561
1.5183078
1.5181418
1.5186304
1.5185646
1.5186341
1.5185653
1.5185986
1.5185035
1.5185831
1.5185276
1.518559
1.5185806
1.5186524
1.5186647
1.5186349
1.5185725
1.518644
1.5185675
1.5196609
1.5196631
1.5196415
1.5196346
1.5196919
1.5196728
1.519648
1.519656
1.51964
1.519633
1.5192736
1.5192737
1.5192344
1.5192382
1.519273
1.51927
1.5192294
1.5192386
1.5191762
1.5191656
1.5191808
1.5191884
1.5191736
1.5191576
1.5191785
1.5191891
1.5191753
1.5191236
1.5191274
1.5191701
1.5191621
1.5191312
1.5191423
1.5191659
1.5191431
1.5191324
1.5191555
1.519162
1.5191561
1.5191152
1.519124
1.5191595
1.519145
1.5191002
1.5191027
1.5191405
1.5191435
1.5191208
1.5191257
1.5191427
1.5191293
1.5191131
1.5191359
1.5191481
1.5191366
1.5190949
1.5191107
1.519147
1.5192674
1.5192635
1.5192232
1.5192308
1.5192662
1.5192638
1.5192247
1.51923
1.5191666
1.519152
1.5191638
1.519176
1.5191663
1.5191573
1.5191696
1.5191741
1.5197816
1.5197576
1.5197855
1.5197923
1.5197668
1.5193926
1.5193863
1.5193371
1.5193429
1.5193739
1.51937
1.5193195
1.5193216
1.5192726
1.5192601
1.5192642
1.5192754
1.5192465
1.5192421
1.5192451
1.5192456
1.5191911
1.519193
1.5192047
1.5192058
1.519228
1.5192111
1.5192418
1.5192275
1.5191613
1.519195
1.519194
1.5191617
1.519184
1.5192201
1.5192358
1.5192035
1.5193688
1.5193441
1.5193544
1.5193769
1.5193385
1.5193238
1.5193725
1.5193845
1.5193847
1.5193982
1.5172117
1.5173593
1.5191032
1.5190931
1.5190941
1.5190971
1.5190942
1.5190808
1.5190819
1.5190821
1.5191052
1.5190953
1.5190875
1.5190865
1.5192028
1.5191849
1.5191729
1.5191691
1.5191591
1.5191523
1.5191672
1.5191652
1.5191658
1.5191561
1.5191533
1.5191437
1.518034
1.5164871
1.5165593
1.518633
1.5167618
1.5171986
1.5221266
1.5150035
1.5149761
1.5149929
1.5148913
1.5149224
1.5155248
1.5152758
1.5154075
1.5151386
1.5154417
1.5169747
1.5151538
1.5151243
1.5150436
1.5150888
1.5150189
1.5150687
1.5155355
1.5153589
1.5152781
1.5152697
1.5155368
1.5149228
1.5149197
1.5148899
1.5148952
1.5148748
1.5148797
1.5149591
1.5149412
1.5149087
1.5149299
1.5148951
1.5149166
1.5148639
1.5148792
1.5148672
1.514881
1.514897
1.5149078
1.5148965
1.5148802
1.5148531
1.514855
1.514859
1.5148582
1.5148709
1.5148894
1.5148892
1.5148688
1.5159772
1.5151893
1.5151715
1.5159481
1.51597
1.5152008
1.5152059
1.5159955
1.5148362
1.5148408
1.5148335
1.5148395
1.5148439
1.5148448
1.514848
1.5148475
1.5160048
1.5151787
1.5151656
1.5159608
1.5151578
1.5151748
1.5159468
1.5159401
1.5148604
1.5148619
1.5148489
1.5148457
1.5148532
1.514867
1.5148681
1.5148558
1.5149621
1.5149894
1.5149761
1.514997
1.5150355
1.5150563
1.5150081
1.5150397
1.5151627
1.5152098
1.5152474
1.5152264
1.5149376
1.5149461
1.5149638
1.5149588
1.5150288
1.5149928
1.5150268
1.5149864
1.5152861
1.5160197
1.5160649
1.5153278
1.5160547
1.5152671
1.5152617
1.5160236
1.5149896
1.5150516
1.5149931
1.5149881
1.5149127
1.5149128
1.5149109
1.514896
1.5148425
1.5148466
1.5150185
1.5150606
1.5149844
1.5150699
1.514967
1.5149377
1.5149492
1.5149162
1.5149011
1.5148807
1.5148986
1.5148761
1.5148786
1.5148556
1.5148602
1.5148416
1.5148486
1.5148812
1.5148771
1.514856
1.5148613
1.5148484
1.5148431
1.5149643
1.5149492
1.5149314
1.5149577
1.5148901
1.5148843
1.5148694
1.51488
1.5148699
1.5148656
1.5148509
1.5148568
1.514874
1.5148605
1.514875
1.5148589
1.5148487
1.5148418
1.5148478
1.5148392
1.5160039
1.5152056
1.5151702
1.515953
1.5151494
1.51517
1.5159531
1.5159539
1.5148308
1.5148311
1.5148187
1.5148181
1.5148357
1.5148388
1.5148281
1.5148229
1.5148398
1.514837
1.5148244
1.5148293
1.5148309
1.5148303
1.5148182
1.5148187
1.5148226
1.5148164
1.5148222
1.5148157
1.5148111
1.5148104
1.5148113
1.5148102
1.5159641
1.5151524
1.5151352
1.5159338
1.5151273
1.5151386
1.5159258
1.5159319
1.5148103
1.5148111
1.5148096
1.514811
1.5148151
1.5148213
1.5148152
1.5148216
1.5159603
1.5151486
1.515139
1.5159441
1.5151496
1.5151572
1.5159706
1.5159837
1.5173349
1.5147639
1.5170225
1.5170607
1.517045
1.5169948
1.5169788
1.5170401
1.5169718
1.5169376
1.5169598
1.5169865
1.5170161
1.5169643
1.5169825
1.5170393
1.5170184
1.516983
1.5169755
1.5170186
1.516996
1.5169629
1.516984
1.517009
1.5170554
1.5170114
1.5188613
1.5187529
1.5188743
1.5187423
1.5188704
1.5190165
1.5190043
1.5188623
1.5188303
1.5187242
1.518846
1.5187118
1.5188437
1.5189892
1.5188336
1.5189737
1.5191087
1.5190141
1.519119
1.5190061
1.5192465
1.5191164
1.5191075
1.5192283
1.5189781
1.5190805
1.5189883
1.5190929
1.5192173
1.5190902
1.5190823
1.5192059
1.5187385
1.5188544
1.5188472
1.5187337
1.518703
1.5187228
1.5188376
1.5188154
1.5188484
1.5189894
1.5189834
1.5188472
1.5188183
1.5188357
1.5189745
1.518953
1.5187216
1.5188403
1.5188405
1.5187258
1.5187468
1.518864
1.5188527
1.518739
1.5189782
1.518833
1.5189779
1.5188398
1.5189892
1.5188599
1.5190001
1.5188546
1.519083
1.5189855
1.5190869
1.5189847
1.5192094
1.5190832
1.5190815
1.519198
1.5189569
1.5190551
1.518974
1.5190734
1.5191943
1.5190715
1.5190569
1.5191777
1.5189724
1.5190766
1.5190784
1.5189787
1.5189977
1.5190982
1.5189922
1.5190898
1.5192031
1.5191957
1.5190722
1.5190766
1.5190899
1.5190937
1.5192137
1.5192051
1.5185913
1.5184883
1.5186101
1.5184769
1.5184618
1.5185798
1.5185561
1.5184424
1.518593
1.5187583
1.5185779
1.5187397
1.5187269
1.5187051
1.518562
1.5185462
1.5183913
1.5182786
1.5184071
1.5182711
1.5182598
1.5183841
1.5183543
1.5182371
1.5183696
1.5185194
1.5183605
1.5185011
1.5184921
1.5184634
1.5183471
1.5183258
1.5182647
1.5182343
1.5183494
1.5183863
1.5182775
1.5184045
1.5183901
1.5182716
1.5183605
1.5183678
1.5185145
1.5184983
1.518494
1.5183524
1.5183233
1.518458
1.5182645
1.5183913
1.5183868
1.5182693
1.5182951
1.5184189
1.5183918
1.5182743
1.5183518
1.5185005
1.5184943
1.5183556
1.518382
1.5185254
1.5185
1.5183638
1.5184678
1.5185877
1.5185815
1.5184695
1.5184952
1.5186106
1.5185904
1.5184787
1.5185688
1.5187309
1.5187257
1.518568
1.5185926
1.518752
1.5187348
1.5185804
1.5184852
1.5186042
1.5185884
1.5184758
1.5184395
1.5184679
1.5185829
1.5185512
1.518588
1.5187465
1.5187325
1.5185769
1.5185445
1.5185688
1.5187257
1.5186969
1.5167507
1.5167518
1.5171836
1.5171435
1.5172039
1.5171486
1.516784
1.5167816
1.5194465
1.5194739
1.51955
1.5195098
1.5168171
1.5167859
1.5167789
1.5167781
1.5172065
1.5171665
1.5172134
1.5171592
1.5167799
1.5167772
1.5194979
1.5195704
1.5195576
1.5194882
1.5168131
1.5168136
1.5171676
1.5171446
1.517473
1.5175128
1.5174652
1.5177618
1.5177298
1.5174442
1.5174645
1.517177
1.5175268
1.5171392
1.517482
1.51778
1.5174381
1.5177223
1.5171468
1.5171236
1.5174976
1.5174555
1.5174281
1.5177511
1.5177167
1.5174519
1.5171691
1.5171301
1.517445
1.5175091
1.5174654
1.5174196
1.5177555
1.5176941
1.5194897
1.5195075
1.5195767
1.519558
1.5195458
1.5194721
1.5194542
1.5195157
1.520808
1.517258
1.5171994
1.5168092
1.516805
1.5195742
1.519665
1.5196445
1.5197352
1.5168391
1.5167674
1.5167673
1.517195
1.5171539
1.5172045
1.5171528
1.5167846
1.5167837
1.5194922
1.519567
1.5195368
1.5194732
1.5168016
1.516819
1.5171575
1.5175037
1.5174602
1.5171331
1.5171674
1.5175075
1.5174486
1.5171332
1.5174576
1.5177565
1.5177194
1.5174322
1.5174221
1.5174619
1.5177538
1.5176992
1.5194863
1.5194973
1.5195465
1.5195697
1.519566
1.519654
1.5197281
1.5196407
1.517706
1.5179214
1.5178946
1.5176887
1.5176683
1.5177125
1.5179193
1.5178652
1.518059
1.5178751
1.5180816
1.5178625
1.5178355
1.5180236
1.5178751
1.5180732
1.5179033
1.517714
1.5179252
1.5177
1.517876
1.5180805
1.5180653
1.5178698
1.5178995
1.5177357
1.5179479
1.517696
1.5179024
1.5181052
1.5178691
1.5180626
1.5181743
1.5180349
1.5181836
1.5180335
1.5183071
1.5181379
1.51814
1.5183004
1.5180342
1.5181746
1.5180635
1.5182105
1.5183338
1.5181682
1.5181433
1.5183011
1.5180393
1.5181898
1.5181718
1.5180292
1.5183167
1.518147
1.5181391
1.5183
1.5180334
1.5179962
1.5181776
1.5181334
1.5183004
1.5181035
1.5182589
1.5181374
1.5176725
1.5177088
1.5179169
1.517871
1.5178401
1.5180702
1.5180301
1.5178707
1.5180283
1.5180012
1.5181396
1.5181747
1.5181456
1.5183187
1.5181378
1.5183009
1.5182983
1.5181322
1.5181078
1.5182648
1.5209269
1.5209649
1.5208727
1.5208391
1.519448
1.5194448
1.5195092
1.5195196
1.519463
1.519489
1.5195661
1.5195358
1.5194675
1.5194928
1.5195769
1.5195507
1.5194481
1.5195353
1.5195159
1.519441
1.5196744
1.5195891
1.5195209
1.5195985
1.5194902
1.5194911
1.5195592
1.5195498
1.5195335
1.519616
1.5197071
1.5196228
1.5195674
1.5194844
1.5194798
1.519551
1.5216326
1.5214708
1.5209048
1.5209784
1.5210031
1.5209174
1.521037
1.5210935
1.5210717
1.5210016
1.5180839
1.5179529
1.5180987
1.5179458
1.5180553
1.5182243
1.51821
1.5180506
1.5179414
1.5180797
1.5179595
1.5181055
1.5180634
1.5182306
1.5180488
1.5182064
1.5176915
1.5179003
1.5178709
1.517672
1.5176345
1.5176666
1.5178699
1.5178275
1.5180292
1.5178526
1.5180536
1.5178373
1.5177967
1.5179821
1.5178242
1.5180201
1.5178221
1.517645
1.5178488
1.5176259
1.5178004
1.517999
1.517978
1.5177882
1.5178116
1.5176427
1.5178501
1.5176143
1.5178036
1.5180031
1.5177807
1.5179704
1.5180102
1.5181567
1.5181372
1.5179983
1.517979
1.518122
1.5179538
1.5180894
1.5182794
1.5182619
1.5181132
1.5181039
1.518059
1.5180807
1.5182437
1.5182127
1.5167562
1.5167533
1.5171643
1.5171217
1.5171457
1.5171004
1.5167301
1.5167322
1.5194643
1.5193915
1.5193864
1.5194539
1.5167666
1.5167886
1.5171596
1.5171338
1.5174985
1.5174533
1.5174232
1.5177407
1.5177029
1.5174512
1.5171438
1.5171142
1.5174206
1.517475
1.517429
1.5173932
1.5177136
1.5176625
1.5174117
1.5171258
1.5174566
1.5170987
1.5174098
1.5176949
1.517657
1.5173825
1.5173942
1.5171077
1.5174465
1.5170797
1.5174007
1.5176903
1.5173673
1.5176426
1.5167824
1.5167814
1.5172004
1.5171582
1.5171843
1.5171362
1.516778
1.5167795
1.5193933
1.5194446
1.5195136
1.5194563
1.5168183
1.5168159
1.5193968
1.5194481
1.5195166
1.5194611
1.5193876
1.5193993
1.519469
1.5194562
1.5168693
1.5168843
1.5172761
1.5172556
1.5174847
1.5174863
1.517131
1.5171679
1.5194958
1.519426
1.5194131
1.5194736
1.5171946
1.5169187
1.5168177
1.5168164
1.5172255
1.5171838
1.5172171
1.5171722
1.5168128
1.5168152
1.5194894
1.5194188
1.519394
1.5194591
1.5168523
1.516854
1.5171871
1.5171604
1.517473
1.5175174
1.5174711
1.517444
1.5177546
1.517717
1.5174569
1.5171787
1.517509
1.5171506
1.5177442
1.5174629
1.5174295
1.5176988
1.5194888
1.5194178
1.5193934
1.5194584
1.5194019
1.5194125
1.5194817
1.5194614
1.5175487
1.5172372
1.5175712
1.5172358
1.5178093
1.5175258
1.5175228
1.5177952
1.5177431
1.5174463
1.5177466
1.5174719
1.5179623
1.5177062
1.5177233
1.5179603
1.5179651
1.517766
1.5179721
1.5177699
1.5179281
1.5181243
1.5181221
1.517937
1.517941
1.5181122
1.5179254
1.5181119
1.5180745
1.5182509
1.5180903
1.5182516
1.5182315
1.5180849
1.518229
1.5180966
1.518349
1.518189
1.5182035
1.5183536
1.5182316
1.5183495
1.5182175
1.5183466
1.5184549
1.5183122
1.5183272
1.5184573
1.5178822
1.5177084
1.5179108
1.5176875
1.5178636
1.5178494
1.5180595
1.518037
1.5178655
1.5176991
1.5179025
1.5176717
1.5180512
1.5178567
1.5178351
1.5180207
1.5181426
1.5180166
1.5181599
1.5180065
1.5182795
1.5181172
1.5181101
1.5182641
1.5179929
1.5181289
1.51801
1.5181534
1.518273
1.518112
1.5180987
1.518251
1.5193815
1.5194221
1.5194962
1.5194452
1.5193744
1.5193938
1.5194632
1.5194412
1.519389
1.519469
1.5194509
1.5193714
1.5193776
1.5194263
1.5195112
1.5194559
1.5193677
1.5194006
1.5194708
1.5194363
1.5194811
1.5194004
1.5193717
1.5194499
1.5194628
1.5193756
1.5193726
1.5194459
1.5194356
1.5193674
1.5193658
1.5194243
1.5186895
1.5188043
1.518798
1.5186857
1.5186513
1.518662
1.5187785
1.5187644
1.518932
1.5187988
1.5189372
1.5187985
1.5187683
1.5189016
1.5187771
1.5189155
1.5187629
1.5186536
1.5187703
1.5186491
1.5187652
1.5189076
1.5189008
1.5187632
1.5187641
1.518654
1.5187719
1.5186501
1.518769
1.5189097
1.5187673
1.5189018
1.5189333
1.5190326
1.5190295
1.5189333
1.5191492
1.519027
1.5190281
1.5191384
1.5189152
1.5189062
1.5190146
1.5190035
1.5191303
1.5190054
1.5191212
1.5190118
1.519001
1.5189037
1.5190057
1.5189019
1.5191331
1.5190027
1.5190004
1.5191202
1.5189055
1.5190033
1.5189078
1.5190087
1.5191259
1.5190051
1.5190043
1.5191197
1.5190211
1.5189237
1.5190219
1.5189264
1.5190179
1.5191422
1.5191328
1.5190193
1.5189274
1.5190218
1.5189284
1.519026
1.5190218
1.5191374
1.5190227
1.519134
1.5187476
1.5188557
1.5188641
1.5187618
1.5188253
1.5188209
1.5189179
1.5189148
1.5189874
1.51885
1.5189802
1.5188648
1.5189156
1.5190238
1.5189152
1.519032
1.5187939
1.5186868
1.5187984
1.5186846
1.5187923
1.5189287
1.5189255
1.5187939
1.5187904
1.5186822
1.5187969
1.5186801
1.5187943
1.5189301
1.5187937
1.5189235
1.5189765
1.5190706
1.5190775
1.5189889
1.5190307
1.5191141
1.519025
1.5191037
1.5185442
1.5184412
1.518557
1.5184345
1.5185414
1.5186943
1.5186829
1.5185334
1.5185364
1.5184345
1.5185481
1.5184268
1.5185311
1.5186856
1.518528
1.518675
1.5182419
1.5183634
1.5183501
1.5182357
1.5182368
1.5183579
1.5183396
1.5182251
1.5183275
1.5184704
1.518456
1.5183215
1.5183227
1.5184632
1.5184458
1.5183136
1.5183144
1.5184351
1.5184405
1.5183294
1.5184383
1.5184253
1.5185324
1.5185354
1.5184014
1.5185399
1.5185433
1.5184157
1.5185158
1.5185033
1.5186261
1.518627
1.5185134
1.5186259
1.5186294
1.5185251
1.5186133
1.5186039
1.5187039
1.5187051
1.5187557
1.5187606
1.5186114
1.5186213
1.5187007
1.5186926
1.5188245
1.5188224
1.5185007
1.5183941
1.5185144
1.5183868
1.5185
1.51866
1.5186472
1.5184906
1.5183875
1.5184991
1.5183972
1.518514
1.5184974
1.5186576
1.5184905
1.5186446
1.5182413
1.5183656
1.5183498
1.518233
1.5182077
1.518329
1.5183024
1.5181869
1.5184559
1.5183285
1.5184726
1.5183202
1.5184099
1.5182939
1.5184354
1.5182761
1.5182985
1.5181861
1.5183115
1.5181809
1.5182755
1.5184233
1.5184087
1.5182696
1.5182981
1.5181937
1.5183181
1.5181801
1.5182823
1.5184266
1.5182714
1.5184072
1.5184428
1.5185593
1.5185434
1.518433
1.5184078
1.5185225
1.5183908
1.5185016
1.5186971
1.518684
1.5185421
1.518531
1.5184936
1.5185065
1.5186638
1.5186445
1.5205404
1.5206312
1.520617
1.5205347
1.5205968
1.5205817
1.5205018
1.5205047
1.5204596
1.5204207
1.5196805
1.5196484
1.5196566
1.5196328
1.5197938
1.5198636
1.5198567
1.5197711
1.5197811
1.5198535
1.5198478
1.5197593
1.5196191
1.5196278
1.5196471
1.519635
1.5196486
1.5195605
1.5195877
1.5195085
1.5196372
1.5195835
1.5195926
1.5195511
1.5195392
1.5195422
1.5195829
1.5195782
1.519496
1.5194942
1.5195646
1.5195586
1.5195637
1.519482
1.5194582
1.5195321
1.5195759
1.519533
1.5195139
1.5195466
1.5194953
1.5194832
1.5195256
1.5195312
1.519515
1.5194356
1.5194481
1.5195136
1.5196396
1.5196128
1.5196025
1.5196159
1.5197555
1.5198201
1.5198221
1.5197402
1.5198066
1.5198139
1.519726
1.519724
1.5195904
1.5195726
1.5195841
1.5195955
1.5205064
1.5204282
1.5203725
1.5204263
1.5205432
1.5205324
1.5204572
1.5204582
1.5203828
1.5203276
1.5197653
1.5197854
1.5196682
1.5197137
1.5197682
1.5197646
1.5196783
1.5196754
1.5195292
1.5195285
1.5195473
1.5195386
1.5195707
1.5195833
1.5195308
1.5195227
1.5194333
1.5194417
1.5194861
1.5194693
1.5193799
1.5193973
1.5194672
1.5194451
1.5194941
1.5194177
1.5193809
1.5194481
1.5195089
1.5194749
1.5194274
1.5194636
1.5193957
1.519401
1.5194409
1.5194305
1.5194167
1.5194477
1.5194901
1.5194497
1.5194733
1.5194021
1.5193623
1.5194325
1.5193561
1.5193585
1.5194294
1.5194202
1.5196815
1.5197259
1.519637
1.5196026
1.5197575
1.5197684
1.5196869
1.5196626
1.5195412
1.5195542
1.519522
1.5195168
1.5194733
1.5194906
1.519504
1.5194872
1.5147524
1.514912
1.5177575
1.5177583
1.5177386
1.5177414
1.5177664
1.5177722
1.5177862
1.5177903
1.517925
1.5179581
1.5179854
1.5179544
1.5177714
1.5177559
1.5176744
1.5176886
1.5177356
1.5177332
1.5176519
1.5176531
1.5175819
1.517615
1.5175564
1.5175956
1.5176938
1.517704
1.517716
1.5177235
1.5179266
1.5178191
1.5177872
1.5178947
1.5177072
1.5176889
1.5176018
1.5176206
1.5174601
1.5175663
1.5176202
1.5175288
1.5175282
1.5175725
1.5175494
1.5175001
1.5174728
1.5175276
1.517448
1.5175082
1.5176608
1.5176709
1.5176485
1.5176833
1.5176062
1.5176269
1.5176414
1.5176243
1.5180317
1.5180055
1.5179855
1.5180121
1.5179734
1.5178634
1.5178459
1.517954
1.5177001
1.5177176
1.5176972
1.5177214
1.5176596
1.5176779
1.5176817
1.5176655
1.5177314
1.5177456
1.5177252
1.5177526
1.5176877
1.5177059
1.517713
1.5176968
1.5177069
1.5176957
1.5176979
1.5177102
1.5177529
1.5177404
1.5177282
1.5177411
1.5176802
1.5176861
1.5176785
1.5176883
1.5177306
1.5177221
1.5177176
1.517709
1.5176922
1.5177038
1.5176919
1.5177044
1.5176814
1.5176731
1.5176745
1.5176826
1.5176973
1.5177109
1.5176985
1.5177104
1.5176875
1.5176787
1.5176867
1.5176783
1.517664
1.5176663
1.5176612
1.5176686
1.5176545
1.5176571
1.5176608
1.5176589
1.5176713
1.5176661
1.5176716
1.5176662
1.5176592
1.5176619
1.517662
1.5176595
1.5178092
1.5178081
1.5177921
1.5177929
1.5178276
1.5178364
1.517847
1.517853
1.5179618
1.5179921
1.51803
1.5180027
1.5178395
1.5178225
1.5177467
1.5177622
1.517785
1.517786
1.5177121
1.5177091
1.5178088
1.5178077
1.5177913
1.5177916
1.5178001
1.5177992
1.5178188
1.5178169
1.5179641
1.5179956
1.5180051
1.5179755
1.5177965
1.5177944
1.5177173
1.517717
1.5177885
1.5177886
1.5177126
1.5177106
1.517773
1.5177749
1.5177547
1.517757
1.5177399
1.5177212
1.5177249
1.5177374
1.5178082
1.5178187
1.5178008
1.5177894
1.5177715
1.5177836
1.5177557
1.5177682
1.5177527
1.5177719
1.5177529
1.5177728
1.5177349
1.5177191
1.5177189
1.5177353
1.5177597
1.5177805
1.5177612
1.5177801
1.5177428
1.5177267
1.5177417
1.5177259
1.5180221
1.5180425
1.5180503
1.5180309
1.5180706
1.5180364
1.5180174
1.5180537
1.5176376
1.5176446
1.5176316
1.517651
1.5176202
1.517611
1.5176182
1.5176271
1.5176821
1.5176696
1.5176727
1.5176598
1.5176485
1.5176394
1.5176586
1.5176499
1.517474
1.5174247
1.5174037
1.5174908
1.517384
1.517461