/*--------------------------------*- C++ -*----------------------------------*\
  =========                 |
  \\      /  F ield         | OpenFOAM: The Open Source CFD Toolbox
   \\    /   O peration     | Website:  https://openfoam.org
    \\  /    A nd           | Version:  7
     \\/     M anipulation  |
\*---------------------------------------------------------------------------*/
FoamFile
{
    version     2.0;
    format      ascii;
    class       volScalarField;
    location    "1000";
    object      nut;
}
// * * * * * * * * * * * * * * * * * * * * * * * * * * * * * * * * * * * * * //

dimensions      [0 2 -1 0 0 0 0];

internalField   nonuniform List<scalar> 
34251
(
3.6959619e-46
1.1003009e-45
1.0972019e-46
1.9210912e-47
1.0568336e-46
2.1941224e-47
3.3612348e-48
6.5869532e-48
7.1039846e-48
1.4495475e-47
4.1945007e-46
1.484998e-47
4.2145788e-46
5.3643911e-47
6.0462119e-47
3.5495833e-47
2.5854342e-47
5.2790328e-47
5.4682778e-47
2.3945485e-47
2.499448e-47
6.046856e-48
3.7735321e-48
3.9032645e-48
5.1868206e-48
3.4295618e-48
4.2294885e-48
3.3228911e-48
4.2337803e-48
1.9099372e-48
1.8483009e-48
2.0290819e-48
1.9950932e-48
8.3333665e-48
9.0918175e-48
8.9673135e-48
8.1719777e-48
2.4994534e-47
1.4714544e-47
4.1557421e-47
7.0007517e-48
5.0599301e-48
3.3862765e-47
2.6109171e-47
2.6415208e-47
2.0715591e-46
2.0554126e-46
6.2978937e-48
6.2688849e-48
3.8117247e-47
4.6408211e-47
2.5849447e-47
2.6557098e-47
1.9319543e-46
2.1002047e-46
1.8293596e-47
2.4749912e-47
1.9275223e-47
2.5431577e-47
1.8127878e-47
2.5360146e-47
1.8623034e-47
1.3812614e-47
2.4513135e-47
1.6461725e-47
2.5779653e-47
2.4302563e-47
1.6994644e-47
1.5707156e-47
6.9665178e-48
6.8186381e-48
6.7497442e-48
7.2144098e-48
3.3187653e-48
3.5210771e-48
3.974458e-48
4.399745e-48
2.0551591e-48
4.8864219e-48
3.5525882e-48
3.3833369e-48
4.2509835e-48
1.9575622e-48
6.8592835e-48
6.627068e-48
6.6663176e-48
6.3788638e-48
2.1643072e-48
2.1736703e-48
2.9073306e-48
2.8652512e-48
3.054996e-48
2.0301268e-48
3.1341612e-48
3.92538e-48
3.7406627e-48
3.3997112e-48
2.8562593e-48
2.7718411e-48
3.0836758e-48
3.009665e-48
1.9607478e-48
3.9445673e-48
3.6642731e-48
3.4311489e-48
3.6454717e-48
2.0444175e-48
2.1599044e-48
2.1160833e-48
1.9620519e-48
3.2530116e-48
3.8116907e-48
4.8260543e-48
1.3767311e-48
1.6888129e-48
1.2232912e-48
1.1898841e-48
1.7020579e-48
1.3287836e-48
1.7095491e-48
1.2541808e-48
6.3605647e-48
5.2666719e-48
8.6659654e-48
8.5503544e-48
8.3316214e-48
7.8592902e-48
8.1704605e-48
7.8256195e-48
5.164389e-48
4.6547851e-48
9.7359344e-48
6.7034998e-48
5.5257528e-48
9.4227316e-48
1.4724356e-47
1.5950449e-47
2.4512556e-47
2.2415617e-47
1.5266911e-47
1.4887022e-47
2.3078188e-47
2.3048897e-47
2.1092989e-47
9.19775e-47
8.7714245e-47
2.046476e-47
2.2104541e-47
2.1615392e-47
9.1798685e-47
5.4732906e-48
7.2874482e-48
1.0549486e-47
9.6241238e-48
1.6508654e-47
1.6324532e-47
2.2965465e-47
2.2669321e-47
2.4618475e-47
1.6650737e-47
1.5214525e-47
2.2324458e-47
2.0572526e-47
2.1497891e-47
9.4590648e-47
2.1759445e-47
2.2142789e-47
9.3801489e-47
8.9121169e-47
9.9010739e-48
1.0313248e-47
1.0202251e-47
9.5926537e-48
1.0123034e-47
1.0528757e-47
1.0347202e-47
1.1319195e-47
1.103486e-47
1.0767123e-47
1.0441278e-47
1.0673304e-47
1.0865754e-47
1.0420152e-47
1.0097787e-47
9.8065473e-48
1.0227779e-47
1.0200826e-47
9.8472901e-48
9.6943176e-48
1.0405205e-47
9.8870077e-48
1.0084128e-47
9.8151827e-48
4.4987329e-48
7.3283074e-48
6.1651218e-48
6.834739e-48
6.329562e-48
5.7637003e-48
5.9252805e-48
5.1792932e-48
5.2831823e-48
5.0323242e-48
4.9041855e-48
4.9692253e-48
4.9678097e-48
2.7231571e-48
2.6778695e-48
2.9281357e-48
2.9598448e-48
2.0493161e-48
2.8609739e-48
2.9055893e-48
3.1080136e-48
2.1787361e-48
3.7079521e-48
3.5496056e-48
3.365285e-48
3.439637e-48
4.0269168e-48
3.7545369e-48
2.2768451e-48
2.1734185e-48
3.7903811e-48
3.9800078e-48
3.9911554e-48
3.5819876e-48
2.9195255e-48
3.1432297e-48
3.1810546e-48
2.8419443e-48
2.1237254e-48
2.6936648e-48
2.8264796e-48
3.0858785e-48
2.0359232e-48
3.0138031e-48
3.7247798e-48
3.4804915e-48
3.7173334e-48
3.5687787e-48
2.0969236e-48
2.1458391e-48
7.4181568e-48
6.9633837e-48
6.6813275e-48
6.7183739e-48
6.8156478e-48
6.8702712e-48
6.8613302e-48
6.1727612e-48
5.2546615e-48
5.0980894e-48
4.9706609e-48
4.9361551e-48
5.0448105e-48
5.0563733e-48
5.134167e-48
4.8837365e-48
1.4412667e-48
1.6704283e-48
1.2826412e-48
1.2400479e-48
1.7634242e-48
1.3820593e-48
1.8501361e-48
1.2950282e-48
1.2687907e-48
1.7338511e-48
6.9026122e-48
5.6187395e-48
2.136192e-48
2.2222037e-48
2.1794693e-48
2.6025071e-48
2.5577915e-48
1.9147597e-48
2.1342392e-48
2.1579534e-48
2.5065608e-48
2.2627742e-48
2.646694e-48
2.5169491e-48
3.0190261e-48
2.8157346e-48
2.4136378e-48
2.2666855e-48
2.9305525e-48
2.7949504e-48
3.0918745e-48
2.8821497e-48
3.9954878e-48
4.0326718e-48
3.7394034e-48
3.7591574e-48
3.8375142e-48
3.5521065e-48
3.9146411e-48
3.6077341e-48
4.1896035e-48
3.3897387e-48
4.3297999e-48
3.4915964e-48
2.1366976e-48
2.2182162e-48
1.9905461e-48
2.569053e-48
2.5405812e-48
2.0251453e-48
2.0913147e-48
1.9225058e-48
2.4164581e-48
2.4297917e-48
2.9235576e-48
2.8008138e-48
3.0558085e-48
2.8511608e-48
2.8288009e-48
2.712783e-48
2.9709421e-48
2.7976489e-48
2.0134233e-48
2.2007593e-48
3.9532946e-48
3.6768989e-48
4.0526399e-48
3.7499349e-48
3.5119415e-48
3.2552782e-48
3.8909498e-48
3.5474839e-48
3.9317374e-48
3.2378015e-48
4.3623141e-48
3.5225057e-48
4.3507895e-48
3.5433378e-48
4.4945725e-48
3.629848e-48
1.7151055e-48
1.9163036e-48
2.0515956e-48
1.9386657e-48
1.7059526e-48
1.7622987e-48
1.6981222e-48
1.9100332e-48
1.8833652e-48
2.047483e-48
2.447015e-48
2.1749072e-48
2.3733327e-48
2.4844433e-48
2.242338e-48
2.3526704e-48
1.6682367e-48
2.4142369e-48
2.8400885e-48
2.3955359e-48
2.4811513e-48
2.9144113e-48
2.8829572e-48
3.2989299e-48
3.1396534e-48
3.4585178e-48
4.3044672e-48
3.8666138e-48
3.3686619e-48
4.1999057e-48
5.9144456e-49
6.0266673e-49
1.0579819e-48
9.8952175e-49
1.1439628e-48
1.0409292e-48
6.8761858e-49
7.0383103e-49
9.8882034e-49
9.6796451e-49
1.0249109e-48
9.1956238e-49
9.6262603e-49
9.965893e-49
1.0466788e-48
8.97236e-49
1.0111476e-48
1.0876462e-48
6.8829405e-49
6.9978254e-49
1.1480012e-48
6.1284183e-49
1.0406641e-48
1.2075592e-48
1.1903927e-48
7.1452967e-49
7.4354386e-49
1.2044609e-48
1.2069709e-48
1.0767637e-48
1.0259473e-48
1.0166178e-48
8.7174349e-49
1.0107282e-48
9.727755e-49
5.4209553e-48
5.3807296e-48
5.7424466e-48
5.7444024e-48
5.8425972e-48
5.7041579e-48
5.7791198e-48
5.6374747e-48
5.6003084e-48
5.2581707e-48
5.675015e-48
5.4999034e-48
6.7030538e-48
6.4631419e-48
2.3998349e-47
1.7309333e-47
1.6887393e-47
8.1717103e-48
5.8595495e-48
2.4899701e-47
1.8630013e-47
1.7113795e-47
8.7478236e-48
8.6649679e-48
8.4400089e-48
8.6752329e-48
1.1707474e-47
1.1179952e-47
8.114062e-48
8.2773455e-48
7.2725325e-48
7.1565807e-48
2.4036431e-47
2.3432619e-47
6.8749944e-48
7.4354215e-48
2.2509165e-47
2.4177834e-47
7.7952208e-48
1.1474426e-47
1.1136576e-47
8.2210921e-48
1.1413125e-47
1.1780807e-47
7.7829387e-48
8.3572819e-48
1.1575924e-47
1.1207282e-47
8.1951146e-48
6.9547332e-48
7.3106682e-48
2.3218037e-47
2.2171924e-47
6.2607569e-48
6.7528766e-48
2.495345e-47
1.8670176e-47
1.6958742e-47
2.291948e-47
1.6499174e-47
1.8894335e-47
8.7854862e-48
8.8374221e-48
8.8717669e-48
8.6965404e-48
1.1504597e-47
1.1319688e-47
8.392909e-48
8.3584776e-48
8.5183625e-48
1.1227256e-47
1.1823325e-47
7.6115909e-48
7.6356042e-48
2.468437e-47
2.4233466e-47
8.3020566e-48
8.3239634e-48
1.1132297e-47
1.169098e-47
7.9962906e-48
8.4440482e-48
1.1766085e-47
1.1639101e-47
7.1179564e-48
7.626953e-48
2.2696205e-47
2.4251668e-47
7.4588296e-48
7.3111495e-48
2.4507919e-47
2.3461844e-47
4.4447988e-48
1.108828e-47
1.1193651e-47
3.0324713e-48
3.6217749e-48
1.2539141e-47
1.2284096e-47
3.4719122e-48
3.4719109e-48
1.2436741e-47
1.1584029e-47
3.1775557e-48
3.7343479e-48
1.2379887e-47
1.3725019e-47
3.628077e-48
3.4955695e-48
1.1820229e-47
1.2293835e-47
3.2233115e-48
3.5601306e-48
1.2625789e-47
1.3502451e-47
3.4920694e-48
3.4683333e-48
1.2289171e-47
1.1976759e-47
3.2382288e-48
3.5633086e-48
1.2326181e-47
1.3327563e-47
3.479968e-48
3.4309581e-48
1.1604728e-47
1.1354259e-47
3.050733e-48
3.5413568e-48
1.2306991e-47
1.2806963e-47
3.2731306e-48
3.2400031e-48
1.1816614e-47
1.1755195e-47
3.1198335e-48
3.4720553e-48
1.1832634e-47
1.2483323e-47
3.3994909e-48
3.3283053e-48
4.5699377e-48
4.2413982e-48
3.8561338e-48
4.325366e-48
3.745307e-48
4.2752021e-48
3.2061473e-48
4.4589127e-48
3.1346804e-48
4.0836547e-48
4.1050837e-48
3.8528373e-48
3.6556777e-48
4.1004558e-48
4.0749679e-48
3.8077206e-48
3.6019382e-48
4.2155824e-48
3.1708578e-48
4.3801582e-48
3.1016368e-48
4.3024116e-48
4.4833938e-48
3.2723064e-48
3.1799234e-48
4.2215001e-48
4.3384193e-48
3.2227424e-48
3.2295502e-48
4.5492417e-48
4.5189506e-48
3.9489797e-48
3.9084145e-48
4.2333663e-48
4.212303e-48
3.7348382e-48
3.6947149e-48
4.1822602e-48
4.1356117e-48
3.6617404e-48
3.5712528e-48
3.9947355e-48
4.0429566e-48
3.1557073e-48
3.1100496e-48
3.9225349e-48
4.0195445e-48
3.0767686e-48
3.0563147e-48
2.077618e-48
2.1569791e-48
1.9425469e-48
2.4611047e-48
2.3605418e-48
2.0144484e-48
1.989159e-48
1.8745223e-48
2.3171425e-48
2.3072733e-48
2.8249151e-48
2.7083705e-48
2.8355454e-48
2.709846e-48
2.852732e-48
2.7274857e-48
2.9755894e-48
2.7824683e-48
1.9695145e-48
2.1385197e-48
2.0941749e-48
2.200392e-48
2.2315176e-48
2.407363e-48
2.2704022e-48
2.2373688e-48
2.190112e-48
2.6341586e-48
2.6364575e-48
3.1101341e-48
3.1193987e-48
2.9742524e-48
2.9494187e-48
2.3664533e-48
2.2742147e-48
3.8367598e-48
3.8965552e-48
3.6181757e-48
3.6360891e-48
3.7585357e-48
3.5108927e-48
3.7384287e-48
3.4591839e-48
4.2211197e-48
3.4833825e-48
4.2350712e-48
3.4542408e-48
4.2334864e-48
3.4747704e-48
4.3115755e-48
3.488739e-48
4.1266183e-48
3.8390933e-48
4.5841164e-48
3.7437482e-48
3.6849028e-48
2.0380005e-48
1.6610215e-48
1.6244807e-48
1.696961e-48
1.8861498e-48
1.8663878e-48
1.6981847e-48
2.0752617e-48
1.9192316e-48
1.2820842e-48
1.8802723e-48
4.5420181e-48
3.6393199e-48
4.7064711e-48
3.7468743e-48
3.8051866e-48
3.9852339e-48
3.532597e-48
3.6743302e-48
4.0864306e-48
3.7773269e-48
4.1963497e-48
3.847919e-48
4.142617e-48
4.3641085e-48
3.3998573e-48
3.5086117e-48
2.2221138e-48
2.315551e-48
2.2278076e-48
2.6841543e-48
2.6519956e-48
2.8697517e-48
2.6828861e-48
3.1020363e-48
2.828216e-48
3.0683645e-48
2.924424e-48
3.2478141e-48
3.0357195e-48
2.0655805e-48
2.2057267e-48
2.1364099e-48
2.3651332e-48
2.5518269e-48
2.2152742e-48
2.3833096e-48
2.0328957e-48
2.0389041e-48
1.9083941e-48
2.338024e-48
2.36725e-48
2.0653834e-48
2.2036569e-48
2.0468599e-48
2.5462056e-48
2.4684054e-48
2.8827873e-48
2.7778246e-48
3.1368945e-48
2.9543434e-48
2.1877369e-48
2.2914626e-48
2.8282789e-48
2.7290518e-48
2.8516752e-48
2.6842307e-48
3.8266616e-48
3.5997665e-48
3.7245713e-48
3.479075e-48
4.2335033e-48
3.4777581e-48
4.1305087e-48
3.3489408e-48
3.8561476e-48
3.6140909e-48
4.0731342e-48
3.7625374e-48
4.3364204e-48
3.5874411e-48
4.6027259e-48
3.7354256e-48
1.7999372e-48
1.8604018e-48
2.0870045e-48
1.9483493e-48
1.7568137e-48
1.998781e-48
2.0885252e-48
1.7434576e-48
4.12094e-48
4.2368371e-48
3.8888912e-48
3.7689134e-48
4.1322074e-48
3.7368825e-48
4.2407385e-48
3.6760563e-48
4.3465644e-48
3.2794838e-48
4.5621291e-48
3.2455173e-48
4.3581835e-48
3.3636921e-48
4.7019609e-48
3.391283e-48
4.3079772e-48
3.196243e-48
4.6296922e-48
3.2478221e-48
3.9410924e-48
3.7932841e-48
3.7521759e-48
3.4391527e-48
4.0685081e-48
3.712868e-48
4.2013176e-48
3.6698076e-48
4.1970186e-48
4.1893033e-48
4.0793564e-48
3.1881817e-48
4.2999568e-48
3.2698314e-48
4.2306893e-48
4.4185825e-48
3.7095686e-48
3.7892425e-48
4.1724852e-48
4.0293975e-48
3.6818471e-48
3.5033727e-48
3.8909874e-48
3.811707e-48
3.0404349e-48
2.9105884e-48
4.1714644e-48
3.2019824e-48
4.3436451e-48
3.2538135e-48
4.2258735e-48
4.3916427e-48
3.7090719e-48
3.772659e-48
4.3528243e-48
3.7484596e-48
4.4665543e-48
3.7893594e-48
3.9746844e-48
4.1537512e-48
3.1245262e-48
3.1545144e-48
6.0895111e-49
5.9620865e-49
1.0596448e-48
9.6017488e-49
8.3015034e-49
1.1719537e-48
1.088069e-48
7.0352336e-49
1.0948489e-48
1.1194482e-48
1.0184658e-48
9.5936175e-49
9.4662903e-49
1.02539e-48
1.0600076e-48
9.3960357e-49
7.8236653e-49
1.2410517e-48
1.0429608e-48
7.1073263e-49
5.8357845e-49
5.9887536e-49
1.1216547e-48
1.0578016e-48
1.1791393e-48
1.0460428e-48
7.2153787e-49
7.136853e-49
9.8695363e-49
9.9620185e-49
1.0230882e-48
1.0619513e-48
1.1361774e-48
1.0777967e-48
9.5977344e-49
9.9150779e-49
1.0397544e-48
1.0567463e-48
7.3453146e-49
7.4277544e-49
1.0633622e-48
1.0072327e-48
9.6974753e-48
9.6305234e-48
6.4370152e-48
6.5426101e-48
6.6952519e-48
6.8028139e-48
1.0256727e-47
1.0207968e-47
1.7033103e-48
1.8846299e-48
1.9786327e-48
1.7086959e-48
5.0192847e-48
5.0763617e-48
8.6614595e-48
8.8156261e-48
5.5629863e-48
5.8343061e-48
6.5648903e-48
6.758939e-48
1.0143655e-47
1.0376764e-47
1.9282522e-48
1.7508694e-48
1.5196723e-48
1.6759213e-48
5.1125759e-48
4.4414511e-48
4.7943311e-48
4.9453274e-48
4.0352869e-48
3.8829656e-48
4.0157396e-48
4.2113075e-48
3.0350451e-48
3.1844938e-48
4.6820053e-48
5.5634621e-48
4.5272217e-48
5.6649366e-48
3.4706964e-48
4.6064279e-48
4.8041103e-48
3.5842582e-48
1.744342e-48
1.8075832e-48
1.6954755e-48
1.7199361e-48
1.7718806e-48
1.6073707e-48
1.5433883e-48
1.6845466e-48
4.6594668e-48
5.606966e-48
4.5512769e-48
5.7004779e-48
3.5558677e-48
4.7039983e-48
4.8319801e-48
3.6262454e-48
4.7828668e-48
5.6679276e-48
4.70157e-48
5.6870086e-48
3.6658294e-48
4.8063987e-48
4.9266018e-48
3.723116e-48
3.9324795e-48
3.3255647e-48
3.4592753e-48
4.0146088e-48
4.067175e-48
3.9863135e-48
3.4342397e-48
3.5068644e-48
2.6325662e-48
3.2522016e-48
2.5577816e-48
3.4117568e-48
3.4094505e-48
2.6658808e-48
3.3207348e-48
2.6053494e-48
3.3256293e-48
3.7411641e-48
3.1866276e-48
3.8505056e-48
3.1244877e-48
2.4507988e-48
2.5151468e-48
3.2905088e-48
3.4611802e-48
3.8658636e-48
3.3012426e-48
3.9914366e-48
3.2133302e-48
2.5294791e-48
3.377537e-48
2.5911146e-48
2.4569936e-48
2.7324377e-48
2.4202192e-48
2.8068201e-48
2.0057696e-48
2.4694638e-48
2.5417424e-48
2.0431143e-48
2.9150243e-48
2.591178e-48
2.841656e-48
2.5298073e-48
2.0640584e-48
2.5408533e-48
2.6258925e-48
2.1209469e-48
9.7747663e-48
9.9725732e-48
6.4957788e-48
6.704721e-48
6.6240145e-48
6.771847e-48
1.003396e-47
1.0270012e-47
1.6821919e-48
1.8619406e-48
1.942326e-48
1.6774548e-48
5.0094039e-48
5.1616622e-48
9.2884089e-48
9.2838099e-48
6.0958196e-48
6.2526675e-48
6.4498001e-48
6.6167554e-48
9.8172693e-48
1.0007486e-47
1.5925212e-48
1.8202914e-48
1.8363504e-48
1.6060204e-48
4.9230061e-48
4.7340908e-48
5.6813012e-48
5.7928593e-48
4.610801e-48
4.7243976e-48
4.9065227e-48
3.5953496e-48
3.7045514e-48
4.7518057e-48
5.6156541e-48
5.6572061e-48
4.7396712e-48
4.6623135e-48
4.7438476e-48
4.8604176e-48
3.6161855e-48
3.6945926e-48
4.4538578e-48
5.3271113e-48
4.330517e-48
5.4256209e-48
4.4833691e-48
3.4101845e-48
3.524189e-48
4.6373142e-48
4.6484281e-48
5.4664718e-48
4.5114187e-48
5.5425618e-48
4.5939251e-48
3.4875243e-48
4.7709387e-48
3.6006629e-48
1.6453719e-48
1.7202578e-48
1.6683416e-48
1.597131e-48
1.7432017e-48
1.8170596e-48
1.7000079e-48
1.7236829e-48
3.3267121e-48
3.8622232e-48
3.2703443e-48
3.9291875e-48
3.2603539e-48
2.5489083e-48
2.6122565e-48
3.3443933e-48
4.0984185e-48
3.5085668e-48
4.0448351e-48
3.4550604e-48
3.3865786e-48
2.6545453e-48
3.4648644e-48
2.7100966e-48
2.9173927e-48
3.3181163e-48
2.8091372e-48
3.4632446e-48
2.7957118e-48
2.9401344e-48
2.1787416e-48
2.2762637e-48
3.3538916e-48
3.833341e-48
3.2310034e-48
3.9596145e-48
2.4712568e-48
3.1708572e-48
3.3234868e-48
2.5595036e-48
2.2062867e-48
2.4148951e-48
2.1313972e-48
2.5143628e-48
2.1842838e-48
2.3020048e-48
1.7792116e-48
1.8585881e-48
2.8606963e-48
2.5264508e-48
2.7631306e-48
2.436696e-48
1.9896962e-48
2.4545471e-48
2.5753555e-48
2.068713e-48
2.521607e-48
2.8171344e-48
2.4892391e-48
2.8742672e-48
2.0648029e-48
2.5400459e-48
2.6200783e-48
2.1072604e-48
3.0111047e-48
2.6880049e-48
2.960333e-48
2.6425769e-48
2.1682642e-48
2.6635442e-48
2.7377479e-48
2.2147396e-48
1.2324215e-48
1.4224516e-48
1.332209e-48
1.3917388e-48
1.4455979e-48
1.3180911e-48
1.295862e-48
1.4623228e-48
1.5686684e-48
1.3849688e-48
1.2424177e-48
1.3800126e-48
1.3844624e-48
1.5017644e-48
1.5615167e-48
1.3573451e-48
1.3307437e-48
1.4699478e-48
1.4043649e-48
1.4315754e-48
1.3107018e-48
1.3029359e-48
1.3269916e-48
1.2673813e-48
1.2376952e-48
1.3690092e-48
1.4185726e-48
1.255717e-48
1.376155e-48
1.5219954e-48
1.5530997e-48
1.3439061e-48
1.3785373e-48
1.372421e-48
1.4637022e-48
1.394673e-48
1.516568e-48
1.4006337e-48
1.4818108e-48
1.4931196e-48
1.5359911e-48
1.6996285e-48
1.6281259e-48
1.5041885e-48
1.5449939e-48
1.6807535e-48
1.4653832e-48
1.4112528e-48
1.9613276e-48
2.1759498e-48
2.109548e-48
1.9052135e-48
1.8513432e-48
1.8822089e-48
1.8510074e-48
1.8245868e-48
1.9108451e-48
2.1651578e-48
2.0507912e-48
1.8365289e-48
1.838542e-48
1.8465497e-48
1.7383581e-48
1.756543e-48
1.2816155e-48
1.2087459e-48
1.2626891e-48
1.3019418e-48
1.0548715e-47
1.0527774e-47
7.0002874e-48
7.1593145e-48
5.3067257e-48
1.0165415e-47
1.0125023e-47
6.7574593e-48
6.9182536e-48
7.1863792e-48
7.3114282e-48
1.1134973e-47
1.1133386e-47
5.3588192e-48
5.1124714e-48
4.9866352e-48
5.893451e-48
4.8413245e-48
6.0062312e-48
5.0205167e-48
5.2122938e-48
3.8300013e-48
3.9561135e-48
5.1597261e-48
6.067905e-48
5.0259052e-48
6.1229713e-48
2.0137743e-48
2.1898334e-48
1.9759622e-48
2.2288236e-48
1.7691844e-48
1.884773e-48
1.7031631e-48
1.9707149e-48
1.7040192e-48
1.8116221e-48
1.3863419e-48
1.4597072e-48
1.9982044e-48
2.1342955e-48
1.9308569e-48
2.2189648e-48
2.5505568e-49
2.5229149e-49
3.7836212e-49
3.8750048e-49
2.5943774e-49
2.5745592e-49
3.7007587e-49
3.8718797e-49
5.9319929e-49
5.8273437e-49
5.7452533e-49
7.2884446e-49
9.2496348e-49
8.3902924e-49
6.9410431e-49
7.0664438e-49
9.3077953e-49
8.881554e-49
5.3579861e-49
5.4246103e-49
5.4882574e-49
5.3020848e-49
5.5762487e-49
5.8838615e-49
5.8705928e-49
5.5714143e-49
1.1305369e-48
1.3142142e-48
1.2006186e-48
1.082865e-48
1.0924299e-48
9.811623e-49
9.4416608e-49
1.0291629e-48
8.5798283e-49
9.2017641e-49
1.0105383e-48
9.3663132e-49
1.0345441e-48
1.1243769e-48
1.0524712e-48
9.6084749e-49
9.9559793e-49
1.2045804e-48
1.1321653e-48
9.9348256e-49
1.1625915e-48
9.7628127e-49
8.994427e-49
9.8567717e-49
9.140162e-49
9.9040702e-49
1.0822486e-48
1.0200618e-48
1.0592851e-48
1.1168125e-48
1.0927153e-48
9.9663643e-49
5.211034e-49
7.1478385e-49
8.5052019e-49
7.6318772e-49
6.42791e-49
6.9742997e-49
9.1750293e-49
8.6611184e-49
5.3841991e-49
5.5221022e-49
5.5822826e-49
5.4137527e-49
5.1953409e-49
5.6634594e-49
5.610508e-49
5.2620064e-49
5.6595953e-49
3.9542754e-49
2.6600609e-49
2.6144234e-49
3.8846232e-49
6.0412029e-49
6.6189228e-49
8.1508626e-49
7.6411613e-49
7.5476383e-49
6.8279954e-49
8.1050481e-49
8.2747165e-49
5.9998811e-49
5.8890846e-49
5.880666e-49
5.8467501e-49
6.3305101e-49
6.3785726e-49
6.3603358e-49
6.2075999e-49
9.4699141e-49
9.5151557e-49
1.1062351e-48
1.0973706e-48
8.477085e-49
9.1102085e-49
9.5586177e-49
1.0586773e-48
1.1900553e-48
1.124249e-48
1.168996e-48
1.2193563e-48
1.1792481e-48
1.0814526e-48
1.0772765e-48
1.1168941e-48
1.042164e-48
8.8418002e-49
8.9886635e-49
1.0105803e-48
1.045286e-48
9.5428801e-49
8.6594868e-49
9.7323395e-49
5.6778406e-49
5.4827273e-49
9.1897377e-49
8.8554475e-49
3.0679836e-48
3.5472888e-48
3.5467103e-48
3.7076515e-48
3.4191499e-48
3.6754928e-48
3.8842114e-48
3.7948369e-48
3.4655747e-48
3.4799034e-48
3.7724486e-48
3.8575817e-48
3.4253968e-48
3.46919e-48
3.7241004e-48
3.7215724e-48
3.224023e-48
3.4757511e-48
3.475765e-48
3.5061854e-48
3.279125e-48
3.3858515e-48
3.6380017e-48
3.6531623e-48
5.0714819e-48
6.7174532e-48
6.074733e-48
5.2588873e-48
6.5876212e-48
5.3326613e-48
3.6866896e-48
6.1653229e-48
6.0680559e-48
1.3972513e-47
7.7468926e-48
7.7005318e-48
6.1021976e-48
6.3361228e-48
1.3082054e-47
7.8404526e-48
7.7289125e-48
1.303049e-47
1.169024e-47
1.1945297e-47
1.0791778e-47
1.1037199e-47
6.7733399e-48
7.0050382e-48
1.0901512e-47
1.1912076e-47
1.0942743e-47
6.7870558e-48
1.0440476e-47
1.0925213e-47
1.1213471e-47
1.0310663e-47
1.0449381e-47
6.7415309e-48
6.9786161e-48
1.0572508e-47
1.1561201e-47
1.065048e-47
1.0326117e-47
6.8367177e-48
6.7187086e-48
4.2492657e-48
9.2723468e-48
4.2994317e-48
9.2228285e-48
9.4874773e-48
9.1048644e-48
4.3064213e-48
4.3978036e-48
2.4563262e-48
2.5432194e-48
2.6589015e-48
2.6010327e-48
2.6425452e-48
2.6461349e-48
2.6077469e-48
2.647955e-48
2.8511193e-48
2.0627491e-48
2.1122999e-48
2.9932174e-48
2.9862086e-48
2.1405282e-48
2.0238387e-48
2.9171264e-48
2.5087772e-48
2.6401965e-48
2.3227624e-48
2.4693163e-48
2.5991299e-48
2.6780692e-48
2.7161251e-48
2.5669818e-48
2.7548198e-48
1.9983912e-48
2.074625e-48
2.9606259e-48
2.0573597e-48
2.1118253e-48
3.0149611e-48
2.9441437e-48
8.8563334e-48
8.9505193e-48
4.2000708e-48
4.1089119e-48
4.4692763e-48
9.5468057e-48
9.1913493e-48
4.3360323e-48
4.186024e-48
9.174865e-48
4.2586724e-48
9.239847e-48
9.7699474e-48
9.5075711e-48
4.4740839e-48
4.4216479e-48
4.3384724e-48
9.2825269e-48
9.3489727e-48
4.3551713e-48
2.4367914e-48
2.5052077e-48
2.6284109e-48
2.5908636e-48
2.7203318e-48
2.6740541e-48
2.6386604e-48
2.8231743e-48
2.127962e-48
2.943931e-48
2.9284495e-48
2.1080058e-48
2.780614e-48
2.0226693e-48
2.0809617e-48
2.9291086e-48
6.3164161e-48
6.5964916e-48
1.6374174e-47
7.8566343e-48
8.3935302e-48
6.1069054e-48
6.5335086e-48
1.5610909e-47
7.8577015e-48
7.8227141e-48
1.2175351e-47
1.2083751e-47
1.052374e-47
1.0066765e-47
7.2329154e-48
1.0774932e-47
1.1828399e-47
1.0399149e-47
1.010001e-47
7.0982132e-48
7.1524277e-48
1.2090655e-47
1.2205824e-47
1.084459e-47
1.0616771e-47
7.1806002e-48
7.004852e-48
1.0900916e-47
1.1614755e-47
1.0562905e-47
1.0190907e-47
6.806155e-48
6.9615616e-48
9.4583037e-48
9.0839427e-48
4.3369888e-48
4.3852134e-48
9.203293e-48
9.1700026e-48
4.2566313e-48
4.1501567e-48
9.5400913e-48
9.0875465e-48
4.273313e-48
4.3545426e-48
2.571369e-48
2.703534e-48
2.4520009e-48
2.5804113e-48
2.675431e-48
2.7127011e-48
2.6288459e-48
2.6236873e-48
2.8997665e-48
2.0885468e-48
2.1546908e-48
3.1167606e-48
2.0542208e-48
2.1417592e-48
3.0617636e-48
2.9991317e-48
9.2648955e-48
9.1817138e-48
4.2752725e-48
4.2009185e-48
9.4711272e-48
9.0827248e-48
4.3015885e-48
4.3636855e-48
9.1750106e-48
9.1327941e-48
4.2374575e-48
4.1236125e-48
9.6186012e-48
9.2723933e-48
4.3786793e-48
4.4449748e-48
2.5454658e-48
2.6914672e-48
2.4547951e-48
2.5982672e-48
2.7222443e-48
2.7764121e-48
2.7238734e-48
2.6968712e-48
2.8123967e-48
2.0364867e-48
2.1083093e-48
3.006639e-48
2.091545e-48
2.1405357e-48
3.0039394e-48
2.9846043e-48
2.5528109e-48
2.6624243e-48
2.4526433e-48
2.5313637e-48
2.6182325e-48
2.675901e-48
2.6103973e-48
2.6032981e-48
2.8568479e-48
2.0812325e-48
2.1325862e-48
3.0361301e-48
2.0120774e-48
2.1088521e-48
2.9710779e-48
2.8880684e-48
1.2410665e-48
4.5155874e-48
3.9358912e-48
3.7111815e-48
3.9886298e-48
4.0869239e-48
4.0447912e-48
3.7405651e-48
4.0259954e-48
4.1225498e-48
4.0785042e-48
3.9224093e-48
3.878155e-48
4.0346874e-48
4.2464346e-48
4.0241362e-48
3.9942753e-48
4.1495283e-48
4.0583375e-48
3.8856427e-48
3.9206442e-48
4.013901e-48
3.9845433e-48
3.8285565e-48
3.7133486e-48
3.8348626e-48
1.4245818e-48
1.4626796e-48
1.3942408e-48
1.5033872e-48
1.4220207e-48
1.2778202e-48
1.2894193e-48
1.5050009e-48
1.4838217e-48
1.5562669e-48
1.501897e-48
1.5757942e-48
1.4516398e-48
1.2954935e-48
1.5403697e-48
1.2949055e-48
1.5999466e-48
1.5995957e-48
1.6440742e-48
1.6598632e-48
1.5045581e-48
1.917134e-48
2.0782907e-48
1.4846301e-48
1.6817088e-48
1.6666445e-48
1.6512874e-48
1.7099461e-48
1.4942061e-48
1.9912232e-48
2.0677193e-48
1.4750603e-48
1.3779073e-48
1.3280186e-48
1.360453e-48
1.4213312e-48
1.4591009e-48
1.4363736e-48
1.3892154e-48
1.3878906e-48
1.3678827e-48
1.2370771e-48
1.2627157e-48
1.4879117e-48
1.426512e-48
1.3804072e-48
1.2405958e-48
1.2495617e-48
1.4182475e-48
1.3609105e-48
1.3855794e-48
1.4642134e-48
1.4213783e-48
1.3673091e-48
1.3873981e-48
1.4560961e-48
1.2784856e-48
1.4013348e-48
1.2550226e-48
1.5182704e-48
1.2393264e-48
1.3702559e-48
1.2295228e-48
1.4668725e-48
1.5489838e-48
1.5383247e-48
1.595451e-48
1.5973e-48
1.4532481e-48
1.845394e-48
2.0033439e-48
1.4367937e-48
1.6080458e-48
1.6328094e-48
1.5822154e-48
1.6667655e-48
1.4663961e-48
1.9428963e-48
2.033288e-48
1.4689886e-48
1.5564758e-48
1.6122061e-48
1.5640553e-48
1.6180923e-48
1.5605921e-48
1.6184149e-48
1.6124028e-48
1.5825916e-48
1.4891588e-48
1.4637085e-48
1.8795117e-48
2.0357173e-48
1.9676555e-48
1.89088e-48
1.4104757e-48
1.3967847e-48
1.7593226e-48
1.8784624e-48
1.7074725e-48
1.9320175e-48
1.9796708e-48
1.8319817e-48
1.8383758e-48
2.0064708e-48
1.6931574e-48
1.3806928e-48
1.7911983e-48
1.4238313e-48
1.4428268e-48
1.454643e-48
1.7634945e-48
1.8541256e-48
2.1599358e-48
2.3233186e-48
2.0862092e-48
2.3576237e-48
2.394832e-48
2.1973266e-48
2.2182829e-48
2.4173764e-48
2.0740358e-48
1.7026088e-48
2.1795186e-48
1.7491796e-48
1.7676787e-48
1.7726432e-48
2.1411484e-48
2.2022618e-48
2.219745e-48
2.2596648e-48
2.0621255e-48
2.0322731e-48
2.1330594e-48
1.9297007e-48
1.9843246e-48
2.1806145e-48
2.0164342e-48
1.9206333e-48
1.5771822e-48
1.6272687e-48
1.6301025e-48
1.9729748e-48
2.0450388e-48
1.664228e-48
2.1744909e-48
1.9640146e-48
2.0100781e-48
2.2031698e-48
2.1555029e-48
1.9649087e-48
2.0128706e-48
2.2014091e-48
1.9653836e-48
1.6055462e-48
1.642022e-48
2.0496292e-48
1.9260611e-48
1.5872733e-48
1.6120287e-48
2.0023838e-48
1.757032e-48
1.599223e-48
1.6401409e-48
1.8253519e-48
1.7653804e-48
1.6313226e-48
1.6558367e-48
1.8246565e-48
1.6219113e-48
1.3380369e-48
1.3769632e-48
1.7075749e-48
1.6087148e-48
1.3240495e-48
1.3420089e-48
1.6652834e-48
1.7214866e-48
1.5710609e-48
1.6079716e-48
1.7817022e-48
1.8447941e-48
1.8214334e-48
1.6722325e-48
1.6795884e-48
1.5777638e-48
1.3042857e-48
1.3486536e-48
1.6613422e-48
1.6763573e-48
1.6310168e-48
1.342598e-48
1.3630501e-48
9.7193445e-48
9.9448058e-48
6.3888834e-48
6.6172133e-48
6.2677323e-48
6.5068909e-48
9.3562861e-48
9.8091675e-48
1.8052124e-48
1.8440943e-48
1.5589791e-48
1.6184395e-48
4.8356195e-48
4.8150411e-48
9.2934957e-48
9.530703e-48
6.0729976e-48
6.3366295e-48
5.8951857e-48
6.0876665e-48
8.6489351e-48
8.8822033e-48
1.7542294e-48
1.5432269e-48
1.5827837e-48
1.7572625e-48
4.8050171e-48
4.7810667e-48
5.2587078e-48
5.3512857e-48
4.4151983e-48
4.3150517e-48
4.4470207e-48
3.3880439e-48
3.4974536e-48
4.5882805e-48
4.4513262e-48
5.2509054e-48
4.3017911e-48
5.3568209e-48
4.3621245e-48
3.3213182e-48
4.5578635e-48
3.4394299e-48
5.449447e-48
5.5597706e-48
4.4686252e-48
4.5783981e-48
4.7377413e-48
3.4807344e-48
3.592638e-48
4.5737456e-48
5.4399076e-48
5.4998437e-48
4.6222179e-48
4.5295956e-48
4.5870762e-48
4.7339095e-48
3.5035017e-48
3.5995678e-48
1.6003469e-48
1.5706212e-48
1.5146419e-48
1.5235004e-48
1.7098934e-48
1.6881505e-48
1.7322858e-48
1.6468248e-48
2.1026626e-48
6.2913418e-48
6.4688216e-48
9.5998375e-48
9.7700515e-48
1.8456179e-48
1.7189741e-48
1.6345458e-48
1.5166237e-48
5.1266478e-48
1.0663845e-47
1.0793469e-47
6.9995442e-48
7.1363658e-48
6.6351562e-48
6.7247454e-48
9.7742492e-48
9.7254382e-48
1.9491487e-48
1.7298688e-48
1.7644135e-48
1.9893905e-48
5.297857e-48
5.2610426e-48
5.9778484e-48
4.9129622e-48
4.9939699e-48
6.0289732e-48
5.8740858e-48
4.8392395e-48
4.9095236e-48
5.8659359e-48
5.0266079e-48
3.8296683e-48
3.9032817e-48
5.1430819e-48
5.0247334e-48
4.9212713e-48
3.7453053e-48
3.8121036e-48
1.7559559e-48
1.8546648e-48
1.7277851e-48
1.7444488e-48
1.6715986e-48
1.5596359e-48
1.498434e-48
1.5929114e-48
3.7398972e-48
3.1851544e-48
3.2705152e-48
3.8510615e-48
3.9503945e-48
3.8470332e-48
3.3181495e-48
3.3932526e-48
2.5879321e-48
3.1785904e-48
2.5013167e-48
3.2965433e-48
3.3340245e-48
2.6153189e-48
3.2300201e-48
2.5479105e-48
3.2138658e-48
3.6825502e-48
3.1395725e-48
3.7759217e-48
3.1424735e-48
2.4731252e-48
2.5351829e-48
3.2505292e-48
3.2498194e-48
3.6641672e-48
3.1405613e-48
3.8035903e-48
3.0803572e-48
2.4311515e-48
3.219076e-48
2.5053429e-48
2.4613967e-48
2.7366592e-48
2.4272516e-48
2.8037742e-48
2.0345989e-48
2.491288e-48
2.5750555e-48
2.0738114e-48
2.8051089e-48
2.4942545e-48
2.7201395e-48
2.4323518e-48
1.994346e-48
2.4402484e-48
2.5297497e-48
2.044055e-48
2.7388924e-48
2.4310604e-48
2.4805191e-48
2.8251195e-48
2.016151e-48
2.474616e-48
2.5755808e-48
2.0728993e-48
2.8331432e-48
2.9033721e-48
2.5446534e-48
2.5895851e-48
2.0736429e-48
2.6157705e-48
2.1210246e-48
2.5369803e-48
4.1789956e-48
4.1117673e-48
3.5369329e-48
3.5893924e-48
3.5407712e-48
2.7405312e-48
2.7743156e-48
3.4573383e-48
3.0538569e-48
3.0833387e-48
2.7477434e-48
2.7304695e-48
2.7243301e-48
2.2077549e-48
2.7981773e-48
2.253805e-48
2.227163e-48
2.7290035e-48
2.788389e-48
2.2537797e-48
1.6024436e-48
1.8136525e-48
1.9083234e-48
1.6267589e-48
1.2986644e-48
1.4240004e-48
1.365374e-48
1.3848846e-48
1.2659113e-48
1.2179878e-48
1.1740288e-48
1.2529053e-48
1.3832157e-48
1.3057347e-48
1.1757506e-48
1.2227094e-48
1.4737928e-48
1.3101496e-48
1.3266775e-48
1.5047972e-48
1.2954388e-48
1.2895634e-48
1.3575456e-48
1.3282806e-48
1.2643976e-48
1.3771947e-48
1.4368434e-48
1.3325764e-48
1.4711278e-48
1.3849439e-48
1.1998003e-48
1.3178212e-48
1.4445859e-48
1.6383521e-48
1.5881927e-48
1.3776203e-48
5.981408e-49
1.0456212e-48
1.1061315e-48
9.8266255e-49
8.9941532e-49
9.6057565e-49
9.6103184e-49
1.0341079e-48
7.6365202e-49
7.6776744e-49
2.7341422e-48
2.968082e-48
2.6314623e-48
3.097116e-48
2.6478491e-48
2.1410208e-48
2.2250295e-48
2.8285591e-48
3.1301151e-48
2.7946273e-48
3.1016229e-48
2.7481319e-48
2.7311964e-48
2.2053769e-48
2.8044006e-48
2.2424184e-48
3.7336425e-48
3.1701357e-48
3.2698702e-48
3.8128598e-48
4.0779352e-48
4.0026568e-48
3.4326743e-48
3.5037048e-48
2.5271964e-48
3.1213491e-48
2.4591995e-48
3.2639978e-48
3.4241139e-48
2.6788701e-48
3.3274285e-48
2.6185822e-48
3.6039198e-48
4.0135162e-48
3.428387e-48
4.1738394e-48
3.3785202e-48
2.6493651e-48
2.7541697e-48
3.6005059e-48
3.7284861e-48
4.2247514e-48
3.6055724e-48
4.3062959e-48
3.5092606e-48
2.7527607e-48
3.6401392e-48
2.7845359e-48
2.7416108e-48
2.4313875e-48
2.4871383e-48
2.8423703e-48
2.9563107e-48
2.6420466e-48
3.0200455e-48
2.6876726e-48
2.0325614e-48
2.0856606e-48
2.4943509e-48
2.5939759e-48
2.7275664e-48
2.6505716e-48
2.1568834e-48
2.2018657e-48
9.6745841e-48
9.7438719e-48