/*--------------------------------*- C++ -*----------------------------------*\
  =========                 |
  \\      /  F ield         | OpenFOAM: The Open Source CFD Toolbox
   \\    /   O peration     | Website:  https://openfoam.org
    \\  /    A nd           | Version:  7
     \\/     M anipulation  |
\*---------------------------------------------------------------------------*/
FoamFile
{
    version     2.0;
    format      ascii;
    class       volScalarField;
    location    "1000";
    object      p;
}
// * * * * * * * * * * * * * * * * * * * * * * * * * * * * * * * * * * * * * //

dimensions      [0 2 -2 0 0 0 0];

internalField   nonuniform List<scalar> 
34251
(
-7.9960559e+95
-8.0705237e+95
-7.7520735e+95
-7.6152421e+95
-7.7404752e+95
-7.6034604e+95
-6.7130576e+95
-7.3064854e+95
-7.2979162e+95
-7.8119529e+95
-7.8107493e+95
-7.8015794e+95
-7.8011827e+95
-7.6177825e+95
-7.6149147e+95
-7.5142745e+95
-7.5174948e+95
-7.6019253e+95
-7.6100888e+95
-7.5009075e+95
-7.5093476e+95
-7.0015448e+95
-6.7052044e+95
-6.711784e+95
-7.0083662e+95
-6.7073349e+95
-6.8439268e+95
-6.7063429e+95
-6.8433685e+95
-6.4389118e+95
-6.4355238e+95
-6.1445039e+95
-6.1420855e+95
-7.3292137e+95
-7.3248859e+95
-7.3143915e+95
-7.3201178e+95
-7.7603894e+95
-7.7726134e+95
-7.648108e+95
-7.6087768e+95
-7.6112523e+95
-7.6502996e+95
-7.6754666e+95
-7.672869e+95
-7.6627225e+95
-7.6654567e+95
-7.6046544e+95
-7.5972089e+95
-7.6373559e+95
-7.6446138e+95
-7.6624542e+95
-7.6697367e+95
-7.6514958e+95
-7.6588775e+95
-7.4706934e+95
-7.5401164e+95
-7.469311e+95
-7.5362311e+95
-7.4648377e+95
-7.5388502e+95
-7.4677232e+95
-7.4509982e+95
-7.5270185e+95
-7.4557232e+95
-7.5305543e+95
-7.5333835e+95
-7.459019e+95
-7.4620985e+95
-7.1421657e+95
-7.1466368e+95
-6.9708593e+95
-6.9753728e+95
-6.6998801e+95
-6.6961973e+95
-6.8360845e+95
-6.8315171e+95
-6.4324052e+95
-6.8404035e+95
-6.7040313e+95
-6.7066503e+95
-6.8425894e+95
-6.4379033e+95
-7.1502863e+95
-7.1546213e+95
-6.9820876e+95
-6.9784589e+95
-6.1382252e+95
-6.1430594e+95
-6.7091583e+95
-6.7094915e+95
-6.7705651e+95
-6.5783559e+95
-6.7704723e+95
-6.8336005e+95
-6.8321539e+95
-6.9020644e+95
-6.7102173e+95
-6.7088461e+95
-6.7719765e+95
-6.7707089e+95
-6.5767053e+95
-6.8316534e+95
-6.8317345e+95
-6.9024234e+95
-6.9020053e+95
-6.4393206e+95
-6.4380529e+95
-6.4364135e+95
-6.5750392e+95
-6.7107071e+95
-6.7726002e+95
-6.9729933e+95
-5.866351e+95
-6.1452827e+95
-6.3036476e+95
-6.3021377e+95
-6.1408658e+95
-5.8646272e+95
-6.1383893e+95
-6.3001064e+95
-5.5634607e+95
-5.5640399e+95
-7.3532013e+95
-7.3482397e+95
-7.3507975e+95
-7.3390294e+95
-7.3422156e+95
-7.3456586e+95
-7.476133e+95
-7.4858071e+95
-7.4971158e+95
-7.4552984e+95
-7.4578315e+95
-7.499123e+95
-7.5711587e+95
-7.5705571e+95
-7.5921661e+95
-7.5929481e+95
-7.5697589e+95
-7.567523e+95
-7.5892233e+95
-7.5912535e+95
-7.5970638e+95
-7.5779147e+95
-7.5756589e+95
-7.5949781e+95
-7.5979507e+95
-7.5989931e+95
-7.578985e+95
-7.4510134e+95
-7.4454557e+95
-7.4881796e+95
-7.4936418e+95
-7.5615023e+95
-7.5571869e+95
-7.5783426e+95
-7.5827323e+95
-7.5853901e+95
-7.5641053e+95
-7.5659757e+95
-7.5874955e+95
-7.5831535e+95
-7.5877086e+95
-7.5672326e+95
-7.5930142e+95
-7.5905503e+95
-7.5705162e+95
-7.5732169e+95
-7.4916498e+95
-7.4926279e+95
-7.4456623e+95
-7.4445486e+95
-7.4870679e+95
-7.4887952e+95
-7.439758e+95
-7.4413575e+95
-7.4425609e+95
-7.4900283e+95
-7.4908903e+95
-7.4437226e+95
-7.4771956e+95
-7.4790242e+95
-7.4297633e+95
-7.4317167e+95
-7.4808841e+95
-7.4827789e+95
-7.4334021e+95
-7.4352563e+95
-7.4841768e+95
-7.4854899e+95
-7.436703e+95
-7.4383026e+95
-5.2180922e+95
-7.1274046e+95
-7.2322916e+95
-7.132238e+95
-7.1294702e+95
-7.2379781e+95
-7.234791e+95
-7.0421088e+95
-6.9607888e+95
-6.9656247e+95
-6.9630348e+95
-7.044381e+95
-7.0465557e+95
-6.7027002e+95
-6.6993537e+95
-6.7608752e+95
-6.7638059e+95
-6.5719068e+95
-6.6954966e+95
-6.6975447e+95
-6.7587917e+95
-6.5686175e+95
-6.82523e+95
-6.8220755e+95
-6.8924524e+95
-6.8953827e+95
-6.8199154e+95
-6.8901964e+95
-6.4345866e+95
-6.4312222e+95
-6.8970984e+95
-6.8286836e+95
-6.8272383e+95
-6.8979831e+95
-6.7050623e+95
-6.7677898e+95
-6.7659641e+95
-6.7065438e+95
-6.5754814e+95
-6.7090132e+95
-6.7075744e+95
-6.7687797e+95
-6.5782504e+95
-6.7701814e+95
-6.8315649e+95
-6.9020057e+95
-6.829711e+95
-6.8997395e+95
-6.4372286e+95
-6.4403475e+95
-7.1363024e+95
-7.1339239e+95
-7.243112e+95
-7.2404591e+95
-7.2456337e+95
-7.1408205e+95
-7.1387287e+95
-7.2475859e+95
-7.0524524e+95
-6.9701852e+95
-6.9726619e+95
-7.054478e+95
-7.0477373e+95
-6.9677585e+95
-6.966471e+95
-7.0497822e+95
-5.8597585e+95
-6.1392841e+95
-6.2970431e+95
-6.3002349e+95
-6.1401441e+95
-5.8637622e+95
-6.1423448e+95
-6.302442e+95
-6.3052944e+95
-6.1463019e+95
-5.5558583e+95
-5.5607268e+95
-6.7360036e+95
-6.7360291e+95
-6.6506239e+95
-6.70598e+95
-6.7060722e+95
-6.7364077e+95
-6.7362653e+95
-6.6514227e+95
-6.706333e+95
-6.706475e+95
-6.7654796e+95
-6.7968836e+95
-6.7652964e+95
-6.7965594e+95
-6.589821e+95
-6.5909707e+95
-6.7649295e+95
-6.7963342e+95
-6.7651821e+95
-6.7966462e+95
-6.8287224e+95
-6.8297139e+95
-6.8613892e+95
-6.8620286e+95
-6.8278009e+95
-6.8604629e+95
-6.8280663e+95
-6.8607523e+95
-6.8933013e+95
-6.9293604e+95
-6.8934553e+95
-6.9291489e+95
-6.7371471e+95
-6.7384725e+95
-6.6508681e+95
-6.7083839e+95
-6.7069419e+95
-6.7359493e+95
-6.7363793e+95
-6.6497498e+95
-6.7060929e+95
-6.7058266e+95
-6.766258e+95
-6.7977782e+95
-6.7675899e+95
-6.7989639e+95
-6.765204e+95
-6.7968805e+95
-6.7656557e+95
-6.7971276e+95
-6.5883418e+95
-6.5894562e+95
-6.827187e+95
-6.8602158e+95
-6.8274981e+95
-6.860314e+95
-6.8276115e+95
-6.8605182e+95
-6.8273493e+95
-6.8603285e+95
-6.8938624e+95
-6.9303983e+95
-6.8936296e+95
-6.9300369e+95
-6.8933592e+95
-6.9297133e+95
-6.8934051e+95
-6.9296074e+95
-6.4723029e+95
-6.4752231e+95
-6.5338307e+95
-6.5320597e+95
-6.471171e+95
-6.4709752e+95
-6.5306149e+95
-6.5313657e+95
-6.469542e+95
-6.4708196e+95
-6.5314035e+95
-6.5300969e+95
-6.6511609e+95
-6.5892092e+95
-6.6491686e+95
-6.5875611e+95
-6.4682367e+95
-6.7385093e+95
-6.7082297e+95
-6.7391488e+95
-6.739158e+95
-6.7089552e+95
-6.7092393e+95
-6.7680958e+95
-6.7994971e+95
-6.7681637e+95
-6.9652191e+95
-6.9658815e+95
-7.0043731e+95
-6.9655685e+95
-5.9690233e+95
-5.9751965e+95
-5.7610629e+95
-5.7530548e+95
-6.1826793e+95
-6.1886908e+95
-6.2730622e+95
-6.2769794e+95
-6.4140875e+95
-6.3461727e+95
-6.3427706e+95
-6.4108727e+95
-6.4097902e+95
-6.341242e+95
-6.3407386e+95
-6.4091186e+95
-6.1786085e+95
-6.1796145e+95
-6.2695661e+95
-6.2706447e+95
-5.7519951e+95
-5.9674408e+95
-5.7592476e+95
-6.1743525e+95
-6.175822e+95
-6.2673068e+95
-6.2680571e+95
-6.3399504e+95
-6.3390303e+95
-6.4087382e+95
-6.4075516e+95
-6.3391005e+95
-6.4067595e+95
-5.4865209e+95
-5.4863947e+95
-7.3722034e+95
-7.3731994e+95
-7.3669897e+95
-7.368071e+95
-7.369443e+95
-7.3711196e+95
-7.3569281e+95
-7.359064e+95
-7.3607276e+95
-7.3620927e+95
-7.3637157e+95
-7.3656664e+95
-7.1725906e+95
-7.1809323e+95
-7.3427614e+95
-7.4951035e+95
-7.4932793e+95
-7.3081908e+95
-7.3104887e+95
-7.3445055e+95
-7.4960677e+95
-7.4967501e+95
-7.5252813e+95
-7.5260828e+95
-7.5224645e+95
-7.5240953e+95
-7.5514745e+95
-7.5519864e+95
-7.5564722e+95
-7.5571798e+95
-7.5481896e+95
-7.5487726e+95
-7.5232952e+95
-7.5238891e+95
-7.5459115e+95
-7.5472782e+95
-7.5205434e+95
-7.5220884e+95
-7.5544406e+95
-7.5507357e+95
-7.5495413e+95
-7.5557846e+95
-7.5526973e+95
-7.5534475e+95
-7.5577594e+95
-7.5586332e+95
-7.5537802e+95
-7.5540769e+95
-7.5589489e+95
-7.5495046e+95
-7.5503071e+95
-7.5255809e+95
-7.5247807e+95
-7.3045544e+95
-7.2995518e+95
-7.3359451e+95
-7.4843536e+95
-7.4878722e+95
-7.3400835e+95
-7.4918616e+95
-7.4902711e+95
-7.5127897e+95
-7.5164492e+95
-7.5190449e+95
-7.5207943e+95
-7.5404102e+95
-7.5380052e+95
-7.5445607e+95
-7.5463051e+95
-7.548155e+95
-7.5438222e+95
-7.5422571e+95
-7.537108e+95
-7.5388123e+95
-7.5109765e+95
-7.5126208e+95
-7.5522172e+95
-7.5533806e+95
-7.5484515e+95
-7.5476172e+95
-7.5496321e+95
-7.5513193e+95
-7.5467459e+95
-7.5453225e+95
-7.5405512e+95
-7.5422561e+95
-7.5146369e+95
-7.5163795e+95
-7.5434589e+95
-7.5445906e+95
-7.5177881e+95
-7.5189219e+95
-5.1859523e+95
-7.4519305e+95
-7.4514151e+95
-7.4275731e+95
-7.428133e+95
-7.4529768e+95
-7.452588e+95
-7.4286597e+95
-7.429279e+95
-7.4474509e+95
-7.446489e+95
-7.4224064e+95
-7.4232718e+95
-7.448735e+95
-7.4482601e+95
-7.4238986e+95
-7.4246959e+95
-7.4500825e+95
-7.4493258e+95
-7.4252131e+95
-7.4260559e+95
-7.4510146e+95
-7.4507198e+95
-7.4266613e+95
-7.4272076e+95
-7.4375465e+95
-7.4363647e+95
-7.4121835e+95
-7.413328e+95
-7.4393138e+95
-7.4385211e+95
-7.4142668e+95
-7.415331e+95
-7.4412667e+95
-7.4401608e+95
-7.4161632e+95
-7.4171305e+95
-7.4428353e+95
-7.4421692e+95
-7.4178433e+95
-7.4187012e+95
-7.4444014e+95
-7.4434744e+95
-7.4192827e+95
-7.4201877e+95
-7.4457277e+95
-7.4451587e+95
-7.4209216e+95
-7.4217503e+95
-5.2117668e+95
-7.1170989e+95
-7.1686924e+95
-7.1189929e+95
-7.1703068e+95
-7.2227545e+95
-7.2893394e+95
-7.2246179e+95
-7.291317e+95
-7.1226757e+95
-7.1239621e+95
-7.1745981e+95
-7.1758432e+95
-7.1202456e+95
-7.1215217e+95
-7.1716867e+95
-7.1732528e+95
-7.2290181e+95
-7.2959096e+95
-7.2306697e+95
-7.2978038e+95
-7.2261225e+95
-7.2277069e+95
-7.2930212e+95
-7.294431e+95
-7.0287545e+95
-7.0306771e+95
-7.0728317e+95
-7.0746943e+95
-6.9519859e+95
-6.9536826e+95
-6.9902371e+95
-6.9919404e+95
-6.9580895e+95
-6.9570473e+95
-6.9953045e+95
-6.9961505e+95
-6.9548288e+95
-6.9559849e+95
-6.993059e+95
-6.9942552e+95
-7.0317357e+95
-7.0328859e+95
-7.0759703e+95
-7.0770955e+95
-7.0338165e+95
-7.034898e+95
-7.0781252e+95
-7.0793114e+95
-6.7279177e+95
-6.729913e+95
-6.6444039e+95
-6.7000435e+95
-6.6977351e+95
-6.7253246e+95
-6.7264754e+95
-6.6405688e+95
-6.6963963e+95
-6.695175e+95
-6.7545546e+95
-6.7860122e+95
-6.7556894e+95
-6.7870636e+95
-6.7570746e+95
-6.788469e+95
-6.7589648e+95
-6.7902479e+95
-6.5795451e+95
-6.58397e+95
-6.7219413e+95
-6.6375613e+95
-6.690201e+95
-6.6915391e+95
-6.7230205e+95
-6.7243397e+95
-6.6391106e+95
-6.6926646e+95
-6.6942741e+95
-6.7521916e+95
-6.7535248e+95
-6.7834394e+95
-6.7849191e+95
-6.5785004e+95
-6.5773207e+95
-6.8193497e+95
-6.8210889e+95
-6.8523614e+95
-6.8538448e+95
-6.8167919e+95
-6.8496873e+95
-6.8179457e+95
-6.8509412e+95
-6.8829616e+95
-6.9193535e+95
-6.8842307e+95
-6.9204981e+95
-6.8854705e+95
-6.9216632e+95
-6.8869274e+95
-6.9228821e+95
-6.815739e+95
-6.84857e+95
-6.8818134e+95
-6.9164477e+95
-6.918134e+95
-6.4290549e+95
-6.4672153e+95
-6.463169e+95
-6.5222529e+95
-6.5263871e+95
-6.4631037e+95
-6.4622232e+95
-6.520755e+95
-6.521146e+95
-6.2945561e+95
-6.1358588e+95
-6.887507e+95
-6.9232295e+95
-6.8878056e+95
-6.9233625e+95
-6.8231596e+95
-6.8239733e+95
-6.8555255e+95
-6.8563156e+95
-6.8220596e+95
-6.8546144e+95
-6.822689e+95
-6.8551159e+95
-6.8880508e+95
-6.8891081e+95
-6.9238299e+95
-6.9251101e+95
-6.731086e+95
-6.7321503e+95
-6.6470386e+95
-6.7022206e+95
-6.701469e+95
-6.7619736e+95
-6.7927949e+95
-6.7627714e+95
-6.793598e+95
-6.7599557e+95
-6.7912837e+95
-6.7611046e+95
-6.7920833e+95
-6.7329313e+95
-6.733644e+95
-6.6484465e+95
-6.7028842e+95
-6.7037426e+95
-6.5882245e+95
-6.5866918e+95
-6.7350126e+95
-6.7360784e+95
-6.6509687e+95
-6.7060533e+95
-6.7050098e+95
-6.7338138e+95
-6.734324e+95
-6.6495372e+95
-6.7043746e+95
-6.7040187e+95
-6.7628405e+95
-6.7940683e+95
-6.7634009e+95
-6.794627e+95
-6.5897354e+95
-6.5914492e+95
-6.7640304e+95
-6.7954235e+95
-6.7652601e+95
-6.7966169e+95
-6.8262725e+95
-6.8593198e+95
-6.8274191e+95
-6.8603331e+95
-6.8925163e+95
-6.9289221e+95
-6.8936696e+95
-6.930117e+95
-6.8246114e+95
-6.8572126e+95
-6.8253583e+95
-6.8582561e+95
-6.8902363e+95
-6.9264877e+95
-6.8914517e+95
-6.9277625e+95
-6.472396e+95
-6.4697264e+95
-6.5291752e+95
-6.5310599e+95
-6.4739344e+95
-6.5328744e+95
-6.5348493e+95
-6.475788e+95
-7.1266843e+95
-7.1284948e+95
-7.1792463e+95
-7.1809287e+95
-7.1245817e+95
-7.1766087e+95
-7.1254184e+95
-7.1778007e+95
-7.2342481e+95
-7.3015533e+95
-7.2361909e+95
-7.3034344e+95
-7.2316573e+95
-7.2991195e+95
-7.232876e+95
-7.3001867e+95
-7.2375001e+95
-7.3047472e+95
-7.2386815e+95
-7.3058124e+95
-7.1319829e+95
-7.1328429e+95
-7.184518e+95
-7.1852457e+95
-7.1297809e+95
-7.1821433e+95
-7.1309437e+95
-7.1834198e+95
-7.2395997e+95
-7.2405929e+95
-7.0399475e+95
-7.0848959e+95
-7.0413249e+95
-7.0860637e+95
-6.9619327e+95
-6.963318e+95
-7.0006195e+95
-7.002096e+95
-6.9644986e+95
-6.9656869e+95
-7.0032821e+95
-7.0042511e+95
-7.0423062e+95
-7.0433161e+95
-7.0870862e+95
-7.0880196e+95
-7.035262e+95
-7.0798642e+95
-7.0357945e+95
-7.0804839e+95
-6.9591094e+95
-6.9605729e+95
-6.9977014e+95
-6.9991949e+95
-6.9581476e+95
-6.9962965e+95
-6.9583937e+95
-6.9967619e+95
-7.0367426e+95
-7.0384964e+95
-7.0816229e+95
-7.0834473e+95
-5.9692769e+95
-5.9674457e+95
-5.755147e+95
-5.7499582e+95
-6.2710918e+95
-6.1812594e+95
-6.1791303e+95
-6.2692844e+95
-6.4038557e+95
-6.3392094e+95
-6.3374396e+95
-6.4026866e+95
-6.4037852e+95
-6.338743e+95
-6.3408717e+95
-6.4068263e+95
-6.2701952e+95
-6.1798144e+95
-6.1819434e+95
-6.2714614e+95
-5.9746675e+95
-5.9694292e+95
-5.7511061e+95
-5.7601297e+95
-6.1835308e+95
-6.1827054e+95
-6.272624e+95
-6.2747597e+95
-6.3418851e+95
-6.4090897e+95
-6.411694e+95
-6.3443042e+95
-6.3484441e+95
-6.3468946e+95
-6.4133612e+95
-6.4150282e+95
-6.1907928e+95
-6.1865965e+95
-6.2775369e+95
-6.2793806e+95
-5.4809088e+95
-5.4842687e+95
-6.7324921e+95
-6.7321721e+95
-6.7494753e+95
-6.7491495e+95
-6.7493401e+95
-6.7493192e+95
-6.7321557e+95
-6.7320795e+95
-6.6799785e+95
-6.65299e+95
-6.6528461e+95
-6.6798609e+95
-6.7090183e+95
-6.7093365e+95
-6.7328743e+95
-6.7329321e+95
-6.7499675e+95
-6.7499618e+95
-6.7500529e+95
-6.7498056e+95
-6.7329338e+95
-6.7327093e+95
-6.6534318e+95
-6.6536585e+95
-6.6805544e+95
-6.6803352e+95
-6.709807e+95
-6.7097998e+95
-6.764446e+95
-6.7644795e+95
-6.7791744e+95
-6.7791597e+95
-6.7940517e+95
-6.7940389e+95
-6.8095323e+95
-6.8094743e+95
-6.7789697e+95
-6.764488e+95
-6.7790895e+95
-6.7643091e+95
-6.8093579e+95
-6.7938966e+95
-6.7938378e+95
-6.8092666e+95
-6.6002211e+95
-6.6007177e+95
-6.6272538e+95
-6.6269292e+95
-6.6012718e+95
-6.6018937e+95
-6.6280166e+95
-6.6276534e+95
-6.7785727e+95
-6.7639708e+95
-6.7787684e+95
-6.7637229e+95
-6.8091858e+95
-6.7936817e+95
-6.7935106e+95
-6.8089971e+95
-6.7787279e+95
-6.7638552e+95
-6.7785914e+95
-6.7639273e+95
-6.8090542e+95
-6.7935005e+95
-6.7937202e+95
-6.8092747e+95
-6.8256148e+95
-6.8412565e+95
-6.8415821e+95
-6.8259483e+95
-6.8268753e+95
-6.8263628e+95
-6.8419586e+95
-6.8423521e+95
-6.8733989e+95
-6.8567219e+95
-6.8731571e+95
-6.857013e+95
-6.8576693e+95
-6.8739415e+95
-6.8572852e+95
-6.8736309e+95
-6.8405819e+95
-6.8247314e+95
-6.8404262e+95
-6.8248572e+95
-6.8559505e+95
-6.8724638e+95
-6.8723703e+95
-6.8559949e+95
-6.8409974e+95
-6.8249545e+95
-6.8406774e+95
-6.825312e+95
-6.8561311e+95
-6.8725422e+95
-6.8564817e+95
-6.872893e+95
-6.9058006e+95
-6.8887025e+95
-6.9059105e+95
-6.8885995e+95
-6.9414783e+95
-6.9231045e+95
-6.9229244e+95
-6.9412003e+95
-6.8890493e+95
-6.9060867e+95
-6.8887151e+95
-6.9058733e+95
-6.9410839e+95
-6.9228707e+95
-6.9230303e+95
-6.9411131e+95
-6.7333313e+95
-6.7337801e+95
-6.7504162e+95
-6.7508338e+95
-6.751669e+95
-6.7522281e+95
-6.7344907e+95
-6.735101e+95
-6.680479e+95
-6.6530075e+95
-6.6546084e+95
-6.6820483e+95
-6.7117191e+95
-6.7104033e+95
-6.7319814e+95
-6.7320261e+95
-6.7491926e+95
-6.749229e+95
-6.7497662e+95
-6.7501635e+95
-6.732459e+95
-6.7329219e+95
-6.6796862e+95
-6.6525248e+95
-6.6522976e+95
-6.6796726e+95
-6.7094687e+95
-6.7087683e+95
-6.7649954e+95
-6.7654587e+95
-6.7798517e+95
-6.7802834e+95
-6.7952224e+95
-6.8103749e+95
-6.8107213e+95
-6.7948205e+95
-6.766166e+95
-6.7667288e+95
-6.7813676e+95
-6.7808323e+95
-6.7956827e+95
-6.7962598e+95
-6.811184e+95
-6.8117436e+95
-6.7788921e+95
-6.7638389e+95
-6.7787663e+95
-6.7639518e+95
-6.7938212e+95
-6.809447e+95
-6.8095088e+95
-6.7939242e+95
-6.7795482e+95
-6.7643734e+95
-6.7791404e+95
-6.7647867e+95
-6.7940828e+95
-6.8096574e+95
-6.794506e+95
-6.8100204e+95
-6.6263843e+95
-6.599279e+95
-6.5987585e+95
-6.6259373e+95
-6.6012683e+95
-6.5995928e+95
-6.6267339e+95
-6.6282559e+95
-6.840025e+95
-6.8243832e+95
-6.8401189e+95
-6.8242472e+95
-6.8558184e+95
-6.8725478e+95
-6.8723647e+95
-6.8557049e+95
-6.8245519e+95
-6.840288e+95
-6.8243037e+95
-6.8400807e+95
-6.8556987e+95
-6.8723483e+95
-6.8559046e+95
-6.8724962e+95
-6.8403898e+95
-6.8246891e+95
-6.840393e+95
-6.8246632e+95
-6.8560727e+95
-6.8560486e+95
-6.8728046e+95
-6.8727275e+95
-6.8402213e+95
-6.8245469e+95
-6.8402944e+95
-6.8244828e+95
-6.8726452e+95
-6.8559339e+95
-6.8559242e+95
-6.8726368e+95
-6.9066251e+95
-6.8892209e+95
-6.9066212e+95
-6.8891814e+95
-6.9239853e+95
-6.9239544e+95
-6.9425118e+95
-6.94243e+95
-6.8890634e+95
-6.9064267e+95
-6.8890816e+95
-6.9065242e+95
-6.9422836e+95
-6.9237954e+95
-6.923733e+95
-6.9422023e+95
-6.9061473e+95
-6.8889311e+95
-6.9062825e+95
-6.8887648e+95
-6.9420489e+95
-6.9235704e+95
-6.9233968e+95
-6.9418028e+95
-6.8888109e+95
-6.906065e+95
-6.8887153e+95
-6.9060867e+95
-6.9416914e+95
-6.9232788e+95
-6.9232822e+95
-6.9416695e+95
-6.4964282e+95
-6.4978205e+95
-6.5222925e+95
-6.5236808e+95
-6.4996647e+95
-6.5016968e+95
-6.5265546e+95
-6.5250254e+95
-6.5492956e+95
-6.5504298e+95
-6.5764499e+95
-6.5754791e+95
-6.5747652e+95
-6.5482714e+95
-6.5472059e+95
-6.5740727e+95
-6.4962819e+95
-6.4948301e+95
-6.5228129e+95
-6.5211426e+95
-6.4942292e+95
-6.4950519e+95
-6.5201383e+95
-6.5207456e+95
-6.5728211e+95
-6.5456561e+95
-6.545171e+95
-6.5721716e+95
-6.5731055e+95
-6.5461466e+95
-6.5480317e+95
-6.5749837e+95
-6.494624e+95
-6.4948792e+95
-6.5216112e+95
-6.5212448e+95
-6.495784e+95
-6.4965844e+95
-6.523264e+95
-6.522548e+95
-6.5755767e+95
-6.5485552e+95
-6.5478351e+95
-6.574702e+95
-6.5463849e+95
-6.5468487e+95
-6.5736898e+95
-6.5731268e+95
-6.6830301e+95
-6.6553635e+95
-6.6547733e+95
-6.6824884e+95
-6.6287995e+95
-6.6017194e+95
-6.6009107e+95
-6.6281162e+95
-6.6816228e+95
-6.653693e+95
-6.6523505e+95
-6.6802977e+95
-6.6270872e+95
-6.5998924e+95
-6.5990574e+95
-6.6259228e+95
-6.4931712e+95
-6.493771e+95
-6.5201778e+95
-6.5194825e+95
-6.7353214e+95
-6.7347829e+95
-6.7524215e+95
-6.7519017e+95
-6.7119508e+95
-6.7354045e+95
-6.7355813e+95
-6.7524256e+95
-6.7525677e+95
-6.752926e+95
-6.752831e+95
-6.7357985e+95
-6.7356914e+95
-6.7127221e+95
-6.7125047e+95
-6.7818624e+95
-6.7669025e+95
-6.7816742e+95
-6.7670887e+95
-6.7965673e+95
-6.7967076e+95
-6.8120157e+95
-6.8120577e+95
-6.7819212e+95
-6.7673351e+95
-6.7819392e+95
-6.7673143e+95
-6.9783631e+95
-6.959802e+95
-6.9785642e+95
-6.9595804e+95
-6.9790293e+95
-6.9602679e+95
-6.9790383e+95
-6.960215e+95
-6.9974899e+95
-6.9974452e+95
-7.0175747e+95
-7.0174587e+95
-6.9787621e+95
-6.9600663e+95
-6.9789009e+95
-6.9599899e+95
-6.0690669e+95
-6.0686359e+95
-5.9223569e+95
-5.9198578e+95
-6.0806141e+95
-6.0725242e+95
-5.9243388e+95
-5.9353243e+95
-5.7301083e+95
-5.7212321e+95
-6.2258065e+95
-6.2271397e+95
-6.2806299e+95
-6.278493e+95
-6.2315499e+95
-6.2371053e+95
-6.2880823e+95
-6.2837522e+95
-6.3168549e+95
-6.3191263e+95
-6.3548272e+95
-6.3531557e+95
-6.3215356e+95
-6.3257549e+95
-6.3608263e+95
-6.3572601e+95
-6.476046e+95
-6.4482145e+95
-6.4457499e+95
-6.4735734e+95
-6.420999e+95
-6.3918756e+95
-6.3887628e+95
-6.4183016e+95
-6.3850996e+95
-6.386484e+95
-6.4161743e+95
-6.4149777e+95
-6.4714219e+95
-6.4435044e+95
-6.4423775e+95
-6.470225e+95
-6.469252e+95
-6.4415363e+95
-6.4401051e+95
-6.4679243e+95
-6.4138678e+95
-6.3839458e+95
-6.3825417e+95
-6.4125261e+95
-6.3829171e+95
-6.3823822e+95
-6.4123325e+95
-6.413051e+95
-6.4679222e+95
-6.4397578e+95
-6.4407107e+95
-6.4692668e+95
-6.2239035e+95
-6.221763e+95
-6.2752585e+95
-6.2756938e+95
-6.221959e+95
-6.2236553e+95
-6.2766852e+95
-6.2751279e+95
-6.3140448e+95
-6.3140516e+95
-6.3501733e+95
-6.3505663e+95
-6.3137364e+95
-6.3156638e+95
-6.3519524e+95
-6.3502891e+95
-5.7207688e+95
-5.9216403e+95
-6.0671198e+95
-6.0652046e+95
-5.9183118e+95
-6.2192876e+95
-6.2169243e+95
-6.2718067e+95
-6.2730215e+95
-6.2178191e+95
-6.2216189e+95
-6.2744832e+95
-6.2723015e+95
-6.3127378e+95
-6.3116714e+95
-6.3485205e+95
-6.3494771e+95
-6.3120559e+95
-6.3137182e+95
-6.3503649e+95
-6.3490135e+95
-6.3825816e+95
-6.3814361e+95
-6.411911e+95
-6.4129045e+95
-6.3816551e+95
-6.3809279e+95
-6.4117667e+95
-6.4113542e+95
-6.440776e+95
-6.4696049e+95
-6.4686166e+95
-6.4398777e+95
-6.4390975e+95
-6.4677297e+95
-6.4676814e+95
-6.4392596e+95
-6.4116599e+95
-6.3818988e+95
-6.3818104e+95
-6.4112216e+95
-6.4383008e+95
-6.4388703e+95
-6.4670716e+95
-6.46638e+95
-6.3138842e+95
-6.350193e+95
-5.4623609e+95
-5.4623995e+95
-7.3826685e+95
-7.383047e+95
-7.3836806e+95
-7.384682e+95
-7.3772561e+95
-7.3777618e+95
-7.378356e+95
-7.3793139e+95
-7.3799422e+95
-7.3806217e+95
-7.3813332e+95
-7.3822287e+95
-7.3671687e+95
-7.3680051e+95
-7.3689599e+95
-7.3702712e+95
-7.3710898e+95
-7.3718105e+95
-7.3724886e+95
-7.3735211e+95
-7.3741454e+95
-7.3748362e+95
-7.3756144e+95
-7.3766557e+95
-6.8614126e+95
-7.146462e+95
-7.1415492e+95
-6.8689316e+95
-7.1487956e+95
-7.150841e+95
-6.5470467e+95
-7.4185769e+95
-7.4172125e+95
-7.1898927e+95
-7.3346705e+95
-7.3352661e+95
-7.4199444e+95
-7.4194133e+95
-7.191657e+95
-7.3360915e+95
-7.3365541e+95
-7.04253e+95
-7.4637258e+95
-7.4634518e+95
-7.4773237e+95
-7.4778298e+95
-7.5186538e+95
-7.5192647e+95
-7.4645789e+95
-7.4639339e+95
-7.4781767e+95
-7.519677e+95
-7.4786463e+95
-7.461211e+95
-7.460627e+95
-7.4746319e+95
-7.4753517e+95
-7.5157765e+95
-7.5167073e+95
-7.4630306e+95
-7.4619172e+95
-7.4760531e+95
-7.4768038e+95
-7.5173943e+95
-7.5179925e+95
-7.5341123e+95
-7.5315142e+95
-7.5346701e+95
-7.5322124e+95
-7.5324025e+95
-7.5323593e+95
-7.5350258e+95
-7.5348335e+95
-7.523413e+95
-7.5315889e+95
-7.5321253e+95
-7.5238992e+95
-7.5322331e+95
-7.5324953e+95
-7.5243868e+95
-7.5241343e+95
-7.4754241e+95
-7.5066555e+95
-7.5071798e+95
-7.47608e+95
-7.4766332e+95
-7.5076304e+95
-7.5077876e+95
-7.47691e+95
-7.5295213e+95
-7.5303779e+95
-7.5211426e+95
-7.5220182e+95
-7.522551e+95
-7.5307701e+95
-7.5311686e+95
-7.5229562e+95
-7.4726655e+95
-7.5041149e+95
-7.505113e+95
-7.4736652e+95
-7.5060729e+95
-7.5058825e+95
-7.4744933e+95
-7.4748083e+95
-7.5296229e+95
-7.5305692e+95
-7.5329952e+95
-7.5321499e+95
-7.5334225e+95
-7.5310197e+95
-7.5310704e+95
-7.5337186e+95
-7.5354294e+95
-7.5328268e+95
-7.5360237e+95
-7.5335575e+95
-7.5338044e+95
-7.5336934e+95
-7.5362453e+95
-7.5363959e+95
-7.5366691e+95
-7.5339894e+95
-7.5345847e+95
-7.5371108e+95
-7.5248795e+95
-7.5329219e+95
-7.5334966e+95
-7.5254214e+95
-7.5339214e+95
-7.5336755e+95
-7.5259113e+95
-7.5256732e+95
-7.5092183e+95
-7.4783545e+95
-7.4786195e+95
-7.509396e+95
-7.4773065e+95
-7.5083049e+95
-7.5088462e+95
-7.4778166e+95
-7.4129287e+95
-7.4096836e+95
-7.1849372e+95
-7.3284415e+95
-7.3318268e+95
-7.4161081e+95
-7.4149032e+95
-7.1884421e+95
-7.3331308e+95
-7.3339758e+95
-7.4535504e+95
-7.4518171e+95
-7.4672998e+95
-7.4654129e+95
-7.5072853e+95
-7.4569472e+95
-7.4549662e+95
-7.4688632e+95
-7.470619e+95
-7.5106647e+95
-7.5090415e+95
-7.4587748e+95
-7.4580629e+95
-7.4727236e+95
-7.4718018e+95
-7.5131311e+95
-7.5119863e+95
-7.4601631e+95
-7.4592072e+95
-7.4733011e+95
-7.4740035e+95
-7.5148446e+95
-7.5139726e+95
-7.5201586e+95
-7.5208693e+95
-7.5229477e+95
-7.521971e+95
-7.5218329e+95
-7.5231144e+95
-7.5250446e+95
-7.5238738e+95
-7.5238218e+95
-7.5242834e+95
-7.5264248e+95
-7.5257048e+95
-7.52082e+95
-7.5219609e+95
-7.5119242e+95
-7.5130152e+95
-7.5225591e+95
-7.523358e+95
-7.5137245e+95
-7.5144583e+95
-7.4625723e+95
-7.4944114e+95
-7.4955887e+95
-7.463781e+95
-7.497051e+95
-7.4964717e+95
-7.4647009e+95
-7.4654131e+95
-7.527521e+95
-7.5284134e+95
-7.53064e+95
-7.5298306e+95
-7.5287843e+95
-7.5289797e+95
-7.5315111e+95
-7.5310208e+95
-7.525084e+95
-7.5261899e+95
-7.5282266e+95
-7.5272145e+95
-7.5267352e+95
-7.5269582e+95
-7.5292669e+95
-7.5287618e+95
-7.5242196e+95
-7.5252237e+95
-7.5154177e+95
-7.5164092e+95
-7.5257383e+95
-7.5263624e+95
-7.5170618e+95
-7.5176604e+95
-7.4662776e+95
-7.4980167e+95
-7.4991147e+95
-7.4674166e+95
-7.5004283e+95
-7.4999454e+95
-7.4683074e+95
-7.4689418e+95
-7.527017e+95
-7.5278277e+95
-7.5184134e+95
-7.5192095e+95
-7.5282019e+95
-7.5288173e+95
-7.5197191e+95
-7.5203274e+95
-7.4696348e+95
-7.5011988e+95
-7.5020879e+95
-7.4705719e+95
-7.5032246e+95
-7.5027668e+95
-7.471296e+95
-7.4718292e+95
-5.4867809e+95
-5.1800245e+95
-7.399417e+95
-7.3988193e+95
-7.400932e+95
-7.4002177e+95
-7.3942195e+95
-7.3934636e+95
-7.395677e+95
-7.3949048e+95
-7.3971413e+95
-7.3963491e+95
-7.39834e+95
-7.3977544e+95
-7.3845223e+95
-7.3835586e+95
-7.3864182e+95
-7.3854147e+95
-7.3883061e+95
-7.3873329e+95
-7.3899349e+95
-7.3891191e+95
-7.3913954e+95
-7.3906006e+95
-7.3927829e+95
-7.3920643e+95
-7.1360439e+95
-7.1100272e+95
-7.1350798e+95
-7.1108977e+95
-7.1601243e+95
-7.1892454e+95
-7.1899314e+95
-7.1609221e+95
-7.1378896e+95
-7.1117592e+95
-7.1368567e+95
-7.1128068e+95
-7.1616406e+95
-7.1906428e+95
-7.1627263e+95
-7.1916332e+95
-7.252515e+95
-7.2179908e+95
-7.2517361e+95
-7.2186845e+95
-7.3266694e+95
-7.2862899e+95
-7.2870219e+95
-7.3273482e+95
-7.2205064e+95
-7.2543947e+95
-7.2194424e+95
-7.2533871e+95
-7.3282398e+95
-7.287843e+95
-7.2890734e+95
-7.3295574e+95
-7.1160844e+95
-7.1413253e+95
-7.1420055e+95
-7.1166274e+95
-7.1175881e+95
-7.1170092e+95
-7.1423832e+95
-7.1428797e+95
-7.1664065e+95
-7.1956004e+95
-7.1961274e+95
-7.1669946e+95
-7.168104e+95
-7.1674596e+95
-7.1967382e+95
-7.1974732e+95
-7.1135022e+95
-7.1385602e+95
-7.139513e+95
-7.1143009e+95
-7.1148679e+95
-7.1401178e+95
-7.1408902e+95
-7.1156523e+95
-7.1932851e+95
-7.1634627e+95
-7.1924937e+95
-7.1643244e+95
-7.1949665e+95
-7.1650076e+95
-7.1940748e+95
-7.1658655e+95
-7.2590885e+95
-7.2244246e+95
-7.258307e+95
-7.2250458e+95
-7.3335363e+95
-7.2929927e+95
-7.29373e+95
-7.3341804e+95
-7.2265508e+95
-7.2606269e+95
-7.2257294e+95
-7.2598662e+95
-7.334966e+95
-7.2944716e+95
-7.2954647e+95
-7.3360524e+95
-7.2212999e+95
-7.2551775e+95
-7.2560713e+95
-7.2221231e+95
-7.2229147e+95
-7.2568856e+95
-7.2238444e+95
-7.257683e+95
-7.3304641e+95
-7.3311018e+95
-7.2899069e+95
-7.2906686e+95
-7.2923099e+95
-7.2913292e+95
-7.3317449e+95
-7.3327806e+95
-7.0439541e+95
-7.0217617e+95
-7.0429499e+95
-7.0226974e+95
-7.0236032e+95
-7.0448149e+95
-7.0457243e+95
-7.0245663e+95
-7.0639876e+95
-7.0874156e+95
-7.0648908e+95
-7.0882353e+95
-7.0891094e+95
-7.090115e+95
-7.0656938e+95
-7.0667117e+95
-6.9652933e+95
-6.9458341e+95
-6.9644252e+95
-6.9466085e+95
-6.9473518e+95
-6.9660614e+95
-6.9669601e+95
-6.9483012e+95
-6.9826076e+95
-7.0023964e+95
-6.9834412e+95
-7.0032144e+95
-7.0041413e+95
-7.0051251e+95
-6.9842651e+95
-6.9852334e+95
-6.9519496e+95
-6.9523176e+95
-6.970821e+95
-6.9705392e+95
-6.9511213e+95
-6.9697146e+95
-6.9702027e+95
-6.95158e+95
-6.9883885e+95
-6.9879423e+95
-7.0077861e+95
-7.008171e+95
-7.0085681e+95
-6.9886924e+95
-6.989093e+95
-7.0090103e+95
-6.948859e+95
-6.9674911e+95
-6.9681499e+95
-6.9494554e+95
-6.949983e+95
-6.9686776e+95
-6.9693103e+95
-6.9506867e+95
-6.9857381e+95
-7.0056038e+95
-7.0061629e+95
-6.986354e+95
-6.9868678e+95
-7.006693e+95
-7.0074047e+95
-6.987557e+95
-7.0249942e+95
-7.0462012e+95
-7.0468614e+95
-7.0255669e+95
-7.0260937e+95
-7.0474389e+95
-7.0480392e+95
-7.0267924e+95
-7.0673349e+95
-7.0908594e+95
-7.0915917e+95
-7.0680302e+95
-7.0685566e+95
-7.0921425e+95
-7.0928669e+95
-7.06925e+95
-7.0271492e+95
-7.0484438e+95
-7.048984e+95
-7.0275946e+95
-7.0285236e+95
-7.0280098e+95
-7.0494098e+95
-7.0498889e+95
-7.069662e+95
-7.0933188e+95
-7.0938196e+95
-7.0701968e+95
-7.0711519e+95
-7.0705886e+95
-7.0942295e+95
-7.0947864e+95
-6.7236451e+95
-6.7244478e+95
-6.74077e+95
-6.7415429e+95
-6.7425622e+95
-6.7433495e+95
-6.7254627e+95
-6.7263735e+95
-6.6472438e+95
-6.6447521e+95
-6.6717177e+95
-6.6740652e+95
-6.7028459e+95
-6.7007971e+95
-6.721197e+95
-6.7217244e+95
-6.7382845e+95
-6.738754e+95
-6.7393726e+95
-6.7400172e+95
-6.7223259e+95
-6.722929e+95
-6.6413313e+95
-6.6688161e+95
-6.6700772e+95
-6.642782e+95
-6.699428e+95
-6.6981697e+95
-6.752861e+95
-6.7534193e+95
-6.7682297e+95
-6.7676796e+95
-6.7826517e+95
-6.7981643e+95
-6.7986702e+95
-6.7831915e+95
-6.7695041e+95
-6.7539784e+95
-6.7687637e+95
-6.754688e+95
-6.7836864e+95
-6.7991932e+95
-6.7844694e+95
-6.7999415e+95
-6.7553581e+95
-6.7561933e+95
-6.7701759e+95
-6.7709616e+95
-6.785882e+95
-6.8006337e+95
-6.8013515e+95
-6.7851192e+95
-6.7570643e+95
-6.7578434e+95
-6.7724932e+95
-6.7717251e+95
-6.7865791e+95
-6.7874215e+95
-6.8020924e+95
-6.8029576e+95
-6.58902e+95
-6.5877053e+95
-6.614883e+95
-6.6162925e+95
-6.6186137e+95
-6.5915374e+95
-6.5949932e+95
-6.6214668e+95
-6.5766604e+95
-6.7349225e+95
-6.7355689e+95
-6.7175563e+95
-6.7182267e+95
-6.6381048e+95
-6.6370315e+95
-6.6652553e+95
-6.6640824e+95
-6.6942542e+95
-6.7188156e+95
-6.7192738e+95
-6.7360316e+95
-6.7363904e+95
-6.7370319e+95
-6.7376717e+95
-6.7199467e+95
-6.7205804e+95
-6.6390332e+95
-6.6662913e+95
-6.6678711e+95
-6.6404755e+95
-6.695583e+95
-6.6969754e+95
-6.7506359e+95
-6.7653837e+95
-6.765899e+95
-6.75107e+95
-6.7516401e+95
-6.7664412e+95
-6.7671571e+95
-6.7523288e+95
-6.7801869e+95
-6.7955603e+95
-6.7962034e+95
-6.780791e+95
-6.7821265e+95
-6.7813353e+95
-6.7968191e+95
-6.7976062e+95
-6.5872805e+95
-6.5862213e+95
-6.6142088e+95
-6.6130228e+95
-6.5854228e+95
-6.5849497e+95
-6.611235e+95
-6.6120626e+95
-6.815866e+95
-6.8316264e+95
-6.8323703e+95
-6.8165993e+95
-6.8182056e+95
-6.8173347e+95
-6.8331103e+95
-6.8338895e+95
-6.8646979e+95
-6.8473601e+95
-6.8640711e+95
-6.8480649e+95
-6.8494776e+95
-6.8660263e+95
-6.8487105e+95
-6.8653235e+95
-6.8296791e+95
-6.8133767e+95
-6.8290949e+95
-6.8139216e+95
-6.8448034e+95
-6.8615041e+95
-6.8620638e+95
-6.8453892e+95
-6.8310084e+95
-6.8144546e+95
-6.83026e+95
-6.8152288e+95
-6.84594e+95
-6.8626459e+95
-6.8467543e+95
-6.863456e+95
-6.8959064e+95
-6.8779111e+95
-6.895265e+95
-6.8785067e+95
-6.9310953e+95
-6.91261e+95
-6.91322e+95
-6.9316518e+95
-6.879892e+95
-6.8972372e+95
-6.8790834e+95
-6.8965106e+95
-6.9322056e+95
-6.9137559e+95
-6.914521e+95
-6.93293e+95
-6.8804488e+95
-6.8977725e+95
-6.8983986e+95
-6.8810697e+95
-6.9334281e+95
-6.91503e+95
-6.9155921e+95
-6.9338914e+95
-6.8816493e+95
-6.8823172e+95