/*--------------------------------*- C++ -*----------------------------------*\
  =========                 |
  \\      /  F ield         | OpenFOAM: The Open Source CFD Toolbox
   \\    /   O peration     | Website:  https://openfoam.org
    \\  /    A nd           | Version:  7
     \\/     M anipulation  |
\*---------------------------------------------------------------------------*/
FoamFile
{
    version     2.0;
    format      ascii;
    class       surfaceScalarField;
    location    "1000";
    object      phi;
}
// * * * * * * * * * * * * * * * * * * * * * * * * * * * * * * * * * * * * * //

dimensions      [0 3 -1 0 0 0 0];

internalField   nonuniform List<scalar> 
101838
(
4.9094262e+43
-3.012786e+44
-3.0935365e+44
-2.8971606e+44
-2.9246972e+44
-2.909599e+44
-2.7278826e+44
-2.7410153e+44
-2.6085797e+44
-6.7031479e+43
2.8383343e+43
3.2840523e+43
-6.0469918e+43
-5.9887284e+43
-7.2111941e+43
-7.1978572e+43
3.5798801e+43
-2.6431581e+44
-6.9426704e+43
3.7209531e+43
-5.8705097e+43
-6.2185382e+43
-7.1346897e+43
-7.7625231e+43
-2.6438406e+44
3.2946798e+43
-1.4609843e+43
1.5542132e+43
-1.8459677e+43
1.7922216e+43
-3.3477046e+44
3.5401954e+43
2.8614889e+43
2.4946682e+43
-3.4420174e+44
-6.2747564e+42
-2.7177194e+42
2.8724973e+43
2.6354539e+43
-3.4273481e+44
-1.8635706e+42
-6.5635769e+42
1.5892077e+43
2.8880136e+43
-5.2034493e+43
-6.0601066e+43
-6.3606057e+43
-6.4683509e+43
-6.109544e+43
2.9268036e+43
-5.8387315e+43
-5.7992792e+43
-5.0370778e+43
-4.9987853e+43
1.7370511e+43
-5.4473222e+43
-6.7700009e+43
-6.1684966e+43
-5.8771128e+43
-6.3270838e+43
-5.6745724e+43
-6.0764101e+43
-4.8875298e+43
-5.230125e+43
5.287893e+42
-1.4370799e+43
8.9720078e+42
-1.5257146e+43
-1.2221728e+43
-1.5776332e+43
-1.4870755e+43
6.0579931e+42
1.0050681e+43
-1.1895211e+43
-1.51392e+43
-1.2569797e+43
-1.6233083e+43
-6.1853408e+42
8.8133306e+42
-6.0995786e+43
-6.0066005e+43
-4.1245612e+42
-1.466378e+43
9.9883066e+42
-1.5256576e+43
-1.2595035e+43
-1.6453308e+43
-1.3694852e+43
9.0025175e+42
-1.2135558e+43
-1.2128014e+43
-1.5751769e+43
-1.5544256e+43
-6.1246457e+42
-6.107952e+43
-6.2276855e+43
-2.6242028e+44
-3.1497737e+43
2.23713e+43
1.9270834e+43
-1.1527128e+43
-1.6096228e+43
-2.7131664e+43
-1.9048815e+43
-1.4718261e+43
1.5009731e+43
1.8014576e+43
-3.3603592e+44
2.6417283e+44
1.7598349e+43
-1.5845468e+43
-1.8582314e+43
1.3999012e+43
-3.3749186e+44
2.2184057e+43
1.8279739e+43
-1.5790915e+43
-1.2160812e+43
-4.4954046e+42
5.5549007e+43
5.949786e+42
-4.0732711e+42
-3.4481748e+42
3.221257e+42
-7.0123013e+43
2.8099839e+42
-5.7122645e+43
4.6417871e+42
-4.0120974e+42
-3.6061572e+42
3.3769214e+42
-4.0243474e+42
-3.6998461e+42
2.7227691e+42
3.2321694e+42
-7.2988277e+43
6.4299083e+42
-4.0346585e+42
-3.3694294e+42
3.2244226e+42
2.8196483e+42
-2.4316571e+43
-2.5062578e+44
3.1650194e+43
1.5352883e+43
1.3736544e+43
-1.6225915e+43
-1.9561561e+43
-2.5161904e+44
-1.6910219e+43
1.5164201e+43
-2.3360634e+43
2.9742778e+43
-3.2507487e+44
-1.0528743e+43
1.6846084e+43
1.4377783e+43
-1.4224166e+43
-3.2624729e+44
-1.0481734e+43
1.5961241e+43
5.961788e+42
5.3375528e+42
6.2142659e+42
-7.4632569e+43
-4.1625902e+41
7.9406607e+42
5.9949774e+42
5.6685383e+42
-7.5819013e+43
-3.8411642e+41
-1.1527529e+42
-6.7978869e+42
6.0264988e+42
5.5993221e+42
-7.5260609e+43
-1.2620735e+42
6.0492704e+42
5.2136128e+42
-7.7150597e+43
-5.4653326e+41
-1.2634074e+42
-3.5081155e+43
-3.0017533e+44
-2.9635623e+44
-1.017057e+43
-5.566627e+42
1.1552779e+43
7.0747375e+42
-6.3491378e+43
-6.5258003e+42
9.3175753e+42
-2.5089567e+43
-5.1478825e+43
9.4450371e+42
-2.1669523e+43
-5.1450057e+43
1.1023536e+43
-6.2449218e+43
5.2758194e+42
2.6958107e+42
-1.332349e+43
-1.3336954e+43
-1.1476183e+43
-1.1569275e+43
2.5820294e+42
6.6923885e+42
-1.3992501e+43
-1.3114887e+43
-1.1283011e+43
-1.2048203e+43
-5.3831419e+42
6.5358793e+42
-1.0498993e+43
-9.5867049e+42
-8.9916289e+42
-9.8134558e+42
-9.9371524e+42
-9.9935941e+42
-9.0573032e+42
6.7626775e+42
9.4680714e+42
-2.1915365e+43
-5.2697822e+43
1.005584e+43
-2.4682604e+43
-5.1237705e+43
-5.2887673e+42
1.1371615e+43
-6.2952126e+43
1.0992208e+43
-6.3009001e+43
-4.4174152e+42
2.7465925e+42
-1.4145471e+43
-1.3154059e+43
-1.1275507e+43
-1.2144569e+43
2.8174887e+42
-1.1571904e+43
-1.3456812e+43
-1.3549802e+43
-1.1735882e+43
-4.3847385e+42
-9.77125e+42
-1.0502167e+43
-9.398587e+42
-1.0125647e+43
-1.004179e+43
-9.0732214e+42
-9.0894403e+42
1.1115736e+42
-3.1605655e+42
1.1141279e+42
2.7017117e+42
-2.4857164e+42
-2.6063198e+42
-3.5146572e+42
-3.3087884e+42
1.5222919e+42
-1.3133349e+43
-3.1333816e+42
-7.0644542e+41
1.0268759e+42
2.7031727e+42
-2.4683723e+42
-2.5961621e+42
-3.2419801e+42
-3.4789126e+42
-9.9460933e+41
1.5763637e+42
-1.2859357e+43
-2.9902961e+42
2.5384452e+42
-3.3782608e+42
-2.5134015e+42
-2.5052321e+42
-3.3133673e+42
-1.3027157e+43
-1.0919782e+42
-2.8834517e+42
-1.0693912e+42
2.4238884e+42
-2.5239655e+42
-2.5164984e+42
-3.3888571e+42
-3.3333536e+42
-1.6602365e+42
-1.3169177e+43
-9.910998e+41
-3.0277878e+42
2.6766537e+42
-2.4860976e+42
-2.5941998e+42
-3.2888438e+42
-3.4935699e+42
-2.8739717e+42
2.4102543e+42
-2.5067728e+42
-2.4888191e+42
-3.3632895e+42
-3.2696359e+42
-1.2406102e+42
-1.3149912e+43
-1.286886e+43
-6.4782808e+42
-5.9547461e+43
-2.870243e+42
4.4687035e+42
-6.0713528e+43
-7.8524006e+42
-2.9390828e+42
-2.2817643e+42
4.3193634e+42
5.109373e+42
-5.7858175e+42
-7.3977321e+43
3.471526e+42
-3.7772474e+42
-7.5861797e+43
-7.0142106e+42
-3.7773111e+42
-3.2199629e+42
4.0136279e+42
3.2640843e+42
5.1294197e+42
5.8123672e+43
-5.9909109e+42
-4.1901401e+42
-3.7514049e+42
3.2639068e+42
2.639463e+42
-7.427283e+43
5.643879e+43
-3.473448e+42
-4.1995006e+42
2.7463022e+42
-7.1268494e+43
5.5855434e+42
-6.4732354e+42
-4.1770999e+42
-3.6454879e+42
3.3324299e+42
2.6494644e+42
-4.1864337e+42
2.7451038e+42
-2.6045539e+43
-2.5228112e+44
1.3652594e+43
1.5578145e+43
-2.032877e+43
-1.6398342e+43
-5.7026669e+43
-5.2069291e+42
7.4918129e+43
3.2831232e+42
-4.1563997e+42
-3.5177563e+42
2.8316192e+42
-4.871597e+42
-3.5759107e+42
2.7662804e+42
3.214831e+42
-4.2342154e+42
-7.2162437e+43
5.6584992e+43
-4.1198768e+42
-3.7281283e+42
3.2080534e+42
-7.2036665e+43
2.5874993e+42
7.3694821e+43
-4.0851154e+42
2.5951322e+42
-3.6330153e+42
3.235161e+42
-2.5290423e+44
1.5662852e+43
1.2980085e+43
-1.7342418e+43
-2.0021935e+43
-5.7936649e+42
-5.9931249e+43
-2.9162532e+42
-2.1474317e+42
4.3856751e+42
4.9155699e+42
-5.9099405e+43
5.0666352e+42
-2.8411264e+42
-2.2382595e+42
4.2348818e+42
5.0116121e+42
3.9285775e+42
-3.2009601e+42
-3.6504666e+42
3.2449287e+42
4.0552819e+42
-3.7387934e+42
-2.9664575e+42
3.4734408e+42
-2.4558385e+43
-3.258133e+44
-1.1028122e+43
1.7044231e+43
1.4256007e+43
-1.5075366e+43
-3.264727e+44
-1.1512296e+43
1.6455823e+43
1.3324284e+43
-1.4260919e+43
7.0695982e+41
1.2176446e+43
-8.6941927e+41
6.1037696e+41
4.9538819e+41
-1.5374974e+43
-9.4589667e+41
-8.7215011e+41
1.2000762e+43
9.334481e+41
6.1322419e+41
5.3718399e+41
-1.5052845e+43
-9.4377999e+41
-8.2920576e+41
-7.8101032e+41
1.5301398e+43
1.0533971e+42
-7.2930295e+41
6.5223706e+41
-8.5192078e+41
5.7722276e+41
-4.7376249e+42
-5.3862535e+43
6.2920919e+42
2.6361839e+42
2.9768895e+42
-4.3824265e+42
-3.6926972e+42
-9.4449579e+41
1.5598676e+43
-7.8392437e+41
6.5153373e+41
-8.5654497e+41
5.4017736e+41
6.992317e+41
-1.5396682e+43
-7.6002527e+41
-8.262288e+41
6.5798208e+41
5.4182683e+41
1.2140611e+43
-1.5645904e+43
9.3870078e+41
-7.3255528e+41
6.5812945e+41
-8.4413831e+41
5.7823354e+41
1.0569183e+42
-7.1631126e+41
6.5726785e+41
-8.3269085e+41
5.7942327e+41
6.1873297e+41
1.2045642e+43
-7.8301429e+41
6.0585275e+41
4.932933e+41
-1.5198133e+43
-9.3654399e+41
-8.701755e+41
1.2219588e+43
6.0018585e+41
5.2498002e+41
-1.5483088e+43
-9.6120343e+41
-8.509927e+41
7.0128161e+41
-8.7224369e+41
-7.8511924e+41
6.4438296e+41
-8.4980214e+41
5.3323179e+41
-7.6481951e+41
6.3156807e+41
-8.6865934e+41
5.6455071e+41
-5.571858e+43
-5.7917891e+42
2.6074365e+42
3.1302008e+42
-3.9108263e+42
-4.3057864e+42
8.0111595e+41
1.2068629e+43
-7.5367989e+41
6.632496e+41
-8.2545243e+41
5.4885844e+41
1.1909682e+43
1.0914435e+42
-7.0102253e+41
6.7423196e+41
-8.2811931e+41
5.8687097e+41
-8.555519e+41
1.509126e+43
1.1709684e+42
-6.9034069e+41
6.6170427e+41
-8.2197816e+41
5.7804423e+41
-7.3671465e+41
6.6608767e+41
-8.2103112e+41
5.4850997e+41
-4.8416552e+42
-6.9678833e+43
6.7310967e+42
-4.4668274e+42
-3.6982694e+42
3.2422201e+42
2.6238356e+42
-6.0805106e+42
-7.176711e+43
-4.3967871e+42
-3.7823287e+42
3.2895665e+42
2.6153865e+42
5.3157272e+43
-6.8196801e+43
-4.5821834e+42
-4.0037888e+42
2.8244657e+42
2.5113008e+42
2.665997e+42
-3.9274367e+42
2.3657609e+42
-4.4835279e+42
1.1859678e+43
-1.4974677e+43
5.709348e+41
5.0618202e+41
-9.7254015e+41
-8.5188512e+41
-7.5900158e+41
6.1005802e+41
-8.6206525e+41
1.1880601e+42
-6.3796739e+41
7.2422598e+41
-7.7114802e+41
-2.3779175e+43
-2.5608751e+44
2.8201749e+43
1.6474073e+43
1.9372652e+43
-1.0364136e+43
-1.4005918e+43
5.2369298e+43
-5.8594055e+42
7.3031037e+42
-6.514176e+43
-3.4252669e+42
-2.5813603e+42
3.1327032e+42
3.6739611e+42
-5.335228e+42
7.3396954e+42
3.0680104e+42
-3.7211193e+42
-4.4916033e+42
2.6768007e+42
-5.3628254e+43
-6.7600644e+42
3.3305507e+42
-3.9362351e+42
-4.419884e+42
2.6893497e+42
-7.3812879e+42
-6.6800852e+43
-3.370517e+42
-2.7949862e+42
2.9949891e+42
3.6408511e+42
-2.5896207e+44
-1.1893391e+43
1.9310568e+43
-1.2909263e+43
5.1042876e+43
-6.4464322e+43
-3.3387204e+42
-2.5106229e+42
2.9169459e+42
3.4462906e+42
-3.8735508e+42
-4.53772e+42
2.8520315e+42
2.5203284e+42
-1.9287723e+43
-2.915923e+44
2.7801441e+43
-5.0469124e+43
-2.8498671e+44
-5.3029753e+43
1.4090785e+42
1.2788381e+42
1.3375912e+42
-1.6216912e+43
-6.1826157e+40
-1.9845068e+41
-1.1731225e+42
1.5340817e+42
1.3107871e+42
1.2566088e+42
-1.5919421e+43
-4.9023343e+40
-2.0338174e+41
1.3366803e+42
1.1751058e+42
-1.6162104e+43
-8.4017264e+40
-2.0961802e+41
-1.5846874e+42
1.3307024e+42
1.1597448e+42
-1.6361643e+43
-8.6489392e+40
-2.3061636e+41
-1.2282659e+42
1.3052633e+42
1.2264921e+42
-1.6276749e+43
-7.3550359e+40
-2.3432148e+41
1.331779e+42
1.1499189e+42
-1.6008637e+43
-8.4109392e+40
-2.1540274e+41
-3.530105e+43
-6.6449117e+42
-1.899977e+42
-3.1160044e+44
-2.118878e+42
-5.9266436e+42
-3.112963e+44
-1.0170525e+43
-5.3356528e+42
5.0290565e+42
5.3382381e+42
5.6765191e+42
-6.3778072e+43
-4.1156391e+41
1.6063034e+41
-6.0117234e+42
7.9920745e+42
-6.5748575e+43
9.4589146e+42
-6.6157589e+43
4.8396039e+42
5.3809089e+42
-6.3597065e+43
1.612178e+41
-3.7929589e+41
1.0510064e+42
2.3993337e+42
-1.0726087e+43
2.4669542e+42
1.4017136e+42
-1.0773705e+43
-1.0187082e+42
1.227855e+42
2.4333326e+42
-1.16517e+43
2.4045618e+42
-1.1533771e+43
9.0622274e+41
2.4332499e+42
-1.0901203e+43
2.4942311e+42
1.5194714e+42
-1.0884128e+43
-8.5923657e+41
2.4328977e+42
1.2862314e+42
-1.164867e+43
2.4160449e+42
-1.1662378e+43
3.8759151e+40
8.6821571e+41
-1.29285e+42
-2.1029393e+42
-2.1109865e+42
-1.7342797e+42
-1.7488608e+42
7.5406968e+41
-1.166502e+42
-1.6372222e+42
-1.6291133e+42
-1.6628791e+42
-1.6678476e+42
3.8766128e+40
1.0811501e+42
-1.5896813e+42
-1.6916633e+42
-1.6361001e+42
-1.736855e+42
1.2786453e+42
-1.6813802e+42
-2.2017283e+42
-2.0537854e+42
-1.8153263e+42
-1.0301514e+42
-5.5060828e+40
-2.0405114e+42
-2.180657e+42
-1.6838949e+42
-1.8063868e+42
-2.0914952e+42
-2.0850577e+42
-1.7151747e+42
-1.5780938e+42
-1.6844058e+42
-1.7371149e+42
-1.6268231e+42
7.0733277e+42
9.3216317e+42
-6.7745624e+43
1.0017119e+43
-6.556827e+43
-5.962228e+42
4.9441469e+42
5.3479149e+42
-6.3337154e+43
1.8313874e+41
-5.5337043e+41
5.3470004e+42
4.725826e+42
-6.3589979e+43
-5.6296428e+41
1.0703964e+41
1.0615891e+42
2.422441e+42
-1.5877994e+42
-1.109755e+43
2.4943706e+42
-1.0984735e+43
-9.2275523e+41
2.3887242e+42
-1.1669911e+43
-1.3119599e+42
2.3684649e+42
-1.1701384e+43
-2.4400832e+42
-1.1240899e+42
2.3787708e+42
-1.1698459e+43
-1.218144e+42
-1.091955e+43
2.3561415e+42
-1.087879e+43
2.3519847e+42
-1.1569582e+43
-8.747961e+41
-2.2454822e+42
-2.0920038e+42
-1.8209668e+42
8.1468134e+40
-1.2961159e+42
-1.7391903e+42
-1.7632215e+42
-2.1554173e+42
-2.1360171e+42
-1.1316654e+42
-1.6193562e+42
-1.6190725e+42
-1.6521666e+42
-1.6555399e+42
1.0936586e+42
8.4488382e+40
-1.7197127e+42
-1.7374672e+42
-2.1110604e+42
-2.104921e+42
-6.6399201e+40
-1.6885266e+42
-1.8194959e+42
-2.221932e+42
-2.0691214e+42
-9.8831282e+41
-1.5716364e+42
-1.6765419e+42
-1.6285762e+42
-1.7295633e+42
-1.6116222e+42
-1.6127359e+42
-1.6383245e+42
-1.6391773e+42
-1.3927877e+41
-7.0055144e+41
2.0884388e+41
7.7060972e+41
-5.4703926e+41
-5.107074e+41
-7.5519773e+41
-8.1239435e+41
-6.6883356e+41
7.420678e+41
-5.2590009e+41
-5.1958416e+41
-7.8404095e+41
-7.724815e+41
1.7926513e+41
-2.8028528e+42
2.8715576e+41
-2.779639e+42
-1.2537191e+41
-6.9481442e+41
1.9507625e+41
7.6837695e+41
-5.4478709e+41
-5.0983583e+41
-7.5112688e+41
-8.0588857e+41
-6.6421805e+41
-2.0467164e+41
7.3797071e+41
-5.2177552e+41
-5.1644135e+41
-7.8265937e+41
-7.6973837e+41
-1.8314138e+41
2.9700347e+41
-2.7398691e+42
-2.9139598e+41
-2.7782672e+42
6.8076912e+41
-2.2373632e+41
-2.7900092e+42
-1.9317465e+41
7.7249254e+41
-5.4289536e+41
-5.083802e+41
-7.5922772e+41
-8.061184e+41
-6.5550281e+41
7.2604874e+41
-5.159962e+41
-5.1127728e+41
-7.7616356e+41
-7.5667139e+41
-2.7303448e+42
-1.9746902e+41
-6.6787563e+41
7.5772632e+41
-5.443401e+41
-5.1043842e+41
-7.6033548e+41
-8.0887578e+41
-6.3839271e+41
-2.0729535e+41
6.9884805e+41
-5.1738792e+41
-5.1203356e+41
-7.7746988e+41
-7.6023541e+41
-2.4378476e+41
-2.8022656e+42
-3.1403744e+41
-2.7417488e+42
-1.471297e+41
-6.7815911e+41
7.5569983e+41
-5.4562703e+41
-5.0902763e+41
-7.5643003e+41
-8.1271897e+41
-6.4275568e+41
-2.2860419e+41
7.1527272e+41
-5.2135805e+41
-5.1386822e+41
-7.8024699e+41
-7.6976857e+41
-2.0430976e+41
-2.7714672e+42
-3.2296734e+41
-2.7911756e+42
-2.0358369e+41
-6.767047e+41
7.6484239e+41
-5.4409982e+41
-5.0934407e+41
-7.5965339e+41
-8.068331e+41
-6.4780303e+41
7.1025013e+41
-5.1626469e+41
-5.1282694e+41
-7.7510454e+41
-7.555771e+41
-2.4265739e+41
-2.788525e+42
-2.7131739e+42
2.4899271e+44
2.3978913e+44
-8.4357106e+43
8.2378731e+43
1.2808242e+43
-1.4156051e+42
-1.5960733e+43
-5.4350595e+41
9.5658152e+41
-6.5730912e+41
8.0008249e+41
-1.5457376e+42
-3.7743795e+41
1.1203055e+42
-5.1006101e+41
9.5726214e+41
1.0504428e+42
1.2602618e+43
-1.5729973e+43
-1.3835399e+42
-5.5080464e+41
-6.5367251e+41
9.4064855e+41
7.8519886e+41
1.2732096e+43
-1.5946804e+43
-5.2434603e+41
-6.7304186e+41
9.4050866e+41
8.2466214e+41
1.1743701e+42
-1.4555479e+42
-3.7433175e+41
1.1137911e+42
-4.949941e+41
9.5005634e+41
-3.5976749e+41
-5.1395942e+41
1.0882793e+42
9.7880028e+41
-1.2249995e+43
-1.4109661e+42
-6.4516126e+41
-7.6473076e+41
8.011954e+41
6.4601722e+41
-1.2868993e+42
-1.5594142e+43
-6.8954245e+41
-7.9700191e+41
7.2907774e+41
5.7668732e+41
9.9594785e+41
1.2133686e+43
-1.5372509e+43
-1.3231044e+42
-7.9622475e+41
-6.9762128e+41
7.1699132e+41
5.6552942e+41
1.2289979e+43
-1.5653009e+43
-6.6860973e+41
-8.1102752e+41
7.2275545e+41
6.0899926e+41
-1.0834594e+42
-6.2848963e+41
-7.7576177e+41
7.6974736e+41
6.6380107e+41
-1.4176208e+42
-6.5129956e+41
-7.600801e+41
7.8340785e+41
6.2993123e+41
7.4938415e+41
1.2201374e+43
-9.797208e+41
6.0311348e+41
4.7713819e+41
-1.5386686e+43
-9.6410982e+41
-8.9063541e+41
1.2379719e+43
1.004146e+42
6.0892143e+41
5.2832365e+41
-1.5698872e+43
-9.6628816e+41
-8.5797213e+41
-8.5735251e+41
1.1211641e+42
1.5825404e+43
-7.6312664e+41
6.4909524e+41
-8.9242202e+41
5.6086681e+41
1.556381e+43
-1.0992538e+42
-7.859992e+41
6.5763034e+41
-8.757018e+41
5.2299993e+41
5.2724659e+42
-5.6815074e+43
-6.369409e+42
2.5693441e+42
3.1510596e+42
-3.9804859e+42
-4.4481423e+42
-7.9832345e+41
5.3813847e+41
-1.5326999e+43
-8.3331682e+41
-9.638128e+41
1.2296038e+43
6.0609979e+41
4.8977528e+41
-1.5545028e+43
-8.8887826e+41
-9.516854e+41
1.5739712e+43
-7.8579122e+41
-8.8298295e+41
6.5768579e+41
5.2726305e+41
-5.4885033e+43
3.0324877e+42
2.5592216e+42
-4.5314946e+42
-3.7517134e+42
8.6247875e+41
1.2086363e+43
-1.1440094e+42
-7.6038095e+41
-8.4796821e+41
6.6479069e+41
5.2544063e+41
1.2246535e+43
1.1522782e+42
-7.3047874e+41
6.6985167e+41
-8.6314658e+41
5.6735617e+41
-1.0148979e+42
1.2920053e+42
-7.1787187e+41
6.6481596e+41
-8.5965685e+41
5.6156738e+41
-1.2632893e+42
-7.4226159e+41
6.7201032e+41
-8.443365e+41
5.2630064e+41
1.2191488e+43
-8.5150467e+41
5.3100754e+41
-8.469939e+41
6.7758236e+41
5.3577103e+41
5.2821398e+42
-6.6379134e+42
-7.3013393e+43
-4.5957342e+42
-3.9422721e+42
3.247481e+42
2.5158308e+42
-7.0899234e+43
7.5055421e+42
-3.7842299e+42
-4.6482413e+42
3.2769762e+42
2.5479621e+42
-1.2078892e+43
-9.5339426e+41
1.5358643e+43
-7.0262354e+41
6.7104935e+41
-8.4855937e+41
5.7361296e+41
8.7952665e+41
1.2285495e+43
-1.5831469e+43
-1.1041326e+42
-7.6077267e+41
-8.4670642e+41
6.7736268e+41
5.4430006e+41
-1.5516473e+43
-7.1900069e+41
6.6590369e+41
-8.5851362e+41
5.6695374e+41
-1.1560181e+42
1.5673681e+43
-7.4285521e+41
-8.3682753e+41
6.7851801e+41
5.4722378e+41
1.2137789e+43
-7.7440162e+41
6.0639823e+41
5.1772071e+41
-1.5240121e+43
-9.7136309e+41
-8.3165164e+41
8.3600054e+41
-1.2349103e+43
-1.0969789e+42
-7.8682505e+41
6.6928965e+41
-8.7742877e+41
5.3985914e+41
-7.5056101e+41
6.4155598e+41
-8.7799451e+41
5.598932e+41
-9.8270051e+41
6.0778694e+41
4.8581529e+41
-1.5607615e+43
-8.9363044e+41
-9.673769e+41
-5.0782936e+42
-5.4987697e+43
2.9708994e+42
2.5839032e+42
-4.4984368e+42
-3.8593734e+42
7.4368597e+41
1.2087946e+43
6.1267611e+41
4.8585092e+41
-1.5298691e+43
-9.4905012e+41
-8.6884699e+41
1.2257969e+43
6.0496813e+41
5.1252419e+41
-1.5519246e+43
-9.7427085e+41
-8.4908714e+41
-8.3059623e+41
1.5653104e+43
-7.6202955e+41
6.3569121e+41
-8.80834e+41
5.5370952e+41
-5.5488741e+43
2.6170259e+42
3.1242054e+42
-3.9348605e+42
-4.1604122e+42
1.5349709e+43
-7.7802772e+41
6.5332073e+41
-8.5627922e+41
5.2952348e+41
1.1931665e+43
8.083342e+41
-7.5084255e+41
6.6246984e+41
-8.300566e+41
5.3446687e+41
9.2097466e+41
1.5138762e+43
-7.3436525e+41
6.6591235e+41
-8.2623614e+41
5.3272012e+41
1.2087426e+43
-7.2886215e+41
6.5529321e+41
-8.5226012e+41
5.6269401e+41
1.5445628e+43
-7.1717971e+41
6.4820919e+41
-8.4621559e+41
5.5710261e+41
-4.94368e+42
-7.1226704e+43
-4.5671833e+42
-3.966415e+42
2.9599687e+42
2.7759832e+42
-7.0957194e+43
-4.0558871e+42
3.1522316e+42
2.5996558e+42
-4.4620651e+42
1.0265862e+42
1.2699082e+43
-1.2514145e+42
-1.5925266e+43
-5.5000917e+41
-6.5049832e+41
9.388104e+41
7.9645724e+41
1.2595598e+43
-1.5727346e+43
-5.0568361e+41
9.4922923e+41
-6.5686764e+41
8.4068525e+41
1.0954716e+42
-1.3637049e+42
-3.7787902e+41
1.1040696e+42
-4.9305619e+41
9.577531e+41
-3.4310177e+41
1.0835897e+42
-4.9497576e+41
9.861589e+41
-1.2672998e+43
-1.0953698e+42
-3.5397296e+41
1.0987791e+42
-4.937513e+41
1.0033325e+42
9.6765412e+41
1.2461108e+43
-1.5499419e+43
-5.4182877e+41
-6.3665867e+41
9.4134122e+41
7.9616872e+41
-1.57987e+43
-5.193151e+41
9.4318856e+41
-6.5810364e+41
8.3791432e+41
-3.6504523e+41
-4.7585522e+41
-1.2153753e+43
-9.9086022e+41
1.2351677e+42
-6.2561451e+41
7.6198787e+41
-7.6198276e+41
6.649338e+41
-8.9103596e+41
1.1269033e+42
-6.6604832e+41
-7.9627893e+41
7.0967481e+41
6.0770114e+41
1.1956736e+43
-6.8686647e+41
-7.7431707e+41
7.1403591e+41
5.7573206e+41
-6.4207855e+41
-7.4256775e+41
7.7685895e+41
6.346796e+41
-1.2133657e+43
-1.0386995e+42
-6.0893562e+41
7.7613984e+41
-7.5899744e+41
6.7446554e+41
9.6320704e+41
1.2272087e+43
-6.9405181e+41
-7.8479419e+41
7.2099481e+41
5.843492e+41
-6.4862091e+41
7.2350099e+41
-7.9284991e+41
6.1660108e+41
-6.5012605e+41
-7.5479305e+41
7.8143651e+41
6.4021227e+41
-2.4348417e+43
-2.5644604e+44
1.9354831e+43
1.6446544e+43
-1.0298276e+43
-1.4109286e+43
5.3419547e+43
-5.94909e+42
7.6527958e+42
-6.63987e+43
3.587954e+42
-2.7709628e+42
-3.679531e+42
3.1098684e+42
-5.5992379e+42
7.7859132e+42
3.1768248e+42
-3.7633194e+42
-4.6622e+42
2.6265605e+42
-5.47561e+43
-7.0071363e+42
3.4427587e+42
-3.9794825e+42
-4.6314744e+42
2.5748048e+42
-7.2423302e+42
-6.8485773e+43
3.6988056e+42
-3.0083138e+42
-3.6452275e+42
2.9022673e+42
-2.6028764e+44
1.6179764e+43
1.9642728e+43
-1.1837492e+43
-1.3268396e+43
5.342777e+43
-5.4477468e+42
-6.6791824e+43
-3.6722384e+42
-2.8508995e+42
3.5742542e+42
3.0060453e+42
-5.1525892e+42
-3.9880696e+42
2.9248793e+42
2.6003259e+42
-4.7347926e+42
-5.2756103e+43
-4.517927e+42
-3.9835882e+42
3.2336394e+42
2.5781723e+42
-6.5232515e+43
-3.4698672e+42
-2.8940556e+42
3.5731557e+42
2.8616114e+42
-2.0769484e+43
-2.928826e+44
-4.8033781e+43
-2.8637623e+44
-5.144476e+43
-1.5715383e+41
-2.6562485e+42
2.0064213e+41
3.3261487e+42
-1.642942e+41
-1.8369031e+41
1.3077054e+41
1.1420382e+41
-2.5961465e+42
3.246155e+42
-1.9997572e+41
1.319841e+41
1.0697915e+41
-1.7003048e+41
-1.8073109e+41
7.0732594e+41
-1.192875e+43
-9.1922058e+41
6.1749825e+41
-8.3036472e+41
-9.0001365e+41
5.147367e+41
1.3231322e+41
-1.6922614e+41
-3.2807653e+42
-2.2436389e+41
1.6649401e+41
-3.3685284e+42
-1.9405103e+41
-1.6441807e+41
-2.6152063e+42
3.2585104e+42
2.2259361e+41
-1.5870258e+41
-1.8097122e+41
1.3459189e+41
1.1682744e+41
-2.6386872e+42
3.3091229e+42
1.3739278e+41
1.1201901e+41
-1.6681491e+41
-1.7962426e+41
-1.1779769e+43
9.3633035e+41
-8.9863324e+41
-7.9005111e+41
6.115823e+41
5.519114e+41
1.4110851e+41
-3.3532169e+42
-2.0386396e+41
1.8871039e+41
-3.298327e+42
-1.9368695e+41
2.5086567e+42
-1.629249e+41
2.1876904e+41
-1.4006614e+41
-1.6763737e+41
1.2654392e+41
1.4586665e+41
-1.6396795e+41
3.1539493e+42
2.2466633e+41
-1.4437234e+41
-1.7187223e+41
1.4024608e+41
1.2224509e+41
2.5329067e+42
-1.9589613e+41
1.2177153e+41
-1.4721609e+41
1.4701992e+41
-1.6430817e+41
-2.0265514e+41
3.2082185e+42
1.4276976e+41
-1.5131905e+41
-1.6896811e+41
1.1811606e+41
6.9999165e+41
-9.0736476e+41
-1.5504216e+43
-9.1505394e+41
-8.5099326e+41
6.4342565e+41
5.2303512e+41
-1.5231351e+43
9.4390675e+41
-8.9922689e+41
-7.9761353e+41
6.346898e+41
5.7712088e+41
2.5416776e+42
-1.4369953e+41
1.2394295e+41
-1.4647673e+41
1.4143323e+41
-1.7054892e+41
-1.5877689e+41
3.2153536e+42
1.3692376e+41
-1.4955788e+41
-1.736075e+41
1.2022173e+41
2.4959746e+42
-1.9220069e+41
1.1668101e+41
-1.5066129e+41
1.4156896e+41
-1.6545151e+41
-1.945436e+41
3.1452445e+42
1.378259e+41
-1.5432754e+41
-1.6992246e+41
1.1309901e+41
-1.4791172e+41
2.471289e+42
1.8901468e+41
-3.2084749e+42
-1.4796054e+41
1.3699366e+41
1.1840023e+41
-1.7137407e+41
2.4181498e+42
-3.1260026e+42
-1.6701212e+41
-1.5262519e+41
1.3604846e+41
1.1069572e+41
-1.5809151e+41
1.9535656e+41
1.1933379e+41
-1.4669046e+41
1.350018e+41
-1.6874273e+41
-1.6604512e+41
1.1113436e+41
-1.5074219e+41
1.3639778e+41
2.4513329e+42
-1.5238308e+41
-3.1665909e+42
1.943924e+41
1.2084305e+41
-1.4623484e+41
1.3604434e+41
-1.6995775e+41
-1.5611149e+41
3.1178492e+42
2.0662525e+41
-1.4488264e+41
1.3506802e+41
1.1982039e+41
-1.6890474e+41
2.4710864e+42
-3.2100711e+42
1.1393991e+41
-1.5263984e+41
1.3793957e+41
-1.6776068e+41
3.152977e+42
-1.5111168e+41
1.3784935e+41
-1.6564352e+41
1.144948e+41
2.4107938e+42
-1.5823426e+41
2.0868717e+41
1.1765881e+41
-1.4382332e+41
1.3465515e+41
-1.6819812e+41
-1.6031607e+41
2.1286714e+41
1.3432718e+41
-1.4321366e+41
-1.6736439e+41
1.1888551e+41
2.4248521e+42
-1.6494009e+41
1.1249456e+41
-1.50471e+41
1.3606206e+41
1.3745784e+41
-1.4901802e+41
-1.6480699e+41
1.1401632e+41
-1.4400497e+41
-2.6463406e+42
1.8408641e+41
3.3158257e+42
-1.6369664e+41
-1.827153e+41
1.293539e+41
1.133453e+41
-2.5813515e+42
3.2250049e+42
-1.8454358e+41
1.3173207e+41
1.0690302e+41
-1.6894548e+41
-1.795112e+41
6.6210326e+41
-1.1853384e+43
-8.1138933e+41
6.1592912e+41
-8.2742731e+41
-8.9154155e+41
5.1501402e+41
1.2187791e+41
-1.5641606e+41
-3.2607837e+42
-2.2257267e+41
1.5554406e+41
-3.3563984e+42
-1.9378395e+41
-1.445405e+41
-2.6338831e+42
3.2798283e+42
-1.6201317e+41
-1.8229568e+41
1.2926538e+41
1.1384969e+41
-2.6373714e+42
3.3089999e+42
1.3312294e+41
1.0910228e+41
-1.6889539e+41
-1.8043208e+41
-1.2064409e+43
6.1305109e+41
-7.9102124e+41
-9.1296381e+41
5.4533933e+41
1.2698774e+41
-3.3533703e+42
-2.1664764e+41
-3.3294355e+42
-1.9767841e+41
2.5338238e+42
-1.3396008e+41
1.8300078e+41
-1.4590862e+41
-1.6938049e+41
1.4012353e+41
1.2300806e+41
-1.5190572e+41
1.902303e+41
-1.7343514e+41
1.3542925e+41
1.1891595e+41
-1.4950222e+41
2.4819737e+42
-1.839138e+41
-1.4979186e+41
-1.6445564e+41
1.1613217e+41
1.4129827e+41
-1.8811718e+41
-1.5395087e+41
-1.6959361e+41
1.3704791e+41
1.119116e+41
2.5170033e+42
-1.4408267e+41
1.2358134e+41
-1.4443508e+41
1.4005388e+41
-1.6931202e+41
-1.4639954e+41
-1.4828094e+41
1.3510721e+41
1.1987577e+41
-1.7286524e+41
2.5319205e+42
1.188748e+41
-1.494348e+41
1.4292469e+41
-1.6502621e+41
-1.5373576e+41
1.3882469e+41
-1.7012444e+41
1.1526642e+41
-5.9864448e+41
-1.5766075e+43
6.5036517e+41
-8.1940302e+41
-9.1804497e+41
5.6920237e+41
-1.5334013e+43
-8.4233883e+41
-9.0343049e+41
-8.4383633e+41
6.4249127e+41
5.2331489e+41
2.477618e+42
-1.5386141e+41
2.0137984e+41
1.1887115e+41
-1.478218e+41
1.3697107e+41
-1.7148228e+41
-1.6552409e+41
2.1184059e+41
3.1582183e+42
-1.4710796e+41
1.3551926e+41
1.1877649e+41
-1.7085379e+41
2.4319938e+42
-1.6704662e+41
1.113507e+41
-1.5253824e+41
1.365638e+41
3.0918994e+42
-1.5110169e+41
1.3654898e+41
-1.6686005e+41
1.1146728e+41
2.4441395e+42
-1.6965024e+41
2.2828705e+41
1.2129438e+41
-1.4254285e+41
1.4082393e+41
-1.6942456e+41
-1.7514299e+41
3.1036082e+42
2.3914259e+41
-1.4127102e+41
-1.6859356e+41
1.3944436e+41
1.2118447e+41
2.4707296e+42
1.1620696e+41
-1.5005582e+41
1.4154102e+41
-1.6659282e+41
3.1518252e+42
1.4131922e+41
-1.4862869e+41
-1.6623965e+41
1.1602254e+41
2.3995456e+42
-1.7716579e+41
2.3803456e+41
1.2002355e+41
-1.3993733e+41
1.3985264e+41
-1.6708518e+41
-1.7693064e+41
3.0445342e+42
2.4075999e+41
-1.3921279e+41
-1.6638761e+41
1.383658e+41
1.201216e+41
2.4221146e+42
-2.1199108e+41
-1.6414152e+41
1.1459075e+41
-1.477071e+41
1.3981633e+41
-2.1804215e+41
3.0959822e+42
1.4019254e+41
-1.463831e+41
-1.6390934e+41
1.1538855e+41
2.4295319e+42
-1.6049885e+41
1.1799946e+41
-1.4509997e+41
1.3597045e+41
-1.6838979e+41
-1.7177062e+41
3.1080093e+42
1.3527352e+41
-1.4422722e+41
-1.6801043e+41
1.1830336e+41
2.388364e+42
-1.6454193e+41
1.1022617e+41
-1.5010267e+41
1.3511132e+41
1.3607855e+41
-1.4861054e+41
-1.6425423e+41
1.1132428e+41
8.2399199e+41
1.2049221e+43
-9.4827646e+41
-1.5727458e+43
-9.5666538e+41
-9.0003086e+41
5.2876403e+41
6.63629e+41
1.1842328e+43
-1.5322769e+43
1.0128974e+42
-9.3317929e+41
-7.8072132e+41
6.9517563e+41
6.1199314e+41
-7.8018408e+41
1.0711468e+42
-8.8597056e+41
-7.7611574e+41
6.3891343e+41
5.8540836e+41
-9.7784294e+41
6.2041667e+41
-8.5025076e+41
-9.2182994e+41
5.181649e+41
6.9698755e+41
1.1961135e+43
-8.8304007e+41
-1.5565261e+43
-9.402263e+41
-8.7923817e+41
5.4263751e+41
6.7022185e+41
1.225414e+43
-1.5862885e+43
-9.2989284e+41
-8.0927076e+41
6.2164301e+41
6.9264879e+41
-6.7164838e+41
6.2769497e+41
-8.2141552e+41
-9.1375296e+41
5.7891234e+41
-8.637977e+41
6.32567e+41
-8.3565646e+41
-8.9589742e+41
5.3364572e+41
7.3981848e+41
1.2070865e+43
-1.0007163e+42
-1.566878e+43
-9.6929177e+41
-9.2457486e+41
6.0825321e+41
5.6224589e+41
1.1909045e+43
-1.5395332e+43
-9.7141431e+41
-8.8693228e+41
5.9698798e+41
6.0063813e+41
-7.2644431e+41
1.522221e+43
5.839184e+41
-8.4413709e+41
-9.2021351e+41
5.5438202e+41
1.5497296e+43
-9.1546873e+41
-8.7699206e+41
6.0619075e+41
5.2431044e+41
-1.1759318e+43
-6.8945026e+41
5.6894324e+41
-8.1615254e+41
-9.266733e+41
5.0258347e+41
-6.9711149e+41
5.9103599e+41
-8.1921421e+41
-9.2340727e+41
5.4181392e+41
-1.1914278e+43
5.9378337e+41
-8.6006207e+41
-9.256742e+41
4.7138224e+41
5.9240452e+41
-8.7393341e+41
-9.2108921e+41
5.0335759e+41
-1.5746721e+43
-9.5280951e+41
-8.5352911e+41
6.4623779e+41
5.8916976e+41
-2.6367558e+42
1.883506e+41
-1.6560201e+41
-1.8344923e+41
1.264159e+41
1.1151864e+41
1.55969e+41
-3.3455174e+42
-2.0645445e+41
-1.4112499e+41
-2.5930328e+42
3.2278346e+42
-1.6277601e+41
-1.8257349e+41
1.2636569e+41
1.116985e+41
-2.6132116e+42
3.2762247e+42
1.3132285e+41
1.083599e+41
-1.6927136e+41
-1.8001669e+41
1.2622791e+41
-3.3276261e+42
-2.2838398e+41
-3.2711277e+42
-2.0397801e+41
2.4829906e+42
-1.4137567e+41
1.2106938e+41
-1.4513061e+41
1.3697908e+41
-1.696129e+41
-1.4874125e+41
-1.7276729e+41
1.3180289e+41
1.1741172e+41
1.1784638e+41
-1.497273e+41
1.4076913e+41
-1.6461131e+41
2.1322486e+41
1.2057839e+41
-1.3965727e+41
1.3858722e+41
-1.6301336e+41
2.3756446e+42
-1.7841817e+41
2.3993064e+41
1.2240441e+41
-1.342e+41
1.422913e+41
-1.6108582e+41
2.5243326e+41
-1.3112924e+41
-1.5825166e+41
1.4323763e+41
1.2515573e+41
1.1693333e+41
-1.4216987e+41
1.4207518e+41
-1.5843649e+41
6.5873611e+42
-5.2239468e+43
-7.8542548e+42
4.3054052e+42
3.5216058e+42
-2.5214343e+42
-2.1259591e+42
-5.0441521e+43
7.6160437e+42
4.2758147e+42
3.6442415e+42
-2.5543692e+42
-1.7219414e+42
-5.1515883e+42
-5.6657067e+43
7.8405025e+42
-6.837483e+42
-7.7988817e+42
-5.6270173e+43
-7.327884e+42
1.3233461e+42
1.2079236e+43
-1.5474371e+42
-1.5001582e+43
-8.9771902e+41
-7.7487626e+41
7.4505046e+41
6.487176e+41
1.1809592e+43
1.6638582e+42
-1.4529611e+43
-8.95877e+41
-7.3000422e+41
7.4377658e+41
6.8025315e+41
1.1861906e+42
1.5934524e+43
-1.3975747e+42
-9.7713231e+41
-8.8025425e+41
7.2771163e+41
6.1847619e+41
1.5547293e+43
1.5668473e+42
-9.740792e+41
-8.2200539e+41
7.1068485e+41
6.4100288e+41
-1.1999002e+43
-9.1240044e+41
1.1528883e+42
7.0108401e+41
-8.2967178e+41
-9.5876561e+41
5.9110976e+41
-1.001496e+42
1.3643979e+42
6.7277067e+41
-8.4424081e+41
-9.7225077e+41
6.0799112e+41
1.2237846e+43
-1.1541946e+42
-9.7700409e+41
-9.134671e+41
6.688619e+41
5.793847e+41
-1.052628e+42
6.3588146e+41
-9.0326561e+41
-9.5700264e+41
5.5180278e+41
-1.2295758e+43
-8.5293818e+41
7.1391392e+41
-8.1272378e+41
-9.6616059e+41
6.2870564e+41
-8.8191966e+41
-1.590948e+43
6.8284711e+41
-8.8998364e+41
-9.9999428e+41
6.1234489e+41
1.2133939e+43
-1.5709987e+43
-1.1256946e+42
-9.6744661e+41
-9.0880356e+41
6.8752196e+41
5.886709e+41
-9.85208e+41
6.5219078e+41
-8.8419738e+41
-9.3658047e+41
5.588858e+41
1.1995284e+42
1.1913692e+43
-1.6059412e+42
-1.4649194e+43
-8.7023291e+41
-7.5431213e+41
7.4519793e+41
6.5074816e+41
1.2069843e+43
-1.4945778e+43
-9.1483459e+41
-7.5490061e+41
7.3285894e+41
6.6992045e+41
1.0400423e+42
-1.3440623e+42
-9.6242e+41
-8.7393245e+41
7.2434862e+41
6.1471924e+41
-1.0031183e+42
-8.7048201e+41
6.9121303e+41