/*--------------------------------*- C++ -*----------------------------------*\
  =========                 |
  \\      /  F ield         | OpenFOAM: The Open Source CFD Toolbox
   \\    /   O peration     | Website:  https://openfoam.org
    \\  /    A nd           | Version:  7
     \\/     M anipulation  |
\*---------------------------------------------------------------------------*/
FoamFile
{
    version     2.0;
    format      ascii;
    class       volScalarField;
    location    "1000";
    object      p;
}
// * * * * * * * * * * * * * * * * * * * * * * * * * * * * * * * * * * * * * //

dimensions      [0 2 -2 0 0 0 0];

internalField   nonuniform List<scalar> 
34378
(
-7.9940433e+95
-8.0440389e+95
-7.7570982e+95
-8.0067466e+95
-7.6164299e+95
-7.7395364e+95
-7.2959651e+95
-7.7855478e+95
-7.790304e+95
-7.8056977e+95
-7.8084966e+95
-8.0650692e+95
-7.6217968e+95
-7.6183952e+95
-7.5115139e+95
-7.5159199e+95
-7.7590717e+95
-7.7579156e+95
-7.619425e+95
-7.6200702e+95
-7.6119861e+95
-7.5034584e+95
-6.9981143e+95
-6.7008074e+95
-6.2387195e+95
-7.3052025e+95
-7.3141421e+95
-7.32157e+95
-7.3049198e+95
-7.3081405e+95
-7.6351533e+95
-7.5897011e+95
-7.5761428e+95
-7.656856e+95
-7.6645842e+95
-7.8115461e+95
-7.5987906e+95
-7.6048271e+95
-7.6477705e+95
-7.6430998e+95
-7.67572e+95
-7.6719924e+95
-7.6672941e+95
-7.8119939e+95
-7.6637796e+95
-7.8138454e+95
-7.8126899e+95
-7.545258e+95
-7.5444214e+95
-7.6224241e+95
-7.4678705e+95
-7.469554e+95
-7.5427009e+95
-7.5396855e+95
-7.4620462e+95
-7.4652187e+95
-7.5186429e+95
-7.5207514e+95
-7.6236252e+95
-7.6209858e+95
-7.5191586e+95
-7.6230261e+95
-7.5207332e+95
-7.5371441e+95
-7.5336315e+95
-7.458838e+95
-7.4549309e+95
-6.7090699e+95
-7.010697e+95
-7.0062733e+95
-7.1466141e+95
-7.1384474e+95
-6.9651482e+95
-6.9734349e+95
-6.83439e+95
-6.6978782e+95
-6.6904066e+95
-6.8264683e+95
-6.4278995e+95
-6.8188789e+95
-6.6826896e+95
-6.4165247e+95
-6.1363393e+95
-6.126726e+95
-6.1229468e+95
-6.1125833e+95
-6.3614299e+95
-6.3738575e+95
-6.9559257e+95
-7.1288348e+95
-7.3320093e+95
-7.3367251e+95
-7.3426739e+95
-7.3398618e+95
-7.3459903e+95
-7.3496691e+95
-7.3260197e+95
-7.3273039e+95
-7.3290864e+95
-7.3276156e+95
-7.470202e+95
-7.445796e+95
-7.4782089e+95
-7.4315389e+95
-7.4191904e+95
-7.5924177e+95
-7.588461e+95
-7.5757057e+95
-7.5720031e+95
-7.5546698e+95
-7.558831e+95
-7.5795669e+95
-7.5836699e+95
-7.651092e+95
-7.6106101e+95
-7.6076683e+95
-7.6488969e+95
-7.4404355e+95
-7.4483315e+95
-7.4928337e+95
-7.486399e+95
-7.6762561e+95
-7.5688238e+95
-7.5698488e+95
-7.5936058e+95
-7.592681e+95
-7.5624853e+95
-7.5662888e+95
-7.587025e+95
-7.5905387e+95
-7.6013208e+95
-7.6006137e+95
-7.5838127e+95
-7.6677175e+95
-7.5831973e+95
-7.668695e+95
-7.67722e+95
-7.5986381e+95
-7.5955398e+95
-7.5784901e+95
-7.5814029e+95
-7.6515882e+95
-7.6126119e+95
-7.6131795e+95
-7.6524628e+95
-7.676916e+95
-7.6782167e+95
-7.6690697e+95
-7.6675193e+95
-7.545342e+95
-7.497149e+95
-7.4968357e+95
-7.4460535e+95
-7.4469144e+95
-7.4960668e+95
-7.494935e+95
-7.4436105e+95
-7.4449088e+95
-7.5463172e+95
-7.4720158e+95
-7.4707798e+95
-7.4939492e+95
-7.4931227e+95
-7.4425003e+95
-7.4412635e+95
-7.4917012e+95
-7.4901672e+95
-7.438449e+95
-7.439791e+95
-7.5459555e+95
-7.5465618e+95
-7.4723515e+95
-7.4727393e+95
-7.543115e+95
-7.5444336e+95
-7.4720763e+95
-7.4714671e+95
-7.4719169e+95
-7.5449782e+95
-7.5450321e+95
-7.4719015e+95
-7.4892357e+95
-7.4879602e+95
-7.4358201e+95
-7.4373615e+95
-7.4861808e+95
-7.4839165e+95
-7.4315601e+95
-7.4337887e+95
-6.70175e+95
-6.8384543e+95
-6.8428424e+95
-6.7051196e+95
-6.9826362e+95
-6.9828944e+95
-7.1551412e+95
-7.1534527e+95
-6.9808735e+95
-7.152297e+95
-7.1509389e+95
-6.9778495e+95
-7.2406403e+95
-7.1284039e+95
-7.1324979e+95
-7.2363491e+95
-7.1209094e+95
-7.1249515e+95
-7.2295266e+95
-7.2327439e+95
-7.0386254e+95
-6.9564318e+95
-6.9522897e+95
-7.034103e+95
-7.0460492e+95
-6.9600472e+95
-6.9646496e+95
-7.0419379e+95
-6.8948751e+95
-6.8205251e+95
-6.8252556e+95
-6.8899431e+95
-6.7599668e+95
-6.7644883e+95
-6.7031668e+95
-6.6987988e+95
-6.5682596e+95
-6.6895578e+95
-6.6941649e+95
-6.7552523e+95
-6.5619628e+95
-6.7506395e+95
-6.8117296e+95
-6.8159024e+95
-6.8859398e+95
-6.8820315e+95
-6.4237309e+95
-6.4285676e+95
-6.8778884e+95
-6.8029816e+95
-6.8078147e+95
-6.8725585e+95
-6.6810644e+95
-6.6850425e+95
-6.7420582e+95
-6.7464259e+95
-6.5555976e+95
-6.5488852e+95
-6.419016e+95
-6.4134947e+95
-6.1370209e+95
-6.2936883e+95
-5.861052e+95
-6.1279697e+95
-6.2885572e+95
-5.5623012e+95
-5.5584592e+95
-5.8531845e+95
-6.2845969e+95
-6.1242565e+95
-6.1237785e+95
-6.2801435e+95
-7.0292846e+95
-6.94231e+95
-6.9473852e+95
-7.0246139e+95
-7.2260004e+95
-7.1118169e+95
-7.1164013e+95
-7.2213495e+95
-7.3567645e+95
-7.3549499e+95
-7.3587397e+95
-7.3608827e+95
-7.3661993e+95
-7.3641958e+95
-7.3629604e+95
-7.3619443e+95
-7.3686173e+95
-7.3673824e+95
-7.3719755e+95
-7.3700425e+95
-7.3518872e+95
-7.3528902e+95
-7.3537427e+95
-7.3534851e+95
-7.3538027e+95
-7.3550538e+95
-7.3529141e+95
-7.3532441e+95
-7.4900055e+95
-7.4840535e+95
-7.1656718e+95
-7.1442132e+95
-7.3195585e+95
-7.4764277e+95
-7.480901e+95
-7.2822394e+95
-7.2707896e+95
-7.5460199e+95
-7.5444144e+95
-7.553362e+95
-7.5517724e+95
-7.5423796e+95
-7.5398502e+95
-7.5498572e+95
-7.5474096e+95
-7.5466361e+95
-7.5451611e+95
-7.5222066e+95
-7.5234024e+95
-7.520293e+95
-7.5179154e+95
-7.5432674e+95
-7.5407686e+95
-7.5097111e+95
-7.5139553e+95
-7.4982732e+95
-7.4557139e+95
-7.4528781e+95
-7.4959209e+95
-7.2912481e+95
-7.2993949e+95
-7.3357165e+95
-7.4936611e+95
-7.4914948e+95
-7.3275537e+95
-7.4884807e+95
-7.4845806e+95
-7.5712955e+95
-7.5702603e+95
-7.5937355e+95
-7.5944982e+95
-7.5254599e+95
-7.5237159e+95
-7.5175256e+95
-7.5210523e+95
-7.6012835e+95
-7.5553867e+95
-7.5552551e+95
-7.5618072e+95
-7.5617394e+95
-7.5546158e+95
-7.5533961e+95
-7.5612377e+95
-7.5601928e+95
-7.5545899e+95
-7.5546084e+95
-7.5309345e+95
-7.5309857e+95
-7.5836286e+95
-7.6018132e+95
-7.5843269e+95
-7.5540951e+95
-7.5302998e+95
-7.5292277e+95
-7.553003e+95
-7.6021116e+95
-7.6024442e+95
-7.5843636e+95
-7.5847782e+95
-7.57215e+95
-7.5719847e+95
-7.5950989e+95
-7.5948894e+95
-7.5523188e+95
-7.5510741e+95
-7.5591981e+95
-7.5580417e+95
-7.5494114e+95
-7.5475072e+95
-7.5565452e+95
-7.5547815e+95
-7.5496062e+95
-7.5478857e+95
-7.5259831e+95
-7.5243533e+95
-7.5521604e+95
-7.5284718e+95
-7.5510695e+95
-7.5275084e+95
-7.500143e+95
-7.4590354e+95
-7.4581327e+95
-7.4996318e+95
-7.5730932e+95
-7.5720047e+95
-7.5950363e+95
-7.5939172e+95
-7.5722903e+95
-7.572953e+95
-7.5949021e+95
-7.5951417e+95
-7.6018079e+95
-7.5836238e+95
-7.6018698e+95
-7.5837835e+95
-7.6002759e+95
-7.5817772e+95
-7.6015279e+95
-7.5831042e+95
-7.4977623e+95
-7.4972254e+95
-7.4474488e+95
-7.448027e+95
-7.4557897e+95
-7.4560527e+95
-7.4311176e+95
-7.4305909e+95
-7.4548377e+95
-7.455427e+95
-7.430014e+95
-7.4294209e+95
-7.4541588e+95
-7.4544302e+95
-7.4289885e+95
-7.4284936e+95
-7.4528533e+95
-7.4535928e+95
-7.427862e+95
-7.427319e+95
-7.4982228e+95
-7.4981953e+95
-7.448572e+95
-7.4488496e+95
-7.4519504e+95
-7.4523855e+95
-7.426941e+95
-7.4263256e+95
-7.451541e+95
-7.4506647e+95
-7.4256255e+95
-7.4248308e+95
-7.4496314e+95
-7.4500442e+95
-7.424221e+95
-7.4236406e+95
-7.448204e+95
-7.4489739e+95
-7.4229317e+95
-7.4223538e+95
-7.4972154e+95
-7.497985e+95
-7.4485148e+95
-7.4490637e+95
-7.4980955e+95
-7.4981157e+95
-7.4490618e+95
-7.4491366e+95
-7.5412099e+95
-7.4950187e+95
-7.4958557e+95
-7.4479881e+95
-7.4476893e+95
-7.4961258e+95
-7.4960244e+95
-7.4476953e+95
-7.4478961e+95
-7.4962435e+95
-7.4475544e+95
-7.4964481e+95
-7.4475317e+95
-7.4964351e+95
-7.4964911e+95
-7.4478947e+95
-7.4475393e+95
-7.4474207e+95
-7.4477634e+95
-7.4214716e+95
-7.4220315e+95
-7.4454158e+95
-7.4466166e+95
-7.4205691e+95
-7.4195428e+95
-7.444787e+95
-7.418785e+95
-7.4179156e+95
-7.4441761e+95
-7.443008e+95
-7.4417849e+95
-7.4157922e+95
-7.4168299e+95
-5.2188987e+95
-6.9031323e+95
-6.5725246e+95
-6.4337857e+95
-6.7062744e+95
-6.7052061e+95
-6.76886e+95
-6.7670064e+95
-6.8282805e+95
-6.8302397e+95
-6.8999478e+95
-6.8980091e+95
-6.9030987e+95
-6.8326158e+95
-6.9017448e+95
-6.8339623e+95
-6.7090114e+95
-6.7712757e+95
-7.0529888e+95
-6.9719979e+95
-7.0522826e+95
-6.9719835e+95
-6.9724448e+95
-7.0545736e+95
-7.0537615e+95
-7.1391807e+95
-7.1405029e+95
-7.2474626e+95
-7.2458394e+95
-7.1377257e+95
-7.2443633e+95
-7.1375656e+95
-7.2445777e+95
-6.971405e+95
-7.0519192e+95
-7.0521581e+95
-6.970831e+95
-7.1376393e+95
-7.2452466e+95
-7.1379058e+95
-7.2451201e+95
-7.1358971e+95
-7.1376273e+95
-7.244565e+95
-7.243429e+95
-6.9680209e+95
-7.0516346e+95
-6.9698912e+95
-7.0494797e+95
-6.2984542e+95
-6.1402679e+95
-7.2340093e+95
-7.3027708e+95
-7.2316553e+95
-7.3004926e+95
-7.1204283e+95
-7.1187755e+95
-7.1736688e+95
-7.1717748e+95
-7.1247721e+95
-7.1777212e+95
-7.1222317e+95
-7.1754566e+95
-7.2296753e+95
-7.2986968e+95
-7.2279646e+95
-7.2972303e+95
-7.1132317e+95
-7.1112047e+95
-7.1666239e+95
-7.1647713e+95
-7.1171594e+95
-7.1700554e+95
-7.1150662e+95
-7.1682196e+95
-7.222872e+95
-7.2215621e+95
-7.2923828e+95
-7.2913924e+95
-7.2957851e+95
-7.2261933e+95
-7.2242922e+95
-7.2937152e+95
-7.0272523e+95
-7.0719958e+95
-7.0251375e+95
-7.069845e+95
-6.9497508e+95
-6.9475484e+95
-6.988224e+95
-6.9861547e+95
-6.9454279e+95
-6.9430684e+95
-6.9840223e+95
-6.9815051e+95
-7.0229122e+95
-7.0205856e+95
-7.0678269e+95
-7.0656727e+95
-7.0349468e+95
-7.0795861e+95
-7.0322854e+95
-7.07693e+95
-6.9531944e+95
-6.9513402e+95
-6.9915376e+95
-6.9897344e+95
-6.9581729e+95
-6.9961514e+95
-6.9553526e+95
-6.9935352e+95
-7.0302583e+95
-7.0286713e+95
-7.0750605e+95
-7.073485e+95
-6.8873069e+95
-6.9230617e+95
-6.8843328e+95
-6.9200962e+95
-6.8171442e+95
-6.8147427e+95
-6.8493312e+95
-6.8470174e+95
-6.8226059e+95
-6.8546656e+95
-6.8196481e+95
-6.8517682e+95
-6.8818025e+95
-6.8797119e+95
-6.9177477e+95
-6.9158167e+95
-6.7563157e+95
-6.7869825e+95
-6.7537785e+95
-6.7845385e+95
-6.7616752e+95
-6.7924906e+95
-6.7590149e+95
-6.7895663e+95
-6.7325327e+95
-6.7299721e+95
-6.6443588e+95
-6.7023563e+95
-6.699892e+95
-6.7274609e+95
-6.7248163e+95
-6.6401054e+95
-6.6948777e+95
-6.6975136e+95
-6.5789591e+95
-6.583193e+95
-6.7166132e+95
-6.7141788e+95
-6.6312633e+95
-6.6840477e+95
-6.686628e+95
-6.7221116e+95
-6.7191706e+95
-6.6357255e+95
-6.6891996e+95
-6.692257e+95
-6.7509584e+95
-6.7820876e+95
-6.7480328e+95
-6.7791378e+95
-6.5748471e+95
-6.5708949e+95
-6.7454537e+95
-6.7767408e+95
-6.7432613e+95
-6.7746829e+95
-6.8075491e+95
-6.840513e+95
-6.8055303e+95
-6.8383762e+95
-6.8125431e+95
-6.8450821e+95
-6.8097918e+95
-6.8426201e+95
-6.8779817e+95
-6.9142386e+95
-6.8756702e+95
-6.9119646e+95
-6.8735957e+95
-6.9098853e+95
-6.8715058e+95
-6.9076698e+95
-6.4527893e+95
-6.4553568e+95
-6.516704e+95
-6.5133548e+95
-6.4587565e+95
-6.4638795e+95
-6.5247592e+95
-6.5203028e+95
-6.869293e+95
-6.9052125e+95
-6.8665244e+95
-6.9023181e+95
-6.7986234e+95
-6.7965498e+95
-6.8313643e+95
-6.8291137e+95
-6.8035354e+95
-6.8362811e+95
-6.8008945e+95
-6.8336727e+95
-6.8640569e+95
-6.8619249e+95
-6.8999636e+95
-6.8979807e+95
-6.707451e+95
-6.7059168e+95
-6.6231212e+95
-6.6761115e+95
-6.6774315e+95
-6.7117437e+95
-6.7093369e+95
-6.6270229e+95
-6.6790992e+95
-6.6815586e+95
-6.7363787e+95
-6.7677373e+95
-6.7347986e+95
-6.7659082e+95
-6.7409471e+95
-6.7725698e+95
-6.7385173e+95
-6.7699344e+95
-6.5669282e+95
-6.5632736e+95
-6.6172921e+95
-6.7042655e+95
-6.6202625e+95
-6.6746315e+95
-6.5606689e+95
-6.5586597e+95
-6.5101785e+95
-6.4497514e+95
-6.4476467e+95
-6.5066863e+95
-6.4456656e+95
-6.4466123e+95
-6.5046839e+95
-6.5031715e+95
-6.1796778e+95
-6.26192e+95
-6.265934e+95
-6.1724363e+95
-5.9688869e+95
-6.3341715e+95
-6.3296465e+95
-6.4017525e+95
-6.3965533e+95
-5.7572559e+95
-5.7458237e+95
-5.9582224e+95
-6.2569489e+95
-6.2588263e+95
-6.1641654e+95
-6.1660789e+95
-6.3278045e+95
-6.3264209e+95
-6.3937647e+95
-6.3917139e+95
-5.4845806e+95
-5.4803435e+95
-5.7418659e+95
-5.9545373e+95
-5.9565845e+95
-5.7471961e+95
-6.3248177e+95
-6.3226803e+95
-6.3878702e+95
-6.3894715e+95
-6.2551755e+95
-6.1626212e+95
-6.1602699e+95
-6.2528263e+95
-6.2536389e+95
-6.1616964e+95
-6.164853e+95
-6.2527308e+95
-6.3868756e+95
-6.3219964e+95
-6.3212e+95
-6.3863625e+95
-7.0181623e+95
-7.0153939e+95
-7.0633468e+95
-7.0606377e+95
-6.935296e+95
-6.9334217e+95
-6.9740081e+95
-6.9721119e+95
-6.9403748e+95
-6.9788596e+95
-6.9375055e+95
-6.9761131e+95
-7.0132524e+95
-7.0115313e+95
-7.0585978e+95
-7.0569972e+95
-7.2200619e+95
-7.2902266e+95
-7.2179113e+95
-7.2880363e+95
-7.1044073e+95
-7.1587314e+95
-7.1028236e+95
-7.1569426e+95
-7.1089035e+95
-7.1628001e+95
-7.1063609e+95
-7.1606267e+95
-7.2158859e+95
-7.2142019e+95
-7.2860002e+95
-7.2842861e+95
-7.3710925e+95
-7.3700331e+95
-7.3690774e+95
-7.3683129e+95
-7.372585e+95
-7.3718035e+95
-7.3744783e+95
-7.3735275e+95
-7.3797062e+95
-7.3788293e+95
-7.377149e+95
-7.3778376e+95
-7.3765801e+95
-7.3758246e+95
-7.3748593e+95
-7.3751755e+95
-7.3817766e+95
-7.3809933e+95
-7.380371e+95
-7.3800381e+95
-7.3731122e+95
-7.3845933e+95
-7.3836034e+95
-7.3828261e+95
-7.3822663e+95
-7.3736905e+95
-7.3749209e+95
-7.3742119e+95
-7.3746791e+95
-7.3747775e+95
-7.3749624e+95
-7.3750472e+95
-7.3743438e+95
-7.3740621e+95
-7.3552188e+95
-7.3754751e+95
-7.3748164e+95
-7.3730127e+95
-7.3736076e+95
-7.3732134e+95
-7.3740356e+95
-7.1832383e+95
-7.1783435e+95
-6.8551103e+95
-7.131178e+95
-7.139105e+95
-6.8368659e+95
-7.1116231e+95
-7.1221181e+95
-7.3962317e+95
-7.4006043e+95
-7.1640649e+95
-7.3141556e+95
-7.5097448e+95
-7.5078318e+95
-7.5307819e+95
-7.527025e+95
-7.5302032e+95
-7.5266185e+95
-7.5256934e+95
-7.5242943e+95
-7.5293037e+95
-7.5281362e+95
-7.5057349e+95
-7.5035278e+95
-7.5271866e+95
-7.5233443e+95
-7.5263029e+95
-7.522655e+95
-7.5214498e+95
-7.5198715e+95
-7.5250975e+95
-7.5237224e+95
-7.5224132e+95
-7.529108e+95
-7.5284967e+95
-7.5218552e+95
-7.5265372e+95
-7.5276182e+95
-7.5200366e+95
-7.5211053e+95
-7.5055046e+95
-7.4743879e+95
-7.4733135e+95
-7.5042988e+95
-7.4754182e+95
-7.5065464e+95
-7.5061275e+95
-7.4750934e+95
-7.5032751e+95
-7.5025366e+95
-7.4717994e+95
-7.4725061e+95
-7.470671e+95
-7.501532e+95
-7.500181e+95
-7.4694773e+95
-7.5246471e+95
-7.5255824e+95
-7.5181156e+95
-7.5190445e+95
-7.5221111e+95
-7.5234255e+95
-7.5157306e+95
-7.5170099e+95
-7.4436689e+95
-7.445493e+95
-7.4612955e+95
-7.4593448e+95
-7.4476802e+95
-7.4500052e+95
-7.4655179e+95
-7.4633556e+95
-7.3419137e+95
-7.4962489e+95
-7.4962162e+95
-7.3078936e+95
-7.3047518e+95
-7.3402108e+95
-7.4957145e+95
-7.494818e+95
-7.4121046e+95
-7.4150706e+95
-7.1812527e+95
-7.3301244e+95
-7.3263605e+95
-7.4043216e+95
-7.4085824e+95
-7.1721885e+95
-7.3224658e+95
-7.3178113e+95
-7.5262119e+95
-7.526823e+95
-7.4613893e+95
-7.4626821e+95
-7.4776389e+95
-7.4765869e+95
-7.5203407e+95
-7.519766e+95
-7.4589781e+95
-7.4601017e+95
-7.4755115e+95
-7.4742935e+95
-7.5188815e+95
-7.5177149e+95
-7.4517298e+95
-7.4533639e+95
-7.4690725e+95
-7.4673111e+95
-7.5132145e+95
-7.5114452e+95
-7.4553652e+95
-7.4575137e+95
-7.4728255e+95
-7.4709296e+95
-7.5164275e+95
-7.5148911e+95
-7.5557875e+95
-7.5553641e+95
-7.5620837e+95
-7.5618028e+95
-7.5364652e+95
-7.5361702e+95
-7.5394274e+95
-7.5395802e+95
-7.539441e+95
-7.5362832e+95
-7.5355657e+95
-7.5389649e+95
-7.5386997e+95
-7.5352963e+95
-7.5384355e+95
-7.5352002e+95
-7.534588e+95
-7.5335962e+95
-7.5378354e+95
-7.537073e+95
-7.5543638e+95
-7.5374232e+95
-7.5375379e+95
-7.5303082e+95
-7.5302373e+95
-7.5374179e+95
-7.5370153e+95
-7.5298848e+95
-7.5302656e+95
-7.5305453e+95
-7.4830041e+95
-7.5141717e+95
-7.5142119e+95
-7.4830424e+95
-7.4827912e+95
-7.5141675e+95
-7.5136199e+95
-7.4823022e+95
-7.5547055e+95
-7.5309496e+95
-7.5561305e+95
-7.5561641e+95
-7.562409e+95
-7.5624716e+95
-7.5550508e+95
-7.5550507e+95
-7.5314248e+95
-7.5314166e+95
-7.5367314e+95
-7.5364181e+95
-7.5292266e+95
-7.5295627e+95
-7.4818775e+95
-7.5132416e+95
-7.5129849e+95
-7.4816247e+95
-7.481072e+95
-7.5125735e+95
-7.5117473e+95
-7.4803646e+95
-7.5351025e+95
-7.535796e+95
-7.5280335e+95
-7.5286939e+95
-7.5559592e+95
-7.5563677e+95
-7.5621333e+95
-7.5626005e+95
-7.5564233e+95
-7.5561813e+95
-7.5626282e+95
-7.5625262e+95
-7.5545646e+95
-7.5305178e+95
-7.5551004e+95
-7.5312368e+95
-7.5552139e+95
-7.555087e+95
-7.5314207e+95
-7.5313307e+95
-7.5270037e+95
-7.5268564e+95
-7.5329062e+95
-7.5331223e+95
-7.5365982e+95
-7.5362289e+95
-7.535549e+95
-7.5321801e+95
-7.5310092e+95
-7.5346256e+95
-7.5339088e+95
-7.5302843e+95
-7.5333149e+95
-7.5298591e+95
-7.5289423e+95
-7.5276978e+95
-7.5324318e+95
-7.5314381e+95
-7.5314634e+95
-7.5320945e+95
-7.5252e+95
-7.5245621e+95
-7.5297009e+95
-7.5305974e+95
-7.523811e+95
-7.5229718e+95
-7.4777842e+95
-7.5090836e+95
-7.5085522e+95
-7.4773118e+95
-7.5070497e+95
-7.5079247e+95
-7.4766081e+95
-7.4758376e+95
-7.534274e+95
-7.5346747e+95
-7.5276162e+95
-7.5272179e+95
-7.4798701e+95
-7.5113882e+95
-7.5110727e+95
-7.47963e+95
-7.5327889e+95
-7.5336226e+95
-7.5266933e+95
-7.5259227e+95
-7.509757e+95
-7.5106378e+95
-7.4792167e+95
-7.4784501e+95
-7.34507e+95
-7.4972217e+95
-7.4973964e+95
-7.3113184e+95
-7.310009e+95
-7.3433955e+95
-7.4970279e+95
-7.4963436e+95
-7.5270586e+95
-7.5266987e+95
-7.5266861e+95
-7.5269055e+95
-7.5556733e+95
-7.5615246e+95
-7.5558765e+95
-7.5618331e+95
-7.5538287e+95
-7.5295974e+95
-7.5540988e+95
-7.5298865e+95
-7.555797e+95
-7.5556604e+95
-7.5617809e+95
-7.5618338e+95
-7.5298486e+95
-7.529887e+95
-7.5540913e+95
-7.5541306e+95
-7.5801004e+95
-7.5546711e+95
-7.5553521e+95
-7.5609554e+95
-7.5601087e+95
-7.5521652e+95
-7.5530772e+95
-7.5278378e+95
-7.5288661e+95
-7.5612309e+95
-7.5613693e+95
-7.5555966e+95
-7.5555413e+95
-7.5535051e+95
-7.5292853e+95
-7.553578e+95
-7.5292733e+95
-5.1865111e+95
-7.4572059e+95
-7.4572899e+95
-7.4323842e+95
-7.4321312e+95
-7.456274e+95
-7.4568882e+95
-7.4317529e+95
-7.4314025e+95
-7.4011488e+95
-7.4017954e+95
-7.4000159e+95
-7.4006501e+95
-7.3990505e+95
-7.3995611e+95
-7.3978248e+95
-7.3983851e+95
-7.4579472e+95
-7.4577435e+95
-7.4330648e+95
-7.4331089e+95
-7.4574647e+95
-7.4578031e+95
-7.4328531e+95
-7.4326025e+95
-7.3969557e+95
-7.3975944e+95
-7.3961896e+95
-7.3953071e+95
-7.3941647e+95
-7.3946902e+95
-7.3927917e+95
-7.393429e+95
-7.4569529e+95
-7.4562684e+95
-7.4319014e+95
-7.4324213e+95
-7.4572543e+95
-7.4573713e+95
-7.4326161e+95
-7.43283e+95
-7.4576317e+95
-7.4575142e+95
-7.4329705e+95
-7.4329786e+95
-7.4575685e+95
-7.4577291e+95
-7.4329562e+95
-7.4329711e+95
-7.4931277e+95
-7.4938482e+95
-7.4465438e+95
-7.4472792e+95
-7.4555723e+95
-7.4550748e+95
-7.431143e+95
-7.431439e+95
-7.4555555e+95
-7.4557004e+95
-7.4313551e+95
-7.4313308e+95
-7.4557638e+95
-7.4556e+95
-7.4312703e+95
-7.4312419e+95
-7.4553705e+95
-7.4556674e+95
-7.4310677e+95
-7.4310251e+95
-7.4554668e+95
-7.45573e+95
-7.4309816e+95
-7.4310032e+95
-7.4556727e+95
-7.4554009e+95
-7.430775e+95
-7.4307018e+95
-7.4556448e+95
-7.4554359e+95
-7.4307303e+95
-7.4308813e+95
-7.4557656e+95
-7.4556913e+95
-7.4309979e+95
-7.4313711e+95
-7.3917934e+95
-7.3923878e+95
-7.3899729e+95
-7.3909403e+95
-7.3894188e+95
-7.3886327e+95
-7.3875357e+95
-7.3864609e+95
-6.8939498e+95
-6.8945248e+95
-6.9292975e+95
-6.9296545e+95
-6.5854168e+95
-6.5860001e+95
-6.6466112e+95
-6.6459904e+95
-6.4671031e+95
-6.5285872e+95
-6.5273477e+95
-6.7365181e+95
-6.7353844e+95
-6.704344e+95
-6.7057314e+95
-6.7347435e+95
-6.7340825e+95
-6.7036507e+95
-6.7038792e+95
-6.765927e+95
-6.7974116e+95
-6.7649496e+95
-6.7963229e+95
-6.7641088e+95
-6.7954226e+95
-6.7633097e+95
-6.794368e+95
-6.8259603e+95
-6.8246899e+95
-6.8585156e+95
-6.8569275e+95
-6.828005e+95
-6.8604772e+95
-6.8269316e+95
-6.859513e+95
-6.8931172e+95
-6.9289715e+95
-6.8922428e+95
-6.9281152e+95
-6.8911662e+95
-6.9270277e+95
-6.8895922e+95
-6.9253956e+95
-6.8944194e+95
-6.9295597e+95
-6.8938551e+95
-6.9290354e+95
-6.8291077e+95
-6.8613222e+95
-6.8288494e+95
-6.8611099e+95
-6.8934645e+95
-6.9288565e+95
-6.8934894e+95
-6.9290962e+95
-6.8300276e+95
-6.8621241e+95
-6.8297316e+95
-6.8616409e+95
-6.7377258e+95
-6.7071476e+95
-6.7993468e+95
-6.7675208e+95
-6.7986542e+95
-6.7669599e+95
-6.7982806e+95
-7.0412975e+95
-7.0406267e+95
-7.0852335e+95
-7.0843671e+95
-6.9646627e+95
-6.9642231e+95
-7.0027411e+95
-7.0022028e+95
-7.040261e+95
-7.0841672e+95
-7.0402947e+95
-7.0844329e+95
-6.9639475e+95
-6.9641139e+95
-7.0018544e+95
-7.0017732e+95
-7.0037303e+95
-6.9650411e+95
-7.0032553e+95
-7.0041062e+95
-7.0432988e+95
-7.0879057e+95
-7.0428263e+95
-7.087177e+95
-7.0422526e+95
-7.0865213e+95
-7.0418464e+95
-7.0860164e+95
-7.1311077e+95
-7.1837236e+95
-7.1304517e+95
-7.1827507e+95
-7.1325416e+95
-7.1850078e+95
-7.1318212e+95
-7.1844313e+95
-7.2404804e+95
-7.3081436e+95
-7.2397752e+95
-7.3072836e+95
-7.2388991e+95
-7.3064652e+95
-7.2381347e+95
-7.3059075e+95
-7.1294104e+95
-7.1816898e+95
-7.1285974e+95
-7.1810751e+95
-7.237202e+95
-7.2365704e+95
-7.3045497e+95
-7.3052511e+95
-7.1285327e+95
-7.1811721e+95
-7.1290019e+95
-7.1815955e+95
-7.2366392e+95
-7.3046803e+95
-7.2373809e+95
-7.3055636e+95
-6.9639198e+95
-6.9635715e+95
-7.0015938e+95
-7.0015232e+95
-7.0401014e+95
-7.0400893e+95
-7.084511e+95
-7.0845098e+95
-7.0404588e+95
-7.0410376e+95
-7.0848624e+95
-7.0855652e+95
-6.9636567e+95
-7.0018204e+95
-6.9640541e+95
-7.0022113e+95
-7.1291952e+95
-7.1292744e+95
-7.1819218e+95
-7.1821948e+95
-7.2378173e+95
-7.3062029e+95
-7.2379772e+95
-7.3062306e+95
-7.1295555e+95
-7.1824507e+95
-7.1302576e+95
-7.1828013e+95
-7.3063399e+95
-7.238067e+95
-7.2384194e+95
-7.306527e+95
-7.1286981e+95
-7.1815341e+95
-7.1270414e+95
-7.1798881e+95
-7.1304135e+95
-7.182751e+95
-7.1297335e+95
-7.1823244e+95
-7.2381957e+95
-7.3063576e+95
-7.2376963e+95
-7.305688e+95
-7.2370113e+95
-7.305106e+95
-7.2358435e+95
-7.3043137e+95
-6.962134e+95
-7.0004274e+95
-6.9604656e+95
-6.9985336e+95
-7.0410216e+95
-7.0403199e+95
-7.0857118e+95
-7.0849048e+95
-6.9639748e+95
-7.0021734e+95
-6.9632291e+95
-7.0015334e+95
-7.0390966e+95
-7.0837462e+95
-7.0372981e+95
-7.0819812e+95
-5.9713107e+95
-6.3378849e+95
-6.4052278e+95
-6.1810463e+95
-6.1767311e+95
-6.2682505e+95
-6.2683737e+95
-7.2644024e+95
-7.230491e+95
-7.2654224e+95
-7.2291897e+95
-7.3010755e+95
-7.3427672e+95
-7.3415123e+95
-7.2998868e+95
-7.2271142e+95
-7.2621713e+95
-7.2280757e+95
-7.2632472e+95
-7.2988139e+95
-7.3405738e+95
-7.2979341e+95
-7.3398988e+95
-7.1143076e+95
-7.140182e+95
-7.1394469e+95
-7.113424e+95
-7.111753e+95
-7.1125573e+95
-7.1385391e+95
-7.1375918e+95
-7.1952013e+95
-7.1660317e+95
-7.1962614e+95
-7.165122e+95
-7.1634381e+95
-7.1936551e+95
-7.1642922e+95
-7.1944395e+95
-7.1433116e+95
-7.1188023e+95
-7.1445617e+95
-7.1173526e+95
-7.1703359e+95
-7.2005258e+95
-7.1990981e+95
-7.1689788e+95
-7.1409935e+95
-7.1161355e+95
-7.1420906e+95
-7.1151071e+95
-7.167854e+95
-7.1980335e+95
-7.1668505e+95
-7.1970676e+95
-7.2262125e+95
-7.2613247e+95
-7.2604192e+95
-7.2251656e+95
-7.3392975e+95
-7.2971939e+95
-7.2962604e+95
-7.3383658e+95
-7.2244201e+95
-7.2236921e+95
-7.2597225e+95
-7.2589513e+95
-7.3377261e+95
-7.2950546e+95
-7.3373808e+95
-7.2955828e+95
-7.1072029e+95
-7.1330977e+95
-7.1323241e+95
-7.1062089e+95
-7.1039701e+95
-7.1051065e+95
-7.1312571e+95
-7.1300787e+95
-7.1883994e+95
-7.1589993e+95
-7.1893372e+95
-7.1581239e+95
-7.1562669e+95
-7.1869184e+95
-7.1572348e+95
-7.1876683e+95
-7.1358279e+95
-7.1109342e+95
-7.1367453e+95
-7.1098767e+95
-7.1625448e+95
-7.1927528e+95
-7.1915707e+95
-7.1614839e+95
-7.1338724e+95
-7.1088955e+95
-7.1348269e+95
-7.1079672e+95
-7.1605774e+95
-7.1907442e+95
-7.1597341e+95
-7.1899937e+95
-7.2194284e+95
-7.2548125e+95
-7.254097e+95
-7.218563e+95
-7.2179266e+95
-7.2535415e+95
-7.217315e+95
-7.2529236e+95
-7.3335466e+95
-7.332739e+95
-7.2909959e+95
-7.2902188e+95
-7.2892873e+95
-7.2896819e+95
-7.332189e+95
-7.3319276e+95
-7.2943862e+95
-7.3368884e+95
-7.3359679e+95
-7.2933776e+95
-7.2571457e+95
-7.222801e+95
-7.258138e+95
-7.221651e+95
-7.2201046e+95
-7.2208127e+95
-7.2562923e+95
-7.2554764e+95
-7.2916376e+95
-7.2923568e+95
-7.3348165e+95
-7.3341219e+95
-7.0417688e+95
-7.0211744e+95
-7.0425736e+95
-7.0202579e+95
-7.0638742e+95
-7.0877421e+95
-7.086665e+95
-7.0629297e+95
-7.0397486e+95
-7.0192675e+95
-7.0407832e+95
-7.0182806e+95
-7.0619729e+95
-7.0857258e+95
-7.0609812e+95
-7.0847325e+95
-6.9444548e+95
-6.9631584e+95
-6.9621944e+95
-6.9433954e+95
-6.9423625e+95
-6.9611734e+95
-6.9600809e+95
-6.941301e+95
-6.9815098e+95
-7.0015615e+95
-7.0005796e+95
-6.9805203e+95
-6.9795204e+95
-6.9995925e+95
-6.9986205e+95
-6.9784961e+95
-6.9402401e+95
-6.9590077e+95
-6.957768e+95
-6.9389532e+95
-6.9364286e+95
-6.9377392e+95
-6.956523e+95
-6.9551505e+95
-6.9774148e+95
-6.9975144e+95
-6.9961712e+95
-6.9761144e+95
-6.973575e+95
-6.9748681e+95
-6.9949287e+95
-6.9936879e+95
-7.0171296e+95
-7.038646e+95
-7.0373812e+95
-7.0157939e+95
-7.0133962e+95
-7.0145938e+95
-7.0362522e+95
-7.0350137e+95
-7.0839739e+95
-7.082876e+95
-7.0600353e+95
-7.0588298e+95
-7.0565554e+95
-7.0577194e+95
-7.0817749e+95
-7.0806286e+95
-7.0491435e+95
-7.029148e+95
-7.0504995e+95
-7.0276488e+95
-7.0717596e+95
-7.0956186e+95
-7.0940902e+95
-7.0703086e+95
-7.0252003e+95
-7.0466042e+95
-7.0263579e+95
-7.0478372e+95
-7.0690624e+95
-7.092895e+95
-7.0679266e+95
-7.0918416e+95
-6.9480642e+95
-6.9666664e+95
-6.9657511e+95
-6.9470063e+95
-6.9460583e+95
-6.9648218e+95
-6.9639449e+95
-6.9452397e+95
-7.003683e+95
-6.984873e+95
-7.0047383e+95
-6.9838875e+95
-7.0022992e+95
-6.9830603e+95
-7.00295e+95
-6.9822811e+95
-6.9702283e+95
-6.9531812e+95
-6.971644e+95
-6.9516431e+95
-6.989778e+95
-7.0096312e+95
-7.008052e+95
-6.9882831e+95
-6.9676277e+95
-6.9502788e+95
-6.9688766e+95
-6.9490538e+95
-6.9869951e+95
-7.0068103e+95
-6.9858245e+95
-7.0056595e+95
-7.0242216e+95
-7.0456609e+95
-7.044714e+95
-7.023199e+95
-7.0224782e+95
-7.0439947e+95
-7.0218465e+95
-7.0432222e+95
-7.0910425e+95
-7.0901145e+95
-7.0670469e+95
-7.0661058e+95
-7.0646126e+95
-7.0653437e+95
-7.0893102e+95
-7.0885411e+95
-6.8990241e+95
-6.8835548e+95
-6.900525e+95
-6.8819435e+95
-6.9174468e+95
-6.9356152e+95
-6.933992e+95
-6.9158813e+95
-6.8790891e+95
-6.8961187e+95
-6.8804815e+95
-6.897561e+95
-6.9144702e+95
-6.9326371e+95
-6.9131119e+95
-6.9313656e+95
-6.8150373e+95
-6.8303031e+95
-6.8289482e+95
-6.8135377e+95
-6.8111122e+95
-6.8122689e+95
-6.8277428e+95
-6.8265849e+95
-6.8604757e+95
-6.8455017e+95
-6.8617808e+95
-6.8441891e+95
-6.841976e+95
-6.8584099e+95
-6.8430372e+95
-6.8593843e+95
-6.8345151e+95
-6.8207661e+95
-6.8360202e+95
-6.819233e+95
-6.8511936e+95
-6.8674663e+95
-6.8657883e+95
-6.8496097e+95
-6.8315231e+95
-6.8177148e+95
-6.8330184e+95
-6.8162494e+95
-6.8481508e+95
-6.8643675e+95
-6.8467269e+95
-6.8629774e+95
-6.8778616e+95
-6.8949338e+95
-6.8937115e+95
-6.8765875e+95
-6.8755546e+95
-6.8927605e+95
-6.8746252e+95
-6.8918252e+95
-6.9303464e+95
-6.9291978e+95
-6.9120032e+95
-6.9108158e+95
-6.9090273e+95
-6.9098789e+95
-6.9282727e+95
-6.9274518e+95
-6.7563157e+95
-6.7546083e+95
-6.7707796e+95
-6.7691015e+95
-6.7835119e+95
-6.8001764e+95
-6.7985911e+95
-6.7851521e+95
-6.7534465e+95
-6.7519888e+95
-6.7664116e+95
-6.7678122e+95
-6.7821506e+95
-6.7808819e+95
-6.7972937e+95
-6.7961106e+95
-6.7750681e+95
-6.7619438e+95
-6.7763841e+95
-6.7605985e+95
-6.7908171e+95
-6.805918e+95
-6.8043706e+95
-6.7894104e+95
-6.7722446e+95
-6.7593934e+95
-6.7736997e+95
-6.7579067e+95
-6.7879171e+95
-6.8028757e+95
-6.7864931e+95
-6.801406e+95
-6.7301289e+95
-6.728898e+95
-6.7474414e+95
-6.7460924e+95
-6.7449239e+95
-6.7433886e+95
-6.7276366e+95
-6.7261423e+95
-6.6465758e+95
-6.648878e+95
-6.6760972e+95
-6.6737056e+95
-6.7063688e+95
-6.703884e+95
-6.724732e+95
-6.723168e+95
-6.7418234e+95
-6.7401485e+95
-6.7390025e+95
-6.7374799e+95
-6.721807e+95
-6.7202655e+95
-6.6713519e+95
-6.6442618e+95
-6.6419047e+95
-6.6688397e+95
-6.6980686e+95
-6.7010154e+95
-6.5892531e+95
-6.5914846e+95
-6.6183865e+95
-6.6160662e+95
-6.5938483e+95
-6.5963761e+95
-6.6229556e+95
-6.6206035e+95
-6.7129982e+95
-6.7115026e+95
-6.7300643e+95
-6.7285181e+95
-6.7275029e+95
-6.7261984e+95
-6.7102333e+95
-6.7088488e+95
-6.6605112e+95
-6.6335583e+95
-6.6309654e+95
-6.6579234e+95
-6.6862189e+95
-6.6891e+95
-6.7187195e+95
-6.7171399e+95
-6.7358532e+95
-6.7341492e+95
-6.7329896e+95
-6.7315455e+95
-6.7158398e+95
-6.7144067e+95
-6.666345e+95
-6.6395587e+95
-6.636262e+95
-6.663133e+95
-6.6920762e+95
-6.6949001e+95
-6.7503391e+95
-6.7485946e+95
-6.7633212e+95
-6.7649968e+95
-6.7797028e+95
-6.7781056e+95
-6.7950083e+95
-6.7934737e+95
-6.7606296e+95
-6.7473614e+95
-6.7619525e+95
-6.7459959e+95
-6.7921276e+95
-6.7767162e+95
-6.7754424e+95
-6.790829e+95
-6.6138026e+95
-6.5869297e+95
-6.5836819e+95
-6.6104048e+95
-6.5789333e+95
-6.581211e+95
-6.6078273e+95
-6.6052572e+95
-6.757903e+95
-6.7445659e+95
-6.7593479e+95
-6.7430355e+95
-6.7896977e+95
-6.7742285e+95
-6.7728222e+95
-6.7883133e+95
-6.7556047e+95
-6.7419874e+95
-6.7567368e+95
-6.7407953e+95
-6.7872207e+95
-6.771657e+95
-6.7705996e+95
-6.7861675e+95
-6.8193567e+95
-6.8048833e+95
-6.8206045e+95
-6.8035649e+95
-6.8362737e+95
-6.8529654e+95
-6.851689e+95
-6.8350217e+95
-6.8014594e+95
-6.8172227e+95
-6.8024809e+95
-6.8182822e+95
-6.8339209e+95
-6.8505947e+95
-6.8328749e+95
-6.8495314e+95
-6.8241949e+95
-6.8100113e+95
-6.8255381e+95
-6.8085658e+95
-6.8409997e+95
-6.8397075e+95
-6.8575068e+95
-6.8562449e+95
-6.8217102e+95
-6.807259e+95
-6.8229455e+95
-6.8060016e+95
-6.8551145e+95
-6.838509e+95
-6.8373587e+95
-6.8540106e+95
-6.8898895e+95
-6.8737422e+95
-6.8909796e+95
-6.8725575e+95
-6.9266739e+95
-6.9082136e+95
-6.9071183e+95
-6.9255689e+95
-6.8703761e+95
-6.8876993e+95
-6.8714576e+95
-6.8888223e+95
-6.924528e+95
-6.9060524e+95
-6.9049742e+95
-6.9234576e+95
-6.8854769e+95
-6.8693269e+95
-6.8866608e+95
-6.8680911e+95
-6.9224183e+95
-6.9039267e+95
-6.902703e+95
-6.9211236e+95
-6.8659e+95
-6.8831631e+95
-6.8669923e+95
-6.8843719e+95
-6.9199635e+95
-6.9015593e+95
-6.900344e+95
-6.9186996e+95
-6.474438e+95
-6.4759951e+95
-6.5027393e+95
-6.5010707e+95
-6.4777205e+95
-6.4801669e+95
-6.5072073e+95
-6.5045477e+95
-6.5604822e+95
-6.5330044e+95
-6.5301961e+95
-6.5573296e+95
-6.555048e+95
-6.5281183e+95
-6.5264179e+95
-6.5531441e+95
-6.4822093e+95
-6.4843094e+95
-6.5116456e+95
-6.5094845e+95
-6.4874882e+95
-6.4910146e+95
-6.5177592e+95
-6.5146595e+95
-6.5403044e+95
-6.5431867e+95