/*--------------------------------*- C++ -*----------------------------------*\
  =========                 |
  \\      /  F ield         | OpenFOAM: The Open Source CFD Toolbox
   \\    /   O peration     | Website:  https://openfoam.org
    \\  /    A nd           | Version:  7
     \\/     M anipulation  |
\*---------------------------------------------------------------------------*/
FoamFile
{
    version     2.0;
    format      ascii;
    class       surfaceScalarField;
    location    "1000";
    object      phi;
}
// * * * * * * * * * * * * * * * * * * * * * * * * * * * * * * * * * * * * * //

dimensions      [0 3 -1 0 0 0 0];

internalField   nonuniform List<scalar> 
102298
(
1.0510302e+44
-3.4376176e+44
1.618462e+44
-3.3107592e+44
-3.6401018e+44
-3.3313732e+44
-3.1993002e+44
-3.0742079e+44
-2.8950817e+44
1.6360972e+44
-8.9505273e+43
-2.8585916e+43
4.0244145e+43
-6.4163825e+43
-6.7890914e+43
-8.054108e+43
-7.4886288e+43
2.156733e+43
5.1913296e+43
-3.2203139e+44
-3.0923752e+44
-3.0405475e+44
-3.1658466e+44
-2.7007431e+44
2.6045792e+43
4.3103467e+43
-6.5339599e+43
-7.6463751e+43
3.2443005e+43
3.2666095e+43
-3.4439729e+44
-2.662918e+42
1.4847611e+41
3.3463251e+43
1.3327569e+43
2.634935e+43
-6.4333311e+43
-6.9213668e+43
-6.8840244e+43
2.9014525e+43
-5.6242482e+43
-6.1587506e+43
1.2969658e+43
2.2279526e+43
-6.9242951e+43
-6.4885351e+43
-6.1670417e+43
-6.492038e+43
-5.8877839e+43
-6.2613474e+43
-5.2977571e+43
2.3756547e+43
-5.6567491e+43
-2.8447284e+44
-2.6330021e+44
-2.7275531e+44
-2.5578308e+44
-2.6827889e+42
-1.7727516e+43
1.1149414e+43
-1.2567556e+43
-1.3222831e+43
3.6555927e+42
-1.6874933e+43
-1.5893181e+43
-1.7613544e+43
-5.0808358e+42
1.0918477e+43
-1.2955212e+43
-1.2890361e+43
-1.629113e+43
-1.6661067e+43
3.0318662e+42
-5.2193428e+42
-6.3524137e+43
-6.2091583e+43
5.1757401e+42
2.1230671e+43
-8.1946074e+43
3.2747572e+43
-6.3157759e+43
-7.2964554e+43
-7.3440744e+43
-6.293316e+43
-8.2469123e+43
3.7292379e+43
-6.0785979e+43
-7.1224013e+43
-6.4515914e+43
-7.7327321e+43
-2.4411581e+43
-2.6575047e+44
-2.6682614e+44
-1.7533258e+43
1.1519234e+43
-1.2597073e+43
-1.3279097e+43
-1.5960797e+43
-1.6884527e+43
-6.2076092e+43
-2.5856304e+44
3.0477431e+43
2.297015e+43
2.0958808e+43
-1.4703413e+43
-1.0916513e+43
3.0742191e+43
1.7776895e+43
-1.4636629e+43
-1.8156434e+43
1.5418886e+43
-3.3180543e+44
8.4123023e+43
7.1793017e+43
-6.0622791e+43
-7.1023743e+43
-5.99905e+43
-7.7139157e+43
5.9584752e+43
7.5196852e+43
5.6562153e+42
6.6468629e+42
6.555152e+42
-7.6268919e+43
-5.8019647e+41
-9.6189505e+40
4.4023566e+42
6.2814453e+42
6.805406e+42
-7.722509e+43
-2.1775248e+41
-5.7719575e+41
6.6141015e+42
6.6404367e+42
-7.5946563e+43
-5.4411027e+41
-1.4733812e+40
5.7101428e+42
2.8767327e+43
2.8116997e+43
3.0643619e+43
-3.4413757e+44
-3.9557077e+42
-1.6119759e+42
3.056342e+43
2.9415179e+43
-3.4278387e+44
-8.9421913e+41
-4.6603754e+42
-9.9592162e+42
1.2108219e+43
3.3577631e+42
-6.6196509e+43
-3.1193893e+42
3.5235498e+42
-2.6543719e+43
-5.303332e+43
-2.5012035e+43
-5.2751203e+43
-2.2102047e+42
5.5847677e+42
-1.0356578e+43
-1.1093847e+43
-9.9142703e+42
-1.0584319e+43
4.6191381e+42
-1.4077777e+43
-1.3424641e+43
-1.2236457e+43
-1.1614547e+43
1.4109583e+43
2.1440151e+43
-6.1289401e+43
-6.3994651e+43
-6.346161e+43
-6.0553911e+43
2.1336266e+42
1.0180003e+43
-2.4830872e+43
-5.3202149e+43
9.7345521e+42
-2.5032036e+43
3.8542728e+42
-5.1308498e+43
-2.0035552e+42
1.161521e+43
2.9862022e+42
-6.453371e+43
1.190584e+43
-6.5292002e+43
-2.3773246e+42
2.2387334e+42
3.3412006e+42
-1.3861994e+43
-1.3146419e+43
-1.1416907e+43
-1.2039902e+43
2.2714722e+42
-1.3477678e+43
-1.3655878e+43
-1.1777622e+43
-1.1826093e+43
-2.8827719e+42
-1.0025126e+43
-1.0692831e+43
-9.5445116e+42
3.6660309e+42
-1.0110186e+43
2.3062283e+43
-5.7424856e+43
-4.9352888e+43
-5.0818506e+43
-5.8152535e+43
-1.0451199e+43
-1.0437825e+43
-9.8144096e+42
-9.9720886e+42
1.381606e+43
-5.9320035e+43
-6.1429833e+43
-6.6287819e+43
-6.288836e+43
-5.6567281e+43
-6.0224562e+43
-5.2337892e+43
-4.9067496e+43
-3.7850518e+41
-3.6098346e+42
3.0176706e+42
6.6144721e+41
-2.5685403e+42
-2.6892545e+42
-3.6119595e+42
-3.3885729e+42
-3.5670701e+42
-7.0364762e+41
2.9602868e+42
-2.6496577e+42
-2.6279291e+42
-3.4639728e+42
-3.5493296e+42
-1.6125914e+43
4.2747232e+42
9.0097549e+42
-1.2503905e+43
-1.2615453e+43
-1.6025541e+43
-1.5515832e+43
4.995195e+41
-8.5910911e+41
-1.3468308e+43
-1.3313092e+43
9.5003177e+41
-7.9567686e+41
-3.5781424e+42
3.0812822e+42
-2.5968153e+42
-2.6985309e+42
-3.450027e+42
-3.6209363e+42
-3.5301892e+42
-8.3634388e+41
2.8810142e+42
-2.6373875e+42
-2.5995482e+42
-3.4197577e+42
-3.5438113e+42
7.0461366e+41
-9.2939202e+41
-1.3315091e+43
-1.3588298e+43
4.4219535e+42
-6.0219681e+43
1.6043963e+43
6.1945749e+42
-6.0613705e+43
4.5512622e+42
9.7151214e+42
-1.2276874e+43
-1.2938371e+43
-1.5318642e+43
-1.6346973e+43
-1.6261812e+43
-3.1205918e+42
1.0213011e+43
-1.215298e+43
-1.2838334e+43
-1.6332137e+43
-1.5117043e+43
-4.3797336e+42
-6.006469e+43
-1.5821422e+43
9.5067108e+42
-1.6012722e+43
-1.2573954e+43
-1.249457e+43
-1.568928e+43
-6.1918719e+43
-6.1679073e+41
-3.6470325e+42
3.1565062e+42
-2.5700134e+42
-2.7122411e+42
-3.6356287e+42
-3.4082075e+42
-3.5874302e+42
3.0742429e+42
-2.6347664e+42
-2.6315026e+42
-3.4711632e+42
-3.553395e+42
-5.6961324e+41
-1.3320745e+43
-1.3466639e+43
2.6319804e+44
-1.7737747e+43
1.4996592e+43
1.6992275e+43
-1.667083e+43
-2.7071781e+43
-1.4565332e+43
-1.1353667e+43
2.2242493e+43
2.0428649e+43
-1.1597712e+43
2.2290711e+43
1.9341326e+43
-1.4506027e+43
-4.2233062e+42
-5.9715041e+43
5.4121457e+42
5.188993e+42
-2.5520431e+42
-1.9813627e+42
4.8942218e+42
-6.0197813e+43
-5.605862e+42
-2.5776665e+42
-2.1519742e+42
4.7488139e+42
5.2949394e+42
4.3276773e+42
-7.4466528e+43
-5.5164157e+42
4.0184548e+42
-3.2501344e+42
-3.5417848e+42
3.5275362e+42
-7.3099248e+43
5.1167893e+42
4.2131691e+42
-3.4788232e+42
-2.8759956e+42
3.8202626e+42
-5.5104679e+43
-4.4226388e+42
5.1481012e+42
3.3017917e+42
-3.8943839e+42
-3.3484963e+42
2.9979654e+42
-4.0829424e+42
4.9869208e+42
2.8899008e+42
3.1966942e+42
-3.4342268e+42
-3.9654918e+42
-6.9332156e+43
5.6335309e+43
-5.1629619e+42
-4.0667249e+42
-3.8093831e+42
3.0906162e+42
-7.1264962e+43
2.6387445e+42
-5.2349531e+42
-4.025373e+42
-3.7289243e+42
3.1556342e+42
2.6986616e+42
-2.3621652e+43
-2.4755479e+44
1.5048949e+43
1.3299775e+43
-1.9408792e+43
-1.6231165e+43
-5.6727332e+43
7.4630379e+43
3.2156526e+42
-4.0828709e+42
-3.5904747e+42
2.9034931e+42
-4.1891871e+42
-3.7305406e+42
2.7482942e+42
3.0653138e+42
-7.2075075e+43
-2.4051894e+44
1.6158061e+43
1.2709086e+43
-1.6364306e+43
-1.882076e+43
-2.3552768e+43
-1.0168706e+43
1.6748685e+43
-3.2138561e+44
-1.2925581e+43
1.3655561e+43
-3.1585337e+44
1.6485456e+43
-9.4214478e+42
-1.1893289e+43
1.317762e+43
-2.4577095e+43
2.1276636e+44
2.0771569e+44
2.5048346e+43
6.0136123e+43
4.1116185e+42
-3.5072884e+42
-2.9567324e+42
3.747063e+42
5.0248485e+42
-2.5949303e+42
-2.1075458e+42
4.7701162e+42
7.9036225e+41
1.3255926e+42
1.4366351e+42
-1.644171e+43
-4.605322e+40
-1.177442e+41
9.2138108e+41
1.417576e+42
1.4017723e+42
-1.6232621e+43
-1.1186561e+41
-2.2811793e+40
-6.9991827e+41
9.1830694e+41
1.4074616e+42
1.3894542e+42
-1.6650898e+43
-4.0656103e+40
-1.2979511e+41
1.3112903e+42
1.4359758e+42
-1.6259783e+43
-4.4996851e+40
-1.1330791e+41
7.8248223e+41
1.3338302e+42
1.4363143e+42
-1.6488933e+43
-4.5554121e+40
-1.1224796e+41
1.4208729e+42
1.4063021e+42
-1.6280928e+43
-1.028874e+40
-1.0311727e+41
1.0218203e+42
4.4934115e+42
6.4680221e+42
5.7985316e+42
-7.4185491e+43
-7.3735916e+41
-3.0235252e+41
6.0391519e+42
6.1841655e+42
6.0386336e+42
-7.4859939e+43
-2.8614204e+41
-8.4812555e+41
-5.578802e+42
6.0273816e+42
6.1853557e+42
-7.4298269e+43
-8.6254906e+41
-1.6560083e+41
6.4038625e+42
5.7310228e+42
-7.7002125e+43
-3.6154774e+41
-8.8995311e+41
-3.0766078e+43
-5.2254073e+42
-3.0217755e+42
2.698717e+43
-3.2787965e+44
-2.7641269e+42
-4.6897861e+42
-3.3163283e+44
-1.0285634e+43
5.4463728e+42
5.4559876e+42
3.2662414e+42
-6.6204762e+43
-9.2021851e+40
1.7188674e+41
-3.6008712e+42
4.1838402e+42
-6.6666039e+43
-6.6514799e+43
-6.44442e+41
-1.2319483e+41
-2.6226735e+42
8.6541143e+41
-2.0430258e+42
-2.1504126e+42
-1.7592862e+42
-1.8789263e+42
-8.5984643e+40
-2.6578231e+42
-2.1205712e+42
-2.0939168e+42
-1.8289568e+42
-1.8324796e+42
-6.9049623e+41
8.6812052e+41
-1.6670251e+42
-1.7846762e+42
-1.8616416e+42
-1.7452262e+42
-1.7872138e+42
-1.7908345e+42
-1.7284101e+42
-1.7240975e+42
3.0283436e+41
2.5613473e+42
-1.0880342e+43
2.5088494e+42
5.8550574e+41
-1.0760171e+43
4.3681416e+41
-1.2021082e+43
6.5208953e+41
-1.1943639e+43
-9.9711635e+42
-3.6181926e+42
1.169311e+43
4.6037637e+42
-6.3996916e+43
-3.7967303e+42
5.9126642e+42
-2.4355581e+43
-5.1726155e+43
9.3959742e+42
-2.2238868e+43
-5.0561167e+43
1.1100049e+43
-6.2889977e+43
3.5488622e+42
1.0278159e+43
-6.8070742e+43
9.9216818e+42
4.3899158e+42
-6.5093005e+43
-3.233295e+42
5.3181343e+42
5.3115962e+42
2.9743064e+42
-6.5001004e+43
1.3507738e+41
-1.1683746e+41
5.2190913e+42
5.4815211e+42
-6.5744595e+43
1.5124864e+41
-8.815461e+40
2.774424e+42
3.7149761e+42
-1.3333264e+43
-1.3152037e+43
-1.145716e+43
-1.1530542e+43
3.1880821e+41
2.4987152e+42
-5.9116444e+41
-1.0770209e+43
2.4641862e+42
-1.064069e+43
6.6049097e+41
-3.7444352e+41
2.5128032e+42
6.4275552e+41
-1.1733827e+43
-6.0413485e+41
2.5548046e+42
-1.1866288e+43
5.1113312e+41
2.4880274e+42
-1.0672235e+43
2.4735872e+42
-1.0727971e+43
6.0984015e+41
2.5740676e+42
-1.1821401e+43
2.5569927e+42
-1.1903783e+43
-4.3698469e+41
-1.1775083e+41
6.9964313e+41
-2.0120626e+42
-2.1248885e+42
-1.7032109e+42
-1.817059e+42
-8.9196435e+40
-7.4309671e+41
-2.0988456e+42
-2.0737905e+42
-1.7885465e+42
-1.781519e+42
-3.6306562e+41
-1.6180239e+42
-1.7318987e+42
-1.7049195e+42
-1.8098644e+42
5.8318759e+41
4.0934479e+42
-9.8570751e+42
-8.9815754e+42
-9.9585371e+42
-9.1989396e+42
-6.9406105e+41
-1.7015291e+42
-1.7721874e+42
-1.7554305e+42
-1.6789441e+42
-2.7366508e+42
4.9897965e+42
-9.9303949e+42
-1.048236e+43
-9.2007297e+42
-9.6495893e+42
4.7420061e+42
-1.3817452e+43
-1.3124425e+43
-1.194449e+43
-1.1336735e+43
-7.3649252e+41
-1.3533224e+41
-2.0344746e+42
-2.1344124e+42
-1.7453846e+42
-1.8511923e+42
-2.3154032e+40
-2.0921535e+42
-2.0537232e+42
-1.7890304e+42
-1.7767696e+42
7.4925328e+41
-1.6867664e+42
-1.6737915e+42
-1.7458846e+42
-1.7312316e+42
-1.6492041e+42
-1.7377598e+42
-1.7547993e+42
-1.8291809e+42
-9.9692282e+42
-3.3853587e+42
1.1498719e+43
-6.3255483e+43
-4.1801255e+42
-2.43398e+43
-5.0413869e+43
9.6877564e+42
-2.2788861e+43
-5.1454177e+43
1.1326551e+43
-6.3308749e+43
-3.1417548e+42
2.4565803e+42
-1.383995e+43
-1.2999737e+43
-1.1953335e+43
-1.121984e+43
2.5978028e+42
-1.3324514e+43
-1.3401222e+43
-1.1599123e+43
-1.15707e+43
3.4533687e+42
-1.0071955e+43
-9.3283326e+42
-1.0089005e+43
-9.2076525e+42
-9.7317996e+42
-8.9702586e+42
-1.0410755e+43
-9.5584155e+42
8.2111695e+41
-3.2675713e+42
2.5248481e+42
-2.5872167e+42
-2.5605728e+42
-3.3304401e+42
-3.4426231e+42
-6.6126749e+40
-7.5417944e+41
8.3119989e+41
1.2901091e+41
-5.6620296e+41
-5.355692e+41
-7.7557534e+41
-8.3109571e+41
-7.5267174e+41
-1.2675917e+41
8.3874783e+41
-5.4802681e+41
-5.5288078e+41
-8.1699475e+41
-7.9679408e+41
9.5944498e+40
-1.6023497e+41
-2.8794671e+42
-2.8239769e+42
1.8347148e+41
-1.3766671e+41
-7.3938272e+41
8.3334056e+41
-5.6776812e+41
-5.3980595e+41
-7.9152988e+41
-8.3360255e+41
-7.3448021e+41
-1.4582393e+41
8.0535385e+41
-5.4151193e+41
-5.4700662e+41
-8.1629728e+41
-7.8582789e+41
1.3276256e+41
-1.6559821e+41
-2.8317862e+42
-2.8798702e+42
-3.3166449e+42
8.7372849e+41
2.7341742e+42
-2.5363563e+42
-2.6588978e+42
-3.5398161e+42
-3.3505256e+42
-8.3454526e+41
1.1165217e+42
-1.3156141e+43
-1.2869385e+43
-8.8972894e+40
-7.5243762e+41
8.4911925e+41
-5.7653821e+41
-5.4754188e+41
-7.8372318e+41
-8.4254307e+41
-7.3818328e+41
-1.7100855e+41
8.2967381e+41
-5.4915274e+41
-5.4471812e+41
-8.1690765e+41
-7.972055e+41
-1.0042948e+41
-2.8601711e+42
-1.8347887e+41
-2.8866156e+42
-1.617537e+41
-7.4154651e+41
8.3254072e+41
-5.6897161e+41
-5.3751402e+41
-7.9370594e+41
-8.3744352e+41
-7.3136314e+41
-1.4573221e+41
7.9495283e+41
-5.4006096e+41
-5.4399069e+41
-8.1105572e+41
-7.8404919e+41
1.4882806e+41
-1.7259504e+41
-2.8160627e+42
-2.8840327e+42
-5.4816026e+41
-3.3070678e+42
8.0181994e+41
2.7476746e+42
-2.5163752e+42
-2.6474662e+42
-3.286373e+42
-3.5209256e+42
-3.2219e+42
2.5943758e+42
-2.5902044e+42
-2.5621948e+42
-3.3703746e+42
-3.4625048e+42
-6.960283e+41
1.1294267e+42
-1.2874942e+43
-1.3109746e+43
-5.5244757e+41
-3.2563267e+42
2.7320266e+42
8.4924825e+41
-2.5154911e+42
-2.6470064e+42
-3.4999489e+42
-3.2630289e+42
-3.1976842e+42
-8.6269831e+41
2.6160917e+42
-2.5789661e+42
-2.571459e+42
-3.3662389e+42
-3.4298245e+42
7.8411322e+41
-1.2202013e+42
-1.3066351e+43
-1.2752886e+43
3.2902846e+42
-9.1597206e+41
-1.3203374e+43
-8.3224522e+41
2.7768964e+42
-2.5413251e+42
-3.3400431e+42
-2.6624266e+42
-3.5472244e+42
-3.1836147e+42
2.5474582e+42
-2.5802138e+42
-2.5475002e+42
-3.3259179e+42
-3.4352061e+42
-1.2928418e+43
-9.088833e+40
-7.6276851e+41
8.6094652e+41
-5.6535458e+41
-5.377363e+41
-8.3392239e+41
-7.860202e+41
-7.5894286e+41
-1.6843467e+41
8.6596163e+41
-5.5527644e+41
-5.5356532e+41
-8.241436e+41
-8.0872557e+41
9.7587228e+40
-1.7817761e+41
-2.8964046e+42
-2.8442113e+42
-1.7643852e+41
-7.45512e+41
8.5680608e+41
-5.3858815e+41
-7.9410587e+41
-8.3696618e+41
-5.6839459e+41
-7.3786182e+41
8.2138188e+41
-5.4375658e+41
-5.4176369e+41
-7.8983264e+41
-8.1733961e+41
1.4921666e+41
-2.8370986e+42
-2.8912327e+42
5.6079576e+43
4.3501549e+42
-7.1327306e+43
-3.7365725e+42
-4.0337746e+42
3.2194069e+42
2.6976967e+42
4.5572529e+42
7.3030305e+43
-3.8683052e+42
-3.5174571e+42
3.276617e+42
2.7458657e+42
-5.5236795e+43
7.2738254e+43
3.1778598e+42
-4.0725456e+42
2.7926582e+42
-3.4696202e+42
-4.3140902e+42
2.6309352e+42
4.7663282e+42
6.0516366e+43
-5.7705599e+42
4.1419066e+42
-3.1469804e+42
3.4948813e+42
-3.5109438e+42
5.8818076e+43
-3.6211203e+42
4.0517412e+42
3.587333e+42
-5.2872624e+42
-2.7261333e+42
-1.9850749e+42
4.9543882e+42
4.5371735e+42
-6.0531859e+42
-2.1966087e+42
5.1372556e+42
-2.7157233e+42
4.4838957e+42
5.8646109e+43
-4.2150883e+42
-2.9768193e+42
3.9466657e+42
3.5495636e+42
-3.5804362e+42
-4.4265169e+42
-2.1639708e+42
4.8110841e+42
-2.7056046e+42
4.5087099e+42
-5.8602435e+43
-2.6097524e+42
-2.1837465e+42
5.0899138e+42
4.4474945e+42
-3.4596538e+42
3.9773267e+42
-3.1405409e+42
3.4464174e+42
-1.2835697e+43
-7.6092696e+41
1.0200624e+42
-3.2594694e+41
1.1398825e+42
-4.260041e+41
1.0966988e+42
7.5177144e+41
1.2875101e+43
-8.6165176e+41
-1.6022591e+43
-5.4389724e+41
-5.9865095e+41
9.7087492e+41
8.7700534e+41
-1.5878815e+43
1.0140261e+42
-4.967491e+41
9.7974928e+41
-6.027929e+41
9.1930114e+41
-9.0691135e+41
-3.6043186e+41
1.1528279e+42
-4.2470841e+41
1.0586889e+42
6.843457e+41
1.2750348e+43
-1.5742701e+43
-9.4198932e+41
-5.5161131e+41
-6.0026482e+41
9.6150042e+41
8.6271122e+41
1.2954973e+43
-1.5981885e+43
-5.3232089e+41
9.521285e+41
-6.2151108e+41
8.9934098e+41
6.9498664e+41
-8.7599317e+41
-3.6399156e+41
-4.2166398e+41
1.1539534e+42
1.0520903e+42
1.1208809e+42
-3.6400351e+41
-4.4894873e+41
1.0791612e+42
-1.2186329e+43
-7.1250849e+41
8.4595713e+41
-6.4610507e+41
7.5745542e+41
-7.326934e+41
7.1079989e+41
-6.6571559e+41
7.9189966e+41
-1.5413873e+43
-6.8920689e+41
-7.7570159e+41
6.8496161e+41
6.3117989e+41
1.2052206e+43
-1.5171547e+43
-9.4091831e+41
-7.0260652e+41
-7.5311979e+41
7.0463378e+41
6.0385837e+41
-9.635413e+41
-6.5515192e+41
-7.1126363e+41
7.7727473e+41
6.772179e+41
-1.2146084e+43
-7.5058264e+41
1.0161219e+42
-6.0448304e+41
7.9244644e+41
-7.0884328e+41
7.3578513e+41
7.0364057e+41
1.2242521e+43
-1.5552148e+43
-6.9291059e+41
-7.4318681e+41
7.22806e+41
6.3236027e+41
-1.5254315e+43
9.3668077e+41
-6.4602554e+41
7.2890582e+41
-7.4834463e+41
6.6466419e+41
-6.4623988e+41
-7.0547858e+41
7.9069176e+41
6.9659489e+41
-1.1947279e+43
-6.961116e+41
9.2117473e+41
-7.0037535e+41
6.6373262e+41
-8.0191742e+41
6.0825662e+41
6.7715213e+41
1.213141e+43
-1.5571614e+43
-8.1408703e+41
-7.571057e+41
-8.0578138e+41
6.6784669e+41
5.7779942e+41
-1.5230954e+43
8.6738837e+41
-7.1092702e+41
6.6376593e+41
-8.1148746e+41
6.035919e+41
-8.3096954e+41
-7.4111167e+41
-7.9493556e+41
6.6802022e+41
5.8011548e+41
6.7196854e+41
-1.2093866e+43
-8.5278407e+41
-7.8336749e+41
6.5149617e+41
-8.3754467e+41
5.6238605e+41
-1.1883213e+43
8.488117e+41
-7.3333256e+41
6.4205147e+41
-8.300533e+41
5.9344459e+41
-6.025083e+41
7.5708566e+41
5.9069063e+41
5.4299592e+41
-1.4845936e+43
-8.3549742e+41
-9.2426899e+41
-7.4622807e+41
6.0169378e+41
5.0779077e+41
-1.522586e+43
-9.2743675e+41
-8.7182609e+41
-4.1180573e+42
-5.3302584e+43
5.4939912e+42
2.9251384e+42
2.6894752e+42
-4.2467561e+42
-3.7244126e+42
5.9100548e+41
1.2025868e+43
-7.9083155e+41
5.8481264e+41
4.8248585e+41
-1.5130262e+43
-9.3928456e+41
-8.9051727e+41
1.2153783e+43
5.6676958e+41
5.1011814e+41
-1.5354105e+43
-9.6476077e+41
-8.7641084e+41
-6.6423454e+41
1.5554682e+43
-7.8666949e+41
6.0019134e+41
-8.6883367e+41
5.5648241e+41
-5.3734184e+43
-5.330214e+42
2.5017619e+42
2.9451904e+42
-4.0892874e+42
-4.3765047e+42
1.5343163e+43
-8.5453238e+41
-7.9917e+41
6.2617279e+41
-8.4673937e+41
5.3148584e+41
6.0995576e+41
1.1916893e+43
-8.1166353e+41
-7.6908962e+41
6.3862613e+41
-8.1195754e+41
5.4503137e+41
1.202614e+43
-7.5462008e+41
6.1928555e+41
-8.3823024e+41
5.6905287e+41
-6.8622789e+41
-7.4094243e+41
6.1859519e+41
-8.262505e+41
5.7176015e+41
-8.7519036e+41
-7.5203481e+41
6.4471316e+41
-8.0601218e+41
5.4630822e+41
4.1555011e+42
-5.3436184e+42
-6.8431514e+43
-4.4987055e+42
-4.2483586e+42
2.8078523e+42
2.4158862e+42
-6.8941653e+43
6.0928591e+42
-4.3648879e+42
-3.7856051e+42
2.9450303e+42
2.6760111e+42
-1.2016755e+43
-6.8013813e+41
1.5313354e+43
-7.141481e+41
6.5295479e+41
-8.135807e+41
5.9878142e+41
6.6473604e+41
1.2098087e+43
-1.5602592e+43
-7.6696789e+41
-8.1843706e+41
6.4759903e+41
5.5321003e+41
-1.5419822e+43
-7.3100009e+41
6.4223886e+41
-8.2925905e+41
5.8368845e+41
1.5494263e+43
-7.4452436e+41
-7.9938079e+41
6.5882223e+41
5.6790111e+41
5.7466454e+41
1.2174718e+43
5.8236701e+41
4.8528408e+41
-1.5411411e+43
-9.467228e+41
-8.9278334e+41
1.2123609e+43
5.7921862e+41
5.2142612e+41
-1.5354029e+43
-9.5823665e+41
-8.5869301e+41
6.4793623e+41
-7.9924027e+41
6.271236e+41
-8.5260116e+41
5.3441454e+41
-7.6331079e+41
6.1485916e+41
-8.5666199e+41
5.6761883e+41
-4.3456014e+42
-5.4138777e+43
2.5733116e+42
2.9721828e+42
-3.7956637e+42
-4.5126654e+42
-5.2460056e+43
2.4361647e+42
2.9245427e+42
-3.9819634e+42
-4.3296553e+42
-4.4855875e+42
-6.8042125e+43
2.940644e+42
-4.1239707e+42
-4.6759781e+42
2.5403401e+42
-6.6620094e+43
-4.4105858e+42
-4.0289438e+42
3.0265876e+42
2.3269615e+42
5.1713629e+43
-5.557959e+42
6.5108825e+42
-2.5058985e+42
3.3545799e+42
3.6500966e+42
-3.1625042e+42
-6.4171519e+43
-4.8534413e+42
6.6902289e+42
-3.7151334e+42
-4.2790356e+42
2.9486536e+42
2.7293954e+42
-2.5346319e+44
-2.4349388e+43
1.931507e+43
-1.0277904e+43
-1.3751187e+43
1.6392086e+43
5.1029646e+43
-6.2981141e+42
-6.4431311e+43
3.148364e+42
3.6444675e+42
-3.0335782e+42
-2.542992e+42
-5.8750875e+42
-3.9583866e+42
-4.2988302e+42
2.9899526e+42
2.5426168e+42
-1.8099006e+43
-2.8879749e+44
-5.1856374e+43
2.5475348e+44
-2.8218666e+44
-5.4130397e+43
-1.1718926e+43
1.921415e+43
1.6493157e+43
-1.2486099e+43
-5.0238346e+43
-4.7626496e+42
-3.7741166e+42
-4.4718745e+42
2.6625587e+42
3.1526911e+42
-4.7596206e+42
-6.241952e+43
3.6954963e+42
-2.4153488e+42
-3.123627e+42
3.0647326e+42
4.9582923e+43
-6.1629412e+43
3.6821607e+42
-2.3972724e+42
-2.9343432e+42
2.9102746e+42
3.1013725e+42
-3.7630651e+42
-4.2440726e+42
2.4429603e+42
-1.2163379e+43
-7.1086357e+41
1.5871782e+43
-6.2118419e+41
-7.1982498e+41
7.7079281e+41
7.2076186e+41
6.9561818e+41
1.2223822e+43
-6.9625856e+41
-7.4514967e+41
7.1265293e+41
6.206412e+41
-6.5813739e+41
7.1236494e+41
-7.5803128e+41
6.5174712e+41
1.6005028e+43
-6.5296133e+41
-7.1072006e+41
7.8251847e+41
6.8812577e+41
-1.2810052e+43
-6.9835705e+41
-3.4330831e+41
1.1189143e+42
-4.3462024e+41
1.0836607e+42
7.2091193e+41
1.2876934e+43
-5.4729685e+41
9.6671169e+41
-5.9933739e+41
8.7256627e+41
-5.150615e+41
9.5727146e+41
-6.1411434e+41
9.0501123e+41
-3.6564013e+41
-4.2933386e+41
1.1484653e+42
1.0516415e+42
-1.4552583e+41
1.8250469e+41
3.0515697e+41
3.0333342e+41
-3.4907016e+42
-3.759014e+40
-5.4462778e+40
2.8343063e+41
3.1609463e+41
-3.425106e+42
-3.7050248e+40
-5.033611e+40
1.469364e+41
3.1327843e+41
2.9363139e+41
-3.4897088e+42
-3.8738161e+40
-5.1164162e+40
1.7108105e+41
3.0641411e+41
3.0373612e+41
-3.4192783e+42
-3.2180413e+40
-4.98586e+40
-1.4486659e+41
1.6461617e+41
2.9814049e+41
3.0847544e+41
-3.4408206e+42
-3.621787e+40
-5.0153496e+40
-1.7328348e+41
3.0861392e+41
2.8498144e+41
-3.4882487e+42
-5.2717248e+40
-4.0622632e+40
-1.3785877e+41
3.0441696e+41
3.060953e+41
-3.4849916e+42
-3.7074912e+40
-5.2899627e+40
3.0951896e+41
2.8222405e+41
-3.4025826e+42
-4.8524407e+40
-3.678397e+40
-1.3081712e+41
1.6890342e+41
3.0137798e+41
3.0110768e+41
-3.4741632e+42
-3.824473e+40
-5.3587559e+40
3.1306342e+41
2.8190661e+41
-3.417864e+42
-3.8049802e+40
-4.9291008e+40
-1.4976252e+41
2.9533184e+41
3.058209e+41
-3.3985445e+42
1.9308439e+41
-3.1289497e+40
-4.8905789e+40
3.0932059e+41
2.8714422e+41
-3.4724316e+42
-3.7843416e+40
-4.9632841e+40
8.2085167e+41
1.2475933e+42
1.3767799e+42
-1.5835513e+43
-1.3490183e+41
-5.9732862e+40
1.0937292e+42
1.3137966e+42
1.3432234e+42
-1.6172236e+43
-5.6443299e+40
-1.597111e+41
-8.9442174e+41
1.1228329e+42
1.3229475e+42
1.3131864e+42
-1.582026e+43
-4.6371928e+40
-1.5899689e+41
1.2395185e+42
1.3815536e+42
-1.614259e+43
-6.9990067e+40
-1.6705638e+41
1.0644465e+42
-1.2509434e+42
1.2472087e+42
1.3768365e+42
-1.6140582e+43
-6.1203803e+40
-1.6466256e+41
1.3052169e+42
1.3315292e+42
-1.5731787e+43
1.4280192e+42
-2.7202921e+40
-1.5981491e+41
-9.2292627e+41
1.3438094e+42
1.3177301e+42
-1.6324627e+43
-1.7399555e+41
-5.5856058e+40
1.2334973e+42
1.3805093e+42
-1.6008253e+43
-6.390284e+40
-1.6031555e+41
-2.8832524e+43
-2.5116975e+42
-5.7546821e+42
-3.1710216e+44
-3.4620864e+42
-5.4767201e+42
-3.1912953e+44
-2.8288469e+43
2.0130667e+43
2.1029684e+43
2.5847984e+43
-3.2998442e+44
-1.2004005e+43
-1.0197897e+43
2.142229e+43
1.9902098e+43
-3.3134831e+44
-1.2111716e+43
-1.0292682e+43
-6.8797349e+42
2.9301284e+42
5.3032823e+42
5.4667272e+42
-6.7353212e+43
-1.1048481e+42
4.5259295e+41
3.4161694e+42
-1.4248342e+43
3.3840897e+42
5.6928762e+41
-1.4089065e+43
-3.1468822e+42
4.1663213e+42
-5.3142923e+43
-5.2665827e+43
-5.8001293e+40
6.2743531e+41
-1.0776434e+42
1.1120985e+41
-1.6460225e+42
6.333757e+41
-1.1080446e+41
-1.0698751e+42
-1.6611075e+42
-1.0219526e+41
2.3053113e+41
1.5691737e+41
-2.8825116e+41
-4.010994e+41
-3.047136e+41
-4.2303581e+41
-1.6407073e+41
2.3054508e+41
-4.1486986e+41
-4.0606257e+41
-2.9649224e+41
-2.9679263e+41
-9.3304137e+40
6.3344381e+41
-1.1068414e+42
-1.664671e+42
6.3464736e+41
-1.049881e+42
-1.652144e+42
-1.5915017e+41
2.3004067e+41
-2.9138585e+41
-4.0476244e+41
-3.0861094e+41
-4.2571308e+41
2.5338908e+41
-4.1692435e+41
-4.0601982e+41
-2.9714751e+41
-2.9724872e+41
-1.0503302e+41
-4.6184263e+41
1.5425493e+41
-2.2093853e+41
-2.7270272e+41
-2.9037285e+41
-2.3985603e+41
-4.5839867e+41
-1.7465363e+41
-2.811248e+41
-2.7888929e+41
-2.3168218e+41
-2.3441323e+41
7.5064866e+40
-1.5492611e+41
-2.2583849e+41
-4.6742665e+41
-4.5652211e+41
-2.2442804e+41
1.1454973e+41
-4.5016827e+41
-2.1987583e+41
-2.3670233e+41
-4.7885984e+41
-1.5295233e+41
4.6195144e+41
-2.1944204e+41
-2.3996517e+41
-4.8144862e+41
-4.5347625e+41
4.1380908e+41
-4.5317621e+41
-2.2328412e+41
-2.2561183e+41
-4.5273103e+41
-1.700296e+41
-2.9455642e+41
-2.7465577e+41
-2.4831137e+41
-2.2351732e+41
-2.8013798e+41
-2.78068e+41
-2.3246327e+41
-2.3060225e+41
7.27436e+41
2.7191639e+41
2.3410579e+41
-3.1627393e+42
-3.2013247e+42
-2.4187811e+42
-2.4371994e+42
6.8871098e+41
2.7382771e+41
2.2991218e+41
-3.2209793e+42
-3.1056842e+42
-2.397214e+42
-2.4482006e+42
-1.0184968e+43
-3.6361838e+42
5.2219505e+42
5.36067e+42
3.9798168e+42
-6.4705062e+43
1.7265563e+41
-2.0579037e+41
-3.8385622e+42
5.6780507e+42
-6.7212698e+43
9.5260627e+42
-6.5012595e+43
5.324931e+42
4.9729733e+42
-6.4207549e+43
9.5865008e+40
-2.1200827e+41
3.615812e+42
7.1348294e+42
-5.4524381e+43
6.6960168e+42
-5.1801138e+43
4.65761e+42
-3.3946295e+42
3.0172515e+42
5.17026e+42
5.3985677e+42
-6.5968545e+43
-1.1235272e+42
-1.4043529e+42
-4.5800427e+41
3.2654957e+42
6.1863319e+41
-1.3931732e+43
-5.9335025e+41
3.3094976e+42
-1.4061193e+43
5.2150016e+42
5.4327172e+42
-6.7219026e+43
-1.132904e+42
-1.3700466e+42
-4.825375e+41
3.3259206e+42
-1.4013452e+43
3.3680285e+42
-1.4041666e+43
-6.5852051e+41
2.439302e+42
8.5356316e+41
-1.0642677e+43
2.4130992e+42
-1.0590193e+43
7.049391e+41
2.4732026e+42
-1.1579446e+43
2.4871506e+42
8.1536711e+41
-1.1688818e+43
-6.0606336e+41
1.0619821e+42
1.0479903e+42
5.9589962e+41
-3.1952373e+42
-3.0720972e+42
-2.3707943e+42
-2.4246891e+42
2.689738e+41
2.2571e+41
-6.5341843e+41
1.0910553e+42
1.033307e+42
-3.1411042e+42
-3.1642913e+42
-2.4008603e+42
-2.4233829e+42
2.6585799e+41
2.2998864e+41
7.2716321e+41
1.0959241e+42
1.0336223e+42
-3.134447e+42
-3.164458e+42
-2.4033037e+42
-2.423056e+42
2.7016353e+41
2.3373589e+41
1.0673281e+42
1.0512374e+42
-3.2025516e+42
-3.0892523e+42
-2.3854043e+42
-2.4347984e+42
2.6644905e+41
2.2287643e+41
9.3523682e+40
7.5450996e+41
-2.0615848e+42
-2.031066e+42
-1.7283871e+42
-1.7112239e+42
-7.6299303e+40
6.0800073e+41
-1.6216829e+42
1.3990269e+41
6.1355699e+41
-1.2416576e+41
-1.6425875e+42
-8.7955589e+40
2.3438812e+41
1.4864657e+41
-4.1938323e+41
-3.9255618e+41
-2.7936291e+41
-2.9898461e+41
-1.3383289e+41
2.3275973e+41
-2.8824533e+41
-4.0718648e+41
-4.0343985e+41
-2.9151082e+41
-1.0143466e+41
6.175765e+41
-1.6480962e+42
6.2041398e+41
-1.1950053e+41
-1.6428299e+42
-1.321871e+41
2.3464062e+41
-2.8435142e+41
-3.9844042e+41
-3.023639e+41
-4.2209896e+41
2.5405134e+41
-1.4741385e+41
-4.1312336e+41
-4.0285219e+41
-2.9226782e+41
-2.9168429e+41
-7.8096272e+40
-4.4524295e+41
1.2485874e+41
-2.6468077e+41
-2.8381867e+41
-2.2655751e+41
-2.1009663e+41
-4.5146092e+41
-1.2783659e+41
-2.7555194e+41
-2.7759177e+41
-2.2207298e+41
-2.2271955e+41
-4.5169639e+40
8.5327365e+40
-4.4228208e+41
-2.1258214e+41
-2.3350421e+41
-4.707512e+41
-1.0137045e+41
-4.6149105e+41
-2.2404523e+41
-2.2553148e+41
-4.553083e+41
7.515389e+41
-1.5954667e+42
-1.6503818e+42
-1.619799e+42
-1.6659073e+42
-2.7336246e+40
9.2553779e+41
-2.0113251e+42
-2.1177558e+42
-1.69575e+42
-1.790246e+42
8.858811e+41
-1.6718329e+42
-1.5778059e+42
-1.6419492e+42
-1.7348557e+42
-4.5340682e+41
-1.2933838e+41
-2.7113606e+41
-2.8998642e+41
-2.3484121e+41
-2.1601501e+41
-1.0886003e+41
-4.5059573e+41
-2.1943068e+41
-2.3976814e+41
-4.7496912e+41
4.1633183e+41
-1.1287016e+41
-4.5978703e+41
-2.2724066e+41
-2.2506607e+41
-4.5030335e+41
-1.3843663e+41
-2.7695755e+41
-2.7596129e+41
-2.2195663e+41
-2.2458622e+41
-5.6964776e+41
9.3023457e+39
-2.5507518e+42
8.8900128e+41
-2.0338071e+42
-2.1577373e+42
-1.7025943e+42
-1.814157e+42
7.2904696e+40
-2.5400998e+42
-2.0864624e+42
-2.0677898e+42
-1.7572256e+42
-1.747796e+42
-5.4769081e+41
7.9546086e+41
-1.5888973e+42
-1.6535765e+42
-1.6935226e+42
-1.7555255e+42
-1.6483448e+42
-1.6282097e+42
-1.6931782e+42
-1.6743855e+42
5.2169414e+41
2.49923e+42
-1.0762862e+43
2.5145721e+42
9.5733353e+41
-1.0713965e+43
5.392718e+41
-1.1709264e+43
8.6675664e+41
-1.1700399e+43
-6.8705822e+40
6.1673626e+41
-1.634676e+42
6.2211623e+41
-1.2569622e+41
-1.6482993e+42
-1.0224192e+41
2.2928705e+41
-4.1956378e+41
-3.9710359e+41
-2.8470178e+41
-3.0173644e+41
-1.6642603e+41
2.3687279e+41
-2.9330623e+41
-4.1129434e+41
-4.0307771e+41
-2.9408422e+41
-9.9349728e+40
6.2562301e+41
-1.6481969e+42
6.2602967e+41
-1.6342692e+42
-1.5095171e+41
2.385173e+41
-2.8804248e+41
-4.0181463e+41
-3.0479174e+41
-4.2274822e+41
2.5376037e+41
-4.1221874e+41
-4.01442e+41
-2.9270537e+41
-2.9216715e+41
-1.5163598e+41
-4.4628328e+41
1.7131308e+41
-2.9117669e+41
-2.7238177e+41
-2.1925862e+41
-2.3882343e+41
-4.1261837e+41
-2.7683854e+41
-2.758329e+41
-2.2592438e+41
-2.2619718e+41
-1.3136797e+41
1.5025968e+41
-4.465382e+41
-2.1838379e+41
-2.3873842e+41
-4.7485704e+41
-2.2754452e+41
-2.2710351e+41
-4.583429e+41
-4.5272444e+41
-4.5136015e+41
-1.0358677e+41
-2.8657374e+41
-2.6827298e+41
-2.1553457e+41
-2.330241e+41
-7.9281407e+40
-4.4555784e+41
-2.1578732e+41
-2.3577385e+41
-4.7646981e+41
-4.4040639e+41
-2.790295e+41
-2.7737858e+41
-2.2685666e+41
-2.2652835e+41
-2.2551867e+41
-2.2611403e+41
-4.6381087e+41
-4.5349158e+41
-1.0014057e+43
-4.3480995e+42
5.1209045e+42
5.3046578e+42
-6.391238e+43
1.6330618e+41
-3.0112781e+41
-4.9541975e+42
-6.4675164e+43
9.6482242e+42
-6.6133233e+43
4.9367151e+42
5.3682616e+42
-6.4151545e+43
1.2867695e+41
-3.1091484e+41
6.6657687e+41
2.4550251e+42
-1.0449114e+42
-1.0795733e+43
2.4604516e+42
-1.0697084e+43
6.4262262e+41
-9.3068567e+41
2.4717996e+42
-1.1682042e+43
2.434247e+42
-1.1610437e+43
8.169563e+41
2.4319847e+42
-1.0679406e+43
2.4593368e+42
-1.0720251e+43
8.063672e+41
2.4797375e+42
-1.1586484e+43
2.4846118e+42
-1.1720293e+43
-6.1042261e+40
-8.2672711e+41
9.8310801e+41
-2.0257091e+42
-1.6988779e+42
-2.1488222e+42
-1.8092699e+42
-7.7349217e+41
8.733997e+41
-1.5931704e+42
-1.6555146e+42
-1.6999346e+42
-1.7637649e+42
4.7074012e+40
-2.0735383e+42
-2.0572128e+42
-1.7331874e+42
-1.7301282e+42
-1.6835525e+42
-1.6643683e+42
-1.630204e+42
-1.6130268e+42
-6.8172821e+40
-6.6321259e+41
-2.0160465e+42
-2.144909e+42
-1.7935197e+42
-1.6730228e+42
-5.9858024e+41
9.0835892e+41
-1.5648079e+42
-1.6734489e+42
-1.6408372e+42
-1.7370831e+42
2.981281e+40
-1.7384105e+42
-1.7497395e+42
-2.0801708e+42
-2.0805508e+42
-1.6405183e+42
-1.6831745e+42
-1.6371001e+42
-1.6768983e+42
-1.5874127e+41
-6.9919303e+41
1.7968708e+41
7.701178e+41
-5.5789932e+41
-5.2668373e+41
-7.7602403e+41
-8.1848036e+41
-6.9319742e+41
7.3952347e+41
-5.3205879e+41
-5.3545065e+41
-7.9864412e+41
-7.7047537e+41
1.6470053e+41
-2.7572735e+42
2.1687484e+41
-2.8172107e+42
1.4732779e+40
-1.2813422e+41
-2.4287979e+40
2.9702116e+41
-7.2553437e+41
-1.2466596e+41
2.8813327e+41
2.9520103e+40
-7.1382368e+41
-2.113999e+40
-6.2386032e+41
4.0090942e+40
-3.5298843e+40
-6.3925008e+41
2.7645783e+40