/*--------------------------------*- C++ -*----------------------------------*\
  =========                 |
  \\      /  F ield         | OpenFOAM: The Open Source CFD Toolbox
   \\    /   O peration     | Website:  https://openfoam.org
    \\  /    A nd           | Version:  7
     \\/     M anipulation  |
\*---------------------------------------------------------------------------*/
FoamFile
{
    version     2.0;
    format      ascii;
    class       volVectorField;
    location    "1000";
    object      UMean;
}
// * * * * * * * * * * * * * * * * * * * * * * * * * * * * * * * * * * * * * //

dimensions      [0 1 -1 0 0 0 0];

internalField   nonuniform List<vector> 
34378
(
(-1.1590233e+45 1.1449772e+44 1.2029971e+44)
(-1.0677899e+45 1.5734489e+44 1.7875078e+42)
(-1.0577916e+45 7.1953776e+43 1.55341e+44)
(-1.1698642e+45 1.3687209e+44 1.1051562e+44)
(-1.138502e+45 7.1605591e+43 1.3025537e+44)
(-1.0595604e+45 9.2234444e+43 1.4287102e+44)
(-1.1368925e+45 5.8569216e+43 9.339449e+43)
(-1.0509336e+45 8.6839995e+43 -1.2913861e+44)
(-8.2877966e+44 1.2990254e+44 -4.5039357e+42)
(-1.0353728e+45 5.6277073e+43 -1.2703151e+44)
(-8.1717797e+44 7.4816263e+43 -3.3392987e+42)
(-1.067302e+45 1.6889674e+44 -1.92245e+43)
(-8.960331e+44 4.3552823e+43 1.2072082e+44)
(-8.990081e+44 4.9801481e+43 1.1081593e+44)
(-1.0965427e+45 3.5060331e+43 1.3448759e+44)
(-1.0867647e+45 5.9403535e+43 1.3908449e+44)
(-1.0597358e+45 9.2310022e+43 1.4017963e+44)
(-1.0534693e+45 6.7952717e+43 1.4703818e+44)
(-1.1528521e+45 7.6753901e+43 1.2956253e+44)
(-1.1426373e+45 5.5770599e+43 1.2075446e+44)
(-8.8853701e+44 4.5533842e+43 1.0749405e+44)
(-1.0778816e+45 5.4606636e+43 1.2062878e+44)
(-1.1878374e+45 5.6687895e+43 4.7845026e+43)
(-1.1408792e+45 4.321284e+43 -2.3415553e+43)
(-1.4341665e+45 5.5659262e+43 -1.9861247e+43)
(-1.0300662e+45 4.4623494e+43 8.1051078e+43)
(-1.035647e+45 2.5211072e+43 8.397072e+43)
(-1.034807e+45 4.5746603e+43 9.1700457e+43)
(-1.1351816e+45 4.306962e+43 8.2868486e+43)
(-1.150698e+45 6.3467741e+43 9.1948946e+43)
(-9.5780059e+44 3.5781049e+43 -1.166901e+44)
(-9.9810134e+44 4.053959e+43 -1.0485578e+44)
(-1.0044063e+45 2.6717673e+43 -1.0569256e+44)
(-6.0006848e+44 4.6117995e+43 3.641272e+41)
(-7.8814083e+44 3.4843323e+43 -1.4862578e+44)
(-1.0442501e+45 8.0111662e+43 -1.315738e+44)
(-1.0080376e+45 2.5365648e+43 -1.0825144e+44)
(-9.9593965e+44 4.5993508e+43 -1.0437643e+44)
(-9.5814203e+44 3.8684079e+43 -1.1918099e+44)
(-9.6088981e+44 3.699462e+43 -1.1709936e+44)
(-7.8317674e+44 3.5085832e+43 -1.4923356e+44)
(-7.9120495e+44 4.3979452e+43 -1.4910272e+44)
(-5.9796572e+44 4.0720448e+43 5.2303577e+42)
(-8.2948576e+44 1.1977399e+44 -7.450285e+42)
(-6.0754636e+44 7.5760013e+43 5.280361e+42)
(-1.0301514e+45 5.6255023e+43 -1.3142443e+44)
(-8.150119e+44 6.6651468e+43 -1.1304927e+43)
(-7.5482752e+44 2.5842275e+43 9.6294902e+43)
(-7.5566096e+44 2.6676946e+43 8.8048751e+43)
(-8.9381587e+44 5.0945223e+43 1.0937065e+44)
(-9.578835e+44 2.4568567e+43 1.1538194e+44)
(-9.5715117e+44 4.2712373e+43 1.2120676e+44)
(-7.505104e+44 2.6258661e+43 8.6159684e+43)
(-7.5291296e+44 3.0752317e+43 8.65858e+43)
(-9.5719006e+44 2.2126509e+43 1.0901514e+44)
(-9.5729425e+44 3.633549e+43 1.0938789e+44)
(-1.0849677e+45 3.1832203e+43 1.2602444e+44)
(-1.0778304e+45 5.2983018e+43 1.2074774e+44)
(-8.8538806e+44 4.2068549e+43 1.0515324e+44)
(-8.9073423e+44 4.3105176e+43 1.1335963e+44)
(-1.0868333e+45 6.2977276e+43 1.3238398e+44)
(-8.9911409e+44 4.6483604e+43 1.097386e+44)
(-1.0970954e+45 3.5468793e+43 1.3140195e+44)
(-7.4975432e+44 2.8140717e+43 8.8578039e+43)
(-7.5294388e+44 3.2751907e+43 8.3045642e+43)
(-9.5392093e+44 4.2738665e+43 1.0893107e+44)
(-9.5550301e+44 2.6863272e+43 1.0602291e+44)
(-1.1516729e+45 3.7812168e+43 -2.7819291e+43)
(-1.2018194e+45 6.0573509e+43 4.9834278e+43)
(-1.1952895e+45 3.8511496e+43 4.404601e+43)
(-1.0817962e+45 4.4991821e+43 6.9232323e+43)
(-1.0858109e+45 2.758863e+43 6.3029597e+43)
(-1.0464961e+45 2.7545857e+43 -2.1614388e+42)
(-1.0452038e+45 3.5123345e+43 6.4621155e+42)
(-1.0547332e+45 3.5235293e+43 -1.424642e+43)
(-1.0212612e+45 2.8683465e+43 -4.1360194e+43)
(-1.0257914e+45 2.3354449e+43 -5.00852e+43)
(-1.0588352e+45 2.602971e+43 -2.1677661e+43)
(-1.156346e+45 4.7098873e+43 -1.667753e+43)
(-1.063157e+45 3.4450046e+43 -2.3772119e+43)
(-1.0343332e+45 2.7951729e+43 -5.2392514e+43)
(-1.1467937e+45 2.7436943e+43 -2.4988249e+43)
(-1.0606426e+45 3.7582023e+43 -5.8016958e+43)
(-1.0302742e+45 2.2574034e+43 -6.0393331e+43)
(-9.7726809e+44 2.6525859e+43 -4.4156779e+42)
(-9.7404595e+44 3.7826014e+43 2.9319464e+42)
(-9.5468758e+44 3.279371e+43 -2.6748633e+43)
(-9.6551755e+44 3.4167809e+43 -3.0477672e+43)
(-1.0459678e+45 3.5742465e+43 -1.9420989e+42)
(-1.0784673e+45 4.3181267e+43 5.7730549e+43)
(-9.0398626e+44 1.9279291e+43 7.0485701e+43)
(-9.0391016e+44 3.377305e+43 7.358141e+43)
(-9.0854882e+44 3.1110181e+43 7.3722408e+43)
(-9.0440736e+44 1.6557743e+43 7.2774534e+43)
(-9.060377e+44 1.6040671e+43 7.7105315e+43)
(-9.0686646e+44 3.4218712e+43 8.2790995e+43)
(-1.0276606e+45 2.3364424e+43 8.4459676e+43)
(-1.0280986e+45 4.4401134e+43 7.9566437e+43)
(-1.0343234e+45 4.9492188e+43 8.7584897e+43)
(-1.0413075e+45 2.6360057e+43 8.4779483e+43)
(-1.1909406e+45 5.5866284e+43 -1.1127265e+44)
(-1.1841988e+45 5.2306853e+43 -1.112544e+44)
(-1.0214512e+45 3.7196282e+43 -1.3574322e+44)
(-9.8865333e+44 3.4800544e+43 -8.3013721e+43)
(-9.910158e+44 1.8091378e+43 -8.2751066e+43)
(-4.7984728e+44 2.445654e+43 -1.4426339e+44)
(-4.871646e+44 2.9330185e+43 -1.4436755e+44)
(-4.2605861e+44 2.0888935e+43 3.47905e+43)
(-4.3375038e+44 4.8101585e+43 3.6037036e+43)
(-8.2092489e+44 1.8490035e+43 -1.3661121e+44)
(-8.163254e+44 3.0096699e+43 -1.3508826e+44)
(-6.9054852e+44 2.4895187e+43 -1.5875246e+44)
(-6.8664762e+44 2.7867433e+43 -1.6047439e+44)
(-9.6564466e+44 3.5542685e+43 -1.2152222e+44)
(-1.0049049e+45 4.1580922e+43 -1.0631597e+44)
(-1.0058129e+45 2.4778017e+43 -1.0593855e+44)
(-9.6342365e+44 3.8189727e+43 -1.1758406e+44)
(-1.0000157e+45 1.8844446e+43 -8.3629834e+43)
(-9.8625174e+44 3.7954059e+43 -8.263496e+43)
(-1.0217298e+45 3.8172627e+43 -1.3607172e+44)
(-1.0206853e+45 3.1317939e+43 -1.338348e+44)
(-7.9092621e+44 4.5028194e+43 -1.4970483e+44)
(-8.2162676e+44 1.7939444e+43 -1.3694432e+44)
(-8.1748103e+44 3.0834569e+43 -1.3555067e+44)
(-6.8632927e+44 2.773948e+43 -1.6112164e+44)
(-6.9020474e+44 2.2984155e+43 -1.590163e+44)
(-8.18204e+44 1.7144647e+43 -1.352727e+44)
(-8.1694639e+44 2.6843877e+43 -1.3343471e+44)
(-6.8933568e+44 2.4278652e+43 -1.5965664e+44)
(-6.8659592e+44 2.5187691e+43 -1.5805459e+44)
(-4.7481648e+44 2.288246e+43 -1.438594e+44)
(-4.8227445e+44 2.4453877e+43 -1.435502e+44)
(-4.23065e+44 1.6140309e+43 3.6273601e+43)
(-5.9726179e+44 7.4831925e+43 -6.1541107e+41)
(-4.3173383e+44 3.843163e+43 3.757849e+43)
(-6.0096826e+44 3.5710961e+43 -2.5739763e+42)
(-7.9071544e+44 3.1670087e+43 -1.5245867e+44)
(-4.7876282e+44 2.1063209e+43 -1.4210919e+44)
(-4.8199151e+44 2.6900103e+43 -1.4455325e+44)
(-4.2545326e+44 4.3270915e+43 3.1270096e+43)
(-4.2541721e+44 1.7542913e+43 3.5164429e+43)
(-9.6322405e+44 3.9621396e+43 -1.2110228e+44)
(-1.0016872e+45 4.7883979e+43 -1.0736753e+44)
(-1.0126105e+45 2.7575318e+43 -1.0974236e+44)
(-9.6745269e+44 3.8469517e+43 -1.1951055e+44)
(-7.8641162e+44 3.4459707e+43 -1.5201384e+44)
(-7.9428342e+44 4.354147e+43 -1.5232482e+44)
(-6.058087e+44 6.7556208e+43 1.8693031e+42)
(-5.9518015e+44 3.3523777e+43 -4.264858e+41)
(-7.5398481e+44 3.0958005e+43 8.7807686e+43)
(-6.5823191e+44 1.5686763e+43 9.1181315e+43)
(-6.5726827e+44 1.6277732e+43 8.5579489e+43)
(-8.2808958e+44 1.8022361e+43 1.0805427e+44)
(-8.2573724e+44 2.9276154e+43 1.0979989e+44)
(-6.5503561e+44 1.4164533e+43 8.3698568e+43)
(-6.5761201e+44 1.8890837e+43 8.5275896e+43)
(-8.2711544e+44 1.441288e+43 1.0317333e+44)
(-8.2732201e+44 2.2718277e+43 1.0228599e+44)
(-7.5357317e+44 2.914268e+43 8.6698106e+43)
(-9.5801713e+44 3.7167826e+43 1.0947002e+44)
(-9.5499354e+44 2.1828259e+43 1.0974876e+44)
(-6.5436047e+44 1.5266576e+43 8.6528726e+43)
(-6.5233065e+44 1.9536716e+43 8.0333553e+43)
(-8.265255e+44 2.7583756e+43 1.0308785e+44)
(-8.2588412e+44 1.8773115e+43 9.9874164e+43)
(-6.5421289e+44 1.910715e+43 8.3116319e+43)
(-6.5211347e+44 2.1475035e+43 8.2655059e+43)
(-8.2396553e+44 1.5726907e+43 1.0065514e+44)
(-8.2658011e+44 2.4777338e+43 1.0052254e+44)
(-7.4493725e+44 2.588267e+43 8.465889e+43)
(-7.4905601e+44 2.9468445e+43 8.0500567e+43)
(-9.4826042e+44 4.0706229e+43 1.0532045e+44)
(-9.5421862e+44 2.5947388e+43 1.04576e+44)
(-7.5277548e+44 2.6061516e+43 9.0108753e+43)
(-7.5294311e+44 2.7359066e+43 8.3962372e+43)
(-9.5858205e+44 2.7208083e+43 1.1088511e+44)
(-9.5356265e+44 4.4939133e+43 1.1246553e+44)
(-9.6099096e+44 3.7183166e+43 1.0948102e+44)
(-7.5448179e+44 2.5288265e+43 8.6388266e+43)
(-7.5464064e+44 2.8381929e+43 8.6583149e+43)
(-9.587646e+44 2.150734e+43 1.0888085e+44)
(-6.532118e+44 1.7503216e+43 8.656391e+43)
(-6.541429e+44 2.0295062e+43 8.1856434e+43)
(-8.2671488e+44 2.0212121e+43 1.0070484e+44)
(-8.2408553e+44 2.9676841e+43 1.0235533e+44)
(-6.5166167e+44 2.0076823e+43 8.053672e+43)
(-6.523631e+44 2.6192278e+43 8.1082709e+43)
(-8.2325358e+44 1.9454458e+43 9.6945281e+43)
(-8.2452722e+44 2.6785787e+43 9.6260787e+43)
(-1.0291055e+45 2.3723894e+43 -4.0151516e+43)
(-1.0594124e+45 2.3948599e+43 -1.427892e+43)
(-1.0489662e+45 3.4771289e+43 -2.6140517e+43)
(-1.0255812e+45 2.9641311e+43 -5.1994132e+43)
(-1.0530464e+45 2.7737056e+43 2.5918105e+42)
(-1.0496012e+45 3.7609007e+43 5.805562e+42)
(-1.0805957e+45 4.7141112e+43 6.6017711e+43)
(-1.0950284e+45 2.8108264e+43 6.6482279e+43)
(-1.037388e+45 3.677073e+43 -1.9165265e+42)
(-1.0751276e+45 4.3804518e+43 5.785853e+43)
(-1.0760293e+45 2.479219e+43 6.3246029e+43)
(-1.0434063e+45 2.5491327e+43 5.0375149e+42)
(-9.5410768e+44 3.5591186e+43 8.1253112e+43)
(-9.1509418e+44 1.7073487e+43 3.1795157e+43)
(-9.1712074e+44 2.8855331e+43 3.5909375e+43)
(-9.5488778e+44 1.8220458e+43 7.7475304e+43)
(-9.1368318e+44 1.9631936e+43 2.7962702e+43)
(-9.1405089e+44 2.6584763e+43 2.7322956e+43)
(-9.5477938e+44 1.7951975e+43 7.3684739e+43)
(-9.5712673e+44 3.1648772e+43 7.3678948e+43)
(-9.2520015e+44 2.6144199e+43 7.9124299e+42)
(-8.9443251e+44 2.2056917e+43 -1.9716291e+43)
(-8.9414243e+44 2.0780467e+43 -1.8903884e+43)
(-9.2548173e+44 1.9594044e+43 8.9501875e+42)
(-9.2778687e+44 2.9266534e+43 1.7011943e+43)
(-8.953558e+44 1.9377643e+43 -1.4865592e+43)
(-8.9331224e+44 2.3661761e+43 -1.2447064e+43)
(-9.2738324e+44 1.8935093e+43 1.3619059e+43)
(-9.0435821e+44 2.4012234e+43 -1.7694049e+43)
(-8.9259355e+44 2.1024397e+43 -3.3923416e+43)
(-8.8975932e+44 2.0746787e+43 -3.2257784e+43)
(-9.0787661e+44 2.0403456e+43 -1.9088151e+43)
(-9.1332554e+44 2.0530193e+43 -3.2422024e+43)
(-9.0849426e+44 2.1612803e+43 -3.1384262e+43)
(-8.9749887e+44 1.8420217e+43 -3.9388453e+43)
(-9.0216591e+44 1.963286e+43 -4.0481583e+43)
(-1.0294752e+45 2.9989316e+43 -4.3446373e+43)
(-9.0504639e+44 2.1006155e+43 -4.5707812e+43)
(-9.0464728e+44 1.7028589e+43 -4.7048738e+43)
(-9.13356e+44 2.0369799e+43 -3.8674524e+43)
(-1.0370772e+45 2.0213683e+43 -5.0611321e+43)
(-9.1366521e+44 2.1057807e+43 -3.7458512e+43)
(-8.933365e+44 2.1446947e+43 -3.7793572e+43)
(-8.9304743e+44 1.9733791e+43 -3.8808722e+43)
(-9.043103e+44 2.2211163e+43 -2.5705556e+43)
(-9.0447014e+44 2.076211e+43 -2.4497261e+43)
(-1.0048465e+45 1.5203743e+43 -7.2944715e+43)
(-1.0135228e+45 2.7514716e+43 -5.8464612e+43)
(-9.0739519e+44 2.5263942e+43 -2.2932363e+43)
(-8.9426481e+44 2.4045429e+43 -3.9188988e+43)
(-8.9615845e+44 2.2398336e+43 -3.6821789e+43)
(-9.0730976e+44 2.3090055e+43 -2.4340508e+43)
(-9.0564093e+44 2.3652643e+43 -4.778429e+43)
(-9.0904552e+44 2.0225459e+43 -4.4877676e+43)
(-9.140296e+44 2.3280985e+43 -3.8932295e+43)
(-9.1501673e+44 2.3363148e+43 -3.7195147e+43)
(-1.0545516e+45 2.8175534e+43 -5.3012752e+43)
(-1.0379794e+45 2.6243319e+43 -5.1328446e+43)
(-1.009135e+45 2.5015209e+43 -7.8070571e+43)
(-1.0048857e+45 2.4577413e+43 -7.1845161e+43)
(-9.5134503e+44 2.8138325e+43 -8.5748581e+43)
(-1.045824e+45 3.1690236e+43 -5.3197571e+43)
(-1.1688936e+45 4.697745e+43 -3.5577357e+43)
(-9.3495352e+44 1.4696933e+43 -8.9499935e+43)
(-1.0364796e+45 1.7656547e+43 -7.0076401e+43)
(-1.0173557e+45 3.7855614e+43 -1.1818851e+44)
(-1.0150956e+45 1.5301574e+43 -1.1964918e+44)
(-1.1623881e+45 2.1987093e+43 -3.9523963e+43)
(-1.0444034e+45 2.7103973e+43 -7.4240956e+43)
(-9.2330416e+44 2.4288977e+43 -9.387936e+43)
(-9.268569e+44 1.4683845e+43 -9.2970622e+43)
(-1.0356648e+45 2.2472312e+43 -6.9562863e+43)
(-9.2771905e+44 3.0571499e+43 1.1164026e+43)
(-8.9465871e+44 2.2819034e+43 -1.8715572e+43)
(-8.9566368e+44 2.5653459e+43 -1.646095e+43)
(-9.2705375e+44 2.2395386e+43 8.7184041e+42)
(-9.4943068e+44 3.4839799e+43 7.1497392e+43)
(-9.1477844e+44 2.112777e+43 2.7542089e+43)
(-9.169624e+44 3.0303605e+43 3.0587145e+43)
(-9.520094e+44 2.1183631e+43 7.0049696e+43)
(-7.8084187e+44 2.4814594e+43 7.1095422e+43)
(-7.7819424e+44 1.601376e+43 7.1581015e+43)
(-7.8057645e+44 1.4415793e+43 7.3316873e+43)
(-7.7917608e+44 2.4491724e+43 7.5744812e+43)
(-7.7961903e+44 2.1831078e+43 7.4588502e+43)
(-7.7969867e+44 1.2616437e+43 7.183045e+43)
(-7.8185493e+44 2.2878656e+43 7.4398343e+43)
(-7.7810311e+44 1.2278567e+43 7.4494205e+43)
(-7.819427e+44 1.9899969e+43 7.5152072e+43)
(-7.799174e+44 9.8995699e+42 7.5621328e+43)
(-7.8072529e+44 2.3719459e+43 8.1204269e+43)
(-7.813597e+44 1.1000134e+43 7.8170861e+43)
(-9.0291975e+44 1.7762453e+43 7.6340726e+43)
(-9.0730736e+44 3.3954616e+43 7.491487e+43)
(-8.9937971e+44 3.2508128e+43 7.0690372e+43)
(-9.0242007e+44 1.944397e+43 6.8757974e+43)
(-9.0558245e+44 1.90119e+43 7.446861e+43)
(-9.0356116e+44 3.6532969e+43 7.7455415e+43)
(-9.121355e+44 3.3004973e+43 7.4810721e+43)
(-9.0737495e+44 1.670391e+43 7.410856e+43)
(-1.1948248e+45 5.5885329e+43 -1.1267195e+44)
(-1.1884444e+45 4.9697078e+43 -1.1039058e+44)
(-1.2044899e+45 4.8137981e+43 -6.3222148e+43)
(-1.1997553e+45 4.253455e+43 -6.3268007e+43)
(-1.0417951e+45 3.0860992e+43 -1.1177976e+44)
(-8.2748201e+44 1.4600941e+43 -1.4045324e+44)
(-8.2455622e+44 2.8196983e+43 -1.4106829e+44)
(-1.0243809e+45 3.2890379e+43 -6.2832321e+43)
(-1.0304464e+45 1.9297643e+43 -6.3815586e+43)
(-4.9732889e+44 1.7833018e+43 -1.4811386e+44)
(-4.9678211e+44 1.26611e+43 -1.4669905e+44)
(-3.6112645e+44 1.8584292e+43 -1.614052e+44)
(-3.630113e+44 1.4443717e+43 -1.576009e+44)
(-4.9872195e+44 1.6230666e+43 -1.4581017e+44)
(-4.9766894e+44 1.287042e+43 -1.4726927e+44)
(-3.625627e+44 1.7466323e+43 -1.5793198e+44)
(-3.653031e+44 1.6865284e+43 -1.5925122e+44)
(-2.8071869e+44 1.983837e+43 -5.2570198e+43)
(-2.8404665e+44 2.0000427e+43 -4.9438437e+43)
(-4.0987861e+44 1.9474261e+43 6.1620185e+43)
(-4.0460271e+44 7.3114106e+42 6.0477289e+43)
(-4.0686621e+44 1.2606931e+43 6.0597892e+43)
(-4.023256e+44 2.6836944e+43 5.6483146e+43)
(-2.8478744e+44 2.1628141e+43 -4.7373882e+43)
(-2.7944114e+44 2.3817237e+43 -5.9487217e+43)
(-7.2577982e+44 2.2735143e+43 -1.7338191e+44)
(-7.2312935e+44 2.6077282e+43 -1.7457839e+44)
(-1.0285083e+45 3.7277961e+43 -1.3929161e+44)
(-1.0015401e+45 3.7226444e+43 -8.5231559e+43)
(-9.9088662e+44 1.7288082e+43 -8.3743338e+43)
(-1.0233894e+45 3.0767198e+43 -1.3359042e+44)
(-1.0450759e+45 2.1562658e+43 -6.7829058e+43)
(-1.022813e+45 3.4902132e+43 -6.2403699e+43)
(-1.044234e+45 3.2880832e+43 -1.1258779e+44)
(-8.2504447e+44 2.8198257e+43 -1.4106823e+44)
(-8.2648577e+44 1.3976241e+43 -1.4049553e+44)
(-1.0452758e+45 2.6934686e+43 -1.0986733e+44)
(-8.2437062e+44 2.7019346e+43 -1.3938825e+44)
(-8.2425773e+44 1.3639334e+43 -1.4022854e+44)
(-8.2188202e+44 2.7662842e+43 -1.3383254e+44)
(-8.2325954e+44 1.8572863e+43 -1.3518541e+44)
(-6.9230538e+44 2.4968055e+43 -1.6003745e+44)
(-6.9019453e+44 2.5459991e+43 -1.5844184e+44)
(-7.2162302e+44 2.5159902e+43 -1.7421365e+44)
(-7.2558099e+44 2.143581e+43 -1.7301026e+44)
(-7.2516759e+44 2.2309062e+43 -1.7357852e+44)
(-7.2342218e+44 2.5173464e+43 -1.7254666e+44)
(-4.8151022e+44 2.6869804e+43 -1.445101e+44)
(-4.9580196e+44 1.7627683e+43 -1.4772169e+44)
(-4.9582737e+44 1.1967226e+43 -1.4621687e+44)
(-3.5687804e+44 1.7880738e+43 -1.6207716e+44)
(-3.5939592e+44 1.284223e+43 -1.5857032e+44)
(-4.9771938e+44 1.4763906e+43 -1.4517785e+44)
(-4.9717111e+44 1.0951827e+43 -1.4662579e+44)
(-3.5904199e+44 1.5231274e+43 -1.5924035e+44)
(-3.6226998e+44 1.3457596e+43 -1.6040619e+44)
(-2.772668e+44 1.8417246e+43 -5.212478e+43)
(-2.8362979e+44 1.7677383e+43 -4.7102097e+43)
(-4.075101e+44 5.0859974e+42 6.0302348e+43)
(-4.134883e+44 1.4266249e+43 6.2832802e+43)
(-4.2217229e+44 4.2748611e+43 3.0315329e+43)
(-4.8016348e+44 2.1923407e+43 -1.424421e+44)
(-4.2398153e+44 2.0017022e+43 3.4888806e+43)
(-2.8376585e+44 1.8087437e+43 -4.6329496e+43)
(-4.1023088e+44 5.7322713e+42 6.0901005e+43)
(-4.0943462e+44 1.8512687e+43 5.9720293e+43)
(-2.8084607e+44 1.9142953e+43 -5.5459608e+43)
(-4.834291e+44 2.0222327e+43 -1.4716587e+44)
(-4.8775422e+44 2.5006651e+43 -1.45565e+44)
(-4.2266453e+44 1.4469253e+43 3.0499903e+43)
(-4.2697318e+44 4.0314556e+43 3.122388e+43)
(-8.2633906e+44 1.8549584e+43 -1.3894698e+44)
(-8.2398239e+44 3.0837582e+43 -1.3864377e+44)
(-6.9508043e+44 2.275232e+43 -1.6094062e+44)
(-6.9444832e+44 2.6235556e+43 -1.6357049e+44)
(-4.9517057e+44 1.6343816e+43 -1.4561164e+44)
(-4.95349e+44 1.214697e+43 -1.448314e+44)
(-3.5767173e+44 1.6875449e+43 -1.6057053e+44)
(-3.615775e+44 1.4152865e+43 -1.5723861e+44)
(-4.9882041e+44 1.5778806e+43 -1.4564616e+44)
(-4.9761547e+44 1.2185949e+43 -1.4740252e+44)
(-3.6206103e+44 1.6951559e+43 -1.5873391e+44)
(-3.6404171e+44 1.5287926e+43 -1.6039308e+44)
(-2.847328e+44 2.1192963e+43 -4.7389461e+43)
(-2.7910817e+44 2.1483737e+43 -5.8311838e+43)
(-4.0802492e+44 1.1635393e+43 6.0132295e+43)
(-4.0060077e+44 2.1242181e+43 5.5296844e+43)
(-2.8011536e+44 1.8390917e+43 -4.9474787e+43)
(-4.0965396e+44 5.3526675e+42 6.081998e+43)
(-2.8444487e+44 2.0557833e+43 -4.7663406e+43)
(-4.1038185e+44 1.951822e+43 6.0845604e+43)
(-1.0266186e+45 3.8702431e+43 -1.3701587e+44)
(-9.9004971e+44 3.9897793e+43 -8.5401258e+43)
(-9.9784038e+44 2.0283739e+43 -8.4921399e+43)
(-1.0271059e+45 3.2359747e+43 -1.3512048e+44)
(-8.2489357e+44 1.9808789e+43 -1.3810162e+44)
(-8.2191495e+44 3.2112283e+43 -1.3723799e+44)
(-6.9410903e+44 2.3589414e+43 -1.6025425e+44)
(-6.9123503e+44 2.7101372e+43 -1.6220467e+44)
(-8.2312638e+44 1.9104243e+43 -1.3719665e+44)
(-8.2320732e+44 2.8856159e+43 -1.3597321e+44)
(-6.9381193e+44 2.3911313e+43 -1.6166997e+44)
(-6.9275036e+44 2.5062787e+43 -1.6014466e+44)
(-4.8222941e+44 1.9848888e+43 -1.4419927e+44)
(-4.251977e+44 1.4211307e+43 3.4145921e+43)
(-4.836184e+44 2.4456809e+43 -1.4567194e+44)
(-4.2459911e+44 3.8503022e+43 3.2907783e+43)
(-4.7800453e+44 2.0937092e+43 -1.4542083e+44)
(-4.2206423e+44 1.2550901e+43 3.4559178e+43)
(-4.8483481e+44 2.4124277e+43 -1.4459863e+44)
(-4.2629756e+44 3.6822015e+43 3.349066e+43)
(-6.5700055e+44 2.0538799e+43 8.3707684e+43)
(-6.5768786e+44 2.2069372e+43 8.5216087e+43)
(-8.2550247e+44 1.6472941e+43 1.0276301e+44)
(-8.2759839e+44 2.6234043e+43 1.0182873e+44)
(-5.7533439e+44 1.1681224e+43 8.5766697e+43)
(-5.7531551e+44 8.3820293e+42 8.94126e+43)
(-7.192177e+44 2.0183554e+43 9.336904e+43)
(-7.2265177e+44 1.233148e+43 9.5385626e+43)
(-5.7217118e+44 1.2503559e+43 8.5632632e+43)
(-5.7159461e+44 5.6998787e+42 8.4489338e+43)
(-7.2224804e+44 1.4897046e+43 9.0284351e+43)
(-7.2194505e+44 8.6133293e+42 9.0365107e+43)
(-5.7108516e+44 1.2366959e+43 8.2915951e+43)
(-5.6979379e+44 4.1606047e+42 8.6105733e+43)
(-7.223576e+44 1.7221253e+43 9.0010512e+43)
(-7.22704e+44 1.1754072e+43 8.9252411e+43)
(-5.6944784e+44 1.4373217e+43 8.4281618e+43)
(-5.6779777e+44 7.77393e+42 8.2808622e+43)
(-7.2279857e+44 1.5842639e+43 9.1212269e+43)
(-7.2041845e+44 8.3228807e+42 8.9726891e+43)
(-6.5676313e+44 1.9173891e+43 8.5735088e+43)
(-6.5624608e+44 2.2513686e+43 8.0563045e+43)
(-8.2919321e+44 2.1604517e+43 1.0011537e+44)
(-8.2797303e+44 3.0293181e+43 1.0211251e+44)
(-5.7338089e+44 1.2713186e+43 8.4221579e+43)
(-5.7369709e+44 6.3941217e+42 8.7731201e+43)
(-7.1781514e+44 1.854059e+43 8.8715277e+43)
(-7.2215605e+44 1.2327849e+43 9.1068701e+43)
(-5.6568521e+44 8.0822186e+42 8.1782243e+43)
(-5.654677e+44 1.6790835e+43 8.2354011e+43)
(-7.191987e+44 1.7181745e+43 8.5906461e+43)
(-7.1872521e+44 1.128916e+43 8.6182845e+43)
(-5.691124e+44 1.710811e+43 8.2303778e+43)
(-5.6850751e+44 9.1432333e+42 8.5523309e+43)
(-7.2170557e+44 2.0875322e+43 8.9243206e+43)
(-7.2267803e+44 1.5367842e+43 8.9712295e+43)
(-5.6764207e+44 1.6774303e+43 8.4807886e+43)
(-5.6562617e+44 1.2707938e+43 8.2539842e+43)
(-7.1888253e+44 1.9260246e+43 8.9051703e+43)
(-7.1801902e+44 1.1113516e+43 8.9523347e+43)
(-6.5176231e+44 1.5183027e+43 8.4950865e+43)
(-6.5126982e+44 1.8339054e+43 8.0500458e+43)
(-8.2069979e+44 2.8070353e+43 1.0128626e+44)
(-8.233473e+44 1.8615603e+43 9.9663251e+43)
(-6.5081186e+44 1.7373795e+43 8.1043051e+43)
(-6.4838132e+44 2.1520662e+43 7.9015249e+43)
(-8.2198609e+44 1.8043929e+43 9.6129858e+43)
(-8.2623817e+44 2.5595827e+43 9.7401337e+43)
(-7.555135e+44 3.007769e+43 8.4405367e+43)
(-6.5777316e+44 1.4431379e+43 8.7237257e+43)
(-6.578447e+44 1.6691411e+43 8.2936568e+43)
(-8.2873113e+44 2.0058971e+43 1.0332396e+44)
(-8.2638115e+44 3.0732601e+43 1.0463118e+44)
(-6.5573329e+44 1.5180624e+43 8.2731499e+43)
(-6.5640822e+44 1.8980016e+43 8.3382062e+43)
(-8.2793284e+44 1.6493045e+43 1.0119581e+44)
(-8.2881337e+44 2.4961812e+43 1.0062771e+44)
(-6.5864329e+44 1.4848248e+43 8.6407146e+43)
(-8.307295e+44 2.8418012e+43 1.0334286e+44)
(-6.5884094e+44 1.8159132e+43 8.2131599e+43)
(-8.3299434e+44 1.9180672e+43 1.0214642e+44)
(-6.5896657e+44 1.6693986e+43 8.431979e+43)
(-6.5605918e+44 1.9249139e+43 8.3935459e+43)
(-8.2767163e+44 1.4511332e+43 1.0259017e+44)
(-8.312767e+44 2.4245575e+43 1.02931e+44)
(-5.6804497e+44 1.5186536e+43 8.2936971e+43)
(-5.7033561e+44 9.2457721e+42 8.8249084e+43)
(-7.1983534e+44 1.4119965e+43 9.0150611e+43)
(-7.1976483e+44 2.1474427e+43 9.182394e+43)
(-5.6994888e+44 1.7896323e+43 8.3988038e+43)
(-5.6672572e+44 1.1283501e+43 8.235855e+43)
(-7.2092473e+44 1.8330663e+43 8.6508614e+43)
(-7.2185202e+44 1.2633246e+43 8.818808e+43)
(-5.6680334e+44 9.9146089e+42 8.4442843e+43)
(-7.2046196e+44 2.2457563e+43 8.7017225e+43)
(-7.2022408e+44 1.7427293e+43 8.6300556e+43)
(-5.6709459e+44 2.0069666e+43 8.0664339e+43)
(-5.6368969e+44 1.7428175e+43 8.0977481e+43)
(-5.6379953e+44 2.3655003e+43 8.1590838e+43)
(-7.1702809e+44 1.5763479e+43 8.6642318e+43)
(-7.1965457e+44 2.2397591e+43 8.7932787e+43)
(-1.1179226e+45 2.7269783e+43 -1.1315487e+44)
(-9.1382864e+44 2.0373982e+43 -1.9800396e+43)
(-1.04905e+45 2.3004784e+43 -3.8539694e+43)
(-1.0150623e+45 2.3009436e+43 -5.586671e+43)
(-9.0886174e+44 2.16906e+43 -3.7976488e+43)
(-9.0346183e+44 1.957819e+43 -3.7519271e+43)
(-9.1504792e+44 2.3544337e+43 -3.144798e+43)
(-9.1096911e+44 1.9452168e+43 -3.0860786e+43)
(-8.9241891e+44 2.0406233e+43 -3.1006778e+43)
(-8.9553914e+44 2.3394104e+43 -3.1502302e+43)
(-9.0773533e+44 2.5443737e+43 -1.9211239e+43)
(-9.0512712e+44 2.0074689e+43 -1.8241114e+43)
(-9.0354834e+44 2.4228097e+43 -2.5337108e+43)
(-8.9129562e+44 2.4749371e+43 -4.0093463e+43)
(-9.0529315e+44 2.3823295e+43 -2.555209e+43)
(-8.8993816e+44 2.1450423e+43 -4.0036222e+43)
(-9.0473442e+44 2.4892766e+43 -4.8156906e+43)
(-9.0989757e+44 2.4639912e+43 -4.0697717e+43)
(-9.3686288e+44 2.7686581e+43 1.2658789e+43)
(-9.0363853e+44 2.3661385e+43 -1.5373346e+43)
(-9.3453805e+44 1.8975927e+43 1.2478813e+43)
(-9.0076884e+44 2.0425393e+43 -1.5219563e+43)
(-8.9743234e+44 2.0944851e+43 -1.5790031e+43)
(-9.2592676e+44 3.1169404e+43 1.4464919e+43)
(-9.2750136e+44 2.0814442e+43 1.2123768e+43)
(-9.1664493e+44 1.9755858e+43 3.1406717e+43)
(-9.1695549e+44 3.1586475e+43 3.5225312e+43)
(-9.5136819e+44 3.7439955e+43 7.7442183e+43)
(-9.5540042e+44 2.1129846e+43 7.5710544e+43)
(-9.2291865e+44 2.8231013e+43 3.1412476e+43)
(-9.6207883e+44 3.3092525e+43 7.5306262e+43)
(-9.2000379e+44 1.8688017e+43 3.0805565e+43)
(-9.5904036e+44 1.7452763e+43 7.5304942e+43)
(-8.9141128e+44 2.4032033e+43 -1.9498491e+43)
(-9.2280776e+44 2.8808036e+43 7.9777443e+42)
(-9.2553101e+44 2.2774796e+43 6.780328e+42)
(-8.932154e+44 2.3214743e+43 -2.0407457e+43)
(-9.1243441e+44 2.8191691e+43 2.7873546e+43)
(-9.4571957e+44 3.3287638e+43 6.9445288e+43)
(-9.1291986e+44 2.1091834e+43 2.5890566e+43)
(-9.5150668e+44 2.1313437e+43 6.9318667e+43)
(-9.1489932e+44 1.9419982e+43 3.4085665e+43)
(-9.1680182e+44 3.044876e+43 3.3071707e+43)
(-9.5506012e+44 3.4062999e+43 7.5913985e+43)
(-9.512806e+44 1.8418036e+43 7.7069221e+43)
(-8.9487838e+44 1.9887214e+43 -1.2548134e+43)
(-9.2585197e+44 2.9233019e+43 1.3061096e+43)
(-8.9802306e+44 2.6057211e+43 -1.298902e+43)
(-9.2466964e+44 1.8903842e+43 1.4497195e+43)
(-1.0547127e+45 1.9958333e+43 -4.5886984e+43)
(-9.4986442e+44 1.5137066e+43 -8.17854e+43)
(-7.9234848e+44 2.1909896e+43 5.839981e+43)
(-8.2313589e+44 2.6294366e+43 8.8581922e+43)
(-7.9222749e+44 1.0455686e+43 5.5502525e+43)
(-8.2576394e+44 1.3013309e+43 8.6764111e+43)
(-7.8077224e+44 1.6306131e+43 1.1708014e+43)
(-7.7881779e+44 1.0558938e+43 1.134688e+43)
(-8.1012967e+44 1.8342758e+43 3.7016188e+43)
(-8.0941399e+44 1.0260964e+43 3.7190891e+43)
(-7.7992439e+44 1.8760461e+43 1.4966786e+43)
(-8.0964955e+44 2.2525098e+43 4.1593272e+43)
(-7.8050096e+44 1.1507156e+43 1.3296721e+43)
(-8.1081781e+44 1.2508465e+43 3.9684565e+43)
(-7.9189305e+44 1.8643656e+43 5.3056773e+43)
(-8.2530152e+44 2.1141229e+43 8.2918498e+43)
(-7.9064139e+44 9.4616448e+42 5.3137381e+43)
(-8.2470921e+44 1.0054295e+43 8.3853345e+43)
(-7.8051091e+44 1.9212587e+43 1.0342616e+43)
(-7.776833e+44 1.4147254e+43 1.0371587e+43)
(-8.0950158e+44 2.1356586e+43 3.5197333e+43)
(-8.0846247e+44 1.3737254e+43 3.5884884e+43)
(-7.7696283e+44 1.6698037e+43 8.8686841e+42)
(-8.0763225e+44 2.0392125e+43 3.4849269e+43)
(-7.7876075e+44 1.2965018e+43 8.1907012e+42)
(-8.0969947e+44 1.3653732e+43 3.3868493e+43)
(-7.9107813e+44 2.1933638e+43 5.1781188e+43)
(-7.8888958e+44 1.2848007e+43 5.2438771e+43)
(-8.2532739e+44 2.3582713e+43 8.15654e+43)
(-8.2347824e+44 1.2284514e+43 8.2889085e+43)
(-8.224398e+44 2.3771326e+43 8.1226488e+43)
(-7.8976992e+44 1.9912345e+43 5.1197052e+43)
(-7.9010995e+44 1.2110415e+43 4.9412126e+43)
(-8.2456358e+44 1.3701444e+43 7.9949833e+43)
(-7.5441401e+44 1.4842885e+43 -1.6043632e+43)
(-7.8264295e+44 1.7165565e+43 1.2708143e+42)
(-7.5610133e+44 1.386997e+43 -1.6465219e+43)
(-7.8552956e+44 1.3821329e+43 1.0742257e+42)
(-7.4331562e+44 1.4032065e+43 -2.4628761e+43)
(-7.4543551e+44 1.4106532e+43 -2.4621213e+43)
(-7.6226356e+44 1.5565857e+43 -1.7996914e+43)
(-7.6492781e+44 1.4361597e+43 -1.8020885e+43)
(-7.4766231e+44 1.6639391e+43 -2.265238e+43)
(-7.4448907e+44 1.5583488e+43 -2.3150491e+43)
(-7.6679561e+44 1.782321e+43 -1.6321234e+43)
(-7.6431501e+44 1.5597233e+43 -1.64492e+43)
(-7.5805537e+44 1.7587103e+43 -1.4287393e+43)
(-7.5525176e+44 1.5312763e+43 -1.4589069e+43)
(-7.8639459e+44 1.913247e+43 2.5833091e+42)
(-7.8418158e+44 1.4614169e+43 2.7312641e+42)
(-7.5736978e+44 1.6570624e+43 -1.065296e+43)
(-7.8566078e+44 1.9236498e+43 7.286604e+42)
(-7.5740312e+44 1.2802507e+43 -1.1906351e+43)
(-7.8695315e+44 1.2940037e+43 6.1727965e+42)
(-7.471093e+44 1.4382694e+43 -2.1069565e+43)
(-7.4558741e+44 1.2403334e+43 -2.1758661e+43)
(-7.6648605e+44 1.5597437e+43 -1.4287311e+43)
(-7.6572436e+44 1.2455805e+43 -1.4728231e+43)
(-7.4583155e+44 1.5735059e+43 -1.9451665e+43)
(-7.6581046e+44 1.7499109e+43 -1.2071094e+43)
(-7.4620299e+44 1.3403906e+43 -2.0082639e+43)
(-7.6646192e+44 1.3790824e+43 -1.2982698e+43)
(-7.5787638e+44 1.4977787e+43 -1.2739649e+43)
(-7.5648656e+44 1.1823419e+43 -1.3351803e+43)
(-7.8647729e+44 1.6599199e+43 4.3318926e+42)
(-7.8532628e+44 1.1378955e+43 4.0679562e+42)
(-7.4023334e+44 1.5386883e+43 -2.3566596e+43)
(-7.5632688e+44 1.6790711e+43 -1.6133495e+43)
(-7.4019215e+44 1.4128382e+43 -2.4001606e+43)
(-7.5720271e+44 1.3751228e+43 -1.6429571e+43)
(-7.459958e+44 1.3619065e+43 -2.7950388e+43)
(-7.4577833e+44 1.3783275e+43 -2.8653211e+43)
(-7.5720372e+44 1.502259e+43 -2.3813936e+43)
(-7.5671718e+44 1.3940943e+43 -2.4403643e+43)
(-7.447998e+44 1.4935142e+43 -2.7184936e+43)
(-7.5562155e+44 1.6176507e+43 -2.2727348e+43)
(-7.4529623e+44 1.4843165e+43 -2.7045204e+43)
(-7.5601276e+44 1.4774673e+43 -2.2838409e+43)
(-7.4103514e+44 1.4162416e+43 -2.4772989e+43)
(-7.401396e+44 1.3304369e+43 -2.5553231e+43)
(-7.5781682e+44 1.537965e+43 -1.7944805e+43)
(-7.5696451e+44 1.2780147e+43 -1.8401678e+43)
(-7.5383439e+44 1.3508882e+43 -2.9195228e+43)
(-7.6306632e+44 1.4760381e+43 -2.4853142e+43)
(-7.5508712e+44 1.3988452e+43 -2.9961955e+43)
(-7.6316773e+44 1.4050441e+43 -2.539551e+43)
(-7.5258732e+44 1.4919752e+43 -2.868681e+43)
(-7.6120824e+44 1.5899448e+43 -2.4261123e+43)
(-7.5351078e+44 1.5335113e+43 -2.8108864e+43)
(-7.6218346e+44 1.5175382e+43 -2.3730196e+43)
(-7.7654738e+44 1.5910947e+43 -2.7822921e+43)
(-7.7814403e+44 1.5615716e+43 -2.6711589e+43)
(-9.1132767e+44 1.9450921e+43 -3.4024108e+43)
(-7.8301414e+44 1.577316e+43 -3.6811718e+43)
(-7.8485661e+44 1.5490029e+43 -3.5341592e+43)
(-7.7919137e+44 1.5016914e+43 -2.7731866e+43)
(-7.7987056e+44 1.4255893e+43 -2.8795827e+43)
(-9.1819785e+44 1.8821831e+43 -3.4286561e+43)
(-7.8723108e+44 1.3825272e+43 -3.7603556e+43)
(-7.8463857e+44 1.4325134e+43 -3.7069901e+43)
(-9.1032205e+44 1.7689379e+43 -4.279056e+43)
(-9.0560128e+44 1.7451477e+43 -4.0541856e+43)
(-7.8145862e+44 1.7505672e+43 -2.9166884e+43)
(-7.7825687e+44 1.6770493e+43 -3.0488799e+43)
(-9.2186601e+44 1.9359286e+43 -4.1111034e+43)
(-7.8593857e+44 1.6381685e+43 -3.97039e+43)
(-7.8804749e+44 1.6891531e+43 -3.8264049e+43)
(-7.773182e+44 1.4588829e+43 -3.2015535e+43)
(-7.7927169e+44 1.5807749e+43 -3.2386883e+43)
(-9.2165109e+44 1.659233e+43 -4.2700178e+43)
(-7.8687791e+44 1.5599617e+43 -4.1333261e+43)
(-7.8416826e+44 1.3952794e+43 -4.1214625e+43)
(-7.5233604e+44 1.3338557e+43 -3.2738819e+43)
(-7.5953974e+44 1.3907277e+43 -2.9438701e+43)
(-7.5446804e+44 1.573696e+43 -3.2969693e+43)
(-7.6238196e+44 1.5318032e+43 -2.9106354e+43)
(-9.1535519e+44 1.3432879e+43 -5.2067797e+43)
(-9.1640715e+44 1.9273401e+43 -5.0524835e+43)
(-7.5614346e+44 1.6119092e+43 -2.9986601e+43)