/*--------------------------------*- C++ -*----------------------------------*\
  =========                 |
  \\      /  F ield         | OpenFOAM: The Open Source CFD Toolbox
   \\    /   O peration     | Website:  https://openfoam.org
    \\  /    A nd           | Version:  7
     \\/     M anipulation  |
\*---------------------------------------------------------------------------*/
FoamFile
{
    version     2.0;
    format      ascii;
    class       volScalarField;
    location    "1000";
    object      k;
}
// * * * * * * * * * * * * * * * * * * * * * * * * * * * * * * * * * * * * * //

dimensions      [0 2 -2 0 0 0 0];

internalField   nonuniform List<scalar> 
34356
(
1.5214973
1.5178617
1.5203103
1.5210383
1.5223429
1.521845
1.5234236
1.5213567
1.52191
1.517525
1.5171428
1.5179301
1.517716
1.5198307
1.5195743
1.5204804
1.5207356
1.5200813
1.5210914
1.520683
1.5214364
1.5219132
1.5214946
1.5209807
1.5214154
1.5235309
1.5243089
1.524285
1.5241326
1.5241539
1.5189779
1.5198861
1.5185915
1.5183705
1.5202401
1.5205267
1.5208265
1.5212065
1.5168911
1.5179861
1.517879
1.5168284
1.5165652
1.5170477
1.5166209
1.51716
1.5183694
1.5181892
1.5170432
1.5174413
1.5172735
1.5167632
1.5179774
1.5173276
1.5200868
1.5193927
1.5193191
1.5200425
1.5192591
1.5199044
1.5190764
1.5197271
1.5195909
1.5195269
1.5203465
1.5202896
1.5210367
1.5205883
1.5198819
1.5206743
1.5211791
1.5208527
1.5205823
1.5209251
1.520927
1.5207979
1.5205104
1.5206348
1.5215305
1.5203658
1.5202744
1.5199762
1.5200804
1.5210751
1.520283
1.5205524
1.5203157
1.5200173
1.5210308
1.5206092
1.524275
1.5242257
1.5244
1.5244672
1.5181439
1.5180264
1.5191071
1.5181076
1.518212
1.5181003
1.5180058
1.5180493
1.5181652
1.5184209
1.5182949
1.518144
1.5178892
1.5180386
1.5179073
1.5180413
1.5179742
1.5178394
1.5177546
1.5197858
1.5195883
1.5199449
1.5199005
1.520188
1.5201289
1.5209132
1.5204821
1.5184082
1.5187495
1.5167378
1.5178054
1.5177013
1.5166863
1.5165195
1.5165443
1.5165264
1.516494
1.5164967
1.5171568
1.5172516
1.516528
1.5165647
1.5165874
1.5165755
1.5165446
1.5165778
1.5165509
1.5173357
1.517263
1.5181943
1.5179772
1.5168739
1.5172648
1.5173037
1.5170871
1.517001
1.5174095
1.5167093
1.516733
1.5167012
1.5166619
1.5175102
1.5169697
1.5185547
1.5177468
1.5167229
1.5174944
1.5166662
1.51741
1.5189595
1.5189037
1.5196317
1.5196493
1.5195914
1.5188541
1.5188371
1.5195712
1.5195173
1.5188355
1.5188039
1.5195016
1.5187345
1.518624
1.5193848
1.5192729
1.5190699
1.5191245
1.5198645
1.519844
1.5198055
1.5190445
1.5190313
1.5197817
1.5205168
1.5199252
1.5208976
1.5206336
1.5194289
1.5192873
1.5201812
1.5201033
1.5177329
1.5176946
1.520875
1.5202602
1.5207205
1.5204849
1.5199438
1.5199996
1.5201467
1.5202029
1.520034
1.5199374
1.5198848
1.5199799
1.5206952
1.5201567
1.5206073
1.5202835
1.5205984
1.5201038
1.5205157
1.5202027
1.5201639
1.5205188
1.5204631
1.5201073
1.520811
1.5198953
1.5199397
1.519978
1.5205579
1.5199312
1.5198641
1.5199122
1.5199924
1.5199408
1.5204085
1.5206654
1.5197807
1.5196768
1.5197117
1.5197418
1.5197113
1.5197419
1.5197407
1.5197752
1.5203208
1.5193737
1.5196243
1.5196393
1.5200353
1.519409
1.5193496
1.5196397
1.5195865
1.5194233
1.5199057
1.5201949
1.519795
1.5194274
1.5196338
1.519609
1.5199608
1.5197384
1.5197806
1.5199172
1.5198142
1.5197271
1.5196879
1.5197727
1.5193741
1.519596
1.5196584
1.5194596
1.5203872
1.5210212
1.520199
1.5206839
1.5205839
1.5206687
1.5204379
1.520355
1.5201635
1.5202222
1.5199631
1.5199199
1.5179783
1.5180501
1.5179122
1.5179675
1.5177776
1.5178418
1.5179228
1.5181465
1.5180599
1.5179452
1.5179115
1.5178687
1.5178661
1.517778
1.5177796
1.5178711
1.5178391
1.5177444
1.5177769
1.5177038
1.5176754
1.5176757
1.5177013
1.5177206
1.5177163
1.517714
1.5176701
1.5176704
1.5177049
1.5177004
1.5178492
1.5177467
1.5178878
1.5177843
1.5178821
1.5177652
1.5179734
1.5178542
1.5176839
1.5176813
1.5177724
1.5177638
1.5178435
1.517906
1.5177142
1.5177849
1.5175709
1.5175431
1.5176124
1.5178035
1.5178425
1.5176773
1.5177249
1.5175969
1.5175561
1.5175928
1.517529
1.5175642
1.5177844
1.5178129
1.5176587
1.5176967
1.5178109
1.5176954
1.5178346
1.5177144
1.5175925
1.5175642
1.5175817
1.5176102
1.5175109
1.5175025
1.5175263
1.5175189
1.5174748
1.5194226
1.5194067
1.5191742
1.519301
1.5195458
1.5195252
1.519488
1.5194664
1.5197267
1.5197482
1.519667
1.5196925
1.5208343
1.5205066
1.5200577
1.5199668
1.5183972
1.5187086
1.5166145
1.5165117
1.5165251
1.5178122
1.5177143
1.5165716
1.5164858
1.5164681
1.5165082
1.5164836
1.516507
1.5164935
1.516486
1.5165062
1.5165264
1.517242
1.5165593
1.5173138
1.5165842
1.5173652
1.5165739
1.5173373
1.5165258
1.5165302
1.5165293
1.5165216
1.5165508
1.5165309
1.5165676
1.5165813
1.516587
1.5165627
1.5165478
1.5165507
1.5165476
1.5165433
1.5166517
1.5166204
1.5174029
1.5174652
1.5173625
1.5173467
1.5166043
1.5165937
1.5181816
1.5179799
1.5167396
1.5166306
1.5166638
1.5171173
1.5169896
1.5172567
1.516964
1.517387
1.5166905
1.5166462
1.519231
1.5177662
1.5173421
1.5176105
1.5172984
1.5169309
1.5169789
1.5169692
1.5168898
1.5179805
1.5191724
1.5173895
1.5184156
1.5170438
1.5179179
1.5177276
1.5169349
1.5167257
1.5167046
1.5167331
1.5166971
1.5168038
1.5176149
1.5167544
1.5175336
1.5166605
1.5166701
1.5166693
1.5166546
1.5167267
1.5167037
1.5175103
1.5174899
1.5181128
1.518181
1.5193975
1.5193875
1.5180512
1.5180487
1.519363
1.5193613
1.5180214
1.5193209
1.5179872
1.5193162
1.5193007
1.5179806
1.5180021
1.5192981
1.5180138
1.5180442
1.519274
1.5192724
1.5179781
1.5179771
1.5192593
1.5192512
1.5179783
1.5179329
1.51917
1.5191577
1.5179012
1.5178617
1.519074
1.5190173
1.518178
1.5181792
1.5195472
1.5195446
1.5182381
1.5182986
1.5195831
1.5195733
1.5181878
1.5181561
1.5195171
1.5195144
1.5181888
1.5181623
1.5195003
1.5194952
1.5196919
1.5201169
1.5208864
1.520767
1.5203928
1.5191835
1.5189362
1.5203342
1.5184721
1.5186281
1.519912
1.5198734
1.5183596
1.5183801
1.5197833
1.5197668
1.5202221
1.5174868
1.517442
1.5174187
1.5174623
1.5174545
1.517423
1.517433
1.5230318
1.5236294
1.5230432
1.5229592
1.5235638
1.524249
1.5242671
1.5241206
1.5236228
1.523616
1.5207078
1.5207932
1.5203401
1.5204966
1.5197575
1.5196573
1.5198807
1.5197916
1.5206001
1.5206669
1.5201965
1.5203294
1.5198832
1.5200537
1.5197872
1.5199705
1.519443
1.5194091
1.5195538
1.5195224
1.519491
1.519604
1.5194689
1.5195831
1.5195441
1.5195145
1.5197023
1.5196747
1.5197555
1.519596
1.5195752
1.5197348
1.519385
1.5195079
1.5193616
1.5194846
1.5193185
1.519294
1.5194128
1.519388
1.5192763
1.5192363
1.5193687
1.5193288
1.5193393
1.519302
1.5194613
1.5194246
1.5204869
1.5205644
1.5200591
1.5201946
1.5195435
1.5194454
1.5196469
1.5195529
1.5203906
1.5204584
1.5199508
1.5200675
1.5196277
1.5195274
1.5197637
1.51967
1.5202941
1.5203695
1.5198435
1.519967
1.5194194
1.5193311
1.5194963
1.5194082
1.5202311
1.5202837
1.5197771
1.5198712
1.5194547
1.5193608
1.5195711
1.5194789
1.5194307
1.5194842
1.5193483
1.5194011
1.5202118
1.520241
1.5197653
1.5198288
1.5202573
1.5198619
1.5203151
1.5204543
1.5199212
1.5195374
1.5194596
1.5201535
1.5195317
1.5196083
1.5203662
1.5200698
1.5193358
1.5192931
1.5199454
1.5193701
1.5194101
1.5193674
1.5193451
1.5199894
1.5194193
1.5194386
1.5192566
1.5193029
1.5192343
1.519278
1.5199168
1.5198757
1.5192238
1.5192683
1.5191817
1.5192233
1.5191954
1.5192624
1.5191522
1.519218
1.5192315
1.5193006
1.5192072
1.5192745
1.5192511
1.5193557
1.519226
1.5193295
1.5192114
1.5193149
1.5191693
1.5192716
1.5198917
1.5199276
1.5199587
1.5199186
1.5203636
1.5203161
1.5200665
1.5201096
1.5190855
1.5191845
1.5190504
1.5191497
1.5190223
1.5189886
1.5190862
1.5190497
1.5190685
1.519133
1.519032
1.5190964
1.5190358
1.5190021
1.5191347
1.5190985
1.5191617
1.5191261
1.5197596
1.5191994
1.5192335
1.519205
1.519166
1.5197895
1.5192378
1.5192773
1.5190528
1.5190941
1.5190198
1.5190576
1.5190971
1.519138
1.5190591
1.5191001
1.5197247
1.5197014
1.5190145
1.5188263
1.5194166
1.5188872
1.519094
1.5191386
1.5191026
1.5196602
1.5191766
1.5192135
1.5190341
1.5190659
1.5190002
1.5190317
1.5196113
1.5193476
1.5189224
1.5189461
1.5187326
1.5187736
1.5188894
1.5189355
1.5187151
1.5187751
1.5190101
1.5190983
1.5189813
1.5190689
1.5189986
1.5190562
1.518967
1.5190241
1.5188991
1.5189791
1.5187353
1.5188267
1.5196373
1.5193772
1.5196436
1.5193942
1.5197674
1.5197431
1.5197247
1.5197441
1.5192979
1.5194288
1.5192808
1.5194117
1.5190941
1.518952
1.5191771
1.5190497
1.5192085
1.5193042
1.5191886
1.519285
1.5191762
1.5193011
1.519041
1.519182
1.5194094
1.5195536
1.5193864
1.5195324
1.5192548
1.519361
1.5192256
1.5193334
1.5193118
1.5194167
1.5192848
1.5193923
1.5193514
1.5193261
1.5194979
1.5194735
1.5192123
1.519182
1.5193275
1.5192985
1.5191488
1.5192379
1.5191157
1.5192059
1.5190964
1.5190632
1.5191857
1.5191515
1.5191567
1.5191253
1.5192728
1.5192406
1.5189536
1.5187971
1.5190237
1.5188788
1.519064
1.5190378
1.5191459
1.5191198
1.5191206
1.5192231
1.5190972
1.5192
1.5190063
1.5188558
1.5191014
1.5189635
1.5201443
1.5203155
1.5205356
1.5203653
1.5202278
1.519917
1.5201646
1.5199639
1.5200122
1.5198741
1.5203386
1.5203251
1.5201239
1.5201322
1.5203362
1.5203096
1.5200837
1.5201135
1.5199787
1.5199588
1.5199277
1.5199424
1.5200088
1.5199825
1.5200091
1.5199779
1.519825
1.5198402
1.5198401
1.5198212
1.5197873
1.5197702
1.5197951
1.5197754
1.5196824
1.5194328
1.5196799
1.519435
1.5195235
1.5197358
1.5197245
1.5194942
1.5178592
1.5177875
1.5178324
1.5178998
1.5179146
1.5179654
1.5178986
1.5178381
1.5176926
1.5177495
1.5177929
1.5177366
1.5177352
1.5178003
1.5178474
1.5177849
1.517568
1.5175479
1.5175932
1.5175226
1.5176421
1.5175882
1.5175617
1.5176149
1.5178086
1.5177656
1.5178979
1.5178259
1.5178521
1.5178155
1.5177661
1.5177534
1.5176365
1.5176216
1.5175503
1.5175665
1.5176553
1.5176715
1.5176046
1.5175858
1.5175646
1.5175712
1.5175523
1.5175417
1.5175247
1.5175159
1.5175053
1.5175115
1.5176536
1.5176191
1.5175344
1.5175701
1.5176337
1.517615
1.517539
1.517558
1.5174826
1.517496
1.5175068
1.5174918
1.5175088
1.517482
1.5174665
1.5174916
1.5174301
1.517401
1.5173985
1.5174246
1.5174291
1.5174209
1.5174183
1.5174251
1.5174226
1.5174273
1.5174371
1.5174306
1.5174371
1.5174102
1.5174045
1.5174298
1.5174933
1.517516
1.5175148
1.5174892
1.5174497
1.5174515
1.5174538
1.5174507
1.5174611
1.5174541
1.5174134
1.5174434
1.5174132
1.5174195
1.5174477
1.51744
1.5174067
1.5174128
1.5174433
1.5174352
1.5174727
1.5174324
1.5174242
1.517463
1.5174755
1.5174365
1.51743
1.5174663
1.5176877
1.5176496
1.5175553
1.5175934
1.5174738
1.5174917
1.5175205
1.5175012
1.5175856
1.5176927
1.5177348
1.5176327
1.5175508
1.5175096
1.5174893
1.5175276
1.517784
1.5177448
1.5176313
1.517675
1.5175214
1.5175457
1.517581
1.5175563
1.5176749
1.5177947
1.5178332
1.5177229
1.5176223
1.5175774
1.5175517
1.5175941
1.5175022
1.5174671
1.517458
1.5174921
1.5174621
1.5174701
1.5175031
1.5174944
1.5174885
1.5174978
1.5175392
1.51753
1.5175413
1.5174992
1.5174919
1.5175311
1.5176358
1.5176269
1.5176784
1.5175842
1.5176848
1.5177402
1.5176916
1.5176352
1.517423
1.5174733
1.5174446
1.5174964
1.5174919
1.5175514
1.5174682
1.5175266
1.5172281
1.5172924
1.5172854
1.5172223
1.5171965
1.517209
1.5172705
1.5172559
1.5173422
1.5172873
1.5173483
1.5172822
1.5175128
1.5174728
1.5175458
1.5174405
1.5175516
1.5176183
1.5175813
1.5175145
1.5173591
1.5173059
1.5173794
1.5172874
1.5173768
1.5174466
1.5173571
1.5174247
1.5173427
1.5173878
1.5173824
1.5173382
1.517042
1.5170371
1.5171435
1.5171349
1.5171357
1.5172308
1.5172221
1.5171418
1.5170312
1.5170223
1.5171143
1.517129
1.5171267
1.5171146
1.5172124
1.5171969
1.5173341
1.517244
1.5173603
1.5172222
1.5173669
1.5174648
1.517435
1.5173386
1.5171864
1.5170868
1.517204
1.5170753
1.5172044
1.5173057
1.5171884
1.5172855
1.5170951
1.517086
1.5172347
1.5172138
1.5170833
1.5170693
1.5169407
1.5169391
1.5170798
1.5169342
1.516917
1.5169166
1.5170404
1.5170325
1.5170299
1.5170181
1.5169097
1.5169087
1.5169049
1.5169127
1.516886
1.5168852
1.5169985
1.5169909
1.5169893
1.51698
1.5168741
1.5168744
1.5168818
1.5168707
1.5170832
1.5169989
1.5170909
1.5169938
1.5192178
1.5192161
1.5192021
1.519196
1.5190233
1.5189618
1.519104
1.5191173
1.5193381
1.519327
1.5193012
1.5193019
1.5192597
1.5192541
1.5192375
1.5192379
1.5194799
1.5194805
1.5195067
1.5195174
1.5194353
1.519432
1.5194496
1.5194523
1.5207123
1.5208525
1.5202599
1.5203269
1.5198424
1.5197988
1.5196911
1.5197072
1.519356
1.5184438
1.5175916
1.5174956
1.5187228
1.5177314
1.5179636
1.5165118
1.516523
1.5165093
1.5164802
1.516468
1.5164705
1.5164857
1.5164713
1.5164465
1.51643
1.5164912
1.516494
1.5165298
1.5165251
1.5165382
1.516532
1.5164662
1.5164763
1.5165096
1.5164923
1.5165163
1.5164971
1.5164946
1.5164889
1.5164718
1.5164809
1.5164984
1.5165126
1.5165103
1.5164945
1.516448
1.5164652
1.5164549
1.5164357
1.5171458
1.5166606
1.5166078
1.517087
1.516483
1.5164783
1.5164619
1.5164681
1.5166676
1.5166527
1.5171436
1.5171817
1.5164993
1.5165039
1.516488
1.5164826
1.5172268
1.5167002
1.5166868
1.517202
1.5164917
1.5164932
1.5164776
1.5164756
1.5166676
1.5166819
1.5171821
1.5171687
1.5165326
1.5165343
1.51652
1.5165167
1.5165101
1.5165262
1.5165253
1.516509
1.5165284
1.516536
1.5165625
1.5165778
1.516592
1.5165714
1.5165137
1.5165159
1.5165494
1.516545
1.5165569
1.5165527
1.516585
1.5165943
1.5165716
1.5165875
1.5165663
1.5165644
1.5165504
1.5165472
1.5165361
1.5165518
1.516533
1.5165503
1.516547
1.5165467
1.5165306
1.5165308
1.5165585
1.5165721
1.5165547
1.5165385
1.5165297
1.516534
1.5165118
1.5165178
1.5167152
1.5172286
1.517218
1.5167057
1.5173523
1.516793
1.5167432
1.5172768
1.5166931
1.5166865
1.5171837
1.5172047
1.5171883
1.5166964
1.5166806
1.5171882
1.5165153
1.5165197
1.5164978
1.5165037
1.5165139
1.5165136
1.516497
1.5164964
1.5195159
1.5192738
1.5193068
1.5166295
1.5166562
1.516624
1.5166094
1.5165793
1.5169748
1.51721
1.5169847
1.5171911
1.5168889
1.5192767
1.5169315
1.5169659
1.516969
1.516969
1.5169129
1.5169027
1.5172594
1.5174164
1.5175996
1.517277
1.5177
1.5172885
1.5166621
1.5166758
1.5167194
1.5166949
1.5167353
1.5167052
1.5166257
1.5166337
1.5166679
1.5166553
1.5166778
1.5166643
1.5192037
1.5193838
1.5194297
1.5191458
1.5191882
1.5201606
1.5178338
1.5177121
1.5177027
1.5179424
1.5173035
1.5172535
1.5172096
1.5173054
1.516973
1.5169517
1.5169218
1.5169636
1.5168663
1.5168904
1.5168798
1.516849
1.5180096
1.5176927
1.5180874
1.5177005
1.5194191
1.5185814
1.5181271
1.5189422
1.5173052
1.5173216
1.5171777
1.5171564
1.5174535
1.5177231
1.518464
1.5181295
1.5169524
1.516897
1.5168768
1.5169493
1.5178679
1.5172465
1.5171105
1.5176791
1.5175843
1.5170491
1.5169849
1.5175198
1.5168448
1.5168233
1.5167982
1.5168257
1.5167298
1.5167403
1.5167322
1.5167118
1.5166973
1.5167003
1.5166839
1.5166788
1.5166932
1.5167202
1.5167084
1.516675
1.5174716
1.5169256
1.5168731
1.5174078
1.5166601
1.5166668
1.5166499
1.5166416
1.5168229
1.5168481
1.5173612
1.5173369
1.5166598
1.5166744
1.5166719
1.5166549
1.5166456
1.5166609
1.5166572
1.5166402
1.5166369
1.5166435
1.5166269
1.5166185
1.5166223
1.5166289
1.5166109
1.5166032
1.5168098
1.5168227
1.5173525
1.5173278
1.5167983
1.5168125
1.5173386
1.5173421
1.5162588
1.5180077
1.5180626
1.517945
1.5179428
1.5179122
1.5178803
1.5178717
1.5178984
1.5179099
1.5179363
1.5178794
1.5178722
1.517877
1.5178395
1.5177991
1.5177697
1.5180763
1.5180714
1.5181287
1.5181836
1.5180759
1.5180477
1.5180779
1.5180502
1.5195878
1.5200241
1.5190718
1.5188187
1.5183569
1.5185083
1.5182428
1.5182599
1.524302
1.5168045
1.5167923
1.5167666
1.5167764
1.5167831
1.5167785
1.5167592
1.5226402
1.5223331
1.523078
1.5224357
1.522762
1.5234126
1.5233819
1.5230162
1.5225148
1.5225161
1.5221907
1.5222207
1.5224333
1.5221237
1.5221854
1.5230176
1.5233907
1.5233966
1.5230513
1.5239085
1.5240102
1.5236661
1.5236742
1.5237644
1.5236627
1.5234215
1.5234302
1.5230518
1.5230634
1.5231499
1.5234968
1.523472
1.5231147
1.5206398
1.520735
1.520763
1.5205847
1.5207965
1.520828
1.520712
1.5206579
1.5200958
1.5201724
1.5201709
1.5202356
1.5202531
1.5203317
1.5201845
1.5202731
1.5194945
1.5195707
1.5195358
1.5194543
1.5193286
1.5193517
1.5194339
1.5194116
1.5196408
1.5195844
1.5196736
1.519546
1.5194201
1.5195203
1.519443
1.5195421
1.5204794
1.5205877
1.5206259
1.5204144
1.5206597
1.5206971
1.5205629
1.5204975
1.5199666
1.5199686
1.5200425
1.5198793
1.5200607
1.5201496
1.5199793
1.5200798
1.5196884
1.5197544
1.5197236
1.5196519
1.5198531
1.5197682
1.5197323
1.5198184
1.5195523
1.5195299
1.5196249
1.5196047
1.5197271
1.5196129
1.5197085
1.5196333
1.5191594
1.5192311
1.5192315
1.5191604
1.5191235
1.5191332
1.5192047
1.5191943
1.5193218
1.5192354
1.5193207
1.5192373
1.5192009
1.5192867
1.5192105
1.5192971
1.5192805
1.5192129
1.5192846
1.5192086
1.5192904
1.5193759
1.5193723
1.5192868
1.5192511
1.5191818
1.5192559
1.5191775
1.5192617
1.5193495
1.5192584
1.5193447
1.519326
1.5193885
1.5193901
1.5193284
1.5193041
1.5193669
1.5192944
1.5193574
1.5194737
1.5194727
1.5193929
1.5193947
1.5193641
1.5193729
1.5194544
1.5194467
1.519453
1.5195347
1.519528
1.5194483
1.5194422
1.5193827
1.5194457
1.5193793
1.5193524
1.519356
1.5194198
1.5194157
1.5194216
1.5194241
1.5195041
1.5195014
1.5191054
1.5190404
1.5191114
1.5190349
1.5191099
1.5192067
1.5192012
1.5191039
1.5190717
1.5190079
1.5190791
1.5189998
1.5190755
1.5191757
1.5190709
1.5191688
1.518902
1.5189763
1.5189695
1.5188963
1.5188695
1.5189449
1.5189317
1.518857
1.5189628
1.5190496
1.519043
1.5189572
1.5189304
1.5190184
1.5190072
1.5189199
1.5188514
1.5189272
1.5189254
1.5188518
1.5188111
1.5188245
1.5188987
1.5188838
1.5189124
1.519
1.5189986
1.5189129
1.5188729
1.5188852
1.5189721
1.5189582
1.518989
1.5190605
1.5190594
1.5189897
1.5189514
1.5189625
1.5190331
1.5190217
1.519155
1.5191538
1.5190577
1.5190575
1.5190222
1.5190313
1.519128
1.5191167
1.5203007
1.5204176
1.5204656
1.5202314
1.5204979
1.5205495
1.5203933
1.5203142
1.51966
1.5197459
1.5197591
1.5198357
1.5198478
1.5199482
1.5197517
1.5198641
1.5191356
1.5192154
1.5191844
1.5191041
1.5190047
1.5190845
1.5190592
1.5189792
1.5192663
1.5192083
1.5192996
1.5191741
1.5191418
1.5190711
1.519166
1.5190468
1.5201457
1.5202469
1.5203047
1.5200744
1.5203293
1.5203866
1.5202227
1.5201476
1.519567
1.5195737
1.5196566
1.5194774
1.5196575
1.5197526
1.5195592
1.5196611
1.5192966
1.5193719
1.5193359
1.5192593
1.5191567
1.519234
1.5191332
1.5192108
1.5194798
1.5194428
1.5193772
1.5193363
1.5192099
1.5192324
1.5193423
1.5193186
1.5199775
1.5200395
1.5201174
1.5198909
1.5201417
1.5202176
1.5200683
1.5199803
1.519268
1.5193724
1.5193521
1.5194553
1.5194568
1.5195695
1.5193654
1.5194815
1.518699
1.5188345
1.5188094
1.5186751
1.5185735
1.5185992
1.5187305
1.5187021
1.5189302
1.5188269
1.5189552
1.518802
1.5186913
1.5188161
1.5187168
1.5188441
1.5197629
1.5197633
1.5198828
1.5196373
1.5199069
1.5200104
1.5198814
1.5197695
1.5191295
1.5190478
1.5191995
1.5189784
1.5192034
1.5193457
1.5191272
1.5192687
1.5189485
1.5190426
1.5190165
1.5189228
1.5188313
1.5189239
1.5188056
1.518897
1.5191415
1.5191122
1.5190342
1.5190062
1.5188841
1.5189095
1.5190171
1.5189899
1.518302
1.518286
1.5185196
1.5184969
1.5184932
1.5187039
1.5186785
1.5185145
1.5182263
1.5182077
1.5184086
1.5184371
1.5184264
1.5184016
1.5186107
1.5185806
1.5194427
1.5193351
1.5195417
1.5192412
1.5195693
1.519734
1.5196233
1.5194543
1.5187647
1.5185711
1.5188201
1.518526
1.5188274
1.5190395
1.5187681
1.5189743
1.5190352
1.5189906
1.5192981
1.5192226
1.5185577
1.5185159
1.5182459
1.5182313
1.518975
1.5203153
1.5202612
1.5198823
1.5199624
1.5182225
1.518035
1.5180307
1.518302
1.5182837
1.5182316
1.5182088
1.5179714
1.5179684
1.5196649
1.5196024
1.5195353
1.5195947
1.5179728
1.5180317
1.5202361
1.5201694
1.5198149
1.5198991
1.5195209
1.5195784
1.5196351
1.5195741
1.5178492
1.5178481
1.5181109
1.5180966
1.5180905
1.5180673
1.5178305
1.5178279
1.5194689
1.5194108
1.5193744
1.5194296
1.5178327
1.5178527
1.5179044
1.5179018
1.5181616
1.5181468
1.5181248
1.5181052
1.5178624
1.5178614
1.5195
1.5194411
1.5194213
1.5194791
1.5178658
1.5179054
1.5181565
1.5181454
1.5183481
1.5183645
1.5183541
1.5183415
1.5185329
1.5185178
1.5183058
1.5181176
1.5183292
1.5181029
1.5184985
1.5183166
1.5182981
1.518475
1.5194788
1.5194225
1.519403
1.5194582
1.5193592
1.5193936
1.5194467
1.5194102
1.5183002
1.518104
1.5183156
1.5180945
1.5184843
1.5183027
1.5182922
1.5184707
1.5182653
1.518084
1.5182926
1.518066
1.5184589
1.51828
1.518258
1.5184318
1.5185898
1.5184702
1.5185995
1.5184617
1.5185834
1.5187064
1.5186998
1.5185781
1.5184236
1.5185481
1.5184452
1.5185722
1.5185567
1.5186782
1.5185374
1.5186567
1.5186362
1.5185209
1.5186479
1.5185098
1.5186338
1.5186255
1.5187549
1.5187452
1.5185938
1.5184847
1.518614
1.5184663
1.5187222
1.5185986
1.5185826
1.5187034
1.518822
1.5187415
1.5188296
1.5187347
1.5189151
1.5188148
1.5188092
1.5189072
1.5186926
1.5187807
1.5187078
1.5187972
1.5188834
1.5187815
1.518768
1.5188676
1.5187771
1.5186913
1.5187808
1.5186887
1.5188661
1.5187643
1.5187639
1.518863
1.5186467
1.5187337
1.5186642
1.5187523
1.5188378
1.5187371
1.5187219
1.5188205
1.5193108
1.5193399
1.519395
1.5193635
1.5193457
1.5193642
1.5194237
1.5194039
1.5194552
1.5193874
1.5193666
1.5194342
1.5194245
1.5193582
1.5193269
1.5193897
1.5201393
1.5200577
1.5197354
1.5198287
1.5200386
1.5199637
1.5196782
1.5197582
1.5194763
1.5195132
1.5195701
1.5195285
1.5196062
1.5195368
1.5194912
1.5195542
1.5186752
1.5185948
1.5186812
1.5185898
1.518668
1.5187657
1.5187604
1.5186643
1.5185305
1.518617
1.5185443
1.5186327
1.5186185
1.5187191
1.5186057
1.518704
1.5183136
1.5184383
1.5184281
1.5183057
1.5182791
1.5182939
1.5184149
1.5183969
1.5185336
1.5184216
1.5185407
1.5184161
1.5183852
1.5184986
1.5183977
1.5185143
1.5184901
1.518377
1.5185017
1.518366
1.5184885
1.5186067
1.5185981
1.5184807
1.5184311
1.5183237
1.5184508
1.5183066
1.518436
1.5185573
1.5184208
1.5185394
1.5185253
1.5186122
1.5186077
1.5185223
1.5184987
1.5185838
1.5184877
1.5185708
1.5186948
1.5186913
1.5185957
1.5185945
1.5185582
1.5185672
1.5186647
1.5186528
1.5177244
1.517724
1.5179743
1.5179601
1.5179669
1.5179476
1.5177234
1.5177238
1.519292
1.5192372
1.5192067
1.5192575
1.5177294
1.5177296
1.5177695
1.5177663
1.5180232
1.5180064
1.5179714
1.5179524
1.5177151
1.5177149
1.5193344
1.5192778
1.5192371
1.5192943
1.517719
1.5177699
1.5179661
1.5179571
1.5181689
1.5181532
1.5181446
1.518329
1.518315
1.5181549
1.517958
1.5179451
1.5181325
1.518155
1.5181403
1.5181243
1.5183098
1.5182881
1.5182053
1.5180178
1.5182234
1.5180053
1.5182133
1.5183884
1.5183723
1.5181994
1.5181487
1.5179638
1.5181714
1.5179503
1.5181591
1.518337
1.5181416
1.5183141
1.519311
1.5192549
1.5192162
1.5192716
1.5191954
1.5192226
1.5192735
1.5192425
1.5176607
1.5176553
1.5179057
1.517883
1.5177832
1.5177304
1.5175411
1.5175202
1.5191312
1.5190888
1.5188703
1.518928
1.5175284
1.5176626
1.5177314
1.5177291
1.51798
1.5179629
1.5179422
1.5179196
1.5176902
1.5176887
1.5192663
1.5192181
1.5191768
1.5192266
1.5176952
1.5177357
1.5179727
1.5179606
1.5181557
1.5181744
1.5181619
1.5181485
1.5183325
1.518316
1.5181113
1.5179343
1.5181382
1.5179173
1.5182982
1.5181252
1.5181041
1.5182715
1.519249
1.5192009
1.5191561
1.5192062
1.5188454
1.5190697
1.5191054
1.5188962
1.5180741
1.5179002
1.5180995
1.5178817
1.5182555
1.518089
1.518068
1.5182311
1.5179065
1.5177831
1.5179745
1.5177274
1.5181321
1.5179691
1.5178997
1.5180561
1.5183443
1.5182447
1.5183648
1.5182251
1.5183526
1.5184628
1.5184454
1.5183357
1.5180501
1.5181634
1.5181257
1.5182404
1.5182324
1.5183408
1.5181553
1.518264
1.5186059
1.5185273
1.5186115
1.5185228
1.5186905
1.5185966
1.5185945
1.5186861
1.5184808
1.5185642
1.5184981
1.5185836
1.5186652
1.5185698
1.5185534
1.518646
1.5184287
1.518319
1.5184409
1.5183079
1.5184258
1.5184183
1.518541
1.5185317
1.5183851
1.5182847
1.5184084
1.5182637
1.5185109
1.5183937
1.5183751
1.5184891
1.5185188
1.5184521
1.5185335
1.5184379
1.5186103
1.5185214
1.5185089
1.5185958
1.5182568
1.5183361
1.518334
1.5184115
1.5184911
1.5184033
1.5183267
1.5184157
1.5192039
1.5191518
1.5191033
1.519155
1.5187998
1.5190163
1.5190547
1.5188481
1.5191219
1.5191714
1.519227
1.5191809
1.5190829
1.5190325
1.51881
1.5188707
1.5192848
1.5192172
1.5191837
1.5192479
1.5192534
1.5192005
1.5191696
1.5192215
1.5191601
1.5191763
1.5192288
1.5192071
1.5192543
1.5191915
1.5191702
1.5192266
1.5191649
1.519106
1.5191612
1.519111
1.5191652
1.5192345
1.5192351
1.5191691
1.5190875
1.5191423
1.5190966
1.5191515
1.5191559
1.5192224
1.5191475
1.5192142
1.5188715
1.5189308
1.5189215
1.5188615
1.5186932
1.5187622
1.5188192
1.518755
1.5189961
1.5189361
1.5190044
1.5189273
1.5187596
1.5188356
1.5188281
1.5188983
1.5190251
1.5189597
1.5190227
1.5189628
1.5190261
1.519101
1.5191042
1.5190306
1.5189976
1.518943
1.5190077
1.5189326
1.5190135
1.5190894
1.5190044
1.5190793
1.519011
1.5190618
1.5190544
1.5190029
1.5191323
1.5190592
1.5190678
1.5191216
1.5189086
1.5188413
1.5189572
1.518897
1.519034
1.5189011
1.5189743
1.5189668
1.519215
1.5192126
1.5192724
1.5192694
1.5193531
1.5192745
1.5193461
1.5192781
1.5191853
1.5192447
1.5192403
1.5191806
1.5193205
1.5192494
1.5193229
1.5192463
1.5189801
1.51905
1.5189796
1.5190485
1.5190546
1.5190548
1.5191369
1.5191354
1.518944
1.5190139
1.5189489
1.5190203
1.5191107
1.5190259
1.5190208
1.5191035
1.5190584
1.5190557
1.5191244
1.5191211
1.5191273
1.5192051
1.5191298
1.5192083
1.5190196
1.5190893
1.5190821
1.5190121
1.5191718
1.5190957
1.5191778
1.5190899
1.5191424
1.5192024
1.5192016
1.5191421
1.5191112
1.5191172
1.5191784
1.5191721
1.5192779
1.5192065
1.5192808
1.5192058
1.5191785
1.5192545
1.519183
1.5192587
1.5188926
1.5189615
1.5189563
1.5188882
1.5188371
1.5188475
1.5189175
1.5189066
1.519048
1.5189624
1.5190523
1.5189575
1.518908
1.5190023
1.5189167
1.5190123
1.5188218
1.5187543
1.5188268
1.5187508
1.5188156
1.5188992
1.5188936
1.5188115
1.5187686
1.5187069
1.5187815
1.5186945
1.5187693
1.5188553
1.5187584
1.5188424
1.5186803
1.518754
1.5187514
1.5186796
1.51865
1.5187225
1.5187129
1.5186418
1.5188217
1.5187393
1.5188245
1.5187389
1.5187837
1.5187077
1.5187923
1.5187012
1.5188137
1.5188835
1.5188805
1.5188127
1.5187813
1.5188506
1.5187757
1.5188436
1.5189722
1.5188807
1.518975
1.5188783
1.5188429
1.5188469
1.5189431
1.5189357
1.5186
1.5186667
1.5186535
1.5185875
1.5184077
1.5184842
1.518547
1.5184737
1.518656
1.5187304
1.5187173
1.5186438
1.5184645
1.5185395
1.5186132
1.5185413
1.5186775
1.5187473
1.5187448
1.5186763
1.5186533
1.5187237
1.518707
1.5186369
1.5187343
1.5188147
1.5188126
1.5187342
1.5187115
1.5187923
1.5187767
1.518697
1.5188704
1.5188057
1.5188721
1.5188058
1.5188708
1.5189561
1.5189562
1.5188705
1.5188367
1.5187839
1.5188498
1.5187704
1.5188485
1.5189367
1.5188374
1.5189238
1.5187238
1.518786
1.5187731
1.5187114
1.5185362
1.5186097
1.5186686
1.5185993
1.5188661
1.5188544
1.5187867
1.5187736
1.5186005
1.5186724
1.5187528
1.518685
1.5163798
1.5200199
1.5199017
1.5203223
1.5201625
1.5201911
1.5201072
1.5200326
1.5200066
1.5199628
1.5199484
1.5162998
1.5197048
1.5195575
1.5198564
1.5198385
1.5197744
1.5197666
1.5197498
1.5195702
1.5196701
1.5195432
1.5198955
1.5198562
1.5196478
1.5196885
1.5199087
1.5199232
1.5197419
1.5197143
1.5196418
1.5196591
1.5196301
1.5196059
1.5195815
1.5195581
1.5195341
1.519552
1.51996
1.5198942
1.5196345
1.5197095
1.5199125
1.5198649
1.519634
1.5196826
1.5194931
1.5195231
1.5195502
1.5195182
1.5195514
1.5194981
1.5194651
1.5195154
1.5194044
1.5193449
1.5193326
1.5193875
1.5194042
1.5193789
1.5193663
1.5193893
1.5193287
1.5193595
1.5193839
1.519354
1.5193805
1.5193264
1.5192988
1.5193507
1.5195169
1.5195465
1.5195415
1.5195008
1.519505
1.5195285
1.5194923
1.5194612
1.5194214
1.5194336
1.5194445
1.5194315
1.5194248
1.5194103
1.5193807
1.5193923
1.5193747
1.5193846
1.519346
1.5193318
1.519382
1.5193888
1.5193534
1.5193402
1.5192593
1.5192731
1.5192876
1.5192695
1.5192749
1.5192635
1.5192527
1.5192598
1.5192497
1.5192238
1.5192027
1.5192246
1.5191947
1.5192079
1.5192292
1.5192128
1.519166
1.5191944
1.5192423
1.519213
1.5192187
1.5191716
1.5191567
1.5192004
1.5191926
1.5191689
1.5191315
1.5191505
1.5188316
1.5190482
1.5190552
1.5188516
1.5190953
1.5191393
1.5191875
1.5191412
1.5190444
1.5190077
1.5187949
1.5188421
1.5190416
1.5192214
1.519178
1.5189794
1.5193086
1.5193252
1.5192933
1.5192679
1.5192296
1.5192186
1.5191913
1.5191955
1.5191049
1.5191052
1.5188942
1.5188972
1.517165
1.5170359
1.5170339
1.5171666
1.5171686
1.5171771
1.5170374
1.5170329
1.5170487
1.5171558
1.5171587
1.5170454
1.5170421
1.5171612
1.5171632
1.5170389
1.516883
1.5169237
1.5169218
1.516888
1.5169173
1.5169196
1.516878
1.516873
1.5161784
1.5161771
1.5176762
1.5176392
1.5175837
1.5176782
1.5177066
1.517711
1.5176564
1.5176177
1.5176347
1.5176304
1.5176097
1.5175744
1.5175752
1.5175616
1.5175579
1.5170061
1.5170606
1.5170149
1.5169602
1.5171332
1.5172559
1.5172101
1.5170862
1.5171918
1.5171929
1.5170722
1.5170708
1.5169455
1.517001
1.5169995
1.5169446
1.5169376
1.5169359
1.5168717
1.5168621
1.5169459
1.5169694
1.5169195
1.5168904
1.5169038
1.5169046
1.5168755
1.5168747
1.5168464
1.5168565
1.5168556
1.516845
1.5168092
1.516818
1.516819
1.5168084
1.5168362
1.5168655
1.5168684
1.5168386
1.5168661
1.5168662
1.5168372
1.5168374
1.5168093
1.5168187
1.5168189
1.5168091
1.5170361
1.5171531
1.5171568
1.5170387
1.5169668
1.5169637
1.5169076
1.5169109
1.5169085
1.5169651
1.5167892
1.5167801
1.5168066
1.5168075
1.5168115
1.5168099
1.5168052
1.5168078
1.516812
1.5168078
1.5168325
1.5168204
1.5168149
1.5168247
1.5168316
1.5168197
1.5168175
1.5168277
1.5169643
1.516947
1.5168603
1.5168645
1.5168416
1.5168437
1.5168468
1.5168439
1.5168729
1.5169831
1.5170028
1.5168839
1.5168652
1.5168541
1.5168504
1.5168598
1.5170417
1.5170221
1.5168959
1.5169076
1.5168704
1.5168764
1.5168875
1.5168812
1.5169184
1.5170567
1.5170696
1.5169276
1.5169072
1.5168977
1.5168911
1.5168996
1.5168573
1.5168445
1.5168359
1.516847
1.5168392
1.5168435
1.516855
1.5168571
1.5168677
1.5168764
1.5168655
1.5168745
1.5168653
1.517057
1.5171383
1.517143
1.5170587
1.5171472
1.5171515
1.5170519
1.5170542
1.5169054
1.5169016
1.5169292
1.5169282
1.5169268
1.5169255
1.5168973
1.516893
1.5168925
1.5168902
1.5168853