/*--------------------------------*- C++ -*----------------------------------*\
  =========                 |
  \\      /  F ield         | OpenFOAM: The Open Source CFD Toolbox
   \\    /   O peration     | Website:  https://openfoam.org
    \\  /    A nd           | Version:  7
     \\/     M anipulation  |
\*---------------------------------------------------------------------------*/
FoamFile
{
    version     2.0;
    format      ascii;
    class       volScalarField;
    location    "1000";
    object      p;
}
// * * * * * * * * * * * * * * * * * * * * * * * * * * * * * * * * * * * * * //

dimensions      [0 2 -2 0 0 0 0];

internalField   nonuniform List<scalar> 
34356
(
-7.7971971e+95
-7.8779859e+95
-7.5816491e+95
-7.5533386e+95
-7.4220869e+95
-7.4510042e+95
-6.658977e+95
-7.1669184e+95
-7.1415692e+95
-7.6432467e+95
-7.6424768e+95
-7.6182488e+95
-7.6157157e+95
-7.4493433e+95
-7.4614416e+95
-7.3672003e+95
-7.3548503e+95
-7.4376841e+95
-7.3423753e+95
-7.4243263e+95
-7.3282204e+95
-6.8652241e+95
-6.5868859e+95
-6.6056446e+95
-6.8870407e+95
-6.1439152e+95
-6.5256768e+95
-6.5061372e+95
-6.7518031e+95
-6.7747526e+95
-6.0685688e+95
-6.3556737e+95
-6.7510126e+95
-6.6178403e+95
-7.1948065e+95
-7.1813574e+95
-7.169085e+95
-7.1562734e+95
-7.4870366e+95
-7.4492519e+95
-7.4593152e+95
-7.4975906e+95
-7.5200128e+95
-7.5086068e+95
-7.5088204e+95
-7.4968641e+95
-7.4277881e+95
-7.4395896e+95
-7.4776628e+95
-7.4654417e+95
-7.4866055e+95
-7.4991103e+95
-7.4731627e+95
-7.4860791e+95
-7.307904e+95
-7.3745051e+95
-7.3811922e+95
-7.3150786e+95
-7.3864164e+95
-7.3208936e+95
-7.3919366e+95
-7.3264962e+95
-7.3628886e+95
-7.3689126e+95
-7.2956423e+95
-7.3021702e+95
-7.2833289e+95
-7.3509963e+95
-7.3572941e+95
-7.2896769e+95
-6.9961707e+95
-7.0084441e+95
-6.8492044e+95
-6.8371332e+95
-6.7075708e+95
-6.5809424e+95
-6.5903182e+95
-6.7185728e+95
-6.32665e+95
-6.7297269e+95
-6.600431e+95
-6.6105251e+95
-6.7414093e+95
-6.3423421e+95
-7.0333638e+95
-7.0198737e+95
-6.8598751e+95
-6.8734612e+95
-6.0414574e+95
-6.055244e+95
-6.2854537e+95
-6.267712e+95
-6.0245231e+95
-6.0405873e+95
-6.8745888e+95
-5.5031793e+95
-5.7979154e+95
-6.0708135e+95
-6.2273384e+95
-6.2345609e+95
-6.0765075e+95
-6.3649678e+95
-6.3582453e+95
-6.4921477e+95
-6.4987687e+95
-6.8098953e+95
-6.7496156e+95
-6.7446381e+95
-6.690131e+95
-6.6853058e+95
-6.6246343e+95
-6.6286738e+95
-6.6311774e+95
-7.2153008e+95
-7.2213966e+95
-7.2020724e+95
-7.2089058e+95
-7.1884352e+95
-7.1960154e+95
-7.1769919e+95
-7.1825095e+95
-7.3350094e+95
-7.3145184e+95
-7.3481601e+95
-7.3076717e+95
-7.3174678e+95
-7.3577441e+95
-7.4392883e+95
-7.4199263e+95
-7.4247933e+95
-7.4444139e+95
-7.4480209e+95
-7.4285944e+95
-7.4231872e+95
-7.4426837e+95
-7.429147e+95
-7.4098889e+95
-7.4154581e+95
-7.4348192e+95
-7.4322052e+95
-7.4380688e+95
-7.4120682e+95
-7.4182386e+95
-7.2885932e+95
-7.2983179e+95
-7.3391403e+95
-7.3292445e+95
-7.3897843e+95
-7.3959719e+95
-7.4146588e+95
-7.4084247e+95
-7.4195829e+95
-7.4008215e+95
-7.4056145e+95
-7.4246877e+95
-7.4106042e+95
-7.4168273e+95
-7.3894321e+95
-7.3956452e+95
-7.4219164e+95
-7.4010305e+95
-7.4273316e+95
-7.4067514e+95
-7.328914e+95
-7.3323143e+95
-7.288269e+95
-7.2848272e+95
-7.2914645e+95
-7.3352445e+95
-7.338323e+95
-7.29482e+95
-7.2974425e+95
-7.340921e+95
-7.3439737e+95
-7.3005818e+95
-7.346476e+95
-7.3490215e+95
-7.3032644e+95
-7.3060174e+95
-7.320159e+95
-7.3167448e+95
-7.2719989e+95
-7.2754569e+95
-7.2786665e+95
-7.3229419e+95
-7.3259654e+95
-7.2820244e+95
-7.3057793e+95
-7.3086992e+95
-7.2609377e+95
-7.2636737e+95
-7.3113283e+95
-7.3142069e+95
-7.2664034e+95
-7.2693879e+95
-6.4631954e+95
-6.404793e+95
-7.0778849e+95
-6.9856693e+95
-6.9794812e+95
-7.0834259e+95
-6.9991389e+95
-6.9919413e+95
-7.0968998e+95
-7.0894449e+95
-6.91222e+95
-6.836329e+95
-6.8435972e+95
-6.9189984e+95
-6.8993258e+95
-6.8298574e+95
-6.8240406e+95
-6.905509e+95
-6.7589358e+95
-6.7000591e+95
-6.6945354e+95
-6.764317e+95
-6.6429373e+95
-6.6373906e+95
-6.580434e+95
-6.5858283e+95
-6.4608956e+95
-6.5965054e+95
-6.5903069e+95
-6.6477111e+95
-6.4690019e+95
-6.6539166e+95
-6.7120218e+95
-6.7051566e+95
-6.770266e+95
-6.7775667e+95
-6.3390867e+95
-6.3312414e+95
-6.7830336e+95
-6.7238186e+95
-6.7174945e+95
-6.789091e+95
-6.6075731e+95
-6.601403e+95
-6.6654306e+95
-6.6590928e+95
-6.4781444e+95
-6.6198333e+95
-6.6129105e+95
-6.6714924e+95
-6.4863282e+95
-6.6793298e+95
-6.7384711e+95
-6.795856e+95
-6.7299958e+95
-6.8042287e+95
-6.3546262e+95
-6.3460964e+95
-7.1166255e+95
-7.0251012e+95
-7.0183639e+95
-7.1227675e+95
-7.1032109e+95
-7.0117021e+95
-7.0047092e+95
-7.1100333e+95
-6.9240732e+95
-6.8483491e+95
-6.854781e+95
-6.9309682e+95
-6.8700007e+95
-6.8619112e+95
-6.9381584e+95
-6.9452305e+95
-5.48257e+95
-5.7737918e+95
-5.4928282e+95
-5.785285e+95
-6.0447177e+95
-6.200944e+95
-6.2082818e+95
-6.0486111e+95
-6.0552236e+95
-6.2145369e+95
-6.2234729e+95
-6.0652786e+95
-6.9382036e+95
-6.9788087e+95
-6.8677006e+95
-6.9024383e+95
-6.8696319e+95
-6.9041082e+95
-5.4358741e+95
-5.9043069e+95
-5.9079038e+95
-5.6989923e+95
-5.6983231e+95
-6.204634e+95
-6.1152589e+95
-6.1129632e+95
-6.2035399e+95
-6.3345204e+95
-6.2719333e+95
-6.2719289e+95
-6.3354359e+95
-6.3380322e+95
-6.2745606e+95
-6.2785568e+95
-6.3413784e+95
-6.1152673e+95
-6.205849e+95
-6.2106042e+95
-6.3997007e+95
-6.3952051e+95
-6.4536857e+95
-6.4584359e+95
-6.3921727e+95
-6.3933603e+95
-6.4498189e+95
-6.4516524e+95
-6.5062213e+95
-6.5085975e+95
-6.5663024e+95
-6.5693452e+95
-6.5106055e+95
-6.515142e+95
-6.5716198e+95
-6.5750957e+95
-6.8022284e+95
-6.8351588e+95
-6.8046615e+95
-6.8372132e+95
-6.7467244e+95
-6.7491221e+95
-6.7765988e+95
-6.7414772e+95
-6.7715711e+95
-6.7443571e+95
-6.7742667e+95
-6.806701e+95
-6.688266e+95
-6.7179012e+95
-6.6905133e+95
-6.720305e+95
-6.6828296e+95
-6.7126231e+95
-6.6861375e+95
-6.7156303e+95
-6.6538084e+95
-6.6569917e+95
-6.6238145e+95
-6.6265862e+95
-6.6591928e+95
-6.6611094e+95
-6.6303123e+95
-6.6285106e+95
-6.6619928e+95
-6.6627375e+95
-6.6311449e+95
-6.6318364e+95
-6.6913962e+95
-7.2320529e+95
-7.2350357e+95
-7.2408937e+95
-7.2378284e+95
-7.2187451e+95
-7.221955e+95
-7.2252794e+95
-7.2291939e+95
-7.208461e+95
-7.2053111e+95
-7.2158929e+95
-7.2119445e+95
-7.1942413e+95
-7.1964292e+95
-7.1991012e+95
-7.2025437e+95
-7.0508367e+95
-7.0318545e+95
-7.2066709e+95
-7.3478464e+95
-7.3428833e+95
-7.1716356e+95
-7.1812415e+95
-7.2157826e+95
-7.3521157e+95
-7.3569e+95
-7.3777806e+95
-7.3825896e+95
-7.4050884e+95
-7.4074215e+95
-7.4114093e+95
-7.4088152e+95
-7.4023747e+95
-7.3785983e+95
-7.3999239e+95
-7.3762038e+95
-7.3948213e+95
-7.3710057e+95
-7.3976962e+95
-7.3739395e+95
-7.4028093e+95
-7.4001308e+95
-7.4038205e+95
-7.4066661e+95
-7.3684369e+95
-7.3733684e+95
-7.3930555e+95
-7.3902218e+95
-7.393476e+95
-7.3964944e+95
-7.3978786e+95
-7.3955503e+95
-7.3989223e+95
-7.4015864e+95
-7.3840287e+95
-7.3871621e+95
-7.3628757e+95
-7.3595339e+95
-7.3655086e+95
-7.3683094e+95
-7.3896942e+95
-7.39237e+95
-7.1537956e+95
-7.1626225e+95
-7.198279e+95
-7.3387283e+95
-7.3341698e+95
-7.190325e+95
-7.3298595e+95
-7.3245588e+95
-7.3549051e+95
-7.3495519e+95
-7.3594485e+95
-7.3641112e+95
-7.4051509e+95
-7.3724744e+95
-7.3730614e+95
-7.3699773e+95
-7.3756076e+95
-7.3781958e+95
-7.3757535e+95
-7.3781755e+95
-7.3808897e+95
-7.3624698e+95
-7.3371628e+95
-7.3656025e+95
-7.3402361e+95
-7.3682014e+95
-7.3427933e+95
-7.3455112e+95
-7.370844e+95
-7.3805588e+95
-7.3832889e+95
-7.3832626e+95
-7.3862102e+95
-7.3734085e+95
-7.3482319e+95
-7.3764088e+95
-7.3513494e+95
-7.3878923e+95
-7.3856236e+95
-7.3885147e+95
-7.3911354e+95
-7.3788358e+95
-7.3814444e+95
-7.3538644e+95
-7.3565698e+95
-7.2930612e+95
-7.2913038e+95
-7.2687228e+95
-7.2705206e+95
-7.2960155e+95
-7.2945619e+95
-7.2720781e+95
-7.2736149e+95
-7.2975861e+95
-7.2751448e+95
-7.2995252e+95
-7.277041e+95
-7.2785964e+95
-7.3010515e+95
-7.3024151e+95
-7.2802764e+95
-7.3054053e+95
-7.3037707e+95
-7.2815517e+95
-7.2830914e+95
-7.3082262e+95
-7.3068576e+95
-7.2844953e+95
-7.2860377e+95
-7.3094289e+95
-7.3110185e+95
-7.2871857e+95
-7.2887566e+95
-7.3122817e+95
-7.3132064e+95
-7.2899917e+95
-7.2912311e+95
-7.2835806e+95
-7.2820833e+95
-7.259193e+95
-7.2609173e+95
-7.2803636e+95
-7.2788401e+95
-7.2561008e+95
-7.2576266e+95
-7.284993e+95
-7.2867916e+95
-7.2623112e+95
-7.2640517e+95
-7.2897994e+95
-7.2883425e+95
-7.2656172e+95
-7.2673472e+95
-7.2693219e+95
-7.2680201e+95
-7.2452634e+95
-7.2464565e+95
-7.2476412e+95
-7.270634e+95
-7.2718442e+95
-7.2489954e+95
-7.2747556e+95
-7.2731169e+95
-7.2502001e+95
-7.2518256e+95
-7.2775188e+95
-7.2761988e+95
-7.2532452e+95
-7.2548014e+95
-5.1554847e+95
-6.5027878e+95
-6.4771487e+95
-6.4792586e+95
-6.5041775e+95
-6.4523833e+95
-6.4269274e+95
-6.4547682e+95
-6.5753772e+95
-6.4516749e+95
-6.6319547e+95
-6.6891032e+95
-6.3247885e+95
-5.7630781e+95
-5.4637563e+95
-5.473084e+95
-6.1956276e+95
-6.0395165e+95
-7.070007e+95
-7.1319318e+95
-7.0723156e+95
-7.1339977e+95
-6.9754035e+95
-6.9792972e+95
-7.0239377e+95
-7.0274504e+95
-6.9698375e+95
-7.0184098e+95
-6.9723174e+95
-7.0209414e+95
-7.0749189e+95
-7.1366301e+95
-7.0784684e+95
-7.1401174e+95
-6.9893437e+95
-6.9930958e+95
-7.0375683e+95
-7.0413034e+95
-6.9823761e+95
-7.0303344e+95
-6.9858727e+95
-7.0339468e+95
-7.0882943e+95
-7.0923839e+95
-7.1498128e+95
-7.1539181e+95
-7.143002e+95
-7.081224e+95
-7.0847418e+95
-7.1462287e+95
-6.8996431e+95
-6.9407494e+95
-6.9033645e+95
-6.9442382e+95
-6.8274963e+95
-6.831258e+95
-6.8631107e+95
-6.8669356e+95
-6.8346259e+95
-6.83806e+95
-6.8702744e+95
-6.8735072e+95
-6.9065015e+95
-6.9099537e+95
-6.9475853e+95
-6.9512328e+95
-6.8866693e+95
-6.9278297e+95
-6.8892248e+95
-6.9302567e+95
-6.8203662e+95
-6.8241584e+95
-6.8559108e+95
-6.8597401e+95
-6.8149774e+95
-6.8502652e+95
-6.8174668e+95
-6.8528762e+95
-6.8921662e+95
-6.8962033e+95
-6.9333641e+95
-6.9374182e+95
-6.7489954e+95
-6.7820105e+95
-6.7514356e+95
-6.7843666e+95
-6.6935301e+95
-6.6967093e+95
-6.7234981e+95
-6.7267105e+95
-6.6883491e+95
-6.7182783e+95
-6.6908839e+95
-6.7208114e+95
-6.7539795e+95
-6.7574743e+95
-6.7871183e+95
-6.7908059e+95
-6.6363097e+95
-6.6649886e+95
-6.6394398e+95
-6.6681012e+95
-6.6309179e+95
-6.6597828e+95
-6.6338366e+95
-6.6623879e+95
-6.6032924e+95
-6.6061971e+95
-6.5752862e+95
-6.5261423e+95
-6.5780139e+95
-6.6088394e+95
-6.6118841e+95
-6.5310161e+95
-6.583837e+95
-6.580744e+95
-6.4705592e+95
-6.4749338e+95
-6.6198369e+95
-6.6231554e+95
-6.541265e+95
-6.5950532e+95
-6.591731e+95
-6.6140835e+95
-6.6169972e+95
-6.5350473e+95
-6.5888486e+95
-6.5860801e+95
-6.6416129e+95
-6.6706417e+95
-6.6445625e+95
-6.67362e+95
-6.4783916e+95
-6.4849951e+95
-6.6473222e+95
-6.6766194e+95
-6.6508056e+95
-6.6801772e+95
-6.7057951e+95
-6.7365461e+95
-6.7094442e+95
-6.7401334e+95
-6.699447e+95
-6.7296957e+95
-6.7026267e+95
-6.7331937e+95
-6.7606926e+95
-6.794197e+95
-6.7643622e+95
-6.7979063e+95
-6.767698e+95
-6.8013206e+95
-6.7713704e+95
-6.8048905e+95
-6.3749023e+95
-6.3693755e+95
-6.4245966e+95
-6.430827e+95
-6.4175675e+95
-6.3629209e+95
-6.3658728e+95
-6.4211943e+95
-6.7738937e+95
-6.807192e+95
-6.7767491e+95
-6.8098553e+95
-6.7181113e+95
-6.721878e+95
-6.7487909e+95
-6.752461e+95
-6.712162e+95
-6.7427682e+95
-6.7150983e+95
-6.7457413e+95
-6.779641e+95
-6.7835549e+95
-6.8129446e+95
-6.8170418e+95
-6.6316306e+95
-6.635256e+95
-6.5520863e+95
-6.6070738e+95
-6.6034993e+95
-6.6255475e+95
-6.6286149e+95
-6.5465331e+95
-6.6004054e+95
-6.5974607e+95
-6.6592116e+95
-6.6887172e+95
-6.663014e+95
-6.6925129e+95
-6.6532642e+95
-6.6828173e+95
-6.6563437e+95
-6.6857282e+95
-6.4901623e+95
-6.4951304e+95
-6.6455073e+95
-6.6502325e+95
-6.5623725e+95
-6.6206412e+95
-6.6164151e+95
-6.6380283e+95
-6.6417429e+95
-6.5566152e+95
-6.6129554e+95
-6.6097084e+95
-6.6659844e+95
-6.695705e+95
-6.6699249e+95
-6.6996165e+95
-6.4988156e+95
-6.5036026e+95
-6.6737975e+95
-6.703763e+95
-6.6789826e+95
-6.7089112e+95
-6.733254e+95
-6.7641815e+95
-6.7381988e+95
-6.7686941e+95
-6.7870867e+95
-6.8206938e+95
-6.7913214e+95
-6.8248219e+95
-6.7250246e+95
-6.7557695e+95
-6.7290376e+95
-6.7599505e+95
-6.7953182e+95
-6.8288233e+95
-6.7996845e+95
-6.8329308e+95
-6.3870725e+95
-6.3911099e+95
-6.4438693e+95
-6.4477925e+95
-6.4360098e+95
-6.3791283e+95
-6.3833996e+95
-6.4402825e+95
-7.109448e+95
-7.1707173e+95
-7.1128751e+95
-7.1737619e+95
-7.0166189e+95
-7.0193197e+95
-7.0649057e+95
-7.0673087e+95
-7.0098439e+95
-7.0582564e+95
-7.0135237e+95
-7.0619164e+95
-7.1155377e+95
-7.1765897e+95
-7.1182496e+95
-7.1795331e+95
-7.0953269e+95
-7.1569231e+95
-7.0987777e+95
-7.1601552e+95
-7.0022465e+95
-7.0509528e+95
-7.0065284e+95
-7.0550266e+95
-6.9956208e+95
-7.043974e+95
-6.9987959e+95
-7.0474435e+95
-7.1020005e+95
-7.106229e+95
-7.1634791e+95
-7.1676216e+95
-6.9122861e+95
-6.9152725e+95
-6.953693e+95
-6.9566931e+95
-6.8401264e+95
-6.8756396e+95
-6.8428924e+95
-6.8785891e+95
-6.8461281e+95
-6.8503028e+95
-6.8819559e+95
-6.8860412e+95
-6.9185346e+95
-6.9228021e+95
-6.9601096e+95
-6.9644116e+95
-6.8618819e+95
-6.8657617e+95
-6.897478e+95
-6.9008828e+95
-6.8538167e+95
-6.8579783e+95
-6.8895269e+95
-6.8936954e+95
-6.926272e+95
-6.9679146e+95
-6.9303111e+95
-6.9716993e+95
-6.9337147e+95
-6.936948e+95
-6.9749538e+95
-6.9778532e+95
-5.4151296e+95
-5.6763161e+95
-5.879727e+95
-5.8813425e+95
-5.6747144e+95
-5.4248849e+95
-5.8877736e+95
-5.8982438e+95
-5.6797569e+95
-5.6928365e+95
-6.1790625e+95
-6.0905645e+95
-6.0876998e+95
-6.178148e+95
-6.3063391e+95
-6.2452146e+95
-6.2460512e+95
-6.3087794e+95
-6.312568e+95
-6.2491581e+95
-6.2535713e+95
-6.3170339e+95
-6.0886047e+95
-6.0932046e+95
-6.1799733e+95
-6.1838584e+95
-6.0998218e+95
-6.0962102e+95
-6.1868338e+95
-6.1915092e+95
-6.2562679e+95
-6.2608804e+95
-6.3207094e+95
-6.3249635e+95
-6.2665133e+95
-6.2715457e+95
-6.3295063e+95
-6.33358e+95
-6.1138451e+95
-6.1058988e+95
-6.1972173e+95
-6.2030778e+95
-6.9322035e+95
-6.9328899e+95
-6.9524273e+95
-6.9517871e+95
-6.9714158e+95
-6.9930867e+95
-6.9934985e+95
-6.9719328e+95
-6.8632655e+95
-6.8623218e+95
-6.8792499e+95
-6.8801144e+95
-6.896813e+95
-6.8960351e+95
-6.9141548e+95
-6.9148452e+95
-6.8821186e+95
-6.8641803e+95
-6.8809947e+95
-6.8654494e+95
-6.9155627e+95
-6.8976054e+95
-6.8986125e+95
-6.9164211e+95
-5.6741023e+95
-5.6719569e+95
-6.0080313e+95
-6.0044133e+95
-5.8683539e+95
-5.8617036e+95
-6.0063607e+95
-5.8619397e+95
-6.2859826e+95
-6.2541555e+95
-6.2514356e+95
-6.2842772e+95
-6.216948e+95
-6.1653663e+95
-6.1606001e+95
-6.2136012e+95
-6.1587245e+95
-6.1581669e+95
-6.2114601e+95
-6.211762e+95
-6.2831423e+95
-6.249353e+95
-6.2497593e+95
-6.2835476e+95
-6.3906389e+95
-6.3648869e+95
-6.3645342e+95
-6.3902972e+95
-6.3399077e+95
-6.3139983e+95
-6.3130006e+95
-6.3393524e+95
-6.3133549e+95
-6.312642e+95
-6.3394587e+95
-6.3406116e+95
-6.3904708e+95
-6.3645825e+95
-6.3658657e+95
-6.3916575e+95
-6.3921162e+95
-6.3665508e+95
-6.3670615e+95
-6.3924789e+95
-6.3412269e+95
-6.3140267e+95
-6.3154699e+95
-6.3421435e+95
-6.3205306e+95
-6.317519e+95
-6.3438291e+95
-6.3470644e+95
-6.3941348e+95
-6.3684173e+95
-6.3721771e+95
-6.398238e+95
-6.2128587e+95
-6.1596619e+95
-6.1612864e+95
-6.2144826e+95
-6.2521615e+95
-6.2507245e+95
-6.284262e+95
-6.285834e+95
-6.2881447e+95
-6.2547893e+95
-6.3751523e+95
-6.4015529e+95
-6.4238486e+95
-6.4197289e+95
-6.4455408e+95
-6.4495548e+95
-6.4174618e+95
-6.416707e+95
-6.4420803e+95
-6.4430179e+95
-6.4948452e+95
-6.4675463e+95
-6.4685736e+95
-6.4956521e+95
-6.4976922e+95
-6.4708804e+95
-6.4746715e+95
-6.5009041e+95
-6.440326e+95
-6.4154062e+95
-6.4154281e+95
-6.440765e+95
-6.4167533e+95
-6.4158288e+95
-6.4413783e+95
-6.4422081e+95
-6.4658459e+95
-6.4650416e+95
-6.4914696e+95
-6.492478e+95
-6.4933111e+95
-6.4664976e+95
-6.4674759e+95
-6.4945097e+95
-6.5438731e+95
-6.5172666e+95
-6.518614e+95
-6.5455412e+95
-6.5209507e+95
-6.5196666e+95
-6.5467969e+95
-6.5481784e+95
-6.572135e+95
-6.5701555e+95
-6.5974543e+95
-6.5997906e+95
-6.601377e+95
-6.5734604e+95
-6.5750504e+95
-6.6030993e+95
-6.5487242e+95
-6.5213803e+95
-6.5222095e+95
-6.5495004e+95
-6.5265045e+95
-6.5239743e+95
-6.5509747e+95
-6.552771e+95
-6.5764824e+95
-6.5757321e+95
-6.6039143e+95
-6.6045295e+95
-6.6053862e+95
-6.5775462e+95
-6.5789711e+95
-6.6063834e+95
-6.8148453e+95
-6.7979105e+95
-6.813649e+95
-6.7991555e+95
-6.8294199e+95
-6.8460371e+95
-6.8469932e+95
-6.8304875e+95
-6.8016443e+95
-6.8171303e+95
-6.8002841e+95
-6.8158785e+95
-6.8314379e+95
-6.84797e+95
-6.832727e+95
-6.8492396e+95
-6.7445558e+95
-6.7587238e+95
-6.7598574e+95
-6.7456633e+95
-6.7478948e+95
-6.7467136e+95
-6.760915e+95
-6.7620057e+95
-6.7888358e+95
-6.772877e+95
-6.7877533e+95
-6.7740213e+95
-6.7548539e+95
-6.7388985e+95
-6.7533006e+95
-6.7405557e+95
-6.7676979e+95
-6.7828024e+95
-6.7840702e+95
-6.769115e+95
-6.75764e+95
-6.7419022e+95
-6.7561552e+95
-6.7434238e+95
-6.7703688e+95
-6.7853163e+95
-6.7718349e+95
-6.7867244e+95
-6.8025721e+95
-6.8180478e+95
-6.8190435e+95
-6.8036009e+95
-6.6884028e+95
-6.6894279e+95
-6.7023847e+95
-6.7034394e+95
-6.7173548e+95
-6.73047e+95
-6.7315441e+95
-6.7162596e+95
-6.6905967e+95
-6.6914274e+95
-6.7054088e+95
-6.7045002e+95
-6.7183315e+95
-6.7194204e+95
-6.7325894e+95
-6.7337718e+95
-6.6983216e+95
-6.6821691e+95
-6.6962449e+95
-6.6843457e+95
-6.710308e+95
-6.7246631e+95
-6.7263792e+95
-6.7122229e+95
-6.7014123e+95
-6.6861356e+95
-6.6999337e+95
-6.6875666e+95
-6.7136464e+95
-6.7277949e+95
-6.7151897e+95
-6.729296e+95
-6.6510471e+95
-6.6529681e+95
-6.6678426e+95
-6.6698555e+95
-6.6716947e+95
-6.6731072e+95
-6.654666e+95
-6.6560625e+95
-6.6288798e+95
-6.6320559e+95
-6.6571679e+95
-6.6579329e+95
-6.6741012e+95
-6.6749768e+95
-6.676093e+95
-6.6768551e+95
-6.658805e+95
-6.6595029e+95
-6.6355152e+95
-6.6340981e+95
-6.6599095e+95
-6.6601565e+95
-6.6771853e+95
-6.6774287e+95
-6.6779043e+95
-6.6780504e+95
-6.6605291e+95
-6.6607644e+95
-6.6362509e+95
-6.636914e+95
-6.7062899e+95
-6.6916772e+95
-6.7058651e+95
-6.6920397e+95
-7.241339e+95
-7.242694e+95
-7.2440776e+95
-7.2458749e+95
-7.2497742e+95
-7.251209e+95
-7.2485131e+95
-7.2471178e+95
-7.2280357e+95
-7.2295469e+95
-7.2310368e+95
-7.2328742e+95
-7.2344567e+95
-7.2363156e+95
-7.2379743e+95
-7.2400037e+95
-7.2177332e+95
-7.2196718e+95
-7.2164429e+95
-7.2150593e+95
-7.2245621e+95
-7.2266373e+95
-7.2229116e+95
-7.2211895e+95
-7.2049547e+95
-7.2040782e+95
-7.2074569e+95
-7.2059562e+95
-7.2086833e+95
-7.2101428e+95
-7.2136039e+95
-7.2116469e+95
-7.0131214e+95
-6.7577848e+95
-7.0244317e+95
-7.0340427e+95
-6.7412292e+95
-7.0163502e+95
-7.0078454e+95
-7.2785105e+95
-7.2739669e+95
-7.0661715e+95
-7.1992098e+95
-7.2035079e+95
-7.287053e+95
-7.2826971e+95
-7.0752642e+95
-7.2074707e+95
-7.2115401e+95
-7.3229202e+95
-7.320726e+95
-7.3331801e+95
-7.3355225e+95
-7.3697012e+95
-7.372156e+95
-7.3274929e+95
-7.3249378e+95
-7.3375983e+95
-7.3399911e+95
-7.3743876e+95
-7.3766975e+95
-7.388158e+95
-7.3890324e+95
-7.3908571e+95
-7.3897129e+95
-7.3872682e+95
-7.3855214e+95
-7.3870679e+95
-7.3886774e+95
-7.37876e+95
-7.3865448e+95
-7.3877986e+95
-7.3800227e+95
-7.335455e+95
-7.363746e+95
-7.3646004e+95
-7.3363481e+95
-7.3842191e+95
-7.3856002e+95
-7.3777674e+95
-7.3765137e+95
-7.3611079e+95
-7.3625438e+95
-7.3342157e+95
-7.33272e+95
-7.3808948e+95
-7.3793363e+95
-7.3714527e+95
-7.3729765e+95
-7.3272029e+95
-7.3558766e+95
-7.3575673e+95
-7.3288856e+95
-7.3831846e+95
-7.3820128e+95
-7.3742335e+95
-7.375343e+95
-7.360048e+95
-7.3589055e+95
-7.3302471e+95
-7.3315269e+95
-7.3823905e+95
-7.3806983e+95
-7.3824166e+95
-7.3840034e+95
-7.3851446e+95
-7.3835785e+95
-7.3844537e+95
-7.3862577e+95
-7.3140462e+95
-7.3118878e+95
-7.326507e+95
-7.3242946e+95
-7.3602503e+95
-7.3627095e+95
-7.318808e+95
-7.3161332e+95
-7.3286121e+95
-7.3312157e+95
-7.3650505e+95
-7.3674665e+95
-7.3722566e+95
-7.3708152e+95
-7.3738633e+95
-7.3725351e+95
-7.3737672e+95
-7.3746979e+95
-7.3750709e+95
-7.3762705e+95
-7.3774024e+95
-7.375859e+95
-7.3789556e+95
-7.3775394e+95
-7.3786706e+95
-7.379569e+95
-7.3800712e+95
-7.3812829e+95
-7.3605519e+95
-7.3688521e+95
-7.3704435e+95
-7.3621667e+95
-7.3729465e+95
-7.3716579e+95
-7.3647036e+95
-7.363493e+95
-7.3476384e+95
-7.3183726e+95
-7.3198083e+95
-7.3489483e+95
-7.3151835e+95
-7.3445357e+95
-7.3461767e+95
-7.3168772e+95
-7.3501375e+95
-7.351795e+95
-7.3230528e+95
-7.321224e+95
-7.3244974e+95
-7.3532226e+95
-7.3544256e+95
-7.3258014e+95
-7.3756437e+95
-7.3741189e+95
-7.3674471e+95
-7.3660331e+95
-7.378114e+95
-7.376746e+95
-7.3701173e+95
-7.3686715e+95
-7.1334916e+95
-7.1445141e+95
-7.1809087e+95
-7.2699276e+95
-7.2658856e+95
-7.0585951e+95
-7.191919e+95
-7.1954895e+95
-7.2620129e+95
-7.2573814e+95
-7.051775e+95
-7.1844217e+95
-7.1885873e+95
-7.3443079e+95
-7.3017652e+95
-7.2992083e+95
-7.3113754e+95
-7.3462675e+95
-7.3139027e+95
-7.3487661e+95
-7.2969746e+95
-7.2945715e+95
-7.3065967e+95
-7.3090792e+95
-7.3410685e+95
-7.3437801e+95
-7.3056738e+95
-7.3036095e+95
-7.3158911e+95
-7.3180772e+95
-7.3510816e+95
-7.353514e+95
-7.3100974e+95
-7.307628e+95
-7.3201279e+95
-7.3225177e+95
-7.3557669e+95
-7.358073e+95
-7.3673513e+95
-7.3646254e+95
-7.3669543e+95
-7.3699045e+95
-7.3598072e+95
-7.3345205e+95
-7.3507219e+95
-7.3525225e+95
-7.3534164e+95
-7.3517636e+95
-7.353896e+95
-7.3548756e+95
-7.3559745e+95
-7.3547478e+95
-7.3560973e+95
-7.3578122e+95
-7.3587341e+95
-7.3571618e+95
-7.3599133e+95
-7.3590214e+95
-7.3599102e+95
-7.3610711e+95
-7.3479921e+95
-7.3496057e+95
-7.3392687e+95
-7.3408657e+95
-7.2923057e+95
-7.3224956e+95
-7.3240755e+95
-7.2937617e+95
-7.3508899e+95
-7.3421258e+95
-7.3522056e+95
-7.343428e+95
-7.3265565e+95
-7.3254454e+95
-7.2950883e+95
-7.2962693e+95
-7.353397e+95
-7.3549309e+95
-7.3461031e+95
-7.3446061e+95
-7.2975275e+95
-7.3277939e+95
-7.3293348e+95
-7.2991089e+95
-7.3005582e+95
-7.3306984e+95
-7.3318277e+95
-7.3017636e+95
-7.3560631e+95
-7.3573283e+95
-7.3486006e+95
-7.3472315e+95
-7.3627968e+95
-7.3610979e+95
-7.3622447e+95
-7.3638295e+95
-7.3649349e+95
-7.3640224e+95
-7.3650412e+95
-7.3662278e+95
-7.360136e+95
-7.3585425e+95
-7.3498471e+95
-7.3515194e+95
-7.3030078e+95
-7.3332221e+95
-7.3348982e+95
-7.3046778e+95
-7.362615e+95
-7.361322e+95
-7.3527377e+95
-7.3540604e+95
-7.3375951e+95
-7.3363595e+95
-7.3063056e+95
-7.3077208e+95
-7.3673201e+95
-7.366044e+95
-7.3676905e+95
-7.3688428e+95
-7.3699475e+95
-7.3687973e+95
-7.36967e+95
-7.3711145e+95
-7.3652497e+95
-7.3637514e+95
-7.3552693e+95
-7.356722e+95
-7.3676441e+95
-7.3663397e+95
-7.3579222e+95
-7.3592893e+95
-7.3404839e+95
-7.3388468e+95
-7.3090675e+95
-7.3107961e+95
-7.3430571e+95
-7.341844e+95
-7.3122915e+95
-7.3136571e+95
-5.1273365e+95
-7.2444144e+95
-7.2427251e+95
-7.2475055e+95
-7.2459412e+95
-7.2492809e+95
-7.2511381e+95
-7.2526913e+95
-7.2543697e+95
-7.2573417e+95
-7.2558742e+95
-7.2603567e+95
-7.2588311e+95
-7.261737e+95
-7.2631574e+95
-7.2642832e+95
-7.2654671e+95
-7.2345604e+95
-7.2328951e+95
-7.2314746e+95
-7.2301121e+95
-7.2361632e+95
-7.2378687e+95
-7.2411171e+95
-7.2393779e+95
-7.2200622e+95
-7.2190246e+95
-7.2212294e+95
-7.2225277e+95
-7.2253394e+95
-7.2238277e+95
-7.2284292e+95
-7.2267189e+95
-5.1399974e+95
-6.5141583e+95
-6.4910857e+95
-6.4933353e+95
-6.5156572e+95
-6.468187e+95
-6.4454211e+95
-6.4711514e+95
-6.5970388e+95
-6.6007599e+95
-6.5210268e+95
-6.5728212e+95
-6.5691934e+95
-6.5134984e+95
-6.4580898e+95
-6.4658694e+95
-6.6242981e+95
-6.6532388e+95
-6.6282187e+95
-6.6571203e+95
-6.6820484e+95
-6.6858142e+95
-6.7159284e+95
-6.3592449e+95
-6.3522336e+95
-6.4056927e+95
-6.4131056e+95
-5.6600343e+95
-5.8651547e+95
-5.6717786e+95
-5.8747491e+95
-5.4060815e+95
-6.0752208e+95
-6.2974915e+95
-6.237159e+95
-6.2435191e+95
-6.30365e+95
-6.0890589e+95
-6.0810931e+95
-6.1703018e+95
-6.1767327e+95
-7.0983115e+95
-7.0655151e+95
-7.0972149e+95
-7.0664862e+95
-7.1295554e+95
-7.1669017e+95
-7.1676441e+95
-7.1304436e+95
-7.0689859e+95
-7.1004993e+95
-7.067529e+95
-7.0992402e+95
-7.1313336e+95
-7.1685966e+95
-7.1327267e+95
-7.1700517e+95
-6.9683195e+95
-6.9919986e+95
-6.9938646e+95
-6.970164e+95
-6.9739961e+95
-6.9719006e+95
-6.9955466e+95
-6.9975217e+95
-7.0445838e+95
-7.0157138e+95
-7.043004e+95
-7.0174356e+95
-7.0211238e+95
-7.0482709e+95
-7.0190967e+95
-7.046298e+95
-6.9879586e+95
-6.9630391e+95
-6.9867947e+95
-6.9641046e+95
-7.0106458e+95
-7.0380969e+95
-7.0390337e+95
-7.0116753e+95
-6.9906016e+95
-6.9652366e+95
-6.9890552e+95
-6.9668683e+95
-7.0127948e+95
-7.0401832e+95
-7.0143549e+95
-7.0416808e+95
-7.070165e+95
-7.1016762e+95
-7.1033258e+95
-7.0717118e+95
-7.1713272e+95
-7.1339699e+95
-7.1355441e+95
-7.1727936e+95
-7.0733959e+95
-7.0753653e+95
-7.1050165e+95
-7.1068404e+95
-7.174383e+95
-7.1391158e+95
-7.1764171e+95
-7.1371338e+95
-6.9824279e+95
-7.0059008e+95
-7.0078942e+95
-6.9843324e+95
-6.9877609e+95
-6.9859375e+95
-7.0095184e+95
-7.0112893e+95
-7.0583512e+95
-7.0294057e+95
-7.0564892e+95
-7.0313273e+95
-7.0349134e+95
-7.0621388e+95
-7.0330022e+95
-7.0601618e+95
-7.0007794e+95
-6.9754929e+95
-6.9989868e+95
-6.9772211e+95
-7.0225278e+95
-7.0496013e+95
-7.0511448e+95
-7.0241793e+95
-7.0043019e+95
-6.9788338e+95
-7.0023529e+95
-6.9807989e+95
-7.0257847e+95
-7.052825e+95
-7.0277867e+95
-7.0548315e+95
-7.0834438e+95
-7.1148166e+95
-7.116811e+95
-7.0853311e+95
-7.0871827e+95
-7.1187119e+95
-7.0892484e+95
-7.1206846e+95
-7.1841257e+95
-7.1859194e+95
-7.1469737e+95
-7.1488825e+95
-7.1527815e+95
-7.1506735e+95
-7.1877054e+95
-7.189836e+95
-7.1404889e+95
-7.1778683e+95
-7.1793483e+95
-7.1420731e+95
-7.1097812e+95
-7.0766561e+95
-7.1081367e+95
-7.0781964e+95
-7.0818616e+95
-7.0798364e+95
-7.1113936e+95
-7.1132583e+95
-7.1454027e+95
-7.14345e+95
-7.180568e+95
-7.1825236e+95
-6.914518e+95
-6.8926499e+95
-6.9125305e+95
-6.8946189e+95
-6.932353e+95
-6.9541377e+95
-6.9558691e+95
-6.9341989e+95
-6.9180718e+95
-6.8963588e+95
-6.9162204e+95
-6.898313e+95
-6.9358575e+95
-6.9575439e+95
-6.9377501e+95
-6.9594243e+95
-6.8211936e+95
-6.8385541e+95
-6.8405332e+95
-6.8231248e+95
-6.824897e+95
-6.8422996e+95
-6.844237e+95
-6.8268768e+95
-6.8557442e+95
-6.8742636e+95
-6.8761986e+95
-6.8576965e+95
-6.8594473e+95
-6.8779645e+95
-6.8799555e+95
-6.8614332e+95
-6.8283897e+95
-6.8457318e+95
-6.8474503e+95
-6.8300879e+95
-6.8332042e+95
-6.8316071e+95
-6.848926e+95
-6.8504312e+95
-6.8629138e+95
-6.8814e+95
-6.8830227e+95
-6.8645789e+95
-6.8676118e+95
-6.8659902e+95
-6.8844814e+95
-6.8861398e+95
-6.899668e+95
-6.9194411e+95
-6.9211963e+95
-6.9013072e+95
-6.9045431e+95
-6.9028155e+95
-6.9228008e+95
-6.9245093e+95
-6.961086e+95
-6.9629599e+95
-6.9392537e+95
-6.9410668e+95
-6.944455e+95
-6.94265e+95
-6.9645817e+95
-6.9663737e+95
-6.9008447e+95
-6.8797547e+95
-6.8996603e+95
-6.8808847e+95
-6.9195523e+95
-6.9414745e+95
-6.9425003e+95
-6.9206343e+95
-6.8836362e+95
-6.9034598e+95
-6.8820598e+95
-6.9019628e+95
-6.9217425e+95
-6.9436708e+95
-6.9233354e+95
-6.9452807e+95
-6.8139493e+95
-6.8312539e+95
-6.8330599e+95
-6.8156842e+95
-6.8174131e+95
-6.8348128e+95
-6.8369367e+95
-6.8195484e+95
-6.8684808e+95
-6.848346e+95
-6.8667236e+95
-6.8501385e+95
-6.872623e+95
-6.8519693e+95
-6.8703999e+95
-6.8541263e+95
-6.8271266e+95
-6.8086848e+95
-6.8259143e+95
-6.8098261e+95
-6.843006e+95
-6.8613875e+95
-6.8624713e+95
-6.8441474e+95
-6.8298453e+95
-6.8109783e+95
-6.8282772e+95
-6.8125521e+95
-6.8453392e+95
-6.8637103e+95
-6.8469338e+95
-6.8652887e+95
-6.8850029e+95
-6.9048569e+95
-6.9067381e+95
-6.8867936e+95
-6.8887237e+95
-6.9086673e+95
-6.8909651e+95
-6.910817e+95
-6.9467849e+95
-6.9486525e+95
-6.9248015e+95
-6.9266798e+95
-6.9307209e+95
-6.9285273e+95
-6.9504755e+95
-6.9525957e+95
-6.7606361e+95
-6.7436379e+95
-6.7594642e+95
-6.7447688e+95
-6.7753664e+95
-6.7921419e+95
-6.7932154e+95
-6.7764665e+95
-6.7473452e+95
-6.7631155e+95
-6.7459031e+95
-6.7617241e+95
-6.77755e+95
-6.7943714e+95
-6.7790255e+95
-6.7958901e+95
-6.6896848e+95
-6.7039671e+95
-6.7054471e+95
-6.6911127e+95
-6.6943144e+95
-6.6925792e+95
-6.7069596e+95
-6.7087172e+95
-6.7349503e+95
-6.7183321e+95
-6.7334432e+95
-6.7198351e+95
-6.7232174e+95
-6.7384596e+95
-6.7213373e+95
-6.7365181e+95
-6.7001462e+95
-6.6845131e+95
-6.6988856e+95
-6.6858037e+95
-6.7133222e+95
-6.7284461e+95
-6.7295442e+95
-6.714494e+95
-6.7027255e+95
-6.6869686e+95
-6.7012965e+95
-6.6884079e+95
-6.7156579e+95
-6.7307393e+95
-6.7170995e+95
-6.7321802e+95
-6.7485631e+95
-6.7643775e+95
-6.7659971e+95
-6.7501047e+95
-6.7517306e+95
-6.7677052e+95
-6.7537297e+95
-6.7697014e+95
-6.7972933e+95
-6.7989795e+95
-6.7803629e+95
-6.7820162e+95
-6.7858095e+95
-6.783718e+95
-6.8007194e+95
-6.8028287e+95
-6.6342076e+95
-6.6356475e+95
-6.6478448e+95
-6.6492727e+95
-6.6629592e+95
-6.6755887e+95
-6.6769897e+95
-6.6615329e+95
-6.6372352e+95
-6.6386308e+95
-6.6521567e+95
-6.6507375e+95
-6.6643334e+95
-6.6659007e+95
-6.6784241e+95
-6.6800999e+95
-6.6438313e+95
-6.6284818e+95
-6.6422679e+95
-6.6300877e+95
-6.6561707e+95
-6.6703348e+95
-6.6716399e+95
-6.6576054e+95
-6.6466842e+95
-6.6317045e+95
-6.6452468e+95
-6.6331439e+95
-6.6588344e+95
-6.6728533e+95
-6.6602993e+95
-6.6742691e+95
-6.5988643e+95
-6.6002418e+95
-6.6146338e+95
-6.6160983e+95
-6.6177964e+95
-6.6192508e+95
-6.6018535e+95
-6.6033572e+95
-6.577557e+95
-6.5507926e+95
-6.5258488e+95
-6.5283539e+95
-6.5533481e+95
-6.5806281e+95
-6.6047098e+95
-6.6059955e+95
-6.6204195e+95
-6.6217537e+95
-6.6234077e+95
-6.6248043e+95
-6.6075495e+95
-6.6089593e+95
-6.5560514e+95
-6.5310261e+95
-6.5342528e+95
-6.5592145e+95
-6.5864653e+95
-6.5835135e+95
-6.5017532e+95
-6.47758e+95
-6.4798107e+95
-6.504154e+95
-6.4852089e+95
-6.4823487e+95
-6.5068772e+95
-6.5099373e+95
-6.6159517e+95
-6.6172873e+95
-6.6315951e+95
-6.633014e+95
-6.6347556e+95
-6.6362686e+95
-6.6189029e+95
-6.6203974e+95
-6.5668917e+95
-6.5416283e+95
-6.5452864e+95
-6.5703484e+95
-6.5978614e+95
-6.5948283e+95
-6.610097e+95
-6.6113825e+95
-6.6258229e+95
-6.6271508e+95
-6.6288352e+95
-6.6303614e+95
-6.613014e+95
-6.6145846e+95
-6.5614733e+95
-6.5363984e+95
-6.5387876e+95
-6.5640247e+95
-6.5919879e+95
-6.5889159e+95
-6.639576e+95
-6.6410154e+95
-6.654763e+95
-6.6532702e+95
-6.6672248e+95
-6.6687564e+95
-6.6814921e+95
-6.6830419e+95
-6.6578573e+95
-6.642598e+95
-6.6562496e+95
-6.6441449e+95
-6.6845495e+95
-6.6702183e+95
-6.6718983e+95
-6.686236e+95
-6.5119059e+95
-6.4868477e+95
-6.4890956e+95
-6.5141732e+95
-6.4965383e+95
-6.4922901e+95
-6.5172099e+95
-6.5210019e+95