/*--------------------------------*- C++ -*----------------------------------*\
  =========                 |
  \\      /  F ield         | OpenFOAM: The Open Source CFD Toolbox
   \\    /   O peration     | Website:  https://openfoam.org
    \\  /    A nd           | Version:  7
     \\/     M anipulation  |
\*---------------------------------------------------------------------------*/
FoamFile
{
    version     2.0;
    format      ascii;
    class       surfaceScalarField;
    location    "1000";
    object      phi;
}
// * * * * * * * * * * * * * * * * * * * * * * * * * * * * * * * * * * * * * //

dimensions      [0 3 -1 0 0 0 0];

internalField   nonuniform List<scalar> 
102230
(
8.014037e+43
-3.446711e+44
-3.4145709e+44
-3.7174829e+44
-3.8019275e+44
-3.4415671e+44
-3.1208207e+44
-3.345705e+44
-3.0983769e+44
1.6364812e+43
-5.6403734e+43
3.2424716e+43
-6.8147259e+43
-6.7470107e+43
-8.3346677e+43
-8.4691317e+43
-6.5272807e+43
3.8959184e+43
-7.0240133e+43
-8.9834215e+43
-6.7852921e+43
-8.4364444e+43
-3.2040665e+43
-3.1354806e+44
-3.0641156e+44
1.099587e+44
-7.2942121e+43
-8.8940654e+43
9.1392156e+43
-1.6152144e+45
-8.3422888e+43
-6.5868276e+43
8.2190947e+43
6.0885001e+43
3.1124926e+43
2.457128e+43
2.9324878e+43
-3.8322593e+44
-1.0057949e+43
-6.065001e+42
2.8595319e+43
3.0397201e+43
-3.900994e+44
-8.8642805e+42
-5.068503e+42
2.0934309e+43
2.1603501e+43
-7.0463437e+43
-7.7365077e+43
-7.8039321e+43
-7.1060381e+43
1.5910985e+43
-6.556824e+43
-5.4334334e+43
-6.5733976e+43
-5.5212182e+43
1.9474735e+43
-7.5744354e+43
-8.0543145e+43
-7.3113759e+43
-6.9228126e+43
-6.4773541e+43
-6.7773277e+43
-5.5171105e+43
-5.6988811e+43
-4.1837903e+42
-1.3138299e+43
3.4587997e+42
9.1153208e+42
-1.7554334e+43
-1.3464826e+43
-1.3960573e+43
-1.8419545e+43
-1.1940969e+43
7.8622919e+42
-1.3584891e+43
-1.7885701e+43
-1.3413999e+43
-1.7258696e+43
6.5784713e+42
-6.7639438e+43
7.4618859e+42
-6.9388137e+43
-1.2965651e+43
1.1545306e+42
8.7364349e+42
-1.3873324e+43
-1.3648642e+43
-1.8314013e+43
-1.7870657e+43
4.1012713e+42
-7.0843925e+43
-1.4175875e+43
9.5774422e+42
-1.7731557e+43
-1.3602092e+43
-1.406296e+43
-1.8718362e+43
-7.0238507e+43
-2.939583e+44
-2.7700833e+43
2.4594284e+43
2.1766193e+43
-1.799136e+43
-1.4045209e+43
-2.4342903e+43
1.9174888e+43
-1.7364349e+43
-2.0851144e+43
1.6586344e+43
-3.6537119e+44
2.9074808e+44
1.8912306e+43
-1.7994094e+43
-2.0711172e+43
1.5100143e+43
-3.6264318e+44
1.953914e+43
2.4016245e+43
-1.4462612e+43
-1.7946075e+43
8.4914703e+43
7.0182558e+43
-7.0389758e+43
-8.3761357e+43
7.2515198e+43
8.7351274e+43
-5.8008315e+43
-6.913529e+43
2.8643363e+43
2.5566896e+44
-3.2365163e+44
2.5497225e+44
-3.2122369e+44
-3.2957193e+43
2.6562903e+44
3.1563561e+43
-3.3835731e+44
-1.4066348e+43
1.6734948e+43
1.3757722e+43
-1.8435447e+43
3.4644294e+43
-2.2663389e+43
-1.8522673e+43
1.5571373e+43
1.3057481e+43
-6.1058692e+43
6.3572789e+42
3.6875208e+42
-4.316419e+42
-3.5875417e+42
6.1464444e+42
-7.696916e+43
2.8730701e+42
3.3376364e+42
-3.9649796e+42
-4.6546751e+42
5.8008234e+42
6.2976024e+42
5.2922023e+42
-8.3408443e+43
-1.0891031e+42
-1.823898e+42
6.4567765e+42
6.3419983e+42
5.9010626e+42
-8.5657893e+43
-9.4844509e+41
-1.7457984e+42
4.4537468e+42
6.4479929e+42
5.7240419e+42
-8.703597e+43
-1.155142e+42
-1.6860842e+42
6.4962973e+42
6.2807081e+42
-8.657126e+43
-8.8210049e+41
-1.5488174e+42
-1.1452259e+43
-5.697007e+42
1.2088284e+43
5.8794262e+42
-7.1281881e+43
-7.8608865e+42
9.2191459e+42
-2.7687544e+43
-6.248806e+43
1.0593532e+43
-2.3291112e+43
-6.2334812e+43
1.1452152e+43
-7.0329003e+43
3.8857254e+42
4.3316651e+42
-1.2818049e+43
-1.5544097e+43
-1.5443073e+43
-1.2894952e+43
4.1003338e+42
-1.10028e+43
-9.5018846e+42
-9.6200999e+42
-1.0979233e+43
3.7001711e+42
4.3514076e+42
-1.2624289e+43
-1.529709e+43
-1.6100831e+43
-1.3343395e+43
3.7519221e+42
-1.0885271e+43
-1.1472567e+43
-9.6288808e+42
-1.0061558e+43
-5.3189425e+42
1.130212e+43
-2.6950053e+43
-6.2327931e+43
1.0800198e+43
-2.4472491e+43
-6.2970653e+43
3.1923693e+42
1.1667671e+43
-7.1294173e+43
1.1947641e+43
-7.1057181e+43
-1.8673784e+42
3.5664118e+42
-1.5274584e+43
-1.604939e+43
-1.3278916e+43
-1.2607777e+43
3.7068295e+42
-1.2986429e+43
-1.5734915e+43
-1.5607829e+43
-1.2999231e+43
-1.4025867e+42
-1.0916353e+43
-1.1470574e+43
-9.7749282e+42
-1.0174306e+43
-1.1237773e+43
-9.9753527e+42
-1.117729e+43
-9.8057957e+42
2.9575988e+42
-8.2199254e+41
1.2465312e+42
-1.4594471e+43
-3.3924748e+41
5.59724e+41
2.4161319e+42
-2.7295893e+42
-2.849468e+42
-3.9023941e+42
-3.6623829e+42
-2.6759105e+42
-7.8679703e+41
2.178837e+42
-3.7887639e+42
-2.7862239e+42
-2.7498116e+42
-3.6911455e+42
-1.4208211e+42
-1.4595562e+43
-2.7858054e+42
-8.028108e+41
2.3120289e+42
-3.6671207e+42
-2.718495e+42
-2.8350735e+42
-3.8744083e+42
-1.1967985e+42
-1.4597925e+43
-2.5814949e+42
2.041622e+42
-2.7540397e+42
-2.7292519e+42
-3.7245077e+42
-3.6111632e+42
-1.4129987e+43
-5.0747415e+41
-2.9167201e+42
3.8485534e+41
2.4359251e+42
-2.8541656e+42
-2.772219e+42
-3.7303652e+42
-3.9131585e+42
-2.7493077e+42
2.2084265e+42
-3.8163846e+42
-2.8098144e+42
-2.7501736e+42
-3.6791373e+42
-9.0044364e+41
1.0075232e+42
-1.4889818e+43
-1.4549835e+43
3.0814915e+42
-5.5277712e+41
-1.4762612e+43
-6.6604779e+40
2.48735e+42
-2.766007e+42
-2.866994e+42
-3.7023454e+42
-3.9318669e+42
-2.8845491e+42
2.3682783e+42
-2.8386003e+42
-2.7831919e+42
-3.8585056e+42
-3.7481401e+42
-1.4867456e+43
-4.4407741e+42
-6.7711941e+43
5.5811961e+42
-3.2086204e+42
-2.557956e+42
5.1625589e+42
-6.7594163e+43
-6.5556093e+42
-3.258611e+42
-2.7343686e+42
4.8577067e+42
5.5745003e+42
3.787568e+42
-8.4114868e+43
-5.5217382e+42
4.3289515e+42
-3.6971581e+42
-4.0736675e+42
3.7053996e+42
-8.333577e+43
4.499625e+42
-4.0320628e+42
-3.3969847e+42
4.0692065e+42
-6.3372082e+43
-3.926528e+42
3.7041247e+42
-4.4142066e+42
-3.8239541e+42
3.3394994e+42
-3.784207e+42
3.1314319e+42
3.4719338e+42
-4.0051091e+42
-4.5406848e+42
-7.9205595e+43
6.4337968e+43
-4.9049844e+42
-4.4980958e+42
-4.2063045e+42
3.4851656e+42
-8.1818187e+43
2.969089e+42
-5.2335172e+42
-4.448653e+42
-4.0937834e+42
3.6102075e+42
3.0486598e+42
-2.4017094e+43
-2.7201005e+44
1.6425828e+43
1.4956521e+43
-2.2427544e+43
-1.9046499e+43
-6.3501736e+43
-4.5703656e+42
8.3338401e+43
3.6397202e+42
-4.5265769e+42
-3.8943756e+42
3.1937305e+42
-4.3533124e+42
-4.5604465e+42
-4.0110533e+42
3.0573896e+42
3.450229e+42
-7.9983619e+43
6.2750813e+43
-4.4117806e+42
-4.0773145e+42
3.5238569e+42
-7.961221e+43
2.9085988e+42
8.143359e+43
-4.3874298e+42
3.6132096e+42
-3.9705804e+42
2.9490851e+42
-2.7014288e+44
1.6719354e+43
1.3617929e+43
-2.2430242e+43
-1.9597584e+43
5.625008e+42
-6.5350881e+43
5.3901127e+42
-3.3393377e+42
-2.7192271e+42
4.4979812e+42
-6.6895577e+43
5.4158917e+42
-3.3392498e+42
-2.5905749e+42
4.8372677e+42
-4.3776002e+42
4.4054932e+42
-3.3661024e+42
-4.0724709e+42
3.8691601e+42
-4.0507034e+42
-3.574928e+42
4.2699188e+42
3.5302615e+42
-2.339284e+43
-3.4334638e+44
-1.4518933e+43
1.6409011e+43
1.4018651e+43
-1.8385171e+43
-3.4148865e+44
-1.5024851e+43
1.6027885e+43
1.2761016e+43
-1.8008909e+43
2.6060216e+43
-2.4360452e+44
-2.4236053e+44
-2.1733459e+43
-1.6698832e+43
1.135399e+42
-7.0771396e+41
7.89303e+41
-8.4761418e+41
6.931852e+41
2.6531806e+44
2.8895259e+43
-4.2634411e+43
2.7174185e+43
1.8072718e+43
1.5063562e+43
-1.3050791e+43
-1.6784084e+43
5.8528359e+43
-5.8931491e+42
7.6749735e+42
-7.2648758e+43
3.642999e+42
-3.6790695e+42
-4.6196663e+42
2.9279775e+42
-5.5457618e+42
7.6585034e+43
7.7202732e+42
3.2895279e+42
-4.2789467e+42
-5.235408e+42
2.7285964e+42
-5.9748657e+43
7.8699614e+43
3.3890522e+42
-4.6359418e+42
-5.103833e+42
2.7768272e+42
-7.4631596e+43
-3.9693431e+42
3.4049469e+42
2.8398201e+42
5.3349957e+42
6.1129111e+43
-4.9773797e+42
-4.3933021e+42
3.1955317e+42
2.5327906e+42
5.9459559e+43
7.4172036e+42
-4.2112877e+42
-5.0702086e+42
3.160935e+42
2.6411608e+42
-5.3436645e+42
6.7711765e+42
-4.1325029e+42
-4.8686947e+42
3.0295913e+42
2.6058719e+42
-4.362663e+42
-4.804943e+42
3.114826e+42
2.5063767e+42
-1.2998306e+43
1.0888106e+42
-7.5548679e+41
7.3584911e+41
-8.952807e+41
6.4815897e+41
7.3489355e+41
-1.6742681e+43
-8.2394341e+41
-9.01038e+41
7.0663103e+41
-1.6467759e+43
9.167384e+41
-7.636076e+41
7.2229125e+41
-8.9513969e+41
6.365251e+41
7.2097842e+41
-1.3084851e+43
-8.4807397e+41
6.9918826e+41
-9.2399579e+41
5.8077313e+41
-1.291492e+43
8.6973972e+41
-7.9019027e+41
7.0246872e+41
-9.0967061e+41
6.3342983e+41
-6.3992649e+41
7.809495e+41
-1.6291516e+43
6.2846356e+41
5.6144604e+41
-9.0410435e+41
-1.0152098e+42
-8.8714704e+41
-1.663301e+43
6.3042657e+41
5.0337573e+41
-1.0299187e+42
-9.6317878e+41
-1.6696293e+43
6.145897e+41
5.3617615e+41
-9.3074325e+41
-1.042262e+42
-1.0838235e+42
1.2618047e+42
1.3460748e+42
1.2928458e+42
-1.8001246e+43
-1.8076507e+41
-3.2191405e+41
1.3429473e+42
1.1717964e+42
-1.7505931e+43
-3.1586061e+41
-1.99297e+41
-9.518451e+41
1.146428e+42
1.3407848e+42
1.3602746e+42
-1.7980583e+43
-1.6350837e+41
-2.9446303e+41
1.3579468e+42
1.2035979e+42
-1.8052559e+43
-2.1530889e+41
-3.2507581e+41
-7.9113347e+41
9.6452372e+41
1.3702471e+42
1.3339183e+42
-1.8431274e+43
-3.0465325e+41
-1.8658556e+41
1.3764356e+42
1.2213487e+42
-1.7966293e+43
-3.031825e+41
-2.089321e+41
-7.3295491e+41
1.3840745e+42
1.3898428e+42
-1.8214494e+43
-1.5477538e+41
-2.6151774e+41
1.3970579e+42
1.2728809e+42
-1.8361788e+43
-2.0660974e+41
-2.8624442e+41
3.5484105e+43
-4.3277841e+42
-9.0565442e+42
-3.400974e+44
-4.7963305e+42
-8.7397245e+42
-3.4329464e+44
-1.0984224e+43
-5.2902828e+42
5.9975693e+42
5.6541877e+42
4.7530685e+42
-7.0805326e+43
-5.8826239e+41
-1.8603296e+40
-7.1289965e+42
8.0290424e+42
-7.8700121e+43
1.0098917e+43
-7.9274189e+43
6.0083549e+42
5.3352272e+42
-7.0378667e+43
-6.0992279e+40
-6.8544233e+41
-2.8879176e+42
-9.6180547e+41
2.6696346e+42
1.0298018e+42
-1.2667756e+43
-1.1627636e+42
1.3743579e+42
-1.2635252e+43
2.7590622e+42
-1.2536472e+43
2.5999001e+42
-1.2564991e+43
4.1407308e+41
8.7650195e+41
-2.4376776e+42
-2.4283672e+42
-1.8907363e+42
-1.8824227e+42
8.5434241e+41
-1.7155688e+42
-1.7411502e+42
-1.70116e+42
-1.7445518e+42
-2.9938527e+41
8.9930731e+41
-1.6830718e+42
-1.7434799e+42
-1.7908228e+42
-1.8362745e+42
9.5822793e+41
-2.5154518e+42
-2.3811033e+42
-1.8381039e+42
-1.9560502e+42
-2.9433032e+42
-6.0417278e+41
2.7023802e+42
9.0660976e+41
-1.2685801e+43
-7.935035e+41
1.2497285e+42
-1.2699047e+43
2.8598829e+42
-1.272567e+43
2.6707872e+42
-1.2728669e+43
-5.2951929e+41
2.8141504e+41
7.8651422e+41
-2.5287641e+42
-2.3923035e+42
-1.8448207e+42
-1.9554121e+42
3.6446129e+41
-2.4573902e+42
-2.4659328e+42
-1.9042873e+42
-1.9099218e+42
-4.6649429e+41
6.7001441e+41
-1.7017883e+42
-1.8018885e+42
-1.8643666e+42
-1.76681e+42
-1.802124e+42
-1.7900449e+42
-1.745048e+42
-1.7482296e+42
-5.9024409e+42
1.0812932e+43
-7.8797889e+43
1.0261484e+43
-7.9845257e+43
3.9346003e+42
6.0255078e+42
5.4745864e+42
-7.1003942e+43
-6.0740428e+41
-1.0296065e+41
5.9360142e+42
5.7159915e+42
-7.0950515e+43
-5.2011343e+41
-7.5031446e+40
-5.7905476e+41
2.9481839e+42
-1.2706927e+43
2.8859216e+42
-1.0568189e+42
-1.2741555e+43
3.8212613e+41
-7.2701538e+41
2.6863347e+42
-1.2734438e+43
2.7015887e+42
-1.2649635e+43
-2.9301195e+42
-7.4150649e+41
2.6973545e+42
-1.2739172e+43
-9.4430705e+41
-1.2752038e+43
2.822344e+42
-1.2650165e+43
2.6502311e+42
-1.2662015e+43
-2.9264095e+41
2.7257963e+41
5.0837154e+41
-1.8442965e+42
-2.5214295e+42
-2.3993688e+42
-1.9379789e+42
2.9618077e+41
-6.0544109e+41
-2.4649724e+42
-2.4853571e+42
-1.9126552e+42
-1.9046346e+42
-1.7723647e+41
-1.7164571e+42
-1.7863418e+42
-1.8050041e+42
-1.8742937e+42
-4.6625749e+41
-1.7810769e+42
-1.847428e+42
-1.8254818e+42
-1.7668395e+42
2.6293291e+41
-6.2442155e+41
-2.4172658e+42
-2.5393638e+42
-1.8648763e+42
-1.9628645e+42
-5.3698223e+41
-1.7274785e+42
-1.8003924e+42
-1.8120693e+42
-1.8658297e+42
3.7421881e+41
-2.4538227e+42
-2.4775027e+42
-1.9071386e+42
-1.9007206e+42
-1.7568961e+42
-1.746659e+42
-1.8019899e+42
-1.7845733e+42
-3.9298051e+40
-6.5111439e+41
9.3082678e+40
7.0451547e+41
-5.8672265e+41
-5.6091083e+41
-8.2085398e+41
-8.6828688e+41
-6.2841105e+41
-1.0155563e+41
6.8835567e+41
-5.7551826e+41
-5.7737671e+41
-8.5707336e+41
-8.3718604e+41
1.2298479e+41
-2.1534124e+41
-3.0976635e+42
2.1731213e+41
-3.0475498e+42
6.2330365e+41
-1.889865e+41
-3.0804752e+42
-1.2136113e+41
6.9398299e+41
-5.5982721e+41
-8.2244494e+41
-5.8603729e+41
-8.6878798e+41
-5.9131617e+41
-1.3920208e+41
6.4338598e+41
-8.4283005e+41
-5.651121e+41
-5.61053e+41
-8.1504465e+41
-2.5259695e+41
-3.0152529e+42
6.324755e+41
-1.5846825e+41
-3.0476496e+42
-8.4217032e+40
6.8809179e+41
-5.8715802e+41
-5.5612365e+41
-8.1559366e+41
-8.7022043e+41
-6.0561689e+41
-1.5698549e+41
6.5621084e+41
-5.6676289e+41
-5.6700562e+41
-8.4980169e+41
-8.2932736e+41
-2.6947976e+41
-3.0761674e+42
-1.5300321e+41
-6.1199384e+41
6.7326753e+41
-5.5453571e+41
-5.8451721e+41
-8.1841306e+41
-8.6182817e+41
-5.8671904e+41
6.2608253e+41
-5.6272689e+41
-5.6195732e+41
-8.4096709e+41
-8.1232546e+41
-2.1808223e+41
-3.0449513e+42
-2.9709901e+42
3.4372994e+40
-6.2714184e+41
-1.0139555e+41
6.8231087e+41
-5.7103621e+41
-5.7575559e+41
-8.6005613e+41
-8.3546392e+41
-6.544588e+41
8.2840924e+40
7.1521144e+41
-5.9822433e+41
-5.7398435e+41
-8.268979e+41
-8.8233254e+41
-1.1063009e+41
1.8022355e+41
-3.0841699e+42
-2.0403484e+41
-3.1129774e+42
6.3271185e+41
-1.768421e+41
-3.0998534e+42
-1.0857568e+41
6.9242922e+41
-5.6572108e+41
-5.9141894e+41
-8.3126926e+41
-8.7394233e+41
-6.0702136e+41
6.5186874e+41
-5.6616882e+41
-5.7202758e+41
-8.5114813e+41
-8.2116921e+41
-3.0243399e+42
4.3923645e+38
-6.6729459e+41
7.1177753e+41
-5.9479785e+41
-5.6904795e+41
-8.2642643e+41
-8.7815473e+41
-6.5494777e+41
-4.5873888e+40
7.1112831e+41
-8.6864828e+41
-5.87371e+41
-5.7832814e+41
-8.4251341e+41
-8.2629932e+40
-3.073285e+42
-1.488501e+41
-3.1307516e+42
-7.475204e+40
-6.492574e+41
7.1805426e+41
-5.9445507e+41
-5.7103422e+41
-8.370571e+41
-8.759722e+41
-6.2766211e+41
6.8614525e+41
-5.6881173e+41
-5.7733668e+41
-8.6064944e+41
-8.2678794e+41
-1.3875981e+41
-3.1207951e+42
-3.0614574e+42
-1.2938944e+43
9.3382894e+41
7.1379708e+41
-8.2929057e+41
-9.3780832e+41
6.5051768e+41
9.2191634e+41
6.9892131e+41
-8.9359598e+41
5.9772311e+41
-1.4254454e+43
-7.3494269e+41
-4.3036162e+41
1.2121456e+42
-5.4220102e+41
1.1546184e+42
6.1242756e+41
1.4250507e+43
-7.8896749e+41
-1.7834904e+43
-6.5040809e+41
-7.1170589e+41
1.0103777e+42
9.0405642e+41
-1.7706214e+43
-5.9616062e+41
1.0312845e+42
-7.0666836e+41
9.6957248e+41
-9.4875666e+41
-4.7568064e+41
1.2039412e+42
-5.5063055e+41
1.0874627e+42
6.4473946e+41
1.4008387e+43
-1.7435087e+43
-9.9940089e+41
-6.4796918e+41
-7.1521651e+41
1.0050218e+42
8.8091804e+41
1.4292729e+43
-1.7784803e+43
-6.1643142e+41
1.0127654e+42
-7.2530681e+41
9.4245121e+41
7.75058e+41
-1.1024705e+42
-4.7364034e+41
-5.55548e+41
1.1968901e+42
1.0595133e+42
1.1841846e+42
-4.611245e+41
-5.7230525e+41
1.1115028e+42
-1.3619696e+43
-7.0553423e+41
7.9215037e+41
-7.192163e+41
8.4450268e+41
-8.2674632e+41
7.7868966e+41
-6.1389826e+41
7.0937785e+41
-1.7261933e+43
-7.5631393e+41
-8.5947242e+41
7.6639124e+41
6.989953e+41
1.3394305e+43
-1.6920002e+43
-9.4269034e+41
-7.8458861e+41
-8.4822456e+41
7.6639391e+41
6.4724234e+41
-1.0559473e+42
-7.419484e+41
-8.1367597e+41
8.4719757e+41
7.234594e+41
-1.3599567e+43
-6.2055684e+41
-6.9405631e+41
8.6710554e+41
-8.0316145e+41
8.0830875e+41
5.5048364e+41
1.3651132e+43
-1.7342941e+43
-7.8682578e+41
-8.4083792e+41
7.7224943e+41
6.7405487e+41
-1.7113426e+43
-7.2994673e+41
7.9056602e+41
-8.3491096e+41
7.3066933e+41
-7.4302344e+41
-8.0608408e+41
8.5592734e+41
7.5020816e+41
-1.336272e+43
-5.4410623e+41
-7.752867e+41
7.4117534e+41
-8.8127819e+41
6.8699074e+41
4.6120248e+41
1.3456636e+43
-1.7257983e+43
-6.431379e+41
-8.4953603e+41
-8.9800194e+41
7.0481384e+41
6.1179948e+41
-1.7023724e+43
5.7730615e+41
-7.8543506e+41
7.2384191e+41
-8.8792559e+41
6.7046646e+41
-7.3922893e+41
-8.2945224e+41
-8.8496916e+41
7.2965601e+41
6.3308279e+41
4.3247e+41
-1.3412609e+43
-6.4333064e+41
-8.7986815e+41
6.9829911e+41
-9.2917894e+41
6.0766513e+41
-1.3330131e+43
5.4859899e+41
-8.1449983e+41
7.1282099e+41
-9.0797015e+41
6.7186159e+41
-3.5642575e+41
4.5774959e+41
6.4726191e+41
6.0428635e+41
-9.0458805e+41
-1.6779461e+43
-1.0040627e+42
-5.4486038e+41
6.2233435e+41
5.3214172e+41
-1.6928108e+43
-1.0209049e+42
-9.7032249e+41
-4.1807241e+42
-6.0461336e+43
4.8386787e+42
3.2586619e+42
2.8520209e+42
-4.1552736e+42
-4.9317955e+42
4.1853187e+41
1.3245168e+43
-6.4459788e+41
6.3014861e+41
5.2698745e+41
-1.6698686e+43
-1.0154415e+42
-9.6020615e+41
1.3460341e+43
6.3338138e+41
5.8037445e+41
-1.7051288e+43
-1.0264728e+42
-9.2897014e+41
-5.0982451e+41
1.7263299e+43
-8.4433736e+41
6.8752719e+41
-9.3355212e+41
6.3906329e+41
-6.2534594e+43
-5.4467813e+42
2.8329971e+42
3.3395686e+42
-4.4494208e+42
-4.7841603e+42
1.6954138e+43
-7.405555e+41
-8.7221193e+41
6.953128e+41
-9.2324342e+41
5.9099226e+41
5.0029991e+41
1.3218875e+43
-7.6707945e+41
-8.4364437e+41
6.9991736e+41
-8.9642584e+41
5.9354316e+41
1.3406781e+43
-8.1225419e+41
6.9920315e+41
-9.0831246e+41
6.4126112e+41
-6.4719061e+41
-8.005627e+41
7.1359759e+41
-9.0219374e+41
6.5217595e+41
-9.1303846e+41
-8.2540826e+41
7.2257311e+41
-8.9083804e+41
6.0705444e+41
4.3655291e+42
-6.121014e+42
-7.9735282e+43
-5.0479895e+42
-4.4867689e+42
3.3500601e+42
2.7133235e+42
-7.7149621e+43
5.6820989e+42
3.2734501e+42
-4.4524778e+42
-5.1713628e+42
2.6756067e+42
-1.3246606e+43
-7.074055e+41
1.6944981e+43
-7.704511e+41
7.3545121e+41
-8.9278852e+41
6.6350216e+41
6.24788e+41
1.3330809e+43
-1.7160967e+43
-8.6580905e+41
-8.4097286e+41
-9.0918457e+41
7.0426415e+41
5.9049707e+41
-1.6947917e+43
-7.8732602e+41
7.1343464e+41
-9.0408917e+41
6.4262592e+41
-9.6393822e+41
1.7147501e+43
-8.1709129e+41
-8.926192e+41
7.2935885e+41
6.1392643e+41
4.9012224e+41
1.3339286e+43
-7.1826809e+41
6.3047497e+41
5.2253235e+41
-1.684238e+43
-1.0247754e+42
-9.574377e+41
1.3255848e+43
6.3910509e+41
5.7831978e+41
-1.6713119e+43
-1.0209331e+42
-9.0474896e+41
5.7267442e+41
-8.1296077e+41
-8.7014338e+41
6.9531257e+41
-9.3489963e+41
5.8572645e+41
-8.1773882e+41
6.9565721e+41
-9.2484986e+41
6.3721017e+41
-4.9844055e+42
-6.078919e+43
2.8191326e+42
3.2854063e+42
-4.1065335e+42
-4.935456e+42
5.3514806e+41
1.308272e+43
6.5001992e+41
5.322013e+41
-1.6500496e+43
-9.9885766e+41
-9.315674e+41
1.3351073e+43
6.4782825e+41
5.7545227e+41
-1.6905761e+43
-1.0206355e+42
-9.0839159e+41
-6.2758099e+41
1.7121395e+43
-8.260656e+41
6.9770734e+41
-9.3151114e+41
6.2802642e+41
-6.1280081e+43
2.7566695e+42
3.3976986e+42
-4.3413709e+42
-4.740425e+42
1.6697853e+43
-8.4574689e+41
7.0550065e+41
-9.1020814e+41
5.8608035e+41
6.3833712e+41
1.3019855e+43
-8.2242254e+41
7.0731294e+41
-8.9597769e+41
5.8005797e+41
-1.3281754e+43
-8.0818247e+41
1.7063032e+43
-7.8182343e+41
7.2429261e+41
-9.0536391e+41
6.3907403e+41
-7.9289722e+41
7.1248675e+41
-9.0899338e+41
6.3099277e+41
1.6641165e+43
-8.0725498e+41
7.2385429e+41
-8.9546441e+41
5.8727009e+41
4.9182333e+42
-7.7533866e+43
-4.5962009e+42
-5.01308e+42
3.2862339e+42
2.6455598e+42
-7.7744526e+43
3.1251118e+42
-4.4973329e+42
-5.147068e+42
2.6742628e+42
-1.4012088e+43
-1.0789981e+42
1.2566358e+42
-4.4344555e+41
1.1762416e+42
-5.8426645e+41
1.0747911e+42
8.7994175e+41
1.3747063e+43
-1.7125312e+43
-6.3025958e+41
-7.2353535e+41
1.0024058e+42
8.4939682e+41
1.0842181e+42
-1.7515268e+43
-6.0116205e+41
1.0080631e+42
-7.3490924e+41
9.0768976e+41
-4.594139e+41
1.179252e+42
-5.6888671e+41
1.0157437e+42
-1.404249e+43
-9.2928494e+41
-4.3144153e+41
1.1893598e+42
-5.6309236e+41
1.1097904e+42
7.9930543e+41
1.4061826e+43
-1.7619484e+43
-6.4311985e+41
1.0019925e+42
-7.260869e+41
8.7053989e+41
-1.747105e+43
-5.9326447e+41
1.0174614e+42
-7.2212268e+41
9.3581678e+41
-4.7365632e+41
-5.7250332e+41
1.1812364e+42
1.0388097e+42
-1.3426572e+43
-8.1538694e+41
-6.8861339e+41
-8.1651181e+41
8.5193299e+41
7.7364949e+41
-7.0573987e+41
-7.2339362e+41
7.8120227e+41
-8.4445251e+41
7.0200223e+41
1.3503659e+43
-9.2865435e+41
-7.7636366e+41
-8.4918569e+41
7.7027358e+41
6.4956375e+41
-1.0727086e+42
-7.3553612e+41
-8.215668e+41
8.4869197e+41
7.1906948e+41
7.6600753e+41
1.3181782e+43
-7.6682403e+41
-8.5084901e+41
7.6839867e+41
6.2734789e+41
1.3457571e+43
-7.3513398e+41
-8.5872692e+41
7.7732155e+41
6.8442671e+41
-9.1131963e+41
-7.0238288e+41
8.3926939e+41
-8.3301966e+41
7.4696816e+41
-7.2441661e+41
-8.2191527e+41
8.4606098e+41
6.961868e+41
2.6949859e+44
-2.0371949e+43
-3.0961611e+44
2.635998e+43
-4.3676247e+43
-2.1986036e+43
2.5244176e+43
-1.3085954e+43
1.7614646e+43
1.4886426e+43
-1.6684636e+43
2.7079331e+44
-3.0268639e+44
-4.5307883e+43
1.8001262e+43
1.4465203e+43
-1.4323244e+43
-1.5689799e+43
5.8406734e+43
-5.4573342e+42
6.7605726e+42
-7.211838e+43
3.5166479e+42
-3.8406743e+42
-4.6819414e+42
2.8954457e+42
-4.6829716e+42
6.3126031e+42
3.1576398e+42
-4.5085106e+42
-5.3258445e+42
2.7132054e+42
-5.997152e+43
-6.5862541e+42
3.3861269e+42
-4.73892e+42
-5.2194079e+42
2.7303776e+42
-7.0465366e+42
-7.4121014e+43
-4.071272e+42
-4.673991e+42
3.3800138e+42
2.7187773e+42
5.9003663e+43
-5.6120759e+42
-7.3114343e+43
-4.7148382e+42
-3.8566373e+42
3.3980797e+42
2.8247687e+42
-5.0174506e+42
-4.5993953e+42
-5.354459e+42
3.0313974e+42
2.6406755e+42
-5.8250799e+43
-4.6280148e+42
-5.1871552e+42
3.3399228e+42
2.6560204e+42
-7.1651743e+43
-4.5810902e+42
-3.9306419e+42
3.3552343e+42
2.6114325e+42
2.6227587e+42
-3.3394346e+42
2.2927894e+41
-1.4232045e+41
-1.6843375e+41
1.4021257e+41
1.5772793e+41
2.4345514e+41
-1.3637227e+41
1.6786976e+41
1.5193374e+41
-1.6268081e+41
2.5899396e+42
-1.6053732e+41
-3.3161668e+42
2.1835488e+41
-1.7369126e+41
-1.478844e+41
1.497075e+41
1.3256418e+41
-1.6636678e+41
2.340855e+41
-1.7134002e+41
-1.4511507e+41
1.5259808e+41
1.3594645e+41
2.6174761e+42
-3.3731849e+42
1.2543826e+41
-1.5738967e+41
1.4948232e+41
-1.7240791e+41
1.5385132e+41
-1.5407313e+41
-1.6994403e+41
1.2907043e+41
6.5131538e+43
6.5001223e+43
2.9209388e+43
5.7285465e+43
5.4867305e+43
-6.2897115e+42
-5.6623724e+43
7.8216518e+42
3.8374226e+42
3.1345187e+42
-2.7708293e+42
-3.6853581e+42
-5.8694796e+43
3.8392291e+42
-3.1760679e+42
-5.8825023e+42
8.2529819e+42
-6.9134528e+42
-7.4470968e+42
-1.3350935e+43
-1.271838e+42
1.7381425e+43
1.5492547e+42
8.00587e+41
-9.7082258e+41
-1.165293e+42
6.7062257e+41
-1.3657692e+42
1.7220642e+42
-1.6552248e+43
7.3685372e+41
-9.9143274e+41
-1.1843743e+42
6.049057e+41
1.3557197e+43
-1.6363019e+42
-1.6974561e+43
-1.183129e+42
-1.0462619e+42
7.3495933e+41
5.6266454e+41
1.7560867e+43
-1.4594144e+42
7.391325e+41
-1.056832e+42
-1.1735133e+42
6.030977e+41
-1.3437095e+43
-9.0625644e+41
1.7037773e+43
1.242842e+42
7.2700662e+41
-9.3243486e+41
-1.0751674e+42
6.3286219e+41
-1.0668492e+42
1.4576402e+42
7.1744746e+41
-9.45696e+41
-1.1210915e+42
6.2393232e+41
1.3465751e+43
-1.2544598e+42
-1.1421569e+42
-1.0501239e+42
6.7697104e+41
5.6263064e+41
-1.1153273e+42
1.7283317e+43
6.6249873e+41
-1.0218749e+42
-1.0871621e+42
5.6664104e+41
-1.3528626e+43
-9.3077247e+41
1.7417793e+43
7.2333051e+41
-9.4225484e+41
-1.1026944e+42
6.3695296e+41
-1.0120877e+42
-1.7480177e+43
6.7976758e+41
-1.0393286e+42
-1.166132e+42
5.9893127e+41
1.3424391e+43
-1.7452466e+43
-1.1065046e+42
-9.7514641e+41
7.5878098e+41
5.9084045e+41
1.7095719e+43
6.9538028e+41
-9.720016e+41
-1.0436406e+42
5.8339066e+41
1.3464494e+43
-1.6862547e+43
7.1041102e+41
-1.0204924e+42
-1.2094247e+42
5.789409e+41
-1.1364395e+42
-1.2100709e+42
-1.0357228e+42
7.0103134e+41
6.1105025e+41
7.9299137e+41
-1.0136588e+42
7.2240263e+41
1.3100677e+43
-1.0257586e+42
-9.6357401e+41
6.5743533e+41
5.4907461e+41
1.3400334e+43
9.7954768e+41
-1.0327835e+42
-9.079578e+41
6.8963848e+41
6.1811694e+41
-7.2403081e+41
9.7686578e+41
1.7023141e+43
6.529187e+41
-9.1290695e+41
-1.0163102e+42
5.9619116e+41
1.6588486e+43
6.4801147e+41
-9.3490126e+41
-9.9682768e+41
5.3849863e+41
-7.6960626e+41
1.3125352e+43
1.0471392e+42
6.9551324e+41
-8.7701201e+41
-1.0195355e+42
6.2463517e+41
1.3276938e+43
-1.0544197e+42
-9.941427e+41
6.4542066e+41
5.4925405e+41
-7.3536825e+41
1.6625493e+43
9.6962479e+41
-9.8698722e+41
-8.6731369e+41
6.6801831e+41
6.1282103e+41
1.6925092e+43
6.4906609e+41
-9.5485454e+41
-1.0118522e+42
5.5214536e+41
-6.5204699e+41
1.2825622e+43
8.5785781e+41
6.6966968e+41
-8.5832334e+41
-9.6349102e+41
6.1370278e+41
1.2994648e+43
-8.7165148e+41
-9.8560646e+41
-9.2737279e+41
6.4650541e+41
5.4782852e+41
-6.6840151e+41
8.4897361e+41
-9.653129e+41
-8.5151487e+41
6.284766e+41
5.714771e+41
-9.4690561e+41
6.2298807e+41
-9.1701729e+41
-9.7972556e+41
5.1977027e+41
-6.3832243e+41
1.3056206e+43
6.5561262e+41
-8.8553443e+41
-9.9030688e+41
5.9117389e+41
1.2788548e+43
-9.8533376e+41
-9.177854e+41
6.3624479e+41
5.2265677e+41
-7.7918388e+41
-9.9304053e+41
-8.7119354e+41
6.2126123e+41
5.4998975e+41
6.1183901e+41
-9.1203015e+41
-9.8551286e+41
4.9251383e+41
2.5958829e+42
-1.579807e+41
-3.3496259e+42
2.1344458e+41
1.2949694e+41
-1.5341445e+41
1.4635555e+41
-1.7964477e+41
-1.5988618e+41
2.2384055e+41
-1.5150424e+41
1.4845748e+41
1.3190116e+41
-1.7724333e+41
2.6205227e+42
-3.4027341e+42
-1.9571029e+41
-1.7860403e+41
1.211055e+41
-1.6327719e+41
1.4543687e+41
-1.6051816e+41
1.4972929e+41
-1.7672598e+41
1.2566017e+41
-1.4618516e+41
2.668846e+42
1.8316822e+41
-3.4564078e+42
-1.6102488e+41
1.4600268e+41
1.2719762e+41
-1.855387e+41
-3.379301e+42
-1.815942e+41
-1.6683819e+41
1.4322532e+41
1.1739757e+41
1.9091587e+41
3.4102862e+42
1.2872824e+41
-1.6024747e+41
1.4467548e+41
-1.8311493e+41
2.6330114e+42
-1.5114558e+41
-3.391676e+42
2.0128645e+41
1.3191534e+41
-1.5449552e+41
1.4866341e+41
-1.8116642e+41
-1.5385645e+41
2.1345152e+41
-1.5367619e+41
1.4800443e+41
1.3139091e+41
-1.7963695e+41
2.6622167e+42
-3.4531951e+42
1.2374025e+41
-1.6416641e+41
1.4848708e+41
-1.8019901e+41
-1.6286098e+41
1.4905062e+41
-1.7789009e+41
1.2476769e+41
-1.5912577e+41
1.4278343e+41
1.2497587e+41
-1.8318765e+41
2.7173221e+42
-1.3157773e+41
1.6970488e+41
-3.5410345e+42
-1.601974e+41
-1.8447499e+41
1.4942408e+41
1.3276046e+41
-1.475889e+41
1.8174669e+41
-1.8698811e+41
1.4594684e+41
1.2933548e+41
-1.6234889e+41
2.665764e+42
-3.4587369e+42
-1.917002e+41
-1.6411918e+41
-1.7931129e+41
1.2332509e+41
1.4920536e+41
-1.6814919e+41
-1.8385858e+41
1.4590175e+41
1.2032303e+41
2.6838466e+42
-1.3354234e+41
-3.4716182e+42
1.7301062e+41
1.3675834e+41
-1.5289838e+41
1.5390652e+41
-1.7965278e+41
-1.4095416e+41
1.9128807e+41
-1.5574538e+41
1.4958937e+41
1.3294918e+41
-1.8248745e+41
2.7114658e+42
-3.5339848e+42
1.3085414e+41
-1.6041161e+41
1.5550026e+41
-1.7693127e+41
-1.646253e+41
1.5138741e+41
-1.8118729e+41
1.269183e+41
-1.2950397e+41
-2.7803589e+42
1.7271975e+41
-1.7381223e+41
-1.9682343e+41
1.4036787e+41
1.242571e+41
-2.8142166e+42
-1.6878869e+41
1.438392e+41
1.1916404e+41
-1.8449731e+41
-1.9754299e+41
-1.1520956e+41
1.5228754e+41
-3.524447e+42
-1.9709405e+41
-1.4319292e+41
-3.5924075e+42
-2.0903486e+41
-1.4623644e+41
-2.8168136e+42
-1.7805448e+41
-1.986407e+41
1.3822636e+41
1.2212297e+41
-2.7644251e+42
-1.996148e+41
1.3820408e+41
1.122492e+41
-1.8834017e+41
-1.9967097e+41
1.2137014e+41
-1.6756346e+41
-3.511695e+42
-2.364546e+41
-3.5887125e+42
-2.1310255e+41
-1.5050624e+41
-2.7819968e+42
3.4715108e+42
-1.7840806e+41
-2.0055709e+41
1.3548002e+41
1.1945233e+41
-2.8034229e+42
1.3979896e+41
1.1425743e+41
-1.8574438e+41
-1.9853308e+41
-1.3036961e+41
-3.5321768e+42
-2.1775665e+41
-3.5822165e+42
-2.2600826e+41
1.2921348e+41
-1.5704998e+41
1.455472e+41
-1.8284835e+41
-1.9016066e+41
2.360367e+41
2.8349765e+41
2.8337796e+41
-3.6999504e+42
-5.7662669e+40
-8.35527e+40
-2.4683548e+41
2.8880655e+41
2.5903338e+41
-3.7356687e+42
-6.7303948e+40
-8.6273357e+40
1.9506483e+41
2.9223756e+41
2.5528536e+41
-3.6189855e+42
-6.1427308e+40
-8.0992058e+40
2.8611665e+41
2.7576599e+41
-3.7153787e+42
-8.3960311e+40
-5.8562221e+40
-1.6325993e+41
2.1142967e+41
2.901616e+41
2.8674128e+41
-3.7037939e+42
-5.4188442e+40
-7.8147975e+40
-2.0686801e+41
2.9341032e+41
2.6952434e+41
-3.7645166e+42
-6.5115396e+40
-8.1820756e+40
-1.7096251e+41
2.8297681e+41
2.8204798e+41
-3.7504229e+42
-6.1672334e+40
-8.4618682e+40
2.8765776e+41
2.5456889e+41
-3.6682706e+42
-6.5429696e+40
-8.3780636e+40
1.4450799e+41
-1.854822e+41
2.9240369e+41
2.6627795e+41
-3.7847908e+42
-6.8280577e+40
-8.2266164e+40
1.7426762e+41
2.8800678e+41
2.921202e+41
-3.7448099e+42
-7.7349281e+40
-5.8482375e+40
1.5207572e+41
2.9278176e+41
2.6204043e+41
-3.6804594e+42
-6.3587965e+40
-7.8943059e+40
2.9012989e+41
2.8632616e+41
-3.7764648e+42
-8.1611114e+40
-6.0571972e+40
-1.2581642e+41
2.9041389e+41
2.9870719e+41
-3.734177e+42
-7.2257633e+40
-5.4077596e+40
-1.5049346e+41
2.9873359e+41
2.7665254e+41
-3.8027057e+42
-7.5678179e+40
-6.4594131e+40
-1.2255672e+41
2.9168891e+41
2.886497e+41
-3.7944124e+42
-6.1601969e+40
-7.9665491e+40
2.9866821e+41
2.6696754e+41
-3.7201394e+42
-7.7154935e+40
-6.4332121e+40
2.9912906e+43
2.4810277e+43
2.1102303e+43
-3.4260601e+44
-1.0388916e+43
-1.4038332e+43
2.4612128e+43
2.1359846e+43
2.5457981e+43
-3.438842e+44
-1.415973e+43
-1.0731567e+43
-7.5247811e+42
-4.5415678e+42
4.2056254e+42
5.7575706e+42
6.3207138e+42
-7.2239153e+43
-1.1225845e+42
-1.6611415e+42
7.7810863e+41
-1.0712547e+42
3.1629866e+42
-1.6183768e+43
3.2723807e+42
9.78107e+41
-1.6190027e+43
-7.2765184e+42
8.5110018e+42
-6.2649104e+43
7.241358e+42
-6.2943244e+43
5.6195335e+42
6.2243768e+42
-7.1519958e+43
-1.1843843e+42
-1.7528597e+42
-9.0703693e+41
3.213536e+42
-1.6073995e+43
3.1055449e+42
-1.605037e+43
-7.1909193e+41
1.1733659e+42
1.23518e+42
6.8387626e+41
-3.6021216e+42
-3.4891426e+42
-2.6216088e+42
-2.6749198e+42
3.1350308e+41
2.4674302e+41
1.2486969e+42
1.1358399e+42
-3.5233293e+42
-3.5329428e+42
-2.6206557e+42
-2.6667184e+42
3.0487385e+41
2.4558978e+41
-1.9425204e+41
6.4945389e+41
2.397184e+41
-1.8838997e+42
6.3662553e+41
-1.877961e+42
1.633703e+41
3.8552166e+41
-4.7859179e+41
-4.7313857e+41
-3.3315876e+41
-3.2627831e+41
3.6491536e+41
1.8892625e+41
-3.1928051e+41
-4.651253e+41
-4.9531841e+41
-3.437142e+41
-2.4165024e+41
1.6837731e+41
-2.2437837e+41
-3.0241013e+41
-3.1243657e+41
-2.2430658e+41
1.5204869e+41
-4.5652142e+41
-2.3089301e+41
-2.3301802e+41
-4.3866706e+41
-2.9200127e+41
1.9229988e+41
-2.9726061e+41
-3.2129991e+41
-2.3619126e+41
-2.1341284e+41
1.6402075e+41
-2.1927723e+41
-2.483394e+41