/*--------------------------------*- C++ -*----------------------------------*\
  =========                 |
  \\      /  F ield         | OpenFOAM: The Open Source CFD Toolbox
   \\    /   O peration     | Website:  https://openfoam.org
    \\  /    A nd           | Version:  7
     \\/     M anipulation  |
\*---------------------------------------------------------------------------*/
FoamFile
{
    version     2.0;
    format      ascii;
    class       volScalarField;
    location    "1000";
    object      pMean;
}
// * * * * * * * * * * * * * * * * * * * * * * * * * * * * * * * * * * * * * //

dimensions      [0 2 -2 0 0 0 0];

internalField   nonuniform List<scalar> 
34356
(
-2.1559957e+92
-2.1651974e+92
-2.1229364e+92
-2.123254e+92
-2.1112401e+92
-2.1099883e+92
-1.9720264e+92
-2.0893411e+92
-2.0926444e+92
-2.1185959e+92
-2.1271318e+92
-2.1207862e+92
-2.1291434e+92
-2.1378537e+92
-2.1364126e+92
-2.1384365e+92
-2.1409506e+92
-2.1387128e+92
-2.141791e+92
-2.1396975e+92
-2.1411572e+92
-2.0229167e+92
-1.9714243e+92
-1.968894e+92
-2.019883e+92
-1.8489478e+92
-1.9363934e+92
-1.9399858e+92
-1.9757005e+92
-1.9727825e+92
-1.8246784e+92
-1.8938975e+92
-1.9990763e+92
-1.9647412e+92
-2.1245815e+92
-2.1261473e+92
-2.127465e+92
-2.1270769e+92
-2.1210711e+92
-2.1129499e+92
-2.110404e+92
-2.1203923e+92
-2.1204299e+92
-2.1339349e+92
-2.1207632e+92
-2.1346909e+92
-2.1149539e+92
-2.1135762e+92
-2.1222986e+92
-2.1229883e+92
-2.1232908e+92
-2.1219853e+92
-2.1370811e+92
-2.1358882e+92
-2.1457929e+92
-2.143269e+92
-2.1435645e+92
-2.1467364e+92
-2.141971e+92
-2.1456923e+92
-2.1409698e+92
-2.1431177e+92
-2.1446247e+92
-2.1441788e+92
-2.1476742e+92
-2.1462831e+92
-2.1474083e+92
-2.145274e+92
-2.145596e+92
-2.1485164e+92
-2.0778043e+92
-2.0784021e+92
-2.0402024e+92
-2.0400241e+92
-2.0032495e+92
-1.9693375e+92
-1.9673277e+92
-2.0027569e+92
-1.8994497e+92
-2.0017399e+92
-1.967466e+92
-1.9650025e+92
-2.0003407e+92
-1.8981911e+92
-2.0758883e+92
-2.0775316e+92
-2.0386233e+92
-2.0374117e+92
-1.8301333e+92
-1.8286367e+92
-1.8719794e+92
-1.8732383e+92
-1.8369459e+92
-1.8373549e+92
-2.0423765e+92
-1.72243e+92
-1.7620208e+92
-1.8325958e+92
-1.8670644e+92
-1.8660546e+92
-1.8310221e+92
-1.8876448e+92
-1.8886955e+92
-1.9236956e+92
-1.9230118e+92
-2.0168213e+92
-1.9996572e+92
-1.9998655e+92
-1.9779056e+92
-1.9783465e+92
-1.9616658e+92
-1.9613156e+92
-1.9601516e+92
-2.1439465e+92
-2.1418654e+92
-2.1445566e+92
-2.1445239e+92
-2.1454852e+92
-2.1448967e+92
-2.1456742e+92
-2.145954e+92
-2.0733699e+92
-2.0764781e+92
-2.1139174e+92
-2.0987303e+92
-2.0953357e+92
-2.1119475e+92
-2.1320577e+92
-2.1210702e+92
-2.120138e+92
-2.1315724e+92
-2.1292083e+92
-2.1348242e+92
-2.1355104e+92
-2.1297387e+92
-2.133722e+92
-2.1221646e+92
-2.122036e+92
-2.1329657e+92
-2.1315282e+92
-2.1306714e+92
-2.1373814e+92
-2.1369142e+92
-2.1010038e+92
-2.0990465e+92
-2.1149573e+92
-2.1158564e+92
-2.1237911e+92
-2.1241763e+92
-2.1350491e+92
-2.1354417e+92
-2.1346553e+92
-2.1236522e+92
-2.1230559e+92
-2.1343973e+92
-2.1334645e+92
-2.1328383e+92
-2.1392087e+92
-2.1389806e+92
-2.1325474e+92
-2.1384511e+92
-2.1321894e+92
-2.1382286e+92
-2.1483445e+92
-2.1487662e+92
-2.1504684e+92
-2.1495733e+92
-2.1499951e+92
-2.1483725e+92
-2.1478143e+92
-2.1487704e+92
-2.1481544e+92
-2.14694e+92
-2.1472161e+92
-2.148744e+92
-2.1465869e+92
-2.1458461e+92
-2.1481143e+92
-2.1465804e+92
-2.1501765e+92
-2.1497532e+92
-2.1510485e+92
-2.1515579e+92
-2.1512066e+92
-2.1494154e+92
-2.1485883e+92
-2.1497767e+92
-2.1504941e+92
-2.1512046e+92
-2.1518239e+92
-2.1529977e+92
-2.1508637e+92
-2.150374e+92
-2.1526581e+92
-2.1514516e+92
-1.9012905e+92
-1.8871061e+92
-2.1147173e+92
-2.0943629e+92
-2.0938675e+92
-2.1154967e+92
-2.0938912e+92
-2.0945355e+92
-2.1144546e+92
-2.1155123e+92
-2.0668661e+92
-2.0453059e+92
-2.0451287e+92
-2.0663229e+92
-2.0667252e+92
-2.0451909e+92
-2.0453319e+92
-2.0668182e+92
-2.0189649e+92
-2.0016324e+92
-2.0016742e+92
-2.0190289e+92
-1.980873e+92
-1.9808734e+92
-1.9644643e+92
-1.9647885e+92
-1.9282339e+92
-1.9636282e+92
-1.9640294e+92
-1.980377e+92
-1.9277685e+92
-1.9800158e+92
-2.0009463e+92
-2.0012079e+92
-2.0190249e+92
-2.018722e+92
-1.8960002e+92
-1.8951495e+92
-2.0179225e+92
-2.0003116e+92
-2.0004269e+92
-2.0178599e+92
-1.9631999e+92
-1.9628638e+92
-1.9795936e+92
-1.9795227e+92
-1.9274353e+92
-1.9623433e+92
-1.9625985e+92
-1.9791558e+92
-1.9248437e+92
-1.9789737e+92
-1.9998283e+92
-2.0176775e+92
-1.9998889e+92
-2.01735e+92
-1.8931129e+92
-1.8945185e+92
-2.1138909e+92
-2.0912745e+92
-2.0926997e+92
-2.1116791e+92
-2.1141053e+92
-2.0931741e+92
-2.0931291e+92
-2.1144598e+92
-2.0657854e+92
-2.0442788e+92
-2.04399e+92
-2.0658608e+92
-2.0431062e+92
-2.0435652e+92
-2.0654025e+92
-2.0643552e+92
-1.7254242e+92
-1.7658342e+92
-1.7236091e+92
-1.7640464e+92
-1.8371038e+92
-1.8721516e+92
-1.8733391e+92
-1.8366502e+92
-1.8352493e+92
-1.8715065e+92
-1.8712133e+92
-1.8353951e+92
-2.0650701e+92
-2.0770479e+92
-2.0406333e+92
-2.0501408e+92
-2.0402363e+92
-2.0498011e+92
-1.6818086e+92
-1.8003819e+92
-1.799505e+92
-1.7659243e+92
-1.7633846e+92
-1.8545927e+92
-1.8393673e+92
-1.8377881e+92
-1.8546269e+92
-1.8738999e+92
-1.8631961e+92
-1.8630717e+92
-1.8743155e+92
-1.8729888e+92
-1.8625827e+92
-1.8607045e+92
-1.8715059e+92
-1.8369272e+92
-1.8538693e+92
-1.8514501e+92
-1.8872129e+92
-1.8885089e+92
-1.9031668e+92
-1.9021316e+92
-1.8894288e+92
-1.8893088e+92
-1.9043123e+92
-1.9039019e+92
-1.9223336e+92
-1.9222053e+92
-1.9389365e+92
-1.9387354e+92
-1.9211538e+92
-1.9206915e+92
-1.9375718e+92
-1.9362511e+92
-2.0170063e+92
-2.0255123e+92
-2.0167261e+92
-2.0251503e+92
-1.9968455e+92
-1.9966443e+92
-2.0041574e+92
-1.9973606e+92
-2.0047039e+92
-1.9971087e+92
-2.0044417e+92
-2.0163204e+92
-1.9761161e+92
-1.9836687e+92
-1.9759363e+92
-1.9833509e+92
-1.9767246e+92
-1.9841874e+92
-1.9765654e+92
-1.9840004e+92
-1.9646808e+92
-1.9644662e+92
-1.9580786e+92
-1.9578651e+92
-1.9642485e+92
-1.9639551e+92
-1.9573741e+92
-1.9576681e+92
-1.963322e+92
-1.9626122e+92
-1.9567885e+92
-1.9560658e+92
-1.9752751e+92
-2.150366e+92
-2.1503634e+92
-2.1486293e+92
-2.1496356e+92
-2.1514934e+92
-2.1518764e+92
-2.1516021e+92
-2.1508899e+92
-2.152795e+92
-2.1528308e+92
-2.151771e+92
-2.1525884e+92
-2.1530976e+92
-2.1536059e+92
-2.1535611e+92
-2.153043e+92
-2.0314999e+92
-2.033986e+92
-2.1019049e+92
-2.1268891e+92
-2.1272498e+92
-2.0730453e+92
-2.0710538e+92
-2.0999493e+92
-2.1259924e+92
-2.1247725e+92
-2.1387042e+92
-2.1379392e+92
-2.1343094e+92
-2.1338718e+92
-2.1365385e+92
-2.1366875e+92
-2.1398146e+92
-2.1441212e+92
-2.1402733e+92
-2.1449574e+92
-2.1411653e+92
-2.1454659e+92
-2.1408583e+92
-2.1457021e+92
-2.1349236e+92
-2.1352061e+92
-2.1376224e+92
-2.1371743e+92
-2.1402424e+92
-2.1395944e+92
-2.1364805e+92
-2.1366561e+92
-2.1389948e+92
-2.1386796e+92
-2.1356734e+92
-2.1361362e+92
-2.1383857e+92
-2.1382157e+92
-2.142625e+92
-2.1425136e+92
-2.1472692e+92
-2.1465303e+92
-2.1469104e+92
-2.145919e+92
-2.1421735e+92
-2.1417031e+92
-2.0753978e+92
-2.0740193e+92
-2.1025928e+92
-2.1279392e+92
-2.1288509e+92
-2.1041722e+92
-2.129306e+92
-2.1291709e+92
-2.1420386e+92
-2.1422507e+92
-2.1414858e+92
-2.1409262e+92
-2.1338412e+92
-2.1409918e+92
-2.1387147e+92
-2.1387245e+92
-2.1406731e+92
-2.1382235e+92
-2.1385336e+92
-2.1405197e+92
-2.1404515e+92
-2.1449934e+92
-2.1490032e+92
-2.1449713e+92
-2.1498897e+92
-2.1448206e+92
-2.1496509e+92
-2.1487792e+92
-2.1444287e+92
-2.1379776e+92
-2.1378253e+92
-2.1401135e+92
-2.139904e+92
-2.1441757e+92
-2.1485449e+92
-2.1439294e+92
-2.1488091e+92
-2.1369753e+92
-2.1374103e+92
-2.1395986e+92
-2.1395023e+92
-2.1434994e+92
-2.143006e+92
-2.1480109e+92
-2.1468032e+92
-2.1469298e+92
-2.1476789e+92
-2.1535469e+92
-2.1541813e+92
-2.146345e+92
-2.1468955e+92
-2.1541478e+92
-2.1532438e+92
-2.146462e+92
-2.1530084e+92
-2.1467325e+92
-2.1536108e+92
-2.1533187e+92
-2.1469764e+92
-2.1461068e+92
-2.1521066e+92
-2.1455432e+92
-2.1459879e+92
-2.1518485e+92
-2.1523796e+92
-2.1448407e+92
-2.1457771e+92
-2.1521649e+92
-2.1511789e+92
-2.1448129e+92
-2.1441454e+92
-2.1509275e+92
-2.1512699e+92
-2.1448512e+92
-2.1427188e+92
-2.1510689e+92
-2.1494783e+92
-2.1473409e+92
-2.1480631e+92
-2.1554556e+92
-2.1544888e+92
-2.1475038e+92
-2.1479849e+92
-2.1551867e+92
-2.1557117e+92
-2.1473521e+92
-2.1474229e+92
-2.1542921e+92
-2.1547951e+92
-2.1471455e+92
-2.1476913e+92
-2.1544018e+92
-2.1533124e+92
-2.1483949e+92
-2.1485928e+92
-2.1553351e+92
-2.156349e+92
-2.1564962e+92
-2.1486747e+92
-2.1479788e+92
-2.1556218e+92
-2.1482926e+92
-2.1483154e+92
-2.1556833e+92
-2.1563096e+92
-2.1483249e+92
-2.1488583e+92
-2.156241e+92
-2.1551548e+92
-1.6406005e+92
-1.9110044e+92
-1.9053734e+92
-1.9050743e+92
-1.9104467e+92
-1.8959809e+92
-1.8905438e+92
-1.8954621e+92
-1.9649709e+92
-1.9278996e+92
-1.9811287e+92
-2.0019219e+92
-1.8965526e+92
-1.7677941e+92
-1.729223e+92
-1.7275847e+92
-1.8725667e+92
-1.8367615e+92
-2.1270546e+92
-2.1346811e+92
-2.1274703e+92
-2.1353929e+92
-2.0991796e+92
-2.0991672e+92
-2.1118739e+92
-2.1115564e+92
-2.0991026e+92
-2.1115188e+92
-2.0991663e+92
-2.1118659e+92
-2.1274359e+92
-2.1354059e+92
-2.1271792e+92
-2.1347034e+92
-2.0989064e+92
-2.0986857e+92
-2.1114916e+92
-2.1109861e+92
-2.099055e+92
-2.111406e+92
-2.0991522e+92
-2.1117058e+92
-2.1269716e+92
-2.1264501e+92
-2.1347502e+92
-2.1338313e+92
-2.1345068e+92
-2.1268911e+92
-2.1271183e+92
-2.1348283e+92
-2.0682355e+92
-2.0806503e+92
-2.0683691e+92
-2.0808652e+92
-2.0431235e+92
-2.0431927e+92
-2.0529122e+92
-2.0530436e+92
-2.0430536e+92
-2.0429503e+92
-2.0529008e+92
-2.0526263e+92
-2.068084e+92
-2.0678324e+92
-2.0806789e+92
-2.0802678e+92
-2.068301e+92
-2.0805883e+92
-2.0683707e+92
-2.0807715e+92
-2.0430881e+92
-2.043171e+92
-2.0530018e+92
-2.0529741e+92
-2.0433627e+92
-2.0531076e+92
-2.0432089e+92
-2.0530854e+92
-2.0682926e+92
-2.0683068e+92
-2.0808229e+92
-2.0807037e+92
-2.0193393e+92
-2.0279427e+92
-2.0192215e+92
-2.027794e+92
-1.9988878e+92
-1.9989108e+92
-2.0064562e+92
-2.0064211e+92
-1.999224e+92
-2.0067263e+92
-1.9989731e+92
-2.0065099e+92
-2.0191037e+92
-2.0191566e+92
-2.0277338e+92
-2.0277449e+92
-1.9781285e+92
-1.9854652e+92
-1.9781921e+92
-1.9854107e+92
-1.9784297e+92
-1.9857812e+92
-1.9782752e+92
-1.9855482e+92
-1.9666365e+92
-1.9663868e+92
-1.9600265e+92
-1.9417328e+92
-1.9598709e+92
-1.96648e+92
-1.9664977e+92
-1.9418603e+92
-1.9600542e+92
-1.9598664e+92
-1.9259287e+92
-1.9262232e+92
-1.9659347e+92
-1.9658318e+92
-1.9406402e+92
-1.9593402e+92
-1.9593144e+92
-1.9661995e+92
-1.9660054e+92
-1.9410274e+92
-1.9595302e+92
-1.9596849e+92
-1.9778962e+92
-1.9852444e+92
-1.9778533e+92
-1.9851706e+92
-1.925356e+92
-1.9256869e+92
-1.9776726e+92
-1.9850935e+92
-1.9776446e+92
-1.9849781e+92
-1.998511e+92
-2.006221e+92
-1.9984394e+92
-2.0060732e+92
-1.9987233e+92
-2.0062955e+92
-1.9986205e+92
-2.0062655e+92
-2.0190848e+92
-2.0277645e+92
-2.0191386e+92
-2.0278677e+92
-2.0190245e+92
-2.0278037e+92
-2.0188674e+92
-2.0276097e+92
-1.8937584e+92
-1.8945187e+92
-1.9083392e+92
-1.9079699e+92
-1.9084572e+92
-1.8941287e+92
-1.8942646e+92
-1.9085902e+92
-2.0185339e+92
-2.0271483e+92
-2.0183899e+92
-2.0269775e+92
-1.9977645e+92
-1.9977995e+92
-2.0053987e+92
-2.0053249e+92
-1.9982017e+92
-2.0057923e+92
-1.9979387e+92
-2.0055504e+92
-2.0181673e+92
-2.0181607e+92
-2.0268183e+92
-2.0267681e+92
-1.965292e+92
-1.9653013e+92
-1.9405502e+92
-1.9588601e+92
-1.9586845e+92
-1.9655802e+92
-1.9652809e+92
-1.9405995e+92
-1.9587567e+92
-1.9589703e+92
-1.9770231e+92
-1.9843592e+92
-1.9771137e+92
-1.9843812e+92
-1.9773545e+92
-1.9847449e+92
-1.9772215e+92
-1.9845199e+92
-1.9256651e+92
-1.9252035e+92
-1.9648309e+92
-1.9648059e+92
-1.9390832e+92
-1.9582893e+92
-1.9581623e+92
-1.9649645e+92
-1.9648357e+92
-1.9396643e+92
-1.9583271e+92
-1.9584288e+92
-1.9767903e+92
-1.98414e+92
-1.9768199e+92
-1.9841636e+92
-1.9241892e+92
-1.9234331e+92
-1.9767101e+92
-1.9842047e+92
-1.9768649e+92
-1.9842866e+92
-1.9974774e+92
-2.0051113e+92
-1.9975163e+92
-2.0049718e+92
-2.0179193e+92
-2.0265741e+92
-2.0179495e+92
-2.0265908e+92
-1.9975407e+92
-2.005103e+92
-1.9975194e+92
-2.0051236e+92
-2.0177737e+92
-2.0264503e+92
-2.0175551e+92
-2.0261385e+92
-1.8918144e+92
-1.8907824e+92
-1.9061113e+92
-1.9051648e+92
-1.9074935e+92
-1.8932211e+92
-1.8930145e+92
-1.9072898e+92
-2.1252223e+92
-2.1327122e+92
-2.1252316e+92
-2.1329166e+92
-2.0967534e+92
-2.0961439e+92
-2.1091401e+92
-2.1081573e+92
-2.097461e+92
-2.1097004e+92
-2.0973922e+92
-2.1098045e+92
-2.1244076e+92
-2.1322571e+92
-2.1234569e+92
-2.1309561e+92
-2.1260257e+92
-2.133479e+92
-2.1264008e+92
-2.1341565e+92
-2.0980166e+92
-2.1105972e+92
-2.0978843e+92
-2.1101406e+92
-2.0982432e+92
-2.1105688e+92
-2.0982896e+92
-2.1108854e+92
-2.1260632e+92
-2.1256885e+92
-2.1339091e+92
-2.1331557e+92
-2.0673517e+92
-2.0673776e+92
-2.0797892e+92
-2.079921e+92
-2.0424443e+92
-2.0522121e+92
-2.0422734e+92
-2.0521523e+92
-2.0420472e+92
-2.0420455e+92
-2.0519354e+92
-2.051778e+92
-2.0671688e+92
-2.0670702e+92
-2.0797358e+92
-2.0794954e+92
-2.0414818e+92
-2.0412669e+92
-2.051247e+92
-2.0507983e+92
-2.0417588e+92
-2.0417513e+92
-2.0514455e+92
-2.0515086e+92
-2.0666672e+92
-2.0791663e+92
-2.0667241e+92
-2.0792505e+92
-2.0663138e+92
-2.0658437e+92
-2.0787959e+92
-2.0780138e+92
-1.6813387e+92
-1.768844e+92
-1.8044276e+92
-1.8044422e+92
-1.7653967e+92
-1.6797894e+92
-1.803729e+92
-1.8027846e+92
-1.7640871e+92
-1.7661354e+92
-1.8594709e+92
-1.8437328e+92
-1.8428338e+92
-1.860468e+92
-1.8781042e+92
-1.8672711e+92
-1.8680037e+92
-1.8792377e+92
-1.8785338e+92
-1.8679484e+92
-1.867153e+92
-1.8777233e+92
-1.8421622e+92
-1.8416161e+92
-1.8597584e+92
-1.8590358e+92
-1.8412404e+92
-1.8411038e+92
-1.8582906e+92
-1.8589262e+92
-1.866168e+92
-1.8667684e+92
-1.8774857e+92
-1.8779119e+92
-1.8662559e+92
-1.8649378e+92
-1.8766487e+92
-1.8750223e+92
-1.8409216e+92
-1.8413451e+92
-1.8586187e+92
-1.8571209e+92
-2.0625388e+92
-2.0623461e+92
-2.0691582e+92
-2.0693398e+92
-2.0778967e+92
-2.0850166e+92
-2.0849401e+92
-2.0777956e+92
-2.0370979e+92
-2.0372917e+92
-2.0418822e+92
-2.0416818e+92
-2.0488268e+92
-2.048984e+92
-2.0538984e+92
-2.0537236e+92
-2.0412108e+92
-2.0368312e+92
-2.0414188e+92
-2.0366879e+92
-2.0534534e+92
-2.0485498e+92
-2.0483632e+92
-2.0532234e+92
-1.7581851e+92
-1.7538642e+92
-1.8232922e+92
-1.8227094e+92
-1.8198207e+92
-1.8143732e+92
-1.8215181e+92
-1.8127708e+92
-1.855101e+92
-1.8526424e+92
-1.8532478e+92
-1.8564093e+92
-1.8512005e+92
-1.8471918e+92
-1.8471075e+92
-1.8520988e+92
-1.8450842e+92
-1.8460266e+92
-1.8510161e+92
-1.8500755e+92
-1.8563663e+92
-1.8527022e+92
-1.8522587e+92
-1.8559241e+92
-1.8841001e+92
-1.8791913e+92
-1.8791532e+92
-1.8839853e+92
-1.8714367e+92
-1.8653968e+92
-1.8660073e+92
-1.8715313e+92
-1.8647986e+92
-1.8652776e+92
-1.8711686e+92
-1.8705761e+92
-1.8836835e+92
-1.8787165e+92
-1.8784854e+92
-1.8834323e+92
-1.8826943e+92
-1.8779696e+92
-1.8774536e+92
-1.8819373e+92
-1.8695e+92
-1.8638956e+92
-1.864121e+92
-1.8695089e+92
-1.8634613e+92
-1.8640165e+92
-1.8691312e+92
-1.8687486e+92
-1.8815827e+92
-1.876956e+92
-1.8769589e+92
-1.8817204e+92
-1.8499202e+92
-1.844751e+92
-1.8450863e+92
-1.8505071e+92
-1.851886e+92
-1.851807e+92
-1.8553705e+92
-1.8555342e+92
-1.8548938e+92
-1.8519748e+92
-1.8765268e+92
-1.8814815e+92
-1.8909894e+92
-1.8910358e+92
-1.8967891e+92
-1.8966192e+92
-1.8915095e+92
-1.891993e+92
-1.8976569e+92
-1.8969875e+92
-1.9126783e+92
-1.9066513e+92
-1.9062056e+92
-1.9119753e+92
-1.9117666e+92
-1.9061307e+92
-1.905984e+92
-1.9115937e+92
-1.899526e+92
-1.8937772e+92
-1.8935038e+92
-1.8990292e+92
-1.8925302e+92
-1.8928667e+92
-1.8985459e+92
-1.8981034e+92
-1.9083416e+92
-1.908633e+92
-1.914639e+92
-1.9141278e+92
-1.9136643e+92
-1.9078355e+92
-1.9074564e+92
-1.9133955e+92
-1.9307574e+92
-1.924506e+92
-1.9241817e+92
-1.9303702e+92
-1.9236008e+92
-1.9238385e+92
-1.9301111e+92
-1.9297895e+92
-1.9405074e+92
-1.9407852e+92
-1.9477461e+92
-1.947393e+92
-1.9470177e+92
-1.9401349e+92
-1.9398958e+92
-1.9467804e+92
-1.9291966e+92
-1.9230046e+92
-1.9223305e+92
-1.9284303e+92
-1.9216e+92
-1.9219416e+92
-1.9280305e+92
-1.9274471e+92
-1.9385743e+92
-1.9393244e+92
-1.946269e+92
-1.9453233e+92
-1.9446804e+92
-1.9379212e+92
-1.9372866e+92
-1.9440564e+92
-2.0184905e+92
-2.0147373e+92
-2.0187217e+92
-2.0145926e+92
-2.0254207e+92
-2.0295859e+92
-2.0294201e+92
-2.0252443e+92
-2.0142877e+92
-2.0181661e+92
-2.0143632e+92
-2.0182926e+92
-2.0249863e+92
-2.0291695e+92
-2.0248631e+92
-2.0289708e+92
-1.9943871e+92
-1.997616e+92
-1.9974266e+92
-1.9942646e+92
-1.993951e+92
-1.9940664e+92
-1.9972836e+92
-1.9971469e+92
-2.0070502e+92
-2.0039265e+92
-2.0072067e+92
-2.0038004e+92
-1.9979996e+92
-1.9948754e+92
-1.9981693e+92
-1.9947801e+92
-2.0045039e+92
-2.0078297e+92
-2.0077087e+92
-2.0043872e+92
-1.9977921e+92
-1.9946187e+92
-1.9978627e+92
-1.9945932e+92
-2.0042112e+92
-2.0075209e+92
-2.0041628e+92
-2.0074528e+92
-2.0140393e+92
-2.0179364e+92
-2.0177645e+92
-2.013879e+92
-1.9760921e+92
-1.9759618e+92
-1.9783313e+92
-1.9781925e+92
-1.9845067e+92
-1.987442e+92
-1.9872963e+92
-1.9846264e+92
-1.9758396e+92
-1.9755865e+92
-1.9778084e+92
-1.9780512e+92
-1.9842397e+92
-1.9840467e+92
-1.9871056e+92
-1.9869517e+92
-1.9787824e+92
-1.9766803e+92
-1.9788275e+92
-1.9767376e+92
-1.9850598e+92
-1.9878831e+92
-1.9878132e+92
-1.9850509e+92
-1.9785096e+92
-1.9765589e+92
-1.9786759e+92
-1.976377e+92
-1.9848775e+92
-1.9876825e+92
-1.9847826e+92
-1.9876333e+92
-1.9687457e+92
-1.9688369e+92
-1.9701381e+92
-1.9702087e+92
-1.9700559e+92
-1.9698123e+92
-1.9687393e+92
-1.9684641e+92
-1.9576054e+92
-1.9573715e+92
-1.9683633e+92
-1.9681685e+92
-1.9697028e+92
-1.9695411e+92
-1.9694118e+92
-1.9690986e+92
-1.9679298e+92
-1.9675181e+92
-1.9565117e+92
-1.9570342e+92
-1.9672654e+92
-1.966991e+92
-1.968871e+92
-1.9685554e+92
-1.9682583e+92
-1.9678604e+92
-1.96674e+92
-1.9663903e+92
-1.9558688e+92
-1.9552582e+92
-1.9772031e+92
-1.9753075e+92
-1.9774975e+92
-1.9750548e+92
-2.153065e+92
-2.1534369e+92
-2.1531747e+92
-2.1525729e+92
-2.1519145e+92
-2.1508463e+92
-2.1523733e+92
-2.1522154e+92
-2.1542944e+92
-2.1547401e+92
-2.1546826e+92
-2.1542029e+92
-2.1541133e+92
-2.1546318e+92
-2.1541437e+92
-2.153377e+92
-2.1557599e+92
-2.1552979e+92
-2.1561089e+92
-2.1556383e+92
-2.1550208e+92
-2.1543401e+92
-2.1555218e+92
-2.1551097e+92
-2.1563613e+92
-2.155665e+92
-2.155999e+92
-2.156434e+92
-2.1561019e+92
-2.1565879e+92
-2.1557138e+92
-2.1563599e+92
-2.0357057e+92
-1.9693038e+92
-2.0485931e+92
-2.049194e+92
-1.9716613e+92
-2.050321e+92
-2.052596e+92
-2.121748e+92
-2.1223546e+92
-2.0772958e+92
-2.1215406e+92
-2.120905e+92
-2.1193742e+92
-2.1209718e+92
-2.077452e+92
-2.1199513e+92
-2.1186643e+92
-2.1400703e+92
-2.1392713e+92
-2.1473314e+92
-2.1472757e+92
-2.1438154e+92
-2.1434665e+92
-2.1380032e+92
-2.1393477e+92
-2.1466952e+92
-2.1462112e+92
-2.1429213e+92
-2.1424958e+92
-2.1411503e+92
-2.140663e+92
-2.1422639e+92
-2.1425055e+92
-2.1430109e+92
-2.1413831e+92
-2.1414079e+92
-2.142841e+92
-2.1390792e+92
-2.1404678e+92
-2.1403379e+92
-2.1389599e+92
-2.1347448e+92
-2.1381975e+92
-2.1370005e+92
-2.1329791e+92
-2.1412311e+92
-2.1409923e+92
-2.1397496e+92
-2.1399842e+92
-2.1385836e+92
-2.1383286e+92
-2.1343431e+92
-2.1349163e+92
-2.1420019e+92
-2.1422035e+92
-2.1410577e+92
-2.1409682e+92
-2.1359136e+92
-2.1397339e+92
-2.139657e+92
-2.1355052e+92
-2.1415842e+92
-2.1417678e+92
-2.1408024e+92
-2.1404911e+92
-2.1389843e+92
-2.1397114e+92
-2.1357813e+92
-2.1350543e+92
-2.1423308e+92
-2.1422331e+92
-2.1439159e+92
-2.1438056e+92
-2.1435536e+92
-2.14215e+92
-2.1417378e+92
-2.1433476e+92
-2.1415441e+92
-2.1405421e+92
-2.1488809e+92
-2.1488664e+92
-2.1454495e+92
-2.1452162e+92
-2.1399504e+92
-2.1410286e+92
-2.1484163e+92
-2.1480718e+92
-2.1448158e+92
-2.1443746e+92
-2.1455878e+92
-2.1437767e+92
-2.145533e+92
-2.1439388e+92
-2.1438068e+92
-2.1434223e+92
-2.145345e+92
-2.1451641e+92
-2.144896e+92
-2.1431827e+92
-2.144783e+92
-2.1432925e+92
-2.1429667e+92
-2.1425506e+92
-2.1444569e+92
-2.144277e+92
-2.1425949e+92
-2.1438649e+92
-2.1437545e+92
-2.1426453e+92
-2.1434842e+92
-2.1436155e+92
-2.1422191e+92
-2.1424743e+92
-2.141052e+92
-2.1369319e+92
-2.1366002e+92
-2.1406826e+92
-2.1373442e+92
-2.1412683e+92
-2.1410281e+92
-2.1367297e+92
-2.1402403e+92
-2.1403684e+92
-2.1366354e+92
-2.1364375e+92
-2.1367749e+92
-2.140204e+92
-2.1394756e+92
-2.1360521e+92
-2.1429944e+92
-2.1432345e+92
-2.1416742e+92
-2.1419152e+92
-2.1424572e+92
-2.1425862e+92
-2.1409911e+92
-2.1412164e+92
-2.0761959e+92
-2.0763037e+92
-2.1051055e+92
-2.1227482e+92
-2.1239612e+92
-2.0786047e+92
-2.1229055e+92
-2.1219879e+92
-2.1241521e+92
-2.1242215e+92
-2.0809799e+92
-2.123457e+92
-2.1233068e+92
-2.1425188e+92
-2.1425117e+92
-2.1433656e+92
-2.1509024e+92
-2.1473942e+92
-2.1507223e+92
-2.1471392e+92
-2.1435872e+92
-2.1424856e+92
-2.1509353e+92
-2.1511164e+92
-2.1476553e+92
-2.1476015e+92
-2.1429305e+92
-2.1420819e+92
-2.1503422e+92
-2.1502637e+92
-2.1468285e+92
-2.1465715e+92
-2.1411881e+92
-2.1424405e+92
-2.1498854e+92
-2.1495203e+92
-2.1462278e+92
-2.1458371e+92
-2.1389347e+92
-2.1389732e+92
-2.1409516e+92
-2.1413265e+92
-2.1451109e+92
-2.1492296e+92
-2.1459575e+92
-2.1461577e+92
-2.1479207e+92
-2.1479123e+92
-2.1461756e+92
-2.1457871e+92
-2.1477423e+92
-2.147889e+92
-2.1456891e+92
-2.1458648e+92
-2.1475764e+92
-2.1476227e+92
-2.1473662e+92
-2.1456655e+92
-2.1452544e+92
-2.1471965e+92
-2.1463568e+92
-2.1463113e+92
-2.1450766e+92
-2.1451715e+92
-2.1383955e+92
-2.1431993e+92
-2.1433645e+92
-2.138216e+92
-2.1463489e+92
-2.1452912e+92
-2.1462993e+92
-2.1451665e+92
-2.1431186e+92
-2.1435805e+92
-2.1386143e+92
-2.1381779e+92
-2.1461939e+92
-2.1460117e+92
-2.1448139e+92
-2.145024e+92
-2.1383247e+92
-2.1430945e+92
-2.1431025e+92
-2.1382957e+92
-2.1386456e+92
-2.142951e+92
-2.142333e+92
-2.1381516e+92
-2.1457412e+92
-2.1455853e+92
-2.144094e+92
-2.1443861e+92
-2.1452192e+92
-2.1451246e+92
-2.1470525e+92
-2.146974e+92
-2.1447946e+92
-2.1451263e+92
-2.1468248e+92
-2.146685e+92
-2.1454002e+92
-2.1455314e+92
-2.1442334e+92
-2.1442778e+92
-2.1378366e+92
-2.1424648e+92
-2.1426234e+92
-2.1375841e+92
-2.1451033e+92
-2.1452007e+92
-2.1441358e+92
-2.1440432e+92
-2.1422312e+92
-2.1426497e+92
-2.1380443e+92
-2.1375901e+92
-2.1464164e+92
-2.1445466e+92
-2.1446971e+92
-2.1463464e+92
-2.1460435e+92
-2.1443923e+92
-2.1439972e+92
-2.1458636e+92
-2.1446377e+92
-2.1448219e+92
-2.1436875e+92
-2.143536e+92
-2.1440766e+92
-2.1442175e+92
-2.1430456e+92
-2.1428526e+92
-2.142051e+92
-2.1419368e+92
-2.1374366e+92
-2.1375403e+92
-2.141221e+92
-2.1417268e+92
-2.1375926e+92
-2.1371089e+92
-1.628188e+92
-2.1536204e+92
-2.1537671e+92
-2.1532053e+92
-2.1536377e+92
-2.1532975e+92
-2.1534911e+92
-2.1532154e+92
-2.1525529e+92
-2.1523539e+92
-2.1524878e+92
-2.1516668e+92
-2.1523264e+92
-2.1514023e+92
-2.151124e+92
-2.1508439e+92
-2.1496438e+92
-2.154163e+92
-2.1546081e+92
-2.1546377e+92
-2.1548243e+92
-2.1541634e+92
-2.1542652e+92
-2.1535182e+92
-2.1539852e+92
-2.1550014e+92
-2.1548602e+92
-2.155256e+92
-2.1548266e+92
-2.1552556e+92
-2.1550403e+92
-2.1547608e+92
-2.1551775e+92
-1.6434368e+92
-1.912208e+92
-1.9053885e+92
-1.9050115e+92
-1.911751e+92
-1.897477e+92
-1.8905177e+92
-1.8970864e+92
-1.9669144e+92
-1.9668501e+92
-1.94168e+92
-1.9603131e+92
-1.9602354e+92
-1.9419874e+92
-1.9262544e+92
-1.9263226e+92
-1.9786322e+92
-1.9860652e+92
-1.9786213e+92
-1.9859755e+92
-1.9994024e+92
-1.9993638e+92
-2.0069204e+92
-1.893896e+92
-1.8946785e+92
-1.9089968e+92
-1.908429e+92
-1.7664799e+92
-1.802569e+92
-1.7698842e+92
-1.8045189e+92
-1.6828491e+92
-1.8421286e+92
-1.8790606e+92
-1.868591e+92
-1.8678395e+92
-1.8782185e+92
-1.8436497e+92
-1.8428985e+92
-1.8603613e+92
-1.8598266e+92
-2.138345e+92
-2.1321188e+92
-2.1378705e+92
-2.1323985e+92
-2.1443194e+92
-2.1458543e+92
-2.1464783e+92
-2.1447273e+92
-2.1321628e+92
-2.1378726e+92
-2.1323236e+92
-2.1382307e+92
-2.1446167e+92
-2.1464165e+92
-2.1443739e+92
-2.1459368e+92
-2.0984898e+92
-2.1060863e+92
-2.1062826e+92
-2.0986686e+92
-2.0985618e+92
-2.0985723e+92
-2.1062525e+92
-2.1061322e+92
-2.122719e+92
-2.1150377e+92
-2.1225115e+92
-2.1151946e+92
-2.1150268e+92
-2.1223614e+92
-2.1151495e+92
-2.1226683e+92
-2.1063111e+92
-2.0985643e+92
-2.1061539e+92
-2.0986314e+92
-2.1150429e+92
-2.1224301e+92
-2.122766e+92
-2.1152243e+92
-2.1060993e+92
-2.0985402e+92
-2.1062642e+92
-2.098492e+92
-2.1152107e+92
-2.1227643e+92
-2.1150842e+92
-2.1225131e+92
-2.1321342e+92
-2.1378463e+92
-2.1381677e+92
-2.1322774e+92
-2.1458866e+92
-2.1443119e+92
-2.1446072e+92
-2.1464181e+92
-2.1321823e+92
-2.1320004e+92
-2.1380555e+92
-2.1376744e+92
-2.1461839e+92
-2.144097e+92
-2.1456286e+92
-2.1444229e+92
-2.0982567e+92
-2.1057824e+92
-2.1059178e+92
-2.0983596e+92
-2.0980063e+92
-2.0981405e+92
-2.1057713e+92
-2.1055279e+92
-2.1222752e+92
-2.1146988e+92
-2.1221034e+92
-2.1147963e+92
-2.1143652e+92
-2.1216691e+92
-2.1146153e+92
-2.1220974e+92
-2.1061817e+92
-2.0984512e+92
-2.1060123e+92
-2.0985623e+92
-2.1149103e+92
-2.1222304e+92
-2.122524e+92
-2.1150879e+92
-2.1059829e+92
-2.0984654e+92
-2.1061229e+92
-2.0984178e+92
-2.1150435e+92
-2.1224917e+92
-2.1149399e+92
-2.1222622e+92
-2.1316558e+92
-2.1372569e+92
-2.1375791e+92
-2.1317605e+92
-2.1315329e+92
-2.1373849e+92
-2.131241e+92
-2.136915e+92
-2.1451139e+92
-2.1456048e+92
-2.1436477e+92
-2.1439276e+92
-2.143266e+92
-2.143683e+92
-2.1453386e+92
-2.1447117e+92
-2.1439894e+92
-2.1455556e+92
-2.1462379e+92
-2.1445228e+92
-2.1379958e+92
-2.1318786e+92
-2.1375571e+92
-2.1320881e+92
-2.1318446e+92
-2.1319891e+92
-2.1377828e+92
-2.137447e+92
-2.1438491e+92
-2.144089e+92
-2.1457014e+92
-2.1452919e+92
-2.0723253e+92
-2.0652959e+92
-2.0722765e+92
-2.0653857e+92
-2.0810746e+92
-2.0883417e+92
-2.0885118e+92
-2.0811702e+92
-2.0722059e+92
-2.0652978e+92
-2.0722913e+92
-2.0653327e+92
-2.0811462e+92
-2.0884829e+92
-2.0810468e+92
-2.0883451e+92
-2.0394123e+92
-2.0441392e+92
-2.0441924e+92
-2.0394913e+92
-2.0394177e+92
-2.0441511e+92
-2.044146e+92
-2.039458e+92
-2.0514532e+92
-2.0565098e+92
-2.0566206e+92
-2.0515598e+92
-2.0514751e+92
-2.0565413e+92
-2.0565462e+92
-2.05152e+92
-2.0392903e+92
-2.0440023e+92
-2.0439938e+92
-2.0393171e+92
-2.0391126e+92
-2.0391834e+92
-2.0438962e+92
-2.0437865e+92
-2.0513185e+92
-2.0563502e+92
-2.0563786e+92
-2.0513395e+92
-2.0510368e+92
-2.0511395e+92
-2.0562307e+92
-2.0560979e+92
-2.0650998e+92
-2.0720467e+92
-2.0721109e+92
-2.0651096e+92
-2.0648782e+92
-2.0649452e+92
-2.0719704e+92
-2.0718386e+92
-2.0881956e+92
-2.0883243e+92
-2.0808694e+92
-2.0809424e+92
-2.0805557e+92
-2.0807273e+92
-2.0881256e+92
-2.0878741e+92
-2.0723445e+92
-2.0654022e+92
-2.072345e+92
-2.0654195e+92
-2.0810432e+92
-2.0883634e+92
-2.0884899e+92
-2.081112e+92
-2.0653268e+92
-2.0722484e+92
-2.0653342e+92
-2.0723005e+92
-2.0810835e+92
-2.088465e+92
-2.0810592e+92
-2.0883426e+92
-2.039401e+92
-2.0441422e+92
-2.0441621e+92
-2.0394795e+92
-2.0394291e+92
-2.04417e+92
-2.0442229e+92
-2.0395113e+92
-2.0566167e+92
-2.0514625e+92
-2.056545e+92
-2.0515061e+92
-2.0566212e+92
-2.0515003e+92
-2.0566287e+92
-2.0515709e+92
-2.0442802e+92
-2.0396201e+92
-2.0443416e+92
-2.039598e+92
-2.0516075e+92
-2.0566537e+92
-2.0566775e+92
-2.0515972e+92
-2.0441664e+92
-2.0394719e+92
-2.0442007e+92
-2.0394623e+92
-2.0515201e+92
-2.0566172e+92
-2.0515156e+92
-2.0565802e+92
-2.0652979e+92
-2.0722485e+92
-2.0723742e+92
-2.0653755e+92
-2.0653746e+92
-2.0723783e+92
-2.0653823e+92
-2.0723629e+92
-2.0883782e+92
-2.0885972e+92
-2.0810658e+92
-2.0812298e+92
-2.0811392e+92
-2.0811734e+92
-2.0885415e+92
-2.0884248e+92
-2.0206511e+92
-2.0166972e+92
-2.0207539e+92
-2.0166549e+92
-2.0275507e+92
-2.0317872e+92
-2.0317654e+92
-2.0275004e+92
-2.0165509e+92
-2.0205471e+92
-2.0165451e+92
-2.0205738e+92
-2.027384e+92
-2.0316535e+92
-2.0273671e+92
-2.0315808e+92
-1.996306e+92
-1.9996315e+92
-1.9995846e+92
-1.9963006e+92
-1.9963114e+92
-1.996241e+92
-1.9995787e+92
-1.9996412e+92
-2.0094715e+92
-2.0060788e+92
-2.0094732e+92
-2.0060932e+92
-2.0060703e+92
-2.009485e+92
-2.0060085e+92
-2.0094299e+92
-1.9997751e+92
-1.9965683e+92
-1.9998859e+92
-1.9965091e+92
-2.0063255e+92
-2.0096952e+92
-2.0096554e+92
-2.0062724e+92
-1.9996747e+92
-1.9963953e+92
-1.9996969e+92
-1.9963992e+92
-2.0061733e+92
-2.0095617e+92
-2.0061754e+92
-2.0095507e+92
-2.0164725e+92
-2.0205146e+92
-2.0205353e+92
-2.0164707e+92
-2.0164347e+92
-2.0205207e+92
-2.0165302e+92
-2.0205819e+92
-2.0315471e+92
-2.0316166e+92
-2.0273073e+92
-2.0273593e+92
-2.0273638e+92
-2.0273046e+92
-2.031588e+92
-2.0316213e+92
-1.9778935e+92
-1.9778789e+92
-1.9801466e+92
-1.9801294e+92
-1.9864745e+92
-1.989266e+92
-1.9892382e+92
-1.9864826e+92
-1.9778005e+92
-1.9777843e+92
-1.9800716e+92
-1.9800844e+92
-1.9863428e+92
-1.986348e+92
-1.9891776e+92
-1.9892088e+92
-1.9803628e+92
-1.9782222e+92
-1.9803785e+92
-1.9782795e+92
-1.986733e+92
-1.9894846e+92
-1.9894373e+92
-1.9867496e+92
-1.9801577e+92
-1.9781324e+92
-1.9802695e+92
-1.9780288e+92
-1.9865851e+92
-1.9893428e+92
-1.9865165e+92
-1.9893161e+92
-1.970534e+92
-1.9706357e+92
-1.9717319e+92
-1.9717964e+92
-1.9716766e+92
-1.9714786e+92
-1.9705463e+92
-1.9702897e+92
-1.9592539e+92
-1.9495249e+92
-1.9430982e+92
-1.9429369e+92
-1.949272e+92
-1.9591584e+92
-1.9702513e+92
-1.970133e+92
-1.9714278e+92
-1.9713752e+92
-1.9713441e+92
-1.9712712e+92
-1.9700743e+92
-1.9699471e+92
-1.9492627e+92
-1.9430501e+92
-1.9432465e+92
-1.9494713e+92
-1.9590506e+92
-1.9590885e+92
-1.9332806e+92
-1.9272865e+92
-1.927128e+92
-1.9330285e+92
-1.927328e+92
-1.9271346e+92
-1.9331642e+92
-1.9332718e+92
-1.9698295e+92
-1.9697624e+92
-1.9709397e+92
-1.9709367e+92
-1.9709251e+92
-1.9707537e+92
-1.9696734e+92
-1.969429e+92
-1.9487201e+92
-1.9424974e+92
-1.9424404e+92
-1.9487349e+92
-1.9585386e+92
-1.9586174e+92
-1.969898e+92
-1.9699719e+92
-1.971155e+92
-1.9711956e+92
-1.9711342e+92
-1.9710347e+92
-1.9700042e+92
-1.9698929e+92
-1.9492113e+92
-1.9429289e+92
-1.9426543e+92
-1.9489245e+92
-1.9587996e+92
-1.9587936e+92
-1.9776638e+92
-1.9777304e+92
-1.9799114e+92
-1.9799096e+92
-1.9862307e+92
-1.9862476e+92
-1.989068e+92
-1.9890517e+92
-1.9798029e+92
-1.9776392e+92
-1.9798313e+92
-1.9776101e+92
-1.9889432e+92
-1.986117e+92
-1.9861135e+92
-1.9889494e+92
-1.9329528e+92
-1.9270484e+92
-1.9267144e+92
-1.9326527e+92
-1.9268536e+92
-1.9267321e+92