/*--------------------------------*- C++ -*----------------------------------*\
  =========                 |
  \\      /  F ield         | OpenFOAM: The Open Source CFD Toolbox
   \\    /   O peration     | Website:  https://openfoam.org
    \\  /    A nd           | Version:  7
     \\/     M anipulation  |
\*---------------------------------------------------------------------------*/
FoamFile
{
    version     2.0;
    format      ascii;
    class       volScalarField;
    location    "9000";
    object      nut;
}
// * * * * * * * * * * * * * * * * * * * * * * * * * * * * * * * * * * * * * //

dimensions      [0 2 -1 0 0 0 0];

internalField   nonuniform List<scalar> 
34222
(
3.3617077e-53
2.1062145e-53
5.4244535e-53
4.5763855e-53
3.8184165e-53
5.5091199e-53
8.7396488e-53
2.4386561e-53
3.4553267e-53
3.2117154e-53
3.5240946e-53
1.8975952e-53
2.283209e-53
7.9237295e-53
1.099468e-52
2.8473178e-53
6.4802697e-53
4.8237594e-53
3.8157254e-53
6.3445324e-53
5.8130912e-53
5.5502922e-53
8.3316209e-52
6.2684313e-53
4.5269259e-53
5.1379052e-53
3.5569306e-53
3.0709338e-53
4.0753456e-53
4.8954686e-53
5.0492742e-53
4.0606354e-53
3.441248e-53
2.8888584e-53
3.719468e-53
3.6291714e-53
4.4454713e-53
6.6456616e-53
1.9614683e-52
1.239536e-52
8.2972739e-53
7.6248385e-53
9.1526025e-53
8.2986463e-53
5.3117603e-53
6.9860275e-53
5.0042961e-53
1.465003e-53
1.2362234e-53
1.7763583e-53
3.3476422e-53
4.954091e-51
3.4064804e-52
3.6864085e-52
7.0280978e-52
4.4618323e-53
7.3918767e-53
6.091781e-53
7.1532392e-53
5.8544962e-53
3.8664209e-53
4.3583622e-53
3.1807378e-53
3.2533312e-53
4.4010825e-53
3.668224e-53
3.2452222e-53
4.4315981e-53
3.1624125e-53
3.5379888e-53
4.8812092e-53
2.564415e-53
3.0639059e-53
6.6180152e-53
4.6632656e-53
4.680314e-53
9.5904954e-53
5.8565876e-53
6.6570628e-53
7.5452738e-53
7.0831563e-53
5.8765404e-53
1.1246901e-53
1.0583995e-53
1.1080753e-53
1.0651195e-53
7.9256497e-53
6.5589469e-53
9.618101e-53
1.1258578e-52
1.8680032e-52
1.5135131e-52
1.7209684e-52
1.9059306e-52
6.7787739e-53
1.6628076e-53
4.9776488e-53
2.6063829e-53
1.3011583e-53
1.2308678e-53
1.4383121e-53
2.7123119e-53
1.9019704e-52
1.5964141e-51
1.357986e-52
4.203404e-51
1.7081138e-51
2.042491e-52
8.0131245e-53
6.7735204e-53
2.0719159e-52
7.9635325e-53
1.6947714e-52
1.667165e-52
5.4848468e-53
3.941741e-52
5.080213e-53
3.6906002e-52
5.8268705e-53
6.5390458e-53
7.985875e-52
1.3590401e-53
1.0477212e-53
6.4254163e-53
1.2676179e-53
7.457305e-53
7.5057584e-53
5.0052963e-53
4.1859945e-53
5.1961562e-53
2.0876311e-53
3.7198917e-53
3.7643006e-53
4.8372367e-53
4.6249599e-53
7.7021511e-53
1.1786557e-52
4.1121665e-53
5.4152824e-53
3.4023574e-53
3.5105718e-53
3.7225515e-53
2.8362585e-53
1.4472503e-53
1.4079408e-53
1.0338407e-53
1.2327301e-53
2.3185396e-53
1.8436979e-53
2.9924974e-53
2.6489732e-53
2.99621e-53
2.6066949e-53
2.9238756e-53
5.6091769e-53
4.3103704e-53
3.7222298e-53
5.7515924e-53
7.8767647e-53
1.0801255e-52
8.8018487e-53
1.356435e-52
1.1762083e-52
4.0817933e-53
3.8553565e-53
1.5062456e-53
1.425412e-53
1.2327626e-53
1.1474082e-53
1.084604e-53
1.2388122e-53
1.216435e-52
1.2351649e-52
1.2038502e-52
1.3744995e-52
1.4548345e-52
1.2067081e-52
1.3445657e-52
1.9464954e-52
8.1428958e-53
2.045785e-53
6.132301e-53
2.9103492e-53
8.8010527e-53
8.0808734e-53
9.3300372e-53
2.4450822e-53
2.0418043e-53
7.3443997e-53
1.8434073e-52
2.5999417e-52
8.25473e-52
1.6105256e-52
7.8507444e-52
1.1367834e-52
8.8726281e-53
2.3532266e-53
2.049436e-53
7.4907402e-53
1.0776083e-52
8.3585828e-51
1.9596321e-51
1.8311047e-51
1.1843438e-52
1.3570858e-52
7.6865791e-52
7.8343134e-52
7.3004201e-53
7.4576306e-53
3.316907e-53
3.7533145e-53
3.2202584e-53
3.4878471e-53
1.8967324e-53
1.59041e-53
3.7800087e-53
7.3542429e-53
7.5559346e-53
4.0682009e-53
7.3585767e-53
7.2553246e-53
4.3609184e-53
4.6327293e-53
6.4562831e-53
7.1324271e-53
4.2300225e-53
4.6907142e-53
1.6321996e-52
6.4561432e-53
1.7915436e-52
7.6648667e-53
3.4146417e-52
7.6231903e-53
1.6637051e-52
7.1110941e-53
1.7502273e-52
6.0718495e-53
6.7432578e-53
3.6816494e-52
1.7370995e-53
1.3689223e-53
1.5764434e-53
1.8606996e-53
1.6018262e-53
1.5828522e-53
2.2713309e-53
2.1863047e-53
1.1330886e-53
1.6995168e-53
1.3082933e-53
1.7336322e-53
1.8257258e-53
1.8492291e-53
1.4319554e-53
6.9336559e-54
1.4735973e-53
2.4895926e-53
1.3511194e-53
5.7639767e-53
5.7411044e-53
4.088324e-53
6.1617745e-53
3.8866438e-53
4.2818755e-53
1.8818743e-53
2.0818212e-53
1.5672831e-53
1.7906602e-53
1.4295891e-53
7.6949745e-54
3.4643021e-53
4.3086631e-53
6.128939e-53
4.183041e-53
6.8177829e-53
4.4530841e-53
7.7349977e-53
7.2390574e-53
2.9733639e-53
2.4784042e-53
2.5050406e-53
2.7131412e-53
3.6363354e-53
3.4342681e-53
1.1365724e-52
4.1128199e-53
2.5939404e-53
1.3629234e-53
1.5406086e-53
1.8080655e-53
7.5706696e-53
1.1779865e-53
1.2324696e-53
4.0239278e-53
1.4613381e-53
1.3858823e-53
1.1138574e-53
1.2501909e-53
2.0746589e-53
2.1585489e-53
1.1801871e-53
1.3055948e-53
2.5203449e-53
2.5206156e-53
2.8362464e-53
2.8420709e-53
2.9732985e-53
2.748768e-53
3.4570271e-53
4.0013028e-53
3.8577433e-53
2.865317e-53
3.8187658e-53
3.2707774e-53
7.1437057e-53
7.0020852e-53
4.1860566e-53
4.0565084e-53
5.9871607e-53
8.8174374e-53
1.1479524e-52
1.1785415e-52
8.3762005e-53
7.239101e-53
9.0637691e-53
9.5290664e-53
5.200959e-53
4.967656e-53
1.8036867e-53
1.7797504e-53
1.0979827e-52
9.7416724e-53
1.2323788e-52
1.2233256e-52
2.4412665e-52
1.6736009e-52
1.5043306e-52
2.2259627e-52
2.703313e-53
2.3714882e-53
3.3891608e-53
1.8306186e-53
1.4028266e-53
3.1405317e-53
4.3289617e-53
8.5104426e-53
8.1140909e-53
4.0127766e-53
1.1193311e-52
3.5964328e-53
2.9868604e-53
3.2016511e-53
6.1832561e-53
2.4677883e-52
6.5737554e-53
1.1017538e-52
2.5943807e-52
4.364569e-53
4.6848841e-53
7.5250127e-53
7.4407613e-53
1.0032638e-52
1.0510432e-52
2.6283203e-52
2.6345721e-52
9.7601992e-53
2.5368967e-53
2.1045262e-53
8.0194843e-53
3.498179e-53
1.9547114e-53
1.6251188e-53
3.4500122e-53
9.6778614e-53
2.681123e-53
2.5777953e-53
9.8345859e-53
9.2499707e-53
9.8030483e-53
2.0979778e-51
1.8131735e-51
1.0451894e-52
1.0559097e-52
8.0004227e-52
8.027149e-52
1.0781519e-52
1.0810886e-52
7.8215809e-52
8.0272994e-52
4.3931723e-53
4.5132629e-53
6.90666e-53
6.8808744e-53
4.2863245e-53
4.6199118e-53
7.55665e-53
7.1290226e-53
9.1732784e-53
9.5197881e-53
2.8177477e-52
2.9350238e-52
1.029969e-52
1.0316496e-52
2.8879024e-52
2.6828258e-52
3.1236352e-53
3.1067069e-53
1.8157507e-53
2.0005413e-53
3.3880074e-53
3.4981882e-53
2.2528322e-53
1.9122862e-53
3.1132254e-53
2.841938e-53
8.189786e-54
9.7993897e-54
2.9468874e-53
2.8451361e-53
9.0089236e-54
9.4518869e-54
3.3257676e-53
3.621345e-53
2.7165166e-53
2.2300998e-53
3.6588731e-53
3.4690604e-53
2.4752269e-53
2.4008305e-53
3.3969679e-53
3.5546974e-53
2.7801838e-53
2.3716762e-53
3.5286123e-53
3.2836538e-53
2.6352102e-53
2.6124191e-53
2.8268549e-53
3.1313773e-53
2.7003663e-53
2.247859e-53
6.6018573e-53
3.4049521e-53
3.2986297e-53
2.7022486e-53
2.6314499e-53
5.0626348e-53
5.2517374e-53
7.1299741e-53
7.4100519e-53
7.2545946e-53
5.310067e-53
5.4744634e-53
1.5385004e-52
1.6369361e-52
7.3219244e-53
6.3270917e-53
6.3049142e-53
4.5009621e-53
7.0943292e-53
4.9522331e-53
6.9560785e-53
7.0172747e-53
4.9813883e-53
5.0846737e-53
1.8326662e-52
1.8379091e-52
7.8096139e-53
8.1945758e-53
2.1936209e-53
1.1955245e-53
1.3390877e-53
1.0191901e-53
1.2149083e-53
1.1325898e-53
9.3151349e-54
1.3405072e-53
1.1894387e-53
2.2049488e-53
2.0286088e-53
1.8402014e-53
1.5873687e-53
1.3701067e-53
1.686662e-53
1.5298244e-53
1.9614862e-53
1.8924335e-53
2.0139399e-53
1.8220928e-53
1.3321446e-53
1.0521111e-53
1.544991e-53
1.2944801e-53
2.634178e-53
2.6405056e-53
2.3667288e-53
2.2245478e-53
2.1335345e-53
2.2252935e-53
2.2363173e-53
2.1983838e-53
1.3639005e-53
1.2266723e-53
1.6220033e-53
1.459735e-53
7.0910405e-54
9.2925233e-54
1.2468821e-53
1.3514767e-53
1.2700915e-53
1.3781518e-53
1.7015338e-53
1.7596766e-53
1.7124904e-53
1.6758623e-53
1.7996874e-53
1.753296e-53
1.8242731e-53
1.642577e-53
1.5713639e-53
1.5160734e-53
1.5945592e-53
1.7113181e-53
1.5434046e-53
1.86705e-53
1.7378015e-53
1.9475149e-53
1.9886961e-53
1.9154088e-53
1.9111676e-53
1.463699e-53
1.3504912e-53
1.7015837e-53
1.5681426e-53
9.381611e-54
7.9917262e-54
1.5417732e-53
1.5155649e-53
1.9274025e-53
1.9287165e-53
8.1015219e-54
1.4459904e-53
3.7154936e-53
3.9206711e-53
2.7192956e-53
2.9779224e-53
2.1645823e-53
2.3693624e-53
1.7263001e-53
1.6139437e-53
2.0802133e-53
7.8177056e-54
2.6301182e-53
5.7330358e-53
1.458643e-53
3.9345171e-53
5.5176828e-53
4.814563e-53
3.8618515e-53
6.412007e-53
9.686754e-53
4.8626247e-53
3.992611e-53
4.0060016e-53
4.3451234e-53
6.0739861e-53
6.0407846e-53
3.0714038e-53
2.8680249e-53
4.1434527e-53
3.1418378e-53
1.6500685e-53
1.8202386e-53
1.6853482e-53
1.780931e-53
1.5286576e-53
1.5208339e-53
1.3470066e-53
1.3355945e-53
1.0421104e-53
1.7728764e-53
1.8603562e-53
1.8005304e-53
1.7975281e-53
1.6233389e-53
1.6430695e-53
1.4291177e-53
1.3937399e-53
8.6824174e-54
9.0909112e-54
7.7595064e-54
9.3200848e-53
7.0858702e-53
5.8944438e-53
8.5580515e-53
6.261273e-53
5.3142332e-53
1.4724659e-52
8.0935827e-53
3.043796e-53
2.5810931e-53
2.8585945e-53
3.3216759e-53
2.7823889e-53
2.9100437e-53
2.6218724e-53
3.1049582e-53
2.2345165e-53
2.2390966e-53
2.2799559e-53
2.3035148e-53
2.0624974e-53
2.1815425e-53
2.0217947e-53
2.223742e-53
1.0083621e-52
2.2267027e-53
2.4942878e-53
2.0126063e-53
3.2019966e-53
1.7631843e-53
1.6070866e-53
1.9266148e-53
4.1659142e-53
1.2020606e-53
1.3515525e-53
3.1076762e-53
1.2707121e-53
1.328691e-53
1.3698622e-53
1.4698148e-53
7.4329941e-54
8.4676694e-54
7.6553148e-54
7.7077366e-54
1.653318e-53
1.6328355e-53
1.5701628e-53
1.7505009e-53
1.7542289e-53
1.7332738e-53
1.6524411e-53
1.7830874e-53
1.7721821e-53
1.7714981e-53
3.0230644e-53
1.5522647e-53
1.7225512e-53
3.2477899e-53
3.3092804e-53
3.2296097e-53
3.979655e-53
2.8800863e-53
3.1516691e-53
4.2710742e-53
3.1905417e-53
3.2135234e-53
3.8608171e-53
3.9788669e-53
8.9765383e-53
1.0687865e-52
5.1400357e-53
5.50819e-53
9.6892946e-53
5.752565e-53
8.0259095e-53
1.0747482e-52
1.0837582e-52
7.6294479e-53
1.0682217e-52
1.0813646e-52
1.59552e-52
1.438547e-52
1.8211185e-52
1.8199266e-52
2.8180787e-53
2.6149715e-53
3.8335319e-53
4.6407596e-53
4.1646547e-53
1.6341268e-53
1.3039624e-53
3.3561075e-53
3.8234536e-53
4.5738036e-53
3.5435879e-53
3.5637834e-53
3.3945847e-53
4.658648e-53
4.4434596e-53
3.8669309e-53
3.916147e-53
4.1291936e-53
3.856024e-53
2.0993352e-53
2.0717372e-53
1.3043619e-53
1.4239472e-53
8.2343743e-54
3.0545642e-53
9.0478994e-54
1.4044379e-53
1.4372286e-53
8.9998586e-54
8.8115965e-54
7.6298505e-54
5.9463989e-53
1.3697506e-53
1.3286593e-53
7.6817421e-54
3.2235784e-53
6.1809686e-53
7.7031109e-54
7.9077675e-54
1.3797074e-53
1.4044287e-53
4.7563692e-53
4.6886033e-53
3.6465582e-53
3.7720005e-53
3.1341153e-53
6.2827456e-53
3.1424187e-53
6.2742951e-53
3.2842889e-53
3.4406587e-53
3.3608283e-53
3.5918185e-53
4.5300103e-53
4.4031555e-53
4.6147243e-53
4.5184373e-53
3.8228226e-53
3.7158372e-53
3.0624869e-53
3.1825614e-53
6.417909e-53
6.6218402e-53
3.2539464e-53
6.571301e-53
3.2188818e-53
6.3337283e-53
3.5225843e-53
2.2610626e-53
1.8742172e-53
3.4433913e-53
4.4621725e-53
4.6675214e-53
4.4833407e-53
1.9092043e-53
1.585228e-53
4.152974e-53
4.7651865e-53
4.2439889e-53
9.5680133e-53
2.6416038e-53
2.3297623e-53
9.1182698e-53
2.0457281e-53
2.2264789e-53
3.454991e-53
3.4099396e-53
8.6199294e-53
3.0184906e-53
2.8853546e-53
9.0791853e-53
1.0036318e-52
1.0277526e-52
7.9174369e-52
7.8445794e-52
9.3571034e-53
7.5977903e-52
6.9933248e-52
9.6155878e-53
4.31874e-53
4.2978276e-53
6.5413275e-53
6.9218945e-53
6.9817717e-53
4.4361677e-53
4.294552e-53
6.8686645e-53
8.302308e-53
8.2730201e-53
3.0444857e-52
3.2077856e-52
8.1923476e-53
3.1638045e-52
8.6642346e-53
2.9408376e-52
6.7962757e-53
4.3488525e-53
4.4119672e-53
6.9324458e-53
6.8336787e-53
4.3387792e-53
4.2832317e-53
6.8453221e-53
9.0625599e-53
3.0689387e-52
9.2367485e-53
2.7882663e-52
8.8423387e-53
8.8388005e-53
3.0854266e-52
3.1368046e-52
3.0564609e-53
3.1493266e-53
3.2578305e-53
3.2860685e-53
3.9774878e-53
4.2288489e-53
2.9826212e-53
3.1675501e-53
4.2177008e-53
4.2007534e-53
3.2440519e-53
3.2792116e-53
2.9882893e-53
3.1850944e-53
6.4806129e-53
6.8681065e-53
3.2514583e-53
3.1547548e-53
7.0387089e-53
6.7785051e-53
4.4000719e-53
4.3253817e-53
3.5047615e-53
3.4675073e-53
4.464268e-53
4.3370025e-53
3.2503869e-53
3.4166047e-53
3.1414383e-53
3.2306458e-53
6.8387995e-53
6.9113014e-53
3.2539229e-53
6.8337208e-53
3.1603683e-53
6.4375491e-53
2.8196398e-53
2.6758883e-53
7.7186882e-54
9.042209e-54
2.5692572e-53
2.5200194e-53
8.4667249e-54
9.095664e-54
8.3075242e-54
2.88701e-53
3.2224451e-53
1.0460403e-53
2.7960621e-53
3.135334e-53
1.0487533e-53
9.6785047e-54
1.7583656e-53
1.5483792e-53
1.8336729e-53
1.7072802e-53
8.6755375e-54
2.809755e-53
3.1757735e-53
1.0734137e-53
1.0758039e-53
3.1663916e-53
3.1282212e-53
1.1092518e-53
9.669588e-54
3.2190957e-53
3.2504413e-53
1.0831446e-53
1.0454684e-53
3.0901166e-53
2.903815e-53
1.0299798e-53
3.272361e-53
3.0496293e-53
8.9536658e-54
1.066908e-53
3.1466002e-53
3.2834073e-53
1.0671492e-53
1.0853184e-53
3.1870556e-53
3.1692204e-53
9.4187328e-54
1.0718821e-53
1.0109668e-53
2.9689065e-53
2.7519002e-53
9.9193636e-54
2.7883263e-53
2.53195e-53
2.8724043e-53
7.8709496e-54
9.1225727e-54
2.9138434e-53
2.9424235e-53
9.3463899e-54
9.627663e-54
2.5357852e-53
3.1985972e-53
2.5573664e-53
3.2483385e-53
3.1818328e-53
9.2312905e-54
1.0248526e-53
2.9817894e-53
3.1597229e-53
9.8894077e-54
1.0003557e-53
3.2396078e-53
3.3250019e-53
2.7717491e-53
2.5065744e-53
3.470322e-53
3.2557244e-53
2.8087117e-53
2.8380304e-53
3.197862e-53
3.4180834e-53
2.9463242e-53
2.644322e-53
6.4895874e-53
4.4680938e-53
6.1831373e-53
4.3838479e-53
7.4235007e-53
4.4607119e-53
6.6883402e-53
3.9777445e-53
2.3339052e-53
2.6789918e-53
2.9756052e-53
2.6208825e-53
3.1806181e-53
3.0863215e-53
2.6420089e-53
2.7133041e-53
3.1252817e-53
3.2460642e-53
2.4631015e-53
2.6893571e-53
2.7244385e-53
3.2623006e-53
3.0820636e-53
2.7371592e-53
3.9975307e-53
6.8566156e-53
7.6393035e-53
4.356684e-53
7.4472489e-53
7.4051699e-53
4.3800628e-53
4.4697208e-53
1.2064832e-53
1.0725863e-53
1.2754269e-53
1.1806202e-53
5.1088199e-54
5.019272e-54
5.4739709e-54
5.5497558e-54
5.675322e-54
5.7092342e-54
5.9762463e-54
5.9839685e-54
5.1631298e-54
4.8127086e-54
4.3688686e-54
5.5370207e-54
5.8499578e-54
5.5832989e-54
5.334527e-54
5.0511199e-54
1.4089653e-53
5.3874947e-54
5.9246549e-54
7.0965354e-54
6.1746463e-54
1.2995982e-53
5.7301277e-54
5.2730935e-54
6.4872631e-54
7.0925612e-54
5.8486482e-54
6.1659442e-54
6.5911769e-54
6.7269045e-54
6.5213888e-54
7.260373e-54
6.1271691e-54
6.6689981e-54
1.2000813e-53
1.0583669e-53
1.331443e-53
1.1846718e-53
1.4232839e-53
1.3184299e-53
1.2777234e-53
1.0995478e-53
1.4809598e-53
1.3375196e-53
1.5080457e-53
7.5895204e-54
8.2667023e-54
7.0108954e-54
7.7238416e-54
7.5911951e-54
1.3756561e-53
6.4930387e-54
6.8132283e-54
5.7566484e-54
8.8041136e-54
8.6623016e-54
8.2173753e-54
9.2277547e-54
7.5627829e-54
6.4608876e-54
7.0818108e-54
8.2783865e-54
1.4778961e-53
1.2966864e-53
1.2813938e-53
1.3953497e-53
1.0473718e-53
1.185998e-53
1.5756761e-53
1.6266854e-53
1.3563339e-53
1.4409006e-53
1.394736e-53
1.1297049e-53
1.530993e-53
1.2851504e-53
6.0885445e-54
5.7416716e-54
6.2046177e-54
6.5763326e-54
5.4760582e-54
5.6188529e-54
4.886646e-54
6.2273539e-54
6.9636012e-54
6.8259802e-54
6.5371299e-54
7.3328769e-54
6.0699744e-54
5.3857785e-54
5.8387399e-54
6.615803e-54
1.5060363e-53
1.4076675e-53
1.5357889e-53
1.4424749e-53
1.5697323e-53
1.7277195e-53
1.4022732e-53
1.5488069e-53
1.4259827e-53
1.3138098e-53
1.576122e-53
1.4788415e-53
1.5009841e-53
1.3383966e-53
1.8086571e-53
1.6197385e-53
1.4894052e-53
1.1919436e-53
1.6673496e-53
1.3780345e-53
1.6328709e-53
1.4040251e-53
1.7449907e-53
1.5342938e-53
1.7046043e-53
1.496748e-53
1.7155978e-53
1.5426311e-53
1.5331907e-53
1.2650693e-53
1.6104164e-53
1.3568721e-53
8.9259103e-54
9.4945081e-54
1.0757406e-53
1.0228118e-53
1.0825811e-53
8.5027691e-54
8.6435637e-54
9.2028828e-54
9.5201569e-54
9.5492937e-54
1.2099709e-53
1.2863264e-53
1.1931656e-53
1.2781389e-53
1.1038614e-53
1.1322663e-53
1.0885337e-53
1.129146e-53
1.1226219e-53
3.8617491e-53
3.6129162e-53
2.4759577e-53
2.6044765e-53
2.1275402e-53
2.1227852e-53
1.6982142e-53
1.8123003e-53
2.1809619e-53
2.408306e-53
2.0144844e-53
2.0907852e-53
2.3873324e-53
1.7307041e-53
1.3497269e-53
1.4774792e-53
1.8357996e-53
1.9233405e-53
1.4887072e-53
1.5931416e-53
2.0013655e-53
1.5411528e-53
1.4425362e-53
1.5857599e-53
1.5136425e-53
1.65576e-53
1.777546e-53
1.4363886e-53
1.5656131e-53
1.5459612e-53
1.6084131e-53
1.3297676e-53
1.4267068e-53
1.4531411e-53
1.4098832e-53
1.4494127e-53
1.4449617e-53
1.691425e-53
1.5172703e-53
1.4798653e-53
1.681027e-53
1.3964813e-53
1.1661796e-53
1.4538893e-53
1.2405489e-53
1.1335607e-53
1.1913867e-53
1.0909883e-53
1.2179637e-53
1.6212284e-53
1.5709055e-53
1.4590036e-53
1.3796616e-53
1.4378844e-53
1.3724497e-53
1.1709312e-53
1.25953e-53
1.2248442e-53
1.0246699e-53
1.1314639e-53
9.2103192e-54
1.2633598e-53
1.0369642e-53
1.1194043e-53
1.344076e-53
9.5923747e-54
1.025362e-53
8.6474554e-54
9.4008264e-54
9.6202175e-54
8.4545082e-54
8.6919402e-54
7.5189483e-54
1.084409e-53
1.0951375e-53
1.017834e-53
1.148576e-53
9.6484126e-54
8.3757485e-54
9.1256278e-54
1.0480163e-53
1.7292136e-53
1.8912293e-53
1.4767215e-53
1.6355796e-53
1.7405137e-53
1.4855192e-53
1.7941521e-53
1.5541377e-53
1.5849815e-53
1.4850045e-53
1.6903951e-53
1.6003851e-53
1.6397103e-53
1.5606619e-53
1.5989044e-53
1.6229817e-53
9.0330561e-54
1.0198182e-53
1.2329404e-53
1.0292882e-53
1.1284076e-53
9.7794105e-54
1.0164251e-53
1.1516806e-53
1.106683e-53
1.1202881e-53
1.2322611e-53
1.2209696e-53
1.3850924e-53
1.3591985e-53
1.272904e-53
1.2374212e-53
1.3200272e-53
1.2869601e-53
1.2742869e-53
1.1350816e-53
1.3043381e-53
9.920974e-54
8.5275748e-54
1.0142859e-53
1.521021e-53
1.2088139e-53
1.1978484e-53
1.2741852e-53
9.7271432e-54
1.2898042e-53
1.2585625e-53
1.3142118e-53
1.4021171e-53
1.2807583e-53
8.752455e-54
1.4817198e-53
1.6165625e-53
1.5255547e-53
1.5410344e-53
1.5434447e-53
1.4847932e-53
1.8509934e-53
1.4120424e-53
1.4607762e-53
8.0577271e-54
8.5102757e-54
8.189106e-54
2.1019029e-53
1.5358841e-53
2.9885084e-53
2.8789989e-53
2.6424123e-53
2.9829297e-53
2.7974546e-53
3.0255871e-53
2.4979579e-53
3.0011164e-53
2.8054824e-53
1.9646547e-53
1.9837445e-53
2.5399085e-53
1.873825e-53
1.850897e-53
2.0360667e-53
2.006162e-53
2.092831e-53
2.1257797e-53
3.3007087e-53
2.5452676e-53
1.6576756e-53
1.7762445e-53
1.7169886e-53
1.6985318e-53
1.4791798e-53
1.4755055e-53
1.3550425e-53
1.3331743e-53
9.9438535e-54
1.3537989e-53
1.3995957e-53
1.502037e-53
8.8108722e-54
1.4524971e-53
1.6586833e-53
1.6606879e-53
1.6919861e-53
1.6122144e-53
9.3144774e-54
8.1391004e-54
2.8309648e-53
2.7346595e-53
3.1842054e-53
3.1793666e-53
4.5120275e-53
4.8115836e-53
4.0479211e-53
3.6552044e-53
2.1047072e-53
1.5172957e-53
1.0217504e-52
7.6981946e-53
7.6276511e-53
1.0574562e-52
8.3740578e-53
4.5526125e-53
9.7118418e-53
6.6281249e-53
8.4177196e-53
1.1152437e-52
5.4553743e-53
3.7445243e-53
2.1345544e-53
2.1217318e-53
2.1821959e-53
2.1866491e-53
2.1197225e-53
2.1937033e-53
2.2286021e-53
2.1763499e-53
3.1038515e-53
2.7819374e-53
3.2163735e-53
3.4496334e-53
3.1828035e-53
2.745791e-53
2.8704725e-53
3.1264371e-53
1.5007388e-53
1.2543271e-53
1.6146637e-53
1.3730965e-53
1.5510815e-53
1.5771315e-53
1.4329824e-53
1.4980817e-53
1.3888036e-53
1.2776318e-53
1.4617483e-53
1.36729e-53
1.6224684e-53
1.3610579e-53
1.6962802e-53
1.4423612e-53
1.2444563e-53
1.1661839e-53
1.2961558e-53
1.2300013e-53
1.1139065e-53
1.0582806e-53
1.2067517e-53
1.1525133e-53
8.1392892e-54
8.9058104e-54
1.1419206e-53
9.0616871e-54
9.7693573e-54
9.3838252e-54
9.9032382e-54
1.1582504e-53
1.0841048e-53
1.0638141e-53
1.1930444e-53
1.216163e-53
1.7147547e-53
1.8148277e-53
1.4326253e-53
1.550489e-53
1.6377855e-53
1.6042005e-53
1.5271794e-53
1.5431624e-53
1.6031058e-53
1.4759965e-53
1.6515006e-53
1.5482685e-53
1.7116057e-53
1.739431e-53
1.4474267e-53
1.4944478e-53
1.3013138e-53
1.2298102e-53
1.3024819e-53
1.2520213e-53
1.2895043e-53
1.2280481e-53
1.377853e-53
1.3154605e-53
9.5084575e-54
1.0268065e-53
1.1174868e-53
1.090208e-53
1.1416813e-53
9.8753377e-54
9.9118043e-54
1.0766294e-53
1.1322526e-53
1.1014385e-53
1.18698e-53
1.1451735e-53
1.2525367e-53
9.8546519e-54
8.925972e-54
1.0679199e-53
8.4414522e-54
8.9911859e-54
1.1280399e-53
1.024939e-53
5.0261974e-54
6.0318983e-53
1.1954137e-53
4.2750196e-53
3.9342853e-53
4.9265032e-53
3.8920196e-53
1.3796747e-52
1.4324617e-52
1.5161668e-53
1.5672134e-53
1.4748587e-53
1.5031897e-53
1.3351897e-53
1.2773841e-53
1.4647244e-53
1.3929388e-53
1.4823277e-53
1.3181994e-53
1.7573051e-53
1.5101381e-53
1.6708477e-53
1.4599846e-53
1.834201e-53
1.5503686e-53
1.5919207e-53
1.8441143e-53
1.3846294e-53
1.5958892e-53
1.5383532e-53
1.5485816e-53
1.4735759e-53
1.4814733e-53
1.4980353e-53
1.4074347e-53
1.596904e-53
1.5100069e-53
1.6551084e-53
1.8216154e-53
1.4835006e-53
1.5934822e-53
1.5308084e-53
1.2507069e-53
1.6594235e-53
1.3766697e-53
1.6182748e-53
1.4071402e-53
1.6961003e-53
1.4953448e-53
1.6821393e-53
1.4818487e-53
1.6732873e-53
1.5042837e-53
1.5360445e-53
1.5861646e-53
1.2640076e-53
1.3234088e-53
1.3669982e-53
1.1087379e-53
1.500535e-53
1.2361991e-53
1.6042634e-53
1.4108297e-53
1.6461352e-53
1.4717055e-53
1.2445504e-53
1.4262426e-53
1.5270453e-53
1.3392594e-53
1.499144e-53
1.2367052e-53
1.5842006e-53
1.3165859e-53
6.639005e-53
2.2367294e-53
3.1939419e-53
1.8991723e-53
7.2617609e-54
7.7833989e-54
7.7144511e-54
7.5351296e-54
8.1078968e-54
9.2977126e-54
9.1891951e-54
8.4172035e-54
8.9565353e-54
9.502214e-54
9.5130776e-54
9.0856502e-54
8.538459e-54
9.5976046e-54
9.9817187e-54
9.703401e-54
8.9853147e-54
9.5539765e-54
9.357991e-54
9.2267121e-54
8.7515941e-54
9.7082756e-54
1.005161e-53
9.6242724e-54
8.9217493e-54
9.1714184e-54
9.5147822e-54
9.2386798e-54
1.7197544e-53
1.6648061e-53
7.8584223e-54
8.4457477e-54
9.1450312e-54
8.8331355e-54
1.743239e-53
1.8030606e-53
1.8544858e-53
1.8926024e-53
1.8650132e-53
1.8016264e-53
2.9427345e-53
2.8891841e-53
1.5455734e-53
1.6658656e-53
1.7539261e-53
1.7646987e-53
3.1243444e-53
2.9066774e-53
1.6807702e-53
1.7423785e-53
1.8120205e-53
1.7936759e-53
3.1773104e-53
3.0647637e-53
3.1167448e-53
3.2932459e-53
9.854479e-53
9.8429291e-53
7.3900559e-53
1.1168536e-52
9.1473004e-53
6.4964132e-53
1.0708466e-52
1.4462581e-52
2.7392168e-53
2.6724565e-53
2.0732657e-53
2.0833315e-53
3.1873292e-53
2.3153604e-53
2.2850919e-53
1.9875684e-53
2.1147912e-53
3.1720263e-53
2.3167652e-53
2.1888418e-53
1.7388254e-53
3.3701041e-53
3.7415574e-53
3.8259202e-53
3.6737667e-53
3.1825387e-53
3.2890694e-53
3.1018875e-53
3.5779845e-53
3.9642749e-53
3.7318572e-53
3.3141458e-53
3.2924051e-53
1.7924167e-53
2.5316286e-53
3.2672946e-53
2.9509186e-53
3.9376599e-53
4.2823863e-53
2.0936228e-53
2.0840178e-53
4.2113355e-53
3.8738021e-53
2.2690561e-53
2.2005713e-53
2.2915542e-53
2.4422617e-53
1.5086625e-53
6.6935753e-54
6.8777827e-54
5.6732579e-54
9.2931266e-54
1.4636819e-53
9.3797234e-54
6.1101885e-54
7.002538e-54
7.298317e-54
5.3669901e-54
5.8763334e-54
2.0338246e-54
7.7256517e-54
7.8662184e-54
1.195189e-53
1.2277165e-53
2.0034714e-54
2.0288629e-54
2.0513368e-54
9.31262e-54
1.4086843e-53
1.4858808e-53
9.5772514e-54
1.1994624e-53
7.7965467e-54
7.7797146e-54
1.2236301e-53
1.9609876e-54
1.9853017e-54
2.0782063e-54
2.0953362e-54
1.9379757e-53
3.9906581e-53
1.9784843e-53
3.8372221e-53
4.1756706e-53
3.8635677e-53
2.11732e-53
2.1415312e-53
1.461591e-53
1.5510016e-53
9.648028e-54
9.9092227e-54
7.9541565e-54
8.254657e-54
1.3064306e-53
1.2211429e-53
9.8885146e-54
1.3245595e-53
1.0514894e-53
1.4265969e-53
1.1775934e-53
8.019274e-54
1.2472519e-53
8.1384091e-54
3.2330817e-53
3.4417465e-53
3.4378302e-53
3.3667759e-53
3.0957442e-53
2.8955772e-53
3.1041322e-53
3.4546021e-53
3.6093637e-53
3.4887317e-53
3.1356219e-53
3.0831271e-53
1.7427239e-53
3.5619194e-53
3.5322124e-53
1.7926915e-53
1.9366191e-53
3.9258209e-53
1.9163001e-53
3.6784388e-53
4.0421733e-53
2.0203151e-53
1.9975602e-53
3.8111999e-53
3.7313147e-53
3.8952018e-53
1.8912687e-53
1.9007731e-53
1.0365895e-53
1.1501274e-53
1.2411254e-53
1.1141521e-53
1.1069734e-53
1.293457e-53
1.3471549e-53
1.1232461e-53
1.0751402e-53
8.1136977e-54
8.3040539e-54
1.1655395e-53
1.166273e-53
8.5418691e-54
8.2873357e-54
1.1790271e-53
1.2671845e-53
1.355877e-53
1.0316157e-53
1.0292653e-53
1.1987817e-53
8.2088652e-54
8.1859096e-54
1.2309641e-53
1.0114192e-53
1.3666848e-53
1.4277649e-53
1.0447555e-53
1.2066094e-53
8.3138303e-54
8.1014591e-54
1.1955484e-53
5.150405e-53
4.7651414e-53
4.7137421e-53
2.2659925e-53
1.7352564e-53
4.4849466e-53
4.7343561e-53
4.592613e-53
2.0822079e-53
2.0595746e-53
2.3235657e-53
2.3537128e-53
2.0366685e-53
2.1166928e-53
2.4438336e-53
2.346675e-53
3.280863e-53
2.3401063e-53
2.1833666e-53
3.4750929e-53
2.0201527e-53
2.3177355e-53
5.4700361e-53
4.5086508e-53
4.5585685e-53
4.728889e-53
4.70041e-53
4.9548985e-53
3.0634145e-53
2.2333296e-53
1.95868e-53
3.1692829e-53
3.9905297e-53
3.9972375e-53
5.9402312e-53
6.2843072e-53
4.2448437e-53
4.2803153e-53
6.6351121e-53
6.2684648e-53
7.7175102e-53
7.5817428e-53
3.249086e-52
3.351041e-52
7.9800552e-53
7.5524792e-53
3.4073383e-52
3.0142534e-52
4.4359183e-53
4.314323e-53
6.8508927e-53
6.7700566e-53
8.2910466e-53
8.1368404e-53
3.2173158e-52
3.2842864e-52
8.2580429e-53
7.8177844e-53
3.1632504e-52
2.8455462e-52
4.242202e-53
4.1884879e-53
6.8367564e-53
6.3020056e-53
2.9063429e-53
2.9514425e-53
3.0623722e-53
3.0118947e-53
3.7491511e-53
3.9928258e-53
2.7536377e-53
2.8114109e-53
3.9198499e-53
3.9742089e-53
2.8038257e-53
2.7698411e-53
2.839589e-53
6.9432926e-53
2.9290634e-53
7.475708e-53
2.8627096e-53
2.9983682e-53
7.7007369e-53
7.4779045e-53
3.9888562e-53
3.9113828e-53
2.86757e-53
2.8687427e-53
2.9744031e-53
3.0336074e-53
7.4128639e-53
7.5744867e-53
4.1042554e-53
3.8920818e-53
2.8052172e-53
2.893914e-53
3.0528711e-53
2.907594e-53
7.5698416e-53
7.1862565e-53
3.0082883e-53
3.0853005e-53
3.0084461e-53
3.1021131e-53
4.0265914e-53
4.0458681e-53
3.0724558e-53
3.0714811e-53
3.0215707e-53
7.142336e-53
7.1774892e-53
3.0733406e-53
4.1046058e-53
3.8690338e-53
2.9470575e-53
3.0761107e-53
3.0881738e-53
7.028171e-53
3.002342e-53
6.5228525e-53
4.1140876e-53
3.8652195e-53
2.8303e-53
2.9595077e-53
4.0903451e-53
4.0365523e-53
2.9853433e-53
3.027785e-53
2.9701198e-53
3.0530406e-53
7.4400046e-53
7.1596695e-53
7.5219886e-53
7.1644888e-53
3.1563738e-53
3.0217092e-53
3.1968683e-53
3.2851242e-53
3.2213909e-53
3.2299451e-53
2.6897793e-53
2.8808574e-53
3.0022951e-53
3.253959e-53
3.2069352e-53
3.3247481e-53
2.8169757e-53
2.8861302e-53
3.2060859e-53
3.3761282e-53
3.3782802e-53
3.4405112e-53
2.8899259e-53
3.0289909e-53
3.0040655e-53
3.3014711e-53
3.4683068e-53
2.9343788e-53
3.325842e-53
2.9825353e-53
3.2899459e-53
3.2346069e-53
1.5932973e-53
1.6369677e-53
1.7259613e-53
3.5316234e-53
3.4525688e-53
1.71808e-53
1.7081739e-53
3.4718929e-53
1.7205287e-53
3.4274282e-53
3.5855464e-53
3.4560446e-53
1.735893e-53
1.7556599e-53
1.0964508e-53
9.8600103e-54
1.0536726e-53
1.1747672e-53
1.2057232e-53
1.0853269e-53
1.1179507e-53
1.2043004e-53
9.1736124e-54
8.2194387e-54
8.5681989e-54
9.9300675e-54
8.6204984e-54
8.8513558e-54
1.0316494e-53
1.0395408e-53
1.1324413e-53
1.071761e-53
1.1220277e-53
1.1441926e-53
1.1123364e-53
1.1398632e-53
1.1854062e-53
1.1549352e-53
1.0537268e-53
8.5874877e-54
8.6126567e-54
1.0975563e-53
1.0735724e-53
8.6903882e-54
8.5334292e-54
1.0701596e-53
3.7651106e-53
3.5768363e-53
1.8296976e-53
1.8625813e-53
3.5456714e-53
3.6176509e-53
1.7751229e-53
1.7906325e-53
1.7111132e-53
3.5269658e-53
3.529665e-53
1.7457536e-53
1.8447983e-53
3.7502813e-53
3.6004239e-53
1.8241796e-53
1.1442869e-53
1.0828004e-53
1.1575531e-53
1.2007523e-53
1.2157805e-53
1.1933602e-53
1.2296571e-53
1.1875758e-53
1.0667573e-53
8.4681732e-54
8.6658058e-54
1.1409125e-53
8.5371419e-54
8.8934648e-54
1.1423369e-53
1.1282256e-53
1.2158642e-53
1.1536149e-53
1.103416e-53
1.1226141e-53
1.1154835e-53
8.4116301e-54
8.4842592e-54
1.1425463e-53
1.1276658e-53
1.2094399e-53
1.2321823e-53
1.1256115e-53
8.2476661e-54
8.543616e-54
1.0951425e-53
1.0763626e-53
1.553834e-53
1.5057701e-53
1.4834025e-53
1.4289755e-53
1.5839883e-53
1.6900227e-53
1.5760558e-53
1.6084292e-53
8.491049e-54
2.8846942e-53
7.8067957e-54
1.9194546e-53
9.178955e-54
2.6435953e-53
8.8786289e-54
1.982896e-53
1.4249605e-53
1.5508549e-53
1.5933164e-53
1.5987944e-53
1.6339607e-53
1.7101209e-53
1.6450402e-53
1.5925109e-53
1.5154416e-53
1.4246697e-53
1.5362925e-53
1.5399763e-53
1.5721153e-53
1.521165e-53
1.4679565e-53
1.407598e-53
1.2279882e-53
2.5799345e-53
1.1017538e-53
2.7850113e-53
8.8784093e-54
8.7588709e-54
1.329848e-53
1.2960715e-53
3.0094907e-53
3.1523567e-53
8.8430584e-54
9.3005892e-54
1.4904779e-53
1.4082769e-53
1.4061179e-53
1.4409763e-53
3.2697335e-53
3.0726278e-53
8.8161016e-54
9.8218644e-54
3.0887864e-53
3.328585e-53
9.8749142e-54
9.8281081e-54
3.3607041e-53
3.4147758e-53
1.0328166e-53
9.5996729e-54
3.0636908e-53
3.3042696e-53
9.808174e-54
9.6416342e-54
3.1476391e-53
2.9577977e-53
9.0964546e-54
1.0012815e-53
3.3234068e-53
3.4427281e-53
9.959584e-54
9.9677944e-54
2.3226797e-53
2.8743045e-53
3.0020348e-53
2.4836072e-53
2.8609317e-53
2.6421608e-53
2.3909482e-53
2.3756463e-53
3.2805273e-53
3.098214e-53
2.6324057e-53
2.6311967e-53
2.7734418e-53
3.1229014e-53
2.3018164e-53
2.4673311e-53
2.5981042e-53
2.30894e-53
7.4157416e-54
8.1975349e-54
8.570719e-54
2.7852837e-53
2.7339941e-53
8.8854665e-54
3.1746693e-53
3.0302387e-53
8.6495303e-54
9.2787203e-54
2.987884e-53
3.0694718e-53
9.0593014e-54
9.2190223e-54
3.1664025e-53
2.9838129e-53
8.5734626e-54
9.4907141e-54
3.1533208e-53
3.230708e-53
9.5308136e-54
9.6166339e-54
3.2476017e-53
3.1879989e-53
9.0653788e-54
9.6211287e-54
2.989766e-53
3.1214802e-53
9.395264e-54
9.4073322e-54
2.3964334e-53
2.8211786e-53
3.1738052e-53
2.5343092e-53
3.3113049e-53
3.2801279e-53
2.7059307e-53
2.5798492e-53
3.3275523e-53
3.5283927e-53
2.641948e-53
2.6127827e-53
3.3328337e-53
2.9847857e-53
2.6151324e-53
2.7048864e-53
4.9786153e-54
4.7716916e-54
4.7480575e-54
4.9874061e-54
4.6611804e-54
4.3641971e-54
4.9412661e-54
5.1868412e-54
5.077562e-54
5.0943691e-54
4.8257403e-54
4.8619809e-54
4.6765078e-54
4.5056888e-54