/*--------------------------------*- C++ -*----------------------------------*\
  =========                 |
  \\      /  F ield         | OpenFOAM: The Open Source CFD Toolbox
   \\    /   O peration     | Website:  https://openfoam.org
    \\  /    A nd           | Version:  7
     \\/     M anipulation  |
\*---------------------------------------------------------------------------*/
FoamFile
{
    version     2.0;
    format      ascii;
    class       volScalarField;
    location    "2000";
    object      nut;
}
// * * * * * * * * * * * * * * * * * * * * * * * * * * * * * * * * * * * * * //

dimensions      [0 2 -1 0 0 0 0];

internalField   nonuniform List<scalar> 
34222
(
1.2860674e-14
6.5325063e-15
1.904043e-14
9.9028619e-15
7.6655016e-15
1.5875681e-14
2.2311277e-14
5.7794536e-15
7.8518839e-15
4.5751007e-15
5.1426218e-15
8.7999409e-15
6.4413973e-15
2.5440838e-14
2.5437087e-14
1.542155e-14
1.4678486e-14
2.3902938e-14
1.0681129e-14
1.0119843e-14
1.3471647e-14
2.3131896e-14
3.2690061e-13
6.4683259e-15
5.8604944e-15
6.0134268e-15
4.5063158e-15
4.6159766e-15
4.5804545e-15
9.044321e-15
1.2644372e-14
7.8914434e-15
7.0799261e-15
8.8075135e-15
5.8233309e-15
1.0248774e-14
8.0229444e-15
7.9458478e-15
9.0907877e-15
7.5761233e-15
1.2113067e-14
1.6690923e-14
2.0846464e-14
2.7715516e-14
1.0662614e-14
1.0128072e-14
4.5742776e-14
6.2195079e-15
3.3469524e-15
4.540598e-15
6.8169132e-15
8.9198407e-13
1.2959049e-13
1.1237149e-13
2.4747891e-13
2.877251e-14
1.261261e-14
7.9959157e-15
5.8873396e-15
7.6838034e-15
5.4818616e-15
4.7776673e-15
5.3891264e-15
4.258818e-15
5.3676216e-15
4.7889133e-15
4.5346672e-15
3.2369653e-15
8.3614154e-15
9.3278467e-15
1.0024626e-14
9.1220851e-15
9.3149857e-15
1.0453247e-14
9.0980581e-15
9.0159438e-15
1.0744285e-14
1.0672743e-14
1.3326143e-14
1.2831954e-14
1.3667587e-14
7.5721227e-15
1.4606548e-15
2.9319275e-15
3.793342e-15
3.7485241e-15
6.7308635e-15
6.1634229e-15
8.1215688e-15
1.0672732e-14
1.73312e-14
7.6452237e-15
1.0184205e-14
2.1158641e-14
4.7223032e-15
6.5205867e-15
5.6955877e-15
7.0685629e-15
7.6028324e-15
4.824317e-15
7.8783283e-15
1.0326548e-14
1.5525816e-14
5.3522287e-13
1.3601395e-14
1.2457667e-12
4.4179947e-13
5.3084204e-14
2.2546333e-14
2.8358208e-14
6.4956289e-14
3.8881713e-14
6.0462059e-14
5.5945044e-14
1.9216971e-14
1.5780695e-13
2.5157207e-14
1.0713309e-13
2.3349782e-14
1.9063446e-14
3.6282745e-13
5.929325e-15
3.9320213e-15
8.1920134e-15
3.7684956e-15
6.6556555e-15
9.0177311e-15
8.0721327e-15
6.6843227e-15
6.8838404e-15
6.3327431e-15
4.5599579e-15
4.8627288e-15
5.7389004e-15
4.6001352e-15
1.846336e-14
1.0136565e-14
7.5867001e-15
5.0892586e-15
3.8274219e-15
1.3651243e-14
3.8490841e-15
2.9812217e-15
8.650628e-16
6.7315502e-15
5.1141221e-15
3.497666e-15
1.1004998e-14
1.0099472e-14
1.3081051e-14
1.3122773e-14
1.317612e-14
6.616762e-15
7.616287e-15
9.0360765e-15
7.1417392e-15
8.2706131e-15
8.6405208e-15
9.5612925e-15
1.1040684e-14
6.1373407e-15
7.1716733e-15
8.6233301e-15
3.1413908e-14
4.5340435e-15
2.1189274e-15
6.3337707e-15
1.960997e-15
4.9763904e-15
4.2922175e-15
5.0306155e-15
5.3013941e-15
8.3639533e-15
1.5229805e-14
1.6263214e-14
3.8338777e-15
2.8287648e-15
3.4004415e-15
3.8444094e-15
4.5734714e-15
6.0516092e-15
4.7398387e-15
8.3299224e-15
8.0760542e-15
1.1471731e-14
3.5190757e-14
5.9661737e-15
4.8793539e-15
3.3504881e-14
3.1334105e-14
1.0816258e-13
2.9167287e-13
3.0193881e-14
2.6159419e-13
2.1487226e-14
2.4392515e-14
4.0056991e-15
4.7689698e-15
3.4868941e-14
1.7134949e-14
1.3673257e-12
5.3095963e-13
7.2067458e-13
2.4792775e-14
2.7519199e-14
2.1576895e-13
2.6516302e-13
2.0413088e-14
2.4268467e-14
1.5110967e-14
1.2820876e-14
1.0154189e-14
1.1059055e-14
9.568543e-15
8.2974943e-15
1.4964757e-14
2.4301799e-14
2.3970018e-14
1.4759932e-14
2.5989172e-14
2.4514213e-14
1.8149422e-14
1.6383917e-14
2.2035782e-14
2.4031481e-14
1.3417349e-14
1.5731815e-14
6.7909166e-14
3.0995848e-14
7.357281e-14
4.7282469e-14
9.8933702e-14
1.6060553e-14
5.2035122e-14
2.2221156e-14
5.6469475e-14
1.7895148e-14
1.3630278e-14
9.3312473e-14
7.8662402e-15
7.6987115e-15
6.9321356e-15
5.8628554e-15
8.0060469e-15
6.0509891e-15
8.5375142e-15
8.9305841e-15
3.9428275e-15
3.8168875e-15
5.17287e-15
4.3221969e-15
4.1735656e-15
6.3872878e-15
4.3440577e-15
1.5718466e-15
3.5817216e-15
6.6441283e-15
3.8187762e-15
7.8049659e-15
6.4236052e-15
5.3072434e-15
7.6843061e-15
6.2544528e-15
6.7149693e-15
6.1593569e-15
6.8237648e-15
4.4718877e-15
6.6550179e-15
4.5167036e-15
1.6723772e-15
4.7350021e-15
5.3909594e-15
7.2434236e-15
5.3245805e-15
7.0472547e-15
1.5909901e-14
1.3813719e-14
1.3532716e-14
8.6392395e-15
9.1756484e-15
1.1138935e-14
9.4426741e-15
4.5037897e-15
2.3576089e-15
1.3870737e-14
1.376844e-14
6.1492064e-15
9.0179471e-15
7.0491675e-15
1.2891466e-15
3.5341014e-15
6.9595089e-15
4.4374146e-15
1.9804762e-15
1.0862558e-15
8.8977084e-15
8.9460569e-15
4.799799e-15
8.9160216e-15
9.9271429e-15
5.7216972e-15
6.1059068e-15
9.9002789e-15
9.958354e-15
1.0943133e-14
1.127437e-14
1.1482377e-14
1.0035987e-14
1.2536128e-14
1.4529113e-14
1.4231826e-14
6.4646415e-15
1.369779e-14
8.4439135e-15
7.412857e-15
8.1984607e-15
6.0231083e-15
6.3822486e-15
1.0962267e-14
7.414942e-15
4.9112868e-15
3.8627651e-15
3.7246947e-15
1.5471239e-14
3.7668291e-15
7.9030382e-15
1.7934549e-14
6.6533013e-15
2.8051762e-15
5.9196156e-15
1.7032762e-15
2.1551897e-15
6.2700883e-15
4.4869494e-15
4.3264258e-15
2.6231184e-15
2.990285e-15
4.2304093e-15
7.4413924e-15
6.010427e-15
9.390445e-15
6.3627598e-15
5.7731625e-15
9.3901188e-15
1.5479843e-14
2.5786381e-14
2.3595848e-14
1.4486621e-14
2.808023e-14
9.5175222e-15
8.3513499e-15
9.5085515e-15
2.093583e-14
1.2227872e-13
2.4374115e-14
2.7739488e-14
1.304593e-13
1.5046146e-14
1.438277e-14
2.4256862e-14
2.4440857e-14
2.3711818e-14
2.5173566e-14
1.1227967e-13
1.2881656e-13
3.1900265e-14
6.67353e-15
6.2524586e-15
3.1162238e-14
9.3353951e-15
5.319746e-15
6.3154442e-15
9.4330228e-15
2.602719e-14
4.8548921e-15
4.1240613e-15
2.404769e-14
3.2277438e-14
2.1246774e-14
5.5478923e-13
7.315771e-13
2.6527042e-14
2.9133625e-14
2.1868212e-13
2.7229509e-13
3.3990668e-14
3.4546178e-14
3.2562315e-13
2.8522202e-13
1.5104772e-14
1.3749228e-14
2.3323617e-14
2.3648997e-14
1.4715633e-14
1.5758543e-14
2.560247e-14
2.349743e-14
2.3556326e-14
2.5298392e-14
1.0825151e-13
1.3066308e-13
2.7772763e-14
2.7573359e-14
1.3443551e-13
1.318123e-13
1.0274317e-14
9.0433472e-15
8.8593521e-15
7.8626801e-15
1.0807723e-14
1.0696956e-14
9.2043616e-15
9.1719832e-15
7.1398845e-15
6.3812872e-15
2.5727641e-15
3.039945e-15
7.8894726e-15
8.3122426e-15
3.16204e-15
3.0265489e-15
1.0618767e-14
1.130334e-14
1.0535438e-14
9.0458778e-15
1.2392525e-14
1.08434e-14
9.024108e-15
1.0147423e-14
1.1412703e-14
1.1640822e-14
1.0043942e-14
9.5744255e-15
1.2283768e-14
1.0561138e-14
9.003735e-15
1.0573799e-14
9.597845e-15
1.0419319e-14
9.857086e-15
8.3303198e-15
2.4078013e-14
1.202027e-14
1.1177346e-14
9.8386633e-15
1.0635483e-14
1.4187289e-14
1.7464501e-14
2.6631173e-14
2.434674e-14
2.512928e-14
1.6538697e-14
1.6110978e-14
5.6345802e-14
5.6844546e-14
2.1586669e-14
1.9443431e-14
2.1413629e-14
1.2334922e-14
2.2480007e-14
1.3513525e-14
2.4538497e-14
2.3822337e-14
1.5910683e-14
1.4631072e-14
5.1766631e-14
5.301861e-14
1.5984607e-14
2.1358468e-14
7.1469764e-15
4.2465591e-15
4.4487724e-15
3.802051e-15
3.7758576e-15
4.3736011e-15
3.1660755e-15
4.735638e-15
3.2477088e-15
6.1402249e-15
7.4747998e-15
7.1143374e-15
4.6521153e-15
4.0264e-15
4.8446277e-15
4.0769665e-15
5.3616031e-15
5.2393161e-15
5.645204e-15
5.918649e-15
4.3539538e-15
3.3314944e-15
4.5768262e-15
3.3927826e-15
8.4918503e-15
7.5327947e-15
8.02274e-15
7.5098802e-15
5.8863486e-15
5.9354491e-15
6.0757354e-15
5.5763889e-15
2.9954331e-15
2.7539103e-15
3.339001e-15
3.0417282e-15
1.9569399e-15
2.1110149e-15
3.0399761e-15
3.2180496e-15
2.9558554e-15
3.0166946e-15
3.9255437e-15
3.8539949e-15
3.561947e-15
3.7239944e-15
4.855885e-15
4.5634389e-15
5.3452655e-15
4.2288266e-15
4.1133857e-15
3.8003165e-15
3.8368181e-15
4.7250403e-15
3.9104902e-15
4.9208674e-15
3.9939821e-15
4.5011127e-15
4.4343624e-15
4.5410407e-15
4.6326233e-15
3.1578828e-15
3.2773872e-15
3.653335e-15
3.5711018e-15
2.3079695e-15
2.4682347e-15
4.2459095e-15
4.3799835e-15
5.9026e-15
6.048449e-15
1.7221537e-15
3.9904523e-15
9.3298328e-15
7.8015688e-15
9.4365916e-15
1.1647649e-14
5.3163315e-15
7.6311015e-15
4.6233702e-15
4.6448168e-15
6.5992572e-15
1.6182174e-15
7.7707404e-15
7.1533026e-15
3.7985201e-15
5.2837268e-15
6.5283272e-15
5.1078793e-15
5.453684e-15
1.0162178e-14
1.0863076e-14
5.8695387e-15
4.7487749e-15
4.7273502e-15
5.332365e-15
1.7458478e-14
1.3543619e-14
1.1269671e-14
1.1990614e-14
1.0182381e-14
9.8414542e-15
4.108187e-15
4.621524e-15
4.3665747e-15
4.2053592e-15
3.6416111e-15
3.6805891e-15
3.1693874e-15
3.2948543e-15
2.357091e-15
4.2864916e-15
4.6147737e-15
4.4422683e-15
4.1820407e-15
3.7275924e-15
3.6957446e-15
3.2071411e-15
3.3312044e-15
2.1662946e-15
2.5510042e-15
2.5285921e-15
1.3750944e-14
1.6327989e-14
1.0571271e-14
4.9045931e-15
5.8957279e-15
1.6097389e-15
1.8768457e-15
2.172455e-15
9.3655232e-15
8.128228e-15
7.4696228e-15
8.3653511e-15
8.5328657e-15
8.9528919e-15
8.5411844e-15
7.855794e-15
6.1983764e-15
6.0376425e-15
6.2551814e-15
6.1094068e-15
5.615358e-15
5.9606837e-15
5.5185171e-15
5.8253506e-15
4.4046514e-15
1.0270538e-15
6.4452275e-15
4.3382255e-15
9.6039028e-15
8.7261308e-15
7.5859842e-15
1.5270669e-15
4.131837e-15
1.2228253e-14
5.1228194e-15
2.5343956e-15
5.850254e-15
5.651904e-15
6.145555e-15
6.1366537e-15
2.7303779e-15
3.2864512e-15
3.1856641e-15
3.1724615e-15
6.9379747e-15
6.5628322e-15
6.0448281e-15
6.6232059e-15
7.1156161e-15
6.6949736e-15
6.4486912e-15
6.5245225e-15
6.8590931e-15
6.9109461e-15
1.1057635e-14
5.6546804e-15
6.4414759e-15
1.2084834e-14
1.161387e-14
1.1524635e-14
1.0600059e-14
9.6163906e-15
1.0774624e-14
1.2383189e-14
1.1014676e-14
1.0783463e-14
1.2002827e-14
1.1263249e-14
4.951565e-15
6.5863814e-15
6.2100287e-15
5.9416286e-15
2.9713489e-15
6.4036823e-15
1.8104979e-15
1.3950098e-15
5.7654947e-15
6.8984625e-15
3.1472837e-15
5.5984883e-15
1.7484492e-15
2.0610867e-15
9.5327254e-15
6.6101283e-15
6.3338132e-15
8.063448e-15
2.0921836e-14
1.8059478e-14
1.799905e-14
1.1766059e-14
8.452041e-15
2.1346041e-14
1.686407e-14
1.8108874e-14
9.5300226e-15
9.6478424e-15
7.8721158e-15
1.4073499e-14
1.2924531e-14
1.0162568e-14
1.0540217e-14
1.1403125e-14
1.163582e-14
5.397692e-15
5.1662355e-15
3.2376377e-15
3.4301328e-15
4.0534071e-15
9.926032e-15
4.8672046e-15
3.4387734e-15
3.564404e-15
4.3446689e-15
4.3467819e-15
2.6259358e-15
2.4208218e-14
2.9148705e-15
3.1246771e-15
2.6710323e-15
9.7336607e-15
2.4237889e-14
2.8905996e-15
2.9031823e-15
3.2780682e-15
3.3171073e-15
1.4046138e-14
1.3729178e-14
9.5564093e-15
1.0118379e-14
9.5883072e-15
2.4195439e-14
8.8225109e-15
2.2762613e-14
9.2503259e-15
9.6926485e-15
9.4329285e-15
1.0067973e-14
1.3438522e-14
1.3421899e-14
1.4088603e-14
1.2883266e-14
1.0516463e-14
1.0080977e-14
8.6182421e-15
9.6202434e-15
2.2455963e-14
2.5039517e-14
9.7018565e-15
2.5600657e-14
1.0086456e-14
2.6792806e-14
9.6567333e-15
5.8533641e-15
5.8619743e-15
9.1033551e-15
2.030904e-14
1.6786104e-14
1.8182768e-14
8.5049443e-15
9.5121723e-15
2.0689461e-14
1.6870498e-14
1.5596697e-14
2.5343758e-14
6.3609998e-15
6.418258e-15
2.8987433e-14
4.9684218e-15
4.7365318e-15
9.7683071e-15
9.1939117e-15
2.2073238e-14
4.7650081e-15
5.9595547e-15
2.5746107e-14
2.8654265e-14
3.3521745e-14
2.5021155e-13
3.3158528e-13
3.4280895e-14
2.5319045e-13
2.8871183e-13
3.1259077e-14
1.6158966e-14
1.4363659e-14
2.3642816e-14
2.4079792e-14
2.5190666e-14
1.6168143e-14
1.5273897e-14
2.2918745e-14
2.5109141e-14
2.6825676e-14
1.1285516e-13
1.3553996e-13
2.9675009e-14
1.4411259e-13
2.9596782e-14
1.4021053e-13
2.3854991e-14
1.4549477e-14
1.5726537e-14
2.4268738e-14
2.4383684e-14
1.5082297e-14
1.4876511e-14
2.3348439e-14
2.8371375e-14
1.4058881e-13
2.788276e-14
1.3833796e-13
2.5459891e-14
2.7131377e-14
1.2415787e-13
1.42629e-13
9.2516444e-15
9.5422596e-15
9.3651674e-15
9.4900084e-15
1.3568936e-14
1.3563551e-14
9.5325581e-15
1.0199029e-14
1.4016963e-14
1.2580803e-14
1.0244192e-14
1.0639855e-14
8.5013838e-15
9.5924144e-15
2.059904e-14
2.3372333e-14
9.8136343e-15
1.0132229e-14
2.5231814e-14
2.5479121e-14
1.4006601e-14
1.2744336e-14
1.0457602e-14
1.0181304e-14
1.3775403e-14
1.41792e-14
9.6093159e-15
1.0108308e-14
8.9032511e-15
9.763808e-15
2.2797772e-14
2.4708136e-14
9.8113919e-15
2.5558982e-14
1.0071644e-14
2.6144923e-14
6.1379838e-15
6.4697968e-15
2.6069251e-15
2.6660364e-15
5.9075368e-15
6.9208581e-15
2.7778632e-15
2.5633389e-15
2.7881054e-15
7.0721895e-15
7.1981778e-15
3.032658e-15
6.8094016e-15
7.7181144e-15
3.1019514e-15
2.8143717e-15
3.6078657e-15
3.201617e-15
3.648876e-15
3.653449e-15
2.8303548e-15
7.1840643e-15
7.4354589e-15
3.0374663e-15
3.3213513e-15
8.8541965e-15
7.4136514e-15
3.1537892e-15
3.0870344e-15
7.5405271e-15
7.9282088e-15
3.2193255e-15
3.2897116e-15
9.1938488e-15
7.0288104e-15
2.9093379e-15
7.1977095e-15
7.3705288e-15
2.9605517e-15
3.2425744e-15
6.9677908e-15
8.3753452e-15
3.3173409e-15
3.1373409e-15
7.3113081e-15
7.3596944e-15
3.0114477e-15
3.1961927e-15
3.1512759e-15
8.2599826e-15
6.6368346e-15
2.8816297e-15
5.8978367e-15
5.64516e-15
1.0170257e-14
2.497804e-15
2.7747132e-15
6.253424e-15
7.0323425e-15
2.92036e-15
2.8051828e-15
7.9962368e-15
1.1958118e-14
9.3304822e-15
7.2263946e-15
7.3695066e-15
2.9886902e-15
3.1026867e-15
6.899463e-15
7.9812948e-15
3.178248e-15
2.9685488e-15
1.1367999e-14
1.1553372e-14
1.0300878e-14
9.7783174e-15
1.2644489e-14
1.1443935e-14
9.550715e-15
1.1005065e-14
1.1589852e-14
1.1919103e-14
1.0560388e-14
1.0106539e-14
2.3295948e-14
1.4245066e-14
2.1993086e-14
1.2446962e-14
2.2542594e-14
1.3638662e-14
2.1505644e-14
1.2619862e-14
7.2653897e-15
9.6151268e-15
1.0191953e-14
8.4639607e-15
1.1613052e-14
1.0748745e-14
8.7170432e-15
8.1009979e-15
1.1131665e-14
1.1226041e-14
8.4721103e-15
8.9032695e-15
9.2379055e-15
1.2079747e-14
1.0814175e-14
8.2113167e-15
1.2429435e-14
2.1152854e-14
2.2274779e-14
1.4474041e-14
2.5963998e-14
2.2858094e-14
1.7368505e-14
1.4532353e-14
4.116586e-15
3.8640301e-15
4.0377105e-15
3.5611143e-15
1.3866616e-15
1.3227326e-15
1.3770284e-15
1.4441806e-15
1.4649309e-15
1.3881273e-15
1.5008606e-15
1.4199152e-15
1.2362501e-15
1.3521489e-15
1.1990891e-15
1.4839767e-15
1.42972e-15
1.2301281e-15
1.4002742e-15
1.2334073e-15
4.2309405e-15
1.492269e-15
1.5147148e-15
1.5117761e-15
1.5887651e-15
2.8599702e-15
1.7768359e-15
1.2889737e-15
1.2968881e-15
1.9323478e-15
1.5763637e-15
1.5948808e-15
1.5626618e-15
1.5439174e-15
1.8548386e-15
1.8635061e-15
1.2909977e-15
1.2785069e-15
4.2444768e-15
3.0082401e-15
4.4086966e-15
4.0741522e-15
4.5510911e-15
3.9718254e-15
4.5860532e-15
3.3057006e-15
4.8900135e-15
3.2771668e-15
4.2683392e-15
2.2327205e-15
2.2860117e-15
2.0118295e-15
2.0328267e-15
2.0536892e-15
3.6326637e-15
1.647967e-15
1.9971547e-15
1.6179825e-15
2.1790461e-15
2.3358792e-15
2.1036299e-15
2.4217426e-15
2.0547789e-15
1.6758586e-15
1.7029344e-15
2.1770855e-15
4.3723359e-15
3.8342471e-15
3.9966147e-15
3.9086874e-15
3.1201904e-15
2.9507323e-15
4.6502359e-15
4.8369086e-15
4.1088791e-15
4.1134089e-15
4.4361764e-15
3.5023537e-15
4.6161617e-15
3.4943069e-15
1.7584976e-15
1.5945296e-15
1.6230838e-15
1.8115557e-15
1.3493414e-15
1.603291e-15
1.3125629e-15
1.6700586e-15
1.7128204e-15
1.8637648e-15
1.6958813e-15
1.9330371e-15
1.6723962e-15
1.3630322e-15
1.366103e-15
1.7165499e-15
4.8159924e-15
4.473452e-15
4.7926415e-15
4.187253e-15
5.0381011e-15
4.9973152e-15
3.5534398e-15
3.3740867e-15
4.3014291e-15
3.8255099e-15
4.6452084e-15
3.9804346e-15
4.5312727e-15
3.2965596e-15
5.0135537e-15
3.4829817e-15
4.3433928e-15
3.3146569e-15
4.7206341e-15
3.5132142e-15
4.7087216e-15
4.0143411e-15
5.1040189e-15
4.247206e-15
5.0404024e-15
4.3654904e-15
5.0302076e-15
4.2005711e-15
4.5815419e-15
3.5933243e-15
4.5226622e-15
3.436415e-15
2.0478561e-15
2.2302362e-15
2.2880346e-15
2.2896799e-15
2.5322281e-15
1.9306992e-15
1.9093844e-15
1.9844977e-15
2.1525633e-15
2.1088401e-15
2.9704133e-15
3.2845159e-15
2.9594676e-15
3.150138e-15
2.7801895e-15
2.7965907e-15
2.7437459e-15
2.6911752e-15
2.4725169e-15
9.6789223e-15
9.7088212e-15
6.3345774e-15
6.4385949e-15
5.2124053e-15
5.4792378e-15
4.5089451e-15
4.5082857e-15
5.4662565e-15
5.6593063e-15
4.7810881e-15
4.7847082e-15
5.6478278e-15
4.6096849e-15
3.541527e-15
3.5740966e-15
4.6433327e-15
4.7299691e-15
3.5981806e-15
3.641396e-15
4.9176458e-15
4.1382118e-15
3.9134616e-15
4.4362982e-15
4.0587606e-15
4.7477358e-15
5.0458902e-15
3.9983024e-15
4.0760675e-15
4.4077169e-15
4.3232423e-15
3.6356015e-15
3.4783133e-15
3.9007402e-15
3.6935933e-15
3.8475908e-15
3.5744932e-15
4.7097165e-15
4.1241882e-15
4.0687289e-15
4.7369935e-15
3.9792718e-15
3.1572377e-15
4.0757011e-15
3.1251868e-15
3.0257337e-15
3.4521923e-15
3.0720479e-15
3.4545216e-15
4.2026093e-15
4.0757513e-15
3.4876633e-15
3.4665978e-15
3.9551357e-15
3.8902213e-15
3.3271809e-15
3.3384942e-15
3.3600376e-15
2.6170135e-15
3.2950647e-15
2.5831629e-15
3.4033963e-15
2.668514e-15
2.686749e-15
3.463769e-15
2.8551618e-15
2.9128618e-15
2.5305796e-15
2.5506717e-15
2.6700244e-15
2.1521824e-15
2.6063892e-15
2.1207352e-15
2.6852021e-15
2.9947992e-15
2.6493611e-15
3.0526665e-15
2.6830003e-15
2.1785674e-15
2.2060058e-15
2.7534113e-15
4.8937656e-15
5.3888326e-15
3.995527e-15
4.2679006e-15
5.1175565e-15
4.1572705e-15
5.2270235e-15
3.9994945e-15
4.2984307e-15
4.0714957e-15
4.7574559e-15
4.3509721e-15
4.5872199e-15
4.3460705e-15
4.3866432e-15
4.6695958e-15
2.1308561e-15
2.3456851e-15
2.5988136e-15
2.4006236e-15
2.6063652e-15
2.29891e-15
2.4088869e-15
2.689447e-15
2.5849179e-15
2.7226747e-15
3.0663167e-15
3.0706356e-15
3.4882701e-15
3.3566497e-15
3.2394439e-15
3.2177182e-15
3.4349193e-15
3.2574346e-15
2.8417032e-15
2.7962881e-15
3.5033399e-15
2.5304078e-15
2.4597674e-15
2.9619323e-15
4.0733501e-15
3.1102459e-15
3.0482639e-15
3.3923803e-15
2.3731917e-15
3.2996765e-15
3.1373582e-15
3.4512678e-15
3.6150022e-15
3.2680883e-15
2.2722151e-15
4.2177731e-15
4.4497409e-15
4.2587158e-15
4.1716045e-15
4.2840062e-15
4.0561884e-15
5.2761769e-15
4.0206093e-15
4.1386616e-15
2.8029264e-15
2.4401027e-15
1.668321e-15
6.6030684e-15
4.0822008e-15
8.0230804e-15
9.1523769e-15
8.594384e-15
7.6569629e-15
8.7337561e-15
7.4561198e-15
7.7365755e-15
7.9987105e-15
6.7145821e-15
5.8405371e-15
5.6361314e-15
8.9377478e-15
5.5484652e-15
5.5576338e-15
6.1929847e-15
6.0114072e-15
6.2448899e-15
6.1770479e-15
8.5965522e-15
8.6323136e-15
4.5882329e-15
4.7894298e-15
4.7649414e-15
4.4121811e-15
3.7029748e-15
3.8388046e-15
3.3426801e-15
3.3134078e-15
2.3453746e-15
3.3824998e-15
3.3413937e-15
3.7250591e-15
2.2908419e-15
3.6208887e-15
4.4961893e-15
4.5764224e-15
4.5280113e-15
4.3427025e-15
2.5378018e-15
2.6828201e-15
1.1993648e-14
9.584019e-15
7.7385057e-15
8.6654533e-15
5.4016499e-15
5.9264709e-15
4.5539347e-15
5.0099546e-15
6.5796704e-15
4.3153821e-15
1.2392492e-14
1.5462859e-14
8.3151728e-15
1.2307453e-14
3.6749657e-15
6.2013012e-15
1.7322891e-14
6.683409e-15
5.4415076e-15
1.4121333e-14
1.734264e-14
1.9687168e-15
6.2065024e-15
6.1468648e-15
6.2129877e-15
6.0573425e-15
6.2795795e-15
6.3819034e-15
6.6694965e-15
6.3070278e-15
9.7246347e-15
8.9803791e-15
8.4496912e-15
8.6465189e-15
8.7369595e-15
9.0801415e-15
9.1863139e-15
8.0412936e-15
4.5498549e-15
3.6610705e-15
4.8051994e-15
3.833742e-15
4.5372076e-15
4.6498936e-15
4.2259249e-15
4.2510435e-15
4.0782748e-15
3.7548757e-15
4.2519255e-15
3.8589229e-15
4.9803661e-15
4.074722e-15
5.0802943e-15
4.0820187e-15
3.249957e-15
3.1461938e-15
3.4592342e-15
3.2011375e-15
3.0361954e-15
2.898902e-15
3.1876774e-15
2.9879522e-15
2.0634656e-15
2.1028511e-15
2.5513999e-15
2.2718e-15
2.3321011e-15
2.2710297e-15
2.3593229e-15
2.7150011e-15
2.6243473e-15
2.5654826e-15
2.7677162e-15
3.0257106e-15
5.1075539e-15
5.3632243e-15
4.1415766e-15
4.2692073e-15
4.8363889e-15
4.6812185e-15
4.5152726e-15
4.2776388e-15
4.5576789e-15
4.2595707e-15
4.777394e-15
4.3579785e-15
5.2691006e-15
5.073322e-15
4.3415625e-15
4.1012012e-15
3.5098046e-15
3.3976623e-15
3.5569764e-15
3.2798281e-15
3.3583731e-15
3.2642052e-15
3.6134847e-15
3.3802632e-15
2.3304106e-15
2.4216545e-15
2.4234516e-15
2.6255585e-15
2.6719026e-15
2.4776834e-15
2.4563656e-15
2.4145062e-15
2.7849978e-15
2.7826264e-15
2.5677686e-15
2.6731252e-15
3.4410168e-15
2.6760197e-15
2.4968655e-15
2.9120233e-15
2.2107335e-15
2.1222776e-15
2.4950574e-15
2.4822103e-15
1.1436163e-15
2.5956558e-15
2.6422699e-14
6.5805491e-15
7.9531617e-15
2.3346204e-14
2.1761062e-15
2.3867914e-15
3.0466093e-15
4.7723555e-15
4.9238224e-15
4.3809883e-15
4.3387443e-15
4.1088742e-15
3.6276255e-15
4.4597333e-15
3.8384914e-15
4.2987984e-15
3.0582123e-15
4.8121984e-15
3.3215987e-15
5.0884765e-15
3.5499847e-15
5.231572e-15
3.551075e-15
5.0017342e-15
5.3112818e-15
3.5194273e-15
3.5722699e-15
4.9382751e-15
4.8147075e-15
4.6685615e-15
4.3341078e-15
4.6690278e-15
4.2265607e-15
4.8970601e-15
4.2332091e-15
5.2577989e-15
5.1961768e-15
3.7255461e-15
3.5560358e-15
4.6856119e-15
3.6470229e-15
4.9752776e-15
3.7772639e-15
4.8703124e-15
4.1906716e-15
5.1146543e-15
4.3021005e-15
5.2501716e-15
4.5792459e-15
5.0856998e-15
4.3397468e-15
4.8613966e-15
4.7443218e-15
3.8257878e-15
3.6489366e-15
4.2012566e-15
3.1624916e-15
4.5096535e-15
3.3744359e-15
5.0013797e-15
4.3261022e-15
5.1296083e-15
4.3413389e-15
3.756367e-15
4.4003967e-15
4.6644616e-15
3.9036558e-15
4.6894816e-15
3.6429159e-15
4.8245479e-15
3.6570584e-15
7.4065737e-15
1.1578075e-15
2.3491935e-14
6.1796688e-15
2.6837617e-15
2.7889282e-15
2.8243047e-15
2.8103796e-15
2.8386099e-15
3.0791668e-15
3.1347107e-15
3.0157789e-15
3.1507446e-15
3.2857971e-15
3.3759962e-15
3.1800116e-15
2.8418961e-15
3.168255e-15
3.1603095e-15
3.2465921e-15
3.0361476e-15
3.306382e-15
3.1143986e-15
3.1305003e-15
2.9766578e-15
3.4371399e-15
3.1660525e-15
3.0893925e-15
3.055351e-15
3.1505051e-15
3.1317622e-15
3.1220065e-15
6.7959486e-15
6.6161201e-15
2.4768201e-15
2.846061e-15
2.7840095e-15
2.8296803e-15
6.7554928e-15
7.0952634e-15
6.9315507e-15
7.1587845e-15
6.9838628e-15
6.9100393e-15
9.8380055e-15
9.7876234e-15
5.1981764e-15
5.9602825e-15
6.1403e-15
6.3233018e-15
1.0269971e-14
9.5922137e-15
5.9947856e-15
6.2023827e-15
6.7431954e-15
6.6302408e-15
1.0315249e-14
9.4510894e-15
1.0093246e-14
1.1036104e-14
3.7878645e-15
3.893909e-15
1.4334929e-14
1.6542001e-14
5.0642025e-15
1.0998626e-14
1.6622828e-15
1.4594275e-15
5.3501738e-15
7.2712301e-15
6.3764832e-15
6.4935884e-15
1.4793731e-14
7.708999e-15
7.3234502e-15
6.2018322e-15
6.5971633e-15
1.5785472e-14
7.5041754e-15
7.4540905e-15
6.1651572e-15
1.2937348e-14
1.2064617e-14
1.2178744e-14
1.3227203e-14
7.938716e-15
8.0619725e-15
1.1759696e-14
1.1817667e-14
1.2024805e-14
1.238491e-14
7.958235e-15
7.7455297e-15
4.4721568e-15
6.3023184e-15
8.1936605e-15
8.3216886e-15
1.198951e-14
1.1765388e-14
5.29431e-15
5.4559169e-15
1.2391892e-14
1.1728234e-14
5.6371988e-15
5.5874405e-15
6.175749e-15
6.1746041e-15
3.5190259e-15
1.2747562e-15
1.2887746e-15
8.6719638e-16
4.2024532e-15
3.4489895e-15
4.2461126e-15
8.7088177e-16
1.2780839e-15
1.3095116e-15
9.2859546e-16
1.02515e-15
5.7875254e-16
2.6894936e-15
2.7627653e-15
3.1085634e-15
3.0896366e-15
8.3916272e-16
8.9807658e-16
7.0251852e-16
4.046485e-15
3.3863932e-15
3.56228e-15
4.0518549e-15
3.0779361e-15
2.7038676e-15
2.8362813e-15
3.3117527e-15
5.4583074e-16
5.6292468e-16
8.6010488e-16
8.4731816e-16
5.294102e-15
1.1725998e-14
5.4630943e-15
1.1876401e-14
1.2423573e-14
1.1878121e-14
5.6695939e-15
5.6840623e-15
3.4654143e-15
3.566081e-15
4.5609594e-15
4.5385452e-15
2.8272134e-15
2.8943165e-15
3.3924455e-15
3.4021142e-15
3.9909914e-15
3.3071724e-15
4.2732267e-15
3.503375e-15
3.0230835e-15
2.6115549e-15
3.3160012e-15
2.7802846e-15
1.2717284e-14
1.1098558e-14
1.1488309e-14
1.2664235e-14
7.9487044e-15
7.7221396e-15
1.1690644e-14
1.2025151e-14
1.1867676e-14
1.2220313e-14
7.8210177e-15
7.9807336e-15
5.1878228e-15
1.1443153e-14
1.1656266e-14
5.3939542e-15
5.6558272e-15
1.2250935e-14
5.6208641e-15
1.1659683e-14
1.2505975e-14
5.6279329e-15
5.6492783e-15
1.1811362e-14
1.196736e-14
1.1999389e-14
5.2767691e-15
5.4468115e-15
3.6829733e-15
3.3029781e-15
3.5394051e-15
4.068487e-15
4.1115066e-15
3.4699709e-15
3.5452245e-15
4.2465438e-15
2.9357549e-15
2.5298715e-15
2.7161314e-15
3.2657176e-15
3.284908e-15
2.7860559e-15
2.7968104e-15
3.3830786e-15
3.3890412e-15
3.5742788e-15
4.2768832e-15
3.9101046e-15
3.2466354e-15
2.6980867e-15
2.8055597e-15
3.4345426e-15
4.332352e-15
3.442865e-15
3.5641767e-15
4.3085238e-15
3.3262136e-15
2.7678697e-15
2.7360352e-15
3.3945863e-15
2.0159946e-14
1.8125851e-14
1.7480009e-14
1.0916136e-14
7.8646703e-15
1.6595618e-14
1.7368534e-14
1.758925e-14
6.2853369e-15
6.2687567e-15
7.2558882e-15
7.642593e-15
6.0759219e-15
6.4021143e-15
7.6903456e-15
7.6941664e-15
9.2281267e-15
5.0437813e-15
5.2395513e-15
9.3084966e-15
7.3003882e-15
6.6735185e-15
1.9704761e-14
1.5553044e-14
1.6114728e-14
1.5186624e-14
1.7395585e-14
1.9089495e-14
8.7857525e-15
4.6239344e-15
4.0172284e-15
8.5085139e-15
1.4541371e-14
1.3465825e-14
2.2160411e-14
2.1846419e-14
1.4583053e-14
1.4965475e-14
2.1524802e-14
2.3353027e-14
2.7200815e-14
2.977188e-14
1.1879749e-13
1.4201304e-13
3.305829e-14
3.4330986e-14
1.476376e-13
1.4446658e-13
1.5744699e-14
1.5872487e-14
2.4063079e-14
2.486262e-14
2.6498714e-14
2.8828812e-14
1.1842597e-13
1.4085163e-13
2.8648163e-14
2.9092882e-14
1.351235e-13
1.3588419e-13
1.5503201e-14
1.3953497e-14
2.3328107e-14
2.355258e-14
9.3780714e-15
9.7279236e-15
9.7682465e-15
9.7791558e-15
1.3783802e-14
1.3568285e-14
9.9003878e-15
1.0668448e-14
1.4092788e-14
1.2446819e-14
1.0748845e-14
1.1190502e-14
8.6090139e-15
2.0962167e-14
9.8217204e-15
2.3360674e-14
1.0641843e-14
1.0029372e-14
2.5244359e-14
2.5931675e-14
1.2532285e-14
1.3955919e-14
1.0614505e-14
1.1139315e-14
9.2510412e-15
1.0256101e-14
2.2787912e-14
2.4580376e-14
1.3661074e-14
1.4201157e-14
1.0022465e-14
1.0586695e-14
1.0029272e-14
1.0370947e-14
2.5549196e-14
2.5372218e-14
9.51126e-15
1.0018206e-14
9.3695987e-15
9.7944258e-15
1.3980859e-14
1.2640089e-14
1.0621945e-14
1.0373849e-14
9.1709716e-15
2.3149119e-14
2.4833851e-14
1.0026749e-14
1.342532e-14
1.3531071e-14
9.8153969e-15
1.0419427e-14
9.7574647e-15
2.4820443e-14
9.9528172e-15
2.4779366e-14
1.3512848e-14
1.3892496e-14
9.8950706e-15
1.0672878e-14
1.2849042e-14
1.4288475e-14
1.0688695e-14
1.1118266e-14
8.9472655e-15
1.0036659e-14
2.4078997e-14
2.230076e-14
2.5163383e-14
2.5424067e-14
1.0210228e-14
1.0619053e-14
1.2193792e-14
1.0608045e-14
1.2710643e-14
1.1489504e-14
7.7726479e-15
7.9555384e-15
1.1453442e-14
1.1027978e-14
1.1878771e-14
1.1461817e-14
7.9239329e-15
7.7319047e-15
1.1958393e-14
1.155631e-14
1.2730852e-14
1.19816e-14
7.9442073e-15
7.9956684e-15
1.1221555e-14
1.1455517e-14
1.1656111e-14
7.9153533e-15
1.2010435e-14
7.720442e-15
1.1865234e-14
1.1545496e-14
5.1477645e-15
5.3872836e-15
5.6965116e-15
1.2398728e-14
1.1964247e-14
5.6310619e-15
5.3048804e-15
1.1767923e-14
5.5418545e-15
1.1986421e-14
1.2187262e-14
1.148306e-14
5.5683967e-15
5.5841416e-15
4.468774e-15
3.2155438e-15
3.4804337e-15
4.8673125e-15
4.2158937e-15
3.4790798e-15
3.549129e-15
4.5799211e-15
2.8569304e-15
2.538705e-15
2.7781037e-15
3.1607681e-15
2.7721505e-15
2.814839e-15
3.2570265e-15
3.3611491e-15
3.8480631e-15
3.4104795e-15
3.6270398e-15
4.0207634e-15
3.5136998e-15
3.5877321e-15
4.1530444e-15
4.0481733e-15
3.1638103e-15
2.6531708e-15
2.8244493e-15
3.4693297e-15
3.3624455e-15
2.7667833e-15
2.7076584e-15
3.3722281e-15
1.2196737e-14
1.166855e-14
5.5437329e-15
5.5251901e-15
1.1888984e-14
1.1650084e-14
5.2809402e-15
5.4594144e-15
5.4016858e-15
1.2294859e-14
1.2194646e-14
5.5257347e-15
5.778488e-15
1.2544627e-14
1.2052739e-14
5.7289551e-15
3.7617948e-15
3.4082171e-15
3.5669236e-15
4.1427048e-15
4.6760408e-15
3.4791952e-15
3.615326e-15
4.2956111e-15
3.0879877e-15
2.5838844e-15
2.7520166e-15
3.3971621e-15
2.8244725e-15
2.8836088e-15
3.4152246e-15
3.5330004e-15
3.6251008e-15
3.4410796e-15
3.7620448e-15
4.1123027e-15
3.2740235e-15
2.688842e-15
2.8215613e-15
3.4876142e-15
4.253548e-15
3.4249414e-15
3.5224262e-15
4.2449011e-15
2.6969641e-15
2.7780995e-15
3.3051244e-15
3.2700801e-15
3.3374875e-15
3.2977326e-15
2.9556867e-15
3.1503146e-15
3.5135009e-15
3.7768182e-15
3.4678426e-15
3.7417055e-15
1.9791818e-15
3.8305166e-15
1.7929549e-15
3.8032349e-15
2.0422074e-15
4.0420977e-15
2.0559907e-15
3.9770735e-15
3.4559646e-15
3.7422599e-15
3.9561671e-15
3.7569742e-15
3.8661156e-15
4.0454867e-15
3.9291186e-15
3.52422e-15
3.9564359e-15
3.7556092e-15
3.8324446e-15
4.0311346e-15
3.9816722e-15
3.8527468e-15
3.7546595e-15
3.3836025e-15
3.3160899e-15
5.4402752e-15
3.0210792e-15
7.094295e-15
2.8827465e-15
2.5956837e-15
3.4249067e-15
3.4737582e-15
6.4851279e-15
6.7589737e-15
2.8884889e-15
2.9050632e-15
3.9626852e-15
3.776948e-15
3.5893907e-15
3.8251461e-15
7.2372018e-15
6.5536739e-15
2.8577135e-15
3.1146111e-15
6.7357667e-15
7.8630458e-15
3.2316431e-15
3.0683203e-15
7.2110868e-15
7.0171143e-15
3.139649e-15
3.0203325e-15
6.3350048e-15
7.4099582e-15
3.0691521e-15
2.8992439e-15
6.5889388e-15
6.7837598e-15
3.0735595e-15
3.2553007e-15
6.8556014e-15
7.422302e-15
3.1386107e-15
3.0428922e-15
7.8821815e-15
1.0204178e-14
1.0552587e-14
8.6766315e-15
1.0676005e-14
9.4189806e-15
8.1256228e-15
7.247086e-15
1.19775e-14
1.0820487e-14
9.3829164e-15
8.4980776e-15
9.834131e-15
1.0484317e-14
7.9062802e-15
8.6814665e-15
5.8658877e-15
5.7934104e-15
2.4080329e-15
2.5139705e-15
2.692531e-15
6.6337946e-15
5.930835e-15
2.6798548e-15
6.7896808e-15
6.9756359e-15
2.7534654e-15
2.7395758e-15
6.7906766e-15
7.1803298e-15
2.8074197e-15
2.7291559e-15
7.0847398e-15
6.6860276e-15
2.7901402e-15
3.0476961e-15
6.6279414e-15
7.5919435e-15
3.0449362e-15
2.9144192e-15
6.8019545e-15
7.0317507e-15
2.9242581e-15
2.9786269e-15
6.3468177e-15
7.1716925e-15
2.9147949e-15
2.7667584e-15
7.7184819e-15
1.0082499e-14
1.065782e-14
9.6456986e-15
1.2164687e-14
1.1197889e-14
9.5555935e-15
1.0201085e-14
1.1676897e-14
1.189983e-14
9.9562911e-15
9.5711289e-15
1.256415e-14
1.0641297e-14
8.7067625e-15
1.0057196e-14
1.2795408e-15
1.3161166e-15
1.2740261e-15
1.3206411e-15
1.3068841e-15
1.185808e-15
1.1947416e-15
1.3987127e-15
1.3073981e-15
1.2513331e-15
1.2926005e-15
1.258243e-15
1.2719646e-15