/*--------------------------------*- C++ -*----------------------------------*\
  =========                 |
  \\      /  F ield         | OpenFOAM: The Open Source CFD Toolbox
   \\    /   O peration     | Website:  https://openfoam.org
    \\  /    A nd           | Version:  7
     \\/     M anipulation  |
\*---------------------------------------------------------------------------*/
FoamFile
{
    version     2.0;
    format      ascii;
    class       volScalarField;
    location    "2000";
    object      omega;
}
// * * * * * * * * * * * * * * * * * * * * * * * * * * * * * * * * * * * * * //

dimensions      [0 0 -1 0 0 0 0];

internalField   nonuniform List<scalar> 
34222
(
446.27814
356.00353
454.58171
356.92536
346.27392
384.19833
397.10592
309.45808
367.22647
309.07509
315.91699
339.40933
331.51706
478.40066
434.56742
373.68504
394.43958
413.85784
360.73247
335.20702
349.38463
374.76202
2169.583
315.64064
260.17511
298.91089
277.92615
273.75813
294.66493
384.46646
372.49175
347.2563
328.74625
354.22308
307.22993
320.21325
340.34078
320.22127
473.88863
462.5816
426.87341
426.30511
461.35333
425.95092
388.42766
415.06721
402.17903
402.79468
400.75804
408.19526
406.04447
4836.6671
3917.891
4054.1538
2231.3544
756.63941
773.31146
324.35163
263.10921
321.25163
294.21836
284.19007
308.33558
246.65096
261.82127
259.20468
243.66732
300.83415
279.42791
275.015
289.47014
752.70259
770.69802
372.24354
375.12004
379.50044
404.27937
402.45676
398.05762
378.45142
344.42625
367.86176
393.96339
397.11958
398.55728
395.28631
377.53001
409.97066
451.38427
425.09916
445.01198
436.40448
434.41087
444.49957
434.37443
417.10862
431.27838
419.20024
481.99597
493.28862
511.59369
484.2182
1244.377
9939.7099
1234.3799
4828.8018
10000.26
7274.82
12794.6
1748.8212
7657.5741
1802.835
7790.261
7622.433
1825.2594
4201.1637
1836.7344
4073.798
788.81434
762.24091
2191.1791
661.07319
593.95813
317.41187
605.83338
266.73964
347.15457
316.01613
310.19907
342.18845
670.44947
248.90043
252.69647
270.84157
266.30898
354.39329
329.67873
294.8303
319.67648
250.3468
264.30639
261.50656
247.03269
397.19305
364.46676
360.69224
378.75657
1885.966
4731.4219
1967.9896
1985.5413
1971.4082
784.29804
765.14888
355.54166
324.55101
356.93709
385.37841
353.69971
403.21242
410.18872
424.39166
420.6506
422.26343
419.22235
415.54877
414.15677
474.24426
472.06909
476.33023
476.58306
384.21328
421.2678
431.47387
400.11178
450.64036
450.88088
451.8389
453.17952
450.74921
477.01137
454.07326
469.41752
482.15072
482.74644
2023.4703
603.38819
608.61002
2052.4342
4753.3237
33643.423
19486.725
4708.3132
19711.425
1243.796
2008.1875
600.0142
604.97173
2045.0936
1250.7121
4754.8918
9925.0606
10005.615
4683.8027
4752.8652
19660.296
19871.283
12350.872
12941.952
4176.9791
4089.8343
20553.821
21414.067
7864.1393
7739.4262
4367.1297
13293.464
13500.117
4398.2968
13617.809
13537.787
4419.3064
4474.6139
12877.047
13556.813
4260.5574
4401.28
7857.7927
1917.0043
7989.8965
1912.4184
3999.6376
1810.2304
7617.2214
1852.2636
7841.5769
747.85268
755.27269
4152.375
4955.995
4461.6225
1715.2265
4606.8462
1698.7499
4502.3062
1779.5703
1772.9053
1256.0963
3208.3922
1411.6963
3838.7734
4016.1795
1460.7206
1297.5573
489.15037
598.99466
661.82457
609.1001
308.7666
305.80532
282.6936
264.3912
299.92238
327.63188
680.08994
1461.0871
1304.3535
1467.693
1296.9429
494.29588
257.82319
263.39957
286.06888
280.54363
388.76255
366.97239
353.31502
378.09389
1778.6018
1797.4238
1777.3274
1768.1925
262.80601
284.08221
303.22101
276.4138
419.78433
424.29117
375.52162
407.53512
320.59173
340.7926
340.07352
317.27465
472.1567
438.04255
453.2811
464.11564
4515.8992
4654.6649
8498.6705
8640.5439
4885.4926
4872.3162
4949.2477
4910.9484
4881.5138
4726.9453
2045.9952
2047.493
1949.1486
753.53261
1995.2861
763.61948
332.14059
331.21572
306.21741
309.09811
342.95925
388.59119
406.37986
362.0284
442.00973
441.59037
447.30754
446.10884
450.93541
453.60141
478.0725
475.71827
415.61609
437.21224
438.19326
418.75922
469.05436
473.67274
470.40049
489.3641
472.96608
475.87304
2181.3891
636.30268
638.67035
2213.72
3629.4315
6997.0068
6966.5599
3636.5791
13644.284
19299.098
30653.202
31271.67
48719.378
33335.355
49717.776
13806.237
33931.514
3612.553
3572.5048
6874.5649
6974.1239
13648.109
13709.252
34116.913
34157.04
2051.4836
607.35782
602.74678
2027.6202
2166.8281
629.18593
635.61688
2212.3421
1268.6311
603.9265
606.79728
2046.2202
2047.275
1258.4643
9900.0407
9888.4683
4745.2504
4748.5576
19537.052
19790.482
4757.4275
4702.6313
19681.381
19934.827
3573.9305
3583.8341
6900.6923
6907.6212
3627.3488
3646.5765
7033.0113
6952.4883
13603.837
13658.056
33819.324
34436.032
13637.764
13836.805
34590.768
34195.719
20323.011
19864.294
7476.3206
7501.5185
21178.081
21448.586
7849.1327
7795.4953
37620.5
36144.833
11130.939
11244.835
38754.436
38787.433
11503.434
11561.185
21360.285
22172.446
8170.1699
8022.0602
22326.42
21971.863
8242.3501
8196.4051
22136.51
22632.78
8306.0365
8204.3847
22410.414
21694.917
8244.6684
8251.3473
20538.967
21424.001
7900.3455
7739.826
13350.997
22261.266
22208.579
8271.62
8168.7205
4490.8952
4501.8102
13643.042
13816.393
13745.512
4546.1243
4554.7739
7507.0838
7716.0998
1813.8865
1804.1322
12955.891
4224.582
13491.277
4336.1035
13598.201
13657.387
4419.0275
4500.1426
7862.6869
7998.2534
1864.1874
1869.4812
4711.8907
9571.3106
9712.9394
8787.8652
8931.8061
9114.2771
8174.13
9262.616
8311.1672
4277.3924
4875.2713
4390.7213
9723.3135
9263.7528
9849.4803
9395.178
4376.576
4304.7064
4527.1064
4431.811
9823.0775
9135.5152
9958.0794
9273.5861
5113.0924
4623.5282
5100.1843
4599.0821
4635.4936
4726.4173
4740.6639
4660.7086
2803.1681
2744.3662
3133.1902
3059.3317
1047.8072
6834.4738
8030.6393
8113.9586
8146.6082
8247.4787
3760.8525
3946.9529
3837.5395
3647.6081
9502.7684
9312.886
10062.421
9115.1169
9001.5908
8810.2908
8932.1032
9516.5896
9101.0873
9642.5131
9228.3947
4119.6414
4146.8501
3916.8207
3935.0276
2916.3056
2923.4598
3264.9787
3288.2721
1069.8776
936.0685
1287.1832
1296.7982
1464.3214
1438.7806
488.97615
589.83354
1795.9905
1752.1012
1742.3
1776.7784
656.43202
1495.1398
1318.4417
1333.6184
1508.5547
497.44487
658.69592
260.16415
593.87666
272.47929
292.02834
294.85576
274.82984
320.00843
300.37692
266.24853
256.82602
249.39849
276.63365
339.83181
364.59065
1818.9074
1824.9555
1837.9961
1846.5396
4012.2129
3921.0582
3833.9798
4121.2595
3266.6223
3207.3913
2888.4173
2909.6266
1078.1142
4147.0982
4006.8636
3944.0896
4212.58
3347.025
3282.7317
2923.3508
2981.172
1072.9354
943.12556
928.03924
290.36112
311.19925
340.51341
323.7974
437.4062
444.8071
431.54617
434.24958
5089.5175
4928.4156
4456.807
4603.549
4630.1772
5171.8057
5126.8171
4681.7797
4662.4471
4755.4772
4811.9146
4719.7428
4486.3795
4723.0211
4590.5474
4628.2929
333.33566
424.11292
423.52677
351.8978
465.13466
480.64776
443.42488
472.05452
398.20662
415.64812
438.05555
405.05336
8228.4432
8201.7514
8575.1579
8627.4788
11883.299
12071.033
12377.87
12324.552
8999.2102
9035.3919
8811.4871
9007.31
9064.9639
9018.6813
9006.1604
9126.6996
8952.4411
9074.1158
4940.7441
8487.2856
8680.7461
4980.1639
5022.0171
5020.9594
1939.4885
4670.8663
4792.0851
1959.9524
4880.836
4961.6586
2011.052
2019.334
333.71469
336.63258
318.3825
315.86736
414.09164
433.35233
437.87346
418.5302
475.1028
480.87017
474.35468
472.08239
458.61001
459.53598
482.6819
480.17432
475.76036
473.57719
2244.8554
4089.8063
4142.6848
630.41169
633.05016
2277.7232
4147.9822
4169.292
7667.2167
7622.2071
16317.745
13050.606
12985.453
19413.658
19174.608
19752.259
19920.386
24594.258
24268.958
28469.007
28855.211
43659.901
30083.231
44227.999
28976.092
28902.839
44812.156
44553.098
67547.984
48228.288
54941.84
55774.015
67965.108
30979.96
48879.764
68391.324
68794.11
56461.322
56302.231
13060.257
13168.922
19352.413
19511.969
31041.127
49615.168
31024.729
49421.431
7529.2219
7645.8827
19112.247
19363.618
13009.492
12871.246
13086.018
13036.79
19241.057
19430.675
30475.715
31030.724
49415.132
50212.225
31059.336
50216.282
30379.394
49779.218
2217.1146
640.9494
630.55776
2190.8787
2234.5187
4112.7178
4096.3472
622.21299
629.30328
2275.8933
4190.2961
4138.0483
2035.9206
600.20879
606.82703
2071.0508
634.07375
636.31978
2208.5871
2215.8306
1988.0502
597.14324
597.52907
2025.7868
4653.3663
4718.9879
19726.46
19861.19
4790.9379
19654.92
19551.325
4730.3181
3625.1323
3631.0833
6969.3935
6987.9375
7039.2756
3648.7922
3612.5142
6929.0903
13686.606
13738.509
33598.799
34260.155
13638.851
34616.976
13816.917
34135.42
6953.4036
3621.5447
3655.6893
7039.2156
6884.5524
3570.753
3615.8467
6948.2641
13608.095
34548.969
13669.369
33795.863
13722.121
13794.663
34540.306
34660.107
7564.1053
7572.5405
7710.2131
7611.6279
12902.603
12990.419
19130.513
19333.665
13061.226
12951.721
19434.65
19198.336
30401.818
30935.407
48920.405
49834.523
31100.235
30374.228
50484.872
50101.493
13059.017
12953.29
19119.817
19390.992
13172.693
13127.232
19378.592
19476.641
31012.963
31256.109
50178.287
50726.968
30940.692
50393.087
30187.41
49676.875
36946.476
36710.905
10954.996
10970.261
35026.801
35794.107
10825.646
10851
11349.113
37570.789
38892.943
11446.615
38209.271
39419.738
11578.966
11521.644
39952.635
38289.938
41013.153
41017.32
11541.778
37405.353
39129.671
11683.432
11946.195
40234.734
39838.563
12023.594
11979.997
39994.099
40509.014
12050.651
11986.754
39820.626
38719.416
11956.216
40375.964
39224.338
11902.382
12008.974
40686.104
41023.36
12155.543
12231.882
40574.128
40277.176
12049.149
12100.604
11858.162
39264.139
38005.205
11841.817
37469.393
35911.305
21220.802
11142.045
11273.303
38717.187
38613.825
11508.678
11631.844
8105.3182
22059.887
8124.4259
40693.483
39730.651
11899.853
12015.183
39462.342
40287.916
12008.708
12035.836
22125.586
22513.407
8325.4271
8239.3182
22758.028
22401.119
8405.0317
8364.2901
22202.273
22622.628
8352.5359
8295.8781
13107.022
4233.6469
12875.225
4251.7171
13677.028
4402.948
13138.876
4285.5166
7707.9262
20825.369
21574.235
7840.5206
22248.906
22110.989
8046.2899
8146.299
22161.42
22429.932
8177.4643
8216.1288
8227.3036
22458.136
22166.176
8310.1227
4398.4644
13344.551
13876.354
4490.831
14114.222
13741.935
4555.0232
4516.229
9192.0718
8458.4696
9137.3945
8445.4438
13442.704
12740.587
12848.009
13563.695
13767.855
13047.644
13895.166
13177.928
12222.475
12961.944
12139.565
13063.935
13421.111
12561.8
13285.268
12426.927
8763.8063
12339.484
11689.285
11751.528
12411.7
7902.4463
11896.787
11262.855
11372.1
11964.37
12629.364
12762.959
11956.5
12076.056
12185.629
12299.852
11592.024
11675.351
8797.6537
7902.8355
9620.1088
8839.5456
9716.4857
8933.2793
9185.1057
8238.1571
9264.9764
8308.414
9265.3586
14751.249
14832.245
14173.165
14270.491
14783.68
8855.7023
14096.728
14671.903
13973.897
14610.099
15022.633
14441.183
15203.222
14965.161
14259.049
14424.644
15130.692
9335.9951
8889.9779
9424.0688
9358.1399
8764.4837
8737.4321
9735.9332
9909.2772
9285.1308
9435.9241
9853.5615
9174.6319
9984.6545
9288.6308
14418.874
13763.677
13909.492
14557.938
13339.103
14085.093
13211.527
14251.852
14233.112
14732.153
14079.166
14895.511
14436.993
13518.126
13647.6
14584.085
10074.576
9275.2849
10170.807
9367.857
9636.0256
9705.208
8645.6703
8712.1516
9875.6723
9090.1237
10149.22
9326.1872
9436.4088
8474.0399
9676.3576
8668.3822
10100.592
9422.0083
10416.161
9691.1049
9960.7233
9521.6517
10321.02
9833.8721
10174.054
9714.9384
10315.537
9859.2637
10305.577
9607.0625
10428.287
9731.6636
6716.3113
6987.8765
2393.7327
5568.1023
5801.0865
6511.6884
6507.8724
2371.0213
5394.4118
5388.0888
7930.8568
8230.6359
8083.0199
8366.525
7688.6779
7655.5242
7826.8755
7803.2832
2243.1891
19633.267
19672.271
17875.781
17924.63
18850.421
18221.813
16578.551
16604.892
18241.276
18740.414
17016.31
17118.234
18799.543
16982.91
15631.573
15664.527
17000.421
17430.945
16002.641
16137.079
17526.979
8952.8729
8787.9434
9232.6244
9036.3287
9505.2268
9736.5925
9106.5179
9303.3744
9153.517
9082.2707
8745.6046
8709.4833
8658.7921
8479.5428
8599.9262
8442.2501
17268.941
16224.588
16254.81
17231.395
16771.366
15823.979
16729.651
15787.797
15597.174
16333.772
15632.603
16286.447
16567.04
16429.891
15590.926
15427.545
16086.112
16055.463
15106.259
15151.921
15629.395
14749.25
15583.184
14694.545
15908.206
14974.446
15160.729
16077.656
15165.139
15217.665
14508.464
14572.512
15079.632
14343.468
15011.087
14265.223
14963.783
15449.157
14773.165
15636.612
15288.901
14522.326
14710.25
15480.488
9711.8764
10118.447
9320.8998
9676.0166
9938.0844
9525.5734
10100.484
9691.1514
9135.661
8983.8943
9565.873
9376.3733
9356.7243
9201.4651
9382.7314
9536.4401
6887.3186
7238.4301
2492.6428
5738.0236
6030.566
7062.654
7285.8171
2497.6869
5875.0429
6120.1725
8102.0356
8259.923
8516.6313
8660.5354
8302.585
8466.5124
8510.9961
8666.7658
2332.48
2322.7396
2010.3251
1840.0326
1826.5618
2004.1895
1286.2416
2855.7981
2862.9319
3172.1486
1062.2907
3194.9585
2912.8031
3260.9789
3343.0228
2985.1656
1069.8848
4103.3242
4003.3074
3906.2315
4203.125
3833.3946
4022.8053
1444.7304
3959.3418
3788.606
927.78787
932.66373
485.08622
1439.0744
1276.0161
4595.0937
5172.7386
5077.6109
4681.5961
4979.6521
4505.8993
4863.1116
1753.9303
4396.4927
4615.0549
4521.1847
1741.5698
4425.6719
4531.5994
4616.2651
4702.6722
4808.1934
4713.9267
1761.762
1749.3197
4253.5527
4023.1772
4052.1459
4229.4354
3357.5195
3377.7417
3010.3582
2987.5883
1080.3042
3043.1694
3031.4412
3383.5446
1101.2462
3384.4707
4030.6798
4237.5487
4044.546
4223.0173
932.83278
949.58217
1791.5497
1786.9215
1803.8026
1816.8588
261.67547
259.13215
244.52132
246.7977
1465.3889
1277.3585
276.8584
295.62688
297.7539
281.86758
388.64584
371.35873
280.62432
280.45111
262.29611
308.87531
423.16861
427.5824
4765.1132
4867.6809
4836.9189
4749.1288
4812.2978
4843.0985
4738.5785
4713.7042
5218.1633
5234.4249
4734.8807
4734.0837
4698.1418
5198.2126
5156.4698
4673.2164
9483.4575
9056.2574
9659.8862
9228.0761
9377.2846
9536.2774
9193.6866
9362.161
8983.7605
8789.4605
9133.3778
8940.3944
9927.9805
9495.007
10106.553
9678.7096
8342.6185
8481.7892
8485.5329
8633.5486
8015.6715
8133.519
8130.3648
8256.8165
6812.0228
6894.5799
2483.8274
5664.9068
5730.363
7086.802
7217.0951
2479.5116
6016.7541
5888.4527
2343.5071
2306.7009
10000.96
10219.315
9578.5887
9776.1257
9693.396
9557.0545
9483.9193
9385.4873
9433.9473
9260.0224
9642.9448
9463.154
10219.867
10099.473
9753.0167
9677.43
8654.5294
8785.5924
8535.6629
8684.0463
8395.8514
8539.1825
8573.2847
8724.1077
7144.3098
7287.5993
2487.8063
5958.7303
6075.2575
7366.8083
7297.4091
2545.0546
6142.2623
6115.989
2312.5993
2365.5877
2031.3754
1874.7903
1819.24
1989.3229
1855.6857
1811.617
1988.7829
2038.6494
1609.7126
410.8993
437.04881
439.03353
427.78782
491.60343
522.9613
497.09614
483.25314
10008.274
10195.258
9210.3624
9374.6944
9470.92
8718.6533
9701.7879
8923.0608
9058.5735
8156.7757
9277.8104
8334.7424
9570.8257
8596.3632
9732.1931
8728.303
9636.0967
9781.2356
8655.4828
8774.0709
10185.978
10132.313
9361.3722
9338.6503
10086.967
9280.5875
10247.304
9422.4137
9715.8697
9674.3025
8713.8553
8696.0061
10332.967
9627.5942
10514.246
9782.383
10225.684
9750.7522
10429.315
9928.6435
10393.211
9885.8062
10298.882
9832.582
10463.982
10393.166
9726.3685
9691.9825
9720.8771
9038.407
9940.2101
9243.7038
10140.137
9663.2771
10331.412
9852.1474
9184.9693
9657.0957
9852.7106
9375.2568
10248.124
9539.2335
10443.812
9724.3146
413.26283
486.07499
486.70937
425.6451
11765.712
11790.993
11610.905
11626.997
12147.681
12305.623
12454.672
12354.153
12831.28
12941.863
12884.432
12784.175
12325.653
12541.655
12837.84
12876.391
12900.303
12986.965
12713.328
12637.369
12725.917
12877.544
13039.023
13077.114
12744.111
12891.304
12879.488
12849.864
8895.2092
8837.9067
11895.506
12076.54
12332.086
12431.821
8997.8041
9111.6567
9178.9479
9138.7164
9141.1151
9072.7328
4684.8126
4700.8089
8394.3931
8584.758
8769.6001
8902.9684
4871.4397
4744.1397
8939.4214
8997.0783
8989.9664
9062.8495
4990.6044
4887.562
5004.9274
5054.9601
403.54173
427.51964
441.46779
403.12421
472.41081
470.433
464.89527
466.84109
473.98588
468.51297
4108.3638
4047.3175
2208.5697
4774.8282
4710.1462
4113.1029
4129.1018
2241.8437
4810.2366
4768.6274
8219.8614
6370.2493
6361.443
10704.047
10792.815
16394.437
16609.829
6350.3104
6303.485
10698.109
10629.427
16474.534
16275.46
11577.412
17298.903
22094.607
22433.801
20053.282
19958.183
24531.195
24685.276
19657.32
19710.018
24235.903
24189.564
26753.19
26344.617
28333.202
30641.763
31091.182
62244.615
42771.789
28425.396
43215.992
62589.056
31224.696
31069.397
63884.747
63696.629
103159.43
66560.777
66897.311
54702.717
54209.192
59378.378
60148.481
102462.3
44280.642
28750.226
28885.53
43834.315
55536.064
67685.862
67356.991
55649.408
104082.77
103604.39
60580.891
60457.627
24310.731
19812.443
24620.637
19978.358
20051.205
20120.87
24651.433
24660.724
28872.603
28815.874
44563.016
43956.988
67625.332
68136.221
56897.817
56294.94
43695.395
28487.658
44291.03
28849.261
55762.375
67290.458
56511.771
67747.439
6249.7038
6230.2619
10497.098
10635.624
16442.408
16155.18
6377.0137
6310.4463
10718.873
10700.299
16362.286
16512.361
24018.475
19554.333
19707.463
24328.237
24484.953
19890.392
24491.595
19959.205
19732.171
24285.25
24256.328
19793.731
20065.13
19971.752
24505.619
24665.68
42360.328
28155.029
28521.997
43088.821
43671.976
28667.326
28646.336
43607.777
55527.475
66560.204
67142.235
56536.989
57018.099
67848.113
67573.328
57085.193
28672.738
28832.54
43753.408
43602.21
57306.416
67489.318
67607.609
57326.383
43344.483
28450.453
28365.025
42804.486
56619.735
67265.747
66657.632
56365.756
2279.9368
4191.3854
4140.7283
634.27037
625.26226
2256.0329
4094.0063
4135.3555
4060.8406
4072.6098
4756.5791
4717.5293
4106.1164
4153.057
4839.8767
4759.2152
2198.3626
628.27016
634.83507
2238.4534
628.02933
628.57808
2270.7369
4152.9989
4147.9193
2279.354
4118.8483
4191.4413
2143.1859
621.7407
624.24201
2191.623
3521.521
3527.221
6829.2352
6842.8933
3598.4334
3585.3667
6935.2258
6925.6691
13708.528
13685.598
34215.121
34607.825
13754.954
13706.601
34755.928
34459.802
3667.1202
3656.3405
7013.8851
7061.4122
13721.936
13756.632
33987.47
34271.503
13836.506
13742.136
34087.554
33653.314
3603.4506
3609.8778
6963.6751
6949.3446
7632.6798
7659.0292
7718.1656
7583.9762
13025.807
13074.193
19261.571
19449.214
13162.634
13027.415
19517.892
19267.225
30219.774
48935.506
30929.19
49907.416
30606.131
31053.44
50465.223
50152.768
12918.922
13047.292
19380.888
19113.697
31049.632
31405.103
50341.058
50621.833
13170.726
13152.361
19380.272
19489.749
30958.104
30151.14
50434.427
49851.886
7611.5604
7715.9646
7541.5614
7612.7647
13039.751
12915.275
19073.621
19357.133
30776.888
50304.144
50666.92
31059.96
13025.834
12924.358
19193.961
19385.285
30854.707
50058.553
30035.979
49173.45
13081.802
13001.51
19235.262
19427.844
13064.077
13194.885
19506.364
19238.867
30797.139
31199.2
50624.092
50188.916
50805.523
50306.487
31303.745
30548.392
6287.8744
6284.5976
10661.219
10552.071
16175.056
16393.7
6288.1605
6254.6287
10580.076
10654.902
16494.49
16260.109
6406.904
6407.5278
10836.223
10775.554
16465.056
16594.844
6332.1712
6300.9413
10696.16
16486.144
10607.183
16239.649
19702.336
19568.231
24037.162
24357.149
24470.37
19855.208
19890.746
24453.916
24512.565
19975.683
24671.311
20043.389
19680.275
19706.42
24209.432
24259.88
42952.08
28235.124
28627.024
43499.851
43927.472
28713.813
28666.583
43630.012
54718.397
67020.464
67487.186
55868.59
67589.837
68169.08
56390.619
56841.558
43484.655
28703.683
28870.318
43637.741
28437.311
28362.856
42680.311
42570.061
56958.328
67655.3
67746.932
57581.232
57150.65
67032.206
67034.423
56921.289
19625.045
19630.296
24061.833
24185.044
20021.006
19941.282
24464.595
24626.52
24308.275
19853.167
19978.493
24583.986
24601.885
20020.963
20047.442
24546.191
43315.096
28462.545
28797.384
43967.536
44672.27
28816.456
28701.629
43982.17
56738.636
67350.678
67979.679
57557.925
67967.805
68890.573
57717.496
57886.763
28796.599
28628.098
43263.892
43454.46
57434.058
67302.962
67648.142
57558.204
43167.658
28360.486
28140.351
41783.594
66096.586
67480.399
56563.619
56029.982
39226.635
39001.547
37217.641
38107.205
39866.297
41284.182
40520.561
41775.455
73643.196
34626.314
71263.484
33204.887
74637.572
35734.047
74903.719
35645.615
39792.372
41536.446
42807.362
42186.668
42294.169
42891.764
42415.887
41009.48
42701.475
41626.827
42927.867
43494.628
43019.065
42647.313
41791.69
40314.347
39774.334
37105.59
38213.201
38272.772
11613.65
11591.245
40927.974
41093.052
39852.26
39751.316
11849.318
11896.304
43118.417
42236.311
41767.033
42881.858
40386.436
39124.558
11874.026
11987.939
40367.257
41017.758
12132.659
12144.696
40718.721
41355.572
12284.902
12189.476
39545.636
40653.768
12169.878
12128.583
40211.764
39167.605
11971.832
12063.072
40522.774
41106.903
12187.354
12199.012
7810.291
21382.334
21686.297
7900.6698
21189.704
20780.292
7757.0338
7829.201
22677.436
22301.943
8210.1713
8279.8934
21034.951
21902.628
7821.0746
8000.8793
37719.305
36255.809
11153.655
11325.946
11529.104
38839.313
38691.935
11594.474
40351.077
39581.821
11797.867
11891.905
39133.165
40074.625
11882.878
11858.42
40034.553
39509.975
11920.734
11940.44
40398.357
40664.124
12031.798
12085.65
40758.48
40096.882
11982.881
12065.419
39036.885
39960.363
11978.028
11978.824
8055.3493
21346.675
22144.198
8187.5873
22671.796
22768.376
8498.6292
8334.07
22986.823
23264.695
8568.4711
8540.1
22887.135
21954.197
8348.5542
8401.7264
12405.324
13087.514
12435.49
13023.088
12716.638
11926.269
11906.697
12677.439
12877.562
12299.91
12801.015
12212.358
12501.942
11749.958
12579.555
11835.827
37892.094
37637.813
38750.655
38972.69
39796.744
39625.935
40187.584
39971.833
37513.967
37172.756
36316.756
38326.078
39541.308
38692.908
39228.87
38423.583
12053.932
11429.847
11981.118
11356.117
35269.495
33993.997
35261.353
36504.719
10996.594
11581.839
11643.42
11036.21
33080.997
34393.528
37421.426
37662.034
36190.292
36383.928
35349.992
35509.234
11490.331
12161.558
11508.383
12126.026
11119.648
11737.511
11716.488
11138.996
13026.586
13633.684
12926.192
13725.244
13176.544
13283.692
12346.934
12444.375
13182.826
13897.002
13173.353
13875.924
12582.968
13446.352
13440.452
12599.397
11984.49
12569.442
11904.279
12660.528
12130.444
12214.78
11492.539
11602.255
12805.581
12117.629
12808.403
12106.937
11722.756
12347.822
12333.282
11699.837
14028.72
13937.881
13401.915
13511.194
34366.812
35104.953
34953.656
35731.115
36363.18
13954.631
13207.151
13860.088
13322.405
37028.704
35546.323
36171.56
36706.518
35745.565
36380.348
36063.294
37022.723
37701.011
38053.296
37360.326
14360.255
13781.869
13680.29
14240.535
13579.385
14274.133
14150.121
13494.921
13294.868
14010.5
13912.831
13359.901
13703.007
13111.929
13605.523
13006.651
12822.169
12765.24
13681.562
13612.556
13311.623
12520.61
13401.719
12617.702
14920.405
14346.751
14430.39
15002.27
15319.616
14705.673
14702.579
15304.387
14164.895
14866.669
14948.541
14257.899
14480.468
15228.351
15195.569
14491.089
14070.401
14627.292
13970.653
14722.357
14313.265
14423.255
13401.279
13491.267
14936.218
14278.719
14948.315
14267.576
13649.013
14623.436
14608.976
13661.844
36791.169
37261.567
38197.381
37690.299
38882.444
37652.752
37846.57
38626.87
39301.105
38377.295
38910.418
38751.01
39365.316
39661.819
40069.264
39767.807
13673.563
14347.462
13606.442
14400.699
13874.275
13004.209
13072.983
13945.666
14458.652
13722.264
14460.344
13707.784
13972.402
13081.986
13964.955
13094.686
12586.733
13232.938
12528.094
13296.211
13294.888
13302.681
12584.798
12590.541
12762.413
12111.86
12832.179
12201.52
12798.063
12167.598
12132.541
12820.929
13871.921
14028.032
13164.636
13313.508
13570.944
12714.873
13408.775
12578.226
13772.744
14401.887
13657.114
14507.261
13922.537
14037.34
13029.982
13142.319
12794.752
12128.65
12932.54
12242.68
12468.105
11838.799
12346.091
11695.077
13355.961
12631.824
13251.294
12537.922
12771.2
12119.993
12176.391
12851.279
14846.907
15008.73
14193.958
14356.517
14720.549
13778.648
14537.86
13636.678
15593.772
14897.34
15478.679
14781.202
15144.014
15251.621
14151.13
14257.434
15118.257
15260.689
14550.305
14689.968
15227.784
14532.871
15072.117
14384.684
15356.516
15852.487
15222.811
15985.757
15762.615
15885.788
15001.462
15129.271
15082.181
15683.762
15078.421
15669.959
15627.714
14899.702
14906.21
15623.894
15282.937
15825.121
15229.456
15872.709
15776.723
15045.698
15802.288
15096.503
14735.453
15388.373
14703.331
15394.127
14100.329
15073.932
15123.428
14155.527
15562.1
14901.771
15535.416
14859.246
14229.389
15236.216
15250.585
14270.023
19672.093
19741.73
17943.704
18049.689
18988.223
19022.269
20826.475
20788.915
4897.6479
4811.7375
5110.5103
5030.3332
18823.877
19895.384
19496.765
19508.878
17757.129
17782
17442.185
17507.328
19201.287
19200.594
4704.2495
4769.9627
18390.788
18634.983
18308.192
16657.019
16762.542
18395.34
19350.56
17563.364
17607.291
19334.893
15839.573
17065.83
15712.696
17178.269
16535.803
17964
16479.877
17974.788
18107.5
16429.35
16416.527
18085.012
17761.33
16085.954
16150.418
17777.874
15412.056
16820.164
15434.143
16781.124
16440.024
15068.31
15150.429
16475.956
4347.0669
4269.0426
4542.7238
4450.5492
26437.504
26837.221
26538.765
26916.106
33418.981
27145.229
27920.163
34463.006
26955.284
27479.019
27909.974
27363.275
28011.221
28582.448
28695.719
28094.078
28066.226
28664.016
29143.089
28529.889
29193.06
29805.797
29967.811
29338.946
16144.991
16277.025
15199.647
15332.453
15689.729
15819.448
14808.299
14926.325
16898.195
15852.888
15909.738
16925.873
15352.246
15405.251
16329.787
16356.581
14742.62
15292.07
14645.778
15399.018
15824.562
15116.842
15149.623
15845.337
15165.929
14424.361
15256.071
14512.782
14825.794
14846.741
15633.921
15634.044
14828.753
14155.848
14085.909
14747.215
14501.504
14413.899
13771.701
13880.807
14642.964
13894.73
13805.52
14543.345
14313.193
14222.267
13508.183
13619.428
15833.18
14846.639
15789.758
14817.549
15243.088
15297.849
14388.86
14340.413
14571.33
15433.949
14471.216
15499.985
14004.895
14889.481
14973.013
14116.844
31666.209
32660.129
32375.112
31964.188
33115.956
33829.266
33385.126
34093.487
35508.043
34544.781
35234.339
34811.481
30630.23
30451.989
31307.105
31112.092
29799.09
29299.815
29950.181
30467.664
31166.908
31837.531
30627.907
31274.617
31804.276
32472.32
32701.645
32016.226
31919.766
32511.745
32539.687
33163.638
33831.269
34456.931
33170.767
33758.704
34064.266
33145.292
33798.526
33392.568
34466.249
35093.018
35396.148
34753.112
15468.713
14829.825
14980.607
15634.684
16492.619
16357.52
15634.84
15779.44
14755.926
15353.295
14619.648
15508.8
16307.833
15341.698
16172.296
15486.9
16071.667
16063.098
15398.604
15396.13
15929.136
15164.436
15945.707
15161.921
15638.322
16218.763
15553.928
16296.932
16096.251
15314.545
15387.652
16154.712
15541.553
16306.469
15361.247
16492.336
15849.322
16038.401
14982.656
15146.972
16501.022
17424.276
16357.599
17545.092
15866.309
16858.578
16991.057
16012.408
15980.136
16977.724
16981.712
16002.105
16497.387
15583.003
16483.903
15570.792
15833.606
16637.652
16728.975
15723.371
17183.059
16136.729
17115.322
16248.76
19972.389
20048.068
18197.708
18300.776
19591.289
19661.077
21521.556
21522.615
5071.8234
5002.1966
5243.8713
5321.2967
19160.082
20608.885
20706.792
20708.922
18925.655
18935.644
19026.59
19068.669
20779.219
20748.511
5186.7142
5088.9511
5295.4799
5404.7824
19800.388
19884.204
16981.287
18540.559
16857.606
18644.047
17245.154
17398.887
15883.662
16045.296
18195.809
19949.975
18099.109
19993.926
16986.745
18506.268
18596.57
17115.767
17544.523
19277.864
17547.142
19257.987
16538.673
17953.888
17945.968
16549.685
17733.587
19373.419
17673.005
19372.438
16678.182
18077.541
18113.498
16768.639
4540.1528
4487.4439
4675.3089
4741.9724
4695.8346
4522.4631
4608.5523
4793.9806
4061.3899
3972.6468
4108.1859
4216.4098
3551.0919
3408.5757
3476.7961
3650.9817
3490.2843
3389.6793
3546.2787
3669.3301
4086.6323
3969.8733
4114.6013
4241.7823
2859.4635
2916.5683
3186.3021
3237.9504
1066.0724
6894.2406
7030.4445
2432.4263
5858.938
5711.081
6699.8416
6848.1489
2456.6137
5703.1069
5593.8083
7871.7143
8076.4599
7984.2789
8191.6737
2318.1882
2272.147
8123.3191
8278.2802
8259.638
8412.0248
7087.9237
7124.8571
2482.0025
5954.0347
5925.8286
8314.1535
8448.8731
8378.8784
8513.3657
8547.4372
8674.8021
8613.1189
8740.0667
7281.327
7346.1095
2542.6535
6158.8506
6072.8961
2308.658
2362.4813
9856.6856
9448.5519
9957.4382
9537.185
9568.9262
9633.0541
9367.2
9436.4936
9319.9526
9138.4332
9406.7418
9220.8443
10091.893
9646.035
10163.27
9728.548
9128.3346
8945.0187
9294.92
9110.4176
9654.8303
9238.4646
9837.3624
9420.2636
3984.6944
3809.1872
3859.2505
4032.7732
9297.98
8888.5573
9570.0186
9136.0463
8813.6183
8622.5787
9061.8967
8858.5439
1809.5834
1850.919
2031.389
1985.7401
2008.2286
1802.7637
1961.0775
931.21845
914.92131
1047.9025
3990.5543
3801.0389
3898.8664
4100.3226
2840.5181
2889.6823
3172.0571
3248.7313
9543.2043
8587.3903
9613.6549
8639.205
10084.398
10189.737
9274.7014
9376.2234
9986.9116
9195.9518
10059.998
9259.2289
9613.1823
8641.5984
9714.5051
8725.1883
9764.9496
8991.2065
9969.5638
9167.4888
9341.286
8406.26
9524.064
8547.6189
9333.3831
8595.6244
9595.1168
8813.9333
4909.6513
4882.9557
4413.923
4441.5173
8928.3007
8052.5203
9160.6327
8228.9157
9869.5534
9417.088
10067.079
9607.3139
9990.2231
9308.9096
10196.728
9499.4452
4594.749
4554.2025
4450.5476
4488.0621
9571.0229
8912.1004
9843.8487
9147.8463
9482.8672
9039.5702
9757.3041
9283.8696
10214.987
9534.6159
10298.817
9599.7895
10088.105
9637.1823
10183.928
9715.0932
10365.434
10280.016
9793.6815
9887.7459
10361.815
10459.665
9641.7563
9741.2994
5071.4825
4935.3955
4469.2969
4591.0158
4487.0573
4573.1282
4696.5816
4612.428
10220.047
9771.0327
10236.977
9786.5798
9625.7489
9642.1161
9434.999
9468.8262
9684.1101
9485.4728
9689.437
9492.6894
10167.057
10197.318
9725.2256
9775.3593
8590.7839
8726.7963
8613.9909
8754.1765
8658.9544
8783.383
8642.759
8775.7363
7391.1481
7353.9359
6203.2912
2554.0341
6147.4361
7323.842
7364.1112
2537.5309