/*--------------------------------*- C++ -*----------------------------------*\
  =========                 |
  \\      /  F ield         | OpenFOAM: The Open Source CFD Toolbox
   \\    /   O peration     | Website:  https://openfoam.org
    \\  /    A nd           | Version:  7
     \\/     M anipulation  |
\*---------------------------------------------------------------------------*/
FoamFile
{
    version     2.0;
    format      ascii;
    class       surfaceScalarField;
    location    "2000";
    object      phi;
}
// * * * * * * * * * * * * * * * * * * * * * * * * * * * * * * * * * * * * * //

dimensions      [0 3 -1 0 0 0 0];

internalField   nonuniform List<scalar> 
101811
(
-1.2563739e+12
6.9191314e+10
-5.7078263e+10
-5.9052367e+10
2.6761404e+10
3.9884242e+10
-1.3555143e+12
2.4671037e+10
-7.1583754e+10
-6.420542e+10
3.2559583e+10
1.5031265e+10
-1.1479898e+12
4.0748007e+10
2.1778911e+10
-6.7675608e+10
-6.8091349e+10
1.4704633e+10
-2.0700297e+10
1.0885483e+11
-1.7206805e+11
2.7287547e+10
-4.5223976e+08
9.4937987e+10
-1.5254079e+11
-3.8855337e+08
1.8850261e+10
7.7051792e+09
2.9418279e+10
1.3216222e+10
6.9472979e+09
-1.3788626e+12
4.4947811e+10
-5.8678113e+10
-6.4830947e+10
3.5942063e+10
-1.2593426e+12
4.936574e+10
3.7491697e+10
-5.2656367e+10
-6.3202372e+10
2.095597e+10
1.4449139e+10
1.2980618e+11
-1.9620057e+11
-1.6395457e+10
1.4109732e+11
-2.0284237e+11
2.3897684e+10
-1.1908843e+10
-1.7787961e+10
2.5991599e+10
-6.6147573e+09
-1.5061758e+10
2.4078503e+11
-1.1561152e+12
-6.9840655e+09
2.9618593e+10
-6.6359119e+10
-6.8632807e+10
1.1392979e+10
-1.4346934e+11
-1.1768401e+10
7.1303843e+09
-1.0973038e+10
1.9065067e+10
1.2644751e+11
-1.7789341e+11
-8.0072155e+09
-2.0034928e+11
1.7801229e+10
-9.9475695e+09
-9.5183923e+09
-2.0489964e+10
1.0682995e+11
-1.1791093e+11
2.129888e+10
9.8198636e+09
8.6606785e+10
-9.6351621e+10
9.2514435e+09
1.9944305e+10
1.1023175e+10
1.6110566e+10
1.2039508e+10
1.7998706e+11
-2.6301719e+11
-2.6712044e+11
-5.7998273e+10
-2.6444879e+11
-2.4510598e+11
4.2046951e+10
-1.3211414e+12
4.976944e+10
-5.2337992e+10
-6.2633503e+10
3.4913693e+10
1.0837838e+10
-5.4999505e+10
5.4116139e+10
5.1150588e+10
-6.1554346e+10
-1.5686212e+11
-1.1386943e+10
1.6988792e+10
-6.634195e+09
-9.1768396e+09
1.5129833e+10
-2.1568976e+11
-5.8033943e+09
1.6214388e+11
-2.2483706e+11
-5.2632082e+09
-8.6759917e+09
9.077427e+10
9.6191683e+10
-1.2743058e+12
-2.5405329e+10
-1.6030378e+10
7.550175e+10
-6.2277221e+10
-5.1975359e+10
3.7929306e+10
2.284753e+10
-1.5606634e+11
-2.094018e+10
1.9317992e+10
-5.1690567e+09
-2.1268368e+10
-2.0569646e+11
2.34395e+10
-5.1974103e+09
1.4383112e+11
-1.9443173e+11
-9.9724384e+09
-8.0548951e+09
1.2502779e+10
1.1890985e+11
-1.4388596e+11
-4.1801688e+09
1.344418e+11
-1.4853184e+11
2.1113932e+10
-6.4299174e+09
-1.6896443e+10
2.3855136e+10
2.9574369e+09
5.1510469e+08
3.137868e+11
-1.322482e+12
-6.2271388e+10
-7.247303e+10
-1.4756695e+10
1.1623948e+10
-2.0088831e+11
-1.5363131e+10
-3.0774737e+10
-4.2416033e+10
-1.375054e+10
-2.2249124e+11
-1.3617871e+10
-1.7387778e+10
1.3719069e+11
-1.9121299e+11
-1.0559793e+10
-1.8666358e+10
-1.3528437e+11
-3.8575022e+09
2.6997831e+09
1.0325844e+10
1.2762559e+10
1.298435e+11
-1.3848565e+11
9.1712632e+09
-1.4957342e+11
1.0464719e+10
6.6393272e+09
1.2106213e+10
-2.207569e+09
7.5718719e+09
-5.3626312e+09
2.1651934e+09
7.6530527e+09
6.6600943e+09
-5.0771753e+09
7.6962937e+09
2.3504029e+09
8.7732998e+09
1.9991401e+09
9.524065e+09
-2.6543766e+11
-2.3755395e+11
-2.7099733e+11
-6.2831548e+10
-2.5489476e+11
-1.1466039e+09
-5.8318365e+10
3.8361925e+10
-5.4011443e+10
-6.5770842e+10
-5.6403525e+10
-6.7378497e+10
-6.0465208e+10
4.15046e+10
-5.6542427e+10
-5.5714359e+10
-6.3780937e+10
-4.8362806e+09
-6.8432335e+10
1.5932983e+11
-2.5609573e+11
-2.7418476e+11
-2.3426722e+11
-2.2520657e+11
-5.0205822e+10
1.778437e+10
-2.2819877e+11
-2.1795575e+11
2.6360628e+10
7.8645413e+10
-6.1452322e+10
6.7996895e+10
-5.0852712e+10
-1.3299454e+12
5.5283239e+10
-5.1039559e+10
-6.3998898e+10
3.8224578e+10
8.4879692e+10
3.6709686e+10
-5.8894548e+10
-5.4535113e+10
5.3949104e+10
4.482324e+10
-1.6010962e+11
-1.8661901e+10
2.2438777e+10
4.0569242e+08
-1.6314487e+10
2.227954e+10
-2.1439173e+11
-4.0209808e+09
1.5520943e+11
-2.1223927e+11
-6.7883117e+09
-5.9817127e+09
1.6959028e+11
-7.7830226e+09
1.0576922e+10
1.8214518e+09
-8.0018026e+09
1.2486094e+10
3.532403e+09
-1.7896569e+11
3.7654908e+09
-1.3223568e+09
-1.5826703e+11
-8.8483574e+09
1.5474994e+10
-3.5255955e+09
-5.4329786e+09
1.029403e+10
-1.7148996e+11
2.5585147e+09
1.6308457e+11
-1.769158e+11
4.9751756e+09
1.878542e+08
1.5161235e+10
2.206423e+10
2.4973798e+10
-2.9035332e+11
-4.6704455e+09
-2.8761544e+09
2.4283519e+10
2.33311e+10
-2.7938298e+11
-4.9642519e+09
-2.2741999e+09
2.0181917e+10
8.2155537e+10
9.9200557e+10
-1.3911632e+12
-3.4760397e+10
-1.8262678e+10
7.5961977e+10
-5.0696792e+10
-6.9324929e+10
2.1731971e+10
3.8177645e+10
1.9343028e+10
1.5489826e+11
-2.0568602e+11
-7.3930329e+09
1.7074981e+11
-2.2160948e+11
2.4914064e+10
-6.6867693e+09
-1.3539564e+10
7.4403998e+09
-7.7129662e+09
-7.6887732e+09
-1.5431612e+11
-1.7143215e+10
1.406258e+10
2.6542747e+09
-1.867905e+10
-1.5597961e+11
1.4804689e+10
3.4042795e+08
1.4051897e+11
-1.4164371e+11
-6.4128195e+09
6.9034119e+08
4.2597526e+08
9.8403874e+09
-1.4906269e+10
61209295
7.7962408e+09
-1.6615465e+10
1.2927615e+09
1.5225813e+09
-1.6740512e+09
2.1680411e+09
4.8971169e+09
4.8252431e+09
-2.2216031e+10
8.957365e+10
-1.8752973e+11
6.0213687e+09
6.9122123e+10
-1.8436916e+11
6.9400877e+09
2.3745792e+10
-6.3100829e+09
6.1456003e+09
-1.1817462e+11
-5.1520571e+09
-2.3511089e+09
1.144172e+10
-3.2265411e+09
-1.4314367e+11
-1.0196459e+09
1.1827462e+10
1.2880273e+11
-1.4123568e+11
9.1113505e+09
1.0987192e+10
-6.8170354e+09
-1.1878307e+09
1.1925767e+09
9.0586415e+09
1.5713739e+09
7.1266404e+09
-5.3059905e+09
7.9444323e+09
-7.11256e+09
1.5262093e+09
6.9800128e+09
9.6632432e+09
-1.9982169e+09
8.6218157e+09
-7.362231e+09
1.9668246e+09
8.8322788e+09
-7.4670457e+09
1.9851252e+09
1.7266586e+09
7.8385858e+09
-1.0929946e+09
-2.7866767e+10
-5.8519661e+10
-6.1866524e+10
-6.1993041e+10
-5.7326822e+10
-5.5011261e+09
-5.0126084e+10
-4.1120754e+10
-5.2567349e+10
-4.5701414e+10
8.9303047e+09
-2.9919249e+10
-8.559847e+09
-5.7336241e+10
-6.1025213e+10
-6.4981837e+10
-5.9198079e+10
-2.4992772e+11
-2.5979639e+11
-6.2185233e+10
-2.4304371e+11
-2.1896939e+11
-1.5535861e+10
-5.2219067e+10
-5.2647858e+10
-4.5538378e+10
-4.4019754e+10
-1.1782837e+10
9.104839e+08
8.2221627e+09
-1.1030648e+10
-1.1372376e+10
-1.4747596e+10
-1.4198503e+10
2.4825776e+09
29919842
-2.34192e+09
-2.4096661e+09
-3.2566319e+09
-3.0660902e+09
3.5592684e+09
-5.4643135e+10
-1.281378e+10
-1.0995322e+08
1.0059898e+10
-1.4501687e+10
-1.1363489e+10
-1.1527955e+10
-1.5236021e+10
4.2383781e+09
-5.5897581e+10
-1.1344129e+09
-1.1718412e+10
8.6822441e+09
-1.1681244e+10
-1.1195572e+10
-1.5127735e+10
-1.4477214e+10
-1.2716766e+10
9.55817e+09
-1.1394156e+10
-1.1620858e+10
-1.4341367e+10
-1.5196432e+10
-1.1373406e+09
-2.5046762e+09
-5.3467742e+10
3.7582375e+09
-4.0706479e+09
-5.1150847e+10
2.896308e+10
-5.2372418e+10
-6.2839168e+10
-5.5104161e+10
-6.4357804e+10
-5.5085944e+10
-5.9219665e+10
3.2689836e+10
-6.6987148e+09
-6.4062079e+10
-5.5999853e+10
-6.8503846e+10
-5.6461124e+10
2.4698702e+10
-2.0160061e+11
-2.0176934e+11
4.1242375e+10
1.4731043e+11
-2.7250587e+11
-2.5306491e+11
-2.4178524e+11
-2.7228538e+11
-2.2043615e+11
1.3945397e+10
1.6875981e+10
-1.3189019e+10
1.9349508e+10
-1.143869e+10
1.3609122e+10
-1.5215076e+10
1.273231e+10
1.4680619e+10
-1.4029755e+10
-2.7795036e+11
-5.4165881e+10
8.3327537e+10
-6.6830832e+10
4.0183251e+10
5.6528803e+10
-4.5731965e+10
-1.3827692e+12
-6.4441018e+10
4.0673733e+10
7.0059211e+10
2.1253059e+11
1.9411076e+10
1.5196063e+10
-1.286735e+10
1.3557074e+10
-1.5696544e+10
-2.6937453e+11
6.4152344e+10
5.0627768e+10
7.3086313e+10
-6.4064002e+10
-4.7652656e+10
5.9002194e+10
4.4131827e+10
-1.7111174e+11
-2.1076337e+10
2.8469918e+10
-2.6081447e+09
-2.1731415e+10
3.0704032e+10
-2.2503377e+11
-6.0902e+09
1.6245839e+11
-2.1678853e+11
-9.1206706e+09
-3.6406206e+09
2.070633e+10
1.8102494e+10
1.6756855e+10
-1.3019307e+10
-1.0573682e+10
1.1408277e+10
1.6954818e+11
14419464
1.6602412e+11
2.1259705e+10
-4.9378945e+09
-1.4605506e+10
2.2055188e+10
-1.8682078e+09
12739905
-1.5442524e+11
-1.5379176e+10
1.3845898e+10
3.8459235e+08
-1.182765e+10
1.4207633e+10
-1.5781628e+11
-3.0099267e+09
1.4481416e+11
-1.554864e+11
2.3503081e+09
-2.7154422e+09
1.7555098e+11
-5.0110161e+09
2.1583159e+09
6.7452699e+09
-3.1318716e+09
4.6522436e+09
6.0730699e+09
-1.7945686e+11
5.9794976e+09
-2.9276989e+08
-1.8815897e+10
-1.6252515e+08
2.6972004e+08
-1.432268e+09
-5.845558e+08
7.80715e+08
-1.5258003e+10
-1.1954772e+09
1.4266915e+10
-1.1292753e+10
1.876461e+09
-4.4492911e+08
2.4881253e+09
5.2684746e+09
4.6726348e+09
-6.6432229e+10
-1.0420938e+09
-6.9609958e+08
1.1799543e+09
1.1720602e+09
-1.4600633e+10
6.4436398e+08
-98033976
-1.8295682e+08
3.3677841e+09
5.2695051e+09
5.0885593e+09
-6.8271802e+10
-1.099699e+09
-6.3994827e+08
2.6246257e+09
5.2563641e+09
4.6295552e+09
-6.7218756e+10
-1.1752616e+09
-7.9893634e+08
5.1852329e+09
5.1247455e+09
-6.5266253e+10
-1.01471e+09
-5.7709186e+08
3.4307665e+09
2.1746953e+10
2.0336521e+10
2.3547985e+10
-2.7307961e+11
-5.4950893e+09
-3.2358498e+09
2.5098974e+10
2.3208663e+10
-2.7265809e+11
-1.6507556e+09
3.2965525e+10
-5.2493568e+09
8.3373e+10
1.0024159e+11
-1.3232462e+12
-3.8895873e+10
-1.7221292e+10
1.8259839e+10
3.5543478e+10
-4.7705824e+10
-6.7450157e+10
-2.447787e+10
1.5931975e+11
-2.1444348e+11
3.6830023e+10
-7.9252215e+09
1.6426439e+11
-2.1822406e+11
-1.4929075e+10
2.0545719e+10
-1.1478127e+10
3.9019799e+10
-8.5063996e+09
1.1870697e+10
1.4813619e+11
-1.551221e+11
2.5268654e+09
1.5587863e+11
-1.6849749e+11
1.3335661e+10
4.4671208e+09
-7.900261e+09
4.6483161e+09
8.2739276e+09
5.3740461e+09
-8.846167e+09
-1.7709149e+09
1.5238432e+09
4.634941e+09
-1.3728811e+09
-1.0287397e+10
1.3849222e+09
1.7696053e+09
8.9513267e+09
-1.6103513e+10
6.5920572e+08
4.732792e+09
9.9080726e+08
7.2970209e+09
-9.4233344e+09
7.4040262e+09
-8.6341501e+09
1.6680767e+09
-1.572977e+09
1.9699578e+09
-1.4079795e+10
1.1401699e+11
-1.4584732e+11
1.6668054e+10
1.0564229e+11
-1.303826e+11
1.6580944e+10
8.1905565e+09
1.2539328e+10
1.4150747e+10
-6.122824e+09
-1.1249713e+09
3.4069334e+08
9.0906569e+09
-1.3848376e+09
-3.8023588e+09
1.3825608e+09
9.5092869e+09
5.4801174e+09
-4.5132008e+09
8.2858194e+09
8.248379e+09
-9.2073488e+09
-9.4467131e+08
8.0567559e+08
1.3963182e+09
8.57544e+09
-7.0839947e+09
-8.1647261e+09
1.2359395e+09
-1.230259e+10
-2.7951117e+11
-2.7453631e+11
-7.3038559e+09
-2.7510981e+09
8.0920774e+09
2.6215719e+09
-5.917831e+10
-4.6518613e+09
5.5724075e+09
-2.0314307e+10
-4.9776598e+10
6.610494e+09
-1.7746143e+10
-4.9961604e+10
7.6814109e+09
-5.8317148e+10
1.7501565e+09
6.3242232e+08
-1.1967872e+10
-1.0530474e+10
-1.0302046e+10
-1.1835671e+10
-1.3565304e+09
-1.4037703e+09
-1.5567414e+09
-97570946
-1.5857894e+09
1.4322853e+08
-8.2747514e+09
-7.3157699e+09
-8.6727871e+09
-7.9357092e+09
1.355636e+09
1.2307464e+08
-1.2392596e+10
-1.1791664e+10
-1.0398047e+10
-1.0739213e+10
-6.91785e+08
-8.6988688e+09
-8.8049026e+09
-8.0587077e+09
-7.8883542e+09
-6.5743531e+09
1.2686413e+10
-5.7127083e+10
-6.173994e+10
-6.1666822e+10
-5.5623833e+10
-7.3741801e+09
-1.1516275e+09
8.3486154e+09
1.7074463e+09
-5.886647e+10
-3.3386987e+09
-1.978867e+10
4.8987811e+09
-5.0170781e+10
6.5461247e+09
-1.8259659e+10
-5.1034574e+10
7.7601335e+09
-5.8942126e+10
1.4458203e+10
-1.1984005e+10
-6.4572458e+10
-6.0718142e+10
-5.5792114e+10
-5.7357288e+10
-2.3437287e+11
-2.3144246e+11
-2.0419289e+11
-2.2088909e+11
1.1045426e+10
-2.0043245e+10
-5.1051687e+10
-5.0879584e+10
-4.3443453e+10
-4.1523171e+10
-5.0995555e+10
-4.8316366e+10
-3.9502677e+10
-4.2995736e+10
1.3258079e+09
1.7218521e+09
-1.5944543e+09
-1.2455779e+10
-1.1789162e+10
-1.0350423e+10
-1.0728268e+10
1.7052111e+09
-1.19773e+10
-1.2104237e+10
-1.0637891e+10
-1.042461e+10
1.6627936e+09
-2.6502016e+09
-8.6349918e+09
-8.7607693e+09
-8.0167308e+09
-7.8584344e+09
-8.3826831e+09
-8.7650778e+09
-8.0676904e+09
-7.445833e+09
2.6465856e+08
-2.3804431e+09
1.9943085e+09
-2.3783967e+09
-2.3022355e+09
-3.1647235e+09
-3.0338878e+09
-2.541233e+09
1.4808659e+08
2.3484185e+09
-2.3387424e+09
-2.4034065e+09
-3.2366491e+09
-3.0841795e+09
-6.276653e+08
7.1499162e+08
-1.2107678e+10
-1.1843416e+10
26729639
-6.2838444e+08
7.6294158e+08
2531065.1
-5.1526653e+08
-4.9248635e+08
-7.2571899e+08
-7.7226463e+08
-6.0615795e+08
7.2743256e+08
-4.9388396e+08
-5.0510333e+08
-7.6183657e+08
-7.3831187e+08
57669133
-2.6364014e+09
-2.5816666e+09
1.1692181e+08
2.6389564e+09
-4.0963382e+08
6.4860086e+08
-1.2110101e+10
41491617
25559995
2.4003359e+09
-2.3627854e+09
-2.4493906e+09
-3.2854184e+09
-3.094317e+09
-2.3850738e+09
2.0898221e+09
-2.4026791e+09
-2.3242605e+09
-3.1027537e+09
-3.2134248e+09
-1.2227177e+10
-1.2189046e+08
-2.5059664e+09
-1.0144411e+08
2.3326832e+09
-2.3869312e+09
-2.4424402e+09
-3.3026042e+09
-3.1526433e+09
-2.2768696e+09
1.9740425e+09
-2.4090446e+09
-2.3128651e+09
-3.0635959e+09
-3.2035662e+09
-4.9941953e+08
4.8161583e+08
-1.2359531e+10
-1.1975346e+10
2.3837219e+08
-2.5618091e+09
2.2863788e+09
-2.3761592e+09
-2.4397418e+09
-3.2739811e+09
-3.0945075e+09
-1.7270478e+08
-2.3587526e+09
2.0378425e+09
-2.4385507e+09
-2.3556224e+09
-3.1294258e+09
-3.2394182e+09
-2.3994294e+08
-1.1932697e+10
4.5469769e+08
-1.2188766e+10
-1.0597751e+10
58846714
7.5924568e+09
-1.0722531e+10
-1.3922175e+10
-1.4601159e+10
-1.1317448e+10
3.572255e+09
-5.2914412e+10
-1.1535694e+10
-3.715274e+08
8.6441468e+09
-1.1411575e+10
-1.123243e+10
-1.4193561e+10
-1.4944669e+10
4.8355858e+09
-5.3608843e+10
-5.583213e+10
-1.1267691e+10
2.9508605e+10
-5.3612152e+10
-5.6678534e+10
-6.6511118e+10
-6.4811637e+10
1.2284046e+10
-3.0552137e+09
-5.318555e+10
4.9936165e+09
1.1901576e+09
8.3005875e+09
-8.8399734e+08
-1.1313343e+10
-1.4335136e+10
-1.1507669e+10
-1.5166404e+10
1.0970878e+10
-5.4485685e+10
7.3632323e+09
-1.1541492e+10
-1.102023e+10
-1.5083095e+10
-1.439003e+10
3.0124402e+10
-2.1440606e+11
5.5005326e+10
-2.0979957e+11
2.530509e+10
-5.6142316e+10
-5.5957251e+10
-6.4181273e+10
-6.8314668e+10
1.1486977e+10
-1.4187243e+10
5.3874006e+08
-4.7391116e+08
-5.5767276e+08
8.6886959e+08
8.2995276e+08
-3.3832539e+08
9.8916346e+08
-4.2289919e+08
9.5394588e+08
6.5044794e+08
-5.2413704e+10
2.6557603e+09
-2.4259699e+09
3.9702225e+09
-2.1501996e+09
4.4342714e+09
1.0896044e+10
-1.3753847e+10
-6.0693491e+08
6.4994224e+08
-6.8141441e+08
6.1709618e+08
4.8963861e+08
1.9355467e+09
-6.4961122e+10
-3.1644646e+09
3.1240299e+09
-2.9970422e+09
3.4625079e+09
5.5304396e+08
-5.6778235e+08
7.0492742e+08
-6.4616425e+08
6.7165822e+08
-5.3529166e+10
3.4366072e+09
-2.5723102e+09
4.1140068e+09
-2.1228637e+09
4.407191e+09
-6.6146412e+10
2.2178231e+09
3.630735e+09
-2.8438111e+09
-3.2390231e+09
3.3483879e+09
4.9653179e+10
2.0688252e+09
-3.5014343e+09
-3.6563402e+09
2.7513367e+09
2.4255934e+09
-6.2429359e+10
1.4026347e+10
3.4737418e+08
-6.9095274e+08
-7.5245352e+08
5.8357589e+08
5.7348423e+08
2.2145411e+09
-3.4183365e+09
2.7496478e+09
2.390424e+09
-3.6048019e+09
1.0934686e+10
4.0304605e+08
-7.2522216e+08
-6.5518914e+08
6.1042095e+08
5.8283368e+08
5.176071e+08
-6.5678615e+08
5.8765744e+08
-7.3022244e+08
5.5926191e+08
-4.997099e+10
2.5481458e+09
2.7740435e+09
2.5638462e+09
-3.3886827e+09
-3.7776133e+09
2.2538445e+09
-3.4750369e+09
-3.8305415e+09
2.7036098e+09
2.4936984e+09
-6.2077481e+10
1.4891837e+10
1.2192046e+10
1.3479157e+10
-1.3734139e+10
2.1065831e+11
-1.5658769e+10
-1.2465556e+10
-1.5756901e+10
1.3623829e+10
1.5718835e+10
-2.73572e+11
2.3286377e+10
-1.925044e+10
1.6248299e+10
1.8496376e+10
-1.0061686e+10
-1.3382426e+10
2.9277636e+10
2.0959469e+11
1.4561136e+10
-1.4122049e+10
-1.5759845e+10
1.2296683e+10
-2.6964913e+11
-6.8606875e+10
6.8836082e+10
8.3040251e+10
-1.3399652e+12
-5.372138e+10
-4.377663e+10
5.6495884e+10
3.8687196e+10
-6.1081105e+10
-1.654586e+11
-2.4656273e+10
3.2348797e+10
-1.4861781e+08
-2.3525402e+10
2.9275524e+10
1.4344809e+09
-2.1837517e+11
7.1295089e+10
6.001246e+10
3.4073995e+10
5.9723268e+10
-6.1314257e+10
-4.9116265e+10
4.5683566e+10
1.6690254e+11
-2.2005038e+11
-4.1145708e+09
-6.8341464e+09
-1.1419904e+10
-1.3697359e+10
1.7982007e+10
1.5165438e+10
-4.9271051e+10
-2.1027079e+09
6.494471e+10
2.7577044e+09
2.9224593e+09
-3.5903487e+09
-3.171073e+09
2.7063731e+09
-1.9255377e+09
2.3776096e+09
2.6592959e+09
2.8281309e+09
-3.3465611e+09
-3.6913645e+09
-6.1039966e+10
-5.0736665e+10
6.6485564e+10
2.8628565e+09
-3.6557185e+09
-3.4578577e+09
2.5043348e+09
2.4468825e+09
2.7617634e+09
-3.6030233e+09
-3.7625941e+09
-6.3947928e+10
2.2035678e+10
1.3378706e+10
1.2422652e+10
-1.2979258e+10
-1.5629099e+10
2.04563e+10
1.6916307e+11
-4.4623052e+09
1.7432571e+11
2.4816696e+10
1.7864781e+09
-2.156609e+10
2.8132591e+10
1.7276157e+09
-3.0045406e+09
-1.743063e+11
-1.4115985e+10
2.0161216e+10
-2.8445906e+09
-1.7550769e+10
2.3636635e+10
-1.7894282e+11
-7.5395689e+09
1.5695629e+11
-1.6006996e+11
-9.3501582e+09
-2.0765363e+09
-2.7716703e+09
-5.2375467e+10
3.9215577e+09
-2.4487349e+09
-1.9821348e+09
4.3744852e+09
4.1182064e+09
-5.3322922e+10
4.412602e+09
-2.5444832e+09
-2.2425044e+09
3.9003441e+09
1.9568139e+09
3.5232434e+09
-3.030233e+09
-3.2318925e+09
3.1432322e+09
2.8488823e+09
3.6624115e+09
-3.2076049e+09
-2.7298113e+09
3.3785009e+09
5.3664634e+09
1.6440389e+11
6.4641655e+09
1.6317976e+11
1.5795519e+10
2.1451017e+09
-7.0390328e+09
1.628884e+10
-5.7545327e+09
6.5434474e+09
-1.0211919e+10
-8.5285827e+08
1.255061e+09
-93081599
-8.2891749e+08
9.879023e+08
-1.2261943e+10
-1.1188769e+09
1.7453136e+10
-1.5035773e+10
-1.1526679e+08
-1.9489555e+09
1.1700414e+10
-1.0746797e+09
8.1291916e+08
2.8984116e+09
-7.254239e+08
6.4071043e+08
2.6002321e+09
-8.0633384e+09
2.6786483e+09
1.9560082e+09
-1.1262458e+10
-6.0642787e+08
1.1249899e+09
-3.8111442e+08
5.7565981e+08
-1.301278e+10
1.1179943e+10
-1.0696299e+10
4.7642886e+08
1.1543905e+09
1.031865e+09
-1.4539335e+10
-1.5245158e+08
-2.1204198e+08
5.7612e+08
1.1176751e+09
1.1438392e+09
-1.4809876e+10
-1.3577164e+08
-2.1933289e+08
-88269716
2.5393284e+08
2.6520109e+08
-3.118407e+09
1.1678137e+08
-47430773
-61507924
2.6021132e+08
2.4250321e+08
-3.1880773e+09
-65641746
-57411486
4.5350898e+08
1.0395708e+09
1.149624e+09
-1.4980835e+10
-1.7847306e+08
-2.3415044e+08
6.1228346e+08
1.1551005e+09
1.1485873e+09
-1.4874981e+10
-1.3002567e+08
-2.0750332e+08
4.0417747e+08
1.0179893e+09
1.1336133e+09
-1.4674187e+10
-1.8518451e+08
-2.3473106e+08
4.3894972e+08
1.1369198e+09
1.1429674e+09
-1.5074231e+10
-1.6392646e+08
-2.3496779e+08
3.5974013e+08
1.052276e+09
1.1360522e+09
-1.488685e+10
-1.9328522e+08
-2.3245924e+08
1.143596e+09
1.1257403e+09
-1.4592824e+10
5.2186702e+08
-1.4063463e+08
-2.0779201e+08
2.7227304e+09
4.3693271e+09
5.0094248e+09
-6.5023355e+10
-1.192033e+09
-8.6482934e+08
4.0350921e+09
4.9680186e+09
4.7998804e+09
-6.5973651e+10
-1.2129029e+09
-7.3839441e+08
-3.3480517e+09
5.1022235e+09
4.9626447e+09
-6.459953e+10
4.808257e+09
-6.1972501e+08
-1.1421188e+09
2.6228135e+10
2.4396058e+10
2.0829004e+10
-2.8247185e+11
-6.1435262e+09
-3.1742173e+09
5.1145259e+09
4.4527623e+09
-6.643652e+10
-8.8682806e+08
-1.2919397e+09
2.4678873e+10
2.2373847e+10
-2.749264e+11
-2.3583052e+09
-6.4095365e+09
2.9845901e+10
-1.6394129e+11
-9.8683997e+09
-1.5435493e+11
-5.5219185e+09
-3.0274491e+10
-2.1353856e+11
-2.7356487e+09
-2.1776624e+11
-7.0696673e+09
-1.8607037e+10
1.7187955e+11
-1.746901e+11
2.1629166e+10
-8.1368022e+09
1.5814126e+11
-1.7231644e+11
-6.0252726e+09
1.4749972e+10
6.1788718e+09
2.9303455e+10
2.9723503e+09
1.4395053e+09
6.1913279e+09
-8.727628e+09
5.0085682e+09
3.7461172e+09
-5.2941552e+09
1.420225e+09
6.0344408e+09
-1.4465985e+09
1.4549098e+09
8.2093616e+09
7.1294112e+09
-7.5265467e+09
-1.6598576e+09
1.4147392e+09
-1.6723408e+09
-7.9282078e+09
1.5416368e+09
7.0926287e+09
-8.7639346e+09
-2.2342304e+09
4.3426223e+09
1.4565348e+08
1.086694e+10
5.8898176e+09
-9.4287086e+08
1.0782294e+10
4.3617701e+08
9.1729856e+09
9.3776305e+09
-1.014165e+10
-5.6563579e+08
-1.9256102e+08
-8.3091933e+08
-8.1917183e+09
4.6588409e+08
9.3635332e+09
-7.5372599e+09
-1.4268666e+10
-5.389464e+09
-8.1156672e+09
1.1345986e+10
-4.926272e+09
-7.6759036e+09
-7.398022e+09
-2.0369136e+09
4.1735339e+09
4.3701865e+09
1.8299924e+09
-5.92868e+10
-2.3089254e+08
-5.9937099e+08
-3.6730716e+09
4.4066799e+09
-6.2834488e+10
6.6045087e+09
-6.3395735e+10
4.365211e+09
3.9682276e+09
-5.9120858e+10
-6.3587054e+08
-2.6526107e+08
1.9244228e+09
-7.0474566e+08
8.2315659e+08
-9.6454862e+09
-3.9631437e+08
1.8596861e+09
3.8109538e+08
-1.0450504e+10
-1.8350449e+09
1.8280047e+09
-1.0354656e+10
-9.6399263e+09
-21346980
1.9818123e+08
-1.7897551e+09
-1.7621586e+09
-1.5291819e+09
-1.4678392e+09
1.9439727e+08
52674805
-3.4663884e+08
-3.6999608e+08
-2.6186543e+08
-2.4718387e+08
-11975491
-3.6493567e+08
-2.2761903e+08
-2.4228176e+08
-1.7090339e+08
36120701
-1.8053692e+08
-3.4237171e+08
-2.3531866e+08
-2.3769661e+08
-1.8535773e+08
-1.8137948e+08
33872973
-1.8618833e+08
-20887316
-3.8352691e+08
-3.9915956e+08
-2.0284524e+08
1.3573362e+08
-1.2839182e+09
-1.4170399e+09
-1.3611101e+09
-1.5140377e+09
-1.9856722e+08
-1.9633574e+08
-3.9536993e+08
-3.8455882e+08
-2.0260689e+08
2.311765e+08
-1.7554695e+09
-1.8454197e+09
-1.4987838e+09
-1.5438043e+09
1.2471977e+08
-1.3701908e+09
-1.5337431e+09
-1.3468519e+09
-1.5280899e+09
4.7779088e+08
1.8581411e+09
-9.7318323e+09
1.964556e+09
7.4744444e+08
-9.6556842e+09
-1.5152578e+08
1.9064192e+09
2.8480251e+08
-1.0473179e+10
1.8448942e+09
-1.049639e+10
31562941
-1.8192447e+08
39299357
-1.4980535e+09
-1.5543179e+09
-1.8612034e+09
-1.7678027e+09
-70430412
-1.8038538e+09
-1.7834519e+09
-1.4915858e+09
-1.5479419e+09
71348667
-49047385
-1.353896e+09
-1.3988119e+09
-1.5403935e+09
-1.5694878e+09
-1.3773637e+09
-1.5453187e+09
-1.3094239e+09
-1.4407859e+09
-7.0563117e+09
-2.1223657e+09
2.2262832e+09
8.1540922e+09
-5.8328772e+10
-4.4160204e+09
5.4711879e+09
-1.9679714e+10
-5.0171707e+10
6.1132623e+09
-1.6913438e+10
-5.0383891e+10
7.5926634e+09
-5.7518152e+10
-7.2907413e+09
-1.3515387e+09
4.2105823e+09
4.353588e+09
1.3486973e+09
-5.9289757e+10
-2.4541344e+08
-6.0187298e+08
-3.3149394e+09
4.0815884e+09
-6.3617628e+10
6.2920802e+09
-6.435057e+10
3.9141418e+09
4.3017265e+09
-5.9254887e+10
-3.9460652e+08
-7.379602e+08
-4.365788e+09
1.6118494e+10
-5.5244022e+10
-6.2359666e+10
-6.22724e+10
-5.4152035e+10
3.3381191e+09
6.0759282e+09
-1.7104098e+10
-5.141121e+10
7.0354468e+09
-1.9085593e+10
4.7610285e+09
-5.0090898e+10
-8.6347279e+08
8.5692739e+09
1.429063e+09
-5.7891532e+10
7.8551582e+09
-5.7773706e+10
1.8101686e+10
-5.3792622e+10
-6.059475e+10
-6.4164433e+10
-5.5217241e+10
1.2967437e+10
-4.8083063e+10
-4.7748979e+10
-3.9105918e+10
-3.7229718e+10
-4.8655359e+10
-4.2285294e+10
-4.0481085e+10
-5.0916079e+10
2.0500939e+09
2.5196711e+09
-2.4515803e+09
-1.2264109e+10
-1.1664535e+10
-1.0181971e+10
-1.0489985e+10
2.4673276e+09
8.7006721e+08
-1.0420313e+10
-1.1926584e+10
-1.1772446e+10
-1.0192384e+10
1.7960921e+09
-2.4880531e+09
-8.4028141e+09
-8.4579197e+09
-7.6031252e+09
-7.4673796e+09
1.3207919e+09
-8.0636248e+09
-7.6212856e+09
-8.4473896e+09
-7.0850026e+09
4.4781685e+08
2.1488344e+09
-1.0191672e+10
-1.1668093e+10
-1.2216555e+10
-1.0491723e+10
2.2262846e+09
-1.0409543e+10
-1.1877995e+10
-1.1678967e+10
-1.0130119e+10
-9.203584e+08
-8.0734064e+09
-7.7049824e+09
-8.5325878e+09
-7.1028007e+09
-8.3364051e+09
-8.4078317e+09
-7.6064222e+09
-7.4516596e+09
3.7494583e+08
1.8836574e+09
-6.7015625e+08
-9.833638e+09
1.9783183e+09
-9.683412e+09
6.4446644e+08
8976764.7
1.9430248e+09
1.0736318e+08
-1.0431465e+10
-1.6819237e+08
1.9003869e+09
-1.0567824e+10
6.2203575e+08
1.7990255e+09
-9.7367726e+09
1.9203426e+09
-9.770972e+09
-2.6583086e+08
1.8687276e+09
-1.0488633e+10
1.8162037e+09
-1.0422815e+10
1.9695084e+08
-88759552
-1.9124178e+08
-1.7528923e+09
-1.8413888e+09
-1.4875211e+09
-1.5271099e+09
-15552655
15244237
-1.8212477e+09
-1.7960916e+09
-1.5548229e+09
-1.4909558e+09
2.0725484e+08
-2.7239595e+08
-1.3392611e+09
-1.3698196e+09
-1.5136591e+09
-1.5312282e+09
77468429
-1.3913378e+09
-1.3149266e+09
-1.5438469e+09
-1.4562439e+09
69405231
-21956771
-1.7975107e+09
-1.7672497e+09
-1.4735885e+09
-1.5362756e+09
-1.9441653e+08
-1.8353111e+09
-1.7481699e+09
-1.4965053e+09
-1.5372952e+09
-48793247
-1.3459322e+09
-1.3768408e+09
-1.534576e+09
-1.5458101e+09
-1.3610227e+09
-1.5172942e+09
-1.2933334e+09
-1.419937e+09
-64134594
-5.8732791e+08
46862132
7.2767745e+08
-5.1023479e+08
-4.9026585e+08
-7.3418392e+08
-7.6678733e+08
-5.4968021e+08
6.3863856e+08
-4.8508428e+08
-4.974886e+08
-7.5100514e+08
-7.1921846e+08
-1.1809815e+08
1.3542754e+08
-2.6149898e+09
-2.5528793e+09
-2912573.8
-6.0814963e+08
22059949
7.5011025e+08
-7.2616116e+08
-4.9115326e+08
-5.1317207e+08
-7.6936198e+08
-5.6640743e+08
6.8947009e+08
-4.8952895e+08
-4.9939311e+08
-7.5975698e+08
-7.3383937e+08
75126235
-2.6250796e+09
1.1889739e+08
-2.5922607e+09
2858594.7
-94345020
-8593519.6
2.2309116e+08
-6.3827754e+08
-93782345
2.2064165e+08
13134865
-6.296218e+08
-7242695.4
-5.7872524e+08
20399545
-15888034
-5.9276316e+08
15097899
-86748600
2.1643145e+08
-6.2459043e+08
-90400121
2.2321986e+08
-6.314185e+08
-17019054
-5.9089429e+08
-5.8164177e+08
24269652
-6.0646168e+08
376950.11
7.2831101e+08
-7.2907718e+08
-4.9623497e+08
-5.1210087e+08
-7.7186727e+08
-5.8201757e+08
-15692977
6.9720046e+08
-7.6934876e+08
-5.1111437e+08
-4.9887316e+08
-7.4527355e+08
50584688
-1.0499822e+08
-2.6579214e+09
98747115
-2.6003536e+09
-52429212
-5.8279625e+08
7.3393167e+08
-7.3722421e+08
-4.9375381e+08
-5.1387151e+08
-7.7222755e+08
-5.4117718e+08
6.3884243e+08
-7.5375493e+08
-4.9599852e+08
-4.8118413e+08
-7.2135639e+08
1.0326765e+08
-2.58873e+09
-2.6483275e+09
19140483
-5.9467146e+08
-11789952
7.3320228e+08
-5.1936684e+08
-4.9902694e+08
-7.3508359e+08
-7.7933429e+08
-5.6449026e+08
-25991909
6.8773487e+08
-4.98941e+08
-5.0958149e+08
-7.693926e+08
-7.4263675e+08
42924486
-99852335
-2.6732466e+09
72781719
-2.6342042e+09
-56172541
-5.6890986e+08
7.1214152e+08
-5.151915e+08
-4.9399876e+08
-7.3815894e+08
-7.7474596e+08
-5.2975131e+08
6.2059141e+08
-7.5305287e+08
-4.9925599e+08
-4.8528541e+08
-7.2190612e+08
99956453
-2.5765671e+09
-2.6387585e+09
52221842
-5.8652607e+08
7.080988e+08
-5.1624973e+08
-4.9699839e+08
-28749088
-7.3499818e+08
-7.7295778e+08
-5.6292956e+08
25124764
6.8027541e+08
-4.988859e+08
-5.109608e+08
-7.7408239e+08
-7.4606082e+08
21074032
-55385081
-2.6590034e+09
-2.593918e+09
59698884
-2.1173705e+09
86268863
1.9092263e+09
-2.2636167e+09
-3.0041245e+09
-2.3594847e+09
-3.1461355e+09
-20514058
-5.6500053e+08
7.0841471e+08
-5.171677e+08
-4.9924103e+08
-7.4437273e+08
-7.7554408e+08
-5.3967841e+08
6.4134534e+08
-4.9043693e+08
-5.037474e+08
-7.6500207e+08
-7.3040649e+08
67882517
-2.6119288e+09
-2.655869e+09
5.0571069e+08
-1.1721232e+10
2.314144e+09
5.9237106e+08
-1.1992539e+10
-30280130
2.1924008e+09
-2.3456589e+09
-2.4071403e+09
-3.2350967e+09
-3.0912608e+09
-1.6307246e+08
-2.15015e+09
1.871341e+09
-2.4104084e+09
-2.3122319e+09
-3.0817475e+09
-3.1955863e+09
-2.3714782e+09
-76420798
2.1104631e+09
-2.3575811e+09
-2.3978456e+09
-3.2304962e+09
-3.0721406e+09
-3.4738119e+08
5.8085115e+08
-1.183049e+10
-1.2049949e+10
-6.2854075e+08
-1.0606736e+10
7.5172371e+09
-1.1320981e+10
-1.4640634e+10
-1.0788655e+10
-1.4027852e+10
-1.1021312e+10
-2.0725524e+09
7.6537352e+09
-1.136204e+10
-1.49339e+10
-1.1278944e+10
-1.4292074e+10
-3.8030771e+09
4.738091e+09
-5.4071389e+10
-5.3398828e+10
-2.3844629e+09
2.3073297e+08
2.0147356e+09
-1.3793418e+08
-3.0598134e+09
-2.3247504e+09
-2.4084376e+09
-3.2434113e+09
-2.6508378e+08
-1.1877812e+10
5.2552102e+08
-2.1429045e+09
82142999
1.764047e+09
-2.3835822e+09
-2.3036976e+09
-3.2028303e+09
-3.09011e+09
-5.0865808e+08
-1.2103089e+10
-59274836
-2.2835608e+09
2.0422511e+09
-2.3544387e+09
-2.4102023e+09
-3.123797e+09
-3.2703222e+09
-2.05771e+09
1.7470637e+09
-3.1724329e+09
-2.3698665e+09
-2.2733837e+09
-3.0295939e+09
-4.6986018e+08
-1.2290927e+10
-1.1883986e+10
2.2117069e+09
-1.1492507e+10
7.0858768e+09
-1.4163298e+10
-1.1454764e+10
-1.1563284e+10
-1.4993693e+10
-1.0152037e+10
5.9093908e+09
-1.1567167e+10
-1.1020478e+10
-1.4761116e+10
-1.4226698e+10
-3.5536536e+09
-5.3496709e+10
-5.4908419e+10
1.1457676e+10
3.4110195e+08
-1.4196869e+10
-5.2989222e+08
8.4597537e+08
-5.6761562e+08
7.6239454e+08
-70236079
2.2812258e+09
-2.8668767e+09
1.0150733e+08
-1.0849661e+08
1.5884415e+08
1.5384215e+08
-1.2372131e+08
2.3213401e+09
-2.9318671e+09
-1.1908698e+08
1.5767487e+08
-1.2461769e+08
1.4572234e+08
-81023335
2.9885718e+09
1.1425146e+08
1.6587748e+08
-96628904
1.712991e+08
-1.1225226e+08
3.0501232e+09
-1.1447693e+08
1.574712e+08
-1.0737484e+08
1.7180992e+08
2.413814e+09
-76927559
1.058234e+08
-81493878
1.9636824e+08
1.9023439e+08
-97571959
-92725390
1.2458488e+08
-68174387
2.049914e+08
1.9947346e+08
-83579275
2.450041e+09
-92519166
-98362312
1.9519866e+08
1.817593e+08
-78200605
-86248917
2.059206e+08
1.9130851e+08
4.7419281e+08
-4.3449381e+08
8.9314508e+08
-3.8194254e+08
9.881097e+08
1.1571855e+10
-1.4370459e+10
4.2786212e+08
-5.0320612e+08
8.4453763e+08
-5.7960966e+08
7.9992816e+08
5.7962815e+08
-3.6424622e+08
9.7152207e+08
-4.4387496e+08
9.2741524e+08
2.1922857e+09
-57898371
-2.8056217e+09
91058794
-1.3021147e+08
-1.4469641e+08
1.2713013e+08
1.2101949e+08
-61195118
2.8251564e+09
-1.4188031e+08
94891768
1.235095e+08
-1.2738189e+08
1.2912882e+08
2.2309112e+09
-2.8702837e+09
1.1744808e+08
-1.3883714e+08
1.2776854e+08
-1.4314018e+08
2.8861629e+09
-1.3612413e+08
1.3010204e+08
1.1752443e+08
-1.4181526e+08
1.0920488e+10
3.1372276e+08
-1.3761123e+10
-6.8798186e+08
5.6273313e+08
-6.5760158e+08
6.3494056e+08
3.69617e+08
-6.2065809e+08
-6.5791944e+08
6.9521768e+08
6.144365e+08
1.1021461e+10
3.8355206e+08
-1.3975832e+10
-6.3155475e+08
-7.0008473e+08
6.2887343e+08
5.9027348e+08
4.3378009e+08
-5.9963245e+08
6.7936807e+08
-6.7188049e+08
6.414935e+08
2.2225704e+09
-61592789
93604094
-1.2378349e+08
1.3622125e+08
1.2937405e+08
-1.3901913e+08
-72204464
1.0911246e+08
1.3604705e+08
-1.1949134e+08
1.4197565e+08
-1.3481798e+08