/*--------------------------------*- C++ -*----------------------------------*\
  =========                 |
  \\      /  F ield         | OpenFOAM: The Open Source CFD Toolbox
   \\    /   O peration     | Website:  https://openfoam.org
    \\  /    A nd           | Version:  7
     \\/     M anipulation  |
\*---------------------------------------------------------------------------*/
FoamFile
{
    version     2.0;
    format      ascii;
    class       volScalarField;
    location    "2000";
    object      pMean;
}
// * * * * * * * * * * * * * * * * * * * * * * * * * * * * * * * * * * * * * //

dimensions      [0 2 -2 0 0 0 0];

internalField   nonuniform List<scalar> 
34222
(
-6.6101543e+26
-6.4400267e+26
-6.6381451e+26
-6.6050974e+26
-6.5811586e+26
-6.6935718e+26
-6.7094223e+26
-6.2292682e+26
-6.4747771e+26
-6.3718545e+26
-6.4108299e+26
-6.4767979e+26
-6.4390322e+26
-6.6557403e+26
-6.7503437e+26
-6.632071e+26
-6.6356959e+26
-6.7436284e+26
-6.6110832e+26
-6.5750608e+26
-6.6992841e+26
-6.7255269e+26
-6.6790945e+26
-6.2472043e+26
-5.8754754e+26
-6.2380106e+26
-6.1552584e+26
-6.1478629e+26
-6.2160236e+26
-6.4830431e+26
-6.508187e+26
-6.4324002e+26
-6.4309151e+26
-6.5085668e+26
-6.3359401e+26
-6.3606023e+26
-6.4919e+26
-6.4509577e+26
-6.648559e+26
-6.7308726e+26
-6.615281e+26
-6.6339029e+26
-6.7644849e+26
-6.741907e+26
-6.6440044e+26
-6.6379358e+26
-6.7502056e+26
-6.6136186e+26
-6.5775058e+26
-6.707252e+26
-6.7332506e+26
-6.7411524e+26
-6.6698274e+26
-6.6692377e+26
-6.7099845e+26
-6.6229275e+26
-6.6224545e+26
-6.2667677e+26
-5.8759096e+26
-6.2495764e+26
-6.1756064e+26
-6.1580738e+26
-6.2412917e+26
-5.8417891e+26
-5.9484795e+26
-5.9498535e+26
-5.8443023e+26
-6.2256943e+26
-6.1241084e+26
-6.1144581e+26
-6.2113552e+26
-6.5655293e+26
-6.5629338e+26
-6.459843e+26
-6.4186841e+26
-6.4165989e+26
-6.4629536e+26
-6.489763e+26
-6.5529567e+26
-6.4312719e+26
-6.3934224e+26
-6.5287968e+26
-6.3351104e+26
-6.3616343e+26
-6.4931446e+26
-6.4514586e+26
-6.5994066e+26
-6.5948751e+26
-6.7204775e+26
-6.7230459e+26
-6.7071018e+26
-6.5958899e+26
-6.6239043e+26
-6.7459612e+26
-6.7598833e+26
-6.6512025e+26
-6.6577943e+26
-6.7563411e+26
-6.6141382e+26
-6.5777254e+26
-6.7078686e+26
-6.734037e+26
-6.667764e+26
-6.6826053e+26
-6.6595027e+26
-6.7380077e+26
-6.6768965e+26
-6.7341437e+26
-6.757869e+26
-6.7338677e+26
-6.7337203e+26
-6.7367325e+26
-6.7344998e+26
-6.7314105e+26
-6.7341075e+26
-6.6663547e+26
-6.739789e+26
-6.6553796e+26
-6.6120348e+26
-6.6002919e+26
-6.6136744e+26
-6.3686936e+26
-6.2242761e+26
-6.2502961e+26
-6.221149e+26
-5.8757032e+26
-6.2482938e+26
-6.1717914e+26
-6.1744394e+26
-6.2517815e+26
-6.3667558e+26
-5.8461643e+26
-5.8380393e+26
-5.9639128e+26
-5.953889e+26
-6.2618568e+26
-6.154023e+26
-6.1265704e+26
-6.2418522e+26
-5.8319296e+26
-5.9668934e+26
-5.961943e+26
-5.8285137e+26
-6.2310601e+26
-6.1222901e+26
-6.1156047e+26
-6.2115389e+26
-6.6964946e+26
-6.7603256e+26
-6.6953927e+26
-6.6982821e+26
-6.6952426e+26
-6.5633687e+26
-6.558252e+26
-6.4329084e+26
-6.4099821e+26
-6.4360241e+26
-6.4817013e+26
-6.4654818e+26
-6.3834242e+26
-6.3493186e+26
-6.4728809e+26
-6.5070967e+26
-6.5549032e+26
-6.4383227e+26
-6.3966256e+26
-6.5352946e+26
-6.3350131e+26
-6.3619065e+26
-6.493244e+26
-6.4515301e+26
-6.61324e+26
-6.600812e+26
-6.7186544e+26
-6.7007262e+26
-6.7264539e+26
-6.6236532e+26
-6.6533049e+26
-6.7753177e+26
-6.761723e+26
-6.6520259e+26
-6.6592585e+26
-6.7571682e+26
-6.6628461e+26
-6.6660073e+26
-6.696508e+26
-6.6730013e+26
-6.6740522e+26
-6.7003667e+26
-6.6843947e+26
-6.7353856e+26
-6.7234755e+26
-6.6788886e+26
-6.7192438e+26
-6.6508972e+26
-6.6933552e+26
-6.667277e+26
-6.6718785e+26
-6.6956644e+26
-6.6350667e+26
-6.6791179e+26
-6.6596871e+26
-6.6716089e+26
-6.6777201e+26
-6.6807532e+26
-6.7179717e+26
-6.719898e+26
-6.758076e+26
-6.7605947e+26
-6.7681412e+26
-6.7615621e+26
-6.7803357e+26
-6.7828602e+26
-6.7843887e+26
-6.780127e+26
-6.7647257e+26
-6.7614034e+26
-6.7624466e+26
-6.7689823e+26
-6.761567e+26
-6.7617191e+26
-6.7715452e+26
-6.7672805e+26
-6.756891e+26
-6.7594981e+26
-6.7620024e+26
-6.7696666e+26
-6.731085e+26
-6.731563e+26
-6.7269179e+26
-6.7296759e+26
-6.6350044e+26
-6.7243242e+26
-6.7197762e+26
-6.7301194e+26
-6.7232118e+26
-6.5801349e+26
-6.5699868e+26
-6.6182718e+26
-6.6035116e+26
-6.6682764e+26
-6.5494855e+26
-6.4510191e+26
-6.4302533e+26
-6.5174283e+26
-6.5521438e+26
-6.4311758e+26
-6.2213361e+26
-6.2552028e+26
-6.3224526e+26
-6.316511e+26
-6.3699345e+26
-6.323344e+26
-6.2253152e+26
-6.0045834e+26
-6.2146039e+26
-6.3593634e+26
-6.2233609e+26
-6.2280432e+26
-6.2593036e+26
-6.1756522e+26
-5.8794298e+26
-6.1751674e+26
-6.2563948e+26
-6.3686303e+26
-6.3192024e+26
-6.2198831e+26
-6.3208686e+26
-6.2182298e+26
-6.0092347e+26
-5.8205237e+26
-5.8403121e+26
-5.9530242e+26
-5.9451319e+26
-6.2511447e+26
-6.1447993e+26
-6.1255811e+26
-6.2387663e+26
-6.5490242e+26
-6.5538372e+26
-6.4284092e+26
-6.424536e+26
-5.8382398e+26
-5.8332337e+26
-5.998944e+26
-5.9751159e+26
-6.2843392e+26
-6.1661563e+26
-6.1231729e+26
-6.250578e+26
-5.8317139e+26
-5.9649666e+26
-5.962895e+26
-5.8243411e+26
-6.2316542e+26
-6.1222657e+26
-6.1156116e+26
-6.2115131e+26
-6.7617445e+26
-6.7649565e+26
-6.789053e+26
-6.790673e+26
-6.7645237e+26
-6.7624834e+26
-6.7654505e+26
-6.7683746e+26
-6.7676693e+26
-6.763864e+26
-6.6948767e+26
-6.6918521e+26
-6.6901797e+26
-6.5510863e+26
-6.6933057e+26
-6.5474899e+26
-6.4599224e+26
-6.4490284e+26
-6.3939219e+26
-6.3966093e+26
-6.407338e+26
-6.3971269e+26
-6.4981489e+26
-6.5234046e+26
-6.4096568e+26
-6.4092896e+26
-6.5262424e+26
-6.5383746e+26
-6.554934e+26
-6.4389056e+26
-6.3964996e+26
-6.5357877e+26
-6.6235646e+26
-6.6144688e+26
-6.7297451e+26
-6.7184865e+26
-6.7273454e+26
-6.6251394e+26
-6.6551893e+26
-6.7776484e+26
-6.5706306e+26
-6.5731667e+26
-6.6906519e+26
-6.6548605e+26
-6.6537533e+26
-6.6910117e+26
-6.7015717e+26
-6.7302633e+26
-6.7320105e+26
-6.700665e+26
-6.7198096e+26
-6.7491021e+26
-6.7652106e+26
-6.7650311e+26
-6.7773395e+26
-6.73698e+26
-6.7797833e+26
-6.7181477e+26
-6.7366541e+26
-6.7024235e+26
-6.7008555e+26
-6.7307888e+26
-6.7311655e+26
-6.7184389e+26
-6.7195168e+26
-6.7369159e+26
-6.7384942e+26
-6.683097e+26
-6.6600317e+26
-6.6657567e+26
-6.6914126e+26
-6.688384e+26
-6.6508508e+26
-6.65508e+26
-6.6907209e+26
-6.6160028e+26
-6.6539575e+26
-6.6498914e+26
-6.6750026e+26
-6.6791021e+26
-6.6017463e+26
-6.6296244e+26
-6.6445695e+26
-6.6611508e+26
-6.6643935e+26
-6.7062077e+26
-6.7078213e+26
-6.6683716e+26
-6.6760441e+26
-6.7166807e+26
-6.7113656e+26
-6.6998163e+26
-6.6977747e+26
-6.72773e+26
-6.7283214e+26
-6.7010191e+26
-6.701087e+26
-6.7298234e+26
-6.7317746e+26
-6.7146226e+26
-6.7155885e+26
-6.7334652e+26
-6.7340782e+26
-6.7195427e+26
-6.717249e+26
-6.7356041e+26
-6.7376863e+26
-6.7816957e+26
-6.7782211e+26
-6.7856232e+26
-6.780023e+26
-6.7832369e+26
-6.7833237e+26
-6.7869131e+26
-6.7842707e+26
-6.7761375e+26
-6.7740778e+26
-6.7925192e+26
-6.7969146e+26
-6.776547e+26
-6.7762446e+26
-6.7973257e+26
-6.7952112e+26
-6.7824684e+26
-6.7850247e+26
-6.7887596e+26
-6.784326e+26
-6.7846042e+26
-6.782004e+26
-6.7845159e+26
-6.7882562e+26
-6.7837777e+26
-6.786e+26
-6.7889477e+26
-6.7855341e+26
-6.7842201e+26
-6.781476e+26
-6.7846048e+26
-6.7886599e+26
-6.7780332e+26
-6.7814567e+26
-6.786881e+26
-6.7808025e+26
-6.7558902e+26
-6.7828576e+26
-6.7819468e+26
-6.7851661e+26
-6.7884498e+26
-6.7604375e+26
-6.7638235e+26
-6.7552284e+26
-6.7547696e+26
-6.7519106e+26
-6.7562425e+26
-6.762278e+26
-6.7124683e+26
-6.7036505e+26
-6.7142217e+26
-6.7193439e+26
-6.7445215e+26
-6.750143e+26
-6.7473307e+26
-6.7581967e+26
-6.7492619e+26
-6.7505502e+26
-6.7606441e+26
-6.7571483e+26
-6.6875254e+26
-6.6954787e+26
-6.6933665e+26
-6.704298e+26
-6.6041663e+26
-6.6240856e+26
-6.6244367e+26
-6.6632316e+26
-6.6643886e+26
-6.7116605e+26
-6.7339303e+26
-6.7128671e+26
-6.7361743e+26
-6.669445e+26
-6.6064034e+26
-6.6734858e+26
-6.4472886e+26
-6.4772613e+26
-6.447146e+26
-6.4775288e+26
-6.452616e+26
-6.5188221e+26
-6.4525018e+26
-6.5203509e+26
-6.5253825e+26
-6.5651499e+26
-6.5257897e+26
-6.5660383e+26
-6.6048868e+26
-6.6726154e+26
-6.6034815e+26
-6.6697838e+26
-6.5193286e+26
-6.4526864e+26
-6.4527443e+26
-6.5203447e+26
-6.2089128e+26
-6.2074275e+26
-6.2568314e+26
-6.2560512e+26
-6.0928009e+26
-6.2108386e+26
-6.2475047e+26
-6.2474568e+26
-6.2691999e+26
-6.2687656e+26
-6.3186189e+26
-6.3718546e+26
-6.3713353e+26
-6.3183772e+26
-6.3105046e+26
-6.3328339e+26
-6.3723091e+26
-6.3101654e+26
-6.310789e+26
-6.3329013e+26
-6.3325458e+26
-6.3720762e+26
-6.3988778e+26
-6.3720394e+26
-6.3988988e+26
-6.3711907e+26
-6.3716853e+26
-6.3180512e+26
-6.3189584e+26
-6.2065122e+26
-6.2084482e+26
-6.2561315e+26
-6.2571509e+26
-6.0978304e+26
-5.9962159e+26
-6.2185785e+26
-6.2155838e+26
-6.3169414e+26
-6.3162431e+26
-6.0005406e+26
-6.2144546e+26
-6.5478846e+26
-6.5429125e+26
-6.4226878e+26
-6.4261137e+26
-6.3542927e+26
-6.3197982e+26
-6.2204057e+26
-6.2151644e+26
-6.31908e+26
-6.0129529e+26
-6.3510289e+26
-5.8713574e+26
-6.2143468e+26
-6.1396636e+26
-6.2304239e+26
-6.2401348e+26
-6.1546785e+26
-6.2717449e+26
-6.1612117e+26
-5.9622847e+26
-5.8604696e+26
-5.844113e+26
-5.9763629e+26
-6.1509693e+26
-6.2699802e+26
-6.4269438e+26
-6.4264955e+26
-6.5485451e+26
-6.5491609e+26
-6.3697646e+26
-6.3176988e+26
-6.3169521e+26
-6.3706376e+26
-6.255726e+26
-6.2547965e+26
-6.2058511e+26
-6.2079908e+26
-6.0948308e+26
-6.3715067e+26
-6.3182811e+26
-6.3186112e+26
-6.3711194e+26
-6.2558279e+26
-6.2560678e+26
-6.2079773e+26
-6.2075222e+26
-6.0959313e+26
-5.9945865e+26
-5.9979962e+26
-5.7927216e+26
-5.8195409e+26
-5.9741821e+26
-5.9613254e+26
-6.2656451e+26
-6.1345182e+26
-6.1278996e+26
-6.2568258e+26
-6.6063372e+26
-6.6038417e+26
-6.6714821e+26
-6.6756661e+26
-6.6766059e+26
-6.6054509e+26
-6.6076302e+26
-6.6725277e+26
-6.5210035e+26
-6.451051e+26
-6.4513299e+26
-6.5195217e+26
-6.5176584e+26
-6.4497869e+26
-6.449381e+26
-6.5193394e+26
-5.838429e+26
-5.8339552e+26
-5.9962453e+26
-5.9703828e+26
-6.285324e+26
-6.1664574e+26
-6.1233705e+26
-6.2512557e+26
-5.8315755e+26
-5.9650316e+26
-5.9631481e+26
-5.824369e+26
-6.7926578e+26
-6.7897916e+26
-6.7920856e+26
-6.793281e+26
-6.8003936e+26
-6.8032911e+26
-6.802001e+26
-6.8033199e+26
-6.7943804e+26
-6.7927791e+26
-6.7925517e+26
-6.7946448e+26
-6.7957159e+26
-6.7934423e+26
-6.7941184e+26
-6.7952531e+26
-6.7960606e+26
-6.7944275e+26
-6.763826e+26
-6.7915144e+26
-6.7947464e+26
-6.7654942e+26
-6.7632085e+26
-6.759785e+26
-6.6876563e+26
-6.7549707e+26
-6.7595975e+26
-6.6821047e+26
-6.7615082e+26
-6.7596283e+26
-6.6674968e+26
-6.6738513e+26
-6.4835625e+26
-6.5019702e+26
-6.4065838e+26
-6.3791139e+26
-6.4022676e+26
-6.4046537e+26
-6.5078814e+26
-6.5184963e+26
-6.4111884e+26
-6.4126902e+26
-6.5292314e+26
-6.5402243e+26
-6.6235688e+26
-6.6152702e+26
-6.7306905e+26
-6.7195539e+26
-6.5692454e+26
-6.560241e+26
-6.6748809e+26
-6.7300779e+26
-6.7319619e+26
-6.5898048e+26
-6.5905154e+26
-6.6761444e+26
-6.7294564e+26
-6.7313729e+26
-6.7620992e+26
-6.7620907e+26
-6.7787661e+26
-6.7447021e+26
-6.7447454e+26
-6.7485291e+26
-6.7501199e+26
-6.7707171e+26
-6.7717473e+26
-6.7781844e+26
-6.7778483e+26
-6.7721299e+26
-6.7722917e+26
-6.7657486e+26
-6.7649946e+26
-6.7657819e+26
-6.7724704e+26
-6.7726537e+26
-6.7675644e+26
-6.7676905e+26
-6.7573244e+26
-6.7745706e+26
-6.7361801e+26
-6.7377369e+26
-6.7586957e+26
-6.7655402e+26
-6.777892e+26
-6.7601841e+26
-6.7604325e+26
-6.7383243e+26
-6.7385988e+26
-6.7450272e+26
-6.7454902e+26
-6.7492528e+26
-6.7497282e+26
-6.7666421e+26
-6.7804161e+26
-6.7662298e+26
-6.7789239e+26
-6.7620172e+26
-6.7628542e+26
-6.7492446e+26
-6.7492205e+26
-6.7452151e+26
-6.7443797e+26
-6.7458938e+26
-6.7458595e+26
-6.7508761e+26
-6.749609e+26
-6.7648793e+26
-6.7659331e+26
-6.7759909e+26
-6.7794098e+26
-6.7667642e+26
-6.7806361e+26
-6.7666219e+26
-6.7772845e+26
-6.6813355e+26
-6.6465731e+26
-6.6499344e+26
-6.6868755e+26
-6.6736833e+26
-6.727609e+26
-6.7299806e+26
-6.5866745e+26
-6.5921191e+26
-6.6767833e+26
-6.7294254e+26
-6.7287096e+26
-6.6572675e+26
-6.6344035e+26
-6.6424695e+26
-6.6671969e+26
-6.6390559e+26
-6.6377942e+26
-6.6734121e+26
-6.6771307e+26
-6.6457119e+26
-6.6235962e+26
-6.6279374e+26
-6.6515795e+26
-6.6316051e+26
-6.6370337e+26
-6.6754755e+26
-6.6816774e+26
-6.654144e+26
-6.688924e+26
-6.6991702e+26
-6.6439244e+26
-6.6838849e+26
-6.6806433e+26
-6.7125516e+26
-6.7139155e+26
-6.7162481e+26
-6.6876513e+26
-6.6892441e+26
-6.7188404e+26
-6.7011757e+26
-6.7025757e+26
-6.7226701e+26
-6.7235433e+26
-6.7072799e+26
-6.7248843e+26
-6.7049481e+26
-6.7275028e+26
-6.7202501e+26
-6.6903896e+26
-6.6936594e+26
-6.7215729e+26
-6.7228082e+26
-6.6949801e+26
-6.6970241e+26
-6.7265641e+26
-6.7136349e+26
-6.729521e+26
-6.7095124e+26
-6.7329341e+26
-6.708263e+26
-6.7094023e+26
-6.7282077e+26
-6.729514e+26
-6.7590329e+26
-6.7606673e+26
-6.7615775e+26
-6.7622834e+26
-6.740319e+26
-6.7415016e+26
-6.7454644e+26
-6.7455899e+26
-6.7423951e+26
-6.7428947e+26
-6.74632e+26
-6.7481986e+26
-6.7604708e+26
-6.7618748e+26
-6.7717043e+26
-6.7753925e+26
-6.7625155e+26
-6.7631713e+26
-6.776108e+26
-6.775479e+26
-6.744284e+26
-6.7445907e+26
-6.7498206e+26
-6.7486278e+26
-6.744483e+26
-6.7436309e+26
-6.748123e+26
-6.7487751e+26
-6.7646502e+26
-6.7658367e+26
-6.778593e+26
-6.7818255e+26
-6.7651721e+26
-6.7788052e+26
-6.7648761e+26
-6.7749105e+26
-6.7777602e+26
-6.7779049e+26
-6.7957993e+26
-6.7978229e+26
-6.7760438e+26
-6.7771505e+26
-6.7959967e+26
-6.7923591e+26
-6.7968777e+26
-6.7791911e+26
-6.7793643e+26
-6.7998954e+26
-6.7777681e+26
-6.7773961e+26
-6.7991322e+26
-6.7965883e+26
-6.8007778e+26
-6.7987372e+26
-6.800409e+26
-6.8005495e+26
-6.7972336e+26
-6.7815767e+26
-6.7811302e+26
-6.8008463e+26
-6.8022056e+26
-6.7832996e+26
-6.7793449e+26
-6.7987754e+26
-6.79816e+26
-6.7787701e+26
-6.7799351e+26
-6.8006577e+26
-6.8001604e+26
-6.7818979e+26
-6.7782757e+26
-6.7964034e+26
-6.7783082e+26
-6.7803841e+26
-6.7976892e+26
-6.8002703e+26
-6.7763292e+26
-6.7809108e+26
-6.8008553e+26
-6.7971379e+26
-6.7797183e+26
-6.7792292e+26
-6.7977321e+26
-6.8003827e+26
-6.7998616e+26
-6.7819274e+26
-6.7799055e+26
-6.7965215e+26
-6.7768299e+26
-6.7770375e+26
-6.776935e+26
-6.7926081e+26
-6.7968364e+26
-6.7772456e+26
-6.7804221e+26
-6.7988801e+26
-6.7962676e+26
-6.7794256e+26
-6.7790492e+26
-6.7827372e+26
-6.7795551e+26
-6.7810217e+26
-6.797917e+26
-6.8001809e+26
-6.7786933e+26
-6.7815807e+26
-6.8003317e+26
-6.7967585e+26
-6.7753934e+26
-6.7793301e+26
-6.783583e+26
-6.7789781e+26
-6.7777954e+26
-6.7764745e+26
-6.77893e+26
-6.7823113e+26
-6.7711145e+26
-6.7764824e+26
-6.7807746e+26
-6.7755087e+26
-6.7404942e+26
-6.7520403e+26
-6.7426927e+26
-6.7496698e+26
-6.7363421e+26
-6.7476746e+26
-6.731169e+26
-6.7380041e+26
-6.7663798e+26
-6.7642129e+26
-6.767485e+26
-6.7727483e+26
-6.7688471e+26
-6.7680002e+26
-6.7743745e+26
-6.7719198e+26
-6.7691559e+26
-6.7724688e+26
-6.7724203e+26
-6.7770174e+26
-6.7779325e+26
-6.7727773e+26
-6.7701206e+26
-6.7743651e+26
-6.7249189e+26
-6.7153184e+26
-6.7202952e+26
-6.7324586e+26
-6.7242367e+26
-6.7282404e+26
-6.7359521e+26
-6.734769e+26
-6.6255031e+26
-6.6660362e+26
-6.6246374e+26
-6.6641628e+26
-6.6242078e+26
-6.6486532e+26
-6.6493158e+26
-6.6247023e+26
-6.624633e+26
-6.6494638e+26
-6.624427e+26
-6.6487902e+26
-6.7019699e+26
-6.6772519e+26
-6.7010866e+26
-6.6777668e+26
-6.6775021e+26
-6.7013189e+26
-6.6780709e+26
-6.7022904e+26
-6.7126448e+26
-6.7315158e+26
-6.7496403e+26
-6.7508569e+26
-6.7320755e+26
-6.7351005e+26
-6.7691969e+26
-6.7724435e+26
-6.7746439e+26
-6.7704293e+26
-6.7324003e+26
-6.7317482e+26
-6.7510346e+26
-6.7496196e+26
-6.7702493e+26
-6.7692417e+26
-6.7744508e+26
-6.7729198e+26
-6.7147112e+26
-6.7386579e+26
-6.6255581e+26
-6.6650751e+26
-6.6260321e+26
-6.6664787e+26
-6.7143602e+26
-6.7372387e+26
-6.7154053e+26
-6.7392055e+26
-6.4480969e+26
-6.4359325e+26
-6.4359222e+26
-6.4501252e+26
-6.4501824e+26
-6.473119e+26
-6.4781682e+26
-6.4888425e+26
-6.4730054e+26
-6.4886489e+26
-6.4501024e+26
-6.436002e+26
-6.4502715e+26
-6.4360358e+26
-6.4732449e+26
-6.4889932e+26
-6.4888086e+26
-6.473132e+26
-6.4482326e+26
-6.4787407e+26
-6.5268503e+26
-6.5261454e+26
-6.5672543e+26
-6.5659744e+26
-6.4478189e+26
-6.4480962e+26
-6.4780379e+26
-6.4786399e+26
-6.5266282e+26
-6.5666231e+26
-6.527117e+26
-6.5675287e+26
-6.5168917e+26
-6.5392402e+26
-6.5395154e+26
-6.5170117e+26
-6.5920119e+26
-6.5675814e+26
-6.591293e+26
-6.5680535e+26
-6.5395496e+26
-6.5172228e+26
-6.5397396e+26
-6.5171407e+26
-6.5682404e+26
-6.5920543e+26
-6.5917447e+26
-6.5681995e+26
-6.6257238e+26
-6.6664171e+26
-6.6258861e+26
-6.6654753e+26
-6.7155918e+26
-6.7148173e+26
-6.7397102e+26
-6.7375628e+26
-6.6250546e+26
-6.6647248e+26
-6.625336e+26
-6.6658911e+26
-6.7137932e+26
-6.7368084e+26
-6.7151316e+26
-6.7394156e+26
-6.5263823e+26
-6.5657713e+26
-6.5266645e+26
-6.566485e+26
-6.4479503e+26
-6.4778581e+26
-6.4477692e+26
-6.4780907e+26
-6.4478015e+26
-6.4782261e+26
-6.447955e+26
-6.4781729e+26
-6.5267301e+26
-6.5668149e+26
-6.5269056e+26
-6.5666075e+26
-6.2117908e+26
-6.2115691e+26
-6.1383988e+26
-6.192512e+26
-6.192367e+26
-6.2110764e+26
-6.2110478e+26
-6.1374769e+26
-6.1919769e+26
-6.1919605e+26
-6.2479455e+26
-6.2480496e+26
-6.269605e+26
-6.2695883e+26
-6.2481053e+26
-6.2479187e+26
-6.2699761e+26
-6.2698678e+26
-6.0919503e+26
-6.2249319e+26
-6.2250969e+26
-6.227981e+26
-6.2277553e+26
-6.1895793e+26
-6.2482423e+26
-6.25397e+26
-6.2536298e+26
-6.2480476e+26
-6.2482407e+26
-6.2537716e+26
-6.2536439e+26
-6.2481248e+26
-6.2734045e+26
-6.2812738e+26
-6.280927e+26
-6.2731841e+26
-6.273333e+26
-6.2810202e+26
-6.2810659e+26
-6.2732235e+26
-6.3112625e+26
-6.3335336e+26
-6.3111698e+26
-6.3336182e+26
-6.3731431e+26
-6.37333e+26
-6.3996997e+26
-6.4000602e+26
-6.3734034e+26
-6.3729977e+26
-6.400216e+26
-6.399802e+26
-6.3113129e+26
-6.3338954e+26
-6.3113441e+26
-6.3337122e+26
-6.3033865e+26
-6.3125524e+26
-6.3128763e+26
-6.303197e+26
-6.3327453e+26
-6.3426727e+26
-6.3325713e+26
-6.342658e+26
-6.3768106e+26
-6.3647814e+26
-6.376796e+26
-6.3647035e+26
-6.3032485e+26
-6.3032119e+26
-6.3127441e+26
-6.3125802e+26
-6.3030944e+26
-6.3034169e+26
-6.3128361e+26
-6.3125273e+26
-6.3324145e+26
-6.3422271e+26
-6.3326271e+26
-6.3424588e+26
-6.3325375e+26
-6.3423201e+26
-6.3424621e+26
-6.3326609e+26
-6.3645782e+26
-6.3643786e+26
-6.3766473e+26
-6.3765024e+26
-6.39807e+26
-6.4110571e+26
-6.398104e+26
-6.4110363e+26
-6.376656e+26
-6.3645245e+26
-6.3766162e+26
-6.3646883e+26
-6.3981626e+26
-6.4110957e+26
-6.411036e+26
-6.398212e+26
-6.3737315e+26
-6.3736452e+26
-6.3996338e+26
-6.3995916e+26
-6.3737219e+26
-6.3996592e+26
-6.3738655e+26
-6.3996827e+26
-6.3118318e+26
-6.3340257e+26
-6.3112918e+26
-6.3336477e+26
-6.3115258e+26
-6.3339548e+26
-6.3340094e+26
-6.312021e+26
-6.212056e+26
-6.2113496e+26
-6.1371888e+26
-6.192765e+26
-6.1921704e+26
-6.2120458e+26
-6.2124607e+26
-6.1383323e+26
-6.1926151e+26
-6.1935533e+26
-6.24841e+26
-6.2701138e+26
-6.248226e+26
-6.2696332e+26
-6.2482264e+26
-6.2698133e+26
-6.248822e+26
-6.2701544e+26
-6.0882499e+26
-6.0891979e+26
-6.0373731e+26
-5.9973563e+26
-5.9986842e+26
-6.0390747e+26
-6.2162599e+26
-6.2060771e+26
-6.2032611e+26
-6.2519872e+26
-6.0896062e+26
-6.253428e+26
-6.2055397e+26
-6.2538011e+26
-6.2531347e+26
-6.2057638e+26
-6.0942328e+26
-6.3695173e+26
-6.3152207e+26
-6.3155989e+26
-6.3688964e+26
-6.3147193e+26
-6.3680445e+26
-6.3164324e+26
-6.3666019e+26
-6.3137053e+26
-5.9983745e+26
-5.9865279e+26
-6.0024222e+26
-6.3172895e+26
-6.2184737e+26
-6.6710341e+26
-6.6027662e+26
-6.6049212e+26
-6.6675888e+26
-6.6023695e+26
-6.6686654e+26
-6.599292e+26
-6.5413788e+26
-6.6636342e+26
-6.4477553e+26
-6.5156322e+26
-6.4229758e+26
-6.5132183e+26
-6.4467194e+26
-6.5180393e+26
-6.4496819e+26
-6.4491874e+26
-6.5163458e+26
-6.5431611e+26
-6.4284906e+26
-6.3688888e+26
-6.3172101e+26
-6.3163737e+26
-6.3699944e+26
-6.2548973e+26
-6.2540823e+26
-6.2067324e+26
-6.207021e+26
-6.0982223e+26
-6.207215e+26
-6.206549e+26
-6.254947e+26
-6.0936777e+26
-6.255172e+26
-6.3175626e+26
-6.371267e+26
-6.317571e+26
-6.3712823e+26
-5.9975233e+26
-5.9991177e+26
-6.428677e+26
-6.4229134e+26
-6.5316453e+26
-6.5396249e+26
-5.9529973e+26
-5.9400871e+26
-5.8384792e+26
-5.8466354e+26
-6.3168924e+26
-6.2170992e+26
-6.1164004e+26
-6.2497311e+26
-6.2562776e+26
-6.1335096e+26
-6.2699272e+26
-6.1575519e+26
-5.9997901e+26
-5.8553184e+26
-5.8423877e+26
-5.9947024e+26
-6.1453898e+26
-6.2713602e+26
-6.5165275e+26
-6.4490326e+26
-6.4494895e+26
-6.5183315e+26
-6.4514992e+26
-6.4510532e+26
-6.5195441e+26
-6.5188791e+26
-6.6048928e+26
-6.6023157e+26
-6.6684294e+26
-6.6725947e+26
-6.6747044e+26
-6.6066151e+26
-6.6056937e+26
-6.6722619e+26
-6.3726674e+26
-6.3985217e+26
-6.3724168e+26
-6.3982869e+26
-6.3110164e+26
-6.3111828e+26
-6.3331337e+26
-6.3330637e+26
-6.3110829e+26
-6.3331069e+26
-6.3106058e+26
-6.3327828e+26
-6.3725568e+26
-6.3985078e+26
-6.3725637e+26
-6.3982896e+26
-6.2478738e+26
-6.2693217e+26
-6.2482596e+26
-6.2694006e+26
-6.247947e+26
-6.2693874e+26
-6.2476793e+26
-6.2690321e+26
-6.2109843e+26
-6.210691e+26
-6.1365338e+26
-6.1923029e+26
-6.1919324e+26
-6.21169e+26
-6.2120617e+26
-6.1383262e+26
-6.193538e+26
-6.1927489e+26
-6.08775e+26
-6.0911401e+26
-6.3729584e+26
-6.3730309e+26
-6.3984434e+26
-6.3987762e+26
-6.3116706e+26
-6.3117415e+26
-6.3338626e+26
-6.3338589e+26
-6.3115348e+26
-6.3333944e+26
-6.3111921e+26
-6.333329e+26
-6.3733983e+26
-6.3734094e+26
-6.3995085e+26
-6.3995256e+26
-6.2485071e+26
-6.2699481e+26
-6.2487053e+26
-6.2699109e+26
-6.2484535e+26
-6.2697592e+26
-6.2483744e+26
-6.269498e+26
-6.2123549e+26
-6.2120735e+26
-6.137643e+26
-6.1935012e+26
-6.1932938e+26
-6.2124762e+26
-6.212617e+26
-6.136253e+26
-6.1934089e+26
-6.1937378e+26
-6.0908882e+26
-6.0889643e+26
-6.0366136e+26
-5.9955988e+26
-5.9953289e+26
-6.0382686e+26
-5.9958479e+26
-5.9962666e+26
-6.0387058e+26
-6.0368846e+26
-5.9483369e+26
-5.8021788e+26
-5.8223088e+26
-5.9647163e+26
-5.9643994e+26
-6.265917e+26
-6.1341636e+26
-6.1277502e+26
-6.2577809e+26
-6.6266938e+26
-6.6265269e+26
-6.6676981e+26
-6.6663709e+26
-6.6250926e+26
-6.6646089e+26
-6.6260152e+26
-6.6667295e+26
-6.713864e+26
-6.7366847e+26
-6.7162164e+26
-6.7405566e+26
-6.7171575e+26
-6.7415878e+26
-6.7162218e+26
-6.73918e+26
-6.7164537e+26
-6.7174117e+26
-6.7390855e+26
-6.7408746e+26
-6.626967e+26
-6.6261491e+26
-6.6677503e+26
-6.6660076e+26
-6.626803e+26
-6.6666393e+26
-6.6271571e+26
-6.6679065e+26
-6.7170275e+26
-6.7152903e+26
-6.7412156e+26
-6.7382048e+26
-6.5265528e+26
-6.5670038e+26
-6.5271534e+26
-6.5678505e+26
-6.4466743e+26
-6.4770582e+26
-6.4469452e+26
-6.4777641e+26
-6.4476161e+26
-6.4783265e+26
-6.4478472e+26
-6.4780548e+26
-6.5273519e+26
-6.5268524e+26
-6.5680733e+26
-6.5668292e+26
-6.5256658e+26
-6.5657151e+26
-6.5260604e+26
-6.5668911e+26
-6.4465003e+26
-6.477241e+26
-6.4465468e+26
-6.4768336e+26
-6.4767791e+26
-6.4466655e+26
-6.4463098e+26
-6.4770033e+26
-6.5264156e+26
-6.56742e+26
-6.5262169e+26
-6.5667179e+26
-5.8384063e+26
-5.8344831e+26
-5.9966491e+26
-5.9702729e+26
-6.8031751e+26
-6.8043844e+26
-6.8006251e+26
-6.8032335e+26
-6.8038672e+26
-6.8059705e+26
-6.8057042e+26
-6.8039138e+26
-6.8053573e+26
-6.8070686e+26
-6.8066424e+26
-6.8040997e+26
-6.8046082e+26
-6.8069009e+26
-6.8075511e+26
-6.8055397e+26
-6.8055909e+26
-6.807567e+26
-6.806894e+26
-6.8044218e+26
-6.8053276e+26
-6.8070751e+26
-6.8074611e+26
-6.8052923e+26
-6.805986e+26
-6.8075581e+26
-6.8074566e+26
-6.8049349e+26
-6.7928241e+26
-6.7912444e+26
-6.8017798e+26
-6.8046849e+26
-6.8060519e+26
-6.8046651e+26
-6.7908441e+26
-6.7931483e+26
-6.789884e+26
-6.7912909e+26
-6.7896026e+26
-6.7875102e+26
-6.7551101e+26
-6.7547385e+26
-6.7788229e+26
-6.7824532e+26
-6.7840193e+26
-6.7835357e+26
-6.750608e+26
-6.7440711e+26
-6.7840157e+26
-6.7863124e+26
-6.7876552e+26
-6.7863103e+26
-6.7383785e+26
-6.7348946e+26
-6.7411196e+26
-6.7412871e+26
-6.4893502e+26
-6.5108489e+26
-6.3949683e+26
-6.3775436e+26
-6.4019948e+26
-6.4052511e+26
-6.5083299e+26
-6.5175009e+26
-6.555165e+26
-6.546491e+26
-6.7270252e+26
-6.7255163e+26
-6.6244994e+26
-6.7407472e+26
-6.7397593e+26
-6.7238448e+26
-6.7261952e+26
-6.6300034e+26
-6.7397545e+26
-6.7377686e+26
-6.7902275e+26
-6.7787227e+26
-6.7763567e+26
-6.8008771e+26
-6.8010779e+26
-6.779533e+26
-6.7794555e+26
-6.7749769e+26
-6.7777988e+26
-6.8005488e+26
-6.8003936e+26
-6.7793551e+26
-6.7791121e+26
-6.802239e+26
-6.7930466e+26
-6.7892673e+26
-6.7898937e+26
-6.7721775e+26
-6.7713962e+26
-6.7783891e+26
-6.7785333e+26
-6.7719279e+26
-6.7709941e+26
-6.7781187e+26
-6.7780565e+26
-6.7891319e+26
-6.7888861e+26
-6.7716856e+26
-6.7910733e+26
-6.7914275e+26
-6.7826266e+26
-6.7650279e+26
-6.7716336e+26
-6.7655479e+26
-6.784839e+26
-6.7913701e+26
-6.7911767e+26
-6.7836899e+26
-6.7828272e+26
-6.7782859e+26
-6.7574639e+26
-6.7590234e+26
-6.7375348e+26
-6.7369797e+26
-6.7527036e+26
-6.7536147e+26
-6.7814161e+26
-6.766384e+26
-6.7728303e+26
-6.772784e+26
-6.7669013e+26
-6.7386389e+26
-6.7594662e+26
-6.7601624e+26
-6.7387627e+26
-6.7797972e+26
-6.780766e+26
-6.7539276e+26
-6.7540182e+26
-6.7788363e+26
-6.7716564e+26
-6.7790055e+26
-6.7725144e+26
-6.7727606e+26
-6.7716908e+26
-6.778828e+26
-6.7790362e+26
-6.7732368e+26
-6.7732766e+26
-6.7678105e+26
-6.767378e+26
-6.7599355e+26
-6.7608109e+26
-6.7383981e+26
-6.7388777e+26
-6.766998e+26
-6.7734458e+26
-6.7673333e+26
-6.7733903e+26
-6.7397507e+26
-6.7600678e+26
-6.7399041e+26
-6.7611039e+26
-6.7788555e+26
-6.7754473e+26
-6.8007249e+26
-6.8009372e+26
-6.7798177e+26
-6.7794218e+26
-6.7769264e+26
-6.7793385e+26
-6.8013716e+26
-6.8013456e+26
-6.7800553e+26
-6.7803105e+26
-6.7785766e+26
-6.7712807e+26
-6.7726593e+26
-6.779242e+26
-6.779473e+26
-6.7730681e+26
-6.7794831e+26
-6.772145e+26
-6.7730228e+26
-6.7792633e+26
-6.7792772e+26
-6.772113e+26
-6.7733984e+26
-6.7723663e+26
-6.7794782e+26
-6.7797425e+26
-6.7668735e+26
-6.7726874e+26
-6.7733202e+26
-6.7680021e+26
-6.768378e+26
-6.7736302e+26
-6.7741808e+26
-6.7691569e+26
-6.7414789e+26
-6.7608839e+26
-6.7613969e+26
-6.7407365e+26
-6.7427737e+26
-6.7631152e+26
-6.7617563e+26
-6.7403002e+26
-6.7740734e+26
-6.7741061e+26
-6.7685061e+26
-6.7681452e+26
-6.7396112e+26
-6.760482e+26
-6.7618896e+26
-6.7404265e+26
-6.7669739e+26
-6.7729668e+26
-6.7733384e+26
-6.7672926e+26
-6.7410156e+26
-6.7616327e+26
-6.759722e+26
-6.7387929e+26
-6.6701104e+26
-6.7242046e+26
-6.7207353e+26
-6.5861488e+26
-6.5861178e+26
-6.6724055e+26
-6.7258719e+26
-6.7267798e+26
-6.7254738e+26
-6.7224746e+26
-6.7366738e+26
-6.739693e+26
-6.7252215e+26
-6.7261161e+26
-6.7405512e+26
-6.7399981e+26
-6.6627227e+26
-6.6296619e+26
-6.6348497e+26
-6.6689041e+26
-6.5828498e+26
-6.5782457e+26
-6.6634006e+26
-6.7110767e+26
-6.7145929e+26
-6.6652949e+26
-6.719253e+26
-6.7181982e+26
-6.6519142e+26
-6.6192173e+26
-6.6219343e+26
-6.6570965e+26
-6.6595394e+26
-6.65555e+26
-6.6828189e+26
-6.6855079e+26
-6.6656863e+26
-6.6631537e+26
-6.693423e+26
-6.6889251e+26
-6.6703661e+26
-6.6731614e+26
-6.6905446e+26
-6.6940495e+26
-6.6772085e+26
-6.681627e+26
-6.6986315e+26
-6.7030706e+26
-6.6759179e+26
-6.678036e+26
-6.7084965e+26
-6.7039908e+26
-6.686338e+26
-6.689928e+26
-6.7075159e+26
-6.7121093e+26
-6.6931327e+26
-6.697145e+26
-6.715414e+26
-6.7192537e+26
-6.672676e+26
-6.6687897e+26
-6.7007516e+26
-6.6975183e+26
-6.7435116e+26
-6.7461313e+26
-6.7484159e+26
-6.7503988e+26
-6.7258633e+26
-6.7272145e+26
-6.7319176e+26
-6.7319366e+26
-6.7288127e+26
-6.7292443e+26
-6.7331935e+26
-6.7342953e+26
-6.7470877e+26
-6.7603026e+26
-6.7487111e+26
-6.7630669e+26
-6.7505262e+26
-6.749959e+26
-6.7645494e+26
-6.7627513e+26
-6.7327487e+26
-6.7321467e+26
-6.7364308e+26
-6.7383295e+26
-6.7515819e+26
-6.7527065e+26
-6.7648215e+26
-6.7684732e+26
-6.7316255e+26
-6.7306751e+26
-6.7348901e+26
-6.7352246e+26
-6.7532981e+26
-6.7537238e+26
-6.7685676e+26
-6.765276e+26
-6.751978e+26
-6.7545218e+26
-6.755502e+26
-6.7578446e+26
-6.7385781e+26
-6.7395403e+26
-6.7454232e+26
-6.7431908e+26
-6.7568025e+26
-6.7695036e+26
-6.77388e+26
-6.7580703e+26
-6.7380797e+26
-6.7368204e+26
-6.7413772e+26
-6.7422744e+26
-6.7589303e+26
-6.7746045e+26
-6.7595879e+26
-6.7712948e+26
-6.7348076e+26
-6.7338665e+26
-6.7383308e+26
-6.7388082e+26
-6.7367243e+26
-6.7360169e+26
-6.7396755e+26
-6.741611e+26
-6.7543835e+26
-6.7559911e+26
-6.7718361e+26
-6.7659269e+26
-6.7733619e+26
-6.771906e+26
-6.757148e+26
-6.7577007e+26
-6.7767157e+26
-6.7726717e+26
-6.7985827e+26
-6.7974356e+26
-6.7756591e+26
-6.7767361e+26
-6.774878e+26
-6.7774098e+26
-6.79962e+26
-6.7993372e+26
-6.7774002e+26
-6.7777975e+26
-6.7777778e+26
-6.7748622e+26
-6.8005938e+26
-6.7997811e+26
-6.7780935e+26
-6.7787882e+26
-6.7753746e+26
-6.7776528e+26
-6.8006738e+26
-6.7791112e+26
-6.8008602e+26
-6.7793318e+26
-6.7684167e+26
-6.7670464e+26
-6.7735678e+26
-6.7743439e+26
-6.7750021e+26
-6.7692869e+26
-6.7686613e+26
-6.7754242e+26
-6.7758425e+26
-6.7691283e+26
-6.7765712e+26
-6.7705027e+26
-6.7706468e+26
-6.7699221e+26
-6.7769489e+26
-6.7767282e+26
-6.7604715e+26
-6.766973e+26
-6.7678332e+26
-6.7619884e+26
-6.763383e+26
-6.7686435e+26
-6.7696825e+26
-6.7644252e+26
-6.7378982e+26
-6.7554737e+26
-6.7563639e+26
-6.7372449e+26
-6.7575964e+26
-6.7590107e+26
-6.740452e+26
-6.7381061e+26
-6.764071e+26
-6.769863e+26
-6.7705907e+26
-6.7657999e+26
-6.7702343e+26
-6.7708892e+26
-6.7659587e+26
-6.7650272e+26
-6.7409407e+26
-6.7588556e+26
-6.7597907e+26
-6.7398303e+26
-6.7412488e+26
-6.7598219e+26
-6.7592821e+26
-6.7393709e+26
-6.7721244e+26
-6.7714803e+26
-6.7787377e+26
-6.7783525e+26
-6.7724968e+26
-6.771313e+26
-6.7782999e+26
-6.7787703e+26
-6.7772937e+26
-6.7704167e+26
-6.7716072e+26
-6.7778642e+26
-6.7782232e+26
-6.7722228e+26
-6.7715373e+26
-6.7784827e+26
-6.7662368e+26
-6.7716301e+26
-6.7722237e+26
-6.7672912e+26
-6.7677511e+26
-6.7723593e+26
-6.7730468e+26
-6.7684446e+26
-6.7406189e+26
-6.7602846e+26
-6.7605122e+26
-6.739148e+26
-6.7606814e+26
-6.7620669e+26
-6.7410265e+26
-6.7386669e+26
-6.7728804e+26
-6.7726802e+26
-6.7672787e+26
-6.7679545e+26
-6.7397267e+26
-6.7600039e+26
-6.7612705e+26
-6.7399353e+26
-6.7669475e+26
-6.77191e+26
-6.7725481e+26
-6.7667913e+26
-6.7598006e+26
-6.7613033e+26
-6.7407256e+26
-6.739881e+26
-6.8026681e+26
-6.802222e+26
-6.799752e+26
-6.8013084e+26
-6.8031949e+26
-6.8041569e+26
-6.8025573e+26
-6.8032462e+26
-6.7909809e+26