/*--------------------------------*- C++ -*----------------------------------*\
  =========                 |
  \\      /  F ield         | OpenFOAM: The Open Source CFD Toolbox
   \\    /   O peration     | Website:  https://openfoam.org
    \\  /    A nd           | Version:  7
     \\/     M anipulation  |
\*---------------------------------------------------------------------------*/
FoamFile
{
    version     2.0;
    format      ascii;
    class       volVectorField;
    location    "2000";
    object      U;
}
// * * * * * * * * * * * * * * * * * * * * * * * * * * * * * * * * * * * * * //

dimensions      [0 1 -1 0 0 0 0];

internalField   nonuniform List<vector> 
34222
(
(-1.1922966e+14 8.7986385e+12 1.1903839e+13)
(-1.4483489e+14 3.4669063e+12 2.5571101e+13)
(-1.1011184e+14 1.182278e+13 1.162058e+13)
(-7.2164052e+13 2.9252475e+12 1.9987491e+13)
(-5.626177e+13 1.6120707e+13 1.7328618e+13)
(-3.9243237e+13 8.9132791e+12 -2.2200172e+13)
(-4.0103706e+13 1.2673732e+13 -2.0474788e+13)
(-1.4934163e+14 1.6564015e+12 1.3583107e+13)
(-1.314724e+14 6.8560276e+12 1.9449122e+13)
(-6.5226232e+13 1.0727697e+13 2.2889272e+13)
(-7.9183955e+13 7.0791484e+11 2.3091206e+13)
(-5.9406318e+13 1.1788722e+13 -1.3626261e+13)
(-6.3971249e+13 3.7547601e+12 -1.2940882e+13)
(-1.0773752e+14 2.4472924e+12 1.4152098e+13)
(-6.1525168e+13 6.0513467e+12 -7.9882729e+12)
(-6.098158e+13 1.552521e+13 1.9188643e+13)
(-7.7761215e+13 -3.2999876e+10 2.6070511e+13)
(-6.3404869e+13 5.0714531e+12 -1.275707e+13)
(-5.4343636e+13 1.1010828e+13 -2.628821e+12)
(-4.3443525e+13 1.1268056e+13 -2.3581149e+12)
(-4.1714465e+13 1.2813488e+13 -3.0225279e+12)
(-5.2911738e+13 9.8163892e+12 -3.5216857e+12)
(-1.2254099e+14 -2.3798207e+12 1.5535808e+13)
(-1.4223612e+14 4.1353895e+12 1.2012205e+13)
(-1.4804861e+14 1.7239435e+12 9.596451e+12)
(-7.2168008e+13 8.8505423e+12 -1.3658789e+13)
(-8.1613382e+13 -4.8858276e+11 2.135117e+13)
(-7.8954193e+13 8.0640774e+12 2.0285405e+13)
(-8.0575749e+13 -9.4649556e+11 -1.4177443e+13)
(-1.3215763e+14 5.7805774e+12 1.8902008e+13)
(-7.3761855e+13 1.088264e+13 -1.1465822e+13)
(-7.7550314e+13 2.7312462e+12 2.0526234e+13)
(-6.6257573e+13 1.4964177e+13 1.8887456e+13)
(-7.4061772e+13 6.3651814e+12 -1.1868597e+13)
(-6.3512347e+13 4.3872533e+12 4.4483239e+12)
(-6.9709128e+13 8.1808273e+12 4.5065267e+12)
(-6.3078194e+13 1.0385813e+13 4.1590817e+12)
(-5.4925987e+13 8.3685841e+12 5.7970387e+12)
(-1.2499005e+14 1.3708545e+12 2.4697294e+13)
(-1.0148771e+14 -5.1292815e+12 -6.3800529e+12)
(-8.2647582e+13 -9.1779339e+12 3.367258e+13)
(-6.2322995e+13 1.2235664e+13 2.3601055e+13)
(-6.8240409e+13 -2.1893327e+10 -9.6440581e+12)
(-6.1095569e+13 1.0987239e+12 1.64127e+12)
(-6.8200049e+13 7.9525768e+12 -6.5387922e+11)
(-7.2157292e+13 5.2722919e+12 3.3491604e+11)
(-6.0866776e+13 3.942966e+12 2.301204e+11)
(-3.7189935e+13 1.3394013e+13 -3.9584476e+12)
(-3.0755576e+13 1.4016455e+13 -4.116305e+12)
(-4.9512518e+13 1.66091e+13 -4.2638943e+12)
(-5.5511522e+13 1.2903553e+13 -4.4253848e+12)
(-1.2564978e+14 -6.4765312e+11 1.4575158e+13)
(-1.0358336e+14 4.5463292e+12 1.4396524e+13)
(-1.1038865e+14 -7.3102573e+12 1.4114181e+13)
(-1.2172225e+14 -4.8307495e+12 1.6838909e+13)
(-9.2713493e+13 8.2930024e+12 2.9872437e+13)
(-8.8471146e+13 8.1570459e+12 2.8241466e+13)
(-1.4343899e+14 6.0746957e+12 1.1013045e+13)
(-1.4338542e+14 3.3710135e+12 1.0098402e+13)
(-7.4133346e+13 1.1251064e+13 -1.4008267e+13)
(-8.2144941e+13 1.9846346e+12 1.9695242e+13)
(-7.4491974e+13 1.1590847e+13 1.8284799e+13)
(-7.7358045e+13 4.1990942e+12 -1.3392556e+13)
(-8.8668859e+13 -1.0673606e+12 1.9337682e+13)
(-7.7658336e+13 7.7244428e+12 -1.4762766e+13)
(-8.6870258e+13 -1.0077365e+12 -1.7013653e+13)
(-8.8495501e+13 7.7669613e+12 1.8685446e+13)
(-7.621435e+13 5.8899231e+12 5.350725e+12)
(-7.9944958e+13 4.1981904e+12 2.8971433e+11)
(-8.4050485e+13 1.1189221e+12 -1.2486782e+12)
(-7.6929993e+13 1.8832258e+12 3.9989106e+12)
(-1.0333115e+14 7.9990546e+12 6.850457e+12)
(-1.029926e+14 4.5876297e+12 5.6332016e+12)
(-1.4512447e+14 5.7540932e+12 2.1524164e+13)
(-6.9224764e+13 1.3829164e+13 1.9915891e+13)
(-8.0571391e+13 1.2564119e+12 2.2664951e+13)
(-8.6138025e+13 6.6457803e+12 -1.1852564e+13)
(-8.1434573e+13 2.6857682e+12 -1.1410248e+13)
(-7.5526033e+13 7.3236778e+12 3.2750778e+12)
(-7.6175947e+13 7.8450813e+12 1.1261819e+12)
(-6.8429013e+13 1.0590275e+13 3.3734562e+12)
(-6.9438521e+13 1.0238517e+13 3.6796374e+12)
(-8.9202273e+13 6.2934553e+11 8.8292379e+11)
(-6.6916585e+13 6.2008167e+12 7.7175587e+11)
(-2.7529853e+13 1.2606423e+13 -2.3707838e+12)
(-3.2048317e+13 9.2663413e+12 -1.8563573e+12)
(-7.1120383e+13 5.8932716e+12 2.6657859e+13)
(-5.9659176e+13 8.7624831e+12 2.333851e+13)
(-8.2104901e+12 1.8104649e+12 -1.0756609e+13)
(-1.8648175e+13 1.8927396e+13 -1.2645326e+13)
(-4.3226918e+13 1.006173e+12 2.1823442e+12)
(-6.7702776e+13 -8.9468869e+10 -1.6247668e+12)
(-6.7042776e+13 3.2096904e+12 -1.4104211e+12)
(-5.6578099e+13 8.0629791e+11 3.4188969e+11)
(-4.3949661e+13 6.2296721e+12 -4.0445178e+12)
(-3.3434855e+13 1.091362e+13 -3.8477203e+12)
(-3.8267065e+13 8.1098537e+12 -3.0558098e+12)
(-5.3216436e+13 8.8043456e+12 -4.3896394e+12)
(-4.9916105e+13 1.3476453e+13 -1.5863232e+12)
(-5.189948e+13 1.3945648e+13 -1.2482635e+12)
(-6.5217162e+13 1.5591332e+13 -1.0087831e+12)
(-6.5865436e+13 1.22899e+13 -1.4905262e+12)
(-1.0813271e+14 6.7928151e+12 -8.8962059e+12)
(-8.6372268e+13 8.2792038e+12 1.2043722e+13)
(-1.1492278e+14 -9.0865432e+12 -1.0894854e+13)
(-1.0884765e+14 -3.253897e+12 6.3522421e+12)
(-9.9715295e+13 -1.5294521e+13 1.4755775e+13)
(-8.4825679e+13 3.3952959e+12 1.1852531e+13)
(-7.2779123e+13 -2.0954441e+12 1.2886681e+13)
(-9.3169655e+13 5.5455968e+12 2.4751626e+13)
(-8.9620753e+13 -3.1330976e+12 1.2637121e+13)
(-9.354651e+13 6.4934626e+12 2.4691793e+13)
(-8.6197358e+13 2.3005394e+12 1.1646735e+13)
(-9.0590352e+13 -5.1043148e+12 1.2441302e+13)
(-9.0855053e+13 5.8855815e+12 2.4810458e+13)
(-9.9084897e+13 4.2837174e+12 1.1154799e+13)
(-9.11475e+13 5.1412774e+12 2.4283588e+13)
(-1.1271807e+14 -8.5279851e+12 1.1607666e+13)
(-7.4330328e+13 1.200077e+13 2.4248134e+13)
(-7.5550985e+13 1.2373564e+13 2.7471565e+13)
(-1.3488101e+14 -7.6499925e+12 1.4124591e+13)
(-1.1020952e+14 1.4546186e+12 1.9318982e+13)
(-1.0099167e+14 8.1060869e+12 -1.1806749e+13)
(-1.508171e+14 5.6022958e+12 9.5531521e+12)
(-1.009888e+14 4.2771758e+12 -1.2054901e+13)
(-1.4365485e+14 5.3391653e+12 9.0393829e+12)
(-8.2520566e+13 1.227872e+13 -1.4268282e+13)
(-8.4058246e+13 4.58968e+12 2.0150985e+13)
(-7.6802585e+13 1.3260827e+13 1.9401917e+13)
(-8.1957316e+13 4.72646e+12 -1.3732994e+13)
(-1.028812e+14 1.0964782e+13 1.7295544e+13)
(-8.4226113e+13 8.375495e+12 1.7109426e+13)
(-8.5611713e+13 1.3379474e+12 2.0274852e+13)
(-7.6661649e+13 1.0203602e+13 -1.3261864e+13)
(-8.2010518e+13 1.9168492e+12 -1.4522684e+13)
(-7.5375499e+13 7.1543565e+12 2.0113378e+12)
(-7.600685e+13 6.0194248e+12 5.3220711e+11)
(-7.1825332e+13 6.8731113e+12 1.793802e+11)
(-7.0351594e+13 8.7776473e+12 4.0668347e+12)
(-8.8412553e+13 2.4106847e+12 -4.7329711e+12)
(-8.6508907e+13 2.2471805e+12 -1.0266002e+12)
(-8.8384457e+13 1.5943625e+12 -1.6015027e+12)
(-8.9602702e+13 2.4646029e+12 -2.6130927e+12)
(-1.3440552e+14 -6.863421e+11 1.2301217e+12)
(-9.416905e+13 4.1420859e+12 -1.2034971e+11)
(-8.3406681e+13 2.6574208e+12 -1.4470902e+12)
(-8.9844661e+13 2.6310264e+12 1.3906608e+11)
(-9.5852511e+13 4.593248e+12 1.1271725e+13)
(-8.5481917e+13 3.7146651e+12 1.2427234e+13)
(-9.8596261e+13 4.4181777e+12 1.124662e+13)
(-9.558175e+13 4.3915465e+12 1.0205864e+13)
(-9.6171729e+13 4.2436765e+12 1.1181503e+13)
(-9.8684508e+13 9.8870803e+12 4.7010711e+12)
(-1.0255481e+14 8.0267077e+12 6.5415046e+12)
(-1.3696611e+14 8.0169171e+12 1.8489461e+13)
(-7.9933854e+13 6.0259668e+12 2.0872417e+13)
(-7.4678162e+13 1.4701979e+13 2.2992593e+13)
(-8.5498608e+13 -1.5253995e+11 -1.3737278e+13)
(-7.4191327e+13 1.5004813e+13 -1.1669407e+13)
(-7.3147731e+13 7.0345894e+12 1.7446231e+11)
(-7.8611933e+13 4.7274589e+12 -2.6855474e+11)
(-7.4035505e+13 2.3754395e+12 1.2102737e+12)
(-7.1708105e+13 5.5465859e+12 1.7243601e+12)
(-4.7348551e+13 8.8715488e+12 -1.832018e+12)
(-5.9693682e+13 8.7719579e+12 -5.2772316e+11)
(-7.80357e+13 7.0580507e+12 9.9622392e+11)
(-3.0198668e+13 1.1731334e+13 -1.7986996e+12)
(-5.0130581e+13 5.2943135e+12 -5.9001252e+11)
(-5.1070722e+13 9.1604305e+12 -7.55536e+11)
(-4.7839873e+13 1.2539074e+13 -1.0836097e+12)
(-4.9102417e+13 1.0039684e+13 -1.0353611e+12)
(-6.2533843e+13 1.160989e+13 -6.6142682e+12)
(-5.5562294e+13 3.0552594e+12 -7.5628863e+12)
(-4.25015e+13 1.7267711e+12 -4.8979532e+12)
(-4.4748641e+13 8.1391756e+12 -6.4846213e+12)
(-4.7370591e+13 4.5700329e+12 -4.0902288e+12)
(-2.3543277e+13 7.5631879e+12 -4.5978028e+12)
(-2.3600777e+13 8.7117931e+12 -3.8404075e+12)
(-4.0907285e+13 6.8496724e+12 -3.9802678e+12)
(-6.5389977e+13 5.2482568e+12 -1.6297741e+12)
(-4.9044865e+13 1.0757218e+13 -1.9228848e+12)
(-5.6673277e+13 7.8673478e+12 -1.6858551e+12)
(-6.5414537e+13 8.1591789e+12 -1.816508e+12)
(-1.0424841e+14 -4.3352415e+12 1.4114496e+11)
(-9.3780682e+13 1.319738e+13 -9.5128689e+11)
(-8.5665211e+13 2.4442079e+11 -4.6447451e+12)
(-8.2506267e+13 7.3107664e+12 -1.7055854e+13)
(-8.2893999e+13 7.6018502e+12 -1.7145229e+13)
(-8.2003582e+13 7.6009029e+12 -4.7389719e+12)
(-7.9199862e+13 3.9389422e+12 -1.0647314e+13)
(-4.969096e+13 -6.0487383e+12 1.5182259e+13)
(-6.1346619e+13 6.2626024e+12 1.008738e+13)
(-8.3672726e+13 -4.0417305e+12 -1.1721963e+13)
(-7.1485436e+13 -8.471873e+12 1.4276386e+13)
(-1.0405121e+14 3.9233239e+12 -9.2463828e+12)
(-8.5945115e+13 -8.332425e+11 -5.1168977e+12)
(-8.4235316e+13 6.6784688e+12 -1.6866689e+13)
(-8.4467458e+13 7.1918569e+12 -1.7092188e+13)
(-8.2171688e+13 6.7367825e+12 -4.5819329e+12)
(-1.139014e+14 -1.158406e+13 -1.1899778e+13)
(-1.0078724e+14 -2.5745011e+12 7.1396675e+12)
(-9.822297e+13 -1.7566683e+13 1.114206e+13)
(-8.1331388e+13 5.5835132e+12 8.1241368e+12)
(-8.3415662e+13 -6.0492108e+12 -1.2222541e+13)
(-7.9220759e+13 2.9116548e+12 -1.0659012e+13)
(-7.135619e+13 -1.07851e+13 1.3428101e+13)
(-6.2590067e+13 5.1791175e+12 1.0909296e+13)
(-6.9618714e+13 2.6203462e+12 1.1057561e+13)
(-7.16568e+13 -1.3979046e+12 1.128983e+13)
(-8.4076337e+13 4.1311802e+12 1.9668558e+13)
(-8.3415764e+13 3.6379931e+12 1.9647187e+13)
(-6.5130287e+13 -1.8067573e+12 1.4244217e+13)
(-6.3494144e+13 1.6554215e+12 1.3517634e+13)
(-7.3402827e+13 2.4879092e+12 1.8337429e+13)
(-7.3552978e+13 2.6766106e+12 1.8543222e+13)
(-8.4864878e+13 4.0976599e+12 2.0438426e+13)
(-7.3333208e+13 -2.0978556e+12 1.2215551e+13)
(-6.9735387e+13 2.3985067e+12 1.0576908e+13)
(-8.4094873e+13 3.5367311e+12 1.9725939e+13)
(-7.3075272e+13 -2.2516229e+12 1.1103756e+13)
(-6.9856597e+13 2.2214332e+12 1.0222976e+13)
(-8.5738017e+13 3.1908004e+12 1.9647613e+13)
(-8.3616528e+13 3.10147e+12 1.8874146e+13)
(-7.3426731e+13 -3.2863185e+12 1.1568469e+13)
(-7.0755693e+13 1.2428133e+12 1.0478776e+13)
(-8.4594427e+13 2.9122561e+12 2.0356848e+13)
(-8.4059041e+13 2.4678813e+12 1.9687608e+13)
(-8.2649381e+13 1.7453095e+12 9.5980202e+12)
(-8.9206796e+13 4.9614986e+12 2.2261815e+13)
(-8.764329e+13 -3.7183202e+12 9.9703051e+12)
(-8.9674462e+13 7.1647363e+12 2.2610161e+13)
(-1.0747221e+14 -3.8145661e+10 1.1227405e+13)
(-9.062881e+13 7.421683e+12 2.5028832e+13)
(-9.0405381e+13 -4.899982e+12 1.0498972e+13)
(-9.0297916e+13 6.1381888e+12 2.3444234e+13)
(-8.5227123e+13 1.9877638e+12 9.4714701e+12)
(-7.9867951e+13 1.4364911e+13 2.8479145e+13)
(-7.9598757e+13 1.5347834e+13 2.7210106e+13)
(-1.0962747e+14 -1.0036268e+13 9.2093729e+12)
(-8.6141856e+13 2.4343781e+12 1.1006516e+12)
(-8.6746796e+13 6.0389954e+12 1.4215701e+13)
(-9.9034168e+13 1.984501e+12 1.4472176e+13)
(-8.1226577e+13 2.0240768e+12 -4.2367032e+12)
(-9.5652261e+13 5.2041623e+12 -6.1197542e+12)
(-8.3466218e+13 4.9508631e+12 6.4101674e+12)
(-9.8435144e+13 8.0183995e+12 1.337577e+13)
(-9.7962866e+13 1.8769869e+12 -5.6155369e+12)
(-9.0340004e+13 4.6183072e+12 -1.0646415e+13)
(-8.3195973e+13 3.2272624e+12 1.0221188e+12)
(-9.7159113e+13 1.3093799e+12 4.9463347e+12)
(-8.2243031e+13 1.1757166e+12 -5.4174764e+12)
(-8.0811836e+13 3.8884698e+12 8.8836802e+11)
(-9.5559778e+13 6.1484882e+12 3.9638101e+12)
(-9.0384195e+13 2.5368325e+12 -1.1261042e+13)
(-1.0440221e+14 2.1537353e+12 1.8039123e+13)
(-1.0351011e+14 5.3912334e+12 -1.1751488e+13)
(-9.8265433e+13 1.3666585e+13 1.7077096e+13)
(-9.8142193e+13 9.0447572e+12 -1.2766919e+13)
(-1.4527556e+14 5.5591205e+12 8.9020366e+12)
(-7.710335e+13 1.4683351e+13 -1.3297545e+13)
(-8.3308166e+13 5.6556843e+12 1.6517583e+13)
(-1.4637947e+14 5.0034443e+12 8.1850415e+12)
(-7.7942274e+13 1.5260334e+13 1.809716e+13)
(-8.4952052e+13 5.878869e+12 -1.4315845e+13)
(-1.0290275e+14 3.658542e+12 1.7086214e+13)
(-9.5040042e+13 6.4683776e+12 4.8969773e+12)
(-9.037576e+13 2.4843435e+12 -1.0346178e+13)
(-9.7529178e+13 1.0986523e+12 4.6487451e+12)
(-9.0974376e+13 4.2356443e+12 -1.1147935e+13)
(-9.8032764e+13 1.1516779e+13 1.7756744e+13)
(-8.1468669e+13 1.2753427e+13 1.8245494e+13)
(-8.7183745e+13 4.1095437e+12 1.6736546e+13)
(-8.2462297e+13 1.2751943e+13 -1.3827347e+13)
(-8.3637216e+13 4.8378894e+12 -1.3987662e+13)
(-8.4092334e+13 7.2168369e+12 4.0688385e+12)
(-8.7487488e+13 9.1644115e+12 2.2198416e+12)
(-7.6929269e+13 7.3514914e+12 2.4769224e+12)
(-7.6926064e+13 6.7326698e+12 2.7910901e+12)
(-9.5449449e+13 8.0375837e+12 1.326719e+13)
(-9.8363371e+13 1.6247673e+12 1.3593008e+13)
(-9.7216777e+13 4.3810495e+12 -5.3564126e+12)
(-9.857829e+13 2.4606768e+12 -4.62653e+12)
(-8.4909106e+13 1.1969752e+12 -4.2239365e+12)
(-8.55812e+13 4.5372253e+12 -4.5225597e+11)
(-7.7562762e+13 5.0765604e+12 3.0611464e+12)
(-7.9264943e+13 3.6291277e+12 -8.8167107e+11)
(-6.3130682e+13 8.5788725e+12 -3.4772612e+10)
(-5.9385153e+13 6.9389357e+12 8.3450326e+11)
(-9.4639846e+13 5.4841435e+12 -1.73712e+11)
(-1.1662946e+14 2.632278e+12 1.2537148e+12)
(-5.5017794e+13 6.8173787e+12 -2.0098926e+12)
(-8.8579732e+13 4.3295154e+12 -1.7584543e+12)
(-5.2274506e+13 4.43951e+12 -1.8798721e+12)
(-4.5370219e+13 4.8325301e+12 -3.5819934e+11)
(-6.4078534e+13 5.5936047e+12 -2.9578586e+11)
(-8.6648314e+13 2.87781e+12 -7.873297e+10)
(-7.5324582e+13 1.8160704e+12 -6.3016276e+11)
(-7.4126146e+13 2.302686e+12 -3.4878882e+11)
(-8.3498293e+13 3.2452847e+12 1.082255e+13)
(-8.4568321e+13 3.5072089e+12 1.0918322e+13)
(-7.2497605e+13 2.6824071e+12 1.0520169e+13)
(-7.2154378e+13 1.961852e+12 9.8628006e+12)
(-8.435124e+13 2.8100875e+12 1.0426237e+13)
(-8.5776623e+13 3.3469984e+12 1.149901e+13)
(-8.3951195e+13 2.9260192e+12 1.0089701e+13)
(-8.620697e+13 2.7154498e+12 1.0921079e+13)
(-8.4326388e+13 2.0664537e+12 1.0511573e+13)
(-8.4863987e+13 2.7656965e+12 1.1456221e+13)
(-9.3726805e+13 4.6580462e+12 9.2420575e+12)
(-9.5017152e+13 5.2418632e+12 9.4624061e+12)
(-9.5292121e+13 5.9319959e+12 1.0838584e+13)
(-1.0135573e+14 1.2716755e+13 4.3222756e+12)
(-9.4584404e+13 5.3520266e+12 9.333625e+12)
(-1.0388951e+14 9.3177675e+12 4.8570025e+12)
(-8.319142e+13 8.1923121e+12 -1.1791109e+13)
(-6.7414568e+13 1.7713295e+13 -7.6407192e+12)
(-8.0373359e+13 8.8275635e+12 1.9192078e+13)
(-7.4222769e+13 1.8000629e+13 1.7989063e+13)
(-8.6877277e+13 9.4425235e+12 3.9997147e+12)
(-8.1576958e+13 6.7824894e+12 4.393782e+12)
(-7.4101852e+13 3.8489881e+12 3.5039037e+12)
(-8.2083852e+13 9.6900754e+12 5.3625027e+12)
(-4.4269519e+13 8.7179973e+12 -1.6225566e+12)
(-2.2738601e+13 8.295318e+12 -2.3013041e+12)
(-2.2457914e+13 7.8026973e+12 -3.6960377e+12)
(-3.0396111e+13 9.1003801e+12 -2.8851762e+12)
(-5.153392e+13 9.524526e+12 -1.4016221e+12)
(-4.8664541e+13 1.0376867e+13 -9.2441413e+11)
(-4.9797312e+13 1.1061276e+13 -6.9190299e+11)
(-4.4628532e+13 1.1762995e+13 -1.2804798e+12)
(1.2737501e+12 1.6113633e+13 -6.4862546e+12)
(-9.0241966e+12 1.0632623e+13 -6.1795226e+12)
(-5.9218735e+13 1.8211905e+12 -4.1232709e+12)
(-5.1051654e+13 4.061238e+12 -4.7037816e+12)
(-7.1855144e+13 1.2390588e+12 -1.8806586e+12)
(-5.9488094e+13 3.7365406e+12 -2.4396672e+12)
(-5.4316993e+13 6.9694707e+12 -2.0422913e+12)
(-6.8074557e+13 4.2423148e+12 -1.4298263e+12)
(-1.1132561e+14 5.2951246e+12 -1.1883309e+13)
(-1.1168288e+14 5.255635e+12 -1.2599788e+13)
(-9.8496615e+13 3.2766981e+12 -1.4762703e+13)
(-9.1261274e+13 4.9991287e+12 -2.4226888e+11)
(-8.9941472e+13 6.8865646e+12 2.2960093e+10)
(-9.8193581e+13 2.9821892e+12 -1.4297241e+13)
(-6.5129637e+13 4.2159483e+12 -1.564254e+13)
(-6.0631072e+13 -3.0563708e+11 -8.217308e+12)
(-5.8758689e+13 4.3130793e+12 -8.4230333e+12)
(-6.5078764e+13 4.2896919e+12 -1.5921912e+13)
(-4.7690786e+13 2.8893654e+12 -8.3109279e+12)
(-3.8720491e+13 -7.9335919e+11 -8.0191189e+12)
(-3.1158005e+13 -6.602701e+11 2.0851732e+12)
(-2.9375282e+13 2.0297318e+12 2.1559038e+12)
(-4.7997732e+13 -4.2797658e+12 1.8321141e+13)
(-4.336673e+13 5.0598577e+12 1.121173e+13)
(-4.5632837e+13 2.9078642e+12 1.6688099e+13)
(-5.097745e+13 -1.7887127e+12 -8.4461379e+12)
(-4.8979249e+13 -4.9986822e+12 1.4711954e+13)
(-6.5464846e+13 4.1539913e+12 -1.6219498e+13)
(-6.5582818e+13 4.1262868e+12 -1.6099279e+13)
(-6.1020624e+13 -6.2306449e+11 -8.53483e+12)
(-5.9105524e+13 3.9587931e+12 -8.260043e+12)
(-5.106806e+13 -2.4712985e+12 -8.6271727e+12)
(-4.7979859e+13 2.8084299e+12 -7.9670674e+12)
(-4.9430193e+13 -5.6084852e+12 1.4462781e+13)
(-4.3919089e+13 5.0149225e+12 1.1929485e+13)
(-8.450977e+13 -4.8260824e+11 -4.3043641e+12)
(-8.4782325e+13 7.0942067e+12 -1.6061919e+13)
(-8.4688308e+13 6.5907593e+12 -1.6041509e+13)
(-8.0329828e+13 5.9677369e+12 -4.420739e+12)
(-9.8335877e+13 2.560042e+12 -1.4744981e+13)
(-9.1869354e+13 4.6528327e+12 -1.1586266e+11)
(-9.0721053e+13 6.647296e+12 1.9646183e+11)
(-9.8370003e+13 2.4624915e+12 -1.369347e+13)
(-1.0045079e+14 1.6428701e+12 -8.8266271e+12)
(-8.5672497e+13 7.0023286e+12 -1.5711483e+13)
(-8.5697905e+13 6.5849739e+12 -1.5825636e+13)
(-8.3836063e+13 -1.2940733e+12 -4.7647447e+12)
(-7.9783372e+13 6.0864808e+12 -4.3617961e+12)
(-1.0511561e+14 -7.428705e+12 -1.044908e+13)
(-8.6806189e+13 -1.4095137e+13 6.7064377e+12)
(-8.6542698e+13 7.0727785e+11 7.9309949e+12)
(-8.2636719e+13 -7.4948433e+12 -1.284172e+13)
(-7.7416361e+13 1.8318987e+12 -1.1003144e+13)
(-6.9400231e+13 -1.0836657e+13 1.146616e+13)
(-5.9652304e+13 4.5848019e+12 8.8139393e+12)
(-8.2240582e+13 -5.7182063e+12 -1.2141031e+13)
(-7.7351627e+13 1.6319071e+12 -1.0703342e+13)
(-6.0519734e+13 3.5897731e+12 9.8398513e+12)
(-6.8598648e+13 -9.3016434e+12 1.2213656e+13)
(-6.6327037e+13 3.6040535e+12 -1.6330327e+13)
(-6.6233615e+13 3.5499986e+12 -1.6161801e+13)
(-6.1023647e+13 -1.6102538e+12 -8.6981995e+12)
(-5.9609494e+13 2.9969662e+12 -8.5189134e+12)
(-6.5427176e+13 3.9976578e+12 -1.5543962e+13)
(-6.5694503e+13 3.7177336e+12 -1.5528135e+13)
(-6.0808281e+13 -1.1992899e+12 -8.0430187e+12)
(-5.9122044e+13 3.7858536e+12 -8.1802696e+12)
(-5.0682857e+13 -3.6214882e+12 -9.0836351e+12)
(-4.7984844e+13 1.9056228e+12 -8.3475315e+12)
(-4.9187728e+13 -6.7735686e+12 1.3886004e+13)
(-4.3961662e+13 4.1611612e+12 1.139782e+13)
(-4.7755158e+13 2.4664485e+12 -8.0884791e+12)
(-5.0964236e+13 -2.8482003e+12 -8.4082347e+12)
(-4.9044791e+13 -5.5607753e+12 1.4340055e+13)
(-4.3605867e+13 4.8322743e+12 1.1270997e+13)
(-6.4215972e+13 -7.8288857e+11 1.2986808e+13)
(-6.2428552e+13 2.1738212e+12 1.2389863e+13)
(-7.3069083e+13 2.835044e+12 1.7087365e+13)
(-7.2411792e+13 2.7303437e+12 1.6969383e+13)
(-6.4691369e+13 -1.3478191e+12 1.3701602e+13)
(-6.2889077e+13 2.252624e+12 1.254522e+13)
(-7.2987162e+13 2.8086712e+12 1.7228321e+13)
(-7.3431444e+13 2.7333334e+12 1.7749262e+13)
(-5.0152905e+13 2.5216664e+12 1.4631925e+13)
(-5.0134744e+13 -1.1124152e+12 1.4847529e+13)
(-6.5633729e+13 1.3974402e+12 1.5097501e+13)
(-6.6097866e+13 1.5557359e+12 1.5692285e+13)
(-4.8851486e+13 3.042677e+12 1.41126e+13)
(-4.9630891e+13 -1.0426735e+12 1.419711e+13)
(-6.5839332e+13 1.2300282e+12 1.4625166e+13)
(-6.571631e+13 1.7201491e+12 1.4636332e+13)
(-6.5219532e+13 -1.8494733e+12 1.3695792e+13)
(-6.4275307e+13 1.8205316e+12 1.3112954e+13)
(-7.3875189e+13 2.3171729e+12 1.7646862e+13)
(-7.3927767e+13 2.3468966e+12 1.7964552e+13)
(-6.4374459e+13 -1.044658e+12 1.281975e+13)
(-6.2172513e+13 2.2781066e+12 1.1966827e+13)
(-7.3070118e+13 2.5478509e+12 1.6733203e+13)
(-7.3853398e+13 2.500708e+12 1.6976724e+13)
(-6.5517569e+13 -1.911291e+12 1.3248619e+13)
(-6.3858215e+13 1.8583262e+12 1.25291e+13)
(-7.448305e+13 1.9699402e+12 1.7240296e+13)
(-7.4894138e+13 1.804506e+12 1.7688169e+13)
(-6.4694122e+13 -1.0248352e+12 1.2498082e+13)
(-6.2338267e+13 2.0170875e+12 1.1749179e+13)
(-7.3016134e+13 2.1791194e+12 1.6481882e+13)
(-7.3759589e+13 2.2564187e+12 1.6676166e+13)
(-6.5594158e+13 -2.4591251e+12 1.30532e+13)
(-6.4325208e+13 9.6446083e+11 1.2416671e+13)
(-7.4066979e+13 1.3867481e+12 1.7249183e+13)
(-7.4149593e+13 1.3977009e+12 1.7567349e+13)
(-6.7561616e+13 1.2610297e+12 8.920999e+12)
(-6.4988602e+13 -1.7715536e+12 1.2253226e+13)
(-6.3487108e+13 1.5018041e+12 1.1980547e+13)
(-7.3784347e+13 1.5913398e+12 1.6616684e+13)
(-7.4250594e+13 1.4488117e+12 1.6647336e+13)
(-8.24293e+13 2.3982017e+12 1.7931561e+13)
(-8.3713534e+13 3.2468354e+12 1.8370996e+13)
(-7.1217575e+13 -2.2434284e+12 9.6931625e+12)
(-6.9139498e+13 1.418541e+12 9.2091832e+12)
(-7.2050522e+13 -2.7856512e+12 1.0143385e+13)
(-8.3496581e+13 3.6869763e+12 1.8850903e+13)
(-8.3129216e+13 3.0388874e+12 1.8167118e+13)
(-8.3469046e+13 9.0915936e+11 8.6491748e+12)
(-8.806585e+13 -5.5897736e+12 8.4563908e+12)
(-8.974708e+13 7.1969624e+12 2.3019421e+13)
(-8.9512594e+13 5.5798368e+12 2.3175253e+13)
(-7.2431689e+13 -3.0655185e+12 9.7327389e+12)
(-8.4552947e+13 3.2192962e+12 1.9692532e+13)
(-6.946999e+13 1.2726913e+12 8.5077583e+12)
(-8.3862335e+13 2.7921916e+12 1.8616232e+13)
(-7.1607466e+13 -2.2727205e+12 9.0696087e+12)
(-6.8187162e+13 1.5765234e+12 8.3009379e+12)
(-8.5805261e+13 3.1289628e+12 1.8679021e+13)
(-8.344347e+13 2.6798624e+12 1.7699605e+13)
(-9.0852772e+13 -6.6924998e+12 9.5381871e+12)
(-8.4608481e+13 1.5338264e+11 8.4401282e+12)
(-9.1696644e+13 8.717697e+12 2.4144073e+13)
(-9.0804826e+13 6.6664904e+12 2.3075577e+13)
(-8.4882587e+13 3.4253716e+12 6.9197475e+10)
(-7.0889778e+13 1.9845114e+12 -3.9666938e+11)
(-7.0691093e+13 2.1454374e+12 -7.5248322e+11)
(-7.3122292e+13 3.9792464e+12 7.7402814e+12)
(-7.3751572e+13 9.1608464e+11 7.5580913e+12)
(-7.415775e+13 2.1342848e+12 4.2424129e+12)
(-7.4694371e+13 4.5762181e+12 1.3171755e+13)
(-7.3694436e+13 2.3236739e+12 3.7906985e+12)
(-7.5505713e+13 7.3844822e+11 1.3158679e+13)
(-8.781981e+13 1.3859935e+12 1.3805868e+13)
(-8.5360088e+13 1.9847809e+12 -8.2771554e+10)
(-8.6633708e+13 5.9124121e+12 1.3188274e+13)
(-6.682199e+13 1.5470796e+12 -3.471786e+12)
(-6.8377011e+13 2.955451e+12 1.7008582e+12)
(-6.6726919e+13 1.9105879e+12 -3.6523762e+12)
(-6.8935536e+13 8.6199389e+11 1.5901497e+12)
(-8.0531368e+13 3.1976954e+12 -4.9219288e+12)
(-8.4716673e+13 1.0236093e+12 5.8297407e+12)
(-8.0906307e+13 1.8268074e+12 -5.0956617e+12)
(-8.3310917e+13 4.4128994e+12 5.1751566e+12)
(-6.8699625e+13 1.516178e+12 -2.927483e+12)
(-6.9584309e+13 3.3680155e+12 2.9224154e+12)
(-6.8419794e+13 2.1430868e+12 -3.210298e+12)
(-7.0176164e+13 1.0540357e+12 2.8408171e+12)
(-8.5795609e+13 3.0510186e+12 -3.0655426e+11)
(-8.8622655e+13 8.9270674e+11 1.346193e+13)
(-8.7897499e+13 1.872684e+12 5.7278585e+11)
(-8.8556548e+13 5.5868093e+12 1.3611533e+13)
(-8.6099373e+13 4.3602367e+12 5.8507975e+12)
(-8.2443092e+13 1.3738347e+12 -4.4020326e+12)
(-8.1513968e+13 2.541701e+12 -4.9137588e+12)
(-8.64404e+13 7.819212e+11 5.5673654e+12)
(-8.1329201e+13 1.1263531e+12 -7.3066622e+12)
(-8.1567867e+13 2.39633e+12 -7.3004802e+12)
(-8.3155662e+13 3.144296e+12 2.6749378e+11)
(-8.3887256e+13 6.509224e+11 5.6800552e+11)
(-9.2226741e+13 1.7020088e+12 1.9028309e+12)
(-7.1266142e+13 1.6794086e+12 4.2323658e+11)
(-6.825644e+13 6.6330084e+11 -2.9591099e+12)
(-6.8073857e+13 1.2970755e+12 -3.2454458e+12)
(-6.8417516e+13 2.1012957e+12 -3.7896878e+10)
(-6.9294868e+13 4.4196961e+11 3.7596176e+10)
(-8.120035e+13 1.1476109e+12 -6.6629802e+12)
(-8.056347e+13 4.0438367e+12 1.8963056e+09)
(-8.1515126e+13 1.6806495e+12 3.424478e+11)
(-8.0895395e+13 3.0015448e+12 -6.7136986e+12)
(-6.6287879e+13 6.2791046e+11 -4.3122349e+12)
(-6.7713785e+13 1.879133e+12 -1.6461078e+11)
(-6.6527681e+13 6.6774508e+11 -4.5092e+12)
(-6.7039812e+13 1.5261664e+12 -3.7565301e+12)
(-6.6941833e+13 1.2709056e+12 -3.5970617e+12)
(-6.8204554e+13 2.5641319e+12 5.2615434e+11)
(-6.8645036e+13 7.1416467e+11 4.5979116e+11)
(-6.7095339e+13 1.2972614e+12 -3.8602893e+12)
(-6.7184399e+13 2.7478993e+12 3.1421072e+11)
(-6.690742e+13 1.9691865e+12 -4.0810355e+12)
(-6.770615e+13 9.1570449e+11 2.9907475e+11)
(-8.1973232e+13 3.2645909e+12 5.9327865e+11)
(-8.2754296e+13 9.7074953e+11 4.3694712e+11)
(-8.1986803e+13 1.0066669e+12 -6.7708447e+12)
(-8.1322921e+13 2.8543188e+12 -7.3762466e+12)
(-8.2686953e+13 1.0238285e+12 -7.3279768e+12)
(-8.1725588e+13 2.3359663e+12 -7.8781075e+12)
(-8.4124978e+13 3.1260552e+12 2.3799521e+11)
(-8.4698522e+13 7.0078186e+11 -3.3193543e+10)
(-8.8136945e+13 6.9024115e+12 -1.9762617e+11)
(-8.2845751e+13 3.7037684e+12 -1.1893115e+13)
(-9.1112155e+13 3.0799452e+12 -9.7292442e+12)
(-9.1840724e+13 3.8370156e+12 -1.0768535e+13)
(-9.7318581e+13 1.3359363e+12 5.0280818e+12)
(-9.4762389e+13 7.4816645e+12 5.5687472e+12)
(-9.8537959e+13 1.2182114e+13 1.5895247e+13)
(-1.0134353e+14 1.0663733e+13 -1.1895202e+13)
(-9.7195183e+13 3.0285276e+12 1.3360303e+13)
(-9.4452172e+13 9.7143441e+12 1.3558232e+13)
(-9.7634548e+13 3.8418744e+12 -4.5824957e+12)
(-9.6831783e+13 5.3282306e+12 -5.8603208e+12)
(-1.0682433e+14 6.2637822e+12 1.7437548e+13)
(-9.5224279e+13 5.9690282e+12 3.9035841e+12)
(-9.1092326e+13 2.1850428e+12 -1.0958668e+13)
(-9.1532094e+13 4.2390448e+12 -1.1209846e+13)
(-9.7312085e+13 1.1353955e+12 4.2382843e+12)
(-1.0103863e+14 3.7293208e+12 1.7788901e+13)
(-9.9041042e+13 1.5802376e+13 1.578571e+13)
(-1.4375343e+14 4.7747739e+12 7.8198591e+12)
(-1.0233231e+14 7.6256302e+12 -1.1876795e+13)
(-8.4857672e+13 7.5866407e+12 1.5391946e+13)
(-7.7138643e+13 1.6422755e+13 -1.081305e+13)
(-8.5147705e+13 8.1255272e+12 -1.3056504e+13)
(-8.126008e+13 1.4951237e+13 1.4933435e+13)
(-8.2912825e+13 9.6554975e+12 3.4657947e+12)
(-8.1536554e+13 8.5046912e+12 -1.0757679e+12)
(-7.754497e+13 1.3958987e+13 -1.3720715e+13)
(-8.4739966e+13 1.2879734e+13 1.5704464e+13)
(-8.900062e+13 4.1161083e+12 1.7032298e+13)
(-8.4004648e+13 6.4075712e+12 -1.5052886e+13)
(-8.3540323e+13 1.0254549e+13 -4.555483e+11)
(-8.556406e+13 8.7209159e+12 5.1128041e+12)
(-9.8279466e+13 2.1995414e+12 -5.3113671e+12)
(-9.6524421e+13 5.0186632e+12 -6.4288876e+12)
(-9.5287393e+13 8.8567068e+12 1.2140124e+13)
(-9.699772e+13 2.6531285e+12 1.2623493e+13)
(-8.2845383e+13 3.5683337e+12 1.4449469e+12)
(-8.2019754e+13 2.2636725e+12 -6.3048669e+12)
(-8.2810101e+13 9.5198316e+11 -5.5387163e+12)
(-8.3374759e+13 6.7652136e+11 1.0964912e+12)
(-8.4803907e+13 2.5044416e+11 6.8208421e+11)
(-8.4307302e+13 2.9138581e+12 1.013185e+12)
(-8.2835533e+13 7.4125737e+11 -6.7194358e+12)
(-8.1761841e+13 1.7920388e+12 -7.2305468e+12)
(-8.8277503e+13 6.6139952e+12 4.2386775e+11)
(-8.258979e+13 3.3372517e+12 4.4795341e+11)
(-8.1848977e+13 2.3503162e+12 -6.7598035e+12)
(-8.2185117e+13 5.8669148e+11 -6.5435774e+12)
(-8.3138769e+13 8.7127524e+11 5.171292e+11)
(-8.4781836e+13 5.3267309e+11 5.8234781e+10)
(-8.4076491e+13 2.730811e+12 9.7027101e+10)
(-8.1933463e+13 6.6593674e+11 -7.5420464e+12)
(-8.1703429e+13 2.3127068e+12 -7.79062e+12)
(-9.2886821e+13 1.2832604e+12 1.3458177e+12)
(-8.3388172e+13 3.5029612e+12 -1.1602843e+13)
(-8.5494868e+13 4.6585267e+12 -1.1914272e+13)
(-8.1059517e+13 8.8205192e+12 -1.9911319e+12)
(-8.7037706e+13 8.1474463e+12 -2.5911091e+12)
(-8.9143147e+13 8.7301605e+12 1.907793e+12)
(-8.106595e+13 8.1252358e+12 2.6405319e+12)
(-3.76039e+13 8.4961754e+12 -2.9457313e+11)
(-1.0070937e+14 6.9162648e+12 2.3125609e+12)
(-9.1329246e+13 4.8823834e+12 2.8704598e+12)
(-5.7998426e+13 7.56586e+12 -6.0864081e+09)
(-8.6021603e+13 2.6944024e+12 2.5306138e+11)
(-8.7177601e+13 1.9720396e+12 1.1183809e+12)
(-8.7198069e+13 5.3303277e+12 1.3891967e+13)
(-8.7879278e+13 4.8516331e+11 1.3505906e+13)
(-8.7897286e+13 5.3701724e+12 1.2958603e+13)
(-8.5821532e+13 3.1229421e+12 -3.4038173e+11)
(-8.6907353e+13 1.5035322e+12 1.5949791e+10)
(-8.8000339e+13 1.3050562e+12 1.2943347e+13)
(-8.4993669e+13 4.0145382e+12 5.1590303e+12)
(-8.2931192e+13 1.2202544e+12 -4.5560587e+12)
(-8.1619129e+13 2.557154e+12 -5.0398717e+12)
(-8.5349848e+13 8.5984724e+11 5.0699212e+12)
(-8.4880474e+13 4.7588234e+12 6.2989573e+12)
(-8.204831e+13 2.4796331e+12 -4.6121469e+12)
(-8.3093181e+13 1.7306249e+12 -3.5839487e+12)
(-8.5388454e+13 8.6665229e+11 5.7532618e+12)
(-5.2534042e+13 4.6852173e+12 -2.1135406e+12)
(-1.6126247e+14 -2.8484385e+12 -8.3401054e+11)
(-8.5678259e+13 3.2036265e+12 9.4230811e+11)
(-8.5907847e+13 3.8449313e+12 -1.9914128e+12)
(-5.5391165e+13 9.136852e+12 -4.370347e+11)
(-6.8286318e+13 5.7027169e+12 -3.9457161e+10)
(-8.5490696e+13 4.986723e+12 -4.4554142e+11)
(-6.6678322e+13 8.3262807e+12 -2.4547746e+11)
(-6.9099614e+13 4.7745776e+12 -6.5347682e+11)
(-8.4091082e+13 2.8505174e+12 -6.1918137e+11)
(-6.5752643e+13 2.2802954e+12 -7.4765037e+11)
(-6.913409e+13 2.9008411e+12 -5.7781529e+11)
(-7.2231481e+13 2.6900405e+12 9.434178e+12)
(-7.1394135e+13 2.3628064e+12 9.3160031e+12)
(-7.2226459e+13 2.6462943e+12 9.691999e+12)
(-7.1695698e+13 2.2661566e+12 9.0889894e+12)
(-6.1027998e+13 1.9287271e+12 5.8845483e+12)
(-6.0791717e+13 1.3959492e+12 5.6251003e+12)
(-6.0526231e+13 1.3860008e+12 5.0945115e+12)
(-6.0886233e+13 1.5756501e+12 5.2077153e+12)
(-7.28018e+13 2.3247889e+12 9.1475762e+12)
(-7.1761763e+13 2.1446167e+12 8.9380726e+12)
(-7.292024e+13 2.3499091e+12 1.0071057e+13)
(-7.2708839e+13 1.7087966e+12 9.518391e+12)
(-7.2726584e+13 2.1101806e+12 9.0400565e+12)
(-7.1963087e+13 1.8829402e+12 8.9236488e+12)
(-7.315625e+13 1.8031642e+12 9.4351904e+12)
(-7.2803616e+13 1.5187735e+12 8.8424085e+12)
(-7.3030068e+13 1.4594343e+12 8.8995145e+12)
(-7.2437819e+13 1.3350376e+12 8.8208676e+12)
(-8.2917797e+13 2.5099183e+12 9.6317101e+12)
(-7.2770956e+13 1.7214137e+12 9.7064158e+12)
(-7.2931421e+13 1.0293362e+12 9.247917e+12)