/*--------------------------------*- C++ -*----------------------------------*\
  =========                 |
  \\      /  F ield         | OpenFOAM: The Open Source CFD Toolbox
   \\    /   O peration     | Website:  https://openfoam.org
    \\  /    A nd           | Version:  7
     \\/     M anipulation  |
\*---------------------------------------------------------------------------*/
FoamFile
{
    version     2.0;
    format      ascii;
    class       volVectorField;
    location    "2000";
    object      UMean;
}
// * * * * * * * * * * * * * * * * * * * * * * * * * * * * * * * * * * * * * //

dimensions      [0 1 -1 0 0 0 0];

internalField   nonuniform List<vector> 
34222
(
(-5.0254446e+12 1.5895518e+11 1.7085638e+11)
(-5.5435839e+12 1.4131638e+11 3.8797314e+11)
(-4.7875175e+12 9.0601388e+10 9.8716044e+10)
(-3.481048e+12 4.3987715e+10 -1.0583862e+11)
(-3.5480294e+12 1.0917604e+11 -4.5388992e+10)
(-3.5115783e+12 8.5272576e+10 -1.7255224e+11)
(-3.3126329e+12 4.904768e+10 -2.2997198e+11)
(-5.6571981e+12 7.4183477e+10 1.3513858e+11)
(-5.4673812e+12 8.3892815e+10 3.6729732e+11)
(-3.7685292e+12 3.6189495e+10 1.2146211e+11)
(-3.7275213e+12 -4.7986755e+10 1.0061041e+11)
(-3.5529209e+12 1.1086885e+10 -1.9075059e+10)
(-3.6151749e+12 5.7774178e+10 2.1476616e+10)
(-4.7413579e+12 5.7052251e+10 1.9162715e+11)
(-3.0638798e+12 1.0732993e+11 -3.5845062e+11)
(-3.2250633e+12 3.0678497e+10 -1.8973689e+11)
(-3.1379111e+12 6.2358124e+10 -2.9791739e+11)
(-3.0649003e+12 4.8427369e+10 -2.6789276e+11)
(-3.1376093e+12 1.4773193e+11 -2.0141115e+11)
(-3.2373409e+12 1.3350143e+11 -1.0044858e+11)
(-3.2578139e+12 1.6489244e+11 -1.6641752e+11)
(-3.1536667e+12 1.6469973e+11 -2.3710522e+11)
(-4.392725e+12 1.6816091e+11 4.2900176e+11)
(-5.6492106e+12 4.5462813e+10 1.553821e+11)
(-5.5120423e+12 3.1193874e+10 -3.5028057e+10)
(-3.6662364e+12 -8.3139789e+10 2.9322874e+09)
(-3.68533e+12 -9.3900409e+10 2.8027397e+10)
(-3.7709607e+12 -1.4859036e+10 3.2598381e+10)
(-3.7821635e+12 -9.4785162e+09 5.8024654e+09)
(-5.3996133e+12 4.1258077e+10 4.5516374e+11)
(-3.1568944e+12 -1.1535981e+10 -2.0409412e+11)
(-3.3081399e+12 -2.2020375e+10 -9.0007336e+10)
(-3.442261e+12 -1.7651779e+10 3.2732839e+10)
(-3.3707678e+12 -1.0265245e+10 -6.8755268e+10)
(-3.4390084e+12 3.6919519e+10 2.8514355e+10)
(-3.1897924e+12 4.2011046e+10 -3.1359597e+10)
(-3.0803708e+12 1.0719233e+11 -1.5124734e+11)
(-3.2850106e+12 8.9741181e+10 -2.7055051e+10)
(-4.7907928e+12 4.1540688e+10 1.6539706e+11)
(-2.1214413e+12 -3.3050751e+09 -2.4936492e+11)
(-2.4275401e+12 -9.7566094e+10 -2.159633e+11)
(-2.8199462e+12 -4.2636193e+10 -2.9169122e+11)
(-2.692391e+12 2.9629031e+10 -3.1209329e+11)
(-2.9626144e+12 2.8411795e+11 -3.8037687e+11)
(-3.0043975e+12 1.7038461e+11 -2.7064293e+11)
(-3.0299927e+12 2.1865578e+11 -3.1022345e+11)
(-3.0137293e+12 2.185604e+11 -2.9704289e+11)
(-3.1619327e+12 1.9440955e+11 -1.227947e+11)
(-3.1291693e+12 1.4949676e+11 -8.1378054e+10)
(-3.4702897e+12 2.3825671e+11 -9.1241718e+10)
(-3.5398e+12 2.7564179e+11 -1.3151003e+11)
(-4.0261365e+12 1.8976724e+11 2.2995404e+10)
(-4.1111436e+12 1.4767176e+11 5.8627391e+11)
(-4.1165232e+12 4.3911692e+10 5.7714923e+11)
(-4.3170058e+12 8.3355941e+10 3.6293459e+11)
(-4.3938607e+12 2.126378e+10 4.9954133e+11)
(-4.3254423e+12 5.3415449e+10 4.6966563e+11)
(-5.621992e+12 5.2218952e+10 2.0843343e+11)
(-5.5162942e+12 1.3900928e+10 -9.6866617e+09)
(-3.3458094e+12 -6.5520122e+10 -9.3513505e+10)
(-3.5053028e+12 -1.1525771e+11 1.2795397e+10)
(-3.6268664e+12 -6.3602872e+10 5.7885753e+10)
(-3.5695371e+12 -6.8975866e+10 8.662341e+09)
(-3.6938478e+12 -8.2456468e+10 4.9667507e+10)
(-3.6249846e+12 -7.8503173e+10 -7.4942639e+10)
(-3.7051237e+12 -5.1123218e+10 -8.5318643e+10)
(-3.7401461e+12 -2.8763633e+10 5.0619251e+10)
(-3.4817665e+12 -4.4325852e+10 -7.6156556e+09)
(-3.468037e+12 -7.6561183e+10 -2.9594591e+10)
(-3.592164e+12 -1.0358092e+10 -1.6842195e+10)
(-3.5828348e+12 6.6699112e+09 1.2043249e+10)
(-4.3233302e+12 -2.9364129e+09 3.6275119e+11)
(-4.306887e+12 5.5813615e+10 3.5228133e+11)
(-5.5221363e+12 5.2158521e+10 3.701927e+11)
(-3.0222648e+12 -8.2225479e+10 -6.7965331e+10)
(-2.8305366e+12 -8.378121e+10 3.4215528e+10)
(-2.5332692e+12 -8.79226e+10 -6.2376695e+10)
(-2.8528027e+12 -1.0984794e+11 -1.7049168e+11)
(-3.0919443e+12 1.3907994e+11 -2.4147987e+11)
(-2.982537e+12 9.4406955e+10 -1.805589e+11)
(-3.0985049e+12 8.8395885e+10 -8.0067559e+10)
(-2.9727306e+12 1.0800112e+11 -2.0355833e+11)
(-3.2104614e+12 -3.4452598e+09 -4.9018844e+10)
(-2.7930866e+12 5.3886571e+10 -9.3278373e+10)
(-3.1577455e+12 1.4734825e+11 -1.0804424e+11)
(-3.1793926e+12 8.7731177e+10 -7.2690806e+10)
(-3.0826177e+12 -5.8190434e+10 -2.1625622e+11)
(-2.9490211e+12 -4.765978e+10 -2.834243e+11)
(-2.7082122e+12 -6.0783862e+08 -2.6619022e+11)
(-2.9370817e+12 -9.0547059e+10 -2.1401281e+11)
(-1.331145e+12 -9.4330926e+10 -2.8196966e+11)
(-1.4296052e+12 -1.3878184e+11 -2.5029264e+11)
(-2.2798653e+12 1.3326418e+11 -3.1183989e+11)
(-2.3656373e+12 2.3232732e+11 -4.036797e+11)
(-3.0738144e+12 2.913206e+11 -3.6429375e+11)
(-3.1125822e+12 2.0480064e+11 -2.0910858e+11)
(-2.9205328e+12 2.3756103e+11 -3.3621562e+11)
(-3.448586e+12 3.0134887e+11 -2.1582857e+11)
(-3.3931465e+12 2.3511526e+11 -9.8959894e+10)
(-3.4996788e+12 1.8184151e+11 -6.2737734e+10)
(-3.6807253e+12 2.8012317e+11 -6.797503e+10)
(-3.6827921e+12 3.0533117e+11 -1.0264229e+11)
(-3.9963472e+12 1.2182695e+11 -3.9929901e+11)
(-3.162928e+12 2.6142137e+11 2.8879909e+10)
(-4.0018615e+12 -1.4617882e+10 -4.0319407e+11)
(-3.9329928e+12 5.3092805e+10 -4.038923e+09)
(-3.1807393e+12 6.9997203e+09 1.3485774e+10)
(-3.487637e+12 6.6707578e+10 4.5946777e+11)
(-2.9477118e+12 1.3680681e+10 3.6898935e+11)
(-4.260446e+12 -1.3902919e+10 5.4353262e+11)
(-3.5153227e+12 5.8715659e+10 4.5805806e+11)
(-4.2768396e+12 7.2836702e+10 5.3894019e+11)
(-3.520689e+12 8.0624095e+10 4.4008763e+11)
(-3.4979254e+12 6.2979253e+10 4.4714195e+11)
(-4.2343805e+12 9.450172e+10 5.1278474e+11)
(-4.0927278e+12 1.2640142e+11 5.1802443e+11)
(-4.2553367e+12 7.2875622e+09 5.0958229e+11)
(-4.1258494e+12 -4.8590742e+09 5.5751663e+11)
(-4.4509297e+12 2.3603774e+10 4.1729983e+11)
(-4.4415787e+12 5.6717141e+10 4.3976118e+11)
(-4.2837689e+12 1.3778872e+10 4.1902069e+11)
(-4.5628743e+12 -1.2766507e+10 2.2820005e+11)
(-4.3977396e+12 -1.2991062e+09 -4.6145079e+10)
(-5.705421e+12 7.4879618e+10 1.1383105e+11)
(-4.3714423e+12 4.8408375e+10 -4.9371792e+10)
(-5.4984102e+12 4.6938579e+10 2.8115434e+10)
(-2.8885612e+12 -4.1033768e+10 -6.6020058e+10)
(-3.0867764e+12 3.7112786e+09 -1.8619641e+10)
(-3.0930478e+12 -5.8300632e+09 -4.4639468e+10)
(-3.0783391e+12 -7.9561085e+10 -7.8188332e+10)
(-4.509114e+12 6.5073984e+10 2.067818e+11)
(-3.6814467e+12 -6.7491097e+10 6.1556031e+10)
(-3.5671054e+12 -1.3884594e+11 1.0219987e+11)
(-3.4819309e+12 -1.2887759e+11 -6.7441388e+10)
(-3.6531412e+12 -9.059383e+10 -6.2963721e+10)
(-3.1551371e+12 1.2216591e+10 -1.4198551e+11)
(-3.2388974e+12 -5.8943176e+10 -1.0817475e+11)
(-3.4554622e+12 -4.101879e+10 -3.3841388e+10)
(-3.2929481e+12 2.3090196e+10 -4.5775733e+10)
(-3.4535782e+12 -7.0863238e+10 -6.2616109e+10)
(-3.4789431e+12 -7.6974712e+10 -6.0310353e+10)
(-3.5715801e+12 -4.3419059e+10 -5.1617556e+10)
(-3.5581478e+12 -4.9671436e+10 -5.0672073e+10)
(-3.2560605e+12 -3.2441695e+10 -7.2077142e+10)
(-3.1227903e+12 -8.9065155e+10 -5.1254566e+10)
(-3.4065749e+12 -1.9867016e+10 -5.2127959e+10)
(-3.5066647e+12 -2.8443e+09 -4.7229684e+10)
(-4.0304565e+12 -2.1684249e+10 3.6580431e+11)
(-3.5644728e+12 3.9004958e+10 3.1132825e+11)
(-4.069795e+12 6.121088e+10 3.5803418e+11)
(-4.0423866e+12 -1.7525603e+09 3.3991984e+11)
(-4.0287965e+12 7.8936242e+10 3.4984359e+11)
(-4.3476519e+12 2.0776451e+10 2.9450853e+11)
(-4.3404123e+12 5.6566628e+10 3.250624e+11)
(-5.5505075e+12 3.8631826e+10 3.6363147e+11)
(-3.5596531e+12 3.7674626e+10 -1.6755086e+10)
(-3.1869946e+12 -4.0257624e+10 -8.3206921e+10)
(-3.1727201e+12 -4.8612596e+10 -1.3293819e+11)
(-3.1924117e+12 -7.0200383e+09 -1.3625916e+11)
(-2.3198382e+12 -1.352524e+10 -1.0271513e+11)
(-2.0039694e+12 -1.2230378e+11 -7.3578246e+10)
(-1.4881116e+12 -1.3918371e+11 -1.8019378e+11)
(-2.2307453e+12 3.7096486e+10 -2.1032113e+11)
(-2.6777142e+12 1.3819162e+11 -2.9100157e+11)
(-2.6846062e+12 9.7415419e+10 -2.4124338e+11)
(-2.7026327e+12 1.3596932e+11 -1.2796891e+11)
(-2.9028436e+12 1.3378926e+11 -1.6572226e+11)
(-3.4101837e+12 2.4854588e+10 -5.546072e+10)
(-3.1913661e+12 3.8301441e+10 -8.2759878e+10)
(-3.2924255e+12 1.5459467e+11 -8.7287306e+10)
(-3.458521e+12 9.8696625e+10 -5.9385538e+10)
(-3.4190508e+12 -2.0256799e+11 -1.6153761e+11)
(-2.3618844e+12 -7.8596388e+10 -2.7148376e+11)
(-2.4037783e+12 -1.33934e+11 -2.8751551e+11)
(-3.2486337e+12 -2.2825697e+11 -1.884239e+11)
(-1.7907002e+12 -6.518741e+10 -3.8440897e+11)
(-1.4332516e+12 -1.0804646e+11 -3.4116115e+11)
(-2.0845387e+12 1.5414047e+11 -3.8733283e+11)
(-2.5535629e+12 2.4669188e+11 -4.2339565e+11)
(-3.1552579e+12 2.714084e+11 -3.4486519e+11)
(-3.2538365e+12 2.5354163e+11 -1.8379557e+11)
(-3.0086088e+12 2.1568172e+11 -3.2254206e+11)
(-3.5154188e+12 3.0103926e+11 -1.9097176e+11)
(-4.3887293e+12 3.1448354e+09 -2.6015183e+11)
(-4.3967359e+12 1.1222312e+11 -2.5267292e+11)
(-3.7279374e+12 3.5413067e+10 -3.9526008e+11)
(-3.9694229e+12 5.8779783e+10 -3.5156575e+11)
(-3.9691728e+12 -1.2838833e+09 -3.4149088e+11)
(-3.7186864e+12 5.1464956e+10 -3.9512988e+11)
(-3.0097651e+12 9.2363029e+10 -5.3472038e+11)
(-1.6094552e+12 1.6492156e+10 1.5954706e+11)
(-2.2787175e+12 1.9338617e+11 5.2085373e+10)
(-3.0370592e+12 3.7139302e+10 -5.384452e+11)
(-2.3204784e+12 4.8406424e+10 6.1347443e+10)
(-4.007541e+12 7.6769287e+10 -3.9577957e+11)
(-3.7356772e+12 2.742749e+10 -4.1064372e+11)
(-3.9730886e+12 5.883828e+10 -3.5876933e+11)
(-3.9799801e+12 -8.5586561e+09 -3.5537747e+11)
(-3.7265676e+12 3.7542526e+10 -3.9228766e+11)
(-3.9973422e+12 -5.8959418e+10 -4.0053741e+11)
(-3.9079198e+12 1.6432783e+10 9.7611468e+10)
(-3.1618718e+12 -7.3629519e+10 1.161988e+10)
(-3.1629339e+12 2.0141074e+11 -4.4840481e+09)
(-3.0402903e+12 2.0314894e+10 -5.4627277e+11)
(-3.0375325e+12 7.5599192e+10 -5.3727399e+11)
(-2.309867e+12 2.6298761e+10 4.2643172e+10)
(-2.324328e+12 1.8213904e+11 5.6895595e+10)
(-2.9683897e+12 3.9229318e+10 3.7338989e+11)
(-2.9739539e+12 4.8878563e+10 3.6569396e+11)
(-3.7733199e+12 4.8266828e+10 4.657344e+11)
(-3.7652589e+12 -1.4078341e+10 4.676159e+11)
(-2.5993739e+12 3.7165968e+09 3.602483e+11)
(-2.5970977e+12 7.6532288e+09 3.470949e+11)
(-3.2654336e+12 -5.0433956e+09 4.1528468e+11)
(-3.2570131e+12 3.6672975e+10 4.228872e+11)
(-3.7835163e+12 7.6955518e+10 4.5842088e+11)
(-2.9897601e+12 4.9548149e+10 3.7275903e+11)
(-2.9784997e+12 5.3408821e+10 3.5366232e+11)
(-3.7858377e+12 1.3936154e+10 4.4755819e+11)
(-2.9915751e+12 5.4845508e+10 3.5831919e+11)
(-2.9822226e+12 6.1446576e+10 3.540216e+11)
(-3.810836e+12 6.3394765e+10 4.5181497e+11)
(-3.7838988e+12 1.2532054e+10 4.3727295e+11)
(-2.9872459e+12 5.9853338e+10 3.7057026e+11)
(-2.9840925e+12 5.6640247e+10 3.4966126e+11)
(-3.7830519e+12 9.1344446e+10 4.5615721e+11)
(-3.7901596e+12 2.3070322e+10 4.4427431e+11)
(-3.4662434e+12 8.6636781e+10 4.0445874e+11)
(-4.2313599e+12 -1.8604124e+09 4.4553556e+11)
(-3.4637383e+12 5.4549009e+10 3.9962239e+11)
(-4.2413662e+12 8.3974288e+10 4.4633719e+11)
(-4.0799023e+12 7.8482477e+10 5.5680754e+11)
(-4.2517072e+12 8.7258414e+10 4.8833182e+11)
(-3.4629581e+12 3.7844677e+10 4.2053073e+11)
(-4.2723441e+12 -2.4394626e+09 4.7862736e+11)
(-3.4902194e+12 5.4389939e+10 4.1578539e+11)
(-4.4161381e+12 -1.2616641e+09 4.321848e+11)
(-4.4735546e+12 7.6470091e+10 4.555646e+11)
(-4.0688599e+12 -1.0916826e+10 5.5085152e+11)
(-3.5974674e+12 2.040218e+10 1.3581581e+11)
(-3.7483328e+12 3.8535325e+10 3.1294524e+11)
(-4.2050074e+12 -2.2606701e+10 2.9685297e+11)
(-3.5110613e+12 5.9323604e+09 -5.0547613e+10)
(-4.0597904e+12 -1.0118851e+10 5.6186277e+10)
(-3.6320215e+12 1.9862028e+10 5.9747655e+10)
(-4.2514495e+12 5.0825708e+10 2.8660242e+11)
(-4.0871186e+12 2.9016359e+10 3.0672916e+10)
(-3.9679487e+12 -7.7985405e+09 -1.1321595e+11)
(-3.568882e+12 -1.5612673e+09 -1.1750623e+11)
(-4.1001842e+12 -1.3881504e+10 -2.258157e+10)
(-3.4993205e+12 -3.1290157e+09 -1.217147e+11)
(-3.5459146e+12 4.4001564e+09 -7.2404943e+10)
(-4.1282684e+12 2.8283723e+10 -4.9235534e+10)
(-3.9855426e+12 2.0994312e+10 -1.5707004e+11)
(-4.4416763e+12 -2.3165235e+10 9.0275067e+09)
(-4.4265429e+12 4.7788686e+10 -6.6507978e+10)
(-4.5624891e+12 7.0215316e+10 1.7577387e+11)
(-4.3830011e+12 2.4303517e+10 -9.2768815e+10)
(-5.7234794e+12 4.1580163e+10 1.0224372e+11)
(-3.6491836e+12 1.1246573e+11 -5.9640278e+10)
(-3.65569e+12 1.1180125e+11 -3.2233359e+10)
(-5.5575772e+12 7.9468895e+10 -4.197508e+10)
(-3.5191663e+12 1.3541179e+11 1.5139804e+10)
(-3.276408e+12 1.9449508e+10 -1.0005245e+11)
(-4.5716953e+12 1.6088869e+10 1.4986152e+11)
(-4.1203669e+12 5.0398886e+10 -3.896236e+10)
(-3.9858716e+12 3.7544022e+10 -1.4188088e+11)
(-4.13081e+12 9.5336616e+09 -4.9999972e+10)
(-4.0045078e+12 1.4120739e+10 -1.5123452e+11)
(-4.392306e+12 6.8089457e+10 -7.4498759e+09)
(-3.5337287e+12 -3.563497e+09 1.7822755e+11)
(-3.4345007e+12 6.607942e+10 1.3657527e+11)
(-3.2003503e+12 7.4968744e+10 -7.6721829e+10)
(-3.2421657e+12 -2.3378846e+10 -7.3067795e+10)
(-2.3494571e+12 -1.1447028e+11 -3.8063025e+10)
(-2.3192364e+12 -8.1354521e+10 -5.8532988e+10)
(-2.5850478e+12 -2.0427779e+10 -7.1050762e+10)
(-2.4106932e+12 -2.6482354e+10 -8.0935646e+10)
(-4.1973334e+12 7.1043994e+10 2.7175253e+11)
(-4.215252e+12 -6.4454833e+08 2.6468017e+11)
(-4.0816379e+12 7.3367797e+09 3.2858173e+10)
(-4.087515e+12 5.2822031e+10 4.6472616e+10)
(-3.4520508e+12 -1.1413465e+11 -5.8687793e+10)
(-3.2169257e+12 -1.7583626e+11 -3.6908155e+10)
(-3.2969338e+12 -1.2942961e+11 -6.1734581e+10)
(-3.4847522e+12 -7.0957436e+10 -5.5402085e+10)
(-2.7046682e+12 3.737501e+08 -2.1569869e+11)
(-2.3691042e+12 -7.5642447e+10 -1.4458864e+11)
(-2.8874129e+12 -2.0736432e+10 -6.4731879e+10)
(-2.7361967e+12 5.9500385e+10 -1.1170809e+11)
(-3.2109943e+12 -7.6049761e+10 -4.63043e+10)
(-3.2824939e+12 -9.4248025e+10 -5.6543937e+10)
(-3.2053238e+12 -6.1216429e+10 -5.0555261e+10)
(-3.3397153e+12 -4.7305994e+10 -3.2987068e+10)
(-3.2586026e+12 -4.6001338e+10 -7.6647999e+10)
(-3.2577694e+12 -8.5585636e+10 -5.7053717e+10)
(-3.5799376e+12 -9.4032453e+09 -4.8901399e+10)
(-3.6164642e+12 5.8570665e+09 -5.1875131e+10)
(-3.5675002e+12 -1.3598991e+10 3.2433342e+11)
(-3.5734471e+12 5.0819654e+10 3.1745157e+11)
(-3.0870303e+12 2.9868291e+10 3.1158964e+11)
(-3.0918614e+12 -1.7452562e+10 3.0053439e+11)
(-3.59131e+12 2.695584e+09 3.0054185e+11)
(-3.5980234e+12 6.4894325e+10 3.127971e+11)
(-3.5841236e+12 1.2302986e+10 2.9814083e+11)
(-3.6055023e+12 6.5000122e+10 3.0288716e+11)
(-3.5856622e+12 1.1237929e+10 3.0114719e+11)
(-3.5874222e+12 8.1321296e+10 3.1521565e+11)
(-4.0219328e+12 5.0444484e+09 2.97004e+11)
(-4.0323105e+12 7.3610145e+10 2.9281632e+11)
(-4.0167461e+12 7.5395973e+10 3.2742494e+11)
(-4.3157308e+12 1.94969e+09 3.2172307e+11)
(-4.0304539e+12 -6.3625515e+09 3.1108759e+11)
(-4.3223667e+12 7.1455189e+10 3.1994815e+11)
(-3.5764854e+12 6.0893794e+10 -2.7796964e+10)
(-3.5975332e+12 7.6233126e+10 -7.3017912e+10)
(-3.7284497e+12 6.5970982e+10 -4.6520301e+10)
(-3.7086215e+12 9.1485083e+10 7.2965647e+09)
(-3.1965973e+12 1.7121306e+09 -8.7333648e+10)
(-2.6084978e+12 -1.5260001e+10 -1.0957754e+11)
(-2.3813155e+12 -1.8751922e+09 -2.1196929e+11)
(-3.2882044e+12 -9.5124978e+10 -1.2980069e+11)
(-1.8853285e+12 -2.975197e+10 -2.5177867e+11)
(-1.3949434e+12 -1.6932788e+11 -2.4643173e+11)
(-1.2447262e+12 -1.4897023e+11 -3.0809997e+11)
(-1.8727036e+12 4.036267e+10 -3.1891217e+11)
(-2.865726e+12 1.5898411e+11 -2.7288377e+11)
(-2.7217683e+12 9.5386164e+10 -2.4492183e+11)
(-2.9457968e+12 1.4247976e+11 -1.1349685e+11)
(-3.0466252e+12 2.1042049e+11 -1.4532699e+11)
(-2.7809651e+12 -1.6189938e+11 -2.0032991e+11)
(-2.3054596e+12 -7.0055472e+10 -2.9393923e+11)
(-2.6933404e+12 -1.2310362e+11 -3.0123084e+11)
(-3.1799763e+12 -2.4090138e+11 -2.0557e+11)
(-2.1140628e+12 -6.8028135e+10 -3.7971813e+11)
(-2.0217359e+12 -1.1228288e+11 -3.3351248e+11)
(-2.4948645e+12 1.3636926e+11 -3.8148421e+11)
(-2.7164196e+12 2.1663926e+11 -4.1787595e+11)
(-4.6142244e+12 5.38596e+10 -3.5452002e+11)
(-4.6066802e+12 4.4158091e+10 -3.4343109e+11)
(-3.9566291e+12 4.6068563e+10 -4.6575279e+11)
(-3.880725e+12 5.0517235e+10 -2.6604491e+11)
(-3.8756704e+12 -1.6997275e+10 -2.5625846e+11)
(-3.9443749e+12 2.9651931e+10 -4.5842573e+11)
(-3.1754059e+12 5.6163365e+10 -4.7744285e+11)
(-2.6474938e+12 5.9068565e+10 -5.8099245e+11)
(-2.6475362e+12 5.138415e+10 -5.8901955e+11)
(-3.1764336e+12 1.7115815e+10 -4.7849137e+11)
(-1.8097185e+12 8.1562497e+10 -5.2521813e+11)
(-1.3347518e+12 7.0363503e+10 -6.199749e+11)
(-1.0729228e+12 6.8710733e+10 -1.5193894e+11)
(-1.091369e+12 6.4127074e+10 -1.2281784e+11)
(-1.6467992e+12 -5.6079109e+08 2.6013121e+11)
(-1.6219908e+12 1.2755434e+11 1.5737042e+11)
(-1.6660264e+12 3.7337359e+10 2.6692472e+11)
(-1.8249783e+12 6.4866543e+10 -5.1184785e+11)
(-1.6524609e+12 4.9822432e+10 1.7681145e+11)
(-3.1874606e+12 1.5199191e+10 -4.8301114e+11)
(-3.1828533e+12 5.7244416e+10 -4.86402e+11)
(-2.6628861e+12 5.5496151e+10 -5.9161278e+11)
(-2.6590131e+12 4.5568036e+10 -5.8388347e+11)
(-1.8329753e+12 5.7127743e+10 -5.2170886e+11)
(-1.8322011e+12 7.7186972e+10 -5.1847899e+11)
(-1.6633674e+12 3.9484682e+10 1.6854394e+11)
(-1.6568428e+12 1.3030081e+11 1.664929e+11)
(-3.7311031e+12 6.3418984e+09 -3.9033261e+11)
(-3.9833036e+12 3.2583214e+10 -3.5179356e+11)
(-3.9848145e+12 -2.3018101e+10 -3.4468821e+11)
(-3.7311492e+12 2.5195974e+10 -4.0575017e+11)
(-3.966032e+12 3.6199574e+10 -4.7618724e+11)
(-3.8916091e+12 4.8874227e+10 -2.7638269e+11)
(-3.8777496e+12 -2.4077151e+10 -2.6294354e+11)
(-3.9534018e+12 1.6929026e+10 -4.5384139e+11)
(-3.9702942e+12 4.3085673e+10 -3.8012826e+11)
(-3.9762006e+12 -3.0206305e+10 -3.4718414e+11)
(-3.9604499e+12 3.6968805e+10 -3.4607158e+11)
(-3.7262388e+12 -1.3779212e+09 -4.0020643e+11)
(-3.7229394e+12 8.5430366e+09 -3.9397138e+11)
(-3.9788394e+12 -7.7881976e+10 -3.8569019e+11)
(-3.1623778e+12 -1.1091211e+11 3.2469178e+10)
(-3.149287e+12 1.3861623e+11 2.6803817e+10)
(-3.0195751e+12 -1.7496742e+10 -5.4414983e+11)
(-3.029792e+12 3.587737e+10 -5.3933858e+11)
(-2.2725025e+12 -3.2907233e+10 2.8178098e+10)
(-2.2996433e+12 1.2185191e+11 4.5440786e+10)
(-3.0370612e+12 1.782085e+09 -5.3801034e+11)
(-3.0342957e+12 6.1165634e+10 -5.4302197e+11)
(-2.2805497e+12 1.6462386e+11 1.9485159e+10)
(-2.2999267e+12 1.5196125e+09 4.3115522e+10)
(-3.2069596e+12 2.6095855e+09 -4.927734e+11)
(-3.1937323e+12 4.8573441e+10 -4.9430594e+11)
(-2.6717795e+12 4.2508245e+10 -5.970848e+11)
(-2.6805535e+12 2.8640091e+10 -5.9002388e+11)
(-3.1807373e+12 5.5273738e+09 -4.7742651e+11)
(-3.1751794e+12 4.2719132e+10 -4.7588341e+11)
(-2.6517661e+12 4.0827143e+10 -5.8101934e+11)
(-2.661599e+12 4.0422438e+10 -5.9011274e+11)
(-1.837805e+12 3.9637844e+10 -5.3017559e+11)
(-1.8556673e+12 5.3886926e+10 -5.2635262e+11)
(-1.6516115e+12 2.5944912e+10 1.6233088e+11)
(-1.666871e+12 1.1073615e+11 1.6574789e+11)
(-1.8304791e+12 7.1259779e+10 -5.2772156e+11)
(-1.8339064e+12 4.1651592e+10 -5.130838e+11)
(-1.6663596e+12 3.3735513e+10 1.7340073e+11)
(-1.6443123e+12 1.3356381e+11 1.5156424e+11)
(-2.6270311e+12 4.102223e+10 3.6235268e+11)
(-2.6151367e+12 2.9693739e+10 3.6194251e+11)
(-3.2847258e+12 3.7397913e+10 4.3069181e+11)
(-3.2744741e+12 -7.3338336e+09 4.292243e+11)
(-2.6227332e+12 3.8559501e+10 3.6391828e+11)
(-2.6171075e+12 4.6386432e+10 3.4833498e+11)
(-3.283774e+12 2.1450936e+10 4.1622165e+11)
(-3.2799721e+12 5.6117633e+10 4.2514416e+11)
(-2.2626748e+12 1.3745809e+10 3.3359638e+11)
(-2.254784e+12 1.5783727e+09 3.3832797e+11)
(-2.8568972e+12 2.3868122e+10 3.6266255e+11)
(-2.8690899e+12 -4.2763512e+09 3.6778114e+11)
(-2.2499257e+12 2.2649078e+10 3.3254764e+11)
(-2.2447756e+12 -1.6293799e+09 3.2094234e+11)
(-2.8656522e+12 7.907508e+09 3.5145489e+11)
(-2.8649784e+12 -1.7351278e+10 3.523202e+11)
(-2.6255904e+12 3.7916698e+10 3.6099516e+11)
(-2.6361649e+12 4.7037757e+10 3.5515497e+11)
(-3.2987094e+12 2.6154314e+10 4.2126073e+11)
(-3.2877157e+12 6.6792948e+10 4.2465695e+11)
(-2.6230302e+12 4.1865018e+10 3.4692409e+11)
(-2.6101746e+12 5.1219279e+10 3.4770414e+11)
(-3.2831171e+12 1.1794187e+10 4.099628e+11)
(-3.2959236e+12 4.5685621e+10 4.1221553e+11)
(-2.6307811e+12 4.460739e+10 3.5713097e+11)
(-2.6229912e+12 6.1621491e+10 3.3986988e+11)
(-3.3068274e+12 3.6379067e+10 4.1188155e+11)
(-3.3032552e+12 6.9581878e+10 4.1752806e+11)
(-2.6261777e+12 5.0359925e+10 3.4369545e+11)
(-2.6172453e+12 5.4461256e+10 3.4811219e+11)
(-3.2864319e+12 2.0383334e+10 4.1075439e+11)
(-3.2995758e+12 5.6198152e+10 4.1047011e+11)
(-2.6299687e+12 5.0298675e+10 3.6164436e+11)
(-2.6351268e+12 4.983378e+10 3.5150814e+11)
(-3.3024312e+12 3.9283007e+10 4.2023688e+11)
(-3.2939602e+12 8.2446622e+10 4.2450085e+11)
(-2.9435117e+12 7.6640089e+10 3.3270875e+11)
(-2.6268012e+12 4.9583001e+10 3.4373725e+11)
(-2.6212098e+12 5.6742313e+10 3.4751912e+11)
(-3.2934066e+12 2.3293459e+10 4.0943721e+11)
(-3.3013032e+12 5.6615177e+10 4.0644836e+11)
(-3.754537e+12 1.6866433e+10 4.1034245e+11)
(-3.7815884e+12 7.2989297e+10 4.1291007e+11)
(-2.9582728e+12 6.9321278e+10 3.3303173e+11)
(-2.957255e+12 5.963118e+10 3.2743324e+11)
(-2.9545513e+12 4.4516206e+10 3.371064e+11)
(-3.7635454e+12 8.1532195e+10 4.087143e+11)
(-3.7728479e+12 2.2445618e+10 4.0492621e+11)
(-3.4573135e+12 5.9777293e+10 4.2108713e+11)
(-3.4604976e+12 4.03894e+10 4.1396884e+11)
(-4.2545777e+12 7.2990045e+10 4.8709542e+11)
(-4.2443181e+12 -2.1814594e+10 4.8328876e+11)
(-2.9524068e+12 4.6877503e+10 3.4381698e+11)
(-3.7780246e+12 8.1672775e+10 4.3458635e+11)
(-2.9517806e+12 3.8526312e+10 3.2834636e+11)
(-3.7840717e+12 1.2181784e+10 4.2419418e+11)
(-2.9660654e+12 3.9365934e+10 3.3612182e+11)
(-2.9593722e+12 4.9311116e+10 3.3964674e+11)
(-3.8120517e+12 5.5177815e+10 4.2952623e+11)
(-3.7805795e+12 2.4483932e+09 4.163695e+11)
(-3.4542024e+12 2.6303204e+10 4.2514881e+11)
(-3.4533905e+12 4.5607051e+10 4.1178665e+11)
(-4.2576334e+12 8.6619197e+10 4.8702102e+11)
(-4.2679804e+12 -1.1268619e+10 4.7792223e+11)
(-3.6043351e+12 -6.9644049e+09 1.5402288e+11)
(-3.0906447e+12 1.4671489e+10 5.1819112e+10)
(-3.0965164e+12 -1.1692021e+10 4.7300221e+10)
(-3.2038583e+12 2.2956178e+10 1.5382877e+11)
(-3.2092677e+12 -1.3287235e+10 1.4789923e+11)
(-3.1360466e+12 2.4479893e+10 2.2102419e+11)
(-3.2562375e+12 3.4013999e+10 3.4023077e+11)
(-3.1377132e+12 -1.7974312e+10 2.1212061e+11)
(-3.265025e+12 -1.4968317e+10 3.3249521e+11)
(-3.7519463e+12 -1.865211e+10 3.2969392e+11)
(-3.599959e+12 3.6510747e+10 1.4471912e+11)
(-3.7555691e+12 4.2812667e+10 3.2169473e+11)
(-2.9590155e+12 4.8858784e+09 -8.0974717e+10)
(-3.0319115e+12 8.4513738e+09 -5.4557172e+10)
(-2.9665173e+12 -3.8679274e+09 -8.2698611e+10)
(-3.0400909e+12 -5.2448135e+09 -5.6733345e+10)
(-3.5125353e+12 4.7349184e+08 -2.998124e+10)
(-3.6403481e+12 -9.3585325e+09 7.933963e+10)
(-3.5115593e+12 2.3096935e+10 -3.7442791e+10)
(-3.6303633e+12 3.0139472e+10 6.9008474e+10)
(-3.0033525e+12 8.3014613e+09 -4.7455917e+10)
(-3.1100411e+12 1.4005883e+10 2.0588087e+10)
(-3.0084832e+12 -6.2105547e+09 -5.0488549e+10)
(-3.1184499e+12 -8.9813979e+09 1.7749639e+10)
(-3.6276275e+12 1.1717618e+10 1.219497e+11)
(-3.7784312e+12 3.6202052e+09 3.0369644e+11)
(-3.6417374e+12 4.4559777e+10 1.3098376e+11)
(-3.7851903e+12 6.2199299e+10 3.1324452e+11)
(-3.681566e+12 4.1137644e+10 5.9855705e+10)
(-3.5436853e+12 2.6145796e+10 -5.4679033e+10)
(-3.537177e+12 2.201586e+10 -6.0700489e+10)
(-3.6743204e+12 1.2863244e+10 5.2550646e+10)
(-3.5134104e+12 1.251751e+10 -1.3233388e+11)
(-3.5247431e+12 1.3328966e+09 -1.2177551e+11)
(-3.5578179e+12 1.6108081e+10 -1.0388958e+11)
(-3.561179e+12 -2.0726404e+09 -9.6140652e+10)
(-4.0309161e+12 -1.2104345e+10 -1.0923491e+11)
(-3.0752221e+12 -2.2416798e+09 -1.0105908e+11)
(-2.9851925e+12 -2.3981477e+09 -1.057019e+11)
(-2.9940756e+12 -2.1735351e+08 -1.0785196e+11)
(-3.0163763e+12 2.2310124e+08 -9.2821145e+10)
(-3.0266147e+12 -2.2239979e+09 -9.2525905e+10)
(-3.4925502e+12 1.61442e+10 -1.0801908e+11)
(-3.5411662e+12 1.9172347e+10 -5.9394749e+10)
(-3.5448792e+12 -8.5713615e+08 -5.1925693e+10)
(-3.498225e+12 4.2224655e+09 -9.9730189e+10)
(-2.9433153e+12 -7.34221e+09 -1.149255e+11)
(-2.9845304e+12 -4.0134939e+09 -9.9889622e+10)
(-2.9284188e+12 -4.2198061e+09 -1.0308091e+11)
(-2.9628981e+12 1.7821679e+08 -1.0494369e+11)
(-2.9545498e+12 53041373 -1.0425054e+11)
(-2.9969946e+12 2.8036439e+09 -8.968023e+10)
(-3.004414e+12 -2.045335e+09 -9.0865472e+10)
(-2.9401391e+12 2.7507479e+09 -9.3436592e+10)
(-2.9962902e+12 5.6247302e+09 -6.898807e+10)
(-2.9457432e+12 -1.5571738e+09 -9.5178102e+10)
(-3.0056148e+12 -5.195262e+09 -7.0053584e+10)
(-3.5791422e+12 2.3925048e+10 -7.6285337e+10)
(-3.579941e+12 2.044667e+10 -8.126479e+10)
(-3.5318883e+12 1.7125013e+10 -1.3073594e+11)
(-3.5215231e+12 2.8060458e+10 -1.4073298e+11)
(-3.5702779e+12 1.2209104e+10 -1.5307875e+11)
(-3.5544293e+12 2.9045926e+10 -1.6737931e+11)
(-3.5976266e+12 1.8698976e+10 -1.285227e+11)
(-3.5904865e+12 2.4663322e+10 -1.3792047e+11)
(-3.9987573e+12 2.4622922e+10 -1.63196e+11)
(-3.8700095e+12 3.3288781e+10 -2.4468039e+11)
(-3.9803243e+12 3.706432e+10 -1.3407808e+11)
(-4.0084939e+12 2.2112232e+09 -1.6044288e+11)
(-4.1250078e+12 2.580911e+09 -6.5188623e+10)
(-4.1111683e+12 4.9899776e+10 -4.1505219e+10)
(-4.4631788e+12 7.5790591e+10 -2.6635633e+10)
(-4.4299628e+12 2.0914772e+10 -8.0686773e+10)
(-4.220307e+12 -2.74583e+09 2.4476983e+11)
(-4.1972116e+12 6.9162684e+10 2.5994959e+11)
(-4.0802154e+12 5.1024248e+10 4.6852721e+10)
(-4.0836566e+12 3.7540801e+09 2.0814008e+10)
(-4.5856135e+12 3.9346243e+09 1.713979e+11)
(-4.1287588e+12 3.6446887e+10 -8.224304e+10)
(-3.9959142e+12 2.3561245e+10 -1.8216859e+11)
(-4.0121492e+12 1.7708289e+10 -1.6948534e+11)
(-4.1265605e+12 1.4327726e+10 -7.7894772e+10)
(-4.4254815e+12 8.5512517e+09 -5.8218913e+10)
(-4.5500973e+12 7.7046999e+10 1.6576432e+11)
(-5.5720207e+12 4.7815744e+10 -7.125403e+10)
(-4.3780095e+12 5.9403047e+10 -1.0283802e+11)
(-3.7847266e+12 6.3934216e+10 -1.2376599e+10)
(-3.75825e+12 6.4927332e+10 -4.2194648e+10)
(-3.7720003e+12 8.1431041e+10 -5.0942414e+10)
(-3.782764e+12 9.8579763e+10 -1.1089467e+10)
(-3.394666e+12 6.9259249e+10 -8.0858178e+10)
(-3.4670329e+12 1.523138e+11 -7.5183061e+10)
(-3.6396858e+12 1.3488617e+11 -9.6842756e+10)
(-3.5799045e+12 1.740859e+11 1.0277922e+11)
(-3.7293103e+12 1.0297577e+11 5.0644852e+10)
(-3.5627643e+12 1.6691786e+11 -6.2747944e+10)
(-2.8797153e+12 -7.4718493e+08 -1.028552e+11)
(-2.7405623e+12 -2.7426016e+10 -1.1933603e+11)
(-4.0856646e+12 4.1494078e+10 1.4474117e+09)
(-4.0895363e+12 2.2494428e+10 7.674485e+09)
(-4.2229229e+12 6.2901236e+10 2.253541e+11)
(-4.2051736e+12 9.6396152e+09 2.2447954e+11)
(-3.5894149e+12 4.6755082e+10 -5.5012319e+10)
(-3.5243878e+12 3.5248795e+10 -1.2510051e+11)
(-3.535908e+12 3.6449854e+10 -1.100062e+11)
(-3.5823663e+12 3.0467728e+10 -6.7129079e+10)
(-3.5966603e+12 3.153266e+10 -1.2165324e+11)
(-3.6040157e+12 3.5834337e+10 -1.0875881e+11)
(-3.5708643e+12 2.6433474e+10 -1.3581787e+11)
(-3.5526951e+12 3.3568861e+10 -1.5441368e+11)
(-3.9999336e+12 4.0306753e+10 -1.5194891e+11)
(-3.5890884e+12 3.245486e+10 -7.0050103e+10)
(-3.5281183e+12 2.5614676e+10 -1.2782864e+11)
(-3.5304634e+12 2.5442405e+10 -1.274127e+11)
(-3.5792981e+12 1.9986333e+10 -7.1591719e+10)
(-3.59949e+12 2.0129476e+10 -1.2596585e+11)
(-3.602067e+12 2.560258e+10 -1.2495482e+11)
(-3.5605108e+12 1.8851603e+10 -1.568817e+11)
(-3.5587742e+12 2.5492213e+10 -1.5972617e+11)
(-4.0641904e+12 1.3928174e+10 -1.5032016e+11)
(-3.8774534e+12 3.8752518e+10 -2.2288937e+11)
(-3.9018322e+12 7.9708463e+09 -2.3294783e+11)
(-2.8802424e+12 -4.315127e+10 -3.7462661e+10)
(-2.5078269e+12 4.7271851e+10 -6.7883924e+10)
(-2.3909269e+12 -1.3851691e+10 -7.2761073e+10)
(-2.6438683e+12 -3.5818037e+10 -6.4759378e+10)
(-1.4130708e+12 -1.4790009e+11 -1.762649e+11)
(-1.5401281e+12 -9.8081743e+10 -9.875935e+10)
(-1.846284e+12 -6.730768e+10 -1.300583e+11)
(-1.9374028e+12 -5.2912002e+10 -1.9273904e+11)
(-3.6329644e+12 1.9742168e+10 1.373897e+11)
(-3.6426453e+12 6.8187547e+10 1.5254579e+11)
(-3.7726538e+12 8.1664504e+10 3.1945006e+11)
(-3.7726986e+12 1.5502785e+10 3.0707865e+11)
(-3.7907336e+12 5.8938769e+10 3.0507838e+11)
(-3.6299425e+12 1.5879074e+10 1.3099961e+11)
(-3.6409287e+12 4.8710606e+10 1.3063938e+11)
(-3.7670264e+12 7.7292798e+09 3.0076979e+11)
(-3.6764392e+12 4.3561427e+10 5.9710497e+10)
(-3.550236e+12 3.4832492e+10 -4.8386514e+10)
(-3.5402206e+12 2.0102377e+10 -5.0385178e+10)
(-3.6629649e+12 1.0367584e+10 5.7476631e+10)
(-3.6765838e+12 6.5614732e+10 7.8314504e+10)
(-3.5453542e+12 3.0261144e+10 -4.5760183e+10)
(-3.550369e+12 5.1536501e+10 -3.15626e+10)
(-3.668182e+12 2.2931818e+10 6.386677e+10)
(-3.2344422e+12 -1.2884939e+11 -4.9730329e+10)
(-2.6861183e+12 -1.8135163e+11 -3.568074e+10)
(-2.2194084e+12 -1.411209e+11 -8.8138801e+10)
(-3.1559917e+12 -9.3841678e+10 -5.2817527e+10)
(-2.6183454e+12 1.3880002e+10 -2.1028754e+11)
(-2.4843247e+12 -5.8836813e+10 -1.4092632e+11)
(-2.9903308e+12 -2.7956362e+10 -7.5637794e+10)
(-3.0515529e+12 8.1491167e+10 -1.1526793e+11)
(-3.1786635e+12 -7.0311102e+10 -4.5645563e+10)
(-3.2672748e+12 -8.0935819e+10 -5.3056598e+10)
(-3.3805881e+12 -3.8234014e+10 -4.3935211e+10)
(-3.3231768e+12 -4.9957095e+10 -3.3740944e+10)
(-3.1137484e+12 4.2370716e+10 3.1967454e+11)
(-3.105188e+12 -7.5661813e+09 3.2338074e+11)
(-3.105521e+12 5.2163751e+10 3.1190969e+11)
(-3.1088704e+12 1.1611884e+10 3.0400845e+11)
(-2.7285247e+12 2.3904066e+10 2.925632e+11)
(-2.7248112e+12 -1.6025749e+10 2.8395138e+11)
(-2.7261031e+12 -2.2795609e+10 2.7630733e+11)
(-2.7259234e+12 1.2856663e+10 2.7427884e+11)
(-3.121694e+12 4.9887219e+10 2.998942e+11)
(-3.1070965e+12 1.2580019e+10 3.0135643e+11)
(-3.1182046e+12 5.9618279e+10 3.1470981e+11)
(-3.1244934e+12 1.2779611e+10 3.0809038e+11)
(-3.1260913e+12 5.7999134e+10 3.0136432e+11)
(-3.1135315e+12 1.8030441e+10 3.06376e+11)
(-3.1304376e+12 6.3087907e+10 3.0246334e+11)
(-3.1309264e+12 2.4687616e+10 2.9313668e+11)
(-3.1295815e+12 6.0225221e+10 2.9858732e+11)