/*--------------------------------*- C++ -*----------------------------------*\
  =========                 |
  \\      /  F ield         | OpenFOAM: The Open Source CFD Toolbox
   \\    /   O peration     | Website:  https://openfoam.org
    \\  /    A nd           | Version:  7
     \\/     M anipulation  |
\*---------------------------------------------------------------------------*/
FoamFile
{
    version     2.0;
    format      ascii;
    class       volScalarField;
    location    "3000";
    object      omega;
}
// * * * * * * * * * * * * * * * * * * * * * * * * * * * * * * * * * * * * * //

dimensions      [0 0 -1 0 0 0 0];

internalField   nonuniform List<scalar> 
33899
(
318.14567
315.57551
409.686
316.30589
315.74596
280.83739
283.0764
305.04265
302.47145
410.31338
412.83395
944.49227
627.93825
766.05906
339.4336
759.23326
620.77444
275.79972
277.72936
343.27723
314.81921
316.26058
281.40433
282.45565
303.30786
302.87014
305.03985
270.97147
308.49141
273.46929
289.65035
244.99354
411.01393
411.00153
624.61068
763.02409
757.99685
619.16294
339.34913
615.49625
751.9014
773.49187
630.51092
342.29453
275.99516
277.40178
926.08171
948.81969
1962.9744
2120.3845
1935.614
2122.9285
1891.8337
524.09213
1170.8087
1190.0077
978.33728
947.57618
1421.4081
1458.2351
1663.1808
1643.0754
525.96408
411.4999
412.08373
1429.1014
1388.9103
1596.9889
1655.9345
1173.3256
1137.7872
954.4264
936.63015
349.07155
347.36055
513.30155
404.32132
407.3842
934.63296
240.8704
314.9602
314.12121
279.15326
281.97824
302.37737
303.27878
428.05706
303.52246
271.95496
307.26953
272.73991
289.19612
288.82908
361.32653
292.85934
262.45047
365.01417
296.65184
277.26507
240.42291
244.88135
275.86116
339.0826
341.58929
276.81896
617.58136
608.03304
612.18803
747.80863
769.57852
626.40125
1921.4688
951.66949
974.28719
1184.5485
1161.6547
523.08358
1446.1802
1402.6045
1652.2655
1618.3642
1373.2848
1580.5207
1413.8706
1637.2476
1126.398
929.48373
525.0789
947.36482
1163.5045
411.25916
410.20181
518.93541
1149.349
1141.0578
938.54998
936.86788
1395.9287
1396.1951
1603.6421
1614.4548
1484.3091
1413.7005
1619.1052
1708.4697
528.52032
1218.7438
1159.1376
952.51749
986.02008
412.76662
407.44844
348.01678
345.73567
1895.3526
1895.7275
2081.2746
1993.286
1906.6096
2064.892
2159.9161
3779.0345
3868.5294
3854.751
3734.392
4349.686
4295.1319
4261.8682
4348.7325
3731.8316
3846.9301
3863.6499
3729.1307
4290.603
4299.6029
4377.57
4397.9282
3659.6679
3603.4355
3729.3068
3795.9885
4173.8915
835.28696
616.02744
613.97368
826.4116
1946.0706
1940.9171
2208.9506
2225.7235
2025.0272
2073.436
2314.5869
2289.4308
1668.5652
1375.2886
1340.5058
1636.7983
1266.1385
1248.8429
1550.7825
1573.4245
2581.0175
2582.0955
2779.6729
2794.4028
2644.8457
2690.1008
2867.4896
2840.8336
3255.8724
3208.3216
3360.7545
3385.5026
3340.4198
3173.7231
3168.2639
3320.7439
809.13218
823.40396
605.89086
597.66745
484.3862
473.08669
2657.778
2565.6643
2750.8204
2861.2093
2516.1382
2479.1546
2729.2066
2668.7192
3050.312
3203.3756
3273.6648
3104.0348
3241.9478
3134.4571
3271.9823
3401.6671
2282.9406
1941.9108
2002.1203
2199.8023
1888.5076
1874.334
2125.4378
2164.1617
1278.793
1281.5573
1560.119
1608.6176
1230.7046
1249.0179
1512.3005
1521.9025
339.36943
336.32637
470.03286
802.56351
804.96446
594.10299
593.81036
1563.6756
1251.5464
1247.9791
1557.5355
1229.7762
241.03876
221.29119
220.86124
232.00617
232.5813
260.96812
251.36715
251.69973
260.82646
266.86295
279.38977
280.36095
302.40291
301.88121
426.60909
426.11106
301.45929
269.88258
306.81203
272.59953
289.18941
289.48075
387.08838
644.59669
642.21612
613.03649
373.39677
292.81335
263.28305
369.95134
294.77301
263.87181
276.52559
276.40125
424.92836
350.93496
278.67557
254.80676
427.3035
356.07008
2024.0975
330.50934
239.55027
331.87888
245.13815
276.13626
339.99565
614.47054
348.67584
516.10345
407.11857
407.53505
516.60178
517.01532
525.89695
411.11885
405.89261
345.06079
1180.3034
958.46407
934.55654
1150.5694
927.625
909.30863
1117.9421
1152.7721
1126.814
929.81875
928.12355
1137.0971
1381.3754
1376.5637
1587.9235
1387.8131
1457.9992
1681.9323
941.03515
974.27859
1141.2862
1201.4929
3690.6904
3606.2684
3828.3836
828.7282
1249.1163
1264.6244
1525.6749
1542.2339
833.37374
1302.7616
1356.7515
1636.6761
1604.9553
1981.5038
2018.4199
2268.6117
2258.639
2142.9497
1888.4361
1904.3123
2176.7222
615.01406
614.15087
2824.7911
2641.2606
2623.8142
2829.0943
2525.2098
2499.9868
2682.2515
2733.9239
3204.9092
3208.3852
3338.4689
3365.1609
3193.7344
3054.5458
3097.4394
3266.6038
2677.5342
2487.0177
2702.2355
2499.5901
3221.399
3070.0828
3073.7166
3236.1907
2589.1341
2527.7502
2713.3674
2795.6882
3160.7704
3085.6904
3221.7516
3319.4917
2120.4093
1868.7888
2142.435
1868.5046
805.10442
1497.1902
1209.533
1214.6115
1506.8094
821.12353
595.29969
603.98914
1541.0707
1263.4448
1257.0537
1569.6633
1946.4769
1912.2211
2164.6203
2229.2114
471.22034
482.93872
810.22352
815.83426
596.51147
598.74925
1910.1265
1879.1157
2131.1989
2186.2399
1894.7033
1906.5599
2152.9549
2166.9363
1535.9591
1260.7083
1233.227
1525.1189
1509.0799
1236.2149
1234.7008
1535.6435
2530.2523
2488.0711
2680.1374
2736.0558
2514.8136
2510.3065
2700.1809
2724.1097
3092.3858
3079.8215
3232.181
3262.836
3205.4335
3058.1667
3096.1799
3260.173
2803.5719
2674.1322
2846.4936
2999.8662
2592.6234
2523.9615
2706.1508
2798.6277
3214.1889
3079.8588
3166.1672
3316.3277
3333.9354
3222.2472
3372.6123
3501.9482
821.48953
844.86819
601.81134
614.70662
2145.713
2054.7108
2303.8271
2427.8971
1959.0848
1919.0506
2168.2426
2238.3273
1545.9153
1269.78
1260.6783
1575.1399
1654.0425
1347.9129
1367.0627
1725.7909
480.91526
470.26252
337.5862
333.15672
3746.8378
3624.0366
3641.9635
3787.7539
3630.8694
3597.0049
3716.4449
3774.0937
4187.4927
4153.2967
3862.3242
3707.2847
3961.565
3792.1161
3683.814
3592.8436
3805.6049
3697.0486
4115.1086
4209.0642
4300.6589
4253.1399
4201.7456
4353.6365
4426.8241
11526.894
12435.003
12401.458
11443.96
14193.955
13318.304
13336.149
14266.53
11596.391
12595.912
12475.982
11477.994
13440.595
13577.462
14557.513
14397.175
11218.439
10976.723
11946.39
12905.013
1136.3777
866.44837
1133.4435
864.96364
689.64976
668.56384
832.82763
823.76361
1059.6685
1080.4861
5067.3592
5086.4315
6365.6986
6319.2803
5182.2758
5365.1952
6587.6834
6425.4796
4025.4945
2108.2725
2013.4669
3836.7575
1912.625
1903.7071
3701.2108
3712.409
7425.0572
7498.8805
8558.2079
8463.258
7523.1135
7670.3182
8684.5886
8547.4398
9649.1493
9519.6305
10486.193
10599.477
10474.258
9574.4242
9464.4768
10590.5
1051.3895
803.61648
807.37507
1055.4122
1076.6064
817.34761
821.2475
1072.2804
665.36809
646.51221
466.68404
456.25393
7641.5262
7326.8338
8341.2748
8677.1789
7193.3049
7071.34
8233.1233
8073.8167
9037.8691
10010.851
10229.16
9228.9431
9651.6106
9310.027
10286.108
10619.612
6521.9426
5010.7753
5246.7989
6242.7645
4861.6376
4839.2601
6014.9164
6090.6539
1968.3496
1906.419
3679.0942
3871.1045
1835.2944
1847.2029
3572.008
3553.6993
491.81962
479.21912
475.46867
454.14387
652.23564
647.26404
814.14869
807.96625
1051.019
1064.979
1041.0422
795.72528
801.00296
1046.3424
5150.6412
6430.4275
3762.5392
1920.3706
1892.626
3701.2192
1849.7426
240.66998
231.30835
220.05385
221.55758
232.73902
261.12101
251.49852
251.84962
260.95132
221.75035
221.95363
232.71027
239.085
232.58694
240.16978
266.56737
267.44131
247.3029
302.47903
301.59941
425.10379
425.4634
298.95716
270.23776
304.65778
271.12945
289.02348
288.86469
385.94486
645.47736
633.89969
605.1059
619.35137
385.87414
640.5978
639.78734
610.19964
614.06215
367.33122
289.68374
261.5658
376.0093
294.23907
263.84119
276.78232
276.83304
340.61829
549.90957
589.74789
595.45456
553.93108
1681.9989
1695.2229
447.59939
362.63688
278.53089
254.89164
443.23479
358.90362
280.82959
255.43582
409.53886
344.13048
268.82278
414.84007
1988.7355
2019.7344
4930.9723
4756.6229
4951.2021
2022.9272
1994.2845
350.48245
357.68372
392.58418
389.07823
328.4954
330.17645
239.7671
352.12133
392.29968
391.61492
353.77037
245.77509
344.56729
507.19126
516.53725
400.1686
406.78825
900.27828
949.13641
913.3621
1115.4488
1180.4603
338.14298
479.558
468.48935
612.15369
822.09578
815.58156
610.29883
790.53372
808.1476
589.96008
599.2326
804.13402
809.12548
593.37326
595.72395
813.22288
837.024
597.31428
610.79018
478.88531
468.652
332.43975
2355.0894
2074.5908
2011.3396
2316.3708
1649.8755
1324.7331
1299.2801
1612.0409
1231.8936
1225.2341
1510.9726
1526.6282
2174.8903
1890.65
1894.8472
2193.0434
2605.5137
2561.0536
1227.0928
1217.3913
1506.1663
1544.2409
1188.2752
1194.0985
1471.3412
1477.2784
1838.475
1842.8104
2133.1548
2143.8192
2176.9506
1886.7858
1923.5752
2229.792
2132.8996
1880.5169
1860.2804
2141.8947
1509.5337
1218.9753
1212.9422
1499.8513
1204.2643
1208.366
1464.0498
1495.4778
2075.2189
1814.4695
1847.7302
2130.9625
2501.5842
2495.6906
2480.0063
2426.9115
2625.3066
2705.7327
3032.0647
3091.7292
3245.5813
2650.863
2459.5441
2519.4914
2726.8851
2718.5402
2598.6705
2779.5181
2915.5212
3274.2302
3154.7118
3280.7232
3421.1646
1498.4344
1216.5659
1229.8353
1527.4983
1333.8043
1313.9458
1596.8006
1671.2412
1885.2333
1854.3057
2106.246
2166.4873
2230.7791
1972.8115
2063.772
2347.3884
11325.528
11067.278
12258.943
1070.2503
823.53817
830.68055
1070.3562
1880.5017
1868.8858
3607.8143
3656.0105
1124.4204
861.59115
858.23108
1112.8541
1984.0525
2099.3027
3970.904
3809.9701
5154.7328
5273.5608
6499.3227
6429.2801
6102.792
4884.448
4955.0413
6165.1852
686.67922
667.21041
8654.3681
7610.5432
7570.9141
8631.6018
7242.986
7175.8194
8171.188
8251.4397
9631.4502
9630.2363
10577.488
10618.974
10047.678
9112.0391
9214.2936
10176.356
8185.4775
7143.7157
8126.4336
7114.0703
10180.368
9179.7868
9097.9556
10078.455
7456.437
7204.1933
8197.8261
8480.3
9442.1086
9152.5449
10113.366
10392.35
6053.3759
4836.0348
6046.242
4836.0309
801.44258
796.23471
1029.8372
1044.329
3538.6496
1818.8741
1814.4774
3538.4816
1066.3029
811.8295
817.10024
1063.3255
644.34477
665.55177
3645.948
1856.8779
1921.069
3770.5783
5096.6379
4943.6116
6138.9684
6340.8914
453.00911
463.90654
1057.6596
809.69607
815.89329
1060.8694
1046.5523
799.81396
808.66468
1052.7735
653.92822
652.04835
4929.3384
4849.1925
6048.6733
6137.3959
4866.0023
4933.3257
6105.4181
6087.8575
3662.6065
1876.2234
1841.9501
3566.2273
3549.863
1804.0522
1852.7472
3621.7022
7205.1604
7109.8344
8112.9554
8206.8859
7183.5967
7150.9715
8138.042
8220.6916
9214.1266
9084.5002
10029.738
10204.394
10060.477
9081.9524
9160.6239
10109.99
8106.0848
7517.0692
8502.0426
9137.3874
7326.0662
7120.9896
8108.3129
8350.2682
9983.623
9047.5621
9318.7528
10279.951
10358.407
9434.3432
10075.631
10974.964
1069.8372
815.63977
819.63343
1073.0299
1121.27
846.86206
862.97564
1130.3461
660.61057
697.73111
5655.7915
5240.6111
6458.6498
6960.0168
4996.0416
4895.3114
6072.203
6231.5289
3623.5308
1862.7928
1884.0596
3665.8056
3891.8086
2023.517
2157.7549
4230.6915
460.02647
451.27873
488.49709
476.68861
473.94441
486.16951
11902.828
10965.084
11182.7
12164.999
11045.847
11033.473
12014.854
11986.575
12920.927
12990.2
11831.076
11264.135
12670.605
12164.248
11218.08
10904.981
12151.577
11827.365
12735.837
13069.689
13989.693
13925.886
13046.314
13490.679
14312.959
17420.669
17759.948
17663.299
17512.612
18143.03
18435.936
18559.155
18403.926
18605.282
18899.924
18823.731
18632.177
17871.938
17993.725
17726.176
17713.015
19672.971
19960.093
20423.07
20240.783
18939.083
19155.772
19470.759
19346.133
19726.702
19749.398
19507.593
19556.564
20396.079
20647.332
20643.026
20441.763
18656.059
18198.237
17934.168
18463.859
18883.969
19107.587
19654.348
19455.21
19117.855
19432.194
19136.338
18889.314
18234.074
18488.681
18189.431
18023.523
19967.396
20306.222
20035.885
19772.021
19872.957
20047.636
20660.825
20493.947
20840.41
21056.105
21713.777
21494.744
20946.444
21227.944
20855.948
20642.469
18257.656
17819.974
17565.992
18020.816
17616.252
17238.605
17021.399
17453.585
17964.844
18152.748
18575.244
18412.549
18958.591
19097.51
19559.192
19438.569
1433.1543
920.75788
1424.3113
926.20007
708.82155
690.11183
882.36545
895.82386
1336.434
1353.0222
12649.363
12445.382
12545.87
12755.135
12644.995
12540.401
12568.091
12798.523
13975.818
13876.769
13610.305
13854.649
13849.299
13819.173
13598.411
13666.161
12562.385
12603.476
12630.395
12689.106
12657.164
13194.352
13019.322
12664.439
13667.258
14194.552
13831.564
13454.575
13775.477
13838.946
13581.705
13603.06
11119.765
11815.814
11752.282
11403.431
4470.7326
6810.2076
4339.4601
6554.7939
6281.3889
4049.4521
6210.5363
4105.9263
11127.807
10833.865
10762.565
11188.295
3847.8343
5964.0864
6232.7303
3961.735
3834.7347
5980.5829
6064.5843
3865.9524
10985.055
10575.229
10531.505
11097.466
10903.917
10495.098
10815.774
11266.718
14661.393
14728.557
14421.179
14424.668
14900.585
14708.76
14389.525
14689.421
15194.186
15483.447
15751.192
15548.529
15268.425
15546.41
15443.747
15238.879
14573.807
14660.402
14328.516
14335.649
14522.037
14901.642
14370.164
14145.62
15222.878
15574.581
15084.924
14900.037
15078.484
15391.873
15310.07
15082.223
15995.499
16295.603
15897.722
15766.954
16104.61
16181.962
15928.219
15928.478
16838.615
17064.66
16976.052
16792.259
16738.857
17049.382
16787.243
16632.205
17246.975
17495.849
17295.403
17098.954
16113.235
16337.533
16677.206
16515.075
16327.725
16461.997
16243.739
16173.816
17031.889
17271.111
17671.61
17471.915
1313.5077
859.53378
865.3238
1317.9054
1348.5875
872.44742
885.92449
1352.0065
682.72229
662.59014
758.95172
724.2158
697.50876
721.01403
15078.616
15074.754
14688.208
14771.703
14591.087
14139.251
13856.643
14361.776
14668.36
14919.059
15382.675
15185.562
15445.04
15797.696
15762.555
15485.34
14563.78
14043.724
13812.871
14358.109
13507.47
13774.238
14074.411
13868.203
14700.869
14924.788
15422.514
15216.246
14322.283
14573.586
14873.817
14687.677
15223.413
15417.034
15747.371
15608.389
16120.892
16330.333
16693.386
16514.514
16640.976
16865.58
17317.764
17099.559
16330.847
15856.333
15674.896
16168.714
16522.659
16583.526
16294.725
16310.357
15601.182
15785.913
16277.366
16132.041
16524.865
16739.61
17256.664
17067.895
17161.148
17447.936
17363.939
17130.441
14345.011
14243.885
13936.705
14094.009
12162.09
12076.574
12485.925
12681.807
12977.324
12941.52
13177.493
13244.597
13798.97
13334.463
13091.495
13623.832
12255.91
11749.735
11880.006
12475.3
11814.598
11801.501
12036.169
12182.244
13259.232
12944.961
12716.738
13107.741
13634.88
13090.189
12938.945
13519.83
6586.5767
4035.9291
6446.5405
4159.1778
3744.1568
3900.1697
5803.9308
6082.6152
10631.17
10228.529
10509.119
11072.248
11307.693
11514.629
11804.135
11333.491
3636.9286
5607.6908
5880.6473
3710.1896
3764.8268
5791.1785
5837.8364
3728.028
10449.063
10184.354
10180.274
10675.375
10299.676
10307.906
9896.1516
10833.989
571.5955
568.07939
630.43476
629.8396
552.30029
561.25966
619.84558
612.56456
548.57951
550.9856
610.40858
609.18427
711.24845
701.17829
674.4846
666.28276
869.24172
880.19857
855.96487
868.01805
1331.9652
1344.0234
1312.7542
1323.0459
12591.677
12803.125
12840.656
12805.589
14002.144
14077.579
13819.841
13928.995
11007.746
11295.715
11182.546
10652.861
6154.8872
3994.2265
6233.3275
3916.8217
6104.0792
3800.4893
5899.7086
3834.6505
10417.473
10842.419
11294.458
10690.752
3682.1617
3771.8524
5746.6803
5947.8976
10185.97
240.87917
221.00961
220.6509
231.76266
232.20128
251.42299
250.95543
260.55459
260.41491
231.19517
238.4043
221.04294
222.38091
233.54913
240.60213
300.13298
266.63145
267.65539
300.87154
247.9551
246.53958
260.6501
244.27191
247.47607
244.09914
261.19644
248.15523
256.17981
302.50064
422.65331
269.74246
271.66494
289.37697
288.95855
385.09282
641.91899
632.85224
604.11409
616.44756
385.1889
643.14387
633.43236
604.96905
617.85887
360.73036
289.2606
261.97745
369.66165
293.31583
262.58965
276.62818
276.44987
339.91736
584.39556
546.82836
552.52094
596.68762
1692.5798
1669.1938
339.70316
548.07077
588.0782
592.66473
551.50349
1673.2262
1691.1481
443.72404
357.48194
276.12766
253.75019
453.25782
361.03991
280.82495
255.6431
425.29782
481.18564
475.47054
429.06821
426.2967
990.49014
1322.5179
1312.7287
980.27696
4126.3301
4139.5363
4183.3889
4178.5702
4413.8742
4369.1248
427.05702
348.94022
266.19993
425.88297
350.14844
269.50288
429.80967
320.35366
4795.8582
4631.1416
4797.7653
4931.331
4835.3694
4735.8758
4894.5814
4972.5574
10090.772
9637.6947
9633.5698
10143.771
9454.6794
10210.025
10168.957
10068.983
9577.9926
10146.189
1980.6611
2004.7855
4792.5779
4966.4581
4930.8247
4808.6717
4859.1648
4694.9088
4783.9169
4917.864
2003.5645
1997.0444
377.26831
384.18655
495.11051
388.00374
349.08437
355.75024
392.4352
327.52414
350.79755
352.69763
390.2874
390.60166
240.30637
329.62076
376.51299
498.08378
499.53158
383.1772
331.44931
462.44189
474.46733
790.04844
586.96344
795.07743
819.83428
590.71757
604.43338
1174.4409
1159.237
1415.8452
1451.8771
1294.1394
1257.3859
1551.4898
1631.8354
1188.7992
1185.7791
1445.8409
1473.8667
2062.3875
1791.1385
1824.6318
2116.8053
2214.7863
1932.1
2029.2684
2334.6107
484.75626
473.31018
461.77294
450.6551
673.51173
656.03881
632.5959
655.32623
847.18934
1103.6082
1104.5521
844.42842
815.75361
808.10016
1045.5687
1057.0079
1017.1222
782.30137
785.88961
1024.7002
1037.0647
794.4925
802.13621
1042.5364
805.7626
798.66727
1033.8892
1046.8688
1030.8564
789.60715
798.53955
1032.6999
644.94688
645.06461
808.9326
803.69414
1041.1565
1054.5017
1102.7912
836.61351
853.43859
1111.5017
653.27241
692.91583
456.47743
447.72151
470.51655
482.97169
6754.7126
5436.7255
5234.3396
6553.4292
4033.9571
2097.0576
1993.1242
3852.3065
1858.9365
1858.3134
3603.7388
3606.0704
6189.2714
4924.2585
4913.6031
6157.4229
7091.9815
7395.4265
7354.2988
1867.1334
1816.3385
3573.4229
3680.1456
1778.0455
1790.1166
3497.9983
3453.1686
4727.229
4787.3507
6032.328
5953.9472
6191.1357
4910.5371
5003.593
6251.5141
6058.8027
4851.0356
4794.2886
6017.0381
3574.7396
1849.4872
1801.2296
3506.7449
1795.8596
1753.5742
3453.8203
3507.0592
5891.0773
4704.4098
4770.7104
5976.4524
7155.8414
7125.2269
7078.5184
6961.379
7988.9651
8127.7535
8992.3215
9091.8145
10052.059
8011.473
6978.6055
7092.2255
8120.9307
7825.6164
7436.9501
8472.7835
8849.7937
10336.876
9423.4709
9785.6207
10681.033
3489.7166
1812.7618
1829.5271
3539.3024
2092.6683
1948.2905
3753.5826
4082.3751
4798.4118
4724.284
5895.0877
6000.9178
6319.6436
5065.3493
5438.4214
6698.4099
18173.943
17905.916
17635.914
17939.971
17793.984
17512.076
17272.231
17643.856
18790.747
19035.938
1334.1945
877.3997
889.42272
1334.8139
3785.9593
3909.7851
6117.338
5840.0155
3785.9104
5858.0983
3786.421
5816.6705
10611.843
10294.207
10147.988
10570.238
10309.769
10619.015
10718.658
11135.248
1421.2001
918.54442
920.35877
1400.0134
4047.701
6257.5616
4055.6673
6272.5381
4445.7265
6756.8668
6630.742
4365.0687
11621.724
11576.384
11191.279
11442.487
10861.218
11217.841
10928.823
11258.525
12629.125
12667.416
12747.721
12814.633
12843.38
12941.544
12665.883
12714.095
13801.798
14031.732
13691.319
13647.185
13982.129
14035.742
13829.995
13822.968
13114.076
13380.378
13093.456
13000.268
12149.301
12041.325
11851.922
12032.535
12471.052
12029.65
12124.673
12574.156
13650.205
13326.761
13118.299
13445.655
704.7978
686.85422
15049.373
15459.709
15493.74
15269.502
14405.139
14779.863
14676.974
14468.245
14851.467
15009.678
14711.745
14601.367
15569.704
15870.206
15597.148
15339.386
14428.384
14205.723
13925.044
14190.137
13974.666
14151.952
13804.69
13779.568
14509.304
14826.94
14734.404
14536.021
14727.209
14996.914
15193.102
14980.03
16369.844
16753.689
16486.841
16177.317
15757.592
16103.596
16319.975
16124.55
16438.232
16745.03
17160.26
16933.514
17430.488
17688.784
17242.099
17057.554
16131.378
16416.971
16425.378
16266.77
15328.882
15567.117
15537.113
15391.318
16049.194
15847.939
15641.9
15897.405
16587.901
16795.531
16998.686
16814.75
14597.401
14866.467
15166.818
14957.33
13759.69
14021.565
14326.07
14126.73
14540.219
14798.8
14975.924
14778.39
14127.454
14000.486
13716.76
13958.521
16430.669
16696.871
17000.842
16798.258
15546.088
15741.673
16048.964
15893.445
15838.057
15697.676
15501.423
15670.873
16451.876
16659.012
16725.09
16534.525
14962.334
14628.901
14304.761
14688.307
14240.092
13981.116
13706.716
14031.334
14523.025
14763.213
15015.065
14825.13
15066.994
15389.842
15711.026
15428.164
16483.129
16178.324
15907.627
16252.705
15449.882
15639.505
15871.503
15737.368
16362.181
16584.132
16826.91
16669.851
16765.389
17032.734
17329.302
17083.925
13416.278
13111.238
12897.6
13287.263
11917.517
11845.516
12056.375
12261.831
13207.472
13223.865
12950.527
13103.888
11921.546
12008.299
12064.615
12109.919
857.51965
850.78323
1287.3433
1299.1645
10174.297
10229.526
10465.927
10672.071
5809.2288
3720.5488
5771.7524
3686.8312
5797.7085
3614.3071
5628.0463
3681.2362
10528.367
10090.117
10125.315
10610.614
1326.6575
864.3891
877.09582
1329.2663
656.88269
678.76319
10354.7
10650.777
10258.12
10863.928
3751.2638
3674.4558
5738.6037
5923.1519
6650.286
3859.5989
6014.0832
4140.9666
10927.374
10570.691
11477.133
11701.605
12928.618
12368.484
12481.055
12977.234
12086.985
12041.646
12191.775
12363.473
13441.553
13218.778
12959.694
13291.232
14099.883
13732.209
13519.804
13924.119
689.91094
715.98187
749.99689
718.38692
1320.8022
863.87949
873.17262
1321.1519
1297.6835
850.5983
867.07209
1310.0962
668.10823
661.46456
12530.274
11911.839
11998.751
12651.964
11881.385
11783.166
12055.39
12230.974
13309.209
13048.433
12824.762
13161.828
13755.284
13164.617
12961.862
13586.915
12082.539
11891.95
12019.135
12296.969
11918.68
11956.397
12156.244
12248.247
13283.922
13049.622
12804.563
13086.259
13436.478
13241.733
13090.37
13352.028
10664
10502.88
10425.035
10835.661
3815.3675
3889.3687
5986.7727
5953.2511
5859.6348
3675.9435
5702.4575
3731.5389
10449.902
10078.678
10231.125
10717.313
10351.326
9946.0694
10132.303
10682.52
3564.0988
5558.3158
5751.2255
3618.4573
6111.0358
3705.4288
5726.7015
3847.2108
10503.97
10097.45
10691.416
11169.788
14601.415
14016.318
13743.945
14359.01
14130.234
13873.823
13615.959
13942.523
14444.501
14675.499
14946.065
14782.628
14523.372
14794.6
15380.031
15133.884
14394.86
14211.396
13973.69
14222.508
13586.629
13860.873
14009.252
13776.19
14364.185
14631.294
14717.484
14516.309
14835.036
15088.749
15273.532
15083.252
16181.585
15981.519
15759.403
16020.956
15210.952
15435.186
15517.013
15374.823
16043.266
16283.269
16411.031
16257.46
16690.439
16923.796
17141.277
16944.16
16327.531
16569.128
16872.612
16709.305
15403.686
15571.743
15863.854
15745.984
16199.986
15618.245
15402.436
15987.563
16294.804
16520.58
17063.365
16811.286
16173.437
15591.901
15144.534
15772.046
14531.658
14162.574
13814.64
14304.801
14509.32
14793.844
15277.66
15078.524
15778.107
16206.133
16791.083
16390.532
14703.004
14152.428
13871.914
14483.625
13445.764
13728.821
14138.745
13927.279
14196.256
14471.574
14908.235
14704.361
14666.513
14930.811
15524.218
15292.135
15812.587
16088
16628.211
16420.769
15031.523
15247.595
15734.838
15576.686
16359.947
15767.757
15554.786
16152.596
16436.974
16668.428
17218.359
16956.442
16111.761
16386.751
17012.546
16801.767
15339.764
15550.32
16111.081
15959.136
17407.652
16837.043
16480.497
17049.754
17182.369
17534.958
18040.811
17655.06
1332.0997
871.82312
878.85534
1338.521
1407.0717
903.14448
926.21811
1425.3032
670.91067
703.28856
13595.948
13675.517
14282.926
14238.065
12507.572
12548.763
12700.949
12795.556
13825.124
13587.84
13227.136
13624.482
15405.027
14836.918
14488.472
15121.967
12498.542
12011.688
12128.388
12685.439
11824.54
11817.803
12111.742
12257.94
13336.299
12945.452
12709.526
13185.47
13816.602
13311.748
13107.856
13684.124
10499.634
10223.005
10304.734
10785.149
3740.5835
5793.1328
5923.015
3764.1865
3736.7386
5770.3142
6105.9394
3846.0326
10603.483
10572.664
10128.068
11123.84
11140.804
10745.89
10948.387
11414.652
3947.2008
4155.9326
6125.4581
6461.9421
4444.8194
7072.5542
7515.36
4678.2404
12779.894
12221.8
12296.471
12966.448
710.40795
759.45231
697.27207
704.26942
569.12379
565.55893
626.663
626.51524
559.67819
549.88497
608.78485
616.61426
548.10127
552.00941
609.73124
607.34036
554.74334
567.72182
627.83948
615.94832
17742.157
17981.021
18270.096
18138.591
16899.217
17112.209
17313.414
17182.12
18079.712
17859.612
17647.986
17907.527
18654.518
18852.061
19066.317
18890.295
17895.699
17425.281
17227.979
17676.455
17850.16
17485.053
17285.797
17701.578
18284.921
18469.171
18870.645
18713.778
18210.941
18395.571
18777.626
18561.21
19676.785
19401.485
19242.671
19496.089
19328.098
19484.364
19913.51
19780.127
18623.283
18211.094
17904.185
18276.954
17858.312
17149.374
16910.209
17661.128
18671.322
18962.793
19250.74
18933.327
17746.005
17948.33
18732.709
18534.054
18016.122
17544.943
17331.363
17780.123
17480.857
16865.567
16647.222
17294.626
18265.92
18467.201
18849.749
18619.789
17514.101
17711.26
18371.726
18184.831
18424.431
18586.833
19287.701
19132.754
19706.954
19419.942
19244.615
19519.182
20210.837
20422.221
20620.565
20401.075
19451.285
19692.314
20585.217
20371.844
18630.68
18793.674
19633.446
19469.497
19919.146
19746.25
19507.933
19664.328
20333.024
20609.94
20662.179
20393.132
72495.849
70774.342
69180.846
71268.128
75770.195
74252.387
73431.491
75333.733
76622.802
74723.102
74647.852
76609.515
70216.973
70437.01
72535.179
72388.38
81802.258
80492.989
81457.147
83163.534
78931.195
77432.315
77502.736
79371.294
78766.252
78706.971
80513.683
80610.062
84206.505
82495.152
82644.785
84382.46
72291.779
71390.564
73514.593
74594.504
77784.699
75731.912
77031.387
79166.676
78916.149
76845.11
75779.997
77692.081
71326.038
72238.006
74451.976
73474.435
79809.929
81104.027
82972.516
81616.04
81869.487
79895.635
81526.424
83568.698
85755.818
83915.758
85773.844
87658.748
86816.24
85030.587
83649.736
85357.235
71620.849
69940.895
72034.731
73800.011
69303.818
68445.221
70508.454
71473.383
74747.916
72716.143
73792.619
75810.191
78917.724
76920.798
78108.44
80088.622
3259.0477
2246.331
3242.0177
2232.0203
1343.8629
2117.6932
2995.0709
3080.5385
2160.8244
1304.085
1192.875
1156.0917
1086.6656
1132.6744
1262.0988
1230.5641
2003.0956
2819.9161
2901.9047
2026.1747
2000.1165
2841.7713
2938.2902
2058.5928
40913.772
40562.156
43887.293
43950.102
44234.962
40912.522
40492.742
43846.241
46854.936
47115.777
49653.622
49487.555
46704.66
46891.408
49552.691
49160.152
40514.433
40735.404
43791.825
43581.124
40431.417
42086.491
44792.595
43183.945
45739.079
47445.829
49930.982
48038.402
46370.906
46579.14
49094.459
48850.861
22528.118
38704.383
23836.494
36894.146
9666.963
16383.745
9062.7574
15348.868
14999.96
8772.7216
15060.554
8689.1406
36912.817
22160.106
22056.837
36615.243
8525.4275
14752.617
15231.016
8778.4475
8503.6821
14755.485
14610.164
8438.3915
36788.257
21798.779
21529.483
36290.415
36457.318
21700.042
22266.516
37002.591
51644.718
52154.396
54509.544
53916.58
52087.328
52160.593
54441.409
54459.041
59183.46
56846.734
56989.603
59385.476
59354.84
56981.396
56399.882
58751.077
51329.309
51591.975
53872.386
53583.338
54891.925
52498.49
50395.585
52568.671
59753.642
57344.864
54917.356
57191.036
58561.937
56256.248
55983.217
58252.11
64560.869
62230.747
59680.447
62106.648
60736.116
60992.196
63390.29
63116.663
68143.639
65807.204
65573.585
67866.518
68818.566
66815.956
64578.117
66879.521
69654.395
67197.299
66538.552
68844.659
64209.561
61699.439
62050.065
64576.365
61379.974
61958.493
64496.7
63848.235
69063.026
66710.115
67245.875
69698.576
1972.444
2780.9489
1989.7006
2828.719
1204.5589
1201.1699
2697.0735
1970.1251
1911.8042
2780.558
2890.1442
1955.0647
2765.3385
1988.8336
1205.5007
1271.0904
3021.998
1998.7827
2083.1618
2884.3689
1141.7281
1081.5151
1059.2043
1076.5985
952.71935
953.25114
1096.9143
1098.6839
916.51894
901.92916
1039.6464
1054.6808
881.51974
871.14959
1003.2534
1017.5664
884.57262
903.84247
1024.5272
1047.8337
52659.336
53129.572
55423.352
54884.36
51617.737
50753.924
53029.183
53830.711
57720.673
55442.341
56234.347
58522.256
60132.178
57857.944
57268.287
59496.085
51567.163
50272.841
52668.809
53973.034
51946.95
49701.855
50109.905
52352.88
57544.391
55179.863
56537.071
58932.924
56671.693
54451.888
54770.827
57050.097
61507.132
59125.341
59600.99
62011.673
66210.876
63928.957
64560.559
66863.54
67504.976
65199.509
66801.699
69122.192
61586.944
60127.153
62597.024
64082.939
61944.769
62624.966
64980.1
64281.552
62696.552
60247.287
61103.435
63546.474
67569.367
65205.558
66156.159
68492.644
69690.206
67416.946
66725.82
68981.295
47776.539
47946.485
50537.623
50201.155
42898.759
39676.87
40493.644
43831.807
45077.996
42086.179
42068.258
45066.557
46746.927
45752.932
48276.552
49226.129
39993.733
38816.114
42075.479
43293.495
42084.386
39133.748
39281.102
42413.246
45212.261
44767.697
47224.584
47672.859
46273.508
45021.981
47672.829
48931.886
15924.646
9050.8104
16013.637
9165.9727
8345.0315
8364.8946
14392.362
14485.418
35723.79
21281.264
21530.524
36292.836
23536.928
38558.281
38268.177
23199.325
8054.8391
13944.008
14482.238
8335.0956
8443.4404
14489.703
14184.96
8226.9666
35474.614
21352.641
21027.369
35300.577
21408.335
34862.348
20712.872
35909.279
676.69061
668.758
909.05607
908.29841
655.73541
665.19608
891.04651
882.75094
650.62923
657.88561
883.34761
880.75527
897.18406
887.38199
1021.6729
1032.8783
879.98714
868.5441
999.27265
1016.3392
1086.8104
1104.0909
1225.4459
1237.3377
1098.8944
1042.7974
1179.2421
1230.0342
2038.8869
2906.3667
2046.8647
2942.3532
2796.162
1969.4516
2017.4945
2859.5679
2810.9758
1918.9658
2714.9099
1952.8291
2895.3731
1948.0595
2006.9802
2796.6041
40361.572
41594.685
44753.949
43654.759
46749.193
47649.452
50244.838
49595.231
22663.187
37711.992
36421.752
21845.671
14947.056
8931.0505
15471.459
8646.923
14981.119
8386.0108
14572.494
8582.7352
21519.857
36359.076
37061.119
22016.726
8275.8672
8343.3807
14390.01
14452.027
21258.494
241.38013
232.22097
221.07086
221.50128
232.73469
251.40672
251.13492
260.63035
260.32209
222.10842
221.29233
231.6804
238.82662
233.16346
239.73594
267.12211
266.22815
299.46921
300.07223
242.35055
259.89941