/*--------------------------------*- C++ -*----------------------------------*\
  =========                 |
  \\      /  F ield         | OpenFOAM: The Open Source CFD Toolbox
   \\    /   O peration     | Website:  https://openfoam.org
    \\  /    A nd           | Version:  7
     \\/     M anipulation  |
\*---------------------------------------------------------------------------*/
FoamFile
{
    version     2.0;
    format      ascii;
    class       volScalarField;
    location    "3000";
    object      pMean;
}
// * * * * * * * * * * * * * * * * * * * * * * * * * * * * * * * * * * * * * //

dimensions      [0 2 -2 0 0 0 0];

internalField   nonuniform List<scalar> 
33899
(
-2.2075454e+37
-2.215308e+37
-2.0522236e+37
-2.2270387e+37
-2.2362473e+37
-2.1963189e+37
-2.1893541e+37
-2.1550432e+37
-2.1619233e+37
-2.0632321e+37
-2.0565007e+37
-2.1203248e+37
-2.0585494e+37
-2.0924868e+37
-1.9964609e+37
-2.0906085e+37
-2.0564082e+37
-1.9485766e+37
-1.9430446e+37
-1.9863441e+37
-2.2531481e+37
-2.2442325e+37
-2.2180809e+37
-2.2088523e+37
-2.173032e+37
-2.1820923e+37
-2.190413e+37
-2.1495539e+37
-2.1839407e+37
-2.1429639e+37
-2.1032852e+37
-1.8483496e+37
-2.0729098e+37
-2.0679677e+37
-2.0698853e+37
-2.1032846e+37
-2.1015018e+37
-2.0667008e+37
-2.0069402e+37
-2.0640718e+37
-2.0984125e+37
-2.0955724e+37
-2.0620549e+37
-2.0011405e+37
-1.9583255e+37
-1.9549329e+37
-2.1256509e+37
-2.1223537e+37
-2.1235707e+37
-2.1400566e+37
-2.1224097e+37
-2.1386481e+37
-2.1207031e+37
-2.0357146e+37
-2.0802378e+37
-2.0797158e+37
-2.0656371e+37
-2.0621222e+37
-2.0909943e+37
-2.0902884e+37
-2.1042263e+37
-2.103752e+37
-2.0336303e+37
-2.0019362e+37
-1.9962855e+37
-2.0870695e+37
-2.0890134e+37
-2.1018305e+37
-2.0997368e+37
-2.0757628e+37
-2.077866e+37
-2.0599511e+37
-2.0615314e+37
-1.8979137e+37
-1.8932567e+37
-2.0271701e+37
-1.9894684e+37
-1.9889582e+37
-2.0602456e+37
-1.8685558e+37
-2.2606613e+37
-2.2688495e+37
-2.2348271e+37
-2.226554e+37
-2.1991256e+37
-2.1910032e+37
-2.2144077e+37
-2.2124542e+37
-2.1696884e+37
-2.2033494e+37
-2.1602446e+37
-2.1110207e+37
-2.1199287e+37
-2.1902416e+37
-2.148182e+37
-2.0933476e+37
-2.1835653e+37
-2.1420223e+37
-2.0397625e+37
-1.8327541e+37
-1.8567644e+37
-1.9637924e+37
-2.01316e+37
-2.0115827e+37
-1.9630616e+37
-2.0829222e+37
-2.0783022e+37
-2.0759763e+37
-2.1088682e+37
-2.1062132e+37
-2.0726988e+37
-2.1308001e+37
-2.072713e+37
-2.0750296e+37
-2.0906866e+37
-2.0899636e+37
-2.0472389e+37
-2.1009422e+37
-2.1007584e+37
-2.1149768e+37
-2.1142808e+37
-2.1000664e+37
-2.1128642e+37
-2.0971753e+37
-2.1105306e+37
-2.0889507e+37
-2.0721772e+37
-2.04464e+37
-2.0702158e+37
-2.0862133e+37
-2.0082566e+37
-2.0126088e+37
-2.0415787e+37
-2.0848534e+37
-2.0852314e+37
-2.0701497e+37
-2.0689785e+37
-2.0951941e+37
-2.0956592e+37
-2.1094341e+37
-2.1087097e+37
-2.0923623e+37
-2.0943252e+37
-2.1070414e+37
-2.1052299e+37
-2.0379146e+37
-2.08162e+37
-2.0841624e+37
-2.0689007e+37
-2.0673668e+37
-2.0047168e+37
-2.0046011e+37
-1.9078773e+37
-1.9036327e+37
-2.1287607e+37
-2.1273473e+37
-2.1444061e+37
-2.1240378e+37
-2.1252638e+37
-2.1425845e+37
-2.1411699e+37
-2.1305001e+37
-2.1365036e+37
-2.1354382e+37
-2.1297135e+37
-2.153316e+37
-2.1473275e+37
-2.1465355e+37
-2.1525741e+37
-2.1285737e+37
-2.1345643e+37
-2.1337261e+37
-2.1279554e+37
-2.1445123e+37
-2.1452261e+37
-2.1512129e+37
-2.1506118e+37
-2.1259751e+37
-2.126997e+37
-2.1327744e+37
-2.131798e+37
-2.1433981e+37
-2.0565798e+37
-2.062199e+37
-2.0563076e+37
-2.0541253e+37
-2.0799208e+37
-2.0807559e+37
-2.0859744e+37
-2.0849765e+37
-2.080834e+37
-2.0810016e+37
-2.0866683e+37
-2.0866371e+37
-2.0764118e+37
-2.0734475e+37
-2.0731837e+37
-2.0770254e+37
-2.071322e+37
-2.0728178e+37
-2.0784012e+37
-2.077009e+37
-2.0960605e+37
-2.0967815e+37
-2.1033277e+37
-2.1025464e+37
-2.0981222e+37
-2.0982533e+37
-2.1044978e+37
-2.1042255e+37
-2.1137043e+37
-2.1132286e+37
-2.1189593e+37
-2.1196852e+37
-2.1170124e+37
-2.1119007e+37
-2.1112279e+37
-2.1177889e+37
-2.0533943e+37
-2.0506437e+37
-2.0539548e+37
-2.0535668e+37
-1.992397e+37
-1.9855571e+37
-2.0929264e+37
-2.0946186e+37
-2.1001457e+37
-2.0990475e+37
-2.0951867e+37
-2.0959207e+37
-2.1008355e+37
-2.1017774e+37
-2.1106536e+37
-2.1161227e+37
-2.1149086e+37
-2.1097881e+37
-2.1079506e+37
-2.1090217e+37
-2.1141729e+37
-2.1134449e+37
-2.0814117e+37
-2.0784242e+37
-2.0776538e+37
-2.0832507e+37
-2.0796427e+37
-2.0787427e+37
-2.0843098e+37
-2.0840964e+37
-2.0677927e+37
-2.0693603e+37
-2.0743751e+37
-2.0733377e+37
-2.0690766e+37
-2.0703582e+37
-2.0748346e+37
-2.0757312e+37
-1.8774065e+37
-1.8737714e+37
-1.9809689e+37
-2.0495568e+37
-2.0481382e+37
-2.0453763e+37
-2.0507593e+37
-2.0746274e+37
-2.0692353e+37
-2.069192e+37
-2.0750503e+37
-2.0686527e+37
-1.8767429e+37
-1.8881539e+37
-1.8925467e+37
-1.8986876e+37
-1.8944338e+37
-1.9200617e+37
-1.8953313e+37
-1.8895713e+37
-1.914358e+37
-1.9598108e+37
-2.2502654e+37
-2.2427078e+37
-2.2064295e+37
-2.2133225e+37
-2.2221558e+37
-2.2293849e+37
-2.2287159e+37
-2.1855941e+37
-2.2214553e+37
-2.1775714e+37
-2.1345752e+37
-2.1272546e+37
-2.1367462e+37
-2.2206348e+37
-2.2226239e+37
-2.2673687e+37
-2.211821e+37
-2.1684874e+37
-2.1083955e+37
-2.203066e+37
-2.1589898e+37
-2.0993031e+37
-2.0447917e+37
-2.0528689e+37
-2.190233e+37
-2.1479249e+37
-2.0948464e+37
-2.0233681e+37
-2.1835207e+37
-2.141957e+37
-2.3066149e+37
-1.8842896e+37
-1.8407099e+37
-1.8891252e+37
-1.8635615e+37
-1.9677479e+37
-2.0169454e+37
-2.0833698e+37
-1.9151331e+37
-2.0569532e+37
-2.0184748e+37
-2.0145291e+37
-2.053849e+37
-2.0534011e+37
-2.0490744e+37
-2.0149173e+37
-2.0139964e+37
-1.9126245e+37
-2.1036959e+37
-2.0886108e+37
-2.0865746e+37
-2.1028179e+37
-2.0834126e+37
-2.0858987e+37
-2.1021336e+37
-2.1001188e+37
-2.0965932e+37
-2.0817256e+37
-2.0793907e+37
-2.0959729e+37
-2.1063834e+37
-2.1060983e+37
-2.1179156e+37
-2.1051931e+37
-2.1029299e+37
-2.1161276e+37
-2.0787437e+37
-2.0769802e+37
-2.0951524e+37
-2.0926777e+37
-2.1364235e+37
-2.1366175e+37
-2.1424327e+37
-2.0662014e+37
-2.0800803e+37
-2.0815509e+37
-2.0867182e+37
-2.0862349e+37
-2.0666773e+37
-2.0822278e+37
-2.0830062e+37
-2.0869966e+37
-2.0885732e+37
-2.0930403e+37
-2.0918449e+37
-2.0976883e+37
-2.097938e+37
-2.0968974e+37
-2.0915016e+37
-2.0912258e+37
-2.0957228e+37
-2.0736102e+37
-2.0693013e+37
-2.1154411e+37
-2.1088712e+37
-2.1086066e+37
-2.1148486e+37
-2.1066653e+37
-2.1077106e+37
-2.1141148e+37
-2.1128225e+37
-2.1242379e+37
-2.124991e+37
-2.1311426e+37
-2.1300718e+37
-2.128836e+37
-2.1230721e+37
-2.1219975e+37
-2.1277912e+37
-2.111802e+37
-2.105779e+37
-2.1110722e+37
-2.1053967e+37
-2.126803e+37
-2.1209761e+37
-2.1202054e+37
-2.1259716e+37
-2.1036854e+37
-2.1043796e+37
-2.1104535e+37
-2.1098868e+37
-2.1194542e+37
-2.1198997e+37
-2.1256358e+37
-2.1254069e+37
-2.0942239e+37
-2.0904429e+37
-2.094376e+37
-2.0905028e+37
-2.0641377e+37
-2.08648e+37
-2.0803695e+37
-2.079859e+37
-2.0864811e+37
-2.0609251e+37
-2.0660071e+37
-2.0660917e+37
-2.0849044e+37
-2.080462e+37
-2.0778719e+37
-2.0835386e+37
-2.0882983e+37
-2.0889978e+37
-2.094288e+37
-2.0931358e+37
-1.9976547e+37
-2.0040982e+37
-2.0610743e+37
-2.0606592e+37
-2.0649566e+37
-2.0617979e+37
-2.0861781e+37
-2.0863533e+37
-2.0913113e+37
-2.0903536e+37
-2.0877683e+37
-2.0867458e+37
-2.0920573e+37
-2.0920925e+37
-2.0823259e+37
-2.0781812e+37
-2.0773155e+37
-2.083717e+37
-2.0824639e+37
-2.0779332e+37
-2.0766771e+37
-2.0819146e+37
-2.1015333e+37
-2.1022217e+37
-2.1082387e+37
-2.1076018e+37
-2.1028987e+37
-2.1030825e+37
-2.1094028e+37
-2.1088896e+37
-2.11815e+37
-2.1186983e+37
-2.1248356e+37
-2.1239275e+37
-2.122934e+37
-2.1172604e+37
-2.1167397e+37
-2.1224534e+37
-2.0988547e+37
-2.0996438e+37
-2.1055039e+37
-2.1048863e+37
-2.1005079e+37
-2.1008559e+37
-2.1067671e+37
-2.1062041e+37
-2.1215279e+37
-2.1160185e+37
-2.1154892e+37
-2.1207796e+37
-2.1202159e+37
-2.1149523e+37
-2.11444e+37
-2.1200297e+37
-2.0597337e+37
-2.0567021e+37
-2.0603099e+37
-2.0622493e+37
-2.0825942e+37
-2.0834793e+37
-2.0885767e+37
-2.0873241e+37
-2.0852651e+37
-2.0847418e+37
-2.0896984e+37
-2.0895197e+37
-2.0811686e+37
-2.0774884e+37
-2.0765204e+37
-2.0817649e+37
-2.0801584e+37
-2.0775371e+37
-2.0740893e+37
-2.0781868e+37
-1.9948645e+37
-1.9943765e+37
-1.887025e+37
-1.8829488e+37
-2.1418484e+37
-2.135723e+37
-2.13494e+37
-2.1410473e+37
-2.1334503e+37
-2.1339302e+37
-2.1401697e+37
-2.1397135e+37
-2.1507282e+37
-2.1511372e+37
-2.1309623e+37
-2.1312178e+37
-2.1371128e+37
-2.1374485e+37
-2.1318296e+37
-2.1325643e+37
-2.1380155e+37
-2.1389137e+37
-2.1498198e+37
-2.1491238e+37
-2.1554723e+37
-2.1546142e+37
-2.1483325e+37
-2.1479925e+37
-2.1541831e+37
-2.1313746e+37
-2.1393426e+37
-2.1382484e+37
-2.1304335e+37
-2.1554267e+37
-2.1478942e+37
-2.1471037e+37
-2.1545011e+37
-2.1296457e+37
-2.1374747e+37
-2.1363782e+37
-2.128632e+37
-2.1450203e+37
-2.1459389e+37
-2.1533763e+37
-2.1524128e+37
-2.1264818e+37
-2.127637e+37
-2.1354109e+37
-2.1438425e+37
-2.065463e+37
-2.0823836e+37
-2.0662085e+37
-2.0790193e+37
-2.0720507e+37
-2.0653683e+37
-2.0770293e+37
-2.0758185e+37
-2.0645202e+37
-2.0627195e+37
-2.0923699e+37
-2.0933133e+37
-2.0947633e+37
-2.0939439e+37
-2.0938469e+37
-2.0940818e+37
-2.0964842e+37
-2.0956498e+37
-2.0944084e+37
-2.0889936e+37
-2.0882265e+37
-2.0947339e+37
-2.08767e+37
-2.0887215e+37
-2.0957053e+37
-2.094805e+37
-2.1008308e+37
-2.1015511e+37
-2.1075505e+37
-2.1068008e+37
-2.1024717e+37
-2.1033798e+37
-2.1092576e+37
-2.1082701e+37
-2.1164314e+37
-2.1154358e+37
-2.1222525e+37
-2.123251e+37
-2.1203638e+37
-2.1146498e+37
-2.1137746e+37
-2.1214242e+37
-2.0627821e+37
-2.0766587e+37
-2.0722297e+37
-2.0607993e+37
-2.0603911e+37
-2.0711369e+37
-2.0727513e+37
-2.058337e+37
-2.0620444e+37
-2.0624705e+37
-1.9793853e+37
-1.9709601e+37
-2.0977478e+37
-2.0985774e+37
-2.1043873e+37
-2.1036536e+37
-2.0990621e+37
-2.1002021e+37
-2.1050505e+37
-2.1062541e+37
-2.1131619e+37
-2.1194761e+37
-2.1182082e+37
-2.1120406e+37
-2.1104674e+37
-2.1112477e+37
-2.1174217e+37
-2.1166924e+37
-2.0903133e+37
-2.0904973e+37
-2.0895852e+37
-2.0918066e+37
-2.0914935e+37
-2.0913673e+37
-2.0933222e+37
-2.0925528e+37
-2.084646e+37
-2.0855489e+37
-2.0925049e+37
-2.092147e+37
-2.0857502e+37
-2.0858122e+37
-2.0929249e+37
-2.0936848e+37
-1.9762929e+37
-1.9680298e+37
-1.964079e+37
-1.966551e+37
-2.0600565e+37
-2.0548181e+37
-2.0687634e+37
-2.073159e+37
-2.0591688e+37
-2.0590748e+37
-2.057703e+37
-2.0669739e+37
-2.0679468e+37
-2.0561954e+37
-2.0884744e+37
-2.0895492e+37
-2.0911339e+37
-2.0839308e+37
-2.0834834e+37
-2.0912624e+37
-2.0831467e+37
-1.8845539e+37
-1.9078772e+37
-1.8998092e+37
-1.8963028e+37
-1.9035369e+37
-1.9300529e+37
-1.9057307e+37
-1.9001081e+37
-1.9245938e+37
-1.8794122e+37
-1.8840065e+37
-1.8772881e+37
-1.8882406e+37
-1.8734606e+37
-1.8823225e+37
-1.9714268e+37
-1.9640832e+37
-1.9430021e+37
-2.220489e+37
-2.2267281e+37
-2.2364836e+37
-2.2427023e+37
-2.2443265e+37
-2.2000508e+37
-2.2371463e+37
-2.1928946e+37
-2.1415012e+37
-2.1476114e+37
-2.1439313e+37
-2.226065e+37
-2.2314357e+37
-2.2765148e+37
-2.2715793e+37
-2.1502968e+37
-2.2351577e+37
-2.2373511e+37
-2.2830889e+37
-2.2802554e+37
-2.2284527e+37
-2.1835968e+37
-2.1234262e+37
-2.2213607e+37
-2.1761263e+37
-2.1155167e+37
-2.06533e+37
-2.0581438e+37
-2.06233e+37
-2.13724e+37
-2.176039e+37
-2.1733348e+37
-2.135389e+37
-2.2550161e+37
-2.2577273e+37
-2.2117626e+37
-2.1682997e+37
-2.1096353e+37
-2.0364974e+37
-2.2030221e+37
-2.1590301e+37
-2.1006033e+37
-2.0286409e+37
-2.1478878e+37
-2.0949166e+37
-2.0244024e+37
-2.1419208e+37
-2.315222e+37
-2.3116075e+37
-2.3264448e+37
-2.3474284e+37
-2.3237263e+37
-2.3225927e+37
-2.3186927e+37
-1.9783769e+37
-1.9782785e+37
-1.9789919e+37
-1.9794267e+37
-1.8947874e+37
-1.8993481e+37
-1.8479906e+37
-1.9878198e+37
-1.9896919e+37
-1.9830924e+37
-1.9825545e+37
-1.8693848e+37
-1.9195571e+37
-2.0591372e+37
-2.0570649e+37
-2.0186713e+37
-2.0199762e+37
-2.0900438e+37
-2.0892155e+37
-2.0907308e+37
-2.1071076e+37
-2.1051365e+37
-1.8955204e+37
-2.0146173e+37
-2.0085643e+37
-2.0843062e+37
-2.0789593e+37
-2.0790087e+37
-2.0802451e+37
-2.07767e+37
-2.0739302e+37
-2.077173e+37
-2.0775073e+37
-2.0731725e+37
-2.0718877e+37
-2.0771827e+37
-2.0741405e+37
-2.0701596e+37
-2.067049e+37
-2.0721567e+37
-2.0734891e+37
-2.0065494e+37
-2.0063442e+37
-1.8921797e+37
-2.1059285e+37
-2.1034572e+37
-2.1037576e+37
-2.1070406e+37
-2.1018089e+37
-2.0968574e+37
-2.0974914e+37
-2.1027279e+37
-2.0946634e+37
-2.0962068e+37
-2.1018635e+37
-2.1003108e+37
-2.1067481e+37
-2.1032763e+37
-2.1023818e+37
-2.1062205e+37
-2.1140782e+37
-2.1148371e+37
-2.0914546e+37
-2.0939696e+37
-2.0995784e+37
-2.0971339e+37
-2.0943068e+37
-2.0946895e+37
-2.0999575e+37
-2.1003311e+37
-2.1022309e+37
-2.1019096e+37
-2.1060512e+37
-2.1058017e+37
-2.1049711e+37
-2.1016688e+37
-2.1004454e+37
-2.1038077e+37
-2.1019906e+37
-2.0988869e+37
-2.09928e+37
-2.1026999e+37
-2.0952976e+37
-2.0895563e+37
-2.0885887e+37
-2.0955208e+37
-2.0871152e+37
-2.0880081e+37
-2.0935722e+37
-2.0932877e+37
-2.1024264e+37
-2.0979359e+37
-2.0978816e+37
-2.1017983e+37
-2.1132188e+37
-2.1135851e+37
-2.1122512e+37
-2.1128939e+37
-2.1190575e+37
-2.1184124e+37
-2.1269524e+37
-2.1264606e+37
-2.1316537e+37
-2.1173403e+37
-2.1112918e+37
-2.1113426e+37
-2.117129e+37
-2.1095324e+37
-2.1104342e+37
-2.1163222e+37
-2.1158611e+37
-2.1313678e+37
-2.1257621e+37
-2.1256361e+37
-2.1315202e+37
-2.0931228e+37
-2.0872744e+37
-2.0868491e+37
-2.0928919e+37
-2.0839928e+37
-2.0870928e+37
-2.0909397e+37
-2.0891267e+37
-2.0966477e+37
-2.0967401e+37
-2.1009574e+37
-2.1008885e+37
-2.0998519e+37
-2.0949396e+37
-2.0939483e+37
-2.09872e+37
-2.1368753e+37
-2.137213e+37
-2.1450008e+37
-2.0738675e+37
-2.0873019e+37
-2.0880809e+37
-2.0716879e+37
-2.0974176e+37
-2.0979557e+37
-2.1054664e+37
-2.1052986e+37
-2.0753861e+37
-2.092926e+37
-2.0893762e+37
-2.0749731e+37
-2.0993776e+37
-2.0998222e+37
-2.1063046e+37
-2.1072531e+37
-2.1051803e+37
-2.1048791e+37
-2.1065856e+37
-2.1060667e+37
-2.1052014e+37
-2.1041198e+37
-2.1033894e+37
-2.1042018e+37
-2.0840289e+37
-2.0782401e+37
-2.1202365e+37
-2.1137264e+37
-2.1129442e+37
-2.1191486e+37
-2.1110929e+37
-2.1122058e+37
-2.1183864e+37
-2.1171572e+37
-2.1265348e+37
-2.1277309e+37
-2.1345859e+37
-2.1334307e+37
-2.1324112e+37
-2.1255875e+37
-2.1243528e+37
-2.131025e+37
-2.1164373e+37
-2.1107595e+37
-2.1155528e+37
-2.1098601e+37
-2.1300111e+37
-2.1237994e+37
-2.1229618e+37
-2.1292359e+37
-2.1080991e+37
-2.1089169e+37
-2.1152028e+37
-2.1144816e+37
-2.1218669e+37
-2.1224846e+37
-2.1290275e+37
-2.1286338e+37
-2.1030423e+37
-2.1020383e+37
-2.1024615e+37
-2.1020124e+37
-2.0833141e+37
-2.0872008e+37
-2.0715949e+37
-2.0710448e+37
-2.1041601e+37
-2.096907e+37
-2.0969165e+37
-2.1045745e+37
-2.0708768e+37
-2.0822586e+37
-2.0837425e+37
-2.0682647e+37
-2.0752423e+37
-2.0745796e+37
-2.1025854e+37
-2.0963784e+37
-2.0954355e+37
-2.1027441e+37
-2.1007835e+37
-2.1012939e+37
-2.1023613e+37
-2.1016897e+37
-1.9831064e+37
-1.9910179e+37
-2.0694188e+37
-2.0850848e+37
-2.0812358e+37
-2.0688274e+37
-2.0684963e+37
-2.0801409e+37
-2.0819844e+37
-2.0671406e+37
-2.0737434e+37
-2.0703141e+37
-2.0986855e+37
-2.0987454e+37
-2.1003052e+37
-2.0996258e+37
-2.0999977e+37
-2.0993387e+37
-2.1013162e+37
-2.1008106e+37
-2.1002036e+37
-2.0936885e+37
-2.0939079e+37
-2.1017321e+37
-2.1000027e+37
-2.0937086e+37
-2.0939637e+37
-2.1009123e+37
-2.1060198e+37
-2.1069245e+37
-2.1126121e+37
-2.1118162e+37
-2.107099e+37
-2.1080048e+37
-2.113971e+37
-2.1129355e+37
-2.1202602e+37
-2.1212909e+37
-2.1282681e+37
-2.1272499e+37
-2.1266274e+37
-2.1198074e+37
-2.1189775e+37
-2.1257817e+37
-2.103338e+37
-2.1044613e+37
-2.1104521e+37
-2.1096979e+37
-2.1046406e+37
-2.1056788e+37
-2.1115482e+37
-2.1106797e+37
-2.1251469e+37
-2.1186902e+37
-2.1179041e+37
-2.1243049e+37
-2.1239092e+37
-2.117609e+37
-2.1170476e+37
-2.1235073e+37
-2.0679195e+37
-2.0822465e+37
-2.0784745e+37
-2.0672053e+37
-2.0679587e+37
-2.0788993e+37
-2.0807024e+37
-2.0650064e+37
-2.0694251e+37
-2.07172e+37
-2.0951792e+37
-2.0959345e+37
-2.0977554e+37
-2.0966966e+37
-2.097611e+37
-2.0973687e+37
-2.0991161e+37
-2.0984099e+37
-2.0988329e+37
-2.0931403e+37
-2.0934669e+37
-2.1000616e+37
-2.0977357e+37
-2.0935667e+37
-2.0916967e+37
-2.0974756e+37
-1.9821251e+37
-1.9796806e+37
-1.9881862e+37
-1.9802631e+37
-1.9767664e+37
-1.9788003e+37
-2.1445119e+37
-2.1364781e+37
-2.1356384e+37
-2.1436713e+37
-2.1342246e+37
-2.135077e+37
-2.1430681e+37
-2.1422641e+37
-2.1511224e+37
-2.1518649e+37
-2.1318054e+37
-2.1323612e+37
-2.1397689e+37
-2.1402987e+37
-2.1327284e+37
-2.1336359e+37
-2.1407268e+37
-2.1416117e+37
-2.1503832e+37
-2.1495763e+37
-2.1576933e+37
-2.1569749e+37
-2.1489808e+37
-2.148401e+37
-2.156274e+37
-2.1353702e+37
-2.1326775e+37
-2.1324726e+37
-2.135208e+37
-2.1430829e+37
-2.1402014e+37
-2.1399546e+37
-2.142761e+37
-2.1421365e+37
-2.1394729e+37
-2.1390464e+37
-2.1417195e+37
-2.1316396e+37
-2.1320296e+37
-2.1347298e+37
-2.1343334e+37
-2.1588647e+37
-2.155558e+37
-2.155101e+37
-2.1584086e+37
-2.1508091e+37
-2.1478334e+37
-2.1475509e+37
-2.1504153e+37
-2.1465962e+37
-2.14705e+37
-2.1499332e+37
-2.1494619e+37
-2.1578214e+37
-2.1544739e+37
-2.1540139e+37
-2.1573252e+37
-2.1306822e+37
-2.1310907e+37
-2.1337821e+37
-2.1332856e+37
-2.1412259e+37
-2.1385007e+37
-2.1380111e+37
-2.1406981e+37
-2.1399658e+37
-2.1373747e+37
-2.136862e+37
-2.1395172e+37
-2.1295573e+37
-2.1300525e+37
-2.1326693e+37
-2.1321459e+37
-2.1442781e+37
-2.1447793e+37
-2.1477149e+37
-2.1471816e+37
-2.1488725e+37
-2.1459847e+37
-2.145498e+37
-2.1483113e+37
-2.1567902e+37
-2.153513e+37
-2.1529922e+37
-2.1562309e+37
-2.1556148e+37
-2.152323e+37
-2.1518181e+37
-2.1550893e+37
-2.1274893e+37
-2.1279151e+37
-2.1305918e+37
-2.1301303e+37
-2.1285223e+37
-2.1289578e+37
-2.1316566e+37
-2.1311737e+37
-2.1390822e+37
-2.1363358e+37
-2.1358616e+37
-2.1385827e+37
-2.1466789e+37
-2.1437758e+37
-2.1433281e+37
-2.1461759e+37
-2.075271e+37
-2.0900597e+37
-2.0740996e+37
-2.0871574e+37
-2.0524687e+37
-2.0455566e+37
-2.0852907e+37
-2.085075e+37
-2.0736205e+37
-2.0720192e+37
-2.1011297e+37
-2.1015165e+37
-2.1005346e+37
-2.1003939e+37
-2.1011961e+37
-2.1022501e+37
-2.1020557e+37
-2.1012817e+37
-2.1035013e+37
-2.1036021e+37
-2.1042207e+37
-2.1037874e+37
-2.1027293e+37
-2.1028237e+37
-2.1032501e+37
-2.1029465e+37
-2.1029188e+37
-2.1032045e+37
-2.1023922e+37
-2.1021335e+37
-2.1038925e+37
-2.1037884e+37
-2.103056e+37
-2.1030902e+37
-2.1052681e+37
-2.1053491e+37
-2.1056724e+37
-2.1055113e+37
-2.1044165e+37
-2.1045721e+37
-2.1050723e+37
-2.1046914e+37
-2.1107351e+37
-2.1049074e+37
-2.1107105e+37
-2.1053566e+37
-2.0972157e+37
-2.1055509e+37
-2.096625e+37
-2.1054556e+37
-2.1049326e+37
-2.0966057e+37
-2.1056564e+37
-2.0967427e+37
-2.1050956e+37
-2.1108505e+37
-2.1101698e+37
-2.1048799e+37
-2.0972805e+37
-2.1056237e+37
-2.104518e+37
-2.0959084e+37
-2.0975192e+37
-2.1055787e+37
-2.105669e+37
-2.0970462e+37
-2.1040926e+37
-2.1099961e+37
-2.109769e+37
-2.1035748e+37
-2.1031911e+37
-2.1095281e+37
-2.1090369e+37
-2.1027952e+37
-2.106226e+37
-2.1065e+37
-2.1075797e+37
-2.1071986e+37
-2.1070789e+37
-2.1073735e+37
-2.1084471e+37
-2.1080611e+37
-2.1137438e+37
-2.1121362e+37
-2.1118092e+37
-2.1133214e+37
-2.112801e+37
-2.1112701e+37
-2.1109868e+37
-2.1123649e+37
-2.1078811e+37
-2.1081936e+37
-2.1093552e+37
-2.1089187e+37
-2.1099774e+37
-2.1088431e+37
-2.108667e+37
-2.1097983e+37
-2.1153152e+37
-2.113702e+37
-2.1134836e+37
-2.1151314e+37
-2.1146762e+37
-2.1130135e+37
-2.1126427e+37
-2.1142457e+37
-2.1213996e+37
-2.1194221e+37
-2.119249e+37
-2.1212315e+37
-2.118424e+37
-2.1188036e+37
-2.120816e+37
-2.1203941e+37
-2.1273138e+37
-2.1250129e+37
-2.12465e+37
-2.1269221e+37
-2.1279384e+37
-2.1255972e+37
-2.125425e+37
-2.1277498e+37
-2.1252463e+37
-2.1230439e+37
-2.1225763e+37
-2.1247704e+37
-2.1198537e+37
-2.1178947e+37
-2.1175097e+37
-2.1194073e+37
-2.1164655e+37
-2.1169071e+37
-2.1188486e+37
-2.118339e+37
-2.1263879e+37
-2.1240988e+37
-2.1236617e+37
-2.1259135e+37
-2.0713195e+37
-2.0847672e+37
-2.080054e+37
-2.0692332e+37
-2.0686371e+37
-2.0785353e+37
-2.0792627e+37
-2.0674688e+37
-2.0422325e+37
-2.0422109e+37
-2.0378457e+37
-2.0315132e+37
-2.0280473e+37
-2.0279869e+37
-2.1032175e+37
-2.103692e+37
-2.1042957e+37
-2.1038445e+37
-2.1039787e+37
-2.1041623e+37
-2.1051268e+37
-2.1047494e+37
-2.110165e+37
-2.108837e+37
-2.1084735e+37
-2.1097444e+37
-2.109194e+37
-2.1078865e+37
-2.1075406e+37
-2.1088664e+37
-2.1045968e+37
-2.1048685e+37
-2.1059162e+37
-2.1055106e+37
-2.1066532e+37
-2.1057067e+37
-2.1054271e+37
-2.10636e+37
-2.1110654e+37
-2.109691e+37
-2.1093507e+37
-2.1106327e+37
-2.1119314e+37
-2.1105241e+37
-2.1101923e+37
-2.1115399e+37
-2.1178141e+37
-2.1158474e+37
-2.1154854e+37
-2.1173527e+37
-2.1242471e+37
-2.1219509e+37
-2.121493e+37
-2.1237621e+37
-2.1231319e+37
-2.1209211e+37
-2.1205144e+37
-2.1227056e+37
-2.1145684e+37
-2.1149464e+37
-2.1168661e+37
-2.1163744e+37
-2.1127774e+37
-2.1130848e+37
-2.1150168e+37
-2.1146805e+37
-2.1158921e+37
-2.1140185e+37
-2.1136658e+37
-2.1154977e+37
-2.1222653e+37
-2.1199576e+37
-2.1196105e+37
-2.121885e+37
-2.1214249e+37
-2.1191257e+37
-2.1188424e+37
-2.1211257e+37
-2.0994279e+37
-2.0999589e+37
-2.1002308e+37
-2.0996229e+37
-2.0985091e+37
-2.0997592e+37
-2.0995558e+37
-2.0985276e+37
-2.0979229e+37
-2.098985e+37
-2.0982299e+37
-2.0972719e+37
-2.1006766e+37
-2.1006932e+37
-2.1011553e+37
-2.1008557e+37
-2.1001453e+37
-2.1003468e+37
-2.0992558e+37
-2.0991283e+37
-2.0995931e+37
-2.1006347e+37
-2.1006029e+37
-2.0997132e+37
-2.1018864e+37
-2.1019697e+37
-2.1025412e+37
-2.1021694e+37
-2.1012575e+37
-2.1013303e+37
-2.1017376e+37
-2.1014158e+37
-2.1019673e+37
-2.0944843e+37
-2.1040722e+37
-2.0934825e+37
-2.0948801e+37
-2.094316e+37
-2.1040965e+37
-2.1039596e+37
-2.1018137e+37
-2.1084757e+37
-2.1085584e+37
-2.1015391e+37
-2.1082622e+37
-2.1009457e+37
-2.0996589e+37
-2.1067362e+37
-2.0949889e+37
-2.1042535e+37
-2.1046515e+37
-2.0949493e+37
-2.094704e+37
-2.1038768e+37
-2.1041289e+37
-2.0942605e+37
-2.102517e+37
-2.1086553e+37
-2.1088148e+37
-2.1025247e+37
-2.1089326e+37
-2.1022355e+37
-2.1084914e+37
-2.1019189e+37
-2.0360677e+37
-2.0417484e+37
-2.0407765e+37
-2.034982e+37
-2.0317234e+37
-2.0312093e+37
-2.0305259e+37
-2.0316238e+37
-2.0290703e+37
-2.0251322e+37
-2.0241952e+37
-2.0287068e+37
-2.025646e+37
-2.0207407e+37
-2.0401157e+37
-2.0349705e+37
-2.0800309e+37
-2.0755693e+37
-2.0735936e+37
-2.0736334e+37
-2.0673245e+37
-2.0656677e+37
-2.0643237e+37
-2.0634056e+37
-2.0975313e+37
-2.0979695e+37
-2.0970856e+37
-2.0968241e+37
-2.098955e+37
-2.0992153e+37
-2.0994608e+37
-2.0991459e+37
-2.1060233e+37
-2.0994073e+37
-2.098572e+37
-2.1061991e+37
-2.1023852e+37
-2.0927568e+37
-2.1013894e+37
-2.0927645e+37
-2.102174e+37
-2.0928406e+37
-2.1019839e+37
-2.0927258e+37
-2.1059503e+37
-2.099093e+37
-2.0985354e+37
-2.1061373e+37
-2.0925983e+37
-2.0918952e+37
-2.1016794e+37
-2.1018931e+37
-2.1054194e+37
-1.8914327e+37
-1.903869e+37
-1.9080514e+37
-1.9157777e+37
-1.9120089e+37
-1.9102503e+37
-1.9154453e+37
-1.9397933e+37
-1.9345567e+37
-1.8863101e+37
-1.8986237e+37
-1.891128e+37
-1.8878393e+37
-1.8828762e+37
-1.8930947e+37
-2.0017346e+37
-1.983137e+37
-1.9764101e+37
-1.9947024e+37
-1.8763345e+37
-1.8809223e+37
-1.8771056e+37
-1.8929173e+37
-1.9557118e+37
-1.8884134e+37
-1.8731619e+37
-1.9490137e+37
-1.9470316e+37
-2.2329003e+37
-2.249007e+37
-2.2132189e+37
-2.2068049e+37
-2.1537859e+37
-2.1589599e+37
-2.1565501e+37
-2.2403927e+37
-2.2450596e+37
-2.291381e+37
-2.2865004e+37
-2.1618107e+37
-2.2470943e+37
-2.2506651e+37
-2.2973568e+37
-2.2939279e+37
-2.2441015e+37
-2.1981484e+37
-2.1366197e+37
-2.2369399e+37
-2.1909524e+37
-2.1298753e+37
-2.0712191e+37
-2.0773938e+37
-2.068327e+37
-2.1845553e+37
-2.1463034e+37
-2.1410617e+37
-2.1797069e+37
-2.2613765e+37
-2.2666905e+37
-2.0746028e+37
-2.1503595e+37
-2.1900547e+37
-2.187332e+37
-2.1494196e+37
-2.270681e+37
-2.2729154e+37
-2.2284159e+37
-2.1835491e+37
-2.1242086e+37
-2.0499224e+37
-2.2213013e+37
-2.1762456e+37
-2.116294e+37
-2.0433851e+37
-2.0517089e+37
-2.0977747e+37
-2.1006106e+37
-2.0546205e+37
-2.0584665e+37
-2.1457578e+37
-2.1986824e+37
-2.1945811e+37
-2.1425598e+37
-2.2661977e+37
-2.2638179e+37
-2.2699058e+37
-2.2684165e+37
-2.2957906e+37
-2.2981537e+37
-2.1682719e+37
-2.1102398e+37
-2.0372915e+37
-2.1589904e+37
-2.1013339e+37
-2.0297241e+37
-2.0948771e+37
-2.0249521e+37
-2.3331146e+37
-2.3545248e+37
-2.3537268e+37
-2.3328613e+37
-2.3504027e+37
-2.3521338e+37
-2.3313191e+37
-2.3298145e+37
-2.3367327e+37
-2.34771e+37
-2.3484866e+37
-2.3378213e+37
-2.3724304e+37
-2.3627821e+37
-2.3620883e+37
-2.3347524e+37
-2.3458631e+37
-2.33339e+37
-2.3299134e+37
-2.3265002e+37
-2.3637845e+37
-2.342762e+37
-2.3403986e+37
-2.3616951e+37
-2.3370727e+37
-2.3587041e+37
-2.3565954e+37
-2.3356216e+37
-2.3360749e+37
-2.333204e+37
-2.0196973e+37
-2.016847e+37
-2.0290182e+37
-1.9918358e+37
-1.9905251e+37
-1.9903499e+37
-1.9913765e+37
-1.9047988e+37
-1.9994481e+37
-1.9946377e+37
-1.9952262e+37
-2.0013486e+37
-1.8553215e+37
-1.9088995e+37
-2.0273262e+37
-2.0372945e+37
-2.0324111e+37
-2.0234445e+37
-1.9009118e+37
-2.0140829e+37
-2.0156653e+37
-2.0806372e+37
-2.0808017e+37
-2.0808827e+37
-2.0783478e+37
-2.0803511e+37
-2.0830128e+37
-2.0981347e+37
-2.0977643e+37
-2.1046991e+37
-2.1042444e+37
-2.0973303e+37
-2.10004e+37
-2.104839e+37
-2.1020572e+37
-2.0994838e+37
-2.0990283e+37
-2.1044197e+37
-2.1050773e+37
-2.1099685e+37
-2.1061683e+37
-2.10652e+37
-2.1100673e+37
-2.1092955e+37
-2.1060848e+37
-2.1043898e+37
-2.107776e+37
-1.9989254e+37
-1.9917543e+37
-2.0014982e+37
-1.9943651e+37
-2.0965771e+37
-2.0913182e+37
-2.0885548e+37
-2.0876568e+37
-2.1047709e+37
-2.0866564e+37
-2.0879465e+37
-2.1023161e+37
-2.1016122e+37
-2.1000585e+37
-2.0865731e+37
-2.0850991e+37
-2.0852916e+37
-2.1012185e+37
-2.0970462e+37
-2.0844528e+37
-2.0834128e+37
-2.0953271e+37
-2.0964252e+37
-2.0807137e+37
-2.0929662e+37
-2.0967407e+37
-2.0799494e+37
-2.0793745e+37
-2.0784962e+37
-2.0914059e+37
-2.092796e+37
-2.0771267e+37
-2.0867039e+37
-2.082928e+37
-2.089129e+37
-2.0925355e+37
-2.0772423e+37
-2.0771406e+37
-2.0777166e+37
-2.0895414e+37
-2.0909719e+37
-2.0747015e+37
-2.0815737e+37
-2.083365e+37
-1.9938366e+37
-1.9916309e+37
-1.9887328e+37
-1.9905408e+37
-2.1159109e+37
-2.1157943e+37
-2.1156255e+37
-2.115904e+37
-2.119497e+37
-2.1123585e+37
-2.1119164e+37
-2.119569e+37
-2.1106338e+37
-2.1115668e+37
-2.1191394e+37
-2.1182657e+37
-2.1153715e+37
-2.1153343e+37
-2.1146307e+37
-2.1149325e+37
-2.1201364e+37
-2.118659e+37
-2.1192633e+37
-2.1081997e+37
-2.1096913e+37
-2.1170464e+37
-2.1157496e+37
-2.1098805e+37
-2.1097656e+37
-2.1175148e+37
-2.117778e+37
-2.113862e+37
-2.1141795e+37
-2.1145871e+37
-2.1138854e+37
-2.1129415e+37
-2.1132017e+37
-2.1121912e+37
-2.1122459e+37
-2.1113088e+37
-2.1110069e+37
-2.1113212e+37
-2.1115852e+37
-2.1137544e+37
-2.1064768e+37
-2.105777e+37
-2.1140838e+37
-2.1048536e+37
-2.1048078e+37
-2.1126415e+37
-2.1129356e+37
-2.1109648e+37
-2.1105915e+37
-2.1102412e+37
-2.1103474e+37
-2.1186864e+37
-2.1180984e+37
-2.1167492e+37
-2.1175128e+37
-2.1233726e+37
-2.1228857e+37
-2.1296903e+37
-2.1287925e+37
-2.135346e+37
-2.1220405e+37
-2.1159228e+37
-2.1156527e+37
-2.1216653e+37
-2.1143141e+37
-2.1149873e+37
-2.1216005e+37
-2.1209313e+37
-2.135064e+37
-2.1287491e+37
-2.1282817e+37
-2.1349037e+37
-2.1118366e+37
-2.1047381e+37
-2.1046384e+37
-2.1120608e+37
-2.1024487e+37
-2.1042192e+37
-2.1101754e+37
-2.1093134e+37
-2.1090551e+37
-2.1095621e+37
-2.1096212e+37
-2.109225e+37
-2.1081791e+37
-2.1076335e+37
-2.1064468e+37
-2.1073447e+37
-2.1379688e+37
-2.1380497e+37
-2.1408706e+37
-2.1407422e+37
-2.1382995e+37
-2.1382602e+37
-2.1411418e+37
-2.1411316e+37
-2.1457807e+37
-2.1456812e+37
-2.0830208e+37
-2.096402e+37
-2.0963279e+37
-2.0816525e+37
-2.107135e+37
-2.1061459e+37
-2.115248e+37
-2.1161855e+37
-2.1064418e+37
-2.1164687e+37
-2.1071984e+37
-2.1167582e+37
-2.1153258e+37
-2.1215206e+37
-2.1212106e+37
-2.1149194e+37
-2.120564e+37
-2.114342e+37
-2.1201339e+37
-2.1137838e+37
-2.0854272e+37
-2.1007297e+37
-2.0977515e+37
-2.0837522e+37
-2.1085843e+37
-2.1173035e+37
-2.1079989e+37
-2.1173764e+37
-2.1083211e+37
-2.1170971e+37
-2.1167131e+37
-2.1082905e+37
-2.1163729e+37
-2.1227088e+37
-2.1223453e+37
-2.1167069e+37
-2.1220082e+37
-2.1159252e+37
-2.1219922e+37
-2.1158312e+37
-2.1136505e+37
-2.1138187e+37
-2.1129147e+37
-2.1125802e+37
-2.1135006e+37
-2.1144079e+37
-2.1144841e+37
-2.113468e+37
-2.1155246e+37
-2.1156774e+37
-2.1165301e+37
-2.1161368e+37
-2.1146013e+37
-2.1148974e+37
-2.1156559e+37
-2.1152326e+37
-2.1134793e+37
-2.1139493e+37
-2.1146087e+37
-2.1140856e+37
-2.1120843e+37
-2.1130877e+37
-2.1126934e+37
-2.111677e+37
-2.1118342e+37
-2.1122494e+37
-2.1112392e+37
-2.1107469e+37
-2.1127006e+37
-2.1130379e+37
-2.1136493e+37
-2.1131318e+37
-2.0643381e+37
-2.0582702e+37
-2.1265706e+37
-2.1251934e+37
-2.1248446e+37
-2.1263517e+37
-2.1213059e+37
-2.1201365e+37
-2.1198215e+37
-2.1209445e+37
-2.1188195e+37
-2.1192417e+37
-2.1204639e+37
-2.1198927e+37
-2.125933e+37
-2.1242905e+37
-2.1237206e+37
-2.1253608e+37
-2.1166446e+37
-2.1171693e+37
-2.1182678e+37
-2.1175688e+37
-2.1178062e+37
-2.1183577e+37
-2.1194391e+37
-2.1188566e+37
-2.1247672e+37
-2.1230837e+37
-2.1225267e+37
-2.1241174e+37
-2.1234646e+37
-2.1219303e+37
-2.1213248e+37
-2.1227364e+37
-2.1296401e+37
-2.13018e+37
-2.1321912e+37
-2.1316268e+37
-2.1328989e+37
-2.1309164e+37
-2.1307e+37
-2.1326258e+37
-2.1393565e+37
-2.1370623e+37
-2.1368516e+37
-2.139088e+37
-2.1386594e+37
-2.136426e+37
-2.1359265e+37
-2.1381504e+37
-2.1374277e+37
-2.1352376e+37
-2.1345647e+37
-2.1368235e+37
-2.1309901e+37
-2.1289722e+37
-2.1283343e+37
-2.1303034e+37
-2.1269447e+37
-2.1276008e+37
-2.1295656e+37
-2.1287634e+37
-2.1360953e+37
-2.1338083e+37
-2.1330577e+37
-2.1353391e+37
-2.1219464e+37
-2.1205219e+37
-2.1201e+37
-2.1214965e+37
-2.1169351e+37
-2.1161911e+37
-2.1158489e+37
-2.1165254e+37
-2.1210847e+37
-2.1197046e+37
-2.1196761e+37
-2.1210318e+37
-2.1153907e+37
-2.11551e+37
-2.1162217e+37
-2.1160596e+37
-2.1344968e+37
-2.1321619e+37
-2.1316847e+37
-2.1340469e+37
-2.1281031e+37
-2.1261689e+37
-2.12573e+37
-2.127642e+37
-2.1252479e+37
-2.1252656e+37
-2.1273238e+37
-2.1271834e+37
-2.1337189e+37
-2.1312975e+37
-2.1312544e+37
-2.1336377e+37
-2.1139471e+37
-2.1141794e+37
-2.1152679e+37
-2.1148978e+37