/*--------------------------------*- C++ -*----------------------------------*\
  =========                 |
  \\      /  F ield         | OpenFOAM: The Open Source CFD Toolbox
   \\    /   O peration     | Website:  https://openfoam.org
    \\  /    A nd           | Version:  7
     \\/     M anipulation  |
\*---------------------------------------------------------------------------*/
FoamFile
{
    version     2.0;
    format      ascii;
    class       volScalarField;
    location    "9000";
    object      p;
}
// * * * * * * * * * * * * * * * * * * * * * * * * * * * * * * * * * * * * * //

dimensions      [0 2 -2 0 0 0 0];

internalField   nonuniform List<scalar> 
34356
(
-5.7678572e+106
-5.8708491e+106
-5.5936156e+106
-5.606524e+106
-5.4881232e+106
-5.4761731e+106
-4.9115986e+106
-5.2649163e+106
-5.2743409e+106
-5.6575552e+106
-5.6508353e+106
-5.6770435e+106
-5.6675219e+106
-5.510631e+106
-5.5035377e+106
-5.4181815e+106
-5.424443e+106
-5.5156995e+106
-5.4293321e+106
-5.5187908e+106
-5.4324072e+106
-5.0730353e+106
-4.8736769e+106
-4.8663685e+106
-5.065254e+106
-4.553714e+106
-4.8048595e+106
-4.8119459e+106
-4.9854256e+106
-4.9769936e+106
-4.4778002e+106
-4.6749881e+106
-4.9625573e+106
-4.8703333e+106
-5.2872668e+106
-5.2915942e+106
-5.295168e+106
-5.2986315e+106
-5.5517387e+106
-5.522161e+106
-5.5114127e+106
-5.5411947e+106
-5.5564736e+106
-5.5444986e+106
-5.5663862e+106
-5.5532195e+106
-5.5352775e+106
-5.5295288e+106
-5.5593613e+106
-5.56462e+106
-5.5781475e+106
-5.573572e+106
-5.5632213e+106
-5.5596369e+106
-5.3993666e+106
-5.4596287e+106
-5.4575206e+106
-5.3974778e+106
-5.454456e+106
-5.3949559e+106
-5.451182e+106
-5.3919557e+106
-5.4637075e+106
-5.4618004e+106
-5.4030938e+106
-5.4013409e+106
-5.405784e+106
-5.466167e+106
-5.465334e+106
-5.4047599e+106
-5.1791539e+106
-5.1763442e+106
-5.0602213e+106
-5.0630317e+106
-4.9706674e+106
-4.8813063e+106
-4.8776127e+106
-4.9676827e+106
-4.6890119e+106
-4.9657099e+106
-4.8756892e+106
-4.8725817e+106
-4.9632952e+106
-4.6817683e+106
-5.170162e+106
-5.1732363e+106
-5.0575665e+106
-5.0555932e+106
-4.489466e+106
-4.4828628e+106
-4.6397424e+106
-4.6449225e+106
-4.4769844e+106
-4.473797e+106
-5.0539213e+106
-4.0949569e+106
-4.2954605e+106
-4.4804763e+106
-4.5923264e+106
-4.5888748e+106
-4.4761368e+106
-4.682387e+106
-4.6867298e+106
-4.7819698e+106
-4.7765599e+106
-5.0092435e+106
-4.9626362e+106
-4.9643729e+106
-4.9222331e+106
-4.9242042e+106
-4.8828908e+106
-4.8802964e+106
-4.8773179e+106
-5.3130375e+106
-5.310612e+106
-5.3167657e+106
-5.3146901e+106
-5.3185777e+106
-5.3176319e+106
-5.3217854e+106
-5.3199876e+106
-5.423171e+106
-5.4369359e+106
-5.4473175e+106
-5.4154976e+106
-5.406993e+106
-5.4389604e+106
-5.5025706e+106
-5.488943e+106
-5.4840836e+106
-5.4977773e+106
-5.4998814e+106
-5.483423e+106
-5.4872498e+106
-5.5043511e+106
-5.5102375e+106
-5.4967762e+106
-5.4931514e+106
-5.5065379e+106
-5.5114451e+106
-5.5080656e+106
-5.4934756e+106
-5.4906837e+106
-5.427427e+106
-5.4211414e+106
-5.4536883e+106
-5.4593822e+106
-5.5075399e+106
-5.5061195e+106
-5.5188914e+106
-5.520213e+106
-5.5167834e+106
-5.5036205e+106
-5.5000642e+106
-5.5133705e+106
-5.5202308e+106
-5.5192691e+106
-5.5010051e+106
-5.5001792e+106
-5.5174131e+106
-5.4984103e+106
-5.5143611e+106
-5.4960049e+106
-5.4269989e+106
-5.4262541e+106
-5.3869547e+106
-5.3877034e+106
-5.3860918e+106
-5.4251985e+106
-5.4239236e+106
-5.3849298e+106
-5.3837765e+106
-5.4225595e+106
-5.4212478e+106
-5.3825095e+106
-5.4196138e+106
-5.4177826e+106
-5.3811463e+106
-5.3795062e+106
-5.4295827e+106
-5.4300546e+106
-5.3903876e+106
-5.3897161e+106
-5.3890825e+106
-5.4286944e+106
-5.427741e+106
-5.3883433e+106
-5.4323376e+106
-5.4321142e+106
-5.3928523e+106
-5.3923956e+106
-5.4315674e+106
-5.4309075e+106
-5.3918005e+106
-5.3910574e+106
-4.7552564e+106
-4.7155456e+106
-5.2459484e+106
-5.1707768e+106
-5.1719779e+106
-5.2442036e+106
-5.1695392e+106
-5.1703666e+106
-5.242603e+106
-5.2432822e+106
-5.1119479e+106
-5.0571534e+106
-5.0564149e+106
-5.110941e+106
-5.1131707e+106
-5.0575222e+106
-5.0585793e+106
-5.1122635e+106
-5.0121063e+106
-4.9653991e+106
-4.9665402e+106
-5.0108727e+106
-4.9257659e+106
-4.9268921e+106
-4.8873028e+106
-4.8861612e+106
-4.7955282e+106
-4.8841551e+106
-4.8849402e+106
-4.9245405e+106
-4.7915388e+106
-4.9236358e+106
-4.9636899e+106
-4.9644289e+106
-5.0103152e+106
-5.0097559e+106
-4.6979096e+106
-4.701922e+106
-5.0092338e+106
-4.9623401e+106
-4.963375e+106
-5.0079996e+106
-4.882903e+106
-4.8837895e+106
-4.9224037e+106
-4.9232876e+106
-4.7895e+106
-4.8827535e+106
-4.8824017e+106
-4.9222391e+106
-4.7853493e+106
-4.923177e+106
-4.9632683e+106
-5.0080484e+106
-4.9622321e+106
-5.0087253e+106
-4.6910405e+106
-4.6944964e+106
-5.2392597e+106
-5.1651282e+106
-5.1666215e+106
-5.2371997e+106
-5.24211e+106
-5.1673203e+106
-5.1686983e+106
-5.2403663e+106
-5.1099531e+106
-5.0553658e+106
-5.0542573e+106
-5.1088719e+106
-5.054432e+106
-5.0542684e+106
-5.1086002e+106
-5.1077442e+106
-4.1004679e+106
-4.3040766e+106
-4.0972291e+106
-4.2991434e+106
-4.4944733e+106
-4.6072279e+106
-4.6027767e+106
-4.4882081e+106
-4.4842692e+106
-4.5986761e+106
-4.5959817e+106
-4.4827836e+106
-5.101255e+106
-5.1303249e+106
-5.0517667e+106
-5.0759884e+106
-5.050537e+106
-5.0745129e+106
-4.047638e+106
-4.3663035e+106
-4.3615724e+106
-4.227022e+106
-4.2209705e+106
-4.5814236e+106
-4.5131282e+106
-4.507191e+106
-4.5758868e+106
-4.6814915e+106
-4.6337898e+106
-4.6290998e+106
-4.6772612e+106
-4.6753194e+106
-4.6270438e+106
-4.6254061e+106
-4.6732193e+106
-4.5044066e+106
-4.5736277e+106
-4.5725513e+106
-4.7150849e+106
-4.71628e+106
-4.7566171e+106
-4.7552536e+106
-4.7232415e+106
-4.7190361e+106
-4.7633755e+106
-4.75948e+106
-4.8019907e+106
-4.7983883e+106
-4.8430918e+106
-4.8398163e+106
-4.7954349e+106
-4.7934444e+106
-4.8368651e+106
-4.8339338e+106
-5.0064824e+106
-5.0292239e+106
-5.0056874e+106
-5.0281431e+106
-4.9638768e+106
-4.962943e+106
-4.9840748e+106
-4.9650217e+106
-4.9854382e+106
-4.9646219e+106
-4.9848729e+106
-5.0047297e+106
-4.9241732e+106
-4.9443291e+106
-4.9231056e+106
-4.943413e+106
-4.925226e+106
-4.9454726e+106
-4.9250504e+106
-4.9451437e+106
-4.9056087e+106
-4.9052304e+106
-4.8854342e+106
-4.8847726e+106
-4.9043796e+106
-4.9031206e+106
-4.8823887e+106
-4.8837317e+106
-4.9015314e+106
-4.8991408e+106
-4.8807967e+106
-4.8784452e+106
-4.9214785e+106
-5.3321201e+106
-5.3307441e+106
-5.3282287e+106
-5.3295781e+106
-5.335284e+106
-5.3343579e+106
-5.3336222e+106
-5.3328195e+106
-5.3361167e+106
-5.3370968e+106
-5.3354524e+106
-5.3357375e+106
-5.3394407e+106
-5.3384416e+106
-5.3378546e+106
-5.3374125e+106
-5.2127278e+106
-5.2225054e+106
-5.3424725e+106
-5.4431259e+106
-5.4467349e+106
-5.3138039e+106
-5.3072967e+106
-5.3359216e+106
-5.439436e+106
-5.435115e+106
-5.4579864e+106
-5.4538185e+106
-5.4716745e+106
-5.4695117e+106
-5.4717079e+106
-5.4738086e+106
-5.4646671e+106
-5.4447508e+106
-5.4666243e+106
-5.4465234e+106
-5.4697766e+106
-5.4493839e+106
-5.4682757e+106
-5.4481174e+106
-5.4737089e+106
-5.4754784e+106
-5.4774134e+106
-5.4756308e+106
-5.4651569e+106
-5.4616355e+106
-5.4808322e+106
-5.4822166e+106
-5.4837237e+106
-5.4823268e+106
-5.4772735e+106
-5.4792112e+106
-5.4809104e+106
-5.47903e+106
-5.4755583e+106
-5.4743932e+106
-5.4535222e+106
-5.4544353e+106
-5.4522686e+106
-5.4508448e+106
-5.4730486e+106
-5.4713066e+106
-5.3244057e+106
-5.3187082e+106
-5.3479071e+106
-5.4497667e+106
-5.4531113e+106
-5.354039e+106
-5.4556374e+106
-5.45765e+106
-5.4736309e+106
-5.4754072e+106
-5.4713726e+106
-5.4682722e+106
-5.520627e+106
-5.4917274e+106
-5.4907422e+106
-5.4910483e+106
-5.4913681e+106
-5.4889141e+106
-5.4900309e+106
-5.4908056e+106
-5.4897155e+106
-5.4829396e+106
-5.4607834e+106
-5.4827153e+106
-5.4606202e+106
-5.4820799e+106
-5.4599645e+106
-5.4591322e+106
-5.4810144e+106
-5.4878524e+106
-5.4867632e+106
-5.4888183e+106
-5.487741e+106
-5.4800979e+106
-5.4581621e+106
-5.4792665e+106
-5.4575917e+106
-5.4836578e+106
-5.4853449e+106
-5.4865765e+106
-5.4850023e+106
-5.4782307e+106
-5.4768215e+106
-5.4566592e+106
-5.4555448e+106
-5.3975655e+106
-5.3977432e+106
-5.378314e+106
-5.3781369e+106
-5.3964954e+106
-5.3971962e+106
-5.377728e+106
-5.3772029e+106
-5.396212e+106
-5.3768861e+106
-5.3957789e+106
-5.3763478e+106
-5.3757838e+106
-5.3952418e+106
-5.3944415e+106
-5.3752008e+106
-5.3934327e+106
-5.3940135e+106
-5.3748042e+106
-5.3741672e+106
-5.3919204e+106
-5.3928481e+106
-5.3734841e+106
-5.3727113e+106
-5.391186e+106
-5.3903883e+106
-5.3720122e+106
-5.3711633e+106
-5.3895674e+106
-5.3885089e+106
-5.3702781e+106
-5.3694601e+106
-5.3991943e+106
-5.3997898e+106
-5.3800889e+106
-5.3796078e+106
-5.3999715e+106
-5.400311e+106
-5.3807898e+106
-5.3804639e+106
-5.3988496e+106
-5.3985355e+106
-5.3793069e+106
-5.3789539e+106
-5.3977412e+106
-5.3982118e+106
-5.3785969e+106
-5.3783169e+106
-5.4020318e+106
-5.4022046e+106
-5.3826686e+106
-5.3824509e+106
-5.3821827e+106
-5.4018982e+106
-5.4014225e+106
-5.3818465e+106
-5.4010368e+106
-5.4012621e+106
-5.3816849e+106
-5.3814195e+106
-5.4004239e+106
-5.4008476e+106
-5.3811331e+106
-5.3808847e+106
-3.8654997e+106
-4.7874134e+106
-4.7712914e+106
-4.7704147e+106
-4.7859859e+106
-4.7557182e+106
-4.7395269e+106
-4.7549699e+106
-4.8869044e+106
-4.795881e+106
-4.9263064e+106
-4.9659731e+106
-4.703669e+106
-4.3095596e+106
-4.1081019e+106
-4.1039319e+106
-4.6096479e+106
-4.4966706e+106
-5.2427292e+106
-5.290511e+106
-5.2417084e+106
-5.2894032e+106
-5.1661857e+106
-5.1661212e+106
-5.2024447e+106
-5.2020792e+106
-5.1673146e+106
-5.2036409e+106
-5.166483e+106
-5.2028626e+106
-5.241113e+106
-5.288783e+106
-5.2407268e+106
-5.2883772e+106
-5.1656805e+106
-5.1654044e+106
-5.2015824e+106
-5.2012838e+106
-5.1661756e+106
-5.2019427e+106
-5.1658712e+106
-5.2017056e+106
-5.239884e+106
-5.2398174e+106
-5.2871246e+106
-5.2870515e+106
-5.2880964e+106
-5.2404114e+106
-5.2399588e+106
-5.2873252e+106
-5.1054838e+106
-5.1354975e+106
-5.1052341e+106
-5.1352157e+106
-5.0536058e+106
-5.0533589e+106
-5.0791244e+106
-5.0789408e+106
-5.0530761e+106
-5.0527066e+106
-5.0786087e+106
-5.078102e+106
-5.1048508e+106
-5.104435e+106
-5.134947e+106
-5.134618e+106
-5.1060687e+106
-5.1362906e+106
-5.1053677e+106
-5.1355091e+106
-5.0533176e+106
-5.0533781e+106
-5.0788303e+106
-5.0788827e+106
-5.0542784e+106
-5.0796644e+106
-5.0535972e+106
-5.0790768e+106
-5.1050979e+106
-5.105226e+106
-5.135265e+106
-5.1353269e+106
-5.0071198e+106
-5.030696e+106
-5.0064433e+106
-5.0299659e+106
-4.9634678e+106
-4.9632723e+106
-4.9844215e+106
-4.98427e+106
-4.9644043e+106
-4.9853875e+106
-4.9638687e+106
-4.9848338e+106
-5.006e+106
-5.005954e+106
-5.0295933e+106
-5.0296375e+106
-4.9236036e+106
-4.9435589e+106
-4.9233268e+106
-4.943338e+106
-4.9244027e+106
-4.9444872e+106
-4.9240858e+106
-4.9440009e+106
-4.905392e+106
-4.905012e+106
-4.8862152e+106
-4.8497298e+106
-4.8857296e+106
-4.9046167e+106
-4.9043055e+106
-4.8484066e+106
-4.8852117e+106
-4.8854641e+106
-4.8113425e+106
-4.8098255e+106
-4.9029764e+106
-4.9028712e+106
-4.8464314e+106
-4.8839132e+106
-4.8840036e+106
-4.9038898e+106
-4.90332e+106
-4.8470238e+106
-4.884261e+106
-4.8848723e+106
-4.9227941e+106
-4.9430512e+106
-4.9222056e+106
-4.9424048e+106
-4.8080865e+106
-4.8079332e+106
-4.9218001e+106
-4.9420546e+106
-4.9217806e+106
-4.9420822e+106
-4.9623117e+106
-4.9836891e+106
-4.9623189e+106
-4.9835861e+106
-4.963151e+106
-4.9843139e+106
-4.9626105e+106
-4.9839406e+106
-5.0061243e+106
-5.0299003e+106
-5.0058266e+106
-5.0296253e+106
-5.0056145e+106
-5.0293936e+106
-5.0054868e+106
-5.0291498e+106
-4.7317917e+106
-4.7324536e+106
-4.7708952e+106
-4.7708022e+106
-4.7748145e+106
-4.7366919e+106
-4.7340292e+106
-4.772746e+106
-5.0053587e+106
-5.0288331e+106
-5.0047369e+106
-5.0280985e+106
-4.9615546e+106
-4.9617165e+106
-4.9827499e+106
-4.9828433e+106
-4.9623917e+106
-4.9835916e+106
-4.9618672e+106
-4.9830809e+106
-5.0043454e+106
-5.0045087e+106
-5.02777e+106
-5.0279847e+106
-4.9022101e+106
-4.9023519e+106
-4.8451886e+106
-4.883456e+106
-4.8833569e+106
-4.9028026e+106
-4.9024119e+106
-4.8464495e+106
-4.8834456e+106
-4.8838666e+106
-4.9210176e+106
-4.9412766e+106
-4.9212471e+106
-4.9415099e+106
-4.9217006e+106
-4.9421205e+106
-4.921321e+106
-4.9415871e+106
-4.8081484e+106
-4.806444e+106
-4.9033487e+106
-4.9046219e+106
-4.8436371e+106
-4.8847977e+106
-4.8838772e+106
-4.9024592e+106
-4.9027084e+106
-4.8441205e+106
-4.8834183e+106
-4.8834785e+106
-4.9214122e+106
-4.9418039e+106
-4.9218084e+106
-4.9421295e+106
-4.8047271e+106
-4.803387e+106
-4.9225088e+106
-4.9429099e+106
-4.924035e+106
-4.944357e+106
-4.9630708e+106
-4.984222e+106
-4.9642775e+106
-4.9850237e+106
-5.0049613e+106
-5.0284793e+106
-5.0053149e+106
-5.028731e+106
-4.9619826e+106
-4.9831902e+106
-4.9623253e+106
-4.983563e+106
-5.0058073e+106
-5.0291166e+106
-5.0063825e+106
-5.0294037e+106
-4.7272885e+106
-4.7255619e+106
-4.7669068e+106
-4.7650604e+106
-4.7711548e+106
-4.7312425e+106
-4.7288708e+106
-4.7687566e+106
-5.238022e+106
-5.2846139e+106
-5.2371517e+106
-5.283485e+106
-5.1628242e+106
-5.1616399e+106
-5.1983236e+106
-5.1968618e+106
-5.1640087e+106
-5.1997504e+106
-5.1634808e+106
-5.1991579e+106
-5.2361404e+106
-5.2824643e+106
-5.2347883e+106
-5.2811596e+106
-5.2397898e+106
-5.2870285e+106
-5.2391808e+106
-5.2862557e+106
-5.1640691e+106
-5.2002001e+106
-5.1640391e+106
-5.1999153e+106
-5.1651438e+106
-5.2011106e+106
-5.1644506e+106
-5.2006167e+106
-5.2386158e+106
-5.2382925e+106
-5.2856355e+106
-5.2851011e+106
-5.1040847e+106
-5.1033413e+106
-5.1343496e+106
-5.1335994e+106
-5.0521888e+106
-5.0776192e+106
-5.0514514e+106
-5.0769216e+106
-5.0511988e+106
-5.0514059e+106
-5.0766657e+106
-5.0767602e+106
-5.1030169e+106
-5.1031237e+106
-5.1332647e+106
-5.133333e+106
-5.0521991e+106
-5.052226e+106
-5.0771725e+106
-5.0767654e+106
-5.0517643e+106
-5.0519621e+106
-5.0770208e+106
-5.077124e+106
-5.103276e+106
-5.1334384e+106
-5.1031621e+106
-5.1330615e+106
-5.1029413e+106
-5.1023169e+106
-5.1326039e+106
-5.1316525e+106
-4.0532471e+106
-4.2367847e+106
-4.3784681e+106
-4.3722631e+106
-4.2293806e+106
-4.0496333e+106
-4.3690536e+106
-4.3688912e+106
-4.2269646e+106
-4.2289794e+106
-4.59646e+106
-4.5284861e+106
-4.5220163e+106
-4.590984e+106
-4.6953477e+106
-4.6483311e+106
-4.6442547e+106
-4.6923869e+106
-4.6910049e+106
-4.6420118e+106
-4.6399049e+106
-4.6892428e+106
-4.5177744e+106
-4.515633e+106
-4.5877022e+106
-4.5850158e+106
-4.5114526e+106
-4.5142107e+106
-4.5835461e+106
-4.5816257e+106
-4.6380207e+106
-4.6361634e+106
-4.6880603e+106
-4.6857389e+106
-4.6365199e+106
-4.636039e+106
-4.6851725e+106
-4.6837332e+106
-4.5139351e+106
-4.5116775e+106
-4.5819539e+106
-4.5823881e+106
-5.0979919e+106
-5.0970747e+106
-5.1109398e+106
-5.1119136e+106
-5.1260083e+106
-5.1416655e+106
-5.1405063e+106
-5.124937e+106
-5.0484034e+106
-5.0490034e+106
-5.0607111e+106
-5.0600347e+106
-5.0716894e+106
-5.0724649e+106
-5.0852019e+106
-5.0843182e+106
-5.0588703e+106
-5.0478703e+106
-5.0594675e+106
-5.0473684e+106
-5.0835946e+106
-5.0710393e+106
-5.0703978e+106
-5.0828571e+106
-4.2097389e+106
-4.202835e+106
-4.4370799e+106
-4.4307764e+106
-4.3406853e+106
-4.3327025e+106
-4.4278729e+106
-4.3296875e+106
-4.652375e+106
-4.6245228e+106
-4.6203259e+106
-4.6489348e+106
-4.5926347e+106
-4.5505965e+106
-4.5453126e+106
-4.5880268e+106
-4.5390116e+106
-4.541389e+106
-4.5842978e+106
-4.5817213e+106
-4.6459699e+106
-4.6164947e+106
-4.6139795e+106
-4.6434274e+106
-4.7315427e+106
-4.7136534e+106
-4.7110048e+106
-4.7288796e+106
-4.6955085e+106
-4.6754267e+106
-4.6725031e+106
-4.692725e+106
-4.6679422e+106
-4.6701103e+106
-4.6907436e+106
-4.6889486e+106
-4.7269088e+106
-4.7089468e+106
-4.707246e+106
-4.7250767e+106
-4.7235791e+106
-4.7059318e+106
-4.7037606e+106
-4.7213992e+106
-4.6875671e+106
-4.6665503e+106
-4.6650249e+106
-4.6855789e+106
-4.6651127e+106
-4.6648586e+106
-4.6851004e+106
-4.6855223e+106
-4.7207748e+106
-4.7029255e+106
-4.7037543e+106
-4.7216971e+106
-4.5807239e+106
-4.5376005e+106
-4.5356688e+106
-4.579151e+106
-4.6114914e+106
-4.6129389e+106
-4.6421275e+106
-4.6407005e+106
-4.6407502e+106
-4.6116146e+106
-4.7044792e+106
-4.7227098e+106
-4.7388095e+106
-4.7379527e+106
-4.7546185e+106
-4.7552718e+106
-4.7381474e+106
-4.7399733e+106
-4.75648e+106
-4.7546839e+106
-4.7908699e+106
-4.7730383e+106
-4.7712533e+106
-4.7888089e+106
-4.7880965e+106
-4.7708727e+106
-4.771204e+106
-4.7878673e+106
-4.7645036e+106
-4.7482179e+106
-4.745859e+106
-4.7623361e+106
-4.7419389e+106
-4.7439827e+106
-4.7606192e+106
-4.7585768e+106
-4.7786639e+106
-4.7805605e+106
-4.7978138e+106
-4.795988e+106
-4.7943789e+106
-4.7769472e+106
-4.7750329e+106
-4.792681e+106
-4.832175e+106
-4.8146969e+106
-4.8131165e+106
-4.8307482e+106
-4.8099611e+106
-4.8116071e+106
-4.8293274e+106
-4.8277515e+106
-4.8483881e+106
-4.8495896e+106
-4.867854e+106
-4.8668354e+106
-4.8655834e+106
-4.847005e+106
-4.8455052e+106
-4.8641984e+106
-4.8260713e+106
-4.808202e+106
-4.8061311e+106
-4.8238805e+106
-4.8042336e+106
-4.8050637e+106
-4.8225144e+106
-4.8211002e+106
-4.8416675e+106
-4.8439006e+106
-4.862652e+106
-4.8602628e+106
-4.8583426e+106
-4.8399535e+106
-4.8382189e+106
-4.8563177e+106
-5.0149346e+106
-5.004511e+106
-5.015275e+106
-5.0041987e+106
-5.0261997e+106
-5.0376986e+106
-5.0371267e+106
-5.0257589e+106
-5.0035027e+106
-5.0140966e+106
-5.0038571e+106
-5.0145362e+106
-5.0253177e+106
-5.0366553e+106
-5.0248694e+106
-5.0361907e+106
-4.9637626e+106
-4.973252e+106
-4.9727385e+106
-4.9632002e+106
-4.962189e+106
-4.9626724e+106
-4.9722138e+106
-4.9716378e+106
-4.9923289e+106
-4.9828507e+106
-4.9929108e+106
-4.9823463e+106
-4.9740093e+106
-4.9643757e+106
-4.9740504e+106
-4.9644106e+106
-4.9838478e+106
-4.9941341e+106
-4.9938412e+106
-4.9837004e+106
-4.9735438e+106
-4.9642376e+106
-4.9738085e+106
-4.9640334e+106
-4.9834606e+106
-4.993575e+106
-4.9831905e+106
-4.993273e+106
-5.0030813e+106
-5.013659e+106
-5.0130025e+106
-5.0024634e+106
-4.9255216e+106
-4.9248897e+106
-4.935044e+106
-4.9344114e+106
-4.943973e+106
-4.9541959e+106
-4.9535905e+106
-4.9445812e+106
-4.9244652e+106
-4.9238629e+106
-4.9333658e+106
-4.9339216e+106
-4.9434306e+106
-4.9429582e+106
-4.953074e+106
-4.9526229e+106
-4.9356145e+106
-4.9258369e+106
-4.935328e+106
-4.9261348e+106
-4.9449593e+106
-4.9547024e+106
-4.9547729e+106
-4.9451729e+106
-4.9354634e+106
-4.9261957e+106
-4.9355953e+106
-4.9260458e+106
-4.9450573e+106
-4.954644e+106
-4.9449303e+106
-4.9544664e+106
-4.9047599e+106
-4.9049841e+106
-4.9160809e+106
-4.91633e+106
-4.9163434e+106
-4.9161579e+106
-4.9048288e+106
-4.9045952e+106
-4.8892858e+106
-4.8890116e+106
-4.9041834e+106
-4.9036263e+106
-4.9156956e+106
-4.9150824e+106
-4.9145702e+106
-4.9139069e+106
-4.9029066e+106
-4.9021875e+106
-4.8866151e+106
-4.8881115e+106
-4.9013406e+106
-4.9002457e+106
-4.9130255e+106
-4.9118393e+106
-4.9107511e+106
-4.9095414e+106
-4.8990431e+106
-4.897871e+106
-4.8848129e+106
-4.8826012e+106
-4.9313818e+106
-4.9229486e+106
-4.9325956e+106
-4.9217321e+106
-5.3424862e+106
-5.3417535e+106
-5.3411534e+106
-5.3405798e+106
-5.3383225e+106
-5.3376136e+106
-5.3390765e+106
-5.3399987e+106
-5.3454071e+106
-5.3449969e+106
-5.3446325e+106
-5.3443304e+106
-5.3441479e+106
-5.3436158e+106
-5.3431498e+106
-5.3427925e+106
-5.3464835e+106
-5.3461442e+106
-5.3469852e+106
-5.3473932e+106
-5.3453883e+106
-5.345356e+106
-5.3455988e+106
-5.3459648e+106
-5.3486656e+106
-5.3492027e+106
-5.3480628e+106
-5.348315e+106
-5.3479484e+106
-5.3475566e+106
-5.3473254e+106
-5.347353e+106
-5.230328e+106
-4.9992538e+106
-5.2056324e+106
-5.200839e+106
-5.0066269e+106
-5.2099316e+106
-5.2147273e+106
-5.3917769e+106
-5.3952017e+106
-5.2397471e+106
-5.340128e+106
-5.3369119e+106
-5.3843965e+106
-5.3884743e+106
-5.2346721e+106
-5.3339843e+106
-5.3301101e+106
-5.4163733e+106
-5.4183547e+106
-5.4269948e+106
-5.4251717e+106
-5.4530418e+106
-5.4512435e+106
-5.412395e+106
-5.4143358e+106
-5.423268e+106
-5.4213019e+106
-5.4493225e+106
-5.4472993e+106
-5.4564519e+106
-5.4551276e+106
-5.4562233e+106
-5.4573796e+106
-5.4591317e+106
-5.4580661e+106
-5.4574321e+106
-5.4583213e+106
-5.447881e+106
-5.4546128e+106
-5.4535449e+106
-5.4469548e+106
-5.4095785e+106
-5.4345237e+106
-5.4334996e+106
-5.4085533e+106
-5.4563785e+106
-5.4555191e+106
-5.4487559e+106
-5.4495837e+106
-5.4359727e+106
-5.435229e+106
-5.410327e+106
-5.4111259e+106
-5.4588244e+106
-5.4594562e+106
-5.4524724e+106
-5.4518788e+106
-5.4139926e+106
-5.4387597e+106
-5.4382593e+106
-5.4134441e+106
-5.4571823e+106
-5.4581609e+106
-5.4512506e+106
-5.4503555e+106
-5.4367469e+106
-5.4376782e+106
-5.4128845e+106
-5.4119211e+106
-5.4610303e+106
-5.4615306e+106
-5.4624333e+106
-5.4618061e+106
-5.4610282e+106
-5.4601818e+106
-5.4589603e+106
-5.4599682e+106
-5.4232169e+106
-5.4250195e+106
-5.4318647e+106
-5.4335762e+106
-5.4597409e+106
-5.4581617e+106
-5.4198987e+106
-5.4214933e+106
-5.4302079e+106
-5.4286063e+106
-5.4565303e+106
-5.4547889e+106
-5.4685257e+106
-5.4678807e+106
-5.4679854e+106
-5.46749e+106
-5.4667584e+106
-5.4656607e+106
-5.4673047e+106
-5.466365e+106
-5.4656674e+106
-5.4649086e+106
-5.4650209e+106
-5.4644208e+106
-5.463544e+106
-5.4623446e+106
-5.4642011e+106
-5.4631743e+106
-5.4578355e+106
-5.4652344e+106
-5.4646788e+106
-5.4572917e+106
-5.4632031e+106
-5.4640707e+106
-5.4558918e+106
-5.4567136e+106
-5.4426852e+106
-5.4175401e+106
-5.4167562e+106
-5.4418577e+106
-5.4182264e+106
-5.4436321e+106
-5.4432001e+106
-5.4179232e+106
-5.441269e+106
-5.4408153e+106
-5.415872e+106
-5.4163002e+106
-5.4153719e+106
-5.4402365e+106
-5.4393577e+106
-5.4145281e+106
-5.4618431e+106
-5.4625255e+106
-5.4546068e+106
-5.4552637e+106
-5.4601562e+106
-5.4610984e+106
-5.4530833e+106
-5.4539193e+106
-5.3296913e+106
-5.3276009e+106
-5.3568806e+106
-5.3980529e+106
-5.401434e+106
-5.2443931e+106
-5.3463037e+106
-5.3427684e+106
-5.4041629e+106
-5.4064732e+106
-5.2505e+106
-5.3516376e+106
-5.3490991e+106
-5.4763817e+106
-5.4322628e+106
-5.4333583e+106
-5.4417064e+106
-5.4674408e+106
-5.4406492e+106
-5.466434e+106
-5.4344177e+106
-5.4354208e+106
-5.4435554e+106
-5.4426568e+106
-5.4689063e+106
-5.4682909e+106
-5.4294922e+106
-5.4311079e+106
-5.4395599e+106
-5.4380838e+106
-5.4653737e+106
-5.4641747e+106
-5.4263714e+106
-5.4279154e+106
-5.436637e+106
-5.4350908e+106
-5.462805e+106
-5.4612749e+106
-5.4913882e+106
-5.4917459e+106
-5.49218e+106
-5.4919262e+106
-5.4831673e+106
-5.4611568e+106
-5.4761779e+106
-5.4763055e+106
-5.4764327e+106
-5.4764702e+106
-5.4760892e+106
-5.4753842e+106
-5.4756939e+106
-5.4762411e+106
-5.4750076e+106
-5.4748742e+106
-5.4750387e+106
-5.4753457e+106
-5.4745774e+106
-5.4743815e+106
-5.4735053e+106
-5.473856e+106
-5.472769e+106
-5.4727061e+106
-5.4646421e+106
-5.4645591e+106
-5.4231489e+106
-5.4495364e+106
-5.4495436e+106
-5.4230412e+106
-5.4725446e+106
-5.4643944e+106
-5.4720726e+106
-5.4639809e+106
-5.4488969e+106
-5.4493935e+106
-5.4229621e+106
-5.4224264e+106
-5.4716986e+106
-5.4713493e+106
-5.4632806e+106
-5.4636275e+106
-5.4221887e+106
-5.4485579e+106
-5.4483629e+106
-5.4219419e+106
-5.4218241e+106
-5.448045e+106
-5.4474524e+106
-5.4213177e+106
-5.4709172e+106
-5.4702632e+106
-5.4622814e+106
-5.4628452e+106
-5.472827e+106
-5.4730259e+106
-5.4734068e+106
-5.4730515e+106
-5.4713877e+106
-5.4723151e+106
-5.4725943e+106
-5.4718449e+106
-5.4694162e+106
-5.4697877e+106
-5.4618538e+106
-5.4615322e+106
-5.4210161e+106
-5.4470394e+106
-5.446839e+106
-5.4207512e+106
-5.4683852e+106
-5.4690405e+106
-5.4612103e+106
-5.4606501e+106
-5.4459821e+106
-5.4465595e+106
-5.4205982e+106
-5.4199943e+106
-5.4712924e+106
-5.4707671e+106
-5.470417e+106
-5.4707888e+106
-5.4701015e+106
-5.4696663e+106
-5.4685807e+106
-5.469181e+106
-5.4673425e+106
-5.4678712e+106
-5.4602004e+106
-5.4597142e+106
-5.4658911e+106
-5.4667325e+106
-5.4591775e+106
-5.4584433e+106
-5.4452748e+106
-5.4455659e+106
-5.4196002e+106
-5.4192845e+106
-5.4441028e+106
-5.444826e+106
-5.4189614e+106
-5.4183887e+106
-3.8453172e+106
-5.3581473e+106
-5.3583433e+106
-5.3573475e+106
-5.3578405e+106
-5.3571917e+106
-5.3567907e+106
-5.3562638e+106
-5.3556726e+106
-5.3547284e+106
-5.355306e+106
-5.3534884e+106
-5.3542236e+106
-5.3528169e+106
-5.3520104e+106
-5.3511332e+106
-5.3502139e+106
-5.3593843e+106
-5.3598692e+106
-5.3602346e+106
-5.3605556e+106
-5.3591383e+106
-5.358865e+106
-5.3583184e+106
-5.3585812e+106
-5.3617907e+106
-5.3621434e+106
-5.3616144e+106
-5.3612539e+106
-5.3608797e+106
-5.3611129e+106
-5.3604223e+106
-5.360633e+106
-3.8708058e+106
-4.7966005e+106
-4.7827305e+106
-4.7820529e+106
-4.7953647e+106
-4.769344e+106
-4.7560811e+106
-4.7691688e+106
-4.9049167e+106
-4.9051908e+106
-4.8491783e+106
-4.8860868e+106
-4.885879e+106
-4.8486105e+106
-4.8097507e+106
-4.8107346e+106
-4.9237028e+106
-4.9438322e+106
-4.9240923e+106
-4.9441811e+106
-4.963984e+106
-4.9641969e+106
-4.9853246e+106
-4.736439e+106
-4.7352469e+106
-4.7729198e+106
-4.7740756e+106
-4.2388913e+106
-4.3823277e+106
-4.2399833e+106
-4.3816557e+106
-4.0574866e+106
-4.5261192e+106
-4.6951396e+106
-4.6481682e+106
-4.6490504e+106
-4.69578e+106
-4.5286384e+106
-4.5261823e+106
-4.5950291e+106
-4.5961944e+106
-5.2645018e+106
-5.2405372e+106
-5.2649383e+106
-5.2399477e+106
-5.2900943e+106
-5.3195159e+106
-5.3188194e+106
-5.2894942e+106
-5.239222e+106
-5.2635521e+106
-5.2395358e+106
-5.2640096e+106
-5.2890325e+106
-5.3183913e+106
-5.2886606e+106
-5.3181142e+106
-5.1621645e+106
-5.1797939e+106
-5.1798018e+106
-5.162105e+106
-5.1621398e+106
-5.162093e+106
-5.1797223e+106
-5.1796337e+106
-5.2180188e+106
-5.1976025e+106
-5.218313e+106
-5.1974433e+106
-5.1973305e+106
-5.2179078e+106
-5.1973971e+106
-5.2179752e+106
-5.1805167e+106
-5.1632577e+106
-5.1809354e+106
-5.1627369e+106
-5.1988181e+106
-5.2196438e+106
-5.2190207e+106
-5.1982847e+106
-5.1798186e+106
-5.1624068e+106
-5.180146e+106
-5.1621713e+106
-5.1979581e+106
-5.218689e+106
-5.1976723e+106
-5.2184056e+106
-5.2390427e+106
-5.2633669e+106
-5.2630951e+106
-5.2387148e+106
-5.3179331e+106
-5.2884549e+106
-5.2881075e+106
-5.3175242e+106
-5.238636e+106
-5.2385688e+106
-5.2629995e+106
-5.2628569e+106
-5.317399e+106
-5.2880083e+106
-5.3174559e+106
-5.2880147e+106
-5.1619859e+106
-5.1793939e+106
-5.1794299e+106
-5.1618834e+106
-5.1615345e+106
-5.1617237e+106
-5.1792642e+106
-5.1789966e+106
-5.2173215e+106
-5.1969892e+106
-5.2174614e+106
-5.1969255e+106
-5.1966808e+106
-5.2172366e+106
-5.1968568e+106
-5.2173174e+106
-5.1796024e+106
-5.1622206e+106
-5.1796702e+106
-5.1620983e+106
-5.1973017e+106
-5.2178332e+106
-5.2175099e+106
-5.1971027e+106
-5.1793427e+106
-5.1620007e+106
-5.1794607e+106
-5.161932e+106
-5.1969991e+106
-5.2174176e+106
-5.1969397e+106
-5.217389e+106
-5.2379573e+106
-5.2620547e+106
-5.261979e+106
-5.2378268e+106
-5.2378447e+106
-5.2620027e+106
-5.2378297e+106
-5.2619387e+106
-5.3162059e+106
-5.315909e+106
-5.2869581e+106
-5.286775e+106
-5.286853e+106
-5.2867915e+106
-5.3158565e+106
-5.3159521e+106
-5.2879445e+106
-5.3174659e+106
-5.3171086e+106
-5.287587e+106
-5.2624672e+106
-5.2384651e+106
-5.2627604e+106
-5.2381149e+106
-5.2379275e+106
-5.2379674e+106
-5.2622513e+106
-5.262073e+106
-5.2870472e+106
-5.2872162e+106
-5.3165744e+106
-5.316337e+106
-5.1159966e+106
-5.1015187e+106
-5.1159193e+106
-5.1015291e+106
-5.130392e+106
-5.1464326e+106
-5.1463159e+106
-5.1303759e+106
-5.1158373e+106
-5.1014719e+106
-5.115935e+106
-5.1014148e+106
-5.1303426e+106
-5.1462725e+106
-5.1302551e+106
-5.1461735e+106
-5.0500951e+106
-5.0624603e+106
-5.0624581e+106
-5.0500468e+106
-5.049982e+106
-5.062389e+106
-5.0622838e+106
-5.0499041e+106
-5.0748302e+106
-5.0882005e+106
-5.0881732e+106
-5.0748073e+106
-5.0747532e+106
-5.088118e+106
-5.0880828e+106
-5.0746837e+106
-5.0498162e+106
-5.062185e+106
-5.0619739e+106
-5.0495875e+106
-5.0491963e+106
-5.0494162e+106
-5.0617719e+106
-5.0615081e+106
-5.0745619e+106
-5.0879361e+106
-5.0876246e+106
-5.0742973e+106
-5.0738472e+106
-5.0740891e+106
-5.0873934e+106
-5.0871708e+106
-5.1012467e+106
-5.1156976e+106
-5.1154025e+106
-5.1009211e+106
-5.1004893e+106
-5.1007045e+106
-5.1152186e+106
-5.114982e+106
-5.146241e+106
-5.146061e+106
-5.1302083e+106
-5.1299449e+106
-5.1295861e+106
-5.1297857e+106
-5.1459094e+106
-5.1457228e+106
-5.116049e+106
-5.101889e+106
-5.116406e+106
-5.1014633e+106
-5.131016e+106
-5.1472578e+106
-5.1467206e+106
-5.1305658e+106
-5.1010178e+106
-5.1154913e+106
-5.1011987e+106
-5.11575e+106
-5.130307e+106
-5.146451e+106
-5.1300666e+106
-5.1462298e+106
-5.0497516e+106
-5.0621097e+106
-5.0621463e+106
-5.0497134e+106
-5.049757e+106
-5.062177e+106
-5.0622774e+106
-5.0499064e+106
-5.0876114e+106
-5.0744306e+106
-5.0877021e+106
-5.0743952e+106
-5.0880012e+106
-5.0744947e+106
-5.0877602e+106
-5.0746461e+106
-5.0625933e+106
-5.0506049e+106
-5.0629136e+106
-5.0502163e+106
-5.0752163e+106
-5.0885325e+106
-5.088077e+106
-5.0748335e+106
-5.0621021e+106
-5.0499486e+106
-5.0623171e+106
-5.0497604e+106
-5.0746027e+106
-5.0878527e+106
-5.0744283e+106
-5.087695e+106
-5.1009868e+106
-5.115466e+106
-5.1154152e+106
-5.100901e+106
-5.1010507e+106
-5.1155411e+106
-5.1012843e+106
-5.1156765e+106
-5.1462554e+106
-5.1461858e+106
-5.1300664e+106
-5.1299995e+106
-5.1302294e+106
-5.1300998e+106
-5.1462403e+106
-5.1463272e+106
-5.0150607e+106
-5.0041692e+106
-5.0153819e+106
-5.0038014e+106
-5.0267485e+106
-5.0387557e+106
-5.0383253e+106
-5.0263702e+106
-5.0033168e+106
-5.0145025e+106
-5.0035313e+106
-5.0147658e+106
-5.0261059e+106
-5.0380699e+106
-5.0258628e+106
-5.03787e+106
-4.9618946e+106
-4.9718046e+106
-4.9716561e+106
-4.9616668e+106
-4.96156e+106
-4.9615459e+106
-4.9715638e+106
-4.9715801e+106
-4.9923467e+106
-4.9818806e+106
-4.9924874e+106
-4.9817451e+106
-4.9817552e+106
-4.9924249e+106
-4.9816977e+106
-4.9923176e+106
-4.9723581e+106
-4.9625643e+106
-4.9725602e+106
-4.9623739e+106
-4.9827125e+106
-4.9933883e+106
-4.9930075e+106
-4.9824273e+106
-4.9718835e+106
-4.9621442e+106
-4.9721145e+106
-4.9619589e+106
-4.9821979e+106
-4.9927728e+106
-4.9819838e+106
-4.9925774e+106
-5.0032116e+106
-5.0144086e+106
-5.0142899e+106
-5.0030733e+106
-5.0030793e+106
-5.0143344e+106
-5.0031967e+106
-5.0144519e+106
-5.0378436e+106
-5.0377568e+106
-5.025796e+106
-5.0256869e+106
-5.0259111e+106
-5.0257554e+106