/*--------------------------------*- C++ -*----------------------------------*\
  =========                 |
  \\      /  F ield         | OpenFOAM: The Open Source CFD Toolbox
   \\    /   O peration     | Website:  https://openfoam.org
    \\  /    A nd           | Version:  7
     \\/     M anipulation  |
\*---------------------------------------------------------------------------*/
FoamFile
{
    version     2.0;
    format      ascii;
    class       surfaceScalarField;
    location    "9000";
    object      phi;
}
// * * * * * * * * * * * * * * * * * * * * * * * * * * * * * * * * * * * * * //

dimensions      [0 3 -1 0 0 0 0];

internalField   nonuniform List<scalar> 
102230
(
5.7849641e+49
-9.9264128e+49
-9.747678e+49
-1.0544717e+50
-1.023156e+50
-9.5582949e+49
-8.8790553e+49
-9.5645391e+49
-8.8751779e+49
3.2213258e+48
-1.9162473e+49
1.236368e+49
-1.9605789e+49
-1.9719583e+49
-2.3625987e+49
-2.4436776e+49
-1.8968307e+49
1.303485e+49
-1.9985172e+49
-2.5005703e+49
-1.9152836e+49
-2.3914277e+49
2.0377986e+48
-8.577286e+49
-8.351423e+49
2.7157399e+49
-2.2210574e+49
-2.0157399e+49
2.882417e+49
-4.3720993e+50
-2.0948253e+49
-2.3822033e+49
1.6333536e+49
2.019248e+49
-1.7981071e+48
7.8760199e+48
8.1287124e+48
-1.0370574e+50
-1.7479628e+48
-1.8465553e+48
8.5571625e+48
7.8569641e+48
-1.0521627e+50
-1.6700356e+48
-1.9281596e+48
4.4555761e+48
8.3362284e+47
-2.0235789e+49
-2.2885989e+49
-2.2163496e+49
-1.9691014e+49
1.5192114e+48
-1.7738037e+49
-1.5286211e+49
-1.8002624e+49
-1.5239797e+49
4.1562289e+48
-2.2285138e+49
-2.2649193e+49
-2.0155112e+49
-1.9934001e+49
-1.7833678e+49
-1.8120865e+49
-1.5418368e+49
-1.5706985e+49
-1.0195064e+48
-3.5815128e+48
6.3149998e+47
2.7046976e+48
-5.0967607e+48
-3.8774666e+48
-4.0649179e+48
-5.30182e+48
-3.6875897e+48
2.7337647e+48
-4.0137595e+48
-5.3094819e+48
-3.9886495e+48
-5.0702322e+48
4.3741329e+47
-1.9082071e+49
7.7209658e+46
-1.952937e+49
-3.9093161e+48
7.5077394e+46
2.9550331e+48
-4.0161376e+48
-3.9708107e+48
-5.338165e+48
-5.1493512e+48
-3.5272514e+47
-1.992792e+49
-3.7927211e+48
2.9215662e+48
-5.0857394e+48
-3.8835028e+48
-4.0185411e+48
-5.2990584e+48
-1.9603133e+49
-7.8298777e+49
2.2318421e+48
6.1997451e+48
6.6722185e+48
-4.2259252e+48
-4.302923e+48
2.1993142e+48
4.7232011e+48
-5.0467681e+48
-4.9370748e+48
5.0814627e+48
-9.6748106e+49
7.8026631e+49
5.1044083e+48
-4.8949153e+48
-4.7368071e+48
4.984548e+48
-9.7035233e+49
6.2135152e+48
6.3754663e+48
-4.0851718e+48
-4.0674356e+48
1.9697322e+49
2.2255384e+49
-2.0767739e+49
-1.791111e+49
2.1597496e+49
1.7311445e+49
-2.1032745e+49
-1.7067033e+49
-4.1562695e+48
6.9163189e+49
-8.7516749e+49
6.7821753e+49
-8.5334095e+49
4.4775195e+48
7.1142355e+49
-3.9826654e+48
-9.0663112e+49
-3.7425461e+48
3.9248559e+48
4.1799914e+48
-3.593827e+48
-1.8993283e+48
-5.2821733e+48
-5.1651765e+48
3.8392535e+48
4.0247875e+48
-1.6314051e+49
4.0085716e+47
9.4421476e+47
-1.1730637e+48
-1.0689176e+48
5.4451406e+47
-2.0298145e+49
8.0958217e+47
8.4388957e+47
-1.1471902e+48
-1.2559377e+48
3.5319474e+47
1.7774691e+48
1.6359143e+48
-2.3149228e+49
-3.4678846e+47
-3.9096344e+47
1.5636673e+47
1.6658988e+48
1.7084347e+48
-2.3742866e+49
-3.7650625e+47
-4.3405522e+47
-9.5075858e+46
1.7623213e+48
1.7139722e+48
-2.4072095e+49
-3.8635067e+47
-3.6435923e+47
1.6809161e+48
1.7718151e+48
-2.3794979e+49
-3.6695928e+47
-3.7854594e+47
-2.5655867e+48
-1.2043099e+47
2.8733647e+48
-3.6973121e+47
-2.0053406e+49
9.7596025e+46
-7.1933663e+47
-6.5954825e+48
-1.8234355e+49
2.729427e+48
-6.737645e+48
-1.8216757e+49
2.9242797e+48
-1.9842451e+49
8.6779445e+47
4.3423204e+47
-3.5265211e+48
-4.3144177e+48
-4.1651039e+48
-3.430624e+48
6.0193375e+47
-2.9043788e+48
-2.711974e+48
-2.7117616e+48
-2.9467596e+48
8.8732152e+47
-4.4028917e+46
-3.4683421e+48
-4.2161618e+48
-4.3090207e+48
-3.5447949e+48
1.7493537e+47
-2.8860264e+48
-2.9724452e+48
-2.6130882e+48
-2.7492198e+48
8.2742025e+47
2.6165779e+48
-6.5189905e+48
-1.8059019e+49
2.8250249e+48
-7.1415705e+48
-1.8224565e+49
-6.4250375e+47
3.022013e+48
-2.0079328e+49
2.8932844e+48
-2.0037803e+49
4.2928932e+47
7.8167969e+47
-4.2221148e+48
-4.3052937e+48
-3.5286669e+48
-3.481709e+48
8.5071006e+47
-3.5699778e+48
-4.3498991e+48
-4.1911343e+48
-3.4532905e+48
3.4277333e+47
-2.9590633e+48
-2.9979844e+48
-2.7295999e+48
-2.7621303e+48
-3.0170689e+48
-2.7386407e+48
-2.9199718e+48
-2.707852e+48
7.4244131e+47
-4.4255661e+46
8.5831764e+46
-4.2148788e+48
-6.5668174e+46
1.2895777e+47
6.7402414e+47
-8.1198029e+47
-8.4479223e+47
-1.1370697e+48
-1.0784967e+48
-7.4883338e+47
-1.8714381e+47
6.9336724e+47
-1.1281224e+48
-8.3961093e+47
-8.2746881e+47
-1.0927734e+48
-1.5505452e+47
-4.2314195e+48
-7.4274829e+47
-2.1494909e+47
6.7587451e+47
-1.0958695e+48
-8.208403e+47
-8.5458314e+47
-1.1477872e+48
-1.6617415e+47
-4.2636412e+48
-7.5214978e+47
6.8198226e+47
-8.4000227e+47
-8.3147789e+47
-1.1256667e+48
-1.0834271e+48
-4.1335895e+48
-1.099145e+47
-7.5319668e+47
6.3388758e+46
6.7996022e+47
-8.4357248e+47
-8.223609e+47
-1.0942691e+48
-1.1361728e+48
-7.8451525e+47
7.0676973e+47
-1.1312735e+48
-8.4002667e+47
-8.2007963e+47
-1.0826419e+48
-6.2511933e+46
1.9963825e+46
-4.286492e+48
-4.1965742e+48
7.8741288e+47
4.0746953e+46
-4.2217906e+48
8.9582781e+45
7.3814755e+47
-8.2259654e+47
-8.4699396e+47
-1.0877243e+48
-1.1413068e+48
-7.8738047e+47
7.3317388e+47
-8.4290373e+47
-8.2417557e+47
-1.132589e+48
-1.0923192e+48
-4.2539128e+48
2.0702638e+47
-1.8500872e+49
1.4605472e+48
-8.2164919e+47
-8.1054666e+47
1.5156846e+48
-1.8557407e+49
-5.7295647e+46
-7.8807171e+47
-8.0111841e+47
1.4857175e+48
1.525326e+48
2.7383536e+46
-2.2809498e+49
-2.9651326e+47
1.2030652e+48
-1.0539052e+48
-1.0252054e+48
1.1713419e+48
-2.2590571e+49
1.163955e+48
-1.0644205e+48
-1.0349502e+48
1.1967373e+48
-1.6919399e+49
1.3002857e+46
9.2931376e+47
-1.1720149e+48
-1.1498618e+48
9.7434654e+47
-8.8229176e+46
8.93409e+47
8.5829325e+47
-1.1796456e+48
-1.2091758e+48
-2.0843082e+49
1.7192373e+49
-2.2913794e+47
-1.1487845e+48
-1.154016e+48
9.5683681e+47
-2.1554932e+49
9.1235682e+47
-1.6049785e+47
-1.1327327e+48
-1.1490674e+48
9.7638158e+47
9.4325596e+47
3.1072397e+48
-7.1452517e+49
3.879735e+48
4.555959e+48
-5.1279226e+48
-5.5305938e+48
-1.703298e+49
-3.3840043e+47
2.2725451e+49
9.5697677e+47
-1.1911987e+48
-1.1325247e+48
9.5658707e+47
-4.2333996e+47
-1.2074927e+48
-1.144716e+48
8.8845771e+47
8.9694701e+47
-2.1166889e+49
1.6891787e+49
-1.1204205e+48
-1.0990422e+48
9.9661284e+47
-2.1193158e+49
9.0858819e+47
2.2207324e+49
-1.113646e+48
1.0094503e+48
-1.0960627e+48
9.3172628e+47
-7.1747246e+49
4.2702139e+48
4.4125319e+48
-5.0981323e+48
-5.4093049e+48
2.5033196e+47
-1.8008375e+49
1.5075291e+48
-8.0303792e+47
-7.831579e+47
1.4173346e+48
-1.8428072e+49
1.4509568e+48
-8.501585e+47
-7.9917128e+47
1.4520826e+48
-3.6370885e+47
1.1779384e+48
-9.9423794e+47
-1.0697026e+48
1.1654054e+48
-1.018334e+48
-1.0012799e+48
1.2156889e+48
1.1351744e+48
4.1330599e+48
-9.0481491e+49
-3.876848e+48
3.6824048e+48
4.4248198e+48
-3.3759081e+48
-9.0314356e+49
-3.9087549e+48
3.9342154e+48
4.1738879e+48
-3.3929524e+48
-4.8290502e+48
-6.5727547e+49
-6.4245005e+49
4.8484566e+48
-4.7004586e+48
1.6696829e+47
-2.1511465e+47
2.1926102e+47
-2.3825082e+47
2.0751642e+47
7.1807075e+49
-7.7549318e+48
-1.1791944e+49
-5.7633411e+48
4.4719726e+48
5.0889395e+48
-3.9167123e+48
-3.7150778e+48
1.4990608e+49
2.4278601e+47
-5.4154871e+47
-1.8587351e+49
9.6515217e+47
-8.685914e+47
-8.7367365e+47
9.3007603e+47
-2.5500524e+47
1.9690884e+49
1.7514653e+47
8.6153234e+47
-1.1195387e+48
-1.2427515e+48
8.0519798e+47
-1.5250186e+49
2.0181642e+49
9.3986302e+47
-1.1552341e+48
-1.1953343e+48
8.3616744e+47
-1.9014337e+49
-9.0539813e+47
9.4252607e+47
9.4080233e+47
5.6761756e+47
1.5819632e+49
-1.2368554e+48
-1.0971631e+48
9.0543251e+47
7.6634399e+47
1.5392034e+49
5.6096981e+47
-1.1398724e+48
-1.2945929e+48
8.1930543e+47
7.5548147e+47
-6.2388586e+47
4.7476624e+47
-1.1529583e+48
-1.2767403e+48
7.7016611e+47
7.4179566e+47
-1.1350524e+48
-1.2239601e+48
8.6424361e+47
7.5186362e+47
-3.6492659e+48
1.5196048e+47
-2.2835889e+47
2.0036106e+47
-2.5216271e+47
1.8960533e+47
1.8664824e+47
-4.6803454e+48
-2.3454307e+47
-2.4719581e+47
2.0325909e+47
-4.5888708e+48
1.5909366e+47
-2.2849582e+47
1.9655455e+47
-2.5317718e+47
1.8336074e+47
1.7470448e+47
-3.6437621e+48
-2.4142212e+47
1.9778675e+47
-2.5527327e+47
1.7169158e+47
-3.5871159e+48
1.5076756e+47
-2.3722589e+47
1.8687506e+47
-2.6029644e+47
1.767189e+47
-1.8819291e+47
1.7544478e+47
-4.4851493e+48
1.6530707e+47
1.5351564e+47
-2.6609422e+47
-2.8913691e+47
-2.7646868e+47
-4.5889277e+48
1.800123e+47
1.493115e+47
-2.826421e+47
-2.6917815e+47
-4.5884642e+48
1.7188052e+47
1.525613e+47
-2.6272594e+47
-2.8987124e+47
-1.3466536e+47
1.3778024e+47
3.7109216e+47
3.7561988e+47
-5.1889545e+48
-7.7481226e+46
-9.3820049e+46
3.8279472e+47
3.5293264e+47
-5.0539057e+48
-8.3152122e+46
-7.5486012e+46
-9.1586036e+46
6.1281525e+46
3.7998007e+47
3.6568331e+47
-5.1410647e+48
-7.7092014e+46
-8.858644e+46
3.7447421e+47
3.5450489e+47
-5.1733871e+48
-8.4861503e+46
-9.0010691e+46
-3.4309739e+46
3.0298407e+46
3.7215188e+47
3.8054064e+47
-5.2559457e+48
-8.7063279e+46
-7.8514327e+46
3.8373146e+47
3.6229641e+47
-5.1234707e+48
-7.8197246e+46
-7.8321358e+46
-9.659405e+45
3.7532014e+47
3.9612588e+47
-5.1686395e+48
-7.2545542e+46
-7.5897524e+46
3.8327534e+47
3.7125953e+47
-5.2091712e+48
-8.0634572e+46
-7.6548598e+46
-3.1304181e+48
-2.8450553e+48
-2.5593931e+48
-9.6724417e+49
-2.8020916e+48
-2.2889881e+48
-9.6811059e+49
-2.3295014e+48
-6.1750342e+46
1.4639949e+48
1.5525627e+48
-2.6284413e+47
-2.0075497e+49
-1.384372e+47
-2.0193236e+47
1.7414353e+47
-5.918552e+47
-2.2991201e+49
2.5239417e+48
-2.3322878e+49
1.5122971e+48
1.5117742e+48
-2.0012605e+49
-1.7547752e+47
-1.30313e+47
-7.1736521e+47
-7.1694404e+46
6.9370461e+47
1.8939974e+46
-3.4501053e+48
-6.5391166e+45
-5.5330577e+46
-3.4576158e+48
7.3940562e+47
-3.4255852e+48
7.0241178e+47
-3.4071737e+48
3.2225038e+46
7.7638461e+46
-6.3725993e+47
-6.1493387e+47
-4.8141519e+47
-4.9143643e+47
1.0815385e+47
-4.560952e+47
-5.1295592e+47
-4.6321724e+47
-5.2181156e+47
-3.8387187e+46
5.9593242e+46
-4.4669254e+47
-5.0907493e+47
-4.6357583e+47
-5.2959587e+47
1.6994227e+46
-6.3630296e+47
-6.22223e+47
-4.7865694e+47
-4.9361491e+47
-7.1569516e+47
3.7868703e+46
6.8774924e+47
-3.9218765e+46
-3.4390459e+48
1.0275828e+47
-1.1900506e+47
-3.451615e+48
7.4695575e+47
-3.4559858e+48
7.0456191e+47
-3.4455923e+48
3.617979e+46
4.0882221e+46
-3.7110813e+46
-6.3769516e+47
-6.2379794e+47
-4.83147e+47
-4.9358829e+47
2.4945275e+46
-6.2162238e+47
-6.42658e+47
-4.9511114e+47
-4.8026301e+47
1.9551516e+46
2.2450082e+45
-4.464405e+47
-4.552393e+47
-5.1861222e+47
-4.9968637e+47
-5.2585049e+47
-5.1647798e+47
-4.6258402e+47
-4.4685008e+47
5.2539918e+47
2.3928903e+48
-2.2806252e+49
2.6452702e+48
-2.3225279e+49
-3.9379331e+47
1.529723e+48
1.5618527e+48
-2.0112528e+49
-1.018395e+47
-1.8031519e+47
1.4725492e+48
1.5874658e+48
-2.0118667e+49
-1.1245014e+47
-2.0472919e+47
1.5645622e+47
7.3286675e+47
-3.4647989e+48
7.6447584e+47
1.48192e+47
-3.4740395e+48
-1.0866085e+47
8.0251381e+46
7.1387075e+47
-3.4496519e+48
6.9188191e+47
-3.4374761e+48
-7.4215382e+47
8.0963568e+45
7.0502004e+47
-3.4606889e+48
6.3476472e+46
-3.4776142e+48
7.6629721e+47
-3.4511073e+48
7.161737e+47
-3.4342894e+48
1.2523291e+47
1.4121347e+46
-1.4108242e+47
-4.9284988e+47
-6.430656e+47
-6.318794e+47
-4.9765833e+47
1.082082e+46
1.0251528e+47
-6.2787377e+47
-6.5254103e+47
-5.0617294e+47
-4.8562912e+47
9.8234628e+46
-4.6252917e+47
-5.1637812e+47
-4.6707871e+47
-5.3120065e+47
6.5816471e+46
-4.7501181e+47
-5.3389803e+47
-5.2219899e+47
-4.5460869e+47
3.9574324e+46
1.896769e+46
-6.3217339e+47
-6.4386426e+47
-4.913666e+47
-5.0067139e+47
3.6271657e+45
-4.5554734e+47
-5.1183937e+47
-4.6418487e+47
-5.2534532e+47
3.460441e+46
-6.237605e+47
-6.4920032e+47
-5.0108457e+47
-4.8250017e+47
-4.707404e+47
-4.513356e+47
-5.2868802e+47
-5.0984167e+47
-9.015175e+45
-1.7546785e+47
2.8198345e+46
2.0330157e+47
-1.7782146e+47
-1.7142672e+47
-2.4836761e+47
-2.613813e+47
-1.7559617e+47
-2.342754e+46
2.0735017e+47
-1.7406498e+47
-1.7623727e+47
-2.5971799e+47
-2.5211354e+47
7.5108069e+45
-2.3306206e+46
-9.168903e+47
2.2563719e+46
-9.0333406e+47
1.6538641e+47
-2.7719315e+46
-9.1462142e+47
-3.2026349e+46
1.9574407e+47
-1.7158212e+47
-2.4926153e+47
-1.7859563e+47
-2.6193046e+47
-1.672537e+47
-3.7945678e+46
1.9557317e+47
-2.5684468e+47
-1.7425281e+47
-1.7169575e+47
-2.4707562e+47
-3.5618312e+46
-8.976232e+47
1.7156058e+47
-2.0968223e+46
-9.1098795e+47
-2.2073438e+46
1.9829606e+47
-1.7967545e+47
-1.7165544e+47
-2.4845022e+47
-2.6366684e+47
-1.6986217e+47
-4.4223531e+46
1.9958393e+47
-1.7447619e+47
-1.7591301e+47
-2.5963421e+47
-2.5213121e+47
-4.3809062e+46
-9.1918857e+47
-4.720606e+46
-1.6605506e+47
1.9322395e+47
-1.7200183e+47
-1.8031828e+47
-2.4987765e+47
-2.6199068e+47
-1.6548335e+47
1.8571154e+47
-1.7467037e+47
-1.7320481e+47
-2.5702676e+47
-2.473249e+47
-3.9341344e+46
-9.1339471e+47
-8.909897e+47
5.2231108e+45
-1.7613634e+47
-2.4175065e+46
2.0994929e+47
-1.7253535e+47
-1.7563537e+47
-2.5953276e+47
-2.5072999e+47
-1.7897782e+47
2.0700677e+46
2.09382e+47
-1.8048221e+47
-1.7449226e+47
-2.4904389e+47
-2.6422427e+47
-4.3434624e+45
1.268999e+46
-9.094415e+47
-1.9333258e+46
-9.1677874e+47
1.7154952e+47
-2.3356995e+46
-9.1506782e+47
-3.1638795e+46
2.0209219e+47
-1.720748e+47
-1.7885798e+47
-2.503658e+47
-2.6180702e+47
-1.7249942e+47
1.9671778e+47
-1.7105085e+47
-1.7391011e+47
-2.5653007e+47
-2.4624737e+47
-8.9363818e+47
2.4372084e+45
-1.8484629e+47
2.1310637e+47
-1.8029082e+47
-1.7434878e+47
-2.5052067e+47
-2.6438349e+47
-1.8624376e+47
-8.8015401e+45
2.193962e+47
-2.6249519e+47
-1.7877665e+47
-1.7455254e+47
-2.5308323e+47
4.6895976e+45
-9.0747975e+47
-4.6937886e+45
-9.2204127e+47
-1.8652847e+46
-1.7554022e+47
2.0879349e+47
-1.792202e+47
-1.7343338e+47
-2.5170574e+47
-2.6194635e+47
-1.7951152e+47
2.1200824e+47
-1.7157452e+47
-1.756941e+47
-2.5952902e+47
-2.4782681e+47
-1.2619896e+46
-9.1692774e+47
-9.0050106e+47
-3.443987e+48
3.1871789e+47
1.9756346e+47
-2.2217434e+47
-2.624838e+47
1.7273027e+47
3.1584767e+47
1.9606679e+47
-2.3571681e+47
1.589695e+47
-4.0388499e+48
2.7504245e+45
-1.4509144e+47
3.289873e+47
-1.4807378e+47
3.4004581e+47
1.3847425e+46
4.0368591e+48
-2.644226e+46
-5.0263098e+48
-1.9617449e+47
-1.8840143e+47
2.8529918e+47
2.7967363e+47
-4.9974485e+48
-1.8812699e+47
2.8340782e+47
-1.9281627e+47
2.919853e+47
-1.5111536e+46
-1.5152447e+47
3.3227551e+47
-1.4529387e+47
3.257775e+47
3.8840451e+46
3.9922459e+48
-4.9440323e+48
-6.6154964e+46
-1.9133722e+47
-1.85358e+47
2.8917914e+47
2.7854585e+47
4.0683538e+48
-5.0391715e+48
-1.8922092e+47
2.8287437e+47
-1.9708528e+47
2.8552965e+47
2.9245786e+46
-4.3734256e+46
-1.4695455e+47
-1.4296711e+47
3.3565595e+47
3.2324729e+47
3.2585081e+47
-1.4890548e+47
-1.5543685e+47
3.3036001e+47
-3.8455502e+48
-4.3386028e+46
2.1463053e+46
-2.1741678e+47
2.3432369e+47
-2.2394507e+47
2.3840521e+47
-4.8809519e+46
3.3692413e+46
-4.8468428e+48
-2.2674066e+47
-2.3455243e+47
2.1077376e+47
2.1302389e+47
3.7890479e+48
-4.7533197e+48
-8.9133249e+46
-2.268781e+47
-2.2250553e+47
2.1994042e+47
2.0883346e+47
-7.1925432e+46
-2.1671954e+47
-2.1192698e+47
2.4224131e+47
2.3130239e+47
-3.8282241e+48
-4.8925124e+45
-2.1658976e+47
2.3426375e+47
-2.200793e+47
2.4355307e+47
1.724959e+46
3.8421432e+48
-4.8565655e+48
-2.3269593e+47
-2.2532245e+47
2.1492695e+47
2.0953609e+47
-4.7920125e+48
-2.2532174e+47
2.121857e+47
-2.3021752e+47
2.1943665e+47
-2.2305854e+47
-2.1581652e+47
2.3695045e+47
2.3106598e+47
-3.7343178e+48
-1.4223724e+46
-2.382226e+47
1.9581903e+47
-2.4344967e+47
2.0314432e+47
4.4882759e+46
3.7679753e+48
-4.8081237e+48
-7.8443164e+46
-2.451295e+47
-2.4057737e+47
1.9803538e+47
1.8936522e+47
-4.730867e+48
-1.0318767e+46
-2.3898193e+47
1.9162699e+47
-2.4694657e+47
1.9619055e+47
-4.1405701e+46
-2.4359345e+47
-2.3761389e+47
2.0027778e+47
1.9386796e+47
4.1913943e+46
-3.7332209e+48
-9.5222355e+46
-2.539663e+47
1.9341596e+47
-2.512054e+47
1.8357018e+47
-3.6997928e+48
-4.1887102e+45
-2.4792413e+47
1.8577499e+47
-2.5544868e+47
1.9091952e+47
-6.324808e+46
2.8183079e+46
1.6770779e+47
1.6837731e+47
-2.7040117e+47
-4.6258842e+48
-2.8417307e+47
-1.1428692e+47
1.7486476e+47
1.6198894e+47
-4.6755515e+48
-2.7709485e+47
-2.7556538e+47
9.6876301e+46
-1.56494e+49
-5.7774524e+47
8.1408149e+47
8.2624358e+47
-1.186313e+48
-1.2870898e+48
9.8932575e+46
3.6898864e+48
-1.2925238e+47
1.8173367e+47
1.6439088e+47
-4.6141103e+48
-2.7208404e+47
-2.6828148e+47
3.739717e+48
1.7252989e+47
1.6803032e+47
-4.6973313e+48
-2.8413917e+47
-2.6817724e+47
-8.7629239e+46
4.8150398e+48
-2.4595609e+47
1.8807124e+47
-2.5658277e+47
1.8838838e+47
-1.6229127e+49
-2.8312987e+45
8.5675508e+47
8.9833508e+47
-1.2104658e+48
-1.2147621e+48
4.7318465e+48
-1.0743559e+47
-2.4648549e+47
1.978427e+47
-2.4517687e+47
1.840227e+47
6.9495503e+46
3.7109756e+48
-9.4244605e+46
-2.3968108e+47
2.0067792e+47
-2.3652822e+47
1.8841871e+47
3.7604802e+48
-2.3866496e+47
1.9192375e+47
-2.48811e+47
1.9209684e+47
-5.7751724e+46
-2.3811969e+47
1.9407335e+47
-2.4621419e+47
1.9662558e+47
-7.9091933e+46
-2.3809571e+47
2.0371708e+47
-2.3512589e+47
1.9175664e+47
-1.6892402e+47
-4.8131099e+46
-2.0517729e+49
-1.2420748e+48
-1.1659311e+48
9.3678551e+47
8.4895441e+47
-1.9838673e+49
-5.4475823e+47
8.3465966e+47
-1.2556596e+48
-1.3220615e+48
7.7757476e+47
-3.7176172e+48
-9.2041619e+46
4.7694886e+48
-2.3255028e+47
1.9967984e+47
-2.4692885e+47
1.9785449e+47
1.1462998e+47
3.7491684e+48
-4.7921694e+48
-1.6487062e+47
-2.4002074e+47
-2.4398493e+47
2.0162308e+47
1.8442557e+47
-4.7264826e+48
-2.3518949e+47
1.9354937e+47
-2.5111987e+47
1.8948613e+47
-1.3534689e+47
4.8306974e+48
-2.3704066e+47
-2.4024367e+47
2.0540392e+47
1.902441e+47
1.3254025e+47
3.7187857e+48
-1.9440278e+47
1.8052437e+47
1.5926575e+47
-4.6582153e+48
-2.7778948e+47
-2.6820146e+47
3.6882824e+48
1.7107715e+47
1.6304663e+47
-4.6121347e+48
-2.8683883e+47
-2.6486073e+47
1.1625203e+47
-1.7498589e+47
-2.4757185e+47
1.9606707e+47
-2.5295453e+47
1.7826729e+47
-2.4305698e+47
1.8639661e+47
-2.5909109e+47
1.8331472e+47
-3.4335584e+47
-1.5822534e+49
8.2746017e+47
8.605549e+47
-1.1374701e+48
-1.2841615e+48
1.4819101e+47
3.6506016e+48
1.8885819e+47
1.6429757e+47
-4.5700923e+48
-2.687843e+47
-2.5804761e+47
3.720697e+48
1.8068439e+47
1.6772295e+47
-4.6735572e+48
-2.8206654e+47
-2.5873466e+47
-1.3722881e+47
4.7914629e+48
-2.3757891e+47
1.9504452e+47
-2.559526e+47
1.8657709e+47
-1.6101158e+49
8.5277829e+47
9.5072157e+47
-1.1563718e+48
-1.1951855e+48
4.6705013e+48
-2.3776116e+47
2.0264456e+47
-2.4397237e+47
1.8131635e+47
1.2595404e+47
3.6707682e+48
-2.3242476e+47
2.0541015e+47
-2.3830271e+47
1.8454414e+47
-3.7455798e+48
-1.2359044e+47
4.8233275e+48
-2.3020764e+47
2.0239098e+47
-2.4743711e+47
1.9520027e+47
-2.3048708e+47
2.0001552e+47
-2.4925591e+47
1.9063141e+47
4.7024845e+48
-2.3103049e+47
2.0856124e+47
-2.3733673e+47
1.881862e+47
2.1331271e+47
-2.0165627e+49
-1.2036195e+48
-1.2454806e+48
9.3260721e+47
8.3048717e+47
-2.0107311e+49
8.0983981e+47
-1.2380762e+48
-1.3149013e+48
7.8379201e+47
-4.0279042e+48
-1.1898119e+47
1.1538766e+47
-1.4402409e+47
3.2917747e+47
-1.5975525e+47
3.2467475e+47
1.1788384e+47
3.9584653e+48
-4.8920533e+48
-1.8384938e+47
-1.8735074e+47
2.955317e+47
2.7517613e+47
1.2952701e+47
-5.0044486e+48
-1.8380931e+47
2.8637931e+47
-2.0051418e+47
2.7968818e+47
-1.4148106e+47
3.3826649e+47
-1.4672623e+47
3.169287e+47
-4.0099605e+48
-7.5114918e+46
-1.4508506e+47
3.2479354e+47
-1.5652927e+47
3.2805443e+47
9.0952394e+46
4.021214e+48
-5.0078547e+48
-1.9251361e+47
2.8803228e+47
-1.9353745e+47
2.7307618e+47
-4.9651842e+48
-1.8616099e+47
2.8305898e+47
-1.9922415e+47
2.8317641e+47
-1.5077782e+47
-1.5364336e+47
3.2998071e+47
3.1462284e+47
-3.8062321e+48
-8.3629659e+46
-2.1263986e+47
-2.2532892e+47
2.3392585e+47
2.3473374e+47
-9.55508e+46
-2.192341e+47
2.1511806e+47
-2.3343536e+47
2.1298768e+47
3.8282071e+48
-1.3172631e+47
-2.269784e+47
-2.2851203e+47
2.1955703e+47
2.0489699e+47
-1.2447557e+47
-2.1865956e+47
-2.2074852e+47
2.404322e+47
2.2557991e+47
1.1551656e+47
3.7499354e+48
-2.200436e+47
-2.2421138e+47
2.2485356e+47
2.0506847e+47
3.8277325e+48
-2.1804056e+47
-2.3488279e+47
2.1942071e+47
2.1160814e+47
-1.1933859e+47
-2.1022051e+47
2.3782968e+47
-2.2627343e+47
2.3250034e+47
-2.0985617e+47
-2.1468057e+47
2.4716382e+47
2.2704776e+47
7.1703764e+49
6.1259385e+48
-7.90035e+49
-9.492139e+48
-1.1887772e+49
5.2288106e+48
-7.4596747e+48
-3.7956421e+48
4.3542901e+48
5.1914792e+48
-3.4217179e+48
7.138693e+49
-8.1449059e+49
-1.170647e+49
4.5434742e+48
5.0296335e+48
-3.934425e+48
-3.0859534e+48
1.4820412e+49
7.9172999e+47
-1.3474399e+48
-1.8197047e+49
8.959021e+47
-9.2618084e+47
-8.4971475e+47
9.3549177e+47
4.0951978e+47
-8.602821e+47
7.9479494e+47
-1.2340736e+48
-1.2601177e+48
8.143026e+47
-1.5262794e+49
2.24574e+47
9.23586e+47
-1.2230481e+48
-1.2030576e+48
8.5735105e+47
8.5641375e+47
-1.8695595e+49
-9.5445253e+47
-8.6386938e+47
9.023366e+47
9.0819568e+47
1.516864e+49
5.7458452e+47
-1.8747413e+49
-9.0140578e+47
-9.2711966e+47
8.7833726e+47
9.0203691e+47
1.216728e+47
-1.2195815e+48
-1.2748243e+48
7.9046198e+47
8.0238912e+47
-1.5033234e+49
-1.1935523e+48
-1.2214531e+48
9.1923801e+47
8.3408168e+47
-1.8368447e+49
-8.8079837e+47
-9.3269165e+47
9.1285803e+47
8.7592969e+47
7.7519251e+47
-9.8172737e+47
3.2118581e+46
-4.417684e+46
-4.8204832e+46
4.4410938e+46
4.6101937e+46
3.2655329e+46
-4.27935e+46
4.8985297e+46
4.7890464e+46
-4.6717392e+46
7.5909947e+47
-2.9770295e+46
-9.6608506e+47
3.2030279e+46
-4.9488679e+46
-4.5429562e+46
4.3151868e+46
4.1377353e+46
-3.0133436e+46
3.3742504e+46
-4.8928292e+46
-4.4881644e+46
4.4187326e+46
4.2646676e+46
7.6325481e+47
-9.7732489e+47
3.9253385e+46
-4.7346778e+46
4.3401563e+46
-4.8711407e+46
4.4682325e+46
-4.6838733e+46
-4.8176815e+46
4.0608587e+46
1.6676859e+49
1.7796616e+49
-8.7900753e+48
1.4600025e+49
1.5599871e+49
7.9646816e+47
-1.4901798e+49
-1.1230342e+48
1.0841736e+48
1.1925654e+48
-5.9441967e+47
-5.6933086e+47
-1.5296048e+49
1.096343e+48
-6.8640958e+47
1.2328244e+48
-1.7956568e+48
-1.5788177e+48
-1.5971665e+48
-3.4074858e+48
-1.9706721e+47
4.5165254e+48
1.5005164e+47
2.247144e+47
-2.405818e+47
-2.7711167e+47
1.9610761e+47
-5.1424632e+46
-1.7397802e+45
-4.1641111e+48
2.0516502e+47
-2.2511715e+47
-2.3441374e+47
1.9556491e+47
3.4596366e+48
-5.1698635e+46
-4.2793237e+48
-2.3116446e+47
-2.2654792e+47
2.1674896e+47
1.8725158e+47
4.5382176e+48
-2.0489851e+47
2.1278255e+47
-2.527819e+47
-2.7789963e+47
1.7722561e+47
-3.5288121e+48
-2.2927755e+47
4.5230257e+48
2.6136039e+47
2.0171369e+47
-2.4649427e+47
-2.9167437e+47
1.7169113e+47
-2.3029071e+47
2.5899134e+47
2.0069428e+47
-2.4327847e+47
-2.9153339e+47
1.7359163e+47
3.5161409e+48
-2.6520339e+47
-2.897487e+47
-2.5827402e+47
1.9903341e+47
1.6322759e+47
-2.9174896e+47
4.5744192e+48
1.9255094e+47
-2.5788484e+47
-2.8565458e+47
1.603798e+47
-3.5232827e+48
-2.7518607e+47
4.5877048e+48
2.079753e+47
-2.3503739e+47
-2.9008322e+47
1.7602406e+47
-2.4380324e+47
-4.5100629e+48
1.9636321e+47
-2.5940067e+47
-2.9690754e+47
1.7009127e+47
3.5154641e+48
-4.534328e+48
-2.7758381e+47
-2.2992155e+47
2.2714826e+47
1.7135273e+47
4.514984e+48
2.0395179e+47
-2.3855166e+47
-2.70676e+47
1.6518226e+47
3.4346834e+48
-4.266619e+48
2.034332e+47
-2.2422788e+47
-2.384054e+47
1.8663515e+47
-1.7773104e+47
-2.8678379e+47
-2.4844539e+47
1.9741267e+47
1.7779565e+47
2.3133738e+47
-2.3325493e+47
2.6756942e+47
3.493131e+48
-2.7255708e+47
-2.4411041e+47
1.9385241e+47
1.5609126e+47
3.5681915e+48
3.3509353e+47
-2.7847563e+47
-2.3300526e+47
1.9730845e+47
1.6899888e+47
-2.6286294e+47
3.2390592e+47
4.5876311e+48
1.8306884e+47
-2.4260403e+47
-2.7836338e+47
1.6284908e+47
4.4793662e+48
1.8999596e+47
-2.4222251e+47
-2.6709985e+47
1.5529041e+47
-2.5026844e+47
3.5209673e+48
2.7905356e+47
1.8966158e+47
-2.3741909e+47
-2.8466749e+47
1.6582596e+47
3.5579515e+48
-2.8317905e+47
-2.5601678e+47
1.9035672e+47
1.5553917e+47
-2.3121091e+47
4.503043e+48
2.4959733e+47
-2.7943916e+47
-2.4186017e+47
1.7789624e+47
1.6224645e+47
4.5871254e+48
1.8793533e+47
-2.5157004e+47
-2.7441291e+47
1.5705023e+47
-2.2881719e+47
3.5121215e+48
2.4038552e+47
1.7951907e+47
-2.4439727e+47
-2.738594e+47
1.6513238e+47
3.5635163e+48
-3.1467545e+47
-2.6821422e+47
-2.48268e+47
1.8933442e+47
1.5987504e+47
-1.861387e+47
1.8577435e+47
-2.7474914e+47
-2.4774685e+47
1.6506372e+47
1.549348e+47
-2.8027509e+47
1.7771597e+47
-2.5212153e+47
-2.6758158e+47
1.5250801e+47
-2.5779662e+47
3.5609877e+48
1.8473129e+47
-2.406577e+47
-2.7342739e+47
1.6406623e+47
3.5034357e+48
-2.6469286e+47
-2.4147268e+47
1.9024977e+47
1.5598502e+47
-2.5459428e+47
-2.7489701e+47
-2.418152e+47
1.7286106e+47
1.5493757e+47
1.809128e+47
-2.4526688e+47
-2.6498451e+47
1.4988031e+47
7.5533407e+47
-3.1917701e+46
-9.6968454e+47
3.3910178e+46
3.9809088e+46
-4.6583005e+46
4.1779965e+46
-5.1006794e+46
-2.9956331e+46
3.357262e+46
-4.6429448e+46
4.2317702e+46
4.0612521e+46
-5.0506959e+46
7.5864464e+47
-9.7949444e+47
-4.3966067e+46
-5.0208872e+46
3.7480764e+46
-4.8486807e+46
4.1950529e+46
-4.8190602e+46
4.2892245e+46
-4.9914363e+46
3.8696939e+46
-3.6858673e+46
7.6659244e+47
4.4457039e+46
-9.8850616e+47
-4.745274e+46
4.1534209e+46
3.8029672e+46
-5.2338627e+46
-9.6587734e+47
-5.0485643e+46
-4.8385078e+46
4.1609594e+46
3.6136395e+46
4.6157642e+46
9.8250401e+47
3.8551874e+46
-4.7320493e+46
4.1203899e+46
-5.1855063e+46
7.6004471e+47
-3.2497941e+46
-9.733603e+47
3.3831018e+46
3.9701081e+46
-4.6681949e+46
4.1771611e+46
-5.1303941e+46
-3.2394758e+46
3.529437e+46
-4.6627488e+46
4.1855693e+46
3.9834613e+46
-5.1047623e+46
7.6394538e+47
-9.8543974e+47
3.7352726e+46
-4.8601584e+46
4.2135259e+46
-5.0610035e+46
-4.8448781e+46
4.2416571e+46
-5.0236834e+46
3.7843622e+46
-4.7439701e+46
4.0540585e+46
3.7716757e+46
-5.2057372e+46
7.7683083e+47
-3.804859e+46
4.71477e+46
-1.0086368e+48
-4.7522281e+46
-5.205655e+46
4.1829423e+46
3.9034266e+46
-3.9689546e+46
4.6811343e+46
-5.2694004e+46
4.1191104e+46
3.8356365e+46
-4.7863751e+46
7.6223202e+47
-9.8473187e+47
-5.3232119e+46
-4.7898761e+46
-4.9820662e+46
3.7393557e+46
4.2736053e+46
-4.8856086e+46
-5.1052236e+46
4.1971547e+46
3.6614488e+46
7.6962125e+47
-3.3464404e+46
-9.9104907e+47
3.2969581e+46
4.0147464e+46
-4.6629873e+46
4.2115293e+46
-5.0936044e+46
-3.1778821e+46
3.3087988e+46
-4.7248894e+46
4.1388156e+46
3.9416628e+46
-5.1728994e+46
7.7367705e+47
-1.0041742e+48
3.8620768e+46
-4.8038084e+46
4.3139369e+46
-4.9837948e+46
-4.9018748e+46
4.2292146e+46
-5.1008518e+46
3.7723869e+46
-3.4381129e+46
-7.9108348e+47
3.5378664e+46
-5.2922312e+46
-5.6071591e+46
3.7286965e+46
3.6051021e+46
-7.9628406e+47
-5.0816225e+46
3.8850829e+46
3.4833861e+46
-5.553924e+46
-5.6084797e+46
-3.4070534e+46
3.597948e+46
-9.9960667e+47
-5.947996e+46
-4.6541847e+46
-1.0139713e+48
-5.8978271e+46
-4.4965595e+46
-8.0029732e+47
-5.2573377e+46
-5.5752189e+46
3.8161133e+46
3.5986758e+46
-7.8465743e+47
-5.7491839e+46
3.8838975e+46
3.3943001e+46
-5.529311e+46
-5.5725586e+46
3.9241175e+46
-5.126445e+46
-9.9464864e+47
-6.0627462e+46
-1.0181121e+48
-5.8664043e+46
-4.8455741e+46
-7.9027604e+47
9.9007422e+47
-5.2834804e+46
-5.6629906e+46
3.749631e+46
3.5014669e+46
-7.9240144e+47
3.9204279e+46
3.3948792e+46
-5.4770604e+46
-5.5949164e+46
-4.4100348e+46
-9.9998426e+47
-6.0181751e+46
-1.0092596e+48
-5.9007707e+46
3.8192813e+46
-4.6352407e+46
4.1235373e+46
-5.1725637e+46
-2.9929068e+46
3.0425536e+46
7.8592627e+46
8.1967288e+46
-1.0981526e+48
-2.3883606e+46
-2.7489235e+46
-3.8890871e+46
8.1998742e+46
7.6291845e+46
-1.1096848e+48
-2.5433496e+46
-2.7218973e+46
3.0600031e+46
8.3528071e+46
7.5686697e+46
-1.0779802e+48
-2.3349034e+46
-2.5004035e+46
7.9883816e+46
7.9675621e+46
-1.1049467e+48
-2.7782404e+46
-2.4001814e+46
-1.8575875e+46
1.7156614e+46
8.0052829e+46
8.2345018e+46
-1.0922953e+48
-2.3123785e+46
-2.5985516e+46
-2.4208608e+46
8.2506913e+46
7.9000161e+46
-1.1104045e+48
-2.5157227e+46
-2.5789302e+46
-2.2327248e+46
7.7920459e+46
8.1062333e+46
-1.1072493e+48
-2.5222557e+46
-2.78752e+46
8.1498848e+46
7.5213474e+46
-1.0854553e+48
-2.4808276e+46
-2.5984278e+46
1.4042754e+46
-1.7113144e+46
8.25533e+46
7.8040083e+46
-1.1105669e+48
-2.5303322e+46
-2.5494671e+46
9.7884718e+45
7.9730138e+46
8.4402092e+46
-1.0988912e+48
-2.5131067e+46
-2.3811379e+46
1.451484e+46
8.2608261e+46
7.687898e+46
-1.080842e+48
-2.3797056e+46
-2.4041824e+46
8.0330752e+46
8.2277604e+46
-1.1077451e+48
-2.6511432e+46
-2.4339227e+46
-4.875135e+45
8.0529084e+46
8.6221702e+46
-1.09558e+48
-2.3828243e+46
-2.2736055e+46
-5.6743861e+45
8.4505911e+46
8.109469e+46
-1.1146283e+48
-2.3656124e+46
-2.4455649e+46
-6.3100718e+45
8.0581286e+46
8.2707996e+46
-1.1093363e+48
-2.4832432e+46
-2.604714e+46
8.4515483e+46
7.835484e+46
-1.0885967e+48
-2.3689718e+46
-2.4155075e+46
-3.7209032e+48
5.8310015e+48
6.4761773e+48
-9.5928741e+49
-4.3693616e+48
-3.7734626e+48
5.837358e+48
6.5729788e+48
-5.0765555e+48
-9.548135e+49
-3.6693795e+48
-4.3147934e+48
-1.5551345e+48
3.0517485e+46
-2.3105504e+47
1.6079001e+48
1.5535135e+48
-2.0521075e+49
-5.0797831e+47
-4.5218379e+47
-5.5610234e+46
3.8734325e+46
8.5002601e+47
-4.4275724e+48
8.15655e+47
-9.144066e+46
-4.4333717e+48
4.0521486e+47
-7.1742502e+47
-1.8403123e+49
1.7980461e+48
-1.8611566e+49
1.6131752e+48
1.5705678e+48
-2.0389944e+49
-4.9197497e+47
-4.4757626e+47
1.2085956e+46
8.2254639e+47
-4.4289909e+48
8.5876159e+47
-4.4206476e+48
-9.5407372e+46
3.1733329e+47
3.0778425e+47
5.7628052e+46
-9.6726937e+47
-9.5450236e+47
-7.1699766e+47
-7.1542736e+47
6.9947989e+46
6.9352146e+46
3.1742919e+47
3.126574e+47
-9.4560887e+47
-9.6535942e+47
-7.1138591e+47
-7.0930395e+47
7.3233551e+46
7.3841273e+46
-1.533033e+45
1.7345763e+47
-4.8819929e+45
-4.8687319e+47
1.7639149e+47
-4.8237556e+47
1.194964e+46
9.1703339e+46
-1.2114281e+47
-1.1627365e+47
-7.9248054e+46
-8.1682973e+46
9.0223911e+46
3.7015196e+45
-8.0068838e+46
-1.1732002e+47
-1.2105212e+47
-8.1513348e+46
-9.0645187e+46
1.2793418e+46
-5.76251e+46
-7.959719e+46
-7.6968243e+46
-5.4306322e+46
2.474097e+46
-1.3895012e+47
-7.2969199e+46
-6.6927731e+46
-1.3373824e+47
-9.4419936e+46
2.2173404e+45
-7.7936489e+46
-7.8461478e+46
-5.6000303e+46
-5.5598835e+46
1.6614143e+46
-6.9050648e+46
-6.9436513e+46