/*--------------------------------*- C++ -*----------------------------------*\
  =========                 |
  \\      /  F ield         | OpenFOAM: The Open Source CFD Toolbox
   \\    /   O peration     | Website:  https://openfoam.org
    \\  /    A nd           | Version:  7
     \\/     M anipulation  |
\*---------------------------------------------------------------------------*/
FoamFile
{
    version     2.0;
    format      ascii;
    class       volVectorField;
    location    "10000";
    object      U;
}
// * * * * * * * * * * * * * * * * * * * * * * * * * * * * * * * * * * * * * //

dimensions      [0 1 -1 0 0 0 0];

internalField   nonuniform List<vector> 
34387
(
(-1.2664705e+58 -3.3342903e+55 1.2149361e+57)
(-1.2886465e+58 7.1317774e+56 1.3127337e+57)
(-1.1485231e+58 7.4969234e+55 -4.8714315e+56)
(-1.1404978e+58 4.2471751e+56 -5.197866e+56)
(-1.6716568e+58 1.6977836e+56 2.5773342e+56)
(-1.3123445e+58 6.1226608e+56 1.2522484e+57)
(-1.2984243e+58 -1.2882667e+56 1.1976096e+57)
(-1.1650243e+58 -3.6025807e+54 -5.8148749e+56)
(-1.1632421e+58 3.7328879e+56 -6.189524e+56)
(-9.2399985e+57 2.2979868e+55 -7.3076169e+56)
(-9.2544465e+57 1.7361022e+56 -7.6579723e+56)
(-1.072731e+58 2.694791e+56 -8.3235848e+54)
(-1.0375841e+58 -9.3641202e+55 -2.0249014e+56)
(-1.0032535e+58 -4.9269219e+55 -1.1738745e+57)
(-9.8082586e+57 1.2290204e+56 -1.3301945e+57)
(-1.0846757e+58 3.0881619e+56 -5.1309432e+55)
(-9.1634365e+57 7.1314162e+54 -7.7757405e+56)
(-9.203716e+57 2.0992e+56 -7.6653181e+56)
(-1.0466917e+58 -1.1871598e+56 -1.874678e+56)
(-1.0094402e+58 -3.7292836e+54 -1.2619398e+57)
(-9.8776681e+57 1.7072854e+56 -1.3512855e+57)
(-1.3700666e+58 4.8999746e+56 1.0305834e+57)
(-1.0812977e+58 3.8355385e+56 6.2043654e+56)
(-9.0845192e+57 5.1611554e+55 -2.6613826e+56)
(-9.3584657e+57 8.0595582e+55 -3.3293573e+56)
(-1.0957497e+58 -1.7477117e+56 5.8787868e+56)
(-1.1000888e+58 3.174474e+56 6.7035939e+56)
(-9.3283969e+57 1.4953874e+55 -2.8358552e+56)
(-9.1264356e+57 1.1879748e+56 -2.8964096e+56)
(-1.078975e+58 -2.5929017e+56 5.9806976e+56)
(-1.3505682e+58 3.9094417e+55 1.0537504e+57)
(-8.9510294e+57 5.9788628e+56 -2.7927713e+57)
(-8.91482e+57 1.3244318e+56 -2.7823422e+57)
(-1.4500312e+58 1.0369086e+55 -2.2604774e+57)
(-1.3278342e+58 4.8362828e+56 1.1694725e+57)
(-1.3147365e+58 -2.5346093e+56 1.1450148e+57)
(-1.1740456e+58 -1.6245241e+56 -6.5055443e+56)
(-1.1764719e+58 2.7471801e+56 -6.7367337e+56)
(-1.1340994e+58 5.6014735e+56 8.6126619e+56)
(-1.1214244e+58 -1.9006096e+56 8.0966789e+56)
(-1.0727805e+58 2.9007912e+55 -1.5978599e+57)
(-1.0610382e+58 3.8526291e+56 -1.7343238e+57)
(-1.0927246e+58 2.8498819e+56 8.5622768e+55)
(-1.0305768e+58 -4.0263813e+55 -1.1338705e+57)
(-1.0007369e+58 1.0281313e+56 -1.3384966e+57)
(-1.0577023e+58 -1.6497338e+56 -1.6586914e+56)
(-1.057647e+58 -1.1084518e+56 -1.6156919e+56)
(-1.088109e+58 2.7854994e+56 4.3565724e+55)
(-1.0014477e+58 7.5995531e+55 -1.3596532e+57)
(-1.0182423e+58 -5.1596912e+55 -1.1856877e+57)
(-1.125764e+58 3.6906931e+56 7.02616e+56)
(-9.4410591e+57 2.9787605e+55 -4.1289783e+56)
(-9.4609919e+57 8.3683818e+55 -4.5586305e+56)
(-1.3867109e+58 4.0860487e+56 1.0224899e+57)
(-1.1132591e+58 -2.4775972e+56 5.8103144e+56)
(-1.3711024e+58 -2.75796e+55 9.8041714e+56)
(-1.1231554e+58 3.1959586e+56 6.7972895e+56)
(-9.5011415e+57 1.7879111e+55 -3.9778911e+56)
(-9.3790389e+57 1.7135327e+56 -3.7025257e+56)
(-1.1089654e+58 -2.8973752e+56 6.2343997e+56)
(-9.0700776e+57 4.4413312e+56 -2.8055402e+57)
(-9.0397613e+57 -5.0861471e+54 -2.8321639e+57)
(-8.1315932e+57 1.7831098e+56 -1.5322006e+56)
(-8.111422e+57 7.5263099e+55 -1.876324e+56)
(-9.5465061e+57 1.3516965e+56 -1.6788549e+56)
(-8.0212851e+57 1.4170013e+56 -6.6313334e+56)
(-8.0092806e+57 8.9931612e+55 -5.8424117e+56)
(-8.1268452e+57 1.82159e+56 -1.6784446e+56)
(-9.5214916e+57 -2.9304897e+55 -2.0959746e+56)
(-7.9958493e+57 1.6888323e+56 -6.6568888e+56)
(-8.0257881e+57 9.1757905e+55 -6.4258764e+56)
(-9.1893228e+57 1.380772e+56 -7.6598486e+56)
(-9.1991248e+57 -5.2023809e+55 -7.2025284e+56)
(-8.016648e+57 8.7292893e+55 -5.8981421e+56)
(-9.4382826e+57 1.0451221e+56 -2.535829e+56)
(-7.9871875e+57 1.4511539e+56 -6.7157325e+56)
(-9.3530919e+57 2.7289174e+55 -2.4915116e+56)
(-9.1660255e+57 -1.0265869e+56 -8.8462495e+56)
(-9.0810733e+57 1.5256339e+56 -9.9742322e+56)
(-9.6171404e+57 6.5111566e+55 -1.3520357e+56)
(-9.1362079e+57 -1.4256154e+56 -1.0454448e+57)
(-9.5827691e+57 -8.1869739e+55 -1.915486e+56)
(-9.1178926e+57 3.7998509e+55 -1.1050822e+57)
(-9.0386653e+57 4.8886873e+55 -1.1349554e+57)
(-9.1005396e+57 -1.9052941e+56 -1.0200763e+57)
(-9.5735733e+57 5.4994716e+55 -5.461796e+55)
(-9.4245154e+57 -7.3531089e+55 -3.3784623e+56)
(-9.6444801e+57 1.3645695e+56 -2.4677605e+56)
(-9.6784482e+57 -8.0132082e+54 -1.9971896e+56)
(-9.4315609e+57 1.5613602e+56 -7.4912939e+56)
(-9.4313917e+57 -5.414688e+55 -8.8581985e+56)
(-7.757443e+57 1.6332324e+56 -4.4663623e+56)
(-8.0881883e+57 1.5025288e+56 -1.964441e+56)
(-8.0737744e+57 8.2172623e+55 -2.2120156e+56)
(-7.9598837e+57 6.4561006e+55 -6.4158983e+56)
(-9.3890151e+57 1.1583201e+56 -2.6133988e+56)
(-7.953298e+57 1.4754644e+56 -7.0161396e+56)
(-8.141893e+57 1.8963615e+56 -1.430941e+56)
(-8.1049664e+57 8.9944902e+55 -1.8302772e+56)
(-9.4353654e+57 4.7223871e+55 -2.714572e+56)
(-7.9981598e+57 1.4836084e+56 -6.5662598e+56)
(-8.0390632e+57 1.009567e+56 -5.7257707e+56)
(-9.0830772e+57 -1.1311722e+56 -1.0081895e+57)
(-9.1917838e+57 1.7219327e+56 -9.2641624e+56)
(-9.4109052e+57 -1.4921967e+56 -8.657413e+56)
(-9.9303006e+57 1.078544e+56 -7.4029663e+55)
(-9.8905569e+57 -4.8269269e+55 -1.111807e+56)
(-9.3685261e+57 8.3521625e+55 -9.0782585e+56)
(-9.1792103e+57 7.9390382e+55 -1.0359528e+57)
(-9.061319e+57 -1.3825253e+56 -1.1506096e+57)
(-9.4844692e+57 7.0396521e+55 -3.1557941e+56)
(-9.5880882e+57 -6.7274776e+55 -9.6750731e+55)
(-7.6357741e+57 2.6536841e+56 -2.1124584e+57)
(-1.1235733e+58 2.7393773e+56 1.038478e+57)
(-1.1330513e+58 -7.1830457e+55 9.8514876e+56)
(-7.5513023e+57 -1.1355093e+56 -2.1802063e+57)
(-1.0000132e+58 -2.6623533e+55 -2.7984682e+56)
(-9.2602571e+57 -2.1947241e+56 -1.204644e+57)
(-9.9305381e+57 -8.9463833e+55 -3.400933e+56)
(-9.1986979e+57 1.0823029e+56 -1.2617495e+57)
(-8.531624e+57 2.8539148e+55 -5.9347458e+56)
(-8.4860802e+57 -7.3719064e+55 -6.1913891e+56)
(-1.0074892e+58 1.4883922e+56 1.1646786e+56)
(-1.0037654e+58 -9.1820651e+55 1.035442e+56)
(-8.7320314e+57 -1.0493319e+56 -4.9088454e+56)
(-1.0260893e+58 1.1777703e+56 3.5463275e+56)
(-1.0224483e+58 -2.5988515e+56 3.549416e+56)
(-8.6218421e+57 3.7828068e+55 -5.3496814e+56)
(-9.1450444e+57 -1.0144202e+56 -1.0925896e+57)
(-9.6211689e+57 8.3067895e+55 -4.2016206e+56)
(-9.700452e+57 -1.0796092e+56 -3.7966295e+56)
(-9.2949467e+57 -5.2736418e+54 -1.0297064e+57)
(-9.1141232e+57 -3.5903723e+55 -1.0990968e+57)
(-9.1735475e+57 -2.2573804e+56 -1.0697116e+57)
(-9.7396022e+57 -4.2021149e+54 -2.7913763e+56)
(-9.6975936e+57 -2.0816718e+56 -3.0596761e+56)
(-8.6570438e+57 -1.9496361e+56 -5.4345829e+56)
(-8.5957416e+57 -9.0314411e+55 -5.5343363e+56)
(-1.1276119e+58 3.5780901e+56 1.0488562e+57)
(-1.0110906e+58 -2.9322389e+56 2.6041864e+56)
(-1.0188958e+58 4.4291324e+55 2.8273395e+56)
(-8.5498599e+57 -2.3274857e+56 -4.4738596e+56)
(-8.3765593e+57 -4.1290008e+55 -5.3683914e+56)
(-1.1036767e+58 1.2285019e+56 1.144917e+57)
(-1.0018258e+58 -3.4459875e+56 3.0208824e+56)
(-1.0113322e+58 -6.8161393e+55 3.7183084e+56)
(-9.651955e+57 -5.2120749e+55 -3.3485193e+56)
(-9.107917e+57 -2.7979476e+56 -1.0383135e+57)
(-9.095504e+57 -8.9787236e+55 -1.0578421e+57)
(-9.5649373e+57 -1.813353e+56 -4.2940649e+56)
(-7.4675185e+57 7.3969302e+56 -2.0974284e+57)
(-7.4851511e+57 3.9936649e+56 -2.034119e+57)
(-1.0132122e+58 6.8185311e+56 -1.5109902e+57)
(-1.0060927e+58 -4.6069441e+55 -1.4802372e+57)
(-1.1955513e+58 5.6004723e+56 -9.6274533e+56)
(-1.3731241e+58 3.9649589e+55 2.1086869e+56)
(-1.4599308e+58 -2.3096927e+54 -2.2519779e+57)
(-1.1046717e+58 2.5065016e+56 8.2492457e+55)
(-1.0743243e+58 -2.0258316e+56 -1.3314235e+56)
(-1.0460884e+58 -2.803375e+55 -1.1612291e+57)
(-1.0185443e+58 9.3354006e+55 -1.3937515e+57)
(-1.0994145e+58 2.6535023e+56 5.8364209e+55)
(-1.0692976e+58 -1.4973125e+56 -9.7300962e+55)
(-1.0334103e+58 -6.5236511e+55 -1.1999372e+57)
(-1.0179738e+58 8.7686426e+55 -1.3242244e+57)
(-1.1456024e+58 3.5010242e+56 6.4955603e+56)
(-9.6633136e+57 -5.9229691e+55 -4.7347273e+56)
(-9.6215627e+57 5.8945374e+55 -5.2065363e+56)
(-1.1299588e+58 -2.8023217e+56 5.1031341e+56)
(-1.3898186e+58 2.1857307e+56 1.0194265e+57)
(-1.1382895e+58 3.1121311e+56 6.2830266e+56)
(-9.6254402e+57 3.8998299e+54 -4.9045962e+56)
(-9.5512096e+57 1.1221718e+56 -4.7080348e+56)
(-1.1233778e+58 -3.0628111e+56 5.8143063e+56)
(-1.3800621e+58 -1.6317722e+56 9.9798302e+56)
(-9.1697653e+57 2.8678469e+56 -2.7594774e+57)
(-9.1451239e+57 -1.5583434e+56 -2.806528e+57)
(-9.6048808e+57 -3.4717781e+55 -1.883623e+56)
(-9.5662698e+57 1.3851724e+56 -1.7225836e+56)
(-9.2703707e+57 -5.1967451e+55 -8.7934595e+56)
(-9.3120306e+57 1.5360723e+56 -9.456826e+56)
(-9.2604247e+57 4.2079996e+55 -1.1090661e+57)
(-9.2399087e+57 -1.2238556e+56 -9.9196255e+56)
(-9.736729e+57 1.2561658e+56 -6.1808275e+55)
(-9.7392176e+57 -7.4559797e+55 -1.7086006e+56)
(-9.1247964e+57 9.8732263e+55 -1.0589193e+57)
(-9.1602441e+57 -1.619727e+56 -1.0588797e+57)
(-9.6817284e+57 8.1894205e+55 -3.005405e+55)
(-9.6273733e+57 -6.1263419e+55 -2.9014842e+55)
(-9.2219829e+57 1.6924357e+56 -8.8974772e+56)
(-9.2535732e+57 -1.0082959e+56 -8.8174404e+56)
(-9.4746474e+57 1.1595502e+56 -3.654374e+56)
(-9.4177672e+57 5.1824948e+55 -3.8362797e+56)
(-9.4516305e+57 1.7600671e+56 -2.340306e+56)
(-9.5896157e+57 6.9973026e+55 -1.7814307e+56)
(-9.132586e+57 -5.5418072e+55 -9.993344e+56)
(-9.2439214e+57 1.8145313e+56 -7.4131667e+56)
(-9.5163478e+57 1.889118e+55 -2.3845808e+56)
(-9.5527975e+57 1.5975401e+56 -1.8025382e+56)
(-9.1999376e+57 1.7929406e+56 -9.6708492e+56)
(-9.2211396e+57 -6.8804971e+55 -9.1454556e+56)
(-9.1572112e+57 -1.4649843e+56 -1.0894592e+57)
(-9.5717664e+57 8.0707619e+55 -2.5676413e+56)
(-9.6414871e+57 -4.7414035e+55 -2.9662148e+56)
(-9.2346245e+57 3.9231488e+55 -1.1862123e+57)
(-9.190722e+57 6.451021e+55 -1.0743254e+57)
(-9.1967275e+57 -1.2269402e+56 -1.0326334e+57)
(-9.6941234e+57 9.0244444e+55 -9.7242753e+55)
(-9.6730848e+57 -7.3704859e+55 -1.4665316e+56)
(-9.1771074e+57 -5.1429103e+54 -1.2445419e+57)
(-9.2778012e+57 -2.0754795e+56 -9.9371996e+56)
(-9.8635224e+57 2.5526283e+55 -1.9936288e+56)
(-9.8659428e+57 -1.7802331e+56 -3.4281294e+56)
(-1.145675e+58 2.5913798e+56 9.5960941e+56)
(-8.6392971e+57 -4.6520619e+55 -6.0957093e+56)
(-1.0306538e+58 1.2078998e+56 3.396349e+56)
(-8.5631542e+57 2.6888154e+54 -6.227855e+56)
(-1.0045471e+58 -1.975818e+56 8.5984541e+55)
(-8.7117207e+57 2.8016813e+55 -5.8848963e+56)
(-8.7481197e+57 -9.7248386e+55 -5.7482699e+56)
(-1.0329272e+58 1.1469841e+56 3.1287254e+56)
(-1.0262283e+58 -2.6691026e+56 2.8442143e+56)
(-1.1513767e+58 -6.9597918e+55 8.8854952e+56)
(-7.6637425e+57 1.8836546e+56 -2.2094212e+57)
(-7.5673349e+57 -1.8761995e+56 -2.2917855e+57)
(-9.7567627e+57 2.4229246e+55 -3.489647e+56)
(-9.2256122e+57 -1.5861456e+56 -1.0956695e+57)
(-9.6942363e+57 -1.120874e+56 -3.7505559e+56)
(-9.2384984e+57 -1.4425482e+53 -1.0756465e+57)
(-1.1479426e+58 3.6935008e+56 9.2012894e+56)
(-1.1232927e+58 1.6190423e+56 9.7404781e+56)
(-7.5259202e+57 6.8161028e+56 -2.2357862e+57)
(-7.5367934e+57 3.4670655e+56 -2.176492e+57)
(-9.2069921e+57 -1.5809394e+55 -1.0788895e+57)
(-9.2856769e+57 -2.0687169e+56 -1.0145437e+57)
(-9.8283534e+57 2.6065291e+55 -2.4119661e+56)
(-9.7893228e+57 -1.7696022e+56 -2.9339061e+56)
(-8.7416363e+57 -6.522662e+55 -6.0830188e+56)
(-8.7795358e+57 -1.8116052e+56 -6.0975426e+56)
(-1.0333187e+58 5.3840581e+55 3.108447e+56)
(-1.0273083e+58 -2.9275461e+56 2.9288083e+56)
(-8.7260745e+57 -1.926335e+56 -5.1270266e+56)
(-1.0307143e+58 -5.7338486e+55 4.3102507e+56)
(-1.0038926e+58 -3.8553748e+56 1.9988603e+56)
(-8.4508671e+57 1.1370598e+55 -6.2005292e+56)
(-9.3542373e+57 -1.9826363e+56 -1.1017001e+57)
(-9.2147215e+57 -2.6514257e+56 -1.0208547e+57)
(-9.7228762e+57 -1.0169477e+55 -3.6302811e+56)
(-9.7990687e+57 -2.4183388e+56 -4.2888727e+56)
(-1.019996e+58 5.8024096e+56 -1.5151498e+57)
(-1.0144873e+58 -1.276484e+56 -1.5098926e+57)
(-6.0227943e+57 1.5495166e+56 -4.1903401e+56)
(-6.0094987e+57 7.4281117e+55 -4.2934647e+56)
(-6.4042092e+57 1.5274973e+56 -1.5156755e+56)
(-6.4024253e+57 8.298125e+55 -1.6028307e+56)
(-6.3829631e+57 1.5661664e+56 -1.4459301e+56)
(-6.3765029e+57 9.0932398e+55 -1.5025439e+56)
(-5.9711901e+57 1.5399358e+56 -4.5348252e+56)
(-5.9637034e+57 7.0170699e+55 -4.5998006e+56)
(-8.220303e+57 1.4460392e+56 -3.5043061e+56)
(-8.0888118e+57 8.328845e+55 -6.2461189e+56)
(-8.0967333e+57 1.5634534e+56 -6.6141855e+56)
(-8.2194263e+57 5.3596608e+55 -3.6672899e+56)
(-6.7449452e+57 1.674031e+56 -2.667454e+56)
(-6.7644483e+57 1.8160859e+56 -2.2587025e+56)
(-5.980984e+57 1.6610478e+56 -4.6069191e+56)
(-5.9713359e+57 8.0011177e+55 -4.6741099e+56)
(-6.3905214e+57 1.4911304e+56 -1.4737664e+56)
(-6.3845201e+57 7.7341047e+55 -1.5486675e+56)
(-8.0644916e+57 1.631521e+56 -6.6741345e+56)
(-8.0966793e+57 7.7128675e+55 -6.3050116e+56)
(-8.2335223e+57 1.6614465e+56 -3.5590893e+56)
(-8.2038047e+57 8.8483038e+55 -3.7248672e+56)
(-6.7268055e+57 1.7122368e+56 -2.7734043e+56)
(-6.7482033e+57 1.6371128e+56 -2.6940288e+56)
(-8.1252432e+57 1.4731871e+56 -7.1778444e+56)
(-8.1751078e+57 6.3810543e+55 -5.9110176e+56)
(-8.3967597e+57 1.5371021e+56 -2.9856987e+56)
(-8.352133e+57 6.563097e+55 -3.5193447e+56)
(-8.1577104e+57 1.4200091e+56 -7.0157208e+56)
(-8.1767526e+57 8.2713795e+55 -5.7843472e+56)
(-8.4019972e+57 1.6019583e+56 -2.753017e+56)
(-8.3761111e+57 5.5994833e+55 -3.3820416e+56)
(-6.7498846e+57 1.6917341e+56 -2.2974053e+56)
(-8.2371798e+57 1.3756899e+56 -3.2362273e+56)
(-8.0980413e+57 8.0962394e+55 -5.5258215e+56)
(-8.0572715e+57 1.4359914e+56 -6.9838684e+56)
(-8.1909871e+57 5.0241639e+55 -3.7033712e+56)
(-6.7027378e+57 1.7422582e+56 -2.7428676e+56)
(-8.1925926e+57 1.6175411e+56 -3.096091e+56)
(-8.0138726e+57 7.8534865e+55 -5.4112103e+56)
(-8.3694817e+57 1.2400725e+56 -2.9161826e+56)
(-8.1769424e+57 3.7328298e+55 -6.7469486e+56)
(-8.1547169e+57 1.2769755e+56 -7.5323549e+56)
(-8.3414765e+57 4.0116122e+55 -4.1033008e+56)
(-8.2982402e+57 1.4398218e+56 -3.7412765e+56)
(-8.1142128e+57 5.4124567e+55 -7.1022513e+56)
(-8.0683678e+57 1.49273e+56 -7.9108047e+56)
(-8.4953087e+57 1.1819973e+56 -3.1314809e+56)
(-8.2466727e+57 2.9861084e+55 -5.7887284e+56)
(-8.2181954e+57 1.2519289e+56 -7.8660945e+56)
(-8.44529e+57 2.6102326e+55 -3.8870375e+56)
(-8.6075871e+57 6.5475467e+55 -2.9008905e+56)
(-8.3381718e+57 -6.8354191e+55 -7.6743104e+56)
(-8.360558e+57 8.8385113e+55 -8.5427191e+56)
(-8.5867361e+57 -1.8679718e+54 -4.7619645e+56)
(-8.4920126e+57 1.3046627e+56 -3.2635643e+56)
(-8.2013237e+57 1.8666823e+55 -5.9864109e+56)
(-8.2036297e+57 1.6507402e+56 -8.1382539e+56)
(-8.4355684e+57 6.9744347e+55 -4.0749494e+56)
(-8.589846e+57 6.4496564e+55 -4.6083387e+56)
(-8.3368065e+57 -7.7186794e+55 -8.507375e+56)
(-8.3251576e+57 1.1200666e+56 -8.9348506e+56)
(-8.574918e+57 4.879626e+55 -5.0479529e+56)
(-8.3189451e+57 6.4846361e+55 -8.8554059e+56)
(-8.3085511e+57 -7.6286267e+55 -7.9871344e+56)
(-8.5713508e+57 7.1383945e+55 -3.0417971e+56)
(-8.5519436e+57 1.9423497e+55 -5.5543813e+56)
(-8.344806e+57 7.5731806e+55 -8.7630609e+56)
(-8.4017871e+57 -5.6360777e+55 -6.0139233e+56)
(-8.6769777e+57 5.6317272e+55 -2.6354417e+56)
(-8.6049437e+57 -1.9588742e+55 -3.8822389e+56)
(-8.48711e+57 7.5229851e+55 -4.8038878e+56)
(-8.277202e+57 1.2281753e+55 -6.7353638e+56)
(-8.2334354e+57 1.1577661e+56 -7.6110033e+56)
(-8.4613102e+57 1.0975682e+55 -5.2527177e+56)
(-8.1986213e+57 1.1279332e+56 -8.0658634e+56)
(-8.2124996e+57 -1.931611e+54 -6.7759979e+56)
(-8.4160377e+57 1.1753307e+56 -4.9894736e+56)
(-8.3772051e+57 7.1553441e+55 -5.8427328e+56)
(-8.3743378e+57 1.6364997e+56 -3.16017e+56)
(-8.3526003e+57 4.9567506e+55 -3.2792807e+56)
(-8.266231e+57 8.3126959e+55 -6.3247161e+56)
(-8.2515842e+57 1.3257096e+56 -6.5355153e+56)
(-8.3480621e+57 6.6575938e+55 -3.3637264e+56)
(-8.3963575e+57 1.6649554e+56 -3.1875802e+56)
(-8.2704869e+57 7.1782075e+55 -5.9698209e+56)
(-8.2223257e+57 1.3535355e+56 -6.3245023e+56)
(-8.3008328e+57 1.0999173e+56 -6.7504656e+56)
(-8.3728519e+57 6.3434441e+55 -5.5754355e+56)
(-8.503255e+57 4.0444915e+55 -3.1428057e+56)
(-8.5790665e+57 1.608224e+56 -2.5830284e+56)
(-8.3700195e+57 1.1753401e+56 -7.0530309e+56)
(-8.384834e+57 6.388533e+55 -6.6255127e+56)
(-8.5517476e+57 1.4595531e+56 -3.500835e+56)
(-8.5203196e+57 3.8055857e+55 -3.7444013e+56)
(-6.2199006e+57 1.0443698e+56 -3.3790609e+56)
(-6.2147899e+57 1.2103546e+56 -3.4441292e+56)
(-6.4479569e+57 6.4602036e+55 -2.0030157e+56)
(-6.4618723e+57 1.3633737e+56 -1.9272088e+56)
(-6.014909e+57 1.3390687e+56 -4.469244e+56)
(-6.0020448e+57 5.4385588e+55 -4.5455573e+56)
(-6.388274e+57 1.2801628e+56 -1.778874e+56)
(-6.3858427e+57 6.3756478e+55 -1.8543694e+56)
(-6.3703565e+57 1.5069897e+56 -1.66043e+56)
(-6.3604145e+57 8.8491209e+55 -1.709911e+56)
(-5.9676105e+57 1.3843955e+56 -4.6704596e+56)
(-5.9580859e+57 6.5190384e+55 -4.7414656e+56)
(-6.7737282e+57 1.5404276e+56 -2.5941801e+56)
(-8.1772796e+57 1.2562103e+56 -3.5823738e+56)
(-7.9956168e+57 1.4457241e+56 -7.2757018e+56)
(-8.0159061e+57 6.2859807e+55 -6.1101895e+56)
(-8.1437028e+57 5.6295938e+55 -3.9137739e+56)
(-6.717691e+57 1.6650569e+56 -2.930471e+56)
(-5.9281219e+57 1.4518275e+56 -4.2832843e+56)
(-5.9174338e+57 6.3486952e+55 -4.376098e+56)
(-6.3366786e+57 1.4727365e+56 -1.4894448e+56)
(-6.3348447e+57 7.650066e+55 -1.5629668e+56)
(-6.3573024e+57 1.5198769e+56 -1.4812433e+56)
(-6.3534775e+57 9.6086585e+55 -1.5460345e+56)
(-5.9382095e+57 1.3058651e+56 -4.5018607e+56)
(-5.9320846e+57 6.2141445e+55 -4.5951583e+56)
(-8.248193e+57 1.8289159e+56 -2.973633e+56)
(-8.0759749e+57 9.5291274e+55 -5.3382638e+56)
(-8.075312e+57 1.6575686e+56 -6.8231516e+56)
(-8.1881395e+57 8.9120924e+55 -3.5349786e+56)
(-6.6923324e+57 1.5845552e+56 -2.8018818e+56)
(-6.6945352e+57 1.7139616e+56 -2.2497494e+56)
(-8.2814305e+57 1.1352897e+56 -3.2813206e+56)
(-8.0703329e+57 1.2583153e+55 -7.3444259e+56)
(-8.0916331e+57 1.2976441e+56 -7.9795218e+56)
(-8.2639134e+57 4.6996415e+55 -4.2707638e+56)
(-8.3608516e+57 1.6641656e+56 -3.5896328e+56)
(-8.1720381e+57 6.9027397e+55 -6.939261e+56)
(-8.1539125e+57 1.6772713e+56 -7.3448898e+56)
(-8.3372239e+57 9.1074602e+55 -3.9077848e+56)
(-8.961049e+57 1.0571545e+56 -2.3967162e+56)
(-8.6722766e+57 -2.1686373e+55 -5.8901374e+56)
(-8.5813142e+57 6.1013401e+55 -7.7377633e+56)
(-8.8673929e+57 -8.1160968e+54 -3.488552e+56)
(-8.4901576e+57 1.0445902e+56 -6.9832187e+56)
(-8.5359013e+57 5.9062364e+55 -5.3153579e+56)
(-8.710054e+57 1.1693402e+56 -4.1894744e+56)
(-8.6583199e+57 7.994373e+54 -4.9454603e+56)
(-8.6988451e+57 1.2388632e+56 -3.2251564e+56)
(-8.4665614e+57 -2.6042342e+54 -5.8952368e+56)
(-8.4119278e+57 1.024967e+56 -7.0538578e+56)
(-8.6189744e+57 3.4678353e+55 -3.9610531e+56)
(-8.8707821e+57 6.5194321e+55 -3.1564384e+56)
(-8.5721221e+57 -7.8481155e+55 -6.6909076e+56)
(-8.509113e+57 7.9644434e+55 -6.68771e+56)
(-8.8142072e+57 5.6894151e+54 -3.1969259e+56)
(-8.3430723e+57 1.0664747e+56 -8.499349e+56)
(-8.3668711e+57 -2.4825999e+55 -6.1918451e+56)
(-8.6430233e+57 1.0890587e+56 -2.7868064e+56)
(-8.5810379e+57 2.2363366e+55 -3.803416e+56)
(-8.3150353e+57 1.1646745e+56 -9.2410061e+56)
(-8.2904294e+57 -9.3758633e+55 -8.753164e+56)
(-8.5418761e+57 1.7186832e+55 -5.1108067e+56)
(-8.5401203e+57 1.5374037e+55 -5.6475278e+56)
(-8.3768985e+57 4.0110161e+55 -5.7083307e+56)
(-8.1882954e+57 -3.1957733e+55 -7.9760823e+56)
(-8.1992261e+57 1.3589306e+56 -8.2783818e+56)
(-8.3811667e+57 2.1533099e+55 -5.8130453e+56)
(-8.2262116e+57 1.3488899e+56 -7.335935e+56)
(-8.254948e+57 2.5558876e+55 -6.7053625e+56)
(-8.4713342e+57 1.4688783e+56 -4.5966895e+56)
(-8.437942e+57 8.1643709e+55 -5.041366e+56)
(-8.8847425e+57 3.33811e+56 -1.3524282e+57)
(-9.7963137e+57 1.0347382e+56 8.9613577e+56)
(-9.9334998e+57 -1.128992e+56 8.6014328e+56)
(-6.7116581e+57 -5.4774639e+55 -1.3225043e+57)
(-6.6253846e+57 -2.9247189e+56 -1.3629262e+57)
(-9.98655e+57 -1.7924162e+55 8.9260124e+56)
(-1.0100724e+58 7.7550267e+55 8.687578e+56)
(-6.6998068e+57 3.2516294e+56 -1.3775908e+57)
(-6.6954604e+57 1.5229727e+56 -1.3645166e+57)
(-8.6958495e+57 -1.5594909e+56 -1.3766044e+57)
(-9.1352942e+57 -1.3042134e+54 -2.8132449e+56)
(-8.8078236e+57 -1.5790061e+56 -6.3318671e+56)
(-8.6517085e+57 4.967457e+53 -8.6648093e+56)
(-8.9752207e+57 -8.0031457e+55 -4.0352447e+56)
(-9.3078213e+57 -1.1778132e+56 -2.0963094e+56)
(-8.8432429e+57 -3.1843368e+56 -9.0322863e+56)
(-8.7156049e+57 -4.8644034e+55 -1.0015464e+57)
(-9.1431717e+57 -1.3552796e+56 -4.5726378e+56)
(-9.0283233e+57 -7.5003481e+54 -3.3647706e+56)
(-8.6031189e+57 -1.8780897e+56 -7.3174611e+56)
(-8.9262371e+57 -5.9495731e+54 -4.2263789e+56)
(-8.600501e+57 7.9877479e+55 -9.2608435e+56)
(-9.1514917e+57 -1.0165887e+56 -4.552939e+56)
(-8.6963968e+57 -2.8191426e+56 -1.0648752e+57)
(-8.7095669e+57 7.5860769e+55 -1.0548587e+57)
(-9.1162337e+57 -2.7594828e+55 -4.9185695e+56)
(-7.9804711e+57 1.4580673e+56 -1.2757127e+57)
(-7.970546e+57 -1.9928543e+56 -1.2854465e+57)
(-9.2154573e+57 -4.5816967e+55 -2.8430394e+56)
(-9.1682516e+57 -1.5881853e+55 -3.3567598e+56)
(-7.8310858e+57 3.4543734e+55 -1.2768074e+57)
(-7.8364746e+57 -1.4959995e+56 -1.336597e+57)
(-9.2067283e+57 -3.8424448e+54 -2.8068643e+56)
(-9.0607862e+57 -1.2309869e+56 -3.2676508e+56)
(-9.3109379e+57 -1.9889333e+56 -5.1005976e+56)
(-8.603751e+57 -2.9689779e+56 -1.1353825e+57)
(-8.4751223e+57 -3.5642623e+55 -1.148778e+57)
(-9.1695281e+57 -1.6940378e+56 -5.6160798e+56)
(-8.5607703e+57 1.2239889e+56 -1.1851248e+57)
(-8.535044e+57 -2.8098693e+56 -1.1719e+57)
(-9.2041221e+57 -1.328525e+56 -5.8126612e+56)
(-9.1921993e+57 -1.3760465e+55 -6.0193349e+56)
(-7.8932018e+57 1.6026253e+55 -1.247449e+57)
(-8.0588524e+57 -2.1953845e+56 -1.1921967e+57)
(-9.339289e+57 3.7680215e+54 -8.4014413e+55)
(-9.005243e+57 -1.7562585e+56 -2.7844937e+56)
(-9.0153739e+57 -4.6882807e+55 -5.025449e+56)
(-8.419029e+57 -1.8171965e+56 -1.050508e+57)
(-8.3242656e+57 3.6352387e+55 -1.16716e+57)
(-8.9797004e+57 -6.4361351e+55 -5.9413654e+56)
(-9.1803248e+57 -1.1238177e+56 -3.0798078e+56)
(-8.5254263e+57 -3.139522e+56 -9.6986809e+56)
(-9.2398027e+57 -2.0655488e+56 -3.4352059e+56)
(-8.5554015e+57 -1.0812786e+56 -1.0414209e+57)
(-9.4204835e+57 -1.8908422e+56 2.0884483e+54)
(-8.0781512e+57 -3.2422069e+56 -1.1364588e+57)
(-9.0571973e+57 -2.8015685e+56 -2.2831521e+56)
(-7.8647183e+57 -3.3220924e+55 -1.2820498e+57)
(-8.914046e+57 -2.8477896e+55 -4.657269e+56)
(-8.4983956e+57 -1.61136e+56 -9.2184054e+56)
(-8.5339698e+57 9.5460032e+55 -1.0371385e+57)
(-8.9300558e+57 -2.1368078e+55 -5.5885538e+56)
(-8.4666488e+57 1.1223394e+56 -9.5058569e+56)
(-8.4192858e+57 -1.2860111e+56 -8.046793e+56)
(-8.7060997e+57 -3.0657994e+55 -5.6667157e+56)
(-8.7119161e+57 -1.5055719e+55 -6.5220459e+56)
(-8.7885366e+57 5.059468e+55 -3.2432164e+56)
(-8.4689949e+57 -1.197551e+56 -7.7959509e+56)
(-8.5178432e+57 6.7011624e+55 -8.7281694e+56)
(-8.7795793e+57 1.420931e+54 -5.2403275e+56)
(-8.9754627e+57 -2.5395239e+55 -4.0710311e+56)
(-8.5760185e+57 -1.9412192e+56 -7.9401028e+56)
(-8.6611327e+57 -5.5369175e+55 -8.0620674e+56)
(-9.0200786e+57 -1.0000044e+56 -4.4305993e+56)
(-8.54944e+57 -4.8460594e+55 -1.0020948e+57)
(-8.5063568e+57 -3.2198412e+56 -9.7045678e+56)
(-8.9460635e+57 -1.4190539e+56 -4.0653799e+56)
(-8.9791855e+57 -1.3085098e+56 -4.468724e+56)
(-8.5673609e+57 -5.6403828e+55 -9.6656071e+56)
(-8.5566458e+57 -2.996744e+56 -9.3152409e+56)
(-8.9815376e+57 -1.2916654e+56 -4.0086451e+56)
(-8.9818434e+57 -1.4081824e+56 -4.3343713e+56)
(-8.7691864e+57 -4.271071e+55 -5.4550835e+56)
(-8.4949591e+57 -1.6353661e+56 -8.2403287e+56)
(-8.4947385e+57 3.7938322e+55 -8.5809971e+56)
(-8.766357e+57 -6.6353718e+55 -5.7626525e+56)
(-8.4673358e+57 2.3165888e+55 -8.9304047e+56)
(-8.4500285e+57 -2.0521633e+56 -8.5819236e+56)
(-8.7557035e+57 -2.2804236e+55 -5.5998593e+56)
(-8.7571362e+57 -2.7642803e+55 -5.9855435e+56)
(-1.0033699e+58 3.1993681e+55 8.770801e+56)
(-7.9841618e+57 -3.0901392e+56 -1.2009648e+57)
(-9.2859749e+57 -1.5122252e+56 -1.0020444e+56)
(-8.9572649e+57 -2.8672926e+56 -2.0508759e+56)
(-7.8111676e+57 -1.0951695e+56 -1.2082573e+57)
(-1.0021892e+58 -1.3766186e+56 8.6568082e+56)
(-8.0335494e+57 -4.0950729e+56 -1.1271699e+57)
(-9.2711024e+57 -2.811526e+56 -6.3010728e+55)
(-8.9994525e+57 -3.2077711e+56 -1.894279e+56)
(-7.8497388e+57 -9.6168797e+55 -1.2103998e+57)
(-6.8005624e+57 1.3580942e+56 -1.3481239e+57)
(-6.6856727e+57 -7.7153359e+55 -1.3490062e+57)
(-8.5013182e+57 -1.3492742e+56 -1.0304748e+57)
(-8.3890222e+57 -4.2731479e+56 -1.0263234e+57)
(-9.0018664e+57 -2.4087318e+56 -5.0035456e+56)
(-9.0529568e+57 -2.0283888e+56 -5.3024769e+56)
(-8.4685783e+57 -1.1185578e+56 -1.0283754e+57)
(-8.4443235e+57 -3.4283858e+56 -1.0198006e+57)
(-9.0382454e+57 -2.1735763e+56 -4.8730216e+56)
(-9.0451747e+57 -2.2425617e+56 -5.117881e+56)
(-9.886284e+57 6.9773112e+55 9.6569152e+56)
(-7.95856e+57 -4.4635622e+56 -1.1147038e+57)
(-9.2506651e+57 -2.4726414e+56 -2.3316569e+55)
(-8.9454049e+57 -3.7561032e+56 -1.6394881e+56)
(-7.7646901e+57 -1.4068991e+56 -1.197897e+57)
(-9.6084776e+57 4.7398517e+55 9.844733e+56)
(-7.866225e+57 -4.0789447e+56 -1.0722311e+57)
(-9.2037186e+57 -2.7887354e+56 2.469789e+55)
(-8.9332421e+57 -3.7083199e+56 -1.603182e+56)
(-7.6390263e+57 -8.0084603e+55 -1.2477822e+57)
(-6.3520611e+57 5.3577834e+56 -1.2423696e+57)
(-6.3146126e+57 4.3221096e+56 -1.2121973e+57)
(-8.5049696e+57 -2.1480911e+56 -1.0035262e+57)
(-8.350928e+57 -4.0073178e+56 -9.705504e+56)
(-8.99992e+57 -2.275359e+56 -4.527823e+56)
(-9.0857212e+57 -2.8020523e+56 -4.9994429e+56)
(-8.4541597e+57 -1.3786833e+56 -1.0348328e+57)
(-8.3924298e+57 -3.792081e+56 -9.8969763e+56)
(-9.0092206e+57 -2.2772539e+56 -4.7075872e+56)
(-9.0551461e+57 -2.3982594e+56 -5.1325424e+56)
(-8.8101652e+57 -3.8130311e+55 -2.8818175e+56)
(-8.4583225e+57 -1.9353019e+56 -8.2087346e+56)
(-8.4793754e+57 3.5901501e+55 -9.3355272e+56)
(-8.770527e+57 -7.1060922e+55 -5.7259923e+56)
(-8.9468136e+57 -1.3716864e+56 -4.7476004e+56)
(-8.5114244e+57 -2.8029419e+56 -9.4448542e+56)
(-8.5661816e+57 -5.1343552e+55 -9.9403274e+56)
(-8.9709142e+57 -1.4580194e+56 -5.3574347e+56)
(-8.587223e+57 -1.3374509e+56 -9.6711819e+56)
(-8.5060158e+57 -3.0004504e+56 -9.2642402e+56)
(-8.9349834e+57 -1.2218859e+56 -4.6924534e+56)
(-8.9740902e+57 -1.8273161e+56 -5.2827974e+56)
(-8.7249579e+57 -1.276743e+55 -5.7884957e+56)
(-8.4487596e+57 -1.8745579e+56 -8.6125997e+56)
(-8.4922422e+57 -3.6579504e+55 -9.0181322e+56)
(-8.7303081e+57 -5.6455557e+55 -6.4276888e+56)
(-8.627984e+57 7.1272253e+56 -1.3453577e+57)
(-8.5656175e+57 2.6560813e+56 -1.2893161e+57)
(-9.5125231e+57 7.5040804e+56 -4.426427e+56)
(-9.3886456e+57 -8.5355132e+55 -4.3093977e+56)
(-1.2247426e+58 5.6532076e+56 -7.9214701e+56)
(-9.285145e+57 -2.0858162e+55 6.2970728e+56)
(-9.4750736e+57 2.5812721e+56 -1.0310486e+57)
(-9.3695491e+57 -2.7010881e+56 -9.1660956e+56)
(-9.2515208e+57 6.8302155e+55 7.293843e+56)
(-1.0730169e+58 6.9036678e+55 -1.9039238e+56)
(-1.069304e+58 -9.5146784e+53 -8.3010953e+55)
(-1.3884744e+58 4.7697962e+55 2.3639217e+56)
(-1.0471739e+58 -2.3492766e+56 1.7656139e+57)
(-1.0660347e+58 8.8299423e+56 1.8180858e+57)
(-1.4638243e+58 -4.3311762e+55 -2.2230088e+57)
(-9.7278795e+57 1.4820234e+56 -8.4187454e+55)
(-9.5717597e+57 -4.6777853e+55 -2.1227402e+56)
(-9.4576983e+57 -2.9180577e+55 -6.4863314e+56)
(-9.286547e+57 1.3279572e+56 -9.4834303e+56)
(-9.5254108e+57 1.1996668e+56 -2.4215653e+56)
(-9.6087338e+57 2.3791014e+55 -1.5120278e+56)
(-9.2025924e+57 1.7207977e+56 -7.4657706e+56)
(-9.2057567e+57 -1.0707801e+56 -1.0384532e+57)
(-9.9489474e+57 1.4399887e+56 7.9117967e+55)
(-9.3720157e+57 -6.2494781e+55 -7.5585748e+56)
(-9.3013643e+57 6.8294351e+55 -1.06555e+57)
(-9.7487798e+57 -9.0763056e+55 -1.3148103e+56)
(-9.2734865e+57 -1.514955e+56 -1.1170209e+57)
(-9.6889585e+57 5.446263e+55 -2.449198e+56)
(-9.6298755e+57 -4.6882595e+55 -2.3025993e+56)
(-9.221906e+57 8.6390876e+55 -1.1050073e+57)
(-9.5626556e+57 -3.716992e+54 -2.3064091e+56)
(-9.570241e+57 1.4345109e+56 -2.145369e+56)
(-9.2586935e+57 -5.071983e+55 -9.3758975e+56)
(-9.248776e+57 1.7632835e+56 -9.791782e+56)
(-9.4985695e+57 1.6570322e+56 -2.1551016e+56)
(-9.5994046e+57 4.1000937e+55 -1.2475181e+56)
(-9.2032522e+57 1.7430007e+56 -7.0636659e+56)
(-9.1780288e+57 -6.5407362e+55 -9.945732e+56)
(-9.2607023e+57 7.6692131e+55 -1.0766792e+57)
(-9.2711138e+57 -1.0962302e+56 -1.0234676e+57)
(-9.7616627e+57 1.2322834e+56 -9.4728432e+55)
(-9.7420962e+57 -7.3106677e+55 -1.3735957e+56)
(-9.2259429e+57 -1.4352467e+56 -1.0690368e+57)
(-9.6371533e+57 7.4518561e+55 -2.3021881e+56)
(-9.6243296e+57 -4.6181305e+55 -2.0638313e+56)
(-9.2060948e+57 6.9634e+55 -1.0979279e+57)
(-9.9823723e+57 1.179949e+56 -1.5903809e+56)
(-9.4127343e+57 -5.83777e+55 -1.0511217e+57)
(-9.3599932e+57 5.2385181e+55 -1.104319e+57)
(-9.9082488e+57 -1.3236701e+56 -2.8865875e+56)
(-8.8915076e+57 3.4848735e+55 -6.79811e+56)
(-8.8551984e+57 -4.3784514e+55 -6.6940107e+56)
(-1.0468454e+58 2.1779482e+56 2.737121e+56)
(-1.0444054e+58 -2.0174935e+56 2.3745757e+56)
(-1.1512757e+58 8.2203807e+55 9.2054779e+56)
(-1.050552e+58 1.1066355e+56 3.2431229e+56)
(-8.860137e+57 -6.6308633e+55 -6.7427828e+56)
(-8.8528914e+57 5.2055266e+55 -6.6719595e+56)
(-1.038679e+58 -2.5355115e+56 2.1819445e+56)
(-1.1630437e+58 -1.7299369e+56 8.4686508e+56)
(-9.4615404e+57 -1.5154692e+56 -1.059514e+57)
(-9.3511441e+57 -1.0775869e+55 -1.1122168e+57)
(-9.9055407e+57 3.9352686e+55 -3.4913278e+56)
(-9.7897313e+57 -1.3912881e+56 -3.9357685e+56)
(-7.707842e+57 2.3118024e+55 -2.1819949e+57)
(-7.6258407e+57 -3.3797755e+56 -2.281444e+57)
(-9.376942e+57 -1.7793518e+56 -1.0592184e+57)
(-9.9275452e+57 3.2591973e+55 -2.2526419e+56)
(-9.3056738e+57 9.8362006e+54 -1.1044574e+57)
(-9.8834772e+57 -1.6880028e+56 -2.7974369e+56)
(-8.8426498e+57 -2.9566204e+55 -6.8700532e+56)
(-8.8781011e+57 -1.363481e+56 -6.8431961e+56)
(-1.0431666e+58 9.9896855e+55 2.5112273e+56)