/*--------------------------------*- C++ -*----------------------------------*\
  =========                 |
  \\      /  F ield         | OpenFOAM: The Open Source CFD Toolbox
   \\    /   O peration     | Website:  https://openfoam.org
    \\  /    A nd           | Version:  7
     \\/     M anipulation  |
\*---------------------------------------------------------------------------*/
FoamFile
{
    version     2.0;
    format      ascii;
    class       volScalarField;
    location    "3000";
    object      p;
}
// * * * * * * * * * * * * * * * * * * * * * * * * * * * * * * * * * * * * * //

dimensions      [0 2 -2 0 0 0 0];

internalField   nonuniform List<scalar> 
34387
(
-2.3337566e+40
-2.2258101e+40
-2.2535579e+40
-2.2240852e+40
-2.3339805e+40
-2.2235186e+40
-2.3076215e+40
-2.3647515e+40
-2.3641747e+40
-2.3078626e+40
-2.1195876e+40
-2.2000667e+40
-2.1999648e+40
-2.2544754e+40
-2.2539844e+40
-2.2551544e+40
-2.2001847e+40
-2.2001253e+40
-2.2542599e+40
-2.2535539e+40
-2.2535537e+40
-2.2008403e+40
-2.2228742e+40
-2.2204499e+40
-2.1178526e+40
-2.1991153e+40
-2.1983199e+40
-2.2532697e+40
-2.2540297e+40
-2.3375312e+40
-2.219973e+40
-2.3686872e+40
-2.3086609e+40
-2.3079285e+40
-2.3657971e+40
-2.1169498e+40
-2.1979757e+40
-2.2544905e+40
-2.2536717e+40
-2.1992569e+40
-2.3093295e+40
-2.3649294e+40
-2.3642249e+40
-2.3093667e+40
-2.0157329e+40
-2.1481681e+40
-2.0942005e+40
-2.0951477e+40
-2.1478845e+40
-2.1483406e+40
-2.0943802e+40
-2.0957387e+40
-2.1481325e+40
-2.2006926e+40
-2.1997884e+40
-2.2012534e+40
-2.2541575e+40
-2.2538158e+40
-2.2543179e+40
-2.255156e+40
-2.2017353e+40
-2.2009365e+40
-2.2544024e+40
-2.2535098e+40
-2.2535481e+40
-2.2008368e+40
-2.2535137e+40
-2.2008387e+40
-2.1488249e+40
-2.2225532e+40
-2.2188616e+40
-2.1169737e+40
-2.1976054e+40
-2.1973405e+40
-2.2516054e+40
-2.2524727e+40
-2.212841e+40
-2.1145958e+40
-2.0143729e+40
-2.0934923e+40
-2.0926998e+40
-2.1463984e+40
-2.1471868e+40
-2.2003557e+40
-2.1996776e+40
-2.2531713e+40
-2.2539049e+40
-2.3436642e+40
-2.2147661e+40
-2.3098163e+40
-2.312207e+40
-2.3760805e+40
-2.3716101e+40
-2.113375e+40
-2.1957875e+40
-2.2526583e+40
-2.2531906e+40
-2.1970729e+40
-2.3692337e+40
-2.3108811e+40
-2.3098185e+40
-2.3661589e+40
-2.013688e+40
-2.0918483e+40
-2.1472019e+40
-2.1457642e+40
-2.0934269e+40
-2.1998041e+40
-2.254706e+40
-2.2540482e+40
-2.200885e+40
-2.3094536e+40
-2.3650046e+40
-2.3642764e+40
-2.3094435e+40
-1.9137603e+40
-1.9909793e+40
-2.0436792e+40
-2.0443019e+40
-1.9920442e+40
-1.9924678e+40
-1.9909071e+40
-2.0435252e+40
-2.0441118e+40
-2.1480973e+40
-2.0955586e+40
-2.0960416e+40
-2.0959292e+40
-2.1481178e+40
-2.1487037e+40
-2.1484702e+40
-2.0959459e+40
-2.0968302e+40
-2.1485634e+40
-2.2004356e+40
-2.200734e+40
-2.2005501e+40
-2.2012473e+40
-2.2541169e+40
-2.253389e+40
-2.2537625e+40
-2.253719e+40
-2.2552081e+40
-2.2017917e+40
-2.2009238e+40
-2.2543285e+40
-2.2534956e+40
-2.2533198e+40
-2.2007986e+40
-2.253498e+40
-2.2008339e+40
-2.1488226e+40
-2.2536171e+40
-2.2007873e+40
-2.1488254e+40
-2.0972845e+40
-2.2189365e+40
-2.2502012e+40
-2.1172937e+40
-2.1953182e+40
-2.1969061e+40
-2.2502832e+40
-2.1973025e+40
-2.1978962e+40
-2.2505903e+40
-2.2514908e+40
-2.209477e+40
-2.113435e+40
-2.1459756e+40
-2.0925853e+40
-2.013789e+40
-2.0921691e+40
-2.1458293e+40
-2.1988093e+40
-2.1985115e+40
-2.2511976e+40
-2.2521928e+40
-2.1091616e+40
-2.012096e+40
-1.9129268e+40
-1.9897125e+40
-2.0420574e+40
-1.9904119e+40
-2.0428121e+40
-2.094778e+40
-2.0939589e+40
-2.1463915e+40
-2.147149e+40
-2.2003453e+40
-2.1997707e+40
-2.2532435e+40
-2.2538469e+40
-2.3532547e+40
-2.2138314e+40
-2.3809385e+40
-2.3870157e+40
-2.318975e+40
-2.3151378e+40
-2.1091069e+40
-2.194305e+40
-2.193748e+40
-2.2529112e+40
-2.252038e+40
-2.3122774e+40
-2.3150249e+40
-2.3768562e+40
-2.3723174e+40
-2.0110517e+40
-2.0894756e+40
-2.1432861e+40
-2.1448825e+40
-2.0911799e+40
-2.1984055e+40
-2.2537263e+40
-2.2539043e+40
-2.1992726e+40
-2.3693847e+40
-2.311097e+40
-2.3099318e+40
-2.3662387e+40
-1.9891197e+40
-1.9125029e+40
-2.0429179e+40
-2.0412819e+40
-1.9904745e+40
-2.0935046e+40
-2.1474907e+40
-2.1461655e+40
-2.0950331e+40
-2.1999898e+40
-2.2548231e+40
-2.2542341e+40
-2.2010076e+40
-2.3094671e+40
-2.3650115e+40
-2.3642807e+40
-2.3094507e+40
-1.8129791e+40
-1.889153e+40
-1.8889659e+40
-1.9410522e+40
-1.9416963e+40
-1.8899118e+40
-1.8903887e+40
-1.9415727e+40
-1.9411404e+40
-1.9924545e+40
-2.0438307e+40
-2.0447618e+40
-2.0455244e+40
-1.9930409e+40
-1.9929838e+40
-1.9935559e+40
-1.992255e+40
-2.0435205e+40
-2.0445896e+40
-2.1481971e+40
-2.0956819e+40
-2.0969125e+40
-2.0961437e+40
-2.0970359e+40
-2.1484083e+40
-2.1482142e+40
-2.1484979e+40
-2.1485905e+40
-2.0960792e+40
-2.0969186e+40
-2.1486219e+40
-2.2006301e+40
-2.2005351e+40
-2.2007353e+40
-2.2006029e+40
-2.2012488e+40
-2.2541138e+40
-2.2534028e+40
-2.2533134e+40
-2.2537627e+40
-2.2536146e+40
-2.2552103e+40
-2.2017968e+40
-2.2009271e+40
-2.2543247e+40
-2.2007918e+40
-2.2005433e+40
-2.1487819e+40
-2.2007772e+40
-2.1488227e+40
-2.097283e+40
-2.200616e+40
-2.1487922e+40
-2.0972845e+40
-2.0458136e+40
-2.2109568e+40
-2.2473129e+40
-2.1919787e+40
-2.1138238e+40
-2.1939409e+40
-2.2488628e+40
-2.249628e+40
-2.0918048e+40
-2.0139764e+40
-2.0937141e+40
-2.1456008e+40
-2.144414e+40
-2.1465607e+40
-2.0941023e+40
-2.092786e+40
-2.1462001e+40
-2.1964641e+40
-2.1975208e+40
-2.1977203e+40
-2.2501803e+40
-2.2511604e+40
-2.1985926e+40
-2.1989742e+40
-2.250611e+40
-2.2510307e+40
-2.1071276e+40
-2.0113652e+40
-2.1459663e+40
-2.0939949e+40
-2.0421722e+40
-1.9124165e+40
-1.9896855e+40
-1.9896239e+40
-2.0416859e+40
-2.0934525e+40
-2.1457717e+40
-2.1988489e+40
-2.1984927e+40
-2.2511368e+40
-2.2522093e+40
-2.1017069e+40
-2.0091655e+40
-1.9115668e+40
-1.8891685e+40
-1.8124543e+40
-1.8890366e+40
-1.9407367e+40
-1.9403753e+40
-1.9910062e+40
-2.0420492e+40
-1.9917057e+40
-2.0428389e+40
-2.0948683e+40
-2.0940069e+40
-2.1464625e+40
-2.1472109e+40
-2.2003495e+40
-2.1997746e+40
-2.2532532e+40
-2.2538461e+40
-2.3663777e+40
-2.2174697e+40
-2.3286406e+40
-2.3230886e+40
-2.3926241e+40
-2.4001571e+40
-2.1076606e+40
-2.1951583e+40
-2.2566205e+40
-2.2542386e+40
-2.1939518e+40
-2.3821353e+40
-2.3883809e+40
-2.3227162e+40
-2.3185457e+40
-2.0086744e+40
-2.0870626e+40
-2.1408856e+40
-2.1420301e+40
-2.0883729e+40
-2.1977123e+40
-2.1975836e+40
-2.2548916e+40
-2.25367e+40
-2.312472e+40
-2.3152829e+40
-2.3770595e+40
-2.3724432e+40
-1.9109987e+40
-1.9867074e+40
-2.0389623e+40
-2.0405107e+40
-1.9880053e+40
-2.0914953e+40
-2.1442715e+40
-2.1456918e+40
-2.0931504e+40
-2.1986748e+40
-2.253999e+40
-2.2540946e+40
-2.1994662e+40
-2.3694015e+40
-2.3111214e+40
-2.309946e+40
-2.3662471e+40
-1.9906311e+40
-1.9398216e+40
-1.8124117e+40
-1.940522e+40
-1.8884545e+40
-1.8884911e+40
-2.0432542e+40
-2.0415045e+40
-1.9920041e+40
-2.0936257e+40
-2.1476249e+40
-2.1463252e+40
-2.0951548e+40
-2.2000046e+40
-2.2548327e+40
-2.2542507e+40
-2.2010183e+40
-1.7127421e+40
-1.788714e+40
-1.7882969e+40
-1.8398328e+40
-1.8398508e+40
-1.7883629e+40
-1.7889184e+40
-1.8397268e+40
-1.8398906e+40
-1.890482e+40
-1.8902224e+40
-1.9410101e+40
-1.9420332e+40
-1.9431024e+40
-1.8907133e+40
-1.890914e+40
-1.8913015e+40
-1.9420217e+40
-1.9412029e+40
-1.9925421e+40
-2.0439443e+40
-2.044873e+40
-2.0454972e+40
-2.045478e+40
-1.9940868e+40
-1.9931448e+40
-1.9941506e+40
-1.9936539e+40
-1.992362e+40
-2.0436466e+40
-2.0446874e+40
-2.1482047e+40
-2.0956908e+40
-2.097266e+40
-2.0969669e+40
-2.0961505e+40
-2.0970963e+40
-2.1486834e+40
-2.1485339e+40
-2.1482178e+40
-2.1485989e+40
-2.1486001e+40
-2.0960907e+40
-2.0969248e+40
-2.1486281e+40
-2.148781e+40
-2.1485378e+40
-2.0972473e+40
-2.1487881e+40
-2.0972832e+40
-2.0458116e+40
-2.1486048e+40
-2.0972655e+40
-2.0458114e+40
-1.9945557e+40
-2.1939905e+40
-2.1077185e+40
-2.189115e+40
-2.1857396e+40
-2.2414087e+40
-2.2449739e+40
-2.2474026e+40
-2.1936554e+40
-2.140812e+40
-2.0880971e+40
-2.0116603e+40
-2.0906479e+40
-2.1430353e+40
-2.1952038e+40
-2.2485541e+40
-2.2496765e+40
-2.0933164e+40
-2.0416848e+40
-1.9122579e+40
-1.9891685e+40
-2.0422089e+40
-1.9896955e+40
-2.0422933e+40
-1.9896076e+40
-1.9891323e+40
-2.0420481e+40
-2.0947734e+40
-2.0944993e+40
-2.1459072e+40
-2.1472155e+40
-2.1443411e+40
-2.1473196e+40
-2.0953543e+40
-2.0943833e+40
-2.1463353e+40
-2.1965609e+40
-2.1984895e+40
-2.1975861e+40
-2.1990814e+40
-2.2509076e+40
-2.2501701e+40
-2.2510287e+40
-2.1985818e+40
-2.1990418e+40
-2.2505558e+40
-2.250897e+40
-2.0987208e+40
-2.0082102e+40
-1.9111818e+40
-2.1460225e+40
-2.0940727e+40
-2.0423265e+40
-1.8122301e+40
-1.9396116e+40
-1.8875193e+40
-1.9400789e+40
-1.8885093e+40
-1.9910174e+40
-1.9909498e+40
-2.0416756e+40
-2.0934949e+40
-2.1458178e+40
-2.1988509e+40
-2.1984934e+40
-2.2511333e+40
-2.2522128e+40
-2.0985996e+40
-2.0067917e+40
-1.9103055e+40
-1.8118347e+40
-1.8906098e+40
-1.8399085e+40
-1.7124398e+40
-1.7882554e+40
-1.7882472e+40
-1.8397051e+40
-1.8903453e+40
-1.9408013e+40
-1.9405041e+40
-1.9910684e+40
-2.0421044e+40
-1.9917945e+40
-2.0429384e+40
-2.0948737e+40
-2.0940098e+40
-2.1464642e+40
-2.1472166e+40
-2.3824782e+40
-2.2247029e+40
-2.3415423e+40
-2.4167882e+40
-2.4077851e+40
-2.3343094e+40
-2.1092422e+40
-2.1972651e+40
-2.1998737e+40
-2.2635453e+40
-2.2595321e+40
-2.3329701e+40
-2.3273889e+40
-2.3943973e+40
-2.4018149e+40
-2.0081032e+40
-2.086911e+40
-2.1408243e+40
-2.141159e+40
-2.0870416e+40
-2.1998446e+40
-2.2595108e+40
-2.256842e+40
-2.1983536e+40
-2.38237e+40
-2.3886736e+40
-2.3230908e+40
-2.3188531e+40
-1.9101883e+40
-1.9851069e+40
-2.0369456e+40
-2.0380902e+40
-1.9859518e+40
-2.0895009e+40
-2.1425489e+40
-2.1435265e+40
-2.0907888e+40
-2.1980016e+40
-2.1979361e+40
-2.2552237e+40
-2.2539641e+40
-2.3124995e+40
-2.3153175e+40
-2.3770818e+40
-2.3724626e+40
-1.8118947e+40
-1.8865606e+40
-1.8873457e+40
-1.9386014e+40
-1.9375867e+40
-1.9881123e+40
-2.0392926e+40
-2.0408821e+40
-1.9894605e+40
-2.0916425e+40
-2.1444912e+40
-2.1458475e+40
-2.0932575e+40
-2.1986967e+40
-2.2540236e+40
-2.2541128e+40
-2.1994833e+40
-1.9907131e+40
-1.9400024e+40
-1.7127269e+40
-1.8394456e+40
-1.7880961e+40
-1.7883127e+40
-1.8393116e+40
-1.9405966e+40
-1.8898764e+40
-1.8897136e+40
-2.043361e+40
-2.0416162e+40
-1.9921005e+40
-2.0936365e+40
-2.147636e+40
-2.1463378e+40
-2.0951658e+40
-1.613014e+40
-1.6883006e+40
-1.6884016e+40
-1.738662e+40
-1.7394571e+40
-1.7388207e+40
-1.7395135e+40
-1.687845e+40
-1.6878463e+40
-1.7899474e+40
-1.7893957e+40
-1.8396873e+40
-1.8399607e+40
-1.8406394e+40
-1.7889129e+40
-1.7884136e+40
-1.7896291e+40
-1.8399733e+40
-1.8397975e+40
-1.8905551e+40
-1.890281e+40
-1.9410968e+40
-1.9430871e+40
-1.9421485e+40
-1.9431265e+40
-1.8918831e+40
-1.8908012e+40
-1.8919768e+40
-1.8913615e+40
-1.9421046e+40
-1.9412957e+40
-1.9925492e+40
-2.0439537e+40
-2.0448807e+40
-2.0455259e+40
-2.0457951e+40
-2.0455054e+40
-1.9941491e+40
-1.994498e+40
-1.9931533e+40
-1.9942126e+40
-1.9936617e+40
-1.9923708e+40
-2.043656e+40
-2.0446954e+40
-2.0972487e+40
-2.0972657e+40
-2.0969689e+40
-2.0970975e+40
-2.0457792e+40
-2.0458097e+40
-1.9945539e+40
-2.0457842e+40
-1.9945533e+40
-1.9435675e+40
-2.1888362e+40
-2.2364568e+40
-2.1782564e+40
-2.0998196e+40
-2.1806469e+40
-2.2380749e+40
-2.0084311e+40
-2.1345721e+40
-2.0825442e+40
-2.0855511e+40
-2.1379306e+40
-2.1913127e+40
-2.1884686e+40
-2.2431248e+40
-2.2456409e+40
-2.2475714e+40
-2.1410844e+40
-2.1938257e+40
-2.0896843e+40
-2.0383628e+40
-1.9867888e+40
-1.9113258e+40
-2.0404239e+40
-1.9881235e+40
-2.0922117e+40
-2.1431866e+40
-2.195304e+40
-2.2486068e+40
-2.2496822e+40
-2.0934255e+40
-2.0418836e+40
-1.8121032e+40
-1.9391939e+40
-1.8870823e+40
-1.8874765e+40
-1.9387511e+40
-1.8870236e+40
-1.8873741e+40
-1.9386323e+40
-1.9390758e+40
-1.9905951e+40
-2.0426057e+40
-2.0432059e+40
-1.9905022e+40
-1.9897639e+40
-2.0426387e+40
-1.9902894e+40
-1.9902569e+40
-2.0420647e+40
-2.0953364e+40
-2.0948471e+40
-2.0955052e+40
-2.1468443e+40
-2.146001e+40
-2.1473399e+40
-2.14447e+40
-2.1474572e+40
-2.0954495e+40
-2.0945278e+40
-2.1464603e+40
-2.196573e+40
-2.1990479e+40
-2.1985307e+40
-2.1975966e+40
-2.1992507e+40
-2.2510331e+40
-2.2515318e+40
-2.2501759e+40
-2.2511433e+40
-2.1985888e+40
-2.1990486e+40
-2.2505607e+40
-2.2508924e+40
-2.0951802e+40
-2.0057526e+40
-1.9099972e+40
-1.811667e+40
-2.1460266e+40
-2.0940773e+40
-2.0423858e+40
-1.7125393e+40
-1.7878396e+40
-1.8385274e+40
-1.8396013e+40
-1.7883421e+40
-1.9394688e+40
-1.888525e+40
-1.940089e+40
-1.8897346e+40
-1.9910566e+40
-1.9909865e+40
-2.0417274e+40
-2.0934972e+40
-2.1458194e+40
-2.0993189e+40
-2.0059535e+40
-1.9097233e+40
-1.8114841e+40
-1.7122861e+40
-1.8399438e+40
-1.8906449e+40
-1.612864e+40
-1.6879075e+40
-1.6876507e+40
-1.7390234e+40
-1.7391159e+40
-1.7894183e+40
-1.7893075e+40
-1.8396597e+40
-1.8904073e+40
-1.9408786e+40
-1.9405584e+40
-1.991073e+40
-2.0421086e+40
-1.9918003e+40
-2.0429441e+40
-2.40068e+40
-2.2348283e+40
-2.3573726e+40
-2.3488441e+40
-2.4256788e+40
-2.4359768e+40
-2.1139381e+40
-2.2073929e+40
-2.2034144e+40
-2.2678797e+40
-2.2734079e+40
-2.34591e+40
-2.4186465e+40
-2.4097097e+40
-2.3387652e+40
-2.0095956e+40
-2.0893435e+40
-2.1444698e+40
-2.1424864e+40
-2.0876281e+40
-2.2023494e+40
-2.2050118e+40
-2.2669313e+40
-2.2629418e+40
-2.333573e+40
-2.3280808e+40
-2.3948754e+40
-2.4022087e+40
-1.9104016e+40
-1.9854751e+40
-2.0369033e+40
-2.0370105e+40
-1.9852917e+40
-2.0896002e+40
-2.1428899e+40
-2.1432904e+40
-2.0897708e+40
-2.2003277e+40
-2.2599824e+40
-2.2572603e+40
-2.19876e+40
-2.382396e+40
-2.3887031e+40
-2.3231357e+40
-2.3188895e+40
-1.8120075e+40
-1.8865451e+40
-1.8865887e+40
-1.9371905e+40
-1.9367251e+40
-1.9865547e+40
-2.0374406e+40
-2.0385905e+40
-1.987443e+40
-2.0896805e+40
-2.142842e+40
-2.1437573e+40
-2.0909305e+40
-2.1980253e+40
-2.197965e+40
-2.2552589e+40
-2.2539934e+40
-1.712737e+40
-1.7876119e+40
-1.7881492e+40
-1.8384568e+40
-1.8386371e+40
-1.8876523e+40
-1.8884561e+40
-1.9385741e+40
-1.9375107e+40
-1.9881872e+40
-2.0393974e+40
-2.040983e+40
-1.9895502e+40
-2.0916538e+40
-2.1445076e+40
-2.1458595e+40
-2.0932663e+40
-1.9907208e+40
-1.9400741e+40
-1.6131587e+40
-1.6885562e+40
-1.7394357e+40
-1.7397623e+40
-1.6887603e+40
-1.8394234e+40
-1.7893096e+40
-1.7894735e+40
-1.8391926e+40
-1.9406872e+40
-1.8899272e+40
-1.8897772e+40
-2.0433703e+40
-2.0416256e+40
-1.9921083e+40
-1.5136424e+40
-1.5885471e+40
-1.5890118e+40
-1.5882718e+40
-1.6395918e+40
-1.6389921e+40
-1.5885366e+40
-1.639155e+40
-1.6387201e+40
-1.6893394e+40
-1.6890322e+40
-1.6876268e+40
-1.7387222e+40
-1.7389145e+40
-1.739164e+40
-1.7388068e+40
-1.7392301e+40
-1.6887968e+40
-1.6883187e+40
-1.7899651e+40
-1.7894158e+40
-1.8397446e+40
-1.8403186e+40
-1.8400156e+40
-1.8403793e+40
-1.7889199e+40
-1.7889389e+40
-1.7890837e+40
-1.7896322e+40
-1.8400078e+40
-1.8398404e+40
-1.8905617e+40
-1.8902854e+40
-1.9411037e+40
-1.9435134e+40
-1.943133e+40
-1.9421572e+40
-1.9431686e+40
-1.8922576e+40
-1.8919332e+40
-1.8908086e+40
-1.8920221e+40
-1.8913672e+40
-1.9421125e+40
-1.9413032e+40
-2.0455274e+40
-2.0457836e+40
-2.045778e+40
-2.0455082e+40
-1.9941545e+40
-1.994516e+40
-1.994522e+40
-1.994218e+40
-1.9945248e+40
-1.9945512e+40
-1.9435665e+40
-1.9945183e+40
-1.9435667e+40
-1.8923001e+40
-2.1910894e+40
-2.0967656e+40
-2.1768011e+40
-2.1773166e+40
-2.2373405e+40
-2.2358663e+40
-2.2402559e+40
-2.1833546e+40
-2.1283674e+40
-2.0056958e+40
-2.077588e+40
-2.0798577e+40
-2.1308371e+40
-2.1850625e+40
-2.2409045e+40
-1.910203e+40
-1.985501e+40
-1.9843589e+40
-2.0342977e+40
-2.0363756e+40
-2.1353677e+40
-2.0841355e+40
-2.0871138e+40
-2.1384766e+40
-2.1915398e+40
-2.1887723e+40
-2.2434843e+40
-2.245919e+40
-2.2475894e+40
-2.1412573e+40
-2.1938439e+40
-2.0898255e+40
-2.0385113e+40
-1.9880907e+40
-1.9378366e+40
-1.8867001e+40
-1.8118077e+40
-1.8869971e+40
-1.938526e+40
-2.040614e+40
-1.989396e+40
-2.0923259e+40
-2.1433151e+40
-2.1953185e+40
-2.2486161e+40
-2.0934362e+40
-2.0419861e+40
-1.7129256e+40
-1.7876145e+40
-1.7871484e+40
-1.8381454e+40
-1.8377976e+40
-1.7875737e+40
-1.7875925e+40
-1.8377342e+40
-1.838185e+40
-1.9389429e+40
-1.8880165e+40
-1.8879925e+40
-1.8872953e+40
-1.9388289e+40
-1.9392407e+40
-1.8878549e+40
-1.8877882e+40
-1.9386019e+40
-1.938656e+40
-1.9906645e+40
-2.0429246e+40
-2.0426884e+40
-2.0428797e+40
-1.9905931e+40
-1.9905661e+40
-1.9904615e+40
-2.0427011e+40
-1.9903277e+40
-1.9902807e+40
-2.0421581e+40
-2.0953251e+40
-2.0953016e+40
-2.0948528e+40
-2.0954711e+40
-2.1467863e+40
-2.1470302e+40
-2.146011e+40
-2.1473778e+40
-2.1444843e+40
-2.147462e+40
-2.0954526e+40
-2.0945343e+40
-2.1464701e+40
-2.1989595e+40
-2.1989413e+40
-2.1985292e+40
-2.1992508e+40
-2.2510355e+40
-2.2516884e+40
-2.2516564e+40
-2.2511538e+40
-2.0956294e+40
-2.0048492e+40
-1.9095468e+40
-1.811438e+40
-1.71229e+40
-2.0423885e+40
-1.6131482e+40
-1.7392319e+40
-1.7392653e+40
-1.6884219e+40
-1.6878477e+40
-1.7888658e+40
-1.8382432e+40
-1.8395652e+40
-1.7895463e+40
-1.9395086e+40
-1.8885485e+40
-1.9401355e+40
-1.8897697e+40
-1.9910577e+40
-1.9909888e+40
-2.0417306e+40
-2.1035713e+40
-2.0072676e+40
-1.9100528e+40
-1.8117332e+40
-1.7124183e+40
-1.6128235e+40
-1.8400067e+40
-1.890647e+40
-1.513433e+40
-1.5886943e+40
-1.5884681e+40
-1.6392361e+40
-1.6391503e+40
-1.6889012e+40
-1.6885542e+40
-1.7387524e+40
-1.7389173e+40
-1.7894779e+40
-1.7893642e+40
-1.8397228e+40
-1.8904107e+40
-1.9408833e+40
-1.9405619e+40
-2.4204804e+40
-2.2472847e+40
-2.3748535e+40
-2.4571056e+40
-2.4459682e+40
-2.3652705e+40
-2.121292e+40
-2.2862107e+40
-2.2175368e+40
-2.2119664e+40
-2.2791567e+40
-2.3619017e+40
-2.3534165e+40
-2.427863e+40
-2.4379557e+40
-2.0133377e+40
-2.0946706e+40
-2.150679e+40
-2.1472809e+40
-2.091533e+40
-2.2128012e+40
-2.2089058e+40
-2.271464e+40
-2.2767487e+40
-2.3462489e+40
-2.4190098e+40
-2.4101017e+40
-2.3392636e+40
-1.9121669e+40
-1.9876935e+40
-1.9861075e+40
-2.0374789e+40
-2.039069e+40
-2.092074e+40
-2.1467612e+40
-2.1447262e+40
-2.090299e+40
-2.202823e+40
-2.2055786e+40
-2.2676671e+40
-2.2636187e+40
-2.3336331e+40
-2.32814e+40
-2.3949268e+40
-2.4022563e+40
-1.8127475e+40
-1.8868049e+40
-1.8871605e+40
-1.9370387e+40
-1.9373725e+40
-1.9869579e+40
-2.0374899e+40
-2.0376497e+40
-1.9868313e+40
-2.0897752e+40
-2.1431907e+40
-2.1436416e+40
-2.0899236e+40
-2.2003653e+40
-2.2600284e+40
-2.2573008e+40
-2.1987934e+40
-1.7132396e+40
-1.838993e+40
-1.7886978e+40
-1.7880685e+40
-1.8385362e+40
-1.8877189e+40
-1.8878019e+40
-1.9371482e+40
-1.936618e+40
-1.9866141e+40
-2.0375504e+40
-2.0386866e+40
-1.9875091e+40
-2.0896926e+40
-2.1428631e+40
-2.1437738e+40
-2.0909405e+40
-1.6134606e+40
-1.7395969e+40
-1.6884604e+40
-1.688449e+40
-1.7390668e+40
-1.7886811e+40
-1.7893459e+40
-1.8383073e+40
-1.8384561e+40
-1.8877014e+40
-1.8885156e+40
-1.9386512e+40
-1.9375697e+40
-1.9881927e+40
-2.0394048e+40
-2.0409903e+40
-1.9895576e+40
-1.9400799e+40
-1.5138222e+40
-1.5890895e+40
-1.6399547e+40
-1.639845e+40
-1.5886398e+40
-1.6896981e+40
-1.7393218e+40
-1.7397145e+40
-1.6899356e+40
-1.8394851e+40
-1.7893664e+40
-1.7894947e+40
-1.8392351e+40
-1.9406934e+40
-1.8899309e+40
-1.8897819e+40
-1.4145281e+40
-1.488526e+40
-1.5396183e+40
-1.5396203e+40
-1.4891558e+40
-1.4896904e+40
-1.4896346e+40
-1.5402382e+40
-1.5393664e+40
-1.5895635e+40
-1.5895901e+40
-1.5888019e+40
-1.5891401e+40
-1.6392418e+40
-1.6389473e+40
-1.6392241e+40
-1.5890341e+40
-1.6387205e+40
-1.638722e+40
-1.6893519e+40
-1.6881813e+40
-1.6890211e+40
-1.68808e+40
-1.7387144e+40
-1.7383371e+40
-1.7383683e+40
-1.7391821e+40
-1.7388282e+40
-1.7392808e+40
-1.6888486e+40
-1.6883434e+40
-1.7899661e+40
-1.7894161e+40
-1.8397488e+40
-1.84047e+40
-1.8403491e+40
-1.8400194e+40
-1.8404115e+40
-1.7889448e+40
-1.7889495e+40
-1.7889403e+40
-1.789113e+40
-1.7896313e+40
-1.8400107e+40
-1.8398431e+40
-1.9435408e+40
-1.9435494e+40
-1.9431373e+40
-1.9431731e+40
-1.8922879e+40
-1.892288e+40
-1.8919377e+40
-1.8920262e+40
-1.943552e+40
-1.9435654e+40
-1.8922993e+40
-1.9435437e+40
-1.8922999e+40
-1.8405332e+40
-2.1983608e+40
-2.2448732e+40
-2.1815829e+40
-2.097876e+40
-2.1787222e+40
-2.2402772e+40
-2.0046212e+40
-2.1269127e+40
-2.076401e+40
-2.076678e+40
-2.1269336e+40
-2.182627e+40
-2.1835299e+40
-2.242556e+40
-2.2406199e+40
-2.2407761e+40
-2.1838457e+40
-2.130012e+40
-1.9097075e+40
-1.9829831e+40
-1.9819843e+40
-2.0307671e+40
-2.0324806e+40
-2.0794349e+40
-2.0816822e+40
-2.1322836e+40
-2.1854465e+40
-2.2413197e+40
-1.8117656e+40
-1.9363819e+40
-1.8858479e+40
-1.8863537e+40
-1.9370429e+40
-1.9866991e+40
-1.9855722e+40
-2.0343475e+40
-2.0364469e+40
-2.1356067e+40
-2.084268e+40
-2.0872429e+40
-2.1386534e+40
-2.191566e+40
-2.1888013e+40
-2.2435249e+40
-2.2459478e+40
-2.1412739e+40
-2.0898396e+40
-2.038625e+40
-1.9881637e+40
-1.9377031e+40
-1.8877507e+40
-1.8381843e+40
-1.787448e+40
-1.7126035e+40
-1.7872727e+40
-1.8381366e+40
-1.8879749e+40
-1.9383862e+40
-2.0407358e+40
-1.9894943e+40
-2.0923371e+40
-2.1433278e+40
-2.0419944e+40
-1.6892541e+40
-1.6897412e+40
-1.688969e+40
-1.6137228e+40
-1.7391871e+40
-1.739108e+40
-1.7388288e+40
-1.7393484e+40
-1.688655e+40
-1.7882225e+40
-1.7875167e+40
-1.7881192e+40
-1.8376983e+40
-1.8378065e+40
-1.8382287e+40
-1.7885444e+40
-1.7881335e+40
-1.8376711e+40
-1.8376822e+40
-1.9390151e+40
-1.8880626e+40
-1.8880116e+40
-1.8880242e+40
-1.8878907e+40
-1.9389334e+40
-1.9388714e+40
-1.9388043e+40
-1.8878583e+40
-1.8878164e+40
-1.9386325e+40
-1.9386651e+40
-1.9906694e+40
-2.0429555e+40
-2.0429747e+40
-2.0426933e+40
-2.0428794e+40
-1.9907263e+40
-1.9906695e+40
-1.9905696e+40
-1.9905115e+40
-2.0427048e+40
-1.990331e+40
-1.9902809e+40
-2.0421618e+40
-2.0952627e+40
-2.0952499e+40
-2.0953025e+40
-2.0954686e+40
-2.1467818e+40
-2.1468537e+40
-2.1468755e+40
-2.1473717e+40
-2.1989477e+40
-2.198912e+40
-2.1989242e+40
-2.2516836e+40
-2.2517455e+40
-2.2516543e+40
-2.0998224e+40
-2.0061586e+40
-1.9100175e+40
-1.8118363e+40
-1.7125047e+40
-1.612949e+40
-1.639943e+40
-1.5892228e+40
-1.5138408e+40
-1.5888033e+40
-1.6392594e+40
-1.7390157e+40
-1.7390617e+40
-1.6894613e+40
-1.6888332e+40
-1.7888766e+40
-1.838256e+40
-1.8395914e+40
-1.7895836e+40
-1.939509e+40
-1.8885486e+40
-1.9401376e+40
-1.8897711e+40
-2.1106533e+40
-2.0108586e+40
-1.9117157e+40
-1.8126898e+40
-1.7130675e+40
-1.6131466e+40
-1.5134483e+40
-1.8400096e+40
-1.4141875e+40
-1.488836e+40
-1.5398314e+40
-1.5399763e+40
-1.488817e+40
-1.5897332e+40
-1.5894343e+40
-1.6389544e+40
-1.6388772e+40
-1.6889345e+40
-1.6885934e+40
-1.7387949e+40
-1.7389572e+40
-1.7894809e+40
-1.7893679e+40
-1.839726e+40
-2.4412505e+40
-2.2616919e+40
-2.4793356e+40
-2.3939642e+40
-2.3842146e+40
-2.4676065e+40
-2.1308243e+40
-2.2300385e+40
-2.2229497e+40
-2.2927201e+40
-2.3010007e+40
-2.3797425e+40
-2.4592485e+40
-2.4483178e+40
-2.3700951e+40
-2.0192064e+40
-2.0980461e+40
-2.1024394e+40
-2.1593909e+40
-2.1545022e+40
-2.2895929e+40
-2.2230463e+40
-2.2175873e+40
-2.2827412e+40
-2.3619906e+40
-2.3536263e+40
-2.4282717e+40
-2.4383252e+40
-1.9155027e+40
-1.9892591e+40
-1.9920115e+40
-2.0408737e+40
-2.0437901e+40
-2.0975692e+40
-2.1531984e+40
-2.1498113e+40
-2.0943972e+40
-2.2134065e+40
-2.2095078e+40
-2.2720847e+40
-2.2772132e+40
-2.3463016e+40
-2.4190355e+40
-2.410144e+40
-2.3393212e+40
-1.8145376e+40
-1.8885652e+40
-1.8896754e+40
-1.93832e+40
-1.9397258e+40
-1.9892136e+40
-1.9876173e+40
-2.0380604e+40
-2.0396699e+40
-2.0921895e+40
-2.1470593e+40
-2.1450042e+40
-2.0904275e+40
-2.2028597e+40
-2.2056195e+40
-2.2677251e+40
-2.2636696e+40
-1.7142683e+40
-1.7896507e+40
-1.788804e+40
-1.8390998e+40
-1.8396555e+40
-1.8880559e+40
-1.8883536e+40
-1.9370312e+40
-1.9373151e+40
-1.9870116e+40
-2.0375948e+40
-2.0377453e+40
-1.9868834e+40
-2.0897878e+40
-2.1432135e+40
-2.1436673e+40
-2.0899347e+40
-1.6140851e+40
-1.7402429e+40
-1.6891331e+40
-1.6886234e+40
-1.7395939e+40
-1.8389725e+40
-1.7899868e+40
-1.7892026e+40
-1.8383999e+40
-1.8877684e+40
-1.8878301e+40
-1.9371983e+40
-1.936661e+40
-1.9866181e+40
-2.0375577e+40
-2.0386922e+40
-1.9875134e+40
-1.5142184e+40
-1.5890954e+40
-1.6399117e+40
-1.6400301e+40
-1.5893099e+40
-1.7393531e+40
-1.689438e+40
-1.6894816e+40
-1.7387991e+40
-1.7887123e+40
-1.7893509e+40
-1.8383343e+40
-1.8385004e+40
-1.8877048e+40
-1.8885205e+40
-1.9386573e+40
-1.9375736e+40
-1.4144603e+40
-1.4899997e+40
-1.4900818e+40
-1.5403913e+40
-1.5407231e+40
-1.5901959e+40
-1.6397798e+40
-1.6396179e+40
-1.5896556e+40
-1.6897391e+40
-1.7393746e+40
-1.7397382e+40
-1.6899656e+40
-1.8394886e+40
-1.7893704e+40
-1.7894963e+40
-1.839238e+40
-1.3154456e+40
-1.3903861e+40
-1.3899767e+40
-1.3904581e+40
-1.4413083e+40
-1.4410948e+40
-1.3914134e+40
-1.4402044e+40
-1.4403528e+40
-1.4892931e+40
-1.5391093e+40
-1.5395566e+40
-1.5399868e+40
-1.4895584e+40
-1.489148e+40
-1.4904281e+40
-1.4907876e+40
-1.5399814e+40
-1.5394231e+40
-1.5895886e+40
-1.5894404e+40
-1.5895869e+40
-1.589389e+40
-1.5891731e+40
-1.6392655e+40
-1.6389769e+40
-1.63871e+40
-1.6386925e+40
-1.5890696e+40
-1.6387655e+40
-1.6387295e+40
-1.6893512e+40
-1.6881738e+40
-1.68796e+40
-1.689019e+40
-1.6880859e+40
-1.7387131e+40
-1.7383185e+40
-1.7382023e+40
-1.7383599e+40
-1.7391814e+40
-1.7388276e+40
-1.7392827e+40
-1.6888508e+40
-1.688344e+40
-1.8405002e+40
-1.8405035e+40
-1.8403511e+40
-1.8404133e+40
-1.7889464e+40
-1.7889707e+40
-1.7889736e+40
-1.789114e+40
-1.8922897e+40
-1.8922988e+40
-1.8922904e+40
-1.8405317e+40
-1.8405317e+40
-1.7890206e+40
-2.2085517e+40
-2.1025613e+40
-2.1851914e+40
-2.1899763e+40
-2.2565049e+40
-2.2501005e+40
-2.2509587e+40
-2.1883666e+40
-2.1300021e+40
-2.0791903e+40
-2.006068e+40
-2.0774579e+40
-2.127835e+40
-2.1853788e+40
-2.2461507e+40
-1.9100133e+40
-1.9815056e+40
-1.9818031e+40
-2.0301191e+40
-2.0301933e+40
-2.1290202e+40
-2.0784034e+40
-2.0786543e+40
-2.1289352e+40
-2.1832561e+40
-2.1842275e+40
-2.243543e+40
-2.2413781e+40
-2.2408331e+40
-2.1838813e+40
-2.1302765e+40
-1.9353328e+40
-1.8859383e+40
-1.8122749e+40
-1.8859347e+40
-1.9357424e+40
-1.9840174e+40
-1.9829427e+40
-2.0306084e+40
-2.0324077e+40
-2.0795233e+40
-2.0817717e+40
-2.1325083e+40
-2.1854769e+40
-2.2413678e+40
-1.71302e+40
-1.7876615e+40
-1.7879384e+40
-1.8379373e+40
-1.8381101e+40
-1.936192e+40
-1.8868611e+40
-1.8874091e+40
-1.9369141e+40
-1.9867576e+40
-1.9856139e+40
-2.0344233e+40
-2.0365412e+40
-2.1356239e+40
-2.0842784e+40
-2.0872554e+40
-2.1386696e+40
-2.0386359e+40
-1.9881702e+40
-1.9377632e+40
-1.8877828e+40
-1.8378545e+40
-1.7884254e+40
-1.7391904e+40
-1.6885661e+40
-1.6134656e+40
-1.6882819e+40
-1.7389032e+40
-1.7881696e+40
-1.8377826e+40
-1.8880105e+40
-1.9384513e+40
-2.0407463e+40
-1.9895026e+40
-1.6898977e+40
-1.6898232e+40
-1.6400796e+40
-1.6906088e+40
-1.6403808e+40
-1.6902728e+40
-1.6404969e+40
-1.5142708e+40
-1.5892991e+40
-1.6404437e+40
-1.5896913e+40
-1.5896194e+40
-1.5895784e+40
-1.7390078e+40
-1.7393453e+40
-1.7397425e+40
-1.7388588e+40
-1.739044e+40
-1.6897777e+40
-1.7882667e+40
-1.7882684e+40
-1.7881674e+40
-1.7881547e+40
-1.8377319e+40
-1.8378751e+40
-1.8378391e+40
-1.8377732e+40
-1.7885459e+40
-1.788164e+40
-1.8376997e+40
-1.8376957e+40
-1.9390192e+40
-1.8880654e+40
-1.8880399e+40
-1.8880465e+40
-1.8880265e+40
-1.8879169e+40
-1.9390317e+40
-1.9389767e+40
-1.9388739e+40
-1.9388371e+40
-1.887858e+40
-1.8878185e+40
-1.9386348e+40
-1.9386645e+40
-2.0429593e+40
-2.0430334e+40
-2.04304e+40
-2.0428822e+40
-1.9908177e+40
-1.9908223e+40
-1.9906741e+40
-1.9905166e+40
-2.0952659e+40
-2.0952473e+40
-2.0952536e+40
-2.1468446e+40
-2.1468108e+40
-2.1468688e+40
-2.1989072e+40
-2.1989028e+40
-2.2517431e+40
-2.2517419e+40
-2.106952e+40
-2.0097663e+40
-1.9117475e+40
-1.8129413e+40
-1.7132756e+40
-1.6133172e+40
-1.5136297e+40
-1.6397657e+40
-1.5903128e+40
-1.540663e+40
-1.4145332e+40
-1.4898058e+40
-1.5405215e+40
-1.4896786e+40
-1.5899038e+40
-1.6390014e+40
-1.7390752e+40
-1.7391063e+40
-1.6895191e+40
-1.6888896e+40
-1.7888766e+40
-1.8382554e+40
-1.8395921e+40
-1.7895854e+40
-2.1199615e+40
-2.0165476e+40
-1.9149298e+40
-1.8145451e+40
-1.7142952e+40
-1.6139224e+40
-1.5137968e+40
-1.4141442e+40
-1.3151235e+40
-1.3896199e+40
-1.3898961e+40
-1.4402562e+40
-1.4404155e+40
-1.4897274e+40
-1.539548e+40
-1.5396879e+40
-1.489676e+40
-1.5897349e+40
-1.589474e+40
-1.6389958e+40
-1.6388968e+40
-1.6889365e+40
-1.6885958e+40
-1.7387973e+40
-1.7389591e+40
-2.4628741e+40
-2.2773637e+40
-2.4139098e+40
-2.4035429e+40
-2.489701e+40
-2.5018664e+40
-2.1421579e+40
-2.2444373e+40
-2.3176896e+40
-2.3090716e+40
-2.2368491e+40
-2.4814269e+40
-2.3992048e+40
-2.3895224e+40
-2.4699115e+40
-2.0269132e+40
-2.1067349e+40
-2.1117951e+40
-2.170188e+40
-2.1640492e+40
-2.2357152e+40
-2.2286246e+40
-2.2964259e+40
-2.3047081e+40
-2.3802473e+40
-2.4596153e+40
-2.4489268e+40
-2.3705067e+40
-1.9204843e+40
-1.9983565e+40
-1.9946317e+40
-2.0467361e+40
-2.0507833e+40
-2.1010543e+40
-2.1054204e+40
-2.1619303e+40
-2.157166e+40
-2.2899777e+40
-2.2236261e+40
-2.2182245e+40
-2.2831818e+40
-2.3620162e+40
-2.3536656e+40
-2.4282884e+40
-2.4383328e+40
-1.8176395e+40
-1.8934624e+40
-1.8912518e+40
-1.9411745e+40
-1.9437507e+40
-1.9908063e+40
-1.993603e+40
-2.0415547e+40
-2.0444921e+40
-2.0977413e+40
-2.1536307e+40
-2.1502173e+40
-2.0945664e+40
-2.2134561e+40
-2.2095539e+40
-2.272145e+40
-2.2772735e+40
-1.7160374e+40
-1.7914918e+40
-1.8419269e+40
-1.8408273e+40
-1.7902763e+40
-1.8899604e+40
-1.8909569e+40
-1.9383938e+40
-1.9397339e+40
-1.9892429e+40
-1.9876516e+40
-2.0381337e+40
-2.039736e+40
-2.0921993e+40
-2.1470824e+40
-2.1450272e+40
-2.0904384e+40
-1.615136e+40
-1.741363e+40
-1.6903361e+40
-1.689502e+40
-1.7404448e+40
-1.7909073e+40
-1.7899809e+40
-1.8390241e+40
-1.8395779e+40
-1.8880991e+40
-1.8883942e+40
-1.9370678e+40
-1.9373545e+40
-1.987015e+40
-2.0376007e+40
-2.03775e+40
-1.9868865e+40
-1.5148578e+40
-1.5893696e+40
-1.5899233e+40
-1.6406356e+40
-1.6401187e+40
-1.7400429e+40
-1.6901248e+40
-1.6895696e+40
-1.7393329e+40
-1.839005e+40
-1.7900182e+40
-1.7892483e+40
-1.8384524e+40
-1.8877714e+40
-1.8878319e+40
-1.9372011e+40
-1.9366635e+40
-1.4147878e+40
-1.4906579e+40
-1.5409462e+40
-1.5411853e+40
-1.4905235e+40
-1.5901359e+40
-1.6396187e+40
-1.6398075e+40
-1.5904282e+40
-1.7393976e+40
-1.6894961e+40
-1.6894947e+40
-1.7388294e+40
-1.7887143e+40
-1.7893508e+40
-1.8383358e+40
-1.8385034e+40
-1.3151724e+40
-1.3903076e+40
-1.4413676e+40
-1.4414468e+40
-1.3902868e+40
-1.4911862e+40
-1.4913147e+40
-1.5402802e+40
-1.5405909e+40
-1.5902311e+40
-1.6398212e+40
-1.6396597e+40
-1.5896982e+40