/*--------------------------------*- C++ -*----------------------------------*\
  =========                 |
  \\      /  F ield         | OpenFOAM: The Open Source CFD Toolbox
   \\    /   O peration     | Website:  https://openfoam.org
    \\  /    A nd           | Version:  7
     \\/     M anipulation  |
\*---------------------------------------------------------------------------*/
FoamFile
{
    version     2.0;
    format      ascii;
    class       volScalarField;
    location    "3000";
    object      pMean;
}
// * * * * * * * * * * * * * * * * * * * * * * * * * * * * * * * * * * * * * //

dimensions      [0 2 -2 0 0 0 0];

internalField   nonuniform List<scalar> 
34387
(
-1.8352129e+37
-1.794327e+37
-1.8033565e+37
-1.7910922e+37
-1.8435915e+37
-1.7990314e+37
-1.8289187e+37
-1.8424222e+37
-1.8396063e+37
-1.8270142e+37
-1.7591313e+37
-1.7857356e+37
-1.7876739e+37
-1.7986665e+37
-1.7995587e+37
-1.8002624e+37
-1.7898855e+37
-1.7853814e+37
-1.7987537e+37
-1.8033557e+37
-1.8033472e+37
-1.7831627e+37
-1.790675e+37
-1.7917574e+37
-1.7573754e+37
-1.7853258e+37
-1.7856502e+37
-1.7973869e+37
-1.7971952e+37
-1.8500626e+37
-1.8089862e+37
-1.8494461e+37
-1.8336233e+37
-1.8309774e+37
-1.844132e+37
-1.7638354e+37
-1.7921856e+37
-1.8012072e+37
-1.8031834e+37
-1.7904922e+37
-1.8273946e+37
-1.8464177e+37
-1.8430631e+37
-1.8251575e+37
-1.7214236e+37
-1.7638227e+37
-1.7514968e+37
-1.7485004e+37
-1.7624816e+37
-1.7654046e+37
-1.753401e+37
-1.7518121e+37
-1.7634715e+37
-1.7843331e+37
-1.7836348e+37
-1.785641e+37
-1.8005927e+37
-1.8019434e+37
-1.8016668e+37
-1.8031601e+37
-1.7879284e+37
-1.7838061e+37
-1.8013762e+37
-1.8033331e+37
-1.8033436e+37
-1.7831561e+37
-1.8032088e+37
-1.7831515e+37
-1.764924e+37
-1.7917689e+37
-1.7912099e+37
-1.7565735e+37
-1.7846984e+37
-1.7842432e+37
-1.7960034e+37
-1.7970233e+37
-1.8038063e+37
-1.7615131e+37
-1.7209194e+37
-1.7501913e+37
-1.7492631e+37
-1.7607229e+37
-1.761141e+37
-1.7826804e+37
-1.7835146e+37
-1.8005517e+37
-1.7998627e+37
-1.8504665e+37
-1.8130483e+37
-1.8323269e+37
-1.8347015e+37
-1.8554908e+37
-1.8500565e+37
-1.771052e+37
-1.7965943e+37
-1.8078187e+37
-1.8058955e+37
-1.7947745e+37
-1.854752e+37
-1.8325399e+37
-1.8294355e+37
-1.8482157e+37
-1.7252264e+37
-1.7556014e+37
-1.765766e+37
-1.7667776e+37
-1.7548271e+37
-1.789834e+37
-1.8046471e+37
-1.8066571e+37
-1.7884426e+37
-1.8272924e+37
-1.8464559e+37
-1.8430537e+37
-1.8248755e+37
-1.682454e+37
-1.7155227e+37
-1.7277316e+37
-1.7279428e+37
-1.7124606e+37
-1.7131003e+37
-1.7130177e+37
-1.7257934e+37
-1.725822e+37
-1.7670557e+37
-1.7488308e+37
-1.7462769e+37
-1.7472573e+37
-1.7644194e+37
-1.7644275e+37
-1.7687961e+37
-1.7512986e+37
-1.7510055e+37
-1.7662223e+37
-1.7833827e+37
-1.784177e+37
-1.7831492e+37
-1.7853902e+37
-1.8005522e+37
-1.8025156e+37
-1.8020091e+37
-1.8027214e+37
-1.803173e+37
-1.7875543e+37
-1.7835492e+37
-1.801499e+37
-1.8033249e+37
-1.802527e+37
-1.7831467e+37
-1.8031984e+37
-1.7831419e+37
-1.7649188e+37
-1.8027414e+37
-1.7830395e+37
-1.7649183e+37
-1.747044e+37
-1.7938444e+37
-1.7991138e+37
-1.7562227e+37
-1.786358e+37
-1.7837716e+37
-1.7976985e+37
-1.7848103e+37
-1.7833877e+37
-1.7959116e+37
-1.7975705e+37
-1.8071518e+37
-1.7615152e+37
-1.76004e+37
-1.7484756e+37
-1.7207291e+37
-1.7473738e+37
-1.7594234e+37
-1.7824254e+37
-1.7819995e+37
-1.7984236e+37
-1.8001479e+37
-1.7672764e+37
-1.7235727e+37
-1.6826039e+37
-1.7109855e+37
-1.7235631e+37
-1.7130913e+37
-1.7252318e+37
-1.7475821e+37
-1.7465784e+37
-1.7637596e+37
-1.763978e+37
-1.78254e+37
-1.7833401e+37
-1.8005204e+37
-1.7999188e+37
-1.8503919e+37
-1.8229338e+37
-1.8573531e+37
-1.8609287e+37
-1.8352703e+37
-1.8346623e+37
-1.777814e+37
-1.7957655e+37
-1.7984714e+37
-1.8088315e+37
-1.8063819e+37
-1.8323461e+37
-1.8351811e+37
-1.8614952e+37
-1.8562565e+37
-1.7292718e+37
-1.7622039e+37
-1.7726538e+37
-1.7711499e+37
-1.7610176e+37
-1.7941387e+37
-1.8104008e+37
-1.8086125e+37
-1.7927316e+37
-1.8549763e+37
-1.8324892e+37
-1.8291443e+37
-1.8482884e+37
-1.7175959e+37
-1.6855839e+37
-1.7298391e+37
-1.7295285e+37
-1.7178321e+37
-1.7524582e+37
-1.7689091e+37
-1.769424e+37
-1.7528423e+37
-1.7896881e+37
-1.8046368e+37
-1.8067353e+37
-1.7881445e+37
-1.827281e+37
-1.8464455e+37
-1.8430425e+37
-1.8248561e+37
-1.6433757e+37
-1.676515e+37
-1.6738154e+37
-1.6875426e+37
-1.6889645e+37
-1.6736756e+37
-1.6758117e+37
-1.6881744e+37
-1.6892212e+37
-1.7131726e+37
-1.7306753e+37
-1.7303607e+37
-1.7282668e+37
-1.7107163e+37
-1.71023e+37
-1.7114112e+37
-1.709921e+37
-1.7275517e+37
-1.7275525e+37
-1.7672131e+37
-1.7488105e+37
-1.7463825e+37
-1.7461666e+37
-1.7473866e+37
-1.764377e+37
-1.7645193e+37
-1.7646033e+37
-1.7688266e+37
-1.7512511e+37
-1.75075e+37
-1.766181e+37
-1.7831445e+37
-1.7833113e+37
-1.784168e+37
-1.7830272e+37
-1.7853681e+37
-1.8005477e+37
-1.8031775e+37
-1.8025138e+37
-1.8020207e+37
-1.8027352e+37
-1.8031722e+37
-1.7875274e+37
-1.7835301e+37
-1.8015036e+37
-1.7831355e+37
-1.7833213e+37
-1.7648972e+37
-1.7830289e+37
-1.7649107e+37
-1.747041e+37
-1.7830349e+37
-1.764801e+37
-1.747045e+37
-1.7279858e+37
-1.8067112e+37
-1.7990938e+37
-1.7903617e+37
-1.7620486e+37
-1.7871494e+37
-1.7979288e+37
-1.802425e+37
-1.7493905e+37
-1.7203453e+37
-1.7492051e+37
-1.7620073e+37
-1.7613109e+37
-1.7621955e+37
-1.7492183e+37
-1.7482123e+37
-1.7603999e+37
-1.7841648e+37
-1.7829838e+37
-1.781217e+37
-1.8003074e+37
-1.7990207e+37
-1.782609e+37
-1.7819005e+37
-1.7981395e+37
-1.8003983e+37
-1.7686434e+37
-1.7228945e+37
-1.7621752e+37
-1.7458334e+37
-1.725015e+37
-1.682855e+37
-1.7144807e+37
-1.7114952e+37
-1.7225904e+37
-1.7443256e+37
-1.7620203e+37
-1.7823328e+37
-1.7818085e+37
-1.798453e+37
-1.8002022e+37
-1.7474559e+37
-1.7248059e+37
-1.6844098e+37
-1.6746298e+37
-1.6432449e+37
-1.6747344e+37
-1.6880258e+37
-1.6863024e+37
-1.7081486e+37
-1.7259015e+37
-1.7104705e+37
-1.7277036e+37
-1.7475079e+37
-1.7465057e+37
-1.7638402e+37
-1.7640683e+37
-1.7825258e+37
-1.7833367e+37
-1.8005233e+37
-1.7999083e+37
-1.8539396e+37
-1.8271209e+37
-1.8372307e+37
-1.83475e+37
-1.8614245e+37
-1.8654111e+37
-1.7874101e+37
-1.8016581e+37
-1.8101393e+37
-1.8096489e+37
-1.8000169e+37
-1.8646989e+37
-1.869354e+37
-1.8383517e+37
-1.8371391e+37
-1.7320651e+37
-1.7670636e+37
-1.7768596e+37
-1.7752122e+37
-1.7656742e+37
-1.7948947e+37
-1.7971681e+37
-1.8111843e+37
-1.8088122e+37
-1.8323078e+37
-1.8353988e+37
-1.8618696e+37
-1.8565373e+37
-1.6873931e+37
-1.7228109e+37
-1.7355624e+37
-1.7345561e+37
-1.7211873e+37
-1.7593561e+37
-1.7751371e+37
-1.7742567e+37
-1.7592386e+37
-1.7938857e+37
-1.8103665e+37
-1.8085542e+37
-1.7924419e+37
-1.8549893e+37
-1.8324993e+37
-1.8291317e+37
-1.8482867e+37
-1.7151071e+37
-1.692209e+37
-1.6451984e+37
-1.6905858e+37
-1.6799962e+37
-1.6765134e+37
-1.7333144e+37
-1.7319192e+37
-1.7161143e+37
-1.7522448e+37
-1.7689434e+37
-1.7694877e+37
-1.752666e+37
-1.7896831e+37
-1.8046383e+37
-1.8067435e+37
-1.7881301e+37
-1.6032564e+37
-1.636665e+37
-1.6366347e+37
-1.6505674e+37
-1.6509314e+37
-1.636107e+37
-1.6367472e+37
-1.6490003e+37
-1.6486342e+37
-1.6738751e+37
-1.6711037e+37
-1.6893872e+37
-1.6899016e+37
-1.6907993e+37
-1.671266e+37
-1.6741582e+37
-1.6736237e+37
-1.6900791e+37
-1.6919881e+37
-1.7129564e+37
-1.7307236e+37
-1.7304518e+37
-1.728761e+37
-1.7277553e+37
-1.7099507e+37
-1.710663e+37
-1.7092801e+37
-1.711147e+37
-1.7099025e+37
-1.7276343e+37
-1.7275352e+37
-1.7672128e+37
-1.7488059e+37
-1.7468754e+37
-1.746464e+37
-1.7461572e+37
-1.747392e+37
-1.7646551e+37
-1.7646281e+37
-1.7645215e+37
-1.7647058e+37
-1.7688218e+37
-1.7512471e+37
-1.7507309e+37
-1.7661755e+37
-1.7648841e+37
-1.7646483e+37
-1.7470009e+37
-1.7647867e+37
-1.7470399e+37
-1.7279819e+37
-1.7647198e+37
-1.7469774e+37
-1.727985e+37
-1.7093786e+37
-1.7803991e+37
-1.7695739e+37
-1.7931826e+37
-1.7991123e+37
-1.8031677e+37
-1.8013177e+37
-1.8028197e+37
-1.7880319e+37
-1.7661457e+37
-1.755024e+37
-1.723018e+37
-1.7531731e+37
-1.76391e+37
-1.7849627e+37
-1.8011768e+37
-1.8026241e+37
-1.7466103e+37
-1.7255692e+37
-1.6831354e+37
-1.7157818e+37
-1.7259987e+37
-1.7139422e+37
-1.7261013e+37
-1.7138053e+37
-1.7132344e+37
-1.7239851e+37
-1.7477872e+37
-1.7468051e+37
-1.7641927e+37
-1.7632217e+37
-1.7634412e+37
-1.763494e+37
-1.7475606e+37
-1.745325e+37
-1.7622435e+37
-1.7841376e+37
-1.7815512e+37
-1.7828727e+37
-1.7809094e+37
-1.8000473e+37
-1.8003562e+37
-1.7995027e+37
-1.7825011e+37
-1.7816127e+37
-1.7982209e+37
-1.8004553e+37
-1.7445681e+37
-1.7233944e+37
-1.6838766e+37
-1.7622147e+37
-1.7457135e+37
-1.7276886e+37
-1.6434575e+37
-1.6883836e+37
-1.6741019e+37
-1.6863824e+37
-1.67366e+37
-1.712651e+37
-1.7091707e+37
-1.7246732e+37
-1.744186e+37
-1.7620668e+37
-1.7823334e+37
-1.7817952e+37
-1.7984556e+37
-1.8002103e+37
-1.7479089e+37
-1.7219763e+37
-1.6850923e+37
-1.6443912e+37
-1.6725509e+37
-1.6494343e+37
-1.6028817e+37
-1.6364305e+37
-1.6354243e+37
-1.6484371e+37
-1.6724465e+37
-1.6905435e+37
-1.6885047e+37
-1.7080946e+37
-1.7259728e+37
-1.71046e+37
-1.7278096e+37
-1.7475025e+37
-1.7465023e+37
-1.7638465e+37
-1.764073e+37
-1.8599451e+37
-1.8313943e+37
-1.8416946e+37
-1.8711802e+37
-1.8686914e+37
-1.8389e+37
-1.7946233e+37
-1.804452e+37
-1.8049315e+37
-1.8126261e+37
-1.8113093e+37
-1.8413767e+37
-1.8383007e+37
-1.8698215e+37
-1.8746756e+37
-1.737885e+37
-1.773252e+37
-1.7801518e+37
-1.7815303e+37
-1.7715198e+37
-1.8003394e+37
-1.8127361e+37
-1.8121322e+37
-1.7991489e+37
-1.8648892e+37
-1.8696222e+37
-1.8386551e+37
-1.8371438e+37
-1.6890833e+37
-1.7254097e+37
-1.739451e+37
-1.738749e+37
-1.72495e+37
-1.7645756e+37
-1.779752e+37
-1.7785062e+37
-1.7641026e+37
-1.7944727e+37
-1.796685e+37
-1.8112483e+37
-1.8088604e+37
-1.8323288e+37
-1.8354367e+37
-1.8618946e+37
-1.8565539e+37
-1.6458178e+37
-1.6797146e+37
-1.6791574e+37
-1.6933652e+37
-1.6950333e+37
-1.7206795e+37
-1.7387955e+37
-1.738839e+37
-1.719699e+37
-1.7591379e+37
-1.7752273e+37
-1.7742175e+37
-1.7588315e+37
-1.7938763e+37
-1.8103798e+37
-1.8085614e+37
-1.7924322e+37
-1.7149272e+37
-1.695064e+37
-1.604372e+37
-1.6533942e+37
-1.6383181e+37
-1.6361872e+37
-1.6495643e+37
-1.6935716e+37
-1.678249e+37
-1.6735931e+37
-1.7333283e+37
-1.7320204e+37
-1.7158601e+37
-1.7522286e+37
-1.7689486e+37
-1.7694932e+37
-1.752658e+37
-1.5615216e+37
-1.5959851e+37
-1.5957237e+37
-1.6102509e+37
-1.6103463e+37
-1.6110838e+37
-1.6113589e+37
-1.5963319e+37
-1.5941096e+37
-1.6345802e+37
-1.6348123e+37
-1.6533901e+37
-1.6533954e+37
-1.6530239e+37
-1.6346926e+37
-1.6358199e+37
-1.6353587e+37
-1.6517408e+37
-1.6504877e+37
-1.6737481e+37
-1.6710476e+37
-1.6895109e+37
-1.6901847e+37
-1.6900556e+37
-1.6908692e+37
-1.6731658e+37
-1.671228e+37
-1.6733033e+37
-1.6732609e+37
-1.6900862e+37
-1.691987e+37
-1.7129389e+37
-1.7307272e+37
-1.7304553e+37
-1.7286607e+37
-1.7280506e+37
-1.7276615e+37
-1.7099855e+37
-1.7092997e+37
-1.7106572e+37
-1.7092364e+37
-1.7111244e+37
-1.7099003e+37
-1.7276391e+37
-1.7275337e+37
-1.7469934e+37
-1.7469631e+37
-1.7464735e+37
-1.7473971e+37
-1.7279664e+37
-1.7279794e+37
-1.709374e+37
-1.7279864e+37
-1.7093808e+37
-1.6905728e+37
-1.7927969e+37
-1.8149936e+37
-1.8054234e+37
-1.7531939e+37
-1.7978617e+37
-1.8066634e+37
-1.7245471e+37
-1.7711095e+37
-1.7587248e+37
-1.7571587e+37
-1.7684493e+37
-1.7908525e+37
-1.7947544e+37
-1.804372e+37
-1.8043455e+37
-1.8029036e+37
-1.7693752e+37
-1.7877278e+37
-1.7526394e+37
-1.7285632e+37
-1.7161575e+37
-1.684174e+37
-1.7272389e+37
-1.7155586e+37
-1.7512126e+37
-1.7670308e+37
-1.7847456e+37
-1.8013277e+37
-1.8026248e+37
-1.7464299e+37
-1.7280011e+37
-1.6427138e+37
-1.6903544e+37
-1.6769295e+37
-1.6754767e+37
-1.68894e+37
-1.6741517e+37
-1.6746663e+37
-1.6885168e+37
-1.6875806e+37
-1.7136168e+37
-1.7283088e+37
-1.7277778e+37
-1.711846e+37
-1.7121385e+37
-1.7286216e+37
-1.7119847e+37
-1.7105066e+37
-1.7263216e+37
-1.7466077e+37
-1.7475541e+37
-1.7457931e+37
-1.763498e+37
-1.7642734e+37
-1.7625578e+37
-1.7635729e+37
-1.7633821e+37
-1.7472659e+37
-1.7452407e+37
-1.762201e+37
-1.784134e+37
-1.7815815e+37
-1.7814915e+37
-1.7828595e+37
-1.7808718e+37
-1.7999894e+37
-1.7999534e+37
-1.8003401e+37
-1.7994149e+37
-1.7824924e+37
-1.781597e+37
-1.7982214e+37
-1.8004446e+37
-1.7427706e+37
-1.7178883e+37
-1.6837118e+37
-1.6440078e+37
-1.7622165e+37
-1.7457071e+37
-1.72771e+37
-1.6022621e+37
-1.6344651e+37
-1.6477131e+37
-1.6491803e+37
-1.6367359e+37
-1.6912537e+37
-1.6713009e+37
-1.6886546e+37
-1.6711455e+37
-1.7124317e+37
-1.7090127e+37
-1.7247504e+37
-1.7441802e+37
-1.7620731e+37
-1.7527486e+37
-1.7226151e+37
-1.6853172e+37
-1.6447779e+37
-1.6036852e+37
-1.6524138e+37
-1.672193e+37
-1.5613483e+37
-1.5951921e+37
-1.5943514e+37
-1.6087909e+37
-1.6095031e+37
-1.6340622e+37
-1.6322792e+37
-1.6506215e+37
-1.6723672e+37
-1.6906421e+37
-1.6885173e+37
-1.7080961e+37
-1.7259799e+37
-1.7104603e+37
-1.7278143e+37
-1.8674491e+37
-1.8363009e+37
-1.8491591e+37
-1.8449903e+37
-1.8753694e+37
-1.8788622e+37
-1.8010571e+37
-1.8094293e+37
-1.8083547e+37
-1.814666e+37
-1.8165437e+37
-1.8460565e+37
-1.8808246e+37
-1.8782436e+37
-1.8429016e+37
-1.7438553e+37
-1.7784788e+37
-1.7854467e+37
-1.7846503e+37
-1.7762152e+37
-1.8042082e+37
-1.804087e+37
-1.8154979e+37
-1.8142379e+37
-1.8416271e+37
-1.8384062e+37
-1.8699927e+37
-1.8747681e+37
-1.691982e+37
-1.7306667e+37
-1.7453721e+37
-1.7438987e+37
-1.7293317e+37
-1.7710419e+37
-1.783398e+37
-1.784852e+37
-1.7698412e+37
-1.7997058e+37
-1.8127685e+37
-1.8121626e+37
-1.798513e+37
-1.8649098e+37
-1.8696455e+37
-1.8387107e+37
-1.8371756e+37
-1.6472404e+37
-1.6810747e+37
-1.6819162e+37
-1.6970178e+37
-1.6975526e+37
-1.723214e+37
-1.7426558e+37
-1.7429547e+37
-1.7237002e+37
-1.7643562e+37
-1.7798511e+37
-1.7784435e+37
-1.7636843e+37
-1.7944624e+37
-1.7966683e+37
-1.8112873e+37
-1.8088944e+37
-1.6046792e+37
-1.6371355e+37
-1.6399083e+37
-1.6534862e+37
-1.6520554e+37
-1.6773114e+37
-1.6768173e+37
-1.6965976e+37
-1.6977875e+37
-1.7206024e+37
-1.7388739e+37
-1.7388029e+37
-1.7195772e+37
-1.7591215e+37
-1.7752318e+37
-1.7742207e+37
-1.7588085e+37
-1.7149162e+37
-1.6949958e+37
-1.5625913e+37
-1.5965189e+37
-1.6111369e+37
-1.6110418e+37
-1.5974216e+37
-1.6567278e+37
-1.6363372e+37
-1.6339895e+37
-1.6517924e+37
-1.6936863e+37
-1.6779354e+37
-1.6735278e+37
-1.7333319e+37
-1.7320216e+37
-1.7158442e+37
-1.5193501e+37
-1.5541506e+37
-1.5536645e+37
-1.5529664e+37
-1.5695012e+37
-1.5701203e+37
-1.5522096e+37
-1.5690777e+37
-1.5684077e+37
-1.5935799e+37
-1.594633e+37
-1.5924275e+37
-1.6132254e+37
-1.6125751e+37
-1.6126447e+37
-1.6134351e+37
-1.6142468e+37
-1.5944019e+37
-1.5925434e+37
-1.634298e+37
-1.6347577e+37
-1.6534722e+37
-1.6543148e+37
-1.6534512e+37
-1.6546631e+37
-1.6355937e+37
-1.6346719e+37
-1.6356775e+37
-1.6350661e+37
-1.6518369e+37
-1.6505628e+37
-1.6737401e+37
-1.6710439e+37
-1.689518e+37
-1.6904607e+37
-1.6901504e+37
-1.6900617e+37
-1.690854e+37
-1.6726538e+37
-1.672943e+37
-1.6712276e+37
-1.6730347e+37
-1.6732386e+37
-1.6900907e+37
-1.6919823e+37
-1.7286555e+37
-1.7279857e+37
-1.7279676e+37
-1.7276584e+37
-1.7099849e+37
-1.7093721e+37
-1.7093007e+37
-1.7092271e+37
-1.7092963e+37
-1.709374e+37
-1.6905653e+37
-1.7093732e+37
-1.6905735e+37
-1.6723663e+37
-1.796841e+37
-1.7583898e+37
-1.8075519e+37
-1.8110209e+37
-1.8162954e+37
-1.8158394e+37
-1.8021038e+37
-1.7996257e+37
-1.7727805e+37
-1.7206241e+37
-1.7589064e+37
-1.7568296e+37
-1.7681107e+37
-1.7936444e+37
-1.7996176e+37
-1.6839407e+37
-1.7164791e+37
-1.7182002e+37
-1.7315419e+37
-1.7298432e+37
-1.7747399e+37
-1.7564902e+37
-1.7552217e+37
-1.7724281e+37
-1.7904321e+37
-1.7940439e+37
-1.8042567e+37
-1.8041942e+37
-1.8029189e+37
-1.7694009e+37
-1.7877122e+37
-1.7524507e+37
-1.7313819e+37
-1.7137152e+37
-1.6899793e+37
-1.6766898e+37
-1.6438694e+37
-1.6769409e+37
-1.6895975e+37
-1.7304288e+37
-1.7129687e+37
-1.7508879e+37
-1.7669723e+37
-1.7847385e+37
-1.8013387e+37
-1.7464202e+37
-1.7278965e+37
-1.600474e+37
-1.6328718e+37
-1.6343001e+37
-1.649767e+37
-1.649355e+37
-1.6340819e+37
-1.6328903e+37
-1.6492321e+37
-1.6483433e+37
-1.6936501e+37
-1.6746409e+37
-1.6735424e+37
-1.6732365e+37
-1.6917744e+37
-1.6908993e+37
-1.6714685e+37
-1.6728083e+37
-1.6911805e+37
-1.6899832e+37
-1.7132579e+37
-1.7286203e+37
-1.7283208e+37
-1.7282461e+37
-1.7114679e+37
-1.7116825e+37
-1.7112235e+37
-1.7287156e+37
-1.7118359e+37
-1.7104043e+37
-1.726461e+37
-1.7461815e+37
-1.7464124e+37
-1.7475445e+37
-1.7455928e+37
-1.7634925e+37
-1.7633794e+37
-1.764283e+37
-1.7625409e+37
-1.7635823e+37
-1.7633764e+37
-1.7472407e+37
-1.7452341e+37
-1.7622008e+37
-1.7816979e+37
-1.7814933e+37
-1.7814881e+37
-1.780868e+37
-1.7999821e+37
-1.7995271e+37
-1.7997788e+37
-1.7994068e+37
-1.7458317e+37
-1.7164264e+37
-1.6828884e+37
-1.6439848e+37
-1.6029058e+37
-1.7277138e+37
-1.5605773e+37
-1.6094112e+37
-1.6082228e+37
-1.5937652e+37
-1.5940361e+37
-1.632009e+37
-1.6494606e+37
-1.6518346e+37
-1.6349121e+37
-1.6914709e+37
-1.671327e+37
-1.6887097e+37
-1.6709868e+37
-1.7124176e+37
-1.7090067e+37
-1.7247567e+37
-1.7584013e+37
-1.726529e+37
-1.686417e+37
-1.6456528e+37
-1.6040101e+37
-1.5620939e+37
-1.6523073e+37
-1.6721751e+37
-1.5194662e+37
-1.5540753e+37
-1.5523254e+37
-1.5680072e+37
-1.5683594e+37
-1.5931718e+37
-1.591652e+37
-1.6108716e+37
-1.6124962e+37
-1.6339477e+37
-1.6322634e+37
-1.6507254e+37
-1.6723604e+37
-1.6906495e+37
-1.6885231e+37
-1.8750974e+37
-1.8415852e+37
-1.855895e+37
-1.8881978e+37
-1.8852328e+37
-1.8527501e+37
-1.8070348e+37
-1.822581e+37
-1.8152819e+37
-1.8125243e+37
-1.8192826e+37
-1.8540854e+37
-1.8490167e+37
-1.8845667e+37
-1.8880431e+37
-1.7497723e+37
-1.7834918e+37
-1.7901774e+37
-1.7888563e+37
-1.7812849e+37
-1.80919e+37
-1.8084326e+37
-1.8177676e+37
-1.8198994e+37
-1.8463854e+37
-1.8807583e+37
-1.8785377e+37
-1.8431431e+37
-1.6964392e+37
-1.7358272e+37
-1.7322215e+37
-1.7473907e+37
-1.750525e+37
-1.7760947e+37
-1.7891128e+37
-1.7885979e+37
-1.7739585e+37
-1.8034299e+37
-1.8034022e+37
-1.8156085e+37
-1.8142241e+37
-1.8416812e+37
-1.8384565e+37
-1.8700228e+37
-1.8747953e+37
-1.6490437e+37
-1.6843971e+37
-1.6849386e+37
-1.7010479e+37
-1.7019644e+37
-1.7288426e+37
-1.7487862e+37
-1.7479452e+37
-1.7280952e+37
-1.7707038e+37
-1.7833815e+37
-1.7849567e+37
-1.7693406e+37
-1.799681e+37
-1.8128106e+37
-1.812206e+37
-1.7984925e+37
-1.6059674e+37
-1.6563502e+37
-1.6419161e+37
-1.6394374e+37
-1.6542712e+37
-1.6792867e+37
-1.6799621e+37
-1.700345e+37
-1.6998438e+37
-1.7231454e+37
-1.7428331e+37
-1.7429789e+37
-1.7236177e+37
-1.7643378e+37
-1.7798531e+37
-1.778445e+37
-1.7636589e+37
-1.5628209e+37
-1.6136833e+37
-1.5984899e+37
-1.5962118e+37
-1.6103662e+37
-1.6345634e+37
-1.6380214e+37
-1.6557428e+37
-1.6544302e+37
-1.6773192e+37
-1.676773e+37
-1.6967065e+37
-1.6979073e+37
-1.7205937e+37
-1.7388746e+37
-1.7387957e+37
-1.7195656e+37
-1.6949938e+37
-1.5203071e+37
-1.5545627e+37
-1.5696736e+37
-1.5699665e+37
-1.5539183e+37
-1.5942333e+37
-1.6136216e+37
-1.6136439e+37
-1.5955512e+37
-1.656724e+37
-1.6362914e+37
-1.6338315e+37
-1.6518962e+37
-1.6936874e+37
-1.6779133e+37
-1.6735193e+37
-1.4767083e+37
-1.5114377e+37
-1.5264077e+37
-1.5285385e+37
-1.5123406e+37
-1.5110149e+37
-1.5120199e+37
-1.5276081e+37
-1.5257135e+37
-1.5520254e+37
-1.551759e+37
-1.5514252e+37
-1.5500185e+37
-1.5717655e+37
-1.5717443e+37
-1.5706003e+37
-1.5501032e+37
-1.5707159e+37
-1.5701017e+37
-1.5934686e+37
-1.5921457e+37
-1.5943492e+37
-1.5919685e+37
-1.6133057e+37
-1.6136806e+37
-1.6136322e+37
-1.6127103e+37
-1.6134693e+37
-1.6142453e+37
-1.5944348e+37
-1.5925317e+37
-1.634284e+37
-1.6347571e+37
-1.6534799e+37
-1.6544762e+37
-1.6542604e+37
-1.6534529e+37
-1.6546328e+37
-1.6356481e+37
-1.6357304e+37
-1.634671e+37
-1.6356884e+37
-1.6350518e+37
-1.6518523e+37
-1.650569e+37
-1.6905083e+37
-1.6904789e+37
-1.6901435e+37
-1.6908558e+37
-1.6725106e+37
-1.6724688e+37
-1.6729306e+37
-1.6730207e+37
-1.6904764e+37
-1.6905653e+37
-1.6723696e+37
-1.6905144e+37
-1.6723709e+37
-1.6541221e+37
-1.8003068e+37
-1.819224e+37
-1.8147893e+37
-1.7647662e+37
-1.8125288e+37
-1.8172185e+37
-1.7207453e+37
-1.777581e+37
-1.7630874e+37
-1.7613292e+37
-1.7748092e+37
-1.800553e+37
-1.8037974e+37
-1.8000339e+37
-1.8003626e+37
-1.801671e+37
-1.7978128e+37
-1.7792181e+37
-1.6831259e+37
-1.7162887e+37
-1.7169532e+37
-1.7319213e+37
-1.7307244e+37
-1.7597225e+37
-1.7578586e+37
-1.7755935e+37
-1.7922071e+37
-1.7994634e+37
-1.6435186e+37
-1.6915685e+37
-1.6765554e+37
-1.6766322e+37
-1.6900557e+37
-1.7143156e+37
-1.7162978e+37
-1.7344304e+37
-1.7331796e+37
-1.7749297e+37
-1.7564469e+37
-1.7550504e+37
-1.7723428e+37
-1.7904075e+37
-1.7940007e+37
-1.8042724e+37
-1.8042037e+37
-1.7694002e+37
-1.7524365e+37
-1.7314454e+37
-1.7135294e+37
-1.6924803e+37
-1.674322e+37
-1.6505503e+37
-1.6361238e+37
-1.6018033e+37
-1.6358332e+37
-1.6504463e+37
-1.6747594e+37
-1.6926473e+37
-1.7303726e+37
-1.7128475e+37
-1.7508637e+37
-1.7669665e+37
-1.7278925e+37
-1.591101e+37
-1.592293e+37
-1.5933704e+37
-1.5598993e+37
-1.6078374e+37
-1.6077365e+37
-1.6072522e+37
-1.6079279e+37
-1.5928516e+37
-1.6312266e+37
-1.6311318e+37
-1.6317512e+37
-1.6520876e+37
-1.6516829e+37
-1.6510241e+37
-1.6319865e+37
-1.6314529e+37
-1.651378e+37
-1.6500285e+37
-1.6937345e+37
-1.6746748e+37
-1.6727048e+37
-1.6734492e+37
-1.672434e+37
-1.6919914e+37
-1.6918878e+37
-1.6916784e+37
-1.6714158e+37
-1.67272e+37
-1.6913096e+37
-1.6900982e+37
-1.7132301e+37
-1.7285483e+37
-1.7284714e+37
-1.7283231e+37
-1.728223e+37
-1.7111322e+37
-1.7114369e+37
-1.7116627e+37
-1.7112e+37
-1.7287172e+37
-1.7118234e+37
-1.7103943e+37
-1.7264683e+37
-1.746043e+37
-1.7459404e+37
-1.7463943e+37
-1.745568e+37
-1.7634812e+37
-1.7632711e+37
-1.7633031e+37
-1.7625279e+37
-1.7816544e+37
-1.7813974e+37
-1.7814564e+37
-1.799506e+37
-1.7995109e+37
-1.7997396e+37
-1.7510252e+37
-1.7193378e+37
-1.6829147e+37
-1.6443424e+37
-1.6031935e+37
-1.5613301e+37
-1.5669355e+37
-1.5525326e+37
-1.5194607e+37
-1.5519243e+37
-1.5665844e+37
-1.6122633e+37
-1.610529e+37
-1.5910188e+37
-1.5913862e+37
-1.6318229e+37
-1.6495895e+37
-1.6517238e+37
-1.6345857e+37
-1.69148e+37
-1.6713295e+37
-1.688718e+37
-1.6709793e+37
-1.763779e+37
-1.7317903e+37
-1.6895721e+37
-1.6469378e+37
-1.6049397e+37
-1.5625248e+37
-1.5202085e+37
-1.6522987e+37
-1.4773832e+37
-1.5105876e+37
-1.5251271e+37
-1.5279268e+37
-1.5127077e+37
-1.5519341e+37
-1.549713e+37
-1.5702521e+37
-1.5700939e+37
-1.5930483e+37
-1.5916629e+37
-1.6110021e+37
-1.6125267e+37
-1.6339349e+37
-1.6322591e+37
-1.6507273e+37
-1.8833261e+37
-1.8478843e+37
-1.8982973e+37
-1.8631668e+37
-1.8610363e+37
-1.8929659e+37
-1.8131322e+37
-1.8205659e+37
-1.8168379e+37
-1.824434e+37
-1.8278803e+37
-1.8610477e+37
-1.8987608e+37
-1.8954359e+37
-1.8573234e+37
-1.7553861e+37
-1.785966e+37
-1.7888365e+37
-1.7957369e+37
-1.7928193e+37
-1.8270504e+37
-1.815535e+37
-1.8126262e+37
-1.8230228e+37
-1.8538759e+37
-1.8491849e+37
-1.88453e+37
-1.8877652e+37
-1.7011894e+37
-1.7374565e+37
-1.7407772e+37
-1.7524355e+37
-1.7554274e+37
-1.7810566e+37
-1.7941962e+37
-1.7930133e+37
-1.7788129e+37
-1.8084726e+37
-1.8075677e+37
-1.817652e+37
-1.8199657e+37
-1.8464286e+37
-1.8808062e+37
-1.8785659e+37
-1.8432071e+37
-1.6523295e+37
-1.6888221e+37
-1.690181e+37
-1.7045278e+37
-1.7075233e+37
-1.7342359e+37
-1.7303516e+37
-1.750623e+37
-1.7539559e+37
-1.7757014e+37
-1.7892246e+37
-1.7886854e+37
-1.7736116e+37
-1.8033969e+37
-1.8033796e+37
-1.8156451e+37
-1.814263e+37
-1.6073876e+37
-1.6438933e+37
-1.6417228e+37
-1.6572464e+37
-1.6585882e+37
-1.6831886e+37
-1.6828552e+37
-1.7045363e+37
-1.7044235e+37
-1.7288136e+37
-1.7489268e+37
-1.7479844e+37
-1.7279816e+37
-1.7706803e+37
-1.7833831e+37
-1.784962e+37
-1.7693107e+37
-1.5640392e+37
-1.6153663e+37
-1.6001929e+37
-1.5985349e+37
-1.612992e+37
-1.6586661e+37
-1.6401777e+37
-1.636977e+37
-1.656526e+37
-1.6792708e+37
-1.6799252e+37
-1.7004686e+37
-1.7000242e+37
-1.723139e+37
-1.74284e+37
-1.7429755e+37
-1.7236094e+37
-1.5205292e+37
-1.5543293e+37
-1.5705755e+37
-1.5696365e+37
-1.5547954e+37
-1.6165844e+37
-1.5963108e+37
-1.593946e+37
-1.6125857e+37
-1.6344829e+37
-1.6377748e+37
-1.6558409e+37
-1.6545355e+37
-1.6773209e+37
-1.676773e+37
-1.6967123e+37
-1.6979136e+37
-1.4779372e+37
-1.5126441e+37
-1.5133567e+37
-1.5274919e+37
-1.5277299e+37
-1.5523789e+37
-1.572174e+37
-1.5725234e+37
-1.5515333e+37
-1.5941788e+37
-1.6137322e+37
-1.6135635e+37
-1.5953088e+37
-1.6567182e+37
-1.636286e+37
-1.6338247e+37
-1.6519014e+37
-1.4340089e+37
-1.4669846e+37
-1.4699914e+37
-1.4694645e+37
-1.4852479e+37
-1.4858468e+37
-1.46906e+37
-1.4857988e+37
-1.4853583e+37
-1.5089584e+37
-1.5280458e+37
-1.5310128e+37
-1.5291974e+37
-1.5112877e+37
-1.5101601e+37
-1.5095346e+37
-1.5099082e+37
-1.5298938e+37
-1.5281589e+37
-1.5520161e+37
-1.5503934e+37
-1.5514058e+37
-1.5507696e+37
-1.5500508e+37
-1.5718299e+37
-1.5717857e+37
-1.5706038e+37
-1.5702129e+37
-1.5501157e+37
-1.5709151e+37
-1.5701734e+37
-1.59346e+37
-1.5921418e+37
-1.5922135e+37
-1.5943334e+37
-1.592072e+37
-1.6133162e+37
-1.6138008e+37
-1.6143116e+37
-1.6137439e+37
-1.612715e+37
-1.6134673e+37
-1.6142425e+37
-1.59443e+37
-1.5925253e+37
-1.6543353e+37
-1.6543026e+37
-1.6542517e+37
-1.6546317e+37
-1.6356463e+37
-1.6357429e+37
-1.6356968e+37
-1.6356852e+37
-1.6725035e+37
-1.6723727e+37
-1.6724635e+37
-1.6541355e+37
-1.6541296e+37
-1.6356814e+37
-1.8039565e+37
-1.7712961e+37
-1.8170155e+37
-1.8201345e+37
-1.8224952e+37
-1.8198804e+37
-1.8015411e+37
-1.8072148e+37
-1.782042e+37
-1.7682583e+37
-1.7247615e+37
-1.7661453e+37
-1.7795885e+37
-1.805325e+37
-1.8008813e+37
-1.6831469e+37
-1.7175713e+37
-1.7191068e+37
-1.7352752e+37
-1.7339553e+37
-1.7839745e+37
-1.7643239e+37
-1.7632393e+37
-1.7816711e+37
-1.7984931e+37
-1.801586e+37
-1.7993699e+37
-1.7997474e+37
-1.8017174e+37
-1.7977009e+37
-1.7791998e+37
-1.6913826e+37
-1.6768532e+37
-1.6436613e+37
-1.6765379e+37
-1.6906138e+37
-1.7150504e+37
-1.7158446e+37
-1.7361071e+37
-1.7352664e+37
-1.759556e+37
-1.7576379e+37
-1.7754049e+37
-1.7921292e+37
-1.7995268e+37
-1.6022428e+37
-1.6356978e+37
-1.63537e+37
-1.6498836e+37
-1.650361e+37
-1.6942386e+37
-1.6739876e+37
-1.6744575e+37
-1.6929856e+37
-1.7141603e+37
-1.7160766e+37
-1.7344897e+37
-1.7331952e+37
-1.7749269e+37
-1.7564373e+37
-1.7550366e+37
-1.7723315e+37
-1.7314483e+37
-1.7135168e+37
-1.6925532e+37
-1.6741691e+37
-1.652933e+37
-1.6339934e+37
-1.6094326e+37
-1.5943651e+37
-1.5603341e+37
-1.5925778e+37
-1.6081836e+37
-1.6335082e+37
-1.6532015e+37
-1.6746884e+37
-1.692784e+37
-1.7303652e+37
-1.7128356e+37
-1.5890041e+37
-1.5906131e+37
-1.5662175e+37
-1.5904563e+37
-1.567795e+37
-1.5910516e+37
-1.5678198e+37
-1.5192185e+37
-1.5535563e+37
-1.5674665e+37
-1.552249e+37
-1.5530435e+37
-1.5540047e+37
-1.6094398e+37
-1.6091884e+37
-1.6096018e+37
-1.6085165e+37
-1.6098205e+37
-1.590244e+37
-1.6306846e+37
-1.6312102e+37
-1.6307098e+37
-1.6317163e+37
-1.6522446e+37
-1.6515876e+37
-1.6517736e+37
-1.6514741e+37
-1.6318724e+37
-1.6313615e+37
-1.6514881e+37
-1.650189e+37
-1.69373e+37
-1.6746699e+37
-1.6723881e+37
-1.6727212e+37
-1.6734403e+37
-1.6724218e+37
-1.6920475e+37
-1.6920669e+37
-1.6918871e+37
-1.6917489e+37
-1.6714153e+37
-1.672717e+37
-1.6913174e+37
-1.6901028e+37
-1.7285366e+37
-1.7282745e+37
-1.7283282e+37
-1.7282073e+37
-1.7111208e+37
-1.7110998e+37
-1.7114275e+37
-1.7111864e+37
-1.7460219e+37
-1.7458548e+37
-1.745918e+37
-1.7632521e+37
-1.7632308e+37
-1.7632877e+37
-1.7813972e+37
-1.7813962e+37
-1.7995341e+37
-1.7995281e+37
-1.7562945e+37
-1.7242201e+37
-1.6853395e+37
-1.6451516e+37
-1.603877e+37
-1.5618744e+37
-1.5199647e+37
-1.5688571e+37
-1.5502408e+37
-1.5263485e+37
-1.4773266e+37
-1.5113388e+37
-1.5264078e+37
-1.5123279e+37
-1.5498891e+37
-1.5686391e+37
-1.6123308e+37
-1.6105607e+37
-1.5909278e+37
-1.5913811e+37
-1.6318101e+37
-1.6495974e+37
-1.6517185e+37
-1.6345643e+37
-1.7694152e+37
-1.7372461e+37
-1.6939245e+37
-1.6495145e+37
-1.6061692e+37
-1.5635072e+37
-1.5207036e+37
-1.4781433e+37
-1.4347405e+37
-1.469506e+37
-1.4702472e+37
-1.4852551e+37
-1.4845038e+37
-1.5081243e+37
-1.5271787e+37
-1.5305503e+37
-1.5106072e+37
-1.5517019e+37
-1.5496847e+37
-1.5703077e+37
-1.5702046e+37
-1.5930428e+37
-1.5916639e+37
-1.6110101e+37
-1.6125263e+37
-1.8915763e+37
-1.8549318e+37
-1.8704728e+37
-1.8671737e+37
-1.901216e+37
-1.9059099e+37
-1.8199001e+37
-1.8253053e+37
-1.8332289e+37
-1.8324965e+37
-1.8242923e+37
-1.9095715e+37
-1.8685324e+37
-1.8664013e+37
-1.9026275e+37
-1.7612695e+37
-1.791233e+37
-1.7945302e+37
-1.8010982e+37
-1.7972493e+37
-1.8206208e+37
-1.816568e+37
-1.8284061e+37
-1.8321668e+37
-1.8611559e+37
-1.8989498e+37
-1.8957151e+37
-1.8575285e+37
-1.7063521e+37
-1.7457917e+37
-1.742632e+37
-1.7572397e+37
-1.7604446e+37
-1.783404e+37
-1.7864622e+37
-1.8000991e+37
-1.7970962e+37
-1.8270877e+37
-1.8147784e+37
-1.8118413e+37
-1.8229493e+37
-1.8538862e+37
-1.8492177e+37
-1.8846007e+37
-1.887797e+37
-1.6562679e+37
-1.6949714e+37
-1.6917388e+37
-1.7086634e+37
-1.7121766e+37
-1.7354561e+37
-1.7390465e+37
-1.7557272e+37
-1.7588684e+37
-1.7806567e+37
-1.7943157e+37
-1.7931215e+37
-1.778438e+37
-1.8084533e+37
-1.8075381e+37
-1.8176893e+37
-1.8199664e+37
-1.6094335e+37
-1.6465672e+37
-1.6626184e+37
-1.6619566e+37
-1.6456586e+37
-1.6878625e+37
-1.6886913e+37
-1.7073556e+37
-1.7104235e+37
-1.7341324e+37
-1.7302487e+37
-1.7507501e+37
-1.754055e+37
-1.7756754e+37
-1.7892303e+37
-1.788691e+37
-1.7735877e+37
-1.5652411e+37
-1.6174791e+37
-1.6020911e+37
-1.6002797e+37
-1.6149977e+37
-1.6421938e+37
-1.6395817e+37
-1.6597966e+37
-1.6607952e+37
-1.6831861e+37
-1.6828864e+37
-1.7046442e+37
-1.7045785e+37
-1.7288071e+37
-1.7489294e+37
-1.7479819e+37
-1.7279713e+37
-1.521515e+37
-1.5550962e+37
-1.5570322e+37
-1.5727751e+37
-1.5710264e+37
-1.618164e+37
-1.5980543e+37
-1.5960871e+37
-1.6153704e+37
-1.6586669e+37
-1.6399638e+37
-1.6368857e+37
-1.656614e+37
-1.6792719e+37
-1.6799252e+37
-1.7004745e+37
-1.7000341e+37
-1.4783861e+37
-1.5120937e+37
-1.5272678e+37
-1.5290316e+37
-1.5140025e+37
-1.5517862e+37
-1.5729204e+37
-1.5719424e+37
-1.5528557e+37
-1.6166145e+37
-1.5964033e+37
-1.5938126e+37
-1.6127012e+37
-1.6344789e+37
-1.6377601e+37
-1.6558474e+37
-1.6545445e+37
-1.435296e+37
-1.4708803e+37
-1.4858699e+37
-1.4866839e+37
-1.4708419e+37
-1.5101903e+37
-1.5115485e+37
-1.5297112e+37
-1.5298423e+37
-1.5523294e+37
-1.5722637e+37
-1.5726434e+37
-1.5515809e+37
-1.5941783e+37
-1.6137396e+37