/*--------------------------------*- C++ -*----------------------------------*\
  =========                 |
  \\      /  F ield         | OpenFOAM: The Open Source CFD Toolbox
   \\    /   O peration     | Website:  https://openfoam.org
    \\  /    A nd           | Version:  7
     \\/     M anipulation  |
\*---------------------------------------------------------------------------*/
FoamFile
{
    version     2.0;
    format      ascii;
    class       volVectorField;
    location    "3000";
    object      UMean;
}
// * * * * * * * * * * * * * * * * * * * * * * * * * * * * * * * * * * * * * //

dimensions      [0 1 -1 0 0 0 0];

internalField   nonuniform List<vector> 
34387
(
(-6.8320598e+17 1.2592629e+16 -7.6917593e+15)
(-6.623843e+17 1.4282037e+15 -6.6319664e+15)
(-4.1533285e+17 -3.4161134e+15 -3.9095902e+15)
(-6.8225607e+17 -2.374339e+15 -3.8110258e+15)
(-7.1050737e+17 1.4475409e+16 -2.6921114e+15)
(-6.8206776e+17 5.5920773e+15 -6.4843113e+15)
(-4.9702682e+17 1.4187035e+16 -1.484175e+15)
(-5.0419535e+17 1.5436001e+16 -5.3469099e+15)
(-5.083634e+17 1.3369998e+16 -4.9597387e+15)
(-5.0516795e+17 1.1125128e+16 1.1866717e+15)
(-6.6020665e+17 -1.0253633e+15 -6.0972761e+15)
(-4.7767501e+17 7.5502036e+15 2.6447322e+14)
(-4.9017583e+17 4.7954945e+15 -4.5332235e+15)
(-4.8665788e+17 2.4693613e+15 -5.3253272e+15)
(-4.7158499e+17 3.3353283e+15 -2.9686312e+15)
(-4.9873608e+17 8.2400825e+15 -9.6389017e+15)
(-4.8576359e+17 7.3355145e+15 -4.3586726e+15)
(-4.8019748e+17 6.95003e+15 2.2191268e+15)
(-4.7831567e+17 4.5764619e+15 -4.1114582e+15)
(-4.1504468e+17 -3.5461294e+15 -4.2864097e+15)
(-4.1752952e+17 -3.507525e+15 -4.1201517e+15)
(-4.1113216e+17 -3.3258405e+15 -3.8951265e+15)
(-6.8365199e+17 -2.5215784e+15 -1.1599108e+15)
(-7.0767285e+17 -4.1415596e+14 -6.3217381e+15)
(-6.8040092e+17 -1.5908882e+15 -2.5032705e+15)
(-5.0552627e+17 4.0583354e+15 -3.866944e+15)
(-5.0527541e+17 2.6987252e+15 -4.1502924e+15)
(-5.02773e+17 1.2851243e+15 -3.7280699e+15)
(-4.9890717e+17 3.3240629e+15 -3.7608385e+15)
(-7.3463794e+17 9.8615859e+15 -1.8245716e+16)
(-6.8281685e+17 3.0713524e+15 -6.5315492e+15)
(-5.1710617e+17 1.1105726e+16 -1.6311686e+15)
(-5.105316e+17 7.3914065e+15 4.9261118e+15)
(-5.1787832e+17 1.6970299e+16 7.9032078e+15)
(-5.1353289e+17 1.8114312e+16 1.5375914e+15)
(-6.7733374e+17 7.031824e+14 -4.2941091e+15)
(-5.0371456e+17 1.1456685e+16 -7.7550983e+13)
(-5.1633055e+17 8.7294697e+15 -3.5267605e+15)
(-5.126555e+17 1.2869917e+16 -3.3070233e+15)
(-5.1170173e+17 7.4079669e+15 1.7377382e+15)
(-4.6078137e+17 1.6423905e+16 -5.0105892e+15)
(-4.5810139e+17 1.8692688e+16 -6.4984611e+15)
(-4.7868126e+17 1.311637e+16 -6.3307742e+15)
(-4.8218977e+17 9.3240501e+15 -5.4029283e+15)
(-6.5775241e+17 -3.6966815e+15 -5.7716651e+15)
(-4.9132599e+17 1.4448294e+15 -3.8448012e+15)
(-4.9130911e+17 3.3654283e+15 -2.9711745e+15)
(-4.8625367e+17 5.840465e+15 -1.5391245e+15)
(-4.8363459e+17 2.1050755e+15 -2.6936274e+15)
(-4.9713871e+17 5.2567607e+15 -6.7277479e+15)
(-4.8615566e+17 4.7240329e+15 -4.0740607e+15)
(-4.8524099e+17 3.2986387e+15 3.5696014e+14)
(-4.9179683e+17 2.9221587e+15 -5.2090607e+15)
(-4.5966582e+17 -3.0772126e+15 -1.2071468e+14)
(-4.811676e+17 2.5683591e+15 -3.1187921e+15)
(-4.6599375e+17 -4.0018993e+15 -3.7910238e+15)
(-4.6893186e+17 -4.1059477e+15 -4.9701351e+15)
(-4.5432467e+17 -4.0685731e+15 -1.7061012e+15)
(-4.7092921e+17 1.3462935e+15 -3.8504405e+15)
(-4.7042491e+17 1.0309777e+16 -6.5703394e+15)
(-4.6433334e+17 9.0116191e+15 -5.7907912e+15)
(-4.6879077e+17 8.1600565e+15 -4.7507189e+15)
(-4.5968515e+17 7.820373e+15 -5.4485035e+15)
(-4.3718582e+17 -3.5757037e+15 -4.5930644e+15)
(-4.1558848e+17 -3.7392298e+15 -4.8000131e+15)
(-4.1144035e+17 -3.4393014e+15 -4.1560759e+15)
(-4.3366384e+17 -2.6438449e+15 -4.4414855e+15)
(-4.13657e+17 -3.2797281e+15 -4.0603575e+15)
(-4.0906505e+17 -3.2662471e+15 -3.8952126e+15)
(-6.6208152e+17 -2.9991897e+15 3.2441635e+15)
(-7.0925615e+17 -1.1542258e+15 -1.8706815e+15)
(-6.8151556e+17 -2.1073639e+15 -1.2660529e+15)
(-5.0664965e+17 3.5974047e+15 1.1012345e+14)
(-5.1664814e+17 3.5377518e+15 -2.960795e+14)
(-5.1162299e+17 2.1944462e+14 5.5028821e+14)
(-5.0313406e+17 1.7941546e+15 -2.1758136e+14)
(-7.1666295e+17 -3.4015654e+16 -1.2178599e+16)
(-6.9698499e+17 -2.8874442e+15 -3.1153237e+15)
(-6.7804182e+17 -2.9653379e+15 -1.2512385e+15)
(-5.1313758e+17 2.5647833e+15 -2.1821115e+15)
(-5.1399198e+17 2.4952609e+15 -4.0138918e+15)
(-5.1352665e+17 1.8043315e+15 -4.2133944e+15)
(-5.1058356e+17 2.6703235e+15 -2.9028654e+15)
(-4.6089865e+17 -3.4899557e+15 -7.5606983e+15)
(-4.6649793e+17 -4.876376e+15 -5.4779396e+15)
(-4.6275072e+17 -5.8114512e+15 -4.8869301e+15)
(-4.5596872e+17 -4.3187058e+15 -6.9861773e+15)
(-7.6325604e+17 1.2894184e+16 -2.4870218e+16)
(-7.047414e+17 -5.6715443e+14 -4.1225813e+16)
(-5.2982225e+17 1.2043865e+16 5.5293954e+15)
(-5.265149e+17 8.9571574e+15 1.1995636e+15)
(-5.2091688e+17 1.0097369e+16 -6.171277e+15)
(-5.1346157e+17 1.1802514e+16 -2.4267289e+15)
(-6.7375197e+17 -1.2973863e+15 -7.7168467e+15)
(-5.0813948e+17 8.4895604e+15 1.4414228e+15)
(-5.2234369e+17 8.0343504e+15 -4.6667329e+14)
(-5.2455106e+17 1.3803722e+16 -4.0189259e+14)
(-5.1862881e+17 1.3285842e+16 3.7299939e+15)
(-4.7325497e+17 1.939438e+16 -6.2016026e+15)
(-4.7141101e+17 1.4683979e+16 -4.3943098e+15)
(-4.8745953e+17 1.7482744e+16 -5.3873163e+15)
(-4.8327103e+17 2.2152794e+16 -6.3226826e+15)
(-6.7579829e+17 -2.7371014e+15 -4.6082283e+15)
(-5.1519631e+17 7.5016245e+15 -2.3316354e+14)
(-5.2498338e+17 5.6073921e+15 -2.7621083e+15)
(-5.2150384e+17 9.4877672e+15 -2.1633418e+15)
(-5.1860832e+17 5.3421739e+15 1.0267317e+15)
(-4.6880789e+17 1.2582094e+16 -4.1582448e+15)
(-4.822868e+17 6.7417753e+15 -6.0533149e+15)
(-4.6548461e+17 1.4268846e+16 -5.6037945e+15)
(-4.8553749e+17 4.7483602e+15 -5.1910585e+15)
(-4.3326012e+17 1.7162605e+16 -4.0798708e+15)
(-4.3635001e+17 1.9307968e+16 -4.6461989e+15)
(-4.501133e+17 1.3656635e+16 -4.2594022e+15)
(-4.5118572e+17 1.0070533e+16 -3.7114469e+15)
(-6.5652356e+17 -5.4064811e+15 -5.5380707e+15)
(-4.937143e+17 2.004309e+15 -3.0678395e+15)
(-5.0078124e+17 2.508584e+15 -4.5449943e+15)
(-4.9505162e+17 -1.000633e+15 -4.0600826e+15)
(-4.8786046e+17 -5.088033e+14 9.5524283e+14)
(-4.9175592e+17 2.2057526e+15 -3.4103458e+15)
(-4.9798546e+17 1.4420776e+15 -3.8935991e+15)
(-4.9555666e+17 1.1524343e+15 -3.8872973e+15)
(-4.9747658e+17 -1.857986e+15 -5.0604762e+15)
(-4.6346662e+17 -4.9175714e+15 -3.0345182e+15)
(-4.6137815e+17 -3.4846652e+15 -3.0954506e+15)
(-4.7222584e+17 -3.2437842e+15 -4.0363782e+15)
(-4.8904983e+17 1.1550258e+15 -4.9671996e+15)
(-4.6553927e+17 -3.8986654e+15 -1.7895711e+15)
(-4.8383284e+17 1.8903793e+15 -4.5132741e+15)
(-4.5854371e+17 6.5652231e+15 -6.7723009e+15)
(-4.5732295e+17 4.9208548e+15 -5.314581e+15)
(-4.7166707e+17 2.4104847e+15 -4.7043055e+15)
(-4.7214945e+17 5.1910723e+15 -5.7727133e+15)
(-4.6386141e+17 -2.9905283e+15 -3.8497864e+15)
(-4.2868872e+17 -3.354488e+15 -9.8984767e+13)
(-4.6577425e+17 3.3261856e+15 -4.7005092e+15)
(-4.3743332e+17 -3.6685346e+15 -3.680902e+15)
(-4.4015352e+17 -3.7223927e+15 -5.1353421e+15)
(-4.5817532e+17 -2.5777483e+15 -4.6985982e+15)
(-4.2151418e+17 -3.5857869e+15 -1.82292e+15)
(-4.5905918e+17 1.9343259e+15 -4.2451263e+15)
(-4.3753802e+17 1.0802052e+16 -4.6478022e+15)
(-4.3405181e+17 9.8317967e+15 -4.2507631e+15)
(-4.3887873e+17 8.5896508e+15 -3.8218037e+15)
(-4.2896865e+17 7.8027295e+15 -4.2752259e+15)
(-4.3772804e+17 -4.0407139e+15 -5.5406301e+15)
(-4.2411796e+17 -3.9587736e+15 -4.6788851e+15)
(-4.3532486e+17 -3.495278e+15 -4.1419591e+15)
(-4.2959921e+17 -3.4122387e+15 -5.4115518e+15)
(-4.1271983e+17 -3.4524973e+15 -4.5243861e+15)
(-4.1056919e+17 -3.3727075e+15 -4.135216e+15)
(-4.2592986e+17 2.3191039e+15 -4.1686702e+15)
(-4.3162487e+17 -2.0669006e+15 -4.2531069e+15)
(-4.1207987e+17 -3.121506e+15 -4.0258892e+15)
(-4.0785132e+17 -3.2823851e+15 -3.9203696e+15)
(-6.8689459e+17 -1.3062998e+15 2.3324764e+15)
(-4.927185e+17 4.7854886e+15 6.5026731e+15)
(-6.5887823e+17 -4.7756334e+15 3.5589913e+15)
(-4.8744363e+17 4.657619e+15 6.7781406e+14)
(-4.7698735e+17 3.0270797e+15 -2.4536047e+15)
(-4.7513458e+17 2.2762634e+15 3.7101524e+15)
(-4.8141548e+17 3.2315102e+15 3.339964e+15)
(-4.8651359e+17 5.3311104e+15 1.7270497e+15)
(-4.8205284e+17 -1.0186929e+15 3.8823733e+15)
(-4.773076e+17 1.6758297e+15 3.6223832e+15)
(-7.210972e+17 -3.9594102e+16 -5.9148272e+14)
(-6.9584905e+17 -4.1398481e+15 -2.7198112e+15)
(-5.2391981e+17 -9.5722546e+14 2.800975e+14)
(-5.2267535e+17 1.8832557e+15 -2.8689824e+14)
(-6.7983683e+17 -4.1309912e+15 -1.1196673e+15)
(-5.1784714e+17 3.3027271e+15 1.3576391e+15)
(-5.1593572e+17 1.9610201e+15 5.4282434e+14)
(-4.776567e+17 -4.385443e+15 8.2563883e+12)
(-4.9290115e+17 -4.4407627e+15 2.55233e+15)
(-4.8882029e+17 -4.725143e+15 2.5065412e+15)
(-4.7121866e+17 -5.3387285e+15 -9.3845224e+14)
(-6.858188e+17 -1.723195e+16 -6.71161e+15)
(-6.9544468e+17 -4.8931352e+15 -1.933731e+15)
(-6.7684825e+17 -4.6537293e+15 -6.0474488e+14)
(-5.2240308e+17 4.680043e+14 -2.0916343e+15)
(-5.2267891e+17 3.1765759e+14 -2.8786356e+15)
(-5.1839539e+17 6.6642023e+14 -1.2032663e+15)
(-5.1861297e+17 1.2232192e+15 -1.2375731e+15)
(-4.6801676e+17 -3.9125958e+15 -5.2807024e+15)
(-4.7694651e+17 -4.7645439e+15 -5.0363074e+15)
(-4.7265845e+17 -5.852533e+15 -5.74091e+15)
(-4.6619331e+17 -4.8497333e+15 -6.7572231e+15)
(-4.3158828e+17 -3.6773307e+15 -7.7147073e+15)
(-4.3280384e+17 -4.2526829e+15 -5.6904009e+15)
(-4.3193584e+17 -4.4610369e+15 -5.1730898e+15)
(-4.3244532e+17 -3.8410217e+15 -7.4582833e+15)
(-7.8121495e+17 1.6453458e+16 -3.0409339e+16)
(-7.205608e+17 7.4113236e+15 -5.0048335e+16)
(-5.2954813e+17 1.3703099e+16 -6.08913e+15)
(-5.2638444e+17 7.6223766e+15 -7.2293652e+15)
(-5.3622875e+17 6.8324841e+15 4.2917527e+15)
(-5.4554649e+17 1.6491765e+16 6.4119682e+15)
(-6.6294655e+17 1.688615e+15 -2.1425493e+16)
(-5.2017793e+17 1.1338954e+16 1.3231151e+15)
(-5.1089385e+17 1.1588527e+16 -6.7099697e+14)
(-5.3233164e+17 1.0727999e+16 -8.8794669e+15)
(-5.3072635e+17 9.6936498e+15 -6.7417926e+15)
(-4.8506602e+17 1.4834395e+16 -6.9188118e+15)
(-4.7947968e+17 1.9529576e+16 -6.2099429e+15)
(-4.8087704e+17 2.2734203e+16 -7.7497169e+15)
(-4.8180469e+17 1.8532501e+16 -8.2179115e+15)
(-6.7140921e+17 -4.7671178e+15 -7.1246165e+15)
(-5.1231792e+17 8.0097263e+15 -2.7179238e+15)
(-5.2621786e+17 8.3269622e+15 -2.8659242e+15)
(-5.3112794e+17 1.0149613e+16 -3.3894501e+15)
(-5.1771427e+17 9.0955583e+15 -6.1358258e+14)
(-4.6975781e+17 1.2806714e+16 -4.2249388e+15)
(-4.724882e+17 1.2507286e+16 -4.7011656e+15)
(-4.8692661e+17 1.4831663e+16 -6.0372243e+15)
(-4.8829175e+17 1.3119906e+16 -5.9762936e+15)
(-4.4892906e+17 2.0059317e+16 -3.957853e+15)
(-4.4342379e+17 1.5463228e+16 -3.3024636e+15)
(-4.5666191e+17 1.873885e+16 -3.3068705e+15)
(-4.5591531e+17 2.3221691e+16 -3.8361591e+15)
(-5.2629473e+17 1.6858087e+15 -1.2911278e+15)
(-6.7450742e+17 -4.44076e+15 -4.25335e+15)
(-5.2983982e+17 3.4531773e+15 -2.8777127e+15)
(-5.3135285e+17 4.3797349e+15 -3.7806633e+15)
(-5.1981807e+17 3.0580567e+15 3.722535e+14)
(-4.8164127e+17 7.9960261e+15 -4.3697185e+15)
(-4.8711205e+17 3.9954442e+15 -6.0777739e+15)
(-4.7648902e+17 1.0552016e+16 -5.3082981e+15)
(-4.8903184e+17 3.774148e+15 -5.2709349e+15)
(-4.3993033e+17 1.3804722e+16 -3.8255443e+15)
(-4.5153527e+17 7.6175193e+15 -4.1054273e+15)
(-4.3704369e+17 1.525987e+16 -4.2979759e+15)
(-4.5442804e+17 5.8076907e+15 -3.7470102e+15)
(-4.2380563e+17 1.780623e+16 -3.9448684e+15)
(-4.2284196e+17 2.0084555e+16 -4.0495865e+15)
(-4.3746654e+17 1.4229386e+16 -3.8963057e+15)
(-4.394793e+17 1.0606895e+16 -3.7730244e+15)
(-6.5639079e+17 -6.5852645e+15 -4.867222e+15)
(-5.0205733e+17 -2.8536421e+15 -1.9608315e+15)
(-5.066765e+17 -7.306807e+14 -4.0655143e+15)
(-5.0391555e+17 -1.9149621e+15 -4.0409326e+15)
(-4.9980032e+17 -3.4833009e+15 -6.1776579e+15)
(-4.9344271e+17 6.8443891e+13 -4.6139518e+15)
(-4.9519994e+17 -3.5706959e+15 -5.5503243e+13)
(-5.0356493e+17 -4.6800144e+15 -4.6522532e+15)
(-5.047425e+17 -1.3455237e+15 -3.4582379e+15)
(-4.6349068e+17 2.3336191e+15 -5.0169935e+15)
(-4.6211927e+17 3.8699271e+15 -6.4502615e+15)
(-4.7017848e+17 1.9797745e+13 -5.3410936e+15)
(-4.930659e+17 -1.8782773e+15 -5.3412568e+15)
(-4.7540554e+17 -1.5478644e+15 -4.3386236e+15)
(-4.9066193e+17 -3.2715444e+15 -4.3866035e+15)
(-4.7752456e+17 -4.2517598e+15 -6.3901178e+15)
(-4.7193452e+17 -4.3464742e+15 -5.1457219e+15)
(-4.6838574e+17 -4.7917882e+15 -4.4912609e+15)
(-4.808378e+17 -4.7287916e+15 -6.193563e+15)
(-4.3404519e+17 -4.5079579e+15 -2.7148866e+15)
(-4.2720255e+17 -4.2485475e+15 -2.5858742e+15)
(-4.7620476e+17 -3.0900392e+15 -5.5348854e+15)
(-4.4210392e+17 -3.6820779e+15 -3.527568e+15)
(-4.7674918e+17 1.9129562e+15 -5.284507e+15)
(-4.7127773e+17 -2.5284101e+15 -5.0022222e+15)
(-4.3321373e+17 -3.7649863e+15 -1.4613112e+15)
(-4.719204e+17 2.9390389e+15 -4.5888061e+15)
(-4.3082213e+17 7.473417e+15 -5.015581e+15)
(-4.2517573e+17 6.0268668e+15 -4.6837197e+15)
(-4.4290739e+17 3.3706611e+15 -3.9361233e+15)
(-4.4078939e+17 6.0331569e+15 -4.1782633e+15)
(-4.553287e+17 -2.2502219e+15 -4.3957861e+15)
(-4.3452137e+17 -3.7496929e+15 -4.0403011e+15)
(-4.1558758e+17 -3.9708826e+15 7.7678678e+13)
(-4.3414928e+17 3.4975172e+15 -4.5814608e+15)
(-4.232965e+17 -4.0926667e+15 -3.3759545e+15)
(-4.2454082e+17 -3.8190957e+15 -4.8252834e+15)
(-4.5056603e+17 -2.7203871e+15 -4.7772667e+15)
(-4.2378857e+17 -3.8228096e+15 -5.0504775e+15)
(-4.114427e+17 -3.8485956e+15 -1.635569e+15)
(-4.2658962e+17 1.7058145e+15 -4.7627823e+15)
(-4.2626421e+17 1.164568e+16 -4.3834072e+15)
(-4.2351186e+17 1.0488611e+16 -4.4052382e+15)
(-4.2639867e+17 9.1203067e+15 -3.9458424e+15)
(-4.1913985e+17 8.4711928e+15 -3.9373319e+15)
(-4.4128601e+17 -3.6976138e+15 -4.8103476e+15)
(-4.2804257e+17 -3.9747218e+15 -3.8327295e+15)
(-4.3280727e+17 -3.4822977e+15 -4.5803606e+15)
(-4.3520314e+17 -2.6489556e+15 -5.0033268e+15)
(-4.1295213e+17 -3.2901682e+15 -4.4114801e+15)
(-4.0751765e+17 -3.3702591e+15 -4.0525686e+15)
(-4.2801328e+17 3.8552202e+15 -4.2432741e+15)
(-4.3012748e+17 -1.959816e+15 -4.1930001e+15)
(-4.092078e+17 -3.0191096e+15 -4.0123058e+15)
(-4.0980963e+17 -3.3960221e+15 -3.998197e+15)
(-7.0008712e+17 -2.9757187e+16 2.8529679e+15)
(-5.2474683e+17 9.5791454e+15 6.0200284e+15)
(-5.1453621e+17 7.1339743e+15 -7.8877837e+14)
(-6.7502614e+17 -4.7904969e+15 9.6220601e+14)
(-5.0728688e+17 8.1124813e+15 -3.1957395e+15)
(-5.0702146e+17 7.9564335e+15 1.1600432e+15)
(-4.6895482e+17 4.0183805e+15 5.6918971e+15)
(-4.9692473e+17 1.4932301e+15 3.2978715e+14)
(-6.5895957e+17 -5.7707334e+15 3.8662204e+15)
(-4.7835424e+17 2.3250503e+14 -1.2047629e+15)
(-4.8831681e+17 -1.186896e+15 3.9056908e+15)
(-5.0020128e+17 3.2431035e+15 4.243163e+15)
(-4.9055363e+17 -2.9962232e+15 5.088336e+15)
(-4.8261454e+17 1.7571945e+15 3.4056102e+15)
(-4.8751697e+17 1.7253893e+15 2.9578889e+15)
(-4.8712504e+17 1.2861446e+15 3.7776715e+15)
(-4.7025932e+17 3.2687482e+15 4.6068283e+15)
(-4.6065588e+17 1.3344829e+15 4.5877833e+15)
(-4.7401364e+17 5.8773709e+14 2.5266833e+15)
(-4.5610074e+17 3.3927109e+15 5.4696492e+15)
(-4.6818985e+17 7.6465264e+14 4.1785796e+15)
(-4.5607426e+17 -3.5609936e+15 3.2939e+15)
(-4.7626097e+17 -3.5918304e+15 4.0788406e+15)
(-4.7379324e+17 -4.3479267e+15 3.675492e+15)
(-4.5537208e+17 -4.4030388e+15 3.07688e+15)
(-6.8342534e+17 -2.1315838e+16 -1.8625902e+15)
(-6.9480105e+17 -6.6168505e+15 -2.9374505e+15)
(-4.9622374e+17 -5.2834503e+15 2.6213042e+15)
(-4.9854756e+17 -4.9958597e+15 2.7599815e+15)
(-5.316154e+17 -3.1605201e+15 1.498193e+14)
(-6.7826781e+17 -4.7465695e+15 -1.6245806e+15)
(-5.2411446e+17 -4.5375141e+14 -3.7084041e+14)
(-5.281232e+17 4.9320323e+14 1.4430818e+15)
(-5.2962284e+17 -1.1747021e+15 1.2660135e+15)
(-4.9238795e+17 -4.7805075e+15 1.6711951e+15)
(-4.8585552e+17 -5.2948563e+15 8.2194479e+14)
(-4.3991997e+17 -4.0787792e+15 1.5317439e+14)
(-4.5508e+17 -3.8162282e+15 2.8775056e+15)
(-4.5268254e+17 -4.0303145e+15 2.9945533e+15)
(-4.3655804e+17 -4.3802759e+15 -8.5273942e+14)
(-6.6669191e+17 -2.0211501e+16 -2.4498097e+16)
(-6.8877986e+17 -9.3521206e+15 -4.7660279e+15)
(-6.9412708e+17 -5.1253102e+15 -8.2817874e+14)
(-5.2659526e+17 -2.0908247e+15 -1.0587494e+15)
(-6.7691063e+17 -5.3332278e+15 -4.3812659e+14)
(-5.2179908e+17 -9.3420184e+14 -6.9821776e+14)
(-5.2483094e+17 -3.8787742e+14 -4.052994e+14)
(-5.3278969e+17 -2.9708548e+15 -1.3314771e+15)
(-4.8723786e+17 -5.5693147e+15 -2.2044454e+15)
(-4.8323454e+17 -6.0895079e+15 -3.6425157e+15)
(-4.7378005e+17 -4.3977726e+15 -3.8648823e+15)
(-4.723701e+17 -5.3254214e+15 -4.4207734e+15)
(-4.3542766e+17 -4.2400301e+15 -5.2603084e+15)
(-4.3905126e+17 -4.4793162e+15 -5.2337704e+15)
(-4.3852523e+17 -4.7533994e+15 -5.9780408e+15)
(-4.3625515e+17 -4.3241587e+15 -6.9014236e+15)
(-4.2051925e+17 -3.9542339e+15 -7.7908741e+15)
(-4.2155026e+17 -4.4284235e+15 -5.8572515e+15)
(-4.201137e+17 -4.281241e+15 -5.1877183e+15)
(-4.1707997e+17 -3.7048939e+15 -7.2657772e+15)
(-7.9484336e+17 2.1002479e+16 -3.3926884e+16)
(-7.3234913e+17 1.1020249e+16 -5.5255998e+16)
(-5.4090671e+17 8.5036932e+15 5.1846303e+15)
(-5.4495576e+17 1.7055874e+16 7.3720497e+15)
(-5.2302655e+17 1.2526266e+16 -6.6349869e+15)
(-5.2501725e+17 9.702937e+15 -8.4830531e+15)
(-6.6540578e+17 6.734664e+15 -2.7130846e+16)
(-5.1637275e+17 1.0406831e+16 1.501376e+15)
(-5.4023301e+17 1.0350347e+16 -7.5293728e+15)
(-5.441156e+17 1.4019814e+16 -7.3435028e+15)
(-5.2605233e+17 1.5867002e+16 3.1926544e+15)
(-5.0730744e+17 2.2008905e+16 -1.0005203e+16)
(-4.9170791e+17 1.753226e+16 -1.0039227e+16)
(-4.8772236e+17 1.6102308e+16 -8.0817722e+15)
(-5.0416277e+17 1.8057669e+16 -8.3222296e+15)
(-6.6343263e+17 -2.0050833e+15 -1.1080325e+16)
(-5.1520332e+17 1.0302933e+16 -3.5574661e+15)
(-5.3397172e+17 1.0407879e+16 -6.8002862e+15)
(-5.3741462e+17 8.9126615e+15 -7.1865358e+15)
(-5.187079e+17 8.7278743e+15 -2.3090126e+15)
(-4.896047e+17 1.211089e+16 -7.6155156e+15)
(-4.7637777e+17 1.5786574e+16 -5.75007e+15)
(-4.792901e+17 1.7173192e+16 -5.3647676e+15)
(-4.8777415e+17 1.2862737e+16 -6.70517e+15)
(-4.4816885e+17 1.5438628e+16 -3.7125188e+15)
(-4.4485037e+17 1.9494605e+16 -3.7736043e+15)
(-4.5005832e+17 2.2430293e+16 -4.8247921e+15)
(-4.4939586e+17 1.8469653e+16 -4.6129127e+15)
(-6.6959535e+17 -6.0158775e+15 -4.8831156e+15)
(-5.1957737e+17 4.0943124e+15 -3.4602877e+15)
(-5.2844645e+17 5.0343701e+15 -4.4899606e+15)
(-5.2761072e+17 5.4576798e+15 -3.200905e+15)
(-5.1743339e+17 2.7792186e+15 -1.5050653e+15)
(-4.7384761e+17 1.0377254e+16 -4.5192012e+15)
(-4.7327754e+17 1.2019588e+16 -5.879954e+15)
(-4.8715324e+17 1.159297e+16 -6.96251e+15)
(-4.8358912e+17 9.5084593e+15 -5.8648572e+15)
(-4.4782288e+17 1.4009993e+16 -3.7962597e+15)
(-4.4608129e+17 1.3765009e+16 -3.6937632e+15)
(-4.5756727e+17 1.6216585e+16 -3.8978418e+15)
(-4.5821054e+17 1.4828233e+16 -3.7649273e+15)
(-4.4010836e+17 2.0876848e+16 -3.7004346e+15)
(-4.3473125e+17 1.612394e+16 -3.5913315e+15)
(-4.4664616e+17 1.9521626e+16 -3.5657225e+15)
(-4.4538912e+17 2.4118592e+16 -3.6451069e+15)
(-4.9329084e+17 1.3808583e+15 -5.1972226e+15)
(-5.3661634e+17 8.583991e+13 -4.9867565e+15)
(-6.7379035e+17 -5.4723748e+15 -3.8300342e+15)
(-5.2878453e+17 1.6617165e+15 -9.8864677e+14)
(-5.2806111e+17 -1.4419709e+15 -2.074065e+15)
(-5.2563942e+17 3.5299973e+14 1.0980773e+15)
(-4.8781723e+17 3.4724872e+15 -6.223024e+15)
(-4.9018618e+17 4.2722407e+15 -6.1041145e+15)
(-4.8426428e+17 3.3082904e+15 -4.8386451e+15)
(-4.5366378e+17 9.3166304e+15 -3.9907581e+15)
(-4.5647302e+17 4.9709553e+15 -4.3485131e+15)
(-4.4721574e+17 1.1886942e+16 -4.2361571e+15)
(-4.5758773e+17 4.9108977e+15 -4.1138094e+15)
(-4.2979797e+17 1.4445434e+16 -4.0084229e+15)
(-4.406016e+17 8.1523494e+15 -3.9232139e+15)
(-4.2685473e+17 1.5981059e+16 -4.0536338e+15)
(-4.4284019e+17 6.3453152e+15 -3.9206684e+15)
(-6.5570719e+17 -6.5691529e+15 -4.5558317e+15)
(-5.1148767e+17 -2.8953343e+15 -4.6542656e+15)
(-5.0690024e+17 -2.7651247e+15 -2.0174235e+15)
(-5.0809906e+17 -3.8280272e+15 -3.0418936e+15)
(-5.039066e+17 -5.6291419e+15 -4.7476238e+15)
(-5.0045592e+17 -3.9061407e+15 -1.6675398e+14)
(-5.0178107e+17 -1.4045653e+15 -2.3954975e+15)
(-5.062297e+17 -5.8710506e+15 -5.4418269e+15)
(-5.1217951e+17 -4.6226186e+15 -4.3392594e+15)
(-4.7026148e+17 -3.5579696e+15 -5.028896e+15)
(-4.8217684e+17 -5.4262781e+15 -5.2233747e+15)
(-4.8088576e+17 -5.9519357e+15 -4.8819174e+15)
(-4.7967594e+17 -5.6103324e+15 -7.4547679e+15)
(-4.9673413e+17 -5.0236122e+15 -6.2828991e+15)
(-4.8443074e+17 -5.4657319e+15 -7.443441e+15)
(-4.8763348e+17 -4.2284094e+15 -6.0342183e+15)
(-4.8201807e+17 -4.7772107e+15 -4.722224e+15)
(-4.8089427e+17 -4.0204535e+15 -5.4219416e+15)
(-4.6759935e+17 -1.0871435e+15 -6.3669898e+15)
(-4.325429e+17 3.2773216e+15 -4.6339908e+15)
(-4.3085965e+17 4.856916e+15 -4.9831721e+15)
(-4.399207e+17 8.7701006e+14 -4.41047e+15)
(-4.7684752e+17 -9.6484454e+14 -4.5210618e+15)
(-4.7663658e+17 -3.0907742e+15 -5.4314075e+15)
(-4.7822443e+17 -2.8489859e+15 -5.1557618e+15)
(-4.4392962e+17 -7.7784606e+14 -4.1570677e+15)
(-4.7762064e+17 -4.5686037e+15 -5.1859755e+15)
(-4.4978385e+17 -4.4175244e+15 -5.9937044e+15)
(-4.3593203e+17 -4.8608917e+15 -4.5493453e+15)
(-4.3505488e+17 -4.83083e+15 -3.9299885e+15)
(-4.4682529e+17 -4.1990965e+15 -5.5530506e+15)
(-4.2097219e+17 -4.5952244e+15 -2.4434658e+15)
(-4.176243e+17 -4.7923575e+15 -2.3740104e+15)
(-4.6488758e+17 -2.0818473e+15 -4.8901063e+15)
(-4.4028479e+17 -3.558417e+15 -5.3130873e+15)
(-4.2759575e+17 -4.2208673e+15 -3.3636699e+15)
(-4.3951051e+17 2.5135216e+15 -4.240404e+15)
(-4.6251973e+17 -2.3905029e+15 -5.0292829e+15)
(-4.3819572e+17 -3.8926663e+15 -5.064696e+15)
(-4.2016869e+17 -4.1672075e+15 -1.2877088e+15)
(-4.3874122e+17 3.3755497e+15 -4.6464735e+15)
(-4.2031894e+17 7.9126784e+15 -4.7036644e+15)
(-4.1795357e+17 6.2956477e+15 -4.7631274e+15)
(-4.3109518e+17 3.7416676e+15 -4.0797888e+15)
(-4.3003759e+17 6.4590031e+15 -4.0767264e+15)
(-4.4136385e+17 -3.6964421e+15 -5.0693014e+15)
(-4.2874914e+17 -4.0128951e+15 -4.9190696e+15)
(-4.2889747e+17 -3.3969693e+15 -4.6147795e+15)
(-4.3637844e+17 -2.4027581e+15 -4.9886894e+15)
(-4.0870973e+17 -3.1384071e+15 -4.2302846e+15)
(-4.0961619e+17 -3.466861e+15 -4.0268154e+15)
(-4.3024549e+17 3.6973778e+15 -4.3057091e+15)
(-4.2647301e+17 -1.7566364e+15 -4.0557038e+15)
(-4.1184972e+17 -3.1334731e+15 -4.0586451e+15)
(-4.1097065e+17 -3.5142685e+15 -4.0899122e+15)
(-6.2054518e+17 -1.8417355e+16 3.6209152e+16)
(-6.6659706e+17 -1.8707138e+16 1.7255041e+15)
(-5.0922575e+17 8.3840794e+15 -5.0460191e+15)
(-5.1428914e+17 -1.5180694e+15 -1.9725609e+15)
(-5.4287694e+17 -2.0936705e+15 2.1805684e+15)
(-5.2005466e+17 5.9857035e+15 -3.7069664e+15)
(-4.9849185e+17 6.4027248e+15 6.2436212e+15)
(-4.985662e+17 4.7888403e+15 5.0287802e+15)
(-5.2718048e+17 4.2560565e+15 2.941146e+15)
(-5.1967301e+17 1.3426316e+15 -8.8920438e+14)
(-6.7386411e+17 -7.4337459e+15 1.682875e+15)
(-5.1092556e+17 3.5964661e+15 -2.1243224e+15)
(-5.1826792e+17 5.7175317e+15 1.6844221e+14)
(-4.7404637e+17 6.8538308e+15 4.8250496e+15)
(-4.6910387e+17 7.2137586e+15 5.4932128e+15)
(-4.4261092e+17 4.6957887e+15 5.0716512e+15)
(-4.8117659e+17 -1.9812071e+14 4.7603162e+15)
(-5.100696e+17 -2.8421885e+14 5.3388725e+15)
(-6.5654785e+17 -5.2618377e+15 2.7194685e+15)
(-5.0201345e+17 -1.5362811e+15 1.3148247e+15)
(-4.9347493e+17 -2.2454957e+15 3.5245472e+15)
(-4.8327802e+17 -1.5058081e+14 -9.8873646e+14)
(-4.937544e+17 -3.9034977e+15 5.3682547e+15)
(-4.8550219e+17 7.2354082e+14 3.2062952e+15)
(-4.9764676e+17 -2.2834505e+14 2.2028013e+15)
(-4.9775915e+17 -1.6012117e+15 2.6482699e+15)
(-4.6287355e+17 -9.2625893e+14 4.3673301e+15)
(-4.7529934e+17 -1.6449873e+15 3.5061503e+15)
(-4.6287966e+17 -8.9013189e+14 4.9843194e+15)
(-4.7865507e+17 -1.1113231e+15 3.4895029e+15)
(-4.7655785e+17 1.5021382e+15 5.2019743e+15)
(-4.7685368e+17 -4.8134087e+15 5.707137e+15)
(-4.7467727e+17 -4.7432767e+15 6.139917e+15)
(-4.6749408e+17 -4.3445773e+15 3.5000834e+15)
(-4.6307343e+17 -4.587861e+15 3.8429639e+15)
(-4.3817524e+17 4.3470036e+15 4.4446953e+15)
(-4.5142579e+17 6.0637156e+13 5.258345e+15)
(-4.3554645e+17 1.6901156e+15 4.1833e+15)
(-4.5095398e+17 -2.5570075e+15 2.5691116e+15)
(-4.4834295e+17 5.7759549e+14 4.8388351e+15)
(-4.3273883e+17 3.4655415e+15 4.5337769e+15)
(-4.4802922e+17 -1.668453e+15 4.00252e+15)
(-4.2484547e+17 -3.9843339e+15 3.5012453e+15)
(-4.4975572e+17 -3.2767214e+15 4.6288149e+15)
(-4.4254634e+17 -3.7305941e+15 4.4196874e+15)
(-4.3104711e+17 -4.2990615e+15 3.6069324e+15)
(-6.575849e+17 -2.5410324e+16 -1.2205503e+15)
(-6.862096e+17 -1.2123531e+16 -2.6127202e+15)
(-6.9341844e+17 -6.1442356e+15 -2.8381621e+15)
(-4.5871352e+17 -4.4259986e+15 2.8216428e+15)
(-4.5985757e+17 -4.3552208e+15 2.9313588e+15)
(-4.9948672e+17 -6.1317743e+15 2.1386529e+15)
(-6.7731407e+17 -5.5101272e+15 -1.9322741e+15)
(-5.3245765e+17 -2.3298696e+15 -9.6298519e+14)
(-5.2851522e+17 -6.2788835e+13 -1.7552561e+15)
(-5.373361e+17 -3.9632927e+15 -7.1119675e+14)
(-5.3293675e+17 -1.6163495e+15 -1.6570986e+15)
(-4.9577626e+17 -5.2242618e+15 9.3232898e+14)
(-5.0570178e+17 -5.8491867e+15 1.1646126e+15)
(-5.0236202e+17 -6.2485301e+15 2.0956043e+15)
(-4.5362203e+17 -4.431052e+15 1.9595813e+15)
(-4.4864946e+17 -4.5200306e+15 1.0069176e+15)
(-4.2727123e+17 -4.4282093e+15 4.5760492e+14)
(-4.3944856e+17 -4.1824839e+15 2.8685285e+15)
(-4.3628031e+17 -4.079169e+15 2.9257461e+15)
(-4.2445444e+17 -4.3852947e+15 -5.0958218e+14)
(-6.5408189e+17 -3.1954405e+15 -3.3255125e+16)
(-6.7634868e+17 -8.8649803e+15 -9.7283151e+15)
(-6.8831328e+17 -7.2534365e+15 -2.0761816e+15)
(-6.9382154e+17 -5.2103663e+15 -2.8544709e+13)
(-4.9172e+17 -6.3659294e+15 -9.0078775e+14)
(-5.3464829e+17 -3.9752011e+15 -6.0261828e+14)
(-6.7685537e+17 -5.2389877e+15 -2.0935263e+14)
(-5.2801717e+17 -3.4601893e+15 -7.8953686e+14)
(-5.292789e+17 -1.4411556e+15 -1.9671778e+15)
(-5.3019537e+17 -1.2701823e+15 -8.4336442e+14)
(-4.7880856e+17 -4.6822434e+15 -2.4142855e+15)
(-4.782044e+17 -5.8059974e+15 -2.989733e+15)
(-4.936917e+17 -7.0190823e+15 -1.7300114e+15)
(-4.4781988e+17 -4.9033887e+15 -2.3696587e+15)
(-4.448182e+17 -5.0140081e+15 -3.789901e+15)
(-4.385151e+17 -4.8203461e+15 -3.8131141e+15)
(-4.3918796e+17 -4.8884256e+15 -4.3717806e+15)
(-4.2461204e+17 -4.6707564e+15 -5.4094097e+15)
(-4.2779411e+17 -4.7857005e+15 -5.5318409e+15)
(-4.2532843e+17 -4.6737672e+15 -6.2251769e+15)
(-4.2374554e+17 -4.3967514e+15 -7.0416563e+15)
(-8.0387708e+17 2.4208029e+16 -3.5982044e+16)
(-7.4208745e+17 1.4626029e+16 -5.7946994e+16)
(-5.446491e+17 9.3810305e+15 5.832633e+15)
(-5.2639157e+17 1.0131775e+16 -9.3851533e+15)
(-5.2836538e+17 1.405803e+16 -9.1250689e+15)
(-5.4877901e+17 1.8953129e+16 7.8737012e+15)
(-6.7011286e+17 9.5700801e+15 -2.8550972e+16)
(-5.2283974e+17 1.5896606e+16 4.0264357e+15)
(-5.1895118e+17 1.0065432e+16 2.7268736e+15)
(-5.4251827e+17 1.0899145e+16 -7.3488127e+15)
(-5.4585373e+17 1.4169504e+16 -7.3527307e+15)
(-4.9105077e+17 1.7980135e+16 -9.1174089e+15)
(-4.9865079e+17 1.7333222e+16 -8.9457296e+15)
(-4.9884271e+17 1.8847809e+16 -1.0344067e+16)
(-4.9459787e+17 1.9754854e+16 -1.0949285e+16)
(-6.5833817e+17 2.4662309e+15 -1.4472786e+16)
(-5.1888802e+17 9.6891011e+15 -4.2116249e+15)
(-5.4560321e+17 1.2402405e+16 -8.3493779e+15)
(-5.4231166e+17 1.0190056e+16 -8.3211186e+15)
(-5.226005e+17 1.235386e+16 -2.5011356e+15)
(-4.8365557e+17 1.5922222e+16 -6.8523788e+15)
(-4.8602286e+17 1.6115484e+16 -5.922426e+15)
(-5.0009995e+17 1.6703022e+16 -6.7254898e+15)
(-4.9808648e+17 1.5916741e+16 -8.09472e+15)
(-4.7246788e+17 2.117387e+16 -4.8316607e+15)
(-4.5650619e+17 1.6359785e+16 -5.3403792e+15)
(-4.5198671e+17 1.5468866e+16 -3.8780556e+15)
(-4.6679028e+17 1.81323e+16 -3.6660581e+15)
(-6.6366521e+17 -3.8817138e+15 -6.3767575e+15)
(-5.2453304e+17 5.6188592e+15 -3.7903496e+15)
(-5.3346167e+17 7.1781645e+15 -6.4823176e+15)
(-5.3126953e+17 5.5854758e+15 -5.4885364e+15)
(-5.1939181e+17 4.0124711e+15 -3.1869867e+15)
(-4.7849696e+17 1.2169248e+16 -4.9008309e+15)
(-4.7795199e+17 1.4011329e+16 -6.7902917e+15)
(-4.8601235e+17 1.1175113e+16 -7.9841592e+15)
(-4.8115225e+17 9.7589239e+15 -6.4926754e+15)
(-4.5987162e+17 1.3801413e+16 -3.9176931e+15)
(-4.552478e+17 1.7081157e+16 -3.9432274e+15)
(-4.4776474e+17 1.8417102e+16 -3.8604172e+15)
(-4.5434934e+17 1.4227702e+16 -4.087547e+15)
(-4.4113966e+17 1.6403878e+16 -3.7220349e+15)
(-4.3663365e+17 2.0648165e+16 -3.7130541e+15)
(-4.4275122e+17 2.3997325e+16 -3.9414652e+15)
(-4.4246814e+17 1.9771119e+16 -3.8159428e+15)
(-6.7046644e+17 -6.2603137e+15 -4.1672497e+15)
(-5.2640625e+17 5.0872918e+14 -2.6869944e+15)
(-5.2255469e+17 -1.9146087e+15 -5.4645189e+14)
(-5.2640984e+17 9.2083004e+13 -1.1832098e+15)
(-5.2968874e+17 1.6547025e+15 -3.6877974e+15)
(-4.8051685e+17 6.1432485e+15 -4.8475498e+15)
(-4.7871771e+17 8.0444812e+15 -6.60422e+15)
(-4.7957589e+17 6.6257142e+15 -7.0842626e+15)
(-4.7803107e+17 3.0589835e+15 -4.9929911e+15)
(-4.475375e+17 1.2042878e+16 -4.3076203e+15)
(-4.4651523e+17 1.3652553e+16 -4.492685e+15)
(-4.5647815e+17 1.3486737e+16 -4.2745624e+15)
(-4.5651883e+17 1.1220704e+16 -4.0529706e+15)
(-4.3210916e+17 1.4960081e+16 -3.9073888e+15)
(-4.3409766e+17 1.4437294e+16 -3.7467521e+15)
(-4.4614461e+17 1.7029053e+16 -3.8170271e+15)
(-4.4591072e+17 1.5727175e+16 -3.9150808e+15)
(-4.6046131e+17 3.0072925e+15 -4.1518691e+15)
(-4.9408575e+17 -1.0186301e+14 -6.5468155e+15)
(-6.7378409e+17 -5.7965336e+15 -3.979568e+15)
(-5.3322e+17 -2.7517446e+15 -2.9205428e+15)
(-5.2749161e+17 -3.6716456e+15 -1.54968e+15)
(-5.3460614e+17 -2.3832397e+15 2.3369047e+14)
(-5.3479306e+17 -1.5202148e+15 -1.7567892e+15)
(-4.8429733e+17 2.6917518e+15 -5.7847903e+15)
(-4.8897188e+17 -1.2253274e+15 -5.4399996e+15)
(-4.8945477e+17 1.0322118e+15 -4.5484149e+15)
(-4.5626977e+17 4.7330861e+15 -4.5474805e+15)
(-4.5881295e+17 5.8828696e+15 -4.544322e+15)
(-4.558338e+17 4.3892939e+15 -4.3447207e+15)
(-4.40628e+17 1.0073827e+16 -4.1751426e+15)
(-4.451843e+17 5.4558684e+15 -4.1895443e+15)
(-4.3512317e+17 1.2618982e+16 -4.1682715e+15)
(-4.4607681e+17 5.3845629e+15 -4.2830186e+15)
(-6.5532732e+17 -6.8701403e+15 -4.6165425e+15)
(-5.1122137e+17 -2.4751186e+15 -2.1744459e+15)
(-5.0693666e+17 -2.6639305e+15 2.0513796e+14)