/*--------------------------------*- C++ -*----------------------------------*\
  =========                 |
  \\      /  F ield         | OpenFOAM: The Open Source CFD Toolbox
   \\    /   O peration     | Website:  https://openfoam.org
    \\  /    A nd           | Version:  7
     \\/     M anipulation  |
\*---------------------------------------------------------------------------*/
FoamFile
{
    version     2.0;
    format      ascii;
    class       volScalarField;
    location    "3000";
    object      k;
}
// * * * * * * * * * * * * * * * * * * * * * * * * * * * * * * * * * * * * * //

dimensions      [0 2 -2 0 0 0 0];

internalField   nonuniform List<scalar> 
33730
(
1.522713
1.5223619
1.5212054
1.522316
1.5220007
1.5218445
1.5231016
1.5222036
1.5230875
1.5219942
1.5223986
1.5228236
1.5218588
1.5228342
1.5208278
1.5209316
1.5211718
1.5212012
1.5222766
1.522312
1.5222412
1.5220022
1.5220085
1.5224704
1.522407
1.5218581
1.5218199
1.521803
1.5217995
1.5218314
1.5219623
1.522321
1.5224235
1.5228669
1.5226712
1.5226062
1.5229092
1.5215651
1.5216293
1.5215314
1.5216621
1.522063
1.5216419
1.5216751
1.521853
1.5216093
1.5216029
1.5222771
1.5223488
1.521769
1.5217676
1.5221988
1.5223089
1.5207258
1.5208113
1.5208891
1.520697
1.520764
1.5207221
1.5210717
1.5209679
1.5209664
1.5207315
1.5210348
1.5212439
1.5207402
1.5210767
1.5213078
1.5210498
1.5224065
1.5223304
1.5224051
1.5224064
1.5222628
1.5222518
1.5224348
1.5221494
1.52235
1.5220904
1.5217986
1.5218226
1.5220668
1.5217843
1.521781
1.5221061
1.5221032
1.5219279
1.521937
1.5218015
1.5218041
1.5217949
1.5219021
1.5217779
1.5217999
1.5216369
1.5216887
1.5218926
1.5219586
1.5217456
1.5220602
1.521751
1.5220619
1.5215494
1.5215654
1.5215132
1.5213814
1.5223687
1.5222955
1.522156
1.52224
1.5221806
1.5221267
1.5222027
1.5222517
1.5222668
1.5222165
1.5221164
1.522678
1.5221777
1.5224112
1.5222555
1.5221253
1.5222164
1.5223392
1.5215911
1.5215961
1.5216122
1.5215536
1.5216103
1.5216163
1.521618
1.521641
1.521643
1.5215767
1.5215783
1.5215934
1.5215942
1.5215194
1.5216325
1.5216327
1.5216584
1.5216601
1.5213944
1.5214249
1.5216631
1.5216771
1.5216604
1.5216941
1.5216797
1.5216763
1.5216973
1.5217125
1.5217583
1.5217092
1.521758
1.5216924
1.5210851
1.5216778
1.5213311
1.5214038
1.5213755
1.5213059
1.5212918
1.5213649
1.5220003
1.522022
1.5220259
1.522029
1.5217721
1.5218026
1.5218067
1.5218106
1.5218286
1.5218998
1.5219883
1.5219903
1.5207532
1.5208503
1.52069
1.5207911
1.5208475
1.520666
1.520728
1.5206927
1.5210556
1.5209861
1.5209724
1.5208821
1.5208668
1.5210292
1.5207323
1.5207178
1.5207117
1.5207209
1.5207275
1.5207155
1.5211224
1.521112
1.5210528
1.5208414
1.5213883
1.521179
1.5207055
1.520729
1.5207314
1.5207089
1.5211395
1.5209333
1.5208696
1.5211559
1.521192
1.521207
1.5214673
1.5208495
1.5207066
1.5207302
1.5211253
1.5211322
1.5225169
1.5224481
1.5223602
1.522425
1.5222793
1.522211
1.522302
1.5221927
1.5223491
1.5224238
1.52244
1.5224531
1.5224763
1.5222154
1.5219562
1.5224163
1.522215
1.5225105
1.5225375
1.5223076
1.5223339
1.5218842
1.521606
1.5216118
1.5218871
1.5216321
1.5217001
1.5218876
1.5218951
1.5215867
1.521586
1.5218763
1.5218794
1.5215792
1.5215795
1.5218769
1.5218727
1.5220981
1.5220823
1.5218368
1.5218378
1.5221077
1.5221077
1.5218423
1.5218419
1.5218883
1.5217253
1.5217798
1.5217912
1.5218278
1.5220081
1.5220551
1.5218323
1.5215772
1.5215166
1.5216773
1.5216955
1.5217648
1.5215338
1.5215317
1.5217681
1.5215605
1.5215572
1.5218359
1.5218396
1.5218441
1.5215586
1.5215599
1.5218418
1.5215312
1.5216863
1.5216933
1.5215313
1.5216716
1.5216635
1.5217178
1.5217165
1.5217219
1.5215113
1.5215114
1.5214878
1.5214761
1.5214757
1.521489
1.5219492
1.5219525
1.5220435
1.5220381
1.5220301
1.5219275
1.521948
1.5220081
1.5219632
1.5219291
1.5219035
1.5219397
1.521975
1.521929
1.5219332
1.5219694
1.5218278
1.5218543
1.5217956
1.5218793
1.5218893
1.5218846
1.5219258
1.52193
1.5219442
1.5222369
1.5219377
1.5219052
1.5219414
1.5219093
1.5219353
1.5221681
1.5219624
1.5219228
1.5219274
1.5219557
1.5219533
1.5219603
1.5219443
1.5219395
1.5222435
1.5218899
1.5219339
1.5219448
1.5221389
1.5219059
1.5221762
1.5220624
1.5218865
1.5219193
1.5219207
1.5219499
1.5222258
1.5222031
1.5225044
1.5221668
1.5221938
1.522195
1.5221692
1.5220859
1.5220632
1.5218459
1.5217813
1.5218666
1.5219225
1.5217873
1.5218738
1.521822
1.5218474
1.5219063
1.5219094
1.5219481
1.521944
1.5219216
1.5220055
1.5219225
1.522008
1.521729
1.5217407
1.521571
1.5217175
1.5217074
1.5216891
1.5217273
1.5215756
1.5217068
1.5216786
1.5217056
1.5217028
1.5217541
1.5217535
1.5215487
1.5215541
1.5217597
1.521759
1.5217714
1.5217715
1.5217878
1.521789
1.5217795
1.5217818
1.5217866
1.5217789
1.5217919
1.5217845
1.5218014
1.5217899
1.5218022
1.5218009
1.5217902
1.5218052
1.5217945
1.5217312
1.5217346
1.5215563
1.5217109
1.5217084
1.5217296
1.5217374
1.521557
1.5217139
1.5217067
1.5217647
1.5217621
1.5217663
1.5217649
1.5217628
1.5217608
1.5217694
1.5217676
1.5215377
1.5215372
1.5217826
1.5217768
1.521795
1.5217895
1.5217154
1.5217122
1.5217739
1.5217688
1.5217237
1.5217224
1.5217868
1.5217802
1.5217974
1.5217897
1.5218099
1.5218019
1.5214997
1.5215004
1.5215119
1.5215128
1.5215105
1.5215187
1.5215298
1.521525
1.521809
1.5218122
1.5217963
1.5217996
1.5218121
1.5217956
1.5218143
1.5217979
1.5218086
1.5217954
1.5217429
1.5218021
1.5217417
1.5217915
1.5218075
1.5217979
1.5218195
1.5218092
1.5217333
1.5217323
1.521796
1.5217879
1.521813
1.5218239
1.5218004
1.5218101
1.5218117
1.5217968
1.5218208
1.5218043
1.521805
1.5217996
1.5218117
1.5218043
1.5217506
1.5217488
1.5218022
1.5217896
1.5217566
1.5217646
1.5217979
1.5217951
1.5217886
1.5218071
1.5218083
1.5211587
1.5213096
1.5211928
1.5211825
1.5212909
1.5213997
1.5214107
1.5214376
1.5214274
1.5214593
1.521471
1.5214912
1.5214828
1.5214699
1.5214479
1.5214475
1.5214705
1.521388
1.5213888
1.5214134
1.5214142
1.5213622
1.5213887
1.521388
1.5214471
1.5214231
1.5214219
1.5214472
1.521843
1.5218575
1.5218349
1.5218388
1.5218243
1.5218203
1.5218242
1.5218275
1.5217776
1.5217925
1.5218328
1.5218384
1.521844
1.5218455
1.5218506
1.52185
1.5216464
1.521662
1.5217249
1.5217283
1.5217874
1.5217915
1.5217945
1.5217924
1.5207314
1.5208347
1.5214518
1.5206706
1.5207617
1.5208056
1.5209679
1.5208646
1.5206351
1.5207149
1.5207078
1.5207197
1.5206623
1.5206981
1.5207217
1.5210365
1.5208991
1.5211403
1.5209674
1.5208542
1.5210128
1.520727
1.5207164
1.5207186
1.5207133
1.5207257
1.5207174
1.520706
1.5207045
1.5207111
1.5207127
1.5208295
1.5211619
1.5208204
1.5211451
1.5208184
1.5211435
1.5208158
1.5211411
1.5210598
1.520972
1.5211058
1.5209498
1.5208391
1.5208196
1.5208374
1.5208072
1.521246
1.5210317
1.5213118
1.5215927
1.5212211
1.5211811
1.5209327
1.5208916
1.5207229
1.5207041
1.5208502
1.521132
1.5210355
1.5210179
1.5213152
1.5212278
1.5209519
1.5208951
1.5211944
1.5212255
1.5211185
1.5213095
1.5215246
1.5214612
1.5208352
1.5208063
1.5207983
1.5208442
1.5206943
1.5206952
1.5207026
1.5207055
1.5207063
1.5207189
1.5207135
1.5207316
1.5208095
1.5208187
1.5211574
1.5211541
1.5208379
1.5211542
1.5211529
1.5208252
1.5224778
1.5224013
1.5226176
1.5224096
1.5225049
1.5224432
1.5224298
1.5224265
1.5224456
1.5224347
1.5224557
1.5223287
1.5222788
1.5221936
1.5222123
1.5223188
1.5223298
1.5222081
1.5221621
1.5221535
1.5222444
1.5223703
1.5223404
1.522355
1.5223944
1.5224724
1.5224459
1.522481
1.5224506
1.5224673
1.5224743
1.5224954
1.5225051
1.5222902
1.5221701
1.5222227
1.5223749
1.5217344
1.5220704
1.5222737
1.5219667
1.5224921
1.5224102
1.5224402
1.5225283
1.5224839
1.5224129
1.5221393
1.5222275
1.5225917
1.5225097
1.5225211
1.5226071
1.5226195
1.5225342
1.5225447
1.5226268
1.5222791
1.5225411
1.5225685
1.522306
1.5225866
1.5225768
1.5223187
1.5223255
1.5212917
1.5212917
1.5217664
1.5217684
1.5213046
1.5212909
1.521773
1.521774
1.5213459
1.5213283
1.5217801
1.5217837
1.521524
1.521426
1.5218104
1.521815
1.5212608
1.5212682
1.5217521
1.521754
1.5212584
1.5212507
1.5217576
1.5217581
1.5212418
1.5212573
1.5217486
1.5217496
1.5212508
1.5217522
1.5217516
1.5212417
1.5221297
1.5221131
1.5221405
1.5221403
1.521904
1.5217242
1.5220321
1.522083
1.5215848
1.5216249
1.5214674
1.5215972
1.5213054
1.5213557
1.5216104
1.5216112
1.5212886
1.5212688
1.5216657
1.5216683
1.521671
1.5212614
1.5212649
1.5216733
1.5212481
1.5212648
1.5217174
1.5217195
1.5212404
1.5212375
1.5217238
1.5217243
1.5212422
1.521233
1.5217261
1.5217259
1.5212352
1.5212478
1.5217247
1.521726
1.5222615
1.5216549
1.5216669
1.5216686
1.5216582
1.5220758
1.5220755
1.5220116
1.5220143
1.5220093
1.5220135
1.5220726
1.5220725
1.5216476
1.5216588
1.5216683
1.5216572
1.5220709
1.5220722
1.5219689
1.5220176
1.5219661
1.5220188
1.5219749
1.5219322
1.5219345
1.5219761
1.5219683
1.5220138
1.521963
1.5220168
1.5216475
1.5216636
1.521673
1.521658
1.5216718
1.5216708
1.5216549
1.5216581
1.5216514
1.5216698
1.5216785
1.5216618
1.5216537
1.5216694
1.5216767
1.5216634
1.5216741
1.5216747
1.5216588
1.5216611
1.5216581
1.5216756
1.5216756
1.5216607
1.5217229
1.5217169
1.5217698
1.5217636
1.5217234
1.5217706
1.5217267
1.5217726
1.5217627
1.5218319
1.5217663
1.5218336
1.5217627
1.521831
1.5217577
1.5218254
1.5217768
1.5217815
1.5218407
1.5218431
1.5217517
1.5217792
1.5217912
1.5218112
1.5217396
1.5217834
1.5217443
1.5217864
1.5217874
1.5218091
1.521846
1.5218594
1.5217035
1.52175
1.5217081
1.5217526
1.521684
1.5216877
1.5217185
1.5217207
1.5216951
1.5217274
1.5217269
1.5217537
1.5217158
1.5217472
1.5217585
1.5217828
1.5216844
1.5217356
1.5216872
1.5217367
1.5216632
1.5216566
1.5217
1.5216924
1.5216643
1.5217012
1.521666
1.5217018
1.5216839
1.5216776
1.5217343
1.5217268
1.5216028
1.5216269
1.5215757
1.5216023
1.5216174
1.5216088
1.5216351
1.5216258
1.5215861
1.5215984
1.5216112
1.5216032
1.5216421
1.5216336
1.5216343
1.5216474
1.5216263
1.5216376
1.5216751
1.5216665
1.5219153
1.5216921
1.5216983
1.5216895
1.5216806
1.5219544
1.5217076
1.5217147
1.521692
1.5216885
1.5219613
1.5217149
1.5217164
1.521648
1.5216653
1.521646
1.5216617
1.5219383
1.5219342
1.5216452
1.5216623
1.5216376
1.5216527
1.521631
1.5216542
1.521623
1.521645
1.5216306
1.5216683
1.52163
1.5216667
1.5216337
1.5216564
1.521632
1.5216537
1.5216294
1.5216674
1.5216218
1.5216585
1.5219568
1.521961
1.5219667
1.5219603
1.521644
1.5216849
1.5216447
1.5216842
1.5216411
1.5216345
1.5216666
1.5216585
1.5216438
1.521669
1.5216431
1.5216672
1.5216425
1.521636
1.521683
1.5216748
1.5216522
1.5216718
1.5216461
1.5216634
1.5216561
1.5216753
1.5216542
1.5216721
1.521701
1.5216967
1.521973
1.5217257
1.5217227
1.5216965
1.5216885
1.5219661
1.5217145
1.5217206
1.5219488
1.5219448
1.5217121
1.5217263
1.5219049
1.5217423
1.5217341
1.5217159
1.5217124
1.5219535
1.5217368
1.5217398
1.5216743
1.5216913
1.5216739
1.5216898
1.5219337
1.5218791
1.5216767
1.5216926
1.5216999
1.5217145
1.5219756
1.5219703
1.5219665
1.5219694
1.5218842
1.5219502
1.5219512
1.521892
1.5216695
1.5216915
1.5216983
1.5217172
1.521674
1.5217088
1.5217058
1.5217355
1.5216631
1.5216871
1.5216644
1.5216871
1.5216649
1.5217022
1.5216675
1.5217032
1.5221571
1.5222027
1.5221489
1.5221377
1.5221262
1.5221889
1.5221067
1.5220824
1.5220087
1.5220094
1.5220052
1.5220082
1.5219891
1.5219829
1.5219802
1.5219829
1.5219981
1.5219948
1.5219912
1.521992
1.5220207
1.5220226
1.5220154
1.5220189
1.5219693
1.5219697
1.5218934
1.521899
1.5219879
1.5219938
1.5219124
1.5219183
1.5216561
1.521691
1.5216538
1.5216896
1.5216145
1.5216371
1.5216076
1.5216356
1.5216199
1.5216244
1.5216671
1.5216749
1.5216813
1.5216819
1.5217357
1.5217363
1.521607
1.5215831
1.5216242
1.5216048
1.5216315
1.52167
1.5216267
1.5216654
1.5216053
1.5216343
1.5215883
1.5216224
1.5216217
1.5216148
1.5216492
1.5216425
1.5216469
1.5216397
1.5216814
1.5216737
1.521647
1.5216474
1.5216809
1.5216806
1.5216631
1.5216648
1.5217106
1.5217113
1.5216646
1.5216584
1.5217126
1.5217057
1.5217005
1.5217451
1.5216951
1.52174
1.5217372
1.5218023
1.5217335
1.5217984
1.5216972
1.5217412
1.5216999
1.5217431
1.521732
1.5217356
1.521797
1.5217992
1.5220887
1.5220894
1.5220307
1.5220343
1.5220456
1.5220505
1.5221032
1.5221038
1.5216903
1.5217
1.5217086
1.5217001
1.5220994
1.5220855
1.5218914
1.5218999
1.5218474
1.5218619
1.5219955
1.5220021
1.5220504
1.5220524
1.5216998
1.5216762
1.5216677
1.5216917
1.522051
1.5219076
1.5218413
1.5218602
1.5218326
1.5218117
1.5218097
1.521835
1.5217883
1.5218139
1.5219652
1.5219985
1.521956
1.5220056
1.5219279
1.5219621
1.5219719
1.5219386
1.5217076
1.5217005
1.5216867
1.5216958
1.5216999
1.521679
1.521667
1.5216884
1.5219949
1.5220365
1.5219903
1.5220395
1.5219615
1.5219991
1.522003
1.5219657
1.5220123
1.5220518
1.5220058
1.522056
1.5219776
1.5220152
1.5220208
1.5219839
1.5220019
1.5219718
1.5219738
1.5220026
1.5219982
1.5219988
1.5219697
1.5219701
1.5219576
1.5219845
1.5219557
1.5219852
1.5219808
1.521954
1.5219824
1.5219544
1.5219691
1.5219945
1.5219655
1.5219974
1.5219782
1.5219504
1.5219537
1.5219808
1.5219791
1.5220025
1.5219728
1.5220076
1.5219851
1.5219567
1.5219904
1.5219626
1.521968
1.5219471
1.5219487
1.5219687
1.5219359
1.5219601
1.5219596
1.5219366
1.5219667
1.5219646
1.5219463
1.521945
1.5219456
1.5219628
1.5219429
1.521965
1.5219327
1.5219554
1.5219571
1.521934
1.5219736
1.5219534
1.5219686
1.5219481
1.5219371
1.5219603
1.5219647
1.5219415
1.522132
1.5221319
1.5220678
1.5220708
1.5220624
1.5220647
1.5221242
1.5221227
1.5216901
1.521702
1.5217039
1.5216935
1.5221192
1.5221273
1.5221208
1.5221212
1.522058
1.5220615
1.5220699
1.5220746
1.5221337
1.5221338
1.5216885
1.5216999
1.5217077
1.5216966
1.5221296
1.5221164
1.5220747
1.5220764
1.522023
1.5220262
1.5220346
1.5219901
1.5219923
1.5220329
1.5220692
1.5220695
1.5220213
1.5220191
1.5220289
1.5220289
1.5219871
1.5219885
1.5220188
1.5220648
1.5220147
1.5220675
1.5220246
1.5219827
1.5219867
1.5220276
1.5220309
1.5220763
1.5220248
1.5220799
1.5220342
1.5219913
1.5220391
1.5219976
1.5216864
1.5217018
1.5217095
1.5216951
1.5217051
1.5217036
1.521688
1.5216916
1.52195
1.5219717
1.5219455
1.5219752
1.5219571
1.5219324
1.5219371
1.5219611
1.5219938
1.5219683
1.5219884
1.5219623
1.5219745
1.5219495
1.5219797
1.5219553
1.521805
1.5217887
1.5217758
1.5218186
1.5217777
1.5218116
1.521767
1.5217995
1.5219243
1.5219356
1.5219123
1.5219469
1.5218999
1.5219213
1.5219343
1.5219128
1.5217988
1.5217696
1.5217635
1.5218068
1.5217665
1.5218069
1.5217605
1.5217977
1.5219228
1.5219075
1.521909
1.5218939
1.5218866
1.5219033
1.521918
1.5219005
1.521931
1.5219439
1.5219263
1.5219481
1.5219182
1.5219379
1.5219422
1.5219222
1.5219665
1.5219489
1.5219615
1.5219436
1.5219353
1.5219557
1.5219604
1.52194
1.521704
1.5217033
1.5216879
1.5216911
1.5217088
1.5217016
1.5216864
1.5216954
1.5216874
1.5217044
1.5217123
1.5216963
1.521689
1.5217062
1.5217072
1.5216922
1.5217023
1.5216982
1.5216841
1.5216911
1.5216979
1.5216823
1.5216692
1.5216863
1.5217011
1.5216826
1.5216686
1.521688
1.5216865
1.5217016
1.5217073
1.5216943
1.5219269
1.5219437
1.5219259
1.5219441
1.5219477
1.5219513
1.5219296
1.5219335
1.5219363
1.521915
1.5219365
1.5219156
1.5219429
1.5219185
1.5219218
1.5219398
1.5219234
1.5219234
1.521906
1.5219056
1.5219113
1.5218882
1.5218882
1.5219113
1.5219115
1.5219267
1.5219087
1.5219293
1.5219143
1.5219164
1.5218901
1.5218923
1.5219291
1.5219468
1.5219284
1.5219467
1.5219387
1.5219169
1.5217635
1.5217621
1.5217982
1.5218054
1.5218979
1.521883
1.521871
1.521884
1.5217943
1.521765
1.5217627
1.5218035
1.5218894
1.521871
1.5218759
1.5218596
1.5219285
1.5219322
1.5219132
1.521917
1.5219266
1.5219084
1.521923
1.5219048
1.5219347
1.521946
1.5219301
1.5219501
1.5219403
1.521921
1.5219255
1.5219443
1.5217988
1.5217637
1.5217606
1.5218055
1.5217638
1.5217603
1.5217984
1.5218065
1.5218969
1.521895
1.5218825
1.5219099
1.5218908
1.5218758
1.5219061
1.52189
1.5219129
1.5218976
1.5219012
1.5219163
1.5219293
1.5219131
1.5219331
1.5219167
1.5218862
1.5219032
1.5218831
1.5219067
1.5219217
1.5219188
1.5218968
1.5218997
1.5218857
1.5218708
1.5218883
1.5218728
1.5218746
1.5218576
1.521873
1.5218563
1.5219013
1.5218991
1.5218826
1.5218846
1.5218858
1.5218674
1.5218843
1.5218659
1.5218583
1.5218466
1.5218593
1.5218475
1.5218493
1.5218387
1.5218397
1.5218485
1.5218674
1.5218545
1.5218685
1.5218555
1.5218566
1.5218453
1.5218561
1.5218452
1.5217657
1.5217983
1.5217651
1.5217912
1.5217949
1.5217874
1.5217682
1.5217666
1.5218623
1.5218506
1.52186
1.5218736
1.5218474
1.521853
1.5218396
1.5218624
1.5217698
1.5217911
1.5217697
1.521786
1.5217896
1.5217873
1.521773
1.5217743
1.5218419
1.5218329
1.5218392
1.5218497
1.5218329
1.5218352
1.5218278
1.5218415
1.5218559
1.5218758
1.5218743
1.5218548
1.5218735
1.5218909
1.52189
1.5218727
1.5218919
1.5218738
1.5218935
1.5226281
1.5212784
1.521274
1.5213653
1.5213236
1.5213206
1.5213591
1.5213502
1.5213502
1.5213167
1.5213162
1.5213235
1.5212887
1.5215837
1.5215801
1.5216031
1.5216091
1.5215841
1.521585
1.5216074
1.5216107
1.5216485
1.5216456
1.5216424
1.5216489
1.5216416
1.5216434
1.5216469
1.5216476
1.5216749
1.5216711
1.5216643
1.5216704
1.5216749
1.5216678
1.5216591
1.5216696
1.5216911
1.5216793
1.5216667
1.521681
1.5216779
1.5216896
1.5216935
1.5216838
1.5216802
1.5216944
1.5217001
1.5216886
1.5216672
1.5216747
1.5216791
1.5216747
1.5216775
1.5216754
1.5216679
1.5216725
1.5216819
1.5216953
1.5216966
1.5216852
1.5215822
1.5215806
1.5216041
1.5216091
1.5215809
1.5215788
1.521603
1.5216083
1.5216434
1.5216447
1.5216482
1.5216495
1.5216439
1.5216462
1.5216483
1.5216488
1.5215495
1.5215502
1.5215742
1.5215776
1.5216155
1.5216175
1.5216196
1.5216206
1.5216138
1.5216153
1.5216157
1.5216182
1.5216499
1.5216644
1.5216697
1.5216584
1.5216383
1.5216464
1.5216502
1.5216452
1.521648
1.5216468
1.5216403
1.521644
1.5216544
1.5216672
1.5216676
1.5216566
1.5217568
1.5217606
1.5217907
1.521798
1.5217421
1.5217438
1.5217482
1.5217501
1.5217261
1.521725
1.5217214
1.5217236
1.5217269
1.5217285
1.5217316
1.5217328
1.5215755
1.5215869
1.5215952
1.5215959
1.521647
1.5216492
1.5216509
1.5216539
1.521694
1.5216955
1.5216993
1.5217005
1.5217014
1.5217013
1.5216992
1.5217015
1.5207193
1.5207384
1.5206293
1.5208179
1.520985
1.5206761
1.5213562
1.5223405
1.5222384
1.5220529
1.5221435
1.5207641
1.5208449
1.5209334
1.5209401
1.5208314
1.5206036
1.5206932
1.5206985
1.5207023
1.5206952
1.5207076
1.5206874
1.5206324
1.5207051
1.5206845
1.5211195
1.5209046
1.5210193
1.5208641
1.5211217
1.5208486
1.5208656
1.52084
1.5208175
1.520821
1.5207956
1.5209766
1.5210257
1.5210546
1.5209569
1.521062
1.5209349
1.5207255
1.5207284
1.5207192
1.5207134
1.5207089
1.5207013
1.5207161
1.520718
1.5207068
1.5207047
1.520696
1.5206943
1.5207123
1.5207148
1.5207345
1.5207295
1.5207048
1.5207054
1.5207233
1.5207225
1.5206998
1.5206988
1.5207202
1.5207178
1.5207008
1.5207005
1.5207193
1.5207205
1.5207613
1.5207683
1.5208469
1.5208406
1.5210612
1.5209794
1.5209695
1.5210446
1.5207546
1.5207554
1.5208353
1.5208344
1.5209579
1.5209608
1.5210313
1.5210285
1.5207525
1.520755
1.5208391
1.5208327
1.5209548
1.5209627
1.5210246
1.5210256
1.5208411
1.5207552
1.5207519
1.5208318
1.5210271
1.520967
1.5209568
1.521028
1.521061
1.5211054
1.5211549
1.5210655
1.5209235
1.5209372
1.5209479
1.5209249
1.5208201
1.5208243
1.5208403
1.5208324
1.5207976
1.5208108
1.52079
1.5207989
1.5210872
1.5212104
1.5211625
1.5213234
1.5209454
1.5209747
1.5210121
1.5210514
1.5212176
1.5213017
1.5211965
1.5211386
1.5213752
1.52161
1.5217722
1.5214975
1.5210822
1.5210582
1.5211065
1.5211395
1.5210864
1.5210327
1.5210143
1.5210764
1.520861
1.5208719
1.5209372
1.5209511
1.5208248
1.520839
1.5208951
1.5209115
1.5207268
1.520714
1.5207157
1.5207004
1.520694
1.5207101
1.5207045
1.5207037
1.5206939
1.5206936
1.5206855
1.5206863
1.5208613
1.5208406
1.5208244
1.5207944
1.5208166
1.5207812
1.5211884
1.5210262
1.5209771
1.5212525
1.5209832
1.521214
1.5209658
1.5209981
1.5210303
1.5209731
1.5212355
1.5212225
1.5213339
1.52142
1.5208618
1.5208971
1.5209881
1.5209436
1.520902
1.5208248
1.5208357
1.5209161
1.5210719
1.5210126
1.5210267
1.5210807
1.5210912
1.5210524
1.5210894
1.521109
1.5210039
1.5210793
1.521185
1.5210851
1.5211435
1.521158
1.52125
1.5211874
1.5212911
1.5214151
1.5216562
1.5214507
1.5212784
1.5215047
1.5216452
1.5213806
1.5207933
1.5207793
1.5207838
1.5208016
1.5208283
1.5208131
1.5208302
1.5208564
1.5206912
1.5206905
1.5207097
1.5207115
1.5206921
1.5206938
1.5207131
1.5207162
1.5207196
1.520699
1.5207007
1.5207222
1.5207207
1.5207133
1.5207324
1.5207443
1.5208233
1.5207431
1.5207456
1.5208269
1.5207526
1.5207482
1.5208387
1.5208323
1.5209617
1.5210328
1.5210389
1.5209693
1.5210402
1.5209552
1.5209588
1.5210385
1.5207662
1.5207807
1.5208631
1.5208472
1.5209663
1.5209688
1.5210301
1.5210328
1.5210305
1.5209693
1.5209798
1.5210407
1.5207575
1.5207548
1.5208422
1.5208387
1.5224378
1.5224525
1.5222678
1.5223306
1.5226932
1.5224419
1.5225433
1.5225342
1.5224509
1.5222944
1.5223519
1.5222805
1.5223501
1.5224566
1.5224704
1.5224667
1.522455
1.5228041
1.5226306
1.5224359
1.5224392
1.5224542
1.52246
1.522458
1.5224516
1.5224731
1.5224814
1.522154
1.5221925
1.5222225
1.5222159
1.5223382
1.5223281
1.5223494
1.5223684
1.5221503
1.5222526
1.5223744
1.5223989
1.5224735
1.5224823
1.5224961
1.5225054
1.5222932
1.5221661
1.5222247
1.522396
1.5216794
1.5219881
1.5222382
1.5219587
1.5225119
1.5224104
1.5224394
1.5225493
1.522479
1.5223936
1.5221577
1.5222654
1.5226108
1.5225071
1.522518
1.5226264
1.5226388
1.522531
1.5225406
1.5226445
1.5223278
1.5225406
1.5225737
1.522358
1.5225928
1.5225839
1.5223761
1.5223849
1.5205342
1.5225977
1.5212378
1.5212375
1.5212514
1.5212368
1.5212952
1.5212772
1.5214895
1.521381
1.5212058
1.5212132
1.5212026
1.5211948
1.5211848
1.5212013
1.5211947
1.5211854
1.522248
1.5221291
1.5222252
1.5221132
1.5222701
1.5221389
1.5222637
1.5221396
1.5219133
1.5219136
1.5216445
1.52174
1.5220942
1.5220381
1.5221814
1.5220842
1.5216264
1.5214482
1.5212698
1.521324
1.5212461
1.5212238
1.5212152
1.5212182
1.521196
1.5212145
1.5211877
1.5211849
1.5211885
1.5211788
1.52118
1.5211936
1.5220638
1.5220703
1.5220603
1.5220535
1.522095
1.5221255
1.5221092
1.5221077
1.5221123
1.5221104
1.5221082
1.5221067
1.5221063
1.522105
1.5220711
1.522076
1.5220765
1.5220712
1.522102
1.522105
1.522136
1.5221324
1.5221011
1.5221029
1.5221357
1.5221327
1.5221232
1.5221182
1.5221254
1.5221158
1.5221338
1.5221426
1.5221403
1.5221312
1.522118
1.5221132
1.5221196
1.5221115
1.5221271
1.5220848
1.5220972
1.5220989
1.5220866
1.5220855
1.5220937
1.5220809
1.5220718
1.5219985
1.5220138
1.5220864
1.522069
1.5220315
1.5220508
1.5221124
1.5221295
1.5221316
1.5221152
1.5221474
1.5221647
1.5221664
1.5221502
1.5221557
1.5221638
1.5221468
1.5221385
1.5221105
1.5221292
1.5221206
1.522103
1.5215974
1.5216283
1.5216281
1.5215972
1.5215908
1.5215904
1.5216218
1.5216217
1.5216662
1.5216298
1.5216661
1.5216302
1.521624
1.5216601
1.5216235
1.5216605
1.521633
1.5215991
1.5216292
1.5216035
1.52163
1.5216662
1.5216698
1.5216346
1.5216356
1.5216059
1.5216362
1.5216054
1.5216379
1.5216735
1.5216379
1.5216729
1.5216964
1.521667
1.5216928
1.5216714
1.5217306
1.5216938
1.5216979
1.5217329
1.5216751
1.5217002
1.5216752
1.5217006
1.5217369
1.5217021
1.5217022
1.5217366
1.5216676
1.5216937
1.5216942
1.5216683
1.521731
1.5216958
1.5216952
1.5217303
1.5216624
1.5216625
1.521689
1.5216888
1.5217266
1.521691
1.5217267
1.5216906
1.521686
1.5217106
1.5217139
1.5216901
1.5216964
1.521696
1.5217198
1.5217198
1.5217482
1.5217115
1.5217459
1.5217153
1.5217217
1.5217536
1.5217211
1.5217533
1.5216431
1.5216702
1.5216756
1.5216496
1.5217115
1.5216933
1.521716
1.5217297
1.521708
1.5216715
1.5217031
1.5216779
1.5217324
1.5217542
1.521718
1.521744
1.5216538
1.5216221
1.5216506
1.5216259
1.5216512
1.5216853
1.5216885
1.5216554
1.5216596
1.5216312
1.5216596
1.5216315
1.5216611
1.5216943
1.5216618
1.5216941
1.5217045
1.5217275
1.5217322
1.5217103
1.5217461
1.5217649
1.5217567
1.5217724
1.5217641
1.5217289
1.5217605
1.5217341
1.5217747
1.5217983
1.5217668
1.5217931
1.5215893
1.5215598
1.5215874
1.5215627
1.5215843
1.5216219
1.5216242
1.5215868
1.5215942
1.5215685
1.5215951
1.5215678
1.521592
1.5216298
1.5215921
1.521629
1.5215128
1.5215409
1.5215426
1.5215155
1.521522
1.5215495
1.5215472
1.5215204
1.5215326
1.5215663
1.521568
1.5215355
1.5215418
1.5215744
1.5215725
1.5215407
1.521536
1.5215628
1.5215692
1.5215439
1.5216275
1.5215993
1.521622
1.5216461
1.5215558
1.5215873
1.5215934
1.5215636
1.5216446
1.5216174
1.5216437
1.5216662
1.521582
1.5216081
1.5216139
1.5215894
1.5216656
1.5216404
1.5216622
1.5216831
1.5216417
1.521647
1.5216058
1.5216124
1.5216841
1.5216611
1.5216911
1.5217085
1.5215648
1.5215333
1.5215622
1.5215367
1.5215591
1.521599
1.521602
1.5215622
1.5215367
1.5215649
1.5215385
1.5215669
1.5215639
1.5216044
1.5215627
1.5216028
1.5214802
1.5215097
1.5215096
1.5214809
1.5214761
1.5215048
1.521503
1.5214749
1.521536
1.5215011
1.5215364
1.5215017
1.5215292
1.5214959
1.5215306
1.5214953
1.5215155
1.5214839
1.5215132
1.5214868
1.5215046
1.5215401
1.5215424
1.5215079
1.5215145
1.5214885
1.5215178
1.5214856
1.5215097
1.5215446
1.5215074
1.5215418
1.5215297
1.5215586
1.5215578
1.5215298
1.5215237
1.5215521
1.5215235
1.5215515
1.5215962
1.5215953
1.5215551
1.5215545
1.5215486
1.5215481
1.5215893
1.5215886
1.5215219
1.5215474
1.5215126
1.5215426
1.5215542
1.5215295
1.5215146
1.5214309
1.5214496
1.5214418
1.5214602
1.5214523
1.521476
1.5214411
1.5214653
1.5213884
1.5214233
1.5214211
1.5213868
1.5213707
1.5213753
1.5214109
1.5214057
1.5214455
1.5214132
1.5214474
1.5214118
1.5213964
1.5214307
1.5214007
1.5214357
1.5215204
1.5214218
1.5213949
1.5214233
1.5214501
1.5214131
1.5214398
1.5214377
1.5214621
1.5214606
1.5214366
1.521426
1.5214511
1.5214219
1.5214467
1.5214822
1.5214813
1.5214522
1.5214515
1.5214375
1.5214413
1.5214723
1.5214681
1.521299
1.5212966
1.5213561
1.5213528
1.5213455
1.5213978
1.5213952
1.5213479
1.5212842
1.5212802
1.5213363
1.5213423
1.5213338
1.521329
1.5213848
1.521379
1.5212346
1.521234
1.5213054
1.5213022
1.5212908
1.5212858
1.5212197
1.5212191
1.5217239
1.5217075
1.5217027
1.5217175
1.5212254
1.5212395
1.5211675
1.5211675
1.5212518
1.5212488
1.5212511
1.5212463
1.5211689
1.5211689
1.5217412
1.5217204
1.5217153
1.5217336
1.5211746
1.5211735
1.5211885
1.5211881
1.5212695
1.5212666
1.5212615
1.5212565
1.5211793
1.521179
1.5217436
1.5217229
1.5217208
1.5217401
1.5211849
1.521194
1.5212631
1.5212611
1.5213262
1.5213289
1.5213201
1.5213187
1.5213785
1.5213767
1.5213169
1.5212555
1.5213231
1.5212516
1.5213743
1.5213149
1.5213099
1.5213682
1.5217441
1.5217281
1.521725
1.5217403
1.5217207
1.5217244
1.5217416
1.5217352
1.5213112
1.5212453
1.5213142
1.5212436
1.5213662
1.5213055
1.5213039
1.5213641
1.5213069
1.521245
1.5213126
1.5212415
1.5213636
1.5213043
1.5213001
1.5213583
1.5213983
1.5213568
1.5213999
1.521356
1.5213892
1.5214313
1.5214301
1.5213888
1.5213507
1.521392
1.5213544
1.5213965
1.5213861
1.5214273
1.5213829
1.5214233
1.521458
1.5214284
1.5214576
1.5214294
1.5214825
1.5214468
1.5214482
1.5214836
1.5214239
1.5214533
1.5214282
1.5214581
1.5214841
1.521448
1.5214439
1.5214795
1.5214089
1.521369
1.5214099
1.5213684
1.5213991
1.5213992
1.5214394
1.5214392
1.5214018
1.5213654
1.5214075
1.5213606
1.5214382
1.5213974
1.5213926
1.521433
1.5214509
1.521421
1.5214516
1.5214209
1.5214782
1.5214411
1.5214413
1.5214779
1.5214145
1.5214441
1.5214173
1.5214474
1.5214735
1.5214371
1.5214349
1.5214707
1.5217284
1.5217302
1.5217476
1.5217429
1.5217322
1.5217363
1.5217523
1.5217466
1.5217258
1.5217297
1.5217491
1.521744
1.521745
1.5217252
1.5217227
1.5217397
1.5214652
1.5214322
1.5214642
1.5214337
1.5214538
1.521493
1.5214945
1.5214562
1.5214313
1.521463
1.5214353
1.5214674
1.5214578
1.5214967
1.5214544
1.5214926
1.5213593
1.5214046
1.521403
1.5213587
1.5213566
1.5213595
1.5214033
1.5213994
1.5214374
1.5213943
1.5214385
1.5213941
1.5213909
1.5214327
1.5213932
1.5214362
1.521408
1.5213637
1.5214087
1.5213635
1.5213984
1.5214426
1.5214425
1.5213991
1.5214042
1.5213641
1.5214098
1.5213595
1.5214002
1.5214446
1.5213959
1.5214394
1.5214286
1.5214606
1.52146
1.5214287
1.5214263
1.5214575
1.5214243
1.5214548
1.5214892
1.5214888
1.5214503
1.5214507
1.5214457
1.5214471
1.5214852
1.5214826
1.5212409
1.5212392
1.5213128
1.5213098
1.5213032
1.5213684
1.5213661
1.5213047
1.5212442
1.5212418
1.5213093
1.5213143
1.5213064
1.5213033
1.5213684
1.5213636
1.5213148
1.5212457
1.5213175
1.5212441
1.5213092
1.521373
1.5213712
1.521308
1.521309
1.5212419
1.5213151
1.5212382
1.5213077
1.5213724
1.5213031
1.5213661
1.5211643
1.5211641
1.5212522
1.5212492
1.5212475
1.5212423
1.5211585
1.5211584
1.5217259
1.5217293
1.5217522
1.5217473
1.5211695
1.5211633
1.5211594
1.5211595
1.5212471
1.5212439
1.5212502
1.5212458
1.5211652
1.5211659
1.5217469
1.5217247
1.5217205
1.52174
1.5211704
1.5211645
1.5217497
1.5217308
1.5217274
1.5217448
1.5217244
1.5217274
1.5217457
1.52174
1.5212342
1.5212372
1.521314
1.5213152
1.521415
1.5214335
1.5213582
1.5213731
1.5217525
1.521734
1.5217417
1.5217566
1.5213708
1.5212393
1.5211947
1.5211951
1.5212818
1.5212788
1.5212891
1.5212848
1.5212038
1.5212046
1.5217631
1.5217422
1.5217384
1.5217578
1.5212078
1.5211993
1.5212764
1.521275
1.5213449
1.5213476
1.5213402
1.5213394
1.5214028
1.521401
1.5213499
1.5212847
1.5213549
1.5212822
1.52141
1.5213487
1.5213453
1.5214051
1.5217599
1.521742
1.5217378
1.5217542
1.5217416
1.5217331
1.5217478
1.5217524
1.5213781
1.5213094
1.5213756
1.5213133
1.5214277
1.5213695
1.5213744
1.5214313
1.5214847
1.5214092
1.5214606
1.5214355
1.5215024
1.5214555
1.5214852
1.5215284
1.5217511
1.5217285
1.5217255
1.521746
1.5217509
1.5217325
1.5217299
1.5217462
1.52173
1.5217319
1.5217498
1.5217451
1.5217479
1.5217271
1.521725
1.521743
1.5217376
1.52173
1.521744
1.5217488
1.5217349
1.5217406
1.5217587
1.5217513
1.5217592
1.5217394
1.5217341
1.5217528
1.521746
1.5217291
1.521738
1.5217512
1.5214674
1.5214212
1.5214629
1.5214269
1.5214549
1.5214949
1.5215001
1.5214615
1.5215282
1.5215588
1.5214977
1.5215321
1.5215266
1.5215599
1.5215574
1.5215863
1.5215225
1.5214871
1.5215166
1.5214943
1.521543
1.5215083
1.521516
1.5215493
1.5215849
1.521606
1.5215548
1.5215798
1.5216037
1.5215742
1.5216041
1.5216288