/*--------------------------------*- C++ -*----------------------------------*\
  =========                 |
  \\      /  F ield         | OpenFOAM: The Open Source CFD Toolbox
   \\    /   O peration     | Website:  https://openfoam.org
    \\  /    A nd           | Version:  7
     \\/     M anipulation  |
\*---------------------------------------------------------------------------*/
FoamFile
{
    version     2.0;
    format      ascii;
    class       volScalarField;
    location    "3000";
    object      omega;
}
// * * * * * * * * * * * * * * * * * * * * * * * * * * * * * * * * * * * * * //

dimensions      [0 0 -1 0 0 0 0];

internalField   nonuniform List<scalar> 
33730
(
2135.7596
768.71381
4530.9193
3995.4688
1817.0473
7708.3768
731.32434
3939.6476
720.2304
593.74871
661.38342
772.13314
2023.9907
759.47207
1179.1576
1180.7239
9421.8137
9483.9768
1904.1462
4475.756
19395.155
7476.0841
7615.9756
1800.1319
1803.6433
13460.568
13018.899
4324.9073
4438.6307
7260.07
7612.6094
1728.6521
1797.4832
669.23512
591.61883
600.98057
655.39543
1292.5272
1473.041
1286.5703
1466.256
481.38926
1795.6821
1795.7822
1813.2609
401.56929
409.68169
2014.0395
2020.8167
4917.6264
5027.3501
1937.8301
2010.6913
592.50891
583.29843
1927.1099
1976.3892
587.85996
1969.1866
1941.8489
587.71551
4479.8496
4569.8834
18978.214
18676.418
4572.957
4525.0246
19048.245
19081.068
2063.8935
3433.5443
3434.4971
6624.2619
6679.2497
13309.026
13276.593
33749.899
34178.787
4227.5709
12847.927
12910.923
4330.0471
12969.351
13315.349
4321.9803
4417.0959
21900.747
22265.757
8145.2964
8336.767
21020.889
21622.691
7980.1445
8041.1986
12235.492
12791.933
4071.3216
4188.9553
13102.923
4289.4552
13164.052
4377.251
2935.329
3248.9691
1053.7871
903.60806
1815.1337
1820.5658
1798.8451
1803.0247
1419.7311
1262.9135
1293.9305
1468.591
1476.1954
1304.8974
1311.5612
489.27907
1485.4851
405.69648
1741.5319
1727.6776
1785.2802
1810.8086
3021.0317
2991.0582
3315.9253
1043.9763
3383.7339
4036.1644
3964.7561
4243.8078
4140.3896
3035.3088
2978.6995
3394.0389
3312.1697
1045.4868
4025.3379
3957.8361
4126.5079
4228.3672
881.2632
887.45525
4755.3041
4670.3164
4841.9284
4631.5031
4824.7856
4726.4243
4754.8047
5225.8506
4748.7262
5109.9405
4625.4973
5168.4163
274.54301
333.44842
584.75554
717.85657
717.92063
577.7767
596.36371
733.58669
4924.0156
4822.3903
5035.6728
4932.1611
8880.3231
8958.3639
9056.6825
9291.3611
4638.0266
4787.5115
4885.5704
4983.8717
464.20639
463.81232
612.98102
599.21116
2091.9772
2146.9348
608.22452
2136.6035
2107.9683
604.63626
3430.479
3459.2499
6622.0878
6624.4229
6748.0067
3505.3965
3543.1673
6736.3152
13218.364
13163.081
33064.002
32990.946
13033.604
13017.529
32171.47
32682.064
3494.3537
3556.4752
6802.3979
6723.2
3503.379
3463.433
6713.8612
6685.8993
13173.012
33180.372
33197.717
13273.486
13270.228
13315.191
33017.013
33299.319
2130.7287
3943.2484
3945.1792
7284.3565
7342.6733
12505.475
12702.902
18820.885
19085.905
12535.155
12555.702
19038.786
18847.788
30295.929
48360.915
30909.553
49219.462
30923.281
30566.659
49361.21
49438.638
7895.2113
21028.29
21349.344
7918.0761
21244.602
21127.972
7916.7277
8014.6559
21093.262
21472.764
8014.0995
8016.315
22019.689
21831.099
8170.1274
8303.597
39656.077
38926.122
11915.283
11974.81
39790.48
40053.743
12149.725
12169.036
37980.738
37045.99
11577.806
11622.133
11759.166
38968.24
38690.634
11768.53
19693.195
20456.925
7475.2162
7567.8963
7759.5879
20998.914
21205.636
7901.1991
21422.613
21677.322
8026.1783
8021.7574
8063.1008
21656.768
21563.052
8153.255
2618.9343
6750.766
7216.1802
2508.84
6094.869
5719.6285
7887.2785
7999.2189
8377.2541
2350.5213
2423.795
2007.4703
1826.9708
1866.4916
2074.3854
5252.6346
5138.4614
4645.2842
4762.7544
4537.2621
5139.9356
5011.81
4664.6496
4538.1174
4622.99
4767.0496
4690.8279
4658.9887
4851.0493
4753.3531
4779.9068
3902.5129
3842.7282
3749.3477
4029.1746
3230.2271
2891.3625
3008.7164
2931.0628
3257.2184
1055.2715
3362.3049
3997.2133
4068.1171
3892.7152
4198.5002
901.7265
4155.553
4061.1911
3991.9636
4256.0101
3422.8533
3353.0545
3034.0038
3070.7347
1057.6867
3065.4305
2954.5777
3258.288
1073.9447
3394.7654
901.3949
912.89652
4011.9085
4196.3946
3876.183
4038.3665
274.84758
275.40181
337.52981
602.93599
738.49845
728.71255
588.95161
740.70162
599.74418
4981.7743
4820.8325
4367.065
4521.4856
4464.4379
4528.2854
4371.3841
4600.3995
4789.889
4667.2917
4585.7773
4721.6721
5189.7486
4715.9531
5068.8764
4594.8375
7179.8437
7550.2489
2571.4921
6376.3471
6089.8588
7039.6309
7280.5935
2544.3335
6138.9933
5976.8253
8217.0477
8324.4084
8456.569
8580.1043
2369.9086
2373.3754
8374.6851
8470.8052
8768.7617
8910.2015
9427.6651
9622.2931
9243.1807
9483.8887
9348.4304
9167.5458
9571.777
9405.672
9997.387
9579.977
10214.938
9923.7299
9511.3996
10128.544
9724.6143
7227.8315
7409.8887
2591.0139
6266.6794
6127.8377
7151.2784
7396.7622
2524.1686
6248.552
6067.832
8441.8313
8545.9112
8603.0371
8761.9627
8358.8315
8467.4387
8592.954
8723.2083
2341.9596
2394.0573
9328.4321
9139.6297
9776.2019
9609.6689
9179.0473
8995.0866
9407.9694
9229.0062
9719.4832
9310.1492
9922.5611
9517.6918
9870.6564
9462.3683
10342.285
9940.1776
1831.0861
1778.5009
1979.758
2042.3607
1801.8007
1829.151
2017.7097
2015.2813
10197.068
10374.177
9748.8859
9932.1482
10394.596
9710.1834
10542.425
9863.3443
10259.34
9808.099
10127.215
10276.57
9445.8022
9604.78
10120.99
9679.2916
10594.111
10140.603
9960.9233
9515.5036
10138.025
9696.9134
10298.049
10750.372
9624.2008
10051.694
10112.066
9318.7326
10518.116
9669.2469
9689.0893
8702.8843
10009.793
8972.7709
9929.7972
9140.5336
10058.559
9264.3609
9511.8714
8534.4808
9607.5217
8631.1863
9414.1462
10223.703
10339.235
337.57427
493.96758
394.25658
395.28639
495.82163
855.20737
881.55089
1071.5332
1048.1138
1274.189
1312.2211
1531.1974
1508.1392
1480.008
1254.4864
1296.8759
1538.1339
864.94944
840.25188
1024.2872
1063.2323
901.83429
1089.9536
1107.4609
1536.5886
1325.1462
1345.1372
1575.4922
8825.8755
8925.8896
8815.5166
8831.7995
9111.695
9264.9582
8937.5951
8945.8439
12225.881
12320.365
12480.875
12470.683
12623.669
12722.963
12907.184
12895.607
8317.8609
8459.1242
8658.1964
8825.1866
8959.3275
8939.8254
8999.1255
9090.2311
445.35428
444.26387
415.50017
599.70159
582.64252
2156.13
3931.3638
3966.0799
2211.6899
4024.7067
4052.5506
592.17371
2200.4253
3998.4735
4082.5544
2177.17
3982.1054
4012.2481
590.56698
7280.4665
7280.9739
7418.7153
7399.297
12528.715
12685.321
18602.695
18756.659
12531.452
12537.715
18459.693
18667.334
29722.425
47598.054
30136.322
48191.284
29988.417
48028.547
29583.943
47958.818
12327.334
12504.464
18342.093
18540.037
12374.111
12395.505
18477.169
18307.506
29097.672
29700.635
47134.75
46323.425
47580.821
47631.038
29663.594
29309.257
7478.1413
7378.1808
7384.5624
7346.7143
12506.985
18791.229
18599.249
12516.281
30453.935
30125.289
47754.357
48351.156
30216.354
48187.899
48256.97
29814.835
12725.625
12549.859
18761.181
18934.375
12516.72
12708.091
18663.179
18863.725
12662.345
12690.772
18857.051
18692.15
29849.646
30323.209
48140.808
47557.796
29899.778
48406.344
48352.104
30330.367
3927.0688
3912.8436
2098.9534
4577.4031
4561.8698
6090.3525
6018.3112
10275.248
10215.499
15863.751
15783.932
6129.6614
6088.9699
15723.323
10283.291
10386.477
16047.181
19317.205
19119.162
23719.689
24022.12
24207.07
19465.922
19556.403
24172.07
24138.989
19384.338
24296.94
19520.65
19183.583
19254.616
23949.488
23834.429
28384.61
28041.608
42418.32
43363.079
54000.238
66724.335
67831.833
54435.457
44201.067
28614.401
28521.281
43261.046
67663.55
68613.106
54944.883
54841.415
43306.738
28556.422
28719.5
43785.641
43494.477
28403.456
28184.212
42659.921
54835.699
67569.419
68170.536
55259.139
67336.423
68155.32
55223.979
54956.807
37954.235
37515.386
11569.523
11556.662
38267.364
38669.106
11615.028
11616.797
38483.615
37884.211
11581.118
11619.292
37370.375
38260.942
11607.096
11586.025
37955.489
37329.855
11651.872
11660.427
38341.926
38803.278
11724.805
11704.702
39790.956
39130.494
12110.695
12070.306
38781.881
11937.648
11991.897
39491.661
42159.371
41410.562
42358.843
42644.868
40421.984
39353.724
41453.313
41165.465
10831.23
34673.83
35584.112
10868.854
36840.418
36904.527
11092.79
11095.856
37445.362
38150.657
11375.046
11406.787
11521.389
38362.518
37835.535
11521.733
38758.619
38056.641
11717.234
11744.068
38794.107
39142.974
11755.254
11738.971
38553.44
39189.08
11811.3
11788.157
39009.93
38165.071
11821.466
11787.642
245.11978
5471.3365
5401.6594
5571.9217
5689.8012
19100.313
19173.909
17374.048
17579.183
18687.022
18890.595
20553.378
20587.834
5084.3129
5035.6659
5338.8195
5423.0748
19764.335
18375.786
16323.149
17682.624
16105.214
17866.075
16504.478
15205.164
15398.661
16686.886
17503.325
18984.525
17262.831
19151.554
4574.8242
4528.2855
4759.6982
4847.8105
4916.3591
4799.9002
4875.9917
5041.7296
4101.6702
4023.8791
4186.3858
4308.8651
3599.5623
3471.0374
3569.1352
3742.2827
3662.4969
3609.5319
3753.4792
3840.1473
4324.5889
4213.4197
4288.0979
4440.5422
10229.985
10481.235
9417.6341
9649.853
10026.035
9227.1772
10052.485
9265.8961
9596.7313
8597.2347
9606.8175
8625.4178
9783.5693
8768.5181
9989.8308
8954.1923
9448.5268
9470.287
8467.4819
8507.6439
9897.5974
10071.885
9111.8108
9281.4872
9849.9732
9069.2257
9892.1415
9125.4795
9469.1463
9607.1625
8492.3578
8627.7067
10030.634
9361.1861
10085.078
9441.3183
9858.0402
9923.0126
9416.486
9506.6518
9955.3189
10173.588
9507.4459
9739.6274
10104.187
10305.647
9430.3831
9640.928
10229.579
9540.7559
10273.125
9604.5778
10267.258
10527.322
9809.9659
10088.561
10070.308
9616.0525
10133.011
9695.8943
10433.227
10698.218
9743.1634
10016.724
9106.506
8708.3799
9429.0458
9028.6705
8928.1672
9261.9156
8752.0213
9101.7523
8929.2378
8759.8527
9461.6586
9805.1446
9065.6055
9413.9197
7988.6791
8094.7057
8297.4475
8434.3551
6830.2238
7132.5349
2468.9934
6007.623
5764.5653
7158.8621
7309.5243
2572.6981
6175.9775
6059.1347
7083.4878
7082.8069
2492.9353
5974.4074
6007.8133
8278.5571
8387.546
8236.3612
8380.1203
2321.9937
2384.3489
8360.4207
8465.0633
8489.3433
8640.0152
9330.1045
9145.9367
9483.7205
9337.2313
9817.2501
9406.6514
9763.0211
9388.9452
9254.3245
9073.6273
9207.5207
9061.8429
9882.6352
9471.3588
10051.131
9671.9656
1840.2568
1789.7882
1974.7858
2041.2423
9840.3074
9417.0413
9919.8015
9516.7234
9475.6001
9693.8056
9281.957
9539.4423
9303.1514
9111.3575
9397.8097
9227.7001
10024.546
10268.395
9601.8418
9876.5342
8514.4474
8605.7923
8695.3248
8837.798
8352.9029
8446.964
8455.3452
8576.3796
7168.9163
7294.7362
2587.9429
6112.3888
6179.4319
7310.5233
7501.2865
2623.6381
6359.7498
6225.5152
2416.953
2426.5994
7145.2239
7332.7842
2639.4182
6218.1672
6084.8927
6990.6564
7102.6571
2527.9207
6014.7661
5942.3075
8159.033
8247.4142
8240.0414
8360.9532
2371.8328
2465.8111
8315.8318
8393.6042
8492.6286
8623.2603
2056.2641
1857.7975
1855.5452
2071.1129
1921.9172
1843.0317
2025.8539
2120.3177
9230.8338
9027.3068
9444.7906
9277.2343
9736.5241
9318.5409
9962.5705
9569.0772
9089.3947
8894.6559
9170.3673
9005.8652
9613.2152
9205.2227
9690.0917
9308.834
346.86024
512.74477
405.74277
342.28858
398.8801
501.77763
508.42671
401.68885
1062.3107
876.93176
1091.3397
892.20941
1498.5829
1291.8947
1325.918
1549.8425
1552.3296
1325.098
1317.4793
1557.0221
1082.0774
887.01222
1081.8276
880.58028
1545.5562
1329.9951
1382.5975
1620.8325
1086.7347
891.90148
1128.1002
912.77419
9688.127
8924.0309
9970.1433
9169.8105
9264.9047
8543.983
9513.4599
8752.9722
8895.1383
9084.7792
7995.2463
8151.1974
9281.2877
9506.1103
8326.7822
8519.0034
9306.5246
9623.5526
8881.9977
9183.6234
9869.0941
9217.9172
10187.609
9521.2615
9442.2562
8810.9197
9737.2853
9081.3327
9701.4284
10041.09
9271.9137
9603.9731
10133.135
10310.047
9686.5375
9884.0227
10075.701
10022.223
9627.2914
9607.1275
10255.815
10202.708
9574.6675
9556.3004
10306.88
10481.706
9625.6814
9815.2093
10111.438
9305.8923
10274.629
9464.0065
9668.552
8661.9287
9799.425
8787.2907
10068.256
9257.0695
10020.988
9241.094
9626.0392
9588.1691
8618.1522
8612.7592
20438.327
20475.126
18593.451
18741.117
19290.059
19435.365
21127.619
21127.69
5394.1592
5329.5339
5518.8699
5637.6183
20274.92
19671.302
19673.942
19742.594
17945.345
18123.183
18840.596
18990.072
20712.609
20723.073
5368.4299
5240.0424
5300.6024
5457.7115
19907.008
18906.18
18264.742
18423.868
16862.271
16672.984
17095.151
17253.389
15780.442
15950.993
17575.262
19135.599
17402.624
19246.108
16374.698
17798.984
17932.173
16556.066
4851.6565
4734.6232
4806.0175
4979.2163
4771.7618
4675.6732
4743.4967
4868.4994
17354.129
18891.951
17202.227
19011.52
16221.86
17606.837
17722.655
16361.747
18070.466
19614.201
17901.242
19712.127
16920.139
18330.286
18455.451
17101.627
16944.788
15973.712
16064.118
17009.547
17145.961
17118.658
16180.495
16243.381
15676.819
16525.812
15611.242
16571.605
16749.789
15891.736
16747.768
15848.307
15807.269
16699.858
15764.741
16733.978
16319.03
15429.057
15437.231
16310.828
16368.14
17136.264
16153.405
17325.614
16694.474
15764.517
16875.111
15975.041
16157.124
15493.776
15540.1
16180.87
15302.297
16106.644
16096.471
15345.767
16406.867
16394.461
15752.996
15773.41
15317.797
15982.652
15342.501
15939.09
15179.92
15953.607
15881.748
15137.531
16481.444
15832.847
16300.449
15632.192
15427.452
16228.661
16404.447
15629.175
20603.219
20615.544
18773.774
18899.853
18779.9
18890.571
20503.891
20478.799
5420.8037
5351.1576
5443.9492
5555.3669
19618.828
19784.566
20170.164
20195.412
18406.051
18535.368
19079.296
19268.001
20945.568
20976.024
5362.1927
5293.4037
5440.0095
5539.3935
20131.329
19354.971
19109.815
19193.71
17421.321
17552.927
17945.466
16470.251
16585.906
17861.128
19142.044
19185.58
17625.356
17511.476
17972.102
18017.293
16624.445
16719.85
17247.254
18750.946
17122.574
18844.496
17568.456
16221.352
16313.379
17644.879
17894.781
19400.456
17677.174
19549.747
18100.196
16681.42
18279.786
16910.397
4775.5518
4701.8673
4811.4449
4920.042
4811.9408
4748.2791
4825.6554
4930.7297
15818.829
16662.889
15704.971
16766.304
16227.866
15331.08
15422.836
16308.439
17528.378
16589.873
17387.869
16413.68
16963.071
16037.821
17105.977
16218.301
15442.54
16221.334
15298.837
16359.884
15806.862
15923.634
14930.393
15057.879
15975.17
16801.533
15809.715
16944.268
15379.882
16313.703
16448.396
15549.058
14906.286
15432.095
14797.243
15532.676
15351.887
15439.094
14600.428
14704.326
16021.833
15370.45
15879.84
15208.594
14978.72
15767.469
15906.598
15144.742
15275.546
15853.535
15206.675
15911.1
15018.824
15786.009
15825.88
15083.282
16735.869
16095.121
16583.062
15915.305
15711.158
16516.41
16674.64
15902.478
3584.0603
3546.6019
3696.5978
3760.2251
3556.6335
3501.2556
3646.9564
3734.9366
4225.5775
4109.4021
4196.2693
4337.8009
4271.6423
4158.1732
4202.8306
4347.6634
3559.9474
3536.3485
3681.5203
3747.0049
3580.2858
3549.2558
3684.868
3745.301
4186.7109
4121.3438
4222.1509
4316.2279
4256.9672
4145.8811
4207.0067
4364.6682
15115.981
15756.858
15162.239
15676.138
15992.706
16170.652
15386.299
15578.578
15783.198
15043.15
15703.188
15007.14
16170.659
15251.535
15445.669
15999.435
15605.637
15543.242
14908.587
14926.473
15379.807
14414.948
14389.568
15351.945
15305.983
15810.018
15134.589
15982.292
15599.095
15741.109
14569.584
14717.119
15308.802
15871.764
15266.438
15886.451
15881.524
15142.311
14920.737
14263.631
14364.464
15007.96
15411.415
15277.326
14613.61
14750.191
13856.569
14656.926
13787.436
14758.644
15148.537
14182.38
15038.735
14064.264
15567.672
15610.272
14981.61
15049.39
15625.429
14933.862
15574.394
14857.065
15857.189
16278.367
15666.014
16451.514
16277.571
15517.309
15713.149
16452.157
14653.49
15125.307
14552.815
15210.338
15117.254
14409.145
14516.393
15205.277
15064.459
15507.097
14909.135
15651.751
15484.474
14755.125
15621.047
14913.753
15395.047
14732.341
14819.609
15458.814
16071.752
15377.517
16245.396
15554.164
14279.244
15166.577
14201.213
15252.793
15975.073
15826.294
14773.183
14933.241
14466.19
13694.738
14516.776
13743.468
13980.677
13087.476
13955.053
13056.202
15145.262
15015.22
14175.081
14304.334
14513.758
13556.508
14403.411
13435.907
13281.203
12566.534
13294.216
12588.169
12810.249
12058.006
12119.339
12797.514
13633.296
12878.045
13737.53
12978.935
13168.048
12382.632
13089.963
12327.284
14082.586
14106.931
13359.752
13381.472
13630.88
12772.054
13634.653
12762.935
14315.438
13543.203
13629.628
14403.492
12972.741
13791.227
12893.259
13856.71
13001.084
12989.652
12304.598
12305.366
12522.533
11799.232
12532.98
11767.454
13110.464
12402.366
12466.905
13172.431
11941.123
12629.258
11905.968
12673.067
13266.807
14199.681
14124.556
13224.379
13920.566
14709.178
14643.423
13874.967
14825.273
14005.713
14936.91
326.51014
457.53487
449.67575
764.30491
571.07369
569.22494
757.74926
740.04044
762.30529
554.24854
567.64288
786.2522
585.6449
1103.972
1090.1795
1328.4161
1346.5213
1144.7295
1171.5985
1419.6339
1395.9498
1725.1454
1762.8132
2021.4016
2001.6251
1929.3558
1657.1987
1668.0557
1951.4717
2299.3592
2287.7195
2517.228
2545.0152
2350.7123
2374.666
2588.0167
2587.4174
2974.1277
2974.2249
3149.937
3177.4645
3113.3015
2918.6136
2933.4427
3147.4279
3082.9529
2900.8932
2923.3124
3139.4357
2496.677
2264.4582
2272.4278
2524.8896
2362.7816
2308.1595
2539.227
2604.0318
3129.9852
2940.1868
2986.2555
3187.1699
1118.1429
1103.7357
1343.9461
1385.6045
1069.0738
1067.7989
1304.444
1312.7474
1906.4106
1629.4468
1630.0608
1919.676
1949.3139
1673.802
1719.5177
2010.3407
1150.1699
1162.2162
1407.0369
1410.4264
1994.2221
1737.7923
1740.888
2016.2768
2029.5269
1762.3643
1803.3177
2095.305
3081.1875
2922.6304
2970.4084
3171.3165
2544.044
2337.0257
2357.9912
2590.9168
2447.5221
2394.0879
2612.2095
2682.6306
3194.6681
3009.3264
3064.0814
3263.1054
12275.177
12346.227
12322.539
12254.969
12244.308
12264.167
12342.407
12318.835
12654.967
12743.095
12876.593
12789.336
12317.301
12361.088
12450.538
12400.512
11432.703
11513.435
11770.72
11752.976
12046.531
12113.984
12229.695
12205.22
12399.287
12469.943
12485.547
12438.191
12491.859
12540.939
12553.752
12473.739
420.90596
605.19497
625.65674
419.56743
612.91405
618.19017
377.56974
616.88232
610.35415
584.4313
593.039
2121.5922
3956.8677
3908.6959
4561.2518
4593.6421
2172.5415
4045.8893
4001.5307
4661.6634
4696.1141
4071.9612
3967.4039
2161.3202
4730.6003
4613.4641
4003.1805
3954.192
2146.5572
4615.1921
4659.2233
6110.9831
6028.426
10227.969
10187.571
15642.452
15563.667
6088.8091
6032.1977
10157.966
10291.953
15489.935
15801.182
6207.2818
6161.3249
10350.443
10442.756
15736.621
15993.603
6212.8778
6154.5821
10389.538
10303.296
15819.6
15701.813
19152.556
18995.817
23382.89
23625.92
19298.877
19235.167
23702.218
23638.28
18878.508
18959.672
23306.433
23249.2
19241.382
19133.568
23584.107
23703.554
27782.765
27508.713
42154.25
43104.607
53641.375
66074.805
66918.97
53858.622
27746.532
27878.818
43477.887
43205.956
67079.675
67303.416
54212.513
54061.845
27754.399
27836.811
43232.337
43091.604
66858.664
66929.974
54095.196
54049.995
42785.214
27457.777
27317.707
42054.649
53928.73
66732.422
66266.912
53708.121
18867.512
18718.337
23079.896
23321.837
19079.306
19021.817
23463.992
23402.055
19037.071
18931.479
23359.301
23491.407
18724.784
23135.567
18811.237
23107.717
27474.164
27202.914
42455.101
41415.324
27502.669
27623.332
42665.874
42855.697
66736.429
53146.023
53065.234
66400.697
66402.79
65567.098
51959.721
52356.584
66636.249
66929.796
53766.342
53565.441
53725.568
66416.542
66386.276
53415.387
27636.195
27515.828
42842.639
42518.682
27202.394
27273.669
41974.396
42031.996
6282.7611
6213.9707
10438.449
10487.901
15965.616
15900.712
6162.461
6106.3094
10400.754
10281.502
15719.308
16043.31
6173.3477
6114.3812
10440.051
10329.257
16072.788
15789.692
6168.3757
6112.105
10348.788
15692.112
15815.854
10246.763
19218.15
19352.784
23953.235
23785.934
23546.105
18963.473
19062.599
23519.462
28191.154
28081.922
43251.796
43382.457
42533.014
27805.438
28095.582
43302.058
53452.939
66297.189
66842.378
53936.297
54373.719
67071.939
67139.659
54274.342
28026.885
28196.538
43373.948
42895.313
54209.325
66595.142
67294.32
54377.556
54164.889
67002.276
67022.838
53855.582
27820.79
27749.022
42350.88
42542.798
23624.849
19140.083
19319.508
23887.163
23964.498
19399.605
19477.577
23911.299
19214.701
19024.925
23451.101
23744.308
19333.994
19417.439
23839.913
23805.214
23783.005
19312.245
19432.456
23920.387
19204.92
19120.894
23582.043
23530.519
42227.807
27585.298
27912.399
43080.447
27920.372
27999.883
43204.247
43288.151
67102.934
54315.185
54082.08
66865.314
53294.454
66117.008
66836.385
53684.309
27734.355
27612.652
42504.72
42908.154
67129.949
67326.732
54487.853
54360.863
54657.92
66714.395
66523.598
54301.684
28061.283
27941.16
43524.705
43214.66
6874.9368
6947.0064
6964.6873
7010.2981
1911.635
4988.4556
4952.4535
4436.7343
4431.4512
6912.305
7992.5385
7924.2866
6978.6163
7819.0348
7907.2845
6917.5863
6826.6564
1907.5762
4964.5921
11188.559
16815.008
11124.044
16604.528
22014.673
21718.715
21523.283
21573.3
21396.59
16660.335
21783.91
11197.168
16882.483
11308.625
21816.092
21903.218
25618.951
25997.465
26140.879
26054.311
26040.568
26267.365
25882.419
25707.311
30371.09
29979.945
59028.174
59663.17
59198.57
100099.39
100283.88
59719.246
60836.071
30589.32
30414.463
59303.797
100062.94
100816.28
59998.507
59771.375
59723.929
30470.682
30676.983
60012.922
59910.004
30355.232
30057.038
58639.632
59757.748
100386.04
100547.21
60033.329
100082.86
100624.95
59969.65
59534.999
240.70472
322.09458
40375.168
39910.191
40711.501
41146.946
40981.914
40293.75
39786.901
40779.008
40305.718
39659.971
40740.066
41214.267
42346.16
41645.725
41213.556
41958.705
75569.083
37151.071
74594.701
36514.281
75097.765
37617.434
75836.683
37807.511
73924.443
35532.794
72357.307
34589.083
74981.43
36549.718
74444.603
36307.315
36724.639
37780.807
39134.071
39192.558
39736.453
40532.47
40784.586
40243.121
41151.865
40377.692
41167.618
41519.066
40943.877
41644.436
41518.365
40580.869
18270.8
17208.176
17354.038
18468.451
29162.86
35454.749
25498.715
26046.891
25703.414
26212.112
27885.011
28034.143
27753.421
27932.616
17030.303
16109.316
17153.882
18226.148
29844.54
29645.384
35986.769
36269.292
27286.551
26173.669
32102.291
33467.559
27237.73
26177.622
26745.335
26683.867
27371.237
27998.178
28474.668
27863.388
29114.478
28414.625
29021.487
28534.475
29684.296
15224.902
14329.201
15078.137
16119.845
15232.541
15155.597
16182.744
16287.205
15364.161
14463.483
10827.214
11755.831
13570.274
12661.437
13436.164
12517.981
12995.291
14044.623
11602.141
10663.582
10917.215
11958.172
11125.316
11060.393
12089.726
12142.565
14139.251
13109.968
13159.023
14194.161
14629.658
13837.559
13892.43
14694.073
15040.423
14994.738
14156.065
14215.422
13205.324
14085.488
13169.779
14119.311
14425.612
13487.099
14386.99
13425.318
13483.185
14292.625
13540.808
14219.188
13809.698
12916.947
12863.473
13730.746
13589.132
14308.905
13537.187
14355.521
13782.607
12888.223
13816.412
12942.775
12383.626
13148.03
12432.453
13076.013
11868.655
12655.308
12596.399
11854.915
13138.895
12437.35
13100.386
12391.435
11884.079
12612.376
12639.284
11901.904
13383.027
12656.375
12681.835
13403.28
12114.218
12894.593
12875.317
12169.23
13623.951
13667.251
12868.193
12919.693
12304.317
13104.552
12314.228
13078.806
13014.892
12309.694
12251.636
12933.237
13028.159
12957.422
12259.173
12333.224
11744.617
12545.792
11769.456
12469.206
12541.037
11812.986
12489.519
11773.409
14124.965
13376.57
13425.161
14181.807
14263.113
14250.023
13487.044
13526.313
12791.779
13640.4
12763.404
13662.423
13749.4
12891.165
13730.382
12842.295
13318.391
14099.604
13362.302
14046.9
13644.552
12767.389
12715.787
13568.745
13454.625
14129.133
13366.298
14213.456
13617.618
12737.373
13688.163
12826.706
12990.157
12286.66
12303.728
12998.124
13051.595
12343.407
13081.816
12387.564
11800.804
12512.633
11761.157
12517.95
12576.095
11826.539
12555.17
11808.443
14318.481
14955.333
14297.401
14948.398
14715.359
13808.486
13807.5
14727.248
14540.959
15053.749
14414.457
15186.917
14851.481
13882.586
14947.207
13999.49
15143.102
14561.544
14581.404
15136.625
15226.736
14650.534
14822.821
15385.805
15143.053
14426.54
14448.456
15135.933
15231.654
14525.786
14688.234
15380.887
15299.366
14703.934
14799.294
15375.406
15508.526
15477.455
14885.408
14948.028
15276.257
14554.441
14652.624
15354.931
15478.561
15450.689
14728.816
14791.805
15071.055
14408.638
14512.466
15155.261
15263.403
15237.286
14574.539
14617.726
13869.695
13959.501
14819.801
14919.751
14978.32
14977.746
14010.453
14052.619
14496.702
15182.756
14515.976
15133.816
14925.004
14008.247
13975.844
14900.076
15361.124
14711.868
15270.553
14616.071
15043.034
14064.37
15111.883
14144.861
15823.468
15218.743
15258.779
15840.905
16170.984
15575.823
15690.492
16268.664
15134.838
15814.193
15075.771
15840.656
15552.956
16195.078
15450.303
16276.191
14770.02
15400.142
14809.696
15336.994
15386.103
14658.739
14632.164
15324.462
15026.038
15493.695
14901.018
15611.727
15475.889
14750.561
15576.216
14870.186
15615.194
14942.401
15027.149
15669.298
16010.419
15331.542
16079.687
15414.144
14381.163
14469.972
15379.124
15469.967
15840.095
15791.964
14749.44
14830.256
13855.029
13799.996
14458.803
14298.03
13577.351
13632.684
14338.866
15244.526
14613.638
15096.839
14445
14968.58
14199.233
15130.435
14379.717
16033.593
15106.58
15149.816
16064.228
16612.656
16480.483
15546.395
15705.238
14767.788
15615.982
14746.768
15627.835
16199.109
15340.91
16061.768
15176.068
14034.485
15208.257
16143.851
15535.843
14631.281
15668.11
14794.872
15250.512
14624.085
14629.119
15242.871
15685.025
15049.861
15832.005
15214.291
14433.939
14435.927
15183.512
15165.761
15767.239
15615.695
14850.558
15022.57
18118.024
18187.499
16517.503
16609.115
16982.176
15600.108
15668.985
16926.348
18614.738
18713.561
17144.714
16986.58
17394.844
17520.307
16045.932
16210.788
19518.676
19542.687
17804.895
17905.348
18302.733
18435.672
20029.461
20042.131
5101.7289
5032.0355
5209.6928
5316.0345
19200.546
18725.72
20503.593
20520.354
18681.545
18775.541
18556.833
18669.897
20272.823
20268.234
5364.8016
5297.3509
5367.1561
5477.7507
19425.078
19711.177
19936.246
19935.787
18240.051
18297.388
18161.388
18325.749
19869.615
19909.234
5310.1159
5240.3035
5206.1299
5305.3586
19059.564
19093.19
18586.595
18607.301
17031.456
16994.606
17433.231
17427.833
16102.788
16111.977
17064.668
18482.402
16878.476
18621.984
15967.225
17294.018
17452.471
16160.012
4733.7668
4654.2399
4615.8236
4719.4415
4747.7725
4710.1635
4783.125
4863.9763
17393.925
18993.416
17307.935
19056.047
16334.501
17724.35
17778.062
16412.008
17383.208
18881.16
17258.774
18953.769
16345.555
17682.325
17761.118
16465.086
15879.173
16783.444
15818.587
16831.127
16348.525
15442.305
15490.943
16382.282
16876.463
15975.917
16802.775
15875.896
16410.046
15530.749
16469.498
15620.143
15138.65
15836.364
15199.388
15757.377
15022.555
15791.754
15696.504
14955.85
15806.484
15193.911
15647.438
15017.576
14837.946
15590.016
15752.195
15019.114
15617.053
16563.644
15637.636
16532.626
16176.538
16118.869
15296.891
15258.126
15665.828
16409.755
15486.241
16574.4
15133.264
16004.625
16163.567
15315.591
15347.861
15969.267
15312.409
15990.957
15110.544
15894.413
15908.125
15150.087
16112.811
15498.601
16060.295
15424.291
15241.463
16008.435
16049.18
15311.962
3558.4806
3554.4774
3689.2621
3723.9279
3455.5085
3488.6343
3629.1338
3618.2071
4045.5469
4077.9881
4188.3993
4175.599
4244.8008
4138.5556
4154.1095
4294.1249
15049.749
15720.556
15074.57
15684.075
15641.166
14863.028
14832.328
15584.237
15982.549
15341.216
15852.124
15194.456
15753.703
14969.257
15878.152
15114.505
16940.944
15974.431
16046.91
16992.459
17281.65
17170.025
16226.239
16368.104
15653.907
16511.292
15599.589
16549.706
16882.966
16014.389
16778.634
15877.619
15605.124
16521.138
15580.448
16536.66
16098.371
15204.19
15208.675
16088.445
15927.97
16732.628
15761.719
16879.467
16269.016
15353.173
16405.869
15514.447
16131.009
15474.232
15516.16
16154.617
16424.946
15778.259
16527.469
15903.688
15270.879
15313.117
16061.508
16078.902
16479.348
16383.071
15597.796
15724.936
19101.787
19167.095
17437.202
17539.133
17932.249
16482.524
16572.784
17868.765
19251.529
19343.108
17771.621
17612.919
18056.616
18169.644
16695.381
16853.306
17080.037
18608.617
16996.225
18670.328
17422.703
16073.638
16131.401
17468.56
17475.856
18989.845
17301.63
19109.882
17704.317
16305.737
17845.605
16488.484
19994.057
20015.129
18268.058
18363.721
18681.918
18836.238
20491.97
20517.165
5416.2872
5367.9286
5424.0454
5503.2309
19186.682
19686.75
20556.564
20570.008
18768.398
18871.506
18904.925
19044.029
20639.133
20645.019
5516.4609
5447.86
5527.9478
5640.8151
19780.019
19739.55
4864.7933
4807.5237
4827.4772
4919.4631
4886.3007
4840.2704
4917.8561
5006.297
20341.203
20379.396
18489.082
18636.212
18562.157
18690.145
20343.726
20338.502
5420.0641
5385.6979
5469.9558
5548.1366
19526.555
19579.865
19842.185
19867.056
18066.512
18186.147
18229.693
18404.966
20004.275
20034.761
5276.6096
5234.9018
5291.5743
5365.0093
19208.013
19056.679
18391.477
18476.648
16870.654
16753.521
17169.694
17246.505
15808.065
15907.584
17095.074
18542.642
16891.223
18686.626
15934.406
17299.652
17467.489
16145.987
4747.4046
4699.4085
4734.8942
4816.9422
4897.8721
4839.7326
4886.8596
4984.3944
17245.612
18790.911
17092.263
18909.468
16092.855
17495.321
17617.183
16244.357
17355.061
18875.696
17213.339
18955.069
16255.938
17624.784
17714.991
16392.982
4343.1463
4254.7108
4250.0268
4372.2553
3795.2635
3658.9638
3634.0435
3800.3606
3642.2841
3625.9833
3775.7196
3819.3657
4358.8856
4244.2262
4268.5047
4416.2471
3762.9899
3727.3112
3848.3614
3908.6267
3614.0211
3590.8366
3713.7286
3760.8111
4248.3891
4158.377
4189.4857
4301.1327
4381.8673
4300.27
4339.8756
4454.0619
15679.369
16521.948
15546.097
16643.465
16053.37
15140.966
15257.207
16158.455
16777.775
15849.345
16693.258
15736.434
16243.788
15338.429
16308.011
15435.378
15083.954
15645.816
14985.58
15733.08
14769.66
15547.081
15621.294
14868.411
15889.427
15256.858
15837.404
15180.478