/*--------------------------------*- C++ -*----------------------------------*\
  =========                 |
  \\      /  F ield         | OpenFOAM: The Open Source CFD Toolbox
   \\    /   O peration     | Website:  https://openfoam.org
    \\  /    A nd           | Version:  7
     \\/     M anipulation  |
\*---------------------------------------------------------------------------*/
FoamFile
{
    version     2.0;
    format      ascii;
    class       volScalarField;
    location    "9000";
    object      k;
}
// * * * * * * * * * * * * * * * * * * * * * * * * * * * * * * * * * * * * * //

dimensions      [0 2 -2 0 0 0 0];

internalField   nonuniform List<scalar> 
34377
(
1.5235412
1.519882
1.5232587
1.5232179
1.5242236
1.5217491
1.5241416
1.5250413
1.5239174
1.5240312
1.5192977
1.5200168
1.5196401
1.5190657
1.5202528
1.5212282
1.5234656
1.5226767
1.5231044
1.52375
1.5230572
1.5225783
1.5233313
1.5236865
1.5228809
1.5203447
1.5222733
1.5244716
1.5241159
1.5239464
1.5238221
1.5252006
1.5253516
1.525727
1.5255755
1.5252354
1.5240097
1.5231743
1.5235978
1.5216452
1.5222929
1.5233334
1.5236503
1.5195541
1.5194225
1.5192094
1.519082
1.5190762
1.5204854
1.5196246
1.5199625
1.5196491
1.5196524
1.5196274
1.5195974
1.5196914
1.5189421
1.5186318
1.519508
1.5196701
1.5203306
1.5197413
1.5205455
1.5208209
1.5203442
1.5212747
1.5216195
1.5221413
1.5225061
1.522818
1.5230729
1.5233142
1.5226873
1.5227198
1.5233318
1.5226963
1.5232905
1.5226265
1.5232506
1.5224412
1.5229771
1.5219692
1.5226516
1.5205412
1.5195782
1.5200663
1.5208622
1.5217357
1.5211719
1.5217669
1.5223311
1.5247523
1.5256069
1.5258264
1.5255294
1.5253153
1.5234039
1.5236755
1.5235713
1.5232722
1.5233555
1.5233121
1.5235862
1.5236138
1.5240428
1.5235596
1.523543
1.5231299
1.5231744
1.5239289
1.5238728
1.5237361
1.5258789
1.5253892
1.5257195
1.5255047
1.5236141
1.5235188
1.523089
1.5232369
1.5225107
1.5228989
1.523181
1.5231336
1.5205908
1.5202497
1.5209321
1.521337
1.5229845
1.5226931
1.5232184
1.5232005
1.5195945
1.5193394
1.519564
1.5194371
1.5191826
1.5190936
1.5192272
1.5193458
1.5189266
1.5189712
1.5197355
1.519684
1.5207296
1.5206745
1.5195995
1.5196372
1.519637
1.5196879
1.5194566
1.520003
1.5205151
1.519339
1.519866
1.5199048
1.5194492
1.5196528
1.5196169
1.5195912
1.5196955
1.5195567
1.5191428
1.5185735
1.5191447
1.5183961
1.5190244
1.518443
1.5191732
1.5192053
1.5193403
1.5193882
1.5196216
1.5197034
1.5196592
1.5196637
1.5197377
1.5196701
1.5197716
1.5204283
1.5206757
1.519736
1.5197406
1.519763
1.5197701
1.5198021
1.5197967
1.5207354
1.5207528
1.5202852
1.5206425
1.5210561
1.5208098
1.5199832
1.520048
1.5204264
1.5204828
1.5216392
1.5219148
1.5224738
1.5222867
1.5220825
1.5221345
1.5227445
1.5227116
1.5222471
1.5222524
1.5229293
1.5229105
1.5222704
1.5222878
1.5229479
1.5229464
1.5229248
1.5222905
1.5222428
1.522914
1.5221915
1.5221664
1.522844
1.5228694
1.5220974
1.5220152
1.5226891
1.5226432
1.5223388
1.5217663
1.5213573
1.52209
1.5195785
1.5199137
1.519644
1.5191267
1.5197745
1.5198342
1.5201978
1.5201561
1.5210612
1.5209145
1.520527
1.5206977
1.5218109
1.5200986
1.5199598
1.5202588
1.5213273
1.5203872
1.5203374
1.5206398
1.5203298
1.5200073
1.5206321
1.5209812
1.5210421
1.5213443
1.5210821
1.5259715
1.5256371
1.5258198
1.5261583
1.522892
1.522601
1.5227516
1.5230043
1.5231059
1.5230918
1.5232198
1.5232328
1.5231293
1.5230609
1.5230698
1.5231385
1.5226746
1.5228848
1.5226102
1.5229276
1.5226994
1.5229074
1.5226568
1.5229368
1.5229702
1.5227526
1.5227475
1.5229777
1.5233822
1.5231253
1.5231226
1.5231384
1.5236235
1.5231397
1.5230755
1.5230706
1.5231159
1.5231201
1.5235629
1.5233156
1.523077
1.5229823
1.5230281
1.5230326
1.5230321
1.5230748
1.5230487
1.5230923
1.5235811
1.5228524
1.5228488
1.5228241
1.5227929
1.5224347
1.5235389
1.5239918
1.523362
1.5233778
1.523581
1.5235432
1.5235391
1.5235565
1.5231931
1.5231509
1.5230664
1.5230182
1.5230978
1.5230535
1.5230273
1.5229796
1.522357
1.5227821
1.5228233
1.5224465
1.5223861
1.5227991
1.5229056
1.5225553
1.5219681
1.522265
1.5226078
1.5225539
1.522829
1.5228127
1.522769
1.5227401
1.5200255
1.5200689
1.519503
1.5198101
1.520276
1.5203334
1.5209311
1.520632
1.5226188
1.522656
1.52218
1.5223979
1.5228464
1.5228471
1.5228109
1.52283
1.5200864
1.5195263
1.5195689
1.5195666
1.5196129
1.5196527
1.5189651
1.5192739
1.5193726
1.5197286
1.5197181
1.5197616
1.5197458
1.5196862
1.519667
1.5197227
1.5196941
1.5199177
1.5199055
1.5208236
1.5208733
1.5207912
1.520763
1.5198885
1.5198557
1.5196471
1.5196933
1.5194737
1.5194268
1.5195572
1.5194875
1.5194633
1.5204502
1.51975
1.5207167
1.519679
1.5206362
1.5192796
1.5198057
1.5198451
1.5193866
1.5196502
1.5196644
1.5197156
1.5196018
1.5195829
1.519694
1.5197505
1.5197448
1.5195589
1.5191168
1.5185896
1.5191121
1.5182808
1.518394
1.5186817
1.5187479
1.5190127
1.5190303
1.5190734
1.5190742
1.5181707
1.5187724
1.5183256
1.5190002
1.5190122
1.5190859
1.5192098
1.5192882
1.5191718
1.5191947
1.5192157
1.5192018
1.5192731
1.5193056
1.5193523
1.5193533
1.5191722
1.5192073
1.5193751
1.5194289
1.5193621
1.5195256
1.5192632
1.5197348
1.519675
1.5197454
1.5196618
1.5197118
1.5196535
1.5197396
1.5197647
1.519772
1.5197855
1.5197973
1.5204346
1.5206774
1.5197306
1.519872
1.5207665
1.5208046
1.5199216
1.5199428
1.5197677
1.5197755
1.5197949
1.5197973
1.5198159
1.5198203
1.5197912
1.5197845
1.5198156
1.5198054
1.5199509
1.5208423
1.5199667
1.520848
1.5199629
1.5199532
1.5208582
1.5208649
1.5200131
1.5200595
1.5204106
1.5203699
1.5202614
1.5206717
1.5205249
1.5208254
1.5197784
1.5198084
1.5200548
1.5200793
1.5201209
1.5198345
1.519863
1.5201381
1.5211214
1.5209195
1.5219389
1.5220613
1.5213222
1.52125
1.5222529
1.5222811
1.5213867
1.5213774
1.5224589
1.5224797
1.5214528
1.5214105
1.5225097
1.5225212
1.5214955
1.5215032
1.5226491
1.5226632
1.5214845
1.52147
1.5226719
1.5226753
1.5226898
1.5214992
1.5214911
1.5226927
1.521554
1.5215139
1.522694
1.5226964
1.5215248
1.521565
1.5226916
1.5226894
1.5214588
1.5214578
1.5226654
1.5226621
1.5214145
1.5226175
1.521392
1.5226125
1.5225864
1.5213784
1.5213992
1.5225794
1.5213545
1.5214019
1.5224917
1.5224819
1.522432
1.5212867
1.5212635
1.5224085
1.5210215
1.5211506
1.522165
1.5221225
1.5204395
1.5207575
1.5218569
1.5217134
1.5194204
1.5194904
1.5196363
1.5196774
1.5187759
1.5191865
1.5191599
1.5193789
1.5198371
1.5196019
1.5196314
1.5198609
1.5196575
1.519681
1.5198947
1.5199064
1.520652
1.5202956
1.5207225
1.5204053
1.5206683
1.5203436
1.5202778
1.5206332
1.5209358
1.5200451
1.5200502
1.5200067
1.5200892
1.5205882
1.5200483
1.519999
1.5200891
1.5201366
1.5203787
1.5207465
1.5196222
1.519686
1.5196602
1.5196448
1.5197971
1.5198355
1.5203159
1.5198331
1.5198683
1.5201309
1.5198298
1.5199044
1.5197937
1.5198706
1.5195625
1.5196815
1.5198355
1.519923
1.5198824
1.520089
1.5200503
1.5199116
1.5198357
1.5199477
1.519873
1.5196547
1.5197082
1.5200497
1.520102
1.5201891
1.5201392
1.5201635
1.5201081
1.5203027
1.5203547
1.5204811
1.5203658
1.5207113
1.5207802
1.5207754
1.5204496
1.5206564
1.5209272
1.5202698
1.5204002
1.5207183
1.5205657
1.5224372
1.5224703
1.5225305
1.5225608
1.5220086
1.5221126
1.5222389
1.5223123
1.522073
1.5222217
1.5222979
1.5224118
1.5225145
1.5226339
1.5225501
1.522665
1.5226363
1.522634
1.5227387
1.5227366
1.5226044
1.5227064
1.5226212
1.5227221
1.5226921
1.5228237
1.5227105
1.52284
1.522727
1.5227258
1.5228571
1.5228552
1.5225188
1.5226278
1.5225333
1.5226418
1.5224667
1.5224784
1.5225517
1.5225636
1.5224907
1.5224865
1.5225777
1.5225729
1.5225472
1.5225439
1.5226566
1.5226526
1.5219432
1.5220569
1.5221747
1.5222625
1.5223192
1.5223464
1.5223982
1.522424
1.5219196
1.5220008
1.5221466
1.5222074
1.5223642
1.5223948
1.5224618
1.5224896
1.5218903
1.5219838
1.5221126
1.522187
1.52226
1.5222807
1.522323
1.5223421
1.5219045
1.5219645
1.5221175
1.522162
1.5222727
1.5222967
1.5223596
1.5223818
1.5222862
1.5223278
1.5223049
1.5223437
1.5219525
1.5219955
1.5221554
1.5221839
1.5220843
1.5222608
1.5221692
1.522828
1.5223504
1.5223958
1.5224103
1.5230326
1.5224902
1.5224716
1.522796
1.5230201
1.522535
1.5225282
1.5231816
1.5226067
1.52261
1.5225298
1.5225248
1.5231819
1.5226021
1.5226072
1.5224174
1.5224641
1.5224159
1.5224643
1.5231512
1.5231531
1.5224241
1.522474
1.5224195
1.5224668
1.5224066
1.5224776
1.5224016
1.5224712
1.5223941
1.5224618
1.5223978
1.5224669
1.5224115
1.5225064
1.5224197
1.5225153
1.52243
1.5225272
1.5224256
1.5225211
1.5231921
1.5231901
1.5232043
1.5232032
1.5228608
1.5228459
1.5230691
1.5230655
1.5224085
1.5225043
1.5223769
1.5224764
1.5223174
1.5222805
1.5223875
1.5223515
1.5223876
1.5224541
1.5223509
1.5224221
1.5223405
1.5223052
1.5224389
1.5224041
1.5224415
1.5224015
1.5230923
1.5224758
1.5225142
1.5225195
1.5224721
1.5231317
1.5225454
1.5225993
1.522333
1.5223829
1.5222943
1.5223443
1.5224097
1.5224537
1.5223649
1.5224154
1.5230999
1.5230639
1.5223565
1.5222811
1.5223588
1.522439
1.5222512
1.5222864
1.522175
1.5222173
1.5219413
1.5222435
1.5223278
1.5221775
1.5222677
1.5222247
1.5222842
1.5221542
1.52222
1.5219048
1.5219848
1.5215117
1.5216312
1.5231554
1.5231451
1.5231181
1.523122
1.5235962
1.5234662
1.523488
1.5236038
1.5235954
1.5229521
1.5229471
1.5231072
1.5230917
1.5230855
1.5228854
1.5229048
1.5231009
1.5232325
1.5232062
1.5232101
1.523231
1.5232326
1.5232035
1.5232341
1.5232069
1.5232259
1.5232184
1.5232103
1.5231944
1.5231829
1.5231646
1.5231693
1.5227081
1.5228355
1.5226893
1.5228201
1.5226447
1.5226147
1.5227768
1.5227496
1.5226173
1.5227168
1.5225952
1.5226986
1.522552
1.5226545
1.5225194
1.5226256
1.5225273
1.5225023
1.5226352
1.5226136
1.5224607
1.5224271
1.5225711
1.5225391
1.5224693
1.5225548
1.522441
1.5225301
1.5224026
1.5223678
1.5224898
1.5224567
1.5219594
1.5215782
1.5220236
1.5216842
1.5222974
1.5222342
1.522373
1.5223155
1.5223489
1.5222877
1.5224403
1.5223855
1.5220047
1.5216383
1.5220944
1.5217744
1.5220836
1.5221568
1.5217369
1.5218626
1.5224255
1.5225101
1.5223669
1.522459
1.5225032
1.5226118
1.5224475
1.5225639
1.5221536
1.5222669
1.5218327
1.5219988
1.5218112
1.5216494
1.5221244
1.5220759
1.5224487
1.5224364
1.5223865
1.5223618
1.5226422
1.5226381
1.5226116
1.5226084
1.5225644
1.522557
1.5225308
1.5225249
1.519781
1.5198058
1.5198361
1.51985
1.5190817
1.51934
1.5195872
1.5196325
1.5199874
1.5200129
1.5200504
1.5200699
1.5205803
1.5207682
1.5202852
1.5203296
1.5224111
1.5224327
1.5224601
1.5224741
1.5218855
1.5220238
1.5222081
1.5222406
1.5226405
1.5226447
1.5226395
1.5226376
1.522598
1.5226117
1.5226226
1.5226177
1.520098
1.5196337
1.5195476
1.5195923
1.5195784
1.5196106
1.5196432
1.5195629
1.5196614
1.5196244
1.5192682
1.5193367
1.5193756
1.5194708
1.5194137
1.5195288
1.5194673
1.5197454
1.5197312
1.519784
1.5197646
1.5197761
1.5197596
1.5197481
1.5197456
1.5197661
1.5197619
1.519707
1.5196819
1.5197474
1.5197269
1.5197432
1.5197241
1.5197027
1.5196937
1.5197248
1.5197094
1.5198176
1.5197977
1.5197883
1.519807
1.5197739
1.519779
1.5197909
1.5197988
1.5200817
1.5206868
1.5206732
1.520066
1.5207766
1.5201285
1.5201047
1.5207388
1.5200533
1.5200555
1.5206392
1.5206459
1.5206282
1.5200443
1.5200142
1.520626
1.5197567
1.5197616
1.5197774
1.5197823
1.5197212
1.51974
1.5197396
1.5197619
1.5196336
1.5196497
1.519681
1.5196583
1.5196792
1.5196873
1.5197196
1.5197071
1.5195595
1.5195716
1.5196121
1.5195925
1.5195498
1.5195085
1.5194913
1.5195208
1.5194403
1.5193913
1.519314
1.519347
1.520439
1.5197866
1.5196633
1.5202969
1.5196146
1.5196386
1.5196703
1.5196442
1.5206285
1.5199792
1.5199568
1.5205954
1.5196121
1.5195766
1.5195413
1.5195684
1.5198593
1.5199274
1.5205464
1.5204952
1.5192358
1.5191905
1.5191688
1.5198112
1.5198473
1.5193374
1.5192734
1.5193311
1.5197096
1.5196657
1.5196438
1.5196715
1.5197248
1.5197389
1.5197443
1.5196866
1.5197551
1.5197483
1.5195625
1.5191725
1.518608
1.5187133
1.5183894
1.5190852
1.5190576
1.519014
1.5183368
1.5187801
1.5190205
1.5190737
1.5180433
1.5185348
1.5184803
1.5181739
1.5187993
1.5188519
1.5188069
1.5188896
1.5179371
1.5181943
1.5185451
1.5187919
1.5188166
1.5189223
1.5190395
1.5191368
1.519019
1.5190476
1.5190228
1.5190559
1.5190839
1.5190956
1.5190837
1.5191031
1.5190244
1.5190697
1.5192147
1.519253
1.5190933
1.5192744
1.5191171
1.5193004
1.5191697
1.5191973
1.5192645
1.5193472
1.5191723
1.5191856
1.5191671
1.5191883
1.5192049
1.5192104
1.519203
1.5192119
1.5191717
1.5192011
1.5193583
1.519393
1.5192279
1.5192145
1.5194095
1.5194336
1.5193339
1.5193833
1.5193997
1.5193161
1.5192572
1.5192794
1.5194981
1.5195303
1.5192685
1.5192582
1.5192459
1.5192613
1.5193346
1.5194517
1.5196323
1.5198495
1.5196954
1.5196639
1.5197196
1.5196652
1.5196642
1.5197345
1.5197433
1.5197385
1.5197683
1.5197605
1.5197779
1.5197868
1.519684
1.5196514
1.51964
1.5196992
1.5197567
1.5197451
1.5197529
1.5197708
1.5198006
1.5197885
1.5198071
1.519792
1.5197997
1.5198009
1.5198137
1.5198159
1.5202509
1.5197916
1.5199258
1.520434
1.5205451
1.5200118
1.5200439
1.5206025
1.5197069
1.5196308
1.5197126
1.5196188
1.5197824
1.5197637
1.5197975
1.5197723
1.5206387
1.5200743
1.5200908
1.5206548
1.5206756
1.5201066
1.5201044
1.5206954
1.5198174
1.5198092
1.5198328
1.5198218
1.5198265
1.5198236
1.5198424
1.5198388
1.5197601
1.519765
1.519785
1.5197767
1.5198039
1.5197943
1.5197709
1.5197696
1.5197913
1.5197887
1.519806
1.5198095
1.519819
1.5198174
1.5198299
1.5198332
1.5198365
1.5198224
1.5198222
1.5198362
1.5198325
1.5198177
1.5198313
1.5198167
1.5198084
1.5198051
1.5198238
1.5198181
1.5198434
1.5198391
1.5198525
1.5198585
1.5207232
1.5201194
1.5201293
1.5207263
1.5198463
1.5198466
1.519863
1.5198627
1.5201235
1.5201325
1.5207114
1.520709
1.5198418
1.5198432
1.5198601
1.519859
1.5198279
1.5198351
1.5198532
1.5198441
1.5201309
1.5201241
1.5207171
1.5207204
1.5201211
1.5201315
1.5207342
1.5207524
1.5197076
1.5196988
1.520169
1.5201841
1.5197509
1.5197225
1.5202204
1.5202342
1.5199026
1.5198495
1.5204498
1.520479
1.5202819
1.5200831
1.520666
1.5207469
1.5195309
1.5195438
1.5199016
1.5199142
1.5195724
1.5195576
1.5199342
1.5199384
1.5195791
1.5195792
1.5199661
1.5199708
1.5196238
1.5195969
1.5199884
1.5199984
1.5210253
1.520825
1.5212183
1.5211447
1.5212698
1.5212634
1.5213364
1.5212913
1.521369
1.5213811
1.5213578
1.5213415
1.5213704
1.5213612
1.5214278
1.5213847
1.5213953
1.5214375
1.521327
1.5213258
1.5212833
1.5212585
1.5212457
1.5212698
1.5212298
1.5212803
1.5211606
1.5211408
1.520901
1.5210312
1.5203058
1.5206333
1.5192617
1.5192214
1.5195142
1.5195417
1.5193282
1.5193009
1.5195893
1.5195805
1.5186873
1.5183287
1.5188973
1.5190331
1.5192696
1.5189721
1.5191033
1.519307
1.519401
1.5193837
1.5197253
1.5197093
1.5194241
1.5194126
1.5197428
1.5197467
1.5194381
1.5194371
1.5197708
1.5197752
1.519481
1.5194565
1.5197881
1.5197943
1.5202186
1.5204735
1.5202751
1.520503
1.5199331
1.5199797
1.5199752
1.520019
1.5202524
1.520325
1.5205002
1.5205439
1.5199618
1.5200321
1.520005
1.5200719
1.520195
1.5202479
1.5204568
1.5204818
1.5199075
1.519958
1.519948
1.5199959
1.5199464
1.5199823
1.5199504
1.5199879
1.5203315
1.5202411
1.5204815
1.5205053
1.5202456
1.5206513
1.5202636
1.5206095
1.5196911
1.51973
1.5197187
1.5197562
1.5197709
1.5197858
1.5197882
1.5197725
1.5201009
1.5197233
1.5197486
1.5200625
1.5197535
1.519728
1.5197408
1.5197806
1.5197581
1.5197964
1.5200608
1.5200206
1.5197621
1.5197986
1.5197801
1.5198154
1.5197102
1.519745
1.5197382
1.5197714
1.519731
1.5197862
1.5197591
1.5198127
1.5197858
1.5198414
1.5198045
1.5198584
1.5200749
1.5201114
1.5201095
1.5200741
1.5206097
1.5202832
1.520316
1.5206275
1.5193968
1.5194364
1.5194241
1.5194615
1.5194124
1.5194543
1.5194542
1.5194933
1.5193832
1.519413
1.5194209
1.5194485
1.5194435
1.519448
1.5195446
1.5195633
1.5198486
1.5195643
1.5195456
1.519518
1.5195548
1.5195384
1.5195747
1.5198452
1.51981
1.5198814
1.5195869
1.519601
1.5196027
1.5195885
1.5195606
1.5195967
1.5195767
1.5196116
1.5198984
1.5198627
1.5198935
1.5195812
1.5196141
1.5195978
1.5196295
1.5196041
1.5196531
1.5196207
1.5196681
1.5195385
1.5195708
1.5195598
1.5195914
1.5195597
1.5196089
1.5195817
1.5196303
1.5190008
1.5191187
1.5192757
1.5193501
1.5195003
1.5195453
1.519535
1.5195751
1.5192827
1.5195268
1.5195986
1.5195719
1.5196383
1.5197228
1.5197379
1.5197657
1.5197792
1.5196731
1.519715
1.5196967
1.5197369
1.5197611
1.5197756
1.5198426
1.5198556
1.5197903
1.5197082
1.5197323
1.5198128
1.5196282
1.519681
1.5196513
1.5197032
1.5195995
1.519622
1.5196366
1.5196582
1.5196761
1.5196916
1.5197289
1.5197431
1.519645
1.5196609
1.519683
1.5196975
1.5194438
1.5194871
1.5194756
1.5195161
1.5194661
1.5195111
1.5195093
1.5195501
1.5197739
1.5198162
1.5198018
1.5198422
1.5198304
1.5198741
1.519849
1.5198914
1.5198645
1.5199262
1.5198835
1.5199434
1.5198053
1.5198674
1.5198331
1.519893
1.5199176
1.5199693
1.5199368
1.5199867
1.5198575
1.5199083
1.5198847
1.5199325
1.5199003
1.519998
1.5199264
1.5200216
1.5199627
1.5200592
1.5199822
1.5200765
1.5200571
1.5201377
1.5201014
1.5201779
1.5200156
1.5200716
1.5200592
1.5201116
1.5203045
1.5203696
1.5205428
1.5205794
1.5203515
1.520432
1.5205809
1.5206305
1.5204171
1.520635
1.5204938
1.5206779
1.520169
1.5201246
1.5201927
1.5202323
1.5201824
1.5202267
1.5203376
1.5202985
1.5204826
1.520593
1.5206854
1.5207607
1.520505
1.5201111
1.520102
1.5201347
1.5201292
1.5200984
1.5201157
1.5201469
1.5203214
1.5202729
1.5205827
1.5206171
1.5202817
1.5202255
1.5205575
1.5204964
1.5221571
1.5222215
1.5222434
1.5221805
1.5222127
1.5222026
1.5222678
1.522277
1.5223207
1.5222214
1.5222987
1.5222457
1.5222804
1.5223546
1.5222697
1.5223458
1.5218543
1.5216609
1.5217263
1.5218055
1.5217104
1.521797
1.5219224
1.521855
1.5220735
1.5219879
1.5220457
1.5220192
1.5220442
1.522111
1.5220755
1.5221377
1.521964
1.5217812
1.5218417
1.5219233
1.5219133
1.5218253
1.5219655
1.5220343
1.5221404
1.5221849
1.5221104
1.5221592
1.5222231
1.5221589
1.5221882
1.5222489
1.5222993
1.5223549
1.5223766
1.5223237
1.5224264
1.5224469
1.5223796
1.5223555
1.5223485
1.5224038
1.5223584
1.5224123
1.5224161
1.5224838
1.5224063
1.5224743
1.5223501
1.5224204
1.5224275
1.5223574
1.522359
1.5223595
1.522429
1.5224285
1.5225134
1.522424
1.5225071
1.5224315
1.5224326
1.5225128
1.5224327
1.522514
1.5223995
1.5223138
1.5223827
1.5223316
1.5223843
1.5224676
1.5224841
1.5224029
1.5224068
1.5223347
1.5224052
1.5223357
1.5224083
1.5224911
1.5224105
1.5224923
1.5225462
1.5224702
1.5225301
1.5224883
1.5226249
1.5225328
1.5226101
1.5225507
1.5224966
1.5225563
1.5224952
1.5225552
1.5225591
1.5226329
1.5225607
1.5226353
1.5225112
1.5225711
1.5225766
1.5225177
1.522518
1.5225766
1.5225169
1.5225753
1.5226511
1.5226543
1.5225752
1.5225808
1.5225792
1.5225802
1.5226544
1.5226544
1.522244
1.5221632
1.5222307
1.5221766
1.5222242
1.5223148
1.5223295
1.5222388
1.5222432
1.5221768
1.5222451
1.5221726
1.522238
1.5223324
1.5222377
1.5223318
1.5220415
1.5221132
1.5221245
1.5220537
1.5220535
1.5221261
1.5221188
1.5220451
1.522095
1.5221781
1.5221899
1.5221073
1.5221079
1.5221914
1.5221859
1.5221012
1.5220621
1.5221361
1.5221406
1.5220675
1.522063
1.5220705
1.5221433
1.5221363
1.522119
1.5222038
1.5222084
1.522124
1.5221207
1.5221266
1.5222101
1.5222047
1.5221902
1.5222597
1.5222645
1.5221954
1.5221933
1.5221972
1.522266
1.5222636
1.5223479
1.5223534
1.5222545
1.5222596
1.522261
1.5222613
1.5223551
1.5223534
1.5217377
1.5215516
1.5216126
1.5216874
1.5215922
1.5216799
1.5218071
1.5217333
1.5218925
1.5219492
1.5218644
1.5219226
1.5219149
1.5219912
1.5219456
1.5220184
1.521903
1.5219704
1.5219905
1.5219239
1.5219431
1.52201
1.5220127
1.5219449
1.5220507
1.5219517
1.5220304
1.5219733
1.5220748
1.5219921
1.5220699
1.5219965
1.5216443
1.5214648
1.521529
1.5215885
1.5214988
1.5215793
1.5216992
1.521629
1.5218503
1.5217665
1.5218283
1.5217895
1.5218091
1.5218797
1.5218348
1.521904
1.5220153
1.5220794
1.5220994
1.5220369
1.5220558
1.5221199
1.5220627
1.5221274
1.5221584
1.5221789
1.5220721
1.5220932
1.522123
1.5221133
1.5222009
1.5222089
1.5215394
1.521359
1.521434
1.5214709
1.5214035
1.5214953
1.521605
1.5215218
1.5216666
1.52174
1.5216456
1.5217206
1.5217008
1.521785
1.5217225
1.5218051
1.5215553
1.521679
1.5216991
1.5215757
1.5215952
1.5215902
1.5217134
1.5217166
1.5218004
1.5216651
1.5217802
1.5216861
1.5217045
1.5218172
1.521701
1.5218157
1.521398
1.5211903
1.5213045
1.5212858
1.5212781
1.5213881
1.5214877
1.5213837
1.5215926
1.5214558
1.5215725
1.5214777
1.5215568
1.5216628
1.5215787
1.521682
1.5217648
1.5218464
1.5218663
1.5217857
1.5218022
1.5218841
1.5218037
1.521885
1.5219202
1.5219399
1.521828
1.5218489
1.5218687
1.5218674
1.5219587
1.5219596
1.5211851
1.5211942
1.5213914
1.5214059
1.521404
1.5215635
1.5215822
1.5213861
1.5212204
1.5212212
1.5214273
1.5214256
1.5214214
1.5214262
1.5215967
1.5216003
1.5211242
1.520874
1.5210653
1.5209184
1.5210458
1.5212131
1.5212941
1.521122
1.5213195
1.5211055
1.5213049
1.5211155
1.521298
1.5214658
1.5213177
1.5214847
1.5206406
1.5206566
1.5208849
1.5209152
1.5211034
1.5211086
1.5208532
1.5208577
1.5206486
1.522255
1.5223875
1.5222129
1.5224157
1.5208501
1.5209229
1.5209245
1.5211815
1.5211879
1.5212166
1.5212149
1.5209613
1.5209628
1.5225405
1.5224988
1.5225264
1.52256
1.520955
1.5209152
1.5222832
1.5222505
1.5224217
1.5224387
1.5225599
1.5225227
1.5225571
1.5225838
1.5209804
1.5209806
1.5212602
1.5212612
1.5212715
1.521265
1.5209955
1.5209954
1.5226759
1.5226235
1.5226281
1.5226742
1.5209873
1.5209711
1.5209996
1.5209999
1.5212739
1.5212772
1.5212603
1.5212549
1.5209816
1.5209813
1.5226747
1.5226246
1.5226204
1.5226688
1.5209728
1.5209909
1.5212761
1.5212814
1.5215038
1.5214937
1.5214874
1.5215008
1.5216734
1.5216881
1.5214837
1.521264
1.5214861
1.5212602
1.5216719
1.5214813
1.5214816
1.5216697
1.5226783
1.5226384
1.5226359
1.5226739
1.5226472
1.5226348
1.5226781
1.5226822
1.5214937
1.521263
1.5214863
1.521266
1.5216731
1.5214812
1.5214917
1.5216828
1.521492
1.5212743
1.5214953
1.5212697
1.5216809
1.5214909
1.5214909
1.5216779
1.5218104
1.5216652
1.5218003
1.5216761
1.5217881
1.5219141
1.5219229
1.5217984
1.5216723
1.521804
1.521674
1.5218079
1.5217965
1.5219214
1.5217929
1.5219154
1.5218108
1.5216642
1.5217948
1.5216804
1.5217812
1.5217976
1.5219037
1.5219183
1.5217956
1.5216643
1.5217982
1.5216629
1.5219109
1.5217857
1.5217827
1.5219052
1.52199
1.5218894
1.5219769
1.521904
1.5220577
1.5219596
1.5219729
1.5220696
1.5218911
1.5219796
1.5218976
1.5219868
1.5220691
1.5219699
1.5219622
1.5220609
1.5219992
1.5219011
1.5219918
1.5219098
1.5220769
1.521976
1.5219833
1.5220824
1.5219034
1.5219924
1.5219095
1.5219995
1.5220844
1.5219847
1.5219777
1.5220763
1.52269
1.5226675
1.5227075
1.5227223
1.5226697
1.5226749
1.5227137
1.5227056
1.5226963
1.5226551
1.5226495
1.5226909
1.5226921
1.5226482
1.5226664
1.5227028
1.5223168
1.5222747
1.5224504
1.5224725
1.5223369
1.5223018
1.5224831
1.5224986
1.5226264
1.522578
1.522611
1.5226493
1.522583
1.5225506
1.5225942
1.5226176
1.5219934
1.5219025
1.5219928
1.5219044
1.5219789
1.5220797
1.5220774
1.5219781
1.5218418
1.5219332
1.521854
1.5219463
1.5219309
1.5220343
1.5219167
1.5220195
1.5215797
1.5217139
1.5217164
1.5215838
1.5215392
1.5215493
1.521682
1.521669
1.5218276
1.5217016
1.5218269
1.5217042
1.5216567
1.5217783
1.5216696
1.5217942
1.5218057
1.5216651
1.5217998
1.5216718
1.5217885
1.521914
1.5219171
1.5217936
1.5217411
1.5216121
1.5217494
1.5216055
1.5217374
1.5218659
1.5217287
1.5218546
1.5218137
1.5219037
1.5219024
1.5218139
1.5217808
1.5218702
1.5217648
1.5218533
1.5219889
1.5219852
1.5218877
1.5218857
1.5218366
1.5218535
1.521954
1.5219362
1.5209006
1.5209001
1.5211773
1.5211744
1.5211544
1.5211425
1.520884
1.5208828
1.522578
1.522524
1.5224941
1.5225433
1.5208763
1.5208916
1.5209705
1.5209687
1.5212569
1.5212547
1.5211953
1.5211865
1.520908
1.5209066
1.5226601
1.5226085
1.5225518
1.5226073
1.5208979
1.5209599
1.5211803
1.5211797
1.5214015
1.5214025
1.521401
1.5215868
1.5215894
1.5213966
1.5211567
1.5211471
1.5213618
1.521374
1.521369
1.5213605
1.5215561
1.5215442
1.5214891
1.5212604
1.5214863
1.5212592
1.5214811
1.5216721
1.5216781
1.5214863
1.5214209
1.5212002
1.5214284
1.5211927
1.5214241
1.5216185
1.5214191
1.5216109
1.5226547
1.5226105
1.5225531
1.5226004
1.5225108
1.5225321
1.5225767
1.5225486
1.5208412
1.5208382
1.5211234
1.5211151
1.5210309
1.5210122
1.5207452
1.5207405
1.5207349
1.5208308
1.5211268
1.5211198
1.5213443
1.5213505
1.5213464
1.5213433
1.5215342
1.5215301
1.5212413
1.5210355
1.5212624
1.5210168
1.5214523
1.5212595
1.5212399
1.5214282
1.5213645
1.5214793
1.5214352
1.5213186
1.5218454
1.521766
1.5218538
1.5217588
1.5219367
1.5218418
1.5218324
1.5219258
1.5216595
1.5217483
1.5216924
1.5217817
1.5218665
1.5217694
1.5217334
1.5218304
1.521658
1.5215285
1.5216619
1.5215258
1.5216528
1.5216486
1.5217748
1.5217683
1.5215578
1.5214478
1.5215836
1.5214234
1.5217006
1.5215749
1.5215474
1.5216699
1.5215098
1.521475
1.5215578
1.5214251
1.5216402
1.5215512
1.5214968
1.5215875
1.5208619
1.5209619
1.5210472
1.5211396
1.5212404
1.5211353
1.5209353
1.5210516
1.5226602
1.5226123
1.5225561
1.5226051
1.5226663
1.5226256
1.5225762
1.5226135
1.5225541
1.5225627
1.5226031
1.5225874
1.5225882
1.522543
1.5225289
1.5225674
1.5232448
1.5232466
1.5232686
1.5232659
1.5230543
1.5231495
1.5232066
1.5231239
1.5232674
1.5233866
1.5195319
1.5224395
1.5224775
1.5225755
1.5225569
1.5225073
1.5223522
1.5223842
1.5225381
1.5226516
1.5226035
1.5226368
1.5226777
1.5226582
1.5226641
1.5226829
1.5226778
1.5226451
1.5226075
1.5226424
1.5226774
1.5225065
1.522325
1.5223601
1.5225295
1.5224943
1.5223079
1.5223537
1.5225205
1.5226303
1.5225928
1.5226384
1.5226703
1.5227269
1.5226791
1.5226776
1.5227194
1.5227313
1.5226943
1.5226988
1.5227273
1.5227048
1.5226931
1.5227288
1.5227381
1.5227203
1.5226746
1.5226928
1.5227353
1.5227417
1.5226973
1.5227063
1.5227418
1.5227573
1.5227658
1.5227728
1.5227597
1.5227426
1.5226979
1.5227032
1.522743
1.5227601
1.5227685
1.5227672
1.5227545
1.5226966
1.5226601
1.522644
1.5226674
1.5227309
1.5227576
1.5227184
1.5226674
1.5226343
1.5226133
1.5226409
1.5226738
1.5226269
1.5225885
1.5226283
1.5226773
1.5226428
1.5226136
1.5226408
1.5225855
1.5226056
1.5226373
1.5226156
1.5226199
1.5225773
1.5225637
1.5226047
1.5225093
1.5225093
1.5225672
1.5225673
1.5226487
1.5225732
1.5226472
1.5225731
1.5224818
1.5225421
1.5225352
1.5224732
1.5226182
1.522548
1.5226231
1.5225408
1.5224311
1.5224922
1.5224891
1.5224274
1.5223895
1.5223996
1.5224615
1.5224521
1.52257
1.5224983
1.5225749
1.5224943
1.5224567
1.5225357
1.5224666
1.5225437
1.5223526
1.522352
1.522419
1.5224191
1.5224233
1.5225034
1.5224232
1.5225034
1.5223181
1.5223882
1.5223798
1.522308
1.5224676
1.5223924
1.5224757
1.5223836
1.5222659
1.5223366
1.5222619
1.5223336
1.5223376
1.5223408
1.5224249
1.5224217
1.5222198
1.5222939
1.5222304
1.5223034
1.5223939
1.5223076
1.5222984
1.5223841
1.5222003
1.5222676
1.5222639
1.5221947
1.5221411
1.5221552
1.5222259
1.5222139
1.5223495
1.5222648
1.5223512
1.5222611
1.5222104
1.5223045
1.5222218
1.5223152
1.5221033
1.5221732
1.5221674
1.5220966
1.5220641
1.5221342
1.5220502
1.5221224
1.5222582
1.5221687
1.5222631
1.522162
1.5221172
1.5221275
1.5222261
1.5222146
1.5221364
1.5220671
1.5221406
1.5220636
1.5221262
1.5222104
1.5222053
1.522121
1.5220817
1.5220205
1.5220962
1.5220051
1.5220801
1.522167
1.5220653
1.5221529
1.521974
1.522048
1.5220428
1.5219694
1.521938
1.5220116
1.521995
1.5219205
1.5221101
1.5220311
1.5221163
1.5220251
1.5220635
1.5219931
1.5220786
1.5219773
1.5216341
1.5216974
1.5216434
1.5215754
1.5210268
1.5212362
1.5213053
1.5211121
1.5216885
1.5217575
1.5217032
1.5216285
1.5210847
1.5212976
1.5213792
1.5211867
1.5219258
1.5219948
1.5219827
1.5219136
1.5218549
1.5219245
1.5218889
1.5218166
1.5219816
1.5220594
1.5220465
1.5219685
1.5219102
1.5219894
1.5219546
1.5218728
1.5220502
1.5221134
1.5221013
1.5220366
1.521979
1.5220432
1.5220109
1.5219426
1.5221803
1.5221116
1.5221898
1.5220993
1.5220943
1.5220403
1.5221247
1.5220069
1.5217519
1.5218082
1.5217547
1.5216921
1.5211643
1.5213744
1.5214351
1.5212477
1.5218321
1.5218095
1.5218816
1.5217509
1.5212339
1.5214374
1.5215253
1.5213457
1.5218868
1.5219403
1.5218341
1.5218949
1.5218968
1.5219659
1.5219467
1.5220088
1.5213373
1.5215329
1.521591
1.5214207
1.5214107
1.5215141
1.521598
1.5216754
1.522192
1.5221834
1.522252
1.5222446
1.5222488
1.5223199
1.5222567
1.5223273
1.5221285
1.5221905
1.5221631
1.5220971
1.5222421
1.5221953
1.5222686
1.5221658
1.5223332
1.5223251
1.5223841
1.5223768
1.5223823
1.522446
1.5223905
1.5224551
1.5222745
1.5223264
1.5223015
1.5222456
1.5223741
1.5223326
1.5223972
1.522305
1.5220165
1.5220605
1.521969
1.5220199
1.5220225
1.5220881
1.5220682
1.5221288
1.5216833
1.5215049
1.5217326
1.5215805
1.521571
1.5216729
1.5217401
1.5218176
1.5196883
1.5197049
1.5197211
1.5197257
1.5197489
1.5197531
1.5197656
1.519773
1.5190161
1.5188641
1.5192936
1.519252
1.5194966
1.5195257
1.5195629
1.519573
1.5198887
1.5198758
1.5199079
1.5199128
1.5199437
1.5199394
1.5199605
1.5199722
1.5204123
1.5204439
1.520631
1.5207255
1.5201354
1.5201506
1.5201853
1.5202013
1.5201226
1.5197257
1.5197625
1.5191038
1.5195263
1.519527
1.5195712
1.5195786
1.5195703
1.5195682
1.5196609
1.5196432
1.5196994
1.5196899
1.5196658
1.5196295
1.5196186
1.5196502
1.5196951
1.5196935
1.5197036
1.5196868
1.5196666
1.5196494
1.5196427
1.5196572
1.5194154
1.5194884
1.5195418
1.5194797
1.5195923
1.5195775
1.5195316
1.5195094
1.5197482
1.5197667
1.5197731
1.5197336
1.5197562
1.5197528
1.5197888
1.5197808
1.5197713
1.5197668
1.5197116
1.5197332
1.5197365
1.5196864
1.519714
1.519702
1.5197532
1.5197494
1.5197322
1.5197164
1.5198363
1.5198016
1.5197927
1.5198264
1.5197786
1.5197836
1.5198085
1.5198173
1.5200817
1.520402
1.5203865
1.5200656
1.5204737
1.5201288
1.5201081
1.5204476
1.5200603
1.5200495
1.5203555
1.520368
1.5203444
1.5200374
1.520034
1.520352
1.5197625
1.5197666
1.5197974
1.5198026
1.5197283
1.5197467
1.5197636
1.5197828
1.5196857
1.5196636
1.5197239
1.5197112
1.5196235
1.5196046
1.5195644
1.5195353
1.5194867
1.5194101
1.5193361
1.5193986
1.520169
1.5198184
1.5197077
1.5200414
1.5196252
1.5196477
1.5196984
1.5196748
1.5203538
1.5200036
1.5199751
1.5203186
1.5196465
1.5195894
1.5195554
1.5196065
1.5199075
1.5199476
1.5202718