/*--------------------------------*- C++ -*----------------------------------*\
  =========                 |
  \\      /  F ield         | OpenFOAM: The Open Source CFD Toolbox
   \\    /   O peration     | Website:  https://openfoam.org
    \\  /    A nd           | Version:  7
     \\/     M anipulation  |
\*---------------------------------------------------------------------------*/
FoamFile
{
    version     2.0;
    format      ascii;
    class       volScalarField;
    location    "9000";
    object      omega;
}
// * * * * * * * * * * * * * * * * * * * * * * * * * * * * * * * * * * * * * //

dimensions      [0 0 -1 0 0 0 0];

internalField   nonuniform List<scalar> 
34377
(
2216.1714
4680.7686
4000.6623
4061.8987
804.3579
2266.7631
811.40437
447.48762
874.30613
856.56246
1296.5167
9580.5204
1270.5424
4649.7228
9461.846
4103.9362
1814.0254
7468.0374
7549.9782
1801.5968
7702.7089
7547.4877
1852.7436
1855.5402
821.45622
4086.0584
827.04698
447.22612
767.72373
710.83283
726.77776
405.48818
406.98427
407.54742
424.15474
423.15284
782.61323
2099.4707
2103.9801
868.99222
873.09667
2046.1996
2042.5028
2050.1708
701.73357
707.62538
2081.4716
4646.8042
18908.499
4594.9796
18920.547
1289.7578
2009.8136
701.87619
696.58959
2002.5052
1287.1733
9452.0822
9529.563
4526.8098
18623.772
4514.5466
18731.984
7408.24
7940.5829
1909.5653
1813.2148
12651.802
13253.245
4220.4405
4279.9025
4278.8054
13265.192
13088.512
4267.1191
13050.789
4349.353
13639.704
4463.0418
13154.634
4300.2363
12942.688
4321.6768
1854.8969
7533.5557
7668.9585
1850.823
723.15611
718.51278
778.80814
780.02274
404.93791
406.69158
406.38197
422.95744
423.27473
1868.2759
1858.6037
1868.5793
1880.2707
1576.603
1429.9912
1416.5028
1564.5311
602.23167
1627.955
1481.9903
1492.6188
1635.4261
612.81378
528.27733
536.88539
388.27952
398.72759
399.14777
388.01417
1918.427
1941.2637
1941.3103
1918.2031
4941.905
4900.5257
4962.4499
5114.5467
2077.1526
2069.588
2147.7497
2050.1998
4922.2993
4821.7647
4880.8577
4891.0153
576.03995
579.07001
2229.4632
720.78349
727.47999
2261.4732
3613.3586
6771.2338
6798.5184
3629.7021
12940.007
13054.742
32670.106
33282.641
3574.3282
3581.4193
6731.5375
6712.3054
13051.349
32839.816
32983.299
2050.282
703.73564
702.43151
2050.007
2180.0978
719.83345
716.45106
2175.2314
698.70292
709.63179
2055.7126
2037.6323
4628.8695
4587.1938
18662.349
18726.376
4604.1367
4592.9921
18921.377
18677.167
3498.3673
3535.238
6638.3593
6615.0029
12803.597
12850.473
32126.165
32751.554
3506.5828
3509.955
6613.738
6620.0068
12826.907
12828.248
32830.299
32705.192
12905.952
12684.796
4181.6914
4220.3803
13717.576
13750.993
4543.0756
4506.2704
20147.166
21192.57
7874.6547
7775.9769
21994.135
21908.042
8130.7516
8117.6689
21699.01
22172.89
8084.3847
8079.1234
21944.945
21279.639
8018.1856
7965.9542
7979.1245
20819.514
21885.241
8135.3807
22544.619
22418.164
8432.9241
8388.8454
21247.08
21799.615
7981.8882
8044.3882
7973.8818
21437.467
20883.9
7984.4129
13197.382
4296.9732
4254.2177
12703.955
13305.59
13279.252
4345.8848
4342.1713
1587.5282
1446.2055
1489.0098
1647.4411
609.79973
1604.921
1462.2354
1454.3683
608.81607
1598.1465
1891.9668
1889.7424
1903.9499
1901.017
1968.4482
1957.7544
1886.5335
1870.4077
532.31989
387.52381
398.40786
398.1207
387.31881
5168.9243
5062.5896
4563.3512
4650.8173
5106.9009
5110.9885
4612.8365
4610.6484
4629.1971
4718.6814
4731.3403
4637.4479
4605.6918
4790.4122
4704.4675
4691.8265
4128.7833
4041.3515
3984.2192
4196.9146
3423.8367
3379.3346
3092.0511
3118.4784
1195.6723
3106.4792
3078.1785
3363.1308
1184.5217
3394.1003
3998.4909
3976.6097
4126.7683
4151.3155
1047.3673
1062.5524
4256.4099
4262.3798
4122.8099
4404.7774
3331.2543
3223.1552
3632.2953
3505.4025
1234.1176
3210.7738
3477.8937
4207.4378
4088.7647
4315.5665
1091.8983
460.52081
759.40775
889.04288
876.59745
754.15245
765.8738
908.29031
4691.0534
4838.3117
5200.3885
5375.9714
4729.8296
4893.8898
4841.7314
5007.0812
4884.7104
4786.5516
4664.3244
4756.59
5203.5371
5130.1512
4622.4784
4684.6831
8908.5769
8916.7029
8894.6151
8986.3034
8882.9814
9114.4218
9384.0192
9433.6871
4938.1472
4972.5799
4834.2137
4914.1575
5171.2444
5146.8652
4790.5761
4821.0511
9087.0369
9101.0172
8656.0212
8826.2094
8884.5488
8967.0317
9014.3915
9038.7564
577.53825
577.51335
558.41011
2321.0325
4107.5933
4097.9991
4161.3248
4144.0446
7443.2058
12293.903
12355.774
17965.879
18145.578
12441.377
12328.655
18245.133
18005.892
28754.451
29279.577
48226.135
47334.542
48830.456
48489.228
29475.663
29090.536
7401.7887
7377.9276
12391.637
12451.969
18090.016
18220.843
29577.434
48252.398
29029.18
47856.869
29526.179
48493.541
2230.0084
723.6491
722.07908
2227.8365
2272.2849
4045.9069
4025.8223
704.97212
701.21178
2268.893
4029.0229
4028.0375
719.5616
729.24721
2234.4393
2218.2901
6800.2527
3632.022
3581.2102
6766.3098
6747.2332
3599.0126
3564.0444
6694.7404
12949.882
12979.336
32208.1
32827.955
12899.485
12835.646
32820.926
32765.712
6726.6188
3595.7875
3584.6641
6757.2341
6765.7493
3609.1595
3569.4499
6687.0798
12895.98
12983.717
32973.485
33165.164
12855.824
32744.17
12948.402
32325.352
7301.5924
7283.2555
12221.284
12192.035
17879.457
17965.407
12289.812
12121.178
18058.332
17787.413
46636.79
47682.404
28335.166
28976.577
48285.778
48105.731
28998.528
28762.482
7275.2498
7285.0664
12216.261
12216.095
17896.138
17987.404
12260.653
12124.778
18025.611
17770.455
28618.198
47955.82
29200.366
48572.237
29122.039
28707.886
48351.584
47636.129
21055.946
21218.443
7844.0885
7923.5242
21163.695
7821.8533
20427.666
7739.3183
22286.188
22546.733
8478.5972
8412.6429
8498.3894
22831.134
22267.325
8411.1997
35633.349
34701.999
11248.659
11253.775
37672.382
37505.127
11625.418
11640.363
39291.96
38658.16
12015.085
12022.491
38383.495
39305.617
12030.831
11951.492
38602.805
38054.502
11881.275
11857.053
39308.209
39626.45
12031.948
11997.085
11929.873
38900.104
39085.84
11887.627
36872.698
38251.925
11729.25
11632.161
37022.743
36091.153
11560.188
11595.549
38853.69
38798.944
11989.044
12004.85
39660.298
12354.944
40219.949
12395.832
12438.406
40242.541
38973.711
12340.141
37818.618
37080.694
11679.758
11687.19
11882.355
38849.968
38486.841
11896.023
38207.743
37726.469
11731.432
11766.386
35924.152
37327.212
11644.922
11591.041
21732.288
21647.511
8091.4481
8091.8211
20449.019
20914.657
7856.9226
7808.107
8158.1112
21764.047
21980.284
8074.3687
21938.894
21726.56
8127.4236
8153.689
4004.8097
3988.2747
4135.2543
4121.7395
3411.1718
3387.0943
3109.0601
3138.3771
1213.6892
3614.2493
3317.621
3295.2235
3628.5207
1240.7798
4267.8818
4259.1561
4422.2085
4417.2528
1090.644
1073.4096
4073.8639
4207.5804
3464.5572
3182.1443
3169.0367
3445.4763
1218.1226
3203.8042
3492.9612
1080.4014
4116.7749
4260.2684
4050.499
4196.2908
4579.0758
5143.1936
4636.6136
5210.2198
5148.2133
4695.5763
4665.931
4681.4065
4773.9718
4735.5127
4851.5918
4789.9194
4673.5892
5031.1771
5024.1592
4911.5737
4932.0806
5395.6895
5413.5833
4895.2926
4863.7359
4585.0342
4690.6066
4699.6011
4583.1391
5029.4347
5039.1688
4552.8696
4531.1211
760.53635
905.85682
896.12496
764.2145
10266.582
10292.496
9431.6997
9447.6124
9752.6152
8978.4249
9994.8842
9164.1099
9328.0425
8342.4673
9533.7732
8490.8772
9807.2186
8743.9623
9823.5696
8758.7061
10076.349
9968.4479
9263.0899
9179.407
10126.154
9323.0593
10166.383
9348.7842
9700.4967
8668.9782
9726.8897
8685.5874
9642.0168
9544.1453
8610.9985
8545.473
10274.575
9605.4567
10332.624
9650.242
10032.433
10106.952
9620.8432
9679.9003
10032.366
9927.3158
9599.9279
9520.0937
10244.723
10139.882
9561.7429
9482.1713
9944.8961
9275.0743
10205.156
9490.6894
10236.872
10264.032
9798.9506
9828.653
9770.5525
9345.7459
10024.579
9568.5907
10452.374
10481.502
9750.7544
9782.2318
9536.5547
9132.2957
9781.6713
9351.5259
9397.3561
9411.3277
9210.528
9237.4235
9013.8661
8834.0546
9250.6405
9050.3357
9959.2174
9980.3707
9546.3026
9578.1433
8429.1369
8528.6748
8440.9941
8554.3965
8073.1268
8183.4026
8300.3005
8398.0441
6906.1985
7112.4865
5810.9422
2686.7594
5980.1011
7227.2275
7259.297
2699.9707
6135.1958
6110.1913
2572.1479
2564.0654
7119.7313
7036.7849
2695.7842
5963.635
6014.7578
7014.363
7179.1215
2664.5515
6056.4439
5917.1313
8194.2691
8306.8083
8360.6084
8455.4173
2541.2311
2563.3586
8305.8459
8388.7191
8169.7392
8280.9839
9242.7003
9042.3148
9108.5832
8946.2239
9166.9767
8997.8285
9306.0177
9111.1828
9734.8429
9346.9177
9837.1185
9427.7809
9770.9955
9355.69
9654.2163
9275.4086
2067.7825
2052.0092
2207.1931
2231.4427
2249.475
2098.6062
2070.0803
2235.9328
9686.274
9278.8719
10141.93
9687.2705
9761.7172
9872.9136
9552.1568
9679.4831
9147.5824
8970.5598
9632.128
9408.7881
10314.293
10426.366
9872.5156
10004.629
7574.4319
7739.1842
2894.5087
6614.3309
6452.156
7028.5868
7490.6063
2803.3591
6362.2314
5943.4284
8795.8068
8875.9926
8927.9875
9014.7717
8193.144
8303.4419
8694.8457
8770.9989
2684.7603
2753.4591
7078.2373
7461.7061
6311.8913
5980.0075
8257.7397
8345.246
8658.7573
8716.8079
9230.8378
9708.8582
9286.3881
9998.2033
9544.8479
9191.7931
8989.2287
9547.9445
9302.3575
9936.9628
9474.2982
10008.181
9568.5973
2342.0129
2174.6499
2206.4568
2396.999
651.67327
653.12309
533.4929
532.98631
459.29864
1161.7415
1349.348
1314.0518
1133.771
1562.7389
1605.0443
1803.7649
1772.5779
1751.0306
1546.1092
1563.4615
1772.7655
1296.6363
1120.684
1318.1747
1140.5355
1365.5965
1164.848
1368.2266
1853.8228
1630.114
1639.902
1878.6203
9549.7451
8552.142
9839.2325
8775.1054
10123.096
10187.106
9026.6699
9091.7365
9957.0217
9180.6871
10311.61
9465.5386
10593.114
9732.1798
10687.684
9815.6318
10126.023
10528.577
9457.9577
9802.8458
10790.444
10902.092
10062.171
10180.786
9929.5067
9505.1785
10360.478
9887.3332
10576.496
10695.137
10116.087
10244.192
10127.606
10194.309
9657.0945
9733.7711
9945.9925
10195.16
9506.0017
9732.5239
10130.374
10348.64
9449.7321
9642.4882
10274.862
10316.891
9558.6997
9609.8129
10050.221
9228.263
10065.145
9252.195
9953.9425
9163.8058
10129.51
9308.3866
9540.1794
8541.2888
9667.8635
8643.4422
9594.5046
8569.0029
9594.0043
8587.307
12284.286
12187.553
12353.883
12408.99
12274.629
12311.301
12542.328
12532.528
12155.126
12224.258
12664.82
12676.904
13023.338
13107.752
13150.761
12998.727
9072.2148
8990.9423
9059.8519
9092.2605
8728.3339
8718.0009
9014.5204
9028.1999
9425.242
9371.9821
9478.8245
9371.0249
8745.021
8626.0211
8820.4883
8743.2941
12674.555
12717.701
12727.227
12611.991
11825.459
11863.069
12285.149
12287.886
12391.061
12247.564
12564.135
12580.084
12506.253
12522.341
12666.384
12726.946
560.55681
560.94658
536.33613
725.80278
723.96532
4094.58
4089.209
2308.4294
4768.2443
4783.8676
4135.9345
6268.0438
6263.3495
10316.432
10426.85
15537.085
15704.922
15417.701
15607.038
22563.633
18504.651
22684.234
18508.706
18787.252
18726.293
22977.352
22844.128
15695.936
15474.841
22963.036
18849.177
23007.985
18827.298
18624.99
18527.933
22802.63
22574.378
39479.171
26412.395
26588.173
39675.519
26720.189
26872.754
39432.402
40108.061
64397.569
54151.562
54323.963
63766.044
52613.58
63673.658
63898.44
53174.05
64533.488
64955.452
54795.908
54677.055
54776.735
64540.727
64043.53
54273.77
26909.842
26829.07
40342.81
40012.282
26436.17
26700.897
39630.037
39953.857
6226.9421
6229.6149
10384.968
10290.858
6209.4595
6217.1083
10241.26
10350.163
18654.782
18636.678
22706.918
22827.124
23030.12
18853.361
18809.878
22894.203
40277.428
26834.2
26922.033
40751.427
53814.47
64379.391
64874.029
54152.115
26729.198
26549.357
39546.668
40126.764
53576.689
63645.647
64375.671
53908.188
40870.397
26934.056
26760.376
40226.246
64196.181
65051.606
54468.936
54561.575
2323.5751
4123.486
4108.938
710.51605
707.08054
2323.495
4147.1596
4096.5718
4007.0374
4033.3121
2265.2732
4712.0891
4692.1284
4009.9982
4016.9795
2259.1224
4686.8458
4694.4856
704.3982
715.06181
2329.9283
4117.4409
4152.891
2321.4469
4096.1868
4133.9598
7477.7821
7446.0445
7429.0228
7371.0264
18135.667
18255.172
12397.639
12473.707
12541.06
12295.821
18353.183
18060.769
28431.543
47020.523
29027.982
47507.754
29160.419
29106.097
48356.761
48259.505
18079.35
12325.126
12395.151
18163.118
12388.313
12175.765
18177.73
17900.627
28565.768
29208.028
48194.883
48607.392
29112.906
48557.337
28774.143
48128.612
7395.5678
7439.0979
7450.9337
7357.6092
12370.761
12325.431
18072.692
18184.334
12491.477
12313.729
18293.759
18049.695
28600.924
29212.65
48538.455
48812.095
29096.524
29213.084
48966.757
48474.871
12353.112
12184.549
17850.923
18122.272
28903.99
29415.375
47763.568
48067.831
12366.218
12399.793
18081.534
18149.339
29130.473
28662.926
47865.352
46996.423
6121.9662
6175.7434
10222.021
10193.075
15356.238
15418.314
6123.6657
6131.8586
10151.551
10243.228
15531.8
15243.241
18401.034
18451.879
22514.887
22579.665
22810.896
18620.892
18525.403
22666.67
22782.215
18680.792
22806.82
18619.636
18413.471
18282.6
22588.466
22353.801
51800.24
63526.601
63699.238
52312.091
53338.319
64220.877
64127.928
53623.167
26480.037
26361.036
39246.818
39130.687
26562.765
26701.023
39538.741
39499.171
54126.856
64113.551
64472.685
54328.376
54310.287
64266.732
63820.564
53923.17
26703.459
26627.832
39771.633
39390.663
26228.291
26485.317
39175.123
39452.828
6118.5111
6124.7912
10227.966
10129.846
15490.338
15232.461
6112.4368
6129.8245
10225.519
10152.577
15361.687
15445.347
18437.394
18459.687
22519.862
22616.227
22824.292
18633.565
18545.485
22668.234
22743.256
18636.238
22770.258
18589.971
18380.816
18271.68
22554.236
22331.589
26509.683
26343.157
38933.561
39449.297
53890.36
63452.237
63966.447
54042.479
26565.157
26726.824
40071.048
39916.977
64343.382
64645.456
54571.179
54565.92
26680.413
26611.547
39838.386
40007.427
26212.071
26468.396
39791.804
39253.626
64415.879
64281.433
54363.7
54267.056
63385.368
64118.629
53825.451
53164.2
37222.002
36825.05
11605.947
11541.824
37266.666
37795.997
11594.205
11553.243
37604.095
37243.448
11574.092
11556.789
35071.611
36546.689
11353.782
11246.236
38546.657
39598.663
12285.415
12306.748
39501.726
40097.156
12400.758
12318.782
40454.38
40074.004
12533.906
12497.72
38399.505
39895.152
12384.809
12211.452
37830.215
36780.257
39978.981
39867.752
41700.351
41006.501
40707.456
41737.29
40958.78
40301.114
41657.087
42039.255
41245.741
41455.755
39063.313
40564.92
39250.087
38243.542
41221.232
41149.535
42047.582
42674.132
42692.882
41282.872
40041.379
39207.844
41156.379
40700.179
40449.014
39997.467
37965.575
39560.13
38790.828
38075.877
11911.383
11904.107
37834.652
38586.235
11858.991
11944.854
35911.457
35615.122
11422.699
11317.394
11517.473
37074.29
36949.251
11479.998
38432.406
38088.313
11884.798
11971.506
38669.128
39169.809
11979.824
11906.106
38983.991
38599.144
12001.439
11955.772
37845.825
38731.008
11987.037
11908.88
9217.8365
9035.0263
9002.3886
8848.9793
9213.854
9010.1803
9103.6111
8899.0165
9709.4503
9278.0593
9541.6305
9135.7089
9717.9426
9294.3812
9597.5595
9178.5615
8319.4935
8386.1256
8129.5471
8222.9735
8272.9916
8369.1973
8197.5584
8280.752
7080.6684
7040.9802
5969.142
5940.3411
2702.7205
7149.4069
7000.4178
5924.2105
6056.7378
2737.7355
2585.0339
2619.0571
8961.3852
9061.3381
8734.869
8839.2917
7736.3066
7650.8922
6514.126
6574.0015
2877.0892
7701.6079
7502.5165
2853.5116
6341.6015
6530.0553
8987.0873
9071.0785
8859.9711
8947.8176
2732.1125
2707.4059
9952.8985
9726.6039
9810.1631
9600.6153
9952.2984
9738.7753
9723.8331
9516.5442
10485.738
10043.336
10264.55
9829.8654
10470.341
10021.602
10338.233
9908.8901
2182.4661
2196.0356
2381.1651
2359.1575
2133.2889
2103.0473
2255.3827
2292.5408
9395.0005
9374.934
9201.5915
9183.814
9920.4682
9927.6889
9500.3808
9505.1368
8453.7106
8550.1938
8419.5685
8516.0589
7237.4571
6135.6604
7208.2986
7182.1732
2763.8433
6083.8042
6100.1974
8396.4821
8507.2114
8354.6328
8430.5747
2658.5297
2653.6081
2782.887
7244.7874
7374.4845
6249.9674
6119.2
8439.5913
8550.3746
8579.9001
8676.882
2160.4288
2322.0669
2321.3638
9407.3599
9219.4771
9546.4509
9337.3495
9938.5096
9526.417
10069.806
9631.9809
9358.8009
9179.3577
9269.9866
9060.4821
9900.3107
9502.8123
9777.0747
9359.0355
9383.5189
8418.0133
9368.1336
8377.702
10124.882
10161.413
9324.4769
9327.5297
8991.3591
9688.1046
8681.6704
9710.051
8676.9159
10180.623
10256.533
9374.1266
9413.1912
10187.459
9389.689
10053.67
9256.5758
9735.7259
9788.0861
8720.7168
8744.4028
8742.9021
9749.6817
9636.3223
8633.1645
10365.186
9692.6311
10224.841
9542.2272
10163.303
10025.035
9738.7569
9586.7157
10375.179
10476.614
9689.028
9753.9229
10183.371
10302.965
9750.1697
9837.7449
10152.581
10184.42
9707.9961
9722.8866
10324.36
10364.615
9635.2082
9650.9599
10725.109
10261.307
10520.92
10066.356
10708.004
10243.935
10591.326
10136.123
10900.965
10177.497
10786.09
10070.974
10904.526
10177.437
10724.722
10010.561
10692.695
9831.1947
10576.416
9719.7494
10678.57
9818.2694
10532.314
9690.5881
10176.683
9100.247
10075.194
9012.8757
10208.111
9126.4472
10092.208
9023.6625
10108.228
9423.4517
9996.4147
9316.9416
9941.4389
9496.5197
9823.0114
9384.3849
9923.2098
9470.803
9763.9289
9326.6002
10076.781
9380.5255
9913.4549
9234.6596
9859.3686
9698.6976
9052.6759
8916.3999
9803.3564
9908.0412
9114.659
9019.2261
9475.6706
9383.4491
8400.0623
8485.2898
9409.39
8408.1816
9268.7557
8296.5222
657.03188
1373.7292
1155.878
1363.2977
1630.6158
1643.3099
1868.8336
1873.1271
1798.7436
1587.1957
1617.9148
1832.8205
1330.0005
1140.4687
1363.2054
1170.3582
14760.861
13982.744
13925.718
14714.108
14712.869
14763.121
13966.926
13921.606
13233.275
14240.876
13287.713
14186.23
14179.468
13238.824
14226.447
13267.451
13030.011
13716.473
13047.348
13717.386
13312.084
12457.341
12432.02
13298.242
13564.784
14227.312
13491.148
14319.244
13756.556
12839.65
13843.263
12915.405
11952.252
12665.779
11979.81
12644.615
11403.931
12173.777
12147.663
11386.395
13135.907
12388.293
13046.948
12318.862
11733.79
12512.843
12592.264
11779.813
13489.532
12731.818
12689.243
13441.84
12113.787
12101.268
12886.712
12920.166
13476.6
12718.601
13450.005
12699.759
12896.834
12083.236
12916.825
12121.22
14551.888
13770.682
13654.199
14421.732
14106.168
14197.097
13447.008
13379.463
12992.608
14035.351
13093.01
13909.589
13635.784
12774.965
13709.896
12815.383
13680.213
14546.789
13790.789
14433.419
14060.349
13122.966
13022.302
13942.832
13873.885
14661.769
13871.023
14665.78
14139.332
13187.182
14138.879
13200.313
12503.198
13334.567
12589.876
13231.462
11930.387
12787.846
11981.429
12698.615
13414.617
12663.384
13400.275
12646.319
12853.589
12088.231
12866.407
12076.821
13308.991
12563.063
12481.431
13203.764
13034.872
12324.057
12990.794
12297.285
11983.054
11937.563
12770.296
12684.913
12502.138
12535.32
11787.474
11739.735
14647.525
15357.397
14712.407
15299.253
15134.604
14219.002
14136.653
15067.327
14961.124
15581.391
14921.082
15653.528
15377.331
14369.088
15392.411
14393.159
15413.192
14863.1
14813.797
15352.767
15630.852
15062.012
15168.618
15741.105
15483.588
14787.703
14737.859
15430.722
15705.721
14990.8
15079.93
15805.421
15556.219
14979.902
14893.734
15450.261
15168.871
15207.786
14660.013
14627.695
15606.626
14888.691
14801.428
15506.103
15212.036
15271.415
14581.683
14531.058
15456.846
14785.373
14700.59
15353.961
15047.56
15131.17
14483.191
14398.972
14248.798
14151.544
15211.762
15121.613
14774.833
14897.344
13930.94
13860.472
13865.321
14431.642
13835.362
14494.795
14196.108
13401.722
13407.827
14236.137
15266.438
14557.349
15132.766
14458.43
14845.169
13925.908
14948.177
14014.772
15860.464
15284.55
15200.617
15777.914
15839.356
15279.328
15288.838
15856.706
15102.923
15905.809
15174.739
15825.491
15181.083
15919.587
15195.802
15911.513
14149.572
14663.584
14120.448
14703.727
14651.904
13966.771
14005.744
14700.234
14887.129
15336.4
14755.508
15486.202
15345.989
14611.105
15489.948
14730.984
15725.748
15042.774
15002.21
15669.677
15767.194
15090.347
15731.649
15044.439
14467.305
14429.732
15448.087
15431.931
15455.788
15521.197
14488.873
14452.377
14390.245
15024.532
14394.626
15023.554
14907.995
14163.337
14180.594
14925.673
15807.217
15130.609
15684.521
15016.097
15581.321
14788.67
15720.92
14917.211
16961.016
15971.356
15856.779
16834.103
16804.391
16838.878
15884.092
15871.317
15465.991
16492.796
15569.417
16383.394
16407.115
15523.144
16415.79
15510.296
14953.566
15959.174
15000.343
15919.398
15455.793
14560.16
14536.066
15428.247
15707.094
16661.272
15642.803
16714.818
16136.929
15182.963
16223.338
15278.251
16101.586
15454.913
15360.819
16001.96
16046.896
15412.007
16062.247
15433.457
15278.724
15190.778
16050.894
15962.344
16034.616
16014.95
15248.7
15271.544
19206.539
19137.298
17516.979
17406.337
17813.112
16517.939
16386.41
17938.6
18968.633
18944.4
17305.431
17331.652
17764.848
17715.336
16384.741
16355.714
16518.925
18199.14
16556.515
18202.926
16942.169
15563.178
15512.249
16906.799
17329.434
19048.738
17305.162
19083.417
17710.167
16244.13
17734.918
16280.774
19689.2
19712.253
17892.475
17886.783
18741.524
18775.204
20623.415
20639.46
18891.073
5191.1852
5289.0312
5177.0821
5326.8394
19780.762
20726.001
20713.054
18887.794
18835.126
18631.723
18632.669
20378.505
20357.576
5432.5496
5399.7282
5365.507
5438.0953
19515.208
19891.97
4754.5531
4753.3846
4811.3367
4841.3246
4819.396
4901.0024
4924.8359
4886.364
20628.793
20606.968
18716.281
18675.15
17926.711
17947.109
19662.537
19644.399
5352.4681
5331.3923
5258.118
5309.544
18859.225
19827.473
20036.264
20037.023
18226.182
18207.541
18812.67
18870.805
20712.443
20728.346
5262.4897
5234.163
5343.1577
5385.4905
19893.582
19219.705
18548.723
18516.819
16834.755
16903.972
17333.715
17244.86
15965.211
15868.475
17433.268
19123.162
17384.801
19170.246
16356.565
17806.027
17839.59
16405.769
4788.2418
4772.4595
4840.0249
4879.5792
4750.4669
4845.4651
4863.8458
4804.2371
17193.117
19024.187
17291.518
18953.211
16274.644
17712.033
17583.848
16151.124
16651.085
18255.782
16664.176
18245.107
15773.908
17101.622
17050.629
15743.186
15599.499
16715.198
15712.293
16581.59
16228.936
15292.401
15191.798
16108.675
16176.264
15272.408
16225.09
15294.279
15812.018
14928.837
15777.023
14920.125
15370.879
16412.32
15464.646
16310.096
15983.604
15891.785
15090.214
15007.978
15846.93
16792.34
15779.708
16841.469
15350.098
16294.028
16368.452
15440.212
14919.077
15611.281
14983.943
15533.635
14834.127
15570.468
15508.594
14769.83
15970.61
15313.791
15869.735
15208.659
15039.792
15806.48
15917.999
15146.236
15058.045
15815.469
15153.629
15704.787
14972.572
15743.141
15635.038
14874.191
15421.219
14804.342
15442.373
14812.517
14644.027
15384.361
15357.129
14626.902
3760.451
3871.3142
3958.9904
3872.3198
3866.5853
3855.3731
3924.2772
3961.9184
4363.0567
4326.1285
4369.4523
4423.5322
4419.6888
4377.4828
4267.7194
4340.3589
4367.1806
4353.1654
4362.9343
4408.5562
3969.6327
3884.977
3869.1322
3972.1798
3802.2276
3938.0627
4017.7064
3919.5148
4474.9039
4435.5444
4318.9055
4397.7383
14651.659
15233.186
14596.524
15282.524
15134.782
14381.254
14460.47
15202.383
16388.135
15688.403
16188.278
15488.699
16068.08
15242.721
16282.404
15455.134
17473.925
16438.493
16403.259
17404.124
17512.996
17533.363
16537.668
16551.448
15992.409
16970.771
16004.404
16930.985
17085.662
16177.854
17094.599
16151.394
15183.618
16122.989
15162.066
16144.758
15643.599
14742.423
14782.638
15671.908
16336.976
17238.054
16172.197
17389.376
16675.267
15676.477
16847.495
15863.199
16547.684
15870.271
15877.471
16532.476
16718.657
16053.411
16720.123
16072.213
15677.295
15700.476
16479.722
16486.312
16675.353
16686.825
15880.509
15890.347
21474.754
21474.11
19511.031
19524.001
19471.917
19518.104
21361.505
21343.483
5761.885
5749.6782
5866.8744
5905.1247
20546.336
20660.549
19895.088
19941.422
18026.891
18091.627
19485.355
19602.963
21523.814
21569.955
5318.1713
5304.739
5682.1495
5691.1809
20726.22
19120.025
19830.009
19808.36
18056.226
18019.588
18418.968
17015.556
16958.672
18491.27
19787.127
19787.827
18080.201
18056.984
18495.642
18469.572
17059.847
17070.353
16709.311
18334.027
16666.264
18403.078
17076.995
15697.46
15723.78
17109.886
18070.859
19779.155
17937.934
19896.553
18345.451
16813.901
18472.526
16963.033
4880.824
4887.8278
5220.1062
5218.9015
5334.5071
5253.748
5261.9708
5374.4679
20307.249
20342.82
18354.476
18437.847
19575.164
19707.212
21696.507
21729.093
20913.017
19537.976
18663.262
18722.877
16968.333
16923.738
17336.929
17343.438
15898.583
15912.466
18066.266
19848.347
17931.264
19958.655
16718.293
18307.397
18410.348
16854.355
16367.059
15360.73
15363.43
16350.133
14748.252
15369.458
14708.992
15387.412
14500.515
15260.733
15294.138
14543.062
16113.829
15416.79
15951.902
15239.359
14997.753
15806.024
15981.942
15181.036
15329.861
16321.286
15316.765
16314.195
15805.872
15809.14
14870.6
14896.407
16143.027
17107.856
16000.332
17226.718
15461.118
16474.698
16610.26
15624.897
15143.743
15839.497
15130.424
15827.943
14875.433
15678.948
15682.185
14899.091
15812.968
15140.347
15856.66
15159.384
14899.523
15702.444
15649.291
14874.024
4502.0078
4495.8441
4768.2392
4795.3249
4104.3517
4038.501
4228.5063
4333.463
4254.9481
4243.634
4329.6091
4376.9242
4808.0057
4773.1725
4817.5492
4886.2576
981.2006
995.67081
757.80391
747.54188
1004.9854
993.24253
753.96574
758.64902
615.36274
607.16234
450.00879
1869.8115
1597.382
1580.0459
1830.7623
2180.9325
2240.1946
2470.4062
2427.2444
2374.0359
2127.1237
2087.6996
2335.5269
1759.9984
1495.4235
1509.4192
1750.2742
2687.4363
2767.1779
2975.0874
2895.4185
2784.3172
2838.9879
3022.9672
2986.5993
3360.9842
3397.6513
3520.8722
3504.3584
3537.3741
3390.2662
3271.9933
3427.9302
3472.6672
3350.0734
3331.9901
3481.7801
2939.4851
2730.3661
2698.9525
2927.1743
2686.159
2718.9232
2922.8614
2886.7448
3473.5496
3328.0661
3253.7531
3396.7045
2341.6563
2091.9902
2069.3367
2329.2229
1731.0215
1469.767
1483.4138
1727.6321
2341.8971
2104.4984
2110.2193
2347.6787
1753.6006
1500.9447
1532.7094
1778.3334
2512.0993
2260.953
2293.8563
2572.5752
1883.5014
1581.5148
1902.4083
2534.396
2256.0635
2263.6305
2558.9019
3654.6599
3525.6768
3639.4849
3810.1497
3116.8432
2904.9001
2968.2629
3209.5156
2975.4913
2958.2123
3189.4713
3220.6926
3806.2495
3640.1607
3653.1107
3829.2202
12973.436
12971.861
12271.399
12268.93
11686.411
12465.952
11701.365
12471.995
13421.36
12674.179
12776.023
13544.797
12140.609
12868.898
12083.917
12965.974
13854.192
13080.831
13089.482
13857.296
13854.499
13931.704
13143.337
13095.281
12497.161
13273.719
12451.99
13286.817
13281.277
12459.392
13344.116
12531.433
14049.038
14067.964
13357.344
13362.926
13635.242
12755.284
13632.963
12753.461
14662.081
13893.914
14020.207
14805.247
13335.394
14159.219
13212.023
14288.259
15159.212
14360.904
15171.325
14362.617
14621.317
14624.872
13644.764
13648.306
15213.794
14389.768
15316.748
14469.057
13722.225
14723.566
14620.621
13659.594
14743.581
14136.468
14217.385
14856.286
15810.355
15599.207
14912.503
15089.949
13755.956
14528.374
13711.954
14605.459
15493.186
14515.079
15325.23
14358.514
16137.696
15441.782
15497.832
16195.964
16405.124
15692.913
16325.08
15610.648
14894.146
15864.831
14853.499
15928.912
16015.898
16148.57
15050.749
14979.658
14454.134
14901.974
14354.728
14994.656
14921.352
14235.207
14342.577
15033.349
15410.58
15799.287
15195.956
16022.26
15805.87
15050.473
16027.803
15258.427
16267.093
15671.308
15716.665
16293.754
16495.962
15900.046
15891.165
16473.108
15617.218
16309.77
15557.893
16357.447
15769.771
16565.962
15800.831
16515.676
15411.06
14814.773
14858.792
15431.289
15365.605
15426.999
14833.45
14788.706
15396.096
14656.667
14710.729
15431.324
15315.444
15405.546
14662.684
14595.657
15033.663
14469.166
14529.4
15075.711
15550.094
14954.642
15136.206
15729.791
15051.081
14342.793
14410.688
15104.709
15561.617
14816.314
14987.511
15730.11
14856.224
14218.779
14272.575
14915.96
15352.913
14668.48
14804.614
15505.063
13786.437
14615.838
13774.958
14652.375
14229.445
15076.838
14116.956
15183.469
15168.957
14483.489
14539.362
15212.894
15047.245
15161.249
14468.031
14378.564
13980.966
14860.943
13957.4
14904.837
14698.529
14826.304
13880.988
13814.846
14265.033
13534.925
14248.57
13520.286
13778.367
12886.288
13807.44
12898.688
14055.894
14146.558
13416.982
13362.01
13611.964
12765.848
13680.603
12791.784
14107.486
14080.472
13404.562
13378.436
13647.68
12772.536
13689.739
12799.109
14408.357
13653.633
13728.827
14488.397
13073.862
13923.68
12999.062
13985.242
13028.272
12988.846
12321.339
12293.606
12496.008
11754.866
12537.77
11754.154
13214.667
12482.494
12546.123
13278.901
11966.151
12688.936
11934.936
12741.287
13118.162
12394.782
13096.105
12386.306
12585.039
11836.258
12602.7
11814.776
13009.488
12972.8
12300.394
12287.612
12483.677
11713.491
12506.778
11737.032
12614.913
12557.878
12666.105
12562.593
12656.228
12643.17
12674.755
12565.305
11946.64
12028.537
12130.541
12181.407
12578.37
12596.821
12639.158
12515.786
12996.92
12931.515
13106.426
12994.267
13210.765
13217.571
13098.424
12872.157
12200.456
12217.659
11990.177
11841.064
12215.733
12183.904
12251.329
12185.736
537.87555
733.4463
729.61081
738.07043
729.18896
499.24352
742.44402
715.56559
713.64876
742.06254
7119.5424
7113.1946
7098.9285
7102.9609
5219.6612
5239.6937
4666.5736
4655.2882
7069.8513
8089.4477
8075.8379
7068.6499
8104.4188
8091.687
7077.7419
7086.035
7142.0962
11223.943
16460.72
16662.041
20873.261
20976.768
21197.116
21070.866
16335.576
20812.038
20734.767
16582.962
21155.505
20999.012
24469.142
24659.232
24979.15
24789.682
16635.612
21158.927
21122.209
16422.706
20966.79
20749.42
24889.466
24995.761
24797.845
24500.181
56301.658
28335.261
28570.736
56494.755
28667.241
28887.65
55646.977
56896.732
96726.972
58925.285
59002.007
96310.083
57941.774
96501.861
96647.271
58247.971
96709.184
96520.785
59320.74
59195
59282.089
96289.816
96893.992
58882.491
28910.23
28771.514
56894.259
56725.588
28381.876
28712.593
56445.041
56352.932
11302.904
11198.072
11153.24
11267.888
24622.722
24813.784
25019.504
24828.35
57031.998
28765.849
28919.893
57657.934
59060.766
96704.216
97115.506
59131.705
28728.724
28483.315
56323.025
57008.899
58598.083
96609.707
96792.326
58974.017
57936.803
28947.751
28711.942
57298.616
97107.038
97210.607
59428.692
59269.662