/*--------------------------------*- C++ -*----------------------------------*\
  =========                 |
  \\      /  F ield         | OpenFOAM: The Open Source CFD Toolbox
   \\    /   O peration     | Website:  https://openfoam.org
    \\  /    A nd           | Version:  7
     \\/     M anipulation  |
\*---------------------------------------------------------------------------*/
FoamFile
{
    version     2.0;
    format      ascii;
    class       volScalarField;
    location    "9000";
    object      pMean;
}
// * * * * * * * * * * * * * * * * * * * * * * * * * * * * * * * * * * * * * //

dimensions      [0 2 -2 0 0 0 0];

internalField   nonuniform List<scalar> 
34377
(
-1.3654786e+103
-1.3774197e+103
-1.3576622e+103
-1.3632641e+103
-1.3472874e+103
-1.3449837e+103
-1.3519667e+103
-1.2441193e+103
-1.3293987e+103
-1.3261744e+103
-1.362896e+103
-1.3644708e+103
-1.3576263e+103
-1.349077e+103
-1.3579868e+103
-1.3483808e+103
-1.3677634e+103
-1.3669698e+103
-1.3698287e+103
-1.3718868e+103
-1.3720871e+103
-1.3744905e+103
-1.3749394e+103
-1.374253e+103
-1.3369122e+103
-1.3405047e+103
-1.3297296e+103
-1.2370234e+103
-1.2788258e+103
-1.2415691e+103
-1.2426463e+103
-1.1644218e+103
-1.2240501e+103
-1.2213494e+103
-1.2418461e+103
-1.243432e+103
-1.2807828e+103
-1.3611414e+103
-1.3604584e+103
-1.3129038e+103
-1.3187226e+103
-1.3548391e+103
-1.3584396e+103
-1.364158e+103
-1.3587591e+103
-1.3604377e+103
-1.3661298e+103
-1.3633502e+103
-1.3676504e+103
-1.3612341e+103
-1.3703776e+103
-1.3458234e+103
-1.3594335e+103
-1.3532973e+103
-1.3558229e+103
-1.3618548e+103
-1.3389157e+103
-1.3388866e+103
-1.3468435e+103
-1.355775e+103
-1.3622269e+103
-1.3580319e+103
-1.3648537e+103
-1.3627082e+103
-1.3592813e+103
-1.3607631e+103
-1.3629828e+103
-1.3713192e+103
-1.3732447e+103
-1.3728081e+103
-1.3757507e+103
-1.3771413e+103
-1.3745635e+103
-1.3756375e+103
-1.3774957e+103
-1.3766846e+103
-1.3790024e+103
-1.3782135e+103
-1.3812889e+103
-1.3787095e+103
-1.3816104e+103
-1.3794895e+103
-1.3809358e+103
-1.3527954e+103
-1.3513165e+103
-1.3551152e+103
-1.3575874e+103
-1.238118e+103
-1.2338279e+103
-1.2682184e+103
-1.2737981e+103
-1.1595869e+103
-1.2149515e+103
-1.2190458e+103
-1.2378078e+103
-1.2332036e+103
-1.3197191e+103
-1.322912e+103
-1.293125e+103
-1.2910729e+103
-1.2651813e+103
-1.241835e+103
-1.2420222e+103
-1.2664922e+103
-1.193243e+103
-1.2673538e+103
-1.2433699e+103
-1.2428032e+103
-1.2675773e+103
-1.1945225e+103
-1.1505354e+103
-1.151676e+103
-1.1558958e+103
-1.1794114e+103
-1.1773232e+103
-1.1566214e+103
-1.3244658e+103
-1.2939721e+103
-1.2940863e+103
-1.324533e+103
-1.3774546e+103
-1.3775202e+103
-1.3756724e+103
-1.3772314e+103
-1.3459978e+103
-1.3416799e+103
-1.3488639e+103
-1.3511907e+103
-1.372199e+103
-1.3699272e+103
-1.3743354e+103
-1.3733387e+103
-1.3298334e+103
-1.3353544e+103
-1.3597633e+103
-1.3506193e+103
-1.35223e+103
-1.3612568e+103
-1.3648469e+103
-1.3709816e+103
-1.3720275e+103
-1.3654464e+103
-1.3669323e+103
-1.3677616e+103
-1.3699681e+103
-1.3710719e+103
-1.3641597e+103
-1.36315e+103
-1.3702633e+103
-1.3694465e+103
-1.368859e+103
-1.3730658e+103
-1.3720196e+103
-1.3511128e+103
-1.3453832e+103
-1.3486118e+103
-1.3547137e+103
-1.3547914e+103
-1.3450335e+103
-1.3470302e+103
-1.3571118e+103
-1.3408258e+103
-1.3377283e+103
-1.3437584e+103
-1.3469609e+103
-1.3398283e+103
-1.3425271e+103
-1.3462454e+103
-1.3494185e+103
-1.3474988e+103
-1.3510313e+103
-1.353991e+103
-1.3577908e+103
-1.3590983e+103
-1.3573659e+103
-1.3638186e+103
-1.3649952e+103
-1.361106e+103
-1.3623241e+103
-1.3644366e+103
-1.3658944e+103
-1.3616332e+103
-1.3606189e+103
-1.3679143e+103
-1.3664999e+103
-1.3641168e+103
-1.3655418e+103
-1.3675234e+103
-1.3688229e+103
-1.3679659e+103
-1.369517e+103
-1.3710487e+103
-1.3707584e+103
-1.3645256e+103
-1.3665541e+103
-1.3663724e+103
-1.3692831e+103
-1.3750835e+103
-1.3763797e+103
-1.3781874e+103
-1.376317e+103
-1.3772381e+103
-1.3777518e+103
-1.3788417e+103
-1.3790691e+103
-1.3783275e+103
-1.3792262e+103
-1.3808624e+103
-1.3794843e+103
-1.3796586e+103
-1.3799782e+103
-1.3814564e+103
-1.3810895e+103
-1.3817975e+103
-1.3806475e+103
-1.3815358e+103
-1.3833192e+103
-1.3821691e+103
-1.3825081e+103
-1.3835082e+103
-1.3838196e+103
-1.3828131e+103
-1.3834115e+103
-1.3838578e+103
-1.3850428e+103
-1.3851705e+103
-1.3836513e+103
-1.3834507e+103
-1.3843274e+103
-1.3583479e+103
-1.3614745e+103
-1.3578713e+103
-1.3558347e+103
-1.3604831e+103
-1.3622793e+103
-1.3641866e+103
-1.3634274e+103
-1.2625084e+103
-1.2385677e+103
-1.2376833e+103
-1.2610359e+103
-1.1919323e+103
-1.2565601e+103
-1.2348418e+103
-1.2353738e+103
-1.1877605e+103
-1.2588657e+103
-1.308339e+103
-1.3125764e+103
-1.283862e+103
-1.2807473e+103
-1.2862131e+103
-1.3149929e+103
-1.2877811e+103
-1.3166993e+103
-1.1480483e+103
-1.1512366e+103
-1.1723955e+103
-1.175347e+103
-1.1527957e+103
-1.3327303e+103
-1.3307436e+103
-1.3473353e+103
-1.3497927e+103
-1.3347824e+103
-1.3340877e+103
-1.3511044e+103
-1.3515742e+103
-1.3134109e+103
-1.2971681e+103
-1.2978391e+103
-1.3139687e+103
-1.3107433e+103
-1.2961847e+103
-1.2949615e+103
-1.3123368e+103
-1.2762332e+103
-1.2649441e+103
-1.2639417e+103
-1.2774363e+103
-1.2503254e+103
-1.2493354e+103
-1.2382829e+103
-1.2393003e+103
-1.2131061e+103
-1.2397764e+103
-1.2394784e+103
-1.2506614e+103
-1.214485e+103
-1.2510033e+103
-1.2658298e+103
-1.2654064e+103
-1.2782179e+103
-1.2786514e+103
-1.1916546e+103
-1.189921e+103
-1.2790868e+103
-1.2668868e+103
-1.2663347e+103
-1.2797404e+103
-1.2407381e+103
-1.240049e+103
-1.2521563e+103
-1.2516082e+103
-1.2154325e+103
-1.2407989e+103
-1.2523097e+103
-1.2800778e+103
-1.2670614e+103
-1.2802139e+103
-1.1928399e+103
-1.1174609e+103
-1.1513276e+103
-1.1731515e+103
-1.1744556e+103
-1.1524088e+103
-1.1540237e+103
-1.1763013e+103
-1.3527286e+103
-1.3544017e+103
-1.3355066e+103
-1.336721e+103
-1.3147588e+103
-1.3157352e+103
-1.2982825e+103
-1.29893e+103
-1.2993547e+103
-1.299055e+103
-1.3158857e+103
-1.3158814e+103
-1.336775e+103
-1.3368003e+103
-1.354705e+103
-1.3542887e+103
-1.3838806e+103
-1.3842455e+103
-1.3835007e+103
-1.3842844e+103
-1.3814876e+103
-1.3825622e+103
-1.3830319e+103
-1.3830872e+103
-1.3608463e+103
-1.3621866e+103
-1.3559663e+103
-1.3588966e+103
-1.3640121e+103
-1.3661899e+103
-1.3684678e+103
-1.3675665e+103
-1.3783368e+103
-1.3785114e+103
-1.3762016e+103
-1.3775339e+103
-1.3808441e+103
-1.3808124e+103
-1.3792093e+103
-1.3801891e+103
-1.3225962e+103
-1.3144301e+103
-1.3023584e+103
-1.3532027e+103
-1.3687028e+103
-1.367496e+103
-1.3700151e+103
-1.3695872e+103
-1.3770358e+103
-1.371547e+103
-1.3720891e+103
-1.3726334e+103
-1.3729821e+103
-1.3727117e+103
-1.3731425e+103
-1.3735555e+103
-1.3741095e+103
-1.3754255e+103
-1.3760465e+103
-1.3787574e+103
-1.3777617e+103
-1.3795452e+103
-1.3798431e+103
-1.3766835e+103
-1.3771628e+103
-1.3762085e+103
-1.3752181e+103
-1.3735536e+103
-1.3740215e+103
-1.3746069e+103
-1.3748491e+103
-1.3783113e+103
-1.3810321e+103
-1.3776277e+103
-1.3802091e+103
-1.3780524e+103
-1.3808334e+103
-1.3479928e+103
-1.3383973e+103
-1.3413399e+103
-1.3510211e+103
-1.3487887e+103
-1.3619409e+103
-1.3638502e+103
-1.3283466e+103
-1.3308337e+103
-1.3507308e+103
-1.3652161e+103
-1.3661937e+103
-1.3329713e+103
-1.3303528e+103
-1.3401857e+103
-1.3435162e+103
-1.3486295e+103
-1.342346e+103
-1.3443845e+103
-1.3502063e+103
-1.352376e+103
-1.3465437e+103
-1.3480133e+103
-1.3542201e+103
-1.345863e+103
-1.3473565e+103
-1.3490762e+103
-1.3509249e+103
-1.3498018e+103
-1.3515232e+103
-1.3533063e+103
-1.3551314e+103
-1.3567563e+103
-1.3505927e+103
-1.3523107e+103
-1.3582851e+103
-1.3599442e+103
-1.3538901e+103
-1.3553137e+103
-1.3617315e+103
-1.3540396e+103
-1.3555244e+103
-1.357485e+103
-1.3591085e+103
-1.359261e+103
-1.3608101e+103
-1.3574954e+103
-1.362693e+103
-1.3698752e+103
-1.3713207e+103
-1.3659117e+103
-1.3666595e+103
-1.3671107e+103
-1.3675411e+103
-1.367504e+103
-1.3681826e+103
-1.3684551e+103
-1.3691784e+103
-1.3721867e+103
-1.3734124e+103
-1.3697828e+103
-1.3705432e+103
-1.3743938e+103
-1.3749283e+103
-1.3714156e+103
-1.3721516e+103
-1.3739173e+103
-1.3727308e+103
-1.3689963e+103
-1.3696531e+103
-1.37012e+103
-1.3705628e+103
-1.3702399e+103
-1.3708473e+103
-1.3712019e+103
-1.3719104e+103
-1.3729498e+103
-1.3755805e+103
-1.3736465e+103
-1.3764971e+103
-1.3742168e+103
-1.3748319e+103
-1.3769937e+103
-1.3772739e+103
-1.3719606e+103
-1.3731046e+103
-1.3750296e+103
-1.3733686e+103
-1.3737017e+103
-1.3756826e+103
-1.3741503e+103
-1.3753757e+103
-1.368164e+103
-1.3695525e+103
-1.3694947e+103
-1.3714262e+103
-1.3724257e+103
-1.370657e+103
-1.3711942e+103
-1.3724611e+103
-1.3751747e+103
-1.3744562e+103
-1.3779926e+103
-1.37934e+103
-1.37586e+103
-1.3759248e+103
-1.3799343e+103
-1.3797128e+103
-1.3768774e+103
-1.3763878e+103
-1.3802891e+103
-1.3812701e+103
-1.3771783e+103
-1.377334e+103
-1.3814476e+103
-1.3810211e+103
-1.3780653e+103
-1.3774875e+103
-1.381299e+103
-1.3824222e+103
-1.3784865e+103
-1.3785605e+103
-1.3827163e+103
-1.3824568e+103
-1.3827896e+103
-1.3787896e+103
-1.3793018e+103
-1.3836668e+103
-1.3794545e+103
-1.3795334e+103
-1.3836668e+103
-1.3831685e+103
-1.3804941e+103
-1.3801312e+103
-1.3834858e+103
-1.3845689e+103
-1.3807772e+103
-1.3808445e+103
-1.3849447e+103
-1.3846814e+103
-1.3812767e+103
-1.3850866e+103
-1.3817946e+103
-1.385928e+103
-1.3859978e+103
-1.3820081e+103
-1.3817842e+103
-1.3855229e+103
-1.382533e+103
-1.3820044e+103
-1.385694e+103
-1.3866416e+103
-1.3868317e+103
-1.3828597e+103
-1.3821448e+103
-1.3862968e+103
-1.3828897e+103
-1.3830682e+103
-1.3864362e+103
-1.3869738e+103
-1.3822531e+103
-1.3828702e+103
-1.3867951e+103
-1.3860429e+103
-1.3622909e+103
-1.3630826e+103
-1.3641978e+103
-1.3643784e+103
-1.3593333e+103
-1.3608706e+103
-1.360531e+103
-1.3627013e+103
-1.3656608e+103
-1.36409e+103
-1.3656005e+103
-1.3674108e+103
-1.3664871e+103
-1.3671174e+103
-1.3683532e+103
-1.3683013e+103
-1.2627811e+103
-1.2619739e+103
-1.2750057e+103
-1.2742989e+103
-1.248312e+103
-1.2475979e+103
-1.2366388e+103
-1.2373667e+103
-1.2114806e+103
-1.245969e+103
-1.2359068e+103
-1.2352014e+103
-1.24683e+103
-1.2110247e+103
-1.2610235e+103
-1.2601059e+103
-1.2724991e+103
-1.2735568e+103
-1.1887929e+103
-1.1897501e+103
-1.257245e+103
-1.269024e+103
-1.2434063e+103
-1.2329353e+103
-1.2331984e+103
-1.2440752e+103
-1.2087645e+103
-1.2340617e+103
-1.244891e+103
-1.1862896e+103
-1.259225e+103
-1.2713924e+103
-1.2582549e+103
-1.2703839e+103
-1.3350347e+103
-1.3218419e+103
-1.3379804e+103
-1.3249336e+103
-1.3236805e+103
-1.3409041e+103
-1.339885e+103
-1.3038461e+103
-1.2882842e+103
-1.3049799e+103
-1.2895311e+103
-1.286708e+103
-1.3022831e+103
-1.290764e+103
-1.2918428e+103
-1.3077758e+103
-1.3063605e+103
-1.3277912e+103
-1.3262914e+103
-1.3425303e+103
-1.3446551e+103
-1.3085634e+103
-1.2924878e+103
-1.2934257e+103
-1.3092884e+103
-1.3293714e+103
-1.3286755e+103
-1.3457366e+103
-1.3461369e+103
-1.1518404e+103
-1.1735986e+103
-1.1748635e+103
-1.1528755e+103
-1.3360314e+103
-1.3365305e+103
-1.3459834e+103
-1.346281e+103
-1.3344368e+103
-1.3441192e+103
-1.3352873e+103
-1.345231e+103
-1.3561621e+103
-1.3627938e+103
-1.3573177e+103
-1.3642664e+103
-1.3580847e+103
-1.3650339e+103
-1.3584433e+103
-1.3650508e+103
-1.3383123e+103
-1.3386267e+103
-1.348305e+103
-1.3484559e+103
-1.3372426e+103
-1.3469858e+103
-1.3379118e+103
-1.3478675e+103
-1.3590472e+103
-1.3656855e+103
-1.3599028e+103
-1.3667851e+103
-1.3604229e+103
-1.3606149e+103
-1.3673922e+103
-1.3672629e+103
-1.3140382e+103
-1.3233924e+103
-1.3146334e+103
-1.3241331e+103
-1.2954354e+103
-1.2958951e+103
-1.302656e+103
-1.3032147e+103
-1.296204e+103
-1.2965249e+103
-1.3035514e+103
-1.3037965e+103
-1.3149243e+103
-1.3151875e+103
-1.3245359e+103
-1.3246703e+103
-1.3115426e+103
-1.3206873e+103
-1.3123399e+103
-1.3216498e+103
-1.2943654e+103
-1.2948671e+103
-1.3015988e+103
-1.3020575e+103
-1.2932628e+103
-1.300332e+103
-1.2938716e+103
-1.3010721e+103
-1.3129177e+103
-1.3134063e+103
-1.3223397e+103
-1.3227253e+103
-1.2761609e+103
-1.2821989e+103
-1.2767387e+103
-1.2828304e+103
-1.2627431e+103
-1.2631481e+103
-1.2680316e+103
-1.2684328e+103
-1.2619706e+103
-1.2671907e+103
-1.262414e+103
-1.2676845e+103
-1.2771027e+103
-1.2775477e+103
-1.2832768e+103
-1.283711e+103
-1.248158e+103
-1.2532267e+103
-1.2485637e+103
-1.2535871e+103
-1.2474675e+103
-1.2524922e+103
-1.2479459e+103
-1.2529609e+103
-1.2393611e+103
-1.2396946e+103
-1.234846e+103
-1.2227159e+103
-1.2352334e+103
-1.2400213e+103
-1.2403778e+103
-1.223446e+103
-1.2359278e+103
-1.2355174e+103
-1.2126075e+103
-1.2130285e+103
-1.2409363e+103
-1.2412189e+103
-1.2236937e+103
-1.2366975e+103
-1.2363627e+103
-1.2405443e+103
-1.2407684e+103
-1.2235812e+103
-1.236271e+103
-1.2360323e+103
-1.2487669e+103
-1.2538976e+103
-1.2490691e+103
-1.2541804e+103
-1.2129946e+103
-1.2132184e+103
-1.2491735e+103
-1.2543647e+103
-1.2494958e+103
-1.2546344e+103
-1.2639587e+103
-1.2694152e+103
-1.2642523e+103
-1.2696715e+103
-1.2634961e+103
-1.2688442e+103
-1.2637548e+103
-1.2691714e+103
-1.2780125e+103
-1.2842536e+103
-1.2784043e+103
-1.2847256e+103
-1.2786432e+103
-1.2850394e+103
-1.2788997e+103
-1.2852753e+103
-1.1909708e+103
-1.1911174e+103
-1.2007992e+103
-1.2006611e+103
-1.1997371e+103
-1.1901854e+103
-1.1907443e+103
-1.2003909e+103
-1.2792306e+103
-1.2855397e+103
-1.279532e+103
-1.2858469e+103
-1.2649125e+103
-1.2651892e+103
-1.270399e+103
-1.2706123e+103
-1.2645863e+103
-1.2700177e+103
-1.2647743e+103
-1.2702269e+103
-1.2796601e+103
-1.2799003e+103
-1.2860571e+103
-1.2862406e+103
-1.2418507e+103
-1.2421444e+103
-1.2247211e+103
-1.2376101e+103
-1.2372067e+103
-1.2414447e+103
-1.2416242e+103
-1.2242371e+103
-1.2370442e+103
-1.2368131e+103
-1.2501001e+103
-1.2552984e+103
-1.2504301e+103
-1.2555613e+103
-1.2497444e+103
-1.2549619e+103
-1.250026e+103
-1.2551785e+103
-1.2133232e+103
-1.2139067e+103
-1.2421474e+103
-1.2422932e+103
-1.2377123e+103
-1.2375147e+103
-1.2504385e+103
-1.2556755e+103
-1.2506636e+103
-1.2558808e+103
-1.2711271e+103
-1.2800671e+103
-1.2864708e+103
-1.280302e+103
-1.2867312e+103
-1.2653107e+103
-1.2708089e+103
-1.2654864e+103
-1.2710025e+103
-1.2803532e+103
-1.2868663e+103
-1.2805021e+103
-1.2869264e+103
-1.2012091e+103
-1.1915432e+103
-1.1916876e+103
-1.2017408e+103
-1.1390774e+103
-1.1375557e+103
-1.1223046e+103
-1.1221469e+103
-1.0688542e+103
-1.154631e+103
-1.1633159e+103
-1.1641635e+103
-1.1549937e+103
-1.1712631e+103
-1.170172e+103
-1.1786964e+103
-1.179629e+103
-1.1799287e+103
-1.1721673e+103
-1.1718219e+103
-1.1796526e+103
-1.1647417e+103
-1.1555495e+103
-1.1647747e+103
-1.1563518e+103
-1.1671499e+103
-1.1585481e+103
-1.1684565e+103
-1.1805348e+103
-1.1724131e+103
-1.1732708e+103
-1.1812772e+103
-1.361191e+103
-1.3678876e+103
-1.3620986e+103
-1.3691245e+103
-1.3624642e+103
-1.3626279e+103
-1.369559e+103
-1.3694449e+103
-1.3390913e+103
-1.3489876e+103
-1.3396794e+103
-1.3498039e+103
-1.3400081e+103
-1.3501686e+103
-1.3402517e+103
-1.3502274e+103
-1.315572e+103
-1.3160522e+103
-1.3250746e+103
-1.3257118e+103
-1.3163057e+103
-1.3165044e+103
-1.326028e+103
-1.326129e+103
-1.2967891e+103
-1.3041593e+103
-1.2970828e+103
-1.3045439e+103
-1.2972904e+103
-1.2975386e+103
-1.304783e+103
-1.3049362e+103
-1.2980571e+103
-1.2982251e+103
-1.3055622e+103
-1.3055914e+103
-1.2977155e+103
-1.2979608e+103
-1.3051242e+103
-1.305434e+103
-1.316628e+103
-1.3169547e+103
-1.3263366e+103
-1.3267589e+103
-1.3169933e+103
-1.3170423e+103
-1.3268187e+103
-1.3266588e+103
-1.3407235e+103
-1.3510342e+103
-1.340737e+103
-1.3507856e+103
-1.3403878e+103
-1.3504444e+103
-1.3407421e+103
-1.3510239e+103
-1.3628391e+103
-1.3698685e+103
-1.3634241e+103
-1.3707484e+103
-1.3633866e+103
-1.3707569e+103
-1.3631792e+103
-1.3701846e+103
-1.3863426e+103
-1.3859116e+103
-1.386147e+103
-1.386523e+103
-1.3854326e+103
-1.3861749e+103
-1.386339e+103
-1.3861843e+103
-1.3833426e+103
-1.3841503e+103
-1.3844679e+103
-1.3844518e+103
-1.3847522e+103
-1.3854192e+103
-1.3854482e+103
-1.385285e+103
-1.3660435e+103
-1.3673153e+103
-1.3683244e+103
-1.3687029e+103
-1.3611142e+103
-1.3626494e+103
-1.3641414e+103
-1.3648219e+103
-1.3698118e+103
-1.3712554e+103
-1.3721663e+103
-1.372637e+103
-1.3752626e+103
-1.3753641e+103
-1.3734799e+103
-1.3746092e+103
-1.3799617e+103
-1.380762e+103
-1.3808975e+103
-1.3807927e+103
-1.3779679e+103
-1.378961e+103
-1.3794257e+103
-1.3794822e+103
-1.3832456e+103
-1.3830706e+103
-1.3832487e+103
-1.3825207e+103
-1.3810608e+103
-1.3819886e+103
-1.3822688e+103
-1.38225e+103
-1.2971053e+103
-1.2897272e+103
-1.2628327e+103
-1.3135953e+103
-1.3161839e+103
-1.3659702e+103
-1.3647638e+103
-1.3388661e+103
-1.3657524e+103
-1.3669014e+103
-1.3669112e+103
-1.379598e+103
-1.3785959e+103
-1.3838368e+103
-1.384365e+103
-1.3800148e+103
-1.380484e+103
-1.3779888e+103
-1.3785886e+103
-1.378403e+103
-1.3768765e+103
-1.3787557e+103
-1.3773837e+103
-1.3776824e+103
-1.3777676e+103
-1.3790679e+103
-1.3793067e+103
-1.3791143e+103
-1.3795717e+103
-1.3795819e+103
-1.3780361e+103
-1.379852e+103
-1.3784835e+103
-1.3786138e+103
-1.3786778e+103
-1.3800244e+103
-1.3802214e+103
-1.3763198e+103
-1.3771796e+103
-1.3774887e+103
-1.3767651e+103
-1.3781873e+103
-1.3779052e+103
-1.3772531e+103
-1.3771991e+103
-1.376486e+103
-1.3728384e+103
-1.3728061e+103
-1.3763962e+103
-1.3721587e+103
-1.3756685e+103
-1.3760502e+103
-1.3723837e+103
-1.3767559e+103
-1.3771758e+103
-1.3736856e+103
-1.3732389e+103
-1.3738584e+103
-1.3772787e+103
-1.3771934e+103
-1.373667e+103
-1.3786653e+103
-1.3784829e+103
-1.3777796e+103
-1.3776161e+103
-1.379109e+103
-1.3788656e+103
-1.3781132e+103
-1.3778966e+103
-1.3781936e+103
-1.3784407e+103
-1.3831295e+103
-1.3834968e+103
-1.3779292e+103
-1.3766597e+103
-1.3819688e+103
-1.3826519e+103
-1.3793016e+103
-1.3788832e+103
-1.3804633e+103
-1.3807088e+103
-1.3808852e+103
-1.3794978e+103
-1.3795237e+103
-1.381067e+103
-1.3792871e+103
-1.3801933e+103
-1.3803195e+103
-1.3794694e+103
-1.3750782e+103
-1.3786985e+103
-1.3787082e+103
-1.3748294e+103
-1.379527e+103
-1.3793615e+103
-1.3783996e+103
-1.3787161e+103
-1.3739271e+103
-1.377469e+103
-1.3780318e+103
-1.3743376e+103
-1.3790351e+103
-1.3797892e+103
-1.3800852e+103
-1.3792136e+103
-1.3781782e+103
-1.378451e+103
-1.3747148e+103
-1.3742293e+103
-1.3428023e+103
-1.3571518e+103
-1.355392e+103
-1.3224843e+103
-1.3254542e+103
-1.34606e+103
-1.3588203e+103
-1.3601573e+103
-1.3614878e+103
-1.3597308e+103
-1.3346082e+103
-1.361162e+103
-1.3625118e+103
-1.3636194e+103
-1.3627324e+103
-1.3365666e+103
-1.3637824e+103
-1.3646675e+103
-1.3184335e+103
-1.3153426e+103
-1.3357712e+103
-1.349632e+103
-1.3474115e+103
-1.3386116e+103
-1.3531018e+103
-1.3517357e+103
-1.3549556e+103
-1.3569276e+103
-1.3591321e+103
-1.3608715e+103
-1.3521138e+103
-1.3528313e+103
-1.3517542e+103
-1.3508019e+103
-1.3528955e+103
-1.3537099e+103
-1.3539993e+103
-1.3548707e+103
-1.3544215e+103
-1.3565896e+103
-1.3554387e+103
-1.3580528e+103
-1.3565691e+103
-1.3574924e+103
-1.359349e+103
-1.3601427e+103
-1.3563653e+103
-1.3559509e+103
-1.355009e+103
-1.3570243e+103
-1.3568313e+103
-1.3576429e+103
-1.3580422e+103
-1.3589644e+103
-1.3587139e+103
-1.3596962e+103
-1.3612497e+103
-1.3627294e+103
-1.3606691e+103
-1.3636895e+103
-1.3615275e+103
-1.3642898e+103
-1.3630672e+103
-1.364799e+103
-1.3666004e+103
-1.3680885e+103
-1.3589347e+103
-1.3598093e+103
-1.3603411e+103
-1.3609324e+103
-1.3608359e+103
-1.3616361e+103
-1.3619841e+103
-1.3627405e+103
-1.362635e+103
-1.3635902e+103
-1.3652124e+103
-1.3666404e+103
-1.3655411e+103
-1.364669e+103
-1.3679776e+103
-1.3684794e+103
-1.3642017e+103
-1.3650105e+103
-1.3661485e+103
-1.365206e+103
-1.3664743e+103
-1.367387e+103
-1.3692858e+103
-1.3704887e+103
-1.3634853e+103
-1.3626444e+103
-1.3637619e+103
-1.3643543e+103
-1.3681599e+103
-1.369007e+103
-1.371022e+103
-1.3716063e+103
-1.3728517e+103
-1.3713761e+103
-1.3775719e+103
-1.376791e+103
-1.3725178e+103
-1.373348e+103
-1.373773e+103
-1.3737883e+103
-1.3789221e+103
-1.378378e+103
-1.3740487e+103
-1.3747726e+103
-1.3719187e+103
-1.3713027e+103
-1.3727787e+103
-1.3732209e+103
-1.3736758e+103
-1.3723583e+103
-1.3725446e+103
-1.374021e+103
-1.3744558e+103
-1.3729386e+103
-1.3748441e+103
-1.3734958e+103
-1.3737959e+103
-1.3739832e+103
-1.3751734e+103
-1.3754914e+103
-1.3664984e+103
-1.3698106e+103
-1.3704696e+103
-1.3670623e+103
-1.3679275e+103
-1.3711764e+103
-1.3711973e+103
-1.3678011e+103
-1.3718282e+103
-1.3714497e+103
-1.371002e+103
-1.3705148e+103
-1.3728182e+103
-1.3724075e+103
-1.3720102e+103
-1.3716062e+103
-1.3684089e+103
-1.371753e+103
-1.3722327e+103
-1.3687518e+103
-1.3691937e+103
-1.3725498e+103
-1.3725595e+103
-1.3690508e+103
-1.3735714e+103
-1.3732443e+103
-1.3728256e+103
-1.3724475e+103
-1.3742951e+103
-1.373937e+103
-1.3734507e+103
-1.3731022e+103
-1.3760652e+103
-1.3763257e+103
-1.3809157e+103
-1.3813731e+103
-1.376759e+103
-1.3773669e+103
-1.3757457e+103
-1.3744716e+103
-1.3803496e+103
-1.3795677e+103
-1.3754655e+103
-1.3761728e+103
-1.3749312e+103
-1.3743804e+103
-1.3759195e+103
-1.3762915e+103
-1.3766411e+103
-1.3752733e+103
-1.375397e+103
-1.3769108e+103
-1.3772214e+103
-1.3756771e+103
-1.3775481e+103
-1.3761926e+103
-1.3764142e+103
-1.3765413e+103
-1.3777878e+103
-1.3780534e+103
-1.374989e+103
-1.3746865e+103
-1.3738947e+103
-1.3743631e+103
-1.3694933e+103
-1.3730393e+103
-1.3736924e+103
-1.369941e+103
-1.375762e+103
-1.3754499e+103
-1.3748574e+103
-1.3750728e+103
-1.3741616e+103
-1.3741958e+103
-1.3704838e+103
-1.3704093e+103
-1.3763298e+103
-1.3760853e+103
-1.3753891e+103
-1.375618e+103
-1.3768858e+103
-1.3765813e+103
-1.3757953e+103
-1.3760184e+103
-1.3749526e+103
-1.3744745e+103
-1.3707706e+103
-1.3712285e+103
-1.3750861e+103
-1.3750937e+103
-1.3714216e+103
-1.3713819e+103
-1.3721672e+103
-1.3714679e+103
-1.3751396e+103
-1.3763576e+103
-1.3725015e+103
-1.3727209e+103
-1.3767511e+103
-1.3764854e+103
-1.3736393e+103
-1.3729561e+103
-1.376874e+103
-1.3778766e+103
-1.373485e+103
-1.3737165e+103
-1.3779572e+103
-1.3774908e+103
-1.3675958e+103
-1.3683419e+103
-1.3711035e+103
-1.3724192e+103
-1.3690608e+103
-1.3690029e+103
-1.3730981e+103
-1.372965e+103
-1.3700561e+103
-1.3696764e+103
-1.3736338e+103
-1.3746455e+103
-1.3710534e+103
-1.3707098e+103
-1.3750482e+103
-1.3747828e+103
-1.3785292e+103
-1.3777409e+103
-1.3793334e+103
-1.3790979e+103
-1.380382e+103
-1.3797407e+103
-1.38066e+103
-1.3806104e+103
-1.3815556e+103
-1.3808724e+103
-1.3820748e+103
-1.3819405e+103
-1.3823166e+103
-1.3828428e+103
-1.3829125e+103
-1.3829232e+103
-1.3837503e+103
-1.3832395e+103
-1.3842701e+103
-1.3841918e+103
-1.384659e+103
-1.3851145e+103
-1.3852195e+103
-1.3851571e+103
-1.3857732e+103
-1.3852989e+103
-1.3860544e+103
-1.3858515e+103
-1.3861714e+103
-1.3860983e+103
-1.3856679e+103
-1.386039e+103
-1.3620211e+103
-1.361648e+103
-1.3651722e+103
-1.3662401e+103
-1.3627371e+103
-1.3629918e+103
-1.3665184e+103
-1.366793e+103
-1.3594317e+103
-1.3587489e+103
-1.3620988e+103
-1.3634393e+103
-1.3641447e+103
-1.3603383e+103
-1.3604726e+103
-1.364193e+103
-1.363997e+103
-1.3634704e+103
-1.3683392e+103
-1.3671284e+103
-1.3649545e+103
-1.3651057e+103
-1.3690164e+103
-1.3689237e+103
-1.3662333e+103
-1.3657647e+103
-1.3695725e+103
-1.37065e+103
-1.3669306e+103
-1.366781e+103
-1.3708989e+103
-1.3705698e+103
-1.260922e+103
-1.261403e+103
-1.2661318e+103
-1.266587e+103
-1.2601366e+103
-1.2652801e+103
-1.2605768e+103
-1.2657714e+103
-1.2750891e+103
-1.2811819e+103
-1.2755316e+103
-1.281589e+103
-1.2742495e+103
-1.2802619e+103
-1.2747315e+103
-1.2807843e+103
-1.24651e+103
-1.2515248e+103
-1.246962e+103
-1.2519503e+103
-1.2458254e+103
-1.2507384e+103
-1.2462401e+103
-1.2511965e+103
-1.237835e+103
-1.2382235e+103
-1.2334132e+103
-1.2337573e+103
-1.2209071e+103
-1.2384977e+103
-1.2389568e+103
-1.2344706e+103
-1.2340114e+103
-1.2214982e+103
-1.2103973e+103
-1.2112216e+103
-1.2444606e+103
-1.2492875e+103
-1.2448352e+103
-1.2497008e+103
-1.2371467e+103
-1.2376243e+103
-1.2332255e+103
-1.2327778e+103
-1.2203346e+103
-1.23647e+103
-1.2368181e+103
-1.2197051e+103
-1.2325243e+103
-1.2322425e+103
-1.2450842e+103
-1.2500159e+103
-1.2455254e+103
-1.250428e+103
-1.2100384e+103
-1.2094121e+103
-1.259291e+103
-1.2644896e+103
-1.259737e+103
-1.2649189e+103
-1.2585554e+103
-1.2637051e+103
-1.2589301e+103
-1.264137e+103
-1.2726003e+103
-1.2786714e+103
-1.2730767e+103
-1.2791985e+103
-1.2734773e+103
-1.279582e+103
-1.2738898e+103
-1.2799473e+103
-1.1872572e+103
-1.1882077e+103
-1.1979916e+103
-1.1971985e+103
-1.1888606e+103
-1.1886042e+103
-1.1984896e+103
-1.1988195e+103
-1.2553638e+103
-1.2559101e+103
-1.2602813e+103
-1.2608733e+103
-1.2689784e+103
-1.2695846e+103
-1.2747421e+103
-1.2753588e+103
-1.2415547e+103
-1.2462649e+103
-1.2420715e+103
-1.246769e+103
-1.2342099e+103
-1.2299892e+103
-1.2345484e+103
-1.2349505e+103
-1.2181188e+103
-1.2306857e+103
-1.2302881e+103
-1.242489e+103
-1.2473227e+103
-1.2430259e+103
-1.2478919e+103
-1.2085356e+103
-1.2082227e+103
-1.2186774e+103
-1.2353938e+103
-1.2359465e+103
-1.2317062e+103
-1.2311204e+103
-1.2435157e+103
-1.2483831e+103
-1.2440355e+103
-1.2488592e+103
-1.1864293e+103
-1.1955387e+103
-1.1960614e+103
-1.2575164e+103
-1.2626434e+103
-1.258036e+103
-1.2631406e+103
-1.2714968e+103
-1.2775291e+103
-1.2719958e+103
-1.2780416e+103
-1.2565265e+103
-1.2615457e+103
-1.2570387e+103
-1.2621511e+103
-1.2703341e+103
-1.2761888e+103
-1.2709675e+103
-1.2769369e+103
-1.3430984e+103
-1.3487551e+103
-1.3446161e+103
-1.35065e+103
-1.3251382e+103
-1.3258465e+103
-1.3343622e+103
-1.3349649e+103
-1.3334033e+103
-1.3457765e+103
-1.3519357e+103
-1.34645e+103
-1.3524087e+103
-1.3285634e+103
-1.3291518e+103
-1.3378993e+103
-1.3383663e+103
-1.3269052e+103
-1.3360006e+103
-1.3278162e+103
-1.3371551e+103
-1.3493636e+103
-1.3498473e+103
-1.3557601e+103
-1.3559687e+103
-1.3535256e+103
-1.3475012e+103
-1.3485699e+103
-1.3548785e+103
-1.3045999e+103
-1.3135801e+103
-1.3054281e+103
-1.3145783e+103
-1.2868701e+103
-1.2875756e+103
-1.2936748e+103
-1.2945122e+103
-1.3061085e+103
-1.3066464e+103
-1.3153018e+103
-1.315755e+103
-1.2882081e+103
-1.2888001e+103
-1.2951645e+103
-1.2956985e+103
-1.2853412e+103
-1.2860001e+103
-1.2921685e+103
-1.2927981e+103
-1.3030562e+103
-1.3036954e+103
-1.3120211e+103
-1.3126211e+103
-1.2894883e+103
-1.2964307e+103
-1.2899807e+103
-1.2970653e+103
-1.2903894e+103
-1.2974815e+103
-1.29081e+103
-1.2978379e+103
-1.3085844e+103
-1.3179121e+103
-1.3089697e+103
-1.3182192e+103
-1.3074275e+103
-1.3165561e+103
-1.3081014e+103
-1.3173945e+103
-1.3312968e+103
-1.3409661e+103
-1.3317514e+103
-1.3412885e+103
-1.3299554e+103
-1.3392886e+103
-1.3307059e+103
-1.3403419e+103
-1.3508617e+103
-1.3570178e+103
-1.3520103e+103
-1.3585807e+103
-1.352744e+103
-1.3593904e+103
-1.3531791e+103
-1.3596546e+103
-1.309431e+103
-1.3186653e+103
-1.310031e+103
-1.3194072e+103
-1.2911867e+103
-1.2982442e+103
-1.29168e+103
-1.2988449e+103
-1.2920874e+103
-1.2992612e+103
-1.2925714e+103
-1.2996401e+103
-1.3104268e+103
-1.319843e+103
-1.3107978e+103
-1.3200378e+103
-1.3333626e+103
-1.3337131e+103
-1.343274e+103
-1.3434186e+103
-1.3329519e+103
-1.3322717e+103
-1.3418687e+103
-1.3428386e+103
-1.3538318e+103
-1.3547748e+103
-1.3616505e+103
-1.360397e+103
-1.3552616e+103
-1.3622291e+103
-1.3554523e+103
-1.3621107e+103
-1.1364266e+103
-1.1638475e+103
-1.1556529e+103
-1.1649649e+103
-1.1697243e+103
-1.1687875e+103
-1.1767744e+103
-1.1778564e+103
-1.1779027e+103
-1.1700262e+103
-1.169908e+103
-1.1780603e+103
-1.1649475e+103
-1.1559433e+103
-1.1643107e+103
-1.1557579e+103
-1.335232e+103
-1.3410138e+103
-1.3414904e+103
-1.3356646e+103
-1.3361782e+103
-1.3359183e+103
-1.3417841e+103
-1.3419543e+103
-1.3542338e+103
-1.3479152e+103
-1.3537343e+103
-1.3483551e+103
-1.348822e+103
-1.3545631e+103
-1.3486526e+103
-1.3545153e+103
-1.3400212e+103
-1.3337178e+103
-1.339453e+103
-1.334191e+103
-1.3463094e+103
-1.3520365e+103
-1.3527222e+103
-1.3468828e+103
-1.3405536e+103
-1.3345234e+103
-1.3403876e+103
-1.3347829e+103
-1.347278e+103
-1.353132e+103
-1.3474842e+103
-1.3532498e+103
-1.3651285e+103
-1.3595225e+103
-1.3643146e+103
-1.3601272e+103
-1.3712655e+103
-1.3696401e+103
-1.3704476e+103
-1.3722739e+103
-1.3607292e+103
-1.365532e+103
-1.3605473e+103
-1.3655124e+103
-1.3725781e+103
-1.3707883e+103
-1.3709099e+103
-1.3725956e+103
-1.3612144e+103
-1.3659972e+103
-1.3665977e+103
-1.3616553e+103
-1.37295e+103
-1.373686e+103
-1.3718561e+103
-1.3712904e+103
-1.3619128e+103
-1.3668243e+103
-1.3620514e+103
-1.3668189e+103
-1.3720949e+103
-1.3737649e+103
-1.3720456e+103
-1.3738674e+103
-1.3375873e+103
-1.3434019e+103
-1.3438005e+103
-1.3379299e+103
-1.3382042e+103
-1.3380338e+103
-1.3439608e+103
-1.344054e+103
-1.3566288e+103
-1.3503407e+103
-1.3561695e+103
-1.3507138e+103
-1.3509698e+103
-1.3567658e+103
-1.3508666e+103
-1.3567811e+103
-1.3427473e+103
-1.3364912e+103
-1.3422637e+103
-1.3369027e+103
-1.3491585e+103
-1.354889e+103
-1.3554855e+103
-1.3496522e+103
-1.3431723e+103
-1.3371514e+103
-1.3430313e+103
-1.3373623e+103
-1.3499551e+103
-1.3557956e+103
-1.3501399e+103
-1.3559022e+103
-1.3678486e+103
-1.3623918e+103
-1.3671498e+103
-1.362913e+103
-1.3749523e+103
-1.3724385e+103
-1.3740786e+103
-1.3731369e+103
-1.3633955e+103
-1.368172e+103
-1.3632143e+103
-1.368118e+103
-1.3733672e+103
-1.3751701e+103
-1.3735044e+103
-1.3751812e+103
-1.3636573e+103
-1.3684349e+103
-1.3690338e+103
-1.3640675e+103
-1.3641886e+103
-1.3691517e+103
-1.3642853e+103
-1.3691159e+103
-1.3754299e+103
-1.3761564e+103
-1.3737488e+103
-1.3743051e+103
-1.3744357e+103
-1.3744052e+103
-1.3762601e+103
-1.3761289e+103
-1.3171302e+103
-1.3116356e+103
-1.3167899e+103
-1.3119658e+103
-1.3233582e+103
-1.3288225e+103
-1.3292773e+103
-1.323742e+103
-1.3175785e+103
-1.3121853e+103
-1.3173917e+103
-1.3124279e+103
-1.3240308e+103
-1.32956e+103
-1.324213e+103
-1.3297102e+103
-1.2925955e+103
-1.296019e+103
-1.2962989e+103
-1.2928672e+103
-1.293046e+103
-1.2964948e+103
-1.2966829e+103
-1.2932475e+103
-1.3013804e+103
-1.3051013e+103
-1.3054503e+103
-1.3017002e+103
-1.3018879e+103
-1.3056483e+103
-1.3058596e+103
-1.3021135e+103
-1.2934003e+103
-1.2968629e+103
-1.2970638e+103
-1.2936059e+103
-1.2938878e+103
-1.2937221e+103
-1.2972051e+103
-1.2973661e+103
-1.3022597e+103