/*--------------------------------*- C++ -*----------------------------------*\
  =========                 |
  \\      /  F ield         | OpenFOAM: The Open Source CFD Toolbox
   \\    /   O peration     | Website:  https://openfoam.org
    \\  /    A nd           | Version:  7
     \\/     M anipulation  |
\*---------------------------------------------------------------------------*/
FoamFile
{
    version     2.0;
    format      ascii;
    class       volVectorField;
    location    "9000";
    object      U;
}
// * * * * * * * * * * * * * * * * * * * * * * * * * * * * * * * * * * * * * //

dimensions      [0 1 -1 0 0 0 0];

internalField   nonuniform List<vector> 
34377
(
(-4.7671529e+52 -4.9174682e+51 5.4768433e+51)
(-4.4966164e+52 -6.2850529e+51 6.1776657e+50)
(-3.7286458e+52 -5.0105895e+51 4.7001844e+51)
(-3.9163825e+52 7.0100537e+50 5.2238244e+51)
(-3.6083009e+52 -5.604163e+51 8.0534274e+51)
(-4.1687324e+52 -1.0037054e+52 4.1814527e+51)
(-3.6213402e+52 -3.2107638e+51 8.9777186e+51)
(-4.7769553e+52 -3.9909364e+51 2.9884189e+51)
(-3.8327508e+52 -2.4358164e+51 3.117781e+51)
(-3.7660121e+52 -4.3705372e+51 2.5981311e+51)
(-3.8363352e+52 8.9417577e+49 -4.4679158e+51)
(-3.3654657e+52 8.0939758e+50 2.9390989e+51)
(-3.7236757e+52 -5.2510725e+51 -4.2875572e+51)
(-4.0552112e+52 -1.1806094e+52 2.0719766e+51)
(-3.0796546e+52 -7.3394765e+51 2.1213519e+51)
(-3.6380296e+52 -3.1470068e+51 5.4379532e+51)
(-3.3614067e+52 -3.0485576e+51 7.189402e+51)
(-3.0361425e+52 -2.9028738e+51 4.3780302e+51)
(-3.1175176e+52 -6.1544051e+50 4.6533206e+51)
(-3.3976045e+52 -2.6404602e+51 7.7343481e+51)
(-3.0907469e+52 -1.7156226e+51 4.3054579e+51)
(-3.1350247e+52 6.5246025e+50 4.7991918e+51)
(-3.3441538e+52 -1.4120598e+51 7.8426039e+51)
(-3.3636312e+52 -1.5928951e+51 7.4092993e+51)
(-3.3188831e+52 -6.6806928e+51 8.2404987e+51)
(-3.4564723e+52 -6.6507037e+51 4.4960588e+51)
(-3.2935958e+52 -7.1634026e+51 7.2649128e+51)
(-4.625631e+52 -5.5930292e+51 2.924796e+51)
(-3.8010502e+52 -2.4213305e+51 4.6188525e+51)
(-3.5410162e+52 -3.3475408e+51 -2.9585084e+51)
(-3.6180958e+52 -1.9210286e+51 -2.4745332e+51)
(-4.5607994e+52 -3.5600056e+51 1.7173945e+51)
(-3.1625492e+52 -2.2799686e+51 3.6831632e+51)
(-3.0071158e+52 -5.2458366e+51 4.3820743e+51)
(-3.1096593e+52 -4.2085158e+51 -1.9910132e+51)
(-3.1836543e+52 -4.2200286e+51 -2.8255878e+51)
(-3.7880382e+52 -3.7724758e+51 5.0983297e+51)
(-3.4200783e+52 -1.0227149e+51 4.1292291e+51)
(-3.424238e+52 -1.2148912e+51 3.650503e+51)
(-3.5110826e+52 -5.7959841e+51 1.9442097e+51)
(-3.6603599e+52 -4.8789221e+51 3.0201024e+51)
(-3.3849186e+52 -2.4114248e+51 3.5643436e+51)
(-3.4450314e+52 -1.9544008e+51 4.1394874e+51)
(-2.9869519e+52 -2.6199946e+51 -2.6282412e+51)
(-3.0682451e+52 -2.1379721e+51 -5.3856657e+51)
(-3.0563597e+52 -1.7423995e+51 -5.7217409e+51)
(-3.0059886e+52 -4.7873899e+50 -2.7451028e+51)
(-2.7472479e+52 -1.0144686e+50 -4.6185713e+51)
(-2.2495759e+52 -3.9181636e+51 2.3947135e+51)
(-2.7127324e+52 -2.6236371e+51 -4.4674328e+51)
(-2.3681303e+52 6.3480742e+50 2.9637982e+51)
(-3.7702654e+52 -3.041318e+51 -4.0056123e+51)
(-2.956291e+52 -3.5388276e+51 -2.6413136e+51)
(-3.0399857e+52 -2.8520944e+51 -5.2232404e+51)
(-3.0181644e+52 -2.5931693e+51 -5.6886439e+51)
(-2.9741201e+52 -1.4913859e+51 -2.7478625e+51)
(-3.5923342e+52 -7.3089281e+51 -3.5906677e+51)
(-2.7787023e+52 -9.6469461e+51 2.1068632e+51)
(-3.0750218e+52 -3.8156318e+51 2.9655075e+51)
(-2.6678191e+52 -3.6124421e+51 -4.3917074e+51)
(-2.147444e+52 -5.22999e+51 1.9637162e+51)
(-2.7133443e+52 -1.4204433e+51 -4.5344814e+51)
(-2.2922622e+52 -1.2057856e+51 2.6749613e+51)
(-3.0466194e+52 -1.4735693e+51 5.0793729e+51)
(-2.9534056e+52 -3.2950376e+51 4.3201844e+51)
(-3.1891506e+52 -3.5861042e+51 7.0083749e+51)
(-3.1884333e+52 -3.9760523e+51 7.7565595e+51)
(-2.5197425e+52 -1.7784409e+51 4.3203082e+51)
(-2.5309867e+52 -5.6216161e+50 4.3801778e+51)
(-2.9415986e+52 -1.7266508e+51 5.931997e+51)
(-2.9422632e+52 -1.6941338e+51 6.1834496e+51)
(-2.9775603e+52 -1.2370713e+51 5.9533366e+51)
(-2.5379635e+52 -1.4360542e+51 4.246194e+51)
(-2.5549497e+52 -1.5209807e+50 4.5929597e+51)
(-2.9709477e+52 -1.3136823e+51 6.3514112e+51)
(-2.5342169e+52 -1.1431728e+51 4.2093007e+51)
(-3.0023867e+52 -7.6645492e+50 5.9430599e+51)
(-2.5424794e+52 1.2103965e+50 4.2995443e+51)
(-2.9986888e+52 -6.808136e+50 6.1680767e+51)
(-2.5074827e+52 -6.3808033e+50 3.9966379e+51)
(-2.9537242e+52 -3.4838675e+50 5.8495108e+51)
(-2.5438921e+52 7.0797566e+50 4.4796109e+51)
(-2.9448187e+52 -3.5034274e+50 6.1785807e+51)
(-3.1539243e+52 -3.9239413e+51 6.7029098e+51)
(-2.9035848e+52 -3.8890559e+51 4.1159094e+51)
(-2.9737924e+52 -1.9713784e+51 4.587242e+51)
(-3.1408057e+52 -3.9476571e+51 7.3127896e+51)
(-3.4696476e+52 -3.2328967e+51 -2.421937e+51)
(-3.4279381e+52 -4.3791514e+51 -2.9121289e+51)
(-3.6662739e+52 -3.5671107e+51 4.6806675e+51)
(-3.5980308e+52 -5.5728193e+51 4.8565322e+51)
(-4.4582092e+52 -4.5528733e+51 1.9145394e+51)
(-2.8662442e+52 -6.2381633e+51 4.2714485e+51)
(-3.0429666e+52 -3.6445752e+51 3.5164188e+51)
(-2.9515901e+52 -6.0527636e+51 -2.934491e+51)
(-2.9481633e+52 -5.3463535e+51 -2.1230575e+51)
(-3.4538078e+52 -1.5278372e+51 4.0252979e+51)
(-3.427776e+52 -2.691477e+51 4.2259033e+51)
(-3.3167752e+52 -9.2814153e+50 -1.0822946e+51)
(-3.3108945e+52 -1.9687163e+51 -1.2492127e+51)
(-3.2766566e+52 -8.9660685e+50 1.0886626e+51)
(-3.0319007e+52 -1.4709312e+51 -2.9383735e+51)
(-3.0859276e+52 -6.259391e+50 -2.5230332e+51)
(-3.2624215e+52 -1.7593592e+51 1.387691e+51)
(-3.578089e+52 -1.9389127e+51 3.5465503e+51)
(-3.293261e+52 -2.1044338e+50 1.2667473e+51)
(-3.0514342e+52 -8.7762293e+50 -3.0162944e+51)
(-3.1111043e+52 -2.2633954e+50 -2.4734193e+51)
(-3.2955198e+52 -1.3710817e+51 1.7682866e+51)
(-3.562989e+52 -3.6880181e+51 4.0081098e+51)
(-3.2084456e+52 -3.6978538e+51 -1.1313673e+51)
(-3.2599017e+52 -2.102651e+51 -7.9789626e+50)
(-2.9554657e+52 -4.5610727e+51 4.0404232e+51)
(-2.9677534e+52 -3.9703792e+51 -3.3939241e+51)
(-2.9725434e+52 -3.2590078e+51 -2.7309144e+51)
(-3.0898863e+52 -1.9137139e+51 3.5863069e+51)
(-3.4340659e+52 -4.5813856e+50 4.0124696e+51)
(-3.3443936e+52 -1.0268609e+51 -1.0494364e+51)
(-3.3461325e+52 -4.0262271e+50 -8.8752768e+50)
(-3.4033868e+52 -1.8492435e+51 4.2653137e+51)
(-2.9751136e+52 -4.1251977e+50 4.0861459e+51)
(-2.9820257e+52 -1.5553625e+50 3.7161189e+51)
(-2.9904238e+52 -6.5128681e+50 3.6567314e+51)
(-3.0050549e+52 -6.0265585e+50 3.8812536e+51)
(-3.2715479e+52 -3.2177294e+51 3.7240563e+51)
(-3.2211279e+52 -3.398023e+51 3.0801611e+51)
(-3.2631617e+52 -2.8361046e+51 3.1684475e+51)
(-3.3298949e+52 -2.9966278e+51 4.1281e+51)
(-2.9517459e+52 -1.5123041e+51 3.8091758e+51)
(-2.9306633e+52 -1.4850119e+51 3.5452811e+51)
(-2.9685975e+52 -1.2107431e+51 3.9498364e+51)
(-2.9720838e+52 -9.9449187e+50 3.5400285e+51)
(-3.9329747e+52 -3.4556546e+51 -3.7479935e+51)
(-3.9659279e+52 -2.683401e+51 -3.8643324e+51)
(-3.3543224e+52 -1.4904807e+51 -4.8670699e+51)
(-3.2086816e+52 -1.9520929e+51 -6.3532277e+50)
(-3.215593e+52 -1.3331423e+51 -1.0411754e+51)
(-3.3538782e+52 -1.2482415e+51 -5.0590329e+51)
(-2.423423e+52 -1.0634457e+51 -5.6342987e+51)
(-2.105938e+52 -1.3874042e+51 -3.9092825e+51)
(-2.0990268e+52 -2.035147e+50 -4.0299514e+51)
(-2.3989962e+52 -1.0823731e+51 -5.7569589e+51)
(-1.6510007e+52 -2.1605017e+51 -3.51966e+51)
(-1.6783221e+52 -9.2054048e+50 -3.4136973e+51)
(-1.5980825e+52 -2.8608948e+51 3.1510747e+51)
(-1.6519201e+52 -2.1219829e+50 3.6015371e+51)
(-2.3929447e+52 -1.3754095e+51 -5.6661256e+51)
(-2.399517e+52 -1.4697296e+51 -5.4507086e+51)
(-2.0983859e+52 -6.3236181e+50 -3.956489e+51)
(-2.0947992e+52 -1.8745015e+51 -3.8908084e+51)
(-1.6543447e+52 -1.7066249e+51 -3.4657246e+51)
(-1.6776371e+52 6.0840849e+50 3.7493789e+51)
(-1.6034019e+52 -2.3394203e+51 3.2732646e+51)
(-2.9113076e+52 -4.2046492e+51 -2.3214635e+51)
(-3.0351046e+52 -3.6309618e+51 -5.0135533e+51)
(-3.000185e+52 -3.4030571e+51 -5.4529176e+51)
(-2.9290251e+52 -2.3157173e+51 -2.5868555e+51)
(-3.3060469e+52 -2.1742827e+51 -4.7812241e+51)
(-3.174253e+52 -2.4885775e+51 -6.5214322e+50)
(-3.2396552e+52 -1.9754827e+51 -1.1673387e+51)
(-3.3160168e+52 -2.0131769e+51 -4.9810409e+51)
(-2.9400865e+52 -4.0176541e+51 -5.2656296e+51)
(-2.9586316e+52 -4.1988302e+51 -4.6977802e+51)
(-2.8430139e+52 -4.8507035e+51 -2.1277119e+51)
(-2.8818657e+52 -2.9711782e+51 -2.3434963e+51)
(-2.5671596e+52 -4.8870097e+51 -3.8803233e+51)
(-2.6298379e+52 -2.8616508e+51 -4.0595766e+51)
(-1.9518725e+52 -6.7910563e+51 1.6945984e+51)
(-2.1167526e+52 -3.2733802e+51 2.525336e+51)
(-2.6321964e+52 -4.2610382e+51 -4.0728475e+51)
(-2.6649455e+52 -2.1481584e+51 -4.2668298e+51)
(-2.0622289e+52 -5.9824563e+51 1.9927138e+51)
(-2.1844421e+52 -2.3395053e+51 2.5889386e+51)
(-2.3656933e+52 -2.0581352e+51 -5.6397269e+51)
(-2.3743475e+52 -2.1173593e+51 -5.3804826e+51)
(-2.0684631e+52 -2.5411765e+51 -3.8826887e+51)
(-2.0800559e+52 -1.3685444e+51 -3.9411436e+51)
(-1.6104626e+52 -2.8930618e+51 -3.5323884e+51)
(-1.6486056e+52 -1.7007348e+51 -3.4273224e+51)
(-1.5357025e+52 -3.6184835e+51 2.6971902e+51)
(-1.6136909e+52 -1.1261985e+51 3.3082999e+51)
(-2.3706833e+52 -1.8290501e+51 -5.76699e+51)
(-2.379996e+52 -1.7615434e+51 -5.4974863e+51)
(-2.0895964e+52 -1.0686465e+51 -4.0631185e+51)
(-2.0824326e+52 -2.1624765e+51 -3.8828497e+51)
(-1.6310607e+52 -2.5300721e+51 -3.5295075e+51)
(-1.6528231e+52 -1.3072948e+51 -3.4894944e+51)
(-1.5821099e+52 -3.2489881e+51 2.9952154e+51)
(-1.627922e+52 -5.5022289e+50 3.3633454e+51)
(-2.500774e+52 -1.7520806e+51 4.2436166e+51)
(-2.5299556e+52 -6.6701247e+50 4.6833154e+51)
(-2.8749792e+52 -2.2522177e+51 6.3904355e+51)
(-2.8857485e+52 -1.9002209e+51 5.9344976e+51)
(-2.4439771e+52 -2.1690498e+51 3.8852977e+51)
(-2.4781366e+52 -9.057085e+50 4.1736792e+51)
(-2.8438544e+52 -2.1876712e+51 5.389011e+51)
(-2.8431924e+52 -2.1792221e+51 5.7346155e+51)
(-2.1969453e+52 -1.2118916e+51 4.3907222e+51)
(-2.1912247e+52 -4.3181597e+50 4.375411e+51)
(-2.5358462e+52 -1.1256869e+51 5.3241441e+51)
(-2.536057e+52 -1.1341583e+51 5.1785649e+51)
(-2.2013281e+52 -1.1428176e+51 4.3201758e+51)
(-2.187451e+52 -2.2078079e+50 4.4886624e+51)
(-2.5355386e+52 -9.8833923e+50 5.4225115e+51)
(-2.5498987e+52 -9.751128e+50 5.2024859e+51)
(-2.204133e+52 -1.0556616e+51 4.3568537e+51)
(-2.1856624e+52 -1.6514323e+50 4.3396306e+51)
(-2.5590887e+52 -7.2018079e+50 5.2689247e+51)
(-2.5653344e+52 -7.864561e+50 5.1181207e+51)
(-2.2166682e+52 -8.3599645e+50 4.4295337e+51)
(-2.1978829e+52 7.8544239e+49 4.5931054e+51)
(-2.5679123e+52 -5.9709835e+50 5.3040602e+51)
(-2.5506962e+52 -6.4443281e+50 5.5097102e+51)
(-2.5873759e+52 -4.2738313e+50 5.2716205e+51)
(-2.2216944e+52 -7.3176832e+50 4.5386768e+51)
(-2.2017887e+52 4.5108553e+49 4.4469334e+51)
(-2.584193e+52 -4.112344e+50 5.3920281e+51)
(-2.2069418e+52 -6.7428914e+50 4.3886972e+51)
(-2.2001662e+52 3.313791e+50 4.5422624e+51)
(-2.5737679e+52 -2.0692232e+50 5.4298038e+51)
(-2.5864771e+52 -2.8746844e+50 5.2370403e+51)
(-2.224126e+52 -4.4025994e+50 4.5692787e+51)
(-2.2155976e+52 4.3909141e+50 4.4902307e+51)
(-2.5801765e+52 -8.5333712e+49 5.1902406e+51)
(-2.5745596e+52 -1.3286517e+49 5.254541e+51)
(-2.5636001e+52 5.0036285e+49 5.2733677e+51)
(-2.2029621e+52 -1.7842319e+50 4.4381558e+51)
(-2.1989775e+52 7.6747936e+50 4.52191e+51)
(-2.5505709e+52 5.3608419e+49 5.395036e+51)
(-2.4361034e+52 -1.4007591e+51 4.0454956e+51)
(-2.8009765e+52 -2.5031085e+51 5.7152056e+51)
(-2.8347817e+52 -2.3715986e+51 5.563225e+51)
(-2.4155589e+52 -2.4891816e+51 3.8947026e+51)
(-2.4472681e+52 -2.2980103e+51 3.900022e+51)
(-2.4693564e+52 -1.1187492e+51 4.3672251e+51)
(-2.8342828e+52 -2.451965e+51 6.1292678e+51)
(-2.8437673e+52 -2.244824e+51 5.6462672e+51)
(-3.2211478e+52 -2.5229917e+51 1.5628241e+51)
(-3.0635005e+52 -1.1584304e+51 -2.4122732e+51)
(-3.0032968e+52 -1.7996641e+51 -3.0435104e+51)
(-3.2294707e+52 -1.2914496e+51 1.0850787e+51)
(-3.3542047e+52 -4.7619632e+51 3.9898743e+51)
(-3.2120697e+52 -1.6307492e+51 1.1630663e+51)
(-2.9699632e+52 -2.180988e+51 -2.8602469e+51)
(-3.0203136e+52 -1.4333415e+51 -2.4344391e+51)
(-3.4704784e+52 -2.8297784e+51 3.6708598e+51)
(-3.1667184e+52 -2.6530417e+51 1.3846212e+51)
(-3.293491e+52 -2.4673187e+51 3.6876874e+51)
(-3.2428736e+52 -3.8917509e+51 3.7773752e+51)
(-3.2288653e+52 -1.9574208e+51 -1.0247142e+51)
(-3.2240484e+52 -2.6692185e+51 -1.2455783e+51)
(-3.2339495e+52 -2.3167703e+51 -1.5378168e+51)
(-3.316473e+52 -1.9327452e+51 3.6611153e+51)
(-3.3145142e+52 -1.702238e+51 -5.6847386e+50)
(-3.3034925e+52 -3.4828854e+51 4.1375597e+51)
(-3.0526616e+52 -3.1544834e+51 -3.1008778e+50)
(-2.8516705e+52 -5.2774749e+51 3.9866167e+51)
(-2.8500953e+52 -4.1143099e+51 -2.8324112e+51)
(-2.8222314e+52 -5.1059337e+51 -3.3956679e+51)
(-3.0098664e+52 -2.8579654e+51 3.5109625e+51)
(-2.9235515e+52 -1.0210688e+51 4.6175309e+50)
(-2.939651e+52 -1.3508652e+51 3.9022365e+50)
(-3.0255971e+52 -9.1897433e+50 3.9807711e+51)
(-3.0037908e+52 -2.0228267e+51 4.0627866e+51)
(-2.9419505e+52 -7.7725246e+50 5.6061053e+50)
(-2.938834e+52 -9.6392893e+50 3.6824657e+50)
(-3.0557951e+52 -4.842112e+50 4.02297e+51)
(-3.0249165e+52 -1.6903437e+51 4.2621371e+51)
(-2.9010849e+52 -4.5989192e+50 1.4470929e+51)
(-2.7737792e+52 -8.473673e+50 -1.3731554e+51)
(-2.7725671e+52 -4.9107699e+50 -1.0831505e+51)
(-2.8927735e+52 -1.2714408e+51 1.7039802e+51)
(-2.9154125e+52 -7.9746422e+50 1.4514628e+51)
(-2.7713335e+52 -7.415022e+50 -1.1726771e+51)
(-2.7766672e+52 -1.2163319e+51 -1.2707544e+51)
(-2.8907598e+52 -1.4917148e+51 1.5594582e+51)
(-2.7876261e+52 -7.2196078e+50 1.8651091e+49)
(-2.7303732e+52 -2.3930253e+50 -1.7079772e+51)
(-2.7215164e+52 -9.4086681e+50 -1.9098881e+51)
(-2.7848857e+52 -1.1123956e+51 1.7755719e+50)
(-2.7810924e+52 -6.6964746e+50 -5.1166811e+49)
(-2.7786032e+52 -3.4611458e+50 -2.3343745e+50)
(-2.6877286e+52 -6.037487e+50 -2.212717e+51)
(-2.6894131e+52 -2.9674835e+48 -1.9905292e+51)
(-3.0386042e+52 -7.7093124e+50 -1.709952e+50)
(-2.7036008e+52 5.179872e+49 -1.826112e+51)
(-2.7022599e+52 -2.9959312e+50 -2.0889868e+51)
(-2.7962433e+52 6.0558928e+48 -6.8175018e+49)
(-3.0828474e+52 -1.7809989e+51 3.1166147e+50)
(-2.7913068e+52 -6.2665523e+50 1.5841705e+50)
(-2.7349696e+52 -2.0591519e+50 -1.6574691e+51)
(-2.7322311e+52 -6.4733684e+50 -1.9339327e+51)
(-2.7774148e+52 -3.487187e+50 -6.4456271e+49)
(-2.7667293e+52 -8.9222284e+50 1.6437498e+50)
(-2.9356058e+52 -8.7412277e+50 -3.0595054e+51)
(-2.8764266e+52 -1.469174e+51 -3.6609937e+51)
(-2.798495e+52 -1.5937834e+50 5.0314692e+49)
(-2.7334037e+52 1.8997268e+50 -1.8484769e+51)
(-2.7382296e+52 -5.1563104e+50 -2.0078183e+51)
(-2.7948176e+52 -5.7693913e+50 1.9587926e+50)
(-2.6976067e+52 3.6009373e+50 -2.0170833e+51)
(-2.7138952e+52 -2.4608615e+50 -2.2233906e+51)
(-2.7958301e+52 -2.7060583e+50 -5.8558902e+49)
(-2.8024557e+52 6.6782173e+49 -2.2051404e+50)
(-3.0467502e+52 -3.7318165e+50 -3.0787828e+50)
(-2.7118258e+52 9.1189655e+49 -1.9554596e+51)
(-2.8038055e+52 3.9906228e+50 3.8308316e+49)
(-2.795608e+52 1.9513945e+50 9.1301519e+49)
(-2.7502323e+52 -1.6197128e+50 -1.7617364e+51)
(-2.7856017e+52 -4.7653613e+50 3.0478521e+50)
(-2.8246456e+52 -1.3988922e+51 -3.9874428e+51)
(-3.6379847e+52 -2.7043151e+51 3.760447e+51)
(-2.7001726e+52 -2.1733282e+51 -4.2581846e+50)
(-3.0908087e+52 -5.5215963e+50 1.8146655e+51)
(-3.092248e+52 -2.3341304e+51 2.1269127e+51)
(-2.7563714e+52 -1.8411369e+51 -2.0793253e+50)
(-2.5572484e+52 -2.1437929e+51 -4.0867099e+50)
(-3.0218085e+52 -7.3858552e+50 1.6819731e+51)
(-3.0529292e+52 -2.1898059e+50 3.9862602e+51)
(-3.0495743e+52 -1.1899595e+51 4.1378075e+51)
(-2.9645808e+52 -7.2335666e+50 2.9697721e+50)
(-2.9565943e+52 -2.5222158e+50 4.2490061e+50)
(-2.9208648e+52 -1.4804735e+50 1.4083879e+51)
(-2.9116076e+52 -8.2335836e+50 1.5086045e+51)
(-2.7960594e+52 -5.562455e+50 -1.1759668e+51)
(-2.7876603e+52 -1.456792e+50 -1.1779876e+51)
(-2.7941769e+52 -7.2483913e+49 -9.2405297e+50)
(-2.8053984e+52 -2.586255e+50 -1.151589e+51)
(-2.9128102e+52 1.9521548e+50 1.5564495e+51)
(-2.8997248e+52 -7.7043504e+50 1.7714724e+51)
(-2.9591237e+52 -1.7997902e+50 6.8636568e+50)
(-2.9642982e+52 -2.9209669e+50 4.2747828e+50)
(-3.0304229e+52 2.8446608e+50 4.0247694e+51)
(-3.0166828e+52 -9.8220722e+50 4.2713073e+51)
(-2.5258105e+52 -1.0129549e+50 3.5485258e+51)
(-2.5385685e+52 1.8075022e+50 3.351246e+51)
(-2.5445398e+52 -1.6634997e+49 3.232232e+51)
(-2.5413309e+52 -5.1915953e+49 3.3033658e+51)
(-2.5411492e+52 -3.6239145e+50 3.2560753e+51)
(-2.5452871e+52 -4.3713545e+50 3.3539443e+51)
(-2.5401552e+52 -1.6206723e+50 3.1504449e+51)
(-2.532675e+52 -2.7205772e+50 3.3800123e+51)
(-2.835134e+52 -1.9318784e+51 3.1464065e+51)
(-2.8587462e+52 -2.1922717e+51 3.7044104e+51)
(-2.8379697e+52 -2.1183612e+51 3.2650707e+51)
(-2.8352488e+52 -2.3203941e+51 3.4330694e+51)
(-2.8437578e+52 -1.8891572e+51 3.0828444e+51)
(-2.880746e+52 -1.9279092e+51 3.4913828e+51)
(-2.9168462e+52 -1.9639681e+51 4.0862619e+51)
(-2.9012963e+52 -1.4989853e+51 3.5177392e+51)
(-2.5116815e+52 -7.9121673e+50 3.1360371e+51)
(-2.5117846e+52 -9.6614668e+50 3.431598e+51)
(-2.5059096e+52 -9.9439349e+50 3.2574309e+51)
(-2.5224968e+52 -1.0946211e+51 3.4286634e+51)
(-2.5203647e+52 -6.9195644e+50 3.4938379e+51)
(-2.5283778e+52 -4.4617723e+50 3.2289468e+51)
(-2.5242341e+52 -6.6184379e+50 3.1318494e+51)
(-2.5301697e+52 -7.3297179e+50 3.277614e+51)
(-3.8524815e+52 -4.6073529e+51 -3.4506401e+51)
(-3.7519096e+52 -5.1451464e+51 -3.2497312e+51)
(-3.8921258e+52 -2.9832768e+51 -2.3669767e+51)
(-3.3960595e+52 -1.2959857e+51 -3.687051e+51)
(-2.5508799e+52 -1.2020836e+51 -3.5545406e+51)
(-2.5432622e+52 -1.3671793e+51 -3.3039118e+51)
(-2.5505542e+52 -9.4144337e+50 -3.6027924e+51)
(-2.5701677e+52 -9.9740926e+50 -3.4557493e+51)
(-2.4581143e+52 -6.7393033e+50 -5.8621408e+51)
(-1.3821909e+52 -1.1828222e+51 -5.0183138e+51)
(-1.3820928e+52 -1.1678519e+51 -5.0575168e+51)
(-1.2323031e+52 -1.6745257e+51 -3.3191347e+51)
(-1.2416223e+52 -8.4211182e+50 -3.2155081e+51)
(-1.3767619e+52 -1.0228011e+51 -5.0121571e+51)
(-1.3781385e+52 -9.9229288e+50 -5.1378571e+51)
(-1.2292583e+52 -1.520092e+51 -3.2122439e+51)
(-1.2371727e+52 -6.3504108e+50 -3.2837583e+51)
(-9.7881724e+51 -1.7421456e+51 -3.955295e+49)
(-1.0023903e+52 -1.2307996e+51 4.5278923e+50)
(-1.4744258e+52 -1.3631999e+50 4.0735099e+51)
(-1.4644511e+52 -1.6296285e+51 3.9195183e+51)
(-1.4785222e+52 -1.5734144e+51 3.9687343e+51)
(-1.4963077e+52 2.4745863e+50 4.2499324e+51)
(-9.8659561e+51 -1.5931716e+51 1.8688847e+50)
(-9.9881585e+51 -9.3367351e+50 3.4620836e+50)
(-2.4403043e+52 -9.5940283e+50 -5.9135185e+51)
(-2.4454666e+52 -1.0548358e+51 -5.807523e+51)
(-1.3839646e+52 -8.3416643e+50 -5.0131256e+51)
(-1.3796e+52 -8.12289e+50 -5.0305768e+51)
(-1.234415e+52 -1.3359085e+51 -3.2337148e+51)
(-1.2417229e+52 -4.5585306e+50 -3.122762e+51)
(-1.0033296e+52 -1.1239316e+51 4.6910606e+50)
(-1.495884e+52 -1.0244914e+51 4.1373146e+51)
(-9.8658923e+51 -1.3768903e+51 1.3790974e+50)
(-1.4846231e+52 -1.3512373e+51 4.0885585e+51)
(-1.0143564e+52 -7.9912431e+50 6.6092864e+50)
(-1.5034783e+52 2.89183e+50 4.3046193e+51)
(-3.2681345e+52 -2.8224812e+51 -4.4595102e+51)
(-3.1518133e+52 -3.2576048e+51 -4.1245401e+50)
(-3.1746664e+52 -2.6801543e+51 -1.0202239e+51)
(-3.2721517e+52 -2.6567651e+51 -4.7193779e+51)
(-3.3475358e+52 -1.7948654e+51 -3.6938858e+51)
(-2.5268538e+52 -1.9194526e+51 -3.2672171e+51)
(-2.5306987e+52 -1.7677515e+51 -3.6071868e+51)
(-3.1815293e+52 -1.6016438e+51 -3.1187334e+51)
(-3.2159491e+52 -2.8210905e+51 -3.6730523e+51)
(-3.3666891e+52 -1.6584141e+51 -3.7957201e+51)
(-2.5262934e+52 -1.6060774e+51 -3.3557931e+51)
(-2.5390978e+52 -1.5639559e+51 -3.6902653e+51)
(-3.1740474e+52 -3.1881596e+51 -9.727446e+50)
(-3.0646734e+52 -3.6407164e+51 -3.1395563e+50)
(-3.1931683e+52 -3.314102e+51 -4.2785496e+51)
(-3.2194256e+52 -3.2482134e+51 -4.5605576e+51)
(-1.9807041e+52 -3.4958767e+51 -3.4555198e+51)
(-2.3078184e+52 -3.0393495e+51 -4.8874921e+51)
(-2.298484e+52 -2.9414527e+51 -5.1746239e+51)
(-2.0033016e+52 -2.3508831e+51 -3.5148798e+51)
(-2.0035657e+52 -3.2190502e+51 -3.520617e+51)
(-2.3147884e+52 -2.7816518e+51 -5.0868246e+51)
(-2.2976077e+52 -2.8670358e+51 -5.4103581e+51)
(-2.0172767e+52 -2.1989036e+51 -3.7325956e+51)
(-1.5134912e+52 -3.872589e+51 -3.2520951e+51)
(-1.5617461e+52 -2.7282937e+51 -3.1191664e+51)
(-1.3928691e+52 -4.6737056e+51 2.2485541e+51)
(-1.4919866e+52 -2.3068554e+51 3.0383953e+51)
(-1.5511941e+52 -3.6034907e+51 -3.2965468e+51)
(-1.5741884e+52 -2.4905017e+51 -3.2983024e+51)
(-1.4450119e+52 -4.4123395e+51 2.4654242e+51)
(-1.5101537e+52 -1.9727486e+51 3.0065357e+51)
(-2.0322011e+52 -3.090109e+51 -3.6060739e+51)
(-2.3448287e+52 -2.6427693e+51 -5.1163078e+51)
(-2.3319814e+52 -2.4924079e+51 -5.3893229e+51)
(-2.0471867e+52 -1.8441444e+51 -3.6886451e+51)
(-2.0434926e+52 -2.6836334e+51 -3.7082776e+51)
(-2.3473679e+52 -2.2845778e+51 -5.3058455e+51)
(-2.3354353e+52 -2.3801192e+51 -5.6135932e+51)
(-2.0575394e+52 -1.6505019e+51 -3.9405544e+51)
(-1.5689565e+52 -3.4350271e+51 -3.4351485e+51)
(-1.6084918e+52 -2.1858856e+51 -3.2736689e+51)
(-1.4580733e+52 -4.2267958e+51 2.3713846e+51)
(-1.5457382e+52 -1.6758225e+51 3.0961701e+51)
(-1.6127418e+52 -1.9181783e+51 -3.4151783e+51)
(-1.5076516e+52 -3.7430539e+51 2.6734348e+51)
(-1.5869904e+52 -3.053788e+51 -3.3865657e+51)
(-1.5703912e+52 -1.31722e+51 3.129004e+51)
(-2.4074842e+52 -1.5225802e+51 -5.656788e+51)
(-2.4101379e+52 -1.4888751e+51 -5.7911754e+51)
(-1.3710049e+52 -1.7768892e+51 -4.9497932e+51)
(-1.3728983e+52 -1.7325256e+51 -5.0104235e+51)
(-1.1980833e+52 -2.1693062e+51 -3.3748e+51)
(-1.2199088e+52 -1.3347529e+51 -3.2213741e+51)
(-1.369888e+52 -1.6253324e+51 -4.9668575e+51)
(-1.3707766e+52 -1.622292e+51 -5.1213453e+51)
(-1.2037848e+52 -2.0462971e+51 -3.2705981e+51)
(-1.2169865e+52 -1.2251254e+51 -3.3226148e+51)
(-1.4343961e+52 -2.1487101e+51 3.5963133e+51)
(-1.4677362e+52 -6.5361471e+50 3.9772208e+51)
(-9.432226e+51 -2.3449735e+51 -3.6967824e+50)
(-9.903702e+51 -1.7617434e+51 3.2851963e+50)
(-1.4515077e+52 -2.0652798e+51 3.7251596e+51)
(-1.4713767e+52 -3.6959864e+50 4.0156752e+51)
(-9.6128475e+51 -2.2050702e+51 -9.1698886e+49)
(-9.7937187e+51 -1.5775582e+51 1.6477232e+50)
(-2.4252685e+52 -1.2618794e+51 -5.9174829e+51)
(-2.4294618e+52 -1.2697221e+51 -5.7230638e+51)
(-1.3772482e+52 -1.4685515e+51 -4.9795323e+51)
(-1.3788472e+52 -1.4191383e+51 -5.03724e+51)
(-1.2170668e+52 -1.927082e+51 -3.3368526e+51)
(-1.2341386e+52 -1.0453685e+51 -3.2050472e+51)
(-1.3797293e+52 -1.3100775e+51 -5.0422099e+51)
(-1.3765286e+52 -1.3326319e+51 -5.1780857e+51)
(-1.2207717e+52 -1.7557192e+51 -3.2598301e+51)
(-1.2259813e+52 -9.5214911e+50 -3.3417785e+51)
(-9.6120632e+51 -2.0795825e+51 -2.6097751e+50)
(-1.4460707e+52 -1.9799846e+51 3.6487993e+51)
(-9.9866301e+51 -1.4603377e+51 3.8802471e+50)
(-1.4711619e+52 -3.5036713e+50 3.9582968e+51)
(-9.7835229e+51 -1.8504567e+51 6.8390784e+49)
(-9.877064e+51 -1.2326351e+51 2.544166e+50)
(-1.4703564e+52 -1.7386322e+51 3.8289109e+51)
(-1.4809848e+52 -2.0642424e+49 4.0596543e+51)
(-2.1750021e+52 -1.2608838e+51 4.2195369e+51)
(-2.1679129e+52 -4.006502e+50 4.2619447e+51)
(-2.5194382e+52 -1.1682018e+51 5.1733351e+51)
(-2.5196761e+52 -1.2036177e+51 4.9781065e+51)
(-2.1831688e+52 -1.0836192e+51 4.3266074e+51)
(-2.5225886e+52 -1.131263e+51 5.2800989e+51)
(-2.1808133e+52 -2.9434016e+50 4.5049855e+51)
(-2.5068397e+52 -1.3301005e+51 5.4852081e+51)
(-2.1181617e+52 -1.5186789e+51 3.9557483e+51)
(-2.1259186e+52 -7.2363834e+50 4.0325528e+51)
(-2.4709337e+52 -1.4814183e+51 4.6916208e+51)
(-2.4751816e+52 -1.4566613e+51 4.8772263e+51)
(-2.493595e+52 -1.3509213e+51 4.8812916e+51)
(-2.136096e+52 -1.3973518e+51 4.0095561e+51)
(-2.1517015e+52 -4.8234063e+50 4.298422e+51)
(-2.4841502e+52 -1.380877e+51 5.1387661e+51)
(-1.7818333e+52 -4.9655179e+50 4.1936833e+51)
(-1.7720316e+52 -1.272324e+51 4.230158e+51)
(-2.2245535e+52 -7.0606377e+50 4.4364038e+51)
(-2.2207844e+52 -7.1656787e+50 4.4427271e+51)
(-1.7773518e+52 -3.490283e+50 4.3692468e+51)
(-1.7642287e+52 -1.2017678e+51 4.1504333e+51)
(-2.232575e+52 -6.8769369e+50 4.4432816e+51)
(-2.2236327e+52 -7.2525142e+50 4.4429113e+51)
(-1.7764989e+52 -2.8360132e+50 4.1986525e+51)
(-1.7569372e+52 -1.2608885e+51 4.1524985e+51)
(-2.2272957e+52 -6.6341266e+50 4.3027189e+51)
(-2.231803e+52 -5.2406105e+50 4.4099554e+51)
(-1.7688055e+52 -1.4510325e+50 4.4408718e+51)
(-1.7613294e+52 -9.8270165e+50 4.2346361e+51)
(-2.2209732e+52 -5.1203061e+50 4.344665e+51)
(-2.2116527e+52 -5.4808174e+50 4.4464956e+51)
(-1.777407e+52 -2.4251698e+50 4.210159e+51)
(-1.7641154e+52 -1.1079797e+51 4.2324412e+51)
(-2.229964e+52 -5.2261008e+50 4.2058394e+51)
(-2.2365007e+52 -4.3630597e+50 4.4398615e+51)
(-1.7690698e+52 -1.8998605e+49 4.4183053e+51)
(-1.7629705e+52 -9.5077232e+50 4.2063782e+51)
(-2.2358835e+52 -4.1823882e+50 4.2477916e+51)
(-2.2267531e+52 -3.7275203e+50 4.3495306e+51)
(-2.2380082e+52 -3.1618441e+50 4.3455647e+51)
(-1.7689965e+52 -9.4818271e+50 4.2784848e+51)
(-1.7775616e+52 3.62303e+49 4.268724e+51)
(-2.2393814e+52 -1.9338106e+50 4.4573564e+51)
(-1.7656771e+52 1.2069651e+50 4.4825181e+51)
(-1.7597787e+52 -6.9482405e+50 4.3096868e+51)
(-2.2227581e+52 -2.1360483e+50 4.3534346e+51)
(-2.213676e+52 -2.4787266e+50 4.4530316e+51)
(-1.7769517e+52 1.3326447e+49 4.3040918e+51)
(-1.7875532e+52 -8.1808434e+50 4.4096332e+51)
(-2.2526676e+52 -2.0901075e+50 4.4782887e+51)
(-2.2417251e+52 -1.8184615e+50 4.4145721e+51)
(-1.7939978e+52 1.6921888e+50 4.4970007e+51)
(-1.77866e+52 -7.1092109e+50 4.3204992e+51)
(-2.2463067e+52 -2.0148764e+50 4.2934098e+51)
(-2.2466559e+52 -1.4633088e+50 4.5128158e+51)
(-1.7758813e+52 -7.9757996e+50 4.3417179e+51)
(-2.2440563e+52 -1.6014384e+50 4.2247894e+51)
(-1.7763075e+52 2.2618703e+50 4.3132312e+51)
(-2.2474922e+52 7.3955148e+48 4.4231051e+51)
(-2.2297977e+52 2.0386771e+48 4.2609171e+51)
(-1.7646226e+52 -5.2985403e+50 4.3080015e+51)
(-1.7660788e+52 3.8565113e+50 4.4257925e+51)
(-2.2205324e+52 5.0405112e+49 4.3426155e+51)
(-1.773629e+52 3.0046025e+50 4.3411464e+51)
(-1.783093e+52 -5.6096831e+50 4.4472819e+51)
(-2.2508686e+52 3.4386723e+49 4.2571213e+51)
(-2.2491813e+52 1.1183974e+50 4.3374158e+51)
(-2.2487927e+52 1.1145998e+50 4.2042932e+51)
(-1.7696461e+52 -3.7665454e+50 4.3113023e+51)
(-1.788434e+52 5.5023265e+50 4.4147539e+51)
(-2.2484544e+52 2.3969134e+50 4.3844095e+51)
(-1.7702582e+52 6.386173e+50 4.3351934e+51)
(-1.7805337e+52 -3.8135657e+50 4.4665555e+51)
(-2.2463381e+52 1.9909941e+50 4.2638148e+51)
(-2.2426546e+52 3.3633326e+50 4.3060796e+51)
(-1.7651436e+52 6.6129551e+50 4.4270607e+51)
(-1.7596839e+52 -1.5234375e+50 4.3297558e+51)
(-2.2293827e+52 2.546143e+50 4.3218094e+51)
(-2.2232175e+52 2.6201349e+50 4.3922073e+51)
(-2.0971874e+52 -1.8023397e+51 3.8376807e+51)
(-2.1121802e+52 -8.7488921e+50 4.1193658e+51)
(-2.4552234e+52 -1.6888014e+51 4.7464782e+51)
(-2.444547e+52 -1.7022694e+51 4.9886373e+51)
(-2.0968596e+52 -1.7077573e+51 3.9664493e+51)
(-2.0896198e+52 -1.0549993e+51 4.0075461e+51)
(-2.4555192e+52 -1.6383025e+51 4.8393605e+51)
(-2.4575234e+52 -1.6800065e+51 4.9958502e+51)
(-2.4778662e+52 -1.5356813e+51 4.7784644e+51)
(-2.1107088e+52 -1.7320187e+51 3.8998936e+51)
(-2.1107763e+52 -8.8180547e+50 3.9961864e+51)
(-2.4707328e+52 -1.5133092e+51 4.8813017e+51)
(-2.1275387e+52 -1.5171671e+51 4.0118422e+51)
(-2.1166022e+52 -6.6737372e+50 4.2179268e+51)
(-2.4785311e+52 -1.4467864e+51 4.9559372e+51)
(-2.4586262e+52 -1.5716056e+51 5.1669904e+51)
(-2.7318876e+52 -6.3208937e+50 -1.4048982e+51)
(-2.7283713e+52 -8.654412e+50 -1.7167194e+51)
(-2.7713745e+52 -1.3831399e+51 4.6823599e+50)
(-2.7887389e+52 -5.5937292e+50 2.3527463e+50)
(-2.7763428e+52 -1.0164247e+51 2.2204864e+50)
(-2.787934e+52 -2.7902242e+50 -2.0201045e+49)
(-2.6924544e+52 -5.0732417e+50 -2.0230866e+51)
(-2.6929518e+52 -2.622174e+50 -1.7337405e+51)
(-3.0466704e+52 -2.0831721e+51 2.9828139e+50)
(-2.7638843e+52 -5.4998709e+50 -2.5453609e+50)
(-2.6677714e+52 -2.0935129e+50 -2.025519e+51)
(-2.6554814e+52 -8.5161975e+50 -2.2690353e+51)
(-2.7556578e+52 -9.1284222e+50 -1.0967004e+50)
(-3.0105552e+52 -1.1255473e+51 -2.6536346e+50)
(-2.6916276e+52 -5.5628135e+50 -1.8644985e+51)
(-2.6980363e+52 -1.1121653e+51 -1.934047e+51)
(-2.7417904e+52 -9.7073818e+50 -1.9051096e+50)
(-2.7254906e+52 -1.417089e+51 -8.5357436e+49)
(-2.7725555e+52 -1.9793022e+51 -3.9708158e+51)
(-2.9146207e+52 -1.0263316e+51 -3.0633089e+51)
(-2.6923563e+52 -8.4272074e+50 -1.6302994e+51)
(-2.7391132e+52 -1.7419804e+51 1.9494324e+50)
(-2.7462691e+52 -1.2427193e+51 -8.5024987e+48)
(-2.6548701e+52 -5.5928954e+50 -1.914411e+51)
(-2.6683838e+52 -8.4635647e+50 -2.0353776e+51)
(-2.7540828e+52 -5.8600156e+50 -4.6024195e+49)
(-3.0069259e+52 -2.526062e+51 3.4001982e+50)
(-2.6393003e+52 -5.9988781e+50 -2.0841477e+51)
(-2.7160215e+52 -1.2883739e+51 7.8346202e+49)
(-2.8596985e+52 -1.52142e+51 -2.9364284e+51)
(-2.6775845e+52 -8.6904805e+50 -1.6490762e+51)
(-2.7054873e+52 -1.6524984e+51 1.3309733e+50)
(-2.6810749e+52 -1.252604e+51 -1.9249655e+51)
(-2.7256469e+52 -1.0394271e+51 -6.7943818e+49)
(-2.9172482e+52 -1.6366747e+51 3.790781e+51)
(-2.8463518e+52 -1.7123267e+51 4.4373023e+50)
(-2.8860725e+52 -2.8161677e+51 3.7523523e+51)
(-2.8621613e+52 -1.6422304e+51 5.9254617e+50)
(-2.8422288e+52 -1.8260149e+51 1.776905e+50)
(-2.9026754e+52 -2.6315997e+51 4.0272179e+51)
(-2.9191281e+52 -1.3964218e+51 3.7712113e+51)
(-2.8237656e+52 -1.2753432e+51 1.3656674e+51)
(-2.7093911e+52 -1.5622869e+51 -1.3634653e+51)
(-2.8055398e+52 -2.191924e+51 1.6275767e+51)
(-2.7143455e+52 -1.3188539e+51 -1.0271934e+51)
(-2.723422e+52 -1.3873173e+51 -1.0955398e+51)
(-2.8088487e+52 -2.220901e+51 1.4736179e+51)
(-2.7182734e+52 -1.4793241e+51 -1.4540747e+51)
(-2.73314e+52 -9.9233677e+50 -1.2314412e+51)
(-2.8298167e+52 -1.7969216e+51 1.357482e+51)
(-2.8401733e+52 -1.130628e+51 1.2026275e+51)
(-2.879241e+52 -1.310461e+51 3.6795091e+50)
(-2.8572601e+52 -1.7156138e+51 1.0637638e+50)
(-2.9307295e+52 -1.3965723e+51 3.5717416e+51)
(-2.9232202e+52 -2.4346806e+51 3.7199743e+51)
(-2.8761111e+52 -8.0377315e+50 1.5460311e+51)
(-2.7675798e+52 -1.0880817e+51 -1.14144e+51)
(-2.7675771e+52 -1.0782062e+51 -8.1929093e+50)
(-2.8554408e+52 -1.9160133e+51 1.8155331e+51)
(-2.9187105e+52 -1.3982358e+51 7.9647672e+50)
(-2.9101322e+52 -1.3514918e+51 4.4484874e+50)