/*--------------------------------*- C++ -*----------------------------------*\
  =========                 |
  \\      /  F ield         | OpenFOAM: The Open Source CFD Toolbox
   \\    /   O peration     | Website:  https://openfoam.org
    \\  /    A nd           | Version:  7
     \\/     M anipulation  |
\*---------------------------------------------------------------------------*/
FoamFile
{
    version     2.0;
    format      ascii;
    class       volVectorField;
    location    "9000";
    object      UMean;
}
// * * * * * * * * * * * * * * * * * * * * * * * * * * * * * * * * * * * * * //

dimensions      [0 1 -1 0 0 0 0];

internalField   nonuniform List<vector> 
34377
(
(-3.0993593e+50 -1.0161088e+49 3.1689388e+49)
(-2.7665068e+50 -2.4060336e+49 4.8082695e+48)
(-2.7614897e+50 -1.1400364e+49 3.9632229e+49)
(-2.7416116e+50 1.5589908e+47 3.9834583e+49)
(-2.9770366e+50 -6.9104741e+46 3.5384052e+49)
(-2.9792822e+50 -2.131102e+49 2.7180869e+49)
(-2.938398e+50 -6.379548e+47 3.4670682e+49)
(-3.7402315e+50 1.0591646e+48 7.4104722e+48)
(-2.889081e+50 7.8788176e+47 2.3607526e+49)
(-2.9042981e+50 2.0410756e+48 2.395799e+49)
(-2.6202691e+50 -1.4404111e+48 -2.9647625e+49)
(-2.1139148e+50 -2.6915852e+48 1.838581e+48)
(-2.6390106e+50 -1.3384987e+49 -3.0593154e+49)
(-2.6882861e+50 -3.5353204e+49 2.6451743e+48)
(-2.1071796e+50 -2.2509514e+49 1.8597626e+48)
(-2.6886791e+50 -7.4300979e+48 3.8508808e+49)
(-2.8189357e+50 1.4766525e+48 3.7062733e+49)
(-2.3030497e+50 -5.9282706e+48 3.0734815e+49)
(-2.3094099e+50 -2.8733133e+48 3.055389e+49)
(-2.8240473e+50 -3.3891001e+48 3.7038165e+49)
(-2.3204292e+50 -3.2872329e+48 2.9982805e+49)
(-2.2996086e+50 4.3192049e+47 3.0272471e+49)
(-2.7756842e+50 -1.4019142e+48 3.5656397e+49)
(-2.8058755e+50 3.9032369e+48 3.581271e+49)
(-2.893275e+50 -7.5157706e+48 3.2504935e+49)
(-2.7117405e+50 -1.6898619e+49 3.7396945e+49)
(-2.8954925e+50 -4.3593523e+48 3.1712513e+49)
(-3.7110818e+50 -4.5778978e+48 7.0240029e+48)
(-3.0431039e+50 3.7351966e+48 1.3266661e+49)
(-2.8882826e+50 2.9330985e+48 -6.0035882e+48)
(-2.8869819e+50 2.3673305e+48 -5.5061207e+48)
(-3.6207364e+50 1.4748898e+48 -5.2536353e+48)
(-2.4860889e+50 5.686142e+48 -6.4473729e+47)
(-2.4501502e+50 1.4690956e+48 -4.0018327e+47)
(-2.4406298e+50 2.4065473e+48 -1.560689e+48)
(-2.4880252e+50 5.7106934e+48 -2.5194589e+48)
(-3.0282907e+50 4.1045183e+47 1.3100996e+49)
(-2.6249347e+50 -7.5820491e+46 2.3352192e+49)
(-2.6397534e+50 4.7235582e+48 2.2957716e+49)
(-2.846509e+50 -1.8524203e+48 2.1974454e+49)
(-2.8655011e+50 -4.9280306e+48 2.2772016e+49)
(-2.6509277e+50 2.1637763e+48 2.4183653e+49)
(-2.6507178e+50 -2.2325213e+48 2.3449855e+49)
(-2.4318149e+50 -2.7635643e+48 -2.8447221e+49)
(-2.5488688e+50 1.2375354e+48 -2.5913764e+49)
(-2.5297409e+50 -1.9698563e+48 -2.5449456e+49)
(-2.4187704e+50 -7.2597204e+47 -2.8529752e+49)
(-1.9699415e+50 -7.224062e+47 -3.7279615e+49)
(-1.5506207e+50 -1.1913463e+49 3.3448066e+48)
(-1.9921348e+50 -5.4575964e+48 -3.7519563e+49)
(-1.5300813e+50 3.4014401e+47 2.6282813e+48)
(-2.6146385e+50 -8.9907893e+48 -3.0134841e+49)
(-2.4194436e+50 -4.8530859e+48 -2.9337704e+49)
(-2.5415447e+50 -5.3138246e+47 -2.5972464e+49)
(-2.533743e+50 -3.9290793e+48 -2.6288268e+49)
(-2.4125021e+50 -2.7000555e+48 -2.9252302e+49)
(-2.6197239e+50 -1.8832511e+49 -3.082963e+49)
(-2.0792302e+50 -2.9316764e+49 6.4986217e+47)
(-2.0890387e+50 -1.140062e+49 1.4007481e+48)
(-1.9776165e+50 -7.529842e+48 -3.784296e+49)
(-1.531267e+50 -1.4355455e+49 2.7316112e+48)
(-1.973919e+50 -3.315217e+48 -3.7572665e+49)
(-1.5420666e+50 -3.5703207e+48 3.494404e+48)
(-2.280703e+50 -4.3992339e+48 3.0562044e+49)
(-2.269744e+50 -6.9795519e+48 2.8122033e+49)
(-2.7561416e+50 -4.131314e+47 3.3632016e+49)
(-2.7515521e+50 -6.8502793e+48 3.528051e+49)
(-1.9336071e+50 -3.9371115e+48 2.5070363e+49)
(-1.9303829e+50 -3.0251665e+48 2.4143097e+49)
(-2.4577063e+50 1.1037054e+48 3.2218344e+49)
(-2.4601146e+50 -3.17372e+48 3.18097e+49)
(-2.468583e+50 3.8873601e+47 3.0918087e+49)
(-1.9308362e+50 -3.046315e+48 2.3230385e+49)
(-1.9288245e+50 -1.7290463e+48 2.4182421e+49)
(-2.4606382e+50 -3.3405921e+48 3.1241752e+49)
(-1.9422802e+50 -2.397049e+48 2.4662862e+49)
(-2.4776355e+50 2.776644e+48 3.1453767e+49)
(-1.9300803e+50 -5.7789676e+47 2.353355e+49)
(-2.47317e+50 -4.5398608e+47 3.0871083e+49)
(-1.9329807e+50 -2.3886e+47 2.2837491e+49)
(-2.4551972e+50 3.2753146e+48 3.0253078e+49)
(-1.9311425e+50 9.3908933e+47 2.4234266e+49)
(-2.4429102e+50 -8.6968002e+47 3.0833268e+49)
(-2.7626167e+50 -1.8658422e+48 3.4135274e+49)
(-2.2674553e+50 -9.6207096e+48 2.9362856e+49)
(-2.262894e+50 -7.0262134e+48 2.8963817e+49)
(-2.7606406e+50 -7.0503241e+48 3.4097398e+49)
(-2.8563744e+50 -1.2071699e+48 -6.2463759e+48)
(-2.8755164e+50 -6.4840264e+46 -6.0221944e+48)
(-2.993774e+50 -4.3894775e+45 1.1781121e+49)
(-3.0040684e+50 -4.2324026e+48 1.2018356e+49)
(-3.5986618e+50 -2.1599678e+48 -4.9647287e+48)
(-2.4474486e+50 -1.5340527e+48 -5.8553776e+47)
(-2.4809568e+50 2.0434501e+48 -1.2315995e+48)
(-2.4733611e+50 9.5650499e+47 -2.522585e+48)
(-2.4369422e+50 -1.5695316e+48 -1.1761151e+48)
(-2.7815915e+50 2.7207407e+48 1.8882818e+49)
(-2.7740826e+50 -1.3361767e+48 1.8135032e+49)
(-2.6580782e+50 3.8572606e+46 1.3150036e+48)
(-2.6594985e+50 1.6019873e+48 1.714337e+48)
(-2.6855162e+50 2.7328718e+48 -3.4439594e+48)
(-2.5893273e+50 2.6553787e+48 -1.0554299e+49)
(-2.6079698e+50 9.1515164e+47 -1.0394264e+49)
(-2.6831597e+50 2.7179065e+47 -3.8756307e+48)
(-2.9232303e+50 4.4262936e+48 -3.8531337e+48)
(-2.6807667e+50 3.4547285e+48 -4.0379255e+48)
(-2.5872083e+50 2.8527865e+48 -1.1552223e+49)
(-2.5930843e+50 1.8521349e+48 -1.0400772e+49)
(-2.6765386e+50 9.2250057e+47 -3.1411817e+48)
(-2.9214781e+50 9.1298919e+47 -3.4038742e+48)
(-2.6680855e+50 2.936667e+48 -1.4488007e+49)
(-2.644044e+50 2.6408745e+48 -1.4247882e+49)
(-2.4290404e+50 1.4272544e+47 8.9034396e+47)
(-2.4305094e+50 4.0838693e+48 -7.8404596e+48)
(-2.4161929e+50 2.2635789e+48 -7.0394052e+48)
(-2.4507789e+50 5.0303717e+48 8.5405414e+47)
(-2.7623053e+50 4.4529786e+48 1.7523994e+49)
(-2.6538459e+50 3.4532201e+48 1.4291578e+48)
(-2.6534257e+50 1.0686025e+48 2.1741355e+48)
(-2.7372222e+50 1.1348738e+47 1.7544331e+49)
(-2.3027884e+50 -1.390416e+47 2.0897742e+49)
(-2.3110772e+50 4.083156e+48 2.0326191e+49)
(-2.3226268e+50 2.7679528e+48 2.0824604e+49)
(-2.3208372e+50 -4.942198e+47 2.0104744e+49)
(-2.6053118e+50 -5.4026594e+48 2.2344296e+49)
(-2.6008392e+50 -4.8540336e+47 2.247852e+49)
(-2.6032885e+50 7.9640312e+47 2.151584e+49)
(-2.6119537e+50 -4.4950664e+48 2.3401076e+49)
(-2.3133097e+50 -3.1513111e+48 2.1082245e+49)
(-2.3122043e+50 1.1547261e+48 2.1876579e+49)
(-2.313407e+50 -2.2626695e+48 2.0424626e+49)
(-2.3236125e+50 1.3101894e+48 2.0255804e+49)
(-3.0329032e+50 -3.7954222e+48 -2.5767751e+49)
(-3.0278353e+50 -2.065195e+48 -2.5378697e+49)
(-2.5848333e+50 -1.1856007e+48 -3.3495617e+49)
(-2.4901227e+50 2.2826072e+48 -1.9709354e+49)
(-2.4748246e+50 -1.0816148e+48 -1.9627194e+49)
(-2.5736767e+50 -1.3766755e+48 -3.3170687e+49)
(-2.0608696e+50 1.074484e+48 -3.4533804e+49)
(-1.7294975e+50 -1.1448068e+48 -3.9818578e+49)
(-1.7156061e+50 -1.0687543e+48 -3.9935644e+49)
(-2.042811e+50 -1.470286e+48 -3.4027177e+49)
(-1.2124076e+50 -3.9304674e+48 -3.617026e+49)
(-1.2121735e+50 -2.0660729e+48 -3.5394213e+49)
(-1.0967922e+50 -7.083811e+48 9.5785008e+48)
(-1.1056902e+50 -1.4189386e+47 1.1029325e+49)
(-2.0491687e+50 -1.9135859e+48 -3.4105865e+49)
(-2.0502715e+50 4.453564e+47 -3.4208478e+49)
(-1.7247838e+50 -1.8813347e+48 -3.9871543e+49)
(-1.7298503e+50 -2.2517325e+48 -4.0296529e+49)
(-1.2086857e+50 -2.7491069e+48 -3.5753395e+49)
(-1.086863e+50 2.229725e+48 9.5605308e+48)
(-1.098484e+50 -5.0182563e+48 1.007961e+49)
(-2.4199657e+50 -7.0005603e+48 -2.8869521e+49)
(-2.5500557e+50 -3.4260923e+48 -2.5918357e+49)
(-2.5271342e+50 -7.1402293e+48 -2.5727279e+49)
(-2.3972124e+50 -5.3511751e+48 -2.9445264e+49)
(-2.570909e+50 -2.4877605e+48 -3.4314583e+49)
(-2.4896958e+50 1.0581235e+48 -2.031012e+49)
(-2.5045173e+50 -3.0239466e+48 -2.0682443e+49)
(-2.5683354e+50 -3.2714644e+48 -3.4155044e+49)
(-2.5212406e+50 -8.0625874e+48 -2.6169572e+49)
(-2.5232174e+50 -4.1192757e+48 -2.5579688e+49)
(-2.4013622e+50 -8.4504757e+48 -2.9243527e+49)
(-2.399065e+50 -6.86819e+48 -2.969763e+49)
(-1.9613494e+50 -1.1352006e+49 -3.7702005e+49)
(-1.9609057e+50 -7.4661497e+48 -3.7866716e+49)
(-1.5014438e+50 -1.9505762e+49 1.5500923e+48)
(-1.5193835e+50 -9.2949768e+48 2.5928235e+48)
(-1.9877082e+50 -9.6089381e+48 -3.7925929e+49)
(-1.9544568e+50 -5.353333e+48 -3.7729984e+49)
(-1.5427407e+50 -1.6769639e+49 2.9350466e+48)
(-1.5260082e+50 -5.0814574e+48 3.2422107e+48)
(-2.0364436e+50 -3.5549758e+48 -3.4738791e+49)
(-2.0374533e+50 -1.0561339e+48 -3.4698812e+49)
(-1.7209822e+50 -3.5593165e+48 -4.0828967e+49)
(-1.7197499e+50 -3.5908365e+48 -4.0368185e+49)
(-1.2031526e+50 -5.2032212e+48 -3.6697054e+49)
(-1.2091713e+50 -4.1368825e+48 -3.5882471e+49)
(-1.0918424e+50 -8.6861904e+48 1.0053355e+49)
(-1.1051926e+50 -2.8183856e+48 1.1285585e+49)
(-2.0315402e+50 -3.3012706e+48 -3.4567781e+49)
(-2.0397585e+50 -5.7223245e+47 -3.454942e+49)
(-1.7164607e+50 -3.1740009e+48 -4.0603664e+49)
(-1.7236856e+50 -2.9562772e+48 -4.0201506e+49)
(-1.2120718e+50 -4.9067031e+48 -3.6138253e+49)
(-1.198507e+50 -3.376159e+48 -3.6102284e+49)
(-1.1025085e+50 -8.026925e+48 1.0130709e+49)
(-1.0883152e+50 -9.595131e+47 9.8712745e+48)
(-1.9244176e+50 -3.2126346e+48 2.3256503e+49)
(-1.921034e+50 -2.6642124e+48 2.4432369e+49)
(-2.4303924e+50 -4.8612431e+48 3.1253934e+49)
(-2.4428761e+50 -4.4552426e+47 3.0576457e+49)
(-1.8997781e+50 -5.0188791e+48 2.2599231e+49)
(-1.9012258e+50 -3.6167846e+48 2.2375325e+49)
(-2.4228457e+50 -2.9321939e+47 2.8805871e+49)
(-2.4245225e+50 -4.1029671e+48 2.8809559e+49)
(-1.6766737e+50 -3.3246399e+48 2.3413367e+49)
(-1.6760355e+50 -2.8721749e+48 2.2812355e+49)
(-2.1127586e+50 -2.794198e+48 2.8947188e+49)
(-2.1088335e+50 1.8319142e+47 2.9111209e+49)
(-1.6756132e+50 -3.2114163e+48 2.2110001e+49)
(-1.6682317e+50 -1.7479278e+48 2.26865e+49)
(-2.1074577e+50 -3.2553367e+48 2.8173658e+49)
(-2.1150536e+50 -1.1834482e+48 2.7899676e+49)
(-1.6718041e+50 -2.6952655e+48 2.2398799e+49)
(-1.6651076e+50 -1.6233066e+48 2.1755125e+49)
(-2.1138312e+50 -1.9692991e+48 2.7378068e+49)
(-2.1132815e+50 3.6752866e+47 2.7667602e+49)
(-1.6751156e+50 -1.7940932e+48 2.2108651e+49)
(-1.6670542e+50 -9.0246493e+47 2.2658192e+49)
(-2.1161296e+50 -1.3717483e+47 2.7746339e+49)
(-2.106322e+50 -2.5155718e+48 2.8001293e+49)
(-2.1189368e+50 1.4270648e+48 2.8578997e+49)
(-1.6771278e+50 -1.964073e+48 2.3211992e+49)
(-1.6754192e+50 -1.2287311e+48 2.2561385e+49)
(-2.1216501e+50 -1.0668227e+48 2.8294006e+49)
(-1.6743315e+50 -1.379338e+48 2.2186789e+49)
(-1.667074e+50 4.5846521e+47 2.2606357e+49)
(-2.1129302e+50 -9.5807099e+47 2.779825e+49)
(-2.1213419e+50 9.0121633e+47 2.7595775e+49)
(-1.6817902e+50 -3.7274453e+47 2.2754349e+49)
(-1.6785935e+50 7.0935666e+47 2.2040679e+49)
(-2.120307e+50 2.701529e+48 2.7805992e+49)
(-2.1195401e+50 4.4122486e+47 2.7327667e+49)
(-2.1162834e+50 2.1308579e+48 2.8005607e+49)
(-1.6779284e+50 6.3195223e+47 2.2247301e+49)
(-1.6742847e+50 1.4325817e+48 2.2878615e+49)
(-2.107014e+50 -3.6262574e+47 2.8257882e+49)
(-1.894714e+50 -5.8774984e+48 2.2689684e+49)
(-2.4256654e+50 -5.8467719e+48 2.9714669e+49)
(-2.4349118e+50 -1.7927335e+48 3.0989583e+49)
(-1.8986698e+50 -6.3897962e+48 2.3987497e+49)
(-1.9047427e+50 -5.7641442e+48 2.2235097e+49)
(-1.8970753e+50 -4.6850085e+48 2.3387674e+49)
(-2.4276282e+50 -6.1716973e+48 2.9938799e+49)
(-2.4377745e+50 -2.2900322e+48 2.9256051e+49)
(-2.6742679e+50 -1.3100101e+48 -3.577781e+48)
(-2.5937568e+50 3.4811876e+47 -1.0607644e+49)
(-2.5793556e+50 3.0276526e+47 -1.249692e+49)
(-2.6575067e+50 3.8904798e+47 -5.3828977e+48)
(-2.8828473e+50 -1.8794757e+48 -5.1985384e+48)
(-2.6717939e+50 3.0869245e+47 -3.2059739e+48)
(-2.5738182e+50 2.7943371e+47 -1.0755835e+49)
(-2.587137e+50 -8.7991533e+47 -1.0492895e+49)
(-2.9050718e+50 1.9070564e+48 -4.113378e+48)
(-2.6603927e+50 -2.0421336e+48 -3.9721862e+48)
(-2.732185e+50 1.1791391e+47 1.7490281e+49)
(-2.726606e+50 -4.3310001e+48 1.6882129e+49)
(-2.6309814e+50 -2.7013337e+48 1.5258842e+48)
(-2.6350928e+50 -3.5942291e+47 2.0087696e+48)
(-2.6345018e+50 1.8234843e+46 1.6410705e+47)
(-2.7246473e+50 6.0718091e+47 1.5801334e+49)
(-2.6462313e+50 -1.8152095e+48 2.0591148e+48)
(-2.7320363e+50 -3.6484406e+48 1.7368748e+49)
(-2.578379e+50 -5.339465e+47 -1.4621178e+49)
(-2.4230981e+50 -1.7602389e+48 7.3185903e+47)
(-2.4076957e+50 -2.7335765e+47 -6.8230423e+48)
(-2.4170262e+50 1.1157109e+48 -7.6408871e+48)
(-2.4503194e+50 2.0521615e+48 8.1951191e+47)
(-2.319449e+50 -2.1706347e+48 8.5878627e+48)
(-2.3294099e+50 2.7190919e+47 9.5069746e+48)
(-2.4403823e+50 1.5547004e+48 2.1844174e+49)
(-2.4360516e+50 -2.651374e+48 2.0922777e+49)
(-2.3204372e+50 -1.1156745e+48 8.3482197e+48)
(-2.3252126e+50 7.453867e+47 8.0640219e+48)
(-2.4488509e+50 1.2810726e+48 2.0443123e+49)
(-2.4349891e+50 -2.1254014e+48 2.0462469e+49)
(-2.350199e+50 8.9451624e+47 3.2899294e+48)
(-2.2615929e+50 4.7311566e+47 -3.8824119e+48)
(-2.2545889e+50 -6.7914363e+46 -3.7685393e+48)
(-2.3414705e+50 -9.2031395e+47 3.437643e+48)
(-2.3572055e+50 7.4937036e+47 4.6735603e+48)
(-2.2550162e+50 -6.6486593e+47 -3.7228974e+48)
(-2.2592845e+50 -2.6919351e+46 -2.9127749e+48)
(-2.3463546e+50 -1.4683651e+48 3.7661295e+48)
(-2.2857849e+50 4.7255961e+47 -4.0736947e+48)
(-2.2357406e+50 2.8754403e+47 -8.7492044e+48)
(-2.2404129e+50 -2.1889791e+46 -7.9418012e+48)
(-2.2815377e+50 -2.3367575e+47 -4.7747981e+48)
(-2.284782e+50 4.2772804e+47 -8.4254957e+48)
(-2.2883542e+50 6.6684391e+47 -7.7021382e+48)
(-2.2594376e+50 4.0853172e+47 -9.5625567e+48)
(-2.252506e+50 8.0608295e+47 -1.0497045e+49)
(-2.6091553e+50 3.5854369e+48 -1.0866109e+49)
(-2.261654e+50 4.8498264e+47 -1.0163605e+49)
(-2.2686422e+50 3.6548759e+47 -1.0042952e+49)
(-2.2952154e+50 6.4309778e+47 -8.1591095e+48)
(-2.6505979e+50 6.318201e+47 -1.0314125e+49)
(-2.2885552e+50 6.5870265e+46 -8.1384914e+48)
(-2.2441269e+50 1.9846047e+47 -8.3442559e+48)
(-2.2479381e+50 3.0992417e+47 -8.4140433e+48)
(-2.283227e+50 7.3735306e+47 -5.104213e+48)
(-2.2744665e+50 5.7132835e+46 -5.0947994e+48)
(-2.5656189e+50 7.9328696e+47 -1.5693355e+49)
(-2.5572597e+50 4.01396e+48 -1.5614614e+49)
(-2.2894476e+50 1.4085687e+48 -4.6374729e+48)
(-2.2399036e+50 1.3116118e+48 -9.4458293e+48)
(-2.2502416e+50 5.7121303e+47 -8.4736309e+48)
(-2.2807399e+50 1.0230267e+48 -5.4515736e+48)
(-2.2583561e+50 1.5610257e+48 -1.1463464e+49)
(-2.2730114e+50 3.9404632e+47 -1.0228382e+49)
(-2.2858156e+50 1.2315761e+48 -9.2718531e+48)
(-2.2957208e+50 9.3492328e+47 -8.3539139e+48)
(-2.6058263e+50 2.9820511e+48 -1.205854e+49)
(-2.2761762e+50 1.2960405e+48 -9.6132376e+48)
(-2.3009051e+50 1.7073215e+48 -7.6255438e+48)
(-2.2895216e+50 2.08447e+48 -4.3514526e+48)
(-2.2541677e+50 1.5253945e+48 -7.7786303e+48)
(-2.277982e+50 9.7274185e+47 -4.3737379e+48)
(-2.5144956e+50 3.0699458e+48 -1.7861827e+49)
(-2.9086905e+50 4.1193549e+48 -8.5215922e+48)
(-2.43449e+50 4.3911914e+48 -2.1084886e+49)
(-2.6390726e+50 4.8874551e+48 -1.3859341e+49)
(-2.6630888e+50 6.4853039e+47 -1.3290209e+49)
(-2.4403932e+50 1.6283576e+48 -2.1119266e+49)
(-2.3203317e+50 4.0793265e+48 -2.2532023e+49)
(-2.587313e+50 3.2656979e+48 -1.750737e+49)
(-2.4477922e+50 3.0743153e+48 2.0868364e+49)
(-2.4456233e+50 -2.4460231e+47 2.0248595e+49)
(-2.3319976e+50 1.9918419e+48 8.782149e+48)
(-2.3253304e+50 2.0798041e+47 7.9797366e+48)
(-2.3580843e+50 2.2802732e+48 4.023408e+48)
(-2.349289e+50 4.8489424e+47 3.1791892e+48)
(-2.2609859e+50 1.3478454e+48 -3.2687537e+48)
(-2.2560257e+50 9.2300912e+47 -4.2066078e+48)
(-2.2570274e+50 8.8031036e+47 -2.8991298e+48)
(-2.2672366e+50 2.1552294e+48 -2.9018935e+48)
(-2.3503121e+50 2.819001e+48 4.197614e+48)
(-2.3397088e+50 2.0300614e+47 4.3762204e+48)
(-2.3238561e+50 2.3935211e+47 9.5524567e+48)
(-2.3294507e+50 3.1333887e+48 9.2187315e+48)
(-2.4333747e+50 3.7128205e+48 2.054875e+49)
(-2.4196597e+50 -2.8049889e+47 2.0815825e+49)
(-1.9831794e+50 -2.2282846e+46 2.0569176e+49)
(-1.9896361e+50 2.8401921e+48 2.0115438e+49)
(-1.991964e+50 2.7203906e+48 1.9987721e+49)
(-1.9938714e+50 2.230919e+47 1.9534294e+49)
(-1.9916991e+50 1.5440532e+48 2.0681786e+49)
(-1.9961652e+50 -1.314052e+48 2.0198083e+49)
(-1.9920293e+50 1.5983823e+48 1.9322021e+49)
(-1.9856017e+50 -4.5386467e+47 1.9537676e+49)
(-2.2897954e+50 -1.2167907e+48 1.9103504e+49)
(-2.2839235e+50 -4.8229633e+48 1.9792574e+49)
(-2.285905e+50 -1.0811788e+48 2.0937025e+49)
(-2.2834684e+50 -5.4431819e+48 1.9897177e+49)
(-2.2781433e+50 -1.1765779e+47 1.9119416e+49)
(-2.2838789e+50 -3.7828856e+48 1.9080415e+49)
(-2.2915933e+50 -3.6207009e+48 2.1261574e+49)
(-2.2982198e+50 7.5566858e+47 2.0403232e+49)
(-1.9841917e+50 -4.3287717e+47 1.9820551e+49)
(-1.9791003e+50 -2.7441931e+48 2.0102196e+49)
(-1.9804553e+50 1.7437098e+47 2.1341586e+49)
(-1.9867509e+50 -3.1832495e+48 2.0991126e+49)
(-1.9807114e+50 -1.7794167e+48 2.0157332e+49)
(-1.9871091e+50 8.0234383e+47 1.9834386e+49)
(-1.9842649e+50 4.5579129e+47 1.9814348e+49)
(-1.9877796e+50 -2.0455939e+48 1.9421843e+49)
(-3.0365535e+50 -8.1181361e+48 -2.5494727e+49)
(-3.0066491e+50 -9.0761908e+48 -2.5700573e+49)
(-3.0588128e+50 -1.4524754e+48 -1.3999994e+49)
(-2.6391546e+50 -5.4372375e+47 -2.7738292e+49)
(-2.0621453e+50 -2.3701529e+48 -3.559878e+49)
(-2.0628171e+50 8.8438464e+47 -3.5697927e+49)
(-2.0536594e+50 -1.4299052e+48 -3.5413845e+49)
(-2.0640005e+50 1.5995602e+48 -3.5418063e+49)
(-1.8141936e+50 -7.6106683e+47 -4.3606214e+49)
(-1.2347243e+50 -9.7735404e+47 -3.7295574e+49)
(-1.2361464e+50 -1.9573138e+48 -3.6885009e+49)
(-9.0578584e+49 -2.1143877e+48 -4.1130727e+49)
(-9.0145064e+49 -2.5386775e+48 -4.0572066e+49)
(-1.2323778e+50 -7.4712238e+47 -3.6666726e+49)
(-1.2305767e+50 -1.6678627e+48 -3.6989863e+49)
(-9.0082181e+49 -1.6064408e+48 -4.0286689e+49)
(-8.9253358e+49 -2.0110644e+48 -4.1127752e+49)
(-7.2001897e+49 -3.5257494e+48 -1.210609e+49)
(-7.2977053e+49 -3.2730221e+48 -9.7976552e+48)
(-1.0770048e+50 -7.4409123e+47 1.6665762e+49)
(-1.0635531e+50 -3.5337262e+48 1.5889544e+49)
(-1.0820501e+50 -2.6992687e+48 1.6941576e+49)
(-1.0671396e+50 1.3090905e+48 1.6357177e+49)
(-7.3441948e+49 -2.7474807e+48 -9.6708998e+48)
(-7.1588476e+49 -2.101163e+48 -1.1296246e+49)
(-1.8122238e+50 -2.2051606e+48 -4.3803636e+49)
(-1.8181804e+50 -1.8044873e+48 -4.4138986e+49)
(-1.2322901e+50 1.2933943e+46 -3.6925225e+49)
(-1.2301779e+50 -9.1788968e+47 -3.6467466e+49)
(-8.9657257e+49 -8.5380023e+47 -4.0991111e+49)
(-8.9034661e+49 -1.2185687e+48 -4.0357919e+49)
(-7.3164377e+49 -1.0763784e+48 -9.2631789e+48)
(-1.0818207e+50 -2.1098043e+47 1.6867772e+49)
(-7.16758e+49 -2.0323225e+48 -1.1669562e+49)
(-1.0673244e+50 -1.9504399e+48 1.577912e+49)
(-7.2385161e+49 -1.4280721e+48 -9.569459e+48)
(-1.0718014e+50 1.7189438e+48 1.6315815e+49)
(-2.5754956e+50 -4.9563912e+48 -3.3676461e+49)
(-2.5001632e+50 -1.8371923e+48 -1.9319036e+49)
(-2.4859388e+50 -5.2466288e+48 -1.9880176e+49)
(-2.5599016e+50 -4.9855945e+48 -3.3872541e+49)
(-2.6231332e+50 -1.2967365e+48 -2.8706555e+49)
(-2.0550942e+50 -4.2506975e+47 -3.6186987e+49)
(-2.0507227e+50 -3.7125061e+48 -3.6361087e+49)
(-2.5976848e+50 9.3784882e+47 -1.5595322e+49)
(-2.6209459e+50 -2.1673446e+48 -1.6728248e+49)
(-2.6232331e+50 -2.2627897e+48 -2.8181249e+49)
(-2.0504587e+50 1.5879029e+47 -3.5865759e+49)
(-2.0484283e+50 -3.1769279e+48 -3.6174994e+49)
(-2.508899e+50 -6.797825e+48 -2.0581505e+49)
(-2.4756893e+50 -2.1871057e+48 -1.9722598e+49)
(-2.5526636e+50 -6.0155512e+48 -3.3550888e+49)
(-2.5589637e+50 -6.890875e+48 -3.4293038e+49)
(-1.7015695e+50 -6.5252156e+48 -4.0298684e+49)
(-2.0244945e+50 -4.0140584e+48 -3.4013753e+49)
(-2.0237837e+50 -6.3327183e+48 -3.4123223e+49)
(-1.7016593e+50 -6.4784271e+48 -4.0104895e+49)
(-1.7103509e+50 -5.5634051e+48 -4.0303109e+49)
(-2.0275614e+50 -3.3147765e+48 -3.4524376e+49)
(-2.0198113e+50 -6.468053e+48 -3.4716437e+49)
(-1.70454e+50 -6.2048013e+48 -4.0983373e+49)
(-1.1868636e+50 -8.4168706e+48 -3.6414492e+49)
(-1.1875601e+50 -7.1256008e+48 -3.5885338e+49)
(-1.0638471e+50 -1.2019695e+49 8.6144011e+48)
(-1.0692866e+50 -6.4754373e+48 9.5123756e+48)
(-1.2026601e+50 -7.6383858e+48 -3.6414369e+49)
(-1.1885842e+50 -6.6803535e+48 -3.6672381e+49)
(-1.0815791e+50 -1.1649953e+49 9.435548e+48)
(-1.0715083e+50 -5.1768072e+48 9.6503573e+48)
(-1.7215367e+50 -5.191385e+48 -4.0499804e+49)
(-2.0384254e+50 -2.7045886e+48 -3.4264479e+49)
(-2.033683e+50 -4.9827264e+48 -3.4249219e+49)
(-1.713919e+50 -4.8021704e+48 -4.0306304e+49)
(-1.710727e+50 -3.9479734e+48 -4.0218215e+49)
(-2.0274583e+50 -1.8543601e+48 -3.4290549e+49)
(-2.0198076e+50 -4.7194286e+48 -3.454694e+49)
(-1.706028e+50 -4.253568e+48 -4.0892615e+49)
(-1.2081725e+50 -7.1634222e+48 -3.6791133e+49)
(-1.2037251e+50 -5.2855428e+48 -3.6051189e+49)
(-1.0777248e+50 -1.0789852e+49 8.7272138e+48)
(-1.0860109e+50 -3.615162e+48 1.013664e+49)
(-1.1899058e+50 -4.3363646e+48 -3.6567959e+49)
(-1.0974741e+50 -8.4240006e+48 1.04042e+49)
(-1.205267e+50 -5.7448866e+48 -3.6200474e+49)
(-1.080452e+50 -1.8201071e+48 9.8380524e+48)
(-1.8094996e+50 -2.8725506e+48 -4.4574563e+49)
(-1.8096955e+50 -3.5443251e+48 -4.4316778e+49)
(-1.2286585e+50 -2.02446e+48 -3.7630769e+49)
(-1.2297673e+50 -3.1294789e+48 -3.7277893e+49)
(-9.005323e+49 -3.0781438e+48 -4.1521824e+49)
(-8.9826397e+49 -3.8754909e+48 -4.0854845e+49)
(-1.2285615e+50 -2.0982026e+48 -3.7024866e+49)
(-1.2269532e+50 -3.1894636e+48 -3.7385802e+49)
(-9.0092431e+49 -3.0713049e+48 -4.0638791e+49)
(-8.935721e+49 -3.8242295e+48 -4.1411441e+49)
(-1.0552113e+50 -4.9384634e+48 1.5565841e+49)
(-1.0779382e+50 -2.7011712e+48 1.7103446e+49)
(-7.1049153e+49 -4.3400563e+48 -1.3335252e+49)
(-7.3028881e+49 -4.720443e+48 -9.9326043e+48)
(-1.0758148e+50 -4.6861379e+48 1.6543349e+49)
(-1.0659602e+50 -1.1154938e+48 1.6251806e+49)
(-7.2840475e+49 -4.3977909e+48 -1.0759552e+49)
(-7.1574006e+49 -4.2255922e+48 -1.1452194e+49)
(-1.8072102e+50 -2.9270846e+48 -4.4296858e+49)
(-1.8144384e+50 -2.3488693e+48 -4.4120763e+49)
(-1.2291859e+50 -1.4976149e+48 -3.7226664e+49)
(-1.2293752e+50 -2.446371e+48 -3.6862648e+49)
(-9.0236451e+49 -2.6448135e+48 -4.1245637e+49)
(-8.9753714e+49 -3.0418792e+48 -4.062673e+49)
(-1.2301287e+50 -1.3707507e+48 -3.6999874e+49)
(-1.2271709e+50 -2.6107548e+48 -3.7404869e+49)
(-9.00235e+49 -2.2319077e+48 -4.0578115e+49)
(-8.9213076e+49 -3.1371898e+48 -4.1464463e+49)
(-7.1561719e+49 -4.1410701e+48 -1.2589944e+49)
(-1.0595024e+50 -4.3256206e+48 1.5169924e+49)
(-7.2693274e+49 -3.7457912e+48 -9.8492044e+48)
(-1.0688709e+50 -9.7607103e+47 1.6181357e+49)
(-7.2821542e+49 -3.2870035e+48 -1.0359981e+49)
(-7.0862383e+49 -3.2346101e+48 -1.1915131e+49)
(-1.0715791e+50 -2.8612285e+48 1.6164999e+49)
(-1.0558842e+50 9.59512e+46 1.5525143e+49)
(-1.6711447e+50 -2.6829733e+48 2.2668433e+49)
(-1.664334e+50 -1.7029772e+48 2.1852046e+49)
(-2.1074034e+50 -2.3844185e+48 2.743226e+49)
(-2.1060075e+50 3.3918129e+46 2.7580958e+49)
(-1.6718854e+50 -1.9897917e+48 2.2235216e+49)
(-2.1075406e+50 -7.6704569e+47 2.8170871e+49)
(-1.6693925e+50 -1.5512646e+48 2.2942594e+49)
(-2.0988724e+50 -3.5526899e+48 2.8551119e+49)
(-1.6387151e+50 -4.1721898e+48 2.1284973e+49)
(-1.6427399e+50 -3.5978523e+48 2.1027159e+49)
(-2.0788632e+50 -1.0921562e+48 2.6569282e+49)
(-2.0855306e+50 -3.6606518e+48 2.6611894e+49)
(-2.0909018e+50 -1.7410963e+48 2.624874e+49)
(-1.6486244e+50 -3.4732164e+48 2.0844226e+49)
(-1.6488579e+50 -2.1932631e+48 2.1810428e+49)
(-2.0858819e+50 -3.8425663e+48 2.6716196e+49)
(-1.46176e+50 -2.4002906e+48 2.2078382e+49)
(-1.457569e+50 -3.5457223e+48 2.2602658e+49)
(-1.8297893e+50 -4.2492752e+47 2.4898959e+49)
(-1.8298464e+50 -2.5263256e+48 2.4689345e+49)
(-1.4574729e+50 -1.6396972e+48 2.2260001e+49)
(-1.4554562e+50 -3.5039616e+48 2.155133e+49)
(-1.8381428e+50 -1.755127e+48 2.4300778e+49)
(-1.8329451e+50 -3.405807e+48 2.3929189e+49)
(-1.4533069e+50 -1.6553986e+48 2.1468039e+49)
(-1.4464419e+50 -3.8670226e+48 2.149786e+49)
(-1.8315285e+50 -1.068328e+48 2.3434655e+49)
(-1.8349139e+50 -2.2448481e+48 2.3604716e+49)
(-1.4510237e+50 -6.4772441e+47 2.2188411e+49)
(-1.449881e+50 -2.57854e+48 2.1349703e+49)
(-1.8277954e+50 -9.3614724e+47 2.3700385e+49)
(-1.8230275e+50 -2.811746e+48 2.3634171e+49)
(-1.4496589e+50 -1.5936969e+48 2.1420516e+49)
(-1.4448031e+50 -2.9459077e+48 2.1627296e+49)
(-1.8249584e+50 -1.3515687e+47 2.3333012e+49)
(-1.8322234e+50 -2.0024476e+48 2.3847946e+49)
(-1.4467464e+50 -3.4982563e+47 2.1797941e+49)
(-1.4449724e+50 -2.5935018e+48 2.0949126e+49)
(-1.8317194e+50 -8.0102813e+47 2.2966153e+49)
(-1.8279234e+50 -2.3250835e+48 2.2915767e+49)
(-1.8339428e+50 2.0730425e+47 2.3406831e+49)
(-1.4478752e+50 -2.3807121e+48 2.1698484e+49)
(-1.4535771e+50 -2.8378413e+47 2.1569117e+49)
(-1.8360877e+50 -1.1348404e+48 2.3582964e+49)
(-1.4529799e+50 -5.6555106e+46 2.2345473e+49)
(-1.4508447e+50 -1.2170522e+48 2.1424946e+49)
(-1.8290692e+50 1.0837591e+47 2.37489e+49)
(-1.8231673e+50 -1.9434771e+48 2.368523e+49)
(-1.4524108e+50 -7.1201989e+47 2.1681722e+49)
(-1.4583848e+50 -2.1967872e+48 2.2701153e+49)
(-1.834484e+50 7.7092767e+47 2.456955e+49)
(-1.8327689e+50 -1.2072501e+48 2.4068044e+49)
(-1.4638617e+50 3.3464993e+46 2.2463185e+49)
(-1.4528392e+50 -1.836437e+48 2.1316359e+49)
(-1.8364777e+50 -2.7537761e+47 2.3337588e+49)
(-1.8376373e+50 -1.8137209e+48 2.3798575e+49)
(-1.4525481e+50 -2.1190469e+48 2.1802256e+49)
(-1.8307985e+50 7.5572368e+47 2.2871889e+49)
(-1.4545401e+50 4.2895071e+47 2.1687238e+49)
(-1.8365314e+50 -4.4343291e+47 2.3447171e+49)
(-1.8291273e+50 1.038905e+48 2.3385451e+49)
(-1.4526017e+50 -3.0967287e+47 2.1478588e+49)
(-1.4496354e+50 1.6408585e+48 2.2016722e+49)
(-1.8232317e+50 -6.635449e+47 2.3246177e+49)
(-1.4556124e+50 4.7193061e+47 2.1357984e+49)
(-1.4587506e+50 -6.3685269e+47 2.2112837e+49)
(-1.8375029e+50 2.0264312e+48 2.3644749e+49)
(-1.8396791e+50 4.2295698e+46 2.3615168e+49)
(-1.8423724e+50 1.1514771e+48 2.3104547e+49)
(-1.4558842e+50 5.9048038e+46 2.1242566e+49)
(-1.454122e+50 1.6879935e+48 2.1535441e+49)
(-1.8412228e+50 -1.8529735e+47 2.3242394e+49)
(-1.4560331e+50 2.1427324e+48 2.1402014e+49)
(-1.464058e+50 -3.4938479e+47 2.2488414e+49)
(-1.8396622e+50 2.2463364e+48 2.364551e+49)
(-1.8393625e+50 8.4145241e+47 2.3412777e+49)
(-1.456873e+50 2.0189224e+48 2.2116808e+49)
(-1.4592005e+50 1.1182156e+48 2.1734425e+49)
(-1.8356107e+50 1.7639693e+48 2.4159627e+49)
(-1.8295968e+50 -2.2965153e+47 2.3941584e+49)
(-1.6439923e+50 -5.2589305e+48 2.1017153e+49)
(-1.6409779e+50 -3.8526893e+48 2.1696774e+49)
(-2.0854419e+50 -3.4570138e+48 2.6408236e+49)
(-2.0806114e+50 -5.5820994e+48 2.6753183e+49)
(-1.6396634e+50 -4.643374e+48 2.2414712e+49)
(-1.638531e+50 -4.7603681e+48 2.2017065e+49)
(-2.0783141e+50 -1.7870841e+48 2.7866687e+49)
(-2.0832267e+50 -4.7247136e+48 2.8046457e+49)
(-2.0908019e+50 -2.0618361e+48 2.6482819e+49)
(-1.6440808e+50 -5.0105693e+48 2.1413647e+49)
(-1.638712e+50 -3.8797711e+48 2.0815745e+49)
(-2.0882997e+50 -4.1046448e+48 2.6166484e+49)
(-1.6482745e+50 -3.8724669e+48 2.1306112e+49)
(-1.6383729e+50 -3.1599525e+48 2.1855718e+49)
(-2.0888614e+50 -2.3394506e+48 2.6892397e+49)
(-2.0785659e+50 -4.9430122e+48 2.7193284e+49)
(-2.2452519e+50 -3.946151e+47 -7.7674155e+48)
(-2.2517667e+50 -5.678611e+46 -7.9576361e+48)
(-2.2800763e+50 -1.0275332e+48 -4.055666e+48)
(-2.2904161e+50 2.3153385e+47 -4.2186781e+48)
(-2.2928021e+50 -2.9923577e+47 -7.6571881e+48)
(-2.301057e+50 4.3869372e+47 -7.8131757e+48)
(-2.2739928e+50 3.825188e+47 -9.8366144e+48)
(-2.2661452e+50 3.7489122e+47 -9.7913756e+48)
(-2.63406e+50 6.788418e+47 -1.0721318e+49)
(-2.2809579e+50 -6.3545998e+47 -8.9440784e+48)
(-2.2512295e+50 6.3804975e+47 -1.144071e+49)
(-2.2512129e+50 -9.2605521e+47 -1.1196824e+49)
(-2.2787831e+50 -1.1402294e+47 -9.2906007e+48)
(-2.6008803e+50 7.8678416e+47 -1.2878376e+49)
(-2.2304741e+50 -2.9316116e+47 -9.3540829e+48)
(-2.2313221e+50 -1.0394824e+48 -9.0292592e+48)
(-2.2650952e+50 -6.6434195e+47 -5.6374596e+48)
(-2.2640293e+50 -8.8974583e+47 -5.946508e+48)
(-2.5079693e+50 1.4871627e+48 -1.8520165e+49)
(-2.539699e+50 1.9623461e+48 -1.5940565e+49)
(-2.2272869e+50 -1.0953842e+48 -8.3047842e+48)
(-2.2745811e+50 -1.8433845e+48 -4.3164348e+48)
(-2.2811792e+50 -9.1929435e+47 -8.1085922e+48)
(-2.2474866e+50 -4.6570521e+47 -1.0251988e+49)
(-2.2590437e+50 -9.100638e+47 -9.8311789e+48)
(-2.2834461e+50 -7.3882077e+47 -7.9643207e+48)
(-2.6328787e+50 -1.1035517e+48 -1.0489555e+49)
(-2.246656e+50 -7.7443113e+47 -1.0158179e+49)
(-2.267462e+50 -1.2858035e+48 -8.3306407e+48)
(-2.542432e+50 -4.3806392e+47 -1.5903902e+49)
(-2.22603e+50 -1.3186349e+48 -8.2221157e+48)
(-2.2574046e+50 -1.8029704e+48 -5.081826e+48)
(-2.2345979e+50 -1.1869882e+48 -8.1622135e+48)
(-2.2677632e+50 -1.0689907e+48 -4.9874289e+48)
(-2.4138046e+50 -4.5165133e+47 2.1147823e+49)
(-2.3008607e+50 -3.9494416e+48 8.9294621e+48)
(-2.406667e+50 -4.6799761e+48 2.0159615e+49)
(-2.2996127e+50 -3.5006023e+48 8.5268435e+48)
(-2.3035359e+50 -1.4167379e+48 8.0877874e+48)
(-2.4054229e+50 -4.6067e+48 1.9898515e+49)
(-2.4129406e+50 -1.18638e+48 1.9477638e+49)
(-2.3278065e+50 -1.2345921e+48 3.3384349e+48)
(-2.2452856e+50 -1.4181781e+48 -3.6059612e+48)
(-2.3202573e+50 -3.1972474e+48 3.5536848e+48)
(-2.2366818e+50 -2.1490313e+48 -3.5363434e+48)
(-2.2439172e+50 -2.3603865e+48 -3.0913184e+48)
(-2.3293955e+50 -3.2067707e+48 4.0602516e+48)
(-2.2386527e+50 -8.9457631e+47 -4.1974801e+48)
(-2.2413232e+50 -1.1487037e+48 -4.404379e+48)
(-2.3252057e+50 -1.9273509e+48 2.6903128e+48)
(-2.323758e+50 -2.7105126e+47 2.9205845e+48)
(-2.3018128e+50 -2.4020741e+48 7.7431902e+48)
(-2.2988805e+50 -5.0008117e+47 7.947549e+48)
(-2.4030091e+50 2.0582026e+47 1.9228722e+49)
(-2.4074195e+50 -3.1488647e+48 1.9078023e+49)
(-2.3462485e+50 4.2281689e+47 4.1991817e+48)
(-2.2631037e+50 1.0490009e+47 -2.9500043e+48)
(-2.2547737e+50 -1.3691424e+48 -2.6684096e+48)
(-2.3371676e+50 -2.3890885e+48 4.5556834e+48)
(-2.3173168e+50 -2.5644545e+48 9.7299534e+48)
(-2.3210598e+50 4.9618666e+47 9.1598493e+48)
(-2.4222544e+50 6.9223005e+47 2.042005e+49)
(-2.4096636e+50 -3.4211687e+48 2.0822794e+49)
(-2.3035128e+50 3.5083779e+48 -2.3367542e+49)