/*--------------------------------*- C++ -*----------------------------------*\
  =========                 |
  \\      /  F ield         | OpenFOAM: The Open Source CFD Toolbox
   \\    /   O peration     | Website:  https://openfoam.org
    \\  /    A nd           | Version:  7
     \\/     M anipulation  |
\*---------------------------------------------------------------------------*/
FoamFile
{
    version     2.0;
    format      ascii;
    class       volScalarField;
    location    "4000";
    object      omega;
}
// * * * * * * * * * * * * * * * * * * * * * * * * * * * * * * * * * * * * * //

dimensions      [0 0 -1 0 0 0 0];

internalField   nonuniform List<scalar> 
33943
(
2115.0936
3848.6918
749.03379
776.56053
479.54796
4279.9801
8938.9112
2137.7105
3882.9616
3932.7309
769.98615
795.95341
7242.3145
1757.5984
1792.2221
7487.6782
623.76523
687.37387
798.32881
781.25938
399.8234
1991.2533
1951.4875
501.96917
371.84134
400.71502
397.72143
370.14971
4333.8492
1149.3242
1156.6788
8934.3349
8893.7711
1874.3478
611.72453
4289.1944
4336.3615
17799.259
17974.817
3859.332
3897.9179
779.64659
793.43728
7363.0124
7543.09
1819.2889
1781.8374
7516.1537
7508.6791
1829.6302
1878.3821
12868.877
4248.6689
12473.821
4137.3459
13251.081
13016.481
4321.7284
4348.4269
357.18281
628.69968
693.02131
638.17332
707.55769
1496.7756
1347.3557
1508.5696
1347.279
1782.6082
1789.1261
1811.2
1811.8287
1997.302
2037.5714
1959.4901
1997.2674
794.49358
403.86616
784.50719
346.78914
345.79438
363.30522
365.01261
4856.3993
4859.1169
4646.6638
4777.8165
374.86687
372.75062
405.40176
405.19253
356.67238
367.94401
363.4855
352.96803
1148.4292
1151.9492
8916.8363
8910.494
617.76788
612.72752
1880.0613
1889.7826
613.78133
1874.1276
1921.4799
624.93295
4295.0973
4307.19
17825.577
17743.333
4274.3648
4362.7955
17742.755
17770.731
2039.7974
637.74478
3386.595
3374.9285
6410.6762
6413.047
3407.997
6484.8785
12232.493
12274.072
31148.98
31300.927
12409.977
31720.336
31386.052
843.08511
7476.7675
7351.5577
1807.7588
1829.2755
7400.8634
1860.482
7530.8842
1837.0173
12649.281
13167.787
4173.0156
4312.9839
13305.437
13206.238
4341.2569
4402.8881
13104.761
13227.772
4318.6183
4389.9046
13170.605
12924.221
4408.8606
4344.7399
21034.529
21404.17
7845.9109
8137.8633
20161.29
20979.235
7628.2115
7855.2672
21806.331
21926.557
8164.8864
8247.214
7984.5828
21369.37
21292.766
8175.3825
358.89182
707.20876
632.17103
639.88896
316.74587
335.91205
334.89997
315.75845
695.60107
1360.185
1358.6525
1518.3147
1507.0394
1799.7306
1791.3596
1819.376
1821.673
1569.3941
1409.8957
1364.5241
1526.394
1864.2958
1823.4584
1826.2822
1871.4875
4030.909
3923.6082
3899.5847
4069.6597
3327.7293
3321.0209
3034.7155
3029.8953
4182.8461
3960.037
4035.7125
4119.0146
3354.4946
3421.7562
4514.3325
4872.3948
4980.682
4407.3944
4630.1837
4451.5608
4567.3728
4530.8087
5089.617
4600.2876
4593.6379
5058.8345
4600.0906
4751.1628
4641.7636
4687.3493
4883.4101
4811.1764
4882.2732
4850.3711
4821.6695
2006.108
4652.8465
4874.3322
4840.3804
1996.0079
822.24699
346.17153
365.88913
368.25851
349.37456
1980.8811
1951.5974
334.03066
330.61024
341.59767
346.3842
8972.9787
9074.5848
8768.6808
8951.8665
8357.3526
8638.1425
8576.3937
8913.0557
362.60839
362.83199
375.07356
373.54285
451.89592
449.16369
443.65412
442.23535
491.88287
492.48638
473.65137
615.99263
618.7647
1888.4825
1880.6974
613.79144
622.09735
1903.0455
1880.4283
4281.0495
4298.0231
17645.259
17746.878
4279.0032
4318.3762
17721.975
17606.727
644.66685
637.7398
2047.0206
2061.5941
638.71103
2038.1311
2094.8842
650.66057
3385.2384
3408.1209
6432.5136
6412.3778
6417.4234
3382.4922
3438.4547
6455.9842
12279.527
31444.727
31119.281
12315.586
12243.456
12275.732
31034.817
31244.583
3350.5936
3383.0255
6357.68
6385.1324
6499.5151
3437.8103
3473.6952
6499.4856
12396.475
12348.917
31368.537
30993.979
12187.624
12237.608
31222.666
31243.861
2150.6908
3917.2158
3933.0839
625.45021
630.4033
2182.8701
3955.8987
7106.0004
7103.643
7180.8167
11781.065
11926.846
17600.001
17365.206
17559.137
11906.505
11854.992
17536.202
45990.926
46379.983
27271.916
27317.078
27474.537
46518.556
27107.91
46666.801
11944.425
12071.104
17582.231
17785.788
27705.669
46845.195
27610.864
46637.77
27684.09
46634.933
7708.3153
1971.0758
13362.033
4379.2968
12873.978
4333.5918
13207.47
4344.3063
12554.812
4163.9018
13058.043
12689.906
4302.5548
4319.5182
13182.251
4358.7571
13318.134
4417.5428
20350.873
21374.097
7682.0772
7953.7103
21730.4
21776.267
8060.5821
8245.6108
8194.4161
21961.656
22145.649
8288.5441
21703.353
21650.141
8285.4022
8089.4027
21454.217
21801.76
8170.246
8040.4956
21767.101
21812.95
8323.8503
8107.7766
21543.988
21951.576
8276.5169
8090.0732
21420.952
20630.571
8076.9186
8083.8996
38368.623
37982.505
11412.112
11575.23
38367.823
38513.993
11886.082
11659.751
11005.527
35632.396
37143.55
11252.703
37907.362
38198.252
11454.067
11588.375
39319.701
39983.91
11919.739
12100.174
12077.831
40203.436
39481.181
12137.086
38881.941
38762.201
11646.967
11777.415
37674.584
38432.366
11715.091
11787.759
655.4369
315.46982
318.27392
337.88757
335.17413
726.93988
1826.8847
1838.9552
1851.062
1833.9304
1359.8985
1519.238
1366.7901
1502.8615
1375.5782
1556.4745
1402.9125
1535.1804
311.53543
322.10004
319.76462
310.16446
1792.0321
1808.6749
1784.6152
1815.0721
3077.7408
3047.9423
3326.5898
3370.7799
3065.6411
3065.8751
3381.2056
3374.6653
4142.2023
3984.2618
3975.8752
4136.6987
3973.3109
3905.5591
4038.2488
4117.6614
4573.8669
4684.5352
4579.8595
4461.0766
4414.4844
5032.2127
4880.1634
4555.3968
4583.7276
5074.3302
5063.0708
4609.9577
4615.6755
4702.3436
4706.4757
4619.8408
4088.9496
4093.116
4226.0466
4227.8309
3494.2729
3496.491
3196.6333
3205.1812
3403.9248
3107.8707
3100.0322
3412.5747
4152.4653
4017.4668
4003.3537
4171.5477
5112.7278
5094.655
4604.1661
4635.3591
5091.4718
5038.5957
4565.2582
4622.7841
4602.4445
4704.4216
4734.2181
4641.2954
4659.3687
4777.0663
4780.4713
4675.5917
9239.5198
8852.2225
9671.5445
9238.117
8889.5869
9292.4588
8701.4294
9103.3209
8789.2764
8599.3778
9200.1997
8986.8332
9368.6537
8978.1471
9819.877
9411.8432
8024.4392
8110.9379
8365.1081
8459.4394
7963.0297
8040.4027
8307.1931
8387.7212
6882.2523
7146.9362
5863.1106
6072.9518
6912.2235
7194.9101
6126.0286
5872.0171
9998.2892
10085.074
9578.8414
9652.4968
9037.0096
8860.4367
9124.6027
9493.026
9297.9784
9566.0408
9367.4531
9552.6755
9834.4029
9161.6256
9428.8059
8128.0446
8232.6018
8592.8691
8680.6419
8637.2127
8727.7958
9175.631
9584.1716
8265.7109
8598.1164
9726.3053
9355.3956
8620.8831
8936.4194
9553.2976
10017.006
8823.7919
9217.0929
9288.555
8960.7852
8062.9921
8327.8157
9587.3851
9168.9586
10064.871
9615.6345
9964.6131
9566.1447
8922.461
9267.2353
9440.1146
9020.0426
9856.2859
9389.4692
9740.9475
10224.594
9098.4514
9532.2552
10119.797
10215.217
9303.0459
9397.9521
9660.3645
9765.2446
8662.2553
8753.6207
9403.0264
9628.6349
8453.6357
8643.6091
9787.8187
10046.849
9037.2349
9262.5481
9965.8596
10241.434
9312.9701
9562.4361
10221.057
9760.5015
10303.857
9835.0153
10361.769
10444.293
9657.3892
9731.6684
9792.8044
9370.9611
10073.826
9634.1506
8821.8679
9049.7718
8774.4621
8924.8431
8840.5612
8774.0791
8842.6059
9061.4068
8780.5708
8985.3703
4786.7071
4770.8392
8358.206
8692.8337
8806.7923
9008.8369
8954.6177
9054.009
4831.7072
4897.7988
2072.5852
337.19251
349.66894
351.00169
338.38623
4822.5586
4768.2158
4793.2133
4579.1572
425.32388
409.22631
427.68001
447.48174
12764.104
13013.981
12994.335
12957.432
12661.021
12474.653
12557.2
12608.774
11761.185
12081.382
12278.483
12398.294
12201.297
12425.994
12485.367
12703.566
448.75506
458.72567
451.61688
443.59703
587.34933
611.52218
598.42792
584.41002
493.5743
494.17797
474.80382
476.60434
659.60818
649.87571
1906.1934
642.1295
646.0915
2061.5737
2049.7892
639.05332
647.37977
2076.1062
2049.41
4326.9366
3383.8207
6393.9319
6415.9274
3408.3575
3395.0879
3428.6519
6437.2614
6423.7615
12197.805
17686.487
30852.451
12194.183
31136.105
12215.819
12299.916
31378.383
30902.31
3366.7744
3406.9775
6410.2205
6356.5874
3409.7094
3443.7003
6432.3512
6442.0035
12164.048
31133.517
12208.073
31127.878
12287.525
12248.467
30597.216
31033.934
630.57709
624.74553
2161.3441
3930.5635
3963.1714
2174.6707
3925.4797
3989.9683
626.3505
2150.034
3884.9355
3928.0082
2212.8384
3995.1504
4024.3313
636.43477
7136.14
7112.8261
7109.6431
7153.0816
11837.755
11886.969
17445.331
17507.421
27334.535
27292.331
47022.459
47104.861
27300.122
46846.68
26865.595
46837.776
11950.807
11830.866
17483.407
17658.714
11783.527
11931.933
17398.7
17631.989
11878.06
11903.345
17595.02
17520.574
27234.346
27286.242
46122.902
46754.78
27436.053
26900.754
47139.215
46793.436
7047.0629
7071.0631
7199.8593
7192.7119
17465.415
11879.984
12030.981
17673.338
17558.271
11962.502
11899.232
17510.654
27344.625
27335.528
46847.003
46658.186
26895.737
46754.039
46092.448
27477.815
11708.593
17318.583
17555.064
11855.744
11776.451
11843.406
17478.306
17445.233
27140.587
27166.617
46698.713
46802.905
27334.791
26856.604
46949.452
46818.516
3896.9979
3896.4538
2161.2671
4599.9142
4585.0886
3937.6493
2189.1069
4630.1478
6025.2204
6006.2042
10081.529
10030.926
15139.102
14925.64
6036.4659
5973.0931
10040.827
10002.534
15084.201
15024.448
6079.8504
6049.069
10118.067
10177.076
15131.08
15305.209
18156.986
22324.148
18336.966
22450.149
18116.28
17875.157
21967.467
22320.386
18126.623
18293.572
22515.73
22308.404
22195.384
18029.699
18206.956
22306.399
52766.846
62623.548
63341.191
53514.958
54129.123
63022.534
63385.169
54039.273
26165.867
25794.407
38198.645
37607.129
26235.819
26161.122
38127.809
38250.526
26158.973
26348.781
38211.205
38451.431
54157.125
62755.712
63330.739
54182.02
38166.407
26038.631
26083.379
37890.405
63019.118
63223.498
54221.822
53993.646
18320.734
18101.672
22212.153
22535.512
18502.959
18336.702
22517.04
22626.514
26377.674
26047.624
38348.07
38909.603
54472.523
62905.21
63683.651
54564.188
26403.979
26355.55
38886.992
38504.734
63223.6
63275.431
54624.226
54403.989
26408.436
26233.863
38332.361
38328.96
54077.822
62493.284
63148.795
53992.236
13086.614
13660.842
4563.7496
4498.997
8259.8801
22247.432
22022.381
8251.9261
21226.806
21026.631
8070.147
7913.4709
21714.621
21889.326
8046.3385
8266.0516
20116.983
21274.151
7553.3492
7863.9244
21534.374
21753.43
8052.0768
8188.7899
20970.16
20494.499
7885.7985
7957.4864
21499.9
22100.77
8089.7275
8270.4376
22104.558
8223.5152
21937.355
8368.0931
37402.588
35584.129
11094.664
11351.482
38494.55
38565.49
11610.259
11777.944
39479.666
39025.019
11800.792
11958.172
38867.522
39058.034
11893.509
12069.18
40029.902
39281.276
12006.171
12151.22
39678.155
40208.913
12124.446
12219.962
39278.842
39029.705
11794.882
11941.359
38238.689
38807.687
11886.201
11992.762
39138.902
38164.203
11674.737
11859.143
39256.972
39533.252
11908.659
12052.585
39586.032
39181.85
11818.785
11992.387
38710.008
39295.264
11974.037
12092.902
39404.52
38412.042
11753.053
11970.94
39307.158
39856.532
12076.374
12170.32
38797.421
11806.429
38409.355
11853.173
36943.479
35983.991
11500.96
11525.788
40416.587
39876.531
40547.473
40416.92
37620.435
39219.391
39761.472
40306.786
41290.518
42021.365
42134.291
41271.23
41078.066
40701.235
39727.843
40678.269
1438.0066
1599.7076
311.35495
312.23741
323.96765
322.95616
1900.8242
1897.2332
5117.5758
5071.9894
4590.0738
4636.3217
4994.2431
5035.4313
4525.1222
4545.5286
4605.3069
4717.5354
4565.6616
4664.8718
4633.657
4755.6766
4730.7923
4663.1639
3014.1767
3275.3478
3079.2392
3366.4506
3938.7734
4032.228
4173.7762
4077.5186
3355.1114
3430.9433
3127.0047
3069.0997
3966.2267
3839.7852
3967.4907
4105.9547
3139.1469
3128.8783
3428.354
3437.1117
3997.6725
4046.047
4129.898
4178.3231
3165.8753
3421.3172
3459.3123
3145.0942
4177.9692
4041.6722
4192.3581
4027.5199
290.35894
291.45405
300.47109
301.90829
383.70729
402.19938
396.1064
381.37433
4561.7511
4491.5357
4670.3885
4383.2427
4968.8727
5058.6863
4574.8046
4511.1758
4792.0694
5009.528
4346.9126
4531.9332
4624.3648
4731.0967
4623.157
4529.1474
7185.7062
7197.8159
6127.5337
6117.9596
6888.0499
7170.5386
6087.8179
5862.5096
7975.8429
8046.3384
8336.5113
8406.1673
8334.2878
8399.2165
8361.7297
8459.675
7216.9786
7280.4153
6183.8127
6145.7384
7014.707
7200.9588
6120.585
5947.2197
8357.9913
8466.3994
8450.8676
8556.7475
8139.0368
8241.2081
8358.0554
8467.7569
9786.5677
9412.2198
9911.0077
9510.989
9271.0613
9388.1803
9203.0909
9099.2266
9033.9164
9289.6154
8856.6306
9113.6636
9535.48
9818.2708
9159.7981
9434.0714
9199.9816
8983.4099
9107.6877
9291.9278
8796.8019
8593.9437
9221.5884
8997.2568
9227.525
8842.8934
9255.5774
9685.3507
9664.9685
9251.48
9824.1488
9428.8632
9423.3343
9012.7295
9881.3821
9421.5454
9878.8779
9439.6974
10087.592
9651.9401
10029.725
9355.272
10268.929
9583.5679
9555.8167
8921.6341
10006.316
9312.3159
8949.3219
8065.3307
9338.758
8374.5402
9822.605
9051.2337
10074.489
9276.3674
9348.8641
8619.2503
9777.8046
8981.0856
9411.1567
8463.1251
9650.7213
8663.4712
9620.6924
8640.3004
9723.5234
8728.7951
9808.5042
10093.708
9063.734
9313.2135
10046.669
9259.1664
10142.589
9349.079
9431.4243
8489.7468
9682.6674
8698.6239
10237.772
9579.1464
10335.346
9657.306
9786.1954
9379.8377
10081.691
9659.959
10052.525
9636.9576
10159.938
9723.2072
9974.9618
10270.618
9335.2764
9604.36
9466.2806
9157.6567
9226.9332
8986.4613
9360.3361
9151.4561
9684.9028
9457.5178
9823.734
9409.9619
10158.203
9707.5174
9909.7173
9457.1277
9653.8669
9270.6562
8607.4006
8662.2996
8272.3181
8374.0892
8531.2024
8590.5737
8807.3255
8866.5252
7412.5915
7631.329
6351.5647
6547.7841
7445.785
7159.2746
6131.9951
6390.2976
8329.458
8407.173
8517.7014
8593.902
7128.3661
7387.0726
6315.4981
6072.3853
7209.473
7343.7717
6248.4608
6151.0182
8255.3371
8341.8533
8547.4388
8633.1623
9661.5796
9276.4006
9887.8587
9466.0559
9132.8002
8944.1728
9453.9354
9259.8619
9192.1256
8996.0369
9413.1998
9198.5946
9619.2322
9231.6879
9961.7639
9557.1166
9940.0546
9822.6949
9149.9265
9080.8086
9929.7141
10209.736
9146.0401
9392.4307
9500.3166
8535.7668
9754.1615
8746.44
9509.011
8533.8041
9420.9757
8488.5833
9834.458
10151.361
9085.3876
9361.906
9846.9979
9073.5488
10014.53
9224.8904
9423.6182
8471.5971
9583.2922
8608.6745
9443.5933
9721.6178
8507.2641
8741.4137
10050.929
9395.3349
10228.596
9546.0416
9893.7989
10093.091
9472.6387
9640.3992
9850.8199
10196.599
9432.7197
9755.4416
10018.331
10355.326
9372.7089
9676.6129
10157.005
10456.174
9479.2364
9738.6915
10025.452
10342.703
9580.4382
9862.0226
9876.4292
10078.159
9601.0922
9461.2292
10183.136
10023.887
9478.1833
9374.7811
14397.457
14558.129
13974.542
15033.574
14483.727
13786.469
14181.551
14927.29
15595.877
14935.836
15440.232
14775.798
15317.035
14530.545
15462.331
14684.172
15784.031
14850.08
15178.217
16124.481
16677.63
16223.011
15301.993
15751.249
14775.214
15319.48
14464.299
15665.836
16272.652
15392.588
15798.892
14937.58
14941.139
15345.839
14467.966
15861.826
14915.502
14107.599
14555.956
15419.231
15571.9
16368.183
15385.92
16551.059
15873.211
14955.903
16038.359
15125.616
14937.296
14323.177
14628.743
15264.993
14129.734
15181.123
14855.669
14428.649
15437.422
15915.985
14828.113
15284.094
14645.791
15865.067
15093.318
15386.634
18083.72
18266.886
16427.798
16659.807
17057.67
15411.949
15709.246
16771.526
18463.921
18713.356
17139.935
16808.936
17178.232
17563.201
15820.745
16233.584
16380.424
17604.112
15996.235
17937.057
16300.39
15002.286
15459.313
16766.751
17167.008
18731.342
17008.104
18826.564
17384.598
15966.644
17546.415
16155.444
19167.064
19282.029
17402.762
17635.228
18449.194
18528.629
20327.956
20312.721
18518.196
19557.106
19645.97
19685.035
17840.956
17957.886
18195.318
18380.43
20007.64
20058.155
19242.678
18914.695
16129.955
15509.118
15689.037
16347.554
16302.282
16215.916
15554.939
15647.918
15475.069
16095.413
15324.637
16273.282
16211.738
15418.464
16144.523
15338.834
16127.754
15195.752
15516.419
16460.815
15129.832
15695.881
14832.328
16029.774
16155.899
15271.608
15970.683
15084.303
16193.756
16854.539
15944.734
17141.795
16464.614
15608.001
15819.749
16718.942
16207.433
17033.702
16068.726
17172.255
16598.773
15687.199
16706.845
15798.171
15334.146
14711.846
14995.782
15641.419
15592.272
14956.694
15760.768
15126.127
14799.139
15275.794
14531.818
15570.603
15674.027
15524.693
14765.052
14918.379
18323.473
18500.435
16695.152
16923.099
17355.08
15723.896
16016.406
17073.387
17645.658
19061.76
17427.743
19248.141
17791.031
16448.311
16703.154
18059.748
17730.506
19280.35
17596.616
19358.903
17998.721
16599.701
18129.618
16752.787
12091.064
12563.811
11912.772
12780.23
12950.013
12274.686
12531.165
13253.089
12179.73
11590.709
12374.318
11778.491
11893.097
12098.892
12522.692
12772.212
13215.844
13748.284
13048.604
13923.369
13507.609
13130.655
12491.192
12808.625
13083.979
12761.76
11980.634
12246.732
12467.69
12623.245
13316.075
13476.441
13128.583
13542.157
12870.603
13845.633
14038.803
13337.745
13675.653
14424.81
13144.769
12337.632
13405.974
12550.157
12742.693
13040.375
13598.447
13940.356
12149.997
12687.145
12011.842
12838.211
12480.063
12209.293
11575.164
11801.839
11210.745
12067.38
11824.127
11460.488
11655.923
11773.106
12271.415
12399.278
14375.8
14629.908
14074.135
14952.177
14609.522
13929.406
14224.308
14935.095
15044.686
15165.961
14604.244
15635.866
15159.509
14450.544
14876.478
15620.362
14853.204
14188.524
14699.405
14024.542
14425.299
13998.243
13371.435
13764.153
14128.254
13699.203
12873.08
13237.161
13483.425
13655.539
14389.217
14552.056
14684.867
14263.72
13726.968
14117.878
14656.278
14231.43
13564.525
13952.546
14582.613
15032.358
14430.393
15176.617
14230.059
14965.916
15110.769
14386.844
14071.765
14405.277
13773.782
14723.515
14938.973
14295.857
14694.626
15379.222
14144.097
13274.575
14470.436
13560.954
13771.4
14143.461
14675.556
15084.83
14485.206
13700.314
13890.231
14692.426
14581.185
13811.322
13900.543
14653.246
13950.863
13049.145
13218.284
14149.832
14081.083
13169.596
13259.957
14160.526
13265.031
12549.997
12698.673
13438.66
13390.857
12668.811
12747.788
13471.097
12807.194
12147.808
12318.865
12973.708
12938.382
12295.439
12341.037
12996.47
12932.587
12247.201
12401.489
13121.462
13210.893
13103.904
12405.659
12507.335
12512.057
11869.187
12020.625
12670.921
12734.369
12654.168
11992.437
12057.453
13959.606
13257.484
13493.351
14236.022
14312.03
14185.888
13474.677
13600.391
13545.133
12698.477
12888.731
13778.336
13868.204
13754.255
12882.991
12998.493
14848.348
14194.998
14464.018
15133.896
15196.108
15075.091
14410.973
14544.227
14590.894
13677.515
13940.747
14883.691
14927.197
14805.758
13894.483
14028.501
15870.857
16027.404
15270.69
15419.334
15847.562
16009.407
15095.433
15245.759
15884.572
15263.984
15336.844
15943.964
15082.257
15156.34
15847.154
15901.832
15605.061
14900.478
15064.874
15772.618
15602.768
14907.948
14969.675
15656.281
15285.956
14267.058
14435.371
15475.683
15321.915
14314.888
14386.839
15360.152
15058.611
14484.961
15339.985
14749.993
15334.25
15050.528
14348.003
14608.532
15433.278
14860.561
15295.608
14718.135
14571.899
15287.391
15414.021
14705.631
12617.281
12841.829
12788.844
12882.173
12459.382
12694.205
12724.007
12853.036
12630.058
12710.402
12293.497
12274.781
12552.531
12826.33
12916.362
13006.167
12782.939
12574.279
12681.698
12842.572
8794.6907
8943.1184
8593.7303
8635.6002
11800.7
12129.224
12384.427
12538.673
12573.87
12773.099
12766.51
12686.933
12816.541
12999.286
12958.541
13025.986
9032.9556
8814.5912
8937.6431
9098.9792
4894.7832
4955.0685
430.76801
455.7202
450.23048
428.00363
8995.1799
8967.7211
8596.2122
8762.69
8709.9642
8987.5788
8182.2684
8560.3562
553.94542
544.94373
551.642
573.65261
599.27331
644.79968
647.38573
618.30665
477.7017
476.92723
451.35758
659.76791
650.2716
452.74728
651.87784
666.12409
2079.5241
629.43849
631.46874
2179.0013
3948.4553
3977.5724
2167.2483
3965.8947
3930.5286
626.78706
633.24224
2198.377
3968.4627
3992.0971
2166.5155
3905.0891
3962.1467
3415.0478
3457.9716
6472.01
6457.0675
7099.8927
7124.8418
7146.1193
7123.8069
11849.972
11845.386
17516.155
17440.308
12314.438
12279.885
31348.351
30823.826
27013.97
45767.389
27175.026
46627.435
11898.245
11779.776
17373.469
17586.542
27188.974
26852.8
46851.981
46733.333
11823.574
11827.131
17387.988
17489.094
11980.205
11862.817
17480.953
17679.245
27270.767
27291.441
47088.179
46969.733
27216.2
26794.726
46595.722
46271.389
7111.0333
7053.8089
7123.7283
7148.2322
17292.752
11839.555
11702.637
17519.552
27119.678
27026.392
46533.337
46897.54
11808.619
11849.427
17492.045
17438.662
26766.265
27245.239
47046.875
46700.75
11820.145
11939.596
17597.706
17421.786
11795.177
11857.665
17435.617
17474.923
27163.118
26696.516
46343.413
45923.098
27180.649
46429.028
27097.961
46721.297
3926.386
3906.9918
2178.2499
4618.2851
4633.2131
3960.3677
3902.059
2187.3057
4593.8422
4677.1698
3893.7018
3863.4492
2164.9673
4560.4318
4587.637
3997.6673
3979.1798
2229.2568
4693.9596
4713.2588
6077.653
6022.791
10106.701
10045.794
15113.149
15010.842
6043.5179
6011.9037
10026.126
10104.874
14923.404
15143.385
6023.9645
5993.7952
10077.962
10028.402
14996.247
15162.993
6118.7204
6043.894
10062.708
10087.192
15042.867
14964.02
17947.138
22108.035
18094.509
22155.553
22255.319
18068.987
18231.348
22445.12
38016.263
26025.915
26335.716
38394.787
38306.489
26313.394
26291.793
38107.921
54570.417
63283.728
63736.295
54819.409
54799.412
63335.316
63482.894
54620.636
26131.265
26285.031
38165.512
38052.062
54409.25
63199.041
63489.079
54412.435
37879.417
25967.502
25929.965
37756.92
54205.582
63179.285
63275.385
54065.796
22151.765
18003.035
18218.032
22467.077
22436.074
18220.922
18370.737
22502.01
17908.638
22047.03
18138.056
22384.662
18364.512
18193.981
22398.515
22510.183
18335.258
18174.284
22386.34
22580.336
18194.923
18039.748
22231.914
22299.291
38058.532
25937.163
26272.572
38511.921
38605.121
26290.275
26337.148
38395.097
52829.496
63116.491
63679.755
53773.174
63727.916
63767.274
54279.294
54430.576
38501.444
26298.016
26448.542
38550.521
38213.761
26108.002
26087.607
37929.351
54700.06
63726.746
63943.608
54731.26
63419.931
63518.135
54425.993
54495.15
5970.7253
5951.9223
10004.06
9952.755
15060.089
14842.103
6030.7496
5936.4396
9964.9921
9978.1507
14987.483
14949.445
6127.8895
6089.2064
10118.167
10190.399
15028.347
15232.566
6146.7442
6080.2263
10132.44
10096.194
15112.1
15051.982
22045.591
17970.383
22374.766
18199.458
22362.55
18224.661
18390.411
22450.328
22248.737
18110.441
18300.402
22476.538
18017.752
18179.938
22209.501
22143.056
37789.532
25850.082
26173.381
38103.124
26178.925
26164.263
37719.209
38061.254
63071.496
54590.741
54426.471
63122.119
54204.954
62987.752
63447.418
54552.382
25943.916
25947.003
37677.531
37606.185
62977.873
63291.523
53912.258
54027.641
63102.627
62878.761
53288.277
52942.556
26269.926
26069.219
37978.779
37823.071
21940.481
17815.999
18046.356
22280.765
22302.569
18101.641
18268.359
22395.904
22223.081
18032.914
18204.584
22430.6
17946.527
18109.699
22173.909
22104.203
37782.674
25799.823
26149.416
38306.052
38431.714
26170.291
26183.609
38130.29
54008.408
63146.677
63642.044
54440.817
63543.648
63590.196
54599.794
54647.974
38097.057
26086.419
26260.498
38151.841
37835.098
25930.999
25911.861
37646.676
54606.018
63139.564
63471.425
54665.199
63291.746
63103.591
54409.508
54356.951
6864.9074
6931.6812
6917.9287
6944.545
5082.6568
5021.8787
4450.7269
4491.5984
7930.987
7955.2431
6911.0485
6893.7315
7839.4571
7906.034
6889.5942
6832.2674
6948.1043
6993.8317
5080.5184
4519.3245
6923.8869
7995.8352
7945.4567
6958.5167
11020.505
16157.469
10975.951
16022.807
20444.091
20639.598
20131.77
20526.428
10978.745
16168.735
10924.971
16008.309
20726.966
20450.318
20481.373
20301.904
11054.738
16192.89
11109.995
16297.363
20375.761
20734.121
20634.43
20805.154
24335.668
24436.123
23978.056
24393.751
24594.979
24344.384
24197.124
24275.796
57637.92
94615.5
94664.267
58260.653
58403.94
95493.752
95045.354
58358.353
28290.618
27856.051
54223.259
53477.9
28302.374
28249.521
54332.332
54100.636
28251.044
28487.379
54229.336
54141.09
58378.041
96601.464
96037.21
58631.21
53904.362
28125.888
28133.672
54077.623
96413.337
95592.391
58430.176
58533.789
24219.752
24598.061
24521.89
24607.383
28526.405
28144.229
55029.457
55500.084
58285.237
98601.19
99078.163
58433.798
28497.327
28478.788
55635.332
54906.578
98553.535
99643.965
58356.706
58197.891
54567.825
53762.423
58134.271
99241.499
96857.334
58271.417
21804.839
20879.454
8152.7244
8221.0105
22457.47
22473.174
8517.4821
8452.737
40406.381
39847.302
12188.924
12303.778
39367.613
40135.892
12144.982
12173.178
38385.582
38227.324
11604.219
11713.25
37323.089
37580.116
11600.712
11770.032
39403.673
39070.631
11808.245
11940.654
39291.591
39316.558
12002.781
12194.271
36977.296
35126.282
10942.328
11191.88
11537.41
38466.977
38497.43
11729.751
39115.518
38431.115
11831.755
11981.483
38801.46
39520.594
12044.008
12086.516
37645.44
37745.581
11557.881
11629.375
35664.481
36705.096
11421.51
11445.239
39305.534
37940.056
11776.243
11995.463
39779.45
40018.09
12144.369
12280.2
40113.861
39690.617
12078.141
12234.836
38887.298
39651.799
12166.58
12237.472
39430.216
37515.007
40372.927
40651.986
41619.091
41069.211
40737.539
41168.633
42102.64
41419.315
41646.433
42398.383
41425.196
41041.162
40213.969
41037.929
41204.907
40302.709
41088.201
41604.716
41665.964
41192.959
40578.125
41409.453
41398.589
40430.477
41315.947
41902.012
40929.271
40667.681
39113.972
37835.654
73332.399
35133.389
72562.285
34581.08
73302.258
35395.365
72891.871
35329.91
70025.892
32483.118
72093.51
33990.735
72308.339
34592.219
72987.428
35094.261
73396.514
36236.31
74029.244
36988.899
73852.159
37187.986
72952.153
36352.16
73296.089
36037.053
72670.653
35685.995
72013.017
34774.662
72912.864
35700.682
3255.8678
3277.3994
3570.4751
3533.0144
4114.5719
4247.2238
4170.2511
4305.0482
290.60937
290.95756
301.24626
300.64524
371.3635
371.60585
397.69577
398.23101
4683.4581
4857.5597
4787.5938
4748.5168
4703.5599
4646.4604
5186.4263
5113.197
9976.4787
10192.246
9214.6816
9403.5173
9899.7507
9130.0378
10148.521
9343.1035
9476.9277
8517.4274
9714.0521
8708.1441
9579.2709
8619.3692
9773.0977
8781.5087
9616.6823
9652.6011
8869.8519
8919.8329
9869.8735
9095.8004
10056.16
9257.2557
9222.8506
9265.7637
8291.8796
8341.5081
8487.4266
9453.0254
9621.0652
8625.9764
10082.858
9416.9216
10284.002
9585.9246
9925.702
10146.358
9502.5589
9691.2388
9832.0846
9846.6491
9167.4059
9205.2463
9706.9148
9692.489
9267.4963
9284.4158
10105.116
9452.1983
10351.989
9662.8828
9981.0903
10203.146
9562.5263
9772.4077
9929.4836
9524.2748
10176.087
9737.356
10162.111
10383.529
9505.8387
9707.404
6690.1593
7021.0234
5952.0157
5674.6851
7766.1399
7833.1446
8183.4454
8248.8428
7073.318
7272.9884
6194.8288
6013.386
8203.528
8275.0239
8450.1291
8530.9154
8960.8841
9069.0273
8756.4557
8878.3139
9508.7659
9302.1772
9418.3742
9210.5965
10003.417
9582.8575
9910.3024
9484.0261
9415.6448
9560.4272
9013.4709
9165.7372
8117.8413
8190.764
8195.2377
8277.7289
8624.9191
8701.3064
8521.644
8600.9346
7463.5663
7352.2361
6377.2388
6267.1284
7002.7272
7066.5647
6021.2572
5953.57
9062.9796
8860.4593
9367.1275
9165.2031
8567.386
8360.8164
9059.6359
8830.1553
8976.7381
8600.7666
9513.4658
9087.022
9535.1368
9141.6941
9888.101
9477.7547
7251.9269
7384.2574
6315.2092
6181.1622
7246.1391
7359.4312
6262.8275
6181.4319
8376.2204
8454.6712
8538.4101
8619.3047
8396.1844
8472.3976
8544.3918
8628.9609
9110.5076
9011.7827
8882.4715
8826.5355
9258.9721
9055.4408
9497.822
9273.1731
9536.4074
9480.7399
9111.2612
9094.7305
9719.5711
9318.5569
9956.7775
9521.9656
7308.7486
7478.6464
6406.4344
6258.8765
8290.1842
8342.7448
8166.4674
8246.9139
8427.9713
8495.3725
8638.4985
8698.5814
7168.9354
7070.7399
6122.9162
6053.5706
9697.7075
9317.0019
9941.072
9528.6067
9270.8846
9069.0116
9448.7421
9253.4403
9751.0383
9354.1735
9956.7944
9556.6278
9236.0657
9037.8635
9446.758
9237.806
358.69254
344.83431
367.8771
365.0141
476.06589
539.03615
515.86363
467.78607
9927.5632
10314.923
9271.5023
9610.4121
9164.5465
8767.1657
9710.4238
9254.5938
9764.7672
9346.0101
10142.082
9691.9158
9291.3421
8681.46
9835.1362
9146.9679
9571.5079
9782.2079
8844.157
9028.0684
10127.952
10048.119
9317.3647
9257.5789
9675.5607
9625.0083
8685.1712
8644.845
9199.3986
8289.9629
9395.8588
8449.7057
9097.1233
8407.4289
9609.6028
8827.0363
9730.6525
8978.6172
10101.262
9287.7499
8733.2686
7896.2398
9183.0122
8240.5959
9328.779
8400.7503
9660.7788
8662.3257
9616.7822
9792.8558
9195.3886
9370.799
10223.021
10121.217
9668.7086
9768.7392
10368.468
9668.8147
10267.111
9573.3433
9764.3449
9962.529
9118.8759
9304.2697
20545.177
20555.429
18646.112
18708.427
18274.561
18402.742
20090.994
20112.275
19315.003
19802.788
19292.427
19404.28
17487.145
17705.728
18516.296
18644.6
20435.08
20453.918
19677.812
18647.932
17692.971
18001.18
16416.371
16056.014
16346.99
16795.366
15026.825
15474.677
17266.506
18777.017
17027.642
18944.888
15950.831
17381.744
17655.661
16252.859
17291.085
18895.232
17153.785
18996.773
16070.545
17499.55
17675.863
16260.155
17123.587
18553.3
16889.134
18717.39
15909.013
17267.407
17533.745
16204.614
20151.195
20198.726
18393.586
18502.023
18738.414
18814.8
20597.003
20587.531
19816.321
19407.112
19945.918
19974.647
18140.77
18234.148
18221.943
18346.681
20013.164
20029.715
19240.184
19206.905
18642.364
18815.822
17223.43
17012.399
17364.309
17634.913
16055.882
16320.539
17470.56
19023.6
17316.385
19115.723
16314.03
17702.656
17866.278
16503.67
16927.236
18400.822
16741.618
18545.554
15746.01
17097.921
17329.502
15986.477
17076.929
18505.523
16858.062
18656.928
15886.537
17232.698
17469.781
16150.821
15381.599
15768.452
15179.371
16012.919
15054.098
15764.111
15962.35
15217.484
15923.089
16067.258
15282.623
15419.397
15109.859
15984.196
15228.505
15867.195
15837.18
16460.683
15570.055
16759.094
16738.539
15781.12
15964.012
16920.347
15566.985
16294.491
15404.735
16460.283
16074.724
16355.716
15253.596
15489.689
16140.872
15212.736
15462.537
16406.745
16562.44
16295.792
15375.91