/*--------------------------------*- C++ -*----------------------------------*\
  =========                 |
  \\      /  F ield         | OpenFOAM: The Open Source CFD Toolbox
   \\    /   O peration     | Website:  https://openfoam.org
    \\  /    A nd           | Version:  7
     \\/     M anipulation  |
\*---------------------------------------------------------------------------*/
FoamFile
{
    version     2.0;
    format      ascii;
    class       volVectorField;
    location    "4000";
    object      U;
}
// * * * * * * * * * * * * * * * * * * * * * * * * * * * * * * * * * * * * * //

dimensions      [0 1 -1 0 0 0 0];

internalField   nonuniform List<vector> 
33943
(
(-9.225864e+24 -2.7467461e+23 8.2417297e+23)
(-7.2059733e+24 -3.3949702e+23 8.9786099e+23)
(-6.6027462e+24 -3.4156233e+23 2.4263835e+24)
(-7.4314352e+24 -3.1266322e+23 4.1898227e+23)
(-6.5810482e+24 -2.5676031e+22 -2.6131831e+22)
(-1.2965574e+25 5.4141085e+22 5.3598427e+23)
(-6.1877207e+24 -3.5749062e+23 5.8649607e+23)
(-7.848163e+24 -3.7149327e+23 4.6681275e+23)
(-6.7572364e+24 -5.9021775e+23 1.0867622e+24)
(-6.6039034e+24 1.2617991e+23 9.8481313e+23)
(-6.8431859e+24 -3.2402164e+23 2.4943204e+24)
(-6.9008808e+24 -3.1346319e+23 2.5922914e+24)
(-5.3858829e+24 -1.6868353e+23 7.9229102e+23)
(-6.1237113e+24 -1.6112826e+23 1.8668602e+24)
(-6.1186988e+24 -1.4440982e+23 1.8633328e+24)
(-5.3869794e+24 2.2384107e+23 7.0137753e+23)
(-7.1712167e+24 -2.2552382e+23 -9.8837175e+23)
(-7.8613905e+24 2.0477959e+23 1.3507858e+24)
(-7.3876107e+24 -6.8260626e+22 4.8974299e+23)
(-7.3042974e+24 -3.7238254e+23 4.2611025e+23)
(-9.9876766e+24 -3.5705114e+23 1.4517057e+24)
(-6.4045042e+24 -1.0997947e+23 7.5324458e+23)
(-6.3443549e+24 -1.6182375e+23 7.4108839e+23)
(-6.579339e+24 1.1785198e+23 -2.4231599e+23)
(-5.5532784e+24 -2.4468379e+23 1.0306945e+24)
(-4.7774676e+24 4.5761264e+23 -1.0067171e+24)
(-4.9844653e+24 -2.7550456e+21 -1.1065129e+24)
(-5.5603674e+24 2.501613e+23 1.0245631e+24)
(-9.4608238e+24 -8.2993799e+23 3.8033503e+23)
(-7.9149432e+24 -9.032297e+23 -1.4531416e+24)
(-7.6563186e+24 4.0876671e+23 -1.4275106e+24)
(-8.1163616e+24 -1.2686756e+24 1.6876146e+24)
(-7.8932682e+24 8.3314306e+23 1.5044555e+24)
(-5.2131393e+24 -3.8365122e+23 -6.2868985e+23)
(-5.3998667e+24 -2.7974385e+23 -1.5349722e+24)
(-5.3932142e+24 -2.2390575e+23 -1.0494019e+24)
(-5.5781313e+24 2.6020553e+23 -1.1022729e+24)
(-4.5727229e+24 -3.5654109e+23 8.8323325e+23)
(-5.3015032e+24 6.9314902e+23 1.0945132e+24)
(-6.459299e+24 -6.9820963e+23 8.5001078e+23)
(-6.2814327e+24 -1.1162099e+23 9.0099115e+23)
(-6.852771e+24 -2.3552915e+23 2.2278497e+24)
(-7.077496e+24 -1.9307757e+23 2.4627671e+24)
(-5.1096757e+24 -3.2342581e+23 9.0882021e+23)
(-4.9933363e+24 4.1062171e+22 8.6409733e+23)
(-6.1392123e+24 -1.4431709e+23 1.9903716e+24)
(-6.0731227e+24 -1.6112751e+23 1.8874101e+24)
(-5.1241766e+24 -1.1816235e+23 8.8558069e+23)
(-4.9325465e+24 1.5686439e+23 7.7525078e+23)
(-6.2363311e+24 -7.104982e+22 1.9917564e+24)
(-6.2033764e+24 -1.7491695e+23 1.9646703e+24)
(-4.1874068e+24 1.2815813e+23 6.4800488e+23)
(-5.4581235e+24 -5.6748704e+22 1.5124285e+24)
(-4.2141041e+24 -5.4840106e+22 7.267725e+23)
(-5.3516095e+24 -8.2213754e+22 1.4879705e+24)
(-4.199635e+24 -5.3454447e+22 6.789397e+23)
(-4.1427502e+24 1.500604e+23 6.4133628e+23)
(-5.3703e+24 -4.9862044e+22 1.4702325e+24)
(-5.458527e+24 -6.3667997e+22 1.5184845e+24)
(-1.0711179e+25 -2.3698282e+23 8.9350308e+23)
(-7.1969103e+24 -2.5059015e+23 -9.946834e+23)
(-7.8753414e+24 1.8155358e+23 1.4680249e+24)
(-7.1900797e+24 5.8143401e+22 -9.5135784e+23)
(-7.8788669e+24 -4.5001632e+23 1.4520815e+24)
(-6.4880421e+24 8.9220474e+22 3.3721006e+23)
(-6.0819679e+24 -1.4360978e+23 -7.7599467e+23)
(-6.4030146e+24 -2.335538e+23 3.2962524e+23)
(-5.9822819e+24 -7.879288e+21 -7.4741181e+23)
(-6.7208645e+24 8.4793872e+22 1.033763e+24)
(-6.458831e+24 -1.7762348e+23 -3.772841e+23)
(-6.6183911e+24 -3.4160004e+23 9.9993484e+23)
(-6.4363425e+24 2.3960923e+21 -3.5950427e+23)
(-6.2963305e+24 -1.3833864e+23 7.1831797e+23)
(-6.3654676e+24 -9.466586e+22 7.7736918e+23)
(-6.2230161e+24 -1.9539985e+23 7.4497364e+23)
(-6.2701185e+24 -1.3003229e+23 7.8544938e+23)
(-7.2396705e+24 -6.7873293e+22 5.2246681e+23)
(-9.7453396e+24 -1.4298673e+23 1.3019871e+24)
(-6.9947705e+24 -2.9713393e+23 3.1256403e+23)
(-5.5867229e+24 -4.7825714e+23 1.0710591e+24)
(-5.8068944e+24 1.1318272e+23 1.0425405e+24)
(-5.2779521e+24 -3.3863438e+23 -1.2366984e+24)
(-4.6511717e+24 1.1524736e+23 -1.1384641e+24)
(-5.333855e+24 -6.0867008e+22 7.0368274e+23)
(-5.440595e+24 -6.4485696e+22 7.8573823e+23)
(-5.3238433e+24 -6.5163028e+22 7.565674e+23)
(-5.39552e+24 -6.6286265e+22 7.8401254e+23)
(-5.607488e+24 3.6502587e+23 8.3317115e+23)
(-5.744298e+24 -1.293476e+23 8.4306928e+23)
(-4.8777569e+24 4.6758994e+23 -1.0302371e+24)
(-5.233505e+24 2.1143756e+23 -1.0474731e+24)
(-5.2114088e+24 -5.8740142e+22 2.8276038e+22)
(-4.9062378e+24 1.5233192e+23 4.4266034e+22)
(-4.9250108e+24 3.1902448e+22 6.8132818e+21)
(-5.4156943e+24 -1.9211088e+23 -6.9505896e+22)
(-7.5799272e+24 -1.0416402e+24 -1.2446824e+24)
(-7.5513875e+24 -2.1491166e+23 -1.2972468e+24)
(-7.5125299e+24 -1.535295e+24 1.5015611e+24)
(-7.7030724e+24 -2.0917183e+23 1.6131418e+24)
(-5.2363314e+24 -2.7067701e+23 -1.6191982e+24)
(-5.2938858e+24 -3.6697384e+23 -1.6036137e+24)
(-5.3078318e+24 -5.6984867e+23 -6.126734e+23)
(-5.309787e+24 -2.7748895e+22 -6.1479588e+23)
(-5.3756511e+24 -2.7977834e+23 -1.636755e+24)
(-5.2692616e+24 -4.223784e+23 -6.1741376e+23)
(-5.3850783e+24 9.9387754e+22 -6.4172214e+23)
(-5.3192655e+24 -2.3535895e+23 -1.587035e+24)
(-5.665005e+24 -5.7333349e+23 -1.0720632e+24)
(-5.627236e+24 4.8760492e+22 -1.057965e+24)
(-5.8946703e+24 3.0444581e+23 1.768177e+24)
(-5.8425038e+24 -9.4773932e+23 1.7050587e+24)
(-5.6654918e+24 -3.3248769e+23 -1.092357e+24)
(-5.6626049e+24 2.9729627e+23 -1.0966187e+24)
(-5.7551786e+24 7.8364156e+23 1.6264472e+24)
(-5.7375501e+24 -4.9133369e+23 1.6345992e+24)
(-6.46405e+24 -1.4049807e+23 -1.373558e+24)
(-5.6662361e+24 -2.9762911e+23 -1.9709501e+23)
(-4.2861081e+24 -1.8184573e+23 -1.2308869e+24)
(-4.2647111e+24 -1.810724e+23 -1.2379852e+24)
(-3.8409663e+24 -1.9725162e+23 -7.1656201e+23)
(-3.9410225e+24 8.0693779e+22 -7.108667e+23)
(-4.2824176e+24 -2.1631605e+23 -1.2262076e+24)
(-3.8518795e+24 -2.2762405e+23 -6.9734315e+23)
(-3.4191486e+24 -1.0044362e+23 -7.204582e+23)
(-3.5617756e+24 2.0083054e+23 -7.5050757e+23)
(-3.1894352e+24 -2.7025433e+23 1.1427479e+24)
(-3.7080064e+24 4.300987e+23 1.4114032e+24)
(-3.4927065e+24 -1.6106221e+23 -7.1950501e+23)
(-3.4458771e+24 -3.1485174e+23 1.266149e+24)
(-3.742184e+24 5.0547102e+23 1.4447648e+24)
(-6.8811153e+24 -3.9639775e+22 2.095235e+24)
(-4.7674278e+24 -1.3623006e+23 7.7040725e+23)
(-4.865629e+24 -3.9551399e+23 7.8196116e+23)
(-5.9918099e+24 -1.5372855e+23 1.7667656e+24)
(-6.0795975e+24 -1.7489484e+23 1.8758759e+24)
(-4.7378813e+24 -1.1024925e+23 8.0934065e+23)
(-6.3008554e+24 -1.8945661e+23 1.9634957e+24)
(-4.9124195e+24 -3.2870429e+23 8.0592569e+23)
(-6.3500698e+24 -1.1872017e+23 1.9035399e+24)
(-4.0880657e+24 -1.8474569e+23 7.7640378e+23)
(-3.9583273e+24 -1.4796424e+22 7.0826363e+23)
(-5.3862573e+24 -1.0692363e+23 1.576663e+24)
(-5.3664373e+24 -8.1147617e+22 1.5503608e+24)
(-4.0481213e+24 -9.1275877e+22 7.2806462e+23)
(-3.8922072e+24 7.6520855e+22 6.7266905e+23)
(-5.55131e+24 -5.120956e+22 1.6007388e+24)
(-5.4067778e+24 -6.0833524e+22 1.5765432e+24)
(-4.062406e+24 -5.2996137e+22 7.4859041e+23)
(-3.9646486e+24 1.3409624e+23 6.6704277e+23)
(-5.4337606e+24 -4.048612e+22 1.5736697e+24)
(-5.4048179e+24 -2.8480939e+21 1.5607057e+24)
(-4.0518283e+24 4.447429e+22 7.380289e+23)
(-3.9031984e+24 1.6996122e+23 6.3342627e+23)
(-5.3707874e+24 -5.8335463e+22 1.5435701e+24)
(-5.4333027e+24 1.0582544e+22 1.5717349e+24)
(-3.6254945e+24 -2.3363479e+22 7.5323762e+23)
(-3.5804088e+24 1.2221513e+23 7.0883435e+23)
(-4.6652137e+24 -5.6039722e+21 1.2639257e+24)
(-4.650804e+24 1.8939349e+21 1.2724189e+24)
(-3.6531669e+24 -2.7258449e+22 8.0436045e+23)
(-3.6446039e+24 1.4862179e+23 7.39943e+23)
(-4.5794329e+24 -2.9556854e+22 1.2659845e+24)
(-4.6074707e+24 2.408152e+22 1.2630458e+24)
(-3.6868457e+24 -7.6448312e+22 7.9024069e+23)
(-3.6212633e+24 1.5395306e+23 7.2175694e+23)
(-4.5818117e+24 -3.4597804e+22 1.232333e+24)
(-4.5955899e+24 3.581301e+22 1.2387436e+24)
(-4.634477e+24 1.3192363e+22 1.2701114e+24)
(-3.6246329e+24 1.4060355e+22 7.6905541e+23)
(-3.5004994e+24 1.442267e+23 6.9864844e+23)
(-4.5991068e+24 -2.8118336e+21 1.2601915e+24)
(-1.0327697e+25 -1.2693866e+23 7.8703843e+23)
(-7.9696596e+24 -4.6104425e+23 1.5036032e+24)
(-7.0681047e+24 -1.7507984e+23 -9.4605699e+23)
(-7.0861211e+24 7.3647727e+22 -9.2549907e+23)
(-5.8729691e+24 -3.5616783e+23 1.075589e+24)
(-4.9926377e+24 9.1616854e+22 -1.2388149e+24)
(-5.2749473e+24 -3.3217822e+23 -1.2989065e+24)
(-6.0143447e+24 2.1996585e+23 1.1331134e+24)
(-7.6935069e+24 2.3104642e+23 1.3759914e+24)
(-6.0222871e+24 -1.3619186e+23 -7.5701039e+23)
(-5.8789392e+24 -1.1686754e+21 -8.8556385e+23)
(-6.2558371e+24 -2.4781711e+23 3.3267173e+23)
(-6.4239791e+24 9.8453577e+22 3.9021737e+23)
(-6.3047898e+24 -1.9012758e+23 -4.4458017e+23)
(-6.61608e+24 7.6522891e+22 1.0576465e+24)
(-6.6110541e+24 -3.5892954e+23 1.0603125e+24)
(-6.2195966e+24 -5.752523e+21 -4.5253066e+23)
(-6.460162e+24 -2.5486127e+23 3.4931002e+23)
(-5.961763e+24 -3.0012362e+18 -7.6449145e+23)
(-6.0157867e+24 -1.5387713e+23 -7.8956764e+23)
(-6.4463414e+24 7.9092447e+22 3.3697103e+23)
(-6.6960901e+24 -2.9245827e+23 1.0422644e+24)
(-6.6849898e+24 1.313835e+23 1.0172201e+24)
(-6.2913944e+24 -1.8618091e+23 -4.8815786e+23)
(-6.4476315e+24 2.9113433e+21 -3.6448407e+23)
(-5.3065866e+24 1.4504801e+22 8.1735816e+22)
(-5.231652e+24 1.0187835e+21 -4.1506659e+23)
(-5.2179819e+24 -1.1710243e+23 -4.282309e+23)
(-5.3017231e+24 -1.5170301e+23 8.13044e+22)
(-5.3894419e+24 -1.3983078e+23 3.6239764e+22)
(-5.3886353e+24 1.498931e+22 3.9562684e+22)
(-5.2217793e+24 -1.1579618e+23 -4.9384399e+23)
(-5.2725551e+24 -1.6839875e+22 -4.8997338e+23)
(-5.2878176e+24 1.472872e+22 5.9033695e+22)
(-5.2085223e+24 4.7725449e+20 -4.2701571e+23)
(-5.1685395e+24 -1.3379992e+23 -4.6027341e+23)
(-5.2819515e+24 -1.3747607e+23 7.1930773e+22)
(-5.3584146e+24 -1.407635e+23 3.7813498e+22)
(-5.3578656e+24 2.4236478e+21 2.0355396e+22)
(-5.6741342e+24 -2.5251867e+23 9.8252727e+23)
(-5.5078229e+24 -9.5148669e+22 9.1511592e+21)
(-5.4928795e+24 -1.6720067e+22 6.1225345e+21)
(-5.7191739e+24 9.9689789e+22 1.0261527e+24)
(-5.2462292e+24 -1.9226468e+22 -3.160296e+23)
(-5.4767615e+24 6.0608427e+22 3.9914185e+23)
(-5.2574503e+24 -9.4130903e+22 -3.0371794e+23)
(-5.4467103e+24 -1.7760102e+23 3.8531496e+23)
(-5.4455792e+24 -1.2228339e+23 -3.1754041e+22)
(-5.6883543e+24 8.7253261e+22 9.6147559e+23)
(-5.689148e+24 -2.2953743e+23 9.9577497e+23)
(-5.4925825e+24 -2.5228269e+22 9.7798956e+21)
(-5.4395019e+24 -1.9830744e+23 3.8590058e+23)
(-5.2255142e+24 -1.0567256e+23 -3.2822732e+23)
(-5.4661445e+24 3.4140625e+22 3.7510171e+23)
(-5.2166566e+24 -2.7393037e+22 -3.1910192e+23)
(-5.3529019e+24 -3.9275064e+22 7.6335437e+23)
(-5.3287473e+24 -5.1676201e+22 7.6522581e+23)
(-5.3493314e+24 -4.5801064e+22 7.873297e+23)
(-5.3756051e+24 -1.9354511e+22 7.7238884e+23)
(-5.3216686e+24 -9.203151e+22 7.8448722e+23)
(-6.3934465e+24 -1.2832784e+23 8.3069449e+23)
(-5.2959937e+24 -9.4697361e+22 7.9491204e+23)
(-5.3298902e+24 -6.1537103e+22 7.8201686e+23)
(-5.412268e+24 -5.9474355e+22 7.8638741e+23)
(-6.2918458e+24 -1.6100794e+23 7.410703e+23)
(-6.8763569e+24 8.4641148e+22 2.4938061e+23)
(-5.7848429e+24 -2.2764154e+23 9.5017579e+23)
(-4.7321468e+24 2.7391952e+23 -1.1535578e+24)
(-4.8571932e+24 -1.4453455e+23 -1.1933053e+24)
(-5.5701859e+24 2.4432453e+23 9.9062179e+23)
(-6.209193e+24 -1.2204479e+23 7.4651448e+23)
(-6.1018323e+24 -1.5320364e+23 6.8345997e+23)
(-5.6133475e+24 -2.7088982e+23 -2.2800557e+23)
(-6.0483654e+24 -2.5817138e+23 -1.5488277e+23)
(-6.1120175e+24 -2.8116389e+23 4.5072374e+22)
(-5.5838147e+24 -2.2440091e+23 8.8641434e+22)
(-4.4472764e+24 -9.0318694e+21 6.3061877e+23)
(-4.4820399e+24 2.0102933e+21 6.4473787e+23)
(-4.518882e+24 1.3656091e+22 6.6574192e+23)
(-4.4875131e+24 -1.8504443e+22 6.8638923e+23)
(-4.4652965e+24 1.5036725e+22 6.8111941e+23)
(-4.4930461e+24 5.0297816e+21 6.7556142e+23)
(-4.508473e+24 4.5411918e+21 6.3882939e+23)
(-4.5020037e+24 -1.1584896e+22 6.7251555e+23)
(-5.0875637e+24 3.2663289e+21 2.5318215e+22)
(-5.360908e+24 8.1034778e+22 -3.1375355e+21)
(-4.9522846e+24 1.8030577e+23 1.3306058e+22)
(-5.0854295e+24 1.6399693e+23 3.8284757e+22)
(-5.6825896e+24 -3.7381429e+22 -9.9213096e+22)
(-5.1969623e+24 2.0069205e+23 -1.1471493e+23)
(-5.4915278e+24 4.174248e+22 -1.4637786e+23)
(-5.4012928e+24 -1.0331936e+23 -1.6703945e+23)
(-7.6560796e+24 -2.6761619e+23 -1.3635348e+24)
(-7.6955599e+24 -2.131654e+23 -1.3456359e+24)
(-7.6456979e+24 -1.1254051e+23 -7.887734e+23)
(-4.9165333e+24 -3.085751e+23 -1.4988952e+24)
(-4.8761564e+24 -2.9136783e+23 -1.5398142e+24)
(-5.1491872e+24 -1.4485162e+23 -5.8717481e+23)
(-5.1795737e+24 -5.7298536e+23 -5.5573981e+23)
(-5.0894912e+24 -3.3765132e+23 -1.5650514e+24)
(-5.048947e+24 -3.4581729e+23 -1.5976091e+24)
(-5.2390006e+24 -1.3964172e+23 -6.399631e+23)
(-5.2162089e+24 -5.6594021e+23 -5.8505833e+23)
(-5.5336255e+24 -6.5864205e+23 -1.0153826e+24)
(-5.4634295e+24 -1.9494842e+23 -9.9420281e+23)
(-5.604763e+24 -1.1029304e+24 1.6189899e+24)
(-5.4091111e+24 -1.6468514e+23 1.6254562e+24)
(-5.6651731e+24 -6.2766062e+23 -1.0624911e+24)
(-5.573623e+24 -1.4323344e+23 -1.0506055e+24)
(-5.7004151e+24 -1.0327394e+24 1.741138e+24)
(-5.8141129e+24 -7.4933027e+22 1.8320989e+24)
(-5.7583235e+24 -2.1195938e+23 -2.6758706e+23)
(-5.6628524e+24 -3.5046655e+23 -2.0109012e+23)
(-6.5232058e+24 -2.7057492e+23 -1.4229288e+24)
(-6.5606967e+24 -2.6825195e+23 -1.4137713e+24)
(-5.679035e+24 -3.088438e+23 -2.093596e+23)
(-6.5318528e+24 -1.8305373e+23 -1.4322253e+24)
(-6.5212448e+24 -1.8165047e+23 -1.41365e+24)
(-5.724884e+24 -2.0137811e+23 -2.4805525e+23)
(-4.2677054e+24 -2.1426733e+23 -1.2604245e+24)
(-4.2456573e+24 -1.8855178e+23 -1.2777034e+24)
(-3.9549956e+24 -1.2286173e+22 -7.5636093e+23)
(-3.9543715e+24 -3.2938383e+23 -7.4457567e+23)
(-3.9618346e+24 -2.8728315e+23 -7.2162103e+23)
(-4.2947617e+24 -2.0144331e+23 -1.2650931e+24)
(-4.2710336e+24 -1.714097e+23 -1.2779826e+24)
(-3.9709703e+24 5.4846176e+22 -7.4563735e+23)
(-3.652309e+24 1.0495011e+23 -7.8746662e+23)
(-4.2647042e+24 -5.1163835e+23 1.9417248e+24)
(-4.2209887e+24 3.334753e+23 1.9770205e+24)
(-3.715375e+24 -2.8771751e+23 -7.8687025e+23)
(-3.6636573e+24 -3.663365e+23 -7.8524417e+23)
(-3.6304583e+24 -9.4400543e+21 -7.8837878e+23)
(-4.0572282e+24 -6.6185224e+23 1.8169086e+24)
(-4.1714743e+24 1.1471572e+23 1.9157928e+24)
(-4.2464997e+24 -1.8235675e+23 -1.2679712e+24)
(-4.2444555e+24 -1.4675059e+23 -1.2725685e+24)
(-3.9238755e+24 -2.4216009e+23 -7.324068e+23)
(-3.9608096e+24 8.9611083e+22 -7.3253456e+23)
(-3.9042712e+24 -1.9810121e+23 -7.0545764e+23)
(-4.2925986e+24 -1.6458714e+23 -1.2726944e+24)
(-4.2935381e+24 -1.4460977e+23 -1.2584525e+24)
(-3.9681542e+24 1.3523602e+23 -7.2510786e+23)
(-3.6539469e+24 -1.063924e+23 -7.4606178e+23)
(-3.6225711e+24 2.8824133e+23 -7.5582398e+23)
(-4.002936e+24 -1.9621571e+23 1.8023075e+24)
(-3.9401727e+24 6.4993247e+23 1.7709378e+24)
(-3.6302599e+24 -2.0086744e+23 -7.764848e+23)
(-3.6458522e+24 1.8650913e+23 -7.7709523e+23)
(-3.9340378e+24 -3.7840955e+23 1.7181308e+24)
(-4.1334789e+24 4.7079548e+23 1.8610125e+24)
(-6.5634802e+24 -1.7057853e+23 -1.0092998e+24)
(-4.6840475e+24 -1.7321323e+23 -6.0165979e+23)
(-4.7508572e+24 -1.4454497e+23 -6.198848e+23)
(-5.7988684e+24 -7.2772673e+22 -9.4193416e+23)
(-5.8298436e+24 -4.5630371e+23 -9.4530584e+23)
(-6.5441011e+24 -2.0041462e+23 -9.6767747e+23)
(-4.6710038e+24 -1.9822069e+23 -5.7506182e+23)
(-5.1366125e+24 2.2331434e+22 -1.4349454e+24)
(-5.1468538e+24 -3.1455496e+21 -1.4310328e+24)
(-5.1449244e+24 3.0201219e+21 -1.4096907e+24)
(-2.492941e+24 -5.2465936e+22 -9.9855211e+23)
(-2.5088355e+24 -6.9589418e+22 -9.8102951e+23)
(-2.6660266e+24 1.7322548e+23 -4.8004641e+23)
(-2.6307608e+24 -4.1478486e+22 -5.0252345e+23)
(-2.645773e+24 -8.1686369e+22 -4.9267595e+23)
(-2.5501085e+24 -9.0453252e+22 -9.9635354e+23)
(-2.5357631e+24 -7.2528996e+22 -9.9139604e+23)
(-2.683009e+24 1.4833457e+23 -5.1459927e+23)
(-2.67042e+24 -1.6905813e+23 1.1641076e+24)
(-2.8372576e+24 2.0152733e+23 1.3091179e+24)
(-2.0599263e+24 -1.3321446e+22 2.0440812e+23)
(-2.174444e+24 1.5332828e+23 2.0842851e+23)
(-2.1989099e+24 -6.735466e+22 2.2397067e+23)
(-2.8583494e+24 -2.0592739e+23 1.3131096e+24)
(-2.1786179e+24 1.2720182e+23 1.5834997e+23)
(-2.7728448e+24 1.7081933e+23 1.2738911e+24)
(-2.4899561e+24 -8.9467878e+22 -9.8072802e+23)
(-2.508969e+24 -8.742446e+22 -9.7086211e+23)
(-2.6468698e+24 -1.0101084e+23 -4.8552368e+23)
(-2.6864079e+24 1.5727548e+23 -4.7711099e+23)
(-2.2034134e+24 -9.3372574e+22 2.5290846e+23)
(-2.8037264e+24 -2.683188e+23 1.2311904e+24)
(-2.2558645e+24 1.4624449e+23 2.1920174e+23)
(-2.930426e+24 2.1656703e+23 1.3743323e+24)
(-2.3180561e+24 -4.7623811e+22 2.7337477e+23)
(-2.9640421e+24 -1.4690027e+23 1.4001077e+24)
(-4.5224034e+24 -1.859782e+23 6.5937108e+23)
(-6.0301257e+24 -1.6548621e+23 1.7245907e+24)
(-3.9072157e+24 -1.7881369e+23 6.673381e+23)
(-5.3864339e+24 -1.0517764e+23 1.5115983e+24)
(-3.8816639e+24 -5.3559961e+22 6.8286616e+23)
(-5.3818308e+24 -1.1611484e+23 1.5635224e+24)
(-3.8477669e+24 -7.9819223e+22 6.6940186e+23)
(-5.266873e+24 -1.1799314e+23 1.4969822e+24)
(-3.9508287e+24 -2.2166894e+23 7.2027358e+23)
(-5.2575128e+24 -1.2308737e+23 1.476182e+24)
(-3.9890277e+24 -1.4609655e+23 7.2298297e+23)
(-3.8406218e+24 -3.7857638e+22 6.979348e+23)
(-5.5122544e+24 -7.0281653e+22 1.583456e+24)
(-5.451452e+24 -1.1855965e+23 1.6133554e+24)
(-3.995815e+24 -1.8528575e+23 7.3613266e+23)
(-5.4680533e+24 -1.0050988e+23 1.5688955e+24)
(-3.8874436e+24 -3.8819199e+22 6.8850461e+23)
(-5.4440763e+24 -7.9962009e+22 1.5751802e+24)
(-3.5705624e+24 -1.3799213e+23 8.0148937e+23)
(-3.4775585e+24 1.8699114e+22 7.2064261e+23)
(-4.6713745e+24 -6.6570945e+22 1.3328711e+24)
(-4.6696665e+24 -1.1068923e+22 1.3370294e+24)
(-3.5208161e+24 -8.0538936e+22 7.1626013e+23)
(-3.4317214e+24 5.7702438e+22 6.904444e+23)
(-4.7011816e+24 -3.4440823e+22 1.2900372e+24)
(-4.6731079e+24 -1.021726e+22 1.3120004e+24)
(-4.7321992e+24 -3.7950518e+22 1.3402524e+24)
(-3.5500557e+24 -9.1668988e+22 7.6952985e+23)
(-3.4617754e+24 8.7681044e+22 7.0869056e+23)
(-4.7214444e+24 2.8401433e+22 1.3313744e+24)
(-3.5013618e+24 -9.083751e+21 7.3290149e+23)
(-3.4041675e+24 1.2135614e+23 6.9867108e+23)
(-4.6399496e+24 1.2799775e+22 1.304558e+24)
(-4.6729465e+24 5.8868818e+21 1.2954568e+24)
(-3.5654857e+24 -4.6226512e+22 7.8909845e+23)
(-3.4896072e+24 1.0677666e+23 7.013583e+23)
(-4.6544102e+24 3.8617735e+22 1.3105179e+24)
(-4.6447904e+24 -1.921175e+22 1.3159603e+24)
(-3.5337194e+24 6.1590315e+21 7.2552518e+23)
(-3.3976571e+24 1.5264653e+23 6.5564571e+23)
(-4.6233901e+24 4.6823284e+22 1.283884e+24)
(-4.6573199e+24 2.2090425e+22 1.2827637e+24)
(-3.5700747e+24 4.9924333e+21 7.8031831e+23)
(-3.511381e+24 1.8568729e+23 7.132832e+23)
(-4.6467584e+24 8.332499e+22 1.2964395e+24)
(-4.6401598e+24 1.5754271e+22 1.3051506e+24)
(-3.5389524e+24 8.7513029e+22 7.68726e+23)
(-3.4335938e+24 1.9408062e+23 6.8846527e+23)
(-4.597942e+24 3.1250986e+22 1.2891183e+24)
(-4.6152095e+24 5.3104106e+22 1.2911704e+24)
(-2.8324618e+24 1.5216139e+23 1.0090428e+24)
(-2.7795347e+24 -8.9953856e+22 1.002493e+24)
(-4.0460854e+24 5.0756864e+21 1.0357668e+24)
(-4.0678738e+24 7.1649797e+22 1.0550324e+24)
(-2.8203826e+24 -3.7802993e+22 1.0436512e+24)
(-2.7765657e+24 1.7276783e+23 1.0017841e+24)
(-4.0456984e+24 4.5521324e+22 1.0887963e+24)
(-4.0557243e+24 3.3185071e+22 1.0863632e+24)
(-4.032113e+24 2.0116291e+22 1.1188149e+24)
(-2.83371e+24 -5.7773175e+22 1.1011298e+24)
(-2.8201949e+24 1.7783714e+23 1.0334865e+24)
(-4.0351996e+24 7.7900966e+22 1.0846066e+24)
(-2.7657633e+24 1.824696e+23 9.7485112e+23)
(-2.7830903e+24 -2.7694081e+22 1.0092868e+24)
(-4.0387305e+24 4.0283556e+22 1.0760942e+24)
(-4.0434414e+24 7.4137893e+22 1.0767423e+24)
(-2.7668168e+24 -1.1470298e+23 1.0103028e+24)
(-2.8004642e+24 1.5290787e+23 9.8966615e+23)
(-3.9965648e+24 -2.0243459e+22 1.03043e+24)
(-4.0285538e+24 6.4884039e+22 1.0712174e+24)
(-4.000329e+24 2.981272e+22 1.0102994e+24)
(-2.6999636e+24 -4.147874e+22 9.4523361e+23)
(-2.7053704e+24 1.6880221e+23 9.3587744e+23)
(-4.0184019e+24 7.3278915e+22 1.051009e+24)
(-2.8714258e+24 1.7511005e+23 1.0513067e+24)
(-2.7941835e+24 -9.2723069e+22 1.0377262e+24)
(-4.0339132e+24 1.3321158e+22 1.044642e+24)
(-4.0699592e+24 8.4942538e+22 1.0970251e+24)
(-2.8114671e+24 1.7315148e+23 1.0562479e+24)
(-2.8175677e+24 -2.477115e+22 1.0626734e+24)
(-4.0119925e+24 3.6047568e+22 1.0690453e+24)
(-4.0191526e+24 3.6183782e+22 1.0896297e+24)
(-6.8731433e+24 1.4290428e+23 -9.6163117e+23)
(-5.9725007e+24 -1.7694998e+23 9.4361145e+23)
(-5.8731444e+24 2.8876882e+23 9.5709786e+23)
(-5.280711e+24 -2.0486252e+23 -1.221608e+24)
(-5.092572e+24 2.7519901e+23 -1.1415932e+24)
(-7.9172964e+24 -3.3389433e+23 1.3789596e+24)
(-6.7228406e+24 1.1061682e+23 1.0679005e+24)
(-6.8874332e+24 -3.2877013e+23 1.1742162e+24)
(-6.3859943e+24 -3.2974452e+21 -3.6889293e+23)
(-6.2503995e+24 -2.1773239e+23 -5.1300911e+23)
(-5.9736061e+24 -9.3593195e+22 -7.3501833e+23)
(-6.4191363e+24 -2.412519e+23 3.8981631e+23)
(-5.896049e+24 1.2154242e+22 -7.5333107e+23)
(-6.3277412e+24 1.3597253e+23 3.7873761e+23)
(-5.9870385e+24 -1.3860837e+23 -8.0235794e+23)
(-6.4735084e+24 -2.5500107e+23 3.8278517e+23)
(-5.9265161e+24 1.733345e+22 -7.6667691e+23)
(-6.4028377e+24 7.7725183e+22 3.2986399e+23)
(-5.482327e+24 -3.5452002e+22 1.0002797e+22)
(-5.9397257e+24 -1.6450603e+23 -1.0912365e+23)
(-6.1535721e+24 -1.1578368e+23 1.5437987e+23)
(-5.9661659e+24 -7.3583127e+22 8.4992948e+22)
(-6.2471597e+24 -1.4613937e+23 -4.3392124e+23)
(-6.6664538e+24 -3.4079941e+23 1.0880432e+24)
(-6.5312853e+24 1.3201153e+23 1.0365508e+24)
(-6.3152944e+24 -5.1742871e+21 -3.6007337e+23)
(-5.192098e+24 -3.4308282e+22 -4.7153194e+23)
(-5.1548019e+24 -1.1487149e+23 -4.7817777e+23)
(-5.3413168e+24 1.7868282e+22 7.64746e+22)
(-5.3777127e+24 -1.6608286e+23 8.3490372e+22)
(-5.1107253e+24 -1.3711418e+23 -6.0354396e+23)
(-5.1148742e+24 -2.7381608e+21 -5.7246287e+23)
(-5.2321446e+24 -1.4093047e+22 -1.2858072e+22)
(-5.221907e+24 -1.3338886e+23 6.6894813e+21)
(-5.1771392e+24 1.1670364e+22 1.2688393e+22)
(-5.0690403e+24 -1.5150408e+23 -5.0534999e+23)
(-5.0874441e+24 5.0262598e+21 -4.7123398e+23)
(-5.1707281e+24 -1.2524054e+23 2.8942653e+22)
(-5.1575958e+24 -1.6365145e+22 -4.3458035e+23)
(-5.1476099e+24 -1.2660787e+23 -4.4352388e+23)
(-5.1890044e+24 -8.4702325e+20 5.0222053e+22)
(-5.2229593e+24 -1.7336904e+23 6.1484982e+22)
(-5.1330943e+24 -1.141126e+23 -3.4626675e+23)
(-5.1576455e+24 -3.1937229e+22 -3.3351317e+23)
(-5.3964522e+24 -1.9507246e+23 3.9078265e+23)
(-5.3622203e+24 4.8642314e+22 3.7891301e+23)
(-5.626974e+24 6.6995475e+22 9.9822589e+23)
(-5.4114232e+24 -3.3904672e+22 4.5357334e+21)
(-5.3999156e+24 -1.1519863e+23 -1.0684351e+22)
(-5.6598164e+24 -2.6715746e+23 1.00593e+24)
(-5.7525921e+24 1.0534161e+23 1.0211321e+24)
(-5.4082469e+24 -1.8597724e+22 -2.2465228e+22)
(-5.3976562e+24 -1.2655947e+23 -4.1842624e+22)
(-5.6808311e+24 -2.1251326e+23 1.0061441e+24)
(-5.4043664e+24 3.5588532e+22 3.5055715e+23)
(-5.1256897e+24 -1.3224187e+22 -3.5676757e+23)
(-5.1173402e+24 -1.1615947e+23 -3.7026201e+23)
(-5.3933932e+24 -1.8095505e+23 3.6910815e+23)
(-5.2136059e+24 4.49051e+21 -4.263699e+23)
(-5.1823937e+24 -1.191035e+23 -4.515014e+23)
(-5.3099218e+24 4.9454595e+22 6.8402374e+22)
(-5.3026248e+24 -1.2093462e+23 8.1370078e+22)
(-5.3771555e+24 -1.3342771e+23 3.4864679e+22)
(-5.3704373e+24 1.9781374e+22 2.7216332e+22)
(-5.1609388e+24 -1.0449088e+23 -5.1966656e+23)
(-5.2277523e+24 -7.071529e+21 -5.0136588e+23)
(-5.3432516e+24 3.6408202e+22 5.5187782e+22)
(-5.1655228e+24 -6.5903086e+21 -4.9668236e+23)
(-5.1376677e+24 -1.0677101e+23 -4.98653e+23)
(-5.3500513e+24 -1.2616498e+23 4.4325648e+22)
(-5.2231955e+24 2.0989684e+22 3.8977538e+22)
(-5.1491504e+24 1.2883271e+22 -4.681346e+23)
(-5.1548537e+24 -1.0804756e+23 -4.3209554e+23)
(-5.210841e+24 -1.3356365e+23 2.3914306e+22)
(-5.488489e+24 1.4228552e+21 -2.9219667e+21)
(-5.46544e+24 -8.8671655e+22 -2.8236995e+22)
(-5.7528994e+24 1.4895649e+23 1.0198504e+24)
(-5.6883913e+24 -1.984607e+23 1.0072418e+24)
(-5.4289311e+24 2.6283136e+21 -3.24655e+22)
(-5.417915e+24 -1.0079156e+23 -2.8748344e+22)
(-5.7409716e+24 1.1773563e+23 1.0299188e+24)
(-5.7001814e+24 -2.1813611e+23 9.9226655e+23)
(-5.4208725e+24 6.0902164e+22 3.6714091e+23)
(-5.1517132e+24 -1.0382329e+23 -3.5329381e+23)
(-5.1698067e+24 -2.8856458e+19 -3.5880083e+23)
(-5.4176437e+24 -1.5732994e+23 3.6213167e+23)
(-5.4734137e+24 7.6420716e+22 3.7571874e+23)
(-5.2058363e+24 -7.8669237e+22 -3.4957528e+23)
(-5.224641e+24 5.0610788e+21 -3.2399067e+23)
(-5.4666445e+24 -1.6301538e+23 3.9254423e+23)
(-4.1904507e+24 -4.0107161e+22 -2.9566795e+23)
(-4.2560829e+24 4.0021425e+22 1.6548656e+22)
(-4.2075236e+24 3.2546983e+22 -2.818302e+23)
(-4.2679008e+24 -6.0477498e+22 2.6813817e+22)
(-4.2253129e+24 -4.6588744e+22 -2.8872784e+23)
(-4.2163024e+24 5.0784435e+21 -2.7764694e+23)
(-4.3353903e+24 2.4252919e+22 7.7677165e+21)
(-4.3186593e+24 -6.7077867e+22 1.7990605e+22)
(-4.1994806e+24 -4.118268e+22 -2.8604002e+23)
(-4.3089109e+24 3.4877434e+22 1.0924491e+22)
(-4.2231565e+24 1.0349579e+22 -2.7446702e+23)
(-4.3180011e+24 -5.6560314e+22 1.9498157e+22)
(-4.2159348e+24 -5.0385349e+22 -2.9838841e+23)
(-4.2725958e+24 3.0612178e+22 -2.0215268e+21)
(-4.2058577e+24 1.9169166e+22 -2.8477559e+23)
(-4.2521377e+24 -6.2202926e+22 9.4834816e+21)
(-4.3027543e+24 -6.2400635e+22 -2.594985e+23)
(-4.3582362e+24 1.8048522e+22 -3.1889022e+22)
(-4.3089614e+24 -3.1776938e+21 -2.5086697e+23)
(-4.3487786e+24 -6.4476605e+22 -2.7207374e+22)
(-4.2901341e+24 -4.9382531e+22 -2.5295676e+23)
(-4.3358509e+24 1.7127513e+22 -2.7369103e+22)
(-4.3078648e+24 8.6358258e+21 -2.4273031e+23)
(-4.3479527e+24 -6.7582691e+22 -2.2355488e+22)
(-4.5258773e+24 1.3241825e+22 -8.7517874e+21)
(-4.5349598e+24 -8.0276496e+22 -4.0246099e+21)
(-4.4446065e+24 -6.580435e+22 -3.7605526e+23)
(-4.4621905e+24 -2.9241037e+22 -3.6639193e+23)
(-4.5426489e+24 6.1846037e+21 -1.432632e+22)
(-4.540343e+24 -8.702793e+22 -9.7532787e+21)
(-4.4659772e+24 -2.8399799e+22 -3.761239e+23)
(-4.4598539e+24 -7.004947e+22 -3.8269147e+23)
(-4.1382458e+24 -6.382564e+22 -3.2569316e+23)
(-4.1656083e+24 2.5380888e+22 -3.0571331e+23)
(-4.2213163e+24 1.820319e+22 -7.9871963e+21)
(-4.2382068e+24 -6.9236868e+22 7.0419126e+21)
(-4.1841759e+24 -4.762758e+22 -2.9494265e+23)
(-4.301649e+24 2.3361945e+22 2.753331e+21)
(-4.331578e+24 -6.3943102e+22 2.6491868e+22)
(-4.1393191e+24 -6.3198151e+22 -3.1772379e+23)
(-4.2635785e+24 1.2485534e+22 -1.8228603e+22)
(-4.1749903e+24 6.8284876e+21 -3.0109071e+23)
(-4.2814432e+24 -6.367585e+22 -4.598163e+21)
(-4.1845761e+24 -5.2232686e+22 -3.0437673e+23)
(-4.2269493e+24 2.1060865e+22 -2.7488773e+23)
(-4.2448414e+24 2.8949223e+22 -4.617359e+21)
(-4.2461795e+24 -6.54291e+22 1.5065014e+22)
(-4.2550909e+24 -6.3297696e+22 -2.6380817e+23)
(-4.3180982e+24 1.5737656e+22 -3.5356889e+22)
(-4.2183649e+24 -7.693636e+22 -2.890806e+23)
(-4.280884e+24 -5.905639e+21 -5.7569329e+22)
(-4.2394157e+24 6.6367456e+21 -2.7162906e+23)
(-4.3056091e+24 -7.2522631e+22 -4.6926208e+22)
(-4.6116546e+24 -4.050252e+22 2.0633912e+23)
(-4.6187525e+24 1.2670287e+22 2.3533825e+23)
(-4.8036441e+24 1.1822207e+23 9.2713201e+23)
(-4.7877665e+24 -1.3647798e+23 9.4615629e+23)
(-4.4318353e+24 2.3292864e+22 -6.1243735e+22)
(-4.4048392e+24 -1.875839e+22 -7.2911929e+22)
(-4.6061079e+24 1.0492413e+23 5.1812698e+23)
(-4.6171027e+24 -8.8439269e+22 5.1936737e+23)
(-4.4398408e+24 -3.118348e+22 -8.527335e+22)
(-4.4310042e+24 1.0647807e+22 -6.2118232e+22)
(-4.6307043e+24 6.8197647e+22 4.8979926e+23)
(-4.617831e+24 -1.1550535e+23 5.0857239e+23)
(-4.6087956e+24 3.2563894e+22 2.414879e+23)
(-4.5998145e+24 -4.5062694e+21 2.4248024e+23)
(-4.7537497e+24 1.2897778e+23 9.4083391e+23)
(-4.7575699e+24 -1.3816362e+23 9.3193246e+23)
(-4.2143097e+24 -3.8747109e+22 -2.7367148e+23)
(-4.3416332e+24 3.6932299e+22 8.5602943e+22)
(-4.2016407e+24 1.8074764e+22 -2.580693e+23)
(-4.3239718e+24 -7.6188015e+22 9.883545e+22)
(-4.302488e+24 4.0000709e+22 -2.2223679e+23)
(-4.2846353e+24 -3.3370881e+22 -2.347909e+23)
(-4.37701e+24 5.7616142e+22 1.8565523e+23)
(-4.3936009e+24 -7.9887451e+22 1.942269e+23)
(-4.1860088e+24 -2.4704602e+22 -2.6344626e+23)
(-4.3159588e+24 5.5767123e+22 9.4936092e+22)
(-4.2071406e+24 2.354639e+22 -2.4942899e+23)
(-4.325821e+24 -6.3836817e+22 1.0299523e+23)
(-4.3131863e+24 -4.955719e+22 -2.4377542e+23)
(-4.3096916e+24 2.5394673e+22 -2.2574168e+23)
(-4.4076291e+24 4.9865711e+22 1.7210223e+23)
(-4.3894677e+24 -8.1479822e+22 1.8683117e+23)
(-4.378154e+24 -4.7395687e+22 -9.6746322e+22)
(-4.4104185e+24 1.3082475e+22 -7.9588002e+22)
(-4.5920668e+24 7.0702853e+22 4.7697931e+23)
(-4.6011361e+24 -1.020381e+23 4.850861e+23)
(-4.5703988e+24 -3.6186049e+22 1.9703973e+23)
(-4.5904995e+24 2.2577559e+22 2.1086847e+23)
(-4.7504657e+24 9.9683939e+22 8.9995567e+23)
(-4.7514381e+24 -1.4329574e+23 9.0225088e+23)
(-4.6177868e+24 -3.4474548e+22 2.151702e+23)
(-4.6168433e+24 1.4518187e+22 2.4255734e+23)
(-4.8156934e+24 1.2258862e+23 9.2813505e+23)
(-4.7833562e+24 -1.3808689e+23 9.480654e+23)
(-4.4328197e+24 -2.9718603e+22 -8.1802354e+22)
(-4.4229845e+24 1.5407816e+22 -6.1612783e+22)
(-4.6398364e+24 7.5180002e+22 4.9840206e+23)
(-4.6237404e+24 -1.1223048e+23 5.1914661e+23)
(-4.2929091e+24 -5.294282e+22 -2.4244349e+23)
(-4.289434e+24 2.4554126e+22 -2.2341788e+23)
(-4.4000909e+24 5.0619734e+22 1.7721962e+23)
(-4.3827348e+24 -7.986444e+22 1.9214358e+23)
(-4.1464685e+24 -4.9484666e+22 -2.8976716e+23)
(-4.2910179e+24 3.2162741e+22 6.9981043e+22)
(-4.1770198e+24 1.3920399e+22 -2.6842928e+23)
(-4.303756e+24 -7.4679759e+22 8.4443438e+22)
(-4.2547848e+24 -5.8323667e+22 -2.5968738e+23)
(-4.2774258e+24 2.9263068e+22 -2.3978235e+23)
(-4.3565432e+24 2.957699e+22 1.5943463e+23)