/*--------------------------------*- C++ -*----------------------------------*\
  =========                 |
  \\      /  F ield         | OpenFOAM: The Open Source CFD Toolbox
   \\    /   O peration     | Website:  https://openfoam.org
    \\  /    A nd           | Version:  7
     \\/     M anipulation  |
\*---------------------------------------------------------------------------*/
FoamFile
{
    version     2.0;
    format      ascii;
    class       volVectorField;
    location    "4000";
    object      UMean;
}
// * * * * * * * * * * * * * * * * * * * * * * * * * * * * * * * * * * * * * //

dimensions      [0 1 -1 0 0 0 0];

internalField   nonuniform List<vector> 
33943
(
(-1.2961909e+23 2.381427e+22 1.3454949e+22)
(-1.0909776e+23 1.3809873e+22 1.6472756e+22)
(-1.1709618e+23 8.2316503e+21 1.3273629e+22)
(-1.2064508e+23 6.3192624e+21 9.4830697e+21)
(-1.3996207e+23 1.3585911e+22 7.8921409e+21)
(-1.1958401e+23 3.0794559e+22 -1.9760337e+21)
(-8.2707172e+22 1.7268787e+22 -1.844978e+21)
(-1.2839039e+23 2.0213196e+22 1.2777777e+22)
(-1.1118133e+23 1.2013623e+22 1.6977225e+22)
(-1.1235677e+23 1.5352757e+22 1.5472625e+22)
(-1.1915025e+23 7.9045141e+21 1.402543e+22)
(-1.2058881e+23 6.5174911e+21 1.4025012e+22)
(-9.2024285e+22 8.8136911e+21 1.2995423e+22)
(-1.1114208e+23 7.4462386e+21 1.4229524e+22)
(-1.122771e+23 4.7508704e+21 1.4309785e+22)
(-9.3161885e+22 9.4762842e+21 1.2168425e+22)
(-1.2084967e+23 3.9903303e+21 -3.393044e+21)
(-1.2505031e+23 6.0763454e+21 4.6832417e+21)
(-1.2122116e+23 4.7700043e+21 8.988261e+21)
(-1.2151486e+23 5.9770904e+21 9.8592719e+21)
(-1.5433668e+23 1.1912459e+22 1.2698323e+22)
(-1.0771295e+23 3.0050747e+21 9.6209344e+21)
(-1.0765465e+23 5.2235351e+21 9.8645218e+21)
(-1.4185888e+23 1.1661556e+22 8.1930499e+21)
(-9.7998622e+22 5.1942495e+21 1.2109963e+21)
(-8.8982102e+22 3.4947767e+21 -1.5866406e+21)
(-9.2635904e+22 4.0903938e+21 -2.0172651e+21)
(-9.8389848e+22 5.9221492e+21 1.5587422e+21)
(-1.1882073e+23 2.6117424e+22 -2.3548782e+21)
(-1.0892538e+23 9.0899066e+21 -1.5254802e+22)
(-1.1014778e+23 1.251728e+22 -1.5216262e+22)
(-8.6532348e+22 1.5055791e+22 -7.8229023e+20)
(-8.6942185e+22 2.1166379e+22 -7.1481929e+20)
(-9.8505391e+22 5.3406056e+21 -1.3678212e+22)
(-1.0276944e+23 5.0416666e+21 -1.1964566e+22)
(-8.1197097e+22 6.932689e+21 -1.6146644e+22)
(-8.2801587e+22 7.6769508e+21 -1.6133725e+22)
(-6.022113e+22 1.1310315e+22 -2.3492282e+20)
(-6.2072287e+22 1.4595118e+22 -1.6963634e+18)
(-1.1268505e+23 1.0694956e+22 1.6927082e+22)
(-1.1439744e+23 1.381745e+22 1.606778e+22)
(-1.1966873e+23 7.6321044e+21 1.3934728e+22)
(-1.2267214e+23 6.1820289e+21 1.4715409e+22)
(-9.3277947e+22 7.5444347e+21 1.2920228e+22)
(-9.4464708e+22 8.5761063e+21 1.2439709e+22)
(-1.1380709e+23 4.3011622e+21 1.4772598e+22)
(-1.1201068e+23 6.9542102e+21 1.4373365e+22)
(-9.2874463e+22 8.291622e+21 1.2448204e+22)
(-9.2898668e+22 9.4728989e+21 1.1833394e+22)
(-1.1320089e+23 6.7790591e+21 1.3670331e+22)
(-1.1351038e+23 4.9142726e+21 1.3602906e+22)
(-7.7409798e+22 6.0912517e+21 9.8400794e+21)
(-9.8489167e+22 4.1323621e+21 1.2621354e+22)
(-7.6783415e+22 5.9675387e+21 1.0374511e+22)
(-9.7296803e+22 5.9236211e+21 1.2358164e+22)
(-7.6309764e+22 5.8144882e+21 9.7041848e+21)
(-7.676044e+22 6.3850026e+21 9.6871403e+21)
(-9.7617067e+22 5.2410921e+21 1.1723108e+22)
(-9.7989098e+22 3.9540194e+21 1.1933437e+22)
(-1.5719707e+23 8.6139648e+21 3.3223139e+21)
(-1.2213565e+23 3.9285511e+21 -3.4156447e+21)
(-1.2641785e+23 5.8524781e+21 5.0002157e+21)
(-1.2185263e+23 3.4246606e+21 -3.9737827e+21)
(-1.266031e+23 4.0477386e+21 4.3329012e+21)
(-1.1063927e+23 3.8980184e+21 -1.8805261e+21)
(-1.0808929e+23 3.0146493e+21 -5.1015332e+21)
(-1.1047569e+23 2.7317997e+21 -1.9487301e+21)
(-1.0740107e+23 2.3407708e+21 -5.1292269e+21)
(-1.117567e+23 4.8825695e+21 6.5481315e+21)
(-1.0936164e+23 4.0623961e+21 3.6496383e+20)
(-1.1226498e+23 3.0761111e+21 6.5472069e+21)
(-1.0892144e+23 3.0039842e+21 1.4181471e+20)
(-1.0858031e+23 4.9687069e+21 9.2003417e+21)
(-1.0844565e+23 3.0789299e+21 9.2788496e+21)
(-1.0810075e+23 4.8738885e+21 1.0025616e+22)
(-1.0828168e+23 2.5026937e+21 9.6541626e+21)
(-1.2162652e+23 4.25949e+21 9.7542327e+21)
(-1.5629926e+23 1.0387743e+22 1.283547e+22)
(-1.2097674e+23 5.3451816e+21 9.8748543e+21)
(-1.022926e+23 2.7090652e+21 1.9502274e+21)
(-1.0297366e+23 4.4256093e+21 2.2283087e+21)
(-9.9773279e+22 4.8934931e+21 1.5604857e+21)
(-9.7039457e+22 3.5348272e+21 1.515271e+21)
(-9.3053089e+22 4.3468472e+21 8.2509202e+21)
(-9.2916347e+22 2.8424799e+21 8.4497091e+21)
(-9.305069e+22 4.5641575e+21 8.8241707e+21)
(-9.3289663e+22 2.8093159e+21 8.615208e+21)
(-9.8168402e+22 4.8755796e+21 1.374457e+21)
(-9.9705763e+22 2.7073529e+21 1.840365e+21)
(-9.2517163e+22 1.0092379e+21 -2.4451751e+21)
(-9.4111733e+22 3.7584299e+21 -1.8877009e+21)
(-9.1685026e+22 7.9027329e+21 -1.1915607e+21)
(-9.1802937e+22 8.4862889e+21 -2.7711029e+21)
(-9.2161024e+22 8.6668755e+21 -1.9058858e+21)
(-9.2763219e+22 8.6059253e+21 -4.2828134e+20)
(-1.0992354e+23 7.7428455e+21 -1.5589499e+22)
(-1.1123008e+23 1.1039935e+22 -1.552975e+22)
(-8.8323243e+22 1.2799571e+22 -8.6934289e+20)
(-8.9361042e+22 1.8904077e+22 -1.7608622e+20)
(-1.054835e+23 2.7451942e+21 -1.3003348e+22)
(-1.040047e+23 4.8844228e+21 -1.2403447e+22)
(-9.9664784e+22 4.9865471e+21 -1.4040609e+22)
(-1.0032806e+23 4.7929987e+21 -1.366084e+22)
(-1.0396291e+23 4.3882894e+21 -1.201351e+22)
(-9.943331e+22 4.6782202e+21 -1.3640146e+22)
(-9.9893473e+22 5.4253419e+21 -1.3433083e+22)
(-1.0473745e+23 3.0511912e+21 -1.2379802e+22)
(-8.2205756e+22 6.1242136e+21 -1.6795865e+22)
(-8.340178e+22 7.1457458e+21 -1.6678891e+22)
(-6.4178817e+22 1.3535882e+22 5.4587474e+20)
(-6.283571e+22 9.6118216e+21 2.491553e+20)
(-8.2370108e+22 6.2316294e+21 -1.6493875e+22)
(-8.2933467e+22 7.9600072e+21 -1.6328335e+22)
(-6.1834659e+22 1.4544997e+22 -3.6479985e+20)
(-6.2437876e+22 1.0674335e+22 -1.4725225e+20)
(-1.0573724e+23 5.0330566e+21 -1.5449326e+22)
(-1.0285486e+23 3.6006424e+21 -9.3195122e+21)
(-8.4273312e+22 2.2758102e+21 -1.5373142e+22)
(-8.345223e+22 3.8654866e+21 -1.4992491e+22)
(-6.9209511e+22 4.8244e+21 -1.7313507e+22)
(-7.0026248e+22 3.9729903e+21 -1.7127568e+22)
(-8.3570876e+22 3.0854723e+21 -1.4522405e+22)
(-6.9267355e+22 4.167422e+21 -1.6753497e+22)
(-4.8717121e+22 5.8424349e+21 -1.4972375e+22)
(-4.9892069e+22 5.6942243e+21 -1.5055716e+22)
(-4.2627387e+22 6.7728872e+21 3.5654798e+21)
(-4.3788764e+22 8.7397519e+21 3.3485703e+21)
(-4.896623e+22 5.332877e+21 -1.4518237e+22)
(-4.2452339e+22 6.6442062e+21 3.0851013e+21)
(-4.2653465e+22 9.242637e+21 2.6481465e+21)
(-1.236225e+23 5.537144e+21 1.4119845e+22)
(-9.5604141e+22 7.4968587e+21 1.2545274e+22)
(-9.4045213e+22 6.690899e+21 1.2680204e+22)
(-1.1312875e+23 6.4437977e+21 1.4518039e+22)
(-1.1520662e+23 3.6574571e+21 1.517159e+22)
(-9.4250868e+22 8.1065658e+21 1.2177754e+22)
(-1.1563817e+23 4.3390498e+21 1.4467464e+22)
(-9.436269e+22 7.1597957e+21 1.2745471e+22)
(-1.1564415e+23 6.3253536e+21 1.474938e+22)
(-7.7564618e+22 4.9527998e+21 1.0115462e+22)
(-7.8268852e+22 5.131778e+21 9.6275721e+21)
(-9.8651873e+22 5.4112773e+21 1.2549402e+22)
(-9.9316562e+22 3.4906687e+21 1.2562497e+22)
(-7.7619706e+22 5.2508724e+21 9.8386037e+21)
(-7.7664801e+22 5.746543e+21 9.5114881e+21)
(-9.9641673e+22 4.8740536e+21 1.2303227e+22)
(-9.9125581e+22 3.4804975e+21 1.1896747e+22)
(-7.7215837e+22 5.6775208e+21 9.9677305e+21)
(-7.7855773e+22 6.1736047e+21 9.4728674e+21)
(-9.8436137e+22 5.723878e+21 1.1922173e+22)
(-9.9031653e+22 4.1870785e+21 1.1920914e+22)
(-7.7248943e+22 6.1811711e+21 9.8669361e+21)
(-7.7068982e+22 6.3588496e+21 9.4749811e+21)
(-9.8487274e+22 3.98144e+21 1.1777671e+22)
(-9.8852299e+22 5.5713898e+21 1.1964664e+22)
(-6.6052714e+22 4.3616631e+21 8.9442284e+21)
(-6.6075511e+22 4.5940356e+21 8.8370049e+21)
(-8.3861416e+22 4.2670893e+21 1.0830667e+22)
(-8.3576403e+22 3.4404278e+21 1.0771892e+22)
(-6.6362983e+22 4.3086689e+21 9.49854e+21)
(-6.6658155e+22 4.6100385e+21 9.0164929e+21)
(-8.3340523e+22 4.8384698e+21 1.1138713e+22)
(-8.3774363e+22 3.7725474e+21 1.1160542e+22)
(-6.5850167e+22 4.25706e+21 9.1227114e+21)
(-6.6207172e+22 4.8577958e+21 8.7757102e+21)
(-8.3028942e+22 4.6642795e+21 1.0586407e+22)
(-8.3393477e+22 3.8887388e+21 1.0684572e+22)
(-8.34014e+22 4.4509694e+21 1.0864551e+22)
(-6.5688376e+22 4.6977116e+21 8.9944749e+21)
(-6.5283129e+22 4.6847885e+21 8.6894362e+21)
(-8.2903911e+22 3.4538157e+21 1.0698469e+22)
(-1.5872538e+23 7.8353316e+21 3.4166269e+21)
(-1.2778294e+23 3.5912936e+21 4.8216182e+21)
(-1.2222484e+23 3.7632584e+21 -3.1381935e+21)
(-1.2230956e+23 3.1372318e+21 -3.7719328e+21)
(-1.0375494e+23 1.8837364e+21 -6.0345378e+19)
(-1.013074e+23 2.0663321e+21 -2.6395876e+20)
(-1.0328707e+23 3.2682426e+21 -3.8780522e+20)
(-1.0437107e+23 3.257338e+21 2.7356522e+20)
(-1.2669563e+23 5.4189226e+21 5.0297856e+21)
(-1.0860758e+23 3.0809008e+21 -4.7213593e+21)
(-1.0827026e+23 2.2084474e+21 -5.3349772e+21)
(-1.1022784e+23 2.4336306e+21 -2.3690853e+21)
(-1.1114241e+23 3.8658839e+21 -1.6781612e+21)
(-1.0991135e+23 3.938725e+21 6.3878063e+20)
(-1.1222542e+23 4.6130213e+21 6.7345977e+21)
(-1.129638e+23 2.6982476e+21 6.6291277e+21)
(-1.0916826e+23 2.6032862e+21 1.2694844e+19)
(-1.1179063e+23 2.7487002e+21 -2.2654457e+21)
(-1.0826673e+23 2.3417108e+21 -5.4852687e+21)
(-1.0847441e+23 2.5784858e+21 -5.4826485e+21)
(-1.1113882e+23 3.4065618e+21 -2.4798617e+21)
(-1.1380754e+23 3.1068397e+21 6.5803637e+21)
(-1.1306588e+23 4.6685474e+21 6.223487e+21)
(-1.0961242e+23 3.6834086e+21 -3.2122102e+20)
(-1.0994785e+23 3.1593764e+21 -1.3198947e+20)
(-9.3228604e+22 3.2205974e+21 -1.9944199e+21)
(-9.1964122e+22 2.7461176e+21 -3.6061231e+21)
(-9.1991247e+22 2.9301954e+21 -3.6164262e+21)
(-9.3374815e+22 2.7023863e+21 -1.9630965e+21)
(-9.4285283e+22 2.5918458e+21 -3.56044e+21)
(-9.4136525e+22 2.8807037e+21 -3.6464699e+21)
(-9.3404134e+22 2.477144e+21 -4.5948852e+21)
(-9.3609427e+22 2.5326609e+21 -4.4661444e+21)
(-9.2962371e+22 2.9341071e+21 -2.2676607e+21)
(-9.1364836e+22 2.7354435e+21 -3.7658216e+21)
(-9.1199845e+22 2.5795949e+21 -4.0517621e+21)
(-9.2905422e+22 2.6107877e+21 -2.0713253e+21)
(-9.3659189e+22 2.5061149e+21 -3.6991768e+21)
(-9.3516564e+22 2.5291561e+21 -3.9986116e+21)
(-9.7874376e+22 2.9111695e+21 7.9786108e+21)
(-9.4238862e+22 4.056685e+21 3.6523772e+21)
(-9.405756e+22 2.7947053e+21 3.391919e+21)
(-9.738066e+22 4.5466254e+21 8.046205e+21)
(-9.2060462e+22 2.7704744e+21 -1.4568573e+21)
(-9.5042141e+22 3.8974003e+21 1.6060936e+21)
(-9.2034627e+22 3.3723023e+21 -1.3458914e+21)
(-9.5171841e+22 2.7621032e+21 1.4808053e+21)
(-9.3687402e+22 3.6919672e+21 3.1053449e+21)
(-9.7551865e+22 4.2025895e+21 7.6666087e+21)
(-9.7832892e+22 2.7867951e+21 7.9478018e+21)
(-9.3497567e+22 2.8186406e+21 3.1893365e+21)
(-9.4826901e+22 2.6553025e+21 1.2919787e+21)
(-9.155514e+22 3.0516704e+21 -1.7327593e+21)
(-9.4853609e+22 3.4947927e+21 1.2032376e+21)
(-9.1375078e+22 2.7035827e+21 -1.5961399e+21)
(-9.3832769e+22 2.8852725e+21 8.1811695e+21)
(-9.3781652e+22 4.3353481e+21 8.3453799e+21)
(-9.3432821e+22 2.9466068e+21 8.4885434e+21)
(-9.4100503e+22 4.6321164e+21 8.4694652e+21)
(-9.4053211e+22 2.3295264e+21 8.5545844e+21)
(-1.0986397e+23 2.7784967e+21 9.8662141e+21)
(-9.3723614e+22 4.177337e+21 8.7185825e+21)
(-9.373283e+22 2.5152306e+21 8.2762072e+21)
(-9.4407367e+22 4.0319932e+21 8.3367866e+21)
(-1.0991015e+23 4.5912771e+21 9.6737982e+21)
(-1.2189546e+23 3.7653046e+21 8.9948235e+21)
(-1.0378503e+23 2.0541752e+21 1.9191638e+21)
(-9.7434406e+22 2.0582891e+21 1.6221628e+21)
(-9.7615935e+22 3.8568405e+21 1.6285344e+21)
(-1.0158709e+23 3.4931642e+21 1.6298853e+21)
(-1.0937586e+23 2.0363202e+21 1.0007858e+22)
(-1.0871827e+23 4.4682497e+21 1.0079224e+22)
(-9.617972e+22 5.8840631e+21 8.7499378e+20)
(-9.8155751e+22 7.3201174e+21 1.2475657e+21)
(-9.6524406e+22 8.5167391e+21 9.767418e+20)
(-9.4160821e+22 7.1364643e+21 5.1865597e+20)
(-7.8827888e+22 3.824978e+21 7.9468709e+21)
(-7.8896223e+22 2.9773784e+21 7.8705168e+21)
(-7.9227896e+22 3.937245e+21 8.1487924e+21)
(-7.8496768e+22 2.7736604e+21 8.1150027e+21)
(-7.9237478e+22 4.0510791e+21 8.4749591e+21)
(-7.9274013e+22 2.8853251e+21 8.2795757e+21)
(-7.9578444e+22 3.730137e+21 7.9837787e+21)
(-7.903654e+22 2.7609479e+21 8.0302335e+21)
(-9.2172352e+22 6.468151e+21 -9.6507884e+20)
(-9.1821447e+22 5.2647752e+21 -9.2594572e+20)
(-8.6347587e+22 4.2272867e+21 -3.6533189e+21)
(-9.2072021e+22 7.4194343e+21 -2.958323e+21)
(-8.6937584e+22 7.4811312e+21 -1.7477828e+21)
(-9.3243794e+22 8.8379633e+21 -2.2613799e+21)
(-9.4993053e+22 9.5133842e+21 -2.0527559e+21)
(-8.7230573e+22 7.3852309e+21 -1.7007425e+21)
(-1.2598305e+23 7.0988043e+21 -1.2932872e+22)
(-1.2476963e+23 6.8101646e+21 -1.256152e+22)
(-1.2555601e+23 5.8400375e+21 -6.5184619e+21)
(-1.0522261e+23 4.7840791e+21 -1.2642756e+22)
(-1.0663369e+23 2.4924623e+21 -1.3202817e+22)
(-1.0143924e+23 4.3779383e+21 -1.4119632e+22)
(-1.0082861e+23 4.5509855e+21 -1.4374572e+22)
(-1.051202e+23 4.1718414e+21 -1.2425398e+22)
(-1.0591891e+23 2.7854672e+21 -1.2800976e+22)
(-1.0094729e+23 4.9747415e+21 -1.4058116e+22)
(-1.004637e+23 4.2874143e+21 -1.4016969e+22)
(-8.2880036e+22 5.3165198e+21 -1.7321136e+22)
(-8.400723e+22 6.305313e+21 -1.7218202e+22)
(-6.4141383e+22 8.1195804e+21 1.0857472e+20)
(-6.5273324e+22 1.190371e+22 5.729366e+20)
(-8.3058589e+22 5.4179773e+21 -1.7030391e+22)
(-8.377721e+22 6.9896195e+21 -1.7011687e+22)
(-6.4166129e+22 8.7974143e+21 3.8623905e+20)
(-6.3783654e+22 1.2633501e+22 -1.3708887e+19)
(-1.043151e+23 1.60328e+21 -9.771275e+21)
(-1.0369224e+23 3.5998298e+21 -9.6114356e+21)
(-1.0697911e+23 4.6894306e+21 -1.5706871e+22)
(-1.0707876e+23 4.2087037e+21 -1.5230589e+22)
(-1.0369118e+23 3.5125604e+21 -9.3790383e+21)
(-1.0645149e+23 4.8416363e+21 -1.554655e+22)
(-1.0635058e+23 4.4812809e+21 -1.5110423e+22)
(-1.0386811e+23 1.6395173e+21 -9.5788973e+21)
(-8.4475869e+22 3.8885436e+21 -1.543534e+22)
(-8.5072968e+22 2.3454429e+21 -1.5746676e+22)
(-7.1060436e+22 3.8440594e+21 -1.7716774e+22)
(-7.0564384e+22 4.5212784e+21 -1.7895004e+22)
(-7.055274e+22 4.1053238e+21 -1.7421615e+22)
(-8.4595929e+22 3.3239757e+21 -1.5038254e+22)
(-8.4739932e+22 2.4299732e+21 -1.5373983e+22)
(-7.0735343e+22 4.1984156e+21 -1.758231e+22)
(-5.0539184e+22 5.7256882e+21 -1.573932e+22)
(-4.4638777e+22 6.0312863e+21 3.7594814e+21)
(-4.4238903e+22 8.5799371e+21 3.1026596e+21)
(-5.0235338e+22 5.0060165e+21 -1.5444262e+22)
(-4.9952677e+22 5.2083908e+21 -1.5805675e+22)
(-5.0785088e+22 5.278295e+21 -1.5838309e+22)
(-4.4278758e+22 5.4520356e+21 3.8277753e+21)
(-4.5214391e+22 7.8933223e+21 3.7850443e+21)
(-8.4189178e+22 3.7654998e+21 -1.5230462e+22)
(-8.4765438e+22 2.4115722e+21 -1.5562812e+22)
(-7.0255057e+22 4.6113267e+21 -1.7638636e+22)
(-7.0796772e+22 4.0856789e+21 -1.7462104e+22)
(-6.9968233e+22 4.3933994e+21 -1.7104807e+22)
(-8.4189973e+22 3.4537366e+21 -1.4798e+22)
(-8.4389277e+22 2.6646558e+21 -1.5103933e+22)
(-7.0268592e+22 4.5462761e+21 -1.7245019e+22)
(-4.9855995e+22 5.6708169e+21 -1.4992027e+22)
(-4.9973134e+22 6.280212e+21 -1.5296715e+22)
(-4.3846494e+22 7.1487994e+21 3.5193813e+21)
(-4.3179092e+22 9.2901426e+21 2.9317267e+21)
(-4.9874507e+22 5.5382168e+21 -1.5542987e+22)
(-5.0787424e+22 5.8786868e+21 -1.5542133e+22)
(-4.3937115e+22 6.5373412e+21 3.3928157e+21)
(-4.4802127e+22 9.0668111e+21 3.3828802e+21)
(-1.0786759e+23 3.8701952e+21 -1.2298363e+22)
(-8.4743396e+22 3.5508492e+21 -1.5459608e+22)
(-8.5100409e+22 1.8592903e+21 -1.5482645e+22)
(-1.0658445e+23 3.0980555e+21 -6.7142207e+21)
(-1.089267e+23 1.9158046e+21 -7.4243733e+21)
(-1.0791098e+23 3.3972079e+21 -1.1711858e+22)
(-8.4545453e+22 3.1513999e+21 -1.4932235e+22)
(-7.3916989e+22 4.6631244e+21 -1.8946123e+22)
(-7.4477763e+22 4.1380892e+21 -1.8779075e+22)
(-7.3859421e+22 4.4717899e+21 -1.8504925e+22)
(-4.9525017e+22 3.3131127e+21 -1.5859611e+22)
(-4.9513183e+22 2.5413701e+21 -1.585135e+22)
(-3.6781618e+22 3.8025089e+21 -1.6234806e+22)
(-3.6163464e+22 4.5310048e+21 -1.6633359e+22)
(-3.6668514e+22 3.9983951e+21 -1.6341693e+22)
(-4.9742395e+22 2.3367926e+21 -1.5830158e+22)
(-5.0075942e+22 2.7834552e+21 -1.5659564e+22)
(-3.7081638e+22 3.8641699e+21 -1.6349772e+22)
(-4.1274834e+22 3.7336998e+21 6.4610844e+21)
(-4.175662e+22 4.7791304e+21 6.4000707e+21)
(-2.7885528e+22 5.8176533e+21 -4.3666711e+21)
(-2.8255715e+22 5.3560502e+21 -5.0702083e+21)
(-2.8347947e+22 5.6146109e+21 -4.5375053e+21)
(-4.1259397e+22 3.8305331e+21 6.1365964e+21)
(-2.7801284e+22 5.3404623e+21 -5.8043119e+21)
(-4.0420876e+22 4.6017613e+21 5.4807103e+21)
(-4.9264981e+22 2.9120672e+21 -1.543346e+22)
(-4.929186e+22 2.3759882e+21 -1.5487591e+22)
(-3.6024123e+22 4.1892275e+21 -1.6203391e+22)
(-3.6859145e+22 3.8933085e+21 -1.583699e+22)
(-2.7854831e+22 5.634911e+21 -4.1912344e+21)
(-4.1157021e+22 3.5429483e+21 6.291384e+21)
(-2.8252532e+22 5.6949311e+21 -4.9317753e+21)
(-4.1538826e+22 5.101911e+21 6.2368848e+21)
(-2.8282718e+22 6.0315349e+21 -4.1901175e+21)
(-4.1098212e+22 4.4021852e+21 6.2571269e+21)
(-9.4938747e+22 6.9000598e+21 1.11748e+22)
(-1.1561604e+23 3.3897269e+21 1.3339767e+22)
(-7.8683756e+22 4.6579197e+21 9.6437814e+21)
(-1.0063817e+23 4.4099237e+21 1.2352942e+22)
(-7.9247719e+22 5.1396808e+21 9.8741464e+21)
(-1.0078542e+23 2.9632263e+21 1.2586095e+22)
(-7.8984667e+22 4.6317218e+21 9.4138944e+21)
(-1.0034417e+23 3.1134521e+21 1.2638226e+22)
(-7.8541621e+22 4.526618e+21 9.8932867e+21)
(-9.9561031e+22 5.1253906e+21 1.2522162e+22)
(-7.8485299e+22 5.2577694e+21 9.9655153e+21)
(-7.7984108e+22 5.2901813e+21 9.6068745e+21)
(-1.0058794e+23 5.0985569e+21 1.2686587e+22)
(-1.0015069e+23 3.2510691e+21 1.2546716e+22)
(-7.8530674e+22 4.9203982e+21 1.0186253e+22)
(-1.0031892e+23 5.2615636e+21 1.2729179e+22)
(-7.8933184e+22 5.3594435e+21 9.6490093e+21)
(-1.0084982e+23 3.7452777e+21 1.2694593e+22)
(-6.6825555e+22 3.4926802e+21 9.2575444e+21)
(-6.7033182e+22 3.7219287e+21 8.7990796e+21)
(-8.4758388e+22 4.2395953e+21 1.1257783e+22)
(-8.5100702e+22 3.2615496e+21 1.1241852e+22)
(-6.6835215e+22 3.6820017e+21 8.7534114e+21)
(-6.6853027e+22 3.9840706e+21 8.7491688e+21)
(-8.4993554e+22 3.830266e+21 1.0787971e+22)
(-8.4786249e+22 2.9535401e+21 1.0868801e+22)
(-8.4614104e+22 4.2771735e+21 1.0961115e+22)
(-6.660357e+22 3.7324084e+21 9.1342905e+21)
(-6.6763397e+22 4.2870503e+21 8.6809903e+21)
(-8.4864051e+22 3.4973985e+21 1.0933966e+22)
(-6.6505516e+22 4.2142726e+21 8.7530133e+21)
(-6.631176e+22 4.3800454e+21 8.6282492e+21)
(-8.4243221e+22 3.1943214e+21 1.0703211e+22)
(-8.4628259e+22 4.1310285e+21 1.0754592e+22)
(-6.6410515e+22 4.080248e+21 9.1774859e+21)
(-6.6727718e+22 4.3860201e+21 8.7143827e+21)
(-8.4274703e+22 3.6241872e+21 1.0847213e+22)
(-8.383678e+22 4.5974927e+21 1.0809715e+22)
(-6.6454046e+22 4.4148778e+21 8.7424611e+21)
(-6.6161152e+22 4.7725712e+21 8.4613913e+21)
(-8.4025223e+22 3.6298624e+21 1.0410586e+22)
(-8.4337456e+22 4.3254279e+21 1.0445775e+22)
(-6.6462214e+22 4.5768047e+21 9.1854663e+21)
(-6.6632662e+22 4.9678032e+21 8.6941689e+21)
(-8.4287369e+22 4.1418305e+21 1.0810387e+22)
(-8.4022084e+22 4.9562465e+21 1.0822603e+22)
(-6.635526e+22 4.888626e+21 8.9694303e+21)
(-6.6072879e+22 4.8168479e+21 8.7215293e+21)
(-8.3796601e+22 3.6363845e+21 1.0765732e+22)
(-8.4179031e+22 4.6616127e+21 1.0837142e+22)
(-5.6894779e+22 3.9622003e+21 8.2051337e+21)
(-5.6702944e+22 3.1455591e+21 8.4555401e+21)
(-7.2248461e+22 3.889112e+21 9.0538109e+21)
(-7.2348237e+22 3.3824936e+21 9.2610352e+21)
(-5.6463929e+22 3.5561405e+21 8.3848198e+21)
(-5.6306713e+22 4.1102907e+21 8.1715101e+21)
(-7.1829888e+22 3.0569517e+21 9.2786149e+21)
(-7.2211278e+22 3.7069577e+21 9.419114e+21)
(-7.2312826e+22 4.068314e+21 9.7028327e+21)
(-5.7150555e+22 3.2167309e+21 8.9363566e+21)
(-5.7032174e+22 3.9021222e+21 8.3923646e+21)
(-7.2405852e+22 3.3945665e+21 9.6831337e+21)
(-5.664496e+22 4.076828e+21 8.1706795e+21)
(-5.6668094e+22 3.4184919e+21 8.3330961e+21)
(-7.252884e+22 3.6828445e+21 9.3616356e+21)
(-7.231062e+22 3.22568e+21 9.2869176e+21)
(-5.6170437e+22 3.1080569e+21 8.4152058e+21)
(-5.635245e+22 4.0168301e+21 8.0766484e+21)
(-7.1525366e+22 3.8692377e+21 9.0143789e+21)
(-7.1834984e+22 3.3822669e+21 9.2947524e+21)
(-7.1785213e+22 3.7520834e+21 8.8295253e+21)
(-5.5863857e+22 3.5427677e+21 7.9761871e+21)
(-5.5987653e+22 4.2699603e+21 7.9199172e+21)
(-7.1722205e+22 3.4121932e+21 9.0076442e+21)
(-5.6423991e+22 4.210407e+21 8.225522e+21)
(-5.6201218e+22 3.371321e+21 8.4371065e+21)
(-7.1748569e+22 4.1007158e+21 9.0982628e+21)
(-7.1876519e+22 3.6153648e+21 9.4228526e+21)
(-5.5940046e+22 4.0255964e+21 8.3205287e+21)
(-5.5906096e+22 3.6883137e+21 8.3177655e+21)
(-7.148783e+22 3.8150769e+21 9.3312595e+21)
(-7.1247914e+22 3.0360747e+21 9.3378203e+21)
(-1.2167531e+23 2.8472772e+21 -3.9264398e+21)
(-1.0562696e+23 2.0055e+21 1.1128841e+20)
(-1.038339e+23 2.8138168e+21 -6.0328867e+19)
(-1.0205259e+23 2.7824719e+21 -2.9396386e+20)
(-1.0235576e+23 1.9443468e+21 -4.0770111e+20)
(-1.2824728e+23 3.3423463e+21 4.5319402e+21)
(-1.1478311e+23 4.3449856e+21 6.9106235e+21)
(-1.1568175e+23 2.8266737e+21 7.4152708e+21)
(-1.1084542e+23 2.9604608e+21 1.6656874e+20)
(-1.1045363e+23 3.3511706e+21 -1.4089291e+20)
(-1.0913692e+23 3.0553874e+21 -4.432928e+21)
(-1.122958e+23 2.3353949e+21 -1.7498544e+21)
(-1.0900849e+23 2.1499455e+21 -4.9554305e+21)
(-1.1157294e+23 3.6539774e+21 -1.5396526e+21)
(-1.0921788e+23 2.6282083e+21 -5.3362195e+21)
(-1.1265734e+23 2.6101458e+21 -2.0360142e+21)
(-1.0891891e+23 2.3540198e+21 -5.2624941e+21)
(-1.1204836e+23 3.2997361e+21 -2.3697453e+21)
(-9.8065904e+22 4.4625639e+21 -4.1101443e+20)
(-9.7555664e+22 5.0376229e+21 -1.7423845e+20)
(-9.9150329e+22 5.8807936e+21 9.5279538e+19)
(-1.0005562e+23 5.262851e+21 -1.0314186e+20)
(-1.1058167e+23 3.681045e+21 8.5678936e+20)
(-1.1441851e+23 2.2983901e+21 7.1463784e+21)
(-1.1292528e+23 4.2847033e+21 6.9790227e+21)
(-1.1058801e+23 2.3511934e+21 5.1814807e+20)
(-9.4064044e+22 2.4125384e+21 -4.3631256e+21)
(-9.371107e+22 2.5087254e+21 -4.2683096e+21)
(-9.4675747e+22 2.8590302e+21 -3.3585259e+21)
(-9.5028384e+22 2.477601e+21 -3.4362251e+21)
(-9.3659867e+22 2.0828916e+21 -4.8274308e+21)
(-9.3561791e+22 2.2818976e+21 -4.6222088e+21)
(-9.3921388e+22 2.3032178e+21 -4.1869896e+21)
(-9.3931377e+22 2.3042895e+21 -3.9009966e+21)
(-9.3523393e+22 2.6346914e+21 -2.5088338e+21)
(-9.2017552e+22 2.3847325e+21 -4.0150216e+21)
(-9.1996297e+22 2.5316832e+21 -3.8071561e+21)
(-9.34893e+22 2.446834e+21 -2.2652363e+21)
(-9.2704897e+22 2.5015491e+21 -3.4993432e+21)
(-9.2595301e+22 2.8446973e+21 -3.3578728e+21)
(-9.3589165e+22 3.007115e+21 -2.0386674e+21)
(-9.4089316e+22 2.4254601e+21 -2.0082982e+21)
(-9.2569133e+22 3.1517135e+21 -1.2988628e+21)
(-9.2811503e+22 2.4287899e+21 -1.3856245e+21)
(-9.6019786e+22 2.4316198e+21 1.5675871e+21)
(-9.5506382e+22 3.6322462e+21 1.5960198e+21)
(-9.7994948e+22 4.1450222e+21 8.0493104e+21)
(-9.4866153e+22 2.3659967e+21 3.5920819e+21)
(-9.4801014e+22 3.7658575e+21 3.803512e+21)
(-9.8775141e+22 2.4849548e+21 8.1365766e+21)
(-9.9135493e+22 3.9448451e+21 7.9091666e+21)
(-9.4329968e+22 2.5966099e+21 3.2029322e+21)
(-9.4590814e+22 3.3809397e+21 3.0356228e+21)
(-9.8750499e+22 2.5204028e+21 8.0000309e+21)
(-9.5711857e+22 3.1661243e+21 1.0093492e+21)
(-9.2172865e+22 2.5590348e+21 -1.712284e+21)
(-9.23414e+22 2.7535891e+21 -1.9012134e+21)
(-9.5659889e+22 2.4896681e+21 1.2090599e+21)
(-9.2080186e+22 2.8966842e+21 -3.7370629e+21)
(-9.1986876e+22 2.7010601e+21 -4.0181213e+21)
(-9.386195e+22 3.0916354e+21 -2.2667008e+21)
(-9.3773897e+22 2.8077915e+21 -2.0552118e+21)
(-9.4482748e+22 2.6648514e+21 -3.7098104e+21)
(-9.4365795e+22 2.668019e+21 -3.9736414e+21)
(-9.3217456e+22 2.2773357e+21 -4.9491837e+21)
(-9.359047e+22 2.6104675e+21 -4.5985632e+21)
(-9.4354089e+22 2.6041907e+21 -3.7810736e+21)
(-9.3435019e+22 2.4316183e+21 -4.7491483e+21)
(-9.3277981e+22 2.1832645e+21 -4.7859468e+21)
(-9.442328e+22 2.4905915e+21 -3.8037057e+21)
(-9.3414206e+22 2.8880737e+21 -2.4018613e+21)
(-9.2145677e+22 2.6346623e+21 -3.8988692e+21)
(-9.2132073e+22 2.6487106e+21 -3.8002031e+21)
(-9.3562068e+22 2.5736231e+21 -2.3911729e+21)
(-9.4275934e+22 3.0397164e+21 3.3796859e+21)
(-9.4534179e+22 3.9983815e+21 3.2054991e+21)
(-9.8776204e+22 4.5153243e+21 7.9292045e+21)
(-9.8478662e+22 2.9173549e+21 8.0826704e+21)
(-9.4318167e+22 2.8560569e+21 3.011017e+21)
(-9.43849e+22 3.7612263e+21 3.161617e+21)
(-9.8211644e+22 4.3552511e+21 7.7183752e+21)
(-9.8519155e+22 2.9790248e+21 7.6714052e+21)
(-9.5283733e+22 3.5857512e+21 1.0867975e+21)
(-9.222004e+22 3.050296e+21 -1.7765639e+21)
(-9.2340657e+22 2.7380813e+21 -1.8351281e+21)
(-9.5537075e+22 2.7818433e+21 1.0649683e+21)
(-9.5765768e+22 3.7364955e+21 1.2032398e+21)
(-9.2446398e+22 3.2321806e+21 -1.7568974e+21)
(-9.2268793e+22 2.9449011e+21 -1.5444232e+21)
(-9.5722009e+22 2.8848307e+21 1.3940831e+21)
(-7.5010484e+22 2.8479707e+21 -2.5336053e+21)
(-7.6688754e+22 2.9467034e+21 -1.69082e+21)
(-7.4898005e+22 2.6829683e+21 -2.5423114e+21)
(-7.6687015e+22 2.614964e+21 -1.661346e+21)
(-7.5985192e+22 2.5131144e+21 -2.8966118e+21)
(-7.5257708e+22 2.4288302e+21 -2.9886246e+21)
(-7.7064849e+22 2.6596554e+21 -2.4516109e+21)
(-7.6374211e+22 2.483791e+21 -2.510222e+21)
(-7.5727269e+22 2.6772061e+21 -2.9231636e+21)
(-7.6759602e+22 2.8250686e+21 -2.449227e+21)
(-7.5644473e+22 2.6081974e+21 -2.901803e+21)
(-7.6688371e+22 2.6445167e+21 -2.4210535e+21)
(-7.5217372e+22 2.6669423e+21 -2.5726449e+21)
(-7.6991545e+22 2.7545123e+21 -1.7560836e+21)
(-7.4484436e+22 2.5219867e+21 -2.6460513e+21)
(-7.6346609e+22 2.4598569e+21 -1.7730391e+21)
(-7.7005793e+22 2.4292415e+21 -3.054121e+21)
(-7.7903283e+22 2.5463692e+21 -2.5312797e+21)
(-7.6373192e+22 2.3418674e+21 -3.1688437e+21)
(-7.7215804e+22 2.3538035e+21 -2.6007425e+21)
(-7.6832265e+22 2.6105726e+21 -3.0788963e+21)
(-7.7574594e+22 2.6796736e+21 -2.5985152e+21)
(-7.6726986e+22 2.5441122e+21 -3.0684332e+21)
(-7.7524647e+22 2.5271235e+21 -2.5442827e+21)
(-7.9523786e+22 2.6354263e+21 -2.986046e+21)
(-7.9458947e+22 2.4668359e+21 -2.9430536e+21)
(-8.0341602e+22 2.5289005e+21 -3.9346761e+21)
(-8.0212935e+22 2.3462554e+21 -3.9038088e+21)
(-7.9792248e+22 2.4902351e+21 -2.9429583e+21)
(-7.9173118e+22 2.2746063e+21 -3.0304513e+21)
(-7.9900565e+22 2.1624979e+21 -4.002174e+21)
(-8.0538705e+22 2.3648171e+21 -3.8984235e+21)
(-7.391904e+22 2.5307777e+21 -2.9581614e+21)
(-7.398669e+22 2.6264174e+21 -2.8572426e+21)
(-7.5776227e+22 2.6589329e+21 -2.0498067e+21)
(-7.5903168e+22 2.5352406e+21 -1.9329888e+21)
(-7.5204683e+22 2.5199972e+21 -2.9760907e+21)
(-7.6332985e+22 2.6742954e+21 -2.5230762e+21)
(-7.5987097e+22 2.5575909e+21 -2.4645879e+21)
(-7.4545256e+22 2.3381485e+21 -3.3893716e+21)
(-7.5662577e+22 2.5000909e+21 -2.8817561e+21)
(-7.4674203e+22 2.5544306e+21 -3.262553e+21)
(-7.5763964e+22 2.5659606e+21 -2.7592551e+21)
(-7.4523398e+22 2.7045271e+21 -2.6152196e+21)
(-7.4029861e+22 2.6068041e+21 -2.5853802e+21)
(-7.6381965e+22 2.7736007e+21 -1.7844498e+21)
(-7.5897509e+22 2.4868696e+21 -1.7306958e+21)
(-7.6104242e+22 2.4140845e+21 -3.1563995e+21)
(-7.7098763e+22 2.5331485e+21 -2.6304295e+21)
(-7.5434214e+22 2.2187853e+21 -3.6273871e+21)
(-7.6354509e+22 2.3236651e+21 -3.0730815e+21)
(-7.5598286e+22 2.4863182e+21 -3.5284904e+21)
(-7.6515561e+22 2.4471208e+21 -2.9290567e+21)
(-8.0283663e+22 3.4697496e+21 5.3713494e+21)
(-7.9809247e+22 2.6438605e+21 5.3962859e+21)
(-8.380234e+22 3.7647764e+21 8.523547e+21)
(-8.3471514e+22 2.6992527e+21 8.6371307e+21)
(-7.8834969e+22 2.7020441e+21 1.3348964e+21)
(-7.8862727e+22 3.3900276e+21 1.451492e+21)
(-8.1925487e+22 3.7875014e+21 4.148001e+21)
(-8.2018296e+22 2.8247959e+21 4.0281037e+21)
(-7.9060889e+22 3.1231089e+21 1.2119554e+21)
(-7.8445495e+22 2.5631041e+21 1.2166595e+21)
(-8.2144466e+22 3.3431526e+21 3.8027392e+21)
(-8.1782218e+22 2.5913869e+21 3.8477095e+21)
(-8.0072841e+22 2.7087223e+21 5.5988475e+21)
(-8.0252726e+22 3.8479009e+21 5.8454927e+21)
(-8.3245244e+22 4.1773256e+21 8.7920307e+21)
(-8.3514375e+22 2.9551325e+21 8.7362818e+21)
(-7.5723936e+22 2.7506432e+21 -2.1205602e+21)
(-7.7758955e+22 2.8686704e+21 -1.36873e+21)
(-7.5032682e+22 2.5439955e+21 -2.1633956e+21)
(-7.7216842e+22 2.5564737e+21 -1.3797393e+21)
(-7.6496301e+22 2.7416744e+21 -1.1859566e+21)
(-7.6601014e+22 3.1484923e+21 -1.104923e+21)
(-7.9435495e+22 3.3231677e+21 7.032761e+20)
(-7.9556539e+22 2.7170768e+21 6.7706426e+20)
(-7.5487517e+22 2.9491328e+21 -2.0327307e+21)
(-7.7516587e+22 3.1182522e+21 -1.2441476e+21)
(-7.5405553e+22 2.6824081e+21 -2.0465155e+21)
(-7.7519643e+22 2.7277736e+21 -1.2726421e+21)
(-7.6765466e+22 2.9176642e+21 -1.2629976e+21)
(-7.6140288e+22 2.6113393e+21 -1.2960863e+21)
(-7.9743412e+22 3.0391312e+21 5.5623765e+20)
(-7.9262062e+22 2.5127828e+21 5.7901597e+20)
(-7.815912e+22 3.1116665e+21 1.038563e+21)
(-7.8210676e+22 2.6807003e+21 1.0238174e+21)
(-8.1233896e+22 3.5019502e+21 3.6477705e+21)
(-8.1409912e+22 2.8009917e+21 3.6395461e+21)
(-7.9574823e+22 3.6048846e+21 5.2961177e+21)
(-7.9488139e+22 2.7805602e+21 5.1852991e+21)
(-8.2810548e+22 3.9466366e+21 8.2847072e+21)
(-8.3059559e+22 2.9814861e+21 8.3213207e+21)
(-7.9817151e+22 3.6628179e+21 5.3772998e+21)
(-7.9278236e+22 2.74521e+21 5.4257969e+21)
(-8.3413725e+22 3.9116973e+21 8.5880796e+21)
(-8.2948709e+22 2.7068402e+21 8.694122e+21)
(-7.8596759e+22 3.212741e+21 1.1754147e+21)
(-7.8017219e+22 2.6706744e+21 1.2059539e+21)
(-8.1750619e+22 3.4767671e+21 3.7696826e+21)
(-8.136526e+22 2.6900865e+21 3.8257777e+21)
(-7.6198743e+22 2.9625137e+21 -1.2990286e+21)
(-7.5650667e+22 2.7024913e+21 -1.2964263e+21)
(-7.9313243e+22 3.0999593e+21 5.2308684e+20)
(-7.8870628e+22 2.5998091e+21 5.6275233e+20)
(-7.4586112e+22 2.6592097e+21 -2.3951086e+21)
(-7.6712136e+22 2.8275985e+21 -1.5978458e+21)
(-7.4648132e+22 2.6215419e+21 -2.3083457e+21)
(-7.6818051e+22 2.640608e+21 -1.5413541e+21)
(-7.5802138e+22 2.8520581e+21 -1.4725944e+21)
(-7.5783678e+22 2.6804996e+21 -1.4532379e+21)
(-7.8729958e+22 3.0131373e+21 3.2102885e+20)
(-7.8929272e+22 2.6355856e+21 3.816625e+20)
(-7.5137463e+22 2.774765e+21 -2.1445123e+21)
(-7.7211683e+22 2.8916116e+21 -1.4231394e+21)
(-7.4567066e+22 2.5843036e+21 -2.1260554e+21)
(-7.6748151e+22 2.6070123e+21 -1.3991708e+21)
(-7.995897e+22 3.7770731e+21 7.8431095e+21)