/*--------------------------------*- C++ -*----------------------------------*\
  =========                 |
  \\      /  F ield         | OpenFOAM: The Open Source CFD Toolbox
   \\    /   O peration     | Website:  https://openfoam.org
    \\  /    A nd           | Version:  7
     \\/     M anipulation  |
\*---------------------------------------------------------------------------*/
FoamFile
{
    version     2.0;
    format      ascii;
    class       volScalarField;
    location    "4000";
    object      nut;
}
// * * * * * * * * * * * * * * * * * * * * * * * * * * * * * * * * * * * * * //

dimensions      [0 2 -1 0 0 0 0];

internalField   nonuniform List<scalar> 
34377
(
2.8732204e-24
2.7430662e-23
1.102468e-24
1.1582187e-24
2.1890414e-25
5.5024419e-24
2.5887934e-25
1.3560121e-25
1.0444378e-25
1.0515919e-25
2.4150412e-25
6.1026016e-24
2.1641169e-25
1.532255e-23
5.8279153e-24
1.4125874e-24
2.9095626e-25
6.9290236e-25
7.0969517e-25
4.0097657e-25
8.1205422e-25
7.3152681e-25
5.1562851e-25
6.4870703e-25
7.1971175e-25
1.3597123e-24
6.7564575e-25
1.5208162e-25
9.7909866e-26
5.8186259e-26
6.2482126e-26
1.2333408e-25
9.4093603e-26
8.3498229e-26
8.230158e-26
1.2515503e-25
9.4259424e-26
1.4425178e-25
1.6009808e-25
9.4603758e-26
1.0041738e-25
1.3453261e-25
1.4069362e-25
5.4443637e-25
1.020219e-25
8.5043211e-26
4.9720432e-25
4.4018812e-25
3.2897486e-24
4.3057647e-25
3.3255562e-24
2.2024428e-25
4.4698003e-25
7.8981086e-26
8.6953796e-26
4.9541879e-25
2.1111688e-25
6.003201e-24
6.0429017e-24
3.7398158e-25
3.0117907e-24
3.8985663e-25
3.211835e-24
7.1892904e-25
8.7796837e-25
9.8464617e-25
8.0266794e-25
3.0693287e-25
3.4470638e-25
2.0966274e-25
2.3658024e-25
2.3993485e-25
3.5345571e-25
3.3663739e-25
2.286708e-25
3.3121109e-25
2.3994925e-25
3.6143957e-25
2.4563167e-25
3.5731135e-25
2.4186618e-25
3.2478015e-25
2.2958776e-25
4.9741966e-25
7.1963029e-25
8.1506317e-25
7.0394388e-25
6.0070131e-26
5.8641481e-26
9.2025123e-26
9.5053991e-26
1.3165313e-25
9.0412957e-26
7.9503933e-26
9.3985648e-26
1.0734514e-25
1.2884851e-25
1.2723964e-25
1.0776751e-25
1.0965455e-25
7.1247039e-26
5.4734473e-26
5.3464367e-26
6.7619014e-26
2.9555436e-26
8.0194285e-26
6.3197548e-26
6.1938343e-26
7.6348964e-26
2.9533129e-26
3.1562953e-26
2.9909183e-26
9.4958131e-26
1.2274656e-25
1.2219635e-25
9.8278016e-26
1.3730211e-25
1.1282018e-25
1.0881584e-25
1.200222e-25
1.2960501e-25
1.3073912e-25
1.3024587e-25
1.3524745e-25
1.6746627e-25
1.5408837e-25
1.7175962e-25
1.5781383e-25
1.2815508e-25
1.1680566e-25
1.2717166e-25
1.2506182e-25
8.6080929e-26
8.5284275e-26
1.4605687e-25
1.2109987e-25
1.0610954e-25
1.5080389e-25
2.0455159e-25
3.1976358e-25
3.1781185e-25
2.0139872e-25
3.263263e-25
3.3490541e-25
1.3597968e-24
1.5023469e-24
1.9796141e-25
1.9007306e-25
3.218908e-25
3.1176823e-25
3.5945246e-25
1.4274168e-24
1.4936109e-24
5.2412843e-25
9.4566039e-26
8.0738726e-26
4.6704477e-25
1.3825074e-25
9.832117e-26
1.0035747e-25
1.3298545e-25
8.5307374e-26
7.3010785e-26
4.2367782e-25
4.935103e-25
3.902409e-25
3.9661303e-25
3.233159e-24
3.2456506e-24
4.1548133e-25
4.0620087e-25
3.2920748e-24
3.2635126e-24
1.8892129e-25
1.8426294e-25
3.0115263e-25
3.132919e-25
3.1478632e-25
3.2155282e-25
1.2914391e-24
1.4139911e-24
1.8774111e-25
1.8924272e-25
3.1059454e-25
3.1105133e-25
3.3887995e-25
3.3589621e-25
1.4215283e-24
1.3534548e-24
3.4202067e-25
3.1811051e-25
2.6039086e-25
2.6778022e-25
3.8835943e-25
3.8829892e-25
2.949375e-25
3.022468e-25
1.3722346e-25
1.5283179e-25
1.3334274e-25
1.2267551e-25
1.6702e-25
1.6023175e-25
1.365088e-25
1.4627347e-25
1.5685197e-25
1.6313082e-25
1.3128196e-25
1.3073029e-25
1.6384378e-25
1.5175024e-25
1.422639e-25
1.3371489e-25
1.2441697e-25
1.4598102e-25
1.6336134e-25
1.3688541e-25
1.8153205e-25
1.7426877e-25
1.4403509e-25
1.4818314e-25
1.6174491e-25
1.6409001e-25
1.3883404e-25
1.4320109e-25
1.3669087e-25
1.6784759e-25
1.4146709e-25
1.3494078e-25
3.6721353e-25
2.5655498e-25
2.212224e-25
2.9514741e-25
3.6096146e-25
3.7944156e-25
2.6593664e-25
2.7232472e-25
8.3551246e-26
6.1517988e-26
6.5478229e-26
8.3471606e-26
2.9062292e-26
7.7351269e-26
5.8921371e-26
5.8217582e-26
2.9187702e-26
7.4446228e-26
1.4196824e-25
1.4184186e-25
1.1760189e-25
1.1687595e-25
1.2654703e-25
1.4781656e-25
1.1169087e-25
1.2243367e-25
3.1452378e-26
9.3963955e-26
1.1857183e-25
1.1810047e-25
1.0013565e-25
1.0107577e-25
9.2977647e-26
9.5189219e-26
1.0301138e-25
9.8989483e-26
9.7513786e-26
9.756191e-26
9.5883128e-26
7.4535944e-26
7.3921211e-26
7.5613004e-26
7.3937838e-26
6.8332405e-26
7.5594728e-26
7.057475e-26
7.2571244e-26
5.3580533e-26
6.0119326e-26
5.8134543e-26
5.4874868e-26
4.8606657e-26
4.7654534e-26
4.3715608e-26
4.516225e-26
3.5405842e-26
4.3612538e-26
4.2554535e-26
4.4180227e-26
3.3300003e-26
4.503265e-26
5.6265655e-26
5.5521294e-26
5.311994e-26
5.3414253e-26
3.3916977e-26
3.2318758e-26
5.8082184e-26
6.5826453e-26
6.1881572e-26
6.0507787e-26
4.9902732e-26
4.6751184e-26
5.2170039e-26
4.9848908e-26
3.9418167e-26
4.7346045e-26
4.8314983e-26
5.5102221e-26
5.843829e-26
5.6743854e-26
4.0179661e-26
1.9373306e-26
2.2432267e-26
1.8999454e-26
1.9586591e-26
2.4620998e-26
2.8729772e-26
2.1425988e-26
1.1251623e-25
1.147788e-25
1.0362726e-25
1.143907e-25
7.3411749e-26
7.9164347e-26
7.553817e-26
8.2070014e-26
7.9670291e-26
7.5646935e-26
7.4635529e-26
7.681946e-26
1.0402705e-25
1.0029516e-25
1.0253479e-25
1.0008531e-25
7.5480039e-26
8.2869553e-26
7.9251703e-26
7.9176579e-26
7.2867935e-26
7.9425668e-26
8.8077026e-26
8.4853747e-26
1.3997102e-25
1.4463703e-25
1.2574089e-25
1.3682983e-25
1.4838975e-25
1.510487e-25
1.3273506e-25
1.302768e-25
8.2431719e-26
7.954989e-26
6.9525255e-26
7.4814542e-26
7.7728235e-26
8.0902358e-26
7.6341694e-26
7.7025354e-26
8.4411845e-26
8.5461946e-26
1.204572e-25
3.3728024e-25
2.3535925e-25
2.3053514e-25
2.3594309e-25
2.4792355e-25
1.3129872e-25
1.7987346e-25
1.8438216e-25
1.2307358e-25
1.2995683e-25
1.8879055e-25
1.814727e-25
1.293505e-25
1.3037476e-25
1.2047395e-25
1.2792005e-25
3.2607162e-25
3.0739258e-25
3.5459314e-25
3.3509384e-25
1.3027945e-25
1.2720594e-25
1.3367456e-25
1.2992581e-25
1.8163232e-25
1.8673583e-25
1.3029041e-25
1.3482889e-25
1.3651658e-25
3.2964374e-25
1.2201397e-25
2.6075384e-25
1.3411184e-25
2.9575472e-25
1.4036331e-25
1.1634959e-25
1.0597789e-25
1.4054478e-25
3.1095397e-25
2.210692e-25
2.3078106e-25
1.1779487e-25
1.2030342e-25
2.5589696e-25
2.2771985e-25
2.2794806e-25
9.6731222e-26
8.963368e-26
1.3882868e-25
1.3138519e-25
3.1447659e-25
1.8966406e-25
1.9612451e-25
3.3463427e-25
3.2316785e-25
1.9383901e-25
1.9280671e-25
3.3070017e-25
3.3170999e-25
3.2957698e-25
1.4176315e-24
1.5095295e-24
3.2530259e-25
3.1717883e-25
1.4372743e-24
1.3148934e-24
3.1235652e-25
1.8953053e-25
1.9795099e-25
3.2874645e-25
3.2347012e-25
1.9799594e-25
1.9114806e-25
3.1140038e-25
3.2140514e-25
3.2586675e-25
1.3618797e-24
1.420772e-24
3.4526255e-25
1.4227528e-24
3.5221635e-25
1.3102969e-24
1.2634378e-25
1.2940095e-25
1.75129e-25
1.8016988e-25
1.2338132e-25
1.284379e-25
1.8008507e-25
1.7439395e-25
1.2822114e-25
1.2776864e-25
3.1042201e-25
3.2891567e-25
1.1957815e-25
1.2726918e-25
3.4811454e-25
3.3999777e-25
1.3031114e-25
1.274228e-25
1.303192e-25
1.2578599e-25
1.7611649e-25
1.795862e-25
1.2413921e-25
1.2979322e-25
1.8081084e-25
1.7389215e-25
1.2945481e-25
1.2885425e-25
1.2263892e-25
3.1792324e-25
1.2758684e-25
3.3209001e-25
1.3061337e-25
1.254767e-25
3.4669071e-25
3.3483178e-25
1.5086419e-25
1.5415743e-25
1.3247368e-25
1.2990759e-25
1.565673e-25
1.3700748e-25
1.4200723e-25
1.2853841e-25
1.6896458e-25
1.7642974e-25
1.5116595e-25
1.5922088e-25
1.5813514e-25
1.8361777e-25
1.6776313e-25
1.5111081e-25
1.1912728e-25
1.1151411e-25
4.4318443e-26
4.8375183e-26
1.2884622e-25
1.2852796e-25
5.1039968e-26
4.9767749e-26
1.4513631e-25
1.3370091e-25
5.1675588e-26
5.4803102e-26
1.3093002e-25
1.4611702e-25
5.3742841e-26
5.1344611e-26
1.2660176e-25
1.2062574e-25
4.7771625e-26
5.1871661e-26
1.3456027e-25
1.3161834e-25
5.2012379e-26
5.1554194e-26
5.0174247e-26
1.2751943e-25
1.4189567e-25
5.3261139e-26
1.3440296e-25
1.3694573e-25
5.2387654e-26
5.0405764e-26
1.1576776e-25
1.1194691e-25
4.6144977e-26
4.9034661e-26
1.4170535e-25
1.1515285e-25
5.2067808e-26
5.5000105e-26
1.3720939e-25
5.6323561e-26
1.596797e-25
5.965745e-26
6.1117089e-26
1.5944041e-25
1.0959924e-25
5.1978077e-26
1.0246291e-25
6.8482845e-26
3.6488647e-26
4.7089142e-26
5.2007338e-26
1.3636997e-25
7.1187158e-26
3.8216191e-26
1.0993545e-25
9.1694872e-26
4.3859101e-26
4.9960814e-26
5.4265005e-26
1.3653493e-25
4.604702e-26
2.8876495e-26
1.6523867e-25
1.620961e-25
1.3885761e-25
1.3883297e-25
1.3619635e-25
1.4843465e-25
1.1146472e-25
1.184769e-25
1.3654408e-25
1.604553e-25
1.649396e-25
1.3737798e-25
1.6636009e-25
1.6221137e-25
1.4772248e-25
1.4216355e-25
5.9985158e-26
5.7995287e-26
5.4133742e-26
5.2453078e-26
4.9541854e-26
4.7612105e-26
4.5273682e-26
4.753505e-26
3.5670955e-26
5.5889431e-26
5.2138351e-26
5.2160882e-26
5.464296e-26
3.8529209e-26
6.7510411e-26
6.7093533e-26
6.2962874e-26
6.4429085e-26
3.9744005e-26
3.7922496e-26
6.4615578e-26
5.7460205e-26
5.3193343e-26
5.0333467e-26
4.6431502e-26
4.8723252e-26
3.4810129e-26
4.8489866e-26
5.227718e-26
3.4939434e-26
6.3916372e-26
5.9875566e-26
6.0961799e-26
5.7599115e-26
1.1431547e-25
1.1191524e-25
1.1587722e-25
1.1556907e-25
1.1259083e-25
1.1545735e-25
1.1698941e-25
7.9152049e-26
7.9965522e-26
8.2850143e-26
8.4123401e-26
7.8943514e-26
7.7001355e-26
8.5443331e-26
8.6982565e-26
8.6810445e-26
8.5105859e-26
1.2374852e-25
1.2111416e-25
1.3217516e-25
1.3274619e-25
7.0968738e-26
7.1750449e-26
7.5126774e-26
7.3146147e-26
1.0229846e-25
1.0040296e-25
1.0876488e-25
1.0847813e-25
2.9487198e-26
2.089181e-26
2.074787e-26
2.933506e-26
6.2508182e-26
6.2656783e-26
5.7528326e-26
5.6318572e-26
5.1562813e-26
4.6967608e-26
5.6806452e-26
5.0379926e-26
5.670322e-26
4.6637546e-26
6.1878919e-26
5.0152827e-26
6.6535146e-26
5.3574211e-26
6.5713638e-26
5.2020395e-26
6.0722885e-26
5.9601688e-26
5.6520598e-26
5.3896633e-26
5.7542008e-26
5.2262796e-26
5.9871539e-26
5.3014667e-26
6.1827977e-26
4.9813237e-26
6.4259673e-26
5.072444e-26
6.4896239e-26
6.3146495e-26
5.1897709e-26
4.9763566e-26
5.896896e-26
4.6251232e-26
6.1721658e-26
4.7573981e-26
6.0277358e-26
6.3633441e-26
5.2840465e-26
5.5025143e-26
6.2855003e-26
6.1860384e-26
5.5039795e-26
5.3796294e-26
5.9892484e-26
5.8534131e-26
4.7158935e-26
4.5597631e-26
5.2939675e-26
4.1161042e-26
5.858266e-26
4.4785061e-26
6.5698578e-26
6.5745616e-26
5.6863812e-26
5.6432284e-26
5.5825736e-26
4.8014838e-26
6.2509698e-26
5.2957973e-26
6.1717953e-26
6.1455695e-26
4.8471131e-26
4.7807742e-26
5.8159222e-26
4.6975966e-26
6.5264188e-26
5.2055057e-26
6.1015318e-26
6.0799923e-26
5.5701566e-26
5.5357909e-26
5.384189e-26
4.919426e-26
6.0594929e-26
5.4982535e-26
6.5522388e-26
6.513491e-26
5.3293454e-26
5.2720984e-26
4.7339237e-26
4.4138456e-26
4.8265475e-26
4.3919634e-26
4.3193541e-26
4.0140577e-26
4.9085832e-26
4.4845073e-26
3.0909853e-26
3.4461788e-26
3.6990876e-26
3.2592282e-26
3.9967063e-26
3.3989459e-26
3.4344755e-26
3.3992228e-26
4.0606327e-26
4.0683135e-26
3.8787057e-26
3.598215e-26
3.1302114e-26
3.1129205e-26
3.1143035e-26
3.6744402e-26
3.7170925e-26
3.0380358e-26
3.2345738e-26
3.0332868e-26
3.7453932e-26
3.5957412e-26
4.2397775e-26
4.0601495e-26
4.5697166e-26
4.2999479e-26
3.091535e-26
3.3598959e-26
4.3455102e-26
4.1409528e-26
4.3382415e-26
4.0544848e-26
5.7054262e-26
5.2945404e-26
5.6044001e-26
5.1838577e-26
5.5267184e-26
5.140943e-26
5.8687288e-26
5.4040001e-26
6.1475728e-26
5.0783096e-26
6.495185e-26
5.3083651e-26
6.3201458e-26
5.208935e-26
6.1744357e-26
5.0832871e-26
2.5532446e-26
2.4936925e-26
2.5829515e-26
2.8590967e-26
3.4270767e-26
2.7779529e-26
2.5942529e-26
2.9358965e-26
6.0054268e-26
4.8850524e-26
6.8849319e-26
5.5096303e-26
6.4787875e-26
6.5441318e-26
5.9695042e-26
6.0034305e-26
5.4592257e-26
5.0490358e-26
6.3389157e-26
5.7558192e-26
6.9981927e-26
7.0460863e-26
5.7054172e-26
5.6983732e-26
3.6098178e-26
3.7111043e-26
3.887628e-26
4.3725232e-26
4.2799942e-26
3.0224704e-26
3.5349217e-26
3.6079796e-26
4.0897378e-26
3.5759826e-26
4.9442351e-26
4.6953772e-26
5.0777036e-26
4.7101186e-26
4.2129205e-26
4.0351056e-26
4.990028e-26
4.6619072e-26
3.8752459e-26
4.1375012e-26
3.066321e-26
3.3628731e-26
3.9211129e-26
3.6056522e-26
4.2400261e-26
4.0344521e-26
4.6862157e-26
4.3603342e-26
5.3994993e-26
6.0603284e-26
4.9794741e-26
6.5362354e-26
5.2762026e-26
5.4696687e-26
5.0474196e-26
5.9448352e-26
5.3963339e-26
6.4038e-26
5.2289973e-26
6.5848629e-26
5.3379105e-26
3.9060184e-26
3.2116238e-26
3.0933493e-26
3.6740392e-26
8.7451479e-27
8.8902798e-27
1.2942874e-26
1.2035624e-26
1.6163921e-26
1.3342898e-26
1.033262e-26
1.0466629e-26
1.4216596e-26
1.4973894e-26
1.4880152e-26
1.5899317e-26
1.4953018e-26
1.5153279e-26
1.5275665e-26
1.5739317e-26
1.4381132e-26
1.0493548e-26
1.4401001e-26
1.0492387e-26
1.3717748e-26
1.2983928e-26
1.9603318e-26
1.1627922e-26
2.1025713e-26
2.0620464e-26
1.8649103e-26
1.8469071e-26
6.0399403e-26
4.8758141e-26
6.7443131e-26
5.2873449e-26
7.0503438e-26
7.0528337e-26
5.5607931e-26
5.3043365e-26
5.5154234e-26
5.0314755e-26
6.1342593e-26
5.4489674e-26
6.6664721e-26
6.0327082e-26
6.7222811e-26
5.9024049e-26
5.6211961e-26
6.3163932e-26
4.4286694e-26
4.845988e-26
6.6384111e-26
6.6642206e-26
5.205104e-26
5.1232788e-26
5.7965103e-26
5.0368709e-26
6.6022639e-26
5.6283535e-26
6.9652559e-26
7.0512178e-26
6.0557212e-26
6.0518733e-26
6.3172811e-26
6.4981989e-26
5.4902994e-26
5.5618002e-26
5.8922088e-26
6.323808e-26
5.1322359e-26
5.3911712e-26
5.7296456e-26
6.0978808e-26
4.5586651e-26
4.7328814e-26
6.0187803e-26
6.1074812e-26
4.7206431e-26
4.7120074e-26
6.0108128e-26
5.4997431e-26
6.0991468e-26
5.4040509e-26
5.6996306e-26
5.2486186e-26
6.014262e-26
5.3261052e-26
6.2939632e-26
5.0584274e-26
6.6376971e-26
5.1083572e-26
6.4378729e-26
5.0430802e-26
6.4386521e-26
4.7886236e-26
4.2936245e-26
3.6565217e-26
4.2311267e-26
4.4330482e-26
4.0464189e-26
4.5036463e-26
4.4813515e-26
4.3105674e-26
4.306541e-26
4.3336997e-26
4.7579035e-26
5.1983339e-26
5.1004347e-26
5.3943863e-26
5.4017578e-26
4.500762e-26
8.2174764e-26
7.966211e-26
8.4023329e-26
8.2799123e-26
6.8961339e-26
7.0260466e-26
8.3103891e-26
8.1950153e-26
8.5547963e-26
8.7522727e-26
8.9628233e-26
8.6589702e-26
7.751373e-26
7.3646831e-26
7.4790096e-26
7.4897818e-26
4.9357505e-26
5.0410309e-26
4.9708485e-26
4.7954121e-26
4.2347858e-26
4.3649505e-26
4.7107702e-26
4.6387331e-26
4.8038516e-26
4.7486156e-26
4.9131649e-26
4.7079453e-26
4.4233104e-26
4.71717e-26
4.7975703e-26
4.7709144e-26
1.2251569e-25
1.3096744e-25
8.9980795e-26
9.9511406e-26
1.2579697e-25
8.7046413e-26
8.6800659e-26
2.2739578e-25
1.0379023e-25
1.0814747e-25
9.2184021e-26
1.500787e-25
1.4614902e-25
1.5166118e-25
1.6010402e-25
1.0783248e-25
1.1135802e-25
1.052132e-25
1.0908857e-25
6.783699e-26
1.3846795e-25
6.970089e-26
1.3983343e-25
1.4791967e-25
1.4341334e-25
7.2718594e-26
7.1807741e-26
1.0892657e-25
1.0692541e-25
6.8948032e-26
1.423483e-25
7.0404456e-26
1.4289607e-25
1.4341493e-25
1.3942843e-25
7.0033675e-26
6.992324e-26
4.3698065e-26
4.171874e-26
4.4756314e-26
5.6842413e-26
4.4576138e-26
4.4591014e-26
5.7677795e-26
4.6048954e-26
4.6249819e-26
5.2182252e-26
5.1501216e-26
4.3146166e-26
4.65605e-26
4.3256647e-26
4.2872894e-26
4.9865568e-26
4.5320764e-26
4.3926184e-26
5.3082813e-26
5.0263285e-26
5.2135041e-26
4.7260071e-26
4.1721115e-26
5.2281082e-26
4.4190294e-26
4.1992565e-26
5.494048e-26
5.287974e-26
4.2015855e-26
4.138979e-26
4.8391907e-26
6.3513916e-26
1.4644465e-25
1.4993919e-25
1.5781643e-25
1.5865211e-25
1.5049872e-25
1.4647691e-25
1.5199413e-25
1.6109712e-25
1.4227281e-25
1.4161408e-25
6.8494657e-26
7.1025672e-26
7.4517796e-26
1.5098908e-25
1.4743613e-25
7.4473457e-26
4.6986345e-26
4.4583065e-26
4.7144947e-26
4.530426e-26
5.0992173e-26
4.3485892e-26
4.1831869e-26
5.379081e-26
4.8513406e-26
4.4294399e-26
5.0110718e-26
4.9530238e-26
5.5519011e-26
4.8287905e-26
4.3684812e-26
5.2843065e-26
5.2275155e-26
4.5134054e-26
4.9223645e-26
3.8915551e-26
4.745271e-26
4.4841892e-26
5.3110414e-26
6.4496583e-26
3.0739985e-25
2.2779644e-25
2.3005455e-25
1.5657257e-25
1.1787602e-25
3.1119519e-25
2.2828527e-25
2.2470984e-25
8.4641284e-26
8.3431403e-26
2.1692924e-25
1.0452886e-25
1.0442996e-25
8.448633e-26
8.3979843e-26
2.3076201e-25
1.0160029e-25
1.0594555e-25
1.076633e-25
1.1563684e-25
3.1052506e-25
2.3572442e-25
2.355672e-25
2.4870642e-25
2.2256946e-25
2.2803144e-25
1.3117919e-25
1.3180351e-25
1.294876e-25
1.3125244e-25
1.2218141e-25
1.2576719e-25
1.834077e-25
1.747936e-25
1.8082732e-25
1.7957269e-25
1.2535375e-25
1.2372042e-25
1.1981989e-25
3.3272485e-25
1.2293087e-25
3.5541506e-25
1.2148021e-25
1.1565069e-25
3.6358057e-25
3.5571651e-25
1.2361417e-25
1.8341765e-25
1.7581675e-25
1.269165e-25
1.8063985e-25
1.7959367e-25
1.2780431e-25
1.272053e-25
1.1574909e-25
1.2059406e-25
3.3530104e-25
3.4588908e-25
1.2181313e-25
3.5246969e-25
1.1758664e-25
3.4073257e-25
1.2961647e-25
1.3259613e-25
1.2990988e-25
1.3129862e-25
1.7805719e-25
1.8560644e-25
1.25408e-25
1.2955398e-25
1.8548003e-25
1.8032427e-25
1.3105629e-25
1.2945297e-25
1.1743589e-25
1.223395e-25
3.3045567e-25
3.4506946e-25
1.2436924e-25
1.2684844e-25
3.5260609e-25
3.4660041e-25
1.8221013e-25
1.7481128e-25
1.3133725e-25
1.328117e-25
1.2334106e-25
1.2847366e-25
3.234449e-25
3.375645e-25
1.855723e-25
1.8052262e-25
1.2674134e-25
1.3119068e-25
1.3273082e-25
1.2878455e-25
3.4354375e-25
3.2266481e-25
1.4574831e-25
1.4498085e-25
1.5834988e-25
1.5157249e-25
1.049197e-25
1.0752597e-25
1.4482221e-25
1.4990411e-25
1.5615624e-25
1.5648973e-25
1.0563211e-25
1.0423283e-25
1.4168392e-25
1.4105961e-25
6.8675841e-26
7.038678e-26
7.3782371e-26
1.4883992e-25
1.4551785e-25
7.2477293e-26
6.9857787e-26
1.4151024e-25
7.1342599e-26
1.4257689e-25
1.4467733e-25
1.4080361e-25
7.1488271e-26
7.0070179e-26
4.5329362e-26
4.0392162e-26
3.9554736e-26
4.778804e-26
4.989635e-26
4.3655056e-26
4.1719106e-26
5.02439e-26
4.7604785e-26
4.5057743e-26
4.9572119e-26
4.1656439e-26
4.7398291e-26
4.6601387e-26
5.5537679e-26
4.2964778e-26
4.9541891e-26
4.1689714e-26
4.0872429e-26
5.1490071e-26
5.1598624e-26
4.253916e-26
4.1841139e-26
5.0678621e-26
4.8175088e-26
4.5596645e-26
4.9712939e-26
4.0454951e-26
4.6076357e-26
4.5818014e-26
5.5658525e-26
4.1716296e-26
1.4713214e-25
1.5078455e-25
1.5662235e-25
1.5750679e-25
1.0589712e-25
1.0403557e-25
1.4464436e-25
1.4229416e-25
1.5618387e-25
1.4970168e-25
1.0381261e-25
1.0654904e-25
1.409071e-25
1.4000258e-25
6.8213873e-26
7.0040937e-26
7.3441084e-26
1.4846092e-25
1.44297e-25
7.2102202e-26
6.9219842e-26
1.4133709e-25
7.0324481e-26
1.4154331e-25
1.4448344e-25
1.3947421e-25
7.0770395e-26
6.9543376e-26
4.7469096e-26
4.4702173e-26
4.267258e-26
4.8820648e-26
4.8648939e-26
4.2108496e-26
4.1087264e-26
5.0796253e-26
4.6410103e-26
4.5959974e-26
4.658188e-26
5.4639233e-26
4.3344715e-26
4.4666846e-26
5.2081793e-26
5.1800959e-26
4.5580298e-26
4.3570681e-26
4.7706553e-26
5.3671012e-26
4.3269982e-26
4.259173e-26
5.594459e-26
6.6735131e-26
4.356958e-26
4.3099955e-26
4.9171609e-26
5.1288382e-26
4.2591931e-26
4.624289e-26
5.0239191e-26
4.9382322e-26
1.2900401e-25
1.1252094e-25
4.5801575e-26
5.0291493e-26
1.2376575e-25
1.2746886e-25
4.9402116e-26
4.8356612e-26
1.3156089e-25
1.199804e-25
4.7246551e-26
5.0757083e-26
1.1736844e-25
1.2081138e-25
4.8583967e-26
4.7995797e-26
1.2617623e-25
1.5283212e-25
5.2808899e-26
5.8210657e-26
1.3555109e-25
1.4898694e-25
5.8060877e-26
5.5469052e-26
1.4815704e-25
1.4416464e-25
5.6413998e-26
5.9436586e-26
1.3001765e-25
1.4597207e-25
5.7348087e-26
5.3079998e-26
5.7984226e-26
5.3127062e-26
6.309293e-26
6.2434319e-26
6.9531697e-26
6.6532267e-26
6.338704e-26
6.7312022e-26
6.6222588e-26
6.2282021e-26
6.6834558e-26
6.7151544e-26
6.5415296e-26
6.7650112e-26
5.8417738e-26
6.3039908e-26
6.0397364e-26
5.6435699e-26
6.731115e-26
6.4947241e-26
7.088955e-26
7.3108909e-26
7.016543e-26
6.1772786e-26
5.9948293e-26
4.9861668e-26
6.2973586e-26
5.1657732e-26
6.1330416e-26
5.8830194e-26
3.8104228e-26
5.6282172e-26
1.4871507e-25
1.3115054e-25
4.9659161e-26
5.2556633e-26
1.4164995e-25
1.3683913e-25
5.0499428e-26
5.2424504e-26
1.3029007e-25
1.116891e-25
4.1920974e-26
4.6767797e-26
4.7370097e-26
1.2415963e-25
1.3758717e-25
4.6603812e-26
1.3909759e-25
1.1861267e-25
5.2911569e-26
5.086105e-26
1.4156412e-25
1.271001e-25
5.0878241e-26
5.0098441e-26
1.476449e-25
1.2272846e-25
4.999605e-26
5.3271729e-26
1.3281251e-25
1.3498289e-25
5.2523628e-26
5.1195732e-26
5.7533564e-26
5.5770699e-26
5.2344719e-26
5.0745691e-26
5.3946478e-26
4.9052667e-26
5.549548e-26
5.0496648e-26
6.2092385e-26
5.0432005e-26
5.975229e-26
4.8670505e-26
5.8304847e-26
4.7418584e-26
6.0230393e-26
4.900387e-26
4.4907478e-26
4.1804325e-26
4.4028846e-26
4.0598989e-26
4.2663942e-26
3.9706876e-26
4.3936333e-26
4.0845949e-26
3.0476667e-26
3.1083929e-26
3.6095949e-26
3.6599038e-26
3.3417048e-26
3.2128059e-26
3.1494553e-26
3.7853503e-26
3.8349199e-26
3.4907488e-26
3.4648253e-26
3.8318905e-26
5.186174e-26
4.7526315e-26
5.3776049e-26
4.9046765e-26
3.8228706e-26
3.691821e-26
4.4436826e-26
4.5917834e-26
4.0280994e-26
3.7631002e-26
3.8531564e-26
4.0654745e-26
4.4911732e-26
4.4722558e-26
5.1962174e-26
4.9124854e-26
5.023685e-26
4.7448878e-26
4.3434351e-26
4.3211202e-26
6.7485266e-26
6.2028337e-26
6.5148072e-26
6.0213185e-26
6.4115124e-26
5.8515221e-26
6.6120256e-26
6.0343994e-26
7.0284048e-26
5.7590861e-26
7.2552555e-26
5.9320922e-26
7.3339742e-26
5.9889848e-26
7.0835338e-26
5.8021167e-26
3.2938071e-26
3.2582995e-26
3.866547e-26
3.8819872e-26
2.8744964e-26
2.7369504e-26
2.9129032e-26
3.3248061e-26
6.2687888e-26
6.3566631e-26
5.6489235e-26
5.7343043e-26
6.6284513e-26
6.7108074e-26
5.3443032e-26
5.4012227e-26
4.8997885e-26
4.4944847e-26
5.0218769e-26
4.5585943e-26
3.6491603e-26
4.2136916e-26
3.3047773e-26
3.3481715e-26
3.2262972e-26
3.9107414e-26
3.9789181e-26
4.5875843e-26
4.3527858e-26
4.6991613e-26
4.4266371e-26
3.7411287e-26
3.8016059e-26
3.3102868e-26
3.4341399e-26
3.631102e-26
4.3064049e-26
4.0251137e-26
4.7580495e-26
4.4749223e-26
5.0235287e-26
4.6586605e-26
2.9596295e-26
3.4087776e-26
3.2425368e-26
6.1295788e-26
5.6781263e-26
6.3787088e-26
5.8800281e-26
6.7448574e-26
5.5296738e-26
6.9270149e-26
5.6498059e-26
5.9706617e-26
5.4963492e-26
6.0849893e-26
5.6037951e-26
6.5756814e-26
5.3843141e-26
6.7080011e-26
5.4798518e-26
5.8545591e-26
4.7024741e-26
6.0615981e-26
4.752829e-26
6.2569877e-26
6.3150103e-26
5.6517752e-26
5.6475789e-26
5.1029294e-26
6.8014607e-26
5.3891752e-26
6.7685297e-26
5.3810332e-26
6.3720974e-26
6.4610885e-26
5.8063756e-26
5.7671916e-26
6.1011166e-26
5.5555099e-26
6.1771841e-26
5.574491e-26
6.8562017e-26
6.85614e-26
5.4622148e-26
5.4444159e-26
5.3778896e-26
6.6667138e-26
6.7478506e-26
5.3716995e-26
6.1643703e-26
4.8499587e-26
6.2631445e-26
4.8873844e-26
6.3788169e-26
6.5313849e-26
5.520819e-26
5.626204e-26
6.3701327e-26
6.4444214e-26
4.9763173e-26
4.9839793e-26
6.6504928e-26
6.8458591e-26
5.772865e-26
5.8872968e-26
6.584578e-26
6.7119277e-26
5.6289286e-26
5.7056303e-26
6.2327768e-26
6.2789998e-26
4.8745689e-26
4.8667226e-26
6.8720591e-26
5.9437699e-26
7.0858508e-26
6.1203571e-26
7.1610575e-26
6.17834e-26
6.9596178e-26
6.0148675e-26
6.8235025e-26
5.3703684e-26
6.59663e-26
5.1871082e-26
6.588883e-26
5.1956544e-26
6.770329e-26
5.3037757e-26
6.7782548e-26
6.2037112e-26
6.6198602e-26
6.0131816e-26
6.4533771e-26
5.9451555e-26
6.6258298e-26
6.0500755e-26
7.2365763e-26
5.9132035e-26
7.4501181e-26
6.0507534e-26
7.4788849e-26
6.034703e-26
7.2530354e-26
5.8331069e-26
5.5856699e-26
4.3972595e-26
5.7684101e-26
4.485591e-26
5.7510802e-26
4.9529533e-26
5.9538302e-26
5.1033132e-26
6.1568068e-26
5.2992421e-26
5.9753626e-26
5.1320759e-26
5.8576553e-26
4.5855041e-26
5.6338846e-26
4.3983165e-26
5.7834301e-26
5.5980699e-26
5.3419164e-26
5.1155882e-26
5.6411848e-26
5.4846168e-26
5.0481903e-26
5.1040461e-26
6.2370615e-26
6.4361116e-26
5.2054597e-26
5.1152404e-26
6.4574404e-26
5.2592498e-26
6.1883197e-26
5.0360124e-26
9.3109506e-27
1.1502202e-26
1.6913217e-26
1.1509142e-26
2.0400716e-26
1.8567806e-26
1.8978552e-26
1.9143634e-26
1.7222212e-26
1.7306978e-26
2.0384719e-26
1.7342748e-26
1.0934105e-26
1.5869573e-26
1.1580265e-26
1.5778103e-26
2.3952059e-26
2.2906419e-26
2.3835723e-26
2.4865645e-26
2.4924596e-26
2.4707694e-26
2.3624049e-26
2.3732769e-26
2.1936748e-26
2.3583808e-26
2.1362858e-26
2.5403185e-26
2.4254963e-26
2.1423638e-26
2.4026079e-26
2.1447795e-26
2.0469366e-26
1.9823517e-26
1.9251506e-26
2.1374637e-26
1.9818368e-26
1.805652e-26
1.8815354e-26
2.166603e-26
2.2367579e-26
2.2576146e-26
2.1489036e-26
2.357547e-26
2.192928e-26
1.9660432e-26
2.2963353e-26
2.0074513e-26
2.4290794e-26
2.262681e-26
2.3866041e-26
2.401354e-26
2.3352685e-26
2.7821056e-26
2.957889e-26
2.3603194e-26
2.605957e-26
2.6349834e-26
2.5107857e-26
2.5891797e-26
2.4174167e-26
3.0109947e-26
3.0826599e-26
2.436368e-26
2.6166144e-26
2.7142219e-26
2.7096142e-26
2.7341931e-26
2.5656884e-26
2.5680936e-26
3.2830363e-26
3.1531952e-26
2.699746e-26
2.7882627e-26
2.7264438e-26
2.7664242e-26
3.2166919e-26
2.5117089e-26
3.2244814e-26
2.5695398e-26
2.2771806e-26
2.187608e-26
2.2679092e-26
2.3625495e-26
2.2824185e-26
2.2849361e-26
2.2008404e-26
2.1913136e-26
2.1073463e-26
2.2586076e-26
2.0544611e-26
2.4338949e-26
2.2561748e-26
2.0044223e-26
2.2462515e-26
2.020491e-26
2.2362307e-26
2.2129764e-26
2.1240739e-26
2.353972e-26
2.1592444e-26
1.9522805e-26
2.017888e-26
2.341813e-26
2.3117018e-26
2.3554615e-26
2.2356521e-26
2.4397039e-26
2.2531333e-26
2.0173728e-26
2.3406269e-26
2.0360497e-26
2.5211689e-26
2.4235065e-26
2.4997281e-26
2.5515693e-26
2.3892306e-26
2.9204813e-26
2.3804315e-26
3.0868367e-26
2.6401102e-26
2.6286808e-26
2.5679774e-26
2.609592e-26
3.0384454e-26
2.3816184e-26
3.097483e-26
2.3926825e-26
2.5289789e-26
2.6079547e-26
2.6008743e-26
2.6459428e-26
2.5706085e-26
2.658382e-26
2.580955e-26
2.6184631e-26
2.4506457e-26
2.4526314e-26
3.0262821e-26
3.1761832e-26
3.0658454e-26
3.0742251e-26
2.4439745e-26
2.4087727e-26
2.6857455e-26
2.7543441e-26
2.5385748e-26
2.9378205e-26
2.5106364e-26
2.0701861e-26
2.17732e-26
2.7293891e-26
2.8330523e-26
2.947751e-26
2.7037592e-26
3.1090379e-26
2.6476076e-26
2.1662778e-26
2.831149e-26
2.2365764e-26
3.3194808e-26
3.0312953e-26
3.1819413e-26
3.4665462e-26
3.5331266e-26
3.2164923e-26
3.3427563e-26
3.6547927e-26
3.0379966e-26
2.5049081e-26
2.6169522e-26
3.2281414e-26
3.2036996e-26
2.6339996e-26
2.7118676e-26
3.347446e-26
3.4053121e-26
3.0961416e-26
3.209502e-26
3.4968673e-26
3.3762915e-26
3.3656647e-26
3.0777413e-26
3.0824055e-26
3.1032816e-26
2.5574192e-26
2.6373934e-26
3.2496501e-26
3.0753584e-26
3.0502268e-26
2.512848e-26
2.5176158e-26
2.8073721e-26
2.5629514e-26
2.6653644e-26
2.9487823e-26
2.8107176e-26
2.8013212e-26
2.5742012e-26
2.5629738e-26
2.1254303e-26
2.1943252e-26
2.5655588e-26
2.6925112e-26
2.5395492e-26
2.5443399e-26
2.1026239e-26
2.0860507e-26
2.4207657e-26
2.4390797e-26
2.233731e-26
2.6547493e-26
2.198171e-26
1.8268096e-26
1.9539061e-26
2.4389988e-26
2.9755267e-26
2.7158725e-26
2.8384915e-26
2.578058e-26
2.5238313e-26
2.0624369e-26
2.6619062e-26
2.1439275e-26
3.6455453e-26
3.3104784e-26
3.4540401e-26
3.7736532e-26
3.7057368e-26
3.3682192e-26
3.4503423e-26
3.7686561e-26
2.8218758e-26
3.302346e-26
2.7201498e-26
3.5168199e-26
2.7700643e-26
3.3557656e-26
2.7496113e-26
3.4269491e-26
2.9310288e-26
2.9851304e-26
2.7157633e-26
3.2331164e-26
2.6886545e-26
2.206517e-26
2.3666036e-26
2.9593889e-26
3.2779121e-26
3.462931e-26
3.1156926e-26
3.6306793e-26
3.0872438e-26
2.5227865e-26
3.2563398e-26
2.6248882e-26
2.9864032e-26
2.7436524e-26
2.8449886e-26
3.1364426e-26
3.0712935e-26
2.8316932e-26
3.1570404e-26
2.8602482e-26
2.2559502e-26
2.3247125e-26
2.7398018e-26
2.867283e-26
2.8330568e-26
2.8021822e-26
2.2935147e-26
2.2990506e-26
3.6599331e-26
3.7956568e-26
3.3893522e-26
4.114752e-26
3.4128065e-26
2.7801495e-26
2.9725418e-26
3.7420916e-26
4.63429e-26
4.1150812e-26
4.4443476e-26
3.9147297e-26
3.9288147e-26
3.1707269e-26
4.1339387e-26
3.3111713e-26
6.164229e-26
5.2973641e-26
5.4503995e-26
6.2967602e-26
6.2091899e-26
6.0997913e-26
5.2414412e-26
5.3421792e-26
4.2228179e-26
5.2033117e-26
4.1249853e-26
5.3923926e-26
5.2504741e-26
4.1391387e-26
5.1515474e-26
4.0751645e-26
4.7817696e-26
5.1441866e-26
4.4035566e-26
5.6019827e-26
4.3203166e-26
3.420512e-26
3.6567455e-26
4.7286554e-26
5.3814293e-26
6.0353374e-26
5.103445e-26
6.292439e-26
5.0120064e-26
3.9415364e-26
5.2655845e-26
4.0768088e-26
4.5742943e-26
4.0885045e-26
4.2142562e-26
4.7570446e-26
4.6061727e-26
4.1223701e-26
4.7014991e-26
4.197492e-26
3.4070586e-26
3.5030434e-26
4.1851345e-26
4.3337626e-26
4.2644564e-26
4.1916486e-26
3.4094772e-26
3.4538039e-26
9.0422351e-26
9.1815455e-26
7.4137726e-26
7.5782114e-26
7.5384911e-26
5.6203179e-26
5.747549e-26
7.3673037e-26
8.6040332e-26
8.6676732e-26
7.3404411e-26
7.2778212e-26
7.2199343e-26
7.3285733e-26
5.4885578e-26
5.5553323e-26
6.7044969e-26
7.8674864e-26
6.3595646e-26
8.1878547e-26
6.2518847e-26
4.7448708e-26
5.0367879e-26
6.6400977e-26
7.5804676e-26
8.9103228e-26
7.3741704e-26
9.0667833e-26
7.2721561e-26
5.4540825e-26
7.6754555e-26
5.637995e-26
1.4032866e-25
1.3649181e-25
9.1560945e-26
9.2899213e-26
1.0667552e-25
1.0643705e-25
1.627001e-25
1.6074519e-25
7.4301882e-26
2.4773088e-26
3.0129675e-26
2.8793694e-26
2.6334674e-26
8.4951333e-26
1.5264908e-25
1.5031375e-25
1.0379507e-25
1.0369641e-25
1.0259185e-25
1.0214799e-25
1.5376672e-25
1.4970732e-25
2.7205116e-26
3.0259941e-26
3.1083732e-26
2.6853694e-26
7.9040717e-26
8.2918087e-26
2.6317298e-26
2.8010283e-26
2.9010769e-26
2.7322682e-26
2.7970738e-26
2.8722696e-26
2.6725733e-26
2.6832749e-26
1.4357607e-25
1.419368e-25
9.6844704e-26
9.7231257e-26
9.2329408e-26
9.167177e-26
1.3832316e-25
1.3445185e-25
2.4986875e-26
2.7998584e-26
2.8526783e-26
2.4508426e-26
7.2474027e-26
7.8267316e-26
1.3751833e-25
1.3540935e-25
9.1814701e-26
9.2936916e-26
9.9485248e-26
9.9413885e-26
1.4921653e-25
1.4756922e-25
2.3815486e-26
2.7068582e-26
2.8724937e-26
2.501153e-26
7.9032826e-26
7.3127065e-26
8.0014699e-26
8.2235204e-26
6.76265e-26
6.5481594e-26
6.6138834e-26
6.8952958e-26
5.0712336e-26
5.2817833e-26
7.1295311e-26
8.4468424e-26
6.9644726e-26
8.5657815e-26
5.3507497e-26
6.9991042e-26
7.2187133e-26
5.4747623e-26
2.4007191e-26