/*--------------------------------*- C++ -*----------------------------------*\
  =========                 |
  \\      /  F ield         | OpenFOAM: The Open Source CFD Toolbox
   \\    /   O peration     | Website:  https://openfoam.org
    \\  /    A nd           | Version:  7
     \\/     M anipulation  |
\*---------------------------------------------------------------------------*/
FoamFile
{
    version     2.0;
    format      ascii;
    class       volScalarField;
    location    "4000";
    object      omega;
}
// * * * * * * * * * * * * * * * * * * * * * * * * * * * * * * * * * * * * * //

dimensions      [0 0 -1 0 0 0 0];

internalField   nonuniform List<scalar> 
34377
(
2133.0929
4317.1175
3908.418
4021.9946
749.49769
2142.6713
771.78904
358.90409
808.10573
784.77371
1239.9996
8896.0422
1204.231
4383.1311
8932.8654
4010.7678
1775.6907
7442.0489
7591.1168
1792.4705
7707.6345
7612.4155
1858.3729
1834.9257
767.95254
3947.1593
752.78436
358.52837
692.81016
632.16852
651.18518
313.33806
318.60694
319.85375
341.5464
338.18954
714.18755
2034.7943
2035.7878
792.60394
803.97145
1974.1538
1978.2849
1967.1442
628.60922
639.93624
1998.3196
4483.8212
18021.993
4436.0424
17792.752
1208.0442
1928.1804
626.54598
627.10139
1927.1707
1202.9853
9050.4339
9035.4472
4370.2607
17958.248
4364.3916
17924.292
7411.278
7883.4704
1867.2641
1805.0402
12723.206
13446.735
4175.1234
4338.1469
4259.2619
13340.063
13282.984
4331.7463
13134.489
4323.3227
13842.924
4528.9977
13176.212
4299.7896
13148.84
4401.2593
1785.5525
7419.2607
7684.3007
1843.574
647.50816
638.76792
696.30081
706.93871
312.38806
318.02594
319.31946
340.66926
338.08011
1794.6502
1792.9104
1801.2409
1815.6605
1513.758
1361.8472
1344.9891
1500.8998
522.61967
1568.4079
1414.4626
1427.4394
1574.129
537.37069
445.79305
456.04411
294.78757
307.64936
308.34592
294.1461
1851.0612
1875.5418
1872.113
1852.5509
4903.104
4793.8382
4862.6529
5069.4025
2022.7466
1991.0389
2067.4434
1987.6666
4893.3904
4725.486
4847.64
4784.153
497.33527
503.00921
2131.896
651.17297
662.55947
2163.3989
3500.5409
6614.2453
6681.5932
3563.7112
12526.492
12520.516
32026.236
32365.929
3507.66
3472.8947
6601.5247
6568.335
12558.4
31552.056
31826.632
1965.5109
626.58273
632.04631
1960.4329
2091.1515
649.88787
650.879
2092.3122
628.95391
630.19612
1972.8805
1956.1938
4462.125
4414.7667
18043.863
18054.599
4431.3458
4419.1226
18104.519
17890.915
3445.8771
3423.3402
6492.3883
6496.3926
12392.592
12352.684
31714.546
32138.971
3452.1932
3397.018
6495.5818
6461.2638
12408.729
12379.696
32077.395
31827.859
12947.924
12869.586
4252.8452
4176.0355
13782.396
13868.189
4504.7783
4541.3773
20525.244
21740.714
7964.4815
7696.3827
22414.204
22302.194
8250.5936
8151.5242
21997.889
22572.393
8161.7456
8018.5859
22246.644
21675.897
8045.7541
8101.2965
7916.881
21146.181
22344.551
8214.1314
22990.151
22807.126
8546.3648
8432.6522
21688.348
22117.232
7938.0833
8098.1317
8002.4034
21747.29
21458.503
8132.2802
13374.665
4375.6659
4165.4225
12663.268
13322.268
13481.93
4453.6474
4317.3293
1526.238
1377.9392
1417.0254
1576.3804
533.45011
1532.6958
1390.1437
1379.2765
527.23112
1533.8304
1805.3444
1828.2983
1840.3713
1832.9356
1894.4348
1871.6006
1821.0164
1805.8457
451.75389
293.50332
306.96114
307.05421
293.26285
5137.4717
4975.2269
4454.4803
4609.3932
5059.4746
5000.1102
4495.3098
4564.7202
4536.2702
4635.4692
4686.8015
4598.8716
4530.453
4771.2918
4657.2504
4667.3913
4098.3117
4033.4914
3981.9827
4184.725
3411.6189
3382.9432
3099.1075
3094.5348
1121.5898
3068.4162
3022.6908
3316.502
1111.1882
3361.0397
3961.0869
3919.2779
4062.4257
4114.5796
961.875
976.91999
4215.6374
4211.5696
4097.8728
4358.9938
3268.4772
3210.6438
3581.5506
3495.3166
1166.2456
3163.3665
3429.3497
4129.9465
4016.0738
4257.7564
1012.7769
375.29429
674.59351
801.2783
790.05641
663.87394
680.93117
828.34414
4583.0995
4780.3442
5104.7089
5317.2312
4651.938
4841.0302
4780.9128
4953.6759
4818.4328
4684.6649
4561.9267
4692.4585
5135.9236
5007.6836
4509.2604
4628.9964
8956.2926
8852.7339
8756.4443
8939.9775
8742.8552
9105.7864
9342.2888
9439.111
4834.203
4973.5479
4711.2555
4894.544
5049.4087
5072.3427
4774.353
4692.7218
9045.5469
9127.4961
8525.5327
8857.0969
8920.106
8903.862
8863.5794
9017.4897
499.50619
496.87384
477.1631
2219.9051
4057.8254
4012.6439
4112.5859
4047.7308
7318.9397
12092.584
12260.318
17772.481
17979.674
12207.079
12200.049
17971.788
17809.653
29174.422
29297.765
47989.815
47290.631
48499.329
48124.853
29670.697
28905.205
7302.8678
7263.8562
12190.1
12321.938
17883.284
18042.469
29094.526
47454.585
28443.004
46900.998
28844.335
47590.252
2138.2472
651.53434
655.34134
2133.4478
2181.549
3958.1119
3993.7715
633.95571
636.10572
2180.8377
3932.7684
3988.3589
654.79639
655.92521
2149.2683
2133.3937
6637.5959
3510.5876
3535.0632
6626.3784
6555.3508
3461.5942
3509.3543
6556.3299
12560.179
12486.188
31858.244
32288.265
12440.152
12368.786
32196.312
32028.24
6559.0508
3472.0335
3525.9744
6611.9976
6573.3287
3466.1347
3498.8928
6547.745
12445.136
12449.886
32176.913
32280.957
12363.725
31882.79
12453.672
31516.769
7188.1419
7194.7573
11980.994
12128.038
17640.566
17778.505
12024.601
12028.197
17738.149
17562.649
46844.036
47711.335
28709.187
28884.038
48144.949
47856.09
29161.138
28575.022
7184.19
7154.3814
11973.813
12114.85
17658.408
17786.666
12007.621
12028.613
17725.924
17580.098
28883.295
47778.477
28812.227
48142.988
29146.144
28582.854
47977.705
47363.496
21496.642
21715.11
7914.253
7818.2727
21607.777
7848.0252
20961.634
7863.0628
22705.801
23089.813
8374.3158
8481.3911
8482.2392
23319.584
22674.235
8474.4055
36688.162
35412.741
11366.03
11524.745
38857.285
38475.573
11890.628
12050.656
40241.686
39599.202
12271.943
12379.789
39193.716
39915.691
12269.095
12288.262
39527.052
38730.329
12002.987
12128.92
40183.244
40385.112
12266.539
12340.154
12119.451
39581.5
39963.368
12208.253
37701.817
38882.8
11966.558
11951.504
38186.161
36667.863
11645.995
11868.834
39946.005
39752.505
12208.447
12344.342
40721.469
12611.883
41254.675
12750.599
12707.009
40986.507
39912.915
12651.714
39331.017
38812.484
11870.84
12012.403
12080.846
39440.113
40177.467
12316.766
39396.272
38700.042
11926.437
12090.043
38541.45
37969.059
11896.818
12199.734
22173.659
22091.648
8090.9636
8214.2213
20683.562
21431.54
7709.5946
7884.232
8054.3353
22025.532
22436.699
8168.0102
22354.426
22248.126
8156.5752
8338.1061
4002.8373
3901.7864
4129.7635
4020.394
3413.5291
3319.8679
3050.3562
3134.9538
1142.3513
3592.3495
3259.4189
3287.3653
3573.7607
1164.3952
4203.672
4228.421
4358.9619
4355.2104
1005.0336
988.68419
4100.8304
4224.9393
3484.3897
3182.774
3114.9335
3396.2235
1138.4419
3179.6277
3478.7095
988.17987
4097.373
4245.3321
4002.302
4128.957
4434.4787
5127.9784
4609.0335
5189.4763
5044.1889
4683.1437
4541.9009
4584.3835
4699.9801
4723.3549
4827.5298
4796.4686
4670.8533
4953.7306
4947.3085
4837.2588
4820.7598
5306.1372
5293.4059
4750.379
4779.1321
4455.7612
4572.4582
4683.3876
4566.5671
5005.1257
4899.1915
4409.5669
4506.0959
672.54238
818.48
811.53226
674.85262
10146.535
10250.741
9312.6844
9429.5063
9512.2285
8754.1651
9992.8555
9158.7842
9122.657
8156.372
9526.5365
8481.028
9702.2721
8645.6632
9801.2297
8752.6555
9912.3698
9931.5419
9118.4665
9169.4241
9866.6559
9078.1949
10078.715
9272.5027
9468.1852
8464.0813
9652.1938
8624.3843
9511.9422
9538.1756
8501.5758
8552.7404
10035.884
9365.2924
10265.049
9583.0246
9831.6966
10068.148
9412.0199
9642.1029
9892.7005
9885.1018
9460.706
9497.1647
10087.045
10095.675
9403.7968
9450.7757
9712.8112
9044.9116
10237.754
9513.747
10176.4
10249.149
9716.166
9824.3269
9559.3041
9134.1209
10100.812
9633.0325
10354.106
10447.272
9635.2209
9757.4884
9370.4961
8946.2657
9917.6011
9456.2806
9426.8449
9435.0726
9211.8654
9262.8301
8939.322
8715.7498
9454.4841
9218.6236
9942.0785
9982.3349
9497.7091
9581.4519
8487.5786
8568.9299
8474.041
8591.2591
8122.7602
8166.5701
8553.8347
8618.1136
7004.5809
7346.8805
5969.175
2674.2076
6224.1925
7283.6353
7293.8044
2657.5306
6194.8381
6179.1748
2540.3944
2497.2658
7061.6068
7023.3706
2651.7659
5980.6102
5996.3902
7002.7299
7172.918
2601.8583
6088.0821
5947.2044
8157.1524
8243.7264
8351.7052
8450.0338
2454.9683
2506.8075
8225.6599
8306.9381
8152.0762
8267.1652
9141.9459
8935.4131
9078.5851
8917.0479
9069.109
8872.2283
9292.2189
9099.9234
9575.9363
9172.4755
9813.5024
9405.4871
9645.8492
9227.4728
9608.6866
9241.7202
1986.4334
1934.3655
2114.0411
2166.8005
2194.9888
2012.2969
1960.5399
2151.4072
9529.5525
9114.2456
10191.011
9718.2258
9740.0703
9775.9369
9518.1398
9604.6593
9074.1851
8864.0892
9733.3781
9484.3429
10256.951
10336.213
9802.8536
9926.4969
7586.3728
7611.3964
2824.0774
6525.4827
6486.4518
7107.4026
7626.9499
2783.3614
6528.9688
6082.1589
8796.7117
8873.3596
8795.8207
8915.9452
8226.463
8289.3691
8836.9404
8888.9451
2644.9354
2663.0112
7072.5411
7355.3098
6301.4336
6043.8447
8200.4268
8260.058
8515.1318
8573.0397
9051.4226
9520.6695
9098.1929
9853.4664
9414.5371
9061.4072
8842.8529
9391.9837
9164.0017
9736.277
9292.9297
9949.0008
9516.3286
2292.1841
2100.2248
2097.6412
2302.2307
574.13191
576.58395
454.30033
453.64458
373.73857
1046.6012
1235.9974
1198.0177
1014.598
1438.6721
1486.974
1705.1261
1660.361
1637.9929
1420.0357
1456.6219
1684.4962
1178.7399
998.2659
1207.5893
1018.0527
1264.0741
1053.8077
1261.2873
1775.5255
1530.4419
1528.936
1776.6971
9333.08
8364.2075
9782.3676
8726.0814
10012.705
10130.641
8934.5243
9063.4613
9720.8092
8958.4388
10258.506
9411.5244
10463.277
9612.73
10591.888
9754.095
9911.3223
10507.926
9245.5015
9773.624
10675.215
10798.36
9941.3452
10092.974
9740.3402
9321.5211
10372.697
9894.9948
10492.817
10603.002
10024.728
10166.706
9932.3362
10142.66
9478.4163
9688.805
9733.4008
10054.275
9297.3476
9602.083
9895.2396
10201.032
9222.4627
9505.919
10076.248
10266.309
9378.7756
9566.7127
9864.2231
9074.2624
10032.004
9236.1549
9707.153
8934.716
9985.0752
9183.2508
9317.7452
8359.0581
9552.0727
8558.5699
9450.4473
8468.6287
9591.9314
8605.3876
12645.741
12722.67
12685.1
12838.218
12572.448
12762.739
12866.057
12971.393
12333.921
12601.144
12982.091
13096.504
13383.98
13558.242
13519.832
13390.268
8902.3599
8997.8052
9008.2389
9181.5783
8544.8148
8736.6014
8942.5401
9059.559
9245.9431
9352.6364
9373.0796
9324.3684
8699.7968
8666.8909
8641.2595
8737.9196
12991.473
13129.913
13022.103
12984.642
11991.333
12206.703
12612.218
12738.074
12695.611
12614.553
12956.619
12851.152
12697.993
12881.263
13058.338
13021.655
479.5113
477.80818
452.75995
657.50751
660.12493
4031.5508
3982.262
2211.7473
4683.2204
4724.3689
4021.5991
6192.7017
6123.7745
10241.312
10379.704
15410.155
15645.422
15270.646
15562.54
22522.509
18308.861
22781.331
18487.685
18607.419
18708.623
22898.959
22905.862
15498.501
15382.234
22869.818
18602.503
22988.423
18707.768
18395.701
18477.519
22666.521
22641.86
44647.855
26636.285
26874.754
45064.234
26948.154
27014.694
45014.198
44808.051
67542.485
55974.062
56039.161
67715.024
54018.998
67539.191
67529.027
55178.57
67896.506
67846.939
56152.885
56383.04
55980.07
68067.959
68399.996
55954.623
27053.225
26986.52
44695.509
44672.75
26703.756
26789.283
45520.494
44692.916
6179.7818
6125.9534
10303.34
10227.256
6140.3987
6084.3523
10175.011
10299.623
18625.804
18474.412
22700.741
22937.543
22989.051
18699.456
18779.993
22977.365
45280.189
27010.761
27087.505
46245.271
55675.336
67219.943
68286.502
56187.918
27017.24
26823.065
44666.429
45783.348
56161.623
67184.214
67976.719
56287.369
46543.634
27121.935
27018.068
45694.102
67983.941
68714.52
55920.352
57091.942
2230.9874
4081.6726
4006.8924
637.66564
641.95751
2227.231
4014.4261
4037.0668
3968.8589
3926.5672
2179.2112
4629.8454
4661.5351
3964.4377
3905.9078
2174.6088
4592.5324
4652.8909
640.60949
641.05768
2245.6387
4089.4108
4052.66
2231.9474
4050.8272
4005.8814
7347.1604
7338.5686
7262.7988
7256.4897
17853.461
18035.246
12352.809
12160.331
12182.048
12207.609
17941.567
17752.689
28722.084
46978.538
28865.074
47653.217
29174.599
28581.853
48197.267
47994.992
17746.699
12232.846
12054.725
17905.32
12039.639
12096.443
17771.477
17637.708
28750.968
28805.785
47925.133
48409.973
28915.144
48271.153
28305.918
47997.743
7256.6873
7322.7769
7282.6713
7243.6515
12066.932
12243.66
17771.85
17941.42
12152.02
12197.238
17894.119
17755.679
28606.814
28864.79
48148.495
48707.482
28571.941
29000.202
48650.94
48301.856
12040.212
12088.5
17603.721
17755.943
28775.738
28868.369
47575.181
47955.598
12249.383
12085.578
17769.524
17900.508
28866.589
28215.238
47586.011
46860.944
6068.9745
6037.4986
10173.866
10120.241
15154.022
15399.496
6095.4872
6038.1494
10087.983
10162.354
15277.63
15172.151
18368.625
18183.785
22382.309
22622.976
22663.783
18407.224
18523.637
22671.105
22609.358
18364.431
22713.792
18478.17
18127.697
18242.602
22352.534
22355.139
53252.234
65894.18
66518.938
53879.868
55001.399
66856.398
67005.747
55372.95
26670.69
26442.693
43863.19
43263.872
26677.778
26737.207
44136.968
43955.88
55517.756
66854.578
66853.08
55564.506
55435.394
66654.472
66882.484
55367.587
26738.861
26679.561
43902.368
43855.542
26364.907
26424.318
43807.898
43613.291
6085.9163
6019.7185
10138.814
10074.779
15260.529
15166.408
6035.83
5975.3814
10156.852
10055.126
15168.471
15394.959
18387.528
18212.914
22429.32
22665.7
22690.515
18414.684
18515.433
22679.991
22603.291
18346.92
22712.058
18456.659
18124.716
18240.479
22366.445
22381.222
26731.676
26510.149
44086.548
44385.446
55335.052
66825.785
67056.735
55537.731
26708.727
26796.601
44616.941
44566.291
67359.438
67418.381
56108.404
56151.85
26768.587
26711.36
44402.366
44420.106
26426.876
26476.098
44046.061
44684.43
67413.874
67516.623
55671.986
55666.259
67579.414
67357.474
55209.437
54713.535
38164.116
37775.465
11811.964
11877.377
38101.807
38527.541
11875.794
11946.459
38474.443
38203.067
11859.834
11903.113
36108.342
37278.446
11601.039
11601.021
39516.973
40439.065
12526.343
12662.988
40434.034
40764.761
12702.417
12781.812
41306.044
41047.638
12870.97
12914.836
39001.721
40432.049
12659.534
12531.046
38424.035
37109.61
40422.405
40316.046
42039.142
41399.808
40724.346
41754.594
41174.902
40315.07
41638.085
41995.768
41263.369
41606.408
39040.005
40533.489
39676.779
38465.753
41583.428
41415.779
42502.568
43144.19
42884.509
41283.033
40288.453
39423.277
41096.343
40438.101
40419.952
39931.307
38195.636
39670.621
39712.484
38878.09
12099.276
12225.517
38588.295
39201.739
12181.134
12140.025
36796.334
36123.443
11423.99
11517.771
11701.74
37877.545
37816.985
11811.996
39236.265
38667.578
12148.836
12064.189
39491.669
39854.945
12224.936
12290.41
39877.571
39365.001
12242.637
12330.196
38765.65
39320.135
12254.586
12351.316
9175.7555
9056.0198
8938.0049
8866.5561
8950.5063
8728.6126
9062.9007
8864.8882
9629.621
9179.1917
9527.3282
9130.284
9412.1149
8986.8081
9548.2392
9139.1096
8311.11
8359.1354
8186.5367
8273.4703
8100.1363
8151.278
8181.4638
8258.6505
6974.7819
7048.1955
5957.3841
6004.5742
2639.4018
7154.9758
7071.5947
6035.7576
6104.7923
2719.8849
2503.0529
2579.8228
8902.8463
8932.3636
8925.1195
8991.1334
7673.4553
7520.6832
6429.7238
6567.4666
2812.8603
7693.7845
7701.5356
2830.5984
6555.4236
6595.8907
8902.5879
8955.0193
8696.5547
8812.1004
2645.3763
2668.9904
9828.5668
9580.1228
9655.9587
9479.7017
9779.4705
9517.3245
9839.377
9606.7129
10232.496
9762.2545
10318.85
9869.8849
10321.442
9852.7565
10191.444
9791.4126
2092.1899
2072.6414
2281.8104
2297.7319
2051.6156
1986.6476
2162.2701
2234.8595
9456.4828
9546.0649
9197.9481
9336.6091
9900.449
10032.623
9424.2767
9595.041
8585.1607
8622.9622
8621.2905
8714.2897
7422.8008
6297.936
7224.4291
7248.4087
2688.9689
6162.8227
6164.6248
8397.8925
8450.422
8419.6335
8500.6881
2594.0403
2550.8633
2744.7853
7217.1299
7404.1171
6313.0788
6143.5809
8387.0272
8462.086
8576.6326
8678.6945
2053.1252
2200.5439
2239.2712
9301.678
9090.5928
9514.9359
9326.1435
9803.4707
9376.8811
10031.309
9626.2016
9278.856
9044.9278
9326.1275
9120.1038
9744.8716
9304.3339
9813.7702
9396.3269
9121.7763
8163.8692
9346.5821
8361.7923
9983.2863
10143.395
9173.8635
9336.2347
8978.5169
9557.1183
8546.9674
9698.6672
8688.9343
10020.239
10251.258
9224.4756
9448.7245
9909.7033
9114.6414
10004.593
9220.5867
9610.678
9818.9357
8608.1637
8804.4982
8506.0747
9498.6767
9592.0476
8605.0063
10112.284
9417.5139
10202.623
9525.5242
9953.8231
10035.395
9500.4445
9603.0581
10216.418
10455.109
9520.9816
9769.0748
10037.807
10275.51
9594.9847
9847.8972
10073.821
10231.355
9593.9613
9776.8328
10207.073
10371.237
9487.9452
9671.117
10429.289
9953.0596
10526.773
10068.016
10540.481
10054.975
10443.563
10015.669
10700.644
9955.9321
10621.926
9934.8504
10580.96
9844.9605
10682.072
9962.6552
10472.487
9613.7269
10412.96
9600.2136
10343.905
9498.9413
10449.752
9616.3721
9883.9687
8836.1471
9990.0622
8947.4883
10011.252
8945.6559
9964.0956
8940.8615
9779.9959
9101.1281
9931.8823
9260.257
9622.3918
9181.2481
9769.486
9342.2055
9818.4938
9354.8094
9736.473
9320.156
9952.3382
9248.1123
9881.8105
9224.7882
9729.5107
9675.6102
8930.6212
8919.6812
9732.2606
9585.9227
8813.7453
8956.7508
9198.5766
9323.7023
8351.7403
8237.7902
9304.263
8311.7094
9268.6464
8313.4188
581.2168
1251.393
1033.7882
1241.6904
1496.6816
1519.6534
1764.7412
1749.7111
1684.2667
1462.285
1510.3231
1742.1668
1210.902
1017.2358
1253.4121
1046.5628
14578.754
13789.152
13914.441
14708.212
14666.235
14609.655
13828.037
13909.304
13232.825
14066.613
13127.424
14175.056
14164.321
13254.293
14102.732
13166.3
12910.828
13342.646
12688.618
13601.818
12980.585
12170.041
12346.927
13186.69
13647.215
14128.837
13381.153
14415.367
13646.442
12745.119
13904.52
12986.606
11899.547
12421.092
11758.59
12582.904
11287.66
11997.659
12132.365
11439.017
13203.221
12461.697
12971.585
12257.664
11775.455
12488.919
12680.729
11938.747
13367.528
12621.825
12708.786
13456.138
12123.189
12237.844
12950.558
12867.134
13399.85
12656.738
13467.172
12732.468
12947.206
12201.139
12898.804
12162.519
14263.688
13507.621
13612.857
14360.641
14091.669
14066.894
13356.77
13414.538
12988.737
13805.413
12899.027
13889.602
13686.669
12845.257
13652.492
12778.843
13520.595
14130.047
13389.111
14271.499
13677.104
12788.229
12895.211
13789.157
13830.467
14431.052
13655.796
14596.787
13931.469
13009.524
14092.938
13179.161
12413.586
13038.835
12327.539
13127.022
11987.985
12580.6
11856.507
12663.498
13399.125
12662.52
13245.15
12517.557
12776.111
12094.571
12896.33
12189.285
13156.764
12430.753
12502.918
13224.182
13027.073
12322.867
13068.94
12379.181
11971.659
12066.512
12693.338
12753.224
12600.127
12572.429
11865.922
11881.784
14552.743
15024.996
14364.998
15211.763
14775.397
13832.122
14000.426
14963.522
14908.443
15362.539
14696.747
15589.013
15134.993
14141.046
15310.676
14329.174
15126.294
14575.362
14784.529
15329.253
15473.624
14899.994
15180.848
15746.986
15179.724
14472.275
14670.423
15376.3
15519.061
14790.56
15048.445
15773.516
15326.786
14733.713
14857.343
15418.183
15096.138
15003.263
14462.97
14580.879
15342.697
14603.787
14732.075
15447.05
15131.417
15058.087
14365.711
14466.61
15159.307
14473.743
14608.97
15268.906
14953.768
14899.497
14249.696
14319.911
13947.037
14067.402
14889.78
15015.504
14666.713
14645.352
13747.238
13803.428
13844.105
14150.847
13522.496
14494.518
13870.831
13047.938
13326.309
14201.941
15447.975
14750.94
15108.972
14424.739
14808.233
13853.686
15125.767
14152.851
15754.369
15145.505
15276.958
15868.241
15702.159
15132.665
15270.828
15823.374
15138.905
15759.576
14994.444
15876.75
15131.973
15758.208
15016.636
15850.237
14145.716
14347.873
13815.717
14693.011
14350.81
13671.57
14001.972
14690.472
15103.241
15351.633
14757.194
15700.58
15337.656
14585.705
15676.208
14926.516
15552.738
14847.143
15017.708
15693.978
15577.821
14889.874
15652.873
14984.902
14278.047
14432.247
15263.602
15438.798
15369.524
15313.035
14315.526
14402.983
14397.034
14668.039
14052.821
15030.771
14565.055
13835.562
14172.943
14916.321
16083.436
15401.32
15746.211
15056.805
15614.315
14798.781
15957.36
15148.853
16953.881
15943.388
16093.141
17082.213
16848.533
16673.71
15724.651
15926.607
15656.55
16473.849
15522.335
16599.302
16428.702
15553.244
16265.497
15364.166
15009.48
15586.612
14641.295
15970.376
15080.728
14209.293
14566.345
15456.402
16060.502
16773.914
15729.867
17082.525
16218.607
15244.689
16540.248
15584.651
16061.672
15381.229
15510.202
16174.314
15913.061
15271.489
16065.713
15441.793
15164.076
15293.139
15976.738
16088.654
16008.37
15875.447
15099.171
15258.197
19294.295
19370.779
17547.226
17674.878
18079.316
16502.048
16645.312
17967.249
18849.474
18956.067
17368.998
17177.859
17603.382
17763.908
16210.93
16421.279
16667.766
18038.406
16323.663
18339.095
16636.394
15233.413
15604.597
17006.746
17781.454
19361.653
17516.744
19541.52
17894.196
16364.628
18152.71
16676.474
19760.265
19876.45
17813.602
18075.368
19063.3
19245.76
21117.129
21139.005
19152.485
5321.8835
5490.1368
5320.4395
5519.8025
20341.665
20865.193
20860.031
18958.214
19047.038
18509.635
18643.553
20329.59
20322.982
5479.2105
5438.5363
5416.8563
5489.0192
19501.358
20031.869
4877.7468
4879.4773
4966.2996
4998.2748
4846.709
4907.1662
4950.4818
4925.9544
20392.474
20379.056
18480.869
18557.863
17742.487
17905.95
19550.346
19568.285
5342.3793
5320.5253
5284.9797
5331.4416
18776.79
19586.676
19880.691
19930.482
18033.619
18194.64
18548.322
18742.2
20479.384
20514.622
5273.4312
5237.3882
5356.348
5400.8397
19688.738
19123.304
18348.363
18516.968
16900.533
16682.688
17080.415
17302.652
15702.032
15943.7
17404.079
18872.076
17133.787
19059.165
16112.959
17550.814
17811.945
16420.752
4774.7175
4742.473
4825.2507
4872.71
4784.4446
4839.1696
4864.0393
4834.0198
17177.993
18811.525
17074.204
18863.572
16053.962
17496.982
17576.438
16165.607
16639.028
18057.516
16420.889
18199.065
15484.867
16828.185
17016.376
15715.307
15613.84
16502.264
15501.975
16589.915
16024.658
15086.175
15193.666
16111.334
16118.601
15222.65
15923.77
15005.424
15521.218
14661.217
15696.229
14854.926
15430.366
16131.879
15191.137
16369.121
15698.46
15927.391
14815.266
15043.258
15890.775
16560.004
15575.143
16854.857
15177.678
16100.412
16397.855
15489.643
14929.407
15336.247
14709.832
15554.088
14546.416
15288.801
15498.936
14758.151
16009.242
15361.015
15712.733
15058.156
14881.384
15653.284
15937.34
15171.783
15047.761
15616.827
14941.238
15700.454
14740.567
15529.037
15613.428
14847.214
15339.517
14738.927
15186.508
14572.989
14426.675
15150.103
15271.84
14563.778
3742.323
3807.9676
3923.8636
3869.6136
3732.008
3703.9567
3810.4855
3857.4057
4306.407
4234.7688
4299.1891
4376.7427
4411.6559
4352.0544
4285.506
4362.6467
4457.954
4426.2429
4433.6433
4505.9403
3993.0956
3862.2639
3828.0508
3975.3171
3694.7993
3804.1308
3933.3748
3849.4821
4454.1455
4375.8747
4284.0654
4392.3059
14685.526
14950.063
14333.731
15319.981
14869.991
14137.571
14482.355
15226.644
16536.454
15840.435
16154.597
15454.14
16023.353
15193.415
16408.627
15580.584
17411.641
16374.904
16597.021
17606.351
17325.452
17272.345
16308.76
16394.464
16152.544
16908.002
15934.507
17114.673
16893.309
16005.479
16878.213
15954.76
15252.232
15814.689
14872.854
16212.62
15335.979
14467.205
14832.675
15720.864
16515.883
17203.007
16138.533
17560.775
16633.133
15642.041
17002.754
16025.404
16480.953
15786.462
16008.989
16686.332
16532.587
15868.581
16514.532
15877.907
15563.769
15795.917
16390.944
16606.569
16436.263
16498.226
15690.597
15673.071
21506.829
21507.996
19508.671
19621.349
19030.959
19131.855
20870.999
20836.262
5787.5746
5763.4531
5776.6441
5827.9352
20032.857
20706.332
19893.937
20017.501
17935.698
18200.871
19581.293
19798.944
21745.679
21791.067
5436.933
5429.5052
5820.3301
5821.7459
21033.634
19279.053
19836.592
19935.177
18030.096
18196.152
18612.721
16956.029
17158.907
18454.899
19391.466
19435.76
17832.525
17705.317
18168.477
18233.708
16773.032
16891.955
16830.233
18190.028
16480.09
18493.209
16824.591
15435.927
15820.535
17205.333
18271.478
19863.675
17966.923
20079.919
18346.421
16790.911
18651.786
17148.915
4988.5858
4994.0588
5328.9382
5323.9421
5230.472
5245.0952
5273.2852
5289.3256
20036.336
20120.449
18059.372
18280.075
18845.992
19039.045
20919.144
20947.551
20218.032
19393.865
18330.552
18567.973
16897.409
16598.472
16966.643
17279.546
15555.805
15891.041
17572.934
19129.007
17306.345
19310.281
16195.26
17689.604
17940.869
16496.58
15953.64
14995.673
15246.399
16215.383
14738.084
15063.91
14423.139
15387.467
14216.667
14966.48
15274.903
14517.851
15914.38
15243.831
15644.525
14962.685
14733.133
15524.039
15782.141
15000.41
15333.642
15959.045
14994.257
16298.108
15471.956
15808.644
14572.814
14901.63
15892.203
16612.814
15591.756
16894.401
15135.739
16087.946
16363.58
15428.146
15041.544
15485.307
14796.824
15724.233
14555.404
15344.204
15585.565
14799.85
15738.908
15079.383
15655.444
14977.73
14732.983
15522.426
15578.735
14812.403
4578.5551
4552.6046
4825.7645
4861.7318
4125.7933
4022.8097
4217.7686
4345.3461
4093.2383
4132.2225
4256.4283
4233.6927
4784.5669
4714.569
4678.8334
4772.7333
887.93816
901.96184
671.59851
662.93531
920.51446
905.65755
676.34767
682.0015
535.09898
529.28159
367.86929
1727.3525
1437.2252
1418.82
1676.8066
2018.0857
2099.0004
2358.815
2287.2305
2234.5674
1965.3485
1924.6124
2191.1876
1608.6116
1329.325
1345.6462
1594.8988
2528.5769
2604.3417
2820.6331
2742.0479
2639.587
2714.7951
2917.2551
2856.4327
3241.5638
3298.6544
3458.8482
3415.3408
3390.9153
3214.405
3116.3638
3297.9564
3312.8791
3160.8425
3156.7043
3326.5998
2765.9635
2544.4942
2525.2982
2759.8787
2593.3055
2611.8332
2836.6818
2806.3438
3404.713
3235.4277
3188.4332
3352.7893
2185.007
1917.6705
1896.6125
2174.3878
1574.3459
1301.4868
1313.9003
1565.7617
2242.7643
1969.2795
1975.8956
2246.9459
1612.3176
1333.1386
1369.5683
1633.2741
2428.3931
2135.2455
2183.7182
2504.1698
1753.5293
1440.3381
1770.295
2445.408
2132.8165
2141.4806
2457.2568
3614.603
3455.8243
3588.6409
3771.4708
3048.4714
2817.6307
2907.0476
3158.2919
2854.3369
2849.1988
3092.2012
3090.9338
3701.5502
3516.5918
3501.8359
3681.8644
12693.276
12871.205
12023.634
12180.903
11571.328
12425.555
11757.874
12270.939
13275.731
12555.649
12780.052
13534.036
12259.253
12795.373
12100.189
12997.738
13716.649
12966.734
13115.455
13879.395
13819.867
13896.174
13122.53
13090.677
12648.316
13220.691
12483.398
13364.254
13302.095
12572.408
13373.275
12623.367
13670.592
13932.672
12985.186
13217.624
13489.116
12634.824
13268.265
12440.723
14489.645
13717.085
14014.2
14805.759
13324.798
13972.043
13052.839
14263.346
14957.685
14152.432
15166.412
14351.114
14615.734
14426.024
13473.938
13651.328
15014.206
14263.136
15152.288
14336.306
13649.728
14619.186
14513.263
13606.7
14518.921
13873.863
14201.307
14866.474
15889.244
15509.239
14814.253
15175.801
13665.317
14238.705
13381.179
14576.94
15557.577
14549.507
15210.007
14221.834
15966.886
15249.099
15496.666
16214.056
16169.51
15452.791
16036.289
15356.176
14887.921
15671.733
14658.066
15921.161
15724.962
15892.66
14847.325
14754.6
14486.207
14672.275
14138.501
15026
14699.427
14015.704
14359.501
15057.498
15529.747
15752.987
15147.229
16139.448
15737.363
14974.237
16117.083
15356.496
16155.562
15539.689
15788.035
16385.792
16307.839
15706.372
15664.737
16224.112
15648.423
16165.322
15393.964
16409.532
15520.816
16350.558
15579.266
16237.871
15092.17
14501.487
14757.034
15338.555
15303.498
15262.934
14672.912
14736.602
15065.545
14332.197
14585.924
15318.626
15243.697
15225.489
14482.724
14530.649
14754.469
14201.254
14503.77
15057.371
15286.434
14704.836
14957.797
15533.765
14767.542
14061.798
14361.695
15069.479
15290.143
14553.964
14791.435
15515.339
14569.715
13916.039
14210.167
14868.928
15079.851
14404.068
14609.688
15289.117
13681.407
14288.85
13426.324
14586.21
14047.967
14798.103
13863.389
14970.517
14833.239
14154.527
14399.777
15083.077
14971.87
14967.257
14278.632
14309.294
13869.256
14531.137
13654.621
14768.116
14623.295
14633.095
13757.804
13795.705
13965.129
13263.059
14166.36
13447.442
13728.458
12847.8
13559.704
12697.882
14091.728
14069.161
13373.422
13429.991
13701.635
12859.015
13661.745
12789.873
13733.541
13965.58
13049.378
13255.388
13534.861
12673.74
13350.221
12510.251
14155.942
13423.255
13599.379
14322.124
12983.104
13700.836
12812.244
13861.613
12773.221
12913.671
12098.038
12223.885
12472.504
11837.128
12361.018
11684.817
13049.503
12348.256
12492.825
13200.709
12056.117
12596.138
11944.645
12717.302
12950.145
12255.45
13082.077
12374.986
12613.587
11946.784
12507.67
11814.7
13029.697
13079.268
12330.774
12394.389
12606.811
11921.593
12564.005
11856.217
12728.132
12837.48
12888.983
12933.774
12888.136
13028.629
12946.053
13004.893
12193.453
12072.056
12483.335
12374.027
12772.53
12923.32
12847.641
12836.031
13331.635
13141.673
13362.188
13416.479
13593.289
13498.664
13351.227
13163.974
12486.021
12585.026
12245.643
12177.204
12400.563
12530.919
12525.746
12567.964
454.42982
662.32953
665.4624
666.16246
664.42855
416.07479
660.7775
635.46581
641.8661
667.89257
7029.2039
7083.3788
6983.9963
7061.7408
5143.3251
5171.1609
4600.3011
4553.9039
6961.0654
8076.3265
7995.2175
7035.1597
8025.6017
8074.5713
7058.1767
6999.6091
7017.5301
11165.98
16456.158
16647.956
20764.699
21080.11
21050.232
21126.081
16316.265
20937.439
20574.366
16543.71
20947.497
21064.155
24581.723
24917.947
25009.377
24971.464
16563.176
21172.124
20923.689
16347.979
20713.711
20781.12
24959.397
25135.56
24761.425
24672.948
65322.296
28891.576
29188.166
65812.16
29208.968
29341.454
65636.997
65687.438
100116.55
59518.205
59653.474
100661.15
58353.303
100298.44
100840.63
58997.719
100003.62
100413.31
59863.322
59665.682
59656.133
100378.24
101915.48
59722.877
29381.11
29273.383
64742.136
65129.686
28946.282
29094.152
67367.59
65198.969
11234.607
11146.233
11103.113
11230.569
24775.83
25080.421
25096.75
25038.374
67779.328
29346.282
29487.178
69747.165
59636.434
100573.48
102313.07
60002.22
29386.539
29126.273
67923.182
68095.769
59274.868
99964.874
101816.03
59849.452
68037.735
29465.017
29349.068
70741.12
102064.91
101539.71
60044.629
60257.034
4059.1475
3979.1022