/*--------------------------------*- C++ -*----------------------------------*\
  =========                 |
  \\      /  F ield         | OpenFOAM: The Open Source CFD Toolbox
   \\    /   O peration     | Website:  https://openfoam.org
    \\  /    A nd           | Version:  7
     \\/     M anipulation  |
\*---------------------------------------------------------------------------*/
FoamFile
{
    version     2.0;
    format      ascii;
    class       volScalarField;
    location    "4000";
    object      p;
}
// * * * * * * * * * * * * * * * * * * * * * * * * * * * * * * * * * * * * * //

dimensions      [0 2 -2 0 0 0 0];

internalField   nonuniform List<scalar> 
34377
(
-2.7880991e+51
-2.7977271e+51
-2.7102545e+51
-2.7149295e+51
-2.6715441e+51
-2.7807159e+51
-2.6751436e+51
-2.4159319e+51
-2.5783822e+51
-2.5754001e+51
-2.7230891e+51
-2.7281676e+51
-2.7187371e+51
-2.7921319e+51
-2.7235544e+51
-2.7056202e+51
-2.6363066e+51
-2.6664611e+51
-2.6690614e+51
-2.6389237e+51
-2.6713222e+51
-2.6739493e+51
-2.6428567e+51
-2.6408392e+51
-2.6669988e+51
-2.7031776e+51
-2.6644272e+51
-2.410953e+51
-2.4829459e+51
-2.3892264e+51
-2.3923664e+51
-2.2430391e+51
-2.3691024e+51
-2.3654184e+51
-2.4490155e+51
-2.4514735e+51
-2.4857787e+51
-2.5845473e+51
-2.582372e+51
-2.5695045e+51
-2.5717314e+51
-2.5784701e+51
-2.5804824e+51
-2.6749678e+51
-2.6594594e+51
-2.661595e+51
-2.6772555e+51
-2.6875465e+51
-2.6840042e+51
-2.6850447e+51
-2.6865891e+51
-2.7152022e+51
-2.6704738e+51
-2.6551707e+51
-2.6573577e+51
-2.6728851e+51
-2.7122259e+51
-2.7169368e+51
-2.7196664e+51
-2.6804129e+51
-2.6792361e+51
-2.6829535e+51
-2.6818215e+51
-2.6640803e+51
-2.6630818e+51
-2.6330197e+51
-2.6339573e+51
-2.6417701e+51
-2.6431497e+51
-2.6200347e+51
-2.6213907e+51
-2.6225059e+51
-2.6443791e+51
-2.6454376e+51
-2.6235778e+51
-2.6466718e+51
-2.6247193e+51
-2.6480598e+51
-2.6260856e+51
-2.64945e+51
-2.6272659e+51
-2.6509887e+51
-2.628527e+51
-2.6311742e+51
-2.6616743e+51
-2.6622979e+51
-2.6321298e+51
-2.3865734e+51
-2.3840937e+51
-2.4773727e+51
-2.4798139e+51
-2.2383037e+51
-2.3623609e+51
-2.3633591e+51
-2.4458111e+51
-2.4476396e+51
-2.5255057e+51
-2.5272141e+51
-2.4738706e+51
-2.4724483e+51
-2.4292812e+51
-2.3863333e+51
-2.3873291e+51
-2.4304572e+51
-2.3020566e+51
-2.4324087e+51
-2.3895018e+51
-2.3918762e+51
-2.4345453e+51
-2.3052049e+51
-2.2073632e+51
-2.2099625e+51
-2.20389e+51
-2.2887213e+51
-2.2854625e+51
-2.2062663e+51
-2.5289066e+51
-2.4754753e+51
-2.4778482e+51
-2.5311839e+51
-2.592705e+51
-2.591332e+51
-2.5890427e+51
-2.5901671e+51
-2.5748238e+51
-2.5743986e+51
-2.5754787e+51
-2.5764646e+51
-2.5853127e+51
-2.5843323e+51
-2.5877642e+51
-2.5863874e+51
-2.6127809e+51
-2.61672e+51
-2.6274402e+51
-2.6116489e+51
-2.6140074e+51
-2.6299244e+51
-2.6537884e+51
-2.6618727e+51
-2.6632318e+51
-2.6550706e+51
-2.6622228e+51
-2.6636621e+51
-2.6576461e+51
-2.6590604e+51
-2.652614e+51
-2.6511354e+51
-2.6606552e+51
-2.659191e+51
-2.6648924e+51
-2.6619569e+51
-2.6603627e+51
-2.6670316e+51
-2.6517815e+51
-2.6532047e+51
-2.6684145e+51
-2.622975e+51
-2.6074768e+51
-2.6092792e+51
-2.6249451e+51
-2.6504001e+51
-2.6492885e+51
-2.665191e+51
-2.6660665e+51
-2.6752526e+51
-2.6758336e+51
-2.6741441e+51
-2.6746668e+51
-2.6766785e+51
-2.6781784e+51
-2.6754891e+51
-2.6769333e+51
-2.6478639e+51
-2.6464878e+51
-2.6544116e+51
-2.6557623e+51
-2.6573349e+51
-2.6587106e+51
-2.6527343e+51
-2.6541283e+51
-2.6499505e+51
-2.6489282e+51
-2.657973e+51
-2.6568803e+51
-2.6598421e+51
-2.6609902e+51
-2.6553022e+51
-2.6564151e+51
-2.6401278e+51
-2.6405289e+51
-2.618874e+51
-2.6184871e+51
-2.6398764e+51
-2.6399856e+51
-2.6181175e+51
-2.6183299e+51
-2.6265366e+51
-2.6272122e+51
-2.6125021e+51
-2.6118902e+51
-2.627758e+51
-2.6283069e+51
-2.6135849e+51
-2.6130485e+51
-2.6289771e+51
-2.6296635e+51
-2.6148952e+51
-2.614208e+51
-2.6301943e+51
-2.6307742e+51
-2.6154935e+51
-2.6161172e+51
-2.6168145e+51
-2.6315492e+51
-2.6322994e+51
-2.6175112e+51
-2.6328786e+51
-2.6336878e+51
-2.618741e+51
-2.6180726e+51
-2.6346218e+51
-2.6353673e+51
-2.6194465e+51
-2.6201939e+51
-2.620829e+51
-2.6359685e+51
-2.6370439e+51
-2.6216393e+51
-2.6393001e+51
-2.6173736e+51
-2.617021e+51
-2.6390148e+51
-2.6395483e+51
-2.6396555e+51
-2.6178138e+51
-2.617672e+51
-2.4279521e+51
-2.3849938e+51
-2.3840783e+51
-2.4268957e+51
-2.2996004e+51
-2.4256422e+51
-2.3828732e+51
-2.3829167e+51
-2.2972325e+51
-2.4258916e+51
-2.5216436e+51
-2.5220842e+51
-2.4688772e+51
-2.4685117e+51
-2.4697126e+51
-2.5227546e+51
-2.4707392e+51
-2.5237085e+51
-2.2046499e+51
-2.1993116e+51
-2.2812255e+51
-2.2832367e+51
-2.2013185e+51
-2.520235e+51
-2.5193192e+51
-2.5517568e+51
-2.5526476e+51
-2.522472e+51
-2.5213523e+51
-2.5537317e+51
-2.5550294e+51
-2.494886e+51
-2.4695668e+51
-2.4706043e+51
-2.495828e+51
-2.492911e+51
-2.4686148e+51
-2.4679402e+51
-2.493805e+51
-2.4463332e+51
-2.4251256e+51
-2.424769e+51
-2.4467929e+51
-2.4058604e+51
-2.4055425e+51
-2.386126e+51
-2.3863472e+51
-2.3455213e+51
-2.3875813e+51
-2.3866789e+51
-2.4062507e+51
-2.3466409e+51
-2.4070983e+51
-2.4265947e+51
-2.4256358e+51
-2.4475669e+51
-2.4486266e+51
-2.3028302e+51
-2.3013904e+51
-2.4496079e+51
-2.428795e+51
-2.427668e+51
-2.450554e+51
-2.3901794e+51
-2.388697e+51
-2.4094993e+51
-2.4081896e+51
-2.3490113e+51
-2.3915529e+51
-2.4108092e+51
-2.4518027e+51
-2.4299902e+51
-2.4533044e+51
-2.3052044e+51
-2.1177182e+51
-2.206657e+51
-2.2578553e+51
-2.2593516e+51
-2.2071928e+51
-2.2084431e+51
-2.2612659e+51
-2.55629e+51
-2.5573902e+51
-2.5234652e+51
-2.5245681e+51
-2.4966791e+51
-2.4977991e+51
-2.4713746e+51
-2.4723767e+51
-2.4751417e+51
-2.4736767e+51
-2.4990718e+51
-2.5003791e+51
-2.5270912e+51
-2.525738e+51
-2.5585111e+51
-2.5598481e+51
-2.599132e+51
-2.5983961e+51
-2.5970912e+51
-2.5977265e+51
-2.5945449e+51
-2.5950857e+51
-2.5956635e+51
-2.5963651e+51
-2.5824438e+51
-2.5827458e+51
-2.5822406e+51
-2.5822151e+51
-2.5830342e+51
-2.5829121e+51
-2.5834986e+51
-2.5830644e+51
-2.5905293e+51
-2.5911395e+51
-2.5896547e+51
-2.5899966e+51
-2.5938445e+51
-2.5930863e+51
-2.5917927e+51
-2.5923793e+51
-2.6090048e+51
-2.6052995e+51
-2.5185698e+51
-2.5789075e+51
-2.6289044e+51
-2.6273598e+51
-2.631676e+51
-2.6303413e+51
-2.6404512e+51
-2.6468378e+51
-2.6476384e+51
-2.6494463e+51
-2.6502429e+51
-2.64834e+51
-2.6489908e+51
-2.6509013e+51
-2.6515954e+51
-2.6476725e+51
-2.6484625e+51
-2.6420132e+51
-2.641208e+51
-2.6426007e+51
-2.6434238e+51
-2.6491096e+51
-2.6497959e+51
-2.6389711e+51
-2.6374837e+51
-2.6497144e+51
-2.6505286e+51
-2.6523292e+51
-2.6531612e+51
-2.6521062e+51
-2.6458462e+51
-2.650523e+51
-2.64439e+51
-2.6513806e+51
-2.6452072e+51
-2.6197895e+51
-2.6041839e+51
-2.605689e+51
-2.6210937e+51
-2.5744812e+51
-2.6227811e+51
-2.6239082e+51
-2.5615262e+51
-2.5633502e+51
-2.5761745e+51
-2.6249425e+51
-2.626054e+51
-2.6025328e+51
-2.6016799e+51
-2.6179916e+51
-2.618642e+51
-2.6506049e+51
-2.6424884e+51
-2.6428062e+51
-2.6508166e+51
-2.6510473e+51
-2.6430461e+51
-2.6431199e+51
-2.6511301e+51
-2.6537337e+51
-2.6538505e+51
-2.6494964e+51
-2.6496421e+51
-2.6541333e+51
-2.654218e+51
-2.6499456e+51
-2.6500825e+51
-2.6514541e+51
-2.6435338e+51
-2.6441167e+51
-2.6519606e+51
-2.6524639e+51
-2.6446505e+51
-2.6453558e+51
-2.6532061e+51
-2.6545009e+51
-2.6549175e+51
-2.65029e+51
-2.650549e+51
-2.6560987e+51
-2.6508134e+51
-2.6553246e+51
-2.6514645e+51
-2.632737e+51
-2.6338715e+51
-2.6420125e+51
-2.6427222e+51
-2.6445562e+51
-2.6452758e+51
-2.6433128e+51
-2.6438262e+51
-2.645867e+51
-2.6464302e+51
-2.6361343e+51
-2.6368686e+51
-2.6427111e+51
-2.6434298e+51
-2.6374177e+51
-2.6379885e+51
-2.6440273e+51
-2.6445924e+51
-2.6361343e+51
-2.6349893e+51
-2.6444029e+51
-2.6450362e+51
-2.6470094e+51
-2.6476589e+51
-2.64557e+51
-2.6461258e+51
-2.6481736e+51
-2.6487633e+51
-2.6452076e+51
-2.6386718e+51
-2.6458583e+51
-2.6393485e+51
-2.6463823e+51
-2.6469663e+51
-2.6398298e+51
-2.6403899e+51
-2.625548e+51
-2.6256148e+51
-2.6110112e+51
-2.6109357e+51
-2.6257001e+51
-2.6111016e+51
-2.6259064e+51
-2.6113184e+51
-2.6256441e+51
-2.6257162e+51
-2.611122e+51
-2.6111569e+51
-2.6110626e+51
-2.6256511e+51
-2.6255232e+51
-2.6109294e+51
-2.6141012e+51
-2.6137542e+51
-2.6063588e+51
-2.6066583e+51
-2.6145535e+51
-2.6143294e+51
-2.606894e+51
-2.6071372e+51
-2.6151943e+51
-2.6148264e+51
-2.6074377e+51
-2.6077395e+51
-2.6156947e+51
-2.6154414e+51
-2.6079902e+51
-2.6082992e+51
-2.6164696e+51
-2.6160462e+51
-2.6086976e+51
-2.6090914e+51
-2.6170592e+51
-2.6167606e+51
-2.6093864e+51
-2.6096917e+51
-2.6100072e+51
-2.6173544e+51
-2.6177729e+51
-2.6103528e+51
-2.6183784e+51
-2.618051e+51
-2.6106526e+51
-2.6109631e+51
-2.6191383e+51
-2.6187251e+51
-2.6113502e+51
-2.6117814e+51
-2.6197272e+51
-2.6193793e+51
-2.6120676e+51
-2.6123351e+51
-2.6200331e+51
-2.6126662e+51
-2.6204499e+51
-2.6129554e+51
-2.6132594e+51
-2.6207339e+51
-2.6210165e+51
-2.6136269e+51
-2.6218508e+51
-2.6211537e+51
-2.6140004e+51
-2.6145612e+51
-2.6148673e+51
-2.6222808e+51
-2.6221219e+51
-2.6150172e+51
-2.6231752e+51
-2.6226999e+51
-2.6154323e+51
-2.6158106e+51
-2.6235387e+51
-2.6237995e+51
-2.6161658e+51
-2.6164131e+51
-2.625299e+51
-2.625353e+51
-2.6105326e+51
-2.6105793e+51
-2.6252054e+51
-2.6252e+51
-2.6104198e+51
-2.6104234e+51
-2.6107135e+51
-2.6253806e+51
-2.6255084e+51
-2.6108126e+51
-2.6255093e+51
-2.6255191e+51
-2.6108762e+51
-2.6109506e+51
-2.4242367e+51
-2.4237108e+51
-2.445658e+51
-2.44512e+51
-2.4051066e+51
-2.4046619e+51
-2.3853176e+51
-2.3857632e+51
-2.3442849e+51
-2.404226e+51
-2.3850674e+51
-2.3849119e+51
-2.4043001e+51
-2.3434464e+51
-2.4233259e+51
-2.4232694e+51
-2.4449946e+51
-2.4449319e+51
-2.2995574e+51
-2.300814e+51
-2.4224617e+51
-2.4439231e+51
-2.403449e+51
-2.3841155e+51
-2.38384e+51
-2.4033091e+51
-2.3422846e+51
-2.3843331e+51
-2.4037799e+51
-2.2983399e+51
-2.4230106e+51
-2.4447639e+51
-2.4225026e+51
-2.4442201e+51
-2.5499719e+51
-2.5173346e+51
-2.5498737e+51
-2.51814e+51
-2.5177229e+51
-2.5505108e+51
-2.5501217e+51
-2.4912501e+51
-2.4659631e+51
-2.4916604e+51
-2.4665034e+51
-2.4655035e+51
-2.4907811e+51
-2.4667254e+51
-2.4665875e+51
-2.491778e+51
-2.4918723e+51
-2.5181509e+51
-2.5183145e+51
-2.5507979e+51
-2.5506489e+51
-2.4918298e+51
-2.4666349e+51
-2.4671237e+51
-2.4921442e+51
-2.5186163e+51
-2.5182424e+51
-2.5507581e+51
-2.5511378e+51
-2.2035269e+51
-2.2559979e+51
-2.2574877e+51
-2.2053508e+51
-2.516884e+51
-2.5175382e+51
-2.5328739e+51
-2.5334475e+51
-2.5160564e+51
-2.5319994e+51
-2.5163552e+51
-2.5323423e+51
-2.5488666e+51
-2.5692495e+51
-2.5491407e+51
-2.5695002e+51
-2.5496438e+51
-2.5699997e+51
-2.5502599e+51
-2.5706094e+51
-2.5193379e+51
-2.5199302e+51
-2.5353552e+51
-2.535959e+51
-2.5181694e+51
-2.5340449e+51
-2.5187413e+51
-2.5346942e+51
-2.5508227e+51
-2.5712128e+51
-2.5514475e+51
-2.5718066e+51
-2.5521516e+51
-2.552894e+51
-2.5725332e+51
-2.5733131e+51
-2.4907128e+51
-2.5043721e+51
-2.4912641e+51
-2.5049178e+51
-2.4666835e+51
-2.4671975e+51
-2.4785869e+51
-2.4791527e+51
-2.4677052e+51
-2.4682004e+51
-2.4796549e+51
-2.4800936e+51
-2.4917409e+51
-2.4922374e+51
-2.505466e+51
-2.5060143e+51
-2.4886224e+51
-2.5022329e+51
-2.488929e+51
-2.5025261e+51
-2.4655491e+51
-2.466098e+51
-2.4773861e+51
-2.4779677e+51
-2.4648823e+51
-2.4765956e+51
-2.465147e+51
-2.4769282e+51
-2.4893969e+51
-2.4900532e+51
-2.5030477e+51
-2.5037198e+51
-2.4429418e+51
-2.4539465e+51
-2.4431257e+51
-2.4541607e+51
-2.4230409e+51
-2.4233421e+51
-2.4331491e+51
-2.4334962e+51
-2.4227402e+51
-2.4327397e+51
-2.4228473e+51
-2.4329155e+51
-2.4433727e+51
-2.4438052e+51
-2.4544892e+51
-2.4549965e+51
-2.4036066e+51
-2.4133947e+51
-2.4038389e+51
-2.4136678e+51
-2.4034046e+51
-2.4131617e+51
-2.4035239e+51
-2.4132505e+51
-2.394075e+51
-2.3941524e+51
-2.3845298e+51
-2.3676658e+51
-2.3845141e+51
-2.3942476e+51
-2.3944293e+51
-2.3677035e+51
-2.384766e+51
-2.3846219e+51
-2.3487591e+51
-2.3485786e+51
-2.395177e+51
-2.3957321e+51
-2.3689025e+51
-2.3860373e+51
-2.3854832e+51
-2.3945581e+51
-2.3948123e+51
-2.367925e+51
-2.3850939e+51
-2.3848937e+51
-2.4039594e+51
-2.4139142e+51
-2.4042086e+51
-2.4141588e+51
-2.348611e+51
-2.3497839e+51
-2.4045622e+51
-2.4145633e+51
-2.4051548e+51
-2.4151712e+51
-2.4244313e+51
-2.4348111e+51
-2.4250381e+51
-2.4353802e+51
-2.423683e+51
-2.4339254e+51
-2.4239877e+51
-2.4343298e+51
-2.4443177e+51
-2.4555682e+51
-2.4447707e+51
-2.4560521e+51
-2.4452722e+51
-2.4565694e+51
-2.4458494e+51
-2.4571089e+51
-2.3127879e+51
-2.3115151e+51
-2.330319e+51
-2.3315836e+51
-2.3306678e+51
-2.3117564e+51
-2.3113033e+51
-2.330265e+51
-2.4463426e+51
-2.4575179e+51
-2.4467657e+51
-2.4578819e+51
-2.4266877e+51
-2.4274344e+51
-2.4369592e+51
-2.4376403e+51
-2.4256151e+51
-2.4359192e+51
-2.42611e+51
-2.4364067e+51
-2.4472628e+51
-2.4479695e+51
-2.4584087e+51
-2.4591374e+51
-2.3976429e+51
-2.3985434e+51
-2.3717912e+51
-2.3890715e+51
-2.3880903e+51
-2.3962511e+51
-2.3969168e+51
-2.3702257e+51
-2.3872604e+51
-2.3865819e+51
-2.4069311e+51
-2.4168619e+51
-2.4078053e+51
-2.417674e+51
-2.4056794e+51
-2.4157289e+51
-2.406296e+51
-2.4162493e+51
-2.3512573e+51
-2.3529563e+51
-2.3992513e+51
-2.4000637e+51
-2.3906283e+51
-2.389836e+51
-2.4084884e+51
-2.4183558e+51
-2.4092689e+51
-2.4190532e+51
-2.4397325e+51
-2.4486788e+51
-2.4598605e+51
-2.4493812e+51
-2.4605345e+51
-2.4280807e+51
-2.4383024e+51
-2.428761e+51
-2.4390091e+51
-2.4500667e+51
-2.4612178e+51
-2.4507813e+51
-2.461921e+51
-2.3332886e+51
-2.3145832e+51
-2.3162286e+51
-2.3349935e+51
-2.1519644e+51
-2.1520684e+51
-2.0830619e+51
-2.0820926e+51
-1.9937515e+51
-2.2209643e+51
-2.2496011e+51
-2.2493695e+51
-2.2201314e+51
-2.271258e+51
-2.2716621e+51
-2.2924702e+51
-2.2919631e+51
-2.2924655e+51
-2.2718672e+51
-2.2729393e+51
-2.2935791e+51
-2.249634e+51
-2.220136e+51
-2.250536e+51
-2.2209724e+51
-2.2515698e+51
-2.2213657e+51
-2.2528009e+51
-2.2953331e+51
-2.2742355e+51
-2.2757769e+51
-2.2968742e+51
-2.5535485e+51
-2.5740101e+51
-2.5540995e+51
-2.5745342e+51
-2.5546489e+51
-2.5553528e+51
-2.5750983e+51
-2.5757906e+51
-2.520426e+51
-2.5365122e+51
-2.5208812e+51
-2.5370693e+51
-2.521448e+51
-2.5376421e+51
-2.5221681e+51
-2.5382937e+51
-2.4926677e+51
-2.4930785e+51
-2.5064817e+51
-2.5068976e+51
-2.4936507e+51
-2.4943786e+51
-2.5074767e+51
-2.5082071e+51
-2.4685421e+51
-2.4804533e+51
-2.4689103e+51
-2.4808658e+51
-2.4694679e+51
-2.4702019e+51
-2.4814482e+51
-2.4821444e+51
-2.4722414e+51
-2.472928e+51
-2.4841646e+51
-2.4847789e+51
-2.4708903e+51
-2.4715648e+51
-2.4828099e+51
-2.4834978e+51
-2.4950235e+51
-2.49567e+51
-2.5088763e+51
-2.509493e+51
-2.4962983e+51
-2.4969247e+51
-2.5101176e+51
-2.5107196e+51
-2.5240663e+51
-2.5403042e+51
-2.5246772e+51
-2.5408534e+51
-2.522807e+51
-2.5389593e+51
-2.5234422e+51
-2.539665e+51
-2.5560067e+51
-2.5765155e+51
-2.5566826e+51
-2.577162e+51
-2.5573075e+51
-2.577805e+51
-2.5579482e+51
-2.578475e+51
-2.6023103e+51
-2.6027022e+51
-2.6017586e+51
-2.6020126e+51
-2.6003565e+51
-2.6007688e+51
-2.6010698e+51
-2.6014056e+51
-2.5976883e+51
-2.5979903e+51
-2.5982761e+51
-2.5985815e+51
-2.5989064e+51
-2.5991595e+51
-2.5994588e+51
-2.5999118e+51
-2.5888228e+51
-2.588746e+51
-2.5888867e+51
-2.5891021e+51
-2.5885273e+51
-2.5883299e+51
-2.58848e+51
-2.5886237e+51
-2.5893223e+51
-2.5891666e+51
-2.5890636e+51
-2.5889819e+51
-2.5890251e+51
-2.5892577e+51
-2.5890017e+51
-2.5888943e+51
-2.5936597e+51
-2.5939086e+51
-2.5941893e+51
-2.5945723e+51
-2.5927946e+51
-2.5929137e+51
-2.5930995e+51
-2.5933639e+51
-2.5969138e+51
-2.5973125e+51
-2.5965862e+51
-2.596276e+51
-2.5949489e+51
-2.5952662e+51
-2.5959313e+51
-2.5955624e+51
-2.5149683e+51
-2.5112406e+51
-2.4221393e+51
-2.5120406e+51
-2.514061e+51
-2.6045443e+51
-2.6028816e+51
-2.5313452e+51
-2.5765754e+51
-2.5783552e+51
-2.606181e+51
-2.6210908e+51
-2.620363e+51
-2.6249721e+51
-2.625775e+51
-2.6384376e+51
-2.6392489e+51
-2.6353758e+51
-2.6361458e+51
-2.6416995e+51
-2.6404622e+51
-2.6421527e+51
-2.6409722e+51
-2.6413244e+51
-2.641579e+51
-2.6424911e+51
-2.6428143e+51
-2.6368999e+51
-2.6376632e+51
-2.6431854e+51
-2.6419685e+51
-2.643629e+51
-2.6424662e+51
-2.6427979e+51
-2.6430396e+51
-2.6439484e+51
-2.6442529e+51
-2.6396186e+51
-2.6412791e+51
-2.6417136e+51
-2.6399994e+51
-2.642377e+51
-2.6420459e+51
-2.6406601e+51
-2.6403657e+51
-2.6359914e+51
-2.627289e+51
-2.6276615e+51
-2.6363057e+51
-2.626633e+51
-2.6352102e+51
-2.6356464e+51
-2.6270176e+51
-2.6366222e+51
-2.6370753e+51
-2.6284375e+51
-2.6279171e+51
-2.6287299e+51
-2.6374333e+51
-2.6377049e+51
-2.6290864e+51
-2.6431718e+51
-2.642746e+51
-2.6414145e+51
-2.6409928e+51
-2.6437845e+51
-2.6434704e+51
-2.6421309e+51
-2.6417159e+51
-2.6195307e+51
-2.6185389e+51
-2.6232288e+51
-2.6241561e+51
-2.6177878e+51
-2.6170638e+51
-2.6216875e+51
-2.622453e+51
-2.6439428e+51
-2.6434229e+51
-2.6446155e+51
-2.6450794e+51
-2.6454501e+51
-2.6443282e+51
-2.6446165e+51
-2.6458153e+51
-2.6440743e+51
-2.6457743e+51
-2.6462475e+51
-2.6445631e+51
-2.6307846e+51
-2.6397804e+51
-2.6401235e+51
-2.6312939e+51
-2.6446185e+51
-2.6441692e+51
-2.6425419e+51
-2.6430115e+51
-2.6293865e+51
-2.6382327e+51
-2.6387382e+51
-2.6299789e+51
-2.6433687e+51
-2.6449755e+51
-2.6453708e+51
-2.6437913e+51
-2.6394056e+51
-2.6391237e+51
-2.6303488e+51
-2.6303759e+51
-2.5715861e+51
-2.6205168e+51
-2.6200399e+51
-2.5583667e+51
-2.5599098e+51
-2.5731021e+51
-2.6211273e+51
-2.6218117e+51
-2.5993803e+51
-2.5984843e+51
-2.5268175e+51
-2.5725102e+51
-2.5731033e+51
-2.601497e+51
-2.6003795e+51
-2.5285322e+51
-2.5740274e+51
-2.5752191e+51
-2.556718e+51
-2.5556709e+51
-2.5697255e+51
-2.6191856e+51
-2.6190304e+51
-2.5702119e+51
-2.6195031e+51
-2.6193884e+51
-2.6293641e+51
-2.6294633e+51
-2.6295947e+51
-2.6296886e+51
-2.6419545e+51
-2.6420032e+51
-2.6392436e+51
-2.6391378e+51
-2.6392981e+51
-2.6392652e+51
-2.6420691e+51
-2.6420515e+51
-2.6404403e+51
-2.6344267e+51
-2.6404788e+51
-2.6344484e+51
-2.6405901e+51
-2.6405605e+51
-2.6345921e+51
-2.6345964e+51
-2.6421458e+51
-2.6394564e+51
-2.6393451e+51
-2.642238e+51
-2.639484e+51
-2.6394867e+51
-2.6422924e+51
-2.6423023e+51
-2.6406526e+51
-2.6407374e+51
-2.6346658e+51
-2.6347694e+51
-2.6408152e+51
-2.634806e+51
-2.6407931e+51
-2.6347591e+51
-2.6300563e+51
-2.6304614e+51
-2.6309983e+51
-2.6316667e+51
-2.6396414e+51
-2.6398752e+51
-2.642424e+51
-2.6425908e+51
-2.6400327e+51
-2.6401403e+51
-2.6427215e+51
-2.6428075e+51
-2.6408911e+51
-2.6410327e+51
-2.6348418e+51
-2.6349625e+51
-2.6411353e+51
-2.6411099e+51
-2.6349635e+51
-2.634877e+51
-2.6409719e+51
-2.6413729e+51
-2.6439442e+51
-2.6435271e+51
-2.6412739e+51
-2.6415003e+51
-2.6349474e+51
-2.6350791e+51
-2.6406842e+51
-2.6403635e+51
-2.6429924e+51
-2.6432641e+51
-2.6417129e+51
-2.6420803e+51
-2.6351891e+51
-2.6354708e+51
-2.6129934e+51
-2.6125749e+51
-2.6175494e+51
-2.6171003e+51
-2.6306016e+51
-2.631182e+51
-2.614115e+51
-2.6134777e+51
-2.6186594e+51
-2.6180802e+51
-2.6317429e+51
-2.6323002e+51
-2.6360911e+51
-2.6356408e+51
-2.6368276e+51
-2.6372246e+51
-2.6375129e+51
-2.6363778e+51
-2.6365508e+51
-2.6377591e+51
-2.6380637e+51
-2.6368604e+51
-2.6384307e+51
-2.6372789e+51
-2.6375275e+51
-2.6376806e+51
-2.6386729e+51
-2.6389011e+51
-2.6216037e+51
-2.6302714e+51
-2.6305875e+51
-2.6219876e+51
-2.6222086e+51
-2.6308907e+51
-2.6311538e+51
-2.6224327e+51
-2.636741e+51
-2.6363643e+51
-2.6349744e+51
-2.6346451e+51
-2.6372938e+51
-2.6370285e+51
-2.6355339e+51
-2.6353052e+51
-2.6226922e+51
-2.6314154e+51
-2.6317746e+51
-2.6230868e+51
-2.6233207e+51
-2.6320417e+51
-2.6322952e+51
-2.6235675e+51
-2.6379546e+51
-2.6376016e+51
-2.6361768e+51
-2.6358683e+51
-2.6384446e+51
-2.6381913e+51
-2.636696e+51
-2.6364754e+51
-2.6164111e+51
-2.6156911e+51
-2.6203687e+51
-2.6210327e+51
-2.6340558e+51
-2.6346764e+51
-2.615166e+51
-2.6146685e+51
-2.6197931e+51
-2.6192044e+51
-2.6328691e+51
-2.6334713e+51
-2.638425e+51
-2.6379915e+51
-2.6392023e+51
-2.6395882e+51
-2.6398588e+51
-2.6386961e+51
-2.6388678e+51
-2.6401054e+51
-2.6403995e+51
-2.6391728e+51
-2.6407781e+51
-2.6396016e+51
-2.6398701e+51
-2.640078e+51
-2.6410441e+51
-2.6413295e+51
-2.639135e+51
-2.6387583e+51
-2.6370623e+51
-2.6374255e+51
-2.6238932e+51
-2.6326159e+51
-2.6330081e+51
-2.6243334e+51
-2.6396715e+51
-2.6394089e+51
-2.6377328e+51
-2.6379727e+51
-2.633605e+51
-2.6333356e+51
-2.6246111e+51
-2.6249029e+51
-2.6403364e+51
-2.6399708e+51
-2.6382657e+51
-2.6386071e+51
-2.6409041e+51
-2.6405975e+51
-2.6388776e+51
-2.6391805e+51
-2.6342503e+51
-2.6338517e+51
-2.6251839e+51
-2.6256216e+51
-2.6348534e+51
-2.6345534e+51
-2.6258813e+51
-2.6262569e+51
-2.6132974e+51
-2.6131995e+51
-2.6059006e+51
-2.6058919e+51
-2.6132022e+51
-2.6132376e+51
-2.6058321e+51
-2.605789e+51
-2.613346e+51
-2.6132074e+51
-2.6058376e+51
-2.6058998e+51
-2.6134909e+51
-2.6133781e+51
-2.605965e+51
-2.6060752e+51
-2.6134397e+51
-2.61358e+51
-2.6062116e+51
-2.6062367e+51
-2.6134461e+51
-2.6135271e+51
-2.6061899e+51
-2.606104e+51
-2.6133582e+51
-2.613374e+51
-2.6060767e+51
-2.6059988e+51
-2.6132134e+51
-2.6132754e+51
-2.6059166e+51
-2.6058543e+51
-2.5979041e+51
-2.597694e+51
-2.5983341e+51
-2.5981164e+51
-2.5989306e+51
-2.5986396e+51
-2.5995094e+51
-2.5992005e+51
-2.6003e+51
-2.5999159e+51
-2.6009388e+51
-2.6006206e+51
-2.6012946e+51
-2.60163e+51
-2.6022473e+51
-2.6019318e+51
-2.6030136e+51
-2.6026388e+51
-2.6035792e+51
-2.603302e+51
-2.6039593e+51
-2.6042441e+51
-2.6045156e+51
-2.6048488e+51
-2.6057394e+51
-2.6051479e+51
-2.6060973e+51
-2.6061793e+51
-2.6070455e+51
-2.6067007e+51
-2.6073023e+51
-2.6072696e+51
-2.6132028e+51
-2.6130782e+51
-2.6056325e+51
-2.6057225e+51
-2.6132464e+51
-2.6132457e+51
-2.6058153e+51
-2.6057702e+51
-2.6131403e+51
-2.6131672e+51
-2.6056871e+51
-2.605627e+51
-2.6055689e+51
-2.6130886e+51
-2.6130614e+51
-2.6055348e+51
-2.6132905e+51
-2.6132481e+51
-2.6059059e+51
-2.6059006e+51
-2.6132681e+51
-2.6133004e+51
-2.6059082e+51
-2.6058774e+51
-2.6133224e+51
-2.6132177e+51
-2.6058961e+51
-2.6059445e+51
-2.6133738e+51
-2.6133385e+51
-2.6059804e+51
-2.6060589e+51
-2.4221823e+51
-2.4224591e+51
-2.4321721e+51
-2.4324403e+51
-2.421971e+51
-2.4319357e+51
-2.4219836e+51
-2.431961e+51
-2.4422782e+51
-2.453273e+51
-2.4425997e+51
-2.4536058e+51
-2.4420828e+51
-2.4531203e+51
-2.4420669e+51
-2.4530639e+51
-2.4029605e+51
-2.4126362e+51
-2.4031955e+51
-2.4129052e+51
-2.4027435e+51
-2.4124378e+51
-2.40281e+51
-2.4124572e+51
-2.3935404e+51
-2.3936049e+51
-2.3841456e+51
-2.3841659e+51
-2.3667219e+51
-2.3937443e+51
-2.3939334e+51
-2.3844606e+51
-2.384273e+51
-2.367194e+51
-2.3475524e+51
-2.3481876e+51
-2.4029302e+51
-2.4126169e+51
-2.4027874e+51
-2.4124132e+51
-2.3934905e+51
-2.3934975e+51
-2.3841476e+51
-2.3841033e+51
-2.3665542e+51
-2.3936363e+51
-2.3935484e+51
-2.3664111e+51
-2.3840589e+51
-2.3840958e+51
-2.4026201e+51
-2.412325e+51
-2.4026262e+51
-2.4123438e+51
-2.3475301e+51
-2.3473854e+51
-2.4218993e+51
-2.4319973e+51
-2.42191e+51
-2.4319457e+51
-2.422123e+51
-2.4322004e+51
-2.4219171e+51
-2.4320147e+51
-2.4425065e+51
-2.4536715e+51
-2.442292e+51
-2.4534262e+51
-2.4422317e+51
-2.4533297e+51
-2.4421532e+51
-2.4532208e+51
-2.3101932e+51
-2.3107199e+51
-2.3295328e+51
-2.3292427e+51
-2.3114478e+51
-2.3109694e+51
-2.3295507e+51
-2.3301356e+51
-2.4212155e+51
-2.421174e+51
-2.4311773e+51
-2.4311854e+51
-2.4412715e+51
-2.4413571e+51
-2.4522638e+51
-2.4524243e+51
-2.4021108e+51
-2.4117249e+51
-2.4019664e+51
-2.4116484e+51
-2.3927425e+51
-2.3833014e+51
-2.3926512e+51
-2.39273e+51
-2.3652602e+51
-2.3830769e+51
-2.3831457e+51
-2.4018984e+51
-2.4117217e+51
-2.4020426e+51
-2.4118669e+51
-2.3467144e+51
-2.3462663e+51
-2.3657104e+51
-2.3930604e+51
-2.3934551e+51
-2.3838464e+51
-2.3833827e+51
-2.4023845e+51
-2.4122167e+51
-2.4027646e+51
-2.4125388e+51
-2.3094537e+51
-2.3281393e+51
-2.3284533e+51
-2.4218624e+51
-2.4320165e+51
-2.422119e+51
-2.4322068e+51
-2.4422869e+51
-2.4534223e+51
-2.4424914e+51
-2.4536408e+51
-2.4213477e+51
-2.4314444e+51
-2.4215359e+51
-2.4317001e+51
-2.4416898e+51
-2.4528109e+51
-2.4419728e+51
-2.4531053e+51
-2.5478966e+51
-2.5682129e+51
-2.5478659e+51
-2.5680512e+51
-2.5148888e+51
-2.5150885e+51
-2.5310247e+51
-2.5310787e+51
-2.5310311e+51
-2.5478662e+51
-2.5681588e+51
-2.5479395e+51
-2.5682869e+51
-2.5158488e+51
-2.516034e+51
-2.5317382e+51
-2.5319195e+51
-2.5154066e+51
-2.5313097e+51
-2.5155976e+51
-2.5315018e+51
-2.5484138e+51
-2.5486829e+51
-2.5686357e+51
-2.5689234e+51
-2.5684754e+51
-2.5481025e+51
-2.5481924e+51
-2.5684472e+51
-2.4878148e+51
-2.5015869e+51
-2.4881078e+51
-2.5018124e+51
-2.4637932e+51
-2.4641046e+51
-2.4756659e+51
-2.4760053e+51
-2.4883756e+51
-2.4885341e+51
-2.5020711e+51
-2.5022487e+51
-2.4644116e+51
-2.4646207e+51
-2.4762996e+51
-2.4764524e+51
-2.4631918e+51
-2.463398e+51
-2.475045e+51
-2.4752601e+51
-2.4871514e+51
-2.4874134e+51
-2.5009575e+51
-2.5012155e+51
-2.4646636e+51
-2.4764967e+51
-2.4644267e+51
-2.4762935e+51
-2.4643009e+51
-2.4761631e+51
-2.4641702e+51
-2.4759906e+51
-2.4882214e+51
-2.5019354e+51
-2.4880867e+51
-2.5018152e+51
-2.4885752e+51
-2.5023068e+51
-2.4883483e+51
-2.5020634e+51
-2.5157399e+51
-2.5318126e+51
-2.515615e+51
-2.5316295e+51
-2.5160982e+51
-2.5320678e+51
-2.5158759e+51
-2.5319389e+51
-2.5488943e+51
-2.5691707e+51
-2.5487485e+51
-2.5690068e+51
-2.5486318e+51
-2.5688926e+51
-2.5485065e+51
-2.5688027e+51
-2.4880172e+51
-2.5017423e+51
-2.487937e+51
-2.5016297e+51
-2.4640756e+51
-2.4758995e+51
-2.4640121e+51
-2.4758586e+51
-2.4642015e+51
-2.4760253e+51
-2.4645224e+51
-2.4762658e+51
-2.4880649e+51
-2.5017588e+51
-2.488305e+51
-2.5019645e+51
-2.5155867e+51
-2.5157831e+51
-2.5316804e+51
-2.5317765e+51
-2.5154534e+51
-2.5155464e+51
-2.5315685e+51
-2.5315461e+51
-2.5484683e+51
-2.5484083e+51
-2.5687077e+51
-2.5687964e+51
-2.5485375e+51
-2.5688415e+51
-2.5486803e+51
-2.5690176e+51
-2.1501282e+51
-2.2471822e+51
-2.2161833e+51
-2.2471036e+51
-2.27016e+51
-2.2698603e+51
-2.2907866e+51
-2.2914123e+51
-2.2920508e+51
-2.271247e+51
-2.2721911e+51
-2.2925221e+51
-2.2484254e+51
-2.2176948e+51
-2.2497871e+51
-2.2201799e+51
-2.5145902e+51
-2.522386e+51
-2.5227378e+51
-2.5149056e+51
-2.5155765e+51
-2.5152124e+51
-2.5230308e+51
-2.5233525e+51
-2.539417e+51
-2.5301813e+51
-2.539156e+51
-2.5304811e+51
-2.5311371e+51
-2.5400971e+51
-2.5307924e+51
-2.5397482e+51
-2.5217334e+51
-2.5138018e+51
-2.5215989e+51
-2.5138962e+51
-2.5294077e+51
-2.5384003e+51
-2.5384429e+51
-2.5294932e+51
-2.5220982e+51
-2.5140566e+51
-2.5218824e+51
-2.5143004e+51
-2.529662e+51
-2.5386245e+51
-2.5298991e+51
-2.5388651e+51
-2.5578172e+51
-2.5473482e+51
-2.5577411e+51
-2.5473895e+51
-2.5806487e+51
-2.568375e+51
-2.5684254e+51
-2.5806904e+51
-2.5477958e+51
-2.5581721e+51
-2.5475542e+51
-2.5579768e+51
-2.580833e+51
-2.5685682e+51
-2.5687975e+51
-2.581081e+51
-2.5480686e+51
-2.5584427e+51
-2.5587381e+51
-2.5483343e+51
-2.5813543e+51
-2.5815934e+51
-2.5693196e+51
-2.5690573e+51
-2.548661e+51
-2.5590666e+51
-2.5490185e+51
-2.5593855e+51
-2.570003e+51
-2.5822868e+51
-2.5696361e+51
-2.5819021e+51
-2.5171311e+51
-2.524926e+51
-2.5252948e+51
-2.5174419e+51
-2.5179748e+51
-2.5176962e+51
-2.5255548e+51
-2.5258068e+51
-2.5420239e+51
-2.5327202e+51
-2.5417054e+51
-2.533058e+51
-2.5336563e+51
-2.5427026e+51
-2.5333566e+51
-2.5423644e+51
-2.5239996e+51
-2.5158975e+51
-2.5236676e+51
-2.5161929e+51
-2.5314362e+51
-2.5403876e+51
-2.5406432e+51
-2.5317259e+51
-2.5245989e+51
-2.5164775e+51
-2.524278e+51
-2.5168053e+51
-2.5320299e+51
-2.5409727e+51
-2.5323831e+51
-2.5413456e+51
-2.5599774e+51
-2.5493031e+51
-2.5596787e+51
-2.5495652e+51
-2.5828855e+51
-2.5703109e+51
-2.5826242e+51
-2.5705792e+51
-2.5502735e+51
-2.560655e+51
-2.5498874e+51
-2.5603033e+51
-2.5708826e+51
-2.5831803e+51
-2.5712729e+51
-2.5835732e+51
-2.5506222e+51
-2.5610074e+51
-2.5613841e+51
-2.5509592e+51
-2.5513173e+51
-2.5617585e+51
-2.5516927e+51
-2.5621123e+51
-2.5839397e+51
-2.5842605e+51
-2.5716276e+51
-2.5719749e+51
-2.5727498e+51
-2.5723438e+51
-2.5846246e+51
-2.5850489e+51
-2.4953963e+51
-2.4884566e+51
-2.495039e+51
-2.4887818e+51
-2.5015946e+51
-2.5088293e+51
-2.5091154e+51
-2.5019133e+51
-2.4959633e+51
-2.4890603e+51
-2.4956754e+51
-2.4893659e+51
-2.5022024e+51
-2.5094136e+51
-2.5025042e+51
-2.5097161e+51
-2.4646333e+51
-2.4704386e+51
-2.4707421e+51
-2.4649061e+51
-2.4651678e+51
-2.4710063e+51
-2.4712801e+51
-2.4654497e+51
-2.4761726e+51
-2.4823578e+51
-2.4826614e+51
-2.4764702e+51
-2.4767434e+51
-2.4829414e+51
-2.4832517e+51
-2.477038e+51
-2.4656962e+51
-2.4715243e+51
-2.4717647e+51
-2.4659236e+51
-2.4663786e+51
-2.4661526e+51
-2.4719791e+51
-2.4721805e+51
-2.4772776e+51
-2.4834825e+51
-2.4836868e+51
-2.4774957e+51
-2.4779283e+51
-2.4777043e+51
-2.4838966e+51
-2.4841309e+51
-2.4895815e+51
-2.4961941e+51
-2.4964248e+51
-2.4897875e+51
-2.4902582e+51
-2.4900076e+51
-2.4966671e+51
-2.4969085e+51
-2.5100468e+51
-2.5103265e+51
-2.5027797e+51
-2.5030256e+51
-2.503543e+51
-2.503274e+51
-2.5105832e+51
-2.5108552e+51
-2.493056e+51
-2.4863378e+51
-2.4929081e+51
-2.4864541e+51
-2.499462e+51
-2.5067064e+51
-2.5067897e+51
-2.4995734e+51
-2.4868463e+51
-2.4934092e+51
-2.4866197e+51
-2.4932085e+51
-2.4997402e+51
-2.5069671e+51
-2.4999634e+51
-2.5072056e+51
-2.46349e+51
-2.4692532e+51
-2.4695441e+51
-2.4637371e+51
-2.463999e+51
-2.4698125e+51
-2.4701322e+51
-2.4643283e+51
-2.4813049e+51
-2.4749323e+51
-2.481047e+51
-2.4752044e+51
-2.4820307e+51
-2.4755092e+51
-2.4816416e+51
-2.4758575e+51
-2.4686556e+51
-2.4627864e+51
-2.4685051e+51
-2.4629035e+51
-2.4741627e+51
-2.4802708e+51
-2.4803694e+51
-2.4742857e+51
-2.4690037e+51
-2.463052e+51
-2.4688046e+51
-2.4632531e+51
-2.4744571e+51
-2.4805534e+51
-2.4746781e+51
-2.4807817e+51
-2.4870958e+51
-2.4936708e+51
-2.4939686e+51
-2.4873664e+51
-2.4877086e+51
-2.4943117e+51
-2.4881065e+51
-2.4946761e+51
-2.5075046e+51
-2.5078082e+51
-2.5002423e+51
-2.5005404e+51
-2.5012537e+51
-2.5008748e+51
-2.5081355e+51
-2.5085043e+51
-2.4465474e+51
-2.4411567e+51
-2.4464206e+51
-2.4412482e+51
-2.4517022e+51
-2.4573001e+51
-2.4573939e+51
-2.4518079e+51
-2.4414966e+51
-2.4467867e+51
-2.4413593e+51
-2.4466575e+51
-2.4519393e+51
-2.4575442e+51
-2.4520944e+51
-2.4577274e+51
-2.4218697e+51
-2.4266838e+51
-2.4268087e+51
-2.4219467e+51
-2.4222653e+51
-2.4220769e+51
-2.4269581e+51
-2.4271535e+51
-2.4367354e+51
-2.431503e+51
-2.4365873e+51
-2.431642e+51
-2.4320404e+51
-2.4371844e+51
-2.4318142e+51
-2.4369278e+51
-2.4263777e+51
-2.4214891e+51
-2.4262781e+51
-2.4215704e+51