/*--------------------------------*- C++ -*----------------------------------*\
  =========                 |
  \\      /  F ield         | OpenFOAM: The Open Source CFD Toolbox
   \\    /   O peration     | Website:  https://openfoam.org
    \\  /    A nd           | Version:  7
     \\/     M anipulation  |
\*---------------------------------------------------------------------------*/
FoamFile
{
    version     2.0;
    format      ascii;
    class       volVectorField;
    location    "4000";
    object      U;
}
// * * * * * * * * * * * * * * * * * * * * * * * * * * * * * * * * * * * * * //

dimensions      [0 1 -1 0 0 0 0];

internalField   nonuniform List<vector> 
34377
(
(-1.0762395e+25 -3.4782607e+23 9.9580343e+23)
(-8.5717564e+24 -3.635937e+22 2.626278e+23)
(-7.8426539e+24 -5.1930294e+23 1.0871544e+24)
(-7.5643935e+24 2.6996178e+23 1.0579355e+24)
(-6.6361185e+24 -2.1128448e+23 1.9476486e+24)
(-9.4638785e+24 -4.1046263e+23 1.0313733e+24)
(-6.4362972e+24 -2.7195872e+22 1.9370888e+24)
(-1.047982e+25 -2.3354941e+23 7.4311549e+23)
(-7.7843054e+24 5.5174639e+22 4.8677614e+23)
(-8.027053e+24 -2.5852257e+23 5.3949035e+23)
(-7.5170059e+24 3.9528125e+23 -1.0038991e+24)
(-5.7436968e+24 3.4114504e+23 3.2429445e+23)
(-7.7550548e+24 -2.7279632e+23 -1.0383604e+24)
(-8.6865985e+24 -9.6377454e+22 3.3414883e+23)
(-6.0795144e+24 -5.5179753e+23 4.5904168e+23)
(-7.5492557e+24 7.0247203e+22 1.1657481e+24)
(-6.6108322e+24 -1.1424022e+22 1.7898867e+24)
(-6.321467e+24 -2.5285911e+23 1.0899262e+24)
(-6.1974479e+24 1.4663868e+23 1.0430777e+24)
(-6.5808821e+24 -4.4679816e+22 1.7965779e+24)
(-6.2349867e+24 -1.7598507e+23 9.9839602e+23)
(-5.954901e+24 2.4508631e+23 9.4303492e+23)
(-6.2895133e+24 5.2589863e+22 1.6229924e+24)
(-6.4152541e+24 8.2086997e+22 1.674184e+24)
(-6.0161122e+24 -2.8933957e+23 2.0516679e+24)
(-7.642977e+24 -6.2199474e+23 1.0877469e+24)
(-6.0238051e+24 -2.8334621e+23 1.9402089e+24)
(-1.0610722e+25 -3.355122e+23 7.8536503e+23)
(-7.7457159e+24 1.5571075e+23 1.0761518e+24)
(-7.6162999e+24 -1.485173e+23 -8.7380546e+23)
(-7.5422137e+24 1.0574404e+23 -8.2701584e+23)
(-1.0189161e+25 -1.7495081e+23 4.4016258e+23)
(-6.3101152e+24 9.0799591e+22 9.5275125e+23)
(-6.1105087e+24 -5.25461e+23 1.1720205e+24)
(-5.9420003e+24 -3.0933541e+23 -4.9299726e+23)
(-6.2688932e+24 -3.4294542e+23 -7.1850372e+23)
(-7.7654525e+24 -3.0849706e+23 1.1155905e+24)
(-6.7628505e+24 4.8962232e+22 8.0072659e+23)
(-6.8993767e+24 4.7083168e+22 8.0665865e+23)
(-7.7133683e+24 -3.2295621e+23 5.0398319e+23)
(-7.7563283e+24 -1.5019525e+23 5.9072262e+23)
(-7.0371013e+24 -6.5247655e+22 9.0059735e+23)
(-6.9465826e+24 -4.4235608e+22 8.9577087e+23)
(-5.8686493e+24 -1.5004084e+22 -5.2746869e+23)
(-5.9671701e+24 2.4513266e+23 -1.2279679e+24)
(-5.939494e+24 2.7248529e+23 -1.2410053e+24)
(-5.717149e+24 3.3027416e+23 -5.123301e+23)
(-5.472649e+24 2.3868976e+23 -9.6438527e+23)
(-4.5304995e+24 -4.3807058e+23 5.5811737e+23)
(-5.6584484e+24 -1.9769597e+23 -9.9448921e+23)
(-4.1181295e+24 3.3170385e+23 4.0486048e+23)
(-7.6394321e+24 3.1564921e+23 -9.8719936e+23)
(-5.874876e+24 -7.0077401e+22 -5.3652742e+23)
(-5.9934001e+24 1.9120981e+23 -1.245484e+24)
(-5.9858802e+24 2.061718e+23 -1.2768274e+24)
(-5.7579349e+24 2.7628304e+23 -5.1721315e+23)
(-7.8671957e+24 -5.1096257e+23 -1.0195972e+24)
(-6.0023212e+24 -8.3237928e+23 4.9372313e+23)
(-5.8460231e+24 3.0352217e+23 4.6684113e+23)
(-5.673198e+24 -1.976225e+23 -9.8591344e+23)
(-4.543286e+24 -4.279081e+23 6.0725021e+23)
(-5.5604572e+24 2.1584381e+23 -9.5470323e+23)
(-4.3466713e+24 2.6590977e+23 5.3260378e+23)
(-6.1492388e+24 1.3830589e+23 1.0934511e+24)
(-6.2333752e+24 -2.3784365e+23 1.0491563e+24)
(-6.2397807e+24 -5.4282596e+22 1.720898e+24)
(-6.2219148e+24 -1.4256419e+23 1.7857983e+24)
(-5.1239176e+24 -1.0416551e+23 1.0454823e+24)
(-5.0218792e+24 1.4741453e+23 9.9633497e+23)
(-5.8127671e+24 5.6925997e+22 1.4628828e+24)
(-5.7723587e+24 2.3551528e+22 1.4616192e+24)
(-5.7914765e+24 8.0265784e+22 1.3994747e+24)
(-5.040181e+24 -7.1524457e+22 9.6107224e+23)
(-4.9674745e+24 1.7966504e+23 9.6697384e+23)
(-5.7464068e+24 5.1386176e+22 1.4147843e+24)
(-5.0571262e+24 -6.6125837e+22 9.9551634e+23)
(-5.800495e+24 1.4016173e+23 1.4129834e+24)
(-4.9077971e+24 2.1221331e+23 9.3187928e+23)
(-5.7374413e+24 1.2687872e+23 1.3825162e+24)
(-4.9025661e+24 -1.4206204e+22 9.1258506e+23)
(-5.6053932e+24 1.6928934e+23 1.3037286e+24)
(-4.7677677e+24 2.2510103e+23 8.9298598e+23)
(-5.551457e+24 1.1967128e+23 1.3089289e+24)
(-6.3095812e+24 -6.3726006e+22 1.7423023e+24)
(-6.1940797e+24 -2.8262117e+23 1.027709e+24)
(-6.1818754e+24 1.0125463e+23 1.0466881e+24)
(-6.2575348e+24 -1.2239522e+23 1.7757412e+24)
(-7.4163772e+24 6.2588966e+21 -8.1196108e+23)
(-7.5539337e+24 -2.1762105e+23 -8.4198554e+23)
(-7.5509056e+24 1.1107681e+23 1.1742655e+24)
(-7.5674562e+24 -4.4843136e+23 1.2033991e+24)
(-1.0197191e+25 -2.8866574e+23 4.7415557e+23)
(-6.1104019e+24 -3.5744476e+23 1.0652592e+24)
(-6.1440641e+24 1.215971e+23 1.0464411e+24)
(-6.0691289e+24 -3.7434004e+23 -1.2917364e+23)
(-6.1759811e+24 2.363005e+23 -5.9001691e+23)
(-6.967266e+24 1.1116368e+23 9.3042621e+23)
(-6.9236064e+24 -2.1958371e+23 9.3908185e+23)
(-6.8118224e+24 4.778871e+22 -3.0927565e+23)
(-6.9098045e+24 -1.209305e+23 -2.7625639e+23)
(-6.7842002e+24 1.4008021e+23 2.9614726e+23)
(-6.4486861e+24 -4.6375223e+22 -6.7619956e+23)
(-6.5177519e+24 5.0533123e+22 -6.4187183e+23)
(-6.7996157e+24 -1.6360277e+23 3.265373e+23)
(-7.554383e+24 2.4310618e+23 7.310798e+23)
(-6.765136e+24 1.5487304e+23 2.7227894e+23)
(-6.4294629e+24 -2.9779882e+22 -7.2002951e+23)
(-6.4918673e+24 6.4915092e+22 -6.5725374e+23)
(-6.8032184e+24 -1.6675658e+23 3.41212e+23)
(-7.5989111e+24 -2.3071104e+23 8.0937271e+23)
(-6.9134193e+24 -1.1706961e+23 -3.2693979e+23)
(-6.7493898e+24 2.459964e+23 -2.5127411e+23)
(-6.2549842e+24 -3.7729059e+23 8.7620052e+23)
(-5.8199464e+24 -2.9565495e+23 -1.1059374e+24)
(-5.6730553e+24 3.4782927e+22 -9.9122736e+23)
(-6.2970873e+24 1.9425092e+23 7.6384004e+23)
(-6.8280441e+24 2.2269418e+23 8.5266552e+23)
(-6.872872e+24 -5.9200488e+22 -2.8466969e+23)
(-6.7857899e+24 5.8464168e+22 -2.9837148e+23)
(-6.8148966e+24 -1.4618431e+23 8.8796702e+23)
(-5.6970173e+24 8.80504e+22 7.9609326e+23)
(-5.7632888e+24 1.4966488e+23 7.8581258e+23)
(-5.9088381e+24 1.0532211e+23 8.5001021e+23)
(-5.845367e+24 9.0895854e+22 8.2035716e+23)
(-6.8058866e+24 -9.5109244e+22 9.0365809e+23)
(-6.8292183e+24 -9.055125e+22 8.8438683e+23)
(-6.8134943e+24 -6.040525e+22 8.460123e+23)
(-6.8109765e+24 -1.0585213e+23 9.307935e+23)
(-5.8905896e+24 1.6097042e+21 8.6875469e+23)
(-5.9393344e+24 3.3119889e+22 8.8573231e+23)
(-5.8289085e+24 3.2465126e+22 8.3978469e+23)
(-5.9198602e+24 6.6047266e+22 8.2818551e+23)
(-7.9517607e+24 8.1657938e+22 -9.7085813e+23)
(-7.8214184e+24 1.5480721e+23 -9.3761629e+23)
(-6.7296082e+24 1.3614496e+23 -1.1117136e+24)
(-6.3169098e+24 1.6399289e+23 -2.6797153e+23)
(-6.1924398e+24 2.6710603e+23 -2.5901551e+23)
(-6.6631137e+24 1.2362836e+23 -1.0780511e+24)
(-4.709456e+24 1.6994808e+23 -1.1345269e+24)
(-4.0511421e+24 -1.444873e+22 -7.3167175e+23)
(-3.9401056e+24 2.2416074e+23 -7.4211688e+23)
(-4.6375835e+24 1.7585527e+23 -1.1341791e+24)
(-3.4536479e+24 -1.2919562e+23 -7.5555631e+23)
(-3.3482107e+24 1.4341497e+23 -7.2971962e+23)
(-3.2590266e+24 -2.9848594e+23 7.8830225e+23)
(-3.0351627e+24 2.5283641e+23 6.9949189e+23)
(-4.6827624e+24 1.7223478e+23 -1.1647554e+24)
(-4.6987825e+24 1.6874474e+23 -1.1384746e+24)
(-3.9785215e+24 2.2020247e+23 -7.3140968e+23)
(-4.0531905e+24 -2.0060073e+22 -7.4366081e+23)
(-3.4361619e+24 -1.465386e+23 -7.5105643e+23)
(-2.7943445e+24 2.8192164e+23 5.8981986e+23)
(-3.1569878e+24 -3.0253274e+23 7.4054563e+23)
(-5.8813834e+24 -1.2418717e+23 -4.932313e+23)
(-6.0443221e+24 1.1732393e+23 -1.2043917e+24)
(-5.9943224e+24 1.524141e+23 -1.2319176e+24)
(-5.7585464e+24 2.4388421e+23 -4.9568705e+23)
(-6.7264256e+24 8.7882272e+22 -1.1300073e+24)
(-6.3373614e+24 1.3008039e+23 -2.6969346e+23)
(-6.3829326e+24 2.1770847e+23 -2.8914636e+23)
(-6.7094478e+24 7.6127417e+22 -1.1068193e+24)
(-6.068535e+24 1.0471707e+23 -1.2404928e+24)
(-6.1008645e+24 7.5611581e+22 -1.2018902e+24)
(-5.8674593e+24 -1.9589381e+23 -4.697421e+23)
(-5.7926436e+24 1.757948e+23 -4.7302259e+23)
(-5.7093123e+24 -2.5935202e+23 -9.6710779e+23)
(-5.6453986e+24 2.039493e+23 -9.5615757e+23)
(-4.357125e+24 -6.0336173e+23 5.634641e+23)
(-4.5428409e+24 1.7720049e+23 6.2482818e+23)
(-5.6799805e+24 -2.128763e+23 -9.764693e+23)
(-5.5122744e+24 2.4469316e+23 -9.3752861e+23)
(-4.5816712e+24 -4.6314117e+23 5.9182933e+23)
(-4.2198971e+24 3.1021412e+23 4.8025725e+23)
(-4.6458382e+24 1.3894613e+23 -1.1805925e+24)
(-4.6718284e+24 1.3925539e+23 -1.1449918e+24)
(-4.0402452e+24 -2.5443061e+22 -7.4664314e+23)
(-3.9702594e+24 2.0571257e+23 -7.3553912e+23)
(-3.4264764e+24 -1.1988355e+23 -7.4121734e+23)
(-3.3532059e+24 1.4397841e+23 -7.2293368e+23)
(-3.2676534e+24 -2.8873282e+23 7.8055664e+23)
(-3.1451999e+24 2.1881442e+23 7.3542492e+23)
(-4.6244726e+24 1.5435196e+23 -1.1499641e+24)
(-4.6556909e+24 1.4414927e+23 -1.1242387e+24)
(-3.9566475e+24 2.1923958e+23 -7.3507211e+23)
(-4.0257351e+24 -2.8027399e+22 -7.2166353e+23)
(-3.4366995e+24 -1.2874845e+23 -7.3797312e+23)
(-3.3300286e+24 1.6548452e+23 -7.2858455e+23)
(-3.2875925e+24 -2.9365044e+23 7.8667804e+23)
(-3.0792776e+24 2.6178805e+23 6.8706343e+23)
(-5.0616156e+24 -4.7994304e+22 9.9604966e+23)
(-5.0132508e+24 1.620275e+23 1.0118984e+24)
(-5.6349451e+24 -1.8005645e+22 1.430097e+24)
(-5.6758862e+24 5.1873081e+22 1.3988038e+24)
(-5.0490409e+24 -7.8152302e+22 1.0067475e+24)
(-5.001711e+24 1.7954865e+23 9.8560793e+23)
(-5.6709708e+24 4.0359991e+22 1.3675989e+24)
(-5.6526203e+24 1.1930395e+22 1.3817917e+24)
(-4.3265467e+24 -2.9661029e+22 9.4525065e+23)
(-4.2624771e+24 1.5451962e+23 9.1210466e+23)
(-4.9251855e+24 8.0570123e+22 1.2152724e+24)
(-4.935925e+24 9.0797593e+22 1.2045573e+24)
(-4.2945213e+24 -1.222426e+22 9.0159742e+23)
(-4.214258e+24 1.8369627e+23 8.9688687e+23)
(-4.8982573e+24 9.3240524e+22 1.1941809e+24)
(-4.9387962e+24 9.6896688e+22 1.181006e+24)
(-4.2806071e+24 -7.4063044e+21 9.0626264e+23)
(-4.1974753e+24 1.8023315e+23 8.7410818e+23)
(-4.9183954e+24 1.1511774e+23 1.1802644e+24)
(-4.9436295e+24 1.192449e+23 1.1790593e+24)
(-4.2546343e+24 3.3677205e+21 8.8676432e+23)
(-4.185292e+24 1.7313977e+23 8.9663862e+23)
(-4.910437e+24 1.2689401e+23 1.1602189e+24)
(-4.8679246e+24 1.1582682e+23 1.1739005e+24)
(-4.9412e+24 1.4356498e+23 1.197128e+24)
(-4.2674871e+24 -3.5742153e+21 9.2916014e+23)
(-4.2047154e+24 1.782538e+23 8.9928773e+23)
(-4.9288425e+24 1.4160365e+23 1.200149e+24)
(-4.2263632e+24 9.3921612e+21 9.0381036e+23)
(-4.1771625e+24 2.4012415e+23 8.9682246e+23)
(-4.8796007e+24 1.7052432e+23 1.1683863e+24)
(-4.9270546e+24 1.5914736e+23 1.1628166e+24)
(-4.2136842e+24 1.3829919e+22 8.8329421e+23)
(-4.1632487e+24 2.5167741e+23 8.4989655e+23)
(-4.8548921e+24 1.8818534e+23 1.1541272e+24)
(-4.8322298e+24 1.8889781e+23 1.1452158e+24)
(-4.8119207e+24 1.7907509e+23 1.1380651e+24)
(-4.1418593e+24 3.0618726e+22 8.4287775e+23)
(-4.0790069e+24 2.6850376e+23 8.1760341e+23)
(-4.763509e+24 1.6390787e+23 1.1331811e+24)
(-4.9741955e+24 1.1897447e+23 9.7750015e+23)
(-5.6791907e+24 -1.8639188e+22 1.4045392e+24)
(-5.8080954e+24 3.7033489e+22 1.4443195e+24)
(-5.0586773e+24 -9.2050002e+22 1.0165104e+24)
(-5.0342468e+24 -9.6544301e+22 9.7487126e+23)
(-4.9966239e+24 1.5073728e+23 1.0147769e+24)
(-5.6920203e+24 -2.322578e+22 1.4247601e+24)
(-5.7208398e+24 1.9507751e+22 1.3764634e+24)
(-6.728243e+24 -2.0836998e+23 3.5873136e+23)
(-6.4507265e+24 5.1710948e+22 -6.2974495e+23)
(-6.3540763e+24 -7.332947e+22 -7.0611925e+23)
(-6.673257e+24 9.4296914e+22 2.8986627e+23)
(-7.3799555e+24 -3.0600778e+23 9.0143978e+23)
(-6.7272544e+24 1.3061824e+23 3.6251539e+23)
(-6.390234e+24 -6.1845207e+22 -6.4292135e+23)
(-6.4154604e+24 4.4389185e+22 -6.2150139e+23)
(-7.5097604e+24 1.7763018e+23 8.0698221e+23)
(-6.6811416e+24 -1.7938153e+23 3.6919748e+23)
(-6.7420423e+24 9.1158195e+22 9.3095716e+23)
(-6.688425e+24 -2.7060143e+23 9.2887728e+23)
(-6.7363225e+24 1.127038e+22 -2.6903986e+23)
(-6.8701541e+24 -1.0558407e+23 -2.2910387e+23)
(-6.7581503e+24 -1.3192474e+23 -3.3664191e+23)
(-6.6912017e+24 1.2824275e+23 8.7563929e+23)
(-6.8448882e+24 -1.6646075e+22 -1.9749578e+23)
(-6.7409102e+24 -2.5627124e+23 9.5562891e+23)
(-6.5080588e+24 1.5693819e+23 -1.6778073e+23)
(-6.3005812e+24 -4.5929319e+23 8.949573e+23)
(-5.7440738e+24 1.2258152e+22 -1.0444776e+24)
(-5.7928462e+24 -3.3251802e+23 -1.0799268e+24)
(-6.314736e+24 1.0108105e+23 8.3002794e+23)
(-5.845196e+24 3.3837905e+22 6.2064596e+22)
(-5.957636e+24 -3.6219115e+22 8.5511324e+22)
(-6.0351866e+24 1.3987633e+23 9.095452e+23)
(-5.9931824e+24 -1.2323838e+23 9.0812544e+23)
(-5.8076516e+24 5.8259193e+22 5.1272249e+22)
(-5.8638036e+24 -1.9113953e+22 5.4767835e+22)
(-6.0240169e+24 1.6751891e+23 8.7805853e+23)
(-5.9622351e+24 -9.400407e+22 9.0533303e+23)
(-5.7584858e+24 9.3836327e+22 3.4022849e+23)
(-5.5409945e+24 -4.4677365e+22 -3.0251171e+23)
(-5.5032427e+24 5.1193582e+22 -2.8388209e+23)
(-5.7560014e+24 -8.3993328e+22 3.6745019e+23)
(-5.854196e+24 8.6967874e+22 3.8579546e+23)
(-5.5389656e+24 1.614144e+22 -2.7164773e+23)
(-5.6037132e+24 -6.8669448e+22 -2.5380471e+23)
(-5.8027871e+24 -1.0444575e+23 3.8116024e+23)
(-5.6127224e+24 3.4763087e+22 7.3626549e+22)
(-5.4928282e+24 4.0900892e+22 -3.9418259e+23)
(-5.5191399e+24 -8.742218e+22 -3.8945293e+23)
(-5.614178e+24 -9.5094532e+22 7.9515296e+22)
(-5.6590053e+24 -8.0614095e+22 3.3281618e+22)
(-5.6547935e+24 4.1751615e+22 3.0585923e+22)
(-5.5011563e+24 -7.2049199e+22 -4.5488699e+23)
(-5.4589228e+24 2.4462776e+22 -4.5651395e+23)
(-6.5163727e+24 1.8369773e+23 -5.1181323e+22)
(-5.4792961e+24 1.360615e+22 -4.4403069e+23)
(-5.5076458e+24 -6.701597e+22 -4.5819988e+23)
(-5.6661844e+24 4.7441276e+22 2.3679179e+22)
(-6.6916616e+24 -1.3387285e+23 4.2546169e+22)
(-5.6598849e+24 -1.0090116e+23 4.4656863e+22)
(-5.4763838e+24 2.9610933e+22 -4.0426201e+23)
(-5.4995357e+24 -8.2165687e+22 -4.233329e+23)
(-5.5498607e+24 5.9732277e+22 2.1266456e+22)
(-5.5414636e+24 -6.8877642e+22 4.671008e+22)
(-6.3654842e+24 1.1093351e+23 -8.40077e+23)
(-6.286181e+24 4.6230718e+22 -8.9046273e+23)
(-5.5835294e+24 6.5211047e+22 5.7615905e+22)
(-5.457303e+24 6.4808547e+22 -4.3961738e+23)
(-5.507689e+24 -7.6632101e+22 -4.2237521e+23)
(-5.5778778e+24 -6.0466496e+22 5.7409979e+22)
(-5.4633375e+24 2.7101131e+22 -4.856294e+23)
(-5.5403846e+24 -8.4394821e+22 -4.7358569e+23)
(-5.6618803e+24 -7.4772207e+22 8.8516074e+21)
(-5.6748644e+24 3.9263917e+22 1.1792746e+22)
(-6.4776545e+24 1.8372746e+23 -9.8946331e+22)
(-5.5321393e+24 -6.0414466e+22 -4.5044247e+23)
(-5.6771142e+24 5.6830935e+22 2.9618494e+22)
(-5.5510655e+24 9.6786035e+22 3.45769e+22)
(-5.5149353e+24 -5.3675744e+22 -4.0273806e+23)
(-5.5517708e+24 -5.6482965e+22 6.0379927e+22)
(-6.0815809e+24 -2.9223676e+20 -9.4639579e+23)
(-7.7684235e+24 1.5474827e+23 1.0392972e+24)
(-5.939744e+24 1.2379917e+23 -2.3756771e+23)
(-6.7258937e+24 3.4729064e+23 2.6712013e+23)
(-6.8211591e+24 -7.7980979e+22 3.1360694e+23)
(-5.9385935e+24 2.2167335e+23 -2.1890831e+23)
(-5.469508e+24 1.5654971e+23 -1.7721042e+23)
(-6.4398022e+24 2.7150226e+23 2.3607342e+23)
(-5.956355e+24 1.9605524e+23 8.6999372e+23)
(-5.9575544e+24 -4.6085221e+22 8.7943596e+23)
(-5.875683e+24 1.0990806e+22 5.3668915e+22)
(-5.7974846e+24 9.9804797e+22 3.8552631e+22)
(-5.7673387e+24 1.3556974e+23 3.5099907e+23)
(-5.7533897e+24 -4.9167575e+22 3.4363315e+23)
(-5.5673934e+24 -2.0384812e+22 -2.5290559e+23)
(-5.5010447e+24 6.019528e+22 -2.8821864e+23)
(-5.5042239e+24 5.4431662e+22 -2.5964643e+23)
(-5.5459379e+24 -6.8978339e+21 -2.7203254e+23)
(-5.7143096e+24 1.4560897e+23 3.3916991e+23)
(-5.7201757e+24 -6.6228041e+22 3.6772285e+23)
(-5.7698019e+24 8.4468277e+22 5.8437031e+22)
(-5.8066635e+24 3.8250514e+22 4.3344221e+22)
(-5.8548224e+24 2.5028777e+23 8.3237039e+23)
(-5.8656286e+24 -4.0484115e+22 8.7369752e+23)
(-4.7242512e+24 1.3513066e+23 6.576972e+23)
(-4.7845483e+24 1.764768e+23 6.7248004e+23)
(-4.8232379e+24 1.8119526e+23 6.8448814e+23)
(-4.782227e+24 1.5309354e+23 6.6128238e+23)
(-4.8962101e+24 1.4235586e+23 7.4052005e+23)
(-4.8681806e+24 1.1129373e+23 7.2149875e+23)
(-4.8733086e+24 1.5925297e+23 6.9610602e+23)
(-4.8083149e+24 1.4809596e+23 6.8675566e+23)
(-5.8555861e+24 3.3048875e+22 8.2680564e+23)
(-5.8221541e+24 -7.2078275e+21 8.6875888e+23)
(-5.9508932e+24 4.34686e+22 9.0500867e+23)
(-5.8412442e+24 -1.8095546e+22 8.6883856e+23)
(-5.8336312e+24 3.495058e+22 8.3246114e+23)
(-5.8297325e+24 5.5600128e+21 8.4331442e+23)
(-5.8289989e+24 -1.9288912e+22 9.0167819e+23)
(-5.8736e+24 5.8143767e+22 8.632336e+23)
(-4.9274299e+24 1.0052876e+23 7.2946477e+23)
(-4.8758364e+24 7.1178833e+22 7.3802337e+23)
(-4.9374656e+24 9.2223449e+22 7.7318051e+23)
(-4.9193968e+24 5.4000357e+22 7.6413861e+23)
(-4.8365084e+24 9.6169787e+22 7.278444e+23)
(-4.8923896e+24 1.2924986e+23 7.1699158e+23)
(-4.9128611e+24 1.1350058e+23 7.2256121e+23)
(-4.8801432e+24 8.5345435e+22 7.1235764e+23)
(-7.9794394e+24 -4.1279505e+22 -9.498641e+23)
(-8.050534e+24 -8.8924531e+22 -9.6473656e+23)
(-8.0330061e+24 1.0607982e+23 -5.7152446e+23)
(-6.8306381e+24 1.1555067e+23 -8.2057743e+23)
(-5.0120024e+24 1.5653231e+23 -6.6173179e+23)
(-5.0546394e+24 1.2577871e+23 -6.5313516e+23)
(-4.951821e+24 1.6310413e+23 -6.3951648e+23)
(-5.0676414e+24 1.3153644e+23 -6.5765173e+23)
(-5.0403541e+24 6.754145e+22 -1.3060552e+24)
(-2.6191461e+24 1.2529585e+23 -9.7467499e+23)
(-2.588051e+24 1.1298202e+23 -9.9065643e+23)
(-2.5836121e+24 -4.7288205e+22 -6.2601099e+23)
(-2.508839e+24 1.440963e+23 -6.1896702e+23)
(-2.6081054e+24 1.2697705e+23 -9.5491766e+23)
(-2.5724204e+24 1.1743821e+23 -9.7958925e+23)
(-2.5915518e+24 -5.0951596e+22 -6.0215197e+23)
(-2.5255686e+24 1.2717897e+23 -6.1919547e+23)
(-2.1015338e+24 -7.9598051e+22 3.1006124e+22)
(-1.9943701e+24 9.4235609e+22 2.3169898e+22)
(-2.8105471e+24 1.8574778e+23 8.8558001e+23)
(-2.8859324e+24 -1.3307809e+23 9.2561296e+23)
(-2.8950785e+24 -1.2396576e+23 9.3847722e+23)
(-2.7936145e+24 2.1637653e+23 8.6177881e+23)
(-2.1487271e+24 -7.014861e+22 8.2204514e+22)
(-1.9914777e+24 9.2383324e+22 1.6824206e+22)
(-5.0349111e+24 5.7988957e+22 -1.3005037e+24)
(-5.0559762e+24 6.5879243e+22 -1.3200179e+24)
(-2.6133593e+24 1.2571459e+23 -9.6760154e+23)
(-2.574738e+24 1.1580406e+23 -9.7932497e+23)
(-2.5437007e+24 -6.1607724e+22 -6.1120826e+23)
(-2.4870261e+24 1.4168213e+23 -6.0325311e+23)
(-2.1257333e+24 -7.0352355e+22 1.9340369e+22)
(-2.8664297e+24 -9.0098678e+22 8.9265986e+23)
(-1.9536149e+24 -7.4893427e+22 -1.1080414e+23)
(-2.9536032e+24 -1.8611621e+23 9.6499865e+23)
(-1.9121098e+24 1.0066771e+23 -6.2781128e+22)
(-2.8136191e+24 2.5434859e+23 8.4431626e+23)
(-6.7666839e+24 5.2321087e+22 -1.1061435e+24)
(-6.3932315e+24 6.5076272e+22 -2.2419608e+23)
(-6.3034444e+24 1.6705234e+23 -2.5469273e+23)
(-6.6995087e+24 3.9788382e+22 -1.080586e+24)
(-6.8190837e+24 9.6701603e+22 -8.3858731e+23)
(-5.0564986e+24 1.0181355e+23 -6.573337e+23)
(-4.991429e+24 1.3218159e+23 -6.7739726e+23)
(-6.2052605e+24 3.390423e+23 -8.0251285e+23)
(-6.3829268e+24 1.6373202e+22 -8.931993e+23)
(-6.8306734e+24 7.8112936e+22 -8.2198213e+23)
(-5.0288947e+24 1.0846702e+23 -6.3732585e+23)
(-4.9714535e+24 1.447102e+23 -6.5593909e+23)
(-6.483038e+24 1.4498906e+23 -2.3019389e+23)
(-6.3754626e+24 4.8992016e+22 -1.8338806e+23)
(-6.7777255e+24 3.7803625e+21 -1.1215443e+24)
(-6.7609668e+24 -1.2236614e+21 -1.1101953e+24)
(-4.0297702e+24 -8.5872778e+22 -6.9051203e+23)
(-4.6891108e+24 6.8585334e+22 -1.0983773e+24)
(-4.6502329e+24 8.3975696e+22 -1.1380233e+24)
(-3.9804631e+24 1.6141832e+23 -6.9092334e+23)
(-4.0097085e+24 -6.5237758e+22 -7.0042282e+23)
(-4.6489433e+24 8.8117333e+22 -1.0958316e+24)
(-4.6118437e+24 9.9057921e+22 -1.1336452e+24)
(-3.968567e+24 1.8631022e+23 -7.2582031e+23)
(-3.4870532e+24 -1.5303077e+23 -7.0439787e+23)
(-3.4414871e+24 1.2973418e+23 -7.0079726e+23)
(-3.0940361e+24 -3.7444335e+23 7.3296039e+23)
(-3.2384719e+24 1.5303785e+23 8.5711974e+23)
(-3.4737919e+24 -1.4372261e+23 -7.3272716e+23)
(-3.41703e+24 1.512184e+23 -7.4476923e+23)
(-3.2949337e+24 -3.770633e+23 8.1972742e+23)
(-3.3207958e+24 2.0027878e+23 8.3190871e+23)
(-4.0522678e+24 -4.5959635e+22 -7.3294756e+23)
(-4.6896126e+24 1.111738e+23 -1.1210154e+24)
(-4.649333e+24 1.2149441e+23 -1.1526777e+24)
(-3.9787352e+24 2.0265136e+23 -7.3045617e+23)
(-4.0100116e+24 -2.3000576e+22 -7.1882357e+23)
(-4.6404964e+24 1.2709143e+23 -1.1013176e+24)
(-4.6056313e+24 1.3846578e+23 -1.1324237e+24)
(-3.9389828e+24 2.2567039e+23 -7.3422203e+23)
(-3.4633376e+24 -1.1819109e+23 -7.5839527e+23)
(-3.3727963e+24 1.7931032e+23 -7.3735741e+23)
(-3.3326983e+24 -3.0645791e+23 8.0165155e+23)
(-3.2039591e+24 2.5533829e+23 7.467728e+23)
(-3.2818199e+24 1.9111507e+23 -7.2668817e+23)
(-3.2582986e+24 -2.3628881e+23 7.3771663e+23)
(-3.414067e+24 -8.757507e+22 -7.3816555e+23)
(-3.0286549e+24 2.6658408e+23 6.215642e+23)
(-5.0386403e+24 8.0317694e+22 -1.3184532e+24)
(-5.0489359e+24 6.7463834e+22 -1.3118465e+24)
(-2.5981261e+24 1.2035479e+23 -9.7603111e+23)
(-2.562675e+24 1.0762273e+23 -9.9457288e+23)
(-2.5602592e+24 -3.3976207e+22 -6.2623339e+23)
(-2.4930625e+24 1.5056575e+23 -6.2041803e+23)
(-2.5896645e+24 1.1721266e+23 -9.6518069e+23)
(-2.5537129e+24 1.0603165e+23 -9.9386195e+23)
(-2.5761479e+24 -3.9915824e+22 -6.0737196e+23)
(-2.5096034e+24 1.5083235e+23 -6.2706677e+23)
(-2.8862991e+24 -1.3286836e+23 8.9774628e+23)
(-2.8169954e+24 1.813672e+23 8.6845696e+23)
(-2.0745925e+24 -4.9819758e+22 3.3635445e+21)
(-1.9791878e+24 1.0704819e+23 -8.4452319e+20)
(-2.8709475e+24 -1.1652415e+23 8.9366918e+23)
(-2.7643758e+24 2.171801e+23 8.3094934e+23)
(-2.1034762e+24 -5.1964373e+22 2.2041919e+22)
(-1.979015e+24 1.1311093e+23 -1.700687e+22)
(-5.0308357e+24 6.4321505e+22 -1.3075344e+24)
(-5.0628723e+24 7.3588025e+22 -1.3081427e+24)
(-2.5940864e+24 1.1693942e+23 -9.6870477e+23)
(-2.5606172e+24 1.1046415e+23 -9.8295978e+23)
(-2.5749372e+24 -4.5688954e+22 -6.1229234e+23)
(-2.4969162e+24 1.6046846e+23 -6.1311138e+23)
(-2.5939569e+24 1.2678357e+23 -9.6043603e+23)
(-2.5573449e+24 1.1386386e+23 -9.8580774e+23)
(-2.5693843e+24 -2.4113619e+22 -6.0934337e+23)
(-2.4841649e+24 1.6112551e+23 -6.3253924e+23)
(-2.0572188e+24 -5.9138349e+22 -1.2169957e+22)
(-2.8448257e+24 -1.1546324e+23 8.8445961e+23)
(-1.9609779e+24 1.1701375e+23 -2.537757e+22)
(-2.7573741e+24 2.1271725e+23 8.4105522e+23)
(-2.0955476e+24 -3.8910694e+22 2.237363e+22)
(-1.972928e+24 1.2158841e+23 -1.3587342e+20)
(-2.8302943e+24 -9.7321106e+22 8.6648126e+23)
(-2.7343633e+24 1.95109e+23 8.269693e+23)
(-4.300709e+24 1.530216e+22 9.3089381e+23)
(-4.2472555e+24 1.9930551e+23 9.1194105e+23)
(-4.915556e+24 9.7356513e+22 1.1776369e+24)
(-4.9296763e+24 1.0697482e+23 1.1682134e+24)
(-4.2737969e+24 2.4733559e+22 9.0804439e+23)
(-4.8952618e+24 1.0067339e+23 1.1704117e+24)
(-4.2308317e+24 1.6927786e+23 9.114133e+23)
(-4.8598972e+24 6.5204045e+22 1.1856832e+24)
(-4.2585626e+24 -2.3404378e+22 9.2654581e+23)
(-4.2406592e+24 1.761234e+23 9.1957862e+23)
(-4.9063257e+24 7.9185938e+22 1.1548576e+24)
(-4.9021806e+24 7.5874635e+22 1.1698092e+24)
(-4.906272e+24 9.3142787e+22 1.1450578e+24)
(-4.2392079e+24 2.0181525e+22 9.0418874e+23)
(-4.2244629e+24 2.0381559e+23 9.1089557e+23)
(-4.8827563e+24 8.3010324e+22 1.1652159e+24)
(-3.4372376e+24 1.7756871e+23 9.3028358e+23)
(-3.4510149e+24 -3.1399028e+22 9.6282619e+23)
(-4.2701287e+24 1.0350024e+23 9.7998413e+23)
(-4.2618083e+24 1.1162263e+23 9.7316232e+23)
(-3.3889207e+24 1.9069992e+23 9.292717e+23)
(-3.4133737e+24 -1.4191801e+22 9.3170931e+23)
(-4.2708824e+24 1.0268356e+23 9.6081619e+23)
(-4.2458626e+24 1.1249006e+23 9.4558536e+23)
(-3.4169815e+24 1.9515746e+23 9.2353e+23)
(-3.4334779e+24 -3.9315155e+22 9.6217859e+23)
(-4.2819435e+24 1.0686744e+23 9.5437618e+23)
(-4.2715911e+24 1.3219829e+23 9.6443173e+23)
(-3.3439021e+24 2.2509285e+23 9.0765655e+23)
(-3.3762684e+24 1.5866473e+22 9.1896641e+23)
(-4.2295181e+24 1.2654933e+23 9.3014206e+23)
(-4.2065617e+24 1.2791339e+23 9.3387711e+23)
(-3.3839835e+24 2.0936794e+23 9.1851643e+23)
(-3.3995887e+24 -9.6673153e+21 9.4765683e+23)
(-4.2548218e+24 1.1633201e+23 9.2563565e+23)
(-4.2595673e+24 1.3186912e+23 9.5676563e+23)
(-3.3456447e+24 2.1274699e+23 9.2095121e+23)
(-3.352246e+24 -2.4151158e+21 9.1598609e+23)
(-4.2391766e+24 1.2332355e+23 9.0667985e+23)
(-4.2210475e+24 1.3810635e+23 9.1591266e+23)
(-4.2582773e+24 1.2993025e+23 9.4166343e+23)
(-3.4164034e+24 -2.2548556e+22 9.5951341e+23)
(-3.3891529e+24 2.072133e+23 9.1880211e+23)
(-4.2460678e+24 1.4955864e+23 9.5132188e+23)
(-3.3414948e+24 2.1289405e+23 9.1986329e+23)
(-3.3724844e+24 5.3525907e+21 9.3214186e+23)
(-4.2068111e+24 1.3951594e+23 9.2545919e+23)
(-4.1870965e+24 1.4248002e+23 9.3700681e+23)
(-3.3453393e+24 2.3719522e+23 9.1837082e+23)
(-3.3938243e+24 1.8011603e+22 9.4880732e+23)
(-4.2468265e+24 1.3507478e+23 9.6692636e+23)
(-4.2242612e+24 1.4780367e+23 9.4669032e+23)
(-3.3759352e+24 2.1848592e+23 9.206215e+23)
(-3.3411047e+24 -3.1072279e+21 9.0896314e+23)
(-4.2371496e+24 1.2912231e+23 9.1471549e+23)
(-4.2282166e+24 1.4803559e+23 9.4673384e+23)
(-3.4224204e+24 -3.4040452e+21 9.7180843e+23)
(-4.2346617e+24 1.4722853e+23 9.1823605e+23)
(-3.3732552e+24 2.4159857e+23 9.1695868e+23)
(-4.2336037e+24 1.74113e+23 9.5080766e+23)
(-4.200673e+24 1.8209012e+23 9.0879396e+23)
(-3.3580906e+24 1.0397964e+23 8.8852748e+23)
(-3.2314141e+24 4.0932267e+23 8.2412027e+23)
(-4.1675308e+24 2.2029653e+23 8.898983e+23)
(-3.2273702e+24 1.6916241e+23 8.6971816e+23)
(-3.0057246e+24 1.207746e+23 7.2440303e+23)
(-4.2198434e+24 1.7626945e+23 8.7326294e+23)
(-4.222636e+24 1.6680564e+23 9.0280839e+23)
(-4.2155143e+24 1.8306495e+23 8.7360755e+23)
(-3.3130533e+24 1.1555973e+23 8.7566235e+23)
(-2.8985739e+24 2.9960753e+23 6.381092e+23)
(-4.1688462e+24 2.0351577e+23 8.288094e+23)
(-3.2769627e+24 2.121993e+23 8.9627856e+23)
(-3.2446715e+24 -4.0969578e+22 8.995211e+23)
(-4.2039277e+24 1.4847464e+23 8.7527217e+23)
(-4.1884866e+24 1.9634434e+23 8.8154007e+23)
(-2.5239871e+24 3.7548213e+23 4.3474714e+23)
(-3.1962023e+24 2.1146992e+23 8.1395027e+23)
(-4.1590164e+24 2.0835328e+23 8.9000702e+23)
(-4.0411244e+24 2.0520265e+23 7.5850959e+23)
(-4.2386356e+24 -2.1008285e+22 9.239154e+23)
(-4.2246726e+24 1.5557899e+23 9.4431624e+23)
(-4.933023e+24 7.0280925e+22 1.1628916e+24)
(-4.9052431e+24 5.0431216e+22 1.1910555e+24)
(-4.286704e+24 -6.4253819e+21 9.656818e+23)
(-4.2252877e+24 1.4571855e+23 9.4504505e+23)
(-4.9786338e+24 9.2019385e+22 1.2013168e+24)
(-4.9670327e+24 7.3510398e+22 1.2143574e+24)
(-4.980036e+24 7.4864651e+22 1.1784518e+24)
(-4.2853263e+24 -2.4943347e+22 9.4093867e+23)
(-4.2064305e+24 1.6510154e+23 9.1184709e+23)
(-4.9323727e+24 7.6119998e+22 1.1693392e+24)
(-4.2406277e+24 4.1086848e+21 9.1191835e+23)
(-4.192072e+24 1.7157998e+23 9.2018472e+23)
(-4.920341e+24 8.8187695e+22 1.1580232e+24)
(-4.880028e+24 6.2922564e+22 1.1813768e+24)
(-5.5241866e+24 2.0391602e+22 -3.5803871e+23)
(-5.5513039e+24 -6.1050431e+22 -3.7369431e+23)
(-5.6053941e+24 -9.1657843e+22 1.0855489e+23)
(-5.6282165e+24 8.3421939e+22 8.7165844e+22)
(-5.6728618e+24 -9.5590799e+22 5.8922906e+22)
(-5.6819426e+24 6.3848351e+22 3.6585874e+22)
(-5.5314519e+24 -4.2033111e+22 -4.3999318e+23)
(-5.5056007e+24 2.5792105e+22 -4.2688515e+23)
(-6.5898775e+24 -1.0778018e+23 5.4353557e+22)
(-5.6581429e+24 4.8680137e+22 2.3313371e+22)
(-5.4550319e+24 4.5391152e+22 -4.682007e+23)
(-5.4677852e+24 -7.5633745e+22 -4.7108807e+23)
(-5.647603e+24 -6.49919e+22 2.1128967e+22)
(-6.4198218e+24 1.6352507e+23 -5.8727331e+22)
(-5.4614127e+24 5.3986819e+22 -4.2673473e+23)
(-5.5190763e+24 -6.9235803e+22 -3.9699204e+23)
(-5.5512255e+24 4.5831453e+22 2.6697248e+22)
(-5.5340936e+24 -7.3110867e+22 2.7452224e+22)
(-5.9908279e+24 -1.089924e+22 -9.2969143e+23)
(-6.2793196e+24 1.5697275e+23 -8.315799e+23)
(-5.5060137e+24 5.4977685e+22 -3.6814112e+23)
(-5.6220495e+24 -8.3322293e+22 9.9886673e+22)
(-5.6740496e+24 -6.3780902e+22 5.3427334e+22)
(-5.4662747e+24 4.2156224e+22 -4.4351126e+23)
(-5.5090268e+24 -5.6717314e+22 -4.433858e+23)
(-5.647703e+24 5.5461925e+22 4.2270047e+22)
(-6.5838058e+24 -1.3908135e+23 8.9310901e+22)
(-5.4128858e+24 2.2702864e+22 -4.9768088e+23)
(-5.5733807e+24 -9.4813435e+22 4.0910851e+22)
(-6.2359165e+24 1.1645569e+23 -7.9500606e+23)
(-5.4355701e+24 3.5702371e+22 -4.0285001e+23)
(-5.5094325e+24 -7.6803818e+22 5.0809398e+22)
(-5.4807608e+24 -7.6131552e+22 -4.1014441e+23)
(-5.5298573e+24 5.5703464e+22 3.0208542e+22)
(-5.9815262e+24 1.3817307e+23 9.3181496e+23)
(-5.8479777e+24 3.2320985e+22 9.2868107e+22)
(-5.9260938e+24 -1.4054642e+23 9.0779603e+23)
(-5.817656e+24 3.4331813e+22 7.963171e+22)
(-5.8420881e+24 -3.3793383e+22 4.8792895e+22)
(-5.9154943e+24 -1.2479944e+23 9.1724655e+23)
(-5.9343829e+24 1.4172696e+23 8.827528e+23)
(-5.7282964e+24 7.8059068e+22 3.440737e+23)
(-5.5288266e+24 -5.0122542e+22 -2.8463663e+23)
(-5.7141102e+24 -1.1194535e+23 3.7273872e+23)
(-5.4918375e+24 2.8420609e+22 -2.6529851e+23)
(-5.5564466e+24 2.1814626e+22 -2.4037844e+23)
(-5.7607747e+24 -1.0731246e+23 3.8647813e+23)
(-5.5257196e+24 -4.8489578e+22 -2.9114772e+23)
(-5.5140886e+24 4.4960028e+22 -2.8482395e+23)
(-5.7297247e+24 -8.0152076e+22 3.4935408e+23)
(-5.728372e+24 9.8354228e+22 3.3838415e+23)
(-5.8190852e+24 5.3036238e+22 5.9386205e+22)
(-5.8382451e+24 -2.3628594e+22 4.7685637e+22)
(-5.8854495e+24 1.308792e+23 8.4972718e+23)
(-5.8943234e+24 -1.1581851e+23 8.6805956e+23)
(-5.7668636e+24 1.052747e+23 3.7449148e+23)
(-5.5982905e+24 -2.1908405e+22 -2.5052613e+23)
(-5.5536661e+24 9.9508465e+21 -2.2903212e+23)
(-5.7486182e+24 -1.2425005e+23 4.0147961e+23)
(-5.8567555e+24 1.562267e+22 1.0698019e+23)
(-5.8904038e+24 -1.2898462e+22 8.7405915e+22)
(-5.9079541e+24 1.6472636e+23 8.8483628e+23)
(-5.8880719e+24 -1.255518e+23 9.1841166e+23)
(-5.3966274e+24 1.5516301e+23 -1.2432114e+23)
(-6.3549939e+24 2.8108487e+23 2.835949e+23)
(-6.4980663e+24 -4.6475772e+22 3.6168208e+23)
(-5.457517e+24 2.2673205e+23 -1.1624343e+23)
(-4.7280455e+24 3.8812837e+22 -5.1963517e+22)
(-4.6856296e+24 8.1006583e+22 -3.6283742e+22)
(-4.8990456e+24 1.28197e+23 4.4274387e+23)