/*--------------------------------*- C++ -*----------------------------------*\
  =========                 |
  \\      /  F ield         | OpenFOAM: The Open Source CFD Toolbox
   \\    /   O peration     | Website:  https://openfoam.org
    \\  /    A nd           | Version:  7
     \\/     M anipulation  |
\*---------------------------------------------------------------------------*/
FoamFile
{
    version     2.0;
    format      ascii;
    class       volScalarField;
    location    "5000";
    object      k;
}
// * * * * * * * * * * * * * * * * * * * * * * * * * * * * * * * * * * * * * //

dimensions      [0 2 -2 0 0 0 0];

internalField   nonuniform List<scalar> 
34158
(
1.5205036
1.519577
1.5192369
1.5189532
1.5197663
1.5211343
1.5203432
1.519525
1.5230975
1.5230232
1.519033
1.5193775
1.5192244
1.5189859
1.5191594
1.5197291
1.521708
1.5210161
1.5201724
1.519474
1.5175455
1.51701
1.5229464
1.5231003
1.5225114
1.5231976
1.5231382
1.5224886
1.5221841
1.5222721
1.5222849
1.5221931
1.5221474
1.5222304
1.5170813
1.5169111
1.5175341
1.5177783
1.5178423
1.5191204
1.518162
1.519411
1.51921
1.5190138
1.5179025
1.5180497
1.5190995
1.5190462
1.5196836
1.5217066
1.5217165
1.5208749
1.5200316
1.5194436
1.5239821
1.5243154
1.517656
1.5165427
1.5174183
1.5169738
1.522547
1.5192988
1.523152
1.522424
1.5223467
1.5232437
1.5216837
1.521769
1.5219351
1.5218509
1.5219619
1.5220522
1.522078
1.5219804
1.5221277
1.5222287
1.5222335
1.5220714
1.5220766
1.5220514
1.5221942
1.5220989
1.5215486
1.5215116
1.5215036
1.5215472
1.5214604
1.521411
1.5214943
1.5214528
1.5214673
1.5215033
1.5214861
1.5215522
1.5215495
1.5215447
1.5215373
1.5215034
1.5214967
1.5214965
1.5215053
1.5214554
1.521415
1.5214665
1.5214272
1.5247857
1.5246373
1.5173301
1.5164207
1.517266
1.5169351
1.5176767
1.5180343
1.5175183
1.51773
1.5165325
1.5164177
1.5177679
1.5178607
1.5191771
1.5181147
1.5181016
1.519432
1.5192017
1.5190413
1.5179762
1.5169434
1.5167865
1.5180983
1.5170004
1.5170353
1.5190476
1.5189922
1.5189234
1.5196459
1.5217527
1.5217491
1.5216881
1.5207454
1.5199386
1.5194476
1.5250174
1.5242713
1.5241927
1.524461
1.5163147
1.5175401
1.5156909
1.5165042
1.5157061
1.5159216
1.5157985
1.5225176
1.5205389
1.5193596
1.5181855
1.5182346
1.5183626
1.5185567
1.5184034
1.5217987
1.5216628
1.5217427
1.5219217
1.5219428
1.5218496
1.5220343
1.5220475
1.5218613
1.5218688
1.5207854
1.5208128
1.5209781
1.5209612
1.5206715
1.520643
1.5208422
1.5208654
1.5209387
1.520911
1.5209185
1.520945
1.5210558
1.5210513
1.521031
1.521037
1.5211436
1.5211456
1.5211613
1.5211527
1.5210269
1.5210564
1.5210387
1.5210678
1.5210856
1.5210523
1.521087
1.5211765
1.5211623
1.5211873
1.5211876
1.5157472
1.5216007
1.5216116
1.5215927
1.5216151
1.5215361
1.521548
1.5216194
1.5215595
1.5215583
1.5216155
1.5215861
1.5215688
1.521572
1.5215201
1.5215205
1.5157686
1.5206695
1.5206594
1.5206223
1.5206091
1.5205949
1.5205526
1.5205436
1.5204956
1.5203737
1.5204463
1.5204947
1.5204227
1.5204925
1.520552
1.5205753
1.5205084
1.5205056
1.5204792
1.5205591
1.5205862
1.5204221
1.5203773
1.520468
1.520508
1.5204588
1.520539
1.5205068
1.5206199
1.5206489
1.5204881
1.5204753
1.5205496
1.5205668
1.5205053
1.5204935
1.5205714
1.520579
1.5206371
1.5205205
1.520524
1.5206356
1.5206129
1.5204955
1.5205207
1.5206321
1.5206809
1.5206677
1.5206167
1.5206315
1.5205034
1.5205597
1.5205756
1.5205155
1.5206324
1.5206819
1.5206717
1.5206147
1.5204971
1.5205046
1.5205499
1.5205513
1.5206432
1.5206474
1.5205995
1.5205917
1.5206167
1.5206058
1.5205582
1.5205689
1.5205176
1.5204468
1.5204558
1.5205143
1.5204889
1.5204907
1.5205499
1.5205501
1.5206215
1.520499
1.5204727
1.5205825
1.5205414
1.5204524
1.5204429
1.5205191
1.5206317
1.5205147
1.5205197
1.5206222
1.5205618
1.5204814
1.5204873
1.5205614
1.5193387
1.5196171
1.5197882
1.5254432
1.5248874
1.524617
1.5244171
1.5158367
1.5174312
1.5154999
1.5164646
1.517527
1.5177004
1.516793
1.5176815
1.5171602
1.5180224
1.5175148
1.5176961
1.5165386
1.5153453
1.5155291
1.5164362
1.5153223
1.5155064
1.5176774
1.517776
1.517863
1.5192205
1.5180018
1.5180187
1.5180412
1.5194477
1.5192094
1.5190776
1.5181547
1.5166811
1.5165421
1.5168187
1.5169467
1.5182544
1.5167584
1.5167164
1.5170023
1.5170386
1.5189181
1.518868
1.5188151
1.5196164
1.5217973
1.5217592
1.5216506
1.5206393
1.5198908
1.5194999
1.5252337
1.5251652
1.5216323
1.5244704
1.5162115
1.5161652
1.5156259
1.5156291
1.5158688
1.5157702
1.5141659
1.5143956
1.5156245
1.5157597
1.5159801
1.5159415
1.5157636
1.5158263
1.5161123
1.5161298
1.5144441
1.5141789
1.5158397
1.5158208
1.5137454
1.5180641
1.518211
1.5196312
1.5195183
1.5197503
1.5196496
1.5197829
1.5198199
1.5180251
1.517915
1.518282
1.5183943
1.518061
1.5181392
1.5180779
1.5178774
1.5179085
1.5179025
1.5179047
1.5179102
1.5178702
1.5178754
1.51792
1.5179255
1.5179733
1.5181336
1.5180387
1.5181975
1.5181094
1.5179994
1.5180119
1.5181394
1.5209224
1.5209454
1.5210665
1.5209941
1.5210878
1.5211579
1.5211433
1.5211485
1.5210789
1.5210815
1.5138547
1.521266
1.5212851
1.5138523
1.5212408
1.5212515
1.5211801
1.5211851
1.521282
1.5212086
1.5212722
1.521213
1.5195849
1.5195154
1.5196453
1.5197017
1.5196646
1.5197307
1.5198494
1.5197818
1.5199633
1.5199431
1.519881
1.5199113
1.5198074
1.519738
1.5197739
1.5198417
1.5195843
1.5194643
1.5195976
1.5197028
1.5195532
1.5194765
1.5196052
1.5196725
1.519748
1.5197095
1.5197921
1.5198289
1.5198343
1.5197143
1.5197542
1.5198662
1.5198575
1.5197288
1.519721
1.5198437
1.5198113
1.5197332
1.5197309
1.5198029
1.5197458
1.5197322
1.5198101
1.5198307
1.5198543
1.5197258
1.5197577
1.5198798
1.5199873
1.5199954
1.5199261
1.5199245
1.5199969
1.5199839
1.5199171
1.5199327
1.5197841
1.5197752
1.519828
1.5198342
1.5198327
1.5197738
1.5197784
1.5198363
1.5199241
1.5198436
1.5198557
1.5199241
1.519984
1.5200312
1.520053
1.5199938
1.5200787
1.5200803
1.5200161
1.5200203
1.5199381
1.5198698
1.5198802
1.5199441
1.5199162
1.5198231
1.5199215
1.5198261
1.5199614
1.5198364
1.5198383
1.519959
1.519842
1.5199259
1.5199345
1.5198491
1.5198573
1.5198452
1.5199632
1.5199296
1.5198863
1.5200324
1.5199816
1.5198403
1.5198525
1.5199351
1.5199257
1.5198507
1.5198565
1.5200923
1.5200871
1.5200168
1.5200217
1.519871
1.5199427
1.5198735
1.5199306
1.5199777
1.5198927
1.5199118
1.5199994
1.5200388
1.5200917
1.5200995
1.5200374
1.5156822
1.5157394
1.5156758
1.5157368
1.5208877
1.5209253
1.5209426
1.5209432
1.5207493
1.5207914
1.5208069
1.5207798
1.5208294
1.5208505
1.5208525
1.5208348
1.5208665
1.5208634
1.5208354
1.5208458
1.5208682
1.5208705
1.5208485
1.5208434
1.5157749
1.5209032
1.5209184
1.52078
1.5208144
1.5208173
1.5207883
1.5208107
1.5208357
1.5208354
1.5208088
1.5157486
1.5157771
1.5157518
1.5189516
1.5189152
1.5184796
1.5184482
1.5188162
1.5187431
1.5183453
1.5182588
1.5180674
1.5179616
1.5180624
1.5181574
1.5182566
1.5181462
1.518183
1.5182853
1.5181291
1.5180929
1.5180877
1.5181242
1.5180139
1.51791
1.5179005
1.5180121
1.5180524
1.5181618
1.5181254
1.5181946
1.51823
1.5181577
1.5181416
1.5181378
1.5181559
1.5181761
1.5181511
1.5181479
1.5181689
1.5182675
1.5181879
1.5182066
1.5182763
1.5182581
1.5181782
1.5181965
1.5182675
1.5189753
1.5189598
1.5184935
1.5185147
1.5183037
1.5181957
1.5182249
1.5183263
1.5185105
1.5189851
1.5189817
1.5185096
1.5183126
1.5183073
1.51819
1.5182014
1.5189881
1.5189704
1.5185001
1.5185118
1.5189232
1.5189043
1.5184427
1.5184629
1.5181672
1.5182576
1.518277
1.5181742
1.5183268
1.5183121
1.518209
1.5182277
1.5182787
1.5181933
1.5181764
1.518248
1.5181387
1.5181252
1.5181273
1.5181271
1.5182898
1.5182115
1.5182258
1.5181654
1.5181606
1.5181824
1.5181808
1.5176616
1.5196049
1.5194807
1.5194202
1.5195332
1.5190292
1.5192815
1.5193172
1.5190613
1.5195842
1.5203968
1.5195668
1.5198483
1.5259487
1.5253055
1.5216491
1.5246809
1.516002
1.5156198
1.5153957
1.5155645
1.5178794
1.5175467
1.5175219
1.5176648
1.517048
1.5172152
1.51673
1.5167639
1.5176859
1.5171063
1.5171255
1.5180085
1.5175249
1.5176771
1.5166675
1.5151781
1.5150019
1.515333
1.5154964
1.516573
1.5151807
1.5154747
1.5153071
1.5149883
1.5176545
1.5177559
1.5178571
1.5192544
1.517884
1.5179307
1.5179887
1.5194565
1.5192445
1.5191406
1.5184161
1.5165997
1.5163735
1.5164987
1.5167151
1.5157721
1.5155829
1.5184958
1.516789
1.5165521
1.5165136
1.5167463
1.5158089
1.5157263
1.518775
1.5187312
1.5187159
1.5195982
1.5218159
1.521729
1.521628
1.5205519
1.5251821
1.525467
1.5212824
1.5216616
1.5160499
1.5160528
1.5155484
1.5155471
1.5161206
1.5161244
1.5161122
1.5161086
1.5161884
1.5161976
1.5161971
1.5162029
1.5160674
1.5160451
1.515943
1.5159488
1.5161448
1.5161315
1.5140548
1.514277
1.5142906
1.5142877
1.5142767
1.5142647
1.5144193
1.5145948
1.5145857
1.5144445
1.5157376
1.5157418
1.5159698
1.5159357
1.5156177
1.5156543
1.5158171
1.5158307
1.5160363
1.5160288
1.5160527
1.5160662
1.5160171
1.5160336
1.5160597
1.515647
1.5158132
1.5156792
1.5158211
1.5160806
1.5160963
1.5160833
1.5160687
1.5161466
1.5161458
1.5161578
1.516176
1.5161744
1.5143214
1.5146481
1.5144312
1.5140747
1.5142797
1.5142862
1.5142794
1.5142857
1.515848
1.5158509
1.515827
1.5158265
1.5139236
1.5157677
1.5158195
1.5158164
1.5157703
1.5162235
1.5139152
1.5179779
1.5178484
1.5179196
1.5180375
1.5171359
1.517062
1.5170093
1.5170269
1.5170382
1.5178071
1.5177515
1.5177361
1.5177917
1.5176573
1.5176688
1.5176744
1.51772
1.517714
1.5162381
1.5179125
1.5178884
1.5179479
1.5179534
1.5179136
1.5179161
1.5180365
1.5181089
1.5179725
1.518021
1.5179171
1.5179876
1.5161602
1.5176335
1.5176357
1.5176277
1.5176247
1.5175969
1.5176213
1.5176307
1.5176327
1.5176149
1.517609
1.5176267
1.5176262
1.517611
1.5176059
1.517567
1.5175771
1.5176027
1.5175907
1.5176031
1.5175781
1.5175709
1.5175948
1.5176246
1.5175892
1.5175738
1.5176072
1.5175793
1.5175877
1.517621
1.5176136
1.5176019
1.5176511
1.5176677
1.5176166
1.5176107
1.5176602
1.5176869
1.5176441
1.5176247
1.517666
1.5178176
1.5177057
1.5177628
1.5178712
1.5176628
1.5176827
1.5177422
1.517725
1.5178378
1.5177586
1.5178837
1.5179521
1.5178063
1.5177498
1.5177349
1.5178032
1.517692
1.5176936
1.5176736
1.5176649
1.5176596
1.5176308
1.5176172
1.5176431
1.5177237
1.5176857
1.5177755
1.5178166
1.5201839
1.5200272
1.5199568
1.5200528
1.520082
1.52016
1.5201571
1.5201351
1.5201481
1.5202501
1.5139652
1.5138961
1.520307
1.5203057
1.5201807
1.5202094
1.520214
1.520191
1.5201948
1.5202164
1.5202154
1.5201887
1.5138747
1.5139228
1.513872
1.5139218
1.5203871
1.5204016
1.5204312
1.520438
1.5139629
1.5138979
1.5202882
1.5202823
1.5202411
1.5202594
1.5202806
1.5203062
1.5203056
1.5202775
1.5203132
1.5203423
1.5203457
1.520314
1.5203325
1.5202971
1.5203065
1.5203345
1.5170645
1.51718
1.5171471
1.517012
1.5173622
1.5178418
1.5178557
1.5173453
1.5179539
1.5179228
1.5174078
1.5174409
1.517055
1.5171921
1.5172261
1.5170805
1.5169983
1.5169577
1.5168971
1.516937
1.5169512
1.5169843
1.5169272
1.5168877
1.5169853
1.5169592
1.5169117
1.5169365
1.5169551
1.5169107
1.5169334
1.5169685
1.516957
1.5169034
1.5168776
1.5169188
1.5168912
1.5169282
1.5169172
1.5168702
1.5169292
1.516903
1.5168577
1.5168835
1.5169119
1.5168612
1.5168848
1.5169244
1.5179243
1.5179163
1.5173716
1.5173926
1.5179334
1.5179082
1.5173766
1.5173923
1.5171607
1.5171564
1.5170126
1.5170085
1.5169939
1.5171385
1.5171663
1.5170163
1.5170401
1.5171688
1.5171614
1.5170193
1.5173735
1.5179046
1.5179197
1.5173741
1.5179791
1.5179544
1.5174013
1.5174307
1.5170363
1.5171707
1.5172057
1.5170655
1.5169263
1.5169551
1.5169117
1.5169386
1.5169924
1.5169372
1.5169182
1.51696
1.5169524
1.5169163
1.5169475
1.5169803
1.5169515
1.5169236
1.5169671
1.5171391
1.517028
1.5171351
1.5170092
1.516996
1.5170064
1.5169747
1.5169686
1.5169828
1.5169877
1.5179643
1.517972
1.5174174
1.5174047
1.5171854
1.5170769
1.5171975
1.5170579
1.5170866
1.5172019
1.5172895
1.5171805
1.5174116
1.517968
1.5180192
1.5174825
1.5156693
1.515617
1.5156226
1.5156695
1.5157378
1.515735
1.5157353
1.5157378
1.5156608
1.5156028
1.5156016
1.5156599
1.5157357
1.5157323
1.5157322
1.5157357
1.520186
1.5202084
1.5202648
1.5202736
1.5202848
1.5202941
1.5203023
1.5203052
1.5194815
1.5195297
1.5196062
1.5196276
1.5196364
1.5196491
1.5196604
1.5196623
1.5157688
1.5157692
1.515769
1.5157694
1.5202463
1.5202544
1.5202811
1.5202876
1.5195922
1.5196083
1.5196443
1.5196571
1.515748
1.5157479
1.5157709
1.5157714
1.5157715
1.5157711
1.51575
1.5157305
1.5157319
1.5157501
1.515727
1.5158262
1.5158133
1.5157259
1.515693
1.5157776
1.5157823
1.5156987
1.516161
1.5157685
1.5157604
1.5161556
1.5161295
1.5157323
1.5157369
1.5161313
1.5157021
1.5155949
1.5156686
1.5156171
1.5156217
1.5154601
1.5155327
1.515544
1.5156311
1.5156574
1.5160229
1.516049
1.5154801
1.5158852
1.5159674
1.5155755
1.5160137
1.5159283
1.5163344
1.5164093
1.5164703
1.5163854
1.5167246
1.5168008
1.5165543
1.5165227
1.5168515
1.5168877
1.5160941
1.51607
1.5164587
1.516484
1.5165643
1.5161711
1.5161766
1.5165646
1.5166221
1.5166201
1.5169516
1.5169507
1.5166639
1.5166575
1.5169875
1.5169983
1.5162002
1.5162047
1.5165954
1.516596
1.5170745
1.5170588
1.5173352
1.5173514
1.5170259
1.5170254
1.5172999
1.5173015
1.5176254
1.51739
1.5173939
1.5176197
1.5176617
1.5174257
1.5174449
1.5176703
1.516966
1.5169226
1.5172004
1.5172419
1.5170728
1.5167861
1.516876
1.5171504
1.5173817
1.5171482
1.5172407
1.5174585
1.5175277
1.5172891
1.517335
1.5175599
1.5176625
1.5176269
1.5178052
1.5178377
1.5177718
1.5177609
1.5179347
1.5179451
1.5179093
1.5177255
1.5177206
1.5178959
1.5181355
1.5180032
1.5179913
1.5181191
1.5181628
1.5180286
1.5180412
1.518167
1.5171153
1.5171108
1.5173862
1.5173906
1.5170672
1.5170883
1.517361
1.5173406
1.51769
1.5174546
1.5174361
1.5176633
1.5177126
1.5174775
1.517487
1.5177112
1.5171139
1.5171039
1.5173804
1.5173867
1.5173865
1.5171045
1.5170874
1.5173613
1.5177147
1.5174802
1.5174548
1.5176821
1.5177099
1.5174718
1.517479
1.5177054
1.5182295
1.5181014
1.5180674
1.5181944
1.5179962
1.5178168
1.5177847
1.5179605
1.517808
1.5178117
1.5179863
1.517983
1.5182156
1.5180815
1.5180795
1.5182068
1.5182039
1.5180738
1.5180429
1.5181692
1.5179712
1.5177907
1.5177652
1.5179395
1.5178141
1.5178124
1.5179846
1.5179864
1.5182113
1.5180787
1.5180833
1.5182087
1.515782
1.5158594
1.5158786
1.5157905
1.515788
1.5158702
1.5158542
1.5157801
1.5162113
1.5158175
1.5158089
1.5161945
1.5162147
1.5158185
1.5158281
1.5162196
1.516643
1.5162548
1.5162374
1.5166214
1.516678
1.5166971
1.5170226
1.5170049
1.5167087
1.5167009
1.5170253
1.5170327
1.5162624
1.5162585
1.5166406
1.5166448
1.5162037
1.5158189
1.5158244
1.5161937
1.5157915
1.5158694
1.5158889
1.515799
1.5157984
1.5158809
1.5158845
1.5158031
1.5158263
1.5162199
1.5158276
1.5162097
1.5162503
1.5162599
1.5166482
1.5166357
1.5166296
1.5162432
1.516231
1.516605
1.5166615
1.5166842
1.5170064
1.5169825
1.5166973
1.5167024
1.51703
1.5170265
1.5159217
1.5158516
1.5158499
1.5159277
1.5158366
1.5158259
1.5159098
1.5158866
1.5158367
1.5162422
1.5158596
1.5162112
1.5162491
1.5158704
1.5158621
1.5162307
1.5158103
1.5158807
1.5158851
1.515816
1.5158132
1.515801
1.5158878
1.5158651
1.5162197
1.5158402
1.515816
1.5161887
1.5158374
1.5158377
1.5162129
1.5162104
1.5166777
1.5167071
1.5170364
1.5170045
1.5166434
1.5162601
1.5162285
1.5166094
1.5166266
1.5162512
1.5162534
1.5166289
1.5166899
1.5166792
1.5169983
1.5170106
1.5162838
1.5162979
1.5166831
1.5166708
1.5162619
1.5162837
1.5166639
1.5166432
1.5167048
1.5167198
1.5170428
1.5170294
1.5167345
1.5167376
1.5170612
1.51706
1.5182634
1.5181373
1.518088
1.5182158
1.5180297
1.517851
1.5178062
1.5179805
1.517783
1.5177767
1.5179503
1.5179544
1.5181799
1.5180444
1.5180493
1.5181753
1.5177354
1.5175023
1.517467
1.5176921
1.5173956
1.5171126
1.5170824
1.5173586
1.5170856
1.5170698
1.5173402
1.5173528
1.517665
1.5174309
1.5174469
1.5176692
1.5182409
1.5181108
1.5180853
1.5182133
1.5180072
1.5178253
1.5178054
1.5179795
1.5178334
1.5178255
1.5179976
1.518003
1.5177147
1.5174826
1.5174719
1.517694
1.5171026
1.5171128
1.517382
1.5173699
1.5171376
1.5171304
1.5174001
1.5174087
1.5177183
1.5174871
1.5175021
1.5177228
1.517521
1.5177296
1.5177571
1.5180033
1.5179436
1.5173683
1.5176391
1.517687
1.5174094
1.5174649
1.5176645
1.5177185
1.5193913
1.5175712
1.5195233
1.5187177
1.5192143
1.5192855
1.5187778
1.5183996
1.5195919
1.5216005
1.5204699
1.5260335
1.5257031
1.5216553
1.5209661
1.5158448
1.5154737
1.5153153
1.5154719
1.5175938
1.5178421
1.5166757
1.5175411
1.5175182
1.5176348
1.5171179
1.5164029
1.5165799
1.5166745
1.516519
1.5172529
1.516728
1.5168427
1.5167807
1.5166651
1.5166251
1.516673
1.5167317
1.5176895
1.5170035
1.5170498
1.5170886
1.517996
1.5175627
1.5176832
1.5168874
1.5147598
1.515026
1.5151773
1.5149014
1.5141728
1.5139893
1.5168055
1.5149148
1.5147459
1.5150059
1.5151737
1.5142363
1.5140118
1.5176095
1.5177167
1.5178397
1.5192966
1.5177597
1.5178395
1.5179294
1.5194732
1.516579
1.5164755
1.5163023
1.5161942
1.5155702
1.5155864
1.5157328
1.5157378
1.5160119
1.5159973
1.516023
1.5160359
1.5156919
1.5159062
1.5159115
1.5157098
1.516594
1.516628
1.5163045
1.5163334
1.5157743
1.5157687
1.5157062
1.5157041
1.5160396
1.5160426
1.5160655
1.5160628
1.515997
1.5158867
1.515906
1.5160112
1.518627
1.518584
1.5186132
1.5218074
1.5216975
1.5216203
1.5251434
1.5254089
1.5208768
1.5212241
1.515873
1.5154602
1.5162529
1.5162244
1.5162174
1.5162457
1.5162246
1.5162531
1.5162562
1.5162284
1.5162259
1.5162206
1.5161972
1.5162021
1.5162213
1.5162124
1.5161893
1.5161973
1.5161188
1.5161203
1.5161117
1.516109
1.5161295
1.5161308
1.5161217
1.5161212
1.5161202
1.5161215
1.5161314
1.5161309
1.516128
1.5161366
1.5161371
1.5161277
1.5162094
1.5161937
1.5161647
1.5161781
1.5161457
1.5161741
1.5161598
1.5161334
1.5160341
1.5160627
1.5161023
1.5159774
1.5159589
1.5160675
1.5160724
1.5160725
1.5160812
1.5160801
1.5160583
1.5160659
1.5160611
1.5160532
1.5142562
1.5142445
1.5142577
1.5142685
1.514245
1.5142565
1.5142581
1.514247
1.5142562
1.5142532
1.5142661
1.5142688
1.5142682
1.5142647
1.5142792
1.5142759
1.5142676
1.5142663
1.5142554
1.514257
1.514378
1.514386
1.5145466
1.5145612
1.5143487
1.5143717
1.5143881
1.5143696
1.514512
1.5145407
1.5146422
1.514641
1.5146533
1.5145415
1.5145622
1.5146513
1.5143707
1.5144123
1.5143975
1.5143888
1.5156283
1.5158663
1.515834
1.5156364
1.5158735
1.5156531
1.5156603
1.5159165
1.5161038
1.5160733
1.5161034
1.5161381
1.5160685
1.5161009
1.5160652
1.5160379
1.51543
1.5155211
1.5155371
1.515462
1.5154443
1.515501
1.5155621
1.5155266
1.5157625
1.5157487
1.5157786
1.5157703
1.5157553
1.5157629
1.5157826
1.5157796
1.5159629
1.5159753
1.515981
1.5159706
1.5159583
1.5159745
1.5159835
1.5159704
1.51601
1.5159991
1.5160004
1.5160122
1.5160064
1.5160114
1.5160125
1.5160077
1.515974
1.515978
1.5159661
1.5159852
1.5159771
1.5159652
1.5159758
1.5159871
1.5160017
1.5160127
1.5160144
1.5160044
1.5155192
1.515486
1.5155544
1.5155754
1.5157528
1.5157641
1.5157761
1.5157687
1.5155037
1.5155673
1.5155963
1.5155441
1.5157523
1.5157644
1.5157782
1.5157703
1.5162028
1.5161755
1.516186
1.5162138
1.5162268
1.5162004
1.5162027
1.516231
1.5161985
1.5161749
1.5161746
1.5161992
1.5161707
1.516148
1.5161583
1.5161827
1.5160685
1.5160752
1.5160831
1.516078
1.516067
1.5160731
1.5160922
1.5160871
1.5160832
1.5160914
1.5160902
1.5160815
1.5161113
1.516112
1.5161041
1.5161037
1.5161002
1.5161066
1.5161093
1.5160967
1.5162051
1.5159581
1.5145997
1.5146129
1.5143891
1.514403
1.5147758
1.5145553
1.5143675
1.514389
1.5143664
1.5143402
1.5142672
1.5142557
1.5142503
1.514259
1.5142397
1.5142529
1.5142526
1.5142399
1.5142521
1.5142642
1.5142563
1.5142428
1.5142627
1.514251
1.5142505
1.5142623
1.5142635
1.5142544
1.5163241
1.5162837
1.5158495
1.5163764
1.5163564
1.5158181
1.5139509
1.5139974
1.5139895
1.5139476
1.5162682
1.5163407
1.5158214
1.5157395
1.5161906
1.5162627
1.5140185
1.5139624
1.5139594
1.5140093
1.5169316
1.5169419
1.5169801
1.5169761
1.5171752
1.517121
1.517084
1.5171471
1.5170622
1.5169806
1.5169248
1.5170194
1.5168556
1.5168432
1.5169454
1.5169562
1.5168532
1.5168824
1.5169811
1.5169587
1.5168826
1.5168654
1.5169702
1.5169864
1.5169988
1.5169617
1.5169325
1.5169675
1.5169391
1.5169401
1.5169512
1.5169806
1.5169703
1.5162399
1.5162388
1.5177182
1.5176813
1.5176905
1.5176902
1.5176805
1.5176852
1.5176997
1.5177011
1.5176881
1.5176927
1.5177055
1.517706
1.5176929
1.5177255
1.5177286
1.5177561
1.51776
1.5177624
1.5177584
1.5178096
1.5177941
1.517819
1.5178449
1.5177728
1.5178082
1.5161745
1.516115
1.5161752
1.516117
1.5171921
1.5171883
1.5170642
1.517069
1.5170145
1.5169781
1.5171514
1.5171553
1.517019
1.5170128
1.5171494
1.5171519
1.5170212
1.517011
1.5169481
1.5169635
1.5169268
1.5169081
1.5169179
1.5169569
1.5169499
1.5169092
1.5169044
1.5169071
1.5168865
1.516881
1.5168868
1.5168954
1.5168894
1.516881
1.5168898
1.5169096
1.516921
1.5168983
1.5168899
1.51691
1.5168919
1.5168958
1.5168678
1.5168619
1.5168603
1.5168668
1.5168607
1.5168511
1.516873
1.5169033
1.5169272
1.516897
1.5169031
1.5168733
1.516862
1.5168892
1.517184
1.5171781
1.5170176
1.5170164
1.5171619
1.5171744
1.5170283
1.5170072
1.5169187
1.516961
1.5169367
1.516891
1.5168928
1.5169416
1.5169403
1.5168887
1.5140629
1.5193689
1.5193969
1.5186062
1.5186395
1.5194675
1.5194591
1.5187
1.5187175
1.5139925
1.5140613
1.5139917
1.5139099
1.5139064
1.51391
1.5139064
1.5194894
1.5194995
1.5194996
1.5195048
1.518707
1.5187211
1.5187201
1.5187232
1.5138915
1.5138908
1.5138907
1.5138913
1.5139319
1.5139317
1.5139677
1.5139642
1.5138889
1.5138897
1.5138889
1.5138896
1.5139297
1.5139678
1.5139297
1.513967
1.5195524
1.519562
1.519581
1.5195831
1.5196099
1.5196132
1.5196201
1.5196361
1.5139852
1.5140464
1.5140392
1.5139852
1.5139105
1.5139103
1.5139079
1.5139079
1.5187362
1.5187528
1.5187808
1.5187874
1.5188191
1.5188458
1.5188088
1.5188101
1.51537
1.5155622
1.5158896
1.5157258
1.5154958
1.5150739
1.5148786
1.515315
1.5148252
1.5147866
1.5152177
1.5152526
1.5152987
1.5152684
1.5156192
1.515649
1.5143741
1.5149995
1.5145601
1.5148224
1.5144124
1.5145533
1.5142959
1.5144043
1.5143566
1.5142087
1.5143104
1.514232
1.5147257
1.514288
1.514321
1.5147708
1.5141533
1.514292
1.5143124
1.5141658
1.5141527
1.5142879
1.5142848
1.5141501
1.5147361
1.5142605
1.5142497
1.5147168
1.5147546
1.5142629
1.5142655
1.5147484
1.5152534
1.5152756
1.5156353
1.5156174
1.5152254
1.5147882
1.5147649
1.5152026
1.5147965
1.5148045
1.5152466
1.5152474
1.5152921
1.5152886
1.51565
1.5156611
1.5169086
1.5167931
1.5167121
1.5168458
1.5167145
1.5165596
1.5164499
1.5166264
1.5163721
1.5163497
1.5165336
1.516553
1.5167626
1.5166128
1.5166341
1.5167728
1.5164821
1.5162788
1.5161368
1.5163659
1.5162068
1.5159471
1.5157776
1.5160622
1.5157029
1.5156732
1.5159598
1.5159892
1.5162654
1.5160262
1.5160561
1.5162854
1.5157138
1.5156992
1.5159896
1.5160073
1.5156705
1.5156888
1.5159807
1.5159658
1.5162886
1.5160468
1.5160315
1.5162703
1.5162933
1.5160509
1.5160716
1.5163079
1.516799
1.5166507
1.5166264
1.5167701
1.5165592
1.516367
1.516348
1.5165359
1.516385
1.5163678
1.5165534
1.5165706
1.5167835
1.5166327
1.5166528
1.5167957
1.5168079
1.5166542
1.5166196
1.5167726
1.5165578
1.5163597
1.5163319
1.5165261
1.5163093
1.5162757
1.51647
1.516501
1.5167126
1.516551
1.5165854
1.5167345
1.5162678
1.5160164
1.5159883
1.5162414
1.5159409
1.5156397
1.5156
1.5159076
1.5156037
1.5155698
1.5158732
1.5159036
1.5161915
1.5159399
1.5159751
1.5162192
1.5156414
1.5156017
1.5159078
1.5159451
1.5155799
1.5155818
1.5158889
1.5158865
1.5162139
1.5159603
1.5159544
1.5161996
1.516227
1.5159747
1.5160182
1.5162607
1.5167458
1.5165891
1.5165653
1.5167145
1.5164939
1.5162943
1.516279
1.516473
1.5163427
1.5163049
1.5164977
1.5165309
1.5167355
1.5165795
1.516616
1.5167596
1.5140412
1.5140505
1.5141696
1.5141885
1.514157
1.5140328
1.5141578
1.5140283
1.514122
1.5145943
1.5145978
1.5141201
1.514145
1.5141373
1.5146191
1.5146375
1.514026
1.5140692
1.5141421
1.5142138
1.5140458
1.5141735
1.5141802
1.5140456
1.514142
1.5146342
1.514146
1.5146187
1.5145926
1.5141144
1.5141605
1.514638
1.514686
1.5146435
1.5150988
1.515144
1.5151527
1.5146904
1.5146679
1.5151239
1.5151684
1.5152034
1.5155771
1.5155392
1.5151877
1.5151449
1.5155133
1.5155481
1.5151491
1.515153
1.5155228
1.5155187
1.5151012
1.5146442
1.5146473
1.5150946
1.5146881
1.514668
1.5151168
1.515145
1.5151971
1.5151621
1.5155386
1.5155721
1.5151812
1.515206
1.5155923
1.5155759
1.5151432
1.5146674
1.5146427
1.5151122
1.5146505
1.5146036
1.5150612
1.5151047
1.5151605
1.5151167
1.5154973
1.5155335
1.5146013
1.5141027
1.5140806
1.514577
1.5139971
1.5141283
1.5141137
1.5139829
1.5139737
1.5140904
1.5139989
1.514124
1.5140906
1.514539
1.5140634
1.5145807
1.5140257
1.5140177
1.5141455
1.5141651
1.5139923
1.5141117
1.5139992
1.5141215
1.514579
1.5140907
1.5140738
1.5145568
1.5141185
1.5145974
1.5141094
1.5146178
1.5151522
1.5151617
1.5155472
1.5155417
1.5150965
1.5146386
1.5146148
1.5150823
1.5146828
1.5146553
1.515126
1.5151647
1.5152279
1.5151827
1.5155675
1.5156161
1.5163203
1.5160609
1.5160386
1.5162901
1.5159725
1.5156542
1.515641
1.5159569
1.5162502
1.5159855
1.5160294
1.5162745
1.515612
1.5155697
1.5158986
1.5159427
1.5168538
1.5167044
1.5166659
1.5168125
1.5166069
1.5164083
1.5163758
1.5165711
1.5163538
1.51633
1.5165222
1.5165429
1.5167542
1.5165991
1.5166242
1.5167694
1.5156082
1.5156219
1.5159468
1.5159203
1.5162786
1.5160219
1.5159919
1.5162412
1.5162721
1.5160139
1.5160662
1.5163091
1.5156794
1.5156257
1.5159357
1.5159834
1.5163922
1.5163507
1.5165471
1.5165824
1.5165603
1.5163606
1.5163219
1.5165174
1.5167953
1.5166429
1.5165995
1.5167512
1.515999
1.5158313
1.5161564
1.5163085
1.5157603
1.5157357
1.5160518
1.5160733
1.5165135
1.5162425
1.5164106
1.5166531
1.5163948
1.5161348
1.5161617
1.5164104
1.5156965
1.5156658
1.5159759
1.5160077
1.5160276
1.5157129
1.5156839
1.5159958
1.5163585
1.5161022
1.5160737
1.516327
1.5163109
1.516051
1.5160853
1.516328
1.5164105
1.5163914
1.516585
1.5166041
1.5166439
1.5164442
1.5164121
1.516605
1.5141441
1.5140351
1.5141385
1.5140335
1.5141413
1.5140553
1.5141747
1.5140332
1.5141102
1.5141436
1.5146354
1.5146016
1.5146118
1.5141151
1.5146009
1.5141089
1.5146782
1.5151492
1.515153
1.5146693
1.5152251
1.5152531
1.5156459
1.515611
1.5151813
1.5147
1.514666
1.5151472
1.5152251
1.5152117
1.5155938
1.5156124
1.5152808
1.515266
1.5156574
1.5156724
1.5147072
1.5151855
1.5151948
1.5147026
1.5147837
1.5152737
1.5154097
1.5149105
1.5155006
1.515347
1.5157461
1.5158943
1.514132
1.5146256
1.5141486
1.51463
1.5140795
1.5140644
1.5141799
1.5141655
1.5143485
1.5141378
1.5142532
1.5141983
1.5142156
1.5147051
1.5148209
1.5143174
1.515671
1.5155898
1.5155734
1.5156561
1.5157444
1.5157397
1.515724
1.5157285
1.5156466
1.5156465
1.5156497
1.5156495
1.5155355
1.5155331
1.5155818
1.515582
1.5155188
1.5155777
1.5155239
1.5155762
1.5156441
1.5156479
1.5156433
1.5156468
1.5157275
1.5157276
1.5157282
1.5157281
1.5157214
1.5157241
1.5157239
1.5157217
1.5157203
1.5157196
1.5157221
1.5157232
1.515727
1.5157263
1.5157277
1.5157269
1.5154497
1.5154916
1.5155732
1.5156471
1.5156795
1.5157133
1.5155467
1.5155492
1.515618
1.5157762
1.5157878
1.5156203
1.5156244
1.5158111
1.5156252
1.5158201
1.5158751
1.5156963
1.5156985
1.5158722
1.5158623
1.5158857
1.5157009
1.515701
1.5157058
1.5158783
1.5157061
1.5159025
1.5158863
1.5157068
1.5157071
1.5159108
1.5157581
1.5157592
1.5157591
1.5157583
1.5157598
1.5157592
1.5157598
1.5157593
1.5157578
1.5157589
1.5157571
1.5157583
1.5157595
1.5157588
1.5157589
1.5157583
1.5159005
1.5157373
1.5159037
1.5157385
1.5159173
1.5157399
1.5158939
1.5157399
1.5157407
1.515928
1.5159356
1.5157409
1.5157403
1.5159514
1.5157397
1.5159685
1.5157344
1.5157332
1.5157338
1.515735
1.515735
1.515734
1.5157741
1.515775
1.5157604
1.5157596
1.5157483
1.5157221
1.5157351
1.5155687
1.515551
1.5155632
1.5155759
1.51556
1.5155452
1.5155445
1.5155629
1.5156403
1.5155446
1.5155574
1.5156616
1.5156444
1.515539
1.5155377
1.5156445
1.5154943
1.5154895
1.5154805
1.515501
1.5154288
1.5153384
1.5153145
1.5154353
1.5154763
1.5154907
1.5155796
1.5156038
1.5153031
1.5153978
1.5155329
1.5154265
1.5155804
1.5154375
1.5154948
1.5156515
1.515742
1.5155653
1.5156462
1.5158457
1.5158201
1.5158005
1.5159062
1.5159242
1.5156503
1.5156283
1.5157002
1.515721
1.5157674
1.5156925
1.5156905
1.5157579
1.5158443
1.5158531
1.5159525
1.5159469
1.5158691
1.5158504
1.5159548
1.5159753
1.5157052
1.5156879
1.5157559
1.5157729
1.5161002
1.5160779
1.5162143
1.5162396
1.5160666
1.5160693
1.5162018
1.516199
1.5164993
1.5163432
1.5163408
1.5164841
1.5165191
1.5163593
1.5163879
1.5165381
1.5160441
1.5160274
1.5161581
1.5161759
1.5158603
1.5157384
1.5159605
1.5160837
1.5161086
1.5159759
1.5162109
1.5163389
1.5164453
1.5162983
1.5163171
1.5164582
1.5165899
1.5165669
1.5166702
1.5167077
1.5166786
1.516653
1.5167738
1.5168072
1.5167624
1.5166315
1.5166189
1.5167418
1.5169301
1.5168542
1.5168395
1.5169172
1.516949
1.5168681
1.5169077
1.5169882
1.5161716
1.5161528
1.5162935
1.5163153
1.5161773
1.5161777
1.5163208
1.5163209
1.516629
1.5164699
1.5164703
1.516615
1.5166063
1.5164426
1.5164661
1.5166176
1.5161704
1.5161531
1.5162923
1.5163115
1.5162996
1.5161492
1.51615
1.51629
1.5166064
1.5164468
1.5164383
1.5165832
1.5166049
1.5164422
1.516461
1.5166066
1.5170366
1.5169654
1.5169454
1.5170146
1.5168686
1.516739
1.5167198
1.5168404
1.5167443
1.5167425
1.5168628
1.5168654
1.5170371
1.5169587
1.5169615
1.5170354
1.5170467
1.5169834
1.5169637
1.5170252
1.5168886
1.5167625
1.5167492
1.5168644
1.5167571
1.5167428
1.5168638
1.5168831
1.5170418
1.5169588
1.5169812
1.5170617
1.5156418
1.5156221
1.5156217
1.5156424
1.5156365
1.5156179
1.5156183
1.5156395
1.5157057
1.5156102
1.5156097
1.515704
1.5157024
1.5156121
1.5156121
1.5157098
1.515824
1.5157517
1.5157492
1.5158164
1.5159037
1.5159099
1.5160135
1.5160103
1.5159215
1.5159071
1.5160135
1.5160293
1.5157554
1.5157461
1.5158125
1.5158241
1.5157164
1.5156264
1.5156181
1.5157096
1.5156514
1.5156368
1.5156267
1.5156488
1.51565
1.515632
1.5156406
1.5156553
1.5156321
1.515714
1.5156227
1.5157245
1.5157678
1.515757
1.5158232
1.5158347
1.5158296
1.5157572
1.5157571
1.5158276
1.51592
1.5159209
1.5160327
1.5160321
1.5159232
1.5159097
1.516015
1.5160309
1.5156656
1.5156894
1.515688
1.5156687