/*--------------------------------*- C++ -*----------------------------------*\
  =========                 |
  \\      /  F ield         | OpenFOAM: The Open Source CFD Toolbox
   \\    /   O peration     | Website:  https://openfoam.org
    \\  /    A nd           | Version:  7
     \\/     M anipulation  |
\*---------------------------------------------------------------------------*/
FoamFile
{
    version     2.0;
    format      ascii;
    class       volScalarField;
    location    "5000";
    object      p;
}
// * * * * * * * * * * * * * * * * * * * * * * * * * * * * * * * * * * * * * //

dimensions      [0 2 -2 0 0 0 0];

internalField   nonuniform List<scalar> 
34158
(
-1.0438714e+62
-1.0438308e+62
-1.0439855e+62
-1.0437853e+62
-1.0397251e+62
-1.0398192e+62
-1.008227e+62
-1.0080278e+62
-8.3552145e+61
-8.3692588e+61
-1.0394476e+62
-1.0396421e+62
-1.0077831e+62
-1.007381e+62
-1.0376965e+62
-1.0042256e+62
-1.0378653e+62
-1.0044978e+62
-9.7001513e+61
-9.695805e+61
-8.9127811e+61
-8.9144022e+61
-8.3407986e+61
-8.3471954e+61
-7.6016552e+61
-7.9979494e+61
-8.0126419e+61
-7.6130247e+61
-8.3708421e+61
-8.5796141e+61
-8.5842414e+61
-8.3720154e+61
-8.3798234e+61
-8.588601e+61
-7.7162413e+61
-7.7248004e+61
-1.0061493e+62
-1.006803e+62
-1.0372723e+62
-1.0033867e+62
-1.0376183e+62
-1.0038824e+62
-9.6917819e+61
-9.6860109e+61
-9.7425511e+61
-9.7480332e+61
-1.037604e+62
-1.0028666e+62
-9.667044e+61
-1.037795e+62
-1.0031768e+62
-9.6721157e+61
-9.304212e+61
-9.2978088e+61
-8.9086254e+61
-8.9034712e+61
-8.9011941e+61
-8.9027872e+61
-8.5074188e+61
-8.5106724e+61
-7.1466906e+61
-8.3348136e+61
-7.9815301e+61
-7.5917409e+61
-7.5822883e+61
-7.9880481e+61
-8.3585858e+61
-8.5653864e+61
-8.5686148e+61
-8.3537165e+61
-8.3571412e+61
-8.5707043e+61
-8.5794265e+61
-8.3686368e+61
-7.5104119e+61
-8.1497176e+61
-8.1494184e+61
-7.8701965e+61
-7.8661791e+61
-7.8737948e+61
-8.1581253e+61
-7.5222633e+61
-8.4408793e+61
-8.448705e+61
-8.5689271e+61
-8.5646485e+61
-8.656281e+61
-8.6589009e+61
-8.7405108e+61
-8.6592583e+61
-8.6568171e+61
-8.7409784e+61
-8.7434771e+61
-8.4384909e+61
-8.5632273e+61
-8.4436158e+61
-8.5664375e+61
-8.4542908e+61
-8.4476126e+61
-8.5690763e+61
-8.5738401e+61
-8.7455972e+61
-8.6606492e+61
-8.7465469e+61
-8.6632149e+61
-7.6942534e+61
-7.7048803e+61
-7.7496539e+61
-7.7583379e+61
-8.1100518e+61
-8.1158629e+61
-1.0020516e+62
-1.0027243e+62
-9.6722818e+61
-9.6792738e+61
-9.7359939e+61
-9.7296039e+61
-1.0371449e+62
-1.0017755e+62
-9.6558073e+61
-1.0375124e+62
-1.002444e+62
-9.6624152e+61
-9.2919314e+61
-9.2842463e+61
-9.3333277e+61
-9.7163223e+61
-9.7106543e+61
-9.3408718e+61
-9.7231548e+61
-9.7182596e+61
-1.0375938e+62
-1.0026641e+62
-9.6570655e+61
-9.2759969e+61
-1.0377852e+62
-1.0029907e+62
-9.662769e+61
-9.2832201e+61
-8.8968456e+61
-8.8886299e+61
-8.8925355e+61
-8.8978963e+61
-8.5018029e+61
-8.4947116e+61
-8.8997976e+61
-8.5089664e+61
-8.9002947e+61
-8.5123339e+61
-9.7725369e+61
-9.7786203e+61
-7.1067238e+61
-7.1263632e+61
-8.8001925e+61
-7.9729891e+61
-7.57259e+61
-8.3453567e+61
-8.5533046e+61
-8.5641549e+61
-8.3585566e+61
-8.1353447e+61
-7.8530378e+61
-7.8457507e+61
-8.1290828e+61
-7.4993872e+61
-7.4891092e+61
-8.1323864e+61
-8.1453654e+61
-7.8488532e+61
-7.8648447e+61
-8.5585198e+61
-8.4374396e+61
-8.4290952e+61
-8.5518552e+61
-8.7261941e+61
-8.6460565e+61
-8.6414125e+61
-8.7247571e+61
-8.7261699e+61
-8.6417277e+61
-8.6436757e+61
-8.7271409e+61
-8.4254694e+61
-8.4232652e+61
-8.5487761e+61
-8.550179e+61
-8.5527566e+61
-8.4267361e+61
-8.4280684e+61
-8.5536822e+61
-8.6444371e+61
-8.727533e+61
-8.6463521e+61
-8.7307706e+61
-8.660355e+61
-8.6528469e+61
-8.7351184e+61
-8.4358469e+61
-8.5604932e+61
-8.5709356e+61
-8.4493723e+61
-7.4831078e+61
-7.8425659e+61
-7.8376932e+61
-8.3039883e+61
-8.2949346e+61
-8.1124441e+61
-8.0997231e+61
-8.2924174e+61
-8.0972215e+61
-8.105916e+61
-8.2984299e+61
-7.84484e+61
-8.3030956e+61
-8.3094107e+61
-8.1102721e+61
-8.1121762e+61
-7.4949707e+61
-8.519059e+61
-8.521437e+61
-8.5934239e+61
-8.5961229e+61
-8.5279816e+61
-8.5373487e+61
-8.601762e+61
-8.60735e+61
-8.6560308e+61
-8.6981147e+61
-8.6952438e+61
-8.6517849e+61
-8.6472952e+61
-8.6922251e+61
-8.6911167e+61
-8.6454161e+61
-8.7303837e+61
-8.7311495e+61
-8.7655428e+61
-8.7650641e+61
-8.7330851e+61
-8.7349037e+61
-8.7673478e+61
-8.7665998e+61
-8.7975273e+61
-8.7966413e+61
-8.7969401e+61
-8.8289107e+61
-8.8290671e+61
-8.7323047e+61
-8.729171e+61
-8.7638136e+61
-8.7666521e+61
-8.7285853e+61
-8.7295406e+61
-8.764336e+61
-8.763199e+61
-8.8279043e+61
-8.7956455e+61
-8.7942059e+61
-8.8261302e+61
-8.8269694e+61
-8.7949842e+61
-8.7978305e+61
-8.8295862e+61
-8.5152102e+61
-8.5169111e+61
-8.5915825e+61
-8.591123e+61
-8.6438787e+61
-8.6898075e+61
-8.6888014e+61
-8.6432845e+61
-8.5943091e+61
-8.5188168e+61
-8.5260537e+61
-8.598358e+61
-8.6488086e+61
-8.6454861e+61
-8.6897663e+61
-8.6932821e+61
-8.5351077e+61
-8.5266234e+61
-8.600307e+61
-8.6057211e+61
-8.5246311e+61
-8.5273851e+61
-8.5992557e+61
-8.5989639e+61
-8.6944624e+61
-8.6496197e+61
-8.6496709e+61
-8.6941482e+61
-8.654997e+61
-8.6507221e+61
-8.6951913e+61
-8.6984387e+61
-8.8310896e+61
-8.7993752e+61
-8.7990968e+61
-8.8303464e+61
-8.7676134e+61
-8.7332306e+61
-8.7329555e+61
-8.7674616e+61
-8.8308158e+61
-8.7993828e+61
-8.800268e+61
-8.8314697e+61
-8.7680279e+61
-8.7336843e+61
-8.7361619e+61
-8.7696081e+61
-7.1546112e+61
-7.6709149e+61
-7.6821666e+61
-7.7257857e+61
-7.7376339e+61
-8.0920603e+61
-8.1009673e+61
-7.7780526e+61
-8.1229853e+61
-7.7879198e+61
-8.129518e+61
-9.6648201e+61
-9.6566356e+61
-1.0003347e+62
-9.6434259e+61
-1.0010125e+62
-9.6497095e+61
-9.2683461e+61
-9.2766166e+61
-9.3251203e+61
-9.7065052e+61
-9.707912e+61
-9.3160286e+61
-9.7053772e+61
-9.7006929e+61
-1.0371324e+62
-1.0015469e+62
-9.6431538e+61
-9.2622939e+61
-1.0375015e+62
-1.0022372e+62
-9.6511554e+61
-9.2694283e+61
-8.8794296e+61
-8.869974e+61
-8.9036865e+61
-9.3093662e+61
-9.3059935e+61
-9.5169584e+61
-9.5218795e+61
-8.9132653e+61
-9.3137654e+61
-9.3157998e+61
-9.5286665e+61
-9.5249649e+61
-1.0026482e+62
-9.6544559e+61
-9.2699984e+61
-8.8754901e+61
-1.0029757e+62
-9.6602812e+61
-9.2781248e+61
-8.8845803e+61
-8.4860815e+61
-8.4762209e+61
-8.892676e+61
-8.4961103e+61
-8.8978013e+61
-8.503938e+61
-8.8987506e+61
-8.513506e+61
-8.8982361e+61
-8.5159304e+61
-9.591008e+61
-9.5978214e+61
-9.7697712e+61
-9.769702e+61
-9.5824549e+61
-9.7661335e+61
-9.7696439e+61
-9.866713e+61
-9.8626039e+61
-9.5885193e+61
-9.7727682e+61
-9.7742927e+61
-9.7668519e+61
-9.7693558e+61
-7.5289862e+61
-7.5167071e+61
-7.0855358e+61
-7.1064328e+61
-8.7980951e+61
-8.8693161e+61
-8.8413809e+61
-8.8693182e+61
-8.8411118e+61
-8.8413451e+61
-8.8413931e+61
-8.7924348e+61
-8.7879582e+61
-8.118261e+61
-8.1332434e+61
-7.8303556e+61
-7.8483815e+61
-7.4787571e+61
-8.4081632e+61
-8.4205151e+61
-8.4148836e+61
-8.5338281e+61
-8.540485e+61
-8.6222927e+61
-8.6284142e+61
-8.7066284e+61
-8.7117768e+61
-8.6360607e+61
-8.6439959e+61
-8.7178557e+61
-8.7242612e+61
-8.4399139e+61
-8.4290928e+61
-8.5482439e+61
-8.5568788e+61
-8.0959252e+61
-8.2902231e+61
-8.2800341e+61
-8.0817555e+61
-7.8215831e+61
-7.8147358e+61
-8.2743322e+61
-8.2776839e+61
-8.0770237e+61
-8.0833874e+61
-7.4714718e+61
-7.8194059e+61
-7.8370943e+61
-7.4605106e+61
-8.2790118e+61
-8.2803745e+61
-8.0849501e+61
-8.0835279e+61
-8.303607e+61
-8.0919142e+61
-8.2886135e+61
-8.1107306e+61
-8.6864454e+61
-8.6463044e+61
-8.6413542e+61
-8.6835258e+61
-8.5968643e+61
-8.5254774e+61
-8.5163008e+61
-8.5907022e+61
-8.5060257e+61
-8.5090736e+61
-8.58465e+61
-8.580804e+61
-8.6798299e+61
-8.6360745e+61
-8.6325045e+61
-8.6772354e+61
-8.812026e+61
-8.7813163e+61
-8.7807718e+61
-8.8114223e+61
-8.7518427e+61
-8.7209023e+61
-8.7190716e+61
-8.7508552e+61
-8.7158098e+61
-8.7171717e+61
-8.7497314e+61
-8.7495781e+61
-8.8112843e+61
-8.7801939e+61
-8.7804232e+61
-8.8116534e+61
-8.8110408e+61
-8.7802774e+61
-8.7783775e+61
-8.8092678e+61
-8.7490452e+61
-8.7146999e+61
-8.7131406e+61
-8.7473868e+61
-8.7154449e+61
-8.7138158e+61
-8.747676e+61
-8.7488109e+61
-8.8095859e+61
-8.778195e+61
-8.7794144e+61
-8.811391e+61
-8.5079831e+61
-8.5017662e+61
-8.5770819e+61
-8.5813755e+61
-8.4995669e+61
-8.5029876e+61
-8.577849e+61
-8.5759565e+61
-8.6280744e+61
-8.6297682e+61
-8.6753395e+61
-8.673665e+61
-8.6744823e+61
-8.6288565e+61
-8.6327542e+61
-8.6770715e+61
-8.6781972e+61
-8.6350987e+61
-8.6331328e+61
-8.6775039e+61
-8.5830217e+61
-8.5085282e+61
-8.5041696e+61
-8.5806096e+61
-8.508714e+61
-8.503646e+61
-8.5797275e+61
-8.5833011e+61
-8.6778784e+61
-8.6321257e+61
-8.6353838e+61
-8.6809543e+61
-8.7485051e+61
-8.7152883e+61
-8.7489018e+61
-8.7154206e+61
-8.8119949e+61
-8.77966e+61
-8.7801618e+61
-8.8122859e+61
-8.716668e+61
-8.750586e+61
-8.7540557e+61
-8.7199453e+61
-8.7850882e+61
-8.7819078e+61
-8.8141697e+61
-8.7344004e+61
-8.7299811e+61
-8.7655441e+61
-8.7610413e+61
-8.7263264e+61
-8.7232216e+61
-8.7565959e+61
-8.7583543e+61
-8.7877949e+61
-8.7866458e+61
-8.5196445e+61
-8.5132898e+61
-8.5877748e+61
-8.5945585e+61
-8.6452829e+61
-8.6845616e+61
-8.6394507e+61
-8.6888234e+61
-8.6937014e+61
-8.6524711e+61
-8.6573068e+61
-8.698477e+61
-8.6026218e+61
-8.5285429e+61
-8.5380839e+61
-8.60817e+61
-7.8365334e+61
-7.8303074e+61
-7.8315219e+61
-7.8257319e+61
-8.1276002e+61
-8.11337e+61
-8.1097186e+61
-8.1181515e+61
-8.4456508e+61
-8.3196416e+61
-8.3043579e+61
-8.4344108e+61
-8.4272791e+61
-8.2972377e+61
-8.2989219e+61
-8.4259738e+61
-8.291148e+61
-8.296712e+61
-8.4239227e+61
-8.4213072e+61
-8.3085206e+61
-8.2949524e+61
-8.4251503e+61
-8.4346082e+61
-7.8322257e+61
-8.1224413e+61
-8.124098e+61
-8.4359769e+61
-8.3103108e+61
-8.3022283e+61
-8.4316746e+61
-8.4336258e+61
-8.3037217e+61
-8.3155454e+61
-8.4435097e+61
-7.8521948e+61
-7.8358655e+61
-7.8554381e+61
-8.5993813e+61
-8.6023693e+61
-8.6794399e+61
-8.6830749e+61
-8.6112532e+61
-8.6218764e+61
-8.6901181e+61
-8.6968165e+61
-8.7370877e+61
-8.7655163e+61
-8.7634316e+61
-8.7326792e+61
-8.7278477e+61
-8.7603206e+61
-8.7581362e+61
-8.7250251e+61
-8.7869612e+61
-8.7889446e+61
-8.8142214e+61
-8.8124649e+61
-8.7906875e+61
-8.7913462e+61
-8.814556e+61
-8.8151596e+61
-8.8398131e+61
-8.8380986e+61
-8.8395102e+61
-8.8650075e+61
-8.8640021e+61
-8.7877459e+61
-8.7848358e+61
-8.8098102e+61
-8.8125303e+61
-8.78409e+61
-8.785351e+61
-8.8105073e+61
-8.8085437e+61
-8.8619443e+61
-8.8359327e+61
-8.8340852e+61
-8.8601223e+61
-8.8606801e+61
-8.8350265e+61
-8.8373359e+61
-8.8621427e+61
-8.5948716e+61
-8.59683e+61
-8.6770612e+61
-8.676325e+61
-8.722904e+61
-8.7562327e+61
-8.7551124e+61
-8.7220722e+61
-8.6795892e+61
-8.5987548e+61
-8.6063694e+61
-8.6841447e+61
-8.7276099e+61
-8.7238982e+61
-8.7558712e+61
-8.7593532e+61
-8.611899e+61
-8.6037999e+61
-8.6835032e+61
-8.6885113e+61
-8.603615e+61
-8.6075261e+61
-8.6850521e+61
-8.6835295e+61
-8.7612118e+61
-8.7289169e+61
-8.7285037e+61
-8.761225e+61
-8.7325418e+61
-8.7291982e+61
-8.7618575e+61
-8.7640383e+61
-8.8625672e+61
-8.8387231e+61
-8.8396469e+61
-8.8633007e+61
-8.814363e+61
-8.7893627e+61
-8.7899674e+61
-8.8150954e+61
-8.8632913e+61
-8.839928e+61
-8.8398962e+61
-8.815441e+61
-8.7904159e+61
-8.7916288e+61
-8.81576e+61
-7.1328036e+61
-7.1118312e+61
-7.0999249e+61
-7.3635402e+61
-7.3781693e+61
-7.5876599e+61
-7.6426902e+61
-7.6557998e+61
-7.6003577e+61
-7.7033797e+61
-7.714232e+61
-8.0703366e+61
-8.0809105e+61
-7.7530009e+61
-8.1043e+61
-7.7661823e+61
-8.114558e+61
-8.1361227e+61
-7.7841166e+61
-7.794147e+61
-8.1431185e+61
-9.6270802e+61
-9.6358915e+61
-9.2598565e+61
-9.2506098e+61
-9.3083856e+61
-9.3003623e+61
-9.9977888e+61
-9.6340371e+61
-9.248543e+61
-1.0006278e+62
-9.6379819e+61
-9.2558554e+61
-8.8521726e+61
-8.8613507e+61
-8.8941538e+61
-9.3027752e+61
-9.2955146e+61
-9.5104791e+61
-9.5140276e+61
-8.8841567e+61
-9.2847147e+61
-9.5018684e+61
-9.5078891e+61
-9.2906796e+61
-1.0015295e+62
-9.6401595e+61
-9.2559149e+61
-8.8583195e+61
-1.0022219e+62
-9.6486533e+61
-9.2626554e+61
-8.8661747e+61
-8.4658621e+61
-8.4549374e+61
-8.4628963e+61
-9.100445e+61
-8.8705227e+61
-8.8749785e+61
-9.1039206e+61
-9.3946506e+61
-9.3906123e+61
-8.4742265e+61
-9.1085954e+61
-8.8791215e+61
-8.8846938e+61
-9.1111608e+61
-9.3986275e+61
-9.4029308e+61
-9.6543032e+61
-9.2678248e+61
-8.8740946e+61
-8.475836e+61
-9.6601335e+61
-9.2758145e+61
-8.8838732e+61
-8.4866072e+61
-8.8929932e+61
-8.5012812e+61
-8.8977307e+61
-8.5095391e+61
-8.898718e+61
-8.5150299e+61
-8.8981886e+61
-8.5164848e+61
-9.5960399e+61
-9.5918912e+61
-9.6858443e+61
-9.689595e+61
-9.7792356e+61
-9.7763635e+61
-9.7732657e+61
-9.7745016e+61
-9.6014398e+61
-9.6947708e+61
-9.700489e+61
-9.6076369e+61
-9.7814232e+61
-9.7836758e+61
-9.5781114e+61
-9.7657827e+61
-9.7652297e+61
-9.8615567e+61
-9.8624085e+61
-9.5793203e+61
-9.7640465e+61
-9.764678e+61
-9.861079e+61
-9.8610484e+61
-9.6782578e+61
-9.5852425e+61
-9.5883511e+61
-9.6812458e+61
-9.7632831e+61
-9.8104431e+61
-9.8125133e+61
-9.7645947e+61
-9.7669184e+61
-9.8148776e+61
-9.817667e+61
-9.7699193e+61
-9.9138031e+61
-9.8618276e+61
-9.8645642e+61
-9.8574122e+61
-9.91141e+61
-9.9095542e+61
-9.8593501e+61
-9.5913525e+61
-9.5920828e+61
-9.6855359e+61
-9.68427e+61
-9.771371e+61
-9.8190087e+61
-9.7723799e+61
-9.7727832e+61
-9.7732744e+61
-9.5728776e+61
-9.7646513e+61
-9.7670572e+61
-9.5770217e+61
-9.7662759e+61
-9.7672894e+61
-9.8628227e+61
-9.8641648e+61
-7.8678954e+61
-7.8949619e+61
-7.9126722e+61
-7.8869763e+61
-7.5047334e+61
-7.8936105e+61
-7.8894601e+61
-7.8626462e+61
-7.8684493e+61
-7.0651801e+61
-7.4933466e+61
-8.8401329e+61
-8.8369983e+61
-8.8659239e+61
-8.868448e+61
-8.8912005e+61
-8.8676457e+61
-8.8691016e+61
-8.8700996e+61
-8.8693985e+61
-8.8627652e+61
-8.8328109e+61
-8.8343021e+61
-8.8636669e+61
-8.8264608e+61
-8.8314705e+61
-8.8287599e+61
-8.8593483e+61
-8.8616556e+61
-7.4390568e+61
-8.2591226e+61
-8.0616347e+61
-8.2647867e+61
-8.2695155e+61
-8.0663265e+61
-8.0674289e+61
-8.2787967e+61
-8.2922238e+61
-8.0767736e+61
-8.0951847e+61
-7.7976567e+61
-7.8164919e+61
-7.449571e+61
-8.4892692e+61
-8.4798338e+61
-8.5539102e+61
-8.5608556e+61
-8.6105947e+61
-8.6539941e+61
-8.5002554e+61
-8.4943855e+61
-8.5674924e+61
-8.5729319e+61
-8.491895e+61
-8.493823e+61
-8.5641144e+61
-8.565699e+61
-8.6151137e+61
-8.6123429e+61
-8.6560093e+61
-8.6582135e+61
-8.6607868e+61
-8.6165674e+61
-8.622633e+61
-8.6661911e+61
-8.7280044e+61
-8.6940423e+61
-8.6961408e+61
-8.7301032e+61
-8.7039196e+61
-8.6989542e+61
-8.7328354e+61
-8.7373613e+61
-8.7618669e+61
-8.7946184e+61
-8.7970503e+61
-8.7644129e+61
-8.7683039e+61
-8.8003953e+61
-8.7409165e+61
-8.7078207e+61
-8.711536e+61
-8.7434144e+61
-8.7204421e+61
-8.7159573e+61
-8.7473278e+61
-8.7511371e+61
-8.7730121e+61
-8.7709277e+61
-8.8020933e+61
-8.8037514e+61
-8.806834e+61
-8.7763558e+61
-8.7800549e+61
-8.8105199e+61
-8.5264884e+61
-8.5192136e+61
-8.5896431e+61
-8.5961895e+61
-8.5105901e+61
-8.5061163e+61
-8.5773701e+61
-8.5834728e+61
-8.6699751e+61
-8.6260065e+61
-8.6322952e+61
-8.6745392e+61
-8.679276e+61
-8.6370225e+61
-8.6442314e+61
-8.6849602e+61
-8.1076708e+61
-8.3038584e+61
-8.4324978e+61
-8.4210886e+61
-8.2877892e+61
-8.2813817e+61
-8.280353e+61
-8.4133391e+61
-8.4113429e+61
-8.0924266e+61
-7.8084874e+61
-7.8014649e+61
-8.0875216e+61
-8.0944155e+61
-8.407999e+61
-8.2779625e+61
-8.2713048e+61
-8.4039554e+61
-8.4066534e+61
-8.2741753e+61
-8.286665e+61
-8.414898e+61
-7.8104663e+61
-7.829612e+61
-7.8066363e+61
-7.8255161e+61
-8.0966383e+61
-8.0960543e+61
-8.1055081e+61
-8.1260309e+61
-7.8121576e+61
-7.8054373e+61
-8.2773216e+61
-8.2870123e+61
-8.4149318e+61
-8.4090756e+61
-8.4086414e+61
-8.2770644e+61
-8.2866986e+61
-8.4152973e+61
-8.4345822e+61
-8.303139e+61
-8.3202692e+61
-8.4468116e+61
-8.2911311e+61
-8.4197585e+61
-8.4250294e+61
-8.2932486e+61
-8.7517874e+61
-8.7255118e+61
-8.7211959e+61
-8.749818e+61
-8.6849411e+61
-8.6091582e+61
-8.598418e+61
-8.6779585e+61
-8.5857858e+61
-8.5892695e+61
-8.6704974e+61
-8.6661144e+61
-8.7467124e+61
-8.7153555e+61
-8.7111666e+61
-8.7435273e+61
-8.8435997e+61
-8.820079e+61
-8.821185e+61
-8.8449534e+61
-8.7969194e+61
-8.7748151e+61
-8.7747912e+61
-8.7976208e+61
-8.7718653e+61
-8.7734989e+61
-8.7973191e+61
-8.7965476e+61
-8.8458534e+61
-8.8214407e+61
-8.8207586e+61
-8.8450433e+61
-8.8425379e+61
-8.8188202e+61
-8.8177514e+61
-8.8416552e+61
-8.7951199e+61
-8.7702221e+61
-8.7687747e+61
-8.7933525e+61
-8.7689049e+61
-8.7685077e+61
-8.7920755e+61
-8.7926685e+61
-8.8420992e+61
-8.8167684e+61
-8.8173279e+61
-8.8429764e+61
-8.5889975e+61
-8.5813154e+61
-8.6622864e+61
-8.6674263e+61
-8.5787614e+61
-8.582414e+61
-8.6628999e+61
-8.6605533e+61
-8.7066678e+61
-8.708294e+61
-8.7412723e+61
-8.7398342e+61
-8.7403615e+61
-8.7077031e+61
-8.7108344e+61
-8.741747e+61
-8.7416536e+61
-8.7123902e+61
-8.7114144e+61
-8.7422582e+61
-8.6692557e+61
-8.5902856e+61
-8.5846806e+61
-8.6662315e+61
-8.5883047e+61
-8.582834e+61
-8.664708e+61
-8.6684018e+61
-8.7437875e+61
-8.710961e+61
-8.7139396e+61
-8.746559e+61
-8.7922015e+61
-8.7677102e+61
-8.794249e+61
-8.7698156e+61
-8.8434927e+61
-8.817307e+61
-8.8191096e+61
-8.8450586e+61
-8.7719607e+61
-8.796662e+61
-8.7992484e+61
-8.774774e+61
-8.8238667e+61
-8.8216855e+61
-8.8475433e+61
-8.7883996e+61
-8.7827605e+61
-8.8100634e+61
-8.8043933e+61
-8.7803854e+61
-8.7774484e+61
-8.8002706e+61
-8.802561e+61
-8.8260315e+61
-8.8244644e+61
-8.6000586e+61
-8.593752e+61
-8.6738041e+61
-8.6804394e+61
-8.7244798e+61
-8.7503211e+61
-8.7184885e+61
-8.7546138e+61
-8.7589116e+61
-8.7313262e+61
-8.7371677e+61
-8.7640594e+61
-8.6893108e+61
-8.6105824e+61
-8.6225602e+61
-8.6973188e+61
-8.1046925e+61
-8.1163295e+61
-8.1164646e+61
-8.1029699e+61
-8.1078926e+61
-8.1013395e+61
-8.0989882e+61
-8.1062466e+61
-8.0965629e+61
-8.1106283e+61
-8.1235301e+61
-8.1090845e+61
-8.1002023e+61
-8.092428e+61
-8.1051328e+61
-8.1133398e+61
-8.3513939e+61
-8.3350554e+61
-8.3269291e+61
-8.3278616e+61
-8.325364e+61
-8.3199419e+61
-8.3240636e+61
-8.3379887e+61
-8.5042079e+61
-8.4904742e+61
-8.4813142e+61
-8.4800004e+61
-8.4776188e+61
-8.4741781e+61
-8.4786683e+61
-8.4893874e+61
-8.1041524e+61
-8.104569e+61
-8.1173858e+61
-8.1185441e+61
-8.3394202e+61
-8.330799e+61
-8.3317769e+61
-8.343456e+61
-8.4904668e+61
-8.4842526e+61
-8.4852465e+61
-8.4955673e+61
-8.1293665e+61
-8.1144954e+61
-8.1106414e+61
-8.1110827e+61
-8.1099618e+61
-8.1097204e+61
-8.1201754e+61
-8.1389889e+61
-8.1397785e+61
-8.1190582e+61
-8.6342306e+61
-8.6906668e+61
-8.6904579e+61
-8.6364254e+61
-8.6409683e+61
-8.6978264e+61
-8.6934218e+61
-8.6352004e+61
-8.7533196e+61
-8.7297224e+61
-8.7286527e+61
-8.7521256e+61
-8.7581229e+61
-8.7369665e+61
-8.7328529e+61
-8.7549598e+61
-8.7031981e+61
-8.6514159e+61
-8.7078395e+61
-8.6462681e+61
-8.7135931e+61
-8.6679712e+61
-8.7181441e+61
-8.6588636e+61
-8.7454136e+61
-8.7410759e+61
-8.7648294e+61
-8.7607571e+61
-8.7521502e+61
-8.769256e+61
-8.7676532e+61
-8.749479e+61
-8.7775649e+61
-8.7787079e+61
-8.7879474e+61
-8.7874976e+61
-8.797041e+61
-8.7967448e+61
-8.806019e+61
-8.8068046e+61
-8.7942286e+61
-8.7961446e+61
-8.8063461e+61
-8.8049596e+61
-8.7720593e+61
-8.7754212e+61
-8.7860275e+61
-8.7835182e+61
-8.7815385e+61
-8.76981e+61
-8.7677121e+61
-8.7800217e+61
-8.7912893e+61
-8.792597e+61
-8.8036788e+61
-8.8024109e+61
-8.7891296e+61
-8.7901545e+61
-8.8012784e+61
-8.8001447e+61
-8.7655295e+61
-8.7664946e+61
-8.7789075e+61
-8.7779616e+61
-8.8105617e+61
-8.8117443e+61
-8.8223804e+61
-8.8210505e+61
-8.8129791e+61
-8.8141438e+61
-8.8247024e+61
-8.823618e+61
-8.8454531e+61
-8.8348213e+61
-8.8338726e+61
-8.8446442e+61
-8.8435131e+61
-8.832639e+61
-8.8312165e+61
-8.8420443e+61
-8.8150848e+61
-8.8160229e+61
-8.8258731e+61
-8.8253321e+61
-8.8243306e+61
-8.8150462e+61
-8.8162091e+61
-8.8257538e+61
-8.8429382e+61
-8.8333232e+61
-8.8351227e+61
-8.8449838e+61
-8.8456762e+61
-8.8355351e+61
-8.8353095e+61
-8.8457548e+61
-8.8561407e+61
-8.8557894e+61
-8.8664348e+61
-8.8670792e+61
-8.8528459e+61
-8.8542654e+61
-8.8657436e+61
-8.86439e+61
-8.8671e+61
-8.855964e+61
-8.8553155e+61
-8.8666487e+61
-8.889412e+61
-8.8779877e+61
-8.8777065e+61
-8.8893197e+61
-8.8886534e+61
-8.8769154e+61
-8.8756647e+61
-8.8874669e+61
-8.8121355e+61
-8.8105656e+61
-8.8209927e+61
-8.8224026e+61
-8.8088842e+61
-8.8074099e+61
-8.8178829e+61
-8.8194168e+61
-8.8384041e+61
-8.827835e+61
-8.8294138e+61
-8.8399108e+61
-8.8412496e+61
-8.8308691e+61
-8.8322277e+61
-8.842439e+61
-8.8069917e+61
-8.8073643e+61
-8.8173562e+61
-8.8170335e+61
-8.8199351e+61
-8.8095237e+61
-8.808318e+61
-8.8185578e+61
-8.8406591e+61
-8.8298889e+61
-8.8284652e+61
-8.8390248e+61
-8.8375722e+61
-8.8270299e+61
-8.8267763e+61
-8.8372984e+61
-8.8861836e+61
-8.8743092e+61
-8.8728599e+61
-8.8848146e+61
-8.8629484e+61
-8.8513924e+61
-8.8498193e+61
-8.861388e+61
-8.8482607e+61
-8.8485117e+61
-8.8602451e+61
-8.8599359e+61
-8.8839052e+61
-8.8717906e+61
-8.8714604e+61
-8.8834887e+61
-8.8836178e+61
-8.8718396e+61
-8.8725982e+61
-8.8840099e+61
-8.8605689e+61
-8.8490784e+61
-8.8504321e+61
-8.8616019e+61
-8.8525078e+61
-8.8515074e+61
-8.8624748e+61
-8.8630645e+61
-8.8843626e+61
-8.8731477e+61
-8.8734191e+61
-8.8842851e+61
-8.6283003e+61
-8.6853262e+61
-8.6871414e+61
-8.6307743e+61
-8.6354741e+61
-8.6886647e+61
-8.6865573e+61
-8.6299534e+61
-8.7508798e+61
-8.7267938e+61
-8.7263139e+61
-8.7497109e+61
-8.7494622e+61
-8.7258592e+61
-8.726445e+61
-8.7487299e+61
-8.7767223e+61
-8.7643707e+61
-8.7630138e+61
-8.7754337e+61
-8.786754e+61
-8.7879469e+61
-8.7990463e+61
-8.7978378e+61
-8.7852631e+61
-8.7857473e+61
-8.7969131e+61
-8.796463e+61
-8.7615709e+61
-8.7621861e+61
-8.7743758e+61
-8.7739269e+61
-8.7499978e+61
-8.727699e+61
-8.7302753e+61
-8.7516229e+61
-8.6322684e+61
-8.6881155e+61
-8.6913288e+61
-8.6350067e+61
-8.6398376e+61
-8.6946675e+61
-8.6991172e+61
-8.6476361e+61
-8.7358008e+61
-8.754892e+61
-8.7328319e+61
-8.7566896e+61
-8.7688908e+61
-8.7669569e+61
-8.778484e+61
-8.780601e+61
-8.7741521e+61
-8.7621735e+61
-8.7639783e+61
-8.7759802e+61
-8.7870305e+61
-8.7853765e+61
-8.7966718e+61
-8.7981957e+61
-8.791295e+61
-8.7892292e+61
-8.8001548e+61
-8.8019061e+61
-8.7016755e+61
-8.6411457e+61
-8.651163e+61
-8.6950862e+61
-8.6369835e+61
-8.6371648e+61
-8.6916948e+61
-8.6918498e+61
-8.7311255e+61
-8.7556248e+61
-8.7311408e+61
-8.7565766e+61
-8.7585943e+61
-8.7337804e+61
-8.7379445e+61
-8.7607598e+61
-8.6383479e+61
-8.694814e+61
-8.6938367e+61
-8.638113e+61
-8.6480426e+61
-8.6424254e+61
-8.6994425e+61
-8.6972355e+61
-8.7576693e+61
-8.7361723e+61
-8.7352103e+61
-8.7574118e+61
-8.7326897e+61
-8.7340822e+61
-8.7566275e+61
-8.7552918e+61
-8.7929083e+61
-8.7923036e+61
-8.8029255e+61
-8.803701e+61
-8.781509e+61
-8.7697296e+61
-8.7698205e+61
-8.7818748e+61
-8.7816447e+61
-8.7692637e+61
-8.7685661e+61
-8.7813608e+61
-8.7928313e+61
-8.7929577e+61
-8.8039416e+61
-8.8040169e+61
-8.7740039e+61
-8.7725799e+61
-8.7846133e+61
-8.7857661e+61
-8.7710481e+61
-8.7692762e+61
-8.7819176e+61
-8.7834675e+61
-8.7944134e+61
-8.7932206e+61
-8.8043622e+61
-8.8051526e+61
-8.7962131e+61
-8.7952337e+61
-8.8057694e+61
-8.806448e+61
-8.8836332e+61
-8.873036e+61
-8.8735243e+61
-8.8838453e+61
-8.8630457e+61
-8.8529109e+61
-8.8536836e+61
-8.8635865e+61
-8.8550488e+61
-8.8544583e+61
-8.8644772e+61
-8.8650774e+61
-8.8846759e+61
-8.8743719e+61
-8.8748312e+61
-8.8849531e+61
-8.843146e+61
-8.8330795e+61
-8.8339216e+61
-8.8438786e+61
-8.8232772e+61
-8.8129963e+61
-8.8138486e+61
-8.8240378e+61
-8.8145742e+61
-8.8143024e+61
-8.8246356e+61
-8.8250001e+61
-8.8446108e+61
-8.8345224e+61
-8.8349746e+61
-8.845136e+61
-8.8845013e+61
-8.8745844e+61
-8.8747851e+61
-8.8845734e+61
-8.865128e+61
-8.8552252e+61
-8.8553703e+61
-8.8651778e+61
-8.8547428e+61
-8.8552456e+61
-8.8653453e+61
-8.8651064e+61
-8.8453814e+61
-8.8352322e+61
-8.8354627e+61
-8.8455075e+61
-8.815423e+61
-8.8148555e+61
-8.8253074e+61
-8.8256269e+61
-8.816227e+61
-8.8158013e+61
-8.8258224e+61
-8.8258314e+61
-8.8454131e+61
-8.83542e+61
-8.8350982e+61
-8.8448661e+61
-7.1123758e+61
-7.3405506e+61
-7.0795875e+61
-7.090156e+61
-7.3523876e+61
-7.5638477e+61
-7.6173384e+61
-7.6288868e+61
-7.5752363e+61
-7.1377335e+61
-7.1259601e+61
-7.3837872e+61
-7.6740739e+61
-7.3990964e+61
-7.689204e+61
-8.026811e+61
-8.0438237e+61
-8.0562369e+61
-8.0391864e+61
-7.7310335e+61
-8.0825258e+61
-7.7420249e+61
-8.0937707e+61
-7.7581685e+61
-8.1175869e+61
-8.1283235e+61
-7.7721082e+61
-8.1407504e+61
-7.7845869e+61
-7.7946132e+61
-8.1476315e+61
-9.6183919e+61
-9.229401e+61
-9.6281939e+61
-9.2391033e+61
-8.8422293e+61
-8.8319024e+61
-8.8751096e+61
-9.281448e+61
-9.2796224e+61
-9.4930294e+61
-9.4979103e+61
-8.865823e+61
-9.2706273e+61
-9.4835442e+61
-9.4902882e+61
-9.276875e+61
-9.997482e+61
-9.6320525e+61
-9.2482529e+61
-8.8419826e+61
-1.0005996e+62
-9.6342011e+61
-9.2525268e+61
-8.8508362e+61
-8.4339758e+61
-8.4446434e+61
-8.4525655e+61
-8.8585099e+61
-9.0885651e+61
-9.0967342e+61
-8.866372e+61
-9.3875639e+61
-9.3818667e+61
-8.4417507e+61
-8.8484969e+61
-8.8536893e+61
-9.0835059e+61
-9.0775773e+61
-9.3736802e+61
-9.378287e+61
-9.63996e+61
-9.253383e+61
-8.8595634e+61
-8.4567256e+61
-9.6484925e+61
-9.2604452e+61
-8.8654263e+61
-8.4664479e+61
-8.6474199e+61
-8.6434916e+61
-8.3983307e+61
-8.3966973e+61
-9.1849935e+61
-8.9598039e+61
-8.9622166e+61
-9.1866075e+61
-9.4121762e+61
-9.410437e+61
-9.5040947e+61
-9.5047069e+61
-9.4063478e+61
-9.4074824e+61
-9.50104e+61
-9.498329e+61
-8.6602343e+61
-8.6518762e+61
-8.4151936e+61
-8.4038876e+61
-9.1918503e+61
-8.9661756e+61
-8.9725655e+61
-9.1950591e+61
-9.4160942e+61
-9.4125979e+61
-9.5046252e+61
-9.5086107e+61
-9.4206974e+61
-9.4252767e+61
-9.5198524e+61
-9.513842e+61
-9.2677569e+61
-8.8743732e+61
-8.4804152e+61
-9.2757542e+61
-8.884102e+61
-8.4916051e+61
-8.8930327e+61
-8.5045061e+61
-8.8977459e+61
-8.5124057e+61
-8.5151214e+61
-8.5165581e+61
-9.5958746e+61
-9.6409556e+61
-9.6444038e+61
-9.599473e+61
-9.6380647e+61
-9.593087e+61
-9.5936726e+61
-9.6388588e+61
-9.6822186e+61
-9.6810694e+61
-9.728671e+61
-9.7298882e+61
-9.6841663e+61
-9.6873453e+61
-9.7348618e+61
-9.7317703e+61
-9.7991471e+61
-9.7978981e+61
-9.7738982e+61
-9.7756151e+61
-9.7968083e+61
-9.7953805e+61
-9.7713631e+61
-9.7727045e+61
-9.768223e+61
-9.7686872e+61
-9.7926797e+61
-9.7919716e+61
-9.7693601e+61
-9.7944616e+61
-9.7934245e+61
-9.7704536e+61
-9.6023496e+61
-9.6059309e+61
-9.6502249e+61
-9.6470143e+61
-9.7374483e+61
-9.6899324e+61
-9.6929593e+61
-9.7400589e+61
-9.7428162e+61
-9.6961428e+61
-9.6093644e+61
-9.6128989e+61
-9.6567659e+61
-9.6535788e+61
-9.777662e+61
-9.7766699e+61
-9.7997901e+61
-9.8010362e+61
-9.7786688e+61
-9.8020648e+61
-9.8030759e+61
-9.7800004e+61
-9.5825794e+61
-9.6769185e+61
-9.6767575e+61
-9.5823033e+61
-9.765304e+61
-9.8125043e+61
-9.812298e+61
-9.7647744e+61
-9.7633715e+61
-9.7639045e+61
-9.8111669e+61
-9.810379e+61
-9.8572523e+61
-9.8575758e+61
-9.909446e+61
-9.9093979e+61
-9.9101805e+61
-9.911108e+61
-9.8591371e+61
-9.8585162e+61
-9.5809109e+61
-9.6751063e+61
-9.6763445e+61
-9.5830811e+61
-9.7629061e+61
-9.8102822e+61
-9.8103874e+61
-9.7625541e+61
-9.7622948e+61
-9.8098353e+61
-9.8101767e+61
-9.7630269e+61
-9.8568406e+61
-9.8565092e+61
-9.9083937e+61
-9.9088254e+61
-9.8572786e+61
-9.9087509e+61
-9.9093209e+61
-9.8569382e+61
-9.6738722e+61
-9.6748458e+61
-9.7209732e+61
-9.7200195e+61
-9.63235e+61
-9.6310107e+61
-9.5866115e+61
-9.5878847e+61
-9.5894581e+61
-9.6337026e+61
-9.6364185e+61
-9.5920969e+61
-9.6762109e+61
-9.6788119e+61
-9.725829e+61
-9.7229508e+61
-9.7579848e+61
-9.7582543e+61
-9.7815798e+61
-9.7811386e+61
-9.8066338e+61
-9.8345989e+61
-9.8354828e+61
-9.8072142e+61
-9.8364941e+61
-9.8081627e+61
-9.8377651e+61
-9.8094738e+61
-9.758796e+61
-9.7823008e+61
-9.783436e+61
-9.759895e+61
-9.7611615e+61
-9.7628958e+61
-9.7865462e+61
-9.7846613e+61
-9.810613e+61
-9.8390253e+61
-9.84076e+61
-9.8123802e+61
-9.8421711e+61
-9.813934e+61
-9.8151417e+61
-9.8429964e+61
-9.7643551e+61
-9.7881007e+61
-9.7894877e+61
-9.7658791e+61
-9.9370754e+61
-9.9123019e+61
-9.9108838e+61
-9.9381144e+61
-9.8863477e+61
-9.8621606e+61
-9.8638347e+61
-9.88805e+61
-9.8650298e+61
-9.8891257e+61
-9.8899735e+61
-9.865903e+61
-9.8819554e+61
-9.8577433e+61
-9.8586604e+61
-9.8830062e+61
-9.9083072e+61
-9.9345031e+61
-9.9359614e+61
-9.9096619e+61
-9.9065389e+61
-9.9074421e+61
-9.9336181e+61
-9.9328093e+61
-9.859554e+61
-9.8838337e+61
-9.8849773e+61
-9.8607605e+61
-9.5934477e+61
-9.6376066e+61
-9.6383252e+61
-9.5936705e+61
-9.5933179e+61
-9.6381782e+61
-9.6384305e+61
-9.5935639e+61
-9.6809615e+61
-9.7283494e+61
-9.7287603e+61
-9.6812118e+61
-9.6801266e+61
-9.7273004e+61
-9.7280901e+61
-9.6807657e+61
-9.7665709e+61
-9.7673225e+61
-9.7908261e+61
-9.7900127e+61
-9.8156342e+61
-9.8162817e+61
-9.8441785e+61
-9.843651e+61
-9.7678521e+61
-9.7912669e+61
-9.7915749e+61
-9.7681475e+61
-9.7921952e+61
-9.7917944e+61
-9.7680994e+61
-9.7681915e+61
-9.7681384e+61
-9.7919328e+61
-9.7920014e+61
-9.7683352e+61
-9.5579255e+61
-9.5674263e+61
-9.6758075e+61
-9.5812313e+61
-9.5835689e+61
-9.6778328e+61
-9.7635435e+61
-9.7647263e+61
-9.7664698e+61
-9.8147007e+61
-9.8162077e+61
-9.7681563e+61
-9.5839745e+61
-9.6782044e+61
-9.6779161e+61
-9.5834046e+61
-9.7656126e+61
-9.8129907e+61
-9.8128998e+61
-9.7654679e+61
-9.7678471e+61
-9.8155542e+61
-9.8145416e+61
-9.766799e+61
-9.9116541e+61
-9.8596003e+61
-9.8594943e+61
-9.9113984e+61
-9.8624401e+61
-9.8609369e+61
-9.5462451e+61
-9.5518811e+61
-8.1775204e+61
-8.1702941e+61
-8.183997e+61
-8.1931393e+61
-7.8702754e+61
-7.8873585e+61
-7.861563e+61
-7.8428713e+61
-8.1650289e+61
-8.1644189e+61
-8.1717117e+61
-8.1744233e+61
-7.4819e+61
-7.4710324e+61
-7.870001e+61
-7.8653398e+61
-7.8382152e+61
-7.8443484e+61
-8.8673164e+61
-8.8653404e+61
-8.8894115e+61
-8.8911222e+61
-8.9078668e+61
-8.8966989e+61
-8.8969926e+61
-8.907955e+61
-8.8861088e+61
-8.875194e+61
-8.8757297e+61
-8.8865144e+61
-8.878227e+61
-8.8769402e+61
-8.8875615e+61
-8.8887119e+61
-8.8791825e+61
-8.878871e+61
-8.8892106e+61
-8.8896434e+61
-8.8772917e+61
-8.8787286e+61
-8.8894766e+61
-8.888278e+61
-8.8870851e+61
-8.8613469e+61
-8.8633078e+61
-8.8882914e+61
-8.8568159e+61
-8.8606726e+61
-8.8590779e+61
-8.8843488e+61
-8.886308e+61
-7.7811955e+61
-7.7778955e+61
-8.070608e+61
-8.3840024e+61
-8.2506631e+61
-8.2647677e+61
-8.3949319e+61
-8.3992473e+61
-8.2677233e+61
-8.2603312e+61
-8.3955997e+61
-8.3977639e+61
-8.2618156e+61
-8.2725157e+61
-8.4052088e+61