/*--------------------------------*- C++ -*----------------------------------*\
  =========                 |
  \\      /  F ield         | OpenFOAM: The Open Source CFD Toolbox
   \\    /   O peration     | Website:  https://openfoam.org
    \\  /    A nd           | Version:  7
     \\/     M anipulation  |
\*---------------------------------------------------------------------------*/
FoamFile
{
    version     2.0;
    format      ascii;
    class       volScalarField;
    location    "8000";
    object      pMean;
}
// * * * * * * * * * * * * * * * * * * * * * * * * * * * * * * * * * * * * * //

dimensions      [0 2 -2 0 0 0 0];

internalField   nonuniform List<scalar> 
33730
(
-2.418797e+92
-2.4374498e+92
-2.1606379e+92
-2.4662188e+92
-2.3630961e+92
-2.1081663e+92
-2.1943392e+92
-1.8567688e+92
-2.3201239e+92
-2.2837886e+92
-2.4101794e+92
-2.503401e+92
-2.4855625e+92
-2.1216597e+92
-1.8611954e+92
-2.6037046e+92
-2.219244e+92
-2.513477e+92
-2.0471175e+92
-2.2225366e+92
-2.1570585e+92
-2.1714972e+92
-2.2189033e+92
-2.2084867e+92
-2.5504242e+92
-1.2242879e+92
-2.4398674e+92
-2.2260709e+92
-1.771139e+92
-2.0465495e+92
-2.5450402e+92
-2.6825006e+92
-2.4283614e+92
-2.6220542e+92
-2.1791804e+92
-2.5471353e+92
-2.272504e+92
-1.5923758e+92
-2.1277277e+92
-2.2894833e+92
-2.2590331e+92
-2.3753132e+92
-2.4224389e+92
-2.4641008e+92
-2.1396516e+92
-2.2405013e+92
-2.1094665e+92
-2.6571594e+92
-2.4820802e+92
-2.0291205e+92
-2.1716852e+92
-1.5268578e+92
-2.8114514e+92
-1.9719422e+92
-2.7159087e+92
-1.8920612e+92
-1.9340481e+92
-1.8983685e+92
-2.5347201e+92
-1.9968321e+92
-2.245213e+92
-2.2201015e+92
-2.2040763e+92
-2.2753537e+92
-2.3046271e+92
-2.1470328e+92
-2.1623016e+92
-2.2132981e+92
-2.1978637e+92
-2.5508906e+92
-1.6946797e+92
-2.4139638e+92
-2.4200613e+92
-2.5568596e+92
-2.5805085e+92
-1.998396e+92
-2.5420134e+92
-2.4665342e+92
-1.8626849e+92
-2.4168385e+92
-2.3842735e+92
-2.1699694e+92
-1.2947294e+92
-2.5458149e+92
-2.6272884e+92
-2.5364996e+92
-2.5569527e+92
-2.3855571e+92
-4.4095304e+92
-4.1403556e+92
-5.4152914e+92
-2.6909958e+92
-2.412253e+92
-1.5893901e+92
-3.8479056e+92
-2.3431369e+92
-2.2807656e+92
-2.2550847e+92
-2.3554834e+92
-2.4210061e+92
-2.1176715e+92
-2.5057084e+92
-2.2503419e+92
-2.4382275e+92
-2.5597544e+92
-2.2669564e+92
-2.3841213e+92
-2.4190066e+92
-2.2136273e+92
-2.3811847e+92
-2.1501828e+92
-2.4023316e+92
-1.5451643e+92
-1.9411386e+92
-2.8678083e+92
-2.1455798e+92
-1.7726789e+92
-1.9440605e+92
-2.5482805e+92
-1.8744363e+92
-2.1863799e+92
-4.8018124e+92
-1.5595359e+92
-2.5493901e+92
-2.1577981e+92
-4.3600458e+92
-3.1674475e+92
-2.0599039e+92
-2.5893298e+92
-1.7809021e+92
-2.4852118e+92
-1.8110495e+92
-2.5025856e+92
-2.6301404e+92
-2.2652947e+92
-2.2475852e+92
-2.3159495e+92
-2.3061002e+92
-2.2295106e+92
-2.2157452e+92
-2.1959062e+92
-2.267072e+92
-2.2949666e+92
-2.1483337e+92
-2.1642599e+92
-2.213842e+92
-2.1982879e+92
-2.5689864e+92
-2.4461928e+92
-2.718468e+92
-2.4314769e+92
-2.4374955e+92
-2.5269438e+92
-2.5000526e+92
-2.3373272e+92
-2.3506846e+92
-3.3360414e+92
-2.4256002e+92
-2.4421799e+92
-3.3314593e+92
-2.3212604e+92
-3.3430051e+92
-2.366112e+92
-2.0179817e+92
-2.6154134e+92
-2.5101079e+92
-1.4170073e+93
-2.4090716e+92
-1.8225003e+92
-3.9692347e+92
-2.5237361e+92
-2.7462271e+92
-1.8722068e+93
-2.3396899e+92
-5.6653821e+92
-2.5289936e+92
-2.5341868e+92
-2.3795204e+92
-3.9925724e+92
-3.8960673e+92
-4.5539566e+92
-7.7540687e+92
-2.5260627e+92
-2.4341909e+92
-7.5997043e+92
-2.4667625e+92
-3.7330075e+92
-2.7167107e+92
-2.2803859e+92
-2.2550658e+92
-2.3553845e+92
-2.4223853e+92
-1.589806e+92
-2.1531606e+92
-2.1155951e+92
-2.0719147e+92
-2.1013566e+92
-2.0880666e+92
-2.5029496e+92
-2.4699576e+92
-2.7266049e+92
-2.6658204e+92
-2.3551197e+92
-2.2550188e+92
-2.2332973e+92
-2.4185044e+92
-2.0456851e+92
-2.2533652e+92
-2.4748084e+92
-2.4315437e+92
-2.539772e+92
-2.3343343e+92
-2.2413569e+92
-2.1435109e+92
-2.3270837e+92
-1.6980146e+92
-2.3185188e+92
-2.1570357e+92
-6.943698e+92
-1.2757107e+92
-5.108027e+92
-2.9649149e+92
-3.9735983e+92
-1.7494992e+92
-1.9545632e+92
-2.5206372e+92
-1.9885829e+92
-2.5514288e+92
-1.8966626e+92
-1.4914365e+92
-3.5730033e+92
-2.2011678e+92
-4.8811627e+92
-3.1263386e+92
-1.8651818e+92
-2.7310395e+92
-3.4975183e+92
-2.8397101e+92
-5.8986146e+92
-1.9904381e+92
-5.7474283e+92
-2.5424152e+92
-2.1131862e+92
-2.6743786e+92
-2.5352055e+92
-2.5292448e+92
-2.3605765e+92
-2.9692251e+92
-2.3974511e+92
-2.137803e+92
-2.300852e+92
-2.2604396e+92
-2.3320742e+92
-2.3205607e+92
-2.2494474e+92
-2.2415878e+92
-2.3138273e+92
-2.3069152e+92
-2.2306279e+92
-2.2170517e+92
-2.1989134e+92
-2.2699905e+92
-2.294423e+92
-2.1485256e+92
-2.1645009e+92
-2.2139712e+92
-2.1984401e+92
-2.6122574e+92
-2.2046061e+92
-2.8017771e+92
-2.3943499e+92
-2.3225951e+92
-2.4362586e+92
-2.4399787e+92
-2.513082e+92
-2.5892628e+92
-2.3821933e+92
-2.8660189e+92
-2.4317476e+92
-2.4394939e+92
-2.6132565e+92
-2.3673213e+92
-2.5201457e+92
-2.2692654e+92
-2.0894257e+92
-2.8213805e+92
-5.2189252e+92
-2.4200875e+92
-2.4361817e+92
-2.0469514e+92
-5.8402914e+92
-2.5170036e+92
-5.0326833e+92
-6.6813169e+92
-2.0052519e+92
-2.2462252e+92
-2.5983905e+92
-2.4914457e+92
-1.3782839e+93
-2.408611e+92
-4.1949642e+92
-2.8259295e+92
-3.5817213e+92
-2.6470212e+92
-2.0815625e+92
-6.4100771e+92
-2.0371261e+93
-2.6746312e+92
-4.8252302e+92
-2.5285869e+92
-2.5333015e+92
-2.3793348e+92
-7.2135952e+92
-4.403115e+92
-2.655127e+92
-2.4356037e+92
-8.0240972e+92
-5.0679313e+92
-2.1772845e+92
-2.7469959e+92
-2.0319483e+92
-2.0381446e+92
-1.865656e+92
-2.1056932e+92
-2.20359e+92
-2.1529375e+92
-2.2513133e+92
-2.1458474e+92
-2.0891035e+92
-2.1312638e+92
-2.0896001e+92
-2.1316051e+92
-2.1056355e+92
-2.4855194e+92
-2.3680683e+92
-2.4971026e+92
-2.5860377e+92
-2.428058e+92
-2.1407915e+92
-2.196593e+92
-2.2146385e+92
-2.0828732e+92
-2.3769893e+92
-2.5968188e+92
-2.7071719e+92
-2.6172746e+92
-2.3365811e+92
-2.3235177e+92
-2.0362902e+92
-3.4707683e+92
-2.3929426e+92
-2.2078644e+92
-2.2251212e+92
-2.6388815e+92
-2.4221365e+92
-2.201949e+92
-2.5196919e+92
-2.5883923e+92
-2.9177374e+92
-2.2262581e+92
-2.9551585e+92
-3.8508211e+92
-4.9450511e+92
-7.3778753e+92
-2.1929908e+92
-6.4933515e+92
-6.6666873e+92
-4.9819565e+92
-6.5048307e+92
-3.3395391e+92
-2.8787662e+92
-7.3350508e+92
-1.2020118e+92
-7.8464844e+92
-2.5188241e+92
-2.5380222e+92
-2.5057823e+92
-1.5862959e+92
-1.9721646e+92
-2.5249057e+92
-2.7706966e+92
-3.4787232e+92
-2.2535916e+92
-2.962959e+92
-1.8617044e+92
-2.5341943e+92
-4.2022012e+92
-3.5649759e+92
-4.7587932e+92
-2.4681262e+92
-2.2501444e+92
-3.0689149e+92
-2.4564647e+92
-2.6971653e+92
-2.2939986e+92
-3.3905985e+92
-2.5500697e+92
-3.1315998e+92
-4.470338e+92
-3.2075137e+92
-2.1492802e+92
-2.1225329e+92
-2.1158489e+92
-2.1714898e+92
-2.1785245e+92
-2.3029061e+92
-2.2755229e+92
-2.3470863e+92
-2.3361642e+92
-2.2629401e+92
-2.2556963e+92
-2.3320001e+92
-2.3212019e+92
-2.2480507e+92
-2.2438807e+92
-2.3158099e+92
-2.3078048e+92
-2.2320231e+92
-2.2173257e+92
-2.1992305e+92
-2.2703308e+92
-2.2945824e+92
-2.6004354e+92
-2.1685036e+92
-2.083205e+92
-2.447505e+92
-2.4386856e+92
-2.4699951e+92
-2.4275054e+92
-2.4988826e+92
-2.5580184e+92
-2.5670753e+92
-2.755598e+92
-2.3841646e+92
-2.5647093e+92
-2.6821826e+92
-2.4484032e+92
-2.4335671e+92
-2.4315173e+92
-2.5284335e+92
-2.6288466e+92
-3.6810336e+92
-2.290258e+92
-2.4243223e+92
-2.4359848e+92
-2.554993e+92
-2.6123852e+92
-2.3089732e+92
-2.5124973e+92
-2.4888644e+92
-2.2682362e+92
-2.2039355e+92
-6.6355049e+92
-3.3465336e+92
-2.4196139e+92
-2.4361154e+92
-6.0545945e+92
-2.4316274e+92
-4.4122264e+92
-2.6934692e+92
-4.5396128e+92
-6.6049673e+92
-5.929585e+92
-2.1365265e+92
-2.380784e+92
-2.5980493e+92
-2.489985e+92
-4.1966283e+92
-4.1147586e+92
-2.3820347e+92
-2.6543207e+92
-2.4618466e+92
-4.3843593e+92
-5.1578124e+92
-2.7069902e+92
-4.2333275e+92
-2.2284198e+92
-2.6685369e+92
-4.8620996e+92
-1.6862687e+92
-2.1487533e+92
-1.8521143e+92
-1.5514226e+92
-2.7607855e+92
-2.1358159e+92
-2.0497126e+92
-2.0555816e+92
-2.0928875e+92
-2.0383845e+92
-2.2354362e+92
-2.2142968e+92
-2.2744118e+92
-2.270942e+92
-2.1908844e+92
-2.1724236e+92
-2.2529159e+92
-2.1826283e+92
-2.1203592e+92
-2.1250895e+92
-2.0878308e+92
-2.1209653e+92
-2.1027543e+92
-2.5813726e+92
-2.4044762e+92
-2.5759774e+92
-2.4564382e+92
-2.3689628e+92
-2.71585e+92
-2.3100304e+92
-2.2050571e+92
-2.1047693e+92
-2.354213e+92
-2.4438738e+92
-2.3509294e+92
-2.4536632e+92
-2.5665936e+92
-2.3744612e+92
-2.1761588e+92
-3.2828976e+92
-2.7236704e+92
-1.981239e+92
-2.3728662e+92
-2.8504674e+92
-2.5947028e+92
-3.0097231e+92
-2.5805573e+92
-2.8129366e+92
-1.7422334e+92
-2.3008922e+92
-4.7116205e+92
-5.7254955e+92
-4.3629799e+92
-8.8057042e+92
-2.2239564e+92
-2.6293438e+92
-3.2428495e+92
-2.4197967e+92
-4.7204766e+92
-2.5200795e+92
-3.0477997e+92
-2.756309e+92
-1.1070776e+93
-2.226463e+92
-2.7282668e+92
-3.6177112e+92
-5.2131717e+92
-7.5419711e+92
-2.2299237e+92
-7.1614481e+92
-5.4029394e+92
-5.0416758e+92
-7.5276079e+92
-3.2637839e+92
-7.1021596e+92
-2.4580211e+92
-2.5823892e+92
-2.2354582e+92
-2.2969197e+92
-2.1934475e+92
-2.7498637e+92
-4.3898758e+92
-2.4880965e+92
-1.8530722e+92
-5.4372595e+92
-8.2344151e+92
-2.1873661e+92
-1.5552811e+92
-3.3995816e+92
-2.5594681e+92
-2.0296442e+92
-2.4320142e+92
-2.330581e+92
-2.5442013e+92
-2.7153384e+92
-4.7351744e+92
-2.7926804e+92
-2.8914707e+92
-5.2653201e+92
-3.2678291e+92
-5.7310844e+92
-3.976338e+92
-4.4146258e+92
-2.7947327e+92
-2.0601624e+92
-2.1488696e+92
-2.1272246e+92
-2.1301008e+92
-2.1820472e+92
-2.1881333e+92
-2.1235929e+92
-2.1158832e+92
-2.1743079e+92
-2.1818071e+92
-2.3033215e+92
-2.2689102e+92
-2.3410924e+92
-2.3518912e+92
-2.2769535e+92
-2.2646478e+92
-2.3405195e+92
-2.3337014e+92
-2.2550009e+92
-2.2592568e+92
-2.3347595e+92
-2.3201682e+92
-2.2503409e+92
-2.2441904e+92
-2.3161206e+92
-2.3080485e+92
-2.2322878e+92
-2.4154486e+92
-2.5666833e+92
-2.4283671e+92
-2.3949602e+92
-3.0038509e+92
-2.4688107e+92
-2.397625e+92
-2.5301973e+92
-2.5459968e+92
-2.586952e+92
-2.4672158e+92
-2.3650829e+92
-2.4505542e+92
-2.4013724e+92
-3.1889567e+92
-3.2657503e+92
-2.3456693e+92
-2.4382296e+92
-2.5944753e+92
-6.3654364e+92
-3.1262759e+92
-2.2466325e+92
-3.6788547e+92
-2.7454366e+92
-5.173059e+92
-2.3376846e+92
-2.6457656e+92
-2.4320173e+92
-2.4286878e+92
-2.5085339e+92
-2.6217535e+92
-3.5594828e+92
-1.6418158e+92
-2.4240648e+92
-2.4360227e+92
-2.717751e+92
-2.8538113e+92
-2.6134229e+92
-4.007085e+92
-2.4491023e+92
-2.5310157e+92
-2.4882377e+92
-6.1136108e+92
-1.9530115e+92
-6.0712128e+92
-5.9508265e+92
-4.2466127e+92
-2.9674427e+92
-2.7075596e+92
-5.8875758e+92
-4.7385114e+92
-2.4005968e+92
-2.3907662e+92
-2.9891595e+92
-1.272425e+92
-2.3652287e+92
-2.5138131e+92
-3.3402055e+92
-4.3266043e+92
-3.2736319e+92
-3.1107323e+92
-5.1479783e+91
-2.1583039e+92
-2.0863168e+92
-2.144371e+92
-2.122e+92
-2.0730184e+92
-2.079706e+92
-2.072971e+92
-2.0818547e+92
-2.0877386e+92
-2.081112e+92
-2.0626657e+92
-2.108434e+92
-2.051651e+92
-2.2678615e+92
-2.2467495e+92
-2.2994208e+92
-2.2872727e+92
-2.2321653e+92
-2.2199528e+92
-2.2848659e+92
-2.2804847e+92
-2.2035462e+92
-2.1670665e+92
-2.2429806e+92
-2.1711477e+92
-2.1157037e+92
-2.1249403e+92
-2.0875332e+92
-2.1205438e+92
-2.1025571e+92
-2.4518096e+92
-2.3748675e+92
-2.4455885e+92
-2.4593469e+92
-2.3837999e+92
-2.2900432e+92
-2.6370237e+92
-2.6676958e+92
-2.6847474e+92
-2.3436176e+92
-2.4274586e+92
-2.4444145e+92
-2.3499437e+92
-2.0888357e+92
-2.3203385e+92
-3.0428644e+92
-2.3555309e+92
-2.8144854e+92
-2.5656061e+92
-2.3422511e+92
-2.168277e+92
-2.416078e+92
-2.3665991e+92
-2.396565e+92
-2.2740816e+92
-2.9656066e+92
-2.3538442e+92
-2.6067595e+92
-4.6642911e+92
-3.2213688e+92
-2.2115628e+92
-2.3735457e+92
-2.7784157e+92
-3.463196e+92
-2.5960704e+92
-6.0452189e+92
-2.5797996e+92
-2.7480985e+92
-3.4964113e+92
-1.8836269e+93
-2.3002879e+92
-4.540007e+92
-4.3900044e+92
-4.2202609e+92
-8.933964e+92
-2.6289285e+92
-3.5903139e+92
-4.6493196e+92
-4.8154968e+92
-3.0721603e+92
-4.2463405e+92
-1.114544e+93
-1.0844411e+93
-2.2004321e+92
-3.831724e+92
-3.3699199e+92
-2.4984101e+92
-2.1721338e+92
-2.0600202e+92
-2.223757e+92
-2.0742194e+92
-3.3282767e+92
-1.9682992e+92
-2.2265934e+92
-2.1065396e+92
-3.8442626e+92
-9.028092e+92
-7.9020298e+92
-3.3500538e+92
-4.8942814e+92
-8.1798625e+92
-2.242164e+92
-2.491397e+92
-2.3184942e+92
-1.9755561e+92
-2.1669224e+92
-2.0891979e+92
-3.1813589e+92
-1.9581749e+92
-2.4474499e+92
-2.8062842e+92
-4.8736469e+92
-1.0805651e+93
-3.9748131e+92
-4.1280187e+92
-5.000591e+92
-2.5056674e+92
-5.6618885e+92
-3.3879674e+92
-2.058785e+92
-2.0712643e+92
-2.0341662e+92
-2.0689087e+92
-2.0328315e+92
-2.1435154e+92
-2.1290663e+92
-2.1279949e+92
-2.189115e+92
-2.1858914e+92
-2.1277016e+92
-2.1301158e+92
-2.1843879e+92
-2.1892581e+92
-2.1255283e+92
-2.1181618e+92
-2.178513e+92
-2.1857108e+92
-2.2319107e+92
-2.2494139e+92
-2.3029543e+92
-2.329677e+92
-2.2636352e+92
-2.2642257e+92
-2.3366234e+92
-2.3500069e+92
-2.2695698e+92
-2.2665176e+92
-2.3423918e+92
-2.3386285e+92
-2.26024e+92
-2.2596145e+92
-2.3351347e+92
-2.3202675e+92
-2.250587e+92
-2.2879456e+92
-2.0037275e+92
-1.9329707e+92
-2.3472652e+92
-2.3872196e+92
-2.5367115e+92
-2.419761e+92
-2.2309379e+92
-2.4029493e+92
-4.0422479e+92
-2.4146085e+92
-2.3979875e+92
-3.5065869e+92
-2.803999e+92
-2.2519374e+92
-2.4686181e+92
-3.005204e+92
-2.5363402e+92
-2.5109684e+92
-2.427305e+92
-4.537814e+92
-2.7028635e+92
-4.2771977e+92
-2.4459007e+92
-2.3903956e+92
-6.4753728e+92
-5.4908365e+92
-2.2337449e+92
-2.248929e+92
-2.4303127e+92
-2.5762072e+92
-6.2447923e+92
-2.5699128e+92
-4.3955496e+92
-2.8641196e+92
-3.391855e+92
-2.9030073e+92
-4.4722878e+92
-3.6262307e+92
-2.6593991e+92
-2.7337793e+92
-2.4322911e+92
-2.4287889e+92
-2.5074551e+92
-2.6218009e+92
-1.0632985e+93
-2.5869495e+92
-2.8670941e+92
-3.9313472e+92
-2.9804008e+92
-2.881272e+92
-2.5363541e+92
-6.0575538e+92
-4.2204088e+92
-2.1514604e+92
-3.0100257e+92
-4.8579908e+92
-1.7701997e+92
-2.4186603e+92
-9.9428448e+91
-9.002529e+91
-1.0076852e+92
-2.1665722e+92
-2.1075934e+92
-2.1749917e+92
-2.1592942e+92
-2.0978266e+92
-2.0868364e+92
-2.0915852e+92
-2.0955397e+92
-2.0996082e+92
-2.0917508e+92
-2.0517007e+92
-2.1492846e+92
-2.1338933e+92
-2.0795051e+92
-2.0408601e+92
-2.0820337e+92
-2.0635998e+92
-2.1101961e+92
-2.0520499e+92
-2.22644e+92
-2.3065058e+92
-2.2541763e+92
-2.3089977e+92
-2.2524537e+92
-2.2412385e+92
-2.2912421e+92
-2.2836108e+92
-2.2313279e+92
-2.2194088e+92
-2.2792546e+92
-2.2723571e+92
-2.2009724e+92
-2.166828e+92
-2.2427423e+92
-2.1706351e+92
-2.1153774e+92
-2.5783976e+92
-2.3962088e+92
-2.5410082e+92
-2.4445054e+92
-2.3492576e+92
-2.410149e+92
-2.1038631e+92
-2.3810608e+92
-2.2058501e+92
-2.3325848e+92
-2.4203119e+92
-2.3798239e+92
-2.4561409e+92
-2.2818086e+92
-2.3358398e+92
-2.8042605e+92
-2.2785696e+92
-2.084806e+92
-2.9445219e+92
-2.3326455e+92
-2.3858503e+92
-2.2421568e+92
-2.3828012e+92
-2.3386175e+92
-2.1611904e+92
-1.9086308e+92
-2.3081954e+92
-3.9458047e+92
-3.792453e+92
-3.13229e+92
-2.8981227e+92
-2.3419217e+92
-2.2204262e+92
-1.9855853e+92
-2.4143492e+92
-3.0007603e+92
-2.3929307e+92
-2.399176e+92
-2.0839433e+92
-4.0414855e+92
-2.3525091e+92
-2.2375132e+92
-3.0105904e+92
-2.8068056e+92
-2.0606924e+92
-2.7775757e+92
-3.5189001e+92
-5.7233096e+92
-5.4301849e+92
-2.745386e+92
-3.5707174e+92
-4.233259e+92
-2.0932179e+93
-3.6187433e+92
-3.9476221e+92
-4.4205015e+92
-4.3355778e+92
-3.797513e+92
-1.1998841e+93
-2.2212757e+92
-2.5537046e+92
-2.1254362e+92
-1.8634872e+92
-1.9418044e+92
-2.4610762e+92
-2.1365927e+92
-2.10642e+92
-1.8591654e+92
-2.7769405e+92
-8.3255982e+92
-4.989223e+92
-2.9195108e+92
-6.4498023e+92
-3.1389328e+92
-6.9856897e+92
-7.9226347e+92
-3.2505819e+92
-2.2108078e+92
-2.3463989e+92
-2.1439935e+92
-2.4387883e+92
-1.8615785e+92
-2.0770904e+92
-3.4207513e+92
-1.6050668e+92
-1.9329615e+92
-2.6500813e+92
-6.1262615e+92
-1.3626692e+92
-4.7032471e+92
-2.4154264e+92
-4.4390931e+92
-7.1377836e+92
-3.470821e+92
-3.2110083e+92
-2.0548555e+92
-2.0342458e+92
-2.0333977e+92
-2.0698294e+92
-2.069626e+92
-2.0729442e+92
-2.0257374e+92
-2.0714396e+92
-2.0247092e+92
-2.1175765e+92
-2.1259997e+92
-2.1191403e+92
-2.1820502e+92
-2.1716531e+92
-2.1301966e+92
-2.1289919e+92
-2.1914037e+92
-2.1894013e+92
-2.1289449e+92
-2.1319329e+92
-2.1876704e+92
-2.1931138e+92
-2.1256614e+92
-2.1183649e+92
-2.1788204e+92
-2.1859797e+92
-2.1810696e+92
-2.2083489e+92
-2.2678289e+92
-2.2946234e+92
-2.232224e+92
-2.2422201e+92
-2.3071931e+92
-2.3290024e+92
-2.2580057e+92
-2.2649506e+92
-2.334485e+92
-2.3497519e+92
-2.270547e+92
-2.2667503e+92
-2.3427067e+92
-2.3392233e+92
-2.2606708e+92
-2.3292425e+92
-2.1547039e+92
-2.1571837e+92
-2.044259e+92
-2.108152e+92
-2.301431e+92
-2.5031274e+92
-2.3895212e+92
-2.3041218e+92
-2.3716445e+92
-1.7189226e+92
-2.3420214e+92
-2.3849393e+92
-2.4724963e+92
-2.6819418e+92
-2.4656966e+92
-2.3580589e+92
-2.5654226e+92
-2.6150236e+92
-6.1486241e+92
-2.405028e+92
-2.3887111e+92
-4.8519283e+92
-3.2866109e+92
-2.7178102e+92
-2.329103e+92
-2.4097864e+92
-2.6489016e+92
-4.4645479e+92
-2.5091643e+92
-2.5025002e+92
-3.0308168e+92
-2.6767702e+92
-3.5754624e+92
-2.7795494e+92
-3.6177499e+92
-2.4459198e+92
-2.3897975e+92
-5.5647551e+92
-4.5998761e+92
-1.3961813e+92
-2.2682915e+92
-2.4495572e+92
-2.430678e+92
-2.5756775e+92
-4.3685246e+92
-4.6169488e+92
-2.6940071e+92
-2.9105918e+92
-3.358295e+92
-3.9476743e+92
-2.7851864e+92
-2.7368805e+92
-1.0539435e+93
-2.0883606e+92
-2.5847191e+92
-2.5375691e+92
-2.2160934e+92
-2.9332084e+92
-1.4226845e+92
-1.9294865e+92
-1.1982925e+92
-1.5988323e+92
-1.2249988e+92
-2.1620662e+92
-2.1107437e+92
-2.1773441e+92
-2.1770087e+92
-2.1108644e+92
-2.094451e+92
-2.0977505e+92
-2.103354e+92
-2.1063555e+92
-2.1139624e+92
-2.0677385e+92
-2.1738611e+92
-2.1638122e+92
-2.1039324e+92
-2.0597231e+92
-2.0461942e+92
-2.051598e+92
-2.0926085e+92
-2.049172e+92
-2.1514482e+92
-2.1352117e+92
-2.0810313e+92
-2.0396066e+92
-2.082093e+92
-2.0636727e+92
-2.1103132e+92
-2.05211e+92
-2.2668305e+92
-2.2276846e+92
-2.2840475e+92
-2.2881784e+92
-2.2380122e+92
-2.2944876e+92
-2.2422285e+92
-2.2953874e+92
-2.2422357e+92
-2.2404909e+92
-2.2877407e+92
-2.2781781e+92
-2.2309269e+92
-2.2194554e+92
-2.2791862e+92
-2.2721045e+92
-2.2009231e+92
-2.428157e+92
-2.3584353e+92
-2.4782793e+92
-2.5904279e+92
-2.4113043e+92
-2.4949082e+92
-2.3443817e+92
-2.3358755e+92
-1.8456197e+92
-2.3872068e+92
-2.5313387e+92
-2.3556686e+92
-2.4870993e+92
-2.3947765e+92
-2.362218e+92
-2.9402648e+92
-2.3833542e+92
-2.1081897e+92
-2.6697516e+92
-2.3261077e+92
-2.5084952e+92
-2.4160338e+92
-2.1200693e+92
-2.4257358e+92
-2.4725872e+92
-2.3473078e+92
-2.3303731e+92
-6.8762441e+92
-1.2466719e+92
-2.2186922e+92
-4.4492043e+92
-2.3321462e+92
-2.3828408e+92
-2.3053642e+92
-1.6505912e+92
-8.0667859e+92
-2.3379305e+92
-2.4541124e+92
-2.4583922e+92
-5.6742653e+92
-2.3074895e+92
-3.2453458e+92
-3.3466796e+92
-2.3417437e+92
-2.3848564e+92
-2.2218395e+92
-2.3300415e+92
-4.6525594e+92
-2.6245131e+92
-2.405007e+92
-2.6170373e+92
-3.5969715e+92
-3.1731927e+92
-3.514119e+92
-3.8104731e+92
-4.7155646e+92
-3.5675105e+92
-3.8404008e+92
-4.0807509e+92
-3.8420662e+92
-3.5759795e+92
-3.2101734e+92
-3.1604259e+92
-2.2048056e+92
-2.3951352e+92
-2.1356731e+92
-2.3326642e+92
-2.3508177e+92
-2.2017112e+92
-1.9570343e+92
-1.6000147e+92
-1.6227871e+92
-3.5014678e+92
-5.6415099e+92
-3.7859799e+92
-4.2305396e+92
-7.132847e+92
-6.5147554e+92
-4.968138e+92
-2.6465838e+92
-6.6006356e+92
-2.1734198e+92
-2.4004659e+92
-2.043743e+92
-1.964152e+92
-2.0898306e+92
-2.3942578e+92
-2.3885849e+92
-2.5437743e+92
-1.7235683e+92
-2.1317502e+92
-4.0255914e+92
-4.4291169e+92
-3.3770282e+92
-6.3572137e+92
-5.7003289e+92
-1.0451616e+92
-4.2077413e+92
-1.7443572e+92
-2.029372e+92
-2.0637684e+92
-2.0681306e+92
-2.0317894e+92
-2.0267421e+92
-2.0255754e+92
-2.0725674e+92
-2.0731785e+92
-2.0740941e+92
-2.0259401e+92
-2.0730593e+92
-2.0250587e+92
-2.0986329e+92
-2.1081858e+92
-2.0996487e+92
-2.1582279e+92
-2.1422434e+92
-2.126617e+92
-2.1193512e+92
-2.1850065e+92
-2.1741737e+92
-2.1327415e+92
-2.1317092e+92
-2.1950886e+92
-2.1926671e+92
-2.1290947e+92
-2.1321214e+92
-2.1879192e+92
-2.1933798e+92
-2.1475166e+92
-2.1679735e+92
-2.202722e+92
-2.2367634e+92
-2.1901784e+92
-2.2007847e+92
-2.2668287e+92
-2.2938813e+92
-2.2259778e+92
-2.2434837e+92
-2.3057099e+92
-2.3274832e+92
-2.2586407e+92
-2.2651232e+92
-2.3345494e+92
-2.3499285e+92
-2.2707529e+92
-2.3412556e+92
-1.8589738e+92
-2.2052544e+92
-1.9423663e+92
-1.9353186e+92
-2.4126763e+92
-2.378242e+92
-2.2262192e+92
-2.2405173e+92
-2.3597906e+92
-1.8297664e+92
-1.8186482e+92
-2.2805909e+92
-1.9145708e+92
-2.3199697e+92
-2.282936e+92
-2.4389446e+92
-2.4484517e+92
-2.3073401e+92
-4.9408019e+92
-6.7046707e+92
-2.3405697e+92
-2.378735e+92
-2.4836751e+92
-2.4616969e+92
-2.640823e+92
-2.6037806e+92
-2.4616929e+92
-2.6904943e+92
-6.1281569e+92
-4.1128557e+92
-4.3540018e+92
-2.4049356e+92
-2.388513e+92
-3.9733641e+92
-3.8223058e+92
-4.0546569e+92
-2.8867973e+92
-3.9287663e+92
-3.3515145e+92
-2.1479681e+92
-2.6168261e+92
-3.6980271e+92
-2.5082529e+92
-2.5033501e+92
-2.454367e+92
-2.640897e+92
-3.0617254e+92
-2.7843761e+92
-8.6072073e+91
-6.2475446e+92
-2.9230392e+92
-2.4671732e+92
-4.3921237e+92
-1.2888079e+92
-2.6796884e+92
-3.7275443e+92
-1.6715206e+92
-2.7954748e+92
-1.6346464e+92
-1.8504207e+92
-1.7646172e+92
-2.6746889e+92
-2.3211431e+92
-2.1716758e+92
-2.1725915e+92
-2.09727e+92
-2.1514989e+92
-2.1116044e+92
-2.0974194e+92
-2.0976788e+92
-2.106464e+92
-2.1057511e+92
-2.1192346e+92
-2.0743937e+92
-2.1755856e+92
-2.1777549e+92
-2.1178013e+92
-2.0706562e+92
-2.0561834e+92
-2.0586056e+92
-2.1153726e+92
-2.065977e+92
-2.0288943e+92
-2.1750921e+92
-2.1650233e+92
-2.0580193e+92
-2.1045948e+92
-2.022888e+92
-2.0926728e+92
-2.0488025e+92
-2.1516029e+92
-2.1353303e+92
-2.0811147e+92
-2.0398794e+92
-2.2284882e+92
-2.2352742e+92
-2.2719341e+92
-2.3047066e+92
-2.242372e+92
-2.2191099e+92
-2.298003e+92
-2.2940012e+92
-2.2346658e+92
-2.2935031e+92
-2.241434e+92
-2.2943123e+92
-2.2425686e+92
-2.2404543e+92
-2.2876818e+92
-2.2781236e+92
-2.2310259e+92
-2.3920861e+92
-2.3041741e+92
-2.4296717e+92
-2.3769669e+92
-2.2905821e+92
-2.1932723e+92
-2.3415988e+92
-2.5326859e+92
-2.5022948e+92
-2.3303285e+92
-2.4328441e+92
-2.4107297e+92
-2.5312443e+92
-2.6878838e+92
-2.3779168e+92
-3.9400328e+92
-2.8086893e+92
-1.2426309e+92
-1.4898191e+92
-2.3760546e+92
-2.6463536e+92
-2.5270101e+92
-2.1948612e+92
-2.4830578e+92
-2.7330427e+92
-2.4938586e+92
-2.3586097e+92
-5.218978e+92
-4.9342871e+92
-2.8048247e+92
-5.3407764e+92
-2.326021e+92
-2.5938874e+92
-2.6952888e+92
-2.4183751e+92
-3.8060979e+92
-2.4244352e+92
-2.5536711e+92
-2.4087084e+92
-4.3305926e+92
-2.3302728e+92
-6.1013637e+92
-1.0896842e+92
-2.0883336e+92
-3.8015976e+92
-2.3090875e+92
-2.1454819e+92
-1.2469613e+92
-6.8677751e+92
-2.4803974e+92
-3.0093324e+92
-4.3813816e+92
-5.3982931e+92
-2.3748712e+92
-3.6947976e+92
-4.4533688e+92
-2.6411095e+92
-2.8205625e+92
-3.5525457e+92
-3.8546281e+92
-3.3682847e+92
-3.7769089e+92
-3.5201514e+92
-3.2418491e+92
-2.3634517e+92
-2.1644145e+92
-2.3768341e+92
-1.9475629e+92
-1.8901688e+92
-2.1479254e+92
-1.811379e+92
-2.502407e+92
-2.9735921e+92
-2.6108464e+92
-3.1766599e+92
-3.8711731e+92
-8.1665197e+92
-3.0355169e+92
-5.0731843e+92
-5.5291012e+92
-3.6010993e+92
-4.2658321e+92
-6.4860939e+92
-2.157801e+92
-2.371426e+92
-2.0520727e+92
-1.8058321e+92
-2.5169796e+92
-2.4695948e+92
-2.7197111e+92
-2.2520255e+92
-2.0940224e+92
-2.4644209e+92
-5.0627618e+92
-3.1455298e+92
-5.4708702e+92
-4.8131322e+92
-2.7586256e+92
-4.5060331e+92
-3.1569873e+92
-5.6772557e+92
-2.0515808e+92
-2.0206297e+92
-2.024802e+92
-2.0564841e+92
-2.0218855e+92
-2.0670163e+92
-2.0712765e+92
-2.0244005e+92
-2.0271915e+92
-2.0257789e+92
-2.0744949e+92
-2.0752968e+92
-2.0742181e+92
-2.025951e+92
-2.0731672e+92
-2.0250687e+92
-2.0763402e+92
-2.0870179e+92
-2.0774625e+92
-2.1287282e+92
-2.1123439e+92
-2.1082312e+92
-2.1004847e+92
-2.1603989e+92
-2.1451144e+92
-2.1288543e+92
-2.1215011e+92
-2.1883353e+92
-2.1778032e+92
-2.1329203e+92
-2.1318729e+92
-2.1953556e+92
-2.1929158e+92
-2.1156625e+92
-2.1391439e+92
-2.1751742e+92
-2.1700048e+92
-2.1470913e+92
-2.1631533e+92
-2.2065673e+92
-2.2379731e+92
-2.1839619e+92
-2.2042638e+92
-2.2679651e+92
-2.2938643e+92
-2.2284546e+92
-2.2436966e+92
-2.3058681e+92
-2.3275981e+92
-2.2588209e+92
-2.2531499e+92
-1.9783368e+92
-1.8550632e+92
-2.2408736e+92
-2.2691443e+92
-2.3872514e+92
-2.478792e+92
-2.2526012e+92
-2.2354704e+92
-1.6134992e+92
-2.3198661e+92
-1.6062221e+92
-2.392171e+92
-2.0903451e+92
-2.2015772e+92
-2.4539992e+92
-2.4037339e+92
-2.2399041e+92
-2.2650964e+92
-4.9048235e+92
-5.6885664e+92
-1.8967755e+92
-1.8392256e+92
-2.6215367e+92
-2.9292916e+92
-2.5174343e+92
-2.4134162e+92
-2.2744459e+92
-2.4264588e+92
-2.4273308e+92
-2.3052867e+92
-4.6224633e+92
-6.9990642e+92
-2.340838e+92
-2.3785148e+92
-2.522324e+92
-2.5083445e+92
-2.4621203e+92
-3.520013e+92
-3.1103373e+92
-2.5664115e+92
-2.4627083e+92
-3.8730427e+92
-5.5238981e+92
-3.561943e+92
-3.1412394e+92
-5.5875565e+92
-3.6402516e+92
-2.9090112e+92
-3.7098983e+92
-6.7235861e+92
-2.3445725e+92
-2.615481e+92
-2.4158616e+92
-2.286125e+92
-3.0962189e+92
-6.5144279e+92
-3.3912902e+92
-2.970021e+92
-9.0533742e+91
-1.1058959e+92
-1.242649e+92
-1.6053279e+92
-1.3519285e+92
-2.157727e+92
-2.115812e+92
-2.1719213e+92
-2.1665487e+92
-2.1092983e+92
-2.0979237e+92
-2.0986907e+92
-2.1065546e+92
-2.1037552e+92
-2.1718585e+92
-2.1108525e+92
-2.0697309e+92
-2.1530329e+92
-2.1182159e+92
-2.0741488e+92
-2.0605755e+92
-2.060212e+92
-2.1200708e+92
-2.0740447e+92
-2.0362529e+92
-2.177205e+92
-2.1791337e+92
-2.0699521e+92
-2.1183998e+92
-2.0333861e+92
-2.1154218e+92
-2.0659182e+92
-2.023984e+92
-2.1751645e+92
-2.1651166e+92
-2.0586698e+92
-2.0179936e+92
-2.1046041e+92
-2.0488275e+92
-2.0399035e+92
-2.2085444e+92
-2.2305417e+92
-2.2488568e+92
-2.2420667e+92
-2.2267081e+92
-2.2291499e+92
-2.2712698e+92
-2.3027743e+92
-2.237481e+92
-2.2244438e+92
-2.2962801e+92
-2.2948731e+92
-2.2362175e+92
-2.2935053e+92
-2.2414415e+92
-2.2942639e+92
-2.242639e+92
-2.4539938e+92
-2.3383997e+92
-2.5297776e+92
-2.4274335e+92
-2.2702876e+92
-2.0329315e+92
-2.2211218e+92
-2.2152434e+92
-2.1207495e+92
-2.3285458e+92
-2.5049915e+92
-2.2400717e+92
-2.4204124e+92
-2.3194676e+92
-2.2839377e+92
-2.0325353e+92
-2.5823992e+92
-3.0294207e+92
-3.5530558e+92
-2.3206101e+92
-2.3948852e+92
-2.5591245e+92
-2.0672859e+92
-2.5181866e+92
-2.847506e+92
-2.2058008e+92
-2.3666695e+92
-6.4550345e+92
-7.1006382e+92
-7.2161456e+92
-1.0769989e+93
-2.3756793e+92
-2.7974881e+92
-3.0280138e+92
-2.5283232e+92
-6.61724e+92
-2.4852681e+92
-2.8094202e+92
-3.6723688e+92
-5.4972235e+92
-2.3587025e+92
-4.8660897e+92
-4.7555768e+92
-2.5562256e+92
-5.0224638e+92
-2.6028974e+92
-2.8605555e+92
-4.3281246e+92
-3.9234505e+92
-2.5638766e+92
-2.4537691e+92
-4.0014064e+92
-4.1112019e+92
-2.1870814e+92
-3.1397039e+92
-1.0171787e+92
-3.0867445e+92
-3.2693658e+92
-4.0925777e+92
-3.5432584e+92
-3.470942e+92
-2.9550482e+92
-2.5298099e+92
-3.4398431e+92
-3.4277899e+92
-2.1407228e+92
-2.452453e+92
-2.2006975e+92
-1.419187e+92
-2.0039761e+92
-2.2471159e+92
-2.3641149e+92
-2.3711928e+92
-3.3439743e+92
-2.0648324e+92
-2.8385542e+92
-6.5210417e+92
-4.998253e+92
-8.7031499e+92
-3.7921092e+92
-8.3826409e+92
-2.953798e+92
-4.0201591e+92
-2.1396562e+92
-2.382469e+92
-1.8368253e+92
-1.6884178e+92
-1.8984034e+92
-1.9361288e+92
-2.1694874e+92
-1.8851605e+92
-2.946563e+92
-2.3303977e+92
-4.1576623e+92
-6.6742752e+92
-5.9689412e+92
-3.1586754e+92
-4.8164231e+92
-2.803978e+92
-5.6540734e+92
-4.6373277e+92
-1.8488905e+92
-1.9298729e+92
-1.9323879e+92
-1.9752938e+92
-1.9729283e+92
-2.0202179e+92
-2.0338325e+92
-2.0062429e+92
-2.0160504e+92
-2.0427823e+92
-2.0536209e+92
-2.0122845e+92
-2.0170996e+92
-2.0582807e+92
-2.0222498e+92
-2.0688292e+92
-2.0729069e+92
-2.0246522e+92
-2.0272763e+92
-2.0258434e+92
-2.0746532e+92
-2.0754464e+92
-2.0480655e+92
-2.0626152e+92
-2.0553173e+92
-2.0964544e+92
-2.0859465e+92
-2.0870965e+92
-2.0782683e+92
-2.131943e+92
-2.1192715e+92
-2.1100998e+92
-2.1017392e+92
-2.1640032e+92
-2.1481425e+92
-2.1289977e+92
-2.1216357e+92
-2.1885735e+92
-2.1780609e+92
-2.0732691e+92
-2.1118022e+92
-2.1664313e+92
-2.1686891e+92
-2.1246469e+92
-2.1338262e+92
-2.1792142e+92
-2.1872139e+92
-2.1430876e+92
-2.1645375e+92
-2.2083497e+92
-2.2395416e+92
-2.1857305e+92
-2.2045602e+92
-2.2682246e+92
-2.294078e+92
-2.22872e+92
-2.2131385e+92
-1.7708652e+92
-1.6357921e+92
-2.5784585e+92
-2.2606727e+92
-2.5289926e+92
-2.2099399e+92
-2.1497496e+92
-2.2387637e+92
-1.987887e+92
-1.9236152e+92
-2.3919427e+92
-2.3737699e+92
-2.2642833e+92
-2.5066099e+92
-2.3286663e+92
-2.3166859e+92
-2.2264157e+92
-2.2243121e+92
-4.908878e+92
-5.0004154e+92
-2.8533108e+92
-8.4568463e+92
-2.2419294e+92
-5.4582706e+92
-2.21067e+92
-2.3031287e+92
-2.4613345e+92
-2.3849605e+92
-2.2412366e+92
-2.2610541e+92
-4.3408381e+92
-5.8503963e+92
-2.9976599e+92
-3.1983256e+92
-1.2300971e+92
-2.6491138e+92
-2.4761004e+92
-9.6851598e+92
-2.2463269e+92
-2.5630548e+92
-2.2741577e+92
-2.4268945e+92
-2.4276428e+92
-2.3055356e+92
-2.9911586e+92
-3.7800951e+92
-2.5116541e+92
-3.2559675e+92
-4.2742511e+92
-2.9855399e+92
-2.5702935e+92
-3.490926e+92
-4.0884876e+92
-4.7154804e+92
-3.6204845e+92
-4.8477685e+92
-2.4620642e+92
-2.2797051e+92
-2.0645081e+92
-2.8456392e+92
-3.0769045e+92
-3.0468183e+92
-6.013934e+91
-1.3268761e+92
-2.1540413e+92
-2.1172051e+92
-2.1697792e+92
-2.1694713e+92
-2.1167864e+92
-2.0962887e+92
-2.0951875e+92
-2.1012551e+92
-2.0996376e+92
-2.1263651e+92
-2.0770788e+92
-2.1769089e+92
-2.1724553e+92
-2.1204195e+92
-2.0729516e+92
-2.0613407e+92
-2.0601131e+92
-2.1725925e+92
-2.108942e+92
-2.0722375e+92
-2.037368e+92
-2.1543328e+92
-2.0743869e+92
-2.11907e+92
-2.0378998e+92
-2.1200659e+92
-2.0737899e+92
-2.0318719e+92
-2.1773188e+92
-2.1792229e+92
-2.0702658e+92
-2.0292007e+92
-2.1183922e+92
-2.0659263e+92
-2.0240332e+92
-2.0586997e+92
-2.0179017e+92
-2.2126771e+92
-2.2321982e+92
-2.2692362e+92
-2.234891e+92
-2.2282151e+92
-2.2239789e+92
-2.2576789e+92
-2.2367709e+92
-2.2198211e+92
-2.2262921e+92
-2.2673986e+92
-2.2989708e+92
-2.2361178e+92
-2.2249383e+92