/*--------------------------------*- C++ -*----------------------------------*\
  =========                 |
  \\      /  F ield         | OpenFOAM: The Open Source CFD Toolbox
   \\    /   O peration     | Website:  https://openfoam.org
    \\  /    A nd           | Version:  7
     \\/     M anipulation  |
\*---------------------------------------------------------------------------*/
FoamFile
{
    version     2.0;
    format      ascii;
    class       volVectorField;
    location    "2000";
    object      UMean;
}
// * * * * * * * * * * * * * * * * * * * * * * * * * * * * * * * * * * * * * //

dimensions      [0 1 -1 0 0 0 0];

internalField   nonuniform List<vector> 
34377
(
(-4.4075001e+12 -2.2506007e+10 4.8586966e+11)
(-3.71559e+12 -7.1280945e+10 7.9656513e+10)
(-4.1128282e+12 -1.068271e+11 5.4655717e+11)
(-4.0704691e+12 1.1624508e+10 5.3970518e+11)
(-4.5007912e+12 9.5838204e+09 4.5522365e+11)
(-4.2474606e+12 4.6283247e+10 3.9453974e+11)
(-4.4482716e+12 -3.6171575e+10 4.2898673e+11)
(-5.6816729e+12 -2.9804885e+10 8.50947e+10)
(-4.3581144e+12 -2.3277196e+10 2.9190282e+11)
(-4.3697144e+12 2.6995964e+10 3.0474446e+11)
(-3.924323e+12 6.1909658e+09 -3.865198e+11)
(-3.1135895e+12 5.2524749e+10 -1.2808938e+10)
(-3.92771e+12 -9.95892e+10 -4.0366215e+11)
(-3.8069155e+12 -4.9328587e+10 1.9688315e+09)
(-3.1019007e+12 -1.6072182e+11 -2.0322531e+10)
(-3.9917928e+12 1.742943e+09 5.1843157e+11)
(-4.2766741e+12 1.6637905e+10 4.9691921e+11)
(-3.4798999e+12 -5.0937266e+10 4.2256472e+11)
(-3.4833259e+12 -1.3131559e+10 4.1715133e+11)
(-4.2912436e+12 -5.9955894e+10 4.8726098e+11)
(-3.4844386e+12 -2.3465558e+10 4.0818836e+11)
(-3.4500173e+12 7.4784573e+09 4.0965667e+11)
(-4.2089231e+12 -5.8989486e+10 4.6411017e+11)
(-4.2501459e+12 3.7235426e+10 4.7318534e+11)
(-4.4030088e+12 -6.6840641e+10 3.9909456e+11)
(-4.0499574e+12 -1.0456356e+11 5.228505e+11)
(-4.4104797e+12 9.228942e+09 4.1069945e+11)
(-5.6277876e+12 -5.0610506e+10 8.0800675e+10)
(-4.6251671e+12 3.1070186e+10 1.6174416e+11)
(-4.4220538e+12 1.7667554e+10 -9.7918386e+10)
(-4.4214855e+12 -1.4998967e+10 -9.9460336e+10)
(-5.5381298e+12 -1.2266064e+10 -8.7595153e+10)
(-3.8052277e+12 4.5847965e+10 -2.2592089e+10)
(-3.7485276e+12 1.6389865e+10 -3.4265283e+10)
(-3.7067699e+12 2.3082932e+10 -2.9422127e+10)
(-3.8077057e+12 3.9262306e+10 -2.2505041e+10)
(-4.6166953e+12 -3.8740303e+10 1.5544457e+11)
(-3.9858303e+12 -3.2945744e+10 3.0255622e+11)
(-4.0087862e+12 5.1519672e+10 2.9968778e+11)
(-4.3053598e+12 3.4629357e+10 2.8825271e+11)
(-4.2994396e+12 -4.700678e+10 2.7704448e+11)
(-4.0273598e+12 3.0717983e+10 3.1367808e+11)
(-4.0271538e+12 -3.9162053e+10 2.9841875e+11)
(-3.7089755e+12 -3.5765728e+10 -3.9301439e+11)
(-3.9000278e+12 -8.7050302e+09 -3.5499621e+11)
(-3.8872645e+12 -7.0527684e+10 -3.4145835e+11)
(-3.7001953e+12 -3.030203e+10 -3.9710119e+11)
(-3.0139479e+12 -7.2193976e+09 -5.4037716e+11)
(-2.305968e+12 -1.1843332e+11 3.3622918e+10)
(-3.0333341e+12 -4.9914109e+10 -5.4056035e+11)
(-2.2707444e+12 3.8213937e+10 1.8422094e+10)
(-3.9069786e+12 3.4708782e+10 -4.0690827e+11)
(-3.6893661e+12 -2.6870114e+10 -4.0492725e+11)
(-3.8930411e+12 1.3614137e+09 -3.5727125e+11)
(-3.8943337e+12 -6.2151733e+10 -3.5075671e+11)
(-3.6823897e+12 -1.8188347e+10 -4.0378547e+11)
(-3.9292559e+12 -8.6647464e+10 -4.2215298e+11)
(-3.1236511e+12 -1.5836001e+11 -2.0482667e+10)
(-3.0558656e+12 9.7654351e+10 -3.698126e+10)
(-3.0088552e+12 -3.8387725e+10 -5.413492e+11)
(-2.2600087e+12 -1.0903905e+11 1.2299315e+10)
(-3.0043351e+12 5.6633992e+09 -5.3973047e+11)
(-2.2710985e+12 3.6549628e+10 2.110733e+10)
(-3.4145815e+12 -1.303678e+10 4.0143749e+11)
(-3.4189328e+12 -2.9984055e+10 3.7814837e+11)
(-4.1826815e+12 1.7780784e+10 4.3980238e+11)
(-4.1823999e+12 -8.9250957e+10 4.5341498e+11)
(-2.9537295e+12 -3.077873e+10 3.464905e+11)
(-2.9474668e+12 -1.0868485e+10 3.3113315e+11)
(-3.7432482e+12 2.1456258e+10 4.3369886e+11)
(-3.7519188e+12 -3.6964972e+10 4.2222624e+11)
(-3.759274e+12 1.2704819e+10 4.1470477e+11)
(-2.9401073e+12 -8.8265341e+09 3.1673329e+11)
(-2.9322629e+12 2.5846555e+09 3.2765737e+11)
(-3.7527419e+12 -4.6267872e+10 4.1693114e+11)
(-2.9586167e+12 -8.8486487e+09 3.4316121e+11)
(-3.7745944e+12 3.826069e+10 4.2634525e+11)
(-2.9363941e+12 1.3933197e+10 3.2324329e+11)
(-3.7726202e+12 -1.3164058e+10 4.1498674e+11)
(-2.9357956e+12 1.612642e+10 3.1309631e+11)
(-3.7398782e+12 3.5065645e+10 4.1193588e+11)
(-2.9412129e+12 2.0109613e+10 3.3973505e+11)
(-3.7286643e+12 -3.3611908e+10 4.2151525e+11)
(-4.2148164e+12 1.4906929e+10 4.6325909e+11)
(-3.4404982e+12 -5.3624032e+10 4.0833078e+11)
(-3.4079721e+12 -1.817524e+10 3.8578781e+11)
(-4.212446e+12 -6.3583039e+10 4.4249847e+11)
(-4.3632762e+12 -2.6108718e+10 -1.0953444e+11)
(-4.4036172e+12 1.0943554e+10 -9.1339953e+10)
(-4.5559517e+12 2.5961666e+10 1.4765646e+11)
(-4.5682783e+12 -5.7788146e+10 1.3932467e+11)
(-5.4960438e+12 -2.6687111e+10 -8.4397728e+10)
(-3.7372544e+12 2.8100487e+10 -4.6585186e+10)
(-3.7789286e+12 4.2686464e+10 -3.4744786e+10)
(-3.7483904e+12 3.6513114e+10 -3.5088692e+10)
(-3.7042343e+12 3.6478354e+10 -3.4157209e+10)
(-4.2436385e+12 2.971177e+10 2.5394345e+11)
(-4.2391499e+12 -3.5154765e+10 2.4067995e+11)
(-4.0724564e+12 -1.778482e+10 2.4122432e+09)
(-4.0714242e+12 1.3384211e+10 1.0660082e+10)
(-4.1234843e+12 2.1175824e+10 -6.8462132e+10)
(-3.9899395e+12 1.8143456e+10 -1.6639909e+11)
(-4.0172397e+12 -1.7587656e+10 -1.666666e+11)
(-4.1248895e+12 -2.1030275e+10 -7.7923907e+10)
(-4.4904735e+12 3.6543473e+10 -7.6487857e+10)
(-4.1215714e+12 1.6017004e+10 -8.1278095e+10)
(-3.9942645e+12 6.5774375e+09 -1.8413217e+11)
(-4.0005973e+12 -1.9926709e+10 -1.6890798e+11)
(-4.1179134e+12 -2.8461612e+10 -6.9183262e+10)
(-4.4954125e+12 -3.3214736e+10 -7.4092547e+10)
(-4.1310269e+12 1.926127e+10 -2.1904329e+11)
(-4.0888247e+12 -1.5069775e+09 -2.2143134e+11)
(-3.7524475e+12 -2.7608066e+09 -3.6167959e+09)
(-3.7471165e+12 3.6107571e+10 -1.0546447e+11)
(-3.7087214e+12 2.3533909e+10 -1.0122131e+11)
(-3.7799859e+12 5.1752688e+10 5.8160713e+09)
(-4.2153931e+12 3.90549e+10 2.3194557e+11)
(-4.0673032e+12 2.4910672e+10 4.276913e+09)
(-4.068366e+12 -2.1322395e+10 1.631972e+10)
(-4.1806706e+12 -3.3508479e+10 2.3091924e+11)
(-3.5247513e+12 -1.4307151e+10 2.8243734e+11)
(-3.5333492e+12 5.3580874e+10 2.7348883e+11)
(-3.5509419e+12 4.3785691e+10 2.7660163e+11)
(-3.5511089e+12 -7.3789707e+09 2.6467982e+11)
(-3.966877e+12 -4.0801208e+10 2.7788962e+11)
(-3.9702174e+12 3.4759023e+10 2.954715e+11)
(-3.9580534e+12 3.5754825e+10 2.7575339e+11)
(-3.9680407e+12 -5.2548035e+10 2.9377884e+11)
(-3.5416612e+12 -3.0441396e+10 2.7655883e+11)
(-3.5359113e+12 3.1042382e+10 2.8942444e+11)
(-3.5421689e+12 -2.5325115e+10 2.7091491e+11)
(-3.5550751e+12 2.9976652e+10 2.7071731e+11)
(-4.5676263e+12 -3.7804439e+10 -3.436063e+11)
(-4.5714409e+12 -4.6522339e+10 -3.4313673e+11)
(-3.9472002e+12 -2.1451476e+10 -4.6821745e+11)
(-3.803994e+12 4.552159e+09 -2.7209415e+11)
(-3.7888171e+12 -5.8367587e+10 -2.6322493e+11)
(-3.9386832e+12 -4.2405121e+10 -4.6831429e+11)
(-3.1900222e+12 4.2380536e+09 -4.9325233e+11)
(-2.6767967e+12 -9.7341434e+09 -5.8161878e+11)
(-2.6624792e+12 -2.1253542e+10 -5.8520152e+11)
(-3.1712086e+12 -3.9721182e+10 -4.8323871e+11)
(-1.8461548e+12 -2.1255247e+10 -5.2809628e+11)
(-1.843305e+12 1.9032505e+08 -5.2424474e+11)
(-1.6236215e+12 -6.8413989e+10 1.3923946e+11)
(-1.6222876e+12 3.5700381e+10 1.4824012e+11)
(-3.1767957e+12 -3.0216995e+10 -4.8003742e+11)
(-3.173146e+12 1.1623452e+10 -4.8579049e+11)
(-2.6724582e+12 -1.796163e+10 -5.8127749e+11)
(-2.6761015e+12 -1.2174571e+10 -5.8551009e+11)
(-1.8450531e+12 -1.7095063e+10 -5.2721373e+11)
(-1.6062429e+12 5.1478537e+10 1.348149e+11)
(-1.6255842e+12 -4.8010852e+10 1.4495722e+11)
(-3.7048609e+12 -3.2669515e+10 -3.9186032e+11)
(-3.9197861e+12 -1.6601248e+10 -3.510223e+11)
(-3.8957821e+12 -7.4760521e+10 -3.3715231e+11)
(-3.6685358e+12 -1.8883242e+10 -3.9907281e+11)
(-3.9155603e+12 -8.1848711e+09 -4.7303547e+11)
(-3.8011388e+12 1.7200884e+10 -2.7933798e+11)
(-3.8317118e+12 -5.4572768e+10 -2.7437134e+11)
(-3.9157791e+12 -3.6425889e+10 -4.7365607e+11)
(-3.900396e+12 -6.1250596e+10 -3.4391052e+11)
(-3.8964067e+12 2.3222037e+09 -3.4981154e+11)
(-3.6952278e+12 -2.6841237e+10 -4.0021863e+11)
(-3.6864935e+12 -1.4537214e+10 -4.0412894e+11)
(-2.9950984e+12 -2.9654708e+10 -5.3562098e+11)
(-2.9847004e+12 2.4123695e+10 -5.3624188e+11)
(-2.2478461e+12 -1.0614855e+11 5.7274317e+09)
(-2.2243172e+12 4.9145757e+10 -1.8780136e+09)
(-3.0168592e+12 -3.1897249e+10 -5.3664986e+11)
(-2.9729888e+12 1.7544406e+10 -5.3412641e+11)
(-2.2680106e+12 -9.5346815e+10 1.0939795e+10)
(-2.2143934e+12 6.2635907e+10 94641556)
(-3.1619322e+12 -2.4155997e+10 -4.8453693e+11)
(-3.1604021e+12 1.6387666e+10 -4.8943869e+11)
(-2.6673018e+12 -6.1900622e+09 -5.8803922e+11)
(-2.6657341e+12 -1.3861606e+10 -5.8180818e+11)
(-1.8247361e+12 -8.1131251e+09 -5.2988021e+11)
(-1.8318451e+12 6.322817e+09 -5.2226326e+11)
(-1.6058406e+12 -7.0095169e+10 1.3398155e+11)
(-1.6193002e+12 2.6533132e+10 1.4728283e+11)
(-3.1515779e+12 -3.4543655e+10 -4.8395124e+11)
(-3.1579285e+12 9.8953659e+09 -4.8751278e+11)
(-2.6592485e+12 -2.1654449e+10 -5.886328e+11)
(-2.6652421e+12 -9.0977434e+09 -5.8042091e+11)
(-1.8386387e+12 -1.735307e+10 -5.2318821e+11)
(-1.8165963e+12 -9.3534452e+08 -5.3242153e+11)
(-1.6264211e+12 -6.4575807e+10 1.4162612e+11)
(-1.5906542e+12 3.7905332e+10 1.2542448e+11)
(-2.9246201e+12 6.6176318e+08 3.1295643e+11)
(-2.9119465e+12 -4.1145092e+09 3.2512241e+11)
(-3.7066122e+12 -5.7531046e+10 4.123338e+11)
(-3.7190856e+12 1.4700838e+10 4.0433706e+11)
(-2.9017748e+12 -1.9302792e+10 3.0827427e+11)
(-2.892168e+12 1.5427706e+09 2.9555283e+11)
(-3.6959788e+12 2.5468116e+10 3.8209078e+11)
(-3.7012398e+12 -2.9001533e+10 3.7359225e+11)
(-2.5890362e+12 -2.8322345e+10 3.3804445e+11)
(-2.5856284e+12 -1.618958e+10 3.2900787e+11)
(-3.2488099e+12 -1.9640115e+10 4.0092784e+11)
(-3.2422264e+12 1.8252663e+10 4.0487996e+11)
(-2.5842814e+12 -1.4295781e+10 3.1855088e+11)
(-2.5674299e+12 2.3066128e+09 3.2342157e+11)
(-3.2441319e+12 -2.6465675e+10 3.9290488e+11)
(-3.2548517e+12 5.5413396e+09 3.9006342e+11)
(-2.5847369e+12 -1.0176229e+10 3.2752131e+11)
(-2.565614e+12 6.5380113e+09 3.1320554e+11)
(-3.254178e+12 -8.8333932e+09 3.8260944e+11)
(-3.2544567e+12 2.5498819e+10 3.8942466e+11)
(-2.5764075e+12 4.5696122e+09 3.1652832e+11)
(-2.5638248e+12 4.6917035e+09 3.2641581e+11)
(-3.2572708e+12 1.5329231e+10 3.9085496e+11)
(-3.2430544e+12 -2.4185013e+10 3.9412648e+11)
(-3.2600277e+12 3.2760688e+10 4.020391e+11)
(-2.5873525e+12 -7.333261e+09 3.3940917e+11)
(-2.5806978e+12 8.0713841e+09 3.2886593e+11)
(-3.2644467e+12 -7.8959987e+08 3.9692185e+11)
(-2.5685399e+12 1.1734088e+10 3.1641763e+11)
(-2.553317e+12 2.6786476e+10 3.2002507e+11)
(-3.2503655e+12 -3.3465944e+09 3.8901396e+11)
(-3.2634965e+12 2.7574055e+10 3.8772517e+11)
(-2.5786645e+12 1.5012943e+10 3.24994e+11)
(-2.5747982e+12 2.5065475e+10 3.1781609e+11)
(-3.2591194e+12 4.5916788e+10 3.909049e+11)
(-3.2595061e+12 1.1081152e+10 3.8468324e+11)
(-3.2544725e+12 3.2225437e+10 3.9767759e+11)
(-2.5720631e+12 2.6780309e+10 3.1908225e+11)
(-2.5743526e+12 2.4038045e+10 3.3535163e+11)
(-3.2432871e+12 -8.3275072e+09 4.0327029e+11)
(-2.9023284e+12 -1.8492669e+10 3.0683789e+11)
(-3.7146395e+12 -3.9797372e+10 3.8979584e+11)
(-3.7279777e+12 1.456865e+10 4.2062301e+11)
(-2.9224662e+12 -3.2324627e+10 3.3652535e+11)
(-2.9160112e+12 -1.8615301e+10 3.0585897e+11)
(-2.8861444e+12 -6.7733584e+09 3.0973422e+11)
(-3.7094804e+12 -5.186569e+10 3.9050255e+11)
(-3.7229618e+12 5.3501021e+09 3.8843887e+11)
(-4.1087913e+12 -2.8794344e+10 -7.3724597e+10)
(-3.9945016e+12 -1.1855815e+10 -1.7077396e+11)
(-3.9756232e+12 -6.6396272e+09 -1.9361177e+11)
(-4.079682e+12 4.1663096e+08 -9.6641807e+10)
(-4.4287523e+12 -3.8166335e+10 -1.0468536e+11)
(-4.1016679e+12 1.2567068e+10 -5.981971e+10)
(-3.9635885e+12 5.2725304e+09 -1.6435283e+11)
(-3.981452e+12 -1.8956706e+10 -1.6681227e+11)
(-4.4597892e+12 2.9447684e+10 -7.616569e+10)
(-4.087606e+12 -2.6412538e+10 -7.7694335e+10)
(-4.1784017e+12 2.9096573e+10 2.3890483e+11)
(-4.1703005e+12 -3.9872133e+10 2.2204835e+11)
(-4.0325411e+12 -2.5527874e+10 5.2368382e+09)
(-4.0390858e+12 1.4277948e+10 1.8951701e+10)
(-4.0362718e+12 6.8557071e+09 -8.0085923e+09)
(-4.1556948e+12 2.0085548e+10 2.0891468e+11)
(-4.0522697e+12 -2.9461306e+10 1.3481917e+10)
(-4.1727325e+12 -5.0543172e+10 2.2817735e+11)
(-3.9850288e+12 -1.8797485e+10 -2.3123401e+11)
(-3.7387556e+12 1.9469209e+09 -1.2652596e+10)
(-3.6928236e+12 2.9628503e+10 -1.068236e+11)
(-3.7167171e+12 3.0755859e+10 -1.0176174e+11)
(-3.7785321e+12 3.5997857e+10 6.0632048e+09)
(-3.5772783e+12 -1.7517188e+10 1.1129642e+11)
(-3.5857168e+12 1.9203801e+10 1.236691e+11)
(-3.7388252e+12 3.2759661e+10 2.9991676e+11)
(-3.7385732e+12 -2.8940477e+10 2.8671756e+11)
(-3.5799566e+12 -8.8371003e+09 1.1161902e+11)
(-3.5844103e+12 2.0616891e+10 1.0754939e+11)
(-3.7557039e+12 2.3490759e+10 2.8343493e+11)
(-3.7388087e+12 -2.7952718e+10 2.8311467e+11)
(-3.6293416e+12 1.7875598e+10 3.3806684e+10)
(-3.5083184e+12 1.4180563e+10 -6.9089549e+10)
(-3.5010912e+12 4.2873746e+09 -6.7554629e+10)
(-3.6204619e+12 -9.5137703e+09 3.5610042e+10)
(-3.6352761e+12 2.1353925e+10 5.1035907e+10)
(-3.5011224e+12 1.7274028e+09 -6.9151765e+10)
(-3.5001592e+12 1.2289399e+10 -5.8520321e+10)
(-3.6266487e+12 -1.1460303e+10 3.8398161e+10)
(-3.5429496e+12 1.460093e+10 -7.7023117e+10)
(-3.4826931e+12 1.0603748e+10 -1.4205424e+11)
(-3.48259e+12 8.0703982e+09 -1.3082529e+11)
(-3.5448021e+12 3.0834869e+09 -8.6596457e+10)
(-3.5578722e+12 7.251155e+09 -1.3902428e+11)
(-3.5552859e+12 1.1607278e+10 -1.2857415e+11)
(-3.5187543e+12 6.7040156e+09 -1.5321503e+11)
(-3.5149459e+12 1.1081642e+10 -1.6677241e+11)
(-4.0263404e+12 2.4998871e+10 -1.7429486e+11)
(-3.5270849e+12 1.091613e+09 -1.6138464e+11)
(-3.5358964e+12 1.5772676e+09 -1.5937573e+11)
(-3.5688468e+12 5.9087844e+09 -1.3468941e+11)
(-4.0909539e+12 -2.7363136e+10 -1.7036226e+11)
(-3.5626555e+12 -3.2346776e+09 -1.3436422e+11)
(-3.4947411e+12 4.008856e+09 -1.3422396e+11)
(-3.498032e+12 7.7145292e+09 -1.3543127e+11)
(-3.5431189e+12 1.306852e+10 -9.0262428e+10)
(-3.5345168e+12 2.1643546e+09 -9.0043119e+10)
(-3.9696534e+12 -3.3148738e+10 -2.420427e+11)
(-3.9591075e+12 2.7486745e+10 -2.3628895e+11)
(-3.5544349e+12 1.6733304e+10 -8.790649e+10)
(-3.4949301e+12 1.5611286e+10 -1.5352591e+11)
(-3.5048651e+12 6.3047043e+09 -1.4133193e+11)
(-3.5483138e+12 1.0765734e+10 -9.8169668e+10)
(-3.5315362e+12 1.2517761e+10 -1.8319714e+11)
(-3.5491359e+12 -3.6609434e+09 -1.6622178e+11)
(-3.5660805e+12 9.2715823e+09 -1.5373303e+11)
(-3.5745211e+12 4.9034646e+09 -1.418038e+11)
(-4.0265851e+12 1.0163657e+09 -1.9762381e+11)
(-3.551955e+12 5.7939725e+09 -1.5488045e+11)
(-3.5811937e+12 1.1364719e+10 -1.280268e+11)
(-3.5541645e+12 2.1436104e+10 -8.0068333e+10)
(-3.5098985e+12 1.5525859e+10 -1.2726768e+11)
(-3.5420393e+12 3.2546636e+09 -7.9695832e+10)
(-3.9028497e+12 -5.4691399e+08 -2.7304458e+11)
(-4.503494e+12 3.7843011e+10 -1.3033127e+11)
(-3.7839087e+12 3.1453083e+10 -3.1638094e+11)
(-4.088586e+12 3.4004508e+10 -2.1534996e+11)
(-4.1297367e+12 -3.8767269e+10 -2.0691968e+11)
(-3.7884585e+12 -2.1408746e+10 -3.2107103e+11)
(-3.6153289e+12 1.7469336e+10 -3.3256792e+11)
(-4.0196431e+12 -4.3309852e+09 -2.7114627e+11)
(-3.7527238e+12 4.322154e+10 2.871476e+11)
(-3.7548071e+12 -7.8090813e+09 2.7860101e+11)
(-3.5935361e+12 3.3059282e+10 1.1349974e+11)
(-3.5886233e+12 4.1375108e+09 1.0311159e+11)
(-3.6411996e+12 3.2072755e+10 4.0437271e+10)
(-3.6344986e+12 5.3066447e+09 2.9488964e+10)
(-3.5080538e+12 2.0965708e+10 -6.5877982e+10)
(-3.5065647e+12 1.3729187e+10 -7.6955569e+10)
(-3.5061658e+12 5.3114491e+09 -5.3854381e+10)
(-3.5173897e+12 2.7597721e+10 -5.5057236e+10)
(-3.630227e+12 3.3465637e+10 4.7554373e+10)
(-3.6186671e+12 -7.2139486e+09 5.0744688e+10)
(-3.5862227e+12 -4.685569e+09 1.3146007e+11)
(-3.5911806e+12 4.2825981e+10 1.2549985e+11)
(-3.7314972e+12 4.4305319e+10 2.8596888e+11)
(-3.7148139e+12 -1.7688497e+10 2.8983381e+11)
(-3.0648237e+12 2.7026657e+09 2.9441924e+11)
(-3.0740102e+12 4.8923129e+10 2.8615763e+11)
(-3.0757439e+12 5.1550432e+10 2.7994822e+11)
(-3.0777973e+12 1.2894649e+10 2.741845e+11)
(-3.0761436e+12 4.0326524e+10 2.8871224e+11)
(-3.0816875e+12 -7.2499005e+08 2.8107243e+11)
(-3.0778339e+12 4.164913e+10 2.7088032e+11)
(-3.066897e+12 7.6323067e+09 2.7333107e+11)
(-3.5149865e+12 2.2154338e+10 2.525052e+11)
(-3.5047916e+12 -3.0439533e+10 2.5558968e+11)
(-3.5175574e+12 2.8281422e+10 2.8077665e+11)
(-3.5128187e+12 -3.2534658e+10 2.5793824e+11)
(-3.4909294e+12 3.218188e+10 2.489391e+11)
(-3.5009118e+12 -2.2204128e+10 2.4350207e+11)
(-3.5103634e+12 -3.2464892e+10 2.7957424e+11)
(-3.5172779e+12 3.5313805e+10 2.6909383e+11)
(-3.0694619e+12 1.9728082e+10 2.7880153e+11)
(-3.0600656e+12 -1.598557e+10 2.8156119e+11)
(-3.0595185e+12 2.5366587e+10 2.9595576e+11)
(-3.0678438e+12 -2.1222203e+10 2.901617e+11)
(-3.0616832e+12 -8.411148e+09 2.8491171e+11)
(-3.0721076e+12 3.3209068e+10 2.8013627e+11)
(-3.0689933e+12 3.0882217e+10 2.7826665e+11)
(-3.0713653e+12 -7.0553322e+09 2.7053942e+11)
(-4.565972e+12 -6.339264e+10 -3.3482036e+11)
(-4.5440536e+12 -4.6115656e+10 -3.3770373e+11)
(-4.6464701e+12 -2.2025909e+10 -1.9679907e+11)
(-4.057525e+12 -1.82287e+10 -3.9670901e+11)
(-3.1975463e+12 -3.5891153e+10 -5.0637531e+11)
(-3.1976112e+12 1.7475365e+10 -5.1103085e+11)
(-3.1903987e+12 -3.6079465e+10 -5.0842103e+11)
(-3.2022824e+12 1.3625261e+10 -5.109693e+11)
(-2.8081193e+12 -1.0504165e+10 -6.3728032e+11)
(-1.93189e+12 7.460272e+09 -5.4730207e+11)
(-1.9330953e+12 -8.2077039e+09 -5.3917213e+11)
(-1.3868595e+12 -3.5594537e+09 -6.1709959e+11)
(-1.3765416e+12 -1.3339295e+10 -6.1007296e+11)
(-1.9278437e+12 6.893007e+09 -5.3933694e+11)
(-1.9289042e+12 -9.4388567e+09 -5.449643e+11)
(-1.378176e+12 -2.0969936e+09 -6.0649446e+11)
(-1.3682388e+12 -1.1149475e+10 -6.216878e+11)
(-1.1134051e+12 -3.0115743e+10 -1.6007397e+11)
(-1.1220559e+12 -2.3491681e+10 -1.3102217e+11)
(-1.6349278e+12 1.1226213e+10 2.4939377e+11)
(-1.624629e+12 -3.5701357e+10 2.4592817e+11)
(-1.6333081e+12 -8.2297031e+09 2.485183e+11)
(-1.5892524e+12 3.6942777e+10 2.2552598e+11)
(-1.1290627e+12 -1.8569312e+10 -1.308362e+11)
(-1.0839754e+12 -8.6944599e+09 -1.762803e+11)
(-2.8055976e+12 -2.5659375e+10 -6.3884109e+11)
(-2.8098579e+12 -1.3973647e+10 -6.4066862e+11)
(-1.9286852e+12 1.2754106e+10 -5.45705e+11)
(-1.9256614e+12 -3.217279e+09 -5.3712402e+11)
(-1.3762956e+12 5.3735477e+09 -6.1819223e+11)
(-1.3642596e+12 -4.8167565e+09 -6.0968926e+11)
(-1.1260568e+12 -6.9740604e+09 -1.2648337e+11)
(-1.6276289e+12 1.1819524e+10 2.4478262e+11)
(-1.1022973e+12 -1.6675005e+10 -1.6521235e+11)
(-1.6136546e+12 -1.20624e+10 2.3496132e+11)
(-1.1102883e+12 -9.6268009e+09 -1.3430584e+11)
(-1.6116905e+12 3.3802254e+10 2.3632242e+11)
(-3.9220389e+12 -1.5716662e+10 -4.5689867e+11)
(-3.8308556e+12 6.1311108e+08 -2.6600151e+11)
(-3.8070821e+12 -5.7521466e+10 -2.5934887e+11)
(-3.8972343e+12 -3.0912506e+10 -4.6079299e+11)
(-4.0246046e+12 -2.6584158e+09 -4.0791881e+11)
(-3.1876431e+12 2.3414387e+10 -5.1468328e+11)
(-3.1797234e+12 -2.9066181e+10 -5.1152452e+11)
(-3.9864848e+12 6.7480943e+09 -2.1618302e+11)
(-4.0308729e+12 -4.8388448e+10 -2.2596997e+11)
(-4.0272621e+12 -3.15768e+10 -4.017796e+11)
(-3.1788931e+12 1.9029481e+10 -5.1143287e+11)
(-3.1756606e+12 -3.4249356e+10 -5.1149397e+11)
(-3.8574774e+12 -5.2851101e+10 -2.6878647e+11)
(-3.8140606e+12 2.0073045e+10 -2.7204514e+11)
(-3.90345e+12 -7.1862335e+09 -4.5529141e+11)
(-3.9052456e+12 -3.002791e+10 -4.6387049e+11)
(-2.6651772e+12 -7.943078e+09 -5.8047191e+11)
(-3.1736245e+12 1.5718795e+10 -4.7983916e+11)
(-3.1729108e+12 -1.9535003e+10 -4.7376876e+11)
(-2.6644175e+12 -1.0136325e+10 -5.7626492e+11)
(-2.6692714e+12 -1.0886632e+09 -5.769057e+11)
(-3.1684241e+12 1.6587152e+10 -4.8326822e+11)
(-3.1599364e+12 -2.8168728e+10 -4.8016142e+11)
(-2.6615667e+12 -1.3257587e+10 -5.8564879e+11)
(-1.8237377e+12 -5.2166035e+09 -5.2576308e+11)
(-1.8197585e+12 2.0492746e+10 -5.2247322e+11)
(-1.5967545e+12 -6.3577567e+10 1.1853855e+11)
(-1.5806345e+12 3.2342631e+10 1.1579947e+11)
(-1.8362055e+12 1.0542176e+09 -5.2128962e+11)
(-1.8099068e+12 1.7581796e+10 -5.3016708e+11)
(-1.6106355e+12 -5.7339081e+10 1.3115637e+11)
(-1.5629981e+12 4.3658197e+10 1.112507e+11)
(-2.6741314e+12 -3.8847146e+09 -5.7992973e+11)
(-3.1747532e+12 1.6939663e+10 -4.8007137e+11)
(-3.169863e+12 -2.0351546e+10 -4.7351961e+11)
(-2.6619527e+12 -5.8504836e+09 -5.7714773e+11)
(-2.6538179e+12 7.7061724e+08 -5.7543356e+11)
(-3.1516201e+12 1.5347408e+10 -4.7941604e+11)
(-3.1464149e+12 -2.810291e+10 -4.7829635e+11)
(-2.6513161e+12 -1.0969771e+10 -5.8569913e+11)
(-1.8301332e+12 -2.0949955e+09 -5.2563095e+11)
(-1.8163089e+12 2.5601279e+10 -5.2080652e+11)
(-1.5837665e+12 -5.8907504e+10 1.143929e+11)
(-1.5726779e+12 5.2229902e+10 1.1796666e+11)
(-1.7995378e+12 1.8191268e+10 -5.3082809e+11)
(-1.6099664e+12 -3.9803902e+10 1.3910108e+11)
(-1.8242893e+12 2.8939841e+09 -5.1714661e+11)
(-1.5644969e+12 5.3649022e+10 1.1477396e+11)
(-2.7908042e+12 -5.4557184e+09 -6.389443e+11)
(-2.7932249e+12 -2.0499795e+10 -6.3785045e+11)
(-1.9285331e+12 1.2521517e+10 -5.4710535e+11)
(-1.9278895e+12 -3.1969276e+09 -5.3888269e+11)
(-1.3729944e+12 5.9806349e+09 -6.1941998e+11)
(-1.3643133e+12 -5.3349065e+09 -6.1027685e+11)
(-1.9250898e+12 8.0518424e+09 -5.3832661e+11)
(-1.9251635e+12 -9.5106629e+09 -5.4413451e+11)
(-1.3702472e+12 1.348049e+09 -6.0675441e+11)
(-1.3605793e+12 -1.171551e+10 -6.2167954e+11)
(-1.6004761e+12 -4.9679838e+10 2.2841421e+11)
(-1.6308512e+12 -1.1102637e+10 2.4808091e+11)
(-1.0812603e+12 -1.4543045e+10 -1.9021506e+11)
(-1.1093567e+12 -1.3007056e+10 -1.3986747e+11)
(-1.6354918e+12 -3.411968e+10 2.4815387e+11)
(-1.6022095e+12 1.6040814e+10 2.2856385e+11)
(-1.1144783e+12 -1.5086846e+10 -1.3824193e+11)
(-1.0775065e+12 -8.9045661e+09 -1.7642724e+11)
(-2.7943248e+12 -2.4574594e+10 -6.4251261e+11)
(-2.7983662e+12 -9.1361413e+09 -6.3604631e+11)
(-1.9240144e+12 1.1624709e+10 -5.429949e+11)
(-1.9228056e+12 -3.700482e+09 -5.3543025e+11)
(-1.3740213e+12 2.1929477e+09 -6.1697474e+11)
(-1.3637939e+12 -6.8333549e+09 -6.0913171e+11)
(-1.9271909e+12 7.9298894e+09 -5.4197615e+11)
(-1.9255683e+12 -1.3231357e+10 -5.4843514e+11)
(-1.3747892e+12 1.4504851e+09 -6.0956265e+11)
(-1.3655791e+12 -1.5706867e+10 -6.2518139e+11)
(-1.0934341e+12 -2.0313855e+10 -1.7119294e+11)
(-1.6142984e+12 -3.5002732e+10 2.3102623e+11)
(-1.1021268e+12 -1.1690105e+10 -1.4118507e+11)
(-1.6144695e+12 1.7038168e+10 2.333571e+11)
(-1.1123748e+12 -1.1520562e+10 -1.4404885e+11)
(-1.0734489e+12 -1.3686796e+10 -1.8345316e+11)
(-1.6195407e+12 -8.5381165e+09 2.3642722e+11)
(-1.5849754e+12 1.9057471e+10 2.2021445e+11)
(-2.5785026e+12 -3.4177396e+09 3.2698439e+11)
(-2.5570281e+12 9.8697235e+09 3.0813656e+11)
(-3.2409051e+12 -4.5785289e+09 3.7730973e+11)
(-3.2419774e+12 2.9210704e+10 3.8395755e+11)
(-2.5690532e+12 6.670451e+09 3.16105e+11)
(-3.239622e+12 1.362712e+10 3.9219627e+11)
(-2.5625624e+12 -1.0533118e+09 3.2554279e+11)
(-3.2282302e+12 -3.2995712e+10 3.965687e+11)
(-2.5414953e+12 -2.3127429e+10 3.1273482e+11)
(-2.5361724e+12 -8.2219548e+09 3.0157943e+11)
(-3.2059371e+12 1.7437044e+10 3.7029022e+11)
(-3.2136845e+12 -1.4206522e+10 3.6519857e+11)
(-3.220776e+12 1.1563074e+10 3.6253572e+11)
(-2.5387882e+12 -3.686562e+09 2.9671898e+11)
(-2.5296594e+12 6.7979436e+09 3.0332142e+11)
(-3.2129653e+12 -2.1594287e+10 3.6613159e+11)
(-2.2495467e+12 -1.4010551e+10 3.2313438e+11)
(-2.246832e+12 -3.2812582e+10 3.3206162e+11)
(-2.8460524e+12 1.5422786e+10 3.5538708e+11)
(-2.8450271e+12 -1.2810261e+10 3.5099256e+11)
(-2.2433429e+12 -4.4912778e+09 3.2642668e+11)
(-2.23745e+12 -2.870504e+10 3.1350518e+11)
(-2.8575279e+12 1.7975914e+09 3.4798525e+11)
(-2.8484743e+12 -2.3709103e+10 3.4288998e+11)
(-2.2395148e+12 2.4059134e+09 3.1615559e+11)
(-2.2364907e+12 -3.2780067e+10 3.2192566e+11)
(-2.8542355e+12 1.3786387e+10 3.3941818e+11)
(-2.8564353e+12 -4.4133134e+09 3.4007196e+11)
(-2.235277e+12 7.9116951e+09 3.2749872e+11)
(-2.2294441e+12 -1.1294929e+10 3.1072099e+11)
(-2.8438996e+12 1.4981018e+10 3.4301481e+11)
(-2.8365255e+12 -1.7785454e+10 3.4260788e+11)
(-2.2378907e+12 5.8321043e+09 3.1835495e+11)
(-2.2358017e+12 -2.086409e+10 3.2476754e+11)
(-2.8460164e+12 2.4300107e+10 3.3840092e+11)
(-2.854104e+12 -1.6806228e+09 3.4393559e+11)
(-2.2233363e+12 1.720176e+10 3.1895103e+11)
(-2.2224701e+12 -8.0213362e+09 3.0584192e+11)
(-2.851148e+12 1.788958e+10 3.3133982e+11)
(-2.8434351e+12 -7.790213e+09 3.3077476e+11)
(-2.8582578e+12 2.9736376e+10 3.412083e+11)
(-2.2348654e+12 -1.0072751e+10 3.2387642e+11)
(-2.2336421e+12 1.9036819e+10 3.1604909e+11)
(-2.8574379e+12 7.9137926e+09 3.4073195e+11)
(-2.2396151e+12 9.3963694e+09 3.3427309e+11)
(-2.2286046e+12 1.2755386e+09 3.1312238e+11)
(-2.8451312e+12 2.3978352e+10 3.4589423e+11)
(-2.836698e+12 -1.1631353e+10 3.4641886e+11)
(-2.2352356e+12 1.3938266e+10 3.2148652e+11)
(-2.2506582e+12 -1.417261e+10 3.4004224e+11)
(-2.8567928e+12 3.1403058e+10 3.5520844e+11)
(-2.8515397e+12 5.09963e+09 3.4538832e+11)
(-2.2458083e+12 2.1871306e+10 3.2926321e+11)
(-2.2316457e+12 -1.7251591e+09 3.1212125e+11)
(-2.8565897e+12 2.1784241e+10 3.3658057e+11)
(-2.8558206e+12 -2.4113401e+09 3.4328269e+11)
(-2.2346038e+12 -6.2204481e+09 3.2444394e+11)
(-2.8503135e+12 3.7327642e+10 3.3130257e+11)
(-2.227917e+12 2.9729722e+10 3.1620171e+11)
(-2.8546339e+12 1.7943441e+10 3.3713939e+11)
(-2.8406472e+12 3.694564e+10 3.3735629e+11)
(-2.222658e+12 1.4514705e+10 3.1149483e+11)
(-2.2254122e+12 3.5930155e+10 3.2540585e+11)
(-2.8328336e+12 7.8431674e+09 3.3745996e+11)
(-2.2321026e+12 2.4999041e+10 3.1480969e+11)
(-2.2424768e+12 7.9911549e+09 3.2861308e+11)
(-2.8586233e+12 4.711308e+10 3.4334172e+11)
(-2.8586228e+12 1.8593461e+10 3.4109097e+11)
(-2.8604078e+12 3.3770391e+10 3.344627e+11)
(-2.2292589e+12 1.5111617e+10 3.1078312e+11)
(-2.237361e+12 3.7478931e+10 3.2379665e+11)
(-2.8588861e+12 1.3367602e+10 3.3932738e+11)
(-2.229119e+12 4.3703291e+10 3.1262145e+11)
(-2.2461001e+12 1.402454e+10 3.3201802e+11)
(-2.8601028e+12 4.9057883e+10 3.4488634e+11)
(-2.8577743e+12 2.5491179e+10 3.4014993e+11)
(-2.2468864e+12 2.953889e+10 3.3540317e+11)
(-2.2368168e+12 2.2483914e+10 3.1913665e+11)
(-2.851472e+12 3.5543348e+10 3.5348135e+11)
(-2.8442707e+12 2.6763518e+09 3.5292766e+11)
(-2.5462519e+12 -2.335639e+10 3.033825e+11)
(-2.532792e+12 -9.2912529e+09 3.0668169e+11)
(-3.2245074e+12 -4.6867779e+09 3.6738202e+11)
(-3.2154312e+12 -3.7053343e+10 3.682777e+11)
(-2.5521464e+12 -2.5437767e+10 3.2945272e+11)
(-2.5414447e+12 -2.0767371e+10 3.1714909e+11)
(-3.2181957e+12 1.3942891e+10 3.9153193e+11)
(-3.2224558e+12 -2.3145612e+10 3.8727685e+11)
(-3.2300961e+12 1.0716037e+10 3.7142275e+11)
(-2.5524531e+12 -2.5703744e+10 3.1456015e+11)
(-2.5308418e+12 -6.0960865e+09 2.9607266e+11)
(-3.221932e+12 -1.5169386e+10 3.597506e+11)
(-2.538873e+12 -5.6997754e+09 3.0323866e+11)
(-2.5183592e+12 -6.2849279e+09 3.0702204e+11)
(-3.2197654e+12 6.2611328e+09 3.7303595e+11)
(-3.2049429e+12 -3.519486e+10 3.7514851e+11)
(-3.4961311e+12 5.5560859e+09 -1.2618031e+11)
(-3.5041923e+12 1.2692893e+10 -1.2832036e+11)
(-3.5424948e+12 -2.939738e+09 -7.4900983e+10)
(-3.5542948e+12 1.6666037e+10 -7.6792002e+10)
(-3.5686051e+12 1.5130112e+09 -1.2695541e+11)
(-3.577889e+12 1.3425465e+10 -1.2847922e+11)
(-3.543891e+12 1.1355265e+10 -1.5587334e+11)
(-3.5339418e+12 8.9546618e+09 -1.5599852e+11)
(-4.0623051e+12 -1.3157831e+10 -1.7772411e+11)
(-3.5468157e+12 9.8333687e+08 -1.4554011e+11)
(-3.5154737e+12 1.6828048e+10 -1.8034875e+11)
(-3.508813e+12 -5.3708674e+09 -1.7632601e+11)
(-3.5517447e+12 8.3993407e+09 -1.508542e+11)
(-4.0117946e+12 -8.3507265e+09 -2.0481753e+11)
(-3.4790304e+12 1.1732364e+10 -1.5006193e+11)
(-3.4730624e+12 1.738768e+09 -1.4572667e+11)
(-3.5162344e+12 8.518405e+09 -9.8558354e+10)
(-3.5223853e+12 4.4591751e+09 -1.028555e+11)
(-3.8856758e+12 -3.8907679e+09 -2.7907861e+11)
(-3.9271316e+12 -3.1866296e+09 -2.4524535e+11)
(-3.4743705e+12 6.5797741e+09 -1.3528287e+11)
(-3.5397683e+12 -2.2086945e+09 -7.8840152e+10)
(-3.5540769e+12 3.1403116e+09 -1.3264292e+11)
(-3.5080455e+12 6.7840676e+09 -1.6221e+11)
(-3.5178379e+12 -1.5745097e+09 -1.5377748e+11)
(-3.5499127e+12 3.2525327e+09 -1.2897663e+11)
(-4.057687e+12 -2.9966026e+10 -1.7030286e+11)
(-3.5009464e+12 -1.0539448e+09 -1.5995016e+11)
(-3.528678e+12 -5.3110297e+09 -1.3621003e+11)
(-3.928686e+12 -3.0496307e+10 -2.4227968e+11)
(-3.4667966e+12 -1.9308095e+08 -1.3254034e+11)
(-3.5092575e+12 -5.1254398e+09 -8.9616963e+10)
(-3.4786753e+12 3.5955384e+09 -1.2959474e+11)
(-3.522808e+12 6.9859677e+09 -8.6196478e+10)
(-3.7148334e+12 3.1061856e+10 2.941755e+11)
(-3.5618307e+12 -1.9629751e+10 1.1498486e+11)
(-3.706731e+12 -3.0160741e+10 2.7590616e+11)
(-3.5532813e+12 -1.813006e+10 1.1192783e+11)
(-3.5600058e+12 1.3521173e+10 1.0914391e+11)
(-3.6992407e+12 -3.4991142e+10 2.7253934e+11)
(-3.7101158e+12 1.5508662e+10 2.6968164e+11)
(-3.6018135e+12 1.087102e+10 3.5838922e+10)
(-3.4883606e+12 7.2839554e+09 -6.352567e+10)
(-3.591915e+12 -1.8346487e+10 3.650995e+10)
(-3.4762837e+12 -5.0104779e+09 -6.5064318e+10)
(-3.4926051e+12 -3.6367503e+09 -6.0567881e+10)
(-3.6107736e+12 -1.4305668e+10 4.2708233e+10)
(-3.4755007e+12 1.0967767e+10 -7.5224827e+10)
(-3.4852189e+12 5.217111e+09 -7.8385371e+10)
(-3.599661e+12 -5.8817981e+09 2.4083462e+10)
(-3.591407e+12 2.0103121e+10 2.8063566e+10)
(-3.5565825e+12 -8.4113941e+09 9.9644749e+10)
(-3.5480317e+12 2.24975e+10 1.0391228e+11)
(-3.6878948e+12 3.0616643e+10 2.6326963e+11)
(-3.6989905e+12 -2.0190418e+10 2.5950146e+11)
(-3.6248042e+12 2.3418752e+10 4.7759231e+10)
(-3.5113641e+12 2.018424e+10 -5.5138761e+10)
(-3.5012736e+12 -3.3962135e+09 -5.1666907e+10)
(-3.6147949e+12 -1.8743001e+10 5.2213377e+10)
(-3.576433e+12 -1.7887049e+10 1.3094407e+11)
(-3.5801891e+12 2.9568581e+10 1.2369276e+11)
(-3.7160579e+12 2.9174583e+10 2.8171799e+11)
(-3.700934e+12 -3.3164811e+10 2.8669415e+11)
(-3.5855955e+12 2.7315165e+10 -3.4669134e+11)
(-4.0043822e+12 -2.373904e+09 -2.7779184e+11)
(-4.0560304e+12 -1.2299948e+10 -2.290181e+11)
(-3.5887961e+12 -1.4034317e+10 -3.4064212e+11)