/*--------------------------------*- C++ -*----------------------------------*\
  =========                 |
  \\      /  F ield         | OpenFOAM: The Open Source CFD Toolbox
   \\    /   O peration     | Website:  https://openfoam.org
    \\  /    A nd           | Version:  7
     \\/     M anipulation  |
\*---------------------------------------------------------------------------*/
FoamFile
{
    version     2.0;
    format      ascii;
    class       volScalarField;
    location    "10000";
    object      nut;
}
// * * * * * * * * * * * * * * * * * * * * * * * * * * * * * * * * * * * * * //

dimensions      [0 2 -1 0 0 0 0];

internalField   nonuniform List<scalar> 
33899
(
1.0202693e-58
9.523236e-59
2.5155476e-59
1.1370716e-58
1.2028663e-58
1.3244477e-58
1.5114966e-58
1.236832e-58
1.5230834e-58
2.5114923e-59
2.5415173e-59
2.862811e-59
1.828495e-59
1.3699318e-59
1.832557e-59
1.3701833e-59
2.0818094e-59
7.2382465e-59
8.535605e-59
1.8839672e-59
1.4059388e-58
1.3086304e-58
1.9054e-58
1.7705518e-58
1.2839935e-58
1.4407467e-58
1.4207802e-58
1.8694407e-58
1.8855197e-58
1.7587695e-58
2.2744681e-58
6.066626e-59
2.6952471e-59
2.7068206e-59
1.9853873e-59
1.3519916e-59
1.3526526e-59
2.0645945e-59
1.8679576e-59
2.1369862e-59
1.3977867e-59
1.4220694e-59
2.1101911e-59
1.9114014e-59
6.866027e-59
8.4463793e-59
2.804552e-59
2.629135e-59
3.290636e-59
3.7066582e-59
3.3444316e-59
3.7825755e-59
2.8573794e-59
7.4834354e-60
7.399183e-60
7.5264591e-60
1.2156057e-59
1.1400962e-59
1.5063069e-59
1.3489394e-59
1.2970026e-59
1.311533e-59
7.3226451e-60
1.2035482e-59
1.2326445e-59
1.3946245e-59
1.3637905e-59
1.1040323e-59
1.1192921e-59
6.8852422e-60
7.0681242e-60
1.0360653e-59
1.1839691e-59
1.2032666e-59
1.2034962e-59
8.0230288e-60
1.2989486e-59
1.3614329e-59
1.1517801e-59
1.1928764e-58
1.4987699e-58
1.4911401e-58
1.9344046e-58
2.1120872e-58
1.8365353e-58
1.7843218e-58
8.2582308e-59
2.7239507e-58
2.348276e-58
2.4971846e-58
2.0735068e-58
2.2389352e-58
2.3797091e-58
3.9480525e-59
1.4621133e-58
4.0627368e-58
1.1010216e-58
1.384912e-58
3.0730849e-58
5.5591514e-59
6.0504929e-59
6.8206288e-59
1.9179916e-59
1.9480163e-59
8.6119743e-59
2.3007243e-59
2.5626941e-59
2.195634e-59
1.3507769e-59
1.3488702e-59
2.1215666e-59
3.2491894e-59
1.1294609e-59
1.1140447e-59
7.3710258e-60
7.0569681e-60
7.2796218e-60
1.4118197e-59
1.3886038e-59
1.3219428e-59
1.24897e-59
1.5595877e-59
1.2167722e-59
1.4254714e-59
1.2159844e-59
7.1609169e-60
1.1464842e-59
7.2613514e-60
1.1146912e-59
7.0396363e-60
1.2223018e-59
1.2334013e-59
7.3961682e-60
7.0708032e-60
7.2286762e-60
1.149483e-59
1.1838267e-59
1.3457837e-59
1.3049218e-59
1.2728758e-59
1.2711383e-59
1.5503605e-59
1.4879901e-59
1.1854525e-59
1.2232303e-59
7.2893026e-60
7.3095624e-60
7.1530878e-60
1.1616214e-59
1.0352428e-59
1.2095732e-59
1.1572817e-59
1.1993044e-59
1.2303118e-59
3.1724519e-59
3.1341984e-59
3.5624906e-59
2.9406256e-59
2.8088296e-59
3.2021677e-59
3.2834145e-59
1.8961251e-59
1.9326405e-59
2.1027953e-59
1.8768082e-59
1.8825701e-59
2.1022734e-59
2.151621e-59
1.6969811e-59
1.89483e-59
1.9314782e-59
2.0599169e-59
2.058323e-59
2.0750083e-59
2.1866094e-59
1.9287265e-59
1.8082872e-59
2.0779681e-59
1.8593031e-59
1.915623e-59
1.9007162e-59
2.1576561e-59
2.6303185e-60
4.1017569e-60
4.2419223e-60
2.6870206e-60
7.2207232e-60
6.9811969e-60
7.2884512e-60
7.2091717e-60
6.0263299e-60
6.7578582e-60
6.7973954e-60
6.6146068e-60
6.5362709e-60
5.3029264e-60
6.1981952e-60
6.9057337e-60
6.698241e-60
7.6697961e-60
6.5033917e-60
6.1721162e-60
1.2730263e-59
1.3025867e-59
1.5656113e-59
1.4820913e-59
1.3188353e-59
1.2255351e-59
1.4933269e-59
1.513778e-59
1.5824267e-59
1.5712711e-59
1.4385806e-59
1.4641866e-59
1.5374984e-59
1.6128094e-59
1.6039371e-59
1.4929173e-59
2.7137486e-60
2.6359042e-60
4.0551395e-60
4.0003871e-60
5.6279354e-60
6.0426875e-60
1.402077e-59
1.3405325e-59
1.5091522e-59
1.4391036e-59
1.4185914e-59
1.3553268e-59
1.562304e-59
1.4738995e-59
1.3631904e-59
1.3045027e-59
1.4314278e-59
1.4321397e-59
1.4013504e-59
1.4207521e-59
1.3722782e-59
1.3757098e-59
6.813545e-60
5.8684748e-60
6.3718967e-60
6.234937e-60
6.3249592e-60
5.9760568e-60
6.4290916e-60
6.4097814e-60
6.4477271e-60
5.9639217e-60
6.8993163e-60
6.7581279e-60
8.0118443e-60
5.6070361e-60
7.7528945e-60
7.8906258e-60
1.0793328e-59
1.081417e-59
6.6035657e-60
2.7311738e-60
2.7111886e-60
4.0991675e-60
3.9736123e-60
6.1277524e-60
6.8227171e-60
7.5845738e-60
7.212418e-60
6.8412717e-60
1.1791687e-58
1.9860145e-58
1.9442509e-58
1.3489902e-58
1.3347768e-58
1.2178565e-58
1.4048647e-58
1.4680631e-58
1.6392248e-58
7.8040341e-59
1.905446e-58
1.8729335e-58
1.891621e-58
1.7975694e-58
8.1878181e-59
9.3519721e-59
2.1920046e-58
2.69877e-58
2.9444139e-58
2.6075314e-58
2.2870967e-58
2.4612712e-58
4.4345427e-59
5.7389788e-59
6.0722157e-59
5.441921e-59
3.8400641e-59
1.1426311e-58
2.5667744e-58
3.7629838e-59
1.4002543e-58
2.2067259e-58
2.9829676e-58
4.5935668e-58
5.569611e-59
5.473746e-59
8.0224333e-59
5.2511743e-58
1.3268232e-58
1.1125083e-58
1.2500888e-58
1.5701719e-59
5.4425011e-59
1.5529781e-59
6.0359426e-59
8.2877637e-59
2.0156288e-59
2.2853383e-59
1.1873572e-59
7.6397453e-60
1.4256653e-59
1.4217296e-59
7.6503191e-60
7.2563915e-60
7.2281922e-60
1.2322889e-59
1.1963053e-59
1.2429543e-59
7.3860529e-60
1.0580958e-59
1.044658e-59
7.065145e-60
1.0993461e-59
1.1241922e-59
7.2291542e-60
7.2851999e-60
7.0346844e-60
1.0433841e-59
1.1174811e-59
6.7998177e-60
1.2383411e-59
1.2904471e-59
1.3707579e-59
1.4302635e-59
1.5171415e-59
1.230974e-59
1.0599349e-59
1.0068624e-59
7.0012602e-60
7.2305877e-60
1.9610717e-59
1.9693465e-59
1.9995028e-59
2.5723415e-60
7.1549097e-60
5.6727015e-60
7.2197974e-60
7.040268e-60
2.5679138e-60
7.9460862e-60
5.2477287e-60
7.4224769e-60
7.5455367e-60
6.6906861e-60
6.4348018e-60
7.0424936e-60
7.091665e-60
6.7438985e-60
5.9403294e-60
6.2560756e-60
6.6363605e-60
4.1179519e-60
4.1120786e-60
1.6723393e-59
1.4102113e-59
1.5186548e-59
1.682704e-59
1.3617473e-59
1.4268951e-59
1.5431511e-59
1.4666098e-59
1.6795824e-59
1.6539671e-59
1.4755632e-59
1.5462024e-59
1.516159e-59
1.5744627e-59
1.6301615e-59
1.5427451e-59
1.4377711e-59
1.2805098e-59
1.6132608e-59
1.4419869e-59
1.2676015e-59
1.3007434e-59
1.3945672e-59
1.2899788e-59
1.4269386e-59
1.4108899e-59
1.641501e-59
1.6002654e-59
1.6587022e-59
1.5943094e-59
1.477077e-59
1.5127855e-59
6.8415463e-60
6.2261768e-60
6.6971594e-60
6.3564667e-60
2.6565026e-60
6.2160386e-60
7.2125496e-60
8.167764e-60
7.3527505e-60
2.5904897e-60
4.0194929e-60
4.0941739e-60
6.187851e-60
5.3388277e-60
6.539826e-60
6.5006768e-60
6.2580884e-60
6.2945327e-60
6.504658e-60
6.9534747e-60
6.0751872e-60
5.630666e-60
2.6122033e-60
2.5949829e-60
3.8921267e-60
3.8934778e-60
6.04367e-60
6.3596581e-60
6.2814453e-60
6.4672917e-60
6.2108271e-60
6.4368123e-60
6.2339721e-60
6.5474328e-60
6.5858404e-60
5.1336623e-60
8.3455759e-60
7.5162634e-60
6.5203551e-60
5.5234708e-60
7.4300771e-60
7.1506677e-60
1.2390018e-59
1.128955e-59
1.3853324e-59
1.3978565e-59
1.2964336e-59
1.0729449e-59
1.3112737e-59
1.4918867e-59
1.5937727e-59
1.424196e-59
1.3496389e-59
1.4751709e-59
1.4577712e-59
1.5189773e-59
1.6020014e-59
1.4927078e-59
1.5295015e-59
1.3130276e-59
1.5212654e-59
1.6817079e-59
1.4271069e-59
1.189295e-59
1.3669541e-59
1.5787557e-59
1.2856085e-59
1.2970141e-59
1.4829705e-59
1.4068551e-59
1.4260101e-59
1.4441734e-59
1.5763056e-59
1.454112e-59
2.6259482e-60
2.550975e-60
3.9680022e-60
4.1895513e-60
6.5124818e-60
6.7125619e-60
6.6639752e-60
7.1907846e-60
6.1400356e-60
6.2488375e-60
6.2487562e-60
6.6194418e-60
6.4228392e-60
5.2693618e-60
8.0379651e-60
7.2164801e-60
6.1849019e-60
5.1781751e-60
6.148139e-60
6.5814139e-60
6.1754354e-60
6.5285952e-60
1.1096549e-59
1.1161485e-59
1.8305073e-59
1.7390466e-59
1.8615116e-59
1.8985414e-59
1.8443738e-59
1.8309084e-59
1.836693e-59
1.891566e-59
2.2401144e-59
2.1344868e-59
1.9567882e-59
1.9057447e-59
1.9497123e-59
1.8594787e-59
1.8977128e-59
1.7288264e-59
1.9016262e-59
1.7084509e-59
1.9574905e-59
2.1766184e-59
1.8585844e-59
1.8803181e-59
2.1512373e-59
2.2417536e-59
1.9092261e-59
4.6647177e-59
4.6107199e-59
4.885138e-59
4.5693259e-59
5.2923083e-59
5.4009992e-59
5.7289811e-59
4.9339937e-59
4.4621287e-59
4.564246e-59
4.9913449e-59
4.887638e-59
5.3369547e-59
5.4368481e-59
5.3194552e-59
5.1306677e-59
4.903893e-59
4.5365595e-59
4.6446846e-59
5.4977575e-59
2.3197956e-60
1.9954835e-60
2.1908466e-60
1.9866092e-60
4.0303429e-60
4.6711456e-60
2.0778906e-60
2.068835e-60
2.3872156e-60
2.3155872e-60
2.3534427e-59
2.6766173e-59
2.2817117e-59
2.086737e-59
2.800361e-59
2.4876676e-59
2.0334272e-59
2.2356135e-59
1.0743341e-59
1.2848243e-59
1.4440734e-59
9.9087743e-60
1.2271142e-59
1.0715465e-59
1.4860558e-59
1.2913927e-59
2.9752143e-59
3.045413e-59
2.7204856e-59
2.7780059e-59
3.2082721e-59
2.9879503e-59
2.8378405e-59
2.7353524e-59
3.7597697e-59
3.6277711e-59
3.5782686e-59
3.694847e-59
3.668205e-59
3.5604079e-59
3.6641745e-59
3.5123648e-59
2.3280384e-60
2.0266966e-60
1.983197e-60
2.3628586e-60
2.3141979e-60
2.0374019e-60
2.1271465e-60
2.3471466e-60
4.8707445e-60
5.609607e-60
5.7382138e-60
5.760239e-60
3.6501176e-59
3.0456835e-59
2.7073473e-59
2.6010914e-59
3.1911153e-59
2.9795611e-59
2.7830246e-59
2.6114345e-59
3.5181752e-59
3.483528e-59
3.6513313e-59
3.6121411e-59
3.444311e-59
3.6293394e-59
3.5414581e-59
3.5253595e-59
2.6165028e-59
2.5563413e-59
2.8989349e-59
1.9986762e-59
2.7510527e-59
2.3149803e-59
1.9548582e-59
2.130501e-59
1.2061703e-59
1.038794e-59
9.7148097e-60
1.3680981e-59
1.3942099e-59
1.3006303e-59
9.2175105e-60
1.3082905e-59
6.7841888e-60
7.4269728e-60
8.0822349e-60
6.3195616e-60
5.2171649e-60
5.4112761e-60
2.0368333e-60
2.0460055e-60
2.3767373e-60
2.2810951e-60
2.3199872e-60
2.0298392e-60
2.1482356e-60
2.3339238e-60
2.4608229e-59
1.8243175e-59
1.3572331e-59
1.2879231e-59
1.6249452e-59
1.1920815e-59
1.1520903e-59
1.1629935e-58
1.3300572e-58
2.0985335e-58
1.9769077e-58
1.3275338e-58
1.2948163e-58
1.4182713e-58
1.4391596e-58
1.6836073e-58
2.3167987e-58
2.1091056e-58
1.6397354e-58
2.1521201e-58
1.1681676e-58
2.058489e-58
8.0019942e-59
7.8806771e-59
3.613405e-58
1.7626024e-58
2.0952515e-58
1.0175723e-58
1.0279946e-58
1.7595724e-58
2.4897585e-58
1.811705e-58
2.9181897e-58
2.2763144e-58
1.9870063e-58
4.4683502e-59
5.2461515e-59
5.940093e-59
6.6212427e-59
4.9399017e-59
4.4190637e-59
5.5532885e-59
5.7947831e-59
5.5724145e-59
6.5271253e-59
2.2736014e-58
2.3235988e-58
2.9689803e-58
3.9685992e-59
1.0620883e-58
2.7312768e-58
4.2270356e-58
4.3919211e-58
4.0361897e-59
3.663796e-59
3.016648e-59
2.8723466e-59
3.3354477e-59
9.4718736e-59
1.1234388e-58
5.4536286e-59
6.9860249e-59
6.0104085e-59
4.0977987e-58
4.8332196e-59
9.0339417e-59
7.3916371e-59
3.5632154e-58
1.0105848e-58
1.3413783e-58
1.8211594e-58
1.8254051e-58
1.322257e-58
1.4154507e-58
8.9079191e-59
9.2742838e-59
8.1571507e-59
1.2406887e-58
1.3771851e-58
3.3607187e-59
3.3163366e-59
1.2897171e-59
1.2640863e-59
1.6090374e-59
1.5823903e-59
5.4652354e-59
2.9472103e-59
1.2332269e-59
1.2883545e-59
3.7461401e-59
6.0687829e-59
1.2671759e-59
7.7453454e-60
7.7702851e-60
1.4127042e-59
1.3891183e-59
1.0554125e-59
9.4055967e-60
1.0285022e-59
7.0543563e-60
7.2002957e-60
1.1535343e-59
6.1892772e-60
6.6460432e-60
4.0595129e-60
2.60817e-60
2.6091846e-60
4.0571696e-60
2.6619873e-60
2.6299933e-60
4.0263979e-60
4.1095628e-60
2.5914054e-60
2.582913e-60
3.8631411e-60
3.8456734e-60
2.6119618e-60
2.5386569e-60
3.9772263e-60
4.1423918e-60
6.4560083e-60
6.8668044e-60
1.1640156e-59
8.2428493e-60
7.494159e-60
7.0822996e-60
7.0957257e-60
6.0376915e-60
6.0828534e-60
6.4171952e-60
6.8111972e-60
6.4062988e-60
6.8974085e-60
6.7784917e-60
6.4835796e-60
7.3971585e-60
6.7807412e-60
6.7083513e-60
6.9856069e-60
1.2860616e-59
1.493191e-59
5.9401256e-60
6.3884029e-60
6.2558105e-60
6.2347241e-60
6.9565557e-60
6.3806965e-60
6.4042662e-60
6.7802693e-60
6.6394719e-60
6.3882193e-60
6.8398546e-60
6.9420889e-60
7.5367636e-60
6.7181057e-60
6.8816426e-60
7.3477901e-60
6.670609e-60
6.1564942e-60
6.1166289e-60
6.1111575e-60
6.4592377e-60
6.8814885e-60
8.0689996e-60
7.4979893e-60
7.1733112e-60
5.7713474e-60
7.1940298e-60
7.2863847e-60
6.3175244e-60
5.5400727e-60
6.1049275e-60
6.5142108e-60
1.1313586e-59
1.2172679e-59
1.2874869e-59
1.2978983e-59
1.4436364e-59
1.4278474e-59
1.6220178e-59
1.7217372e-59
1.4873147e-59
1.7975243e-59
1.3470159e-59
1.4051711e-59
1.5166417e-59
1.5551506e-59
1.6798668e-59
1.5380914e-59
1.698995e-59
1.4949256e-59
1.398604e-59
1.6337857e-59
1.4893594e-59
6.2239464e-60
7.2158567e-60
8.0044427e-60
7.2720908e-60
6.0862481e-60
5.3768059e-60
6.7783719e-60
6.6455115e-60
6.124532e-60
5.8922094e-60
6.226272e-60
6.5638607e-60
6.9214239e-60
6.0638251e-60
6.6527283e-60
7.1952808e-60
4.691356e-59
4.6184789e-59
4.6323033e-59
2.2512915e-60
2.0077497e-60
2.0408763e-60
2.328094e-60
1.2086782e-59
1.3002294e-59
9.622081e-60
1.2409683e-59
2.2269115e-60
2.0024484e-60
1.9900426e-60
2.2453122e-60
1.3118806e-59
1.1536717e-59
1.1398548e-59
1.3689544e-59
3.2849569e-59
2.8159231e-59
2.4305687e-59
2.5238626e-59
2.2286039e-59
2.5187588e-59
2.8234332e-59
2.2310373e-59
4.2522745e-60
4.8560728e-60
3.1151741e-59
3.5016575e-59
3.4367979e-59
2.9779917e-59
3.1037885e-59
3.159542e-59
2.7056648e-59
2.9223142e-59
3.9042203e-59
3.9949012e-59
3.7738143e-59
3.7530116e-59
3.5883521e-59
3.6432287e-59
3.7642811e-59
3.7493766e-59
2.4540686e-59
2.7843473e-59
2.7092998e-59
3.601508e-59
3.3784182e-59
3.3844406e-59
3.5478285e-59
3.3905353e-59
3.4098597e-59
3.1182941e-59
2.9231826e-59
3.0785169e-59
3.87083e-59
3.7666146e-59
3.6775527e-59
3.7409371e-59
1.9275213e-59
2.6431286e-59
2.3643602e-59
2.5707412e-59
2.0098439e-60
2.0721531e-60
2.3940302e-60
2.3109231e-60
1.266709e-59
1.1239784e-59
1.5244224e-59
1.2493286e-59
2.2268781e-60
2.0674993e-60
2.1529846e-60
2.2848409e-60
5.5360585e-60
4.7574569e-60
8.9182049e-60
1.1399411e-59
1.1126214e-59
1.3399592e-59
2.9359433e-59
2.0619165e-59
1.951269e-59
2.5113461e-59
6.2225058e-60
6.0300172e-60
2.2595746e-60
2.0351237e-60
2.0452161e-60
2.3059718e-60
2.2882177e-60
2.0624008e-60
2.1469725e-60
2.3750338e-60
5.0743004e-60
5.1529091e-60
2.7637627e-59
2.1234259e-59
1.7694283e-59
2.3101591e-59
2.9425036e-59
2.1357812e-59
1.7646173e-59
2.2951343e-59
8.9160412e-60
1.5853806e-59
1.4085553e-59
1.3368553e-59
9.3197808e-60
1.3621019e-59
1.3980219e-59
1.2702249e-59
3.2269058e-59
2.613708e-59
2.5787439e-59
2.8632089e-59
3.1715312e-59
2.5335574e-59
2.5136654e-59
2.8217996e-59
3.699828e-59
3.3833465e-59
3.3983763e-59
3.6560557e-59
3.6044379e-59
3.5519787e-59
3.7544365e-59
3.7035792e-59
4.0044846e-59
3.0567234e-59
2.7951849e-59
3.1643658e-59
3.4728608e-59
2.6620079e-59
2.475536e-59
2.9203599e-59
3.4611276e-59
3.4022429e-59
3.802741e-59
3.73785e-59
3.8264133e-59
3.7883299e-59
3.9760043e-59
3.8510952e-59
2.29191e-60
2.0115841e-60
2.0138556e-60
2.3424508e-60
2.1427857e-60
2.0260305e-60
2.0699398e-60
2.2709182e-60
5.4591014e-60
4.3536169e-60
3.3886168e-59
2.3161079e-59
1.9438917e-59
2.7386445e-59
2.8084036e-59
2.0145279e-59
1.72484e-59
2.3702068e-59
8.602686e-60
1.562344e-59
1.7492531e-59
1.2310279e-59
9.6133205e-60
1.0312793e-59
1.2717349e-59
1.4468012e-59
6.3007646e-60
6.8027821e-60
6.9967868e-60
7.6711736e-60
8.2715109e-60
7.7147257e-60
4.3469093e-59
4.3021476e-59
4.6017214e-59
4.5930774e-59
4.6558464e-59
4.5668348e-59
4.4971311e-59
4.6231589e-59
5.4117415e-59
5.3422735e-59
4.8994857e-59
4.8595528e-59
4.8227888e-59
4.6605089e-59
4.7595986e-59
4.4414531e-59
4.7093085e-59
4.2671884e-59
5.1070508e-59
5.5472121e-59
5.3128906e-59
5.3810677e-59
5.5320421e-59
5.6578229e-59
5.4394896e-59
8.0357697e-60
9.0405907e-60
9.3054626e-60
8.2611019e-60
8.0688712e-60
9.0678622e-60
9.7290909e-60
8.7196751e-60
8.7286008e-60
9.6329447e-60
9.1485926e-60
8.025972e-60
8.4828862e-60
9.449039e-60
8.2324566e-60
7.5834629e-60
8.7350657e-60
9.6138087e-60
1.0525622e-59
9.4317057e-60
8.3597117e-60
9.2161236e-60
1.0092551e-59
9.1251278e-60
8.9900034e-60
9.6972896e-60
8.6050106e-60
8.1540201e-60
8.9726458e-60
9.8651947e-60
9.3009865e-60
8.5170558e-60
8.8573785e-60
8.5269277e-60
7.5397707e-60
7.9327579e-60
7.9311339e-60
8.6297471e-60
9.3098199e-60
8.4266584e-60
8.2427638e-60
9.1884824e-60
8.8217109e-60
7.8164525e-60
8.7460473e-60
9.1655629e-60
7.9210518e-60
7.6785341e-60
8.7598821e-60
9.1808215e-60
8.2368037e-60
7.9868315e-60
8.2909703e-60
9.0572127e-60
9.6758534e-60
8.8299013e-60
8.656383e-60
9.4391095e-60
1.009276e-59
9.2021946e-60
8.6636813e-60
9.4753858e-60
9.1291347e-60
8.3939489e-60
8.987801e-60
9.3746366e-60
8.134793e-60
7.8755271e-60
8.9480852e-60
8.5495521e-60
7.6121902e-60
8.0530002e-60
8.0322686e-60
8.6885459e-60
9.3955248e-60
8.5205995e-60
8.4326618e-60
9.1642256e-60
9.7688958e-60
8.9341607e-60
2.0034777e-60
4.340452e-60
1.8577838e-60
3.455296e-60
3.4269732e-60
3.7354434e-60
3.7473073e-60
4.0519153e-60
2.0124532e-60
1.9936553e-60
5.9918637e-60
6.3849549e-60
6.3377205e-60
6.332579e-60
6.7591705e-60
6.4851898e-60
5.7822531e-60
6.2806345e-60
6.9892946e-60
6.6522722e-60
5.6612171e-60
6.06632e-60
6.942469e-60
6.7442495e-60
6.0377559e-60
6.0270943e-60
5.9380018e-60
7.1247159e-60
7.0435986e-60
6.2841533e-60
6.6909833e-60
7.4219647e-60
6.609273e-60
6.7895856e-60
7.504781e-60
7.5516676e-60
6.3986648e-60
6.1891615e-60
6.762419e-60
7.0485097e-60
6.169224e-60
5.8250621e-60
1.0472389e-59
5.8066771e-60
1.2893693e-59
5.0350908e-60
1.9902976e-60
3.839826e-60
1.9726021e-60
3.471229e-60
3.1050166e-60
2.0972583e-60
3.8429054e-60
1.7817896e-60
5.218467e-60
1.1179757e-59
1.0167386e-59
4.474266e-60
2.0027259e-60
3.5152797e-60
3.2970962e-60
1.897356e-60
2.0691198e-60
3.6535186e-60
3.4140774e-60
2.0968932e-60
4.9402067e-60
1.0227215e-59
1.0240831e-59
4.3654761e-60
4.7372722e-60
9.7848931e-60
1.0422211e-59
4.4973418e-60
7.0352156e-60
7.1828125e-60
6.3452175e-60
6.1826205e-60
7.1202672e-60
6.7760098e-60
5.9901753e-60
6.2465615e-60
6.3607567e-60
7.2855811e-60
7.5903803e-60
6.6114531e-60
6.7819429e-60
7.7246381e-60
7.4242435e-60
6.5283739e-60
6.9222656e-60
7.3861379e-60
6.4232538e-60
6.0348363e-60
6.6693407e-60
7.71005e-60
7.3999196e-60
6.4239643e-60
7.0104613e-60
8.1030896e-60
7.9199151e-60
6.8333424e-60
6.8753241e-60
7.9051063e-60
7.3526627e-60
6.3946145e-60
7.250402e-60
8.3492018e-60
8.3598515e-60
7.2781798e-60
7.7199046e-60
8.3767669e-60
7.3032866e-60
6.7725384e-60
7.7896343e-60
8.8370742e-60
8.0990027e-60
7.1484806e-60
7.5586743e-60
8.6267168e-60
8.8331853e-60
7.7555419e-60
7.7601672e-60
8.6274413e-60
8.1942657e-60
7.2352832e-60
6.777835e-60
7.6573106e-60
7.9950897e-60
6.9952123e-60
7.8021946e-60
8.151328e-60
7.1408891e-60
6.8726566e-60
7.1060801e-60
8.0583192e-60
8.431687e-60
7.4072662e-60
2.0663469e-60
3.860352e-60
3.3749026e-60
1.9422498e-60
1.9267458e-60
3.6415343e-60
4.5768428e-60
1.9065136e-60
3.9146411e-60
4.341079e-60
3.1321674e-60
3.687019e-60
4.3243949e-60
3.9137823e-60
7.3680512e-60
7.054192e-60
6.167048e-60
6.2756094e-60
7.1005767e-60
6.9730572e-60
6.1127532e-60
6.1758373e-60
6.5359294e-60
7.3232505e-60
7.4147883e-60
6.5228748e-60
6.4632636e-60
7.286258e-60
7.3019672e-60
6.3932487e-60
7.0553671e-60
7.0463031e-60
6.194221e-60
6.1736955e-60
6.0348059e-60
6.6799052e-60
6.8858587e-60
5.9687434e-60
6.6991103e-60
7.4631796e-60
7.3641655e-60
6.491316e-60
6.1241609e-60
7.1234705e-60
7.2768359e-60
6.4246095e-60
6.6492078e-60
7.4321423e-60
7.8032023e-60
6.9483345e-60
7.1184785e-60
7.9717736e-60
8.4156332e-60
7.4586691e-60
7.9076433e-60
8.7525155e-60
8.4399116e-60
7.4326857e-60
7.8272757e-60
8.0593343e-60
7.1111116e-60
6.9550113e-60
7.7200041e-60
7.8075365e-60
6.8436267e-60
6.7754912e-60
6.9083523e-60
7.7665913e-60
7.8580298e-60
6.9860131e-60
7.3517666e-60
8.2557763e-60
8.4370568e-60
7.4738661e-60
7.3093481e-60
8.2394561e-60
8.1038949e-60
7.1265929e-60
7.3438931e-60
7.9685481e-60
5.8871077e-60
6.29085e-60
6.4503263e-60
6.0361987e-60
5.4655084e-60
5.8760915e-60
6.7471959e-60
5.8871012e-60
6.3728237e-60
6.3734818e-60
6.5778291e-60
6.4500441e-60
5.5758456e-60
5.7309163e-60
5.5441083e-60
5.9975884e-60
6.0347261e-60
5.8614721e-60
6.1543433e-60
5.9850453e-60
5.3803915e-60
5.6407663e-60
6.3948556e-60
6.2290549e-60
5.3018438e-60
5.5420855e-60
6.5712986e-60
6.390092e-60
5.7758498e-60
5.8269561e-60
3.4097407e-60
2.0103884e-60
3.3578461e-60
1.8277099e-60
2.0629954e-60
1.8595573e-60
3.4986327e-60
3.0564059e-60
4.4248387e-60
9.2722022e-60
7.6357662e-60
3.9348559e-60
9.2633331e-60
4.4159544e-60
4.6658396e-60
1.0528e-59
2.1188022e-60
3.7090565e-60
3.4568968e-60
2.0919742e-60
2.067847e-60
3.5967245e-60
3.369958e-60
2.2384517e-60
4.4208617e-60
9.3780629e-60
9.5422627e-60
3.9609514e-60
9.9186481e-60
4.5800335e-60
9.5885293e-60
4.2294182e-60
7.874679e-60
7.3013428e-60
4.2289501e-60
4.3031971e-60
7.3811574e-60
7.4558134e-60
4.5573187e-60
4.3524534e-60
6.8998609e-60
7.3853308e-60
4.426178e-60
4.4032586e-60
3.998425e-60
4.0787986e-60
4.2226072e-60
4.1864034e-60
4.1727222e-60
3.4377352e-60
3.5551374e-60
4.4001643e-60
1.9983673e-60
1.8603634e-60
1.8969032e-60
1.8851904e-60
5.6699042e-60
6.1346069e-60
6.275449e-60
5.7306387e-60
6.3735848e-60
6.9131104e-60
6.0655638e-60
5.692198e-60
9.9874973e-60
4.5914271e-60
4.5505766e-60
1.1124019e-59
3.6000572e-60
1.9849261e-60
3.6110599e-60
2.1917616e-60
3.6292597e-60
2.1274928e-60
3.9436322e-60
2.0821568e-60
9.7900183e-60
4.733896e-60
4.5893839e-60
9.9023496e-60
2.0883078e-60
2.1751429e-60
3.6696755e-60
3.8053753e-60
9.0293748e-60
1.1663058e-58
1.9381048e-58
1.9047513e-58
1.2810917e-58
1.2862814e-58
1.4619785e-58
1.3865678e-58
1.2868445e-58
1.5934174e-58
1.6736588e-58
2.1420835e-58
2.5399822e-58
2.4799366e-58
1.2464956e-58
2.0252741e-58
3.3157895e-59
8.0740028e-59
7.8114389e-59
3.2621331e-59
1.4685167e-58
1.7429516e-58
9.5500173e-59
2.6668176e-58
3.4199126e-58
9.8040272e-59
5.4049969e-58
3.490316e-58
1.6880971e-58
2.0341823e-58
1.0787973e-58
2.4666893e-58
2.1885708e-58
1.9926179e-58
1.9376257e-58
4.6320386e-59
5.2300245e-59
5.6058997e-59
7.0970265e-59
4.9515388e-59
4.7990086e-59
5.706253e-59
5.9125375e-59
6.7244753e-59
5.7392793e-59
3.4502663e-59
2.1889664e-58
2.3225503e-58
6.0384796e-59
1.2559413e-58
2.8669188e-58
3.383403e-58
3.2212711e-58
4.1551952e-59
2.816452e-59
3.4218331e-59
3.2886304e-59
2.8007083e-59
1.2636191e-58
9.6677481e-59
4.1326639e-59
3.2843812e-59
2.8022441e-59
2.7108902e-59
3.0240932e-59
9.0787858e-59
1.0950035e-58
2.2308108e-58
3.4452214e-59
7.1016415e-59
5.078172e-58
5.3925128e-59
8.9357139e-59
7.7668897e-59
3.6972567e-58
2.7225811e-59
2.8684049e-59
2.8157587e-59
2.6094119e-59
2.586504e-59
6.2218396e-59
3.8073267e-59
3.3286367e-59
5.5823668e-59
6.6360663e-59
6.2825067e-59
6.9473502e-59
7.6522951e-59
6.987036e-59
7.4905156e-59
1.7699428e-58
4.5883674e-59
1.5540315e-58
2.6401379e-58
3.5972058e-59
3.4592438e-58
4.1902341e-58
5.3929298e-59
7.0159918e-59
7.3246978e-59
6.9206799e-59
7.7016407e-59
8.5810358e-59
1.0285977e-58
8.9111642e-59
9.7569031e-59
3.9384829e-59
3.6861044e-59
3.9636269e-59
4.09442e-59
3.8978692e-59
4.4078396e-59
4.2675441e-59
3.914248e-59
3.6595753e-59
3.925994e-59
1.2732361e-58
1.3798885e-58
9.0932828e-59
8.5042685e-59
8.2105461e-59
7.4157068e-59
7.0316454e-59
7.2136404e-59
6.9191184e-59
7.6851582e-59
1.4059363e-58
1.452091e-58
4.6325012e-59
4.3887788e-59
9.4287428e-60
1.2024409e-59
3.2464021e-59
3.2751518e-59
1.2238889e-59
1.6669787e-59
3.0222141e-59
3.6530929e-59
1.2415309e-59
1.204914e-59
5.7270326e-59
1.6369594e-59
4.5001129e-59
9.844295e-60
9.3831353e-60
4.1734722e-59
1.2467542e-59
7.6404393e-60
7.1194264e-60
2.6823455e-60
3.9721571e-60
2.6862872e-60
2.6401702e-60
4.0340666e-60
4.1486992e-60
6.815949e-60
6.9386664e-60
6.6926121e-60
6.8164915e-60
5.8682145e-60
6.5709576e-60
6.040895e-60
6.0416883e-60
7.3766965e-60
6.6138745e-60
6.4266665e-60
6.7065758e-60
7.1302643e-60
6.4422565e-60
6.6877984e-60
6.9381515e-60
7.5378956e-60
6.7351894e-60
6.9072741e-60
7.4629215e-60
7.5380375e-60
8.2285508e-60
6.6868738e-60
6.8880821e-60
5.3161407e-60
5.9605296e-60
6.7361979e-60
5.5521163e-60
2.0112839e-60
2.2251531e-60
2.1233248e-60
1.9645328e-60
2.0461549e-60
2.0160787e-60
2.2424388e-60
2.2405535e-60
2.2581156e-60
2.0498269e-60
2.0035946e-60
2.2033793e-60
2.192992e-60
2.1081452e-60
2.1795479e-60
2.2309381e-60
2.0442444e-60
2.0744674e-60
2.3222859e-60
2.285505e-60
2.2633405e-60
2.0870433e-60
2.1712821e-60
2.3682801e-60
5.8095852e-60
5.646471e-60
2.0633409e-60
2.0743674e-60
2.3434124e-60
2.3282165e-60
2.118612e-60
2.0639181e-60
2.1089305e-60
2.2585706e-60
5.7612443e-60
4.5014681e-60
6.7578192e-60
7.289323e-60
8.6650732e-60
7.9864156e-60
2.1329324e-59
2.6660449e-59
2.5906908e-59
2.187063e-59
1.4028822e-59
1.1677616e-59
1.5231315e-59
1.2617626e-59
1.3075227e-59
1.2060702e-59
1.1786975e-59
1.2358702e-59
2.2004241e-59
2.2332385e-59
2.2095727e-59
2.0965955e-59
2.7294125e-59
2.8722693e-59
3.2679082e-59
1.163585e-59
1.1689959e-59
1.1337029e-59
1.1829404e-59
1.7483108e-59
1.4584534e-59
1.0335347e-59
1.1843766e-59
1.997875e-59
1.9514833e-59
1.8751024e-59
1.939543e-59
2.1770182e-59
2.302607e-59
2.2648369e-59
2.1096597e-59
1.907156e-59
2.4033184e-59
2.5835223e-59
2.1088391e-59
1.2433166e-59
1.2569383e-59
1.5028438e-59
1.228693e-59
1.2703515e-59
1.4855294e-59
8.8320468e-60
1.2193852e-59
2.1080215e-59
2.1340983e-59
2.6895826e-59
2.2848071e-59
2.6232821e-59
3.158834e-59
3.2493193e-59
3.0963105e-59
2.7449569e-59
2.9325552e-59
4.1115744e-59
4.0851727e-59
3.8162907e-59
2.9166318e-59
2.968302e-59
3.2869479e-59
2.8528328e-59
3.8159515e-59
3.8643563e-59
2.9456241e-59
3.1919398e-59
3.8396533e-59
3.7203823e-59
4.0771788e-59
3.8413643e-59
1.212761e-59
1.2954032e-59
1.7697796e-59
1.1691486e-59
1.1454152e-59
1.0813795e-59
9.6645476e-60
1.3452773e-59
2.5540064e-59
2.1900267e-59
1.9604521e-59
2.2641675e-59
2.317927e-59
2.5675479e-59
3.2278667e-59
2.6128192e-59
8.403972e-60
9.0115215e-60
7.9035933e-60
7.4554794e-60
9.4350972e-60
9.2509983e-60
8.1692826e-60
8.3887369e-60
8.9755847e-60
8.6548407e-60
2.0199169e-60
3.7228178e-60
4.0636751e-60
2.0343105e-60
2.0281946e-60
1.8807144e-60
3.4821386e-60
3.5433521e-60
2.2169208e-60
3.7166152e-60
2.1133247e-60
3.7702273e-60
4.7966937e-60
1.0606186e-59
1.0685923e-59
4.6902847e-60
1.0047851e-59
4.8235193e-60
1.0471991e-59
4.8174291e-60
2.0506489e-60
4.2787686e-60
3.4691275e-60
1.9362893e-60
2.1541308e-60
3.7780193e-60
2.0791249e-60
3.9114054e-60
2.0485022e-60
3.9373396e-60
3.5728619e-60
1.9574602e-60
5.6846716e-60
1.1624024e-59
1.2142211e-59
5.1423142e-60
1.1706611e-59
5.5462461e-60
1.1381679e-59
5.223357e-60
6.4635615e-60
6.9374068e-60
7.1026495e-60
6.8035603e-60
7.487429e-60
7.3002905e-60
6.793758e-60
7.137865e-60
7.9668668e-60
8.1731029e-60
6.5204897e-60
6.5176232e-60
7.3330544e-60
7.9326178e-60
6.6033445e-60
6.1104443e-60
7.1581161e-60
7.351735e-60
5.6797859e-60
5.982337e-60
6.2310369e-60
5.8710403e-60
5.9202171e-60
6.3171727e-60
6.0590361e-60
6.1132298e-60
6.5141264e-60
6.3281988e-60
7.0042921e-60
7.3344886e-60
6.2341964e-60
5.9929811e-60
3.7815169e-60
4.0830066e-60
7.0383109e-60
8.2834322e-60
8.0340471e-60
6.8306265e-60
6.5795124e-60
7.7136852e-60
7.6525013e-60
6.5269833e-60
7.1004338e-60
7.7439018e-60
6.6636104e-60
6.1722638e-60
7.0161101e-60
8.1025153e-60
7.4007365e-60
6.4393515e-60
7.0251077e-60
7.3454025e-60
6.4069259e-60
6.1493914e-60
6.9456243e-60
6.3995121e-60
5.6969778e-60
6.0445747e-60
6.0748683e-60
6.9636428e-60
7.3590235e-60
6.4009379e-60
6.7915818e-60
7.7803955e-60
7.3532106e-60
6.4618384e-60
7.6922209e-60
8.4927901e-60
7.3822926e-60
6.7501827e-60
6.9142206e-60
8.1002919e-60
8.2935873e-60
7.1719019e-60
7.2401023e-60
8.2787064e-60
8.6539394e-60
7.5555504e-60
7.7992855e-60
8.8917625e-60
8.0326302e-60
7.0971955e-60
6.9791517e-60
7.9152129e-60
8.289058e-60
7.2727891e-60
6.4722415e-60
7.3266641e-60
7.7463039e-60
6.798351e-60
7.7107157e-60
8.1949491e-60
7.1643298e-60
6.8305288e-60
7.6287431e-60
8.6256599e-60
8.0949567e-60
7.2240015e-60
6.1075979e-60
7.0696889e-60
7.0899565e-60
6.2383345e-60
5.7372988e-60
6.3766526e-60
6.5162991e-60
5.6966177e-60
6.6943908e-60
7.5043408e-60
7.5372572e-60
6.5311435e-60
7.1391988e-60
7.0486673e-60
6.1512707e-60
6.1797375e-60
7.1388452e-60
7.9725991e-60
8.2618854e-60
7.3752341e-60
6.4715854e-60
7.274922e-60
7.4542582e-60
6.7527378e-60
7.8249627e-60
7.9133922e-60
6.9061161e-60
6.9470114e-60
7.5443968e-60
8.4165256e-60
8.4252118e-60
7.4602175e-60
7.5294294e-60
7.5801709e-60
6.5427025e-60
6.4316442e-60
7.4254928e-60
7.2848203e-60
6.3932241e-60
6.4534448e-60
6.913739e-60
7.7012226e-60
7.8807978e-60
6.86615e-60
6.8895745e-60
7.8516673e-60
7.6729639e-60
6.5825718e-60
7.8508362e-60
8.1965049e-60
7.0834878e-60
6.8163351e-60
7.3042687e-60
8.2575374e-60
8.3533749e-60
7.3296388e-60
7.7089771e-60
8.7035039e-60
8.9012456e-60
7.824069e-60
7.5050874e-60
8.4958182e-60
8.1076299e-60
7.091068e-60
6.3661722e-60
6.5839632e-60
5.150145e-60
5.3758975e-60
5.8691602e-60
5.5230123e-60
5.0842983e-60
5.3457681e-60
7.3624977e-60
6.9010269e-60
5.956447e-60
6.1538085e-60
5.617794e-60
6.0922691e-60
6.1626487e-60
6.1159747e-60
3.489715e-60
3.9698195e-60
2.1191217e-60
1.9794118e-60
1.0360101e-59
9.1180446e-60
4.1783912e-60
4.0291638e-60
3.268571e-60
2.0119977e-60
3.3751202e-60
2.1768992e-60
3.2983292e-60
2.1273299e-60
3.6159283e-60
2.0845728e-60
4.5489107e-60
9.2295034e-60
9.5595755e-60
4.186126e-60
1.9709848e-60
3.8399108e-60
4.87216e-60
1.9785524e-60
4.6290696e-60
4.1335382e-60
1.070793e-59
4.6690888e-60
1.0112809e-59
4.5018537e-60
2.2312536e-60
2.158704e-60
3.6053098e-60
3.7062981e-60
3.3689835e-60
2.0050916e-60
3.4619842e-60
1.8520417e-60
4.7884516e-60
9.4517128e-60
1.1074297e-59
4.7537056e-60
6.2494502e-60
6.1321832e-60
6.5260084e-60
6.6092964e-60
5.6778443e-60
5.4374948e-60
5.5456465e-60
5.992524e-60
7.1950577e-60
6.8738403e-60
5.9164489e-60
6.0812456e-60
7.4739537e-60
7.4239292e-60
6.3624562e-60
6.3672425e-60
4.3334066e-60
3.9377666e-60
3.328985e-60
3.8043676e-60
2.067656e-60
4.2846952e-60
3.6250796e-60
1.9733669e-60
2.0191246e-60
3.8197439e-60
4.6098735e-60
2.0281122e-60
4.671457e-60
4.6218222e-60
5.7988694e-60
6.2482146e-60
6.4037088e-60
6.232107e-60
5.5403392e-60
5.5276247e-60
5.2059704e-60
5.5458463e-60
6.6751386e-60
6.3358113e-60
5.407967e-60
5.7857589e-60
7.0810711e-60
6.7686545e-60
6.112479e-60
6.1521634e-60
5.651495e-60
6.4196529e-60
6.4843874e-60
6.1582785e-60
5.7132197e-60
6.0173852e-60
5.7272245e-60
5.8073948e-60
6.6988196e-60
6.4623224e-60
5.3907706e-60