/*--------------------------------*- C++ -*----------------------------------*\
  =========                 |
  \\      /  F ield         | OpenFOAM: The Open Source CFD Toolbox
   \\    /   O peration     | Website:  https://openfoam.org
    \\  /    A nd           | Version:  7
     \\/     M anipulation  |
\*---------------------------------------------------------------------------*/
FoamFile
{
    version     2.0;
    format      ascii;
    class       volVectorField;
    location    "10000";
    object      U;
}
// * * * * * * * * * * * * * * * * * * * * * * * * * * * * * * * * * * * * * //

dimensions      [0 1 -1 0 0 0 0];

internalField   nonuniform List<vector> 
33899
(
(-1.1836555e+58 -6.0686107e+56 -9.0102851e+56)
(-1.1775206e+58 -4.9617995e+56 -9.2070015e+56)
(-1.094441e+58 -5.6671289e+56 -6.5287935e+55)
(-1.1602885e+58 -3.6106635e+56 -8.1633692e+56)
(-1.1511113e+58 -3.8166466e+56 -8.316078e+56)
(-1.1026035e+58 -4.9606299e+56 -4.8379527e+56)
(-1.0809959e+58 -6.7544765e+56 -4.9460169e+56)
(-1.1782903e+58 -6.6926368e+56 -4.4333211e+56)
(-1.2323021e+58 -5.4888668e+56 -4.6439132e+56)
(-1.0748606e+58 -5.5620605e+56 6.3103306e+55)
(-1.0842606e+58 -1.210427e+56 1.5448466e+56)
(-9.4804263e+57 -1.5382525e+56 -1.1531838e+57)
(-8.4389579e+57 -9.7020028e+55 2.8583361e+56)
(-1.016805e+58 2.8181772e+56 1.036163e+57)
(-1.2805042e+58 -1.7700989e+56 1.6299009e+57)
(-1.0296656e+58 -2.8554718e+56 1.1460536e+57)
(-8.6209877e+57 1.1940595e+56 3.1295491e+56)
(-8.7158946e+57 -8.2298161e+55 -2.5838187e+57)
(-8.7241196e+57 -6.1926591e+56 -2.5351137e+57)
(-1.2632032e+58 -6.6923332e+56 1.643927e+57)
(-1.1538569e+58 -2.4900021e+56 -9.5659997e+56)
(-1.154031e+58 -2.6647858e+56 -8.7679331e+56)
(-1.0921983e+58 -4.0817752e+56 -5.0311637e+56)
(-1.080997e+58 -3.8501375e+56 -5.002195e+56)
(-1.1473785e+58 -4.7879733e+56 -4.3564392e+56)
(-1.1486468e+58 -4.0873399e+56 -4.7547899e+56)
(-1.083776e+58 -6.820263e+56 -4.4342607e+55)
(-1.1962766e+58 -5.687097e+56 -4.4079862e+55)
(-1.0942835e+58 -1.0011199e+57 2.5708323e+55)
(-1.1223874e+58 -7.2619858e+56 -2.8100764e+55)
(-1.2308821e+58 -6.4903511e+56 -2.2326906e+56)
(-1.4143335e+58 -5.2291711e+56 -2.2545565e+57)
(-1.0038518e+58 -5.2313297e+56 2.3906203e+56)
(-1.0680782e+58 -1.1088871e+56 2.6645302e+56)
(-8.3475321e+57 -5.483327e+55 3.1716453e+56)
(-1.0089528e+58 3.2348938e+56 1.0395919e+57)
(-1.0140649e+58 -2.2249831e+56 1.0796569e+57)
(-8.342485e+57 1.2520735e+56 3.1807719e+56)
(-1.2657198e+58 -2.3484416e+56 1.7533446e+57)
(-8.431563e+57 -9.3476998e+54 2.7558851e+56)
(-1.0078276e+58 3.0589897e+56 9.3879451e+56)
(-1.0124999e+58 -3.2598385e+56 1.1169343e+57)
(-8.4276775e+57 9.5559824e+55 3.4652532e+56)
(-1.254393e+58 -6.6335185e+56 1.7804507e+57)
(-8.6042181e+57 -6.2166459e+55 -2.5148668e+57)
(-8.6552436e+57 -5.7450678e+56 -2.4712599e+57)
(-9.4621384e+57 -3.0421604e+55 -1.1279341e+57)
(-9.7108156e+57 6.6742263e+55 -9.2830346e+56)
(-8.9404351e+57 -1.1701486e+56 -9.5608893e+56)
(-9.3849474e+57 4.0844873e+55 -1.0772055e+56)
(-8.9444241e+57 1.4894348e+56 -1.0001544e+57)
(-9.3806185e+57 -9.0205053e+55 -1.7411554e+56)
(-9.0388649e+57 -5.1464702e+55 -9.5225059e+56)
(-1.0156733e+58 -4.1840415e+55 1.8088448e+57)
(-9.1986765e+57 3.2182263e+55 6.0770062e+56)
(-9.5287275e+57 3.857405e+56 7.4657829e+56)
(-7.8129231e+57 1.3245836e+56 2.3069465e+55)
(-7.609549e+57 2.4426177e+56 -1.8203079e+54)
(-8.7121294e+57 2.6238122e+56 -8.77326e+56)
(-8.7943403e+57 7.6617544e+55 -7.5195192e+56)
(-9.2873249e+57 1.5201463e+56 -1.5401573e+56)
(-9.3095327e+57 1.8775559e+54 -1.8829058e+56)
(-1.0173617e+58 -2.5682606e+56 1.6978717e+57)
(-6.9052192e+57 -8.3930091e+55 -1.4940935e+57)
(-6.8250484e+57 -4.9604053e+56 -1.5492408e+57)
(-8.7788358e+57 2.3315366e+56 -7.4329472e+56)
(-8.8245377e+57 9.6763444e+55 -7.968935e+56)
(-9.5216317e+57 2.2942634e+56 -8.2520684e+54)
(-9.4623019e+57 -2.3005875e+55 2.2037099e+55)
(-9.5764215e+57 -2.2089054e+55 7.5748587e+56)
(-9.5935282e+57 3.6920152e+56 6.6768792e+56)
(-7.8595908e+57 3.3373429e+56 -8.7010133e+54)
(-7.9094878e+57 1.27588e+56 -9.0585417e+55)
(-9.6672836e+57 1.2676004e+56 -1.0718909e+57)
(-9.5635588e+57 -8.0961623e+56 -1.0322218e+57)
(-1.0024519e+58 9.7865896e+55 1.7386131e+57)
(-6.7419848e+57 3.1043863e+56 -1.4820165e+57)
(-6.7984398e+57 -1.3391985e+56 -1.3851587e+57)
(-7.8172855e+57 5.066232e+55 -1.7842928e+55)
(-1.4821278e+58 -5.0798241e+56 1.9429874e+57)
(-1.1572682e+58 -1.26138e+56 -9.8738032e+56)
(-1.1369622e+58 1.7722349e+54 -9.7514213e+56)
(-1.1223582e+58 -3.7012472e+56 -5.9963138e+56)
(-1.103191e+58 -3.8963015e+56 -5.5102684e+56)
(-1.1381294e+58 -3.3466073e+56 -6.059737e+56)
(-1.1397578e+58 -3.641017e+56 -5.2193081e+56)
(-1.1892248e+58 -1.5156169e+56 -9.6757935e+56)
(-1.0763986e+58 -5.7625915e+56 -1.1388187e+55)
(-1.1071325e+58 -4.3126388e+56 -1.1493088e+56)
(-1.0505351e+58 -5.3679881e+56 -7.004945e+55)
(-1.088522e+58 -5.2361495e+56 -1.0345798e+56)
(-1.1971448e+58 -5.6293664e+56 -5.0821906e+56)
(-1.1877952e+58 -5.5184137e+56 -5.5007762e+56)
(-1.296299e+58 -7.4837127e+56 3.2913113e+56)
(-1.1858659e+58 -7.9049569e+56 4.0998042e+56)
(-1.2078573e+58 -6.2406723e+56 8.0666373e+55)
(-1.2459985e+58 -1.0354406e+57 3.5878928e+56)
(-1.13559e+58 -9.7854367e+56 5.5307763e+56)
(-1.2072095e+58 -6.7637111e+56 -3.8636766e+56)
(-1.3747153e+58 -5.091864e+56 4.0011208e+56)
(-1.3972279e+58 -4.965623e+56 -2.2186384e+57)
(-8.449521e+57 -4.1673146e+55 -2.3993645e+57)
(-1.2404995e+58 -2.7256305e+56 1.7975929e+57)
(-1.2379853e+58 -7.1506957e+56 1.8578598e+57)
(-8.5314178e+57 -5.6865511e+56 -2.3520574e+57)
(-8.1406402e+57 -1.1464217e+56 4.3329195e+56)
(-7.9919644e+57 1.1401871e+56 3.7614629e+56)
(-8.4581604e+57 8.7519241e+54 3.1430026e+56)
(-1.0099489e+58 3.5287515e+56 9.9237082e+56)
(-1.0099228e+58 -2.9552832e+56 1.1512761e+57)
(-8.4015143e+57 1.1161412e+56 3.7409092e+56)
(-8.8842585e+57 1.6608193e+56 -9.607046e+56)
(-7.7945595e+57 2.9969343e+56 2.4347329e+54)
(-7.7601574e+57 1.2084934e+56 -2.2540237e+55)
(-9.4927789e+57 3.8540754e+56 6.8228206e+56)
(-9.5081865e+57 4.6334124e+55 6.8194703e+56)
(-9.9592866e+57 -4.1359688e+55 1.9354664e+57)
(-8.728685e+57 9.4014152e+55 -7.9208947e+56)
(-8.657024e+57 2.7835101e+56 -8.4697534e+56)
(-9.2682483e+57 1.8308032e+56 -1.8758541e+56)
(-9.2706646e+57 3.5135206e+55 -1.8838884e+56)
(-8.8364326e+57 9.5671257e+55 -7.814161e+56)
(-9.5565509e+57 2.2809943e+56 -2.1026748e+55)
(-8.6195531e+57 3.2769209e+56 -8.5884265e+56)
(-9.3074192e+57 4.6569912e+55 -1.0629093e+56)
(-9.5439627e+57 3.7071213e+56 6.9971675e+56)
(-7.7900802e+57 1.8677296e+56 -4.4383681e+55)
(-1.0080669e+58 -2.9522972e+56 1.8735238e+57)
(-7.7124559e+57 3.4457693e+56 -2.849611e+55)
(-9.4432083e+57 4.6797083e+55 6.499035e+56)
(-6.7264258e+57 -5.0725933e+56 -1.4141376e+57)
(-6.7883146e+57 -7.5175305e+55 -1.3432148e+57)
(-1.0202633e+58 7.6078576e+55 1.853387e+57)
(-9.6144869e+57 1.4312666e+55 6.5752433e+56)
(-9.6216723e+57 3.6130535e+56 6.5519446e+56)
(-7.9129799e+57 8.7069697e+55 -7.2386337e+55)
(-7.8415977e+57 2.5644227e+56 -9.7336166e+55)
(-8.826117e+57 2.7106364e+56 -8.4407321e+56)
(-8.9224129e+57 1.1727323e+56 -7.9173124e+56)
(-9.3612884e+57 2.0193628e+56 -1.7820656e+56)
(-9.3494369e+57 2.8132692e+55 -1.7537757e+56)
(-8.8103117e+57 2.4381368e+56 -7.2801488e+56)
(-8.8562589e+57 6.4999428e+55 -7.8514488e+56)
(-9.5427274e+57 2.1143301e+56 2.6067447e+54)
(-9.5151015e+57 -2.4273529e+55 5.0667503e+55)
(-1.0003579e+58 -1.4278471e+56 1.8924362e+57)
(-9.5037445e+57 -1.188999e+55 7.1022406e+56)
(-9.5688792e+57 3.0602283e+56 6.5087124e+56)
(-7.8440051e+57 1.062072e+56 -7.3009666e+55)
(-7.6728645e+57 2.571403e+56 -5.8920517e+55)
(-6.8117542e+57 3.7354526e+54 -1.3429481e+57)
(-6.7153193e+57 3.6610783e+56 -1.4153538e+57)
(-9.5678107e+57 1.63348e+56 -9.6958697e+56)
(-9.4884562e+57 -6.919858e+56 -9.5884488e+56)
(-8.9920201e+57 -4.5074658e+55 -9.5632743e+56)
(-8.9649183e+57 1.9137976e+56 -9.6418718e+56)
(-9.3520205e+57 -6.5547676e+55 -1.9089377e+56)
(-9.0588381e+57 9.8673798e+55 -8.4072999e+56)
(-9.1110032e+57 -3.2527693e+55 -8.6406132e+56)
(-9.4357684e+57 1.0463126e+56 -1.4010655e+56)
(-9.3880241e+57 -1.2542696e+56 -1.3598153e+56)
(-8.3252178e+57 -1.3469188e+56 -8.0835337e+56)
(-8.5985748e+57 -5.7764543e+55 -4.153912e+56)
(-8.5629619e+57 -1.5467112e+56 -4.0074481e+56)
(-8.2888962e+57 -1.5095601e+55 -7.8216256e+56)
(-8.4784153e+57 -9.197389e+55 -4.6148432e+56)
(-8.2728505e+57 -1.6753853e+56 -7.4281213e+56)
(-8.2261365e+57 -9.7045459e+55 -5.506129e+56)
(-8.4571176e+57 -2.0721941e+56 -4.0124754e+56)
(-8.3941328e+57 -1.3539688e+56 -8.4932762e+56)
(-8.6421589e+57 -3.2018721e+55 -4.5258696e+56)
(-8.6314747e+57 -1.2739546e+56 -2.866048e+56)
(-8.3634339e+57 1.9298475e+55 -8.1789906e+56)
(-8.3272348e+57 -8.4329906e+55 -6.098216e+56)
(-8.303251e+57 -1.6836596e+56 -7.869643e+56)
(-8.4926369e+57 -4.6298956e+55 -5.088934e+56)
(-8.4897164e+57 -1.436316e+56 -4.5951446e+56)
(-8.3523366e+57 4.6114272e+54 -7.5724831e+56)
(-8.3460049e+57 -1.2412121e+56 -8.2167026e+56)
(-8.6096204e+57 -4.2739962e+55 -3.9862831e+56)
(-8.6340717e+57 -1.5875019e+56 -2.5093268e+56)
(-8.277669e+57 -1.7547528e+56 -7.5276859e+56)
(-8.9641934e+57 8.4367434e+55 1.6357829e+57)
(-5.7429222e+57 -1.488052e+56 -7.0560861e+56)
(-5.645631e+57 -3.8168134e+56 -7.7252835e+56)
(-8.9925734e+57 -3.279174e+55 1.5414961e+57)
(-8.0185048e+57 4.1748261e+56 -8.9580195e+56)
(-8.021661e+57 6.4069575e+55 -9.35826e+56)
(-8.8248121e+57 1.8456624e+56 -3.2749207e+56)
(-8.8026076e+57 2.2849735e+56 -2.8566398e+56)
(-7.9848957e+57 2.9465334e+56 -8.1834718e+56)
(-8.1126246e+57 2.3336e+56 -7.5267257e+56)
(-8.808915e+57 2.7620271e+56 -2.2029539e+56)
(-8.7051818e+57 1.18215e+56 -2.5160502e+56)
(-8.8134434e+57 4.4691689e+56 2.2828682e+56)
(-7.2718041e+57 1.9407559e+56 -8.0531886e+56)
(-7.3424598e+57 3.8426737e+56 -7.6942586e+56)
(-8.7863941e+57 2.1064949e+56 2.0971728e+56)
(-7.2502555e+57 4.2543538e+56 -8.2982519e+56)
(-7.2571451e+57 1.4413608e+56 -8.27954e+56)
(-8.4891316e+57 3.1816768e+56 -8.0501909e+54)
(-8.5094955e+57 2.6617215e+56 2.1773785e+55)
(-8.402015e+57 2.6985333e+56 -8.5577137e+56)
(-8.458283e+57 -2.7477382e+54 -8.7321436e+56)
(-8.9032367e+57 9.450763e+55 -4.1821412e+56)
(-8.8586811e+57 1.0309812e+56 -4.0310475e+56)
(-8.2857729e+57 2.0065091e+56 -8.0635649e+56)
(-8.3455487e+57 7.8493472e+55 -8.2757036e+56)
(-8.7963641e+57 1.1590199e+56 -3.9057188e+56)
(-8.7583279e+57 2.1809311e+55 -3.5088482e+56)
(-8.4067231e+57 -6.2340956e+55 -8.0996572e+56)
(-8.3593931e+57 1.0294745e+56 -7.7572968e+56)
(-8.6458416e+57 -8.05032e+55 -4.8988107e+56)
(-8.6847778e+57 -1.5274674e+55 -5.1255851e+56)
(-8.7291989e+57 6.5879326e+54 -5.5249309e+56)
(-8.5004603e+57 -8.514011e+55 -8.5232336e+56)
(-8.457028e+57 1.4739243e+56 -8.4581357e+56)
(-8.7666377e+57 2.6125498e+55 -5.4323666e+56)
(-9.1058385e+57 1.6798345e+56 1.4542951e+57)
(-9.0234655e+57 1.2198398e+56 1.5004725e+57)
(-5.804664e+57 7.598708e+55 -7.8651154e+56)
(-5.7735023e+57 2.7560239e+56 -8.0213601e+56)
(-8.1515909e+57 7.0735531e+55 -4.9495045e+56)
(-7.8632664e+57 -5.6025123e+56 -5.3614065e+56)
(-8.313406e+57 2.2936208e+56 -6.7350655e+56)
(-8.25457e+57 4.8171791e+55 -8.40534e+56)
(-8.764445e+57 1.24642e+56 -2.5723108e+56)
(-8.883313e+57 2.2277124e+55 -1.4905726e+56)
(-8.3131198e+57 2.653246e+56 -8.5606541e+56)
(-8.3441854e+57 6.9507545e+55 -8.4961369e+56)
(-8.843205e+57 7.2156536e+55 -2.6469914e+56)
(-8.8550908e+57 1.3933303e+56 -2.5561144e+56)
(-8.408726e+57 -4.3870227e+55 -8.055548e+56)
(-8.7194372e+57 1.7897719e+55 -5.0075232e+56)
(-8.7093148e+57 -4.351089e+55 -5.0546971e+56)
(-8.3986457e+57 1.4316878e+56 -8.1005817e+56)
(-8.4116555e+57 9.4685688e+55 -7.4983609e+56)
(-8.351768e+57 -6.3838706e+55 -7.9081284e+56)
(-8.6537195e+57 3.931512e+55 -4.9266633e+56)
(-8.6871344e+57 -3.4982303e+55 -4.8374289e+56)
(-8.6883003e+57 1.4853654e+56 -2.2771325e+56)
(-8.0013214e+57 1.4333581e+56 -8.2467141e+56)
(-7.8261452e+57 2.8901802e+56 -9.1559597e+56)
(-8.6794136e+57 2.392177e+56 -2.6372751e+56)
(-7.92602e+57 3.8548701e+56 -9.201382e+56)
(-8.1677331e+57 2.1101777e+56 -8.0821442e+56)
(-8.7919143e+57 2.6675399e+56 -2.8438602e+56)
(-8.7449563e+57 1.8423673e+56 -2.9473367e+56)
(-7.1121075e+57 4.168144e+56 -8.8909131e+56)
(-7.3186301e+57 1.7258195e+56 -8.2845645e+56)
(-8.7605826e+57 3.3809713e+56 1.4262381e+56)
(-8.3858166e+57 1.3023481e+56 1.9762656e+55)
(-7.3312017e+57 4.2121934e+56 -8.5845962e+56)
(-7.5529549e+57 1.9332395e+56 -7.9940531e+56)
(-8.9387826e+57 4.383333e+56 1.6475971e+56)
(-8.5159242e+57 2.2627475e+56 1.3268836e+55)
(-9.1982559e+57 2.1276711e+56 -2.4679687e+56)
(-9.1143395e+57 -7.3410995e+56 -2.4662956e+56)
(-7.8157936e+57 3.241045e+56 -5.5138135e+56)
(-9.0375235e+57 9.9793354e+55 1.5150677e+57)
(-9.0065496e+57 -2.7663976e+55 1.4610291e+57)
(-5.8120611e+57 -2.1888968e+56 -8.0241604e+56)
(-5.9017804e+57 4.4912761e+55 -7.6408977e+56)
(-8.6790464e+57 3.0616981e+56 2.1336107e+55)
(-7.395105e+57 8.2462398e+55 -8.938574e+56)
(-7.4014385e+57 3.5016798e+56 -8.963896e+56)
(-8.6502787e+57 1.9725651e+56 -1.9261468e+55)
(-7.4044247e+57 1.3403345e+56 -8.7245472e+56)
(-1.476854e+58 -5.0778439e+56 1.9780305e+57)
(-9.8872512e+57 -1.7125698e+56 1.1487935e+56)
(-9.9813555e+57 -3.4628923e+56 1.0999132e+56)
(-1.1324313e+58 1.5872455e+56 1.8107019e+57)
(-1.0864497e+58 -8.9154679e+56 1.7776149e+57)
(-9.9745298e+57 1.9941924e+56 9.6066364e+56)
(-1.011656e+58 5.2882976e+55 1.4530054e+57)
(-1.003511e+58 -9.6242432e+56 1.4396147e+57)
(-9.904099e+57 -1.1075821e+57 9.5392167e+56)
(-1.1698172e+58 -7.5482411e+56 -4.2057818e+56)
(-1.1103971e+58 -9.192004e+55 -6.1333046e+56)
(-1.1289241e+58 -2.6642336e+56 -6.5100069e+56)
(-1.1395173e+58 -3.0421475e+56 -6.5178995e+56)
(-1.1146665e+58 -1.7536703e+56 -6.7129194e+56)
(-1.1870381e+58 -2.3855596e+56 -9.7727964e+56)
(-1.1763517e+58 -3.3600786e+55 -9.7659191e+56)
(-1.0669427e+58 -5.427545e+56 -2.2484958e+56)
(-1.1217491e+58 -4.2788e+56 -2.2349797e+56)
(-1.0896101e+58 -6.0725773e+56 -9.1244163e+55)
(-1.1000251e+58 -4.4745732e+56 -1.7412258e+56)
(-1.1672498e+58 -4.5784548e+56 -6.5148804e+56)
(-1.1702951e+58 -3.9648803e+56 -6.0057613e+56)
(-1.2013298e+58 -2.8640895e+56 -1.0271679e+57)
(-9.6193015e+57 2.9283983e+56 6.8652642e+56)
(-9.5186615e+57 6.108422e+55 7.9163422e+56)
(-9.7959771e+57 4.0828338e+56 -8.8995949e+56)
(-1.1205112e+58 -5.3724024e+56 3.4123883e+56)
(-1.1036662e+58 -6.2646287e+56 3.3649223e+56)
(-1.169472e+58 -4.9146706e+56 -2.3057943e+56)
(-1.1775275e+58 -5.0670882e+56 2.5246507e+56)
(-1.0766723e+58 -6.9537415e+56 3.0192673e+56)
(-1.1675412e+58 -5.9826276e+56 -2.0849611e+56)
(-1.1721259e+58 -4.967693e+56 -4.7914922e+56)
(-1.1729067e+58 -6.2109943e+56 -5.2158099e+56)
(-1.0823741e+58 -6.3974868e+56 2.3722706e+56)
(-1.0038393e+58 -6.2891602e+56 4.7056614e+56)
(-1.1520964e+58 -7.9454639e+56 1.4100349e+56)
(-1.2214499e+58 -5.9058146e+56 -1.6807509e+56)
(-1.1669388e+58 -9.9410949e+56 2.6912915e+56)
(-9.0823182e+57 -8.241756e+56 5.338167e+56)
(-1.0940014e+58 9.5561851e+55 -5.9093221e+55)
(-9.8312915e+57 -7.9354961e+56 1.9198412e+57)
(-1.3582733e+58 -4.4213743e+56 4.265446e+56)
(-9.9085727e+57 2.5426337e+56 1.9325336e+57)
(-1.3761673e+58 -4.2232708e+56 -2.1530166e+57)
(-8.4437432e+57 -5.3097067e+56 -2.1962348e+57)
(-1.2121333e+58 -5.9786638e+56 1.8587123e+57)
(-8.2892161e+57 6.2913919e+55 4.978253e+56)
(-9.4192414e+57 2.1066557e+56 -8.2089294e+56)
(-9.4583746e+57 -7.0192475e+55 1.9837377e+57)
(-6.605055e+57 -8.8493247e+55 -1.0933089e+57)
(-6.5737254e+57 -5.2813508e+56 -1.1711307e+57)
(-9.5761904e+57 -3.2985602e+56 1.9421036e+57)
(-9.9910606e+57 1.8014191e+55 1.8945122e+57)
(-9.8617367e+57 -1.5327859e+56 1.9584797e+57)
(-6.7488915e+57 -2.4683425e+54 -1.1786474e+57)
(-6.6190254e+57 3.2281853e+56 -1.2349774e+57)
(-9.3757891e+57 -6.6314896e+56 -8.3266959e+56)
(-9.4382737e+57 2.4265552e+56 5.879898e+56)
(-7.7962058e+57 -3.4454182e+55 1.4002023e+55)
(-7.8504525e+57 1.9571844e+56 1.9399445e+55)
(-9.3936514e+57 1.5672899e+55 5.6908226e+56)
(-7.7589178e+57 3.2428537e+56 -4.6143668e+55)
(-7.908328e+57 1.1509158e+56 -2.4511452e+55)
(-9.4203621e+57 2.8621609e+56 4.6842759e+56)
(-9.3453631e+57 6.1068513e+55 4.5946677e+56)
(-9.6993899e+57 4.2243109e+56 6.9054124e+56)
(-7.9867969e+57 1.1812617e+56 -6.9771615e+55)
(-7.9222292e+57 2.6970286e+56 -8.9534179e+55)
(-9.6211592e+57 3.43708e+55 6.2259056e+56)
(-8.9835555e+57 1.9342318e+56 -7.6525631e+56)
(-8.7264977e+57 2.9095345e+56 -8.9576906e+56)
(-9.4227925e+57 2.0316069e+56 -4.8953432e+55)
(-8.7691111e+57 7.4214403e+55 -8.1183628e+56)
(-8.7213096e+57 2.6087353e+56 -7.4438812e+56)
(-9.3659987e+57 7.6084248e+54 -5.7562437e+55)
(-7.8464096e+57 1.1929727e+56 -5.8189225e+55)
(-7.7340323e+57 2.4670062e+56 -4.7361173e+55)
(-9.5467034e+57 3.0566818e+56 6.2231826e+56)
(-9.4971892e+57 -1.6604089e+55 6.740189e+56)
(-8.2524303e+57 1.3678549e+55 -8.2037311e+56)
(-8.2994826e+57 -1.3157145e+56 -8.1747041e+56)
(-8.5225492e+57 -1.1662144e+56 -4.0625595e+56)
(-8.9587773e+57 -1.4096183e+53 1.5714367e+57)
(-7.2239804e+57 4.4739522e+56 -7.6514285e+56)
(-7.3899429e+57 2.4029991e+56 -7.462261e+56)
(-8.7983761e+57 3.7907374e+56 1.7283342e+56)
(-8.4403298e+57 2.2031719e+56 6.8129603e+55)
(-8.8572383e+57 7.3628491e+55 1.6445339e+57)
(-7.2204671e+57 3.4734109e+56 -7.8709856e+56)
(-7.3638875e+57 2.104865e+56 -7.6253113e+56)
(-8.8151698e+57 4.1835069e+56 1.9171522e+56)
(-8.4397668e+57 2.2601451e+56 6.7251218e+55)
(-7.9072074e+57 3.4760138e+56 -8.6919474e+56)
(-8.0938497e+57 1.9410083e+56 -7.9188834e+56)
(-8.7246553e+57 2.5150179e+56 -3.4849967e+56)
(-8.6563085e+57 1.5791379e+56 -3.526045e+56)
(-8.6919125e+57 2.422769e+56 -3.5309509e+56)
(-8.051004e+57 1.4023193e+56 -8.1990817e+56)
(-7.8950059e+57 3.4589037e+56 -8.7702704e+56)
(-8.6155136e+57 2.108616e+56 -3.6173871e+56)
(-5.6203525e+57 -1.1086114e+56 -5.9459487e+56)
(-5.5461257e+57 -3.2444209e+56 -6.5891167e+56)
(-8.8007343e+57 1.3122557e+56 -3.9399764e+56)
(-8.3251195e+57 8.1598678e+55 -8.4463635e+56)
(-8.2864599e+57 2.3302642e+56 -8.4546552e+56)
(-8.7788688e+57 5.6233119e+55 -3.8296144e+56)
(-8.2502861e+57 2.7686714e+56 -8.6432492e+56)
(-8.3090207e+57 4.335006e+55 -8.0311058e+56)
(-8.7672118e+57 1.359708e+56 -3.7895706e+56)
(-8.7329762e+57 1.2557563e+56 -4.1691694e+56)
(-8.3842885e+57 1.1904589e+56 -8.150287e+56)
(-8.4157075e+57 -4.5892532e+55 -7.6972453e+56)
(-8.7071407e+57 -7.6541418e+53 -5.0123646e+56)
(-8.6776139e+57 -6.2565885e+55 -5.2426256e+56)
(-8.6617983e+57 4.8612171e+55 -5.3944293e+56)
(-8.3665792e+57 -6.5276517e+55 -8.3807496e+56)
(-8.35372e+57 1.7280293e+56 -8.57076e+56)
(-8.6354999e+57 3.9787414e+55 -5.7162715e+56)
(-8.9732739e+57 1.3703459e+56 -1.84926e+56)
(-8.4651177e+57 7.3872283e+55 -7.0654184e+56)
(-8.951537e+57 2.7553474e+55 -1.6682292e+56)
(-8.3850003e+57 2.3195671e+56 -7.0060951e+56)
(-8.7818641e+57 2.5425721e+55 -4.4934732e+56)
(-8.4949859e+57 -3.7311261e+55 -6.6166181e+56)
(-8.4885928e+57 9.0922807e+55 -6.3847879e+56)
(-8.7731856e+57 -7.7262938e+55 -4.4491499e+56)
(-8.2048415e+57 2.7479853e+56 -8.6138212e+56)
(-8.277687e+57 4.4231084e+55 -8.8682023e+56)
(-8.724778e+57 1.0562639e+56 -3.7351423e+56)
(-8.7089641e+57 8.1098106e+55 -3.5208674e+56)
(-8.3230747e+57 1.1624568e+56 -8.0305898e+56)
(-8.3521345e+57 -9.215853e+55 -8.174624e+56)
(-8.6313678e+57 1.7410039e+55 -5.2128116e+56)
(-8.6089496e+57 -2.0021656e+55 -5.1852546e+56)
(-8.93948e+57 2.6013771e+56 -1.9228281e+56)
(-8.2221166e+57 1.9827277e+56 -7.9475016e+56)
(-8.7742469e+57 1.9966587e+56 -2.4933948e+56)
(-7.917529e+57 4.3537188e+56 -8.978548e+56)
(-8.9862944e+57 2.3206633e+56 1.52285e+57)
(-8.5842724e+57 3.8162315e+56 1.0018669e+56)
(-7.3649201e+57 1.9457529e+56 -7.7418564e+56)
(-7.3304512e+57 4.3323888e+56 -8.0053677e+56)
(-8.5067426e+57 2.5141095e+56 3.9474342e+55)
(-8.9130671e+57 1.0028392e+56 1.5802255e+57)
(-5.682902e+57 3.4062559e+56 -6.8599078e+56)
(-5.7533276e+57 9.5027233e+55 -6.7691568e+56)
(-8.8301548e+57 3.7140008e+56 1.9449004e+56)
(-7.3165174e+57 2.1747464e+56 -7.623353e+56)
(-7.0985058e+57 4.6088221e+56 -8.2147577e+56)
(-8.3325889e+57 2.0900031e+56 3.6867109e+55)
(-7.8150019e+57 3.8130271e+56 -8.9695824e+56)
(-8.1417283e+57 1.9707496e+56 -7.8245205e+56)
(-8.6789095e+57 2.6370296e+56 -3.7178437e+56)
(-8.5369337e+57 2.157327e+56 -3.9083547e+56)
(-7.8256128e+57 -5.3806124e+56 -3.8413849e+56)
(-8.0391009e+57 9.9286458e+55 -3.3858148e+56)
(-9.0827271e+57 1.1331394e+56 1.5359803e+57)
(-9.1225364e+57 -8.7283383e+54 1.5151274e+57)
(-5.883798e+57 8.9568555e+55 -6.9638001e+56)
(-5.8317038e+57 -1.6398864e+56 -7.3068115e+56)
(-7.8451055e+57 3.7361235e+56 -9.1663101e+56)
(-8.2199275e+57 1.337007e+56 -8.0136293e+56)
(-8.8758047e+57 2.1901849e+56 -2.6369382e+56)
(-8.7019426e+57 1.8138252e+56 -3.02571e+56)
(-7.9294415e+57 3.6668243e+56 -9.1997351e+56)
(-8.2888621e+57 1.9765312e+56 -7.7210188e+56)
(-8.9315922e+57 2.6150831e+56 -2.4254751e+56)
(-8.7743242e+57 1.7273762e+56 -3.0037423e+56)
(-8.9932499e+57 4.0089397e+56 1.8360913e+56)
(-7.5224789e+57 1.9984331e+56 -7.899785e+56)
(-7.3496596e+57 3.9437269e+56 -8.3851451e+56)
(-8.5200293e+57 2.0766047e+56 1.2344981e+55)
(-8.9427796e+57 3.2265872e+56 1.712454e+56)
(-7.4547781e+57 1.8865986e+56 -7.970162e+56)
(-7.2251232e+57 4.4416255e+56 -8.4617141e+56)
(-8.4156213e+57 1.9177869e+56 1.9224663e+55)
(-8.2851953e+57 2.5726752e+56 -8.4219404e+56)
(-8.3951339e+57 2.399362e+55 -8.6581551e+56)
(-8.8228333e+57 1.0970574e+56 -4.1989648e+56)
(-8.7660231e+57 9.8211929e+55 -3.9704994e+56)
(-8.3625494e+57 2.4827539e+56 -8.3443237e+56)
(-8.4445736e+57 8.554794e+55 -8.3945481e+56)
(-8.8671032e+57 1.2655734e+56 -4.0350789e+56)
(-8.8295225e+57 5.426445e+55 -3.831963e+56)
(-8.4244134e+57 1.2367663e+56 -8.0989922e+56)
(-8.4583826e+57 -5.33715e+55 -8.3291069e+56)
(-8.7175243e+57 2.9114495e+54 -5.2227475e+56)
(-8.6978349e+57 -6.1069502e+55 -5.0751862e+56)
(-8.683382e+57 4.9120361e+55 -5.3329021e+56)
(-8.4050178e+57 -6.6018389e+55 -8.5842391e+56)
(-8.3595447e+57 1.6582569e+56 -8.350165e+56)
(-8.6511698e+57 3.143475e+55 -5.3885576e+56)
(-8.2901608e+57 2.3438895e+56 -7.9120045e+56)
(-8.3824384e+57 6.8045448e+55 -8.0370317e+56)
(-8.866806e+57 1.2919081e+56 -2.4935576e+56)
(-8.849394e+57 4.0049458e+55 -2.2359981e+56)
(-8.3273127e+57 2.7410219e+56 -8.372281e+56)
(-8.4108558e+57 7.0346641e+55 -8.3199299e+56)
(-8.8953423e+57 1.313396e+56 -2.5857911e+56)
(-8.8763623e+57 6.9316982e+55 -2.539757e+56)
(-8.7542915e+57 4.9589827e+55 -4.6498158e+56)
(-8.4487065e+57 -1.2068156e+55 -7.7099432e+56)
(-8.4345811e+57 1.5503311e+56 -7.7137009e+56)
(-8.753974e+57 -2.8673779e+55 -4.7267134e+56)
(-8.7417971e+57 5.504844e+55 -4.5398253e+56)
(-8.4444142e+57 -4.4770305e+55 -7.4524401e+56)
(-8.4226952e+57 8.8479455e+55 -7.3415167e+56)
(-8.7305904e+57 -4.1926529e+55 -4.5973423e+56)
(-9.0831254e+57 2.0833069e+56 1.5727447e+57)
(-8.8402437e+57 1.3279848e+56 1.6572799e+57)
(-5.6464797e+57 5.4353884e+56 -6.9838905e+56)
(-5.6836873e+57 3.8983616e+56 -6.2776465e+56)
(-7.7780086e+57 3.5126094e+56 -8.8504719e+56)
(-8.144291e+57 1.5168176e+56 -7.6199582e+56)
(-8.8369537e+57 2.4789239e+56 -2.2364435e+56)
(-8.6748252e+57 1.7340319e+56 -2.6489064e+56)
(-7.8594727e+57 3.7656036e+56 -9.3859839e+56)
(-8.2443857e+57 1.7005226e+56 -7.7104817e+56)
(-8.8874995e+57 2.2937509e+56 -2.4860552e+56)
(-8.738405e+57 1.7597133e+56 -3.0685337e+56)
(-8.9763031e+57 3.3184687e+56 2.0439727e+56)
(-7.4681563e+57 1.0710277e+56 -7.8402698e+56)
(-7.2302676e+57 3.8763647e+56 -8.7866287e+56)
(-8.442875e+57 1.5857682e+56 2.1513667e+54)
(-8.8283271e+57 2.9987064e+56 1.9600618e+56)
(-7.2699311e+57 1.1744829e+56 -8.2177249e+56)
(-6.94191e+57 4.2282569e+56 -8.889646e+56)
(-8.2796925e+57 1.7406773e+56 3.3572742e+55)
(-7.9209223e+57 -9.3715361e+55 -3.7262219e+56)
(-7.8416534e+57 4.1285602e+56 -4.2314718e+56)
(-9.0520304e+57 2.8563294e+56 -2.0986788e+56)
(-8.965377e+57 -5.948785e+56 -2.1702055e+56)
(-8.6047783e+57 -4.4459475e+55 -4.5604686e+56)
(-8.3553735e+57 -1.1401067e+56 -8.0940693e+56)
(-8.3421387e+57 6.3281159e+53 -7.8898818e+56)
(-8.5980749e+57 -1.4111922e+56 -4.4795814e+56)
(-8.2864282e+57 5.2826451e+55 -8.2736765e+56)
(-8.3253207e+57 -1.0928131e+56 -7.9054871e+56)
(-8.5862406e+57 -2.3058087e+54 -4.4831218e+56)
(-8.5587972e+57 -6.7678111e+55 -4.7809141e+56)
(-8.2257231e+57 -2.0539873e+55 -7.8051018e+56)
(-8.259081e+57 -1.4551743e+56 -7.6274043e+56)
(-8.3538034e+57 -9.7641923e+54 -7.6176838e+56)
(-8.3851422e+57 -9.4635275e+55 -6.9257312e+56)
(-8.6155261e+57 -1.2238505e+56 -4.2900291e+56)
(-8.6410026e+57 4.6621421e+54 -3.8417306e+56)
(-8.3880202e+57 2.7692934e+55 -7.6996545e+56)
(-8.3835104e+57 -7.5310174e+55 -7.0859088e+56)
(-8.6573475e+57 -1.1808258e+56 -4.1743182e+56)
(-8.6568907e+57 8.3714538e+53 -3.840095e+56)
(-8.325938e+57 -1.1929798e+56 -7.0402941e+56)
(-8.3253318e+57 -4.2851137e+55 -7.1992488e+56)
(-8.5167863e+57 -1.6887453e+56 -4.5033507e+56)
(-8.4935353e+57 -1.5791174e+55 -4.385708e+56)
(-8.3154761e+57 -1.308671e+56 -7.0081901e+56)
(-8.2837439e+57 -6.6109388e+55 -7.2905803e+56)
(-8.4558445e+57 -1.4330171e+56 -4.7735101e+56)
(-7.3557891e+57 -1.8440082e+56 -2.3490183e+56)
(-7.2594482e+57 -1.9140647e+56 -2.2549682e+56)
(-7.2485781e+57 -1.856443e+56 -2.628977e+56)
(-7.3565514e+57 -1.7662543e+56 -2.7756488e+56)
(-7.0956247e+57 -1.8506292e+56 -2.5069107e+56)
(-7.1802803e+57 -1.8309784e+56 -2.3376869e+56)
(-7.1688096e+57 -1.9145083e+56 -1.1573242e+56)
(-7.1098813e+57 -1.8318195e+56 -2.2531434e+56)
(-7.4321183e+57 -1.7549038e+56 -2.6700453e+56)
(-7.31593e+57 -1.8437914e+56 -2.6027482e+56)
(-7.3085983e+57 -1.863059e+56 -1.2751192e+56)
(-7.4181988e+57 -1.73391e+56 -2.7099227e+56)
(-7.2760173e+57 -1.8828274e+56 -1.4527886e+56)
(-7.2406131e+57 -1.9794996e+56 -2.5835686e+56)
(-7.1507263e+57 -1.9053335e+56 -2.6950163e+56)
(-7.165972e+57 -1.8050879e+56 -2.3946334e+56)
(-7.4288368e+57 -1.761896e+56 -2.5849762e+56)
(-7.3967064e+57 -1.6895734e+56 -2.7731236e+56)
(-7.2945703e+57 -1.8966866e+56 -2.5831282e+56)
(-7.2203113e+57 -1.9644942e+56 -2.6052293e+56)
(-7.7223621e+57 7.9330615e+55 2.6413293e+56)
(-5.3990177e+57 -2.1536148e+56 -7.7458605e+56)
(-7.8517098e+57 1.6712242e+56 2.781564e+56)
(-5.321184e+57 -2.1005299e+56 -8.0269311e+56)
(-6.9488637e+57 -2.1176351e+55 -2.9652764e+56)
(-6.7252949e+57 -3.8636448e+56 -3.3436967e+56)
(-5.4945069e+57 1.3356635e+56 -7.6381665e+56)
(-5.4557843e+57 1.9637232e+56 -7.6922453e+56)
(-7.7591918e+57 2.1259609e+56 2.4240787e+56)
(-7.7137822e+57 2.8277051e+56 2.2827943e+56)
(-7.6714576e+57 2.7870156e+56 -5.1636539e+56)
(-7.6758588e+57 2.2724777e+56 -5.6925391e+56)
(-7.7499565e+57 1.5005791e+56 -4.8596904e+56)
(-7.7329976e+57 1.6840506e+56 -4.5880621e+56)
(-7.5490239e+57 1.7039553e+56 -5.4038067e+56)
(-7.7471446e+57 2.8752954e+56 -3.5461796e+56)
(-7.6986099e+57 1.7300243e+56 -2.8668073e+56)
(-7.6821063e+57 8.2576902e+55 -4.6792789e+56)
(-7.6159287e+57 3.7798206e+56 -2.5751984e+56)
(-7.431529e+57 2.6173027e+56 -1.1495084e+56)
(-7.5279339e+57 3.2078963e+56 -1.1933625e+56)
(-7.6490317e+57 2.9334211e+56 -3.6251035e+56)
(-7.5385785e+57 4.0046783e+56 -1.6370557e+56)
(-7.5761018e+57 2.8586963e+56 -1.607759e+56)
(-7.7156422e+57 2.9150554e+56 -4.3464493e+56)
(-7.7061619e+57 3.6042867e+56 -3.9321467e+56)
(-7.760974e+57 7.5637424e+55 -3.6579864e+56)
(-7.7875969e+57 5.4829747e+55 -3.605174e+56)
(-7.7471229e+57 -2.5275215e+55 -3.0703834e+56)
(-7.715473e+57 -8.0311981e+54 -3.3777748e+56)
(-7.6796714e+57 2.2111295e+55 -3.4622692e+56)
(-7.6573261e+57 6.2058973e+55 -2.8480973e+56)
(-7.5974372e+57 -4.4118752e+55 -2.6368666e+56)
(-7.6353058e+57 -4.4025931e+55 -3.0082744e+56)
(-7.5424187e+57 -1.0956701e+56 -2.291973e+56)
(-7.570364e+57 -1.0465519e+56 -2.6659015e+56)
(-7.4759558e+57 -1.4944064e+56 -2.7010372e+56)
(-7.4617828e+57 -1.5622818e+56 -2.3377204e+56)
(-7.5555517e+57 -1.4081686e+56 -2.8087995e+56)
(-7.6787147e+57 -9.4442736e+55 -2.5425389e+56)
(-7.6580197e+57 -8.6738398e+55 -2.794366e+56)
(-7.5677456e+57 -1.4524206e+56 -2.5508243e+56)
(-7.9452921e+57 1.5360729e+56 1.8720859e+56)
(-5.6837568e+57 -8.1569557e+54 -7.8749131e+56)
(-5.6263175e+57 -7.3324089e+55 -8.3949704e+56)
(-7.9218681e+57 2.3503558e+56 1.7180988e+56)
(-7.8025932e+57 2.5418106e+56 1.9371393e+56)
(-5.4078533e+57 4.3343779e+56 -8.5495459e+56)
(-5.4288209e+57 4.2926376e+56 -8.2541989e+56)
(-7.6151455e+57 3.5783502e+56 1.5914771e+56)
(-6.7667082e+57 -4.6410854e+54 -3.6273165e+56)
(-6.8175969e+57 3.4412465e+56 -3.7112531e+56)
(-7.3159081e+57 1.3200947e+56 -1.2384499e+56)
(-7.0168941e+57 -5.5882427e+56 -1.3586688e+56)
(-7.7502577e+57 3.5954342e+55 -2.0264965e+56)
(-7.6704534e+57 7.3230462e+55 -3.6183552e+56)
(-7.6471004e+57 -2.1558347e+55 -2.6618544e+56)
(-7.7715876e+57 -6.7621964e+55 -1.2529521e+56)
(-7.7591784e+57 4.3783226e+55 -3.9868639e+56)
(-7.7899023e+57 7.2227295e+55 -3.2553129e+56)
(-7.7420787e+57 -2.6547388e+55 -2.9126613e+56)
(-7.7199469e+57 -6.0667179e+54 -2.4567618e+56)
(-7.6508113e+57 -8.0737773e+55 -2.4268642e+56)
(-7.5342645e+57 -1.3404789e+56 -2.6196436e+56)
(-7.5650337e+57 -1.3866279e+56 -2.8613245e+56)
(-7.680935e+57 -8.8538854e+55 -2.7544902e+56)
(-7.6712975e+57 -1.2443776e+56 -1.9227312e+56)
(-7.6117248e+57 -9.3530424e+55 -2.5177619e+56)
(-7.5145394e+57 -1.5210502e+56 -2.5733204e+56)
(-7.5418205e+57 -1.7068619e+56 -2.4080983e+56)
(-7.664558e+57 1.3472723e+56 -4.2792214e+56)
(-7.6069184e+57 2.2166131e+56 -4.9724239e+56)
(-7.5950973e+57 2.1672089e+56 -5.4990201e+56)
(-7.711244e+57 1.5034406e+56 -4.2639234e+56)
(-7.7089262e+57 1.9663381e+56 -5.3157031e+56)
(-7.7795786e+57 2.5224784e+56 -4.5545986e+56)
(-7.8590866e+57 1.6580115e+56 -3.9738987e+56)
(-7.7529404e+57 1.1553577e+56 -4.7379415e+56)
(-7.4239819e+57 3.780144e+56 -2.4028013e+56)
(-7.6071246e+57 2.6478444e+56 -2.0423779e+56)
(-7.7111502e+57 2.6029104e+56 -3.8774937e+56)
(-7.6030429e+57 2.7700293e+56 -4.7473539e+56)
(-7.6785848e+57 3.346439e+56 -1.7805706e+56)
(-7.7335356e+57 2.9051608e+56 -1.550187e+56)
(-7.8940549e+57 3.4208008e+56 -3.1709339e+56)
(-7.7674405e+57 2.7136928e+56 -4.125139e+56)
(-7.4737976e+57 1.4786661e+56 1.1521785e+57)
(-7.1879508e+57 -5.7995627e+56 1.1604411e+57)
(-7.1973948e+57 5.3303848e+56 1.1442197e+57)
(-6.9843433e+57 5.3339774e+56 -1.2298127e+56)
(-7.0037979e+57 1.2967935e+56 -3.6446581e+56)
(-6.760745e+57 -2.6109916e+56 -3.6435263e+56)
(-5.5976473e+57 -1.0772647e+56 -8.6161929e+56)