/*--------------------------------*- C++ -*----------------------------------*\
  =========                 |
  \\      /  F ield         | OpenFOAM: The Open Source CFD Toolbox
   \\    /   O peration     | Website:  https://openfoam.org
    \\  /    A nd           | Version:  7
     \\/     M anipulation  |
\*---------------------------------------------------------------------------*/
FoamFile
{
    version     2.0;
    format      ascii;
    class       volScalarField;
    location    "5000";
    object      nut;
}
// * * * * * * * * * * * * * * * * * * * * * * * * * * * * * * * * * * * * * //

dimensions      [0 2 -1 0 0 0 0];

internalField   nonuniform List<scalar> 
33730
(
5.8468769e-30
4.1014223e-29
5.60385e-30
4.4141139e-30
9.3179752e-31
3.4096439e-30
3.5986981e-30
3.2344944e-30
5.0602625e-30
2.6332735e-30
2.017394e-30
3.371968e-30
6.663592e-29
3.8991432e-29
1.2573385e-29
1.1609695e-29
7.703757e-30
3.7783953e-29
1.2464562e-29
4.1603008e-30
3.3219596e-30
3.1842361e-30
4.9339202e-30
5.8065659e-30
3.9926876e-30
1.3788656e-30
2.2079036e-30
1.0475107e-30
1.5533998e-30
9.4848456e-31
1.8462717e-30
3.049143e-30
2.4296054e-30
1.9673607e-30
2.2712871e-30
1.3166291e-30
1.9373008e-30
1.3904205e-30
2.1950557e-30
5.1539645e-30
1.7032351e-30
1.279247e-30
3.0735747e-30
2.3818635e-30
5.9949687e-29
3.4539429e-29
3.493999e-29
2.1111379e-29
6.2963365e-29
2.2365116e-29
3.6737732e-29
1.534813e-29
2.2688526e-30
1.3657074e-29
4.1212498e-30
1.6426525e-29
1.2350279e-29
3.8418111e-30
1.9226716e-29
6.5506897e-30
2.085183e-30
2.2832169e-30
2.4103025e-30
3.2188227e-30
3.4671202e-30
3.8472234e-30
5.1657587e-30
5.2347288e-30
2.2514942e-30
1.8781651e-30
6.8108214e-31
1.3707389e-30
1.3237336e-30
9.7754671e-31
2.5373985e-30
8.1850416e-31
1.1892448e-30
1.5417017e-30
1.1132685e-30
3.1863711e-30
8.5669713e-31
2.1637407e-30
8.8797352e-31
1.8264043e-30
2.330372e-30
1.9108291e-30
3.7987135e-30
3.5568683e-30
4.7545529e-31
1.2921902e-30
8.3128321e-31
8.8915363e-31
1.4770573e-30
1.5412544e-30
4.883252e-31
2.5861225e-30
3.043689e-30
1.2947596e-30
1.5359696e-30
1.4346257e-30
1.8481392e-30
5.2136552e-30
1.9295911e-30
1.6867939e-30
5.5696916e-30
2.9959795e-30
2.2469911e-30
1.5730377e-30
8.1220659e-31
1.4888382e-30
8.925639e-29
4.2868379e-30
1.0369626e-29
1.004549e-29
1.2050336e-29
1.9683017e-29
1.8213878e-29
1.3173289e-29
2.9162212e-29
6.4496049e-30
3.4424505e-29
8.5679475e-30
3.2323375e-30
3.3966039e-30
6.0121814e-30
3.2881934e-30
6.6991891e-30
1.4725801e-29
2.6549373e-30
1.999837e-29
1.7060302e-29
5.9548934e-30
6.8565388e-30
3.5784463e-30
3.2650074e-30
1.8211446e-30
2.4210399e-30
2.7866709e-30
2.0982027e-30
3.0120705e-30
4.792316e-30
5.2932483e-30
6.1515516e-30
1.0452299e-30
1.5371231e-30
2.1739505e-30
1.2400806e-30
2.7310109e-30
1.9361961e-30
2.1952656e-30
2.1452724e-30
1.545796e-30
5.0817997e-31
1.4132706e-30
1.457417e-30
1.3795095e-30
6.6303384e-31
2.2622122e-30
2.1926772e-30
5.347988e-31
8.4864628e-31
8.1532095e-31
5.4393038e-31
1.5410829e-30
9.6674003e-31
1.3295606e-30
2.6053719e-30
3.16615e-30
9.320567e-31
2.2200101e-30
2.5714686e-30
1.1179461e-30
7.4102102e-31
2.1980545e-30
6.7778771e-31
1.9796133e-30
3.1181182e-30
5.1426621e-30
4.5494735e-32
1.7094906e-31
1.3652969e-31
3.4377742e-31
5.3121314e-31
9.3743976e-31
8.3772278e-31
3.425779e-30
2.1952622e-31
1.6986977e-30
3.5038789e-30
1.6269943e-30
1.8711647e-30
1.4895067e-30
5.5994723e-33
1.3933014e-30
4.6099578e-30
3.173546e-30
3.9932364e-30
3.1030424e-30
4.1407474e-30
2.7425109e-30
2.0588594e-30
1.791688e-30
2.1493503e-30
1.3749711e-30
3.9858604e-30
1.2437691e-30
7.0025534e-31
3.2044826e-30
2.6371879e-30
1.0978587e-30
1.8120814e-30
2.4023527e-30
1.8944539e-30
1.5249713e-30
1.0372497e-30
1.3783217e-30
9.8573542e-31
5.1771977e-29
6.7787727e-30
3.6438767e-30
5.7021567e-30
6.2909637e-30
8.0745694e-30
6.4397839e-30
4.0306856e-30
1.3410306e-29
2.0236363e-29
5.4531081e-29
1.0446275e-29
2.2927313e-29
1.9381287e-30
3.2506493e-29
2.0726442e-30
1.3978528e-30
8.5345952e-30
1.168854e-29
1.593437e-30
3.4306233e-30
9.9303909e-30
3.4274065e-30
1.1090533e-29
2.881723e-29
9.1483652e-30
4.9668349e-30
1.2189112e-29
5.7659506e-30
3.3804386e-30
2.494272e-30
3.8736535e-31
1.9244113e-30
1.1213706e-30
2.028375e-30
2.5473765e-30
3.4045241e-30
2.477027e-30
3.0350435e-30
4.1948744e-30
4.294943e-30
2.8966388e-30
2.3710993e-30
1.9000505e-30
3.018244e-30
3.7091105e-30
1.3880055e-30
1.8638841e-30
2.7923334e-30
1.6198529e-30
2.1494742e-30
5.0432346e-31
3.5235955e-30
2.8454573e-30
9.1491074e-31
1.3235555e-30
2.4484173e-30
1.387192e-30
2.3807937e-30
1.0864267e-30
3.646263e-30
1.8893307e-30
2.5291538e-30
1.611001e-30
2.4269668e-30
1.1719152e-30
1.1097135e-30
1.5944148e-30
1.5871645e-30
5.4673987e-30
2.6110492e-30
2.246569e-30
4.8632736e-31
1.0493475e-30
2.6645282e-31
3.2516206e-30
1.834749e-30
6.7064641e-31
1.2739129e-30
5.8361295e-31
1.468323e-30
7.091988e-30
3.3892688e-30
1.2009264e-30
1.73866e-30
1.5127395e-30
7.7716373e-31
1.3121241e-30
4.9735626e-31
1.0020395e-30
1.1125768e-30
3.6067969e-31
1.6417826e-30
4.8564862e-30
5.1100725e-30
4.4918622e-32
1.2938861e-31
2.0247232e-31
9.7966769e-31
4.585586e-31
7.1720905e-31
9.1579941e-31
1.4686123e-30
2.9869034e-32
1.0957217e-32
1.9641792e-31
1.2730684e-30
1.3113398e-30
2.2664032e-30
2.6677264e-30
2.8063319e-30
2.3037435e-30
2.8414805e-30
1.6860959e-30
2.4742363e-30
1.6102898e-30
2.6439417e-30
5.6229368e-30
6.3574233e-30
4.2097556e-30
3.5441877e-30
6.3675307e-30
2.9099267e-30
6.7841455e-30
3.7622166e-30
2.4872372e-30
7.3166612e-30
1.0506858e-30
2.132571e-30
1.6978965e-30
2.6341522e-30
9.199243e-31
1.4197564e-30
1.052909e-30
2.1389359e-30
1.1520374e-30
4.1634233e-30
1.102292e-30
9.2440855e-31
4.2690505e-31
5.735284e-30
2.2866881e-30
6.821135e-31
1.6071017e-30
1.6461307e-31
1.2920553e-30
7.7550356e-31
3.3662305e-29
7.010698e-31
7.9439088e-30
3.3082416e-31
6.4367576e-30
3.5817714e-30
2.2509243e-30
1.1552516e-29
3.6637424e-30
7.8246993e-30
6.5999792e-29
7.7740821e-30
1.7031852e-29
7.0692978e-30
3.392534e-30
4.5385431e-30
8.8018023e-30
1.0132673e-30
1.9322908e-29
1.8106969e-30
2.0367808e-30
6.3949895e-30
3.0852131e-30
3.0124234e-30
3.1426459e-30
3.1067654e-29
1.3630974e-29
2.0346374e-29
6.0447075e-30
1.6067592e-29
2.9452473e-30
7.8053248e-30
3.526143e-30
2.6879341e-30
1.1697434e-29
1.4218553e-29
1.6260441e-30
1.3489619e-30
2.1550049e-30
3.7923456e-30
1.88667e-30
1.3554444e-30
1.9785598e-30
1.9640865e-30
2.1774815e-30
2.3751655e-30
2.5685105e-30
3.3903635e-30
3.7551133e-30
2.6274052e-30
2.6343238e-30
3.6011157e-30
3.6429585e-30
2.5713432e-30
2.4746343e-30
2.3358327e-30
3.8670927e-30
4.015767e-30
7.3920171e-30
1.5441298e-30
1.7730968e-30
1.0568355e-30
1.5062065e-30
7.6528863e-31
1.5863667e-30
2.578984e-30
1.6806037e-30
7.0737984e-31
1.2633651e-30
1.1111962e-30
1.2149619e-30
3.1723661e-31
1.1728482e-30
1.4827468e-30
1.1969251e-30
1.7475472e-30
1.2589662e-30
1.3468959e-30
3.1430861e-30
1.6942767e-30
1.9064137e-30
3.9285352e-31
1.1110065e-30
6.1003953e-31
7.9625008e-31
7.5397042e-31
4.4166391e-31
4.1643282e-31
4.3737378e-30
2.2499097e-30
3.2534078e-30
2.5397138e-30
7.203981e-31
4.2671731e-31
8.1471771e-31
3.0475284e-31
1.3673204e-30
1.4682852e-30
5.524335e-31
4.2747618e-31
8.9599963e-31
5.7117621e-31
1.8719867e-30
5.5576194e-32
9.3170117e-31
4.5533665e-31
2.8207017e-31
6.0677763e-31
4.0974721e-31
2.3572516e-31
1.1114163e-30
6.7350797e-32
6.2554768e-32
2.4973178e-31
4.4974794e-31
5.0839122e-31
1.200066e-30
2.0393861e-31
1.9596024e-31
5.3935476e-32
1.2500385e-30
1.410653e-30
1.1119464e-30
1.4826705e-30
1.1411892e-30
1.944965e-30
1.8961889e-30
2.7468735e-30
2.4290304e-30
2.1625423e-30
1.9490446e-30
5.128174e-30
2.7649421e-30
1.8187615e-30
1.0149454e-30
1.3658908e-30
1.1977237e-30
7.4773848e-31
7.654545e-30
2.039121e-30
2.1658478e-30
3.9478379e-30
6.5472494e-30
4.0738665e-30
1.7460011e-30
3.7394661e-30
1.7029998e-30
3.7603704e-30
2.9549384e-30
3.914823e-30
2.5410457e-30
4.257831e-30
1.439944e-30
1.8053056e-30
3.4057082e-30
5.4918867e-30
1.9886512e-30
1.6174841e-30
3.5411411e-30
1.2959068e-30
1.1150527e-30
6.5980434e-31
5.6038287e-30
1.052936e-30
1.7213328e-30
1.5341813e-30
7.8930864e-31
8.754824e-31
7.5352277e-31
1.2309509e-30
1.9508921e-30
2.7315308e-30
1.370795e-30
8.9469787e-31
3.1009072e-31
8.9848243e-31
2.6245621e-30
7.9263666e-31
9.3168174e-31
9.1893303e-31
4.2212889e-32
3.5417644e-30
8.8618362e-32
4.3620624e-29
1.3170023e-30
1.457664e-30
5.1660003e-30
1.3990968e-30
1.5753658e-30
1.3010175e-30
4.1444723e-29
1.7932273e-29
3.4114281e-29
1.3369049e-29
7.2261051e-30
8.1400549e-30
5.2588246e-30
3.3083722e-30
4.694748e-30
2.4561742e-30
4.2896815e-30
1.7411618e-29
2.1163943e-30
7.0963668e-31
1.683878e-29
8.5766724e-30
1.5530146e-29
1.2626534e-29
4.2195113e-30
1.9762614e-30
4.7000554e-30
3.2654813e-30
3.7269701e-30
2.6185945e-30
2.5580287e-30
4.2730502e-30
2.997027e-30
1.1080332e-29
5.5319927e-30
7.6642749e-31
1.3206106e-30
1.3552263e-30
1.2480007e-30
2.2142922e-30
2.104799e-30
1.0780634e-30
1.0102572e-30
2.0263782e-30
2.0262416e-30
1.500838e-30
1.9219217e-30
1.6135705e-30
1.532697e-30
1.9210438e-30
2.1228744e-30
2.3388411e-30
2.0887952e-30
2.4918459e-30
1.5211937e-30
1.5058856e-30
2.7322587e-30
2.4780741e-30
3.4390345e-30
3.8619363e-30
4.2377683e-30
2.8992347e-30
2.7372017e-30
1.7142318e-30
1.5011345e-30
2.0341101e-30
4.3353888e-31
1.0639516e-30
8.9700861e-31
9.178622e-31
1.8914057e-30
7.6178053e-31
1.449308e-30
1.6773044e-30
9.7432139e-31
8.6332164e-31
6.7199968e-31
9.0366489e-31
1.8817674e-30
1.0223383e-30
8.5416607e-31
2.6447825e-30
1.1822156e-30
1.2468618e-30
5.2172215e-31
2.2489825e-30
6.7950792e-31
7.5616247e-31
1.8320732e-30
1.0848576e-30
6.1055612e-31
5.749317e-31
6.3543964e-31
4.0155463e-30
1.9782272e-30
2.1095321e-30
2.1167486e-30
2.2969366e-31
8.6410082e-31
1.3745347e-30
3.5214194e-31
9.3521735e-31
2.5494589e-31
1.4541993e-30
3.9485503e-31
5.7715748e-31
3.7150808e-31
1.4298474e-30
2.574521e-31
3.4878216e-31
3.6582762e-31
1.044735e-30
9.2824376e-31
6.7769885e-31
1.13468e-30
1.3197469e-31
1.0934435e-30
1.9467718e-31
7.462021e-31
3.5154385e-31
3.9511814e-32
1.0756019e-31
3.1550041e-32
1.1058922e-31
1.3575182e-30
1.135123e-30
1.1938988e-30
1.3085148e-30
1.1237719e-30
9.3847291e-31
8.3088977e-31
1.503791e-30
1.7128596e-30
2.594551e-30
2.4916559e-30
2.5324626e-30
2.4204428e-30
1.1348215e-30
2.2419071e-30
2.9443292e-30
3.5695542e-30
2.5146897e-30
2.0984694e-30
4.7044291e-30
2.7539609e-30
1.9555416e-30
9.4177234e-31
1.1211852e-30
1.9021666e-30
1.5280788e-30
1.6012057e-30
3.8075948e-30
1.9354543e-30
1.3404039e-30
9.1449339e-30
1.6838774e-30
5.5569143e-30
7.9852446e-30
1.470564e-30
8.027565e-30
9.8133047e-30
1.186067e-30
4.8305407e-30
1.3202262e-30
1.9030472e-30
5.4796612e-30
1.8783406e-30
2.4941627e-30
2.6414221e-30
4.3486895e-30
1.3463514e-30
1.7462206e-30
1.0374502e-30
2.6601266e-30
3.2167974e-30
3.0885829e-30
3.4008094e-30
7.8564943e-31
3.5324995e-30
1.9004149e-30
1.3857665e-30
1.409655e-30
9.7163898e-31
2.0397334e-30
8.0240226e-31
2.5510794e-30
1.7752679e-30
1.0071395e-30
1.4149016e-31
2.6560165e-31
1.4929836e-31
2.3346472e-30
9.2545535e-31
2.0372798e-31
2.5048988e-30
9.4497854e-31
4.4710856e-31
2.6733628e-31
1.6769628e-31
1.5491274e-30
4.45046e-31
8.4623514e-31
3.5676849e-31
6.542798e-31
8.4719034e-31
4.5741493e-31
2.3304687e-31
3.9368375e-29
1.6586191e-30
2.1886979e-30
3.4661337e-29
2.5887661e-29
2.1973201e-29
4.0567e-29
2.2188386e-29
6.7726067e-30
1.1709296e-29
8.3937171e-30
5.1221089e-30
4.5386511e-30
5.5309019e-30
1.2108427e-29
9.9070715e-31
8.4387916e-31
8.9669907e-31
2.2812571e-29
1.9207412e-29
1.0554539e-29
3.9991567e-30
6.4101904e-30
5.4923667e-30
8.8720738e-30
9.7617256e-30
6.24177e-30
2.7042494e-30
2.305692e-30
3.0979174e-30
1.2549096e-30
1.0104969e-30
1.3049486e-30
4.0986448e-31
1.5721337e-30
1.0571194e-30
8.0073328e-31
9.9052458e-31
6.76623e-31
1.0643579e-30
6.6948104e-31
9.6131051e-31
1.057081e-30
1.2191348e-30
1.690397e-30
1.8039709e-30
9.2480611e-31
8.3142778e-31
2.111872e-30
1.6093747e-30
1.7765577e-30
1.260936e-30
2.6346254e-30
1.7256129e-30
1.2789801e-30
2.0288166e-30
2.4031789e-30
1.8071023e-30
1.8208221e-30
1.958941e-30
2.1570811e-30
1.9547831e-30
1.6119053e-30
4.0918927e-31
4.5883783e-31
8.1887384e-31
6.7465774e-31
1.7079625e-30
1.7537441e-30
3.0165475e-30
2.4154118e-30
3.791318e-30
2.4232858e-30
2.5208262e-30
1.428037e-30
1.8578555e-30
2.1158391e-30
2.1736304e-30
8.735039e-31
2.9774691e-30
4.6472781e-31
1.5916372e-30
1.6558366e-30
3.3125158e-31
1.4694194e-30
4.9545007e-31
4.5091223e-31
8.7208251e-31
1.4531138e-30
1.9128144e-30
1.1631352e-30
8.9140028e-31
3.9307854e-30
1.9887671e-30
5.4769985e-31
1.2608774e-30
9.866118e-31
5.1707668e-31
5.5956455e-31
2.0299617e-30
6.689893e-31
5.2421664e-31
5.0924771e-32
7.9320725e-31
6.9321321e-31
5.8633319e-31
1.7114519e-31
1.2757912e-30
2.7840051e-31
5.075045e-31
1.2909085e-30
9.6373552e-31
1.4584083e-30
8.1436161e-31
9.1464991e-31
8.120611e-31
4.3440842e-31
4.2342012e-31
9.1110552e-31
4.7873075e-31
4.366653e-31
5.5693634e-31
2.4142883e-31
4.3259827e-32
4.1107271e-32
2.9595261e-31
1.587428e-30
2.5365301e-31
4.9742899e-31
3.8215871e-31
1.2117147e-31
1.9367598e-31
1.0213349e-31
1.4676238e-30
1.1110645e-30
1.1471175e-30
1.2570685e-30
1.3262676e-30
8.6258963e-31
8.4435802e-31
1.5173637e-30
1.415024e-30
1.4303265e-30
8.3802099e-31
2.5685637e-30
4.0958471e-30
1.9698615e-30
8.0273464e-31
1.0925008e-30
5.8724116e-31
1.452879e-30
6.4195245e-31
1.6780249e-30
4.6584088e-30
3.3425136e-30
2.2196591e-30
4.1871557e-30
3.6452595e-30
2.523927e-30
4.1726002e-30
2.4292033e-30
8.4364311e-31
1.8314339e-30
1.0255315e-30
1.3140261e-30
1.7407732e-30
1.5473011e-30
3.4435495e-30
3.9653677e-30
2.3324843e-30
1.5382769e-30
3.4265403e-30
2.9357827e-30
1.5023369e-30
5.6836295e-30
7.2376686e-30
1.2731467e-30
1.2638399e-29
8.4503178e-31
6.2262276e-31
1.665584e-30
4.6997649e-31
2.7184628e-30
1.3570166e-30
1.4915474e-30
2.2421555e-30
8.201153e-31
4.7425619e-30
7.9545241e-31
5.7934219e-31
1.4271273e-30
1.6299901e-30
1.0287993e-30
6.9836564e-31
7.2599067e-31
1.0658987e-30
2.8149619e-30
1.5115298e-30
4.6660985e-30
1.1990235e-30
2.9644054e-30
2.4856119e-30
7.1827352e-31
2.6793605e-30
5.689568e-31
1.1588726e-30
1.3049481e-30
1.2402522e-30
2.8736033e-31
2.148894e-30
3.721709e-32
3.7571906e-31
9.9318703e-31
4.3932704e-32
1.8930412e-30
7.1002078e-31
2.6833938e-31
1.1341319e-31
2.5356696e-30
1.7872568e-30
4.9442108e-31
5.3153163e-32
4.1349073e-31
7.3703289e-31
2.0764758e-31
6.8503858e-31
2.3146516e-31
1.4902908e-31
4.9027804e-29
2.4845298e-29
5.1105763e-30
1.8396206e-29
1.9679522e-29
1.3379487e-29
2.4097551e-29
9.0796866e-30
1.5588473e-29
1.1913376e-29
1.5172372e-30
4.0776975e-30
2.6690483e-30
1.1491679e-30
4.513719e-31
1.5356082e-30
6.7085257e-30
1.182726e-30
4.6905133e-29
3.2782865e-29
6.4630541e-30
6.2316465e-30
7.1454445e-30
3.4966746e-30
3.7000167e-30
2.0575053e-30
2.9842593e-30
3.9629512e-30
1.4787028e-30
3.408221e-30
6.7544033e-30
2.824823e-30
2.9365627e-30
3.6640999e-31
1.9324841e-31
1.1315796e-31
8.5381773e-31
6.3722081e-31
6.4515852e-31
8.425431e-31
8.6497528e-31
7.2781607e-31
5.3312263e-31
7.7365961e-31
6.6604413e-31
9.6432237e-31
9.9361567e-31
9.4459065e-31
1.6441184e-30
1.5913506e-30
6.630859e-31
7.1645358e-31
1.2684209e-30
1.2548369e-30
8.2165614e-31
4.5650153e-31
6.2323509e-31
4.0107202e-31
2.9897423e-30
4.935599e-30
2.1267485e-30
1.4809055e-30
1.3736656e-30
1.6168566e-30
1.9408688e-30
1.5621894e-30
1.4678297e-30
1.449513e-30
1.8098484e-30
2.0886937e-30
1.6368745e-30
5.9046092e-31
6.5815178e-31
3.9506695e-31
3.8307649e-31
4.8017715e-31
5.661324e-31
1.0744822e-30
8.7261018e-31
2.1950993e-30
2.4956533e-30
1.2099901e-30
3.7667284e-30
2.2651779e-30
1.6090672e-30
1.516823e-30
2.1200493e-30
1.946912e-30
1.3557527e-30
9.6766935e-31
1.5154486e-30
9.5976037e-31
1.4039102e-30
2.6515192e-30
2.64504e-30
1.8677216e-30
1.0884037e-30
5.4606905e-31
2.8597619e-30
9.3848864e-31
1.2634523e-30
7.7571445e-31
4.5683522e-31
2.0603894e-30
1.5121182e-30
2.994579e-31
1.0278991e-30
7.9948826e-31
7.6511487e-31
1.195741e-30
6.8012526e-31
5.6123249e-31
7.7078767e-31
6.1696544e-31
2.5243073e-30
6.6534172e-31
2.1235445e-30
4.4385488e-31
4.2415012e-31
3.3128409e-31
8.5538514e-31
9.2300692e-31
9.8221146e-31
8.385503e-31
6.171786e-32
3.2748593e-31
3.6059721e-31
1.9654105e-30
1.43463e-31
3.4912201e-31
5.18168e-31
1.0007773e-30
1.4428017e-31
1.2896597e-31
4.1925391e-31
9.8809183e-32
6.0250748e-31
5.7828446e-31
8.0504537e-32
1.1789839e-31
7.9976765e-32
2.2200628e-31
9.2917019e-32
1.2203196e-30
1.2504828e-30
1.1219989e-30
1.3328446e-30
9.5728626e-31
9.1451994e-31
9.1874621e-31
1.3580903e-30
1.3417134e-30
1.9153026e-30
7.6686887e-31
1.9723789e-30
3.2953008e-30
1.3330852e-30
8.9975854e-31
5.6045669e-31
5.4832325e-31
1.6067887e-30
6.7929752e-31
2.9880033e-30
2.0945787e-30
7.6817949e-31
8.3183889e-31
1.7894114e-30
6.9747143e-31
2.4391317e-30
7.6090642e-31
1.2335314e-30
2.2615241e-30
1.7107255e-30
2.2610217e-30
1.9522903e-30
2.9353994e-30
3.3067598e-30
1.8069586e-30
4.8564086e-30
3.6623478e-31
8.3934798e-31
8.5464154e-31
7.1855373e-31
1.5863795e-30
2.6290261e-30
1.2964794e-30
2.5958295e-30
3.7458377e-30
8.6024713e-31
1.1733311e-30
4.5845009e-30
1.5260626e-30
7.3664688e-31
1.7282269e-30
2.9592106e-30
1.8678064e-30
1.0408037e-30
4.1444914e-31
1.9583521e-30
8.8775929e-31
4.7665086e-30
8.1086254e-31
3.6001053e-30
2.855776e-30
1.6586524e-30
1.1172002e-29
2.2451601e-31
7.0135915e-31
4.0295416e-31
4.702271e-31
8.327131e-31
1.4420597e-30
1.7839613e-30
3.6599942e-31
1.6564448e-30
4.5666521e-30
5.9100988e-31
2.343945e-30
1.0667964e-30
5.8716839e-31
5.6776267e-31
7.6143804e-31
6.6423855e-31
1.2201825e-30
1.0847802e-30
6.828824e-31
1.7454648e-31
1.4027329e-30
1.9615182e-30
5.5018661e-31
5.3960004e-30
8.0857722e-31
4.4551988e-30
3.6698291e-31
6.3438016e-31
1.5472356e-31
2.0662886e-30
4.2821928e-31
2.7817235e-31
4.8947344e-32
8.6822408e-31
5.5022673e-31
7.3610104e-32
1.9576419e-30
4.0483924e-31
2.844306e-32
3.9189337e-31
5.5217413e-31
1.7267966e-31
5.1978068e-32
4.9734476e-29
4.5375955e-29
1.855535e-29
1.0315367e-29
1.537432e-29
2.0135654e-29
5.1117612e-30
1.1780992e-29
6.1661582e-30
5.4601153e-30
1.4870118e-29
6.1047071e-30
3.3798749e-30
5.5838755e-30
2.8646718e-31
5.3393971e-31
6.6309535e-32
1.3296936e-30
4.2425483e-29
5.766711e-29
1.6912462e-29
4.6681928e-30
9.1056622e-30
2.3671365e-30
3.1261499e-30
1.7801001e-30
3.52181e-30
2.7265611e-30
4.5802441e-30
5.0112603e-30
7.8141441e-30
1.2043357e-29
7.882316e-31
5.1840937e-31
6.2256234e-30
5.2490989e-30
6.2759234e-31
8.801841e-31
8.8410994e-31
6.3328432e-31
5.2029053e-31
6.5668842e-31
6.1146012e-31
6.4563876e-31
7.7375192e-31
1.5008816e-30
2.3506242e-30
7.5093802e-31
1.0182117e-30
8.8568531e-31
1.0348794e-30
1.5270039e-30
2.5979975e-30
7.7881222e-31
6.5376626e-31
1.2888754e-30
1.1481038e-30
6.1237408e-31
2.2855213e-30
4.1269562e-31
6.8393413e-31
7.0413526e-31
4.3354336e-31
6.9368102e-31
4.3070351e-31
1.2359956e-30
1.8869618e-30
2.5048687e-30
1.5970763e-30
1.9034214e-30
1.2318861e-30
2.0386773e-30
1.6300845e-30
1.1113369e-30
6.0581629e-31
7.5715637e-31
1.7439149e-30
1.0377873e-30
6.448747e-31
8.0954743e-31
4.6932413e-31
4.3938824e-31
2.244293e-30
3.4420397e-31
2.1627968e-30
3.1834667e-30
1.1871335e-30
1.2518878e-30
1.4643413e-30
1.040447e-30
1.1157953e-30
2.823832e-30
7.6900313e-31
9.761066e-31
1.2254276e-30
1.958691e-30
2.218913e-30
1.2563811e-30
1.3916271e-30
1.7585653e-30
1.0792573e-30
1.1573526e-30
7.7071942e-31
1.9697176e-30
8.5891954e-31
1.9859846e-30
4.3969348e-31
9.0342369e-31
2.4695946e-30
2.8862918e-30
6.9621431e-31
6.4605348e-31
6.2414712e-31
2.3316952e-30
1.5235907e-30
5.1713946e-30
2.244235e-31
6.2204341e-31
1.3794234e-30
1.9210178e-30
3.4033376e-31
5.2008507e-31
1.1142688e-31
1.222089e-30
6.1863044e-31
8.9684402e-31
2.7250729e-30
1.5300912e-31
5.6166051e-31
4.4644846e-31
6.5260155e-31
5.7883438e-32
1.8966899e-31
9.1673666e-31
7.9524646e-31
4.2758809e-32
1.4457834e-31
3.6768138e-31
2.404723e-32
2.0460744e-31
4.3004428e-31
1.7397594e-31
1.7057399e-31
1.3124075e-31
2.1426926e-31
1.3070134e-31
2.2867528e-30
1.4430136e-30
9.1659744e-31
1.0758668e-30
1.0588177e-30
6.8292859e-31
6.8251238e-31
1.0659458e-30
9.3870334e-31
1.4569312e-30
6.4342224e-31
2.9276532e-30
1.2611573e-30
2.6582046e-30
6.9953154e-31
4.6116786e-31
4.4184185e-31
1.7816661e-30
8.206075e-31
1.2974046e-30
1.787571e-30
2.0443255e-30
7.7713458e-31
2.5719266e-30
1.3095661e-30
1.5355722e-30
7.2115489e-31
3.3101816e-30
3.3442529e-30
8.741956e-31
6.8347351e-31
1.1682511e-30
1.9216283e-30
1.8250759e-30
4.1364675e-30
2.5376625e-30
1.3531271e-30
2.2156109e-30
1.309138e-30
2.2493689e-30
1.1866968e-30
3.0257365e-31
2.6339598e-31
4.0390503e-31
5.3993746e-31
1.210766e-30
1.1243075e-30
1.3187041e-30
6.6086485e-30
1.4463568e-30
2.1579786e-30
1.5140442e-30
1.0534047e-30
1.4787352e-30
2.7400909e-30
4.8875047e-30
5.7991869e-30
1.1434568e-30
7.6525377e-31
1.4508404e-30
1.8320266e-30
1.5050817e-30
1.6651178e-30
9.1082969e-31
7.6654738e-31
1.917178e-30
1.0784667e-30
1.2311773e-30
1.9483968e-30
7.8034004e-31
6.2096541e-31
2.8424914e-31
4.8361952e-31
5.7621853e-31
2.9532054e-31
1.7317511e-30
2.2538333e-30
1.9458858e-30
2.4726748e-30
2.7396639e-31
2.7256862e-31
5.7265119e-31
4.1319771e-31
6.6005375e-31
7.8882779e-31
2.4985266e-31
7.404762e-31
7.4285211e-31
4.4680658e-31
9.6931981e-31
2.6872297e-30
5.7484687e-32
1.577369e-30
4.8439376e-31
7.9495765e-31
1.0089073e-30
4.1713479e-32
8.9767649e-31
3.3699301e-31
1.9467394e-31
4.6432918e-32
2.8391015e-31
1.8227876e-31
1.1819533e-30
1.7692242e-31
4.1021726e-31
2.1991666e-32
1.7463707e-31
5.1765932e-32
3.9262691e-31
1.7017677e-31
4.2062259e-31
2.3385501e-32
1.2359134e-28
6.0017712e-29
2.66089e-29
8.5948038e-30
3.0093751e-29
2.1446519e-29
8.7718648e-30
5.3483782e-30
1.4685052e-29
1.3459217e-29
8.030608e-30
1.9755832e-29
4.878555e-30
1.0589221e-29
4.1948834e-30
4.5960094e-31
1.283673e-30
2.4048111e-31
2.2640319e-29
2.7686652e-29
1.7251698e-29
1.9586882e-29
6.5304044e-30
5.7802359e-30
3.4627391e-30
2.8552138e-30
2.2401424e-30
4.283736e-30
3.8524628e-30
1.5020299e-30
4.6593811e-30
9.5795398e-31
2.6035709e-30
1.5140532e-30
4.1897102e-29
2.765533e-30
9.6556466e-31
6.4672164e-31
6.6638734e-31
9.0426461e-31
1.0676612e-30
6.5849713e-31
8.8953757e-31
6.4181541e-31
2.8133938e-31
4.4971647e-31
1.527854e-30
5.9705222e-31
5.5213087e-31
1.177549e-30
1.0182974e-30
7.4995935e-31
8.9899783e-31
1.0395325e-30
1.0763483e-30
1.6141335e-30
1.6677612e-30
7.2417789e-31
6.8425135e-31
1.3192362e-30
1.5447315e-30
6.2741335e-31
6.7133849e-31
1.5160317e-30
7.9131165e-31
5.2890416e-31
1.1526505e-30
4.3821649e-31
6.1818816e-31
1.246028e-30
2.3452348e-30
1.904306e-30
1.6188175e-30
1.6130222e-30
1.3319488e-30
1.5446446e-30
1.791726e-30
1.359529e-30
9.2112856e-31
1.7789298e-30
8.2656921e-31
8.4988825e-31
6.0153357e-31
9.6615442e-31
2.407364e-30
9.8206383e-31
2.2159552e-30
3.0293849e-30
9.8833039e-31
9.4926767e-31
5.9224006e-31
1.3216181e-30
1.300399e-30
1.6558692e-30
1.2688459e-30
6.0983483e-31
1.0040585e-30
2.2511089e-30
1.7602521e-30
4.4473824e-31
2.455012e-30
1.1289811e-30
1.1067671e-30
8.9653978e-31
2.9961477e-30
8.4537501e-31
5.6247837e-31
1.1487856e-30
6.0632861e-31
1.4108893e-30
3.0489407e-30
1.09498e-30
1.2217966e-30
6.9697695e-31
6.667771e-31
8.0125152e-31
1.6578318e-30
1.4791052e-31
5.5695475e-31
2.5276515e-30
1.2543994e-30
8.9942543e-31
1.3287832e-30
6.4652487e-31
6.0006514e-31
7.7396672e-31
1.4284096e-30
2.920757e-30
3.7614899e-31
1.9420889e-31
7.9441039e-32
5.8091648e-31
2.8933371e-31
3.1972806e-31
1.9037101e-30
2.6118825e-32
7.0251222e-31
4.9676694e-31
1.3929649e-30
4.807959e-32
5.536595e-32
5.1301127e-31
4.9233569e-32
1.6730177e-31
8.4689682e-31
7.2669725e-32
1.198287e-31
1.9858164e-32
9.6331559e-32
2.7294818e-31
1.8572398e-30
7.9805322e-31
2.0210924e-30
1.1836653e-30
9.4264823e-31
1.7272191e-30
1.7680128e-30
1.9750395e-30
3.5051546e-30
1.7604717e-30
2.2254064e-30
6.6170918e-31
3.0520888e-30
1.9420725e-30
6.3649137e-31
4.7677461e-31
4.8084865e-31
1.594842e-30
1.7261707e-30
9.144901e-31
5.0134461e-31
1.0686286e-30
9.6434258e-31
1.3794371e-30
8.8675524e-31
3.3505098e-30
2.7665494e-30
9.7631097e-31
1.6492786e-30
2.8990898e-30
7.0173109e-31
2.3844884e-30
2.0358401e-30
6.2768728e-31
6.3739542e-31
1.6118089e-30
1.463431e-30
9.4428983e-31
1.6968511e-30
1.7935657e-30
2.0175263e-30
1.423124e-30
1.5256312e-30
1.9057501e-30
8.6320137e-31
6.8647337e-31
3.0206228e-31
3.1738663e-31
1.8631575e-30
4.0717464e-31
3.3224723e-31
6.0370622e-31
6.0690434e-30
2.0428311e-30
5.0904184e-30
2.3821194e-30
3.2587075e-30
9.801647e-30
5.847465e-30
5.4078614e-30
4.8143799e-30
6.8655054e-31
7.1512497e-31
3.3213349e-30
1.0636818e-30
1.2698845e-30
8.5891891e-31
1.7816428e-30
3.8017739e-30
4.8836381e-30
5.1938708e-30
6.9272795e-31
5.8623362e-31
2.8680178e-30
7.9973137e-31
1.6658412e-30
1.335794e-30
1.3067965e-30
1.4103963e-30
2.4198638e-30
8.51699e-31
2.2817033e-30
1.5443335e-30
1.3986069e-30
2.043713e-31
5.6689749e-31
6.3203942e-31
1.2723623e-30
2.2190458e-31
6.3166551e-31
3.8871911e-31
1.8857765e-30
3.5949101e-31
8.1148788e-31
4.9150839e-31
6.5142421e-31
4.4767107e-31
2.0774606e-31
2.1159323e-31
4.8114551e-31
2.7706507e-31
3.2156063e-31
3.2028539e-31
7.5614904e-31
1.0023013e-31
9.3947666e-31
4.1205359e-31
6.0837274e-32
6.9809446e-31
2.0806841e-31
2.082206e-32
6.6487207e-31
8.6399972e-32
1.146047e-31
2.3959487e-32
6.6576433e-32
1.4143601e-31
9.386451e-29
6.9235283e-29
2.5574011e-29
3.3144846e-29
2.2646941e-29
4.1602837e-29
5.6694358e-30
3.7685399e-30
9.0021792e-30
1.1378961e-29
4.7762646e-30
7.580482e-30
2.7251628e-29
1.2141729e-29
7.8948486e-30
1.8922886e-30
9.4120994e-31
1.2779208e-29
2.5329734e-29
2.1190082e-29
8.9621373e-30
1.0625822e-29
9.1950487e-30
6.3268973e-30
7.0349001e-30
6.3693522e-30
2.4086732e-30
2.4802072e-30
2.9278899e-30
7.017558e-30
3.3018681e-30
2.1556259e-30
1.8930218e-30
9.8424294e-31
6.6735445e-31
5.1530512e-31
8.5269636e-31
1.5879325e-30
1.1207013e-30
1.7410679e-30
9.1114604e-31
8.5194438e-31
9.8011566e-31
6.8816143e-31
6.9319481e-31
8.9798555e-31
8.8299335e-31
1.7030398e-30
1.79968e-30
9.377721e-31
3.2474376e-31
7.646158e-31
4.2483641e-31
7.48829e-31
2.93277e-32
8.3547746e-31
1.1757231e-30
8.9582035e-31
8.4388308e-31
9.5542928e-31
1.0620954e-30
1.4959335e-30
1.8817138e-30
6.8364117e-31
6.5151193e-31
1.3553979e-30
1.2560401e-30
4.4931339e-31
1.0319009e-30
1.9028528e-30
3.2060447e-30
1.494453e-30
1.9588679e-30
9.8543785e-31
6.5480618e-31
1.5262142e-30
1.9730139e-30
1.1799785e-30
1.3241561e-30
1.8634884e-30
2.0441297e-30
1.5798533e-30
3.4890333e-30
1.4598634e-30
1.0757906e-30
2.0315729e-30
2.051872e-30
6.0224557e-31
1.0002882e-30
2.2646766e-30
7.9544789e-31
7.7325992e-31
1.817061e-30
4.3147919e-30
1.384937e-30
1.3491134e-30
4.1844391e-30
1.855804e-30
2.3255501e-30
1.7563426e-30
1.4508475e-30
1.6198213e-30
8.4716077e-31
3.5546848e-31
2.2176375e-30
3.1663132e-31
2.64789e-31
1.4184634e-30
1.2701154e-30
1.2554489e-30
1.0253379e-30
2.3822072e-30
3.3678495e-30
7.2615581e-31
4.3902083e-31
2.504554e-31
4.8556723e-31
1.2832685e-30
7.7153227e-31
5.8458681e-31
5.1779989e-31
1.1342076e-30
1.6225281e-30
3.8857042e-31
1.1962014e-31
4.3512454e-31
1.2785936e-30
6.4052985e-31
8.7125969e-31
2.783327e-31
5.8524095e-31
4.968226e-31
6.3362229e-31
1.7440408e-30
8.6272456e-31
1.1071071e-30
3.6278603e-30
2.182382e-31
4.0868568e-31
7.4741741e-31
2.6330792e-31
9.4871815e-31
6.6865043e-31
1.1541321e-30
1.0574471e-31
1.2258461e-31
1.912651e-31
2.9625491e-31
4.9219223e-31
7.1149005e-31
5.0521772e-31
1.2600435e-32
2.1208727e-32
2.2242467e-32
2.4324411e-31
8.580038e-32
3.3574163e-32
1.3398767e-30
6.0196422e-31
1.9359715e-30
1.9349807e-30
7.5887893e-31
1.4311661e-30
9.5655714e-31
2.5585665e-30
1.7692608e-30
1.9751662e-30
7.8293385e-31
3.1268137e-30
1.1351153e-30
1.5377414e-30
6.522287e-31
4.9143967e-31
4.4961483e-31
5.4131007e-31
4.2849773e-31
1.9520122e-30
9.7417492e-31
3.4737022e-31
1.5961109e-30
3.6244512e-31
9.6589126e-31
1.6817314e-30
9.9414202e-31
6.3042767e-31
8.4066883e-31
3.5207856e-30
8.7918394e-31
5.2770162e-31
2.2079272e-30
1.4804658e-30
7.5278529e-31
8.098992e-31
9.7169703e-31
2.4162076e-30
1.4228119e-30
1.2839736e-30
1.1969723e-30
9.1885663e-31
1.5762386e-30
7.6136879e-31
1.2454906e-30
1.4898282e-30
5.8578899e-31
7.2060472e-31
6.8800052e-31
4.0546828e-31
1.3727592e-30
5.9681414e-31
3.5097544e-31
4.1681686e-31
9.5665698e-30
1.4754741e-30
1.2869026e-30
1.626051e-30
1.7791778e-30
6.9516415e-30
4.4400916e-30
5.7454043e-30
4.7464032e-30
1.1881701e-30
1.5309529e-30
3.9441997e-30
1.3668835e-30
4.061132e-30
7.0326275e-31
3.6803111e-30
3.0122444e-30
4.3605884e-30
2.3709414e-30
4.6295381e-31
7.7694939e-31
1.1167029e-30
2.3580225e-30
1.0706814e-30
2.8618431e-31
9.0608241e-31
6.0152642e-31
1.736672e-30
1.4806873e-30
1.1335627e-30
4.3503238e-30
2.1247984e-30
4.3681882e-31
2.5566139e-31
9.1636131e-31
8.2096956e-31
1.7373776e-30
9.4871744e-31
1.1079377e-30
7.5976308e-31
1.7356892e-30
1.9718679e-31
3.5747041e-31
2.2724232e-31
1.1322691e-30
2.4003566e-31
4.8077641e-31
8.333033e-31
3.7027016e-31
5.2818522e-31
7.1282917e-31
4.0987458e-31
3.7548576e-31
1.5193088e-31
1.4317225e-31
4.2929341e-32
2.1970644e-31
5.0545682e-32
6.2376835e-31
5.1040681e-31
1.1749443e-31
2.4479597e-31
1.7067444e-31
1.4988788e-31
2.9224114e-32
2.9157245e-28
1.0558079e-28
1.9538746e-29
1.2072731e-29
2.5956724e-29
2.4407933e-29
1.37422e-29
4.6560858e-30
1.6775941e-29
2.2843049e-29
4.3671916e-30
7.7792001e-30
6.0605584e-30
1.4012982e-29
2.9495292e-30
1.2626184e-29
1.1168217e-29
5.9709607e-30
2.2218863e-29
1.1147455e-29
1.4365895e-29
1.2370861e-29
9.7711004e-30
2.3723465e-30
3.3398965e-30
1.4435989e-29
3.1826971e-30
1.3831023e-29
2.9649951e-30
5.7382823e-30
7.8853416e-30
4.8178096e-30
1.1460054e-30
1.462291e-30
5.1808621e-30
4.7622848e-31
8.4945013e-31
8.9107766e-31
6.8717706e-31
6.2172024e-31
7.2629549e-31
6.9746258e-31
6.1847395e-31
2.0469029e-30
9.2702571e-31
1.5743166e-30
1.8692445e-30
1.8476533e-30
1.2114922e-30
2.6312076e-30
1.0388441e-30
4.5614299e-31
8.3175542e-31
2.1704919e-31
1.8230657e-31
8.0990962e-31
9.2015631e-31
6.7307719e-31
6.6850558e-31
8.0215674e-31
3.8997255e-30
7.6642097e-31
1.7309495e-30
1.0354727e-30
8.964572e-31
5.395367e-31
7.452297e-31
3.5370863e-31
2.8870137e-32
8.7624815e-31
7.5391663e-31
2.6201748e-32
8.4447607e-31
2.3372717e-30
1.4201599e-30
1.4588809e-30