/*--------------------------------*- C++ -*----------------------------------*\
  =========                 |
  \\      /  F ield         | OpenFOAM: The Open Source CFD Toolbox
   \\    /   O peration     | Website:  https://openfoam.org
    \\  /    A nd           | Version:  7
     \\/     M anipulation  |
\*---------------------------------------------------------------------------*/
FoamFile
{
    version     2.0;
    format      ascii;
    class       volScalarField;
    location    "5000";
    object      omega;
}
// * * * * * * * * * * * * * * * * * * * * * * * * * * * * * * * * * * * * * //

dimensions      [0 0 -1 0 0 0 0];

internalField   nonuniform List<scalar> 
33730
(
794.95729
2238.5214
623.93932
758.76087
1097.7577
1267.8925
960.63967
952.66844
531.27331
539.02624
690.46524
628.96222
3421.5507
2307.7062
2455.896
2141.3388
2500.8439
2338.8704
2134.8227
624.29723
450.27791
453.06838
509.66776
506.40501
728.72083
1024.0679
521.4692
922.68053
949.90862
1059.3392
585.14999
622.56459
531.49581
1237.719
1419.2998
963.51257
814.28515
1071.1871
750.22707
461.67533
466.73664
559.14155
523.87049
1007.8729
3919.4381
3228.0753
3227.2744
3340.7818
3469.6071
3199.3807
2403.3123
2699.7289
2069.623
2254.1222
2586.5707
2564.5263
2246.1219
2554.2024
2359.7835
1983.2862
609.11907
452.23051
458.07497
514.11368
510.39977
422.4365
423.32323
441.51934
441.51258
776.32361
1028.8557
516.29889
510.52066
837.08794
1027.7648
881.96309
567.99852
565.86766
1358.6332
453.43651
1133.2875
736.64258
1107.9189
756.14085
1397.5261
504.9892
511.1926
458.68224
961.24257
1090.273
644.29418
769.50943
683.51921
893.85816
1037.3506
646.53048
473.79411
472.62833
547.73592
526.42197
685.06869
850.40721
593.11161
815.34475
777.8884
577.22798
1707.4092
1267.1959
1658.4406
1269.7433
3931.465
3175.7432
2947.4853
3261.4302
3200.4216
3303.2454
3297.6669
3269.1449
3307.5134
3084.9298
2419.5284
2777.0292
2364.955
2075.1226
2814.134
2271.7357
2364.7402
2248.2758
2715.9983
2485.0469
2321.7621
2480.3898
2177.2161
1619.5407
604.66738
449.28931
499.58113
505.18627
453.37012
417.15294
423.05748
439.56594
434.12409
437.00884
438.80281
451.82986
449.61266
723.88287
1111.7427
1103.0507
538.38434
538.81605
608.83697
605.32805
886.09941
900.40298
1365.5548
450.20655
448.29195
943.8791
672.3501
1264.4665
1067.9859
701.45227
492.43826
506.26917
1839.8608
468.97447
920.65864
1386.9183
657.2462
870.39021
1170.1669
633.86294
1701.2967
519.89376
526.41397
472.33633
599.31727
654.71263
374.92705
439.62613
740.08648
685.19816
969.53847
794.29455
766.0071
659.10966
501.37562
495.65737
546.9535
539.88572
287.62075
574.20215
502.22758
429.50852
512.60129
419.52575
845.26245
543.72665
774.22154
749.71089
568.97312
1176.0406
1464.0773
1187.7765
1499.0071
507.7926
675.48109
1095.0386
614.86172
1045.5771
480.02893
2043.7602
1455.8828
2043.2572
1439.3911
3827.4336
3230.8393
3012.2108
2311.6722
3196.8346
3197.4528
3051.7867
3187.377
2993.7086
3110.0497
3305.852
3001.4434
3191.9902
3025.8816
2366.4383
1919.3541
2562.2294
3681.7848
3053.0451
2010.5915
2253.2115
3018.4443
2587.5269
2924.5935
2299.4707
2465.6665
2511.6545
2151.4462
2192.6149
2569.6161
2126.699
1125.9771
504.00826
595.06075
454.58532
508.13669
510.19148
453.58921
409.57787
427.29742
430.84979
413.90512
436.85221
438.62247
450.87048
448.55729
464.39319
464.20156
479.31255
475.39222
716.18131
1202.9659
1170.8405
935.8143
916.25072
520.06406
521.78188
598.18599
603.91767
1357.4294
1357.2035
459.95841
465.46986
514.9527
721.65104
502.64359
711.41586
1018.2972
1053.7326
1690.9736
462.61632
458.91065
792.7993
958.56068
605.48622
1277.7981
1206.7624
844.86056
644.21435
493.32559
503.17182
4213.7066
495.03039
879.3402
877.98839
1853.6622
662.07676
738.84985
815.40696
1192.7736
663.0886
1576.9566
531.83962
542.05085
500.2302
232.2703
611.37585
714.69785
684.89595
661.37568
893.95106
790.21576
657.45607
480.49621
296.20173
849.64416
476.61472
539.69512
411.41093
463.36609
491.16922
426.30702
430.20066
412.74334
440.40036
406.94509
919.87218
608.68213
834.87743
839.37878
567.56075
1357.5464
1246.1747
1516.7308
1523.0842
506.92359
744.49617
1050.2308
629.14588
1018.3752
492.19344
1429.1212
1791.4152
1399.8271
1982.021
508.58544
909.02983
646.17421
1226.8163
659.49292
854.33436
1200.5447
488.02176
1965.8283
1446.3426
2544.7612
1245.5499
3882.6143
2782.45
2513.6783
1426.4786
3487.9688
3541.0146
2978.5799
2807.1742
2881.8313
2807.9541
3411.0378
3116.0315
3225.4798
3197.9733
3019.7995
2859.9019
2919.4618
2305.156
2390.2386
2624.1492
2558.8556
2485.4815
3442.1464
2604.6626
3988.3252
2245.2867
2147.5948
2381.9223
2378.5884
2140.7557
2493.889
2572.2899
2067.8086
2087.2449
2705.0572
2206.8926
515.44405
398.97946
395.91575
433.87279
436.55538
587.73478
460.37981
505.49342
501.97621
450.64528
423.01662
441.20111
433.53068
413.22301
431.72295
443.52608
448.44095
437.68237
468.66169
464.37306
479.80943
474.83448
682.11873
841.0521
1050.8296
524.15066
529.34974
1023.2798
805.99962
605.08242
609.13132
1428.7258
1358.8838
992.51253
725.96021
1008.0299
728.75614
465.97093
469.13713
538.16148
532.49845
1418.8755
1660.3671
466.054
473.5481
618.59516
515.98087
762.08477
604.19115
509.0739
766.4628
1125.7581
1248.9039
3157.4289
494.4996
494.43164
895.82266
727.28717
1379.2387
612.81306
1412.5051
2044.1562
926.8631
794.29194
613.81891
518.62156
520.65001
555.22174
865.42828
839.38465
661.53292
755.45376
550.33063
596.35726
670.98358
407.60243
488.77481
705.39083
778.5507
785.41846
770.15602
798.42855
646.22867
433.44131
462.07411
399.44178
361.67004
392.2187
362.80113
580.08417
415.18306
485.58606
465.39679
409.80287
417.09606
435.53322
438.54312
416.43276
450.74334
440.52387
460.99585
436.44217
1222.5247
650.81687
852.1266
859.75472
675.38997
1803.9433
1363.9006
1542.271
1265.284
532.44192
693.4574
1070.412
778.60664
1106.55
524.39482
1424.4646
1454.0575
1988.1363
1664.724
494.16022
958.19511
687.6348
1130.4418
684.50244
927.7369
1116.031
505.03839
1442.506
1462.9882
1218.1158
1895.2565
521.18388
921.35166
989.54343
620.34046
1021.9067
595.54639
853.19013
940.7106
940.4776
515.65392
2154.4665
1509.8744
4249.0054
836.13113
4016.7678
2347.1542
3593.678
2691.0897
2258.9113
2823.8892
2220.0519
3355.7959
3111.4819
3136.8196
3057.7451
3108.1926
3028.8655
3261.2685
3068.674
2900.4715
2690.6825
2146.6378
2283.9867
2997.539
1739.4956
2190.2045
2041.2408
2256.074
2268.6549
2016.3795
2056.6669
2350.258
2410.3373
1983.0792
2151.6984
2494.4908
2165.2328
1932.3106
3583.0041
3416.2623
425.48445
505.77862
402.9222
412.47453
440.24949
448.68858
395.04749
386.15908
398.10408
409.07605
582.64346
461.63726
506.37019
505.80307
461.22358
437.73413
452.40449
443.34265
426.06513
441.86632
453.08402
445.29799
432.00319
475.44958
481.89136
483.48574
479.78622
653.51109
977.06553
521.80398
515.11211
750.23155
751.09981
935.40374
591.07801
571.66177
978.06839
746.47105
1300.3425
482.27951
489.19804
1105.1123
875.36506
723.54037
545.67955
557.02588
1461.1412
1397.04
756.2532
785.15035
654.77823
893.93763
780.34151
677.48019
470.8642
474.52218
531.4409
529.61615
1787.6665
1701.1685
489.60474
495.22833
671.65612
605.84373
527.48389
739.45188
653.58542
607.31223
520.07691
739.54502
1412.7548
966.92925
1716.6585
831.80718
773.57263
605.07653
1422.857
738.64833
767.38516
602.08557
498.18777
933.63376
809.56804
769.59873
603.12303
287.01289
670.59418
345.96062
695.2973
464.89476
362.22016
391.34693
392.98167
362.68475
379.08707
381.07685
507.56352
508.20468
403.73492
398.34403
407.13121
393.84291
677.94319
444.43385
536.77465
548.6121
435.52697
427.7326
465.05344
444.88721
419.45478
446.86285
457.60035
460.75608
442.56644
493.63006
478.48256
503.08369
474.48891
1339.3892
640.32363
849.79678
904.25642
682.47418
1451.1144
1969.791
1464.2067
1926.3054
537.77291
698.06617
1084.724
669.01723
1056.5857
544.37944
2115.3758
1524.9936
1861.2571
1392.71
519.62064
910.68972
625.17671
1199.1266
657.42482
953.35392
1086.6774
503.81107
928.75904
1207.9342
1978.1486
1279.2814
540.97096
942.62703
923.08522
655.34184
758.0132
651.74663
937.51827
987.09886
807.43484
531.3952
1627.342
1193.3004
1009.7762
1626.9143
881.40093
970.05924
895.08383
980.43778
795.31225
876.38066
772.32332
589.19599
4075.4284
3454.8869
3696.2388
3359.8575
3127.4811
3032.9074
2957.5145
2884.4309
2902.5222
2873.3842
2693.8656
2979.9779
2941.8076
3573.7886
3043.6753
3109.5893
2533.0578
1322.2096
2227.1062
2085.0885
2272.9374
2326.2182
1999.0371
1980.9332
2002.4497
2226.2595
2414.2536
1977.8564
1935.1188
2046.6703
2201.9152
1612.5854
1869.6621
1844.2126
1873.834
1784.5505
424.77039
397.70111
372.72744
392.36664
369.89215
506.45099
413.65206
414.82523
447.9244
448.18254
394.84158
404.95195
409.96371
422.4257
421.16796
411.69523
421.37054
432.94987
553.96567
461.73853
499.58047
504.13313
469.23727
452.39996
466.44797
462.6883
450.52604
460.46966
465.26012
457.25677
451.32824
482.10709
483.19708
476.06427
470.63899
651.06698
1032.4205
920.76495
499.85164
508.61967
568.25904
588.90575
739.29032
751.46981
1139.3659
480.26009
473.63838
874.77492
673.70152
836.22519
702.45962
1029.1586
526.79413
516.96258
855.8575
1022.7574
654.20507
1337.3753
491.73345
491.96646
990.64179
862.1223
766.93702
608.67076
533.10422
539.46656
1623.717
1252.9487
665.71704
694.82488
540.68956
648.81255
1168.0606
678.26574
658.63018
670.58856
491.72983
499.82126
533.11299
530.21127
659.62046
669.64063
603.83299
861.30451
587.95568
671.37756
605.25079
660.39002
738.03895
892.4796
737.46746
483.99634
752.94557
742.96748
657.83327
859.69723
519.55928
480.11148
363.04887
398.45874
396.10242
363.88042
380.91011
380.66115
509.53058
507.6722
396.70442
349.60121
409.81063
408.7036
400.99117
351.53173
433.03653
438.04603
436.63517
432.11389
791.06395
545.74806
432.4801
539.93277
432.1904
429.18192
459.00821
483.78849
447.60187
467.89519
476.97316
462.54111
457.18391
489.9375
497.46987
508.93718
481.46557
1044.1891
711.15278
943.34065
895.83648
673.97117
1495.5791
2084.6616
1470.2651
2170.0151
483.11111
589.28086
1081.6049
609.8149
1071.623
490.13885
1595.8292
2125.1105
1600.9299
2207.173
501.80963
626.19492
873.61936
1089.1349
638.50405
872.21451
1111.1106
547.90024
2041.7467
1360.345
2030.6831
1175.504
552.30685
834.63816
949.53511
598.54473
892.35725
612.67782
894.76419
811.51817
589.97669
532.96166
450.1142
788.82965
1545.842
615.57061
903.6522
916.34488
634.85009
481.66855
902.47626
961.34312
832.05935
490.73423
913.75354
885.34472
732.48976
839.93464
631.64722
576.18681
4069.4865
3376.9594
2916.231
2908.341
2949.6883
3037.5745
3119.9991
3119.7477
2755.2308
2682.2683
2427.3842
2037.6918
1754.7693
3032.1826
2689.188
2893.1089
5237.1614
4835.7141
2153.5337
2078.9312
2283.6683
1921.3781
1878.1307
2279.257
2414.6694
2420.4433
1904.5734
2044.3528
1900.4894
1786.2211
2647.9164
1962.2589
2166.6642
1690.1845
1755.1711
1130.3619
423.54702
373.8583
374.1159
398.1456
398.3817
387.89615
374.5796
381.91513
371.62195
486.20719
422.76063
411.88545
455.96161
447.04861
416.0724
418.42572
435.08731
436.39922
426.55393
436.89565
441.72027
451.28278
464.48367
453.82469
463.91343
478.11201
527.75756
442.47198
478.69184
491.95637
454.54053
437.21792
453.43898
462.48037
446.12375
475.20902
481.48423
484.04999
481.2113
504.65964
500.32571
491.35413
498.77561
615.64241
899.55421
877.44825
778.56139
812.82127
494.58284
602.19795
602.26343
498.28932
1113.2739
1053.0797
450.83333
462.30805
519.28287
677.70939
513.25543
694.58967
814.29961
847.82288
1296.4513
487.02638
479.26831
903.25227
781.69089
619.66381
797.01869
739.51585
618.33157
1119.6569
523.50388
515.70014
916.2945
659.98079
1102.0906
637.69745
1695.4264
532.41813
531.28787
1238.1281
779.44798
677.97512
558.94881
607.37811
551.18184
551.34798
425.24889
609.45142
698.48556
634.7179
528.31334
435.49682
669.80137
651.08627
701.71977
679.90909
670.62752
437.56637
671.82918
676.35498
706.59657
885.88743
451.14498
751.29778
726.99267
497.74729
362.53418
400.96311
399.81515
364.4186
381.68357
379.00189
510.49276
512.91604
409.81757
351.31568
417.93552
431.5317
423.31151
351.90174
369.72452
369.55383
476.41046
382.16818
480.06566
452.13107
451.86802
392.43935
478.69839
490.39712
483.69537
485.23671
725.20217
450.08328
581.00766
560.63206
437.87219
446.93649
424.83265
446.78
424.43056
468.5003
467.8271
497.35148
491.18706
549.12027
539.13007
510.60767
514.84502
1029.063
591.91624
733.33724
780.47216
604.17689
1512.7616
1206.0546
1212.6802
1564.755
526.97838
659.30468
1119.2125
584.3252
1065.1657
485.86681
1610.9737
2242.0521
1509.4586
2260.8372
474.88707
744.3263
564.3053
1139.9166
558.00148
799.79511
1145.1805
478.68665
1513.0482
2053.5086
1489.6886
2062.8687
544.47605
589.43434
803.57074
939.68099
793.87574
600.59844
810.77749
936.13497
719.26803
570.48488
2230.9688
1309.5783
3175.3099
913.76444
754.231
867.92357
872.25254
537.84325
830.35461
854.35122
436.36113
243.59317
909.52396
689.88557
362.85256
928.035
889.06046
541.58563
841.39628
1211.3709
657.94609
386.20065
4102.3074
3559.1494
3062.4463
3004.3042
2907.9275
3084.8845
2953.8525
3185.0712
3047.4898
2966.4743
3142.1736
3074.2937
2495.0838
2093.4094
1258.4074
1020.8626
879.60885
3379.3617
2147.5294
1995.2932
2376.0932
2307.0824
1940.3186
1936.1517
2183.825
1818.5621
1767.46
2137.7171
2712.9484
2470.2002
2426.4318
2748.0614
1579.8247
1026.3463
2460.0263
2885.7737
372.85704
396.66902
403.26847
375.1593
380.63324
377.65595
394.58643
397.59475
418.05464
400.43474
408.35651
396.1079
477.86626
405.67414
405.48447
438.73172
434.10106
409.87888
402.60743
428.03146
419.13701
461.24474
458.94717
473.13317
467.18315
476.7859
485.44089
495.55451
499.34332
509.05292
429.61228
464.43676
470.48734
436.35699
419.32321
431.18641
444.17556
431.17575
460.14919
465.96173
475.40225
467.6
530.22808
532.58682
540.06375
542.88298
604.56934
956.41532
950.18885
809.91719
752.26818
591.20325
561.62173
479.34975
489.70377
1117.6612
1013.9733
831.29831
713.39085
901.99021
737.30286
452.61095
527.28574
519.5741
450.64532
960.63539
947.74365
467.27733
468.83763
621.88625
502.39647
783.30236
612.70344
502.54454
746.16117
826.36942
734.20583
2666.1719
509.47397
498.44548
925.07876
782.45167
693.47232
627.73543
795.5126
710.082
523.1546
612.96375
1112.8935
526.54857
522.62521
675.87346
536.84325
633.13188
624.44291
451.96055
330.17538
538.88629
601.70462
495.82488
721.44978
687.16564
231.44705
546.09556
675.63183
852.17075
692.35373
554.50771
670.60615
548.1608
515.07401
409.463
366.66523
413.31114
367.29874
382.55608
383.15192
511.54449
514.05753
403.74006
350.77405
412.80078
416.28876
407.49108
353.06651
371.11526
368.58279
463.36854
398.86118
336.91365
468.01333
534.89624
407.03958
560.64818
337.43267
544.22549
441.1983
556.48498
511.77889
513.7635
443.01948
733.02412
437.27928
541.7462
548.39831
442.70388
429.08703
461.6675
444.50967
422.862
460.32204
451.01234
457.08994
463.58534
570.14781
537.76151
565.15188
598.54272
1014.1145
585.61857
743.71482
680.1927
547.75702
1510.2842
1217.8051
1218.3106
1570.8001
467.73709
563.82279
933.78382
587.25886
976.90112
492.08942
1795.2331
1312.0287
1320.3714
1748.2476
512.68931
822.28478
628.24345
1148.7305
556.02213
734.34284
1117.545
474.4856
1576.3324
1910.0552
1326.0173
1862.6159
515.32852
733.20425
841.14304
585.40083
1000.7895
550.01766
719.02565
899.35044
1050.6398
529.29192
1758.8428
2887.6504
1594.8628
1774.2824
720.26386
850.03656
839.35838
450.69604
740.29647
878.96823
827.54595
403.7508
807.87707
740.94238
991.62702
865.64285
562.67783
229.40168
717.31365
380.39149
902.82806
700.72743
1205.3512
431.50885
4175.109
3534.9339
3105.8382
3101.6682
3233.3265
3204.8071
2925.9242
2871.2266
2752.936
2890.0907
4222.3337
4279.0084
3311.8846
3168.0851
2326.6836
2026.3869
2092.8837
1223.0265
2106.7987
1918.6825
2301.7456
2298.8886
1956.0279
1999.5438
2332.9167
2393.72
1940.6366
1873.5115
1860.2611
1767.3417
1815.6168
1708.3945
2564.6089
2755.1997
5441.8595
2760.2136
392.73768
370.58979
369.67487
391.37882
372.94678
386.67965
390.53753
375.10494
450.28094
422.76353
442.1622
452.73128
466.79303
449.72605
452.81954
435.80789
461.96304
402.68881
395.25649
428.08203
420.80551
406.83694
405.81655
418.50413
411.40324
451.08467
452.21739
458.74431
455.05918
526.6185
519.12264
535.85801
523.63911
481.91906
422.10877
455.36613
460.26289
426.25881
413.43091
428.41396
428.33239
414.7923
457.09582
454.75449
459.39091
462.87306
502.87301
496.22059
509.14177
510.5004
577.51084
991.67976
895.48366
713.78618
730.15679
553.66209
531.7318
464.52275
474.15785
1204.1345
1263.8607
882.97317
708.44821
873.64386
674.52806
511.30287
499.61495
444.37694
449.39033
1118.821
882.89576
726.41989
689.13456
604.10705
804.83224
743.63362
639.53527
492.63256
532.7916
519.34576
478.81975
614.2876
970.10933
511.26338
495.94183
696.10399
606.86518
513.67089
808.93296
663.09523
592.9669
519.17413
740.51162
800.08521
450.69444
846.40968
634.59656
689.33799
622.7173
678.00451
910.79761
670.65319
604.78969
384.59908
483.65577
626.18097
237.57925
341.17993
568.13157
945.87378
687.96011
301.67857
585.06066
798.44605
538.78849
362.74539
409.77538
411.23031
365.20454
383.23846
383.72325
514.86363
518.82697
413.70838
399.27794
353.16485
413.37553
404.87246
354.32877
370.74881
371.0947
457.63599
391.16683
336.76693
451.82132
471.8198
395.8821
478.68291
339.23759
557.4999
453.31129
383.4012
565.88234
663.95955
518.3739
387.46606
671.97291
513.5701
507.32326
714.22061
429.98824
530.78748
522.17595
418.93882
425.72705
441.97483
451.88918
432.18301
450.96287
468.92492
451.25337
445.18936
540.82481
533.78511
516.32442
566.03488
1068.9959
655.07996
867.15137
809.84776
632.3115
1499.5947
1236.9731
1305.306
1465.9693
461.27317
550.04123
970.25238
569.47699
962.69203
462.55338
1773.4623
1313.1589
1314.4272
1693.9609
479.91782
556.93756
741.7921
1047.613
579.96
778.04831
1075.3572
494.00075
2343.9281
1244.3457
1153.7076
1950.714
536.30676
788.4253
892.19827
601.83693
987.43965
553.87162
735.35735
820.77609
983.57477
514.98799
1582.003
1454.2859
1373.5622
1201.3004
709.021
750.29947
694.29002
1111.655
662.91234
796.72529
908.03481
866.19358
778.45761
829.53375
521.68711
809.39432
878.40473
484.53645
753.06628
558.40383
658.13543
305.76971
406.47825
780.5607
4173.4682
3448.0377
3171.1504
3229.1445
3231.6652
3220.6431
2680.1736
2861.9428
3017.4682
2875.7957
2880.2968
3106.5145
3801.4028
3295.9853
5147.8864
3272.0373
3140.4875
5498.6865
2049.6156
1840.0574
2056.5689
2146.9157
1877.6216
1691.6582
2564.5689
2451.3049
2098.3252
2239.2646
1947.0682
2114.4296
2123.0137
1858.4238
1773.7551
1879.114
1454.2858
1294.8524
332.61062
341.73537
342.75639
356.6235
355.70814
415.89001
386.27933
366.3259
368.36044
390.42529
396.18503
381.60956
372.29255
391.07612
446.92093
446.47055
440.25423
435.34389
542.96282
484.23436
508.13859
518.80796
446.5547
392.18669
389.6705
415.99361
412.83149
396.77704
392.54179
405.88188
402.58567
489.76652
472.45464
474.21513
464.03646
505.72589
517.75779
509.60987
511.99829
472.0965
417.01856
445.57456
449.60849
420.53499
407.59091
422.27412
426.68177
410.4895
462.76824
468.75873
458.59801
457.06575
530.4315
512.20807
498.66422
518.20626
571.91977
964.67703
728.96528
703.67753
913.86123
523.93365
522.5435
459.94505
461.99577
1051.2225
1065.936
832.9185
668.88741
806.43233
634.11264
487.24531
477.89422
427.6522
432.99861
1352.3927
1459.7552
790.21412
746.26327
622.13694
985.26735
745.60711
585.06307
523.65475
529.58858
503.66733
506.51385
677.00905
718.34952
690.15331
584.07235
588.0352
599.49509
536.24524
514.80315
666.16997
639.17074
572.70623
564.19773
545.70189
536.21017
675.66475
689.25032
595.91706
573.87225
689.34897
637.50427
586.12318
678.03892
481.98377
684.40873
674.85444
1115.9463
760.92006
652.71739
307.92762
463.47664
203.61472
420.64384
772.09566
369.13631
537.19619
357.37182
403.39839
403.4881
359.72025
381.46222
380.5588
521.45831
521.78721
402.45467
351.37865
414.05477
416.13614
398.66053
353.61209
372.20955
373.23986
444.07847
447.01477
386.75018
338.69328
445.74982
395.29495
450.11289
339.42838
571.41512
459.59829
375.46403
574.47651
591.79137
452.96044
382.5685
557.86852
551.05498
442.91897
648.45468
483.5856
817.81466
428.10604
545.35556
541.99498
428.42508
418.27485
437.72335
431.16761
418.08473
458.34903
464.45152
469.757
467.98354
547.12323
531.40693
507.69204
521.79626
1069.4891
542.0169
672.08911
719.01544
568.71639
1436.6928
1169.4919
1425.7027
1221.9579
487.71349
673.71891
1099.8237
611.22337
1012.6531
486.22196
1607.8079
1267.6273
1468.4167
1830.6628
490.17786
538.31457
758.90091
1079.4772
750.35505
580.47379
1069.6294
490.9126
2232.0428
1132.694
1184.8568
1511.3784
543.49824
579.56207
736.38521
897.74473
979.24566
582.77904
745.47683
883.65897
1013.2015
536.16901
3885.7755
1212.1424
736.35784
2411.4835
744.4848
824.41106
846.70773
1053.2264
684.00027
820.51968
798.27817
1029.7414
751.47775
571.52034
464.79005
739.07256
750.76652
1183.5447
800.22675
573.93192
824.08959
891.13586
720.32451
357.57749
4098.5047
3329.3481
3078.176
3106.1309
3218.7978
3059.0645
2890.2468
2977.4116
2994.7584
2951.8551
2721.8359
2887.5931
3019.0827
2663.4962
3098.4911
4657.0445
5245.4225
4374.5762
1948.4034
1609.9191
1811.5648
1483.554
1728.6597
1940.9335
2238.7238
2501.3503
1938.5833
1676.2229
2556.8066
2181.1275
2501.5711
2465.774
1406.7058
2271.5344
3140.5583
2065.374
376.57695
331.90133
299.52535
314.93218
328.08437
327.12213
313.74172
346.15377
363.62631
352.31844
337.59288
320.92589
330.40238
330.2427
320.12358
432.11045
412.9928
429.39312
444.40217
413.69404
382.02971
364.36767
365.47151
383.71952
377.47911
362.93784
366.91773
382.69741
488.96128
498.89328
478.31989
494.72639
530.9793
514.52785
498.06559
527.46415
435.93658
406.81573
386.05978
410.19143
388.77443
384.20226
380.30468
397.17934
393.63793
459.95434
453.86926
459.70442
458.25665
571.644
563.72748
547.19271
564.64443
456.80419
416.44743
441.57543
444.83464
417.90833
393.83669
407.64554
414.38195
400.24282
480.76413
481.59275
482.29176
473.70589
555.10421
547.85901
524.45942
556.96179
458.27262
626.93724
741.99766
877.43806
680.15812
461.00075
513.1878
513.25768
460.26855
1010.2252
722.88842
633.58913
769.32803
614.57682
1040.2639
481.65798
475.43164
428.04138
427.8408
817.52075
986.82889
850.24456
770.79947
564.91584
698.19688
720.12191
566.32491
506.3551
496.48213
484.30461
489.7883
1521.1332
1203.9084
815.68174
698.57136
465.22105
614.27725
1048.4511
808.77648
609.47732
583.69485
577.63668
597.9169
629.089
616.16419
628.55759
402.72158
576.82741
599.04628
319.32342
591.80765
667.50902
637.76179
655.38079
687.011
601.02018
583.32027
671.26609
626.15222
639.76419
697.27373
1080.0249
772.76317
278.43456
255.95931
541.47306
355.36548
402.62797
401.52178
357.3117
378.50944
377.46094
518.17906
515.66068
400.99036
347.24063
408.85223
411.15312
403.79484
350.52061
370.87512
369.25988
391.32086
459.50632
337.93263
454.66123
461.85684
386.23443
457.72172
339.66144
540.33112
518.61212
447.03246
374.73647
529.91539
460.02499
380.4524
533.44924
547.07207
439.02039
535.77342
440.6219
536.5479
597.74977
847.94242
414.60602
535.03124
537.50759
420.62957
420.76497
445.63854
454.80968
429.45202
453.52338
465.89969
470.47065
457.50001
535.0131
542.67944
549.6615
560.60756
1047.02
1457.7091
1167.6001
548.63094
692.51901
665.5851
551.16168
1181.9658
1520.532
438.14936
486.33583
806.19909
534.28888
911.54169
454.33904
1755.9882
1282.3034
1937.1047
1441.9738
493.53362
630.9849
924.61395
1108.8852
814.00612
573.31647
1047.8931
493.24657
1364.9595
846.80009
1174.0293
1754.6037
585.11011
587.43999
720.23675
888.48502
1124.155
759.57498
912.93978
628.11658
1190.5569
589.88982
2688.0714
823.21163
811.73142
1035.3922
715.51513
858.1492
1006.5706
784.76327
710.53815
820.87544
856.09192
938.9085
791.06768
796.48183
1147.3698
787.10318
829.06345
780.45563
629.4115
334.83802
730.97341
678.19288
591.68566
1193.9979
3990.3322
2663.3984
2736.4842
2727.2966
2870.3618
2867.642
2799.9818
2900.355
3090.0594
2866.4898
3130.0737
2846.5506
2778.722
2142.0083
3042.3055
4584.1695
4552.8159
2380.7799
2025.2045
1582.7548
1261.9073
1468.7047
1705.364
1660.2528
703.40992
1305.0717
1344.3143
1692.3819
2220.2468
2449.5581
3677.5029
2092.028
1178.3492
1553.2871
1358.6633
3663.0275
2963.2361
375.92784
330.5927
336.58525
354.43016
355.51669
337.55146
298.86527
314.47987
313.36168
326.81381
327.03395
337.5622
348.06968
350.28627
336.98
280.1854
292.54481
293.4459
304.29326
303.38875
319.2789
331.53353
326.91453
316.61591
439.48526
476.46481
441.12797
405.85168
383.77599
403.6702
394.5556
378.47885
518.06166
489.74833
539.24846
546.48888
410.88943
378.46825
361.5765
381.24896
363.78085
366.19878
355.02176
357.95679
370.69836
448.87052
446.46852
462.72462
462.20266
590.39849
642.44859
572.54356
575.56364
422.66013
388.73693
388.86502
408.40977
406.70335
381.93173
370.56863
388.16958
375.98815
450.21186
458.09802
464.201
473.73877
555.16178
543.01523
566.0648
570.36726
408.91541
411.21105
436.0185
438.58917
415.31564
392.46117
405.40924
407.10175
394.84941
453.43234
457.62437
468.84815
465.23035
611.01757
606.20837
587.45791
589.75856
396.461
546.6864
517.55002
498.05423
511.78961
434.58287
458.90754
463.36887
436.61929
656.86713
574.5658
786.61786
980.04187
770.01061
596.09069
451.81203
478.88853
488.06853
438.15115
798.99253
679.69296
402.96282
570.59419
647.85002
615.45903
559.17313
870.79458
502.20264
497.91163
494.60678
505.53873
618.47795
730.62759
914.70815
887.39953
627.78108
566.14624
671.50544
620.82668
723.09367
562.78664
589.82111
571.99677
639.66433
638.46674
664.31044
880.43595
664.64756
613.94415
791.00824
505.55448
608.0599
596.75863
255.52692
379.72764
581.38748
466.38712
693.33412
664.1614
695.24961
745.07739
794.17971
653.64559
807.67604
1164.5629
543.50144
505.84794
375.55988
352.86116
400.38067
402.15629
355.16595
377.03286
511.31321
393.35085
345.27152
405.8288
418.37256
409.39234
347.93378
369.23178
367.14756
458.96326
393.07176
335.11905
453.19633
453.58319
395.54168
457.9017
337.63268
378.79416
464.7229
539.594
528.21997
534.97939
445.19223
376.16753
530.69483
526.85288
435.89561
551.77233
455.1036
523.58372
534.54977
815.91831
404.77743
545.18209
547.4474
410.29243
401.0563
418.31469
429.38487
409.79014
448.70979
466.8802
471.33095
461.66894
538.67141
556.80734
576.71077
560.79313
882.76719
647.34471
536.26632
1042.4121
1108.1554
1355.1641
1305.2059
683.12185
557.54718
1635.2891
1156.8311
813.98753
433.55304
510.65773
475.34886
795.64225
432.65523
1230.2118
1795.3125
470.53805
511.94737
610.45223
952.08689
677.69889
527.31306
1032.6147
479.01244
2053.2118
1621.3458
2218.684
1713.1849
572.0053
610.33748
852.6454
952.3549
852.49792
760.62155
889.55514
586.06587
739.22254
570.05814
924.5807
443.50819
681.28269
1178.7657
723.76707
865.04756
1009.5601
1014.5242
781.78246
901.02597
1007.9585
1379.4385
817.91472
850.24041
953.75394
766.72302
767.37022
729.12714
757.83417
875.54325
847.40246
949.38649
402.50165
592.56092
3305.2588
969.84362
2422.5496
2450.5586
2033.2315
2137.2542
2331.8124
2432.4754
2651.6372
2625.1716
2422.7568
2515.8617
3009.116
2836.1858
3729.0448
3668.7193
2551.2789
1216.8712
1688.2209
712.20555
699.2478
656.80313
1342.3527
674.83975
1654.0895
1480.5947
694.66338
778.25991
438.84631
906.09286
816.43057
1218.681
1495.9492
2095.0304
2580.4987
2529.2233
4249.3974
3199.4005
609.66126
374.59848
352.05119
334.18716
330.03871
335.93364
354.05054
298.25538
327.33284
326.15775
314.1578
314.20357
336.18465
344.78788
348.32194
339.32531
280.07102
304.17765
293.63721
292.39396
303.16756
319.62073
316.90321
326.72246
327.8784
406.10216
429.86704
444.28306
414.04951
275.41699
284.05125
283.3177
274.46723
295.14773
297.19743
307.76166
305.49649
386.64206
409.45689
391.22136
375.8939
548.76606
628.33641
531.91673
463.86126
431.21377
453.94764
447.65033
428.93533
403.98687
364.38309
363.68555
381.06653
380.85045
358.55117
347.45532
363.10365
351.73975
432.35248
410.08291
424.0216
435.5317
527.74654
550.1873
577.66774
556.39841
389.02142
389.95791
387.98989
406.0734
402.05117
373.32619
374.698
384.57026
382.68542
457.81562
455.38354
464.96451
456.28046
553.31759
573.54472
587.57866
607.21619
370.83117
407.33462
424.91727
420.64625
400.43726
397.00765
424.87016
410.12913
394.24485
452.25014
457.04668
467.50603
462.82006
593.16541
593.92942
601.51787
598.93048
358.47313
436.85368
458.77143
452.25727
423.95418
396.04672
380.62719
423.87525
407.07236
632.07045
592.53444
530.00899
502.49397
587.53276
506.43017
427.75495
454.9112
467.58292
443.29777
625.13604
506.41273
544.81476
664.03236
944.4111
772.54017
674.26615
552.4279
500.64519
500.20599
496.28493
481.89428
417.44864
500.21424
620.31701
218.61243
560.61871
422.93705
389.79783
574.87069
553.06416
464.19384
574.10445
570.42969
625.02207
652.86857
860.12322
609.88469
602.00234
587.54255
752.35238
617.15598
595.15938
566.20167
1234.9255
691.38702
659.04635
399.73517
534.24728
614.8596
207.07739
436.36609
753.40352
666.19725
911.4451
768.74605
531.60789
348.67995
396.48311
398.82252
351.1422
509.78029
374.27197
374.79333
508.54772
345.23733
365.58965
384.33294
391.90573
399.10922
389.51952
346.85035
368.13498
447.93285
382.18419
333.48515
445.16243
468.29894
399.90221
480.7974
335.74124
358.7907
357.53693
549.1342
471.16956
380.52956
540.86266
547.82795
381.99261
475.33556
552.27327
459.76394
549.7663
520.24753
433.39464
518.60606
532.75414
403.59187
704.84601
522.2638
535.2397
411.03112
389.58568
410.94804
414.86501
396.19941
436.37348
446.75058
455.35657
442.51382
533.52564
562.31653
540.27082
533.46619
503.8959
479.99567
523.57777
556.71665
585.88151
1140.9773
869.50203
993.38034
808.05808
482.93159
725.64884
432.36388
1120.2177
1217.671
780.03096
1489.161
1269.4206
488.61277
436.97494
1671.7443
1009.9347
845.33722
632.06858
467.17235
508.04204
595.0146
508.60977
857.08334
474.07522
1640.7452
2018.8149
587.70709
601.83787
619.33189
757.99249
925.44562
655.24562
784.74206
576.43572
1170.3283
586.38455
2414.4531
1724.8288
2626.0235
2962.5806
807.12529
968.65121
740.56015
543.74206
741.51097
870.7286
663.68665
452.39302
860.79624
958.44569
1484.3658
911.49959
1096.5752
735.98217
798.79027
829.75272
737.01832
1046.4344
848.47662