/*--------------------------------*- C++ -*----------------------------------*\
  =========                 |
  \\      /  F ield         | OpenFOAM: The Open Source CFD Toolbox
   \\    /   O peration     | Website:  https://openfoam.org
    \\  /    A nd           | Version:  7
     \\/     M anipulation  |
\*---------------------------------------------------------------------------*/
FoamFile
{
    version     2.0;
    format      ascii;
    class       volScalarField;
    location    "5000";
    object      pMean;
}
// * * * * * * * * * * * * * * * * * * * * * * * * * * * * * * * * * * * * * //

dimensions      [0 2 -2 0 0 0 0];

internalField   nonuniform List<scalar> 
33730
(
-5.4457839e+58
-5.728559e+58
-4.9825198e+58
-5.7544274e+58
-4.7870404e+58
-4.4779217e+58
-4.8067713e+58
-5.4544731e+58
-5.344959e+58
-5.1837125e+58
-5.3156334e+58
-5.7226229e+58
-5.6236933e+58
-4.9738189e+58
-3.8104427e+58
-5.746997e+58
-4.9896701e+58
-5.8430769e+58
-4.3191416e+58
-5.0014588e+58
-4.9824254e+58
-4.9977487e+58
-5.1456948e+58
-5.0879903e+58
-5.5611994e+58
-5.4796493e+58
-5.3682313e+58
-5.9212482e+58
-5.3751699e+58
-4.9840311e+58
-5.5843561e+58
-5.5836101e+58
-5.3672335e+58
-3.8931758e+58
-5.1070053e+58
-4.404588e+58
-5.0976079e+58
-6.0425817e+58
-5.559078e+58
-5.2653198e+58
-5.1756361e+58
-5.3976466e+58
-5.605233e+58
-5.4961755e+58
-4.9153133e+58
-4.6541035e+58
-4.7202898e+58
-5.0770282e+58
-5.612722e+58
-4.6995764e+58
-5.0103781e+58
-3.2550309e+58
-8.0401106e+58
-5.1739822e+58
-5.0441631e+58
-4.3264988e+58
-4.8085816e+58
-5.5307329e+58
-5.6320426e+58
-4.8106822e+58
-5.0056753e+58
-5.0214775e+58
-5.0206478e+58
-5.171636e+58
-5.1630294e+58
-4.9628832e+58
-4.9768722e+58
-5.1104283e+58
-5.0821665e+58
-5.5205364e+58
-5.7178607e+58
-5.3450754e+58
-5.3213609e+58
-6.1745426e+58
-6.3421523e+58
-6.1349959e+58
-5.8169975e+58
-5.7678447e+58
-6.7279283e+58
-5.3161436e+58
-7.418882e+58
-5.5770194e+58
-5.7443034e+58
-5.525527e+58
-5.1188776e+58
-5.496647e+58
-5.4415041e+58
-5.2728312e+58
-3.7270738e+58
-1.2056325e+59
-8.7526858e+58
-5.2233374e+58
-5.3409182e+58
-6.5094773e+58
-1.2129451e+59
-5.470795e+58
-5.256019e+58
-5.1555986e+58
-5.3203126e+58
-5.5409708e+58
-4.9964653e+58
-5.6370837e+58
-5.1184217e+58
-5.4181696e+58
-5.4440343e+58
-5.1245874e+58
-5.5057632e+58
-5.1480355e+58
-5.2509247e+58
-4.1291432e+58
-4.9838915e+58
-3.377165e+58
-4.9044313e+58
-4.4362601e+58
-5.5988027e+58
-3.9309616e+58
-4.3679423e+58
-4.1550806e+58
-5.6706488e+58
-5.1662316e+58
-4.9884222e+58
-2.1844634e+59
-5.333729e+58
-1.5685455e+59
-3.6796096e+58
-6.5349055e+58
-6.009285e+58
-4.9145707e+58
-7.8157935e+58
-4.9387437e+58
-5.4660509e+58
-5.8845202e+58
-7.0921954e+58
-2.1032412e+59
-4.8638534e+58
-4.9651343e+58
-5.0915528e+58
-5.1384766e+58
-5.0076486e+58
-4.9967216e+58
-4.9936329e+58
-5.1276313e+58
-5.1380261e+58
-4.9663883e+58
-4.9785313e+58
-5.1102965e+58
-5.0756888e+58
-5.1455923e+58
-6.3151309e+58
-3.4781498e+58
-5.2131128e+58
-5.1405752e+58
-5.5584364e+58
-5.5996444e+58
-5.6504665e+58
-5.5196667e+58
-7.6182075e+58
-5.2800626e+58
-5.3002832e+58
-6.2823831e+58
-6.3934147e+58
-6.979714e+58
-6.5523506e+58
-7.0052246e+58
-5.5955582e+58
-5.5843109e+58
-1.2042223e+59
-5.2935167e+58
-6.0429553e+58
-1.2775637e+59
-5.5051901e+58
-6.109525e+58
-2.7776374e+59
-5.3955151e+58
-1.1269822e+59
-5.4884128e+58
-5.3804552e+58
-5.2553547e+58
-3.0234443e+58
-1.1990323e+59
-8.7112156e+58
-1.1335155e+59
-4.5819062e+58
-5.7447272e+58
-1.1230297e+59
-6.2609573e+58
-1.1218102e+59
-6.0233048e+58
-5.25609e+58
-5.1548423e+58
-5.3177774e+58
-5.5385364e+58
-1.2390555e+59
-5.0278006e+58
-5.0149615e+58
-4.9549824e+58
-4.9849056e+58
-4.9824179e+58
-5.4783397e+58
-5.2627154e+58
-5.7242525e+58
-5.6716505e+58
-5.2528633e+58
-5.7196923e+58
-4.756413e+58
-5.3172557e+58
-4.8477822e+58
-5.0896237e+58
-5.411004e+58
-5.4510712e+58
-5.4648286e+58
-5.0715786e+58
-5.1107734e+58
-6.0195366e+58
-3.1794324e+58
-6.2434569e+58
-2.1518409e+58
-4.9488933e+58
-8.8912124e+58
-4.787957e+58
-8.7995497e+58
-3.9172708e+58
-1.382304e+59
-4.5819736e+58
-4.9554273e+58
-3.9477833e+58
-3.936757e+58
-5.6376173e+58
-4.3907878e+58
-5.0471982e+58
-1.0670139e+59
-4.8495285e+58
-2.2691771e+59
-8.6493786e+58
-1.1830517e+59
-2.7448037e+59
-5.6731984e+58
-4.8828939e+58
-1.2830448e+59
-4.2284451e+58
-1.5176053e+59
-5.4435389e+58
-5.6034837e+58
-3.7990193e+58
-4.8948778e+58
-5.9063131e+58
-6.2828968e+58
-8.1717077e+58
-1.9669573e+59
-4.6912812e+58
-4.7538906e+58
-4.8695374e+58
-4.9417051e+58
-5.0261282e+58
-4.9221623e+58
-4.9542131e+58
-5.0886708e+58
-5.1213005e+58
-4.9823742e+58
-4.9997564e+58
-4.9980853e+58
-5.1266247e+58
-5.1319375e+58
-4.9669554e+58
-4.9789866e+58
-5.11086e+58
-5.0756463e+58
-5.2252844e+58
-3.6802548e+58
-4.1114323e+58
-4.4055115e+58
-5.0046336e+58
-5.0848945e+58
-4.985461e+58
-5.2106368e+58
-5.2666843e+58
-8.1815376e+58
-2.726701e+58
-5.2018969e+58
-5.1763746e+58
-5.6672634e+58
-5.8185984e+58
-5.5369446e+58
-5.7746809e+58
-6.6367113e+58
-6.3058188e+58
-1.1486864e+59
-5.2714789e+58
-5.2823396e+58
-7.279587e+58
-8.4669172e+58
-5.9601767e+58
-7.7239775e+58
-8.3543722e+58
-9.1203754e+58
-5.9187751e+58
-5.5315337e+58
-5.5503907e+58
-1.0121745e+59
-5.292625e+58
-9.35044e+58
-6.7629481e+58
-1.0916515e+59
-6.2159897e+58
-5.5931989e+58
-1.1055906e+59
-2.8267519e+59
-5.9396325e+58
-9.9634355e+58
-5.4899702e+58
-5.3775429e+58
-5.2548785e+58
-1.154854e+59
-7.1894729e+58
-4.9984708e+58
-5.7850196e+58
-9.4397072e+58
-1.3529453e+59
-6.4670169e+58
-6.0732216e+58
-1.2228039e+59
-1.2982153e+59
-5.492559e+58
-4.821397e+58
-4.9503881e+58
-4.9793463e+58
-5.0558484e+58
-5.0578892e+58
-4.9774234e+58
-4.9850883e+58
-4.9312944e+58
-4.9742795e+58
-4.9435152e+58
-5.5160778e+58
-5.2010779e+58
-5.4627667e+58
-5.3442e+58
-5.1993621e+58
-5.0223711e+58
-5.0608865e+58
-5.1885894e+58
-4.8472329e+58
-5.1902633e+58
-5.6097229e+58
-5.9569013e+58
-5.7334588e+58
-5.2831013e+58
-5.2547771e+58
-5.9041413e+58
-3.9521044e+58
-4.8698124e+58
-4.47473e+58
-5.0796426e+58
-5.2585898e+58
-5.3478203e+58
-5.0756429e+58
-5.3498713e+58
-5.2986471e+58
-4.0982253e+58
-5.0899612e+58
-1.0419725e+59
-5.6070036e+58
-1.1469083e+59
-1.0078438e+59
-4.8464823e+58
-8.8729884e+58
-1.048482e+59
-8.6723514e+58
-1.8342976e+59
-1.2033996e+59
-8.5544384e+58
-7.5804041e+58
-6.2274106e+58
-9.9779928e+58
-5.2810252e+58
-3.7052584e+58
-4.0023387e+58
-5.1641798e+58
-4.113514e+58
-4.6359645e+58
-4.3143058e+58
-1.0228045e+59
-4.7584287e+58
-7.1572509e+58
-2.7832557e+59
-1.0447234e+59
-1.1414261e+59
-1.5456747e+59
-1.1781569e+59
-5.3997106e+58
-3.57062e+58
-3.7772275e+58
-2.5807758e+58
-4.2197063e+58
-5.0985751e+58
-4.262536e+58
-5.0238499e+58
-4.5150846e+58
-1.3102839e+59
-1.5895145e+59
-4.6632687e+58
-4.7126746e+58
-4.7177106e+58
-4.7847911e+58
-4.7561822e+58
-4.7661856e+58
-4.8097543e+58
-4.8735209e+58
-4.9161254e+58
-4.8339225e+58
-4.8383194e+58
-4.9498682e+58
-5.0233099e+58
-4.9005274e+58
-4.9577975e+58
-5.0872342e+58
-5.1179366e+58
-4.9871404e+58
-5.0002978e+58
-4.9987727e+58
-5.1271176e+58
-5.1321605e+58
-5.5546131e+58
-4.6552147e+58
-3.8212268e+58
-4.9799008e+58
-4.9831272e+58
-4.4023811e+58
-4.5829873e+58
-5.1518773e+58
-5.4190402e+58
-3.3977001e+58
-3.7787992e+58
-4.1257571e+58
-4.3299566e+58
-7.155321e+58
-5.0794152e+58
-5.0171226e+58
-4.9089145e+58
-5.0612257e+58
-5.2345813e+58
-1.5558125e+59
-6.2374381e+59
-5.1682674e+58
-5.1947654e+58
-6.0390603e+58
-5.6127029e+58
-6.5937262e+58
-5.96017e+58
-5.4916358e+58
-5.6664337e+58
-1.1175398e+59
-2.1574551e+59
-7.891686e+58
-5.2718799e+58
-5.2817678e+58
-1.5569239e+59
-5.8836135e+58
-7.4302079e+58
-6.2413866e+58
-6.1397399e+58
-6.9134068e+58
-1.7177296e+59
-5.7550432e+58
-6.0633954e+58
-5.5307449e+58
-5.550001e+58
-8.9432577e+58
-1.4798759e+59
-7.6657816e+58
-6.2759472e+58
-6.0454151e+58
-8.2035871e+58
-1.0585373e+59
-5.9865934e+58
-7.0181591e+58
-1.2690226e+59
-5.1084907e+58
-1.2471948e+59
-7.1545402e+58
-6.5281221e+58
-6.6441216e+58
-6.2679575e+58
-7.7728636e+58
-4.7886494e+58
-4.8041249e+58
-4.7057265e+58
-4.8229671e+58
-4.687929e+58
-4.912293e+58
-4.9142057e+58
-5.0019697e+58
-5.0516515e+58
-4.9618942e+58
-4.9380181e+58
-5.0247702e+58
-5.0089607e+58
-4.909109e+58
-4.9811932e+58
-4.9251496e+58
-4.9622815e+58
-4.9360857e+58
-5.2693654e+58
-5.1519397e+58
-5.628394e+58
-5.4889807e+58
-5.1923974e+58
-4.327393e+58
-5.4487053e+58
-5.3736901e+58
-5.7465335e+58
-5.184153e+58
-5.5697284e+58
-5.5773507e+58
-5.2835425e+58
-5.1864473e+58
-5.1244311e+58
-5.7146003e+58
-4.7096828e+58
-6.1058809e+58
-3.6668822e+58
-5.1687891e+58
-6.1219709e+58
-5.5062435e+58
-5.9511529e+58
-5.6622005e+58
-5.709881e+58
-4.6241918e+58
-5.235859e+58
-1.1488382e+59
-8.8769557e+58
-1.2757019e+59
-8.1469122e+58
-5.0802369e+58
-6.1752624e+58
-5.8043789e+58
-5.34753e+58
-7.5853158e+58
-5.3479434e+58
-5.3750477e+58
-4.3112882e+58
-6.9946169e+58
-5.0904543e+58
-7.6674391e+58
-4.4682231e+58
-7.7235869e+58
-1.0411665e+59
-4.6627763e+58
-9.7888191e+58
-1.8515707e+59
-1.501369e+59
-6.7196176e+58
-1.839255e+59
-9.817502e+58
-5.0518646e+58
-4.4796674e+58
-3.9298081e+58
-4.345684e+58
-4.8603849e+58
-3.8869949e+58
-6.6854063e+58
-7.9306305e+58
-6.1662845e+58
-1.0946965e+59
-5.3290893e+58
-4.7144828e+58
-1.0104859e+59
-1.5560784e+59
-5.5709248e+58
-4.1171003e+58
-4.1223838e+58
-3.7118288e+58
-5.0544398e+58
-4.4038027e+58
-3.9663853e+58
-3.8585408e+58
-3.5499199e+58
-6.0665595e+58
-7.0683236e+58
-1.0718005e+59
-4.1148669e+58
-1.2144665e+59
-1.1952105e+59
-4.626492e+58
-4.6718485e+58
-4.6977863e+58
-4.6934678e+58
-4.7310002e+58
-4.7199271e+58
-4.7162071e+58
-4.7166209e+58
-4.7928703e+58
-4.7679578e+58
-4.8998253e+58
-4.8299777e+58
-4.8835131e+58
-4.8740663e+58
-4.829458e+58
-4.7903721e+58
-4.8512609e+58
-4.8916159e+58
-4.8139462e+58
-4.8503696e+58
-4.969109e+58
-5.012597e+58
-4.9057624e+58
-4.9581581e+58
-5.0877004e+58
-5.1181334e+58
-4.9876598e+58
-5.3757195e+58
-5.7513626e+58
-5.0877359e+58
-5.165893e+58
-5.1195549e+58
-5.0053066e+58
-4.8703741e+58
-5.2622736e+58
-5.4011724e+58
-4.7192534e+58
-5.0776734e+58
-4.7980629e+58
-4.8931799e+58
-4.9027696e+58
-5.9722916e+58
-4.5584927e+58
-4.6529901e+58
-5.0361245e+58
-5.2660489e+58
-1.4793275e+59
-1.4977753e+59
-3.8882193e+58
-1.538768e+59
-5.3623955e+58
-1.1581379e+59
-5.8546595e+58
-5.2956556e+58
-5.0243242e+58
-4.9052986e+58
-5.0752973e+58
-5.2519466e+58
-1.1947967e+59
-6.9000514e+59
-5.1674443e+58
-5.1974457e+58
-7.2094389e+58
-6.3979279e+58
-5.6112107e+58
-1.3961938e+59
-5.6930336e+58
-6.5310661e+58
-5.4923458e+58
-9.6430367e+58
-9.0703332e+58
-1.9610763e+59
-1.3058678e+59
-7.6387538e+58
-6.9602753e+58
-6.2769497e+58
-1.1926172e+59
-1.1799546e+59
-6.7597543e+58
-6.0844298e+58
-1.4590117e+59
-1.7150128e+59
-7.7708909e+58
-6.1126432e+58
-7.4065327e+58
-8.2098097e+58
-8.1638832e+58
-7.0495037e+58
-1.7442057e+59
-4.7543439e+58
-4.6706686e+58
-4.7678669e+58
-4.8005927e+58
-4.6877575e+58
-4.6984414e+58
-4.7023572e+58
-4.7176252e+58
-4.7143663e+58
-4.8111785e+58
-4.7248362e+58
-4.8182007e+58
-4.7273804e+58
-4.7743277e+58
-4.7942544e+58
-4.887346e+58
-4.9305997e+58
-4.832123e+58
-4.8593572e+58
-4.9671942e+58
-4.9856951e+58
-4.9185084e+58
-4.9336919e+58
-5.0258385e+58
-5.0052793e+58
-4.9066287e+58
-4.9812065e+58
-4.9248117e+58
-4.9616259e+58
-4.9357315e+58
-5.0024702e+58
-5.1913128e+58
-5.6541053e+58
-5.7686814e+58
-5.193751e+58
-5.2829464e+58
-3.9295569e+58
-4.5035247e+58
-4.0633138e+58
-5.0794683e+58
-5.6445073e+58
-5.6942662e+58
-5.5608758e+58
-5.7558939e+58
-5.111913e+58
-5.7121759e+58
-5.921408e+58
-7.8573478e+58
-6.5103418e+58
-5.161992e+58
-6.5684485e+58
-5.4869237e+58
-5.756414e+58
-5.2070594e+58
-5.5507387e+58
-4.7026698e+58
-5.1041111e+58
-1.2530936e+59
-1.296169e+59
-1.4244267e+59
-9.8357981e+58
-5.1682826e+58
-6.8611575e+58
-5.785786e+58
-5.5040928e+58
-1.0898472e+59
-5.6595206e+58
-6.479306e+58
-5.5901369e+58
-1.2455347e+59
-5.2369445e+58
-9.8756649e+58
-8.7543161e+58
-1.234374e+59
-7.368532e+58
-6.2258024e+58
-6.8398597e+58
-2.860583e+59
-5.9626718e+58
-5.3907869e+58
-5.057642e+58
-1.025346e+59
-6.6678697e+58
-4.5845602e+58
-9.8057264e+58
-1.563836e+59
-5.3088399e+58
-3.617023e+58
-3.6795305e+58
-4.3068944e+58
-3.7673212e+58
-4.8366937e+58
-3.6202626e+58
-3.9582961e+58
-1.0120897e+59
-2.3446469e+59
-1.8575604e+59
-1.5710424e+59
-1.225801e+59
-8.8918394e+58
-4.3481242e+58
-4.8403794e+58
-5.4680259e+58
-4.0625155e+58
-4.295983e+58
-5.030124e+58
-4.5766099e+58
-3.6489753e+58
-2.8315589e+58
-2.8889748e+58
-6.8748185e+58
-1.5520181e+59
-1.2483967e+59
-3.426725e+59
-9.9207704e+58
-4.8935944e+58
-4.9186917e+58
-9.45232e+58
-3.5944471e+58
-4.6363005e+58
-4.6134597e+58
-4.5883669e+58
-4.6331692e+58
-4.5997056e+58
-4.7074608e+58
-4.6821756e+58
-4.6848066e+58
-4.7340497e+58
-4.7221709e+58
-4.702557e+58
-4.6866422e+58
-4.7474775e+58
-4.7355814e+58
-4.7204805e+58
-4.7254741e+58
-4.8036274e+58
-4.7775457e+58
-4.9217662e+58
-4.8856156e+58
-4.9679787e+58
-4.9278813e+58
-4.8699919e+58
-4.7849813e+58
-4.8327232e+58
-4.8382476e+58
-4.7956631e+58
-4.7941679e+58
-4.8486955e+58
-4.8987097e+58
-4.8205845e+58
-4.8516051e+58
-4.971005e+58
-5.0125401e+58
-4.9062383e+58
-5.4252892e+58
-4.6778673e+58
-4.8170642e+58
-5.1900242e+58
-5.1943719e+58
-5.4637565e+58
-5.3990117e+58
-5.6042668e+58
-5.0594101e+58
-9.5456303e+58
-5.0231554e+58
-5.0908901e+58
-5.0097477e+58
-5.3858338e+58
-4.0688175e+58
-5.0935702e+58
-4.2626722e+58
-5.3990512e+58
-5.3352119e+58
-6.6913745e+58
-9.4118493e+58
-5.3924409e+58
-1.2451777e+59
-4.8940707e+58
-4.8881361e+58
-1.708746e+59
-1.1721934e+59
-4.1175105e+58
-4.7301391e+58
-5.0103011e+58
-5.2669942e+58
-1.441341e+59
-1.5204353e+59
-2.9659615e+59
-5.9525731e+58
-1.6055968e+59
-6.9490892e+58
-9.6755194e+58
-9.2970418e+58
-5.5283689e+58
-5.8603157e+58
-5.0264461e+58
-4.9061826e+58
-5.080034e+58
-5.2577384e+58
-1.7927626e+59
-8.945931e+58
-6.4268966e+58
-1.2671546e+59
-1.4376864e+59
-8.8801281e+58
-6.5764182e+58
-9.1153509e+58
-5.9125068e+58
-5.4794581e+58
-7.113682e+58
-1.1851228e+59
-9.9916928e+58
-6.857932e+58
-1.8287734e+59
-1.6415609e+59
-9.3457606e+58
-4.7310741e+58
-4.6646424e+58
-4.7076507e+58
-4.7273384e+58
-4.6605459e+58
-4.698354e+58
-4.6962122e+58
-4.7147434e+58
-4.7115605e+58
-4.6967396e+58
-4.6301319e+58
-4.7699537e+58
-4.8051742e+58
-4.7099075e+58
-4.6354879e+58
-4.8109263e+58
-4.7293636e+58
-4.8212725e+58
-4.7288015e+58
-4.7443894e+58
-4.9173798e+58
-4.8837069e+58
-4.9715534e+58
-4.8117648e+58
-4.8031787e+58
-4.8762772e+58
-4.8905788e+58
-4.7693766e+58
-4.8643268e+58
-4.9742245e+58
-4.9923788e+58
-4.9151696e+58
-4.9335499e+58
-5.0261028e+58
-5.0053745e+58
-4.9065517e+58
-5.1574398e+58
-5.0110251e+58
-5.3648817e+58
-5.5508764e+58
-5.0823732e+58
-4.5165408e+58
-3.7962302e+58
-4.2902801e+58
-3.8930761e+58
-5.1281736e+58
-5.4198678e+58
-5.7749296e+58
-5.7682165e+58
-6.0112152e+58
-5.1769187e+58
-5.5068228e+58
-5.0419183e+58
-4.1085978e+58
-6.468734e+58
-5.0913427e+58
-5.5948077e+58
-6.2174262e+58
-6.1348642e+58
-5.5547416e+58
-6.1562061e+58
-5.7784894e+58
-5.1025031e+58
-1.7451761e+59
-8.3051338e+58
-1.3305248e+59
-1.2807478e+59
-5.1612313e+58
-6.5556545e+58
-8.0126325e+58
-5.4845426e+58
-8.2925712e+58
-5.2036977e+58
-5.8684385e+58
-5.4088409e+58
-8.538132e+58
-5.1031972e+58
-1.2057129e+59
-1.3408151e+59
-1.2538141e+59
-1.0105392e+59
-6.920304e+58
-7.1161347e+58
-8.9747476e+58
-9.8399885e+58
-6.5353826e+58
-5.2836684e+58
-1.4588092e+59
-1.2056514e+59
-6.8699352e+58
-7.9075733e+58
-2.9102933e+59
-5.1169447e+58
-1.2290716e+59
-1.0046586e+59
-4.7431687e+58
-5.6525034e+58
-3.8982059e+58
-3.7855529e+58
-3.8908028e+58
-4.5249324e+58
-3.3851332e+58
-4.2792318e+58
-4.324896e+58
-4.5067674e+58
-8.360406e+58
-8.8523025e+58
-8.9990462e+58
-2.8248478e+59
-2.468157e+59
-1.720007e+59
-1.2652071e+59
-9.2579175e+58
-4.8618902e+58
-5.4999928e+58
-5.6010468e+58
-5.4771326e+58
-4.6023231e+58
-5.0074762e+58
-4.0475648e+58
-5.1947137e+58
-7.7550117e+58
-4.260986e+58
-1.1096735e+59
-9.2503687e+58
-2.7465984e+59
-1.3100132e+59
-1.4613144e+59
-1.1636862e+59
-3.5977389e+59
-9.6895556e+58
-4.6470957e+58
-4.5921122e+58
-4.5855377e+58
-4.599548e+58
-4.6113078e+58
-4.6134911e+58
-4.5645571e+58
-4.6388387e+58
-4.5756043e+58
-4.7179538e+58
-4.7028086e+58
-4.6664279e+58
-4.7458567e+58
-4.7309024e+58
-4.6687033e+58
-4.6667022e+58
-4.7333579e+58
-4.7301976e+58
-4.7059409e+58
-4.6901889e+58
-4.7531514e+58
-4.744404e+58
-4.7208946e+58
-4.7261727e+58
-4.8043634e+58
-4.7783914e+58
-4.8706779e+58
-4.8899816e+58
-4.9621449e+58
-4.9963133e+58
-4.9114482e+58
-4.8365887e+58
-4.947212e+58
-4.8783668e+58
-4.7955091e+58
-4.7931251e+58
-4.8342873e+58
-4.8385011e+58
-4.8000508e+58
-4.7944718e+58
-4.8488874e+58
-4.8997602e+58
-4.820742e+58
-5.3276277e+58
-4.5996427e+58
-4.7416107e+58
-4.4689202e+58
-3.852505e+58
-5.1827289e+58
-5.2680378e+58
-5.4192638e+58
-5.2004823e+58
-4.3262216e+58
-5.3722008e+58
-5.1615066e+58
-5.1438338e+58
-5.4331607e+58
-5.5339318e+58
-5.4640357e+58
-5.0578954e+58
-6.3924627e+58
-4.3026966e+58
-2.4159144e+59
-5.0320995e+58
-5.1138471e+58
-7.3969452e+58
-6.5921012e+58
-5.2766207e+58
-5.3254455e+58
-6.0621245e+58
-5.9581061e+58
-7.779135e+58
-5.4145196e+58
-5.3367362e+58
-1.4607895e+59
-5.7336374e+58
-8.9765741e+58
-5.8294327e+58
-1.0768286e+59
-4.895816e+58
-4.8875787e+58
-1.5367485e+59
-1.1376902e+59
-1.2246534e+59
-3.7925266e+58
-4.9119224e+58
-5.0097082e+58
-5.2698889e+58
-3.1327942e+59
-2.501902e+59
-8.8434425e+58
-7.0576208e+58
-8.0831935e+58
-9.267465e+58
-6.567126e+58
-5.9008906e+58
-1.8015111e+59
-6.8361673e+58
-9.0777614e+58
-1.4765806e+59
-8.5188422e+58
-9.131171e+58
-4.3942242e+58
-4.8827923e+58
-9.6962293e+58
-9.7503733e+58
-3.7759401e+58
-4.7484321e+58
-4.6748946e+58
-4.7763332e+58
-4.7250595e+58
-4.6617035e+58
-4.7006165e+58
-4.7032511e+58
-4.7180906e+58
-4.7189679e+58
-4.674447e+58
-4.6257468e+58
-4.7225789e+58
-4.7161392e+58
-4.6816212e+58
-4.625557e+58
-4.6495234e+58
-4.6484816e+58
-4.6983942e+58
-4.6338655e+58
-4.7737186e+58
-4.8065357e+58
-4.7129311e+58
-4.6352437e+58
-4.8110052e+58
-4.7296432e+58
-4.8216274e+58
-4.7287865e+58
-4.8116663e+58
-4.8941922e+58
-4.9216617e+58
-4.9598954e+58
-4.9210576e+58
-4.9524634e+58
-4.877245e+58
-4.9637889e+58
-4.8424603e+58
-4.7983765e+58
-4.8860812e+58
-4.9004786e+58
-4.7836765e+58
-4.864465e+58
-4.9750127e+58
-4.9929043e+58
-4.9149386e+58
-5.4806131e+58
-5.066032e+58
-5.3056548e+58
-5.2598614e+58
-5.0215328e+58
-4.5279426e+58
-4.6487101e+58
-3.539226e+58
-3.9333532e+58
-5.0528195e+58
-5.3706297e+58
-5.1697813e+58
-5.4084117e+58
-5.9047147e+58
-5.0761645e+58
-4.2098334e+58
-4.551514e+58
-5.7360826e+58
-3.2596773e+58
-5.1050904e+58
-5.5628656e+58
-5.3381892e+58
-5.641276e+58
-5.724244e+58
-6.4201486e+58
-6.3160529e+58
-5.1755203e+58
-1.7412993e+59
-2.2915382e+59
-9.8939835e+58
-2.7872994e+59
-5.0938462e+58
-5.5945756e+58
-6.3620772e+58
-6.7096396e+58
-1.446621e+59
-5.5585075e+58
-7.1072053e+58
-6.8750707e+58
-9.7269521e+58
-5.1034155e+58
-1.7298231e+59
-7.8317167e+58
-9.568576e+58
-1.2583073e+59
-6.5421336e+58
-7.1212853e+58
-1.2010693e+59
-7.8882378e+58
-5.8956037e+58
-7.0930562e+58
-1.0480933e+59
-8.7427684e+58
-7.315241e+58
-2.0548812e+59
-8.9878912e+58
-5.3126851e+58
-9.6173384e+58
-1.3791701e+59
-6.660441e+58
-5.9273325e+58
-1.1474005e+59
-1.1892936e+59
-4.8551234e+58
-5.7791137e+58
-4.3481796e+58
-3.3318418e+58
-3.9625569e+58
-4.9817836e+58
-4.9855352e+58
-3.9051499e+58
-3.9739007e+58
-5.7916076e+58
-1.8836618e+59
-1.1499404e+59
-7.7121675e+58
-1.1731272e+59
-7.5383429e+58
-9.0076476e+58
-9.3917874e+58
-2.2834741e+59
-4.80938e+58
-5.5477493e+58
-4.7276362e+58
-4.7829075e+58
-5.6992072e+58
-4.913723e+58
-6.2326502e+58
-7.1912558e+58
-5.3650399e+58
-5.2896733e+58
-2.6013514e+59
-6.033437e+58
-1.6259263e+59
-1.5760232e+59
-1.0223759e+59
-9.1713432e+58
-2.8787959e+59
-1.0295548e+59
-4.6141603e+58
-4.6231139e+58
-4.6102499e+58
-4.5708884e+58
-4.5804296e+58
-4.5637855e+58
-4.6047427e+58
-4.6119253e+58
-4.6176983e+58
-4.5671921e+58
-4.6431088e+58
-4.5793398e+58
-4.7322156e+58
-4.6536433e+58
-4.7172178e+58
-4.7367088e+58
-4.76708e+58
-4.6901696e+58
-4.6739202e+58
-4.7361706e+58
-4.7373486e+58
-4.676896e+58
-4.6737316e+58
-4.7425099e+58
-4.7386219e+58
-4.7062701e+58
-4.6904875e+58
-4.7533304e+58
-4.7449764e+58
-4.8381847e+58
-4.8865246e+58
-4.9507127e+58
-4.9387277e+58
-4.855563e+58
-4.8649402e+58
-4.9570453e+58
-4.9626612e+58
-4.8673773e+58
-4.8515614e+58
-4.9632296e+58
-4.8812912e+58
-4.8154433e+58
-4.7936721e+58
-4.8346798e+58
-4.8388222e+58
-4.80027e+58
-5.2806442e+58
-4.8712624e+58
-4.9770643e+58
-4.7081121e+58
-5.3849047e+58
-5.3834615e+58
-5.4391701e+58
-5.084774e+58
-5.1286323e+58
-4.0710704e+58
-4.1650474e+58
-4.0608431e+58
-5.3455254e+58
-3.7875211e+58
-4.1411787e+58
-5.1080728e+58
-5.2333153e+58
-5.2400027e+58
-5.0995935e+58
-1.1500294e+59
-1.4049932e+59
-5.142485e+58
-5.1480589e+58
-5.2961235e+58
-5.4651272e+58
-5.7783204e+58
-5.1551003e+58
-5.4284078e+58
-6.0455174e+58
-1.3263022e+59
-5.7651512e+58
-1.6830169e+59
-5.0333895e+58
-5.1166403e+58
-6.4775732e+58
-1.0737506e+59
-4.9686856e+58
-6.1436415e+58
-7.849432e+58
-7.504732e+58
-5.4889933e+58
-6.3990643e+58
-7.3376642e+58
-5.4197419e+58
-5.3402269e+58
-1.195244e+59
-1.5244003e+59
-6.0123271e+58
-5.8438297e+58
-1.2378531e+59
-4.8123321e+58
-4.4364445e+58
-4.9259692e+58
-2.5840451e+59
-8.4447075e+58
-8.9797265e+58
-9.2209237e+58
-1.4004312e+59
-6.6974735e+58
-5.1788209e+58
-5.8770959e+58
-7.2473645e+58
-7.7860518e+58
-6.2366214e+58
-4.8044005e+58
-4.7924542e+58
-4.6846263e+58
-4.7751635e+58
-4.6752336e+58
-4.7156513e+58
-4.7271653e+58
-4.7384439e+58
-4.7291033e+58
-4.6828281e+58
-4.6345863e+58
-4.7674642e+58
-4.7546936e+58
-4.6889259e+58
-4.6306691e+58
-4.6532526e+58
-4.6531737e+58
-4.676792e+58
-4.6278231e+58
-4.589505e+58
-4.7252574e+58
-4.7205415e+58
-4.6272659e+58
-4.6814342e+58
-4.5882867e+58
-4.6987274e+58
-4.6333123e+58
-4.7739802e+58
-4.8068741e+58
-4.713332e+58
-4.6370073e+58
-4.9056925e+58
-4.9642153e+58
-4.9910512e+58
-4.9460411e+58
-4.9315233e+58
-4.8544296e+58
-4.9109168e+58
-4.9403075e+58
-4.8852227e+58
-4.9405333e+58
-4.8711398e+58
-4.9507407e+58
-4.8320917e+58
-4.7980222e+58
-4.8870719e+58
-4.9020021e+58
-4.7844559e+58
-5.3779179e+58
-5.2941516e+58
-5.6928303e+58
-5.4940639e+58
-5.1718517e+58
-3.2660206e+58
-4.4500288e+58
-4.4788142e+58
-3.9719098e+58
-5.0874477e+58
-5.2780131e+58
-5.0870151e+58
-5.1398939e+58
-5.1474042e+58
-4.984502e+58
-5.5349803e+58
-3.4976714e+58
-1.7805437e+58
-2.8628402e+58
-5.0349437e+58
-5.5674111e+58
-5.4077413e+58
-5.9853486e+58
-5.3434065e+58
-5.6236061e+58
-5.4889309e+58
-5.0658523e+58
-1.5284059e+59
-1.1481252e+59
-1.1079669e+59
-8.7486603e+58
-5.104594e+58
-5.4523987e+58
-4.9381652e+58
-5.3335214e+58
-1.1483425e+59
-5.7232158e+58
-6.2451494e+58
-7.7343e+58
-1.2631236e+59
-5.1771599e+58
-1.7087568e+59
-2.2351321e+59
-8.6759596e+58
-2.8461279e+59
-6.3724354e+58
-5.862594e+58
-1.0698585e+59
-1.4464884e+59
-7.1607122e+58
-7.5181484e+58
-1.6542454e+59
-9.7667988e+58
-7.1062167e+58
-5.0716307e+58
-9.6924226e+58
-7.3664302e+58
-2.2773048e+59
-1.081696e+59
-2.0424199e+59
-2.2372919e+59
-8.0933889e+58
-9.5494359e+58
-5.0555667e+58
-1.1220132e+59
-4.8742012e+58
-6.0640261e+58
-4.2306936e+58
-4.8387115e+58
-4.9846639e+58
-4.1460738e+58
-3.9101071e+58
-4.3640792e+58
-7.0868838e+58
-6.7673593e+58
-1.3105236e+59
-1.2829738e+59
-2.0813505e+59
-1.5284693e+59
-1.903406e+59
-1.0842861e+59
-7.289729e+58
-1.154818e+59
-4.7896348e+58
-5.4176469e+58
-4.069934e+58
-4.652419e+58
-5.6712155e+58
-4.809292e+58
-5.2464892e+58
-5.8375291e+58
-8.2854591e+58
-5.3750084e+58
-6.0289565e+58
-1.1864799e+59
-3.0400251e+59
-8.0933896e+58
-2.7411707e+59
-3.5249827e+58
-1.3066063e+59
-1.3776417e+59
-4.6481246e+58
-4.6162478e+58
-4.6159008e+58
-4.6144969e+58
-4.5892809e+58
-4.6278677e+58
-4.6349823e+58
-4.58019e+58
-4.5840007e+58
-4.5672704e+58
-4.6119135e+58
-4.6234468e+58
-4.6181305e+58
-4.5675496e+58
-4.6434617e+58
-4.5796143e+58
-4.7195259e+58
-4.7122593e+58
-4.7161453e+58
-4.7456181e+58
-4.7599865e+58
-4.6799784e+58
-4.7017334e+58
-4.7559389e+58
-4.7654409e+58
-4.6914795e+58
-4.6775144e+58
-4.7540631e+58
-4.7468465e+58
-4.6774464e+58
-4.674358e+58
-4.7430882e+58
-4.7390518e+58
-4.8305293e+58
-4.9014799e+58
-4.955189e+58
-4.9754435e+58
-4.9057978e+58
-4.8805729e+58
-4.9536723e+58
-4.9312634e+58
-4.8507968e+58
-4.8669356e+58
-4.9579394e+58
-4.9681436e+58
-4.877106e+58
-4.8528811e+58
-4.9649848e+58
-4.8820941e+58
-4.8170601e+58
-5.2781109e+58
-4.9454009e+58
-4.3238326e+58
-5.0928068e+58
-5.4422003e+58
-5.4997469e+58
-5.431869e+58
-5.1280316e+58
-5.1122476e+58
-5.8526193e+58
-6.5215853e+58
-4.4767872e+58
-5.208312e+58
-6.2884104e+58
-5.5080853e+58
-5.5334432e+58
-5.4875625e+58
-5.0854285e+58
-5.1209371e+58
-1.2344798e+59
-1.0368504e+59
-7.0592969e+58
-1.0722532e+59
-4.8783805e+58
-2.4075227e+59
-3.526658e+58
-4.5692397e+58
-5.0819059e+58
-5.2392501e+58
-5.1964352e+58
-5.0897289e+58
-1.0908888e+59
-1.327157e+59
-5.1417244e+58
-5.149312e+58
-6.2528505e+58
-5.6170572e+58
-5.4695748e+58
-8.9321028e+58
-5.6262679e+58
-5.7200828e+58
-5.4274579e+58
-1.5891521e+59
-1.1848651e+59
-5.3212548e+58
-8.6568871e+58
-1.4957429e+59
-6.5788493e+58
-6.2150388e+58
-6.3579121e+58
-1.5547672e+59
-6.9516637e+58
-6.4329295e+58
-1.4553768e+59
-9.658672e+58
-6.0448331e+58
-4.8113141e+58
-6.8694326e+58
-4.5126915e+58
-6.2856446e+58
-6.1807864e+58
-1.4251661e+59
-1.3232484e+59
-4.3307563e+58
-4.8395708e+58
-4.7457521e+58
-4.8397089e+58
-4.809071e+58
-4.7132152e+58
-4.7579289e+58
-4.740837e+58
-4.7515047e+58
-4.7665662e+58
-4.795825e+58
-4.7217498e+58
-4.6564036e+58
-4.7960314e+58
-4.7039399e+58
-4.6421675e+58
-4.6649565e+58
-4.6714425e+58
-4.6896736e+58
-4.6292873e+58
-4.5959691e+58
-4.7773285e+58
-4.7565585e+58
-4.6307359e+58
-4.6884171e+58
-4.596276e+58
-4.6771074e+58
-4.6303719e+58
-4.5797931e+58
-4.7255149e+58
-4.7207655e+58
-4.6272664e+58
-4.5747877e+58
-4.6816677e+58
-4.6335155e+58
-4.637239e+58
-4.8824284e+58
-5.012668e+58
-5.1066662e+58
-5.0531073e+58
-4.9977454e+58
-4.9490467e+58
-4.9921462e+58
-4.9202449e+58
-4.9120749e+58
-4.8591293e+58
-4.9166168e+58
-4.9393378e+58
-4.8833973e+58
-4.9403638e+58
-4.8709879e+58
-4.9506227e+58
-4.8315443e+58
-5.8897051e+58
-5.1838427e+58
-5.4946184e+58
-5.4768398e+58
-5.2130937e+58
-4.4251393e+58
-4.9742913e+58
-4.6967344e+58
-4.2510721e+58
-5.2870678e+58
-5.562433e+58
-5.4130195e+58
-5.4269583e+58
-5.3179533e+58
-5.1550515e+58
-5.4072908e+58
-3.7388722e+58
-3.5655528e+58
-3.5949894e+58
-5.0825469e+58
-5.2573928e+58
-4.8505807e+58
-5.1053084e+58
-5.2319389e+58
-4.6812952e+58
-5.4388774e+58
-4.9828221e+58
-1.3608061e+59
-1.0582411e+59
-3.6887694e+59
-7.1724799e+58
-5.0342729e+58
-5.9513068e+58
-7.8218393e+58
-5.412035e+58
-8.0297511e+58
-5.3422456e+58
-5.7672129e+58
-5.9379688e+58
-6.8436472e+58
-5.0664197e+58
-1.441706e+59
-1.1221128e+59
-9.2600439e+58
-8.6714577e+58
-5.4457201e+58
-4.7941992e+58
-7.6501327e+58
-9.8082382e+58
-6.2394973e+58
-7.351654e+58
-1.4999096e+59
-1.1477006e+59
-5.7977642e+58
-1.0375134e+59
-9.5553424e+58
-7.6100073e+58
-6.5904811e+58
-1.5950476e+59
-6.3973192e+58
-3.075532e+58
-2.2406156e+59
-2.4136568e+59
-2.202629e+59
-7.7610682e+58
-4.8871271e+58
-5.6934786e+58
-5.1613101e+58
-4.7863306e+58
-4.7300956e+58
-4.8133816e+58
-5.1072321e+58
-1.0449795e+59
-5.2677004e+58
-4.3820393e+58
-1.5108781e+59
-1.6031456e+59
-1.5275453e+59
-1.4620929e+59
-1.0768361e+59
-1.175855e+59
-2.1488286e+59
-1.3515205e+59
-4.7593588e+58
-5.2488038e+58
-4.8264614e+58
-4.7198253e+58
-4.7929268e+58
-4.8012431e+58
-4.6402918e+58
-4.7807996e+58
-7.6876815e+58
-6.393053e+58
-6.632198e+58
-1.0199321e+59
-1.4512341e+59
-9.632927e+58
-5.2989464e+58
-9.7555403e+58
-2.9217795e+59
-6.9629615e+58
-4.3136162e+58
-4.4491893e+58
-4.4507627e+58
-4.5048524e+58
-4.5134921e+58
-4.6757871e+58
-4.6481112e+58
-4.621397e+58
-4.6221084e+58
-4.6461477e+58
-4.6482183e+58
-4.598162e+58
-4.595187e+58
-4.6318541e+58
-4.5886935e+58
-4.6301687e+58
-4.6280268e+58
-4.5783644e+58
-4.5840143e+58
-4.5677302e+58
-4.6123743e+58
-4.6241545e+58
-4.7070281e+58
-4.704928e+58
-4.7088114e+58
-4.7652103e+58
-4.7633707e+58
-4.6913594e+58
-4.7056594e+58
-4.7566446e+58
-4.7660025e+58
-4.685709e+58
-4.7087802e+58
-4.7644705e+58
-4.7721472e+58
-4.6915261e+58
-4.6775193e+58
-4.7548499e+58
-4.7473936e+58
-4.8515602e+58
-4.8618779e+58
-4.9634332e+58
-4.9524894e+58
-4.8748168e+58
-4.8781292e+58
-4.9631578e+58
-4.9761924e+58
-4.885674e+58
-4.8821766e+58
-4.9509175e+58
-4.9329577e+58
-4.856582e+58
-4.8670156e+58
-4.958252e+58
-4.9689834e+58
-4.8779182e+58
-5.3556532e+58
-4.8829356e+58
-5.1038622e+58
-5.3261619e+58
-4.9774696e+58
-5.3834357e+58
-5.2467519e+58
-5.1337291e+58
-5.1470483e+58
-6.4617455e+58
-5.0684623e+58
-6.803388e+58
-5.1850054e+58
-7.2241791e+58
-5.6573991e+58
-5.4984637e+58
-5.5040308e+58
-5.1046512e+58
-5.085118e+58
-1.4157815e+59
-1.2821619e+59
-6.7720099e+58
-9.1871952e+58
-5.9602294e+58
-1.0204369e+59
-6.9057682e+58
-5.5596814e+58
-5.5505849e+58
-5.3714881e+58
-5.0499173e+58
-5.0964501e+58
-1.228911e+59
-9.5611337e+58
-2.0700458e+59
-3.8050808e+58
-1.1382868e+59
-5.2767494e+58
-2.4839757e+59
-1.4041343e+59
-4.2548649e+58
-5.359507e+58
-5.0801518e+58
-5.2432886e+58
-5.1938607e+58
-5.0898589e+58
-5.7652596e+58
-1.0202596e+59
-5.6501896e+58
-7.78148e+58
-1.7210244e+59
-6.8434204e+58
-5.760303e+58
-1.5643773e+59
-1.5487764e+59
-6.4849489e+58
-6.7000396e+58
-1.337443e+59
-4.567287e+58
-6.9231054e+58
-8.8486546e+58
-9.4018593e+58
-6.950984e+58
-6.9781034e+58
-4.2840121e+58
-1.3033753e+59
-4.8690802e+58
-4.7741076e+58
-4.895363e+58
-4.8718365e+58
-4.7641494e+58
-4.7708617e+58
-4.7830815e+58
-4.7803688e+58
-4.7939679e+58
-4.7782215e+58
-4.6993247e+58
-4.8555508e+58
-4.8293281e+58
-4.750216e+58
-4.6756784e+58
-4.693641e+58
-4.680965e+58
-4.8020384e+58
-4.7256146e+58
-4.6539616e+58
-4.6131675e+58
-4.7990173e+58
-4.6407804e+58
-4.7135475e+58
-4.6058659e+58
-4.6901275e+58
-4.6340375e+58
-4.5840752e+58
-4.7781021e+58
-4.7564791e+58
-4.6288459e+58
-4.586645e+58
-4.6883389e+58
-4.6305365e+58
-4.5795097e+58
-4.6274952e+58
-4.56712e+58
-4.9998891e+58
-5.0357598e+58
-5.0588562e+58
-5.0671476e+58
-5.0079698e+58
-5.0165213e+58
-5.1437854e+58
-5.0640542e+58
-4.9981976e+58
-4.9446919e+58
-4.9876128e+58
-4.9226482e+58
-4.9128198e+58
-4.8597431e+58
-4.9173912e+58