/*--------------------------------*- C++ -*----------------------------------*\
  =========                 |
  \\      /  F ield         | OpenFOAM: The Open Source CFD Toolbox
   \\    /   O peration     | Website:  https://openfoam.org
    \\  /    A nd           | Version:  7
     \\/     M anipulation  |
\*---------------------------------------------------------------------------*/
FoamFile
{
    version     2.0;
    format      ascii;
    class       surfaceScalarField;
    location    "7000";
    object      phi;
}
// * * * * * * * * * * * * * * * * * * * * * * * * * * * * * * * * * * * * * //

dimensions      [0 3 -1 0 0 0 0];

internalField   nonuniform List<scalar> 
102329
(
-3.0358025e+37
-1.0624795e+39
5.6472177e+37
5.6023104e+37
-8.3200584e+37
-7.8559537e+37
-1.0634329e+39
-4.9703746e+37
5.3228102e+37
5.7646424e+37
-8.1828174e+37
-7.9968935e+37
3.6985808e+37
-5.1384841e+37
-1.3505347e+39
4.4727391e+37
-7.5537247e+37
-7.3403887e+37
5.2236787e+37
4.9299756e+37
-7.776187e+37
-7.0928263e+37
5.1026674e+37
-1.3476451e+39
2.4525718e+38
2.7662401e+38
-3.4335672e+38
-3.1400566e+38
-2.1173894e+38
-2.5212225e+38
3.2397211e+38
2.7610105e+38
3.8160445e+37
-1.0493094e+39
-5.2228404e+37
5.134902e+37
-8.1656015e+37
-7.9227802e+37
5.5326896e+37
-1.0558773e+39
5.6425147e+37
5.4417322e+37
-7.7958264e+37
-8.3313135e+37
3.758725e+37
-5.0432646e+37
4.6950926e+37
-7.43264e+37
-7.1985651e+37
-1.3413616e+39
5.1686047e+37
-1.3445369e+39
4.919959e+37
-7.6923522e+37
-6.9852275e+37
5.1499755e+37
7.4190565e+35
-1.1177891e+36
2.0123534e+36
2.1965969e+36
-6.0791304e+37
-3.6331326e+36
-3.6053644e+36
2.0933592e+36
-6.1794518e+37
-3.5723907e+36
-3.7719369e+36
3.5708928e+36
-2.2687713e+38
-5.3097405e+36
1.0931606e+37
1.1969819e+37
-1.5984325e+37
-1.6232024e+37
-2.2108048e+38
1.1144431e+37
1.1348718e+37
-1.6962273e+37
-1.621883e+37
3.5068655e+36
-4.6927875e+36
-2.9518677e+38
1.0545522e+37
-1.7807807e+37
1.1419633e+37
-1.7862212e+37
-2.8831325e+38
-1.7226309e+37
-1.7867807e+37
1.1295211e+37
1.0434214e+37
3.9997888e+36
-2.2259424e+38
-6.5722629e+36
1.034213e+37
1.1876687e+37
-1.6156843e+37
-1.7107204e+37
8.4809394e+35
1.9586817e+36
2.1559704e+36
-3.66798e+36
-6.1184606e+37
-3.650665e+36
2.1086675e+36
2.1337022e+36
-6.0523372e+37
-3.5003213e+36
-3.6931051e+36
-2.2332893e+38
1.0885144e+37
1.132729e+37
-1.7458181e+37
-1.6125801e+37
1.6577886e+36
-2.8708792e+38
-7.3862037e+36
-1.7106823e+37
1.0730643e+37
1.1841333e+37
-1.7071167e+37
-2.9292084e+38
-1.6856098e+37
-1.8287292e+37
1.0209735e+37
1.1521681e+37
4.2739289e+37
-1.067713e+39
-5.6980739e+37
-7.2954488e+37
5.0332964e+37
5.8153018e+37
-7.1182593e+37
-2.2190986e+38
2.3495469e+36
-7.2366119e+36
1.0538123e+37
-1.8815567e+37
1.1566585e+37
-1.8852682e+37
5.9589702e+36
-7.3624875e+36
-2.825507e+38
-1.6973371e+37
-1.7252004e+37
9.975417e+36
1.0757164e+37
2.2866538e+38
7.6749711e+36
-2.9227367e+38
-1.7704794e+37
1.107298e+37
1.1715629e+37
-1.6595271e+37
5.247597e+36
-1.8847305e+37
1.0589911e+37
1.1125355e+37
-1.7784623e+37
-2.2888364e+38
3.9668118e+36
-1.8628838e+37
-1.8678348e+37
1.0428591e+37
1.115608e+37
6.3388444e+36
-1.7361413e+37
-1.7121907e+37
-2.92704e+38
1.1262764e+37
1.061525e+37
2.2448075e+38
-1.7593291e+37
-1.6543775e+37
-2.8577815e+38
1.0970848e+37
1.0785158e+37
1.0521141e+37
-1.8952335e+37
-1.8036796e+37
1.0431567e+37
-1.0653846e+39
5.3534021e+37
5.7660028e+37
-7.4419346e+37
-6.4968263e+37
4.3676097e+37
-1.2193527e+39
-7.0417724e+37
-1.6736636e+38
-1.2378373e+39
-1.6158513e+38
1.0582963e+39
1.0866471e+39
-2.3590978e+38
-3.3418067e+38
3.1474621e+37
-1.0326086e+39
5.283058e+37
5.55033e+37
-7.8463423e+37
-7.88963e+37
-1.03322e+39
5.4616781e+37
5.5689203e+37
-8.1010503e+37
-7.6276566e+37
3.3067933e+37
4.9224615e+37
-7.0882722e+37
-6.9220681e+37
5.2330523e+37
-1.3225737e+39
5.0554556e+37
-7.3235852e+37
-6.740611e+37
5.209319e+37
-1.3265962e+39
-5.1520915e+37
9.1801606e+38
9.0320205e+38
-5.72439e+37
-2.207634e+38
4.7134044e+36
-6.4878791e+36
1.1833113e+37
1.0581182e+37
-1.6592314e+37
-1.6369623e+37
2.6381521e+36
-2.8695232e+38
-5.2241044e+36
-1.7493784e+37
-1.7294636e+37
1.0545218e+37
1.1362108e+37
2.1964653e+38
4.6421094e+36
-2.8958421e+38
-1.6608703e+37
-1.7675972e+37
1.1335769e+37
1.1654824e+37
6.3990751e+36
-1.5798494e+37
-1.7031207e+37
1.0138602e+37
1.0630719e+37
-4.9424231e+36
-2.2016956e+38
1.1034524e+37
1.1759489e+37
-1.7291274e+37
-1.5116801e+37
-2.2445848e+38
1.1753106e+37
1.0541726e+37
-1.6505528e+37
-1.6968087e+37
-3.627377e+36
-2.8737783e+38
-1.8198297e+37
1.0241776e+37
1.080643e+37
-1.7358724e+37
-2.9299883e+38
-1.7604032e+37
-1.7762735e+37
1.0325323e+37
1.1283409e+37
-2.2235245e+38
1.491526e+36
-4.9511759e+36
-1.831473e+37
-1.7891269e+37
1.0653388e+37
1.136336e+37
2.6487508e+36
-5.1992215e+36
-2.8271541e+38
-1.6462253e+37
1.0830836e+37
-1.6513657e+37
1.0732126e+37
2.2594633e+38
5.6076237e+36
-1.6385939e+37
-1.7210663e+37
1.1243026e+37
1.1222977e+37
-2.8976024e+38
4.4999352e+37
-1.0634811e+39
-5.8252737e+37
5.1278281e+37
5.8079024e+37
-7.2663198e+37
-7.1251184e+37
4.3739681e+36
1.0780345e+37
-1.856654e+37
1.0845974e+37
-1.7894035e+37
-1.0617925e+39
5.2684552e+37
5.7070528e+37
-7.6186225e+37
-6.587491e+37
-2.2772628e+38
3.2498894e+36
-1.8363704e+37
-1.8406043e+37
1.053072e+37
1.1290164e+37
4.7137661e+36
-2.9151716e+38
-1.700323e+37
-1.7148212e+37
1.067136e+37
1.12413e+37
2.2445593e+38
-2.8501346e+38
-1.7331732e+37
1.1049497e+37
1.0716574e+37
-1.6377766e+37
-1.7810701e+37
-1.8742528e+37
1.0448109e+37
1.069625e+37
5.4479334e+37
-1.2129128e+39
-8.1693968e+37
-1.7192737e+38
-1.235277e+39
-1.6469166e+38
1.6405896e+35
-1.0289445e+37
-2.2357721e+35
-7.3330619e+35
-7.3662324e+35
4.4474006e+35
4.820369e+35
-1.0447442e+37
1.98093e+35
4.6759884e+35
4.7458431e+35
-7.6708384e+35
-7.3162082e+35
8.3416195e+35
-4.7347884e+37
-1.0116341e+36
2.1518484e+36
-3.444766e+36
-3.4205161e+36
2.3791225e+36
-1.4551184e+35
2.05024e+35
-1.3400616e+37
-7.3946451e+35
-2.2601342e+35
-1.3109016e+37
-7.0529148e+35
-1.0476941e+37
-7.5490045e+35
-7.5628615e+35
4.5207648e+35
4.8450625e+35
-4.784309e+37
1.1743322e+36
-3.361221e+36
-3.5426611e+36
2.272088e+36
2.3100276e+36
-1.5420582e+35
1.9346316e+35
-1.3173939e+37
-7.6714978e+35
-1.3439233e+37
-7.5882298e+35
-6.0266183e+35
9.4451751e+35
-6.2033024e+37
-3.3853617e+36
-3.4902238e+36
2.3710685e+36
2.3683008e+36
-6.1049232e+37
-9.6087426e+35
-3.4595117e+36
-3.3959336e+36
2.2522491e+36
2.4307484e+36
1.4484763e+35
-6.9681234e+35
-1.3230393e+37
7.1783901e+35
-4.7724402e+37
2.2391361e+36
-3.3792755e+36
-3.4367427e+36
2.3974479e+36
-1.3420434e+37
-7.4251303e+35
-4.6808426e+37
2.3133208e+36
-3.4166871e+36
6.7507494e+35
-6.2011183e+37
2.2773791e+36
-3.5256945e+36
-3.527089e+36
2.3693783e+36
-6.0332983e+37
2.2115056e+36
-3.636222e+36
-3.4507181e+36
-4.7916067e+37
6.1181258e+35
-9.723625e+35
2.3036825e+36
-3.4373782e+36
-3.568273e+36
2.4748943e+36
3.680912e+35
-6.0172888e+35
-6.2574817e+37
2.2837209e+36
-3.7290313e+36
-3.7942174e+36
2.3241209e+36
-4.8477061e+37
6.1689899e+35
2.4629002e+36
-3.5062468e+36
-3.5093577e+36
2.4113062e+36
6.4796307e+35
-6.349572e+37
2.2515466e+36
-3.8830155e+36
-3.7359052e+36
2.2439657e+36
-2.3942537e+35
4.7372965e+37
-6.1822445e+37
-3.6998247e+36
-3.7965208e+36
2.4184006e+36
2.1678462e+36
4.8242181e+37
-6.3216421e+37
-3.781307e+36
-3.5545881e+36
2.3923436e+36
2.4585397e+36
4.0147903e+35
2.2725217e+36
-3.4775966e+36
-3.4919198e+36
2.4386364e+36
-3.496743e+36
-3.5924416e+36
2.2506157e+36
2.1837198e+36
8.7356856e+35
-4.7552134e+37
-1.2067864e+36
2.1506837e+36
2.4070563e+36
-3.5288707e+36
-3.4374775e+36
-4.8411912e+37
1.2521722e+36
2.3727453e+36
2.2959064e+36
-3.5701282e+36
-3.3476868e+36
-5.8604382e+35
1.127519e+36
-6.3051707e+37
-3.3794453e+36
-3.5270012e+36
2.4416414e+36
2.4062943e+36
-6.1745212e+37
-8.9537974e+35
-3.5480603e+36
-3.5798463e+36
2.1484416e+36
2.3746728e+36
-1.2881881e+37
-6.8316966e+35
-6.433888e+35
5.0650673e+35
5.0532102e+35
1.7722344e+35
-1.0266796e+37
-7.4650705e+35
-7.466217e+35
4.3109119e+35
4.7171678e+35
-1.0407899e+37
1.9193115e+35
4.6038766e+35
4.6854773e+35
-7.7385742e+35
-7.3565802e+35
1.6060444e+35
-7.5577698e+35
-1.3098869e+37
7.369154e+35
-4.7380794e+37
2.1338799e+36
-3.4424914e+36
-3.4387457e+36
2.3439613e+36
2.0126362e+35
-1.3333051e+37
-7.6616973e+35
1.3988316e+35
-1.0437938e+37
-7.4074463e+35
-7.3783165e+35
4.4627644e+35
4.7998875e+35
-1.0269718e+37
4.6099676e+35
4.639923e+35
-7.6425554e+35
-7.2288748e+35
-4.731438e+37
2.3093676e+36
-3.4454101e+36
-3.3228285e+36
2.3024552e+36
-1.6574606e+35
-1.3072762e+37
-7.5754267e+35
-1.3392954e+37
-7.0257032e+35
6.5124407e+35
-6.15632e+37
2.1228517e+36
-3.6214999e+36
-3.5800441e+36
2.2792023e+36
-6.1228884e+37
2.24676e+36
-3.6233991e+36
-3.41728e+36
2.2729942e+36
4.8587907e+37
3.3046581e+34
-6.2981859e+37
-4.2603766e+35
2.4205189e+36
-3.5570811e+36
-3.7159349e+36
2.5326183e+36
3.9045292e+35
-5.0807679e+35
-3.5466034e+36
-3.448838e+36
2.2587981e+36
2.4276029e+36
-4.9345668e+37
5.8280804e+35
2.4849104e+36
-3.5767054e+36
-3.4485337e+36
2.4832706e+36
1.5770789e+35
-6.4440123e+37
2.5148242e+36
-3.6878225e+36
-3.4860931e+36
2.5577191e+36
-3.0271387e+35
4.8042304e+37
-6.2810306e+37
-3.6334729e+36
-3.619862e+36
2.4769513e+36
2.3892773e+36
4.8090734e+37
-6.3081951e+37
-3.855867e+36
-3.8625993e+36
2.0538298e+36
2.2235592e+36
3.7306649e+35
2.0210858e+36
-3.6999984e+36
-3.6357416e+36
2.2616667e+36
-3.3895331e+36
-3.5525656e+36
2.3457357e+36
2.3321668e+36
2.2802926e+38
1.1378954e+37
-2.6282246e+38
-1.6581421e+37
-3.2958662e+37
8.8540745e+36
-1.0169675e+37
1.1508719e+37
1.3010899e+37
-1.3812602e+37
-1.3579797e+37
-2.3335567e+38
1.173374e+37
1.2734364e+37
1.1927161e+37
-1.5088633e+37
-1.3217432e+37
1.6155326e+37
-2.7732206e+38
-3.1992449e+37
-4.9244101e+37
-1.2287484e+35
-5.7948422e+35
2.5051982e+36
-3.6439058e+36
-3.9145542e+36
2.5559878e+36
-4.0295979e+35
-6.3974824e+37
-3.659229e+35
2.5103861e+36
-4.0301933e+36
-4.1890811e+36
2.3929298e+36
-5.0190974e+37
-3.708747e+35
2.6463519e+36
-3.7604913e+36
2.5251053e+36
-3.8455299e+36
-6.5157035e+37
-6.6221811e+35
2.4003205e+36
-4.2214749e+36
-4.1235805e+36
2.3173755e+36
-3.1704982e+35
5.0708855e+37
6.155639e+35
-6.4104003e+37
-4.1641571e+36
-4.2828152e+36
2.3580725e+36
2.2121813e+36
4.9832126e+37
-1.0658993e+36
-6.2552899e+37
-4.1777611e+36
-4.1966348e+36
2.2685227e+36
2.3235107e+36
-5.8637973e+35
5.4424055e+33
2.3791448e+36
-4.1701525e+36
-4.27263e+36
2.4772983e+36
-5.7962658e+35
-4.2568197e+36
-4.2921205e+36
2.4805651e+36
2.3706098e+36
5.1262224e+37
3.897742e+35
-6.5041319e+37
-4.2509551e+36
-4.1335586e+36
2.4368065e+36
2.2478164e+36
-3.3977678e+34
6.528469e+37
2.4109979e+36
-4.0899422e+36
-4.2767742e+36
2.4605913e+36
-5.0701488e+37
6.4806393e+37
1.1655654e+34
2.8372297e+36
-4.0139161e+36
2.7249067e+36
-3.9831173e+36
6.5106166e+35
-6.4169168e+37
2.5789976e+36
-4.1287627e+36
2.2693241e+36
-4.1084238e+36
4.9460525e+37
-1.1447154e+35
2.2379409e+36
-3.9685329e+36
-4.1511569e+36
2.3108649e+36
-6.1024574e+34
-3.9593444e+36
-3.8117364e+36
2.1548597e+36
2.2748575e+36
-4.9456549e+37
2.9251913e+35
2.5806214e+36
-3.7906915e+36
-3.7390258e+36
2.3671546e+36
1.281457e+35
2.5041976e+36
-3.8305314e+36
-3.7684153e+36
2.4173591e+36
-1.1480233e+35
4.9575839e+37
-6.5091855e+37
3.0979003e+35
-3.9909216e+36
-4.0857487e+36
2.4008484e+36
2.3680336e+36
4.9078873e+37
-6.4325001e+37
-4.088387e+36
-4.0171777e+36
2.2610865e+36
2.4256083e+36
3.2433436e+35
2.1878569e+36
-3.8112942e+36
-3.8482788e+36
2.3725524e+36
5.8507757e+35
-3.7677682e+36
-3.8956693e+36
2.3283176e+36
2.3105857e+36
4.8433087e+35
5.0441773e+37
-6.4139934e+37
-4.0985934e+36
2.3817772e+36
2.3672603e+36
-4.1469525e+36
5.0938396e+37
1.0238517e+36
-6.5067515e+37
-4.1801911e+36
2.4700423e+36
2.2674894e+36
-4.0896373e+36
9.4977452e+36
-2.335214e+38
1.1827608e+37
1.3104253e+37
-1.4329375e+37
-1.4015012e+37
-7.9111681e+34
5.094298e+35
-4.0722057e+36
-4.1661401e+36
2.4813032e+36
2.4360387e+36
-4.1391521e+36
-4.0789995e+36
2.3595534e+36
2.5231643e+36
1.1059266e+36
5.0737101e+37
-6.4820633e+37
-4.1142315e+36
2.3824459e+36
2.3225059e+36
-4.1825418e+36
4.9869202e+37
-6.3077691e+37
-4.1600779e+36
2.4407523e+36
2.2467184e+36
-4.0866389e+36
-2.2822827e+38
1.2434692e+37
1.2796444e+37
-1.4399867e+37
-1.2448828e+37
-5.8995318e+35
6.3739615e+37
-3.9959797e+36
-4.0717454e+36
2.5297746e+36
2.4642865e+36
6.4821648e+37
-4.1645411e+36
-4.0873842e+36
2.3719713e+36
2.5000493e+36
-4.9399134e+37
1.6257885e+35
2.4788732e+36
-3.8097468e+36
-3.9233466e+36
2.3805833e+36
3.4940736e+35
2.2206556e+36
-3.9996424e+36
-4.1099141e+36
2.3194667e+36
4.868272e+37
-3.9339527e+36
-3.9912982e+36
2.3607361e+36
2.2756426e+36
2.2971316e+36
-3.8625678e+36
-3.776498e+36
2.2143873e+36
1.0950946e+37
-2.7132732e+38
-3.1408958e+37
-2.6586319e+38
-3.0346221e+37
6.2085371e+37
-8.7352608e+37
2.2243408e+38
2.3416176e+38
-8.0542531e+37
2.2562866e+38
2.2649789e+38
-7.6998835e+37
-1.273756e+39
-7.2866982e+37
6.245429e+37
7.2009368e+37
-6.4880088e+37
1.0197101e+39
1.0471835e+39
-3.3629965e+38
1.1355862e+39
1.110794e+39
1.0500909e+39
1.0841918e+39
-2.2892658e+38
-3.3937874e+38
2.4175451e+36
-2.1861946e+38
1.095283e+37
1.1361486e+37
-1.5542942e+37
-1.6390874e+37
-2.1805512e+38
3.6642391e+36
1.0730728e+37
1.144049e+37
-1.5055355e+37
-1.7159218e+37
-6.1223941e+35
-2.8514063e+38
1.1515806e+37
-1.5918944e+37
-1.737957e+37
1.1231586e+37
2.3132301e+36
-2.8629522e+38
-1.7801925e+37
1.0403775e+37
1.0742152e+37
-1.6925671e+37
4.0760518e+36
-2.2206007e+38
1.1603935e+37
1.059472e+37
-1.666338e+37
-1.643831e+37
-2.1712838e+38
1.0989646e+37
1.1773999e+37
-1.4651294e+37
-1.6974065e+37
1.8464211e+36
-2.8960439e+38
-1.7461202e+37
-1.7400611e+37
1.0569475e+37
1.1292982e+37
-2.8368307e+38
-1.774085e+37
1.0482162e+37
1.0959061e+37
-1.6799924e+37
-2.2046844e+38
-1.2349857e+36
1.120003e+37
-1.7532216e+37
-1.7967681e+37
1.144156e+37
7.622876e+34
-1.6058224e+37
-1.575853e+37
1.1319324e+37
1.1677102e+37
-2.7819746e+38
2.2269344e+38
1.8519484e+36
1.2201779e+37
-1.6065806e+37
-1.5832515e+37
1.1456632e+37
-2.8544994e+38
1.5518661e+36
-1.7776509e+37
-1.770312e+37
1.0938657e+37
1.048287e+37
4.4999115e+37
-1.0505738e+39
5.2097994e+37
5.8858726e+37
-6.9848861e+37
-6.8610033e+37
-2.2411693e+38
1.0959329e+36
-1.816889e+37
1.0581333e+37
-1.8228644e+37
1.1339229e+37
2.2184204e+36
-1.6704028e+37
-1.6427135e+37
1.1001697e+37
-2.868621e+38
1.1272304e+37
2.2093943e+38
-1.5985458e+37
-1.6694671e+37
-2.8119212e+38
1.1390973e+37
1.1154938e+37
-1.757916e+37
-1.8278466e+37
1.0711241e+37
1.0640687e+37
-1.0503556e+39
5.3899995e+37
5.8173912e+37
-7.4338325e+37
-6.3923319e+37
6.1799397e+37
-1.1957713e+39
-1.7584215e+38
-1.2223433e+39
-1.6694702e+38
-1.0517589e+36
-4.7517979e+37
1.427673e+36
2.3143039e+36
-3.454012e+36
-3.2932459e+36
2.3722643e+36
-4.6572971e+37
-1.400441e+36
2.1917249e+36
-3.3356048e+36
-3.3395065e+36
2.4198408e+36
6.543596e+35
-6.0389762e+37
-1.1222637e+36
2.2351975e+36
-3.4975478e+36
-3.4440055e+36
2.3987381e+36
-6.1753332e+37
1.0707042e+36
2.2239445e+36
-3.6793974e+36
-3.4232558e+36
2.328091e+36
-1.1188881e+35
4.8137217e+37
5.2118085e+35
-6.3188478e+37
-3.7075617e+36
-3.8511965e+36
2.4114052e+36
2.2955402e+36
4.7358884e+37
-6.1813828e+37
-4.4019328e+35
-3.6679187e+36
-3.6352033e+36
2.3694801e+36
2.4222572e+36
3.7225574e+35
-5.9695849e+35
2.196229e+36
-3.4525155e+36
-3.4365313e+36
2.431858e+36
6.2583357e+35
-3.4613201e+36
-3.6425768e+36
2.275005e+36
2.3213057e+36
-3.1331744e+35
4.7401905e+37
4.8346606e+35
-6.1922418e+37
-3.597313e+36
-3.576744e+36
2.5072363e+36
2.4084833e+36
4.7977126e+37
-6.2893421e+37
-3.7600897e+36
-3.5893761e+36
2.3418143e+36
2.4558367e+36
4.8171355e+35
6.1726244e+37
2.2376929e+36
-3.5025645e+36
-3.4552989e+36
2.4509397e+36
6.0679727e+37
9.2374239e+35
2.3795997e+36
-3.5075825e+36
-3.3182786e+36
2.3812336e+36
-8.6686058e+35
4.6790955e+37
1.2901919e+36
-3.3388631e+36
-3.5427414e+36
2.2567233e+36
2.2918245e+36
4.7413316e+37
-3.4728801e+36
-3.5292519e+36
2.1265189e+36
2.361175e+36
9.6328209e+35
1.9917543e+36
-3.5516353e+36
-3.4312157e+36
2.2588453e+36
1.3185551e+36
-3.3211437e+36
-3.5624782e+36
2.1236241e+36
2.1710265e+36
6.5128246e+35
-4.7322406e+37
-1.2482358e+36
2.1915455e+36
2.4062828e+36
-3.4045257e+36
-3.3118964e+36
-4.7213299e+37
2.368612e+36
2.2802262e+36
-3.2039934e+36
-3.5249822e+36
6.5175382e+35
-1.1140217e+36
-6.1508058e+37
2.1990265e+36
-3.5763007e+36
2.3051335e+36
-3.571217e+36
-6.0780672e+37
-3.4568798e+36
2.4005387e+36
2.467574e+36
-3.2042911e+36
-9.6035979e+35
-4.7395567e+37
2.3116433e+36
2.2661463e+36
-3.350322e+36
-3.5299196e+36
-4.6944923e+37
-3.3910766e+36
-3.4766384e+36
2.136215e+36
2.3938143e+36
-8.0946493e+35
-6.173431e+37
-3.4512803e+36
-3.6091802e+36
2.3226535e+36
2.2664613e+36
-6.0785578e+37
-3.5057985e+36
-3.576608e+36
2.088983e+36
2.3467188e+36
4.8112654e+37
2.1897686e+35
-5.0881737e+35
-6.3062608e+37
-3.7953897e+36
-3.7889565e+36
2.3198822e+36
2.3059594e+36
4.237691e+35
-8.6587597e+35
2.1387761e+36
-3.5687061e+36
-3.5886959e+36
2.3071002e+36
-4.789803e+37
2.4549365e+36
-3.5192534e+36
2.4078368e+36
-3.5040436e+36
-6.2256922e+37
2.2273047e+36
-3.8931302e+36
-3.7396052e+36
2.1985335e+36
-3.7616196e+35
4.8204945e+37
-6.3246759e+37
-3.6750064e+36
-3.7746048e+36
2.4543813e+36
2.3003544e+36
4.7640781e+37
-6.2299932e+37
-3.7405124e+36
-3.7550786e+36
2.1390664e+36
2.360247e+36
6.7410511e+35
-3.5037137e+36
-3.5740404e+36
2.1257043e+36
2.3822111e+36
2.3063695e+36
-3.5909399e+36
-3.4554141e+36
2.3022567e+36
3.6374618e+35
4.8991816e+37
-6.379037e+37
-5.4251236e+35
-3.9897415e+36
-4.1391399e+36
2.4161501e+36
2.3753244e+36
4.8401113e+37
-6.343972e+37
1.1625645e+35
-3.8619077e+36
-3.8594545e+36
2.3800111e+36
2.73618e+36
-1.048684e+35
-8.4238419e+34
2.2693798e+36
-3.6862188e+36
-3.652078e+36
2.4986944e+36
8.8469114e+34
2.3269667e+36
-3.9403404e+36
-3.754097e+36
2.3408293e+36
6.6132308e+36
-2.2597405e+38
-9.2998326e+36
1.1811212e+37
-1.3762906e+37
-1.371986e+37
1.2895112e+37
4.940436e+37
-5.3709278e+35
2.4974654e+35
-6.2122848e+37
-4.0610633e+36
-4.013086e+36
2.2715987e+36
2.3461412e+36
-7.9743798e+35
5.0941556e+35
-3.9224662e+36
2.4696028e+36
2.5913361e+36
-4.0549752e+36
4.9745251e+37
-7.2705676e+34
-6.3343047e+37
2.4277474e+36
-4.1146883e+36
-4.0277717e+36
2.3344745e+36
-8.7885198e+35
-4.0926622e+36
-4.1253481e+36
2.5573824e+36
2.42905e+36
1.4596158e+35
4.9974953e+37
1.0558485e+35
-6.3262426e+37
-4.0670094e+36
-4.0294381e+36
2.5701328e+36
2.1763082e+36
5.0632786e+37
-6.4014644e+37
-4.2203961e+36
-4.0837152e+36
2.2800818e+36
2.2684866e+36
-5.2707536e+35
6.476141e+37
2.4518433e+36
-4.0328745e+36
-4.1687175e+36
2.5123738e+36
6.38559e+37
-2.0141756e+35
-4.0272322e+36
-3.9977005e+36
2.5986716e+36
2.4426337e+36
-2.31155e+38
1.0155224e+37
1.2502878e+37
1.1912318e+37
-1.5152379e+37
-1.3331013e+37
1.2670101e+37
-2.5859769e+38
-1.796823e+37
-3.4741427e+37
1.8029771e+37
-2.7411662e+38
-3.3649168e+37
-4.9211943e+37
-5.9306883e+34
2.4592515e+36
-3.7397767e+36
-3.8696627e+36
2.3968304e+36
-2.7902223e+35
2.3008612e+36
-3.9026562e+36
-4.046899e+36
2.3681303e+36
-4.8742744e+37
1.7594971e+35
2.621556e+36
-3.8059564e+36
-3.7199837e+36
2.3354278e+36
9.4271361e+34
2.3824033e+36
-3.9686731e+36
-3.8848094e+36
2.3169081e+36
8.2867812e+36
-2.3252866e+38
1.166129e+37
1.2846139e+37
-1.4594016e+37
-1.4348857e+37
-2.2713577e+38
1.2230018e+37
-1.4729803e+37
-1.2658688e+37
1.2468477e+37
1.2306901e+37
-2.6932515e+38
-3.3666796e+37
-2.6507598e+38
-3.2209146e+37
1.3948823e+35
4.9301457e+37
-6.4907984e+37
-6.8364391e+34
-3.9402463e+36
-3.941974e+36
2.3902389e+36
2.6636809e+36
4.8935133e+37
-6.4221388e+37
-4.036066e+36
-3.8632355e+36
2.5467887e+36
2.4664865e+36
1.7355289e+35
-3.7919326e+36
-3.7045726e+36
2.2544071e+36
2.4104152e+36
2.8808512e+35
2.3987962e+36
-3.7966349e+36
-3.7166893e+36
2.3448559e+36
4.1271059e+34
5.0748382e+37
4.0972138e+35
-6.4723467e+37
-4.0809062e+36
-4.1123617e+36
2.5215146e+36
2.1926208e+36
5.0208955e+37
-6.3675241e+37
-4.1706887e+36
-4.0473146e+36
2.4190374e+36
2.2638984e+36
-2.7675076e+35
2.4244337e+36
-4.0204365e+36
-4.1659626e+36
2.4962261e+36
3.7804012e+34
2.5442244e+36
-4.1040992e+36
-4.0817347e+36
2.4087541e+36
5.0737266e+37
7.1335824e+35
-6.4477411e+37
-4.2038073e+36
-4.1491009e+36
2.2026572e+36
2.2550388e+36
4.2137091e+35
6.4810012e+37
-4.1941618e+36
-4.093419e+36
2.3955064e+36
2.4852617e+36
-4.942979e+37
6.3492712e+37
2.8075127e+36
-4.1432428e+36
-4.1115369e+36
2.5277352e+36
-6.2300736e+37
2.3026705e+36
-4.2248775e+36
-4.1109515e+36
2.1738043e+36
-3.3539238e+35
4.8820924e+37
-3.9819836e+36
-3.9347779e+36
2.4478652e+36
2.2994503e+36
4.9170323e+37
-4.0917162e+36
-3.9980764e+36
2.2341725e+36
2.349023e+36
1.1611421e+35
2.1729674e+36
-3.8729475e+36
-3.9008123e+36
2.3285859e+36
-3.8182048e+36
-3.9282872e+36
2.300565e+36
2.2428074e+36
7.2386715e+37
-9.700507e+37
2.1956267e+38
2.3253699e+38
-8.2031907e+37
2.239875e+38
2.2619478e+38
-8.004895e+37
3.6242191e+34
2.1513218e+36
-2.5745461e+36
-5.6391408e+34
-2.8993207e+35
2.186661e+36
5.072153e+34
-2.6508774e+36
-2.8688588e+35
2.400467e+34
-2.8091077e+34
-1.4112151e+35
2.6832895e+34
-1.3449258e+35
1.714276e+34
-2.1865152e+36
-1.4502642e+35
-2.1669081e+36
2.8108848e+34
-1.383071e+35
3.9063897e+34
-2.6380716e+36
-3.0386892e+35
-2.6127314e+36
5.2260826e+34
-2.9899341e+35
-1.0418451e+37
2.0482847e+35
-2.5583621e+35
-4.8770694e+35
1.7490333e+35
-1.3329131e+37
-2.5642605e+35
-4.5256246e+35
1.058303e+37
2.374023e+35
-1.3611293e+37
-4.5474768e+35
2.310444e+35
-4.6467609e+35
-1.4498513e+35
1.6974085e+35
1.774622e+36
1.7849408e+36
-8.4884778e+36
-5.450833e+35
-5.6186356e+35
5.0391067e+33
1.5803592e+34
-1.5818309e+35
1.7731629e+36
1.7923681e+36
-8.4403068e+36
-5.3321044e+35
-5.4781358e+35
1.2898389e+34
2.5386881e+34
3.3732322e+34
2.1725445e+36
-2.6066153e+36
-3.0229997e+35
2.2013679e+36
-2.6684686e+36
-2.9934549e+35
2.3149972e+34
-1.4372605e+35
-1.3839532e+35
-1.8786559e+35
1.0456916e+37
-1.3383843e+37
2.4278821e+35
-4.8921221e+35
1.0610628e+37
-1.3648321e+37
-4.5542741e+35
1.5187348e+35
-4.7734388e+35
2.36229e+35
-4.9134873e+35
-1.6034825e+35
1.5385877e+35
-8.4860153e+36
-5.5097378e+35
-5.636911e+35
5.0191674e+33
1.2905029e+34
1.7809909e+36
1.7974734e+36
-8.5229146e+36
-5.4721809e+35
-5.6022141e+35
9.1500056e+33
1.8228252e+34
-1.9440601e+35
1.0716039e+37
2.6022889e+35
-1.3673067e+37
-4.9415509e+35
1.0874831e+37
-2.3222343e+35
-1.3949379e+37
-3.7785683e+35
1.6888066e+35
-2.3141634e+35
-3.3988304e+35
2.6650287e+35
-3.9712382e+35
-1.6772576e+35
1.0839019e+37
-1.3886652e+37
-4.7637401e+35
1.0683264e+37
-1.362309e+37
-2.3781548e+35
-3.8601785e+35
1.944786e+35
-2.4220943e+35
-3.458855e+35
-3.7846134e+35
1.6449288e+35
-8.4871328e+36
-5.4024556e+35
-5.4822238e+35
1.3970252e+34
2.2676564e+34
-1.0507445e+37
1.9039819e+35
-4.3797918e+35
1.6734605e+35
-1.3436541e+37
-3.7473687e+35
1.0599039e+37
2.4556808e+35
-1.3626829e+37
-4.8717206e+35
2.3069241e+35
-4.6424136e+35
-8.4923758e+36
-5.4945727e+35
-5.6210772e+35
5.828542e+33
1.4200305e+34
-1.0536572e+37
-4.2983012e+35
-1.352843e+37
-3.7554448e+35
-1.0773978e+37
2.024925e+35
-3.2117139e+35
1.8338153e+35
-1.3768075e+37
-4.5474945e+35
1.0882864e+37
2.4845757e+35
-1.3982418e+37
-4.9260602e+35
2.5047749e+35
-4.2257018e+35
-1.0807499e+37
-4.1930195e+35
1.8208045e+35
-1.3884359e+37
-4.929803e+35
-1.3515508e+37
-5.3610144e+35
-1.0897922e+37
2.0207478e+35
-2.5816504e+35
-3.6539307e+35
1.655553e+35
-1.3852388e+37
-2.7094947e+35
-3.7751805e+35
1.1030602e+37
-1.4117554e+37
2.3181608e+35
-5.4757805e+35
2.3381567e+35
-4.1289417e+35
-1.1159078e+37
1.8331305e+35
-2.5537763e+35
-3.3752233e+35
1.3797858e+35
-2.2642477e+35
-1.4269025e+37
-5.3063961e+35
1.1320916e+37
1.8515412e+35
-1.4573998e+37
-5.8830897e+35
2.1030661e+35
-4.9950866e+35
-1.1068651e+37
1.5695213e+35
-3.4096191e+35
1.669831e+35
-1.4153117e+37
-3.5694673e+35
1.0925096e+37
-1.390746e+37
1.9787592e+35
-5.5788309e+35
2.3865293e+35
-4.1836387e+35
-1.1341196e+37
1.2807582e+35
-4.7814128e+35
1.3705666e+35
-1.4590416e+37
-5.8569603e+35
1.1195928e+37
1.6363828e+35
-1.4337581e+37
-6.2083069e+35
1.7788453e+35
-5.1737401e+35
-8.4517542e+34
1.1106978e+37
-1.4188172e+37
-6.1295714e+35
1.128822e+37
-1.3431626e+35
-1.4492956e+37
-5.4198431e+35
6.9793726e+34
-1.7515085e+35
1.4111072e+37
-2.9908872e+35
1.3783584e+37
-5.439759e+35
-8.9558852e+34
1.1338076e+37
-1.4566721e+37
-5.9741741e+35
1.1260994e+37
-1.4381991e+37
-3.5951021e+35
1.5323027e+35
1.3997545e+37
-3.1955037e+35
1.4176054e+37
-4.0135573e+35
-1.1001427e+37
2.1214153e+35
-4.6761232e+35
1.6036241e+35
-4.4396227e+35
1.1100472e+37
2.3265014e+35
-4.8862138e+35
2.4465364e+35
-4.7581832e+35
-1.5991369e+35
1.0832689e+37
-5.5370687e+35
1.1039759e+37
-4.4838821e+35
1.2758685e+35
-4.7691477e+35
-5.4518449e+35
2.2785906e+35
-1.0537923e+37
-2.9890826e+35
-4.7545778e+35
-1.068024e+37
2.6266525e+35
-4.4601384e+35
2.0890937e+35
-1.3480205e+37
-3.2202628e+35
-4.7347142e+35
2.7384137e+35
-1.3731072e+37
-4.5157663e+35
-1.8629152e+35
-1.0573792e+37
2.8612744e+35
-4.670287e+35
-1.0725903e+37
-4.6660097e+35
2.2192001e+35
-1.3804172e+37
-4.3993743e+35
-1.3534739e+37
2.9664463e+35
-4.6146413e+35
-2.2101208e+35
1.0847537e+37
3.3362161e+35
-1.3867999e+37
-4.7159306e+35
1.1015729e+37
-2.4182843e+35
-1.4152758e+37
-3.6915582e+35
-1.9117457e+35
3.2391957e+35
-3.7830415e+35
-2.4742279e+35
-3.258992e+35
-1.8677324e+35
1.0968389e+37
-1.4091969e+37
-4.7953432e+35
1.0828472e+37
-1.3826614e+37
-2.9911487e+35
-4.6936237e+35
2.2447492e+35
-3.1140699e+35
-4.1635883e+35
-4.1095712e+35
1.3966617e+34
2.1843389e+36
-2.7918324e+36
-6.8468341e+34
2.1496392e+36
-2.7386905e+36
-6.2482127e+34
-9.1195554e+33
-5.1211249e+34
-5.7325152e+34
4.2065558e+34
2.1481532e+36
-2.576431e+36
-2.981974e+35
2.184076e+36
5.8523141e+34
-2.6531425e+36
-2.9401247e+35
2.9590254e+34
-1.4948584e+35
3.1069529e+34
-1.4188108e+35
1.927058e+34
-2.1896702e+36
-1.4909662e+35
-2.1689647e+36
3.0941534e+34
-1.4209607e+35
4.4581072e+34
-2.6429541e+36
-3.0663109e+35
-2.6181843e+36
5.9990159e+34
-3.0184706e+35
1.6853679e+35
1.7663272e+36
1.78773e+36
-8.4516333e+36
-5.396697e+35
-5.5703886e+35
3.2194553e+33
1.8746765e+34
-1.0387966e+37
2.0673094e+35
-4.9762466e+35
-1.8245616e+35
1.0519605e+37
2.3441275e+35
-1.3510339e+37
-5.0371169e+35
-1.326937e+37
-4.4315222e+35
2.2666369e+35
-4.894169e+35
1.5968604e+35
1.7741811e+36
1.7852635e+36
-8.4782298e+36
-5.4707166e+35
-5.670765e+35
4.6033789e+32
1.4017683e+34
4.1214322e+34
2.1460674e+36
-2.5731611e+36
-2.9487386e+35
2.1738619e+36
5.8007921e+34
-2.6370587e+36
-2.914279e+35
2.5363757e+34
-1.4377788e+35
2.8326306e+34
-1.3665605e+35
1.5545327e+34
-2.1715494e+36
-1.4650498e+35
-2.1459526e+36
-1.4129113e+35
4.3808962e+34
-2.6189587e+36
-3.0264691e+35
-2.5825693e+36
-2.9885292e+35
-1.057226e+37
1.533527e+35
-4.3801515e+35
1.8597306e+35
-1.3589002e+37
-3.802283e+35
1.0395812e+37
-1.3298775e+37
-4.9031655e+35
-4.7697796e+35
-1.6916182e+35
1.7628407e+36
1.772698e+36
-8.3975713e+36
-5.4189212e+35
-5.614919e+35
2.4369443e+33
1.4889801e+34
1.760511e+36
1.7796617e+36
-8.4103438e+36
-5.3234482e+35
-5.4955036e+35
7.5342441e+33
2.2267651e+34
-1.0639025e+37
2.1220407e+35
-3.9577609e+35
1.9798851e+35
-1.3596841e+37
-5.2804986e+35
1.0798991e+37
2.1787386e+35
-1.3877915e+37
-5.2100472e+35
2.25503e+35
-4.4544483e+35
-1.0853835e+37
1.6149805e+35
-4.2440193e+35
1.8457521e+35
-1.395185e+37
-4.9208583e+35
1.0669937e+37
-1.3626903e+37
-5.1355262e+35
-4.3655487e+35
-1.1383143e+37
1.1466087e+35
1.4127252e+37
-1.1996166e+35
-3.182888e+35
6.0677803e+34
-1.453345e+37
-8.7270922e+34
-3.8018174e+35
1.1491968e+37
1.3550609e+35
-1.4725156e+37
-5.5757459e+35
1.4380163e+37
1.6536335e+35
-4.0627984e+35
-1.312057e+35
1.1215532e+37
2.2882228e+35
-4.7958872e+35
1.1081505e+37
-1.8965478e+35
-3.4464187e+35
2.0549195e+35
-2.4754319e+35
-4.4425909e+35
2.4118802e+35
-4.8452946e+35
-1.1267613e+37
1.8593136e+35
-3.4497831e+35
2.135561e+35
-1.4446873e+37
-3.821797e+35
1.1113831e+37
-1.4182286e+37
3.0737866e+35
-4.7390044e+35
3.3340898e+35
-4.1837443e+35
-1.1559185e+37
1.5339138e+35
-3.6089199e+35
1.5804733e+35
-1.484884e+37
-4.2070846e+35
1.1397077e+37
2.1582336e+35
-1.4548577e+37
-3.9237049e+35
2.6867101e+35
-3.4276834e+35
-1.3568501e+35
1.1179249e+37
-1.4308686e+37
-5.9477559e+35
1.1372793e+37
-1.1141163e+35
-1.4621382e+37
-3.9554775e+35
1.2629094e+35
-1.3206441e+35
1.419642e+37
-3.4090124e+35
1.386541e+37
-4.2596998e+35
-1.028421e+35
1.1344158e+37
-1.4583814e+37
-6.247793e+35
1.1177711e+37
-1.4287426e+37
-6.3990183e+35
1.6633357e+35
1.3886312e+37
-5.524311e+35
1.4149337e+37
-5.4734933e+35
-1.0897148e+37
2.344517e+35
-5.7964866e+35
1.7089711e+35
-5.7435198e+35
1.1049554e+37
1.7436515e+35
-5.3942589e+35
1.9378734e+35
-5.2602875e+35
-1.8564937e+35
1.0900433e+37
-5.0985442e+35
1.1091102e+37
-4.5853073e+35
1.4481712e+35
-4.6604049e+35
-5.0765036e+35
5.6487756e+37
6.0166514e+37
1.322708e+37
-1.8930385e+37
-2.0935929e+37
4.8141858e+37
5.1318746e+37
1.0542291e+36
-4.8711786e+37
-1.8169867e+36
2.194043e+36
-3.1481298e+36
-3.1303133e+36
2.5147913e+36
-5.0231748e+37
1.9348812e+36
2.3079702e+36
-3.3872991e+36
-3.0469397e+36
2.3842824e+36
2.4813512e+36
-3.1938194e+36
-5.3241384e+36
3.9089098e+36
-5.0725615e+36
-1.5933855e+36
-5.0076953e+37
1.925467e+36
2.3936986e+36
-3.3882738e+36
-3.0420764e+36
2.3467409e+36
-5.0876282e+37
2.2750279e+36
-3.2984855e+36
-3.3067324e+36
2.4338256e+36
2.7448232e+36
-5.9443725e+37
-5.3570822e+36
-5.8729853e+37
3.4768827e+36
-5.2965666e+36
1.8913541e+37
4.9397999e+37
5.0072134e+37
-2.1160732e+37
-1.169238e+37
3.8495343e+34
-4.2106293e+34
-3.322597e+35
-4.5138492e+34
-1.4905729e+37
-2.6225396e+34
-3.5919334e+35
1.1739299e+37
-1.5077533e+37
3.3953031e+34
-6.5541034e+35
6.9633913e+34
-4.6100674e+35
-1.2043202e+37
-8.4715691e+34
1.6011714e+34
-2.8343606e+35
-1.1093518e+35
-1.5338344e+37
3.3190055e+34
-6.5730597e+35
1.2129849e+37
-8.9179077e+34
-1.5578882e+37
-7.6180316e+35
-6.4814121e+34
-5.7465462e+35
-1.1825794e+37
5.2124682e+34
-3.5918557e+35
2.3558544e+34
-1.5170781e+37
-4.0510998e+35
-1.166561e+37
1.3786398e+35
-4.4360053e+35
-1.490211e+37
5.3759602e+34
-6.3922958e+35
-1.2200654e+37
-7.5955397e+34
-5.5866384e+35
-8.9241955e+34
-1.565696e+37
-7.6510608e+35
1.2046618e+37
-1.53835e+37
-1.4313184e+35
-7.3280779e+35
-5.8758796e+34
-5.5531297e+35
8.4323393e+34
1.2033421e+37
-1.0611897e+35