/*--------------------------------*- C++ -*----------------------------------*\
  =========                 |
  \\      /  F ield         | OpenFOAM: The Open Source CFD Toolbox
   \\    /   O peration     | Website:  https://openfoam.org
    \\  /    A nd           | Version:  7
     \\/     M anipulation  |
\*---------------------------------------------------------------------------*/
FoamFile
{
    version     2.0;
    format      ascii;
    class       volScalarField;
    location    "7000";
    object      pMean;
}
// * * * * * * * * * * * * * * * * * * * * * * * * * * * * * * * * * * * * * //

dimensions      [0 2 -2 0 0 0 0];

internalField   nonuniform List<scalar> 
34387
(
-2.8955114e+81
-2.8941781e+81
-2.8083185e+81
-2.8121269e+81
-2.8339106e+81
-2.8933468e+81
-2.8943591e+81
-2.8061559e+81
-2.8083566e+81
-2.9812895e+81
-2.9812631e+81
-2.9320325e+81
-2.9309176e+81
-2.8882971e+81
-2.8869072e+81
-2.9309537e+81
-2.9822819e+81
-2.9820965e+81
-2.9321836e+81
-2.889597e+81
-2.8874211e+81
-2.7397489e+81
-2.859414e+81
-2.8134411e+81
-2.8141121e+81
-2.8566947e+81
-2.8570822e+81
-2.8142329e+81
-2.8153023e+81
-2.8564532e+81
-2.7456679e+81
-2.6934728e+81
-2.6979212e+81
-2.575227e+81
-2.8943373e+81
-2.8936656e+81
-2.8063682e+81
-2.8061239e+81
-2.821035e+81
-2.8180354e+81
-2.8629757e+81
-2.8625627e+81
-2.9309279e+81
-2.886564e+81
-2.8867605e+81
-2.9322143e+81
-2.9310695e+81
-2.9317516e+81
-2.8862773e+81
-2.8873161e+81
-2.8567516e+81
-2.8128e+81
-2.8120856e+81
-2.7348018e+81
-2.8565574e+81
-2.7379361e+81
-2.856913e+81
-2.8129396e+81
-2.8138306e+81
-2.8563318e+81
-2.6868411e+81
-2.689674e+81
-2.9841313e+81
-2.9837316e+81
-2.9505751e+81
-2.9754141e+81
-2.9757747e+81
-2.983693e+81
-2.9509377e+81
-2.9755935e+81
-2.9754058e+81
-2.9317291e+81
-2.93141e+81
-2.9758132e+81
-2.951353e+81
-2.9757383e+81
-2.9512292e+81
-2.93121e+81
-2.9315511e+81
-2.9066942e+81
-2.8884978e+81
-2.9070601e+81
-2.8890339e+81
-2.887982e+81
-2.8892287e+81
-2.9072929e+81
-2.9066524e+81
-2.950186e+81
-2.9508824e+81
-2.930484e+81
-2.9295158e+81
-3.0000698e+81
-2.9844047e+81
-2.9840404e+81
-2.976072e+81
-2.9512332e+81
-2.9758439e+81
-2.9839801e+81
-2.9841088e+81
-2.9509009e+81
-2.9759132e+81
-2.9757446e+81
-2.9313938e+81
-2.9308555e+81
-2.8873868e+81
-2.9062881e+81
-2.9071121e+81
-2.8884944e+81
-2.8884344e+81
-2.8880886e+81
-2.9068819e+81
-2.9066543e+81
-2.7455791e+81
-2.7804248e+81
-2.7853779e+81
-2.7463042e+81
-2.8646988e+81
-2.850254e+81
-2.8661681e+81
-2.8513366e+81
-2.8182583e+81
-2.8184398e+81
-2.8394556e+81
-2.8406531e+81
-2.8161954e+81
-2.8371264e+81
-2.834993e+81
-2.816483e+81
-2.8491221e+81
-2.8656008e+81
-2.8649804e+81
-2.8483544e+81
-2.8487124e+81
-2.8478788e+81
-2.8645988e+81
-2.8655454e+81
-2.8159694e+81
-2.8157004e+81
-2.7862427e+81
-2.8365496e+81
-2.8354148e+81
-2.8159141e+81
-2.8167833e+81
-2.7874559e+81
-2.8356769e+81
-2.8366578e+81
-2.865901e+81
-2.8488939e+81
-2.8480264e+81
-2.8645992e+81
-2.7490813e+81
-2.7548556e+81
-2.6293564e+81
-2.6354978e+81
-2.9991164e+81
-2.5568722e+81
-2.5692818e+81
-2.9339278e+81
-2.9346461e+81
-2.8899491e+81
-2.8886495e+81
-2.9329364e+81
-2.9320047e+81
-2.8884543e+81
-2.8865044e+81
-2.8597129e+81
-2.8153416e+81
-2.8124275e+81
-2.8578118e+81
-2.7322438e+81
-2.8578828e+81
-2.8126094e+81
-2.8126297e+81
-2.8563242e+81
-2.7334677e+81
-2.6823429e+81
-2.6844786e+81
-2.9524651e+81
-2.9523315e+81
-2.9324629e+81
-2.9321068e+81
-2.8889198e+81
-2.8889033e+81
-2.907618e+81
-2.9075149e+81
-2.8893904e+81
-2.8898033e+81
-2.90767e+81
-2.9072736e+81
-2.9308595e+81
-2.9310186e+81
-2.9527116e+81
-2.9522725e+81
-2.9519978e+81
-2.9512786e+81
-2.9325788e+81
-2.9317358e+81
-2.9517405e+81
-2.9515645e+81
-2.9322952e+81
-2.931598e+81
-2.8882775e+81
-2.9074173e+81
-2.9060754e+81
-2.8868695e+81
-2.8890582e+81
-2.8886121e+81
-2.9070913e+81
-2.9077123e+81
-2.8511669e+81
-2.8489088e+81
-2.8651443e+81
-2.8663107e+81
-2.7800204e+81
-2.8152129e+81
-2.8366178e+81
-2.8148836e+81
-2.8387278e+81
-2.8140978e+81
-2.8141271e+81
-2.8370111e+81
-2.8356128e+81
-2.7814574e+81
-2.7425913e+81
-2.7405378e+81
-2.866352e+81
-2.8495617e+81
-2.8653115e+81
-2.8484772e+81
-2.7822289e+81
-2.7825109e+81
-2.7415715e+81
-2.7456528e+81
-2.8494108e+81
-2.8483858e+81
-2.8648635e+81
-2.8659577e+81
-2.8148054e+81
-2.8147061e+81
-2.8359848e+81
-2.8371412e+81
-2.8152066e+81
-2.8370771e+81
-2.8376014e+81
-2.8167398e+81
-2.8497297e+81
-2.8491243e+81
-2.865934e+81
-2.8644525e+81
-2.6211886e+81
-2.6244093e+81
-2.9897445e+81
-2.9898899e+81
-2.9906034e+81
-2.990634e+81
-2.990533e+81
-2.9904196e+81
-2.9898186e+81
-2.9896445e+81
-2.9611023e+81
-2.9533131e+81
-2.9529761e+81
-2.9607685e+81
-2.9743037e+81
-2.9744259e+81
-2.9896182e+81
-2.9895628e+81
-2.990497e+81
-2.9904508e+81
-2.9534831e+81
-2.9530889e+81
-2.9608489e+81
-2.9611474e+81
-2.9743595e+81
-2.9743036e+81
-2.9332798e+81
-2.9328989e+81
-2.9402398e+81
-2.9405333e+81
-2.9328081e+81
-2.9329623e+81
-2.9404691e+81
-2.9400047e+81
-2.9744928e+81
-2.9616366e+81
-2.9539642e+81
-2.9539863e+81
-2.9614981e+81
-2.9746958e+81
-2.96169e+81
-2.9541325e+81
-2.9406188e+81
-2.9331957e+81
-2.9329304e+81
-2.9404602e+81
-2.9404985e+81
-2.9331155e+81
-2.9333896e+81
-2.9195473e+81
-2.9130552e+81
-2.9130434e+81
-2.9193649e+81
-2.9004244e+81
-2.8934235e+81
-2.8929545e+81
-2.9002296e+81
-2.9195426e+81
-2.9132139e+81
-2.9133129e+81
-2.9197648e+81
-2.9001843e+81
-2.8931036e+81
-2.8932199e+81
-2.9006866e+81
-2.8932382e+81
-2.8934832e+81
-2.9006702e+81
-2.9006192e+81
-2.8934329e+81
-2.8934706e+81
-2.9009742e+81
-2.9005402e+81
-2.9197563e+81
-2.9130422e+81
-2.9129608e+81
-2.919544e+81
-2.9131397e+81
-2.9131117e+81
-2.9199119e+81
-2.9199632e+81
-2.9616315e+81
-2.9611215e+81
-2.9539667e+81
-2.9535662e+81
-2.9610798e+81
-2.9609129e+81
-2.9532925e+81
-2.9535631e+81
-2.9329793e+81
-2.9323546e+81
-2.9403034e+81
-2.9399707e+81
-2.9324012e+81
-2.9329751e+81
-2.9406727e+81
-2.9398999e+81
-2.9996038e+81
-2.9996009e+81
-3.0022652e+81
-3.0021949e+81
-2.9898561e+81
-2.9898235e+81
-2.9907368e+81
-2.9906426e+81
-2.990547e+81
-2.9905301e+81
-2.9898454e+81
-2.9898849e+81
-2.9745687e+81
-2.9616552e+81
-2.9538811e+81
-2.9540272e+81
-2.9614621e+81
-2.9746231e+81
-2.9899827e+81
-2.9901203e+81
-2.9906123e+81
-2.9906352e+81
-2.9906266e+81
-2.9905388e+81
-2.9900968e+81
-2.9898919e+81
-2.9614372e+81
-2.9537847e+81
-2.9536e+81
-2.9613948e+81
-2.9746178e+81
-2.9745664e+81
-2.9406554e+81
-2.9334702e+81
-2.9329812e+81
-2.9403628e+81
-2.9400268e+81
-2.9326573e+81
-2.9326924e+81
-2.9401753e+81
-2.8999807e+81
-2.8925888e+81
-2.892588e+81
-2.8994219e+81
-2.9119899e+81
-2.9125663e+81
-2.9196815e+81
-2.9187373e+81
-2.9184646e+81
-2.9117807e+81
-2.9125472e+81
-2.9192222e+81
-2.8991346e+81
-2.892262e+81
-2.8930007e+81
-2.9003855e+81
-2.8930601e+81
-2.8927627e+81
-2.9000509e+81
-2.9000953e+81
-2.8927602e+81
-2.8930086e+81
-2.900525e+81
-2.9000608e+81
-2.9198272e+81
-2.9128932e+81
-2.9126501e+81
-2.9194293e+81
-2.91252e+81
-2.9123773e+81
-2.9190784e+81
-2.9191693e+81
-2.7344788e+81
-2.8052015e+81
-2.8075194e+81
-2.8138269e+81
-2.8099684e+81
-2.8047541e+81
-2.8071424e+81
-2.8111434e+81
-2.8149414e+81
-2.7337461e+81
-2.8790198e+81
-2.8718231e+81
-2.8724477e+81
-2.8789736e+81
-2.8599296e+81
-2.851065e+81
-2.8518681e+81
-2.8604986e+81
-2.8786785e+81
-2.8721441e+81
-2.8791733e+81
-2.872458e+81
-2.8599906e+81
-2.8515417e+81
-2.8518366e+81
-2.8606625e+81
-2.8232499e+81
-2.8251927e+81
-2.8295544e+81
-2.8277973e+81
-2.8260817e+81
-2.8238273e+81
-2.8268572e+81
-2.8303156e+81
-2.8362614e+81
-2.8294278e+81
-2.8321274e+81
-2.8384207e+81
-2.8311648e+81
-2.8312159e+81
-2.8381232e+81
-2.838233e+81
-2.8198478e+81
-2.8209382e+81
-2.8241701e+81
-2.8258151e+81
-2.8376368e+81
-2.8297775e+81
-2.8311807e+81
-2.8381251e+81
-2.8366243e+81
-2.8295367e+81
-2.8354398e+81
-2.8290371e+81
-2.8241653e+81
-2.8211142e+81
-2.8230931e+81
-2.8188235e+81
-2.8611219e+81
-2.8521069e+81
-2.8522267e+81
-2.8609105e+81
-2.8722942e+81
-2.8726338e+81
-2.8801372e+81
-2.8795448e+81
-2.878837e+81
-2.8720597e+81
-2.8717965e+81
-2.8791755e+81
-2.8607186e+81
-2.8516957e+81
-2.8511514e+81
-2.8606017e+81
-2.8511367e+81
-2.8517025e+81
-2.8605216e+81
-2.8602543e+81
-2.8512877e+81
-2.8513351e+81
-2.860492e+81
-2.8601763e+81
-2.8798943e+81
-2.8724753e+81
-2.8724974e+81
-2.8797415e+81
-2.8726244e+81
-2.8727334e+81
-2.8799466e+81
-2.8800043e+81
-2.8045288e+81
-2.8185165e+81
-2.8213917e+81
-2.8246865e+81
-2.8194984e+81
-2.8063703e+81
-2.8191433e+81
-2.8231384e+81
-2.8231273e+81
-2.8187964e+81
-2.8154193e+81
-2.8135667e+81
-2.8292223e+81
-2.8290917e+81
-2.837645e+81
-2.8371691e+81
-2.8300101e+81
-2.8278814e+81
-2.8363993e+81
-2.8376e+81
-2.8069342e+81
-2.8186563e+81
-2.8218196e+81
-2.8238049e+81
-2.8192458e+81
-2.8061138e+81
-2.8199378e+81
-2.8223105e+81
-2.8216708e+81
-2.8186182e+81
-2.8153297e+81
-2.820773e+81
-2.8283243e+81
-2.8287202e+81
-2.8374019e+81
-2.8364421e+81
-2.8294628e+81
-2.8282936e+81
-2.8370332e+81
-2.8373938e+81
-2.8800645e+81
-2.8731483e+81
-2.8725081e+81
-2.8799037e+81
-2.8608598e+81
-2.8516411e+81
-2.8513774e+81
-2.8605157e+81
-2.8508879e+81
-2.851742e+81
-2.8607442e+81
-2.8602787e+81
-2.8801678e+81
-2.8726958e+81
-2.872406e+81
-2.8799964e+81
-2.7366286e+81
-2.7435626e+81
-2.6050097e+81
-2.6119293e+81
-2.9080789e+81
-3.0047379e+81
-3.0555202e+81
-3.0581998e+81
-3.0073233e+81
-3.1049151e+81
-3.1061838e+81
-2.550333e+81
-2.6299255e+81
-2.6229172e+81
-2.5644857e+81
-2.9545719e+81
-2.954879e+81
-2.9344067e+81
-2.9352956e+81
-2.9545587e+81
-2.9541352e+81
-2.9351484e+81
-2.9350006e+81
-2.9103197e+81
-2.8924454e+81
-2.891963e+81
-2.9106247e+81
-2.89063e+81
-2.9099977e+81
-2.9093915e+81
-2.8905442e+81
-2.9532226e+81
-2.9531419e+81
-2.9336114e+81
-2.9337228e+81
-2.9533057e+81
-2.9530735e+81
-2.9339547e+81
-2.9339341e+81
-2.8902327e+81
-2.8901059e+81
-2.9086991e+81
-2.9089709e+81
-2.8892211e+81
-2.9085787e+81
-2.9079033e+81
-2.888872e+81
-2.8678645e+81
-2.8521143e+81
-2.8526481e+81
-2.8686983e+81
-2.8172168e+81
-2.8185712e+81
-2.8398129e+81
-2.8400795e+81
-2.7814762e+81
-2.8388969e+81
-2.8165949e+81
-2.8152853e+81
-2.837279e+81
-2.7807968e+81
-2.8514172e+81
-2.8500304e+81
-2.8682069e+81
-2.867051e+81
-2.7402531e+81
-2.7380476e+81
-2.8494806e+81
-2.8662059e+81
-2.8506396e+81
-2.8669799e+81
-2.8151627e+81
-2.8153867e+81
-2.8372657e+81
-2.7805851e+81
-2.8384315e+81
-2.8157938e+81
-2.815517e+81
-2.7805504e+81
-2.8379362e+81
-2.8362978e+81
-2.848765e+81
-2.8498985e+81
-2.8666276e+81
-2.8655433e+81
-2.7383334e+81
-2.7425518e+81
-2.6159812e+81
-2.6183166e+81
-2.9637937e+81
-2.9560804e+81
-2.956099e+81
-2.9641158e+81
-2.9638561e+81
-2.956218e+81
-2.9561993e+81
-2.9638025e+81
-2.9430024e+81
-2.9357762e+81
-2.9352047e+81
-2.9426924e+81
-2.942254e+81
-2.9347976e+81
-2.9347623e+81
-2.9424622e+81
-2.8942441e+81
-2.894325e+81
-2.9017945e+81
-2.9017073e+81
-2.8946166e+81
-2.8955948e+81
-2.9029752e+81
-2.9021335e+81
-2.9222113e+81
-2.915529e+81
-2.9149353e+81
-2.9216348e+81
-2.914312e+81
-2.9145177e+81
-2.9212462e+81
-2.9211523e+81
-2.8945007e+81
-2.8941864e+81
-2.9013836e+81
-2.9016943e+81
-2.89443e+81
-2.8943636e+81
-2.9017761e+81
-2.9013181e+81
-2.9206834e+81
-2.9139176e+81
-2.9136669e+81
-2.9201981e+81
-2.920109e+81
-2.9135246e+81
-2.9140648e+81
-2.9206836e+81
-2.9341194e+81
-2.9337465e+81
-2.9418391e+81
-2.9420218e+81
-2.9338338e+81
-2.9343163e+81
-2.9423966e+81
-2.94179e+81
-2.9644487e+81
-2.9559554e+81
-2.9555959e+81
-2.9639992e+81
-2.955582e+81
-2.955497e+81
-2.9639244e+81
-2.9638919e+81
-2.9626523e+81
-2.9621973e+81
-2.9552122e+81
-2.9548151e+81
-2.9616574e+81
-2.961582e+81
-2.9539336e+81
-2.9540682e+81
-2.9418351e+81
-2.9346869e+81
-2.9411829e+81
-2.9342594e+81
-2.9339404e+81
-2.9410378e+81
-2.9409918e+81
-2.9337118e+81
-2.9625375e+81
-2.9626188e+81
-2.9552555e+81
-2.9551336e+81
-2.9553289e+81
-2.9556766e+81
-2.9635913e+81
-2.9630015e+81
-2.9346481e+81
-2.9342933e+81
-2.9418396e+81
-2.9419458e+81
-2.9343083e+81
-2.9345091e+81
-2.9421866e+81
-2.9418098e+81
-2.8936839e+81
-2.8942343e+81
-2.9016402e+81
-2.9010879e+81
-2.9212768e+81
-2.9143606e+81
-2.9141188e+81
-2.9208087e+81
-2.9203089e+81
-2.9138419e+81
-2.919836e+81
-2.9134131e+81
-2.9003785e+81
-2.8930916e+81
-2.8929776e+81
-2.9004752e+81
-2.8942397e+81
-2.8937364e+81
-2.9011835e+81
-2.901636e+81
-2.8940112e+81
-2.894081e+81
-2.9016278e+81
-2.9013541e+81
-2.9142157e+81
-2.9142548e+81
-2.9210418e+81
-2.9208146e+81
-2.920701e+81
-2.9140355e+81
-2.9144461e+81
-2.9212065e+81
-2.8528354e+81
-2.8523772e+81
-2.8615557e+81
-2.8619292e+81
-2.8536472e+81
-2.8533207e+81
-2.8622636e+81
-2.8619919e+81
-2.8820876e+81
-2.8745985e+81
-2.874136e+81
-2.8814109e+81
-2.8807518e+81
-2.8732676e+81
-2.8734417e+81
-2.8810115e+81
-2.8022505e+81
-2.8125476e+81
-2.8070612e+81
-2.8033426e+81
-2.8228862e+81
-2.8208476e+81
-2.826102e+81
-2.8286616e+81
-2.8320086e+81
-2.8384924e+81
-2.8395928e+81
-2.833652e+81
-2.8302834e+81
-2.824124e+81
-2.8228005e+81
-2.8286387e+81
-2.8317014e+81
-2.8326966e+81
-2.8391755e+81
-2.839139e+81
-2.8015986e+81
-2.8184312e+81
-2.820717e+81
-2.8254352e+81
-2.8246282e+81
-2.803136e+81
-2.8201535e+81
-2.8206708e+81
-2.8272602e+81
-2.827474e+81
-2.8388782e+81
-2.8323159e+81
-2.8329749e+81
-2.8398586e+81
-2.8314899e+81
-2.8314485e+81
-2.8394607e+81
-2.8387675e+81
-2.8065409e+81
-2.8102136e+81
-2.7288957e+81
-2.7260631e+81
-2.8809708e+81
-2.87399e+81
-2.8739471e+81
-2.8809186e+81
-2.8620653e+81
-2.8531089e+81
-2.8537425e+81
-2.8623283e+81
-2.8806123e+81
-2.874269e+81
-2.8736478e+81
-2.8808778e+81
-2.8621838e+81
-2.8536433e+81
-2.8530751e+81
-2.8618017e+81
-2.8022568e+81
-2.8039929e+81
-2.8109295e+81
-2.8089028e+81
-2.8048102e+81
-2.8102011e+81
-2.8151876e+81
-2.8040032e+81
-2.7275167e+81
-2.733407e+81
-2.8527753e+81
-2.8533165e+81
-2.8614847e+81
-2.8614214e+81
-2.8531327e+81
-2.8529182e+81
-2.8614191e+81
-2.8615207e+81
-2.8736366e+81
-2.8734428e+81
-2.8808627e+81
-2.8807272e+81
-2.8803185e+81
-2.8732964e+81
-2.8735635e+81
-2.880999e+81
-2.8194988e+81
-2.8200041e+81
-2.8252802e+81
-2.8257716e+81
-2.8195705e+81
-2.8189904e+81
-2.8232764e+81
-2.826583e+81
-2.8380646e+81
-2.8300204e+81
-2.8324989e+81
-2.8393502e+81
-2.838993e+81
-2.8312936e+81
-2.8318307e+81
-2.8385629e+81
-2.8221497e+81
-2.8199878e+81
-2.8263622e+81
-2.8278545e+81
-2.8319779e+81
-2.8316982e+81
-2.8381008e+81
-2.8380082e+81
-2.8356828e+81
-2.8313937e+81
-2.8295193e+81
-2.8358849e+81
-2.8303008e+81
-2.8252118e+81
-2.822827e+81
-2.8268659e+81
-2.8512328e+81
-2.8511812e+81
-2.8612048e+81
-2.8606321e+81
-2.8526016e+81
-2.8525624e+81
-2.8617026e+81
-2.861683e+81
-2.8810401e+81
-2.8735088e+81
-2.8732391e+81
-2.8805394e+81
-2.8718171e+81
-2.872066e+81
-2.8796551e+81
-2.8795514e+81
-2.5948733e+81
-2.5985913e+81
-2.987e+81
-2.9870099e+81
-2.9898687e+81
-2.9898912e+81
-2.9898213e+81
-2.9897813e+81
-2.9870166e+81
-2.9869087e+81
-2.9630239e+81
-2.9527227e+81
-2.9525449e+81
-2.9628521e+81
-2.9721928e+81
-2.9722218e+81
-2.9777088e+81
-2.9777192e+81
-2.9722729e+81
-2.9722619e+81
-2.9777085e+81
-2.9777694e+81
-2.9869618e+81
-2.9868347e+81
-2.9898955e+81
-2.9898649e+81
-2.9529089e+81
-2.952668e+81
-2.9629183e+81
-2.9630514e+81
-2.9723181e+81
-2.972228e+81
-2.977699e+81
-2.9777904e+81
-2.9722167e+81
-2.9721902e+81
-2.9776685e+81
-2.9776932e+81
-2.932403e+81
-2.9321815e+81
-2.9419068e+81
-2.9421119e+81
-2.9320076e+81
-2.9319972e+81
-2.9418838e+81
-2.9417022e+81
-2.9633592e+81
-2.9724357e+81
-2.9723136e+81
-2.9777544e+81
-2.9778763e+81
-2.9532806e+81
-2.9534251e+81
-2.9635216e+81
-2.9725742e+81
-2.9724956e+81
-2.977906e+81
-2.9780027e+81
-2.96356e+81
-2.953562e+81
-2.9423485e+81
-2.9324133e+81
-2.9324174e+81
-2.9424719e+81
-2.9425057e+81
-2.9324868e+81
-2.9325734e+81
-2.9214352e+81
-2.9128547e+81
-2.9128702e+81
-2.9215354e+81
-2.9027901e+81
-2.8932717e+81
-2.8930988e+81
-2.9028783e+81
-2.9216896e+81
-2.9132507e+81
-2.9131628e+81
-2.9218669e+81
-2.9029994e+81
-2.8932418e+81
-2.8934441e+81
-2.9032328e+81
-2.8935064e+81
-2.8936361e+81
-2.9034674e+81
-2.9032001e+81
-2.8936288e+81
-2.8937569e+81
-2.9032746e+81
-2.9033165e+81
-2.9218018e+81
-2.9131565e+81
-2.9132381e+81
-2.9217815e+81
-2.9131338e+81
-2.9133164e+81
-2.9219623e+81
-2.9220034e+81
-2.9636754e+81
-2.9632863e+81
-2.9533396e+81
-2.9529382e+81
-2.9630017e+81
-2.9631336e+81
-2.952835e+81
-2.9528298e+81
-2.9320349e+81
-2.9318977e+81
-2.9419024e+81
-2.9418809e+81
-2.9318419e+81
-2.9323304e+81
-2.9424031e+81
-2.9419084e+81
-2.99636e+81
-2.9963645e+81
-3.0030128e+81
-3.0029601e+81
-2.9871701e+81
-2.9871006e+81
-2.989951e+81
-2.9899255e+81
-2.9898609e+81
-2.989857e+81
-2.9871202e+81
-2.9871534e+81
-2.9633112e+81
-2.9724367e+81
-2.9724122e+81
-2.977931e+81
-2.9779621e+81
-2.9531892e+81
-2.9532171e+81
-2.963354e+81
-2.9724749e+81
-2.9724846e+81
-2.9779606e+81
-2.977975e+81
-2.9871883e+81
-2.9871774e+81
-2.9899738e+81
-2.9899907e+81
-2.989919e+81
-2.9898554e+81
-2.9871789e+81
-2.9870679e+81
-2.9633273e+81
-2.9531026e+81
-2.9528476e+81
-2.9632148e+81
-2.9723911e+81
-2.9724528e+81
-2.9778926e+81
-2.9778795e+81
-2.9724418e+81
-2.9724165e+81
-2.9778848e+81
-2.9779295e+81
-2.9422573e+81
-2.9323961e+81
-2.932161e+81
-2.9421977e+81
-2.9419297e+81
-2.9318844e+81
-2.9317994e+81
-2.9418389e+81
-2.9025954e+81
-2.8932923e+81
-2.8927184e+81
-2.901949e+81
-2.9122238e+81
-2.9129408e+81
-2.9218401e+81
-2.9211727e+81
-2.9210499e+81
-2.9121152e+81
-2.9123001e+81
-2.9212298e+81
-2.9018901e+81
-2.8929119e+81
-2.893194e+81
-2.9023621e+81
-2.8929132e+81
-2.8929274e+81
-2.9024174e+81
-2.9024569e+81
-2.8927825e+81
-2.8930993e+81
-2.9028083e+81
-2.9025032e+81
-2.9217448e+81
-2.912738e+81
-2.9125474e+81
-2.9215342e+81
-2.9125028e+81
-2.9124164e+81
-2.9212036e+81
-2.9211626e+81
-2.7203605e+81
-2.8287222e+81
-2.8240431e+81
-2.8134797e+81
-2.8372715e+81
-2.8341477e+81
-2.8163099e+81
-2.8154904e+81
-2.8327388e+81
-2.8362341e+81
-2.8138927e+81
-2.8115118e+81
-2.8303076e+81
-2.8335716e+81
-2.8090759e+81
-2.8130818e+81
-2.8357722e+81
-2.8303353e+81
-2.8112521e+81
-2.82396e+81
-2.8266199e+81
-2.7172268e+81
-2.8831688e+81
-2.8751529e+81
-2.8745734e+81
-2.8827849e+81
-2.8652539e+81
-2.8559134e+81
-2.8560808e+81
-2.8649659e+81
-2.8828334e+81
-2.8751724e+81
-2.8828445e+81
-2.8746598e+81
-2.8648653e+81
-2.8561931e+81
-2.856494e+81
-2.8651892e+81
-2.8399148e+81
-2.8408959e+81
-2.8475598e+81
-2.8470849e+81
-2.8421188e+81
-2.8406854e+81
-2.8462656e+81
-2.8482223e+81
-2.8456496e+81
-2.8433773e+81
-2.8449634e+81
-2.8465549e+81
-2.8448671e+81
-2.8447833e+81
-2.8467691e+81
-2.8470753e+81
-2.8377785e+81
-2.837242e+81
-2.8441744e+81
-2.8455169e+81
-2.8467833e+81
-2.8439381e+81
-2.8445476e+81
-2.8467661e+81
-2.8462332e+81
-2.8429364e+81
-2.8452806e+81
-2.8428679e+81
-2.8422498e+81
-2.8369029e+81
-2.8430552e+81
-2.8366661e+81
-2.86527e+81
-2.8566852e+81
-2.8562497e+81
-2.8645595e+81
-2.8739253e+81
-2.8749886e+81
-2.8833394e+81
-2.8826574e+81
-2.8824274e+81
-2.87371e+81
-2.8736163e+81
-2.8825236e+81
-2.8644332e+81
-2.8569298e+81
-2.8565008e+81
-2.864367e+81
-2.855375e+81
-2.8554029e+81
-2.8644407e+81
-2.8644962e+81
-2.8551806e+81
-2.8553954e+81
-2.8643958e+81
-2.8643139e+81
-2.882885e+81
-2.874148e+81
-2.8743545e+81
-2.8829099e+81
-2.8746094e+81
-2.8744483e+81
-2.8830273e+81
-2.8832067e+81
-2.8098305e+81
-2.8336417e+81
-2.8295228e+81
-2.8106621e+81
-2.8352789e+81
-2.8418431e+81
-2.8440508e+81
-2.837304e+81
-2.8106972e+81
-2.8300314e+81
-2.8340253e+81
-2.8099478e+81
-2.8353875e+81
-2.842635e+81
-2.8430465e+81
-2.8363029e+81
-2.8269474e+81
-2.825611e+81
-2.8436073e+81
-2.8432219e+81
-2.846108e+81
-2.8460942e+81
-2.844148e+81
-2.8425566e+81
-2.8457163e+81
-2.8460704e+81
-2.8105868e+81
-2.8349924e+81
-2.8311776e+81
-2.8108974e+81
-2.8354335e+81
-2.8417965e+81
-2.8431997e+81
-2.8372528e+81
-2.8122197e+81
-2.8336995e+81
-2.8375323e+81
-2.8101645e+81
-2.8366096e+81
-2.8418426e+81
-2.8421405e+81
-2.8369737e+81
-2.8277666e+81
-2.8343088e+81
-2.8428309e+81
-2.8425377e+81
-2.8455911e+81
-2.8453537e+81
-2.8435399e+81
-2.8425634e+81
-2.8458471e+81
-2.845879e+81
-2.8832706e+81
-2.87451e+81
-2.8745192e+81
-2.8833435e+81
-2.8646215e+81
-2.8556167e+81
-2.8555647e+81
-2.8645784e+81
-2.8553862e+81
-2.8554599e+81
-2.8645464e+81
-2.8646727e+81
-2.8834084e+81
-2.8745015e+81
-2.8747078e+81
-2.8834317e+81
-2.720519e+81
-2.7301364e+81
-2.7171377e+81
-2.7143222e+81
-2.7177787e+81
-2.7276024e+81
-2.6771614e+81
-2.6432724e+81
-2.6487804e+81
-2.6823022e+81
-2.8317112e+81
-2.8232415e+81
-2.9009234e+81
-2.9055677e+81
-2.8181459e+81
-2.907713e+81
-2.9041744e+81
-2.9491688e+81
-2.9516681e+81
-3.0463964e+81
-3.0477432e+81
-2.8258661e+81
-2.9084594e+81
-3.1289401e+81
-3.1291574e+81
-3.129171e+81
-3.1542091e+81
-3.1538914e+81
-3.1298599e+81
-2.5447198e+81
-2.6125039e+81
-2.6165159e+81
-2.7365328e+81
-2.7364743e+81
-2.7430177e+81
-2.7431718e+81
-2.732275e+81
-2.7332336e+81
-2.7331397e+81
-2.7335226e+81
-2.9579604e+81
-2.9582412e+81
-2.9661176e+81
-2.9655759e+81
-2.9580107e+81
-2.9655102e+81
-2.9653168e+81
-2.9581815e+81
-2.945046e+81
-2.9377464e+81
-2.9373746e+81
-2.9446469e+81
-2.9376512e+81
-2.9374161e+81
-2.9449071e+81
-2.9447993e+81
-2.9652576e+81
-2.9582025e+81
-2.9647077e+81
-2.957609e+81
-2.9568141e+81
-2.9569286e+81
-2.964431e+81
-2.9643704e+81
-2.9369747e+81
-2.9369425e+81
-2.9440784e+81
-2.9440073e+81
-2.9371608e+81
-2.9376939e+81
-2.9448732e+81
-2.9442303e+81
-2.9238983e+81
-2.917351e+81
-2.9170667e+81
-2.9234298e+81
-2.9049202e+81
-2.8982859e+81
-2.8980909e+81
-2.9046913e+81
-2.8974374e+81
-2.8974214e+81
-2.9044844e+81
-2.9046855e+81
-2.9237097e+81
-2.9171652e+81
-2.9174969e+81
-2.9242046e+81
-2.8968162e+81
-2.8970438e+81
-2.9044164e+81
-2.903985e+81
-2.917054e+81
-2.9173369e+81
-2.9242374e+81
-2.9236884e+81
-2.9234547e+81
-2.9170947e+81
-2.916848e+81
-2.9233416e+81
-2.9036822e+81
-2.8966944e+81
-2.8969363e+81
-2.9040715e+81
-2.9642684e+81
-2.9569498e+81
-2.9569614e+81
-2.9642714e+81
-2.9645427e+81
-2.95709e+81
-2.9569712e+81
-2.964366e+81
-2.9438895e+81
-2.9368485e+81
-2.9362197e+81
-2.9435678e+81
-2.9432994e+81
-2.9361514e+81
-2.9363786e+81
-2.9436495e+81
-2.964097e+81
-2.9569084e+81
-2.9565224e+81
-2.9638123e+81
-2.9559798e+81
-2.9559942e+81
-2.9635094e+81
-2.9635717e+81
-2.9361326e+81
-2.9360396e+81
-2.9431518e+81
-2.943175e+81
-2.9361081e+81
-2.9364801e+81
-2.9437771e+81
-2.9432285e+81
-2.8955467e+81
-2.8954438e+81
-2.9027203e+81
-2.9030397e+81
-2.8960556e+81
-2.8966667e+81
-2.9037299e+81
-2.9031635e+81
-2.923086e+81
-2.9164499e+81
-2.9160211e+81
-2.9226659e+81
-2.9160476e+81
-2.9158216e+81
-2.9225264e+81
-2.9228599e+81
-2.8955228e+81
-2.8960347e+81
-2.903298e+81
-2.902863e+81
-2.9230251e+81
-2.9161654e+81
-2.9159762e+81
-2.9226664e+81
-2.92255e+81
-2.9161861e+81
-2.9159169e+81
-2.9224292e+81
-2.9026664e+81
-2.8956084e+81
-2.8956216e+81
-2.9030069e+81
-2.8850632e+81
-2.8788605e+81
-2.8784163e+81
-2.8845897e+81
-2.8664326e+81
-2.8580508e+81
-2.8584848e+81
-2.866495e+81
-2.8570183e+81
-2.8579441e+81
-2.8656872e+81
-2.8651336e+81
-2.8839705e+81
-2.8772666e+81
-2.8768754e+81
-2.8841889e+81
-2.8054851e+81
-2.8231989e+81
-2.8248249e+81
-2.8305652e+81
-2.8303175e+81
-2.8052083e+81
-2.8256164e+81
-2.825518e+81
-2.8296345e+81
-2.8328532e+81
-2.8384711e+81
-2.8357078e+81
-2.8433271e+81
-2.844731e+81
-2.8435763e+81
-2.8363994e+81
-2.8364448e+81
-2.8425805e+81
-2.8147831e+81
-2.8095334e+81
-2.8405031e+81
-2.8355652e+81
-2.8361971e+81
-2.8420478e+81
-2.8035191e+81
-2.8304838e+81
-2.8231991e+81
-2.82277e+81
-2.8310994e+81
-2.8013356e+81
-2.8208759e+81
-2.8230802e+81
-2.8290001e+81
-2.8279767e+81
-2.8420829e+81
-2.8346909e+81
-2.834529e+81
-2.8415166e+81
-2.8072651e+81
-2.8096902e+81
-2.8649666e+81
-2.856051e+81
-2.8568761e+81
-2.8652699e+81
-2.8558592e+81
-2.8564355e+81
-2.8646722e+81
-2.8651253e+81
-2.876474e+81
-2.8761867e+81
-2.8838756e+81
-2.8835706e+81
-2.8765167e+81
-2.8835664e+81
-2.8837026e+81
-2.8764342e+81
-2.7274437e+81
-2.7231931e+81
-2.85551e+81
-2.8552817e+81
-2.8640947e+81
-2.8636805e+81
-2.8763109e+81
-2.8835215e+81
-2.8827849e+81
-2.8759591e+81
-2.863202e+81
-2.8552853e+81
-2.8549736e+81
-2.8630384e+81
-2.8751182e+81
-2.8757402e+81
-2.882751e+81
-2.8824158e+81
-2.803097e+81
-2.8210383e+81
-2.8217627e+81
-2.8276868e+81
-2.8279027e+81
-2.8016625e+81
-2.821675e+81
-2.821044e+81
-2.8264032e+81
-2.8295157e+81
-2.8352387e+81
-2.8328599e+81
-2.8407573e+81
-2.8418662e+81
-2.8095594e+81
-2.8071149e+81
-2.8337299e+81
-2.8412639e+81
-2.8407671e+81
-2.8341327e+81
-2.8027889e+81
-2.820882e+81
-2.8228032e+81
-2.826039e+81
-2.8265473e+81
-2.803797e+81
-2.8217472e+81
-2.8215264e+81
-2.8283177e+81
-2.8262738e+81
-2.8081328e+81
-2.8135922e+81
-2.8324101e+81
-2.8401703e+81
-2.840659e+81
-2.8339568e+81
-2.8324169e+81
-2.8401115e+81
-2.8388604e+81
-2.8323039e+81
-2.853701e+81
-2.8546945e+81
-2.8634114e+81
-2.8629261e+81
-2.8547516e+81
-2.8547903e+81
-2.8634624e+81
-2.863468e+81
-2.8827089e+81
-2.8752745e+81
-2.8750656e+81
-2.8823113e+81
-2.8748963e+81
-2.8752968e+81
-2.8824119e+81
-2.8824292e+81
-2.7233399e+81
-2.7287431e+81
-2.5887005e+81
-2.5911403e+81
-2.9659642e+81
-2.9557865e+81
-2.9556182e+81
-2.9660946e+81
-2.965926e+81
-2.9558848e+81
-2.9557419e+81
-2.9659124e+81
-2.9449814e+81
-2.9350666e+81
-2.9345292e+81
-2.944703e+81
-2.9444548e+81
-2.9342951e+81
-2.9340694e+81
-2.9443445e+81
-2.8945283e+81
-2.8949311e+81
-2.9048131e+81
-2.9043073e+81
-2.894888e+81
-2.8958423e+81
-2.9057119e+81
-2.9048126e+81
-2.9243925e+81
-2.9157575e+81
-2.9149774e+81
-2.9237824e+81
-2.9144193e+81
-2.9149273e+81
-2.9235508e+81
-2.9232417e+81
-2.8944058e+81
-2.8945489e+81
-2.9039457e+81
-2.9042172e+81
-2.8942862e+81
-2.8946476e+81
-2.9041699e+81
-2.9038678e+81
-2.9228669e+81
-2.9141351e+81
-2.9139133e+81
-2.9225609e+81
-2.9225323e+81
-2.9138877e+81
-2.9142697e+81
-2.9228408e+81
-2.9336503e+81
-2.9335525e+81
-2.9439195e+81
-2.9439217e+81
-2.9335244e+81
-2.9338537e+81
-2.9442083e+81
-2.9438803e+81
-2.966332e+81
-2.9555058e+81
-2.9553069e+81
-2.9661595e+81
-2.9551962e+81
-2.9552358e+81
-2.9660903e+81
-2.9659279e+81
-2.9645317e+81
-2.964266e+81
-2.9545984e+81
-2.9542474e+81
-2.9637175e+81
-2.9638453e+81
-2.9534655e+81
-2.9536286e+81
-2.9436873e+81
-2.933751e+81
-2.943181e+81
-2.9333865e+81
-2.9330651e+81
-2.9427272e+81
-2.9425297e+81
-2.9328598e+81
-2.9646448e+81
-2.964884e+81
-2.9546496e+81
-2.9548157e+81
-2.9548837e+81
-2.9551772e+81
-2.965657e+81
-2.9652274e+81
-2.9337792e+81
-2.9337115e+81
-2.9439599e+81
-2.9438212e+81
-2.9337278e+81
-2.9338351e+81
-2.9440914e+81
-2.9438986e+81
-2.8941171e+81
-2.8945573e+81
-2.9045294e+81
-2.9040068e+81
-2.9231775e+81
-2.914578e+81
-2.9141962e+81
-2.9228896e+81
-2.9225084e+81
-2.9139886e+81
-2.9220593e+81
-2.9133368e+81
-2.9035354e+81
-2.8937723e+81
-2.8934661e+81
-2.9032476e+81
-2.8943452e+81
-2.8941326e+81
-2.9042565e+81
-2.9043117e+81
-2.8939873e+81
-2.8942443e+81
-2.904276e+81
-2.9040798e+81
-2.9142691e+81
-2.9143656e+81
-2.9231776e+81
-2.9230217e+81
-2.9229694e+81
-2.9144126e+81
-2.9144037e+81
-2.923108e+81
-2.8573866e+81
-2.8571925e+81
-2.8662785e+81
-2.8662776e+81
-2.8574296e+81
-2.8578411e+81
-2.8671705e+81
-2.8669197e+81
-2.8853268e+81
-2.8769005e+81
-2.876704e+81
-2.8845969e+81
-2.8844942e+81
-2.8762055e+81
-2.8760507e+81
-2.8844116e+81
-2.8293915e+81
-2.8330704e+81
-2.8104443e+81
-2.812488e+81
-2.8243609e+81
-2.8187974e+81
-2.8278245e+81
-2.8124445e+81
-2.8118736e+81
-2.8316527e+81
-2.8423519e+81
-2.8411896e+81
-2.8485435e+81
-2.8497719e+81
-2.8457937e+81
-2.8476226e+81
-2.8478274e+81
-2.8471693e+81
-2.8494199e+81
-2.8423504e+81
-2.8414664e+81
-2.84876e+81
-2.8461079e+81
-2.8473287e+81
-2.8480875e+81
-2.847888e+81
-2.8104892e+81
-2.8269157e+81
-2.8304953e+81
-2.8080411e+81
-2.8381752e+81
-2.8391367e+81
-2.8460714e+81
-2.8465416e+81
-2.8265604e+81
-2.8309889e+81
-2.8108602e+81
-2.8101681e+81
-2.8396208e+81
-2.8400126e+81
-2.8481389e+81
-2.8482562e+81
-2.8478693e+81
-2.8460749e+81
-2.8466796e+81
-2.8483632e+81
-2.8456819e+81
-2.8458812e+81
-2.8483933e+81
-2.8478549e+81
-2.8180013e+81
-2.8209404e+81
-2.7132059e+81
-2.7082203e+81
-2.8843347e+81
-2.8760298e+81
-2.8756569e+81
-2.8841359e+81
-2.8661674e+81
-2.8576278e+81
-2.8576745e+81
-2.8661442e+81
-2.8841372e+81
-2.8756363e+81
-2.8755732e+81
-2.8841334e+81
-2.8662238e+81
-2.8577906e+81
-2.8573936e+81
-2.866205e+81
-2.8091986e+81
-2.8312013e+81
-2.8270451e+81
-2.8098109e+81
-2.8099393e+81
-2.8273052e+81
-2.8311681e+81
-2.8093068e+81
-2.8215861e+81
-2.8200213e+81
-2.8294776e+81
-2.8321749e+81
-2.8100627e+81
-2.8121329e+81
-2.8222083e+81
-2.8292119e+81
-2.8371219e+81
-2.8320219e+81
-2.8138933e+81
-2.812475e+81
-2.7099021e+81
-2.7182616e+81
-2.8570846e+81
-2.8572149e+81
-2.8658425e+81
-2.8663465e+81
-2.857005e+81
-2.8572177e+81
-2.8666491e+81
-2.8657398e+81
-2.8752561e+81
-2.8760236e+81
-2.8840513e+81
-2.8835722e+81
-2.8836932e+81
-2.8758077e+81
-2.8754778e+81
-2.883972e+81
-2.8387602e+81
-2.8375923e+81
-2.8460502e+81
-2.8469986e+81
-2.8388407e+81
-2.8373288e+81
-2.8447459e+81
-2.847501e+81
-2.8474148e+81
-2.8446967e+81
-2.8460913e+81
-2.8476946e+81
-2.8477977e+81
-2.8456932e+81
-2.8454141e+81
-2.8475001e+81
-2.8408994e+81
-2.8392448e+81
-2.8469628e+81
-2.8477677e+81
-2.8447923e+81
-2.844956e+81
-2.8470871e+81
-2.8465811e+81
-2.8451141e+81
-2.8437661e+81
-2.8432704e+81
-2.8457575e+81
-2.847485e+81
-2.842099e+81
-2.8407112e+81
-2.8464321e+81
-2.8562621e+81
-2.8572041e+81
-2.8655461e+81
-2.865035e+81
-2.8568849e+81
-2.8570234e+81
-2.8659056e+81
-2.8655696e+81
-2.8842937e+81
-2.8755249e+81
-2.8750964e+81
-2.8838544e+81
-2.8745704e+81
-2.874854e+81
-2.8835688e+81
-2.8833163e+81
-2.7094641e+81
-2.7047867e+81
-2.7065159e+81
-2.7151673e+81
-2.9850053e+81
-2.9850643e+81
-2.9903324e+81
-2.990306e+81
-2.9902695e+81
-2.9902798e+81
-2.9850847e+81
-2.9851095e+81
-2.9657514e+81
-2.9612457e+81
-2.9612195e+81
-2.965749e+81
-2.9551583e+81
-2.9508517e+81
-2.9508143e+81
-2.9551454e+81
-2.9508446e+81
-2.9507832e+81
-2.9551041e+81
-2.9551259e+81
-2.9656953e+81
-2.9611932e+81
-2.9612247e+81
-2.9657132e+81
-2.9720948e+81
-2.972076e+81
-2.9776622e+81
-2.9777142e+81
-2.9721942e+81
-2.972095e+81
-2.9776285e+81
-2.9777537e+81
-2.9850195e+81
-2.9850148e+81
-2.9903407e+81
-2.9903538e+81
-2.9512315e+81
-2.9510289e+81
-2.9553192e+81
-2.9554613e+81
-2.9550868e+81
-2.9508436e+81
-2.9509331e+81
-2.9552252e+81
-2.9657357e+81
-2.9611881e+81
-2.9612747e+81
-2.9657635e+81