/*--------------------------------*- C++ -*----------------------------------*\
  =========                 |
  \\      /  F ield         | OpenFOAM: The Open Source CFD Toolbox
   \\    /   O peration     | Website:  https://openfoam.org
    \\  /    A nd           | Version:  7
     \\/     M anipulation  |
\*---------------------------------------------------------------------------*/
FoamFile
{
    version     2.0;
    format      ascii;
    class       volScalarField;
    location    "6000";
    object      p;
}
// * * * * * * * * * * * * * * * * * * * * * * * * * * * * * * * * * * * * * //

dimensions      [0 2 -2 0 0 0 0];

internalField   nonuniform List<scalar> 
34387
(
-1.8856506e+73
-1.7897135e+73
-1.8168753e+73
-1.7885759e+73
-1.8801316e+73
-1.784707e+73
-1.8601482e+73
-1.9130456e+73
-1.915175e+73
-1.8628122e+73
-1.693385e+73
-1.7672193e+73
-1.7670818e+73
-1.8170231e+73
-1.8166313e+73
-1.8156154e+73
-1.7654855e+73
-1.7665088e+73
-1.8159331e+73
-1.8168818e+73
-1.8168743e+73
-1.7672756e+73
-1.7881481e+73
-1.7824784e+73
-1.6921158e+73
-1.766385e+73
-1.7658106e+73
-1.8164422e+73
-1.8167348e+73
-1.8752679e+73
-1.7767363e+73
-1.9097015e+73
-1.854754e+73
-1.857671e+73
-1.9110058e+73
-1.6886736e+73
-1.7601633e+73
-1.813653e+73
-1.8106896e+73
-1.7633608e+73
-1.8618738e+73
-1.9134663e+73
-1.9153786e+73
-1.8642404e+73
-1.6006631e+73
-1.7199332e+73
-1.6712821e+73
-1.6719341e+73
-1.7195251e+73
-1.7185332e+73
-1.6700973e+73
-1.6720653e+73
-1.7192017e+73
-1.7683262e+73
-1.7669381e+73
-1.7687222e+73
-1.8171367e+73
-1.8171262e+73
-1.8170021e+73
-1.8156595e+73
-1.7669882e+73
-1.7672909e+73
-1.8161465e+73
-1.8169237e+73
-1.8168817e+73
-1.7672808e+73
-1.8168802e+73
-1.7672738e+73
-1.7196137e+73
-1.7885429e+73
-1.7815307e+73
-1.6916578e+73
-1.7654878e+73
-1.7656549e+73
-1.815987e+73
-1.8161716e+73
-1.7712753e+73
-1.6869554e+73
-1.5995138e+73
-1.6707278e+73
-1.6700288e+73
-1.7184205e+73
-1.7191047e+73
-1.767811e+73
-1.767229e+73
-1.8167008e+73
-1.8169461e+73
-1.8704306e+73
-1.7657034e+73
-1.8521019e+73
-1.8496009e+73
-1.9072485e+73
-1.908286e+73
-1.6815608e+73
-1.7531427e+73
-1.8041374e+73
-1.8077968e+73
-1.7571356e+73
-1.91018e+73
-1.8567732e+73
-1.85939e+73
-1.9113361e+73
-1.5968095e+73
-1.6651828e+73
-1.7163398e+73
-1.7132209e+73
-1.6681846e+73
-1.7618134e+73
-1.8138753e+73
-1.8110874e+73
-1.7648743e+73
-1.8621534e+73
-1.9137647e+73
-1.9155348e+73
-1.8643794e+73
-1.5110365e+73
-1.5783183e+73
-1.624874e+73
-1.6261441e+73
-1.5799841e+73
-1.5806411e+73
-1.5792653e+73
-1.6258731e+73
-1.6262951e+73
-1.7202789e+73
-1.6727355e+73
-1.6728448e+73
-1.6724261e+73
-1.7200507e+73
-1.7200843e+73
-1.7187474e+73
-1.6715457e+73
-1.6730412e+73
-1.7196188e+73
-1.7678565e+73
-1.7684595e+73
-1.7674802e+73
-1.7688273e+73
-1.817197e+73
-1.8170797e+73
-1.8172272e+73
-1.8166964e+73
-1.8158e+73
-1.7671453e+73
-1.7674457e+73
-1.8162835e+73
-1.8169276e+73
-1.8172056e+73
-1.7673349e+73
-1.8168939e+73
-1.7672799e+73
-1.7196125e+73
-1.8167943e+73
-1.7672857e+73
-1.7196116e+73
-1.6736586e+73
-1.7821495e+73
-1.8133859e+73
-1.692222e+73
-1.7627248e+73
-1.7654189e+73
-1.8149249e+73
-1.7659648e+73
-1.7667468e+73
-1.8159143e+73
-1.8163676e+73
-1.7687115e+73
-1.6861395e+73
-1.7185845e+73
-1.6702773e+73
-1.5991049e+73
-1.6696918e+73
-1.7181265e+73
-1.7668375e+73
-1.7670328e+73
-1.8160766e+73
-1.8163564e+73
-1.6781288e+73
-1.595426e+73
-1.5102466e+73
-1.5783153e+73
-1.6246481e+73
-1.578904e+73
-1.6252954e+73
-1.672105e+73
-1.6713074e+73
-1.7185997e+73
-1.7193807e+73
-1.7679081e+73
-1.7672585e+73
-1.8167743e+73
-1.8170074e+73
-1.8672709e+73
-1.7565032e+73
-1.9067518e+73
-1.9063209e+73
-1.8456541e+73
-1.8476986e+73
-1.6724481e+73
-1.7489102e+73
-1.7445939e+73
-1.7968746e+73
-1.8003564e+73
-1.8542353e+73
-1.8521004e+73
-1.9078036e+73
-1.9087629e+73
-1.5912013e+73
-1.6589966e+73
-1.7064721e+73
-1.7104581e+73
-1.6628528e+73
-1.7554749e+73
-1.8050386e+73
-1.8083631e+73
-1.7590417e+73
-1.9103515e+73
-1.8570523e+73
-1.8596369e+73
-1.9115424e+73
-1.5745592e+73
-1.5081429e+73
-1.6232303e+73
-1.6203617e+73
-1.576992e+73
-1.6667095e+73
-1.7166599e+73
-1.7136329e+73
-1.6696703e+73
-1.7619973e+73
-1.8140315e+73
-1.8112901e+73
-1.7650526e+73
-1.8621709e+73
-1.9137916e+73
-1.915546e+73
-1.8643907e+73
-1.4237488e+73
-1.4892964e+73
-1.4899774e+73
-1.5353565e+73
-1.5360052e+73
-1.4909171e+73
-1.4910842e+73
-1.5356602e+73
-1.5345593e+73
-1.5797028e+73
-1.6250914e+73
-1.6266137e+73
-1.6275236e+73
-1.5809128e+73
-1.5811584e+73
-1.581706e+73
-1.5805502e+73
-1.6260617e+73
-1.6268486e+73
-1.7204156e+73
-1.6728245e+73
-1.673275e+73
-1.672903e+73
-1.6733164e+73
-1.719797e+73
-1.7201332e+73
-1.7196426e+73
-1.7189209e+73
-1.6716951e+73
-1.6730966e+73
-1.7197039e+73
-1.7674195e+73
-1.7678591e+73
-1.7684596e+73
-1.7674807e+73
-1.7688352e+73
-1.8172033e+73
-1.8169547e+73
-1.8172051e+73
-1.8172364e+73
-1.8167988e+73
-1.8158163e+73
-1.7671604e+73
-1.7674486e+73
-1.8162972e+73
-1.7673379e+73
-1.7678518e+73
-1.7196054e+73
-1.7672948e+73
-1.7196104e+73
-1.6736539e+73
-1.7674752e+73
-1.7195947e+73
-1.6736572e+73
-1.6282453e+73
-1.7703114e+73
-1.8065652e+73
-1.7562263e+73
-1.6865476e+73
-1.7599736e+73
-1.8103584e+73
-1.8130448e+73
-1.6687003e+73
-1.5993873e+73
-1.6714545e+73
-1.7184739e+73
-1.7162713e+73
-1.7196593e+73
-1.6721183e+73
-1.670679e+73
-1.7190896e+73
-1.763943e+73
-1.7662665e+73
-1.7668693e+73
-1.8149652e+73
-1.8166768e+73
-1.7675693e+73
-1.7680266e+73
-1.8163365e+73
-1.8164792e+73
-1.6764137e+73
-1.594818e+73
-1.7188264e+73
-1.6717094e+73
-1.6249786e+73
-1.509784e+73
-1.5784061e+73
-1.5782746e+73
-1.6244034e+73
-1.6709691e+73
-1.7182787e+73
-1.7668877e+73
-1.7670904e+73
-1.8161544e+73
-1.8164653e+73
-1.6658645e+73
-1.5893437e+73
-1.5072292e+73
-1.4901572e+73
-1.4231764e+73
-1.4900567e+73
-1.5351043e+73
-1.5347983e+73
-1.5796175e+73
-1.6248909e+73
-1.5802183e+73
-1.6255943e+73
-1.6722175e+73
-1.6713694e+73
-1.7186357e+73
-1.7195045e+73
-1.7679131e+73
-1.767259e+73
-1.8167761e+73
-1.8170096e+73
-1.8663167e+73
-1.7500856e+73
-1.8422897e+73
-1.8437922e+73
-1.9055244e+73
-1.9050236e+73
-1.6645394e+73
-1.7372328e+73
-1.7907025e+73
-1.7937628e+73
-1.7408979e+73
-1.9077267e+73
-1.9075885e+73
-1.8491825e+73
-1.8507087e+73
-1.584744e+73
-1.6512941e+73
-1.6981824e+73
-1.7026296e+73
-1.6555657e+73
-1.751804e+73
-1.7479372e+73
-1.7985808e+73
-1.8016441e+73
-1.85448e+73
-1.8523892e+73
-1.907974e+73
-1.9088769e+73
-1.5041246e+73
-1.5689919e+73
-1.6145382e+73
-1.618083e+73
-1.5721793e+73
-1.6608809e+73
-1.7074585e+73
-1.7112094e+73
-1.6646539e+73
-1.7557756e+73
-1.8053632e+73
-1.8085954e+73
-1.7592459e+73
-1.9103738e+73
-1.857081e+73
-1.8596577e+73
-1.911566e+73
-1.5759895e+73
-1.5313511e+73
-1.421701e+73
-1.533135e+73
-1.4867315e+73
-1.4878846e+73
-1.6236434e+73
-1.6206997e+73
-1.5784378e+73
-1.6669019e+73
-1.716858e+73
-1.7138329e+73
-1.6698395e+73
-1.7620169e+73
-1.8140478e+73
-1.8113052e+73
-1.7650727e+73
-1.3381552e+73
-1.4034418e+73
-1.402353e+73
-1.4464914e+73
-1.4471723e+73
-1.4030121e+73
-1.4037387e+73
-1.4473582e+73
-1.4474006e+73
-1.4905464e+73
-1.4911947e+73
-1.5354834e+73
-1.5364906e+73
-1.537399e+73
-1.4917509e+73
-1.491895e+73
-1.491948e+73
-1.5361796e+73
-1.534764e+73
-1.5798287e+73
-1.6252288e+73
-1.6267181e+73
-1.6275773e+73
-1.6275935e+73
-1.582254e+73
-1.5810396e+73
-1.5823729e+73
-1.5818091e+73
-1.5806346e+73
-1.6261389e+73
-1.6269301e+73
-1.7204224e+73
-1.6728288e+73
-1.6735533e+73
-1.6733005e+73
-1.672905e+73
-1.6733673e+73
-1.719595e+73
-1.7197565e+73
-1.7201303e+73
-1.7196373e+73
-1.7189351e+73
-1.6717089e+73
-1.6731018e+73
-1.7197043e+73
-1.7196015e+73
-1.719754e+73
-1.6736103e+73
-1.7195883e+73
-1.6736519e+73
-1.6282395e+73
-1.7196386e+73
-1.6736203e+73
-1.6282422e+73
-1.5830245e+73
-1.7488492e+73
-1.676858e+73
-1.7514267e+73
-1.7452824e+73
-1.7954347e+73
-1.8019222e+73
-1.8066709e+73
-1.757734e+73
-1.7098151e+73
-1.6624706e+73
-1.5950992e+73
-1.6664647e+73
-1.7136812e+73
-1.7611373e+73
-1.8101204e+73
-1.813193e+73
-1.6702707e+73
-1.6236454e+73
-1.5096376e+73
-1.5769142e+73
-1.6249494e+73
-1.5781317e+73
-1.6253752e+73
-1.5784383e+73
-1.5779569e+73
-1.6250101e+73
-1.672596e+73
-1.6727008e+73
-1.7190521e+73
-1.7205327e+73
-1.7164082e+73
-1.7206561e+73
-1.6734886e+73
-1.672356e+73
-1.7195522e+73
-1.7641498e+73
-1.7678995e+73
-1.7664836e+73
-1.7684076e+73
-1.8165365e+73
-1.8150638e+73
-1.816992e+73
-1.7676799e+73
-1.768162e+73
-1.8163954e+73
-1.8165373e+73
-1.6630754e+73
-1.5884377e+73
-1.5068425e+73
-1.7189098e+73
-1.6717982e+73
-1.6253679e+73
-1.4229651e+73
-1.5341572e+73
-1.4887007e+73
-1.5345502e+73
-1.4895844e+73
-1.5797481e+73
-1.579596e+73
-1.624622e+73
-1.6710148e+73
-1.7183063e+73
-1.7668867e+73
-1.767093e+73
-1.8161564e+73
-1.816469e+73
-1.6565519e+73
-1.5825341e+73
-1.5033017e+73
-1.4210884e+73
-1.4915745e+73
-1.4473331e+73
-1.3377169e+73
-1.4029289e+73
-1.4029777e+73
-1.447196e+73
-1.4913464e+73
-1.5354091e+73
-1.5351579e+73
-1.5796975e+73
-1.6249746e+73
-1.5802883e+73
-1.625688e+73
-1.6722246e+73
-1.6713745e+73
-1.718639e+73
-1.7195123e+73
-1.8677596e+73
-1.746487e+73
-1.8413512e+73
-1.9058569e+73
-1.9052935e+73
-1.8414937e+73
-1.6583927e+73
-1.7345121e+73
-1.7315736e+73
-1.7858584e+73
-1.7881259e+73
-1.8460454e+73
-1.8474504e+73
-1.9069092e+73
-1.9063616e+73
-1.5789602e+73
-1.6443961e+73
-1.6946262e+73
-1.6907797e+73
-1.6481539e+73
-1.7411768e+73
-1.7933417e+73
-1.795974e+73
-1.7445718e+73
-1.9078526e+73
-1.907832e+73
-1.8497607e+73
-1.8510067e+73
-1.4998479e+73
-1.5630804e+73
-1.6077234e+73
-1.6115065e+73
-1.566294e+73
-1.653416e+73
-1.6997381e+73
-1.7039626e+73
-1.6576306e+73
-1.7520904e+73
-1.7483145e+73
-1.7989509e+73
-1.8019715e+73
-1.8545064e+73
-1.8524193e+73
-1.9079961e+73
-1.908896e+73
-1.4189949e+73
-1.482263e+73
-1.4845935e+73
-1.5289977e+73
-1.5262354e+73
-1.5702988e+73
-1.6150301e+73
-1.6185967e+73
-1.5735528e+73
-1.6610493e+73
-1.7076874e+73
-1.7113789e+73
-1.6647872e+73
-1.7557986e+73
-1.8053892e+73
-1.8086145e+73
-1.759266e+73
-1.576126e+73
-1.5316731e+73
-1.3368628e+73
-1.4443252e+73
-1.4005116e+73
-1.4016807e+73
-1.4452658e+73
-1.5333353e+73
-1.4880465e+73
-1.4889772e+73
-1.6237776e+73
-1.6208794e+73
-1.5785475e+73
-1.6669208e+73
-1.7168774e+73
-1.7138547e+73
-1.6698557e+73
-1.2538204e+73
-1.3173449e+73
-1.317994e+73
-1.3605361e+73
-1.3606558e+73
-1.3608696e+73
-1.3613173e+73
-1.3174844e+73
-1.3176665e+73
-1.4046655e+73
-1.4033083e+73
-1.446464e+73
-1.447355e+73
-1.4482319e+73
-1.4034938e+73
-1.4033599e+73
-1.4044863e+73
-1.4477831e+73
-1.4475402e+73
-1.4906686e+73
-1.4912827e+73
-1.5355814e+73
-1.5375881e+73
-1.5366092e+73
-1.537544e+73
-1.492858e+73
-1.4918377e+73
-1.4928587e+73
-1.4920292e+73
-1.5362989e+73
-1.5349102e+73
-1.5798404e+73
-1.6252418e+73
-1.6267299e+73
-1.6276636e+73
-1.6280913e+73
-1.6276831e+73
-1.5823579e+73
-1.5828908e+73
-1.5810524e+73
-1.5824967e+73
-1.5818185e+73
-1.5806421e+73
-1.6261447e+73
-1.6269377e+73
-1.6736054e+73
-1.67361e+73
-1.6733062e+73
-1.6733757e+73
-1.628182e+73
-1.6282359e+73
-1.5830207e+73
-1.6281856e+73
-1.5830205e+73
-1.5380382e+73
-1.7357946e+73
-1.7834431e+73
-1.7313768e+73
-1.6638778e+73
-1.7376884e+73
-1.7892046e+73
-1.5886078e+73
-1.6991981e+73
-1.6529073e+73
-1.6582703e+73
-1.7051109e+73
-1.753292e+73
-1.7477642e+73
-1.796939e+73
-1.8024014e+73
-1.8069295e+73
-1.7101989e+73
-1.7579644e+73
-1.6640294e+73
-1.6179515e+73
-1.5722481e+73
-1.5069275e+73
-1.6214224e+73
-1.5749713e+73
-1.668006e+73
-1.7139066e+73
-1.7613275e+73
-1.8103476e+73
-1.8132107e+73
-1.6705062e+73
-1.6239926e+73
-1.4228724e+73
-1.5327281e+73
-1.4873186e+73
-1.4882729e+73
-1.5330347e+73
-1.4882057e+73
-1.488528e+73
-1.533311e+73
-1.5336811e+73
-1.5782424e+73
-1.6254104e+73
-1.6263237e+73
-1.578813e+73
-1.5785569e+73
-1.6259666e+73
-1.5792014e+73
-1.5791127e+73
-1.6252919e+73
-1.6736106e+73
-1.6727297e+73
-1.6738398e+73
-1.7205349e+73
-1.7192913e+73
-1.7209592e+73
-1.7166722e+73
-1.7208282e+73
-1.6735992e+73
-1.6724903e+73
-1.7197119e+73
-1.7641738e+73
-1.7686904e+73
-1.7680769e+73
-1.7665066e+73
-1.7685865e+73
-1.8167132e+73
-1.8176359e+73
-1.8150831e+73
-1.8171852e+73
-1.7676895e+73
-1.7681754e+73
-1.8164031e+73
-1.8165409e+73
-1.6532536e+73
-1.581364e+73
-1.5029287e+73
-1.4209237e+73
-1.7189152e+73
-1.6718044e+73
-1.6254294e+73
-1.3377837e+73
-1.4025725e+73
-1.4461172e+73
-1.4470675e+73
-1.4030103e+73
-1.5342712e+73
-1.4897243e+73
-1.5348046e+73
-1.4908189e+73
-1.5797824e+73
-1.5796502e+73
-1.6246917e+73
-1.6710186e+73
-1.7183071e+73
-1.6498661e+73
-1.5765372e+73
-1.4990147e+73
-1.418497e+73
-1.3363345e+73
-1.4476012e+73
-1.4916225e+73
-1.2535108e+73
-1.3173343e+73
-1.317193e+73
-1.360781e+73
-1.3607777e+73
-1.4040495e+73
-1.4039953e+73
-1.4473762e+73
-1.4913985e+73
-1.5354686e+73
-1.5352266e+73
-1.5797019e+73
-1.6249795e+73
-1.5802927e+73
-1.6256935e+73
-1.8719022e+73
-1.7456351e+73
-1.8430542e+73
-1.8419377e+73
-1.9070492e+73
-1.9086978e+73
-1.6546399e+73
-1.7283844e+73
-1.729974e+73
-1.7844104e+73
-1.7835878e+73
-1.8451914e+73
-1.9073197e+73
-1.9067162e+73
-1.8452608e+73
-1.5743167e+73
-1.6388505e+73
-1.6849503e+73
-1.6878856e+73
-1.6414931e+73
-1.7385497e+73
-1.7356163e+73
-1.7886647e+73
-1.790924e+73
-1.8467676e+73
-1.8481039e+73
-1.9072679e+73
-1.9067827e+73
-1.4959149e+73
-1.5580992e+73
-1.6016754e+73
-1.6050036e+73
-1.5608429e+73
-1.6465798e+73
-1.696342e+73
-1.6925657e+73
-1.6503315e+73
-1.741681e+73
-1.7940834e+73
-1.7964053e+73
-1.7449645e+73
-1.9078749e+73
-1.90786e+73
-1.8498092e+73
-1.8510391e+73
-1.4162075e+73
-1.4806714e+73
-1.4787776e+73
-1.5240589e+73
-1.5214556e+73
-1.564334e+73
-1.6082567e+73
-1.6120226e+73
-1.5675749e+73
-1.6535801e+73
-1.7000067e+73
-1.7041527e+73
-1.6577455e+73
-1.7521132e+73
-1.7483431e+73
-1.7989814e+73
-1.8019986e+73
-1.3349997e+73
-1.399045e+73
-1.3982314e+73
-1.4409232e+73
-1.4425053e+73
-1.4832764e+73
-1.4856271e+73
-1.5291436e+73
-1.52631e+73
-1.5703937e+73
-1.6151559e+73
-1.6187077e+73
-1.5736384e+73
-1.6610638e+73
-1.7077057e+73
-1.7113955e+73
-1.6648005e+73
-1.5761384e+73
-1.5317928e+73
-1.2529337e+73
-1.3161665e+73
-1.3590554e+73
-1.3602612e+73
-1.3171778e+73
-1.444431e+73
-1.4015738e+73
-1.4026744e+73
-1.4452364e+73
-1.5334516e+73
-1.488131e+73
-1.4890731e+73
-1.6237905e+73
-1.6208949e+73
-1.5785588e+73
-1.1702884e+73
-1.2332263e+73
-1.2341708e+73
-1.2333816e+73
-1.2761249e+73
-1.2761527e+73
-1.2336354e+73
-1.2762218e+73
-1.2760567e+73
-1.3183263e+73
-1.3186413e+73
-1.3176799e+73
-1.3607294e+73
-1.3610936e+73
-1.3605458e+73
-1.3610535e+73
-1.3612992e+73
-1.3184508e+73
-1.3182214e+73
-1.404705e+73
-1.4033606e+73
-1.4465613e+73
-1.447985e+73
-1.4474169e+73
-1.4481432e+73
-1.4038012e+73
-1.4035256e+73
-1.4040417e+73
-1.4044884e+73
-1.447819e+73
-1.4476148e+73
-1.49068e+73
-1.4912886e+73
-1.5355891e+73
-1.538029e+73
-1.5376563e+73
-1.5366187e+73
-1.5375973e+73
-1.4931177e+73
-1.492882e+73
-1.4918445e+73
-1.4928763e+73
-1.4920367e+73
-1.5363098e+73
-1.5349232e+73
-1.6276729e+73
-1.628179e+73
-1.6281777e+73
-1.6276916e+73
-1.582366e+73
-1.5829552e+73
-1.5829721e+73
-1.5825046e+73
-1.5829745e+73
-1.5830165e+73
-1.53804e+73
-1.5829561e+73
-1.5380393e+73
-1.4929964e+73
-1.7278827e+73
-1.6540939e+73
-1.7257754e+73
-1.720711e+73
-1.7736749e+73
-1.7782462e+73
-1.7865873e+73
-1.7355299e+73
-1.6869967e+73
-1.581275e+73
-1.6425658e+73
-1.6479248e+73
-1.6929774e+73
-1.7413795e+73
-1.7914841e+73
-1.5029969e+73
-1.5695058e+73
-1.5663831e+73
-1.6101306e+73
-1.6143894e+73
-1.70005e+73
-1.6544233e+73
-1.6597047e+73
-1.7056916e+73
-1.7535374e+73
-1.7480863e+73
-1.7973316e+73
-1.8026795e+73
-1.8069562e+73
-1.7104328e+73
-1.757989e+73
-1.6642401e+73
-1.6182506e+73
-1.5734906e+73
-1.5292029e+73
-1.4849426e+73
-1.4210403e+73
-1.4864248e+73
-1.531189e+73
-1.6217506e+73
-1.5761676e+73
-1.6681941e+73
-1.7140981e+73
-1.7613466e+73
-1.8103671e+73
-1.670525e+73
-1.6241702e+73
-1.3382018e+73
-1.4022024e+73
-1.4012304e+73
-1.4449119e+73
-1.4451942e+73
-1.4023296e+73
-1.4024298e+73
-1.4454466e+73
-1.4457999e+73
-1.5325855e+73
-1.4881294e+73
-1.4886961e+73
-1.4884492e+73
-1.5331128e+73
-1.5338448e+73
-1.4890576e+73
-1.4890323e+73
-1.5334846e+73
-1.5335115e+73
-1.5783304e+73
-1.6261148e+73
-1.6254745e+73
-1.6262392e+73
-1.57924e+73
-1.5788466e+73
-1.579312e+73
-1.6260183e+73
-1.5792239e+73
-1.5791318e+73
-1.625374e+73
-1.6737224e+73
-1.6735745e+73
-1.6727371e+73
-1.6738172e+73
-1.7205741e+73
-1.7208943e+73
-1.719308e+73
-1.7210287e+73
-1.7166972e+73
-1.7208392e+73
-1.6736043e+73
-1.6724998e+73
-1.7197243e+73
-1.7686842e+73
-1.7686427e+73
-1.7680833e+73
-1.7685949e+73
-1.8167276e+73
-1.8177708e+73
-1.8178278e+73
-1.8171995e+73
-1.6462775e+73
-1.5752181e+73
-1.4986437e+73
-1.4183911e+73
-1.3363089e+73
-1.6254328e+73
-1.2537123e+73
-1.3608884e+73
-1.3609581e+73
-1.3178117e+73
-1.3172717e+73
-1.4035822e+73
-1.4460969e+73
-1.4472907e+73
-1.4041765e+73
-1.5342993e+73
-1.4897431e+73
-1.5348609e+73
-1.4908614e+73
-1.5797834e+73
-1.5796531e+73
-1.6246962e+73
-1.6459376e+73
-1.5718425e+73
-1.4950705e+73
-1.4157109e+73
-1.3346016e+73
-1.2524346e+73
-1.4476658e+73
-1.4916253e+73
-1.1699664e+73
-1.2336518e+73
-1.2334067e+73
-1.2760726e+73
-1.2760794e+73
-1.3182875e+73
-1.3180452e+73
-1.3607166e+73
-1.360805e+73
-1.4041067e+73
-1.4040575e+73
-1.4474398e+73
-1.4914014e+73
-1.5354721e+73
-1.5352303e+73
-1.8786787e+73
-1.7475554e+73
-1.8471441e+73
-1.9143415e+73
-1.9114988e+73
-1.8446209e+73
-1.6533404e+73
-1.7840066e+73
-1.7277043e+73
-1.7278183e+73
-1.783462e+73
-1.8468607e+73
-1.8458198e+73
-1.9087049e+73
-1.9101355e+73
-1.5714094e+73
-1.6357547e+73
-1.6815489e+73
-1.6832125e+73
-1.6371449e+73
-1.7323212e+73
-1.7339722e+73
-1.7872198e+73
-1.7863295e+73
-1.8459472e+73
-1.9078744e+73
-1.9072325e+73
-1.846037e+73
-1.4928791e+73
-1.5542957e+73
-1.555987e+73
-1.5991109e+73
-1.5969189e+73
-1.6409018e+73
-1.6866395e+73
-1.6895749e+73
-1.6434862e+73
-1.7389451e+73
-1.7361001e+73
-1.7893783e+73
-1.7915898e+73
-1.8468313e+73
-1.8481592e+73
-1.9073018e+73
-1.9068239e+73
-1.4135734e+73
-1.4771649e+73
-1.4751389e+73
-1.5196315e+73
-1.5173264e+73
-1.5593279e+73
-1.6021971e+73
-1.6055267e+73
-1.5620994e+73
-1.6466952e+73
-1.6965747e+73
-1.6927819e+73
-1.6504417e+73
-1.7417212e+73
-1.7941403e+73
-1.7964405e+73
-1.7449941e+73
-1.3330594e+73
-1.4382532e+73
-1.3958706e+73
-1.3969163e+73
-1.4396071e+73
-1.4817233e+73
-1.4798532e+73
-1.52411e+73
-1.52147e+73
-1.5644005e+73
-1.6083492e+73
-1.6120995e+73
-1.567634e+73
-1.6535927e+73
-1.7000278e+73
-1.7041683e+73
-1.6577559e+73
-1.2516703e+73
-1.3570753e+73
-1.3141748e+73
-1.3152247e+73
-1.3578016e+73
-1.399913e+73
-1.3992899e+73
-1.4409402e+73
-1.4424292e+73
-1.4833509e+73
-1.485687e+73
-1.5292178e+73
-1.5263923e+73
-1.5704019e+73
-1.6151662e+73
-1.6187179e+73
-1.5736473e+73
-1.5318033e+73
-1.1696144e+73
-1.2326178e+73
-1.2751695e+73
-1.2758294e+73
-1.2328963e+73
-1.3171869e+73
-1.3590837e+73
-1.3603532e+73
-1.3182401e+73
-1.444518e+73
-1.401652e+73
-1.4027346e+73
-1.4453233e+73
-1.5334626e+73
-1.4881389e+73
-1.4890824e+73
-1.0873663e+73
-1.1495649e+73
-1.1923649e+73
-1.1924353e+73
-1.1500816e+73
-1.1504268e+73
-1.1502246e+73
-1.1925667e+73
-1.1920967e+73
-1.2342141e+73
-1.2348459e+73
-1.2341499e+73
-1.2342721e+73
-1.276016e+73
-1.2762971e+73
-1.2767527e+73
-1.2341559e+73
-1.2760922e+73
-1.2763191e+73
-1.3183748e+73
-1.3183427e+73
-1.3186588e+73
-1.3183198e+73
-1.3607425e+73
-1.3607287e+73
-1.3608255e+73
-1.3605968e+73
-1.3610855e+73
-1.3613503e+73
-1.3185039e+73
-1.318284e+73
-1.404707e+73
-1.4033652e+73
-1.4465699e+73
-1.4481383e+73
-1.4479814e+73
-1.4474224e+73
-1.448139e+73
-1.4038086e+73
-1.4039213e+73
-1.4035287e+73
-1.4040482e+73
-1.4044874e+73
-1.4478211e+73
-1.447619e+73
-1.5380299e+73
-1.5380463e+73
-1.53766e+73
-1.537601e+73
-1.4930782e+73
-1.4930785e+73
-1.4928836e+73
-1.4928777e+73
-1.5380448e+73
-1.5380415e+73
-1.4930046e+73
-1.5380269e+73
-1.4930049e+73
-1.4480266e+73
-1.7238887e+73
-1.7678674e+73
-1.7137525e+73
-1.6472198e+73
-1.7169897e+73
-1.7704587e+73
-1.5748945e+73
-1.6773087e+73
-1.634252e+73
-1.6384539e+73
-1.6819716e+73
-1.7300344e+73
-1.7251831e+73
-1.7775121e+73
-1.7819031e+73
-1.7872267e+73
-1.7359624e+73
-1.6883852e+73
-1.498652e+73
-1.5630566e+73
-1.5595625e+73
-1.6016641e+73
-1.6061409e+73
-1.6441427e+73
-1.6494944e+73
-1.6942202e+73
-1.741726e+73
-1.7919235e+73
-1.4186012e+73
-1.5245228e+73
-1.4810731e+73
-1.4833067e+73
-1.5270574e+73
-1.5706177e+73
-1.5675585e+73
-1.6103869e+73
-1.6145738e+73
-1.7003063e+73
-1.6545787e+73
-1.6598535e+73
-1.7059038e+73
-1.7535682e+73
-1.7481178e+73
-1.7973723e+73
-1.8027116e+73
-1.7104565e+73
-1.6642613e+73
-1.6184407e+73
-1.5736216e+73
-1.5291923e+73
-1.48586e+73
-1.443078e+73
-1.3998178e+73
-1.3366323e+73
-1.4006672e+73
-1.4441466e+73
-1.4872701e+73
-1.5311576e+73
-1.6219484e+73
-1.5763117e+73
-1.6682138e+73
-1.714118e+73
-1.6241842e+73
-1.3187194e+73
-1.3189724e+73
-1.3177575e+73
-1.2543054e+73
-1.3602799e+73
-1.3607848e+73
-1.3607445e+73
-1.3610687e+73
-1.318065e+73
-1.4027721e+73
-1.4024353e+73
-1.4021018e+73
-1.4445985e+73
-1.4452697e+73
-1.445927e+73
-1.4032961e+73
-1.4030288e+73
-1.4456004e+73
-1.4455563e+73
-1.5326553e+73
-1.488182e+73
-1.4890776e+73
-1.4887444e+73
-1.4891219e+73
-1.533562e+73
-1.5331545e+73
-1.5336254e+73
-1.4890674e+73
-1.4890658e+73
-1.5335101e+73
-1.5335198e+73
-1.5783392e+73
-1.6261034e+73
-1.6262901e+73
-1.6254799e+73
-1.6262166e+73
-1.5795295e+73
-1.5792885e+73
-1.5788515e+73
-1.5793413e+73
-1.6260209e+73
-1.5792261e+73
-1.579132e+73
-1.6253788e+73
-1.6736621e+73
-1.6736552e+73
-1.6735717e+73
-1.6738141e+73
-1.7205702e+73
-1.7207466e+73
-1.7207903e+73
-1.7210281e+73
-1.7686753e+73
-1.7686559e+73
-1.7686279e+73
-1.8177703e+73
-1.8178847e+73
-1.8178289e+73
-1.6422103e+73
-1.5704551e+73
-1.4946894e+73
-1.4156647e+73
-1.3346061e+73
-1.252488e+73
-1.2767015e+73
-1.2340356e+73
-1.1702941e+73
-1.2336568e+73
-1.2760634e+73
-1.3608876e+73
-1.3609697e+73
-1.3187891e+73
-1.3181934e+73
-1.403607e+73
-1.446119e+73
-1.4473226e+73
-1.4042112e+73
-1.5342993e+73
-1.4897431e+73
-1.5348634e+73
-1.4908632e+73
-1.6445449e+73
-1.5688685e+73
-1.4919711e+73
-1.4131385e+73
-1.3327764e+73
-1.2512169e+73
-1.1689992e+73
-1.4476692e+73
-1.086961e+73
-1.1498369e+73
-1.1924469e+73
-1.1926202e+73
-1.1498449e+73
-1.2346433e+73
-1.2343292e+73
-1.2760356e+73
-1.2760272e+73
-1.3183148e+73
-1.3180975e+73
-1.36077e+73
-1.3608408e+73
-1.4041099e+73
-1.4040613e+73
-1.4474431e+73
-1.8880194e+73
-1.7523313e+73
-1.9229911e+73
-1.8544768e+73
-1.8506161e+73
-1.9180323e+73
-1.6545278e+73
-1.7301655e+73
-1.7282952e+73
-1.7848604e+73
-1.7870473e+73
-1.8508607e+73
-1.9157571e+73
-1.913024e+73
-1.8482315e+73
-1.5704968e+73
-1.6351753e+73
-1.6351494e+73
-1.6806934e+73
-1.6808443e+73
-1.7865886e+73
-1.7314757e+73
-1.7316407e+73
-1.7861767e+73
-1.8474181e+73
-1.8464963e+73
-1.9093436e+73
-1.9106867e+73
-1.4909866e+73
-1.5528883e+73
-1.5521333e+73
-1.5953428e+73
-1.5942524e+73
-1.6377594e+73
-1.6831592e+73
-1.6848511e+73
-1.6390986e+73
-1.7325765e+73
-1.7342211e+73
-1.7877891e+73
-1.7868951e+73
-1.8460159e+73
-1.9079264e+73
-1.9072806e+73
-1.8461036e+73
-1.4116039e+73
-1.4743377e+73
-1.4729372e+73
-1.5158307e+73
-1.5143684e+73
-1.5555653e+73
-1.5571505e+73
-1.5995094e+73
-1.5974105e+73
-1.641018e+73
-1.6868025e+73
-1.6897172e+73
-1.6435827e+73
-1.7389794e+73
-1.7361414e+73
-1.7894409e+73
-1.7916456e+73
-1.331307e+73
-1.3934713e+73
-1.3945338e+73
-1.4367362e+73
-1.4351803e+73
-1.4782235e+73
-1.4761395e+73
-1.519706e+73
-1.5173596e+73
-1.5593955e+73
-1.602275e+73
-1.6055826e+73
-1.5621444e+73
-1.6467065e+73
-1.6965933e+73
-1.6928011e+73
-1.6504514e+73
-1.2503004e+73
-1.3550299e+73
-1.3123844e+73
-1.3132314e+73
-1.3559041e+73
-1.4383983e+73
-1.3970137e+73
-1.3979135e+73
-1.4396486e+73
-1.481762e+73
-1.4799007e+73
-1.5241539e+73
-1.5215276e+73
-1.5644053e+73
-1.6083562e+73
-1.6121055e+73
-1.5676388e+73
-1.168703e+73
-1.2310398e+73
-1.2733756e+73
-1.2744585e+73
-1.2321068e+73
-1.3569937e+73
-1.3150116e+73
-1.3160988e+73
-1.3576369e+73
-1.3999585e+73
-1.3993207e+73
-1.4410022e+73
-1.442492e+73
-1.4833571e+73
-1.4856937e+73
-1.5292257e+73
-1.5263993e+73
-1.0864898e+73
-1.1497038e+73
-1.1503021e+73
-1.192331e+73
-1.1920222e+73
-1.2336553e+73
-1.2751932e+73
-1.2758076e+73
-1.2338535e+73
-1.317254e+73
-1.3591652e+73
-1.3604095e+73
-1.3182911e+73
-1.4445257e+73
-1.4016597e+73
-1.4027401e+73
-1.4453309e+73
-1.0048171e+73
-1.0674614e+73
-1.067178e+73
-1.0672766e+73
-1.1096856e+73
-1.1096342e+73
-1.0682523e+73
-1.1089769e+73
-1.1091607e+73
-1.1503035e+73
-1.1921443e+73
-1.1925904e+73
-1.1927891e+73
-1.1504744e+73
-1.1499795e+73
-1.1510834e+73
-1.1513098e+73
-1.1925557e+73
-1.1922839e+73
-1.2342622e+73
-1.234915e+73
-1.2348824e+73
-1.2347908e+73
-1.2343209e+73
-1.2760742e+73
-1.2763519e+73
-1.2765687e+73
-1.2766332e+73
-1.2342099e+73
-1.2761466e+73
-1.2763818e+73
-1.3183783e+73
-1.3183991e+73
-1.3185499e+73
-1.3186599e+73
-1.3183873e+73
-1.3607436e+73
-1.360741e+73
-1.3608702e+73
-1.3608448e+73
-1.3606004e+73
-1.3610866e+73
-1.3613527e+73
-1.3185071e+73
-1.318288e+73
-1.4481032e+73
-1.4481069e+73
-1.4479815e+73
-1.4481384e+73
-1.4038102e+73
-1.4039239e+73
-1.4039269e+73
-1.4040484e+73
-1.4930738e+73
-1.4930137e+73
-1.4930745e+73
-1.4480324e+73
-1.448033e+73
-1.4039453e+73
-1.7228722e+73
-1.6433197e+73
-1.7120462e+73
-1.710779e+73
-1.7654434e+73
-1.7663962e+73
-1.7717952e+73
-1.7182106e+73
-1.6709672e+73
-1.6289687e+73
-1.570138e+73
-1.6315111e+73
-1.673872e+73
-1.7213362e+73
-1.7744105e+73
-1.4946026e+73
-1.5567482e+73
-1.5540862e+73
-1.5948358e+73
-1.5983196e+73
-1.678724e+73
-1.635765e+73
-1.639961e+73
-1.6833323e+73
-1.7304334e+73
-1.7255799e+73
-1.7784546e+73
-1.7827413e+73
-1.7872865e+73
-1.7359973e+73
-1.6885677e+73
-1.5193744e+73
-1.4773605e+73
-1.415954e+73
-1.4794068e+73
-1.5220333e+73
-1.5640124e+73
-1.5604807e+73
-1.6016731e+73
-1.6062098e+73
-1.6442237e+73
-1.6495621e+73
-1.6944013e+73
-1.7417547e+73
-1.7919681e+73
-1.3350455e+73
-1.3989053e+73
-1.3977181e+73
-1.4400305e+73
-1.4417813e+73
-1.5244604e+73
-1.481914e+73
-1.4841887e+73
-1.5270182e+73
-1.5706951e+73
-1.5676192e+73
-1.6104917e+73
-1.6146874e+73
-1.7003273e+73
-1.6545925e+73
-1.6598691e+73
-1.7059246e+73
-1.6184592e+73
-1.5736346e+73
-1.5292971e+73
-1.4859262e+73
-1.4429009e+73
-1.4006953e+73
-1.3587232e+73
-1.3160337e+73
-1.2530429e+73
-1.316596e+73
-1.3593894e+73
-1.4014694e+73
-1.443942e+73
-1.4873254e+73
-1.531254e+73
-1.6219671e+73
-1.5763259e+73
-1.3193976e+73
-1.3193548e+73
-1.2770312e+73
-1.3198163e+73
-1.2771335e+73
-1.3189609e+73
-1.2767128e+73
-1.1707609e+73
-1.2336535e+73
-1.2772031e+73
-1.2345602e+73
-1.234366e+73
-1.2343697e+73
-1.3602652e+73
-1.3611381e+73
-1.361681e+73
-1.3609703e+73
-1.3610157e+73
-1.3191612e+73
-1.4031462e+73
-1.4028407e+73
-1.4031279e+73
-1.4021777e+73
-1.444663e+73
-1.4456816e+73
-1.4453278e+73
-1.445707e+73
-1.4033181e+73
-1.4030667e+73
-1.4456355e+73
-1.445582e+73
-1.5326627e+73
-1.488188e+73
-1.4892731e+73
-1.4891209e+73
-1.4887491e+73
-1.489163e+73
-1.533851e+73
-1.5336118e+73
-1.5331598e+73
-1.5336649e+73
-1.4890672e+73
-1.4890681e+73
-1.5335124e+73
-1.533519e+73
-1.6261063e+73
-1.6263567e+73
-1.6263382e+73
-1.6262169e+73
-1.5796255e+73
-1.5796419e+73
-1.5792951e+73
-1.5793459e+73
-1.6736642e+73
-1.6736281e+73
-1.6736572e+73
-1.7207355e+73
-1.720714e+73
-1.7207824e+73
-1.768654e+73
-1.7686515e+73
-1.8178904e+73
-1.8178895e+73
-1.6407641e+73
-1.5674635e+73
-1.4915802e+73
-1.4131304e+73
-1.3328462e+73
-1.2512784e+73
-1.1691017e+73
-1.276723e+73
-1.2350447e+73
-1.1931562e+73
-1.0872802e+73
-1.1506668e+73
-1.1930181e+73
-1.1505601e+73
-1.2346877e+73
-1.2760207e+73
-1.3609348e+73
-1.3610194e+73
-1.3188449e+73
-1.3182421e+73
-1.4036074e+73
-1.4461189e+73
-1.4473236e+73
-1.4042128e+73
-1.6455347e+73
-1.5678457e+73
-1.490049e+73
-1.4111859e+73
-1.3311383e+73
-1.2499985e+73
-1.1680195e+73
-1.0858819e+73
-1.0044095e+73
-1.0669613e+73
-1.0672219e+73
-1.1091257e+73
-1.1092562e+73
-1.1507085e+73
-1.19242e+73
-1.1925995e+73
-1.1506932e+73
-1.2346666e+73
-1.2343673e+73
-1.2760707e+73
-1.276067e+73
-1.3183164e+73
-1.3181007e+73
-1.360773e+73
-1.3608426e+73
-1.899377e+73
-1.7594509e+73
-1.8638879e+73
-1.8587787e+73
-1.9274579e+73
-1.9334505e+73
-1.6581369e+73
-1.7355306e+73
-1.7933569e+73
-1.7899846e+73
-1.7325587e+73
-1.9245383e+73
-1.8583688e+73
-1.8545754e+73
-1.9196447e+73
-1.5716286e+73
-1.6358068e+73
-1.6370125e+73
-1.6828106e+73
-1.6811972e+73
-1.733774e+73
-1.7318807e+73
-1.7872518e+73
-1.7894385e+73
-1.8515079e+73
-1.9163808e+73
-1.9133942e+73
-1.8486813e+73
-1.4906436e+73
-1.5519539e+73
-1.5517113e+73
-1.5937396e+73
-1.5938579e+73
-1.6371086e+73
-1.6371496e+73
-1.6821974e+73
-1.6823591e+73
-1.7869656e+73
-1.731663e+73
-1.7318145e+73
-1.7866263e+73
-1.8474762e+73
-1.8465622e+73
-1.9094032e+73
-1.9107432e+73
-1.4106598e+73
-1.4717079e+73
-1.4721411e+73
-1.5131756e+73
-1.5126759e+73
-1.5540211e+73
-1.5533621e+73
-1.5957415e+73
-1.5947275e+73
-1.63788e+73
-1.6832886e+73
-1.6849541e+73
-1.6391836e+73
-1.7326058e+73
-1.7342503e+73
-1.7878406e+73
-1.786946e+73
-1.3300924e+73
-1.3915381e+73
-1.4332029e+73
-1.4343997e+73
-1.3924331e+73
-1.4754704e+73
-1.4740174e+73
-1.5159226e+73
-1.5145008e+73
-1.5556473e+73
-1.5572185e+73
-1.5995836e+73
-1.5975094e+73
-1.6410305e+73
-1.6868204e+73
-1.6897328e+73
-1.6435936e+73
-1.2491031e+73
-1.3531042e+73
-1.310864e+73
-1.3115484e+73
-1.3539174e+73
-1.3945314e+73
-1.3955454e+73
-1.4367956e+73
-1.4352243e+73
-1.4782563e+73
-1.4761951e+73
-1.5197377e+73
-1.517419e+73
-1.5593997e+73
-1.6022809e+73
-1.6055864e+73
-1.5621475e+73
-1.1677164e+73
-1.2304101e+73
-1.2298462e+73
-1.2718662e+73
-1.2725781e+73
-1.354955e+73
-1.3131758e+73
-1.3139607e+73
-1.3557547e+73
-1.4384482e+73
-1.3970551e+73
-1.3979459e+73
-1.4396893e+73
-1.4817649e+73
-1.4799039e+73
-1.5241572e+73
-1.5215314e+73
-1.0856516e+73
-1.1489847e+73
-1.1907773e+73
-1.1917775e+73
-1.1495891e+73
-1.2319419e+73
-1.2732268e+73
-1.2743845e+73
-1.2331044e+73
-1.3570398e+73
-1.315056e+73
-1.3161298e+73
-1.3576841e+73
-1.3999627e+73
-1.3993227e+73
-1.4410066e+73
-1.4424978e+73
-1.0036611e+73
-1.066442e+73
-1.1089532e+73
-1.109508e+73
-1.0668618e+73
-1.1508332e+73
-1.1514724e+73
-1.1924515e+73
-1.192132e+73
-1.2337119e+73
-1.2752616e+73
-1.2758687e+73
-1.2339154e+73
-1.3172598e+73
-1.3591726e+73