/*--------------------------------*- C++ -*----------------------------------*\
  =========                 |
  \\      /  F ield         | OpenFOAM: The Open Source CFD Toolbox
   \\    /   O peration     | Website:  https://openfoam.org
    \\  /    A nd           | Version:  7
     \\/     M anipulation  |
\*---------------------------------------------------------------------------*/
FoamFile
{
    version     2.0;
    format      ascii;
    class       surfaceScalarField;
    location    "6000";
    object      phi;
}
// * * * * * * * * * * * * * * * * * * * * * * * * * * * * * * * * * * * * * //

dimensions      [0 3 -1 0 0 0 0];

internalField   nonuniform List<scalar> 
99977
(
3.3294398e+32
-8.0347678e+33
-3.022969e+32
3.93473e+32
3.5971034e+32
-3.5524208e+32
-5.4118178e+31
8.527151e+31
-7.5409078e+33
-2.5823392e+32
-3.5965099e+32
3.2404779e+32
2.1508886e+32
3.7341574e+32
-3.1606389e+32
-2.4793279e+32
2.3416834e+32
-7.8763779e+29
-7.4019159e+29
-4.1594205e+30
-2.3704447e+31
3.2303063e+31
-8.2292007e+33
-3.7589787e+32
-3.7938858e+32
3.5406613e+32
3.4335714e+32
5.6248533e+32
-7.987866e+33
4.0744702e+32
-3.0934384e+32
-3.8511835e+32
3.3802421e+32
-9.6601292e+31
1.53904e+32
-8.0653034e+33
-3.2817309e+32
3.6411876e+32
3.9085951e+32
-3.6829711e+32
1.2117097e+33
-3.9123071e+31
7.5001477e+31
-1.5720933e+33
2.2208832e+31
-6.6452621e+31
9.9077207e+31
3.2553242e+31
-1.2565074e+33
2.158304e+31
-1.625975e+33
9.5650237e+30
-4.3645925e+31
3.7303346e+31
-7.5220671e+33
3.3004868e+32
-3.5891675e+32
-2.596085e+32
2.2578518e+32
3.6379804e+32
-3.23539e+32
-2.3892047e+32
2.4885598e+32
-6.5443257e+30
1.0953126e+33
-1.2660708e+33
-4.3826407e+30
-7.654834e+31
1.1829555e+33
-2.3398331e+31
-1.5235173e+33
-2.2347458e+30
-3.6954666e+30
-3.9277531e+30
2.1558211e+30
-6.1883441e+30
8.2535688e+31
-1.1702565e+33
-4.4403268e+31
5.1271673e+31
2.7619996e+31
-2.231006e+31
2.0267521e+31
-1.5001389e+33
1.5861245e+31
1.1036162e+33
-1.282731e+33
-9.4459959e+31
3.3322134e+30
5.7471527e+31
6.2879148e+30
-9.7569163e+29
-8.5372632e+29
-4.4912666e+30
-9.0487518e+29
-7.5831715e+29
-4.4409023e+30
-7.3628382e+29
-6.5871703e+29
-4.143907e+30
9.2775946e+30
1.6953546e+31
-8.2635048e+33
-3.8408973e+32
-3.8605575e+32
3.5380648e+32
3.5174669e+32
-4.0977615e+31
-6.4423918e+31
-8.8229936e+33
-1.8168411e+31
2.2580226e+31
-8.2067772e+33
-3.8033196e+32
-3.8875365e+32
3.5305219e+32
3.4555382e+32
-1.1667834e+31
1.2421296e+33
-1.6199464e+33
-9.8109811e+30
1.273209e+33
-6.7080103e+30
-1.655543e+33
-2.013859e+30
2.5414902e+30
-5.4788236e+30
1.2417698e+31
5.3741948e+29
4.9284421e+32
-8.4907386e+33
-3.8552145e+32
-2.9993524e+32
4.3745274e+32
3.5949496e+32
-6.0643284e+31
1.9648976e+32
-8.0037726e+33
-3.2596938e+32
3.9544886e+32
3.4878491e+32
-3.8430013e+32
-1.2372166e+33
-9.418643e+31
1.1790954e+32
3.1078291e+31
-6.382162e+31
9.599946e+31
-1.5960166e+33
1.7278698e+31
1.264644e+33
-1.644448e+33
5.8656803e+30
1.5258687e+31
-4.289878e+31
5.9382612e+31
-8.0644139e+33
-3.4925437e+32
3.6219979e+32
3.8263768e+32
-3.7565002e+32
1.2419367e+33
-2.7186364e+31
5.9773642e+31
-1.6160032e+33
1.3306566e+31
5.0557081e+31
-1.2786082e+33
1.7466813e+31
8.2566231e+31
2.8693879e+31
-1.6593846e+33
5.5606062e+30
1.1211251e+33
-4.6113691e+31
6.3614752e+31
-1.1357795e+33
1.9362678e+31
-5.574641e+31
7.3369974e+31
2.0461374e+31
-1.1888632e+33
1.5513605e+31
-1.1977381e+33
1.2633925e+31
-3.9159429e+31
-3.6328173e+30
-7.5058181e+33
-3.3105633e+32
3.6166119e+32
2.5194864e+32
-2.4206607e+32
-2.4310993e+32
-3.5476124e+32
3.3765511e+32
2.4627315e+32
-1.1852038e+33
-1.0905286e+31
-6.2777497e+30
8.9184486e+30
9.3757643e+30
-1.5124126e+31
-1.5339638e+33
-4.4086493e+30
1.1373444e+33
-1.3146437e+33
-3.9075563e+30
-6.90258e+31
9.489723e+29
8.5204597e+31
-1.165991e+33
-3.5317516e+31
4.0740091e+31
2.4227874e+31
-1.9983408e+30
1.528116e+31
-1.5121339e+33
9.321012e+30
1.1454243e+33
-1.2993841e+33
-9.6660836e+31
9.7023129e+30
6.2492959e+31
1.3739008e+31
4.2164802e+30
1.0050056e+33
-1.028254e+33
1.5156055e+30
1.3134032e+31
1.1979259e+33
-1.3834768e+33
4.3119751e+30
1.0231148e+31
1.1079589e+33
-1.6579164e+31
-1.1011518e+33
1.1754196e+31
5.2814135e+30
-7.2865746e+30
7.9761475e+30
1.1887745e+31
8.5927434e+30
2.8448773e+30
1.0796117e+31
-1.084961e+33
-3.694102e+31
3.069037e+31
1.4619503e+31
-3.8293936e+31
2.3805793e+31
-1.0698221e+33
1.521072e+31
1.0131979e+33
-1.0470999e+33
-1.6599677e+31
1.5540366e+31
-1.0588426e+31
1.1262235e+31
-9.6461079e+30
-1.1914119e+30
-5.2724338e+31
-1.1265284e+30
-8.5139133e+29
-4.8693687e+30
-8.2067948e+29
-6.8006688e+29
-4.4336498e+30
-8.314218e+30
-5.6590792e+29
-5.4482883e+31
-7.5557465e+29
-5.4361413e+29
-4.5700493e+30
-7.8552681e+29
-6.2973243e+29
-4.0921678e+30
2.4913661e+31
3.5382847e+32
-7.5469831e+33
-3.4344179e+32
-2.5942528e+32
2.2845784e+32
-3.5707857e+32
-2.5882268e+32
2.2742917e+32
3.178457e+32
2.8004967e+31
-1.3163592e+32
-8.8368308e+33
1.1978464e+31
-1.0385306e+30
3.6149991e+32
-3.8406788e+32
-8.2321028e+33
-3.9308715e+32
3.5514628e+32
4.3964497e+30
1.2757904e+33
-1.6656863e+33
-5.2977803e+30
1.2985803e+33
1.0899586e+31
-1.6880001e+33
-3.138601e+30
5.0171794e+30
3.5338122e+30
5.4974554e+30
8.0739849e+30
-5.8863033e+31
-8.6066768e+33
-3.2317648e+31
-5.0002161e+31
-8.7609895e+33
-7.9922639e+30
-1.8713183e+31
-8.1813112e+33
-3.8618606e+32
3.6503009e+32
-3.7417597e+32
3.5741335e+32
-1.1668113e+31
1.2778643e+33
-1.6554572e+33
-6.1948232e+30
1.307088e+33
-5.7130424e+30
-1.6956765e+33
-6.119921e+30
4.6057639e+30
-6.1316392e+30
6.123423e+30
1.7998736e+30
-9.5020593e+30
1.1183661e+33
-1.1442414e+33
8.987763e+30
1.1707255e+33
-7.2225485e+30
-1.1852459e+33
1.0227677e+31
6.6816534e+30
-5.9339036e+30
1.5822604e+31
7.3792047e+30
5.4532457e+32
-8.5871055e+33
3.8252422e+32
4.5842909e+32
-3.0168492e+32
-3.9206887e+32
2.3548121e+32
-7.8753715e+33
-3.5681302e+32
-2.9051379e+32
4.5419106e+32
3.926662e+32
9.1548776e+31
1.2729612e+33
-1.6623724e+33
8.3410193e+30
1.2789873e+33
1.3294288e+32
-1.6459374e+33
2.5621195e+31
-1.0534874e+32
1.4881314e+32
3.588165e+31
2.5575963e+31
-1.0713965e+32
5.3815921e+31
-7.9454649e+33
-3.2510505e+32
3.8545295e+32
3.5941369e+32
-3.6536038e+32
1.2459903e+33
-5.0171687e+31
6.9156252e+31
-1.610687e+33
1.9743228e+31
-6.6664923e+31
8.7586611e+31
2.4501177e+31
-1.2937965e+33
1.4034839e+31
-1.6756356e+33
7.1412044e+30
-1.1265385e+33
-9.5996329e+31
9.5443779e+31
1.0094885e+31
-7.1232258e+31
8.2399736e+31
-1.1329307e+33
1.2503904e+31
1.179711e+33
-1.1981818e+33
1.671924e+31
1.3286373e+31
-4.909735e+31
-1.3940756e+31
-3.5730073e+32
-8.0478386e+33
3.736341e+32
3.9094933e+32
-3.6445078e+32
1.2854852e+33
-1.4038849e+31
4.636182e+31
-1.6768697e+33
9.8076287e+30
3.8663082e+31
-1.3082714e+33
1.3163807e+31
7.0154624e+31
2.0628355e+31
-1.686746e+33
4.0669764e+30
1.1407535e+33
-2.9765357e+31
5.1096339e+31
-1.158974e+33
1.0196399e+31
3.53715e+31
-1.1977198e+33
1.2767516e+31
5.4257904e+31
1.4781583e+31
-1.2109083e+33
1.2789672e+31
9.0121283e+31
-3.930879e+30
4.9919633e+30
-8.6124914e+31
1.4306256e+31
-4.5335572e+30
5.5900071e+30
1.8071386e+31
-9.1619468e+31
1.3254133e+31
-9.0854636e+31
1.1426214e+31
-3.0512427e+31
-2.9428976e+31
-7.5083365e+33
-3.3634853e+32
-3.5675569e+32
3.5028327e+32
2.5357036e+32
-2.403737e+32
-2.3234911e+32
2.6099957e+32
3.6343509e+32
1.1870045e+33
1.5366253e+30
8.8565113e+30
-1.5375263e+33
9.0724393e+30
-1.8475671e+31
3.3675028e+31
2.1332842e+31
-1.1506543e+33
1.1052957e+31
7.3690269e+31
-1.3208878e+33
5.1445055e+30
-7.5440178e+31
-2.1232296e+31
1.1693037e+33
-1.3224148e+33
-7.4095345e+31
5.3289634e+30
1.2042297e+33
-1.3763836e+31
-1.563751e+33
-2.7083302e+30
9.573964e+28
-4.4689714e+29
8.2722149e+30
9.6109986e+31
4.9188425e+30
-1.0891397e+33
-3.236768e+30
-1.5553386e+31
1.5696825e+31
-1.5421095e+30
-9.4575046e+30
-1.0944588e+33
1.1910165e+31
1.0423365e+33
-1.0618246e+33
5.364127e+30
8.6742163e+30
1.2399053e+33
-1.4161958e+33
-1.9347429e+30
1.2539054e+31
3.6744529e+29
1.1427279e+31
-3.0590457e+30
7.185412e+30
-1.0594881e+33
-2.3776439e+31
2.1078421e+31
1.6592129e+31
-1.1777817e+31
2.0833888e+31
-1.071808e+33
1.2585116e+31
1.0505269e+33
-1.042008e+33
-1.9757773e+31
9.1636934e+30
-1.9631484e+31
1.3021268e+31
9.5914509e+32
-9.6856305e+32
5.4752682e+30
9.7707157e+30
2.0388078e+29
8.6181789e+31
-8.2858082e+31
1.6321184e+29
9.4433222e+30
9.5453708e+32
-9.6814464e+32
-3.1740888e+30
1.0413382e+31
8.7332144e+31
-1.3613267e+30
-8.6608794e+31
1.2596952e+31
4.4500441e+29
-4.9336859e+29
1.0707102e+31
1.6632951e+31
1.5609952e+31
1.2073657e+30
1.0841431e+31
6.8467565e+30
1.4028034e+31
-8.2721708e+31
-3.1653699e+30
2.7995803e+30
1.5740732e+31
-3.0975864e+30
2.071845e+30
-8.1744354e+31
1.5259603e+31
8.5669911e+31
-8.2552762e+31
-1.3893255e+30
1.0715712e+31
-6.620912e+29
1.2692175e+31
-9.8375719e+30
-1.3024555e+30
-5.6136312e+31
-1.1279153e+31
-1.0522917e+30
-6.4953106e+31
-6.3355581e+30
-4.2767306e+29
-5.4414575e+31
-1.3190603e+31
-5.841208e+29
-5.6036703e+31
-8.5604292e+29
-5.5503153e+29
-4.8939075e+30
-8.2080511e+29
-6.2740848e+29
-4.4363332e+30
-7.7956918e+30
7.4918652e+29
-6.7745373e+31
-6.3367459e+30
2.2450683e+29
-5.5742995e+31
-8.0220204e+29
-5.2927502e+29
-4.6049773e+30
-8.0825073e+29
-5.9758669e+29
-4.0637109e+30
-7.394322e+31
3.9434084e+32
-3.5368886e+32
-8.0916029e+33
-3.8804105e+32
3.4297921e+32
-1.1587548e+33
-3.3249521e+31
3.9768316e+31
1.5373215e+31
-2.4697939e+31
-3.4100031e+32
-7.5353112e+33
-2.3226174e+32
2.4256994e+32
3.5284637e+32
2.4715627e+32
-2.314299e+32
-3.4545063e+32
3.3257598e+32
-5.47933e+30
1.9450844e+31
-1.512607e+33
-3.5601903e+30
1.0936112e+33
-1.2640375e+33
-7.7704724e+30
-8.6707068e+31
-1.0350651e+30
5.693901e+31
1.0794129e+31
1.1428523e+33
-1.49084e+33
-8.9847665e+30
1.1307518e+33
-1.2939203e+33
-8.2095575e+31
-2.7637102e+30
7.9812467e+30
8.2040879e+31
-4.5936384e+30
1.4068755e+30
4.5596813e+31
-8.5897069e+33
-1.1940814e+31
-1.1116288e+32
-8.7470814e+33
-1.3289524e+33
-3.7159517e+28
-3.568297e+30
6.058106e+30
-1.0585092e+31
1.2623832e+31
6.9886127e+29
-1.7157576e+33
1.8850709e+31
-4.6413621e+31
3.7886209e+32
-8.21258e+33
-3.6852449e+32
-3.8564132e+32
3.7535231e+32
1.3215516e+33
-1.725638e+33
-5.2985253e+30
4.8428579e+30
-1.7507422e+29
1.2002987e+33
-1.2250498e+33
1.2406428e+31
1.2348759e+33
1.0858325e+30
-1.2502283e+33
1.0953457e+31
2.995731e+30
6.3986462e+30
1.3615694e+31
1.7169626e+31
-5.7796407e+31
-1.9902768e+32
-8.5069931e+33
-3.1196678e+31
-6.7735267e+31
-8.7298665e+33
-1.5978485e+31
-3.8658473e+31
-3.702281e+32
-8.1813448e+33
-3.6650842e+32
3.7188752e+32
3.8900751e+32
1.3407111e+33
1.0759724e+31
2.4809886e+30
-1.7413614e+33
1.2236418e+30
3.3640668e+30
-2.8333093e+30
9.5339943e+30
1.3026269e+33
-1.6794266e+33
-3.802972e+29
7.5002492e+30
-1.3083365e+31
1.1582459e+33
-1.1747496e+33
1.393501e+31
1.1965699e+33
-5.430399e+30
-1.2214378e+33
1.1095443e+31
1.3121956e+31
-6.3489086e+30
1.0674716e+31
1.3373135e+31
-8.759386e+29
8.8950861e+31
-9.0142127e+31
9.6948198e+30
8.6714641e+31
-4.7473708e+29
-8.8536188e+31
1.1649551e+31
5.0837027e+29
-3.7876338e+29
1.4824277e+31
8.9845581e+30
5.9156152e+32
-8.7405355e+33
-3.035523e+32
-3.9176883e+32
3.9169684e+32
4.7941278e+32
3.2590728e+32
-7.9145658e+33
-2.8246897e+32
4.7688016e+32
4.1586484e+32
-3.5471808e+32
1.2405746e+32
-1.3435529e+33
2.6941868e+31
-1.3226974e+33
1.5821042e+32
3.4958658e+31
-1.071811e+32
1.4213723e+32
-1.6929215e+33
3.3583371e+31
-1.726217e+33
1.6357236e+31
-3.341572e+32
1.5284367e+32
-7.7632159e+33
-3.0418758e+32
4.0348337e+32
3.6896552e+32
-3.4528514e+32
6.8564795e+31
1.2908862e+33
-1.6693899e+33
2.2282665e+31
1.2604425e+33
1.014776e+32
-1.6211624e+33
3.7293695e+31
-8.7906725e+31
1.2304358e+32
3.3559593e+31
2.0859954e+31
9.9891439e+31
1.1525916e+33
-1.1728023e+33
1.1060548e+31
1.1534686e+33
1.1815881e+32
-1.1551073e+33
8.9929479e+30
-1.1011904e+32
1.2795805e+32
9.609939e+30
7.8828249e+30
-9.2237527e+31
-5.4130719e+30
-7.9273658e+33
-3.3599306e+32
3.9283785e+32
3.7041033e+32
-3.6163924e+32
1.2735637e+33
-3.0155514e+31
5.2525846e+31
-1.6409406e+33
1.9902221e+31
-5.1776355e+31
7.3164262e+31
2.6942186e+31
-1.3148256e+33
1.698209e+31
-1.6751721e+33
1.1192578e+31
1.1337689e+33
-5.1788112e+31
6.1800781e+31
-1.1403601e+33
1.6322118e+31
-5.6147036e+31
6.5178025e+31
1.6308593e+31
-1.2035439e+33
1.7507906e+31
-1.2124469e+33
1.5352528e+31
-8.8503613e+31
-7.5849914e+30
7.3765998e+30
1.3308114e+31
-5.5205076e+30
6.1909584e+30
-9.0076492e+31
1.3407361e+31
9.5193855e+31
-9.3443092e+31
1.4440642e+31
1.4795622e+31
1.3348947e+33
-9.5578455e+29
1.4435641e+31
1.2926356e+31
-1.7186012e+33
-3.7127465e+31
-3.9003643e+31
3.9923906e+32
-8.0453551e+33
3.7210182e+32
-3.5621537e+32
-3.7090477e+32
2.0666752e+31
-1.3164003e+33
1.6296919e+31
4.7446083e+31
2.2195098e+31
-1.6795587e+33
6.6085283e+30
1.1767484e+33
-1.6417353e+31
4.5979979e+31
-1.2101883e+33
1.368519e+31
2.2950598e+31
-1.2153457e+33
1.5729226e+31
4.8780003e+31
1.25735e+31
-1.2210572e+33
1.4195038e+31
8.4733086e+31
-2.6549874e+30
4.519151e+30
-8.7923391e+31
1.1522992e+31
3.2873251e+30
-9.1403005e+31
1.2828621e+31
4.7264452e+30
1.1951273e+31
-9.2902129e+31
1.3706023e+31
7.4256088e+31
-3.7852275e+30
4.8906909e+30
-7.5355136e+31
-4.4692661e+30
5.5543856e+30
-8.0013836e+31
-8.163022e+31
-2.7230202e+31
-4.3717944e+31
-7.517223e+33
-3.4499181e+32
-3.4702537e+32
3.6063235e+32
2.5921289e+32
-2.4382133e+32
-2.3432263e+32
2.6328959e+32
3.6686217e+32
1.8339039e+31
1.2067826e+33
-1.175961e+31
-1.5589273e+33
9.2169863e+30
1.2332765e+33
2.088244e+31
-9.7728568e+30
-1.603903e+33
2.7615753e+30
6.4968918e+30
1.3159747e+30
1.199603e+31
-1.1722243e+33
9.0054975e+30
1.008712e+32
-1.3447054e+33
7.2492924e+30
-5.4259462e+31
1.1783702e+33
-1.3350093e+33
-6.9053106e+31
1.1682176e+31
8.5092943e+30
9.6003397e+31
1.3969397e+31
1.9160005e+31
2.2040887e+31
1.0750491e+33
-1.1660546e+31
1.9340672e+31
-1.0860377e+33
1.2381273e+31
-8.9966815e+30
2.0600173e+31
1.2970597e+31
-1.0421425e+33
1.0510599e+31
-8.319557e+30
-1.2566739e+33
1.0768334e+31
-4.8953704e+29
-1.0628825e+33
2.5296304e+30
1.1694637e+31
-1.4285148e+33
1.3084993e+31
9.2204424e+30
-1.5309151e+31
1.0656152e+33
-1.0626346e+33
5.4512755e+30
1.2206445e+31
1.1000628e+33
-6.0425392e+30
-1.1237638e+33
1.1726348e+31
9.6794033e+30
-7.9931293e+30
1.2189994e+31
8.1667629e+30
1.0222211e+31
-8.3502438e+31
-2.9221976e+29
-1.1967935e+30
1.4080196e+31
-1.5992865e+29
-7.155276e+29
-8.3091762e+31
1.2375551e+31
9.7926149e+32
-9.8703427e+32
5.9522388e+30
5.250563e+30
8.0214856e+31
-8.1112829e+31
3.8432586e+29
9.0265636e+30
9.8228835e+32
-9.9215709e+32
-7.4202594e+30
1.0071066e+31
2.5916603e+30
5.4154726e+30
-9.897673e+28
8.5902817e+30
-7.8915026e+30
9.5893979e+30
-8.0212789e+31
-2.195535e+30
1.9637304e+30
1.5292702e+31
-1.2321664e+30
1.9104708e+30
-8.1558437e+31
1.3253017e+31
7.9602547e+31
-7.9763075e+31
-1.6701237e+30
9.7627792e+30
-1.7590863e+30
9.635134e+30
7.4842657e+32
2.8832171e+30
6.1285881e+30
-7.5513663e+32
7.4088975e+31
4.6509789e+29
7.7757654e+30
-7.2394867e+31
2.2877639e+29
6.812986e+31
1.17338e+29
-6.9682065e+31
7.5935678e+31
-2.4152832e+29
6.682443e+30
-7.3351646e+31
7.6515875e+31
-1.2000107e+30
-7.5157319e+31
3.0880746e+29
-4.3157658e+29
-7.2796718e+31
-3.1004487e+30
2.6493592e+30
-3.0117348e+30
2.0398963e+30
-7.1344666e+31
6.8034315e+31
-1.3383827e+30
-7.0348635e+31
-5.9979598e+31
-6.6964138e+31
-6.2412071e+30
-3.443987e+29
-5.5216748e+31
-5.7041411e+31
-8.334175e+29
-5.2467268e+29
-4.9653865e+30
-8.0224733e+29
-6.0966922e+29
-4.4943261e+30
-6.9621356e+31
-8.8617366e+30
5.6279736e+29
-5.5175618e+31
-8.5292126e+29
-5.3446027e+29
-4.5791948e+30
-7.9975144e+29
-6.0150957e+29
-4.0277184e+30
-4.7840892e+32
-7.9380442e+33
-3.9088939e+32
-3.4863295e+32
3.4671434e+32
3.4137578e+32
-1.2888659e+33
-4.398724e+31
5.519178e+31
2.5383863e+31
-2.3327173e+31
3.7511144e+31
9.6952089e+30
-1.6664331e+33
-1.0357722e+32
3.8167353e+32
-3.5990377e+32
-8.0249175e+33
-3.7024765e+32
3.4873218e+32
1.2413075e+33
-1.6245103e+33
-8.714097e+30
5.869032e+30
-1.0755789e+33
-2.4187038e+31
1.795529e+31
9.755428e+30
1.5087884e+31
1.1954365e+33
6.4063166e+30
7.4086305e+30
-1.565339e+33
-6.8584097e+31
3.7438318e+32
-7.5337081e+33
-3.3462389e+32
2.5731862e+32
-2.3156546e+32
2.5441842e+32
-2.3433982e+32
-3.486369e+32
3.4887855e+32
1.1256027e+33
-1.2865731e+33
1.1611885e+31
-6.7814738e+31
1.4526182e+31
7.6205055e+30
8.1989049e+31
3.7805053e+31
1.2397324e+31
-1.1407987e+33
-8.2068667e+29
8.441867e+31
1.0437225e+31
-2.4113118e+31
-1.298175e+33
-6.2726152e+31
1.2786013e+31
1.170179e+33
-1.5293452e+33
2.2265778e+30
7.5261853e+30
-1.3527153e+31
2.2782447e+31
-1.0973599e+33
8.9661034e+30
9.8744747e+32
-1.0215282e+33
3.9328493e+28
1.2744434e+31
1.1737249e+33
-1.3548999e+33
7.0867382e+30
5.2863875e+30
-1.2895221e+31
4.4578039e+30
1.1423403e+29
-7.3627562e+30
1.176434e+29
1.053708e+33
-1.0709722e+33
9.2481766e+30
1.0495042e+33
-1.0679605e+33
5.3163823e+30
1.0494511e+31
7.5337163e+30
6.3735008e+30
5.6533291e+30
8.7664289e+30
-2.6487757e+30
-2.9092599e+32
-8.4650901e+33
-4.0988462e+30
-1.0256733e+32
-8.7180235e+33
-1.2573278e+33
-4.8389176e+30
4.5407713e+30
1.3456258e+31
-1.0866516e+31
8.2586482e+30
1.3867219e+31
-1.2678879e+33
-1.3423233e+33
-6.2673659e+30
-3.7254411e+30
1.5420833e+31
-2.0599906e+30
-4.6592611e+31
-8.1947453e+33
3.784084e+32
-3.7805058e+32
3.9344317e+32
-3.7895964e+32
-1.0498842e+31
8.283088e+30
-1.7156136e+33
6.981664e+30
1.3707985e+33
-1.7696378e+33
5.1802519e+30
1.141218e+31
1.2425814e+33
-1.2755058e+33
1.1329225e+31
1.1186714e+31
7.4367964e+28
9.1805821e+31
-9.1903941e+31
1.1956789e+31
9.4333953e+31
1.8315372e+29
-9.5313184e+31
1.1825361e+31
1.92375e+29
5.073895e+29
1.2591531e+31
1.5328605e+31
-1.4615978e+32
-1.6842626e+31
-8.2509752e+33
-5.2230452e+31
-7.1505096e+31
-8.543227e+33
-2.3482029e+31
-5.2205111e+31
-8.7299607e+33
1.8702551e+30
1.3703029e+33
-8.2314438e+30
1.242357e+31
-1.7465931e+33
-1.4423266e+31
-4.3023052e+31
3.9458056e+32
-8.1887998e+33
-3.6968315e+32
-3.6788437e+32
3.8066033e+32
1.3189108e+33
-1.6980237e+33
4.7020753e+30
2.5421049e+29
1.2433616e+31
-7.0161899e+29
1.8904913e+31
1.2360682e+33
1.1406052e+31
2.4791721e+30
-1.2636106e+33
1.4881116e+31
1.2736539e+31
-3.3218516e+30
1.4749858e+31
1.1782717e+33
-1.1871495e+33
1.3861163e+31
1.576583e+31
-1.1445606e+30
8.9910721e+31
-8.9758293e+31
1.421246e+31
9.140791e+31
-4.2435158e+29
-9.4280082e+31
1.3248425e+31
1.1565346e+30
-4.6164596e+29
1.2852553e+31
1.3102263e+31
-8.4079931e+29
7.745441e+31
-7.9726433e+31
7.7375909e+31
-4.3864216e+29
-8.0021489e+31
4.8183402e+29
-3.2421548e+29
5.8835357e+32
-8.9419062e+33
-3.0765717e+32
5.0523879e+32
4.2294424e+32
-3.8965048e+32
3.8709019e+32
-7.9787568e+33
-3.4842834e+32
-2.8450159e+32
4.9371594e+32
4.312426e+32
-1.1785392e+32
1.3625522e+33
1.4881928e+32
-1.7397804e+33
4.2710996e+31
1.3563961e+33
-1.7487305e+33
2.4849029e+31
1.3287009e+32
2.9034537e+31
1.7299934e+32
4.2830788e+31
-4.4637855e+32
2.2304577e+32
-7.6939004e+33
-2.9423729e+32
3.7332553e+32
4.1584652e+32
-3.3942357e+32
1.2887934e+33
-8.2015955e+31
1.1057008e+32
-1.6498476e+33
5.0031271e+31
-1.0143085e+32
1.2835825e+32
4.5824943e+31
-1.3166806e+33
2.7941229e+31
-1.6851201e+33
3.3183129e+31
1.307572e+32
-1.2362564e+33
4.8793913e+30
-1.2100883e+33
1.3495361e+32
-4.1170526e+30
-1.1950224e+32
1.2518449e+32
-1.198718e+33
1.6531077e+31
-1.2287336e+33
7.4912285e+30
-1.3800717e+32
5.9778046e+31
-7.7791343e+33
-3.3127005e+32
4.0082342e+32
3.7282453e+32
-3.5364335e+32
1.2846032e+33
-3.9090633e+31
6.9839995e+31
-1.6463493e+33
2.6809671e+31
-5.9593725e+31
9.0226818e+31
3.6291288e+31
-1.3132031e+33
2.6349494e+31
-1.6631928e+33
1.8140232e+31
6.920537e+31
1.1874905e+33
-1.1906504e+33
1.8038334e+31
1.1539201e+33
8.6888521e+31
-1.1525086e+33
1.8199436e+31
-8.3401687e+31
1.0193971e+32
1.3834599e+31
1.7324582e+31
7.6444297e+30
8.9637509e+31
-9.227697e+31
1.2247773e+31
8.8248977e+31
9.0371825e+30
-9.0848327e+31
1.0200699e+31
-8.5570954e+30
9.6298798e+30
1.2421275e+31
1.1659758e+31
-4.8169418e+31
-1.5806331e+31
-7.9419769e+33
-3.5370279e+32
-3.6506397e+32
3.7282091e+32
3.855327e+32
1.2940772e+33
-1.4800463e+31
3.0060909e+31
-1.6599777e+33
1.4647584e+31
-3.1216242e+31
4.9507282e+31
2.768373e+31
-1.3075089e+33
1.8977177e+31
-1.6758455e+33
6.3327953e+30
1.1458601e+33
-3.2196989e+31
5.080062e+31
-1.1597915e+33
1.5230453e+31
-4.138824e+31
5.7295416e+31
1.6535348e+31
-1.2041735e+33
1.6100627e+31
-1.1943886e+33
1.5190732e+31
8.7829532e+31
-4.6032846e+30
5.1789271e+30
-8.5859468e+31
1.3776974e+31
-4.7190678e+30
5.1925591e+30
1.3588782e+31
-9.0657786e+31
1.473035e+31
-9.0154592e+31
1.4765416e+31
-7.6790004e+31
-7.1681424e+30
6.8942493e+30
-5.3775013e+30
5.9545064e+30
-7.6741642e+31
8.0960351e+31
-8.1124629e+31
1.2331928e+33
-4.9614573e+30
1.7255905e+31
1.3992052e+31
-1.2465527e+33
-1.7505476e+31
-1.3424564e+33
1.4153506e+31
2.6446581e+31
-2.1700482e+31
-4.1497918e+31
-8.0526658e+33
3.869189e+32
-3.6405759e+32
-3.7458907e+32
3.7852228e+32
-1.3198118e+33
1.4009472e+31
-2.6878805e+30
-8.4675592e+30
-1.7015348e+33
1.4018792e+31
-1.7069704e+33
1.8064814e+30
4.6133186e+30
-1.2025089e+33
1.3735686e+31
3.4060605e+31
1.5752394e+31
-1.193543e+33
1.2021875e+31
9.1264311e+31
-1.6208527e+30
3.9562259e+30
-9.3751805e+31
1.3837739e+31
2.1643874e+30
-9.2603789e+31
1.5230506e+31
4.317539e+30
1.3761634e+31
-9.2285197e+31
1.4166474e+31
7.7434529e+31
-2.4792347e+30
4.2369259e+30
-7.9762898e+31
3.0324626e+30
-8.1991736e+31
4.4606756e+30
-8.2258856e+31
-2.0746213e+31
-3.6740706e+31
-7.5225049e+33
-3.4754795e+32
-2.4407437e+32
2.593927e+32
3.5955318e+32
2.5958774e+32
3.6923138e+32
-3.4749494e+32
-2.4587931e+32
1.4181933e+31
1.258791e+33
-2.063032e+31
-1.60953e+33
1.2195759e+31
1.2198852e+33
1.228662e+31
-1.4136487e+31
-1.570069e+33
5.0085602e+30
-3.0433151e+29
1.819644e+30
2.0074945e+31
-1.1845133e+33
1.4175509e+31
9.4237468e+31
-1.3525895e+33
6.7444105e+30
-7.0202663e+31
1.1971437e+33
-1.3502969e+33
-8.025461e+31
1.3267175e+31
-2.79771e+30
1.0217553e+32
1.6350254e+31
-4.4102093e+29
1.9393681e+31
8.3898099e+30
1.0889787e+33
-2.1146792e+30
-1.1012316e+33
1.5195157e+31
1.1399475e+33
1.5003317e+31
-1.6322651e+30
-1.1664118e+33
1.585527e+31
1.7742539e+31
-4.7567183e+30
1.5194095e+31
-1.0696264e+33
1.9026832e+31
1.4713153e+31
-1.2568452e+33
1.0983232e+31
1.4222018e+31
-1.0880186e+33
2.6366389e+31
1.4278514e+31
-1.4132538e+33
1.41277e+31
1.8968588e+31
1.0722443e+33
-1.074697e+33
9.1273471e+30
1.3397751e+31
-3.9696246e+29
1.0590962e+31
1.3137463e+31
9.0135926e+30
1.5571393e+31
8.3148615e+31
-9.6510919e+29
1.6952536e+30
-8.4740611e+31
1.3243741e+31
-9.4362265e+29
1.9711802e+30
1.3533628e+31
-8.1147376e+31
1.1705682e+31
-7.5498872e+29
-1.0003892e+33
1.2038672e+31
-1.3574167e+30
-9.9772455e+32
8.940866e+30
9.4267306e+30
-1.0028984e+33
1.2902066e+31
5.2223694e+30
-8.2905407e+31
1.8168343e+29
1.2306536e+31
-1.0062309e+33
1.0229895e+31
1.2948408e+31
-1.2272966e+30
8.2357473e+31
-8.2503008e+31
5.4339207e+29
1.3036623e+31
8.4264488e+31
-4.623271e+29
-8.6760805e+31
1.3458507e+31
6.5616943e+29
-4.9898083e+29
1.3206099e+31
6.5764587e+29
1.1465618e+31
-7.3541401e+31
-3.4659472e+29
-1.0851385e+30
-2.0355346e+29
-6.385667e+29
-7.4102e+31
7.7018256e+32
-7.8385649e+32
4.4562782e+30
7.7508535e+30
7.4930087e+31
-7.84898e+31
6.5766673e+29
8.5382425e+30
7.1451624e+31
-7.3256705e+31
3.3135349e+29
7.4481824e+31
-7.7038003e+31
-5.4543675e+29
1.1504405e+31
3.2785024e+30
6.4679468e+30
3.6118649e+29
7.4917571e+30
-1.8357859e+29
-6.1481633e+29
9.5763283e+30
-7.0796663e+31
-2.1185321e+30
1.8968785e+30
-1.1858253e+30
1.8640077e+30
-7.2328927e+31
7.1813458e+31
-7.227207e+31
-1.5652512e+30
-1.737628e+30
-6.3414534e+31
-6.8450078e+31
-6.0400827e+30
-6.0093998e+29
-5.5694005e+31
-6.0574659e+31
-8.2428991e+29
-5.3858719e+29
-5.065011e+30
-7.7745508e+29
-6.3004462e+29
-4.5362693e+30
-6.9526173e+31
-9.8338719e+30
5.0150348e+29
-5.4457498e+31
-8.5604274e+29
-5.5294485e+29
-4.5479968e+30
-7.2909941e+29
-6.1424405e+29
-3.9861515e+30
6.6094971e+31
4.788452e+32
-1.9081592e+32
-7.2281363e+33
-2.4150593e+32
4.6834076e+32
-2.2616638e+32
-7.819391e+33
3.7495047e+32
-3.4832288e+32
-3.6751552e+32
3.4217627e+32
2.9827106e+31
1.2594393e+33
-1.6349844e+33
-7.6595502e+30
1.2995395e+33
1.0489156e+31
-1.6459386e+33
1.7104621e+31
-3.4372557e+31
7.0343934e+31
2.7028477e+31
7.3724605e+29
-1.2417352e+33
-2.0472823e+31
2.8883925e+31
1.5785189e+31
-2.404347e+31
2.7240486e+31
-1.2479712e+33
1.2734785e+31
-1.3118258e+33
-3.1797961e+31
3.8182776e+31
2.0681935e+31
1.7569018e+30
8.2922752e+30
1.0979017e+31
-1.6927573e+33
-1.0933715e+32
3.8687705e+32
-3.6519708e+32
-8.0121615e+33
3.6311282e+32
-3.6089392e+32
1.2752241e+33
-1.6381075e+33
7.993686e+29
5.4531458e+30
1.1370609e+33
-1.1579357e+33
1.0899934e+31
1.4892492e+31
-8.4035458e+31
-2.1992928e+30
1.8175895e+30
1.2278031e+31
1.4556009e+31
1.1240202e+33
8.9132197e+30
1.6268886e+31
-1.1563492e+33
-1.2257286e+33
-8.4452712e+30
1.5445568e+31
2.7772798e+31
-5.2833743e+31
-7.5031234e+33
3.6265423e+32
-3.4695824e+32
-2.4458511e+32
2.5044089e+32
-3.5823602e+32
-2.4459983e+32
2.4864129e+32
3.5283196e+32
7.972767e+30
-1.6873895e+31
-1.5656099e+33
1.4158804e+31
-1.142481e+33
1.7936151e+31
8.6845275e+31
-1.3009574e+33
1.0004433e+31
-7.5120532e+31
-1.1501135e+33
-7.3589166e+30
9.8590146e+31
1.5126007e+31
-1.9396277e+31
-1.3084744e+33
-6.4594098e+31
8.0115687e+30
1.2089443e+33
-1.5724957e+33
3.8015033e+30
1.7393382e+31
1.0345076e+33
-1.0324416e+33
8.7635158e+30
1.5338822e+31
1.2133174e+33
-1.3775507e+33
1.8461292e+31
1.5231649e+31
-8.3601498e+30
1.1571292e+31
1.7389094e+31
1.2708549e+31
1.2116947e+31
1.6206509e+31
1.449117e+31
-1.0671868e+33
-1.5769742e+31
1.0025197e+31
1.5408568e+31
-2.2044849e+31
-1.0609869e+33
1.3712408e+31
1.4918914e+31
1.0889044e+33
-1.115328e+33
1.4864257e+31
1.4229489e+31
-8.9002919e+29
1.9628758e+30
-8.8656526e+31
1.2515729e+31
9.3391538e+32
-9.596328e+32
1.4970051e+31
1.7873945e+31
8.2600356e+31
-8.5030655e+31
2.4067589e+29
1.4045372e+31
9.3969833e+32
-9.6074833e+32
1.5632183e+31
1.6021159e+31
1.4736291e+31
1.0110037e+31
-7.0469075e+29
1.1140357e+31
1.5564803e+31
1.3255815e+31
9.1843322e+28
8.0966391e+31
-8.3339281e+31
1.1713795e+31
8.2190319e+31
-8.4797191e+31
6.1685715e+29
1.257788e+31
6.4131662e+29
7.3542807e+29
9.1904955e+30
1.0716559e+31
6.8611179e+31
-8.3207362e+31
-8.182544e+33
4.8268152e+30
-1.08125e+32
-8.5165883e+33
-8.0242324e+30
-6.2888201e+31
-8.7171853e+33
-9.5670549e+31
-4.6111009e+29
3.6081951e+29
1.3915013e+31
-9.6190521e+29
6.7858075e+29
1.4452784e+31
-9.59718e+31
-1.2559899e+33
-1.6028944e+31
4.2359061e+30
1.5316185e+31
-1.6922725e+31
-4.1615857e+31
-8.1942086e+33
-3.7912811e+32
3.8457415e+32
4.0568268e+32
-3.6755048e+32
-1.3481169e+33
2.9769854e+30
-5.6395091e+30
1.3574374e+31
4.3208045e+30
7.2630376e+30
-1.7399549e+33
2.203648e+30
-1.3932819e+33
1.936273e+31
-1.7868539e+33
1.070184e+31
-1.0424248e+31
-9.264071e+29
-1.2522955e+33
1.4638201e+31
1.29897e+33
-1.3169832e+33
1.5248566e+31
1.5525695e+31
9.4126016e+31
-9.7551978e+31
1.3369786e+31
1.2486904e+31
1.1846098e+29
7.9431246e+31
-8.2169623e+31
8.2961113e+31
1.8290359e+29
-8.4505514e+31
1.2732262e+29
4.9234119e+29
-1.940236e+32
1.2572327e+32
-8.1337769e+33
-8.1356589e+31
-2.7403489e+30
-8.3763894e+33
-2.8459835e+31
-4.4187935e+31
-8.5709528e+33
-1.3453259e+31
-4.7363014e+31
-8.7338674e+33
-2.3634227e+30
1.265993e+33
-9.3689577e+30
-1.2580879e+33
1.625124e+31
-1.3638369e+33
-5.6231988e+30
-5.3112107e+30
2.2758996e+31
-3.4479676e+30
-3.2972531e+31
-8.1941782e+33
-3.7755349e+32
-3.7690077e+32
3.8492657e+32
3.9058177e+32
5.1625263e+30
-1.823432e+30
-1.7475582e+33
1.0699217e+31
1.3383303e+33
-1.7264981e+33
4.8157824e+30
1.4902852e+31
1.188156e+33
-1.2018638e+33
1.4414387e+31
-6.4588366e+30
1.5142405e+31
-2.0448716e+30
1.6873464e+31
9.518595e+31
8.7756972e+29
1.6966586e+29
-9.6494447e+31
1.5143013e+31
9.8156866e+29
-2.423883e+29
1.491709e+31
8.916915e+31
-8.989295e+31
1.5000728e+31
1.565966e+31
-1.0740014e+30
7.980437e+31
-7.9800175e+31
8.1559444e+31
-3.8398707e+29
-8.3131604e+31
1.1113156e+30
-4.330991e+29
5.42014e+32
-9.1265629e+33
-3.0939378e+32
-3.8108957e+32
4.4943946e+32
5.3188896e+32
3.9915438e+32
-8.1090278e+33
-2.9667404e+32
-3.5518213e+32
4.4949316e+32
5.0955511e+32
1.4129564e+33
-1.1463262e+32
1.3768625e+32
-1.7980201e+33
5.4353353e+31
-1.3017753e+32
1.5507864e+32
5.5576903e+31
-1.4086732e+33
4.3045432e+31
-1.8030802e+33
3.894328e+31
-4.9566144e+32
2.8743157e+32
-7.691486e+33
-2.9984438e+32
4.2161303e+32
3.6991748e+32
-3.4768014e+32
7.9273328e+31
1.3327693e+33
-1.6918791e+33
4.197842e+31
1.3218028e+33
1.0636416e+32
-1.6871255e+33
5.3730433e+31
-1.0292024e+32
1.2755625e+32
5.1102465e+31
4.0719543e+31
-1.3053194e+32
1.2411184e+33
1.3233539e+32
-1.2271725e+33
2.6962011e+31
1.238436e+33
-1.2413662e+33
2.2431925e+31
1.4256549e+32
3.1238534e+30
1.5036297e+32
8.2895709e+30
-1.7650643e+32
1.2079212e+32
-7.6972709e+33
-3.1855608e+32
4.0827479e+32
3.7618052e+32
-3.4703302e+32
1.3042623e+33
-4.8752026e+31
7.2512791e+31
-1.6534179e+33
3.1157624e+31
6.853972e+31
-1.3239416e+33
3.3834125e+31
9.6001415e+31
4.2799689e+31
-1.6662018e+33
2.3924615e+31
1.1873967e+33
-8.6622913e+31
9.6794258e+31
-1.1740397e+33
2.6503132e+31
-1.035175e+32
1.0744441e+32
3.0576935e+31
-1.2184394e+33
1.6069314e+31
-1.2055169e+33
2.0526359e+31
9.9117771e+30
-9.7087942e+31
9.5518527e+30
-1.0510899e+32
1.0300709e+31
1.5648399e+30
-9.3700973e+30
9.6040627e+30
-1.000421e+32
1.123103e+31
-9.9034477e+31
9.1056022e+30
-5.8753281e+31
2.4075448e+31
-7.8018643e+33
-3.6128769e+32
-3.4956965e+32
3.6369075e+32
3.8877092e+32
1.3015628e+33
-2.0971855e+31
4.2150801e+31
-1.6703352e+33
1.6323833e+31
-3.4472066e+31
5.9773807e+31
3.0735449e+31
-1.298167e+33
2.2834162e+31
-1.6509177e+33
8.1966773e+30
1.1550015e+33
-3.9110373e+31
6.1321431e+31
-1.1664237e+33
1.602124e+31
-5.2937106e+31
7.3051489e+31
1.8670078e+31
-1.1775762e+33
1.7633877e+31
-1.1635872e+33
1.5841684e+31
5.942222e+30
9.0414183e+31
-8.7975181e+31
1.4836703e+31
8.9389904e+31
7.2627093e+30
-8.6179114e+31
1.366882e+31
-6.670097e+30
8.1657585e+30
1.0881212e+31
1.3984847e+31
7.2902588e+30
7.8298376e+31
-7.9581865e+31
7.6012458e+31
8.5667587e+30
-7.7744162e+31
-7.9961062e+30
8.9703641e+30
-2.9120169e+31
-1.7047312e+31
-7.9773103e+33
-3.7236188e+32
-3.5423253e+32
3.8971554e+32
3.7688542e+32