/*--------------------------------*- C++ -*----------------------------------*\
  =========                 |
  \\      /  F ield         | OpenFOAM: The Open Source CFD Toolbox
   \\    /   O peration     | Website:  https://openfoam.org
    \\  /    A nd           | Version:  7
     \\/     M anipulation  |
\*---------------------------------------------------------------------------*/
FoamFile
{
    version     2.0;
    format      ascii;
    class       volScalarField;
    location    "1000";
    object      k;
}
// * * * * * * * * * * * * * * * * * * * * * * * * * * * * * * * * * * * * * //

dimensions      [0 2 -2 0 0 0 0];

internalField   nonuniform List<scalar> 
33733
(
1.5213364
1.5265859
1.5258957
1.5236071
1.5233505
1.5212522
1.5242771
1.5240669
1.5242917
1.524607
1.5265956
1.526435
1.5263275
1.5266888
1.5267415
1.5268469
1.5259504
1.526851
1.5265837
1.5266863
1.5265556
1.5246544
1.524462
1.5248914
1.5247137
1.5250575
1.5242058
1.5240447
1.5250228
1.5249257
1.524844
1.5248136
1.524697
1.523813
1.5235878
1.5236783
1.5238928
1.5247134
1.5248152
1.5248698
1.5246121
1.5248156
1.5250048
1.5254036
1.526427
1.5265692
1.5268391
1.52676
1.5258749
1.5257705
1.5261548
1.5265658
1.526724
1.5268455
1.5268718
1.526915
1.5271535
1.527154
1.5268627
1.5268832
1.5269387
1.5268234
1.5268871
1.5268356
1.5267327
1.526637
1.5267518
1.5264089
1.5264145
1.5262515
1.5262867
1.5262351
1.5262657
1.5262981
1.5251551
1.5249352
1.525066
1.5248638
1.5251416
1.5251776
1.524953
1.524929
1.5250762
1.5250559
1.5250462
1.5248709
1.5247963
1.5250085
1.5251052
1.5249891
1.5251313
1.5249726
1.5251727
1.5251551
1.5249822
1.5249473
1.5207584
1.5204871
1.5204161
1.5206297
1.5210373
1.520184
1.5204757
1.5238178
1.5239328
1.5238334
1.5239475
1.5235129
1.5236755
1.5235358
1.5237103
1.5237395
1.5235805
1.5236286
1.5237823
1.5237343
1.5238584
1.5238902
1.5239772
1.5238837
1.5239537
1.5238814
1.5239728
1.5248275
1.5247972
1.5248387
1.5248562
1.5249073
1.5249244
1.5248781
1.5249876
1.5248915
1.5248671
1.5254922
1.5254416
1.5227258
1.5258954
1.5260468
1.5262916
1.5262026
1.5235619
1.5234786
1.5241736
1.5255173
1.5255834
1.5261001
1.5263257
1.5267173
1.526963
1.5269659
1.5269303
1.5264136
1.5265492
1.5270132
1.5271884
1.5270604
1.5269551
1.5270079
1.5269914
1.5269211
1.5266274
1.5266927
1.5266439
1.5265768
1.526737
1.5267761
1.5267365
1.5267849
1.5266286
1.5265845
1.5265334
1.5265367
1.5267729
1.5267258
1.5267199
1.526671
1.5265685
1.5265216
1.5264281
1.5264771
1.5264467
1.5264727
1.5263369
1.5263218
1.5262867
1.5262899
1.5263594
1.5263742
1.5263705
1.5264422
1.5264207
1.526462
1.5256431
1.5256977
1.5255881
1.5254589
1.5255509
1.5257546
1.5256784
1.5256694
1.5255302
1.5256649
1.5258243
1.5259047
1.5258968
1.5256416
1.5257699
1.5259726
1.5260658
1.5260515
1.5258729
1.5258787
1.5260874
1.5252724
1.525243
1.5250151
1.5250243
1.5249852
1.5251886
1.5252351
1.5250116
1.5253111
1.5252748
1.5250373
1.5250261
1.5253325
1.5250402
1.525037
1.525307
1.5239708
1.5239772
1.5250271
1.5250458
1.5250444
1.5250121
1.5249739
1.5251745
1.5252363
1.5250416
1.5250394
1.5252891
1.5252898
1.5250402
1.5250446
1.5253067
1.5252972
1.5250381
1.5250388
1.5253146
1.5253218
1.5250402
1.5250384
1.5203539
1.5201845
1.5202363
1.5204072
1.521279
1.5212414
1.5212858
1.5213298
1.521025
1.5211924
1.5210631
1.5212298
1.5213473
1.5213198
1.5213639
1.5205605
1.5217367
1.5214641
1.5208615
1.520679
1.5203706
1.5201198
1.5200308
1.5200692
1.5202293
1.5201615
1.5204298
1.5203057
1.520194
1.5204646
1.5205783
1.5197337
1.5195549
1.5238495
1.5238368
1.5238419
1.5238284
1.5240053
1.5239157
1.5239005
1.5239963
1.523826
1.5238141
1.52382
1.5238318
1.5239676
1.5238777
1.5238921
1.5239781
1.5236196
1.5234847
1.5236681
1.5234847
1.5236285
1.5237289
1.523742
1.5237398
1.5237268
1.5235065
1.5236343
1.523496
1.5236209
1.5237285
1.5237179
1.5237188
1.5237296
1.5237826
1.5236996
1.5238083
1.5238464
1.5236615
1.5235387
1.523527
1.5236392
1.5235881
1.5237087
1.5235637
1.5236778
1.5237781
1.523754
1.5237851
1.5237609
1.5237226
1.5237357
1.5237311
1.5237438
1.5238328
1.5238233
1.5238276
1.5238177
1.523877
1.5238695
1.5238446
1.5238526
1.5239189
1.5239916
1.523921
1.5239015
1.5239765
1.5239882
1.524007
1.523953
1.523965
1.5238811
1.5239625
1.5238807
1.523885
1.5247503
1.5247472
1.5247301
1.5247253
1.5247723
1.5247795
1.5247991
1.5248098
1.5248922
1.5249101
1.5249395
1.5249296
1.5249414
1.5249797
1.5248656
1.5248461
1.5248301
1.5248259
1.5255013
1.5253625
1.5255201
1.5256015
1.5222197
1.5224918
1.5226561
1.5232487
1.523374
1.5234732
1.5235865
1.5257077
1.5241023
1.5257864
1.5241286
1.525592
1.525586
1.5239739
1.5240082
1.5239629
1.5241132
1.5241645
1.5240456
1.5249121
1.5248279
1.5249043
1.5250189
1.5234824
1.5236618
1.5264255
1.5268131
1.5268224
1.5266851
1.5240756
1.5260709
1.5259405
1.5240377
1.5262439
1.5263474
1.5238653
1.5237736
1.523921
1.5268331
1.5268338
1.5267988
1.5267927
1.5268201
1.5267995
1.5267951
1.5268047
1.5267637
1.5267736
1.5260317
1.5260298
1.5260137
1.5260278
1.5259242
1.5259626
1.5259096
1.525858
1.5260416
1.5262917
1.5261107
1.5259893
1.5258895
1.5260174
1.5260037
1.5262272
1.5260489
1.5262451
1.5258501
1.5257723
1.5257445
1.5257569
1.5259164
1.5259351
1.5261684
1.526166
1.5264738
1.5265482
1.5265145
1.5264363
1.5262618
1.5263796
1.5263073
1.526176
1.5263947
1.5263407
1.5264646
1.5264317
1.5262377
1.5261567
1.5263219
1.5263576
1.5257546
1.525583
1.5257469
1.5256112
1.5258134
1.5257149
1.5258482
1.5257371
1.5256855
1.5256926
1.5254885
1.525527
1.525644
1.5256757
1.5254915
1.5254548
1.5254916
1.5255577
1.5258369
1.525741
1.5254838
1.5255545
1.5257656
1.5256726
1.5260718
1.5260189
1.5259326
1.5259281
1.526038
1.525974
1.5259966
1.5260053
1.5255421
1.5256319
1.5255494
1.5257104
1.525908
1.5260851
1.526074
1.5259915
1.5256193
1.5256337
1.5256308
1.5256993
1.5259373
1.5258753
1.5261335
1.5261197
1.5251313
1.5250354
1.5249347
1.525021
1.5249465
1.5248275
1.5247804
1.5252938
1.5251212
1.5250347
1.5251063
1.5251995
1.5251037
1.5251985
1.5252847
1.5251908
1.5250611
1.5248202
1.5251224
1.525236
1.525362
1.5252138
1.5252544
1.525061
1.5255093
1.5255873
1.5257234
1.5256835
1.5257748
1.5256684
1.5257314
1.5255902
1.5256697
1.5257247
1.525809
1.5257797
1.5253774
1.5252129
1.525315
1.5254493
1.5254631
1.5253139
1.5254287
1.5255464
1.5257845
1.5257242
1.5258127
1.5258515
1.5259409
1.5259621
1.5259028
1.5258809
1.5258985
1.5259272
1.5258752
1.5258519
1.5256256
1.5256387
1.5250283
1.5250148
1.525363
1.5256418
1.5249653
1.5255926
1.5258973
1.5259506
1.525855
1.5259177
1.524891
1.5248496
1.5247715
1.5248121
1.5244551
1.5244886
1.5249374
1.5249784
1.5249494
1.5250296
1.5250073
1.5195836
1.5239515
1.5240111
1.525026
1.5250583
1.5250954
1.5250283
1.5250276
1.5250952
1.5251282
1.5251365
1.5251372
1.5251137
1.525067
1.5250602
1.5250565
1.5201121
1.5210524
1.5209111
1.5209116
1.5210586
1.5208106
1.5208142
1.5209155
1.5209306
1.520977
1.5209513
1.520967
1.5209987
1.5211031
1.5210925
1.5211246
1.5211397
1.5226036
1.522708
1.5224904
1.5223879
1.5226022
1.5226196
1.5224017
1.5223938
1.5228881
1.5228351
1.5229052
1.5228592
1.5228901
1.5228438
1.5229918
1.5229463
1.5220902
1.5223156
1.5218907
1.5221037
1.5224866
1.5225774
1.5222813
1.5223686
1.522341
1.5223009
1.5225913
1.5225417
1.5227644
1.5227086
1.5228566
1.5228045
1.5226533
1.5227186
1.5212112
1.5225046
1.5224445
1.52261
1.5226364
1.5211895
1.522419
1.5223978
1.522896
1.5228472
1.5229207
1.5211798
1.5211907
1.5228494
1.5229397
1.5215873
1.5227505
1.5226396
1.5227088
1.5227174
1.5213403
1.5225043
1.5225002
1.5213029
1.5215548
1.5211889
1.5211451
1.5213698
1.5214128
1.5210602
1.5210471
1.5210431
1.5210681
1.5207068
1.5206767
1.5207408
1.5207888
1.5200097
1.5205181
1.5204834
1.5205463
1.5205974
1.5206245
1.5205559
1.5205699
1.520646
1.5200369
1.5199807
1.5199986
1.5208203
1.5207725
1.5207935
1.5208472
1.5201605
1.5203832
1.5201082
1.5202848
1.5209207
1.520872
1.5208649
1.5209184
1.5206563
1.5207305
1.5206566
1.5207278
1.5207506
1.5209449
1.5210272
1.5208349
1.5209631
1.5211701
1.5212312
1.5210303
1.5202077
1.5200507
1.5239016
1.5239005
1.523903
1.5239035
1.5238896
1.5238873
1.5238915
1.5238919
1.5238856
1.5238834
1.5238881
1.5238901
1.5238748
1.5238688
1.5238741
1.5238787
1.5240101
1.5240049
1.5240684
1.5240658
1.5239448
1.5239413
1.5239486
1.5239509
1.5239311
1.523924
1.5239326
1.5239376
1.524056
1.5239887
1.5239979
1.5240568
1.5238472
1.5238455
1.5238516
1.5238532
1.5238378
1.5238314
1.523837
1.5238426
1.5238481
1.5238549
1.5238608
1.5238541
1.5238651
1.5238632
1.5238696
1.5238714
1.5240185
1.5239457
1.5239576
1.5240237
1.5238934
1.5238831
1.5238907
1.5239001
1.5239116
1.5239014
1.5239116
1.5239195
1.5239791
1.523967
1.5240386
1.5240421
1.5237522
1.5237595
1.5237702
1.5237626
1.5247032
1.5246831
1.5236624
1.5236334
1.5236311
1.5236514
1.5246594
1.5236549
1.5236183
1.5236118
1.523642
1.5237404
1.5237432
1.5237534
1.5237499
1.5238219
1.5238226
1.5238213
1.5238194
1.523833
1.5238266
1.5238249
1.5238312
1.5238141
1.5238079
1.5238106
1.5238164
1.5238031
1.5238029
1.5238053
1.5238047
1.523599
1.5236135
1.5236582
1.5236405
1.5237264
1.523721
1.5237226
1.5237163
1.5236528
1.5236101
1.5236029
1.5236388
1.5237302
1.5237259
1.5237346
1.5237377
1.5237761
1.5237729
1.523779
1.5237754
1.5237673
1.5237679
1.5237693
1.5237696
1.5237833
1.5237862
1.5237865
1.5237829
1.5237887
1.5237919
1.5237972
1.5237929
1.5238034
1.5237116
1.5237292
1.5236416
1.5237633
1.5238143
1.5238085
1.5238375
1.5238417
1.5238584
1.5237305
1.5237279
1.5237192
1.5237217
1.5236924
1.5236417
1.523627
1.523671
1.5236747
1.5236287
1.5236132
1.5236535
1.5237134
1.5237231
1.5237261
1.5237178
1.5236355
1.5236348
1.5237106
1.5237014
1.5237401
1.5237472
1.5237404
1.5237496
1.5236462
1.5237094
1.5236387
1.5236902
1.5237284
1.5237405
1.523741
1.5237308
1.5237909
1.5237801
1.5237764
1.52379
1.5237662
1.5237752
1.5237713
1.5237638
1.5237941
1.5237831
1.5237814
1.5237943
1.5237765
1.5237773
1.5237699
1.5237696
1.5237595
1.5237617
1.5237607
1.523759
1.523759
1.5237648
1.5237624
1.523758
1.5237644
1.5237658
1.5237682
1.5237672
1.5237632
1.523768
1.5237686
1.5237649
1.5238328
1.523831
1.5238311
1.5238326
1.5238275
1.523822
1.5238206
1.523826
1.5238357
1.523834
1.5238373
1.5238388
1.5238284
1.5238222
1.5238246
1.5238303
1.5239089
1.5238663
1.5238652
1.5238501
1.5238514
1.5239034
1.5238613
1.5238581
1.5238429
1.5238466
1.5238366
1.523832
1.5238262
1.5238309
1.5238339
1.5238396
1.523841
1.5238359
1.5239321
1.5239355
1.524012
1.5240044
1.5239497
1.5239362
1.5239981
1.5239525
1.52391
1.5239028
1.523886
1.523893
1.5238804
1.5238729
1.5238689
1.5238762
1.5239192
1.5239211
1.5239886
1.5239861
1.5239775
1.5240253
1.5239882
1.523916
1.5239232
1.5239892
1.5238738
1.5238656
1.523867
1.5238751
1.5239979
1.5239268
1.5239375
1.5240037
1.523879
1.5238695
1.5238753
1.5238845
1.5239529
1.524994
1.5249604
1.5215123
1.5216213
1.5219395
1.5216797
1.5233838
1.5221774
1.5235735
1.5224461
1.5233278
1.5234551
1.5262921
1.5239977
1.5234604
1.5233149
1.5237827
1.526583
1.5241179
1.5248295
1.5250142
1.5249623
1.5240848
1.5239982
1.5239425
1.5239959
1.5240968
1.5251929
1.5251262
1.5239525
1.5239868
1.524079
1.5240922
1.5240034
1.5248724
1.52489
1.5248771
1.5248359
1.5240001
1.5239782
1.5240515
1.523952
1.5240636
1.5240764
1.5240648
1.5241144
1.5239809
1.523989
1.5239657
1.5241493
1.524109
1.5241281
1.5241728
1.5241644
1.5241437
1.524215
1.5242557
1.5240803
1.5240943
1.5241013
1.5240879
1.5245185
1.5245806
1.5244609
1.5245141
1.5245809
1.5246349
1.524645
1.5247217
1.5236004
1.5239613
1.5239554
1.5265145
1.5240032
1.5266423
1.5241166
1.5241074
1.5240095
1.5239262
1.5240107
1.5256399
1.5258224
1.5254576
1.5253374
1.5240923
1.5240062
1.5239025
1.5241018
1.5240118
1.5239152
1.5238678
1.5238668
1.5298939
1.523921
1.5240482
1.5239225
1.5240546
1.5266426
1.5266056
1.5265877
1.5264904
1.5265704
1.5265736
1.5265904
1.5265701
1.5264142
1.5264107
1.5264644
1.5264716
1.525481
1.5257436
1.5252598
1.525067
1.5256434
1.5241095
1.5254146
1.5241138
1.5260754
1.5258785
1.5251841
1.525105
1.5251539
1.5251095
1.5250018
1.5248931
1.5248659
1.5247708
1.5249107
1.5250467
1.5251454
1.5249988
1.5250122
1.525547
1.5250716
1.5251345
1.5255823
1.5256394
1.5258931
1.5259211
1.5256067
1.5251507
1.5256014
1.5256154
1.5251497
1.5256675
1.5258889
1.5259212
1.5256531
1.5249547
1.5250459
1.5250146
1.5249222
1.524947
1.5248776
1.5247856
1.5248361
1.5247729
1.5248075
1.5250315
1.5249496
1.5249057
1.5247711
1.5250008
1.5247973
1.5255405
1.5250967
1.5251977
1.5255855
1.5255598
1.5251638
1.5252605
1.5256146
1.5259063
1.5259054
1.5255261
1.5255245
1.5255875
1.5259021
1.5259279
1.5255743
1.5258528
1.5257723
1.5258255
1.5257966
1.5257123
1.5254092
1.5255651
1.5257068
1.5255759
1.5252228
1.5253826
1.5252553
1.5251566
1.5259236
1.5258131
1.5258461
1.5260666
1.5260053
1.5256736
1.5260143
1.5255764
1.5261149
1.526227
1.5259868
1.5259622
1.5261489
1.5261366
1.5259257
1.5259408
1.5252958
1.5254295
1.5258907
1.5257963
1.5256762
1.5251774
1.5252274
1.5256703
1.5259243
1.5259634
1.5258036
1.525712
1.5258458
1.5260254
1.5260677
1.525894
1.5246841
1.5246874
1.5246621
1.5247346
1.5246951
1.5247817
1.5248958
1.5247231
1.5247864
1.5247702
1.5246496
1.5247526
1.524781
1.5248452
1.5248291
1.5248484
1.5248376
1.524781
1.5248101
1.5247983
1.5248305
1.5248369
1.5248598
1.5248663
1.525008
1.5250749
1.5249
1.5248473
1.5248309
1.5251131
1.5250494
1.5254074
1.5255073
1.5256728
1.525614
1.5255498
1.5253226
1.5256021
1.52541
1.5246709
1.5248317
1.5248436
1.524963
1.5249376
1.5248152
1.5249017
1.5250332
1.5253297
1.5252188
1.5254603
1.5255373
1.5252285
1.5251099
1.5253698
1.5254466
1.5258764
1.5259067
1.5258635
1.5258469
1.5258688
1.525827
1.52585
1.5258703
1.5256568
1.5256675
1.5250601
1.5250615
1.5251245
1.525708
1.5251062
1.5257057
1.5258274
1.5257628
1.5258341
1.5258673
1.5257597
1.5256897
1.5258166
1.5258456
1.5257524
1.5257451
1.5251816
1.5251668
1.5257885
1.5257718
1.525246
1.5252296
1.5247205
1.5247162
1.5247752
1.5248257
1.5250237
1.524948
1.5251601
1.5252421
1.524787
1.5246954
1.5248369
1.5246642
1.5252467
1.5249924
1.5253543
1.5251165
1.5257285
1.5254614
1.5255661
1.5257763
1.525458
1.5259262
1.5259139
1.52539
1.5252967
1.5258063
1.5257975
1.5252685
1.5257778
1.5255782
1.5258216
1.5256807
1.5247843
1.5247603
1.5249171
1.5247227
1.5247302
1.5247224
1.5247208
1.5248049
1.5249884
1.5247832
1.5248977
1.5250806
1.5250615
1.5248754
1.5249818
1.5251742
1.5254548
1.5253325
1.5256467
1.5257136
1.5255974
1.5252357
1.5253403
1.5256476
1.5259517
1.5259248
1.5255255
1.5254886
1.5255363
1.5258941
1.5259268
1.5255455
1.5246702
1.5246586
1.5250448
1.5249178
1.524394
1.5247631
1.5249999
1.5246792
1.5247007
1.5247762
1.5247284
1.5246881
1.5244443
1.5246632
1.5247827
1.5249385
1.5247772
1.5248612
1.5247323
1.524966
1.5250422
1.5252146
1.5251709
1.5252829
1.5251642
1.5252457
1.5251017
1.5252153
1.5252652
1.5253545
1.5253182
1.524999
1.5248167
1.5248681
1.5250595
1.525112
1.5249188
1.5249854
1.525174
1.5253532
1.5253049
1.5253818
1.5254157
1.5253244
1.5253634
1.5252456
1.5252031
1.5250685
1.5252153
1.525239
1.5250569
1.5250492
1.5248313
1.5248384
1.5249441
1.5250342
1.5251206
1.5244021
1.5249228
1.5251404
1.5252892
1.5250733
1.5252538
1.5241491
1.5245747
1.5246022
1.5241498
1.5245671
1.5245399
1.5241499
1.5245266
1.5245176
1.5241507
1.5245531
1.5245366
1.524133
1.5241037
1.5240962
1.5241249
1.5241615
1.5241915
1.5248996
1.5241334
1.5247837
1.5247757
1.5241453
1.5247872
1.5247515
1.524109
1.5247631
1.5248445
1.5241221
1.5248163
1.5248196
1.5239329
1.5239361
1.5239794
1.5240369
1.5250219
1.5250637
1.5240501
1.5255496
1.5254354
1.5240507
1.5253826
1.5252954
1.5240485
1.5252532
1.5251903
1.5251285
1.5251474
1.5240538
1.5250688
1.5250957
1.5240575
1.5240605
1.5248057
1.524809
1.5240965
1.5248225
1.5248556
1.5240676
1.524819
1.5247893
1.5207804
1.5212123
1.5206454
1.5210221
1.5208752
1.5205241
1.522227
1.5221626
1.522079
1.5221517
1.52202
1.5217976
1.5217187
1.5219242
1.5217513
1.5218143
1.5220336
1.5219515
1.5222756
1.522198
1.5221209
1.5222025
1.521705
1.5217967
1.5220141
1.5219107
1.5216972
1.5217784
1.5219785
1.5218935
1.522111
1.5220743
1.5220034
1.5220521
1.5220458
1.5221325
1.522184
1.5221063
1.5222112
1.5221426
1.5220722
1.5221505
1.5221673
1.5221561
1.5220829
1.5220988
1.5221287
1.5222178
1.5222322
1.5221432
1.5221189
1.5222027
1.5222834
1.5222075
1.5222211
1.522295
1.522301
1.5222327
1.5221691
1.5222506
1.5222618
1.5221794
1.5223305
1.5222365
1.5221599
1.5222563
1.5222179
1.5222818
1.5223818
1.5223186
1.5261374
1.5261395
1.5255472
1.5255754
1.5256073
1.5256449
1.5261868
1.5261862
1.526168
1.5261209
1.5261002
1.5261031
1.5255175
1.5255435
1.525555
1.5255931
1.5261528
1.5261531
1.5261345
1.5260842
1.5255436
1.525565
1.5251047
1.5250736
1.5251184
1.5247231
1.5247513
1.5251426
1.5251517
1.5255807
1.5250996
1.525613
1.525144
1.5247407
1.5251889
1.5247958
1.5255705
1.5255954
1.5250934
1.5251313
1.5251683
1.5247379
1.5247753
1.5251362
1.5256321
1.5256627
1.5252149
1.5251645
1.5252095
1.5252509
1.5248161
1.5248684
1.5252814
1.52531
1.5247008
1.5247687
1.5252041
1.5252544
1.5258295
1.5258356
1.5253041
1.5258268
1.5259642
1.5259675
1.5253725
1.5254021
1.5254394
1.5254839
1.5260275
1.526031
1.5259539
1.5260147
1.5243333
1.5247035
1.5242467
1.524778
1.5242658
1.524357
1.5238915
1.5239871
1.5247921
1.5252208
1.5247241
1.5252676
1.5243475
1.5247591
1.5248227
1.5244224
1.5249544
1.5253941
1.524918
1.525419
1.5245588
1.5249582
1.5249886
1.5245941
1.525052
1.5254631
1.5249923
1.5255025
1.524639
1.5250352
1.5250884
1.5247029
1.5261493
1.5261497
1.5255685
1.5255902
1.525576
1.5256098
1.5261456
1.5261445
1.5222799
1.5223544
1.5224046
1.5223359
1.5261192
1.526124
1.5261496
1.5261522
1.5255464
1.5255727
1.5255853
1.5256209
1.5261927
1.5261924
1.5222344
1.5223173
1.5223353
1.5222568
1.5261682
1.5261294
1.5251218
1.5255729
1.5250871
1.525596
1.5251315
1.524725
1.5247584
1.5251607
1.5251742
1.5256137
1.5251232
1.5256451
1.5222002
1.5222917
1.5223005
1.5222157
1.5223451
1.5223051
1.5222294
1.522278
1.5260905
1.5260852
1.5255567
1.5255683
1.5253863
1.5253598
1.5258587
1.5258189
1.5224938
1.5225507
1.5226574
1.5226001
1.5258077
1.5260597
1.5260815
1.5260823
1.5255232
1.525543
1.5255148
1.5255502
1.5260781
1.5260793
1.5223418
1.5224104
1.5224128
1.5223486
1.5260508
1.5260555
1.5222932
1.5223671
1.5223651
1.5222957
1.5225939
1.5224965
1.5224393
1.522539
1.5222491
1.522326
1.5223232
1.5222491
1.5221974
1.5222549
1.5222612
1.522199
1.5224711
1.5223833
1.5223315
1.5224175
1.5223879
1.5224506
1.5225423
1.5224789
1.5221759
1.5222776
1.5222774
1.522183
1.5221501
1.522232
1.5222229
1.5221489
1.5222323
1.5221984
1.5221329
1.5221692
1.522185
1.5222656
1.5222992
1.5222249
1.5216822
1.5217782
1.5219435
1.5218576
1.5216623
1.5217277
1.5218586
1.5218082
1.5219296
1.5219049
1.5218783
1.5219037
1.5219502
1.5220219
1.5220462
1.521985
1.5203888
1.5204672
1.5204814
1.5204208
1.5214067
1.5213969
1.5215237
1.5215387
1.5213806
1.521342
1.5214353
1.5215015
1.5217155
1.5216262
1.5215974
1.5217006
1.521744
1.5217422
1.5217566
1.5217682
1.5218036
1.5218151
1.5218178
1.5218149
1.5204532
1.521579
1.5214643
1.5214584
1.5215916
1.5204654
1.5214954
1.5214666
1.5215758
1.5216324
1.5217976
1.5217996
1.5218632
1.521864
1.5205236
1.5205291
1.5205301
1.5205761
1.5220219
1.5220973
1.5221045
1.5220361
1.521944
1.5219798
1.5219855
1.5219553
1.522034
1.5219661
1.5219335
1.522002
1.5220149
1.5220804
1.5221478
1.5220849
1.5205524
1.5205579
1.5206048
1.520608
1.5206502
1.5208199
1.5206864
1.5208283
1.5206482
1.5207747
1.5221028
1.5221904
1.5221749
1.5220951
1.5220374
1.5220809
1.522065
1.5220269
1.5220132
1.5219856
1.5220246
1.5220624
1.5220691
1.5221331
1.5221763
1.5221074
1.5216717
1.5215541
1.5215404
1.521672
1.5219114
1.5219093
1.5218984
1.5219026
1.5215363
1.5216165
1.5215178
1.5216672
1.5218907
1.5218933
1.5218403
1.5218437
1.5215874
1.5215838
1.521702
1.5217055
1.5219141
1.5216815
1.5218115
1.521803
1.5220284
1.5220403
1.5221291
1.5221381
1.5219246
1.5219278
1.5219159
1.521915
1.5220772
1.522048
1.5220646
1.5220952
1.5222025
1.5221823
1.5222584
1.522292
1.5224035
1.5223208
1.5222677
1.5223462
1.5222056
1.5221887
1.5221336
1.5221427
1.5295887
1.5297554
1.5240054
1.5239938
1.5239936
1.524004
1.5240232
1.5240088
1.5239981
1.52401
1.5239595
1.5239592
1.5239777
1.5239778
1.5239616
1.5239698
1.5239902
1.5239809
1.5240591
1.5240544
1.5240584
1.5240542
1.5240547
1.5240578
1.5240257
1.5240174
1.5240301
1.5240374
1.5240486
1.5240492
1.5240521
1.524052
1.5240428
1.5240371
1.5240397
1.524046
1.5240043
1.5239873
1.5240026
1.5240177
1.5240344
1.5240456
1.5238791
1.5238784
1.5238951
1.5238959
1.5238795
1.5238888
1.5239045
1.5238957
1.5239243
1.5239464
1.5239388
1.5239156
1.5239161
1.5239154
1.5239369
1.5239374
1.5239726
1.5239868
1.5239317
1.5239129
1.5239282
1.5239471
1.5239674
1.5239466
1.523965
1.5239837
1.5240194
1.5240025
1.5241711
1.5241492
1.5241207
1.5241397
1.5248375
1.5247344
1.5242498
1.5245978
1.5246245
1.5242742
1.5244135
1.5244677
1.5249901
1.5248721
1.5247682
1.5247027
1.5241975
1.5245447
1.5245696
1.5242228
1.5241249
1.5240996
1.5240749
1.5240979
1.5240807
1.5240619
1.5240368
1.5240529
1.5240268
1.5240291
1.5240447
1.524042
1.5239858
1.5239876
1.5240089
1.524007
1.523994
1.524017
1.5240398
1.5240159
1.5244746
1.5244536
1.5241288
1.5241382
1.5240021
1.5240266
1.5240128
1.5240378
1.5241532
1.5244974
1.52452
1.524173
1.5240543
1.5240751
1.5240509
1.5240293
1.523906
1.5239089
1.5239201
1.5239232
1.5239136
1.5239364
1.5239276
1.5239508
1.5239699
1.5239922
1.5239697
1.5239465
1.5239422
1.5239639
1.523962
1.523939
1.5241739
1.5237657
1.523796
1.5237791
1.5237563
1.5237808
1.5237587
1.5237084
1.5237004
1.5236476
1.5237369
1.5238367
1.523812
1.5238118
1.5238383
1.5238077
1.5238337
1.5238083
1.5238348
1.5238536
1.5238563
1.5240186
1.5240046
1.5240242
1.5240253
1.5240032
1.5241185
1.524337
1.5243808
1.5241255
1.524126
1.5244109
1.5244336
1.5241259
1.5240221
1.5240233
1.5239996
1.5239983
1.5239515
1.5240966
1.523923
1.524013
1.5239522
1.5239
1.5239617
1.5238957
1.5241948
1.5240652
1.524276
1.5241004
1.5240161
1.5239956
1.5239826
1.5239999
1.5238823
1.5239132
1.5239019
1.5238765
1.5239339
1.5239279
1.5239129
1.5239165
1.5238765
1.5239012
1.5238985
1.5238755
1.5239078
1.5239109
1.5239134
1.52391
1.523928
1.5239266
1.523905
1.5239061
1.5239299
1.5239342
1.5239143
1.5239094
1.5239008
1.5238997
1.5238969
1.5238983
1.5239041
1.5239104
1.5239067
1.5239014
1.5238694
1.5238687
1.5238631
1.5238639
1.5238732
1.5238832
1.5238777
1.5238672
1.5238626
1.5238618
1.5238666
1.5238674
1.523865
1.5238755
1.5238788
1.5238688
1.5239164
1.5239158
1.5238902
1.5238911
1.5238925
1.5238921
1.5238894
1.5238898
1.5239104
1.5238834
1.5238854
1.5239128
1.5238925
1.5238932
1.5238957
1.5238916
1.5238874
1.5238942
1.52389
1.5238814
1.5238769
1.5238844
1.5238845
1.5238777
1.5239733
1.5239973
1.5240339
1.5240251
1.5239813
1.5239714
1.5239291
1.5239556
1.5239585
1.5239351
1.5239386
1.5239324
1.5239255
1.5239327
1.5239266
1.523918
1.5239108
1.5239214
1.5239555
1.5239622
1.5239522
1.5239512
1.5239167
1.523904
1.5238989
1.5239139
1.5239536
1.5239608
1.5239146
1.5238978
1.5239022
1.5239203
1.524178
1.5240177
1.5216347
1.5214506
1.5215495
1.5218913
1.5235134
1.5234382
1.5238522
1.5260433
1.523631
1.5240298
1.5262164
1.524021
1.5238703
1.5234039
1.5235223
1.5283628
1.5279338
1.5275011
1.5278993
1.5247833
1.5231623
1.5264734
1.5279135
1.5275681
1.5280143
1.5283973
1.5289537
1.5295413
1.5241187
1.5241758
1.5241754
1.5241107
1.5252519
1.5252031
1.5246194
1.524556
1.5294998
1.5288695
1.5240492
1.5240531
1.5245771
1.5246134
1.5240206
1.5240155
1.5239623
1.5239522
1.5239571
1.5239708
1.5239758
1.5240704
1.5239809
1.5239739
1.5239443
1.5239521
1.5239584
1.5239669
1.5239737
1.5240671
1.524033
1.5240252
1.5240587
1.5240965
1.5239436
1.5239723
1.5239717
1.5239399
1.5239677
1.523984
1.5239982
1.5239835
1.524045
1.524027
1.5240592
1.5240747
1.5240858
1.5240602
1.5240943
1.5241205
1.5240245
1.5240013
1.5240377
1.524016
1.5245398
1.524534
1.524515
1.5245362
1.5245018
1.524509
1.5245284
1.5245161
1.5241219
1.5240941
1.5240876
1.5241106
1.5240734
1.5240719
1.5241445
1.5240269
1.5241401
1.5241449
1.5241481
1.5240331
1.5240408
1.5240362
1.5241404
1.5241533
1.5241482
1.5241444
1.5241702
1.5241624
1.5241531
1.5241607
1.524159
1.5241539
1.5241613
1.5241648
1.5240935
1.5241041
1.5241635
1.5241585
1.5240829
1.524089
1.5240604
1.52405
1.5240793
1.5241098
1.5240784
1.5241046
1.5240596
1.5240554
1.5240557
1.5240578
1.5242114
1.5242286
1.5242102
1.5242346
1.5241863
1.5241895
1.5241829
1.524192
1.5241978
1.5241899
1.5241846
1.5241928
1.5242175
1.5242179
1.5242506
1.5242417
1.5241899
1.5242037
1.524191
1.5242036
1.5241864
1.5241899
1.5241971
1.5241997
1.5242998
1.5242324
1.5242252
1.5242799
1.5242405
1.5242542
1.5243586
1.5243347
1.5241469
1.5241452
1.5241404
1.5241512
1.5241673
1.5241593
1.5241529
1.5241611
1.5241671
1.5241582
1.5241517
1.524161
1.5241461
1.5241397
1.5241448
1.524151
1.5243659
1.5243987
1.5243217
1.5243513
1.5244272
1.5244593
1.5244942
1.5245356
1.5240847
1.5238788
1.5240034
1.5239988
1.5240919
1.5241167
1.5240941
1.5241077
1.5241199
1.5241021
1.5240526
1.5240732
1.5240851
1.5239549
1.5239847
1.5239738
1.5239858
1.5239949
1.5240335
1.5239535
1.5239732
1.5239785
1.523996
1.5240045
1.5240084
1.5240035
1.5240089
1.5239389
1.5239957
1.5239495
1.5239577
1.5239432
1.5240085
1.5295626
1.5241145
1.5239647
1.5239665
1.5241009
1.5296896
1.5239274
1.5239293
1.5239273
1.5239291
1.5240963
1.5240037
1.5239311
1.5239287
1.5239308
1.523929
1.5240049
1.5241072
1.5240064
1.5241141
1.5264129
1.5264004
1.5259406
1.526133
1.5241213
1.5262756
1.5261744
1.5261386
1.525955
1.5259171
1.5258892
1.5260553
1.5260826
1.525965
1.5260985
1.5240995
1.5248088
1.5249702
1.524112
1.5240784
1.524592
1.5246715
1.5240596
1.5245002
1.5244252
1.5241289
1.5251547
1.5249478
1.5240926
1.5240412
1.5240598
1.5241034
1.5246267
1.5247178
1.5241347
1.5241378
1.5240743
1.5240785
1.525359
1.5255663
1.5240787
1.524504
1.5244261
1.5248469
1.5246493
1.524259
1.5243442
1.5243276
1.5242697
1.5242983
1.5242686
1.5246037
1.524306
1.524332
1.5246326
1.5251931
1.5251528
1.5242516
1.5246192
1.5246034
1.5242791
1.5251013
1.5251292
1.5252089
1.5251769
1.5246193
1.5243435
1.5242825
1.5243011
1.5243161
1.5243297
1.5244052
1.5243834
1.5243171
1.5242851
1.524354
1.5243013
1.5246701
1.5243619
1.5243912
1.5247261
1.5247673
1.5244215
1.524448
1.5248027
1.5249324
1.5250135
1.5248045
1.5251162
1.5250835
1.5252899
1.5241269
1.525191
1.5253216
1.5250808
1.5247024
1.5248873
1.5245448
1.5243557
1.5252145
1.5259753
1.5253568
1.5251604
1.5254053
1.5251835
1.5246104
1.5253265
1.5244236
1.5255775
1.5256243
1.5255328
1.5255045
1.5242321
1.5243156
1.5250593
1.5248409
1.5246979
1.524187
1.5242132
1.5246371
1.5251506
1.5252157
1.5252919
1.5253965
1.5245778
1.5244753
1.5243627
1.5240709
1.5243651
1.5240576
1.5243424
1.5243751
1.5240542
1.5243494
1.5243595
1.5244267
1.5244459
1.5246695
1.524411
1.5244008
1.5243406
1.5243728
1.5243985
1.5243923
1.5243525
1.5244941
1.5245237
1.5243584
1.5243784
1.5244001
1.5246056
1.5245573
1.5248419
1.5249064
1.5251346
1.5250886
1.5250051
1.524748
1.5250559
1.5247992
1.5246453
1.5246895
1.5246772
1.5243909
1.524358
1.5244205
1.5244476
1.5243549
1.5243529
1.5244709
1.5247055
1.5246538
1.5249074
1.5249621
1.5246006
1.5245451
1.524779
1.5248527
1.5250562
1.5252031
1.5251838
1.5250507
1.5251751
1.5251469
1.5250578
1.5250653
1.5248349
1.5248382
1.5248536
1.524853
1.525124
1.525091
1.5250484
1.5250615
1.5250587
1.5250095
1.5250167
1.5250482
1.52487
1.5248827
1.524917
1.5248852
1.5246608
1.5243465
1.5243476
1.5244401
1.5244201
1.5245481
1.5246018
1.5243527
1.5243523
1.5243655
1.5243383
1.5246581
1.5244683
1.524718
1.5245033
1.5250836
1.5247984
1.5248791
1.5250808
1.5250244
1.524942
1.5247901
1.5247445
1.5247214
1.525028
1.5249252
1.5249946
1.5249718
1.5247476
1.5247855
1.5247598
1.524737
1.5242746
1.524339
1.524344
1.5244267
1.5243448
1.5243662
1.5244475
1.5244722
1.5243884
1.5244037
1.5245037
1.5247053
1.5246073
1.5250053
1.5250578
1.5248534
1.524477
1.5245311
1.5249394
1.5250847
1.5251433
1.5248684
1.5249896
1.5251774
1.5245191
1.5246526
1.524508
1.524825
1.5243175
1.5242786
1.5243175
1.5248432
1.5245327
1.5245537
1.5246199
1.5245824
1.524637
1.5245018
1.5244198
1.5243025
1.5245327
1.5245729
1.5246485
1.5245711
1.5246074
1.5245373
1.5246311
1.5246605
1.5247
1.5246826
1.5247463
1.5247271
1.524719
1.5246912
1.5247633
1.5247994
1.5248048
1.5247726
1.5246852
1.5246011
1.5246355
1.5247244
1.5247615
1.524674
1.5247212
1.5248083
1.5248718
1.5248314
1.5248314
1.5248644
1.5246986
1.5247368
1.5246421
1.5245917
1.5246317
1.5246381
1.5244876
1.5244867
1.5243647
1.5243752
1.5249312
1.5245077
1.524586
1.5243286
1.5241365
1.524114
1.524437
1.5245412
1.5246726
1.5244971
1.5246451
1.5241754
1.5241281
1.5241294
1.524165
1.5243089
1.5245591
1.5246702
1.5244371
1.5241263
1.5241254
1.5241607
1.5241549
1.5242819
1.5242931
1.5241129
1.5241139
1.5241435
1.5241401
1.5242245
1.5242406
1.5241513
1.5241209
1.5241216
1.5241481
1.5242574
1.5242681
1.5241496
1.5241568
1.5241431
1.5240869
1.5241356
1.52413
1.524145
1.5241754
1.5241167
1.5241231
1.5241711
1.5244687
1.52448
1.5241294
1.5241249
1.5241774
1.524176
1.524693
1.5246233
1.5247332
1.5245102
1.5240818
1.5240953
1.524176
1.5241939
1.5247914
1.5247415
1.5245948
1.5244634
1.5241118
1.5241016
1.5241789
1.5241705
1.524459
1.5244653
1.5239163
1.5239151
1.5239191
1.5239196
1.5239628
1.5239599
1.5240034
1.5240436
1.5240532
1.5256875
1.5259163
1.5241227
1.5240961
1.5240767
1.5241157
1.5241245
1.5240651
1.5240536
1.5241123
1.5253442
1.5241085
1.5240476
1.5241157
1.524042
1.52527
1.5252057
1.5250941
1.5251191
1.5241113
1.5251434
1.5241118
1.5240363
1.5240329
1.524963
1.524581
1.5250549
1.5250713
1.5250699
1.5240267
1.5240268
1.5241131
1.524131
1.5241081
1.5240227
1.5240283
1.5240934
1.5245446
1.5245961
1.5240709
1.5240513
1.5241821
1.5241724
1.5245102
1.5248156
1.5248028
1.5247983
1.5240417
1.5240295
1.5240924
1.5240928
1.5244872
1.5245101
1.5219729
1.5220468
1.5217441
1.5218279
1.5226892
1.5228977
1.5226377
1.5224112
1.5222791
1.5223109
1.5219812
1.5220441
1.5226955
1.5228678
1.5230795
1.5231769