/*--------------------------------*- C++ -*----------------------------------*\
  =========                 |
  \\      /  F ield         | OpenFOAM: The Open Source CFD Toolbox
   \\    /   O peration     | Website:  https://openfoam.org
    \\  /    A nd           | Version:  7
     \\/     M anipulation  |
\*---------------------------------------------------------------------------*/
FoamFile
{
    version     2.0;
    format      ascii;
    class       volScalarField;
    location    "1000";
    object      nut;
}
// * * * * * * * * * * * * * * * * * * * * * * * * * * * * * * * * * * * * * //

dimensions      [0 2 -1 0 0 0 0];

internalField   nonuniform List<scalar> 
33733
(
1.1364643e-47
4.7352117e-48
1.1883092e-47
2.3815853e-48
4.2098826e-48
9.2487138e-48
2.4078134e-48
3.4896702e-48
2.4013225e-48
2.399553e-48
2.9014557e-48
2.2936368e-48
4.1557695e-48
2.9551369e-48
3.2742633e-48
3.5800403e-48
1.1326435e-47
2.6125476e-48
2.4843216e-48
4.8016274e-48
9.100955e-48
1.7364611e-48
2.1090701e-48
2.0663444e-48
1.9342218e-48
5.9982743e-48
1.5597642e-48
3.8033725e-48
5.7088637e-48
2.1413822e-48
1.3586958e-48
1.6058626e-48
2.2359987e-48
2.1792845e-48
2.094169e-48
2.4864763e-48
2.3053649e-48
1.5232116e-48
1.6151315e-48
1.6706235e-48
1.5362709e-48
1.4510534e-48
6.0268102e-48
4.8895232e-48
2.9133874e-48
2.1510664e-48
3.1757819e-48
2.2076105e-48
2.9422194e-48
3.2230223e-48
3.4246598e-48
3.0958743e-48
1.9317034e-48
2.0365477e-48
2.7749747e-48
2.6943979e-48
6.3988019e-48
6.5545429e-48
1.4897348e-48
1.3422808e-48
2.0596128e-48
1.3448261e-48
2.0657841e-48
1.9680009e-48
1.5644781e-48
3.3229277e-48
3.0638611e-48
2.2790469e-48
1.492235e-48
2.646765e-48
2.8683716e-48
7.554494e-48
6.9511672e-48
6.1837951e-48
1.9226101e-48
1.6269075e-48
1.4432675e-48
2.148395e-48
1.9607892e-48
1.9190574e-48
1.2280739e-48
2.0858613e-48
4.0601734e-48
1.0664473e-48
1.3382394e-48
6.8876623e-49
1.2178912e-48
1.5392328e-48
1.1289167e-48
9.5012513e-49
6.0795885e-49
1.1051681e-48
8.6405668e-49
8.380232e-49
8.0185709e-49
1.02211e-48
1.9994488e-48
3.6318263e-48
3.9032892e-48
3.5339018e-48
2.1056195e-48
2.4883396e-48
2.4026209e-48
2.0420924e-48
2.2367845e-48
2.0936135e-48
2.1150627e-48
1.8544467e-48
2.0477383e-48
1.8669811e-48
1.8757643e-48
1.6499952e-48
1.1649359e-48
1.8526735e-48
1.8925387e-48
1.1497768e-48
1.2488757e-48
1.8159656e-48
1.5344202e-48
1.558074e-48
1.2385514e-48
5.8852162e-48
5.7663733e-48
1.7841569e-48
1.3818171e-48
1.7732249e-48
1.3752965e-48
6.2639213e-49
8.2428547e-49
8.1169102e-49
1.398597e-48
6.6822446e-49
7.0408749e-49
3.9008247e-48
3.7485851e-48
6.1875783e-48
2.5776944e-48
2.4949426e-48
2.4731091e-48
1.8387475e-48
3.5522823e-48
5.4010631e-48
6.8328321e-48
2.1002382e-48
2.0943385e-48
2.0815193e-48
2.1647478e-48
1.8599415e-48
2.2336724e-48
2.2289838e-48
1.7382959e-48
1.8303175e-48
2.5778363e-48
1.5294783e-48
4.4412512e-48
9.8117659e-49
6.5981198e-49
2.0584671e-48
1.4666894e-48
5.8356108e-49
1.1606864e-48
1.0216292e-48
4.7424054e-49
5.1728146e-49
1.0241459e-48
7.4087645e-49
7.8890619e-49
9.8071993e-49
9.6744782e-49
1.6351783e-48
9.5412164e-49
1.7882804e-48
1.0427557e-48
5.820499e-49
8.8883527e-49
7.0578097e-49
9.3475174e-49
1.4270464e-48
1.1955703e-48
9.4878952e-49
1.7414459e-48
1.2560789e-48
1.4697949e-48
1.5765684e-48
4.8695283e-48
5.1709068e-48
4.7258536e-48
5.9243508e-48
3.0156507e-48
3.9454072e-48
2.4429757e-48
3.4194019e-48
1.8280305e-48
1.9095894e-48
2.3088156e-48
2.6623954e-48
2.8766515e-48
1.8789038e-48
1.9922612e-48
2.5358068e-48
4.9953439e-48
4.8255716e-48
5.9123407e-48
4.6344484e-48
5.1434259e-48
5.9814388e-48
4.6077132e-48
3.8225002e-48
3.9011365e-48
4.3658407e-48
3.0256851e-48
2.7833797e-48
3.4693833e-48
1.168732e-48
1.1206574e-48
1.5792452e-48
1.1037867e-48
1.0043664e-48
9.606481e-49
1.0841726e-48
1.0167915e-48
1.0669571e-48
9.4727749e-49
1.0312892e-48
1.1200224e-48
1.2365663e-48
8.7740378e-49
1.1281823e-48
1.0810234e-48
4.4119128e-48
1.1516823e-48
6.5228319e-49
4.4684552e-49
3.3598899e-49
5.2243141e-49
4.3736369e-49
3.3239243e-49
3.4922667e-49
5.1720542e-49
3.904337e-49
3.3002171e-49
4.2020728e-49
4.362098e-49
2.7749751e-49
6.7903397e-49
9.0181821e-49
9.9888397e-49
5.4706003e-49
8.7926333e-49
9.3203898e-49
6.3752416e-49
8.0783045e-49
1.8614166e-48
1.8578236e-48
1.8522123e-48
1.8735023e-48
2.8978093e-48
3.0660213e-48
3.6391165e-48
3.7240942e-48
2.7612341e-48
2.9880425e-48
3.0722538e-48
3.4204403e-48
3.0291346e-48
2.9151481e-48
3.0730679e-48
2.0343243e-48
3.1811318e-48
3.024001e-48
2.3083713e-48
2.0711883e-48
2.0828949e-48
1.1392148e-48
1.8163415e-48
1.898289e-48
1.5108827e-48
1.1603475e-48
1.5007684e-48
1.1943683e-48
1.8795263e-48
1.5636813e-48
1.1903933e-48
5.2966412e-48
5.6818544e-48
2.0970585e-48
2.0379734e-48
2.1650635e-48
2.267059e-48
2.5954989e-48
2.3744578e-48
2.7587322e-48
2.6701182e-48
1.9296672e-48
2.1415015e-48
2.1155857e-48
2.0951294e-48
1.9717327e-48
2.1881662e-48
2.4547739e-48
2.3590357e-48
2.2270605e-48
2.1141391e-48
2.3517077e-48
2.3011497e-48
2.3067002e-48
2.2372228e-48
2.330054e-48
2.3200261e-48
2.3329488e-48
2.1735246e-48
1.8950925e-48
2.2165357e-48
2.1624097e-48
1.8827004e-48
1.9776375e-48
2.0786207e-48
2.1790025e-48
9.9299499e-49
7.0446685e-49
6.8024815e-49
1.0722637e-48
1.1431567e-48
1.1162961e-48
8.8934997e-49
8.8417676e-49
9.4589898e-49
1.0153646e-48
6.0572709e-49
6.0604487e-49
9.5549766e-49
5.6276141e-49
8.1421253e-49
5.5592266e-49
8.4288276e-49
8.446937e-49
8.9707999e-49
8.7868451e-49
1.0874632e-48
1.0724362e-48
8.958983e-49
8.4753736e-49
9.5055346e-49
9.3762676e-49
5.989024e-49
5.9527966e-49
8.0502781e-49
8.1793324e-49
9.7004577e-49
6.3936717e-49
6.4639143e-49
7.8059431e-49
1.3777907e-48
1.1100618e-48
1.2690774e-48
1.1780737e-48
1.1637493e-48
1.0022777e-48
1.1964397e-48
1.1415811e-48
9.4961019e-49
9.8229528e-49
8.601819e-49
1.0135609e-48
1.4313388e-48
1.2373386e-48
1.2093687e-48
3.8398932e-49
3.0736128e-49
4.1245507e-49
3.2622012e-49
2.667248e-49
4.7909035e-49
6.8085458e-49
8.3868208e-49
9.7758618e-49
9.2860061e-49
1.5229385e-47
5.7405255e-48
2.5901459e-48
9.4057398e-48
3.7938502e-48
3.8270222e-48
5.2533724e-48
4.6803018e-48
3.9480302e-48
2.9155597e-48
2.8371316e-48
1.107837e-48
3.3074608e-48
9.9034393e-49
3.1083691e-48
1.48166e-48
1.5209147e-48
1.1156096e-47
3.7714196e-48
1.0862502e-47
2.9891284e-48
3.3665618e-48
3.8287633e-48
1.9372326e-48
2.1656287e-48
2.3070747e-48
2.0932298e-48
2.4328934e-48
2.1449481e-48
3.3599538e-48
2.611251e-48
1.9366282e-48
1.1570355e-48
1.9266712e-48
5.2530358e-49
6.6976235e-49
2.4781648e-48
5.5424251e-49
6.0059213e-49
1.5995561e-48
4.6277647e-48
1.0190753e-48
8.0106701e-49
6.1852635e-49
5.4323368e-49
5.1462903e-49
5.0440989e-49
5.0730934e-49
4.0285852e-49
2.688958e-49
2.6531073e-49
3.9547195e-49
5.4529395e-49
6.5723706e-49
4.6792936e-49
3.2059561e-49
7.8089496e-49
6.0094081e-49
5.3486042e-49
5.8979823e-49
4.8482341e-49
6.731672e-49
4.2035889e-49
3.256856e-49
1.0105596e-48
7.5586805e-49
2.3800902e-48
1.5625877e-48
1.7387945e-48
1.2210154e-48
5.3185001e-49
5.7904962e-49
1.4871748e-48
1.3516986e-48
2.7235301e-48
2.2791903e-48
1.4128e-48
1.5594816e-48
5.6472975e-49
3.8923019e-49
3.2411836e-49
1.8207527e-49
3.7343392e-49
3.0653179e-49
2.5575624e-49
3.2605101e-49
3.4855904e-49
4.3605747e-49
4.4742683e-49
4.134195e-49
6.3664008e-49
8.3706219e-49
6.7529531e-49
5.7576872e-49
8.8840365e-49
9.8083711e-49
1.0760445e-48
1.3366264e-48
1.3028251e-48
1.1807961e-48
8.9204561e-49
9.5792033e-49
1.1930645e-48
1.4812293e-48
1.3672796e-48
1.4417299e-48
1.4304815e-48
1.4743189e-48
1.7395858e-48
1.6319184e-48
3.7729262e-48
3.6706112e-48
4.3154989e-48
5.7150186e-48
2.5739653e-48
2.756394e-48
4.7968335e-48
5.1752312e-48
3.2461829e-48
4.4188419e-48
2.1587344e-48
2.8257662e-48
3.9449328e-48
4.3247002e-48
2.6152393e-48
2.8535391e-48
1.6151739e-48
3.7191769e-48
1.6879872e-48
3.2816502e-48
4.5126116e-48
2.6172655e-48
1.9393439e-48
3.2374791e-48
1.1249622e-48
1.085011e-48
2.8811987e-48
2.6070471e-48
3.5165883e-48
3.6624694e-48
2.09984e-48
2.203856e-48
9.7967102e-49
1.8315155e-48
1.6890066e-48
1.2901101e-48
1.1760314e-48
2.2174716e-48
5.9710664e-49
2.2330536e-49
1.2338324e-48
2.2161427e-48
2.1961957e-48
1.0229797e-48
2.1631197e-48
2.0346816e-48
9.1480614e-49
1.140807e-48
1.686237e-48
1.313167e-48
1.6324989e-48
1.5922444e-48
1.4129335e-48
1.6276361e-48
1.7567585e-48
2.2509236e-48
1.163772e-48
1.0583119e-48
9.7362191e-49
1.0551125e-48
8.6909469e-49
9.5999193e-49
1.0161639e-48
1.1236615e-48
1.1646693e-48
1.0422142e-48
9.8632691e-49
1.0686697e-48
1.6976371e-48
1.978007e-48
1.5994655e-48
1.4478741e-48
1.4987061e-48
1.6688011e-48
1.3038973e-48
1.2104967e-48
9.2344646e-49
1.0926197e-48
1.0363756e-48
8.752247e-49
8.9606503e-49
8.2275568e-49
8.8147085e-49
9.6092225e-49
8.6864097e-49
7.8013452e-49
7.9692012e-49
8.8847706e-49
7.6108948e-49
7.073548e-49
1.8413097e-48
2.2656498e-48
4.7084212e-49
6.5912204e-49
1.3453611e-48
7.6685187e-49
7.1811241e-49
7.088096e-49
8.6231098e-49
8.2771768e-49
2.8019786e-48
2.9024e-48
3.2149166e-48
3.2660227e-48
7.5635244e-49
7.8405039e-49
1.4082598e-48
3.144944e-48
2.802747e-48
2.4391934e-48
2.5821282e-48
4.6071219e-48
6.9047466e-49
6.2670069e-49
4.1067624e-49
2.5130407e-49
3.5935331e-49
2.2383046e-49
2.6772114e-49
3.6563172e-49
3.6161151e-49
7.0931319e-49
9.0448042e-49
1.3053453e-48
1.4232248e-48
1.87848e-48
2.0111042e-48
3.102608e-48
2.281391e-48
2.0320496e-48
1.7243387e-48
2.0284129e-48
1.8931605e-48
1.9750538e-48
1.8630317e-48
2.0465319e-48
1.6888541e-48
1.8485471e-48
2.1102637e-48
2.1504128e-48
2.2372924e-48
2.1886443e-48
2.3928637e-48
2.2694827e-48
2.3979591e-48
2.5980762e-48
2.9184816e-48
2.7425763e-48
2.3036711e-48
2.4166277e-48
2.7710753e-48
2.7641178e-48
3.1476169e-48
2.9681429e-48
3.288064e-48
3.1171872e-48
3.2497852e-48
3.130081e-48
3.6749866e-48
3.4443398e-48
1.8668063e-48
2.0889954e-48
2.2296195e-48
2.4210939e-48
2.2360635e-48
2.4074504e-48
2.5864501e-48
2.7546236e-48
2.5230036e-48
2.4207376e-48
2.9431449e-48
2.7765376e-48
3.1156851e-48
2.910683e-48
3.3671629e-48
3.1395556e-48
2.1952436e-48
2.3530725e-48
2.1547047e-48
2.6695115e-48
2.599644e-48
2.020695e-48
2.1681107e-48
1.8593428e-48
2.4831941e-48
2.4598215e-48
2.7721567e-48
2.6277874e-48
2.9905717e-48
2.1434608e-48
2.2043586e-48
2.426476e-48
2.5626416e-48
2.657863e-48
2.8725005e-48
2.8442779e-48
2.2269719e-48
2.3147805e-48
2.1723019e-48
2.6195611e-48
2.6675432e-48
2.9149873e-48
2.8417109e-48
2.6876684e-48
2.0009449e-48
1.987679e-48
2.3009951e-48
1.9706406e-48
2.0920111e-48
1.7911135e-48
1.9756255e-48
9.1384052e-49
9.3751878e-49
1.0951623e-48
8.6936549e-49
6.0470335e-49
1.0633258e-48
9.6784573e-49
6.0843496e-49
6.4689849e-49
6.0690095e-49
9.9825416e-49
9.3865563e-49
6.0275374e-49
6.0500333e-49
1.0002352e-48
1.026762e-48
8.6935419e-49
8.61453e-49
9.1920547e-49
8.8740545e-49
6.4738271e-49
6.4833185e-49
9.9763921e-49
1.1190586e-48
9.0462345e-49
9.2528383e-49
8.9896842e-49
8.301723e-49
9.461693e-49
5.9620822e-49
1.0590593e-48
5.9734609e-49
9.1629147e-49
7.6921838e-49
6.1758612e-49
5.9017062e-49
9.3499972e-49
1.0550356e-48
9.8944593e-49
8.97381e-49
1.1088217e-48
1.0524325e-48
1.5157167e-48
1.7069547e-48
1.6665688e-48
1.4686835e-48
1.6018151e-48
1.8222301e-48
1.6129598e-48
1.4384754e-48
1.4644118e-48
1.5133143e-48
1.4522504e-48
1.4307243e-48
1.602211e-48
1.6586411e-48
1.5748489e-48
1.4629358e-48
1.2816445e-48
1.461869e-48
1.4176346e-48
1.1944829e-48
1.4242679e-48
1.6630488e-48
1.4542011e-48
1.2501294e-48
1.5467361e-48
1.6483828e-48
1.3787525e-48
1.3263931e-48
1.3820149e-48
1.5128794e-48
1.3477425e-48
1.3019315e-48
1.0969703e-48
1.1263643e-48
1.1754044e-48
1.1622239e-48
1.1597236e-48
1.1936394e-48
1.2374071e-48
1.1981123e-48
1.3518268e-48
1.1891026e-48
1.1745455e-48
1.2963204e-48
1.2937511e-48
1.3171709e-48
1.1648614e-48
1.1506089e-48
1.3335834e-48
1.2865021e-48
1.3203834e-48
1.3435675e-48
1.109679e-48
1.1517668e-48
1.2211325e-48
1.1607086e-48
1.2125695e-48
1.365413e-48
1.2484583e-48
1.0962525e-48
1.292247e-48
1.4790068e-48
1.5065323e-48
1.3395683e-48
1.5674518e-48
1.857144e-48
1.8421115e-48
1.6549718e-48
8.0514797e-48
7.9574683e-48
1.787102e-48
1.7533537e-48
1.5121154e-48
1.5599308e-48
4.3968494e-48
1.6462112e-48
1.5815525e-48
1.5338681e-48
1.5777792e-48
1.639712e-48
1.5868125e-48
1.7364597e-48
1.6286662e-48
1.6262518e-48
1.8451179e-48
1.7142869e-48
1.5292189e-48
1.7886844e-48
1.7870253e-48
1.5415846e-48
1.6048462e-48
1.7187834e-48
1.5897494e-48
1.5313686e-48
1.5941999e-48
1.7087482e-48
1.6715234e-48
1.5972478e-48
1.5621436e-48
1.3897913e-48
1.1974095e-48
1.1982152e-48
1.2634888e-48
1.1377631e-48
1.2050854e-48
1.2636216e-48
1.1938399e-48
1.3768736e-48
1.4189287e-48
1.1475508e-48
1.2288471e-48
1.2993212e-48
1.2095535e-48
1.3344252e-48
1.4552171e-48
1.2948056e-48
1.1674406e-48
1.3486396e-48
1.2080673e-48
1.2480291e-48
1.1715897e-48
1.3077313e-48
1.2103613e-48
1.3204213e-48
1.1909793e-48
1.2465945e-48
1.367011e-48
1.3416677e-48
1.2125647e-48
1.3054537e-48
1.4420811e-48
5.2847904e-49
4.1927483e-49
2.8934839e-49
2.8506396e-49
4.965173e-49
2.8537242e-49
2.8809533e-49
4.3078771e-49
4.7027172e-49
5.8449012e-49
8.1574014e-49
9.5201989e-49
9.1189297e-49
9.6024269e-49
8.8547764e-49
8.8193476e-49
1.0111802e-48
9.7366678e-49
9.2494353e-49
9.4875718e-49
8.9781118e-49
8.9036139e-49
8.6864393e-49
8.1844815e-49
8.8572112e-49
8.5916906e-49
6.0498079e-49
5.1575288e-49
7.8731872e-49
5.3588409e-49
4.8587448e-49
7.1501835e-49
5.7277767e-49
6.4093907e-49
4.579381e-49
4.5868521e-49
4.6564077e-49
4.4910059e-49
4.6998896e-49
4.652042e-49
4.7993669e-49
4.651489e-49
6.8604871e-49
5.365133e-49
4.7969472e-49
5.2618217e-49
4.2374035e-49
4.0783385e-49
4.0289202e-49
3.9730241e-49
6.4928847e-49
5.1037963e-49
4.3043828e-49
3.9697018e-49
4.4903494e-49
4.16024e-49
4.3429784e-49
4.3465889e-49
9.5233908e-49
1.0860091e-48
9.2493956e-49
8.5702648e-49
9.8262202e-49
9.1296502e-49
7.9027755e-49
8.6179536e-49
1.0367956e-48
1.1966458e-48
1.0351679e-48
9.4542562e-49
1.0090493e-48
9.0941215e-49
8.1535972e-49
8.9730015e-49
8.1487269e-49
9.8617123e-49
9.2939756e-49
9.5248456e-49
8.8039245e-49
9.0791709e-49
9.7868988e-49
9.2798891e-49
8.803822e-49
8.1588819e-49
8.4192332e-49
8.491303e-49
8.5891458e-49
8.7168736e-49
8.358187e-49
8.3200271e-49
3.1379886e-49
5.9686812e-49
6.5241526e-49
4.9444668e-49
4.5633062e-49
3.1146327e-49
6.8930889e-49
6.5307025e-49
4.8335951e-49
4.5655855e-49
4.2358716e-49
4.4047011e-49
4.4222227e-49
4.2756347e-49
4.5016787e-49
4.5052646e-49
4.4467343e-49
4.4756256e-49
4.1159712e-49
4.4628326e-49
3.3366085e-49
3.9728894e-49
4.7176262e-49
4.0896784e-49
3.8953795e-49
3.2166198e-49
6.0829577e-49
5.9128533e-49
4.4147902e-49
4.5129722e-49
4.2283216e-49
4.0493928e-49
4.2433644e-49
4.5799949e-49
5.7746451e-49
5.0816016e-49
4.8749271e-49
6.082989e-49
4.1653429e-49
4.8168104e-49
1.1587407e-48
1.1050598e-48
1.2117142e-48
1.4075998e-48
8.8539086e-49
8.7304116e-49
9.9938553e-49
1.0138981e-48
1.4304378e-48
1.2536148e-48
1.1489923e-48
1.3267703e-48
9.6120854e-49
9.4817114e-49
9.015214e-49
9.1485008e-49
1.1177579e-48
2.3857783e-49
3.7790181e-49
1.1143892e-47
5.8474035e-48
2.7248718e-48
7.7902455e-48
2.777255e-48
3.6389752e-48
2.437246e-48
3.6312271e-48
3.3974761e-48
3.6109055e-48
4.8318223e-48
4.489589e-48
4.275122e-48
5.4145743e-48
4.2485446e-48
4.8716528e-48
1.3365048e-47
1.2171918e-47
1.3373613e-48
9.870154e-49
1.6463999e-48
1.5872648e-48
4.0795173e-48
1.6446412e-48
1.3493665e-48
1.1840505e-48
1.2124655e-48
3.2055218e-48
2.4992909e-48
2.0403549e-48
2.3105488e-48
2.6829529e-48
1.4888415e-48
1.4594917e-48
1.5575051e-48
1.6001908e-48
5.2325521e-48
4.956431e-48
3.0999486e-48
3.7802574e-48
2.5241121e-48
2.4152387e-48
2.70113e-48
1.0711387e-47
4.3431764e-48
4.1931756e-48
3.9298685e-48
2.2494134e-48
2.5290267e-48
2.1615331e-48
2.066539e-48
2.3644905e-48
2.6606123e-48
2.6227128e-48
2.4620362e-48
2.8841005e-48
2.7293872e-48
2.4392368e-48
2.4803873e-48
9.3938138e-49
8.9907137e-49
1.1515956e-48
8.13386e-49
1.1012616e-48
9.7759696e-49
1.1061259e-48
9.5229705e-49
3.8503925e-48
2.8111635e-48
1.7800586e-48
6.6214554e-49
9.4725097e-49
5.4578852e-49
5.3631235e-49
7.775549e-49
7.9668907e-49
1.7770182e-48
5.6871095e-49
5.7591382e-49
6.0569697e-49
7.1826766e-49
7.6006089e-49
7.1909195e-49
9.3673283e-49
2.5457393e-48
5.9769156e-49
6.8477824e-49
1.4567424e-48
1.3824268e-48
2.4448693e-48
4.8779695e-48
8.1830318e-49
8.0462361e-49
6.75367e-49
6.2970217e-49
4.9852449e-49
4.5993615e-49
3.2130739e-49
6.1147e-49
2.3138303e-49
2.1789965e-49
2.7088393e-49
2.5668038e-49
1.3828796e-49
1.293127e-49
1.6183922e-49
1.5746615e-49
5.3824758e-49
8.5759587e-49
1.1371087e-48
8.8841033e-49
3.5524103e-49
8.2547935e-49
4.3041494e-49
1.0029835e-48
2.5303114e-49
2.1481399e-49
4.3336407e-49
3.9203498e-49
6.4946051e-49
6.2949869e-49
4.0829314e-49
1.0498211e-48
4.9958933e-49
4.8743764e-49
9.9043198e-49
6.4440945e-49
3.9750557e-49
7.8531944e-49
4.5997913e-49
8.9098029e-49
1.4060618e-48
1.1080139e-48
7.1064263e-49
6.6727128e-49
7.108462e-49
5.4458463e-49
6.8154212e-49
1.0941456e-48
6.737379e-49
6.8139844e-49
1.218223e-48
3.5179564e-49
5.3773846e-49
6.213855e-49
3.3176128e-49
4.0859729e-49
7.8764395e-49
7.1114366e-49
5.4121234e-49
6.3019884e-49
6.9910204e-49
7.5532115e-49
6.9546407e-49
1.0542679e-48
8.804995e-49
1.1891459e-48
1.4849197e-48
1.1848375e-48
6.6494102e-49
1.1625004e-48
7.4174382e-49
8.957823e-49
1.4345041e-48
1.2489433e-48
7.9990031e-49
9.0108169e-49
1.3936923e-48
1.1197224e-48
7.3278359e-49
5.9359399e-49
6.1497251e-49
9.5143107e-49
5.2879562e-49
9.8514588e-49
6.8296324e-49
5.8805662e-49
9.0947626e-49
1.7028861e-49
1.2174572e-49
1.6590489e-49
1.8234114e-49
1.3175597e-49
3.0911873e-49
4.1359419e-49
2.8346917e-49
2.3144956e-49
4.1838482e-49
3.2384799e-49
3.1442763e-49
3.7175209e-49
1.0807057e-49
1.3372428e-49
9.1072138e-50
3.1817207e-49
2.8801105e-49
1.4186647e-49
2.4321479e-49
1.7573941e-49
9.8202457e-50
1.1309336e-49
1.822917e-49
2.3158167e-49
2.7207046e-49
1.6762187e-49
2.9998467e-49
2.7183259e-49
5.9235306e-49
3.9517885e-49
3.5876722e-49
5.2394854e-49
6.2434487e-49
7.6776159e-49
7.3208702e-49
5.4366134e-49
5.0427079e-49
5.220578e-49
4.4744762e-49
4.7791807e-49
3.7727929e-49
3.9153718e-49
3.2502476e-49
2.9461097e-49
1.5121729e-48
2.2107478e-48
1.6020819e-48
2.4433816e-48
1.3861772e-48
1.2887813e-48
1.4218029e-48
2.0758833e-48
1.993841e-48
1.3815852e-48
1.2692684e-48
1.4549775e-48
1.7985354e-48
1.5062316e-48
1.1605699e-48
1.7580768e-48
1.7792481e-48
7.3356374e-49
9.1646655e-49
1.4613979e-48
1.5916692e-48
9.8254439e-49
1.734113e-48
1.4793295e-48
1.6800489e-48
1.4614681e-48
1.4249802e-48
1.5577996e-48
1.1097734e-48
1.405312e-48
1.7056273e-48
1.2518917e-48
1.0093302e-48
9.0321694e-49
1.0669364e-48
1.1744294e-48
1.4754838e-48
1.0456569e-48
1.2360636e-48
1.0014045e-48
1.3716582e-48
1.1310647e-48
1.2183311e-48
1.549217e-48
1.3036148e-48
1.1029968e-48
1.2835051e-48
1.2466604e-48
1.570595e-48
1.2160674e-48
1.0002666e-48
1.4347148e-48
1.6672511e-48
1.2785876e-48
1.135309e-48
7.3194223e-49
7.3130578e-49
8.8424308e-49
8.718531e-49
8.4345636e-49
9.6117625e-49
9.4143974e-49
8.2442757e-49
7.2230107e-49
6.214904e-49
1.641212e-48
1.9153977e-48
2.1042638e-48
7.663975e-49
1.8071224e-48
6.7260678e-49
7.9427409e-49
9.808123e-49
9.3085838e-49
7.659197e-49
9.1562646e-49
1.0166345e-48
9.3877565e-49
8.5125287e-49
6.3304645e-49
7.7047202e-49
1.7237059e-48
1.4953326e-48
7.4814904e-49
8.8098115e-49
1.0988959e-48
1.6359029e-48
1.2660188e-48
1.21745e-48
1.2997736e-48
1.1766383e-48
1.5142275e-48
1.673508e-48
1.5365617e-48
1.3151189e-48
1.3915142e-48
1.3740498e-48
1.1314076e-48
9.8586662e-49
1.3890894e-48
1.7206708e-48
1.0806252e-48
1.3201627e-48
1.0430336e-48
1.3365457e-48
1.0664544e-48
9.1675834e-49
1.5204873e-48
8.0305153e-49
6.7514595e-49
1.2863443e-48
1.5787252e-48
7.3711825e-49
6.1570055e-49
8.5141195e-49
9.3916143e-49
1.0614651e-48
7.4718785e-49
8.4746396e-49
9.0518135e-49
7.8695804e-49
2.7613854e-49
8.1904676e-49
8.9861291e-49
9.9433164e-49
1.2418115e-48
8.2740952e-49
1.5775193e-48
1.1390611e-48
8.7023432e-49
1.315966e-48
1.4798646e-48
1.2304996e-48
1.0861027e-48
1.1781739e-48
1.071101e-48
1.3049748e-48
1.005912e-48
8.1369441e-49
9.6558941e-49
1.4061227e-48
1.2106397e-48
9.0002527e-49
6.4366668e-49
7.8508492e-49
1.1287442e-48
1.0351373e-48
5.6176242e-49
7.0041354e-49
7.2225201e-49
1.0557367e-48
1.0396816e-48
1.1062668e-48
1.5218412e-48
5.9502859e-49
2.8538015e-49
1.5014836e-48
7.5440138e-49
1.2129847e-48
1.17328e-48
1.1500585e-48
1.2717898e-48
1.0348425e-48
1.1671045e-48
2.4032648e-48
1.9138508e-48
1.6437019e-48
1.5238661e-48
1.9616135e-48
1.6114476e-48
1.6709402e-48
1.4149935e-48
1.1137019e-48
1.2550102e-48
1.0424559e-48
1.1969286e-48
1.1480069e-48
1.3753997e-48
1.1776259e-48
1.0650882e-48
9.8186558e-49
1.0660568e-48
1.6209956e-48
1.6575788e-48
1.504443e-48
1.4051235e-48
1.3976778e-48
1.5282897e-48
1.327076e-48
1.2035734e-48
9.6723688e-49
1.0750282e-48
1.02975e-48
9.3889135e-49
1.079571e-48
1.0103416e-48
1.1209092e-48
1.2058712e-48
8.5783636e-49
1.2047543e-48
1.1216453e-48
1.3125155e-48
1.3868672e-48
1.077887e-48
1.0568931e-48
9.1395536e-49
5.8674776e-49
7.6635906e-49
5.5202392e-49
1.0112912e-48
1.1913047e-48
1.0627295e-48
1.3909051e-48
1.1631974e-48
3.8802518e-48
6.2552051e-49
1.2232581e-48
4.0859852e-48
6.7214031e-49
8.1406718e-49
4.030845e-48
7.0821829e-49
8.1679484e-49
4.0539384e-48
6.7727722e-49
7.9125987e-49
9.1086323e-49
9.3349474e-49
9.7355415e-49
9.8474942e-49
1.1201677e-48
1.0571427e-48
3.8134817e-49
3.7421397e-48
7.7887901e-49
6.902284e-49
3.7869793e-48
8.2264943e-49
6.6302473e-49
3.1986323e-48
1.2798717e-48
6.3707391e-49
3.5658332e-48
7.8657694e-49
6.3363934e-49
3.9060805e-49
4.2900131e-49
4.6181886e-49
4.3155346e-49
3.2804044e-49
3.3824552e-49
3.57028e-49
1.9387159e-49
2.7333343e-49
1.0639897e-48
5.4581107e-49
7.9386326e-49
1.8091787e-48
6.2871901e-49
7.4583199e-49
3.5928269e-49
9.2008907e-49
2.9136127e-48
1.5702486e-49
5.3805987e-49
2.7788739e-48
2.7759699e-48
5.5704247e-49
1.0519227e-48
2.9260373e-48
5.5937812e-49
6.6956901e-49
3.1387524e-48
5.5386372e-49
7.0517846e-49
3.2142859e-48
3.4322636e-48
2.2988047e-48
2.4292162e-48
2.8554744e-48
2.7549199e-48
1.7994484e-48
1.7757021e-48
1.6736323e-48
1.7932817e-48
1.6397652e-48
1.5015951e-48
1.3638281e-48
1.5544353e-48
1.3473794e-48
1.4797853e-48
1.6768876e-48
1.5013431e-48
2.0094372e-48
1.8419157e-48
1.6702981e-48
1.7947812e-48
1.0994086e-48
1.2972416e-48
1.4106609e-48
1.2086062e-48
1.2316714e-48
1.2039632e-48
1.3050188e-48
1.3422326e-48
1.203704e-48
1.2835642e-48
1.2936649e-48
1.3507775e-48
1.341743e-48
1.4167628e-48
1.564994e-48
1.4023697e-48
1.2447473e-48
1.3178532e-48
1.3371815e-48
1.4050608e-48
1.3056399e-48
1.2213548e-48
1.2463846e-48
1.3771878e-48
1.2920646e-48
1.3950954e-48
1.4822164e-48
1.3326078e-48
1.4238066e-48
1.470681e-48
1.7138749e-48
1.5293239e-48
1.7890348e-48
2.0122431e-48
1.9681828e-48
1.7583356e-48
1.7151874e-48
1.7451329e-48
1.7616307e-48
1.7277807e-48
1.8498863e-48
1.7212952e-48
1.6932764e-48
1.8576087e-48
1.7904652e-48
1.9570353e-48
2.1597845e-48
1.9716168e-48
1.0018686e-47
9.7481219e-48
6.6512374e-48
6.5591963e-48
8.0734907e-48
8.0387975e-48
1.1876432e-47
1.1453901e-47
5.2658834e-48
5.0793699e-48
9.5533989e-48
9.6108654e-48
6.5695416e-48
6.6627329e-48
7.2017408e-48
7.0939783e-48
1.0754113e-47
1.0453714e-47
5.1363609e-48
5.0358623e-48
5.8381981e-48
5.9768555e-48
4.8732871e-48
4.6912633e-48
4.8023651e-48
3.6257678e-48
3.7797902e-48
4.9429898e-48
4.9504171e-48
5.853494e-48
4.7662701e-48
5.9559646e-48
4.9415356e-48
3.7754831e-48
5.0858459e-48
3.8760816e-48
5.8798697e-48
6.0026268e-48
4.768556e-48
4.9279436e-48
4.9952239e-48
3.6891675e-48
3.8112863e-48
4.8848704e-48
6.2186888e-48
6.3256223e-48
5.3270535e-48
5.2057947e-48
5.3981847e-48
5.4538899e-48
4.1391396e-48
4.2275648e-48
7.8958512e-48
7.9582658e-48
5.1831306e-48
5.3204134e-48
6.7520673e-48
6.6263979e-48
1.0138821e-47
9.9128338e-48
4.2588838e-48
4.7436969e-48
1.0061401e-47
9.7105789e-48
6.8142579e-48
6.7043081e-48
7.4759951e-48
7.3277855e-48
1.1101071e-47
1.0796123e-47
4.8256121e-48
5.1425702e-48
3.9115277e-48
4.6168196e-48
3.6800781e-48
4.8089137e-48
3.7444874e-48
3.9974947e-48
2.851998e-48
3.0330776e-48
4.5006927e-48
5.3126326e-48
4.315716e-48
5.4275864e-48
3.3936218e-48
4.465426e-48
4.629411e-48
3.5102257e-48
4.7588637e-48
5.6499242e-48
4.593841e-48
5.7441028e-48
3.5025908e-48
4.6459975e-48
4.7180865e-48
3.5772749e-48
4.9736175e-48
5.8675673e-48
4.8307597e-48
5.9167603e-48
3.8269629e-48
5.0187583e-48
5.1113021e-48
3.8949455e-48
9.083218e-48
9.0786949e-48
6.3158339e-48
6.3509767e-48
6.9820266e-48
6.9124639e-48
1.0093397e-47
9.9752618e-48
1.7498253e-48
1.9013094e-48
2.063589e-48
1.802916e-48
5.0258324e-48
5.0470808e-48
8.5856061e-48
8.7534188e-48
5.8926802e-48
6.037125e-48
6.769588e-48
6.6322897e-48
1.0036739e-47
9.8197567e-48
1.4978253e-48
1.7316377e-48
1.7619356e-48
1.5614039e-48
4.9893469e-48
4.7238832e-48
4.4886049e-48
5.3700654e-48
4.2609955e-48
5.539845e-48
4.3281708e-48
3.2565525e-48
3.4328955e-48
4.5093224e-48
4.6736595e-48
5.5770735e-48
4.491558e-48
5.6532087e-48
1.564954e-48
1.6650842e-48
1.6689643e-48
1.5851431e-48
1.7511181e-48
1.7711258e-48
1.6846947e-48
1.7726972e-48
1.0038799e-47
9.7939192e-48
6.9261032e-48
6.9121667e-48
7.7016502e-48
7.6306747e-48
1.1227795e-47
1.0932445e-47
1.9487206e-48
2.1308823e-48
2.2612824e-48
1.9635444e-48
5.6907602e-48
5.6196838e-48
9.2106743e-48
9.2062172e-48
6.3478448e-48
6.4093706e-48
6.921295e-48
6.8138979e-48
1.0073849e-47
9.859881e-48
1.6629703e-48
1.9157652e-48
1.8987072e-48
1.6753067e-48
5.079848e-48
4.9832232e-48
1.8001267e-48
1.8676257e-48
1.8462569e-48
1.7815984e-48
1.9397913e-48
2.0171112e-48
1.8809961e-48
1.9367735e-48
1.4075975e-48
1.8150248e-48
1.6727179e-48
1.4164995e-48
1.5545908e-48
1.3023051e-48
1.3039344e-48
1.3737131e-48
1.3615818e-48
1.3738049e-48
1.4599138e-48
1.4460858e-48
1.538675e-48
1.6877406e-48
1.6673815e-48
1.5092353e-48
1.1804213e-48
1.3794554e-48
1.3860026e-48
1.2090863e-48
1.2942881e-48
1.2500348e-48
1.2527388e-48
1.2939333e-48
1.1997657e-48
1.2949001e-48
1.2815195e-48
1.3362159e-48
1.3246175e-48
1.3845471e-48
1.4835902e-48
1.3455355e-48
9.0318668e-49
1.1044922e-48
1.0931348e-48
9.4347933e-49
1.1697266e-48
9.518678e-49
9.8639242e-49
1.0123204e-48
8.4487623e-49
9.3855955e-49
9.4742047e-49
1.0015741e-48
9.3467092e-49
8.8398171e-49
9.7727765e-49
9.3342378e-49
2.6365822e-49
3.9149815e-49
4.0309258e-49
2.6870613e-49
6.4682145e-49
6.2537645e-49
5.8600393e-49
5.9450278e-49
7.925701e-49
4.9689074e-49
5.9022467e-49
6.506484e-49
4.6729966e-49
4.3719376e-49
4.640674e-49
4.7219085e-49
5.1087066e-49
4.7457906e-49
5.2737206e-49
5.0621351e-49
4.5913783e-49
4.6042367e-49
4.5000158e-49
4.3312956e-49
2.6845158e-49
6.0261917e-49
6.6954281e-49
7.7532801e-49
6.429843e-49
2.6530759e-49
5.8925058e-49
5.2263905e-49
6.1299405e-49
6.0479651e-49
4.530543e-49
4.2819306e-49
4.8661692e-49
4.8469691e-49
3.9651401e-49
4.0136864e-49
5.2821015e-49
5.5633653e-49
9.6279362e-49
1.0579274e-48
1.0248386e-48
9.3410656e-49
8.8118716e-49
7.854505e-49
8.0457792e-49
9.2089367e-49
8.8265847e-49
8.7905738e-49
9.4100811e-49
9.6519496e-49
9.916796e-49
1.0160548e-48
1.0594964e-48
1.0064943e-48
2.7020717e-49
2.7256903e-49
3.9629739e-49
3.9910169e-49
2.723348e-49
2.6415324e-49
4.1918678e-49
4.4628902e-49
5.8110358e-49
5.4331611e-49
9.137876e-49
1.1048826e-48
9.3028609e-49
8.9375138e-49
1.1384033e-48
9.2291678e-49
1.0329587e-48
9.537203e-49
8.4081407e-49
9.1764682e-49
1.1300436e-48
8.7870035e-49
9.1844232e-49
9.1552365e-49
1.0272803e-48
8.7738279e-49
5.4966017e-49
6.1995761e-49
7.7841255e-49
5.6456802e-49
4.3015268e-49
4.3186442e-49
4.6126752e-49
4.3933877e-49
6.7598546e-49
5.6861956e-49
5.1478204e-49
6.3996954e-49
4.499083e-49
4.626516e-49
4.3657126e-49
4.2141589e-49
7.3247016e-49
6.7709169e-49
6.4575604e-49
6.712146e-49
4.615999e-49
5.6817685e-49
5.8010632e-49
4.7598724e-49
4.5745974e-49
4.8271558e-49
5.1736364e-49
4.6724044e-49
4.5233719e-49
4.6283273e-49
4.4307431e-49
4.5094728e-49
9.397872e-49
1.0295149e-48
1.0738274e-48
9.4578305e-49
9.7148079e-49
1.0842314e-48
1.0778923e-48
9.8015093e-49
1.1679816e-48
1.1486847e-48
1.0660142e-48
1.0455517e-48
1.0693909e-48
1.0511562e-48
9.7734167e-49
9.7414675e-49
1.0946512e-48
1.0441766e-48
5.1395803e-48
5.0681933e-48
4.9030433e-48
5.0614739e-48
5.3785618e-48
5.2196167e-48
4.8369384e-48
5.0243546e-48
4.1888883e-48
4.30063e-48
4.3078487e-48
4.3359577e-48
4.3981353e-48
4.4105243e-48
4.4693474e-48
4.3826131e-48
3.7902535e-48
3.8838215e-48
7.9552015e-49
8.8930122e-49
1.0405953e-48
9.9547449e-49
4.682249e-48
4.7303338e-48
3.9609492e-48
4.1159431e-48
9.4977699e-49
1.1009503e-48
1.2924289e-48
1.2159828e-48
1.1487531e-48
1.1594066e-48
1.3469106e-48
1.4393303e-48
4.188016e-48
4.2425809e-48
3.4703308e-48
3.6225957e-48
3.7105957e-48
3.4815308e-48
2.6791102e-48
2.7480603e-48
2.8558375e-48
2.8622854e-48
2.752439e-48
2.8286872e-48
2.9520653e-48
2.9428666e-48
3.6414663e-48
3.6048412e-48
3.6293535e-48
3.5314208e-48
3.4400398e-48
3.5672955e-48
3.5148066e-48
3.5086769e-48
2.8782965e-48
2.837958e-48
2.3477621e-48
2.5814048e-48
2.6818838e-48
2.5038909e-48
3.3730915e-48
3.3557843e-48
2.8886965e-48
2.9855581e-48
3.1291691e-48
3.273007e-48
5.0514668e-48
5.4172266e-48
5.3077804e-48
5.5149046e-48
6.7715225e-48
6.5122873e-48
5.0961378e-48
4.8247959e-48
4.8457699e-48
5.240859e-48
1.2409966e-48
1.4524283e-48
1.2644994e-48
1.0547714e-48
1.352117e-48
1.0750441e-48
4.3989806e-48
4.2098157e-48
4.177317e-48
4.4893304e-48
4.6105419e-48
4.4137466e-48
4.8045724e-48
4.753798e-48
5.4961877e-48
5.3446347e-48
5.0433827e-48
5.23165e-48
5.2423088e-48
5.2630374e-48
5.2919887e-48
5.4520817e-48
4.7218013e-48
4.4434434e-48
4.4939579e-48
4.6997652e-48
4.538876e-48
4.5191044e-48
4.5738171e-48
4.5306658e-48
3.1891264e-48
2.9376581e-48
2.9461431e-48
3.1102126e-48
2.9612836e-48
3.0628794e-48
3.2274906e-48
3.0467406e-48
3.7316096e-48
3.8694689e-48
3.4043943e-48
3.7491054e-48
3.627754e-48
3.6286614e-48
3.9465833e-48
3.8459074e-48
3.0712439e-48
2.9759189e-48
3.2623085e-48
2.9253839e-48
2.9528116e-48
2.9633525e-48
3.179621e-48
2.9207346e-48
3.6976984e-48
3.7025247e-48
3.7589278e-48
3.6959738e-48
3.6761044e-48
3.6562128e-48
3.8778462e-48
3.8188652e-48
5.1756596e-49
3.1759692e-49
3.7705878e-49
2.5191385e-49
2.6984896e-49
2.5327351e-49
2.7560412e-49
2.6213791e-49
2.1095553e-49
2.6402389e-49