/*--------------------------------*- C++ -*----------------------------------*\
  =========                 |
  \\      /  F ield         | OpenFOAM: The Open Source CFD Toolbox
   \\    /   O peration     | Website:  https://openfoam.org
    \\  /    A nd           | Version:  7
     \\/     M anipulation  |
\*---------------------------------------------------------------------------*/
FoamFile
{
    version     2.0;
    format      ascii;
    class       volScalarField;
    location    "1000";
    object      omega;
}
// * * * * * * * * * * * * * * * * * * * * * * * * * * * * * * * * * * * * * //

dimensions      [0 0 -1 0 0 0 0];

internalField   nonuniform List<scalar> 
33733
(
366.13242
513.86507
369.64367
530.8276
425.5597
345.99652
501.51883
421.1287
523.37438
495.81683
476.89025
561.01397
559.34304
674.57369
681.52987
454.97784
347.12219
514.54345
577.7241
1076.2633
1792.2707
902.64087
631.98236
860.33201
635.85626
384.48436
444.41992
394.25684
378.14307
704.18454
771.99064
597.49124
601.92385
572.97971
565.33007
503.52459
514.27494
866.64977
819.5579
684.36947
442.94117
738.59693
384.49312
489.04779
535.52097
530.14707
617.41365
634.45924
613.43164
611.70457
1110.0599
505.83978
504.21972
419.82868
569.92637
544.25143
381.15023
388.02236
447.11926
741.91243
679.05177
945.69358
771.40527
837.47919
932.173
1450.5014
1224.4172
1385.7167
1361.6266
2860.2558
2974.077
5378.291
5262.131
4927.4183
1950.2034
1058.7614
1971.7068
1060.8485
1729.6894
1657.4206
981.97354
993.29423
359.76962
454.45659
507.47515
622.83526
541.31458
493.89698
982.04611
818.94348
1116.267
832.74556
1296.7003
1449.7385
902.82464
921.15789
570.72798
1339.09
1323.9852
1321.4488
577.2649
504.91741
509.44574
1059.792
1068.2535
941.91187
958.97596
1089.1176
1072.2401
965.71449
949.48004
443.74179
823.44556
708.7679
705.32505
814.60771
810.37997
708.7989
726.87127
450.89603
829.4873
385.23331
389.74501
1722.096
1764.2966
1531.4066
1454.5787
1030.7513
931.71889
606.11061
503.79121
1175.2444
1292.0172
434.50313
460.36769
501.85537
582.18438
572.23184
831.05449
963.30238
666.41906
657.47643
1558.0625
2678.5301
2877.4733
536.87133
514.89791
475.04508
450.66735
451.36875
500.94785
720.06533
619.48641
429.18859
360.92934
460.9987
612.0423
510.91153
525.55427
656.24555
911.72198
855.51186
1190.453
1359.4448
782.62822
769.70154
997.77954
870.85681
1699.2816
2252.9428
2218.7018
2772.249
1065.1321
1300.1056
1283.4897
1675.3415
1008.4774
1058.9693
1784.511
1587.9559
1221.5566
1177.4993
2152.549
2371.8847
4570.2608
4248.951
4383.6521
4384.9551
3435.7958
3768.1635
2905.4882
3466.7785
3884.9371
3923.8229
8216.4079
8307.7369
9341.6637
4259.197
4325.2653
9120.5139
13845.271
12948.433
12832.461
11790.684
12315.216
13956.696
12740.574
11215.563
10591.781
10766.276
9617.9055
9658.0156
10039.095
4146.8273
4036.0533
2183.6959
2153.5646
2311.702
4262.8373
4409.6012
2315.5582
3825.2654
3779.7138
2006.584
2029.0552
3418.7034
1811.0021
1875.5867
3438.8947
360.46344
463.03855
566.30651
669.32248
875.55818
645.72076
750.84286
1313.3986
1520.1739
1120.0734
1070.044
1825.4877
2033.9257
1304.5718
1243.7798
2365.0237
2521.5513
1487.2638
1414.5286
3037.6768
2904.4967
1617.9303
1687.5692
1104.6047
979.91067
975.29343
1112.505
2971.2914
2922.5208
3276.7414
3347.9152
2832.8935
2934.4928
3136.6321
3283.1984
2924.2608
2883.4419
3211.3191
1098.4677
3051.746
2921.7802
1132.71
998.63528
969.36219
833.40359
721.73293
713.57737
445.22179
831.29352
447.76079
825.83277
715.84777
730.54472
850.03592
387.9633
386.06792
2316.1646
2357.9138
2160.3794
2198.9716
2281.5235
2271.2487
2132.2347
2192.0666
1704.2506
1737.7607
1894.1371
1859.809
1798.7606
1707.4292
1850.9063
1925.432
2423.214
2429.4697
5518.1455
2278.1593
2256.5637
2378.5943
2400.6161
2239.6221
2218.9512
1815.6378
1774.1938
1970.242
1942.8088
1772.6249
1753.5841
1910.4927
1928.9403
513.18638
625.04205
625.52877
513.31857
1343.3367
1393.6942
1575.979
1529.4425
1038.1594
1010.0295
1204.176
1166.892
1010.6038
1155.6851
1019.8226
1165.6969
1510.7409
1342.16
1526.5644
1354.7125
1298.7895
1329.3785
1472.5449
1506.8169
989.03296
1003.8718
1152.9356
1131.859
627.49669
1047.0403
1016.8488
1156.4301
1205.1963
637.99836
520.74871
518.61244
1393.1808
1322.7512
1561.3408
1486.8067
446.72697
3290.7618
3223.8859
3469.3576
3412.2521
3071.6737
3097.0089
2832.3596
2792.4293
1762.8633
1579.5703
836.61835
1342.5739
1188.8866
661.23223
2000.8137
2127.625
2400.764
2545.5674
362.80669
377.87101
407.11284
370.88483
436.07631
470.12334
507.92226
669.10756
685.26975
621.57956
597.58851
1655.7883
971.69476
1450.6498
1231.1849
1981.4655
2230.2344
1956.5574
3853.1974
1618.7213
3659.9136
4011.0393
4156.1456
7679.0899
7374.35
8702.3381
8832.159
548.18011
518.21093
474.84483
448.86141
472.28825
564.40959
787.51714
1081.7109
1242.0273
647.84229
918.90009
833.43908
432.70321
357.77248
465.26372
564.55868
586.38288
635.14873
708.50673
774.57252
640.09853
714.4327
944.04487
1053.207
730.5219
1516.8404
1593.3034
1956.6688
1683.7894
1800.9463
1720.2545
2269.0779
2577.0266
1483.2113
1092.6067
2491.426
3145.6304
6028.4333
4750.0925
7596.7069
5286.408
6707.1334
4761.847
3805.8537
4498.7643
8189.5332
7350.9102
8855.3413
9196.9292
6532.7129
6154.4745
1337.8522
1200.1784
1623.407
2159.0605
1946.7923
1618.035
2801.2454
3697.7595
2391.1293
3203.0577
2131.4573
2586.1017
4232.5346
5483.0971
3853.9672
3218.4149
2292.1549
4784.2922
2442.673
4059.1242
2088.8294
3419.702
1970.4585
3073.7078
2758.5256
2902.6567
5526.2265
5796.5005
3278.3269
3452.4234
7355.5476
6592.6387
11785.279
12718.669
12152.59
13099.665
9597.7971
10219.742
12142.033
12747.878
10168.346
10986.394
8934.4084
9268.4307
10349.452
11087.543
8670.5323
8914.2059
7400.0629
11416.834
8397.9349
11484.254
11017.077
8245.654
8277.2573
10397.441
5680.8517
6239.6757
9853.4012
9994.1378
10120.665
10338.217
7537.9382
7435.3991
20695.695
12008.824
12285.82
22358.677
11632.98
12244.334
20504.828
11798.031
21896.216
12813.085
12705.846
20574.726
13621.224
13248.339
20357.975
21792.724
26049.958
31421.26
26861.838
24136.291
22334.21
23882.425
24501.684
26731.887
20833.52
19323.571
17371.609
18194.204
16769.986
18154.799
17687.524
19685.671
18490.626
17365.699
16389.656
17084.672
22596.784
24472.047
22459.801
20968.098
21161.303
22966.289
20882.476
19486.243
16515.836
17727.702
16709.844
15850.634
15490.227
14801.013
15010.773
15711.722
16074.382
15346.953
15492.621
16101.234
15773.251
15228.426
15144.004
14892.553
13918.192
15192.465
16450.793
15967.905
15218.689
15008.101
16058.99
15868.785
11239.071
11841.388
13060.961
12459.001
24363.309
21843.748
16060.18
9969.646
10764.71
8470.6749
9237.7309
358.99875
578.66552
609.52729
706.0559
845.91453
1095.3896
995.08504
814.67327
1858.6565
2686.1888
3451.4376
4305.6115
5162.7944
5907.7161
7858.1451
6819.1954
3047.7892
2330.9453
2298.4581
2434.0783
2504.6389
1992.5263
1853.0718
1835.8583
2007.9189
1848.9201
1821.6609
1987.2103
2021.2554
2484.0799
2310.2405
2343.2406
2528.966
6957.808
7303.608
6118.8895
5829.763
7050.0335
7055.5464
5892.4467
5927.785
8262.981
8422.3795
8274.2696
8472.1645
8164.6663
8347.3918
8536.8705
8741.8384
6391.8071
6731.1683
5370.2322
5600.6851
6894.2334
7188.2273
5783.5884
6027.9915
7503.0253
7643.0723
7913.3765
8083.0937
8090.9028
8246.56
8414.434
8597.292
6920.4768
7078.8235
2495.0336
5943.9392
5817.897
6770.3106
6898.6098
2465.7737
5762.0677
5683.6587
7947.0353
8088.6315
8098.9912
2307.7609
2317.9934
7181.3333
7372.2572
2608.7137
6192.9688
6037.127
6922.6202
6972.3369
2497.8792
5843.584
5823.5348
2334.0626
2430.5647
2015.7331
1850.5192
1924.8171
2098.6984
1987.5293
1828.1865
1822.3932
1994.7765
1607.2336
1440.307
1392.2972
1583.4393
635.73615
1039.6185
1077.8916
1238.273
1206.6655
1180.5873
1032.4512
1045.1084
1206.5631
635.12754
517.54861
517.04481
1564.4156
1383.2148
1405.9123
1595.3176
635.77014
641.88127
518.01365
520.76693
1577.1762
1399.3677
1385.4043
1571.3618
1048.2096
1205.1569
1036.7279
1193.931
1063.7769
1091.2493
1256.6108
1219.5399
1418.2885
1467.0331
1660.3014
1600.0968
455.89791
449.57559
4715.5405
4643.8885
4667.4563
4741.2086
4900.8394
4808.2603
4634.6271
4710.8422
4132.956
4119.3532
4201.6417
4214.2838
4118.6079
4242.5286
4340.5998
4192.3926
4259.4609
4262.8507
4230.4343
4184.8831
4645.8075
4577.4647
4251.5572
4301.682
4148.0332
4072.2372
3830.9838
3875.7618
4005.001
3939.6617
3933.7585
3928.687
3093.1305
3098.6879
3240.1973
3233.3895
3095.1299
3158.0831
3310.4051
3234.4099
3703.7017
3825.8216
3719.9469
3617.9973
3622.6183
3620.6786
3724.5518
3726.2039
3399.37
3207.4109
3280.7222
3420.2208
2992.3872
3056.5802
3202.5073
3092.8274
3682.2451
3566.8463
3423.2463
3492.7785
3639.8405
3592.3999
3746.6139
3746.8
4914.9886
4838.3659
5037.4984
5132.5339
18331.872
18363.948
4856.669
4820.6
4893.9365
4938.1512
17530.872
4317.6566
4308.5218
4377.7918
4399.7775
4380.9853
4296.138
4454.0614
4544.4576
4962.5473
4865.6673
4820.7699
4904.4241
4948.6403
4767.9379
4854.378
5033.8606
4391.9381
4230.1906
4312.2613
4466.3729
4281.4293
4292.768
4387.8715
4354.9004
3432.6567
3301.0133
3268.5426
3410.463
3309.1767
3238.7133
3470.8691
3379.2837
3804.4876
3818.2896
3909.6954
3909.1065
3776.6538
3883.385
4013.3567
3889.33
3284.8333
3192.2886
3438.2434
3330.4633
3200.0213
3200.9704
3353.8917
3349.1038
3754.2731
3869.7217
3864.2925
3760.3268
3724.2242
3824.057
3961.3778
3855.9839
584.08313
717.84676
919.39236
934.14089
708.83532
923.68643
917.57397
708.82168
711.78139
584.31269
2205.1048
2167.4812
2374.8431
2406.2508
2236.3969
2294.2379
2475.2054
2425.5176
2756.2677
2802.4387
2955.4427
2916.3802
2880.5657
2714.2252
2753.6071
2936.5582
1317.5542
1524.3005
1292.7645
1480.1098
1419.3206
1220.4052
1403.7634
1229.8744
1799.8593
1742.3994
2007.6589
1952.5334
1880.7014
1663.4087
1693.7897
1912.819
1225.0432
1417.0613
1412.1986
1239.5155
1874.7734
1673.5081
1666.4755
1859.9769
1235.7791
1422.2481
1451.2796
1269.3938
1715.6839
1676.3527
1879.9001
1912.118
2835.291
2673.8775
2665.6641
2838.5182
2334.456
2151.3771
2139.305
2330.6186
2833.4362
2675.0548
2742.1618
2916.0204
2346.2948
2157.3701
2204.7001
2399.0824
2066.7011
2058.0379
2262.7798
2254.0135
2088.2261
2131.1231
2321.0744
2274.2714
2580.6967
2589.2084
2756.7082
2746.3069
2595.3218
2644.4402
2813.8812
2754.6547
902.99053
1172.2447
1171.7071
1343.0678
1344.148
911.73645
1207.4243
1215.2327
1407.0079
1378.6776
1617.6367
1652.6247
1857.6632
1817.0289
1785.9396
1579.2281
1586.3434
1792.5472
710.72653
706.13272
938.55592
1418.1828
1332.4032
1561.9095
1667.7788
930.59812
1225.8214
1219.8241
1384.1215
1398.8446
1646.422
1618.0118
1816.2147
1837.2908
2067.0737
1850.3865
1993.8429
2222.8074
733.16622
732.02723
2533.1197
2349.8274
2501.4185
2658.0828
2097.8986
2073.5661
2257.2064
2258.7653
2987.3873
2798.4708
2925.2062
3108.2772
2555.4705
2562.8939
2731.9244
2689.7115
441.4013
842.27293
1030.425
361.32115
374.05655
405.47303
370.36155
549.98764
436.07282
515.16199
473.20232
635.83117
604.27954
513.23225
696.75323
701.0839
681.556
676.48215
509.17731
1990.699
1996.7195
3300.4975
3858.9525
2054.6913
1812.1833
986.07214
2177.5837
1736.5284
2613.813
2871.9244
1271.1151
2698.4375
2551.29
2964.3751
3140.0787
4553.1174
4924.1267
6174.8887
5678.1525
4756.5421
4811.613
8680.9792
3913.3674
8857.4619
8798.9789
8577.7188
1656.1083
3936.8055
4180.4694
4202.985
8440.1954
8349.8449
8555.4764
8757.0514
9331.4638
9431.4617
9848.772
10058.723
9666.8975
9639.4828
9504.8858
9455.3693
19670.883
19938.898
18044.454
17593.526
22003.823
22045.235
24198.01
23739.598
475.84541
453.13877
483.00336
731.16316
583.19154
639.66268
1198.9627
1428.9981
1488.2944
786.32331
1224.1117
1790.3036
1596.0991
2034.3677
2263.7273
882.21808
869.28237
647.61375
995.87884
1013.7733
429.8823
484.26628
452.47073
356.0307
578.96721
601.69003
573.51266
621.3154
680.51332
764.20557
787.98909
897.12518
891.88874
1083.7729
1260.1738
915.925
1490.7545
2139.7335
1380.0919
1930.3758
2671.2532
2040.5181
3320.0122
4043.854
2439.1943
1757.9736
3421.0618
1196.8675
1401.5945
1904.8682
4494.0532
5572.7879
4719.8697
5078.703
7022.1366
18184.458
10041.261
12366.835
19449.356
14114.876
7129.1281
15900.9
8231.1811
16011.52
19707.545
19695.647
15699.896
8183.9536
13493.789
13246.528
8166.8204
17649.732
14639.381
14576.52
18158.701
7593.5603
13056.456
12447.776
7523.7324
7809.6841
5392.5371
5476.861
8744.0935
5929.4041
6694.1635
11787.914
10110.946
17073.626
18304.653
21000.709
21160.888
20258.177
13573.329
19469.934
15506.286
16887.897
20806.108
19865.191
16338.358
17401.143
21043.493
20269.076
16752.457
15735.696
15225.026
9523.916
10011.75
8658.7551
14268.088
13907.146
8727.2737
2970.9969
3968.1577
3207.6512
3414.6728
4962.6774
7572.85
4267.8356
3758.2111
5972.4499
9578.4762
5524.0003
6187.5147
11958.739
7248.083
4864.5856
5491.1947
5623.4648
7010.0466
7648.0872
7088.5416
9844.6462
4520.1382
3955.2493
2942.7287
3008.4997
5256.5192
5826.1369
4145.0315
3776.4476
14222.849
11916.971
8923.3559
10598.822
12686.084
16370.646
16479.503
13234.915
11863.231
10073.767
5750.593
6657.517
5125.9576
8533.9311
7304.0089
4678.9688
8474.249
7704.4176
10822.734
7645.2009
7504.2665
6356.1392
5310.1115
8025.8137
7744.6929
11208.047
11437.145
11895.434
8095.8837
7958.4617
12007.369
9905.1041
10535.402
18522.143
15993.733
13137.649
8671.8273
13809.049
9026.3283
22396.937
24551.858
24022.608
23698.166
26864.599
29588.354
26038.241
26405.803
22274.85
20432.674
17904.398
19007.566
19704.541
23229.829
18689.227
21679.588
15669.186
23504.229
18370.292
22021.613
23807.092
20384.303
20626.901
22877.767
22462.003
24245.783
20751.179
19368.422
23278.136
25235.387
21716.365
20342.872
15574.378
15578.648
16536.329
16394.293
16030.609
16875.275
16494.547
15838.776
15923.234
15105.122
14241.499
14409.437
13872.273
16042.54
13780.512
15265.591
16410.926
17555.515
16806.447
15959.511
17068.767
18198.804
16987.871
16241.705
15422.67
16403.147
13445.999
13281.373
15768.622
16861.511
13379.089
12803.453
11530.357
10878.543
19898.403
20228.693
23015.015
22805.403
23159.882
22010.689
22185.39
12914.63
22532.107
14947.152
22938.359
25070.895
21230.356
24129.934
17094.674
20087.304
18701.359
16467.59
11512.859
16139.182
15564.787
11665.585
12780.754
17667.114
16344.969
12884.747
17264.782
19225.955
16436.447
17749.77
8746.3824
9103.2873
12662.989
13711.858
10113.619
9982.1021
17918.88
18314.899
23002.457
19597.794
19231.151
22168.421
23478.654
21150.243
21012.657
21966.419
19488.014
21016.931
17496.538
16537.986
17649.958
21387.277
20201.897
16828.211
15444.933
16503.619
11018.079
10950.451
10799.734
16710.833
15785.937
10554.407
51261.244
48008.599
19054.832
18648.141
37314.966
21009.766
24381.772
54467.2
57027.305
59818.871
59110.099
51400.856
61675.8
65039.447
59593.52
54414.215
53399.528
56973.681
52486.017
54454.989
51825.357
46266.411
47605.126
44567.997
47955.416
45559.378
49962.262
46418.101
45002.198
42657.392
43651.45
52789.265
54243.425
54133.949
51083.378
49707.537
53781.533
52399.826
47775.466
42606.721
44015.886
42068.534
41140.855
44518.448
43231.794
44538.132
46509.773
16110.135
47408.445
46802.907
51684.506
51902.746
55862.704
56046.446
16698.459
16742.201
43056.43
28455.511
52366.075
48940.138
45603.863
51293.069
46611.451
13505.75
19273.031
19781.035
14059.768
19534.362
20285.792
15214.977
20379.029
20900.63
14629.642
19887.535
20531.068
21212.724
20669.673
24783.557
24886.643
83222.978
75432.224
18188.361
12113.362
18145.464
17394.31
12923.423
16299.935
18167.356
10727.28
19345.754
17570.268
11414.812
18292.103
17295.782
768.6042
748.0035
776.58178
807.38207
1006.9419
1430.2818
2604.5618
3804.6462
4296.437
4297.6492
7474.9704
8315.328
5432.1395
9782.6672
10342.644
12029.077
11470.587
6537.152
10883.663
13322.693
7671.2255
8392.2778
15570.004
16630.249
10078.777
16762.507
15940.353
9162.5537
15968.171
16550.214
8301.1985
8520.7871
7082.3282
7310.1087
6157.5921
5956.9437
4579.627
4453.9902
4528.7341
4685.127
4370.5614
4244.5017
4272.5252
4421.3446
4760.019
4692.7154
4870.5355
4954.2063
5187.3701
5005.8434
5104.7364
5311.7756
3865.5795
3819.2636
3889.0573
3964.3102
3443.7039
3353.1339
3370.935
3490.2676
3410.8194
3374.0421
3514.1235
3577.9432
4026.6584
3924.1102
4001.6867
4132.3056
3417.6017
3336.3603
3481.2458
3590.894
3348.6497
3407.0926
3547.7844
3505.6948
4078.0349
3972.0995
3923.1865
4037.7264
3995.8441
3885.7014
4012.8428
4153.093
5210.8049
5101.0425
5047.8867
5184.5142
4605.1902
4518.6989
4468.5225
4562.8278
4604.6453
4420.5547
4514.5276
4721.0456
5127.4321
4993.1839
5226.1551
5382.4256
19829.238
19865.068
18162.643
18307.391
18780.447
18888.109
20455.548
20439.967
19502.121
18934.663
20018.851
20036.622
18320.31
18426.646
18421.251
18578.494
20134.759
20154.433
19209.648
19145.359
18679.721
18766.364
17208.245
17083.167
17535.629
16227.245
16337.365
17632.278
17377.134
18797.87
17166.096
18929.379
17628.359
16285.401
17810.457
16510.866
18525.562
18665.399
16940.98
17132.317
17568.566
16094.563
16292.066
17392.563
19167.097
19224.932
17688.2
17555.224
18032.661
18112.852
16700.92
16828.684
18199.071
18295.949
16536.597
16768.439
17873.167
18040.084
19672.713
19688.77
17454.827
18790.974
19773.989
19808.143
18068.213
18208.649
18597.262
18757.653
20336.116
20351.324
18892.116
19424.447
15605.747
16846.636
15319.85
17084.028
15707.177
15992.331
14469.025
14771.805
16765.645
18222.529
16538.421
18363.235
15595.513
16968.177
17168.811
15843.267
17001.699
18434.562
16826.772
18561.869
15952.998
17278.413
17431.681
16124.197
17549.675
18975.995
17336.291
19104.833
16450.558
17806.128
17987.836
16681.863
19777.787
19783.044
18103.115
18189.24
18131.226
18299.839
19760.929
19793.892
5132.7677
5035.0184
5115.5357
5238.3834
18841.336
18877.065
19433.474
19471.195
17696.238
17832.355
18200.524
18360.902
19975.362
20001.154
5017.4551
4945.1994
4990.4923
5083.9337
19085.764
18608.645
16588.429
18024.442
16411.796
18157.275
16823.068
15505.464
15679.157
16985.914
17111.023
18560.991
16891.581
18705.324
4478.7152
4424.2694
4431.0371
4509.198
4496.1502
4448.9943
4542.8509
4616.2442
20548.991
20588.941
18774.096
18911.193
19068.551
19078.392
20827.25
20752.278
5341.063
5253.0801
5374.3814
5477.0553
19848.787
19662.161
19614.038
19644.158
17948.735
18062.027
18107.402
18309.765
19809.355
19866.618
5143.7825
5058.2576
5067.5137
5166.5928
18924.068
18745.591
4574.5899
4495.815
4491.7231
4581.7196
4762.3568
4663.2066
4749.9683
4863.5178
4058.3329
3954.9117
3945.2381
4056.6456
3536.1071
3375.1575
3379.5464
3532.5652
3614.438
3526.0608
3673.9774
3761.8913
4213.5491
4098.8702
4191.2002
4309.0347
4003.4784
3925.7499
3902.9548
4001.6733
3513.4858
3387.5782
3342.1287
3486.0567
3346.1133
3328.8087
3480.136
3507.2065
4012.896
3896.4787
3922.1354
4056.7422
3008.1901
2893.4246
2860.0931
3011.8254
2547.6211
2385.8599
2343.8035
2521.4259
2293.7379
2279.2153
2487.3239
2498.2219
3004.7264
2837.0956
2848.7134
3033.4274
965.55403
739.02827
733.45458
950.65895
1298.1897
1291.5272
1489.5561
1495.2443
1368.4485
1415.9023
1614.6192
1575.9975
1849.5025
1896.4216
2094.4426
2054.2508
1980.1814
1757.6846
1764.7895
1995.8415
1983.0801
1767.8619
1736.8573
1955.4805
940.43223
1482.8113
1279.7605
1272.1797
1472.6449
950.76523
1303.0469
1315.6416
1494.3745
1509.7593
1973.1036
1763.1754
1780.9246
2004.2761
725.33746
730.48554
595.88919
593.72336
3023.1725
2854.3652
2793.0703
2975.0269
2490.715
2297.303
2245.5107
2444.0929
2302.0842
2265.8977
2455.183
2503.377
2969.3426
2794.9959
2851.1414
3040.5523
948.90718
945.51394
733.1462
731.08495
966.37853
982.90773
746.25368
754.78222
593.34602
617.23028
3013.3409
2862.7221
2805.5604
2971.2929
2501.1844
2311.8842
2257.4811
2455.2299
2239.3142
2434.7537
2446.6594
2253.9282
2955.6158
2779.7214
2802.6184
2975.6585
1512.937
1298.3372
1291.971
1497.9457
1802.3151
2013.3345
1970.4585
1763.1486
1273.1681
1463.2573
1285.4807
1470.4085
1745.2901
1963.785
1736.6653
1947.2525
1313.2002
1313.161
1507.111
1508.1516
1635.3389
1378.6799
1585.0851
1408.2606
1882.2381
2103.7209
2159.8636
1951.0335
1784.0781
2001.6237
1779.9472
1994.5255
2287.3815
2478.855
2493.628
2300.3639
2417.6075
2611.7027
2681.1786
2490.9157
3057.8388
2973.0941
3143.3985
3224.6517
2840.4774
2823.9785
3003.5145
3011.24
453.05035
444.39219
16442.259
15374.797
15359.37
16433.534
16615.927
15529.654
15323.338
16354.641
13306.757
13337.083
14349.252
14325.029
13340.482
13466.029
14487.707
14328.999
14236.231
13464.848
20667.976
21289.846
26444.882
25240.436
15896.881
14847.116
13821.162
14765.579
22366.414
24103.444
29978.363
27820.01
25587.369
25956.138
31881.663
31479.069
13840.78
12837.395
12032.275
12913.126
12036.855
12739.04
9398.7733
9423.3328
10387.505
10359.509
9475.0291
9549.999
10504.53
10430.172
11466.88
12459.429
12363.159
11384.256
11320.675
11351.695
12341.703
12308.66
9400.4245
10036.001
8725.6356
9048.1282
9966.1147
9523.6778
11860.385
10894.505
10332.113
11171.279
11354.447
10676.997
16855.773
15782.424
16322.477
17451.726
24671.568
24964.695
15769.818
15180.148
16137.643
16823.285
27555.772
33626.735
31113.783
25308.111
31798.575
25849.795
13761.525
13367.781
14266.195
14759.684
14756.901
13736.516
14167.241
15238.925
16994.534
15891.18
15799.423
16897.979
16126.357
15815.238
16906.098
17242.092
13998.189
13745.375
14770.457
15055.267
13702.683
13803.329
14837.42
14746.46
10721.675
9838.4547
9889.739
10848.166
10015.034
9827.5775
11035.12
10796.68
11804.917
11595.086
12484.026
12781.02
11757.452
12742.492
13110.903
12060.059
9920.1864
9802.3061
10919.574
10777.493
9632.2638
9837.6511
10636.12
10816.721
11790.362
12791.33
12672.77
11642.305
11746.633
12742.424
12957.179
11922.732
572.78184
809.96155
777.61678
910.77772
1121.8575
911.51724
1125.071
1177.9097
966.91594
1186.6808
955.52467
921.49639
1135.8132
1135.1096
915.94656
1119.3297
908.86198
1118.5478
906.50016
772.13243
791.83866
572.58698
5971.1416
5909.4724
6922.3792
6991.3102
6021.252
6194.007
7146.1457
7009.4587
7972.0173
8056.0574
8956.6938
8936.3147
8865.5011
7888.8225
7993.722
9006.2748
1846.0925
3276.5449
1759.8434
3097.8149
2969.4276
1651.5887
2963.2149
1653.5824
4254.6867
4057.1855
5238.6871
5044.7151
4918.6172
3923.6667
3962.7887
4969.4517
1650.5108
2980.5799
2898.2029
1642.1365
4909.2653
3926.0988
3815.7158
4759.4158
1658.0563
2958.8235
3054.3963
1692.51
4019.5676
3900.6144
4888.3447
4998.7115
8867.9596
7873.4043
7658.5702
8644.0664
6887.1402
5887.0798
5709.0561
6685.8526
8836.2331
7844.3595
7946.1524
8934.7124
6860.8426
5866.2281
5974.6386
6965.9296
5580.22
5579.7397
6561.6754
6544.3614
5643.8992
5766.8796
6726.9519
6613.5449
7491.763
7507.7516
8469.6233
8448.8719
7566.502
7663.9623
8608.4413
8525.2957
870.42199
877.55124
1080.1019
1073.0101
1552.1255
1543.9235
2761.8428
2761.0456
900.70793
1109.2598
1105.8606
895.66531
1590.7205
1641.6227
2931.0349
2812.2156
3732.2584
3859.403
4818.5522
4691.497
4626.5414
3671.3371
3677.5446
4632.4426
1175.2345
964.43211
975.71607
1205.3019
2301.9561
3960.7608
1117.933
921.08643
916.27036
1114.0742
1766.7164
1623.1471
2836.5074
3047.3755
3929.3222
3704.7256
4600.489
4794.1272
5894.6626
4965.98
6719.1071
7430.1852
5607.9353
5475.6184
6367.7596
6398.9003
8084.8041
8760.5823
7165.5592
7250.4594
8148.1941
7944.8245
583.02678
580.30819
368.10598
359.82718
372.82734
402.88163
477.28836
556.0135
552.97102
438.53062
516.83258
516.37616
476.94572
611.82951
647.31457
649.07694
615.09683
706.63369
683.30689
695.95581
720.31922
1666.9401
509.35647
473.55378
697.83576
673.7549
691.70263
716.72008
2073.0536
2021.4944
4731.1559
4835.5432
4717.0903
4814.023
4840.4482
4710.6226
4706.5753
4816.9845
2044.3643
2013.6728
3883.9599
4495.9178
8559.0997
8012.3893
4765.3639
4083.4897
3432.6538
1848.2274
3810.6815
3669.5347
3342.5604
1004.3961
1883.4191
2273.6941
2222.2937
4324.286
5034.6117
4205.5043
4876.7904
3118.5614
3251.8609
3591.831
3399.5068
1300.2592
3199.4968
3242.2017
2802.7046
2756.8889
5808.8561
6236.0012
6085.6658
5685.272
5938.6116
5522.0275
5290.4926
5695.598
7057.6888
6628.3869
6513.6312
7053.3332
7363.6438
6923.145
7239.0402
6803.3128
9280.417
9246.0887
9956.2746
10245.571
13961.489
14867.271
12452.61
11821.137
9917.8549
9934.3602
9545.5135
9465.1954
9991.9786
10224.219
15950.514
8675.1146
15325.311
15267.396
15821.535
8663.4311
8799.2814
8876.5229
15187.554
15851.678
15892.731
15193.112
16139.755
15881.482
15186.734
15503.686
15905.665
15279.507
15501.426
16042.254
3976.2349
4241.758
4267.1888
4022.4797
8706.0804
8814.6949
8740.6063
8593.2672
9503.6707
9560.7973
9259.6141
9269.2306
9564.1018
9682.8405
9494.8483
9302.9489
16245.797
16406.733
15562.434
17281.4
15875.269
15134.534
15225.528
15736.362
15863.901
15886.85
15243.666
15346.517
16355.548
15950.478
17649.959
17633.285
15734.19
16942.254
16333.736
16529.965
15505.322
15963.989
15936.876
16196.729
19773.76
16990.132
17081.528
19452.44
18422.259
18088.815
21736.983
21876.906
15785.259
15348.89
15248.226
15810.699
16186.788
15832.415
15338.172
15766.885
16528.116
16071.874
15450.819
15979.137
15915.879
15265.525
15465.827
16039.651
48141.642
50858.737
36583.405
45315.658
53585.441
56486.93
59235.723
61674.753
766.63208
583.05062
681.67824
767.61728
684.12466
2101.6944
2166.0849
1899.3577
1873.8076
2400.5264
2802.1051
2468.1592
2670.2872
1505.4474
2586.5865
2950.606
2853.6604
2522.7587
794.91308
1236.3045
1250.8034
1543.974
2265.0228
1940.4479
1919.3349
2201.8239
1190.0054
854.71579
652.79821
860.43579
1025.7075
1012.4816
1795.0065
436.8007
454.29968
450.63737
488.99976
491.87536
432.47922
656.16745
663.41102
725.14528
733.33903
741.52797
745.0396
811.35673
778.19716
776.05079
752.42467
828.59848
871.80879
800.57309
928.73519
932.04127
1127.1484
2368.6972
1985.1852
983.48733
1138.5023
1807.9337
4279.1027
3775.7486
2846.4503
3768.9293
3597.5717
2446.9709
2887.5661
4425.5682
3200.0442
6021.8505
5090.2278
2461.6419
4003.0761
6815.4848
6618.3018
4845.4668
7709.5725
9416.9535
2968.6677
4737.2773
5870.6576
2580.5621
4440.2021
3046.4714
4221.9889
9065.0301
8346.4044
1651.2151
2291.636
2346.4442
1601.8692
4059.068
3520.877
5374.0255
10903.072
12859.127
7325.9588
9547.6761
34944.973
15231.199
18573.909
38889.004
28793.982
31740.644
42131.535
40090.882
42579.476
43611.91
41528.857
44704.578
36699.336
38684.158
40379.881
38007.982
14229.873
40046.201
38994.452
14422.888
11228.222
14350.777
19403.817
16533.902
34387.848
35303.031
46831.383
44081.42
40653.576
31249.002
41940.009
33210.339
45361.561
44508.78
46161.144
46861.742
48816.337
47909.853
49692.697
50632.374
59142.103
54272.59
18525.632
47720.482
50445.146
7704.4994
3771.4557
9570.4547
6116.5333
7479.3495
12257.039
9388.7006
15976.76
25522.479
25169.117
5549.2431
8193.608
11411.737
22909.081
30063.948
15504.478
25006.053
24546.636
12721.116
12926.941
17683.502
22640.715
31320.248
27923.605
27917.91
31028.802
34297.803
35511.855
36349.268
36784.975
37109.353
32649.954
29501.337
26295.241
10337.826
14559.352
16390.725
8360.6417
18101.425
7234.7781
14278.194
14699.565
6212.2626
13087.244
13025.24
16628.208
15295.861
15338.426
18079.582
19685.599
35237.202
28155.677
21193.283
23127.496
49137.582
60734.98
62697.814
51317.361
54139.813
57935.291
65358.539
64658.44
58140.492
56245.738
48589.183
49986.17
52257.644
59899.073
50707.239
58833.854
17416.361
16756.632
15038.968
48946.582
41438.174
52568.842
55710.116
44254.713
46852.57
58392.317
60354.343
61159.831
54948.596
53416.724
61678.736
61958.834
58468.04
56406.149
51681.97
47642.265
48074.382
51974.093
48103.342
48871.543
51736.914
51464.465
56133.33
55657.631
56061.086
55797.067
49435.693
50303.665
52113.739
51628.261
51162.998
52494.734
53527.095
52186.035
55549.133
55015.203
53178.872
53574.464
20183.734
35358.722
37115.725
53859.029
49878.384
58866.688
59427.83
39774.886
20883.56
44138.597
24814.557
59690.521
57611.84
59414.588
60444.257
51416.605
52810.067
52738.009
52485.489
56262.734
57827.606
59702.96
58320.582
19009.456
54455.373
53340.082
54888.216
53066.296
13242.556
14996.143
14678.84
13765.435
22953.933
32886.574
34095.701
50315.666
36789.572
39704.847
53726.03
56259.557
42976.819
46162.409
57757.544
52930.046
53032.741
50568.713
50772.684
51350.941
51504.578
52450.8
50462.75
55059.164
53364.825
19682.157
58929.335
52076.721
77000.25
40765.116
71329.551
24510.763
36590.92
54559.697
42859.633
23469.657
82001.5
86283.86
92050.555
89660.794
42143.998
72470.842
67305.445
59936.484
81834.181
84468.364
86754.749
81074.533
86319.814
77619.608
89397.094
88918.717
87315.516
87254.922
87089.447
87705.679
87469.383
88486.033
86986.413
86334.738
86314.337
86943.426
87366.724
83943.492
85960.596
87518.766
87684.448
87276.72
87425.003
86817.769
85024.385
86047.197
86031.381
85123.555
90864.259
89523.596
91890.222
95362.324
90105.302
90827.06
99500.036
98649.739
109363.55
109501.36
17538.269
37570.258
93414.18
39693.019
92850.919
30217.279
104741.75
97837.353
91203.306
99731.421
91680.821
20748.54
16948.991
16812.003
19175.337
69889.102
21268.258
19022.188
20722.697
17290.649
17382.56
19752.239
18928.635
69459.599
69950.716
18721.236
18561.226
19672.479
19382.747
70322.813
69460.266
19537.727
17900.954
17879.063
18985.206
69029.17
69544.902
72644.626
71464.823
79994.706
30701.383
81164.991
136576.19
133478.29
18740.91
16096.215
15896.842
18472.935
62432.731
59505.365
16371.253
16455.292
19447.45
19703.824
18729.352
19467.792
18471.844
53264.329
15954.574
15430.11
16484.227
16770.185
19046.36
20910.518
18998.24
67449.942
15585.345
15938.898
17773.573
17457.866
66538.394
64436.884
934.04331
951.03096
916.78126
909.32943
980.64528
970.57069
1109.7948
1217.3963
1809.6509
3435.7366
2964.5607
5388.6279
6683.578
9172.553
7041.1242
10969.473
13892.599
13302.661
10687.754
27160.476
12104.101
14264.457
11942.596
13921.602
30528.825
33552.658
37778.868
12409.423
13250.409
36213.818
13327.848
14900.762
14594.155
14512.059
15681.359
15375.276
14872.164
14045.816
15470.889
14602.358
14536.772
15117.218
15229.841
15004.245
14245.876
14276.23
55147.274
53413.484
15415.12
15659.098
15918.74
15837.509
58976.119
17241.387
18693.188
18656.23
14598.301
14817.73
14927.78
14515.425
59322.226
57172.441
18779.974
18943.752
17145.054
17370.212
19131.916
19048.941
17466.154
17461.1
20133.556
20183.423
18405.31
18590.447
18748.709
18759.368
20481.985