/*--------------------------------*- C++ -*----------------------------------*\
  =========                 |
  \\      /  F ield         | OpenFOAM: The Open Source CFD Toolbox
   \\    /   O peration     | Website:  https://openfoam.org
    \\  /    A nd           | Version:  7
     \\/     M anipulation  |
\*---------------------------------------------------------------------------*/
FoamFile
{
    version     2.0;
    format      ascii;
    class       volScalarField;
    location    "1000";
    object      pMean;
}
// * * * * * * * * * * * * * * * * * * * * * * * * * * * * * * * * * * * * * //

dimensions      [0 2 -2 0 0 0 0];

internalField   nonuniform List<scalar> 
33733
(
-1.7049803e+92
-1.7974217e+92
-1.7173517e+92
-1.7521818e+92
-1.7460695e+92
-1.6647789e+92
-1.7190392e+92
-1.7202243e+92
-1.7631792e+92
-1.732997e+92
-1.7537558e+92
-1.804988e+92
-1.829102e+92
-1.8370397e+92
-1.8110634e+92
-1.7267739e+92
-1.6677554e+92
-1.7218636e+92
-1.7548684e+92
-1.8110404e+92
-1.8111566e+92
-1.7786458e+92
-1.774563e+92
-1.7561164e+92
-1.7508716e+92
-1.665259e+92
-1.7052885e+92
-1.6973488e+92
-1.6616364e+92
-1.7322088e+92
-1.7468583e+92
-1.7293778e+92
-1.7444694e+92
-1.7759462e+92
-1.7845012e+92
-1.7401522e+92
-1.7395213e+92
-1.7835641e+92
-1.7618387e+92
-1.7379238e+92
-1.7113976e+92
-1.7497564e+92
-1.6695441e+92
-1.8176377e+92
-1.7788649e+92
-1.7543087e+92
-1.7595079e+92
-1.7846883e+92
-1.817964e+92
-1.8424322e+92
-1.8289828e+92
-1.742597e+92
-1.732298e+92
-1.7067334e+92
-1.7471545e+92
-1.731552e+92
-1.6677881e+92
-1.6693074e+92
-1.7073497e+92
-1.7467412e+92
-1.7347028e+92
-1.747298e+92
-1.7337222e+92
-1.7573204e+92
-1.783669e+92
-1.7832082e+92
-1.7588297e+92
-1.8332469e+92
-1.8210453e+92
-1.8218936e+92
-1.8329177e+92
-1.8197366e+92
-1.8299236e+92
-1.815321e+92
-1.7847028e+92
-1.7799319e+92
-1.7960638e+92
-1.7932347e+92
-1.7720693e+92
-1.7618207e+92
-1.7575225e+92
-1.7687181e+92
-1.5919963e+92
-1.6471169e+92
-1.7180905e+92
-1.7326225e+92
-1.7220377e+92
-1.7069609e+92
-1.7394889e+92
-1.7364072e+92
-1.7407953e+92
-1.7422489e+92
-1.7436402e+92
-1.7513189e+92
-1.7415284e+92
-1.7499261e+92
-1.7985287e+92
-1.8513832e+92
-1.8542254e+92
-1.8467791e+92
-1.7925883e+92
-1.7487885e+92
-1.7458584e+92
-1.7984104e+92
-1.7921661e+92
-1.7756512e+92
-1.7702074e+92
-1.8072816e+92
-1.8041141e+92
-1.783782e+92
-1.7797936e+92
-1.7081432e+92
-1.7687462e+92
-1.7472023e+92
-1.7461036e+92
-1.7643033e+92
-1.7612527e+92
-1.743237e+92
-1.7429016e+92
-1.7120111e+92
-1.7561813e+92
-1.679595e+92
-1.6801254e+92
-1.7871523e+92
-1.7979219e+92
-1.7741697e+92
-1.7645183e+92
-1.7433676e+92
-1.7422861e+92
-1.7343573e+92
-1.7186876e+92
-1.7461271e+92
-1.7538272e+92
-1.7429957e+92
-1.7732451e+92
-1.832681e+92
-1.7894763e+92
-1.7658501e+92
-1.7741425e+92
-1.7990623e+92
-1.8300894e+92
-1.8556151e+92
-1.8451116e+92
-1.8320579e+92
-1.8446611e+92
-1.7491262e+92
-1.7382735e+92
-1.7293226e+92
-1.7127549e+92
-1.7097475e+92
-1.7284982e+92
-1.752821e+92
-1.7374856e+92
-1.6523451e+92
-1.5941372e+92
-1.6458634e+92
-1.7316533e+92
-1.7116885e+92
-1.7207238e+92
-1.7353913e+92
-1.7502708e+92
-1.7385925e+92
-1.739349e+92
-1.7501248e+92
-1.735944e+92
-1.7328319e+92
-1.7348312e+92
-1.7333288e+92
-1.7425191e+92
-1.7452254e+92
-1.7530604e+92
-1.7540862e+92
-1.7370022e+92
-1.7371679e+92
-1.7388671e+92
-1.739556e+92
-1.7623614e+92
-1.7770312e+92
-1.7783195e+92
-1.7653757e+92
-1.8049479e+92
-1.7904675e+92
-1.7931344e+92
-1.80531e+92
-1.8040639e+92
-1.7930269e+92
-1.7998492e+92
-1.7893368e+92
-1.7787245e+92
-1.7761288e+92
-1.7669021e+92
-1.7658838e+92
-1.828659e+92
-1.8333065e+92
-1.831417e+92
-1.828238e+92
-1.840088e+92
-1.8468087e+92
-1.8415317e+92
-1.8440998e+92
-1.8242712e+92
-1.8285592e+92
-1.8210778e+92
-1.8246789e+92
-1.8326773e+92
-1.8370532e+92
-1.8409549e+92
-1.8364625e+92
-1.8301445e+92
-1.8187691e+92
-1.816311e+92
-1.8210449e+92
-1.8224044e+92
-1.7896586e+92
-1.7932653e+92
-1.7917933e+92
-1.7876213e+92
-1.8033583e+92
-1.8045092e+92
-1.8005489e+92
-1.7985282e+92
-1.7787838e+92
-1.7823484e+92
-1.7759209e+92
-1.7802615e+92
-1.7685257e+92
-1.7653612e+92
-1.7693016e+92
-1.771896e+92
-1.6012785e+92
-1.6500305e+92
-1.7246572e+92
-1.7568854e+92
-1.7448965e+92
-1.7459557e+92
-1.7391661e+92
-1.7430924e+92
-1.7395501e+92
-1.7370996e+92
-1.7381689e+92
-1.7401961e+92
-1.7418435e+92
-1.7385678e+92
-1.7355705e+92
-1.7477187e+92
-1.7514543e+92
-1.7484335e+92
-1.7438073e+92
-1.7615789e+92
-1.7578134e+92
-1.754023e+92
-1.7583584e+92
-1.8218796e+92
-1.795884e+92
-1.7926403e+92
-1.819167e+92
-1.8481346e+92
-1.8503344e+92
-1.8627666e+92
-1.8605024e+92
-1.8533046e+92
-1.8517811e+92
-1.866086e+92
-1.8643963e+92
-1.8441534e+92
-1.8459765e+92
-1.8583322e+92
-1.815781e+92
-1.8406106e+92
-1.8421015e+92
-1.8118203e+92
-1.7864237e+92
-1.7903054e+92
-1.7796035e+92
-1.7567618e+92
-1.7544399e+92
-1.7096387e+92
-1.7766168e+92
-1.7090675e+92
-1.7742069e+92
-1.7524098e+92
-1.7510947e+92
-1.771e+92
-1.6808495e+92
-1.6825311e+92
-1.808765e+92
-1.8114128e+92
-1.7984113e+92
-1.8007599e+92
-1.80208e+92
-1.8057755e+92
-1.7953009e+92
-1.7916336e+92
-1.7757609e+92
-1.7780271e+92
-1.7880242e+92
-1.7856737e+92
-1.7688547e+92
-1.7724681e+92
-1.7826019e+92
-1.7787558e+92
-1.8187291e+92
-1.8206029e+92
-1.8358366e+92
-1.8092492e+92
-1.8075233e+92
-1.8165472e+92
-1.814181e+92
-1.8032511e+92
-1.8053071e+92
-1.785055e+92
-1.7837841e+92
-1.7957615e+92
-1.7941001e+92
-1.7809987e+92
-1.7829258e+92
-1.7924354e+92
-1.7904164e+92
-1.7159796e+92
-1.7333614e+92
-1.7355679e+92
-1.7138923e+92
-1.7649301e+92
-1.7654868e+92
-1.7731191e+92
-1.7722588e+92
-1.7542091e+92
-1.7528365e+92
-1.7621267e+92
-1.7613344e+92
-1.7500455e+92
-1.7573831e+92
-1.7487191e+92
-1.7548388e+92
-1.7702929e+92
-1.7620198e+92
-1.7680281e+92
-1.7598287e+92
-1.7570807e+92
-1.7584101e+92
-1.7644958e+92
-1.7661091e+92
-1.747364e+92
-1.748013e+92
-1.7551515e+92
-1.7537207e+92
-1.7342066e+92
-1.7459371e+92
-1.7458217e+92
-1.7514844e+92
-1.7481162e+92
-1.7374094e+92
-1.7218943e+92
-1.7145925e+92
-1.7507398e+92
-1.754016e+92
-1.7582014e+92
-1.7619221e+92
-1.6463781e+92
-1.7907323e+92
-1.7947529e+92
-1.8016041e+92
-1.8061787e+92
-1.7840191e+92
-1.780404e+92
-1.77369e+92
-1.770007e+92
-1.7410926e+92
-1.7386289e+92
-1.7441987e+92
-1.7374455e+92
-1.7398087e+92
-1.7563847e+92
-1.7485615e+92
-1.7532538e+92
-1.7594589e+92
-1.7635144e+92
-1.6581685e+92
-1.7090918e+92
-1.7192015e+92
-1.6723545e+92
-1.7480851e+92
-1.7852992e+92
-1.8471926e+92
-1.8675821e+92
-1.8407788e+92
-1.7999744e+92
-1.7755984e+92
-1.7847382e+92
-1.7836801e+92
-1.7710767e+92
-1.8123164e+92
-1.8009671e+92
-1.8149976e+92
-1.8885773e+92
-1.8530673e+92
-1.8579783e+92
-1.8432201e+92
-1.8568946e+92
-1.8683762e+92
-1.8400867e+92
-1.8353044e+92
-1.8495634e+92
-1.8550207e+92
-1.7581108e+92
-1.745578e+92
-1.7338945e+92
-1.7193615e+92
-1.7194372e+92
-1.7370518e+92
-1.7598405e+92
-1.7386578e+92
-1.7554671e+92
-1.7405272e+92
-1.7304448e+92
-1.7300337e+92
-1.6533511e+92
-1.5941244e+92
-1.6418821e+92
-1.7184324e+92
-1.7238321e+92
-1.7457004e+92
-1.7377223e+92
-1.7389987e+92
-1.7461151e+92
-1.751792e+92
-1.7426816e+92
-1.7461724e+92
-1.7595877e+92
-1.73962e+92
-1.7396516e+92
-1.7444594e+92
-1.7446721e+92
-1.7585659e+92
-1.7511854e+92
-1.7553319e+92
-1.7616605e+92
-1.7324154e+92
-1.7297712e+92
-1.743604e+92
-1.7474144e+92
-1.7519629e+92
-1.7474947e+92
-1.7549672e+92
-1.752919e+92
-1.7523163e+92
-1.7498124e+92
-1.7571929e+92
-1.7626005e+92
-1.7654461e+92
-1.7616113e+92
-1.7625912e+92
-1.7650888e+92
-1.7632997e+92
-1.7599155e+92
-1.7301524e+92
-1.7286385e+92
-1.7343728e+92
-1.7320631e+92
-1.7357322e+92
-1.7311809e+92
-1.7339225e+92
-1.7371801e+92
-1.7351666e+92
-1.7359673e+92
-1.742195e+92
-1.7391003e+92
-1.740731e+92
-1.7435766e+92
-1.7425786e+92
-1.740997e+92
-1.7831384e+92
-1.789049e+92
-1.788524e+92
-1.7849667e+92
-1.7743214e+92
-1.7766088e+92
-1.768598e+92
-1.7720177e+92
-1.7983034e+92
-1.8037231e+92
-1.7988676e+92
-1.8036795e+92
-1.8122636e+92
-1.8183723e+92
-1.8193105e+92
-1.8127004e+92
-1.811546e+92
-1.8168536e+92
-1.8122954e+92
-1.8085916e+92
-1.7992963e+92
-1.8030676e+92
-1.8005317e+92
-1.7974907e+92
-1.809919e+92
-1.8061429e+92
-1.8071978e+92
-1.8035751e+92
-1.7983456e+92
-1.7949239e+92
-1.7958463e+92
-1.7925432e+92
-1.7861313e+92
-1.7862047e+92
-1.7903976e+92
-1.7890024e+92
-1.7837521e+92
-1.7814551e+92
-1.7845515e+92
-1.7867393e+92
-1.773839e+92
-1.7774242e+92
-1.776095e+92
-1.7781422e+92
-1.7761772e+92
-1.7735289e+92
-1.7743478e+92
-1.7711014e+92
-1.8377268e+92
-1.8406278e+92
-1.8385413e+92
-1.8362839e+92
-1.8336199e+92
-1.8338428e+92
-1.8314883e+92
-1.8227814e+92
-1.8420665e+92
-1.8461187e+92
-1.8479175e+92
-1.8436989e+92
-1.852693e+92
-1.8548072e+92
-1.8501615e+92
-1.8484101e+92
-1.8271408e+92
-1.8282528e+92
-1.8251913e+92
-1.8259577e+92
-1.8324068e+92
-1.8357944e+92
-1.8310824e+92
-1.8342991e+92
-1.8225697e+92
-1.8239422e+92
-1.8218315e+92
-1.8202356e+92
-1.8274383e+92
-1.8298676e+92
-1.8259307e+92
-1.8281899e+92
-1.8343117e+92
-1.8362827e+92
-1.8337901e+92
-1.8318898e+92
-1.8368569e+92
-1.8401352e+92
-1.8417394e+92
-1.8385391e+92
-1.8427267e+92
-1.8460837e+92
-1.8478086e+92
-1.8443194e+92
-1.8421518e+92
-1.8404297e+92
-1.8379933e+92
-1.8397083e+92
-1.8304458e+92
-1.8324534e+92
-1.8309407e+92
-1.8286241e+92
-1.8186918e+92
-1.8205088e+92
-1.8188501e+92
-1.8170566e+92
-1.8171296e+92
-1.8194207e+92
-1.8169481e+92
-1.8151668e+92
-1.8185567e+92
-1.8236869e+92
-1.8216266e+92
-1.823586e+92
-1.8239733e+92
-1.8260678e+92
-1.8229402e+92
-1.8246013e+92
-1.7914794e+92
-1.7964873e+92
-1.8077039e+92
-1.8025353e+92
-1.8167326e+92
-1.8141859e+92
-1.8222217e+92
-1.7821881e+92
-1.7866907e+92
-1.7715479e+92
-1.7766249e+92
-1.6055183e+92
-1.7155134e+92
-1.7255421e+92
-1.767076e+92
-1.7655127e+92
-1.7455421e+92
-1.7399824e+92
-1.7558207e+92
-1.7465025e+92
-1.7426858e+92
-1.7434544e+92
-1.746298e+92
-1.751657e+92
-1.7561844e+92
-1.7665759e+92
-1.7617337e+92
-1.8557637e+92
-1.8213354e+92
-1.8227834e+92
-1.8351077e+92
-1.8335851e+92
-1.8086518e+92
-1.7982328e+92
-1.7963982e+92
-1.8070663e+92
-1.7933415e+92
-1.7951751e+92
-1.8057111e+92
-1.8038264e+92
-1.8322363e+92
-1.8194914e+92
-1.8179703e+92
-1.8301205e+92
-1.8508577e+92
-1.8497958e+92
-1.8448611e+92
-1.8458671e+92
-1.8527417e+92
-1.8517254e+92
-1.846792e+92
-1.8478021e+92
-1.8620134e+92
-1.8675807e+92
-1.8610524e+92
-1.8665583e+92
-1.8600727e+92
-1.865671e+92
-1.8591034e+92
-1.8646196e+92
-1.855838e+92
-1.8548756e+92
-1.8508114e+92
-1.8497727e+92
-1.8541208e+92
-1.8533401e+92
-1.8490336e+92
-1.848391e+92
-1.8652666e+92
-1.8709197e+92
-1.8645092e+92
-1.8701048e+92
-1.8636628e+92
-1.8692363e+92
-1.8628685e+92
-1.8683466e+92
-1.8462877e+92
-1.8452985e+92
-1.8263985e+92
-1.8405968e+92
-1.8414525e+92
-1.8485484e+92
-1.8471997e+92
-1.828151e+92
-1.842358e+92
-1.8436346e+92
-1.8577525e+92
-1.8632693e+92
-1.8565209e+92
-1.8164158e+92
-1.815352e+92
-1.8423896e+92
-1.8414983e+92
-1.8231941e+92
-1.8369857e+92
-1.8377749e+92
-1.844368e+92
-1.8432077e+92
-1.8250636e+92
-1.8385681e+92
-1.8396272e+92
-1.8142592e+92
-1.8120564e+92
-1.7998099e+92
-1.7891625e+92
-1.7870627e+92
-1.7978134e+92
-1.8026761e+92
-1.792666e+92
-1.790976e+92
-1.8014477e+92
-1.7842894e+92
-1.7760704e+92
-1.776461e+92
-1.783718e+92
-1.7387845e+92
-1.7608814e+92
-1.7627609e+92
-1.7712315e+92
-1.7715089e+92
-1.7688603e+92
-1.7600029e+92
-1.7586372e+92
-1.7669728e+92
-1.7378553e+92
-1.7163857e+92
-1.7131422e+92
-1.782321e+92
-1.7737254e+92
-1.7719534e+92
-1.7805099e+92
-1.7369294e+92
-1.7368252e+92
-1.7128735e+92
-1.7160688e+92
-1.7790206e+92
-1.7707423e+92
-1.7696092e+92
-1.7780536e+92
-1.7574254e+92
-1.7657465e+92
-1.7564288e+92
-1.7649002e+92
-1.7550365e+92
-1.7553125e+92
-1.7617643e+92
-1.7635744e+92
-1.7680874e+92
-1.7662354e+92
-1.7746416e+92
-1.7767756e+92
-1.6453953e+92
-1.6450539e+92
-1.8155875e+92
-1.8119596e+92
-1.8106331e+92
-1.8142722e+92
-1.8184496e+92
-1.8146035e+92
-1.8132123e+92
-1.8170477e+92
-1.8001811e+92
-1.8013111e+92
-1.805069e+92
-1.8037921e+92
-1.8024198e+92
-1.8037223e+92
-1.807606e+92
-1.8062688e+92
-1.8093747e+92
-1.8056623e+92
-1.8037461e+92
-1.8079951e+92
-1.8129312e+92
-1.8092934e+92
-1.8074328e+92
-1.8111835e+92
-1.8024508e+92
-1.7988669e+92
-1.7968111e+92
-1.800606e+92
-1.792778e+92
-1.7951235e+92
-1.7988742e+92
-1.7968739e+92
-1.779375e+92
-1.7802782e+92
-1.7841315e+92
-1.7832654e+92
-1.7814821e+92
-1.7828755e+92
-1.7866422e+92
-1.7852724e+92
-1.7932575e+92
-1.7966576e+92
-1.795369e+92
-1.7920703e+92
-1.7899608e+92
-1.7909346e+92
-1.7942718e+92
-1.793315e+92
-1.7723144e+92
-1.7745349e+92
-1.7782678e+92
-1.7760857e+92
-1.7760776e+92
-1.7780247e+92
-1.7820126e+92
-1.7799781e+92
-1.7920107e+92
-1.7885678e+92
-1.786627e+92
-1.7900509e+92
-1.7881867e+92
-1.784817e+92
-1.7825528e+92
-1.7860057e+92
-1.8255353e+92
-1.8214286e+92
-1.8203598e+92
-1.8244347e+92
-1.8440884e+92
-1.8437317e+92
-1.8225612e+92
-1.8238601e+92
-1.8280513e+92
-1.826685e+92
-1.8354307e+92
-1.8110479e+92
-1.8124039e+92
-1.8165522e+92
-1.8151092e+92
-1.8139106e+92
-1.8099214e+92
-1.8089922e+92
-1.8130484e+92
-1.8232318e+92
-1.8191677e+92
-1.8178467e+92
-1.8218919e+92
-1.8157466e+92
-1.8167248e+92
-1.8207493e+92
-1.8196658e+92
-1.804647e+92
-1.8053759e+92
-1.8094418e+92
-1.8086073e+92
-1.8063963e+92
-1.8077102e+92
-1.8118571e+92
-1.810483e+92
-1.7940284e+92
-1.7899161e+92
-1.7886855e+92
-1.7927607e+92
-1.7869806e+92
-1.78769e+92
-1.790917e+92
-1.7917284e+92
-1.7999642e+92
-1.801383e+92
-1.8052677e+92
-1.803672e+92
-1.798814e+92
-1.802491e+92
-1.8014784e+92
-1.7978892e+92
-1.7840827e+92
-1.7846752e+92
-1.7876177e+92
-1.7882917e+92
-1.7855223e+92
-1.786371e+92
-1.7890185e+92
-1.7902196e+92
-1.7967077e+92
-1.8003219e+92
-1.7989315e+92
-1.795601e+92
-1.7946479e+92
-1.7980461e+92
-1.7973805e+92
-1.7941023e+92
-1.7126241e+92
-1.7558736e+92
-1.7484922e+92
-1.7489728e+92
-1.7518922e+92
-1.7472137e+92
-1.747894e+92
-1.7527266e+92
-1.7555017e+92
-1.7117582e+92
-1.7651026e+92
-1.7662296e+92
-1.7703176e+92
-1.7695149e+92
-1.7670692e+92
-1.7676117e+92
-1.7723374e+92
-1.7714012e+92
-1.7775753e+92
-1.77852e+92
-1.7826603e+92
-1.7814118e+92
-1.7802253e+92
-1.7764814e+92
-1.7758403e+92
-1.7796587e+92
-1.7598448e+92
-1.7585133e+92
-1.7604118e+92
-1.7598223e+92
-1.7573391e+92
-1.7587196e+92
-1.7587881e+92
-1.7575076e+92
-1.7581243e+92
-1.7583949e+92
-1.7604837e+92
-1.7605342e+92
-1.7595288e+92
-1.757486e+92
-1.7565675e+92
-1.7584956e+92
-1.7548873e+92
-1.7543507e+92
-1.7525813e+92
-1.7541417e+92
-1.7577619e+92
-1.7553169e+92
-1.7539848e+92
-1.7574776e+92
-1.7520711e+92
-1.7523965e+92
-1.7500481e+92
-1.7523305e+92
-1.7515913e+92
-1.7537143e+92
-1.7565774e+92
-1.755153e+92
-1.7790451e+92
-1.7754399e+92
-1.7745483e+92
-1.7781387e+92
-1.769165e+92
-1.7648747e+92
-1.764324e+92
-1.7683863e+92
-1.7772743e+92
-1.7739363e+92
-1.7729686e+92
-1.776724e+92
-1.7675945e+92
-1.7635702e+92
-1.7623241e+92
-1.7666492e+92
-1.7579595e+92
-1.7593199e+92
-1.7633861e+92
-1.7624323e+92
-1.7599648e+92
-1.76112e+92
-1.7655736e+92
-1.7642783e+92
-1.7686729e+92
-1.7695863e+92
-1.7732421e+92
-1.7724756e+92
-1.7707303e+92
-1.7719037e+92
-1.7758047e+92
-1.7744433e+92
-1.7464964e+92
-1.7498103e+92
-1.7506868e+92
-1.7508805e+92
-1.7492579e+92
-1.7457454e+92
-1.7520655e+92
-1.7518337e+92
-1.7512213e+92
-1.7516471e+92
-1.7510647e+92
-1.7515126e+92
-1.7542752e+92
-1.7534391e+92
-1.7525936e+92
-1.7503496e+92
-1.74892e+92
-1.7511499e+92
-1.7553492e+92
-1.7537016e+92
-1.7477363e+92
-1.7445693e+92
-1.7473741e+92
-1.7449663e+92
-1.7414516e+92
-1.7461914e+92
-1.7489311e+92
-1.7495743e+92
-1.7483769e+92
-1.7471047e+92
-1.7458361e+92
-1.7474674e+92
-1.7498596e+92
-1.7481481e+92
-1.7459551e+92
-1.7432441e+92
-1.7412999e+92
-1.7442058e+92
-1.7562231e+92
-1.7614278e+92
-1.7512102e+92
-1.7529867e+92
-1.7581013e+92
-1.7559315e+92
-1.754963e+92
-1.7567077e+92
-1.7614773e+92
-1.7597028e+92
-1.7619846e+92
-1.7640794e+92
-1.7679226e+92
-1.7659869e+92
-1.7657361e+92
-1.7674579e+92
-1.7713996e+92
-1.7695343e+92
-1.6365422e+92
-1.7611966e+92
-1.7413983e+92
-1.6588035e+92
-1.7081372e+92
-1.7208394e+92
-1.6772892e+92
-1.7668918e+92
-1.7510243e+92
-1.7462116e+92
-1.7965972e+92
-1.8101754e+92
-1.7842333e+92
-1.8588592e+92
-1.8555128e+92
-1.8494761e+92
-1.8770637e+92
-1.88498e+92
-1.8686769e+92
-1.900689e+92
-1.9098189e+92
-1.7872374e+92
-1.792933e+92
-1.7929125e+92
-1.7822559e+92
-1.7927669e+92
-1.800037e+92
-1.7775409e+92
-1.772259e+92
-1.7785476e+92
-1.8238702e+92
-1.8171835e+92
-1.8102257e+92
-1.8249894e+92
-1.8339417e+92
-1.8030458e+92
-1.8086172e+92
-1.8242892e+92
-1.8180973e+92
-1.9034721e+92
-1.8959236e+92
-1.859507e+92
-1.861729e+92
-1.8649168e+92
-1.8587807e+92
-1.8539744e+92
-1.8684797e+92
-1.8684474e+92
-1.8847274e+92
-1.8773311e+92
-1.842043e+92
-1.8484555e+92
-1.8533255e+92
-1.8469093e+92
-1.8700608e+92
-1.8633164e+92
-1.8568948e+92
-1.8630522e+92
-1.8750242e+92
-1.8691045e+92
-1.876105e+92
-1.8827139e+92
-1.8426482e+92
-1.8442047e+92
-1.8369394e+92
-1.8369621e+92
-1.8496439e+92
-1.8516639e+92
-1.8570655e+92
-1.8594898e+92
-1.7372283e+92
-1.7214521e+92
-1.7225673e+92
-1.7380613e+92
-1.7420347e+92
-1.7539063e+92
-1.7418765e+92
-1.7611176e+92
-1.7642698e+92
-1.7665038e+92
-1.7455305e+92
-1.740814e+92
-1.7387052e+92
-1.755031e+92
-1.7628897e+92
-1.732659e+92
-1.7315999e+92
-1.7410759e+92
-1.733135e+92
-1.7350471e+92
-1.6454153e+92
-1.7141507e+92
-1.7134951e+92
-1.5964362e+92
-1.7084897e+92
-1.7199736e+92
-1.7103212e+92
-1.7218947e+92
-1.754074e+92
-1.7599848e+92
-1.7614495e+92
-1.7402477e+92
-1.7530976e+92
-1.7333188e+92
-1.738077e+92
-1.7554045e+92
-1.7517313e+92
-1.7368968e+92
-1.7624946e+92
-1.7449489e+92
-1.7461891e+92
-1.7400048e+92
-1.7591594e+92
-1.7663996e+92
-1.7301936e+92
-1.7338899e+92
-1.7355381e+92
-1.7291269e+92
-1.7213566e+92
-1.7254044e+92
-1.7413673e+92
-1.7529273e+92
-1.7473364e+92
-1.7520133e+92
-1.7563755e+92
-1.7632909e+92
-1.7589085e+92
-1.761787e+92
-1.764743e+92
-1.7541537e+92
-1.7484086e+92
-1.7569115e+92
-1.7515514e+92
-1.762052e+92
-1.7643149e+92
-1.7648031e+92
-1.763063e+92
-1.756746e+92
-1.7589129e+92
-1.7603491e+92
-1.7589388e+92
-1.7585287e+92
-1.7581127e+92
-1.7586405e+92
-1.7594634e+92
-1.7536315e+92
-1.7559214e+92
-1.7556995e+92
-1.7544451e+92
-1.7639572e+92
-1.7611847e+92
-1.7637699e+92
-1.7669519e+92
-1.7685326e+92
-1.7707137e+92
-1.7744389e+92
-1.7726911e+92
-1.7759754e+92
-1.7775798e+92
-1.7759123e+92
-1.7753725e+92
-1.7694357e+92
-1.7668919e+92
-1.7712475e+92
-1.7703492e+92
-1.7669691e+92
-1.769609e+92
-1.7706076e+92
-1.7678335e+92
-1.771044e+92
-1.7742889e+92
-1.7753586e+92
-1.7727124e+92
-1.7708681e+92
-1.7686152e+92
-1.7672856e+92
-1.7687742e+92
-1.762896e+92
-1.7643018e+92
-1.7652257e+92
-1.7635737e+92
-1.725303e+92
-1.7318932e+92
-1.7273631e+92
-1.7227995e+92
-1.7268773e+92
-1.7381731e+92
-1.7326846e+92
-1.729284e+92
-1.7347158e+92
-1.7449067e+92
-1.7389914e+92
-1.7415015e+92
-1.7451703e+92
-1.7239223e+92
-1.7310064e+92
-1.7221494e+92
-1.7274333e+92
-1.7347477e+92
-1.7270127e+92
-1.7379173e+92
-1.7266873e+92
-1.7347916e+92
-1.7353834e+92
-1.7396487e+92
-1.7416377e+92
-1.7401567e+92
-1.7415895e+92
-1.7402039e+92
-1.7395678e+92
-1.742648e+92
-1.7382087e+92
-1.743132e+92
-1.7461944e+92
-1.7510276e+92
-1.7500262e+92
-1.7505275e+92
-1.7525203e+92
-1.750738e+92
-1.7489381e+92
-1.7460798e+92
-1.7481522e+92
-1.7436795e+92
-1.7449998e+92
-1.7424821e+92
-1.742313e+92
-1.7931602e+92
-1.7926695e+92
-1.7967977e+92
-1.7949025e+92
-1.788164e+92
-1.7813477e+92
-1.7750619e+92
-1.8019296e+92
-1.8037795e+92
-1.8047765e+92
-1.8032785e+92
-1.8090865e+92
-1.8084203e+92
-1.8101264e+92
-1.8103807e+92
-1.8238835e+92
-1.8264034e+92
-1.8257461e+92
-1.8228903e+92
-1.8158347e+92
-1.8162988e+92
-1.8174972e+92
-1.8184427e+92
-1.8146204e+92
-1.8132314e+92
-1.8146899e+92
-1.8163768e+92
-1.8214945e+92
-1.8230382e+92
-1.8205197e+92
-1.8192093e+92
-1.8168116e+92
-1.8181939e+92
-1.8157411e+92
-1.8143785e+92
-1.808959e+92
-1.8111637e+92
-1.8105301e+92
-1.8128227e+92
-1.8005513e+92
-1.8026545e+92
-1.8052334e+92
-1.8032845e+92
-1.8074261e+92
-1.8087694e+92
-1.8096921e+92
-1.8085578e+92
-1.806894e+92
-1.8055483e+92
-1.8036457e+92
-1.8048812e+92
-1.8014829e+92
-1.8005365e+92
-1.798939e+92
-1.7999757e+92
-1.8124246e+92
-1.8141742e+92
-1.8127161e+92
-1.8110297e+92
-1.8087617e+92
-1.807102e+92
-1.805454e+92
-1.8070632e+92
-1.8107019e+92
-1.8124402e+92
-1.8103327e+92
-1.8088369e+92
-1.8034584e+92
-1.8049715e+92
-1.8048504e+92
-1.8067749e+92
-1.8030084e+92
-1.8018208e+92
-1.8002722e+92
-1.8013432e+92
-1.7980688e+92
-1.7967598e+92
-1.7949486e+92
-1.7964401e+92
-1.8008405e+92
-1.7997472e+92
-1.7980057e+92
-1.7990769e+92
-1.795895e+92
-1.7938767e+92
-1.7921553e+92
-1.7942794e+92
-1.7915018e+92
-1.7906245e+92
-1.7923257e+92
-1.792876e+92
-1.7917842e+92
-1.7912542e+92
-1.789948e+92
-1.7908096e+92
-1.7975781e+92
-1.7957563e+92
-1.7982001e+92
-1.7973186e+92
-1.7943905e+92
-1.7960432e+92
-1.7951394e+92
-1.7965088e+92
-1.7854562e+92
-1.7879151e+92
-1.7887502e+92
-1.7867343e+92
-1.7817348e+92
-1.7835484e+92
-1.7846545e+92
-1.7827731e+92
-1.7870618e+92
-1.7890859e+92
-1.7904261e+92
-1.7882923e+92
-1.7902968e+92
-1.7921074e+92
-1.7910894e+92
-1.7929162e+92
-1.7792349e+92
-1.7799746e+92
-1.7781894e+92
-1.7816286e+92
-1.7857045e+92
-1.7844395e+92
-1.7868094e+92
-1.7872812e+92
-1.7812465e+92
-1.7845632e+92
-1.7831956e+92
-1.7814117e+92
-1.7847561e+92
-1.7859103e+92
-1.7864681e+92
-1.7857536e+92
-1.7841145e+92
-1.7832656e+92
-1.7804929e+92
-1.7818e+92
-1.7765158e+92
-1.7798527e+92
-1.7801941e+92
-1.7772305e+92
-1.7798307e+92
-1.7785151e+92
-1.7768625e+92
-1.7778835e+92
-1.7730217e+92
-1.7747933e+92
-1.7745968e+92
-1.773415e+92
-1.8388802e+92
-1.8375801e+92
-1.8299672e+92
-1.8326015e+92
-1.8347053e+92
-1.8348276e+92
-1.8293057e+92
-1.8420219e+92
-1.8444874e+92
-1.8512122e+92
-1.8484446e+92
-1.8283782e+92
-1.8278726e+92
-1.8255306e+92
-1.8269443e+92
-1.8334776e+92
-1.8366465e+92
-1.8312433e+92
-1.8341653e+92
-1.8227356e+92
-1.8248561e+92
-1.8229308e+92
-1.8205966e+92
-1.8286136e+92
-1.8308273e+92
-1.8261875e+92
-1.8283159e+92
-1.834325e+92
-1.8369407e+92
-1.8346894e+92
-1.8321174e+92
-1.8369237e+92
-1.8402017e+92
-1.8427808e+92
-1.8394159e+92
-1.8429213e+92
-1.8464503e+92
-1.8492581e+92
-1.8454792e+92
-1.8430388e+92
-1.8404203e+92
-1.8381823e+92
-1.8408078e+92
-1.8308128e+92
-1.8333686e+92
-1.8322411e+92
-1.8292415e+92
-1.8222206e+92
-1.8190392e+92
-1.8215483e+92
-1.8202243e+92
-1.8178107e+92
-1.8196608e+92
-1.8226767e+92
-1.8235028e+92
-1.8228302e+92
-1.8268919e+92
-1.8203335e+92
-1.8262076e+92
-1.8255862e+92
-1.8273072e+92
-1.8234933e+92
-1.8248774e+92
-1.7930758e+92
-1.7948591e+92
-1.790601e+92
-1.7986432e+92
-1.7992132e+92
-1.7976162e+92
-1.8093654e+92
-1.8102952e+92
-1.8084041e+92
-1.8042822e+92
-1.8048819e+92
-1.8029222e+92
-1.8142687e+92
-1.8146396e+92
-1.8173132e+92
-1.8169581e+92
-1.8163399e+92
-1.8137916e+92
-1.8231203e+92
-1.7834747e+92
-1.7822683e+92
-1.7836976e+92
-1.7878398e+92
-1.7896431e+92
-1.7863844e+92
-1.7728794e+92
-1.7707339e+92
-1.7766528e+92
-1.7783125e+92
-1.7785978e+92
-1.7793959e+92
-1.7648533e+92
-1.764999e+92
-1.7677847e+92
-1.7734656e+92
-1.7726146e+92
-1.7497162e+92
-1.7553308e+92
-1.741449e+92
-1.7409228e+92
-1.7503585e+92
-1.7446748e+92
-1.7442459e+92
-1.7463334e+92
-1.7463196e+92
-1.7478351e+92
-1.7506551e+92
-1.749876e+92
-1.74794e+92
-1.7626488e+92
-1.7520447e+92
-1.7534641e+92
-1.7583519e+92
-1.7622506e+92
-1.7608791e+92
-1.7679315e+92
-1.7690564e+92
-1.7693237e+92
-1.7635027e+92
-1.7662489e+92
-1.7651882e+92
-1.8668986e+92
-1.8662317e+92
-1.8575042e+92
-1.8568258e+92
-1.8518403e+92
-1.852483e+92
-1.8226489e+92
-1.8233016e+92
-1.8279154e+92
-1.8271954e+92
-1.8240084e+92
-1.8251048e+92
-1.8296424e+92
-1.8285239e+92
-1.8423434e+92
-1.8373395e+92
-1.8363635e+92
-1.841297e+92
-1.8351306e+92
-1.8357303e+92
-1.8406265e+92
-1.8399811e+92
-1.8170337e+92
-1.8129917e+92
-1.811947e+92
-1.8158781e+92
-1.8058368e+92
-1.8018009e+92
-1.8008241e+92
-1.8048444e+92
-1.7991692e+92
-1.799779e+92
-1.8041128e+92
-1.8034282e+92
-1.8153071e+92
-1.8112836e+92
-1.8106537e+92
-1.8147004e+92
-1.7964608e+92
-1.7972292e+92
-1.801264e+92
-1.8005001e+92
-1.7979512e+92
-1.7986661e+92
-1.8028573e+92
-1.8018997e+92
-1.8138543e+92
-1.8098176e+92
-1.8090021e+92
-1.8129008e+92
-1.8123024e+92
-1.8083609e+92
-1.8076446e+92
-1.8116034e+92
-1.8393809e+92
-1.834469e+92
-1.8333745e+92
-1.8383215e+92
-1.8264733e+92
-1.8218003e+92
-1.8207897e+92
-1.8253979e+92
-1.8194036e+92
-1.8200979e+92
-1.824691e+92
-1.8237972e+92
-1.8374196e+92
-1.8324556e+92
-1.8315423e+92
-1.8364299e+92
-1.854481e+92
-1.8539766e+92
-1.8552603e+92
-1.8547283e+92
-1.8542243e+92
-1.8535759e+92
-1.8533481e+92
-1.8526347e+92
-1.844128e+92
-1.8452875e+92
-1.856196e+92
-1.8558298e+92
-1.8569768e+92
-1.8565204e+92
-1.8561337e+92
-1.8556335e+92
-1.8554534e+92
-1.8549518e+92
-1.8462702e+92
-1.8470864e+92
-1.8622074e+92
-1.8617248e+92
-1.8633065e+92
-1.8638487e+92
-1.8688919e+92
-1.8709782e+92
-1.8704455e+92
-1.8683887e+92
-1.8624139e+92
-1.8612839e+92
-1.8628789e+92
-1.8608186e+92
-1.8678928e+92
-1.8699715e+92
-1.8674424e+92
-1.8695068e+92
-1.8603241e+92
-1.8597732e+92
-1.8619551e+92
-1.8613624e+92
-1.866417e+92
-1.8690512e+92
-1.8684878e+92
-1.8669705e+92
-1.8592756e+92
-1.85871e+92
-1.8603412e+92
-1.8608754e+92
-1.8658273e+92
-1.8653102e+92
-1.8679393e+92
-1.8673985e+92
-1.8595038e+92
-1.8594153e+92
-1.8602794e+92
-1.860023e+92
-1.8596097e+92
-1.8590568e+92
-1.8589838e+92
-1.8583188e+92
-1.8502293e+92
-1.8493356e+92
-1.8579644e+92
-1.8574928e+92
-1.8587544e+92
-1.8582442e+92
-1.8578469e+92
-1.8573269e+92
-1.8570902e+92
-1.8565416e+92
-1.8485606e+92
-1.847769e+92
-1.8666967e+92
-1.8654842e+92
-1.8670758e+92
-1.8651991e+92
-1.8722013e+92
-1.8718398e+92
-1.8742964e+92
-1.8738973e+92
-1.8658952e+92
-1.8648363e+92
-1.8663316e+92
-1.8643853e+92
-1.8734387e+92
-1.8713912e+92
-1.8709777e+92
-1.8730175e+92
-1.8650406e+92
-1.8640351e+92
-1.8655613e+92
-1.8635479e+92
-1.8726395e+92
-1.8706091e+92
-1.8701353e+92
-1.8721689e+92
-1.8642414e+92
-1.8631091e+92
-1.8646747e+92
-1.8626466e+92
-1.8717624e+92
-1.8696986e+92
-1.8692824e+92
-1.871353e+92
-1.8500141e+92
-1.8494191e+92
-1.8505829e+92
-1.8499677e+92
-1.8494839e+92
-1.8489469e+92
-1.8488941e+92
-1.8483209e+92
-1.8330722e+92
-1.8287387e+92
-1.8279992e+92
-1.8323217e+92
-1.8400139e+92
-1.8409237e+92
-1.8520989e+92
-1.8516898e+92
-1.8529483e+92
-1.852358e+92
-1.8517703e+92
-1.8510611e+92
-1.8511829e+92
-1.8504689e+92
-1.8352299e+92
-1.8305332e+92
-1.8294192e+92
-1.833952e+92
-1.8418855e+92
-1.8429003e+92
-1.8589689e+92
-1.8580701e+92
-1.8596582e+92
-1.8574692e+92
-1.8646997e+92
-1.8667191e+92
-1.8660413e+92
-1.8640681e+92
-1.8577658e+92
-1.8568777e+92
-1.8583832e+92
-1.856262e+92
-1.8228761e+92
-1.8185547e+92
-1.8175284e+92
-1.8217803e+92
-1.8164263e+92
-1.8169716e+92
-1.8212003e+92
-1.8205167e+92
-1.8461242e+92
-1.8456709e+92
-1.8465356e+92
-1.8460265e+92
-1.8456056e+92
-1.8450685e+92
-1.8452505e+92
-1.8446448e+92
-1.8297264e+92
-1.8257103e+92
-1.8249983e+92
-1.8291007e+92
-1.836527e+92
-1.8373881e+92
-1.847876e+92
-1.8474425e+92
-1.8485052e+92
-1.847992e+92
-1.8475124e+92
-1.8469614e+92
-1.847052e+92
-1.846511e+92
-1.8314538e+92
-1.8271097e+92
-1.8262135e+92
-1.8304384e+92
-1.8382499e+92
-1.8390866e+92
-1.8198656e+92
-1.8159437e+92
-1.8151208e+92
-1.8190269e+92
-1.813521e+92
-1.8143916e+92
-1.8183989e+92
-1.8176322e+92
-1.8084196e+92
-1.8047674e+92
-1.8038289e+92
-1.8075139e+92
-1.7973553e+92
-1.7932757e+92
-1.7924512e+92
-1.7965062e+92
-1.7909046e+92
-1.7917331e+92
-1.7957934e+92
-1.7950726e+92
-1.8067913e+92
-1.8030018e+92
-1.8022693e+92
-1.8060942e+92
-1.8105799e+92
-1.8067092e+92
-1.805795e+92
-1.809562e+92
-1.7996853e+92
-1.7958095e+92
-1.7949669e+92
-1.7987731e+92
-1.7938129e+92
-1.7944426e+92
-1.7983426e+92
-1.7979451e+92
-1.8092085e+92
-1.8054771e+92
-1.8051216e+92
-1.8088578e+92
-1.7941238e+92
-1.7903425e+92
-1.7892993e+92
-1.7930351e+92
-1.7834227e+92
-1.7790524e+92
-1.7786074e+92
-1.7828016e+92
-1.7768479e+92
-1.7776053e+92
-1.7819437e+92
-1.7812286e+92
-1.7920819e+92
-1.787962e+92
-1.7873141e+92
-1.7915596e+92
-1.7566989e+92
-1.7602923e+92
-1.7547727e+92
-1.7552731e+92
-1.7673707e+92
-1.768434e+92
-1.7685926e+92
-1.7675482e+92
-1.7684921e+92
-1.7684266e+92
-1.7665018e+92
-1.7685603e+92
-1.7691741e+92
-1.7680302e+92
-1.7714085e+92
-1.7716093e+92
-1.7708114e+92
-1.768052e+92
-1.7673378e+92
-1.7698107e+92
-1.7680255e+92
-1.7665227e+92
-1.7664562e+92
-1.7684521e+92
-1.7542171e+92
-1.7662936e+92
-1.7660994e+92
-1.7650501e+92
-1.7658412e+92
-1.7528989e+92
-1.7630732e+92
-1.7646742e+92
-1.7639995e+92
-1.7631284e+92
-1.7679952e+92
-1.7650041e+92
-1.7645471e+92
-1.7670661e+92
-1.7536231e+92
-1.7560039e+92
-1.7091941e+92
-1.7057867e+92
-1.7908055e+92
-1.7868419e+92
-1.7863602e+92
-1.7901705e+92
-1.7807338e+92
-1.7760786e+92
-1.7760292e+92
-1.7803385e+92
-1.7743851e+92
-1.775304e+92
-1.7797728e+92
-1.7788729e+92
-1.7896997e+92
-1.7858506e+92
-1.7852128e+92
-1.789092e+92
-1.7518261e+92
-1.7518283e+92
-1.7556793e+92
-1.7532169e+92
-1.7512216e+92
-1.7515034e+92
-1.7539247e+92
-1.758263e+92
-1.706167e+92
-1.711112e+92
-1.788277e+92
-1.7845926e+92
-1.7836469e+92
-1.7873503e+92
-1.7776814e+92
-1.7732628e+92
-1.7732581e+92
-1.7771004e+92
-1.7724926e+92
-1.7764824e+92
-1.7758713e+92
-1.7718765e+92
-1.7869047e+92
-1.783081e+92
-1.7826539e+92
-1.7867837e+92
-1.7626384e+92
-1.7626259e+92
-1.7623444e+92
-1.7629509e+92
-1.7635143e+92
-1.766036e+92
-1.766332e+92
-1.7639296e+92
-1.7607864e+92
-1.7614148e+92
-1.7622501e+92
-1.7609247e+92
-1.7622866e+92
-1.7647615e+92
-1.7624131e+92
-1.7657043e+92
-1.7602511e+92
-1.7602368e+92
-1.7604946e+92
-1.7602207e+92
-1.7580644e+92
-1.7601047e+92
-1.759689e+92
-1.7599413e+92
-1.7602754e+92
-1.7625371e+92
-1.7606929e+92
-1.7585339e+92
-1.7611061e+92
-1.763446e+92
-1.7615726e+92
-1.7639599e+92
-1.7712419e+92
-1.7755835e+92
-1.7748933e+92
-1.7706715e+92
-1.7698938e+92
-1.7742545e+92
-1.7731484e+92
-1.7682375e+92
-1.7795924e+92
-1.7806355e+92
-1.7844908e+92
-1.7837189e+92
-1.7812469e+92
-1.7819692e+92
-1.7861094e+92
-1.7852399e+92
-1.6342312e+92
-1.6328818e+92
-1.8171527e+92
-1.8120227e+92
-1.8106238e+92
-1.8157142e+92
-1.8197354e+92
-1.8144439e+92
-1.8132714e+92
-1.8184797e+92
-1.8001702e+92