/*--------------------------------*- C++ -*----------------------------------*\
  =========                 |
  \\      /  F ield         | OpenFOAM: The Open Source CFD Toolbox
   \\    /   O peration     | Website:  https://openfoam.org
    \\  /    A nd           | Version:  7
     \\/     M anipulation  |
\*---------------------------------------------------------------------------*/
FoamFile
{
    version     2.0;
    format      ascii;
    class       volVectorField;
    location    "1000";
    object      U;
}
// * * * * * * * * * * * * * * * * * * * * * * * * * * * * * * * * * * * * * //

dimensions      [0 1 -1 0 0 0 0];

internalField   nonuniform List<vector> 
33733
(
(-1.4329504e+47 1.451845e+46 -2.1592553e+45)
(-1.0526669e+47 4.5832229e+45 -2.0345011e+45)
(-1.4123622e+47 1.5258109e+46 9.2133536e+44)
(-1.0163902e+47 1.99201e+46 2.3900711e+45)
(-1.0492504e+47 1.979423e+46 7.6983699e+45)
(-1.4769071e+47 5.783351e+45 -1.7721692e+45)
(-9.3198831e+46 6.0231504e+45 -2.6620007e+45)
(-9.7891051e+46 1.2273779e+45 -1.1106804e+46)
(-1.0972712e+47 1.4697161e+46 1.2812831e+46)
(-1.0503463e+47 6.2029786e+45 -4.3509952e+45)
(-1.058936e+47 1.951926e+46 2.8975638e+45)
(-9.4960438e+46 2.9212949e+45 5.6164995e+45)
(-9.7935501e+46 1.3256895e+46 -4.2884111e+45)
(-1.0082243e+47 1.4343383e+46 -1.4382006e+45)
(-9.5171643e+46 4.844796e+44 2.5821215e+45)
(-9.9202224e+46 3.1577523e+45 -8.2932834e+44)
(-1.4988085e+47 4.5764808e+45 5.2243041e+44)
(-9.1569036e+46 6.6014008e+45 3.2628691e+45)
(-1.020621e+47 1.9482747e+46 -1.904496e+45)
(-9.6661869e+46 -1.6332476e+45 1.1591788e+45)
(-9.4259384e+46 -3.0915567e+45 8.0043468e+44)
(-9.3002948e+46 7.3844166e+45 5.2712683e+44)
(-9.3541044e+46 8.9358811e+45 2.4489928e+45)
(-8.8172689e+46 -2.523732e+45 -1.9782364e+45)
(-8.8334933e+46 -5.8252268e+44 -6.2493791e+45)
(-7.2677325e+46 -8.0906839e+45 -1.5108319e+45)
(-1.1007038e+47 2.0703718e+46 -6.4043526e+44)
(-1.0390898e+47 1.9482878e+46 1.0811185e+46)
(-6.7979509e+46 -8.4466588e+44 -1.0376873e+46)
(-7.6816309e+46 6.391254e+45 -4.4781675e+44)
(-8.965577e+46 1.1196363e+46 1.814553e+45)
(-7.6770736e+46 3.1354719e+45 -3.452981e+45)
(-9.2571993e+46 1.1569426e+46 4.2572012e+45)
(-1.0910179e+47 8.1685172e+45 1.3418393e+46)
(-1.1388032e+47 1.4290334e+46 1.664712e+46)
(-1.0433743e+47 5.7026508e+45 -3.8961003e+44)
(-1.0251325e+47 1.1271657e+46 -3.4351921e+45)
(-9.2902531e+46 7.5996603e+45 3.4066888e+45)
(-8.8910019e+46 4.3568094e+45 -6.7737483e+45)
(-8.1306428e+46 5.4168488e+45 1.1238544e+45)
(-1.1557239e+47 9.9689375e+45 1.2959508e+46)
(-9.223183e+46 8.9759524e+45 7.5974007e+45)
(-7.7397735e+46 7.9408795e+45 -1.8260109e+46)
(-1.1508117e+47 2.0942217e+46 -5.8107189e+44)
(-9.4628078e+46 1.0749257e+46 -4.5743469e+45)
(-9.1813737e+46 7.2921214e+44 6.0249847e+45)
(-8.8762434e+46 -2.3007469e+45 3.4489673e+45)
(-9.6362908e+46 1.0077163e+46 -1.4630299e+44)
(-9.1438856e+46 8.1306554e+45 4.870562e+45)
(-9.3556864e+46 1.1498588e+46 -8.1121005e+45)
(-9.8441565e+46 8.5302303e+45 4.37371e+45)
(-9.6531293e+46 1.1398449e+46 -4.2154476e+45)
(-8.5000614e+46 -5.2486767e+44 5.5564988e+45)
(-1.12363e+47 1.9379947e+46 3.0833577e+45)
(-9.4692228e+46 1.0963179e+46 -9.3646653e+44)
(-8.0573452e+46 -6.4221276e+44 1.5894401e+45)
(-7.5954053e+46 -8.9845699e+45 6.8222369e+45)
(-7.5276931e+46 -9.709565e+45 6.7339507e+44)
(-1.104763e+47 2.1376031e+46 2.3014053e+44)
(-9.6119938e+46 9.8378095e+45 1.6761567e+45)
(-7.9451556e+46 1.8875463e+45 -1.2864618e+45)
(-9.1966075e+46 9.6394596e+45 -6.6713854e+44)
(-7.6082347e+46 3.7421645e+45 3.3959715e+45)
(-9.441109e+46 -3.6470776e+45 -1.9089087e+42)
(-9.7466248e+46 6.395041e+45 3.1210338e+45)
(-9.4328801e+46 5.0716555e+45 -1.8820996e+45)
(-9.0592404e+46 -5.6139025e+45 1.9931742e+44)
(-9.1498568e+46 5.6824149e+45 2.7267822e+45)
(-8.9081908e+46 -2.5962965e+45 7.8771754e+45)
(-8.5103988e+46 -3.4679226e+45 3.0228272e+45)
(-8.8639791e+46 4.6911468e+45 1.792124e+45)
(-8.3618237e+46 -1.6264655e+45 4.9334422e+44)
(-8.7200007e+46 5.7436193e+45 3.0118524e+45)
(-8.3343655e+46 -1.1747116e+45 1.1527118e+45)
(-8.4682214e+46 -1.5065576e+45 -1.6423956e+45)
(-8.8558142e+46 -2.9992781e+45 -6.2345471e+45)
(-8.7931331e+46 4.3033709e+45 9.4750946e+43)
(-8.9059418e+46 2.9729991e+45 -1.1587311e+45)
(-8.7701376e+46 2.9317981e+45 -9.6835897e+44)
(-8.3667125e+46 -4.7601131e+45 -3.2905432e+45)
(-8.7660137e+46 -3.5470123e+45 -6.4539433e+45)
(-9.0438259e+46 3.1030657e+45 -1.1200324e+45)
(-1.4023447e+47 -8.6167329e+45 -1.3719701e+46)
(-9.2140731e+46 4.5435252e+45 -5.7769124e+45)
(-6.0249947e+46 -5.9930839e+44 -2.8532664e+45)
(-8.8133523e+46 1.9474279e+46 5.0076397e+44)
(-8.4286369e+46 1.5173421e+46 7.0945973e+45)
(-5.6474405e+46 1.5064683e+45 -7.7115374e+45)
(-7.4603821e+46 3.2860518e+45 1.3951974e+44)
(-7.6589012e+46 1.5808105e+45 -1.1524303e+45)
(-8.5086536e+46 6.1821768e+45 1.0191639e+45)
(-8.8800359e+46 7.4817143e+45 2.8952526e+45)
(-8.2134593e+46 -4.4121272e+45 -2.5913033e+45)
(-8.6853596e+46 9.0516032e+44 -1.5343654e+45)
(-8.6022254e+46 -2.0026466e+45 -4.7942706e+45)
(-8.9210624e+46 2.196924e+45 -1.2664194e+45)
(-1.1917124e+47 1.4438281e+46 1.6526386e+46)
(-9.5194445e+46 6.8991319e+45 -1.3971124e+46)
(-9.7730189e+46 4.8472072e+45 -9.5678489e+45)
(-9.6807077e+46 4.6998737e+45 -9.7863546e+45)
(-1.1449808e+47 6.4747986e+45 1.4557003e+46)
(-1.0546565e+47 6.4832993e+45 -1.0273979e+45)
(-1.0516049e+47 1.1635078e+46 -2.5546675e+45)
(-9.5721974e+46 7.3996111e+45 2.2122768e+45)
(-9.1073758e+46 4.6845433e+45 -1.2631412e+44)
(-8.9659931e+46 4.2295363e+45 -9.1223488e+45)
(-8.5545696e+46 7.5934675e+45 -1.1387175e+46)
(-9.7787749e+46 7.5519334e+45 1.8353766e+45)
(-9.4170333e+46 3.4780341e+45 -6.7607249e+43)
(-9.0640057e+46 4.7391492e+45 -1.0162994e+46)
(-8.9832786e+46 6.67248e+45 -1.1154855e+46)
(-1.2351787e+47 1.0546334e+46 1.7433757e+46)
(-9.5632126e+46 8.8458005e+45 1.0528666e+46)
(-7.984464e+46 5.0658695e+45 2.9266127e+45)
(-8.3834744e+46 6.117455e+45 1.4612174e+45)
(-9.8730258e+46 3.6135037e+45 9.7685365e+45)
(-9.3911957e+46 8.3669196e+45 1.0458919e+46)
(-7.9911442e+46 5.1091811e+45 2.6959486e+45)
(-7.67516e+46 8.9124871e+45 1.7365983e+45)
(-1.1495764e+47 7.504534e+45 1.5304834e+46)
(-8.9851887e+46 5.9518634e+45 8.6081676e+45)
(-8.0035073e+46 1.2751018e+46 -2.279789e+46)
(-7.7268863e+46 7.5589543e+45 -2.1321734e+46)
(-8.2394915e+46 1.664619e+45 -5.3227235e+45)
(-8.489069e+46 3.229641e+45 7.4703109e+44)
(-8.4826737e+46 2.5761404e+45 -5.7157744e+44)
(-8.1613868e+46 9.2381406e+43 -8.1243307e+45)
(-8.4504836e+46 6.8327442e+45 4.3088254e+45)
(-7.4137999e+46 3.1604661e+45 6.1438106e+44)
(-9.1335732e+46 8.6595294e+45 1.2122808e+46)
(-6.5066861e+46 5.6089509e+45 -1.1128187e+46)
(-8.2523285e+46 2.4993383e+45 -6.5408751e+45)
(-8.4931035e+46 3.079181e+45 -1.6056533e+45)
(-1.1647913e+47 1.4202115e+46 1.0746832e+45)
(-1.1791359e+47 1.7302473e+46 6.9165217e+44)
(-1.1514072e+47 1.9440979e+46 -3.1146861e+45)
(-9.0581151e+46 9.8625978e+45 -7.080427e+45)
(-8.7266691e+46 5.3961558e+45 6.2303542e+45)
(-9.2343973e+46 7.3030006e+45 3.6767967e+45)
(-9.6500417e+46 6.9562629e+45 5.1749117e+45)
(-9.1093883e+46 1.0319549e+46 8.1626401e+45)
(-9.3273204e+46 7.8231729e+45 -6.7377017e+45)
(-9.8811349e+46 8.3536661e+45 5.0203441e+45)
(-8.3312027e+46 -4.9542249e+44 7.5241759e+45)
(-8.514518e+46 3.3395058e+45 6.8288538e+44)
(-9.0320148e+46 7.4904905e+45 -6.6022769e+45)
(-8.0087625e+46 8.669205e+43 4.1750779e+45)
(-9.0604803e+46 8.8015074e+45 -6.1721421e+45)
(-6.3029924e+46 -1.5235424e+45 3.5395543e+45)
(-6.7134942e+46 -4.3170323e+45 2.7998067e+43)
(-9.5713729e+46 1.1927485e+46 -7.4966249e+44)
(-9.0273063e+46 5.4491367e+45 1.6896835e+45)
(-8.7117699e+46 5.6072141e+45 -3.5701767e+45)
(-9.4926534e+46 4.8639369e+45 1.516424e+46)
(-1.3861278e+47 -1.1233002e+46 2.2806773e+45)
(-9.3194818e+46 2.5738841e+45 -7.4691324e+44)
(-8.744198e+46 1.5911971e+46 2.7402401e+44)
(-5.6624983e+46 -3.0864475e+45 6.1591831e+45)
(-5.6142192e+46 -2.3550744e+45 3.4481194e+45)
(-8.6904194e+46 1.8846901e+46 2.5162829e+45)
(-9.3201122e+46 7.2427608e+44 9.805519e+44)
(-8.7888665e+46 -5.0871187e+45 4.1908758e+45)
(-8.5616741e+46 -3.6925521e+45 2.6640332e+45)
(-9.1095996e+46 1.8011498e+45 1.0336959e+45)
(-9.0642568e+46 2.9607003e+45 -3.9350181e+45)
(-7.8015666e+46 -3.7322748e+45 4.2892801e+44)
(-8.7102765e+46 3.2457423e+45 7.1685242e+44)
(-7.4675122e+46 -4.8341094e+45 1.081208e+45)
(-8.3641018e+46 -7.2239642e+45 -1.5781727e+45)
(-8.2605327e+46 -7.9528739e+45 -1.513463e+45)
(-9.0578952e+46 -4.2559419e+44 -9.6402849e+44)
(-8.9161039e+46 -6.7082311e+44 -3.1631857e+45)
(-7.754446e+46 -5.979897e+44 -1.9897134e+45)
(-8.9913447e+46 5.0582004e+45 -2.3382759e+43)
(-7.5092532e+46 -1.0295057e+45 1.885399e+45)
(-8.7756305e+46 4.4590021e+45 -1.9951763e+45)
(-8.929308e+46 -5.2161768e+45 7.5588806e+45)
(-9.195986e+46 1.0146166e+45 3.3546217e+45)
(-9.0113788e+46 7.3786388e+43 1.6039293e+45)
(-8.5304388e+46 -7.2650482e+45 3.4967329e+45)
(-9.0284818e+46 8.3738314e+44 3.3538625e+45)
(-8.883685e+46 -5.2731329e+45 8.514864e+45)
(-8.5423708e+46 -6.5670508e+45 3.2036498e+45)
(-8.8459599e+46 4.8808327e+44 1.4840762e+45)
(-8.6906604e+46 2.5299817e+45 1.0156577e+45)
(-8.3763154e+46 -6.5038146e+45 -1.6739797e+45)
(-8.6122889e+46 3.124412e+45 -8.5296251e+44)
(-8.3274167e+46 -4.8787772e+45 -4.7678674e+44)
(-8.8869671e+46 -6.5022418e+44 -4.0947541e+44)
(-8.7558744e+46 5.9550277e+44 -2.5723384e+45)
(-8.4735307e+46 -8.9656787e+45 -2.4144889e+45)
(-8.381916e+46 -7.4247281e+45 -2.0400698e+45)
(-7.6013925e+46 -4.1349395e+45 6.0332585e+45)
(-7.8150718e+46 2.0467198e+44 3.8719046e+45)
(-7.3825739e+46 2.1751099e+45 2.7623671e+45)
(-7.0858991e+46 -3.4759807e+45 3.8620184e+45)
(-7.0268697e+46 -2.7376967e+44 3.8361169e+45)
(-7.7430909e+46 1.2264312e+45 3.78199e+45)
(-7.5962011e+46 -1.8955638e+45 5.902233e+45)
(-7.3104266e+46 2.8902403e+45 3.5568528e+45)
(-6.7442226e+46 -2.2552132e+45 1.7772742e+45)
(-7.1117812e+46 2.5033709e+45 3.8691984e+45)
(-6.9071343e+46 -5.5352259e+44 1.98435e+45)
(-7.2108068e+46 2.5619475e+45 1.9393513e+45)
(-6.9321246e+46 -1.4168894e+44 3.6362557e+45)
(-6.7855656e+46 -8.5392127e+43 3.3802121e+45)
(-7.0885466e+46 2.7852845e+45 4.3887681e+45)
(-7.1512465e+46 2.3062898e+45 3.0213375e+45)
(-6.9825852e+46 4.6067239e+44 3.3152195e+45)
(-6.9843807e+46 4.6714165e+44 2.503973e+45)
(-6.9500331e+46 -7.040406e+44 2.2684101e+45)
(-7.1858555e+46 2.4636156e+45 2.0519542e+45)
(-7.2598e+46 3.2191139e+45 3.5332542e+45)
(-7.4420486e+46 -2.7967845e+45 -1.84177e+45)
(-7.7731999e+46 1.5344319e+45 -3.7908462e+44)
(-7.9854107e+46 1.3595636e+45 -1.2543919e+45)
(-7.7571519e+46 -2.220991e+45 -4.0313349e+45)
(-7.8456004e+46 3.7734082e+44 -1.3146642e+45)
(-7.6580249e+46 5.03073e+44 -1.9020076e+44)
(-7.4632919e+46 -2.1071535e+45 -7.4648407e+44)
(-7.8071931e+46 -7.6497887e+44 -2.982966e+45)
(-7.4636954e+46 -3.4535183e+45 -2.7769083e+45)
(-7.7669509e+46 5.544471e+44 -1.6161376e+45)
(-7.7753258e+46 -3.1540926e+45 -5.0338939e+45)
(-7.9337662e+46 2.9007331e+44 -2.3363091e+45)
(-7.5453333e+46 -4.2163663e+45 -3.9024157e+45)
(-7.8597185e+46 -3.9789028e+45 -5.8569746e+45)
(-8.0398689e+46 -4.8165033e+44 -3.1816102e+45)
(-7.8759536e+46 1.0885693e+45 -1.8535927e+45)
(-1.3206564e+47 3.3212341e+45 -1.69506e+46)
(-8.9215221e+46 3.4338672e+45 -6.6104385e+45)
(-7.6182982e+46 5.4502788e+45 -3.1566763e+45)
(-5.968136e+46 -1.1101506e+44 -1.7524961e+45)
(-8.1307913e+46 1.5129436e+46 1.7792703e+45)
(-5.5227891e+46 -8.2619727e+42 -4.2508799e+45)
(-7.9722242e+46 1.0784429e+46 6.3432797e+45)
(-6.8899549e+46 6.284446e+44 -1.8129524e+45)
(-7.7281645e+46 4.144124e+45 -1.386037e+45)
(-8.2806735e+46 5.4030349e+45 2.7793661e+45)
(-7.4670985e+46 4.9573384e+44 -4.6343268e+44)
(-7.3886684e+46 -3.5113351e+45 -4.9930008e+45)
(-7.9757615e+46 -3.1788033e+44 -3.9948827e+45)
(-8.3283314e+46 3.0624036e+44 -2.0661158e+45)
(-8.0750058e+46 -1.2891488e+45 -3.3118999e+45)
(-7.6555389e+46 -4.5471598e+45 -5.4275376e+45)
(-8.0904028e+46 -6.5225607e+44 -4.1049595e+45)
(-8.3126327e+46 -7.0374094e+44 -3.376948e+45)
(-8.0721562e+46 -3.7995524e+45 -5.5244156e+45)
(-7.9780932e+46 -1.5116304e+45 -3.9145732e+45)
(-7.682877e+46 -4.934606e+45 -5.2201834e+45)
(-8.0118157e+46 -3.9844004e+45 -6.0299449e+45)
(-8.1346313e+46 -1.8083026e+45 -4.0570882e+45)
(-1.0055649e+47 8.1759972e+45 2.0523441e+45)
(-9.4647225e+46 5.2531373e+45 -1.088779e+46)
(-9.2110812e+46 7.2458226e+45 -1.3280125e+46)
(-9.6861794e+46 3.3906898e+45 -5.8639231e+44)
(-8.3440472e+46 4.2130862e+45 -9.7591184e+45)
(-8.4108286e+46 1.7575765e+45 -8.3534015e+45)
(-8.6804298e+46 4.2267706e+45 5.1517605e+44)
(-8.5237775e+46 2.6330558e+45 -1.2974376e+45)
(-8.5461957e+46 2.0565729e+45 -7.2202894e+45)
(-8.5064097e+46 3.4905742e+45 -8.6031198e+45)
(-8.7971645e+46 4.2306555e+45 9.1629292e+44)
(-8.7288229e+46 2.0797457e+45 -3.0816816e+43)
(-8.4944459e+46 3.6450301e+45 -7.4969484e+45)
(-8.5618691e+46 2.330112e+45 -6.3968335e+45)
(-8.8628959e+46 4.5277051e+45 8.8942216e+44)
(-9.976392e+46 7.6231759e+45 1.896677e+45)
(-8.4089322e+46 3.704425e+45 -7.4385485e+45)
(-8.4685494e+46 1.893556e+45 -6.8759816e+45)
(-9.5756368e+46 3.5480371e+45 -1.0834997e+44)
(-9.1127535e+46 6.6363831e+45 -1.2299721e+46)
(-9.3151478e+46 4.5994247e+45 -1.0686583e+46)
(-1.0247941e+47 9.9472788e+45 9.9930964e+45)
(-8.3711695e+46 5.6369834e+45 2.7990255e+44)
(-8.4161665e+46 7.6372236e+45 -6.0092143e+44)
(-1.2686447e+47 1.0990348e+46 1.946545e+46)
(-1.015101e+47 4.0134513e+45 8.5423553e+45)
(-1.2289503e+47 6.8528253e+45 1.7853398e+46)
(-1.0157818e+47 9.1930743e+45 9.6050595e+45)
(-8.3802049e+46 5.7604368e+45 2.405005e+44)
(-8.2646133e+46 8.053961e+45 4.9737128e+44)
(-9.951569e+46 3.4492649e+45 9.069773e+45)
(-8.0322791e+46 5.7601497e+45 -2.484804e+46)
(-8.2895985e+46 1.1720555e+46 -2.4829537e+46)
(-8.5171656e+46 2.9777224e+44 -1.8680233e+45)
(-8.5816143e+46 1.9199106e+45 -9.166675e+44)
(-8.3513783e+46 1.6069086e+45 -8.5668831e+45)
(-8.3242228e+46 -1.2023414e+44 -7.7734725e+45)
(-8.3189454e+46 1.0648572e+45 -1.5486438e+45)
(-8.4301567e+46 1.8327238e+45 -6.5393422e+44)
(-8.1570406e+46 -7.7340593e+44 -8.077823e+45)
(-8.176386e+46 1.5358281e+45 -8.7655768e+45)
(-8.2715661e+46 1.531525e+45 -9.6611145e+45)
(-8.2609234e+46 -2.0560374e+44 -8.9602876e+45)
(-8.7375404e+46 1.8257762e+45 -3.0977909e+44)
(-8.6605623e+46 3.0479473e+44 -1.237096e+45)
(-8.0232765e+46 1.8389545e+45 -1.0297867e+46)
(-8.0665177e+46 -7.0282057e+44 -9.2912209e+45)
(-8.5037865e+46 1.5475935e+45 -1.248557e+45)
(-8.3440506e+46 9.2956984e+44 -2.4330098e+45)
(-8.645828e+46 1.2545862e+45 -1.9761138e+45)
(-8.6961499e+46 2.7562211e+45 -1.172369e+45)
(-7.3311538e+46 8.8787512e+44 -5.814985e+45)
(-8.4327394e+46 7.4090091e+44 -8.5222864e+45)
(-8.4465213e+46 3.0713868e+45 -9.3088892e+45)
(-8.62505e+46 2.6018458e+45 -9.8406967e+44)
(-8.5378106e+46 1.2900171e+45 -1.7406187e+45)
(-8.3398574e+46 2.5170296e+45 -8.3837415e+45)
(-8.3326744e+46 3.6087086e+44 -7.8370022e+45)
(-8.3175448e+46 7.3965709e+44 -9.9348447e+45)
(-8.3629667e+46 3.3181986e+45 -1.0591496e+46)
(-8.8694683e+46 2.9901549e+45 -4.9549151e+44)
(-8.8021438e+46 1.7129976e+45 -1.5963232e+45)
(-8.1985605e+46 2.3480786e+45 -9.6070257e+45)
(-8.2333445e+46 6.2053761e+44 -9.1140365e+45)
(-8.7375969e+46 2.908521e+45 7.5931201e+44)
(-8.6476042e+46 8.2337808e+44 7.9821998e+43)
(-6.5722573e+46 7.4703829e+45 -1.6038908e+46)
(-9.9392293e+46 7.6135027e+45 1.5898879e+46)
(-9.9126325e+46 4.5681748e+45 1.456796e+46)
(-6.3392991e+46 3.2059071e+45 -1.6770203e+46)
(-8.1299584e+46 4.6070159e+45 -9.19582e+45)
(-8.1048658e+46 1.6555897e+45 -8.8428041e+45)
(-8.8364039e+46 3.3919261e+45 -1.014129e+45)
(-8.8902683e+46 2.1374553e+45 -1.6422684e+45)
(-7.347605e+46 3.5821798e+45 1.0809091e+45)
(-7.3730543e+46 4.0114444e+45 2.117866e+44)
(-8.743047e+46 5.7889805e+45 5.8761349e+45)
(-8.751588e+46 2.971891e+45 5.1611774e+45)
(-7.591414e+46 2.7242332e+45 3.1021367e+44)
(-9.1387414e+46 5.4564493e+45 6.6033178e+45)
(-7.471679e+46 4.9325757e+45 7.3899988e+44)
(-9.0388454e+46 1.7063146e+45 6.6279856e+45)
(-8.7490919e+46 3.3311536e+45 -1.1215083e+45)
(-8.2609612e+46 2.2023722e+45 -7.220485e+45)
(-8.6372254e+46 9.107721e+44 -1.9663173e+45)
(-8.2067556e+46 2.6623231e+45 -7.8604742e+45)
(-8.0088576e+46 2.5523953e+45 -8.59999e+45)
(-8.092438e+46 6.0739423e+43 -7.9945732e+45)
(-8.710109e+46 5.4640748e+44 -1.7319373e+45)
(-8.8062845e+46 1.922977e+45 -8.9758799e+44)
(-7.3587355e+46 3.5846831e+45 1.0382207e+45)
(-7.4460288e+46 2.3651558e+45 1.4276095e+45)
(-8.7467802e+46 4.134491e+45 6.3096036e+45)
(-8.6156046e+46 1.5914044e+45 5.8864112e+45)
(-9.6167031e+46 9.1400262e+45 1.4854529e+46)
(-6.7212951e+46 6.3757619e+45 5.1204436e+44)
(-7.1417408e+46 2.1317481e+45 1.575171e+45)
(-8.4368319e+46 4.3812471e+45 6.1160672e+45)
(-8.0603216e+46 4.5599216e+45 4.4460158e+45)
(-8.963943e+46 9.4002508e+45 1.470161e+46)
(-5.9172428e+46 1.0464358e+46 -1.3726634e+46)
(-6.136921e+46 1.3042247e+46 -1.5217527e+46)
(-7.7138332e+46 3.9764358e+45 -9.2060365e+45)
(-7.8592236e+46 6.9932265e+44 -7.757588e+45)
(-8.2322084e+46 2.1976727e+45 -3.2565261e+45)
(-8.4427153e+46 2.2357841e+45 -1.9088408e+45)
(-9.294123e+46 1.2769113e+46 -7.8469576e+45)
(-7.3905234e+46 -1.4843569e+44 -3.7448719e+45)
(-7.6153168e+46 9.4133874e+44 -3.2205227e+44)
(-7.4207978e+46 -4.2840429e+44 -3.5477608e+45)
(-7.4815352e+46 -5.1179639e+44 -1.0406515e+45)
(-7.6015404e+46 4.5856794e+44 -1.3048345e+45)
(-7.3429927e+46 -5.8520212e+44 -4.5117029e+45)
(-7.6353853e+46 -9.585683e+44 -3.1184245e+45)
(-7.4352509e+46 -2.1266714e+45 -6.7835822e+45)
(-7.9103031e+46 1.1295275e+45 -2.4178054e+45)
(-7.2074827e+46 8.6667256e+43 -5.9206798e+45)
(-8.1560185e+46 6.2417492e+45 1.1764314e+46)
(-7.4728516e+46 3.4460041e+45 1.5041433e+45)
(-6.6720218e+46 1.1434824e+45 -1.8768852e+45)
(-6.1843653e+46 1.9927843e+45 -4.9120649e+45)
(-7.5763531e+46 -9.1008106e+44 -6.3963329e+45)
(-7.9145719e+46 -2.989611e+44 -3.4913984e+45)
(-7.5775679e+46 -2.0870996e+45 -7.157361e+45)
(-7.7664453e+46 -1.3510449e+45 -4.0253418e+45)
(-8.7651988e+46 1.1402904e+46 9.879152e+45)
(-1.1295585e+47 6.0554485e+45 -2.7888341e+45)
(-1.2137561e+47 8.4217412e+45 4.7119987e+45)
(-8.9394588e+46 1.2107789e+46 6.2689062e+45)
(-1.1501922e+47 1.3378129e+46 -1.5234765e+45)
(-1.1907926e+47 1.6834882e+46 -1.5520234e+45)
(-1.1473897e+47 1.8850344e+46 -5.1943322e+45)
(-9.3612964e+46 1.0822776e+46 -8.728413e+45)
(-9.0436621e+46 7.0345204e+45 8.0672718e+45)
(-8.875179e+46 6.4855605e+45 -4.0028088e+45)
(-8.4453517e+46 8.0786818e+45 1.0462712e+46)
(-8.5663889e+46 -5.8790981e+44 3.1850465e+45)
(-9.2011736e+46 6.6917776e+45 3.3007034e+45)
(-8.2188052e+46 -3.2634269e+45 9.5129981e+45)
(-9.6417474e+46 7.296833e+45 6.1532552e+45)
(-8.3529931e+46 -2.1635271e+45 8.3908076e+45)
(-8.569319e+46 1.4995452e+44 2.3950609e+45)
(-1.034041e+47 1.0667402e+46 9.2160792e+44)
(-8.3951894e+46 5.4741282e+44 9.1206965e+45)
(-1.0087293e+47 9.1239132e+45 4.224207e+45)
(-8.3991413e+46 1.1500223e+45 1.0780816e+46)
(-8.4392913e+46 2.3348122e+45 3.3237845e+45)
(-8.6094997e+46 3.9005427e+45 8.6816482e+44)
(-7.1762187e+46 1.1230518e+45 2.1466343e+45)
(-7.0598812e+46 -1.7260676e+45 5.3274973e+45)
(-7.0261566e+46 2.0268217e+45 5.2264924e+45)
(-7.0856713e+46 2.8195638e+45 2.2199984e+45)
(-8.6340746e+46 4.5511184e+45 -3.9568088e+45)
(-7.4017782e+46 5.5375126e+45 7.4951742e+45)
(-9.0938048e+46 3.1741619e+45 -9.8369298e+45)
(-7.0314086e+46 1.5437331e+45 5.456403e+45)
(-7.9952643e+46 5.0625202e+45 -3.5407034e+44)
(-9.8260851e+46 4.263051e+45 -3.0638065e+45)
(-8.9444984e+46 6.6951945e+45 2.6890963e+44)
(-8.2867439e+46 -1.4435626e+45 4.4885285e+45)
(-8.5559395e+46 1.6713615e+44 1.1964784e+45)
(-8.3986413e+46 6.6485983e+45 -5.1858341e+45)
(-8.2526603e+46 2.9102657e+44 -3.7824865e+45)
(-7.0384288e+46 -3.7777156e+45 2.5568493e+45)
(-9.3402705e+46 1.3970166e+45 1.8537799e+46)
(-1.3057924e+47 1.4550015e+45 3.8647925e+45)
(-8.8731904e+46 2.0661122e+45 -7.5149531e+44)
(-7.0965357e+46 3.8136777e+45 8.6703261e+45)
(-7.037641e+46 3.1097416e+45 1.8361678e+45)
(-5.4268005e+46 -2.7836527e+45 -1.5455188e+45)
(-7.9573841e+46 4.5473968e+45 -7.3882626e+45)
(-8.2353101e+46 7.2906973e+45 -2.7280908e+45)
(-5.710654e+46 -3.6224115e+45 -2.0500331e+45)
(-5.402104e+46 -3.5259036e+45 5.2200642e+45)
(-8.2681984e+46 1.0470038e+46 -1.0754006e+43)
(-8.1158765e+46 1.2368018e+46 3.1320628e+45)
(-5.3311165e+46 -4.0937791e+45 5.3837707e+45)
(-5.9963371e+46 -1.2507029e+46 1.3836255e+46)
(-7.7160248e+46 -4.1144836e+45 4.0609457e+45)
(-7.5811692e+46 -2.5051747e+45 6.1637996e+45)
(-6.1846337e+46 -1.0609328e+46 1.0624712e+46)
(-7.9478982e+46 -5.6342796e+45 5.0107878e+45)
(-7.3930976e+46 -9.702339e+45 8.0366189e+45)
(-7.1987326e+46 -9.4629288e+45 6.2256918e+45)
(-7.8536242e+46 -5.3896781e+45 4.6507631e+45)
(-7.1952145e+46 -2.5160542e+45 5.8193499e+45)
(-6.9764853e+46 1.7496911e+44 -1.0762952e+45)
(-7.8010868e+46 -1.0180693e+46 3.5508072e+45)
(-8.3209393e+46 -7.6629366e+44 2.6480668e+45)
(-7.9106653e+46 -4.0686955e+45 -3.0181408e+45)
(-7.3922244e+46 -1.1953872e+46 3.1284859e+44)
(-7.8231294e+46 -3.0191513e+45 -4.7474859e+45)
(-8.038174e+46 3.3364149e+44 -4.0357487e+45)
(-7.3974475e+46 -1.0711591e+46 -6.3972705e+45)
(-7.6230101e+46 -6.4122151e+45 -3.589728e+45)
(-7.5807658e+46 -1.0925911e+46 1.3435125e+45)
(-7.9754157e+46 -5.7545828e+45 1.2692886e+45)
(-7.6887797e+46 -4.5827751e+45 -4.3500357e+45)
(-7.2757103e+46 -9.3628524e+45 -3.1242271e+45)
(-7.2313705e+46 -5.8057888e+45 -5.6895039e+45)
(-7.6009239e+46 -1.9539624e+45 -3.530384e+45)
(-7.8003758e+46 -1.3934763e+45 -3.3661555e+45)
(-7.5447928e+46 -3.6156303e+45 -3.0773758e+45)
(-8.3113377e+46 6.0537156e+44 -4.4975406e+45)
(-7.5546826e+46 -4.5017505e+45 -2.7994445e+45)
(-7.0165236e+46 -4.8644604e+45 2.558128e+45)
(-8.1494015e+46 4.692074e+45 -1.0391003e+45)
(-8.4167239e+46 -3.9490313e+45 8.5414533e+44)
(-7.8908561e+46 -7.1511728e+45 2.1238075e+45)
(-7.3427773e+46 -8.7018915e+45 1.7006414e+45)
(-8.0563452e+46 -4.654381e+45 -6.6235328e+44)
(-7.4576465e+46 -2.5865618e+45 -8.2485553e+45)
(-8.028393e+46 1.4333721e+45 -8.2332949e+45)
(-7.3033333e+46 -8.1407638e+44 3.6307087e+45)
(-7.9075854e+46 2.3294814e+45 1.2503092e+44)
(-7.3981906e+46 -1.0796192e+46 -7.6351013e+45)
(-8.0659675e+46 -4.6407535e+45 -5.6227914e+45)
(-8.1111615e+46 -2.0042483e+45 -3.8631183e+45)
(-7.5577419e+46 -6.5037191e+45 -2.2618584e+45)
(-7.7312966e+46 -8.583923e+45 6.6640992e+45)
(-7.7674933e+46 -2.6999692e+45 2.0074469e+45)
(-8.0318969e+46 -3.5995084e+45 4.5323464e+45)
(-7.3229229e+46 -1.042828e+46 3.9243465e+45)
(-8.0176761e+46 -5.2915778e+45 4.7271857e+45)
(-7.8231285e+46 -6.1844028e+45 3.7229069e+45)
(-7.6782894e+46 -9.2910795e+45 7.1596972e+45)
(-7.3732485e+46 -1.0904717e+46 5.425467e+45)
(-7.7123661e+46 -7.6144368e+45 6.6545809e+45)
(-7.9703307e+46 -3.4233953e+45 4.5812403e+45)
(-7.3481961e+46 -6.3829935e+45 2.7864816e+45)
(-7.6277412e+46 -2.5383456e+45 2.0429638e+45)
(-7.6821957e+46 -6.2423176e+45 6.4691811e+45)
(-7.8261698e+46 -2.5286364e+45 4.2381059e+45)
(-7.379064e+46 -1.3187082e+45 3.169185e+45)
(-7.2107517e+46 -5.8720071e+45 2.824119e+45)
(-6.8196341e+46 -4.3223278e+45 2.8518275e+44)
(-7.0538857e+46 6.9744448e+44 1.8215685e+45)
(-7.1818703e+46 1.5898795e+45 4.2994558e+44)
(-6.8486852e+46 -1.5410196e+45 3.5750946e+44)
(-6.96329e+46 -6.7562484e+45 -1.1078325e+45)
(-7.2398501e+46 -8.3586339e+44 6.3722287e+44)
(-7.188187e+46 7.6032933e+44 -1.5294797e+45)
(-6.8456124e+46 -3.8943036e+45 -1.5750632e+45)
(-7.240086e+46 2.4911992e+45 2.4691026e+45)
(-6.9509035e+46 3.8416805e+43 1.1171859e+45)
(-7.230686e+46 1.6123814e+45 7.5394128e+44)
(-6.9821765e+46 -1.0808365e+45 1.2470152e+45)
(-7.2674523e+46 2.2722101e+45 1.1318124e+45)
(-6.9317124e+46 -1.5386727e+45 -3.9966453e+44)
(-7.3072325e+46 1.3469723e+45 -1.8356988e+44)
(-7.026671e+46 -2.5598125e+45 1.6408628e+44)
(-7.0724099e+46 -9.3301834e+45 -8.8651711e+44)
(-6.905098e+46 -5.9923423e+45 -2.9960409e+45)
(-7.3672003e+46 -3.7175691e+45 -4.7744987e+44)
(-7.2475575e+46 -1.4320145e+45 -3.1571902e+45)
(-6.9367111e+46 -2.757467e+45 -2.2649676e+45)
(-7.1425516e+46 -3.004749e+45 -7.9586875e+44)
(-7.3997273e+46 6.7615549e+44 -1.1501664e+45)
(-7.2890679e+46 1.303502e+45 -1.1589482e+44)
(-7.2792902e+46 -1.1079831e+46 2.6754701e+44)
(-7.7354289e+46 -4.8781553e+45 3.1640054e+44)
(-7.0841717e+46 -7.4532444e+45 -3.9228434e+45)
(-7.4671442e+46 -2.8956591e+45 -4.1605118e+45)
(-7.4040443e+46 -6.8133373e+44 -1.9717687e+45)
(-7.0580626e+46 -4.8830367e+45 -3.8565477e+45)
(-7.5779624e+46 -7.0977991e+44 -2.2904289e+45)
(-7.3140549e+46 -3.6702543e+45 -2.0815288e+45)
(-6.0353898e+46 1.1172485e+45 4.1469941e+45)
(-6.3016264e+46 3.9678504e+44 5.1833594e+45)
(-6.081356e+46 -1.1315303e+45 6.2112257e+45)
(-5.7189252e+46 1.9392736e+45 4.899153e+45)
(-6.3024039e+46 -1.0883355e+45 2.9679394e+45)
(-6.205741e+46 -2.9684812e+45 5.9662668e+45)
(-5.8480024e+46 -2.3747513e+45 4.2061809e+45)
(-6.1553855e+46 -3.6079184e+45 1.2023533e+45)
(-5.8235971e+46 -2.283905e+44 5.015379e+45)
(-6.1984521e+46 4.6629851e+43 6.2165298e+45)
(-6.3267835e+46 1.855744e+45 5.2828489e+45)
(-6.0597504e+46 1.1735906e+45 4.8030482e+45)
(-6.1736389e+46 1.1119718e+45 6.61026e+45)
(-6.2760106e+46 2.7160967e+45 5.460947e+45)
(-6.0851113e+46 1.6769739e+45 5.3607543e+45)
(-5.8617702e+46 7.3615705e+43 5.7111127e+45)
(-5.6689577e+46 -1.7651453e+45 5.2370554e+45)
(-5.2031706e+46 -3.0018386e+45 4.3426179e+45)
(-5.5098268e+46 -2.0591182e+45 3.4231347e+45)
(-5.8007213e+46 -2.9892988e+44 3.2012465e+45)
(-5.9022453e+46 3.1246874e+44 3.7615956e+45)
(-5.7981135e+46 1.4443902e+44 4.0631203e+45)
(-5.6950239e+46 -1.1603337e+45 4.4671513e+45)
(-5.572816e+46 -7.6241352e+44 5.0934493e+45)
(-5.9033961e+46 -1.7695472e+44 3.4484635e+45)
(-6.1101401e+46 1.474077e+45 4.0591666e+45)
(-6.1594997e+46 1.5148479e+45 3.2935008e+45)
(-6.0020041e+46 1.9762522e+44 3.5994055e+45)
(-6.1418878e+46 1.3743566e+45 3.8371782e+45)
(-6.1337334e+46 1.5020612e+45 4.8484169e+45)
(-6.0223056e+46 4.1273791e+44 4.2666846e+45)
(-5.9727354e+46 4.0090753e+44 4.3648187e+45)
(-6.0276311e+46 7.7797482e+44 5.0357616e+45)
(-6.1671201e+46 2.0884637e+45 5.5423425e+45)
(-6.1567644e+46 1.7717362e+45 4.4839853e+45)
(-6.034779e+46 4.5460424e+44 4.8114254e+45)
(-5.8166978e+46 -3.9176655e+44 4.8911415e+45)
(-5.6964514e+46 -4.5155568e+44 4.4909881e+45)
(-5.9632617e+46 1.4139987e+45 5.1207343e+45)
(-5.9941333e+46 1.1105496e+45 4.6127559e+45)
(-5.8771754e+46 4.3790501e+41 5.7533194e+45)
(-5.812811e+46 4.5498803e+44 5.4447319e+45)
(-6.0227052e+46 2.0730885e+45 5.6715824e+45)
(-6.0324563e+46 1.4745296e+45 5.1212275e+45)
(-6.1618452e+46 2.1431644e+45 6.0153921e+45)
(-6.0344012e+46 9.392389e+44 5.6213404e+45)
(-6.0276668e+46 5.6075393e+44 5.4901094e+45)
(-6.1419162e+46 1.8199501e+45 4.936052e+45)
(-6.1157098e+46 9.3723863e+44 4.7985735e+45)
(-6.2366463e+46 2.4217014e+45 5.2734313e+45)
(-6.2292798e+46 2.2944214e+45 3.7475775e+45)
(-6.0867799e+46 6.6855759e+44 4.0496292e+45)
(-6.1107448e+46 1.0317388e+45 3.951022e+45)
(-6.253102e+46 2.1404838e+45 4.2916384e+45)
(-6.2490945e+46 2.2407852e+45 2.7863948e+45)
(-6.0813308e+46 8.981486e+44 3.1479998e+45)
(-6.0004086e+46 9.5840679e+44 3.829014e+45)
(-6.1675421e+46 2.540404e+45 4.4026751e+45)
(-5.8309033e+46 -1.4468976e+45 3.0272199e+45)
(-5.7185155e+46 -2.852248e+45 1.6877607e+45)
(-5.7681702e+46 -7.3614803e+44 1.9436209e+45)
(-6.1085077e+46 2.1572335e+45 3.6031588e+45)
(-5.779269e+46 -3.306199e+45 3.2984339e+45)
(-6.0054101e+46 1.561056e+45 4.3626488e+45)
(-6.2245214e+46 1.8719196e+45 3.0061589e+45)
(-6.2219996e+46 1.7868299e+45 4.6397684e+45)
(-6.0849863e+46 1.0125172e+45 3.4766881e+45)
(-6.1090132e+46 9.4650368e+44 4.3266683e+45)
(-6.4150061e+46 -7.440475e+44 -5.0646335e+44)
(-6.3223763e+46 -1.9540601e+44 -3.722668e+43)
(-6.174939e+46 -8.4887413e+44 1.5770611e+44)
(-6.2686232e+46 -5.3051235e+44 1.8592065e+44)
(-5.3122449e+46 -1.7243289e+45 1.7631576e+45)
(-5.3182397e+46 -2.6583459e+45 -3.0208961e+43)
(-5.3855191e+46 -1.8427309e+45 2.7935171e+45)
(-6.6337187e+46 -4.724094e+44 -1.3230801e+45)
(-6.5629151e+46 1.4655377e+44 -5.1606607e+44)
(-6.8609949e+46 -8.81091e+44 -2.5767585e+45)
(-6.7124726e+46 5.623935e+44 -1.0929714e+45)
(-1.359408e+47 6.8047804e+45 -1.9360805e+46)
(-7.5211333e+46 1.2055458e+46 -5.272477e+45)
(-7.1002322e+46 7.38978e+45 -4.2416236e+45)
(-7.2354115e+46 4.028792e+45 -1.6071434e+45)
(-6.0080946e+46 5.9398986e+44 -1.8192697e+45)
(-7.5267468e+46 1.0686668e+46 1.434467e+45)
(-7.5977335e+46 6.7778043e+45 4.7487383e+45)
(-5.7029142e+46 -1.5212195e+45 -3.166962e+45)
(-6.4179463e+46 5.2492505e+45 1.5065456e+45)
(-6.7432564e+46 3.9966223e+45 -5.320075e+45)
(-6.928818e+46 1.9417194e+45 -7.0644328e+45)
(-7.0636593e+46 7.0021488e+44 -6.8713237e+45)
(-7.1366291e+46 -2.4710577e+44 -5.8206289e+45)
(-7.1669924e+46 -5.4312362e+43 -4.7673974e+45)
(-7.0107339e+46 -1.1660958e+44 -2.84036e+45)
(-7.1023201e+46 -1.2379181e+44 -3.8118345e+45)
(-8.4589462e+46 4.3059616e+45 -7.6913375e+45)
(-8.5030268e+46 3.9165404e+45 -9.6045758e+45)
(-8.6125027e+46 2.0398357e+45 -6.11983e+45)
(-8.843554e+46 3.924679e+45 6.1723759e+43)
(-8.7069156e+46 1.6065572e+45 -1.6402561e+45)
(-9.0448293e+46 4.3328389e+45 1.6380351e+45)
(-8.4514152e+46 2.1721968e+45 -6.8292432e+45)
(-8.3891369e+46 3.88684e+45 -1.1039244e+46)
(-8.8688884e+46 2.1605898e+45 -1.136165e+45)
(-8.255057e+46 3.6796645e+45 -1.1069467e+46)
(-8.3990972e+46 1.5397581e+45 -9.4441369e+45)
(-8.8704143e+46 3.8002612e+45 6.8844138e+44)
(-8.6598184e+46 1.810208e+45 -2.1262778e+45)
(-8.6502849e+46 3.4533795e+45 -2.483794e+45)
(-8.4524467e+46 1.2856247e+45 -8.5820668e+45)
(-8.3533472e+46 3.8796887e+45 -1.0059196e+46)
(-8.5235632e+46 2.3471806e+45 -3.5512518e+45)
(-7.3926006e+46 3.142066e+45 -6.3486849e+44)
(-7.3078435e+46 2.204658e+45 -1.8191948e+45)
(-7.2131256e+46 2.5167034e+45 -7.5239443e+45)
(-7.2492335e+46 1.4195849e+45 -6.7764515e+45)
(-7.4802743e+46 2.7830213e+45 -3.5820475e+44)
(-7.410763e+46 1.5454528e+45 -9.2342514e+44)
(-7.3052999e+46 1.9256244e+45 -7.0624632e+45)
(-7.3252403e+46 1.3435182e+45 -5.8792966e+45)
(-7.0946936e+46 1.7436286e+45 -4.0375797e+45)
(-7.1886247e+46 2.4422426e+45 -1.3294352e+45)
(-7.1024564e+46 2.7100409e+45 -4.3895392e+45)
(-7.1710801e+46 1.472082e+45 -1.7276985e+45)
(-7.0555398e+46 1.8523666e+45 -4.1984116e+45)