/*--------------------------------*- C++ -*----------------------------------*\
  =========                 |
  \\      /  F ield         | OpenFOAM: The Open Source CFD Toolbox
   \\    /   O peration     | Website:  https://openfoam.org
    \\  /    A nd           | Version:  7
     \\/     M anipulation  |
\*---------------------------------------------------------------------------*/
FoamFile
{
    version     2.0;
    format      ascii;
    class       volVectorField;
    location    "1000";
    object      UMean;
}
// * * * * * * * * * * * * * * * * * * * * * * * * * * * * * * * * * * * * * //

dimensions      [0 1 -1 0 0 0 0];

internalField   nonuniform List<vector> 
33733
(
(-1.254153e+45 6.5295004e+43 -6.2348199e+42)
(-1.0501797e+45 3.5257669e+43 1.9769716e+43)
(-1.289643e+45 3.8303481e+43 2.3593978e+43)
(-1.0275223e+45 4.4874554e+43 -3.4350976e+42)
(-1.0610955e+45 5.9977891e+43 -8.6155737e+42)
(-1.291522e+45 -9.4912506e+42 -1.0647393e+43)
(-9.4257357e+44 1.8704998e+43 -1.2148543e+43)
(-9.4327983e+44 2.8551862e+43 -6.1592769e+42)
(-1.0603509e+45 3.6652933e+43 -4.0021752e+42)
(-9.9503842e+44 3.3014453e+42 -1.8728476e+43)
(-1.0729667e+45 2.4485639e+43 2.4785902e+43)
(-1.0010522e+45 1.4786045e+43 2.2703978e+43)
(-1.034668e+45 3.6293869e+43 1.8531105e+43)
(-1.0450535e+45 4.6552833e+43 1.5216693e+43)
(-1.0149638e+45 1.4394156e+43 2.635171e+43)
(-9.884057e+44 -1.030776e+43 2.0469331e+43)
(-1.3141114e+45 -1.7428767e+43 7.2492751e+42)
(-9.5585496e+44 -1.1569777e+43 1.377781e+43)
(-1.0373932e+45 1.1394772e+43 1.6660659e+43)
(-1.0014782e+45 6.1745249e+42 2.2679006e+43)
(-9.7467582e+44 4.5699181e+42 1.5411053e+43)
(-9.8653769e+44 1.6799907e+43 -1.3612599e+42)
(-1.0264201e+45 2.5114008e+43 -9.1432817e+42)
(-9.6114542e+44 -5.4692002e+42 -1.1986189e+43)
(-9.8029443e+44 6.5656824e+42 -1.0403703e+43)
(-9.0590858e+44 -2.678872e+42 -3.8086551e+43)
(-1.0510978e+45 1.0441316e+43 -1.6022627e+43)
(-1.0340388e+45 1.535738e+43 -9.7350518e+42)
(-8.6645618e+44 6.9459497e+42 -9.0548759e+42)
(-9.0019744e+44 -2.0536655e+43 -2.3746217e+43)
(-9.7891593e+44 -1.702415e+43 -2.0201209e+43)
(-9.0022982e+44 -2.2523858e+42 -4.6941424e+42)
(-1.0287909e+45 4.6920702e+42 -1.7252813e+43)
(-1.070679e+45 1.8971495e+43 -1.5324031e+43)
(-1.0912116e+45 3.0627399e+43 -1.1320624e+43)
(-1.004911e+45 1.0982268e+43 -4.3957062e+43)
(-9.8806618e+44 2.311424e+41 -4.0200477e+43)
(-9.7572961e+44 1.4724432e+43 -1.8174259e+43)
(-9.6001286e+44 1.1059745e+42 -2.985539e+43)
(-9.0820498e+44 -2.1398703e+43 -3.5211013e+43)
(-1.0654905e+45 8.3427493e+42 -1.0224141e+43)
(-9.7192377e+44 -6.3347184e+42 -3.3220691e+43)
(-9.4382924e+44 -1.4853553e+43 -4.0353735e+43)
(-1.0973551e+45 5.7302019e+43 2.8455487e+43)
(-1.0204395e+45 9.5498186e+42 2.931693e+43)
(-9.7721043e+44 -1.149933e+43 2.6311981e+43)
(-9.7302442e+44 -2.9196968e+43 3.6635982e+43)
(-1.0166235e+45 5.3210038e+41 3.1603185e+43)
(-9.7659504e+44 8.4529515e+42 2.5408608e+43)
(-9.8487178e+44 2.7744589e+43 9.2432294e+42)
(-9.9549088e+44 1.5436733e+43 3.6977518e+43)
(-1.02562e+45 -8.8367393e+42 2.3603062e+43)
(-9.444062e+44 -2.2547118e+43 9.4483982e+42)
(-1.0594045e+45 -9.9205623e+42 9.0479628e+42)
(-9.9729337e+44 -3.53393e+43 3.3443303e+43)
(-9.2089326e+44 -4.1578727e+43 3.0373468e+43)
(-9.2738726e+44 -3.0753714e+43 1.184821e+43)
(-9.1687013e+44 -2.6971593e+43 1.7299155e+43)
(-1.0564003e+45 -3.098157e+42 1.0457551e+43)
(-1.0204492e+45 -3.8692995e+43 1.2711633e+43)
(-9.2166144e+44 -5.5370404e+43 1.0597295e+43)
(-9.8610233e+44 -4.7648415e+43 3.1248675e+42)
(-9.0232284e+44 -6.2409765e+43 3.9896042e+42)
(-9.8624131e+44 -3.8342563e+43 1.7709882e+43)
(-1.0112647e+45 -8.0909663e+42 2.0980389e+43)
(-9.85549e+44 -8.5208547e+42 8.9198705e+42)
(-9.6541813e+44 -3.769298e+43 1.9788797e+42)
(-9.4989238e+44 1.2562709e+43 3.5231552e+43)
(-9.3800205e+44 -6.3231315e+42 3.8592747e+43)
(-8.8115619e+44 -1.1214343e+43 2.7092276e+43)
(-8.9364788e+44 1.1080084e+43 2.8315589e+43)
(-8.5582504e+44 -3.3049407e+42 1.603599e+43)
(-8.7305834e+44 1.6375493e+43 2.6716635e+43)
(-8.5209025e+44 2.3413118e+41 2.3248018e+43)
(-8.8624507e+44 -3.1815919e+42 4.3387606e+41)
(-9.4145426e+44 2.0393534e+41 -1.0875541e+43)
(-8.9588639e+44 1.0266479e+43 7.1730994e+42)
(-9.4816948e+44 7.1045467e+42 -6.8305661e+42)
(-9.0360665e+44 -7.6236293e+42 -7.6783851e+42)
(-8.9773008e+44 -2.2004165e+43 -1.633093e+43)
(-9.4900326e+44 -1.247346e+43 -2.0979781e+43)
(-9.5680894e+44 -1.8644435e+42 -1.5976853e+43)
(-1.1099365e+45 -5.2091251e+43 -6.9735262e+43)
(-9.2406819e+44 -3.1914547e+43 -5.6050826e+43)
(-8.7715998e+44 2.791168e+43 -3.9829239e+43)
(-9.7302597e+44 2.3015121e+42 -2.0029509e+43)
(-9.8218281e+44 -2.7624616e+42 -1.6535983e+43)
(-8.4424675e+44 1.9139398e+43 1.2992673e+43)
(-9.0325378e+44 -4.8963557e+43 -3.6578837e+43)
(-9.2816752e+44 -2.3680205e+43 -1.9054436e+43)
(-9.3549052e+44 -4.0225309e+43 -3.3364853e+43)
(-9.9568997e+44 -9.6815559e+42 -2.1062836e+43)
(-9.1136843e+44 -4.0608317e+43 -3.1410037e+43)
(-9.1474834e+44 -2.9377168e+43 -2.4217449e+43)
(-9.538835e+44 -2.138019e+43 -2.4979472e+43)
(-9.700035e+44 -1.3706216e+43 -2.4743472e+43)
(-1.1196345e+45 3.7283187e+43 -1.8328919e+43)
(-9.9385572e+44 1.7637818e+43 -4.6486032e+43)
(-1.0013479e+45 2.6043989e+43 -3.9534715e+43)
(-9.968398e+44 1.823477e+43 -4.4352369e+43)
(-1.1083533e+45 1.9932932e+43 -2.145532e+43)
(-1.0244869e+45 2.3046515e+43 -5.4437009e+43)
(-1.0176746e+45 1.1138088e+43 -5.3894623e+43)
(-9.8591708e+44 7.9470392e+42 -3.9098249e+43)
(-9.6879234e+44 6.9512068e+42 -3.7722659e+43)
(-9.5798365e+44 -2.0402177e+42 -5.6485415e+43)
(-9.4464818e+44 -1.3327694e+42 -5.2826242e+43)
(-1.0003729e+45 1.7796667e+43 -4.0231833e+43)
(-9.8666459e+44 8.0657031e+42 -3.9542688e+43)
(-9.7404604e+44 1.0834741e+43 -5.8469858e+43)
(-9.6738981e+44 1.5899329e+42 -5.3283678e+43)
(-1.1105011e+45 2.1957781e+43 -1.9429697e+43)
(-9.9854059e+44 1.2250655e+43 -5.5076651e+43)
(-9.0743417e+44 5.3490585e+42 -8.0775895e+43)
(-9.2288401e+44 -9.4655123e+42 -7.154509e+43)
(-9.9938224e+44 1.0860528e+42 -4.5041507e+43)
(-9.8486914e+44 -2.7760744e+42 -5.1905939e+43)
(-9.0273842e+44 -1.2538914e+43 -7.7395615e+43)
(-8.8659404e+44 -1.8930035e+43 -6.8749438e+43)
(-1.0777565e+45 8.25164e+42 -1.8263074e+43)
(-9.6420437e+44 -3.8372948e+42 -5.3128437e+43)
(-9.7548846e+44 2.3816751e+43 -8.0566868e+43)
(-9.6259012e+44 1.3412116e+43 -7.0933264e+43)
(-8.6942243e+44 -2.7411954e+42 -2.1317245e+43)
(-8.7603096e+44 2.2808029e+42 -1.1167074e+43)
(-8.826923e+44 -7.4020853e+42 -2.7549004e+43)
(-8.839795e+44 -1.1479411e+43 -3.7908349e+43)
(-9.3138549e+44 -1.8855968e+43 -4.7625061e+43)
(-8.9841416e+44 -3.3902958e+43 -5.6246354e+43)
(-9.6926591e+44 -5.6959442e+42 -1.5742421e+43)
(-8.9176177e+44 -2.7469479e+43 1.6973806e+42)
(-9.0109204e+44 -2.0879706e+43 -5.3104778e+43)
(-8.9994433e+44 -1.503618e+43 -4.4729724e+43)
(-1.0475076e+45 1.1351791e+43 3.3218055e+43)
(-1.0810697e+45 3.6884434e+43 3.6760092e+43)
(-1.1077549e+45 4.1914071e+43 7.9898996e+42)
(-9.7088251e+44 -3.4068727e+42 3.2482947e+43)
(-9.4589878e+44 -2.1197639e+43 3.8201959e+43)
(-9.6146965e+44 -3.2995512e+43 6.2288737e+43)
(-9.7578124e+44 -1.1897444e+43 5.186817e+43)
(-9.7275898e+44 2.4065669e+42 3.4152697e+43)
(-9.9710773e+44 1.8776327e+43 5.2805263e+42)
(-9.8434744e+44 1.3713897e+43 4.422825e+43)
(-8.6228416e+44 -1.1155284e+43 4.9295394e+43)
(-8.6471386e+44 6.5952952e+42 3.7244198e+43)
(-9.5665206e+44 -2.7908549e+43 3.9293081e+43)
(-8.999253e+44 -4.5701703e+43 3.0311785e+43)
(-1.0061041e+45 -3.0506368e+43 2.3861817e+43)
(-8.6534205e+44 -1.0266923e+43 -2.4918491e+43)
(-9.0037649e+44 -1.2442312e+43 2.3150321e+43)
(-1.0004157e+45 -3.6018184e+43 2.1528079e+43)
(-9.3906945e+44 -4.766714e+43 6.5122151e+43)
(-9.2430704e+44 -4.7982955e+43 4.7257887e+43)
(-9.5611795e+44 -5.3887629e+43 1.6485165e+43)
(-1.0833876e+45 -6.5567084e+43 1.6108643e+43)
(-9.0773817e+44 -5.6059067e+43 2.841916e+43)
(-9.8300734e+44 -3.0842879e+43 -4.4010531e+41)
(-8.6947352e+44 -1.4232993e+42 1.2286962e+41)
(-8.5960871e+44 2.8116628e+42 2.2037956e+43)
(-9.7038892e+44 -2.4333117e+43 1.0128553e+43)
(-9.7314155e+44 -5.4705089e+43 3.8902908e+43)
(-9.5339274e+44 -6.8443907e+43 2.7542233e+43)
(-9.1333145e+44 -8.4261032e+43 3.4946732e+43)
(-9.2908929e+44 -6.9169234e+43 3.193749e+43)
(-9.9111749e+44 -5.0710742e+43 2.002834e+43)
(-9.2920735e+44 -5.787842e+43 2.2070336e+42)
(-9.4304164e+44 -7.1833286e+43 3.6080175e+43)
(-9.0046152e+44 -7.9549537e+43 3.1396929e+43)
(-9.0994315e+44 -9.0102021e+43 -1.4166703e+43)
(-8.9753191e+44 -7.255775e+43 -2.3361658e+43)
(-9.2159902e+44 -6.904517e+43 -1.4874776e+43)
(-9.061703e+44 -5.1598702e+43 -1.7828761e+43)
(-9.0543349e+44 -8.7531711e+43 -7.4249584e+42)
(-9.4835246e+44 -7.1939146e+43 -1.1237252e+43)
(-8.9477044e+44 -9.4816128e+43 -1.4559021e+43)
(-9.2937045e+44 -7.1342984e+43 -1.928503e+43)
(-9.4837313e+44 -5.4075018e+43 4.2148181e+43)
(-9.5737397e+44 -3.7777473e+43 4.4185681e+43)
(-9.1388644e+44 -4.8638061e+43 2.762156e+43)
(-9.0824406e+44 -6.8482213e+43 3.069115e+43)
(-9.4827613e+44 -1.683533e+43 3.9718627e+43)
(-9.4142365e+44 -3.1773399e+43 4.2978931e+43)
(-8.9116663e+44 -4.3755167e+43 2.660403e+43)
(-8.979761e+44 -2.1070405e+43 2.595029e+43)
(-8.7846756e+44 -8.272328e+42 8.329962e+42)
(-8.6815696e+44 -3.400775e+43 -1.5688803e+42)
(-8.7236456e+44 -2.1107734e+42 1.3690442e+43)
(-8.606135e+44 -2.0685428e+43 4.8888383e+42)
(-8.940646e+44 -4.1690864e+43 -6.4563099e+42)
(-8.8446861e+44 -2.5913366e+43 -4.1132491e+42)
(-8.9403713e+44 -6.4387725e+43 -1.3644448e+43)
(-8.7968982e+44 -4.5136676e+43 -1.3577783e+43)
(-7.9230722e+44 -2.0870032e+43 4.1333921e+43)
(-8.0116381e+44 -9.4821166e+42 4.1065993e+43)
(-7.4360846e+44 -3.3019674e+42 3.8466955e+43)
(-7.2642781e+44 -2.1446351e+43 3.7324926e+43)
(-7.2194648e+44 3.9149073e+42 4.1898518e+43)
(-8.0143656e+44 1.0704164e+43 4.0401633e+43)
(-7.8564663e+44 -7.810867e+41 4.1640761e+43)
(-7.4119488e+44 1.9307912e+43 4.434568e+43)
(-6.9591816e+44 -7.7358812e+42 2.7278298e+43)
(-7.1940322e+44 5.8896481e+42 3.2499113e+43)
(-7.1086157e+44 4.2967263e+42 2.6109589e+43)
(-7.2823384e+44 1.0822189e+43 3.2019364e+43)
(-7.0967663e+44 1.1452261e+43 4.0346041e+43)
(-6.9956631e+44 9.407634e+42 4.0100206e+43)
(-7.2363916e+44 1.9802254e+43 4.5029877e+43)
(-7.3016489e+44 1.856789e+43 4.4760405e+43)
(-7.145173e+44 1.1689567e+43 4.6393434e+43)
(-7.1829068e+44 7.5150123e+42 3.7031189e+43)
(-7.1491243e+44 -5.8721288e+42 3.7737754e+43)
(-7.2053785e+44 -2.6938063e+42 4.2752823e+43)
(-7.3290393e+44 1.1539575e+43 3.9949447e+43)
(-7.8420533e+44 -9.7828846e+42 2.5925049e+42)
(-7.9189232e+44 -4.8432272e+42 6.8220694e+42)
(-8.2500636e+44 -1.583323e+42 -4.9974713e+42)
(-8.1830333e+44 -6.3378042e+42 -8.1346454e+42)
(-8.1913694e+44 5.7046713e+41 -8.520234e+39)
(-7.857625e+44 -9.1210149e+41 1.445661e+43)
(-7.7749711e+44 -4.4640863e+42 1.2293123e+43)
(-8.0996916e+44 -1.3249156e+42 -2.013461e+42)
(-7.9164532e+44 -1.5960973e+43 -6.8758318e+42)
(-7.978332e+44 -1.0454609e+43 -2.8323368e+42)
(-8.2343556e+44 -1.1617452e+43 -1.4095351e+43)
(-8.3166335e+44 -7.0765104e+42 -1.1065864e+43)
(-8.0514956e+44 -2.2903226e+43 -1.7477952e+43)
(-8.3813381e+44 -1.6801567e+43 -2.0444175e+43)
(-8.3909967e+44 -1.3396704e+43 -1.8286429e+43)
(-8.0799012e+44 -1.8258709e+43 -1.2534742e+43)
(-1.062954e+45 1.0852356e+43 -8.5555487e+43)
(-9.1280077e+44 2.3936388e+43 -8.0057471e+43)
(-8.8349304e+44 -3.7325132e+43 -4.6681217e+43)
(-9.0503206e+44 8.3749256e+42 -3.7100639e+43)
(-9.4612424e+44 -1.7152733e+43 -2.6334642e+43)
(-8.9253705e+44 5.2527358e+42 9.6333611e+42)
(-9.8341387e+44 -9.6811064e+42 -1.577978e+43)
(-8.6860257e+44 -4.1046545e+43 -5.6458365e+43)
(-8.788369e+44 -3.3798138e+43 -4.8547183e+43)
(-9.2354981e+44 -1.5451577e+43 -1.9422789e+43)
(-8.9672686e+44 -2.911583e+43 -2.5142606e+43)
(-8.5834323e+44 -3.7835018e+43 -4.8454171e+43)
(-8.5981408e+44 -3.284984e+43 -4.1680249e+43)
(-8.9549585e+44 -2.3846469e+43 -2.8250786e+43)
(-8.8773619e+44 -3.1629529e+43 -2.8611138e+43)
(-8.4385332e+44 -3.1440009e+43 -3.7061011e+43)
(-8.4006782e+44 -3.0329454e+43 -3.3174773e+43)
(-8.7294176e+44 -2.1912286e+43 -2.7795003e+43)
(-8.7381954e+44 -2.7821574e+43 -2.9089516e+43)
(-8.2133133e+44 -2.5108522e+43 -2.3763397e+43)
(-8.2304527e+44 -2.7289701e+43 -2.7693712e+43)
(-8.5264497e+44 -2.2423218e+43 -2.5824885e+43)
(-8.5330883e+44 -1.8648232e+43 -2.3949909e+43)
(-1.015974e+45 2.533712e+43 -4.1564087e+43)
(-9.917709e+44 2.0832588e+43 -5.7222377e+43)
(-9.8344633e+44 1.2259776e+43 -6.2415974e+43)
(-9.9970584e+44 1.5821558e+43 -4.8625931e+43)
(-8.693814e+44 1.6295129e+43 -4.5218278e+43)
(-8.7421042e+44 1.3260134e+43 -4.4064933e+43)
(-8.7893256e+44 1.6029838e+43 -3.749099e+43)
(-8.7259563e+44 1.6605807e+43 -3.9038542e+43)
(-8.8246494e+44 1.882914e+43 -3.6159073e+43)
(-8.8062886e+44 1.7195876e+43 -4.1784531e+43)
(-8.8669389e+44 2.1567951e+43 -3.0221598e+43)
(-8.8678079e+44 1.7919256e+43 -3.41716e+43)
(-8.7344376e+44 1.5005591e+43 -4.325452e+43)
(-8.7647064e+44 1.3547204e+43 -3.9146648e+43)
(-8.8346567e+44 1.7105499e+43 -3.2342946e+43)
(-1.0141208e+45 1.7980996e+43 -4.5052819e+43)
(-8.6783594e+44 1.5865007e+43 -4.2299223e+43)
(-8.7149011e+44 1.2008181e+43 -4.1015489e+43)
(-9.9852401e+44 1.4546422e+43 -4.7482196e+43)
(-9.7935124e+44 1.0437581e+43 -6.2472858e+43)
(-9.8368176e+44 1.3096651e+43 -6.3200184e+43)
(-1.0236146e+45 2.3289213e+43 -4.8608162e+43)
(-9.2826082e+44 1.6360093e+43 -8.4764575e+43)
(-9.285053e+44 5.7011611e+42 -8.4016228e+43)
(-1.1348738e+45 3.2171838e+43 -2.7957868e+43)
(-1.0158404e+45 1.2235055e+43 -5.5111726e+43)
(-1.1203817e+45 1.2176244e+43 -2.7625473e+43)
(-1.0186039e+45 1.4933605e+43 -5.3828035e+43)
(-9.2746638e+44 8.5411417e+42 -8.6890248e+43)
(-9.2342572e+44 3.7605545e+42 -8.5337709e+43)
(-1.0085905e+45 9.0903483e+42 -5.6521139e+43)
(-9.8731868e+44 1.1487371e+43 -9.4586045e+43)
(-9.9478731e+44 3.0296442e+43 -9.8166751e+43)
(-8.7639408e+44 -3.216654e+41 -3.2172678e+43)
(-8.7235937e+44 2.2455064e+41 -3.3826987e+43)
(-8.7029683e+44 -2.7887765e+42 -4.1366157e+43)
(-8.6901273e+44 -4.1170649e+42 -4.1728002e+43)
(-8.6587505e+44 -2.4951678e+42 -2.513604e+43)
(-8.6494018e+44 -4.4451053e+42 -3.0408831e+43)
(-8.5956056e+44 -8.8538901e+42 -3.8241672e+43)
(-8.572811e+44 -5.0771784e+42 -3.4204857e+43)
(-8.8976825e+44 -6.1078076e+42 -5.1016026e+43)
(-8.8967445e+44 -9.9027128e+42 -5.1847746e+43)
(-8.8777562e+44 -5.408204e+42 -4.376351e+43)
(-8.9058168e+44 -3.4764805e+42 -4.2200534e+43)
(-8.7384346e+44 -9.4615129e+42 -4.7283571e+43)
(-8.7951649e+44 -1.6170394e+43 -5.0146275e+43)
(-8.7522256e+44 -1.1088151e+43 -4.2741952e+43)
(-8.7451175e+44 -6.0304807e+42 -3.7684095e+43)
(-8.8852781e+44 1.0272184e+43 -3.5100604e+43)
(-8.8596533e+44 1.1107611e+43 -3.5714376e+43)
(-7.6261914e+44 1.1458672e+43 -3.504136e+43)
(-8.8328877e+44 7.5002064e+42 -4.3760816e+43)
(-8.8313699e+44 9.3828631e+42 -4.4646189e+43)
(-8.7981456e+44 4.1456191e+42 -3.4082346e+43)
(-8.7807125e+44 4.8853119e+42 -3.2929579e+43)
(-8.7193338e+44 3.1578141e+42 -4.0274015e+43)
(-8.7412492e+44 6.400626e+41 -4.1505862e+43)
(-9.0213053e+44 2.4725798e+42 -5.5690876e+43)
(-9.031908e+44 8.7910997e+42 -5.4486164e+43)
(-9.0213524e+44 6.0840448e+42 -4.5800306e+43)
(-9.0316582e+44 9.1194378e+42 -4.5431473e+43)
(-8.858154e+44 -4.4646357e+41 -5.2926145e+43)
(-8.8908505e+44 -3.7211388e+42 -5.4102024e+43)
(-8.9410015e+44 -8.0413292e+40 -4.1408291e+43)
(-8.9177977e+44 1.8874124e+42 -4.0178244e+43)
(-8.9430563e+44 4.059052e+42 -3.9563493e+43)
(-1.0011735e+45 1.1312579e+43 -2.8733433e+43)
(-1.0020676e+45 5.3509481e+41 -2.892826e+43)
(-8.8438259e+44 4.5458578e+41 -3.6218474e+43)
(-9.1618617e+44 8.0923357e+42 -7.1893815e+43)
(-9.1609703e+44 -7.4901957e+41 -7.445654e+43)
(-9.2251698e+44 1.970629e+42 -5.8955779e+43)
(-9.260525e+44 1.0906421e+43 -5.5115323e+43)
(-8.929391e+44 -1.849526e+42 -9.5327242e+43)
(-8.9275771e+44 1.1042215e+42 -9.1328702e+43)
(-9.4933891e+44 1.9844204e+42 -6.8306169e+43)
(-9.5103241e+44 1.0233955e+43 -6.361452e+43)
(-9.0198744e+44 -1.0388714e+43 -8.8596029e+43)
(-9.4350553e+44 -3.7878683e+42 -5.2702103e+43)
(-8.9834993e+44 -8.8842599e+42 -8.7977585e+43)
(-9.3991068e+44 -5.5720342e+42 -5.1422209e+43)
(-9.1259173e+44 -3.1102558e+42 -5.3587242e+43)
(-9.0621914e+44 -4.6953024e+42 -6.5181615e+43)
(-9.091138e+44 -1.6391782e+42 -5.242716e+43)
(-9.0329563e+44 -5.1200542e+42 -6.3119972e+43)
(-9.0530774e+44 -1.2636269e+43 -6.7751264e+43)
(-9.0912678e+44 -1.7752937e+43 -6.7622741e+43)
(-9.1151553e+44 -6.5889632e+42 -5.2715404e+43)
(-9.1045474e+44 -1.1895911e+43 -5.4201709e+43)
(-8.9361572e+44 -1.9767344e+43 -8.6329009e+43)
(-8.9660151e+44 -2.1736251e+43 -9.0414206e+43)
(-9.4298196e+44 -1.6675711e+43 -6.1751468e+43)
(-9.3994701e+44 -1.0589624e+43 -5.9999769e+43)
(-9.8669172e+44 -1.1903479e+42 -2.9702119e+43)
(-8.7582409e+44 -2.5473701e+43 -8.2587278e+43)
(-8.8735343e+44 -3.2275848e+43 -8.4990239e+43)
(-9.2834973e+44 -2.2655264e+43 -6.2181256e+43)
(-9.1909692e+44 -1.1376518e+43 -6.1833748e+43)
(-9.5636472e+44 2.129037e+42 -2.7549738e+43)
(-8.5893156e+44 1.1590841e+43 -1.7073788e+43)
(-8.7688406e+44 3.0275641e+41 -2.7526968e+43)
(-8.8840374e+44 -1.4707583e+43 -6.4765062e+43)
(-8.958751e+44 -2.4318308e+43 -6.8271854e+43)
(-8.9310784e+44 -9.2816797e+42 -5.2833293e+43)
(-8.976465e+44 -1.8463278e+43 -5.6393182e+43)
(-9.357405e+44 2.0801638e+42 -8.3935687e+43)
(-7.7414803e+44 -1.0139911e+43 -1.9596636e+43)
(-7.7976442e+44 -7.9118083e+42 -1.5849739e+43)
(-7.6953329e+44 -5.7600259e+42 -1.3451011e+43)
(-7.7444428e+44 -6.7604691e+42 -1.0975659e+43)
(-7.8577476e+44 -1.1368156e+43 -2.102717e+43)
(-7.8077158e+44 -1.4703547e+43 -2.7199848e+43)
(-7.9446137e+44 -1.7843974e+43 -3.2316699e+43)
(-7.9667718e+44 -1.6399106e+43 -3.4025616e+43)
(-8.4891857e+44 -2.7687145e+43 -4.5781166e+43)
(-8.5232017e+44 -3.3680565e+43 -4.8633264e+43)
(-9.384504e+44 -1.7247825e+43 -2.8565772e+43)
(-8.6964649e+44 -2.8897978e+43 -4.4470338e+43)
(-8.6175907e+44 -3.9424013e+43 -4.9130917e+43)
(-9.0302561e+44 -3.145653e+43 9.8194037e+41)
(-8.3352929e+44 -2.7222055e+43 -4.5449015e+43)
(-8.2970976e+44 -2.38713e+43 -4.4132341e+43)
(-8.1475896e+44 -1.9851685e+43 -3.9289592e+43)
(-8.0984184e+44 -1.9494005e+43 -3.7625071e+43)
(-9.8353765e+44 -1.768091e+43 3.7530581e+43)
(-1.0035681e+45 -1.3557619e+43 1.0709404e+43)
(-1.0605035e+45 7.358276e+42 2.5089502e+43)
(-1.0137331e+45 -2.0479634e+42 5.4426528e+43)
(-1.0531377e+45 1.478192e+42 2.9316206e+43)
(-1.0866545e+45 1.9412959e+43 2.7488848e+43)
(-1.1129217e+45 4.0095706e+43 -3.1254702e+42)
(-1.0010249e+45 2.0562122e+43 6.9074206e+42)
(-9.8441092e+44 5.73853e+42 3.7901325e+43)
(-9.7297618e+44 -5.9731235e+42 4.6786647e+43)
(-9.3002924e+44 -1.9680554e+43 5.8533727e+43)
(-8.812453e+44 -5.4994673e+43 6.8861664e+43)
(-9.5356575e+44 -3.230145e+43 8.8966228e+43)
(-8.8687736e+44 -6.5623342e+43 7.3177413e+43)
(-9.644719e+44 -1.3054055e+43 7.12315e+43)
(-8.7190084e+44 -4.27536e+43 6.5139541e+43)
(-8.7380463e+44 -2.6429867e+43 5.3415448e+43)
(-1.0085032e+45 3.9542874e+43 8.554202e+41)
(-8.6029537e+44 -1.8807805e+42 6.3006179e+43)
(-1.0043577e+45 1.9133271e+43 3.9918072e+43)
(-8.5165434e+44 -6.7106044e+42 6.5993448e+43)
(-8.5753527e+44 1.2802462e+43 4.52399e+43)
(-8.6105358e+44 1.2913844e+43 4.0378918e+43)
(-7.2024246e+44 -3.956951e+42 4.3559411e+43)
(-7.1757165e+44 -1.6352389e+43 4.797166e+43)
(-7.0619375e+44 1.2097352e+43 4.3224e+43)
(-7.1568111e+44 2.3265312e+43 3.7619744e+43)
(-9.4453479e+44 -2.0887877e+43 5.8045935e+43)
(-8.5539914e+44 -4.30607e+43 4.982441e+43)
(-9.5509399e+44 -4.126657e+43 2.9372968e+43)
(-8.9702119e+44 -6.019598e+43 -1.8019784e+43)
(-9.7347831e+44 -4.6571873e+43 2.2139935e+43)
(-9.6475112e+44 -3.2186274e+43 1.2042428e+43)
(-9.3069122e+44 -4.4832424e+43 9.7967601e+43)
(-8.9628295e+44 -7.7484295e+43 6.3420151e+43)
(-8.9415671e+44 -7.4203371e+43 7.5580907e+43)
(-9.0376397e+44 -4.8197054e+43 7.624151e+43)
(-9.1428432e+44 -7.1589678e+43 4.7532385e+43)
(-8.7478658e+44 -7.699902e+43 3.7900065e+43)
(-9.452616e+44 -3.1640688e+42 3.2679872e+43)
(-1.0277691e+45 -1.2114194e+42 2.5346078e+43)
(-8.6149826e+44 1.2001334e+43 3.4802938e+43)
(-8.7359905e+44 -6.6155363e+43 -1.5277668e+43)
(-8.4806897e+44 -6.8815862e+43 2.6612634e+43)
(-8.9076123e+44 -2.3441329e+43 -4.2658989e+43)
(-9.7542516e+44 -4.845312e+43 9.6442674e+42)
(-9.4982154e+44 -5.9002037e+43 1.6523357e+43)
(-9.0176743e+44 -2.6121653e+43 1.4531938e+43)
(-8.8679135e+44 -2.1177311e+43 -9.4482895e+42)
(-9.5445695e+44 -4.9712179e+43 -1.215778e+43)
(-9.375678e+44 -6.0069883e+43 -2.2909492e+42)
(-8.7705984e+44 -2.5750172e+43 1.3256466e+43)
(-8.3941061e+44 -9.2519599e+43 5.3479612e+43)
(-8.3529654e+44 -9.6757563e+43 5.520393e+43)
(-8.2380542e+44 -1.0455266e+44 5.7584582e+43)
(-8.3975591e+44 -9.7292474e+43 5.8975409e+43)
(-8.4203765e+44 -8.2607037e+43 5.1523107e+43)
(-8.2658488e+44 -9.7751529e+43 5.3807472e+43)
(-8.1230427e+44 -1.0680016e+44 5.5053706e+43)
(-8.2086357e+44 -9.1828567e+43 4.8309077e+43)
(-8.1785906e+44 -1.1250253e+44 7.9146433e+43)
(-8.3811879e+44 -8.9321618e+43 6.2214887e+43)
(-8.4583558e+44 -1.0872954e+44 1.4699826e+43)
(-8.3966545e+44 -9.325115e+43 8.7031225e+42)
(-7.9956622e+44 -9.3975747e+43 -2.2448898e+43)
(-8.0728276e+44 -1.1296838e+44 -1.2666588e+43)
(-7.9082337e+44 -6.3722915e+43 -5.5754313e+43)
(-8.0768422e+44 -4.0609867e+43 -2.498795e+43)
(-7.9894287e+44 -8.5601011e+43 -6.5157236e+43)
(-8.0928806e+44 -5.5567898e+43 -2.9612501e+43)
(-8.0977152e+44 -1.0420743e+44 6.1113652e+42)
(-8.0623133e+44 -8.7731782e+43 3.3718782e+42)
(-7.7438299e+44 -6.6405311e+43 -3.0133487e+43)
(-7.693395e+44 -9.2992429e+43 -2.8543852e+43)
(-7.6245892e+44 -5.7492721e+43 -5.0279147e+43)
(-7.6689697e+44 -3.7367833e+43 -3.7655949e+43)
(-7.8388388e+44 -2.9020768e+43 -1.5378152e+43)
(-7.8118227e+44 -3.9677519e+43 -2.0343975e+43)
(-8.9871826e+44 -8.0491401e+43 -1.3649484e+42)
(-8.7919593e+44 -8.0525119e+43 -1.5772028e+43)
(-8.5576442e+44 -9.9993705e+43 2.2748464e+43)
(-8.694872e+44 -9.6146669e+43 1.105905e+43)
(-8.7659601e+44 -9.4714775e+43 1.0771649e+43)
(-8.6531168e+44 -1.0412342e+44 3.8146815e+42)
(-8.3488982e+44 -1.2021378e+44 6.6871317e+42)
(-8.3425075e+44 -1.078176e+44 -4.2270445e+42)
(-8.3939785e+44 -1.121122e+44 -6.4843677e+43)
(-8.5634179e+44 -1.0746996e+44 -6.4727353e+43)
(-8.4736117e+44 -7.9567069e+43 -1.837009e+43)
(-8.6123197e+44 -6.8331537e+43 -2.9694835e+43)
(-8.277162e+44 -1.1745472e+44 -6.8191065e+43)
(-8.2675708e+44 -8.8975371e+43 -6.6566388e+43)
(-8.366455e+44 -5.3799539e+43 -3.2523266e+43)
(-8.3355777e+44 -7.4355574e+43 -3.5079958e+43)
(-8.1641661e+44 -7.093701e+43 4.8375703e+43)
(-7.8263043e+44 -6.0746676e+43 3.0989683e+43)
(-8.2539273e+44 -5.8039248e+43 4.7134555e+43)
(-7.8146615e+44 -8.0594945e+43 3.6897952e+43)
(-8.313748e+44 -7.4080292e+43 5.0202098e+43)
(-8.0126648e+44 -8.4939344e+43 4.1101271e+43)
(-8.2796681e+44 -8.2658302e+43 5.0576842e+43)
(-8.0405813e+44 -9.1686362e+43 4.4525582e+43)
(-8.1014723e+44 -5.470359e+43 4.6917563e+43)
(-8.1489496e+44 -4.4679368e+43 4.554262e+43)
(-7.602005e+44 -5.9313098e+43 3.1087026e+43)
(-7.6387606e+44 -4.4976075e+43 3.0297078e+43)
(-7.9856528e+44 -3.8335692e+43 4.4803824e+43)
(-8.0657666e+44 -2.7771372e+43 4.0943743e+43)
(-7.4605847e+44 -2.4286423e+43 3.2165064e+43)
(-7.4436338e+44 -3.9852704e+43 3.0704469e+43)
(-7.0692869e+44 -2.6123605e+43 1.0599322e+43)
(-7.1421183e+44 -9.5633511e+42 1.9898649e+43)
(-7.2874812e+44 4.3076357e+42 1.8391836e+43)
(-7.0862921e+44 -6.6225348e+42 9.7029118e+42)
(-7.2401946e+44 -4.7374471e+43 6.3576677e+41)
(-7.293728e+44 -3.186495e+43 5.2562528e+42)
(-7.2940616e+44 -1.0646269e+43 1.8353511e+42)
(-7.1489464e+44 -2.0581348e+43 -6.6540655e+42)
(-7.3572867e+44 8.6273626e+42 3.0585013e+43)
(-7.175906e+44 1.9357147e+42 2.4807949e+43)
(-7.3062852e+44 -4.0147641e+42 2.967795e+43)
(-7.1797068e+44 -1.1186257e+43 2.5825082e+43)
(-7.3717935e+44 -1.0704154e+41 1.6906585e+43)
(-7.2389827e+44 -5.7552454e+42 9.3807427e+42)
(-7.3658583e+44 -1.1655706e+43 1.9164713e+43)
(-7.2883368e+44 -1.7686717e+43 1.4262501e+43)
(-7.4891791e+44 -6.783859e+43 -3.9191367e+41)
(-7.2558419e+44 -3.9299401e+43 -2.2116986e+43)
(-7.4557819e+44 -5.1534646e+43 -7.3213798e+41)
(-7.3548975e+44 -2.447828e+43 -1.3669155e+43)
(-7.2806401e+44 -1.7383522e+43 -9.4867679e+42)
(-7.4095294e+44 -2.4552955e+43 2.5503102e+42)
(-7.4686402e+44 -1.6738431e+43 7.5208578e+42)
(-7.4217413e+44 -7.3063511e+42 9.3889342e+41)
(-7.7580312e+44 -8.9418181e+43 1.8034766e+42)
(-7.740358e+44 -7.2991782e+43 2.7274833e+40)
(-7.4436994e+44 -6.1240008e+43 -2.9585816e+43)
(-7.5060079e+44 -4.5632606e+43 -2.5938184e+43)
(-7.4918715e+44 -2.2836945e+43 -1.8388708e+43)
(-7.4329029e+44 -3.2552922e+43 -2.9070913e+43)
(-7.6237288e+44 -2.5225891e+43 -3.9632623e+42)
(-7.6007895e+44 -3.0008038e+43 -9.1724531e+42)
(-6.105234e+44 4.9347513e+42 5.0101832e+43)
(-6.4793034e+44 -1.4963237e+42 5.3078747e+43)
(-6.3149596e+44 -1.0676133e+43 5.3293632e+43)
(-5.8658332e+44 -2.4746092e+42 4.8375251e+43)
(-6.4417087e+44 -1.7155385e+43 5.1532971e+43)
(-6.314101e+44 -2.3243605e+43 5.0428308e+43)
(-5.8588838e+44 -2.202248e+43 5.2547412e+43)
(-6.7016982e+44 -7.7111435e+42 3.6534611e+43)
(-5.9603371e+44 3.0219655e+42 5.4733426e+43)
(-6.3638815e+44 4.1309233e+42 5.7945865e+43)
(-6.4501684e+44 1.0891957e+43 5.9492309e+43)
(-6.1087576e+44 7.086136e+42 5.7543706e+43)
(-6.3197134e+44 1.8408459e+43 6.4160195e+43)
(-6.4742324e+44 2.4744986e+43 6.2939072e+43)
(-6.1698506e+44 1.546879e+43 6.3667813e+43)
(-5.9735395e+44 8.4516938e+42 6.2555151e+43)
(-5.7700251e+44 -1.5532211e+43 4.2096641e+43)
(-5.3429198e+44 -2.0998724e+43 5.1006694e+43)
(-5.7396556e+44 -8.0456297e+42 3.7983438e+43)
(-5.9621757e+44 -3.8812878e+42 3.7905471e+43)
(-6.0985989e+44 5.6579339e+42 4.6665084e+43)
(-6.015452e+44 -6.8485852e+41 4.6936586e+43)
(-5.8939346e+44 -7.5817348e+41 4.4050508e+43)
(-5.7589884e+44 -9.2958654e+42 4.8221281e+43)
(-6.1422179e+44 9.7961349e+42 4.1789007e+43)
(-6.274346e+44 1.1571989e+43 4.2485342e+43)
(-6.3031645e+44 1.2195446e+43 4.3168442e+43)
(-6.2112232e+44 1.1383088e+43 4.2267463e+43)
(-6.3242279e+44 1.5248258e+43 4.8024694e+43)
(-6.3303978e+44 1.6371162e+43 4.9824065e+43)
(-6.1913614e+44 1.3012967e+43 4.7255249e+43)
(-6.1666817e+44 1.3587817e+43 4.8570558e+43)
(-6.2305137e+44 1.653847e+43 5.5118731e+43)
(-6.3386884e+44 1.7697921e+43 5.6583027e+43)
(-6.3218735e+44 1.5175618e+43 5.4665097e+43)
(-6.2298889e+44 1.4274894e+43 5.2802656e+43)
(-6.0155088e+44 5.945106e+42 5.2638161e+43)
(-5.916396e+44 1.3697977e+42 5.1611799e+43)
(-6.0884069e+44 8.0462422e+42 5.3573906e+43)
(-6.1473525e+44 9.8490902e+42 5.5657084e+43)
(-6.0459872e+44 1.1775563e+43 6.0772317e+43)
(-5.9821046e+44 1.2076553e+43 5.9087817e+43)
(-6.1940595e+44 1.9035725e+43 5.9809278e+43)
(-6.2220167e+44 1.7214538e+43 6.1667872e+43)
(-6.3778511e+44 2.2311857e+43 6.1943103e+43)
(-6.2210874e+44 1.952462e+43 6.1830438e+43)
(-6.2121673e+44 1.5899668e+43 5.8621938e+43)
(-6.3512232e+44 1.8984529e+43 5.8994225e+43)
(-6.3257203e+44 1.7890588e+43 5.6885313e+43)
(-6.4182837e+44 1.8019142e+43 5.7462179e+43)
(-6.3918797e+44 1.4700594e+43 5.1679608e+43)
(-6.2961695e+44 1.4136193e+43 4.965306e+43)
(-6.3138349e+44 1.6552932e+43 4.8591703e+43)
(-6.4090064e+44 1.6361275e+43 4.8897065e+43)
(-6.3785199e+44 1.4692269e+43 4.2501602e+43)
(-6.2936851e+44 1.4274119e+43 4.20199e+43)
(-6.2307755e+44 1.6083585e+43 4.8126266e+43)
(-6.3134257e+44 1.7123113e+43 4.9728045e+43)
(-5.9857866e+44 -3.2863448e+43 3.8768944e+43)
(-5.9272295e+44 -3.4463929e+43 3.5538429e+43)
(-6.1618443e+44 -1.5864755e+43 3.9277635e+43)
(-6.277863e+44 1.8920944e+43 5.2928405e+43)
(-5.8441122e+44 -3.6982878e+43 3.7641017e+43)
(-6.1721677e+44 1.9786738e+43 5.2176813e+43)
(-6.3882754e+44 1.589689e+43 4.6096759e+43)
(-6.4234909e+44 1.8294801e+43 5.3217709e+43)
(-6.2517942e+44 1.479396e+43 4.3730877e+43)
(-6.2924408e+44 1.7250487e+43 5.2253064e+43)
(-6.502393e+44 -2.1288819e+43 2.5634824e+42)
(-6.4087905e+44 -2.1115793e+43 6.7212869e+42)
(-6.2728421e+44 -2.0528653e+43 1.4028559e+43)
(-6.3420832e+44 -2.1348638e+43 9.8303778e+42)
(-5.4599774e+44 -4.1998011e+43 1.1548962e+43)
(-5.5102855e+44 -4.1537384e+43 9.3039323e+42)
(-5.717281e+44 -2.3623725e+43 3.0421594e+43)
(-6.7323422e+44 -2.0543328e+43 -5.4091914e+42)
(-6.5902689e+44 -1.9044263e+43 8.2515029e+41)
(-7.0098168e+44 -1.9383653e+43 -1.1847855e+43)
(-6.8519335e+44 -2.1133839e+43 -8.503695e+42)
(-1.0749709e+45 1.8318235e+43 -9.6338586e+43)
(-8.5503819e+44 -2.3707588e+43 -7.4960697e+43)
(-8.2442332e+44 1.7616489e+43 -7.1869825e+43)
(-8.7738969e+44 -3.890635e+43 -5.1307461e+43)
(-8.8867549e+44 -5.8702368e+42 -5.2462922e+43)
(-8.979697e+44 -2.1812885e+43 -4.5757119e+43)
(-9.2427097e+44 -1.6764918e+43 -2.1063617e+43)
(-8.9089277e+44 -6.0090486e+42 -7.6083239e+42)
(-8.2381258e+44 -3.6676704e+43 -7.3722566e+43)
(-8.1209383e+44 -2.7666414e+43 -6.6948479e+43)
(-7.9567333e+44 -2.2873302e+43 -5.6081307e+43)
(-7.7918454e+44 -1.9346073e+43 -4.5011683e+43)
(-7.6313374e+44 -1.8302704e+43 -3.5597363e+43)
(-7.4832843e+44 -1.7488971e+43 -2.875943e+43)
(-7.1495375e+44 -1.4767544e+43 -1.4875946e+43)
(-7.3313712e+44 -1.5189948e+43 -2.1373319e+43)
(-8.7554055e+44 2.0740822e+43 -4.309339e+43)
(-8.9082066e+44 1.7042392e+43 -4.6591487e+43)
(-8.915878e+44 1.560974e+43 -3.8624887e+43)
(-8.9730581e+44 1.8690927e+43 -3.1153093e+43)
(-8.9549754e+44 1.6886082e+43 -3.7524138e+43)
(-9.1436407e+44 1.571378e+43 -3.7815318e+43)
(-9.042695e+44 1.1428921e+43 -5.1727502e+43)
(-9.0719545e+44 1.6413831e+43 -5.7973358e+43)
(-9.0990105e+44 1.6724063e+43 -4.7440359e+43)
(-8.9821226e+44 1.2208426e+43 -5.7130771e+43)
(-9.0226038e+44 7.464755e+42 -5.8655615e+43)
(-9.061228e+44 1.0244632e+43 -4.5788397e+43)
(-8.9677284e+44 1.2644457e+43 -4.9021587e+43)
(-8.8763669e+44 1.2630055e+43 -4.078354e+43)
(-8.8644145e+44 1.048089e+43 -4.5431637e+43)
(-8.8020695e+44 1.3439913e+43 -4.6668177e+43)
(-8.815107e+44 1.4102464e+43 -4.1733941e+43)
(-7.5261584e+44 1.416586e+43 -3.1013226e+43)
(-7.478753e+44 1.50087e+43 -3.3249937e+43)
(-7.5607939e+44 1.4645768e+43 -4.1334875e+43)
(-7.6010104e+44 1.3221016e+43 -3.9601513e+43)
(-7.536064e+44 1.285183e+43 -3.0464697e+43)
(-7.561245e+44 1.3553508e+43 -3.1363899e+43)
(-7.6379677e+44 1.2953311e+43 -3.9759455e+43)
(-7.6063165e+44 1.213877e+43 -3.8786993e+43)