/*--------------------------------*- C++ -*----------------------------------*\
  =========                 |
  \\      /  F ield         | OpenFOAM: The Open Source CFD Toolbox
   \\    /   O peration     | Website:  https://openfoam.org
    \\  /    A nd           | Version:  7
     \\/     M anipulation  |
\*---------------------------------------------------------------------------*/
FoamFile
{
    version     2.0;
    format      ascii;
    class       volScalarField;
    location    "3000";
    object      k;
}
// * * * * * * * * * * * * * * * * * * * * * * * * * * * * * * * * * * * * * //

dimensions      [0 2 -2 0 0 0 0];

internalField   nonuniform List<scalar> 
34378
(
1.5247419
1.5193271
1.5236247
1.5223275
1.5258945
1.5236904
1.5252517
1.5185733
1.5198311
1.5184465
1.5193261
1.5192233
1.522547
1.5229079
1.5241416
1.5239546
1.5211732
1.520611
1.522511
1.5229839
1.5229946
1.5242168
1.5254205
1.5248353
1.5286842
1.5239103
1.5238157
1.5235948
1.5222563
1.52175
1.5186424
1.5181664
1.518348
1.5197642
1.5188511
1.5195057
1.518308
1.5183529
1.5184253
1.5185759
1.5184808
1.5187287
1.5193757
1.518332
1.5196267
1.5195318
1.5178035
1.5217081
1.5221345
1.5204365
1.5229522
1.5227115
1.5222826
1.5223266
1.5231946
1.5231829
1.5214485
1.5209685
1.5198466
1.5198737
1.5208448
1.5197766
1.5207586
1.5224154
1.5224019
1.5233133
1.5232922
1.5215644
1.521826
1.5222206
1.5236974
1.523875
1.5235396
1.5233269
1.5234705
1.5233338
1.5234983
1.5236304
1.5250871
1.523686
1.5235569
1.5248199
1.5244303
1.5241656
1.5295762
1.5302909
1.5298964
1.5292686
1.5236185
1.5239457
1.5230931
1.5231144
1.5229826
1.5230007
1.5227678
1.5224738
1.521073
1.5205445
1.5205135
1.5204052
1.5181171
1.5179786
1.5186835
1.5182205
1.5184503
1.5189749
1.5190253
1.5200316
1.5200561
1.5188095
1.5187766
1.5189326
1.5188903
1.5181262
1.5205729
1.5202447
1.5182022
1.5183175
1.5183404
1.5184191
1.5185916
1.5177114
1.5185033
1.5183841
1.5184042
1.5186293
1.5186976
1.5186737
1.5188114
1.5187758
1.5184692
1.5187362
1.519511
1.5182492
1.5198237
1.5178206
1.5174927
1.5188559
1.5188983
1.5199267
1.5199035
1.5176871
1.5204803
1.5206301
1.5180035
1.5169836
1.51735
1.5176878
1.5174363
1.5200179
1.5209711
1.5213458
1.5220766
1.5218708
1.5215818
1.521652
1.5224182
1.5223806
1.519585
1.5203134
1.5206582
1.5217145
1.52172
1.5225728
1.5225818
1.5217513
1.5217787
1.5226181
1.5226167
1.5193219
1.5193675
1.5199729
1.5200048
1.5194368
1.5193661
1.5200303
1.520102
1.5199531
1.5193191
1.5193181
1.5199328
1.5218537
1.5218466
1.522712
1.5227113
1.5218259
1.5218329
1.5226901
1.522705
1.5205195
1.5207033
1.5202248
1.5199947
1.5200436
1.5201458
1.52052
1.520419
1.5201623
1.5205906
1.5210434
1.5206988
1.5225414
1.5225749
1.5222513
1.5228029
1.5227896
1.5227699
1.5230196
1.5230129
1.5228205
1.5226983
1.5227141
1.5228287
1.5223432
1.5225283
1.5222
1.5226276
1.5223119
1.5225071
1.5221867
1.5225988
1.5225907
1.5223158
1.5222627
1.5225574
1.5234967
1.5227
1.5226876
1.5227428
1.5236092
1.5227473
1.5226745
1.5226595
1.5227682
1.5227728
1.5234511
1.5233419
1.5228796
1.5227566
1.5227714
1.5228557
1.5227782
1.5227899
1.5228252
1.5228458
1.5236394
1.5233677
1.5234804
1.5231905
1.5234527
1.5234914
1.5246432
1.5235033
1.5235524
1.5237598
1.5236919
1.5244008
1.5235462
1.5234855
1.5232357
1.5232723
1.5229413
1.5227995
1.5228179
1.5229166
1.5231344
1.5228787
1.5228981
1.5231082
1.522567
1.5225537
1.5225745
1.5225727
1.5224333
1.5224455
1.5224804
1.5224853
1.5222548
1.5222998
1.521701
1.5219521
1.5204546
1.5200803
1.5197905
1.5198206
1.5198521
1.519937
1.5197836
1.519763
1.5219631
1.5213109
1.5180218
1.5179572
1.5187089
1.5188395
1.5188041
1.5182053
1.5184267
1.5189567
1.5189714
1.5190091
1.5190335
1.5189962
1.519011
1.5190542
1.5190741
1.5191891
1.5192186
1.5202045
1.520202
1.5202033
1.5202063
1.5192418
1.5192495
1.5189423
1.5189043
1.517771
1.5202204
1.5198969
1.5178995
1.5182802
1.5182759
1.518416
1.5183792
1.5185288
1.5186014
1.5186945
1.5187216
1.5175332
1.5176626
1.517605
1.5174001
1.51841
1.5186455
1.5188217
1.518788
1.5176672
1.5183827
1.5185208
1.5183957
1.5186245
1.5187072
1.5187363
1.518775
1.5188163
1.5185685
1.5188433
1.5194563
1.5198355
1.5184768
1.5174064
1.5180945
1.5189742
1.5199827
1.5200343
1.5190094
1.5172744
1.5173148
1.517889
1.5179469
1.5174265
1.5174101
1.5173085
1.5172771
1.5188388
1.5188517
1.5188907
1.5189115
1.5188746
1.5188892
1.5189299
1.5189508
1.5191104
1.5191226
1.520095
1.5201096
1.519073
1.5200773
1.5190923
1.5200737
1.5173488
1.5200316
1.5201837
1.5176404
1.5170091
1.5168616
1.516938
1.5166602
1.517293
1.5172722
1.5171827
1.5171415
1.5171404
1.5178068
1.5171897
1.5178371
1.5166565
1.5175425
1.516982
1.5177368
1.5193717
1.5197096
1.520244
1.519995
1.5202223
1.5199331
1.5213693
1.5214935
1.5205625
1.5204421
1.5217609
1.5218094
1.5206776
1.5206602
1.5220615
1.5220838
1.5207695
1.5207239
1.5221341
1.5221454
1.5191413
1.5191919
1.5197672
1.5197306
1.5207446
1.5207715
1.5222272
1.522232
1.5207219
1.5207453
1.5222482
1.522252
1.5207614
1.5207721
1.5222814
1.5222836
1.5208428
1.5207862
1.5222962
1.5223036
1.518943
1.5189518
1.5194992
1.5195058
1.5189609
1.5189912
1.5195446
1.5195295
1.5197836
1.5189989
1.5190064
1.5196499
1.5196727
1.5189599
1.5189559
1.5195583
1.5195789
1.5189356
1.51951
1.5189325
1.5195077
1.5189358
1.5189449
1.5194965
1.5195055
1.5208836
1.520911
1.5223698
1.5223675
1.5208761
1.520853
1.5223789
1.5223763
1.5208525
1.5223616
1.5223567
1.5208304
1.5208439
1.5208883
1.5223556
1.5223569
1.5238198
1.5194964
1.5205502
1.5203544
1.5196116
1.5199964
1.5197154
1.5200578
1.5200288
1.5196582
1.5198039
1.5201297
1.5195263
1.51944
1.5195477
1.5194102
1.5194087
1.5194691
1.5195984
1.5194962
1.5195754
1.5194743
1.5195489
1.5197356
1.5196546
1.5196425
1.5197276
1.5199292
1.5198513
1.5195822
1.5197876
1.5195626
1.519764
1.5194922
1.5196033
1.5196266
1.51952
1.5195779
1.5198074
1.5196087
1.5198297
1.5202206
1.5198553
1.5201169
1.5204339
1.5201101
1.5199033
1.51975
1.5202259
1.5203672
1.5202423
1.5215129
1.5217453
1.5217939
1.5219688
1.5220005
1.5220422
1.5221196
1.5221541
1.5213992
1.5215594
1.5217026
1.5218105
1.5221025
1.522272
1.5221474
1.5223061
1.5221937
1.5221918
1.5223238
1.52232
1.5221439
1.5222763
1.5221577
1.5222852
1.5223114
1.5223144
1.5224907
1.5224888
1.5224469
1.522261
1.5222756
1.5224539
1.5220249
1.5221694
1.5220381
1.5221767
1.5219527
1.5219626
1.5220619
1.5220676
1.5219991
1.5219915
1.5221083
1.5220968
1.5220743
1.5220698
1.5222158
1.5222067
1.5212764
1.5214556
1.5215994
1.5217276
1.5218292
1.5218671
1.5219316
1.5219613
1.5212124
1.5213442
1.5215458
1.5216333
1.5218948
1.5219349
1.5220269
1.5220577
1.5211378
1.5212893
1.5214816
1.5215884
1.5217348
1.521771
1.5218152
1.5218416
1.5211266
1.5212268
1.5214705
1.5215332
1.521759
1.521796
1.521875
1.5219018
1.5217459
1.5218095
1.521783
1.5218344
1.5211554
1.5212383
1.521492
1.5215415
1.5213167
1.5216062
1.5223931
1.5213909
1.521689
1.5218645
1.5218908
1.5226393
1.5219679
1.5219317
1.5225796
1.5223218
1.522004
1.5219866
1.5227703
1.5220547
1.5220658
1.5219656
1.5219596
1.5227689
1.522028
1.5220279
1.5218478
1.5219183
1.5218496
1.5219142
1.5226945
1.522705
1.5218877
1.5219575
1.5218776
1.5219394
1.5218853
1.5219719
1.5218745
1.5219554
1.5218439
1.5219302
1.5218475
1.5219292
1.5218744
1.5219981
1.5218812
1.522
1.5219186
1.522041
1.5219096
1.5220259
1.5227846
1.5227778
1.5227849
1.5227861
1.5226731
1.5224686
1.5224639
1.5226709
1.5220051
1.5221298
1.5220037
1.5221228
1.5219677
1.5219494
1.5220546
1.5220298
1.521973
1.5220591
1.5219682
1.5220499
1.5220012
1.5219826
1.5221244
1.5220989
1.5220796
1.5220553
1.5228451
1.5221199
1.5221381
1.5220895
1.5220734
1.5228614
1.5221382
1.5221497
1.5219657
1.5220371
1.5219487
1.5220121
1.5219739
1.5220441
1.5219657
1.5220312
1.5227886
1.5227845
1.5226262
1.522126
1.5228173
1.5221869
1.522763
1.5225547
1.5228711
1.5228669
1.5228641
1.5228614
1.5225994
1.522831
1.5228229
1.5226082
1.522889
1.5229097
1.5228235
1.5229509
1.5235743
1.5226644
1.5227982
1.5226311
1.5227815
1.5233982
1.5234482
1.5235961
1.5229918
1.5229962
1.5230174
1.5230218
1.5228931
1.5228964
1.5228834
1.5228816
1.523475
1.5234349
1.5233828
1.5235309
1.5233497
1.5232996
1.5229698
1.522964
1.5229509
1.5229615
1.5230521
1.5230589
1.5230511
1.5230383
1.5229764
1.5229832
1.5227638
1.5227346
1.5229009
1.5229155
1.5226619
1.5226603
1.5221618
1.5221634
1.5223077
1.5223037
1.5220814
1.5220616
1.5221917
1.5221676
1.5220855
1.5221969
1.522085
1.522192
1.5221573
1.5221385
1.5223003
1.5222768
1.5224018
1.5225846
1.5224053
1.5225823
1.5222776
1.5224092
1.5222592
1.5223897
1.5222836
1.5224164
1.522285
1.5224143
1.5223965
1.5223821
1.5225767
1.5225586
1.5222836
1.5222773
1.5222779
1.5222793
1.5223021
1.522301
1.522291
1.5222929
1.5221507
1.5221551
1.5221768
1.5221708
1.5222045
1.5222066
1.5222293
1.5222188
1.5219916
1.5220162
1.5220659
1.52208
1.5201258
1.521278
1.5214195
1.5216914
1.5217474
1.5198517
1.519617
1.519656
1.5193951
1.5194026
1.5194238
1.5194408
1.5194693
1.5194482
1.5206061
1.5195614
1.5195369
1.5194031
1.5194056
1.5194024
1.519395
1.5219909
1.5213684
1.5179103
1.5183117
1.5182854
1.5178845
1.5185524
1.518273
1.5188244
1.5187941
1.5187254
1.518819
1.5189801
1.5190017
1.5190304
1.5190014
1.5190431
1.519008
1.5190275
1.5190312
1.519062
1.5190678
1.5190208
1.5190382
1.5190825
1.5190472
1.5190853
1.5190493
1.5190605
1.5190695
1.5190933
1.5191069
1.5191435
1.519067
1.519084
1.5191665
1.519111
1.5191033
1.5191969
1.5191864
1.5194797
1.519983
1.5200003
1.5194949
1.5200065
1.5194531
1.5194669
1.519997
1.5195092
1.5195205
1.5199946
1.5199967
1.5200073
1.5195252
1.519535
1.5200369
1.5191281
1.5191247
1.5192158
1.5192099
1.5191504
1.5191341
1.5192356
1.5192157
1.5189191
1.5189052
1.5189836
1.5189982
1.5188839
1.5188746
1.518947
1.518964
1.5174735
1.5172617
1.5172806
1.5201885
1.5199175
1.5176502
1.5173852
1.5175449
1.5185217
1.5183866
1.5184226
1.518382
1.5185583
1.5187076
1.5186844
1.5186073
1.5187062
1.5187331
1.5175465
1.5173533
1.5184341
1.5183449
1.5183461
1.5185264
1.5183725
1.5185858
1.5186281
1.5186006
1.5186936
1.5187306
1.5187417
1.5187809
1.5188002
1.5187875
1.5188634
1.5188785
1.5188985
1.518917
1.5187682
1.5187596
1.5188302
1.5188449
1.5188628
1.5188811
1.5175085
1.5176419
1.5175219
1.5177358
1.5184126
1.518347
1.5183432
1.5184709
1.5186565
1.5186139
1.5186399
1.5187009
1.5188061
1.5187684
1.5188226
1.5187778
1.5188096
1.5188186
1.5188484
1.5188614
1.5179365
1.5183633
1.5185287
1.5186288
1.5184275
1.5187036
1.5187591
1.5188593
1.5187912
1.5186347
1.5190696
1.5186356
1.5188916
1.5193738
1.5195771
1.5190749
1.5191587
1.5196929
1.5176679
1.5183027
1.5173527
1.5173751
1.517373
1.5174085
1.5175465
1.5175045
1.5181228
1.5181633
1.5188501
1.5188706
1.5189612
1.5189339
1.5197682
1.5192319
1.5192672
1.519797
1.5198397
1.5193017
1.519309
1.5198675
1.5189071
1.518892
1.5189927
1.5189754
1.5172452
1.5172564
1.5172654
1.517285
1.5172781
1.517289
1.5173038
1.5173228
1.517384
1.5179666
1.5174104
1.5179884
1.5174339
1.5174542
1.5180055
1.5180303
1.5172668
1.5172375
1.5188894
1.5188842
1.5189138
1.5189236
1.5189397
1.518906
1.5189089
1.5189437
1.5189549
1.5189227
1.51896
1.5189256
1.5189393
1.5189474
1.5189717
1.5189836
1.5190011
1.518994
1.5190732
1.519086
1.5190254
1.5190121
1.5190937
1.5191072
1.5198874
1.5193692
1.5193838
1.5198895
1.5194068
1.519396
1.5199103
1.5199481
1.5189639
1.5189507
1.5190255
1.5190462
1.519872
1.519323
1.5193417
1.5198646
1.5189851
1.5189801
1.5190633
1.5190683
1.5193569
1.5193571
1.5198555
1.5198661
1.5170804
1.5167128
1.5168916
1.5201191
1.5202043
1.5173522
1.5171283
1.5171544
1.516914
1.5166285
1.5171442
1.5171048
1.5171119
1.517134
1.5171246
1.5171537
1.5172674
1.5179029
1.5172866
1.5179102
1.5171542
1.517169
1.5171781
1.5172018
1.5179268
1.5179376
1.5173113
1.5173298
1.5168566
1.5165541
1.5167149
1.5168065
1.5165441
1.5167146
1.5170058
1.5176033
1.5177975
1.5169859
1.5170341
1.5169407
1.5169734
1.5171491
1.5178516
1.5171895
1.5178675
1.51895
1.5187174
1.5186527
1.5196902
1.5197214
1.5191779
1.5189154
1.5199006
1.5200682
1.5200863
1.5197864
1.5204355
1.5203082
1.5205385
1.5205214
1.5206311
1.5205807
1.518501
1.5184968
1.5194679
1.5194792
1.5185484
1.5185073
1.519515
1.5195351
1.5206003
1.5206269
1.5205762
1.5205997
1.5206101
1.5206224
1.5206932
1.5206339
1.5183287
1.518342
1.5192598
1.51926
1.5183258
1.5183406
1.5192724
1.5192733
1.518334
1.5183386
1.519286
1.5192877
1.5183882
1.5183434
1.519301
1.5193197
1.519106
1.519157
1.5202049
1.5201457
1.518224
1.5181708
1.5194264
1.5194121
1.5182879
1.5182527
1.5193957
1.5193863
1.5182646
1.5182717
1.5193236
1.5193182
1.5182927
1.5182716
1.5193104
1.5193033
1.5183053
1.5182909
1.5192661
1.5192679
1.5182795
1.5182917
1.5192688
1.519267
1.5182946
1.5183031
1.5192678
1.5192675
1.5183388
1.5183098
1.519271
1.5192691
1.5207362
1.5207612
1.5207279
1.5207041
1.5207009
1.5206785
1.5206897
1.5207401
1.5189757
1.5189627
1.5190592
1.519043
1.5199561
1.5195371
1.5196663
1.5200325
1.5199575
1.5195931
1.519994
1.5191608
1.5191731
1.5192033
1.5191866
1.5193421
1.5195787
1.5196271
1.519359
1.5190958
1.5191586
1.5191142
1.5191722
1.5192586
1.5193377
1.5195094
1.5195574
1.5192821
1.5195227
1.5193713
1.5195903
1.5191178
1.5191836
1.5191379
1.5192006
1.5191539
1.5192527
1.5191781
1.5192724
1.5193285
1.5194459
1.5195731
1.5196663
1.51897
1.5190545
1.5189828
1.5190629
1.5189701
1.5190279
1.5189758
1.5190295
1.5190025
1.5190867
1.5190091
1.5190884
1.5189385
1.5189944
1.5189499
1.5190025
1.5190149
1.5190468
1.5189786
1.5189531
1.5190035
1.5189604
1.5190046
1.5191006
1.5191002
1.5191994
1.5191961
1.5190428
1.519041
1.5191172
1.5191133
1.5190994
1.5191964
1.5190876
1.5191827
1.5190394
1.5190263
1.5191135
1.5190986
1.5191566
1.5190557
1.5191336
1.519211
1.519199
1.5193106
1.5191965
1.5193024
1.51914
1.5192446
1.5191186
1.5192212
1.5192356
1.5193324
1.5192135
1.5193108
1.5193053
1.5194099
1.5192959
1.5193963
1.5194118
1.5195556
1.5193956
1.5195356
1.5193296
1.5194699
1.5193091
1.5194483
1.5191886
1.5192791
1.5191877
1.5192764
1.5192741
1.5192736
1.5194048
1.5194086
1.5191875
1.5192762
1.5191766
1.5192653
1.5192728
1.5194041
1.5192647
1.5193942
1.519033
1.5190456
1.5191066
1.5191155
1.5190893
1.5191021
1.5191881
1.5191965
1.5191225
1.5191312
1.51922
1.519225
1.5190653
1.5191391
1.5190721
1.5191428
1.5191768
1.5191884
1.5192667
1.5192746
1.5192614
1.5194
1.5192722
1.5194054
1.5192084
1.5192982
1.5192188
1.519307
1.5194296
1.5192925
1.5193075
1.5194399
1.5195927
1.5197211
1.5198526
1.5199526
1.5193855
1.5194851
1.5194197
1.5195151
1.5194742
1.5196301
1.5195125
1.5196607
1.5197009
1.5198737
1.5199687
1.5201072
1.5194089
1.5195169
1.5196572
1.5197435
1.5192874
1.5193191
1.5194028
1.5194292
1.5192262
1.5193087
1.5192533
1.5193325
1.5194852
1.51962
1.5197424
1.5198494
1.5202385
1.5199802
1.520006
1.519991
1.5196259
1.5200185
1.5196236
1.5213285
1.5211054
1.521195
1.5212657
1.5211806
1.5213088
1.5214322
1.521332
1.5216177
1.52167
1.521559
1.5216204
1.5216218
1.5217061
1.5216793
1.521754
1.5216727
1.5217531
1.5217808
1.5217043
1.5217548
1.5217467
1.5218255
1.5218324
1.5218765
1.521756
1.5218489
1.5217893
1.5218448
1.5219301
1.5218336
1.5219218
1.5211618
1.5209138
1.5210127
1.5210877
1.5209974
1.5211227
1.5212633
1.5211665
1.5215214
1.5213933
1.5214688
1.5214538
1.5214714
1.5215575
1.5215327
1.5216082
1.5218515
1.5219181
1.521945
1.5218837
1.5220067
1.5219201
1.5219509
1.5220287
1.5219288
1.5219406
1.5219923
1.5220018
1.522078
1.522011
1.5220876
1.5219983
1.5218505
1.5219373
1.5219433
1.5218575
1.5218648
1.5218583
1.5219464
1.5219508
1.5220498
1.5219423
1.5220429
1.5219519
1.5219627
1.5220594
1.5219543
1.5220548
1.5218891
1.5217919
1.5218795
1.5218035
1.5218844
1.5219871
1.5219962
1.521897
1.5219085
1.5218177
1.5219057
1.5218215
1.5219126
1.522013
1.5219191
1.5220158
1.5220479
1.5221209
1.522128
1.5220574
1.5220621
1.5221351
1.5220699
1.5221405
1.5222183
1.5222208
1.5221251
1.5221337
1.5221495
1.5221409
1.5222312
1.5222372
1.5220689
1.5221648
1.5221696
1.5220798
1.5220741
1.5219916
1.522065
1.5220031
1.522025
1.5220194
1.5220919
1.5220953
1.5221025
1.5220965
1.5221862
1.5221888
1.521684
1.5215905
1.5216753
1.5216023
1.5216689
1.5217856
1.5217941
1.5216796
1.5216986
1.5216163
1.5216998
1.5216157
1.5216929
1.5218091
1.5216961
1.5218095
1.5214325
1.5215211
1.5215303
1.5214455
1.5214579
1.5215464
1.5215398
1.521453
1.5215012
1.5216044
1.521613
1.521514
1.5215277
1.5216293
1.5216244
1.5215253
1.5214834
1.5215737
1.5215772
1.52149
1.5214903
1.5214895
1.5215792
1.5215767
1.5215553
1.5216593
1.5216627
1.5215622
1.521564
1.5215617
1.5216645
1.5216629
1.521646
1.5217316
1.5217348
1.5216522
1.5216553
1.5216521
1.5217372
1.5217385
1.5218432
1.521847
1.5217264
1.5217317
1.521739
1.5217325
1.5218492
1.5218515
1.5209711
1.5207147
1.5208128
1.5208952
1.5207934
1.5209303
1.5210827
1.5209712
1.521275
1.5213432
1.5212134
1.5212898
1.5212849
1.5213895
1.5213469
1.5214412
1.5213236
1.5214107
1.5214384
1.5213561
1.5213997
1.5214834
1.5214838
1.5214022
1.5215195
1.5213918
1.5214923
1.5214251
1.5215651
1.521468
1.5215634
1.5214726
1.520817
1.5205577
1.5206577
1.5207355
1.5206228
1.5207457
1.5209042
1.5208041
1.5212042
1.5210694
1.5211514
1.5211299
1.5211332
1.5212264
1.5211954
1.5212789
1.521479
1.5215614
1.5215878
1.5215109
1.5215534
1.5216325
1.521559
1.5216356
1.5216673
1.5216934
1.5215565
1.521587
1.5216373
1.5216303
1.5217367
1.5217404
1.5206473
1.5203903
1.5204988
1.5205504
1.5204597
1.5205948
1.520749
1.5206328
1.5209618
1.5210497
1.5209059
1.5210003
1.5209788
1.5210874
1.521039
1.521138
1.520904
1.52105
1.5210634
1.5209177
1.520973
1.5209808
1.5211237
1.5211138
1.521188
1.5210299
1.5211676
1.5210532
1.5211056
1.5212346
1.5211077
1.5212404
1.5204301
1.5201697
1.5203185
1.5202811
1.5202801
1.5204303
1.5205625
1.5204207
1.5208509
1.5206786
1.5208166
1.5207134
1.5207968
1.5209257
1.5208457
1.5209687
1.5211476
1.5212481
1.5212727
1.5211759
1.5212242
1.5213218
1.5212246
1.5213189
1.5213419
1.5213677
1.5212263
1.5212577
1.5213058
1.5213037
1.5214139
1.5214116
1.5204843
1.5204804
1.5207227
1.5207153
1.5207153
1.5209182
1.5209202
1.5207122
1.5205596
1.5205452
1.520773
1.5207959
1.5207896
1.5207753
1.5209904
1.5209727
1.5200774
1.5197968
1.5200278
1.5198436
1.519995
1.5202062
1.5202863
1.5200726
1.5205178
1.5202922
1.520515
1.520298
1.5205012
1.5206943
1.5205198
1.5207118
1.5195434
1.5195667
1.5198261
1.519851
1.5203008
1.5202953
1.5200266
1.5200346
1.5216974
1.5214109
1.5214979
1.5217573
1.5195716
1.5200281
1.5201879
1.520191
1.5204855
1.5204753
1.5205571
1.5205376
1.5202617
1.5202634
1.5219999
1.5219239
1.5219653
1.5220289
1.5202497
1.5201795
1.5219631
1.5219203
1.5219815
1.5220127
1.5217143
1.5214425
1.5215044
1.5217541
1.5202973
1.520298
1.5206045
1.5205878
1.520623
1.5206038
1.5203222
1.5203251
1.5221283
1.5220445
1.522039
1.5221136
1.5203103
1.5202838
1.5202953
1.5202952
1.5205926
1.520577
1.5205897
1.5205672
1.5202869
1.5202871
1.5220947
1.5220126
1.522013
1.5220885
1.5202725
1.5202815
1.5205941
1.5205821
1.5208145
1.5208307
1.5208223
1.5208141
1.5210263
1.5210176
1.5208075
1.5205919
1.5208334
1.5205735
1.5210351
1.520827
1.5208087
1.521012
1.5220666
1.5220024
1.5220032
1.5220613
1.5220268
1.5220288
1.5220967
1.5220853
1.5208339
1.5206058
1.5208515
1.520593
1.5210559
1.520844
1.5208341
1.5210429
1.5208427
1.5206232
1.5208641
1.5206099
1.5210642
1.5208566
1.5208441
1.521046
1.5211882
1.5210434
1.5211931
1.5210387
1.5211749
1.5213164
1.5213163
1.5211771
1.5210434
1.5211882
1.5210523
1.5211998
1.5211826
1.5213217
1.5211789
1.5213139
1.521158
1.521013
1.5211575
1.5210129
1.5211382
1.5211462
1.5212757
1.521281
1.5211558
1.5210239
1.5211714
1.521009
1.5212937
1.5211544
1.5211457
1.5212809
1.5213651
1.5212558
1.5213565
1.5212671
1.5214512
1.5213343
1.5213478
1.5214598
1.5212689
1.5213679
1.521276
1.5213778
1.5214744
1.5213576
1.5213524
1.521465
1.5214044
1.5212978
1.5214016
1.5213034
1.5215004
1.5213809
1.5213884
1.5215027
1.5213029
1.5214024
1.5213042
1.521407
1.5215052
1.5213874
1.5213883
1.521501
1.5220492
1.5220466
1.5220979
1.5220904
1.5220279
1.5220331
1.5220782
1.522069
1.5220651
1.5220026
1.5219998
1.522059
1.5220894
1.522022
1.5220226
1.5220812
1.5219876
1.5219543
1.5219999
1.5220286
1.5217774
1.5215531
1.5215917
1.5218075
1.521732
1.5214801
1.5215441
1.5217784
1.5219847
1.5219231
1.5219638
1.5220167
1.5214957
1.5213842
1.5214877
1.5213952
1.5214661
1.521587
1.5215949
1.5214791
1.5213835
1.5214839
1.5213947
1.5214985
1.5214784
1.5215979
1.5214682
1.5215833
1.5211309
1.5212787
1.5212696
1.521123
1.5211215
1.5211343
1.5212785
1.5212626
1.5213944
1.5212592
1.5213993
1.5212571
1.521251
1.5213832
1.521259
1.5213957
1.5212814
1.5211338
1.5212821
1.5211333
1.5212625
1.5214037
1.5214077
1.5212694
1.5212684
1.5211381
1.521288
1.5211199
1.5212704
1.5214117
1.5212576
1.5213946
1.5213796
1.5214824
1.5214794
1.5213799
1.5213759
1.5214765
1.5213698
1.5214668
1.5215803
1.5215767
1.5214606
1.5214615
1.52145
1.5214544
1.521571
1.5215616
1.520399
1.5203998
1.5207006
1.5206826
1.520718
1.5206965
1.5204236
1.5204261
1.5221999
1.5221171
1.5221042
1.5221781
1.5204116
1.5203861
1.5203953
1.5203954
1.5207011
1.520684
1.5206982
1.5206739
1.5203909
1.520391
1.5222099
1.5221232
1.5221143
1.5221935
1.5203777
1.5203823
1.5207016
1.5206878
1.5209429
1.520922
1.5209215
1.5211436
1.5211268
1.5209348
1.520718
1.5207025
1.5209272
1.5209532
1.5209445
1.5209275
1.521147
1.5211247
1.5209282
1.5207022
1.520946
1.5206889
1.5209373
1.5211466
1.5211366
1.5209277
1.5209159
1.5206997
1.5209451
1.5206795
1.520938
1.5211485
1.5209163
1.5211218
1.5221713
1.5221008
1.5220957
1.5221588
1.5220945
1.5221046
1.52217
1.5221512
1.5221836
1.5221169
1.5220073
1.5220735
1.5204782
1.5204781
1.5207777
1.5207581
1.5222423
1.522164
1.5221413
1.5222138
1.5204641
1.5222075
1.5221441
1.5221222
1.5221808
1.5219895
1.5220998
1.5221496
1.5220387
1.5221594
1.5220882
1.5220865
1.5221496
1.5221638
1.5221197
1.5221184
1.5221573
1.5221304
1.5221386
1.5221815
1.5221656
1.5221666
1.5221037
1.5220956
1.5221501
1.5219938
1.5221154
1.5221477
1.522028
1.5221393
1.5221592
1.5222053
1.5221772
1.5221137
1.5221364
1.5221974
1.5221697
1.5221403
1.5220921
1.5219777
1.5220265
1.5222868
1.5222367
1.522145
1.5222045
1.523024
1.5221835
1.5221779
1.5221867
1.522187
1.5220686
1.5219748
1.5219531
1.5220557
1.5223058
1.5223602
1.523052
1.5223615
1.5222992
1.5229909
1.5230311
1.5218004
1.5219444
1.5219409
1.5217934
1.5220941
1.52208
1.5221059
1.5220955
1.5216525
1.5216821
1.5218634
1.521841
1.521998
1.5220402
1.5220585
1.5220227
1.5230623
1.5231098
1.5231056
1.5230973
1.5230723
1.5230724
1.5222648
1.5222679
1.5222778
1.522259
1.5222592
1.5222643
1.5222686
1.5222577
1.5224205
1.5224312
1.5223792
1.5223617
1.5224312
1.5224368
1.5223787
1.5223674
1.5221759
1.5221661
1.5221645
1.5221611
1.5221764
1.5221903
1.5221781
1.5221697
1.5220732
1.5220789
1.5221182
1.5221065
1.5221325
1.5220927
1.5220904
1.5221255
1.5188791
1.5189845
1.5230638
1.5230006
1.5231071
1.5230963
1.5230454
1.5230431
1.5230023
1.5228442
1.5229487
1.5228771
1.5222564
1.5222673
1.5222628
1.5222605
1.5222653
1.5222794
1.5222882
1.5222688
1.5221806
1.5221908
1.5222252
1.5222077
1.5221687
1.5221691
1.5222063
1.5221993
1.5223451
1.5223558
1.5223555
1.5223497
1.5224475
1.5224918
1.5224903
1.522447
1.5224843
1.5225045
1.5224654
1.5224368
1.5223449
1.5223657
1.5223741
1.5223487
1.5223658
1.5223511
1.5223313
1.5223352
1.5224409
1.5224686
1.522456
1.5224127
1.52224
1.5224052
1.5223646
1.5221877
1.5222907
1.5222859
1.5221098
1.5221188
1.5222363
1.5221995
1.5221799
1.5222094
1.5222895
1.5222772
1.5222541
1.5222603
1.5220561
1.5222184
1.5222216
1.5220684
1.5221755
1.5221507
1.5220082
1.5220418
1.5217376
1.5218246
1.5218309
1.5217473
1.5217394
1.5217487
1.5218336
1.5218229
1.5219424
1.5218208
1.5219362
1.5218289
1.5218215
1.5219364
1.5218287
1.5219453
1.5215621
1.5216525
1.5216487
1.5215615
1.5215524
1.5216412
1.5216337
1.5215477
1.5217337
1.5216336
1.5217385
1.5216323
1.5217185
1.5216218
1.5217253
1.5216189
1.5216683
1.5215694
1.5216607
1.5215812
1.5216428
1.5217493
1.5217557
1.5216537
1.5216599
1.5215817
1.5216724
1.5215709
1.5216555
1.5217598
1.5216463
1.521747
1.5217245
1.5218102
1.5218049
1.5217218
1.5217108
1.5217958
1.5217085
1.5217912
1.521917
1.5218039
1.5219215
1.5218
1.5217888
1.5217887
1.521907
1.5219033
1.5221314
1.5221427
1.5222044
1.5222125
1.5223036
1.5222165
1.522306
1.5222068
1.5221519
1.5222233
1.5222205
1.52215
1.5223135
1.5222271
1.5223166
1.522226
1.5219281
1.5220162
1.5219256
1.5220131
1.522021
1.522021
1.522123
1.5221213
1.5219142
1.522002
1.5219146
1.5220046
1.5221152
1.5220118
1.5220125
1.5221121
1.5219399
1.5219503
1.5220248
1.522033
1.5220393
1.5221366
1.5220273
1.5221284
1.5219533
1.5220399
1.5220345
1.5219476
1.5221415
1.5220462
1.5221457
1.5220438
1.5221276
1.5222012
1.5222008
1.5221281
1.5221212
1.5221218
1.5221959
1.5221937
1.5222978
1.5222042
1.5222046
1.5222926
1.5222006
1.5222923
1.5222004
1.5222896
1.5200095
1.5198269
1.5196295
1.5196626
1.519411
1.5194228
1.519457
1.5194794
1.5192055
1.519205
1.5192206
1.5192184
1.5192319
1.5192333
1.5192447
1.519266
1.519264
1.5192574
1.5192507
1.5192451
1.520051
1.5199996
1.5193621
1.5193467
1.519334
1.5193259
1.519213
1.5192124
1.5192122
1.5192096
1.5192128
1.519212
1.5192162
1.5192161
1.522197
1.5195647
1.5196554
1.5215646
1.519722
1.519468
1.5177641
1.5182801
1.5182379
1.5182791
1.5183358
1.5177481
1.5186649
1.518345
1.5182579
1.5185315
1.5189287
1.5189432
1.5189083
1.5188969
1.5187225
1.5188197
1.5188062
1.5189063
1.5189197
1.5188974
1.5188868
1.5189844
1.5190157
1.5190061
1.5190061
1.5190338
1.5190384
1.5190291
1.519043
1.5190611
1.519067
1.5190247
1.5190559
1.5190532
1.5190403
1.5190653
1.5190759
1.5190809
1.5190839
1.5190915
1.5191048
1.5191647
1.5190623
1.5190799
1.5191884
1.5191061
1.5190987
1.5192184
1.5192097
1.5194366
1.519638
1.51965
1.5194474
1.5196403
1.5194085
1.5194239
1.5196438
1.5194673
1.5194667
1.5196478
1.5196518
1.5196599
1.5194696
1.5194931
1.5196971
1.5191228
1.5191195
1.5192373
1.5192346
1.5191439
1.5191284
1.519255
1.5192355
1.5189924
1.5190061
1.5189552
1.5189729
1.5172728
1.5172564
1.5172343
1.5171541
1.5171775
1.5175228
1.5173857
1.5174456
1.5172747
1.5174446
1.5186622
1.5186314
1.5184526
1.51834
1.5184297
1.518381
1.5185836
1.5185499
1.5183879
1.5183429
1.5184775
1.5184489
1.518348
1.5186559
1.5186861
1.518653
1.5186271
1.518824
1.5188097
1.5187908
1.5187808
1.5186001
1.5187348
1.5187075
1.5186934
1.5187174
1.5187921
1.5188024
1.5187809
1.5187722
1.5188197
1.5188342
1.5188125
1.5188
1.5175453
1.5174333
1.5175966
1.5174377
1.5174808
1.5176619
1.5173339
1.5173199
1.517346
1.5173223
1.5173439
1.5173727
1.5183486
1.5183639
1.5185401
1.5185989
1.5183364
1.5184341
1.518628
1.5186625
1.518709
1.5187496
1.5187453
1.5187892
1.5187917
1.5187784
1.5188199
1.5188304
1.5188716
1.5189022
1.5188866
1.5189199
1.5189316
1.5189278
1.518944
1.5189542
1.518839
1.5188676
1.5188535
1.5188854
1.5188898
1.5188971
1.518912
1.5189155
1.517502
1.5174813
1.5174969
1.5175328
1.5176599
1.5176464
1.5177309
1.5178008
1.518338
1.5184809
1.518663
1.5187094
1.5188092
1.5188266
1.5188507
1.5188634
1.5177793
1.5176949
1.5178628
1.5179757
1.5183585
1.5185328
1.5186595
1.5184381
1.5187058
1.5187613
1.5188923
1.5188217
1.5183151
1.5179957
1.5181999
1.5185609
1.5187043
1.5185826
1.5188528
1.5190175
1.5192235
1.5190376
1.5191343
1.5193549
1.5175279
1.5175718
1.5176544
1.5175977
1.5180715
1.517784
1.5178482
1.5181413
1.5173763
1.517355
1.5173596
1.5173842
1.5174035
1.5173827
1.5174224
1.5173943
1.5174363
1.5174589
1.5175359
1.5175083
1.5174849
1.5174098
1.5174189
1.5174929
1.5179545
1.5176788
1.5176819
1.5179579
1.5179677
1.517698
1.5177198
1.5179965
1.5188493
1.5188696
1.5189885
1.5189626
1.5194203
1.5192024
1.5192292
1.5194494
1.5194826
1.5192533
1.5192735
1.519519
1.5189044
1.5188899
1.5190181
1.5190011
1.5172409
1.5172575
1.5172556
1.5172507
1.5172692
1.5172787
1.5172938
1.5172713
1.5172744
1.5172993
1.5172748
1.5172889
1.517312
1.5172887
1.5173162
1.5172908
1.5173031
1.5173096
1.5173293
1.5173396
1.5173117
1.5172995
1.5173662
1.517383
1.5178127
1.5175438
1.5175591
1.5178147
1.5173345
1.5173266
1.5173983
1.51741
1.5175845
1.5175733
1.5178196
1.5178307
1.517353
1.5173466
1.5174215
1.5174344
1.5173805
1.5173683
1.5174517
1.5174646
1.5178378
1.5175978
1.5176137
1.5178406
1.5176473
1.5176319
1.517854
1.5178866
1.517248
1.5172391
1.5172536
1.5172654
1.5172214
1.5172144
1.5172363
1.5172225
1.5189134
1.5189238
1.5189384
1.5189426
1.518953
1.5189582
1.5189699
1.5189822
1.5189954
1.5189884
1.519094
1.5191063
1.5190199
1.5190066
1.5191157
1.5191282
1.5195387
1.5193274
1.5193346
1.5195382
1.519367
1.5193476
1.5195549
1.5195933
1.5189598
1.518947
1.5190479
1.5190679
1.5195236
1.5192904
1.5193026
1.5195202
1.51898
1.5189752
1.5190866
1.5190908
1.5193217
1.5193192
1.5195166
1.5195268
1.5168972
1.5167393
1.5168614
1.5168324
1.5166258
1.5171489
1.5171272
1.5171153
1.517029
1.5170578
1.5169035
1.5168717
1.5169598
1.5169163
1.5169995
1.5169552
1.5166707
1.5165636
1.5165022
1.5167162
1.516769
1.516523
1.5171278
1.5171155
1.5171307
1.5171481
1.5171512
1.5171714
1.517091
1.5170826
1.5171074
1.5170917
1.5171099
1.5171278
1.5171407
1.51712
1.5171251
1.5171501
1.5171633
1.517141
1.5171437
1.5171671
1.5171733
1.5171857
1.5172634
1.517246
1.5174368
1.5174556
1.5177381
1.5177364
1.5172721
1.517196
1.5172004
1.5172735
1.5177383
1.5174656
1.5174557
1.5177358
1.5171843
1.5171631
1.5171901
1.5171662
1.5171831
1.5171915
1.5172052
1.517219
1.5177559
1.5174814
1.5174971
1.5177566
1.5177736
1.5175122
1.5175206
1.5177937
1.5172247
1.5172166
1.5173024
1.5172884
1.5172555
1.5172393
1.5173314
1.5173138
1.5156375
1.5159292
1.5169498
1.5171973
1.5155883
1.5167931
1.516834
1.5168195
1.5168786
1.5165613
1.5164873
1.5164796
1.5166227
1.5165672
1.5164993
1.5166834
1.5167876
1.5169729
1.516881
1.5169358
1.5170362
1.5173328
1.516828
1.5170464
1.5174861
1.517588
1.5172141
1.5172696
1.5176383
1.5169736
1.5169833
1.5170221
1.5170046
1.5170523
1.5170199
1.5170308
1.5170687
1.5170451
1.5170673
1.5171277
1.5171569
1.5176699
1.5173407
1.5173714
1.5176809
1.5171783
1.5170928
1.5171117
1.5171959
1.5173974
1.5173914
1.5176958
1.517709
1.5189414
1.5188454