/*--------------------------------*- C++ -*----------------------------------*\
  =========                 |
  \\      /  F ield         | OpenFOAM: The Open Source CFD Toolbox
   \\    /   O peration     | Website:  https://openfoam.org
    \\  /    A nd           | Version:  7
     \\/     M anipulation  |
\*---------------------------------------------------------------------------*/
FoamFile
{
    version     2.0;
    format      ascii;
    class       volScalarField;
    location    "3000";
    object      omega;
}
// * * * * * * * * * * * * * * * * * * * * * * * * * * * * * * * * * * * * * //

dimensions      [0 0 -1 0 0 0 0];

internalField   nonuniform List<scalar> 
34378
(
2258.2072
4415.2502
4078.8708
2200.0087
741.59483
4175.5384
780.3503
1174.4818
9321.0417
1172.6536
9316.8216
4407.4685
7431.5668
7863.0912
1866.9737
1766.2582
4052.4855
3989.2279
734.87736
754.13832
7930.9081
1878.7319
677.39581
607.71691
281.99538
2076.9461
2081.4624
1981.9203
784.74012
770.7283
1935.9545
596.57396
606.50076
18821.131
4475.3045
1159.419
601.10381
598.65291
1956.0145
1940.3255
4517.1807
4486.6572
18678.118
9312.1489
18855.463
1175.3886
9317.0595
12452.416
13019.529
7358.4101
4288.8954
4117.0098
13506.244
13483.151
4518.3317
4428.7736
1788.5584
1851.4086
7843.8006
7428.2852
1778.049
7549.4314
1810.2735
13349.515
13723.528
4432.4906
4560.94
610.33705
670.05238
682.77363
1796.5803
1884.0102
1860.8685
1792.6294
1485.1107
1329.6397
1357.005
1538.859
491.65939
1533.4919
1360.1181
500.42583
408.64888
412.62589
265.00859
267.29542
280.79998
278.25109
1859.24
1872.0422
5158.9542
5017.0581
5017.6559
5090.8965
4871.6441
4687.7039
1964.2796
2059.1166
1980.6785
2009.817
473.7318
473.79302
2092.2058
621.42368
630.04228
12785.599
12884.267
32873.069
33247.586
3504.3733
3475.9224
6659.4672
6639.5281
1899.8442
584.23342
600.80061
1935.8994
627.28989
625.24348
2115.8774
2097.5166
4489.4917
3535.2572
3523.2837
6728.2493
6710.7516
3509.3107
3494.8841
6643.021
6701.2424
12889.685
12918.74
32325.342
18696.809
32920.809
18801.691
4424.5912
12893.443
12830.256
33020.08
33098.271
1971.4283
600.50244
599.53218
1941.8223
4543.1134
4488.8185
18787.326
18740.608
12458.887
19915.225
20649.241
7702.5958
7577.1134
21301.502
21258.855
7999.9409
7903.0358
12746.372
4128.6469
4149.2028
21804.251
22312.447
8227.2981
8330.6261
22062.905
21834.971
8320.7476
8239.1208
13405.48
13561.623
4461.8179
4494.2332
12507.457
12967.841
4296.962
4166.6291
4236.7109
12927.509
12965.492
4354.9703
21348.666
22070.338
8287.8174
8145.7404
22478.98
22399.046
8513.2397
8410.3496
1304.5544
1464.2489
1521.4335
1353.6095
1798.6681
1788.9701
1792.2377
1817.2766
1846.4593
1855.2948
1779.3526
1756.8611
4438.2306
5081.2915
4897.1404
4623.2673
5298.1731
5225.3506
4832.3467
4737.2345
4740.8255
4829.3142
4899.2731
4838.0994
4461.736
4710.7069
4563.0518
4640.7771
4014.1886
3963.866
3874.2545
4148.0684
3361.7439
3285.1367
3001.4978
3033.6534
1090.5729
3143.8088
3104.3668
3421.2299
1107.5262
3486.5203
4113.5419
4060.446
4225.7928
4311.6109
943.17956
941.92473
4252.2704
4190.5546
4097.9477
4384.9333
3203.7366
3158.4676
3553.6373
3465.402
1105.5923
1124.7519
941.60328
958.43211
620.22983
762.41241
338.24355
613.67753
763.20119
275.95157
276.82286
341.7003
756.61604
603.68644
623.27434
777.13764
4744.8699
4980.6554
4847.2158
4907.8589
4739.6132
5373.7995
5218.8433
4897.3742
9310.8561
9404.3207
9179.8519
9019.5487
9144.7265
9238.2583
9126.7556
9185.0402
8778.405
8864.7438
8423.0563
8573.721
4663.3719
4666.7953
5042.1518
5083.9522
4851.2894
4691.7357
4779.8382
4904.3763
472.89036
467.04665
454.35013
455.41005
2183.3156
4048.5538
4007.4904
604.69688
614.5549
12171.988
12421.201
18042.718
18349.598
12323.473
12436.624
18361.828
18321.835
28112.633
28496.115
49018.629
48168.211
49436.253
49277.595
28657.19
28093.914
7331.486
7306.4994
2051.1664
605.69652
623.5878
2086.6813
611.5906
608.27557
2210.2341
4065.11
4087.572
2187.7561
4038.3522
4044.6433
3471.3928
3498.9666
6652.842
6686.1577
7403.5009
7387.2659
7304.7908
7376.7472
12895.095
12288.493
12547.421
18146.125
18471.649
12385.891
12484.906
18391.642
18346.532
28106.567
28576.653
46817.517
47854.977
32434.931
12928.977
32743.235
28622.256
48315.339
48401.934
28224.844
12747.558
12869.614
32858.921
33145.782
3465.8661
3407.2175
6631.6413
6550.4361
12316.096
12526.036
18215.45
18464.901
12285.838
12362.07
18309.914
18203.459
28490.855
27978.418
48986.869
48896.778
28367.09
48299.478
28617.655
49225.878
2131.6724
626.21325
624.17915
2097.9907
3554.84
3542.1598
6736.217
6753.3332
3510.5546
3495.0591
6647.7488
6698.8285
12927.244
32914.519
12848.8
32824.266
12954.373
32577.611
12970.651
33078.371
20499.92
20105.112
7580.1033
7521.7024
35803.896
35045.794
10978.027
11045.075
37067.855
37007.119
11205.245
11305.001
38500.661
37860.883
11563.086
11631.079
37695.9
38305.149
11543.742
11594.156
20794.213
21029.043
7731.9584
7724.1235
39239.307
38398.011
11950.128
12043.086
40172.236
39845.489
12140.102
12159.602
39627.132
39349.353
12000.046
12031.404
38396.88
39382.095
11932.504
11916.302
21487.075
21964.16
8218.0797
8286.634
22254.443
22170.774
8386.9572
8318.6499
12667.872
19834.56
20575.407
7716.9635
7581.0569
21051.203
21194.374
8005.6648
7857.2514
20897.573
7860.8435
21198.528
7901.9329
21058.1
21052.491
8014.3111
7859.914
38374.64
37462.664
11827.902
11742.617
39396.246
39632.761
11980.823
12042.197
39881.377
12206.313
12298.35
40465.319
40403.815
39493.424
12234.775
12254.18
244.70848
4153.3882
1077.0256
929.28174
2877.8061
2899.626
3163.8989
3201.7227
3770.5317
3754.7902
3905.7339
3945.5341
4259.2052
4082.9464
4284.5777
4090.6614
3108.2762
3458.6641
4503.8629
4589.8702
4654.7568
4723.8032
4683.0824
4447.3227
4613.5974
5054.5896
4883.7739
4434.5938
4598.7585
4964.6611
4507.057
5101.8894
4646.6671
4860.1725
4769.8573
4818.3557
4875.0117
5248.7035
4763.8469
5285.0423
4818.6075
4840.1964
4835.4669
4395.6096
4421.7726
4480.7839
4383.5067
4466.1389
4420.5783
759.69637
622.44546
9032.6379
8124.6471
9201.1994
8285.2568
9881.8601
9986.1356
9087.29
9212.0578
9422.1901
8687.8873
9637.017
8882.8043
9432.1765
8470.1162
9525.7178
8584.1582
10241.294
10364.029
9432.4981
9565.3629
10272.853
9460.6858
10392.385
9588.144
9793.9172
9879.3336
8802.3412
8905.4774
8821.0741
9827.4255
9924.4554
8932.1967
10470.421
9782.5509
10612.019
9937.0042
10272.885
10444.754
9837.3943
10017.537
10293.568
10423.703
9837.8051
10010.191
10458.499
10593.416
9761.6788
9929.8315
9630.3658
8980.6961
9885.3057
9224.9494
10013.776
10048.044
9543.3477
9644.9255
9488.6711
9068.8031
9784.9741
9351.4589
10132.884
10212.799
9432.1699
9565.1407
9271.7961
8884.9639
9606.9916
9208.0301
9295.0479
9226.1528
9081.8092
9094.0381
8785.8976
8602.35
9132.6357
8956.4025
9805.9956
9785.8488
9373.6308
9432.3351
8375.4503
8446.7292
8272.7564
8421.4074
7932.9941
8008.9633
8246.6146
8355.7561
6842.9938
7132.1918
2595.0509
5848.0447
6041.0347
7184.6562
7134.7478
2616.8656
6021.5564
6108.9016
2451.5959
2461.749
7332.5767
7457.0521
2708.2243
6337.819
6245.8587
7303.6092
7502.853
2656.375
6364.1668
6243.3537
8488.0766
8576.3578
8684.4019
8811.3027
2490.8471
2527.8055
8543.0974
8629.8125
8625.2972
8765.4481
9499.5982
9301.0115
9595.7096
9452.2558
9433.4716
9249.3002
9648.9213
9485.5565
9992.9556
9594.7543
10196.24
9805.5052
10044.307
9624.7196
10158.806
9791.4565
1956.5147
1924.9027
2125.5891
2170.4171
1920.4129
1958.1139
2125.6216
2113.314
9864.9736
9461.6694
10310.801
9886.578
9804.6211
9866.1726
9589.0665
9721.7877
9320.5557
9137.9624
9791.0618
9608.005
10352.217
10451.263
9902.5668
10070.586
7596.9383
7681.5613
2755.6784
6534.0819
6485.6065
7237.4278
7646.5082
2716.1408
6501.0617
6201.6291
8839.6416
8914.8878
8875.3598
9016.4502
8399.9491
8483.9459
8842.2022
8954.8221
2557.8242
2564.4336
2727.8239
7233.926
2662.5268
6177.7719
2509.6758
2564.0916
2185.8252
1978.3182
1970.3199
2195.8605
2014.7298
1956.385
2148.443
2217.7099
980.93609
1157.5511
1192.1347
951.39942
519.68361
1447.7102
1402.848
1658.2834
1624.2574
406.93399
405.85917
517.77154
1153.9681
1134.8451
934.93631
918.0731
1384.7399
1404.7765
1610.2149
1643.3296
347.30893
343.1303
401.92332
510.60279
520.97373
405.90405
1410.3792
1401.8255
1653.8549
1652.3124
1149.5517
932.67889
927.1706
1149.1309
1157.3589
943.09918
977.42215
1209.5143
1638.7478
1412.9954
1465.1887
1704.6791
10285.04
10617.686
9597.9195
9911.2604
10584.745
10725.668
10094.673
10290.7
10119.926
9676.6697
10513.715
10047.274
10723.624
10889.462
9992.4119
10199.393
9655.4417
8696.8552
9856.4189
8881.2525
10475.598
9633.6865
10644.099
9809.9216
10074.059
9289.3701
10349.085
9532.5663
9995.2487
10124.713
8982.8035
9122.6175
13033.593
13154.054
13102.648
13043.199
12796.493
12848.116
12517.047
12627.996
12755.724
12873.022
12971.76
12972.851
12818.768
12860.933
12691.481
12746.262
12357.03
12447.892
12339.662
12356.237
8385.9251
11714.582
11808.465
11977.94
12070.282
8352.8616
8588.0906
8586.5573
9116.0444
9198.2616
9234.8179
9299.411
8715.3542
8884.0346
4792.9205
8391.4388
8565.3138
8784.4154
8738.4639
8726.7495
8876.8173
453.8957
448.3916
428.77508
637.78068
634.49334
429.00067
641.12125
629.40754
4005.7636
3956.0432
2169.1852
4642.4551
15284.538
15682.418
22779.389
18499.569
22959.309
18652.29
18901.064
18989.968
23258.637
23210.483
15555.775
15612.645
23247.865
18878.038
23360.033
19000.197
18854.007
18897.81
23238.538
23084.266
38135.139
26699.728
26895.025
38872.914
27116.327
27209.339
38851.471
39177.556
63954.212
54855.063
54713.239
63763.124
53858.647
62868.652
63628.251
54323.137
64002.362
64511.178
55018.96
54821.696
55027.417
63875.041
63334.525
54674.85
27326.312
27210.522
39352.535
39109.517
26967.752
27202.044
38385.032
38712.679
6176.7554
6138.4672
10330.46
10261.757
6150.4606
6138.9188
10222.114
10295.827
2139.9639
3925.6547
4015.7258
587.23335
607.77572
2171.4946
4009.1999
4028.1403
4045.2548
4016.8915
2199.3464
4719.7072
4729.5969
4000.7065
3984.8873
2173.0222
4676.4468
4678.2128
7308.3237
7358.8476
6242.5377
6224.2928
10346.779
10439.553
15418.707
15834.216
6230.4251
6196.0102
10400.513
10329.559
15624.268
15664.168
6159.0974
6122.5026
10296.311
10205.281
15513.519
15503.797
6193.8614
6207.1915
10361.284
10376.578
15475.297
15799.806
12327.343
12422.29
18386.302
18298.028
18778.741
18618.301
22869.938
23075.039
23387.599
19050.727
19140.196
23349.89
23263.612
18928.283
23371.585
19038.724
18893.494
18934.123
23257.573
23108.939
28003.941
26749.773
26989.389
38898.494
37927.986
27295.266
27232.068
39239.219
39108.717
47505.756
52550.507
62134.602
63191.806
52867.337
53648.392
63544.688
63723.141
53732.184
28452.55
47806.97
12323.332
12554.346
18273.327
18534.452
28573.044
28421.913
47818.055
48308.518
27176.493
27301.248
39455.272
38904.249
54037.755
63342.003
64064.416
54195.806
54101.475
63844.419
63438.43
53853.264
26974.362
27198.319
38588.722
38876.578
12126.306
12374.827
18055.748
18382.519
12334.22
12399.397
18401.264
18305.329
28094.312
47966.018
28557.791
48625.596
28695.026
28253.013
48753.693
48816.529
7306.3014
7208.0867
18847.263
18704.344
22976.972
23146.714
23399.895
19038.925
19110.144
23322.737
23199.833
18839.153
23291.685
18944.909
18733.201
18764.656
23109.926
22934.829
27238.118
27137.6
38714.498
39249.912
26813.89
27077.285
38827.002
38311.846
54827.556
63387.367
64062.522
54888.373
63210.565
63789.766
54752.409
54334.418
27062.6
26872.784
38300.913
39146.924
54183.578
62829.399
63766.38
54574.945
27208.471
27334.298
39465.231
39064.772
63904.478
64268.299
55080.929
55002.099
2224.0272
4083.2543
4109.4137
608.92619
608.83653
2185.5434
4035.5523
4048.7297
7410.8382
7424.4463
7312.3059
7368.9718
12333.194
18263.601
12553.4
18537.432
28533.782
47744.385
28807.933
48274.981
12311.983
12376.931
18342.411
18240.726
48114.933
48096.253
28610.29
28083.681
32497.192
12357.287
12590.179
18547.902
18244.354
28443.869
28893.449
46947.209
47904
18492.545
18383.687
12448.318
12502.1
28983.007
48260.634
28552.441
48299.437
239.9318
36998.538
36877.592
11049.05
11064.053
35515.071
36389.087
10910.19
10941.398
38242.522
37467.773
39525.996
39510.491
41102.58
40435.66
40225.49
40973.729
37557.438
37111.209
11336.743
11352.082
37814.233
38296.732
11340.084
11355.274
41843.599
40997.689
42833.267
42493.624
42349.005
42045.078
41047.316
42129.492
38801.43
37775.529
11836.696
11945.528
39543.25
39355.214
12008.855
12068.93
40036.213
39700.549
12157.685
12218.026
39257.64
40267.72
12196.284
12121.381
20667.498
20309.015
7719.8497
7759.8848
35872.718
34830.576
10943.761
11029.927
37166.978
37059.225
11186.615
11289.407
38155.542
37642.303
11461.093
11533.343
37969.219
38368.76
11576.576
11621.15
37251.151
37742.053
11513.964
11473.963
38405.516
38211.769
11531.584
11579.596
38076.7
37731.911
11461.565
11512.242
37382.096
37976.661
11478.303
11542.831
40975.534
40078.701
42089.351
42326.7
42666.601
43270.962
43269.016
42225.47
9642.9935
9845.3954
9232.7304
9478.4619
2371.994
2335.3853
2474.2785
2516.9524
1891.4851
2005.3454
2059.8625
6731.8101
6883.5544
5791.6674
5707.2254
6606.3687
6729.4669
5678.5698
5576.2862
7864.6172
7950.6142
8002.0425
8125.6299
7720.4102
7816.6496
7802.1697
7936.2438
8614.2247
8692.0425
8438.4995
8556.0461
8764.2601
8584.1295
8913.9133
8757.374
9287.89
8907.6647
9423.6881
9056.2837
9119.7199
8742.814
9197.0917
8859.6318
10011.294
9617.185
10173.139
9790.7642
9551.1877
9360.1996
9628.5942
9498.6216
10115.946
9702.9013
10223.108
9867.7481
9446.2677
9275.7829
9611.7505
9467.6714
7449.0383
6301.2598
8784.4616
8589.7459
8677.4562
8628.8424
8786.8935
9978.8588
10074.596
9307.0786
9418.539
9805.1887
9920.0855
9373.2776
9504.1872
10009.945
9332.6239
10253.903
9590.6029
9871.7117
10103.148
9424.8006
9686.4127
9386.9738
10120.001
9702.7759
9311.2575
9511.5674
8895.1008
9849.3536
9203.8804
9976.0337
9312.7864
10278.998
9617.7422
9768.7957
8995.7452
10051.266
9249.8286
9336.3519
8624.0066
9620.2084
8865.7687
8967.372
8088.0385
9183.5676
8274.1141
9341.6608
8402.0456
9564.1456
8600.4496
9780.4192
9003.0054
9859.9428
9088.2334
9366.4666
9421.0373
8480.2413
8415.8055
9785.3199
9011.8862
10019.303
9230.5885
9357.0908
8416.3555
9545.917
8593.6864
10284.95
10425.001
9843.7305
9993.0604
10462.996
10579.442
9774.4104
9902.7177
10565.261
10721.439
9869.4113
10058.19
10386.041
9929.3186
10525.593
10112.749
10250.765
10350.735
9437.1528
9542.3686
9792.3
8802.2556
9872.7754
8893.5566
10361.464
9537.1865
10515.369
9689.8357
8899.2282
9903.8909
10009.804
9009.5344
9326.1356
8593.7599
9396.6664
8678.5839
9563.6458
8812.4227
9607.406
8864.9965
9181.3575
8258.3879
9191.0271
8286.754
8935.7599
8044.3219
8983.899
8112.3277
9358.6126
8943.7536
9439.4548
9059.6331
9732.8408
9807.496
9088.2306
9177.5514
9550.896
9131.3248
9658.6525
9251.4129
9514.5934
8882.0834
9595.2198
8991.8511
525.42442
1405.1184
1617.8957
958.36842
905.21082
1165.997
1108.3133
11752.09
12388.146
11733.925
12391.8
11954.187
11268.083
11326.66
11963.53
12643.799
11987.751
12538.944
11879.294
12104.525
11466.598
12196.168
11566.81
14132.281
13381.407
13416.248
14175.608
14218.753
14131.531
13366.136
13457.056
12782.286
13643.064
12767.857
13643.34
13653.924
12802.576
13600.616
12726.647
12701.912
13327.206
12676.122
13353.551
12960.538
12154.319
12175.02
12961.238
13029.252
13580.989
12883.671
13750.706
13141.904
12318.942
13257.952
12444.91
12990.936
12291.418
12303.492
12984.783
11832.547
12518.561
12522.178
11895.074
12931.011
12982.747
12239.908
12309.04
11802.151
12501.101
11859.67
12454.031
14678.904
13887.463
13872.021
14656.66
14699.382
14700.077
13886.449
13912.665
13204.221
14152.786
13237.733
14090.399
14101.497
13222.882
14116.229
13196.549
13945.654
14702.112
13909.752
14733.889
14160.459
13238.064
13267.963
14168.633
14095.143
14868.148
14041.063
14911.693
14281.964
13346.784
14294.156
13393.274
13463.325
12736.692
12704.715
13398.848
13395.186
12671.731
13390.974
12695.516
12266.646
12289.083
12969.754
12921.856
12875.821
12885.511
12207.987
12211.419
12949.467
12229.485
12308.191
12969.491
12758.589
13453.44
12729.893
13465.58
13573.779
13556.661
12823.189
12864.286
13067.223
13052.852
12382.221
12421.212
15097.516
15705.287
15026.786
15752.56
15456.815
14464.519
14522.964
15520.351
15338.553
15908.814
15226.297
16021.379
15687.455
14648.869
15748.143
14724.619
15865.461
15281.185
15342.673
15895.136
16085.99
15478.809
15658.917
16247.894
15891.555
15167.037
15235.481
15930.433
16098.511
15357.618
15516.094
16239.01
15959.908
15340.173
15364.562
15946.054
16026.8
15991.442
15384.512
15461.723
15944.629
15191.224
15217.068
15934.089
16021.581
15992.558
15246.611
15318.582
15725.669
15026.67
15063.35
15722.778
15805.481
15782.589
15089.353
15137.445
14440.819
14454.992
15453.761
15470.336
15506.616
15517.731
14481.972
14520.5
13631.951
14197.368
13563.534
14249.673
13906.308
13054.94
13114.183
13972.851
14802.446
14151.622
14561.619
13915.119
14284.837
13355.258
14498.225
13560.38
15533.459
14907.456
14961.361
15563.131
15399.929
14817.239
14951.677
15507.042
14781.385
15471.298
14715.902
15506.409
14809.168
15399.39
14677.225
15500.586
13961.459
14458.007
13909.396
14495.175
14432.024
13748.385
13812.565
14468.968
14550.788
14876.661
14288.512
15140.956
14816.235
14105.846
15062.465
14365.486
15208.322
14512.667
14597.9
15263.579
15181.958
14510.529
15283.272
14638.13
13909.044
13980.569
14896.908
14979.008
15008.046
14911.35
13920.51
14044.956
14224.681
14755.239
14157.338
14814.196
14686.472
13970.324
14031.13
14727.499
15569.297
14928.052
15311.201
14650.474
15173.628
14400.668
15437.074
14681.685
16843.347
15839.581
15893.246
16866.694
16475.879
16369.454
15449.564
15587.236
15469.425
16371.939
15430.216
16379.669
16073.068
15252.499
15991.793
15126.104
14754.69
15509.62
14628.908
15644.188
15108.06
14279.268
14374.683
15195.658
15559.931
16262.523
15284.902
16521.614
15762.204
14849.22
16010.142
15127.536
15949.39
15261.288
15302.941
15955.805
15660.129
15031.191
15744.795
15158.785
15012.559
15065.195
15828.041
15845.094
15709.693
15615.445
14858.953
14999.493
19103.35
19171.104
17384.206
17495.978
17866.54
16388.675
16466.86
17814.593
18407.545
18557.032
17018.28
16797.276
17230.978
17380.977
15905.94
16089.741
16248.26
17569.873
16014.155
17776.976
16385.501
15111.125
15297.068
16579.948
17175.739
18578.406
16880.403
18805.156
17263.438
15865.466
17521.781
16161.965
19045.311
19109.779
17315.613
17523.945
18299.377
18541.005
20185.766
20236.068
5366.6308
5204.0527
5231.9039
5412.5411
18393.15
19484.971
20664.759
20659.55
18777.075
18888.829
18069.146
18259.816
19807.678
19822.329
5430.8398
5404.4843
5279.2958
5362.6088
18996.491
19871.868
4720.9179
4866.5289
4900.7227
4808.3408
4860.5556
4721.3071
4758.0746
4913.4295
20831.207
20835.9
18952.072
19095.189
18693.24
18853.231
20471.468
20460.508
5556.2134
5522.6152
5582.0603
5654.2709
19647.864
20037.416
20243.279
20290.293
18454.449
18643.908
19054.537
19271.821
20926.343
20955.39
5551.4537
5509.2148
5596.9593
5672.4587
20144.386
19506.334
18764.881
18937.306
17361.702
17152.716
17582.806
17738.833
16262.048
16422.622
17939.801
19383.822
17681.4
19567.954
16712.48
18116.783
18319.536
16956.542
5004.1479
4949.8508
5000.234
5091.5807
4999.053
4961.6987
5008.8101
5086.7092
17737.707
19295.374
17587.964
19397.523
16622.754
18033.599
18116.313
16727.673
17583.724
19050.12
17407.435
19153.602
16501.383
17858.797
17953.882
16640.988
16172.616
17097.142
16111.585
17137.113
16663.401
15734.391
15768.338
16666.567
17045.72
16139.446
16982.028
16037.333
16596.43
15703.122
16633.489
15790.735
15925.971
16731.126
15819.997
16834.386
16373.043
16429.278
15510.616
15586.163
16415.82
17179.246
16200.669
17368.875
15826.594
16747.602
16916.607
16032.826
15498.455
16063.507
15438.421
16099.406
15293.942
16045.196
16072.606
15352.175
16540.706
15905.544
16370.409
15705.523
15518.331
16308.841
16474.927
15715.853
15625.982
16280.92
15604.964
16266.449
15398.887
16202.813
16182.209
15423.152
16291.556
15685.204
16256.483
15605.737
15426.103
16210.271
16241.934
15507.467
3804.6476
3775.5515
3915.6715
3970.5431
3776.776
3757.6853
3908.8238
3949.3738
4477.819
4371.4507
4407.1006
4534.1263
4484.4967
4389.2719
4420.5018
4540.4141
3616.7678
3724.1513
3859.4127
3761.6333
3792.2075
3703.9948
3818.9172
3924.1038
4351.9572
4234.0893
4306.8946
4439.346
4401.9099
4319.9935
4181.2776
4292.6112
15199.102
15747.948
15118.362
15811.227
15701.534
14933.994
15010.865
15745.617
16771.932
16093.57
16536.729
15827.169
16407.129
15565.413
16644.369
15833.374
17635.608
16614.863
16713.812
17702.859
17578.537
17505.521
16542.117
16657.675
16295.734
17181.951
16219.594
17222.108
17176.086
16314.731
17133.694
16217.35
15696.363
16457.705
15542.24
16617.969
16078.986
15211.875
15327.749
16181.608
16723.99
17480.527
16449.193
17727.054
16987.437
16014.454
17218.117
16285.344
16776.529
16074.13
16148.328
16808.549
16802.242
16134.562
16839.403
16221.243
15835.552
15920.283
16680.583
16720.65
16803.698
16771.394
15955.727
16045.156
21497.616
21505.151
19563.508
19725.349
19217.845
19389.45
21035.715
21021.451
5763.7454
5722.5595
5739.5885
5824.351
20190.065
20685.328
20087.669
20165.52
18250.666
18501.192
19527.933
19773.607
21511.81
21548.553
5544.06
5524.4656
5759.7473
5813.8024
20732.089
19403.708
19908.961
20025.983
18149.77
18327.826
18712.475
17147.774
17287.167
18602.94
19584.521
19691.187
18101.923
17906.846
18380.161
18488.679
16994.556
17154.738
17197.583
18545.185
16912.726
18792.992
17329.612
16001.64
16230.704
17565.49
18364.379
19852.392
18062.789
20067.265
18495.736
17022.535
18745.591
17322.152
5044.3257
5016.7888
5189.2707
5255.2087
5121.1762
5125.3713
5182.7159
5223.5577
5490.0115
5473.4787
5585.391
5631.8482
20323.911
20379.377
18475.83
18708.532
5504.2829
5484.2717
5584.1094
5639.5865
19578.604
4997.6591
4956.8378
5027.1556
5098.9812
5050.2544
4954.0272
4986.3483
5114.9624
4561.4169
4493.9698
4609.2085
4715.8251
4030.3792
3881.0468
3949.1028
4128.271
3855.9464
3868.185
4028.5029
4041.499
4626.7676
4521.3819
4508.1754
4645.5395
3899.1961
3846.8757
3970.736
4056.9755
3843.4421
3823.3805
3952.7563
4009.8954
4464.4277
4414.9756
4495.6557
4575.021
4500.5138
4425.0524
4496.8032
4605.7343
1344.038
1375.1177
1662.5731
1636.1778
833.87737
1893.1586
1903.0795
2147.82
2148.2695
1992.2439
2023.5692
2262.9382
2253.1716
1550.4622
1272.269
823.94653
1277.788
1551.0147
607.22463
604.03372
2612.3306
2604.5067
2822.0876
2796.4976
2478.766
2506.5827
2688.7222
2715.8242
3169.8473
3318.9194
3391.4278
3208.3543
3118.8921
3294.6126
3232.7944
3052.9462
479.81185
463.0658
791.96323
808.17105
593.97394
587.25958
2195.9145
1873.047
2145.034
1910.2237
1845.223
1862.8891
2139.2269
2133.7902
1249.6415
1233.4037
1515.2191
1552.2169
1206.3505
1205.9968
1503.3246
1495.241
2732.1578
2502.6778
2739.9672
2490.4292
2508.8717
2735.2981
2794.142
2560.4891
3140.7452
3138.0036
3327.8668
3352.0133
3336.5061
3145.0831
3188.4138
3387.4232
337.00542
331.03915
465.8322
470.61025
800.40451
801.93185
589.39818
589.13724
812.11106
836.79725
595.50655
606.49352
2593.4663
2825.4567
2848.2272
2587.7574
2550.5217
2534.7753
2781.9362
2805.3596
3211.2889
3211.3746
3414.2798
3428.6021
3278.0575
3247.5847
3440.4868
3498.7925
1933.6339
2213.6257
2204.582
1913.8564
1543.6294
1255.6106
1241.0115
1554.249
1228.9751
1213.8689
1497.717
1530.2846
1887.5478
1858.056
2150.3818
2186.5486
2200.9661
1929.8883
1927.0766
2221.4831
1553.3383
1249.0237
1255.9745
1563.4666
1346.0007
1319.6941
1624.6991
1683.2947
2270.7455
1999.3653
2054.8141
2338.2184
3391.5333
3217.1492
3222.2947
3424.3845
2799.9114
2576.8447
2582.0945
2824.7119
2697.8184
2642.7288
2853.9314
2924.272
3424.9824
3256.2009
3309.762
3493.4888
15210.903
14532.349
14627.21
15282.351
15967.575
15747.62
15044.309
15269.443
14067.048
14915.763
13990.449
15005.077
15645.274
14609.776
15458.834
14427.067
16397.786
15748.683
15846.74
16456.227
16549.205
15917.74
15999.412
16588.492
15667.94
16348.608
15557.677
16422.977
15835.739
16546.411
15760.112
16574.434
14966.262
15472.946
14882.138
15523.386
15451.924
14716.297
14811.437
15515.221
15706.474
16099.355
15453.569
16339.698
16026.554
15244.011
16252.577
15495.938
16092.557
15372.267
15496.363
16183.031
16319.14
15598.943
16338.075
15650.974
14855.103
15798.432
14753.731
15911.709
16039.024
16049.765
14962.342
14996.298
13201.124
13190.003
12507.26
12520.092
12029.293
12739.91
12105.105
12738.044
13383.263
12673.987
12767.174
13469.243
12320.014
12901.392
12241.196
12970.139
14975.428
14155.138
15052.65
14230.585
14437.405
14404.43
13467.498
13515.204
15168.185
14336.825
15172.35
14307.908
13558.657
14526.734
14511.387
13589.365
14265.131
14296.388
13545.586
13580.223
13825.295
12979.294
13829.277
12960.103
14640.247
13843.35
13978.442
14785.314
13287.738
14080.894
13173.309
14179.78
13686.171
12954.032
12987.175
13703.918
13748.64
13754.102
13005.416
13029.151
12486.073
13188.758
13211.364
12573.988
13209.357
12534.446
13224.115
12541.054
11652.778
11663.341
11820.107
11840.763
12121.422
12148.158
12140.332
12130.904
12643.054
12787.29
12886.898
12846.672
12996.304
13072.576
13048.128
12932.731
12265.636
12362.474
12405.632
12422.574
8558.232
8558.8709
11685.91
11806.165
11979.353
12073.127
12356.442
12383.867
12278.55
12336.532
12268.725
12338.413
12282.835
12318.149
427.94082
635.38368
633.3779
423.58706
608.66364
633.4773
385.95099
641.04964
616.84045
621.24395
644.52005
386.13917
646.1418
636.14794
611.34215
624.43561
7032.1449
7064.4197
7047.3446
7031.3177
1992.0309
5078.3898
4496.1098
7986.2778
8012.3044
7000.6893
6969.708
16331.841
21038.477
20710.92
16605.368
21182.521
21291.843
24703.294
24980.388
25243.751
25175.407
16620.281
21423.202
21146.435
16521.064
21130.443
21165.98
25201.904
25395.694
25217.764
25032.632
51796.052
28591.804
28877.016
52772.253
29047.378
29176.53
52154.496
53096.291
95907.46
58992.72
58770.095
94485.534
58596.471
95507.811
95842.436
58871.852
95863.691
94979.564
59076.693
58856.642
59053.934
94339.838
94666.454
58907.193
29319.63
29134.262
52932.727
53002.439
28885.356
29153.27
51877.742
52057.712
11256.949
11179.354
11136.451
11215.26
3970.7576
3874.0248
2127.9524
4542.3437
4656.2564
3982.8841
3957.8827
2155.1784
4638.9271
4652.8676
7126.3407
7095.4601
7156.1392
7129.8314
2020.6436
5170.6228
5162.5607
4597.3542
4575.349
8103.7593
8141.9256
7111.7227
7072.4699
8068.685
8098.3379
7085.593
7041.0192
7044.8245
7009.852
7094.4557
7112.4617
1992.7981
5107.5495
5100.841
4523.1993
4546.1429
8081.0993
8058.8834
7046.5437
7049.518
7967.6476
8006.7664
7004.2416
6955.0275
6146.7815
6101.1323
10233.048
10306.8
15573.333
15587.596
6173.9855
6164.0379
10394.755
10326.172
15492.205
15848.356
11270.102
16475.634
11370.234
16777.327
20832.532
21161.139
21337.036
21442.713
11326.697
16690.298
11249.913
16579.868
21448.977
21195.606
21173.652
21196.854
11216.013
16579.516
11117.898
16412.032
21357.716
21105.839
21003.913
21014.975
11283.905
16527.981
11297.007
16724.56
20928.55
21234.948
21326.416
21409.209
19026.626
18911.925
23285.016
23386.519
23207.819
18828.765
18879.695
23063.261
24803.478
25101.87
25374.699
25321.951
25214.953
25406.178
25244.555
25060.207
38664.291
27149.885
26925.348
38264.905
28640.704
28978.481
52923.631
51560.379
29254.937
29177.78
53103.508
52907.494
53306.094
63246.254
62646.381
52969.094
57549.553
95228.51
96065.161
57827.335
58201.117
95834.854
96291.242
58183.656
27227.638
27324.316
39095.29
38676.588
53742.844
63014.401
63535.863
53695.685
23068.377
18745.756
18900.983
23253.775
23490.977
19108.266
23411.736
19179.401
27438.821
27304.269
39095.306
39239.849
38718.223
27021.221
27213.435
39192.19
53690.065
63165.261
63561.43
54044.732
54500.285
63708.883
63568.659
54270.51
29086.272
29296.431
53333.831
52641.274
58219.991
96159.056
96137.554
58407.227
58422.73
94957.179
95282.42
58319.329
28896.058
29156.413
52191.449
52370.108
15264.629
15657.473
18665.796
18516.881
22845.757
23036.501
23360.784
18937.117
19021.955
23308.415
15589.911
15566.759
23326.645
18930.286
23434.331
19039.068
18823.944
18873.917
23242.898
23105.683
27026.638
26815.044
38298.097
39068.471
53837.02
62770.934
63617.421
54296.836
27260.998
27367.139
39460.657
39280.571
63863.921
64004.284
54698.206
54669.761
27428.031
27313.014
39117.003
39639.198
27028.829
27256.126
39269.011
38874.011
54782.117
63473.244
64211.978
54847.949
63563.921
63981.589
54958.702
54591.126
6151.1254
6114.3065
10327.111
10235.499
6041.5606
6028.0066
10193.866
10116.821
24912.342
25170.127
25382.016
25285.858
25143.417
25321.851
25090.024
24874.649
29224.759
29038.193
52181.862
52931.514
28723.104
29033.894
52475.915
51755.429
58900.954
95367.825
95554.169
59156.702
94994.358
95371.154
59161.699
58913.377
29047.11
28769.747
51882.633
53104.434
58357.274
95274.805
95986.885
58759.234
29140.883
29298.71
53481.423
52649.08
95675.903
96550.127
58999.96
58974.089
4067.303
4036.3231
2211.8374
4753.3265
4736.8468
4003.549
3982.1347
2171.6359
4671.2026
4685.3931
6248.9224
6222.3914
10335.799
10440.443
15667.857
15703.417
6253.3778
6242.9701
10377.472
10448.035
15878.313
15504.677
6165.0763
6141.3359
10319.559
10218.294
15548.656
15521.988
6190.5781
6187.1463
10379.271
10333.479
15499.98
15836.009
23056.299
18739.805
18886.34
23229.795
23521.018
19112.245
19167.243
23416.955
27030.01
27205.748
39641.311
39130.794
63590.101
64118.854
53819.675
53584.48
39879.914
27525.161
27348.774
39398.767
54206.921
64300.337
63861.991
54222.558
23242.71
18865.955
23351.61
18974.697
18769.415
18800.728
23168.689
23005.94
53905.31
63626.639
64393.836
53986.023
53993.707
63919.291
63450.762
53738.151
27343.278
27223.626
39589.524
39064.054
26925.419
27176.813
38644.42
39040.447
18315.78
28134.487
47715.408
47289.651
28694.375
19113.349
23496.592
19187.061
23432.287
18863.769
18702.019
22979.791
23198.587
38792.84
26932.085
27175.825
39496.046
39996.552
27501.766
27383.022
39773.734
52356.652
63115.881
63884.29
53037.495
53682.098
64418.261
64242.105
53923.246
19014.656
19123.424
23506.035
23390.078
23307.64
18904.426
18942.287
23153.482
27395.481
27521.526
39678.774
40210.416
54083.795
63971.698
64834.533
54265.545
39917.37
27340.344
27089.841
39276.36
63921.818
64689.822