/*--------------------------------*- C++ -*----------------------------------*\
  =========                 |
  \\      /  F ield         | OpenFOAM: The Open Source CFD Toolbox
   \\    /   O peration     | Website:  https://openfoam.org
    \\  /    A nd           | Version:  7
     \\/     M anipulation  |
\*---------------------------------------------------------------------------*/
FoamFile
{
    version     2.0;
    format      ascii;
    class       volVectorField;
    location    "3000";
    object      U;
}
// * * * * * * * * * * * * * * * * * * * * * * * * * * * * * * * * * * * * * //

dimensions      [0 1 -1 0 0 0 0];

internalField   nonuniform List<vector> 
34378
(
(-3.1497843e+19 8.0414685e+18 6.6925061e+17)
(-2.0568451e+19 8.8067487e+18 -2.4792416e+18)
(-2.3839493e+19 4.2909622e+18 1.9380517e+18)
(-3.3753568e+19 6.5533121e+18 2.1934189e+18)
(-2.0687643e+19 2.0763893e+18 5.6285107e+18)
(-2.4444649e+19 5.9911346e+18 1.0412164e+18)
(-2.4894713e+19 2.1575355e+18 1.4185667e+18)
(-2.2607763e+19 5.1578045e+18 -3.9412231e+18)
(-2.0623667e+19 7.4893725e+18 1.4419989e+17)
(-2.1693212e+19 4.0389234e+18 -3.7726365e+18)
(-1.9840491e+19 5.146776e+18 1.9091363e+17)
(-2.4837429e+19 7.9565913e+18 -1.5811205e+18)
(-1.9421898e+19 2.4752364e+18 2.0090506e+18)
(-1.9970029e+19 3.4951447e+18 1.5896079e+18)
(-2.1132548e+19 1.5511375e+18 4.1906111e+18)
(-2.0349216e+19 1.6464308e+18 4.4490812e+18)
(-2.537244e+19 5.8684828e+18 1.8004223e+18)
(-2.4605631e+19 3.3744759e+18 2.7994083e+18)
(-2.0616941e+19 1.5616393e+18 6.1956705e+18)
(-2.1074825e+19 2.2009115e+18 5.2148132e+18)
(-1.8781435e+19 2.5092761e+18 1.5748932e+18)
(-1.9840851e+19 1.5369888e+18 3.9303102e+18)
(-2.4190651e+19 2.7165858e+18 3.5704776e+18)
(-2.3189999e+19 1.2751025e+18 -2.4466288e+18)
(-3.1969727e+19 3.3312337e+18 1.8636339e+18)
(-2.1539082e+19 1.5272373e+18 1.7445326e+18)
(-2.1965766e+19 1.6862827e+18 1.8092165e+18)
(-2.2018696e+19 1.5753621e+18 2.1780406e+18)
(-2.4642206e+19 2.7585615e+18 5.8108071e+17)
(-2.5572195e+19 1.8829522e+18 1.7840407e+18)
(-1.8334759e+19 1.6190751e+18 -2.7601587e+18)
(-1.5836353e+19 1.1946763e+18 -4.5404174e+18)
(-1.6666945e+19 1.1905134e+18 -4.3636208e+18)
(-1.4387269e+19 3.21935e+18 4.0594161e+17)
(-1.7947719e+19 2.5320631e+18 -3.6994974e+18)
(-2.3508328e+19 5.4612007e+18 -4.3151447e+18)
(-1.6880158e+19 1.3242338e+18 -4.5769856e+18)
(-1.5974709e+19 1.6029384e+18 -4.6812914e+18)
(-1.8372229e+19 1.7989227e+18 -2.8036956e+18)
(-1.892417e+19 2.517565e+18 -2.7268786e+18)
(-1.8047483e+19 2.5930679e+18 -3.7500621e+18)
(-1.8687002e+19 3.3191105e+18 -3.9477187e+18)
(-1.461964e+19 3.1336095e+18 6.7003614e+17)
(-2.109434e+19 7.4149896e+18 2.8709616e+17)
(-1.5362836e+19 4.8709968e+18 6.292883e+17)
(-2.3247354e+19 3.4588246e+18 -4.0304104e+18)
(-2.1209442e+19 4.0578806e+18 9.6894236e+17)
(-1.5796677e+19 1.4129547e+18 1.9912407e+18)
(-1.6049942e+19 2.0749526e+18 1.7011019e+18)
(-1.9977509e+19 3.5075349e+18 1.6038953e+18)
(-1.8832326e+19 1.1270036e+18 3.343606e+18)
(-1.8676889e+19 1.2037695e+18 3.5736683e+18)
(-1.5581807e+19 1.5125068e+18 1.7253705e+18)
(-1.5709351e+19 2.1463518e+18 1.4440732e+18)
(-1.8767803e+19 1.1722206e+18 3.1382706e+18)
(-1.8604151e+19 1.1966769e+18 3.3668261e+18)
(-2.065894e+19 1.5140292e+18 4.1194711e+18)
(-1.9990073e+19 1.3623398e+18 4.3565764e+18)
(-1.9466625e+19 2.3572531e+18 1.9913735e+18)
(-1.9710972e+19 2.0166523e+18 2.4476795e+18)
(-2.0107523e+19 1.3369689e+18 4.8101807e+18)
(-2.0529204e+19 3.2834191e+18 2.1607313e+18)
(-2.0980432e+19 1.2315909e+18 4.6638631e+18)
(-1.5518728e+19 1.5206892e+18 1.7468071e+18)
(-1.5807698e+19 2.2330237e+18 1.5190315e+18)
(-1.8338983e+19 1.2535139e+18 3.2376862e+18)
(-1.8599445e+19 1.2097621e+18 3.0268827e+18)
(-2.3653872e+19 2.2651025e+18 -2.8987605e+18)
(-2.4650436e+19 2.6591669e+18 3.8649841e+18)
(-2.462289e+19 1.1728593e+18 3.3477624e+18)
(-2.1924575e+19 1.7828373e+18 2.5238065e+18)
(-2.195066e+19 8.2180204e+17 2.2575721e+18)
(-2.1699227e+19 1.7030736e+18 -1.5326592e+18)
(-2.179645e+19 1.172554e+18 -1.0743755e+18)
(-2.1437754e+19 1.7206931e+18 8.0468402e+17)
(-2.0148466e+19 9.6345042e+17 -2.1722786e+18)
(-2.037796e+19 1.4548253e+18 -2.3731838e+18)
(-2.1619896e+19 9.3953743e+17 6.134566e+17)
(-2.349286e+19 2.3835262e+18 3.74905e+18)
(-2.1680939e+19 1.7912409e+18 6.8056909e+17)
(-2.0588498e+19 1.0771011e+18 -2.3886235e+18)
(-2.2736206e+19 7.7029363e+17 3.4938341e+18)
(-2.1286782e+19 9.0730032e+17 1.160335e+17)
(-2.0008008e+19 1.6274885e+18 6.5354233e+15)
(-2.0444462e+19 5.3101376e+17 3.2070872e+18)
(-2.0168211e+19 2.3014079e+18 3.6528244e+18)
(-1.9184948e+19 8.4113929e+17 -2.9622832e+18)
(-1.9767819e+19 1.9342196e+18 -3.2445333e+18)
(-2.1868413e+19 1.2904209e+18 -1.0464982e+18)
(-2.1635588e+19 1.8735411e+18 2.2438423e+18)
(-1.863152e+19 1.1050272e+18 1.5826902e+18)
(-1.8699904e+19 1.1199207e+18 1.8269091e+18)
(-1.898043e+19 1.1635641e+18 1.9250154e+18)
(-1.872456e+19 1.0335048e+18 1.7240555e+18)
(-1.8904803e+19 1.0586526e+18 1.8013799e+18)
(-1.9096307e+19 1.1719502e+18 2.1437151e+18)
(-2.1752762e+19 1.5349856e+18 1.7949676e+18)
(-2.1743358e+19 1.3761979e+18 1.9726825e+18)
(-2.1880288e+19 1.3299249e+18 2.3446452e+18)
(-2.2259639e+19 1.4408618e+18 2.1067427e+18)
(-2.3271723e+19 3.1163422e+18 -3.4559667e+18)
(-2.3001236e+19 2.9304928e+18 -3.282291e+18)
(-2.1134164e+19 2.1415504e+18 -4.1012043e+18)
(-1.9434771e+19 1.4282549e+18 -1.2495026e+18)
(-1.9603309e+19 1.7244358e+18 -1.0420088e+18)
(-1.1593005e+19 1.8142933e+18 -3.0901854e+18)
(-1.2029655e+19 2.3020824e+18 -3.2558269e+18)
(-1.0466895e+19 1.8088301e+18 1.4815465e+18)
(-1.0978198e+19 3.3323556e+18 1.4893287e+18)
(-1.5712793e+19 9.9812863e+17 -4.2749029e+18)
(-1.5345505e+19 1.1034376e+18 -4.321662e+18)
(-1.4398464e+19 1.6862759e+18 -3.2661199e+18)
(-1.40509e+19 1.18706e+18 -3.3131745e+18)
(-1.8941926e+19 1.6867228e+18 -2.871171e+18)
(-1.6749509e+19 1.5793905e+18 -4.7619174e+18)
(-1.7350601e+19 1.5981364e+18 -4.5115273e+18)
(-1.9130722e+19 2.7388553e+18 -2.6721941e+18)
(-2.0139741e+19 1.8126628e+18 -1.1144858e+18)
(-1.9494414e+19 1.6721352e+18 -1.3224452e+18)
(-2.1201464e+19 2.2216191e+18 -4.1812629e+18)
(-2.1226718e+19 2.0212462e+18 -4.2246548e+18)
(-1.8785886e+19 3.409527e+18 -3.8947951e+18)
(-1.571645e+19 1.0075438e+18 -4.3184031e+18)
(-1.5339883e+19 1.1686438e+18 -4.3515865e+18)
(-1.4080921e+19 1.2063689e+18 -3.3144146e+18)
(-1.4445472e+19 1.6558916e+18 -3.2683e+18)
(-1.567128e+19 9.6765938e+17 -4.2720715e+18)
(-1.5380202e+19 1.0634972e+18 -4.3514143e+18)
(-1.4389444e+19 1.6822923e+18 -3.3085897e+18)
(-1.410296e+19 1.1370403e+18 -3.31379e+18)
(-1.1564065e+19 1.7844383e+18 -3.0563896e+18)
(-1.204298e+19 2.1996162e+18 -3.229673e+18)
(-1.0536014e+19 1.6976542e+18 1.5841469e+18)
(-1.5043067e+19 4.9183317e+18 3.6121363e+17)
(-1.1100815e+19 3.1312696e+18 1.6043598e+18)
(-1.5076925e+19 2.9765895e+18 6.1213404e+17)
(-1.8533364e+19 2.3722355e+18 -3.8078454e+18)
(-1.1617273e+19 1.7298391e+18 -3.0725282e+18)
(-1.193908e+19 2.2452054e+18 -3.2733653e+18)
(-1.0725743e+19 3.1914412e+18 1.2458683e+18)
(-1.0507322e+19 1.7574897e+18 1.4546996e+18)
(-1.8913352e+19 1.5834844e+18 -2.7481163e+18)
(-1.6805522e+19 1.6170221e+18 -4.8607854e+18)
(-1.7682631e+19 1.5258335e+18 -4.7208245e+18)
(-1.944518e+19 2.5699287e+18 -2.7184846e+18)
(-1.8637806e+19 2.2109489e+18 -3.732352e+18)
(-1.9262012e+19 3.2483032e+18 -3.9656132e+18)
(-1.6166279e+19 4.7889937e+18 1.1647374e+18)
(-1.5425789e+19 2.5904028e+18 1.2546294e+18)
(-1.5897046e+19 2.1271231e+18 1.5980179e+18)
(-1.3627628e+19 8.2536142e+17 2.1671354e+18)
(-1.3768564e+19 1.3963672e+18 2.0081609e+18)
(-1.6415086e+19 8.4616221e+17 2.9491583e+18)
(-1.6245766e+19 7.9675162e+17 3.0250541e+18)
(-1.3420816e+19 9.2066081e+17 1.937375e+18)
(-1.3561773e+19 1.4700843e+18 1.8141838e+18)
(-1.6259957e+19 8.7305281e+17 2.7828214e+18)
(-1.6144485e+19 8.086919e+17 2.8723912e+18)
(-1.575632e+19 1.5800747e+18 1.8631721e+18)
(-1.8629277e+19 1.2109794e+18 3.497974e+18)
(-1.8744205e+19 1.1067869e+18 3.2855521e+18)
(-1.3505679e+19 9.3469772e+17 2.0365668e+18)
(-1.3476331e+19 1.4963821e+18 1.769257e+18)
(-1.622909e+19 8.9922243e+17 2.9223706e+18)
(-1.6273933e+19 9.3522433e+17 2.7245308e+18)
(-1.3221071e+19 1.043601e+18 1.8221373e+18)
(-1.3170688e+19 1.4453325e+18 1.6239004e+18)
(-1.6111069e+19 8.9207174e+17 2.6653946e+18)
(-1.6059126e+19 8.9637966e+17 2.7698554e+18)
(-1.5825308e+19 1.3978194e+18 2.0075839e+18)
(-1.6288159e+19 2.1888839e+18 1.778163e+18)
(-1.8369868e+19 1.0482294e+18 3.4142577e+18)
(-1.8823233e+19 1.0845771e+18 3.3101817e+18)
(-1.5895242e+19 1.1360818e+18 2.2332879e+18)
(-1.6326468e+19 1.9404886e+18 2.0747129e+18)
(-1.8801781e+19 8.9615177e+17 3.6587302e+18)
(-1.8369838e+19 9.471263e+17 3.7011007e+18)
(-1.867964e+19 1.0036386e+18 3.7365485e+18)
(-1.595552e+19 1.3345167e+18 2.135095e+18)
(-1.617021e+19 2.0386012e+18 1.8715544e+18)
(-1.8846316e+19 9.2880076e+17 3.5309102e+18)
(-1.3294157e+19 9.0289062e+17 1.952176e+18)
(-1.3455884e+19 1.4813734e+18 1.7856865e+18)
(-1.6199385e+19 9.5075421e+17 2.7023028e+18)
(-1.6035923e+19 8.6248289e+17 2.7805769e+18)
(-1.3091825e+19 1.0658802e+18 1.778105e+18)
(-1.316571e+19 1.6041683e+18 1.6119492e+18)
(-1.603495e+19 1.0073185e+18 2.5417242e+18)
(-1.5931792e+19 9.0921891e+17 2.6295174e+18)
(-2.070529e+19 1.4616901e+18 -2.2068233e+18)
(-2.1774357e+19 8.6739231e+17 8.8656041e+17)
(-2.1196174e+19 1.6530157e+18 6.2603609e+17)
(-1.9968179e+19 8.5320156e+17 -2.8333659e+18)
(-2.2108918e+19 1.6666561e+18 -1.1739786e+18)
(-2.1715319e+19 9.7570601e+17 -1.2797124e+18)
(-2.187224e+19 1.6795035e+18 2.6703273e+18)
(-2.2414355e+19 6.9907224e+17 2.6117637e+18)
(-2.1552128e+19 1.1192545e+18 -1.1187717e+18)
(-2.1628131e+19 1.7674023e+18 2.3864715e+18)
(-2.1685897e+19 7.0095643e+17 2.2579135e+18)
(-2.1682264e+19 1.5545778e+18 -1.4007807e+18)
(-1.9543952e+19 1.3702717e+18 2.426456e+18)
(-1.9171185e+19 1.1223816e+18 -1.5568305e+17)
(-1.9408679e+19 9.8261851e+17 9.7924128e+16)
(-1.9468877e+19 5.8702029e+17 2.2742619e+18)
(-1.9080642e+19 1.108754e+18 -1.3712731e+17)
(-1.9186943e+19 1.0010592e+18 4.3416065e+16)
(-1.9417326e+19 5.9560363e+17 2.3213678e+18)
(-1.9618046e+19 1.4605783e+18 2.4124866e+18)
(-1.9047026e+19 1.2560758e+18 8.9056803e+17)
(-1.8423955e+19 8.6792408e+17 -1.0698584e+18)
(-1.8422469e+19 1.1082516e+18 -1.1007803e+18)
(-1.9064435e+19 7.0099437e+17 8.323547e+17)
(-1.9231769e+19 1.3057327e+18 9.8231923e+17)
(-1.8485762e+19 1.0827882e+18 -1.1081367e+18)
(-1.853749e+19 8.9136094e+17 -9.4561457e+17)
(-1.9132956e+19 7.1191104e+17 8.2728653e+17)
(-1.869368e+19 1.1679502e+18 -3.6596261e+16)
(-1.858811e+19 1.3013659e+18 -1.4068533e+18)
(-1.8496338e+19 9.2219551e+17 -1.3488266e+18)
(-1.877884e+19 8.1581707e+17 -9.1212801e+16)
(-1.9082284e+19 9.8541135e+17 -1.7382794e+17)
(-1.8968683e+19 1.3012004e+18 -1.1421671e+17)
(-1.8394169e+19 9.7643651e+17 -1.5129408e+18)
(-1.8564953e+19 1.2987866e+18 -1.5426077e+18)
(-2.0087344e+19 1.3750644e+18 -1.2285709e+16)
(-1.8632105e+19 1.2900091e+18 -1.550869e+18)
(-1.8560103e+19 1.039974e+18 -1.5570347e+18)
(-1.9101194e+19 1.3624097e+18 -1.3608162e+17)
(-2.0249422e+19 5.2643206e+17 -2.0307141e+17)
(-1.9102933e+19 9.496995e+17 -1.6917411e+17)
(-1.8499307e+19 1.1943171e+18 -1.462652e+18)
(-1.8489552e+19 8.9604659e+17 -1.4384921e+18)
(-1.8587178e+19 1.1829022e+18 -1.7172094e+17)
(-1.8576409e+19 7.9460861e+17 -1.8557067e+17)
(-1.8758734e+19 9.3708274e+17 -2.8312873e+18)
(-1.910981e+19 6.7228772e+17 -2.4249037e+18)
(-1.8656983e+19 1.1826696e+18 -1.0301699e+17)
(-1.8457025e+19 1.2980747e+18 -1.5384056e+18)
(-1.8481572e+19 8.8779604e+17 -1.4652643e+18)
(-1.8665409e+19 8.5094714e+17 -1.5197439e+17)
(-1.8591586e+19 1.3461332e+18 -1.6277249e+18)
(-1.8656551e+19 1.0114606e+18 -1.6069727e+18)
(-1.9049777e+19 1.0090223e+18 -2.7098785e+17)
(-1.9064601e+19 1.3154098e+18 -2.3365834e+17)
(-2.0874884e+19 1.5829682e+18 -6.9084922e+16)
(-2.0400516e+19 8.4230441e+17 -3.1491504e+17)
(-1.8800738e+19 7.2612414e+17 -2.8241458e+18)
(-1.8752745e+19 1.335936e+18 -2.9086238e+18)
(-1.6921159e+19 4.8115743e+17 5.1363494e+17)
(-2.0567354e+19 1.5488905e+18 1.974603e+18)
(-2.5325761e+19 1.936e+18 4.2190165e+18)
(-1.6382582e+19 4.7435668e+17 5.4561763e+17)
(-1.9930622e+19 1.5926054e+17 1.6914031e+18)
(-1.5983053e+19 6.3896003e+17 -5.375189e+18)
(-1.5454228e+19 -5.8530248e+17 -5.73254e+18)
(-2.5359703e+19 8.1772941e+17 3.8668134e+18)
(-1.9775934e+19 1.4180343e+18 1.7893598e+18)
(-1.5931743e+19 3.1542911e+17 5.2041485e+17)
(-1.6240079e+19 5.5174674e+17 4.1350477e+17)
(-1.9756853e+19 3.7368235e+17 1.5303093e+18)
(-1.9030656e+19 1.2830401e+18 8.2465772e+17)
(-1.83908e+19 1.1160883e+18 -1.093275e+18)
(-1.8509599e+19 9.8170153e+17 -9.0855251e+17)
(-1.897937e+19 7.0975596e+17 6.9985845e+17)
(-1.9174586e+19 1.2695435e+18 2.1456882e+18)
(-1.9012639e+19 1.1447544e+18 -1.9179247e+17)
(-1.9206118e+19 9.7145161e+17 -1.0198566e+16)
(-1.920833e+19 5.6346824e+17 2.0640513e+18)
(-1.5878215e+19 8.9663809e+17 1.5113334e+18)
(-1.5752305e+19 8.7400433e+17 1.4313876e+18)
(-1.5899191e+19 8.3080648e+17 1.4590839e+18)
(-1.5918832e+19 8.2465628e+17 1.5966661e+18)
(-1.6082639e+19 8.4419069e+17 1.6733587e+18)
(-1.5986466e+19 8.0216409e+17 1.4893236e+18)
(-1.5981118e+19 8.5713731e+17 1.6154949e+18)
(-1.5816392e+19 7.611218e+17 1.5200655e+18)
(-1.6074284e+19 7.9339166e+17 1.6512737e+18)
(-1.5968743e+19 7.443853e+17 1.5774608e+18)
(-1.612504e+19 7.8664176e+17 1.7765579e+18)
(-1.6101652e+19 7.4214918e+17 1.6276208e+18)
(-1.8820026e+19 1.0047606e+18 1.8728043e+18)
(-1.9016857e+19 1.1764559e+18 2.0417856e+18)
(-1.8868965e+19 9.7439048e+17 1.9879833e+18)
(-1.8941495e+19 1.022026e+18 1.8092966e+18)
(-1.9061665e+19 8.9681053e+17 2.0825434e+18)
(-1.8912858e+19 9.6042057e+17 2.2204541e+18)
(-1.9261811e+19 1.0435177e+18 2.2471451e+18)
(-1.9064916e+19 8.738917e+17 2.0567017e+18)
(-2.3742384e+19 3.3724448e+18 -3.8016975e+18)
(-2.3038189e+19 3.1282536e+18 -3.6357851e+18)
(-2.3414439e+19 2.5354352e+18 -2.6240849e+18)
(-2.3240086e+19 2.2745176e+18 -2.4640065e+18)
(-2.1425366e+19 1.7670182e+18 -2.9364169e+18)
(-1.7169814e+19 1.1984781e+18 -2.7370122e+18)
(-1.703109e+19 1.1924607e+18 -2.8863642e+18)
(-1.7883965e+19 1.4326202e+18 -2.8686198e+18)
(-1.8104502e+19 5.0042079e+17 -2.8061448e+18)
(-9.7806113e+18 7.048585e+17 -4.0876379e+18)
(-9.8919944e+18 6.0307301e+17 -3.979347e+18)
(-9.0263439e+18 1.1117961e+18 -2.7967288e+18)
(-9.2490577e+18 1.4309089e+18 -2.6988704e+18)
(-9.7975716e+18 6.861902e+17 -4.0565784e+18)
(-9.9039378e+18 6.2497899e+17 -3.9779716e+18)
(-9.0101367e+18 1.0947453e+18 -2.7538847e+18)
(-9.181815e+18 1.493527e+18 -2.7927438e+18)
(-6.604808e+18 1.4329175e+18 -7.7572738e+17)
(-6.8419529e+18 1.5183212e+18 -9.1252063e+17)
(-9.4540316e+18 1.8292974e+18 2.4076478e+18)
(-9.1819146e+18 7.6061473e+17 2.4238263e+18)
(-8.971421e+18 9.4709498e+17 2.2202373e+18)
(-8.9785227e+18 1.9437289e+18 2.0351387e+18)
(-6.6255944e+18 1.4817278e+18 -6.9710464e+17)
(-6.6909255e+18 1.6067545e+18 -1.1551879e+18)
(-1.6996074e+19 1.6582532e+18 -4.5645183e+18)
(-1.7002769e+19 1.7104102e+18 -4.5406651e+18)
(-2.1711115e+19 2.2464628e+18 -4.3011723e+18)
(-2.0254842e+19 1.6838426e+18 -1.4291068e+18)
(-1.978647e+19 1.893757e+18 -1.1896957e+18)
(-2.138264e+19 2.142852e+18 -4.1885152e+18)
(-1.8965821e+19 7.4857182e+17 -3.0455524e+18)
(-1.7874354e+19 1.7338412e+18 -3.0022636e+18)
(-2.1575553e+19 1.921946e+18 -2.998105e+18)
(-1.7038684e+19 1.230175e+18 -2.9081814e+18)
(-1.7153446e+19 1.1993477e+18 -2.7774865e+18)
(-2.1666557e+19 1.8113364e+18 -3.0291508e+18)
(-1.7104748e+19 1.2066491e+18 -2.9329578e+18)
(-1.7076175e+19 1.1679643e+18 -2.7912246e+18)
(-1.5583014e+19 1.1433045e+18 -4.3375838e+18)
(-1.5860956e+19 1.0718754e+18 -4.2286591e+18)
(-1.4501931e+19 1.7430298e+18 -3.2805729e+18)
(-1.4247869e+19 1.1684693e+18 -3.2936995e+18)
(-1.7065852e+19 1.7030878e+18 -4.5873127e+18)
(-1.7147265e+19 1.6463957e+18 -4.6279463e+18)
(-1.7057204e+19 1.6522481e+18 -4.6176866e+18)
(-1.7105465e+19 1.7206368e+18 -4.5686611e+18)
(-1.1982676e+19 2.2841433e+18 -3.2447235e+18)
(-9.7600995e+18 7.303734e+17 -4.0873491e+18)
(-9.8975443e+18 6.0775808e+17 -3.9770116e+18)
(-8.9708366e+18 1.0877226e+18 -2.7854857e+18)
(-9.2466708e+18 1.3858867e+18 -2.6962349e+18)
(-9.8069463e+18 6.6387461e+17 -4.0659952e+18)
(-9.9368455e+18 5.9147886e+17 -3.990486e+18)
(-9.0290471e+18 1.0323191e+18 -2.7558045e+18)
(-9.2553563e+18 1.4191837e+18 -2.7921211e+18)
(-6.5828845e+18 1.4218685e+18 -7.7663439e+17)
(-6.8685237e+18 1.4575701e+18 -9.3479747e+17)
(-9.4432243e+18 7.1099918e+17 2.5215236e+18)
(-9.7803323e+18 1.7301539e+18 2.5534134e+18)
(-1.0736911e+19 3.2294077e+18 1.2403045e+18)
(-1.1721897e+19 1.7889023e+18 -3.0614805e+18)
(-1.0553568e+19 1.9011498e+18 1.4631439e+18)
(-6.6530552e+18 1.4048487e+18 -7.6839024e+17)
(-9.305802e+18 8.1351975e+17 2.3454294e+18)
(-9.4412641e+18 1.7943799e+18 2.2715075e+18)
(-6.8015693e+18 1.5034271e+18 -1.1419445e+18)
(-1.1926815e+19 1.6601027e+18 -3.1600926e+18)
(-1.2311303e+19 2.2555804e+18 -3.3057965e+18)
(-1.0853e+19 1.6624433e+18 1.6021704e+18)
(-1.1267314e+19 3.2864065e+18 1.5193582e+18)
(-1.6000862e+19 1.031723e+18 -4.3940815e+18)
(-1.5664413e+19 1.1299327e+18 -4.4706669e+18)
(-1.4652582e+19 1.6635613e+18 -3.2971495e+18)
(-1.4343305e+19 1.0927201e+18 -3.3538178e+18)
(-9.8064506e+18 6.816114e+17 -4.0833708e+18)
(-9.9381653e+18 6.0312743e+17 -3.9753582e+18)
(-9.0328891e+18 1.0682927e+18 -2.7736226e+18)
(-9.2947876e+18 1.4343235e+18 -2.7094045e+18)
(-9.8271369e+18 6.8339282e+17 -4.0695745e+18)
(-9.934972e+18 6.0669303e+17 -3.9982271e+18)
(-9.0345578e+18 1.0943659e+18 -2.7742456e+18)
(-9.2009736e+18 1.4505755e+18 -2.8228616e+18)
(-6.649646e+18 1.4902972e+18 -7.6630895e+17)
(-6.7248003e+18 1.5474961e+18 -1.1991299e+18)
(-9.0740668e+18 9.3121528e+17 2.2517533e+18)
(-9.1288656e+18 1.7797733e+18 2.0756035e+18)
(-6.6323361e+18 1.4082914e+18 -7.883626e+17)
(-9.3746122e+18 7.811722e+17 2.4471009e+18)
(-6.8807592e+18 1.5361643e+18 -1.006678e+18)
(-9.5116202e+18 1.8474576e+18 2.3399346e+18)
(-2.1808293e+19 2.1845444e+18 -4.2770381e+18)
(-1.9886131e+19 1.705004e+18 -1.4190807e+18)
(-2.0235413e+19 1.9484395e+18 -1.2205022e+18)
(-2.1790726e+19 2.0862138e+18 -4.3425941e+18)
(-1.5846403e+19 9.508357e+17 -4.3834448e+18)
(-1.5485977e+19 1.0444504e+18 -4.4043898e+18)
(-1.4554862e+19 1.5480502e+18 -3.2037876e+18)
(-1.4176757e+19 9.5301687e+17 -3.2184122e+18)
(-1.5883934e+19 9.6939659e+17 -4.3647389e+18)
(-1.5607006e+19 1.0420373e+18 -4.4507516e+18)
(-1.4596851e+19 1.6193708e+18 -3.3063854e+18)
(-1.4283234e+19 9.9553606e+17 -3.2914933e+18)
(-1.1898957e+19 1.5766983e+18 -3.0754147e+18)
(-1.0906985e+19 1.5826089e+18 1.808498e+18)
(-1.2264717e+19 2.157378e+18 -3.2826247e+18)
(-1.1305638e+19 3.1555883e+18 1.7225058e+18)
(-1.1818005e+19 1.4958459e+18 -3.0404068e+18)
(-1.102686e+19 1.3717223e+18 2.1206508e+18)
(-1.2320671e+19 2.0919581e+18 -3.2044412e+18)
(-1.1543151e+19 3.0540798e+18 2.0356671e+18)
(-1.3464089e+19 1.0542822e+18 1.9803656e+18)
(-1.3554835e+19 1.4432129e+18 1.846101e+18)
(-1.6240545e+19 8.2656268e+17 2.8277551e+18)
(-1.6163637e+19 8.659399e+17 2.9067987e+18)
(-1.0602705e+19 9.6533409e+17 2.4768344e+18)
(-1.0425753e+19 3.0790703e+17 2.6159823e+18)
(-1.4434003e+19 5.6469042e+17 2.6104258e+18)
(-1.4593735e+19 7.1139468e+17 2.6972755e+18)
(-1.0343709e+19 1.0246304e+18 2.3362463e+18)
(-1.0272534e+19 3.5313808e+17 2.4351103e+18)
(-1.4401582e+19 5.8869485e+17 2.5571926e+18)
(-1.4462614e+19 7.2454249e+17 2.5138721e+18)
(-1.0459393e+19 1.017738e+18 2.3455712e+18)
(-1.0189874e+19 3.1448686e+17 2.4848955e+18)
(-1.4405787e+19 6.320726e+17 2.5996563e+18)
(-1.4489132e+19 7.5238722e+17 2.5040788e+18)
(-1.0251456e+19 1.0774924e+18 2.3285978e+18)
(-1.0164965e+19 4.367894e+17 2.4261086e+18)
(-1.4324372e+19 6.8705895e+17 2.6230137e+18)
(-1.4366762e+19 7.4294419e+17 2.4941187e+18)
(-1.3683595e+19 9.8708421e+17 2.1392344e+18)
(-1.382176e+19 1.5661364e+18 1.9287323e+18)
(-1.6459889e+19 9.3654219e+17 2.8301629e+18)
(-1.6301874e+19 8.772749e+17 2.9331955e+18)
(-1.0603007e+19 1.0381744e+18 2.3884297e+18)
(-1.0527283e+19 3.7726448e+17 2.5585541e+18)
(-1.4377056e+19 6.5397658e+17 2.568222e+18)
(-1.4604564e+19 8.0219794e+17 2.6064296e+18)
(-1.0058663e+19 4.2750434e+17 2.351671e+18)
(-1.0134348e+19 1.1176283e+18 2.2552412e+18)
(-1.4248033e+19 6.7926803e+17 2.432822e+18)
(-1.4324832e+19 8.166305e+17 2.4095982e+18)
(-1.0355676e+19 1.1187706e+18 2.3352619e+18)
(-1.0134798e+19 4.3608106e+17 2.4859752e+18)
(-1.4330624e+19 7.2619928e+17 2.5709835e+18)
(-1.4418819e+19 8.6484815e+17 2.5515285e+18)
(-1.0150997e+19 1.0738089e+18 2.3466277e+18)
(-1.0021238e+19 5.2913129e+17 2.3973067e+18)
(-1.416668e+19 7.2484536e+17 2.4841193e+18)
(-1.4267978e+19 7.784822e+17 2.4825592e+18)
(-1.3714117e+19 7.9998016e+17 2.2050904e+18)
(-1.3970334e+19 1.4448624e+18 2.0990112e+18)
(-1.6160428e+19 7.1040058e+17 2.9898334e+18)
(-1.6399999e+19 7.8626554e+17 2.9443709e+18)
(-1.3626119e+19 9.95827e+17 2.0750556e+18)
(-1.3600166e+19 1.5094902e+18 1.8277011e+18)
(-1.6312692e+19 8.9144944e+17 2.7926986e+18)
(-1.6293976e+19 8.5808442e+17 2.9989527e+18)
(-1.6086345e+19 1.8221461e+18 1.9356242e+18)
(-1.3875461e+19 6.1766309e+17 2.399887e+18)
(-1.4181571e+19 1.2805767e+18 2.3379019e+18)
(-1.6426824e+19 6.6986609e+17 3.1373856e+18)
(-1.6212064e+19 6.2235842e+17 3.1523157e+18)
(-1.3871431e+19 8.0496734e+17 2.3199863e+18)
(-1.4026186e+19 1.396002e+18 2.1854487e+18)
(-1.6417651e+19 7.1684502e+17 3.1149361e+18)
(-1.6297721e+19 6.7287372e+17 3.1689242e+18)
(-1.3999781e+19 8.1031452e+17 2.3972267e+18)
(-1.6399996e+19 7.1524776e+17 3.1739841e+18)
(-1.4176081e+19 1.4502958e+18 2.264122e+18)
(-1.6585726e+19 7.6582999e+17 3.124122e+18)
(-1.3773287e+19 9.3231975e+17 2.21958e+18)
(-1.3745206e+19 1.3978591e+18 2.0254849e+18)
(-1.6368119e+19 7.2959036e+17 3.0295285e+18)
(-1.6330766e+19 7.5960852e+17 3.137689e+18)
(-1.0286984e+19 1.0509533e+18 2.3625244e+18)
(-1.0255905e+19 3.6765641e+17 2.5899332e+18)
(-1.4368963e+19 7.9127674e+17 2.4935709e+18)
(-1.4348592e+19 6.7279885e+17 2.6139728e+18)
(-1.0335496e+19 1.1262443e+18 2.3287557e+18)
(-1.0099877e+19 4.7383493e+17 2.375607e+18)
(-1.4253096e+19 6.9376686e+17 2.443283e+18)
(-1.4387262e+19 8.5370356e+17 2.5041557e+18)
(-1.0125889e+19 4.4031606e+17 2.4851469e+18)
(-1.4245268e+19 7.4952332e+17 2.5194981e+18)
(-1.430948e+19 8.8844161e+17 2.4247423e+18)
(-1.0346165e+19 1.1897499e+18 2.3339851e+18)
(-1.0031477e+19 6.5001342e+17 2.4138368e+18)
(-1.0073009e+19 1.2548569e+18 2.2755809e+18)
(-1.4208557e+19 9.003686e+17 2.4208592e+18)
(-1.4139935e+19 8.3349198e+17 2.5376961e+18)
(-2.8453439e+19 1.621648e+18 -4.8236938e+18)
(-1.8823064e+19 7.4405015e+17 1.1727118e+16)
(-2.085726e+19 6.4933278e+17 2.8321739e+17)
(-1.9607454e+19 1.2576692e+18 -2.3200747e+18)
(-1.8575844e+19 1.0303958e+18 -1.6037772e+18)
(-1.8458864e+19 1.2331884e+18 -1.6858135e+18)
(-1.9021513e+19 1.3570504e+18 -4.9404354e+16)
(-1.8938623e+19 8.9117425e+17 -8.3371028e+16)
(-1.842379e+19 1.1833108e+18 -1.4227027e+18)
(-1.8452567e+19 9.1397528e+17 -1.360995e+18)
(-1.8604953e+19 1.2125165e+18 -8.163807e+16)
(-1.8582863e+19 7.5132395e+17 -1.0831196e+17)
(-1.8619122e+19 1.1053037e+18 -1.139896e+17)
(-1.8321579e+19 1.2385243e+18 -1.5984004e+18)
(-1.8618795e+19 7.7497021e+17 -1.3705198e+17)
(-1.8316701e+19 8.2025356e+17 -1.5164639e+18)
(-1.8447255e+19 1.2861578e+18 -1.8350929e+18)
(-1.8855791e+19 9.3588687e+17 -2.2583172e+17)
(-1.9409951e+19 1.2755483e+18 1.0778799e+18)
(-1.8670213e+19 8.8176452e+17 -9.8304152e+17)
(-1.9351906e+19 5.9466324e+17 9.7396753e+17)
(-1.8752107e+19 1.1018972e+18 -9.0646248e+17)
(-1.8479775e+19 1.0551413e+18 -1.1431768e+18)
(-1.8971689e+19 1.1949485e+18 9.2664006e+17)
(-1.9071202e+19 6.4296985e+17 8.8143628e+17)
(-1.928856e+19 1.0894576e+18 -7.6805189e+16)
(-1.9277523e+19 8.6851226e+17 6.108681e+16)
(-1.9325804e+19 1.2090445e+18 2.4715223e+18)
(-1.9461419e+19 4.1775591e+17 2.3951872e+18)
(-1.9589741e+19 9.3169164e+17 1.9018135e+17)
(-1.9695903e+19 1.3290954e+18 2.5503627e+18)
(-1.9468057e+19 1.0084201e+18 2.6928531e+16)
(-1.9615569e+19 3.9680699e+17 2.4703126e+18)
(-1.8459194e+19 8.3169382e+17 -1.0112029e+18)
(-1.9009101e+19 1.1468407e+18 8.0281501e+17)
(-1.9022179e+19 6.1724462e+17 7.1841864e+17)
(-1.8392142e+19 1.0466335e+18 -1.1480787e+18)
(-1.9197271e+19 7.9254257e+17 -6.7568372e+16)
(-1.9260185e+19 1.1610646e+18 2.2490132e+18)
(-1.916714e+19 1.0909744e+18 -1.3670441e+17)
(-1.9389849e+19 4.8707515e+17 2.2036889e+18)
(-1.9170115e+19 1.0483659e+18 -4.7722068e+16)
(-1.9218137e+19 9.0712927e+17 4.4726696e+16)
(-1.9456099e+19 1.4565258e+18 2.4825499e+18)
(-1.9372911e+19 5.3216687e+17 2.3662326e+18)
(-1.8445462e+19 1.0353615e+18 -1.0457273e+18)
(-1.8997179e+19 1.2155329e+18 9.0671998e+17)
(-1.8488555e+19 8.6446524e+17 -9.9194154e+17)
(-1.9002117e+19 5.9379441e+17 8.6318772e+17)
(-2.0819447e+19 2.9015929e+17 2.1655646e+18)
(-1.7248128e+19 7.3845361e+17 3.5597326e+17)
(-1.6541753e+19 6.6200836e+17 7.4904472e+17)
(-1.6735711e+19 9.947278e+17 2.3276755e+18)
(-1.6472194e+19 7.7190096e+17 6.3065077e+17)
(-1.6761599e+19 4.0894331e+17 2.2568519e+18)
(-1.6000277e+19 6.1516389e+17 -2.0853064e+17)
(-1.591779e+19 7.0177175e+17 -2.5489741e+17)
(-1.6507643e+19 8.9165081e+17 1.2655505e+18)
(-1.6459048e+19 4.4892376e+17 1.2206201e+18)
(-1.604454e+19 5.8746018e+17 -1.6771305e+17)
(-1.6590715e+19 9.1889765e+17 1.3173858e+18)
(-1.6010139e+19 6.954747e+17 -2.4317059e+17)
(-1.6564227e+19 4.7418734e+17 1.2303702e+18)
(-1.6445585e+19 6.6835466e+17 6.6734466e+17)
(-1.666747e+19 1.0047813e+18 2.2304618e+18)
(-1.6381144e+19 7.5785686e+17 6.1731769e+17)
(-1.6643738e+19 3.9684893e+17 2.2157193e+18)
(-1.5944187e+19 6.4815353e+17 -2.0865257e+17)
(-1.5864076e+19 7.2771554e+17 -2.3543886e+17)
(-1.6424432e+19 9.1492522e+17 1.2477152e+18)
(-1.6394322e+19 4.5591747e+17 1.2269059e+18)
(-1.5975692e+19 6.2411717e+17 -2.3388868e+17)
(-1.6569389e+19 9.5208214e+17 1.216813e+18)
(-1.5944297e+19 7.3459706e+17 -2.9345588e+17)
(-1.6543129e+19 5.2227203e+17 1.146926e+18)
(-1.635324e+19 6.8640269e+17 6.5067529e+17)
(-1.6260369e+19 7.4846253e+17 6.1875318e+17)
(-1.6593789e+19 1.0474751e+18 2.1988921e+18)
(-1.6551084e+19 4.0775744e+17 2.2056239e+18)
(-1.6658287e+19 1.0001129e+18 2.183567e+18)
(-1.6483485e+19 7.0717674e+17 6.5899633e+17)
(-1.6383113e+19 8.020847e+17 5.570586e+17)
(-1.6663356e+19 4.3812335e+17 2.1235846e+18)
(-1.5554503e+19 5.621919e+17 -7.579985e+17)
(-1.5930337e+19 8.0593217e+17 3.3011895e+17)
(-1.5526248e+19 7.7435994e+17 -8.0240905e+17)
(-1.5926338e+19 5.17508e+17 2.9042047e+17)
(-1.525742e+19 5.6176326e+17 -8.7815361e+17)
(-1.5247093e+19 7.2658722e+17 -9.1331287e+17)
(-1.5682729e+19 7.8866533e+17 1.0580459e+16)
(-1.5664001e+19 5.5503134e+17 -2.9629415e+16)
(-1.5274191e+19 6.3210508e+17 -8.2688659e+17)
(-1.5186466e+19 7.4349126e+17 -8.6074533e+17)
(-1.5699352e+19 8.4417693e+17 8.4441501e+16)
(-1.5616656e+19 5.4632635e+17 4.1267525e+16)
(-1.5545212e+19 6.0654453e+17 -7.0580002e+17)
(-1.5464621e+19 7.5522176e+17 -7.4879739e+17)
(-1.5891118e+19 8.2946972e+17 3.4725218e+17)
(-1.5826861e+19 4.8837254e+17 3.2199056e+17)
(-1.5623966e+19 5.4456751e+17 -7.005005e+17)
(-1.6003689e+19 7.8319677e+17 3.9293661e+17)
(-1.5570118e+19 7.4474137e+17 -7.6348826e+17)
(-1.5973144e+19 4.6992583e+17 3.3575062e+17)
(-1.5296726e+19 5.7770611e+17 -8.302509e+17)
(-1.521515e+19 6.9042525e+17 -8.7438293e+17)
(-1.5731156e+19 7.9745399e+17 9.2486594e+16)
(-1.5653026e+19 5.0587256e+17 4.1121116e+16)
(-1.5283025e+19 5.4269638e+17 -8.2957104e+17)
(-1.5777195e+19 8.0173823e+17 9.9504122e+16)
(-1.5252982e+19 6.9825484e+17 -8.72607e+17)
(-1.5718185e+19 5.3531791e+17 3.5315446e+16)
(-1.558528e+19 5.6116507e+17 -7.1941243e+17)
(-1.5506486e+19 7.2397794e+17 -7.6905139e+17)
(-1.5930739e+19 7.9697232e+17 3.4332732e+17)
(-1.586604e+19 4.6769163e+17 3.0189398e+17)
(-1.5306257e+19 5.6545532e+17 -9.3467465e+17)
(-1.5545515e+19 7.5395657e+17 -1.4634436e+17)
(-1.5266917e+19 7.7254738e+17 -9.7881434e+17)
(-1.5496873e+19 5.3408132e+17 -1.8554379e+17)
(-1.539145e+19 6.4267678e+17 -8.9603002e+17)
(-1.5333927e+19 7.4789584e+17 -9.3914083e+17)
(-1.5771588e+19 8.4942229e+17 -1.1856281e+17)
(-1.5680176e+19 5.9589388e+17 -1.7490603e+17)
(-1.5327317e+19 6.025302e+17 -9.369008e+17)
(-1.5722413e+19 8.2256615e+17 -1.647454e+17)
(-1.5315018e+19 7.6399894e+17 -9.71398e+17)
(-1.5659581e+19 6.1603275e+17 -2.1409889e+17)
(-1.533577e+19 5.9254151e+17 -9.0689998e+17)
(-1.5255794e+19 7.4336829e+17 -9.5535551e+17)
(-1.5543519e+19 7.7585363e+17 -1.598346e+17)
(-1.5459836e+19 5.1155961e+17 -1.9919526e+17)
(-1.5660723e+19 7.2747274e+17 -8.1746845e+17)
(-1.5879142e+19 8.9308612e+17 -2.516346e+17)
(-1.5618671e+19 8.6371066e+17 -8.6169265e+17)
(-1.5812507e+19 6.624851e+17 -3.0174593e+17)
(-1.5564104e+19 6.8575896e+17 -8.4582199e+17)
(-1.5807805e+19 8.1867578e+17 -3.0400505e+17)
(-1.5562485e+19 8.8820061e+17 -8.7425135e+17)
(-1.5765219e+19 6.5359185e+17 -3.3272955e+17)
(-1.6311895e+19 9.5180533e+17 -2.4250561e+17)
(-1.6286983e+19 7.7781007e+17 -2.546269e+17)
(-1.8666068e+19 1.1943315e+18 -4.3520677e+17)
(-1.6061223e+19 7.2026323e+17 -1.3492367e+18)
(-1.6077576e+19 8.6267391e+17 -1.3302808e+18)
(-1.6464072e+19 1.0316195e+18 -1.6593059e+17)
(-1.6338577e+19 7.6038298e+17 -2.4142084e+17)
(-1.8857505e+19 9.0330859e+17 -4.2585364e+17)
(-1.6150947e+19 8.4172927e+17 -1.3065137e+18)
(-1.6217166e+19 8.1871456e+17 -1.1878205e+18)
(-1.8454459e+19 1.2708253e+18 -1.9449336e+18)
(-1.8275721e+19 8.8715159e+17 -1.9152837e+18)
(-1.6461891e+19 1.0422298e+18 -1.7439537e+17)
(-1.6284877e+19 7.3773989e+17 -2.340394e+17)
(-1.8991481e+19 9.7942417e+17 -4.6479326e+17)
(-1.6130673e+19 8.2772395e+17 -1.2810881e+18)
(-1.6263239e+19 8.3752911e+17 -1.1719404e+18)
(-1.6441599e+19 9.8639113e+17 -2.7080979e+17)
(-1.6321913e+19 7.8343269e+17 -3.2409801e+17)
(-1.8922121e+19 1.3200332e+18 -4.8079638e+17)
(-1.6148973e+19 8.5412843e+17 -1.36343e+18)
(-1.6245596e+19 7.6605987e+17 -1.2762893e+18)
(-1.5667589e+19 7.1411995e+17 -8.7092676e+17)
(-1.5772067e+19 7.7283586e+17 -3.8860307e+17)
(-1.5614861e+19 8.9656968e+17 -9.1046848e+17)
(-1.5732067e+19 6.2765916e+17 -4.0964026e+17)
(-1.8488025e+19 8.9800259e+17 -2.0107106e+18)
(-1.862345e+19 1.3191019e+18 -1.9838034e+18)