/*--------------------------------*- C++ -*----------------------------------*\
  =========                 |
  \\      /  F ield         | OpenFOAM: The Open Source CFD Toolbox
   \\    /   O peration     | Website:  https://openfoam.org
    \\  /    A nd           | Version:  7
     \\/     M anipulation  |
\*---------------------------------------------------------------------------*/
FoamFile
{
    version     2.0;
    format      ascii;
    class       volScalarField;
    location    "1000";
    object      k;
}
// * * * * * * * * * * * * * * * * * * * * * * * * * * * * * * * * * * * * * //

dimensions      [0 2 -2 0 0 0 0];

internalField   nonuniform List<scalar> 
33730
(
1.5199546
1.5227407
1.517065
1.5184628
1.5204454
1.5185833
1.5217842
1.5204582
1.5227389
1.5196541
1.5196662
1.5239475
1.5166657
1.5163631
1.5166006
1.5167401
1.5187034
1.517803
1.5184447
1.5175111
1.5186809
1.518034
1.5175609
1.5187712
1.5208163
1.5184689
1.5212791
1.5222726
1.5225924
1.5219465
1.5241032
1.5196873
1.5189224
1.5242026
1.5239119
1.5240633
1.5243672
1.5196948
1.5189301
1.518337
1.5180441
1.5184071
1.518073
1.521849
1.5222121
1.5161232
1.5164949
1.516918
1.5166444
1.517685
1.5162282
1.5164278
1.516306
1.5160379
1.5179471
1.5162328
1.5166776
1.516
1.5163196
1.5165352
1.5163392
1.5160548
1.5167545
1.5214243
1.5185398
1.5189231
1.5172758
1.5175401
1.517777
1.5179856
1.51715
1.5175806
1.517151
1.5175865
1.5179103
1.5201157
1.5181953
1.5174293
1.5179096
1.5172191
1.5171896
1.5176512
1.5176221
1.5209463
1.5204827
1.52129
1.5206018
1.5207967
1.5214716
1.5215211
1.5214717
1.5220957
1.5215982
1.5221304
1.5215385
1.5222955
1.5219023
1.5250162
1.5247644
1.5248467
1.5251102
1.5219696
1.5183298
1.5180767
1.5179149
1.5176125
1.5177076
1.5174385
1.5176789
1.5179388
1.5190255
1.5190249
1.517642
1.5179457
1.5183754
1.5180954
1.5176591
1.5174189
1.5177185
1.5179258
1.5194374
1.5193669
1.5194223
1.519387
1.5199389
1.5193827
1.5194425
1.5193762
1.5178522
1.5175952
1.5174226
1.5174292
1.5180518
1.5207131
1.5177229
1.5174642
1.5174926
1.5211115
1.5212607
1.5213189
1.521791
1.5168997
1.516488
1.5160592
1.5163674
1.5168697
1.5165624
1.517617
1.5179697
1.5177223
1.5173262
1.516159
1.5163569
1.5162166
1.5159818
1.5175758
1.5172946
1.5181844
1.5178862
1.516123
1.5162292
1.5163112
1.5161072
1.5163946
1.5161138
1.5164946
1.5169352
1.5159731
1.5159764
1.5159764
1.5159844
1.5160042
1.5159915
1.516372
1.5163489
1.5163596
1.5166252
1.5166023
1.5162382
1.5160122
1.5160462
1.5163728
1.5163522
1.5160423
1.516014
1.5160335
1.5160016
1.5162084
1.5166075
1.5165009
1.5168599
1.5216723
1.5212771
1.5218702
1.5215728
1.5185128
1.5187493
1.5183887
1.5178751
1.518573
1.5178107
1.5192289
1.5184112
1.5170059
1.5173521
1.5170379
1.5173739
1.5171692
1.5173772
1.5176988
1.517553
1.5169266
1.5169189
1.5172346
1.5172323
1.5169172
1.5172344
1.516924
1.5172374
1.5196126
1.5178803
1.5174845
1.5180627
1.5178561
1.5199249
1.5204669
1.5201935
1.5171937
1.5175481
1.5171176
1.5174993
1.5169894
1.5169617
1.5173002
1.5173132
1.5169559
1.5169553
1.5172765
1.5172846
1.5200877
1.5200277
1.52071
1.5206749
1.520187
1.5201453
1.5208183
1.5207906
1.5212872
1.5208753
1.5202761
1.5205997
1.5209849
1.5214537
1.5213927
1.5214289
1.5214413
1.5214934
1.5206013
1.520482
1.5208785
1.520961
1.5216612
1.5212982
1.5213515
1.5210578
1.5211139
1.5218071
1.5215136
1.5211653
1.5210596
1.5211164
1.5210151
1.521993
1.5211339
1.5205197
1.5209165
1.5207805
1.5176591
1.5173827
1.5176119
1.5178404
1.5172198
1.5172123
1.5174273
1.5174322
1.5175709
1.5172888
1.5174016
1.5176509
1.5172189
1.517135
1.5171262
1.517225
1.5174431
1.517518
1.5171849
1.5172673
1.517724
1.5170352
1.5170984
1.5170832
1.5170186
1.5174813
1.5170725
1.5170886
1.5171918
1.5171747
1.517256
1.5175458
1.5176515
1.517376
1.5174686
1.5172069
1.5174746
1.5177438
1.5172767
1.5171823
1.5172574
1.5171635
1.5173662
1.517683
1.5177765
1.5174859
1.5174855
1.5178167
1.5180024
1.5177159
1.5174878
1.5172756
1.5172536
1.517463
1.51714
1.5170462
1.517036
1.5171474
1.5170569
1.5170485
1.5169849
1.5169944
1.5171382
1.5172196
1.5174074
1.5174684
1.5174744
1.517197
1.5173131
1.5175663
1.5188439
1.5189027
1.5191744
1.5191944
1.5188854
1.51891
1.5192155
1.5192083
1.5189449
1.5189597
1.5192623
1.5192534
1.5190276
1.5193
1.5190676
1.5194271
1.51933
1.5195104
1.5196158
1.5195302
1.5193563
1.5195493
1.5188699
1.5189498
1.5191668
1.5188397
1.5189237
1.519153
1.5191916
1.5188436
1.5188974
1.5191654
1.51918
1.5176382
1.5174569
1.5172689
1.5172943
1.5171595
1.5171563
1.5171575
1.5171623
1.5180052
1.517759
1.5200487
1.5203737
1.517462
1.5174074
1.5172078
1.5172004
1.5172356
1.5172214
1.5205482
1.5205849
1.5206865
1.5206556
1.5207412
1.5208738
1.5213063
1.5213378
1.5213761
1.5180075
1.5187253
1.5168303
1.5164299
1.5160123
1.5159922
1.5160217
1.5163843
1.5168266
1.5164922
1.5162914
1.5166056
1.5175643
1.5179254
1.5176402
1.5172897
1.5161013
1.5162168
1.5160906
1.5163265
1.5162048
1.5159389
1.5159599
1.5159572
1.5176111
1.5175578
1.5175706
1.5175303
1.5173543
1.5172129
1.51745
1.5172521
1.5183456
1.5176612
1.5176088
1.5182615
1.517286
1.5182073
1.5175086
1.5179464
1.5163007
1.516093
1.5165335
1.5162935
1.5162915
1.5164313
1.5161297
1.5160892
1.5160886
1.5161131
1.5161899
1.5161322
1.5165585
1.5164714
1.5166626
1.5172029
1.5163548
1.5167763
1.5159708
1.5159784
1.5159993
1.5160177
1.5159917
1.5160041
1.5159841
1.5159859
1.5159969
1.5159992
1.5160716
1.516054
1.5163781
1.5164075
1.516047
1.5163811
1.5163749
1.5160504
1.5165593
1.5162082
1.516004
1.5160088
1.5160148
1.5160234
1.5160267
1.5160401
1.5160368
1.5160557
1.5160888
1.516393
1.5161052
1.5163992
1.5160624
1.5163793
1.5160742
1.5163815
1.5160229
1.5159954
1.5161687
1.5162019
1.5161515
1.5162026
1.5164431
1.5166473
1.5163831
1.5166858
1.5161845
1.5164654
1.5162438
1.5165123
1.5164031
1.5167384
1.5166414
1.5169227
1.5216274
1.5215564
1.5220844
1.5209984
1.5214258
1.5219646
1.521329
1.5221841
1.5220457
1.5220868
1.5214552
1.5219725
1.5214771
1.5183893
1.5186743
1.5182597
1.5177901
1.5182578
1.5185831
1.5188125
1.5182155
1.5177814
1.5178317
1.517733
1.5177605
1.5190361
1.5196757
1.5182211
1.5187752
1.5177982
1.5185447
1.517887
1.5184487
1.5166714
1.5166622
1.5171714
1.5171773
1.5171998
1.5166874
1.51671
1.5172095
1.5168242
1.5167872
1.5173357
1.5173517
1.5171469
1.5169617
1.5174838
1.5175745
1.5166004
1.5166117
1.5170869
1.5170845
1.5165911
1.5165975
1.5170808
1.5170814
1.5165868
1.5165937
1.5170782
1.5170786
1.5165925
1.5166077
1.5170822
1.5170875
1.5193828
1.5191588
1.519729
1.5199138
1.517416
1.5176939
1.5180706
1.5179692
1.5171087
1.51699
1.5177091
1.5176731
1.519563
1.5195188
1.5201272
1.520152
1.516763
1.5168257
1.517397
1.5173758
1.5167089
1.5167224
1.5173258
1.5173135
1.5166222
1.5166539
1.5171679
1.517158
1.5166033
1.5166014
1.5171437
1.5171422
1.5166095
1.5171315
1.5171306
1.5166004
1.5166088
1.5166224
1.5171292
1.5171276
1.5196972
1.519654
1.5202981
1.5203103
1.5196221
1.5195972
1.5202475
1.5202704
1.5197954
1.5197655
1.5204004
1.5203925
1.5203717
1.5197445
1.5197218
1.5203528
1.5213842
1.5212315
1.5212124
1.5212834
1.5199209
1.5198497
1.5204826
1.5204508
1.5207635
1.520558
1.5201581
1.5206319
1.5213278
1.5214503
1.5214425
1.5213217
1.5215014
1.5213715
1.5214936
1.5213648
1.5198573
1.5202025
1.5202426
1.5199265
1.5202369
1.5198929
1.5202411
1.5199252
1.5205467
1.5204022
1.5203793
1.5204331
1.5204084
1.5209177
1.5204387
1.5203502
1.5203777
1.5204099
1.52039
1.5207917
1.520502
1.5205349
1.5206757
1.5207055
1.5205856
1.5207304
1.521309
1.5207581
1.5208797
1.5204573
1.5204901
1.5205685
1.5205372
1.5211614
1.5205331
1.5206169
1.52067
1.5207445
1.5211943
1.5213396
1.5211935
1.521119
1.5210956
1.5211666
1.5215414
1.5206969
1.5205078
1.5206233
1.5205805
1.5205639
1.5206584
1.5206161
1.5205273
1.5211109
1.5205395
1.5204415
1.520471
1.5205088
1.5205013
1.5205284
1.5204955
1.5204695
1.5210692
1.5209756
1.5209402
1.5213759
1.5210075
1.5209742
1.5204038
1.5204389
1.520598
1.5205654
1.5199467
1.5202105
1.5198632
1.5202539
1.5204679
1.5203604
1.5203923
1.5204362
1.5203732
1.5199
1.5202383
1.5200814
1.5172756
1.5174927
1.517358
1.5175406
1.5170895
1.5171566
1.5171155
1.5171791
1.5171546
1.5172736
1.517181
1.517295
1.5173475
1.5174705
1.5175476
1.5176336
1.5169856
1.5169887
1.517045
1.5170475
1.5170453
1.5169859
1.5169836
1.5170421
1.5170501
1.5170472
1.5171559
1.5171527
1.5170488
1.5170531
1.5171551
1.5171577
1.5171543
1.5173962
1.5172206
1.5174342
1.5169747
1.5169984
1.5170267
1.5170481
1.5170178
1.5170946
1.5170432
1.5171168
1.5172039
1.5174365
1.5172892
1.5174895
1.5169174
1.5169836
1.5169152
1.516981
1.5168741
1.516877
1.5169217
1.5169231
1.5168716
1.5169185
1.5168694
1.5169161
1.5169181
1.5169211
1.5169846
1.5169861
1.5174539
1.5172163
1.5174084
1.5172236
1.5174627
1.5174572
1.5171875
1.5174793
1.5172289
1.5170066
1.5169677
1.5171883
1.5169795
1.5170192
1.5169788
1.5169364
1.517012
1.5169705
1.5173
1.5170762
1.5168665
1.5168606
1.517037
1.5168736
1.5168788
1.5168394
1.5168657
1.5168326
1.5168586
1.5168293
1.5168554
1.5168219
1.5168468
1.5168559
1.516849
1.5170208
1.5168627
1.5168691
1.5169236
1.5169402
1.5168381
1.5168294
1.5168698
1.5168606
1.5168491
1.5168812
1.5168412
1.5168733
1.5168725
1.516929
1.5168639
1.5169202
1.5168603
1.5169163
1.5168512
1.5169063
1.5169968
1.5170357
1.5169512
1.5169917
1.5174951
1.5175257
1.5172157
1.5172699
1.5175498
1.5175983
1.5172665
1.5173422
1.5170298
1.5170958
1.5169813
1.5170489
1.5172734
1.5172219
1.5170158
1.5170789
1.516895
1.5169397
1.5169236
1.5169048
1.5168988
1.516991
1.5169075
1.5169986
1.5173101
1.5170438
1.5171535
1.5173963
1.5169768
1.5169662
1.5170456
1.5170352
1.5169248
1.5169153
1.5169753
1.5169657
1.5169601
1.517028
1.5169512
1.517019
1.5169015
1.5169109
1.5169602
1.5169508
1.5170947
1.5171525
1.5170432
1.5171039
1.517628
1.5176731
1.5173437
1.517417
1.5177074
1.5177609
1.5174231
1.5175111
1.5171565
1.517237
1.5171029
1.5171871
1.5172455
1.5171904
1.5173163
1.5172674
1.5177994
1.517522
1.517845
1.5176086
1.517886
1.5176239
1.5179598
1.5177425
1.5173298
1.5172753
1.5174477
1.5173996
1.5171211
1.5172274
1.5171085
1.5172155
1.5170498
1.5171115
1.5170381
1.5171004
1.5170305
1.517022
1.5170905
1.5170827
1.5170967
1.5172021
1.5170891
1.5171944
1.5168245
1.5168772
1.5168224
1.5168747
1.5168115
1.5168161
1.5168397
1.5168425
1.5168066
1.5168342
1.5168044
1.5168318
1.5168279
1.5168319
1.5168811
1.5168827
1.5168055
1.5168293
1.5168115
1.5168329
1.5168005
1.5168235
1.5167981
1.5168209
1.5168251
1.5168227
1.5168367
1.5168339
1.5168307
1.5168358
1.5168473
1.5168415
1.5169369
1.5169542
1.5169636
1.5169462
1.5169062
1.5169363
1.5169268
1.5169546
1.5171198
1.5173637
1.5173764
1.5171232
1.5170808
1.5171183
1.5173485
1.5173591
1.517087
1.5171318
1.5173474
1.5173651
1.516913
1.5169449
1.5169343
1.5169642
1.5169281
1.5169876
1.5169507
1.5170077
1.517107
1.5171755
1.5173597
1.5173994
1.5185985
1.5184428
1.5184829
1.5185668
1.5184433
1.5185011
1.5186245
1.5185794
1.5190127
1.5190301
1.5189662
1.5189857
1.5189639
1.5189921
1.5190174
1.5190412
1.5185646
1.5184247
1.5184732
1.5185224
1.518431
1.5184866
1.5185896
1.5185417
1.5190225
1.5189704
1.518993
1.5190021
1.5189669
1.5189918
1.5190052
1.5190289
1.5185243
1.5183935
1.5184538
1.5184687
1.518406
1.5184723
1.5185523
1.5184936
1.5190208
1.5189761
1.519003
1.5189973
1.5189721
1.519001
1.5189967
1.5190248
1.5183972
1.5184342
1.5184512
1.5185043
1.5190122
1.5190259
1.5189943
1.5190046
1.5184771
1.5191161
1.5190897
1.519332
1.5193429
1.5190397
1.5191513
1.5191544
1.5191907
1.519193
1.5195344
1.5195118
1.5195428
1.5195617
1.5191838
1.5191216
1.5191034
1.5193271
1.5193327
1.5195035
1.519482
1.5195126
1.5195307
1.5186082
1.5186577
1.5186307
1.5187107
1.5185448
1.5185951
1.5186828
1.5185684
1.5186379
1.5187437
1.5186974
1.5190835
1.5190095
1.5190337
1.5190693
1.5186651
1.5184887
1.5185347
1.5186388
1.5185062
1.5185749
1.5186978
1.5186515
1.519046
1.5190605
1.5189832
1.5190049
1.5189905
1.519024
1.5190532
1.5190772
1.5186349
1.5184631
1.5185052
1.5186066
1.5184684
1.5185257
1.5186572
1.5186175
1.519046
1.5189724
1.5189938
1.5190303
1.5189751
1.5190018
1.519036
1.5190563
1.5174403
1.5175512
1.5172959
1.5173147
1.5171338
1.5171407
1.5171619
1.5171747
1.5170521
1.5170496
1.5170475
1.5170455
1.5170432
1.5170439
1.5170537
1.5170458
1.5196255
1.5180439
1.5179284
1.5176258
1.517666
1.5198497
1.5200716
1.5200448
1.5173548
1.5173319
1.5172822
1.5172695
1.5170955
1.5170947
1.5170933
1.5170928
1.5171312
1.5171206
1.5171067
1.517106
1.5201802
1.5201542
1.5202187
1.5202053
1.5203068
1.520299
1.5202777
1.5202561
1.5203926
1.5203558
1.5207097
1.5211754
1.5205446
1.5212649
1.5213056
1.5213124
1.5213564
1.5213499
1.5213844
1.520999
1.5180092
1.5186573
1.5162599
1.516769
1.5161185
1.5162574
1.5160125
1.5159889
1.5159674
1.5159729
1.5159991
1.5165736
1.5163044
1.5164309
1.5162344
1.5165631
1.5175225
1.5175153
1.5175449
1.517908
1.5176556
1.5172629
1.5173643
1.5171999
1.5160787
1.5161884
1.5160502
1.5161893
1.5160512
1.5159484
1.51595
1.5159002
1.5159411
1.5159395
1.5176117
1.5175739
1.5174632
1.5172727
1.5177623
1.5184238
1.5177173
1.5183556
1.5176465
1.5176659
1.5176904
1.5176555
1.5176063
1.5176159
1.5176287
1.517614
1.5176937
1.517671
1.5183398
1.518305
1.5173723
1.5172612
1.5172574
1.517421
1.5175873
1.5182434
1.517626
1.5183013
1.5175065
1.5175254
1.517552
1.517522
1.5175027
1.517306
1.5181733
1.5179403
1.5162285
1.5163053
1.516251
1.5164121
1.5162739
1.5164842
1.516074
1.516091
1.5160999
1.5160721
1.5160813
1.5161148
1.5165634
1.5164991
1.5165082
1.5166298
1.5163133
1.5162961
1.5162694
1.5162644
1.5161413
1.5161296
1.5161197
1.5161223
1.5160953
1.5160894
1.5160825
1.5160841
1.5161632
1.5161493
1.5161242
1.5161308
1.5161069
1.5160991
1.5160858
1.516091
1.5165124
1.5162836
1.5162318
1.5164453
1.5161834
1.5162073
1.5164129
1.5163899
1.5166708
1.5165131
1.5167211
1.5165287
1.517317
1.5169379
1.5167018
1.5170325
1.5163471
1.5163246
1.5162619
1.516265
1.5163763
1.5164993
1.5167717
1.5166243
1.5159635
1.5159614
1.5159743
1.5159762
1.5159885
1.5159906
1.5159662
1.5159701
1.5159804
1.5159884
1.5160062
1.5159954
1.5160298
1.5160185
1.5160146
1.5160221
1.5160038
1.5160028
1.5160118
1.5160097
1.5160041
1.5159963
1.5159964
1.516004
1.5160052
1.5159976
1.5160078
1.5159994
1.5160497
1.5160376
1.5160274
1.5160366
1.5160149
1.5160176
1.5160241
1.5160283
1.516124
1.5163159
1.5163124
1.5161193
1.5163634
1.5161554
1.5161323
1.5163308
1.516011
1.5160142
1.5160246
1.5160207
1.5161148
1.5161148
1.5163092
1.5163143
1.5163166
1.5161189
1.516122
1.5163256
1.5160097
1.51601
1.51602
1.5160201
1.5166372
1.5164445
1.5163686
1.516634
1.5163746
1.5166531
1.5162213
1.5161974
1.5161471
1.5161831
1.516147
1.5161891
1.5160069
1.5160139
1.5160152
1.516013
1.5160201
1.5160244
1.5160313
1.5160219
1.5160236
1.516034
1.5160269
1.5160433
1.5160357
1.516034
1.516043
1.5160459
1.5160553
1.5160478
1.516056
1.5160677
1.5160542
1.5160506
1.5160628
1.5160677
1.5163278
1.5161513
1.5161547
1.516326
1.5160764
1.5160628
1.5160767
1.5160906
1.5161755
1.5161668
1.5163369
1.5163461
1.5160316
1.516026
1.5160347
1.5160427
1.5163271
1.5161276
1.5161332
1.5163222
1.516052
1.5160388
1.5160423
1.516055
1.5161432
1.5161448
1.5163249
1.5163248
1.5160214
1.5160077
1.5160119
1.5160279
1.5159909
1.5159882
1.5159992
1.5159944
1.5161483
1.5161405
1.5161381
1.5161527
1.5161839
1.5161841
1.5161991
1.5162074
1.516325
1.5163438
1.5163707
1.5163706
1.5167167
1.5165907
1.5165533
1.5167534
1.5161577
1.516139
1.5161433
1.5161671
1.516387
1.5162174
1.5162431
1.5164049
1.5161964
1.5161873
1.5162147
1.5162267
1.5163
1.5162738
1.5164293
1.5164505
1.5163173
1.5163188
1.5163751
1.5163845
1.5165421
1.5165421
1.5167751
1.5168012
1.5165155
1.5163752
1.5164419
1.5165653
1.516851
1.5165909
1.5167016
1.5169173
1.5217343
1.5216489
1.5221699
1.5210417
1.5215647
1.5220556
1.5214268
1.5222047
1.5222055
1.5222373
1.5222387
1.5222406
1.5222447
1.5219969
1.5219994
1.5221278
1.522088
1.5221316
1.5221785
1.5216814
1.5213249
1.521383
1.5218588
1.5221913
1.5221375
1.5219471
1.521907
1.5219216
1.5213981
1.5217637
1.5213369
1.5182845
1.5181787
1.518565
1.518621
1.5182548
1.5177277
1.5177056
1.517757
1.5187804
1.5181799
1.5178251
1.5177596
1.5187301
1.5191362
1.5194117
1.5187033
1.5196484
1.5187671
1.5201318
1.5192821
1.5181505
1.5182236
1.5182395
1.518116
1.5183075
1.51886
1.518145
1.518684
1.5178064
1.5177884
1.5178219
1.5177946
1.5179854
1.5185983
1.5179232
1.5185341
1.5178552
1.5178852
1.5179128
1.5178609
1.5178885
1.5178509
1.5185145
1.5184685
1.5166266
1.5166144
1.5166394
1.5166662
1.5167761
1.5167345
1.51711
1.5169119
1.5165555
1.5165647
1.516545
1.5165533
1.5165427
1.5165484
1.5165461
1.5165651
1.5197482
1.5187729
1.5187119
1.5197279
1.5184524
1.5185925
1.519566
1.5194685
1.5173532
1.5176355
1.5170422
1.5169224
1.5199403
1.5188981
1.5188577
1.5199345
1.5188223
1.5188194
1.5199142
1.5199014
1.5167053
1.5167643
1.5166528
1.516664
1.5165741
1.5166011
1.5165554
1.5165525
1.5165603
1.5165528
1.51656
1.5165746
1.5189736
1.5190331
1.5200766
1.5200711
1.5189219
1.518924
1.5200547
1.5200508
1.5189025
1.5188737
1.5200251
1.5200197
1.5200013
1.5188678
1.5188768
1.5199948
1.5191421
1.5190958
1.5201609
1.5201561
1.5201473
1.5190628
1.5190654
1.5201455
1.5190265
1.5190587
1.520126
1.520121
1.5190316
1.5190185
1.5201045
1.5201021
1.521484
1.5213353
1.5214579
1.5213223
1.521373
1.5211849
1.5212435
1.5211626
1.5192322
1.519328
1.5202664
1.5202493
1.5191794
1.5191825
1.5202132
1.520209
1.5201138
1.5204928
1.5207029
1.5206412
1.5195131
1.5197031
1.5204511
1.5204201
1.5215524
1.5215441
1.5213813
1.5213863
1.5215438
1.521536
1.521379
1.5213769
1.5214329
1.5216038
1.5216082
1.5214307
1.5216035
1.5215952
1.5214235
1.5214259
1.5195285
1.5192142
1.5195557
1.5192698
1.5197195
1.5197652
1.5196853
1.5197326
1.5197276
1.5197989
1.5196939
1.5197674
1.5195276
1.5195857
1.5192201
1.5193084
1.5198401
1.5198085
1.5202614
1.5199076
1.5198764
1.5196395
1.5193413
1.5199436
1.5197182
1.5194035
1.5197522
1.5197743
1.5197185
1.5197416
1.5195632
1.5192406
1.5195725
1.5192782
1.520223
1.5198764
1.5199405
1.5199161
1.5204434
1.5200033
1.5199797
1.5199199
1.5198793
1.5204229
1.5199859
1.5199444
1.5198474
1.519882
1.5198223
1.5198573
1.5198257
1.5198579
1.5197847
1.5198172
1.5203842
1.5203669
1.5198334
1.5199163
1.5198098
1.5198943
1.519796
1.5198477
1.5197549
1.5198078
1.5198215
1.5198752
1.5197965
1.5198514
1.5198042
1.519886
1.519764
1.5198471
1.5198978
1.5202449
1.5202434
1.5199238
1.5204211
1.5203978
1.5203829
1.5204052
1.5200791
1.5200471
1.5201686
1.5201412
1.5201082
1.5200989
1.5201978
1.5201894
1.5201583
1.5201315
1.5202886
1.520266
1.520188
1.5201798
1.520317
1.5203096
1.5201921
1.5201478
1.5202789
1.5202405
1.5203432
1.5205635
1.5206126
1.5204315
1.5211177
1.5212206
1.5212548
1.5211708
1.5202732
1.5202326
1.5203985
1.520364
1.5204291
1.5206224
1.5207003
1.5205473
1.5199521
1.520025
1.5199123
1.5199883
1.5199791
1.5200527
1.5199671
1.5200414
1.5200277
1.520017
1.5201247
1.5201149
1.519999
1.5199629
1.5200964
1.5200637
1.5210853
1.5211888
1.5212029
1.5211097
1.5200573
1.5201298
1.5200098
1.5200858
1.520109
1.5200628
1.5202046
1.5201624
1.5204445
1.5204916
1.5201931
1.5202701
1.520255
1.5204949
1.5205554
1.5203505
1.521251
1.5212372
1.5212329
1.5212464
1.5212704
1.5213009
1.5212647
1.5212954
1.5212103
1.5211761
1.521179
1.521207
1.5211254
1.5211484
1.5210133
1.5210894
1.5211104
1.5211031
1.5210332
1.521042
1.5211653
1.5211342
1.521075
1.5210159
1.5203862
1.5204445
1.5201281
1.5202138
1.5199837
1.5199387
1.5200379
1.5199935
1.5203488
1.5203904
1.5200955
1.5201562
1.5200019
1.5200847
1.5199547
1.5200394
1.5199968
1.5200363
1.519956
1.5199945
1.5203255
1.5203633
1.5200938
1.5201397
1.5203614
1.5201683
1.5203838
1.5206473
1.5202122
1.5200795
1.5200425
1.520574
1.5200987
1.5201334
1.5205821
1.5205131
1.5199283
1.5199151
1.520011
1.5199982
1.5198925
1.5198494
1.5199446
1.5199028
1.5199159
1.5199688
1.5199023
1.5199553
1.5199026
1.5198604
1.519985
1.5199447
1.5199167
1.5199518
1.5198748
1.5199097
1.519937
1.5199735
1.5199237
1.51996
1.5200253
1.5200127
1.5205415
1.5200834
1.5200718
1.5200073
1.5199671
1.520517
1.5200685
1.5200295
1.5204817
1.5204587
1.5206132
1.5205877
1.5205369
1.5205564
1.520484
1.5205046
1.5205243
1.520502
1.5212902
1.5213388
1.521344
1.5213091
1.5210132
1.520631
1.5206199
1.520581
1.5205878
1.5205571
1.5205522
1.5205318
1.5205356
1.5204432
1.520426
1.5199822
1.5199485
1.5200724
1.5200429
1.5200191
1.5201098
1.5200013
1.5200944
1.5201011
1.5202274
1.5200859
1.5202143
1.5200629
1.5200333
1.5201899
1.520164
1.5196791
1.519432
1.5193218
1.5196061
1.5197716
1.5197393
1.5198388
1.5198088
1.5192693
1.5195671
1.5196152
1.5193493
1.5198189
1.5199019
1.5198742
1.5197877
1.5199357
1.5200342
1.5199161
1.5200162
1.5198525
1.5198138
1.5199265
1.5198902
1.5198843
1.5199594
1.5198626
1.5199394
1.5199008
1.5198647
1.5199986
1.5199649
1.5199664
1.5200747
1.5199389
1.5200507
1.5196768
1.5194107
1.5197359
1.5195103
1.5198909
1.51997
1.5198618
1.5199441
1.5197413
1.5194966
1.5198421
1.519638
1.5171125
1.517153
1.5171748
1.5171378
1.5174189
1.5172863
1.5173297
1.5174447
1.5172282
1.5171556
1.5172078
1.5171801
1.5174517
1.5174816
1.517325
1.517374
1.5170028
1.5169571
1.5169935
1.5169675
1.5169987
1.5170432
1.5170525
1.5170095
1.5170334
1.516986
1.517023
1.5169978
1.5170293
1.5170731
1.5170417
1.5170831
1.5170901
1.5170484
1.517081
1.517059
1.5171377
1.5170857
1.5170956
1.5171443
1.5170912
1.5171218
1.5170793
1.5171117
1.5171664
1.5171169
1.517129
1.517176
1.5172098
1.5172467
1.5172658
1.5172327
1.5173045
1.5172479
1.5172694
1.5173212
1.517369
1.5174882
1.5174095
1.5175103
1.5174556
1.5175164
1.5175526
1.5174035
1.5168737
1.5169076
1.5169096
1.5168756
1.5168793
1.5168734
1.5169083
1.516913
1.516915
1.516955
1.5169573
1.5169174
1.5169216
1.5169156
1.5169565
1.5169611
1.5169216
1.5169607
1.5169616
1.5169226
1.5169139
1.5168798
1.5169129
1.5168807
1.5168761
1.5169099
1.5169095
1.5168754
1.5169178
1.5169573
1.5169575
1.516918
1.5169686
1.516998
1.5169987
1.5169694
1.5169653
1.5169949
1.5169957
1.5169659
1.5170506
1.5170054
1.5170512
1.5170056
1.5170019
1.5170468
1.5170479
1.5170031
1.5169624
1.5169924
1.5169949
1.5169651
1.5169699
1.5169641
1.516995
1.5169998
1.516999
1.5170446
1.5170461
1.5170016
1.5170078
1.5170016
1.5170475
1.5170528
1.5169332
1.516973
1.5169967
1.5169598
1.5172804
1.517137
1.5171781
1.5173087
1.5169678
1.5170173
1.5170413
1.5169951
1.5173112
1.517167
1.5172134
1.5173428
1.5167918
1.5168265
1.5168341
1.5168
1.516818
1.5168533
1.5168605
1.516826
1.516824
1.5168658
1.5168742
1.5168334
1.5168515
1.516893
1.5169015
1.516861
1.5169082
1.5168652
1.5168995
1.5168751
1.5169021
1.5169512
1.5169598
1.5169121
1.5169374
1.516893
1.5169273
1.5169038
1.5169303
1.516979
1.5169426
1.5169888
1.5170139
1.5170533
1.5170773
1.5170412
1.5173468
1.5172041
1.5172458
1.5173737
1.5171096
1.5171321
1.5170534
1.5170804
1.5173799
1.5172393
1.5172916
1.5174138
1.5168226
1.5167887
1.5168208
1.5167909
1.5168264
1.5168707
1.5168717
1.5168278
1.516785
1.5168165
1.516786
1.5168178
1.5168226
1.5168672
1.516822
1.5168657
1.5167105
1.5167438
1.5167463
1.5167132
1.5167127
1.5167456
1.5167493
1.5167168
1.516785
1.5167434
1.5167824
1.5167466
1.5167881
1.5167448
1.5167835
1.5167501
1.5167489
1.5167135
1.5167462
1.5167163
1.516747
1.5167853
1.5167876
1.5167498
1.5167425
1.5167114
1.5167443
1.5167093
1.5167447
1.5167831
1.5167437
1.5167813
1.5167837
1.516816
1.5168183
1.5167867
1.5167844
1.5168168
1.5167906
1.5168219
1.5168656
1.5168668
1.5168203
1.5168226
1.5168271
1.5168204
1.5168654
1.51687
1.5169828
1.5169563
1.5170915
1.5170449
1.5166915
1.5166728
1.5165703
1.5165635
1.5174338
1.5173961
1.5171696
1.5172218
1.5165677
1.5169556
1.5171115
1.5172015
1.517137
1.5170492
1.5166942
1.516797
1.5167709
1.5166721
1.5172212
1.5172199
1.5172929
1.5171443
1.5167714
1.5168928
1.5168001
1.5168616
1.5164757
1.5164737
1.5165676
1.5165608
1.5165305
1.5165215
1.5164413
1.5164393
1.5169455
1.5169823
1.5170224
1.5169866
1.5164475
1.5164802
1.5165654
1.5166451
1.5166361
1.5165582
1.5165263
1.5166034
1.516591
1.5165172
1.5167164
1.5166432
1.516634
1.5167065
1.5165872
1.5166571
1.5165992
1.5166707
1.5173579
1.5173228
1.5171559
1.5171054
1.5169103
1.516945
1.516975
1.5169416
1.5163975
1.5163963
1.5164753
1.5164709
1.5164611
1.5164553
1.5163802
1.5163796
1.5168438
1.5168501
1.5168842
1.5168789
1.5163879
1.5164041
1.5164709
1.5164667
1.5165332
1.5165386
1.5165342
1.5165964
1.5165915
1.5165294
1.5165183
1.5164556
1.5165259
1.5164507
1.5165207
1.5165849
1.5165141
1.5165773
1.5164495
1.516447
1.51652
1.5165161
1.5165119
1.5165797
1.5165764
1.5165148
1.5164482
1.5164448
1.5165119
1.5165182
1.5165129
1.5165077
1.5165773
1.5165704
1.5163743
1.5163741
1.5164551
1.5164517
1.5164545
1.5164498
1.516375
1.5163755
1.516838
1.5168733
1.5168671
1.5168306
1.5163841
1.5163825
1.516797
1.5168054
1.5168246
1.5168323
1.5168115
1.5168195
1.5168455
1.516839
1.5165761
1.5166252
1.5166232
1.5165739
1.5165679
1.5165737
1.5166223
1.5166158
1.5166701
1.5166221
1.5166706
1.5166213
1.5166141
1.5166616
1.5166195
1.5166674
1.5166367
1.5165933
1.5166405
1.5165891
1.5166381
1.5166852
1.5166825
1.5166349
1.5166233
1.5165812
1.5166296
1.5165748
1.5166265
1.5166746
1.5166214
1.5166692
1.5167192
1.5166844
1.5167212
1.5166821
1.5167656
1.516721
1.5167191
1.5167624
1.5166688
1.5167058
1.5166731
1.5167103
1.5167541
1.5167093
1.5167057
1.5167494
1.5166691
1.5167066
1.5167075
1.5166697
1.5167505
1.5167055
1.5167073
1.516751
1.5166665
1.5166616
1.5167035
1.5166984
1.5167473
1.5166988
1.516742
1.516703
1.516762
1.5167159
1.5167715
1.5167059
1.5167716
1.5168262
1.5168169
1.5167617
1.516668
1.5166548
1.5167218
1.5167081
1.5167197
1.5167063
1.5167737
1.51676
1.5173119
1.5172291
1.5173695
1.5172891
1.5172959
1.5173502
1.5173891
1.5174395
1.5169334
1.5168972
1.5169664
1.5168634
1.5169711
1.5169346
1.5170386
1.5170021
1.5174613
1.5173576
1.5175032
1.5174039
1.517411
1.5174594
1.517526
1.5175674
1.5170044
1.5170572
1.5170449
1.5170968
1.517103
1.5170589
1.5171617
1.5171192
1.516861
1.516828
1.5168707
1.5168178
1.5169239
1.5168729
1.5168617
1.5169114
1.5167596
1.5168013
1.5167732
1.5168148
1.5168655
1.5168147
1.5168008
1.5168507
1.517284
1.5172413
1.5170904
1.5170337
1.5172057
1.5171666
1.5169726
1.5170217
1.5168885
1.5168537
1.5168268
1.5168599
1.5168643
1.5168959
1.5169353
1.5169038
1.5167323
1.516743
1.5167731
1.5167636
1.5167557
1.5167687
1.5167786
1.5168122
1.516804
1.5167972
1.5167608
1.5167535
1.5167887
1.5167312
1.5167376
1.5167716
1.5167659
1.5167747
1.5167801
1.5167715
1.5167772
1.5168038
1.516799
1.516808
1.5168409
1.5168381
1.5168033
1.5168088
1.5167801
1.5167868
1.5168135
1.5168187
1.5168125
1.516846
1.5168509
1.517307
1.5170482
1.5170932
1.5173264
1.5168937
1.5168795
1.5169111
1.5169248
1.5169543
1.5169124
1.5169288
1.5169687
1.5173437
1.5170888
1.5171379
1.5173709
1.5168756
1.5168478
1.5168814
1.5168778
1.5168436
1.5168328
1.5168661
1.5168308
1.516864
1.5169297
1.516888
1.5169338
1.5168835
1.5168697
1.516915
1.5168712
1.5169174
1.516767
1.5168013
1.5167982
1.5167635
1.5167545
1.5167889
1.5167855
1.5167505
1.5168397
1.5168032
1.5168431
1.5167994
1.5168269
1.5167896
1.5168296
1.5167868
1.5168635
1.5168291
1.5168624
1.5168302
1.5168679
1.5169127
1.516914
1.5168692
1.5168231
1.5168557
1.5168272
1.5168599
1.516866
1.51691
1.5168622
1.5169056
1.5167483
1.5167437
1.5167774
1.516782
1.5167508
1.5167853
1.5167865
1.516752
1.5167875
1.516786
1.5168258
1.5168265
1.5168233
1.5167834
1.5167793
1.5168183
1.5169534
1.5169276
1.5169669
1.5169132
1.5169711
1.5170161
1.5170012
1.5169553
1.5168914
1.5168666
1.5169053
1.5168514
1.5169067
1.5169525
1.5168922
1.5169379
1.5175923
1.517468
1.5176271
1.5175111
1.5175201
1.517565
1.5176525
1.5176858
1.5171715
1.5171694
1.5172149
1.5171222
1.517223
1.5171744
1.5172755
1.5172298
1.5177132
1.5176219
1.517743
1.5175766
1.517773
1.517637
1.5178034
1.5176848
1.5172352
1.5172833
1.5172859
1.5173296
1.5174021
1.5173437
1.5172931
1.5173553
1.5170444
1.5170223
1.5170605
1.517005
1.5171227
1.5170702
1.5170513
1.517104
1.5169406
1.5169795
1.5169559
1.5169939
1.5170551
1.5170006
1.5169856
1.5170394
1.5171359
1.5171756
1.517158
1.517115
1.5170493
1.5170657
1.5171067
1.5170918
1.5171891
1.5172354
1.5172184
1.517169
1.5171018
1.5171177
1.5171674
1.5171529
1.517835
1.5178591
1.5177466
1.5177029
1.5174195
1.5174622
1.5174197
1.517369
1.5178901
1.5179115
1.5178056
1.517764
1.5174798
1.5175312
1.5174921
1.5174332
1.5179429
1.5179606
1.517861
1.5178234
1.5175494
1.5175879
1.517552
1.5175059
1.5179915
1.5180146
1.5179183
1.517878
1.5176051
1.5176571
1.5176229
1.5175645
1.5172495
1.5172849
1.5172685
1.5172299
1.5171633
1.5171788
1.5172161
1.5172026
1.5172983
1.5173492
1.5173318
1.5172788
1.517212
1.5172265
1.517281
1.5172683
1.5170413
1.5170672
1.5170723
1.5170349
1.5171289
1.5170818
1.5170753
1.517121
1.5170524
1.5170227
1.5170541
1.51702
1.5171085
1.5170619
1.5170603
1.5171062
1.5169435
1.5169785
1.5169745
1.5169387
1.5170302
1.5169883
1.5169835
1.5170247
1.516926
1.516924
1.5169615
1.5169593
1.5170128
1.5169682
1.5170098
1.5169702
1.5169205
1.5169547
1.5169567
1.5169223
1.5169141
1.5169182
1.5169517
1.5169477
1.5170054
1.5169624
1.517003
1.5169649
1.5169563
1.5169966
1.51696
1.5170003
1.5170111
1.5170138
1.5170419
1.5170437
1.5170961
1.5170511
1.5170958
1.5170494
1.517009
1.5170392
1.5170366
1.5170054
1.5170913
1.5170472
1.517093
1.5170448
1.5166744
1.5166382
1.5166724
1.51664
1.5166709
1.5167127
1.5167151
1.5166735
1.5166333
1.5166676
1.5166364
1.5166709
1.516669
1.516711
1.5166666
1.516708
1.5165581
1.5166017
1.5166006
1.5165573
1.5165668
1.5165657
1.5166083
1.5166085
1.5166406
1.5165962
1.5166403
1.5165965
1.5166044
1.5166466
1.5166023
1.5166455
1.5166005
1.5165582
1.5166013
1.516557
1.5165969
1.5166403
1.516641
1.5165973
1.5165942
1.5165555
1.5165994
1.5165506
1.5165948
1.5166387
1.5165909
1.5166344
1.5166366
1.5166711
1.5166727
1.5166382
1.5166414
1.5166754
1.5166442
1.5166776
1.5167111
1.5167128
1.5166683
1.5166709
1.516676
1.5166721
1.5167138
1.5167163
1.5164548
1.5164536
1.5165155
1.5165128
1.5165062
1.5165645
1.5165624
1.5165078
1.5164668
1.5164679
1.5165246
1.5165259
1.5165174
1.5165181