/*--------------------------------*- C++ -*----------------------------------*\
  =========                 |
  \\      /  F ield         | OpenFOAM: The Open Source CFD Toolbox
   \\    /   O peration     | Website:  https://openfoam.org
    \\  /    A nd           | Version:  7
     \\/     M anipulation  |
\*---------------------------------------------------------------------------*/
FoamFile
{
    version     2.0;
    format      ascii;
    class       volScalarField;
    location    "1000";
    object      pMean;
}
// * * * * * * * * * * * * * * * * * * * * * * * * * * * * * * * * * * * * * //

dimensions      [0 2 -2 0 0 0 0];

internalField   nonuniform List<scalar> 
33730
(
-2.131466e+92
-2.046619e+92
-2.1484191e+92
-2.1132437e+92
-2.0949879e+92
-2.1106908e+92
-2.115634e+92
-2.0905481e+92
-1.9679759e+92
-2.0822407e+92
-2.0761387e+92
-2.0357611e+92
-2.1130207e+92
-2.1106076e+92
-2.1187419e+92
-2.1215344e+92
-2.1356506e+92
-2.1318298e+92
-2.1299009e+92
-2.1300979e+92
-2.1320906e+92
-2.1255512e+92
-2.1275092e+92
-2.1236152e+92
-2.1043819e+92
-2.1275027e+92
-2.0983604e+92
-2.0861203e+92
-2.0818268e+92
-2.1031418e+92
-1.9585733e+92
-2.0153671e+92
-1.9625989e+92
-1.9353997e+92
-1.9656055e+92
-1.9708313e+92
-1.9389463e+92
-2.0106085e+92
-1.9665908e+92
-2.1192388e+92
-2.1160369e+92
-2.1106998e+92
-2.1141178e+92
-2.0692148e+92
-2.0654807e+92
-2.1164286e+92
-2.109667e+92
-2.1110052e+92
-2.1186659e+92
-2.1053237e+92
-2.1134828e+92
-2.1066677e+92
-2.1084596e+92
-2.1153363e+92
-2.112266e+92
-2.1120777e+92
-2.1250511e+92
-2.1134298e+92
-2.1264245e+92
-2.1173782e+92
-2.1284258e+92
-2.1149226e+92
-2.1305437e+92
-2.121505e+92
-2.1027773e+92
-2.1078353e+92
-2.1381651e+92
-2.1386791e+92
-2.1393623e+92
-2.1392557e+92
-2.1354429e+92
-2.1356138e+92
-2.1368857e+92
-2.1381011e+92
-2.129402e+92
-2.1205599e+92
-2.1299013e+92
-2.1310809e+92
-2.1328506e+92
-2.1326259e+92
-2.1337366e+92
-2.1341864e+92
-2.1340543e+92
-2.1185183e+92
-2.1181828e+92
-2.1165207e+92
-2.1156749e+92
-2.1132762e+92
-2.0919883e+92
-2.1114394e+92
-2.1148808e+92
-2.0768901e+92
-2.0872099e+92
-2.0717737e+92
-1.9577551e+92
-2.0028151e+92
-1.9560838e+92
-1.9248583e+92
-1.953643e+92
-1.9623092e+92
-1.9311762e+92
-2.0059622e+92
-2.071021e+92
-2.0696236e+92
-2.0353168e+92
-2.0342611e+92
-1.961031e+92
-1.9623422e+92
-1.9951149e+92
-1.9924628e+92
-1.8940079e+92
-1.8963319e+92
-2.0307736e+92
-2.0274009e+92
-2.0636739e+92
-2.0674806e+92
-1.9976495e+92
-1.9656517e+92
-1.9666088e+92
-1.9984627e+92
-2.0152625e+92
-1.9987363e+92
-1.9786411e+92
-1.9634555e+92
-1.9257566e+92
-2.0888117e+92
-2.0618074e+92
-2.0406831e+92
-2.1382307e+92
-2.1374498e+92
-2.1340574e+92
-2.1359205e+92
-2.1289747e+92
-2.1071359e+92
-2.1311198e+92
-2.133179e+92
-2.1327431e+92
-2.1047406e+92
-2.101421e+92
-2.0982988e+92
-2.0572061e+92
-2.0754142e+92
-2.0738337e+92
-2.1115317e+92
-2.0985173e+92
-2.0994204e+92
-2.1127861e+92
-2.1079098e+92
-2.1018774e+92
-2.1037871e+92
-2.1105996e+92
-2.1081477e+92
-2.0955645e+92
-2.0973498e+92
-2.1099948e+92
-2.1054258e+92
-2.1079522e+92
-2.1179937e+92
-2.1204059e+92
-2.114027e+92
-2.1126427e+92
-2.1227339e+92
-2.1237968e+92
-2.1196083e+92
-2.1206411e+92
-2.1258207e+92
-2.1245788e+92
-2.1157599e+92
-2.1148393e+92
-2.1259875e+92
-2.1245874e+92
-2.1216738e+92
-2.122848e+92
-2.1272481e+92
-2.1284167e+92
-2.1185688e+92
-2.1191459e+92
-2.1299668e+92
-2.1287871e+92
-2.1244997e+92
-2.1255836e+92
-2.1313663e+92
-2.1302458e+92
-2.1178812e+92
-2.1166944e+92
-2.1282831e+92
-2.1271479e+92
-2.1262181e+92
-2.1271881e+92
-2.1323051e+92
-2.1330815e+92
-2.0939786e+92
-2.0975129e+92
-2.0973266e+92
-2.101512e+92
-2.1050432e+92
-2.0990127e+92
-2.1010599e+92
-2.1069433e+92
-2.1020959e+92
-2.1035079e+92
-2.1132431e+92
-2.1154944e+92
-2.1417893e+92
-2.142838e+92
-2.1425854e+92
-2.1443984e+92
-2.1431086e+92
-2.1429764e+92
-2.1440441e+92
-2.1447616e+92
-2.1388256e+92
-2.1398823e+92
-2.1402185e+92
-2.1418682e+92
-2.140845e+92
-2.1422278e+92
-2.1408728e+92
-2.1416922e+92
-2.1271253e+92
-2.1326964e+92
-2.1337812e+92
-2.1342814e+92
-2.1361929e+92
-2.1262309e+92
-2.1273088e+92
-2.1272689e+92
-2.1347595e+92
-2.1366626e+92
-2.134872e+92
-2.1362364e+92
-2.1359935e+92
-2.1371338e+92
-2.1393638e+92
-2.137635e+92
-2.1380971e+92
-2.1378358e+92
-2.1392383e+92
-2.1398494e+92
-2.1237036e+92
-2.1250637e+92
-2.1235265e+92
-2.1262407e+92
-2.1208212e+92
-2.1218535e+92
-2.1209542e+92
-2.1212219e+92
-2.1090548e+92
-2.1202448e+92
-2.119521e+92
-2.1179876e+92
-2.1176462e+92
-2.1053792e+92
-2.106885e+92
-2.107491e+92
-2.1032274e+92
-2.1032493e+92
-1.9901584e+92
-1.9580711e+92
-1.9566524e+92
-1.9881004e+92
-1.8904791e+92
-2.0566909e+92
-2.0532133e+92
-2.0216691e+92
-2.0187832e+92
-1.9974131e+92
-1.9504879e+92
-1.9838872e+92
-1.9511117e+92
-1.9863286e+92
-1.9535633e+92
-1.8896016e+92
-2.0590977e+92
-2.0250731e+92
-2.0231751e+92
-2.0611898e+92
-2.0880539e+92
-2.0874965e+92
-2.1077759e+92
-2.1080847e+92
-2.0861999e+92
-2.0846036e+92
-2.1044564e+92
-2.1064393e+92
-2.0407569e+92
-2.0399951e+92
-2.0608091e+92
-2.061371e+92
-2.0583672e+92
-2.0389464e+92
-2.0379746e+92
-2.0597556e+92
-1.9557893e+92
-1.9712578e+92
-1.9573011e+92
-1.9727429e+92
-1.9200683e+92
-1.9581067e+92
-1.9737199e+92
-1.9747511e+92
-1.9591034e+92
-1.9225438e+92
-1.994984e+92
-1.9936939e+92
-2.0104759e+92
-2.0116465e+92
-1.9924156e+92
-1.9909416e+92
-2.0074695e+92
-2.0090895e+92
-1.8878589e+92
-1.8903143e+92
-1.9240067e+92
-1.9248527e+92
-2.0564275e+92
-2.0355909e+92
-2.0572314e+92
-2.0366927e+92
-2.0341949e+92
-2.0327104e+92
-2.0531017e+92
-2.0550178e+92
-2.0816598e+92
-2.0795572e+92
-2.0996637e+92
-2.1021381e+92
-2.1036441e+92
-2.0831486e+92
-2.0838292e+92
-2.1039008e+92
-2.012955e+92
-1.9979896e+92
-1.9968727e+92
-2.0141982e+92
-1.9773679e+92
-1.9760554e+92
-1.9607144e+92
-1.9620419e+92
-1.9625965e+92
-1.9780319e+92
-1.9631e+92
-1.9784175e+92
-1.9987309e+92
-1.9983743e+92
-2.0151072e+92
-2.0154853e+92
-2.0158243e+92
-2.0240092e+92
-2.0159684e+92
-2.0242007e+92
-1.99647e+92
-2.0036418e+92
-1.9964229e+92
-2.0036883e+92
-1.9763301e+92
-1.9833898e+92
-1.9762558e+92
-1.9832997e+92
-1.964865e+92
-1.9647229e+92
-1.9585011e+92
-1.9404641e+92
-1.9584197e+92
-1.9648205e+92
-1.9406684e+92
-1.9584342e+92
-1.9251205e+92
-1.9255752e+92
-2.0937191e+92
-2.1057634e+92
-2.0944504e+92
-2.063405e+92
-2.0755264e+92
-2.0639114e+92
-2.076251e+92
-2.0390209e+92
-2.0485098e+92
-2.0392457e+92
-2.0489154e+92
-2.1457383e+92
-2.1457801e+92
-2.1442975e+92
-2.1453163e+92
-2.1417525e+92
-2.1428782e+92
-2.1434179e+92
-2.1434827e+92
-2.1363023e+92
-2.1377009e+92
-2.1269961e+92
-2.1262694e+92
-2.1384427e+92
-2.1386581e+92
-2.1411516e+92
-2.1411546e+92
-2.1396539e+92
-2.1407524e+92
-2.1247821e+92
-2.1226365e+92
-2.1197437e+92
-2.1207044e+92
-2.1183624e+92
-2.1164839e+92
-2.0952555e+92
-2.0916785e+92
-2.0893218e+92
-2.0710338e+92
-2.069157e+92
-2.0348327e+92
-2.0333459e+92
-2.101495e+92
-2.1228921e+92
-2.1237877e+92
-2.0737254e+92
-2.0747632e+92
-2.1028905e+92
-2.1247133e+92
-2.1249978e+92
-2.1043155e+92
-2.0924706e+92
-2.09383e+92
-2.1059905e+92
-2.0988138e+92
-2.118956e+92
-2.1202957e+92
-2.071493e+92
-2.072675e+92
-2.1001103e+92
-2.1213522e+92
-2.1220422e+92
-2.1178079e+92
-2.1081402e+92
-2.1190404e+92
-2.1093566e+92
-2.1100193e+92
-2.1109363e+92
-2.1195523e+92
-2.1210202e+92
-2.1191172e+92
-2.1142478e+92
-2.1153847e+92
-2.1204417e+92
-2.117512e+92
-2.121281e+92
-2.1161821e+92
-2.1225023e+92
-2.1299092e+92
-2.1310355e+92
-2.1257534e+92
-2.1263094e+92
-2.1254698e+92
-2.1246762e+92
-2.1267783e+92
-2.1277389e+92
-2.1265909e+92
-2.1259779e+92
-2.130298e+92
-2.1309122e+92
-2.133142e+92
-2.1333219e+92
-2.1289869e+92
-2.1311076e+92
-2.1297216e+92
-2.1322662e+92
-2.1332317e+92
-2.1321589e+92
-2.1272363e+92
-2.1284775e+92
-2.1280619e+92
-2.1291624e+92
-2.1283996e+92
-2.1289044e+92
-2.1294433e+92
-2.1304345e+92
-2.1318683e+92
-2.1327158e+92
-2.1357753e+92
-2.1343719e+92
-2.1336503e+92
-2.13649e+92
-2.1362274e+92
-2.1332173e+92
-2.1370334e+92
-2.1362676e+92
-2.1295812e+92
-2.1303811e+92
-2.1311225e+92
-2.131717e+92
-2.1308571e+92
-2.1313471e+92
-2.1320922e+92
-2.1329694e+92
-2.1360774e+92
-2.1397162e+92
-2.1365025e+92
-2.1396475e+92
-2.1345921e+92
-2.1371873e+92
-2.1354053e+92
-2.13849e+92
-2.1353157e+92
-2.1343101e+92
-2.1318637e+92
-2.1324715e+92
-2.1334518e+92
-2.1339635e+92
-2.1326594e+92
-2.1330891e+92
-2.1340843e+92
-2.1348965e+92
-2.1372477e+92
-2.1405823e+92
-2.1377545e+92
-2.1413244e+92
-2.1380083e+92
-2.138394e+92
-2.1416258e+92
-2.1414938e+92
-2.0909508e+92
-2.0877237e+92
-2.096243e+92
-2.0956101e+92
-2.0930353e+92
-2.0984756e+92
-2.101816e+92
-2.0920399e+92
-2.1028006e+92
-2.0951098e+92
-2.0979864e+92
-2.106196e+92
-2.1088649e+92
-2.1004132e+92
-2.0887625e+92
-2.0910099e+92
-2.1023613e+92
-2.1050825e+92
-2.1036499e+92
-2.1127776e+92
-2.1140846e+92
-2.1058902e+92
-2.1148253e+92
-2.1068682e+92
-2.1164105e+92
-2.1085864e+92
-2.1129141e+92
-2.1097715e+92
-2.1143211e+92
-2.1124395e+92
-2.1158369e+92
-2.1111576e+92
-2.1171933e+92
-2.1409458e+92
-2.1406755e+92
-2.1460122e+92
-2.1471829e+92
-2.1474001e+92
-2.1417864e+92
-2.1411721e+92
-2.1467934e+92
-2.1419946e+92
-2.1422526e+92
-2.1473562e+92
-2.1481612e+92
-2.1420416e+92
-2.142724e+92
-2.1481295e+92
-2.1472351e+92
-2.1388967e+92
-2.1385957e+92
-2.143602e+92
-2.1449913e+92
-2.1397538e+92
-2.1389242e+92
-2.1453053e+92
-2.1447313e+92
-2.1399209e+92
-2.1396141e+92
-2.1451931e+92
-2.1461748e+92
-2.1406716e+92
-2.13993e+92
-2.1460514e+92
-2.1452569e+92
-2.1314399e+92
-2.1312937e+92
-2.1327126e+92
-2.1332441e+92
-2.1334329e+92
-2.1328505e+92
-2.1375301e+92
-2.1390271e+92
-2.1342579e+92
-2.1336913e+92
-2.1393927e+92
-2.139018e+92
-2.1297532e+92
-2.1305838e+92
-2.1328924e+92
-2.13123e+92
-2.1349983e+92
-2.1350162e+92
-2.1397247e+92
-2.1406912e+92
-2.1353323e+92
-2.1357743e+92
-2.1406801e+92
-2.1400375e+92
-2.136184e+92
-2.1363996e+92
-2.1409274e+92
-2.1420221e+92
-2.1366963e+92
-2.136775e+92
-2.1423598e+92
-2.1420169e+92
-2.1374332e+92
-2.1425421e+92
-2.1435726e+92
-2.1380696e+92
-2.1381492e+92
-2.1378602e+92
-2.1434578e+92
-2.1428474e+92
-2.1269592e+92
-2.1277456e+92
-2.1298613e+92
-2.1283027e+92
-2.1284191e+92
-2.1285238e+92
-2.1297123e+92
-2.1300103e+92
-2.1246585e+92
-2.1254182e+92
-2.1256982e+92
-2.1271211e+92
-2.1273745e+92
-2.1260678e+92
-2.1259662e+92
-2.1269119e+92
-2.1149086e+92
-2.1162031e+92
-2.1158832e+92
-2.1156294e+92
-2.1235858e+92
-2.1235376e+92
-2.1249114e+92
-2.1245907e+92
-2.122727e+92
-2.1218207e+92
-2.1227562e+92
-2.1245834e+92
-2.1120627e+92
-2.1123034e+92
-2.1138636e+92
-2.1145574e+92
-2.1088508e+92
-2.1095839e+92
-2.1102694e+92
-2.110073e+92
-1.9900043e+92
-1.9890954e+92
-2.0054192e+92
-2.0062566e+92
-1.953995e+92
-1.9549843e+92
-1.9693832e+92
-1.9702635e+92
-1.9183045e+92
-1.9514473e+92
-1.9530259e+92
-1.9667688e+92
-1.9682551e+92
-1.9174899e+92
-2.0029549e+92
-1.9878402e+92
-1.986482e+92
-2.0044002e+92
-1.8871435e+92
-1.8857798e+92
-2.0730363e+92
-2.0717967e+92
-2.0923013e+92
-2.0914703e+92
-2.0705991e+92
-2.0687372e+92
-2.0503858e+92
-2.0901915e+92
-2.0880011e+92
-2.0269756e+92
-2.0256607e+92
-2.0460582e+92
-2.0471197e+92
-2.0157034e+92
-2.024373e+92
-2.0447511e+92
-2.0231496e+92
-2.0432448e+92
-2.0132736e+92
-2.0481418e+92
-1.978933e+92
-1.9476436e+92
-1.9483512e+92
-1.981186e+92
-1.8857941e+92
-1.9984259e+92
-1.9836312e+92
-1.9824061e+92
-1.9997296e+92
-1.9635678e+92
-1.9624204e+92
-1.9471114e+92
-1.9484856e+92
-1.9134052e+92
-2.0009668e+92
-1.9856858e+92
-1.9847297e+92
-2.001964e+92
-1.9657182e+92
-1.9646592e+92
-1.9494732e+92
-1.9505635e+92
-1.9164056e+92
-1.8838971e+92
-1.8859977e+92
-2.0461367e+92
-1.8629778e+92
-1.8643888e+92
-2.0762922e+92
-2.0744964e+92
-2.0940616e+92
-2.0964548e+92
-2.0518017e+92
-2.0302852e+92
-2.0314396e+92
-2.0509592e+92
-2.0482675e+92
-2.0293938e+92
-2.0280615e+92
-2.0499877e+92
-2.0977157e+92
-2.078086e+92
-2.0772664e+92
-2.0981819e+92
-2.0930642e+92
-2.0934343e+92
-2.1053387e+92
-2.1054603e+92
-2.0920805e+92
-2.1040435e+92
-2.0927616e+92
-2.104999e+92
-2.1191734e+92
-2.1265631e+92
-2.1201172e+92
-2.1278185e+92
-2.1205075e+92
-2.1282768e+92
-2.1206151e+92
-2.128058e+92
-2.0909297e+92
-2.0915502e+92
-2.1031437e+92
-2.1035133e+92
-2.1016149e+92
-2.0897425e+92
-2.0903208e+92
-2.1025056e+92
-2.1165511e+92
-2.1175619e+92
-2.1239607e+92
-2.1252709e+92
-2.1182572e+92
-2.1186543e+92
-2.1258983e+92
-2.1259038e+92
-2.0388198e+92
-2.0391412e+92
-2.0483349e+92
-2.0485251e+92
-2.0379913e+92
-2.038518e+92
-2.0474119e+92
-2.048003e+92
-2.0622214e+92
-2.0742731e+92
-2.0628492e+92
-2.0750159e+92
-2.0631115e+92
-2.063346e+92
-2.0753417e+92
-2.0754622e+92
-2.0599166e+92
-2.0717785e+92
-2.0605759e+92
-2.0724899e+92
-2.0367889e+92
-2.037481e+92
-2.0462878e+92
-2.0469073e+92
-2.0358123e+92
-2.0451696e+92
-2.0362956e+92
-2.0457614e+92
-2.061161e+92
-2.0617818e+92
-2.0731786e+92
-2.0736945e+92
-1.9572743e+92
-1.9576771e+92
-1.934165e+92
-1.9514427e+92
-1.950966e+92
-1.968667e+92
-1.9692584e+92
-1.9755843e+92
-1.9761528e+92
-1.958314e+92
-1.958989e+92
-1.9352964e+92
-1.9528242e+92
-1.9520919e+92
-1.9697968e+92
-1.9704919e+92
-1.9767596e+92
-1.9774299e+92
-1.9201118e+92
-1.9208226e+92
-1.959482e+92
-1.959972e+92
-1.9358361e+92
-1.9537433e+92
-1.9533355e+92
-1.9710262e+92
-1.9779999e+92
-1.9716213e+92
-1.9786585e+92
-1.9722813e+92
-1.9793189e+92
-1.97298e+92
-1.9800174e+92
-1.9606317e+92
-1.961463e+92
-1.9368085e+92
-1.9550676e+92
-1.9542993e+92
-1.9221575e+92
-1.9211293e+92
-1.9921951e+92
-1.992949e+92
-1.9994344e+92
-2.0001178e+92
-1.9909121e+92
-1.9980851e+92
-1.9915384e+92
-1.9987575e+92
-2.0103621e+92
-2.0186103e+92
-2.0110467e+92
-2.0193273e+92
-2.0116536e+92
-2.0199686e+92
-2.0122329e+92
-2.020491e+92
-1.9895241e+92
-1.9967885e+92
-1.9902747e+92
-1.9974644e+92
-1.9883921e+92
-1.9955798e+92
-1.9889309e+92
-1.9961628e+92
-2.0077238e+92
-2.0159893e+92
-2.0083975e+92
-2.0166985e+92
-2.0090038e+92
-2.0173244e+92
-2.0097102e+92
-2.0179753e+92
-1.9019201e+92
-1.8885079e+92
-1.8893201e+92
-1.902863e+92
-1.8894442e+92
-1.9032162e+92
-1.9037088e+92
-1.9040272e+92
-1.9225942e+92
-1.9382455e+92
-1.9238354e+92
-1.9396678e+92
-1.9245784e+92
-1.9242337e+92
-1.9401291e+92
-1.9403812e+92
-2.0576338e+92
-2.0584283e+92
-2.0697697e+92
-2.0706336e+92
-2.0334407e+92
-2.0341533e+92
-2.0428133e+92
-2.0436104e+92
-2.0589696e+92
-2.0711967e+92
-2.0594265e+92
-2.0714207e+92
-2.0353474e+92
-2.0347207e+92
-2.0442088e+92
-2.0446948e+92
-2.0320321e+92
-2.0415227e+92
-2.0327863e+92
-2.0421559e+92
-2.0307319e+92
-2.0400433e+92
-2.0314295e+92
-2.0408725e+92
-2.054647e+92
-2.0666644e+92
-2.0555521e+92
-2.0677418e+92
-2.0562647e+92
-2.0685021e+92
-2.0569471e+92
-2.0690915e+92
-2.0862315e+92
-2.0869792e+92
-2.0984689e+92
-2.0988918e+92
-2.0845262e+92
-2.0854798e+92
-2.0965243e+92
-2.0977246e+92
-2.111459e+92
-2.1127387e+92
-2.1189097e+92
-2.1205222e+92
-2.1135006e+92
-2.1139823e+92
-2.1212468e+92
-2.1213518e+92
-2.1147049e+92
-2.1221535e+92
-2.1157037e+92
-2.1234072e+92
-2.0876722e+92
-2.0996277e+92
-2.0884732e+92
-2.1006688e+92
-2.0889052e+92
-2.0893181e+92
-2.1011131e+92
-2.101242e+92
-2.1161178e+92
-2.1238621e+92
-2.1162538e+92
-2.1236753e+92
-2.0127786e+92
-2.0208935e+92
-2.0133573e+92
-2.0214037e+92
-1.9947824e+92
-1.9954265e+92
-2.0018951e+92
-2.0025181e+92
-1.9937259e+92
-2.0008149e+92
-1.9942547e+92
-2.0013645e+92
-2.0139008e+92
-2.0145713e+92
-2.0219856e+92
-2.0226474e+92
-1.9750996e+92
-1.9820582e+92
-1.9757807e+92
-1.9826545e+92
-1.9738799e+92
-1.9808991e+92
-1.9744791e+92
-1.9815002e+92
-1.962238e+92
-1.9628594e+92
-1.9559085e+92
-1.9565313e+92
-1.9633673e+92
-1.9640595e+92
-1.9577203e+92
-1.9570113e+92
-1.9642772e+92
-1.9644883e+92
-1.9581201e+92
-1.9579613e+92
-1.975873e+92
-1.9829856e+92
-1.9762924e+92
-1.983334e+92
-1.9646735e+92
-1.9648881e+92
-1.9585391e+92
-1.9582255e+92
-1.9764491e+92
-1.9835753e+92
-1.9766079e+92
-1.9836669e+92
-1.9962535e+92
-2.0035834e+92
-1.9964937e+92
-2.0037143e+92
-1.9957334e+92
-2.0029367e+92
-1.9960695e+92
-2.0033173e+92
-2.0150508e+92
-2.0232644e+92
-2.015518e+92
-2.023791e+92
-2.0157511e+92
-2.0241252e+92
-2.0158997e+92
-2.0242588e+92
-2.0172992e+92
-2.0134193e+92
-2.0172965e+92
-2.0134617e+92
-2.0238527e+92
-2.0279325e+92
-2.0280258e+92
-2.0239144e+92
-2.0135399e+92
-2.017401e+92
-2.0134334e+92
-2.0173197e+92
-2.0239091e+92
-2.0280418e+92
-2.0240088e+92
-2.0280932e+92
-1.9971846e+92
-1.9940453e+92
-1.9972286e+92
-1.9940346e+92
-2.0034121e+92
-2.0066395e+92
-2.0066836e+92
-2.0034382e+92
-1.9972085e+92
-1.993977e+92
-1.9971667e+92
-1.9940557e+92
-2.003402e+92
-2.0066601e+92
-2.0034884e+92
-2.0067475e+92
-1.9783462e+92
-1.9762205e+92
-1.9784019e+92
-1.9761906e+92
-1.9845008e+92
-1.9871866e+92
-1.9871696e+92
-1.9845306e+92
-1.9782631e+92
-1.9760923e+92
-1.9782922e+92
-1.9760948e+92
-1.9844149e+92
-1.9871188e+92
-1.9844321e+92
-1.9871719e+92
-1.9684631e+92
-1.9685279e+92
-1.9698263e+92
-1.969804e+92
-1.9697242e+92
-1.9696342e+92
-1.9685028e+92
-1.9683953e+92
-1.9576114e+92
-1.9481721e+92
-1.9419508e+92
-1.9418058e+92
-1.9480091e+92
-1.9576267e+92
-1.9683831e+92
-1.9684167e+92
-1.9696389e+92
-1.9696518e+92
-1.948071e+92
-1.9418935e+92
-1.9418191e+92
-1.9480196e+92
-1.9575924e+92
-1.9321114e+92
-1.9262564e+92
-1.9260079e+92
-1.9319194e+92
-1.9319166e+92
-1.9261005e+92
-1.926275e+92
-1.9321075e+92
-2.1258585e+92
-2.1314622e+92
-2.1378251e+92
-2.100941e+92
-2.093124e+92
-2.1004963e+92
-2.0934607e+92
-2.1091839e+92
-2.1164004e+92
-2.1170328e+92
-2.1096532e+92
-2.1012602e+92
-2.0936305e+92
-2.1011606e+92
-2.0938089e+92
-2.0676572e+92
-2.0606482e+92
-2.0674257e+92
-2.0608712e+92
-2.0759335e+92
-2.0831139e+92
-2.083495e+92
-2.0762263e+92
-2.0610941e+92
-2.0679332e+92
-2.0609217e+92
-2.067793e+92
-2.0764107e+92
-2.0836971e+92
-2.0765936e+92
-2.0838012e+92
-2.0402245e+92
-2.0355646e+92
-2.0401125e+92
-2.0356535e+92
-2.0471524e+92
-2.0520619e+92
-2.052267e+92
-2.0473223e+92
-2.0403483e+92
-2.0356681e+92
-2.0402589e+92
-2.0357781e+92
-2.047343e+92
-2.0523195e+92
-2.0474745e+92
-2.0524329e+92
-2.1489601e+92
-2.1485129e+92
-2.1483697e+92
-2.1490016e+92
-2.1470428e+92
-2.1480205e+92
-2.1482858e+92
-2.1480909e+92
-2.1445474e+92
-2.1456045e+92
-2.1458009e+92
-2.14586e+92
-2.1460534e+92
-2.1469318e+92
-2.1465775e+92
-2.1468656e+92
-2.1352565e+92
-2.1388589e+92
-2.140124e+92
-2.140629e+92
-2.140493e+92
-2.1350797e+92
-2.1334977e+92
-2.1346041e+92
-2.1410416e+92
-2.1419348e+92
-2.1419898e+92
-2.1418084e+92
-2.1437563e+92
-2.1444881e+92
-2.1444419e+92
-2.1442566e+92
-2.1423604e+92
-2.143237e+92
-2.1435632e+92
-2.1435435e+92
-2.1321598e+92
-2.1324209e+92
-2.130196e+92
-2.1314166e+92
-2.127484e+92
-2.1285325e+92
-2.1289999e+92
-2.129138e+92
-2.1263722e+92
-2.1267065e+92
-2.1243866e+92
-2.1149925e+92
-2.12579e+92
-2.1139825e+92
-2.1125129e+92
-2.1104391e+92
-2.1081656e+92
-2.1092492e+92
-2.0602271e+92
-2.0647599e+92
-2.0318712e+92
-2.0298999e+92
-2.0507916e+92
-2.0532215e+92
-2.0498777e+92
-2.0507857e+92
-2.1197761e+92
-2.1190137e+92
-2.0790863e+92
-2.1197795e+92
-2.1204249e+92
-2.1207723e+92
-2.1205358e+92
-2.0815799e+92
-2.120827e+92
-2.121281e+92
-2.0952894e+92
-2.1157624e+92
-2.1147182e+92
-2.0687614e+92
-2.0702175e+92
-2.0972582e+92
-2.116865e+92
-2.1176543e+92
-2.1165745e+92
-2.1152181e+92
-2.0784701e+92
-2.116399e+92
-2.1177057e+92
-2.1180673e+92
-2.1176582e+92
-2.0779583e+92
-2.1186013e+92
-2.1189452e+92
-2.1250994e+92
-2.1262185e+92
-2.1273387e+92
-2.1284093e+92
-2.1233921e+92
-2.1251642e+92
-2.1240773e+92
-2.1261994e+92
-2.1203239e+92
-2.1195921e+92
-2.1202851e+92
-2.120841e+92
-2.1213992e+92
-2.1208416e+92
-2.1213997e+92
-2.1222695e+92
-2.1248196e+92
-2.1253564e+92
-2.1273506e+92
-2.1273611e+92
-2.1231342e+92
-2.1237827e+92
-2.1249075e+92
-2.123893e+92
-2.1268311e+92
-2.1294406e+92
-2.1260061e+92
-2.1280388e+92
-2.1227551e+92
-2.1219959e+92
-2.1227485e+92
-2.1234831e+92
-2.1274222e+92
-2.1280043e+92
-2.1301728e+92
-2.1300776e+92
-2.1324459e+92
-2.1308309e+92
-2.1395623e+92
-2.1387428e+92
-2.1350421e+92
-2.1343579e+92
-2.1327543e+92
-2.1329183e+92
-2.1400493e+92
-2.1406181e+92
-2.1361586e+92
-2.1356161e+92
-2.1310163e+92
-2.1317232e+92
-2.1331018e+92
-2.1326219e+92
-2.1333293e+92
-2.1319559e+92
-2.1321761e+92
-2.1337687e+92
-2.1340767e+92
-2.1324616e+92
-2.1331001e+92
-2.1345436e+92
-2.1346673e+92
-2.1332099e+92
-2.1334113e+92
-2.1350599e+92
-2.131102e+92
-2.1323799e+92
-2.1328004e+92
-2.1316329e+92
-2.1316809e+92
-2.1327978e+92
-2.1332522e+92
-2.1319836e+92
-2.1251532e+92
-2.1297768e+92
-2.1302092e+92
-2.1252352e+92
-2.1303941e+92
-2.1305529e+92
-2.1257902e+92
-2.125579e+92
-2.1307756e+92
-2.1311136e+92
-2.1291936e+92
-2.1297551e+92
-2.1228936e+92
-2.127605e+92
-2.1283566e+92
-2.123423e+92
-2.1302243e+92
-2.131415e+92
-2.132028e+92
-2.1307479e+92
-2.1290231e+92
-2.1290629e+92
-2.1242331e+92
-2.1239281e+92
-2.1347264e+92
-2.1350739e+92
-2.142221e+92
-2.1427316e+92
-2.1379125e+92
-2.1384143e+92
-2.1347061e+92
-2.1332162e+92
-2.1418288e+92
-2.1410787e+92
-2.1367379e+92
-2.1373636e+92
-2.1353699e+92
-2.1337008e+92
-2.1343637e+92
-2.1358503e+92
-2.1345935e+92
-2.1347932e+92
-2.1360832e+92
-2.1364656e+92
-2.1367345e+92
-2.1350202e+92
-2.1356368e+92
-2.137165e+92
-2.1373601e+92
-2.1357982e+92
-2.1376627e+92
-2.1358977e+92
-2.1322509e+92
-2.1335717e+92
-2.1340013e+92
-2.1327767e+92
-2.1347868e+92
-2.1342999e+92
-2.1335291e+92
-2.1331649e+92
-2.1318331e+92
-2.1270098e+92
-2.1269941e+92
-2.131953e+92
-2.1264368e+92
-2.1310082e+92
-2.1312956e+92
-2.126327e+92
-2.1355422e+92
-2.1358267e+92
-2.1345243e+92
-2.1342707e+92
-2.1320554e+92
-2.1326823e+92
-2.128275e+92
-2.1275797e+92
-2.1282271e+92
-2.1329236e+92
-2.1329755e+92
-2.1282402e+92
-2.1354691e+92
-2.1351478e+92
-2.1340871e+92
-2.1337084e+92
-2.1380558e+92
-2.1384139e+92
-2.1458875e+92
-2.1463201e+92
-2.1419604e+92
-2.1423219e+92
-2.1383652e+92
-2.1368715e+92
-2.1448642e+92
-2.1456496e+92
-2.1410284e+92
-2.1415212e+92
-2.1390255e+92
-2.1396064e+92
-2.1368452e+92
-2.1362312e+92
-2.1380381e+92
-2.1384658e+92
-2.1386911e+92
-2.1371125e+92
-2.1372035e+92
-2.1390183e+92
-2.1401492e+92
-2.1405041e+92
-2.1380971e+92
-2.1375151e+92
-2.1393177e+92
-2.1396868e+92
-2.1397443e+92
-2.1381671e+92
-2.1382201e+92
-2.1400155e+92
-2.1380638e+92
-2.1377997e+92
-2.1366301e+92
-2.1370366e+92
-2.1300299e+92
-2.1349629e+92
-2.1355604e+92
-2.1303722e+92
-2.1369191e+92
-2.13792e+92
-2.138326e+92
-2.1371479e+92
-2.1354548e+92
-2.1358169e+92
-2.1308679e+92
-2.1304359e+92
-2.1366951e+92
-2.1363252e+92
-2.1349124e+92
-2.1354854e+92
-2.1287684e+92
-2.1333676e+92
-2.1340342e+92
-2.1290959e+92
-2.1358409e+92
-2.1368738e+92
-2.1374083e+92
-2.1363019e+92
-2.1344795e+92
-2.1347486e+92
-2.1299471e+92
-2.1292946e+92
-2.1364113e+92
-2.1368078e+92
-2.1442162e+92
-2.1445487e+92
-2.1365085e+92
-2.135044e+92
-2.1437197e+92
-2.1431308e+92
-2.1389851e+92
-2.138479e+92
-2.1402681e+92
-2.1405875e+92
-2.1407544e+92
-2.1392048e+92
-2.1392548e+92
-2.141022e+92
-2.141213e+92
-2.1394472e+92
-2.1400231e+92
-2.1415872e+92
-2.1401362e+92
-2.1400483e+92
-2.1416288e+92
-2.1419379e+92
-2.1389125e+92
-2.1386858e+92
-2.1373697e+92
-2.1378526e+92
-2.130932e+92
-2.1357825e+92
-2.1364484e+92
-2.1312659e+92
-2.1380806e+92
-2.1390112e+92
-2.1394149e+92
-2.1384329e+92
-2.1367838e+92
-2.136985e+92
-2.1319897e+92
-2.1316768e+92
-2.1386128e+92
-2.1396568e+92
-2.1399061e+92
-2.1389538e+92
-2.1388749e+92
-2.1397918e+92
-2.1401675e+92
-2.1390418e+92
-2.132537e+92
-2.1373166e+92
-2.1375652e+92
-2.1325036e+92
-2.1374724e+92
-2.1378256e+92
-2.1329955e+92
-2.1325736e+92
-2.0813593e+92
-2.0781423e+92
-2.0922453e+92
-2.0863707e+92
-2.0840659e+92
-2.0952252e+92
-2.0978104e+92
-2.095803e+92
-2.0944633e+92
-2.1031521e+92
-2.1047654e+92
-2.0989167e+92
-2.1000378e+92
-2.1031959e+92
-2.1044633e+92
-2.0978147e+92
-2.0993475e+92
-2.1081498e+92
-2.1067014e+92
-2.1005148e+92
-2.1016128e+92
-2.1108519e+92
-2.1091335e+92
-2.1026058e+92
-2.1038619e+92
-2.1069607e+92
-2.1082482e+92
-2.1050437e+92
-2.1063844e+92
-2.1094967e+92
-2.1108929e+92
-2.0915335e+92
-2.1115941e+92
-2.1101968e+92
-2.0653197e+92
-2.0678206e+92
-2.0939495e+92
-2.1135272e+92
-2.1126966e+92
-2.1200542e+92
-2.1213614e+92
-2.122642e+92
-2.1237883e+92
-2.1149171e+92
-2.1140909e+92
-2.1149027e+92
-2.1154159e+92
-2.1175841e+92
-2.1184656e+92
-2.1194057e+92
-2.120672e+92
-2.1162493e+92
-2.1155557e+92
-2.1159537e+92
-2.1168627e+92
-2.1192601e+92
-2.1217861e+92
-2.1199389e+92
-2.121949e+92
-2.1181675e+92
-2.118814e+92
-2.1185884e+92
-2.1194994e+92
-2.1209478e+92
-2.1231265e+92
-2.1215932e+92
-2.1240312e+92
-2.1177411e+92
-2.1170697e+92
-2.1175662e+92
-2.1180498e+92
-2.1222955e+92
-2.1227117e+92
-2.1249968e+92
-2.1247285e+92
-2.1471542e+92
-2.1465955e+92
-2.1476236e+92
-2.1473866e+92
-2.1481385e+92
-2.1479613e+92
-2.1478586e+92
-2.148247e+92
-2.1448351e+92
-2.1442453e+92
-2.1453436e+92
-2.1452198e+92
-2.1461099e+92
-2.1456224e+92
-2.146326e+92
-2.1459792e+92
-2.1361468e+92
-2.1313414e+92
-2.1316396e+92
-2.1371658e+92
-2.1316669e+92
-2.1318847e+92
-2.1370439e+92
-2.1364711e+92
-2.1394431e+92
-2.1385982e+92
-2.1400509e+92
-2.1401058e+92
-2.1348579e+92
-2.1309514e+92
-2.131075e+92
-2.1360182e+92
-2.130932e+92
-2.1306661e+92
-2.1360422e+92
-2.1356196e+92
-2.1412428e+92
-2.1408241e+92
-2.141414e+92
-2.1415648e+92
-2.1424637e+92
-2.1421312e+92
-2.1430004e+92
-2.1428886e+92
-2.1433571e+92
-2.1438315e+92
-2.1438385e+92
-2.14379e+92
-2.1284682e+92
-2.1281841e+92
-2.1320931e+92
-2.1334345e+92
-2.1284617e+92
-2.1290143e+92
-2.133517e+92
-2.1329747e+92
-2.1286641e+92
-2.1291179e+92
-2.1335086e+92
-2.1344619e+92
-2.1343697e+92
-2.1296937e+92
-2.1293991e+92
-2.1338018e+92
-2.1257764e+92
-2.1262988e+92
-2.1298301e+92
-2.1311362e+92
-2.1311469e+92
-2.1267809e+92
-2.1260067e+92
-2.1305891e+92
-2.1265734e+92
-2.1262612e+92
-2.130829e+92
-2.1318204e+92
-2.12693e+92
-2.1269025e+92
-2.1316636e+92
-2.1311028e+92
-2.119089e+92
-2.1198381e+92
-2.1198826e+92
-2.1213728e+92
-2.1205448e+92
-2.120772e+92
-2.1219934e+92
-2.1216793e+92
-2.1248332e+92
-2.1244613e+92
-2.128471e+92
-2.129547e+92
-2.1250053e+92
-2.1249272e+92
-2.129655e+92
-2.1291494e+92
-2.123843e+92
-2.1230706e+92
-2.1263764e+92
-2.1278749e+92
-2.1240214e+92
-2.1240311e+92
-2.1283013e+92
-2.1279883e+92
-2.1161611e+92
-2.1171623e+92
-2.1188939e+92
-2.1171869e+92
-2.117818e+92
-2.1183189e+92
-2.1192751e+92
-2.1188487e+92
-2.1136877e+92
-2.1125924e+92
-2.1138917e+92
-2.115385e+92
-2.1146358e+92
-2.1152413e+92
-2.1160368e+92
-2.1160933e+92
-1.9872652e+92
-1.9878563e+92
-1.9944737e+92
-1.9949962e+92
-1.9862141e+92
-1.9933099e+92
-1.9867043e+92
-1.9938605e+92
-2.0054573e+92
-2.0135315e+92
-2.0060489e+92
-2.0141376e+92
-2.0066167e+92
-2.0147725e+92
-2.0071637e+92
-2.0153423e+92
-1.9551593e+92
-1.9556525e+92
-1.931871e+92
-1.9489575e+92
-1.9494809e+92
-1.9562667e+92
-1.9568102e+92
-1.9327501e+92
-1.9499414e+92
-1.9506248e+92
-1.9665204e+92
-1.9733918e+92
-1.9670896e+92
-1.9739214e+92
-1.9675822e+92
-1.9681863e+92
-1.9745253e+92
-1.9750649e+92
-1.9171368e+92
-1.918599e+92
-1.9529546e+92
-1.9533774e+92
-1.9297986e+92
-1.9467825e+92
-1.9472379e+92
-1.9540723e+92
-1.9547187e+92
-1.9310779e+92
-1.9478162e+92
-1.9486103e+92
-1.9642522e+92
-1.9710657e+92
-1.9648175e+92
-1.9715905e+92
-1.9653554e+92
-1.9721923e+92
-1.9660634e+92
-1.9728521e+92
-1.9152702e+92
-1.9163628e+92
-2.0030924e+92
-2.011241e+92
-2.0037361e+92
-2.011911e+92
-1.9849408e+92
-1.9921127e+92
-1.9856334e+92
-1.9927526e+92
-1.9838735e+92
-1.9909527e+92
-1.9843675e+92
-1.9915069e+92
-2.0042945e+92
-2.0125064e+92
-2.004933e+92
-2.0130789e+92
-1.8880091e+92
-1.8877677e+92
-1.9005539e+92
-1.9012456e+92
-1.8984183e+92
-1.8857886e+92
-1.8875104e+92
-1.899882e+92
-2.0778517e+92
-2.07855e+92
-2.0899868e+92
-2.0904021e+92
-2.0764806e+92
-2.077277e+92
-2.0883641e+92
-2.0894052e+92
-2.104865e+92
-2.1051996e+92
-2.112211e+92
-2.1121942e+92
-2.1032671e+92
-2.1042811e+92
-2.1104373e+92
-2.1116926e+92
-2.0752443e+92
-2.0758422e+92
-2.0873708e+92
-2.0876894e+92
-2.074602e+92
-2.0737735e+92
-2.0855974e+92
-2.0866958e+92
-2.0677103e+92
-2.0667354e+92
-2.0864036e+92
-2.0869372e+92
-2.1022209e+92
-2.1026059e+92
-2.1096671e+92
-2.1097675e+92
-2.1015542e+92
-2.1003774e+92
-2.1075383e+92
-2.1090853e+92
-2.024569e+92
-2.0339029e+92
-2.0253607e+92
-2.0345703e+92
-2.0232804e+92
-2.0325086e+92
-2.0239342e+92
-2.0332509e+92
-2.0471893e+92
-2.0479586e+92
-2.0588937e+92
-2.0597669e+92
-2.0485718e+92
-2.0492039e+92
-2.0604201e+92
-2.060945e+92
-2.0219329e+92
-2.0207372e+92
-2.0409635e+92
-2.0420087e+92
-2.0220694e+92
-2.0314139e+92
-2.0226745e+92
-2.031912e+92
-2.0460707e+92
-2.0465958e+92
-2.0578497e+92
-2.05827e+92
-2.0209886e+92
-2.0301519e+92
-2.0215327e+92
-2.0308272e+92
-2.0454562e+92
-2.0446984e+92
-2.0562906e+92
-2.0571918e+92
-2.0378066e+92
-2.0180888e+92
-2.0193454e+92
-2.0394615e+92
-2.0631465e+92
-2.0827044e+92
-2.0651137e+92
-2.0849892e+92
-1.9933143e+92
-1.9786476e+92
-1.9774282e+92
-1.994634e+92
-1.9443482e+92
-1.9591759e+92
-1.9461646e+92
-1.9451771e+92
-1.9602814e+92
-1.9112829e+92
-1.9612805e+92
-1.9808856e+92
-1.9961439e+92
-1.9798168e+92
-1.997215e+92
-1.8825775e+92
-1.9984321e+92
-2.0063649e+92
-1.9989929e+92
-2.0069019e+92
-1.9805036e+92
-1.9810924e+92
-1.9875291e+92
-1.9880593e+92
-1.9794512e+92
-1.9864177e+92
-1.9799108e+92
-1.9869226e+92
-1.9995352e+92
-2.0074952e+92
-2.000098e+92
-2.0080069e+92
-1.9609225e+92
-1.9677453e+92
-1.9615339e+92
-1.9682716e+92
-1.959892e+92
-1.9666649e+92
-1.9603926e+92
-1.9671351e+92
-1.9486628e+92
-1.9490642e+92
-1.9425431e+92
-1.925509e+92
-1.9429915e+92
-1.949783e+92
-1.9503706e+92
-1.9266602e+92
-1.9443227e+92
-1.9435931e+92
-1.9114973e+92
-1.9128762e+92
-2.0007657e+92
-2.001344e+92
-2.0086337e+92
-2.0092755e+92
-1.982731e+92
-1.9833973e+92
-1.9898007e+92
-1.9904207e+92
-1.9817416e+92
-1.9887176e+92
-1.9821815e+92
-1.9892256e+92
-2.0018895e+92
-2.0025397e+92
-2.0099542e+92
-2.0106428e+92
-1.9631071e+92
-1.9699598e+92
-1.9638191e+92
-1.9705652e+92
-1.9621172e+92
-1.9689137e+92
-1.9625965e+92
-1.9693586e+92
-1.9509636e+92
-1.9513469e+92
-1.9275741e+92
-1.9448288e+92
-1.9452558e+92
-1.9519474e+92
-1.952607e+92
-1.9285851e+92
-1.9457269e+92
-1.946512e+92
-1.9132862e+92
-1.9145082e+92
-1.8949527e+92
-1.8817258e+92
-1.8830878e+92
-1.8961192e+92
-1.8842296e+92
-1.8838059e+92
-1.8971408e+92
-1.8977174e+92