/*--------------------------------*- C++ -*----------------------------------*\
  =========                 |
  \\      /  F ield         | OpenFOAM: The Open Source CFD Toolbox
   \\    /   O peration     | Website:  https://openfoam.org
    \\  /    A nd           | Version:  7
     \\/     M anipulation  |
\*---------------------------------------------------------------------------*/
FoamFile
{
    version     2.0;
    format      ascii;
    class       volVectorField;
    location    "1000";
    object      U;
}
// * * * * * * * * * * * * * * * * * * * * * * * * * * * * * * * * * * * * * //

dimensions      [0 1 -1 0 0 0 0];

internalField   nonuniform List<vector> 
33730
(
(-1.6549946e+47 -2.5571163e+46 2.2620802e+46)
(-1.7991597e+47 -1.3887303e+46 2.1945756e+46)
(-1.4372788e+47 -2.5733905e+46 3.3549025e+45)
(-1.3386385e+47 -8.6008619e+45 2.3907617e+46)
(-1.3354591e+47 -5.7929158e+45 3.3746257e+46)
(-1.3093357e+47 -2.0589723e+46 2.0739927e+46)
(-1.5361185e+47 -2.9102639e+46 2.1767958e+46)
(-1.3103479e+47 -8.5088635e+45 2.860266e+46)
(-1.8128114e+47 -7.8554373e+45 1.0394904e+46)
(-1.4629262e+47 -3.7256928e+45 1.2747235e+46)
(-1.4157188e+47 -7.5208443e+45 7.9596105e+45)
(-1.7052721e+47 -1.8473646e+46 2.1495553e+46)
(-1.2895613e+47 -3.1677963e+45 -1.6532088e+46)
(-1.2757888e+47 -1.4826983e+46 -1.5148371e+46)
(-1.0592416e+47 -2.4354752e+46 7.6027079e+45)
(-1.1194375e+47 -7.4428696e+45 9.303151e+45)
(-1.406647e+47 -2.9028667e+46 1.4087821e+46)
(-1.0638205e+47 -3.89654e+45 2.0200068e+46)
(-1.2260333e+47 -2.6249723e+45 2.8080363e+46)
(-1.0785569e+47 -1.0432562e+46 1.898164e+46)
(-1.2212034e+47 -3.6904524e+45 3.0255867e+46)
(-1.0444478e+47 -1.1706439e+46 1.7727323e+46)
(-1.0472973e+47 -5.6080519e+45 1.9492234e+46)
(-1.1721928e+47 -4.5439351e+45 2.5149683e+46)
(-1.2408201e+47 -1.220262e+46 2.384292e+46)
(-1.1674814e+47 -4.6869797e+45 2.6933689e+46)
(-1.287808e+47 -2.0914012e+46 2.2346781e+46)
(-1.2364984e+47 -1.032273e+46 3.1339132e+46)
(-1.2935706e+47 -1.0237636e+46 3.0305828e+46)
(-1.6539615e+47 -3.6273433e+46 3.3403705e+46)
(-1.7592961e+47 -1.1169658e+46 1.1316159e+46)
(-1.4703187e+47 -5.916397e+45 1.8389614e+46)
(-1.3857044e+47 -2.6484128e+45 -1.3689141e+46)
(-1.1921955e+47 -5.1294801e+45 1.3705403e+46)
(-1.1978351e+47 -8.398367e+44 -1.1218242e+46)
(-1.2387998e+47 -2.6781667e+45 -1.2971233e+46)
(-1.2186849e+47 4.1098905e+45 1.138462e+46)
(-1.4516524e+47 1.5470702e+44 1.617319e+46)
(-1.390188e+47 2.020885e+45 -1.1752623e+46)
(-1.2498258e+47 -2.9372997e+45 1.6020582e+46)
(-1.2612268e+47 -2.4184009e+45 1.4607893e+46)
(-1.2102512e+47 -3.7798665e+45 1.2916975e+46)
(-1.224277e+47 -3.8177374e+45 1.4361469e+46)
(-1.3877709e+47 -6.5595342e+45 1.1689698e+46)
(-1.39424e+47 -9.124872e+45 9.7427526e+45)
(-1.0596855e+47 -5.5246398e+45 -1.0439709e+46)
(-1.0621966e+47 1.1724751e+45 -2.0957963e+46)
(-1.0492973e+47 1.3269858e+45 -2.1871396e+46)
(-1.0438977e+47 1.9666397e+44 -1.0932357e+46)
(-1.2424541e+47 -7.0668097e+45 -1.1196079e+46)
(-1.0354659e+47 -7.1487756e+45 -9.2697934e+45)
(-1.0455493e+47 -1.4739309e+44 -1.9869413e+46)
(-1.0337799e+47 2.9133691e+44 -2.1008621e+46)
(-1.0280447e+47 -1.1437666e+45 -9.5928519e+45)
(-1.0557905e+47 -1.1925142e+46 1.3295272e+46)
(-9.5648857e+46 -9.5397456e+45 -1.5757804e+46)
(-7.6848876e+46 -1.6554912e+46 6.6318574e+45)
(-9.5070019e+46 -3.5966511e+45 -1.5741853e+46)
(-7.9692921e+46 -5.9243629e+45 8.5778945e+45)
(-9.5386689e+46 -2.3170748e+45 -1.6800912e+46)
(-8.4578912e+46 -1.5413576e+46 9.4162991e+45)
(-9.7983768e+46 -8.3434754e+45 -1.7071235e+46)
(-8.2480233e+46 -3.9746617e+45 9.7192211e+45)
(-1.48585e+47 -3.9015007e+46 1.6764177e+46)
(-1.2885911e+47 -1.5054871e+46 -1.0849223e+46)
(-1.1333963e+47 -2.6286484e+46 1.7552659e+46)
(-8.6191943e+46 -5.0940909e+45 1.6970218e+46)
(-8.525576e+46 -9.2497851e+44 1.7993481e+46)
(-1.0400198e+47 -6.3913159e+44 2.3091737e+46)
(-1.0317555e+47 -1.2739645e+45 2.4207481e+46)
(-8.7215007e+46 -6.2480094e+45 1.8281742e+46)
(-1.0384886e+47 -1.2069431e+45 2.3157477e+46)
(-8.5028225e+46 -1.6551824e+45 1.8033416e+46)
(-1.0285625e+47 -1.590918e+45 2.3783228e+46)
(-8.4916802e+46 -6.6256943e+45 1.683669e+46)
(-1.0276852e+47 -6.0210144e+45 2.0912393e+46)
(-1.0047998e+47 -2.3832341e+45 2.1213582e+46)
(-8.3767167e+46 -2.8392109e+45 1.7494218e+46)
(-9.9727878e+46 -2.8667327e+45 2.2034641e+46)
(-8.6284375e+46 -6.5386015e+45 1.7323794e+46)
(-8.5438854e+46 -2.4588941e+45 1.8905029e+46)
(-1.0243314e+47 -2.0055584e+45 2.2140156e+46)
(-1.0099914e+47 -2.4968758e+45 2.3194627e+46)
(-1.1374663e+47 -6.375493e+45 2.8102979e+46)
(-1.0458863e+47 -1.0684532e+46 1.9774371e+46)
(-1.1613221e+47 -3.9609343e+45 2.7486425e+46)
(-1.0090985e+47 -5.6889738e+45 2.0751807e+46)
(-1.0303742e+47 -1.1992701e+46 1.9466098e+46)
(-1.2453987e+47 -1.4155027e+46 2.7471286e+46)
(-1.1754491e+47 -4.8544632e+45 2.7356622e+46)
(-1.1568206e+47 -5.3457747e+45 2.8773181e+46)
(-1.1971886e+47 -1.1152058e+46 3.4604955e+46)
(-1.2665919e+47 -2.6094486e+46 2.3320525e+46)
(-1.209315e+47 -1.2916489e+46 2.9844026e+46)
(-1.36324e+47 -4.2022603e+44 -1.1636624e+46)
(-1.4222974e+47 -1.158573e+45 1.5874301e+46)
(-1.3378388e+47 -3.8624458e+45 -1.482138e+46)
(-1.1681264e+47 -6.6836258e+45 1.4561226e+46)
(-1.1458134e+47 -3.3588483e+45 -1.1290655e+46)
(-1.1490717e+47 -7.0774277e+45 -1.4420146e+46)
(-1.1640286e+47 5.9417908e+44 1.2153325e+46)
(-1.4229732e+47 -8.5963779e+45 1.8253977e+46)
(-1.2756449e+47 -3.9046013e+45 1.5927198e+46)
(-1.2844837e+47 1.5312837e+45 1.5365331e+46)
(-1.2179828e+47 3.5461123e+44 -4.85365e+45)
(-1.232829e+47 -2.3867026e+45 -4.6819599e+45)
(-1.1519479e+47 -1.3129444e+45 -1.0863687e+46)
(-1.1631491e+47 7.6799097e+44 -9.932956e+45)
(-1.2274568e+47 -3.6350588e+45 4.9103817e+45)
(-1.2215515e+47 7.1588955e+44 4.1524242e+45)
(-1.3859644e+47 4.7064173e+45 9.4566889e+45)
(-1.3918671e+47 -1.6406544e+45 1.0024212e+46)
(-1.212882e+47 -1.1634532e+45 -4.4101579e+45)
(-1.2119333e+47 -3.5367918e+45 -5.1873969e+45)
(-1.23938e+47 -7.5874029e+43 1.3866505e+46)
(-1.2470466e+47 -5.4225707e+45 1.4671651e+46)
(-1.2184785e+47 1.9394391e+45 4.2626769e+45)
(-1.1543698e+47 -1.2635404e+44 -1.2405724e+46)
(-1.1579215e+47 2.1214002e+45 -1.116332e+46)
(-1.2240119e+47 -2.264068e+45 5.1919185e+45)
(-1.0102246e+47 1.3851195e+45 1.5468809e+45)
(-9.8140559e+46 -9.120985e+44 -5.8376762e+45)
(-1.0085426e+47 1.1523986e+45 8.1709153e+44)
(-9.6800895e+46 -9.1581564e+44 -6.8831185e+45)
(-1.1856084e+47 5.254785e+45 -7.9241177e+44)
(-1.048642e+47 -6.057767e+44 1.6092445e+45)
(-1.0412114e+47 1.8686193e+45 6.022593e+45)
(-1.0007828e+47 -4.1558108e+44 -3.7231769e+45)
(-1.0327472e+47 -1.1617376e+45 1.4534217e+46)
(-1.038442e+47 -3.2225641e+44 1.3495874e+46)
(-1.0413523e+47 -8.5410921e+44 1.4064673e+46)
(-1.0366449e+47 -1.5887551e+45 1.4353525e+46)
(-1.0141119e+47 -1.7814155e+45 1.3301521e+46)
(-1.2041891e+47 -4.8977942e+45 1.5713005e+46)
(-1.0192098e+47 -2.7241431e+45 1.4119829e+46)
(-1.0287496e+47 -2.0389431e+45 1.4476663e+46)
(-1.0294498e+47 -1.4975142e+45 1.3249743e+46)
(-1.2082709e+47 -3.594411e+45 1.415387e+46)
(-1.2203472e+47 -4.9473204e+45 1.6363758e+46)
(-1.2143585e+47 -4.515568e+45 1.5114195e+46)
(-1.394359e+47 -8.7488464e+45 1.4492301e+46)
(-1.4238817e+47 -8.3073091e+44 -1.3441085e+46)
(-1.4078785e+47 -1.6419488e+45 -1.2257556e+46)
(-1.1770142e+47 -2.3395234e+45 -1.8498735e+46)
(-1.1300171e+47 8.2374305e+44 -4.6835338e+45)
(-1.1225051e+47 2.4429178e+45 -5.5929237e+45)
(-1.1780742e+47 -2.1523778e+45 -1.8428208e+46)
(-1.0144e+47 -6.3989782e+45 -7.9137493e+45)
(-1.022889e+47 7.4553644e+44 -1.9364539e+46)
(-1.0050354e+47 -1.6503158e+44 -2.0377984e+46)
(-9.9451597e+46 -1.9957843e+45 -8.4028346e+45)
(-1.1553415e+47 -3.4082212e+45 -1.726287e+46)
(-1.1150783e+47 1.1240502e+44 -3.4169941e+45)
(-1.1137214e+47 1.6266347e+45 -4.7820952e+45)
(-1.1627483e+47 -3.5491104e+45 -1.7645382e+46)
(-9.5770877e+46 -9.0715682e+45 -1.449101e+46)
(-9.2468588e+46 -4.5973519e+45 -1.4175666e+46)
(-7.9755523e+46 -1.6363357e+46 1.1509802e+46)
(-7.7086597e+46 -6.6782376e+45 1.0727046e+46)
(-8.3332976e+46 -1.2477954e+45 -2.0206922e+46)
(-8.4015339e+46 -1.2685248e+45 -1.9291853e+46)
(-7.3944167e+46 -4.3329184e+45 -1.342861e+46)
(-7.3516564e+46 -9.1668011e+44 -1.3726711e+46)
(-5.9863372e+46 -6.4058769e+45 -1.2185236e+46)
(-5.9500249e+46 -3.1342695e+45 -1.1754197e+46)
(-5.6075107e+46 -3.326977e+45 1.1918964e+46)
(-5.5322431e+46 -1.0742396e+46 1.0142176e+46)
(-8.3549542e+46 -9.9904838e+44 -2.0662515e+46)
(-8.4652946e+46 -7.5720644e+44 -1.9821016e+46)
(-7.406525e+46 -6.2967292e+44 -1.4429101e+46)
(-7.5066758e+46 -3.7384707e+45 -1.3816938e+46)
(-6.1370719e+46 -5.8936401e+45 -1.2617285e+46)
(-5.997136e+46 -2.8051656e+45 -1.2593738e+46)
(-5.8384154e+46 -1.0731023e+46 1.2059798e+46)
(-5.7983375e+46 -2.8130092e+45 1.2820451e+46)
(-8.5881392e+46 2.5538443e+44 -2.058886e+46)
(-8.4993728e+46 5.4972674e+43 -2.1275375e+46)
(-7.4812643e+46 5.6726122e+44 -1.527531e+46)
(-7.5917518e+46 -2.6855618e+45 -1.4715489e+46)
(-6.2434069e+46 -5.6316348e+45 -1.3426966e+46)
(-6.0177039e+46 -2.0428836e+45 -1.3192564e+46)
(-5.8707485e+46 -1.97606e+45 1.2807896e+46)
(-6.0545235e+46 -1.04828e+46 1.2657848e+46)
(-8.4899174e+46 -3.4726997e+44 -2.1250147e+46)
(-8.609871e+46 -2.7107029e+44 -2.0641877e+46)
(-7.4793277e+46 -2.2561579e+43 -1.4913717e+46)
(-7.6400267e+46 -3.4025808e+45 -1.4586236e+46)
(-6.1639304e+46 -4.6703679e+45 -1.3606764e+46)
(-6.01194e+46 -1.2397081e+45 -1.347542e+46)
(-6.0425592e+46 -9.2291472e+45 1.3243301e+46)
(-5.7707127e+46 -6.7695449e+44 1.2302302e+46)
(-1.2760888e+47 -2.1106834e+46 -1.2794738e+46)
(-1.2301495e+47 -6.9195424e+45 -1.1361626e+46)
(-1.0237068e+47 -2.99031e+46 1.2229183e+46)
(-1.0450119e+47 -1.1832874e+46 1.4516492e+46)
(-1.0123683e+47 -6.9753317e+45 -7.0723807e+45)
(-1.0237405e+47 8.1850847e+44 -1.8332737e+46)
(-1.0000367e+47 1.1600524e+45 -1.9489726e+46)
(-9.8375916e+46 -1.0045941e+45 -6.9459935e+45)
(-9.4882239e+46 -1.002172e+46 -1.3601411e+46)
(-9.2498742e+46 -4.2986001e+45 -1.2768003e+46)
(-8.3143671e+46 -1.9242715e+46 1.5018186e+46)
(-7.8149019e+46 -6.7717376e+45 1.338921e+46)
(-7.3298578e+46 -3.177727e+45 1.6873205e+46)
(-8.7167106e+46 2.2967598e+44 1.9933216e+46)
(-7.1975027e+46 1.3409651e+44 1.6797961e+46)
(-8.6323063e+46 2.7653321e+44 1.9986443e+46)
(-7.2715368e+46 -2.7038868e+45 1.6408576e+46)
(-7.237453e+46 3.4106342e+44 1.7135478e+46)
(-8.5830382e+46 1.8550621e+44 2.0240421e+46)
(-8.655448e+46 4.7810789e+44 1.9644498e+46)
(-7.3630665e+46 -3.7534742e+45 1.7434055e+46)
(-7.2532009e+46 -3.3062845e+44 1.7448661e+46)
(-8.6597215e+46 -4.3939405e+44 2.0070833e+46)
(-8.6083945e+46 -4.1398582e+44 2.0376472e+46)
(-7.2849745e+46 -3.1398997e+45 1.6656694e+46)
(-8.6824989e+46 4.1431808e+43 1.98136e+46)
(-7.1647727e+46 1.1185268e+44 1.7116482e+46)
(-8.5866385e+46 -1.840381e+44 2.0250806e+46)
(-8.3753573e+46 -2.4602883e+45 1.8877274e+46)
(-7.238025e+46 -4.0415745e+45 1.6660628e+46)
(-7.1529913e+46 -1.1919732e+45 1.6977101e+46)
(-8.4986593e+46 -1.1183322e+45 1.8930567e+46)
(-8.4631363e+46 -1.210453e+45 1.941979e+46)
(-8.5133726e+46 -5.7815177e+45 1.7960508e+46)
(-1.001142e+47 -1.9433517e+45 2.2771354e+46)
(-9.85755e+46 -3.3077272e+45 2.3279164e+46)
(-7.2469537e+46 -4.052608e+45 1.6758028e+46)
(-8.5631426e+46 -1.0132892e+45 1.9149543e+46)
(-7.1411577e+46 -1.1367373e+45 1.7542138e+46)
(-8.4652346e+46 -1.3820467e+45 1.9777216e+46)
(-7.3053175e+46 -4.0826519e+45 1.68904e+46)
(-7.2117648e+46 -9.099434e+44 1.72094e+46)
(-8.6032438e+46 -8.614675e+44 1.9957352e+46)
(-8.6533703e+46 -1.0275999e+45 1.9394527e+46)
(-7.2831678e+46 -3.5368616e+45 1.6809001e+46)
(-7.250798e+46 -6.6073601e+44 1.7667548e+46)
(-8.5162178e+46 -9.2120871e+44 2.0147334e+46)
(-8.6064247e+46 -4.844683e+44 1.9582151e+46)
(-8.4564331e+46 -6.2727624e+45 1.7965043e+46)
(-8.2760812e+46 -2.2195365e+45 1.8278497e+46)
(-1.0014711e+47 -1.8553407e+45 2.2540579e+46)
(-9.8662731e+46 -2.4097132e+45 2.312568e+46)
(-8.4577361e+46 -6.2616454e+45 1.8606337e+46)
(-8.3352176e+46 -2.4064344e+45 1.976252e+46)
(-1.0032714e+47 -1.9768814e+45 2.3350777e+46)
(-9.9148745e+46 -2.9525305e+45 2.4440889e+46)
(-1.0283601e+47 -7.2262777e+45 2.3358427e+46)
(-9.8945687e+46 -2.909234e+45 2.4138049e+46)
(-8.272968e+46 -3.0606426e+45 1.9377527e+46)
(-8.2854614e+46 -6.7894259e+45 1.770715e+46)
(-1.0008302e+47 -2.1946233e+45 2.3333253e+46)
(-1.1523262e+47 -4.9289305e+45 2.8489461e+46)
(-1.0457736e+47 -1.3564127e+46 2.0887361e+46)
(-1.1432161e+47 -6.7561083e+45 3.1172915e+46)
(-1.0166019e+47 -9.0503421e+45 2.1610282e+46)
(-1.1206829e+47 -6.5934422e+45 2.8508199e+46)
(-1.213416e+47 -4.3668545e+45 5.4022729e+45)
(-1.1561948e+47 9.1463874e+43 -9.6830225e+45)
(-1.1490529e+47 -1.1096661e+45 -1.0889752e+46)
(-1.2113122e+47 8.5696601e+44 4.0222177e+45)
(-1.3726665e+47 -3.8940788e+45 1.1202102e+46)
(-1.2492503e+47 -6.5636076e+45 1.5855429e+46)
(-1.2445775e+47 -9.9231257e+44 1.5072279e+46)
(-1.2037093e+47 -1.5238537e+45 -4.187395e+45)
(-1.2015249e+47 -4.0893987e+45 -4.7613516e+45)
(-1.3818399e+47 -1.0531159e+46 1.8143039e+46)
(-1.3184626e+47 -1.9290617e+45 -1.2095505e+46)
(-1.2100658e+47 -1.5300771e+44 3.4833142e+45)
(-1.153301e+47 -2.3042523e+45 -1.1525905e+46)
(-1.2161923e+47 -3.8873996e+45 4.0971523e+45)
(-1.1554051e+47 1.9593153e+44 -1.1120557e+46)
(-1.339147e+47 2.8898211e+45 1.0361474e+46)
(-1.2263816e+47 3.6156118e+44 1.3866545e+46)
(-1.2140535e+47 -2.2074525e+45 -2.6270187e+45)
(-1.2017934e+47 -3.0097518e+45 -5.2602145e+45)
(-1.2244208e+47 -5.9378983e+45 1.5306976e+46)
(-1.0295628e+47 6.6350978e+43 9.9909507e+44)
(-1.0310758e+47 -1.0187873e+45 1.6711666e+44)
(-1.0716144e+47 1.866086e+45 1.469577e+46)
(-1.0708345e+47 -2.5614542e+45 1.5576956e+46)
(-1.0299404e+47 -3.2041359e+44 8.9926513e+44)
(-1.0421875e+47 -1.5210607e+45 9.2976502e+44)
(-1.0823328e+47 1.4311557e+45 1.502606e+46)
(-1.0764758e+47 -3.0292547e+45 1.5325674e+46)
(-9.7642876e+46 7.7961598e+44 -5.0977721e+45)
(-9.8033852e+46 -8.643839e+44 -5.5865721e+45)
(-1.0276572e+47 1.159835e+45 4.8081769e+45)
(-1.0297556e+47 -1.6533971e+45 5.5529996e+45)
(-1.0435909e+47 8.0866424e+44 5.5433033e+45)
(-9.8021562e+46 -4.0216161e+43 -4.7566177e+45)
(-9.8739465e+46 -1.418003e+45 -4.7489801e+45)
(-1.0374152e+47 -2.1912622e+45 5.7568654e+45)
(-9.6125607e+46 -2.2057622e+45 -7.0695623e+45)
(-9.9335167e+46 -4.1352962e+44 3.5355508e+44)
(-9.5581119e+46 -7.560915e+44 -7.0602202e+45)
(-9.9460007e+46 -2.4517566e+45 5.3458301e+44)
(-1.1745156e+47 3.1264812e+45 -1.5222975e+45)
(-9.6742394e+46 -2.0485031e+45 -7.3968181e+45)
(-1.0003338e+47 -2.7799814e+44 2.0753483e+41)
(-9.9862608e+46 -2.5024009e+45 6.5535595e+44)
(-9.6372691e+46 -7.2372648e+44 -6.9838819e+45)
(-1.2033583e+47 -7.4302046e+44 2.7745417e+44)
(-9.6629908e+46 -5.1722018e+44 -5.9130274e+45)
(-9.6826067e+46 -2.1116258e+45 -7.1730515e+45)
(-9.8897414e+46 2.470519e+44 -1.7594156e+44)
(-9.8841243e+46 -1.8005806e+45 6.8373452e+44)
(-9.5940574e+46 -5.0803623e+44 -6.3886693e+45)
(-9.6211899e+46 -2.2631127e+45 -6.4949127e+45)
(-9.8199281e+46 -4.133748e+44 4.1272824e+44)
(-9.8372834e+46 -2.5367989e+45 7.0038475e+44)
(-1.1212247e+47 2.0079818e+45 -1.54286e+46)
(-1.1350035e+47 4.4552274e+45 -1.4185892e+46)
(-1.1712143e+47 4.559376e+45 -2.4843212e+45)
(-1.1857288e+47 3.5400307e+44 -8.1277385e+44)
(-1.0236889e+47 3.7124635e+44 4.6520542e+45)
(-9.7908048e+46 -1.6527947e+45 -5.3307881e+45)
(-1.0223662e+47 -2.5106618e+45 5.4706857e+45)
(-9.7489223e+46 -2.6718238e+44 -4.5223317e+45)
(-9.7167504e+46 -9.236119e+44 -4.3615925e+45)
(-9.7237682e+46 -2.1770158e+45 -4.6792334e+45)
(-1.0176825e+47 2.0235993e+42 5.2696562e+45)
(-1.0181069e+47 -3.0774042e+45 5.7109979e+45)
(-1.0207386e+47 -1.2809803e+45 1.333254e+45)
(-1.0221459e+47 -2.252019e+45 8.2892046e+44)
(-1.0509223e+47 4.1374887e+44 1.4378181e+46)
(-1.0520692e+47 -4.1236845e+45 1.481924e+46)
(-1.0595421e+47 9.870404e+44 1.3766004e+46)
(-1.0276309e+47 -1.8996899e+45 2.7707621e+44)
(-1.0279859e+47 -7.8114268e+44 1.235689e+45)
(-1.0575628e+47 -3.0737321e+45 1.4598293e+46)
(-1.0014161e+47 3.3586455e+44 7.433193e+44)
(-9.6027519e+46 2.1561363e+44 -6.4689362e+45)
(-9.6201987e+46 -1.7708837e+45 -6.6865324e+45)
(-1.0025596e+47 -1.8018867e+45 1.1438372e+45)
(-9.9000415e+46 -1.6092781e+45 1.1601092e+44)
(-9.8676226e+46 9.5631843e+43 -4.2916576e+44)
(-9.5730456e+46 -1.7751683e+45 -8.8311319e+45)
(-9.5444157e+46 1.7765265e+44 -8.7574476e+45)
(-9.6344941e+46 -9.7420515e+44 -8.5798539e+45)
(-9.9108012e+46 8.5301394e+44 -1.638253e+44)
(-9.5619433e+46 6.3346566e+44 -8.6562148e+45)
(-9.8903776e+46 -1.1788766e+45 1.1700496e+44)
(-9.5887455e+46 7.1519465e+44 -7.0720302e+45)
(-9.6250965e+46 -1.1490986e+45 -7.3733946e+45)
(-9.8837345e+46 1.1154245e+45 -2.8161907e+44)
(-9.8764622e+46 -7.6410958e+44 2.0990209e+44)
(-7.7966831e+46 6.0135251e+44 -4.5278651e+45)
(-8.0130511e+46 1.7510601e+45 2.1068704e+44)
(-7.8007201e+46 1.4051997e+45 -4.3644017e+45)
(-8.0308005e+46 3.7677377e+43 3.7719359e+44)
(-7.7951946e+46 8.5627066e+44 -4.4640294e+45)
(-8.0293611e+46 1.8082783e+45 -1.7342511e+44)
(-7.8196124e+46 1.3988113e+45 -4.3179369e+45)
(-8.0485237e+46 2.6182306e+44 -2.7428764e+43)
(-7.8687609e+46 6.1805458e+44 -3.9645297e+45)
(-8.0495863e+46 1.7357512e+45 -5.9339229e+44)
(-7.8867552e+46 1.3180341e+45 -3.8366937e+45)
(-8.0855176e+46 2.9519042e+44 -4.6087164e+44)
(-8.2742584e+46 1.4090486e+45 -1.5436584e+44)
(-8.279525e+46 -1.0780122e+44 -2.4347916e+44)
(-8.1131179e+46 1.7631586e+44 -5.6348958e+45)
(-9.9379681e+46 1.0894286e+45 -7.9763875e+44)
(-8.1092041e+46 6.0775437e+44 -6.0190527e+45)
(-8.3038086e+46 1.1444055e+45 -8.1342484e+44)
(-9.9731279e+46 -6.7325558e+44 -1.2300827e+45)
(-8.1421781e+46 -8.861535e+43 -6.2631234e+45)
(-9.6558019e+46 -8.1658216e+44 -8.8081529e+45)
(-9.6466656e+46 1.3962044e+45 -9.6426491e+45)
(-8.3765584e+46 4.9783088e+44 -5.3764179e+44)
(-8.7316818e+46 2.1229577e+45 7.9674957e+45)
(-8.3711026e+46 8.5463925e+44 -4.1779708e+44)
(-8.0749524e+46 3.3752865e+44 -3.4214785e+45)
(-8.3514918e+46 1.7538918e+45 2.7405207e+45)
(-8.0629971e+46 1.1541612e+45 -3.2873529e+45)
(-8.3724644e+46 -3.409899e+44 2.930325e+45)
(-7.8746796e+46 6.4906495e+44 -3.8642951e+45)
(-8.1509135e+46 1.7470202e+45 1.0319667e+45)
(-7.8779353e+46 1.0871073e+45 -3.7016295e+45)
(-8.1665227e+46 -1.2830076e+44 1.1787147e+45)
(-8.5100654e+46 8.3574348e+43 1.2877376e+46)
(-8.5614455e+46 8.5946818e+44 1.227279e+46)
(-8.5581276e+46 5.3594236e+44 1.218961e+46)
(-8.5278687e+46 4.8938793e+43 1.2355163e+46)
(-8.5526242e+46 -1.5056742e+43 1.2699017e+46)
(-8.5405952e+46 -6.3043938e+44 1.2830551e+46)
(-8.5629369e+46 3.8426429e+44 1.2122368e+46)
(-8.5028096e+46 -3.1731343e+44 1.2630995e+46)
(-8.4510025e+46 -5.3835337e+44 1.2379667e+46)
(-8.458498e+46 -1.2485932e+45 1.2744762e+46)
(-1.0104399e+47 -2.7258966e+45 1.4970455e+46)
(-1.0156913e+47 -1.3750849e+45 1.3801745e+46)
(-8.4813764e+46 -5.3163533e+44 1.1934738e+46)
(-8.4420162e+46 -1.299808e+45 1.2722102e+46)
(-8.5318597e+46 7.9023101e+42 1.2269009e+46)
(-8.5016553e+46 -8.7954195e+44 1.3096852e+46)
(-8.5193125e+46 -5.5684212e+44 1.1975449e+46)
(-8.508465e+46 -8.5939693e+44 1.2379038e+46)
(-1.012129e+47 -2.3633523e+45 1.4621432e+46)
(-1.0133873e+47 -1.3991316e+45 1.4029213e+46)
(-1.0138401e+47 -1.5247005e+45 1.408659e+46)
(-1.0104452e+47 -2.5199158e+45 1.540031e+46)
(-1.0130975e+47 -2.8201662e+45 1.5676485e+46)
(-1.0122122e+47 -1.7945891e+45 1.4871513e+46)
(-1.2021128e+47 -5.8892282e+45 1.7735424e+46)
(-1.1965549e+47 -4.2872816e+45 1.4580264e+46)
(-1.191838e+47 -5.7979739e+45 1.5501844e+46)
(-1.4163559e+47 -2.8076006e+45 -1.1593257e+46)
(-1.3977392e+47 -3.1743633e+45 -1.0776649e+46)
(-1.4317666e+47 1.3397892e+45 -7.6473801e+45)
(-1.4222602e+47 8.6567482e+44 -7.0746074e+45)
(-1.1950022e+47 -1.2825585e+45 -1.4509787e+46)
(-9.1287176e+46 -5.275283e+44 -1.2919628e+46)
(-9.1253924e+46 -2.4335443e+44 -1.3696534e+46)
(-1.1226617e+47 5.2434791e+45 -1.3193607e+46)
(-1.1211206e+47 6.7896508e+44 -1.4022116e+46)
(-1.1978148e+47 -9.0159859e+44 -1.4277656e+46)
(-9.128261e+46 -1.7082174e+44 -1.2889512e+46)
(-9.1262736e+46 1.2904319e+44 -1.3746911e+46)
(-1.1456022e+47 -3.326125e+45 -1.6807405e+46)
(-1.1031266e+47 2.5981833e+44 -2.4397566e+45)
(-1.0966993e+47 1.37001e+45 -3.4888096e+45)
(-1.1416215e+47 -3.8680585e+45 -1.6713733e+46)
(-1.183006e+47 -2.1319345e+45 -1.3818404e+46)
(-8.9471724e+46 -1.3203449e+45 -1.1738574e+46)
(-8.9480244e+46 -9.7055926e+44 -1.2812595e+46)
(-1.106544e+47 4.8580624e+45 -1.2502989e+46)
(-1.1158398e+47 8.6591621e+43 -1.3372333e+46)
(-1.1876032e+47 -2.0456596e+45 -1.3910669e+46)
(-9.0145414e+46 -1.0754981e+45 -1.2162076e+46)
(-8.9696978e+46 -7.2083569e+44 -1.3266178e+46)
(-7.3147514e+46 -3.8719422e+45 -1.235375e+46)
(-8.2286852e+46 -5.8842341e+44 -1.8939823e+46)
(-7.1691832e+46 -5.6903146e+44 -1.2636171e+46)
(-8.0896071e+46 -6.640884e+44 -1.9626848e+46)
(-8.2201362e+46 -7.8497759e+44 -1.9076004e+46)
(-8.1069842e+46 -1.4441314e+45 -1.9722113e+46)
(-7.2957095e+46 -3.7381994e+45 -1.2586276e+46)
(-7.1898136e+46 -1.2115851e+45 -1.3162573e+46)
(-5.6917081e+46 -1.067709e+46 1.3126686e+46)
(-6.0013915e+46 -6.1870433e+45 -1.0942596e+46)
(-5.8443949e+46 -2.944692e+45 -1.0577505e+46)
(-5.6163724e+46 -2.5422082e+45 1.4131379e+46)
(-5.8116879e+46 -3.4467343e+45 -1.1168454e+46)
(-5.7276329e+46 -1.0173966e+46 1.3381014e+46)
(-5.9719425e+46 -5.7881126e+45 -1.1260982e+46)
(-5.5495218e+46 -2.8349357e+45 1.3127963e+46)
(-8.5119878e+46 -2.3449612e+45 -2.0233159e+46)
(-8.52863e+46 -2.4402788e+45 -2.0443941e+46)
(-4.5684919e+46 -4.0332485e+45 -1.0104654e+46)
(-4.472442e+46 -1.2667651e+45 -9.9363926e+45)
(-4.9589193e+46 -8.6250564e+44 -1.7499215e+46)
(-5.0193646e+46 -9.8600735e+44 -1.7056031e+46)
(-4.5991048e+46 -3.5664943e+45 -9.9947874e+45)
(-4.4989179e+46 -1.4192445e+45 -1.0521741e+46)
(-5.0053165e+46 -8.9679647e+44 -1.7992685e+46)
(-5.0651582e+46 -6.3353895e+44 -1.7270136e+46)
(-3.7537611e+46 -4.7480696e+45 1.190358e+45)
(-3.5819165e+46 -3.5247504e+45 1.1690309e+45)
(-4.8345248e+46 -6.5517138e+45 1.6709321e+46)
(-4.6857803e+46 -9.4305997e+44 1.6885992e+46)
(-3.6353742e+46 -5.0767972e+45 2.647593e+44)
(-4.7094573e+46 -6.4954037e+45 1.5316842e+46)
(-3.5162808e+46 -3.3940763e+45 1.3055075e+45)
(-4.6064949e+46 -1.006785e+45 1.6080165e+46)
(-8.5592865e+46 -2.1159262e+45 -2.1052505e+46)
(-8.5763486e+46 -2.0552949e+45 -2.0644121e+46)
(-5.1270918e+46 -5.7227223e+44 -1.7587339e+46)
(-4.6670997e+46 -3.7258677e+45 -1.0549677e+46)
(-5.0499195e+46 -4.7027898e+44 -1.7985766e+46)
(-4.4959545e+46 -9.1532861e+44 -1.0753881e+46)
(-5.1293153e+46 -1.633162e+44 -1.7857419e+46)
(-5.0830495e+46 -4.3249749e+44 -1.8590216e+46)
(-4.6205417e+46 -3.1341918e+45 -1.097629e+46)
(-4.5291704e+46 -1.0050444e+45 -1.1576519e+46)
(-3.7693166e+46 -4.9440761e+45 3.1259379e+44)
(-3.6310679e+46 -3.1204772e+45 1.2958844e+45)
(-4.7198992e+46 -8.2702475e+44 1.6540672e+46)
(-4.8191195e+46 -6.5256061e+45 1.5881279e+46)
(-3.6935405e+46 -2.9868265e+45 5.8981012e+44)
(-4.8931195e+46 -5.9700088e+45 1.6623966e+46)
(-4.7506892e+46 -3.763134e+44 1.6373011e+46)
(-3.8601282e+46 -4.2780388e+45 9.0369285e+44)
(-8.6564782e+46 -1.3604038e+45 -2.1797591e+46)
(-8.6713389e+46 -1.3580933e+45 -2.1498387e+46)
(-5.2319754e+46 -9.7872133e+43 -1.8207507e+46)
(-5.149196e+46 -1.1515407e+43 -1.8517295e+46)
(-4.7132367e+46 -3.2956226e+45 -1.1515019e+46)
(-4.5510293e+46 -5.258162e+44 -1.1475031e+46)
(-5.1907098e+46 2.6725685e+44 -1.818311e+46)
(-5.1227047e+46 1.3200946e+44 -1.8781858e+46)
(-4.6556569e+46 -2.7620354e+45 -1.1411907e+46)
(-4.5486144e+46 -3.5728817e+44 -1.1840481e+46)
(-3.9131814e+46 -3.765042e+45 7.1275846e+44)
(-4.9314416e+46 -5.613267e+45 1.6562895e+46)
(-3.679644e+46 -1.9454638e+45 1.6386712e+44)
(-4.7124303e+46 7.6053154e+44 1.5935107e+46)
(-3.9151982e+46 -4.4127097e+45 3.1108779e+44)
(-4.9780173e+46 -6.1254946e+45 1.6616928e+46)
(-3.7121763e+46 -2.5069488e+45 9.8509677e+44)
(-4.7913749e+46 -1.7865611e+44 1.6698382e+46)
(-8.6495735e+46 -1.7998068e+45 -2.146673e+46)
(-8.662832e+46 -1.6525447e+45 -2.1350909e+46)
(-5.2001015e+46 4.2563188e+44 -1.8263069e+46)
(-5.1268352e+46 5.2084533e+44 -1.8564128e+46)
(-4.6667239e+46 -2.7101127e+45 -1.15731e+46)
(-4.5276842e+46 6.0119288e+43 -1.1510198e+46)
(-5.206007e+46 7.1965757e+44 -1.8367965e+46)
(-5.1478587e+46 5.2539914e+44 -1.8969837e+46)
(-4.6653623e+46 -2.2554542e+45 -1.1484218e+46)
(-4.5728566e+46 4.5977761e+42 -1.1936818e+46)
(-3.8741058e+46 -3.5157942e+45 6.0898419e+43)
(-4.9171039e+46 -5.3780537e+45 1.6316774e+46)
(-3.6310685e+46 -1.329842e+45 1.1154443e+44)
(-4.6836162e+46 7.2014487e+44 1.6030802e+46)
(-3.8663039e+46 -3.0343179e+45 2.6275744e+44)
(-3.6893875e+46 -1.5277523e+45 2.8772185e+42)
(-4.8542585e+46 -4.9055678e+45 1.6302985e+46)
(-4.7082749e+46 9.9204912e+44 1.592862e+46)
(-1.0020996e+47 4.8916206e+44 -1.8528122e+46)
(-1.0274006e+47 -5.3142589e+44 -1.7043244e+46)
(-9.8336433e+46 -2.305502e+45 -6.4892539e+45)
(-1.0001464e+47 1.0223305e+45 -1.9112925e+46)
(-1.0230479e+47 7.8646179e+44 -1.7800596e+46)
(-1.0174388e+47 -7.5062665e+45 -6.620931e+45)
(-9.8660461e+46 -1.3771977e+45 -7.1313264e+45)
(-9.2307105e+46 -6.1144922e+45 -1.2522987e+46)
(-7.482506e+46 -1.0200924e+46 1.0930525e+46)
(-9.5027575e+46 -1.1292793e+46 -1.3758241e+46)
(-9.1794043e+46 -4.9300946e+45 -1.3015005e+46)
(-8.0041695e+46 -1.8943383e+46 1.2043887e+46)
(-7.8638794e+46 -7.4054227e+45 1.3509608e+46)
(-1.1441745e+47 -3.9685543e+45 -1.66113e+46)
(-1.0982672e+47 2.5844536e+44 -1.6020947e+45)
(-1.0893954e+47 1.827872e+45 -2.6008827e+45)
(-1.14264e+47 -4.0809959e+45 -1.60623e+46)
(-8.025823e+46 -3.3538699e+44 -1.9064739e+46)
(-8.169288e+46 -3.3288336e+44 -1.8401147e+46)
(-7.2982249e+46 -4.0374947e+45 -1.168759e+46)
(-7.1337748e+46 -6.2679033e+44 -1.1816575e+46)
(-8.1237021e+46 -4.3392187e+44 -1.8211856e+46)
(-7.2519773e+46 -3.9444897e+45 -1.1478014e+46)
(-7.9865638e+46 -6.0485634e+44 -1.9002901e+46)
(-7.0892817e+46 -6.494898e+44 -1.1948007e+46)
(-5.9514319e+46 -6.8792781e+45 -1.0297107e+46)
(-5.9224846e+46 -1.2697852e+46 1.7171031e+46)
(-5.8325696e+46 -3.7721968e+45 -9.1565704e+45)
(-5.7092087e+46 -3.9282557e+45 1.6499284e+46)
(-5.8080459e+46 -3.3333724e+45 -9.5948616e+45)
(-5.804264e+46 -1.127364e+46 1.4972797e+46)
(-6.00223e+46 -6.685038e+45 -9.8462705e+45)
(-5.6287948e+46 -2.748342e+45 1.5102053e+46)
(-5.8625425e+46 6.2909097e+44 1.7715188e+46)
(-5.8810214e+46 -2.3293672e+45 1.7690858e+46)
(-7.3805332e+46 4.8368901e+44 1.6857099e+46)
(-7.3282361e+46 6.414664e+44 1.6657251e+46)
(-7.3571944e+46 7.2003447e+44 1.6694819e+46)
(-5.8206405e+46 -1.9696722e+45 1.7359518e+46)
(-5.7781631e+46 1.4948357e+45 1.7611241e+46)
(-7.2898561e+46 8.9910235e+44 1.6407196e+46)
(-5.8589362e+46 1.1903866e+45 1.7671993e+46)
(-5.867969e+46 -1.9072434e+45 1.7648246e+46)
(-7.3827193e+46 8.177112e+44 1.6946372e+46)
(-7.3270469e+46 9.7794842e+44 1.6667132e+46)
(-5.8097056e+46 1.6811872e+45 1.762081e+46)
(-5.833191e+46 -1.569535e+45 1.7339541e+46)
(-7.3335501e+46 8.8227304e+44 1.6988181e+46)
(-7.2840123e+46 8.2088266e+44 1.6764277e+46)
(-5.868179e+46 4.7128554e+43 1.7745201e+46)
(-5.8621787e+46 -2.6772442e+45 1.7663458e+46)
(-7.3353704e+46 -6.8759437e+43 1.6612656e+46)
(-7.3331243e+46 -4.454795e+43 1.73388e+46)
(-5.8428404e+46 -2.3789846e+45 1.7560177e+46)
(-5.8816814e+46 1.1754541e+45 1.7847649e+46)
(-7.3403409e+46 2.2607058e+44 1.6490493e+46)
(-7.3233333e+46 2.8352203e+44 1.7082078e+46)
(-5.8580248e+46 7.2668158e+44 1.7790812e+46)
(-5.8794201e+46 -2.5402205e+45 1.7829604e+46)
(-7.3697493e+46 4.5415202e+44 1.642067e+46)
(-7.3480039e+46 5.817478e+44 1.7049736e+46)
(-5.7965822e+46 -1.8672946e+45 1.7323231e+46)
(-5.7508888e+46 1.4876441e+45 1.7550326e+46)
(-7.3009004e+46 7.6056059e+44 1.6394684e+46)
(-7.2479437e+46 5.8826681e+44 1.651984e+46)
(-7.2171556e+46 -3.2989288e+45 1.7254008e+46)
(-7.1665351e+46 -8.15875e+44 1.7819159e+46)
(-8.391499e+46 -1.315652e+45 2.0245874e+46)
(-8.4942315e+46 -5.8379204e+44 1.9900733e+46)
(-5.7975253e+46 -4.165344e+44 1.7430431e+46)
(-5.7575036e+46 -3.2014704e+45 1.7121036e+46)
(-7.2829625e+46 -4.4705515e+44 1.6240476e+46)
(-7.297103e+46 -4.6401879e+44 1.7100912e+46)
(-5.7758265e+46 -2.9640088e+45 1.7532534e+46)
(-5.829048e+46 -5.9786784e+42 1.7961494e+46)
(-7.3088981e+46 -3.9007271e+44 1.6294521e+46)
(-7.2924352e+46 -4.3893272e+44 1.7004537e+46)
(-7.2502734e+46 -3.5326574e+45 1.7375463e+46)
(-7.1450174e+46 -4.2603959e+44 1.7553455e+46)
(-8.4759703e+46 -6.39556e+44 2.0194689e+46)
(-8.5438648e+46 -6.8145906e+44 1.986616e+46)
(-5.7963543e+46 -8.8946827e+43 1.7613502e+46)
(-5.7586351e+46 -3.3128318e+45 1.7166613e+46)
(-7.3297374e+46 -4.3193285e+44 1.61394e+46)
(-7.3182644e+46 -2.320674e+44 1.6862134e+46)
(-5.7283478e+46 2.0655398e+44 1.7897794e+46)
(-5.7529364e+46 -2.865267e+45 1.7554747e+46)
(-7.2726345e+46 -1.1936812e+44 1.6329063e+46)
(-7.217357e+46 -3.2755897e+44 1.6563278e+46)
(-5.7978576e+46 9.0371706e+43 1.7377873e+46)
(-5.8037289e+46 -2.9807402e+45 1.7188343e+46)
(-7.3752659e+46 -3.6377279e+44 1.6697961e+46)
(-7.3203067e+46 -2.0075083e+44 1.6424682e+46)
(-5.8299792e+46 7.0478262e+44 1.7725284e+46)
(-5.8178031e+46 -2.8019977e+45 1.7347814e+46)
(-7.3740494e+46 -7.8336726e+43 1.6591075e+46)
(-7.3045016e+46 9.0628629e+43 1.6394646e+46)
(-5.8528227e+46 -2.8020616e+45 1.7619319e+46)
(-7.3762788e+46 8.8157562e+43 1.6811094e+46)
(-7.3176861e+46 2.2180684e+44 1.660957e+46)
(-5.7817794e+46 3.8577804e+44 1.7558801e+46)
(-5.8337845e+46 -2.3757071e+45 1.7374961e+46)
(-5.8898835e+46 6.3858205e+44 1.8050553e+46)
(-7.3127034e+46 1.2858155e+44 1.6471459e+46)
(-7.3007345e+46 -1.3522045e+44 1.7281267e+46)
(-7.2598047e+46 -3.8913903e+45 1.7895669e+46)
(-7.0975294e+46 -6.4091371e+44 1.7800929e+46)
(-8.4116373e+46 -6.4072332e+44 2.0207201e+46)
(-8.497658e+46 -6.0928832e+44 2.0025121e+46)
(-7.1952912e+46 -3.615896e+45 1.7244574e+46)
(-7.0764662e+46 -5.9077964e+44 1.805317e+46)
(-8.3925073e+46 -9.1972253e+44 2.0477954e+46)
(-8.490478e+46 -4.897887e+44 1.9878759e+46)
(-7.2708229e+46 -4.0947305e+45 1.8288107e+46)
(-7.128174e+46 -6.107024e+44 1.838407e+46)
(-8.4996676e+46 -8.2750089e+44 2.0391286e+46)
(-8.4225937e+46 -6.9416397e+44 2.0768012e+46)
(-8.4742581e+46 -4.0887211e+44 2.0673601e+46)
(-7.1831975e+46 -3.5113987e+45 1.7844118e+46)
(-7.1082902e+46 -7.2099385e+44 1.8722806e+46)
(-8.3677748e+46 -1.0152001e+45 2.1150627e+46)