/*--------------------------------*- C++ -*----------------------------------*\
  =========                 |
  \\      /  F ield         | OpenFOAM: The Open Source CFD Toolbox
   \\    /   O peration     | Website:  https://openfoam.org
    \\  /    A nd           | Version:  7
     \\/     M anipulation  |
\*---------------------------------------------------------------------------*/
FoamFile
{
    version     2.0;
    format      ascii;
    class       volScalarField;
    location    "3000";
    object      p;
}
// * * * * * * * * * * * * * * * * * * * * * * * * * * * * * * * * * * * * * //

dimensions      [0 2 -2 0 0 0 0];

internalField   nonuniform List<scalar> 
34222
(
-3.2041199e+40
-3.0159681e+40
-3.2373074e+40
-3.1483765e+40
-3.1252258e+40
-3.2223094e+40
-3.2452499e+40
-2.8201434e+40
-3.0505012e+40
-2.9427087e+40
-2.9628963e+40
-3.0589408e+40
-3.0372228e+40
-3.2646336e+40
-3.2703091e+40
-3.165195e+40
-3.1793768e+40
-3.2602963e+40
-3.1505059e+40
-3.1238501e+40
-3.2177458e+40
-3.2473105e+40
-3.3181671e+40
-2.8518414e+40
-2.6264239e+40
-2.869766e+40
-2.7738701e+40
-2.7583232e+40
-2.8520026e+40
-3.083091e+40
-3.0920152e+40
-2.9970077e+40
-2.9785862e+40
-3.0749495e+40
-2.9412205e+40
-2.9599636e+40
-3.0542608e+40
-3.0336608e+40
-3.3008033e+40
-3.2949655e+40
-3.2091901e+40
-3.1929646e+40
-3.2804462e+40
-3.2646382e+40
-3.1626326e+40
-3.176936e+40
-3.2567169e+40
-3.149588e+40
-3.1246982e+40
-3.2196674e+40
-3.2481815e+40
-3.3595723e+40
-3.2298728e+40
-3.245612e+40
-3.3510836e+40
-3.1718174e+40
-3.1882959e+40
-2.8836186e+40
-2.6534953e+40
-2.9029274e+40
-2.8050205e+40
-2.7884098e+40
-2.8850945e+40
-2.5901741e+40
-2.68278e+40
-2.6679235e+40
-2.5763649e+40
-2.8661353e+40
-2.7736741e+40
-2.7585907e+40
-2.8489955e+40
-3.0624866e+40
-3.0791601e+40
-3.1184285e+40
-3.0131123e+40
-3.0308112e+40
-3.1245068e+40
-3.1077649e+40
-3.0876326e+40
-2.9956482e+40
-2.9759177e+40
-3.0689307e+40
-2.9400001e+40
-2.9586455e+40
-3.0520591e+40
-3.0322988e+40
-3.2422298e+40
-3.2247598e+40
-3.3100207e+40
-3.3285733e+40
-3.2898082e+40
-3.2077393e+40
-3.191575e+40
-3.2750934e+40
-3.2661662e+40
-3.162424e+40
-3.1775203e+40
-3.2578627e+40
-3.1495664e+40
-3.1247654e+40
-3.2198767e+40
-3.248299e+40
-3.261959e+40
-3.2585471e+40
-3.2756893e+40
-3.3846704e+40
-3.2734093e+40
-3.179508e+40
-3.1466199e+40
-3.1361923e+40
-3.1872207e+40
-3.1438372e+40
-3.1943297e+40
-3.2020067e+40
-3.1606398e+40
-3.2614352e+40
-3.1521346e+40
-3.280713e+40
-3.2064993e+40
-3.2259767e+40
-3.3926246e+40
-2.9572751e+40
-2.8491158e+40
-2.9157636e+40
-2.8649944e+40
-2.680739e+40
-2.9357724e+40
-2.8357689e+40
-2.8198345e+40
-2.9184149e+40
-2.9735114e+40
-2.6030642e+40
-2.6166458e+40
-2.7116126e+40
-2.6964642e+40
-2.9003134e+40
-2.8052203e+40
-2.7886271e+40
-2.8822214e+40
-2.5931635e+40
-2.6819471e+40
-2.6672988e+40
-2.5792561e+40
-2.8661542e+40
-2.7737574e+40
-2.7588443e+40
-2.8488924e+40
-3.0675299e+40
-3.0731922e+40
-3.074784e+40
-3.0828248e+40
-3.0920733e+40
-3.0956164e+40
-3.1143412e+40
-3.1549772e+40
-3.0634219e+40
-3.0464419e+40
-3.1401638e+40
-3.156827e+40
-3.011769e+40
-3.0285285e+40
-3.1204875e+40
-3.1047448e+40
-3.0860672e+40
-2.99385e+40
-2.9750637e+40
-3.0674388e+40
-2.9399437e+40
-2.9585913e+40
-3.0519677e+40
-3.032231e+40
-3.2379544e+40
-3.2225279e+40
-3.3043321e+40
-3.321163e+40
-3.2911635e+40
-3.2081885e+40
-3.1928047e+40
-3.2767586e+40
-3.2663483e+40
-3.162447e+40
-3.1775752e+40
-3.2580232e+40
-3.2571431e+40
-3.2447316e+40
-3.2082362e+40
-3.1923459e+40
-3.1841545e+40
-3.1998871e+40
-3.2081977e+40
-3.1635303e+40
-3.2015331e+40
-3.2163488e+40
-3.2095052e+40
-3.2880228e+40
-3.2210314e+40
-3.205113e+40
-3.1990327e+40
-3.2148253e+40
-3.3035873e+40
-3.4211084e+40
-3.3040321e+40
-3.2866878e+40
-3.2292747e+40
-3.2230102e+40
-3.2229852e+40
-3.2161541e+40
-3.150024e+40
-3.1538005e+40
-3.1229926e+40
-3.1193733e+40
-3.130077e+40
-3.128235e+40
-3.1080793e+40
-3.1099423e+40
-3.1303328e+40
-3.160603e+40
-3.1571757e+40
-3.126623e+40
-3.1680446e+40
-3.1639797e+40
-3.1385445e+40
-3.1342123e+40
-3.1759142e+40
-3.1718859e+40
-3.1472312e+40
-3.1428876e+40
-3.2097656e+40
-3.1690989e+40
-3.219523e+40
-3.1788136e+40
-3.3008257e+40
-3.1985718e+40
-3.2393367e+40
-3.1885773e+40
-3.2291379e+40
-3.2463602e+40
-3.2680119e+40
-3.3232757e+40
-2.9969551e+40
-3.0347831e+40
-3.0064171e+40
-2.9376378e+40
-2.9453817e+40
-2.9665216e+40
-3.0136063e+40
-2.9530624e+40
-2.8468423e+40
-2.8663968e+40
-2.895618e+40
-2.8877193e+40
-2.9126698e+40
-2.9038492e+40
-2.8548052e+40
-2.746235e+40
-2.8951841e+40
-3.0062124e+40
-2.8797971e+40
-2.9473847e+40
-2.9688333e+40
-2.868173e+40
-2.7079912e+40
-2.8512351e+40
-2.9515798e+40
-2.9891245e+40
-2.9199555e+40
-2.8707487e+40
-2.9115851e+40
-2.8622139e+40
-2.7607289e+40
-2.6292446e+40
-2.6432864e+40
-2.7404163e+40
-2.7253385e+40
-2.9320611e+40
-2.8359401e+40
-2.8206028e+40
-2.9157944e+40
-3.0304831e+40
-3.0213877e+40
-2.96044e+40
-2.9689507e+40
-2.6064916e+40
-2.6199109e+40
-2.710849e+40
-2.6960214e+40
-2.9001441e+40
-2.8055791e+40
-2.7889763e+40
-2.8823757e+40
-2.5938823e+40
-2.682327e+40
-2.6678104e+40
-2.5795826e+40
-2.8661352e+40
-2.7736703e+40
-2.7588124e+40
-2.8488788e+40
-3.0762503e+40
-3.0795722e+40
-3.0826665e+40
-3.0804991e+40
-3.0828656e+40
-3.086832e+40
-3.0907298e+40
-3.0952044e+40
-3.0995251e+40
-3.1044035e+40
-3.1000337e+40
-3.1091041e+40
-3.1288963e+40
-3.132687e+40
-3.1184253e+40
-3.1536668e+40
-3.1748192e+40
-3.1959925e+40
-3.0977482e+40
-3.0794768e+40
-3.0613478e+40
-3.044493e+40
-3.1357171e+40
-3.1511468e+40
-3.0085123e+40
-3.0262855e+40
-3.1196002e+40
-3.1037373e+40
-3.0859781e+40
-2.9937563e+40
-2.9750253e+40
-3.067375e+40
-3.2387464e+40
-3.2231004e+40
-3.3057023e+40
-3.3223838e+40
-3.2913163e+40
-3.2082584e+40
-3.1929072e+40
-3.2769489e+40
-3.1518191e+40
-3.1378386e+40
-3.1521779e+40
-3.1353017e+40
-3.127437e+40
-3.1444317e+40
-3.1725993e+40
-3.1797715e+40
-3.1754699e+40
-3.1682698e+40
-3.1763301e+40
-3.1585066e+40
-3.1543797e+40
-3.1524464e+40
-3.1440536e+40
-3.1673265e+40
-3.1421952e+40
-3.1804992e+40
-3.1712743e+40
-3.1764366e+40
-3.1797448e+40
-3.1868392e+40
-3.1834594e+40
-3.187452e+40
-3.184132e+40
-3.1780166e+40
-3.174723e+40
-3.2352136e+40
-3.218805e+40
-3.2111827e+40
-3.2272113e+40
-3.1656079e+40
-3.1488651e+40
-3.1420425e+40
-3.158884e+40
-3.3219515e+40
-3.2268715e+40
-3.2352657e+40
-3.2524906e+40
-3.2437549e+40
-3.3427132e+40
-3.3453366e+40
-3.3232389e+40
-3.2622009e+40
-3.2530724e+40
-3.2578082e+40
-3.2480536e+40
-3.2439979e+40
-3.2357319e+40
-3.229768e+40
-3.2387379e+40
-3.1897437e+40
-3.1929026e+40
-3.200107e+40
-3.1968e+40
-3.1828678e+40
-3.186355e+40
-3.1935007e+40
-3.1899758e+40
-3.2009296e+40
-3.1975533e+40
-3.192076e+40
-3.1884372e+40
-3.1905972e+40
-3.1941256e+40
-3.1848695e+40
-3.1811575e+40
-3.1335762e+40
-3.1316904e+40
-3.1131317e+40
-3.1114096e+40
-3.1368969e+40
-3.1353023e+40
-3.1148738e+40
-3.116572e+40
-3.1137874e+40
-3.114717e+40
-3.1050999e+40
-3.1041553e+40
-3.1116666e+40
-3.1128339e+40
-3.1031502e+40
-3.1020424e+40
-3.1436094e+40
-3.1420007e+40
-3.1218471e+40
-3.1236914e+40
-3.1402512e+40
-3.1383851e+40
-3.1181522e+40
-3.1199659e+40
-3.1512153e+40
-3.1492702e+40
-3.1296427e+40
-3.1317332e+40
-3.1472422e+40
-3.145155e+40
-3.1254432e+40
-3.1275217e+40
-3.159382e+40
-3.1574252e+40
-3.1383225e+40
-3.1404997e+40
-3.1798032e+40
-3.1553422e+40
-3.1530942e+40
-3.1337638e+40
-3.1360549e+40
-3.1513566e+40
-3.1560847e+40
-3.1846968e+40
-3.1894668e+40
-3.1944772e+40
-3.1657159e+40
-3.1607895e+40
-3.2490354e+40
-3.2599044e+40
-3.2187856e+40
-3.20809e+40
-3.2146987e+40
-3.1859035e+40
-3.2095648e+40
-3.1807799e+40
-3.2045416e+40
-3.1991856e+40
-3.1756012e+40
-3.1703743e+40
-3.2814088e+40
-3.2703267e+40
-3.2403205e+40
-3.229456e+40
-2.9999957e+40
-2.9950287e+40
-2.9930538e+40
-3.0135716e+40
-3.0116158e+40
-3.0333506e+40
-3.0577141e+40
-3.0312893e+40
-3.0555668e+40
-3.0377883e+40
-3.0033269e+40
-3.0410019e+40
-2.9360525e+40
-2.949551e+40
-2.9341275e+40
-2.9476639e+40
-2.940807e+40
-2.9695793e+40
-2.9443088e+40
-2.9730783e+40
-2.9633019e+40
-2.9791181e+40
-2.9613947e+40
-2.9771598e+40
-3.0064961e+40
-3.0442406e+40
-3.0103428e+40
-3.048159e+40
-2.9802171e+40
-2.9518285e+40
-2.9478398e+40
-2.9763834e+40
-2.8513072e+40
-2.8476973e+40
-2.8728757e+40
-2.8692818e+40
-2.7997628e+40
-2.8553913e+40
-2.8656098e+40
-2.8639069e+40
-2.876556e+40
-2.8747606e+40
-2.8944236e+40
-2.9193975e+40
-2.915855e+40
-2.890813e+40
-2.8838126e+40
-2.8952732e+40
-2.906958e+40
-2.8854422e+40
-2.8872808e+40
-2.8987623e+40
-2.8969126e+40
-2.9105907e+40
-2.9234979e+40
-2.9086781e+40
-2.9215474e+40
-2.927443e+40
-2.9231773e+40
-2.9027478e+40
-2.8983017e+40
-2.8592902e+40
-2.8550041e+40
-2.8810718e+40
-2.8766734e+40
-2.8074507e+40
-2.7551392e+40
-2.9004216e+40
-2.8922177e+40
-2.9424183e+40
-2.9508393e+40
-2.7891835e+40
-2.9098389e+40
-3.0556251e+40
-3.0657324e+40
-3.0019591e+40
-2.9927553e+40
-3.0228292e+40
-2.935174e+40
-2.8852335e+40
-2.87728e+40
-2.926807e+40
-2.7744738e+40
-3.0424592e+40
-2.7351952e+40
-2.9264195e+40
-2.8986403e+40
-3.000482e+40
-2.9838622e+40
-2.8826006e+40
-2.9657537e+40
-2.8685975e+40
-2.769847e+40
-2.6552738e+40
-2.6686758e+40
-2.7542249e+40
-2.8517391e+40
-2.9483476e+40
-2.9846559e+40
-2.9764086e+40
-3.0466782e+40
-3.0381995e+40
-2.9433009e+40
-2.9144985e+40
-2.9187506e+40
-2.9387629e+40
-2.8931812e+40
-2.8972748e+40
-2.8754103e+40
-2.871494e+40
-2.8229223e+40
-2.9348702e+40
-2.9065116e+40
-2.9106123e+40
-2.9309159e+40
-2.8849424e+40
-2.8892467e+40
-2.8675037e+40
-2.8631252e+40
-2.81445e+40
-2.769863e+40
-2.7620243e+40
-2.6330414e+40
-2.6467238e+40
-2.7397303e+40
-2.725038e+40
-2.9311307e+40
-2.8363287e+40
-2.8220396e+40
-2.9154519e+40
-3.0227594e+40
-3.0275871e+40
-3.0659126e+40
-3.0610249e+40
-3.0566732e+40
-3.0141058e+40
-3.0184871e+40
-3.0521118e+40
-2.9878881e+40
-2.95903e+40
-2.955128e+40
-2.9836797e+40
-2.9967198e+40
-2.9630421e+40
-2.9676699e+40
-2.9920401e+40
-2.6068051e+40
-2.6201892e+40
-2.7110848e+40
-2.6962899e+40
-2.9001269e+40
-2.8055668e+40
-2.7889448e+40
-2.8823701e+40
-2.5939516e+40
-2.6823099e+40
-2.667815e+40
-2.5796136e+40
-3.0856879e+40
-3.0841583e+40
-3.0890758e+40
-3.0872555e+40
-3.0880342e+40
-3.0869841e+40
-3.0848794e+40
-3.0859357e+40
-3.0922096e+40
-3.0905489e+40
-3.096179e+40
-3.0940303e+40
-3.1000745e+40
-3.098009e+40
-3.1044417e+40
-3.1021124e+40
-3.108776e+40
-3.106476e+40
-3.1084948e+40
-3.113568e+40
-3.1110575e+40
-3.1130173e+40
-3.1173403e+40
-3.1224464e+40
-3.1378928e+40
-3.1425482e+40
-3.1370477e+40
-3.1480397e+40
-3.1321021e+40
-3.1269636e+40
-3.1688346e+40
-3.1578118e+40
-3.1693173e+40
-3.1897608e+40
-3.0946197e+40
-3.0770575e+40
-3.0603772e+40
-3.0431045e+40
-3.1354008e+40
-3.1511628e+40
-3.0084352e+40
-3.0261963e+40
-3.1195693e+40
-3.103684e+40
-3.2388232e+40
-3.223174e+40
-3.3058454e+40
-3.3225327e+40
-3.1651419e+40
-3.180287e+40
-3.0956338e+40
-3.152545e+40
-3.149069e+40
-3.0806399e+40
-3.0730887e+40
-3.0884637e+40
-3.1413235e+40
-3.1454265e+40
-3.1553168e+40
-3.1513298e+40
-3.1451642e+40
-3.1614371e+40
-3.159331e+40
-3.1624866e+40
-3.1603959e+40
-3.1501717e+40
-3.1493942e+40
-3.1497702e+40
-3.1506459e+40
-3.1490621e+40
-3.1481763e+40
-3.1457797e+40
-3.1561756e+40
-3.1448452e+40
-3.1472262e+40
-3.1461354e+40
-3.1439502e+40
-3.1428696e+40
-3.138688e+40
-3.1457684e+40
-3.1257296e+40
-3.1248233e+40
-3.1377463e+40
-3.1582858e+40
-3.1477904e+40
-3.135727e+40
-3.1368782e+40
-3.1239008e+40
-3.1227646e+40
-3.1652224e+40
-3.1634342e+40
-3.166161e+40
-3.1643788e+40
-3.160096e+40
-3.1495626e+40
-3.1617993e+40
-3.1511313e+40
-3.162313e+40
-3.1589116e+40
-3.1728787e+40
-3.1713308e+40
-3.1704942e+40
-3.1719961e+40
-3.1688175e+40
-3.1669722e+40
-3.1678784e+40
-3.1697048e+40
-3.1683954e+40
-3.1668706e+40
-3.157606e+40
-3.1561321e+40
-3.1652792e+40
-3.1545e+40
-3.1634219e+40
-3.1526292e+40
-3.1807539e+40
-3.1635333e+40
-3.1554576e+40
-3.1724985e+40
-3.1092524e+40
-3.165994e+40
-3.1624887e+40
-3.0944356e+40
-3.0875325e+40
-3.1025658e+40
-3.1590615e+40
-3.1556144e+40
-3.2712881e+40
-3.2533527e+40
-3.2438624e+40
-3.2614598e+40
-3.1710603e+40
-3.1797922e+40
-3.1979479e+40
-3.18922e+40
-3.2914088e+40
-3.2728321e+40
-3.2629925e+40
-3.2812176e+40
-3.3025803e+40
-3.2920043e+40
-3.2992314e+40
-3.288259e+40
-3.2716165e+40
-3.2779468e+40
-3.2673824e+40
-3.2817205e+40
-3.2227326e+40
-3.2270586e+40
-3.2352664e+40
-3.2307059e+40
-3.2261603e+40
-3.2183036e+40
-3.2135185e+40
-3.2212182e+40
-3.2371599e+40
-3.2324502e+40
-3.229677e+40
-3.2247224e+40
-3.2226574e+40
-3.219835e+40
-3.2277004e+40
-3.2146265e+40
-3.2166343e+40
-3.2090188e+40
-3.2046959e+40
-3.2121139e+40
-3.2077653e+40
-3.2003723e+40
-3.1962629e+40
-3.2035191e+40
-3.2044217e+40
-3.2002899e+40
-3.2087377e+40
-3.1956813e+40
-3.2179452e+40
-3.2132948e+40
-3.2098541e+40
-3.2050032e+40
-3.1758468e+40
-3.1723142e+40
-3.1688894e+40
-3.1654837e+40
-3.1857222e+40
-3.1840327e+40
-3.1868152e+40
-3.1850566e+40
-3.1822545e+40
-3.1803906e+40
-3.1832921e+40
-3.1813897e+40
-3.1827068e+40
-3.1809166e+40
-3.1725082e+40
-3.1707193e+40
-3.1790981e+40
-3.1770907e+40
-3.168759e+40
-3.1666257e+40
-3.1752796e+40
-3.1735283e+40
-3.1744208e+40
-3.176206e+40
-3.1770399e+40
-3.178696e+40
-3.1796611e+40
-3.1779518e+40
-3.1753618e+40
-3.1735961e+40
-3.1648788e+40
-3.1630549e+40
-3.1717951e+40
-3.1610711e+40
-3.169908e+40
-3.1590481e+40
-3.1173038e+40
-3.1180867e+40
-3.1082847e+40
-3.1074552e+40
-3.1155298e+40
-3.1165127e+40
-3.1066421e+40
-3.1058069e+40
-3.1116457e+40
-3.1213537e+40
-3.1205929e+40
-3.1108139e+40
-3.1187993e+40
-3.1197476e+40
-3.1099297e+40
-3.10904e+40
-3.0934633e+40
-3.0944072e+40
-3.0913295e+40
-3.092426e+40
-3.1185951e+40
-3.1282038e+40
-3.127296e+40
-3.1176512e+40
-3.1167248e+40
-3.1264594e+40
-3.1253037e+40
-3.1156733e+40
-3.1148378e+40
-3.1245138e+40
-3.1237278e+40
-3.1139565e+40
-3.1131318e+40
-3.1229777e+40
-3.1219816e+40
-3.1122828e+40
-3.1348357e+40
-3.1359216e+40
-3.1265645e+40
-3.1254684e+40
-3.132708e+40
-3.133905e+40
-3.1244232e+40
-3.123314e+40
-3.1309321e+40
-3.1318463e+40
-3.1223852e+40
-3.1213761e+40
-3.1203841e+40
-3.1300564e+40
-3.1289377e+40
-3.1193647e+40
-3.1434317e+40
-3.1445166e+40
-3.1612259e+40
-3.135319e+40
-3.1342148e+40
-3.1411195e+40
-3.1424302e+40
-3.1331033e+40
-3.1318938e+40
-3.1424786e+40
-3.1636583e+40
-3.1448154e+40
-3.1390669e+40
-3.1401825e+40
-3.1308811e+40
-3.1297236e+40
-3.1368077e+40
-3.138054e+40
-3.1286182e+40
-3.1274791e+40
-3.1683938e+40
-3.1660294e+40
-3.1472026e+40
-3.1495262e+40
-3.1734072e+40
-3.170752e+40
-3.1517354e+40
-3.154265e+40
-3.1782671e+40
-3.1759182e+40
-3.1568358e+40
-3.1593128e+40
-3.2246884e+40
-3.1955852e+40
-3.2193788e+40
-3.190363e+40
-3.2296192e+40
-3.2007628e+40
-3.2347873e+40
-3.2059351e+40
-3.1796216e+40
-3.1987282e+40
-3.1962203e+40
-3.1770682e+40
-3.1936419e+40
-3.1908526e+40
-3.1743581e+40
-3.1716151e+40
-3.1883432e+40
-3.1857888e+40
-3.1691588e+40
-3.166577e+40
-3.1639736e+40
-3.1832364e+40
-3.1805903e+40
-3.1614554e+40
-3.2275167e+40
-3.256285e+40
-3.2507391e+40
-3.2219717e+40
-3.2453748e+40
-3.2397377e+40
-3.2164263e+40
-3.2108383e+40
-2.9980968e+40
-3.0167339e+40
-2.9965178e+40
-3.0150938e+40
-2.9932582e+40
-3.0023112e+40
-3.0014083e+40
-2.9923102e+40
-2.9913447e+40
-3.0004229e+40
-2.9903491e+40
-2.9993528e+40
-3.0209278e+40
-3.0113783e+40
-3.0219685e+40
-3.0103998e+40
-3.0083993e+40
-3.0189648e+40
-3.0094559e+40
-3.0199914e+40
-3.0348755e+40
-3.0325e+40
-3.0448704e+40
-3.0438355e+40
-3.0314511e+40
-3.0592058e+40
-3.0576007e+40
-3.0726069e+40
-3.0715207e+40
-3.056524e+40
-3.0304965e+40
-3.0294684e+40
-3.0428562e+40
-3.041776e+40
-3.0555131e+40
-3.0544593e+40
-3.0704778e+40
-3.0694288e+40
-3.0364213e+40
-3.0607026e+40
-3.0014132e+40
-3.0199338e+40
-2.9996828e+40
-3.0182943e+40
-3.0396585e+40
-3.0640225e+40
-3.037965e+40
-3.0622546e+40
-2.9376002e+40
-2.934504e+40
-2.9335306e+40
-2.9410767e+40
-2.9401195e+40
-2.946592e+40
-2.9510633e+40
-2.9536102e+40
-2.9475583e+40
-2.954587e+40
-2.938326e+40
-2.9326239e+40
-2.9392202e+40
-2.9317421e+40
-2.9456858e+40
-2.9526981e+40
-2.9517783e+40
-2.944783e+40
-2.9392619e+40
-2.9527338e+40
-2.9663956e+40
-2.9647924e+40
-2.982152e+40
-2.9805834e+40
-2.942807e+40
-2.9409585e+40
-2.956209e+40
-2.9544224e+40
-2.969861e+40
-2.9855847e+40
-2.9680696e+40
-2.9838008e+40
-2.9615039e+40
-2.9690841e+40
-2.9681403e+40
-2.9605366e+40
-2.9841396e+40
-2.9766727e+40
-2.9851047e+40
-2.9757122e+40
-2.966245e+40
-2.9596179e+40
-2.9672175e+40
-2.9586947e+40
-2.9747796e+40
-2.9831885e+40
-2.9822039e+40
-2.9738098e+40
-3.0044578e+40
-3.0230629e+40
-3.0028456e+40
-3.0213758e+40
-3.0427666e+40
-3.0411341e+40
-3.0671164e+40
-3.0654844e+40
-3.0082382e+40
-3.0267988e+40
-3.0061898e+40
-3.0247798e+40
-3.0466333e+40
-3.0711143e+40
-3.0445142e+40
-3.0689206e+40
-2.9767757e+40
-2.9924002e+40
-2.9747801e+40
-2.9903721e+40
-2.9499425e+40
-2.9631657e+40
-2.947948e+40
-2.9612227e+40
-2.946082e+40
-2.9594191e+40
-2.9443017e+40
-2.9576687e+40
-2.9729822e+40
-2.9886176e+40
-2.9713111e+40
-2.9870003e+40
-2.8618822e+40
-2.8599049e+40
-2.830858e+40
-2.8515246e+40
-2.8495188e+40
-2.8582501e+40
-2.8567033e+40
-2.8273293e+40
-2.8462284e+40
-2.8477661e+40
-2.8720715e+40
-2.8700876e+40
-2.8831998e+40
-2.8811531e+40
-2.8684663e+40
-2.8669632e+40
-2.8794954e+40
-2.877975e+40
-2.8096888e+40
-2.8544563e+40
-2.8537187e+40
-2.8604178e+40
-2.8596443e+40
-2.8458896e+40
-2.8655543e+40
-2.8707178e+40
-2.8699125e+40
-2.864761e+40
-2.8640427e+40
-2.8691464e+40
-2.8683701e+40
-2.8632469e+40
-2.8759946e+40
-2.8813841e+40
-2.8804912e+40
-2.8751462e+40
-2.8743104e+40
-2.8796403e+40
-2.8788461e+40
-2.8735359e+40
-2.8941413e+40
-2.9057719e+40
-2.8920919e+40
-2.9037454e+40
-2.9175592e+40
-2.9155503e+40
-2.9303462e+40
-2.9283999e+40
-2.9138458e+40
-2.9121781e+40
-2.9266938e+40
-2.9250486e+40
-2.8903966e+40
-2.9020296e+40
-2.8888065e+40
-2.9003455e+40
-2.8834093e+40
-2.8879786e+40
-2.8888152e+40
-2.8825141e+40
-2.8942645e+40
-2.9000602e+40
-2.8934056e+40
-2.8991527e+40
-2.9110456e+40
-2.905839e+40
-2.9119406e+40
-2.9049316e+40
-2.8841355e+40
-2.8849434e+40
-2.8895386e+40
-2.8903873e+40
-2.8858058e+40
-2.8867091e+40
-2.8921699e+40
-2.8912493e+40
-2.8967455e+40
-2.9025767e+40
-2.8976873e+40
-2.9035417e+40
-2.8958704e+40
-2.9016918e+40
-2.9008331e+40
-2.8950208e+40
-2.9093713e+40
-2.9084065e+40
-2.9155129e+40
-2.9145537e+40
-2.9207114e+40
-2.9272289e+40
-2.9216838e+40
-2.9282122e+40
-2.9127385e+40
-2.9075061e+40
-2.9136506e+40
-2.9066286e+40
-2.9197978e+40
-2.9263151e+40
-2.9254163e+40
-2.9188947e+40
-2.9252281e+40
-2.9231445e+40
-2.9376919e+40
-2.9356401e+40
-2.9211772e+40
-2.9337125e+40
-2.919303e+40
-2.9319124e+40
-2.9023314e+40
-2.9137017e+40
-2.9001005e+40
-2.911578e+40
-2.8980376e+40
-2.9095759e+40
-2.9076108e+40
-2.8960203e+40
-2.8700493e+40
-2.8677522e+40
-2.8387221e+40
-2.8595075e+40
-2.857205e+40
-2.8657254e+40
-2.8637072e+40
-2.8345145e+40
-2.8552508e+40
-2.8532969e+40
-2.880355e+40
-2.8914747e+40
-2.878047e+40
-2.8891488e+40
-2.8759519e+40
-2.8870564e+40
-2.8739499e+40
-2.8850545e+40
-2.8173852e+40
-2.8132015e+40
-2.7972681e+40
-2.7759266e+40
-2.7717157e+40
-2.7929245e+40
-2.9071124e+40
-2.9006836e+40
-2.9045182e+40
-2.9271099e+40
-2.8516268e+40
-2.9230084e+40
-2.8969929e+40
-2.919339e+40
-2.915736e+40
-2.8935332e+40
-2.8437114e+40
-2.9669279e+40
-2.9375372e+40
-2.9413793e+40
-2.9626871e+40
-2.9452216e+40
-2.9710512e+40
-2.9583684e+40
-2.9757606e+40
-2.9496036e+40
-2.790417e+40
-2.7975628e+40
-2.8023742e+40
-2.9683132e+40
-2.9154926e+40
-3.0930075e+40
-3.0488232e+40
-3.0538955e+40
-3.0878613e+40
-3.0586654e+40
-3.0978911e+40
-3.0638691e+40
-3.07432e+40
-3.1032849e+40
-2.996779e+40
-3.0269995e+40
-3.0102131e+40
-3.0319649e+40
-3.0016198e+40
-3.0224013e+40
-2.9923843e+40
-2.9878246e+40
-3.0174534e+40
-3.0842492e+40
-3.0203107e+40
-2.9590805e+40
-2.9299959e+40
-2.9342206e+40
-2.9547375e+40
-2.9083297e+40
-2.9125358e+40
-2.8904992e+40
-2.8862778e+40
-2.8367383e+40
-2.8786077e+40
-2.8823832e+40
-2.9043861e+40
-2.8291371e+40
-2.9005085e+40
-2.9221399e+40
-2.9509647e+40
-2.9260653e+40
-2.9469505e+40
-2.7831011e+40
-2.7765163e+40
-3.0303032e+40
-3.0402409e+40
-3.1044726e+40
-3.0940679e+40
-2.7837015e+40
-2.7984626e+40
-2.6950417e+40
-2.6816297e+40
-2.9776925e+40
-2.9236959e+40
-2.8992886e+40
-2.9970787e+40
-2.9808725e+40
-2.8834058e+40
-2.9646766e+40
-2.8681874e+40
-2.7692604e+40
-2.6590062e+40
-2.671908e+40
-2.754145e+40
-2.8512408e+40
-2.9470772e+40
-3.0132086e+40
-2.9837937e+40
-2.9794702e+40
-3.0088259e+40
-2.9716699e+40
-2.9757709e+40
-3.0050345e+40
-3.000768e+40
-3.0397694e+40
-3.0443651e+40
-3.0833729e+40
-3.0784763e+40
-3.0743241e+40
-3.0358357e+40
-3.031579e+40
-3.0699513e+40
-2.9411861e+40
-2.953753e+40
-2.9388664e+40
-2.951361e+40
-2.9141202e+40
-2.9121033e+40
-2.9253226e+40
-2.9232304e+40
-2.9183252e+40
-2.9296182e+40
-2.9161472e+40
-2.927397e+40
-2.9367007e+40
-2.9491619e+40
-2.9345947e+40
-2.9469931e+40
-2.8927048e+40
-2.9034987e+40
-2.8907846e+40
-2.901536e+40
-2.8966857e+40
-2.9076343e+40
-2.8946651e+40
-2.9055002e+40
-2.8863165e+40
-2.8843391e+40
-2.8547475e+40
-2.8757088e+40
-2.8738073e+40
-2.8824983e+40
-2.8805735e+40
-2.8509291e+40
-2.8702124e+40
-2.8720913e+40
-2.8332837e+40
-2.8295846e+40
-2.9327495e+40
-2.9306342e+40
-2.945106e+40
-2.9430179e+40
-2.9060691e+40
-2.9041069e+40
-2.9173201e+40
-2.9153981e+40
-2.9102612e+40
-2.9213832e+40
-2.9080544e+40
-2.9192511e+40
-2.928714e+40
-2.9268674e+40
-2.9411484e+40
-2.939317e+40
-2.8845179e+40
-2.8953735e+40
-2.882403e+40
-2.8933669e+40
-2.8888794e+40
-2.8996825e+40
-2.8866483e+40
-2.8974292e+40
-2.8786941e+40
-2.8764156e+40
-2.8468074e+40
-2.8683426e+40
-2.865975e+40
-2.8742751e+40
-2.8720625e+40
-2.8423746e+40
-2.8637987e+40
-2.8615217e+40
-2.8253412e+40
-2.8209307e+40
-2.8129812e+40
-2.7914776e+40
-2.7869762e+40
-2.8089688e+40
-2.7790725e+40
-2.7828464e+40
-2.8047191e+40
-2.8005376e+40
-2.7681571e+40
-2.6337446e+40
-2.6472847e+40
-2.7405579e+40
-2.7258619e+40
-2.9310763e+40
-2.8362987e+40
-2.8219623e+40
-2.9154188e+40
-3.020982e+40
-3.0186591e+40
-3.0398277e+40
-3.0373986e+40
-3.0256993e+40
-3.0444575e+40
-3.023281e+40
-3.0420973e+40
-3.0644079e+40
-3.0888599e+40
-3.0619563e+40
-3.0863136e+40
-3.0596807e+40
-3.0839964e+40
-3.0573288e+40
-3.0816563e+40
-3.055266e+40
-3.0529571e+40
-3.0795906e+40
-3.0772578e+40
-3.0122908e+40
-3.0101484e+40
-3.0310149e+40
-3.028763e+40
-3.0166186e+40
-3.0353177e+40
-3.0143415e+40
-3.0330875e+40
-3.050821e+40
-3.0486362e+40
-3.0751674e+40
-3.0730507e+40
-2.9846537e+40
-3.0005826e+40
-2.9824971e+40
-2.9983377e+40
-2.9573322e+40
-2.9707723e+40
-2.9552536e+40
-2.9686904e+40
-2.9534165e+40
-2.9668252e+40
-2.9515787e+40
-2.964867e+40
-2.9805394e+40
-2.978544e+40
-2.9963299e+40
-2.9942446e+40
-2.9936805e+40
-3.009629e+40
-2.9912035e+40
-3.0071982e+40
-2.9614954e+40
-2.9750482e+40
-2.9592851e+40
-2.9727552e+40
-2.9797219e+40
-2.9661175e+40
-2.963695e+40
-2.9772753e+40
-2.9889284e+40
-3.0049018e+40
-2.9866474e+40
-3.0026002e+40
-2.6068227e+40
-2.6201814e+40
-2.7110337e+40
-2.6962626e+40
-3.0911486e+40
-3.0902632e+40
-3.0887473e+40
-3.0895052e+40
-3.0944643e+40
-3.0935467e+40
-3.0926808e+40
-3.0918538e+40
-3.0975826e+40
-3.0966492e+40
-3.0958622e+40
-3.0951112e+40
-3.1014301e+40
-3.1003284e+40
-3.0993454e+40
-3.0983726e+40
-3.105348e+40
-3.1042556e+40
-3.1032453e+40
-3.1022683e+40
-3.1095461e+40
-3.10836e+40
-3.1073123e+40
-3.1062733e+40
-3.113964e+40
-3.1127166e+40
-3.1115963e+40
-3.1105045e+40
-3.1178863e+40
-3.1156217e+40
-3.1185673e+40
-3.1173112e+40
-3.1161515e+40
-3.1149902e+40
-3.1226019e+40
-3.1201413e+40
-3.1246317e+40
-3.1269948e+40
-3.1294127e+40
-3.1322014e+40
-3.1518804e+40
-3.1469712e+40
-3.152435e+40
-3.1496278e+40
-3.1469842e+40
-3.1442828e+40
-3.1566727e+40
-3.1619924e+40
-3.1418794e+40
-3.1391296e+40
-3.1367248e+40
-3.1343501e+40
-3.1771448e+40
-3.1830928e+40
-3.1665331e+40
-3.1719006e+40
-3.1691874e+40
-3.1893023e+40
-3.0931043e+40
-3.0761651e+40
-3.0603299e+40
-3.0430537e+40
-3.1354038e+40
-3.1511606e+40
-3.1964321e+40
-3.2141029e+40
-3.1215483e+40
-3.1250682e+40
-3.038581e+40
-3.0916331e+40
-3.0951666e+40
-3.1140818e+40
-3.1180273e+40
-3.0320711e+40
-3.0882604e+40
-3.0844912e+40
-3.0829141e+40
-3.1324753e+40
-3.1344686e+40
-3.1389141e+40
-3.1369957e+40
-3.1528091e+40
-3.1509647e+40
-3.1286684e+40
-3.1305025e+40
-3.1351053e+40
-3.1332418e+40
-3.1490643e+40
-3.1470886e+40
-3.1162956e+40
-3.1342425e+40
-3.1440793e+40
-3.1431885e+40
-3.1532967e+40
-3.1540921e+40
-3.154531e+40
-3.1536474e+40
-3.1522866e+40
-3.1510863e+40
-3.1526517e+40
-3.1515434e+40
-3.1438999e+40
-3.1448251e+40
-3.1499346e+40
-3.1452524e+40
-3.1443204e+40
-3.1431707e+40
-3.1466371e+40
-3.1510012e+40
-3.147673e+40
-3.142227e+40
-3.1433753e+40
-3.1423179e+40
-3.1412746e+40
-3.1402235e+40
-3.133922e+40
-3.1395693e+40
-3.1406552e+40
-3.1276599e+40
-3.1266098e+40
-3.1153972e+40
-3.1145183e+40
-3.1330059e+40
-3.1495053e+40
-3.1528883e+40
-3.1519996e+40
-3.1486212e+40
-3.1293002e+40
-3.1423731e+40
-3.1415517e+40
-3.1284999e+40
-3.1309694e+40
-3.132031e+40
-3.113522e+40
-3.1124593e+40
-3.158109e+40
-3.1577219e+40
-3.1573256e+40
-3.1570279e+40
-3.1561217e+40
-3.1549858e+40
-3.1554072e+40
-3.1564385e+40
-3.1547339e+40
-3.1537536e+40
-3.1513191e+40
-3.1503577e+40
-3.1431977e+40
-3.1442141e+40
-3.1310407e+40
-3.130093e+40
-3.1529003e+40
-3.1563973e+40
-3.1521354e+40
-3.1556124e+40
-3.1325177e+40
-3.1456709e+40
-3.1318179e+40
-3.1449793e+40
-3.1395427e+40
-3.1412836e+40
-3.1457301e+40
-3.1439861e+40
-3.1579921e+40
-3.159626e+40
-3.1361712e+40
-3.1378218e+40
-3.1423132e+40
-3.1406338e+40
-3.154561e+40
-3.1563227e+40
-3.1647653e+40
-3.164423e+40
-3.1638241e+40
-3.1640675e+40
-3.163271e+40
-3.1630199e+40
-3.1623506e+40
-3.1619996e+40
-3.1596181e+40
-3.1598812e+40
-3.1589091e+40
-3.1585406e+40
-3.1605287e+40
-3.1612164e+40
-3.1615674e+40
-3.1607838e+40
-3.1594285e+40
-3.1629985e+40
-3.1622808e+40
-3.1587073e+40
-3.1579499e+40
-3.1614863e+40
-3.1606053e+40
-3.1570602e+40
-3.1391472e+40
-3.1521802e+40
-3.1514904e+40
-3.1383705e+40
-3.1375985e+40
-3.1507682e+40
-3.1497914e+40
-3.1365776e+40
-3.1598127e+40
-3.1590036e+40
-3.155415e+40
-3.1562522e+40
-3.1357382e+40
-3.148947e+40
-3.1481645e+40
-3.1349448e+40
-3.1545413e+40
-3.1580953e+40
-3.1571757e+40
-3.1536441e+40
-3.1341394e+40
-3.1473435e+40
-3.1463805e+40
-3.1331925e+40
-3.124944e+40
-3.1779647e+40
-3.1824986e+40
-3.1095702e+40
-3.1012964e+40
-3.1164303e+40
-3.1737699e+40
-3.1695409e+40
-3.1349646e+40
-3.1384758e+40
-3.1084747e+40
-3.1051758e+40
-3.1282212e+40
-3.1316497e+40
-3.1020018e+40
-3.098515e+40
-3.2152125e+40
-3.1965433e+40
-3.1877942e+40
-3.20641e+40
-3.1170978e+40
-3.1255109e+40
-3.1420289e+40
-3.2003125e+40
-3.1958985e+40
-3.1332821e+40
-3.1868979e+40
-3.1916449e+40
-3.2335034e+40
-3.2144242e+40
-3.2048479e+40
-3.223961e+40
-3.2601905e+40
-3.2651603e+40
-3.2743655e+40
-3.2691973e+40
-3.2501516e+40
-3.2551898e+40
-3.2589839e+40
-3.2641579e+40
-3.2772563e+40
-3.2719716e+40
-3.2706273e+40
-3.2651583e+40
-3.2667762e+40
-3.2614992e+40
-3.2598969e+40
-3.2544451e+40
-3.2364113e+40
-3.2315428e+40
-3.2398463e+40
-3.2448663e+40
-3.256689e+40
-3.2518865e+40
-3.249551e+40
-3.2445431e+40
-3.2469369e+40
-3.2418369e+40
-3.2396105e+40
-3.2344218e+40
-3.2410966e+40
-3.245562e+40
-3.2496306e+40
-3.2543021e+40
-3.211181e+40
-3.2066424e+40
-3.2021315e+40
-3.1973956e+40
-3.2221809e+40
-3.2199154e+40
-3.2239773e+40
-3.2216242e+40
-3.2175783e+40
-3.215125e+40
-3.2192862e+40
-3.2167614e+40
-3.2206181e+40
-3.2113464e+40
-3.21823e+40
-3.2089268e+40
-3.2132237e+40
-3.215865e+40
-3.2064418e+40
-3.2037014e+40
-3.2055391e+40
-3.2080714e+40
-3.2095899e+40
-3.2069911e+40
-3.2108861e+40
-3.2084361e+40
-3.2012971e+40
-3.1988026e+40
-3.2105253e+40
-3.2128401e+40
-3.2144249e+40
-3.2120298e+40
-3.205973e+40
-3.2032703e+40
-3.1962509e+40
-3.1935239e+40
-3.1927662e+40
-3.1882039e+40
-3.183804e+40
-3.1795638e+40
-3.1896356e+40
-3.1875216e+40
-3.1886483e+40
-3.1908192e+40
-3.1913344e+40
-3.1813691e+40
-3.1790211e+40
-3.189031e+40
-3.1918302e+40
-3.1939861e+40
-3.1952515e+40
-3.1930054e+40
-3.1868053e+40
-3.1766664e+40
-3.1845256e+40
-3.1742584e+40
-3.200964e+40
-3.203237e+40
-3.2046511e+40
-3.202309e+40
-3.1962218e+40
-3.1986345e+40
-3.1999946e+40
-3.1975326e+40
-3.200961e+40
-3.1985931e+40
-3.1888907e+40
-3.1912203e+40
-3.1864205e+40
-3.1837374e+40
-3.1962385e+40
-3.1936373e+40
-3.1529504e+40
-3.1548613e+40
-3.1574697e+40
-3.1593882e+40
-3.1734488e+40
-3.1716014e+40
-3.149487e+40
-3.1511482e+40
-3.1539581e+40
-3.1556758e+40
-3.1698005e+40
-3.1679914e+40
-3.1459727e+40
-3.1477967e+40
-3.1504908e+40
-3.1522485e+40
-3.166269e+40
-3.1645507e+40
-3.1427586e+40
-3.1442545e+40
-3.1488236e+40
-3.1628668e+40
-3.147275e+40
-3.161213e+40
-3.177701e+40
-3.1784457e+40
-3.1789114e+40
-3.1780643e+40
-3.1771494e+40
-3.1767898e+40
-3.1756718e+40
-3.1761192e+40
-3.1752376e+40
-3.1748007e+40
-3.1743858e+40
-3.1740509e+40
-3.1731012e+40
-3.172007e+40
-3.1724167e+40
-3.1734289e+40
-3.173964e+40
-3.177309e+40
-3.1764327e+40
-3.1730695e+40
-3.1721764e+40
-3.1755048e+40
-3.1745036e+40
-3.1711533e+40
-3.154777e+40
-3.1670928e+40
-3.1662178e+40
-3.1538131e+40
-3.1642026e+40
-3.1653507e+40
-3.1528743e+40
-3.1516634e+40
-3.1702316e+40
-3.1735991e+40
-3.1727131e+40
-3.1692867e+40
-3.1717323e+40
-3.1707406e+40
-3.1672943e+40
-3.1683063e+40
-3.1506817e+40
-3.1632559e+40
-3.1623164e+40
-3.149658e+40
-3.1486527e+40
-3.1613232e+40
-3.1602318e+40
-3.1474888e+40
-3.1661765e+40
-3.1651726e+40
-3.1655114e+40
-3.1664217e+40
-3.1670551e+40
-3.1677335e+40
-3.1680939e+40
-3.1673067e+40
-3.1715972e+40
-3.1711969e+40
-3.1705103e+40
-3.1708074e+40
-3.1699251e+40
-3.1696378e+40
-3.1685642e+40
-3.1689371e+40
-3.1664598e+40
-3.1699114e+40
-3.1690922e+40
-3.1656133e+40
-3.1647359e+40
-3.1681876e+40
-3.16722e+40
-3.1637318e+40
-3.1466118e+40
-3.1593984e+40
-3.1585627e+40
-3.1456672e+40
-3.1565945e+40
-3.157708e+40
-3.1447556e+40
-3.1436347e+40
-3.1655257e+40
-3.1663533e+40
-3.1628252e+40
-3.1619391e+40
-3.1426964e+40
-3.1556241e+40
-3.1547656e+40
-3.1417822e+40
-3.1610507e+40
-3.1646186e+40
-3.1637398e+40
-3.1601536e+40
-3.1528777e+40
-3.1538978e+40
-3.1408602e+40
-3.1398322e+40
-3.0969249e+40
-3.0977133e+40
-3.0952315e+40
-3.096119e+40
-3.1009661e+40
-3.1001654e+40
-3.0984188e+40
-3.0992946e+40