/*--------------------------------*- C++ -*----------------------------------*\
  =========                 |
  \\      /  F ield         | OpenFOAM: The Open Source CFD Toolbox
   \\    /   O peration     | Website:  https://openfoam.org
    \\  /    A nd           | Version:  7
     \\/     M anipulation  |
\*---------------------------------------------------------------------------*/
FoamFile
{
    version     2.0;
    format      ascii;
    class       surfaceScalarField;
    location    "0";
    object      phi;
}
// * * * * * * * * * * * * * * * * * * * * * * * * * * * * * * * * * * * * * //

dimensions      [0 3 -1 0 0 0 0];

internalField   nonuniform List<scalar> 
100795
(
1.2737065e-06
4.1405092e-06
4.2972902e-06
1.8014875e-06
-2.3553989e-07
-2.9220858e-07
1.5642619e-06
8.6747211e-06
3.870568e-06
1.7589649e-06
3.7577369e-06
9.3894162e-06
2.0763045e-06
-1.3152519e-07
-1.4324657e-07
2.1068865e-06
-4.104416e-07
-3.6768507e-07
2.1524942e-06
-3.0822399e-07
-3.774952e-07
1.9080816e-06
1.323204e-05
3.3373764e-06
2.3657679e-06
8.0259502e-06
8.5432642e-06
2.0147527e-06
3.2746408e-06
1.4413658e-05
1.0946696e-07
1.3487908e-07
1.8322313e-06
2.3546018e-06
-2.3737362e-07
-1.4182533e-07
2.3562866e-06
-1.2800157e-07
-2.1897803e-07
2.5684048e-06
-6.7148199e-07
-3.9927933e-07
2.5591469e-06
-4.5196445e-07
-4.1730088e-07
2.5846048e-06
-3.4090616e-07
-6.0641727e-07
1.1168677e-05
1.5437606e-05
-1.2469335e-05
3.1236765e-06
1.2481324e-05
7.6419786e-06
3.0279104e-06
6.7493822e-06
1.3366938e-05
1.0825747e-05
1.5924209e-05
-1.0473923e-05
2.6277641e-07
1.5683029e-07
2.0463258e-06
1.2946549e-07
3.129441e-07
2.0472637e-06
1.9438996e-07
2.1637799e-07
1.4217714e-06
2.7231675e-06
-3.2246699e-07
-6.9630219e-08
2.6738887e-06
-2.0290013e-07
-1.8162237e-07
2.7286864e-06
-5.62528e-08
-3.0677452e-07
1.0494728e-05
-1.0304931e-06
1.0330178e-06
3.1418779e-06
-6.9941933e-07
-1.7000451e-07
3.1075252e-06
-2.1132234e-07
-6.2648165e-07
1.0212089e-05
-8.3048404e-07
8.377341e-07
1.7170487e-05
3.2678821e-05
-2.4412192e-06
3.5578395e-06
1.47787e-05
2.9469939e-05
3.5646336e-06
1.1158137e-05
1.2066655e-05
1.6111969e-05
3.2217751e-05
-1.3603108e-06
3.7943111e-06
1.4724169e-05
3.096591e-05
2.400622e-07
4.9826487e-07
2.253283e-06
3.1163672e-07
3.6613918e-07
2.2825462e-06
4.2120201e-07
2.2808425e-07
1.5917892e-06
2.1641378e-07
5.6715857e-07
2.2525977e-06
2.0392552e-07
4.6492179e-07
1.595128e-06
1.6577979e-07
1.8211594e-07
1.0747759e-06
8.7893536e-06
4.5895822e-07
9.2390273e-07
3.0742545e-06
-2.597869e-07
5.4897366e-08
3.0806644e-06
3.020357e-08
-2.4118963e-07
8.6408418e-06
5.0708098e-07
7.5749604e-07
1.2413163e-05
2.2192413e-06
8.0815797e-07
7.93657e-06
-3.9338235e-06
5.8774211e-07
3.6754983e-06
-2.8234254e-07
-2.0983861e-07
1.1960171e-05
2.0819597e-06
6.1293284e-07
8.0230173e-06
-3.4435598e-06
5.265607e-08
1.4614866e-05
4.6468257e-05
9.7167627e-06
1.6501382e-05
4.2456374e-05
3.0272934e-05
7.9277182e-06
3.4556098e-05
-1.2649709e-05
1.3979182e-05
4.4992774e-05
1.0644851e-05
1.5904166e-05
4.1378976e-05
3.1970585e-05
1.1284978e-05
3.3071678e-05
-9.8233092e-06
5.5768792e-07
5.7388584e-07
2.5008879e-06
1.1097355e-06
1.592836e-06
6.4367812e-06
2.6724617e-07
6.6225621e-07
1.7450908e-06
5.0415831e-07
6.5358962e-07
2.4991192e-06
4.4174394e-07
4.9325118e-07
1.7797462e-06
3.6017029e-07
1.891107e-07
1.208525e-06
1.0297931e-06
1.8812573e-06
6.4454647e-06
2.4216941e-07
7.3249754e-07
1.7429621e-06
1.7273719e-07
3.9204385e-07
1.2122756e-06
1.2819803e-07
1.3150119e-07
8.1484345e-07
9.6867853e-06
2.0658846e-06
8.5967516e-07
8.5617181e-06
-4.2547083e-07
7.2425513e-07
3.6846778e-06
2.6855608e-08
4.9074909e-08
9.5117341e-06
2.0272605e-06
6.8715219e-07
8.6288668e-06
-1.7241271e-07
3.2408599e-07
1.2517648e-05
3.3707631e-06
6.6335625e-07
1.1909873e-05
1.0668455e-06
3.9899163e-07
1.1144552e-05
-6.4312019e-06
3.8023207e-06
1.2153431e-05
3.1779497e-06
5.1995386e-07
1.1742284e-05
1.4754254e-06
-1.4412366e-07
1.2998347e-05
-5.072543e-06
3.4115209e-06
2.4330308e-05
7.655652e-05
7.2430379e-05
1.597675e-05
7.2955961e-05
3.0510004e-05
2.5664416e-05
7.6192995e-05
1.4936599e-06
-1.3051465e-05
2.5393533e-05
3.0099601e-05
1.5182421e-05
7.1446393e-05
3.2137483e-05
2.8142664e-05
7.3437114e-05
4.0720875e-06
-7.5969777e-06
2.5237735e-05
3.2711624e-05
9.2221005e-07
8.176354e-07
3.006729e-06
2.5169024e-06
1.6346419e-06
7.0440174e-06
5.7256178e-07
6.9397877e-07
1.9434814e-06
1.2429459e-06
6.6741928e-06
2.3048098e-06
7.8642858e-07
1.4251265e-06
4.8875612e-06
2.0615287e-07
5.6387523e-07
1.3353705e-06
2.3583717e-06
1.9456121e-06
7.066319e-06
5.2299248e-07
7.7335654e-07
1.938394e-06
3.7464564e-07
4.0775648e-07
1.3594254e-06
2.8024293e-07
1.3613873e-07
9.2049114e-07
9.9034667e-07
2.83388e-06
6.6189337e-06
6.9364285e-07
1.5994203e-06
4.8855937e-06
1.8810362e-07
6.1003491e-07
1.3371039e-06
1.3505713e-07
2.8596967e-07
9.2274631e-07
1.0630168e-07
9.1298041e-08
6.1680805e-07
1.1191226e-05
2.5586854e-06
8.6047291e-07
9.7969447e-06
1.8068786e-06
7.4028206e-07
9.9214373e-06
-1.3472624e-06
3.2947457e-06
1.1009841e-05
2.523544e-06
6.9640552e-07
9.7979119e-06
2.1231865e-06
3.3599871e-07
1.0886562e-05
-5.0566491e-07
2.9416504e-06
2.6467807e-05
2.1262138e-06
2.2850337e-06
1.3062558e-05
4.36477e-06
2.7960701e-07
1.6143943e-05
-3.3592359e-07
3.8243695e-06
-1.8657315e-06
-1.1669234e-05
4.2855236e-06
1.2795887e-05
4.4999893e-06
-1.1804893e-07
1.751677e-05
2.0379935e-06
3.3712665e-06
1.6650867e-06
-9.8231061e-06
3.9726795e-06
2.2176722e-05
0.00013362565
0.00012005609
2.2436863e-05
0.00013808934
0.00011790476
2.4539911e-05
0.00011276701
1.8916981e-05
5.5459604e-06
6.6830383e-05
3.4996611e-05
-2.6029442e-05
3.389179e-05
2.7012799e-06
2.4588214e-05
0.00011009573
2.1400174e-05
1.0519033e-05
6.7765606e-05
3.7356918e-05
-1.9099792e-05
3.3341225e-05
3.8678756e-06
3.2808152e-06
2.3332525e-06
8.8578311e-06
3.5805789e-06
1.9682271e-06
8.7956621e-06
9.2580403e-07
8.182542e-07
2.3582437e-06
3.0324916e-06
7.2150453e-06
2.4283549e-06
1.6762194e-06
1.4643529e-06
5.384003e-06
4.4376786e-07
5.8576079e-07
1.4947393e-06
8.4579461e-07
2.2457566e-06
5.0086129e-06
1.0435671e-06
6.909314e-06
5.239089e-06
5.244604e-07
1.1619461e-06
3.7649395e-06
1.3502984e-07
4.4583667e-07
1.03461e-06
2.5883251e-06
2.9934336e-06
7.151473e-06
1.5167734e-06
1.6527585e-06
5.3640774e-06
4.0723265e-07
6.3593694e-07
1.4911104e-06
2.938859e-07
3.009248e-07
1.0357608e-06
2.3227277e-07
9.8750638e-08
6.9498712e-07
3.1899935e-07
5.8301417e-06
6.606755e-06
7.1660224e-07
2.5207721e-06
4.9819164e-06
4.6978226e-07
1.2611336e-06
3.7648026e-06
1.281499e-07
4.5484847e-07
1.0400508e-06
1.1417455e-07
2.0261967e-07
6.9647395e-07
9.4026095e-08
6.2042501e-08
4.6008237e-07
2.6469881e-05
2.4207039e-06
2.6594532e-06
1.1718165e-05
3.1752044e-06
8.3653906e-07
1.1249007e-05
9.3303057e-07
3.3552195e-06
3.0062109e-06
-5.480507e-06
3.9035187e-06
1.1631597e-05
3.5227142e-06
4.6121317e-07
1.205933e-05
2.3234735e-06
2.9645012e-06
5.1094132e-06
-4.1165679e-06
3.6140307e-06
2.5081081e-05
2.5666816e-06
1.1552561e-06
2.5381678e-05
2.417028e-06
1.2879112e-06
1.7070291e-05
4.3943735e-06
3.019015e-06
5.1565965e-06
-1.2021386e-05
4.5660241e-06
-1.196239e-05
-1.5178648e-05
5.3973814e-06
1.7698562e-05
6.147448e-06
2.6622255e-06
7.9900933e-06
-8.1136914e-06
4.190982e-06
-7.4150951e-06
-1.3159808e-05
5.4478733e-06
2.2939844e-05
0.00019251287
0.00019092292
2.9563993e-05
0.0001959228
0.00012878088
3.278767e-05
0.00019830456
0.00012449386
1.9430332e-05
0.00012104168
4.0770533e-05
-7.1666381e-06
7.6833678e-05
1.4304408e-05
-4.5404547e-05
2.7421919e-05
-1.7588756e-05
1.9631887e-05
0.00012227761
4.2237583e-05
-1.6741884e-06
7.8148672e-05
1.6170542e-05
-4.0642565e-05
2.7097177e-05
-1.4761347e-05
5.1996977e-06
2.2216766e-05
5.9150748e-06
3.4753664e-06
3.7363654e-06
9.4286937e-06
2.1344327e-06
2.1419578e-06
7.0243435e-06
4.1326185e-06
9.4407144e-06
3.0592511e-06
2.4356554e-06
1.8738797e-06
6.980763e-06
7.449002e-07
6.7368035e-07
1.7906456e-06
1.8052402e-06
2.3202559e-06
5.4002201e-06
2.7683606e-06
7.3090018e-06
5.4543451e-06
1.1629838e-06
1.1836233e-06
4.1475409e-06
3.0206573e-07
4.6481375e-07
1.1566702e-06
6.7912818e-07
4.9296585e-06
3.5471363e-06
5.241296e-07
1.7866897e-06
3.8605505e-06
-1.7644661e-06
4.9146723e-06
7.198756e-06
3.3889803e-07
8.9605306e-07
2.975396e-06
1.057618e-07
3.7764334e-07
7.8302856e-07
1.4569206e-06
6.1081477e-06
6.9977897e-06
1.563447e-06
2.6150591e-06
5.343613e-06
1.0359676e-06
1.2932706e-06
4.1408122e-06
2.8074491e-07
4.7600888e-07
1.1634144e-06
2.4917865e-07
2.1950235e-07
7.7939365e-07
2.0779172e-07
6.5814792e-08
5.1526974e-07
-3.0417333e-06
4.1898584e-06
7.6890472e-06
4.4862757e-07
3.8749451e-06
4.8060427e-06
4.5808073e-07
1.9409124e-06
3.8452714e-06
3.0285716e-07
9.2878667e-07
2.9882194e-06
1.2430334e-07
3.3178198e-07
7.8636977e-07
9.6069643e-08
1.4478938e-07
5.1791752e-07
-3.0474073e-08
5.193812e-08
4.3901115e-07
2.5762866e-05
3.1390389e-06
2.1226632e-06
2.5917988e-05
2.8638585e-06
2.4347811e-06
1.316517e-05
2.447329e-06
3.22767e-06
5.3218943e-06
-6.5070835e-06
4.2168137e-06
-4.8006015e-06
-8.2721421e-06
5.0142712e-06
1.3597099e-05
4.0229149e-06
2.8632949e-06
7.067237e-06
-4.103512e-06
3.8744931e-06
-1.9317034e-06
-6.8273318e-06
4.9579798e-06
2.3623266e-05
2.1399487e-06
2.1604754e-06
3.0237018e-05
3.5823411e-06
3.0473665e-06
3.1914531e-05
3.2365949e-06
3.3193697e-06
1.1579476e-05
-5.4497461e-06
4.2984087e-06
-4.3987771e-06
-1.9696197e-05
6.316089e-06
-2.8987115e-05
-1.2567925e-05
1.5473529e-06
1.2565065e-05
-2.2313223e-06
3.8467727e-06
-8.124545e-07
-1.608202e-05
6.2516627e-06
-2.5178314e-05
-1.1682348e-05
1.6658308e-06
2.1944562e-05
0.00026903273
0.00022460708
2.3271485e-05
0.00026961982
0.00022120853
4.1975972e-05
0.00023941395
0.00015728567
4.760997e-05
0.00023890228
0.00015395437
1.1706721e-05
0.00012675988
2.9930084e-05
-3.4614902e-05
6.3849217e-05
5.9807524e-06
-4.0436232e-05
1.0451726e-05
-0.00012488922
1.3368238e-05
0.00012871658
3.153174e-05
-3.0734513e-05
6.4186163e-05
8.8070776e-06
-3.5743871e-05
1.1979786e-05
-0.00012428721
7.270381e-06
2.1964728e-05
5.8603999e-06
4.2948232e-06
4.9037579e-06
1.7588912e-05
5.0910802e-06
2.1896338e-05
8.3215819e-06
1.6991201e-06
7.2352922e-06
9.4251397e-06
1.8358405e-06
3.6514845e-06
7.6479854e-06
1.6269198e-06
1.7443676e-06
5.4345945e-06
2.2692253e-06
3.2025317e-06
7.6484687e-06
3.3246966e-06
9.6854831e-06
6.4152273e-06
1.835734e-06
1.5671846e-06
5.4148154e-06
5.3674993e-07
5.2043239e-07
1.3162945e-06
1.4628747e-06
5.1628745e-06
3.6834857e-06
1.1402136e-06
1.8109236e-06
4.1569785e-06
-2.3433808e-06
5.3009029e-06
7.8007146e-06
7.5253572e-07
9.1163703e-07
3.2866978e-06
2.3412577e-07
4.0239113e-07
8.7473494e-07
4.2920114e-07
2.4840923e-06
3.8041052e-06
-1.7747538e-07
3.9425982e-06
4.698584e-06
3.3582044e-07
1.325476e-06
3.0955227e-06
-5.2954112e-06
8.3404808e-07
9.7287769e-06
2.4878132e-07
7.1998366e-07
2.3838627e-06
5.6005675e-08
3.4798979e-07
5.8690965e-07
-4.6413362e-06
4.6191805e-06
8.4117745e-06
9.9487726e-07
4.0504809e-06
5.0180389e-06
9.9437796e-07
1.9733457e-06
4.1286667e-06
6.7262773e-07
9.4776882e-07
3.2993255e-06
2.7274293e-07
3.5589809e-07
8.7831818e-07
2.1124387e-07
1.483565e-07
5.8154806e-07
-4.0930553e-08
7.6719083e-08
4.4961004e-07
-5.8275974e-07
5.0143659e-06
3.6348508e-06
-6.8281428e-06
-3.9088211e-07
1.0108476e-05
3.2986854e-07
2.676833e-06
3.742908e-06
2.8914084e-07
1.393646e-06
3.0924329e-06
2.5996292e-07
6.7582521e-07
2.3848434e-06
1.0428537e-07
2.4104888e-07
5.8628693e-07
-7.6045671e-09
1.154149e-07
4.6145485e-07
-6.561074e-08
-8.9222676e-08
5.9127187e-07
2.3500612e-05
2.9848992e-06
3.1406401e-06
2.7947578e-05
3.7483465e-06
4.6870595e-06
2.8497849e-05
3.1642923e-06
5.1348661e-06
8.7884241e-06
-4.7697502e-06
4.2817001e-06
-2.0514059e-06
-1.214216e-05
5.7398726e-06
-1.8144192e-05
-7.7067939e-06
1.8784937e-06
9.7775711e-06
-2.3857393e-06
3.9333245e-06
3.4694088e-07
-9.7147207e-06
5.6027176e-06
-1.5215615e-05
-6.9739708e-06
1.9695927e-06
2.2784743e-05
2.8977377e-06
1.9844042e-06
2.3724728e-05
2.8312099e-06
2.1124043e-06
3.5040806e-05
1.957161e-06
5.7946977e-06
3.7563566e-05
1.297727e-06
6.6187406e-06
4.8722822e-06
-1.5460941e-05
6.8978289e-06
-2.5339774e-05
-1.8646278e-05
3.1195853e-06
-2.8576889e-05
-6.0750395e-06
-4.2368361e-06
6.5181546e-06
-1.2022136e-05
6.6372154e-06
-2.1898971e-05
-1.7348134e-05
3.0822677e-06
-2.5064319e-05
-5.428986e-06
-3.5851011e-06
1.7104337e-05
0.00031162411
0.00030921526
2.71726e-05
0.00032696254
0.00024214313
2.9047708e-05
0.00032803858
0.00023842076
5.3458925e-05
0.00024759976
0.00016467933
5.6585695e-05
0.00024655308
0.00016310096
-2.3679539e-05
0.00010672227
3.7970214e-05
-3.5769229e-05
2.7461173e-05
-0.00011824736
-2.1550193e-05
1.7681851e-05
-0.00017263352
-1.9568343e-05
0.000105503
3.9578723e-05
-3.1682548e-05
3.0476796e-05
-0.00011753375
-1.803177e-05
1.7906317e-05
-0.00016688507
2.1214017e-05
1.2429676e-05
4.8992963e-06
6.8254369e-06
4.177373e-06
1.7526181e-05
6.6004521e-06
2.048362e-05
7.3680843e-06
3.5192619e-06
7.6970318e-06
1.7420814e-05
3.4246122e-06
3.8452072e-06
1.3782397e-05
3.7248978e-06
2.1003318e-05
1.3791791e-05
-5.3102797e-06
6.7350165e-06
9.9590905e-06
7.7529107e-07
5.7631971e-06
7.5346131e-06
1.3157875e-06
2.9514287e-06
6.120439e-06
1.301534e-06
1.2742839e-06
4.0683935e-06
1.4851279e-06
7.6689952e-06
5.1970283e-06
1.5810149e-06
2.6636762e-06
6.1110765e-06
-2.6248694e-06
7.342675e-06
9.1319741e-06
1.3914893e-06
1.2084484e-06
4.0878217e-06
3.9553047e-07
4.45279e-07
9.8224358e-07
8.9717859e-07
2.5176149e-06
3.9883121e-06
-2.5291138e-07
4.0584801e-06
5.0020771e-06
7.2254468e-07
1.3257021e-06
3.3553487e-06
-9.1101917e-06
1.2358242e-06
1.0727105e-05
5.533928e-07
7.6165812e-07
2.6218408e-06
1.4141221e-07
3.4574485e-07
6.5456064e-07
1.0386791e-07
3.2851578e-06
3.0394249e-06
2.826554e-07
1.7089483e-06
3.138724e-06
-1.6387098e-06
1.6595643e-06
5.5128695e-06
1.875381e-07
9.944594e-07
2.6338453e-06
-6.6334747e-06
-6.5470233e-06
7.6942154e-06
2.9580918e-07
7.7565563e-07
1.6602879e-06
1.1141606e-07
-3.6326497e-08
4.7089554e-07
-1.0214674e-06
5.3669159e-06
3.7429027e-06
-1.1813493e-05
1.0809275e-07
1.1239213e-05
6.8727008e-07
2.7292833e-06
3.9056183e-06
6.3059239e-07
1.39604e-06
3.3385538e-06
5.7899163e-07
7.1199802e-07
2.6237211e-06
2.300745e-07
2.4353095e-07
6.5718274e-07
8.7201525e-09
1.5828046e-07
4.8333494e-07
-1.1362414e-07
-9.6987665e-08
5.9292067e-07
-2.2201462e-06
1.074442e-06
5.7702785e-06
-5.8075952e-08
3.2422538e-06
3.1290625e-06
-7.8118321e-06
-8.2962657e-06
8.0734091e-06
2.2749128e-07
1.8122992e-06
3.0983136e-06
1.6327561e-07
9.7881917e-07
2.6280624e-06
2.8931536e-07
5.1833263e-07
1.8193e-06
2.0924463e-08
1.9020103e-07
4.9015553e-07
-7.5752444e-08
-1.3984271e-07
5.8614606e-07
-2.6823799e-08
-4.7477008e-08
6.6057523e-07
2.2332106e-05
3.7208808e-06
3.4649712e-06
2.2819409e-05
3.4873181e-06
3.7230981e-06
2.8151728e-05
1.3800405e-06
7.8105071e-06
2.8956379e-05
4.3230525e-07
8.5408581e-06
2.327903e-06
-1.1546877e-05
6.2313673e-06
-1.7472288e-05
-1.2989844e-05
3.1554213e-06
-1.9855049e-05
-3.4936822e-06
-3.3496805e-06
3.8985214e-06
-9.1209561e-06
5.9593568e-06
-1.4665236e-05
-1.1719991e-05
3.1150629e-06
-1.7215283e-05
-3.0948505e-06
-2.7845171e-06
1.8313225e-05
2.2159903e-06
2.3038818e-06
2.6057297e-05
2.7877726e-06
2.2687652e-06
2.7427049e-05
2.5887732e-06
2.4421433e-06
3.5483149e-05
-3.4057839e-06
1.5154347e-05
3.6385507e-05
-4.983629e-06
1.6342733e-05
-1.9035897e-05
-2.1142852e-05
4.7508332e-06
-2.6727628e-05
-8.2687078e-06
-3.7288252e-06
-2.0321763e-05
8.8556738e-07
-6.3514644e-06
-1.5860812e-05
-1.8977101e-05
4.558735e-06
-2.3401592e-05
-7.4998349e-06
-3.1281791e-06
-1.8015493e-05
1.8667872e-06
-5.4689956e-06
1.5760689e-05
0.00037720861
0.00033353912
1.626252e-05
0.00037928792
0.00033256663
4.7694332e-05
0.00034852072
0.00026588595
5.1464596e-05
0.00035141155
0.0002649894
5.1655745e-06
0.00012874319
0.00024556952
1.5034114e-06
0.00012819359
0.00024364497
-3.1682315e-05
5.0451389e-05
-0.00010681905
-2.6697583e-05
3.6448312e-05
-0.00018691614
-7.8971067e-06
2.9472669e-05
-0.00013631546
-2.7487019e-05
4.8749814e-05
-0.00010647234
-2.4702028e-05
3.8621506e-05
-0.00018093761
-6.5780806e-06
2.9757498e-05
-0.00013311619
1.6391872e-05
1.0384047e-05
2.7494005e-06
1.7826821e-05
1.952149e-05
6.094275e-07
1.8681449e-05
9.152341e-06
5.9984193e-06
5.3881181e-06
6.1510775e-06
1.6641119e-05
5.4127923e-06
3.1450204e-06
1.3974125e-05
5.1898138e-06
1.8687416e-05
1.0035336e-05
1.9354775e-06
1.1446371e-05
1.6095531e-05
2.6749151e-06
6.0009737e-06
1.3907211e-05
2.6941793e-06
2.8915373e-06
1.0890229e-05
-1.161032e-06
1.7354134e-05
2.1246443e-05
-1.7620361e-06
7.4661831e-06
5.7733447e-06
-1.3230341e-05
1.3921239e-06
1.2312507e-05
7.0300464e-07
4.2584925e-06
6.2119677e-06
1.0952251e-06
2.1223554e-06
4.8073981e-06
1.2404933e-06
8.8000315e-07
2.9222497e-06
1.0659405e-06
3.8829006e-06
6.2807135e-06
-7.000884e-07
6.1280877e-06
6.8594513e-06
1.2467967e-06
1.9825775e-06
4.8117565e-06
-1.0054944e-05
2.4024036e-06
1.1573582e-05
1.2181377e-06
9.3641757e-07
2.931736e-06
2.4731848e-07
3.7065492e-07
7.3562328e-07
1.8155301e-07
3.372292e-06
3.1273733e-06
5.76412e-07
1.6970049e-06
3.3223066e-06
-3.123672e-06
1.7336785e-06
5.9906437e-06
4.1620199e-07
1.0064486e-06
2.8803614e-06
-1.2549988e-05
-6.9073675e-06
8.8862784e-06
6.3538727e-07
9.5239639e-07
1.6748785e-06
2.0848992e-07
5.0910111e-08
5.1518745e-07
1.3643478e-07
1.9509782e-06
2.9071321e-06
-4.974531e-07
2.0315939e-06
3.1679646e-06
1.7156618e-07
1.1662189e-06
2.7940458e-06
-2.6468958e-06
-2.5091486e-06
4.1227576e-06
2.6343765e-07
7.8607375e-07
2.3595494e-06
-2.1480548e-06
-7.3729446e-06
1.0993961e-07
1.5154999e-06
-9.4784537e-08
-8.1341223e-07
1.2640306e-06
-4.2105213e-06
1.1578592e-06
6.3083836e-06
-1.3102439e-07
3.3521627e-06
3.193285e-06
-1.4804326e-05
-8.7240419e-06
9.4843824e-06
4.6385301e-07
1.8058064e-06
3.2585012e-06
3.6337513e-07
9.888186e-07
2.8606999e-06
5.8976647e-07
6.5733994e-07
1.9093264e-06
7.117375e-08
2.4498638e-07
5.2012146e-07
-1.3185428e-07
-1.4093101e-07
5.8325477e-07
-9.1295116e-08
-6.7874921e-08
7.2229998e-07
-7.3668513e-07
3.3390563e-06
1.7170893e-06
-3.2335262e-06
-3.5407794e-06
4.2507013e-06
6.5828364e-08
2.0733095e-06
2.8054388e-06
-2.5650452e-06
-9.215314e-06
1.4291631e-07
1.2051126e-06
2.7302549e-06
2.1873408e-07
6.8987377e-07
2.2388074e-06
2.3010761e-07
4.543457e-07
1.3242861e-06
-1.2041655e-07
-1.5060302e-07
6.2035153e-07
-6.1741342e-08
-8.332104e-08
6.8103021e-07
-1.1134822e-08
-2.0111571e-08
6.9072845e-07
1.8673048e-05
3.3273189e-06
3.5209389e-06
2.3078947e-05
2.916352e-06
4.9073301e-06
2.3858464e-05
2.4748389e-06
5.249245e-06
2.3134817e-05
-3.5807288e-06
1.4619251e-05
2.2884066e-05
-5.027704e-06
1.5524008e-05
-1.4607529e-05
-1.5732176e-05
4.5456393e-06
-1.8816464e-05
-5.3228264e-06
-2.9266484e-06
-1.2337873e-05
-6.1681708e-07
-1.0717113e-05
-1.2069697e-05
-1.3926443e-05
4.374914e-06
-1.6357375e-05
-4.6302927e-06
-2.3938501e-06
-1.0985362e-05
-1.8118376e-07
-9.6344325e-06
1.7075284e-05
2.2106146e-06
1.4781575e-06
1.755302e-05
2.0952074e-06
1.5065859e-06
3.4684839e-05
7.820765e-07
1.1090584e-05
3.6673464e-05
2.8689081e-07
1.1963072e-05
-5.5104379e-06
-8.3454522e-06
1.5199799e-05
-9.0786535e-06
-1.0250239e-05
1.6033651e-05
-2.3774323e-05
-8.6850174e-06
-2.7411049e-06
-2.118111e-05
-1.6676733e-06
-6.6924743e-06
-8.3251326e-06
-1.7606446e-07
-5.7454375e-06
-2.0773418e-05
-7.4930906e-06
-2.1618466e-06
-1.9188628e-05
-9.2821516e-07
-5.8473579e-06
-7.793431e-06
1.1029038e-06
-5.3559302e-06
1.0289023e-05
0.00040561737
0.00040728376
2.5157625e-05
0.00041557615
0.00034237199
2.7001211e-05
0.00041578584
0.00034220507
1.7750187e-05
0.00032706006
0.00032736945
1.7824866e-05
0.00032901722
0.00032564116
-5.0997733e-05
-1.2817668e-05
-0.0001687434
-5.8608881e-05
-1.470312e-05
-0.00017112666
-2.1882997e-05
5.99061e-05
-0.00020803345
-2.6157685e-06
7.9806311e-05
-0.00016024855
1.3141014e-06
6.2531792e-05
-6.6967868e-05
-2.021178e-05
5.827726e-05
-0.00020247841
-3.8324105e-06
8.144325e-05
-0.00015652401
1.3169226e-06
6.2686674e-05
-6.8364065e-05
7.5226464e-06
2.0376033e-06
1.3309634e-05
1.3248507e-05
3.2988906e-08
1.4229288e-05
1.5084086e-05
7.6781686e-06
4.0561687e-06
9.5982183e-06
3.1016037e-05
-8.012116e-06
1.6023744e-05
1.396062e-05
2.8567613e-06
1.6202261e-05
6.4921425e-06
7.1670125e-06
3.30609e-06
8.5117952e-06
1.4956562e-05
4.1376525e-06
4.7104529e-06
1.3613276e-05
4.0317117e-06
2.4555026e-06
1.1427558e-05
1.7626182e-06
1.5945534e-05
1.5026073e-05
-1.0547186e-06
1.5418494e-05
1.267689e-05
1.4969062e-06
8.2162682e-06
1.3088176e-05
2.1719012e-06
4.3472514e-06
1.1375982e-05
2.18433e-06
2.1521126e-06
9.012239e-06
-1.0726709e-05
8.3632767e-06
3.3265728e-05
-5.0164671e-06
2.0250389e-06
7.6395157e-06
-4.3585102e-07
5.1208999e-06
5.2153645e-06
-1.9647224e-05
-8.2583707e-06
1.0804966e-05
7.316532e-07
2.9041184e-06
5.1611965e-06
1.1259531e-06
1.4039632e-06
3.5200452e-06
9.0280816e-07
8.6439824e-07
1.9914859e-06
4.9601071e-08
5.4321718e-06
4.710594e-06
9.3679626e-07
2.6913071e-06
5.2104334e-06
-3.6613562e-06
2.6751878e-06
7.1247265e-06
1.2239214e-06
1.4013345e-06
3.5381052e-06
-1.6604738e-05
-6.4499794e-06
1.0007872e-05
1.0256577e-06
1.2298219e-06
1.6807704e-06
3.0648049e-07
1.4909601e-07
5.5924572e-07
2.3572405e-07
1.9468682e-06
3.0230965e-06
-1.027595e-06
2.0721706e-06
3.3207943e-06
3.4599118e-07
1.1453122e-06
3.0079595e-06
-5.5123824e-06
-2.5030699e-06
4.4526403e-06
5.716274e-07
7.8802982e-07
2.7345346e-06
-3.3056926e-06
-6.3126206e-06
2.4576959e-07
1.5900735e-06
-1.6016264e-07
-8.1954246e-07
1.2682449e-06
-1.2761131e-07
2.2472692e-06
1.8631129e-06
1.0141184e-07
1.2577271e-06
2.7135311e-06
-1.0001466e-06
-6.0891575e-08
1.7250383e-06
1.8910863e-07
7.8088516e-07
2.6086949e-06
1.7581874e-05
-3.1510151e-06
-5.9284204e-06
-4.3782477e-06
-7.3114302e-07
2.3996834e-07
3.2752433e-07
2.5176413e-06
-7.7820769e-07
-3.1353646e-08
-1.5572885e-07
-4.8413702e-07
1.8074921e-06
-1.4867077e-06
3.5170357e-06
1.7439336e-06
-6.7314048e-06
-3.495052e-06
4.5777639e-06
9.458418e-08
2.0741697e-06
2.8974854e-06
-3.9781026e-06
-7.9179829e-06
2.8854836e-07
1.1787165e-06
2.9228024e-06
4.8295606e-07
6.9095996e-07
2.56134e-06
5.0195639e-07
5.1147991e-07
1.3704168e-06
-1.8791861e-07
-1.6987216e-07
6.1633921e-07
-1.2694452e-07
-1.5014728e-07
7.2932634e-07
-5.3209208e-08
-3.4491684e-09
7.6517559e-07
-1.2780139e-06
-6.2425968e-07
1.7018439e-06
-2.2869223e-07
1.9637289e-06
2.0621592e-06
2.0482272e-05
-3.8634255e-06
-7.13434e-06
-5.2343289e-06
6.569093e-08
1.3180118e-06
2.6291328e-06
-1.0730009e-06
1.6300888e-07
7.8333681e-07
2.4728065e-06
4.3503916e-07
3.7461202e-07
1.8819033e-06
-8.8349543e-08
1.2614565e-06
1.745382e-07
-1.3854344e-06
1.743566e-06
3.9830654e-09
-1.0102898e-07
7.5509643e-07
-5.6365442e-10
1.0582663e-09
6.9080194e-07
1.7292645e-05
2.81415e-06
3.2119903e-06
1.7611692e-05
2.5618706e-06
3.3753022e-06
2.3975122e-05
-2.7758891e-07
1.2313774e-05
2.4923386e-05
-1.0217476e-06
1.2993971e-05
-1.1174323e-05
-6.8736908e-06
1.3230555e-05
-1.4747538e-05
-8.4676446e-06
1.392925e-05
-1.6899521e-05
-5.4895972e-06
-2.1624956e-06
-1.170905e-05
-1.7387413e-06
-1.1276671e-05
-8.2118411e-06
5.340038e-07
-1.1359457e-05
-1.467532e-05
-4.6523826e-06
-1.7010175e-06
-1.0583628e-05
-1.0974535e-06
-1.0082853e-05
-7.5767312e-06
1.1030393e-06
-1.0951298e-05
1.2851056e-05
8.6201006e-07
8.818343e-07
2.2555141e-05
9.0609192e-07
3.9568284e-06
2.3773597e-05
6.7864172e-07
4.3430811e-06
6.2429268e-06
-7.3806755e-06
2.1632833e-05
5.4811762e-06
-8.4194618e-06
2.2476436e-05
-4.1648543e-05
-2.9854947e-06
1.3430176e-06
-4.7525966e-05
-4.3688227e-06
6.3456958e-07
-1.9336236e-05
-5.0222741e-07
-6.4541287e-06
-1.0426302e-05
6.2633695e-06
-5.3201297e-06
6.3554365e-06
-7.363387e-06
-3.4232906e-06
-1.7774472e-05
8.2590775e-08
-5.6108567e-06
-1.0249828e-05
6.657603e-06
-4.9837273e-06
5.9718202e-06
-6.6094095e-06
-3.4006853e-06
1.5163455e-05
0.00044821263
0.00040496001
1.6063533e-05
0.00044648487
0.00040540958
3.8513789e-05
0.00042437188
0.00033005958
3.9481282e-05
0.00042520928
0.00032964236
-8.9734198e-05
0.00029810187
-0.00017943877
-9.618285e-05
0.00030023585
-0.00018220659
-3.0139545e-05
-0.00028501343
-3.2264643e-05
-0.00029124001
-3.1827633e-05
0.00049825807
-0.00049162517
2.7063484e-05
0.00015585285
-7.1205253e-05
8.6128347e-06
3.3443947e-05
-1.097775e-05
-3.2711158e-05
0.00049070701
-0.00048465275
2.5140543e-05
0.00015643662
-7.2786544e-05
8.4160572e-06
3.604323e-05
-1.7769689e-05
9.118004e-06
1.1306512e-05
3.9511642e-07
5.6023751e-06
3.0262998e-06
1.2629542e-05
5.1659439e-06
1.7324313e-06
1.1377514e-05
1.2540183e-05
9.8693156e-06
1.3248722e-06
7.261753e-06
-4.5054016e-06
1.7410368e-05
1.3332407e-05
4.7802473e-06
5.4505014e-06
-8.7449163e-06
-9.7328739e-06
2.171521e-05
9.5584652e-06
2.3291628e-05
-2.925851e-06
1.377071e-05
8.7843159e-06
4.0860582e-06
1.3746695e-05
3.3785444e-06
9.4155649e-06
4.7141216e-07
1.225032e-05
1.068086e-05
2.4617549e-06
6.1967045e-06
1.2504973e-05
3.1671434e-06
3.5122211e-06
1.1561465e-05
3.2735367e-06
1.8352235e-06
9.7252181e-06
-4.5088393e-06
9.0443025e-06
2.4688361e-05
-6.0232898e-06
6.2102764e-06
1.8578596e-05
-2.4197449e-07
9.8435598e-06
1.0853896e-05
1.3906257e-06
5.5554683e-06
1.1218343e-05
1.716572e-06
3.3058444e-06
9.6294543e-06
3.2839909e-06
2.7668311e-06
4.8856674e-06
-1.2420671e-05
-1.1629417e-05
2.2920721e-05
-1.80375e-06
4.6540441e-06
2.8082925e-06
-9.0364636e-06
-3.4092582e-06
5.0955984e-06
1.6050716e-07
3.2837563e-06
4.7674854e-06
-5.8163546e-06
-4.255015e-06
9.9199551e-07
1.7716625e-06
4.0875464e-06
1.0939901e-06
8.4044194e-07
2.9315544e-06
5.6988041e-07
1.445481e-06
7.8571502e-07
4.1200962e-07
3.0435518e-06
4.9032302e-06
-1.1826438e-06
3.2175781e-06
4.3239285e-06
1.1306411e-06
1.6899235e-06
4.1362342e-06
-7.4241388e-06
-2.3837551e-06
4.9706286e-06
1.2341843e-06
9.4729091e-07
3.1569494e-06
-4.5252093e-06
-3.4481535e-06
1.6409573e-06
4.3672118e-07
-2.6799224e-07
-8.677345e-07
1.346971e-06
-3.2223769e-07
2.3251534e-06
1.8872178e-06
1.5406138e-07
1.2265208e-06
2.8876566e-06
-2.0972367e-06
3.7052775e-08
1.8806204e-06
3.5749098e-07
7.6296883e-07
2.8618938e-06
1.6058015e-05
-4.7479912e-06
-5.4982384e-06
-4.509493e-06
-7.9373997e-07
6.0262525e-07
3.4424919e-07
2.8180365e-06
-1.6184575e-06
-5.6172028e-08
-2.5612574e-07
-5.2944612e-07
1.7693204e-06
-6.134089e-09
1.1438539e-06
2.3681021e-06
-4.106083e-07
1.1754849e-06
1.0378915e-06
5.4043158e-08
8.0238687e-07
2.6378376e-06
-1.0668725e-06
-1.7097694e-06
-1.4239127e-06
4.0576528e-07
3.3326868e-07
2.1941065e-06
3.991385e-07
-4.3005609e-06
-8.0522402e-06
-2.5191235e-07
-1.1411226e-07
2.3911177e-06
-1.0848413e-07
-5.8587191e-07
2.4416935e-06
-2.6514617e-06
-4.9723909e-07
1.8927199e-06
-5.1855859e-07
1.9921901e-06
2.117257e-06
1.8609612e-05
-5.8956962e-06
-6.5514914e-06
-5.4472589e-06
8.6566569e-08
1.281472e-06
2.7730312e-06
-2.0923534e-06
3.0892071e-07
7.5614187e-07
2.7081599e-06
9.5862397e-07
3.552563e-07
2.1926547e-06
-2.0278384e-07
1.3149604e-06
1.6883788e-07
-1.3412856e-06
1.8124432e-06
-4.3833669e-08
-6.5370189e-08
8.3635588e-07
-1.3251583e-08
7.7061739e-09
7.6999732e-07
-5.3655585e-07
1.0188514e-06
8.6086679e-07
-1.3223089e-06
-2.3786842e-06
-1.729474e-06
-5.0831767e-08
1.1901119e-06
2.2389225e-06
2.7595383e-07
-4.9569272e-06
-8.7647067e-06
4.1201843e-08
8.2757619e-07
2.5404071e-06
4.2451845e-07
3.6553944e-07
2.0515937e-06
-8.8777232e-08
-6.6303404e-07
6.7510926e-08
2.5590632e-06
-2.1496535e-07
-1.8436876e-07
-7.5663635e-07
2.5757571e-06
6.2917202e-09
-2.1963018e-08
7.7141814e-07
-6.5786132e-11
-9.8829293e-09
7.0015291e-07
1.4534251e-05
1.7900407e-06
1.9018853e-06
1.8661081e-05
5.5898348e-07
6.2689729e-06
1.9281688e-05
1.6454663e-07
6.6804274e-06
-8.3109579e-07
-6.7498713e-06
1.9264264e-05
-2.2013301e-06
-7.7910602e-06
2.00007e-05
-2.9376819e-06
8.1255514e-07
-3.0944035e-05
-4.0207205e-06
3.0521245e-07
-3.5368795e-05
-1.0280666e-05
-2.3983934e-06
-1.0557605e-05
-9.8169745e-06
4.975927e-07
-1.18502e-05
2.7153955e-06
6.2919296e-07
-8.3484052e-06
-9.4429803e-06
-1.8006907e-06
-9.3285298e-06
-9.090791e-06
1.188851e-06
-1.132654e-05
2.4773042e-06
8.5791466e-07
-8.3103733e-06
1.6381975e-05
5.3242122e-07
1.745578e-08
1.7025484e-05
4.5932624e-07
1.3944201e-07
2.3446211e-05
-3.7249412e-06
1.5369647e-05
2.3819074e-05
-4.2513351e-06
1.5837735e-05
-6.2418328e-05
-8.3806756e-06
-2.8731204e-07
-6.7383697e-05
-9.4202691e-06
-1.2707739e-06
-2.0596447e-05
-8.1175978e-06
-2.2240766e-05
-9.8915259e-06
-3.5596859e-05
1.9267487e-05
-1.568702e-05
9.2067455e-06
8.6261179e-06
-3.4530045e-06
1.6274913e-05
-1.0094641e-05
-9.9061203e-07
-3.4930628e-05
1.8329837e-05
-1.5061678e-05
8.4152323e-06
8.5666144e-06
-3.4335286e-06
1.6097504e-05
-1.013576e-05
-9.4622383e-07
1.6781939e-05
0.00044670823
0.00044812652
4.3090715e-05
0.00045514645
0.00038063161
4.419837e-05
0.00045692097
0.00038031915
-3.2911821e-05
0.00040573856
-0.00024836348
-3.4682799e-05
0.00040740561
-0.00024849767
-7.9521018e-05
-0.00013391878
0.00024014659
-0.00059510844
-8.0625569e-05
-0.00013580055
0.00024390947
-0.00060148017
-4.4801375e-05
-4.6593933e-05
-1.3332288e-05
0.00049429634
-0.00022775319
3.6024065e-05
8.8191152e-05
-1.2224794e-05
1.5152899e-05
3.803992e-05
-3.4724859e-05
-1.5525938e-05
0.00048816949
-0.00022985152
3.6040674e-05
8.8975812e-05
-1.8350653e-05
1.4114688e-05
4.1780578e-05
-4.1538772e-05
8.1913945e-06
9.5020452e-06
-2.4969075e-06
5.7354179e-06
1.046333e-05
6.842342e-07
6.6950656e-06
1.0785953e-05
1.0553521e-06
3.1625608e-06
3.7161286e-06
1.1941105e-05
3.8910628e-06
2.3769933e-06
1.126077e-05
3.9307495e-06
1.3039495e-06
1.0545452e-05
8.2500677e-06
8.2419469e-06
-1.5688986e-06
1.1324357e-05
6.2836768e-06
2.2669151e-06
-4.2525081e-06
-5.5613368e-06
1.1054989e-05
1.1202606e-05
1.6299207e-06
6.8358214e-06
-5.500985e-06
-1.1352316e-05
2.9580972e-05
8.8197942e-06
1.6934465e-05
2.4059067e-06
-6.4424252e-06
1.0663897e-05
1.396701e-05
-1.1216247e-07
1.1541481e-05
4.9894672e-06
5.4665597e-06
1.0563442e-05
-1.1254905e-06
1.4750444e-05
4.7583107e-07
1.0499889e-05
7.2297671e-06
-2.5203468e-06
7.7698349e-06
8.4541334e-06
2.023005e-06
4.2399118e-06
1.1145794e-05
2.4469259e-06
2.5798476e-06
1.0086953e-05
2.0716989e-06
3.631498e-06
8.5391329e-06
-1.3508211e-05
-6.8388922e-06
3.0414208e-05