/*--------------------------------*- C++ -*----------------------------------*\
  =========                 |
  \\      /  F ield         | OpenFOAM: The Open Source CFD Toolbox
   \\    /   O peration     | Website:  https://openfoam.org
    \\  /    A nd           | Version:  7
     \\/     M anipulation  |
\*---------------------------------------------------------------------------*/
FoamFile
{
    version     2.0;
    format      ascii;
    class       volScalarField;
    location    "5000";
    object      omega;
}
// * * * * * * * * * * * * * * * * * * * * * * * * * * * * * * * * * * * * * //

dimensions      [0 0 -1 0 0 0 0];

internalField   nonuniform List<scalar> 
33730
(
4499.1927
3947.8652
3868.636
782.82225
772.56362
1222.5987
9469.3639
1252.0146
9582.2857
7601.0731
7477.0892
1730.1543
1723.195
7466.6006
1686.9665
1662.6197
7227.1206
628.20582
534.99062
693.96482
636.78279
683.75535
461.02413
1990.7717
1995.1111
1921.7542
1953.9046
2002.2331
636.42741
625.63924
1946.4539
4483.1576
4591.9418
18737.229
19080.099
2058.2748
644.3345
639.75565
2005.2304
4696.9251
4586.3613
19176.735
19052.552
13203.642
4222.8103
13152.501
4243.6136
12937.907
12949.195
4183.7652
4239.7433
4149.9168
13017.199
4151.2337
12910.063
12319.562
12740.048
3982.7127
4040.316
1443.7159
1298.1896
3181.5942
2860.8024
1092.3139
1449.3687
1295.3855
526.99058
964.38809
1801.813
1779.5987
1797.3853
1790.0561
531.05202
459.17207
453.69194
1485.3858
1328.6167
1304.1997
1465.9228
1755.1942
1739.197
1761.1337
1738.0182
390.11433
808.21692
685.89092
4888.3386
4915.4864
4846.3257
4927.5967
4692.02
4616.9262
4812.1529
4800.6811
515.14321
509.87152
2164.5771
659.61158
645.09183
2103.0043
3442.9183
6630.9527
3453.5906
6564.5021
3548.893
3520.528
6737.5573
6747.2468
12959.011
12801.969
32933.288
32364.185
13131.936
13042.526
33127.159
33121.801
2221.2378
664.80615
661.66257
2160.7736
3610.4365
3636.5466
6921.3014
6827.4733
3526.1473
3521.7997
6678.897
6751.2651
13334.475
13183.568
33061.647
33032.568
13106.442
12963.37
33199.126
32947.212
8040.067
21676.265
21851.435
8005.0998
21640.797
21701.552
8057.9762
7937.5178
20909.503
21583.697
7964.1233
8017.4926
21277.201
21260.818
7834.6771
7944.5386
21525.02
21507.563
7829.5012
7905.7707
21095.175
21472.783
7817.3899
7821.9903
20630.282
7476.1207
7434.6758
20008.258
20979.698
21205.051
7695.377
7669.5487
3731.2711
3771.3938
3892.2254
3942.8188
8740.1822
8592.5228
3127.8264
3155.4492
2835.0474
2822.4878
1084.6642
7767.6988
7911.7891
7987.9303
8125.7265
6627.8238
6774.9214
5540.5756
2461.6214
5621.5266
2312.2351
2321.5643
3855.7001
3836.3859
4016.195
4028.5734
3217.8657
2888.6025
2877.8837
3203.5117
1075.8228
949.25875
962.46616
1880.5627
1841.52
2023.7307
2000.1405
4654.7291
5034.3373
5169.0588
4552.4635
4583.7788
4679.3211
4642.638
4616.6521
4695.3819
4626.4352
4793.2944
4551.0826
5067.396
5102.0709
4621.7035
4594.7452
386.49085
388.55545
326.21714
325.14846
954.31456
976.45995
1102.5935
1083.8752
815.5279
695.96098
677.9446
800.36159
791.89016
672.50932
676.84585
802.91788
3997.9142
4175.6939
4020.645
3830.2082
3340.3722
2868.0073
3000.3874
3200.6124
2847.6667
3220.7107
3188.4836
2870.4314
3823.0433
3857.4742
4027.2465
4063.2365
4540.2091
4613.8742
4528.4711
4630.7554
4524.4377
4433.6719
4368.577
4461.5931
4993.5157
4520.2914
5011.6405
4525.624
4812.458
4886.8884
4418.0123
4348.5732
582.50162
461.229
1627.8678
1451.5418
1403.7375
1588.8136
1048.1804
1230.9607
1018.3006
1191.7686
8996.64
8962.3386
9031.0761
8875.3932
8751.0056
8893.7873
8919.8403
9002.2247
8609.2378
8620.9977
8389.7504
8318.1602
8862.4219
8768.2614
8771.7948
8737.1489
498.8614
491.74829
2235.235
4072.9416
4024.2096
648.02629
632.42666
2180.4526
3958.0554
3958.9892
7285.5712
7209.8364
7378.8594
7400.2315
12326.288
12429.392
18348.116
18184.089
12193.926
12244.619
18178.306
17978.224
48186.664
48569.091
28469.184
28908.992
28668.112
47923.641
28310.161
47370.084
12471.779
12557.837
18480.348
18326.184
12466.284
12419.938
18370.981
18182.791
48314.54
48694.042
28526.939
28956.645
48765.6
48609.881
28938.734
28611.817
2294.9586
4163.2302
4135.0298
654.20957
650.36428
2230.6017
4041.8697
4033.8151
7573.55
7474.4392
7322.8285
7406.9811
12657.593
12731.152
18629.22
18474.202
12567.38
12484.007
18498.964
18261.32
28598.064
47873.278
48340.903
29073.708
48306.431
48249.359
28939.665
28651.649
12463.178
12541.351
18310.381
18423.762
12371.646
12328.624
18291.366
18101.297
28654.017
48517.065
48728.432
28931.777
48632.781
48355.422
28697.618
28318.35
38954.605
38317.929
11765.787
11763.131
38779.826
39267.386
11763.81
11716.062
38837.814
38462.542
11656.611
11649.54
38260.499
38980.155
11789.935
11694.55
37812.134
36380.285
11494.065
11582.711
38396.299
38672.965
11732.571
11688.59
37987.22
37980.138
11500.649
11458.257
37684.182
37972.054
11532.248
11537.783
38629.249
38380.744
11563.472
11548.978
38092.535
38714.106
11603.907
11538.616
37750.657
37365.778
11441.286
11418.889
38286.218
38597.267
11521.21
11492.58
36868.932
36925.848
11124.494
11023.135
34999.938
36208.629
10857.267
10770.214
37410.021
37349.394
11374.541
11293.21
37766.895
38128.803
11368.299
11308.602
293.42076
8684.1263
8691.6649
8516.5204
8526.7503
8885.2163
8731.5171
8985.4289
8817.9177
9220.8094
8824.7173
9226.3984
8829.6825
9451.7827
9065.274
9548.9436
9140.4369
14725.453
14694.146
15524.784
14639.986
15612.625
15109.456
14275.719
15152.044
16151.724
15184.772
7700.3725
7836.945
7699.9461
7842.663
7887.6627
8029.1937
7970.342
8109.1486
6718.4407
6774.6485
5608.0649
5648.3829
2430.2127
6537.5436
6537.3752
5435.8801
5422.6723
2432.8189
2282.9067
2303.3313
16122.341
17582.397
16009.786
17688.637
16389.289
15112.084
15205.916
16511.609
16836.966
18416.5
16695.056
18511.366
17098.21
15706.275
17244.167
15855.72
18987.154
19036.015
17297.875
17375.237
18110.726
18189.143
19942.418
19950.542
18229.587
4926.2038
4922.0417
4870.5305
4978.1487
19073.695
4494.4925
4411.7949
4489.8498
4584.0557
4417.9904
4381.9404
4438.7194
4472.0461
9099.5829
9250.1733
8922.7673
9088.8887
9006.615
8851.0389
9169.592
9003.1933
9580.4903
9191.7377
9745.542
9334.1289
9658.9157
9245.9772
9845.5774
9434.8247
8088.7786
8218.2136
8189.861
8343.8714
6882.4357
6960.7732
5805.4297
5742.2855
2467.5073
6814.8294
6911.7405
5752.837
5696.0898
2462.7933
7999.3557
8139.3351
8130.6174
8276.87
2312.2467
2309.8066
1835.0119
1849.4986
2003.2869
1996.6526
1832.5873
1982.5173
2011.2629
1871.6136
3580.4581
3503.3643
3472.9372
3569.5972
3434.9442
3390.8457
3520.2158
3568.5818
3955.2129
3944.8405
4002.2305
4020.3731
4001.7666
3906.3228
3965.2643
4067.2828
911.2006
1030.2535
651.46607
765.28544
2672.275
2973.0037
3553.5074
9622.288
9716.7115
8610.2559
8673.7069
9767.3233
10059.036
9000.9389
9226.3194
10117.12
9289.8542
10224.8
9372.2699
9357.5902
8406.2847
9576.0737
8559.0938
10294.393
9619.6846
10215.886
9552.4083
9850.7443
10179.422
9443.2688
9751.1183
10078.747
9659.1779
9991.4112
9582.3468
10061.715
9417.6903
10382.715
9700.0752
10381.099
10483.557
9665.0833
9752.2023
9741.5089
9324.889
10095.764
9644.9545
10263.828
9787.001
10342.117
9867.3769
9934.9943
9284.1519
10267.775
9569.3962
10108.098
10046.521
9296.6909
9245.7441
9906.5564
9133.6831
10197.287
9367.9147
9491.6856
8527.6846
8696.011
9723.2488
9654.6682
9607.975
8655.888
8611.101
574.35998
577.26469
453.37045
455.29576
586.44922
580.47705
460.07945
461.22903
386.03109
383.20662
1841.449
1821.6655
1974.9521
1993.7773
2112.3965
1967.1233
2011.7055
1862.8855
2311.7451
2427.5518
2570.9191
2460.2955
2294.8412
2277.1388
2432.3627
2453.8645
1441.613
1519.207
1703.6581
1617.3709
1286.3042
1102.1486
1059.6099
1231.6672
1025.0091
1013.1247
1180.9644
1199.4491
1393.9944
1573.8484
1416.1996
1596.9975
1390.8889
1411.2875
1596.3269
1580.2674
1018.8357
1193.6687
997.62814
1176.1791
1043.4885
1016.824
1188.6465
1225.3256
1451.4607
1406.6317
1584.8755
1627.3361
9482.3498
9297.6873
9472.8984
9314.5471
10042.865
9607.4272
10079.68
9660.0677
9796.4016
9443.1766
9072.3551
9409.0314
9154.9145
8841.4888
8703.8433
9028.9123
8457.4142
8582.3495
8391.9744
8553.9304
5701.0951
5532.7242
6645.2894
6855.7441
7219.9338
7132.1033
5907.9645
6043.3938
7819.4166
7971.7507
8063.3174
8248.6045
5614.2463
5719.2957
6854.5247
6765.6291
7897.8541
8112.8328
8058.6995
8300.8021
8055.8268
8217.3548
7956.562
8136.3956
6711.3136
6899.4171
5724.0596
5563.8026
9108.841
8978.5765
9018.3034
8900.8534
8928.0998
8791.7155
9197.6643
9075.4589
9653.3025
9741.9942
9384.0668
9305.0139
9530.5545
9176.0031
9840.1503
9484.1085
10054.057
10264.122
9364.8658
9549.9947
9841.7246
9404.615
9994.4205
9532.9136
10133.36
9996.6289
9323.503
9429.5486
9905.7103
9450.3089
10111.577
9645.265
9709.1655
9273.1856
9790.7532
9332.7491
9861.3467
9191.2499
9925.8538
9230.2418
9596.1744
8931.9153
9574.3157
8905.1618
9455.6078
9451.0056
9005.9011
9016.5557
9783.5282
9894.4895
9077.3995
9003.9707
9351.9282
8401.8809
9420.6845
8432.8513
9836.6492
9042.4483
10028.103
9192.1982
9390.9753
8425.6208
9538.0378
8527.3525
9395.0621
8636.9179
9654.4039
8879.0585
9696.2992
8895.0267
8284.3139
9229.4804
9241.0291
8269.7554
8057.6811
8981.8498
8002.6488
522.057
888.51234
904.17264
660.64368
666.73351
3178.0516
3077.206
3130.1497
3013.7762
2742.2456
2567.6677
2668.3557
2481.7282
2409.8699
2379.8703
2576.5101
2599.3224
2935.297
2909.0984
3054.5801
3086.9121
1407.0528
1678.914
1626.6169
1381.6635
2247.6873
2014.8478
1938.238
2162.859
1299.4718
1534.8128
1557.0324
1318.3864
2072.2644
1835.0414
1864.9876
2096.2577
1925.2722
1591.8738
1328.3454
12365.004
12370.185
12361.443
12281.831
12256.828
12387.249
12224.574
12234.296
12030.257
12070.723
12107.508
12101.684
12084.965
12197.388
12342.511
12271.572
11859.234
11961.296
11875.361
11958.652
11687.839
11579.756
11403.151
11283.466
12094.766
12197.359
12133.825
12146.72
12059.254
12117.132
12009.121
12019.418
489.16608
473.82867
675.00744
683.0056
467.47684
652.75379
676.10953
2204.4229
4050.7924
4002.2887
4644.1595
4713.5043
2163.0837
3931.8326
3934.9723
4585.6559
4587.8007
6070.2202
6063.1931
10190.249
10234.48
15634.641
15469.214
6060.5358
5992.6271
15467.552
10121.076
10072.582
15269.981
6150.5442
6129.7372
10339.537
10288.526
15769.184
15621.711
6222.5481
6162.7573
10351.287
10295.243
15689.986
15509.308
18864.11
23170.432
23089.362
18888.606
18717.89
18624.494
22827.374
23004.649
18689.364
18749.057
23053.77
22958.52
22772.07
18472.51
22585.76
18447.676
53087.1
64979.148
65317.644
53245.499
53626.957
66035.024
65655.623
53565.7
26981.789
26791.136
40013.979
39430.789
27037.503
27194.43
40373.197
40636.084
26969.13
27037.51
40137.554
40245.965
53008.786
65201.548
65091.836
52998.958
40147.69
26808.294
26500.222
39257.613
64390.389
65244.804
52544.014
52046.357
18995.727
23288.023
23181.358
19006.347
18862.515
18760.16
22933.45
23136.408
18942.541
18869.549
23089.185
23216.169
18670.986
18674.445
22939.226
22793.955
52940.509
64954.92
65371.517
53268.89
53684.966
65929.752
65429.107
53600.744
27090.285
26861.658
40027.304
39318.556
27100.317
27282.37
40210.862
40539.701
53605.088
65733.66
65990.982
53862.928
53858.638
65936.047
65254.888
53567.544
27194.856
27063.466
40847.408
40319.976
26708.816
26954.492
39745.717
40492.883
631.95159
637.84989
2181.2362
2267.2191
4107.9099
4142.4588
4820.7988
4768.4834
2202.0906
4005.203
4017.7554
4671.5308
4651.9806
6345.8173
6348.4711
10567.065
10535.166
15797.846
15932.8
6286.4315
6231.0108
10440.862
10366.258
15810.058
15577.523
6150.424
6084.0844
10195.928
10249.066
15598.241
15408.603
6186.9437
6166.0941
10327.565
10384.401
15618.179
15740.757
19127.071
23383.393
19137.76
23291.107
18973.974
18903.314
23059.564
23200.117
19052.248
19002.99
23233.405
23320.117
23016.457
18747.988
18735.183
22852.788
26992.238
27132.78
40131.956
39635.709
65519.466
65362.572
52182.039
52835.186
65518.97
66028.368
53158.937
53080.1
27193.583
27358.519
40194.988
40477.033
65835.398
65714.289
53001.754
53162.995
65192.076
65898.154
53164.219
52920.208
27274.409
27204.138
40725.641
40270.409
26752.519
27026.56
39638.579
40480.459
18838.403
18757.794
22947.302
23097.266
23200.974
18934.287
18961.766
23124.68
23047.313
18805.9
23129.368
18856.423
18583.382
18586.229
22852.392
22714.517
27053.633
26905.764
39983.786
40472.175
65538.808
65389.883
53233.615
53557.116
53742.454
66061.149
65493.876
53602.503
27037.43
27199.372
40203.389
40699.736
53383.675
65563.305
65598.173
53663.004
53630.721
65296.4
64601.206
53297.611
27082.796
27026.632
40245.077
40042.428
26609.545
26848.146
39041.716
39799.892
288.78312
41337.637
40666.439
41105.813
41640.83
41163.88
40777.018
40565.609
41375.797
40185.149
38646.108
40758.591
41080.103
40266.729
40240.028
39983.933
40299.507
40931.886
40677.957
40379.987
41074.53
40065.881
39595.249
40614.828
40971.295
39108.423
39110.332
38446.955
39631.457
39571.454
40024.028
40444.336
15694.039
14751.121
14788.664
15739.521
15469.475
15402.202
14489.126
14549.261
14365.762
15250.489
14364
15263.977
15006.351
14138.184
14983.246
14119.664
15063.424
15905.068
15017.589
15979.73
15538.613
14695.733
14685.769
15550.685
15329.769
16101.841
15171.741
16260.564
15700.923
14817.222
15830.65
14942.559
14850.594
14207.405
14191.391
14833.601
13998.482
14711.088
14742.772
13962.186
14598.11
14585.939
13971.811
13959.534
13768.543
14450.863
13724.803
14493.356
14549.37
15204.552
14593.468
15167.518
14415.163
15146.065
15077.721
14344.599
15441.227
14799.295
15332.76
14689.954
14490.218
15248.312
15344.261
14586.349
31074.767
29415.613
28427.383
29090.014
28755.031
29777.487
30429.91
30103.386
30143.744
30855.689
31592.078
17849.523
17919.531
16189.288
16275.696
16674.421
15250.766
15315.327
16592.394
17489.909
17551.481
15967.844
15858.213
16264.448
16357.598
14953.641
15053.155
16451.659
17900.777
16321.671
18009.504
16734.812
15449.149
15549.978
16856.691
16721.066
18181.02
16533.998
18309.257
16964.698
15627.038
17138.958
15808.963
19276.157
19308.599
17592.292
17684.75
17860.874
17981.656
19618.821
19633.952
18465.232
4965.3252
18762.877
5000.683
4898.5598
4930.5056
19340.478
19357.026
17554.724
17614.648
17196.605
17256.753
18965.284
18947.417
18147.432
4837.3965
18520.163
4821.4778
4770.2114
4792.279
4438.5264
4365.4328
4379.1718
4461.5463
4369.4846
4297.6044
4344.5065
4329.4009
26878.206
25886.412
26488.595
26308.66
27133.646
27769.441
28105.734
27489.954
27514.156
28105.385
27475.327
28760.606
29428.276
25180.066
25645.04
25394.483
25841.123
27044.734
27019.397
26796.279
26766.99
31634.967
25832.209
16880.619
26767.899
32806.992
16512.781
15948.034
17565.375
27754.901
28282.61
34447.035
34029.909
17358.07
16284.348
14364.27
14247.346
15257.058
14523.041
14186.808
15058.89
15503.971
15539.926
16414.217
15457.863
16500.655
16599.858
16446.198
15519.143
15677.338
15989.656
15084.919
16044.853
15129.112
16204.291
15193.4
15320.891
16074.316
16077.814
15179.113
16252.503
15326.839
15828.638
14956.095
15700.574
14851.682
15696.139
16428.53
15474.581
16647.891
16013.055
15113.546
15303.533
16206.15
15362.323
14745.082
14821.124
15451.282
15297.313
14563.952
14614.04
15359.643
15641.143
15810.151
14986.84
15152.934
15557.138
15709.093
14785.084
14936.647
14977.329
15604.67
14949.247
15631.017
14745.975
15517.513
15529.6
14756.388
15208.4
15731.197
15082.931
15842.332
14898.408
15665.62
15773.395
15005.323
18543.753
18634.303
16870.823
16995.125
17418.136
15941.471
16049.3
17302.432
18452.802
18575.879
17000.341
16814.436
17272.064
17436.719
15940.889
16123.808
20014.141
20025.316
18222.696
18304.912
18106.612
18237.563
19852.096
19863.666
18970.782
5132.0089
19168.16
5085.6546
5024.2226
5045.8495
19530.64
19588.717
17798.122
17945.809
18246.894
18404.192
20076.76
20101.64
19225.855
5086.1731
18741.841
5040.6514
4980.7437
5014.1186
16704.719
18105.947
16504.954
18273.044
16918.851
15621.949
15811.604
17121.424
17110.777
18571.54
16875.056
18733.595
17312.587
15945.432
17538.253
16187.193
4514.4908
4445.3371
4450.8379
4533.3896
4549.1381
4472.0026
4468.2812
4564.8104
3410.7268
3428.0404
3558.4556
3548.0268
3417.5597
3413.2612
3542.7844
3543.9896
4027.02
3938.1713
3941.3712
4029.9752
3943.9053
3961.8474
4051.939
4046.9921
3371.5739
3355.9239
3479.8794
3493.6317
3955.373
3866.3972
3878.4783
3968.3923
3916.2413
3856.3072
3946.8774
3881.7098
3488.2935
3378.9024
3409.2499
3521.7785
11693.349
10881.375
10828.69
11735.339
10518.211
10452.09
11369.389
11443.616
12638.196
12503.649
13340.491
13570.297
13265.809
12300.089
12383.261
13360.551
554.88747
441.00736
437.06742
368.313
1745.7817
1658.3137
1798.6072
1880.4617
1674.2885
2221.2383
2079.0511
2295.4027
2158.5517
1263.199
1441.1568
924.71873
1075.5638
982.14436
933.29773
1079.8333
1149.0447
1430.3576
1269.9811
1515.3339
1353.3028
6272.6847
5160.0367
6000.7104
6329.4986
5265.9405
4933.7509
7096.8009
7246.2946
7443.1829
7599.7128
8045.0799
7912.7586
8425.9012
8291.218
8988.5773
8632.257
9256.8272
8837.2838
13076.255
12368.264
12445.135
13184.455
13298.28
13254.933
12523.365
12555.533
11834.843
12554.252
11769.617
12631.197
12737.657
11929.344
12718.332
11934.506
13991.522
13261.566
13245.057
13986.662
14461.306
14227.789
13465.223
13672.556
12611.225
13530.476
12662.469
13489.104
13900.323
12956.159
13692.86
12785.91
13688.73
14266.915
13519.837
14491.616
13755.291
12878.875
12989.78
13916.182
13831.288
14557.762
13758.59
14629.972
13988.132
13055.838
14050.287
13111.108
12891.469
12196.185
12132.961
12822.238
12416.457
11663.09
11606.945
12342.664
12981.134
13145.51
12276.092
12402.863
12468.53
12588.159
11705.277
11777.876
14840.184
15518.737
14851.657
15499.645
15273.105
14269.6
14266.437
15259.788
15405.48
14754.524
15272.261
14635.073
15079.73
14118.363
15174.758
14221.564
15196.983
14635.34
14710.541
15268.128
15648.342
15558.267
14989.282
15091.266
14597.804
15225.495
14535.102
15289.914
15669.922
14966.162
15590.014
14880.645
15069.473
15646.709
15083.805
15633.617
15689.976
14978.908
14958.829
15658.875
14965.342
15332.467
14785.96
15514.748
15393.033
14712.637
15550.259
14862.582
15068.374
14426.256
14490.029
15125.714
13926.646
14914.568
14849.796
13982.115
15423.582
15484.995
14765.865
14820.049
14260.516
15211.953
14301.383
15194.234
15341.476
15582.108
14891.229
14671.585
15667.59
14970.516
15587.949
14886.616
15036.494
14054.479
14265.04
15281.964
15289.961
15351.721
14304.567
14376.726
14473.947
15005.914
14436.633
15034.992
15018.382
14319.752
14340.073
15035.105
15322.637
15614.667
14745.73
15028.102
15319.677
15604.394
14604.549
14872.202
15879.887
15648.547
15051.946
15265.304
15828.978
15597.082
14866.526
15078.921
15345.047
15858.274
15235.51
15952.305
15066.696
15820.265
15905.32
15157.84
14214.444
14837.262
14192.398
14845.324
13706.731
14601.823
14620.497
13713.786
15385.885
14703.114
15117.02
14464.351
13958.367
14867.406
15093.942
14171.609
14512.77
13727.577
13725.771
14514.072
14389.451
14489.883
13614.213
13707.95
13037.469
13973.801
13060.62
13961.189
13943.487
13018.318
13857.79
12943.005
14204.474
13458.007
13503.55
14262.153
12841.861
13718.622
12829.652
13750.949
13837.264
14548.98
13767.402
14597.733
14010.627
13067.472
13135.441
14079.218
13048.532
12340.39
12331.107
13047.505
11798.627
12535.012
12553.616
11780.081
11923.323
12715.897
12752.974
11925.228
13265.088
13324.957
12524.384
12571.976
13270.545
12543.817
12510.091
13237.336
13147.603
12429.675
13212.087
12479.808
11963.066
11937.746
12746.598
12707.393
12671.095
12632.821
11889.749
11888.853
881.79401
651.07864
647.12724
869.67113
882.2855
896.31228
659.13793
652.85968
513.03484
522.80962
937.98116
917.31334
686.60134
680.18992
881.01158
888.03052
654.7375
656.97641
518.87906
532.86113
373.948
368.4279
3374.9308
3331.5864
3506.3647
3455.2398
3336.0902
3335.1839
3472.3447
3465.355
3850.632
3861.3923
3962.8376
3937.4189
3913.5224
3830.9995
3885.4167
3984.0033
4324.7995
4281.8381
4120.8368
4192.6037
3873.007
3771.0667
3609.952
3730.6587
3935.0182
3871.7274
3907.8616
3999.8331
3494.8285
3385.2636
3386.9491
3519.7949
4407.5883
4329.6312
4485.3842
4385.0261
4604.64
4753.2385
4795.7219
4668.3646
5135.3808
5275.3999
5347.7017
5226.695
4899.7466
4824.1653
4941.8296
5042.1725
4387.3029
4310.5174
4380.38
4473.5918
4336.239
4378.1463
4464.0466
4412.1494
5036.8683
4933.0806
4863.4213
4963.7093
4930.5147
4824.503
4920.3474
5051.2643
2404.8604
2584.0779
2422.9649
2606.0114
2607.8009
2765.9994
2944.9358
2795.1851
3413.9069
3301.111
3137.1332
3268.1627
2931.8989
3060.2316
3048.1193
2904.6819
2423.1172
2200.0354
2063.8987
2291.9823
1833.9917
1521.8414
1467.3086
1735.6747
1356
1378.5552
1607.8575
1596.7306
2124.1396
1906.7932
1891.4433
2111.9122
1302.4679
1309.7618
1551.8851
1536.1988
1266.2441
1289.1432
1511.7335
1495.5072
1784.3401
1801.6364
2027.0821
2016.0332
1831.004
2056.2432
2092.3371
1860.3032
2321.0738
2327.9042
2516.1621
2514.9444
2841.4583
2994.8537
2995.202
2843.8853
2542.0232
2359.7708
2399.716
2578.6872
2900.5633
2863.1945
3003.1127
3045.4099
2378.3489
2369.6261
2574.7149
2574.804
2380.876
2411.0067
2595.7085
2579.0785
2924.3758
2929.3913
3071.4378
3067.902
3072.3044
2918.8033
2910.9987
3064.5865
1296.806
1303.167
1549.9651
1531.9354
1859.005
2097.5228
2066.5596
1832.5638
1493.6814
1256.8185
1274.7424
1512.064
1820.6912
1803.9152
2050.2422
2064.6696
1374.4903
1367.3389
1641.8107
1606.0623
1286.5932
1285.7107
1519.8178
1532.4329
1834.7223
1819.989
2051.0365
2066.1432
2143.345
1922.1842
1971.4431
2193.8262
2499.0228
2450.9532
2616.8874
2661.037
2377.4428
2356.4146
2540.7917
2562.6945
3014.3851
2868.4294
2892.8228
3034.0906
2972.7217
2933.7542
3060.4985
3094.9242
16923.54
15951.994
17159.912
16179.86
16693.145
16467.67
15550.084
15762.853
16996.844
17100.772
16005.533
16132.889
15644.101
16658.737
15751.406
16569.104
16049.355
16268.397
15592.861
15383.01
15923.836
15139.987
15349.588
16146.2
15619.826
16191.179
15506.844
16275.513
16095.702
16185.944
15293.115
15404.159
15233.467
15550.747
15852.959
14934.457
15194.78
15279.956
14588.055
14666.427
14449.077
15226.41
14495.093
15173.051
15514.116
15804.964
15054.139
14768.182
16477.374
15600.913
16160.647
15279.733
16020.486
15850.314
14953.127
15108.88
15620.12
15493.673
14652.591
14765.287
15001.317
15309.781
15834.374
16141.805
19204.353
17472.057
19387.929
17700.568
18112.891
16710.918
17880.54
16474.271
19282.118
19213.407
17453.624
17600.499
18016.541
16632.653
17910.491
16486.953
18539.497
18393.254
17523.727
19234.872
19253.678
17649.471
17700.078
17919.631
19383.295
19429.869
19077.732
20770.533
18907.585
20825.851
20720.885
18852.93
20689.705
18958.963
19795.393
19979.954
17850.124
17981.858
16423.607
16235.688
16667.441
15371.817
15565.6
16848.538
16771.239
18040.908
16458.433
18263.686
16917.99
15652.242
17222.378
15985.088
18531.027
18622.624
19489.656
19510.256
17856.479
17966.022
17654.57
17851.064
19358.676
19397.715
16615.291
18019.276
16414.14
18173.539
18141.032
18298.582
16566.869
16795.569
16845.753
15548.716
17043.951
15744.179
17233.611
15768.139
15988.451
17027.279
18199.462
18304.242
16640.594
16781.477
17216.894
15957.268
17093.281
15834.316
16656.65
17976.152
16376.56
18175.71
16816.87
15544.918
15836.962
17085.32
19410.516
19448.452
17700.759
17840.417
17801.47
17965.258
19473.822
19497.413
18607.098
18577.229
16332.49
15463.665
15551.007
16426.986
16032.703
15208.433
16089.525
15255.434
16032.382
16300.632
15153.79
15419.669
14896.016
15952.771
15129.279
15710.978
15292.674
16018.571
15120.824
16200.075
15664.029
14823.578
14961.237
15816.45
15594.289
16271.399
15393.127
16459.122
15962.808
15127.354
16128.087
15294.492
15447.674
15663.866
15065.326
14851.544
15196.341
15772.694
15176.273
15793.898
15784.375
15064.577
15066.421
15782.694
15450.45
15648.39
14747.848
14945.251
14860.874
15360.289
14751.124
15479.311
14630.179
15339.106
15431.92
14710.635
15825.036
15219.029
15687.593
15079.971
14973.054
15685.324
15796.731
15084.145
14361.114
15029.178
14359.641
15030.841
15277.442
15211.361
14533.34
14586.321
14756.489
13823.712
14749.647
13820.547
14952.329
14003.587
14046.938
14929.896
15124.407
15086.578
14521.174
14554.181
15098.398
15072.308
14373.371
14395.714
14866.128
15324.034
14727.231
15463.997
14566.01
15294.084
15419.261
14686.508
15180.5
14500.612
15069.303
14398.893
14880.536
14860.754
14210.079
14233.746
14607.35
14579.602
13650.946
13673.251
13844.466
13936.068
14791.442
14873.535
14695.125
15280.412
14681.868
15282.932
15249.357
14519.305
14528.942
15254.62
14954.507
15445.643
14848.445
15542.036
15426.178
14688.018
15514.741
14773.315
14937.161
14848.853
14374.14
14293.672
14830.386
14139.1
14924.313
14221.507
14520.595
15015.429
14428.599
15102.757
14982.944
14262.466
14345.317
15063.244
14704.165
14052.39
13984.891
14616.254
14417.862
13505.251
13455.2
14352.541
14754.971
14822.823
14096.171
14152.106
14478.368
14510.646
13566.247
13614.728
13551.256
14224.644
13581.079
14185.225
13130.954
13944.932
13911.572
13090.309
13978.086
13864.401
13355.964
13287.299
12938.474
13638.7
12880.718
13715.55
13889.235
14500.703
13922.29
14455.121
14255.387
14185.482
13691.419
13628.415
14113.985
13438.164
14206.803
13516.813
14455.191
14414.072
13750.308
13714.193
13897.095
13186.79
13184.437
13913.97
14091.644
14187.681
13331.026
13422.033
13652.688
12750.335
13565.845
12674.469
13454.019
13429.494
12611.392
12569.825
12100.848
12840.834
12157.83
12782.915
12374.992
11622.693
11574.694
12307.417
12878.191
12947.677
12179.099
12233.297
12428.248
11657.83
12381.365
11651.682
13336.794
14089.517
13344.015
14086.056
13600.414
12717.562
12688.357
13581.13
13569.303
14273.08
13501.771
14329.326
13737.249
12818.215
13802.555
12876.385
12196.14
12936.197
12233.533
12897.849
12446.87
11698.963
12404.032
11667.094
13070.294
13018.858
12301.441
12340.568
12528.203
11738.788
12498.194
11730.51
12711.366
13439.331
12765.136
13388.799
13048.947
12208.288
12976.58
12130.082
13767.948
13069.323
13714.783
13012.442
13268.908
12419.131
13343.861
12498.67
13162.916
13832.058
13099.923
13889.572
13347.646
12471.699
12522.926
13407.065
11510.932
12262.976
12170.582
11442.174
12729.372
12043.255
11960.726
12636.951
12682.829
11991.484
12725.672
12021.909
12218.549
11476.556
12197.544
11454.384
11155.406
11237.979
11982.188
11890.18
11678.296
12441.326
11759.179
12351.08
11750.725
11012.69
517.63752
502.12103
757.35288
728.57425
887.22007
1131.5386
1143.3446
890.80046
1195.5219
935.67607
1196.6409
925.48358
10072.285
9225.9999
9923.0747
8980.1363
8348.1773
7375.2333
8012.2245
6984.1595
6753.4167
6693.4997
7698.1222
7746.5511
8685.2252
8631.8905
9549.4313
9608.5563
2181.3144
3974.8914
3650.9712
2051.7176
6327.5604
5181.0814
4788.4315
5913.6396
1899.3104
3433.8555
3476.5955
1914.6404
5644.2148
4539.285
4606.6399
5710.7157
4813.9245
3624.1096
1968.4617
463.79324
659.49853
656.34529
432.63471
687.18831
699.51043
666.19691
675.96267
428.21849
690.84066
668.93034
643.92232
667.28127
2007.571
5044.9761
4511.0348
4582.7414
5134.8051
7026.3868
7101.2924
6981.2556
7015.3697
6943.85
7973.9846
7932.3892
6977.6231
7980.613
8075.2345
7068.2935
6990.5475
1985.5999
5012.5208
4459.6589
4461.3448
5015.3303
6846.1478
6932.499
6942.094
6923.4266
7889.9274
7780.2132
6806.9608
6894.5567
7876.4761
6883.3222
6905.3281
7904.4222
11089.03
16391.868
11137.117
16538.023
21171.335
21147.478
20849.094
21055.508
20959.814
16423.26
21111.61
11021.973
10973.56
16185.251
20650.362
20766.755
11236.549
16657.214
11186.789
16533.222
21302.601
21251.166
20979.807
21202.872
11250.701
16628.405
11195.141
16403.05
21115.244
21283.883
20947.353
20866.625
25162.624
25032.97
24758.773
25004.787
25071.134
24919.916
24762.531
24495.698
58388.274
95840.513
96339.806
58621.987
58861.375
97290.376
97272.363
58824.018
29055.839
28781.829
55046.648
53700.393
29046.316
29257.119
55826.127
55875.442
28992.001
29114.127
55129.706
55590.476
58414.543
96685.053
96535.275
58569.835
55388.963
28860.016
28467.693
54024.487
96339.906
96599.404
58518.176
58132.369
25275.96
25110.488
24858.574
25134.587
25031.079
25219.191
24922.211
24707.832
58235.528
95440.047
96300.974
58553.359
58777.839
96872.652
96954.17
58685.476
29157.316
28840.947
54908.792
53272.007
29095.745
29331.659
55404.234
55467.706
58615.863
97032.169
97347.558
58869.731
58939.754
97506.872
97051.963
58800.372
29279.488
29072.644
56720.459
55296.675
28697.32
29017.024
54960.98
55943.674
2131.3046
2146.2369
4594.8394
4557.684
3951.5515
6103.4617
6015.6426
10177.974
10138.542
2065.7545
5256.7322
4687.3574
4631.8537
5177.1919
7097.5044
7167.1549
7239.925
7239.9024
7205.0839
8226.28
8237.0391
7202.7436
8052.0852
8141.2843
7131.0159
7059.136
2006.968
5054.4943
5082.4531
4536.3262
4517.7921
6936.6993
7018.4912
7031.6448
7068.5376
6993.1257
8046.2226
7992.478
7032.0397
7873.7131
7973.8801
6981.0144
6898.5922
16826.976
11479.906
16696.727
11451.494
21098.858
21274.157
21409.54
21366.415
11349.532
16750.091
11271.817
16481.701
21253.014
21395.937
21025.189
20929.214
11094.15
16317.9
11148.98
16548.943
21204.158
21066.145
20865.199
20788.796
11234.106
16540.043
11294.423
16642.752
20976.841
21170.045
21220.468
21202.288
25343.303
25198.719
24949.039
25151.441
25165.121
25315.657
24997.402
24756.512
28948.802
29158.982
54890.922
53489.606
95754.886
94994.787
57798.078
58064.964
95883.707
95898.135
58234.404
58205.712
29159.817
29382.351
54979.266
55092.93
96312.669
95778.179
58171.508
58389.268
95752.162
96355.135
58512.198
58368.564
29343.658
29197.117
56159.638
54825.945
28718.197
29080.117
54201.11
55582.953
24871.567
25090.098
25181.923
25054.104
24997.81
25137.111
24842.796
24629.931
29130.466
28901.326
54509.443
55880.266
96398.274
95755.912
58284.333
58447.154
58625.744
96589.519
96515.808
58575.276
29034.651
29258.358
55370.943
55811.772
58474.503
96101.856
96421.067
58710.692
58697.745
95952.624
95436.418
58571.321
29157.075
29034.956
55413.211
54554.713
28582.92
28900.015
53374.696
54405.526
364.16297
365.92796
73111.203
36714.88
72306.951
36129.088
73038.834
36444.417
73532.563
36943.083
73362.3
36423.734
72723.534
36072.214
72696.858
35962.706
73544.385
36706.633
71574.561
35801.017
70020.254
34312.411
72230.246
36345.848
72493.076
36647.318
72182.459
35608
71845.946
35696.372
71895.731