/*--------------------------------*- C++ -*----------------------------------*\
  =========                 |
  \\      /  F ield         | OpenFOAM: The Open Source CFD Toolbox
   \\    /   O peration     | Website:  https://openfoam.org
    \\  /    A nd           | Version:  7
     \\/     M anipulation  |
\*---------------------------------------------------------------------------*/
FoamFile
{
    version     2.0;
    format      ascii;
    class       volScalarField;
    location    "5000";
    object      p;
}
// * * * * * * * * * * * * * * * * * * * * * * * * * * * * * * * * * * * * * //

dimensions      [0 2 -2 0 0 0 0];

internalField   nonuniform List<scalar> 
33730
(
-9.8606766e+61
-9.492272e+61
-9.6031566e+61
-9.0650212e+61
-9.1503681e+61
-9.6785948e+61
-9.6750813e+61
-9.5627725e+61
-9.5616408e+61
-9.397908e+61
-9.3415403e+61
-9.2426737e+61
-9.2927444e+61
-9.448074e+61
-9.341686e+61
-9.3880412e+61
-9.4973354e+61
-8.5662921e+61
-8.3211685e+61
-8.7921841e+61
-8.5071453e+61
-8.8629244e+61
-7.9907599e+61
-9.1190978e+61
-9.0745165e+61
-9.2023889e+61
-9.1599687e+61
-9.5003246e+61
-9.4552907e+61
-9.5045958e+61
-9.5505067e+61
-9.5706383e+61
-9.5209288e+61
-9.5527714e+61
-9.5033655e+61
-9.3913968e+61
-9.3477168e+61
-9.4050049e+61
-9.4504321e+61
-9.410773e+61
-9.4695311e+61
-9.3936734e+61
-9.4520893e+61
-9.3157083e+61
-9.2437101e+61
-9.3425206e+61
-9.2689944e+61
-9.2624392e+61
-9.289788e+61
-9.2183981e+61
-9.1942827e+61
-9.3131522e+61
-9.3890344e+61
-9.2895726e+61
-9.364407e+61
-9.4332335e+61
-9.4112708e+61
-9.3564868e+61
-9.3356656e+61
-8.735203e+61
-8.6010201e+61
-8.689155e+61
-8.6298749e+61
-8.4848824e+61
-8.7071615e+61
-8.5740817e+61
-8.282222e+61
-8.3368957e+61
-8.925099e+61
-8.8088475e+61
-8.7724499e+61
-8.9636352e+61
-8.2352574e+61
-7.929867e+61
-7.9630452e+61
-8.6437219e+61
-8.5141166e+61
-8.5466591e+61
-8.6782604e+61
-8.8387444e+61
-8.8692954e+61
-8.9988008e+61
-9.0357611e+61
-7.6772765e+61
-8.1842687e+61
-7.9976731e+61
-9.1386672e+61
-9.1635798e+61
-9.1163735e+61
-9.0947991e+61
-9.2222165e+61
-9.2425296e+61
-9.2027297e+61
-9.1813666e+61
-9.2397384e+61
-9.3388801e+61
-9.3597567e+61
-9.3077614e+61
-9.3543503e+61
-9.4052431e+61
-9.4616653e+61
-9.4812927e+61
-9.483799e+61
-9.503996e+61
-9.4391954e+61
-9.4146669e+61
-9.4340479e+61
-9.459356e+61
-9.4806055e+61
-9.5028512e+61
-9.4544643e+61
-9.4764422e+61
-9.4327205e+61
-9.4579929e+61
-9.4067412e+61
-9.4317663e+61
-9.2607797e+61
-9.2096172e+61
-9.2635227e+61
-9.3146517e+61
-9.3392262e+61
-9.3101238e+61
-9.3279409e+61
-9.3578721e+61
-9.3923682e+61
-9.3659136e+61
-9.4114421e+61
-9.384139e+61
-9.3255261e+61
-9.3550633e+61
-9.3009866e+61
-9.3297863e+61
-9.3821717e+61
-9.4092089e+61
-9.3567181e+61
-9.3836016e+61
-9.2196905e+61
-9.2674106e+61
-9.2811627e+61
-9.233075e+61
-9.2937934e+61
-9.3059098e+61
-9.257889e+61
-9.2460889e+61
-9.216939e+61
-9.2295168e+61
-9.1722552e+61
-9.183323e+61
-9.2420792e+61
-9.2555688e+61
-9.1954358e+61
-9.2083319e+61
-9.3387341e+61
-9.3502834e+61
-9.2889504e+61
-9.3002505e+61
-9.3160456e+61
-9.3276412e+61
-9.2668643e+61
-9.2778022e+61
-9.3814341e+61
-9.3311698e+61
-9.3402542e+61
-9.3913171e+61
-9.3599139e+61
-9.3713761e+61
-9.3095664e+61
-9.3206309e+61
-8.7401653e+61
-8.7278791e+61
-8.8055676e+61
-8.7922665e+61
-8.744589e+61
-8.7746435e+61
-8.6817427e+61
-8.6703536e+61
-8.6130914e+61
-8.6234814e+61
-8.4687678e+61
-8.6864852e+61
-8.7154558e+61
-8.6909851e+61
-8.7198382e+61
-8.6584287e+61
-8.6627202e+61
-8.6305871e+61
-8.5717391e+61
-8.6344612e+61
-8.5196954e+61
-8.5123228e+61
-8.7169607e+61
-8.7058739e+61
-8.7695619e+61
-8.780653e+61
-8.6594684e+61
-8.6022777e+61
-8.5915747e+61
-8.648691e+61
-8.442824e+61
-8.2982334e+61
-8.3210107e+61
-8.3946741e+61
-8.3986378e+61
-8.4546127e+61
-8.460206e+61
-9.0054809e+61
-8.9335244e+61
-8.9146854e+61
-9.0247131e+61
-8.8769152e+61
-8.8234365e+61
-8.805221e+61
-8.8959363e+61
-8.8395983e+61
-8.7870319e+61
-8.7681329e+61
-8.8580667e+61
-8.9523052e+61
-8.9728633e+61
-9.0681633e+61
-9.045034e+61
-7.6571595e+61
-7.6352525e+61
-7.3076165e+61
-7.3213242e+61
-8.2761602e+61
-8.2525024e+61
-8.3891049e+61
-8.417703e+61
-8.1128103e+61
-7.941672e+61
-7.9554272e+61
-8.132253e+61
-8.1514855e+61
-7.970702e+61
-7.9896961e+61
-8.171045e+61
-8.6427987e+61
-8.7052234e+61
-8.7239731e+61
-8.661803e+61
-8.5860939e+61
-8.5458366e+61
-8.5285313e+61
-8.6043231e+61
-8.5632173e+61
-8.6394084e+61
-8.6218698e+61
-8.5814235e+61
-8.6793383e+61
-8.6960123e+61
-8.7417622e+61
-8.7593431e+61
-8.9221923e+61
-8.8338325e+61
-8.9078802e+61
-8.8458659e+61
-8.8584165e+61
-8.9360915e+61
-8.9511254e+61
-8.8724855e+61
-8.9872768e+61
-9.0846264e+61
-9.0036011e+61
-9.1034776e+61
-9.0355234e+61
-9.0189213e+61
-9.1210236e+61
-9.1397914e+61
-7.7998594e+61
-7.5600859e+61
-8.328893e+61
-8.2523765e+61
-8.2557662e+61
-8.3315636e+61
-8.055981e+61
-8.1673078e+61
-8.0537411e+61
-8.1697742e+61
-9.1557495e+61
-9.1687452e+61
-9.1931361e+61
-9.1808882e+61
-9.132335e+61
-9.1452894e+61
-9.1115791e+61
-9.1215442e+61
-9.250663e+61
-9.2401888e+61
-9.2603233e+61
-9.269478e+61
-9.2318069e+61
-9.2205378e+61
-9.210712e+61
-9.2008459e+61
-8.9463778e+61
-9.0307039e+61
-9.2175017e+61
-9.3737998e+61
-9.3510223e+61
-9.1652959e+61
-9.2074927e+61
-9.2578013e+61
-9.4157281e+61
-9.3940844e+61
-9.4212204e+61
-9.442853e+61
-9.3778965e+61
-9.4007778e+61
-9.4363685e+61
-9.447701e+61
-9.448389e+61
-9.4366563e+61
-9.4686303e+61
-9.458438e+61
-9.458626e+61
-9.4692732e+61
-9.3946591e+61
-9.4062368e+61
-9.4245101e+61
-9.4362793e+61
-9.4465451e+61
-9.4166053e+61
-9.4568763e+61
-9.426585e+61
-9.3911026e+61
-9.4031975e+61
-9.4033732e+61
-9.3908316e+61
-9.4148407e+61
-9.4261968e+61
-9.4145581e+61
-9.4264597e+61
-9.3495456e+61
-9.3616258e+61
-9.3786311e+61
-9.3911854e+61
-9.3730135e+61
-9.3845322e+61
-9.4024548e+61
-9.4141963e+61
-9.1278629e+61
-9.2509243e+61
-9.2793652e+61
-9.0748891e+61
-9.1247531e+61
-9.1770976e+61
-9.3041738e+61
-9.3300363e+61
-9.276453e+61
-9.3048207e+61
-9.3559225e+61
-9.3300113e+61
-9.2863428e+61
-9.3009123e+61
-9.300605e+61
-9.2859163e+61
-9.3150075e+61
-9.3288294e+61
-9.3139721e+61
-9.3282837e+61
-9.2741448e+61
-9.2472179e+61
-9.2610496e+61
-9.2888489e+61
-9.274272e+61
-9.2878568e+61
-9.3021225e+61
-9.3161907e+61
-9.3412718e+61
-9.3550474e+61
-9.3406784e+61
-9.3548569e+61
-9.3679996e+61
-9.3802217e+61
-9.367251e+61
-9.3800066e+61
-9.3286571e+61
-9.3001479e+61
-9.3141187e+61
-9.3428203e+61
-9.326735e+61
-9.3389631e+61
-9.3552175e+61
-9.3677721e+61
-9.2359663e+61
-9.2294116e+61
-9.2043433e+61
-9.2105619e+61
-9.2491282e+61
-9.2424313e+61
-9.2170376e+61
-9.2240731e+61
-9.2616994e+61
-9.2550771e+61
-9.2297353e+61
-9.2364418e+61
-9.2727573e+61
-9.267483e+61
-9.2424966e+61
-9.2475894e+61
-9.1866891e+61
-9.1810192e+61
-9.1574452e+61
-9.162569e+61
-9.1985627e+61
-9.1924929e+61
-9.1680126e+61
-9.1740326e+61
-9.2108868e+61
-9.2042746e+61
-9.1794302e+61
-9.1859917e+61
-9.2237934e+61
-9.2173249e+61
-9.1924804e+61
-9.1990974e+61
-9.3039927e+61
-9.2982825e+61
-9.2719077e+61
-9.2776919e+61
-9.3148007e+61
-9.3094502e+61
-9.2832618e+61
-9.2887246e+61
-9.2827315e+61
-9.2773975e+61
-9.2516222e+61
-9.2566249e+61
-9.2933689e+61
-9.2879911e+61
-9.2617313e+61
-9.2672552e+61
-9.3447222e+61
-9.3398266e+61
-9.3132048e+61
-9.3179465e+61
-9.3536546e+61
-9.3494886e+61
-9.3226199e+61
-9.326722e+61
-9.3244021e+61
-9.3192979e+61
-9.2928677e+61
-9.2977585e+61
-9.3352347e+61
-9.3297794e+61
-9.3029953e+61
-9.3087377e+61
-6.9270162e+61
-8.7352657e+61
-8.7410593e+61
-8.7650245e+61
-8.7709599e+61
-8.724632e+61
-8.7537662e+61
-8.729868e+61
-8.7593744e+61
-8.7960281e+61
-8.8295048e+61
-8.8023093e+61
-8.8361058e+61
-8.7843198e+61
-8.8171717e+61
-8.7902072e+61
-8.8233151e+61
-8.8012246e+61
-8.7581208e+61
-8.7416348e+61
-8.7558932e+61
-8.7438571e+61
-8.7705516e+61
-8.7856321e+61
-8.7727697e+61
-8.7460188e+61
-8.760302e+61
-8.6780594e+61
-8.7064555e+61
-8.6833391e+61
-8.7121093e+61
-8.6683039e+61
-8.6962885e+61
-8.6733107e+61
-8.70132e+61
-8.6413745e+61
-8.6461411e+61
-8.6150874e+61
-8.6194937e+61
-8.5566879e+61
-8.6506198e+61
-8.6554875e+61
-8.6278591e+61
-8.6235339e+61
-8.5667284e+61
-8.4986712e+61
-8.5088779e+61
-8.7015741e+61
-8.6855554e+61
-8.6991199e+61
-8.6879989e+61
-8.7132486e+61
-8.7272299e+61
-8.7294368e+61
-8.7155725e+61
-8.7062655e+61
-8.6904668e+61
-8.7038939e+61
-8.6927777e+61
-8.7177255e+61
-8.7315976e+61
-8.7201868e+61
-8.7341184e+61
-8.6565178e+61
-8.6584493e+61
-8.6715662e+61
-8.6737108e+61
-8.6762313e+61
-8.678597e+61
-8.6608757e+61
-8.6632167e+61
-8.6359837e+61
-8.6055975e+61
-8.5836931e+61
-8.5804467e+61
-8.609082e+61
-8.6403985e+61
-8.5416873e+61
-8.5368667e+61
-8.5623773e+61
-8.5673964e+61
-8.5334694e+61
-8.5316196e+61
-8.5559564e+61
-8.5586794e+61
-8.7151159e+61
-8.7204988e+61
-8.7442306e+61
-8.7495276e+61
-8.7070005e+61
-8.7358427e+61
-8.7108622e+61
-8.739968e+61
-8.7658782e+61
-8.7979369e+61
-8.7700546e+61
-8.8021282e+61
-8.7743448e+61
-8.8067328e+61
-8.7798894e+61
-8.8125852e+61
-8.6587606e+61
-8.6866963e+61
-8.6642995e+61
-8.6921603e+61
-8.631971e+61
-8.6374972e+61
-8.6112283e+61
-8.6055437e+61
-8.5453374e+61
-8.6245137e+61
-8.627724e+61
-8.6012044e+61
-8.5976978e+61
-8.5341798e+61
-8.6511244e+61
-8.678797e+61
-8.6544636e+61
-8.6823928e+61
-8.4747568e+61
-8.4865839e+61
-8.3664803e+61
-8.3553086e+61
-8.4161022e+61
-8.4277298e+61
-8.3777711e+61
-8.4397962e+61
-8.4511018e+61
-8.3895737e+61
-8.4596058e+61
-8.4354702e+61
-8.4348606e+61
-8.4591402e+61
-8.4397682e+61
-8.4361804e+61
-8.4612474e+61
-8.4653784e+61
-8.4828733e+61
-8.4828784e+61
-8.5070064e+61
-8.5078406e+61
-8.5108516e+61
-8.4854328e+61
-8.489805e+61
-8.5156111e+61
-8.2315539e+61
-8.3648641e+61
-7.9267936e+61
-8.0939382e+61
-8.5151634e+61
-8.5713245e+61
-8.6272607e+61
-9.0006237e+61
-9.0095797e+61
-9.0565107e+61
-9.0654568e+61
-8.9266457e+61
-8.9379122e+61
-8.9716826e+61
-8.9827887e+61
-8.9087473e+61
-8.9534147e+61
-8.9173985e+61
-8.9622574e+61
-9.018952e+61
-9.0754739e+61
-9.0305285e+61
-9.0878633e+61
-8.8690502e+61
-8.9074414e+61
-8.8792984e+61
-8.9174119e+61
-8.8197031e+61
-8.826732e+61
-8.8532057e+61
-8.8605165e+61
-8.801765e+61
-8.8346149e+61
-8.8116738e+61
-8.8448833e+61
-8.8877678e+61
-8.9265718e+61
-8.8957194e+61
-8.9354995e+61
-8.8310926e+61
-8.8402286e+61
-8.8694534e+61
-8.878018e+61
-8.7821841e+61
-8.815094e+61
-8.7929577e+61
-8.8256348e+61
-8.7632418e+61
-8.7965855e+61
-8.7728319e+61
-8.8060326e+61
-8.8490204e+61
-8.8870926e+61
-8.8599006e+61
-8.8984814e+61
-8.9465109e+61
-8.9568516e+61
-8.9915792e+61
-9.0027459e+61
-8.9666342e+61
-9.0132352e+61
-8.9762131e+61
-9.0234133e+61
-9.0626389e+61
-9.121963e+61
-9.1337214e+61
-9.0735925e+61
-9.0399295e+61
-9.05175e+61
-9.0978993e+61
-9.1103307e+61
-7.7758955e+61
-7.7929229e+61
-7.5358846e+61
-7.5526746e+61
-7.7555664e+61
-7.7637762e+61
-7.5272499e+61
-7.5258746e+61
-7.233068e+61
-7.2434487e+61
-8.3460797e+61
-8.3319466e+61
-8.3909523e+61
-8.4064958e+61
-8.3624955e+61
-8.3066773e+61
-8.3770407e+61
-8.3195871e+61
-8.4311809e+61
-8.4159372e+61
-8.472235e+61
-8.4882778e+61
-8.46408e+61
-8.4468089e+61
-8.5051496e+61
-8.5233853e+61
-8.186467e+61
-8.1786686e+61
-8.2458744e+61
-8.2566132e+61
-8.1026661e+61
-7.9996024e+61
-8.0025439e+61
-8.1081967e+61
-8.0182323e+61
-8.0081e+61
-8.1149043e+61
-8.1251579e+61
-8.1941042e+61
-8.2670486e+61
-8.205803e+61
-8.280354e+61
-8.2252651e+61
-8.2145567e+61
-8.2893961e+61
-8.2997901e+61
-8.0228513e+61
-8.1319932e+61
-8.0302807e+61
-8.1420334e+61
-8.0552618e+61
-8.0423455e+61
-8.1520001e+61
-8.1635023e+61
-8.2460136e+61
-8.2340237e+61
-8.3100684e+61
-8.3223538e+61
-8.6419082e+61
-8.6704092e+61
-8.6513019e+61
-8.6798869e+61
-8.7000252e+61
-8.7314835e+61
-8.7095616e+61
-8.7410188e+61
-8.7308895e+61
-8.7194861e+61
-8.750648e+61
-8.7615693e+61
-8.6732703e+61
-8.6614936e+61
-8.6900853e+61
-8.7016035e+61
-8.5861271e+61
-8.6141555e+61
-8.5951742e+61
-8.6231759e+61
-8.5590809e+61
-8.547928e+61
-8.5763365e+61
-8.5876248e+61
-8.5583458e+61
-8.5674207e+61
-8.539088e+61
-8.530639e+61
-8.6043296e+61
-8.632961e+61
-8.6160161e+61
-8.6448928e+61
-8.5780019e+61
-8.5681226e+61
-8.5964554e+61
-8.606279e+61
-8.6427217e+61
-8.648937e+61
-8.6705723e+61
-8.6762265e+61
-8.6248309e+61
-8.6536941e+61
-8.6348102e+61
-8.6632583e+61
-8.6147632e+61
-8.621851e+61
-8.5943639e+61
-8.5866112e+61
-8.6818883e+61
-8.7101968e+61
-8.691152e+61
-8.7194049e+61
-8.6979592e+61
-8.7263382e+61
-8.7037106e+61
-8.7323807e+61
-8.7488903e+61
-8.7394991e+61
-8.7703354e+61
-8.7800826e+61
-8.7560821e+61
-8.7877862e+61
-8.762484e+61
-8.7945739e+61
-8.9119322e+61
-8.9188138e+61
-8.9534341e+61
-8.9608284e+61
-8.8303157e+61
-8.8644958e+61
-8.8348714e+61
-8.8697326e+61
-8.9060572e+61
-8.9002526e+61
-8.9405793e+61
-8.9470177e+61
-8.8398346e+61
-8.8751643e+61
-8.8459409e+61
-8.8815583e+61
-8.8506523e+61
-8.8865131e+61
-8.8571164e+61
-8.893417e+61
-8.9241783e+61
-8.9666091e+61
-8.9314345e+61
-8.9743362e+61
-8.9381698e+61
-8.9814644e+61
-8.9451381e+61
-8.9886293e+61
-8.8635162e+61
-8.8701832e+61
-8.9067644e+61
-8.9000597e+61
-8.9819731e+61
-8.9890343e+61
-9.0375603e+61
-9.0296785e+61
-9.0803777e+61
-9.1409162e+61
-9.0888101e+61
-9.1499487e+61
-8.9959601e+61
-9.0451259e+61
-9.0038653e+61
-9.0535779e+61
-9.0968799e+61
-9.1589108e+61
-9.1062414e+61
-9.1693285e+61
-9.0256339e+61
-9.0770787e+61
-9.0100062e+61
-9.0601472e+61
-9.0181464e+61
-9.0690377e+61
-9.1772412e+61
-9.1134851e+61
-9.1228796e+61
-9.1871418e+61
-9.1962856e+61
-9.1312368e+61
-9.2050472e+61
-7.529743e+61
-7.9177178e+61
-7.9229239e+61
-7.7465552e+61
-7.7562997e+61
-8.4094621e+61
-8.3819498e+61
-8.408782e+61
-8.3814957e+61
-8.3531034e+61
-8.3201948e+61
-8.3523175e+61
-8.3192073e+61
-8.3204842e+61
-8.3195988e+61
-8.3525144e+61
-8.3537308e+61
-8.3829755e+61
-8.3810462e+61
-8.409042e+61
-8.4120411e+61
-8.1194211e+61
-8.1870769e+61
-8.1848559e+61
-8.1136644e+61
-8.2818229e+61
-8.2371676e+61
-8.235565e+61
-8.2803161e+61
-8.1101787e+61
-8.1827922e+61
-8.1842139e+61
-8.111815e+61
-8.2806562e+61
-8.2348742e+61
-8.2363784e+61
-8.281785e+61
-8.2385026e+61
-8.1853601e+61
-8.112377e+61
-9.1661474e+61
-9.1723083e+61
-9.1783887e+61
-9.1855309e+61
-9.2087347e+61
-9.2034622e+61
-9.1977228e+61
-9.1910753e+61
-9.1483594e+61
-9.1419421e+61
-9.1544472e+61
-9.1611698e+61
-9.1214214e+61
-9.1261255e+61
-9.1309336e+61
-9.1368963e+61
-9.2667147e+61
-9.2607526e+61
-9.2559601e+61
-9.251431e+61
-9.2710962e+61
-9.2756771e+61
-9.2797245e+61
-9.283891e+61
-9.2475332e+61
-9.2418187e+61
-9.236631e+61
-9.2312021e+61
-9.2269217e+61
-9.2214347e+61
-9.2169008e+61
-9.212266e+61
-8.8521244e+61
-8.6414327e+61
-8.9744275e+61
-8.9282462e+61
-8.7124652e+61
-9.0484922e+61
-9.0112658e+61
-9.0746473e+61
-9.305708e+61
-9.2848273e+61
-9.2131448e+61
-9.2323187e+61
-9.1100111e+61
-9.3449853e+61
-9.3245757e+61
-9.2688573e+61
-9.2496358e+61
-9.3711405e+61
-9.360836e+61
-9.374606e+61
-9.3847866e+61
-9.4194642e+61
-9.4088057e+61
-9.3916868e+61
-9.3809984e+61
-9.4296244e+61
-9.3945575e+61
-9.4050853e+61
-9.4398943e+61
-9.3308244e+61
-9.3203744e+61
-9.3444632e+61
-9.3338405e+61
-9.3770245e+61
-9.3656853e+61
-9.3519309e+61
-9.3410714e+61
-9.3545773e+61
-9.3653263e+61
-9.3878049e+61
-9.3987949e+61
-9.4259862e+61
-9.4262706e+61
-9.4316899e+61
-9.4310561e+61
-9.4205857e+61
-9.4145628e+61
-9.4149778e+61
-9.4209304e+61
-9.4357517e+61
-9.4416072e+61
-9.442009e+61
-9.4362871e+61
-9.4469885e+61
-9.4467174e+61
-9.4519521e+61
-9.4513117e+61
-9.3447916e+61
-9.3786195e+61
-9.3843021e+61
-9.3502212e+61
-9.3555987e+61
-9.3896835e+61
-9.3950581e+61
-9.3609153e+61
-9.415992e+61
-9.4101211e+61
-9.4046643e+61
-9.3988891e+61
-9.4268501e+61
-9.4214015e+61
-9.415608e+61
-9.4100338e+61
-9.4315288e+61
-9.4371518e+61
-9.4204377e+61
-9.4260216e+61
-9.3656265e+61
-9.4000134e+61
-9.4056223e+61
-9.3709029e+61
-9.4308593e+61
-9.4420782e+61
-9.446994e+61
-9.4357971e+61
-9.4150817e+61
-9.4104706e+61
-9.3757444e+61
-9.3802037e+61
-9.3823585e+61
-9.3823341e+61
-9.3882034e+61
-9.3878457e+61
-9.376562e+61
-9.3702043e+61
-9.3703223e+61
-9.3766056e+61
-9.399179e+61
-9.3929573e+61
-9.393223e+61
-9.3993546e+61
-9.4097936e+61
-9.4046738e+61
-9.404772e+61
-9.4102572e+61
-9.3018885e+61
-9.3344216e+61
-9.3403006e+61
-9.3074629e+61
-9.3128312e+61
-9.3458456e+61
-9.3514488e+61
-9.3182766e+61
-9.3715499e+61
-9.3653581e+61
-9.3602013e+61
-9.3541688e+61
-9.3832341e+61
-9.3773372e+61
-9.3717233e+61
-9.3658403e+61
-9.3234145e+61
-9.3567452e+61
-9.3627513e+61
-9.329229e+61
-9.334719e+61
-9.3682738e+61
-9.3737297e+61
-9.3400852e+61
-9.3943934e+61
-9.3883428e+61
-9.3829626e+61
-9.3769203e+61
-9.4053174e+61
-9.3998226e+61
-9.394035e+61
-9.3884135e+61
-8.9617797e+61
-9.0246874e+61
-9.0733221e+61
-8.9936189e+61
-9.2165412e+61
-9.1887891e+61
-9.1216755e+61
-9.1487849e+61
-9.0390006e+61
-9.2649625e+61
-9.2401508e+61
-9.1711096e+61
-9.1946491e+61
-9.2348021e+61
-9.2209669e+61
-9.2477861e+61
-9.233619e+61
-9.263048e+61
-9.2773506e+61
-9.2623276e+61
-9.2483028e+61
-9.2611129e+61
-9.2749589e+61
-9.2908922e+61
-9.3046446e+61
-9.3110338e+61
-9.2985186e+61
-9.3240238e+61
-9.311651e+61
-9.3427232e+61
-9.3549102e+61
-9.286149e+61
-9.27342e+61
-9.2865306e+61
-9.29944e+61
-9.3170939e+61
-9.3303024e+61
-9.2809074e+61
-9.2806571e+61
-9.2877295e+61
-9.2877999e+61
-9.2738403e+61
-9.2661883e+61
-9.2661528e+61
-9.2737194e+61
-9.3015202e+61
-9.2939891e+61
-9.2939203e+61
-9.3013285e+61
-9.3080276e+61
-9.3083507e+61
-9.3147765e+61
-9.3148106e+61
-9.2612645e+61
-9.2687106e+61
-9.2582393e+61
-9.2510939e+61
-9.2397164e+61
-9.2328521e+61
-9.2030829e+61
-9.2093039e+61
-9.2526803e+61
-9.246126e+61
-9.2154173e+61
-9.2216571e+61
-9.2828304e+61
-9.2757373e+61
-9.2718813e+61
-9.2649238e+61
-9.2659154e+61
-9.2588699e+61
-9.227631e+61
-9.2343904e+61
-9.2789718e+61
-9.2724282e+61
-9.2408537e+61
-9.2473165e+61
-9.2963241e+61
-9.2890619e+61
-9.2852307e+61
-9.2780745e+61
-9.3097165e+61
-9.3030112e+61
-9.2985684e+61
-9.2917968e+61
-9.327828e+61
-9.320646e+61
-9.3206256e+61
-9.3277579e+61
-9.3342938e+61
-9.3344639e+61
-9.3408655e+61
-9.3410128e+61
-9.3466718e+61
-9.346643e+61
-9.3534387e+61
-9.3535321e+61
-9.3596224e+61
-9.3650866e+61
-9.3594092e+61
-9.3652774e+61
-9.3227283e+61
-9.3156645e+61
-9.304567e+61
-9.3115459e+61
-9.2919004e+61
-9.2849737e+61
-9.2531155e+61
-9.2598351e+61
-9.2663311e+61
-9.2983758e+61
-9.3049491e+61
-9.2729392e+61
-9.3360129e+61
-9.3293195e+61
-9.3247023e+61
-9.3179822e+61
-9.2789869e+61
-9.3109686e+61
-9.317649e+61
-9.2855558e+61
-9.2913423e+61
-9.3235304e+61
-9.3292758e+61
-9.2968641e+61
-9.3483867e+61
-9.3417721e+61
-9.3371872e+61
-9.3305545e+61
-9.3602196e+61
-9.3543346e+61
-9.3490301e+61
-9.3430744e+61
-6.8902412e+61
-9.1886962e+61
-9.1825138e+61
-9.20154e+61
-9.1948155e+61
-9.2141184e+61
-9.2076722e+61
-9.2246664e+61
-9.2196598e+61
-9.1416282e+61
-9.1366687e+61
-9.1525317e+61
-9.1467896e+61
-9.1643387e+61
-9.1581067e+61
-9.1767795e+61
-9.1703682e+61
-9.25352e+61
-9.2482665e+61
-9.2639403e+61
-9.2585351e+61
-9.2336825e+61
-9.2288298e+61
-9.2435318e+61
-9.2383568e+61
-9.2927628e+61
-9.288218e+61
-9.2967807e+61
-9.2731454e+61
-9.2685077e+61
-9.2834668e+61
-9.2778961e+61
-8.7315561e+61
-8.7455629e+61
-8.7483246e+61
-8.7342987e+61
-8.7397999e+61
-8.7370063e+61
-8.7511065e+61
-8.7540095e+61
-8.7778343e+61
-8.7600209e+61
-8.77495e+61
-8.7628286e+61
-8.7686108e+61
-8.7837378e+61
-8.7655591e+61
-8.7806499e+61
-8.7381271e+61
-8.7220513e+61
-8.7358676e+61
-8.7242844e+61
-8.7500836e+61
-8.7646431e+61
-8.7669615e+61
-8.7523499e+61
-8.7433607e+61
-8.7265862e+61
-8.7404714e+61
-8.7293526e+61
-8.7548041e+61
-8.7695393e+61
-8.7577325e+61
-8.7725736e+61
-8.7903089e+61
-8.8061645e+61
-8.809264e+61
-8.7932726e+61
-8.8395372e+61
-8.8257047e+61
-8.8225408e+61
-8.8427908e+61
-8.7961679e+61
-8.7992969e+61
-8.812273e+61
-8.8154326e+61
-8.8458916e+61
-8.8319979e+61
-8.8490998e+61
-8.8287196e+61
-8.7977787e+61
-8.7797085e+61
-8.7952239e+61
-8.7821344e+61
-8.8279619e+61
-8.8112753e+61
-8.8138735e+61
-8.8306164e+61
-8.7878953e+61
-8.8036798e+61
-8.7847726e+61
-8.8004967e+61
-8.8334554e+61
-8.8165988e+61
-8.8199381e+61
-8.8368777e+61
-8.8026332e+61
-8.7598846e+61
-8.7434588e+61
-8.7576239e+61
-8.7457849e+61
-8.7722152e+61
-8.7870619e+61
-8.7744488e+61
-8.7479502e+61
-8.7620735e+61
-8.7767194e+61
-8.6768104e+61
-8.6793415e+61
-8.6899724e+61
-8.6926122e+61
-8.7064162e+61
-8.717398e+61
-8.7201161e+61
-8.7036957e+61
-8.6817995e+61
-8.6839961e+61
-8.6974502e+61
-8.6951169e+61
-8.7089286e+61
-8.711445e+61
-8.7227488e+61
-8.7254431e+61
-8.6832582e+61
-8.6679123e+61
-8.680893e+61
-8.6702453e+61
-8.6945436e+61
-8.7080582e+61
-8.7102588e+61
-8.6968254e+61
-8.6880168e+61
-8.6725976e+61
-8.6855862e+61
-8.6749171e+61
-8.6990563e+61
-8.7125402e+61
-8.7016071e+61
-8.7151855e+61
-8.6403763e+61
-8.6423329e+61
-8.6545351e+61
-8.6565896e+61
-8.6589428e+61
-8.6612289e+61
-8.6446496e+61
-8.6467402e+61
-8.6213508e+61
-8.5914623e+61
-8.6254323e+61
-8.5955013e+61
-8.5679086e+61
-8.5718204e+61
-8.6486896e+61
-8.6506652e+61
-8.6631973e+61
-8.6654075e+61
-8.6678265e+61
-8.6699818e+61
-8.6528943e+61
-8.654838e+61
-8.6325386e+61
-8.6031992e+61
-8.6288685e+61
-8.5991373e+61
-8.5751006e+61
-8.5784902e+61
-8.5444325e+61
-8.5205377e+61
-8.525186e+61
-8.5484429e+61
-8.5545282e+61
-8.5285891e+61
-8.5515888e+61
-8.5311448e+61
-8.7048735e+61
-8.6887373e+61
-8.7022629e+61
-8.6913055e+61
-8.7158732e+61
-8.7294195e+61
-8.7317925e+61
-8.7183058e+61
-8.693673e+61
-8.7071878e+61
-8.6959636e+61
-8.7205141e+61
-8.7339854e+61
-8.6583735e+61
-8.6605352e+61
-8.6745317e+61
-8.6768899e+61
-8.6793762e+61
-8.6817296e+61
-8.6630569e+61
-8.6653487e+61
-8.6426593e+61
-8.631414e+61
-8.6134289e+61
-8.6337302e+61
-8.6450684e+61
-8.5948057e+61
-8.5911351e+61
-8.617376e+61
-8.6383506e+61
-8.6357919e+61
-8.6472196e+61
-8.6497446e+61
-8.6213672e+61
-8.5985256e+61
-8.5565072e+61
-8.5523783e+61
-8.5751047e+61
-8.5490703e+61
-8.5466074e+61
-8.5686203e+61
-8.5717698e+61
-8.7289266e+61
-8.713148e+61
-8.7268576e+61
-8.7152602e+61
-8.7202421e+61
-8.7176291e+61
-8.731322e+61
-8.7340074e+61
-8.740996e+61
-8.755491e+61
-8.743071e+61
-8.7575786e+61
-8.7481834e+61
-8.7599654e+61
-8.7627724e+61
-8.7453832e+61
-8.7064346e+61
-8.7200349e+61
-8.7079095e+61
-8.7215506e+61
-8.7355939e+61
-8.7499914e+61
-8.7340041e+61
-8.7483698e+61
-8.725358e+61
-8.709517e+61
-8.7232306e+61
-8.7115962e+61
-8.7373844e+61
-8.7518367e+61
-8.7539743e+61
-8.7394762e+61
-8.7631527e+61
-8.7783122e+61
-8.7801025e+61
-8.7648706e+61
-8.7939284e+61
-8.8100797e+61
-8.8118928e+61
-8.7957331e+61
-8.7667327e+61
-8.768844e+61
-8.7819659e+61
-8.7840737e+61
-8.7975637e+61
-8.7998014e+61
-8.8137974e+61
-8.8161618e+61
-8.7880751e+61
-8.770373e+61
-8.7857107e+61
-8.7725988e+61
-8.8180076e+61
-8.8015646e+61
-8.8040127e+61
-8.8205379e+61
-8.7933204e+61
-8.7750256e+61
-8.7905626e+61
-8.7778071e+61
-8.8231586e+61
-8.8065267e+61
-8.809358e+61
-8.8260452e+61
-8.6592113e+61
-8.6615948e+61
-8.6721876e+61
-8.6744777e+61
-8.6879852e+61
-8.6992048e+61
-8.7013459e+61
-8.6857374e+61
-8.6640185e+61
-8.6662768e+61
-8.6791864e+61
-8.6768698e+61
-8.6902913e+61
-8.6927276e+61
-8.7036998e+61
-8.7062587e+61
-8.6317028e+61
-8.6338267e+61
-8.6458752e+61
-8.6480376e+61
-8.6505253e+61
-8.6528269e+61
-8.6363765e+61
-8.6385868e+61
-8.6175698e+61
-8.5873294e+61
-8.6128095e+61
-8.5813857e+61
-8.5570544e+61
-8.5634334e+61
-8.6256798e+61
-8.6265438e+61
-8.6400452e+61
-8.6409189e+61
-8.6423953e+61
-8.6441286e+61
-8.6281684e+61
-8.629831e+61
-8.6090173e+61
-8.5767158e+61
-8.6056954e+61
-8.5729918e+61
-8.5478901e+61
-8.5520875e+61
-8.6671086e+61
-8.6532466e+61
-8.6658808e+61
-8.6543452e+61
-8.6792967e+61
-8.6926412e+61
-8.6940014e+61
-8.6806171e+61
-8.6705053e+61
-8.6557824e+61
-8.6685901e+61
-8.6575316e+61
-8.6821343e+61
-8.6955914e+61
-8.6841228e+61
-8.6976111e+61
-8.5231938e+61
-8.4982301e+61
-8.5026041e+61
-8.5273999e+61
-8.5326714e+61
-8.5080087e+61
-8.5153618e+61
-8.5396458e+61
-8.4145446e+61
-8.4069752e+61
-8.4328929e+61
-8.4403777e+61
-8.4016795e+61
-8.3977012e+61
-8.423299e+61
-8.4274997e+61
-8.472854e+61
-8.4476332e+61
-8.4519162e+61
-8.4770721e+61
-8.4647764e+61
-8.4572337e+61
-8.4824384e+61
-8.490038e+61
-8.425852e+61
-8.4202859e+61
-8.4462043e+61
-8.4515584e+61
-8.4957535e+61
-8.4706582e+61
-8.4761966e+61
-8.500848e+61
-8.5048985e+61
-8.4807702e+61
-8.5073418e+61
-8.4834526e+61
-8.4563622e+61
-8.4310121e+61
-8.435315e+61
-8.4599235e+61
-8.4826159e+61
-8.4626654e+61
-8.4617847e+61
-8.4821685e+61
-8.4666679e+61
-8.4640794e+61
-8.4850456e+61
-8.4881056e+61
-8.5036873e+61
-8.5030786e+61
-8.5244525e+61
-8.5260295e+61
-8.5293165e+61
-8.5067689e+61
-8.5101667e+61
-8.5330307e+61
-7.7448652e+61
-7.5200616e+61
-7.5050805e+61
-7.2297957e+61
-8.2967151e+61
-8.2799177e+61
-8.3333251e+61
-8.3505599e+61
-8.2646928e+61
-8.4409507e+61
-8.3854975e+61
-8.4598337e+61
-8.4037835e+61
-8.1389938e+61
-8.2055311e+61
-7.964932e+61
-8.0646152e+61
-7.9928548e+61
-7.9771147e+61
-8.0770786e+61
-8.0931797e+61
-8.2198725e+61
-8.1516797e+61
-8.2364747e+61
-8.1683425e+61
-8.5321943e+61
-8.5054241e+61
-8.541227e+61
-8.5510075e+61
-8.5237342e+61
-8.5145188e+61
-8.5678005e+61
-8.5951537e+61
-8.5782921e+61
-8.6063054e+61
-8.622866e+61
-8.6515196e+61
-8.6341392e+61
-8.6628124e+61
-8.6925721e+61
-8.7240257e+61
-8.7555224e+61
-8.7889143e+61
-8.9974919e+61
-9.0264521e+61
-9.0308074e+61
-9.0017838e+61
-9.0111973e+61
-9.0060297e+61
-9.0349861e+61
-9.0401113e+61
-9.0934689e+61
-9.0557806e+61
-9.0891489e+61
-9.0600058e+61
-9.069626e+61
-9.103613e+61
-9.0641926e+61
-9.0979371e+61
-8.9206532e+61
-8.9427007e+61
-8.9481826e+61
-8.9260814e+61
-8.9372078e+61
-8.9314003e+61
-8.9534169e+61
-8.959005e+61
-8.9957366e+61
-8.9649651e+61
-8.9902767e+61
-8.9703915e+61
-8.981262e+61
-9.0068016e+61
-8.9754664e+61
-9.0009472e+61
-8.9295849e+61
-8.90318e+61
-8.9252028e+61
-8.9075408e+61
-8.9473157e+61
-8.9724188e+61
-8.9766244e+61
-8.9515893e+61
-8.9386155e+61
-8.9116141e+61
-8.9336131e+61
-8.916533e+61
-8.9557135e+61
-8.9808857e+61
-8.9607557e+61
-8.9859838e+61
-9.0154695e+61
-9.044506e+61
-9.0503363e+61
-9.0209806e+61
-9.0743348e+61
-9.1085272e+61
-9.1147244e+61
-9.0803016e+61
-9.0263426e+61
-9.0323263e+61
-9.0559579e+61
-9.0620024e+61
-9.0860114e+61
-9.0923803e+61
-9.1206712e+61
-9.1272582e+61
-8.8873168e+61
-8.8637647e+61
-8.88236e+61
-8.8688074e+61
-8.9010847e+61
-8.9213032e+61
-8.9260624e+61
-8.9058866e+61
-8.8786251e+61
-8.8970322e+61
-8.873524e+61
-8.8919121e+61
-8.9104027e+61
-8.9307401e+61
-8.9156927e+61
-8.9361435e+61
-8.8154112e+61
-8.8315048e+61
-8.8350725e+61
-8.8188684e+61
-8.8247162e+61
-8.8218611e+61
-8.8381253e+61
-8.841008e+61
-8.8686491e+61
-8.8476904e+61
-8.8648665e+61
-8.8513568e+61
-8.8575455e+61
-8.8751817e+61
-8.8544133e+61
-8.871887e+61
-8.8185885e+61
-8.7975459e+61
-8.8135213e+61
-8.8026188e+61
-8.8295744e+61
-8.8464833e+61
-8.8514985e+61
-8.8345804e+61
-8.8281432e+61
-8.8072279e+61
-8.823159e+61
-8.8121109e+61
-8.8392457e+61
-8.8562697e+61
-8.8442327e+61
-8.8613227e+61
-8.8822195e+61
-8.9007983e+61
-8.905045e+61
-8.8861459e+61
-8.9403873e+61
-8.9241942e+61
-8.9197569e+61
-8.9450921e+61
-8.8895712e+61
-8.8930314e+61
-8.9087204e+61
-8.9123193e+61
-8.9491988e+61
-8.9318782e+61
-8.9532619e+61
-8.9280171e+61
-8.8252207e+61
-8.8299499e+61
-8.8485534e+61
-8.8438283e+61
-8.8392991e+61
-8.8574973e+61
-8.8343778e+61
-8.8528142e+61
-8.8625906e+61
-8.88298e+61
-8.8873444e+61
-8.8671487e+61
-8.8712548e+61
-8.8760144e+61
-8.8914522e+61
-8.8962721e+61
-8.798446e+61
-8.7774638e+61
-8.7933487e+61
-8.7827566e+61
-8.8093267e+61
-8.8261924e+61
-8.8311993e+61
-8.8143591e+61
-8.7878834e+61
-8.7932942e+61
-8.8035675e+61
-8.8091542e+61
-8.8193053e+61
-8.8251122e+61
-8.8362069e+61
-8.8420523e+61
-8.7629398e+61
-8.758205e+61
-8.7744559e+61
-8.7791162e+61
-8.7953841e+61
-8.7906997e+61
-8.8078359e+61
-8.812495e+61
-8.7892182e+61
-8.7676514e+61
-8.7837436e+61
-8.7731528e+61
-8.8170709e+61
-8.8000157e+61
-8.8052541e+61
-8.8221662e+61
-8.8667891e+61
-8.8432853e+61
-8.8615327e+61
-8.8483451e+61
-8.9004693e+61
-8.8801957e+61
-8.8855107e+61
-8.905853e+61
-8.8593373e+61
-8.8779609e+61
-8.8534346e+61
-8.872023e+61
-8.9112022e+61
-8.8907472e+61
-8.8967513e+61
-8.9171258e+61
-8.9413105e+61
-8.9631889e+61
-8.968315e+61
-8.9461771e+61
-8.9509651e+61
-8.9565374e+61
-8.9732956e+61
-8.9789737e+61
-9.0164585e+61
-8.985507e+61
-9.0110881e+61
-8.9907398e+61
-9.0017966e+61
-9.0279941e+61
-8.9958063e+61
-9.0217731e+61
-8.9608432e+61
-8.9834303e+61
-8.9886734e+61
-8.9657801e+61
-9.0383845e+61
-9.0064785e+61
-9.0328474e+61
-9.0118588e+61
-8.9974978e+61
-8.970085e+61
-8.9931721e+61
-8.9743146e+61
-9.0164446e+61
-9.0431907e+61
-9.0479139e+61
-9.0209977e+61
-9.0591285e+61
-9.0895896e+61
-9.0955788e+61
-9.0647959e+61
-9.1564452e+61
-9.1268715e+61
-9.1207678e+61
-9.1627777e+61
-9.1683317e+61
-9.1321435e+61
-9.1373827e+61
-9.1737024e+61
-9.0697756e+61
-9.0746196e+61
-9.1007581e+61
-9.1056753e+61
-9.036759e+61
-9.0665609e+61
-9.0723714e+61
-9.042283e+61
-9.0477803e+61
-9.0780753e+61
-9.0541804e+61
-9.0845289e+61
-9.1320756e+61
-9.1380667e+61
-9.0970771e+61
-9.1029498e+61
-9.1154631e+61
-9.1086834e+61
-9.1439865e+61
-9.1509767e+61
-7.8921011e+61
-7.7259346e+61
-7.7278012e+61
-7.8974285e+61
-7.9085519e+61
-7.9225563e+61
-7.7541724e+61
-7.737158e+61
-7.5056401e+61
-7.5228106e+61
-7.8735749e+61
-7.8733621e+61
-7.713486e+61
-7.7080453e+61
-7.8773955e+61
-7.8869482e+61
-7.7102662e+61
-7.7208252e+61
-7.4977469e+61
-7.4970564e+61
-7.2067248e+61
-7.2163736e+61
-8.3937884e+61
-8.3864655e+61
-8.419228e+61
-8.4115137e+61
-8.3798127e+61
-8.3727905e+61
-8.3969775e+61
-8.4046588e+61
-8.4283498e+61
-8.4200803e+61
-8.4436046e+61
-8.4525842e+61
-8.4604511e+61
-8.4356803e+61
-8.4435254e+61
-8.4686369e+61
-8.4105994e+61
-8.3884324e+61
-8.395353e+61
-8.4175163e+61
-8.3667434e+61
-8.3444436e+61
-8.350201e+61
-8.3731736e+61
-8.4252878e+61
-8.4029947e+61
-8.4124424e+61
-8.4352066e+61
-8.3806006e+61
-8.3571807e+61
-8.3662835e+61
-8.390027e+61
-8.4584933e+61
-8.4481521e+61
-8.4824333e+61
-8.4715932e+61
-8.4402857e+61
-8.4332073e+61
-8.4563687e+61
-8.4635076e+61
-8.4879997e+61
-8.4805787e+61
-8.5056547e+61
-8.5134823e+61
-8.5220638e+61
-8.4962338e+61
-8.5073065e+61
-8.5332708e+61
-8.4937432e+61
-8.4854886e+61
-8.5103369e+61
-8.5187496e+61
-8.4771669e+61
-8.4675235e+61
-8.4917678e+61
-8.501783e+61
-8.5425198e+61
-8.516666e+61
-8.5268181e+61