/*--------------------------------*- C++ -*----------------------------------*\
  =========                 |
  \\      /  F ield         | OpenFOAM: The Open Source CFD Toolbox
   \\    /   O peration     | Website:  https://openfoam.org
    \\  /    A nd           | Version:  7
     \\/     M anipulation  |
\*---------------------------------------------------------------------------*/
FoamFile
{
    version     2.0;
    format      ascii;
    class       volScalarField;
    location    "5000";
    object      nut;
}
// * * * * * * * * * * * * * * * * * * * * * * * * * * * * * * * * * * * * * //

dimensions      [0 2 -1 0 0 0 0];

internalField   nonuniform List<scalar> 
34124
(
4.9209265e-33
1.147885e-32
7.3885715e-33
6.7788576e-33
9.1425995e-32
4.6984997e-32
2.8634547e-32
7.0061657e-33
1.7992721e-32
8.841326e-33
1.3099254e-31
8.2251358e-32
7.6952759e-32
8.0447175e-32
5.1871578e-32
5.9895793e-32
6.7645087e-33
1.998205e-32
2.6178455e-32
2.1052563e-32
2.8149833e-31
2.4583549e-31
3.7475897e-31
3.1917646e-31
1.0452841e-31
1.8029825e-31
6.2687123e-32
5.4749591e-32
4.6213256e-32
2.8898475e-32
2.1417647e-32
1.3023502e-32
2.2741388e-32
4.4046859e-32
9.7898193e-32
2.8419727e-31
2.6320715e-31
3.1950441e-31
3.3044289e-31
3.120547e-31
1.4156881e-30
1.4254077e-31
1.6023652e-31
1.2163614e-31
2.809464e-31
5.8354687e-32
1.1717693e-31
5.0928228e-32
5.8459522e-32
1.1724803e-31
5.3038543e-32
3.4901382e-32
2.676599e-32
2.4727993e-32
5.9624144e-32
4.3932909e-32
1.9657055e-31
2.2023215e-31
3.2785594e-31
3.5575295e-31
3.075162e-31
8.5780998e-31
1.7098502e-31
4.4111381e-31
1.0417538e-30
1.8785219e-30
9.9268722e-32
2.8514805e-31
1.7530494e-31
1.3508256e-31
8.3502568e-32
9.6880424e-32
9.3128475e-32
1.647604e-31
3.5866118e-32
7.4475766e-32
5.1823484e-32
2.9349751e-32
4.0448396e-32
3.6818396e-32
4.1882476e-32
7.3153054e-32
1.2696065e-31
4.1210438e-32
2.5964452e-31
2.4267923e-31
3.8453102e-31
3.2731573e-31
6.3666552e-31
7.9568449e-31
2.6145341e-31
3.1949309e-31
7.5079013e-31
1.5782051e-30
3.7825637e-31
3.387602e-31
1.4235873e-30
1.8851525e-30
2.5511763e-30
1.1394513e-31
3.4788029e-31
3.4199531e-31
1.4458934e-31
2.0245833e-31
7.4726644e-32
5.9670154e-32
8.5125507e-32
1.1576708e-31
7.0593171e-32
1.8198303e-31
1.0494054e-31
4.6334418e-32
1.1848314e-31
8.9690923e-32
4.2909764e-32
3.2186381e-32
4.8094336e-32
3.603498e-32
2.2443596e-32
2.5184492e-32
1.2347873e-31
2.4662899e-31
5.1603853e-31
3.4872586e-31
1.079648e-30
7.701917e-31
6.0792605e-31
1.2129067e-31
9.3770864e-31
1.8176722e-30
3.4777563e-31
2.5938742e-31
7.1789934e-31
1.3450915e-30
3.4621906e-30
4.9190473e-31
1.0517504e-30
1.0441486e-30
1.9299721e-30
3.8851193e-30
4.5976366e-30
9.1921501e-32
2.6545802e-31
3.3864308e-31
3.6120413e-31
5.7186666e-31
1.6053364e-31
7.8790211e-32
1.7290598e-31
1.1022597e-31
1.612713e-31
9.1280811e-32
7.7923851e-32
1.4010947e-31
7.5724646e-32
4.7762475e-32
9.0908723e-32
8.6435127e-32
1.2218961e-31
1.8790558e-32
2.9547468e-32
1.503624e-32
4.3298137e-32
4.2736845e-32
2.5942108e-32
2.6595314e-31
4.995369e-31
2.2578614e-31
5.4901419e-31
4.7473209e-31
8.0794446e-31
4.4008455e-31
3.0603463e-31
8.1351782e-31
1.3680516e-30
5.4924615e-31
8.6594716e-31
1.4580451e-31
1.7995501e-30
3.1975232e-30
5.9187869e-31
7.3650158e-31
5.4007388e-31
1.0305372e-30
2.8604528e-30
3.3008594e-30
5.0780212e-31
8.696978e-31
2.0168292e-30
1.5266764e-30
2.6520689e-30
2.8140589e-30
3.817901e-30
2.5837398e-31
2.217247e-31
2.58454e-31
1.8514571e-31
1.1863024e-31
3.1351662e-31
1.9682527e-31
7.959291e-32
9.4121175e-32
1.1191184e-31
1.2016921e-31
5.175116e-32
5.2307342e-32
5.7684592e-32
9.6108332e-32
7.1025701e-32
5.0262598e-32
6.0679562e-32
4.027856e-32
2.0023141e-32
1.2757047e-31
3.3412861e-32
1.242345e-32
1.7532089e-32
3.7677077e-32
1.5836578e-32
1.9063972e-32
3.9929868e-31
4.193783e-31
3.9833336e-31
4.5983086e-31
6.8111252e-31
2.9211947e-31
4.5761351e-31
2.899572e-31
6.9192217e-31
7.8066565e-31
4.3960578e-31
6.8167512e-31
3.8141558e-31
1.8843305e-30
2.4605495e-30
1.2008554e-30
5.8206583e-31
1.2215149e-30
1.8284544e-31
2.2690297e-30
3.2847574e-30
3.2426673e-31
8.5497387e-31
9.8911455e-31
4.8459636e-31
2.3195695e-30
3.2308592e-30
2.9179606e-30
7.8878838e-31
3.6274644e-31
9.7314134e-31
2.8479813e-30
1.7150707e-30
2.3127385e-30
4.632294e-30
1.9220933e-30
2.0142309e-31
2.1499795e-31
2.9207783e-31
1.0781053e-31
7.003354e-32
7.5577902e-32
2.5917284e-31
2.0005431e-31
1.4419472e-31
6.7741196e-32
4.4442163e-32
5.9757673e-32
1.6603566e-31
3.0396169e-32
3.4626236e-32
4.2070952e-32
9.8954609e-32
8.5379832e-32
4.8997184e-32
4.1742956e-32
2.6822383e-32
3.1624724e-32
3.7206904e-32
2.7439064e-32
7.0135942e-33
1.0280097e-32
3.617957e-32
1.9067098e-32
1.9802731e-32
2.5052382e-32
3.76687e-31
5.9877179e-31
4.1086056e-31
5.2760054e-31
4.3173629e-31
5.1692813e-31
9.737795e-31
7.9695057e-31
8.5681875e-31
4.6027788e-31
4.4046614e-31
7.1497532e-31
4.6333168e-31
9.4127626e-31
1.0445666e-30
8.7405539e-31
2.8592139e-31
1.136706e-30
4.0687966e-31
1.3300514e-30
3.960016e-30
1.6200025e-30
1.886643e-30
1.9191234e-31
1.8974099e-30
2.7200567e-31
2.7474263e-30
1.7321198e-30
4.3574951e-31
2.0601984e-31
8.7208745e-31
6.9031235e-31
6.1206537e-31
2.1935756e-30
3.0508761e-30
7.1083671e-31
3.179061e-31
5.1868963e-31
1.094599e-31
1.1787262e-30
1.9830658e-30
1.3383578e-30
2.4700591e-30
1.4872699e-30
1.9160322e-30
1.3586727e-31
8.4201917e-32
2.2379347e-31
2.1102932e-31
1.0445188e-31
9.042148e-32
7.1382525e-32
2.4363392e-31
1.7656241e-31
7.4114838e-32
3.7050501e-32
5.29929e-32
1.2713847e-31
5.0585388e-32
4.9678215e-32
8.9656752e-32
3.5024172e-32
3.3750429e-31
1.2302597e-31
8.627309e-32
4.7592606e-32
2.8087672e-32
5.6092205e-32
2.6013012e-32
5.6199982e-32
2.6411346e-32
4.1920288e-32
1.7783849e-32
1.4351716e-32
2.4071176e-31
5.8542128e-32
2.9833627e-32
3.0745047e-32
6.5157756e-31
4.1210747e-31
2.9133884e-31
9.1816271e-31
7.8573117e-31
2.7696847e-31
4.4140666e-31
6.7164079e-31
3.9987314e-31
1.2884143e-31
1.2227952e-30
1.5615929e-31
7.9958131e-31
1.4093935e-30
9.9800043e-31
7.8317655e-31
4.9911896e-31
1.2902596e-30
6.7411896e-31
2.1003561e-30
1.5686705e-30
1.3232521e-30
1.1924807e-30
2.8211233e-31
2.3355346e-30
3.210297e-31
1.8438284e-30
1.5291026e-30
1.6268849e-30
1.6286448e-30
3.7096949e-30
2.8880628e-31
2.4462378e-30
8.202589e-32
9.6402869e-31
1.2648137e-30
4.6665593e-31
5.7167912e-31
1.4867037e-31
7.2761169e-31
7.2913914e-31
7.0302696e-31
2.1700168e-30
7.3065503e-31
1.1930132e-30
4.5684847e-31
1.1866136e-31
7.4358119e-31
2.6426877e-31
1.2131641e-30
1.8004017e-30
8.7361863e-30
1.1948346e-30
1.027308e-30
5.7550741e-30
7.8129482e-32
1.0330686e-31
4.1264576e-31
1.7657576e-31
1.0801434e-31
8.9745232e-32
5.0042889e-32
1.0292814e-31
1.1176296e-31
8.2896151e-32
4.9318014e-32
3.2723796e-32
6.9061482e-32
3.4013844e-32
6.6661058e-32
1.0910375e-31
7.9610507e-32
2.8362676e-32
6.2870489e-32
3.8075269e-31
5.5242054e-32
1.8981152e-31
4.1729151e-32
6.2487815e-32
5.9395801e-33
7.0134426e-32
2.7349174e-32
5.4207068e-32
4.097175e-32
5.2262638e-32
5.6394393e-33
3.5861545e-32
3.5600869e-32
2.1976221e-32
2.4076451e-32
9.0575194e-32
9.2135454e-31
6.5695392e-31
8.0574738e-31
2.8584904e-31
1.7328939e-31
1.6605404e-31
7.4751682e-31
1.0962878e-30
1.5400055e-30
3.355615e-31
4.0746726e-31
4.3888707e-31
1.1463672e-30
7.1734957e-31
4.869275e-31
2.933899e-31
3.6851279e-31
1.5805002e-31
1.0674716e-30
1.7323896e-30
1.5207616e-30
9.4567295e-31
1.4781212e-30
4.6267498e-31
2.461747e-30
3.5636029e-31
2.4998496e-30
1.9994204e-30
1.7561588e-30
6.3195448e-31
1.2278378e-30
4.0653705e-31
2.7108562e-30
1.0782576e-31
6.7740827e-31
8.3843497e-31
1.2208432e-30
1.3029022e-30
3.0696425e-31
2.2120296e-30
1.1023128e-31
9.960681e-31
5.5715799e-32
6.2500592e-31
9.0469318e-31
1.7304101e-31
9.7451491e-32
5.3404582e-31
5.3595007e-32
7.5657676e-31
1.3178959e-30
1.1060272e-30
6.4308941e-31
1.0576639e-30
2.3472088e-30
2.5060514e-31
3.760506e-31
2.7244196e-31
1.1565752e-30
1.8065892e-31
1.7521329e-30
1.8718498e-30
8.4721069e-31
1.6567604e-30
3.3952576e-30
6.3682202e-30
5.5007874e-32
1.2169497e-31
5.8642692e-32
2.0465713e-31
1.1786087e-31
2.5676953e-31
5.1883991e-32
8.8402677e-32
2.6905658e-31
8.3461556e-32
5.5222317e-32
5.7523374e-32
1.0855384e-31
5.8425676e-32
1.2915721e-31
4.4763901e-32
7.2485264e-32
5.1322413e-32
1.5891243e-31
3.3478842e-32
4.3006201e-32
5.4106666e-32
5.8221331e-32
8.0093607e-32
1.7874128e-31
4.986688e-32
2.5482778e-32
1.1711211e-32
5.4223799e-32
7.792515e-32
9.2542435e-32
1.5700466e-32
1.08647e-32
1.1829233e-32
2.679943e-32
7.6611646e-32
2.8339632e-32
4.2677005e-32
6.224603e-32
1.022734e-30
1.3574437e-30
1.2601965e-30
2.913411e-31
3.5547959e-31
7.3452216e-31
2.4149829e-31
1.3934086e-31
1.1009471e-31
4.8938388e-31
2.7471653e-31
1.2128284e-30
1.0765207e-30
3.582404e-30
3.6755828e-31
6.5054385e-31
5.6543878e-31
6.6499921e-31
2.1239081e-30
8.1381771e-31
4.2715346e-31
2.4225771e-31
3.0311131e-31
3.9263227e-31
7.5443938e-32
1.2250504e-30
1.0939097e-30
4.2769077e-31
2.2867924e-30
5.3166546e-31
1.9888673e-30
3.477717e-31
1.5876149e-30
8.1933788e-32
5.4841712e-31
6.792264e-31
1.0378629e-30
3.6742125e-30
1.4044521e-31
8.2738879e-31
1.5647032e-31
5.9715933e-31
9.5360738e-32
6.025635e-31
7.8497385e-31
1.8785517e-30
6.2244819e-31
2.4081826e-30
4.3955071e-32
9.0001833e-31
4.5509608e-32
5.279456e-31
1.2622865e-30
2.1478937e-31
5.3182071e-31
1.0330729e-31
5.980309e-31
9.0760665e-32
1.6581388e-30
6.7944323e-31
6.5454047e-31
7.6055251e-31
2.231513e-30
6.2345257e-30
5.1739323e-31
2.7598679e-31
8.9896484e-31
2.1268557e-31
1.1778942e-30
1.3459434e-30
7.2763368e-31
1.7356446e-30
1.4904559e-30
5.3711257e-30
7.9601385e-30
1.4814083e-31
9.3885885e-32
2.3981796e-31
1.5922926e-31
3.0142454e-31
1.8933864e-32
6.1473985e-32
7.4757868e-32
9.3320937e-32
2.4835064e-31
5.3058885e-32
4.5595146e-32
1.7893498e-31
3.7658719e-32
4.12069e-32
9.2024149e-32
8.153729e-32
1.1148268e-31
7.9492839e-32
4.431125e-32
2.5695007e-32
4.5940799e-32
4.9513068e-32
9.4797664e-32
3.566779e-32
6.54823e-32
1.0147388e-31
3.4309795e-33
1.6401198e-32
1.9454934e-32
3.161011e-32
1.2607801e-31
3.9651896e-32
3.7674722e-32
1.5096768e-32
1.3542961e-32
2.5069594e-32
1.2417191e-32
3.7447874e-32
2.2433288e-32
1.6235477e-32
9.8000861e-33
7.5088726e-31
1.404686e-30
6.9023177e-31
2.3420432e-30
1.6803966e-30
2.5059836e-30
1.5973931e-31
3.5870131e-31
3.2442112e-31
4.7216396e-31
2.1361002e-31
6.2790521e-32
9.8159534e-32
2.6320746e-31
4.8145801e-31
5.0248897e-31
5.7169489e-31
8.6267865e-31
2.1938274e-30
2.021736e-30
2.9733755e-31
3.9428584e-31
2.7635044e-31
3.3554451e-31
1.9465057e-30
2.318153e-30
2.2151508e-31
1.1751739e-31
1.627423e-31
4.2470511e-31
1.7526731e-31
6.4589012e-31
1.0262822e-31
7.6133762e-32
1.2208868e-30
1.270954e-30
7.8368796e-31
5.3549015e-31
1.3735562e-30
1.6824767e-30
1.4456065e-31
1.4180928e-30
1.1788853e-31
1.5075169e-30
6.4594124e-32
3.7106016e-32
5.7420806e-31
4.2055142e-31
1.7486608e-30
1.9690345e-30
3.8510588e-31
2.1094371e-30
4.7163627e-32
4.985884e-31
6.5012779e-32
4.1880675e-31
1.5997611e-30
6.5094904e-31
1.6193899e-30
5.8098932e-31
1.1375019e-30
1.4947042e-31
4.6219538e-31
1.9929065e-31
4.7411107e-31
4.6541919e-30
4.1076888e-31
2.2227039e-31
7.6799276e-31
2.1442214e-31
1.3575441e-30
7.1381945e-31
6.1566354e-31
9.0171402e-31
2.1543559e-30
4.485361e-30
8.012687e-30
7.8371468e-31
1.5311076e-30
3.8935103e-31
1.6074285e-30
2.6759283e-31
1.9413306e-30
7.44053e-31
6.2520443e-31
7.9792192e-30
6.7322319e-30
7.0420643e-30
7.3870664e-32
7.034743e-32
1.611032e-31
2.723441e-31
1.1641496e-31
1.0196995e-31
3.6325212e-32
5.7872163e-32
9.5645853e-32
3.028737e-32
7.4941616e-32
8.9746981e-32
1.079504e-31
5.1081776e-32
1.9728225e-31
1.5335554e-31
2.4619411e-32
1.0273712e-31
4.7967899e-32
6.9351698e-32
9.4899228e-32
5.4317072e-32
7.0562435e-32
2.3809456e-32
2.4389964e-32
2.7638856e-32
1.1670893e-32
1.3595309e-31
7.1946573e-32
4.8911632e-32
2.4045876e-32
1.4987445e-32
6.3387159e-33
4.5664666e-32
2.4947731e-32
3.7119758e-32
1.7129647e-31
7.6385279e-32
1.7221216e-32
1.617157e-33
2.7287632e-32
4.5926038e-32
2.1839606e-32
6.0784512e-33
6.1091124e-33
8.9912465e-31
3.4546741e-31
3.4222267e-31
2.7627007e-30
8.0178669e-31
9.427741e-31
6.9840275e-31
1.4210284e-30
2.9121723e-30
1.96292e-30
4.8114538e-31
1.1250665e-31
2.6900804e-31
9.8653676e-32
1.1528723e-30
2.2206148e-31
9.3975004e-32
3.8258161e-32
2.1701997e-32
2.1330919e-31
1.4830455e-31
2.5754087e-31
6.9736956e-31
4.8268649e-31
3.9253201e-31
1.4567164e-30
1.3407013e-30
1.0709502e-30
1.1504393e-31
1.0497326e-30
8.5298346e-31
1.5133227e-31
7.3356765e-31
2.5303442e-30
1.2679242e-30
1.7582468e-31
3.2173294e-31
2.6580051e-32
2.0614267e-32
7.2492051e-31
2.2601445e-31
1.3000154e-30
1.0202571e-31
1.2318303e-30
4.6594122e-32
1.1864303e-30
7.147654e-31
4.5180946e-31
2.6654847e-31
1.5725688e-30
6.2213654e-31
2.2095941e-30
7.911224e-32
1.0538922e-30
8.745919e-32
7.8121613e-31
4.8814908e-32
4.9448909e-31
2.6234018e-30
6.1140244e-31
2.4829553e-30
1.3408976e-31
7.549771e-31
9.8872376e-32
3.4263675e-31
3.3470969e-31
4.9340446e-31
4.1971483e-30
7.7282097e-31
5.5334445e-31
9.0598578e-31
3.1877643e-31
7.8385663e-31
3.0028198e-31
3.7945492e-31
2.3851543e-30
9.3608635e-31
8.978074e-30
4.1608634e-31
7.1589794e-31
2.5362468e-31
1.6760686e-30
1.1780358e-31
9.7480531e-31
5.1837879e-31
5.2153016e-31
5.3463054e-30
5.8991013e-30
3.8595819e-30
1.1003253e-30
6.4838516e-31
1.9950677e-30
1.5869754e-30
6.2294969e-31
1.0272795e-30
9.9853086e-31
1.7065751e-30
1.8232899e-30
9.6845269e-30
5.8292363e-30
4.7049504e-30
3.5948969e-32
1.7902432e-31
1.0864258e-31
6.0628796e-32
2.2060265e-31
1.4101783e-31
1.7185302e-31
3.6535472e-32
4.6182483e-32
6.6440557e-32
4.6849153e-32
6.3870517e-32
3.1355632e-32
2.3412144e-31
1.3406229e-31
1.5992977e-31
1.0097275e-31
3.3164479e-32
2.9060375e-32
6.0911398e-32
2.763329e-32
3.1715496e-32
7.8497886e-32
9.0603032e-32
8.4372134e-32
1.5839787e-32
7.5194539e-32
9.8634083e-32
4.4863841e-32
1.1079474e-32
1.587655e-32
3.8195908e-33
2.2901106e-32
5.7609727e-33
3.1273895e-32
2.6231786e-32
2.2943618e-32
3.7772525e-32
2.1746574e-32
2.286839e-32
1.6424535e-32
3.0892759e-32
1.9041855e-32
7.1652992e-33
5.284421e-33
3.6899372e-32
1.4454526e-30
5.004924e-31
7.71144e-31
8.3696236e-32
4.1887041e-31
2.4404704e-30
1.3447565e-30
1.338621e-30
5.7135588e-31
7.8666757e-31
9.6783183e-31
1.5600822e-30
1.3071224e-30
5.3472151e-31
8.6684685e-31
5.551517e-31
1.0520081e-31
1.7128782e-31
2.1176684e-31
3.8435567e-31
2.4738623e-32
6.7146121e-32
1.4552692e-31
1.7446641e-31
9.3985965e-31
9.3634101e-31
1.536358e-30
2.627445e-31
2.6933057e-31
3.4975349e-31
1.361898e-30
2.674283e-30
1.0907762e-30
1.2866215e-30
5.2868571e-31
9.7323714e-31
4.3754622e-30
2.451803e-31
2.5360637e-32
6.3126845e-31
1.0187369e-30
1.5721593e-31
1.8208863e-30
9.6430402e-32
1.8936658e-30
8.0222218e-31
2.4541187e-30
8.66578e-31
3.2276949e-30
1.0942223e-31
1.2748779e-30
2.6104356e-31
8.102672e-31
4.7849757e-31
3.0762679e-30
4.7640817e-30
7.6457121e-31
2.6539632e-31
7.5901192e-31
2.4019548e-31
6.1226473e-31
4.4270672e-31
4.1597333e-31
4.1510679e-30
5.8449153e-31
7.0626546e-30
1.0467332e-30
1.1658167e-30
5.7961849e-31
6.1473812e-31
3.9863979e-31
5.4755951e-31
3.134302e-31
8.4139847e-30
1.7537566e-30
6.7589293e-31
4.8674688e-30
5.1728099e-31
5.1564156e-31
1.5352937e-30
9.4369618e-31
8.9645117e-32
2.4142663e-31
8.2449224e-31
1.0424196e-30
3.451125e-30
5.5982649e-30
3.0499104e-30
2.8270703e-30
8.4467366e-31
1.6713274e-30
2.7477762e-30
7.6918359e-31
1.3047891e-31
6.6504103e-31
8.9692781e-31
2.544576e-30
2.4630613e-30
9.7415418e-30
4.8415046e-30
3.1689446e-30
1.4058183e-31
7.7724918e-32
5.5916005e-32
7.4766512e-32
1.0094134e-31
4.7360313e-32
8.9714981e-32
1.7107828e-31
1.3917749e-31
2.4858578e-32
1.2154579e-31
5.349943e-32
9.1668397e-32
6.7606357e-32
7.5100737e-32
1.4395239e-32
1.2375574e-31
3.5821572e-32
3.7152468e-32
7.1662773e-32
5.8133508e-32
2.8196319e-31
9.0447447e-32
2.6479477e-32
3.1852309e-32
5.3095592e-32
3.5939068e-32
2.3387726e-32
2.0746249e-32
3.9272017e-32
7.8252968e-33
6.9396609e-33
1.1129467e-32
2.5146712e-32
7.0208092e-32
2.0863426e-32
4.6374748e-32
4.6481702e-32
1.0416663e-32
3.3279705e-32
2.8264505e-32
3.3390294e-32
1.2107497e-32
1.5204465e-32
1.2042243e-32
1.5655501e-31
1.5045456e-30
1.1754791e-30
1.0063259e-30
3.4418417e-31
1.0447844e-30
3.2722789e-31
1.4219031e-30
9.5967417e-31
7.0065678e-31
4.5395529e-31
1.0156839e-30
7.6376572e-31
4.468473e-31
1.8709878e-30
4.8916338e-31
1.63243e-30
5.9829381e-31
5.0757993e-31
1.2301592e-30
4.8990572e-31
2.2006569e-31
1.7946279e-31
1.4805809e-31
3.8640106e-31
1.3820209e-31
1.1648544e-31
1.3630923e-31
1.6055082e-30
3.9528784e-31
2.0753248e-30
7.000387e-31
6.9144816e-31
6.7549962e-31
1.2910156e-30
2.1258177e-30
2.1026075e-31
1.3560306e-31
1.9746941e-31
1.261712e-30
2.2398669e-30
1.7502347e-30
2.8511108e-30
2.6783203e-30
2.7635559e-30
1.9188234e-30
1.8447861e-30
6.7202517e-31
3.3606097e-31
2.9722233e-30
2.1707864e-30
5.5597768e-32
2.1885266e-31
1.0521515e-30
1.9363823e-30
3.5917484e-30
9.9085388e-31
3.5212655e-31
1.5732913e-30
5.9223597e-31
6.5862131e-31
7.0835212e-31
4.5296549e-31
3.1936163e-30
1.2933766e-30
4.8354867e-30
3.8719693e-31
6.3580254e-31
3.0162265e-31
5.6642031e-31
5.2916104e-31
5.8392236e-31
2.7552288e-31
5.6855864e-30
1.944036e-30
1.1216812e-30
3.4202632e-30
2.9903192e-30
8.7288286e-31
5.3368309e-31
6.1234909e-31
5.07863e-31
5.7297602e-31
4.3392381e-31
1.095289e-31
9.7474529e-30
3.9631047e-30
7.4564675e-31
3.4752308e-31
1.2198081e-31
5.0666347e-31
9.9190154e-31
1.1481025e-30
6.3482871e-31
8.9852849e-32
2.2163001e-31
6.6891191e-31
2.0628354e-30
2.4163056e-30
6.5429589e-30
2.1702773e-30
1.8263245e-30
1.3464654e-31
2.4506823e-30
1.3414943e-30
2.4404042e-30
9.3736395e-32
4.4791569e-31
7.2107771e-31
2.4749903e-30
1.6824395e-30
9.7643227e-31
3.1714138e-30
4.2426533e-30
5.6121402e-30
2.3710087e-30
3.3934532e-30
1.8793028e-31
1.0943866e-31
2.4126615e-31
4.0819879e-32
5.7123595e-32
8.1804043e-32
3.7360889e-31
1.9361003e-31
6.3012398e-32
6.5803223e-32
7.0780533e-32
7.3779588e-32
1.1220093e-31
7.847136e-32
7.7423747e-32
8.7751504e-32
3.3461796e-32
2.5930104e-32
1.2305612e-31
4.9522421e-32
3.2639257e-31
7.7288835e-32
1.1209997e-31
1.0964668e-31
1.3782003e-31
1.4288005e-31
9.5656992e-32
7.0364544e-32
1.1261911e-32
3.1357997e-32
1.4378568e-32
1.0129223e-31
2.9447331e-32
2.2784305e-32
1.992964e-32
2.0762222e-32
5.7730825e-32
1.8356051e-32
3.1375191e-32
3.0766675e-32
3.6543322e-32
2.4756485e-32
3.3367672e-32
4.5351606e-32
2.0067449e-32
1.4157714e-32
2.6326753e-32
1.8043895e-32
6.4287951e-32
6.30935e-32
1.146784e-30
9.0217158e-31
3.846671e-31
5.1692786e-31
3.8231678e-30
7.2924383e-31
4.3110604e-31
5.9677287e-31
9.7934271e-31
9.5538795e-31
2.2199198e-30
1.2380768e-30
6.0888897e-31
4.6646727e-31
7.4407316e-31
9.6991478e-32
9.3281892e-32
1.0422798e-31
1.045886e-31
1.1771344e-31
3.3479279e-31
2.5509196e-31
1.128664e-30
1.0589561e-30
2.1612545e-30
2.1066134e-30
1.0451239e-30
1.9330979e-30
2.0253395e-30
4.0328751e-31
2.4558344e-31
6.1747466e-32
2.2850055e-31
5.3446555e-31
2.4164552e-30
1.9569121e-30
1.8725779e-30
2.8959791e-30
1.0200185e-30
1.6473026e-30
3.3626663e-30
1.4711153e-31
1.6429488e-31
6.1519495e-31
2.0746082e-30
2.6546958e-30
3.8256982e-30
6.1197551e-31
7.3307361e-31
1.4070091e-30
8.3949235e-31
3.1036519e-31
4.1809825e-30
2.535574e-30
4.9626306e-31
2.1095141e-30
3.808031e-31
7.052858e-31
4.0145641e-31
5.5106277e-31
5.2577998e-31
5.0372385e-31
4.649033e-31
1.1495208e-31
5.2071425e-30
2.3222837e-30
6.212261e-31
2.4079417e-31
1.611525e-30
9.4931846e-31
6.3430864e-31
3.3530812e-31
5.2666781e-31
5.456521e-31
4.7257019e-30
3.0623277e-30
2.9623226e-30
1.4677374e-31
1.0951129e-30
8.3538379e-31
1.3359058e-30
8.2911809e-32
1.5319243e-31
4.8087625e-31
9.7220923e-31
1.125794e-30
8.373248e-31
1.9955504e-30
2.2143681e-30
2.5930931e-30
1.1083996e-30
1.9916219e-30
1.983727e-31
1.6489681e-31
3.3082377e-31
1.7490268e-30
1.5376921e-30
2.8963294e-30
3.5779572e-30
2.5621576e-30
3.2189263e-30
1.2147794e-31
1.598977e-31
1.6235264e-31
7.8997569e-32
5.7935187e-32
2.089529e-31
1.6010542e-31
2.1011316e-31
2.5272979e-31
1.0792883e-31
2.3144386e-31
7.106684e-32
1.2397944e-31
9.94334e-32
1.0764745e-31
8.6874177e-32
1.1134777e-31
8.1768841e-32
1.3746237e-31
9.7985899e-32
1.4130295e-31
1.4281222e-31
4.3648569e-32
9.3813507e-32
1.7415556e-31
1.7295088e-31
1.4454767e-31
2.2094636e-31
7.9769284e-32
5.7123317e-32
2.8457024e-32
2.8033196e-32
2.7498981e-32
6.1285397e-32
7.4866976e-32
1.5091722e-32
2.6436659e-32
2.7106353e-32
1.1408758e-32
2.101914e-32
1.4760607e-32
7.5719477e-33
6.6754088e-32
2.8944399e-32
2.7043682e-32
1.7889231e-32
1.2659391e-31
5.5813085e-32
5.0294436e-32
9.4791953e-31
1.0792631e-30
6.2894821e-31
3.4645689e-31
3.2024857e-31
9.8474059e-32
1.791861e-30
7.0739083e-31
6.8834786e-31
8.677787e-31
4.079512e-31
7.1092303e-31
9.2920454e-31
5.823457e-31
3.4247142e-31
2.269344e-30
2.2818912e-30
6.3733558e-31
1.206711e-30
6.3644862e-31
9.662904e-32
1.1793732e-31
1.5605116e-31
1.2154557e-31
1.2519193e-31
5.4094866e-31
1.2108722e-30
5.0534518e-31
5.3751214e-31
1.6068411e-30
1.5475386e-30
2.2477595e-30
7.6837918e-31
8.445987e-31
8.8652052e-31
5.7228255e-31
1.0378738e-30
3.5803797e-31
1.2381219e-31
2.0132969e-30
1.7946492e-30
1.7045298e-30
1.8107551e-30
1.4500235e-31
2.9684321e-31
4.6558871e-31
2.0851334e-30
2.530746e-30
1.9498141e-30
3.2286826e-30
2.3909067e-30
2.0009973e-30
6.5076952e-31
1.5184273e-31
2.7632922e-30
1.9960892e-30
1.6769678e-30
1.0404998e-30
7.8491221e-31
5.2895675e-31
3.3741309e-31
1.1466264e-30
3.4454176e-31
2.0450214e-30
1.1052759e-30
1.9955114e-30
1.7239727e-30
1.3385946e-30
6.7793357e-31
3.3999475e-31
4.1496559e-31
3.1436738e-31
1.9560383e-30
2.3131843e-30
2.1985082e-31
1.0425857e-31
3.7580945e-31
3.1671845e-31
9.3479655e-31
1.7597605e-30
1.99621e-30
1.0631279e-30
1.3626153e-30
1.0171686e-30
2.2436572e-30
2.4986783e-31
6.2658694e-31
1.0969647e-30
1.4995314e-30
2.2679713e-30
2.9415737e-30
1.077013e-31
1.4458559e-30
1.9156969e-30
1.4414278e-31
1.7665701e-31
1.7352724e-31
3.2463522e-31
1.8160412e-31
1.154498e-31
2.8585309e-31
3.389411e-31
3.3326456e-31
9.5963148e-32
9.0641092e-32
6.2760129e-32
4.2884092e-32
9.1979092e-32
1.1789059e-31
5.1933329e-32
2.4349588e-31
1.3879471e-31
7.6137157e-32
3.8513983e-32
1.7140181e-31
1.6480195e-31
3.8756394e-32
6.7461564e-32
7.1150484e-32
1.9294348e-31
4.5691103e-32
9.7448465e-32
6.5427052e-32
1.3271559e-31
2.2096466e-32
7.5930603e-33
1.4402774e-32
1.3743539e-32
2.012598e-32
4.3297569e-32
3.1158457e-32
7.8975077e-33
1.4914914e-32
8.1462145e-32
1.7112628e-32
4.5099787e-31
2.4418226e-32
7.2540695e-32
4.0765969e-31
5.3601461e-31
4.0649672e-31
6.6528886e-31
1.4146286e-30
7.1178784e-31
2.574241e-31
1.1074164e-31
4.7314303e-31
3.5315512e-31
6.1553897e-32
6.7757073e-32
5.0085486e-32
9.0048072e-32
7.0885421e-31
1.8743269e-30
6.7841719e-31
6.0666469e-31
6.6513287e-31
7.3089502e-31
2.4838059e-30
2.6109618e-30
6.7653161e-31
1.1285491e-30
4.0577326e-31
1.0972541e-30
1.351719e-30
8.2098513e-31
3.6415119e-31
9.0784958e-31
6.4747366e-31
1.8881353e-30
2.0392812e-30
2.2047019e-30
2.718817e-31
1.8562957e-31
1.393611e-31
1.8262509e-31
1.1432104e-31
1.5443737e-30
1.5415759e-30
1.4617407e-30
1.6271896e-30
1.235114e-30
1.1151918e-30
6.5694287e-31
1.2773135e-31
1.8697305e-31
3.1137052e-31
1.0874773e-30
2.156976e-30
2.1600796e-30
1.0750364e-30
1.185454e-30
1.3577291e-30
1.3010413e-30
8.9864599e-31
2.9425482e-31
2.1061502e-31
1.1106668e-30
1.0329575e-30
2.3117566e-30
1.1052646e-30
1.2957753e-30
5.2480832e-31
3.1540963e-31
5.24342e-31
3.8164453e-31
8.422335e-31
9.8808881e-31
2.417083e-30
8.76896e-31
1.1073882e-30
4.0447843e-31
4.3426726e-31
3.0536357e-31
1.3155395e-31
2.2518544e-31
2.1478371e-30
2.74985e-31
4.2511281e-31
2.6499836e-31
5.7736752e-31
1.3312923e-30
1.7578507e-30
1.1583367e-30
6.553767e-31
1.0266651e-30
1.0820331e-30
1.8748379e-30
2.0801896e-31
3.6973181e-32
3.4509143e-31
1.1893358e-30
1.3649449e-30
2.1537354e-30
1.1134431e-31
1.2640583e-31
1.2926475e-31
1.6665586e-31
1.6969166e-30
4.0518818e-30
3.6224689e-31
1.016413e-31
1.7906587e-31
7.8587368e-32
3.4917628e-31
5.8671544e-31
4.8147521e-31
5.7283695e-32
3.1417613e-31
6.8222718e-31
4.2771864e-31
9.2274022e-32
1.3821013e-31
6.6114598e-31
1.0613784e-31
1.7302125e-31
4.1889323e-32
2.1321843e-31
4.0378663e-32
2.5189759e-31
2.2751219e-31
9.8405397e-32
4.8818765e-32
3.6943384e-31
5.2446192e-32
1.615222e-31
6.5306767e-32
1.3975019e-31
2.7797676e-31
1.0481525e-32
1.7424721e-32
1.105045e-32
4.1732178e-32
4.4229931e-32
2.8173848e-32
2.3006166e-32
4.1162858e-31
4.7469091e-32
2.2687839e-31
2.8986192e-32
5.2756601e-32
2.6144134e-31
2.2749034e-32
3.2227563e-31
4.9320887e-31
6.997892e-31
4.9186789e-31
2.0346804e-31
3.9316753e-31
4.9006005e-31
6.0308921e-31
1.1293366e-30
1.0833538e-30
2.6665696e-31
6.8176017e-32
3.2717518e-31
3.8872924e-31
8.6127821e-32
4.8111552e-32
1.0982895e-31
1.2157415e-30
5.8257127e-31
1.831219e-30
6.2695882e-31
8.8025888e-31
4.310733e-31
7.2753799e-31
1.1920636e-30
1.836919e-30
6.2064469e-31
2.9289716e-31
9.3896118e-31
1.9245787e-31
5.1495567e-31
8.0759228e-31
6.9591329e-31
9.9837854e-31
4.6113491e-31
6.6442726e-31
7.8333455e-31
1.4667309e-30
1.988169e-30
1.1689885e-31
6.8679294e-32
7.461253e-32
9.9297863e-32
1.4914104e-30
2.086051e-30
9.9174482e-31
1.232927e-30
1.01591e-30
8.6227756e-31
1.0124212e-30
1.0396455e-30
3.1194779e-31
3.4340201e-31
1.5400061e-30
1.8387557e-30
1.2378918e-30
9.6176216e-31
1.2211242e-30
1.1082515e-30
1.048717e-30
6.3086162e-31
1.3469753e-30
3.1780907e-30
4.8448809e-31
7.3929704e-31
3.0195797e-31
5.0007595e-31
2.5169059e-31
2.1534634e-31
1.2004244e-30
8.8430575e-31
2.3546661e-30
7.3559939e-31
3.7867638e-31
5.905709e-31
4.8328674e-31
7.0729381e-31
2.7068095e-31
6.6153049e-31
3.067207e-31
5.8243248e-31
2.3115781e-31
5.8389325e-31
2.4468737e-31
3.7780912e-31
7.0622752e-31
1.3317994e-30
1.1495815e-30
7.6409444e-31
9.1886933e-31
8.5503261e-31
1.3029587e-30
3.065305e-30
5.7452787e-31
6.3168719e-31
6.9519213e-31
1.0775828e-30
1.3900556e-30
1.2651852e-31
1.5274599e-31
1.6718311e-31
1.6470451e-31
1.1509194e-30
2.4144565e-30
2.3099502e-30
2.2697606e-31
1.6205584e-31
3.1816698e-31
6.0474542e-32
3.7193756e-31
4.8765472e-31
1.0808561e-31
6.2119097e-31
3.0872824e-31
2.5107745e-31
9.5141989e-32
3.2125856e-31
5.1446182e-31
5.768875e-32
9.1588709e-32
9.6222458e-32
5.7041128e-32
1.9255627e-31
1.0547127e-31
7.0121731e-32
5.0362683e-31
2.6769601e-31
2.0332542e-31
1.7504334e-31
6.6103556e-32
1.4098776e-31
6.5345269e-32
7.6143221e-33
5.8783675e-33
4.8987856e-32
9.9042761e-32
2.1187045e-33
3.7119012e-32
1.1258259e-32
7.8433423e-32
2.6250964e-32
4.718199e-32
1.4428432e-31
1.0002346e-31
3.7788066e-32
2.3661377e-32
3.1783485e-33
7.5590746e-32
2.1939639e-31
3.7565668e-31
2.321269e-31
2.9245557e-32
3.3533606e-31
1.5537366e-30
1.2499016e-30
1.2418696e-30
5.7039025e-31
5.3173864e-31
5.0014359e-31
1.0819953e-30
1.716491e-30
3.6875884e-31
5.1509019e-31
2.6373877e-31
5.5709913e-31
3.6463575e-31
4.4887453e-31
4.9660454e-31
1.5002226e-31
1.1348337e-30
9.2534834e-31
5.8673733e-31
7.3511248e-31
1.1073744e-30
6.9236287e-31
2.6784951e-31
6.398695e-31
6.4978525e-31
1.0924165e-30
2.0942029e-31
2.7711889e-31
2.1396023e-30
6.0733063e-31
4.8488936e-31
2.7708211e-31
2.737873e-31
6.5471847e-31
5.9984095e-31
7.4574743e-31
6.1814517e-31
6.1106824e-31
5.7754462e-31
5.5522234e-31
5.7995718e-31
8.9163924e-31
1.4358889e-30
1.2833239e-30
5.6140417e-31
1.5541828e-30
1.0829434e-30
2.5315102e-30
2.5092456e-30
1.2062387e-30
3.251304e-30
1.2004885e-30
3.1818094e-31
5.2086928e-31
1.4800523e-30
1.0724892e-30
9.9477513e-31
9.366351e-31
1.1479469e-30
7.918149e-31
5.3550714e-30
3.8979222e-31
3.5702577e-31
3.6642352e-31
3.8116458e-31
4.471312e-31
3.3314034e-31
2.3586745e-31
1.5916621e-30
4.346512e-31
1.5670203e-30
6.2176867e-31
7.1593495e-31
6.616362e-31
1.1166883e-30
4.2028286e-31
8.1317756e-31
2.5532795e-30
6.4045007e-31
2.4875621e-31
4.5216743e-31
3.3620699e-30
5.4968189e-31
5.0172464e-31
7.1328286e-31
4.9307102e-31
7.6225211e-31
1.0730715e-30
7.5923522e-31
6.2796093e-31
7.2246116e-31
8.4909517e-31
1.6768437e-30
2.3634869e-30
5.1942301e-31
4.8077527e-31
9.1270058e-31
8.0023567e-31
1.1591559e-30
1.3607116e-30
1.5178244e-31
6.856861e-31
7.5375327e-31
4.5862089e-31
2.4480313e-30
1.9458939e-30
1.5831965e-30
2.4106667e-31
2.4310242e-31
3.6327534e-31
3.5979729e-31
2.8867828e-31
2.3771419e-31
2.3450583e-31
2.3722402e-31
3.1598655e-31
6.51659e-31
3.8050438e-32
8.076461e-32
9.7585505e-32
6.6746641e-32
3.7335815e-32
1.2030662e-31
1.6713653e-31
2.6287008e-31
2.1045367e-31
1.6457879e-31
1.4466798e-31
4.1672433e-32
1.6087244e-31
1.0808999e-31
1.1073485e-32
9.8491468e-33
1.1041281e-32
6.8366872e-32
4.507124e-32
4.5539719e-33
1.6862052e-31
2.5761271e-32
4.6542572e-32
1.5343728e-31
2.0252633e-31
7.9278973e-31
3.1264263e-32
2.9260222e-32
2.6904321e-32
3.3686831e-33
4.6206598e-33
6.4771668e-32
6.0000326e-32
4.5481224e-31
3.7134124e-31
1.1922922e-30
1.1367129e-30
6.0209553e-31
5.6060733e-31
3.08218e-31
1.8026413e-31
2.4988204e-31
1.6029429e-30
7.6104735e-31
1.4164413e-30
8.4833196e-31
1.6198989e-30
1.624628e-30
3.4720318e-31
1.3822199e-30
7.2702589e-31
5.1853159e-31
3.1884337e-31
4.6396752e-31
3.2446816e-31
8.0018386e-31
2.8530498e-32
1.5086594e-31
2.7055691e-32
1.0778156e-30
3.2397234e-31
4.5002424e-31
3.7750583e-31
3.1912293e-31
1.3913191e-30
2.4533561e-31
7.9469901e-31
8.9718081e-31
5.41934e-31
1.3180205e-31
7.1757617e-31
1.4025456e-30
9.7885014e-31
7.3301126e-31
6.0873986e-31
6.4194833e-31
1.0411421e-30
5.8870014e-31
4.5566388e-31
4.2732089e-31
5.3474717e-31
1.0694279e-30
6.9765227e-31
1.5062541e-30
1.7620584e-30
1.5937796e-30
1.3189587e-30
3.6389228e-30
2.9907428e-30
1.6159556e-30
1.1693061e-30
3.2929218e-30
1.160912e-30
1.0101917e-30
6.2498611e-31
9.9389368e-31
5.2452657e-30
4.1381165e-31
6.878314e-31
4.3555737e-31
1.1534019e-30
5.4239565e-31
3.413688e-31
1.1780419e-30
4.8642084e-31
1.4336897e-30
5.9423811e-31
1.8329872e-30
1.9231777e-31
5.4921846e-31
1.4614394e-30
5.4315556e-31
5.8426504e-31
4.0962226e-30
6.6158533e-31
3.1807815e-30
2.6270149e-31
3.6518798e-31
1.8495323e-31
5.1855672e-31
1.065978e-29
3.691884e-31
5.4356644e-31
5.5548005e-31
4.7809718e-31
6.1363229e-31
6.8865929e-31
7.7058092e-31
4.8379162e-31
6.3059723e-31
3.4148488e-31
1.5239556e-30
1.7796272e-30
1.729364e-30
6.6426359e-31
3.3021949e-31