/*--------------------------------*- C++ -*----------------------------------*\
  =========                 |
  \\      /  F ield         | OpenFOAM: The Open Source CFD Toolbox
   \\    /   O peration     | Website:  https://openfoam.org
    \\  /    A nd           | Version:  7
     \\/     M anipulation  |
\*---------------------------------------------------------------------------*/
FoamFile
{
    version     2.0;
    format      ascii;
    class       surfaceScalarField;
    location    "5000";
    object      phi;
}
// * * * * * * * * * * * * * * * * * * * * * * * * * * * * * * * * * * * * * //

dimensions      [0 3 -1 0 0 0 0];

internalField   nonuniform List<scalar> 
100795
(
-4.3762694e+25
4.1613626e+24
1.3936754e+25
-5.2087992e+25
3.9208636e+24
7.4129844e+24
-2.7539452e+25
3.6655782e+24
9.5404962e+24
-5.2860237e+25
2.1500776e+24
6.0861023e+24
-4.9731253e+25
-6.2625033e+24
-5.0500876e+24
-3.1938722e+25
4.2730198e+24
3.5774181e+24
-3.8789023e+25
-3.3566918e+24
-4.0451623e+24
-2.8826044e+25
4.3918979e+24
1.2066659e+25
-1.7079502e+25
2.5133754e+24
5.2604045e+24
-3.5360012e+25
5.5713086e+24
-2.5289688e+23
-3.893492e+25
-2.6226415e+25
-2.1447071e+25
-3.519799e+25
-2.6940104e+24
-5.9113387e+24
-3.1574945e+25
-7.6388657e+24
-8.5863923e+24
-2.6083053e+25
6.08433e+23
-8.9359809e+23
-1.5615647e+25
7.1598152e+23
-1.959107e+24
-3.4138017e+25
1.8685428e+23
-6.2049655e+24
-1.5306508e+26
-6.2958044e+24
5.7417309e+23
-2.167327e+25
1.7874707e+24
4.6688953e+24
-2.368196e+25
1.2698592e+24
2.2384309e+24
-7.5020208e+25
4.5199739e+24
2.7534221e+24
-3.8132106e+25
-2.045031e+25
-2.2371934e+25
-3.5201918e+25
-2.2856251e+25
-2.4718441e+25
-2.4366774e+25
-1.0777452e+25
-1.1073534e+25
-2.5034387e+25
-1.105053e+24
-8.8465156e+24
-1.9254644e+25
-3.5723173e+24
-6.3388876e+24
-3.188399e+25
-5.4474709e+24
-8.9879527e+24
-1.4217166e+26
-3.1410539e+25
-4.5409599e+24
-1.7773359e+25
-2.2059067e+24
-1.8716197e+24
-2.2036858e+25
2.2510268e+23
-3.6424556e+24
-7.6030924e+25
3.2178565e+24
-5.9649636e+24
-7.2638983e+25
-6.848404e+24
1.14428e+24
-6.5701804e+25
9.519708e+24
-5.31711e+24
-2.4322627e+25
1.5464562e+24
-3.0884501e+24
-1.0515045e+26
-6.6252379e+24
-9.5932872e+23
9.23097e+24
-1.4375838e+25
-1.7759499e+25
-1.7984978e+25
-3.5506214e+25
-2.6332714e+25
-3.503662e+25
-1.7955717e+25
-2.1914533e+25
-3.1061664e+25
-1.4081172e+25
-1.2118239e+25
-4.0634877e+25
-9.8600428e+24
-2.0885168e+25
-2.8443031e+25
-1.3551073e+25
-1.2691312e+25
-2.013538e+25
-1.1206715e+25
-8.1084985e+24
-1.1971045e+26
-4.5132914e+25
-6.2588537e+24
-1.8414874e+25
-2.8135077e+24
-8.9638002e+24
-2.2720744e+25
-3.2849582e+24
-7.8175066e+24
-6.6281895e+25
-3.524124e+24
-1.6576864e+25
-9.4134779e+25
-1.086136e+25
-1.2592736e+24
-6.8493079e+25
-2.6142696e+24
-4.5855236e+24
-1.880707e+25
1.0425765e+24
-8.2046438e+24
-7.9728624e+25
-1.438483e+25
-1.146158e+25
2.4290619e+25
-9.314819e+24
-1.5201675e+25
-6.1800593e+25
6.9313332e+24
3.1241203e+24
-7.7352392e+25
2.2476018e+25
-5.892021e+24
-5.9672617e+25
8.0914796e+24
-9.8347455e+23
9.5477122e+23
4.7179205e+25
-4.0226777e+24
-2.6167499e+25
-1.4892156e+24
-1.95366e+25
2.0143779e+24
1.5053583e+25
2.0783033e+24
-1.8426226e+25
-3.5169598e+25
-2.2146507e+25
-2.5430875e+25
-4.9544382e+25
-4.774085e+25
-2.0369233e+25
-3.6957367e+25
-1.4620498e+25
-4.5139863e+25
-9.8791559e+24
-2.1986437e+25
-3.6927704e+25
-1.532477e+25
-1.2186275e+25
-2.2958994e+25
-1.4538609e+25
-8.5633302e+24
-1.210203e+26
-1.7009022e+25
-6.1442284e+25
-3.3310856e+25
-1.1403658e+25
-1.2510163e+25
-2.4371579e+25
-1.1537174e+25
-8.7914068e+24
-1.6593795e+25
-1.3501766e+25
-7.1706959e+24
-1.0961426e+26
-2.8826044e+25
-3.640891e+24
-6.6917164e+25
-1.87581e+25
-3.5587854e+24
-1.5425688e+25
6.5648081e+23
-1.6286618e+25
-5.48052e+25
-1.679898e+25
-1.9466063e+25
1.2902349e+25
8.7848209e+24
-1.2041676e+25
-5.8198069e+25
-1.3990223e+25
5.6891489e+23
-7.9033032e+25
1.5095324e+24
-3.7023891e+24
-5.7824558e+25
-1.0599028e+25
-3.8678634e+24
-3.5517986e+25
2.8098698e+25
-1.4215414e+25
-3.6348313e+25
7.2069404e+24
-1.7802509e+25
-1.1019958e+25
1.6953212e+25
-6.1615127e+24
-6.1828246e+25
-5.442011e+25
-1.0808138e+25
-1.0647908e+26
3.1626531e+25
-2.6145817e+24
-3.4092065e+25
4.7237623e+25
-1.9947593e+24
-1.9689257e+25
1.0126054e+25
-4.2153721e+24
-3.4948343e+25
-3.9042177e+24
-2.2639201e+25
-3.9867972e+25
3.6226031e+24
-6.526366e+24
-1.3564618e+25
5.9497374e+24
3.717923e+24
-7.011536e+24
-5.0453549e+25
-2.1526716e+25
-2.3437892e+25
-5.7278831e+25
-3.4688993e+25
-2.3228254e+25
-4.2583194e+25
-1.3632076e+25
1.2839154e+25
-2.5211328e+25
-2.9783399e+25
-5.6562677e+25
-4.3670704e+25
-3.2815547e+25
-2.0138796e+25
-2.551414e+25
-9.8987287e+24
-1.3768961e+26
-1.6737256e+25
-8.6086926e+25
-4.5179225e+25
-1.2567241e+25
-1.2875657e+25
-2.7830887e+25
-1.4263876e+25
-9.0017833e+24
-1.7215987e+25
-1.6361422e+25
-7.5484257e+24
-7.7586667e+25
-1.3710768e+25
-5.4947217e+25
-9.8408939e+25
-1.1847263e+25
-3.3579834e+25
-2.8629191e+25
-1.0065969e+25
-9.6677009e+24
-1.9351976e+25
-1.3550472e+25
-7.7400933e+24
-1.3630392e+25
-1.1801249e+25
-5.815354e+24
-5.5859542e+25
-2.7779188e+25
-2.7289249e+24
-7.4994203e+25
-2.2216472e+25
-4.221371e+24
-4.7778258e+25
-3.0701673e+25
-5.668705e+24
-5.9301245e+25
1.6496125e+25
-2.5798481e+25
-3.6400579e+25
7.0461792e+24
-1.7675105e+25
-1.4307382e+25
9.4969946e+24
-9.9910147e+24
1.379776e+25
-5.9147549e+25
-2.3700716e+24
-1.0304332e+26
2.1538865e+24
-3.5112061e+24
-4.088678e+25
-7.4479996e+24
-5.87508e+22
-2.241795e+25
7.3957919e+24
-5.5362189e+24
-3.4202639e+25
1.3972793e+25
-2.1726976e+25
-2.7977533e+25
-1.4109102e+23
-1.2598594e+25
-1.8998177e+25
1.3005954e+25
-7.141236e+23
-1.7687004e+26
1.6241695e+25
-4.4773129e+25
-2.4271561e+26
1.2891473e+25
-1.2082311e+25
-1.2057763e+25
-1.4330784e+25
-5.9057645e+24
-2.4646516e+25
1.2853752e+25
-4.8652186e+24
-1.9309267e+25
5.8912306e+24
-4.3119135e+24
-8.2505071e+24
5.7382206e+24
-1.1003993e+25
9.6220267e+24
-4.3260624e+24
-2.3090701e+24
-4.7534375e+24
1.0105256e+25
6.2738492e+24
-1.227364e+26
-1.5585674e+25
-6.2238538e+25
-4.8258204e+24
-7.6254724e+25
-5.2112018e+25
-1.7793009e+25
-5.6630408e+25
-1.5510833e+25
2.438785e+24
-3.9403708e+25
-4.387474e+25
-5.6565892e+25
-4.8802377e+25
-2.8466757e+25
-2.1444006e+25
-2.9817255e+25
-1.0340748e+25
-3.4704678e+25
-3.6239001e+25
-3.0974263e+25
8.821773e+24
-2.1856389e+25
-2.5168378e+25
-6.292923e+25
-2.8562192e+25
-2.5170018e+25
-2.0165846e+25
-1.7476996e+25
-8.7138638e+24
-8.6691589e+25
-1.6733256e+25
-6.5893291e+25
-1.369864e+26
-1.4352037e+25
-4.5724812e+25
-3.3315803e+25
-1.1967216e+25
-1.0485932e+25
-1.9960608e+25
-1.634638e+25
-8.4080352e+24
-1.4227141e+25
-1.3799441e+25
-6.4661432e+24
-9.1427089e+25
-1.4203e+25
-3.4664484e+25
-9.0422298e+25
-1.1907342e+25
-4.4586785e+25
-8.6973693e+25
-8.0376019e+24
-2.6202271e+25
-2.2514049e+25
-1.2581611e+25
-9.2489138e+24
-1.5480239e+25
-1.2081125e+25
-6.6037305e+24
-9.1152781e+24
-8.3938258e+24
-4.3832769e+24
8.9720023e+25
-7.7570883e+25
-9.6343357e+24
-1.0009487e+26
-2.0884106e+25
-7.0097293e+24
-4.2830758e+25
-3.1836637e+25
-1.1425098e+24
-2.2146378e+25
-7.9895635e+24
-8.6770867e+24
-4.1118825e+25
1.3070522e+25
-2.4906557e+25
-1.6656794e+25
-3.859569e+24
-1.5639139e+25
-2.0342569e+25
7.1841536e+24
-5.5609478e+24
-1.7535231e+26
8.2735457e+24
-5.4965994e+25
-2.1206993e+26
-1.4505001e+25
-1.6356796e+25
-1.1341643e+25
-1.1193188e+25
-4.8214634e+23
-1.1502211e+25
-3.0935163e+24
-2.7142232e+24
-3.0633029e+25
7.6601791e+24
-4.4600952e+24
-1.7216228e+25
5.9739549e+24
-1.8876264e+25
1.5833318e+25
-8.2216033e+23
-4.9818455e+24
-2.1396687e+25
2.2748471e+25
7.7793379e+24
-2.7826213e+26
-8.2609408e+24
-4.8977374e+24
-1.318554e+26
2.9369896e+25
-6.850074e+25
-3.1075136e+25
3.9918202e+25
-4.0643065e+25
-4.5511735e+25
1.0666439e+25
-4.5427928e+24
1.5443734e+25
-1.028389e+25
-5.3213354e+24
-8.7005787e+24
-1.8163181e+25
7.119466e+22
1.9309077e+25
-3.3984102e+25
-4.0307274e+24
-6.1274671e+24
1.1982379e+25
1.6865437e+24
-2.6954877e+24
6.6556662e+24
3.5338993e+24
-1.6445397e+26
1.446528e+26
-1.8041043e+25
-9.3270902e+25
-2.357939e+25
-8.5522037e+25
-1.5367479e+26
-1.8697014e+25
-4.464625e+25
7.3259782e+24
-6.0413798e+25
-6.1846676e+25
-4.3339753e+25
-6.624298e+25
-5.5725623e+25
-1.9014763e+25
-3.9357035e+25
-1.1898977e+25
-3.9214483e+25
-4.1880344e+25
-4.1815556e+25
6.1053682e+24
-1.8524937e+25
-3.9289653e+25
-6.5905843e+25
-3.1367715e+25
-2.3940073e+25
-2.0799803e+25
-2.0004013e+25
-9.6636409e+24
-2.2282538e+25
-2.9746724e+25
-3.1010269e+25
-4.8582393e+25
-2.5332822e+25
-3.0277772e+25
1.1958272e+25
-2.878558e+25
-1.3373032e+25
-6.1971665e+25
-1.6521487e+25
-2.3371014e+25
-1.6009764e+25
-1.4730399e+25
-7.5746995e+24
-9.37496e+25
-1.6874826e+25
-4.0367258e+25
-1.0373746e+26
-1.5163152e+25
-5.1767248e+25
-1.0321471e+26
-1.1218161e+25
-3.0233229e+25
-2.3672465e+25
-1.5458095e+25
-1.0215987e+25
-1.5988446e+25
-1.4173979e+25
-7.5262244e+24
-9.4474146e+24
-9.1708714e+24
-5.1036234e+24
-4.6466969e+25
-1.2893735e+25
-2.4474996e+25
-9.5358017e+25
-1.6321586e+25
-2.7100736e+25
-8.0570558e+25
-9.5013227e+24
-3.8681032e+25
-7.0448007e+25
-8.955223e+24
-2.6219571e+25
-1.7043085e+25
-1.2351379e+25
-8.1106412e+24
-1.0114079e+25
-9.057878e+24
-5.0596714e+24
-5.1614495e+24
-5.4917879e+24
-4.2660809e+24
-1.6975837e+26
3.0651945e+24
-7.3159381e+25
-1.7871622e+26
-3.9065613e+25
-2.4806654e+25
-3.3633041e+25
-1.4282195e+25
-2.272923e+24
-3.079482e+24
-1.2006833e+25
-5.5482752e+24
-3.9168625e+25
-1.4318459e+25
-4.7145721e+24
-2.7522898e+25
4.7144019e+24
-2.3173763e+25
1.4278111e+25
1.4094809e+24
-8.3094603e+24
-3.4339894e+25
2.1421642e+25
2.9770259e+23
-2.5272224e+26
-2.4329543e+25
-7.441796e+24
-1.4097996e+26
2.6148944e+25
-6.6016318e+25
-3.7817059e+25
1.6161739e+25
-3.6970001e+25
-3.6540432e+25
-9.7525676e+24
-2.7945658e+24
3.9778741e+25
-1.3761247e+25
-5.6283228e+24
9.9352999e+24
-1.2502312e+25
8.6073326e+22
1.4962537e+25
-6.8317451e+24
-8.5201331e+24
-1.4056683e+25
2.2443504e+25
3.2546483e+24
-1.3609863e+24
4.6859844e+24
5.4771318e+24
-3.6403199e+26
1.071711e+25
-5.6626929e+25
-1.5390435e+26
3.0719247e+25
-3.6257555e+25
1.2121582e+25
1.6524906e+25
5.4667373e+24
-3.0586112e+26
1.5473921e+25
-1.245727e+25
6.0240822e+24
-2.1921456e+25
-6.6845014e+24
1.0374975e+25
-3.4023835e+25
1.0791876e+24
-3.0439199e+25
-7.5393448e+24
-6.4132567e+24
4.1081441e+24
7.9407763e+24
7.7312646e+23
9.4982588e+24
3.2111827e+24
2.0999636e+24
1.7227214e+25
2.6252853e+24
2.816931e+23
-1.4805833e+26
-1.6896472e+26
-9.863205e+24
-1.2794988e+26
-3.273989e+25
1.0832795e+26
-9.9993996e+25
-1.3401168e+26
-5.602237e+25
-7.1038624e+25
-2.1709483e+25
-5.8213905e+25
-1.1975299e+26
-2.3368468e+25
-6.4835187e+25
-1.2651409e+26
-1.7477275e+25
-2.2884652e+25
-3.5861453e+25
-5.590153e+25
-7.4108136e+25
1.4889915e+25
-3.9990632e+25
-5.8163795e+25
-7.460842e+25
-4.3356736e+25
-4.302345e+25
-2.0464876e+25
-2.4667927e+25
-1.1238634e+25
-1.4432032e+25
-3.2166128e+25
-3.6089822e+25
-5.1886317e+25
-2.8248688e+25
-4.1630111e+25
2.317729e+25
-1.5305637e+25
-2.0926726e+25
-6.2988659e+25
-1.8087962e+25
-2.4839516e+25
-1.6571751e+25
-1.6505131e+25
-8.5854217e+24
-4.0504295e+25
-2.0937622e+25
-3.0279177e+25
-1.4863995e+25
-3.7002484e+25
-2.3294945e+25
-4.4529834e+25
-1.5523293e+25
-2.8776185e+25
2.5358777e+25
-3.5720998e+25
-1.2273089e+25
-4.696215e+25
-1.2618254e+25
-2.303284e+25
-9.9184052e+24
-9.935051e+24
-5.7033689e+24
-2.0491759e+25
-1.4918435e+25
-3.1011465e+25
-9.5614008e+25
-2.1733706e+25
-3.3540768e+25
-8.6848219e+25
-1.2923019e+25
-4.37853e+25
-7.6570114e+25
-1.1259402e+25
-2.8310579e+25
-1.7813005e+25
-1.4588568e+25
-9.0322644e+24
-1.0789188e+25
-1.0114208e+25
-5.9080738e+24
-4.1220896e+24
-5.7515653e+24
-5.0669052e+24
-5.0690048e+25
-1.7341476e+25
-1.3060984e+25
-1.0511038e+26
-1.4876903e+25
-1.2249965e+25
-8.9508181e+25
-1.0527333e+25
-2.550728e+25
-5.8834409e+25
-8.870145e+24
-3.611518e+25
-4.7217414e+25
-1.0150722e+25
-2.5517318e+25
-1.0577792e+25
-9.8969792e+24
-5.9339406e+24
-5.659068e+24
-6.380961e+24
-4.6104746e+24
-4.0482902e+24
-3.3357393e+24
-6.7622736e+24
-2.30913e+26
-4.3028587e+25
-1.4780951e+25
-1.5872151e+26
2.4018215e+25
-7.4721755e+25
-2.9087685e+25
-1.3900003e+25
-3.3918141e+25
-3.1502058e+25
-1.2513147e+25
-6.805005e+24
5.1155156e+25
-2.5693933e+25
-5.5491313e+24
3.5546599e+25
-3.4598478e+25
2.4335076e+24
2.8073098e+24
1.7480308e+24
-1.1357386e+25
-1.5691265e+25
1.6080496e+25
-1.3330515e+24
-3.9054593e+23
3.4975442e+23
3.3563656e+24
-3.1762817e+26
1.2317691e+25
-5.6902123e+25
-1.2069453e+26
1.2324081e+25
-3.6813798e+25
-5.4191806e+25
1.2030909e+25
-1.8566104e+25
-3.0877214e+26
-1.2963463e+25
-3.0848035e+25
4.1693357e+25
-4.2863797e+25
-9.3610568e+24
1.9176413e+25
-2.9710528e+25
2.7780045e+24
-1.6711042e+25
-1.8672145e+25
-4.6930498e+24
1.904804e+24
1.492741e+25
1.1998124e+24
1.6852145e+25
-3.7145253e+24
4.3038972e+24
2.2282231e+25
5.6961732e+24
1.7740765e+24
-6.2556206e+26
-4.2244387e+25
-3.8442982e+25
-3.7328877e+25
9.3159091e+24
1.6175073e+25
5.0563008e+25
1.3281753e+25
-3.3380214e+25
-2.6737105e+25
3.3909137e+25
-3.1080651e+24
-1.3091996e+26
4.0507566e+24
-3.0815724e+25
3.0962238e+25
-6.3887698e+25
1.2492396e+24
-6.8353863e+25
1.1239085e+25
-3.726934e+24
5.7158651e+25
-4.8351824e+25
-1.0072944e+24
9.5604283e+24
-1.8078337e+24
2.2406225e+24
1.5039012e+25
7.8120315e+23
-2.702206e+23
2.0496822e+25
-5.7553425e+24
-2.2302884e+24
-1.7003198e+26
-1.4550106e+26
2.3643458e+25
-1.1226547e+26
-4.2329141e+25
-1.7818096e+26
-8.3027007e+25
-2.0085631e+26
-5.6886478e+25
-8.424315e+25
-5.2428348e+25
-1.4983298e+26
-6.9589753e+25
-4.0799792e+25
1.7595065e+25
-7.5216586e+25
-4.9163176e+25
-3.1769026e+25
1.4434827e+25
-4.2493983e+25
-4.5644583e+25
-1.0301803e+26
-3.3816155e+25
-4.0362304e+25
-9.9607947e+25
-2.0899008e+25
-4.8653875e+25
-8.8410628e+25
-1.2999319e+25
-1.8510441e+25
-6.978065e+24
-5.4796051e+25
-4.8549814e+25
-6.0140861e+25
-4.0313566e+25
-6.8896379e+25
1.5432104e+25
-1.3999182e+25
-3.3612128e+25
-7.8467497e+25
-2.2417314e+25
-2.9795355e+25
-1.7236781e+25
-1.835296e+25
-1.003418e+25
-3.9770796e+25
-2.4095933e+25
-3.7052102e+25
-5.8460008e+24
-3.5042566e+25
-2.5371226e+25
-4.7738804e+25
-1.7946951e+25
-3.8561369e+25
1.6282138e+25
-7.8156993e+24
-1.97253e+25
-4.8834745e+25
-1.3831647e+25
-2.5641134e+25
-1.1122076e+25
-1.1534693e+25
-6.6364571e+24
-3.8329637e+25
-3.106283e+25
-2.118776e+25
-3.2328962e+25
-1.3808807e+25
-3.0257872e+25
2.8407096e+24
-4.7180361e+25
-1.1332077e+25
-3.2085815e+25
-1.181814e+25
-2.7721192e+25
1.3678883e+25
-6.8949275e+24
8.0319202e+23
-2.813818e+25
-1.1703272e+25
-1.5943004e+25
-6.610996e+24
-3.006265e+24
-5.7174366e+24
-4.3896794e+25
-2.29988e+25
-2.0447392e+25
-7.2025448e+25
-5.3478192e+23
-1.2407241e+25
-8.9510386e+25
-1.6246634e+25
-3.0214358e+25
-6.3192725e+25
-1.1591222e+25
-3.9096382e+25
-5.227855e+25
-1.1530835e+25
-2.6310205e+25
-1.1798782e+25
-1.109067e+25
-6.8354329e+24
-5.1318495e+24
-6.7999896e+24
-5.3871729e+24
-3.0277552e+24
-3.8828947e+24
-7.4541753e+24
-9.1294653e+25
-9.1535373e+23
-9.5328142e+24
-7.3753455e+25
-7.981804e+23
-2.0193896e+25
-7.8224192e+25
5.8781827e+25
8.9340364e+24
-7.5862789e+25
-4.1573647e+24
-2.998201e+25
-3.858731e+25
-9.2614149e+24
-3.3319983e+25
-2.6786263e+25
-1.1010135e+25
-1.8729842e+25
-6.4141559e+24
-7.4116045e+24
-4.7558305e+24
-4.2638667e+24
-2.0844244e+24
-7.4335363e+24
-4.1067702e+24
-3.4190511e+24
-7.9081535e+24
-2.8145807e+26
1.7698554e+25
-7.2878824e+25
-8.3519948e+25
-8.5669126e+24
-5.7288496e+25
-1.0102654e+26
5.9166339e+24
-3.2055589e+25
-2.7000181e+26
-4.5532134e+25
-3.9669586e+25
6.3003698e+25
-4.5409038e+25
-8.4005316e+24
8.4992793e+24
-3.4700788e+25
5.2292576e+24
-1.2825998e+25
-5.3848492e+24
-2.4005953e+24
8.5238943e+23
9.6990474e+24
-3.9234164e+24
1.8862332e+25
-6.6855348e+24
3.6935281e+24
2.3758583e+25
8.2416256e+24
2.4074268e+24
-5.2265188e+26
-4.8276961e+25
-2.9991349e+25
-9.7660933e+25
1.8721441e+24
1.3588983e+25
2.9234285e+25
-7.3684096e+23
-2.77116e+25
-6.3199995e+25
4.0952378e+25
-8.1279323e+24
-1.8894331e+26
3.1874243e+24
-1.8876002e+25
4.2491327e+25
-5.7094706e+25
6.4932484e+24
-7.4875974e+25
-4.2008049e+24
-5.1712987e+24
5.0227837e+25
-4.4010742e+25
1.5210757e+24
1.5276898e+25
-1.2273047e+25
4.04342e+24
1.8513158e+25
6.2376366e+24
2.864737e+23
3.3803139e+25
-7.4672454e+24
2.9155925e+24
-6.3055369e+25
5.545095e+24
-7.9833664e+25
-1.6162372e+26
7.7961616e+24
-3.8352179e+25
1.2786823e+26
-9.5484564e+25
-1.2679565e+25
-2.7726135e+26
4.6292654e+25
7.354636e+24
4.6325425e+25
-2.4107325e+25
3.0981293e+24
-4.274758e+25
1.5524085e+25
2.5710108e+25
-9.360165e+25
1.893809e+25
8.347365e+23
6.3772532e+25
-2.8598878e+25
6.3448865e+23
-4.4820268e+25
-5.1787035e+25
-3.6136897e+24
1.1102296e+24
6.197401e+24
-5.9776884e+23
1.3970117e+25
-8.0064729e+24
-2.1645962e+24
4.0778834e+25
-1.3747159e+25
-1.0109678e+25
-1.7380134e+26
-1.0853536e+26
-6.9389519e+24
-1.3518146e+26
-8.4940686e+25
-1.0973476e+25
-2.0915923e+26
-1.3204505e+26
3.6288797e+23
-6.5884337e+25
-6.4822575e+25
-1.9672162e+26
-7.4777064e+25
-6.1422964e+25
-1.7171149e+26
-3.6680218e+25
-7.1551456e+25
-1.0739088e+26
-8.1880266e+25
-3.5754367e+25
-8.6974851e+25
-5.9113715e+25
-5.7581479e+25
-1.7354563e+26
-3.2788074e+25
-3.4842439e+25
-8.1652793e+25
-1.7107757e+26
-3.6879106e+24
-1.1257016e+26
-3.6539747e+25
-4.1914011e+25
-4.1753067e+25
-8.4193602e+24
-3.191148e+25
-1.4335315e+25
-9.6185146e+25
-2.5713936e+25
-2.8872396e+25
-6.7936681e+25
-1.5832924e+25
-4.1076443e+25
-5.4325517e+25
-1.2389236e+25
-2.1311725e+25
-3.3316807e+25
-3.6692003e+25
-6.487175e+25
6.8640669e+24
-3.8301822e+25
-3.6957755e+25
-5.8177698e+25
-2.5842507e+25
-5.5032128e+25
2.0829817e+25
-1.2278638e+25
-2.5028871e+25
-5.5681334e+25
-1.5253278e+25
-2.6048849e+25
-1.2366927e+25
-1.3025597e+25
-7.5627722e+24
-3.778666e+25
-3.5721008e+25
-2.3961712e+25
-3.4994394e+25
-1.6208156e+25
-3.6125134e+25
1.3994044e+25
-3.1456703e+25
-1.2885249e+25
-3.6377807e+25
-1.3824299e+25
-3.4276885e+25
2.7222414e+25
-1.3434382e+25
-9.7117021e+23
-3.3231601e+25
-1.5134056e+25
-1.6948189e+25
-7.7457311e+24
-4.0805077e+24
-6.5531591e+24
-2.0146068e+25
-9.5039286e+24
-3.4992359e+25
-3.9772686e+25
-4.4737564e+25
-8.6311989e+24
-2.5703951e+25
-1.2664788e+25
-2.7125029e+25
7.0279437e+24
-2.3975942e+25
1.1873913e+25
-3.555336e+25
-9.6381788e+24
-2.1033151e+25
1.2347333e+25
2.3597137e+25
-8.8374512e+24
-1.6922534e+25
-7.5970651e+24
5.4160029e+24
-1.7891357e+25
-9.4224403e+25
-2.7092052e+24
-1.7894825e+25
-7.1090096e+25
-8.1533551e+24
-3.120352e+25
-7.3501697e+25
-2.958072e+25
2.0948879e+25
-7.7710571e+25
-7.8781125e+24
-3.2078662e+25
-4.3752439e+25
-1.0587968e+25
-3.4875014e+25
-3.2178205e+25
-1.308203e+25
-1.892925e+25
-6.5916419e+24
-7.9131983e+24
-5.5448476e+24
-3.0947004e+24
-2.3129695e+24
-8.1260954e+24
-3.7403832e+24
-3.8721815e+24
-8.8366313e+24
-6.2560357e+25
6.0832152e+24
-1.0026296e+25
-4.7249357e+25
3.0817735e+25
2.7903595e+25
-8.4468334e+25
5.8842215e+24
-3.1288105e+25
4.1172014e+23
-1.3788713e+25
-5.1545847e+25
-5.116984e+24
-3.2056551e+25
-3.1511263e+25
-8.6760477e+24
-2.635271e+25
-2.1025607e+25
-7.9300709e+24
-1.5217823e+25
-4.6659691e+24
-2.2664184e+23
-8.2725965e+24
-4.6119969e+24
-2.4209697e+24
-9.0059382e+24
-5.5044712e+24
-3.4287589e+24
-8.4238274e+24
-4.0615175e+26
-7.6029744e+25
-3.1338558e+25
-1.7162197e+26
-1.0862011e+25
1.7861021e+25
-2.4447301e+25
-1.4888531e+25
-3.4250186e+25
-1.0892452e+26
3.6916954e+25
-1.3548838e+25
-2.3948574e+26
-1.3567853e+25
-2.0968151e+25
2.228194e+25
-3.1281445e+25
8.3892237e+24
-5.4644713e+25
-1.3812134e+25
-6.5747827e+24
2.380137e+25
-4.6895439e+25
8.9753203e+24
8.7956785e+24
-5.9878363e+24
1.8605888e+24
1.9372568e+25
1.2259753e+25
-1.1848608e+24
5.6270955e+25
-2.6797802e+25
1.2073383e+25
-6.6843493e+25
5.9796628e+24
-4.859618e+25
-1.5313412e+26
-8.4758329e+24
-3.0741668e+25
2.5825955e+26
-6.1068275e+25
-1.4780838e+25
-3.2190416e+26
2.6665866e+25
-6.5470508e+24
5.3872124e+25
-3.2207707e+25
4.2615717e+24
-1.1426218e+26
-2.491528e+25
2.0459063e+25
-6.4384592e+25
-2.2873404e+25
-4.051229e+24
3.9305834e+25
-2.5239508e+25
5.2419951e+23
-4.6293924e+25
-4.9669808e+25
-6.8049292e+24
-2.3343475e+24
1.5358802e+25
-1.6336714e+24
1.3906907e+25
-8.2887615e+24
1.1641132e+24
6.9225681e+25
-9.7216779e+24
-1.2137511e+24
-2.6761946e+26
-1.2295559e+25
-1.6991545e+25
8.6665001e+26
-2.4167925e+24
-1.8966423e+24
-3.4189312e+26
1.4803496e+25
1.0728051e+24
5.0379651e+25
-1.2086416e+24
-1.7392057e+25
3.1587384e+25
-3.5598103e+25
-9.971889e+24
-3.5850152e+25
-2.0118286e+25
3.9267698e+23
-1.4448888e+25
-3.4929539e+25
1.068722e+25
7.0677869e+25
1.684937e+25
1.253094e+25
-3.509531e+25
-5.2106748e+25
-4.7603625e+24
9.0924444e+25
1.542576e+25
-5.8151329e+24
9.3956386e+24
-2.6737716e+24
-5.0379951e+24
4.0781109e+25
-2.6593616e+25
-9.6232698e+24
-1.0300738e+26
-1.0384801e+26
5.0361908e+24
-7.3774828e+25
-3.5790421e+25
-1.7232953e+26
-1.330876e+26
-1.7536543e+25
-8.6228541e+25
-1.7587666e+26
-8.9082749e+25
-1.7022469e+25
-1.3274121e+26
-4.5559404e+25
5.2658326e+24
-2.0979645e+26
-4.7540717e+25
-5.7302842e+25
-2.377322e+26
-1.3662947e+26
-6.8107052e+25
-3.9557612e+25
-9.4908535e+25
-8.3787876e+25
-6.1766964e+25
-7.2067423e+25
-1.8342344e+26
-5.0054884e+25
-5.8493692e+25
-1.5412833e+26
-5.5300588e+25
-1.7655013e+26
-7.1064903e+25
-1.3822597e+26
-6.6545001e+25
1.2878855e+26
-5.6676888e+25
-5.1696934e+25
-1.3236775e+26
-4.8943211e+25
-6.1812795e+25
-1.6556883e+26
-3.7887114e+25
-4.0228108e+25
-1.1354496e+26
-6.3173339e+25
-2.3239545e+26
-6.4906709e+25
-4.6701994e+25
-9.0369876e+25
-3.0978388e+25
-8.3746068e+25
-3.3576647e+25
-2.1234733e+25
-4.3942099e+25
-4.2068726e+25
2.0455279e+25
-7.6890099e+25
-7.2895424e+24
-3.8236096e+25
-4.5228724e+25
-1.4512761e+25
-3.7477036e+25
-3.1439124e+25
-1.5346269e+25
-1.9072413e+25
-1.7504167e+25
-6.1133493e+25
-3.4143237e+25
-3.3775368e+25
-2.7149664e+25
-6.4783283e+25
2.7963922e+25
-4.4186293e+25
-1.9020649e+25
-4.527413e+25
-1.9877237e+25
-4.1511721e+25
3.9177472e+25
-2.8898182e+25
7.1046513e+23
-3.5666566e+25
-1.8969603e+25
-1.767039e+25
-8.5864178e+24
-5.9544086e+24
-7.3593135e+24
-2.5403872e+25
-1.1516685e+25
-3.5154496e+25
-3.6552801e+25
-4.7174389e+25
-1.1466206e+25
-2.9410142e+25
-1.3372121e+25
-3.287068e+25
1.139131e+25
-4.1769567e+25
1.1085958e+25
-4.4860991e+25
-1.1469138e+25
-2.8634406e+25
2.0494642e+25
1.0253044e+25
-9.9256918e+24
-1.9940467e+25
-3.3892502e+24
7.1336686e+24
-2.0989331e+25
-3.2478815e+25
-3.8763448e+25
-4.4181173e+24
-1.4151053e+25
-9.0119531e+24
-3.4290757e+25
-3.1234071e+25
-3.6214678e+25
8.441855e+24
-3.1531855e+25
-1.0165755e+25
-2.1143357e+25
-7.5798861e+25
7.5277437e+25
3.1056642e+25
8.8531919e+24
1.2007737e+25
-4.6953376e+25
-5.332831e+24
-2.2136259e+25
7.9437147e+24
-9.3507893e+24
-1.2897741e+25
-2.0291045e+24
-2.0677044e+25
-6.6843023e+25
2.153406e+24
-8.7337667e+24
-9.3496974e+25
-1.562636e+25
1.4396476e+25
-8.9488558e+25
4.4612536e+24
-3.852295e+25
-2.2464213e+25
-1.082005e+25
-5.4363383e+25
-6.5885288e+24
-3.3258871e+25
-3.8914546e+25
-9.0693716e+24
-3.1487145e+25
-2.0859768e+25
-8.7551224e+24
-1.8253699e+25
-3.0585254e+24
-2.9130706e+22
-9.4360759e+24
-3.9582442e+24
-2.7181198e+24
-9.9342525e+24
-5.5917768e+24
-3.5738467e+24
-9.4491739e+24
-1.3819141e+25
-1.5721981e+25
1.4979569e+25
-4.8525105e+25
1.0946152e+25
-2.9726261e+25
3.5781717e+24
-2.2001328e+26
-4.1288269e+24
-1.2177779e+25
-5.0933961e+25
1.6082002e+24
-3.6067187e+25
-2.3778208e+25
-3.304108e+25
-8.2148122e+24
-2.7506209e+25
-2.8311187e+25
-6.1377377e+24
-2.1573677e+25
-4.2793375e+24
-1.9562039e+25
-8.0718412e+24
1.2884949e+25
-2.6108184e+25
-6.2114555e+24
-2.6759379e+24
-9.6651312e+24
-6.3043846e+24
-3.3141655e+24
-8.3624278e+24
-1.2988757e+26
9.270811e+23
-2.4774676e+25
-1.3070991e+26
-3.5904335e+25
-3.2746818e+25
3.8606852e+26
-5.8956278e+25
-1.407424e+25
-3.3776654e+26
1.1444799e+24
-3.3100129e+25
3.9386876e+25
-1.6816505e+25
1.1766196e+25
-1.2972957e+26
-4.3483804e+25
6.701429e+24
-3.3469269e+25
-2.882752e+25
-7.5107208e+24
2.7305404e+25
-3.8692759e+25
-2.7770861e+24
-4.4173285e+25
-1.3025699e+26
-1.9257323e+25
-3.9297275e+24
2.2028036e+25
-6.3128274e+24
2.2230995e+25
-2.6758282e+25
-9.5549784e+24
1.0463824e+26
-1.4200034e+25
2.0949335e+25
-2.4099338e+26
-1.6924922e+25
-1.2197314e+25
7.7824489e+26
-1.3500441e+25
-7.7589866e+24
-3.3731786e+26
-4.9775822e+24
-3.6734164e+24
-1.7373775e+25
1.0479705e+25
1.0286258e+25
5.0356537e+25
-4.0821707e+25
-9.4098548e+24
-2.0875725e+25
1.3832172e+25
-9.1872173e+24
-1.5345052e+25
-1.6639066e+25
1.5120972e+25
3.5672934e+25
-5.2840836e+24
1.0998325e+25
-4.1178724e+25
-3.790365e+25
-5.1586333e+24
2.2659419e+25
1.5238548e+25
-7.9761725e+24
-3.0777004e+23
1.6762838e+24
-1.897797e+24
5.5018858e+25
-2.03857e+25
-2.4118732e+24
-9.3844661e+25
-1.202859e+26
8.5248224e+24
1.8791397e+26
-6.6169671e+25
5.8188453e+24
-3.02898e+26
-3.5492274e+25
-5.3973101e+25
2.4978249e+26
4.5677695e+24
-2.7089865e+24
-2.2093458e+26
-2.2443238e+25
2.0626768e+25
-1.9146876e+26
3.9051809e+25
2.7576876e+25
-1.9564859e+26
-3.0190159e+25
2.4885255e+25
9.4880512e+24
-2.9981378e+23
3.1127443e+25
-2.094931e+24
2.9726059e+26
2.8911567e+25
1.2549361e+26
7.9755189e+25
1.4513979e+26
-8.2878375e+24
-1.1148614e+25
-5.5777402e+25
1.1386147e+25
-1.9013864e+25
1.0399699e+25
-1.9891861e+25
-5.4970213e+25
-8.5655501e+25
1.3547181e+25
-1.1655536e+26
-6.4818688e+25
-4.0865293e+24
-5.6041105e+25
-1.3027923e+26
-3.8046397e+25
-6.4162968e+25
-3.7581651e+25
-1.7168932e+26
-5.4901554e+25
-4.4453129e+25
-1.5680482e+26
-1.6740069e+26
-9.7482479e+25
-5.1532112e+25
-1.1909877e+26
-5.4944516e+25
-1.6962063e+25
-1.6414093e+26
-8.1208098e+25
-4.8962957e+25
8.8975209e+23
1.9006428e+25
1.3109926e+25
3.2978918e+26
7.2243056e+25
-5.8236418e+25
-2.055475e+26
-7.5666597e+25
-4.2604785e+25
-1.344302e+26
-7.0934456e+25
-4.8752358e+25
-5.580041e+25
-2.9613927e+26
-5.7744754e+25
-2.8598701e+25
-9.1418985e+25
-9.2514338e+25
-5.2408356e+25
-7.0346341e+25
-1.6810529e+26
-4.7986661e+25
-4.8418181e+25
-1.4088465e+26
-7.8784432e+25
-2.9186175e+26
-1.0135835e+26
-6.984737e+25
-1.9805881e+26
-7.7736281e+25
-6.0557913e+25
8.4117854e+24
4.549185e+25
-5.3590142e+25
-4.8710946e+25
-1.6876914e+26
-4.7701951e+25
-5.9116388e+25
-1.4420723e+26
-6.233661e+25
-5.7844717e+25
-6.0469867e+25
-7.0365708e+25
-1.9009482e+26
2.1882015e+25
-5.7383106e+25
-3.0114722e+25
-1.0329162e+26
-9.6282781e+25
-6.7786112e+25
-2.4754702e+24
-9.0926676e+25
6.577014e+24
-3.3663043e+25
-8.8153164e+24
-2.6662967e+25
-5.239112e+25
-9.7557081e+24
-4.4964631e+25
-3.9557779e+25
-1.2111648e+25
-4.0069047e+25
-1.0567617e+25
-2.0265768e+25
-1.7685487e+25
-2.5467776e+25
-2.0696043e+25
-6.7522826e+25
-2.4060773e+25
-7.4788511e+25
-1.6033036e+25
-3.5780402e+25
-2.2552097e+25
-5.5738168e+25
1.2821342e+25
-6.241541e+25
1.3067686e+25
-5.0908955e+25
-1.5009503e+25
-3.9424194e+25
-3.310827e+24
2.0585592e+25
-2.3398563e+25
-1.0151974e+25
4.0733628e+23
8.2835846e+24
-2.2498036e+25
-4.3467284e+25
-3.92994e+25
-8.4001036e+24
-2.0231839e+25
-9.1037134e+24
-3.3342819e+25
-6.658514e+25
-5.7813845e+25
3.9929081e+25
-3.3676246e+25
-1.091112e+25
-3.1284504e+25
-1.9135411e+25
2.234568e+24
1.0731978e+26
-4.0539285e+24
1.4411375e+25
-4.5224517e+25
-6.6196085e+24
-3.8156806e+25
2.1291487e+25
-7.7463126e+24
-1.233048e+25
4.2015422e+23
-2.5935217e+25
-2.5118897e+25
-3.1837325e+24
-3.4237761e+25
-5.2323162e+25
-2.4819391e+25
-8.9554495e+24
-2.5604182e+25
-9.0424998e+24
-2.5688518e+25
3.9681022e+25
-2.3946135e+24
1.3444283e+25
-3.9903163e+25
-6.843411e+24
-1.5402428e+25
5.3397372e+25
2.4415228e+25
5.1998338e+25
-2.0058436e+25
-4.4736886e+24
-2.4386187e+25
-8.198775e+24
-9.132834e+23
-2.852836e+25
-1.5230084e+25
-2.3014958e+25
1.0956445e+25
-3.5632089e+25
1.0601847e+25
-2.7768465e+25
-2.4599044e+25
-1.4314329e+26
-9.3995539e+24
-2.8479015e+25
-5.8655379e+25
2.8848868e+23
-3.7676898e+25
-3.1892121e+25
-3.4534585e+25
-8.1543379e+24
-3.2678547e+25
-3.3809517e+25
-6.6386349e+24
-2.8107807e+25
-5.4117798e+23
-2.2020929e+25
-7.6272889e+24
1.7695885e+25
-3.0294652e+25
-6.1523974e+24
-2.8718202e+24
-1.069562e+25
-6.5743177e+24
-3.2108867e+24
-9.4262946e+24
-4.2280867e+25
1.0884249e+25
-3.1877592e+25
-5.5252218e+25
-1.8476464e+25
-4.7962668e+24
-4.71827e+25
5.1788168e+24
-3.4533895e+25
-1.4339886e+26
-2.9892354e+25
-3.8029893e+25
-2.3181398e+25
-4.5844722e+24
-3.2730644e+25
-3.0850886e+25
-8.3254457e+24
-2.0227706e+25
8.7646626e+24
-2.0691552e+25
-4.0356513e+24
-3.0975081e+25
-8.4803695e+24
-1.9125592e+25
2.796228e+24
-3.3738575e+25
-6.8779566e+24
-3.0453957e+24
-9.6486309e+24
-7.0058883e+24
-3.6059246e+24
-8.4554606e+24
-2.1681353e+26
-2.9310163e+25
-2.9846717e+25
7.1316797e+26
-3.2379988e+25
1.3726825e+25
-3.1687968e+26
-3.612976e+25
-1.5910621e+25
-7.8146315e+25
1.901264e+24
2.7981284e+25
1.7698324e+25
-2.7861248e+25
-1.6064354e+25
1.1021025e+25
-3.003872e+25
3.1935119e+25
-1.0469166e+25
1.2961133e+25
-3.9962995e+25
1.0905323e+25
-2.4091452e+25
2.6556091e+24
-5.406897e+25
-9.2739094e+25
-2.7404809e+25
-4.9918914e+25
-1.360818e+26
-3.1834234e+25
2.6624471e+24
-5.5971543e+23
-3.5483402e+25
5.0221377e+25
-3.4295831e+25
1.5332401e+25
-8.0229224e+25
-3.1056639e+26
3.0012762e+25
2.6302293e+26
-9.0089634e+25
-1.5444661e+25
-2.3809617e+26
-4.7472933e+25
-3.4503946e+25
2.376857e+26
1.3089632e+25
1.7281883e+24
-2.5194378e+26
-2.4205183e+25
1.071934e+25
-1.9268949e+26
2.3107191e+25
2.2328869e+24
-1.7099764e+26
-3.0458805e+25
-2.0240923e+25
2.5977711e+24
-6.222242e+23
4.8683973e+25
-7.7195606e+24
1.8804576e+26
-5.3286976e+24
8.7638099e+25
2.9881413e+25
7.3734637e+25
-1.3781137e+25
-8.761374e+23
-7.0603445e+25
1.5548356e+25
-7.1587513e+25
1.3961257e+25
1.6325033e+25
-9.4563864e+25
-9.4472794e+25
1.1368738e+25
-1.1247104e+26
-1.1327079e+26
-1.497356e+24
1.63897e+27
1.8578153e+26
1.3892678e+26
3.727641e+26
1.0095614e+25
-1.9443665e+25
5.3762157e+25
3.9192908e+25
-1.2376277e+24
1.4735932e+26
1.3472806e+25
4.5333647e+23
-3.4624446e+26
-1.1659421e+25
-1.5927763e+25
-2.1262986e+25
-7.4009296e+25
-1.1171364e+25
3.6259585e+25
1.3705294e+25
-1.2971375e+24
-7.493786e+25
-6.0677021e+24
1.6009373e+25
2.071582e+25
3.5155453e+26
5.5667924e+25
-1.5463904e+26
5.4769655e+25
-4.1894253e+25
1.6071938e+25
4.6927194e+25
-1.9569908e+25