/*--------------------------------*- C++ -*----------------------------------*\
  =========                 |
  \\      /  F ield         | OpenFOAM: The Open Source CFD Toolbox
   \\    /   O peration     | Website:  https://openfoam.org
    \\  /    A nd           | Version:  7
     \\/     M anipulation  |
\*---------------------------------------------------------------------------*/
FoamFile
{
    version     2.0;
    format      ascii;
    class       volVectorField;
    location    "5000";
    object      U;
}
// * * * * * * * * * * * * * * * * * * * * * * * * * * * * * * * * * * * * * //

dimensions      [0 1 -1 0 0 0 0];

internalField   nonuniform List<vector> 
34124
(
(-4.2539289e+30 2.1921243e+29 1.2482986e+30)
(-5.997352e+30 1.2603466e+29 4.9357423e+29)
(-2.8147929e+30 5.5793403e+29 1.1535274e+30)
(-6.5933993e+30 1.9208881e+29 1.6347296e+30)
(-6.2440862e+30 -4.5174433e+29 -3.512977e+29)
(-3.2411026e+30 4.4733507e+29 7.6004267e+28)
(-4.3422233e+30 -1.4974926e+29 2.9447888e+29)
(-3.0345054e+30 3.0029487e+29 1.3564006e+30)
(-2.1900434e+30 2.7416526e+29 7.6823268e+29)
(-3.7014053e+30 5.1320288e+29 -2.8634962e+29)
(-3.2169435e+30 -5.572575e+29 -8.761437e+29)
(-3.5426433e+30 -5.0171327e+29 -4.2721447e+29)
(-3.2650253e+30 -4.0165435e+29 -6.1315411e+29)
(-2.3861934e+30 1.6881061e+29 -1.3903113e+29)
(-1.1228989e+30 -2.0152678e+29 1.3644675e+29)
(-3.3344945e+30 -4.2941807e+28 -8.451945e+29)
(-4.8561641e+30 6.7571563e+29 -1.9371291e+28)
(-2.6678403e+30 1.076852e+29 8.2764493e+29)
(-2.672209e+30 3.2181416e+29 2.9199159e+29)
(-2.2368345e+30 1.9854063e+29 -2.1813287e+29)
(-3.0621445e+30 -3.9520642e+29 -1.2226554e+30)
(-3.3937568e+30 -8.3831669e+29 -7.2937636e+29)
(-1.3259287e+30 -2.4795638e+29 -5.6544168e+29)
(-2.2567584e+30 -1.6124447e+29 -4.8127776e+29)
(-1.4333602e+30 -5.1516011e+29 -4.7151961e+29)
(-2.7312761e+30 -2.9312188e+29 -8.180112e+29)
(-4.3372505e+30 -3.1584242e+29 -7.7113377e+29)
(-1.2262955e+30 -9.5581543e+28 -1.0949107e+29)
(-1.6456175e+30 -2.06035e+28 -2.4072577e+29)
(-2.3469975e+30 8.5495311e+28 -7.8648717e+29)
(-2.0520938e+30 3.0357164e+29 -2.0571198e+29)
(-2.3864382e+30 -2.2527147e+29 2.0815345e+29)
(-2.4854337e+30 -9.333385e+28 -3.7349365e+28)
(-3.3937161e+30 -8.1082941e+27 -4.5057282e+29)
(1.0386683e+29 -4.3468732e+29 -5.7522049e+29)
(-3.1321307e+30 -3.0841562e+29 -1.1616691e+30)
(-2.693945e+30 -6.0369607e+29 -1.0030287e+30)
(-1.2731843e+30 -3.0748107e+29 -7.7838952e+29)
(-2.4827769e+30 -4.7789411e+29 -7.3548351e+29)
(-1.3499116e+30 -3.5861466e+29 -5.9134781e+29)
(-1.0830422e+30 -3.0008464e+29 -5.1903672e+29)
(-4.2959806e+30 -4.3641965e+29 -7.607215e+29)
(-1.2471544e+30 -2.4745405e+29 -5.4874815e+29)
(-1.6875769e+30 -3.23206e+29 -5.1784768e+29)
(-2.2614727e+30 -3.7115363e+28 -1.1323364e+30)
(-2.0775942e+30 -1.8446267e+29 -6.8088787e+29)
(-2.0379776e+30 -2.8238684e+29 -1.5919419e+29)
(-1.4432315e+30 1.4333699e+28 -2.6557459e+29)
(-2.4813667e+30 -1.2618581e+29 -8.7767403e+29)
(8.4383216e+29 -3.1679781e+29 -9.3152325e+29)
(-1.5169395e+30 4.9715773e+29 -3.2856966e+29)
(-2.290877e+30 -8.1341963e+28 2.7353092e+29)
(-1.5572314e+30 -1.1497074e+30 1.5521259e+29)
(9.2783091e+29 2.855264e+29 -9.4711677e+29)
(-4.0187023e+29 -3.1279758e+29 -7.7482852e+29)
(2.9577078e+29 4.5048882e+29 -1.2329633e+30)
(-2.2858887e+30 -4.7878126e+29 -1.0341077e+30)
(-1.5466416e+30 -1.9374591e+29 -1.3789714e+30)
(-1.4983117e+30 -3.819845e+29 -1.0530746e+30)
(-2.467673e+30 -3.8804989e+29 -1.0708158e+30)
(-1.1021893e+30 -4.2319853e+29 -8.5363888e+29)
(-1.0504016e+30 -3.6131262e+29 -6.0132525e+29)
(-2.6730102e+30 -5.1754164e+29 -7.5170866e+29)
(-1.1520602e+30 -4.0255736e+29 -6.2497356e+29)
(-1.0757291e+30 -3.2955695e+29 -5.6854732e+29)
(-9.0875626e+29 -3.6710114e+29 -4.5457355e+29)
(-3.2062236e+30 -3.1275959e+29 -9.3816729e+29)
(-2.2403252e+30 -3.410564e+29 -3.8280921e+29)
(-8.9451515e+29 -6.2798719e+28 -7.8335432e+29)
(-1.9122955e+30 -1.9070383e+29 -1.203732e+30)
(4.3755985e+28 9.9218792e+28 -1.2904199e+30)
(-1.5189778e+30 1.7918881e+29 -2.8665241e+29)
(-2.2048035e+30 -1.0659417e+29 -9.8660485e+28)
(-1.427923e+30 -8.1845459e+29 -2.0996256e+29)
(-4.8012214e+29 -2.5638072e+28 -1.5055822e+30)
(-1.1445127e+30 -7.6357357e+27 -1.3038658e+30)
(-4.1911453e+28 3.3990749e+29 -1.0544308e+30)
(-7.7255659e+29 1.1617107e+30 -5.6080697e+29)
(-2.7962623e+30 1.4345915e+29 1.0344348e+30)
(-4.4835153e+29 -9.8929023e+29 4.9475316e+29)
(-3.3409794e+29 -3.0156636e+29 2.0019726e+29)
(-8.4693122e+29 1.0956332e+29 -8.3939822e+29)
(-1.1903697e+30 2.9395098e+29 -1.7155177e+30)
(-1.7068325e+29 1.8249703e+29 2.3340567e+29)
(-1.6878174e+30 -2.8642296e+29 -1.2281409e+30)
(-7.2800823e+29 -2.178126e+29 -1.4076463e+30)
(-1.1791409e+30 -5.2291855e+29 -1.1366048e+30)
(-1.3336025e+29 -2.3898541e+26 -1.3521183e+30)
(-1.1512203e+30 -4.3321175e+29 -1.2983355e+30)
(-1.1134316e+30 -4.3535019e+29 -7.2243467e+29)
(-3.2761626e+30 -5.4516626e+29 -1.2135527e+30)
(-1.0377341e+30 -4.0409667e+29 -9.1959577e+29)
(-9.738339e+29 -3.9824689e+29 -6.7783504e+29)
(-8.2761592e+29 -4.1601063e+29 -4.7640423e+29)
(-1.655264e+30 -4.5037896e+29 -5.8528061e+29)
(-1.1465602e+30 -4.3053203e+29 -6.5568058e+29)
(-1.0228954e+30 -3.4274525e+29 -6.0602662e+29)
(-8.5370943e+29 -3.9185927e+29 -4.8927175e+29)
(-9.16438e+29 -3.5727692e+29 -4.0426582e+29)
(-1.3091976e+30 -4.9699579e+28 -5.180177e+29)
(-2.1765684e+30 -2.7767869e+29 -4.2673988e+29)
(-1.568405e+30 -5.8253072e+29 -5.9545822e+29)
(-1.7510971e+30 -8.8267232e+28 -1.7853549e+30)
(-1.4042852e+30 1.7731649e+29 -1.5245191e+30)
(-5.6201316e+29 1.6059301e+29 -9.8530415e+29)
(-7.1682559e+29 7.6537454e+29 -1.4402329e+30)
(-2.731239e+30 -9.6919119e+28 4.8870384e+28)
(-6.6758802e+29 -4.9735814e+29 -3.2434322e+29)
(-6.7913723e+29 -5.747404e+29 3.641043e+28)
(-1.1302696e+30 3.889116e+29 -1.2656294e+30)
(-6.9795063e+29 2.1605925e+29 -1.5800035e+30)
(-5.6863289e+29 2.509151e+29 -6.9191675e+29)
(-1.565656e+30 3.832145e+29 -1.0904737e+30)
(-2.4558768e+30 7.8879777e+28 1.5927116e+29)
(-8.9868468e+29 -6.5419646e+29 6.25873e+29)
(-4.5424635e+29 -5.2519089e+29 1.5364161e+29)
(-2.7878068e+29 -4.3957463e+29 7.2419735e+28)
(-7.0789538e+28 9.3476759e+28 -1.9681744e+30)
(3.9263229e+29 1.005643e+29 -5.6228507e+29)
(2.3634768e+29 1.0231623e+29 9.8769248e+29)
(-1.4988762e+30 -3.6900438e+29 -1.2319322e+30)
(-6.7015556e+29 -1.6153364e+29 -1.6171722e+30)
(-1.1090283e+30 -4.9516094e+29 -1.25275e+30)
(-5.6754265e+29 4.7158835e+28 -1.5204175e+30)
(-8.6504424e+29 -4.9296254e+29 -1.3457618e+30)
(-1.0131552e+30 -4.8175815e+29 -7.8694052e+29)
(-8.8008948e+29 -3.0203434e+29 -1.2535779e+30)
(4.1052225e+29 -3.7452704e+28 -8.3854914e+29)
(-9.6260412e+29 -5.0424398e+29 -8.1984947e+29)
(-8.4791268e+29 -4.6506439e+29 -4.9778465e+29)
(-1.8843884e+30 -4.5862164e+29 -7.1181808e+29)
(-1.6059097e+30 -5.1050738e+29 -1.0470293e+30)
(-9.9145049e+29 -3.7177105e+29 -7.2523683e+29)
(-7.956919e+29 -4.3362746e+29 -5.1104996e+29)
(-8.8050345e+29 -3.8433168e+29 -4.1267053e+29)
(-8.7732432e+29 -5.1038906e+29 -7.3813653e+29)
(-1.4564278e+30 -3.4722831e+29 -6.9159316e+29)
(-9.9121021e+29 -3.1465832e+29 -6.6496965e+29)
(-9.0609654e+29 -3.9198029e+29 -5.1861827e+29)
(-9.0242805e+29 -3.6919602e+29 -4.2281195e+29)
(-8.0258198e+29 -2.7396662e+29 -2.6825297e+29)
(3.4049271e+29 2.9905331e+29 -1.3688061e+30)
(-2.3667305e+30 -3.7782479e+29 -5.1439039e+29)
(-1.3006194e+30 -5.1789996e+29 -7.385593e+29)
(-9.064147e+29 -8.2267159e+29 -3.4232628e+29)
(-1.1526417e+30 2.6485446e+29 -1.5131699e+30)
(-6.5457556e+29 7.0708506e+28 -1.4480683e+30)
(-9.1565585e+29 1.3710998e+29 -9.117578e+29)
(-1.4842374e+30 2.4965947e+29 -1.3773205e+30)
(-1.958776e+30 -1.8325022e+29 -5.63788e+29)
(-1.8828531e+29 -3.3390016e+29 -1.8230063e+29)
(-6.353412e+29 -2.5616899e+29 5.0058e+28)
(-6.9299175e+29 -7.5421058e+29 -1.0894027e+29)
(-3.0698298e+29 7.6891084e+28 -1.86677e+30)
(3.4690332e+29 1.9058765e+29 -1.0746551e+30)
(-3.5183918e+29 3.5056237e+29 3.6160396e+29)
(-2.6443094e+30 4.913289e+28 1.9548392e+29)
(-1.1011067e+30 4.8005079e+29 -2.1927067e+30)
(-2.0063001e+29 -1.3000324e+30 4.069e+29)
(-9.1376235e+29 -9.0336671e+29 7.0949042e+29)
(2.3519288e+29 -3.8906433e+29 -6.0486887e+28)
(-2.6116397e+29 -1.5727336e+29 -3.303395e+29)
(4.982049e+29 -4.8443334e+29 -9.5047149e+29)
(1.6371061e+29 3.2054171e+29 1.6642415e+29)
(2.6405006e+29 1.0467041e+29 1.0561009e+30)
(1.6394314e+30 2.1047551e+28 -1.1180333e+30)
(-1.8589828e+30 -4.8010766e+29 -8.3190404e+29)
(-1.2133098e+30 -5.1922417e+29 -1.3361479e+30)
(-5.9559311e+29 3.0116679e+28 -1.464723e+30)
(-1.239192e+30 -5.2098487e+29 -1.4426485e+30)
(-9.597239e+29 -5.0456813e+29 -8.6093726e+29)
(-1.1094064e+30 -3.0818838e+29 -1.2637551e+30)
(5.4227308e+29 1.1262952e+29 -1.1721577e+30)
(-8.169299e+29 -5.3539268e+29 -8.4690895e+29)
(-8.3105265e+29 -5.0007427e+29 -5.298046e+29)
(-8.9902968e+29 -2.6208299e+29 -9.9813023e+29)
(-9.7308175e+29 -4.0282259e+29 -8.0392933e+29)
(-2.8199393e+28 2.7183552e+26 -7.088207e+29)
(-7.8419257e+29 -5.1723254e+29 -4.9293159e+29)
(-9.2198201e+29 -4.0598034e+29 -4.0064366e+29)
(-8.758781e+29 -5.7224649e+29 -7.3074422e+29)
(-1.5630569e+30 -3.964811e+29 -8.2080296e+29)
(-1.0887775e+30 -4.025026e+29 -8.3816698e+29)
(-8.8754266e+29 -4.3625499e+29 -5.6553963e+29)
(-9.0864218e+29 -3.9042363e+29 -4.2434441e+29)
(-8.2281232e+29 -2.9269469e+29 -2.7414663e+29)
(-2.8347567e+29 -7.7285949e+29 -5.0879917e+29)
(-9.110585e+29 -4.7463595e+29 -7.8521681e+29)
(-1.3393393e+30 -2.6012211e+29 -6.4566304e+29)
(-8.9605161e+29 -3.3316466e+29 -5.918595e+29)
(-9.7294694e+29 -3.6047078e+29 -4.2631476e+29)
(-8.325922e+29 -2.766429e+29 -2.8358675e+29)
(-8.5667266e+29 -1.9792973e+29 -1.7625748e+29)
(-1.5336974e+30 6.8598761e+28 -1.5035225e+30)
(-1.6414679e+30 -4.0437432e+29 -8.2295377e+29)
(-8.3722922e+29 -4.9871145e+29 -4.8812173e+29)
(-2.3837266e+29 -2.8016404e+29 -2.1669247e+29)
(-1.2716664e+30 -1.0748e+30 -5.3583394e+29)
(-6.4489324e+29 4.0018077e+28 -1.670633e+30)
(9.2065985e+28 8.6138265e+28 -1.138053e+30)
(-1.209132e+30 3.2652237e+29 -5.1482185e+29)
(-2.1474079e+30 -1.1548937e+29 -4.5614437e+29)
(-1.2025045e+30 3.4552605e+29 -2.01207e+30)
(-4.6720215e+29 -9.6440518e+29 -1.5913828e+28)
(-1.1633782e+30 -3.3742952e+29 -1.0878602e+29)
(7.8684853e+29 -4.9972036e+29 5.640782e+28)
(-2.9243391e+29 5.007432e+28 -9.3521489e+28)
(2.9128355e+29 8.2300637e+27 -1.5228192e+30)
(-2.9955543e+29 5.4513153e+29 -1.146773e+29)
(-1.9378545e+29 -3.7162576e+28 1.6107153e+30)
(-3.263256e+30 7.7155616e+29 -1.5464103e+30)
(-1.5078879e+30 -1.0617918e+30 1.4392366e+30)
(5.9084238e+29 2.1344871e+29 -2.0011176e+30)
(-2.5522989e+30 -1.582312e+30 1.6578223e+29)
(2.4202904e+29 -5.1369758e+29 -5.2712197e+29)
(5.2359578e+29 -4.3116431e+29 -1.0860093e+30)
(-1.2468132e+30 -9.5629073e+29 -9.3081743e+29)
(2.7201266e+29 3.254096e+29 1.51939e+28)
(2.8910298e+29 1.5845162e+29 4.4726475e+29)
(4.5690314e+29 6.0276903e+28 1.2743156e+29)
(-9.2318548e+29 -7.0677745e+28 -1.2743416e+30)
(1.153065e+30 -1.7254737e+29 -1.0518786e+30)
(-7.2569341e+29 -3.6768666e+29 -7.9022048e+29)
(-9.6271936e+29 -5.5078043e+29 -6.8151244e+29)
(-1.4173238e+30 -4.1424603e+29 -9.1585851e+29)
(-8.1586341e+29 -4.4330462e+29 -9.8456989e+29)
(-1.4313058e+30 -3.4073564e+29 -1.1529429e+30)
(-4.8831258e+28 9.7400427e+28 -1.3172905e+30)
(-1.2982286e+30 -6.5437365e+29 -9.0600532e+29)
(-8.1588736e+29 -5.205333e+29 -5.7805481e+29)
(-7.3433095e+29 -1.646634e+29 -1.0718212e+30)
(-1.1920168e+30 -3.9870957e+29 -7.7885616e+29)
(4.774276e+29 1.7168707e+29 -9.7715377e+29)
(-6.9617585e+29 -5.3574396e+29 -4.9102278e+29)
(-9.2973636e+29 -4.1645506e+29 -4.0587768e+29)
(-8.27946e+29 -3.6950225e+29 -6.8060157e+29)
(-1.2198305e+30 -1.9871074e+29 -9.5055346e+29)
(-9.3844656e+29 -3.8171059e+29 -4.2764397e+29)
(-6.3325418e+29 1.169451e+29 -5.4701605e+29)
(-8.761399e+29 -4.2040245e+29 -3.4908574e+29)
(-8.550248e+29 -3.109973e+29 -2.3242405e+29)
(-2.3498821e+29 -8.3116252e+29 -2.3005206e+29)
(-9.9346476e+29 -5.5463316e+29 -7.4208603e+29)
(-1.3877904e+30 -3.0500918e+29 -6.8196504e+29)
(-8.7027787e+29 -3.8073574e+29 -6.4619927e+29)
(-9.6624889e+29 -3.8274608e+29 -4.3062052e+29)
(-8.5505314e+29 -2.8496582e+29 -2.8000186e+29)
(-9.0896923e+29 -2.1727909e+29 -2.1572608e+29)
(-4.1949605e+29 -6.7989962e+29 -5.0795887e+29)
(-8.4539659e+29 -9.8517526e+29 -7.8006498e+29)
(-8.0626374e+29 -3.8666444e+29 -7.3533633e+29)
(-1.2350609e+30 -2.2216793e+29 -5.0104006e+29)
(-9.7588097e+29 -2.9729293e+29 -4.3181014e+29)
(-9.1496832e+29 -2.8131749e+29 -2.8151144e+29)
(-8.8058698e+29 -2.1505917e+29 -1.9079532e+29)
(-7.710315e+29 -1.1724245e+29 -6.2819611e+28)
(-1.9541209e+30 -2.4677655e+29 -7.8548087e+29)
(-1.3264556e+30 1.4950431e+29 -1.7768262e+30)
(-2.7216273e+29 -6.637427e+29 -3.4640475e+29)
(-9.0718963e+29 -4.1593591e+29 -2.2016411e+29)
(1.2617636e+30 -7.1119443e+29 -2.4537675e+29)
(6.9384223e+29 2.2622837e+29 -6.7007635e+29)
(-1.5291819e+29 7.8797867e+28 -1.4899627e+30)
(-6.5955275e+29 4.5533957e+29 -6.8121997e+29)
(-3.0429559e+29 -8.8759525e+28 6.3497257e+29)
(-2.630061e+30 5.400527e+29 -1.5583847e+30)
(-1.1961628e+30 -8.7794187e+29 6.7864845e+29)
(-2.5275007e+29 2.1469098e+29 -1.8824795e+30)
(-2.316968e+30 -1.5486661e+30 -3.9692868e+29)
(2.0850072e+29 -9.1850721e+29 -8.352041e+29)
(4.25379e+29 1.174944e+29 -5.709739e+29)
(-1.4009908e+30 -6.9536356e+29 -6.8420706e+29)
(1.042664e+29 5.5598091e+29 -3.9190842e+29)
(6.1994574e+29 5.7232047e+28 9.6707285e+29)
(7.3693468e+29 1.4587296e+29 1.7951294e+29)
(-5.2560235e+30 -1.5677429e+30 -7.0657334e+29)
(-7.8126623e+28 2.9176861e+29 -1.9275936e+30)
(4.00056e+29 -1.3158482e+30 4.1334408e+29)
(1.0216791e+29 5.6772533e+29 8.9679617e+29)
(-5.2184792e+29 -6.9145402e+29 -1.5376366e+29)
(7.7393405e+29 -3.9567272e+29 -1.3216317e+30)
(-1.6470256e+30 3.5311024e+29 6.9331669e+29)
(1.671429e+30 -2.7218784e+28 -1.4501765e+30)
(2.4766394e+29 1.0562115e+29 3.7402414e+29)
(3.8894641e+29 2.5648095e+28 1.3422382e+29)
(3.2955115e+29 -2.3167818e+29 -4.5951581e+29)
(-7.8371012e+29 5.9396148e+28 -1.3322529e+30)
(-1.375315e+30 -3.5475927e+29 -9.2532495e+29)
(-1.0610982e+30 -2.7741142e+29 -6.7500511e+29)
(-1.0077527e+30 -3.8793139e+29 -7.8472092e+29)
(6.8203764e+29 -3.3581818e+29 -6.9184702e+29)
(3.4869245e+29 -3.1703884e+29 -5.0584503e+29)
(-3.0935738e+29 -8.8130082e+29 6.66197e+28)
(-9.2760159e+29 -5.836347e+29 -7.5807244e+29)
(-1.1088109e+30 -3.2255087e+29 -6.983599e+29)
(-3.509725e+29 -3.4819164e+29 -6.6563938e+29)
(-7.7175267e+29 -8.0590723e+28 -9.9437123e+29)
(-1.3990717e+30 -4.4532443e+29 -6.9698576e+29)
(2.5205217e+29 1.833619e+29 -1.140608e+30)
(-7.4677888e+29 -5.796931e+29 -4.7211491e+29)
(-9.745742e+29 -4.0515456e+29 -4.0360703e+29)
(-9.2055881e+29 -3.1451358e+29 -7.0862244e+29)
(-7.961339e+29 -1.4725454e+29 -9.9375919e+29)
(-1.1773484e+30 -3.5990901e+29 -4.2108629e+29)
(-7.293164e+28 1.9962549e+29 -6.7085883e+29)
(-8.8396961e+29 -4.2253638e+29 -3.3332715e+29)
(-8.568251e+29 -2.8870166e+29 -2.393464e+29)
(-7.9473429e+29 -3.4614714e+29 -6.3514514e+29)
(-9.141616e+29 -3.1009094e+29 -4.1095071e+29)
(-9.9607085e+29 -8.5819241e+28 -5.7365723e+29)
(-9.2749751e+29 -2.9605e+29 -2.6164764e+29)
(-2.6529079e+29 6.1532898e+28 -1.7011207e+29)
(-8.8830877e+29 -3.2358099e+29 -2.5611989e+29)
(-9.0610043e+29 -2.6477077e+29 -2.0432955e+29)
(-4.2273989e+29 -8.0018924e+29 -3.4157746e+29)
(-3.2637718e+29 -9.6422132e+29 -7.3284092e+29)
(-8.8319038e+29 -4.7590589e+29 -6.7400096e+29)
(-1.2294976e+30 -2.4730253e+29 -4.8542116e+29)
(-9.4353943e+29 -3.0434965e+29 -4.3608008e+29)
(-9.0242053e+29 -2.8873202e+29 -2.6798873e+29)
(-9.3572509e+29 -2.1581447e+29 -2.216839e+29)
(-8.2491995e+29 -1.4500382e+29 -9.6208047e+28)
(-3.4428852e+29 -7.1747533e+29 -7.3611525e+29)
(-4.8804805e+29 -3.7416501e+29 -6.4373054e+29)
(1.0328773e+30 -6.3828858e+28 -6.5306317e+29)
(-8.9450093e+29 -3.3801525e+29 -6.3276857e+29)
(-1.1753434e+30 -2.1874239e+29 -3.495439e+29)
(-9.7680489e+29 -2.5327088e+29 -2.7834026e+29)
(-8.8245758e+29 -1.9527421e+29 -2.0668549e+29)
(-7.6543404e+29 -1.8495955e+29 -7.1784903e+28)
(-8.6662105e+29 -4.5316577e+28 -6.1712964e+28)
(-2.3005257e+30 2.3853307e+29 -1.4064956e+30)
(-7.2957843e+29 -8.0282182e+29 -3.1805433e+28)
(-7.8269234e+29 4.8093883e+28 -1.559493e+30)
(-2.7880666e+30 -1.342724e+30 -7.4200473e+29)
(1.5774979e+30 -9.0863665e+29 -9.3185719e+29)
(7.6318014e+28 3.2038116e+29 -1.0009414e+30)
(-4.8947181e+29 -1.7149493e+29 -1.5253014e+29)
(-2.2092032e+29 2.9313086e+29 -6.9871835e+29)
(3.1810128e+29 -7.0697754e+28 6.0454374e+29)
(8.5828466e+29 2.078799e+29 1.6958603e+29)
(-4.1015792e+30 -9.9539317e+29 -8.9958579e+29)
(-6.4836924e+29 8.9911856e+28 -1.6701987e+30)
(1.598123e+29 -1.0818368e+30 -2.7632253e+29)
(-4.3567635e+29 6.676664e+29 -2.1419962e+29)
(-1.5313158e+30 -1.1876703e+30 -2.7011674e+29)
(1.0460999e+30 3.5883253e+29 -1.3906626e+30)
(-3.1865367e+30 1.5040298e+29 -2.5586777e+29)
(1.9836804e+30 7.9626576e+28 -1.1660505e+30)
(7.2262312e+29 -1.8713605e+29 8.4778902e+29)
(6.2678364e+29 1.5859925e+29 2.2455303e+29)
(9.1072267e+29 -2.1522234e+29 -4.5667546e+29)
(-6.2702842e+29 4.3561476e+29 -2.8599435e+30)
(-1.1755045e+30 -2.1110361e+30 1.7160111e+29)
(5.4937727e+29 -8.3753113e+29 7.8201615e+29)
(-1.665263e+30 -1.0016748e+30 1.0395511e+30)
(4.1020553e+29 -3.5368061e+29 -8.9865211e+27)
(7.8810832e+28 4.8013883e+28 -5.4686363e+29)
(-3.4153594e+30 7.4494328e+29 3.5873322e+29)
(2.4819195e+30 -3.4540069e+29 -1.2314768e+30)
(-1.4800724e+30 -6.4594292e+28 -1.2140997e+30)
(1.9128777e+29 -6.3212474e+27 1.9458369e+29)
(3.053891e+29 -2.9695463e+29 -4.4434891e+29)
(4.2006589e+29 -5.6412669e+29 -8.4727131e+29)
(-1.1164394e+30 -1.4571403e+29 -9.2787418e+29)
(-4.0773428e+29 1.3787633e+28 -1.1061057e+30)
(-1.2495347e+30 2.3210578e+28 -9.9653715e+29)
(-1.38635e+30 -4.3804648e+29 -5.798263e+29)
(-1.3503347e+30 -4.5166652e+29 -5.0935081e+29)
(3.0848596e+29 -6.7135027e+29 -2.3701173e+29)
(-5.1286865e+29 -4.6655672e+29 -6.887266e+29)
(-1.3020442e+30 -4.0845011e+29 -5.8630519e+29)
(-3.2737511e+29 -3.6417531e+29 -4.1772058e+29)
(-4.3118435e+29 -8.4596546e+29 -6.6292209e+29)
(-9.9551511e+29 -9.0133677e+29 -3.8512027e+29)
(-5.7422426e+29 -1.0498762e+30 -2.9022237e+29)
(-5.2365602e+29 -5.0303969e+29 -6.5644518e+29)
(-8.3316189e+29 -2.3483012e+29 -4.7068818e+29)
(-6.1003657e+29 -3.1011815e+29 -3.9553954e+29)
(-9.9296012e+29 -2.5686502e+29 -6.7413023e+29)
(-2.3895654e+29 7.1628417e+28 -8.2018723e+29)
(-1.206067e+30 -3.8872312e+29 -3.6553589e+29)
(-3.8500333e+28 1.950351e+29 -7.7692815e+29)
(-7.6845831e+29 -3.9227111e+29 -3.2174822e+29)
(-8.7006792e+29 -2.9364454e+29 -2.3894418e+29)
(-8.7405329e+29 -2.9752464e+29 -6.4280264e+29)
(-9.9960603e+29 -2.5650506e+29 -4.2753319e+29)
(9.6454611e+27 2.9469491e+28 -4.77062e+29)
(-1.0708549e+30 -2.8504304e+29 -2.6739112e+29)
(-3.896269e+29 2.201569e+29 -3.2867608e+29)
(-8.7464383e+29 -2.8174498e+29 -2.8085523e+29)
(-9.5070201e+29 -2.430177e+29 -2.0981087e+29)
(-8.6822708e+29 -2.4373817e+29 -2.9233936e+29)
(-1.4529114e+30 -2.8436988e+29 -4.5695446e+29)
(-8.6381969e+29 -2.5370946e+29 -2.8838983e+29)
(-3.0476933e+29 -9.1744566e+28 -2.4149412e+28)
(-9.1456209e+29 -2.9790382e+29 -1.9004891e+29)
(9.6369526e+29 2.0814297e+29 2.9622642e+29)
(-8.2916047e+29 -3.077744e+29 -1.1522823e+29)
(-8.1282896e+29 -1.6693685e+29 -3.2157295e+29)
(-2.6513131e+29 -7.3399457e+29 -6.8768078e+29)
(-6.985714e+29 -5.1167632e+29 -5.5836132e+29)
(-1.1019555e+30 -1.7333104e+29 -8.0186226e+29)
(-8.8471789e+29 -3.9358714e+29 -5.5620259e+29)
(-1.1102673e+30 -2.2673008e+29 -3.4648127e+29)
(-8.6184132e+29 -2.63484e+29 -2.6181156e+29)
(-9.4524257e+29 -1.9419331e+29 -2.3813733e+29)
(-8.0371283e+29 -2.0648216e+29 -1.2293697e+29)
(-7.6835453e+29 -2.0390429e+28 -9.2802844e+28)
(2.0855933e+28 4.3553501e+28 -7.0322114e+29)
(1.601397e+30 2.7031422e+29 -6.0157368e+29)
(-8.8419794e+29 -4.8788124e+28 -6.845871e+29)
(-1.2693016e+30 1.4037527e+29 -7.4611237e+28)
(-1.0213853e+30 -2.65277e+29 -4.4589018e+29)
(-1.068231e+30 -2.12977e+29 -2.7241503e+29)
(-8.5850671e+29 -2.1616399e+29 -2.282066e+29)
(-7.3414682e+29 -1.9324467e+29 -9.5853951e+28)
(-8.6018177e+29 -5.6442543e+28 -5.8041883e+28)
(-9.2430941e+29 -6.7698849e+28 -1.0848205e+29)
(-3.2807385e+30 -6.1455447e+29 -1.043845e+30)
(-1.1425567e+30 -1.6739547e+29 -1.3426881e+30)
(-9.7825137e+28 -9.8737452e+29 -7.4890598e+29)
(-1.2438427e+30 3.2505523e+29 -7.0666947e+29)
(-2.0634631e+30 -1.2994693e+30 -4.70194e+29)
(3.5047666e+29 3.9903374e+29 -1.0173995e+30)
(-2.8539749e+30 2.0867929e+29 -4.8161963e+29)
(1.7186359e+30 9.9432812e+28 -6.7803154e+29)
(-1.1075764e+29 -2.2671882e+29 2.921931e+29)
(5.6140963e+29 3.6182344e+29 1.8809424e+29)
(1.7714369e+30 -2.9650593e+29 -8.6763811e+29)
(-6.4876382e+29 9.3761958e+28 -2.1655759e+30)
(-1.3400307e+30 -1.6523842e+30 -2.3515591e+29)
(1.0652511e+30 -2.2125826e+27 6.3895576e+29)
(-2.3451829e+30 -1.0450824e+30 3.183825e+29)
(1.0448245e+30 -4.1607807e+29 1.6743388e+29)
(-6.8225696e+29 1.7306222e+29 -8.8138912e+29)
(-2.4396113e+30 1.9497382e+29 -7.2789003e+29)
(1.754469e+30 -1.1743407e+29 -1.0872011e+30)
(-1.3137792e+30 8.7451525e+28 -1.1878405e+30)
(-8.0238925e+28 3.6777793e+29 1.8214874e+29)
(6.3777377e+29 -3.0568458e+29 -5.5755671e+29)
(1.5522794e+30 -1.9618894e+29 1.6564035e+29)
(-1.9993558e+30 -6.1015619e+29 -1.0987282e+29)
(5.7008004e+30 8.6625406e+28 -2.3122989e+29)
(-2.3464772e+30 -9.556383e+29 3.6742225e+29)
(8.6222551e+29 -1.6210786e+29 -2.6566948e+29)
(5.7725176e+29 6.370044e+29 -1.0791466e+29)
(-2.7613602e+29 -1.1546566e+29 3.964457e+29)
(-1.9024848e+29 1.4568391e+30 -4.3832248e+29)
(3.1922011e+30 -4.2615591e+29 -3.1009254e+29)
(-1.2621829e+30 -5.1602347e+28 -1.6707527e+30)
(2.774999e+30 -4.9876714e+29 9.3235993e+28)
(2.4186092e+29 -2.389868e+29 -4.1850662e+29)
(4.0878561e+29 -5.6966211e+29 -6.8213588e+29)
(-2.4825438e+30 -2.2648046e+30 1.5640312e+30)
(-1.2266677e+30 -2.8190434e+29 -6.0062721e+29)
(-8.020463e+29 -9.3964078e+28 -8.1502101e+29)
(-9.7101424e+29 -1.2443022e+29 -5.9902815e+29)
(-5.7422733e+29 1.5833483e+28 -7.0967024e+29)
(-9.4577823e+29 -3.4221903e+29 -1.0943222e+30)
(-1.5167555e+30 -3.9279709e+29 -8.0337562e+29)
(-6.1872587e+29 -6.2838295e+29 -4.2783156e+29)
(-1.3543122e+30 -5.0072541e+29 -4.1374614e+29)
(-1.284718e+30 -3.8786361e+29 -2.6820049e+29)
(-9.9944868e+28 -6.7181633e+29 -9.4862712e+29)
(8.9431554e+29 -4.2435183e+29 -4.0295013e+29)
(-7.3467595e+29 -5.4311556e+29 -5.5110016e+29)
(-1.4235216e+30 -3.6578672e+29 -4.0767008e+29)
(-1.1693675e+30 -3.3383664e+29 -3.0758145e+29)
(-1.4826225e+30 -1.0718012e+30 -2.7333053e+29)
(-1.0161386e+30 -8.2530233e+29 -4.9330971e+29)
(-4.1261807e+29 -5.1544707e+29 -5.4973103e+29)
(-5.544004e+29 -1.6148596e+29 -4.6728446e+29)
(-5.432622e+29 -3.6003763e+29 -5.2306234e+29)
(-8.3078661e+29 -2.330871e+29 -3.1025734e+29)
(-6.8031368e+29 -2.8715388e+29 -2.4372225e+29)
(-8.075535e+29 -1.7360384e+29 -5.4565279e+29)
(-1.0556529e+30 -2.3392547e+29 -4.1367429e+29)
(-7.1082072e+28 2.0539778e+29 -5.3924694e+29)
(-9.8964394e+29 -2.8072058e+29 -2.6226018e+29)
(-5.2245664e+29 3.0750554e+29 -4.5424772e+29)
(-8.2052737e+29 -2.8842292e+29 -3.1974012e+29)
(-9.5701377e+29 -2.0782759e+29 -2.2938022e+29)
(-8.5930307e+29 -1.7707022e+29 -2.9958065e+29)
(-1.4546391e+30 -3.141994e+29 -4.6696947e+29)
(-9.0768026e+29 -2.1802188e+29 -2.8482913e+29)
(-3.5607016e+29 -1.3274825e+28 -1.047314e+29)
(-9.5456447e+29 -2.5706176e+29 -1.872786e+29)
(7.3348148e+29 5.5990271e+29 3.9006793e+29)
(-8.6625361e+29 -2.7156131e+29 -1.385259e+29)
(-9.0200813e+29 -1.9434291e+29 -2.6730402e+29)
(-1.0859426e+30 -2.6059583e+29 -1.6031788e+29)
(-1.0390932e+30 -1.6800185e+29 -2.3318056e+29)
(-1.1669394e+30 -2.6713364e+29 -1.5354257e+29)
(-7.7932906e+29 -2.6698344e+29 -1.9648839e+29)
(1.2594964e+30 1.5950296e+29 2.012586e+29)
(-9.2533207e+29 -3.0029311e+29 -1.1169626e+29)
(2.197311e+30 9.4659536e+28 1.1783868e+29)
(-1.0433227e+30 -2.7709058e+29 -6.6317034e+27)
(-6.9586038e+29 -3.957627e+27 -1.1548649e+29)
(-3.0062677e+28 -6.2695775e+28 -3.9697233e+29)
(-5.9952475e+29 -4.2783503e+29 -5.6292806e+29)
(-1.060727e+30 -1.2456587e+29 -6.1333673e+29)
(-1.6014536e+30 3.1680452e+29 -4.6424961e+29)
(-9.32882e+29 -2.7172572e+29 -3.9657767e+29)
(-9.7654204e+29 -1.9642135e+29 -2.5053163e+29)
(-8.8265937e+29 -2.2343012e+29 -2.3341448e+29)
(-7.5062583e+29 -1.8916163e+29 -1.7906824e+29)
(-7.107457e+29 -5.8137754e+28 -9.8925103e+28)
(-9.0621202e+29 -5.1196486e+28 -1.1701358e+29)
(-1.217779e+29 2.2387116e+29 -5.0507222e+29)
(-8.1011316e+29 2.6546589e+29 -5.492129e+29)
(1.0162789e+30 6.9821125e+29 -1.3054097e+30)
(-1.093325e+30 -2.8694987e+28 -4.3802906e+29)
(2.4843434e+29 -3.18481e+29 -7.678578e+29)
(-1.0044662e+30 -2.075183e+29 -2.999689e+29)
(-1.0577096e+30 -1.3569346e+29 -2.1766105e+29)
(-9.0251683e+29 -1.1791123e+29 -1.6278415e+29)
(-9.1645221e+29 -1.7877508e+29 -4.3575926e+28)
(-9.2786238e+29 -7.445267e+28 -9.7178834e+28)
(-9.1252773e+29 -6.4148413e+28 -1.1811479e+29)
(-7.3592764e+29 -1.925329e+29 -1.5622978e+30)
(-9.5572794e+29 -1.0815153e+30 -3.7422217e+29)
(2.1328273e+30 3.8710625e+29 8.0045189e+29)
(-2.6683089e+30 -1.1694131e+30 -4.3870286e+29)
(-4.9007834e+29 -1.4672365e+29 1.5432056e+29)
(-1.185124e+30 -3.4092604e+29 -7.8402009e+29)
(-1.9425983e+30 1.6683185e+29 -1.0175648e+30)
(1.0481368e+30 -3.2359533e+29 -8.2065994e+29)
(-1.040003e+30 2.7225651e+29 -1.1489311e+30)
(-4.7723744e+29 7.0918734e+29 1.1739577e+28)
(1.1382877e+29 -7.0713714e+29 -8.9416605e+29)
(2.3969059e+30 1.1797637e+29 6.9199294e+29)
(-1.9002789e+30 -4.0760187e+29 -4.677306e+29)
(5.2306733e+30 -7.8576282e+27 3.2372221e+29)
(-2.4218696e+30 -8.4996724e+29 -1.7577325e+29)
(5.9367188e+28 -2.2545254e+29 2.8589721e+29)
(6.919155e+28 2.9838811e+29 -8.6631439e+29)
(-6.5903491e+29 8.6224727e+29 3.951268e+29)
(-6.3794639e+29 9.1353645e+29 -1.0308737e+30)
(2.2165538e+30 -4.6339596e+29 -6.214398e+29)
(-8.7888264e+29 -2.6299237e+28 -1.3192491e+30)
(5.3573878e+29 -4.5972089e+29 -2.5233129e+29)
(5.8307013e+29 -9.4646242e+28 -5.8980466e+29)
(1.6026006e+30 -4.5118606e+29 3.3720294e+28)
(-2.0441754e+30 -2.0568098e+30 1.6928244e+30)
(2.3747623e+29 5.0873151e+29 -3.3493128e+29)
(-2.3059461e+30 -1.2828908e+30 -4.4111126e+29)
(1.6506243e+30 1.1768328e+28 -4.6478307e+28)
(-1.3174347e+30 2.2750098e+29 -6.4915207e+29)
(-1.5655588e+30 4.187693e+29 7.0040661e+29)
(-1.489355e+30 2.1718335e+29 -6.7689349e+29)
(3.2532421e+29 -1.3683368e+29 -2.439025e+29)
(4.4939598e+29 8.5782294e+28 6.5442216e+29)
(4.6911655e+30 -5.3568494e+28 -2.7877596e+28)
(2.2739446e+30 -6.9150989e+29 7.0135743e+29)
(-4.0539306e+29 -1.6459029e+29 -8.3055945e+29)
(-3.8338526e+29 -7.676412e+29 -1.6046006e+30)
(-6.33208e+29 -1.9944695e+30 1.9124231e+30)
(-2.2794163e+30 -2.0066828e+30 7.2927073e+29)
(-8.1928071e+29 -1.9828403e+29 -4.7550801e+29)
(-1.1832262e+30 -2.63014e+29 -4.7080695e+29)
(-1.1629739e+30 -2.6395703e+29 -3.5562092e+29)
(-8.4496575e+29 -2.9683981e+29 -8.8284432e+29)
(-7.7861235e+29 -2.5184389e+29 -6.7847712e+29)
(-1.021573e+30 -3.025274e+29 -4.5132302e+29)
(-6.4045656e+28 2.7020943e+29 5.7744149e+28)
(3.4046183e+30 5.1430542e+29 7.7768972e+29)
(-5.0771106e+29 -3.5557861e+29 -1.095806e+30)
(5.8700359e+28 -4.464007e+29 -1.9851719e+29)
(-1.5292813e+30 -6.9881444e+29 -8.9033755e+29)
(-4.5271408e+29 -4.4499059e+29 -2.3311613e+29)
(-1.2192872e+30 -4.5425949e+29 -3.1348215e+29)
(-1.1784067e+30 -3.2027547e+29 -2.320487e+29)
(-1.4537882e+30 -1.0808635e+30 -6.8741279e+29)
(-1.441068e+30 -6.1752131e+29 -3.9399078e+29)
(9.7335473e+29 -5.7253968e+28 -2.2101039e+29)
(-1.1542389e+30 -4.7455326e+29 -4.3982615e+29)
(-1.2377798e+30 -2.8849625e+29 -3.178784e+29)
(-1.067674e+30 -3.1977533e+29 -3.1325076e+29)
(-5.142495e+29 -6.0530896e+29 -4.9071232e+29)
(-2.0292883e+30 -7.040304e+29 -5.0010399e+29)
(-1.1864775e+30 -8.9163232e+29 -6.4814305e+29)
(-3.9948142e+29 2.3162549e+28 -5.792772e+29)
(-9.9160464e+29 3.1144295e+29 -9.0159521e+29)
(-7.5587638e+29 -2.5748744e+29 -3.3149402e+29)
(-9.3634211e+29 -2.226893e+29 -2.307548e+29)
(-9.2150915e+29 -2.4825794e+29 -1.13901e+29)
(-9.5176119e+29 -1.8587912e+29 -3.0574737e+29)
(-1.3212713e+30 -2.1256283e+29 -4.2178226e+29)
(-1.0550813e+30 -2.0554046e+29 -2.8250214e+29)
(-5.8873995e+29 5.6444412e+28 -2.3624476e+29)
(-9.8380683e+29 -2.7978874e+29 -2.1053364e+29)
(-1.9117583e+29 7.730386e+29 3.8276368e+29)
(-8.8215728e+29 -1.6033692e+29 -1.8731616e+29)
(-9.8447795e+29 -1.5221287e+29 -2.5154721e+29)
(-1.0029573e+30 -2.8351592e+29 -2.1446337e+29)
(-8.5647732e+29 -1.4944631e+29 -2.1232729e+29)
(-1.820354e+30 -4.1178297e+29 -3.318849e+29)
(-8.7204643e+29 -2.4228431e+29 -1.9727749e+29)
(5.2089845e+29 2.4682621e+29 2.8132416e+27)
(-1.070216e+30 -3.0641479e+29 -1.2872225e+29)
(9.028122e+29 1.5296525e+29 -1.7013106e+29)
(-1.0927527e+30 -2.916657e+29 -5.0534175e+28)
(-8.178706e+29 -7.3487077e+28 -1.1270388e+29)
(-9.9887833e+29 -2.1092385e+29 -1.1608759e+29)
(-7.7709353e+29 -3.8858502e+29 -2.0695903e+29)
(-9.122248e+29 -2.1218495e+29 -2.1709073e+29)
(7.470326e+29 -1.7028945e+29 3.8599457e+29)
(-7.4370206e+29 -2.6242326e+29 -1.7678668e+29)
(3.0249196e+30 3.1635702e+29 8.7053682e+29)
(-3.9018707e+29 -2.2730451e+28 -1.6967976e+29)
(-7.9536248e+29 -4.682897e+27 -1.3408499e+29)
(-2.5558955e+29 1.2829672e+29 -9.268364e+28)
(-5.0712301e+29 3.2193488e+29 -2.6087694e+29)
(4.5804882e+29 4.5718609e+29 -9.7468912e+29)
(-1.0701821e+30 -5.4020734e+28 -3.8691276e+29)
(1.4191928e+30 -2.4119037e+29 -7.7128726e+29)
(-9.3627244e+29 -1.9192321e+29 -2.6967969e+29)
(-1.1592773e+30 -1.3489702e+29 -2.1454821e+29)
(-1.0507784e+30 -1.0484016e+29 -1.7188447e+29)
(-9.1796499e+29 -1.7805415e+29 -8.2692582e+28)
(-8.8857207e+29 -5.3431122e+28 -1.0414167e+29)
(-9.2179099e+29 -5.5100159e+28 -1.2491062e+29)
(-8.8875153e+29 2.3527406e+29 -5.1197088e+29)
(-6.1008486e+29 1.7798702e+29 -7.1731575e+29)
(-1.0726467e+30 1.3565063e+29 -4.3752899e+29)
(-9.3820239e+29 7.0708208e+28 -9.156622e+29)
(-1.0570649e+30 -1.4431067e+29 -2.3176847e+29)
(-9.331314e+29 -1.7838283e+29 -2.2257567e+29)
(-7.6120062e+29 -2.1154204e+29 -1.4143154e+29)
(-9.8654683e+29 6.1849555e+27 -1.0110565e+29)
(-9.3689632e+29 -9.4297932e+28 -7.9321208e+28)
(-9.4164619e+29 -6.4460467e+28 -1.1224176e+29)
(-9.1574499e+29 -6.1695011e+28 -1.1309042e+29)
(-1.4131797e+30 -4.0795445e+29 -7.5010822e+29)