/*--------------------------------*- C++ -*----------------------------------*\
  =========                 |
  \\      /  F ield         | OpenFOAM: The Open Source CFD Toolbox
   \\    /   O peration     | Website:  https://openfoam.org
    \\  /    A nd           | Version:  7
     \\/     M anipulation  |
\*---------------------------------------------------------------------------*/
FoamFile
{
    version     2.0;
    format      ascii;
    class       surfaceScalarField;
    location    "8000";
    object      phi;
}
// * * * * * * * * * * * * * * * * * * * * * * * * * * * * * * * * * * * * * //

dimensions      [0 3 -1 0 0 0 0];

internalField   nonuniform List<scalar> 
100464
(
-1.0436179e+43
8.5864781e+43
8.0708436e+43
-1.4962202e+45
-3.0368223e+43
-1.3291589e+43
-3.0012631e+44
-3.6491521e+42
1.7212591e+43
2.1276608e+43
-9.4480145e+42
8.9822175e+43
-3.3588062e+43
-1.4428382e+45
-3.3404922e+43
8.2076341e+43
-1.3571141e+42
-2.1889745e+44
-1.0579398e+42
1.6135959e+43
1.5159071e+43
-1.1294091e+43
-5.0755805e+42
-1.9032781e+44
3.1911516e+43
-1.2113942e+43
-2.9368579e+43
8.771046e+43
7.3971357e+43
-1.6200603e+43
3.8719239e+42
-6.4915524e+41
-2.795661e+44
-5.0416097e+42
1.6561338e+43
-1.1929331e+42
1.6750993e+43
2.1689757e+43
-2.688537e+44
-2.4039494e+44
1.0494859e+43
-9.8307546e+42
3.081882e+43
1.4105739e+43
-1.4193095e+43
-6.9584863e+42
1.1180782e+43
2.3483097e+43
-9.0736545e+42
-3.0628023e+44
1.4696135e+43
-2.2903125e+44
-1.7639505e+42
1.5525683e+43
-4.2573582e+42
-9.9820087e+42
1.8216258e+43
4.9170042e+43
1.6780755e+40
1.0519684e+43
-6.8407242e+43
5.0516732e+42
7.6854902e+41
-1.085515e+43
5.8865872e+42
-5.2590308e+43
-2.3856924e+42
-6.5135298e+43
5.4994673e+42
-3.5679803e+42
1.6156025e+43
-3.6807197e+42
-2.913181e+44
1.8106017e+43
-7.141142e+42
8.7301589e+43
-3.4787628e+43
-3.611046e+43
8.7394229e+43
2.0953688e+44
-2.6785259e+44
1.8462952e+43
-6.1068801e+42
1.5468497e+43
-7.1307932e+42
-1.2039072e+43
1.681804e+43
1.5465232e+43
-1.3441513e+43
-3.0348011e+41
-7.0943733e+43
3.0461591e+42
-2.1143877e+42
-3.3425286e+42
3.7062243e+42
-6.5527849e+43
-2.9379188e+42
3.8792774e+42
-2.7921577e+42
-2.6366759e+40
-5.1407398e+43
-3.178762e+41
-2.9673491e+42
-2.1065561e+42
3.4276988e+42
2.7917618e+42
-4.4570444e+43
4.1614557e+42
3.188823e+41
-6.2969711e+43
-4.8455427e+41
3.1811094e+42
-3.4004882e+42
-2.1703729e+42
2.8237035e+42
-6.2591429e+43
3.4335538e+42
2.2135447e+44
4.7843559e+42
-1.2357655e+42
-2.4750786e+44
-6.7636438e+42
-1.8353561e+42
-2.3785378e+42
-1.9426446e+42
1.9740535e+43
1.6851263e+43
-9.3632628e+41
-1.7371229e+44
2.8638918e+43
1.4930054e+43
-2.433027e+44
4.6642946e+43
-8.7026821e+41
9.6466041e+41
-5.6599825e+43
-1.625794e+42
-7.3769365e+41
3.5214624e+42
3.6629674e+42
-8.1817866e+41
3.7342977e+41
-3.2273783e+42
2.8814152e+42
-1.7663873e+42
2.7917093e+42
4.0896243e+43
4.9421084e+42
-5.4860006e+43
5.4184207e+42
2.3488838e+43
-2.2653242e+44
1.4500227e+43
1.2192199e+43
-1.546302e+43
-1.6493075e+43
-2.3233987e+44
2.7611935e+43
1.456593e+43
1.3125569e+43
-1.5124581e+43
-1.7038231e+43
-1.6897871e+43
2.3670973e+43
-3.0251651e+44
1.5290541e+43
-8.4829992e+42
-1.0880308e+43
1.4543465e+43
1.4540791e+43
-9.377707e+42
-1.0265655e+43
-2.9087698e+44
1.262093e+43
-5.167562e+43
-2.7395396e+42
2.0752187e+42
4.3418247e+42
-3.4819433e+42
2.8272881e+42
-6.4812267e+43
-2.7184271e+42
2.0968112e+42
4.2348448e+42
2.594137e+42
-3.830234e+42
4.8659363e+43
-1.4026082e+42
2.8404403e+42
4.7268042e+42
3.2939833e+42
-2.0435178e+42
-6.0205974e+43
-2.3351054e+44
1.0959146e+43
-8.6184678e+42
2.4505552e+43
1.7064793e+43
-8.9537227e+42
-2.3492778e+42
2.1993084e+42
5.1165408e+42
-3.517094e+42
2.5121874e+42
-2.6205608e+44
-3.3362769e+43
2.1858802e+43
-1.275643e+43
1.6044135e+43
-2.999727e+44
5.0249602e+43
-4.7758065e+43
4.5415766e+41
-1.0393269e+43
4.8156541e+42
-7.5630827e+39
-6.7440729e+43
1.1309672e+43
4.1232763e+42
4.9723448e+43
-6.1715407e+43
-2.4802972e+42
4.4827252e+42
-1.6001112e+42
4.8586985e+42
5.2712434e+43
-1.1582696e+42
-6.5493857e+43
6.2349351e+42
6.7766221e+42
1.7958623e+42
-2.9440476e+42
-6.1960363e+43
5.2891127e+42
-3.9059295e+42
2.5367364e+42
-4.6185749e+43
4.8039037e+41
-1.0085759e+43
4.5064586e+42
-3.8765829e+40
9.7843952e+42
2.208006e+42
-6.1820037e+43
-2.2679623e+44
-5.6507458e+42
1.4360503e+43
-2.7790495e+42
-5.7036751e+42
1.8157006e+43
-4.718873e+43
-5.4766715e+41
4.6074411e+42
-5.4430229e+41
-5.8536305e+43
4.7120138e+42
-8.5493015e+42
-5.9201411e+42
-2.6095316e+44
2.1980781e+44
-2.5417385e+44
-1.1529362e+43
1.9002199e+43
-3.4889224e+42
-2.8811293e+42
1.8688053e+43
-5.001471e+43
-2.58507e+41
6.8485173e+43
2.4544724e+42
-2.2475729e+42
-3.5102301e+42
3.0067133e+42
-3.1717953e+41
-5.8415619e+43
2.7468388e+42
-1.5644035e+42
3.2803803e+42
-2.3958792e+42
-4.5567496e+43
6.2657855e+43
-3.7226831e+42
-3.6704493e+42
2.9146468e+42
2.9715759e+42
-5.4114886e+43
-2.0975037e+42
3.5540063e+42
-2.4681076e+42
3.0756976e+42
5.4991338e+43
2.0089921e+41
-2.4979767e+42
2.3902307e+42
2.9585877e+42
-4.0772435e+42
-1.1566344e+41
2.4029902e+42
-2.4167594e+42
-3.7604339e+42
3.1554208e+42
-5.0545213e+43
3.4596696e+42
-3.591829e+42
3.3964259e+42
-3.2151903e+42
2.9255925e+42
3.1249427e+42
-4.0867397e+42
-3.5763124e+42
-1.0852592e+43
-4.4903907e+41
5.6813562e+41
-6.0468839e+41
1.2362308e+40
-1.5318692e+43
1.2627905e+43
-3.4229163e+41
-1.606954e+43
-6.0810644e+41
5.4643907e+41
7.0502278e+41
-8.0663444e+41
-4.6369169e+41
-6.4990063e+41
5.9173205e+41
-4.909537e+41
7.4768273e+41
1.1726125e+43
-7.8017223e+40
-1.5134638e+43
-6.7035593e+41
7.619426e+41
-6.4401668e+41
7.587591e+41
-6.0249683e+41
-5.6287837e+41
7.7360565e+41
7.4233276e+41
-1.4707263e+43
-5.993659e+41
-6.556917e+41
7.0736393e+41
7.9237863e+41
2.9985368e+41
1.2183611e+43
-1.5447945e+43
-8.8215898e+40
-7.2466135e+41
7.2186599e+41
6.0014355e+41
-5.1198336e+41
1.088162e+43
-1.5640636e+43
2.1278555e+41
1.7081786e+41
-3.8608728e+40
5.4958323e+41
6.7975569e+41
-7.0421134e+41
-4.813972e+41
3.7655316e+41
-1.217176e+43
1.7188939e+41
-2.2285386e+41
-7.7045466e+41
6.8933909e+41
-5.3152745e+41
5.6854296e+41
3.9193284e+41
-1.5389091e+43
-4.0458716e+41
-8.3039228e+41
-5.7806913e+41
5.4582602e+41
6.9214142e+41
1.0961642e+43
-1.5547563e+43
8.9062753e+40
4.1341087e+41
2.4454194e+44
-4.8449741e+43
-1.390055e+43
4.883925e+43
4.9845292e+43
5.3450788e+43
-1.0432543e+43
1.3238044e+43
4.947476e+43
4.3881895e+43
3.8210573e+41
-1.3068952e+40
2.6456903e+42
-1.9745764e+42
9.1534632e+41
-2.8717685e+41
4.6364286e+42
-2.1412169e+41
3.9467301e+42
-3.6408549e+43
7.3843899e+42
4.264058e+42
-3.2062685e+41
1.1155864e+43
1.5499109e+41
-1.3501903e+43
-4.369825e+41
8.0806588e+41
8.0268996e+41
-2.878827e+41
1.0059708e+43
8.0186565e+41
-1.3322499e+43
-2.8898268e+41
1.4919349e+43
-7.2416587e+40
-7.2725475e+41
6.694668e+41
6.2082015e+41
-4.4364566e+41
1.5155014e+43
1.1191271e+42
1.1985132e+43
1.8432332e+41
-2.3354132e+41
-8.4434222e+41
6.1957071e+41
5.5295102e+41
-5.7211435e+41
1.873962e+41
-3.6464599e+41
5.9585164e+41
-8.6840397e+41
-5.8384594e+41
5.1111178e+41
1.0787795e+43
4.3588136e+41
4.1864793e+41
-2.177425e+43
-2.382858e+44
1.4827813e+43
-1.5872745e+43
-1.8587695e+43
1.242947e+43
3.0337453e+42
-3.9911493e+42
-6.7115741e+43
-4.0694742e+42
-3.9008208e+42
2.8206059e+42
2.3811485e+42
-6.803201e+43
-3.6180076e+42
-3.9978068e+42
2.9249138e+42
2.7588242e+42
-3.8873584e+42
-3.5866331e+42
2.9559118e+42
-6.8645787e+43
-2.3303071e+44
1.5220085e+43
1.2387179e+43
-1.7714503e+43
-1.5960192e+43
-1.8926736e+43
1.6331755e+43
-9.2797428e+42
-1.1652243e+43
-3.0843548e+44
1.4338394e+43
-3.0229183e+44
1.6354604e+43
-9.6237078e+42
-1.0828354e+43
1.3806227e+43
-3.0738974e+42
-5.0157638e+43
3.5249858e+42
2.7941822e+42
2.7438298e+42
-3.8544194e+42
-3.7509518e+42
-4.7767237e+43
2.6036384e+42
2.7380765e+42
-3.8700283e+42
-3.7265442e+42
-3.1674068e+42
3.2066308e+42
-6.3501769e+43
-3.9487065e+42
-3.8303373e+42
2.7978752e+42
2.8230792e+42
-6.0505304e+43
-3.8117287e+42
-3.9496729e+42
2.5857459e+42
2.4880917e+42
-2.8158116e+42
-5.0284041e+43
3.7895893e+42
2.7207264e+42
2.7495683e+42
-3.8123618e+42
-4.0375454e+42
-4.9763491e+43
2.8074621e+42
2.6181809e+42
-3.7967135e+42
-3.8025569e+42
-3.2297455e+42
-6.3210748e+43
3.5821534e+42
-3.8916214e+42
-4.1638542e+42
2.8095053e+42
2.6957239e+42
-6.5151127e+43
-3.799217e+42
-3.7977851e+42
3.0656935e+42
2.8576092e+42
-1.9388872e+43
-2.3783839e+44
2.4974264e+43
-1.0149288e+43
1.8964557e+43
1.7424615e+43
-1.2727449e+43
-4.6860353e+43
-3.572315e+42
4.0705182e+42
-3.7862245e+42
-3.5240697e+42
2.8942452e+42
2.8580155e+42
-2.9740187e+42
4.8439878e+42
-5.9645151e+43
-1.9243905e+42
-2.3036638e+42
3.4319654e+42
3.2279374e+42
4.9321192e+43
-3.8058613e+42
-6.206816e+43
-2.1822218e+42
3.7422681e+42
-2.2739901e+42
3.4124586e+42
-3.483923e+42
3.0760705e+42
-3.5329502e+42
2.7551802e+42
-3.6731555e+42
-4.7265338e+43
-3.9082947e+42
-3.6115742e+42
-3.5011121e+42
2.9276057e+42
2.9138222e+42
-3.2450198e+42
-2.2490701e+42
-2.0162421e+42
3.4142822e+42
3.2874969e+42
-5.9640342e+43
4.4742198e+43
-2.0817177e+42
-1.9889944e+42
3.2917105e+42
2.9460954e+42
-5.569315e+43
-2.2551451e+44
1.8170296e+43
1.5735681e+43
-1.0631878e+43
-1.0321722e+43
-3.5832765e+42
-3.5288008e+42
2.4666111e+42
2.7115367e+42
-1.960466e+43
-2.6224048e+44
2.4566939e+43
-4.1478301e+43
-2.5335794e+44
-3.6890882e+43
1.18086e+43
-1.4976657e+43
4.6929988e+41
-6.0152475e+41
2.342436e+41
-7.8800518e+41
5.8489165e+41
4.5611134e+41
-5.9148082e+41
3.4810027e+41
-7.9415348e+41
5.5725743e+41
-1.179625e+43
-6.344734e+41
4.4231104e+41
2.8242827e+41
5.5697444e+41
-8.2009308e+41
-1.5045117e+43
-6.7388411e+41
4.1856828e+41
1.8341939e+41
4.8971799e+41
-9.1012148e+41
-1.1132185e+43
1.4887065e+43
4.937827e+41
-5.7133188e+41
9.4898311e+41
5.8150852e+41
-7.9470483e+41
6.5390923e+41
-3.6901557e+41
7.8928868e+41
-1.3573041e+43
6.6283435e+41
-5.3780573e+41
-4.6656374e+43
-1.321224e+42
2.9735873e+42
6.3866469e+42
4.0978582e+42
-1.2372698e+42
-3.5511107e+42
5.6558552e+42
1.1870817e+43
4.366904e+41
-6.6545993e+41
5.558043e+41
-8.9556413e+41
5.035686e+41
-6.9156732e+41
4.0063706e+41
5.0348419e+41
-9.3578147e+41
4.7976447e+41
3.0039086e+44
1.3890538e+43
-1.1235956e+43
-2.9910757e+44
3.416083e+43
1.4566823e+43
-1.3732911e+43
4.3351042e+43
-1.4752766e+43
1.5047822e+43
-2.8890965e+44
4.7350736e+43
1.6973181e+43
-1.348451e+43
-5.0722862e+43
-1.1533287e+42
5.764855e+42
-1.5140394e+42
-6.3434989e+43
4.6165408e+42
5.9816475e+43
-5.7900025e+43
-2.9176606e+42
1.7162176e+42
2.0434817e+42
4.4601507e+42
-4.2499197e+42
1.7090231e+42
-3.0557073e+42
4.7746949e+42
-4.0844232e+42
2.2179065e+42
5.2576644e+43
-1.2032335e+42
4.9593678e+42
-6.4850589e+43
5.4043259e+42
-5.912339e+43
-4.0328989e+42
5.5983689e+42
-3.9814406e+42
2.4459579e+42
2.5557363e+42
1.1853424e+43
-6.6755979e+41
3.8427204e+41
-1.5068827e+43
1.1623895e+40
4.83836e+41
-8.9032749e+41
3.8397523e+41
-6.548165e+41
4.4552043e+41
-8.014658e+41
5.1116949e+41
-4.8544292e+43
-8.9633443e+41
4.4026904e+42
3.9302503e+41
1.9865317e+42
-5.9951763e+43
-3.9892034e+43
-4.0143524e+41
-9.7428942e+42
2.5768581e+42
-5.9905665e+41
-5.1971048e+43
7.8209075e+42
2.0781256e+42
4.766636e+43
-5.5051021e+43
-2.4017618e+42
3.4837111e+42
9.0950246e+41
5.9761437e+42
-5.6492e+43
2.1164303e+42
-2.4090868e+42
4.17482e+42
-3.6549125e+42
2.0758616e+42
2.8291437e+42
-1.3096407e+42
-5.7204827e+43
3.7113392e+42
2.8375363e+42
-2.2504931e+42
-2.5788322e+44
-2.0576212e+43
4.3676015e+43
5.5822912e+43
5.6700132e+43
9.3183679e+42
2.4446771e+44
-3.7590485e+43
5.0150164e+43
4.7342075e+43
8.0141608e+42
4.971469e+43
4.6708561e+43
-4.3738179e+43
-8.4232779e+40
-7.019237e+41
3.0287466e+42
4.0266271e+42
-1.0349332e+42
-1.3787776e+42
1.9000889e+42
4.1620742e+43
1.4483694e+42
-7.2538961e+41
4.3786542e+42
4.0845401e+42
-7.1277641e+41
-1.0884556e+43
-1.934989e+41
1.5556148e+43
9.2820374e+40
2.706652e+38
-1.5533442e+43
-8.0328728e+39
1.2598312e+43
-1.5135966e+43
-3.8593779e+41
-6.5785647e+41
4.1960368e+41
4.9717292e+41
-8.4527459e+41
3.7759778e+40
1.6189309e+43
3.9253676e+41
-7.1262874e+41
-9.708257e+41
4.7538519e+41
-1.0748337e+43
4.1420221e+41
3.7668313e+41
3.2242795e+41
-9.060891e+40
-1.385419e+43
-1.0896252e+43
-3.9160088e+41
-1.5352058e+41
-3.7226019e+40
-1.3110817e+43
1.7834817e+41
2.8377498e+41
1.2009698e+43
-1.5563233e+43
-8.7640344e+41
5.8562846e+41
5.3397963e+41
-1.082056e+42
1.1675543e+43
-1.4696021e+43
5.3998697e+41
7.2665818e+41
-1.0416761e+42
-8.247004e+41
3.5363576e+41
1.5546219e+43
-1.045878e+42
4.7668691e+41
5.7486815e+41
-9.4341983e+41
1.5045333e+43
-9.0306071e+41
5.7288462e+41
6.8034834e+41
-7.593927e+41
1.2010784e+43
6.9907251e+40
-1.4314227e+43
5.3546486e+41
-5.1019125e+41
-6.8287695e+41
7.5641665e+41
1.4261996e+41
5.248266e+41
-6.5340423e+41
-9.5836852e+41
5.542867e+41
1.1015814e+43
-1.3231179e+43
-7.6440189e+41
6.267693e+41
-6.2693379e+41
7.3672571e+41
-1.0163267e+42
5.4741434e+41
7.1378527e+41
-7.7917744e+41
1.0923665e+43
-5.0386921e+41
-2.7927897e+41
-3.8893174e+41
1.5377184e+43
4.1868931e+40
-1.2629731e+43
1.6180734e+43
-1.3900122e+41
-7.4274369e+41
5.2590619e+41
4.029347e+41
-1.0284318e+42
-2.6352895e+40
3.6682209e+41
4.495777e+41
-7.5844526e+41
-1.0531317e+42
-1.074705e+43
-4.654928e+41
5.8715985e+39
-6.0965179e+41
-2.3267729e+41
1.2584541e+43
-6.3182481e+40
-7.2976973e+41
3.9544782e+41
-9.2978484e+41
5.5340486e+41
-1.9137171e+41
-6.9390238e+41
4.1608357e+41
5.7758864e+41
-9.034652e+41
-1.1776056e+43
-3.5454173e+40
-7.7580537e+41
6.7213114e+41
7.194387e+41
-6.7058774e+41
7.9064513e+40
-1.5204893e+43
-8.5403787e+41
5.9629984e+41
6.8579102e+41
-7.3328434e+41
-1.1555575e+43
7.6393085e+41
-6.2220079e+41
6.91104e+41
-6.6215446e+41
-1.4800158e+43
7.389761e+41
-6.8431569e+41
6.8145834e+41
-7.1587271e+41
1.3014827e+41
-1.1951898e+43
-9.5607106e+41
-7.918034e+41
5.2169313e+41
6.2963696e+41
-1.1672461e+43
-7.3985851e+41
-7.3037318e+41
6.7773018e+41
6.9704574e+41
3.0175617e+41
-1.0528628e+42
4.9664465e+41
-8.7791507e+41
6.1360835e+41
6.2244218e+41
-8.5213716e+41
6.7486303e+41
-7.5143746e+41
2.4319712e+42
-1.7143714e+41
-7.7727358e+40
-3.4584706e+42
-1.4181454e+41
3.4762653e+42
2.8234465e+40
-2.7866181e+42
3.4146234e+42
-2.7492674e+41
1.608212e+41
1.3943554e+41
-6.167343e+40
-2.8450867e+40
-1.8447191e+41
-3.7230308e+42
1.6939976e+41
-7.7061468e+40
-1.0412601e+41
1.5460243e+41
1.4992879e+41
2.7093583e+42
-1.5050619e+41
-1.3804814e+41
-1.0108323e+41
1.4156719e+41
1.53509e+41
-2.4337032e+42
-1.4327194e+41
7.006328e+40
4.6721328e+40
-1.6981609e+41
-9.5739336e+40
1.5015292e+41
1.5630423e+41
-1.420599e+41
2.4620856e+42
-9.4999187e+40
-3.4118119e+42
2.3059033e+41
-9.1840412e+40
-1.0800839e+41
1.5915809e+41
-1.3894622e+41
2.9731011e+42
1.4059248e+41
1.5860909e+41
-1.2759377e+41
-5.6659669e+40
2.3733281e+42
-8.925623e+40
-3.0774324e+42
-1.2535671e+41
1.6665248e+41
1.4660153e+41
-1.3355084e+41
3.0261823e+42
-9.9267393e+40
1.4398815e+41
1.6443226e+41
-1.2968577e+41
-1.1250697e+41
1.2679673e+41
2.3349104e+42
-1.1262938e+41
-1.0859721e+41
1.6394959e+41
1.4228704e+41
-1.230295e+41
2.3294378e+42
-1.2650335e+41
-1.1208918e+41
1.5596612e+41
1.3970264e+41
-1.2361733e+41
-1.2951089e+41
-1.1586495e+41
1.6157126e+41
1.4349111e+41
1.6426074e+41
-1.1024894e+41
-1.2553575e+41
1.408023e+41
-3.0326757e+42
-1.0516971e+41
1.6415903e+41
1.5682147e+41
-1.1642528e+41
-4.5343954e+40
2.402053e+42
-3.1237495e+42
-1.1297985e+41
1.6811617e+41
1.5988671e+41
-1.3660286e+41
2.4973171e+42
-3.2959456e+42
-1.3103113e+41
1.6112143e+41
8.9499464e+40
-1.2763155e+41
2.6070472e+40
8.32306e+40
1.6785019e+41
-1.9526269e+41
-1.5162888e+41
1.6478692e+41
1.6359355e+41
-1.2922644e+41
-1.1059503e+41
2.5719625e+42
2.9969516e+40
-3.2822966e+42
-2.0468593e+40
-2.3824209e+40
1.4672818e+40
3.2365376e+42
2.173218e+40
2.088897e+40
-2.5860808e+42
3.640647e+42
2.9552009e+40
-3.6661762e+42
-3.4419728e+39
-3.3392026e+40
-2.5498213e+42
-9.7814561e+39
-2.5385543e+42
1.1879625e+40
-1.0150921e+40
4.8465858e+39
-9.3289701e+39
-1.7434774e+39
2.2794688e+40
2.6120071e+42
7.0498374e+40
-3.3220424e+42
-1.0078373e+41
-3.0130448e+40
5.6940919e+40
-2.9976976e+40
-7.9123944e+39
2.6026422e+42
-3.6844568e+42
-1.3686174e+40
4.2617672e+39
9.836646e+40
2.6499566e+42
-3.3780673e+42
-1.9659017e+41
-4.0548703e+39
2.632489e+42
-3.749709e+42
-3.6365231e+40
-7.1002998e+40
-1.6569611e+40
-1.0620491e+41
5.5258446e+40
2.2318938e+44
2.344081e+44
-5.9693668e+43
5.4687221e+43
4.8753706e+43
5.2969751e+43
1.8466773e+43
-1.2105008e+43
4.7936206e+43
4.3515132e+43
1.119374e+43
1.1124291e+43
1.1708497e+43
-1.1107618e+42
4.4572196e+42
1.1196366e+43
1.0143478e+43
-1.9381915e+41
2.7406576e+41
6.828444e+41
-7.7699296e+41
4.4915086e+41
-1.2700666e+41
1.0393924e+42
8.4675221e+41
-1.5328986e+41
8.6913119e+42
7.0381622e+41
1.5121396e+42
2.4113135e+42
-6.446412e+40
-1.0385631e+40
-2.9907279e+42
2.172828e+41
-5.0462761e+40
3.219344e+42
-1.3382334e+41
1.8432321e+41
-2.5519047e+42
3.7666922e+42
1.9135053e+41
1.267804e+41
-3.4000468e+42
2.6239653e+42
4.7936129e+40
-2.4864373e+41
6.8834231e+40
7.422385e+40
3.4049066e+42
-2.1187051e+41
2.6174558e+40
-2.7217505e+42
3.8547438e+42
5.5835593e+40
7.7900271e+40
2.7037099e+42
9.3878901e+40
-2.1670092e+41
-2.0320641e+40
9.2394034e+40
3.4060096e+42
-1.8930092e+41
1.4180425e+40
-2.7253647e+42
3.8097358e+42
-2.3338373e+39
-1.4316019e+40
-2.6888967e+42
1.312359e+41
-2.2463079e+41
7.8263827e+37
1.1289942e+41
-2.5289856e+41
-1.1290037e+40
2.6732914e+42
-2.606862e+40
-3.3432639e+40
-5.2109642e+43
-3.1641916e+42
-4.1451576e+42
-3.5436411e+42
2.9043963e+42
2.6537243e+42
-3.5742562e+42
-6.6789218e+43
3.1660609e+42
-3.5089962e+42
-4.2553014e+42
2.7048877e+42
5.0981341e+43
-3.8897449e+42
-6.660045e+43
-4.1492466e+42
-3.9379379e+42
3.009063e+42
2.4250077e+42
-3.6769209e+42
2.5945553e+42
-3.9358927e+42
-4.1058461e+42
2.2549859e+42
3.9227604e+41
1.1352628e+43
-5.7796211e+41
-1.4381733e+43
5.2916882e+41
4.4216278e+41
-9.1910508e+41
-9.0691272e+41
1.1616594e+43
4.0464513e+41
-1.4768559e+43
5.2809824e+41
5.0596519e+41
-9.3050838e+41
-8.6478169e+41
-4.5802311e+41
5.1917232e+41
-7.7423001e+41
5.6714833e+41
-8.2194e+41
5.5771125e+41
-6.5945094e+41
-7.9204489e+41
5.7300228e+41
-8.0825352e+41
5.1005723e+41
-3.7124596e+41
1.1617068e+43
5.5767207e+41
-1.4738066e+43
5.5633107e+41
5.2464849e+41
-8.5365159e+41
-9.1076033e+41
1.17018e+43
-1.4876911e+43
5.3907649e+41
4.8850664e+41
-9.0759655e+41
-9.0928353e+41
-4.2476942e+41
-7.4615468e+41
5.9303581e+41
-8.0500192e+41
5.8047862e+41
-7.8171123e+41
6.0657696e+41
-8.0114312e+41
5.5175105e+41
3.8584208e+41
-4.686022e+41
5.578554e+41
4.9638726e+41
-1.484208e+43
-8.9761123e+41
-8.7575154e+41
1.1730301e+43
5.5858757e+41
5.32579e+41
-1.4854358e+43
-9.0746588e+41
-8.383951e+41
-7.5759985e+41
5.886544e+41
-8.1799657e+41
-2.8346093e+42
-5.2153375e+43
2.6854979e+42
2.9268438e+42
-3.6070423e+42
-4.1199306e+42
3.2029979e+41
5.48209e+41
4.889265e+41
-1.4349301e+43
-8.7712693e+41
-8.6690231e+41
5.3647283e+41
5.1777337e+41
-1.4856853e+43
-9.1275682e+41
-8.5575207e+41
-5.0035172e+43
2.5284274e+42
2.9494824e+42
-3.5949995e+42
-3.9685488e+42
3.0908674e+42
-6.4599957e+43
2.8235553e+42
-3.9651962e+42
-4.0157011e+42
2.4989187e+42
-6.7037918e+43
3.1417665e+42
-3.5818585e+42
-4.1615975e+42
2.7271652e+42
-4.9376315e+43
-4.0474061e+42
3.1123521e+42
-3.5674457e+42
-4.0323868e+42
2.8160054e+42
-3.858455e+42
-6.1489552e+43
-2.6692947e+42
-2.1878451e+42
3.5828926e+42
3.0835833e+42
4.9871777e+43
-4.5042299e+42
3.748386e+42
-2.3431982e+42
-2.6230101e+42
3.2124924e+42
-6.2872915e+43
-1.9907835e+43
-2.4432959e+44
1.9627764e+43
1.7691932e+43
-9.7552882e+42
-1.2522268e+43
-4.3815286e+42
3.049624e+42
-3.6706709e+42
-3.9704186e+42
2.5353087e+42
-2.3691937e+44
1.9552159e+43
1.7024858e+43
-1.0688383e+43
-1.1354876e+43
-4.985734e+43
-3.4953726e+42
3.0739264e+42
-3.6427768e+42
-3.9936529e+42
2.8503793e+42
-3.4026536e+42
-6.2550008e+43
-2.2653581e+42
3.5694474e+42
-2.6524554e+42
3.3157521e+42
4.835539e+43
-5.9959067e+43
-2.2090777e+42
-2.4111287e+42
3.2022168e+42
3.6346582e+42
-3.6429981e+42
-3.7729287e+42
2.6225305e+42
2.9302036e+42
1.7144771e+43
-2.5841268e+44
-4.3564184e+43
-2.6881417e+44
-4.6679554e+43
1.218998e+41
-1.1390407e+43
-1.296469e+41
5.7359224e+41
-8.4315024e+41
-7.9722916e+41
5.7722341e+41
-1.1271745e+43
2.3255786e+41
5.3342293e+41
-8.2262782e+41
-8.1060556e+41
5.8024232e+41
7.4133881e+40
3.8480251e+39
-1.4799964e+43
-8.1523412e+41
-8.6641577e+41
5.7340727e+41
5.8540099e+41
-1.4587916e+43
1.6264367e+41
-8.2755928e+41
-8.4501737e+41
5.3708933e+41
6.1219879e+41
2.0216816e+41
-1.1039708e+43
5.6758419e+41
-8.2018822e+41
-7.4429413e+41
5.9943954e+41
-1.1189861e+43
5.4334084e+41
-7.9783859e+41
-7.8305877e+41
5.9926141e+41
-6.1509065e+40
-1.4484971e+43
5.5297668e+41
-8.5007506e+41
-8.151697e+41
6.0270794e+41
-1.4147162e+43
-7.6602607e+41
-8.5223362e+41
5.7715297e+41
5.947514e+41
4.2884836e+40
1.1481999e+43
1.0117475e+39
-1.4902091e+43
-8.5773435e+41
-9.1198217e+41
5.9195971e+41
6.0524857e+41
1.1358219e+43
1.6721787e+41
-1.4717859e+43
-8.7715142e+41
-8.8630423e+41
5.5626816e+41
6.1215927e+41
-9.776397e+40
1.9555808e+41
-8.3915126e+41
5.4177079e+41
5.981955e+41
-8.3042909e+41
-9.1634657e+40
-8.1129422e+41
-8.6239502e+41
5.8015718e+41
5.9251715e+41
6.2323886e+40
1.1005482e+43
-1.4066727e+43
-8.2017169e+41
-9.249905e+41
5.3456479e+41
5.8121006e+41
1.1233444e+43
-1.4490066e+43
-8.5704961e+41
-9.0734613e+41
5.2379697e+41
6.1088414e+41
-1.8808343e+41
5.1466507e+41
-8.6818194e+41
-8.1574071e+41
5.9992606e+41
5.3088129e+41
-8.7898728e+41
-7.8233201e+41
5.7119569e+41
2.6937408e+41
-1.1496299e+43
-3.2774661e+41
5.8812514e+41
-8.1676266e+41
-8.2647126e+41
5.4401725e+41
-1.1358656e+43
4.0574704e+41
-8.491923e+41
-8.2322668e+41
5.4818144e+41
5.650813e+41
5.2905267e+40
-3.1962098e+42
-1.9389164e+41
-2.7488691e+41
-1.4688062e+43
3.6871918e+41
-8.6844431e+41
-8.3808601e+41
5.573077e+41
5.7244084e+41
-2.9347908e+41
-1.4930194e+43
5.7172734e+41
-8.7938335e+41
-8.4761595e+41
5.7021648e+41
-2.3404567e+41
-1.1422843e+43
5.4261502e+41
-8.3094671e+41
-8.308535e+41
5.6329264e+41
-1.1253835e+43
-8.0222636e+41
-8.3953948e+41
5.6576216e+41
5.4149849e+41
1.5638902e+41
-1.4522978e+43
-8.1426683e+41
-8.5487539e+41
5.7201124e+41
5.7581671e+41
-1.4812129e+43
-8.4585608e+41
-8.4586937e+41
5.467912e+41
5.9457478e+41
-2.9933431e+41
1.1438e+43
-1.4715317e+43
3.1352726e+41
5.7107076e+41
-8.8503805e+41
-9.0525712e+41
5.9073434e+41
1.1575433e+43
-3.1790181e+41
-1.5082175e+43
-9.1475583e+41
-9.0581398e+41
5.5047312e+41
6.3155651e+41
-3.3892455e+41
3.7626148e+41
-8.5701281e+41
-7.8466466e+41
5.8091733e+41
5.8286955e+41
-4.0178161e+41
-8.5992816e+41
5.8348207e+41
5.4451777e+41
-8.6424996e+41
1.6052514e+41
1.1221265e+43
-1.4536399e+43
-8.640455e+41
-8.3814728e+41
5.8567083e+41
6.3913421e+41
1.142865e+43
-1.4887851e+43
-8.9565858e+41
-8.2504951e+41
6.0836067e+41
6.1638896e+41
-2.2364243e+41
-8.1685526e+41
5.6923176e+41
5.8797377e+41
-8.3627399e+41
-8.2675795e+41
5.9486856e+41
5.6615181e+41
-8.0645093e+41
4.8052847e+43
-3.5450169e+42
-5.4084375e+43
5.5730356e+42
-6.1457688e+42
-3.8079105e+42
5.9157899e+42
-1.391948e+42
4.1219912e+42
4.4098512e+42
-1.8755059e+42
-4.8482292e+43
-4.9157695e+42
4.0113859e+42
4.3800796e+42
-1.7047746e+42
-1.7400777e+42
-5.5783585e+42
-5.3314805e+43
-5.8615905e+42
4.3185803e+41
1.1513647e+43
-1.4582147e+43
-6.4862525e+41
-9.2252095e+41
-8.9089903e+41
7.031763e+41
6.0928922e+41
1.1301424e+43
-1.4283304e+43
4.2522288e+41
-9.1299369e+41
-8.7901393e+41
6.2058173e+41
6.3587382e+41
-3.8117847e+41
4.1533729e+41
-8.888064e+41
-8.6428523e+41
5.8960407e+41
6.0968276e+41
-4.8534403e+41
6.1764787e+41
-8.9240306e+41
-9.0363369e+41
5.720426e+41
-6.0017795e+41
1.0702598e+43
8.9365949e+41
-1.3167346e+43
-5.8169474e+41
7.4301654e+41
-6.4738012e+41
7.3293981e+41
1.0899889e+43
-5.2417294e+41
-1.3482136e+43
7.082839e+41
-6.2013057e+41
7.5450303e+41
-6.4007761e+41
-6.2021296e+41
7.6784299e+41
-7.8994485e+41
-8.4375416e+41
6.65614e+41
6.7171473e+41
-7.3361472e+41
6.9453118e+41
-8.2935346e+41
-8.4998305e+41
6.4388662e+41
1.1305859e+43
-4.4400744e+41
-1.3855655e+43
-6.2141542e+41
7.4017787e+41
8.1185456e+41
-6.4320598e+41
-4.5959712e+41
1.5011814e+43
6.9332819e+41
-7.9423841e+41
-8.3786312e+41
7.0107007e+41
1.1017644e+43
-6.7630049e+41
-1.3404633e+43
-5.9643068e+41
7.6208753e+41
7.827047e+41
-6.0306796e+41
1.4673555e+43
-4.930762e+41
-7.9533099e+41
-8.0721737e+41
7.0952883e+41
6.8304759e+41
-1.1575848e+43
-2.6184319e+41
6.6015754e+41
-8.3557362e+41
-8.9212608e+41
6.0811002e+41
-2.98349e+41
6.4725029e+41
-8.3785519e+41
-8.9405826e+41
6.3740347e+41
-1.134739e+43
-2.0413773e+41
6.7524702e+41
-8.7631554e+41
-8.6815545e+41
5.7769007e+41
-1.5930462e+41
6.4185931e+41
-8.7790759e+41
-8.5967342e+41
6.0968705e+41
1.3747517e+41
1.1365331e+43
-1.4461085e+43
-2.4670023e+41
-8.5967617e+41
-8.9208011e+41
6.9645494e+41
6.4870668e+41
1.1347858e+43
-1.4384803e+43
-8.8080732e+41
-8.8670587e+41
6.1409356e+41
6.6742497e+41
1.0892609e+41
-1.9081707e+41
-8.5313848e+41
-8.9836273e+41
6.1022099e+41
6.1401582e+41
-8.7009125e+41
-8.8024969e+41
5.7121535e+41
6.2773472e+41
4.2400313e+41
1.0855222e+43
-4.3506624e+41
-1.3385783e+43
-5.9544027e+41
-6.0559521e+41
7.6142338e+41
7.3217043e+41
1.0844175e+43
-1.3378968e+43
-6.2364522e+41
-5.9783043e+41
7.2647229e+41
7.6125918e+41
-3.7007752e+41
-8.1042745e+41
-8.0747965e+41
6.6317485e+41
7.0538735e+41
-4.5689531e+41
6.9740558e+41
-8.2093262e+41
-7.8951948e+41
6.8149835e+41
-4.3536038e+42
-4.7132565e+43
4.0721974e+42
4.3334796e+42
-1.4816164e+42
-1.8236972e+42
4.41264e+41
9.8708758e+42
-1.1975375e+43
-4.9394953e+41
-5.3449847e+41
7.2586377e+41
6.7339204e+41
1.0580294e+43
-1.2986016e+43
-5.5432777e+41
-5.5487154e+41
7.5661456e+41
7.7551116e+41
-5.6754189e+41
1.4133114e+43
-7.5380164e+41
-7.7532275e+41
6.6308618e+41
7.1557555e+41
1.347735e+43
6.3603192e+41
-7.7966895e+41
-7.3904397e+41
6.0374341e+41
-4.3483933e+43
3.7799547e+42
4.3152449e+42
-1.2521795e+42
-1.2835111e+42
4.8470509e+42
-4.553298e+42
-5.2158473e+42
2.6424289e+41
1.0746274e+43
-8.259671e+41
-8.8805634e+41
5.7191425e+41
5.8146942e+41
1.1095253e+43
-8.422059e+41
-8.7913797e+41
5.8946471e+41
6.5848146e+41
2.9165179e+41
-8.2904068e+41
-9.1968187e+41
5.3928485e+41
5.6742802e+41
-8.5075052e+41
-8.983608e+41
5.4469494e+41
6.2197536e+41
2.1548489e+43
4.9759883e+43
4.7184182e+43
-1.4495046e+43
2.6595914e+42
-3.346035e+42
-3.2158777e+40
-7.2842367e+40
3.3183941e+42
-1.1605745e+40
-3.2752461e+40
2.6207194e+42
-2.6325515e+40
-4.7358216e+40
-5.0531304e+40
-4.6468636e+40
-2.6699035e+42
-5.8619107e+40
-5.6274776e+40
-3.3438436e+42
-7.9938102e+40
-7.9899332e+40
-2.7054944e+42
-9.033628e+40
-7.4863827e+40
-3.4266654e+42
-1.3048814e+41
-9.4826881e+40
-2.7250674e+42
3.5032952e+42
-1.7564749e+41
3.4764841e+40
-3.2760458e+42
-1.9282061e+41
2.6995914e+40
-1.0364534e+43
7.235428e+41
-2.7455633e+41
1.2582911e+42
-2.3457807e+41
9.2879359e+41
-2.4878388e+42
-1.0440659e+41
1.7038535e+41
1.8417455e+40
1.3408487e+41
-3.0513664e+42
-9.1635062e+40
9.0214569e+41
2.8046421e+42
-1.6416242e+41
-4.7063773e+40
3.484971e+42
-1.3516746e+41
-4.3925583e+40
2.7615657e+42
-1.5662583e+41
-8.1818348e+40
-1.5780343e+41
-6.0963886e+40
2.7389382e+44
-1.7878535e+43
1.7632112e+43
-3.7623668e+42
2.0983385e+43
-2.9613339e+44
1.4558767e+43
-8.9101855e+42
2.499001e+43
1.705992e+43
2.8607532e+44
1.1894186e+43
-1.1818395e+43
-2.8436602e+44
1.245243e+43
2.8950796e+43
-1.1101255e+43
1.2411933e+43
-1.5771641e+43
4.0144012e+43
1.2802482e+43
-1.4993384e+43
-2.8407471e+44
4.4472506e+43
-1.3456945e+43
-1.5166074e+43
1.5340979e+43
1.6051786e+43
-5.211472e+43
5.166175e+41
5.6457542e+42
-2.1041386e+42
-6.3899172e+43
5.3634379e+42
-4.9258475e+43
-1.9592769e+42
4.5439448e+42
-2.8512869e+42
-6.0973694e+43
3.4114315e+42
-1.1718633e+43
1.5018706e+43
-6.8910146e+41
3.627659e+41
-1.0464237e+42
3.6209108e+41
-2.0404815e+41
5.6638059e+43
-5.4765998e+43
2.1587989e+42
-4.4302216e+42
4.0857471e+42
2.0700155e+42
-4.1475374e+42
-1.4923343e+43
3.8650568e+41
-6.8126022e+41
-3.7578693e+41
-1.033175e+42
3.7923455e+41
4.797379e+42
-4.5352639e+42
-4.1475489e+42
2.1820559e+42
2.0334685e+42
1.1836384e+43
-6.7273463e+41
3.7174602e+41
-2.4847122e+41
-9.8286765e+41
3.9755546e+41
-6.8218369e+41
3.4557096e+41
-1.0318845e+41
3.8579782e+41
-9.5465693e+41
-6.1125939e+43
5.964499e+42
-3.2428069e+42
-3.4556103e+42
-1.2409753e+41
1.1272652e+43
-1.4529258e+43
-9.521209e+41
2.2050845e+41
5.0737344e+41
5.1284728e+41
-9.4079962e+41
-6.0049718e+43
-4.0609902e+42
4.9348018e+42
-3.9987504e+42
2.8679896e+42
2.6749544e+42
1.1075843e+43
-1.4366101e+43
-8.5790471e+41
-9.2613736e+41
4.9526782e+41
4.8512303e+41
4.3321326e+41
5.2998532e+41
-7.965818e+41
-7.9552605e+41
4.9690194e+41
4.9644555e+41
-7.9768589e+41
-8.1159953e+41
5.4482072e+41
5.4065512e+41
-2.5887258e+42
3.2528806e+42
8.0512747e+40
-1.5909565e+41
-2.9536646e+39
-1.7077199e+41
1.0022674e+41
8.0453712e+40
-1.6482592e+41
-3.236601e+42
-1.0930748e+41
-2.1387764e+41
8.7378839e+40
2.5539129e+42
-1.6192818e+41
7.2385067e+40
9.5559091e+40
-1.6288965e+41
1.0109815e+41
-1.6684597e+41
6.8084539e+40
9.7761771e+40
-1.5835605e+41
1.0433745e+41
-4.564334e+43
-2.1636374e+42
3.1301554e+42
-4.2458642e+41
1.3111205e+42
-5.6361732e+43
-4.7212915e+43
7.7184077e+41
3.6249546e+42
-1.5230856e+42
3.3010319e+42
6.0517046e+43
-5.3805122e+42
3.5242407e+42
-5.6135834e+41
3.0542793e+42
3.7334714e+42
4.6065254e+42
-7.7270448e+41
-5.2752567e+43
-3.6277881e+42
2.1554229e+42
2.0424713e+42
3.4081203e+42
-3.9804783e+42
1.181791e+43
-1.4581473e+43
-6.9694473e+41
4.2615901e+41
-1.8285901e+41
3.683795e+41
-8.1410501e+41
3.8426728e+41
-6.6822289e+41
-5.8268544e+40
-9.7734381e+41
3.828184e+41
-5.2724807e+43
-2.0302717e+42
-2.3582116e+42
2.865451e+42
2.5872161e+42
2.194812e+42
-1.0790737e+43
-5.2865456e+41
-4.7853828e+40
-3.3548585e+40
-1.281476e+43
-2.8352193e+41
-2.4137858e+44
-2.4912931e+43
4.8186587e+43
5.1193401e+43
5.1100999e+43
1.5533033e+43
5.5252279e+43
5.4343751e+43
2.1879328e+44
2.3044588e+44
2.5158016e+44
4.4704035e+43
1.769163e+43
4.7546679e+43
4.258901e+43
4.3365971e+43
3.8596301e+43
-1.8606938e+42
1.0454777e+43
1.1218833e+43
1.108753e+43
3.8929113e+42
1.1440925e+43
1.1006074e+43
1.0296502e+43
3.4848313e+42
1.0675857e+43
9.7222219e+42
8.6422969e+42
3.4091252e+41
2.0829113e+41
4.9968919e+41
3.7144768e+41
-1.0089294e+43
4.5139719e+41