/*--------------------------------*- C++ -*----------------------------------*\
  =========                 |
  \\      /  F ield         | OpenFOAM: The Open Source CFD Toolbox
   \\    /   O peration     | Website:  https://openfoam.org
    \\  /    A nd           | Version:  7
     \\/     M anipulation  |
\*---------------------------------------------------------------------------*/
FoamFile
{
    version     2.0;
    format      ascii;
    class       volScalarField;
    location    "0";
    object      nuTilda;
}
// * * * * * * * * * * * * * * * * * * * * * * * * * * * * * * * * * * * * * //

dimensions      [0 2 -1 0 0 0 0];

internalField   uniform 1e-06;

boundaryField
{
    frontAndBack
    {
        type            zeroGradient;
    }
    inlet
    {
        type            fixedValue;
        value           nonuniform 0();
    }
    outlet
    {
        type            zeroGradient;
    }
    solidWall
    {
        type            fixedValue;
        value           uniform 0;
    }
    procBoundary6to0
    {
        type            processor;
        value           uniform 1e-06;
    }
    procBoundary6to1
    {
        type            processor;
        value           uniform 1e-06;
    }
    procBoundary6to4
    {
        type            processor;
        value           uniform 1e-06;
    }
    procBoundary6to7
    {
        type            processor;
        value           uniform 1e-06;
    }
    procBoundary6to14
    {
        type            processor;
        value           uniform 1e-06;
    }
    procBoundary6to15
    {
        type            processor;
        value           uniform 1e-06;
    }
}


// ************************************************************************* //
