/*--------------------------------*- C++ -*----------------------------------*\
  =========                 |
  \\      /  F ield         | OpenFOAM: The Open Source CFD Toolbox
   \\    /   O peration     | Website:  https://openfoam.org
    \\  /    A nd           | Version:  7
     \\/     M anipulation  |
\*---------------------------------------------------------------------------*/
FoamFile
{
    version     2.0;
    format      ascii;
    class       surfaceScalarField;
    location    "0";
    object      phi;
}
// * * * * * * * * * * * * * * * * * * * * * * * * * * * * * * * * * * * * * //

dimensions      [0 3 -1 0 0 0 0];

internalField   nonuniform List<scalar> 
102230
(
-2.6591126e-07
0.00022832012
0.00022846823
0.00024300632
0.00024289063
0.00022974639
0.00023016766
0.00022989496
0.00023031854
2.8774086e-07
3.0969308e-06
-5.7851813e-06
5.516953e-05
5.3575573e-05
5.9635009e-05
6.2586202e-05
3.0901212e-06
-5.7852395e-06
5.5134258e-05
6.2558619e-05
5.3614234e-05
5.9666921e-05
-2.4182746e-07
0.00019897413
0.00019896097
-5.3082759e-05
5.342069e-05
5.3271844e-05
-5.3234355e-05
0.00080498541
5.151256e-05
5.1658892e-05
-5.1571596e-05
-5.1719827e-05
2.9403077e-07
-1.2546284e-05
-1.3190888e-05
0.00025026635
1.1101111e-05
1.1560994e-05
-1.3220414e-05
-1.2516968e-05
0.00025026946
1.1523574e-05
1.1138686e-05
-2.8900414e-06
2.8782287e-07
5.6243233e-05
6.0748198e-05
5.8642314e-05
5.4741839e-05
2.7608238e-07
5.5301773e-05
5.390273e-05
5.682804e-05
5.5420112e-05
-2.8904677e-06
5.8672057e-05
6.0722192e-05
5.620772e-05
5.4781296e-05
5.534201e-05
5.6791898e-05
5.3941953e-05
5.5384028e-05
6.0276519e-07
1.6334916e-06
9.1747407e-08
-3.2868473e-06
1.4729142e-05
1.2839047e-05
1.3182953e-05
1.5377227e-05
1.751193e-06
-3.2559197e-06
1.3139807e-05
1.5324744e-05
1.2746146e-05
1.4535295e-05
-5.5334935e-07
4.945548e-05
9.0262303e-08
5.0385241e-05
1.6351797e-06
7.4875603e-07
-3.2868062e-06
1.3192332e-05
1.2829967e-05
1.5384728e-05
1.4721827e-05
6.7944276e-07
5.0384178e-05
1.7495098e-06
-3.255945e-06
1.4543283e-05
1.2755849e-05
1.3130937e-05
1.5317855e-05
4.9458859e-05
0.00020000836
-2.8284821e-07
-1.4388926e-05
-1.4965939e-05
1.3284287e-05
1.3058027e-05
-2.7818218e-07
-1.3063697e-05
1.4065518e-05
1.4534647e-05
-1.3380676e-05
0.0002510874
-0.00020001048
-1.3342584e-05
1.4572165e-05
1.4028744e-05
-1.3102687e-05
0.00025109423
-1.4426957e-05
-1.4927761e-05
1.3322804e-05
1.3019089e-05
-5.0571758e-05
-5.0717465e-05
5.3583576e-05
5.3440635e-05
-5.2044581e-05
-5.1901426e-05
5.1171665e-05
5.1031891e-05
2.8462362e-07
-0.00020009334
0.00025147861
-0.0002000914
0.0002514719
-2.8803497e-07
-0.00019648535
2.387051e-07
0.00024605879
1.3875061e-05
-1.2067622e-05
-1.2333809e-05
1.4370705e-05
2.4241236e-07
1.4609303e-05
1.4328308e-05
-1.229167e-05
-1.2780763e-05
5.0893332e-05
6.2824848e-08
-3.1981537e-06
3.733602e-06
3.6510644e-06
6.1479732e-08
6.3639102e-05
-3.1467347e-06
-3.0630633e-06
3.6933626e-06
3.8299806e-06
-4.994391e-08
-3.8264021e-06
-3.6056135e-06
6.3564927e-05
2.3216244e-06
2.2163657e-06
9.330598e-08
-3.6563442e-06
-3.8219973e-06
6.4701171e-05
2.2526404e-06
2.3275127e-06
1.9801157e-07
-3.8147651e-06
-3.6638561e-06
6.4701507e-05
2.3367831e-06
2.2433526e-06
-3.5982618e-06
-3.8339013e-06
6.3565949e-05
2.2257242e-06
2.3122897e-06
4.1119428e-06
5.4523314e-07
-1.7841337e-06
8.7100178e-08
5.3283054e-05
6.1828675e-07
9.3955883e-08
1.333546e-05
5.081247e-05
-4.1184394e-06
1.2914549e-05
5.0528929e-05
-1.7988932e-06
5.3027377e-05
2.0972372e-07
-5.7276821e-07
1.3145e-05
1.4266874e-05
1.3739131e-05
1.277871e-05
-5.5236557e-07
1.2727207e-05
1.2641448e-05
1.3009381e-05
1.3091578e-05
2.1187754e-07
9.2796741e-08
1.2857589e-05
1.3833226e-05
1.4295095e-05
1.3180533e-05
8.8539053e-08
1.2806617e-05
1.3127999e-05
1.2722409e-05
1.3047196e-05
-7.5169322e-07
-4.1181711e-06
1.28863e-05
5.0531293e-05
-4.1127289e-06
1.3364866e-05
5.0812264e-05
6.8363875e-07
-1.78527e-06
5.3283661e-05
-1.7979484e-06
5.3029122e-05
-7.2047128e-07
2.0973953e-07
1.3746587e-05
1.4260368e-05
1.3135999e-05
1.2788656e-05
2.1185728e-07
1.3190062e-05
1.4302199e-05
1.3826512e-05
1.284829e-05
-6.9290315e-07
1.2737365e-05
1.3082407e-05
1.2651299e-05
1.3000282e-05
1.3137665e-05
1.3056777e-05
1.2797076e-05
1.2713159e-05
-1.1134703e-06
-1.3014903e-07
2.2833651e-08
1.2293601e-05
-1.4486484e-07
2.3152441e-08
-1.7672933e-06
3.032048e-06
3.1210339e-06
3.8270435e-06
3.6344411e-06
1.0948391e-06
2.9683472e-08
-1.7848594e-06
3.8402527e-06
3.1329778e-06
3.0502931e-06
3.6748796e-06
2.4669598e-08
1.2495244e-05
1.0965577e-06
1.7434736e-07
-1.7826281e-06
3.6720492e-06
3.0472375e-06
3.1303054e-06
3.8316035e-06
1.5423358e-07
1.2465352e-05
1.1124193e-06
-1.7576186e-06
3.1180024e-06
3.0266464e-06
3.8165681e-06
3.6203622e-06
1.2211987e-05
1.0811322e-07
1.0944449e-06
7.601951e-08
-1.7848856e-06
3.1306986e-06
3.052656e-06
3.6767976e-06
3.8384772e-06
1.1138997e-06
-1.7672959e-06
3.8289019e-06
3.1233836e-06
3.0297429e-06
3.6325965e-06
9.8540475e-08
7.0072352e-08
1.2495806e-05
1.2293239e-05
-1.1120341e-06
-1.858385e-07
1.2212763e-05
-2.1115357e-07
-1.7576482e-06
3.0290666e-06
3.1157469e-06
3.6223426e-06
3.814832e-06
1.0970086e-06
-1.7826369e-06
3.1326908e-06
3.0449709e-06
3.8335086e-06
3.6702514e-06
1.246519e-05
-5.4025082e-08
5.15906e-05
-4.1173272e-06
2.9938757e-06
2.9317861e-06
-4.2868538e-06
5.2254129e-05
-8.9755914e-08
2.9483447e-06
3.0120436e-06
-4.1616599e-06
-4.2815801e-06
6.4797988e-08
6.5833186e-05
-9.0260961e-08
-3.681663e-06
3.5840313e-06
3.4556334e-06
-3.6273499e-06
6.4816431e-05
-3.5751835e-06
3.578528e-06
3.4472178e-06
-3.6732433e-06
5.0891119e-05
-1.0375615e-07
-3.1951679e-06
3.7306079e-06
3.6538344e-06
-3.3428318e-06
-1.090177e-07
-3.1496e-06
-3.0599521e-06
3.6958937e-06
3.8270481e-06
6.3636498e-05
-5.1546713e-05
-8.7900894e-08
3.7164982e-06
3.8452659e-06
-3.1453332e-06
6.4742621e-05
-3.0988346e-06
-8.9929369e-08
3.6829326e-06
3.7609032e-06
-3.3268191e-06
-3.2250599e-06
-2.7309888e-07
0.00019647174
-1.2280284e-05
-1.2790941e-05
1.4597554e-05
1.4338533e-05
5.1547064e-05
-3.8235683e-08
-6.5833397e-05
-3.2157514e-06
3.7514119e-06
3.6925893e-06
-3.3361982e-06
-3.0039013e-08
3.8361574e-06
3.7257301e-06
-3.1547962e-06
-3.0892457e-06
6.4743502e-05
-5.0892529e-05
3.6868486e-06
3.8364869e-06
-3.1401197e-06
6.3639117e-05
-3.0696605e-06
-6.4817295e-05
3.6442675e-06
-3.3333935e-06
3.7403405e-06
-3.2045685e-06
0.00019648097
-1.275447e-05
-1.2317354e-05
1.4301494e-05
1.4635385e-05
8.7833208e-08
5.1590583e-05
-4.2772434e-06
2.9221131e-06
3.0035255e-06
-4.1266641e-06
5.2254031e-05
-4.1522203e-06
3.002568e-06
2.9580432e-06
-4.2909374e-06
-7.7629333e-08
-3.617677e-06
3.4649811e-06
3.5746868e-06
-3.6911998e-06
3.4378972e-06
3.5880584e-06
-3.6635458e-06
-3.5848473e-06
-2.6592276e-07
0.00024603628
1.3884858e-05
-1.20555e-05
-1.2343515e-05
1.435928e-05
0.00024604984
1.4395563e-05
-1.2307729e-05
-1.2093344e-05
1.3849901e-05
2.792942e-07
0.00019966385
0.0001996547
-2.7046229e-07
1.6359659e-05
1.5335963e-08
9.1428841e-07
-8.2126816e-07
9.4883722e-07
-8.4350668e-07
-0.00019748857
2.1666111e-07
1.1148087e-06
2.3941704e-07
-1.1873454e-05
-1.2339034e-05
1.1520803e-05
1.213581e-05
-4.9198996e-05
-6.0906785e-08
5.9712213e-08
6.155765e-05
-2.8632685e-06
3.5925025e-06
3.7290629e-06
-2.9407727e-06
-6.4897861e-08
-6.269252e-05
6.0972632e-08
-2.9167833e-06
3.6568887e-06
3.7391804e-06
-3.0494814e-06
4.9837366e-05
-6.3678151e-05
-3.0388624e-06
3.7636346e-06
3.6919005e-06
-2.9386967e-06
6.2662099e-05
3.7396968e-06
-2.942816e-06
-2.895146e-06
3.7262101e-08
-5.0517978e-05
3.6634139e-06
3.7899997e-06
-3.0258916e-06
-2.9795837e-06
-4.987604e-05
6.15803e-08
3.6488401e-06
3.7892487e-06
-2.9373757e-06
-3.0132391e-06
-3.4408184e-08
6.100463e-08
3.6966355e-06
3.7842543e-06
-2.9538477e-06
-3.082264e-06
3.7971763e-06
3.7212691e-06
-3.0835523e-06
-2.9872789e-06
1.2828063e-05
1.535926e-08
9.4348799e-07
-7.7361965e-07
9.6575246e-07
-8.0753862e-07
1.3322743e-08
1.6395327e-05
9.7222073e-07
9.4014537e-07
-7.815473e-07
1.6105916e-05
1.5644704e-08
9.3563945e-07
-7.582959e-07
9.7158189e-07
-7.7804405e-07
1.9208205e-08
1.2847243e-05
9.784785e-07
-7.840597e-07
9.59747e-07
-7.5947783e-07
1.2663805e-05
1.5647205e-08
9.5023285e-07
-7.5247964e-07
9.7160368e-07
-7.8675005e-07
-2.1710086e-08
1.5223055e-08
1.5724553e-05
-6.6836143e-07
-6.8727842e-07
9.7929476e-07
1.0154378e-06
-1.522762e-08
1.60302e-05
-6.8778783e-07
-6.7758112e-07
9.8683061e-07
1.0190691e-06
1.60569e-05
-6.7653814e-07
-6.9056892e-07
9.8851587e-07
1.0191415e-06
1.3277963e-08
5.2205502e-09
-1.1543381e-06
-1.2016349e-06
1.6362556e-05
3.7401898e-07
3.878641e-07
-1.2029845e-06
-1.1353244e-06
1.6043908e-05
3.6543944e-07
3.8658816e-07
-2.9861524e-08
2.3268947e-08
-1.2076994e-06
-1.1391325e-06
1.6143159e-05
3.6984493e-07
3.8665296e-07
-1.2047516e-06
-1.1541522e-06
1.6392981e-05
3.913463e-07
3.7267959e-07
-6.9909322e-09
4.1320752e-08
-1.1523008e-06
-1.2065846e-06
1.6393098e-05
3.8904373e-07
3.7499623e-07
-1.2058728e-06
-1.1409956e-06
1.6143223e-05
3.6753502e-07
3.8897539e-07
-5.0187072e-08
-1.1334915e-06
-1.2048639e-06
1.6044226e-05
3.6776205e-07
3.8425598e-07
-1.1998446e-06
-1.1562341e-06
1.6362813e-05
3.9017102e-07
3.7169953e-07
3.3030721e-07
1.1187078e-05
1.1184779e-05
0.00022097936
1.1222386e-05
1.1149848e-05
0.00022098194
3.5315395e-06
4.6252668e-08
-3.5299452e-06
-3.6341615e-06
8.1329859e-08
5.318235e-05
1.7958828e-06
1.8097408e-06
4.5631653e-08
9.375272e-08
6.5391687e-05
-3.5267124e-06
6.5350731e-05
-3.6392004e-06
-3.5123592e-06
5.3154879e-05
1.7976344e-06
1.802034e-06
1.3240543e-06
1.5171899e-07
-4.9193665e-07
-2.0529905e-08
1.2181671e-05
1.7163247e-07
-2.4660234e-08
1.1804756e-05
-1.3195495e-06
1.173402e-05
-4.9441607e-07
1.2120471e-05
3.8183115e-07
-1.5510676e-07
3.2138177e-06
3.0941716e-06
2.817274e-06
2.8970877e-06
-1.4986095e-07
2.7213197e-06
2.9128281e-06
2.7986893e-06
2.997942e-06
-3.8716465e-07
-2.3300648e-08
2.7383324e-06
2.9314057e-06
2.8092051e-06
3.0083951e-06
-2.2135887e-08
3.2214631e-06
3.116043e-06
2.8347624e-06
2.9072258e-06
1.3252621e-06
-1.3288371e-07
-4.9450566e-07
2.2074131e-08
1.2137621e-05
-1.4913545e-07
2.3327325e-08
1.1754351e-05
-1.326407e-06
1.181353e-05
-4.9169301e-07
1.2192385e-05
-1.3582463e-07
3.8566029e-07
2.3702804e-08
3.2166461e-06
3.0996689e-06
2.8223617e-06
2.899874e-06
3.8852216e-07
3.1180619e-06
3.2249349e-06
2.9099727e-06
2.8368365e-06
-1.2926297e-07
2.2233988e-08
2.7267781e-06
2.8014363e-06
3.0007595e-06
2.9188134e-06
3.0115093e-06
2.9340715e-06
2.8120798e-06
2.7406178e-06
-1.9567596e-07
-3.5268702e-06
6.5352044e-05
-3.5317321e-06
6.5391876e-05
2.0908873e-07
-3.6270439e-06
-3.5370855e-06
5.3182658e-05
1.8006627e-06
1.8049479e-06
-3.5053983e-06
-3.6465155e-06
5.31558e-05
1.7885464e-06
1.8111668e-06
-2.0474388e-07
-1.319463e-06
1.173451e-05
-1.3243173e-06
-7.1421863e-08
1.1804824e-05
1.8666881e-07
-6.4666265e-08
-4.9226092e-07
1.2181908e-05
-4.9419217e-07
1.2120831e-05
1.3262295e-06
9.8006631e-08
-4.9141726e-07
1.2192563e-05
1.1610921e-07
1.1813863e-05
-1.3254359e-06
1.1754285e-05
-4.947797e-07
1.21377e-05
-1.9270377e-07
3.8177923e-07
3.1353387e-08
2.8197825e-06
3.212146e-06
3.0960302e-06
2.8947693e-06
3.8719666e-07
-6.9488614e-08
3.1143659e-06
3.2232835e-06
2.9096667e-06
2.8324013e-06
-1.850988e-07
2.7238304e-06
2.9152403e-06
2.7963604e-06
2.9956717e-06
-6.780302e-08
2.8116473e-06
3.0107857e-06
2.9291358e-06
2.7359575e-06
3.8846904e-07
9.8295226e-08
3.1198432e-06
3.2232292e-06
2.8392846e-06
2.9076297e-06
9.4087763e-08
2.7430778e-06
2.9364325e-06
2.8097341e-06
3.0092193e-06
3.8568391e-07
3.0979349e-06
3.2184219e-06
2.9022783e-06
2.8199633e-06
2.8038513e-06
2.7243755e-06
3.0031191e-06
2.9165101e-06
-4.8854227e-08
5.7884458e-07
5.9284983e-09
-9.6401055e-07
7.4928902e-07
7.292015e-07
9.6540205e-07
1.0162516e-06
5.8018833e-07
-1.4027424e-08
-9.7888306e-07
7.3306836e-07
7.5288976e-07
1.0207059e-06
9.7823458e-07
4.0518602e-08
-1.2518456e-08
3.1715302e-06
5.7594228e-09
3.1089178e-06
-5.8030641e-07
2.5538162e-08
3.1777554e-06
2.9812291e-08
-9.7991977e-07
7.3455598e-07
9.7955046e-07
7.5258453e-07
1.0220594e-06
5.8037286e-07
4.4817207e-10
-9.680917e-07
1.0192374e-06
7.5067874e-07
7.2948272e-07
9.6797151e-07
-6.1475581e-11
3.126698e-06
-5.80564e-07
-2.7112157e-08
3.1253292e-06
-3.1897194e-08
-9.6775251e-07
7.5024694e-07
7.2952571e-07
9.6814665e-07
1.0188493e-06
5.79788e-07
1.0118913e-08
-9.7909236e-07
7.3400686e-07
7.5285101e-07
1.0219625e-06
9.7876647e-07
8.3949262e-09
3.1742493e-06
4.3243651e-08
5.7963463e-07
-9.7763405e-07
7.3315491e-07
7.5224998e-07
9.7794567e-07
1.0195228e-06
5.7810479e-07
-9.6238759e-07
7.4946076e-07
7.2851824e-07
1.0158837e-06
9.6439257e-07
3.5621967e-08
3.1659964e-06
3.1027322e-06
3.9289371e-08
5.8039752e-07
2.1602358e-09
-9.7991982e-07
7.339657e-07
7.5319186e-07
1.0225348e-06
9.7908713e-07
5.8029312e-07
1.2352483e-08
-9.6810801e-07
7.5008507e-07
7.3009111e-07
9.6845767e-07
1.0187817e-06
-3.3536597e-08
1.1511511e-08
3.1268183e-06
1.0459956e-09
3.1777074e-06
-5.8010343e-07
3.255327e-08
3.171632e-06
3.9406296e-08
-9.7889591e-07
7.336737e-07
7.5229811e-07
9.7871651e-07
1.0202503e-06
5.7893224e-07
-9.6400687e-07
7.2860601e-07
7.4989485e-07
1.0167234e-06
9.6493239e-07
3.1088449e-06
-5.2739154e-08
5.7803788e-07
-9.6241655e-07
7.4887155e-07
7.2913676e-07
9.6489371e-07
1.0154382e-06
5.7974052e-07
-2.2024706e-08
-9.7764361e-07
1.020011e-06
7.5286691e-07
7.325694e-07
9.7749126e-07
-4.3618375e-08
3.1028911e-06
-1.989433e-08
3.1659829e-06
2.2404863e-08
5.7971704e-07
-9.791131e-07
7.5226463e-07
7.3462172e-07
9.7926086e-07
1.021516e-06
5.8066394e-07
-9.6775758e-07
7.289382e-07
7.5086369e-07
1.0193353e-06
9.6768823e-07
1.910355e-08
3.174386e-06
3.1252949e-06
1.2433888e-05
9.0124284e-09
-7.2656981e-07
9.0861215e-07
9.3022992e-07
-7.5952169e-07
8.8741247e-09
-7.3160454e-07
9.0599899e-07
-7.5114437e-07
1.3181759e-05
-6.5289203e-09
5.8178746e-07
-1.2026906e-06
5.9331057e-07
-1.2500604e-06
1.2506578e-08
-1.3373775e-05
-2.6045057e-08
1.6962726e-05
7.9975048e-07
7.6957008e-07
-1.0833943e-06
-1.0674817e-06
1.666418e-05
7.6685169e-07
-1.0523606e-06
7.9842756e-07
-1.0806158e-06
-2.4783007e-08
5.9806839e-07
-1.2488251e-06
5.8661818e-07
-1.2154259e-06
2.772738e-08
-1.3249751e-05
1.6763063e-05
-2.2364888e-08
8.0260101e-07
7.661619e-07
-1.0807632e-06
-1.0583457e-06
-1.3396256e-05
1.6992214e-05
7.7224737e-07
-1.0653496e-06
7.9857624e-07
-1.0877129e-06
3.0426007e-08
-2.2168271e-08
5.9844157e-07
5.8194396e-07
-1.2490964e-06
-1.2077398e-06
-1.2129119e-06
5.8981129e-07
5.9717423e-07
-1.2531632e-06
1.3325257e-05
-1.4492469e-08
2.0154407e-08
8.9652428e-07
-8.9638151e-07
9.101326e-07
-9.3064758e-07
-1.3224737e-08
2.4908153e-08
1.6702303e-05
9.2319521e-07
9.5088275e-07
-8.3029742e-07
-8.4848663e-07
-1.3175605e-05
1.6446134e-05
-2.2091651e-08
9.5171963e-07
9.1368309e-07
-8.4477422e-07
-8.2666753e-07
-2.2412278e-08
9.0816974e-07
8.8469893e-07
-9.2990689e-07
-8.9494385e-07
1.3111809e-05
-2.3215437e-08
8.8577061e-07
-8.8914928e-07
9.0378986e-07
-9.2962204e-07
2.7512898e-08
-1.3304143e-05
1.6682147e-05
9.5289905e-07
9.2085206e-07
-8.4379489e-07
-8.3205113e-07
1.6359086e-05
9.1502271e-07
-8.2057664e-07
9.4798992e-07
-8.4416517e-07
9.1219646e-07
8.941497e-07
-9.2598728e-07
-8.9808116e-07
1.2827839e-05
-2.1122336e-08
9.4418664e-07
-7.7294072e-07
9.6494446e-07
-8.0816428e-07
2.3646019e-08
-1.3016237e-05
1.6395353e-05
-3.2420942e-08
9.7305733e-07
9.3931168e-07
-7.8090582e-07
-7.7120512e-07
1.6104926e-05
2.9566988e-08
9.3639052e-07
-7.575269e-07
9.7066892e-07
-7.7871757e-07
-2.740269e-08
9.7061487e-07
9.4994682e-07
-8.0710611e-07
-7.8410064e-07
3.0481268e-08
1.2846678e-05
-2.6058316e-08
9.7914315e-07
-7.8333961e-07
9.5892485e-07
-7.6007429e-07
1.2663395e-05
2.949034e-08
9.5099909e-07
-7.5180659e-07
9.7080894e-07
-7.8743734e-07
-3.1780774e-08
2.8619405e-08
-6.676646e-07
-6.8786419e-07
9.7999078e-07
1.5723421e-05
1.0145586e-06
-2.8460389e-08
-6.8713546e-07
-6.7825467e-07
1.6029927e-05
9.8610188e-07
1.0197571e-06
-7.4765444e-08
4.9872232e-05
1.1412041e-07
-2.9508684e-06
-3.084946e-06
3.6991968e-06
3.7812242e-06
1.0804591e-08
-1.2727513e-05
-2.1810457e-08
-6.875445e-07
-6.7297546e-07
1.5816531e-05
9.7968518e-07
1.0193095e-06
-1.2869073e-05
-6.7584804e-07
-6.9118533e-07
1.6056175e-05
1.0184302e-06
9.8910761e-07
-1.1930906e-08
-1.6423887e-05
9.6250427e-07
-7.5752194e-07
9.7769974e-07
-7.8732344e-07
5.0516366e-05
-8.6964844e-08
-2.9898355e-06
-3.0808097e-06
3.7998739e-06
3.7182558e-06
-1.6200797e-05
-2.2448481e-08
9.763959e-07
-7.8609356e-07
9.5102431e-07
-7.5635974e-07
2.1363372e-08
-1.2890151e-05
-2.2464713e-08
9.7623592e-07
-7.7739008e-07
9.3660332e-07
-7.6206856e-07
-1.3036876e-05
9.4311473e-07
-7.680932e-07
9.7203806e-07
-7.8422788e-07
-2.0706912e-08
9.5391402e-07
-7.8104876e-07
9.6957687e-07
-8.1053198e-07
-2.2115729e-08
9.7091538e-07
-8.0645312e-07
9.4480801e-07
-7.7694461e-07
7.8742974e-08
-8.7349812e-08
6.3674624e-05
3.6607027e-06
3.7923531e-06
-3.0230562e-06
-2.9821604e-06
6.2687694e-05
1.1449015e-07
-2.9342976e-06
3.651128e-06
3.7863256e-06
-3.0158741e-06
1.2890163e-05
-1.4199879e-08
-1.644615e-05
9.471992e-07
-7.7465243e-07
9.6853842e-07
-8.0877317e-07
1.3947783e-08
-1.3036999e-05
1.6424085e-05
-1.2469847e-08
9.7438306e-07
9.4080783e-07
-7.8185962e-07
-7.7049698e-07
1.6200862e-05
9.3892639e-07
-7.5967605e-07
9.7389673e-07
-7.7977885e-07
-1.6879437e-08
-1.6702422e-05
9.7194684e-07
9.5152403e-07
-8.0823231e-07
-7.8335171e-07
2.3609767e-08
-1.2869293e-05
-1.515551e-08
-6.8883788e-07
-6.7826213e-07
1.6056502e-05
9.868832e-07
1.0206996e-06
-1.2727604e-05
-6.705828e-07
-6.8992387e-07
1.5816641e-05
1.0170567e-06
9.8193596e-07
2.338319e-08
-1.8759502e-08
9.8011122e-07
-7.8499903e-07
9.6010801e-07
-7.5984903e-07
9.5344081e-07
-7.5404351e-07
9.7399412e-07
-7.8844095e-07
-6.2870695e-08
5.0517221e-05
-3.0899608e-06
-2.9807558e-06
3.727767e-06
3.7906568e-06
2.6913051e-09
-1.2663903e-05
-6.8549737e-07
-6.7009437e-07
1.5724182e-05
9.7779206e-07
1.0168889e-06
-1.2847048e-05
-6.7585778e-07
-6.8950611e-07
1.6030477e-05
1.0175541e-06
9.8839626e-07
-4.8968099e-09
-1.6395726e-05
9.6137287e-07
-7.577656e-07
9.7677791e-07
-7.856894e-07
4.9875046e-05
-2.9601178e-06
-3.0758401e-06
3.7908413e-06
3.6899527e-06
-1.6105435e-05
9.7326975e-07
-7.8510453e-07
9.4861598e-07
-7.5416148e-07
1.1739e-08
-1.2828147e-05
9.730604e-07
-7.763282e-07
9.3408942e-07
-7.5994861e-07
1.3016432e-05
-1.3874644e-08
-1.668229e-05
9.5237421e-07
-7.8179323e-07
9.6827481e-07
-8.0941029e-07
9.4166143e-07
-7.6880683e-07
9.7074743e-07
-7.8328769e-07
-1.6359332e-05
9.6736622e-07
-8.0583413e-07
9.4180869e-07
-7.7525342e-07
5.8886489e-08
6.2691761e-05
3.7956956e-06
3.6422921e-06
-3.006684e-06
-2.9438798e-06
6.3676122e-05
-2.9728201e-06
3.6698025e-06
3.7833827e-06
-3.0323723e-06
1.3373659e-05
-2.8462817e-08
1.9546918e-08
5.8900313e-07
-1.2130766e-06
5.9575497e-07
-1.251115e-06
2.2624677e-08
-1.3181634e-05
1.6664145e-05
8.007645e-07
7.6456514e-07
-1.0782223e-06
-1.0547051e-06
1.8598285e-08
1.6962657e-05
7.71873e-07
-1.0650909e-06
7.9746277e-07
-1.0857093e-06
5.956778e-07
-1.2476756e-06
5.794239e-07
-1.2049783e-06
1.3249703e-05
-4.4927906e-09
5.8430747e-07
-1.2054231e-06
5.9610094e-07
-1.2514257e-06
7.331176e-09
-1.3396204e-05
1.6992235e-05
8.0088017e-07
-1.0853653e-06
7.6996884e-07
-1.0677024e-06
1.6763042e-05
7.6845165e-07
-1.0559795e-06
8.0029652e-07
-1.083108e-06
5.9949809e-07
5.8744203e-07
-1.2508343e-06
-1.2152172e-06
1.3175606e-05
-2.0677485e-08
8.8707592e-07
9.0581043e-07
-8.926509e-07
-9.3221965e-07
-2.1613518e-08
9.1597539e-07
-8.2429193e-07
9.4940925e-07
-8.4713962e-07
-1.3325322e-05
-1.9321828e-08
9.5318844e-07
9.2090709e-07
-8.4613797e-07
-8.326804e-07
-2.4621501e-08
9.1248899e-07
8.9415453e-07
-9.2833739e-07
-8.9866488e-07
7.418205e-09
-1.3111877e-05
9.5034143e-07
9.127383e-07
-8.417746e-07
-8.2295949e-07
-1.330415e-05
9.2317398e-07
9.5061853e-07
-8.2964881e-07
-8.4613344e-07
-1.2033597e-08
8.9655024e-07
-8.9576973e-07
9.0986241e-07
-9.2827606e-07
9.0618376e-07
8.8339687e-07
-9.2727568e-07
-8.914368e-07
-0.00019746574
-2.1284582e-07
0.00024152007
3.8760306e-07
1.1162971e-06
-2.6746053e-07
4.3504702e-07
1.1527204e-05
-1.1862647e-05
-1.2347662e-05
1.2126961e-05
-0.00019748435
0.00024162362
1.1103522e-06
-1.2313928e-05
-1.1897683e-05
1.2154235e-05
1.1501168e-05
-4.9194853e-05
-9.9215366e-08
1.0930238e-07
6.1551125e-05
-2.8600195e-06
3.5948988e-06
3.7263525e-06
-2.9427976e-06
-1.0496176e-07
1.1251842e-07
-2.9138129e-06
3.6593547e-06
3.7362543e-06
-3.0520313e-06
4.9834042e-05
-8.6020131e-08
-3.0359251e-06
3.7662003e-06
3.6889983e-06
-2.9411969e-06
-8.3999159e-08
6.2656772e-05
3.7421185e-06
3.6161088e-06
-2.9396747e-06
-2.8972814e-06
-4.9835223e-05
-3.3430503e-08
6.2658662e-05
3.7334425e-06
3.6249896e-06
-2.8882278e-06
-2.9487088e-06
-3.0928359e-08
3.6982561e-06
3.7571621e-06
-2.9323338e-06
-3.0450081e-06
4.9198412e-05
3.7456824e-06
3.6503678e-06
-3.0431197e-06
-2.9228976e-06
6.1556474e-05
3.5862593e-06
3.735473e-06
-2.9340912e-06
-2.8695714e-06
-3.2571177e-06
4.0866157e-06
3.7730239e-09
2.2311203e-07
2.3261986e-07
-2.0292954e-07
-1.9796213e-07
3.6845936e-09
2.1835827e-07
-2.0964566e-07
-2.1940504e-07
2.2334798e-07
-3.20045e-06
-5.0614372e-09
4.0385161e-06
3.7476415e-09
2.3627949e-07
2.2734666e-07
-1.9047306e-07
-1.9562527e-07
-4.2239197e-09
3.7864163e-09
2.3186224e-07
2.2688229e-07
-1.9198605e-07
-2.0142935e-07
-3.2475018e-06
4.1177715e-06
-1.9294152e-07
2.3717768e-07
-1.9582021e-07
2.2918514e-07
-2.0074145e-07
2.3367565e-07
2.2937957e-07
-1.9376677e-07
-5.9539555e-05
-6.2469787e-05
2.2594043e-07
-5.4296551e-05
-5.589963e-05
9.1668729e-08
4.905245e-05
6.0965044e-08
-2.7635583e-06
-2.881881e-06
2.9658242e-06
3.1586435e-06
4.9977509e-05
-2.8913325e-06
3.150889e-06
5.8102545e-07
5.8134125e-08
3.9448748e-07
2.596251e-07
1.2264024e-05
-1.9066218e-08
-1.55961e-05
1.5072099e-08
-7.0542996e-07
9.4752324e-07
9.6957428e-07
-7.3887854e-07
-1.8041035e-08
1.4919161e-08
1.5235481e-05
-6.5488924e-07
9.5805803e-07
9.9470246e-07
-6.7373321e-07
-1.244357e-05
-1.1806623e-08
1.5541531e-05
9.6582043e-07
9.9767376e-07
-6.7452675e-07
-6.6411547e-07
-1.5876962e-05
-1.1510952e-08
-7.363101e-07
9.7633471e-07
9.57349e-07
-7.1231703e-07
1.236223e-05
-1.0992262e-08
-1.565916e-05
1.5015098e-08
-7.2469459e-07
9.1780487e-07
9.4029367e-07
-7.5729507e-07
-1.3440522e-08
1.5163807e-08
-7.1765124e-07
9.2007991e-07
9.5604827e-07
-7.3719776e-07
-1.2544405e-05
-1.8384598e-08
9.2483861e-07
9.5679505e-07
-7.4051801e-07
-7.2956499e-07
-1.3955113e-08
-1.5968643e-05
-7.575055e-07
9.4430928e-07
9.2507878e-07
-7.3417133e-07
1.2564602e-05
-8.7541138e-09
-1.5989038e-05
-7.3254026e-07
9.2745133e-07
9.4497813e-07
-7.5952153e-07
-9.8689943e-09
1.590549e-05
-7.2785001e-07
9.2708248e-07
9.5751789e-07
-7.425305e-07
-1.242242e-05
1.5689378e-05
9.2193211e-07
9.5997225e-07
-7.3717317e-07
-7.2060596e-07
-1.5741484e-05
-7.5680824e-07
9.4469086e-07
9.1982322e-07
-7.2724085e-07
-1.2465681e-05
1.5569984e-05
-6.6334513e-07
9.671662e-07
9.9795225e-07
-6.7719396e-07
-2.7008937e-10
9.7653014e-07
9.5918339e-07
-7.1111112e-07
-7.3885021e-07
-7.3902272e-07
9.7357777e-07
8.1967152e-10
-1.2433932e-05
9.0507751e-07
9.4152281e-07
-7.5016389e-07
-7.3253216e-07
-1.2576431e-05
1.170202e-08
9.4238035e-07
9.1329476e-07
-7.3692942e-07
-7.5224738e-07
-1.3528417e-10
7.3888726e-09
-1.5974727e-05
-7.2959548e-07
9.1799982e-07
9.3468298e-07
-7.5794875e-07
-1.5757338e-05
-7.5858948e-07
9.311512e-07
9.076245e-07
-7.2749428e-07
-1.9596306e-08
-1.2373573e-05
1.5060281e-08
-7.2802241e-07
9.0491216e-07
9.3935303e-07
-7.4847199e-07
-1.2556146e-05
9.1233689e-07
9.4290848e-07
-7.4906596e-07
-7.3733331e-07
-1.7078131e-08
-1.5664248e-05
1.5334787e-08
9.2850769e-07
9.0720817e-07
-7.233078e-07
-7.5738083e-07
-1.5946591e-05
-7.547742e-07
9.3525128e-07
9.1700822e-07
-7.2997709e-07
-1.2102726e-08
-1.2371445e-05
1.5343299e-08
-7.164018e-07
9.0792045e-07
9.44193e-07
-7.3513532e-07
-1.2551518e-05
-1.3882124e-08
9.1270199e-07
9.4489863e-07
-7.3854178e-07
-7.2811132e-07
-1.077938e-08
1.5063704e-08
9.3845802e-07
9.1616965e-07
-7.135619e-07
-7.4609554e-07
-1.1118524e-08
-7.4632904e-07
9.4248336e-07
9.2350646e-07
-7.2291168e-07
-8.8765185e-09
-1.2572971e-05
-7.2735006e-07
9.1410157e-07
9.4496579e-07
-7.4130925e-07
-1.2434438e-05
9.0863766e-07
9.4691533e-07
-7.3649582e-07
-7.2057552e-07
-7.8512303e-09
9.4262707e-07
9.25261e-07
-7.2189742e-07
-7.4888412e-07
-7.4650792e-07
9.4211414e-07
9.1758286e-07
-7.1703287e-07
-3.1779841e-06
-3.3021375e-09
4.0265704e-06
3.8546512e-09
-1.9078906e-07
2.3090533e-07
-1.85999e-07
2.4022475e-07
-2.6360501e-09
3.7592366e-09
2.3183178e-07
-1.8741331e-07
-1.9601278e-07
2.3737881e-07
-3.2245438e-06
4.0994455e-06
-4.228192e-09
2.3210398e-07
-1.890662e-07
2.4039689e-07
-1.9166465e-07
2.3842773e-07
-1.9607128e-07
2.3369277e-07
-1.8984989e-07
-1.006456e-09
-3.2372119e-06
3.6033624e-09
4.1171629e-06
2.3442978e-07
-1.9128673e-07
-1.9528874e-07
2.4181486e-07
4.0552313e-06
2.3229642e-07
2.4168318e-07
-1.9469068e-07
-1.9024172e-07
2.3240405e-09
-4.1078891e-06
-1.9688943e-07
2.3479836e-07
-1.8943492e-07
2.3894038e-07
-3.1841045e-06
-5.1928469e-09
4.0310424e-06
3.8289361e-09
-1.9426212e-07
2.3224591e-07
-1.889818e-07
2.410576e-07
-4.5103524e-09
3.8781192e-09
2.3196776e-07
-1.8782658e-07
-1.9669205e-07
2.3734905e-07
-3.2311849e-06
4.1108754e-06
-1.914193e-07
2.4198112e-07
-1.943986e-07
2.3413416e-07
2.3912511e-07
-1.9599619e-07
2.3447557e-07
-1.8957693e-07
2.3251573e-07
-1.8881304e-07
-1.9242374e-07
2.4039996e-07
-3.2398679e-06
-3.378964e-09
5.4515256e-09
4.1167633e-06
2.401745e-07
2.4792233e-07
-1.922995e-07
-1.962931e-07
-2.7606019e-09
4.0645716e-09
2.4240297e-07
-1.9072071e-07
-1.9772913e-07
2.379766e-07
-3.2042865e-06
4.0622135e-06
-3.5369277e-09
2.486254e-07
2.3879312e-07
-1.9056269e-07
-1.9488189e-07
2.424244e-07
2.3597878e-07
-1.9695682e-07
-1.894887e-07
-3.1869983e-06
-3.7047376e-09
4.0356712e-06
3.9313223e-09
-1.9489073e-07
2.3835244e-07
-1.8969083e-07
2.4755559e-07
-3.0856083e-09
3.8319319e-09
2.3545592e-07
-1.8872575e-07
-1.9712132e-07
2.4120619e-07
-3.2338587e-06
4.1083762e-06
-1.9278234e-07
2.4778515e-07
-1.9570058e-07
2.3952409e-07
2.422749e-07
-1.9713927e-07
2.3730625e-07
-1.9119816e-07
-5.1184741e-09
3.1890006e-06
4.1163501e-09
2.6083566e-07
2.6911954e-07
-1.7141728e-07
-1.792308e-07
3.2362753e-06
-3.5682331e-09
-1.7850779e-07
-1.7310058e-07
2.7054128e-07
2.6433833e-07
-3.986676e-09
3.6791148e-09
4.0135181e-06
1.5508582e-07
-3.6453271e-09
4.0970372e-06
1.5433353e-07
-7.6174795e-10
3.2425909e-06
2.6460074e-07
2.709359e-07
-1.7273146e-07
-1.7922974e-07
3.2068262e-06
-3.2145332e-09
-1.7918453e-07
-1.7229617e-07
2.70157e-07
2.6158292e-07
1.5217645e-09
-3.0567021e-09
4.0401041e-06
1.5508773e-07
4.1049868e-06
1.5455139e-07
-4.348873e-09
3.207915e-06
-4.0636082e-06
2.6179488e-07
2.7001094e-07
-1.7195257e-07
-1.7956438e-07
3.2451641e-06
-1.789271e-07
-1.7313175e-07
2.7121284e-07
2.6448449e-07
-3.2088884e-09
4.0414641e-06
1.5512078e-07
4.1088836e-06
1.5452101e-07
-1.9525114e-07
2.3914434e-07
-1.9021123e-07
2.4834056e-07
-4.3359777e-09
4.2345007e-09
-3.6535569e-07
-3.8621731e-07
4.1153522e-06
6.6103304e-08
6.9561948e-08
-1.0082625e-09
-3.859155e-07
-3.6973014e-07
4.1772218e-06
7.0510661e-08
6.6693473e-08
-9.648722e-10
-3.8490416e-07
-3.6388925e-07
4.0874312e-06
6.9490997e-08
6.5022101e-08
-3.6982034e-07
-3.8475998e-07
4.1685546e-06
6.965476e-08
6.6979609e-08
-8.5833909e-09
5.8373272e-09
-3.6373947e-07
-3.8554873e-07
4.0960016e-06
6.5655371e-08
6.9136894e-08
-7.7456787e-09
-3.8482094e-07
-3.702834e-07
4.1754931e-06
7.0310446e-08
6.6642055e-08
-2.236742e-09
-3.6959883e-07
-3.8630784e-07
4.1820854e-06
6.725954e-08
7.0151361e-08
-3.8601722e-07
-3.6550455e-07
4.1171947e-06
7.0064363e-08
6.5634393e-08
7.0530571e-09
-3.934055e-09
-3.8585191e-07
-3.7007235e-07
4.1821389e-06
7.0724802e-08
6.6687237e-08
7.4800489e-09
-3.6503872e-07
-3.8648539e-07
4.1172107e-06
6.9488679e-08
6.6209543e-08
6.8182076e-10
-3.8508574e-07
-3.6420889e-07
4.0960299e-06
6.9714118e-08
6.5082277e-08
-3.6981302e-07
-3.8527956e-07
4.1754846e-06
6.9741834e-08
6.7218717e-08
-1.0274428e-08
-3.6342713e-07
-3.8538164e-07
4.0874915e-06
6.8912259e-08
6.5598706e-08
-1.0709626e-08
-3.8431002e-07
-3.7030275e-07
4.1686521e-06
6.6402276e-08
7.0229207e-08
-4.9707146e-09
-3.6926492e-07
-3.8638351e-07
4.1772584e-06
6.7269565e-08
6.9937033e-08
-3.8575951e-07
-3.6583231e-07
4.1154264e-06
6.5528345e-08
7.013905e-08
3.1612849e-07
-1.5182633e-05
-1.5207967e-05
0.00022497384
1.1802261e-05
1.177154e-05
-1.5170257e-05
-1.5220629e-05
4.1792738e-07
0.00022497153
1.1764559e-05
1.1808969e-05
3.6984506e-06
-5.3268299e-08
7.7768624e-08
-4.9276387e-06
-4.9188253e-06
5.6148495e-05
1.5829067e-06
1.5743996e-06
3.2555931e-08
-5.1086951e-09
-1.3523514e-06
1.4934279e-05
-1.351663e-06
2.155963e-08
1.4926733e-05
-4.8829663e-08
9.4394052e-08
5.3861943e-05
-3.6983002e-06
5.3857592e-05
-4.9239927e-06
-4.9207618e-06
5.6145537e-05
1.5815095e-06
1.5748571e-06
1.8178523e-08
-1.3519276e-06
1.4931012e-05
-1.3504226e-06
1.4919514e-05
1.7797994e-08
-1.0642896e-06
-1.0380429e-06
5.8175566e-09
3.5924081e-06
3.5228965e-06
2.8975252e-06
2.904302e-06
-3.0403865e-09
-5.6647649e-09
-1.065803e-06
-1.0316557e-06
3.5184869e-06
3.5920251e-06
2.9038549e-06
2.8944306e-06
-5.3452467e-09
-3.7138698e-09
3.7196087e-08
-3.442223e-07
-7.7910462e-09
2.4628262e-06
-3.4449085e-07
2.4480754e-06
-3.5420602e-08
-9.6499616e-08
7.3521099e-07
7.0189945e-07
5.7735253e-07
5.9430219e-07
-9.6960097e-08
-7.3884273e-09
5.8066267e-07
7.0743683e-07
7.3713251e-07
5.9654428e-07
4.7385285e-07
-3.1017203e-08
5.5063714e-07
5.5841281e-07
5.4228848e-07
5.3445493e-07
-3.3484517e-08
7.1605765e-07
5.3279196e-07
5.1710477e-07
6.9552785e-07
4.7958329e-07
-6.5495045e-09
5.4566358e-07
5.6068842e-07
5.53144e-07
5.3817419e-07
-7.5182105e-09
5.2039504e-07
5.3524047e-07
7.1836128e-07
6.9991734e-07
4.7619168e-07
-2.4792087e-08
9.6502001e-08
8.0340317e-10
5.591175e-07
5.4334107e-07
5.3573514e-07
5.5142173e-07
-2.5804613e-08
3.2990595e-10
6.9674577e-07
5.1818223e-07
5.3349576e-07
7.1688781e-07
4.8048985e-07
9.7090213e-08
5.4634986e-07
5.6125185e-07
5.5374053e-07
5.3893439e-07
5.2114635e-07
5.3577632e-07
7.1903631e-07
7.0049951e-07
2.9242593e-08
-3.4483056e-07
2.4649654e-06