/*--------------------------------*- C++ -*----------------------------------*\
  =========                 |
  \\      /  F ield         | OpenFOAM: The Open Source CFD Toolbox
   \\    /   O peration     | Website:  https://openfoam.org
    \\  /    A nd           | Version:  7
     \\/     M anipulation  |
\*---------------------------------------------------------------------------*/
FoamFile
{
    version     2.0;
    format      ascii;
    class       volVectorField;
    location    "0";
    object      U;
}
// * * * * * * * * * * * * * * * * * * * * * * * * * * * * * * * * * * * * * //

dimensions      [0 1 -1 0 0 0 0];

internalField   nonuniform List<vector> 
34356
(
(0.088921918 0.00011663677 -0.00066498931)
(0.088703204 0.00011688663 0.00021564456)
(0.087805451 3.4629011e-05 -0.0020016726)
(0.08780741 0.00021571474 -0.0020012033)
(0.088845149 0.00015072727 -0.0023794594)
(0.088840777 9.9793137e-05 -0.0023821305)
(0.091360742 0.00013049141 -0.00016185756)
(0.090841567 -9.1063558e-06 -0.0019593544)
(0.090843957 0.00026663851 -0.0019595725)
(0.087972599 8.4430107e-05 0.0016773408)
(0.086648072 -1.1305847e-05 -0.0002232484)
(0.087974674 0.00016617665 0.0016772144)
(0.086650192 0.00026163365 -0.00022300707)
(0.085970535 0.00015610151 -0.004425858)
(0.085843175 -2.7607589e-05 -0.0045255145)
(0.087810031 3.9003741e-05 -0.0044947363)
(0.088239077 6.9683225e-05 -0.0043948079)
(0.085972312 9.8978284e-05 -0.0044261844)
(0.088238799 0.00018567395 -0.0043969109)
(0.085846249 0.00028368437 -0.0045249123)
(0.087815874 0.0002178982 -0.0044921802)
(0.092320475 0.00022032375 -0.0011826715)
(0.092446871 0.00010252536 0.00052714874)
(0.092448698 0.00015561044 0.00052670711)
(0.092320212 3.9550574e-05 -0.0011828778)
(0.091012726 0.00012510084 0.00060583778)
(0.091029255 0.00010134143 -0.00011073572)
(0.091027509 0.00015711505 -0.00011102271)
(0.091006602 0.00015271717 -2.1492191e-05)
(0.091006394 0.00010733519 -2.1430762e-05)
(0.09068454 1.4342416e-05 0.0016199895)
(0.091779917 4.1729522e-05 0.0011545554)
(0.094287246 3.6617556e-05 0.0011361327)
(0.093171909 5.7676271e-05 0.0016129281)
(0.091327013 -0.0001638666 -0.0050373735)
(0.091467846 0.00024053731 -0.0049216777)
(0.091468274 1.6731114e-05 -0.004921611)
(0.091329946 0.00042249503 -0.0050375159)
(0.087735607 0.00011107074 0.0039166819)
(0.088158848 4.4530891e-05 0.0036723592)
(0.087725027 1.7935346e-05 0.0037154022)
(0.087653766 5.1466383e-05 0.0039863128)
(0.08416006 -3.4487376e-05 0.0028989403)
(0.082249874 -0.00017291687 -0.0017528259)
(0.084283101 0.0001973682 0.0028929278)
(0.08241408 0.00032096253 -0.0017437638)
(0.087729103 0.00023882733 0.0037143635)
(0.088159713 0.00021149611 0.0036742498)
(0.087737654 0.0001440022 0.0039169501)
(0.08765715 0.00020472746 0.0039864443)
(0.084163461 0.00029063568 0.0028989348)
(0.084285078 5.7601802e-05 0.0028933013)
(0.08225292 0.00042879016 -0.0017528783)
(0.082415564 -6.5960125e-05 -0.0017436685)
(0.086769621 0.00017935369 -0.0087724792)
(0.084083583 0.00021944103 -0.0099224352)
(0.084208925 5.6093209e-05 -0.0098212829)
(0.08717238 0.00014535614 -0.0086721569)
(0.084137749 9.7362239e-05 -0.0098443824)
(0.087113166 4.686568e-05 -0.0087143106)
(0.084033933 -1.0741373e-05 -0.0099523804)
(0.086706184 4.5179913e-05 -0.0087899443)
(0.084210014 0.00020065264 -0.0098209483)
(0.084084123 3.7128867e-05 -0.0099231078)
(0.087175583 0.00011173732 -0.0086702955)
(0.086767556 7.826007e-05 -0.0087752982)
(0.086711833 0.00021407183 -0.0087874943)
(0.08403685 0.00026895674 -0.0099518891)
(0.084140091 0.00015978743 -0.0098448748)
(0.08711355 0.00021065076 -0.0087165306)
(0.094046917 0.00026518069 -0.003461076)
(0.09409731 -4.5435505e-05 -0.0035400415)
(0.094925757 0.00022994294 -0.00096691123)
(0.094986819 0.00012269546 -0.00085400967)
(0.094285314 0.00011601743 0.0011359915)
(0.093168182 0.00013587938 0.001612869)
(0.093210777 0.00024671375 0.0016998459)
(0.094228354 0.00013118454 0.0012371353)
(0.091775059 0.00011724426 0.0011543344)
(0.094228939 0.00012638818 0.0012368962)
(0.093211823 9.2985526e-06 0.0017001651)
(0.093171386 0.00012128044 0.0016126331)
(0.094287084 0.00014311722 0.0011357339)
(0.091778309 0.00013569396 0.0011545667)
(0.094045999 -5.4761012e-06 -0.0034610863)
(0.09409684 0.00030377383 -0.0035397633)
(0.094925669 2.8414817e-05 -0.00096698854)
(0.094987621 0.00013728312 -0.00085433518)
(0.090677174 8.6109722e-05 0.001620327)
(0.090681914 0.00015847402 0.001619405)
(0.090944358 0.00011788371 0.00027610378)
(0.090941213 0.00013544037 0.0002764513)
(0.09066479 0.00013531563 0.00017148872)
(0.090669196 0.00010975654 0.00017220846)
(0.096720976 2.8556948e-05 0.00091115446)
(0.088461901 6.7411197e-05 0.0018227315)
(0.08972164 8.4773692e-08 0.0010082835)
(0.090323761 6.2289288e-05 0.0025886192)
(0.09117881 4.397411e-05 0.0022086239)
(0.091127907 4.3989064e-05 0.002311821)
(0.090385582 0.00015228066 0.0026770132)
(0.091597235 0.00013393959 0.0019953098)
(0.091651131 5.4149667e-05 0.0021065786)
(0.092481616 1.2766089e-05 0.0019342483)
(0.092525597 4.1578972e-05 0.0018350316)
(0.095644456 -8.8087628e-07 0.0019628514)
(0.094445049 0.00019910268 0.0021078994)
(0.094499614 5.2817e-05 0.0022255929)
(0.093822224 5.0136688e-05 0.0024899077)
(0.093873108 3.8314832e-05 0.0023977522)
(0.093157836 9.559138e-05 0.0025447508)
(0.093198777 0.00017538345 0.002629158)
(0.093202149 1.7394635e-06 0.0026246898)
(0.092336607 0.00027834395 -0.0097866735)
(0.092202602 -0.00027330929 -0.0099175811)
(0.0922364 0.00046464612 -0.0098902892)
(0.092360415 -0.00014061904 -0.0097742705)
(0.092361793 0.00039817479 -0.0097744493)
(0.092236095 -0.00020715388 -0.0098904767)
(0.09220555 0.00053252745 -0.0099177486)
(0.09233782 -2.0306353e-05 -0.0097868204)
(0.090790677 0.00010588855 0.0021750494)
(0.090792734 0.00015215852 0.0021752706)
(0.088675071 0.00010779812 0.0061664073)
(0.089933891 0.0002350361 0.0038930735)
(0.089850626 -5.4250341e-05 0.0038806754)
(0.088633853 8.2865653e-05 0.0061795912)
(0.081473165 0.00022088853 0.0058774009)
(0.08333681 4.5213494e-06 0.0074949527)
(0.08291335 1.4070924e-05 0.0075330849)
(0.081399637 -9.1224142e-05 0.0059524812)
(0.076167027 -0.00022189182 0.0023493582)
(0.075423348 -0.00031664168 -0.0065677264)
(0.075595533 0.00041214954 -0.0065445969)
(0.076296665 0.00034736479 0.0023461539)
(0.081427498 0.00030542819 0.0059351602)
(0.082970176 0.0001930995 0.0075175489)
(0.083384192 0.00015599214 0.0074868702)
(0.081530398 -4.1913814e-05 0.0058701018)
(0.076213287 0.00043412424 0.0023475349)
(0.076361027 -0.0001731851 0.0023486434)
(0.075486201 0.00052486344 -0.0065539769)
(0.075668385 -0.00025214603 -0.0065387294)
(0.08985305 0.00031322912 0.0038809946)
(0.089934525 2.2737503e-05 0.0038931401)
(0.088675934 0.00014982452 0.0061665893)
(0.088636273 0.00017585176 0.0061799336)
(0.082917413 0.00024473859 0.0075319556)
(0.083338135 0.00025344522 0.0074973299)
(0.08147575 3.6241801e-05 0.0058780536)
(0.081402728 0.00034953963 0.0059525738)
(0.081531322 0.00029864146 0.005869803)
(0.083386539 0.00010154374 0.0074850754)
(0.082969855 6.3892551e-05 0.0075193157)
(0.081427952 -4.885791e-05 0.00593546)
(0.076170102 0.00048009852 0.0023494735)
(0.076299017 -9.0386123e-05 0.0023466784)
(0.075426053 0.00057461256 -0.0065678079)
(0.075597438 -0.00015510475 -0.0065445676)
(0.076361815 0.00042976465 0.0023484787)
(0.075669568 0.00050880633 -0.0065387967)
(0.076213387 -0.00017756433 0.0023478108)
(0.075486623 -0.00026851083 -0.0065539274)
(0.084150296 8.9147146e-05 -0.019459513)
(0.084215427 0.00023336826 -0.019343505)
(0.086678131 0.00017583579 -0.015403395)
(0.086306354 0.00016956436 -0.01548683)
(0.086729656 8.3993674e-05 -0.015369585)
(0.084272833 3.9052634e-05 -0.019322092)
(0.084190614 0.00012940768 -0.019424614)
(0.086356017 4.8823747e-05 -0.015462811)
(0.086325408 0.0001417691 -0.01547945)
(0.084156266 4.273318e-05 -0.019433194)
(0.084252143 0.00015673414 -0.019327674)
(0.086699737 0.00013203643 -0.015365162)
(0.084181667 -3.0661413e-05 -0.019356271)
(0.084120883 0.00012611848 -0.019471788)
(0.086644176 4.1769106e-05 -0.015417602)
(0.086270008 5.0061689e-05 -0.015494435)
(0.084273822 0.00021789974 -0.019322612)
(0.084191861 0.00012801409 -0.019424271)
(0.086359491 0.00020972961 -0.015460685)
(0.086728986 0.00017341541 -0.015371373)
(0.086680163 8.1528211e-05 -0.015401985)
(0.084215879 2.3487913e-05 -0.019343324)
(0.084150372 0.00016797369 -0.01946015)
(0.08630425 8.871565e-05 -0.015489275)
(0.084123412 0.00013293166 -0.019471718)
(0.08418391 0.00028880897 -0.019356963)
(0.086274853 0.0002102279 -0.015492558)
(0.086644857 0.00021689273 -0.015419625)
(0.084253835 0.00010107809 -0.019327635)
(0.084157654 0.00021492081 -0.01943402)
(0.086703134 0.00012625725 -0.015363929)
(0.086324619 0.00011700441 -0.01548214)
(0.091932283 3.5082673e-05 0.0024186601)
(0.091598665 6.2066781e-05 0.0025598013)
(0.096434573 0.00036108482 -0.0076771122)
(0.098811492 0.00024703088 -0.0042072729)
(0.098879044 0.00016122612 -0.0041058217)
(0.096477131 -0.00013832151 -0.0077342116)
(0.098890907 0.00015278048 -0.0041147714)
(0.098821252 8.9256426e-05 -0.0042107618)
(0.096448163 -7.2843358e-05 -0.0076641758)
(0.096485757 0.00041244377 -0.0077216607)
(0.098310952 0.00011831923 -9.4492996e-05)
(0.096732479 -5.365614e-06 0.00095282318)
(0.09668568 0.00020418221 0.00086531929)
(0.09837239 0.00017138326 -0.00020608426)
(0.098368042 0.00011158884 -0.00016375382)
(0.096756428 0.00031746201 0.00099847036)
(0.096720104 0.00010894773 0.00091085903)
(0.098303917 0.00011351648 -5.5634684e-05)
(0.095642696 7.9399348e-05 0.0019625903)
(0.094442876 0.00027734853 0.0021076091)
(0.094496878 0.00013221005 0.0022255187)
(0.095682893 0.00013814962 0.0018562201)
(0.093819323 0.0001279327 0.0024898249)
(0.093869568 0.00011717637 0.0023976498)
(0.0931534 0.00017379659 0.0025445937)
(0.093195079 0.00025264015 0.002628817)
(0.092476548 8.9511494e-05 0.0019340371)
(0.093165171 0.00013576398 0.0025435009)
(0.093199166 7.8216464e-05 0.0026245705)
(0.093829056 0.00014318958 0.0024935627)
(0.092522114 0.00011687923 0.001834957)
(0.093884549 0.00016961376 0.0024052942)
(0.094504168 0.00018291898 0.0022609049)
(0.094449868 8.761448e-05 0.0021431641)
(0.095659484 0.00015060446 0.00189766)
(0.095610494 0.0002072046 0.0020005319)
(0.091592527 0.00020769824 0.0019951248)
(0.09164462 0.00012924911 0.002106685)
(0.095610531 5.0456207e-05 0.0020006522)
(0.094451025 0.00016966087 0.0021432301)
(0.09450431 7.4299607e-05 0.0022613716)
(0.095660317 0.00010741235 0.001897533)
(0.093200841 0.00017720925 0.0026244457)
(0.093165929 0.00011950264 0.0025438871)
(0.093830241 0.00011320217 0.0024938693)
(0.093885168 8.687215e-05 0.002405757)
(0.092523484 0.00013667559 0.0018349901)
(0.093157454 8.2990738e-05 0.0025444793)
(0.093198146 3.2178708e-06 0.0026292561)
(0.093821871 0.00012894118 0.0024897235)
(0.092481005 0.000165026 0.0019341951)
(0.093872774 0.00014095892 0.0023973809)
(0.094499639 0.00012684073 0.0022251827)
(0.095683928 0.00012040672 0.0018565034)
(0.09444455 -1.9566922e-05 0.0021076971)
(0.095644572 0.00018012888 0.0019625932)
(0.091650271 0.00012194074 0.0021061368)
(0.091594321 4.2364342e-05 0.0019953451)
(0.096475912 0.00039686077 -0.0077336767)
(0.098878665 9.8923992e-05 -0.0041059227)
(0.098810666 1.1704114e-05 -0.0042071133)
(0.096433117 -0.00010135235 -0.0076769396)
(0.096447806 0.00033073852 -0.0076638152)
(0.098821362 0.00016896243 -0.0042104087)
(0.098890521 0.00010555852 -0.0041141388)
(0.096485201 -0.00015440836 -0.007721692)
(0.098372381 8.6938607e-05 -0.00020562344)
(0.096685758 5.38612e-05 0.00086554725)
(0.096733045 0.00026375149 0.00095268274)
(0.098311152 0.00014002622 -9.428234e-05)
(0.096721097 0.00015106965 0.00091086868)
(0.096756935 -5.852719e-05 0.00099888906)
(0.098303821 0.00014535316 -5.5477028e-05)
(0.098368111 0.00014856408 -0.00016391099)
(0.088452196 0.00012997319 0.0018233568)
(0.089712737 6.7496447e-05 0.0010079382)
(0.088458002 9.1892935e-05 0.0018204671)
(0.089718472 0.00016654978 0.0010085275)
(0.090314842 0.00013305346 0.0025893008)
(0.091171364 0.00011707656 0.0022087336)
(0.091122259 0.0001159253 0.0023122219)
(0.090378713 0.00022235595 0.002677402)
(0.09038122 1.9150151e-05 0.002677784)
(0.091124619 0.00013014131 0.0023116146)
(0.091177569 0.00013021064 0.0022084784)
(0.090322189 0.00010929831 0.0025886186)
(0.099482817 7.7094967e-06 0.0015896395)
(0.10130234 -9.862434e-06 0.00064589373)
(0.096892261 7.1557075e-05 0.0025681669)
(0.098254993 1.1943729e-05 0.0023596896)
(0.096935635 0.00022053703 0.0026534564)
(0.098197072 6.8796764e-05 0.0024584119)
(0.088084626 2.2344524e-05 0.0014175268)
(0.089283981 -7.1767317e-05 0.0021908456)
(0.089427674 7.0367175e-05 0.002093861)
(0.0876389 2.1812401e-05 0.0026196861)
(0.088072869 5.333253e-06 0.0025347432)
(0.091021026 5.1103428e-05 0.0030469199)
(0.090229495 6.261744e-05 0.0036987201)
(0.09028864 0.00018181976 0.0037777857)
(0.090973123 2.6857311e-05 0.0031410652)
(0.091479389 3.6840859e-05 0.0024977712)
(0.091229212 8.5419735e-05 0.0027445624)
(0.091178092 0.00015520644 0.0026322967)
(0.091521221 2.0877076e-05 0.0023979)
(0.091499087 0.00010670906 0.0024401181)
(0.091186952 4.5179284e-05 0.0026691949)
(0.091239472 6.8102406e-05 0.0027821446)
(0.091449333 8.920993e-05 0.0025369464)
(0.090300682 -2.4836822e-05 0.0037707443)
(0.090985989 7.7323089e-05 0.003143471)
(0.091041314 7.3735447e-05 0.0030541314)
(0.091598517 4.1155238e-05 0.0025596931)
(0.091647942 3.2108097e-06 0.0026542922)
(0.091880762 5.8767108e-05 0.002526756)
(0.091932156 6.842704e-05 0.0024184732)
(0.091629707 0.00010976823 0.0026015156)
(0.091670463 0.00014402722 0.0026966412)
(0.091924891 5.4529909e-05 0.0024594147)
(0.091873487 1.3648497e-05 0.0025640534)
(0.092196469 7.7478997e-05 0.0026000604)
(0.092145581 0.00015042873 0.002497451)
(0.092747927 2.1955156e-05 0.0024633979)
(0.092790213 2.8155027e-05 0.0023720848)
(0.092154546 1.3727746e-05 0.0024918234)
(0.092210304 7.278437e-05 0.0025869911)
(0.09279356 7.6680052e-05 0.0023748902)
(0.092758376 0.00010470886 0.0024601587)
(0.095406395 7.0205414e-05 0.0028907419)
(0.096214593 1.2292467e-05 0.0026941957)
(0.095352431 0.00018138053 0.0027815685)
(0.096258926 3.8032919e-05 0.0025964835)
(0.094443544 1.1923616e-05 0.0030653256)
(0.094394397 8.4100102e-05 0.0029716136)
(0.094921294 5.7893273e-05 0.002910004)
(0.094426595 0.00010464061 0.0030152518)
(0.094967708 4.6796209e-05 0.0028421773)
(0.09446746 0.0001720631 0.0031119566)
(0.094913621 2.5746427e-05 0.0029491624)
(0.095361142 2.2783666e-05 0.0027773258)
(0.093604704 6.3635121e-05 0.0029420964)
(0.094120497 0.00010403747 0.0028296142)
(0.093656468 0.00010179616 0.00305571)
(0.094070853 0.00011691481 0.0029262053)
(0.093648484 8.7672118e-05 0.0030186867)
(0.094101894 2.6960562e-05 0.0028874451)
(0.093596985 0.00017611836 0.0029047774)
(0.094144218 3.9705709e-05 0.002785102)
(0.093412658 4.3749605e-05 0.0029856662)
(0.093361859 4.1483684e-05 0.0030747897)
(0.093002621 0.0001218509 0.002992195)
(0.093048016 0.00015853485 0.0030817473)
(0.093371995 7.7683211e-05 0.0030769674)
(0.09342737 9.5743919e-05 0.0029891337)
(0.093012607 5.8903191e-05 0.0029916625)
(0.093050552 4.047748e-05 0.0030772452)
(0.093429321 2.9933591e-05 0.0029903694)
(0.093376495 5.0397295e-05 0.0030758466)
(0.093013567 9.631061e-05 0.0029907314)
(0.093053604 0.00011147909 0.0030769012)
(0.093658399 6.3259659e-05 0.0030577898)
(0.093818489 0.00048879392 -0.016524668)
(0.093933782 -0.00023973541 -0.0164046)
(0.093785114 -0.00034756865 -0.016556423)
(0.093910685 0.00032958928 -0.016413106)
(0.093809801 0.00055881454 -0.016551729)
(0.093933592 -0.00013645996 -0.016411414)
(0.093951448 0.00042043544 -0.016397983)
(0.093830766 -0.00032511066 -0.016523253)
(0.093951988 -0.00016310465 -0.016398097)
(0.09383222 0.0005828971 -0.016523246)
(0.093809494 -0.00030119713 -0.016552029)
(0.093934214 0.00039374092 -0.016411511)
(0.093787714 0.00060703865 -0.01655669)
(0.093912356 -7.0999095e-05 -0.016413501)
(0.093935533 0.00049794323 -0.016404957)
(0.093819327 -0.0002307556 -0.016525192)
(0.092360698 0.00010957098 0.0021049547)
(0.092360758 0.00015067169 0.0021051526)
(0.092252705 0.00011572418 0.0082786758)
(0.085446875 -9.382521e-05 0.0091121876)
(0.085372117 0.0003451632 0.0090985201)
(0.091909748 0.00025804704 0.0048101439)
(0.091890027 -4.8770344e-05 0.0048122247)
(0.092241294 9.5477218e-05 0.0082815067)
(0.085429442 0.00027661601 0.0091179469)
(0.085347661 -0.00013721981 0.0091068343)
(0.080326659 7.9587723e-05 0.011234858)
(0.080284738 7.8313128e-05 0.011251528)
(0.072673034 -3.3200383e-06 0.010216042)
(0.072251214 1.0985092e-05 0.010259358)
(0.068263738 -0.00032429502 0.0043953431)
(0.068376775 0.00043185489 0.0043073429)
(0.062967595 -0.00065421116 -0.0044077035)
(0.068550186 -0.00027515849 -0.018369567)
(0.063155964 0.00076212929 -0.004391278)
(0.06870526 0.00034321358 -0.018313428)
(0.063033422 0.00082459594 -0.0043980387)
(0.068606844 0.00043546482 -0.018334271)
(0.063239236 -0.00062044988 -0.0043837677)
(0.0687803 -0.00022954976 -0.018301004)
(0.072722544 0.00013075716 0.010206478)
(0.07231381 0.00015575119 0.010241168)
(0.068304922 0.00049693695 0.0043753019)
(0.068443574 -0.00028662477 0.004300967)
(0.08030543 0.00013193988 0.011247234)
(0.080346818 0.00011309716 0.011232081)
(0.072699608 0.00020886261 0.0102163)
(0.072280345 0.00020439532 0.010258165)
(0.068291768 0.00053963808 0.00439325)
(0.068409127 -0.00022755576 0.0043062315)
(0.072337161 2.1238211e-05 0.010242012)
(0.072746101 6.8769796e-05 0.010205771)
(0.068461573 0.00048512114 0.0042994783)
(0.068336332 -0.00032005394 0.0043751581)
(0.063003617 0.00086944227 -0.0044012553)
(0.06319612 -0.00055950833 -0.0043838799)
(0.068742526 -0.00014496 -0.018304128)
(0.068584532 0.00048919409 -0.018358587)
(0.068802461 0.00042022208 -0.018295024)
(0.068640765 -0.0002698257 -0.018332473)
(0.063260672 0.00081750816 -0.0043793862)
(0.063069774 -0.00065155278 -0.0043944599)
(0.091890886 0.0003087934 0.0048124497)
(0.091910098 7.9975565e-07 0.0048104024)
(0.092252986 0.00014291076 0.0082788736)
(0.085372161 -8.7669698e-05 0.0090988396)
(0.085448124 0.00035161555 0.0091122651)
(0.092242109 0.00016427702 0.0082818648)
(0.085430729 -1.8318748e-05 0.0091184512)
(0.085350194 0.0003964487 0.0091071007)
(0.080328213 0.00017878236 0.011235392)
(0.080286987 0.00018092933 0.01125202)
(0.080347696 0.00014470066 0.011232226)
(0.08030568 0.00012557035 0.011247424)
(0.076170435 -0.00013973801 0.0023498894)
(0.068266367 0.00058327584 0.0043959243)
(0.072674512 0.00026251316 0.010218278)
(0.072254191 0.00024872872 0.010258719)
(0.068378953 -0.0001737848 0.0043076879)
(0.072314658 0.00010257801 0.010242961)
(0.072724832 0.00012808235 0.010205324)
(0.068444852 0.00054439315 0.004301298)
(0.068305759 -0.00023925758 0.0043754916)
(0.062969948 0.00091302078 -0.0044074615)
(0.068552297 0.00053389599 -0.018369801)
(0.063157873 -0.00050423332 -0.0043910723)
(0.068706909 -8.5201626e-05 -0.018313866)
(0.063240356 0.00087809407 -0.0043836664)
(0.068781979 0.00048728739 -0.018301072)
(0.068607887 -0.00017797867 -0.018334643)
(0.063033999 -0.00056697553 -0.0043978909)
(0.072338585 0.00023686731 0.010240975)
(0.072746157 0.00018919479 0.010207643)
(0.068337559 0.0005775028 0.0043754821)
(0.068462443 -0.00022824576 0.0042996438)
(0.063070966 0.00090894145 -0.004394398)
(0.068641848 0.000527092 -0.018332562)
(0.063261464 -0.00056078932 -0.0043792767)
(0.068802998 -0.00016334398 -0.018295363)
(0.072279831 5.333453e-05 0.010259567)
(0.072700509 4.9006358e-05 0.010214828)
(0.068409191 0.00048433705 0.0043063709)
(0.068291436 -0.00028262796 0.0043932419)
(0.063196262 0.00081613902 -0.0043838962)
(0.063003253 -0.00061256149 -0.004401211)
(0.068743107 0.00040174434 -0.018304106)
(0.068584481 -0.00023233082 -0.018358799)
(0.090309075 0.00051158964 -0.032462354)
(0.09035767 -0.00022648119 -0.032551708)
(0.088291205 0.00015138191 -0.023913216)
(0.088617171 0.00017351256 -0.023841671)
(0.090365042 0.00048468754 -0.032513647)
(0.090360299 -0.00022317496 -0.032428761)
(0.08866223 9.0692342e-05 -0.023793736)
(0.088331157 9.7221453e-05 -0.023896578)
(0.09038927 -0.00022929134 -0.032503837)
(0.088355561 0.00015155799 -0.023881113)
(0.09037319 0.00046078635 -0.032424074)
(0.088682539 0.00013697668 -0.023796346)
(0.088640572 5.0635044e-05 -0.023828169)
(0.090328486 -0.00028033887 -0.032449366)
(0.090373638 0.00044608798 -0.032539885)
(0.088312348 6.7411195e-05 -0.023905726)
(0.090316383 0.0004694335 -0.032449085)
(0.090359793 -0.0002669994 -0.032541249)
(0.088299657 0.00011523591 -0.023908062)
(0.088625102 0.00014445196 -0.023825408)
(0.090374626 0.00042640616 -0.032502329)
(0.09035478 -0.00026715653 -0.032424234)
(0.088665387 6.0970395e-05 -0.023799756)
(0.088338361 4.9636154e-05 -0.023879305)
(0.090339432 -0.00028423068 -0.032513027)
(0.090337364 0.00043081549 -0.032427686)
(0.08830611 0.00010785623 -0.023896973)
(0.088636635 0.00012109371 -0.023791995)
(0.090284596 -0.00030049225 -0.032459955)
(0.090332969 0.00044217005 -0.032550144)
(0.08859215 3.9133806e-05 -0.023841502)
(0.088264809 6.5784048e-05 -0.023912913)
(0.090390413 0.00048643471 -0.032504759)
(0.090373987 -0.00020377885 -0.032423635)
(0.0886837 0.0001203505 -0.02379611)
(0.088355558 0.00010642541 -0.02388244)
(0.090329985 0.00053749989 -0.032450191)
(0.090374814 -0.00018846241 -0.032539293)
(0.088314409 0.00019112481 -0.023904804)
(0.088641492 0.00020682794 -0.023828783)
(0.090365721 -0.00022752836 -0.032513026)
(0.090361204 0.00048020593 -0.032429505)
(0.088332682 0.00016080043 -0.023895498)
(0.088662563 0.00016663055 -0.023794251)
(0.090357888 0.00048397099 -0.032552552)
(0.090309096 -0.00025449613 -0.032461818)
(0.088617609 8.3907412e-05 -0.023841342)
(0.08829038 0.00010697379 -0.023914484)
(0.090287195 0.0005590868 -0.032461258)
(0.090335341 -0.00018297126 -0.032550188)
(0.088268032 0.00019451223 -0.023912467)
(0.088594098 0.00021986531 -0.023842633)
(0.088638791 0.000137632 -0.023792172)
(0.090339207 -0.00017253557 -0.032427526)
(0.090341545 0.00054252112 -0.032514205)
(0.088307077 0.00015131016 -0.023898703)
(0.09035664 0.00052492009 -0.032425134)
(0.090376249 -0.00016828091 -0.032501856)
(0.088340855 0.00020938798 -0.023878596)
(0.088666689 0.00019707038 -0.023800646)
(0.090361241 0.00052480187 -0.032542301)
(0.090317534 -0.0002118207 -0.032448736)
(0.088626573 0.00011350365 -0.023825457)
(0.088299975 0.000143422 -0.023909662)
(0.08869423 0.00010116506 0.00053536182)
(0.091993129 -1.0150672e-05 0.0027535646)
(0.091751937 6.7726694e-05 0.0027015204)
(0.091699385 0.0001138657 0.0026006553)
(0.092036298 1.272888e-05 0.0026544719)
(0.091656345 2.1864803e-05 0.0027260721)
(0.091591668 9.4415808e-05 0.0026909268)
(0.091605917 1.2937006e-05 0.0028161723)
(0.093152144 0.00016194253 0.0025440783)
(0.092474371 0.00024313055 0.0019340669)
(0.093868481 0.00022068186 0.0023971276)
(0.094496386 0.00020719313 0.0022248299)
(0.091641974 0.00019818257 0.0021056551)
(0.08970488 0.00023546136 0.0010085138)
(0.0884319 0.00019522763 0.0018237215)
(0.088442326 0.00015539973 0.0018188545)
(0.091167936 0.00020438885 0.0022082867)
(0.090310966 0.00018103551 0.0025882411)
(0.10304212 0.00022336491 -0.0098230028)
(0.09909795 0.00042325002 -0.013499981)
(0.10296477 0.00022030153 -0.0099216061)
(0.099137423 -0.00019667777 -0.013555224)
(0.10252606 -4.6690307e-06 -0.0022902589)
(0.10247942 0.00023896359 -0.0023866317)
(0.10345096 0.00019261306 -0.0044469993)
(0.10352612 0.00011322176 -0.004581256)
(0.10251714 0.00010699683 -0.0023393629)
(0.10351987 0.00017797302 -0.0045409349)
(0.1025534 0.0003557777 -0.0022388608)
(0.10344252 4.0915407e-05 -0.0044077515)
(0.10297664 0.00016593568 -0.0099224653)
(0.099145451 0.00049151783 -0.013535796)
(0.10305845 0.00013198804 -0.0098242137)
(0.09911309 -0.0001145457 -0.013478843)
(0.10255952 -4.8797276e-05 -0.0022528786)
(0.10252563 0.00019604705 -0.0023515856)
(0.10345651 0.00024512646 -0.004415345)
(0.10353493 0.00011955745 -0.0045481775)
(0.10248223 7.3931389e-05 -0.0023915342)
(0.10352967 0.0001668351 -0.0045817282)
(0.10253388 0.00031565645 -0.0022938125)
(0.10346034 8.9259337e-05 -0.0044490481)
(0.10297988 9.7254512e-05 -0.0099183916)
(0.10305918 8.0947795e-05 -0.0098210194)
(0.099150646 0.0004957777 -0.013543504)
(0.099112708 -0.00012456898 -0.013491337)
(0.099117815 0.00041481341 -0.013474246)
(0.10306201 0.00019958596 -0.009823436)
(0.10298755 0.00015900531 -0.0099195757)
(0.099156589 -0.00019289436 -0.013532301)
(0.099487628 4.8908269e-05 0.0016136957)
(0.10126886 5.0514041e-05 0.00067803193)
(0.099425055 0.00025432005 0.0014774291)
(0.10132223 0.00012047268 0.00056007086)
(0.096887597 0.00011887625 0.0025521578)
(0.096921624 0.00024343395 0.0026335796)
(0.098265458 6.8362575e-05 0.0023546785)
(0.098202601 0.00015206921 0.0024462315)
(0.096914787 5.1075908e-06 0.002634618)
(0.096871093 0.00015061923 0.002551553)
(0.098192297 0.00013380085 0.0024405694)
(0.098249492 0.00020390497 0.0023422962)
(0.099417484 -4.4533153e-05 0.001438914)
(0.099482958 0.00021356979 0.0015738451)
(0.10134689 0.00015137928 0.00051687705)
(0.10130866 0.00022509755 0.00063413857)
(0.099482582 8.8780119e-05 0.00158926)
(0.10130261 7.1593845e-05 0.00064547503)
(0.099417975 0.00035187038 0.0014532327)
(0.10134283 0.00013386854 0.00052528195)
(0.096934791 6.6520725e-05 0.0026430264)
(0.096895078 0.00018994022 0.0025622152)
(0.098206072 0.00012386312 0.0024591645)
(0.098267331 0.00019868638 0.0023622149)
(0.096891082 0.00015207047 0.0025678535)
(0.098254444 9.3138972e-05 0.0023594439)
(0.096934805 0.00030057413 0.0026530667)
(0.098196928 0.00014882868 0.0024578547)
(0.099424917 5.5767861e-05 0.001489286)
(0.099489073 0.00025599619 0.0016246482)
(0.10131617 0.00015844945 0.00057208144)
(0.10126659 0.00021847317 0.00068525635)
(0.095404264 0.00015051786 0.0028906075)
(0.096212905 9.3019288e-05 0.0026940093)
(0.095350739 0.00026136098 0.0027815223)
(0.096257703 0.00011800006 0.0025961306)
(0.094441078 9.1061625e-05 0.0030651312)
(0.094392299 0.00016234994 0.0029713738)
(0.094919266 0.00013622109 0.0029098085)
(0.094972974 0.0001724033 0.0027989334)
(0.094423539 0.00018430765 0.0030150471)
(0.094965211 0.00012666026 0.0028421071)
(0.094464712 0.00025160954 0.0031117462)
(0.094911438 0.00010448679 0.0029488409)
(0.095359347 0.00010240935 0.0027768289)
(0.095416869 0.00019658505 0.0028792662)
(0.096257766 0.00015596975 0.0026033746)
(0.09621784 0.00020585223 0.0026924379)
(0.093601487 0.000141548 0.0029420223)
(0.094117572 0.00018244561 0.0028295556)
(0.093653358 0.00017933334 0.00305556)
(0.094068324 0.00019494888 0.0029260257)
(0.09364441 0.00016662182 0.003018653)
(0.09409842 0.00010638991 0.0028873949)
(0.093593135 0.00025447649 0.0029046049)
(0.094141111 0.00011847305 0.0027848528)
(0.093408269 0.00012234046 0.0029855054)
(0.093357452 0.00011923385 0.0030742493)
(0.092997896 0.00020043301 0.0029918122)
(0.092742762 9.9357723e-05 0.0024631595)
(0.093043403 0.00023671403 0.0030813037)
(0.093368566 0.00015495245 0.0030767342)
(0.093423904 0.00017288588 0.0029885829)
(0.092785936 0.00010464323 0.0023718615)
(0.093008783 0.00013570963 0.0029912101)
(0.093046611 0.00011810145 0.0030769303)
(0.092190509 0.00015412551 0.0026000328)
(0.092140623 0.00022620864 0.0024971748)
(0.093368348 0.00016566098 0.0030720063)
(0.093419193 0.00017112132 0.0029833815)
(0.092755552 0.00018010329 0.0024600203)
(0.093005061 9.7842071e-05 0.002989289)
(0.093049003 6.6292223e-05 0.0030774149)
(0.093426553 0.0001070941 0.0029902509)
(0.093373597 0.00012672044 0.0030756139)
(0.092789945 0.00015264157 0.0023747481)
(0.093050353 0.000187632 0.0030765887)
(0.093010473 0.0001724995 0.0029905305)
(0.09365571 0.00014054383 0.0030577365)
(0.094070357 9.691626e-05 0.0029308579)
(0.093607353 0.0001741573 0.0029447651)
(0.094123262 0.00010991409 0.0028325146)
(0.09215025 8.8924222e-05 0.0024917158)
(0.092206884 0.00014745277 0.0025866531)
(0.093603727 5.621311e-05 0.0029128918)
(0.094145832 0.00017571955 0.0027975465)
(0.093655468 0.00013307458 0.0030256965)
(0.094104895 0.00018949946 0.0028977627)
(0.094467505 6.024245e-05 0.0031194225)
(0.094911291 0.00018713882 0.0029602522)
(0.094427709 0.00011713097 0.0030245423)
(0.094965073 0.00017005566 0.0028537894)
(0.094394337 0.0001649961 0.0029785131)
(0.094971852 0.00012361743 0.0028098689)
(0.094445441 0.00022684628 0.0030757795)
(0.09491888 0.00015396134 0.0029204381)
(0.095414567 0.00013327967 0.0028875798)
(0.096210163 8.3847139e-05 0.0027024715)
(0.095355942 0.00021843152 0.0027886593)
(0.096244848 0.00013276251 0.0026110965)
(0.095345729 5.3509316e-05 0.0027966962)
(0.096237909 0.00017483095 0.0026130407)
(0.095399325 0.00015161443 0.0029045839)
(0.096193566 0.00020323635 0.0027078032)
(0.091594079 0.00011435264 0.0025595488)
(0.091642679 7.6911568e-05 0.0026543108)
(0.091876035 0.00013298798 0.0025265655)
(0.091928275 0.00014227092 0.0024183085)
(0.091918438 0.00013024786 0.0024593315)
(0.091622622 0.00018454015 0.0026015158)
(0.091664322 0.0002181076 0.002696416)
(0.091867926 8.8445477e-05 0.0025640381)
(0.095399067 0.00010594111 0.0029051918)
(0.096193347 5.4415986e-05 0.0027081069)
(0.095346455 0.00020377118 0.0027968309)
(0.096238488 8.2798675e-05 0.0026129516)
(0.094446241 3.0103926e-05 0.0030761904)
(0.094395609 9.2232958e-05 0.0029784298)
(0.094919487 0.00010318003 0.0029205034)
(0.094972932 0.000134109 0.0028096027)
(0.094427879 0.00013974964 0.0030248908)
(0.094965155 8.7250938e-05 0.0028543142)
(0.09446809 0.00019659588 0.0031193113)
(0.094911803 6.9872831e-05 0.002960463)
(0.095356156 3.8989707e-05 0.0027887201)
(0.095415808 0.00012479872 0.0028871538)
(0.096245066 0.00012502265 0.0026114153)
(0.096211188 0.00017434579 0.002702393)
(0.093375982 0.00012860223 0.0030755815)
(0.093427858 0.00014886061 0.0029899401)
(0.092792023 0.00010153333 0.0023747485)
(0.093012123 8.2778272e-05 0.0029905923)
(0.0930524 6.7262479e-05 0.0030769635)
(0.09342028 8.4507513e-05 0.0029839752)
(0.093368402 8.9566901e-05 0.0030723452)
(0.092756105 7.3901533e-05 0.002460254)
(0.093049454 0.0001885154 0.0030774848)
(0.093005894 0.00015708154 0.0029896322)