/*--------------------------------*- C++ -*----------------------------------*\
  =========                 |
  \\      /  F ield         | OpenFOAM: The Open Source CFD Toolbox
   \\    /   O peration     | Website:  https://openfoam.org
    \\  /    A nd           | Version:  7
     \\/     M anipulation  |
\*---------------------------------------------------------------------------*/
FoamFile
{
    version     2.0;
    format      ascii;
    class       volScalarField;
    location    "1000";
    object      k;
}
// * * * * * * * * * * * * * * * * * * * * * * * * * * * * * * * * * * * * * //

dimensions      [0 2 -2 0 0 0 0];

internalField   nonuniform List<scalar> 
33943
(
1.5227748
1.5208464
1.5224057
1.5216207
1.527444
1.5207558
1.5226075
1.5238107
1.5218771
1.5215585
1.5235957
1.5232473
1.5204848
1.5207657
1.5206976
1.520451
1.5208516
1.5216987
1.5225343
1.5228835
1.5275625
1.520367
1.5204423
1.5276521
1.5292027
1.5288638
1.5284132
1.5287022
1.5202175
1.5193191
1.5201311
1.5208952
1.5213355
1.5226204
1.5222546
1.522697
1.5229823
1.5221984
1.5224326
1.5224407
1.5221789
1.5248567
1.5245011
1.5213337
1.5212988
1.5219581
1.522003
1.5212164
1.5210181
1.5217873
1.5215661
1.5205665
1.520317
1.5205563
1.5203329
1.5205654
1.5205577
1.5202741
1.5202682
1.5277913
1.5222519
1.5229676
1.5219694
1.5226455
1.5200302
1.5197987
1.5199585
1.5197313
1.5204505
1.5200426
1.5203728
1.5199707
1.5215175
1.5212875
1.5216809
1.5216402
1.5235194
1.5278489
1.5238562
1.5295561
1.529043
1.5287137
1.5291699
1.5202193
1.5202148
1.5202727
1.5202536
1.5289511
1.5282779
1.5279925
1.5286429
1.5308681
1.5305917
1.5303931
1.5306478
1.5194295
1.5194816
1.5209848
1.5210312
1.518666
1.5186016
1.520329
1.520347
1.5191314
1.5205183
1.5210074
1.5196005
1.5207983
1.5208016
1.5210043
1.5210101
1.5209147
1.5213887
1.5214346
1.5210804
1.5226754
1.5222939
1.52277
1.5226928
1.5226368
1.5227747
1.5229667
1.5229134
1.5225642
1.5227491
1.5219555
1.5221292
1.5228565
1.5221864
1.5222482
1.5256076
1.5215736
1.5216932
1.522649
1.522509
1.5214503
1.52226
1.5214999
1.5223452
1.521138
1.5211217
1.5213612
1.5213504
1.5211111
1.5210988
1.5213346
1.5213139
1.5210704
1.5210514
1.5212531
1.5212295
1.5209837
1.5208906
1.5209785
1.5211007
1.5208326
1.5208522
1.5203687
1.5203812
1.5207738
1.5208295
1.5203765
1.5203874
1.5208664
1.5208684
1.5203624
1.5203631
1.5203453
1.5208466
1.520865
1.5203618
1.5280226
1.5236453
1.5229341
1.52268
1.5300678
1.5295276
1.5290901
1.5295536
1.5239652
1.5211762
1.5211532
1.5213315
1.5213674
1.5213381
1.5217099
1.5216654
1.5213067
1.5210319
1.5208712
1.5210736
1.5212329
1.5213299
1.5215431
1.5212099
1.5209921
1.5200524
1.5199506
1.519989
1.520022
1.5198887
1.5199272
1.5198751
1.5198278
1.519992
1.5199188
1.5199241
1.5199875
1.5198526
1.5198577
1.5202376
1.5201611
1.5201389
1.5202567
1.5200699
1.5201273
1.5200992
1.5201052
1.5201096
1.5202016
1.5201965
1.5201067
1.5200703
1.5200443
1.5200725
1.5200397
1.5211329
1.5211551
1.5208967
1.5210256
1.5212334
1.5218561
1.5212441
1.5212056
1.5212229
1.5219185
1.5249217
1.528625
1.5283761
1.5289773
1.529242
1.5220359
1.522196
1.5312173
1.5309196
1.5307925
1.5310622
1.5203965
1.5203971
1.5203767
1.5203963
1.5203979
1.5204124
1.5203934
1.5204095
1.5289618
1.5270232
1.5272365
1.5289893
1.5308854
1.5306656
1.5306298
1.5308031
1.5178337
1.5187746
1.5223214
1.5187688
1.5188934
1.5205988
1.5203698
1.5188724
1.5188558
1.5205561
1.5206209
1.5207682
1.5210155
1.5210493
1.5212121
1.5210514
1.5209888
1.5212291
1.5211614
1.5189477
1.5188826
1.5205603
1.5205702
1.5192773
1.5206919
1.5211153
1.5197614
1.5208203
1.5208138
1.5209329
1.5209492
1.520926
1.5208059
1.5208183
1.5209376
1.5209676
1.5209981
1.5210024
1.5209555
1.5209852
1.5209609
1.5210335
1.5210038
1.5208852
1.5209152
1.5209843
1.5210213
1.5212112
1.5211881
1.5213903
1.5215246
1.5212032
1.5215924
1.5211274
1.5214415
1.5210048
1.5210466
1.5210178
1.5210428
1.5227191
1.522706
1.5228016
1.5223357
1.5225523
1.5229563
1.5229735
1.5226324
1.5227758
1.5229047
1.5225249
1.5226156
1.5226173
1.5224571
1.5227215
1.5227523
1.5227347
1.5227517
1.5217901
1.5219546
1.5223719
1.5225704
1.5226658
1.5220089
1.5227092
1.5220561
1.522847
1.5228554
1.5228226
1.5228364
1.5227541
1.5220798
1.5227743
1.5220961
1.5227988
1.5220967
1.5224881
1.5237268
1.5213136
1.5215985
1.5213024
1.5215721
1.5213632
1.5217014
1.5214019
1.5217573
1.5212524
1.5212156
1.5214789
1.5214486
1.5212725
1.521508
1.5212636
1.5214946
1.5210707
1.5210555
1.5211488
1.5211424
1.5210465
1.5210425
1.5211349
1.5211299
1.5211233
1.5210364
1.521034
1.5211206
1.5210306
1.521027
1.5211053
1.521113
1.5210138
1.5210123
1.5210724
1.5210751
1.5210067
1.521
1.5210486
1.5210603
1.5209676
1.520965
1.5209679
1.5209801
1.5209415
1.5209466
1.5208275
1.5208846
1.5214271
1.5213999
1.5204925
1.5205012
1.5214334
1.5214374
1.5205188
1.5205127
1.5204836
1.5212191
1.5213136
1.5204942
1.5213855
1.521385
1.5205108
1.5205133
1.521466
1.5214964
1.520511
1.5205175
1.5205136
1.5215037
1.5214817
1.5205142
1.5214842
1.5214578
1.5204841
1.5204937
1.5214819
1.5214846
1.5205055
1.5205117
1.524456
1.5290163
1.5296075
1.5292634
1.528718
1.5250584
1.5219549
1.5218899
1.521406
1.521443
1.5214501
1.5215814
1.52131
1.5217289
1.5212286
1.5214387
1.5212
1.5214818
1.5314902
1.53136
1.5310308
1.531147
1.5216986
1.5220721
1.5222261
1.5215442
1.5209074
1.520906
1.5209558
1.5209543
1.520906
1.5208981
1.5209506
1.5209411
1.5210235
1.5209504
1.5209415
1.5210112
1.5209539
1.520955
1.5210342
1.5210293
1.5210307
1.5210264
1.52109
1.5210971
1.5212503
1.5210871
1.5210941
1.5212387
1.5212288
1.5210657
1.5210783
1.5212104
1.5210812
1.5210092
1.5210204
1.521068
1.5206935
1.5208208
1.5208706
1.5207543
1.5206897
1.5208121
1.5207859
1.5206513
1.5209099
1.5208575
1.5208684
1.5208975
1.520976
1.5208996
1.5209123
1.520961
1.52079
1.5209123
1.5210265
1.5209115
1.5210095
1.5210269
1.5211593
1.5211379
1.5210275
1.5209752
1.5209602
1.5210108
1.5209084
1.5208754
1.5207527
1.5207963
1.5204825
1.5204369
1.5205148
1.5204683
1.5204644
1.5204962
1.5204262
1.5204593
1.5204724
1.5204347
1.5205036
1.5204669
1.5204783
1.520432
1.52051
1.5204634
1.5204028
1.5203933
1.5204343
1.5204265
1.5204202
1.5204077
1.5204465
1.5204375
1.520319
1.5203425
1.5202382
1.5202539
1.520293
1.5203254
1.520234
1.5202035
1.5205158
1.5205218
1.5204621
1.5204697
1.5204667
1.5204264
1.5204742
1.5205025
1.5204594
1.5205088
1.5204684
1.5204816
1.5205275
1.5204311
1.5204744
1.520403
1.5203922
1.5204439
1.5204284
1.520449
1.5204368
1.5204047
1.520426
1.5203749
1.520392
1.520462
1.5204371
1.5203872
1.5204086
1.5204368
1.5204621
1.5203839
1.5204063
1.5204263
1.5204062
1.5203803
1.5203957
1.5204737
1.5204267
1.5205039
1.5204562
1.5204908
1.5204621
1.5204122
1.5204382
1.5204748
1.5204298
1.5205058
1.5204591
1.5204615
1.5204899
1.5204098
1.5204363
1.5204601
1.5204622
1.5203967
1.5204003
1.5204186
1.5204201
1.5203768
1.5203788
1.5203959
1.5204214
1.5203577
1.5203784
1.5204329
1.520464
1.5203742
1.5204013
1.5204623
1.5204988
1.5204045
1.5204377
1.5205075
1.5204536
1.5205121
1.5204597
1.5204919
1.5204953
1.5204305
1.5204352
1.5204752
1.5204247
1.5205165
1.5204633
1.5210287
1.5210177
1.521041
1.5210383
1.5208722
1.5208147
1.5209567
1.5209447
1.521094
1.5210896
1.5213339
1.5213091
1.5211084
1.5211008
1.5210745
1.5210678
1.5210832
1.5210805
1.5213548
1.5213423
1.5233921
1.5266668
1.5268307
1.5289147
1.5288364
1.5214334
1.5214105
1.5215232
1.5215876
1.5313426
1.5310267
1.530927
1.5311268
1.5205427
1.5205517
1.5205467
1.520547
1.5205255
1.5205136
1.5205369
1.5205429
1.5205049
1.5205187
1.5205378
1.5205399
1.5205186
1.5205295
1.5205414
1.5205475
1.528845
1.5267593
1.526932
1.5288609
1.5309624
1.5307606
1.5307253
1.5308609
1.5180184
1.5180402
1.5178258
1.5186231
1.5226289
1.5224032
1.5191901
1.5190459
1.5192011
1.52083
1.5205961
1.5191832
1.5191561
1.5207937
1.5208568
1.5194419
1.5207486
1.5207945
1.5209803
1.5208518
1.5210431
1.5210594
1.5211197
1.5211419
1.5210315
1.5201201
1.5210032
1.520796
1.5211696
1.5211666
1.5211403
1.5212207
1.5212363
1.5210908
1.5210912
1.5211792
1.5211782
1.521045
1.5210206
1.5211098
1.5211519
1.5212029
1.5212542
1.5212053
1.5212529
1.5211848
1.521129
1.5211605
1.5212339
1.5189288
1.5188602
1.5207328
1.52092
1.5209108
1.5207335
1.5208987
1.5209088
1.5192682
1.5208271
1.5209627
1.5209917
1.5211957
1.5212175
1.5214413
1.5196782
1.5209599
1.5209775
1.5209514
1.5209613
1.5209683
1.5209741
1.5209808
1.5209722
1.5209729
1.5209729
1.5209877
1.5209867
1.5209772
1.520988
1.5209864
1.5209931
1.5209619
1.5209617
1.5209673
1.5209673
1.5209994
1.5209854
1.5210162
1.5209906
1.5209696
1.5209678
1.5209756
1.520972
1.5210297
1.5209966
1.5210405
1.5210087
1.520982
1.520977
1.5209962
1.5209911
1.5210052
1.5210351
1.521203
1.5214952
1.5211288
1.5211595
1.5211883
1.5211757
1.521348
1.521589
1.5213972
1.52167
1.5211078
1.5211692
1.5210889
1.5210382
1.5217243
1.5212141
1.521498
1.5213371
1.5210075
1.5210065
1.5210123
1.5210109
1.52103
1.5210445
1.5210262
1.5210483
1.5210062
1.5210135
1.5209999
1.5210043
1.5210252
1.5210492
1.5210092
1.5210207
1.5227974
1.5227107
1.522757
1.5227146
1.5228269
1.5229698
1.5229733
1.5229722
1.5226836
1.5226392
1.5226307
1.5225306
1.5226111
1.5224713
1.5227972
1.5227856
1.5227347
1.5227544
1.5227159
1.5227402
1.5229308
1.5229254
1.5228458
1.522855
1.5228176
1.5228286
1.522602
1.5226083
1.5226199
1.5226404
1.5224648
1.5224176
1.5223807
1.522474
1.522712
1.5227179
1.5227325
1.5227222
1.5227501
1.522738
1.5227464
1.5227639
1.5218207
1.5221883
1.5223589
1.5219713
1.5220644
1.5224699
1.5225289
1.5220939
1.5224875
1.5223644
1.5225082
1.5223557
1.5226607
1.5226197
1.5226852
1.5226345
1.5227365
1.5227499
1.5227546
1.5227698
1.5221161
1.5225741
1.5225933
1.5221393
1.5227882
1.5227665
1.5227832
1.5228064
1.5226059
1.522641
1.5221781
1.5221467
1.5228146
1.5228107
1.522818
1.5228253
1.5228269
1.5228247
1.522834
1.5228383
1.5228406
1.5228311
1.5228474
1.5228573
1.5221995
1.5226616
1.5226754
1.5222231
1.5228531
1.522849
1.522865
1.5228703
1.5226963
1.5226828
1.5222307
1.5222326
1.5228799
1.5228697
1.5228862
1.5228962
1.5222184
1.5226973
1.5227112
1.5222369
1.5218888
1.5220003
1.5228857
1.5226897
1.5213144
1.5212231
1.521223
1.5213116
1.5212215
1.5212189
1.5212952
1.5213037
1.5212458
1.5212454
1.5213845
1.5213725
1.5212428
1.5212612
1.5214396
1.5214287
1.5211953
1.5211877
1.521245
1.5212393
1.5211686
1.521132
1.5212229
1.5212043
1.5212067
1.5212062
1.5212612
1.5212589
1.5212032
1.5212529
1.5211991
1.5212481
1.521011
1.5210266
1.5210869
1.521084
1.5209932
1.5209973
1.5210764
1.5210745
1.5209838
1.5209866
1.5210677
1.5210668
1.5209817
1.5209827
1.5210641
1.5210621
1.5209768
1.5209779
1.5210561
1.5210554
1.5209755
1.5209756
1.5210541
1.5210525
1.5209755
1.5209753
1.5210488
1.5210481
1.5209786
1.5209766
1.5210441
1.5210409
1.520978
1.5209767
1.5210222
1.5210218
1.5209784
1.5209782
1.5210203
1.5210186
1.5209795
1.5209774
1.5210116
1.5210108
1.5209824
1.5209808
1.5210037
1.5209973
1.5209819
1.5209748
1.5209518
1.5209511
1.521002
1.5209895
1.5209427
1.5209344
1.5210138
1.5208768
1.5210693
1.5208742
1.5211348
1.5212105
1.5208367
1.5207982
1.5215053
1.5214778
1.521514
1.5215146
1.5212861
1.5213835
1.5214597
1.5214609
1.5215493
1.5215809
1.521588
1.5215645
1.5215702
1.5215426
1.5215678
1.5215715
1.5230786
1.523215
1.5264215
1.5286523
1.5287575
1.5265533
1.5231153
1.5234678
1.5211379
1.5211467
1.5213571
1.5213429
1.5211178
1.5211324
1.5213112
1.5213351
1.5211277
1.5210405
1.5211142
1.5210323
1.5211427
1.5210433
1.5210509
1.5211324
1.5211073
1.521171
1.5210079
1.5210817
1.520979
1.5209965
1.5211139
1.5210927
1.5209774
1.5209969
1.5209288
1.520911
1.5210784
1.5211675
1.5212767
1.5211978
1.5208595
1.5208659
1.520934
1.5209258
1.5209291
1.5209292
1.5210273
1.5210354
1.5208596
1.5209239
1.5209243
1.5208643
1.5210472
1.5209308
1.5210374
1.5209374
1.5313863
1.5317212
1.5312478
1.531599
1.531553
1.5314746
1.5311644
1.5312638
1.5213017
1.5212716
1.5211943
1.5213679
1.5211943
1.5212123
1.5214374
1.5214127
1.5213661
1.5212993
1.5215906
1.5215291
1.5210949
1.5211137
1.5212113
1.5211916
1.5208942
1.520893
1.5208775
1.5208789
1.5208929
1.5208914
1.5208748
1.5208751
1.5209026
1.5209205
1.5209
1.5209168
1.520902
1.5209181
1.5209008
1.5209163
1.5208934
1.5208924
1.5208774
1.5208787
1.5208889
1.5208885
1.5208735
1.5208744
1.5209007
1.5209155
1.5208997
1.5209144
1.5208966
1.5209111
1.5208963
1.5209102
1.520933
1.5209537
1.5209322
1.5209523
1.5209198
1.5209189
1.5209283
1.5209294
1.5209159
1.5209149
1.520925
1.5209235
1.5209287
1.5209271
1.5209487
1.5209459
1.5209229
1.5209331
1.5209315
1.5209212
1.520927
1.5209384
1.5209225
1.5209334
1.520944
1.520967
1.5209609
1.5209382
1.5209371
1.5209592
1.5209355
1.5209567
1.5209714
1.5209883
1.5209647
1.5209817
1.5209622
1.5209787
1.5209598
1.5209759
1.5209817
1.5210091
1.520979
1.5210056
1.5209928
1.5210203
1.5209855
1.5210131
1.5210496
1.5211067
1.5210424
1.5210993
1.5210116
1.5210333
1.5210082
1.5210298
1.5210239
1.5210454
1.5210163
1.5210385
1.5210361
1.5210931
1.5210327
1.5210883
1.5210269
1.5210828
1.5210251
1.5210798
1.520997
1.5209924
1.5210168
1.521012
1.5210031
1.5210241
1.5210016
1.5210223
1.5210195
1.5210737
1.5210143
1.521067
1.5209748
1.5210008
1.5209736
1.5209989
1.5209516
1.5209665
1.5209487
1.520963
1.5209562
1.520972
1.5209551
1.5209706
1.5209692
1.5209656
1.5209943
1.5209897
1.5208252
1.5208139
1.5208154
1.5208066
1.5208674
1.5208666
1.5208661
1.5208654
1.5208734
1.5208794
1.5208716
1.5208771
1.520828
1.5208258
1.520818
1.5208142
1.5208095
1.5208083
1.520785
1.5207936
1.5208544
1.5208583
1.5208528
1.5208572
1.5208396
1.520838
1.5208248
1.5208219
1.520784
1.5207507
1.5207128
1.5207678
1.5208847
1.5208966
1.5208849
1.5208967
1.5208707
1.5208702
1.5208545
1.5208556
1.520875
1.5208751
1.5208596
1.5208597
1.5208809
1.520892
1.5208804
1.5208913
1.520913
1.5209292
1.5209128
1.5209284
1.520898
1.5209035
1.520897
1.5209021
1.5209021
1.5209087
1.5209021
1.5209086
1.5209079
1.5209229
1.5209061
1.5209198
1.5208443
1.5208111
1.5208381
1.5208026
1.520909
1.5209023
1.5209151
1.5209079
1.5209199
1.5209533
1.5209109
1.5209433
1.5208436
1.5208686
1.5207985
1.520822
1.5209638
1.5209571
1.5209787
1.5209715
1.5209723
1.5209891
1.520971
1.5209874
1.5209921
1.5210396
1.5209905
1.5210367
1.5209819
1.5209735
1.5210271
1.5210172
1.5209482
1.5209692
1.5209473
1.5209677
1.5209324
1.5209317
1.5209446
1.5209437
1.5209264
1.5209228
1.5209373
1.520933
1.5209409
1.5209359
1.5209604
1.5209543
1.520895
1.5208904
1.5209037
1.5208984
1.5208851
1.5208821
1.5208892
1.5208856
1.5208208
1.5208358
1.520829
1.5208114
1.5208377
1.5208146
1.5208373
1.5208111
1.5208229
1.5208661
1.5208022
1.5208862
1.5208176
1.5207509
1.5207718
1.5208383
1.520947
1.5208796
1.5209328
1.5208642
1.5208821
1.52081
1.5208955
1.5208248
1.5210898
1.5209796
1.520993
1.5211011
1.5211344
1.5211124
1.5210047
1.5210296
1.5209085
1.5209958
1.5208963
1.5210067
1.5210434
1.5209473
1.5210211
1.5209229
1.5209513
1.5210297
1.5209299
1.5210503
1.5209426
1.5208522
1.5208732
1.520963
1.5210165
1.5211051
1.5209984
1.5211211
1.5210136
1.5209166
1.5210284
1.5209337
1.5209131
1.5208429
1.5208546
1.5209234
1.520789
1.5208723
1.5208619
1.5208003
1.52094
1.5209625
1.520871
1.5208947
1.5208179
1.5209126
1.5208406
1.5208904
1.5214226
1.5214323
1.5212272
1.5212428
1.5212481
1.5210773
1.5210923
1.5212364
1.5214382
1.5214539
1.5212716
1.5212468
1.521256
1.521277
1.5210998
1.5211257
1.5211825
1.5213369
1.5211592
1.5213557
1.5211652
1.5210206
1.5210433
1.5211864
1.5212592
1.5214284
1.5212391
1.5214413
1.5212474
1.5210934
1.5212633
1.5211137
1.5215663
1.5215726
1.5213385
1.5213592
1.5214283
1.5214455
1.5216708
1.521671
1.5215793
1.5216786
1.5216713
1.521672
1.5214223
1.5214359
1.5214374
1.5214571
1.521683
1.5216841
1.5216901
1.5216788
1.5209831
1.5209122
1.5209181
1.5209875
1.5209976
1.5209856
1.5209136
1.5209273
1.5208629
1.5209341
1.5208573
1.5209379
1.5209459
1.5208701
1.520935
1.5208573
1.5211214
1.5210081
1.5210255
1.5211369
1.5209386
1.5210257
1.5209226
1.5210406
1.5210936
1.5209913
1.5210681
1.5209639
1.5210532
1.5211523
1.5210445
1.5211599
1.5210629
1.5209631
1.5209704
1.5210687
1.5210668
1.5211606
1.5210501
1.521175
1.5210682
1.5209663
1.5210812
1.5209819
1.5209411
1.5208683
1.5208834
1.520955
1.5209814
1.5209081
1.5210064
1.5209337
1.520827
1.5208891
1.5208122
1.5209028
1.5209516
1.5209281
1.5208504
1.5208745
1.5214605
1.5214734
1.5212613
1.5212806
1.521287
1.521108
1.5211271
1.5212714
1.5212979
1.5214723
1.5212843
1.5214817
1.5212943
1.5211383
1.52115
1.5213041
1.5213149
1.5214888
1.521296
1.5215001
1.5213063
1.5211468
1.5213206
1.5211658
1.5205306
1.5205578
1.5205229
1.5205659
1.5205827
1.5205465
1.5205572
1.5205948
1.5205284
1.5204974
1.5205367
1.5205064
1.5205197
1.5205273
1.5205521
1.5205622
1.5206223
1.5206578
1.5206145
1.5206655
1.5206272
1.5206095
1.5205721
1.5205875
1.5205923
1.5205773
1.520534
1.5205468
1.5205702
1.520577
1.5206192
1.520626
1.5206052
1.5206391
1.5205957
1.5206489
1.5206676
1.5206228
1.5206374
1.5206831
1.5206011
1.5205516
1.5206103
1.52056
1.5205766
1.5205895
1.5206279
1.520642
1.5205464
1.5205754
1.5205409
1.5205812
1.5205524
1.52054
1.5205099
1.5205203
1.5204876
1.5205261
1.5205158
1.520498
1.5205161
1.5205199
1.5205462
1.5205509
1.5207654
1.5208071
1.5207539
1.5208174
1.5207723
1.520713
1.520725
1.5207834
1.5208057
1.5208363
1.5207838
1.520858
1.5208027
1.5207431
1.5207643
1.5208238
1.52076
1.5207127
1.5207489
1.5207015
1.5207131
1.5206914
1.5206484
1.5206688
1.5206769
1.5206557
1.5206044
1.5206226
1.5206529
1.520662
1.5207108
1.5207204
1.5207867
1.5207657
1.5207176
1.5207384
1.520754
1.5207325
1.5206786
1.5206996
1.5207884
1.5208269
1.5207746
1.52084
1.5207338
1.520792
1.5208043
1.5207464
1.5206929
1.5207286
1.5206808
1.5207401
1.5207592
1.5207114
1.5207307
1.5207794
1.520691
1.5206328
1.520703
1.5206435
1.5206619
1.5206784
1.5207221
1.5207402
1.5206949
1.5206438
1.5206491
1.5206996
1.5206946
1.5206438
1.5206488
1.5206987
1.520649
1.5205909
1.5205958
1.5206537
1.5206486
1.5205906
1.5205952
1.5206522
1.5205967
1.5205554
1.5205596
1.5206008
1.5205958
1.5205548
1.5205581
1.5205989
1.520561
1.5205212
1.5205275
1.520565
1.5205603
1.5205231
1.5205248
1.5205622
1.5205619
1.5205233
1.520532
1.5205715
1.5205995
1.5205881
1.5205485
1.5205587
1.5205286
1.5204923
1.5205021
1.5205375
1.520563
1.5205535
1.5205156
1.5205232
1.5206528
1.5206052
1.5206167
1.5206651
1.5206981
1.520684
1.5206351
1.5206485
1.5206105
1.520556
1.5205661
1.5206215
1.5206523
1.5206395
1.5205829
1.5205951
1.5207505
1.5206994
1.5207141
1.5207645
1.5208045
1.5207862
1.5207346
1.5207524
1.5207104
1.5206465
1.5206599
1.5207253
1.5207614
1.5207452
1.5206789
1.5206944
1.5208784
1.5208821
1.5208223
1.5208275
1.5208435
1.5208474
1.5207789
1.5207843
1.5208776
1.5208211
1.5208325
1.5208879
1.5207779
1.5207881
1.520842
1.5208511
1.5207973
1.5207448
1.5207506
1.5208015
1.520796
1.5207442
1.5207523
1.5208039
1.5207568
1.5206889
1.5206944
1.5207621
1.5207566
1.5206886
1.520695
1.5207624
1.5208318
1.5207756
1.5208454
1.52079
1.5208094
1.5207958
1.520733
1.5207473
1.5208916
1.5208352
1.5208693
1.5208133
1.5207692
1.5208329
1.5208532
1.5207894
1.521001
1.5210002
1.5209941
1.5209877
1.5210107
1.5210102
1.5210091
1.5210075
1.5208745
1.5208732
1.5208421
1.5208023
1.5209452
1.5209447
1.5209375
1.5209292
1.5210523
1.5210533
1.5210498
1.521048
1.5212001
1.5211942
1.5211796
1.5211595
1.5210731
1.5210695
1.5210619
1.5210602
1.5210353
1.5210346
1.521028
1.521031
1.521042
1.5210411
1.52104
1.5210387
1.5212119
1.5212143
1.5212072
1.5212031
1.5225036
1.5227207
1.5263665
1.5265862
1.5287874
1.5286488
1.5212597
1.5212571
1.5212512
1.5212441
1.5213225
1.5213115
1.5213725
1.5213617
1.5313068
1.5310537
1.5309614
1.5311527
1.5287066
1.5264751
1.526666
1.5287686
1.5180602
1.518079
1.5177367
1.5192727
1.5192068
1.5184279
1.5195002
1.5199285
1.5192653
1.5190389
1.5191902
1.520999
1.5211336
1.52115
1.5207706
1.5209582
1.5208328
1.5191599
1.5191501
1.520972
1.521148
1.5211168
1.5210321
1.5211861
1.5211875
1.5192578
1.5194938
1.5195914
1.5192093
1.5208196
1.5210102
1.5211434
1.5211647
1.5210437
1.5210195
1.5210418
1.5210796
1.5191747
1.5196434
1.5199858
1.5203611
1.5207151
1.52096
1.5209623
1.5211105
1.5208634
1.5207374
1.5206905
1.5209061
1.5210822
1.5211236
1.5211656
1.5211916
1.5211633
1.5211719
1.521191
1.5211787
1.5211473
1.5211392
1.5211519
1.5211655
1.521182
1.5211969
1.5212173
1.5212262
1.5212087
1.5212213
1.5212322
1.521239
1.5212063
1.521204
1.5211418
1.5211823
1.5212208
1.5212099
1.5212055
1.5212284
1.5212549
1.5212473
1.5212524
1.5212567
1.5212124
1.5212112
1.5212314
1.5212287
1.5212537
1.5212582
1.5212574
1.521253
1.5211961
1.5211924
1.5212124
1.5212191
1.5211618
1.5211327
1.5211339
1.5211851
1.5212063
1.5211387
1.5212011
1.5211284
1.5212468
1.5212481
1.5212363
1.5212355
1.5209072
1.5209158
1.5208778
1.5209887
1.5209743
1.5209044
1.5208955
1.5208716
1.5209612
1.5209697
1.5209833
1.5209605
1.5209406
1.5210163
1.5210384
1.5214061
1.5212146
1.5212714
1.5212223
1.5214507
1.5209623
1.5209631
1.5209799
1.5209777
1.5209771
1.5209744
1.5209759
1.5209823
1.5210086
1.5209933
1.5210133
1.5209917
1.5209528
1.5209523
1.5209712
1.5209711
1.520969
1.5209691
1.5209638
1.5209587
1.5209828
1.5209762
1.5209737
1.5209814
1.52098
1.5209804
1.5209831
1.5209857
1.5209738
1.5209731
1.5209741
1.5209757
1.5209748
1.520973
1.5209735
1.5209753
1.5209743
1.5209721
1.5209728
1.5209749
1.5209715
1.5209747
1.5209751
1.5209715
1.5209706
1.5209745
1.5209746
1.5209704
1.5209754
1.5209773
1.5209789
1.5209767
1.5209712
1.5209758
1.5209783
1.5209732
1.5209833
1.5209817
1.520988
1.5209906
1.5209765
1.5209828
1.5209892
1.5209813
1.5209713
1.5209698
1.5209698
1.5209715
1.5209704
1.5209692
1.5209696
1.520971
1.5210243
1.5210367
1.5210167
1.5210213
1.5209918
1.5209946
1.5209987
1.5209934
1.5209778
1.5209785
1.5209812
1.5209799
1.5209742
1.5209749
1.5209768
1.5209754
1.5210533
1.5210458
1.5210251
1.5210279
1.5210055
1.5210024
1.5209954
1.5209968
1.5210374
1.5210534
1.5210249
1.5210122
1.5209943
1.521004
1.5209948
1.5209871
1.5209866
1.520984
1.5209821
1.520984
1.5209811
1.5209789
1.520977
1.5209784
1.5209804
1.5209858
1.5209827
1.5209772
1.5209776
1.5209802
1.5209752
1.5209734
1.5210084
1.5210061
1.5210201
1.5210168
1.5210147
1.5210102
1.5210371
1.5210247
1.5210332
1.5210485
1.5210279
1.5210454
1.521209
1.5211903
1.5211534
1.5211827
1.5211338
1.5211692
1.5215145
1.5213842
1.5213442
1.5215579
1.5213352
1.5216011
1.5211046
1.5211183
1.5211122
1.5211222
1.5211365
1.5211507
1.5211653
1.5211607
1.5212651
1.5212959
1.5213254
1.5213187
1.5215509
1.5216678
1.5217309
1.5215275
1.5210916
1.5210973
1.5211075
1.5211039
1.5211586
1.5211299
1.5211611
1.5211259
1.521107
1.5210635
1.5211051
1.5211488
1.5210228
1.5210657
1.5210826
1.5210396
1.5215234
1.5217753
1.5215426
1.5218444
1.5212271
1.5213452
1.521292
1.5211693
1.5218251
1.5215437
1.5214518
1.5216474
1.5213194
1.5212502
1.5213357
1.5212433
1.5210053
1.5210073
1.5210086
1.5210083
1.5210118
1.5210126
1.5210137
1.5210141
1.5210219
1.5210241
1.5210255
1.5210249
1.5210392
1.521047
1.5210487
1.5210362
1.5210049
1.5210052
1.521009
1.52101
1.5210131
1.5210126
1.5210151
1.5210163
1.5209859
1.5209991
1.5210047
1.5209901
1.5210101
1.5210073
1.5209916
1.5209934
1.5210223
1.5210221
1.5210255
1.5210269
1.5210363
1.5210358
1.5210502
1.5210524
1.5209957
1.5210143
1.52102
1.5210009
1.521042
1.5210281
1.5210066
1.5210151
1.5227867
1.5227995
1.5226206
1.5226776
1.5227186
1.5228506
1.5228254
1.522721
1.5226032
1.5226724
1.522682
1.5226303
1.5227821
1.5227944
1.5228024
1.522792
1.5229108
1.5229172
1.5229707
1.522971
1.5229156
1.5229011
1.5228947
1.5229209
1.5226252
1.5226112
1.5225166
1.5224572
1.5226038
1.522628
1.5223944
1.5224662
1.5227308
1.5227125
1.52275
1.5227374
1.5227226
1.5227144
1.522751
1.5227408
1.5228353
1.5228107
1.5228449
1.5228231
1.52281
1.5228158
1.5228252
1.5228284
1.5226143
1.5226479
1.5223691
1.5224777
1.5227397
1.522728
1.522756
1.5227692
1.5220255
1.5222191
1.5224013
1.5221892
1.5222881
1.5225184
1.5225638
1.5223164
1.5224937
1.5223578
1.5225139
1.5223406
1.5226695
1.5226282
1.5226985
1.5226468
1.5227453
1.5227586
1.5227688
1.5227836
1.522344
1.5226128
1.5226337
1.5223722
1.522803
1.5227747
1.5227901
1.522818
1.5226489
1.5226718
1.5224058
1.5223869
1.5228216
1.5228302
1.5228389
1.5228426
1.5228485
1.5228374
1.5228571
1.5228674
1.5224369
1.5226998
1.5227141
1.5224655
1.52286
1.5228562
1.5228729
1.5228777
1.5227251
1.5227177
1.522468
1.5224658
1.5228934
1.5229019
1.5224639
1.522736
1.522758
1.5224918
1.5214483
1.5214793
1.5220739
1.5221695
1.5214534
1.521449
1.5222737
1.522298
1.5211597
1.5211551
1.5212383
1.5212379
1.5211621
1.5211601
1.5212364
1.5212352
1.5211657
1.5211631
1.5212326
1.5212317
1.5211714
1.5211667
1.5212281
1.5212245
1.5211382
1.5211303
1.5212861
1.5212847
1.5211545
1.5211455
1.5212798
1.5212741
1.5210708
1.5210242
1.5213297
1.5213252
1.5213209
1.5211086
1.5211266
1.5213155
1.5211714
1.5211711
1.5211897
1.5211895
1.5211612
1.5211661
1.5211846
1.5211818
1.5211343
1.5211494
1.5211695
1.5211659
1.5210722
1.5211041
1.5211471
1.5211369
1.5211779
1.5211732
1.521204
1.5212037
1.521178
1.5211778
1.5212026
1.5212013
1.521178
1.5211771
1.5211982
1.5211976
1.5211727
1.5211745
1.5211948
1.5211929
1.5210017
1.5210177
1.5209837
1.5209877
1.5209742
1.520977
1.5209724
1.5209731
1.5209677
1.5209685
1.5209666
1.5209666
1.5209667
1.5209665
1.5209708
1.5209682
1.5209717
1.5209701
1.5209726
1.5209722
1.5209744
1.5209721
1.5209789
1.5209764
1.5209818
1.5209745
1.5210046
1.5209906
1.5210227
1.5210807
1.521156
1.5212442
1.5220484
1.5214419
1.5220155
1.5214144
1.5220629
1.5214512
1.5220748
1.5214503
1.5217444
1.5212353
1.5218905
1.5213257
1.5219935
1.5214
1.5219823
1.5214014
1.5221118
1.5214843
1.5221484
1.5215158
1.5221509
1.5215237
1.522135
1.5215006
1.522152
1.5215035
1.5221206
1.521475
1.522164
1.5215028
1.5221581
1.5215062
1.5223608
1.5226544
1.5226522
1.5223849
1.5222962
1.5223706
1.522568
1.5226144
1.5261144
1.5284003
1.5285503
1.5263001
1.5260437
1.5284215
1.5285399
1.5262167
1.5223881
1.5225374
1.5222907
1.5226048
1.522756
1.5225545
1.5225497
1.5223224
1.5211022
1.5211006
1.5211222
1.5211204
1.5211073
1.521128
1.5211064
1.521127
1.5211387
1.5212063
1.5211377
1.5212036
1.5211332
1.5211989
1.5211311
1.5211947
1.5210816
1.5210617
1.5211004
1.5210829
1.5210974
1.5211168
1.5210939
1.5211134
1.5211097
1.5210905
1.5211729
1.5211545
1.5211926
1.5211271
1.5211234
1.5211868
1.521057
1.5210851
1.5210541
1.5210818
1.5210238
1.5210212
1.5210418
1.5210393
1.5210431
1.521024
1.5210704
1.5210524
1.5210125
1.520995
1.5210296
1.5210129
1.5210647
1.5210946
1.5210644
1.5210937
1.5210269
1.5210264
1.5210454
1.5210448
1.52103
1.5210492
1.5210297
1.5210488
1.5210601
1.5210594
1.5210893
1.5210876
1.5210457
1.5210184
1.5210003
1.5210409
1.5210399
1.5210618
1.5210192
1.5210486
1.5209587
1.5209529
1.5209284
1.5209364
1.5209676
1.5209982
1.5209632
1.520994
1.5209663
1.5209666
1.5209842
1.5209847
1.5209732
1.5209915
1.520972
1.5209908
1.5210058
1.5210405
1.5210055
1.5210396
1.521
1.5210007
1.5210337
1.5210329
1.5209222
1.5209495
1.5209217
1.5209491
1.5209312
1.5209582
1.5209289
1.5209564
1.5209142
1.5209114
1.5208881
1.520884
1.5209033
1.5209017
1.5208725
1.5208754
1.5210067
1.5210296
1.5210039
1.5210269
1.521059
1.5210801
1.521051
1.5210758
1.521081
1.5211236
1.5210802
1.5211229
1.5210392
1.5210812
1.5210373
1.5210774
1.5208774
1.5208779
1.5208462
1.5208461
1.5208806
1.5208792
1.5208474
1.5208494
1.5209041
1.5209302
1.5209029
1.5209293
1.5209016
1.5209275
1.5209021
1.5209278
1.5209407
1.5209302
1.520955
1.5209439
1.5209459
1.5209612
1.5209445
1.52096
1.5209712
1.5209572
1.5209975
1.5209827
1.5209794
1.521007
1.5209777
1.5210047
1.5208759
1.5208756
1.5208446
1.5208446
1.5208974
1.5209219
1.5208923
1.5209146
1.5208997
1.5209253
1.520899
1.5209243
1.5208746
1.5208725
1.5208444
1.5208455
1.5209843
1.5210131
1.5209843
1.5210127
1.5209474
1.5209629
1.5209478
1.5209636
1.5209814
1.5210096
1.5209819
1.5210092
1.5209494
1.5209652
1.5209488
1.5209651
1.5314838
1.5317736
1.531386
1.5316425
1.5315545
1.531436
1.5311596
1.531264
1.5211309
1.5211269
1.5211786
1.5211724
1.5211263
1.5211618
1.5211277
1.5211618
1.5210901
1.5211213
1.521087
1.521117
1.5211665
1.5212187
1.5211672
1.5212166
1.5211323
1.5211292
1.5211583
1.5211545
1.5211379
1.5211372
1.5211658
1.5211647
1.5211751
1.5211742
1.5212533
1.5212503
1.5211685
1.5212439
1.5211642
1.521237
1.521224
1.5212672
1.5212218
1.5212628
1.521186
1.5212224
1.5211798
1.5212154
1.5212741
1.5213673
1.5212685
1.5213583
1.5212299
1.521318
1.5212222
1.5213075
1.5210478
1.5210472
1.5210711
1.5210698
1.5210532
1.5210527
1.521077
1.5210778
1.5210895
1.5211273
1.5210892
1.5211261
1.5210842
1.5210828
1.5211205
1.5211175
1.5209543
1.5209543
1.520944
1.5209445
1.5209423
1.5209427
1.5209526
1.5209524
1.5209528
1.5209546
1.5209681
1.5209675
1.5209562
1.520956
1.5209468
1.5209474
1.5209581
1.5209578
1.5209579
1.520967
1.5209579
1.5209571
1.5209487
1.5209493
1.5209518
1.5209506
1.5209485
1.5209473
1.5209404
1.5209477
1.5209397
1.5209479
1.5209386
1.5209414
1.5209417
1.5209388
1.5209378
1.5209446
1.5209374
1.5209448
1.5209362
1.5209386
1.5209388
1.5209363
1.520936
1.5209428
1.5209356
1.5209429
1.5209343
1.5209367
1.5209369
1.5209345
1.5209511
1.5209514
1.5209411
1.5209417
1.5209412
1.5209417
1.5209516
1.5209516
1.5209523
1.520952
1.5209519
1.5209522
1.5209407
1.5209415
1.5209445
1.5209457
1.5209571
1.5209575
1.5209585
1.520953
1.5209413
1.5209418
1.5209348
1.5209343
1.520935
1.5209354
1.5209324
1.5209328
1.5209345
1.5209414
1.520934
1.5209417
1.520932
1.5209348
1.5209351
1.5209323
1.5209336
1.5209408
1.5209329
1.5209415
1.5209304
1.5209337
1.5209342
1.5209309
1.5209365
1.5209443
1.5209354
1.5209454
1.520932
1.520936
1.5209368
1.5209327
1.5209389
1.5209373
1.5209387
1.5209375
1.5209461
1.520941
1.5209412
1.5209459
1.5209367
1.5209367
1.520938
1.520938
1.5209454
1.5209402
1.5209449
1.5209404
1.5209328
1.5209336
1.5209326
1.5209339
1.5209333
1.5209321
1.5209322
1.5209333
1.5209347
1.5209337
1.5209346
1.5209337
1.5209342
1.5209344
1.5209352
1.5209354
1.5209316
1.5209302
1.5209305
1.520932
1.5209335
1.5209331
1.520931
1.5209313
1.5209327