/*--------------------------------*- C++ -*----------------------------------*\
  =========                 |
  \\      /  F ield         | OpenFOAM: The Open Source CFD Toolbox
   \\    /   O peration     | Website:  https://openfoam.org
    \\  /    A nd           | Version:  7
     \\/     M anipulation  |
\*---------------------------------------------------------------------------*/
FoamFile
{
    version     2.0;
    format      ascii;
    class       volScalarField;
    location    "1000";
    object      omega;
}
// * * * * * * * * * * * * * * * * * * * * * * * * * * * * * * * * * * * * * //

dimensions      [0 0 -1 0 0 0 0];

internalField   nonuniform List<scalar> 
33943
(
2271.9815
4059.3165
824.01246
838.31395
542.17267
4539.3894
9355.0755
2211.4465
4034.0145
4092.938
822.328
850.26215
7434.2908
1828.3198
1878.7947
7694.2664
678.53208
740.3512
855.52524
839.35394
465.77247
2061.6249
2017.8576
570.27286
443.15046
476.94533
468.17134
439.27832
4540.4923
1234.5392
1235.9688
9393.2521
9368.8819
1976.4856
663.42526
4505.8777
4572.8086
18423.613
18641.303
4014.4034
4064.2602
811.10562
824.02927
7510.2217
7713.7968
1879.1752
1829.2546
7705.0718
7637.488
1882.4949
1926.6428
12973.378
4322.3644
12554.182
4218.0077
13401.474
13044.936
4438.8847
4423.6346
426.55116
681.39375
743.45729
688.68846
758.57058
1513.5015
1358.7702
1533.6801
1356.7086
1826.0697
1825.7527
1868.9833
1850.8437
2059.8098
2100.0937
2022.1018
2065.3606
847.47582
468.41313
835.42132
416.11366
414.71878
432.19943
434.88796
5013.0625
4963.4939
4774.5732
4873.2744
444.50748
441.84521
480.3306
477.67498
422.18202
436.34028
432.96269
421.38024
1247.1085
1245.2211
9467.5749
9404.2163
669.50433
663.80342
1992.8427
2001.3071
665.35317
1972.5322
2010.5554
675.27164
4543.6395
4558.8634
18828.006
18709.794
4493.8259
4579.5449
18644.755
18671.099
2138.7547
685.39351
3509.7158
3509.7243
6682.9393
6658.8114
3547.2939
6768.9616
12760.415
12825.65
31931.031
32239.509
12964.244
32594.477
32315.587
840.38267
7612.5337
7425.1826
1812.9564
1859.9942
7583.4191
1907.0672
7692.0934
1867.9583
12693.602
13181.761
4234.9844
4368.4413
13410.304
13257.004
4418.9206
4464.7947
13189.425
13375.14
4397.9487
4474.6276
13302.985
12862.169
4444.3946
4442.1905
21155.808
21511.486
7847.3283
8115.7737
20288.626
21007.343
7664.9253
7850.0517
22098.214
22103.348
8284.1933
8303.9319
7993.109
21503.163
21310.166
8145.6965
428.31932
754.97757
682.08095
688.90892
390.29234
407.19688
405.80498
389.54293
741.08214
1364.9753
1364.2627
1538.5882
1517.26
1828.348
1828.3657
1872.3671
1854.4797
1580.792
1402.4959
1362.2372
1528.3959
1912.1879
1858.2508
1849.7624
1899.0675
4081.0155
3934.359
3923.1337
4122.7309
3309.4532
3292.1414
2976.6171
2970.368
4235.1069
3997.8226
4048.1079
4205.4447
3355.4098
3379.5037
4600.9711
5004.5653
5077.912
4501.0915
4703.4874
4550.5577
4665.6881
4624.5795
5248.2237
4719.9328
4696.8988
5180.2113
4724.7296
4859.9946
4759.1777
4795.5698
5013.5274
4953.1088
4974.5815
5018.5812
4920.8963
2068.0537
4775.1687
4988.9993
4980.8004
2051.0693
866.85929
415.61848
435.31159
436.46881
418.37814
2042.9424
1994.2229
402.42859
400.59343
410.42211
411.55176
9203.7398
9219.0618
8874.7236
9012.5307
8500.8441
8721.2533
8676.8873
8985.0434
426.61784
425.56129
435.88819
439.73973
478.46848
489.60084
493.09035
483.95202
548.91082
549.3206
531.637
668.08592
670.94038
2014.4647
2001.9024
664.84868
673.0255
2011.6882
1996.8014
4560.171
4589.3297
18736.629
18868.864
4551.1013
4585.6076
18782.694
18699.62
692.41555
685.19691
2153.7638
2165.6141
685.94438
2131.5992
2176.3613
695.48959
3530.2992
3547.5546
6719.865
6714.0809
6722.3638
3528.4142
3581.5852
6753.4532
12917.808
32897.654
32613.233
12948.02
12874.888
12939.424
32379.116
32782.118
3485.556
3507.2778
6640.3549
6652.3424
6780.9859
3564.9089
3589.3472
6758.5112
12939.489
12917.432
32606.779
32125.797
12771.527
12837.927
32558.236
32644.068
2220.5998
4042.9833
4037.4897
669.7699
676.34462
2248.6779
4084.6228
7357.1079
7325.1761
7443.5274
12212.553
12403.594
18178.215
17935.963
18193.015
12355.062
12319.418
18096.966
46578.826
47215.664
27960.561
28158.333
28346.494
47346.892
27947.311
47367.605
12403.65
12586.622
18168.091
18406.028
28527.984
47679.93
28583.344
47819.341
28539.946
47490.384
7732.4116
1945.0554
13342.093
4396.4153
12895.997
4371.066
13158.683
4343.9042
12439.685
4138.3419
13107.357
12720.106
4367.0642
4375.5385
13182.926
4394.3703
13378.165
4476.416
20394.031
21257.212
7703.5691
7912.5216
21648.169
21647.183
8017.7342
8160.4898
8239.5371
22004.226
22147.11
8285.9499
21713.047
21610.182
8235.9409
8076.0118
21452.226
21760.696
8173.837
8076.6492
21878.17
21920.088
8340.6882
8140.3808
21713.357
22045.458
8310.2336
8182.0474
21296.286
20541.311
7993.9372
8017.1509
38426.395
37737.443
11388.171
11549.096
38539.106
38400.127
11851.747
11692.151
11010.369
35605.208
37202.461
11226.821
37492.481
38193.382
11431.544
11505.248
39274.919
39984.899
12016.06
12159.132
12108.759
40196.403
39234.322
12128.756
38960.781
38552.111
11629.508
11760.795
37535.05
38452.591
11712.789
11760.433
701.51843
389.12451
391.65287
408.68039
406.70662
771.34046
1854.8328
1882.3356
1873.7661
1851.2993
1358.8018
1534.1146
1366.9517
1503.7458
1367.9151
1563.6957
1393.7393
1531.1098
387.22044
393.42548
392.02213
385.15358
1807.7591
1854.296
1804.8553
1842.0306
3001.7609
2966.1111
3271.3078
3344.0419
2974.9215
2985.4666
3324.3922
3349.3658
4173.2794
3977.2177
3986.1638
4203.5918
3978.5124
3895.2567
4055.564
4170.0418
4641.1066
4760.3727
4674.2144
4531.7034
4495.1871
5129.3818
4984.6516
4643.4606
4685.717
5194.213
5195.9673
4716.4063
4709.8412
4797.1123
4791.8882
4737.4006
4117.2563
4082.7698
4271.164
4308.0992
3474.8154
3412.7769
3059.4028
3116.8172
3340.9595
3002.4107
3007.4289
3357.2815
4174.8546
4000.1749
3992.0873
4211.4673
5222.7638
5268.0641
4734.0625
4724.6775
5215.2866
5172.1721
4662.3337
4733.2996
4691.7423
4786.4847
4812.2001
4747.79
4788.9317
4893.1599
4884.8936
4790.5619
9436.8531
9031.8963
9890.9397
9455.9505
9010.717
9381.2064
8829.8875
9231.0808
8888.2555
8723.6518
9368.4121
9186.9589
9540.0651
9126.4649
9950.8325
9555.0507
8020.8297
8151.3819
8343.1592
8512.2189
7903.6424
8038.032
8348.4614
8501.9776
6749.7392
7130.8638
5699.0529
5969.8459
6836.8464
7139.2637
6004.5416
5750.7739
10223.335
10340.449
9798.4747
9922.2707
9236.124
9064.8746
9395.2787
9603.1815
9437.9333
9737.6221
9588.5517
9801.891
10105.887
9385.6858
9693.9861
8196.5356
8347.8594
8539.6596
8685.5644
8649.9645
8832.2664
9275.32
9641.3751
8323.683
8647.0379
9868.1874
9552.9739
8772.153
9054.176
9687.692
10104.519
8917.7459
9294.8108
9380.978
9118.9913
8167.7804
8398.295
9761.445
9313.7165
10195.892
9752.1294
10151.016
9788.815
9102.4315
9438.8001
9664.1692
9215.079
10071.982
9595.2806
9896.65
10337.858
9223.37
9650.0619
10425.003
10447.638
9547.2998
9593.8004
9919.5113
9934.0888
8845.44
8885.9173
9525.3393
9693.9591
8525.563
8694.0717
9969.482
10175.437
9164.8239
9364.8641
10191.253
10432.031
9495.6292
9739.2293
10503.185
10024.724
10584.328
10114.239
10670.366
10716.086
9927.3717
9989.2474
10042.336
9586.4924
10317.731
9864.329
8984.2363
9194.5014
8953.2588
9041.3761
8893.4415
8795.3339
9080.5884
9215.4055
8873.0313
9017.5344
4934.9383
4890.5658
8516.3756
8761.3975
8924.5215
9080.5613
9142.2766
9169.8383
4958.1515
5022.6343
2117.2534
404.26521
415.01404
414.71571
405.11445
4954.6686
4883.5145
4882.9715
4656.2034
474.69816
460.72717
471.21641
474.60662
12809.974
13008.259
12931.331
12949.796
12561.018
12392.676
12485.901
12492.043
11704.345
11994.052
12221.732
12261.331
12131.671
12336.534
12468.499
12602.56
493.36028
482.0262
485.06694
497.26094
542.85081
581.84402
586.15989
555.31159
549.98997
550.19982
532.38909
533.12149
703.49837
694.12787
2017.2931
689.77019
693.53445
2176.1923
2157.9416
685.58671
692.26794
2169.8392
2153.9891
4599.2344
3531.9632
6710.4433
6729.528
3558.8449
3554.4604
3584.6567
6774.1374
6748.1441
12904.603
18831.802
32270.586
12860.733
32767.985
12918.436
12995.351
32951.351
32562.02
3514.459
3554.3896
6730.8579
6677.1745
3553.9834
3576.9371
6729.8744
6766.9445
12828.506
32591.33
12927.144
32787.458
12948.135
12908.535
32200.523
32588.367
677.60308
669.77282
2236.1941
4063.2716
4086.4735
2245.8531
4060.7438
4115.0649
670.28385
2212.6302
4012.5787
4035.3581
2260.5958
4111.457
4118.7584
679.66764
7387.8843
7379.1484
7382.0466
7419.0638
12378.74
12419.882
18106.17
18243.562
28692.291
28665.769
48140.975
48302.631
28578.642
47961.344
28040.271
47797.649
12515.344
12332.955
18152.531
18361.99
12264.309
12483.641
18038.596
18312.337
12410.432
12442.269
18327.999
18194.267
28450.137
28737.48
46948.23
47844.31
28966.168
28343.415
48236.545
47853.744
7304.1985
7310.9641
7455.232
7425.523
18085.158
12339.54
12535.543
18311.874
18249.515
12431.248
12388.263
18117.094
28325.886
28333.365
47978.478
47696.116
27731.385
47621.925
46801.281
28356.469
12172.845
17942.286
18204.887
12371.433
12279.623
12337.169
18183.232
18082.164
28211.959
28432.709
47607.519
48016.757
28499.817
27985.052
48087.581
47866.557
4011.2432
4015.1648
2204.8926
4716.4506
4676.7824
4055.3951
2226.8546
4741.4795
6190.5994
6182.213
10352.057
10286.135
15672.007
15344.942
6153.6097
6111.7666
10293.393
10221.669
15565.175
15528.174
6246.5623
6224.6823
10383.918
10466.06
15572.468
15878.376
18711.598
22912.941
18820.885
22937.527
18572.9
18374.126
22486.463
22795.909
18716.851
18843.083
23090.111
22921.243
22794.093
18574.947
18666.579
22773.582
52724.449
63302.709
64840.609
53667.299
54255.228
64427.652
64655.732
53975.288
26701.912
26320.907
39575.79
38269.369
26780.826
26774.158
39396.594
39216.284
26778.218
26979.625
38882.153
39665.993
54124.775
63904.402
65064.646
54243.797
39147.498
26669.98
26597.367
38723.22
64522.286
63890.119
54073.637
54008.817
18810.39
18630.984
22750.408
23027.199
19040.79
18946.056
23153.413
23162.487
26944.128
26601.311
38999.25
40376.734
54273.018
64231.928
65818.557
54462.411
27012.273
27035.328
40255.718
39721.325
65170.602
65456.407
54626.938
54430.864
27091.627
26892.751
38999.319
39805.766
54168.662
64153.697
65726.946
54222.028
12962.751
13491.313
4505.9444
4469.5629
8246.7361
22133.772
21920.243
8193.2347
21170.195
21008.492
8005.7439
7860.3377
21575.664
21738.613
7939.5097
8153.8055
19864.824
20965.283
7472.428
7723.9627
21564.229
21746.213
8080.9748
8163.5813
20960.75
20516.69
7852.0308
7918.9005
21408.769
21965.638
8079.4754
8207.5362
22085.489
8193.7988
21965.066
8327.8767
37400.27
35672.837
11059.318
11261.223
38099.579
38459.011
11487.43
11592.589
39381.612
38743.152
11670.594
11804.829
38543.909
38940.191
11752.452
11878.278
39990.126
39253.953
11977.01
12085.738
39538.341
40263.3
12053.609
12109.847
39326.952
38915.684
11711.032
11844.589
38176.613
38917.674
11811.997
11880.119
39014.641
38108.896
11644.224
11782.391
38888.667
39389.6
11829.911
11928.023
39708.251
39100.437
11786.576
11945.49
38792.332
39496.325
11971.701
12055.705
39526.487
38500.395
11790.446
11970.801
39286.474
40041.528
12066.052
12114.876
38428.11
11644.668
38259.956
11714.802
36896.107
35924.524
11392.597
11415.997
40624.433
39904.895
40844.578
40553.71
37712.775
39352.911
39620.89
40467.144
41605.759
42347.243
42577.602
41497.769
41277.147
40827.129
39739.955
40790.857
1424.871
1601.479
384.87272
387.32358
393.95092
391.87562
1915.9495
1927.9467
5236.7466
5188.5913
4670.8074
4742.4296
5119.7004
5177.7489
4632.5442
4651.2286
4702.3789
4805.7816
4686.4317
4773.1502
4704.865
4834.5157
4801.7965
4764.9872
2922.84
3207.2315
2988.8627
3323.6392
3948.553
4022.766
4196.7063
4144.4077
3324.3901
3362.6782
3021.6458
2979.9878
3953.3499
3813.2256
3960.0794
4142.3365
3023.5006
3013.5051
3343.4687
3375.4636
4014.8363
4010.6836
4204.5647
4193.423
3019.2862
3388.8552
3356.9792
3044.7565
4183.1102
4020.1852
4230.1208
3996.3439
370.50891
374.15404
377.27105
381.28631
450.04841
463.89155
443.82457
442.49131
4640.9427
4528.9047
4731.9521
4413.0826
5090.6743
5185.7726
4663.1749
4617.2314
4854.4149
5095.2937
4380.3387
4606.6851
4720.9313
4813.0154
4703.1857
4643.6067
7094.3285
7153.2133
6003.6053
5968.663
6763.076
7050.6532
5897.763
5700.6552
7923.9953
8043.222
8255.7824
8411.4003
8326.5491
8448.1558
8359.1415
8535.1034
7065.6935
7198.1264
6010.4769
5950.9824
6921.8264
7184.4425
6008.0688
5788.8753
8282.0625
8444.2744
8429.0412
8628.2467
8131.2084
8298.3274
8394.511
8594.5373
9966.1849
9581.3149
10124.95
9737.4152
9342.8177
9520.8981
9385.5501
9196.458
9184.5236
9464.9471
9028.9615
9333.0473
9767.5197
10047.188
9373.7617
9672.2408
9339.8506
9136.7036
9256.124
9403.0949
8887.8062
8703.7768
9272.9676
9098.5582
9409.2282
9005.959
9395.4889
9805.7456
9876.1218
9437.4261
9972.9219
9584.9591
9638.0466
9191.4717
10021.911
9563.7183
10098.256
9617.1068
10224.541
9785.4452
10219.475
9502.1136
10369.419
9685.0238
9764.2872
9085.9925
10131.444
9434.2569
9112.8638
8176.0774
9399.4646
8425.0434
9974.9526
9152.3856
10138.1
9326.2803
9537.2023
8762.4783
9875.4606
9063.8229
9510.9371
8518.0538
9669.7287
8681.2845
9827.3635
8780.9456
9850.6097
8827.6189
9999.2046
10227.322
9197.4548
9419.5522
10290.638
9447.9428
10327.039
9501.6678
9560.1588
8569.9218
9754.2797
8756.6907
10486.857
9788.5701
10554.842
9864.3519
10036.478
9595.474
10306.761
9879.1094
10280.471
9840.6977
10394.82
9953.6625
10203.849
10458.114
9521.8284
9782.8643
9800.3337
9326.9058
9552.6267
9178.6489
9514.3593
9351.4663
9883.0944
9731.17
10121.497
9699.5084
10492.521
10056.148
10287.087
9774.681
9840.8323
9450.901
8765.9169
8880.5586
8328.9958
8502.4045
8442.9525
8599.444
8756.3423
8951.97
7205.3563
7481.3123
6079.5194
6285.748
7471.5252
7158.0874
6032.9865
6300.2788
8298.5627
8426.2394
8459.7458
8620.8202
6975.9815
7285.2932
6121.0524
5869.5043
7085.6945
7231.6386
6056.8357
5979.5853
8179.1793
8324.8548
8514.6369
8704.168
9892.7476
9482.2186
10056.386
9647.9794
9206.2834
9043.2538
9595.975
9456.2454
9316.3907
9137.6721
9499.3758
9332.3224
9784.1303
9388.9167
10192.658
9802.8947
10105.671
9877.0482
9247.1819
9122.4923
10265.427
10485.799
9413.1505
9616.5288
9776.6888
8732.6786
9946.361
8891.2531
9586.7355
8560.2291
9431.9939
8495.9131
10039.238
10362.47
9242.2364
9536.9681
10095.437
9261.3439
10179.622
9365.5508
9624.7389
8605.3983
9707.6541
8705.3692
9611.5473
9877.8654
8622.0922
8863.4846
10325.085
9613.5746
10421.164
9726.4358
10161.213
10289.059
9704.1194
9838.288
10056.889
10454.97
9617.8613
10010.474
10231.869
10602.138
9552.1646
9907.0182
10523.029
10797.981
9786.5606
10043.6
10382.89
10713.298
9903.9684
10214.876
10028.385
10409.827
9860.9396
9601.394
10432.111
10124.336
9659.0941
9470.6317
14528.678
14849.889
14219.895
15156.241
14733.902
13995.246
14303.488
15039.269
15929.215
15245.589
15834.205
15115.612
15654.322
14821.882
15747.726
14955.27
16132.329
15158.966
15343.466
16283.977
16844.825
16566.646
15606.56
15930.656
14916.297
15652.301
14738.437
15812.33
16427.63
15550.278
16119.14
15204.123
15056.212
15624.268
14729.256
15944.198
15220.87
14367.78
14686.555
15536.592
15948.177
16832.434
15802.161
16934.112
16312.703
15335.004
16408.327
15475.298
15219.444
14552.743
14730.253
15376.47
14314.63
15245.915
15080.224
14500.74
15704.179
16041.943
15043.635
15406.457
14818.402
15950.673
15194.709
15591.489
18319.343
18440.156
16644.744
16829.879
17219.835
15690.295
15875.402
17068.164
18719.968
18893.991
17324.94
17048.782
17486.474
17730.667
16107.818
16415.471
16382.668
17604.803
16041.363
17890.811
16460.426
15179.072
15520.794
16787.549
17548.226
19167.779
17393.372
19224.422
17833.596
16371.709
17928.818
16530.115
18978.908
19108.973
17265.429
17561.912
18803.104
18924.925
20700.559
20666.683
18242.511
19792.718
19772.783
19800.065
17969.495
18125.966
18362.215
18575.278
20160.887
20191.657
19301.046
18930.437
16495.278
15838.102
15936.065
16579.955
16778.952
16665.782
15964.164
16109.269
15734.761
16453.417
15651.656
16515.887
16666.649
15863.556
16562.032
15722.268
16618.436
15641.434
15837.709
16784.266
15421.86
16165.62
15238.448
16332.361
16626.28
15716.664
16500.122
15542.352
16392.231
17166.493
16242.534
17304.563
16816.766
15922.319
16047.091
16928.205
16674.868
17499.544
16505.631
17627.674
17068.792
16111.39
17187.754
16270.977
15750.391
15072.105
15247.638
15906.579
16041.09
15342.178
16173.682
15508.02
15018.595
15632.341
14842.309
15788.36
16015.967
15890.344
15086.877
15247.405
18731.355
18865.753
17070.439
17271.833
17694.917
16147.795
16350.235
17526.83
17715.706
19121.205
17519.112
19263.148
17992.328
16658.768
16840.177
18153.672
18098.317
19611.721
17921.797
19694.466
18408.012
16993.485
18529.526
17175.452
12078.057
12643.615
11963.658
12761.39
12995.399
12303.078
12517.023
13233.21
12181.747
11516.246
12302.465
11675.075
11837.518
12003.572
12511.575
12718.332
13273.88
13926.729
13173.577
14007.617
13578.685
13309.712
12641.01
12879.15
13126.749
12902.54
12097.428
12295.244
12535.543
12641.232
13416.384
13499.282
13137.968
13698.982
12991.461
13853.118
14144.972
13405.619
13673.372
14427.955
13255.994
12417.365
13390.59
12545.24
12779.422
13026.678
13652.642
13913.756
12140.254
12745.73
12044.214
12835.298
12507.786
12321.472
11663.503
11829.885
11175.82
12033.012
11872.863
11378.145
11577.184
11657.772
12246.363
12331.46
14436.818
14822.8
14241.196
15000.224
14777.7
14074.437
14277.768
14968.775
15142.074
15344.669
14764.171
15718.196
15318.158
14596.473
14972.043
15694.095
15059.683
14379.5
14961.079
14253.541
14524.371
14183.681
13539.072
13868.909
14211.066
13871.859
13051.551
13340.245
13685.288
13791.383
14615.107
14709.431
14796.205
14487.107
13923.693
14241.749
14760.096
14431.305
13736.203
14068.331
14831.329
15335.533
14703.209
15434.956
14478.498
15242.307
15338.684
14610.185
14110.487
14557.271
13906.039
14754.204
15092.46
14429.294
14775.656
15458.362
14281.567
13424.262
14484.332
13599.011
13893.241
14190.926
14809.763
15137.411
14879.057
14042.003
14121.228
14947.465
14891.935
14052.582
14101.011
14910.594
14281.031
13324.274
13392.733
14341.308
14284.636
13325.286
13380.613
14308.411
13534.524
12773.505
12835.099
13586.999
13528.845
12772.012
12818.687
13559.728
12973.509
12204.355
12324.365
13033.855
12976.408
12268.94
12295.43
13001.292
13007.532
12291.866
12377.163
13092.37
13182.277
13095.623
12383.007
12476.949
12505.215
11788.188
11908.948
12584.45
12663.697
12585.82
11882.326
11942.917
14166.524
13412.903
13539.06
14301.045
14381.646
14308.053
13541.77
13642.142
13673.214
12787.174
12889.028
13778.437
13865.183
13782.038
12887.788
12993.974
15123.811
14436.636
14630.777
15300.093
15423.036
15326.631
14634.567
14755.043
14825.039
13897.039
14061.343
15015.167
15093.327
15013.666
14060.585
14162.844
16242.664
16294.453
15626.197
15707.195
16236.691
16295.709
15457.841
15546.547
16291.789
15651.414
15777.906
16393.442
15459.734
15579.352
16248.76
16335.881
16003.365
15269.123
15364.515
16071.264
15998.123
15272.649
15360.554
16074.126
15670.399
14637.469
14721.463
15758.507
15687.069
14646.235
14702.671
15725.975
15379.874
14776.605
15538.164
14957.236
15513.127
15343.406
14611.321
14800.349
15735.942
15155.723
15614.468
15008.602
14825.217
15566.61
15675.029
14964.535
12574.288
12774.537
12776.087
12826.279
12411.046
12598.394
12647.249
12716.947
12416.631
12505.913
12125.814
12101.701
12564.049
12797.496
12907.9
12918.165
12642.348
12461.021
12549.404
12649.204
8984.9711
9054.9315
8702.1568
8732.9637
11774.73
12047.981
12288.317
12363.179
12491.309
12662.975
12627.193
12595.967
12797.627
12939.986
12902.728
12923.321
9093.6583
8965.671
9067.6104
9203.0299
4993.6572
5066.9279
476.89909
485.80939
488.88104
481.96207
9170.7311
9062.9724
8701.4341
8832.8578
8788.3406
9016.9814
8259.9872
8564.8187
532.76211
515.90256
531.03073
530.86154
576.60877
563.56309
581.731
600.32487
533.75318
533.9503
509.63417
705.49134
695.77816
510.1611
695.01583
706.24964
2174.5861
675.08816
679.6215
2257.3194
4092.0037
4114.5966
2240.4263
4100.1594
4059.2366
671.25516
677.08658
2252.8548
4096.218
4103.2535
2235.2725
4036.9206
4092.1835
3557.3451
3594.9436
6768.5669
6771.3779
7367.1874
7388.4095
7435.3367
7401.3743
12413.929
12359.025
18233.199
18106.208
12935.73
12911.272
32869.559
32389.864
28409.52
46678.187
28811.149
47839.924
12463.717
12232.495
17995.306
18264.917
28859.298
28355.903
48061.8
48016.699
12369.556
12408.055
18063.673
18230.821
12584.77
12353.303
18128.168
18388.486
28803.535
28854.915
48210.902
48361.616
28791.228
28182.217
47824.725
47548.143
7388.2668
7331.2946
7381.3808
7435.2818
17934.128
12419.111
12186.535
18205.566
28555.646
28390.251
47553.317
48087.234
12359.888
12432.109
18237.284
18127.421
28172.139
28848.652
48283.016
47948.955
12330.822
12536.167
18313.214
18092.131
12336.952
12403.951
18107.382
18220.226
28555.912
27967.776
47459.774
46866.673
28552.409
47593.073
28552.387
48009.565
4056.3724
4030.7607
2222.9387
4730.3077
4738.5342
4087.4209
4026.9461
2228.6538
4707.7139
4776.5811
4004.0215
3979.9883
2197.8691
4672.4237
4673.6678
4094.549
4081.9135
2246.2824
4786.4384
4780.4278
6219.9158
6178.5451
10386.351
10308.37
15665.121
15610.022
6212.2555
6191.7939
10289.004
10383.304
15389.284
15748.703
6194.8577
6173.1065
10374.496
10304.491
15495.054
15788.991
6279.1682
6212.9106
10349.08
10386.727
15603.585
15555.822
18571.732
22781.496
18637.005
22706.631
22942.974
18724.644
18849.601
23093.742
39003.885
26678.322
26986.712
40161.945
39736.747
27065.282
26979.882
39704.958
54432.011
64869.05
66214.581
54720.415
54878.977
65601.746
65762.758
54711.284
26861.708
27027.357
39792.857
38888.205
54535.159
64705.148
66113.239
54569.478
39223.714
26705.9
26558.361
38788.519
54349.763
65637.282
65053.255
54194.384
22748.107
18568.898
18749.176
23017.688
23120.261
18866.308
18951.721
23093.298
18433.862
22604.091
18636.849
22903.709
18916.208
18805.672
23059.797
23071.189
18942.689
18812.455
23065.387
23220.268
18736.599
18659.602
22909.367
22847.679
39004.917
26548.187
26893.754
40218.088
40774.376
27046.295
27000.704
40108.31
52867.777
64369.47
65751.483
53822.693
65752.37
66483.679
54285.047
54393.65
40240.212
27052.677
27199.067
40669.703
40170.63
26882.434
26725.95
39072.515
54616.857
65999.824
66611.781
54791.633
64977.533
66282.47
54424.781
54394.801
6138.2814
6128.8483
10281.657
10212.981
15637.058
15305.087
6164.7219
6084.0074
10239.077
10233.592
15514.627
15504.068
6289.6707
6259.2694
10381.699
10473.12
15483.247
15797.563
6275.4909
6222.3261
10403.016
10345.237
15624.358
15581.689
22621.927
18511.84
22897.133
18696.338
23008.507
18823.476
18921.915
23003.435
22920.259
18741.506
18884.529
23103.686
18599.778
18673.767
22724.31
22785.642
38617.02
26463.808
26782.851
39522.034
26799.539
26868.604
38778.057
39414.754
65235.399
55097.483
54974.86
64342.46
54256.864
64354.377
65405.03
54798.939
26622.103
26505.841
38626.57
38341.502
64732.841
65055.577
54346.258
54356.681
63592.588
64377.949
53584.611
53091.867
26963.429
26766.293
39239.526
38855.697
22507.714
18351.71
18542.552
22802.645
22956.986
18707.926
18803.235
22947.731
22893.564
18664.9
18792.896
23057.839
18543.684
18623.075
22709.553
22766.093
38502.619
26408.501
26756.948
39606.539
40100.274
26899.863
26822.032
39430.374
54032.282
64428.672
65711.041
54540.829
65493.654
66355.634
54670.723
54653.101
39046.126
26797.338
26977.496
39625.141
39219.873
26664.36
26520.348
38511.155
54637.765
64910.677
65709.537
54911.929
64369.867
65477.684
54695.758
54550.103
6989.6911
7019.3262
7081.0744
7087.9828
5173.4924
5096.7649
4549.381
4584.515
8076.9543
8073.2293
7052.6722
7041.9737
7957.8103
7968.6191
6980.4974
6948.2817
7109.5721
7134.1486
5157.9528
4602.589
7068.2197
8107.9793
8085.217
7096.7701
11264.067
16560.032
11199.414
16338.188
20980.894
21100.93
20565.626
20948.585
11204.618
16555.716
11116.091
16386.874
21257.601
20984.846
20922.401
20841.072
11287.656
16530.519
11368.743
16738.568
20834.283
21186.457
21218.571
21317.786
24868.449
24851.846
24390.92
24784.999
25100.339
24867.034
24752.08
24676.174
57811.087
99087.244
99645.333
58397.086
58712.073
99419.027
99548.272
58495.762
28760.749
28288.518
57453.162
55144.38
28776.435
28803.006
57093.103
56581.338
28771.487
29043.458
55874.23
57366.63
58653.134
99278.935
99189.754
58742.036
56717.951
28694.88
28565.662
55793.326
99215.021
98898.349
58293.342
58532.684
24663.672
25010.382
25105.832
25074.349
28981.894
28567.471
56377.225
59172.002
58259.818
99056.703
99503.782
58370.803
28993.394
29055.218
58792.65
57909.079
99295.304
99557.793
58454.87
58368.849
56153.942
57718.279
58420.385
98781.483
99171.886
58645.596
21567.334
20754.338
8063.1553
8070.6336
22212.276
22223.78
8372.2292
8336.944
40072.743
39565.285
12047.357
12136.117
39030.959
39851.926
11933.58
11952.021
38320.838
37987.995
11434.673
11542.278
37199.445
37655.2
11454.472
11572.122
39094.922
38685.836
11597.35
11716.388
38823.903
39040.391
11768.217
11914.588
36309.011
34616.795
10752.926
10946.523
11244.343
37822.828
37743.385
11400.232
39135.424
38446.147
11749.077
11867.608
38762.867
39609.383
11892.794
11919.595
37842.02
37738.392
11418.885
11509.085
35924.387
36987.248
11341.829
11364.435
38980.52
37788.075
11652.251
11819.251
39346.755
39720.175
11915.553
12020.532
40139.235
39525.021
11926.083
12072.179
38915.133
39765.68
12027.219
12081.296
39516.021
37714.981
40166.273
40668.712
41604.774
40929.383
40617.944
41153.55
42254.899
41564.066
41700.924
42565.707
41515.853
41084.293
40245.077
41131.367
41219.279
40357.287
40975.836
41645.661
41873.608
41295.016
40851.529
41701.732
41700.649
40718.309
41413.497
42288.227
40649.71
40438.249
39001.022
37863.702
73355.418
35397.888
72573.855
34659.567
73375.05
35751.729
72635.965
35574.986
69910.459
32679.284
72110.666
34221.239
72189.323
34552.98
73263.658
35309.582
73429.011
36647.037
74206.283
37378.884
74457.743
37621.098
73403.343
36571.297
73698.347
36210.52
73041.463
35754.246
72005.278
34822.797
73223.612
35802.386
3141.2761
3126.4357
3467.5799
3486.8332
4116.0124
4310.0244
4135.6063
4316.0753
369.39108
372.90449
380.59462
377.90291
447.76369
455.76328
464.45009
465.20979
4791.1532
4937.5165
4884.0602
4819.7938
4771.9682
4736.0018
5300.4785
5225.2109
10169.514
10371.688
9347.9246
9548.2706
10124.11
9287.4285
10248.414
9426.3647
9649.4102
8621.4488
9771.5283
8754.2562
9720.3385
8704.0719
9888.144
8871.6258
9807.3619
9805.2229
8996.6805
9043.5089
10146.803
9304.9661
10255.592
9418.0671
9343.0035
9361.7509
8363.7071
8422.3923
8635.5837
9672.702
9750.9593
8725.7291
10386.737
9662.1648
10536.88
9812.9491
10225.857
10429.735
9761.5238
9958.8075
10087.117
10051.733
9358.6244
9392.6913
10025.023
9951.045
9517.682
9521.0783
10363.919
9644.6591
10484.986
9790.2079
10214.397
10450.405
9753.602
10011.244
10201.423
9741.6157
10331.264
9890.6016
10379.683
10605.141
9675.6429
9915.4654
6509.4024
6947.7747
5797.779
5473.3824
7648.3482
7759.1161
8150.4396
8291.2747
6930.4932
7190.2985
6032.7795
5829.5636
8139.3
8263.3763
8410.5351
8586.2204
9155.3148
9242.9082
8957.1635
9103.3507
9644.947
9453.1964
9540.8771
9388.6228
10243.758
9797.0428
10117.012
9705.0771
9682.4686
9801.5654
9244.4804
9417.5446
8140.5319
8272.2564
8205.9674
8391.2426
8583.5193
8712.4387
8472.7007
8653.4941
7319.6489
7238.3639
6186.0808
6061.1996
6919.2917
7018.1729
5880.9102
5800.9233
9145.4749
8956.1218
9466.4679
9315.0231
8584.7464
8395.0516
9138.6049
8945.014
9079.2572
8677.9001
9631.4053
9207.3688
9695.1997
9275.0526
10044.24
9647.5458
7099.5377
7276.0096
6110.6667
5974.2833
7082.1534
7206.2534
6028.6735
5971.088
8307.2162
8444.2144
8437.629
8616.0765
8332.7606
8470.0042
8503.6948
8695.232
9370.4765
9239.8979
9148.9179
9088.2815
9347.4668
9185.7419
9615.9043
9466.9287
9868.3384
9757.602
9396.9779
9366.6221
9949.5909
9540.0711
10203.685
9787.2802
7075.3801
7281.1382
6105.4295
5971.1425
8348.9194
8475.9503
8234.3012
8409.0316
8293.7917
8444.0359
8522.7013
8713.3854
7098.1849
7059.2839
5952.9268
5928.4681
9928.8407
9516.8612
10078.687
9681.4443
9372.9732
9191.1398
9585.6329
9447.0065
9947.9074
9531.0682
10182.818
9798.1038
9345.2029
9167.2312
9502.64
9347.7785
429.9597
442.51263
437.22895
447.06576
595.68341
562.82259
526.4165
569.98564
10086.355
10429.208
9378.7612
9720.9811
9289.0163
8850.0636
9813.9196
9348.722
9940.6466
9477.7304
10295.556
9842.2196
9402.8167
8745.5505
9897.8171
9202.1512
9763.4666
9925.2525
8970.5009
9143.6406
10398.309
10222.067
9509.9831
9399.2306
9886.4102
9738.6759
8810.6612
8728.7709
9324.9412
8356.3737
9474.4154
8513.0442
9191.7841
8458.5005
9634.6186
8841.8936
9857.5595
9049.0751
10175.381
9342.9661
8808.6543
7920.6508
9175.8927
8229.864
9412.48
8430.3666
9686.079
8680.2137
9886.5869
10033.094
9411.8499
9601.1084
10507.453
10347.763
9889.1081
10006.859
10655.328
9893.9998
10474.439
9768.1816
9998.303
10161.565
9298.8464
9492.0736
20625.443
20634.172
18752.069
18893.261
18452.192
18628.42
20247.961
20248.788
19349.229
19734.781
19257.762
19368.59
17464.35
17749.188
18490.496
18690.871
20359.271
20372.109
19474.132
18522.624
17786.851
18056.661
16491.546
16162.214
16566.708
16871.683
15244.653
15572.705
17365.065
18848.003
17107.374
19005.257
16126.033
17548.376
17758.339
16391.22
17533.78
19118.755
17374.052
19212.971
16387.2
17821.655
17932.726
16532.475
17356.996
18813.943
17132.565
18937.845
16210.283
17583.096
17756.682
16446.835
20035.199
20088.705
18300.692
18488.06
18910.92
19064.184
20743.967
20732.683
19812.998
19191.236
20087.726
20118.644
18302.383
18468.55
18541.046
18711.484
20315.272
20311.9
19404.214
19203.887
18662.995
18822.642
17261.484
17049.534
17509.116
17683.297
16206.897
16403.008
17765.948
19296.503
17572.283
19391.708
16644.457
18044.547
18181.56
16838.961
17199.368
18676.913
17008.692
18804.773
16104.686
17465.082
17612.589
16281.861
17451.144
18908.626
17237.009
19021.276
16324.112
17687.679
17844.142
16542.552
15553.393
16064.676
15432.131
16170.674
15295.744
16041.8
16129.987
15400.09
16309.086
16432.964
15620.651
15770.993
15417.349
16321.923
15560.994
16213.183
15964.151
16702.232
15796.975
16856.831
17137.23
16147.812
16329.603
17276.558
15935.929
16699.307
15762.509
16832.306
16359.703
16490.323
15499.311
15643.588
16578.743
15614.771
15769.92
16710.644
16955.51