/*--------------------------------*- C++ -*----------------------------------*\
  =========                 |
  \\      /  F ield         | OpenFOAM: The Open Source CFD Toolbox
   \\    /   O peration     | Website:  https://openfoam.org
    \\  /    A nd           | Version:  7
     \\/     M anipulation  |
\*---------------------------------------------------------------------------*/
FoamFile
{
    version     2.0;
    format      ascii;
    class       volVectorField;
    location    "1000";
    object      U;
}
// * * * * * * * * * * * * * * * * * * * * * * * * * * * * * * * * * * * * * //

dimensions      [0 1 -1 0 0 0 0];

internalField   nonuniform List<vector> 
33943
(
(-1.5988683e+47 4.1526e+46 2.4591754e+46)
(-1.1163492e+47 2.0906281e+46 1.8886775e+46)
(-9.5329055e+46 1.2071667e+46 3.8745976e+46)
(-1.1932603e+47 1.3507758e+46 1.0424649e+46)
(-1.3225514e+47 3.1040898e+46 2.7359223e+46)
(-1.4401672e+47 3.9865452e+46 9.1979491e+45)
(-8.6288937e+46 1.7495382e+46 7.7658828e+45)
(-1.7120612e+47 3.9996632e+46 2.9457008e+46)
(-1.1952387e+47 2.2659616e+46 2.2509888e+46)
(-1.2758114e+47 3.6975153e+46 1.9447872e+46)
(-9.6413597e+46 1.3944572e+46 4.0799856e+46)
(-1.0240462e+47 1.6015173e+46 3.886998e+46)
(-9.3693776e+46 1.3990416e+46 1.7585138e+46)
(-9.6517794e+46 9.210589e+45 3.0639109e+46)
(-9.8874672e+46 8.9889513e+45 2.8695465e+46)
(-9.9066964e+46 2.0958927e+46 1.602842e+46)
(-1.1859262e+47 1.0278658e+46 -1.2690305e+46)
(-1.2170953e+47 1.7247749e+46 2.2392462e+46)
(-1.2362983e+47 1.8744725e+46 8.9532414e+45)
(-1.2370763e+47 1.4009946e+46 1.3516483e+46)
(-1.8279292e+47 3.1721444e+46 3.6811175e+46)
(-1.071467e+47 9.8119691e+45 1.3410819e+46)
(-1.0672023e+47 8.8737868e+45 1.546624e+46)
(-1.628174e+47 3.1876008e+46 3.850533e+46)
(-8.3359688e+46 1.2774487e+46 2.1658592e+46)
(-6.0265187e+46 1.5157692e+46 -9.5069808e+45)
(-7.0717287e+46 1.7595967e+46 -7.6217441e+45)
(-8.6977595e+46 2.412652e+46 2.6357966e+46)
(-1.8780238e+47 4.0969914e+46 1.4952011e+46)
(-1.2084939e+47 1.9065544e+46 -1.693664e+46)
(-1.3033825e+47 3.5238098e+46 -1.8669231e+46)
(-1.0332258e+47 2.3030343e+46 1.3515017e+46)
(-1.1833994e+47 4.7820157e+46 1.6723916e+46)
(-8.6189557e+46 7.2956507e+45 -6.9337489e+45)
(-8.8413555e+46 8.2094807e+45 -2.2826091e+46)
(-8.5022395e+46 1.2790156e+46 -1.3502482e+46)
(-9.2076853e+46 2.0600326e+46 -1.4621529e+46)
(-6.3951265e+46 1.4463834e+46 9.3024022e+45)
(-7.831991e+46 3.0452092e+46 1.4134508e+46)
(-1.2861053e+47 1.692407e+46 2.5184333e+46)
(-1.3476414e+47 3.484695e+46 2.4219459e+46)
(-9.6517807e+46 1.4822175e+46 4.3398671e+46)
(-1.0549143e+47 1.6575577e+46 4.2887047e+46)
(-9.7877636e+46 1.3628704e+46 2.0639785e+46)
(-1.0198224e+47 2.1420396e+46 1.8739277e+46)
(-1.0069327e+47 9.6590997e+45 3.1016828e+46)
(-9.7067458e+46 9.6957089e+45 3.225813e+46)
(-9.6455793e+46 1.5315124e+46 1.9708568e+46)
(-1.003848e+47 2.2855457e+46 1.8114158e+46)
(-9.6821241e+46 1.0077839e+46 3.1401866e+46)
(-1.0028186e+47 9.6294899e+45 3.0653483e+46)
(-8.0013834e+46 1.2743171e+46 1.4741429e+46)
(-9.0780548e+46 6.1958975e+45 2.3174367e+46)
(-7.7617116e+46 9.0974049e+45 1.6297781e+46)
(-8.8040622e+46 6.4771978e+45 2.4062294e+46)
(-7.7179237e+46 8.5303589e+45 1.5878121e+46)
(-8.0149751e+46 1.303509e+46 1.557619e+46)
(-8.6700467e+46 6.1039417e+45 2.2989586e+46)
(-8.9688903e+46 5.9765416e+45 2.2940108e+46)
(-1.8629729e+47 2.2538989e+46 1.6036106e+46)
(-1.2091102e+47 1.0286991e+46 -1.2708801e+46)
(-1.2315583e+47 1.8207609e+46 2.4703508e+46)
(-1.206067e+47 1.4941267e+46 -1.541063e+46)
(-1.2024777e+47 8.8090231e+45 2.120821e+46)
(-1.0526041e+47 9.8101579e+45 6.4899942e+45)
(-9.93659e+46 5.7793925e+45 -1.074107e+46)
(-1.0360909e+47 5.1210273e+45 5.0142185e+45)
(-9.78173e+46 8.2041465e+45 -1.1990211e+46)
(-1.0667361e+47 9.8755545e+45 1.6258669e+46)
(-1.0717873e+47 6.4038043e+45 -3.7908966e+45)
(-1.0484119e+47 4.008301e+45 1.4497423e+46)
(-1.06645e+47 9.3923969e+45 -5.5730418e+45)
(-1.068881e+47 9.6150488e+45 1.5729276e+46)
(-1.0814246e+47 1.0090807e+46 1.4579115e+46)
(-1.0714178e+47 8.8486556e+45 1.6987104e+46)
(-1.0748159e+47 9.9021423e+45 1.4709152e+46)
(-1.2861809e+47 1.8181754e+46 1.4125483e+46)
(-1.9165314e+47 2.3238615e+46 3.7925487e+46)
(-1.2551865e+47 1.3041867e+46 1.5699962e+46)
(-9.5962182e+46 1.1190626e+46 2.0255962e+46)
(-1.0064229e+47 2.1887541e+46 2.3599646e+46)
(-9.1068187e+46 1.5019967e+46 -1.4382099e+46)
(-8.5696493e+46 2.0919884e+46 -1.6358089e+46)
(-9.058928e+46 6.1909594e+45 1.3862558e+46)
(-9.2084244e+46 6.2518362e+45 1.399162e+46)
(-9.173158e+46 6.3943844e+45 1.509379e+46)
(-9.2111846e+46 6.3233073e+45 1.4092015e+46)
(-9.8302619e+46 2.5170144e+46 3.0059361e+46)
(-9.5752059e+46 1.4408178e+46 2.599846e+46)
(-4.988289e+46 2.8275025e+46 -2.3353163e+46)
(-6.2207758e+46 1.3070505e+46 -1.4169366e+46)
(-8.6937651e+46 2.5674752e+46 8.7775759e+44)
(-6.5847309e+46 2.6468959e+46 6.0100861e+45)
(-8.5280676e+46 2.2014126e+46 9.9027704e+44)
(-9.4163898e+46 1.9192369e+46 -1.5224482e+45)
(-1.34223e+47 1.1802953e+46 -1.9960165e+46)
(-1.3600072e+47 3.3246843e+46 -2.0690377e+46)
(-1.2306362e+47 1.4620613e+46 2.0114616e+46)
(-1.2859419e+47 4.6627566e+46 2.2269436e+46)
(-9.2157716e+46 9.1981182e+45 -2.4259601e+46)
(-8.8997798e+46 8.1293456e+45 -2.5611751e+46)
(-8.6951602e+46 6.9404821e+45 -8.0055474e+45)
(-9.138464e+46 1.4121817e+46 -6.4368371e+45)
(-8.9335726e+46 7.9371353e+45 -2.3923486e+46)
(-8.7141975e+46 7.0639854e+45 -7.612072e+45)
(-9.1781582e+46 1.5081065e+46 -6.2208673e+45)
(-9.2085807e+46 9.7306016e+45 -2.2747247e+46)
(-9.0210391e+46 1.2318094e+46 -1.5628036e+46)
(-9.5816859e+46 2.0859828e+46 -1.6559428e+46)
(-8.8018528e+46 3.4538022e+46 1.8574134e+46)
(-7.7462311e+46 1.7076523e+46 1.5269587e+46)
(-8.8930868e+46 1.2708919e+46 -1.4816324e+46)
(-9.4663545e+46 2.2296011e+46 -1.582094e+46)
(-8.4121726e+46 3.5258917e+46 1.6907259e+46)
(-7.360906e+46 1.7449778e+46 1.3632878e+46)
(-1.047806e+47 1.07292e+46 -1.7864294e+46)
(-9.4011592e+46 8.4866017e+45 -3.2417817e+45)
(-7.3521817e+46 4.9588909e+45 -1.7726967e+46)
(-7.1885599e+46 4.75165e+45 -1.8517409e+46)
(-6.3122574e+46 5.6303933e+45 -1.0081185e+46)
(-6.6209651e+46 9.704844e+45 -9.0580486e+45)
(-7.1343141e+46 3.9657007e+45 -1.758643e+46)
(-6.2765229e+46 4.9300884e+45 -9.4429467e+45)
(-5.2249317e+46 1.0483978e+46 -9.4083036e+45)
(-5.7572565e+46 1.5490417e+46 -1.0245146e+46)
(-4.6281886e+46 9.813339e+45 1.2550704e+46)
(-5.5318438e+46 2.1017323e+46 1.5926479e+46)
(-5.1851182e+46 9.5444453e+45 -8.5977657e+45)
(-4.6391632e+46 8.8411008e+45 1.2704797e+46)
(-5.4638021e+46 2.1088295e+46 1.5924905e+46)
(-9.9852834e+46 1.5044701e+46 4.1026952e+46)
(-1.0490563e+47 1.6737072e+46 2.1048265e+46)
(-1.0151251e+47 7.5560541e+45 2.1200353e+46)
(-9.7422901e+46 9.1500202e+45 3.4133626e+46)
(-1.0161653e+47 8.5970441e+45 3.4273399e+46)
(-1.0404749e+47 2.072999e+46 2.1536665e+46)
(-1.0369019e+47 9.3303487e+45 3.4033034e+46)
(-1.0057326e+47 1.1975336e+46 2.2329175e+46)
(-1.0112871e+47 9.7969788e+45 3.5335328e+46)
(-8.0171421e+46 8.1075028e+45 1.8573916e+46)
(-8.0883066e+46 1.221614e+46 1.6691637e+46)
(-8.9094342e+46 6.8941754e+45 2.6558032e+46)
(-9.03457e+46 6.0395529e+45 2.4635814e+46)
(-7.879033e+46 8.4941798e+45 1.7638974e+46)
(-8.0588844e+46 1.3060187e+46 1.679619e+46)
(-9.0121252e+46 6.9725949e+45 2.5633472e+46)
(-8.9821018e+46 6.3367577e+45 2.4259561e+46)
(-7.8270362e+46 8.9278027e+45 1.7197355e+46)
(-8.0083269e+46 1.3347455e+46 1.5695412e+46)
(-8.8749339e+46 7.0158879e+45 2.4725003e+46)
(-8.9859833e+46 6.6678919e+45 2.3486822e+46)
(-7.8115404e+46 9.9291701e+45 1.729577e+46)
(-7.9940881e+46 1.4174942e+46 1.6064672e+46)
(-8.9150664e+46 6.5298451e+45 2.3635528e+46)
(-8.7884805e+46 7.1567223e+45 2.4076545e+46)
(-6.6378425e+46 5.4082275e+45 1.5787675e+46)
(-6.8535065e+46 8.5044094e+45 1.5633642e+46)
(-7.7136282e+46 4.3900957e+45 1.9570131e+46)
(-7.7807381e+46 4.2079271e+45 1.9303736e+46)
(-6.6783782e+46 5.8197921e+45 1.6306303e+46)
(-6.8347879e+46 8.7815036e+45 1.5141971e+46)
(-7.6559169e+46 4.588278e+45 2.0032693e+46)
(-7.7645496e+46 4.4452534e+45 1.9287963e+46)
(-6.5885669e+46 4.7106913e+45 1.5368526e+46)
(-6.7864117e+46 8.3849527e+45 1.505183e+46)
(-7.5913519e+46 4.0435059e+45 1.9123178e+46)
(-7.6870107e+46 4.2946875e+45 1.8513715e+46)
(-7.6420361e+46 4.5181837e+45 1.931906e+46)
(-6.6479089e+46 5.443064e+45 1.601243e+46)
(-6.7531899e+46 8.635157e+45 1.5532621e+46)
(-7.6932967e+46 4.2672282e+45 1.9107952e+46)
(-1.8681206e+47 1.7138066e+46 1.5593843e+46)
(-1.2368827e+47 8.3355209e+45 2.3101338e+46)
(-1.2191297e+47 9.9051152e+45 -1.3025955e+46)
(-1.2154794e+47 1.4847322e+46 -1.5468442e+46)
(-1.0166369e+47 8.2010166e+45 1.8008693e+46)
(-9.1895902e+46 1.6891262e+46 -1.7494753e+46)
(-9.5394762e+46 1.122183e+46 -1.5577218e+46)
(-1.0373592e+47 1.8442824e+46 2.1084165e+46)
(-1.2286254e+47 1.7465933e+46 2.4628076e+46)
(-1.004121e+47 6.1216462e+45 -1.0249389e+46)
(-9.8183959e+46 8.4378974e+45 -1.4320551e+46)
(-1.0322308e+47 5.1381393e+45 5.3037818e+45)
(-1.0608437e+47 1.0383975e+46 7.7236966e+45)
(-1.0714971e+47 6.2756225e+45 -4.6290537e+45)
(-1.072957e+47 1.0492412e+46 1.742637e+46)
(-1.0650999e+47 4.338433e+45 1.5713141e+46)
(-1.0560421e+47 9.519067e+45 -7.1444802e+45)
(-1.0495716e+47 4.8724469e+45 5.6286776e+45)
(-9.8664899e+46 8.4368519e+45 -1.2149097e+46)
(-9.9878145e+46 5.9398245e+45 -1.0738596e+46)
(-1.0533964e+47 9.9589781e+45 6.9945376e+45)
(-1.0699232e+47 4.9893999e+45 1.5781423e+46)
(-1.0725985e+47 1.1317448e+46 1.6763357e+46)
(-1.060141e+47 6.3699334e+45 -5.3532211e+45)
(-1.0798125e+47 9.5035474e+45 -5.4704479e+45)
(-8.8765448e+46 5.4524028e+45 1.6978949e+45)
(-8.7439173e+46 5.262543e+45 -6.8764658e+45)
(-8.7479039e+46 3.4140128e+45 -6.0495229e+45)
(-8.8199136e+46 2.9789694e+45 8.8794486e+44)
(-8.9202842e+46 3.0655137e+45 2.9520031e+44)
(-8.9733112e+46 5.3977042e+45 1.1194313e+45)
(-8.6613484e+46 3.0419205e+45 -6.9667748e+45)
(-8.7255964e+46 4.6589808e+45 -7.7820083e+45)
(-8.7980386e+46 5.5165674e+45 1.2624901e+45)
(-8.6520163e+46 5.4172859e+45 -7.1930445e+45)
(-8.6035346e+46 3.0953515e+45 -6.782915e+45)
(-8.7421e+46 3.345291e+45 6.4775709e+44)
(-8.8298864e+46 3.2278386e+45 2.0743489e+44)
(-8.8676979e+46 5.2350446e+45 7.160544e+44)
(-9.3044535e+46 2.321791e+45 1.4624063e+46)
(-9.3594369e+46 4.6696112e+45 1.5943264e+45)
(-9.3009224e+46 5.6653005e+45 2.516799e+44)
(-9.3991412e+46 7.4102058e+45 1.5955347e+46)
(-8.8251546e+46 5.021823e+45 -5.0493353e+45)
(-9.176337e+46 6.3754434e+45 6.8908723e+45)
(-8.8794683e+46 4.1759586e+45 -3.6751626e+45)
(-9.0781156e+46 2.7704037e+45 5.7613037e+45)
(-9.1766038e+46 4.1387407e+45 6.8440104e+44)
(-9.3115607e+46 7.1786368e+45 1.5169869e+46)
(-9.2693712e+46 2.868735e+45 1.4854323e+46)
(-9.2062163e+46 5.7446956e+45 2.0964183e+44)
(-8.9879582e+46 2.5898241e+45 5.6476282e+45)
(-8.7628955e+46 3.9047079e+45 -4.3534012e+45)
(-9.0912727e+46 5.959359e+45 6.4182163e+45)
(-8.7030988e+46 5.0210915e+45 -5.2740851e+45)
(-9.2070955e+46 6.3070354e+45 1.3879984e+46)
(-9.2208429e+46 6.8077187e+45 1.5428531e+46)
(-9.1646134e+46 6.2616281e+45 1.4299473e+46)
(-9.1855008e+46 6.9925003e+45 1.5049794e+46)
(-9.2959366e+46 5.9173619e+45 1.4883973e+46)
(-1.1141886e+47 9.5970983e+45 1.7992363e+46)
(-9.2973841e+46 6.4225495e+45 1.6694045e+46)
(-9.1868946e+46 6.2583766e+45 1.4361455e+46)
(-9.3618772e+46 7.0105937e+45 1.6012113e+46)
(-1.1105042e+47 9.4023859e+45 1.9514715e+46)
(-1.266824e+47 1.6344492e+46 1.0515707e+46)
(-1.0198256e+47 8.0267137e+45 2.330066e+46)
(-8.9406132e+46 1.8902202e+46 -1.6207071e+46)
(-9.066823e+46 1.5009865e+46 -1.3242734e+46)
(-9.7770168e+46 2.0922203e+46 2.444334e+46)
(-1.1066136e+47 8.8874251e+45 1.7324869e+46)
(-1.0931338e+47 8.345072e+45 1.8514191e+46)
(-1.0471239e+47 2.0296552e+46 4.5278267e+45)
(-1.017237e+47 1.7969093e+46 3.4433579e+45)
(-1.0284332e+47 1.830555e+46 2.5071443e+45)
(-9.9827298e+46 2.3558096e+46 6.2082811e+45)
(-7.6548571e+46 4.3418473e+45 1.2129034e+46)
(-7.6834829e+46 4.1001971e+45 1.1471843e+46)
(-7.7144367e+46 4.6339682e+45 1.2317989e+46)
(-7.6697143e+46 3.9672889e+45 1.2012167e+46)
(-7.7551295e+46 4.8378919e+45 1.3199171e+46)
(-7.7702925e+46 4.2253547e+45 1.2263575e+46)
(-7.7570877e+46 4.5629201e+45 1.2353092e+46)
(-7.7237376e+46 4.0485964e+45 1.2055836e+46)
(-9.5013289e+46 2.7611314e+46 3.2907699e+45)
(-7.8731859e+46 2.5978354e+46 -1.6996736e+45)
(-6.897857e+46 3.5719254e+46 -1.0131891e+45)
(-8.3318026e+46 3.3262957e+46 5.1705113e+45)
(-4.5388317e+46 1.5840144e+46 -3.5489993e+45)
(-6.5086797e+46 2.0993046e+46 -4.4817905e+45)
(-5.2112768e+46 1.5218545e+46 -5.1778515e+45)
(-4.4841367e+46 1.3009589e+46 -3.8440692e+45)
(-1.2942313e+47 1.8869337e+46 -1.8757528e+46)
(-1.267521e+47 1.8960569e+46 -1.738905e+46)
(-1.278228e+47 1.8071582e+46 -1.0855559e+46)
(-8.7106052e+46 5.9112707e+45 -2.6617862e+46)
(-9.0374075e+46 7.63245e+45 -2.6131748e+46)
(-9.1595502e+46 1.2202908e+46 -7.5027699e+45)
(-8.8944527e+46 3.1089098e+45 -8.1733338e+45)
(-8.8758067e+46 7.0858865e+45 -2.6383847e+46)
(-9.1871742e+46 9.0806875e+45 -2.53494e+46)
(-9.1870458e+46 1.4555381e+46 -7.3992191e+45)
(-8.8003273e+46 5.5214153e+45 -8.379488e+45)
(-9.7164615e+46 6.0124108e+45 -1.6887416e+46)
(-1.0048712e+47 1.724186e+46 -1.762378e+46)
(-8.7777111e+46 6.8144461e+45 1.8593866e+46)
(-9.6118232e+46 2.7983232e+46 2.2178296e+46)
(-9.571528e+46 1.0773309e+46 -1.677214e+46)
(-9.9105549e+46 2.1087858e+46 -1.7471208e+46)
(-8.9787445e+46 1.5426831e+46 2.0919914e+46)
(-9.3296673e+46 3.4741562e+46 2.1177686e+46)
(-9.5936322e+46 1.0480266e+46 -2.0338284e+45)
(-9.5148512e+46 7.7890723e+45 -3.7982273e+45)
(-1.080961e+47 1.0255748e+46 -2.0955108e+46)
(-1.0722023e+47 9.764657e+45 -2.0017551e+46)
(-9.551386e+46 8.0840098e+45 -3.6571059e+45)
(-1.0662454e+47 1.0345594e+46 -1.9507817e+46)
(-1.0546902e+47 1.0461972e+46 -1.8713652e+46)
(-9.5389418e+46 1.0757055e+46 -1.7667583e+45)
(-7.1993865e+46 4.6977779e+45 -2.0217702e+46)
(-7.3489862e+46 4.856015e+45 -1.9449725e+46)
(-6.7174677e+46 9.8565124e+45 -1.0414084e+46)
(-6.4728611e+46 5.2769197e+45 -1.1227837e+46)
(-6.4466633e+46 4.9381023e+45 -1.0625854e+46)
(-7.2110022e+46 4.1787245e+45 -1.9381571e+46)
(-7.337954e+46 4.8751798e+45 -1.8658025e+46)
(-6.7139441e+46 1.019436e+46 -1.0153577e+46)
(-6.0453294e+46 1.5911452e+46 -1.1535871e+46)
(-5.4220202e+46 1.0928286e+46 1.7578251e+46)
(-6.0172749e+46 2.3321166e+46 1.9445928e+46)
(-5.6449725e+46 9.8442588e+45 -1.0616757e+46)
(-5.7030415e+46 1.010098e+46 -1.1370461e+46)
(-6.0780183e+46 1.5421704e+46 -1.2046732e+46)
(-5.5448573e+46 1.0982917e+46 1.813272e+46)
(-6.083813e+46 2.2653646e+46 1.9808496e+46)
(-7.2420991e+46 4.3796648e+45 -1.9327746e+46)
(-7.3919028e+46 4.8833168e+45 -1.8538138e+46)
(-6.4423118e+46 5.2061296e+45 -1.0643475e+46)
(-6.7220546e+46 9.9271591e+45 -9.7830621e+45)
(-6.4002934e+46 5.4596715e+45 -1.0048144e+46)
(-7.2015004e+46 4.430709e+45 -1.8486865e+46)
(-7.3520687e+46 5.4224397e+45 -1.7814946e+46)
(-6.7133742e+46 1.0798769e+46 -9.5718986e+45)
(-5.4916154e+46 1.0691744e+46 -9.5894072e+45)
(-5.9235904e+46 1.6930597e+46 -1.0684463e+46)
(-5.1007586e+46 1.1499244e+46 1.5429157e+46)
(-5.751523e+46 2.3835537e+46 1.7583237e+46)
(-5.5280927e+46 9.9976025e+45 -1.0401273e+46)
(-5.9915833e+46 1.5740907e+46 -1.1158651e+46)
(-5.1672139e+46 1.0650793e+46 1.5529605e+46)
(-5.9154397e+46 2.2936285e+46 1.8172693e+46)
(-1.0639304e+47 8.7308597e+45 -1.3622623e+46)
(-7.8621382e+46 5.0592377e+45 -8.8771855e+45)
(-7.9213604e+46 5.957595e+45 -7.6888159e+45)
(-9.2640217e+46 1.0076148e+46 -1.4834918e+46)
(-9.4638474e+46 5.1267865e+45 -1.4395975e+46)
(-1.061867e+47 8.3695852e+45 -1.305087e+46)
(-7.8001574e+46 4.5463111e+45 -8.2164519e+45)
(-8.2660135e+46 1.0251746e+46 -2.05155e+46)
(-8.211491e+46 9.8180704e+45 -2.0300676e+46)
(-8.1802912e+46 9.6788026e+45 -1.9563976e+46)
(-4.0867642e+46 3.1914611e+45 -1.5707647e+46)
(-4.1890282e+46 2.8821934e+45 -1.4564163e+46)
(-4.3486685e+46 1.1054048e+46 -6.7600598e+45)
(-4.111018e+46 7.6650691e+45 -7.7322502e+45)
(-4.088601e+46 7.1304199e+45 -7.4804561e+45)
(-4.1853015e+46 2.5056289e+45 -1.4436186e+46)
(-4.0981122e+46 2.7918042e+45 -1.5253041e+46)
(-4.3541395e+46 1.0797335e+46 -7.040042e+45)
(-4.0482169e+46 5.2225504e+45 1.4862921e+46)
(-4.4737255e+46 1.1665925e+46 1.7078274e+46)
(-3.1272233e+46 9.9634649e+45 4.4688918e+45)
(-3.5690666e+46 1.3092775e+46 4.0846541e+45)
(-3.1959075e+46 9.6089016e+45 4.98639e+45)
(-4.1640567e+46 4.7877312e+45 1.5392009e+46)
(-3.5199319e+46 1.2572495e+46 3.7540477e+45)
(-4.4479839e+46 1.1176311e+46 1.6759739e+46)
(-4.0464054e+46 2.515354e+45 -1.5076161e+46)
(-4.1465008e+46 2.4143844e+45 -1.4032321e+46)
(-4.0375713e+46 6.9250376e+45 -7.3034497e+45)
(-4.2992367e+46 1.059861e+46 -6.5187526e+45)
(-3.1408124e+46 8.9391071e+45 5.4157968e+45)
(-4.0738525e+46 3.6581282e+45 1.4102846e+46)
(-3.5805281e+46 1.2768948e+46 4.8487152e+45)
(-4.5037045e+46 1.1109406e+46 1.6684848e+46)
(-3.238195e+46 9.773634e+45 5.7864461e+45)
(-4.2131356e+46 4.9541065e+45 1.539635e+46)
(-1.0379437e+47 1.3611758e+46 1.8505155e+46)
(-9.9282234e+46 8.0962301e+45 3.2192572e+46)
(-8.1060007e+46 5.0939185e+45 1.8386954e+46)
(-9.0543048e+46 5.9695063e+45 2.7461789e+46)
(-8.279985e+46 1.026627e+46 1.8523618e+46)
(-9.1616332e+46 5.6052941e+45 2.7118345e+46)
(-8.2720664e+46 8.866436e+45 1.7959756e+46)
(-9.0858111e+46 5.1486186e+45 2.6569299e+46)
(-8.2547366e+46 3.9118438e+45 1.8812886e+46)
(-8.9579507e+46 6.0150853e+45 2.6967764e+46)
(-8.0611282e+46 7.7591749e+45 1.939167e+46)
(-8.3224376e+46 1.271769e+46 1.9284297e+46)
(-9.0762364e+46 6.8953656e+45 2.7585186e+46)
(-9.2027618e+46 6.0844809e+45 2.6992262e+46)
(-8.1103349e+46 6.2379707e+45 1.9415518e+46)
(-9.1744723e+46 6.5994784e+45 2.8126119e+46)
(-8.2260824e+46 1.130979e+46 1.8351402e+46)
(-9.2776823e+46 6.1218852e+45 2.7142547e+46)
(-6.9043618e+46 4.5936371e+45 1.8371115e+46)
(-6.9942872e+46 7.9528441e+45 1.7396724e+46)
(-7.8439277e+46 4.8063336e+45 2.2553948e+46)
(-7.9152041e+46 4.6514137e+45 2.1672196e+46)
(-6.819437e+46 4.6983413e+45 1.7378028e+46)
(-6.9326597e+46 8.3108092e+45 1.7262875e+46)
(-7.7817189e+46 4.539505e+45 2.1154989e+46)
(-7.8491954e+46 4.3202432e+45 2.0860028e+46)
(-7.8500562e+46 4.5871166e+45 2.1568265e+46)
(-6.8354049e+46 4.7620066e+45 1.794101e+46)
(-6.8721093e+46 8.3283275e+45 1.6718827e+46)
(-7.9146929e+46 4.6075749e+45 2.0696033e+46)
(-6.7417493e+46 5.2441129e+45 1.7216684e+46)
(-6.8788501e+46 8.9743104e+45 1.6968661e+46)
(-7.7475732e+46 4.597662e+45 2.0350453e+46)
(-7.6867684e+46 4.7253796e+45 2.0682065e+46)
(-6.7966034e+46 5.505312e+45 1.7437164e+46)
(-6.8731595e+46 8.7400786e+45 1.6101581e+46)
(-7.8037123e+46 4.6463891e+45 1.9996408e+46)
(-7.712027e+46 4.7157096e+45 2.0829751e+46)
(-6.7393831e+46 5.7216076e+45 1.6628707e+46)
(-6.7836146e+46 9.0794258e+45 1.5984929e+46)
(-7.7296505e+46 4.6311168e+45 1.9767919e+46)
(-7.671801e+46 4.7751127e+45 2.017334e+46)
(-6.7730667e+46 5.8186035e+45 1.7172537e+46)
(-6.8400329e+46 9.2810173e+45 1.5814321e+46)
(-7.7652588e+46 4.9770039e+45 1.9529849e+46)
(-7.6809454e+46 4.7862744e+45 2.0313719e+46)
(-6.7029557e+46 6.4651382e+45 1.6779508e+46)
(-6.7989183e+46 9.6807911e+45 1.5911e+46)
(-7.6868538e+46 4.8241419e+45 1.9596298e+46)
(-7.6079707e+46 5.1140454e+45 1.9905251e+46)
(-5.4954412e+46 5.6190833e+45 1.7769769e+46)
(-5.3862487e+46 2.0930681e+45 1.8511711e+46)
(-6.8126877e+46 3.1052805e+45 1.6556944e+46)
(-6.8830415e+46 3.4509396e+45 1.6426648e+46)
(-5.3167464e+46 2.2838897e+45 1.7988574e+46)
(-5.4782898e+46 5.9939091e+45 1.8071029e+46)
(-6.8125271e+46 3.4024089e+45 1.6838619e+46)
(-6.7783844e+46 3.3599981e+45 1.7031199e+46)
(-6.7655541e+46 3.7218531e+45 1.7635074e+46)
(-5.3727415e+46 2.8043209e+45 1.8999618e+46)
(-5.448032e+46 6.1219914e+45 1.8197792e+46)
(-6.8383311e+46 3.5996019e+45 1.6991155e+46)
(-5.4990304e+46 6.1666954e+45 1.8179892e+46)
(-5.33361e+46 2.4910474e+45 1.8364168e+46)
(-6.7951701e+46 3.4269604e+45 1.7263993e+46)
(-6.8562088e+46 3.5885368e+45 1.7020487e+46)
(-5.2919866e+46 1.9047442e+45 1.811208e+46)
(-5.4389961e+46 5.4046075e+45 1.7356607e+46)
(-6.6992531e+46 2.9169308e+45 1.6289436e+46)
(-6.7977611e+46 3.359408e+45 1.6609959e+46)
(-6.7157113e+46 3.0547192e+45 1.6107188e+46)
(-5.2692117e+46 2.045588e+45 1.7614282e+46)
(-5.4408106e+46 5.9394377e+45 1.7532936e+46)
(-6.7888027e+46 3.5696204e+45 1.6474559e+46)
(-5.4423376e+46 5.6781524e+45 1.7244186e+46)
(-5.3556971e+46 2.0331945e+45 1.8028586e+46)
(-6.7527269e+46 3.2128081e+45 1.6256585e+46)
(-6.8281076e+46 3.6558621e+45 1.6578082e+46)
(-5.4057284e+46 6.0155438e+45 1.773868e+46)
(-5.2746561e+46 2.5604966e+45 1.7555786e+46)
(-6.6840048e+46 3.3090327e+45 1.6272503e+46)
(-6.7250724e+46 3.3797274e+45 1.6246865e+46)
(-1.2035966e+47 1.4370734e+46 -1.6201414e+46)
(-1.0544646e+47 7.5885716e+45 1.9020911e+46)
(-1.0197903e+47 1.7675617e+46 2.1067779e+46)
(-9.5280606e+46 1.0902018e+46 -1.4079342e+46)
(-9.6052071e+46 1.5884704e+46 -1.6040207e+46)
(-1.2534966e+47 7.8038252e+45 2.1984205e+46)
(-1.1026218e+47 1.138745e+46 1.9297363e+46)
(-1.115684e+47 4.8459448e+45 1.8987903e+46)
(-1.0929575e+47 9.3855662e+45 -5.1546698e+45)
(-1.0770135e+47 5.6771009e+45 -5.3652094e+45)
(-1.0175315e+47 6.3633605e+45 -1.0444377e+46)
(-1.0744601e+47 4.9471106e+45 6.5681563e+45)
(-1.0043575e+47 8.5790769e+45 -1.2119583e+46)
(-1.06476e+47 1.0603268e+46 7.8028133e+45)
(-1.0117517e+47 6.0719312e+45 -1.1090548e+46)
(-1.0681784e+47 4.8222221e+45 6.4847645e+45)
(-9.9720667e+46 8.7153949e+45 -1.2178126e+46)
(-1.0648935e+47 9.9573613e+45 7.2464346e+45)
(-1.0493909e+47 1.5031713e+46 6.2211876e+44)
(-1.0359531e+47 1.721739e+46 4.0630482e+45)
(-1.0344224e+47 1.7095757e+46 4.2628612e+45)
(-1.0448309e+47 1.6040549e+46 7.4152868e+43)
(-1.0889586e+47 6.3598483e+45 -4.445886e+45)
(-1.0970086e+47 3.9666485e+45 1.7869941e+46)
(-1.0766489e+47 1.0809521e+46 1.8284717e+46)
(-1.0960094e+47 9.183502e+45 -5.0977109e+45)
(-8.6798516e+46 4.5429938e+45 -7.6020753e+45)
(-8.6567865e+46 3.246229e+45 -6.79144e+45)
(-9.0017954e+46 5.7026102e+45 1.89433e+45)
(-8.9909932e+46 2.783906e+45 1.1541014e+45)
(-8.536075e+46 2.6700548e+45 -9.0409788e+45)
(-8.5331444e+46 5.1466657e+45 -9.6461757e+45)
(-8.7723682e+46 5.0972917e+45 3.2778433e+44)
(-8.7444663e+46 3.4536408e+45 -1.1819561e+44)
(-8.7456194e+46 5.6868201e+45 7.5970941e+44)
(-8.5615756e+46 2.9069327e+45 -7.5922318e+45)
(-8.5721564e+46 5.7447897e+45 -8.2483464e+45)
(-8.7017332e+46 3.681342e+45 1.5347726e+44)
(-8.7320334e+46 5.0949049e+45 -7.2795751e+45)
(-8.7504615e+46 3.3186903e+45 -6.4117737e+45)
(-8.8049515e+46 5.3478795e+45 1.3959026e+45)
(-8.8059814e+46 2.6573619e+45 7.8043908e+44)
(-8.8120185e+46 3.8619015e+45 -4.4310883e+45)
(-8.8176599e+46 5.1137654e+45 -5.3836951e+45)
(-9.1533898e+46 2.779899e+45 6.2972027e+45)
(-9.1620608e+46 6.6181082e+45 7.1013378e+45)
(-9.44621e+46 7.3034197e+45 1.6550319e+46)
(-9.3579551e+46 5.8452052e+45 3.0953801e+44)
(-9.3832224e+46 4.5457389e+45 1.4919429e+45)
(-9.4525065e+46 2.3109492e+45 1.5737788e+46)
(-9.5612784e+46 8.2816787e+45 1.6811597e+46)
(-9.2397172e+46 6.2035057e+45 -2.9639959e+44)
(-9.2828296e+46 4.5525487e+45 8.065669e+44)
(-9.4140722e+46 3.2196351e+45 1.5593295e+46)
(-9.1528658e+46 6.4840806e+45 6.5425664e+45)
(-8.6935981e+46 5.666117e+45 -6.0428691e+45)
(-8.7244483e+46 3.9145193e+45 -5.0046004e+45)
(-9.0817125e+46 3.2112919e+45 5.765533e+45)
(-8.7181457e+46 5.4568149e+45 -7.1527062e+45)
(-8.6970304e+46 3.4066911e+45 -6.5983423e+45)
(-8.911528e+46 6.2081747e+45 1.6451424e+45)
(-8.8329238e+46 3.5956165e+45 9.4671257e+44)
(-8.9161399e+46 3.3280308e+45 2.715092e+44)
(-8.9552359e+46 5.6210327e+45 9.4296183e+44)
(-8.5851287e+46 3.2902239e+45 -7.5862175e+45)
(-8.6695874e+46 4.9609259e+45 -8.1241092e+45)
(-9.0080467e+46 6.0816508e+45 1.7232119e+45)
(-8.6135481e+46 5.025411e+45 -8.0184548e+45)
(-8.6251519e+46 3.4297421e+45 -7.0030906e+45)
(-8.9368949e+46 3.478118e+45 5.5785789e+44)
(-8.8409283e+46 5.7580482e+45 1.2745073e+45)
(-8.6883555e+46 5.5516057e+45 -7.8017119e+45)
(-8.7574409e+46 3.8609575e+45 -6.0100393e+45)
(-8.7605736e+46 3.2800044e+45 1.3061416e+44)
(-9.27519e+46 5.980107e+45 9.3021808e+43)
(-9.2664163e+46 4.7439257e+45 8.4281222e+44)
(-9.4640795e+46 8.4243046e+45 1.6231754e+46)
(-9.3417145e+46 3.0748933e+45 1.5220258e+46)
(-9.2651619e+46 6.1460172e+45 -2.3887546e+44)
(-9.3041357e+46 4.9655073e+45 1.1985228e+45)
(-9.4974361e+46 8.0885858e+45 1.633742e+46)
(-9.3901694e+46 2.8981696e+45 1.4894234e+46)
(-9.1797421e+46 6.7945589e+45 6.6580285e+45)
(-8.8008207e+46 4.1812681e+45 -4.4355847e+45)
(-8.7792787e+46 5.5276596e+45 -5.7521222e+45)
(-9.1052503e+46 3.3087828e+45 5.5533819e+45)
(-9.1760367e+46 6.7210484e+45 6.6463712e+45)
(-8.7982736e+46 4.2522786e+45 -4.6755752e+45)
(-8.7948347e+46 5.5563291e+45 -5.2602964e+45)
(-9.1132742e+46 3.1209689e+45 5.9595777e+45)
(-7.1429794e+46 2.7781501e+45 -4.262741e+45)
(-7.258685e+46 4.0084606e+45 4.9406454e+44)
(-7.1387457e+46 3.7369406e+45 -4.7044495e+45)
(-7.2230095e+46 2.4092896e+45 7.229652e+43)
(-7.1547701e+46 2.547153e+45 -4.4447832e+45)
(-7.0979161e+46 3.3214642e+45 -4.8815002e+45)
(-7.3394242e+46 3.7676073e+45 1.4232093e+44)
(-7.2488166e+46 2.3806268e+45 -2.793202e+44)
(-7.1438931e+46 2.7378493e+45 -4.2660774e+45)
(-7.3313719e+46 3.9995084e+45 2.4487253e+44)
(-7.1459089e+46 3.3879901e+45 -4.7020433e+45)
(-7.2910529e+46 2.5336237e+45 -2.0575499e+44)
(-7.1404683e+46 2.5397896e+45 -4.4555348e+45)
(-7.2436524e+46 3.7223688e+45 1.0653278e+44)
(-7.0834839e+46 3.556714e+45 -4.8757284e+45)
(-7.1523156e+46 2.3009129e+45 -2.6551767e+44)
(-7.2664776e+46 2.4440093e+45 -3.9885922e+45)
(-7.3736527e+46 3.6664798e+45 -5.8074939e+44)
(-7.22989e+46 3.3736297e+45 -4.4637032e+45)
(-7.2936807e+46 2.4153479e+45 -1.047945e+45)
(-7.2669211e+46 2.7760837e+45 -3.7882917e+45)
(-7.3573434e+46 3.6933991e+45 -5.1231109e+44)
(-7.2631958e+46 3.5448189e+45 -4.2243272e+45)
(-7.3257952e+46 2.3698597e+45 -9.3110576e+44)
(-7.6409427e+46 3.911789e+45 3.4455377e+42)
(-7.6064984e+46 2.4110893e+45 -3.8727866e+44)
(-7.4978214e+46 2.4146961e+45 -5.5573295e+45)
(-7.489277e+46 2.826776e+45 -5.9067447e+45)
(-7.6495486e+46 3.6990467e+45 -9.3736802e+43)
(-7.5811967e+46 2.3150288e+45 -5.3488531e+44)
(-7.4614306e+46 2.8737012e+45 -6.2128122e+45)
(-7.5054177e+46 2.1925996e+45 -5.7800765e+45)
(-7.0035514e+46 2.3474846e+45 -4.8246657e+45)
(-7.0154321e+46 3.5805304e+45 -5.1140278e+45)
(-7.1560119e+46 3.6403441e+45 -6.9752185e+42)
(-7.1243578e+46 2.248415e+45 -3.3475853e+44)
(-7.0402239e+46 2.5006203e+45 -4.628186e+45)
(-7.2388174e+46 3.7311394e+45 -1.0038681e+44)
(-7.2330959e+46 2.5778871e+45 -2.6287361e+44)
(-7.0017303e+46 2.3038348e+45 -4.8708537e+45)
(-7.216987e+46 3.5919588e+45 -3.1066567e+44)
(-7.0221276e+46 3.308009e+45 -5.1670327e+45)
(-7.1845278e+46 2.397305e+45 -6.6822921e+44)
(-7.0393153e+46 2.4710906e+45 -4.6419724e+45)
(-7.0761195e+46 3.7106136e+45 -4.700883e+45)
(-7.1529258e+46 3.7024358e+45 -9.6631618e+43)
(-7.1060416e+46 2.3674704e+45 -2.9994563e+44)
(-7.144343e+46 2.4002465e+45 -4.125296e+45)
(-7.2639664e+46 3.6177701e+45 -7.6861773e+44)
(-7.1103881e+46 2.2503748e+45 -4.4103155e+45)
(-7.2346968e+46 3.2788241e+45 -1.0368587e+45)
(-7.1111304e+46 3.4920893e+45 -4.6911223e+45)
(-7.2173271e+46 2.2768195e+45 -1.3673791e+45)
(-7.8933627e+46 3.3382004e+45 4.6133091e+45)
(-7.8718248e+46 4.0243927e+45 4.2594968e+45)
(-8.0138051e+46 5.6574841e+45 1.4914627e+46)
(-7.9491891e+46 1.9661072e+45 1.4576653e+46)
(-7.5992523e+46 3.8411958e+45 -7.5617978e+44)
(-7.5907622e+46 3.4648769e+45 -1.5320742e+44)
(-7.8657258e+46 5.3826177e+45 8.7161895e+45)
(-7.8389088e+46 2.4101581e+45 8.0417104e+45)
(-7.5834189e+46 3.1121964e+45 -5.8321665e+44)
(-7.5288252e+46 3.7190686e+45 -9.6687935e+44)
(-7.8482152e+46 4.5668691e+45 8.1554015e+45)
(-7.7792269e+46 1.9113304e+45 7.8061519e+45)
(-7.9270766e+46 4.2780895e+45 4.532311e+45)
(-7.9463211e+46 3.9985415e+45 5.4026521e+45)
(-7.9755292e+46 5.611396e+45 1.5046907e+46)
(-7.9585621e+46 1.800078e+45 1.4393246e+46)
(-7.1553794e+46 2.7236298e+45 -3.885454e+45)
(-7.3723063e+46 3.8930883e+45 1.500575e+45)
(-7.0989369e+46 3.5452023e+45 -4.295792e+45)
(-7.2880013e+46 2.2391411e+45 1.100206e+45)
(-7.3435602e+46 3.9739471e+45 -3.5527559e+45)
(-7.3488697e+46 3.0706053e+45 -3.0086438e+45)
(-7.5073328e+46 4.3267977e+45 3.2642453e+45)
(-7.4859145e+46 2.1879555e+45 2.7758559e+45)
(-7.1651977e+46 3.0983257e+45 -3.5060264e+45)
(-7.3813787e+46 4.3146992e+45 1.7632962e+45)
(-7.161749e+46 3.6065444e+45 -3.9784852e+45)
(-7.3413599e+46 2.4122787e+45 1.2318482e+45)
(-7.3344279e+46 2.7029585e+45 -3.3498333e+45)
(-7.2894143e+46 3.8147024e+45 -3.7682894e+45)
(-7.5030906e+46 4.0779169e+45 2.9663924e+45)
(-7.4203486e+46 2.1460644e+45 2.6077592e+45)
(-7.467539e+46 2.9644853e+45 -6.7342653e+44)
(-7.4818157e+46 3.6864586e+45 -1.1463509e+45)
(-7.7703364e+46 4.7207435e+45 7.8284309e+45)
(-7.7344839e+46 2.1208872e+45 7.2741461e+45)
(-7.8129784e+46 3.4981346e+45 4.562072e+45)
(-7.8086033e+46 4.0781167e+45 3.9130027e+45)
(-7.9017308e+46 5.1728454e+45 1.4159805e+46)
(-7.8796968e+46 1.6997396e+45 1.3626308e+46)
(-7.8232615e+46 3.4595939e+45 4.5490945e+45)
(-7.7998864e+46 4.0703059e+45 4.2528992e+45)
(-7.9828835e+46 5.6708107e+45 1.4579438e+46)
(-7.9023647e+46 1.9635639e+45 1.4308297e+46)
(-7.5027556e+46 3.2030018e+45 -6.140255e+44)
(-7.4618056e+46 3.8634843e+45 -9.6040268e+44)
(-7.7968405e+46 4.8581338e+45 8.0646487e+45)
(-7.7308674e+46 2.1863919e+45 7.7338624e+45)
(-7.2390358e+46 2.6715531e+45 -3.41803e+45)
(-7.2111511e+46 3.8647448e+45 -3.7445371e+45)
(-7.4338365e+46 4.2086872e+45 2.8980388e+45)
(-7.36413e+46 2.3438238e+45 2.5687606e+45)
(-7.0382116e+46 2.6434847e+45 -4.0518826e+45)
(-7.2873095e+46 3.9053936e+45 1.24009e+45)
(-7.0472982e+46 3.4272734e+45 -4.3588711e+45)
(-7.2458404e+46 2.2299859e+45 8.2120954e+44)
(-7.2298001e+46 2.6427267e+45 -3.4949909e+45)
(-7.2300009e+46 3.7917509e+45 -3.8867451e+45)
(-7.409074e+46 3.8212136e+45 2.7116325e+45)
(-7.3790923e+46 1.9725982e+45 2.3055619e+45)
(-7.0618259e+46 2.6570073e+45 -4.0107355e+45)
(-7.2843037e+46 3.8769974e+45 1.2601559e+45)
(-7.0325138e+46 3.5603818e+45 -4.2621522e+45)
(-7.2193679e+46 2.3120546e+45 9.4287875e+44)
(-7.7744045e+46 4.92347e+45 1.2904985e+46)
(-7.7377805e+46 4.3579058e+45 1.2419926e+46)
(-7.7914127e+46 4.8157048e+45 1.3509848e+46)