/*--------------------------------*- C++ -*----------------------------------*\
  =========                 |
  \\      /  F ield         | OpenFOAM: The Open Source CFD Toolbox
   \\    /   O peration     | Website:  https://openfoam.org
    \\  /    A nd           | Version:  7
     \\/     M anipulation  |
\*---------------------------------------------------------------------------*/
FoamFile
{
    version     2.0;
    format      ascii;
    class       volVectorField;
    location    "1000";
    object      UMean;
}
// * * * * * * * * * * * * * * * * * * * * * * * * * * * * * * * * * * * * * //

dimensions      [0 1 -1 0 0 0 0];

internalField   nonuniform List<vector> 
33943
(
(-1.1565501e+45 1.448352e+44 1.1003593e+44)
(-1.0104874e+45 9.1115107e+43 1.4110681e+44)
(-1.1042527e+45 7.3318923e+43 1.1254506e+44)
(-1.1135744e+45 5.8996257e+43 8.2101702e+43)
(-1.2897122e+45 9.5674981e+43 7.9774674e+43)
(-1.0385997e+45 1.9462572e+44 -2.207515e+43)
(-7.8345447e+44 1.1051889e+44 -1.614393e+43)
(-1.1819524e+45 1.0724571e+44 1.2129549e+44)
(-1.0367636e+45 8.5104035e+43 1.4450216e+44)
(-1.0480909e+45 1.1739489e+44 1.3421976e+44)
(-1.1307483e+45 7.5491635e+43 1.2843131e+44)
(-1.140879e+45 6.3513701e+43 1.2498156e+44)
(-8.6761821e+44 6.1768551e+43 1.1835407e+44)
(-1.0496477e+45 6.5884489e+43 1.2720115e+44)
(-1.0575025e+45 3.972467e+43 1.2593733e+44)
(-8.7448014e+44 6.4979912e+43 1.1100119e+44)
(-1.121957e+45 4.0968707e+43 -2.6235471e+43)
(-1.1653307e+45 5.7885631e+43 4.3006159e+43)
(-1.1248545e+45 4.6180637e+43 7.8467506e+43)
(-1.1293183e+45 5.7843748e+43 8.7141881e+43)
(-1.4229909e+45 1.0269569e+44 1.0921484e+44)
(-1.0099203e+45 2.5744868e+43 8.2701297e+43)
(-1.0118066e+45 4.6425974e+43 8.6269158e+43)
(-1.2907875e+45 1.0869947e+44 7.2093649e+43)
(-9.1221914e+44 3.0978856e+43 1.5886299e+43)
(-8.0731852e+44 1.1588557e+42 -1.2236695e+43)
(-8.4937559e+44 1.4225718e+43 -1.693799e+43)
(-9.1884089e+44 4.3178254e+43 1.9957992e+43)
(-1.0732922e+45 1.716148e+44 -1.8159027e+43)
(-1.0236716e+45 7.6034395e+43 -1.3179806e+44)
(-1.0305668e+45 1.0453932e+44 -1.3320767e+44)
(-8.0782132e+44 1.0567865e+44 -1.1932223e+43)
(-8.2651917e+44 1.6529562e+44 -8.8590636e+42)
(-9.3140239e+44 4.6504647e+43 -1.1928078e+44)
(-9.7464043e+44 4.8724166e+43 -1.0279659e+44)
(-7.6391955e+44 5.0505402e+43 -1.4674632e+44)
(-7.7375761e+44 5.4738502e+43 -1.4541421e+44)
(-5.7878747e+44 7.7038874e+43 3.8073283e+42)
(-5.9320672e+44 1.0605344e+44 5.958996e+42)
(-1.0481019e+45 7.4754387e+43 1.4830679e+44)
(-1.0657897e+45 1.1007847e+44 1.4008125e+44)
(-1.1169288e+45 6.4587618e+43 1.2110415e+44)
(-1.1511607e+45 5.9516305e+43 1.3090872e+44)
(-8.7539126e+44 5.259093e+43 1.1384253e+44)
(-8.8518457e+44 6.0553654e+43 1.100194e+44)
(-1.0669386e+45 3.7258905e+43 1.2666667e+44)
(-1.0510136e+45 6.2232449e+43 1.2435698e+44)
(-8.7277618e+44 5.7908084e+43 1.1078785e+44)
(-8.7879623e+44 6.9426103e+43 1.0958747e+44)
(-1.0623671e+45 5.9861376e+43 1.1916111e+44)
(-1.0661598e+45 4.1933859e+43 1.1995624e+44)
(-7.395018e+44 3.9596036e+43 9.0313567e+43)
(-9.3654694e+44 3.0249404e+43 1.1249031e+44)
(-7.3489357e+44 3.9972244e+43 9.5516828e+43)
(-9.2585208e+44 4.8153992e+43 1.1140915e+44)
(-7.2807909e+44 3.6935385e+43 8.8197568e+43)
(-7.3580087e+44 4.1995983e+43 9.0960156e+43)
(-9.2584219e+44 4.0795234e+43 1.0403825e+44)
(-9.3128225e+44 2.7700718e+43 1.0707709e+44)
(-1.4585542e+45 7.6450822e+43 2.9364979e+43)
(-1.1350308e+45 4.0698563e+43 -2.6589425e+43)
(-1.175748e+45 5.6422516e+43 4.4991825e+43)
(-1.1318792e+45 3.4839496e+43 -3.2052671e+43)
(-1.1789717e+45 3.9862689e+43 3.9185024e+43)
(-1.040133e+45 3.5736867e+43 -1.7223284e+43)
(-1.0136171e+45 2.8802679e+43 -4.4800681e+43)
(-1.0364762e+45 2.5294568e+43 -1.863398e+43)
(-1.0054167e+45 2.2863311e+43 -4.5604233e+43)
(-1.053771e+45 4.4383841e+43 6.0068848e+43)
(-1.0282778e+45 3.6170239e+43 3.453336e+42)
(-1.0563565e+45 2.7095907e+43 5.9031413e+43)
(-1.022722e+45 2.6190339e+43 6.3223433e+41)
(-1.0170603e+45 4.494516e+43 7.9824043e+43)
(-1.0174626e+45 2.7010779e+43 8.0744164e+43)
(-1.0122961e+45 4.4894413e+43 8.607368e+43)
(-1.0135478e+45 2.3168832e+43 8.1551304e+43)
(-1.1293134e+45 4.1276016e+43 8.517567e+43)
(-1.4295026e+45 9.606568e+43 1.0947245e+44)
(-1.1230884e+45 5.2356463e+43 8.8432848e+43)
(-9.5003086e+44 3.3306843e+43 1.25591e+43)
(-9.5793125e+44 4.9370795e+43 1.6459352e+43)
(-9.2819828e+44 4.5102367e+43 9.4773301e+42)
(-9.0487227e+44 3.5967476e+43 8.3867102e+42)
(-8.833621e+44 3.3862348e+43 7.3174255e+43)
(-8.8390918e+44 1.9381841e+43 7.4946327e+43)
(-8.8607712e+44 3.6411153e+43 7.9385952e+43)
(-8.8814302e+44 1.9450407e+43 7.6182854e+43)
(-8.9464335e+44 5.1243682e+43 1.1006006e+43)
(-8.8988269e+44 5.248563e+43 7.2297889e+42)
(-8.0974291e+44 6.0108932e+43 -1.7968851e+43)
(-7.9853166e+44 3.9950451e+43 -1.0480509e+43)
(-8.3989944e+44 6.2795583e+43 -9.1987323e+42)
(-8.5331783e+44 6.1314343e+43 -1.6142214e+43)
(-8.4369834e+44 6.6656257e+43 -2.1428799e+43)
(-8.5877046e+44 7.0860288e+43 -8.7801907e+42)
(-1.0397046e+45 6.4711472e+43 -1.2829318e+44)
(-1.0426033e+45 1.0081301e+44 -1.2855102e+44)
(-8.1370813e+44 8.9067968e+43 -9.4611899e+42)
(-8.1353962e+44 1.4904694e+44 -8.6299796e+42)
(-9.9795555e+44 3.0484213e+43 -1.0842859e+44)
(-9.8364779e+44 5.0064004e+43 -1.0413211e+44)
(-9.4277545e+44 4.6206706e+43 -1.1996468e+44)
(-9.4822808e+44 4.3650685e+43 -1.1616269e+44)
(-9.8464034e+44 4.4872305e+43 -1.0337508e+44)
(-9.4004617e+44 4.3000964e+43 -1.1910134e+44)
(-9.4294464e+44 4.7189016e+43 -1.1714373e+44)
(-9.9128365e+44 3.1112141e+43 -1.0544002e+44)
(-7.7361359e+44 4.6267657e+43 -1.4720168e+44)
(-7.8518286e+44 5.5617648e+43 -1.4730449e+44)
(-6.0021629e+44 1.005039e+44 5.1193857e+42)
(-5.8340646e+44 6.1600238e+43 1.28476e+41)
(-7.7684593e+44 4.6656263e+43 -1.482151e+44)
(-7.8215334e+44 6.1967736e+43 -1.4800687e+44)
(-5.9049581e+44 1.099171e+44 3.6929588e+41)
(-5.8912927e+44 7.2847196e+43 6.0939107e+41)
(-9.9659395e+44 4.289686e+43 -1.3548672e+44)
(-9.6863673e+44 3.5208822e+43 -7.9918822e+43)
(-8.0493485e+44 1.7899215e+43 -1.3533841e+44)
(-7.9794594e+44 3.2935197e+43 -1.3381808e+44)
(-6.6516346e+44 3.6260421e+43 -1.5774703e+44)
(-6.7272535e+44 2.8053195e+43 -1.5536605e+44)
(-7.9674691e+44 2.5294811e+43 -1.2862154e+44)
(-6.6439738e+44 3.0257318e+43 -1.520796e+44)
(-4.6349814e+44 3.8679393e+43 -1.3953223e+44)
(-4.7197395e+44 3.6400823e+43 -1.3946593e+44)
(-4.1210398e+44 4.2833843e+43 3.7309377e+43)
(-4.199949e+44 6.0055775e+43 3.452294e+43)
(-4.6164484e+44 3.2648631e+43 -1.347111e+44)
(-4.0564268e+44 3.9199955e+43 3.2127165e+43)
(-4.1128926e+44 6.3512075e+43 2.9553656e+43)
(-1.1239698e+45 4.9441006e+43 1.1614222e+44)
(-8.9889324e+44 5.8411061e+43 1.1257723e+44)
(-8.8706203e+44 5.0364559e+43 1.1472854e+44)
(-1.058283e+45 5.8561219e+43 1.263275e+44)
(-1.0783466e+45 3.3732182e+43 1.3098072e+44)
(-8.8391283e+44 6.1096695e+43 1.0740614e+44)
(-1.0802408e+45 3.792783e+43 1.237957e+44)
(-8.8585464e+44 5.3919285e+43 1.1203866e+44)
(-1.0810833e+45 5.7033376e+43 1.277563e+44)
(-7.3657539e+44 3.2310665e+43 9.037487e+43)
(-7.4165309e+44 3.2869627e+43 8.5332781e+43)
(-9.3318969e+44 4.4482651e+43 1.1009305e+44)
(-9.3834198e+44 2.6036626e+43 1.0850103e+44)
(-7.3517621e+44 3.3051166e+43 8.7229514e+43)
(-7.3824517e+44 3.8176293e+43 8.6505966e+43)
(-9.4044797e+44 3.831809e+43 1.0681133e+44)
(-9.3612662e+44 2.5302857e+43 1.0325529e+44)
(-7.3279543e+44 3.6997616e+43 8.9464611e+43)
(-7.3955495e+44 4.0283689e+43 8.5205434e+43)
(-9.3124026e+44 4.6340339e+43 1.0505753e+44)
(-9.3696297e+44 3.0754088e+43 1.0395841e+44)
(-7.3719941e+44 4.054112e+43 8.9591539e+43)
(-7.4028386e+44 4.3688323e+43 8.9166885e+43)
(-9.3412636e+44 2.8901851e+43 1.0508467e+44)
(-9.3592373e+44 4.3609515e+43 1.057968e+44)
(-6.4199063e+44 2.7014152e+43 8.6156906e+43)
(-6.4394396e+44 2.9353216e+43 8.6726976e+43)
(-8.0727616e+44 2.9368078e+43 9.995819e+43)
(-8.0565827e+44 2.0878568e+43 9.981673e+43)
(-6.4429055e+44 2.7176167e+43 9.110659e+43)
(-6.4759493e+44 2.8581473e+43 8.7187674e+43)
(-8.0260453e+44 3.556945e+43 1.039419e+44)
(-8.0687214e+44 2.4363825e+43 1.0322471e+44)
(-6.3547325e+44 2.5474957e+43 8.6290248e+43)
(-6.4079784e+44 2.9653088e+43 8.4176229e+43)
(-7.9715424e+44 3.308541e+43 9.7880239e+43)
(-8.0136539e+44 2.4333969e+43 9.7916123e+43)
(-8.021129e+44 3.0305116e+43 1.0014782e+44)
(-6.3819005e+44 2.9148655e+43 8.6570676e+43)
(-6.363671e+44 3.0102459e+43 8.5283436e+43)
(-7.9864591e+44 2.0829855e+43 9.9234432e+43)
(-1.4697185e+45 7.372492e+43 3.067769e+43)
(-1.1857116e+45 3.6050816e+43 4.2387038e+43)
(-1.1362156e+45 4.1320706e+43 -2.4089129e+43)
(-1.1363663e+45 3.354931e+43 -3.0305476e+43)
(-9.6474554e+44 2.7514093e+43 -2.9564758e+42)
(-9.4773225e+44 3.0356221e+43 -6.9052433e+42)
(-9.6501092e+44 3.981004e+43 -6.7805055e+42)
(-9.7260982e+44 3.957567e+43 1.6795947e+42)
(-1.173877e+45 5.375322e+43 4.4471578e+43)
(-1.0166505e+45 3.0543314e+43 -4.1073707e+43)
(-1.012928e+45 2.2248641e+43 -4.74995e+43)
(-1.0317729e+45 2.3843613e+43 -2.3161123e+43)
(-1.0417235e+45 3.6678607e+43 -1.5678303e+43)
(-1.0310497e+45 3.6683177e+43 5.8372063e+42)
(-1.0516714e+45 4.2985574e+43 5.9445288e+43)
(-1.0578498e+45 2.5215988e+43 5.7582552e+43)
(-1.0235773e+45 2.4159652e+43 -1.2483317e+42)
(-1.0477032e+45 2.5126019e+43 -2.0904336e+43)
(-1.0134801e+45 2.2482177e+43 -4.8359837e+43)
(-1.0159964e+45 2.4977519e+43 -4.7236605e+43)
(-1.0416483e+45 3.1366595e+43 -2.232064e+43)
(-1.0684438e+45 2.7448813e+43 5.9016444e+43)
(-1.0604729e+45 4.2441082e+43 5.5906607e+43)
(-1.0288032e+45 3.3385902e+43 -2.4016585e+42)
(-1.0322079e+45 2.7700227e+43 -1.5615315e+42)
(-8.9148077e+44 2.5700885e+43 -1.9220324e+43)
(-8.8051892e+44 2.1451132e+43 -3.3811082e+43)
(-8.8057039e+44 2.3027883e+43 -3.3295635e+43)
(-8.9284101e+44 2.0995808e+43 -1.9705794e+43)
(-9.0067632e+44 2.1162993e+43 -3.3509237e+43)
(-8.993258e+44 2.3526724e+43 -3.3683895e+43)
(-8.9245456e+44 2.0289221e+43 -4.1530855e+43)
(-8.9447024e+44 2.1094978e+43 -4.0772495e+43)
(-8.8599551e+44 2.2864285e+43 -2.2496008e+43)
(-8.7284757e+44 2.1748221e+43 -3.5702795e+43)
(-8.7039169e+44 1.9783895e+43 -3.7836492e+43)
(-8.8621388e+44 2.0423608e+43 -2.1201496e+43)
(-8.9228328e+44 2.0711765e+43 -3.5097768e+43)
(-8.9024674e+44 2.0210087e+43 -3.7349663e+43)
(-9.3328274e+44 2.108857e+43 7.2760141e+43)
(-9.0056031e+44 3.1496466e+43 3.3669148e+43)
(-8.9956969e+44 1.9572903e+43 3.0473056e+43)
(-9.2893109e+44 3.686533e+43 7.4379331e+43)
(-8.8175179e+44 2.0549076e+43 -1.4755525e+43)
(-9.0858684e+44 3.0975431e+43 1.3942446e+43)
(-8.810806e+44 2.6123208e+43 -1.304453e+43)
(-9.0974732e+44 2.0374238e+43 1.1963151e+43)
(-8.9340235e+44 2.7939883e+43 2.7946649e+43)
(-9.2800501e+44 3.301788e+43 7.0085976e+43)
(-9.3170055e+44 1.9562912e+43 7.240975e+43)
(-8.9305542e+44 1.9895369e+43 2.836287e+43)
(-9.0478873e+44 1.9486162e+43 1.0018889e+43)
(-8.7413785e+44 2.3007045e+43 -1.7335341e+43)
(-9.0423006e+44 2.7002036e+43 9.5219382e+42)
(-8.7368207e+44 2.0322579e+43 -1.6569913e+43)
(-8.8959416e+44 2.0650774e+43 7.1405387e+43)
(-8.8833081e+44 3.504933e+43 7.3795739e+43)
(-8.8835782e+44 2.0870008e+43 7.5647858e+43)
(-8.9255731e+44 3.6831303e+43 7.5280478e+43)
(-8.91586e+44 1.702063e+43 7.4272743e+43)
(-1.027704e+45 2.6483682e+43 8.4245635e+43)
(-8.8803878e+44 3.4793835e+43 7.6871769e+43)
(-8.8734374e+44 1.8234514e+43 7.1593262e+43)
(-8.9293682e+44 3.2280432e+43 7.245573e+43)
(-1.0290404e+45 4.4388295e+43 8.4051682e+43)
(-1.1237558e+45 4.1808205e+43 8.1431969e+43)
(-9.5160774e+44 3.8651572e+43 1.2162009e+43)
(-8.9293527e+44 4.2332122e+43 1.1142005e+43)
(-9.087901e+44 4.5577025e+43 9.3205015e+42)
(-9.3850267e+44 4.352106e+43 1.1309966e+43)
(-1.0248214e+45 2.2071673e+43 8.6660137e+43)
(-1.0177979e+45 4.4281059e+43 8.9202731e+43)
(-8.9323369e+44 5.8214992e+43 4.5127048e+42)
(-9.0980759e+44 6.6902843e+43 6.0114124e+42)
(-8.8929595e+44 6.9193612e+43 1.8448411e+42)
(-8.7489879e+44 6.3153947e+43 4.5623143e+42)
(-7.5857932e+44 2.6211571e+43 7.4470135e+43)
(-7.6041304e+44 1.7046567e+43 7.3003235e+43)
(-7.6391923e+44 2.6947734e+43 7.5920123e+43)
(-7.5856817e+44 1.5505695e+43 7.5627578e+43)
(-7.6489931e+44 2.8672438e+43 7.9951908e+43)
(-7.6605656e+44 1.6556907e+43 7.7521765e+43)
(-7.6842732e+44 2.5274847e+43 7.4690135e+43)
(-7.6445309e+44 1.5430868e+43 7.50066e+43)
(-8.2203219e+44 6.5586621e+43 -7.4252487e+42)
(-8.2202957e+44 7.5366837e+43 -9.8857428e+42)
(-7.9780095e+44 9.7979258e+43 -2.4900516e+43)
(-7.9705266e+44 7.7927182e+43 -1.8295133e+43)
(-7.243807e+44 3.9760556e+43 -1.5972191e+43)
(-8.1469656e+44 4.874057e+43 -1.9918268e+43)
(-8.7983612e+44 6.0495563e+43 -1.6040049e+43)
(-8.4578962e+44 6.4236317e+43 -1.6731523e+43)
(-1.1769181e+45 6.6500571e+43 -1.1264988e+44)
(-1.1659578e+45 6.113139e+43 -1.0965002e+44)
(-1.1725806e+45 5.3254085e+43 -6.113219e+43)
(-9.952288e+44 4.8064362e+43 -1.0332419e+44)
(-1.0084712e+45 2.9340549e+43 -1.0705714e+44)
(-9.5976703e+44 4.2959063e+43 -1.155743e+44)
(-9.5453885e+44 4.2452524e+43 -1.1864837e+44)
(-9.9388253e+44 4.4957577e+43 -1.0280168e+44)
(-1.0000143e+45 3.0924826e+43 -1.0355774e+44)
(-9.523439e+44 4.6041752e+43 -1.1683976e+44)
(-9.4940388e+44 4.2130661e+43 -1.1657716e+44)
(-7.8313541e+44 4.2282698e+43 -1.4797803e+44)
(-7.9220674e+44 5.40712e+43 -1.4693549e+44)
(-5.9477826e+44 5.4270367e+43 1.1483221e+42)
(-6.0492513e+44 9.2686973e+43 4.7074467e+42)
(-7.8253539e+44 4.4522502e+43 -1.4629631e+44)
(-7.8575032e+44 5.6493597e+43 -1.4631226e+44)
(-5.9400258e+44 6.0800216e+43 1.0654535e+42)
(-5.855809e+44 9.4640568e+43 -5.3373007e+42)
(-9.8358777e+44 1.95841e+43 -8.1325881e+43)
(-9.7729602e+44 3.8030935e+43 -8.1991629e+43)
(-1.0075169e+45 4.2097456e+43 -1.3565279e+44)
(-1.0075481e+45 3.6086785e+43 -1.3149118e+44)
(-9.7817819e+44 3.5813708e+43 -8.0551938e+43)
(-1.0034851e+45 4.2029752e+43 -1.3602156e+44)
(-1.0016422e+45 3.7102755e+43 -1.3275394e+44)
(-9.778805e+44 1.8039512e+43 -8.0612206e+43)
(-8.0633535e+44 3.3831376e+43 -1.339085e+44)
(-8.1173237e+44 1.9931969e+43 -1.3522349e+44)
(-6.7983885e+44 2.8047663e+43 -1.5622107e+44)
(-6.7554779e+44 3.4064627e+43 -1.585562e+44)
(-6.7448653e+44 3.030681e+43 -1.5454885e+44)
(-8.0606546e+44 2.8496986e+43 -1.3057916e+44)
(-8.0738282e+44 1.981471e+43 -1.3258309e+44)
(-6.7620814e+44 3.0281039e+43 -1.559236e+44)
(-4.7836739e+44 3.8095685e+43 -1.4075868e+44)
(-4.156926e+44 3.4265748e+43 3.393243e+43)
(-4.1681954e+44 5.9867487e+43 2.9965193e+43)
(-4.746854e+44 3.1351802e+43 -1.3794301e+44)
(-4.7080783e+44 3.2884824e+43 -1.4105882e+44)
(-4.7904941e+44 3.4692158e+43 -1.4035509e+44)
(-4.109003e+44 2.9341927e+43 3.2679472e+43)
(-4.1950254e+44 5.3477365e+43 3.3378578e+43)
(-8.0362331e+44 3.2306002e+43 -1.3428262e+44)
(-8.0948888e+44 1.9587115e+43 -1.3610259e+44)
(-6.7305448e+44 3.4288156e+43 -1.5851123e+44)
(-6.7918577e+44 2.907798e+43 -1.5653496e+44)
(-6.7135338e+44 3.238116e+43 -1.5448138e+44)
(-8.0341066e+44 2.9020454e+43 -1.3128903e+44)
(-8.0578329e+44 2.1209821e+43 -1.3312026e+44)
(-6.7520618e+44 3.3081118e+43 -1.5601267e+44)
(-4.7393847e+44 3.6541763e+43 -1.3775435e+44)
(-4.7815111e+44 4.3080813e+43 -1.4100781e+44)
(-4.1638568e+44 4.3968833e+43 3.3243374e+43)
(-4.1899807e+44 6.652587e+43 3.0625662e+43)
(-4.7332448e+44 3.5673321e+43 -1.4115686e+44)
(-4.8322243e+44 3.8675245e+43 -1.4137329e+44)
(-4.1445553e+44 3.9349031e+43 3.2196508e+43)
(-4.2475334e+44 6.2806066e+43 3.279614e+43)
(-1.0193728e+45 3.3547813e+43 -1.10969e+44)
(-8.079646e+44 2.885725e+43 -1.3915565e+44)
(-8.1084286e+44 1.2914024e+43 -1.379619e+44)
(-1.0075593e+45 3.1250253e+43 -6.0099379e+43)
(-1.0278189e+45 1.9059138e+43 -6.5139093e+43)
(-1.0182403e+45 2.7196354e+43 -1.0476178e+44)
(-8.0486301e+44 2.4682895e+43 -1.335996e+44)
(-7.0431881e+44 3.2715208e+43 -1.7250656e+44)
(-7.0898029e+44 2.7429525e+43 -1.7019328e+44)
(-7.0222811e+44 3.0318593e+43 -1.6733492e+44)
(-4.8343658e+44 2.3564194e+43 -1.4661509e+44)
(-4.8359033e+44 1.6718676e+43 -1.4497883e+44)
(-3.5246777e+44 2.3927471e+43 -1.5405975e+44)
(-3.4898433e+44 3.099704e+43 -1.5802108e+44)
(-3.5147375e+44 2.6173052e+43 -1.5484596e+44)
(-4.8639382e+44 1.4756519e+43 -1.448156e+44)
(-4.8738329e+44 1.9039268e+43 -1.4358182e+44)
(-3.569789e+44 2.4283105e+43 -1.552097e+44)
(-3.9927953e+44 2.094896e+43 6.1185921e+43)
(-4.0779646e+44 3.0805686e+43 6.3881755e+43)
(-2.7228691e+44 3.8411448e+43 -4.7441887e+43)
(-2.7849431e+44 3.5888169e+43 -4.7135997e+43)
(-2.7774229e+44 3.7697407e+43 -4.4526778e+43)
(-4.0263078e+44 2.2514917e+43 6.102912e+43)
(-2.7539174e+44 3.5790859e+43 -5.5246419e+43)
(-3.986249e+44 3.0971675e+43 5.6802319e+43)
(-4.7929592e+44 1.9943075e+43 -1.4178553e+44)
(-4.8030018e+44 1.4743685e+43 -1.4073172e+44)
(-3.4411459e+44 2.7382715e+43 -1.544397e+44)
(-3.5103816e+44 2.3277335e+43 -1.5066473e+44)
(-2.723361e+44 3.6655455e+43 -4.1863378e+43)
(-3.9686847e+44 1.8391741e+43 5.9681914e+43)
(-2.7941552e+44 3.7618768e+43 -4.3336531e+43)
(-4.0437066e+44 3.2567655e+43 6.1864984e+43)
(-2.7685535e+44 3.9418244e+43 -4.0774087e+43)
(-4.0070234e+44 2.5514513e+43 6.081485e+43)
(-8.9257178e+44 5.5639165e+43 1.0663937e+44)
(-1.073211e+45 3.2263616e+43 1.179886e+44)
(-7.4841016e+44 3.3418611e+43 8.7521648e+43)
(-9.4885836e+44 3.8379037e+43 1.0852664e+44)
(-7.5396003e+44 3.8581392e+43 9.0059079e+43)
(-9.4975686e+44 2.4792048e+43 1.0934654e+44)
(-7.5227222e+44 3.3646719e+43 8.6017275e+43)
(-9.4731932e+44 2.6695664e+43 1.1094072e+44)
(-7.5079728e+44 3.2942529e+43 9.1633893e+43)
(-9.4142499e+44 4.5405537e+43 1.1186831e+44)
(-7.4591433e+44 3.7520256e+43 8.9777918e+43)
(-7.4355428e+44 3.7970085e+43 8.8036367e+43)
(-9.4811595e+44 4.2320015e+43 1.1064344e+44)
(-9.4471478e+44 2.4660116e+43 1.0892114e+44)
(-7.454497e+44 3.5431862e+43 9.1307771e+43)
(-9.4629029e+44 4.5346725e+43 1.1161644e+44)
(-7.481667e+44 3.9069099e+43 8.6034576e+43)
(-9.5066806e+44 3.0671806e+43 1.0955671e+44)
(-6.4397161e+44 2.1460802e+43 8.751475e+43)
(-6.4535134e+44 2.2350554e+43 8.332594e+43)
(-8.0978667e+44 3.1657798e+43 1.025732e+44)
(-8.1294493e+44 2.1522742e+43 1.0137104e+44)
(-6.4414653e+44 2.1502711e+43 8.3370925e+43)
(-6.4600781e+44 2.4859062e+43 8.47283e+43)
(-8.11427e+44 2.647445e+43 9.7532656e+43)
(-8.1050185e+44 1.7799534e+43 9.8453411e+43)
(-8.0728352e+44 3.0433199e+43 9.9501481e+43)
(-6.4026385e+44 2.1874917e+43 8.6555461e+43)
(-6.4297008e+44 2.6241252e+43 8.2915043e+43)
(-8.101933e+44 2.2082982e+43 9.8407365e+43)
(-6.4249816e+44 2.6080125e+43 8.4385577e+43)
(-6.421253e+44 2.8650133e+43 8.4143223e+43)
(-8.0540698e+44 1.9944594e+43 9.7403814e+43)
(-8.0782922e+44 2.8518375e+43 9.7386742e+43)
(-6.4084778e+44 2.5500572e+43 8.8069513e+43)
(-6.4435088e+44 2.7311659e+43 8.4100584e+43)
(-8.0653241e+44 2.3476334e+43 9.9030725e+43)
(-8.0206689e+44 3.3828158e+43 9.9714451e+43)
(-6.4329766e+44 2.7879546e+43 8.4525483e+43)
(-6.4256118e+44 3.1317213e+43 8.3219258e+43)
(-8.0560396e+44 2.2778917e+43 9.5405033e+43)
(-8.0728606e+44 3.0102698e+43 9.5396215e+43)
(-6.4394023e+44 2.9111315e+43 8.8569041e+43)
(-6.4589787e+44 3.1992448e+43 8.3994203e+43)
(-8.0867449e+44 2.6969067e+43 9.895816e+43)
(-8.0583718e+44 3.5778642e+43 1.0000231e+44)
(-6.4509184e+44 3.1692378e+43 8.6577244e+43)
(-6.4555463e+44 3.2469628e+43 8.6077451e+43)
(-8.062473e+44 2.3071279e+43 9.9571753e+43)
(-8.0829561e+44 3.2523677e+43 9.9770043e+43)
(-5.5940377e+44 2.3379863e+43 8.1749601e+43)
(-5.5806912e+44 1.6732236e+43 8.4995402e+43)
(-7.0458227e+44 2.5072384e+43 8.6102493e+43)
(-7.0645185e+44 1.8740948e+43 8.7177747e+43)
(-5.5506004e+44 2.0315804e+43 8.278172e+43)
(-5.5568859e+44 2.5250115e+43 8.2856198e+43)
(-7.0207349e+44 1.5606148e+43 8.8024705e+43)
(-7.0486012e+44 2.2914068e+43 8.9009294e+43)
(-7.0427834e+44 2.7534694e+43 9.2395701e+43)
(-5.6107188e+44 1.863475e+43 8.8251141e+43)
(-5.5916932e+44 2.2525826e+43 8.2649463e+43)
(-7.0576559e+44 1.8963054e+43 9.1524997e+43)
(-5.5876844e+44 2.4334613e+43 8.3313826e+43)
(-5.5655236e+44 1.8154908e+43 8.2703734e+43)
(-7.0703471e+44 2.238823e+43 8.8702879e+43)
(-7.0603315e+44 1.6845909e+43 8.843575e+43)
(-5.5161961e+44 1.6324067e+43 8.458385e+43)
(-5.5314183e+44 2.2812093e+43 8.0989467e+43)
(-6.952403e+44 2.5164812e+43 8.6096268e+43)
(-6.9914345e+44 1.8261326e+43 8.8261518e+43)
(-6.987106e+44 2.2764958e+43 8.3781828e+43)
(-5.4919307e+44 1.8902241e+43 8.0063674e+43)
(-5.5168688e+44 2.6456294e+43 8.0981883e+43)
(-6.9900918e+44 1.8115613e+43 8.5385193e+43)
(-5.5369002e+44 2.5728664e+43 8.1250638e+43)
(-5.5286155e+44 1.8991879e+43 8.4506964e+43)
(-6.9914388e+44 2.6809029e+43 8.6317888e+43)
(-7.0110227e+44 2.0616411e+43 8.8386035e+43)
(-5.5085434e+44 2.4267308e+43 8.3168278e+43)
(-5.4916916e+44 2.1477357e+43 8.1556657e+43)
(-6.9719107e+44 2.384826e+43 8.7860755e+43)
(-6.9564424e+44 1.5469925e+43 8.7973292e+43)
(-1.1307828e+45 3.4484414e+43 -3.2273254e+43)
(-9.785108e+44 3.5102493e+43 -8.1468591e+41)
(-9.6488831e+44 3.7868406e+43 -1.551996e+41)
(-9.5293712e+44 3.841253e+43 -4.1028641e+42)
(-9.5187964e+44 3.8224393e+43 -5.7785126e+42)
(-1.1840208e+45 3.7989083e+43 3.9185229e+43)
(-1.0738902e+45 4.159688e+43 6.127742e+43)
(-1.081433e+45 2.6777399e+43 6.4946168e+43)
(-1.0387595e+45 2.8163538e+43 7.6773986e+41)
(-1.0356582e+45 3.2887818e+43 -6.1232433e+41)
(-1.0224528e+45 3.2628929e+43 -3.824676e+43)
(-1.0521947e+45 2.505695e+43 -1.688401e+43)
(-1.0202735e+45 2.3895901e+43 -4.425552e+43)
(-1.0461795e+45 3.7410243e+43 -1.3825094e+43)
(-1.0219599e+45 2.7593933e+43 -4.5955311e+43)
(-1.0534118e+45 2.5723282e+43 -1.9293052e+43)
(-1.018432e+45 2.4244568e+43 -4.6466608e+43)
(-1.0485959e+45 3.2667605e+43 -2.1415814e+43)
(-9.0765802e+44 4.7014926e+43 -4.9128589e+42)
(-9.0561031e+44 5.2004593e+43 -2.8407398e+42)
(-9.2145638e+44 5.8840485e+43 -1.9218078e+42)
(-9.2710477e+44 5.3342724e+43 -4.9134862e+42)
(-1.0380661e+45 3.7038674e+43 8.6676238e+42)
(-1.0708759e+45 2.399733e+43 6.2290529e+43)
(-1.0569807e+45 4.2525192e+43 6.209668e+43)
(-1.0375616e+45 2.4303665e+43 3.7154049e+42)
(-8.965787e+44 2.1097244e+43 -4.0223359e+43)
(-8.9321501e+44 2.2134869e+43 -3.8233855e+43)
(-9.019834e+44 2.4909615e+43 -3.0775792e+43)
(-9.0520507e+44 2.1331304e+43 -3.2627514e+43)
(-8.9109675e+44 1.7294188e+43 -4.3659541e+43)
(-8.9027116e+44 1.964909e+43 -4.2691987e+43)
(-8.9253643e+44 1.9063227e+43 -3.9304457e+43)
(-8.9267232e+44 1.963962e+43 -3.7413216e+43)
(-8.8930163e+44 2.1289247e+43 -2.4699955e+43)
(-8.7666947e+44 1.9034068e+43 -3.7299583e+43)
(-8.7668816e+44 2.0869173e+43 -3.6329356e+43)
(-8.8874096e+44 2.0149781e+43 -2.3455115e+43)
(-8.8514646e+44 2.0548908e+43 -3.2974862e+43)
(-8.8387948e+44 2.4062072e+43 -3.0506064e+43)
(-8.9194122e+44 2.5653335e+43 -1.9474034e+43)
(-8.964534e+44 1.992461e+43 -2.0375054e+43)
(-8.8325474e+44 2.6196873e+43 -1.2231462e+43)
(-8.8580679e+44 1.8979041e+43 -1.4263454e+43)
(-9.1372487e+44 1.8927814e+43 1.2321562e+43)
(-9.0912284e+44 3.0459158e+43 1.3761748e+43)
(-9.295828e+44 3.4870345e+43 7.2885955e+43)
(-9.0355887e+44 1.737283e+43 3.1766117e+43)
(-9.0235947e+44 3.0977517e+43 3.4962151e+43)
(-9.3650467e+44 1.8849689e+43 7.2463803e+43)
(-9.3886344e+44 3.1954578e+43 7.0819831e+43)
(-8.9709004e+44 1.9439075e+43 2.7635825e+43)
(-8.990128e+44 2.6502129e+43 2.6817904e+43)
(-9.3495024e+44 1.887746e+43 7.0869361e+43)
(-9.092434e+44 2.5204983e+43 7.3619562e+42)
(-8.7814174e+44 2.0276741e+43 -1.8046889e+43)
(-8.794745e+44 2.1568432e+43 -1.8780081e+43)
(-9.0853552e+44 1.9336641e+43 8.4209429e+42)
(-8.8003746e+44 2.2831025e+43 -3.5072803e+43)
(-8.7815229e+44 2.1020501e+43 -3.6937151e+43)
(-8.9441188e+44 2.4444716e+43 -2.1940604e+43)
(-8.9437059e+44 2.1939046e+43 -2.0689312e+43)
(-9.0045101e+44 2.1666121e+43 -3.4907416e+43)
(-8.9852736e+44 2.147523e+43 -3.6550675e+43)
(-8.8807862e+44 1.8536376e+43 -4.4525994e+43)
(-8.9274716e+44 2.1742455e+43 -4.2070579e+43)
(-8.9888392e+44 2.1524442e+43 -3.440678e+43)
(-8.9026474e+44 2.0427381e+43 -4.3464115e+43)
(-8.8858538e+44 1.807411e+43 -4.3047722e+43)
(-8.9961447e+44 2.0503237e+43 -3.5539793e+43)
(-8.9007076e+44 2.354134e+43 -2.2888053e+43)
(-8.7999357e+44 2.0950498e+43 -3.6412714e+43)
(-8.791859e+44 2.1241935e+43 -3.4791326e+43)
(-8.9168573e+44 2.0442066e+43 -2.3749533e+43)
(-8.9999771e+44 2.2085608e+43 3.0353414e+43)
(-9.0068769e+44 3.1252885e+43 2.9250606e+43)
(-9.3782255e+44 3.6311565e+43 7.2220971e+43)
(-9.3598658e+44 2.123076e+43 7.3258529e+43)
(-8.9877011e+44 2.0963281e+43 2.6732204e+43)
(-8.982328e+44 2.9928897e+43 2.8978988e+43)
(-9.3197943e+44 3.5815484e+43 7.0359684e+43)
(-9.3500189e+44 2.2391728e+43 6.8939782e+43)
(-9.0709911e+44 2.9063936e+43 9.0438515e+42)
(-8.7951703e+44 2.4205738e+43 -1.6986085e+43)
(-8.8158463e+44 2.0997322e+43 -1.8385174e+43)
(-9.0975334e+44 2.1278216e+43 7.902299e+42)
(-9.1202089e+44 2.9496709e+43 9.8246399e+42)
(-8.8247106e+44 2.4999717e+43 -1.7013309e+43)
(-8.8206812e+44 2.2341688e+43 -1.5746839e+43)
(-9.1251095e+44 2.1525304e+43 1.1096457e+43)
(-7.3181128e+44 1.8863394e+43 -2.3531997e+43)
(-7.4640802e+44 1.9977804e+43 -1.6504068e+43)
(-7.3115993e+44 1.6938288e+43 -2.4346183e+43)
(-7.467688e+44 1.6550944e+43 -1.6990382e+43)
(-7.4005578e+44 1.6115175e+43 -2.7030138e+43)
(-7.3422561e+44 1.5738899e+43 -2.8411785e+43)
(-7.4954351e+44 1.7302855e+43 -2.3496304e+43)
(-7.4412232e+44 1.6044596e+43 -2.452525e+43)
(-7.3807811e+44 1.80156e+43 -2.6756033e+43)
(-7.471227e+44 1.921291e+43 -2.295549e+43)
(-7.375135e+44 1.7078901e+43 -2.7317145e+43)
(-7.468243e+44 1.7274046e+43 -2.343621e+43)
(-7.3350554e+44 1.6794265e+43 -2.4397043e+43)
(-7.489099e+44 1.7789442e+43 -1.7716975e+43)
(-7.2781168e+44 1.5796251e+43 -2.5568308e+43)
(-7.4394811e+44 1.540065e+43 -1.8385789e+43)
(-7.4953856e+44 1.6113141e+43 -2.7960948e+43)
(-7.5690934e+44 1.702153e+43 -2.399986e+43)
(-7.4431473e+44 1.5728558e+43 -2.9568959e+43)
(-7.5136525e+44 1.574611e+43 -2.5195285e+43)
(-7.4835855e+44 1.8107936e+43 -2.774188e+43)
(-7.5442659e+44 1.8617319e+43 -2.4105007e+43)
(-7.4742665e+44 1.7311788e+43 -2.8363748e+43)
(-7.5415534e+44 1.7086085e+43 -2.4351744e+43)
(-7.7228895e+44 1.9036957e+43 -2.7084318e+43)
(-7.7168476e+44 1.7392758e+43 -2.7366611e+43)
(-7.803729e+44 1.8576833e+43 -3.5619069e+43)
(-7.79061e+44 1.6823348e+43 -3.6015916e+43)
(-7.7418859e+44 1.7383162e+43 -2.7116358e+43)
(-7.6899704e+44 1.5845892e+43 -2.846871e+43)
(-7.7619034e+44 1.5400973e+43 -3.7240228e+43)
(-7.8176132e+44 1.6755794e+43 -3.574224e+43)
(-7.188586e+44 1.5925414e+43 -2.8123827e+43)
(-7.2046693e+44 1.6692973e+43 -2.7935972e+43)
(-7.3510239e+44 1.725414e+43 -2.0517696e+43)
(-7.3715073e+44 1.599794e+43 -2.0189056e+43)
(-7.3026263e+44 1.653172e+43 -2.8160642e+43)
(-7.4029042e+44 1.7784106e+43 -2.455415e+43)
(-7.3825032e+44 1.7033025e+43 -2.4495687e+43)
(-7.2408954e+44 1.4883031e+43 -3.1738973e+43)
(-7.3403208e+44 1.6195749e+43 -2.7591927e+43)
(-7.2612674e+44 1.6948106e+43 -3.1333869e+43)
(-7.3586534e+44 1.6820575e+43 -2.721753e+43)
(-7.247201e+44 1.7464007e+43 -2.519819e+43)
(-7.2138316e+44 1.6863743e+43 -2.5434753e+43)
(-7.4089804e+44 1.827133e+43 -1.8395473e+43)
(-7.37625e+44 1.5958388e+43 -1.837073e+43)
(-7.3842992e+44 1.6364797e+43 -2.9271446e+43)
(-7.4677085e+44 1.726655e+43 -2.5294739e+43)
(-7.3219396e+44 1.4521389e+43 -3.3460476e+43)
(-7.3997244e+44 1.5331938e+43 -2.9116242e+43)
(-7.3438704e+44 1.7312211e+43 -3.3319866e+43)
(-7.4224328e+44 1.6732104e+43 -2.8563946e+43)
(-7.7877014e+44 2.2855042e+43 5.1284593e+43)
(-7.7546065e+44 1.4398309e+43 5.1282008e+43)
(-8.0920534e+44 2.5737546e+43 8.0254873e+43)
(-8.0683032e+44 1.5234775e+43 8.1010261e+43)
(-7.6716757e+44 1.555814e+43 1.2288413e+43)
(-7.6661376e+44 2.2862452e+43 1.3939191e+43)
(-7.939058e+44 2.6557601e+43 3.9219071e+43)
(-7.9533461e+44 1.6773355e+43 3.7535779e+43)
(-7.6881365e+44 1.9958824e+43 1.1098486e+43)
(-7.6424814e+44 1.4465747e+43 1.0773238e+43)
(-7.9612699e+44 2.2008503e+43 3.5384462e+43)
(-7.9359115e+44 1.4578323e+43 3.5577165e+43)
(-7.7728358e+44 1.4997354e+43 5.3466224e+43)
(-7.7788807e+44 2.6704204e+43 5.6270239e+43)
(-8.0394307e+44 3.0139448e+43 8.3670722e+43)
(-8.0688836e+44 1.7738536e+43 8.2308592e+43)
(-7.3807887e+44 1.7209541e+43 -2.0641245e+43)
(-7.5629302e+44 1.8338841e+43 -1.4156329e+43)
(-7.3279164e+44 1.5489076e+43 -2.1532598e+43)
(-7.5224715e+44 1.5525402e+43 -1.4652162e+43)
(-7.4608243e+44 1.6372413e+43 -1.2027086e+43)
(-7.4631633e+44 2.0771951e+43 -1.064829e+43)
(-7.7171597e+44 2.2739329e+43 5.9232716e+42)
(-7.7327687e+44 1.6465174e+43 5.0237867e+42)
(-7.3592244e+44 1.94643e+43 -1.928511e+43)
(-7.5412675e+44 2.1048249e+43 -1.2431546e+43)
(-7.3569291e+44 1.6473839e+43 -2.0135784e+43)
(-7.5463932e+44 1.6936862e+43 -1.3368551e+43)
(-7.480705e+44 1.8224008e+43 -1.264466e+43)
(-7.4344292e+44 1.5394385e+43 -1.3357507e+43)
(-7.7459109e+44 1.9665306e+43 3.8672989e+42)
(-7.7106276e+44 1.4741022e+43 3.7135635e+42)
(-7.5768989e+44 2.0022821e+43 9.4761472e+42)
(-7.5930197e+44 1.5298034e+43 8.7556383e+42)
(-7.8539399e+44 2.3627241e+43 3.4081742e+43)
(-7.8770343e+44 1.6360144e+43 3.3317484e+43)
(-7.6944936e+44 2.4157305e+43 5.0663125e+43)
(-7.6993859e+44 1.5450818e+43 4.8982748e+43)
(-7.9777217e+44 2.7613919e+43 7.839799e+43)
(-8.0075669e+44 1.7643824e+43 7.777431e+43)
(-7.7291974e+44 2.4508444e+43 5.1000494e+43)
(-7.6933777e+44 1.5399655e+43 5.1320087e+43)
(-8.0428772e+44 2.6863003e+43 8.061244e+43)
(-8.0097878e+44 1.5195503e+43 8.1462182e+43)
(-7.626645e+44 2.0827085e+43 1.0492214e+43)
(-7.5864108e+44 1.5615353e+43 1.0494588e+43)
(-7.9081689e+44 2.3176276e+43 3.4799617e+43)
(-7.8826459e+44 1.5558566e+43 3.5172788e+43)
(-7.4077395e+44 1.8825195e+43 -1.3339058e+43)
(-7.3702413e+44 1.648091e+43 -1.3649445e+43)
(-7.6860767e+44 2.0323489e+43 3.3282635e+42)
(-7.6555462e+44 1.5690481e+43 3.3967482e+42)
(-7.2481146e+44 1.6682767e+43 -2.3335351e+43)
(-7.4405837e+44 1.8216859e+43 -1.6363027e+43)
(-7.264217e+44 1.6065983e+43 -2.3235146e+43)
(-7.4593199e+44 1.6194332e+43 -1.6491792e+43)
(-7.3637115e+44 1.7876567e+43 -1.4720425e+43)
(-7.3739225e+44 1.5888839e+43 -1.5152724e+43)
(-7.6274919e+44 1.9693876e+43 1.746062e+42)
(-7.6532134e+44 1.5693793e+43 1.6378896e+42)
(-7.3037967e+44 1.7693608e+43 -2.1284573e+43)
(-7.4903654e+44 1.8766067e+43 -1.5034917e+43)
(-7.2640126e+44 1.6169441e+43 -2.1576502e+43)
(-7.4587384e+44 1.62613e+43 -1.5147216e+43)
(-7.684233e+44 2.6109832e+43 7.2947644e+43)
(-7.6479356e+44 1.7271165e+43 7.2934293e+43)