/*--------------------------------*- C++ -*----------------------------------*\
  =========                 |
  \\      /  F ield         | OpenFOAM: The Open Source CFD Toolbox
   \\    /   O peration     | Website:  https://openfoam.org
    \\  /    A nd           | Version:  7
     \\/     M anipulation  |
\*---------------------------------------------------------------------------*/
FoamFile
{
    version     2.0;
    format      ascii;
    class       surfaceScalarField;
    location    "9000";
    object      phi;
}
// * * * * * * * * * * * * * * * * * * * * * * * * * * * * * * * * * * * * * //

dimensions      [0 3 -1 0 0 0 0];

internalField   nonuniform List<scalar> 
100795
(
-4.1446091e+47
-2.8299289e+47
-5.561398e+46
-2.7528691e+47
-2.35699e+47
-7.4056702e+46
-6.3237227e+47
-4.2996811e+47
-1.7920308e+46
-3.6113559e+47
-3.4304765e+47
-8.7452137e+46
-2.1172146e+47
-1.2746742e+47
-1.0697529e+47
-5.0035864e+47
-3.6421995e+47
1.546263e+46
-2.340798e+47
-1.4621471e+47
-1.5714312e+47
-8.2548074e+47
-5.0258829e+47
2.5853337e+45
-4.5454332e+47
-5.8589297e+47
-3.9794223e+46
-2.8246771e+47
-1.3223735e+47
-1.2070486e+47
-1.9765301e+47
-3.5279986e+47
-7.7064486e+46
-3.5510512e+47
-2.1827152e+47
-5.4622802e+46
-1.8382722e+47
-1.2207684e+47
-1.5619568e+47
-6.0656058e+47
-5.3695605e+47
-1.3888035e+46
-3.1477677e+47
-2.8068384e+47
1.0165754e+46
-3.5151804e+47
-2.389381e+46
-1.6258563e+47
-9.1621494e+47
1.678078e+47
-3.2212763e+47
-3.3184256e+47
-6.3954958e+47
-1.9832627e+46
-2.4639617e+47
-3.5037312e+47
-1.0648367e+47
2.0816301e+48
-2.7122158e+47
2.8406762e+47
-1.8076234e+47
-4.3751859e+47
-1.4571607e+47
-1.2399114e+47
-3.8173097e+47
-1.9359811e+47
-1.1162811e+47
-3.6645325e+47
1.1472068e+47
-3.8396611e+47
-3.5651765e+47
-6.7239746e+46
-2.5453759e+47
-1.9304631e+47
-4.3892281e+46
-4.247402e+47
-1.1360662e+47
-1.305514e+47
-1.167068e+48
1.2007908e+47
-3.5664779e+47
-3.3524438e+47
-3.4371325e+47
5.2543094e+46
-9.9863254e+46
-7.1721769e+46
-8.8538836e+46
1.3030593e+48
-2.7812053e+47
3.1227997e+47
-5.2184016e+47
-5.313126e+46
-2.6202597e+47
2.019746e+47
6.4116447e+47
-1.2313229e+48
-6.3229463e+47
-4.9017135e+47
-2.7429687e+46
2.7918321e+48
1.8694488e+47
4.9407553e+47
2.0044528e+48
-2.1323781e+47
5.2826529e+47
-6.0781027e+47
-2.6924354e+47
-2.6155169e+47
-1.3040646e+47
-5.3510124e+47
-1.5054051e+47
-9.3890189e+46
-4.9162888e+47
-5.8655537e+46
-1.3011831e+47
-4.6112306e+47
-1.7154119e+47
-9.9563844e+46
-3.4299966e+47
-1.7407341e+47
-1.9745515e+47
-2.6793266e+47
2.9211191e+47
-1.1890028e+48
4.1128181e+46
-3.5696237e+47
-2.8820015e+47
-2.4609779e+47
-6.1232579e+46
-9.8526795e+46
-9.567598e+46
-6.3159102e+46
6.618531e+47
-5.9008979e+47
2.6206777e+47
-2.8781078e+47
-1.9378679e+47
-2.6388159e+47
-1.2683893e+47
6.9760553e+47
-6.891807e+47
-2.6557181e+47
-3.1273094e+47
-7.3170564e+46
1.6757321e+48
3.688604e+47
3.8058224e+47
1.4428267e+48
-7.9693434e+47
4.9317285e+47
-6.0851465e+47
4.7813084e+46
-2.6214138e+47
8.1590874e+47
8.8774108e+47
-1.2267222e+48
4.5129591e+48
-6.677044e+48
8.2343916e+47
1.7046641e+48
8.4647441e+47
3.0563734e+47
1.4674349e+48
-5.4456024e+47
3.8923114e+47
5.5055479e+47
-8.067638e+46
1.3678583e+47
-5.3228312e+47
-1.7227604e+47
-1.3218497e+47
-2.3388773e+48
1.9877746e+47
1.6160039e+47
-5.6535194e+47
-1.8212611e+47
-7.9756372e+46
-2.1379196e+47
-5.2873468e+47
-2.1089445e+47
-1.1481925e+47
-5.3975264e+47
-8.7163074e+46
-2.5854233e+47
-3.622813e+47
4.8239009e+46
-7.9891325e+46
-7.2633204e+47
-9.6301132e+47
-1.7235987e+47
-4.3178278e+47
-1.5205281e+46
-2.5352372e+47
-2.4035806e+47
-1.4589753e+47
-1.4839056e+47
-7.9985666e+46
2.7303556e+47
9.6865961e+46
-2.9247949e+47
-2.9717111e+47
-5.4643057e+47
4.1658916e+47
-3.7510807e+47
-9.6122857e+46
-2.6569132e+47
-6.0666511e+46
8.0202963e+47
-7.7775217e+46
2.9822891e+47
1.0618489e+48
-9.0394718e+47
4.1341158e+47
-8.1646107e+47
3.3235867e+46
-3.3180963e+47
1.3880316e+48
6.6918208e+47
-8.0760861e+47
2.6623465e+48
7.7489747e+47
4.8731627e+47
1.2584132e+48
4.82194e+47
2.5974652e+47
1.492473e+48
-8.4214072e+47
4.007514e+47
5.5696784e+47
4.4037368e+46
2.1122397e+47
2.5257771e+48
3.0644247e+47
-4.8255258e+46
1.3953403e+47
1.3297759e+48
-1.02318e+48
4.229616e+48
8.5171377e+48
8.5685065e+47
1.5360636e+47
4.7646482e+47
7.218512e+46
1.4724141e+48
-3.9968095e+47
1.5978208e+47
7.4044528e+47
-9.9107927e+45
1.3428171e+47
4.7794764e+47
1.0199361e+47
1.8209128e+46
-5.9191817e+47
-1.3956455e+47
-1.1071915e+47
-1.9406347e+48
2.2349759e+47
8.0061361e+45
-5.8933416e+47
-1.6669354e+47
-5.6337482e+46
-1.9972191e+48
6.0204443e+47
5.1567427e+47
-2.0341587e+48
-2.6404341e+46
5.3514628e+46
-3.6287911e+47
-1.8491578e+47
-1.3999304e+47
-3.9610697e+46
-8.7614986e+47
4.0397592e+47
-2.3706586e+47
-6.2179785e+47
-6.4150634e+46
-2.6162749e+47
-3.3563302e+47
-1.0571721e+47
-2.1951296e+47
-1.5827267e+47
1.2503906e+47
-2.2149224e+47
-4.7711146e+47
-7.7572925e+47
-5.6196375e+47
-5.6416654e+47
-6.4380545e+47
-2.9598607e+47
-2.9334628e+47
7.8036347e+46
-2.6536466e+47
-1.3046878e+47
-7.4916213e+46
-5.4497179e+46
6.4701382e+46
1.7315171e+47
-9.5663049e+47
2.6001224e+46
-4.4400602e+47
1.3807903e+48
7.4399115e+47
-6.1735602e+47
1.0123084e+48
1.2106114e+48
2.2024694e+47
7.7138186e+47
9.8056263e+46
2.5053151e+47
1.1339373e+48
-6.334251e+47
3.862439e+47
3.717152e+47
1.6658493e+47
2.3018421e+47
2.90951e+48
4.4022994e+47
-3.0854149e+47
-1.4441058e+47
1.2794892e+48
-6.5818835e+47
1.0959405e+48
2.7099244e+48
3.9105642e+47
8.7914067e+46
5.4152555e+47
1.2799512e+47
1.435554e+48
-7.5316027e+47
2.0762656e+47
7.9009779e+47
2.2788257e+47
1.6724691e+47
4.6223233e+47
1.8628653e+47
8.3929464e+46
1.0069786e+48
-4.3880757e+47
3.666103e+47
1.8858583e+48
3.6812808e+47
-5.8782803e+47
2.6801621e+48
4.0762446e+48
5.9463353e+47
-1.7583282e+47
8.9210017e+47
1.7464759e+47
5.3295047e+46
4.611609e+47
-1.5482948e+47
6.6993639e+47
-2.623612e+46
1.3435794e+47
5.4075556e+47
2.3565017e+47
-3.4373442e+46
-2.7933317e+47
3.0629855e+47
5.5814761e+46
3.5807011e+47
-1.0948167e+48
-8.5141501e+47
-1.4392647e+48
4.4409053e+47
-3.1364297e+47
-6.9000237e+47
-1.469754e+47
-1.0014825e+47
-1.4997318e+48
1.9144569e+47
6.6851223e+47
-2.0021421e+48
2.3385468e+46
-2.141057e+47
-3.835575e+47
-1.8412279e+47
-1.1318636e+47
-1.6306013e+48
1.58515e+47
3.0433082e+47
-4.3912062e+47
2.7425239e+46
3.6824661e+47
-1.4443076e+48
-3.4276486e+46
-1.6238926e+47
-1.8516048e+47
-1.4816147e+47
-2.003747e+47
1.1185955e+48
-4.4375828e+47
-3.9170198e+47
-1.8376617e+47
-6.7329453e+47
7.7252037e+46
-3.2673805e+47
-4.0548437e+47
3.6433524e+46
-2.5810509e+47
-1.5226662e+47
-1.1898241e+47
-3.2703647e+46
-3.3617356e+46
5.6465453e+46
1.2249749e+48
3.8125384e+46
-5.4052796e+47
5.0342975e+46
-3.4413173e+47
-1.1604179e+48
-1.0611392e+48
-4.5356914e+47
-9.5309815e+46
-2.8811515e+47
-8.5092029e+46
2.5191697e+46
-1.4674687e+47
-3.6416217e+46
1.7548582e+46
-6.967981e+46
4.3045336e+46
1.2858111e+47
3.1545373e+48
7.9204499e+47
-9.130146e+47
-5.3130457e+47
1.1072082e+48
-4.2033152e+47
3.1582707e+47
1.1888267e+48
1.8454954e+47
-1.2201474e+47
4.4551688e+47
1.1560499e+47
1.1677663e+48
-3.3998946e+47
2.2488519e+47
6.3538432e+47
5.0692743e+47
2.0060912e+47
4.4984706e+47
1.702654e+47
9.7600969e+46
6.7146417e+47
-8.1546668e+47
8.3805709e+47
3.2879409e+48
5.0580025e+47
-9.3694599e+47
1.7906255e+48
2.568959e+48
3.7232023e+47
-2.6398197e+47
8.3170036e+47
1.889986e+47
-1.8561974e+47
8.3555074e+47
-7.7177066e+46
6.9440665e+47
2.7985385e+47
1.3117718e+47
4.3950332e+47
4.9985944e+47
-4.5081394e+46
-5.1484678e+47
3.1690581e+47
9.3885888e+46
2.1608196e+48
-3.2705828e+47
-5.0023836e+46
2.3989746e+48
-8.1047787e+47
4.3419472e+47
2.7256085e+48
8.6335863e+47
3.336939e+47
-2.3157126e+47
1.1449006e+48
2.0895078e+47
2.5614734e+47
7.5382127e+47
-9.2380797e+46
-1.475484e+48
8.1248475e+47
-8.1433765e+46
1.0964397e+48
2.4215755e+47
-3.5132869e+46
6.1093165e+47
3.3356417e+47
-9.8475225e+45
7.9392403e+46
1.081644e+47
4.8395887e+46
2.7282044e+48
2.9401517e+48
-3.5950314e+48
7.3485182e+47
-5.5968016e+47
-6.8272344e+47
3.7395609e+47
-8.2947936e+47
-1.2696764e+48
-7.2084087e+47
-8.0881705e+45
8.4106134e+47
-2.0042837e+48
2.9486139e+47
-7.5334866e+47
-4.8385131e+47
-2.6283525e+47
-6.3767985e+46
-1.5041523e+48
1.8622194e+47
-9.7820252e+46
4.9549952e+47
2.5524771e+46
3.4375377e+47
-1.4907824e+48
-3.3812346e+46
-3.1797492e+47
-2.1858376e+47
-2.1140432e+47
-1.2648903e+47
-7.7724028e+47
5.5928528e+46
1.7472443e+47
-9.2553034e+47
9.622759e+46
-1.3296782e+47
-4.4849663e+47
6.7915307e+47
2.4614622e+47
-1.1607252e+48
-2.1111414e+46
-3.512928e+47
-1.6965847e+47
-7.2689001e+46
-1.750012e+47
1.0294146e+48
5.4304841e+46
1.3294683e+46
1.9735165e+47
-3.5281953e+47
-8.5921425e+47
-8.5856133e+47
-4.6167831e+47
-6.9155204e+46
-3.051331e+47
-1.6452556e+47
6.5690947e+46
-1.0453998e+47
-7.6432352e+46
-1.184529e+47
-7.5931766e+45
-8.1380844e+46
-2.6702669e+46
4.0765767e+47
-5.9607457e+47
-1.9968539e+46
-5.1336442e+46
-1.3816872e+47
-1.0188107e+48
8.152991e+46
-3.3656282e+47
-1.4764642e+48
-1.1991104e+48
-1.6427951e+47
1.0479951e+47
-1.692245e+47
1.2586718e+46
-5.2425801e+46
-1.2766046e+47
-6.8255144e+46
1.2654763e+47
-8.479784e+46
-6.3061063e+46
3.8425287e+46
9.1503002e+47
-9.6640398e+47
1.1748988e+48
4.1679188e+48
7.7926821e+47
-1.4650858e+48
7.9983998e+47
1.5510844e+48
2.0818601e+47
-3.8902184e+47
6.1481051e+47
1.4028104e+47
-4.8866379e+47
7.546343e+47
-5.8699999e+45
8.4563762e+47
5.0520925e+47
7.5372039e+46
2.7198405e+47
5.505825e+47
-1.2199008e+46
-5.5921917e+47
-3.0799494e+46
2.5500336e+46
1.3614852e+48
2.5258272e+47
2.3708144e+47
3.0520207e+48
-1.2020963e+47
5.8507202e+47
2.9003696e+48
9.6216575e+47
4.9503656e+47
-4.3798287e+47
1.1586508e+48
2.5175937e+47
-9.1486605e+46
1.4380205e+48
-6.5843274e+46
-1.8693755e+48
9.4192739e+47
-9.0575708e+46
1.3272313e+48
5.3057827e+47
-1.3033513e+47
4.2815623e+47
5.0470179e+47
-5.0092781e+46
1.0292111e+47
-5.3677508e+46
1.3015398e+46
-4.3019592e+48
1.4282624e+48
8.9901114e+47
-9.1099688e+46
4.8705169e+47
3.3105099e+47
5.0851869e+48
-3.5695362e+47
-2.1161039e+47
2.6496061e+47
7.1069438e+47
5.0934228e+47
4.2739964e+47
9.3203597e+47
-7.9349228e+46
-1.5999028e+48
1.3293726e+48
-1.162756e+47
-5.5209741e+47
6.8426002e+46
-2.3128677e+46
8.1782126e+47
3.0651774e+47
-4.4776845e+46
4.2065191e+47
7.3101713e+46
3.5278199e+46
3.6670273e+47
1.089865e+46
2.0993124e+46
2.3739281e+48
2.5943184e+48
-2.045836e+48
1.5676856e+48
-2.7197437e+48
2.4618555e+48
2.6243135e+48
4.1237511e+47
-1.7289543e+48
8.9386192e+47
1.766491e+47
1.9904912e+47
2.1655191e+47
-4.5308553e+47
-1.0783394e+48
-7.8022267e+47
-5.4507356e+47
-1.2868242e+48
-9.7152522e+47
5.6645984e+47
-8.1230357e+47
1.080416e+48
8.3515407e+47
2.6660844e+47
-1.8091679e+48
-4.298766e+46
-6.5483504e+47
-2.6161561e+47
-3.3896191e+47
1.3076358e+46
-4.8317258e+47
-1.4895585e+47
6.6619589e+46
-9.2251402e+47
1.1259714e+47
-2.4721664e+47
-2.6159941e+46
1.024304e+47
9.0893963e+46
-1.2484718e+48
-7.8028287e+46
-3.6364577e+47
-1.7102161e+47
-1.113669e+47
-1.1833774e+47
-5.8498096e+47
2.5367034e+47
-3.4797366e+47
-7.502466e+46
5.6054811e+47
-9.6007644e+45
-9.7279918e+47
1.3258286e+47
-4.7680495e+47
-2.2387142e+47
-5.1838291e+47
-1.3709953e+47
-1.0209024e+48
3.8265739e+46
-4.3705861e+47
-2.1025424e+47
-6.1883987e+46
-1.0023943e+47
7.5111269e+47
-7.3721639e+47
5.901473e+46
2.1557134e+46
-5.98812e+46
-3.5256137e+47
1.7854892e+47
-3.9625874e+47
-1.0217046e+48
-1.0996165e+48
-2.325695e+47
-1.0064826e+47
-1.350222e+47
-2.1739853e+46
-2.3274383e+46
-8.3591772e+46
-1.568204e+47
-8.7100283e+46
-4.6556545e+46
-1.0938691e+47
-7.1227266e+46
-5.937341e+47
-4.8828208e+46
-8.7919471e+47
9.4455221e+47
-1.0794545e+48
2.9449217e+46
-6.4835596e+47
-2.4248207e+47
-1.0624026e+48
-1.1539785e+48
-3.2290653e+47
-8.4896561e+47
-5.7159881e+47
1.658321e+47
-6.4758309e+46
-1.3440855e+47
-1.4300072e+47
3.8287882e+46
-8.9493958e+46
-1.357794e+47
1.4093027e+47
-8.9997162e+46
-9.0348008e+46
-8.4880763e+46
-2.4469812e+45
1.0345098e+48
1.4229519e+47
4.189196e+48
3.4451983e+47
1.9840981e+47
1.6270948e+48
1.0001414e+48
3.5911286e+47
-7.3085999e+47
9.3456725e+47
1.8129633e+47
-6.7532882e+47
1.5043257e+48
-2.5570132e+46
-1.9979136e+48
6.8019622e+47
-1.3971143e+47
1.3332838e+48
7.9458141e+47
-1.7468834e+47
7.1399021e+46
3.932401e+47
-7.9488439e+46
1.6050301e+47
-2.725882e+47
-2.3649078e+46
-5.6607202e+48
8.948685e+47
5.9627572e+47
-5.5470838e+47
9.6551517e+47
6.9732389e+47
6.9828386e+48
-1.8382301e+47
-5.9819089e+47
9.3208748e+46
1.048351e+48
7.7702889e+47
4.1598243e+47
1.7523751e+48
-5.1179632e+46
-1.9362531e+48
1.3605706e+48
-1.4813985e+47
-6.5722087e+47
2.028309e+47
-1.4543461e+47
7.0358357e+47
6.2988776e+47
-1.4128848e+47
5.3502479e+47
-1.9076104e+47
-2.7358427e+46
9.8294358e+46
-8.9164194e+45
1.0976142e+46
-1.4411025e+48
1.4082309e+48
3.8302911e+47
2.8244729e+48
9.7445885e+46
2.215999e+46
-1.9995531e+48
6.9688152e+47
9.8326466e+47
2.3636061e+48
2.5526451e+46
-1.2836181e+47
2.8298551e+47
5.8349843e+47
2.2406843e+47
-1.549918e+48
2.9705284e+48
-1.2018737e+47
-5.772411e+47
2.7527264e+47
-8.8767491e+46
-5.173643e+47
1.1979693e+47
-5.1739721e+46
9.8250519e+47
-1.1892896e+47
3.5587676e+45
3.7573082e+47
4.1663712e+47
6.5879132e+46
3.782065e+47
-1.3319027e+47
-6.4962707e+46
7.2319774e+48
-1.101849e+48
1.5134344e+48
3.6853143e+48
-6.2022101e+47
1.2542349e+47
2.634176e+48
-2.364795e+48
3.0666291e+47
9.3543234e+47
-1.743367e+48
-1.2828959e+48
6.0002059e+47
-8.5207954e+47
1.2450843e+47
2.0158379e+48
-1.6960534e+48
4.7218621e+47
1.2865383e+48
-1.3242436e+48
2.3457754e+47
6.0039973e+47
7.2598061e+46
-9.0549954e+47
3.6319417e+47
-6.494912e+47
-1.1585912e+48
-1.4515411e+48
-3.4506517e+47
-8.5148779e+47
1.4323063e+48
-6.9584233e+47
1.8199886e+47
-9.8400576e+47
3.5726265e+47
-1.1510391e+48
8.9806588e+47
7.0652708e+47
-3.0870609e+46
-1.6090997e+48
-1.5239134e+47
-4.807952e+47
-1.1980152e+47
-1.7394408e+47
7.4118531e+44
-1.3944785e+47
2.5854599e+47
-7.4041749e+47
1.1999632e+47
2.103653e+47
-2.3634733e+47
-9.0138556e+47
4.4101354e+46
-4.4071666e+47
2.5525012e+47
-7.4200076e+46
-2.426774e+47
-1.1006056e+48
2.2924852e+46
-4.1827646e+47
-2.4503056e+47
-7.3613758e+46
-9.3552563e+46
1.1401914e+47
8.2513977e+46
1.1793885e+47
-1.3590705e+48
3.1648013e+47
-3.862049e+47
8.7888627e+47
-4.653787e+47
-4.4525417e+47
-1.4024005e+48
1.9853205e+47
-5.6623736e+47
-4.1247984e+47
-2.2511399e+47
-4.9823242e+46
-8.3867135e+47
-4.1228447e+46
-3.2419406e+47
-1.8728166e+47
-3.1613045e+46
-1.0286245e+47
-2.8476526e+47
-7.6215075e+45
-1.0984844e+48
1.8910692e+48
-1.5159346e+48
-4.6924452e+46
-3.8511097e+47
-2.5976887e+47
-7.5230039e+47
-1.15439e+48
-3.3536921e+47
-9.1854048e+47
-5.525725e+47
5.7498286e+46
-1.9905958e+47
-8.5158347e+46
-1.9374993e+47
-3.5633071e+46
-8.1970855e+46
-1.5556094e+47
-4.8463632e+46
-4.8660459e+46
-1.3226347e+47
-1.4997466e+47
-1.2199353e+47
-1.3173465e+48
-8.0303751e+46
-8.7050002e+47
-2.0335682e+47
-8.7530556e+47
7.5629773e+47
-1.8107427e+48
-2.9511585e+47
-9.2960829e+47
-2.8518926e+47
-9.5354185e+47
-1.282973e+48
-9.9659836e+46
-2.5610774e+47
-2.8439276e+47
-9.3204378e+46
-8.4853337e+46
-1.2228993e+47
-1.7614141e+47
4.4070606e+46
-1.0326437e+47
-4.2970749e+46
-2.8191877e+46
-1.8597849e+47
-1.5774958e+47
-1.7775208e+47
-5.7326786e+48
8.9002935e+47
5.6097199e+47
-2.1712373e+48
1.5790534e+48
1.1799165e+48
8.0473064e+48
9.1797362e+47
-9.8945239e+47
-6.6663778e+47
1.3948511e+48
6.586523e+47
3.692556e+46
2.0490823e+48
1.5591567e+46
-2.0591347e+48
9.6723701e+47
-1.8973795e+47
-7.5417024e+47
3.1510915e+47
-2.27293e+47
1.7981845e+47
9.1301251e+47
-1.7070122e+47
5.5547685e+47
-2.7036772e+47
-1.0215545e+47
-2.2890412e+47
4.0752634e+45
-2.8138741e+46
-1.6817262e+48
1.2931544e+48
8.0791861e+47
3.4566696e+48
8.86859e+46
-3.084246e+47
-2.7576584e+48
1.2114326e+48
1.2923399e+48
2.4461271e+48
3.8432395e+47
-4.3515608e+47
1.4748851e+48
9.0960459e+47
4.2786788e+47
-2.1945172e+48
2.1635709e+48
-2.0958469e+47
-7.9795962e+47
4.8331439e+47
-2.0790558e+47
-7.1964264e+47
2.2167588e+47
-9.1233574e+46
1.0611316e+48
-3.4889043e+47
-6.1778225e+46
-4.4525278e+47
7.1736115e+47
6.7277626e+46
2.9729766e+47
-2.2918799e+47
-4.0243718e+46
1.2247649e+48
2.1561099e+47
8.3552775e+47
-2.8803236e+48
9.6541156e+47
4.7283271e+47
1.7382318e+48
-1.618485e+47
-5.0961565e+46
-4.5041258e+48
6.5471301e+47
7.2464231e+47
2.341381e+48
3.4218557e+45
1.6350357e+46
-1.9000686e+49
2.2143862e+48
-2.6470466e+47
-6.7702746e+47
5.6765891e+47
-1.1343316e+47
-6.0771131e+47
2.2224418e+47
-1.1069035e+47
4.7458942e+47
-3.2629757e+47
1.2109636e+46
1.0298967e+48
3.7034339e+47
1.0495291e+47
7.0565493e+47
-1.6339698e+47
3.191368e+46
2.7212489e+47
-1.9167964e+47
-1.4379331e+46
1.3172356e+49
-1.1719471e+48
3.492016e+47
6.1480784e+48
-1.9520779e+48
3.6475222e+48
-2.7028751e+48
-6.0068102e+47
1.7185112e+48
1.9457003e+48
1.0072245e+48
-5.0025034e+48
3.6896011e+48
-6.2839472e+47
-3.3197606e+48
3.7101675e+48
-5.9570739e+48
2.3981907e+48
1.4652788e+48
-4.1411884e+47
-3.8901878e+48
-2.9685115e+47
-1.7942868e+48
3.1933326e+47
-5.8831219e+47
-1.9456805e+47
-2.1532712e+48
2.9489229e+48
-3.0617977e+48
1.2049671e+48
6.042735e+47
-8.8440139e+46
-2.052247e+48
3.5890563e+48
-1.5219182e+48
9.5434589e+46
3.2895531e+47
-4.3687237e+47
-1.8321915e+48
-6.5087129e+47
-5.5345061e+47
-1.4537375e+48
-9.0047897e+47
-1.6709205e+47
-4.5631872e+47
9.6234712e+47
8.3593977e+47
-2.2763131e+48
-1.3460578e+46
1.2459574e+48
-2.2399096e+47
-1.4809572e+48
-1.1821487e+47
-6.0563689e+47
7.4654738e+47
-1.7825292e+46
-3.2453068e+47
-1.268928e+48
-5.3285319e+45
-4.8110648e+47
-2.20351e+47
-4.770993e+46
-6.1403135e+46
6.9546838e+47
-1.7962946e+47
6.703442e+46
-1.4710861e+48
2.2119487e+47
-8.0548306e+47
1.1545687e+48
9.5338287e+46
-6.8160067e+47
-1.3696438e+48
1.4519509e+47
-5.9575016e+47
3.825569e+46
-5.4622018e+46
-8.3299766e+46
-9.827097e+47
-6.3433331e+46
-2.8441685e+47
-2.0645783e+47
-4.6933007e+46
-1.0941903e+47
-1.0793474e+48
4.2781803e+47
7.6778543e+46
3.5691158e+47
-1.1383876e+47
-2.8342777e+47
-1.9172217e+48
3.7954403e+47
-4.4192657e+47
8.7580383e+47
-1.0722243e+48
-1.3047342e+47
-1.6720667e+48
9.3034863e+46
-4.2185592e+47
1.5858172e+47
-6.1360625e+47
-2.3717686e+47
-3.2682018e+47
-3.1269148e+47
1.08945e+47
-3.9786959e+47
-5.4201012e+46
-1.4818828e+48
-1.0947322e+47
-8.2187655e+47
-2.6108099e+47
-1.1457951e+48
9.5712251e+47
-2.0245479e+48
-2.8236777e+47
-9.2488058e+47
-3.2408902e+47
-7.6828795e+47
-1.5619888e+48
-1.3733814e+47
-4.4470579e+47
-2.3260211e+47
-1.5835718e+47
-2.8636445e+47
-1.1243679e+47
-1.8557398e+47
-1.5480629e+46
-7.870705e+46
-7.3661186e+46
-1.3162192e+47
-1.5873564e+47
-2.1068038e+47
-2.1879241e+47
-6.5489012e+47
-1.7847156e+47
-1.2301253e+48
7.0390933e+47
-1.896103e+48
-2.5183699e+47
-7.3008197e+47
-2.8904867e+47
-8.5970689e+47
3.2219867e+47
-1.221847e+48
-8.2752234e+47
-1.7668626e+47
-8.1811505e+47
-1.1252869e+48
4.9830734e+45
-2.9362525e+47
-4.0029218e+47
-1.0678341e+47
-2.3129207e+47
-1.7395654e+47
6.6692443e+46
-1.3423563e+47
-1.981266e+47
-5.646205e+46
-1.9935616e+47
-4.0380544e+47
-1.6465322e+47
-2.0551656e+47
-2.2325797e+48
1.694685e+48
1.325281e+48
4.5740318e+48
1.0075141e+48
-6.4592112e+47
-3.660336e+48
1.8338982e+48
1.6435546e+48
1.7787818e+48
1.0107655e+48
-4.1985922e+47
2.3145847e+48
1.5585431e+48
3.0949285e+47
-2.5650956e+48
1.5547165e+48
-2.0131277e+47
-8.5315172e+47
4.5514472e+47
-2.7458304e+47
-6.6248734e+47
2.1594748e+47
-4.5636887e+47
8.599873e+47
-1.4613832e+47
-9.3782035e+46
-9.2626527e+47
4.7611642e+47
-9.3230142e+46
8.4478391e+46
-4.5810579e+47
1.5866895e+47
1.762342e+48
2.4811589e+47
5.9619405e+47
-3.4834391e+48
1.2295003e+48
1.3929968e+48
2.1421583e+48
2.3633601e+47
-5.6435223e+47
-4.5485259e+48
1.5374275e+48
7.0890974e+47
1.5730695e+48
2.9741018e+46
-4.5452837e+46
-1.6871306e+49
1.1416062e+48
-6.7954922e+47
-9.1664461e+47
7.309539e+47
-2.1760715e+47
-8.0497978e+47
3.7846318e+47
-1.6742575e+47
6.8025855e+47
-2.3338796e+47
8.3332241e+46
1.1348169e+48
4.1099217e+47
1.3965594e+47
7.1663057e+47
-2.6354452e+47
9.0573359e+46
3.4124543e+47
-1.5502739e+47
-5.5414123e+46
1.8163377e+48
3.1798443e+47
2.3503269e+47
6.0616654e+47
1.7843249e+47
3.9375783e+47
-1.2817566e+49
2.1863842e+47
1.9073839e+48
2.9220411e+48
-2.7510379e+47
-2.8989762e+47
-8.8195476e+48
1.4433893e+48
4.3104022e+47
5.9775195e+48
1.2843977e+45
3.2708583e+47
-2.3152993e+48
1.0105107e+48
-4.2186106e+47
-4.4923009e+47
3.3667518e+47
-9.0605332e+46
4.7665143e+47
-8.2753503e+47
6.2508392e+46
2.0857961e+46
2.4024949e+47
-1.6808408e+47
1.1638532e+48
-2.2338531e+47
1.0463986e+47
4.7737828e+47
-2.5800284e+47
1.157479e+46
1.3346186e+47
-1.2397058e+47
6.5215612e+46
1.5275211e+48
1.9647103e+48
1.433217e+49
4.9492909e+48
2.4873845e+48
-2.4739959e+48
-2.3485704e+48
-7.4118863e+47
2.6818379e+48
7.4015974e+47
-3.0761462e+48
2.9092435e+48
5.3319522e+48
-1.643188e+48
3.9321322e+48
2.3805589e+47
1.3045407e+48
1.6535391e+48
3.8023526e+48
4.2733882e+47
-7.7142455e+48
3.9024363e+47
1.3810456e+47
-6.4560758e+48
-3.6410485e+47
-6.9107155e+47
-4.3338314e+48
3.0645744e+48
-3.5954547e+48
2.2176575e+48
2.7318554e+48
-4.1823818e+47
-5.1852929e+48
1.1418532e+48
-1.4769161e+48
-5.0204726e+48
-7.777537e+47
-1.0908492e+48
1.3424637e+48
-8.5224219e+47
-1.1198522e+48
-2.3506169e+48
4.6253803e+48
1.9903706e+48
4.9282802e+47
8.0809841e+47
-2.3365631e+48
-1.361274e+47
-1.4040267e+47
-5.3923012e+47
-2.6313886e+48
1.40874e+48
-2.7435008e+48
-1.7778906e+47
-5.4492839e+47
-6.1557697e+47
-2.150028e+48
-1.974607e+48
-3.3292461e+47
-8.7531301e+47
-3.0735647e+47
-2.4560259e+47
-3.5636224e+47
4.0239212e+47
1.7238785e+48
6.5106827e+47
-2.3585794e+48
3.173512e+47
-1.8243628e+48
1.0041983e+48
5.913331e+47
-6.8281165e+47
-1.6073666e+48
1.2622031e+47
-4.9945946e+47
7.6628913e+47
3.1667283e+47
-5.0925219e+47
-1.0819397e+48
-7.2526177e+46
-3.5708553e+47
-1.964606e+47
-4.8945581e+46
-1.3489289e+47
-1.0033186e+48
3.1618947e+47
-3.5066716e+47
4.6941481e+47
1.3648704e+47
-8.6721627e+46
-2.1867927e+48
2.8705179e+47
-6.7775513e+47
9.5415865e+47
-7.0630568e+46
-7.4400696e+47
-1.8472397e+48
5.4321013e+46
-5.3834709e+47
-2.5547014e+46
-8.2547138e+47
-2.3947795e+47
-3.2905012e+47
-1.3939025e+47
1.1590414e+47
-4.7733499e+47
-8.5809207e+47
2.3836596e+47
3.5361088e+47
-1.8330361e+48
5.4025318e+47
1.1963482e+47
5.3910144e+47
-9.7088595e+47
-8.0110473e+47
-2.041223e+48
3.228797e+47
-4.6910294e+47
3.9648818e+47
-7.7927278e+47
-5.1569057e+47
2.2485142e+47
2.7708393e+47
-1.4264195e+48
-1.261346e+47
-6.97806e+47
-8.2271723e+45
-3.1876661e+47
-6.9408604e+47
-4.9300789e+46
-5.0981137e+47
-8.0023638e+47
-2.0873189e+47
-1.3889299e+48
8.3722273e+47
-1.7583787e+48
-5.0901665e+47
-9.2814842e+47
-3.9291566e+47
-8.789269e+47
3.1627524e+47
-1.1295999e+48
-9.4719517e+47
-1.6720313e+47
-6.1870261e+47
-1.0512964e+48
-2.705825e+46
-6.5012923e+47
-2.5915285e+47
-2.1771043e+47
-3.9539373e+47
-1.1467524e+47
3.298343e+46
-1.8140742e+47
-1.6507562e+47
-1.2795154e+47
-2.4742016e+47
-4.1789487e+47
-2.3402301e+47
-2.4239423e+47
1.4321362e+47
-1.7379308e+48
-4.5095115e+47
-6.4646119e+47
-2.6506872e+47
-1.0581764e+48
2.1039145e+48
-9.1420342e+47
-1.5096568e+48
-7.288953e+47
-5.3157349e+47
-2.0325796e+47
-8.3476588e+47
2.0672958e+47
-9.1239075e+47
-3.8839453e+46
-6.4429377e+47
-7.7182516e+47
9.289025e+45
-3.5768115e+47
-1.5503125e+47
-3.4776638e+47
-4.6709718e+47
3.4250116e+47
-6.7452288e+47
-4.3064331e+47
-1.1097667e+47
-2.4114966e+47
-3.3402724e+47
-1.8717672e+47
-1.7145994e+47
2.886268e+48
7.444009e+47
8.3389646e+47
-4.4319324e+48
1.8926706e+48
2.2150144e+48
2.5414912e+48
9.2895256e+47
-9.6343447e+47
-4.4584757e+48
2.4790698e+48
6.3297449e+47
9.4668844e+47
1.0137877e+47
-4.0987859e+46
-1.5353007e+49
1.0061791e+48
-6.6027214e+47
-9.5324608e+47
5.6908252e+47
-2.7864961e+47
-5.6116977e+47
3.5995437e+47
-6.6240417e+47
1.9420334e+47
-2.5363188e+47
9.4976959e+46
1.1253828e+48
2.0805872e+47
1.8370213e+47
2.4441809e+47
-5.7036932e+47
4.9115882e+47
6.2741987e+47
-2.6989073e+47
2.9581972e+46
2.8659893e+48
1.6167747e+47
2.6633163e+47
9.3499474e+47
4.9737944e+47
6.3366758e+45
-1.159191e+49
4.0068867e+47
1.3040825e+48
3.2240812e+48
-1.6201027e+47
-6.7462281e+47
-8.5802727e+48
1.3879752e+48
2.232651e+47
5.7719461e+48
1.0691393e+47
4.6419025e+47
-2.4093938e+48
8.3718962e+47
-6.9168763e+47
-5.9495448e+47
5.4307437e+47
-2.3649446e+47
4.033304e+47
-4.7563797e+47
1.4812504e+47
-7.6295695e+46
7.0491199e+47
-4.6788454e+46
1.1763774e+48
-3.6753182e+47
2.3109268e+47
6.0225921e+47
-2.3407609e+47
4.4623786e+46
3.7336459e+47
-2.6414843e+47
2.8552796e+46
1.3505263e+48
7.222069e+46
1.9046944e+46
-4.9824609e+48
4.6218638e+47
4.7180573e+47
1.4074746e+48
-7.1013119e+46
-1.6212305e+47
-9.5200085e+48
1.1117206e+48
1.4168698e+48
4.7916738e+48
-2.8200028e+47
-5.8990989e+47
-6.936154e+48
2.060003e+48
-2.8817575e+47
2.1154201e+48
1.1012654e+47
1.7027902e+47
-1.6373092e+47
-2.6241335e+47
-3.1363564e+47
-9.7521221e+46
2.5343358e+47
-2.1169421e+47
-2.5301808e+46
-3.0501539e+48
1.0368169e+46
-3.393171e+47
1.8077009e+48
-5.9286948e+47
-1.1967487e+47
3.8834408e+47
-2.7165991e+47
5.1761939e+46
6.3992343e+47
-6.6767095e+46
-8.0415271e+46
-1.3865118e+47
4.8741959e+48
2.1436628e+48
5.3888104e+47
2.8281926e+48
-3.3606564e+48
3.0971114e+48
1.5933887e+48
6.9190226e+48
5.6883382e+48
-1.3924163e+48
2.7822519e+48
8.8704476e+47
2.3643279e+48
-3.9810039e+48
8.2378938e+48
-8.7173801e+47
-6.43856e+47
1.3120656e+48
1.2817924e+48
-3.9570126e+48
3.0809732e+48
-2.0992682e+48
2.8258669e+48
4.9372356e+48
8.4367273e+47
2.3420797e+48
-4.8634738e+48
2.4037395e+48
2.7459464e+48
3.2578545e+48
-2.8368196e+48
-8.5727788e+47
2.6334177e+48
-1.7965736e+48
-7.2711062e+48
-1.017842e+48
-4.0218706e+47
-6.5048596e+48
-1.1070227e+48
-1.313266e+48
-4.373151e+48
5.4960157e+48
-4.0598253e+48
9.483792e+47
3.157875e+48
-4.5538567e+47
-3.2226693e+47
1.2003003e+48
-1.8146912e+48
-6.1882163e+48
-8.3711139e+46
-1.2122513e+48
-5.360275e+48
-7.1610739e+47
-3.7341735e+47
-6.6247648e+47
-7.4831581e+47
-1.713248e+48
-1.2783785e+48
2.2301019e+48
-1.4460691e+49
-1.2208537e+48
-6.9090097e+47
-2.54344e+47
-2.7307905e+48
9.8031685e+47
-2.1731256e+48
-8.4960759e+47
-4.3172598e+47
-8.5707113e+47
-2.8863144e+48
-1.3599884e+48
5.4522688e+47
-1.2686977e+48
-4.0656476e+47
-1.7548662e+48
-1.2634647e+48
-1.229071e+47
-7.8587726e+47
-2.8362685e+47
-5.2374675e+47
-4.6187569e+45
4.5380131e+46
7.786782e+47
2.1386723e+47
1.6887769e+48
2.8066002e+46
-5.0409734e+45
-3.2990221e+48
3.1336151e+47
-8.992744e+47
8.5318019e+47
1.7560922e+47
-4.4076837e+47
-1.8024252e+48
7.4803341e+46
-6.9162209e+47
4.5015384e+47
1.4041982e+47
-4.117028e+47
-2.3380937e+47
6.4174687e+46
1.5536263e+47
-6.0849832e+47
-7.4433016e+47
-5.0155668e+46
3.8913283e+47
-2.2414094e+48
4.4967871e+47
-1.0493983e+47
8.5669977e+47
3.1110519e+47
-7.8612565e+47
-2.3127905e+48
3.0967169e+47
-6.6155526e+47
4.7570614e+47
-7.4247457e+47
-1.0965795e+48
-1.6009118e+47
3.0191021e+47
-1.1657707e+48
-1.5671792e+47
-9.4425001e+47
-1.1360644e+47
-2.3000684e+47
-6.7850952e+47
-1.8528513e+45
-6.5614604e+47
-1.3820902e+48
5.3595181e+47
3.325028e+47
-1.5102676e+48
-1.2542128e+47
-3.1019989e+47
-1.8049008e+48
4.3575892e+47
9.546596e+46
-1.0114018e+48
-6.6938922e+47
-9.4900392e+47
-1.1690744e+48
-1.2346418e+47
-6.3326608e+47
-2.2309158e+47
1.1028663e+47
6.5752357e+47
-1.0449578e+48
-1.0211925e+47
-8.2084762e+47
-9.204232e+47
-1.5099498e+47
-7.4521368e+47
3.8082262e+47
-1.6557069e+48
-5.4896732e+47
-9.7241925e+47
-3.4386756e+47
-1.1120605e+48
1.8015178e+48
-6.0683909e+47
-1.6217734e+48
-9.9619389e+47
-8.6905752e+47
-2.5873572e+47
-4.498432e+47
3.1747478e+47
-8.9452445e+47
-5.1882542e+46
-6.1169881e+47
-7.2228425e+47
-1.1110778e+47
-8.0635969e+47
-2.5232948e+46
-4.9220744e+47
-3.7333574e+47
4.470416e+47
-8.5016677e+47
-4.3771092e+47
-1.867161e+47
-2.8767153e+47
-3.5530169e+47
-2.4312021e+47
-1.9368435e+47
-4.1461935e+47
-4.773604e+47
-1.3596415e+48
-9.8785638e+47
-1.3548093e+48
-3.3427641e+47
-4.35377e+47
-2.6391492e+47
-9.0958914e+47
-6.0943214e+47
-5.6455092e+47
-4.5987837e+47
-5.5406736e+47
-9.2112198e+46
-7.1626018e+47
-8.3426621e+47
-6.3327938e+46
-6.3541247e+47
9.4802935e+46
-8.144739e+47
-3.6411073e+46
-8.0298304e+47
-4.1668762e+47
-1.3446308e+48
1.2774459e+47
-8.8473836e+47
-3.4048359e+47
-2.0318385e+47
-2.0080987e+47
-2.0087064e+47
-2.3926886e+47
-1.4698039e+47
4.0402464e+48
5.1226993e+47
9.5057225e+47
1.9771427e+48
1.0224797e+48
-3.0173874e+47
-9.5571861e+48
1.4332786e+48
1.2260907e+48
3.183123e+48
1.7688574e+47
-9.979728e+47
-8.484096e+48
1.3536538e+48
1.893253e+47
1.4431676e+47
3.1611181e+47
5.478582e+48
6.3091287e+47
-8.2936375e+47
-2.3021306e+48
-4.8386479e+47
6.7192672e+47
-7.0171261e+47
-7.9234901e+47
1.8504966e+45
2.7778583e+47
-3.9145481e+47
1.0131637e+48
7.6644325e+46
6.4598172e+47
-6.0228377e+47
7.4598354e+47
9.1630307e+47
-3.9827183e+47
3.0532735e+47
1.2641674e+48
-1.0034353e+48
1.4100184e+46
2.2672531e+48
2.2757638e+47
-4.8519971e+47
-6.5906325e+48
1.1874572e+48
1.087769e+48
1.8899369e+48
-7.2864529e+46
-5.652465e+47
-9.3059937e+48
1.5317642e+48
9.4628518e+47
4.8232134e+48
-1.585606e+47
-4.4068461e+47
-6.8742669e+48
1.5882572e+48
-5.8968076e+47
1.785967e+48
4.260976e+47
2.6561833e+47
-2.4395347e+47
-1.4258588e+48
8.0980506e+47
-3.5850788e+47
1.4100595e+48
-3.4646033e+47
4.285404e+46
-2.8122936e+48
1.7656467e+47
-3.3461055e+47
2.6501423e+48
-1.0031929e+48
1.5770312e+47
7.1515341e+47
-5.233667e+47
-2.2986868e+46
7.8260135e+47
-1.9004131e+47
-1.1142793e+46
2.4142912e+47
5.0743558e+47
-9.7231537e+46
1.6279765e+48
-1.5631469e+47
-3.6727325e+47
-1.1003697e+49
2.1173869e+48
1.6063849e+48
1.6893272e+48
-1.165851e+47
-6.8588085e+47
-1.1343971e+49
1.409071e+48
-5.1072326e+47
9.0848222e+47
3.5707067e+47
-4.8831895e+47
-3.4289308e+48
7.1137876e+45
-6.2179028e+48
1.3199341e+48
-1.4741347e+47
2.3268198e+48
-9.9076141e+47
3.3027649e+47
-8.4312878e+46
-5.2861184e+47
-2.9268888e+48
-2.5838832e+47
2.3104942e+46
-2.0048778e+49
2.4400555e+47
-4.0787718e+47
-3.9300887e+48
-5.6401634e+47
-2.5897978e+46
1.3767861e+47
1.9721157e+47
-7.0955204e+46
1.0230525e+48
-5.1944202e+47
-5.8860787e+47
2.4991884e+48
-1.8503359e+48
1.7883448e+48
1.4013712e+48
4.8121598e+48
1.803167e+48
2.5807705e+47
6.34571e+48
1.7671215e+48
1.4265069e+48
1.642275e+48
1.063079e+49
1.5971451e+48
2.68343e+47
-4.6505876e+48
2.8620759e+48
2.0956783e+47