/*--------------------------------*- C++ -*----------------------------------*\
  =========                 |
  \\      /  F ield         | OpenFOAM: The Open Source CFD Toolbox
   \\    /   O peration     | Website:  https://openfoam.org
    \\  /    A nd           | Version:  7
     \\/     M anipulation  |
\*---------------------------------------------------------------------------*/
FoamFile
{
    version     2.0;
    format      ascii;
    class       volScalarField;
    location    "9000";
    object      pMean;
}
// * * * * * * * * * * * * * * * * * * * * * * * * * * * * * * * * * * * * * //

dimensions      [0 2 -2 0 0 0 0];

internalField   nonuniform List<scalar> 
34124
(
-1.0442601e+103
-1.1461725e+103
-9.8360114e+102
-1.1511102e+103
-1.1190814e+103
-1.1211217e+103
-1.1973264e+103
-1.0954412e+103
-1.0548671e+103
-1.0651707e+103
-1.1554754e+103
-1.1406114e+103
-1.1515377e+103
-1.1954959e+103
-1.1718791e+103
-1.1616374e+103
-1.5080453e+103
-1.1297481e+103
-1.0883935e+103
-1.0515333e+103
-1.1587403e+103
-1.1580676e+103
-1.2008238e+103
-1.1609921e+103
-1.1553161e+103
-1.1551901e+103
-1.4315525e+103
-1.2090334e+103
-1.1985198e+103
-1.2465553e+103
-1.3793558e+103
-8.563427e+102
-1.1638364e+103
-9.5484279e+102
-1.0267996e+103
-1.1711695e+103
-1.1634901e+103
-1.2014395e+103
-1.1613485e+103
-1.1944155e+103
-1.2075348e+103
-1.1696789e+103
-1.1814911e+103
-1.1625586e+103
-1.1732899e+103
-1.3708851e+103
-1.1243634e+103
-1.2572596e+103
-1.1873951e+103
-1.1859432e+103
-1.278333e+103
-1.0981647e+103
-1.0266166e+103
-1.0546804e+103
-1.1928582e+103
-1.0977506e+103
-1.1735465e+103
-1.1699105e+103
-1.2072044e+103
-1.1718924e+103
-1.2006054e+103
-1.209673e+103
-1.1625483e+103
-1.1983819e+103
-1.204913e+103
-1.2041853e+103
-1.2436998e+103
-1.1630401e+103
-1.1932576e+103
-1.1936051e+103
-1.1809359e+103
-1.3394888e+103
-1.3217663e+103
-1.1140893e+103
-1.3282991e+103
-1.2591821e+103
-1.267818e+103
-1.1415272e+103
-1.1760761e+103
-9.4455701e+102
-1.1392096e+103
-1.213657e+103
-1.2020637e+103
-1.2639964e+103
-1.182783e+103
-1.1787358e+103
-1.2044852e+103
-1.201027e+103
-1.202817e+103
-1.2070493e+103
-1.1854135e+103
-1.2034383e+103
-1.2075793e+103
-1.2065544e+103
-1.1633046e+103
-1.1945335e+103
-1.2064218e+103
-1.2085606e+103
-1.2282059e+103
-1.2801468e+103
-1.2246515e+103
-1.1156558e+103
-1.2666385e+103
-1.2193868e+103
-1.2600707e+103
-1.3542452e+103
-1.2847117e+103
-1.1365961e+103
-1.176885e+103
-1.3324754e+103
-1.3663743e+103
-1.3404211e+103
-1.1794478e+103
-1.4523469e+103
-1.1596583e+103
-1.172846e+103
-1.1746077e+103
-1.4037309e+103
-1.3156821e+103
-1.2880349e+103
-1.2067948e+103
-1.1897393e+103
-1.2070386e+103
-1.2052114e+103
-1.1993856e+103
-1.2013284e+103
-1.2144927e+103
-1.2412255e+103
-1.1845608e+103
-1.2039418e+103
-1.1755331e+103
-1.1945408e+103
-1.2053808e+103
-1.2057852e+103
-1.2283477e+103
-1.1781919e+103
-1.1695153e+103
-1.1947439e+103
-1.2031446e+103
-1.2344723e+103
-1.2663663e+103
-1.3295726e+103
-1.2616806e+103
-1.1501934e+103
-1.1605674e+103
-1.2816356e+103
-1.3103364e+103
-1.2812858e+103
-1.380424e+103
-1.4266251e+103
-1.2342152e+103
-1.1935984e+103
-1.2967219e+103
-1.5218538e+103
-1.3841614e+103
-1.3705282e+103
-1.2479678e+103
-1.4753375e+103
-1.315499e+103
-1.2115575e+103
-1.3912261e+103
-1.2426139e+103
-1.2252804e+103
-1.382279e+103
-1.3614497e+103
-1.2223685e+103
-1.1919643e+103
-1.192988e+103
-1.2109522e+103
-1.1977963e+103
-1.1981512e+103
-1.2161686e+103
-1.2510121e+103
-1.1805248e+103
-1.202419e+103
-1.2725143e+103
-1.2034621e+103
-1.1974767e+103
-1.1891478e+103
-1.228357e+103
-1.1937207e+103
-1.1801853e+103
-1.1920031e+103
-1.2015836e+103
-1.2316647e+103
-1.2644608e+103
-1.2000012e+103
-1.1784493e+103
-1.20472e+103
-1.1811911e+103
-1.2325794e+103
-1.2707056e+103
-1.3545966e+103
-1.336553e+103
-1.3137892e+103
-1.2012314e+103
-1.1876578e+103
-1.2133195e+103
-1.3893501e+103
-1.315263e+103
-1.3402569e+103
-1.3774215e+103
-1.6094808e+103
-1.461743e+103
-1.2730489e+103
-1.4164606e+103
-1.3674768e+103
-1.4616754e+103
-1.4067242e+103
-1.4869339e+103
-1.2678268e+103
-1.2954406e+103
-1.4168622e+103
-1.2188177e+103
-1.5406268e+103
-1.2652027e+103
-1.2970607e+103
-1.4207323e+103
-1.5042086e+103
-1.6384926e+103
-1.2247025e+103
-1.1925603e+103
-1.2002293e+103
-1.1994412e+103
-1.2034968e+103
-1.182424e+103
-1.2192217e+103
-1.2592889e+103
-1.1781993e+103
-1.1983319e+103
-1.2719019e+103
-1.2063168e+103
-1.2140092e+103
-1.1890204e+103
-1.2308079e+103
-1.257439e+103
-1.2261192e+103
-1.2252315e+103
-1.2786355e+103
-1.2184779e+103
-1.2630265e+103
-1.219975e+103
-1.1876223e+103
-1.2179213e+103
-1.1829793e+103
-1.231023e+103
-1.2692777e+103
-1.3525844e+103
-1.2016371e+103
-1.1983763e+103
-1.1987569e+103
-1.2304023e+103
-1.2193619e+103
-1.2744749e+103
-1.3525425e+103
-1.4008443e+103
-1.3891423e+103
-1.4955065e+103
-1.3148687e+103
-1.2529271e+103
-1.2694953e+103
-1.3308951e+103
-1.4038007e+103
-1.3561314e+103
-1.449052e+103
-1.4519103e+103
-1.3565154e+103
-1.6281928e+103
-1.3738157e+103
-1.4925212e+103
-1.3408879e+103
-1.3823413e+103
-1.4547205e+103
-1.5627067e+103
-1.6195104e+103
-1.3268425e+103
-1.5171141e+103
-1.1685904e+103
-1.4683393e+103
-1.3451591e+103
-1.2931719e+103
-1.4661698e+103
-9.6377752e+102
-1.5503492e+103
-1.6147459e+103
-1.3781189e+103
-1.2923189e+103
-1.2362264e+103
-1.2461217e+103
-1.2256121e+103
-1.162704e+103
-1.2037532e+103
-1.2473291e+103
-1.1974896e+103
-1.2366223e+103
-1.1774001e+103
-1.2608249e+103
-1.2141178e+103
-1.2476318e+103
-1.18574e+103
-1.228531e+103
-1.2538957e+103
-1.2257178e+103
-1.2267334e+103
-1.2972447e+103
-1.2187771e+103
-1.2677485e+103
-1.2578415e+103
-1.2426465e+103
-1.2603377e+103
-1.2587535e+103
-1.3329081e+103
-1.2648119e+103
-1.3438715e+103
-1.2093173e+103
-1.2287659e+103
-1.1992444e+103
-1.234924e+103
-1.2188673e+103
-1.2740366e+103
-1.3517981e+103
-1.4063789e+103
-1.193163e+103
-1.2136227e+103
-1.3146437e+103
-1.2028248e+103
-1.2796366e+103
-1.2832334e+103
-1.3466814e+103
-1.4013028e+103
-1.3859737e+103
-1.4050977e+103
-1.2937628e+103
-1.410157e+103
-1.3444333e+103
-1.3070047e+103
-1.3544722e+103
-1.3644433e+103
-1.3862041e+103
-1.4518054e+103
-1.4735302e+103
-1.3685819e+103
-1.5246281e+103
-1.297656e+103
-1.582102e+103
-1.4130842e+103
-1.3898849e+103
-1.4657491e+103
-1.213569e+103
-1.6054066e+103
-1.5628619e+103
-1.4868304e+103
-1.5974426e+103
-1.3440483e+103
-1.6834132e+103
-1.4141764e+103
-1.2359456e+103
-1.4251684e+103
-1.3318764e+103
-1.128668e+103
-7.8069571e+102
-1.5523692e+103
-1.3799998e+103
-1.5318079e+103
-1.2706023e+103
-1.1780929e+103
-1.2936098e+103
-1.2243609e+103
-1.2417015e+103
-1.2213658e+103
-1.2072944e+103
-1.2216387e+103
-1.1662059e+103
-1.284994e+103
-1.2258772e+103
-1.2433774e+103
-1.2032407e+103
-1.2434663e+103
-1.2166507e+103
-1.2449505e+103
-1.2379067e+103
-1.2317148e+103
-1.3212787e+103
-1.2197529e+103
-1.2732281e+103
-1.2600834e+103
-1.2393342e+103
-1.2695863e+103
-1.2616859e+103
-1.3258228e+103
-1.2704211e+103
-1.3436781e+103
-1.2558632e+103
-1.2858997e+103
-1.2691812e+103
-1.2437809e+103
-1.3097006e+103
-1.3161961e+103
-1.3336492e+103
-1.4148295e+103
-1.2062834e+103
-1.215106e+103
-1.3212864e+103
-1.2029088e+103
-1.281633e+103
-1.2840888e+103
-1.346171e+103
-1.4062988e+103
-1.3922881e+103
-1.199867e+103
-1.2420323e+103
-1.2251596e+103
-1.392088e+103
-1.2443686e+103
-1.3052518e+103
-1.3393349e+103
-1.4039e+103
-1.3891546e+103
-1.3438532e+103
-1.3423613e+103
-1.3141717e+103
-1.3036841e+103
-1.496183e+103
-1.3541203e+103
-1.3996018e+103
-1.4324389e+103
-1.2430309e+103
-1.3926964e+103
-1.4418122e+103
-1.4851829e+103
-1.6950682e+103
-1.3991237e+103
-1.7296068e+103
-1.5516854e+103
-1.5181979e+103
-1.7416189e+103
-1.3567343e+103
-1.2220404e+103
-9.6835667e+102
-1.5913589e+103
-1.5199326e+103
-1.8085227e+103
-1.8389337e+103
-1.9135416e+103
-1.9791496e+103
-1.7196855e+103
-1.2935735e+103
-1.2826788e+103
-1.401088e+103
-1.140183e+103
-9.4348711e+102
-1.1878388e+103
-1.4487407e+103
-1.5214037e+103
-1.5175501e+103
-1.2478464e+103
-1.2181394e+103
-1.2487699e+103
-1.2898911e+103
-1.1575224e+103
-1.2780916e+103
-1.2109916e+103
-1.2274367e+103
-1.2426918e+103
-1.2894011e+103
-1.2393102e+103
-1.1939674e+103
-1.2160635e+103
-1.2381481e+103
-1.2604456e+103
-1.2111714e+103
-1.2201887e+103
-1.3381901e+103
-1.2072577e+103
-1.2775679e+103
-1.2907745e+103
-1.2674936e+103
-1.2330963e+103
-1.2872213e+103
-1.2649582e+103
-1.312007e+103
-1.2809019e+103
-1.3395713e+103
-1.2570808e+103
-1.2879355e+103
-1.2690305e+103
-1.2516626e+103
-1.3115154e+103
-1.3471257e+103
-1.3389721e+103
-1.410169e+103
-1.2780354e+103
-1.296646e+103
-1.2857017e+103
-1.3299941e+103
-1.2832892e+103
-1.4059673e+103
-1.3065463e+103
-1.3855721e+103
-1.4043111e+103
-1.2003273e+103
-1.2429506e+103
-1.2271226e+103
-1.4164897e+103
-1.2480107e+103
-1.30402e+103
-1.3388914e+103
-1.4052202e+103
-1.3959379e+103
-1.3440901e+103
-1.2395309e+103
-1.2180919e+103
-1.2751238e+103
-1.2535809e+103
-1.3226237e+103
-1.3037628e+103
-1.3310636e+103
-1.397007e+103
-1.3960302e+103
-1.3461102e+103
-1.3022448e+103
-1.5373265e+103
-1.3337334e+103
-1.5425248e+103
-1.474577e+103
-1.5298004e+103
-1.6612136e+103
-1.4130113e+103
-1.2706994e+103
-1.0301041e+103
-1.4326906e+103
-1.4949934e+103
-1.5572183e+103
-2.1638435e+103
-2.2784047e+103
-2.1561132e+103
-1.7753859e+103
-1.3859079e+103
-1.4463872e+103
-1.5896658e+103
-1.2416461e+103
-1.0624049e+103
-1.2321527e+103
-1.5540823e+103
-1.6709026e+103
-1.667474e+103
-2.4177924e+103
-1.7792797e+103
-1.7821135e+103
-1.4049754e+103
-1.5698823e+103
-1.4643725e+103
-1.5182317e+103
-1.27813e+103
-9.201559e+102
-1.2995228e+103
-1.5522724e+103
-1.7239902e+103
-1.5651125e+103
-1.0524939e+103
-1.2548785e+103
-1.2253665e+103
-1.2113144e+103
-1.1997663e+103
-1.2667936e+103
-1.2553673e+103
-1.3968354e+103
-1.2914342e+103
-1.283379e+103
-1.2884833e+103
-1.2482956e+103
-1.2206709e+103
-1.2185875e+103
-1.2622561e+103
-1.2719677e+103
-1.1896943e+103
-1.2034152e+103
-1.1910474e+103
-1.2356857e+103
-1.3202652e+103
-1.4199234e+103
-1.2024956e+103
-1.2563506e+103
-1.2273823e+103
-1.5256442e+103
-1.2507801e+103
-1.2941535e+103
-1.3462874e+103
-1.2606563e+103
-1.2897386e+103
-1.2657137e+103
-1.2731668e+103
-1.3079901e+103
-1.3412574e+103
-1.3422949e+103
-1.3981779e+103
-1.2758818e+103
-1.2999239e+103
-1.2899489e+103
-1.3293714e+103
-1.2921892e+103
-1.400559e+103
-1.3225793e+103
-1.3786949e+103
-1.4080445e+103
-1.2932993e+103
-1.3060594e+103
-1.3699454e+103
-1.3271768e+103
-1.4238045e+103
-1.3624446e+103
-1.4418527e+103
-1.3419988e+103
-1.2470173e+103
-1.2227406e+103
-1.2771325e+103
-1.2562584e+103
-1.3555696e+103
-1.2997202e+103
-1.3296996e+103
-1.3913273e+103
-1.4030146e+103
-1.3469096e+103
-1.3011451e+103
-1.24053e+103
-1.2527268e+103
-1.2446526e+103
-1.1755424e+103
-1.3027991e+103
-1.343952e+103
-1.4077755e+103
-1.4149337e+103
-1.3465674e+103
-1.3020381e+103
-1.2817315e+103
-1.7216507e+103
-1.8817759e+103
-1.6309729e+103
-1.6636742e+103
-1.4111353e+103
-1.3522002e+103
-1.8162803e+103
-1.2830979e+103
-1.0632569e+103
-1.2843954e+103
-1.4819368e+103
-1.5495893e+103
-1.5322255e+103
-2.4940418e+103
-1.9324206e+103
-1.9475327e+103
-1.5274798e+103
-1.8471066e+103
-1.5464466e+103
-1.7302245e+103
-1.3616803e+103
-9.8996396e+102
-1.3466367e+103
-1.8529556e+103
-1.7263231e+103
-1.7079704e+103
-1.2076804e+103
-2.0567924e+103
-1.9334223e+103
-1.5664217e+103
-2.0349178e+103
-1.4309089e+103
-1.6183217e+103
-1.1079817e+103
-1.5319406e+103
-8.8246408e+102
-1.4125733e+103
-1.5715365e+103
-2.5516859e+103
-1.8952516e+103
-1.101883e+103
-2.2678405e+103
-1.2948752e+103
-1.2629987e+103
-1.2517257e+103
-1.2526485e+103
-1.2135376e+103
-1.2354071e+103
-1.2735063e+103
-1.242234e+103
-1.3101579e+103
-1.2628792e+103
-1.4613354e+103
-1.5068334e+103
-1.3889948e+103
-1.3289485e+103
-1.2810615e+103
-1.2463601e+103
-1.1734143e+103
-1.2424169e+103
-1.22406e+103
-1.2883127e+103
-1.3445407e+103
-1.1975145e+103
-1.2802434e+103
-1.2314149e+103
-1.2329577e+103
-1.2598503e+103
-1.3788019e+103
-1.5722085e+103
-1.2654739e+103
-1.230236e+103
-1.2734196e+103
-1.2557264e+103
-1.4144083e+103
-1.6835939e+103
-1.29317e+103
-1.3328656e+103
-1.3730108e+103
-1.3622318e+103
-1.278707e+103
-1.3047369e+103
-1.3130756e+103
-1.3242832e+103
-1.3076544e+103
-1.388622e+103
-1.3482109e+103
-1.3642015e+103
-1.3727794e+103
-1.3569408e+103
-1.4099722e+103
-1.2939787e+103
-1.3066418e+103
-1.3720683e+103
-1.3489636e+103
-1.4190667e+103
-1.3625105e+103
-1.441369e+103
-1.3464072e+103
-1.3124159e+103
-1.3512875e+103
-1.3337838e+103
-1.3944221e+103
-1.3370023e+103
-1.4684314e+103
-1.3576225e+103
-1.363625e+103
-1.2989095e+103
-1.2468516e+103
-1.2615447e+103
-1.2497829e+103
-1.205998e+103
-1.3017564e+103
-1.3422534e+103
-1.4090986e+103
-1.4154841e+103
-1.3484684e+103
-1.300974e+103
-1.2810952e+103
-1.2748672e+103
-1.2526084e+103
-1.3144383e+103
-1.3067107e+103
-1.3517135e+103
-1.3514005e+103
-1.4081677e+103
-1.3645338e+103
-1.300428e+103
-1.2813643e+103
-1.2708388e+103
-1.7180822e+103
-1.6879362e+103
-1.7389365e+103
-1.4535896e+103
-1.7660439e+103
-1.5457426e+103
-1.4646699e+103
-1.2907246e+103
-1.3923846e+103
-2.1162742e+103
-1.1180161e+103
-1.3144239e+103
-1.5832966e+103
-1.5396883e+103
-1.5346865e+103
-1.2213955e+103
-2.0106173e+103
-1.9512218e+103
-1.7406091e+103
-2.0799288e+103
-1.7617992e+103
-1.6239822e+103
-1.4206685e+103
-1.5907061e+103
-1.0504926e+103
-1.576798e+103
-1.6495883e+103
-2.776006e+103
-1.9101702e+103
-1.2287884e+103
-2.5021895e+103
-2.3493083e+103
-1.506552e+103
-2.0354587e+103
-1.5485761e+103
-2.2657736e+103
-1.1536057e+103
-1.3911069e+103
-1.010414e+103
-1.3457746e+103
-2.3472521e+103
-2.8473761e+103
-1.2550457e+103
-1.6072446e+103
-1.6133051e+103
-1.3010771e+103
-1.3520692e+103
-1.2936138e+103
-1.3126181e+103
-1.2820143e+103
-1.2448709e+103
-1.2879494e+103
-1.2568229e+103
-1.2531525e+103
-1.3130056e+103
-1.347621e+103
-1.2840483e+103
-1.2996194e+103
-1.3480026e+103
-1.1963395e+103
-1.4596182e+103
-1.5387864e+103
-1.4963843e+103
-1.5232367e+103
-1.3242401e+103
-1.3993562e+103
-1.3338983e+103
-1.2842023e+103
-1.2642862e+103
-1.240226e+103
-1.2685854e+103
-1.3511789e+103
-1.380048e+103
-1.4576551e+103
-1.2624037e+103
-1.2742065e+103
-1.2580693e+103
-1.2753983e+103
-1.2866206e+103
-1.3631987e+103
-1.3974333e+103
-1.3943812e+103
-1.6029053e+103
-1.5345929e+103
-1.2588028e+103
-1.276706e+103
-1.2599284e+103
-1.2376458e+103
-1.3014632e+103
-1.5053882e+103
-1.3482517e+103
-1.4081506e+103
-1.3992989e+103
-1.375564e+103
-1.2965755e+103
-1.3160207e+103
-1.3739003e+103
-1.3654764e+103
-1.4143348e+103
-1.396857e+103
-1.4339597e+103
-1.3937704e+103
-1.3900514e+103
-1.3557577e+103
-1.3175046e+103
-1.3503352e+103
-1.3375492e+103
-1.3919552e+103
-1.338771e+103
-1.4679441e+103
-1.3554279e+103
-1.3695651e+103
-1.2991777e+103
-1.3780001e+103
-1.342103e+103
-1.3571505e+103
-1.3840218e+103
-1.4381158e+103
-1.3807276e+103
-1.2279169e+103
-1.2902013e+103
-1.3524279e+103
-1.2804885e+103
-1.2817952e+103
-1.2614564e+103
-1.3241454e+103
-1.3093135e+103
-1.3500555e+103
-1.3499024e+103
-1.4097348e+103
-1.3667291e+103
-1.2996325e+103
-1.2806265e+103
-1.2706437e+103
-1.2933816e+103
-1.3272576e+103
-1.3122719e+103
-1.3608896e+103
-1.4865448e+103
-1.3037059e+103
-1.3950652e+103
-1.3745663e+103
-1.2948864e+103
-1.2808695e+103
-1.2704148e+103
-1.2660152e+103
-1.5932522e+103
-1.7373684e+103
-1.6670856e+103
-1.8828335e+103
-1.6817075e+103
-1.3457593e+103
-1.566579e+103
-1.4698139e+103
-1.4242593e+103
-1.2712116e+103
-1.4523796e+103
-1.2788154e+103
-1.5375895e+103
-2.3060885e+103
-1.5698229e+103
-1.2363415e+103
-1.7345649e+103
-2.308975e+103
-1.5971389e+103
-2.1398281e+103
-1.7173773e+103
-2.1343247e+103
-1.6429464e+103
-1.9372685e+103
-1.8160806e+103
-1.6078206e+103
-2.4624947e+103
-2.6531899e+103
-1.4524523e+103
-1.6739219e+103
-1.7332327e+103
-1.5213293e+103
-1.8152363e+103
-1.8127451e+103
-1.7324627e+103
-2.0732133e+103
-1.2634081e+103
-2.429482e+103
-1.3017894e+103
-1.0897043e+103
-1.7598316e+103
-3.0281935e+103
-2.1849665e+103
-1.4957261e+103
-1.6428456e+103
-1.4879367e+103
-1.3075797e+103
-1.3467503e+103
-1.3106895e+103
-1.412025e+103
-1.2732751e+103
-1.3609675e+103
-1.3083193e+103
-1.2742905e+103
-1.3181636e+103
-1.3299113e+103
-1.2987026e+103
-1.2649615e+103
-1.4262865e+103
-1.4400721e+103
-1.3288447e+103
-1.3486674e+103
-1.5543664e+103
-1.3227041e+103
-1.3190456e+103
-1.4783269e+103
-1.5378851e+103
-1.3022084e+103
-1.4785552e+103
-1.5362438e+103
-1.3224934e+103
-1.3172967e+103
-1.3135852e+103
-1.3295781e+103
-1.5143379e+103
-1.3303794e+103
-1.3834393e+103
-1.4241219e+103
-1.361267e+103
-1.3829057e+103
-1.2814727e+103
-1.2990051e+103
-1.3219713e+103
-1.3935957e+103
-1.4369864e+103
-1.2974337e+103
-1.2801549e+103
-1.3493297e+103
-1.3187973e+103
-1.3395459e+103
-1.3533615e+103
-1.408557e+103
-1.3731512e+103
-1.3202538e+103
-1.348386e+103
-1.3431326e+103
-1.3951805e+103
-1.3550934e+103
-1.4592847e+103
-1.3315466e+103
-1.3860173e+103
-1.2998566e+103
-1.3807989e+103
-1.3458458e+103
-1.3520874e+103
-1.3792232e+103
-1.4368604e+103
-1.3825233e+103
-1.2336107e+103
-1.2918141e+103
-1.356035e+103
-1.2798995e+103
-1.3852864e+103
-1.3689603e+103
-1.3638858e+103
-1.3990612e+103
-1.4069807e+103
-1.2770434e+103
-1.4454151e+103
-1.2785841e+103
-1.2766304e+103
-1.362673e+103
-1.2690717e+103
-1.3004936e+103
-1.3284602e+103
-1.320323e+103
-1.3606136e+103
-1.4795751e+103
-1.3054926e+103
-1.3957688e+103
-1.3767844e+103
-1.2951614e+103
-1.2800501e+103
-1.270146e+103
-1.2658301e+103
-1.3179849e+103
-1.3221293e+103
-1.3570264e+103
-1.404882e+103
-1.601516e+103
-1.3722777e+103
-1.3236708e+103
-1.3612447e+103
-1.3077551e+103
-1.2815207e+103
-1.269456e+103
-1.2659358e+103
-1.2512016e+103
-1.7731421e+103
-1.5498523e+103
-1.9968165e+103
-1.7483956e+103
-1.5245529e+103
-1.7026676e+103
-1.7279763e+103
-1.8630395e+103
-1.4556045e+103
-2.0919194e+103
-1.8898533e+103
-1.3196077e+103
-1.6419896e+103
-1.5922119e+103
-1.644696e+103
-1.9687438e+103
-1.8401131e+103
-2.0016406e+103
-2.4163668e+103
-1.2379373e+103
-3.0194218e+103
-1.4925958e+103
-1.4854726e+103
-1.9569869e+103
-2.7479331e+103
-2.1247185e+103
-1.7431965e+103
-1.6814206e+103
-1.7978757e+103
-3.5467051e+103
-1.8159643e+103
-1.8611812e+103
-2.0729933e+103
-1.106504e+103
-1.2446738e+103
-1.5349827e+103
-2.2988167e+103
-1.5095092e+103
-2.8064906e+103
-3.091373e+103
-2.1453158e+103
-1.8920331e+103
-1.8419534e+103
-1.3248625e+103
-9.1268484e+102
-1.3486173e+103
-1.3368237e+103
-1.3047136e+103
-1.382323e+103
-1.2968176e+103
-1.3324503e+103
-1.4096399e+103
-1.3097628e+103
-1.3760388e+103
-1.3528861e+103
-1.35945e+103
-1.3133704e+103
-1.1873852e+103
-1.3800612e+103
-1.5032719e+103
-1.3692293e+103
-1.3788574e+103
-1.3285993e+103
-1.3241606e+103
-1.410383e+103
-1.2773886e+103
-1.4283254e+103
-1.652249e+103
-1.3612825e+103
-1.3071339e+103
-1.414098e+103
-1.6250606e+103
-1.3202533e+103
-1.3847322e+103
-1.3690345e+103
-1.3355212e+103
-1.3425298e+103
-1.3261544e+103
-1.3279616e+103
-1.3190639e+103
-1.2970578e+103
-1.426689e+103
-1.4619862e+103
-1.3750999e+103
-1.3579608e+103
-1.3672117e+103
-1.3865064e+103
-1.3194601e+103
-1.3451852e+103
-1.3922507e+103
-1.3801164e+103
-1.3152915e+103
-1.3339528e+103
-1.3365698e+103
-1.3672409e+103
-1.4535178e+103
-1.3327096e+103
-1.3991379e+103
-1.3772283e+103
-1.3029263e+103
-1.3832928e+103
-1.3522837e+103
-1.3533554e+103
-1.351382e+103
-1.4314665e+103
-1.3891973e+103
-1.2428285e+103
-1.2978654e+103
-1.3613663e+103
-1.279286e+103
-1.3880365e+103
-1.3663684e+103
-1.3652675e+103
-1.3980817e+103
-1.4107156e+103
-1.2804356e+103
-1.4418691e+103
-1.2781896e+103
-1.2766089e+103
-1.3638191e+103
-1.2686111e+103
-1.3567127e+103
-1.3824646e+103
-1.4048392e+103
-1.3717637e+103
-1.3728513e+103
-1.3400409e+103
-1.2889255e+103
-1.574402e+103
-1.2677564e+103
-1.2709729e+103
-1.2533341e+103
-1.4184279e+103
-1.2623849e+103
-1.3205392e+103
-1.3279512e+103
-1.3597228e+103
-1.406748e+103
-1.5762483e+103
-1.3722265e+103
-1.3277016e+103
-1.3601472e+103
-1.3068972e+103
-1.2809436e+103
-1.2690996e+103
-1.2657928e+103
-1.2515351e+103
-1.3277993e+103
-1.3653256e+103
-1.3995735e+103
-1.6131693e+103
-1.4233326e+103
-1.3145558e+103
-1.3586007e+103
-1.3433877e+103
-1.3911837e+103
-1.3059515e+103
-1.2863658e+103
-1.2679431e+103
-1.2651137e+103
-1.2519877e+103
-1.2349052e+103
-1.5807213e+103
-1.8938561e+103
-1.6497603e+103
-1.7540667e+103
-1.6782713e+103
-1.11246e+103
-1.9475164e+103
-1.2883592e+103
-1.4927874e+103
-1.7992772e+103
-1.85862e+103
-1.6964489e+103
-1.6212219e+103
-1.5604013e+103
-1.5794324e+103
-6.0340989e+103
-2.0056161e+103
-2.0822376e+103
-2.0482904e+103
-1.5395123e+103
-1.3943135e+103
-1.9566077e+103
-2.2636197e+103
-2.038156e+103
-3.1053605e+103
-2.8199039e+103
-2.160635e+103
-2.2741575e+103
-1.9652934e+103
-1.6617794e+103
-1.1867299e+103
-2.2540634e+103
-1.404978e+103
-1.5721852e+103
-1.4353554e+103
-1.9914193e+103
-1.7564423e+103
-1.2977546e+103
-1.7549291e+103
-1.7830186e+103
-7.55924e+102
-1.5157615e+103
-2.0569446e+103
-1.9378787e+103
-2.0662415e+103
-2.9356383e+103
-1.7432428e+103
-9.6354889e+102
-1.6462803e+103
-1.3914463e+103
-1.3032047e+103
-1.3243842e+103
-1.2221047e+103
-1.3572461e+103
-1.427456e+103
-1.5142801e+103
-1.3578541e+103
-1.3938494e+103
-1.3795676e+103
-1.3174856e+103
-1.3434494e+103
-1.3683576e+103
-1.3547975e+103
-1.3152766e+103
-1.3925272e+103
-1.557736e+103
-1.4460137e+103
-1.3843679e+103
-1.5560897e+103
-1.3419227e+103
-1.4007274e+103
-1.3853724e+103
-1.3470738e+103
-1.3666111e+103
-1.3387111e+103
-1.3853133e+103
-1.374056e+103
-1.3550065e+103
-1.3293566e+103
-1.5172177e+103
-1.4437644e+103
-1.4677603e+103
-1.3932128e+103
-1.3243973e+103
-1.2877431e+103
-1.316271e+103
-1.2833569e+103
-1.4133036e+103
-1.3367082e+103
-1.3647633e+103
-1.5113897e+103
-1.3836988e+103
-1.3449513e+103
-1.3490788e+103
-1.3065056e+103
-1.2817247e+103
-1.391597e+103
-1.3697823e+103
-1.423146e+103
-1.2717159e+103
-1.3776038e+103
-1.2787471e+103
-1.2782765e+103
-1.355721e+103
-1.2681451e+103
-1.3533095e+103
-1.3827083e+103
-1.4043148e+103
-1.3687499e+103
-1.3723814e+103
-1.343466e+103
-1.2910587e+103
-1.5622658e+103
-1.2674951e+103
-1.2704979e+103
-1.2532635e+103
-1.4147653e+103
-1.2624322e+103
-1.2939181e+103
-1.368278e+103
-1.3021336e+103
-1.3142606e+103
-1.5427394e+103
-1.2635748e+103
-1.259757e+103
-1.2481448e+103
-1.250903e+103
-1.331517e+103
-1.3691817e+103
-1.3992614e+103
-1.6000415e+103
-1.4243333e+103
-1.316358e+103
-1.3624392e+103
-1.3429047e+103
-1.3888397e+103
-1.3050281e+103
-1.2854574e+103
-1.2677848e+103
-1.2648954e+103
-1.2523711e+103
-1.2355089e+103
-1.6733765e+103
-1.441278e+103
-1.367203e+103
-1.312284e+103
-1.322647e+103
-1.2880353e+103
-1.2680426e+103
-1.2634722e+103
-1.2533151e+103
-1.2350318e+103
-1.2263585e+103
-4.4751996e+103
-1.6279779e+103
-1.4136312e+103
-1.3113303e+103
-1.847842e+103
-1.3895644e+103
-1.6815718e+103
-1.8631451e+103
-1.824283e+103
-1.6936997e+103
-1.6940724e+103
-1.5827007e+103
-1.5420523e+103
-1.4943178e+103
-3.4090395e+103
-1.5401884e+103
-1.6863894e+103
-1.552346e+103
-2.0091496e+103
-1.6219688e+103
-1.4791406e+103
-2.4089565e+103
-1.9440598e+103
-9.3438205e+102
-1.7950975e+103
-1.9707288e+103
-2.0413494e+103
-2.2087327e+103
-2.9755919e+103
-1.8165754e+103
-1.2410507e+103
-1.8749673e+103
-1.7835361e+103
-1.2312655e+103
-1.2483529e+103
-1.2871656e+103
-1.1399922e+103
-1.2104557e+103
-1.4949234e+103
-1.964018e+103
-2.3830156e+103
-3.2341064e+103
-1.4160774e+103
-1.5797907e+103
-1.7780217e+103
-1.114627e+103
-1.4100061e+103
-1.3854488e+103
-1.2899895e+103
-1.3205633e+103
-1.2980968e+103
-1.4266919e+103
-1.3187973e+103
-1.3730629e+103
-1.4202688e+103
-1.7222173e+103
-1.3529145e+103
-1.3710383e+103
-1.4022332e+103
-1.3843343e+103
-1.3999271e+103
-1.3174838e+103
-1.2539999e+103
-1.3648025e+103
-1.3920048e+103
-1.2918646e+103
-1.5179593e+103
-3.0467635e+103
-1.3817546e+103
-1.5141027e+103
-1.2764445e+103
-1.3969592e+103
-1.3785754e+103
-1.4350003e+103
-1.3379911e+103
-1.3494817e+103
-1.3341457e+103
-1.3149503e+103
-1.3321318e+103
-1.3718518e+103
-1.3721421e+103
-1.3855038e+103
-1.3938202e+103
-1.5006431e+103
-1.6721392e+103
-1.2939946e+103
-1.2700967e+103
-1.2853719e+103
-1.268306e+103
-1.5793496e+103
-1.4456024e+103
-1.3326766e+103
-1.3469107e+103
-1.3059285e+103
-1.2849877e+103
-1.2685795e+103
-1.3579457e+103
-1.3557075e+103
-1.2912956e+103
-1.4689557e+103
-1.268232e+103
-1.2711903e+103
-1.254926e+103
-1.262056e+103
-1.2920564e+103
-1.3681007e+103
-1.3033053e+103
-1.3102517e+103
-1.5423803e+103
-1.2633673e+103
-1.2595116e+103
-1.2474955e+103
-1.251351e+103
-1.2520519e+103
-1.3244391e+103
-1.34353e+103
-1.2740291e+103
-1.3068463e+103
-1.2484764e+103
-1.2473206e+103
-1.2376284e+103
-1.6720656e+103
-1.4438164e+103
-1.3689849e+103
-1.3131098e+103
-1.3224195e+103
-1.2877767e+103
-1.2676286e+103
-1.2632698e+103
-1.253696e+103
-1.2355886e+103
-1.2266157e+103
-1.5282283e+103
-1.3794155e+103
-1.3379764e+103
-1.3185147e+103
-1.3039141e+103
-1.2720618e+103
-1.2605477e+103
-1.260269e+103
-1.2330691e+103
-1.2265735e+103
-1.2172892e+103
-1.3825803e+103
-1.4668121e+103
-1.2147085e+103
-2.3247749e+103
-1.119522e+103
-1.6855658e+103
-1.3390287e+103
-1.6591896e+103
-1.644765e+103
-1.9541019e+103
-1.4778202e+103
-1.4680044e+103
-1.7944808e+103
-2.2074029e+103
-1.4177305e+103
-1.8910398e+103
-1.6177139e+103
-1.5356544e+103
-1.5369541e+103
-1.5318175e+103
-2.0401919e+103
-2.2091599e+103
-3.1266635e+103
-1.7578905e+103
-1.6183535e+103
-1.8841746e+103
-1.5445959e+103
-1.551666e+103
-1.510287e+103
-1.8820476e+103
-1.7364575e+103
-2.1879661e+103
-1.6918401e+103
-1.0866636e+103
-2.7579037e+103
-1.7244632e+103
-3.341248e+103
-1.7218887e+103
-1.2982396e+103
-2.5159712e+103
-1.3459458e+103
-1.3875253e+103
-1.3402341e+103
-1.3352899e+103
-1.3983345e+103
-1.3746416e+103
-1.3737232e+103
-1.2227646e+103
-1.4110077e+103
-1.446718e+103
-1.494979e+103
-1.3341708e+103
-1.5141414e+103
-1.4259886e+103
-1.4534109e+103
-1.3110772e+103
-1.2704771e+103
-1.4073384e+103
-1.5424599e+103
-1.411056e+103
-1.3448303e+103
-1.271918e+103
-1.2384828e+103
-1.4090982e+103
-1.3972643e+103
-1.5508291e+103
-1.4540092e+103
-1.344915e+103
-1.3514272e+103
-1.4695043e+103
-1.3839092e+103
-1.333757e+103
-1.3204878e+103
-1.3014044e+103
-1.2942887e+103
-1.6500587e+103
-1.7128404e+103
-1.5352687e+103
-1.8063835e+103
-1.7382843e+103
-1.2382882e+103
-1.2526008e+103
-1.2588032e+103
-1.26654e+103
-1.2649912e+103
-1.2583728e+103
-1.2562411e+103
-1.6866452e+103
-1.457848e+103
-1.3902016e+103
-1.3238583e+103
-1.3271082e+103
-1.29144e+103
-1.2672716e+103
-1.2621783e+103
-1.2824578e+103
-1.3748128e+103
-1.3284848e+103
-1.2982153e+103
-1.4778126e+103
-1.2626148e+103
-1.2591184e+103
-1.2466707e+103
-1.2528033e+103
-1.2505678e+103
-1.3225174e+103
-1.3441128e+103
-1.2758717e+103
-1.301206e+103
-1.2485906e+103
-1.2465769e+103
-1.2379432e+103
-1.2336173e+103
-1.2733129e+103
-1.3376862e+103
-1.3255704e+103
-1.3299293e+103
-1.5407857e+103
-1.2330959e+103
-1.2434518e+103
-1.2282153e+103
-1.5245988e+103
-1.3818593e+103
-1.3399428e+103
-1.3191647e+103
-1.3035736e+103
-1.2720844e+103
-1.259705e+103
-1.2599144e+103
-1.2337437e+103
-1.2267349e+103
-1.2174326e+103
-1.6433988e+103
-1.334684e+103
-1.3452192e+103
-1.3420928e+103
-1.3091444e+103
-1.2839335e+103
-1.2616759e+103
-1.2448792e+103
-1.2273761e+103
-1.217441e+103
-1.2066539e+103
-1.7637536e+103
-1.3975558e+103
-2.0348521e+103
-1.3228585e+103
-1.5843186e+103
-1.6678494e+103
-1.4341217e+103
-1.6668347e+103
-1.4314398e+103
-1.90685e+103
-2.1816989e+103
-1.3629582e+103
-1.7464254e+103
-1.93278e+103
-1.6436367e+103
-1.8000271e+103
-1.7746787e+103
-1.870066e+103
-2.1148355e+103
-2.6834467e+103
-1.3522018e+103
-3.3716692e+103
-1.8790356e+103
-3.284027e+103
-2.0998304e+103
-1.4761943e+103
-2.7001392e+103
-1.7908706e+103
-1.7303631e+103
-1.7286145e+103
-1.5350121e+103
-1.6120928e+103
-1.6491851e+103
-1.1669349e+103
-1.2414898e+103
-1.4089193e+103
-5.3710899e+103
-4.2040516e+103
-1.4435617e+103
-2.1920515e+103
-5.0161225e+103
-1.4980675e+103
-1.9954937e+103
-1.3816216e+103
-1.3291989e+103
-1.3495267e+103
-1.439079e+103
-1.4189821e+103
-1.388256e+103
-1.4406168e+103
-1.3595631e+103
-1.3182783e+103
-1.3655392e+103
-1.2799736e+103
-1.1835543e+103
-1.4889821e+103
-1.3903669e+103
-1.4695004e+103
-1.5367928e+103
-1.5087477e+103
-1.2675129e+103
-1.3424625e+103
-1.2456332e+103
-1.4407639e+103
-1.4956268e+103
-1.7377564e+103
-1.3656704e+103
-1.3049628e+103
-1.2410675e+103
-1.4213241e+103
-1.5521765e+103
-1.6046574e+103
-1.2270136e+103
-1.3820824e+103
-1.4128925e+103
-1.353693e+103
-1.3243273e+103
-1.5468342e+103
-1.3671557e+103
-1.3271849e+103
-1.3015743e+103
-1.265388e+103
-2.111259e+103
-1.7510011e+103
-1.7375596e+103
-1.836301e+103
-1.2495291e+103
-1.2324352e+103
-1.2592914e+103
-1.2483237e+103
-1.2526036e+103
-1.2605939e+103
-1.2561275e+103
-1.2506536e+103
-1.3868474e+103
-1.3606232e+103
-1.3259535e+103
-1.3049446e+103
-1.2738714e+103
-1.2562757e+103
-1.2455965e+103
-1.3211876e+103
-1.3581073e+103
-1.290023e+103
-1.2455906e+103
-1.2385938e+103
-1.233278e+103
-1.2726976e+103
-1.3370071e+103
-1.3261806e+103
-1.3300878e+103
-1.5240125e+103
-1.2334347e+103
-1.243335e+103
-1.2284957e+103
-1.2405717e+103
-1.2554514e+103
-1.2992702e+103
-1.3266863e+103
-1.3397163e+103
-1.568481e+103
-1.3752429e+103
-1.2284807e+103
-1.2367187e+103
-1.2183515e+103
-1.6183032e+103
-1.3362757e+103
-1.3456936e+103
-1.3431896e+103
-1.3089924e+103
-1.2839932e+103
-1.2613998e+103
-1.2449879e+103
-1.2276255e+103
-1.2175627e+103
-1.2066435e+103
-1.7813379e+103
-1.4042761e+103
-1.356117e+103
-1.3322301e+103
-1.3250694e+103
-1.2929128e+103
-1.2698178e+103
-1.2309035e+103
-1.2542549e+103
-1.2192088e+103
-1.2067482e+103
-1.1971399e+103
-1.5863596e+103
-1.6949727e+103
-1.5471575e+103
-1.3505784e+103
-2.3033288e+103
-1.4567178e+103
-1.6445124e+103
-1.5876358e+103
-2.1285136e+103
-1.9710163e+103
-1.5079202e+103
-1.9033155e+103
-1.8974881e+103
-2.8909583e+103
-1.7662448e+103
-1.6147183e+103
-1.6792155e+103
-1.4193166e+103
-1.5246608e+103
-1.6321301e+103
-5.0666662e+103
-3.9942159e+103
-1.6141863e+103
-2.3787356e+103
-4.747121e+103
-1.8491734e+103
-2.0718682e+103
-9.9477966e+102
-1.4472876e+103
-1.1472696e+103
-4.0140127e+103
-3.4669212e+103
-1.363426e+103
-1.9482829e+103
-4.2302736e+103
-3.3760981e+103