/*--------------------------------*- C++ -*----------------------------------*\
  =========                 |
  \\      /  F ield         | OpenFOAM: The Open Source CFD Toolbox
   \\    /   O peration     | Website:  https://openfoam.org
    \\  /    A nd           | Version:  7
     \\/     M anipulation  |
\*---------------------------------------------------------------------------*/
FoamFile
{
    version     2.0;
    format      ascii;
    class       volScalarField;
    location    "1000";
    object      k;
}
// * * * * * * * * * * * * * * * * * * * * * * * * * * * * * * * * * * * * * //

dimensions      [0 2 -2 0 0 0 0];

internalField   nonuniform List<scalar> 
34124
(
1.5056686
1.5062789
1.5062541
1.5058867
1.5088795
1.5068749
1.5064519
1.5065721
1.5052785
1.5061982
1.5110779
1.5093442
1.5090453
1.5072617
1.5061255
1.5063695
1.5077227
1.5055039
1.5051252
1.5054973
1.5110567
1.5114336
1.5129381
1.5096942
1.5088225
1.5086602
1.5080832
1.5065397
1.5059101
1.5056293
1.5072475
1.5055125
1.5047762
1.5049051
1.5034157
1.5104792
1.5112125
1.5127646
1.511618
1.5131811
1.5141163
1.5102411
1.5092184
1.5083891
1.5075568
1.5077288
1.507243
1.5060775
1.5056254
1.5038194
1.5052551
1.505766
1.5043834
1.5039914
1.5031791
1.5014303
1.5105446
1.5094323
1.5122178
1.5113044
1.5128965
1.5140114
1.5117068
1.5132365
1.51423
1.5148905
1.5099986
1.5094044
1.5085717
1.507561
1.505687
1.5064014
1.5072293
1.5059014
1.5051666
1.503716
1.5029066
1.5041055
1.5047531
1.5043094
1.5036305
1.5033473
1.5010813
1.5022566
1.5105294
1.5093202
1.5122318
1.5079041
1.5114965
1.513698
1.5114672
1.5128834
1.5140139
1.5149129
1.5109497
1.5132322
1.5142723
1.5149643
1.5154559
1.5086361
1.509234
1.5078273
1.5071463
1.5055365
1.5052953
1.5050947
1.5063099
1.5056956
1.5049108
1.5042104
1.5025117
1.5045266
1.5032421
1.5030937
1.50357
1.5030813
1.5031936
1.5013682
1.5019264
1.5020861
1.5105424
1.5091986
1.5121594
1.5078909
1.51131
1.5135911
1.5105784
1.508183
1.5134166
1.5148834
1.5106857
1.5129016
1.5139955
1.5149075
1.5154898
1.509781
1.512648
1.514347
1.5150285
1.5154768
1.5157156
1.5071648
1.5085671
1.5077402
1.5069319
1.5063898
1.5049591
1.5070622
1.5044172
1.5047848
1.5050032
1.5043115
1.5043267
1.5031282
1.5037306
1.5041375
1.502488
1.5032887
1.5028753
1.50229
1.5022311
1.5026252
1.5013966
1.50161
1.5013529
1.5092023
1.5103192
1.5122378
1.5086856
1.5111742
1.513548
1.510601
1.5083258
1.5131425
1.5147722
1.5113826
1.5130714
1.5097857
1.5148924
1.5155067
1.5096365
1.5124773
1.5140632
1.5149151
1.5155057
1.5157444
1.5088883
1.511986
1.5140396
1.5151425
1.5155406
1.5157301
1.5158748
1.5063948
1.5070468
1.5073023
1.5062971
1.5063016
1.5059342
1.5065028
1.5061471
1.5039471
1.5046895
1.5043269
1.5037411
1.5035067
1.5043447
1.5034864
1.5038569
1.5035412
1.5038938
1.5022948
1.5025718
1.5014342
1.5015767
1.5021311
1.5008827
1.5026333
1.501216
1.5005452
1.5086569
1.5111939
1.5094149
1.5096589
1.5123392
1.513707
1.5112455
1.5092111
1.5129974
1.5147222
1.5118971
1.512969
1.5094426
1.514706
1.5154874
1.51383
1.5127929
1.5148061
1.5086204
1.5155612
1.515754
1.5083197
1.5119602
1.5139548
1.5150129
1.5155077
1.5157464
1.5158853
1.5111343
1.5082862
1.5138133
1.5150077
1.5155946
1.5157618
1.5158682
1.5158059
1.5062955
1.5069622
1.5067687
1.5059442
1.5052784
1.5068252
1.5065004
1.5059313
1.5057848
1.5041225
1.5042791
1.5043049
1.5034238
1.5029138
1.5038462
1.5020961
1.5041966
1.5030782
1.5017404
1.5015706
1.5041103
1.5017766
1.5026566
1.5012351
1.5024386
1.5007641
1.5005994
1.5012819
1.5003786
1.5011188
1.5099052
1.5113021
1.508695
1.5117545
1.5131013
1.5094421
1.5085291
1.512156
1.514071
1.5148533
1.512782
1.5131826
1.5094699
1.5145873
1.515471
1.5140281
1.5123466
1.5146975
1.5082064
1.5155213
1.5157655
1.5142205
1.5150727
1.5108388
1.5155726
1.5084052
1.5158005
1.5158774
1.5107441
1.5075177
1.5139152
1.5150333
1.5155742
1.5157707
1.5158594
1.5157974
1.5105175
1.5131364
1.508991
1.5148051
1.5155488
1.5158136
1.5158721
1.5158514
1.5156637
1.5062422
1.5067195
1.5071049
1.5059979
1.5048265
1.5062542
1.5037037
1.5060314
1.5051503
1.5036761
1.5030271
1.5044074
1.5040387
1.503777
1.5028747
1.5035855
1.501973
1.501679
1.5032861
1.5014324
1.502502
1.5020501
1.5013326
1.5020145
1.5009033
1.5013419
1.5022504
1.5008775
1.5004668
1.5012977
1.5003928
1.5006691
1.5017967
1.5132374
1.5102462
1.508854
1.5114502
1.5133495
1.5094279
1.5122961
1.5138192
1.5147556
1.5089951
1.5110819
1.5073306
1.5140721
1.5151593
1.5155574
1.5144628
1.5123644
1.5147475
1.5080835
1.5155095
1.5157818
1.5138632
1.5151147
1.51023
1.5155498
1.5077021
1.5158068
1.5158592
1.5149316
1.5128729
1.5155195
1.5103923
1.515865
1.5061557
1.5159151
1.5158192
1.5103011
1.5130004
1.5086866
1.5149324
1.5155879
1.5158099
1.5158535
1.5158101
1.5157156
1.512681
1.5111176
1.5143737
1.5056859
1.5153272
1.5158197
1.5158761
1.5159116
1.5158094
1.5155287
1.5052101
1.5067915
1.5070984
1.5057034
1.504816
1.5056257
1.5037361
1.5034554
1.505233
1.5030269
1.5044529
1.503427
1.5034329
1.5039428
1.5024188
1.5038916
1.5036134
1.5019993
1.5014181
1.5029848
1.5015175
1.5017606
1.5034836
1.5027283
1.5040082
1.5010501
1.5037077
1.500911
1.500512
1.5013803
1.500472
1.5009882
1.5035725
1.5005785
1.501553
1.5031634
1.5147752
1.5129922
1.5123456
1.5082498
1.5096812
1.5080099
1.5124005
1.5137996
1.5150453
1.5093314
1.5119068
1.5141039
1.5153122
1.5156659
1.5073337
1.510037
1.5134948
1.5081734
1.5151127
1.5156779
1.5158277
1.5138629
1.5152392
1.5102389
1.515587
1.5074305
1.5158364
1.5158532
1.5148401
1.5119227
1.5155433
1.5096792
1.51588
1.5052197
1.515894
1.5158183
1.5142493
1.515322
1.5119844
1.5157396
1.5090163
1.5159773
1.5068346
1.5159428
1.5157746
1.512725
1.5109936
1.5144513
1.5057742
1.5154815
1.5158395
1.515873
1.5158161
1.5157478
1.5156329
1.5127927
1.5141326
1.5087673
1.5150652
1.5059877
1.515631
1.5158791
1.5158846
1.5159319
1.5157916
1.5155405
1.5058493
1.5065158
1.5068409
1.5048734
1.505795
1.5052214
1.5034248
1.5029632
1.5048928
1.5030007
1.5035289
1.5054752
1.5043082
1.5049521
1.5024066
1.5050477
1.5024185
1.5018936
1.5026919
1.5013005
1.5024372
1.5056713
1.5015182
1.5028126
1.5059467
1.5040879
1.500841
1.5055354
1.5010475
1.5011235
1.5013359
1.5005494
1.5006754
1.5007239
1.5026818
1.5035586
1.5013021
1.5024358
1.5053587
1.5142985
1.514346
1.5153729
1.5124858
1.5111096
1.5117857
1.5079287
1.5094882
1.5096157
1.5092963
1.5118235
1.5144328
1.5152067
1.5157897
1.5077673
1.5098667
1.5139375
1.5151834
1.515805
1.5158974
1.5073258
1.5128683
1.5108314
1.5148139
1.5051851
1.5156086
1.5158922
1.5158753
1.5148069
1.51201
1.515607
1.5093959
1.5159223
1.5048778
1.5158792
1.5158111
1.5136415
1.5152385
1.5113569
1.5157715
1.5083236
1.5159616
1.5058065
1.5159258
1.5157705
1.5149404
1.5129753
1.5156023
1.5110853
1.5158472
1.5079729
1.5159424
1.5157317
1.5129333
1.5143097
1.5083611
1.5152815
1.5055077
1.5157521
1.5158817
1.5158577
1.5157619
1.5156891
1.5156154
1.514097
1.5117168
1.5149641
1.5079847
1.5154986
1.5157547
1.5157973
1.5158764
1.5159603
1.5158176
1.5155973
1.5066041
1.5071855
1.5048091
1.5068511
1.5045088
1.5035242
1.5039079
1.5026397
1.5040749
1.5078692
1.5030445
1.504956
1.5088384
1.5050774
1.5027973
1.5054746
1.5024473
1.502366
1.5027202
1.5015893
1.501554
1.5018948
1.5048263
1.5062688
1.5025971
1.5047919
1.5082189
1.5023164
1.503128
1.5008313
1.50149
1.5027864
1.5032226
1.5018023
1.5013345
1.5008588
1.5022725
1.5028596
1.5027052
1.5017765
1.5040439
1.5024762
1.5130475
1.5149408
1.5139598
1.5142292
1.5153982
1.5157324
1.5120173
1.512146
1.509712
1.5118241
1.5090643
1.5065733
1.5096604
1.5094386
1.5084484
1.5136762
1.510496
1.5154391
1.5159098
1.5160028
1.5076019
1.51328
1.5094957
1.5151508
1.5157316
1.5159931
1.5158764
1.5065137
1.51302
1.5146125
1.5079432
1.5155173
1.5050548
1.5055286
1.5158676
1.5159129
1.5158542
1.51588
1.5138818
1.5152743
1.5110881
1.5158304
1.5079781
1.515978
1.5052502
1.5058263
1.5159201
1.5158646
1.5157622
1.5147677
1.5125535
1.5155858
1.5105721
1.5158983
1.5078249
1.5159291
1.5157197
1.5139257
1.5153569
1.5124983
1.5157911
1.510469
1.5159147
1.5121272
1.5159165
1.5157456
1.5143255
1.5115721
1.5152268
1.5072308
1.5156985
1.5158425
1.5158225
1.5158218
1.515714
1.5156397
1.5156165
1.5139469
1.5148919
1.5109769
1.5154598
1.5102604
1.5156392
1.5157981
1.5158807
1.5159936
1.5158451
1.5156578
1.5073306
1.5063224
1.5072758
1.5043254
1.5041349
1.504618
1.5030608
1.5046798
1.5027146
1.504657
1.5037487
1.5070083
1.5088986
1.505029
1.5074533
1.5110871
1.5035962
1.5047146
1.5023184
1.5031501
1.5042926
1.5045917
1.5032281
1.5024629
1.5018886
1.5045111
1.5053904
1.5051548
1.5036189
1.5068393
1.5053404
1.5029278
1.5011048
1.5017542
1.501869
1.5046383
1.5041545
1.5042323
1.5039821
1.5029887
1.5022739
1.5024226
1.5049028
1.5018744
1.5026202
1.5143219
1.511138
1.51336
1.5154981
1.515035
1.5139203
1.5138179
1.5152681
1.5159317
1.5159526
1.5123671
1.5116066
1.5119185
1.5088232
1.511563
1.509688
1.507518
1.5067485
1.5068293
1.5096356
1.5089589
1.5075032
1.5150795
1.5140012
1.511733
1.5159542
1.5161656
1.5160134
1.5068626
1.5150021
1.51271
1.5088219
1.5157778
1.515987
1.5159723
1.51596
1.51592
1.5061643
1.5065493
1.5145876
1.5112967
1.5154872
1.5072391
1.5158928
1.5053477
1.5159197
1.5158777
1.5158139
1.5158821
1.5148282
1.5123072
1.5156493
1.5104018
1.5159528
1.5083387
1.5159713
1.5057251
1.5159077
1.5157292
1.5135754
1.5153081
1.5121536
1.5158505
1.5102797
1.5159315
1.5103768
1.5159083
1.5156865
1.5147487
1.513527
1.5156915
1.5120516
1.5159769
1.5131042
1.5141657
1.515984
1.5160168
1.5157469
1.5140862
1.5151487
1.5102124
1.5156992
1.5104675
1.5158734
1.515834
1.5157977
1.5156546
1.5155863
1.5156024
1.514829
1.5132455
1.5153515
1.5156201
1.511907
1.5133487
1.515519
1.5153459
1.5159553
1.5160525
1.5158743
1.5161202
1.5057739
1.5067845
1.5045741
1.5054113
1.5068686
1.506642
1.5047462
1.5043414
1.5040703
1.5034961
1.5041364
1.5065883
1.5082465
1.5078736
1.5063627
1.5099928
1.5092649
1.5042806
1.5032976
1.5034725
1.5038041
1.5055994
1.5057081
1.5067151
1.5068415
1.5060012
1.5047173
1.5045619
1.5067207
1.5045247
1.5050135
1.5029128
1.5017272
1.5013154
1.5028949
1.5048899
1.5078973
1.5048583
1.505493
1.5043343
1.5026814
1.5019159
1.5031353
1.5018835
1.5017177
1.5027018
1.5150872
1.5123201
1.5147645
1.5107467
1.5131171
1.5158825
1.5158512
1.5150587
1.5141326
1.5151486
1.5138565
1.5159173
1.5160001
1.5125952
1.5151704
1.5115297
1.5094104
1.5118717
1.5116119
1.5092329
1.5048618
1.5086328
1.5081998
1.5097578
1.5153977
1.515859
1.5155035
1.5133201
1.5118061
1.511606
1.5162815
1.5161954
1.5163592
1.5159847
1.514976
1.515775
1.5161057
1.5158537
1.5046875
1.514152
1.5153766
1.510738
1.5159126
1.509463
1.5160218
1.5158948
1.5158687
1.5133713
1.5153772
1.5119382
1.5159327
1.510713
1.5159975
1.5099751
1.5159892
1.5157042
1.5145278
1.5133621
1.5157445
1.5118172
1.5160125
1.5126344
1.5128886
1.5158845
1.5160493
1.5156263
1.5143469
1.5154035
1.5136254
1.5159631
1.5142399
1.5158436
1.5139434
1.5160679
1.5161044
1.5159556
1.5156556
1.5150757
1.5130457
1.515615
1.5158684
1.5115578
1.5132911
1.5158592
1.5157832
1.5157139
1.5155855
1.5155175
1.5159616
1.5147451
1.5152599
1.5155474
1.5155128
1.5108737
1.5146303
1.51542
1.5153881
1.5151059
1.5159791
1.516159
1.5162347
1.5163581
1.506339
1.506678
1.5055569
1.5063433
1.5081086
1.5078967
1.5102256
1.5089946
1.5089502
1.5073623
1.5072238
1.5094216
1.5079537
1.508202
1.5045605
1.503017
1.5038616
1.5038578
1.5057205
1.5081527
1.5057302
1.5069623
1.5062589
1.504638
1.5039411
1.505581
1.504479
1.5038075
1.5067049
1.5033294
1.5021184
1.5019927
1.5030695
1.5074333
1.504159
1.5040962
1.5032863
1.5056278
1.5031585
1.5016939
1.5028502
1.5085813
1.501576
1.5017027
1.5049526
1.5155755
1.5135702
1.5156776
1.5119816
1.5145448
1.514211
1.5160307
1.5158086
1.515781
1.514284
1.5153028
1.5159025
1.5130545
1.5149268
1.511507
1.5162541
1.5133045
1.5141394
1.5155083
1.5114796
1.5087822
1.5082517
1.5085374
1.514378
1.511642
1.5096233
1.5098371
1.5160188
1.5146802
1.5164065
1.5159472
1.5159779
1.5139673
1.5156209
1.5155969
1.5134428
1.5099089
1.5120882
1.5159114
1.5164501
1.5165093
1.5164504
1.5162212
1.5161124
1.5161163
1.5161264
1.5153709
1.5134808
1.5158327
1.5160256
1.5115788
1.5126723
1.5160482
1.5160483
1.5158284
1.514447
1.5132683
1.5158342
1.5121359
1.5161242
1.5132749
1.5121487
1.5159768
1.5161947
1.5156256
1.5140865
1.5154277
1.513402
1.5160133
1.5144266
1.5151253
1.5125247
1.5158559
1.5160421
1.5161873
1.5155164
1.5151091
1.5140916
1.5159307
1.5145704
1.5156673
1.5169208
1.5162264
1.5115669
1.5160891
1.5163985
1.5155182
1.5157941
1.5158359
1.5148791
1.5155014
1.5158375
1.5158541
1.5103049
1.5142688
1.5153355
1.5158683
1.5157113
1.5156564
1.5154932
1.5156283
1.5159881
1.5152053
1.5154664
1.5154663
1.5099202
1.5136118
1.5157984
1.5153512
1.5158089
1.5154402
1.5153932
1.5151197
1.5159364
1.5166561
1.5164309
1.5147555
1.5066915
1.5052454
1.5070175
1.506263
1.5082738
1.5105537
1.5085778
1.5100954
1.5092162
1.5072523
1.5064754
1.5088189
1.5081433
1.5069857
1.5120083
1.5042475
1.5036522
1.5032689
1.5052906
1.507999
1.5066632
1.5055989
1.5061262
1.5071561
1.5046705
1.5029496
1.5053614
1.5109272
1.5037487
1.5051593
1.5097505
1.5020893
1.5023845
1.5022919
1.5035462
1.5065033
1.5026363
1.5025003
1.5044661
1.5022341
1.5023597
1.5028601
1.5005868
1.5019545
1.5073073
1.5091433
1.5013536
1.5028636
1.510483
1.5146159
1.515225
1.512394
1.5127577
1.5165194
1.5143244
1.5109813
1.5153532
1.5143875
1.515636
1.5166482
1.5161386
1.5135076
1.5145915
1.512553
1.507526
1.5088296
1.5087904
1.5090274
1.5057655
1.5158755
1.5145867
1.5162565
1.5166905
1.5164855
1.5160601
1.5159804
1.5161304
1.5160761
1.5150177
1.5129328
1.5076987
1.5105297
1.5161189
1.5168463
1.5164945
1.5164523
1.5161455
1.5160486
1.5157755
1.516007
1.509793
1.5138581
1.5145468
1.5160803
1.5159973
1.5157383
1.5141449
1.5156123
1.516088
1.514935
1.5122143
1.5159229
1.5161809
1.5164297
1.5154684
1.5149957
1.5142312
1.5160644
1.5149132
1.5160163
1.5167648
1.5156541
1.5103417
1.5157448
1.5160442
1.5162178
1.5158768
1.515507
1.5156049
1.5173129
1.5169237
1.516496
1.5143642
1.5161486
1.5165464
1.5164567
1.5156174
1.5152529
1.5157172
1.5158711
1.5092929
1.5130411
1.5157982
1.5154428
1.5160909
1.5158519
1.515819
1.5156748
1.5155331
1.5154932
1.515603
1.5154362
1.5114766
1.5137125
1.515122
1.5162048
1.5156899
1.5152967
1.5150294
1.5163231
1.5172038
1.5158625
1.5119657
1.5064947
1.5053804
1.5100315
1.5097443
1.5078932
1.5092672
1.5100504
1.5075886
1.5050633
1.508246
1.5127804
1.5069385
1.5100978
1.5140149
1.5035095
1.503869
1.504133
1.5059268
1.5070217
1.5056151
1.5039937
1.5066022
1.5042296
1.5042748
1.5047362
1.5017163
1.5037341
1.5099576
1.5127155
1.5040063
1.5069977
1.5143161
1.5036771
1.5034358
1.5037494
1.5021816
1.5026493
1.5024798
1.5009284
1.5012504
1.5092644
1.5074689
1.5119831
1.5019795
1.507304
1.5106395
1.5144553
1.5167731
1.5151174
1.512156
1.5112485
1.511935
1.517096
1.5161514
1.5138482
1.5112754
1.5150457
1.515406
1.5159083
1.5149111
1.5162137
1.5168991
1.5167146
1.5163
1.5152228
1.5110308
1.5059875
1.5055895
1.5066178
1.5069797
1.5064026
1.5150783
1.5167467
1.5128863
1.5161267
1.5166963
1.5169223
1.5164999
1.515292
1.5158503
1.5153154
1.5160329
1.5160588
1.5105886
1.5077335
1.5169273
1.5164356
1.5163755
1.5157957
1.5073267
1.512349
1.5156966
1.5161731
1.5160715
1.5159349
1.5155264
1.5169379
1.5169594
1.5155785
1.5095182
1.5157196
1.5161173
1.5164805
1.5153897
1.5166958
1.5172473
1.5174356
1.5160335
1.5136827
1.5157392
1.5159644
1.5162833
1.5154936
1.5156381
1.5171524
1.5173038
1.5185534
1.517211
1.5178596
1.5168181
1.5154688
1.5104532
1.5127807
1.5148322
1.5162402
1.5161317
1.5157651
1.5155866
1.5155098
1.5154919
1.5156024
1.5140264
1.5154232
1.5146539
1.5159988
1.5159813
1.5158415
1.515123
1.5153571
1.516429
1.5177901
1.5138778
1.5137492
1.5093978
1.5090349
1.5088772
1.508829
1.5077283
1.5077419
1.5039464
1.5080098
1.5125297
1.5148845
1.5083564
1.5124894
1.516465
1.5058291
1.5060715
1.5061293
1.5052595
1.5046839
1.5041777
1.5024065
1.502802
1.510399
1.5115774
1.5153657
1.505441
1.5113288
1.5158031
1.5061684
1.5044834
1.5053913
1.5009124
1.5068149
1.5040542
1.5021117
1.5051067
1.5045546
1.5076996
1.5104941
1.5183458
1.5070626
1.5078758
1.5164744
1.5151452
1.5134366
1.5158663
1.5173617
1.5165755
1.5154155
1.5126994
1.5123282
1.5107643
1.5104961
1.5126633
1.5134484
1.5109093
1.5171033
1.5172573
1.5158533
1.5134876
1.5101735
1.5169005
1.5170017
1.5166145
1.5163912
1.5136121
1.510353
1.5131831
1.5161135
1.5170995
1.5114421
1.5147733
1.5165983
1.5168486
1.5169807
1.5163907
1.5091354
1.5069771
1.5048781
1.5081041
1.508551
1.5169764
1.5161542
1.5160399
1.5157238
1.515552
1.5157368
1.5159688
1.5085862
1.5113773
1.5147533
1.5163618
1.5163739
1.5159995
1.5157923
1.5154101
1.5170713
1.5174175
1.5174623
1.5151019
1.5112874
1.5157182
1.5159756
1.5163807
1.515372
1.5167844
1.5173365
1.5179595
1.5180396
1.5167737
1.5160527
1.5161938
1.5154411
1.5157566
1.5166227
1.517512
1.5188946
1.5187113
1.5192487
1.5174524
1.5171783
1.5152723
1.5139244
1.5143836
1.5161156
1.5162546
1.516093
1.5156597
1.5156264
1.5155012
1.5154275
1.5151626
1.5145358
1.5157581
1.5156129
1.5162976
1.516424
1.5155314
1.515906
1.5149335
1.514403
1.5152289
1.5144983
1.5141648
1.5092819
1.5096264
1.5087672
1.5100488
1.5074466
1.5072062
1.5049721
1.5065344
1.513155
1.5147207
1.5163766
1.5120637
1.5156334
1.5176196
1.5081963
1.5064639
1.508942
1.5025952
1.5106029
1.505536
1.5036024
1.5062762
1.5064573
1.5110571
1.5142702
1.5171912
1.5114401
1.5130357
1.5167009
1.5034996
1.5072948
1.5026251
1.5059228
1.5031421
1.5040215
1.5080885
1.506793
1.5123429
1.513883
1.5117964
1.5077813
1.5151733
1.5102696
1.5169647
1.5168202
1.517153
1.5147446
1.5131864
1.5150979
1.5127497
1.5168353
1.5175293
1.517549
1.5169939
1.5121097
1.5117132
1.5100418
1.511037
1.5129822
1.5119928
1.5174416
1.5168743
1.5172846
1.5149816
1.5125188
1.5105835
1.516829
1.5170178
1.5163516
1.5154104
1.5102822
1.5133732
1.5152672
1.5152216
1.5139151
1.5165667
1.5172917
1.5135353
1.5159873
1.516796
1.5168224
1.5160735
1.5089011
1.5074439
1.5063061
1.5083347
1.5176694
1.5168131
1.5173584
1.5158966
1.5156879
1.5157234
1.5154182
1.5154106
1.5135732
1.5161763
1.5164618
1.5163482
1.5158373
1.5153969
1.5170805
1.5174651
1.5180367
1.5172779
1.5161964
1.5153456
1.5167878
1.517214
1.5181885
1.5185468
1.5183256
1.5181989
1.5160252
1.5160951
1.5152796
1.5156617
1.5157157
1.5177653
1.5188012
1.5189943
1.5195241
1.5193847
1.5156236
1.5154127
1.5149913
1.5161729
1.5152081
1.5161375
1.516547
1.5161269
1.516044
1.5156019
1.5155723
1.515275
1.515067
1.5146979
1.5174052
1.5174886
1.5163649
1.51672
1.5167868
1.5155982
1.5158557
1.5154519
1.5158639
1.5150363
1.5146545
1.5143363
1.5109999
1.5092021
1.5061652
1.5125399
1.5080555
1.5068763
1.5104988
1.5148888
1.5161854
1.5177157
1.5154427
1.517053
1.5178911
1.5063167
1.5096203
1.5049642
1.5103937
1.504513
1.5058917
1.5078295
1.5097803
1.5150597
1.5162462
1.5150387
1.5131851
1.5152966
1.5139706
1.5044443
1.5023191
1.5009001
1.5046757
1.5114423
1.5036315
1.5115457
1.5088388
1.5221143
1.5168626
1.5105442
1.5369743
1.510041
1.506903
1.5038079
1.5149569
1.5179654
1.5185908
1.5195189
1.5180538
1.5180147
1.5177162
1.518466
1.5183261
1.5162163
1.5171355
1.5164522
1.5173159
1.5180638
1.5149909
1.514256
1.5125406
1.5111384
1.5128116
1.5126514
1.5144152
1.5126917
1.5175091
1.5103526
1.5173635
1.5160152
1.5171674
1.5143833
1.5113471
1.5162514
1.5171474
1.5160282
1.5102795
1.5110061
1.5164819
1.5158602
1.5162702
1.5130275
1.5175364
1.5166193
1.5173463
1.5169692
1.517068
1.5156315
1.5164023
1.5165347
1.5149312
1.5168196
1.5165325
1.5157126
1.5173669
1.51769
1.5173645
1.5159734
1.5157017
1.5174741
1.5168872
1.5165247
1.5159599
1.5166116
1.5164154
1.5162258
1.5170288
1.5173932
1.5182753
1.5183093
1.5153347
1.5168088
1.5170063
1.5183369
1.5186899
1.5191045
1.5192114
1.5197591
1.5159238
1.5168463
1.5152291
1.5156431
1.5182004
1.5184277
1.518847
1.5192978
1.520212
1.5164093
1.5167433
1.5158156
1.5175511
1.5149678
1.5173647
1.5169694
1.5162505
1.5166241
1.5166162
1.5160515
1.5160172
1.5156237
1.5160341
1.5152098
1.5150764
1.5147615
1.5188969
1.5174575
1.5157859
1.5166354
1.516521
1.5165009
1.515825
1.5158983
1.5154147
1.5157803
1.5149737
1.5147294
1.5145395
1.5100806
1.5080422
1.5071996
1.5085995
1.5165385
1.5175337
1.5177506
1.5167449
1.5174918
1.5163723
1.5091159
1.5060779
1.5026687
1.50961
1.51498
1.5056061
1.510777
1.51335
1.5148577
1.517877
1.5146025
1.5193448
1.5129542
1.5117991
1.508631
1.5057038
1.5026249
1.5010732
1.5219344
1.5064476
1.5123404
1.5096527
1.5061917
1.5211798
1.5069288
1.5088751
1.5371823
1.517045
1.5044532
1.503456
1.5027392
1.5166382
1.5168401
1.5191925
1.5198022
1.5202613
1.5203937
1.5198276
1.5192523
1.5189182
1.5177068
1.5189525
1.5187401
1.5177337
1.5182566
1.5185075
1.5186577
1.5184537
1.5193651
1.5186341
1.5166843
1.5112755
1.5124885
1.516455
1.5113162
1.5103791
1.5140495
1.510098
1.5135294
1.5170258
1.5119435
1.5080113
1.5120943
1.515539
1.5179976
1.517972
1.5175412
1.5175503
1.5170315
1.5158848
1.5182899
1.5179133
1.5180176
1.5177852
1.5169467
1.5167953
1.5168394
1.5169282
1.5161994
1.5166052
1.5167866
1.5161458
1.5181321
1.5171288
1.5175342
1.5172607
1.5171536
1.5160031
1.5157336
1.5162095
1.5173395
1.5169472
1.5162813
1.516195
1.5166976
1.5183989
1.5153291
1.5169277
1.5184963
1.518688
1.51932
1.519125
1.520186
1.5200894
1.5168717
1.5158858
1.5186487
1.5152183
1.5177874
1.5179452
1.518309
1.5199382
1.5181109
1.5210659
1.517822
1.521451
1.5167161
1.5182826
1.5157855
1.5177931
1.5149523
1.5187163
1.517624
1.5171735
1.5167388
1.516669
1.5165758
1.5160555
1.5160263
1.5155841
1.5166222
1.5151922
1.5150908
1.514839
1.5199025
1.5189583
1.5176595
1.5164444
1.5173229
1.5162436
1.5162633
1.5160793
1.5159056
1.5165083
1.5153493
1.5160331
1.514937
1.5148081
1.5149381
1.5063959
1.5174523
1.5178187
1.5184996
1.5173053
1.5156926
1.5133961
1.5090148
1.5045916
1.5035022
1.5188012
1.5108134
1.5119012
1.50991
1.5108984
1.5195003
1.5103292
1.5138062
1.5186003
1.516768
1.5080237
1.5079384
1.5066528
1.511861
1.5021205
1.5072593
1.5177667
1.5121127
1.5185617
1.5073073
1.5049999
1.5169525
1.517265
1.5115169
1.5036416
1.5192249
1.5136549
1.5173788
1.5023919
1.5029325
1.5040046
1.5181639
1.5165424
1.5150834
1.5189552
1.520294
1.520616
1.5212044
1.5211692
1.5199349
1.5183731
1.51978
1.5199025
1.5212033
1.517911
1.5181557
1.5191703
1.5173956
1.5188752
1.5186551
1.5197015
1.5187138
1.5193682
1.5187627
1.5187279
1.5187156
1.5185388
1.5073641
1.5120852
1.5083425
1.5117963
1.5113764
1.5137402
1.5178499
1.5125955
1.5074617
1.5180351
1.5187909
1.5194749
1.5185423
1.5190828
1.5184798
1.517857
1.5176176
1.515483
1.5190684
1.5194361
1.5183772
1.5168803
1.5177023
1.517049
1.5167815
1.516702
1.5167524
1.5169307
1.51668
1.5167437
1.5179078
1.5170106
1.5174749
1.5159869
1.5161728
1.5157279
1.5173895
1.5169105
1.515319
1.5185585
1.5185833
1.5194386
1.5193971
1.5175951
1.5206947
1.519012
1.5207879
1.5168061
1.5186078
1.5158397
1.5186094
1.5152039
1.5182284
1.5193418
1.517791
1.5169231
1.5208486
1.5206738
1.5190527
1.5166207
1.5156855
1.5149428
1.5199824
1.5188416
1.5179517
1.5168807
1.5173451
1.516715
1.5165731
1.5165786
1.5159906
1.5166152
1.515528
1.5165818
1.5151898
1.5150893
1.515134
1.5207328
1.5206842
1.5195114
1.5177269
1.5170052
1.5169393
1.515884
1.5152996
1.5148916
1.5150377
1.5147639
1.5175967
1.5186542
1.5198519
1.5147332
1.5127124
1.5113187
1.5160034
1.5110606
1.5041951
1.5088384
1.5177565
1.5139806
1.5135477
1.5089731
1.5096353
1.5152882
1.5176752
1.5168991
1.5067108
1.5176793
1.5157269
1.5184419
1.5061275
1.5063448
1.5071742
1.5104653
1.5271051
1.5090968
1.5045877
1.502532
1.5157866
1.5138895
1.5219868
1.5164891
1.5238221
1.5132629
1.5290593
1.5028398
1.5035879
1.5070955
1.5174509
1.5168017
1.5156814
1.5140007
1.5192991
1.5168746
1.5207925
1.5208393
1.5215755
1.5215101
1.5203025
1.5186985
1.5183522
1.5180864
1.5183295
1.5178749
1.5180672
1.5182706
1.5179859
1.5189363
1.5213398
1.5205082
1.5192351
1.5208401
1.5208916
1.5187632
1.5189196
1.5216798
1.5218137
1.5167281
1.5186597
1.518481
1.5174912
1.5193555
1.5182411
1.5198302
1.5187531
1.5186777
1.5187631
1.5183324
1.5215918
1.5193388
1.5201034
1.5198996
1.5200071
1.5192438
1.5182501
1.5198601
1.5188936
1.5176541
1.5179001
1.5207952
1.5167917
1.5177027
1.5178114
1.5184308
1.5175963
1.5172716
1.5173673
1.5168594
1.5159573
1.516113
1.5156839
1.5169459
1.5152959
1.5181001
1.5193593
1.5177424
1.5169742
1.52099
1.5208828
1.5185091
1.5166931
1.5158147
1.515199
1.5182104
1.517568
1.5171638
1.5193846
1.5170254
1.5158599
1.5210778
1.5211754
1.518341
1.516569
1.5156227
1.5153056
1.5209683
1.520574
1.5190568
1.5181465
1.5173664
1.5165949
1.5159035
1.5155133
1.5151845
1.5151547
1.5149625
1.5229463
1.5225654
1.5209145
1.5196955
1.5180635
1.5174502
1.5163837
1.5159112
1.5152391
1.5150566
1.5149265
1.514948
1.5186866
1.5200075
1.5209008
1.511956
1.5107465
1.515289
1.5103111
1.5142706
1.5127957
1.5169696
1.5118076
1.5087447
1.5067036
1.5151364
1.5156608
1.5181062
1.5175476
1.5171447
1.5169631
1.5302149
1.5058389
1.5071654
1.5092277
1.5050675
1.5061287
1.5112554
1.5082532
1.5040836
1.5093332
1.505782
1.5144412
1.5093621
1.5137618
1.509005
1.5105865
1.5280093
1.5280972
1.5023686
1.5030327
1.5046727
1.5041465
1.5140127
1.5175838
1.5143227
1.5142904
1.5132929
1.5170615
1.5177907
1.5194001
1.5175816
1.5164452
1.5210517
1.5209738
1.521765
1.5204322
1.5176631
1.5194258
1.5152818
1.5176885
1.5196929
1.5176701
1.5179538
1.5178465
1.5177189
1.5195161
1.5171406
1.5174045
1.5172865
1.5230662
1.5225568
1.5205567
1.5201927
1.5206104
1.5197124
1.5196237
1.5204459
1.5182204
1.5224022
1.5207994
1.5211539
1.520378
1.5213049
1.5200601
1.5208316
1.5159021
1.5219607
1.5219203
1.5221196
1.5219926
1.5212612
1.5156491
1.5143277
1.5150618
1.5163781
1.5162666
1.5170829
1.5171256
1.5158681
1.5148344
1.5144985
1.5150984
1.5141396
1.5184417
1.5187102
1.5179225
1.5221073
1.519842
1.5200252
1.5200576
1.5194696
1.5194176
1.5185938
1.5187631
1.5183412
1.5183768
1.5186307
1.5183767
1.5184119
1.5175999
1.5230419
1.5215808
1.5212764
1.52039
1.5212533
1.5217799
1.5228802
1.5225402
1.5215036
1.5190666
1.5206732
1.5202648
1.5187514
1.5212299
1.5189982
1.5213295
1.5166909
1.5176725
1.5172634
1.5175124
1.5182601
1.5173359
1.5173967
1.5183298
1.5175888
1.5173118
1.5182977
1.5165536
1.5160009
1.5167326
1.5159435
1.515659
1.5169392
1.5152748
1.5182506
1.5177257
1.5175852
1.5193601
1.5170681
1.5157403
1.5211771
1.5209966
1.5183217
1.5165868
1.5157903
1.515202
1.5174564
1.5179851
1.5171428
1.5171275
1.5163388
1.5192066
1.5166483
1.5137245
1.5153488
1.521234
1.5208936
1.5182305
1.5165284
1.5156588
1.515044
1.5228981
1.5224172
1.520622
1.5192993
1.5182174
1.5173645
1.5164821
1.5158181
1.5155019
1.5151845
1.5150881
1.5151005
1.5246993
1.5241177
1.5229262
1.5212983
1.5194635
1.5181315
1.5171557
1.5163073
1.5159597
1.5152927
1.515001
1.5150211
1.5146842
1.5200615
1.5207949
1.5235126
1.5095567
1.5141866
1.509862
1.513475
1.5110423
1.5075269
1.5105289
1.5122622
1.5100474
1.5069792
1.5115591
1.5101433
1.5186425
1.5141563
1.5159414
1.5124307
1.5150599
1.5289421
1.5261573
1.5044346
1.5054965
1.5072585
1.5067881
1.5040407
1.5075653
1.5056405
1.5058425
1.5031397
1.5034289
1.5032356
1.5106143
1.5300125
1.5088728
1.5128582
1.5165257
1.511151
1.5127357
1.5234292
1.5281164
1.5025233
1.5041083
1.503729
1.5043689
1.5103494
1.5150188
1.5139219
1.5110603
1.5162182
1.519324
1.5177765
1.5177086
1.5194605
1.5170781
1.5154145
1.5210917
1.5172574
1.5172795
1.5171244
1.5167026
1.5172661
1.5173167
1.5174694
1.5173955
1.5170401
1.5136044
1.5141973
1.515972
1.5158344
1.5190107
1.5145892
1.5147138
1.5155531
1.5173006
1.5172504
1.5176679
1.5199491
1.5174342
1.517518
1.5172428
1.5171822
1.517264
1.5172496
1.517743
1.5177895
1.5172248
1.5173109
1.517049
1.5170486
1.5173701
1.5215181
1.5192336
1.5189592
1.5175979
1.5183706
1.5186676
1.5195676
1.5197175
1.5161236
1.5172536
1.5172121
1.5171013
1.5166861
1.5168639
1.5166837
1.5169357
1.5166422
1.5165515
1.5169247
1.5157544
1.5153123
1.5146196
1.5149685
1.5151118
1.5154561
1.524521
1.522565
1.523001
1.5223997
1.5241868
1.5221297
1.5230835
1.5189589
1.5174397
1.5205631
1.5199199
1.5198776
1.520506
1.5205243
1.5182128
1.5182585
1.5194417
1.5177729
1.5174295
1.5232377
1.5226876
1.5221904
1.522497
1.5222248
1.5220464
1.5195433
1.5209599
1.5198923
1.52135
1.5204219
1.5222378
1.5221987
1.5223632
1.5220915
1.5222503
1.521437
1.5215942
1.5211817
1.5157759
1.5136688
1.5125164
1.5148097
1.5126187
1.5158441
1.5162987
1.516694
1.515165
1.5135406
1.5166715
1.5140661
1.5111763
1.510393
1.5131297
1.5178996
1.5225115
1.5232329
1.5229301
1.522739
1.5217498
1.5217291
1.5198632
1.5199954
1.5199862
1.5194316
1.5193998
1.521206
1.5209841
1.5192808
1.5194771
1.5181743
1.5186268
1.5186751
1.5185962
1.518373
1.5183991
1.5173717
1.5174492
1.5182021
1.5232302
1.5227899
1.5226494
1.5225278
1.521633
1.5236673
1.5239167
1.5237117
1.5236901
1.5198032
1.5192604
1.5197722
1.5226957
1.5247922
1.5242699
1.522084
1.5229784
1.5180275
1.5223516
1.5175289
1.518018
1.5175127
1.5174352
1.5172197
1.5173093
1.5181117
1.5173508
1.5172622
1.5159087
1.5164484
1.5181485
1.5166193
1.5166681
1.518212
1.5164742
1.515935
1.5159079
1.5156377
1.5169465
1.5152502
1.5176474
1.5181326
1.5172662
1.5172822
1.5170978
1.5193212
1.5164902
1.5133835
1.5150024
1.521327
1.521048
1.5182035
1.5165368
1.5157725
1.5151697
1.5168512
1.5163786
1.5179794
1.5166024
1.5167531
1.5166096
1.5167586
1.5191791
1.5158999
1.5133875
1.5146228
1.5213697
1.5209009
1.5181399
1.5164091
1.5156716
1.5152582
1.5245154
1.5239642
1.5229328
1.5210294
1.5194725
1.5181827
1.5173015
1.5163535
1.5157811
1.5154803
1.5151483
1.5150996
1.5149185
1.5258608
1.5252982
1.524267
1.5233415
1.5216662
1.5195797
1.5181648
1.517118
1.5162911
1.5159307
1.5152419
1.5150307
1.5148803
1.5145819
1.5194834
1.5237334
1.522806
1.5072975
1.5086564
1.5122175
1.5137507
1.5101284
1.5094925
1.5073305
1.5123806
1.50942
1.5100839
1.5059374
1.5063412
1.5061915
1.5132352
1.5232815
1.5154509
1.51629
1.5172298
1.5165907
1.5195743
1.526831
1.5235361
1.5044152
1.50684
1.5060176
1.5067514
1.505265
1.5042138
1.5242737
1.5119736
1.5018896
1.5071495
1.5055019
1.503462
1.506156
1.5040791