/*--------------------------------*- C++ -*----------------------------------*\
  =========                 |
  \\      /  F ield         | OpenFOAM: The Open Source CFD Toolbox
   \\    /   O peration     | Website:  https://openfoam.org
    \\  /    A nd           | Version:  7
     \\/     M anipulation  |
\*---------------------------------------------------------------------------*/
FoamFile
{
    version     2.0;
    format      ascii;
    class       surfaceScalarField;
    location    "1000";
    object      phi;
}
// * * * * * * * * * * * * * * * * * * * * * * * * * * * * * * * * * * * * * //

dimensions      [0 3 -1 0 0 0 0];

internalField   nonuniform List<scalar> 
100795
(
-1.7590972e+42
-8.9149364e+41
-2.0808595e+41
-1.6146018e+42
-9.0280331e+41
-1.0868488e+41
-1.6815735e+42
-1.021515e+42
-3.7129284e+40
-2.2261943e+42
-1.00081e+42
-2.8473164e+41
-1.4560981e+42
-8.9080011e+41
-9.1498661e+40
-1.5411307e+42
-1.0170737e+42
6.0334714e+40
-1.9985582e+42
-9.90475e+41
-1.7728793e+41
-1.4264274e+42
-1.0434477e+42
1.6678489e+41
-2.5073644e+42
-1.1780841e+42
-1.2445825e+41
-2.6198004e+42
-1.1336142e+42
-3.0936966e+41
-2.5178131e+41
-1.885505e+42
-1.1325577e+42
-1.4004802e+42
-9.9520338e+41
7.3515397e+40
-1.7785244e+42
-9.8156866e+41
-1.4012206e+41
-1.4151762e+42
-1.0277135e+42
2.254244e+41
-2.2412125e+42
-1.1966325e+42
3.3981151e+38
-2.3725305e+42
-1.0389363e+42
-2.2957774e+41
-2.4633972e+42
1.5306388e+42
-8.5105111e+41
-2.4352257e+42
-1.2348678e+42
7.5989544e+39
-3.0169418e+42
-1.371706e+42
-1.2383048e+41
-8.2882012e+42
-4.1708444e+42
-8.6105001e+41
-3.8504868e+41
-2.0749562e+42
-1.3627867e+42
7.867752e+40
-1.9887892e+42
-1.1958999e+42
-3.1304786e+41
-1.8154112e+42
-8.9423879e+41
-1.3724733e+42
-1.0070015e+42
1.8055453e+41
-1.9851437e+42
-1.2119301e+42
4.7807868e+40
-2.1208488e+42
-9.8798078e+41
-1.7304719e+41
-2.8908125e+42
1.4252247e+42
-1.0365447e+42
-2.2785772e+42
-1.2543846e+42
1.2652784e+41
-2.7370724e+42
-1.278502e+42
-3.9964389e+40
-7.2986921e+42
-3.6291126e+42
-7.3253268e+41
-5.8747266e+42
8.321094e+41
-1.2276196e+42
1.9152839e+42
1.4153193e+42
-5.6392041e+41
-2.9701017e+42
-1.473525e+42
-2.8754915e+40
-8.693367e+42
-4.3923181e+42
-5.5739255e+41
-5.93693e+42
-6.248428e+41
-5.685011e+41
-1.9974804e+42
-5.5492455e+41
-1.5760275e+42
1.5173501e+39
-2.4430359e+42
-1.5399063e+42
-4.4332398e+41
-1.8772951e+42
-9.9616189e+41
2.4783182e+41
-1.9585594e+42
-1.323627e+42
-1.2684232e+41
-1.8460077e+42
-1.1148617e+42
-5.7141429e+41
-1.6700231e+42
-6.1357012e+41
-2.9475521e+42
8.4842972e+41
-1.136344e+42
-2.1416241e+42
-1.2702489e+42
1.0192057e+41
-2.4209654e+42
-1.2663126e+42
1.0033339e+40
-6.0195776e+42
-3.1278841e+42
-6.598213e+41
-5.2337623e+42
8.8471539e+41
-1.3548397e+42
6.6601235e+41
1.5240387e+42
-6.3874054e+41
-2.8352014e+42
-1.3666272e+42
7.9753346e+40
-7.9907705e+42
-3.9039093e+42
-4.6776172e+41
-5.2538062e+42
-9.6198202e+41
-5.7472381e+41
-7.4793535e+42
2.6975645e+41
-1.3832165e+42
-8.929766e+41
1.2550967e+42
-7.7565138e+41
3.3506176e+42
2.4270242e+42
-8.9149052e+40
-9.7911299e+42
-4.0930826e+42
-5.7026063e+41
-7.686685e+42
-2.0599065e+42
-5.5156323e+41
-5.4651677e+42
1.7078756e+42
-3.0711588e+41
-2.3997518e+42
-1.9063061e+41
-1.8265466e+42
-5.0750985e+42
-1.3158774e+42
-3.9589189e+42
-1.723956e+42
-5.4826829e+41
-1.1434112e+42
4.3479887e+40
-2.5811043e+42
-1.799205e+42
-2.7497443e+41
-2.029773e+42
-1.2392973e+42
-6.7355541e+41
-1.6206602e+42
-6.9097428e+41
1.0913164e+42
-2.2174226e+42
-2.943984e+42
-6.2282317e+40
-1.7764754e+42
-1.3211187e+42
-4.9281553e+41
-1.7875032e+42
-8.9426276e+41
-9.2348232e+41
-1.0680758e+42
-3.6135971e+41
-4.6899176e+42
4.6966592e+41
-1.4353303e+42
-3.073004e+41
9.8933199e+41
-6.5110284e+41
-2.7813304e+42
-1.3478095e+42
1.2954667e+41
-6.8388192e+42
-3.797006e+42
-4.7279485e+41
-4.4119518e+42
-1.6831121e+42
-4.3329121e+41
-6.9577094e+42
4.41686e+41
-1.4452421e+42
-9.8192554e+41
1.0987488e+42
-8.4059933e+41
1.4373951e+42
2.4014393e+42
-2.5516456e+41
-9.3645225e+42
-3.7764099e+42
-4.7435293e+41
-6.2636876e+42
-2.4321164e+42
-4.2062217e+41
-6.9027845e+42
1.2484759e+42
9.8646156e+40
-2.4543719e+43
-1.4408507e+42
-3.7164544e+42
-8.8018017e+41
6.7130875e+41
-8.0621527e+41
-1.1254935e+42
2.4029114e+42
-3.3772324e+41
2.6503373e+41
1.6010276e+42
-8.639214e+40
-5.830399e+42
-2.9671486e+42
-7.6132327e+41
-3.2444166e+42
6.5015554e+41
3.2130646e+39
-1.1548974e+42
3.2862328e+42
7.390671e+41
-2.8131268e+42
-5.3672249e+40
-2.2708077e+42
-6.166203e+42
-1.178529e+42
-4.759824e+42
-1.9671599e+42
-3.9470125e+41
-1.463628e+42
-4.9874142e+42
-3.1600375e+42
-8.7108687e+41
-4.0319638e+42
-7.7616884e+41
-2.8701555e+42
-1.4728253e+42
-6.9488286e+41
-8.5752378e+41
4.7189432e+41
-2.9127217e+42
-3.7389012e+42
-3.3929252e+41
-2.0795086e+42
-1.4724675e+42
-6.0412572e+41
-1.7971645e+42
-9.5149194e+41
-9.6357361e+41
-1.0418672e+42
-4.9130299e+41
8.7288079e+41
-1.3065489e+42
-1.4594574e+42
2.0425831e+40
-1.7161484e+42
-3.1051721e+42
-5.1598418e+41
-1.7865028e+42
-1.1857597e+42
-8.9836585e+41
-1.2115414e+42
-6.1719409e+41
-8.6723996e+41
-6.2731056e+41
-2.0115655e+41
-6.5725678e+42
3.5105097e+41
-1.6143402e+42
-1.1170778e+42
5.2025459e+41
-8.311109e+41
2.7705463e+41
1.2200245e+42
-3.8063955e+41
-8.7621774e+42
-3.7280407e+42
-5.4176555e+41
-4.9856405e+42
-3.1150698e+42
-3.1888107e+41
-7.0896162e+42
-1.0175002e+42
1.0672748e+41
-2.2397339e+43
-1.5801249e+42
-3.9009869e+42
-8.5160376e+41
4.5480891e+41
-8.2988659e+41
-1.183308e+42
2.0454354e+42
-4.2678412e+41
-1.0128556e+42
1.663518e+42
-8.6794407e+40
-5.1610724e+42
-3.262352e+42
-3.1344423e+41
-4.9463575e+42
2.0928173e+42
4.3698419e+41
-2.2800691e+42
-4.6731532e+41
1.6109167e+42
1.7610821e+43
-2.8081504e+42
-1.4837516e+42
5.9891042e+42
7.9935698e+41
-1.8879162e+42
-1.4975558e+42
2.0030025e+42
-2.9609691e+41
-3.6940175e+42
1.2348051e+42
-2.068752e+41
-6.7804403e+42
-4.4693547e+41
-1.4023511e+41
6.2545958e+42
1.6129682e+42
1.9712924e+41
1.5565906e+42
-2.0876969e+41
3.1209901e+41
-6.3448292e+41
-1.0650483e+42
4.8384714e+41
-4.1207084e+41
-3.4705864e+42
-5.0311353e+42
-6.9859653e+42
-1.6096375e+42
-6.3864409e+42
-2.3385326e+42
-3.606815e+41
-1.8780531e+42
-6.871025e+42
-3.3837331e+42
-8.9678668e+41
-4.8885026e+42
-7.0903275e+41
-3.5889758e+42
-1.7484909e+42
-6.4446202e+41
-1.1476524e+42
-5.1151952e+42
-2.0886541e+41
-2.8059395e+42
-8.5784001e+42
-4.7402811e+42
3.6394927e+41
-3.4395008e+42
-4.7986471e+41
-2.4913445e+42
-1.0072053e+42
-9.5601698e+41
-6.9292558e+41
2.0510594e+41
-1.7241127e+42
-1.6379082e+42
-4.9084703e+41
-2.0195288e+42
-3.2876266e+42
-6.9489949e+41
-1.8640805e+42
-1.2266581e+42
-9.5018031e+41
-1.2062816e+42
-7.3524947e+41
-9.0151875e+41
-7.1931984e+41
-3.6438747e+41
5.1602668e+41
-4.3025414e+41
-1.5637935e+42
-2.3985761e+41
-1.1636037e+42
-2.043445e+42
-1.4756319e+42
-1.6046206e+42
-3.0547919e+42
-8.8566789e+41
-1.3249947e+42
-9.2376288e+41
-8.9014125e+41
-7.3087336e+41
-4.0578245e+41
-6.4071269e+41
-5.2857376e+41
-1.6311343e+41
-1.9060785e+43
-2.2344629e+42
-4.4790749e+42
-1.2635819e+42
1.8463825e+41
-8.6674376e+41
-1.2887377e+42
9.9854138e+41
-5.0420211e+41
-2.1208443e+42
7.4292433e+41
-1.2413145e+41
-4.5385706e+42
-3.8980873e+42
-3.8124586e+41
-6.1419073e+42
-4.8522012e+41
3.4438886e+41
-1.6804659e+42
-2.3968921e+42
1.0065437e+42
1.5377935e+43
-1.8852516e+42
-7.2434035e+41
2.6910529e+42
1.0559435e+42
-1.2040662e+42
-2.0885518e+42
2.1661244e+42
-3.5958176e+41
-3.9203277e+42
1.6568875e+42
-1.9386682e+41
-6.5699314e+42
-8.0259193e+41
-1.7021912e+41
8.7003914e+42
-1.1619923e+42
4.9556165e+41
1.4220469e+42
-9.8160157e+41
1.0858067e+42
3.191851e+42
-4.6313436e+42
2.0467138e+42
6.6266628e+42
2.5837887e+42
4.1029986e+42
1.8118593e+43
2.0361705e+42
1.7725553e+42
-1.3864455e+43
3.8449579e+42
-1.83853e+42
-8.4834072e+42
-6.1450087e+41
3.1032978e+40
-4.9645755e+42
-1.3406526e+42
-1.6572384e+41
3.7677992e+42
1.9889112e+42
1.3970391e+42
2.8891346e+42
-2.0439949e+42
-9.0757351e+40
-1.2984352e+42
9.2153779e+41
-1.6633337e+40
1.0772739e+42
-5.7950506e+41
2.6058229e+41
-5.8566112e+42
-1.2335383e+43
-8.2668197e+42
-1.9875217e+41
-1.8776753e+42
-2.4526514e+42
-5.8592156e+41
-2.6017444e+42
-4.6728634e+42
-8.0015317e+42
-3.4125862e+42
-1.6050825e+42
-5.7563983e+42
-1.0105455e+42
-4.8686872e+42
-2.067032e+42
-6.7314734e+41
-1.5812774e+42
-6.0547604e+42
-1.6397516e+41
-2.9891869e+42
-1.019742e+43
-6.0649012e+42
6.4525977e+41
-4.1316362e+42
-4.8620262e+41
-3.0551451e+42
-1.2082081e+42
-9.6966618e+41
-9.2718698e+41
-5.9645934e+42
-2.9485027e+42
-6.4572159e+40
-4.7780183e+42
-6.3299673e+40
-2.6362264e+42
-6.1817318e+42
-1.0121145e+42
1.7246006e+42
-2.7217234e+42
-6.5525004e+41
-2.4385948e+42
-7.9652146e+41
-9.4912529e+41
-5.6002055e+41
9.9683757e+41
-7.5795379e+41
-2.7357541e+42
-3.7969121e+41
-1.3491351e+42
-2.1685034e+42
-1.6371325e+42
-1.704935e+42
-3.2853073e+42
-9.5183524e+41
-1.320667e+42
-1.0461197e+42
-9.5268191e+41
-8.3814593e+41
-5.5397288e+41
-6.5605925e+41
-6.0617198e+41
-2.9321842e+41
-8.0281779e+41
-3.4147694e+42
-2.1177418e+41
-1.3803167e+42
-4.041476e+41
-2.5547628e+42
-1.4441797e+42
-1.0368763e+42
-2.5437387e+42
-2.28422e+42
-1.3994156e+42
-2.6827501e+42
-8.8357498e+41
-8.5297947e+41
-6.7417137e+41
-7.2221628e+41
-5.7709401e+41
-2.82572e+41
-5.3484186e+41
-4.3085905e+41
-2.6171852e+41
1.1442521e+43
-1.657847e+42
-5.3926624e+41
-9.8618292e+41
4.511059e+41
-1.0683129e+42
-3.0905564e+42
1.6143237e+42
-4.8053224e+41
-4.1501478e+42
6.9421094e+41
-2.2568709e+41
-5.9413715e+42
-1.6611746e+42
-1.9701073e+41
8.6599196e+42
-1.6032528e+42
7.7727356e+41
5.8615906e+41
-2.2508218e+42
1.0341979e+42
3.8839605e+42
-2.3119819e+42
1.3273825e+42
6.450221e+41
2.3988292e+42
2.7535069e+42
1.2265198e+43
2.2199982e+42
1.7470738e+42
-1.3356423e+43
2.0663651e+42
-1.6123625e+42
-6.9256712e+42
-3.5782603e+41
9.7378938e+40
-6.1711819e+42
2.9686908e+41
-8.6728775e+40
4.5730613e+41
2.0830611e+42
1.1899408e+42
3.1279401e+42
-1.4627033e+42
7.3785251e+41
-3.7437861e+42
-1.9299742e+42
8.2989659e+41
3.125453e+42
-3.7080856e+41
4.8889205e+41
-2.3897203e+43
1.5564461e+42
1.2381771e+42
1.1939692e+43
4.4213868e+41
-1.3021734e+40
-1.7160939e+43
3.0556283e+42
1.2862315e+42
7.3930418e+40
1.283443e+42
1.959123e+42
-1.351559e+43
-3.0952892e+42
6.6194881e+39
1.9291662e+42
2.158934e+42
1.2163857e+42
1.926464e+42
4.8129288e+40
3.4517426e+41
-4.266336e+42
2.2637354e+42
1.715357e+41
1.6249123e+42
-1.5675743e+42
6.5849342e+40
9.0918935e+41
8.3661475e+39
-4.4779609e+40
-1.3393789e+42
9.6398235e+41
-2.0402086e+42
-3.1618625e+42
-6.0674931e+42
-9.4483441e+42
-1.4327875e+42
-5.8798429e+42
-2.1391058e+42
1.6128829e+42
-7.9247007e+41
-4.7918046e+42
6.675332e+40
-1.7866556e+42
-3.7141897e+42
-1.4369648e+42
-2.3036876e+42
-4.6363974e+42
-6.8138311e+42
-2.642443e+41
-3.3998005e+42
-1.1568315e+42
-3.5561095e+42
1.5703276e+42
-4.8315128e+42
-7.1130191e+41
-4.1306647e+42
-1.4313948e+42
-1.0507263e+42
-1.2592148e+42
-8.0597818e+42
-4.1076061e+42
-2.6110145e+40
-5.2572541e+42
-2.6481957e+40
-2.9696203e+42
-5.3663374e+42
-1.4387209e+42
1.854626e+42
-3.1374487e+42
-7.2736638e+41
-2.8817561e+42
-9.1375432e+41
-1.0405659e+42
-7.2210732e+41
-3.9645468e+42
1.7157865e+41
-2.7072617e+42
-4.1146642e+42
-2.1845682e+42
1.9134383e+42
-3.4771432e+42
-4.2929285e+41
-2.5588956e+42
-7.1073263e+42
3.1021286e+42
2.7451571e+42
-2.3525957e+42
-9.2155062e+41
-2.2316037e+42
-6.9609892e+41
-6.9472336e+41
-4.1936325e+41
-4.5690157e+41
-4.8243445e+42
-4.2971301e+41
-1.0812481e+42
-6.7187793e+41
-3.7120646e+42
-1.213945e+42
-1.1437237e+42
-2.960004e+42
-2.4097418e+42
-1.4421268e+42
-3.0383792e+42
-9.9459754e+41
-9.6089998e+41
-8.1240955e+41
-7.9138042e+41
-6.7927816e+41
-4.1172449e+41
-4.1375227e+41
-5.0485552e+41
-3.7619742e+41
-2.6606752e+42
-3.3746065e+41
-3.4483826e+42
-5.025353e+42
-4.820964e+42
8.277869e+40
-2.573822e+42
-5.5974327e+41
-2.7997574e+42
-2.1764526e+42
-1.0582331e+42
-2.670996e+42
-2.1478971e+42
-1.0426483e+42
-2.2340839e+42
-7.8642777e+41
-6.7033697e+41
-4.3894735e+41
-6.0799066e+41
-4.7202748e+41
-3.1209792e+41
-4.298257e+41
-3.0480925e+41
-4.9754122e+41
-3.9427233e+42
1.9225904e+42
1.4584277e+42
6.5019485e+42
2.0897563e+42
1.5309552e+42
-1.1933864e+43
5.8413494e+41
-1.4606836e+42
-6.3524471e+42
-3.3223513e+41
-2.7318795e+40
-6.0163576e+42
-1.9634689e+42
-7.8218271e+40
-1.6920378e+42
9.9267934e+41
1.0079522e+42
2.4504035e+42
-1.7370624e+42
9.410153e+41
-2.3793702e+42
-3.5401207e+42
8.9797124e+41
3.6566047e+42
5.602863e+41
4.0562731e+41
-1.7704196e+43
-2.1623842e+42
5.8820635e+41
1.8518419e+43
-1.1613202e+42
-5.9752303e+41
-2.0990797e+43
1.9930345e+42
2.1211569e+42
-6.0143126e+42
6.4610662e+41
3.4719262e+42
-1.2312598e+43
-9.5437104e+41
1.4562839e+41
-4.8740915e+41
3.1375736e+42
1.2753297e+42
2.3597719e+42
3.9521642e+40
5.2316133e+41
-5.6117107e+42
-9.1353497e+41
1.0668157e+42
3.2819047e+42
-1.4250868e+42
2.2755553e+41
1.7502206e+42
8.1446971e+40
-5.2985762e+40
1.4208005e+43
-1.4502356e+42
-1.4777076e+42
-3.1267664e+43
-1.5232916e+42
-4.3571495e+41
9.9796425e+42
-1.2599853e+42
1.1664033e+42
-1.4112432e+43
-7.4632886e+41
-1.3877256e+42
2.0736803e+42
-3.2229009e+42
1.2074829e+42
-7.460423e+42
8.9928096e+41
1.3827222e+42
1.7477642e+42
3.3680471e+41
4.9776716e+41
1.2959211e+42
7.4289012e+40
5.3502594e+40
1.9590706e+42
-2.2535075e+42
-8.9832099e+40
1.123723e+42
-4.2077492e+41
1.2047713e+41
-1.2509665e+42
6.9500575e+41
-3.8677953e+41
-2.0306884e+42
3.6870022e+42
2.3494701e+42
1.214844e+41
-3.0553565e+42
-6.0777854e+42
6.257807e+41
-4.7759856e+42
-3.2654621e+42
-7.6385813e+41
-3.0850744e+42
-8.0316304e+42
-1.8639838e+42
-4.9935733e+42
-8.8592541e+42
-4.1613683e+42
-8.9422843e+42
6.4356288e+41
-5.3671872e+41
-6.9499951e+42
-1.1513276e+41
-6.8128218e+41
-9.2276692e+41
-6.0556572e+42
-7.6993638e+41
-1.7145629e+42
-4.747326e+42
-2.6693424e+42
-1.9388501e+42
-3.8693829e+42
-6.582536e+42
-5.8609308e+42
5.6334943e+41
-5.4128491e+42
-1.2588393e+40
-3.9428839e+42
-1.6197739e+42
-1.4214039e+42
1.6955705e+42
-3.6338361e+42
-1.0127132e+42
-3.6722965e+42
-1.0633226e+42
-1.1537599e+42
-9.5052056e+41
-4.9348704e+42
1.5031037e+41
-3.3140628e+42
-4.372911e+42
-3.0711062e+42
1.8644827e+42
-3.7248038e+42
-4.9589335e+41
-2.9533694e+42
-1.168975e+43
7.3480439e+41
3.3229009e+42
-2.6591699e+42
-1.0517226e+42
-2.5640662e+42
-7.9675148e+41
-8.7274183e+41
-5.4010866e+41
-3.9595208e+42
-2.859936e+42
1.6997874e+42
-2.9198106e+42
-1.610134e+41
-2.7602248e+42
-5.4625329e+42
2.1340806e+42
2.6261021e+42
-2.5674302e+42
-8.9995186e+41
-2.3603082e+42
-1.6605078e+42
3.9573964e+42
1.3162429e+42
-2.1823555e+42
-1.0340789e+42
-1.3947391e+42
-6.1175211e+41
-3.1589319e+41
-4.5839815e+41
-2.7304733e+42
-6.3108864e+41
-4.7953767e+42
-6.661603e+42
-4.9478965e+42
1.3803847e+41
-2.6149664e+42
-8.2992502e+41
-3.9846529e+42
-2.1709132e+42
-1.1621621e+42
-3.2455832e+42
-2.4717474e+42
-1.1723887e+42
-2.5032356e+42
-9.3779131e+41
-7.8222813e+41
-5.5814718e+41
-5.3157515e+41
-5.6802535e+41
-4.2499871e+41
-3.4755674e+41
-3.7339964e+41
-6.2840039e+41
-5.0586119e+42
-3.9238191e+42
2.5789868e+40
-2.862735e+42
-4.026188e+41
-3.2056918e+42
-8.3635639e+41
-2.4519513e+42
1.1618399e+42
-2.5023049e+42
-8.7951656e+41
-2.7105758e+42
-2.1085124e+42
-1.0324051e+42
-2.4475146e+42
-2.2324809e+42
-8.7432654e+41
-1.4969393e+42
-7.0324841e+41
-5.6806373e+41
-3.5817217e+41
-4.4569483e+41
-1.8319226e+41
-5.8011438e+41
-2.9723313e+41
-2.3854318e+41
-5.5293871e+41
-8.3945035e+42
-5.0970844e+42
-2.0023525e+41
2.2305578e+43
-2.1019683e+42
3.5740239e+41
-2.2959258e+43
7.2749252e+40
1.6896049e+42
-9.8940127e+42
-4.5702561e+41
2.5437967e+42
-1.1444327e+43
-2.9749913e+42
1.1592926e+41
-2.8966928e+42
2.0600622e+42
1.2636609e+42
2.869146e+42
-3.4571579e+41
6.6651026e+41
-5.1944264e+42
-4.3944634e+42
1.3780862e+42
5.136488e+42
-6.2173684e+41
2.2562107e+41
2.2371198e+42
3.3888026e+41
1.0073511e+41
1.7291332e+43
-2.7963045e+42
-3.6106871e+42
-2.169763e+43
-4.8331497e+42
-2.1556342e+42
1.1145177e+43
-2.642062e+42
1.525139e+42
-9.0596802e+42
-3.9893932e+42
1.4426374e+41
3.0103786e+42
-2.0993771e+42
3.6802193e+42
-6.4801667e+42
1.2618848e+42
1.0410517e+42
1.7423659e+42
5.1043011e+41
8.0982649e+41
8.4477139e+41
2.4207366e+41
2.6206008e+40
6.0830251e+42
-4.7217917e+42
2.3981315e+41
1.7298556e+42
-4.5514641e+41
1.5794543e+41
-6.9174784e+41
7.7177477e+41
-7.5304755e+41
2.1280732e+43
-2.9481612e+42
-1.627962e+42
7.8765615e+42
6.7320454e+41
5.9356521e+41
6.4511087e+42
-1.4789756e+41
-5.214564e+41
7.9705246e+42
-2.1214927e+42
1.3000159e+42
-3.1333005e+41
1.1368254e+42
-6.6435653e+41
-4.0943835e+41
-1.4615104e+42
2.1016007e+42
1.3340529e+42
5.6757952e+41
5.6180418e+41
2.5819964e+42
6.8588643e+40
3.2428991e+41
6.1202578e+41
1.4443946e+42
-4.5267744e+41
9.2243792e+41
-6.5028978e+41
1.2072102e+41
1.6758824e+42
-7.8172312e+41
-3.5968667e+41
-1.7399108e+43
1.0714498e+43
-7.426562e+40
-8.9874096e+42
2.8511293e+42
-2.3554852e+42
-1.9751016e+43
-3.2826118e+39
-1.1377459e+42
6.2610034e+42
-7.9965705e+41
-1.0880573e+43
7.7070388e+41
-3.388158e+42
-5.9777364e+42
-2.8537215e+40
-4.390322e+42
-8.9357521e+42
-3.3384834e+42
9.8445081e+42
8.3727745e+42
-3.234876e+42
3.292463e+41
-9.8030045e+42
-1.2379246e+42
-3.5967446e+42
-8.9604738e+42
-2.5888405e+42
-4.0423178e+42
-8.5312802e+42
-2.109686e+42
-1.0674435e+43
2.9969726e+42
-2.4060305e+42
-7.7023387e+41
-7.4269673e+42
-1.1265945e+43
-7.3069169e+42
3.5180045e+41
-2.5679658e+42
-1.3120198e+42
-6.505184e+42
-2.2731654e+42
-1.7836954e+42
-4.800227e+42
-3.1498882e+42
-1.4638279e+42
-2.7907682e+42
-5.8536518e+42
4.202848e+41
-5.3750414e+42
-3.8397494e+42
-3.5900616e+42
2.1987824e+42
-3.8105056e+42
-6.8972552e+41
-4.1801531e+42
-1.5280137e+43
-2.0224134e+42
2.1139417e+42
-3.1393234e+42
-1.3908072e+42
-2.9551123e+42
-9.1345965e+41
-1.0928168e+42
-6.7880236e+41
-5.1408375e+42
-3.4895489e+42
1.7499382e+42
-3.2807535e+42
-2.2501844e+41
-3.223973e+42
-7.1138461e+42
1.650813e+42
2.5996218e+42
-2.8044795e+42
-1.0203561e+42
-2.7476915e+42
-4.6977505e+42
1.0422041e+43
1.0747854e+42
-2.6886836e+42
-1.3859482e+42
-1.5445072e+42
-6.9287124e+41
-4.4131682e+41
-5.4925602e+41
-2.6125243e+42
1.4552151e+41
-3.0906358e+42
-4.4576991e+42
-1.5398492e+41
3.0517789e+42
-2.3968987e+42
-8.8057742e+41
-2.4158616e+42
-5.723243e+42
3.2455624e+42
3.6631447e+42
-3.2464621e+42
-1.0516204e+42
-1.5598822e+42
5.112533e+41
3.5287637e+42
-8.3024328e+41
-1.5687049e+42
-7.2272119e+41
3.4471048e+41
-1.5567974e+42
-6.1322742e+42
-4.3836458e+42
-1.216886e+41
-3.4044995e+42
-7.2516124e+41
-4.3583416e+42
-1.7640056e+41
-5.0964577e+42
1.6777913e+42
-2.9043175e+42
-1.10486e+42
-3.6398585e+42
-2.4126517e+42
-1.1680797e+42
-2.9457835e+42
-2.7528059e+42
-1.1066478e+42
-1.6586451e+42
-6.9785432e+41
-6.6779289e+41
-4.6378367e+41
-3.3835301e+41
-2.1282936e+41
-6.9288821e+41
-3.8616211e+41
-3.3245815e+41
-6.6128113e+41
-3.8737948e+42
-6.9476399e+39
-3.6582647e+42
-3.6451297e+42
-3.4096462e+42
2.1433196e+42
-2.0047094e+42
-6.6917106e+41
-3.2624403e+42
4.002339e+41
3.9318814e+42
-2.0111504e+42
-1.0669992e+42
-2.4902851e+42
-2.8380961e+42
-7.4161554e+41
-1.8409256e+42
-2.3275952e+42
-5.9633801e+41
-1.3175016e+42
-4.8077622e+41
-2.6288556e+40
-6.8926388e+41
-4.09468e+41
-1.5250828e+41
-6.3388545e+41
-2.6977126e+41
-2.4912136e+41
-5.8402121e+41
1.894254e+43
-4.9157498e+42
-3.934477e+42
-9.9500331e+42
-7.7610731e+42
-4.1139929e+42
1.2469136e+43
-4.2813252e+42
2.8577734e+42
-6.0896678e+42
-7.231666e+42
1.5568076e+42
2.1790431e+42
-3.8397386e+42
4.2398864e+42
-6.9662247e+42
1.7113384e+42
9.5070552e+41
1.5670037e+42
1.8910006e+41
9.0421616e+41
-2.9124896e+40
5.3952805e+41
1.8755831e+41
9.4445989e+42
-2.9882438e+42
3.8310563e+41
1.9634512e+42
1.0836797e+41
2.2251547e+41
2.9409458e+42
-1.9883468e+42
-1.3162543e+42
2.115344e+43
-4.0132417e+42
-3.4888641e+42
-6.1192529e+41
1.1555925e+42
1.0802211e+42
5.2892723e+40
7.7310481e+41
-5.1985355e+41
8.9273297e+42
-4.6461202e+42
3.1150885e+42
-4.9486037e+42
-9.0863192e+41
9.6646529e+41
9.3465385e+41
6.39011e+41
2.9589933e+42
1.569818e+42
4.9777822e+41
8.1795006e+41
2.4326472e+42
5.0660672e+41
6.9464441e+41
1.3440581e+41
3.7070323e+42
-5.9633587e+41
1.6037413e+42
-9.9423891e+41
9.7586091e+40
3.3192159e+42
-1.5584245e+42
8.4415926e+41
-1.8902567e+43
1.1280829e+42
-1.3114261e+42
1.1539696e+43
-4.5986749e+42
-2.7342378e+41
1.9715606e+43
-5.4607724e+42
-1.2205755e+43
9.3049702e+42
-2.0062455e+42
1.57076e+42
2.0138902e+43
-1.7376866e+43
2.4510114e+41
9.7174408e+41
-1.225066e+42
1.5015309e+42
2.8282118e+42
-1.8816584e+42
1.3728432e+42
4.9814055e+41
1.3075505e+42
1.5845632e+42
1.9618773e+42
1.3574884e+41
4.4848578e+41
2.8403645e+42
1.3201991e+42
-4.0498672e+41
8.6373524e+41
-1.2765259e+42
-3.3711426e+41
2.3701752e+42
-1.5176231e+42
-1.0279021e+42
-3.5472629e+43
7.2218996e+42
-7.1369218e+41
-7.6304021e+42
4.4318141e+41
-5.6880224e+41
1.5386798e+42
-5.8217138e+42
-1.0586542e+43
-1.3413531e+43
-6.5126505e+42
-8.1346332e+41
5.8680245e+42
2.0440789e+42
-3.2358019e+42
-1.1611152e+43
5.2299409e+42
-1.4991856e+43
3.7318296e+42
-1.0453413e+43
-5.1657995e+42
1.3228101e+43
-7.995406e+42
-5.091456e+41
-1.2441943e+42
5.8993062e+42
-1.4335883e+42
-3.7886173e+41
-4.4607401e+42
-6.7663282e+42
-1.8524336e+42
-4.048253e+42
-9.4343863e+42
-3.6421527e+42
1.4386481e+43
7.9879379e+42
-3.0551606e+42
-2.7764377e+41
-9.4184207e+42
-3.719696e+42
-1.7817794e+42
-1.0466229e+43
-2.7501157e+42
-3.5719423e+42
-8.9538983e+42
-3.5131668e+42
-3.2757372e+42
-8.0316173e+42
-1.0093344e+43
-8.7899101e+42
1.2793314e+43
-9.2664877e+42
-4.810619e+42
-1.3233589e+41
-4.0762106e+42
-1.03488e+42
-7.0324039e+42
2.1879458e+42
-1.0617206e+43
1.6384243e+42
-3.4549272e+42
-1.7357942e+42
-6.0024616e+42
-3.2770339e+42
-1.6368647e+42
-3.7628292e+42
-3.2504031e+42
-1.4169018e+42
-1.7897801e+42
-5.8957296e+42
-4.679618e+42
2.2646641e+42
-4.1902548e+42
-1.6015552e+41
-4.9950979e+42
-1.1017098e+43
1.8590575e+42
2.2204811e+42
-3.3335212e+42
-1.5059699e+42
-3.5359384e+42
-1.7687346e+42
8.3923193e+42
2.3726553e+41
-3.1534791e+42
-1.9142528e+42
-1.6689059e+42
-7.6624925e+41
-6.5936517e+41
-6.4391057e+41
-3.2536496e+42
3.1997275e+41
-3.3934164e+42
-4.8936401e+42
7.659951e+41
3.0703417e+42
-2.7795372e+42
-9.2835389e+41
-2.9333139e+42
-4.4841062e+42
5.1439485e+42
6.6384395e+42
-3.8697607e+42
-1.246549e+42
-2.2637995e+42
7.5400703e+41
2.7954513e+42
-9.0260223e+41
-1.9134623e+42
-3.1173976e+41
5.1714756e+41
-1.8157219e+42
1.0729977e+41
-2.8442421e+42
1.3689216e+42
-1.1833955e+42
-1.2236337e+42
-2.5837855e+42
-6.2583443e+42
2.870133e+42
2.7912398e+42
-2.9055841e+42
-1.2068562e+42
-1.6330404e+42
-5.6070399e+42
-2.4287244e+42
3.0746612e+42
1.7238186e+42
1.3279924e+42
-4.4117376e+42
-9.1318707e+41
-1.55376e+42
1.14078e+42
-8.9238288e+41
-1.2333902e+42
-4.6335347e+41
-1.5428873e+42
-4.518177e+42
-1.9111545e+41
-4.273338e+42
-6.6127609e+42
-5.2896426e+42
3.039075e+42
-2.587135e+42
-9.3197039e+41
-3.9488097e+42
-1.8978402e+41
3.8348074e+42
-2.4439975e+42
-1.2062615e+42
-3.1687312e+42
-3.4817718e+42
-8.7321888e+41
-2.5357204e+42
-2.230757e+42
-7.5469053e+41
-1.6686192e+42
-3.1212953e+41
-1.7520248e+40
-8.2772888e+41
-4.7952838e+41
-2.1954931e+41
-7.3573037e+41
-3.3732148e+41
-2.9139814e+41
-6.3457431e+41
-3.439604e+42
-3.6119775e+42
2.5799529e+41
-2.925394e+42
-4.5655847e+41
-3.4535659e+42
-1.6599973e+42
-1.0683808e+41
-1.8850112e+42
2.2104745e+42
-1.5934355e+42
-9.7751366e+41
-3.0446391e+42
1.5694234e+42
-2.6628377e+42
-8.3689919e+41
-1.8888035e+42
-2.9354098e+42
-4.9131481e+41
-1.5063357e+42
-4.9044177e+41
-1.7654323e+42
-6.5053477e+41
1.030256e+42
-2.066657e+42
-3.1562904e+41
-2.3098625e+41
-6.2476511e+41
-2.9568668e+41
-2.5274058e+41
-5.6731432e+41
1.906592e+43
-1.8498523e+42
-8.7394124e+42
-1.5513474e+43
2.797315e+42
3.8884779e+42
-9.6953366e+42
-1.652687e+42
5.5286776e+40
1.0930213e+43
-7.6482597e+42
4.6634205e+42
-5.1880133e+42
-2.5050273e+42
1.3130509e+42
3.8560011e+42
9.5827651e+40
2.9340446e+42
1.4173735e+42
4.3288227e+41
8.5936807e+41
1.0417826e+42
1.2445703e+42
1.5900369e+42
-2.0542652e+42
7.2333942e+42
-1.0890748e+42
2.3731585e+42
-5.5357642e+41
2.7561154e+41
4.2341069e+42
-2.0420643e+42
-6.3905814e+41
-1.2599277e+43
-9.6267946e+42
-3.9513901e+42
1.1792841e+43
-3.5542762e+42
4.4354162e+41
3.5853548e+43
-4.2548108e+42
-1.4598819e+43
5.4196066e+42
-3.093562e+42
3.4130865e+42
3.4387089e+43
-1.6230135e+43
5.5353298e+41
4.5760736e+42
-3.2710372e+42
3.4208249e+42
4.0893969e+42
-2.5922559e+42
1.3032562e+42
1.4768423e+42
2.9091546e+41
2.187155e+42
1.6966438e+42
6.9191845e+41
8.9787487e+41
3.8122709e+42
3.7029139e+42
-2.7315494e+41
7.1682125e+41
-1.8172378e+42
-5.1001029e+41
4.336962e+42
-3.0315866e+42
-3.9636893e+41
-2.7576458e+43
-3.6353263e+42
-2.288619e+42
-9.0221011e+42
-2.9864727e+42
-3.3246286e+41
-1.1380973e+43
6.1895005e+42
1.4542381e+42
5.9851353e+42
-3.2045441e+41
1.3196575e+42
1.1246916e+44
6.8667975e+42
3.706755e+42
3.6108495e+42
-2.4717248e+42
2.2697115e+42
1.5945296e+43
-2.5995043e+42
-4.71025e+42
-6.1358827e+42
-1.7049835e+42
1.6704526e+42
1.9822885e+42
-9.1959514e+41
1.9274046e+42
1.607643e+42
1.034962e+43
-2.3008375e+41
-9.9292003e+41
1.4519111e+42
-2.3640317e+42
-5.7913216e+41
3.5565913e+42
-1.2116858e+42
-2.6642244e+40
-7.8768614e+42
1.3285655e+42
1.5070387e+41
-3.9098889e+42
1.7203859e+42
-6.1135022e+41
-3.7693432e+42
5.2152201e+42
9.4083176e+41
4.67572e+41
-1.0572882e+43
-7.6652663e+42
2.6252963e+42
-3.0032934e+42
4.5479063e+40
-4.0261995e+41
-5.5913647e+42
-1.0635205e+43
3.9268735e+42
-3.3226791e+42
-1.3408573e+42
-1.1974132e+43
-1.4588561e+43
3.1210117e+42
-3.1348598e+41
2.3152519e+42
6.7463697e+42
7.2087426e+42
-9.5449349e+42
6.09475e+41
-2.6397302e+43
-3.3057377e+42
-5.4374296e+42
3.9019922e+42
-9.7587063e+42
1.17616e+43
-1.9991289e+43
-6.0424735e+42
6.3690425e+42
3.0601974e+42
6.8084839e+42
7.3619463e+42
-1.9355198e+42
-1.8285925e+42
-5.8498993e+42
-2.5956296e+42
-3.328311e+42
-7.640705e+42
-3.7189086e+42
-3.0035023e+42
-9.558645e+42
-9.9082835e+42
9.673107e+42
9.0600119e+42
-1.0824503e+43
-1.5314513e+43
7.8049718e+42
-5.4238624e+42
-1.1694644e+42
-8.6830737e+42
-4.0291878e+42
-2.8790557e+42
-1.0584807e+43
-3.1807634e+42
-3.2312022e+42
-9.0946841e+42
-5.1782821e+42
-4.0245727e+42
-5.2326788e+42
-1.4344365e+41
1.2350831e+43
6.6298724e+42
-5.5536789e+42
-3.3090893e+41
-4.4790917e+42
-9.3540941e+42
-1.0087393e+43
2.0791799e+42
-3.8251945e+42
-1.3712843e+42
-6.1588369e+42
2.215887e+42
6.5012383e+41
-3.5558317e+42
-1.7371853e+42
-4.7902522e+42
-4.0879388e+42
-1.1085188e+42
-3.4650914e+42
-9.587081e+41
-1.8214289e+42
-2.0066638e+42
-3.9448672e+42
5.4511971e+41
-4.6936321e+42
-5.6264241e+42
1.8735483e+42
2.9829651e+42
-3.4877345e+42
-1.3959753e+42
-4.3968853e+42
-3.6890196e+42
4.6292628e+42
5.1885252e+42
-4.3443837e+42
-1.6381616e+42
-3.3374271e+42
2.3606182e+42
1.0038019e+42
-2.2716225e+42
-9.5925052e+41
2.2616855e+40
6.3740326e+41
-1.9277989e+42
-5.5472157e+40
-1.1560643e+42
2.4052096e+42
-1.6778102e+42
-9.9588452e+41
-2.8315144e+42
-6.3784178e+42
6.0328362e+42
2.3015546e+42
-3.0686677e+42
-1.3926589e+42
-2.6241414e+42
-7.7909059e+42
-1.3083263e+42
9.046015e+42
4.2628699e+42
1.5526912e+42
-4.0867049e+42
-9.8749727e+41
-3.1541414e+42
3.7940059e+41
-7.3600934e+41
-1.2693154e+42
-2.1892041e+41
-2.0404009e+42
8.2807015e+41
-8.2088659e+41
-3.0941065e+42
-2.7873416e+42
6.1868863e+41
2.3484747e+42
-1.943608e+42
-1.4605379e+42
-1.5215662e+42
-7.2182729e+42
2.9962933e+42
3.6919895e+42
-3.2105165e+42
-1.1741291e+42
-9.5216487e+41
-1.1015219e+43
-1.0091681e+42
-3.0458382e+42
-1.8964266e+42
-6.0349909e+41
-1.6237118e+42
-5.8544505e+41
-3.4010069e+41
-1.8129505e+42
-5.0055894e+42
-4.4795187e+42
5.6488148e+41
-3.4505855e+42
-6.948179e+41
-3.9853676e+42
-5.4827695e+42
3.9283548e+42
3.7369818e+41
4.1127886e+42
-2.1331143e+42
-1.1090359e+42
-3.5062302e+42
9.6324063e+41
-2.9671977e+42
-9.546927e+41
-2.7828185e+42
-3.2764853e+42
-6.3577599e+41
-2.3137518e+42
-9.9915132e+40
-2.0766611e+42
-7.5345072e+41
1.5266336e+42
-2.4709803e+42
-3.8181393e+41
-2.9026321e+41
-6.7066822e+41
-3.111297e+41
-2.6615338e+41
-6.2961638e+41
-3.6491076e+42
-2.3197921e+41
-3.5789561e+42
-4.1580614e+42
-3.6277638e+42
2.0671007e+41
-2.2894627e+42
-9.7106083e+41
-2.9133755e+42
5.9427758e+42
-3.835172e+42
-9.8311663e+40
-2.2508462e+42
-7.9820676e+41
-2.2630607e+42
-3.3546646e+42
-7.6546905e+41
-1.1542458e+42
9.0825034e+41
-2.057781e+42
-4.1775698e+41
-2.1452904e+42
-8.8374801e+41
-1.1886046e+42
-1.3838287e+41
-2.1439308e+42
-3.1288599e+41
-2.3228104e+41
-6.271263e+41
-3.0005612e+41
-2.9683875e+41
-5.6418885e+41
1.9648656e+43
-5.8992659e+42
-1.0090135e+42
3.8983701e+43
-6.6541691e+41
-1.2856682e+43
2.266755e+42
-5.9565199e+42
5.3496261e+42
4.072568e+43
-9.6217656e+42
8.3352171e+41
1.0683592e+43
-5.7586947e+42
4.4104546e+42
-2.247914e+42
1.1357324e+42
5.9610391e+42
6.5756036e+41
1.918797e+42
2.2674105e+42
-4.014814e+41
2.0174049e+42
2.1846588e+42
2.3026752e+42
1.0502947e+43
-1.6993774e+41
2.094083e+42
-1.8941383e+42
-1.8978808e+42
2.4784441e+42
-8.0357247e+41
8.9547234e+41
-1.5015186e+43
-1.669075e+43
-6.1365131e+42
-7.0172161e+42
-1.6684556e+43
7.2664526e+41
-1.9968712e+43
1.9686157e+42
-1.1899584e+42
-1.318769e+41
-1.9031136e+41
3.6573852e+42
7.4632824e+43
3.920326e+42
3.0870923e+42
3.2276031e+42
-4.2838867e+42
4.809245e+42
1.9497768e+43
-3.3721853e+42
-2.2190107e+42
-4.1780267e+42
-1.1547959e+42
2.9086829e+42
1.7325885e+42
-1.4787028e+42
1.8536755e+42
2.9528051e+42
1.5114345e+43
1.3987324e+41
-3.0382784e+41
2.4740909e+42
-2.5366317e+42
-5.7598912e+41
5.0754624e+42
-1.119647e+42
5.3116047e+40
-1.0316643e+43
-1.2600037e+42
-3.3202799e+41
-6.3729443e+42
-2.5144156e+42
-2.978244e+41
-6.6260419e+42
4.1985755e+42
9.6914503e+41
9.4462512e+42
5.6316426e+41
-4.844062e+41
1.7913779e+43
2.5163152e+42
-4.891594e+42
3.6015019e+42
-1.7152117e+42
1.4784499e+42
2.4678587e+43
-5.7496919e+42
-1.0389506e+42
-3.4629428e+43
-1.1968541e+42
1.1193653e+42
1.7405215e+42
6.8516251e+43
9.8402731e+41
2.0338192e+43
5.7964007e+41
2.9377834e+42
-2.515105e+41
-4.5836506e+42
-8.2704595e+42
6.2971765e+42
1.4719822e+43
-1.2759101e+43
-2.6428355e+42
3.8387378e+42
-3.6442296e+42
-3.136959e+40
1.6963715e+42
1.4978964e+42
-2.937077e+41
1.3160594e+43
-6.9391364e+41
-1.5757171e+42
-5.178161e+42
7.435047e+42
8.7217839e+41
7.4351858e+42
4.485036e+42
1.9499259e+41