/*--------------------------------*- C++ -*----------------------------------*\
  =========                 |
  \\      /  F ield         | OpenFOAM: The Open Source CFD Toolbox
   \\    /   O peration     | Website:  https://openfoam.org
    \\  /    A nd           | Version:  7
     \\/     M anipulation  |
\*---------------------------------------------------------------------------*/
FoamFile
{
    version     2.0;
    format      ascii;
    class       volScalarField;
    location    "1000";
    object      pMean;
}
// * * * * * * * * * * * * * * * * * * * * * * * * * * * * * * * * * * * * * //

dimensions      [0 2 -2 0 0 0 0];

internalField   nonuniform List<scalar> 
34124
(
-8.8560249e+91
-1.1757241e+92
-8.8135796e+91
-8.8360109e+91
-1.26142e+92
-1.1056805e+92
-1.1767237e+92
-9.0100457e+91
-8.9000826e+91
-8.6800333e+91
-1.38026e+92
-1.1930582e+92
-1.2448924e+92
-1.0623515e+92
-1.113926e+92
-1.2099123e+92
-6.9568064e+91
-9.5063911e+91
-9.0774184e+91
-9.28643e+91
-1.3752317e+92
-1.3675071e+92
-1.4402577e+92
-1.1636299e+92
-1.1974063e+92
-1.2699773e+92
-9.1017621e+91
-1.0765723e+92
-1.2115133e+92
-1.3223337e+92
-9.1887578e+91
-6.7075232e+91
-9.9224537e+91
-9.1160676e+91
-7.8929721e+91
-1.3747627e+92
-1.3718066e+92
-1.4324253e+92
-1.3713939e+92
-1.4348441e+92
-1.492961e+92
-1.1276338e+92
-1.1840772e+92
-1.2547216e+92
-1.3823736e+92
-1.096673e+92
-8.999265e+91
-1.1741459e+92
-1.1536209e+92
-9.7388759e+91
-9.7259963e+91
-7.5438938e+91
-7.6240589e+91
-9.6246273e+91
-8.4348015e+91
-4.9457448e+91
-1.3645238e+92
-1.4046252e+92
-1.4297901e+92
-1.3869125e+92
-1.4291816e+92
-1.4898107e+92
-1.3832389e+92
-1.4380695e+92
-1.4884529e+92
-1.5382347e+92
-1.1945949e+92
-1.0698742e+92
-1.23774e+92
-1.2508476e+92
-1.1737337e+92
-1.1244402e+92
-9.8726177e+91
-9.7398151e+91
-1.0256865e+92
-1.0232968e+92
-6.1787248e+91
-1.1465731e+92
-8.1331443e+91
-8.9553596e+91
-9.1574178e+91
-7.9788515e+91
-5.5869389e+91
-5.9971927e+91
-1.3750231e+92
-1.3773166e+92
-1.4272127e+92
-1.3028816e+92
-1.42249e+92
-1.4902137e+92
-1.3949198e+92
-1.4359697e+92
-1.4848649e+92
-1.5342671e+92
-1.3234828e+92
-1.4326658e+92
-1.4817162e+92
-1.535935e+92
-1.5885319e+92
-1.2589719e+92
-1.1323565e+92
-1.1319743e+92
-1.1867478e+92
-1.1633748e+92
-7.597426e+91
-1.2153997e+92
-1.0213026e+92
-1.1111322e+92
-1.2470327e+92
-9.7674239e+91
-6.5340207e+91
-7.8447858e+91
-4.4082294e+91
-1.0259887e+92
-9.4488137e+91
-1.0658046e+92
-1.0578828e+92
-5.1096866e+91
-7.144227e+91
-1.9912925e+92
-1.398924e+92
-1.3655175e+92
-1.4337311e+92
-1.2884156e+92
-1.4182924e+92
-1.4864666e+92
-1.3609604e+92
-1.0775293e+92
-1.47751e+92
-1.5311982e+92
-1.3487175e+92
-1.4401259e+92
-1.4799e+92
-1.5305505e+92
-1.5846651e+92
-1.3018325e+92
-1.4082206e+92
-1.4470067e+92
-1.5288605e+92
-1.5870709e+92
-1.662489e+92
-1.3020265e+92
-1.1794022e+92
-1.2000984e+92
-1.3505361e+92
-1.0971407e+92
-7.9453983e+91
-8.5206031e+91
-7.855541e+91
-1.221679e+92
-1.1380001e+92
-1.3628712e+92
-1.3471138e+92
-6.8652556e+91
-7.9889185e+91
-1.8200933e+92
-9.993431e+91
-3.193442e+91
-1.0817921e+92
-1.3934305e+92
-1.1611254e+92
-7.7091693e+91
-5.8719499e+91
-1.9529354e+92
-4.9126912e+92
-1.3893802e+92
-1.3816919e+92
-1.4467933e+92
-1.2748328e+92
-1.4216289e+92
-1.4805685e+92
-1.3568537e+92
-1.0845229e+92
-1.4731881e+92
-1.5267465e+92
-1.2398323e+92
-1.4435129e+92
-1.0626945e+92
-1.5120518e+92
-1.5786215e+92
-1.3181016e+92
-1.4180216e+92
-1.4565566e+92
-1.5235522e+92
-1.5829073e+92
-1.6589089e+92
-1.4294365e+92
-1.3475143e+92
-1.4225035e+92
-1.5141196e+92
-1.5812717e+92
-1.6633952e+92
-1.8840027e+92
-9.7028362e+91
-1.318649e+92
-1.2321073e+92
-1.4249726e+92
-1.44636e+92
-8.4068573e+91
-8.6700797e+91
-1.5318721e+92
-1.2322649e+92
-6.309621e+91
-1.3011965e+92
-1.4950163e+92
-1.4055938e+92
-1.1470879e+92
-6.8502413e+91
-1.7951833e+92
-4.1699149e+92
-1.4184737e+92
-1.1410526e+92
-6.1825494e+90
-1.4860994e+92
-1.3935704e+92
-1.0692073e+92
-2.096125e+92
-1.3645372e+92
-4.769657e+92
-9.4338113e+92
-1.2625018e+92
-1.4328808e+92
-1.4093078e+92
-1.3574707e+92
-1.4376921e+92
-1.4675361e+92
-1.3636753e+92
-1.1043087e+92
-1.4687009e+92
-1.5203727e+92
-1.2442024e+92
-1.4356049e+92
-1.0836669e+92
-1.5079493e+92
-1.5777443e+92
-1.3738654e+92
-1.2249944e+92
-1.5022192e+92
-1.2703923e+92
-1.5613727e+92
-1.6534398e+92
-1.4502868e+92
-1.3639813e+92
-1.4329265e+92
-1.5127485e+92
-1.5786007e+92
-1.6623697e+92
-1.8718318e+92
-1.4171642e+92
-1.5339503e+92
-1.3768638e+92
-1.4864885e+92
-1.5768931e+92
-1.662783e+92
-1.8775382e+92
-1.9785301e+92
-1.3370947e+92
-8.2182864e+91
-1.3658434e+92
-1.4997946e+92
-1.4581618e+92
-1.3256279e+92
-8.2964304e+91
-1.4939298e+92
-2.8728302e+92
-2.9983074e+92
-1.2566895e+92
-2.5921436e+91
-1.5661731e+92
-1.5460123e+92
-1.3170023e+92
-1.9615562e+92
-1.4656054e+92
-3.9502966e+92
-6.9713709e+92
-8.4624137e+91
-2.1719755e+92
-1.3363755e+92
-9.4142216e+91
-2.0009956e+92
-1.3768337e+92
-2.1934364e+92
-3.4816872e+92
-3.5481577e+92
-8.9654417e+92
-4.8103307e+92
-1.1173646e+92
-1.3489935e+92
-1.4093631e+92
-1.4472426e+92
-1.4434758e+92
-1.400789e+92
-1.4722331e+92
-1.3987071e+92
-1.4485503e+92
-1.518325e+92
-1.2610189e+92
-1.4356432e+92
-1.1091343e+92
-1.5044378e+92
-1.5770773e+92
-1.3756593e+92
-1.2459366e+92
-1.4969299e+92
-1.2452319e+92
-1.5640234e+92
-1.6596915e+92
-1.3982451e+92
-1.4655171e+92
-1.2920469e+92
-1.5589558e+92
-1.6260556e+92
-1.6612072e+92
-1.8464807e+92
-1.4282891e+92
-1.5206508e+92
-1.393144e+92
-1.4948692e+92
-1.5763379e+92
-1.6641098e+92
-1.8675629e+92
-1.9803584e+92
-1.4753317e+92
-1.4213761e+92
-1.5103559e+92
-1.4738764e+92
-1.569883e+92
-1.6662823e+92
-1.8613498e+92
-1.9781489e+92
-1.9037569e+92
-2.351102e+92
-1.2680746e+92
-6.1515334e+91
-1.4842626e+92
-1.4971114e+92
-1.4139903e+92
-1.7380067e+92
-1.3410408e+92
-2.6765214e+92
-4.6132297e+92
-9.7915419e+91
-4.4077048e+92
-1.4479833e+92
-1.0990853e+92
-2.13436e+92
-1.5370721e+92
-2.047753e+92
-3.023434e+92
-2.9381838e+92
-6.7804318e+92
-4.6503893e+92
-5.2587201e+91
-1.0209746e+92
-2.0784077e+91
-1.6039337e+92
-1.6861019e+92
-1.4913669e+92
-2.14242e+92
-3.6187893e+92
-3.8265859e+92
-6.1238383e+92
-4.7002408e+92
-2.9848414e+92
-1.2633834e+92
-1.1228881e+92
-1.5251302e+92
-1.3958088e+92
-1.3940553e+92
-1.304719e+92
-1.4203935e+92
-1.4393442e+92
-1.4948469e+92
-1.4460967e+92
-1.450243e+92
-1.5044276e+92
-1.418699e+92
-1.5094155e+92
-1.583237e+92
-1.3829396e+92
-1.2858409e+92
-1.4920399e+92
-1.1880287e+92
-1.5656499e+92
-1.6660507e+92
-1.4133531e+92
-1.4657869e+92
-1.3072019e+92
-1.5614526e+92
-1.6120199e+92
-1.6704585e+92
-1.8443619e+92
-1.5022815e+92
-1.4112586e+92
-1.5412918e+92
-1.5192214e+92
-1.6725238e+92
-2.551252e+92
-1.8103539e+92
-1.977327e+92
-1.4654819e+92
-1.4318598e+92
-1.5319381e+92
-1.4836778e+92
-1.5743226e+92
-1.6705924e+92
-1.8521856e+92
-1.9791343e+92
-1.9117468e+92
-1.4406091e+92
-1.5518168e+92
-1.4857692e+92
-1.5944736e+92
-1.5691238e+92
-1.66241e+92
-1.8348507e+92
-1.9758367e+92
-1.9129548e+92
-1.8510205e+92
-1.0349766e+92
-2.9701023e+92
-1.4853191e+92
-9.470794e+91
-1.6637524e+92
-1.5320532e+92
-1.7692922e+92
-2.3027471e+92
-2.1671821e+92
-4.4923914e+92
-3.3426886e+92
-6.6906066e+91
-1.2098445e+92
-2.8701076e+91
-1.7101637e+92
-1.7167875e+92
-1.8261007e+92
-2.0287531e+92
-3.0458132e+92
-3.4670559e+92
-4.8244315e+92
-4.5148135e+92
-2.8964709e+92
-1.0798623e+92
-5.2405683e+91
-1.4396125e+92
-1.3030598e+92
-1.7390363e+92
-2.8392489e+92
-1.7141354e+92
-3.112108e+92
-4.9658312e+92
-2.5621898e+92
-4.028044e+92
-3.1157793e+92
-2.0909475e+92
-1.3853141e+92
-1.3260868e+92
-1.4385374e+92
-1.030621e+92
-2.1487654e+92
-1.2103459e+92
-1.3775091e+92
-1.4239376e+92
-1.4739866e+92
-1.5445047e+92
-1.4933193e+92
-1.4375378e+92
-1.5069276e+92
-1.5735282e+92
-1.4191917e+92
-1.4589942e+92
-1.4532846e+92
-1.5515848e+92
-1.5008152e+92
-1.5863326e+92
-1.6791714e+92
-1.431119e+92
-1.4713345e+92
-1.3026185e+92
-1.5604062e+92
-1.4799174e+92
-1.6806875e+92
-1.8327738e+92
-1.5114989e+92
-1.4286779e+92
-1.5449233e+92
-1.4903851e+92
-1.6769855e+92
-2.7138202e+92
-1.8156773e+92
-1.9696772e+92
-1.536163e+92
-1.5652536e+92
-1.5661745e+92
-1.6779577e+92
-1.8007078e+92
-1.9356153e+92
-2.6383852e+92
-1.9092932e+92
-1.9245785e+92
-1.4441914e+92
-1.5595786e+92
-1.4915815e+92
-1.632844e+92
-1.5746934e+92
-1.663982e+92
-1.8277097e+92
-1.9714625e+92
-1.9216246e+92
-1.8532872e+92
-1.5524291e+92
-1.5066607e+92
-1.6571004e+92
-1.5630332e+92
-1.854125e+92
-1.6746588e+92
-1.8588278e+92
-1.9605264e+92
-1.930184e+92
-1.8543944e+92
-1.8441795e+92
-8.9129153e+91
-1.3982948e+92
-4.115271e+91
-1.658488e+92
-1.4910378e+92
-1.7561486e+92
-1.6821272e+92
-2.2725745e+92
-2.5856237e+92
-3.3480313e+92
-3.3558423e+92
-2.2234222e+92
-1.5539484e+92
-9.1144581e+91
-1.6087833e+92
-1.4705388e+92
-1.7279534e+92
-2.4457604e+92
-1.8356561e+92
-2.8363897e+92
-4.1184072e+92
-3.1556296e+92
-3.8644205e+92
-3.1489394e+92
-2.0410946e+92
-8.4777464e+91
-9.8858045e+91
-1.1682588e+92
-1.8383449e+92
-1.3343099e+92
-1.8761716e+92
-3.4209652e+92
-2.4459401e+92
-5.6615499e+92
-2.5777327e+92
-2.1114612e+92
-2.7090461e+92
-2.4843252e+92
-2.0654895e+92
-1.4666176e+92
-1.4938985e+92
-1.5011371e+92
-1.5656653e+92
-1.3256719e+92
-1.3622639e+92
-1.3445608e+92
-1.0584339e+92
-1.3220108e+92
-1.5378539e+92
-1.5428687e+92
-1.45403e+92
-1.5173743e+92
-1.5700662e+92
-1.5561949e+92
-1.429638e+92
-1.487283e+92
-1.516452e+92
-1.5916588e+92
-1.706763e+92
-1.6375922e+92
-1.4560141e+92
-1.5815085e+92
-1.5140288e+92
-1.6326452e+92
-1.5890853e+92
-1.6670795e+92
-1.826613e+92
-1.5146118e+92
-1.4283121e+92
-1.5555357e+92
-1.436937e+92
-1.6784227e+92
-2.4169839e+92
-1.8179829e+92
-1.9464748e+92
-1.5369451e+92
-1.5757434e+92
-1.5553861e+92
-1.679986e+92
-1.7607049e+92
-1.9223377e+92
-2.6895233e+92
-1.8943074e+92
-1.9312243e+92
-1.6140253e+92
-1.5999129e+92
-1.6815049e+92
-1.5994657e+92
-1.8994938e+92
-1.7705525e+92
-1.9480661e+92
-1.8579494e+92
-1.5653863e+92
-1.5163777e+92
-1.6713345e+92
-1.5725522e+92
-1.8589147e+92
-1.6771722e+92
-1.8526307e+92
-1.9439394e+92
-1.937054e+92
-1.8573779e+92
-1.8441193e+92
-1.5837131e+92
-1.5988797e+92
-1.5816016e+92
-2.0256265e+92
-1.6865762e+92
-1.8771031e+92
-1.9577914e+92
-1.9617274e+92
-1.8607646e+92
-1.8443808e+92
-1.8486558e+92
-1.6023763e+92
-1.0561577e+92
-1.5480167e+92
-1.2279797e+92
-1.5872424e+92
-2.0298539e+92
-1.7581977e+92
-2.2191891e+92
-2.5811577e+92
-2.7137053e+92
-2.9462345e+92
-2.3015563e+92
-1.7417777e+92
-1.1034484e+92
-1.2726887e+92
-1.8850501e+92
-2.0628432e+92
-1.3815717e+92
-1.8801105e+92
-3.2207384e+92
-2.4286994e+92
-4.9103973e+92
-2.7727394e+92
-2.4390174e+92
-2.7499314e+92
-2.3980142e+92
-2.080742e+92
-1.5300772e+92
-4.7394358e+91
-1.9809951e+92
-4.1007235e+91
-1.3590462e+92
-1.3829622e+92
-2.4554504e+92
-2.9970166e+92
-3.5567505e+92
-2.6038982e+92
-2.3829682e+92
-3.3833637e+92
-2.3184107e+92
-2.0931607e+92
-2.1457533e+92
-1.4915847e+92
-1.5432448e+92
-1.5618023e+92
-1.4849415e+92
-1.5756711e+92
-1.5989018e+92
-1.4609264e+92
-1.4197653e+92
-1.4445714e+92
-1.5514662e+92
-1.185065e+92
-1.6963024e+92
-1.3438184e+92
-1.5675127e+92
-1.5677177e+92
-1.5277145e+92
-1.4697541e+92
-1.5468994e+92
-1.5888128e+92
-1.690567e+92
-1.484566e+92
-1.4640902e+92
-1.589955e+92
-1.5501263e+92
-1.6056611e+92
-1.6795498e+92
-1.8134397e+92
-1.8634074e+92
-1.5886839e+92
-1.5362711e+92
-1.6541615e+92
-1.5996044e+92
-1.8043671e+92
-1.72613e+92
-1.683745e+92
-1.8452021e+92
-1.9050634e+92
-1.8355437e+92
-1.5430996e+92
-1.5896875e+92
-1.5374649e+92
-1.6844772e+92
-1.6517932e+92
-1.8955507e+92
-2.445287e+92
-2.3213401e+92
-1.8696809e+92
-1.8271885e+92
-1.9301962e+92
-1.6134364e+92
-1.5977178e+92
-1.6868534e+92
-1.5843849e+92
-1.8889733e+92
-1.7637539e+92
-1.9489092e+92
-1.8627467e+92
-1.5987376e+92
-1.690112e+92
-1.5344209e+92
-1.8635578e+92
-1.6062194e+92
-1.9311529e+92
-1.6745944e+92
-1.8593992e+92
-1.8446619e+92
-1.5972189e+92
-1.6176846e+92
-1.5942642e+92
-1.9754076e+92
-1.6929641e+92
-1.8696308e+92
-1.9526509e+92
-1.958299e+92
-1.8645717e+92
-1.8444202e+92
-1.8482729e+92
-1.650045e+92
-1.635223e+92
-1.7484003e+92
-1.6940414e+92
-2.0746137e+92
-1.852038e+92
-1.9479871e+92
-1.8663839e+92
-1.8451241e+92
-1.8485302e+92
-1.8592347e+92
-1.1772554e+92
-1.3800483e+92
-1.4893792e+92
-1.8526365e+92
-1.1030956e+92
-1.7795522e+92
-2.5882469e+92
-2.0711865e+92
-2.161509e+92
-1.8909681e+92
-2.9624145e+92
-2.6566249e+92
-2.1310512e+92
-2.1289669e+92
-1.7814881e+92
-2.0379394e+92
-1.6982206e+92
-7.9815223e+91
-1.9321831e+92
-5.7919649e+91
-1.9056752e+92
-2.4346261e+92
-2.6416764e+92
-2.9609412e+92
-3.6931276e+92
-2.7480312e+92
-2.379899e+92
-3.3718868e+92
-2.53745e+92
-2.1795978e+92
-2.2742034e+92
-1.3182646e+92
-1.2314828e+92
-1.0948973e+92
-1.1997474e+92
-1.6036693e+92
-1.4197598e+92
-9.9276603e+91
-1.6797576e+92
-2.0760787e+92
-3.2726729e+92
-2.2874242e+92
-1.9682991e+92
-2.2910303e+92
-2.6348867e+92
-1.5946234e+92
-1.524246e+92
-1.5905761e+92
-1.6387941e+92
-1.6000269e+92
-1.5293675e+92
-1.5900943e+92
-1.5797285e+92
-1.6302575e+92
-1.7078075e+92
-1.501218e+92
-1.5439758e+92
-1.5781952e+92
-1.5380479e+92
-1.5897956e+92
-1.4088902e+92
-1.3323185e+92
-1.932524e+92
-2.042253e+92
-1.4792005e+92
-1.5122776e+92
-1.6166218e+92
-1.5954789e+92
-1.5063076e+92
-1.5871109e+92
-1.6300335e+92
-1.7634959e+92
-1.8673938e+92
-1.6248108e+92
-1.5641792e+92
-1.5472406e+92
-1.5787727e+92
-1.6591154e+92
-1.7052491e+92
-1.8638885e+92
-1.8658216e+92
-1.8559178e+92
-1.8073769e+92
-1.8205478e+92
-1.6130902e+92
-1.6248729e+92
-1.6196542e+92
-1.8115818e+92
-1.7079118e+92
-1.8418994e+92
-1.8597055e+92
-1.9346099e+92
-1.9204982e+92
-1.8736464e+92
-1.6294437e+92
-1.5998253e+92
-1.6979175e+92
-1.5449323e+92
-1.872519e+92
-1.6849785e+92
-1.9378328e+92
-2.3755758e+92
-1.8648288e+92
-1.8722627e+92
-1.6162627e+92
-1.6914419e+92
-1.5414419e+92
-1.8560003e+92
-1.5996245e+92
-1.928701e+92
-1.6812253e+92
-1.8644809e+92
-1.8456515e+92
-1.6303999e+92
-1.5078791e+92
-1.8446118e+92
-1.5207064e+92
-1.9064294e+92
-1.6289365e+92
-1.8559337e+92
-1.8455731e+92
-1.8409053e+92
-1.8468785e+92
-1.6545777e+92
-1.6507634e+92
-1.7288464e+92
-1.7022154e+92
-2.0475802e+92
-1.8474295e+92
-1.9421096e+92
-1.8703885e+92
-1.8455103e+92
-1.8481454e+92
-1.8587767e+92
-1.6958499e+92
-1.7186064e+92
-1.7217918e+92
-1.8458195e+92
-2.0453748e+92
-1.8868262e+92
-1.9260019e+92
-1.853859e+92
-1.8436359e+92
-1.8482284e+92
-1.8590686e+92
-1.8655795e+92
-1.5719054e+92
-9.9678107e+91
-1.588834e+92
-6.3807406e+91
-1.9604389e+92
-2.5340463e+92
-2.0348802e+92
-2.4015471e+92
-2.3218426e+92
-2.8996274e+92
-2.0216897e+92
-2.4322435e+92
-2.0929513e+92
-2.7858565e+92
-1.8406675e+92
-2.0466223e+92
-2.0398172e+92
-1.6729114e+92
-1.4920191e+92
-1.1546937e+92
-1.3959352e+92
-2.7172654e+92
-2.1026948e+92
-1.4312852e+92
-2.300261e+92
-2.1046079e+92
-3.2369039e+92
-2.7260953e+92
-2.2952288e+92
-2.2615616e+92
-2.8899544e+92
-1.578532e+92
-1.3472736e+92
-1.3839986e+92
-1.6649329e+92
-1.3047439e+92
-1.5076343e+92
-2.6152432e+92
-1.9713709e+92
-1.7421908e+92
-2.5541091e+92
-2.623493e+92
-2.2820407e+92
-2.2631064e+92
-2.8364343e+92
-2.7983686e+92
-1.6856038e+92
-1.5888932e+92
-1.6365149e+92
-1.5167997e+92
-1.6369297e+92
-1.7346331e+92
-1.6724292e+92
-1.6185051e+92
-1.6056169e+92
-1.6343465e+92
-1.6051769e+92
-1.6636419e+92
-1.8574559e+92
-1.8280191e+92
-1.6951573e+92
-1.7278537e+92
-1.1814362e+92
-1.6982084e+92
-1.6084203e+92
-1.4386508e+92
-2.2319207e+92
-1.5383843e+92
-1.4447344e+92
-1.9092441e+92
-1.627919e+92
-1.6736088e+92
-1.6846735e+92
-1.6866351e+92
-1.9927129e+92
-1.5989232e+92
-1.7406551e+92
-1.8883756e+92
-1.7254319e+92
-1.8683591e+92
-1.6101398e+92
-1.6772586e+92
-1.7428575e+92
-1.8814451e+92
-2.1023644e+92
-1.6538285e+92
-1.6757484e+92
-1.6992891e+92
-1.7197043e+92
-1.9542256e+92
-1.8461193e+92
-1.9200495e+92
-1.8776161e+92
-1.6344277e+92
-1.706429e+92
-1.5299547e+92
-1.8468978e+92
-1.5634838e+92
-1.9135221e+92
-1.656267e+92
-1.8751563e+92
-1.8487801e+92
-1.6403562e+92
-1.5363775e+92
-1.8348692e+92
-1.5308239e+92
-1.9028799e+92
-1.6312272e+92
-1.8568656e+92
-1.8476996e+92
-1.8429368e+92
-1.8469106e+92
-1.5911034e+92
-1.7400684e+92
-1.5256289e+92
-1.8674709e+92
-1.6790284e+92
-1.739338e+92
-1.8788365e+92
-1.848856e+92
-1.8357205e+92
-1.7988843e+92
-1.8574727e+92
-1.7026212e+92
-1.7141841e+92
-1.734915e+92
-1.8418444e+92
-2.0450176e+92
-1.8890659e+92
-1.920191e+92
-1.8552633e+92
-1.8457277e+92
-1.8479287e+92
-1.8585742e+92
-1.8651513e+92
-1.7871223e+92
-1.7625593e+92
-1.8322206e+92
-1.9006142e+92
-2.4589778e+92
-1.9709043e+92
-1.7634423e+92
-1.8472844e+92
-1.8375374e+92
-1.8494802e+92
-1.8585369e+92
-1.8654048e+92
-1.8691175e+92
-1.6582354e+92
-1.4660158e+92
-9.4496e+91
-1.5278443e+92
-1.9851914e+92
-2.1026501e+92
-1.7467578e+92
-2.320804e+92
-2.0475661e+92
-2.7168455e+92
-2.6367467e+92
-2.0687585e+92
-2.0478925e+92
-2.5782707e+92
-1.8576003e+92
-1.5331107e+92
-1.4420874e+92
-1.8684831e+92
-1.7761353e+92
-1.9467487e+92
-3.1227791e+92
-2.5341131e+92
-2.0468496e+92
-2.9292992e+92
-2.8143516e+92
-2.7802282e+92
-2.2963224e+92
-2.9405485e+92
-2.8194262e+92
-2.2598028e+92
-1.8478882e+92
-1.3164493e+92
-1.7930048e+92
-1.6847977e+92
-1.9380013e+92
-2.008966e+92
-1.4572128e+92
-1.5329755e+92
-2.0718292e+92
-2.8897585e+92
-2.2842303e+92
-1.5689604e+92
-2.7884263e+92
-2.9426534e+92
-3.4427619e+92
-1.7385508e+92
-1.6420891e+92
-1.681057e+92
-1.5182152e+92
-1.6783018e+92
-1.6855425e+92
-1.8446388e+92
-1.696953e+92
-1.6894199e+92
-1.6324249e+92
-1.6557262e+92
-1.673609e+92
-1.9500278e+92
-1.7589092e+92
-1.9736625e+92
-1.7320606e+92
-1.5608322e+92
-1.7505082e+92
-1.6885308e+92
-1.6949033e+92
-1.6221619e+92
-1.420415e+92
-1.3548333e+92
-1.67415e+92
-1.6392866e+92
-1.5788805e+92
-1.6795081e+92
-1.70809e+92
-1.8300896e+92
-1.7607215e+92
-1.6957603e+92
-1.7633346e+92
-1.6483144e+92
-1.7541066e+92
-1.7232181e+92
-2.0689583e+92
-1.6700224e+92
-1.9856947e+92
-1.8084638e+92
-1.8400546e+92
-1.7695791e+92
-1.8437591e+92
-1.8668523e+92
-1.7571393e+92
-1.8484408e+92
-1.8553958e+92
-1.7203693e+92
-1.7354003e+92
-1.7591393e+92
-1.8424354e+92
-2.0389373e+92
-1.8713987e+92
-1.8983974e+92
-1.8535015e+92
-1.8521665e+92
-1.6488793e+92
-1.5487241e+92
-1.826331e+92
-1.5267219e+92
-1.8924219e+92
-1.620998e+92
-1.8514072e+92
-1.8534801e+92
-1.8433932e+92
-1.8472672e+92
-1.6082311e+92
-1.7343189e+92
-1.539765e+92
-1.8630469e+92
-1.6799177e+92
-1.7394927e+92
-1.9001252e+92
-1.8491685e+92
-1.837075e+92
-1.7996739e+92
-1.8573085e+92
-1.7333985e+92
-1.6013081e+92
-1.811441e+92
-1.761294e+92
-1.7523017e+92
-1.7182839e+92
-1.8462582e+92
-2.2381486e+92
-1.8557659e+92
-1.8439767e+92
-1.8103206e+92
-1.7884742e+92
-1.8631558e+92
-1.7902099e+92
-1.7735044e+92
-1.8369913e+92
-1.8958657e+92
-2.457444e+92
-1.9731375e+92
-1.76549e+92
-1.845724e+92
-1.8388314e+92
-1.8493538e+92
-1.8580292e+92
-1.8649487e+92
-1.8691576e+92
-1.7983391e+92
-1.8480898e+92
-1.8851761e+92
-2.4882735e+92
-2.2041719e+92
-1.8411287e+92
-1.862285e+92
-1.7586513e+92
-1.8921529e+92
-1.8359568e+92
-1.8474437e+92
-1.860193e+92
-1.8648419e+92
-1.8691781e+92
-1.8603554e+92
-1.907911e+92
-1.4712368e+92
-1.4767412e+92
-1.5350716e+92
-1.8073669e+92
-2.1032739e+92
-2.2971604e+92
-2.2891869e+92
-2.0718501e+92
-2.6895444e+92
-2.6592292e+92
-2.4427764e+92
-2.0810687e+92
-2.5309355e+92
-2.3415393e+92
-3.6282543e+92
-2.2525736e+92
-1.5126217e+92
-2.1417295e+92
-2.4029168e+92
-2.2378476e+92
-2.5041035e+92
-1.9871631e+92
-2.0235783e+92
-2.7808947e+92
-3.2474284e+92
-2.6179148e+92
-2.1233907e+92
-2.8557579e+92
-2.9020538e+92
-3.4237449e+92
-1.8231491e+92
-1.0413806e+92
-2.0827223e+92
-2.2946529e+92
-2.5443386e+92
-2.3244677e+92
-1.4575991e+92
-4.3018118e+92
-1.7261387e+92
-2.7620308e+92
-1.7005355e+92
-2.1631328e+92
-2.5194711e+92
-1.6913369e+92
-2.5284151e+92
-3.6061538e+92
-3.3248539e+92
-2.6402344e+92
-1.653311e+92
-1.8472042e+92
-2.0895333e+92
-2.0436501e+92
-1.7449892e+92
-1.7791753e+92
-1.8833121e+92
-1.7287395e+92
-1.6142337e+92
-1.731409e+92
-1.8062214e+92
-1.730496e+92
-1.573804e+92
-1.773798e+92
-1.9552954e+92
-1.8726221e+92
-1.8206906e+92
-1.7269372e+92
-1.762473e+92
-1.428071e+92
-1.8957218e+92
-1.9378093e+92
-1.7688477e+92
-1.8035005e+92
-1.8625799e+92
-1.7817977e+92
-1.8586718e+92
-1.832205e+92
-1.7760389e+92
-1.8135181e+92
-2.0637684e+92
-1.7944706e+92
-2.3199726e+92
-1.8471351e+92
-1.8221827e+92
-1.8569111e+92
-1.8652229e+92
-1.8573259e+92
-1.8782685e+92
-1.7890717e+92
-1.8423494e+92
-2.4642053e+92
-1.9786031e+92
-1.7578393e+92
-1.8349876e+92
-1.8446992e+92
-1.8498905e+92
-1.6158274e+92
-1.7299019e+92
-1.6738448e+92
-1.7619078e+92
-1.9578476e+92
-1.8505917e+92
-1.8404019e+92
-1.7925343e+92
-1.8568168e+92
-1.7282298e+92
-1.6136704e+92
-1.8061126e+92
-1.7597221e+92
-1.7497653e+92
-1.719779e+92
-1.8579395e+92
-2.2494301e+92
-1.8562205e+92
-1.8440319e+92
-1.811092e+92
-1.7796032e+92
-1.8628487e+92
-1.7929041e+92
-1.7604061e+92
-1.815834e+92
-2.0152329e+92
-2.3909892e+92
-1.8557736e+92
-1.8599504e+92
-1.8389902e+92
-1.8691386e+92
-1.8071886e+92
-1.8514926e+92
-1.881835e+92
-2.4711697e+92
-2.2142252e+92
-1.8419999e+92
-1.8643687e+92
-1.755552e+92
-1.8879648e+92
-1.8364368e+92
-1.8473871e+92
-1.8598049e+92
-1.8642886e+92
-1.8692063e+92
-1.8606476e+92
-2.5254766e+92
-2.4008918e+92
-1.9740196e+92
-1.8075213e+92
-1.826809e+92
-1.8537616e+92
-1.858747e+92
-1.8634795e+92
-1.8679101e+92
-1.8606652e+92
-1.8468615e+92
-2.7196992e+92
-2.1508969e+92
-2.4064479e+92
-2.1891224e+92
-2.2613722e+92
-2.0101692e+92
-2.2386554e+92
-2.6344962e+92
-2.657274e+92
-2.4309262e+92
-2.5396608e+92
-2.4474518e+92
-2.3271355e+92
-2.222416e+92
-2.1161441e+92
-1.3413076e+92
-2.5046602e+92
-2.3590191e+92
-3.1520008e+92
-2.5351753e+92
-2.0269717e+92
-4.2139891e+92
-2.1627165e+92
-2.7101653e+92
-2.0420731e+92
-2.3885168e+92
-2.7076128e+92
-2.1263133e+92
-2.6537761e+92
-3.311153e+92
-3.2790833e+92
-3.0491899e+92
-1.8588519e+92
-2.7594403e+92
-1.9022966e+92
-2.6274657e+92
-2.5066165e+92
-2.8635227e+92
-1.6416643e+92
-2.3782081e+92
-2.1636006e+92
-2.7856008e+92
-1.535463e+92
-3.456571e+92
-3.0170462e+92
-3.8473183e+92
-1.9314241e+92
-1.8122114e+92
-1.9926587e+92
-2.2175351e+92
-2.0047759e+92
-2.4673456e+92
-1.7881978e+92
-1.7542081e+92
-1.8230668e+92
-1.8723073e+92
-1.7189145e+92
-1.7454317e+92
-1.7569886e+92
-1.6211043e+92
-1.7814952e+92
-1.7878604e+92
-1.841218e+92
-1.8010567e+92
-1.9116018e+92
-2.0216822e+92
-1.9749491e+92
-2.0758572e+92
-2.0712592e+92
-2.0120153e+92
-1.4797086e+92
-1.9246819e+92
-1.8620397e+92
-2.1654498e+92
-1.8436464e+92
-1.8277096e+92
-1.8589961e+92
-1.8711046e+92
-1.8170882e+92
-1.8554405e+92
-1.8669798e+92
-1.8748989e+92
-1.8626896e+92
-2.2066678e+92
-2.5459142e+92
-1.8549639e+92
-1.8516788e+92
-1.8581225e+92
-1.8632109e+92
-2.3985679e+92
-2.2493859e+92
-1.8436731e+92
-1.7432331e+92
-1.8426915e+92
-1.8489646e+92
-1.8597851e+92
-1.7564444e+92
-1.7485271e+92
-1.906891e+92
-2.3073081e+92
-1.8578994e+92
-1.8451179e+92
-1.8151788e+92
-1.8616111e+92
-1.7936042e+92
-1.7636011e+92
-1.8201517e+92
-2.0237102e+92
-2.3884163e+92
-1.8553532e+92
-1.8593708e+92
-1.8388944e+92
-1.8690282e+92
-1.8388936e+92
-1.8141479e+92
-1.8167775e+92
-1.8530554e+92
-2.007166e+92
-1.8686992e+92
-1.8618366e+92
-1.8616552e+92
-2.5604377e+92
-2.4033524e+92
-1.9751795e+92
-1.808741e+92
-1.8285718e+92
-1.8540353e+92
-1.858432e+92
-1.8626113e+92
-1.8678667e+92
-1.8609448e+92
-1.8470044e+92
-2.2489163e+92
-2.013114e+92
-1.8898656e+92
-1.8545711e+92
-1.8658251e+92
-1.8701806e+92
-1.8731286e+92
-1.868523e+92
-1.8604034e+92
-1.847198e+92
-1.8302594e+92
-2.3606039e+92
-2.397041e+92
-2.3977901e+92
-2.1307294e+92
-2.2216261e+92
-2.170149e+92
-2.2065022e+92
-2.3782971e+92
-2.5208604e+92
-2.3539339e+92
-2.1976355e+92
-2.1700086e+92
-2.5189789e+92
-2.2737402e+92
-3.077168e+92
-2.2607665e+92
-2.7046558e+92
-2.9008591e+92
-3.0389193e+92
-2.0700066e+92
-2.6870668e+92
-2.5632818e+92
-2.8210614e+92
-1.8091234e+92
-3.4439437e+92
-3.2540154e+92
-3.8966953e+92
-1.9773393e+92
-2.4138112e+92
-5.2426249e+92
-2.2284003e+92
-2.9232533e+92
-2.510304e+92
-1.9337875e+92
-3.589111e+92
-2.8754293e+92
-2.3589451e+92
-2.0376773e+92
-1.5365679e+92
-3.9849932e+92
-4.2419354e+92
-1.0468572e+92
-2.0048465e+92
-1.9316907e+92
-1.8619683e+92
-1.8283928e+92
-1.897407e+92
-2.0340073e+92
-2.3000415e+92
-2.2294535e+92
-1.9968656e+92
-2.5356187e+92
-2.5979134e+92
-2.5318936e+92
-2.481237e+92
-1.8289145e+92
-1.8405084e+92
-1.8286141e+92
-1.9050438e+92
-2.1165226e+92
-1.857037e+92
-1.8510701e+92
-1.8515108e+92
-1.8982959e+92
-1.9531268e+92
-2.1772358e+92
-2.0159425e+92
-1.8860492e+92
-1.8839363e+92
-2.1874602e+92
-1.9580614e+92
-1.8482617e+92
-1.8792697e+92
-1.8758494e+92
-1.8695414e+92
-2.3890536e+92
-2.5379253e+92
-2.5473101e+92
-2.7642492e+92
-2.7182397e+92
-1.8667271e+92
-1.856007e+92
-1.8606391e+92
-1.8579413e+92
-1.8594411e+92
-1.8571831e+92
-1.856189e+92
-2.626949e+92
-2.3606724e+92
-1.9618164e+92
-1.8150628e+92
-1.8375106e+92
-1.857168e+92
-1.8591763e+92
-1.8598391e+92
-1.8091115e+92
-1.7849407e+92
-1.8539033e+92
-2.0280809e+92
-2.4020281e+92
-1.8540526e+92
-1.8578004e+92
-1.840062e+92
-1.8670724e+92
-1.8398834e+92
-1.8171878e+92
-1.8186496e+92
-1.8601767e+92
-2.0095556e+92
-1.8684826e+92
-1.8612756e+92
-1.8617725e+92
-1.8610749e+92
-1.8536473e+92
-1.8489418e+92
-1.8779674e+92
-1.9144072e+92
-2.0404664e+92
-1.862449e+92
-1.8720965e+92
-1.8487155e+92
-2.2460709e+92
-2.0031179e+92
-1.887591e+92
-1.8570551e+92
-1.8670933e+92
-1.8700229e+92
-1.8728027e+92
-1.8680177e+92
-1.8605358e+92
-1.8473164e+92
-1.8303287e+92
-2.1308083e+92
-2.0468219e+92
-1.9490487e+92
-1.8999083e+92
-1.889553e+92
-1.876332e+92
-1.8797859e+92
-1.8650153e+92
-1.849357e+92
-1.8305703e+92
-1.8113421e+92
-2.4284385e+92
-2.725359e+92
-2.1614376e+92
-2.2502306e+92
-2.3948489e+92
-2.3198973e+92
-2.2452993e+92
-2.2669402e+92
-2.4705033e+92
-2.3383824e+92
-2.0501127e+92
-1.9175742e+92
-2.4771018e+92
-2.0981462e+92
-2.8137446e+92
-2.9200659e+92
-5.0025537e+92
-2.3171757e+92
-3.1095846e+92
-3.3400905e+92
-2.027833e+92
-4.0519703e+92
-2.8933844e+92
-2.6668716e+92
-2.0877653e+92
-2.1035552e+92
-4.6384116e+92
-4.1497757e+92
-1.6248603e+92
-2.5452482e+92
-2.7559964e+92
-2.2884503e+92
-3.6765194e+92
-2.8116509e+92
-1.9043162e+92
-2.8530322e+92
-2.4144216e+92
-3.904026e+92
-1.8568204e+92
-1.4930912e+92
-4.8030339e+92
-1.9465278e+92
-2.430459e+92
-1.9765008e+92
-1.9835278e+92
-1.89918e+92
-2.0889943e+92
-2.635423e+92
-1.9090493e+92
-1.9539776e+92
-1.9035253e+92
-1.8613553e+92
-1.8613227e+92
-2.0031905e+92
-2.0381751e+92
-2.2671696e+92
-2.0362634e+92
-2.26224e+92
-2.6035315e+92
-2.4917776e+92
-1.8781479e+92
-1.906484e+92
-1.8605267e+92
-1.9034186e+92
-1.9779828e+92
-2.416607e+92
-1.9257535e+92
-1.8881534e+92
-1.8629285e+92
-1.9177215e+92
-2.3349722e+92
-2.0767891e+92
-2.0645732e+92
-1.9575053e+92
-1.9760944e+92
-1.9259484e+92
-1.9081295e+92
-2.1853445e+92
-1.9107403e+92
-1.8938607e+92
-1.8886462e+92
-1.8724194e+92
-3.0594822e+92
-2.6377614e+92
-2.5484861e+92
-2.8049961e+92
-1.8728477e+92
-1.8718014e+92
-1.8906957e+92
-1.8667548e+92
-1.8708844e+92
-1.8557845e+92
-1.8551997e+92
-1.8552183e+92
-1.9563261e+92
-1.8801628e+92
-1.8665294e+92
-1.8735447e+92
-1.8709307e+92
-1.8645114e+92
-1.8449176e+92
-1.8306467e+92
-1.8309549e+92
-1.8785902e+92
-1.8604376e+92
-1.8604296e+92
-1.8606956e+92
-1.8553215e+92
-1.852239e+92
-1.8764251e+92
-1.9161655e+92
-2.0332821e+92
-1.8625294e+92
-1.8720432e+92
-1.8489713e+92
-1.870751e+92
-1.8747341e+92
-1.8765578e+92
-1.8843546e+92
-1.9448126e+92
-1.9287886e+92
-1.9080319e+92
-1.853033e+92
-1.8646225e+92
-1.8307953e+92
-2.1236345e+92
-2.0401032e+92
-1.9437135e+92
-1.9004713e+92
-1.8910625e+92
-1.8762845e+92
-1.87989e+92
-1.8651543e+92
-1.8494791e+92
-1.8306251e+92
-1.8114946e+92
-2.0750088e+92
-2.0467075e+92
-2.0306599e+92
-1.9447501e+92
-1.9214798e+92
-1.89855e+92
-1.8841019e+92
-1.8559617e+92
-1.8775759e+92
-1.8326143e+92
-1.8115531e+92
-1.7936923e+92
-3.0664669e+92
-2.7323128e+92
-2.1313974e+92
-2.2579202e+92
-2.7283485e+92
-1.977554e+92
-2.5592461e+92
-2.2808446e+92
-2.0351361e+92
-2.4967361e+92
-2.3568645e+92
-2.0461583e+92
-2.2863448e+92
-2.8249974e+92
-3.4581351e+92
-2.6589269e+92
-3.6175821e+92
-3.4802225e+92
-2.2672134e+92
-3.345926e+92
-2.6517844e+92
-4.0109057e+92
-2.2965578e+92
-1.6398266e+92
-4.8016125e+92
-2.4485051e+92
-2.7841911e+92
-2.3846602e+92
-2.4391946e+92
-1.6987824e+92
-2.753531e+92
-4.6289148e+92
-2.8225485e+92
-1.840894e+92
-3.3591609e+92
-6.193915e+92
-5.880369e+92
-1.7621763e+92
-8.00766e+90
-3.4653159e+92
-2.7097359e+92
-1.7561474e+92
-2.1823219e+92
-1.9449885e+92
-1.9322555e+92
-1.9260349e+92
-2.0457909e+92
-1.9520262e+92
-1.9093545e+92
-1.8357517e+92
-1.8702165e+92
-1.8882839e+92
-1.8806986e+92
-1.9347201e+92
-1.8902747e+92
-1.8870018e+92
-2.0951818e+92
-1.9559651e+92
-2.2068418e+92
-2.1363997e+92
-2.246155e+92
-2.0074142e+92
-1.913454e+92
-2.8541604e+92
-1.8814925e+92
-2.3672724e+92
-1.9134782e+92
-1.9051382e+92
-1.8613322e+92
-1.9141354e+92
-2.34056e+92
-1.9313136e+92
-1.9158917e+92
-1.871644e+92
-2.7019242e+92
-2.5105358e+92
-2.1505452e+92
-1.963239e+92
-2.0657137e+92
-2.4245455e+92
-2.0524163e+92
-2.0229092e+92
-1.8800163e+92
-1.918878e+92
-1.9434373e+92
-1.9636127e+92
-1.9454851e+92
-1.9219449e+92
-2.0166969e+92
-1.9190561e+92
-1.8791283e+92
-1.8808202e+92
-1.8574749e+92
-1.8737361e+92
-1.873431e+92
-1.8618737e+92
-1.8652456e+92
-1.8836616e+92
-1.8598059e+92
-1.9045951e+92
-1.931163e+92
-1.9030786e+92
-1.8984502e+92
-1.8783635e+92
-1.8607413e+92
-1.8628976e+92
-1.8677418e+92
-1.8691168e+92
-1.8506902e+92
-1.8704822e+92
-1.8744197e+92
-1.8778898e+92
-1.8840955e+92
-1.9422211e+92
-1.922568e+92
-1.906771e+92
-1.8531643e+92
-1.8645068e+92
-1.8310025e+92
-1.8794659e+92
-1.8812197e+92
-1.8790541e+92
-1.879038e+92
-2.0130989e+92
-1.9091933e+92
-1.8568598e+92
-1.8514473e+92
-1.8323464e+92
-1.8620514e+92
-1.8125787e+92
-2.0716627e+92
-2.0455739e+92
-2.02527e+92
-1.9438772e+92
-1.9222023e+92
-1.8987688e+92
-1.8841975e+92
-1.8560135e+92
-1.8778677e+92
-1.8326136e+92
-1.8117062e+92
-1.7937466e+92
-2.1463531e+92
-2.0956366e+92
-1.9365918e+92
-1.9922712e+92
-1.9368206e+92
-1.9123619e+92
-1.9011325e+92
-1.8641876e+92
-1.8392281e+92
-1.8929455e+92
-1.8130411e+92
-1.7937572e+92
-1.7738684e+92
-2.3905422e+92
-2.5118056e+92
-2.9170991e+92
-2.0350997e+92
-2.0641229e+92