/*--------------------------------*- C++ -*----------------------------------*\
  =========                 |
  \\      /  F ield         | OpenFOAM: The Open Source CFD Toolbox
   \\    /   O peration     | Website:  https://openfoam.org
    \\  /    A nd           | Version:  7
     \\/     M anipulation  |
\*---------------------------------------------------------------------------*/
FoamFile
{
    version     2.0;
    format      ascii;
    class       volVectorField;
    location    "1000";
    object      U;
}
// * * * * * * * * * * * * * * * * * * * * * * * * * * * * * * * * * * * * * //

dimensions      [0 1 -1 0 0 0 0];

internalField   nonuniform List<vector> 
34124
(
(-2.2394846e+47 -9.2186588e+46 -1.8972354e+46)
(-1.9273748e+47 -8.4856425e+46 -8.0397961e+45)
(-1.9449014e+47 -1.1538599e+47 2.3979979e+44)
(-2.565277e+47 -9.1139832e+46 -3.5751303e+46)
(-1.7752715e+47 -6.8631791e+46 -3.9594958e+45)
(-1.6544174e+47 -1.0286045e+47 6.5833027e+45)
(-2.1637584e+47 -8.0155596e+46 -1.9770906e+46)
(-1.4097825e+47 -1.2060933e+47 2.16645e+46)
(-2.6020988e+47 -1.2072473e+47 -1.4372054e+46)
(-2.6576216e+47 -9.244405e+46 -4.6755218e+46)
(-1.1632179e+47 -5.4802383e+46 -2.7014669e+45)
(-1.556383e+47 -7.9207742e+46 6.7218139e+45)
(-1.9524076e+47 -6.3424223e+46 -1.2883943e+46)
(-1.3455438e+47 -1.0727513e+47 1.8550649e+46)
(-2.1826068e+47 -1.0672477e+47 -1.3260476e+44)
(-2.3283421e+47 -7.4452831e+46 -3.0818199e+46)
(-6.187955e+46 -1.1525021e+47 4.6245101e+46)
(-2.2248552e+47 -1.2824407e+47 4.8812942e+45)
(-2.7478651e+47 -1.2496871e+47 -2.9560271e+46)
(-2.6687941e+47 -1.1451319e+47 -5.2893739e+46)
(-1.3427799e+47 -5.1295939e+46 -1.124703e+46)
(-9.8776944e+46 -5.8093414e+46 4.4891335e+45)
(-1.0424265e+47 -5.0283668e+46 -6.0572128e+45)
(-1.3610979e+47 -8.6937396e+46 1.3625189e+46)
(-2.0017554e+47 -8.4412572e+46 2.8784762e+45)
(-2.0921727e+47 -5.454593e+46 -2.0161815e+46)
(-8.7627089e+46 -1.0879884e+47 3.1474696e+46)
(-1.9579809e+47 -1.1857592e+47 1.4654477e+46)
(-2.4217264e+47 -1.0290159e+47 -1.4187997e+46)
(-2.3860728e+47 -8.9512125e+46 -4.7005803e+46)
(-1.7805703e+47 -1.3736355e+47 3.9814911e+46)
(1.0784057e+47 -7.6327719e+46 3.5958903e+46)
(-2.3172803e+47 -1.364491e+47 -1.7247616e+46)
(-2.5324554e+47 -1.4143791e+47 -1.7120783e+46)
(-2.2140779e+47 4.6881275e+44 -1.0517952e+47)
(-1.4644185e+47 -4.283239e+46 -1.7336896e+46)
(-1.295764e+47 -6.3008521e+46 -2.9859593e+44)
(-1.0715132e+47 -4.5967384e+46 -1.1993087e+46)
(-9.6405213e+46 -6.2861375e+46 8.7010604e+45)
(-1.0862815e+47 -5.3277884e+46 -1.2960603e+45)
(-8.7710299e+46 -4.4664347e+46 -1.3422082e+46)
(-1.1205925e+47 -9.4384902e+46 1.8245532e+46)
(-1.9022488e+47 -9.9365466e+46 1.3268899e+46)
(-2.2043603e+47 -7.56481e+46 -5.59219e+45)
(-2.1714339e+47 -5.7856605e+46 -4.0861286e+46)
(-1.5018822e+47 -1.2534406e+47 3.4918599e+46)
(2.2486454e+46 -8.5715338e+46 2.938278e+46)
(-2.1913955e+47 -1.1548526e+47 -2.8429724e+45)
(-2.378973e+47 -1.1397104e+47 -1.813405e+46)
(-1.7862512e+47 -9.1956702e+45 -8.4356497e+46)
(-1.9851388e+47 -1.4868394e+47 4.6101733e+45)
(-1.3841e+46 -1.0538286e+47 4.767218e+46)
(1.3487148e+47 -2.1778701e+46 4.7095501e+46)
(-2.5286771e+47 -1.3642218e+47 -6.4244069e+45)
(-2.672501e+47 -4.579265e+46 -7.2457648e+46)
(-1.0259006e+47 2.5281964e+46 -7.4995358e+46)
(-1.4196152e+47 -5.4983513e+46 -5.3914511e+45)
(-1.2828761e+47 -3.7174262e+46 -3.5752319e+46)
(-1.1076931e+47 -3.6569626e+46 -1.6726925e+46)
(-1.4289474e+47 -7.3927866e+46 5.7446525e+45)
(-1.1507754e+47 -5.2420519e+46 -6.8082295e+45)
(-8.4289347e+46 -3.9118789e+46 -1.8957574e+46)
(-5.5013231e+46 -6.6927723e+46 8.8923829e+45)
(-1.1138819e+47 -5.2350822e+46 1.3149358e+45)
(-1.056898e+47 -4.874261e+46 -1.0696298e+46)
(-5.5921127e+46 -2.7274993e+46 -2.3915879e+46)
(-1.5780184e+47 -1.0865024e+47 2.1419475e+46)
(-2.9636439e+46 -8.2931776e+46 1.7373116e+46)
(-2.1174783e+47 -8.9410161e+46 3.313817e+45)
(-2.2333271e+47 -7.8529511e+46 -2.1999153e+46)
(-1.5749757e+47 -2.0857215e+46 -6.0599468e+46)
(-1.9039342e+47 -1.2768773e+47 1.1255351e+46)
(-3.1920207e+46 -1.0403677e+47 3.5128931e+46)
(4.9342965e+46 -3.6157241e+46 3.6991594e+46)
(-2.5074449e+47 -1.1402255e+47 -8.6028165e+45)
(-1.9416443e+47 -5.3169099e+46 -5.9431488e+46)
(-1.8624424e+47 1.5181255e+46 -4.5926702e+46)
(-2.3389062e+47 -1.4137493e+47 -6.7250595e+45)
(-1.6273364e+46 -1.0387315e+47 3.3960136e+46)
(-1.9213278e+46 -4.0533731e+46 6.4959839e+46)
(3.3070454e+46 -7.917359e+45 4.5076035e+46)
(-1.6973461e+47 -9.8326296e+46 -8.936827e+46)
(-5.6658641e+46 4.7470214e+46 -7.876931e+46)
(1.6737368e+46 9.8276682e+45 4.286586e+46)
(-1.5202759e+47 -6.5879195e+46 -3.2257877e+43)
(-1.3739164e+47 -4.8836157e+46 -2.6462566e+46)
(-1.2485189e+47 -4.4921618e+46 -1.1513192e+46)
(-7.0775299e+46 -3.4567326e+46 -4.0004007e+46)
(-9.4187077e+46 -3.0734236e+46 -2.3554836e+46)
(-8.9368904e+46 -3.1308484e+46 -2.1108139e+46)
(-8.9728598e+46 -8.0733753e+46 8.4818898e+45)
(-1.2079498e+47 -5.5239732e+46 -4.0609671e+45)
(-9.806925e+46 -4.4344477e+46 -1.5678896e+46)
(-6.0327261e+46 -2.464588e+46 -2.7025706e+46)
(2.0007931e+46 -6.0310923e+46 3.7366295e+45)
(-8.2145138e+46 -5.1798638e+46 -9.4464156e+44)
(-1.2067429e+47 -4.9310742e+46 -9.7266329e+45)
(-8.0913398e+46 -3.1816928e+46 -2.1430736e+46)
(-3.4847753e+46 -1.8370678e+46 -2.6243478e+46)
(-1.8467443e+47 -1.0410726e+47 9.3463767e+45)
(-5.8602508e+46 -9.6079669e+46 1.7948575e+46)
(-2.1424109e+46 -4.3624468e+46 1.5746658e+46)
(-2.3675361e+47 -8.6426633e+46 -1.4704311e+46)
(-1.6447451e+47 -5.5432095e+46 -4.8554841e+46)
(-2.195897e+47 -1.4978054e+46 -3.4801696e+46)
(-2.1956199e+47 -1.2514854e+47 -1.2034927e+46)
(-3.0937049e+46 -9.8700113e+46 2.7642514e+46)
(-2.9068897e+46 -4.9690724e+46 5.0657593e+46)
(-2.2243156e+46 -1.504006e+46 2.9512969e+46)
(-1.4107251e+47 -8.8671872e+46 -6.5787471e+46)
(-1.1949068e+47 3.4243633e+46 -3.4186152e+46)
(-2.9675048e+46 -9.8708135e+45 6.2763274e+46)
(1.8608692e+47 -6.9772249e+46 -7.8044463e+46)
(8.4710984e+46 -8.2301751e+46 6.8229575e+45)
(-2.9987211e+46 -3.6107061e+46 7.7381255e+46)
(-1.0655363e+47 -3.3680145e+46 4.8896412e+46)
(-1.9457365e+47 -2.8460359e+46 -1.0695923e+46)
(1.3448047e+47 3.7303207e+46 -5.3546253e+46)
(1.3589829e+46 7.3580217e+46 8.1339531e+46)
(-3.9818163e+46 -7.4216023e+46 9.5232489e+46)
(-9.5542362e+46 -7.5287535e+46 7.7899883e+44)
(-1.4993243e+47 -6.0080633e+46 -2.407242e+46)
(-1.2405198e+47 -5.007364e+46 -8.6535343e+45)
(-7.1946243e+46 -5.0031497e+46 -4.021034e+46)
(-1.0734456e+47 -3.7606377e+46 -2.0143707e+46)
(-1.0587854e+47 -3.789266e+46 -1.8090185e+46)
(-8.5228607e+46 -3.9523195e+46 -1.569556e+46)
(-1.6979069e+47 -5.274015e+46 -1.7248809e+46)
(-8.1462722e+46 -2.7729755e+46 -1.9117614e+46)
(-7.2838076e+46 -2.216238e+46 -2.6367786e+46)
(1.8317224e+46 -6.972652e+46 6.7558913e+45)
(-7.6113733e+46 -5.6135474e+46 -2.6301078e+45)
(-1.1021236e+47 -4.6821503e+46 -1.4286633e+46)
(-7.9227863e+46 -2.8935182e+46 -2.4283103e+46)
(-4.9687897e+46 -1.9624562e+46 -2.5885935e+46)
(6.4636136e+46 -2.6781863e+46 -6.4067093e+45)
(-3.4646046e+46 -4.3432613e+46 -6.9584548e+45)
(-1.0292164e+47 -4.7856297e+46 -1.3000049e+46)
(-1.0372064e+47 -3.4334892e+46 -1.9489624e+46)
(-5.8085369e+46 -2.0515721e+46 -2.4297646e+46)
(-2.1100166e+46 -1.9213775e+46 -1.8749405e+46)
(-2.0187874e+47 -1.0350073e+47 -2.2257932e+46)
(-5.4497776e+46 -8.6957333e+46 1.3385312e+46)
(-5.5671329e+46 -5.1658891e+46 2.394779e+46)
(-7.519346e+46 -2.1575246e+46 6.0648528e+45)
(-1.269863e+47 -7.8388236e+46 -5.6702757e+46)
(-1.5344739e+47 -3.1124732e+46 -2.0267195e+46)
(-7.5281264e+46 -3.9357171e+46 4.7336763e+46)
(1.0301318e+47 -6.4778353e+46 -6.2231681e+46)
(9.2196787e+45 -7.1706275e+46 6.6030933e+45)
(-5.1819561e+46 -4.0130815e+46 6.6160328e+46)
(-1.0520182e+47 -2.9127583e+46 4.6210036e+46)
(-1.8001623e+47 -3.0765398e+46 -1.7574941e+46)
(1.6198804e+47 2.9132622e+46 6.8580143e+45)
(3.7506033e+46 -2.8675957e+46 1.1021123e+47)
(4.7677335e+46 -1.1072972e+47 3.0972528e+47)
(9.1197524e+46 -5.1301146e+45 5.0885347e+46)
(1.9355826e+47 1.136694e+47 1.721753e+46)
(-1.2865094e+47 -6.5259381e+46 -7.8667792e+45)
(-2.5185907e+47 -3.0433228e+46 2.926602e+44)
(-1.4126817e+47 -2.6816706e+46 1.5302828e+46)
(2.223683e+47 1.0920609e+47 3.1680733e+46)
(7.340446e+46 -4.5455994e+46 4.6375491e+46)
(2.6749492e+46 5.2351427e+46 -1.6961066e+46)
(2.5228425e+46 -9.6769278e+45 5.4333912e+46)
(-9.1316473e+46 -7.1747147e+46 -3.0297361e+46)
(2.289901e+46 -5.9210167e+46 2.8128821e+45)
(-8.2944418e+46 -5.2783171e+46 -5.9994453e+45)
(-4.1917025e+46 -6.2857278e+46 -5.2066273e+46)
(-1.1036732e+47 -4.6136544e+46 -2.0612823e+46)
(-1.1694822e+47 -4.2626249e+46 -1.6413007e+46)
(-7.9521343e+46 -4.5666289e+46 -1.4880124e+46)
(-1.8692503e+47 -8.0182657e+46 -1.4964871e+46)
(-9.221544e+46 -3.1423152e+46 -1.8325704e+46)
(-8.7945336e+46 -2.6663409e+46 -2.4067376e+46)
(-9.0086388e+46 -4.078747e+46 -7.2802266e+45)
(-8.3022619e+46 -3.8575808e+46 -8.6240732e+45)
(7.5547831e+45 -4.8029146e+46 2.3418733e+46)
(-8.324763e+46 -2.3603074e+46 -2.2377991e+46)
(-6.5925828e+46 -2.0508367e+46 -2.4336503e+46)
(2.3615966e+46 -3.1840243e+46 1.0063658e+46)
(-2.913469e+46 -4.5550287e+46 -3.0082634e+45)
(-9.7852196e+46 -4.6614955e+46 -1.4086457e+46)
(-9.7557293e+46 -3.1484156e+46 -2.2866008e+46)
(-6.8358243e+46 -2.1040503e+46 -2.4021781e+46)
(-4.3101696e+46 -2.1772945e+46 -1.8080105e+46)
(-2.2557685e+46 -1.1873111e+46 -1.7816778e+46)
(-5.4049378e+46 -2.2637223e+46 -1.9212002e+46)
(-6.8419242e+46 -3.7131441e+46 -1.7027364e+46)
(-9.9808095e+46 -3.7126171e+46 -2.0076517e+46)
(-8.1259085e+46 -2.2118375e+46 -2.1819386e+46)
(-4.5401331e+46 -1.6664651e+46 -2.054796e+46)
(-5.1147722e+46 -1.7449693e+46 -1.6601659e+46)
(8.4094202e+46 -5.138635e+46 -5.1925665e+46)
(-2.4554703e+46 -6.3989779e+46 -1.258473e+45)
(-7.8193874e+46 -4.1578903e+46 3.5839599e+46)
(-1.1651455e+47 -3.2340796e+46 1.6643757e+46)
(-1.8766274e+47 -3.4237496e+46 -2.930105e+46)
(2.69294e+47 5.779427e+45 3.6105178e+46)
(-9.113154e+45 -6.2185381e+46 6.8248107e+46)
(5.86851e+46 -4.6765665e+46 1.68377e+47)
(1.156176e+46 -2.5625038e+46 4.4406237e+46)
(7.9143337e+46 7.6619364e+46 2.4555911e+46)
(-1.1008984e+47 -5.5562009e+46 -9.2107883e+45)
(-1.7579617e+47 -2.8358731e+46 5.2827121e+45)
(-1.3382227e+47 -2.5684382e+46 6.0108803e+45)
(3.804558e+46 5.5775278e+46 2.3331867e+46)
(4.7253973e+46 -3.7783785e+46 8.7657613e+46)
(-1.1066578e+47 -5.5545162e+46 8.5545341e+46)
(9.0444709e+46 -1.5598406e+46 1.6325073e+47)
(-2.2586095e+47 -3.050356e+46 9.5335354e+46)
(3.6741382e+46 9.9717019e+46 1.0779631e+47)
(-1.094132e+47 1.2312429e+47 1.1312357e+47)
(6.9037612e+45 -2.0405356e+46 -7.8134626e+46)
(-3.8088131e+47 -3.4520293e+46 -1.504013e+47)
(8.3888196e+46 4.6827315e+46 1.2815544e+47)
(5.9149912e+46 1.6054392e+47 -1.6372792e+46)
(-1.0573418e+47 7.4083969e+46 4.2042458e+45)
(3.0682286e+46 -2.9534306e+46 -1.5607827e+46)
(8.9223425e+45 -5.5315716e+45 1.1506147e+46)
(1.2526037e+47 -3.4154114e+46 -4.0985309e+46)
(-7.2832579e+46 -5.1213732e+46 -2.1094297e+46)
(3.4845515e+46 -4.5055903e+46 -7.7605318e+45)
(-1.0996162e+46 -2.511712e+46 1.4030778e+46)
(-4.3530601e+46 -4.1367825e+46 -2.8077985e+45)
(-1.0645478e+47 -4.4238625e+46 -1.4872888e+46)
(-5.614144e+46 -5.1413192e+46 -1.9532589e+46)
(-2.4864256e+46 -4.3840193e+46 2.5453963e+45)
(-9.5638479e+46 -3.7218727e+46 -1.8643511e+46)
(-1.0483756e+47 -3.0330484e+46 -2.3290112e+46)
(-1.27271e+47 -5.4713655e+46 -7.0917651e+45)
(-8.1916113e+46 -3.9687898e+46 -8.3693582e+45)
(1.3548782e+46 -4.6811794e+46 2.8835196e+46)
(-8.9605162e+46 -2.4644036e+46 -2.1974237e+46)
(-7.8497749e+46 -2.0750859e+46 -2.3185947e+46)
(-7.5700591e+46 -3.3727647e+46 1.6926205e+45)
(-5.5077559e+46 -3.5201268e+46 3.2178503e+45)
(-8.3041886e+46 -3.0411691e+46 -1.3664629e+46)
(5.4836491e+46 -5.5754043e+46 9.690424e+46)
(-8.5881967e+46 -2.2047962e+46 -2.2625452e+46)
(-6.2202058e+46 -2.4314479e+46 -1.3557438e+46)
(-5.9823193e+46 -2.1297601e+46 -1.7469056e+45)
(-7.6723283e+46 -2.4835656e+46 -1.03887e+46)
(-6.7974359e+46 -3.564517e+46 -1.1554615e+46)
(-9.8570668e+46 -3.4601811e+46 -2.0596672e+46)
(-8.9131447e+46 -2.240817e+46 -2.1793397e+46)
(-5.8397128e+46 -1.8262609e+46 -1.9018327e+46)
(-6.4575491e+46 -2.0883304e+46 -2.0597731e+46)
(-9.2562045e+46 -1.7394312e+46 -2.692214e+46)
(-9.9798094e+46 -2.1291017e+46 -3.5716664e+46)
(-8.4045416e+46 -2.2401739e+46 -2.5742782e+46)
(-8.8904619e+46 -3.3612804e+46 -2.1593376e+46)
(-8.555471e+46 -2.4985043e+46 -2.0898435e+46)
(-7.309448e+46 -1.8441455e+46 -2.1167649e+46)
(-5.9353847e+46 -1.5897296e+46 -1.9477044e+46)
(-6.2809532e+46 -1.1473878e+46 -5.2352591e+45)
(-3.4871998e+46 -3.3458971e+46 8.9242608e+45)
(5.2357779e+46 4.5799538e+46 2.7783359e+46)
(-1.0546809e+47 -4.0591338e+46 -1.5094808e+46)
(-1.4819775e+47 -3.3059431e+46 -1.4991747e+45)
(-1.7585618e+47 -3.255719e+46 -4.0370941e+46)
(-6.7471159e+46 2.005991e+46 4.7617886e+45)
(4.6871313e+46 -4.7982281e+46 6.3896576e+46)
(-8.9838845e+46 -7.1403412e+46 9.4218687e+46)
(8.2917077e+46 -5.9823109e+45 9.1068603e+46)
(-1.609928e+47 -5.1338879e+46 5.5989828e+46)
(1.2001671e+47 7.5852562e+46 5.6789638e+46)
(-1.8016053e+47 7.5548357e+46 8.1298915e+46)
(-2.5326547e+46 -1.1412988e+46 -4.2342414e+46)
(-2.5581731e+47 -3.887966e+45 -6.6876155e+46)
(1.725303e+46 5.0324738e+46 1.0808026e+47)
(7.3288222e+46 1.7805299e+47 -2.174598e+46)
(-1.0310943e+47 -2.2891672e+46 3.7930444e+46)
(8.7675649e+46 -1.459992e+46 5.1682874e+46)
(4.2695717e+46 -7.4384933e+43 9.2962442e+45)
(6.3592565e+46 1.1756239e+44 9.5031436e+45)
(-3.0302561e+47 -4.3803157e+46 -8.6828446e+46)
(5.8583793e+46 1.5568625e+46 3.5082494e+46)
(-1.9169329e+47 -8.0799477e+46 -5.2247948e+46)
(7.6511298e+45 6.2071127e+46 -7.9707373e+46)
(-2.4019343e+47 6.3514865e+45 -4.0218639e+46)
(5.4272136e+46 1.918222e+47 -1.1717949e+46)
(5.6477003e+46 -2.12653e+45 -1.2766256e+46)
(3.9070366e+46 -6.9097389e+46 -3.3998879e+46)
(1.8750877e+46 -9.5601925e+45 2.1234766e+46)
(-5.6477014e+46 1.3321774e+46 4.5181178e+46)
(1.0046638e+47 2.5854828e+46 2.9452291e+46)
(-2.0970662e+46 -4.0428184e+46 -2.0064887e+46)
(3.0296059e+46 -2.7198682e+46 -1.2993297e+46)
(-4.2669212e+46 -3.8811864e+46 -9.4857443e+45)
(-7.263587e+46 -3.9327845e+46 -1.6300118e+46)
(-1.5362869e+46 -1.155899e+46 -1.9461335e+46)
(-8.0987614e+46 -2.0510633e+46 -6.2340445e+45)
(-8.9273858e+46 -2.4485871e+46 -1.0171033e+46)
(-7.6061336e+46 -3.4106753e+46 -9.8463529e+45)
(-1.0226577e+47 -3.3540096e+46 -2.1805523e+46)
(-1.0391753e+47 -5.8048267e+46 -2.3499135e+45)
(-6.6718586e+46 -4.0295664e+46 -9.9870348e+45)
(1.1273255e+46 -2.3679213e+46 2.9410899e+46)
(-9.032867e+46 -2.780856e+46 -2.1937381e+46)
(-9.3089669e+46 -2.2754032e+46 -2.27526e+46)
(-8.7190718e+46 -3.2826762e+46 2.2391112e+45)
(-7.2226264e+46 -3.3129387e+46 7.0318211e+44)
(-8.5858599e+46 -2.7902616e+46 -1.3969064e+46)
(-3.7098815e+46 -8.1191347e+46 7.20269e+46)
(-8.9810768e+46 -2.195449e+46 -2.2725192e+46)
(-6.8892172e+46 -2.0137031e+46 -1.6104035e+46)
(-7.3633294e+46 -3.3159804e+46 6.7213817e+45)
(-8.3326872e+46 -2.7713541e+46 -5.8107372e+45)
(5.4078288e+46 -4.9557068e+46 9.002569e+46)
(-8.1988281e+46 -2.4218278e+46 -2.087094e+46)
(8.409024e+46 -3.7903429e+46 1.0159106e+47)
(-8.4065804e+46 -2.629756e+46 -2.1587251e+46)
(-7.4236525e+46 -2.5759987e+46 -1.9296092e+46)
(-1.154298e+47 -2.6509628e+46 -2.1514505e+46)
(-8.7617824e+46 -2.2208506e+46 -4.1738673e+46)
(-1.0776027e+47 -2.3559024e+46 -2.1023591e+46)
(-9.6370906e+46 -3.1093846e+46 -1.8065953e+46)
(-8.9661404e+46 -2.4692271e+46 -1.9970927e+46)
(-7.6684446e+46 -2.0249015e+46 -1.9659001e+46)
(-7.2509584e+46 -1.7922023e+46 -2.2085867e+46)
(-7.444047e+46 -1.5178053e+46 -9.6877665e+45)
(-1.0506825e+47 -1.6310285e+46 -3.6745039e+46)
(-9.0327872e+46 -1.7872975e+46 -2.7279706e+46)
(2.7288433e+46 2.2728842e+46 -1.9552727e+46)
(-8.1828476e+46 -2.5575728e+46 -2.481104e+46)
(-8.512774e+46 -2.6790841e+46 -2.1585549e+46)
(-8.4310721e+46 -1.9635432e+46 -2.3933598e+46)
(-6.7133308e+46 -1.3733069e+46 -2.2317273e+46)
(-6.4107995e+46 -1.6987061e+46 -6.5230935e+45)
(-5.0076342e+46 3.8673129e+45 4.1654789e+45)
(-8.9272229e+46 -5.1147863e+46 2.070056e+46)
(1.6824824e+47 5.4313205e+46 3.1462863e+46)
(-1.8521666e+47 -2.3999485e+45 2.3707426e+46)
(-7.549975e+46 -1.6069664e+46 -4.1004188e+46)
(-2.9623544e+47 -2.2555522e+46 -1.0520709e+47)
(-6.4339801e+46 2.8721246e+46 4.0476771e+46)
(6.3055804e+46 1.6356695e+47 -2.7636542e+46)
(-1.1995608e+47 -1.0476664e+47 4.8190792e+46)
(9.1096778e+46 8.3462599e+45 5.087892e+46)
(6.8806405e+46 6.0339425e+45 2.8026908e+46)
(1.3165494e+47 -1.1335339e+47 -2.405807e+46)
(-1.8271794e+47 -6.4514228e+46 -6.5950766e+46)
(9.0964212e+46 1.4186207e+46 -8.5948535e+45)
(-7.3994396e+46 -1.0020486e+47 4.8411773e+44)
(2.8344252e+46 1.5576326e+47 1.7133141e+46)
(-1.4683468e+47 1.9507061e+46 2.1758862e+44)
(5.5470533e+46 2.1076383e+47 -2.9969975e+45)
(5.4304392e+46 -1.1554949e+46 -1.7295935e+46)
(8.4541413e+46 -9.1180144e+46 8.8753276e+46)
(5.1789864e+46 -5.7774668e+45 2.8305722e+46)
(-5.3357157e+46 9.349545e+45 2.0987418e+46)
(1.3677308e+47 -1.2186727e+47 -3.1927483e+46)
(7.3272415e+46 1.5679696e+46 -2.6678774e+45)
(5.3559505e+46 -7.1435611e+45 -1.0312479e+46)
(5.8475562e+46 5.5034203e+46 -3.5420192e+46)
(5.0370494e+46 2.3581677e+46 -1.023783e+47)
(-5.7151034e+45 8.6472987e+46 1.0132138e+46)
(2.8142861e+46 2.6154316e+47 4.0250734e+45)
(8.2124459e+46 1.453782e+46 6.198178e+45)
(2.9053617e+46 -3.0887712e+46 1.8459611e+46)
(1.87797e+46 -2.9298376e+46 2.8459579e+46)
(-9.5134028e+45 -3.7912358e+45 3.1735398e+46)
(-4.5860374e+47 2.645886e+47 -1.5146735e+46)
(-5.1539387e+46 -4.1300783e+46 9.1858267e+45)
(-1.3350508e+47 -3.4519556e+46 -6.284851e+45)
(7.9277934e+46 -2.2706018e+46 1.2035736e+46)
(-2.8248483e+46 -2.9062853e+46 -1.1069273e+46)
(-5.8679105e+46 -3.7538184e+46 -1.3003577e+46)
(1.1887905e+47 1.4809381e+46 -1.2745758e+46)
(-5.9245583e+46 -1.5574591e+46 -2.1086771e+46)
(-6.1646242e+46 -3.3299673e+46 -1.2455399e+46)
(-7.6414259e+46 -2.9057591e+46 -2.0616928e+46)
(-2.8216059e+46 3.4952656e+45 -2.7786371e+46)
(-1.1415379e+47 -2.7015603e+46 -2.4186034e+46)
(-1.7102165e+47 -1.8547916e+46 -9.0536516e+46)
(-1.0367694e+47 -2.4177852e+46 -2.0916544e+46)
(-9.7170662e+46 -3.1003572e+46 -1.8376282e+46)
(-9.0735305e+46 -2.6113622e+46 -2.0943774e+46)
(-9.046652e+46 -4.0450512e+46 5.6124551e+44)
(-4.2617981e+46 -3.0061915e+46 8.4817583e+45)
(-7.8899956e+46 -2.8123079e+46 -1.507963e+46)
(-1.1275415e+47 -1.1659518e+47 2.8473758e+46)
(-9.1886776e+46 -2.1926535e+46 -2.462511e+46)
(-8.0159719e+46 -2.2219926e+46 -1.911659e+46)
(-8.6231455e+46 -3.3719546e+46 4.0898893e+45)
(-8.7435932e+46 -2.288488e+46 -5.5099439e+45)
(2.7973979e+46 -4.5385957e+46 7.5521914e+46)
(-8.4933971e+46 -2.2507621e+46 -2.1397804e+46)
(2.5178757e+47 -3.5605608e+46 1.6186791e+47)
(-8.5610469e+46 -2.278687e+46 -2.4859849e+46)
(-8.2336231e+46 -2.1631466e+46 -2.1114276e+46)
(-8.742492e+46 -2.7045589e+46 8.6720684e+44)
(1.9619906e+46 -4.6948241e+46 7.0062913e+46)
(-8.1684777e+46 -2.2905882e+46 -1.8649512e+46)
(4.3043029e+46 -4.9986527e+46 8.6298313e+46)
(-7.7437079e+46 -2.8106689e+46 -2.1826483e+46)
(8.3704159e+46 -3.1471656e+45 6.9777715e+46)
(-7.333075e+46 -2.9983386e+46 -1.4940433e+46)
(-7.0185572e+46 -1.6185475e+46 -3.3947918e+46)
(-1.0266963e+47 -2.2854024e+46 -4.1286991e+46)
(-1.1581968e+47 -2.5184997e+46 -2.4055001e+46)
(-4.7624685e+46 1.9518364e+46 -1.7736319e+45)
(-1.0412343e+47 -2.5662064e+46 -2.1066115e+46)
(-9.331032e+46 -2.6161516e+46 -1.9995986e+46)
(-8.0884072e+46 -2.0972336e+46 -2.193888e+46)
(-7.9065785e+46 -1.587374e+46 -2.4672275e+46)
(-7.3788492e+46 -1.9148174e+46 -1.2033639e+46)
(-5.2204483e+46 2.7876399e+45 -5.8929215e+45)
(-1.0245909e+47 -1.0110298e+46 -3.1481908e+46)
(-8.5173118e+46 2.4364873e+46 -2.9075037e+46)
(-8.7470625e+46 -2.1675867e+46 -2.2265609e+46)
(1.7910873e+47 1.1717586e+47 -6.2036053e+45)
(-8.0998837e+46 -2.5357455e+46 -2.1646158e+46)
(-7.9825175e+46 -1.9335099e+46 -2.5817388e+46)
(-6.935285e+46 -1.7927808e+46 -2.5434071e+46)
(-6.2962791e+46 -1.826242e+46 -9.5148592e+45)
(-5.3184047e+46 4.1407336e+44 2.2616216e+45)
(-6.5252321e+46 -2.0514414e+45 -3.1914729e+45)
(1.1389793e+47 -1.2642155e+47 -4.5418086e+46)
(-1.1203514e+47 -6.8350121e+46 -5.4974596e+46)
(6.2688476e+46 3.4341189e+46 -2.9915106e+46)
(-2.7310852e+46 -1.3694665e+47 1.7088148e+46)
(5.2661462e+45 1.0185284e+47 -3.8067405e+46)
(-1.5609433e+47 1.7195747e+46 1.8503726e+46)
(3.2966868e+46 2.0299363e+47 -1.7785609e+46)
(-1.7600288e+46 2.6319922e+46 -6.4337711e+45)
(2.1868028e+47 -3.5593721e+46 1.3666834e+47)
(6.6193427e+46 1.174953e+46 2.8582605e+46)
(1.2245437e+46 -8.0251497e+45 -5.5292603e+45)
(1.5200373e+47 -2.0327417e+47 -4.5609819e+46)
(5.7789792e+46 6.9524707e+45 -2.9216403e+46)
(5.9442237e+46 -6.69135e+46 -5.7933401e+46)
(7.4223626e+46 8.2598213e+46 -1.0531747e+47)
(-6.2498482e+46 -8.8861794e+46 -1.1491136e+46)
(-1.3890486e+46 1.4160559e+47 5.9684173e+46)
(4.5186862e+46 1.882626e+47 1.8411503e+46)
(1.1158601e+47 3.0363325e+46 2.200535e+46)
(1.5478825e+46 -3.5823614e+46 6.4991033e+46)
(3.8669362e+46 -3.1796203e+46 2.6997698e+46)
(1.4626111e+47 4.5823869e+46 1.0627206e+47)
(-5.1800204e+47 8.3633045e+44 -1.5716089e+46)
(7.5424497e+46 1.98142e+46 -1.0568865e+46)
(8.6773856e+46 -3.5501171e+46 -8.5880419e+46)
(6.5114999e+46 3.6104328e+46 -4.2146066e+46)
(1.0085665e+47 -1.5604956e+47 2.7029213e+46)
(1.6986021e+46 5.0553667e+46 2.2885866e+46)
(1.9613353e+46 -5.1643743e+46 2.3455996e+46)
(2.5690891e+46 1.2554742e+47 -2.5167951e+46)
(6.7795461e+46 2.0279788e+46 9.7231882e+45)
(5.0517184e+46 -2.3164417e+46 3.9954963e+46)
(2.302095e+46 -7.092564e+46 -3.1420294e+46)
(-2.0301153e+46 -8.4305369e+46 -3.755997e+46)
(-1.0646538e+48 2.674168e+47 -8.7128613e+45)
(-1.2879957e+47 -1.212919e+46 -2.2204391e+45)
(-6.9763331e+46 -4.5631214e+46 2.0048582e+45)
(-1.019438e+47 -5.3066658e+46 -7.8553561e+44)
(5.1556895e+46 -1.1124593e+46 1.795962e+46)
(-6.3132518e+46 -1.1894343e+47 -2.1333422e+45)
(6.5890325e+46 -6.391057e+45 -2.8063753e+46)
(1.5983743e+47 -7.0467201e+46 -3.024769e+46)
(2.2901661e+46 2.8602065e+45 -1.5401811e+46)
(-3.9978794e+46 -3.2463808e+46 -1.3478938e+46)
(-7.2971224e+46 -2.8091264e+46 -1.8638877e+46)
(1.102567e+47 9.0643278e+46 -1.4273484e+45)
(-5.7013981e+46 -7.814147e+45 -3.0481296e+46)
(-7.0582519e+46 -2.2805175e+46 -2.4975277e+46)
(-7.2475429e+46 -2.8472091e+46 -1.9633038e+46)
(-7.8755107e+46 -2.440292e+46 -2.4330082e+46)
(-2.7175794e+46 4.9349654e+46 -8.326002e+46)
(-9.7137304e+46 -2.0675967e+46 -5.9548173e+46)
(-1.1318461e+47 -2.6504091e+46 -2.9900506e+46)
(-1.6322662e+47 -3.8717323e+45 -1.9430475e+46)
(-1.0592659e+47 -2.5111357e+46 -2.4038762e+46)
(-9.4106798e+46 -2.713692e+46 -2.1690342e+46)
(-7.942105e+46 -2.3792218e+46 -2.3795514e+46)
(-7.5241439e+46 -3.9493957e+46 6.8544859e+45)
(-8.1828385e+46 -2.654186e+46 -4.9628868e+45)
(-1.5365671e+45 -6.2815253e+46 4.2091837e+46)
(-8.6076858e+46 -2.2010454e+46 -2.4063121e+46)
(1.4618757e+47 -1.4630631e+46 9.7709246e+46)
(-8.9544609e+46 -2.5315756e+46 -2.9940579e+46)
(-8.704323e+46 -1.8153355e+46 -2.4320632e+46)
(-9.2619954e+46 -2.2081337e+46 1.2263984e+44)
(1.7828592e+46 -3.2898298e+46 6.7477147e+46)
(-8.5611291e+46 -2.0328701e+46 -1.7486868e+46)
(9.8222833e+46 -4.3438725e+46 1.0225742e+47)
(-8.0117807e+46 -2.3413997e+46 -2.1268995e+46)
(6.9981486e+46 1.9921362e+46 5.2398887e+46)
(-8.0265804e+46 -2.4864253e+46 -1.829721e+46)
(-7.8008273e+46 -1.8148984e+46 -2.8276829e+46)
(-4.9670932e+46 -2.2618293e+46 3.1548011e+45)
(-8.4243083e+46 -1.6706938e+46 -1.7906226e+46)
(6.4698886e+46 -5.1716816e+46 8.8704548e+46)
(-6.7515306e+46 -2.4155191e+46 -2.4585364e+46)
(1.3840461e+47 -2.7026466e+46 1.3009306e+47)
(-7.544905e+46 -2.7982642e+46 -1.8481666e+46)
(2.3078294e+47 -3.3839317e+45 3.6548822e+46)
(-9.2376193e+46 -2.7424815e+46 -8.5895919e+45)
(-4.9765569e+46 3.0787026e+45 -1.1233888e+46)
(-1.0981117e+47 -1.661461e+46 -3.2787057e+46)
(-1.4297553e+47 1.4021325e+46 -3.185788e+46)
(-1.0218844e+47 -2.4509977e+46 -1.7863302e+46)
(2.8001354e+46 1.20958e+47 -7.477349e+45)
(-9.289012e+46 -2.4252017e+46 -1.8478079e+46)
(-8.3136896e+46 -1.8468623e+46 -2.2451899e+46)
(-7.7977112e+46 -1.9885299e+46 -2.546352e+46)
(-6.8825373e+46 -1.8120874e+46 -1.7096381e+46)
(-4.616533e+46 -1.6236454e+45 -7.7994409e+45)
(-6.0057744e+46 -5.2023211e+44 -5.2973472e+45)
(-1.0091802e+47 1.480987e+46 -2.9394991e+46)
(-9.9138552e+46 -1.3318212e+46 -2.6450949e+46)
(4.7889567e+46 9.5663373e+46 -6.0119582e+45)
(-9.7139365e+46 -2.4851379e+46 -1.8294233e+46)
(3.4405905e+46 6.5242168e+46 -1.4766685e+46)
(-7.6072154e+46 -1.8580566e+46 -2.5351412e+46)
(-8.2020937e+46 -1.1340967e+46 -2.3925595e+46)
(-8.0594424e+46 -1.1333224e+46 -1.788561e+46)
(-6.6881724e+46 -2.0772981e+46 2.0191243e+45)
(-5.8321194e+46 -3.7671441e+45 -1.6523946e+45)
(-6.3679102e+46 -3.9324263e+45 -4.9674437e+45)
(1.5314607e+47 -1.5471339e+47 -4.9226571e+46)
(-1.2210509e+47 2.4517605e+46 -7.3950678e+46)
(-1.0218836e+47 -1.1684402e+47 -9.8420096e+46)
(6.0945283e+46 8.9040853e+46 -1.3273687e+47)
(-6.2192493e+46 -1.0153014e+47 3.8946794e+46)
(-4.572152e+45 1.4471006e+47 4.0825035e+46)
(3.1875969e+46 1.6158927e+47 9.886538e+45)
(5.5680519e+46 5.3666955e+46 2.5112099e+46)
(-4.5162386e+46 6.269717e+45 3.7891357e+46)
(7.0759741e+46 -2.6470284e+45 2.4114742e+46)
(1.2139588e+47 -3.7048841e+46 1.1551072e+46)
(-4.3845575e+47 -4.8248344e+46 -4.8679321e+45)
(7.5201779e+46 3.371892e+46 3.1328457e+46)
(2.2028939e+47 6.8518743e+46 -1.6211548e+47)
(7.3407802e+46 6.4557053e+46 -8.6182663e+46)
(2.2788209e+47 -1.0431532e+47 8.6769459e+46)
(4.2137041e+46 1.2312789e+47 -2.5902441e+46)
(3.7595052e+46 -8.4679642e+46 3.2972242e+46)
(1.5630456e+46 1.4914238e+47 -5.4026893e+46)
(8.9729411e+46 4.2024095e+46 3.3012441e+46)
(1.0456243e+47 -4.2268731e+46 1.0074246e+47)
(7.1121752e+45 -1.1711825e+47 -4.4091002e+46)
(1.8167767e+47 -1.4270112e+47 -9.2392985e+46)
(-7.2176208e+47 -3.9016805e+46 -1.2730052e+46)
(-1.8171981e+47 -5.3427301e+46 6.9924852e+45)
(-4.0240704e+46 -2.9522919e+45 -5.0147671e+46)
(6.1234837e+46 3.58048e+46 -1.9054848e+46)
(8.6061067e+47 2.7100733e+45 -3.8238977e+46)
(3.9777978e+46 2.2220621e+46 -4.4359409e+46)
(8.2412123e+46 -6.4506387e+46 -4.7470151e+46)
(-2.5099378e+46 1.0486131e+47 1.8584874e+46)
(2.2085191e+46 -3.6772351e+46 6.6587796e+46)
(5.7464781e+46 5.4299882e+46 2.5430715e+46)
(9.4361252e+46 -3.5603716e+46 2.9671399e+46)
(1.5261015e+46 -1.0212977e+47 -3.8960243e+46)
(5.1441099e+46 4.6436783e+44 -1.0432426e+46)
(-2.0012054e+47 -3.3921788e+46 -2.5198544e+46)
(-4.7450479e+46 2.6688472e+46 -1.5761934e+46)
(-1.3401478e+46 6.2868601e+46 1.9283781e+46)
(-8.2075898e+46 -5.0352764e+46 8.1949513e+45)
(3.6670888e+46 -2.2860234e+46 1.2910931e+46)
(-7.3998321e+46 -3.3275358e+46 -5.8954128e+45)
(5.3113245e+46 -1.5766323e+46 2.3855758e+46)
(-1.1806488e+47 -9.6373829e+46 -3.5005941e+46)
(1.2588154e+46 1.8012334e+46 9.6476173e+45)
(-1.3090836e+46 -8.8167977e+46 4.5970936e+46)
(-8.2509338e+46 -8.6222797e+46 -9.2178505e+46)
(3.0308992e+46 4.062934e+45 -3.2228313e+46)
(-1.2897563e+47 4.5121851e+46 -4.8921805e+46)
(1.1263873e+47 6.4708728e+46 2.821448e+46)
(-3.3168855e+46 -2.3925877e+46 -1.8569565e+46)
(-4.9801931e+46 -2.6918793e+46 -2.1372163e+46)
(-7.7052827e+46 -2.3984595e+46 -2.1760149e+46)
(5.2751259e+46 7.1149922e+46 -7.9703433e+46)
(-1.0753303e+47 -1.3997639e+46 -9.0283973e+46)
(-5.8952761e+46 -1.2751887e+46 -3.3991121e+46)
(-7.725408e+46 -2.1948787e+46 -2.5742357e+46)
(-7.3218357e+46 -1.9616752e+46 -2.5498614e+46)
(-8.5200435e+46 -2.5715117e+46 -3.1346462e+46)
(5.0340044e+46 1.5082709e+47 2.1082407e+46)
(-7.2308113e+46 -1.3497341e+46 -3.3577025e+46)
(-2.5135532e+47 -1.7153841e+46 -9.2164747e+46)
(-9.8082766e+46 -2.4833911e+46 -2.3882575e+46)
(7.2973895e+45 1.2763157e+47 9.0695397e+45)
(-9.5517128e+46 -2.1829322e+46 -2.0632346e+46)
(-8.7788163e+46 -2.0483856e+46 -2.434589e+46)
(-8.1574459e+46 -2.3736027e+46 -1.5884024e+46)
(-7.0226255e+46 -2.3380964e+46 2.7033665e+45)
(3.0983491e+46 -3.0351817e+46 4.0949441e+46)
(-8.4386508e+46 -2.0191437e+46 -1.647604e+46)
(8.2875799e+46 -2.4444053e+46 8.4053717e+46)
(-8.5816454e+46 -2.5211363e+46 -2.4070766e+46)
(9.8609136e+46 3.349278e+46 4.5895968e+46)
(-8.4065884e+46 -1.4737249e+46 -2.4598462e+46)
(-8.6352629e+46 -1.4105227e+46 -2.5880619e+46)
(1.2719598e+45 -3.4363273e+44 1.3525805e+46)
(-7.6478372e+46 -1.2527713e+46 -1.6014269e+46)
(7.4136722e+46 -3.868942e+46 8.0578764e+46)
(-7.6617388e+46 -2.2407221e+46 -2.4896152e+46)
(5.048804e+47 1.5695873e+46 2.4409633e+47)
(-9.224678e+46 -2.8282787e+46 -1.9592549e+46)
(1.6930147e+47 4.3050543e+45 3.6301487e+46)
(-9.8549764e+46 -2.843089e+46 -1.2651733e+46)
(-5.7891841e+46 -5.5621967e+45 -1.1219088e+46)
(-8.9955491e+46 -5.7737535e+45 -3.4338915e+46)
(3.7902683e+46 -3.8367628e+46 5.5873598e+46)
(-6.2338078e+46 -1.8591652e+46 -3.0481805e+46)
(4.0059089e+46 -4.4963501e+46 6.900429e+46)
(-5.5114056e+46 -2.0005335e+46 -3.2023779e+46)
(-2.2592657e+47 -3.3961783e+46 3.7630674e+46)
(-1.6156035e+46 8.4504829e+44 -2.2280717e+46)
(-4.7160531e+46 4.4367978e+45 -1.0469326e+46)
(-1.2053401e+47 9.466026e+45 -3.1788166e+46)
(-1.03266e+47 -1.7429154e+46 -2.5302066e+46)
(1.3608579e+47 1.589373e+47 2.9581894e+46)
(-9.8993492e+46 -2.4890177e+46 -1.5987281e+46)
(1.3006174e+47 1.3428754e+47 1.0377075e+46)
(-8.5297493e+46 -1.8462977e+46 -2.309552e+46)
(-9.8113379e+46 -1.3214001e+46 -2.233233e+46)
(-9.7906537e+46 -1.0983639e+46 -1.8206982e+46)
(-7.0825571e+46 -2.0312217e+46 -5.1912393e+45)
(-5.1811794e+46 -2.2689391e+45 -4.2108138e+45)
(-6.2911689e+46 -3.5621881e+45 -5.8814871e+45)
(-1.0077295e+47 -6.2248642e+45 -2.9921304e+46)
(-1.3781224e+47 6.3201487e+45 -3.3986509e+46)
(-9.5111654e+46 -1.9817606e+46 -2.194286e+46)
(-8.1037494e+46 4.6721481e+46 2.0910741e+46)
(-8.3543236e+46 -2.1242742e+46 -2.1071799e+46)
(-7.0945841e+46 -1.6941641e+46 -2.4968284e+46)
(-4.9443502e+46 -2.3983673e+46 -1.2297499e+46)
(-8.9193879e+46 1.5688515e+45 -1.0019675e+46)
(-5.7041144e+46 -7.9455421e+45 -6.8765378e+44)
(-6.2416149e+46 -4.6826083e+45 -4.5381607e+45)
(-6.132984e+46 -4.7490433e+45 -4.5679269e+45)
(1.1386266e+47 8.2202907e+46 5.4001513e+46)
(2.1981949e+47 7.3447219e+46 -2.0538577e+47)
(1.2563806e+46 7.3745027e+46 -1.0583068e+47)
(2.1797727e+47 -5.6447513e+46 1.0152784e+47)