/*--------------------------------*- C++ -*----------------------------------*\
  =========                 |
  \\      /  F ield         | OpenFOAM: The Open Source CFD Toolbox
   \\    /   O peration     | Website:  https://openfoam.org
    \\  /    A nd           | Version:  7
     \\/     M anipulation  |
\*---------------------------------------------------------------------------*/
FoamFile
{
    version     2.0;
    format      ascii;
    class       volScalarField;
    location    "1000";
    object      nut;
}
// * * * * * * * * * * * * * * * * * * * * * * * * * * * * * * * * * * * * * //

dimensions      [0 2 -1 0 0 0 0];

internalField   nonuniform List<scalar> 
33730
(
9.4479681e-08
2.1023791e-09
4.1003925e-07
3.8926204e-08
6.3141291e-09
3.3814881e-08
8.3867998e-08
4.2353375e-09
1.7250525e-09
3.0057626e-09
2.4696382e-09
2.1941486e-09
4.9653854e-09
4.7373798e-09
1.9278009e-07
1.9815893e-07
3.6534392e-07
1.9144722e-08
8.5273433e-09
1.8211945e-08
1.0436387e-08
1.7325873e-08
1.9376693e-08
6.5595415e-09
4.1819383e-08
6.9043053e-09
3.9626108e-08
6.907572e-09
5.4926225e-09
1.2747984e-07
1.7593101e-09
2.1250734e-09
1.3694492e-09
1.4290297e-09
1.7515154e-09
2.1746093e-09
1.4891123e-09
1.9843014e-09
1.3352347e-09
3.9053586e-09
3.6241726e-09
3.1571964e-09
3.6493288e-09
2.888854e-09
2.6717018e-09
1.0710097e-08
1.5051943e-09
1.6283833e-09
1.3150603e-08
5.2421093e-09
8.6426662e-09
1.2433851e-09
1.5310956e-09
1.0781553e-08
2.2315451e-07
9.5078465e-09
1.1412753e-07
9.635259e-09
1.1891463e-07
9.9353861e-09
1.1255699e-07
9.5365667e-09
1.1412225e-07
3.4616278e-07
4.9420718e-09
2.097635e-07
7.1995637e-09
7.3140419e-09
5.8535081e-09
4.9629386e-09
6.7263293e-09
5.1161766e-09
7.438059e-09
5.1373692e-09
6.3486387e-09
1.8729516e-08
5.2699892e-09
7.2539503e-09
5.1773552e-09
7.1647053e-09
7.4391944e-09
6.1814109e-09
5.4254219e-09
1.0229476e-08
1.8277156e-08
1.233607e-08
1.9688004e-08
1.7716665e-08
4.708914e-08
6.4874908e-09
8.432199e-09
6.1111523e-09
4.5740842e-08
4.6480965e-09
1.4322576e-09
2.1890799e-09
1.4346034e-09
1.487014e-09
1.77697e-09
2.2002921e-09
1.5511117e-09
2.17279e-09
2.496732e-09
3.1983543e-09
2.5086588e-09
3.0521104e-09
1.2707722e-09
1.301012e-09
1.8310498e-09
1.6970955e-09
5.8642778e-10
5.975319e-10
2.6848446e-09
2.9331828e-09
3.0806801e-09
2.9687658e-09
1.886267e-09
1.3682992e-09
1.4274047e-09
1.7616331e-09
1.4149322e-09
1.4958061e-09
1.1905393e-09
1.0891699e-09
8.2885571e-10
2.5813991e-09
1.8617592e-09
1.926175e-09
2.8735274e-09
3.056781e-09
2.8853587e-09
3.0591785e-09
2.7800897e-09
3.9556011e-09
3.0315394e-09
3.0935231e-09
3.1540085e-09
4.0116758e-09
3.9448811e-09
3.2274926e-09
3.3288776e-09
1.409606e-09
1.4567126e-09
3.4655041e-09
1.5505823e-09
1.7197825e-09
3.5871814e-09
1.0366682e-08
1.4258646e-09
1.6731927e-09
1.3200029e-08
3.8004047e-09
1.5898369e-09
1.8383685e-09
3.6416633e-09
1.0231429e-08
1.0449012e-08
1.2967198e-07
1.2683162e-07
5.1231351e-09
5.1869137e-09
6.2404433e-09
6.5864221e-09
9.6356675e-09
9.7260267e-09
5.666539e-08
5.2417137e-08
4.8834986e-09
5.2724213e-09
6.5327257e-09
6.3653245e-09
9.7684353e-09
9.4548349e-09
5.5284717e-08
5.2663011e-08
5.2995827e-09
4.8963218e-09
6.6171817e-09
6.5463473e-09
8.9032665e-09
9.1114446e-09
5.3270104e-08
4.871371e-08
4.8775348e-09
4.8523026e-09
6.5660756e-09
6.0675114e-09
9.3715669e-09
9.0893112e-09
5.2627419e-08
4.9767606e-08
4.8886183e-09
5.4227685e-09
2.2300838e-07
2.4380368e-07
8.1279183e-09
1.1844877e-09
1.5624813e-09
1.1130258e-08
9.8999827e-09
1.0341744e-08
1.2568274e-07
1.3304226e-07
2.6518868e-09
2.6759143e-09
2.7694534e-09
2.5062409e-09
2.6928194e-09
2.6548487e-09
2.3356616e-09
2.7154986e-09
2.5213903e-09
2.6924543e-09
2.5491738e-09
2.4537802e-09
2.7664674e-09
2.7323326e-09
2.8933108e-09
2.4966133e-09
6.8437951e-09
2.3302013e-09
2.5127192e-09
2.3999176e-09
2.2892819e-09
6.6468086e-09
6.303537e-09
5.2616146e-09
2.6439565e-09
2.6265869e-09
2.8337343e-09
2.4174742e-09
2.6687363e-09
2.7954931e-09
2.5050849e-09
2.6441761e-09
2.7092331e-09
2.7029947e-09
2.3735556e-09
2.709793e-09
6.6314534e-09
7.4049152e-09
5.695147e-09
5.5452685e-09
6.9982751e-09
7.5885976e-09
6.083221e-09
5.6105088e-09
1.9649369e-08
5.2972741e-09
7.3814874e-09
6.4657818e-09
5.1565288e-09
9.1644367e-09
1.9564996e-08
1.0136192e-08
2.2739938e-08
7.5781721e-09
2.0269495e-09
1.4878569e-09
1.5322125e-09
1.9714538e-09
6.0857495e-10
3.3381442e-09
3.2182338e-09
3.2962597e-09
3.4988906e-09
2.1584013e-09
1.5037661e-09
2.1156447e-09
1.421805e-09
2.4794791e-09
1.5802076e-09
5.8509087e-10
3.5397473e-09
2.5398628e-09
3.4198714e-09
2.5507559e-09
2.5090165e-09
2.8796895e-09
2.6244033e-09
2.3453852e-09
2.6987714e-09
2.8100504e-09
2.4547191e-09
2.5423283e-09
2.1497021e-09
2.2242395e-09
2.0823115e-09
1.9962908e-09
2.0540773e-09
2.1485288e-09
2.11178e-09
2.0663536e-09
1.1136479e-09
1.2364303e-09
1.1954046e-09
1.2667325e-09
8.5124061e-10
1.169955e-09
1.2213731e-09
1.2088936e-09
1.1199144e-09
7.6978353e-10
1.5072128e-09
1.6287032e-09
1.5939249e-09
1.4620993e-09
1.5741272e-09
1.5719556e-09
1.5085065e-09
1.5205349e-09
8.1373097e-10
7.2443612e-10
8.169778e-10
7.6332886e-10
2.1658042e-09
2.2506368e-09
2.0824209e-09
2.1438661e-09
2.1786196e-09
2.0682405e-09
2.033779e-09
2.1511988e-09
2.7903767e-09
2.8420778e-09
2.5711654e-09
2.6601188e-09
2.863094e-09
3.0308956e-09
2.6381056e-09
2.6309547e-09
1.5586701e-09
1.6793016e-09
1.709267e-09
1.4982289e-09
1.3714836e-09
1.3252193e-09
1.0981457e-09
1.1697718e-09
1.1837164e-09
1.2908261e-09
1.2024551e-09
1.272432e-09
1.5734125e-09
1.6670697e-09
1.5788589e-09
1.5026222e-09
1.6814107e-09
1.3418722e-09
1.6545578e-09
1.3121485e-09
1.5322978e-09
1.4213338e-09
1.5344975e-09
1.4087545e-09
1.1086013e-09
1.0901452e-09
1.1327411e-09
1.0841942e-09
7.7344246e-10
7.7663353e-10
8.1929233e-10
8.5862249e-10
8.0380923e-10
8.4606951e-10
8.6750282e-10
8.987985e-10
8.8756069e-10
9.3300544e-10
1.4342785e-09
1.2593113e-09
1.4198884e-09
1.4757966e-09
1.1286948e-09
1.4350917e-09
1.1000403e-09
1.5961642e-09
1.3457379e-09
1.5837898e-09
1.3358462e-09
1.5887623e-09
1.717326e-09
1.7565339e-09
1.7666827e-09
1.7166354e-09
1.7828895e-09
1.7912138e-09
1.7633658e-09
1.6058293e-09
1.6761727e-09
2.9410368e-09
3.1673965e-09
1.7272347e-09
1.7274192e-09
1.7520597e-09
1.6635479e-09
1.7696047e-09
1.8097729e-09
3.2501081e-09
3.0474983e-09
3.1858399e-09
3.2744626e-09
3.2739491e-09
2.9386817e-09
4.3814505e-09
3.7519355e-09
4.2493849e-09
1.6007087e-09
1.4904336e-09
1.8712023e-09
1.8784888e-09
5.7285158e-09
5.5267068e-09
5.5305446e-09
1.4428376e-09
1.4595282e-09
6.0321924e-09
6.0750417e-09
5.657231e-09
3.7627511e-09
1.5916474e-09
1.9692754e-09
3.8900984e-09
6.5224483e-09
5.8530905e-09
5.9606929e-09
1.4917039e-09
1.5617562e-09
5.5828286e-09
5.8863185e-09
5.7438913e-09
6.1178919e-09
5.001531e-09
6.6933078e-09
5.1668527e-09
5.485635e-09
5.1484785e-09
6.458585e-09
6.7254605e-09
5.6684296e-08
9.9787988e-09
1.0069142e-08
5.8769828e-08
9.9522021e-09
5.7446998e-08
1.0153899e-08
5.2924346e-08
2.9073256e-09
2.8673778e-09
3.9906325e-09
4.0629283e-09
4.2553225e-09
4.2852899e-09
4.1837545e-09
4.0322896e-09
4.1085726e-09
4.370105e-09
5.4612986e-09
5.2391131e-09
1.3953464e-08
1.4346885e-08
5.0245534e-09
1.2510741e-08
5.3536272e-09
1.3658816e-08
2.8221829e-09
2.852754e-09
4.2137593e-09
3.9281074e-09
4.204966e-09
4.015908e-09
4.2719067e-09
3.9584187e-09
4.037741e-09
3.8394142e-09
4.9620561e-09
5.1329969e-09
1.4147164e-08
1.335864e-08
4.8245811e-09
1.4062175e-08
1.3769373e-08
5.1526728e-09
2.8244325e-09
2.8631176e-09
4.1011285e-09
4.1250105e-09
3.7693352e-09
3.8933107e-09
4.2789977e-09
4.0120284e-09
3.9940642e-09
3.8768387e-09
5.0530202e-09
1.3694077e-08
4.9558586e-09
1.4175933e-08
4.6017857e-09
1.2486046e-08
4.9162752e-09
1.3577818e-08
2.7974572e-09
2.7588828e-09
4.2262791e-09
4.1773604e-09
3.8269112e-09
3.8970345e-09
4.2448315e-09
3.9378446e-09
3.9484536e-09
3.7787328e-09
4.7027925e-09
1.2955515e-08
4.9315048e-09
1.3872676e-08
4.9770145e-09
4.6875467e-09
1.3569282e-08
1.3276294e-08
1.5658489e-09
1.1290603e-09
1.0761468e-08
1.7311457e-09
1.3179641e-09
1.0792782e-08
1.4145661e-08
1.040001e-08
1.3930961e-07
1.0715691e-08
1.0812567e-08
1.3687372e-07
1.3542144e-07
3.772223e-09
1.5636905e-09
2.0872705e-09
3.9690553e-09
5.24165e-09
5.0347762e-09
6.1100389e-09
6.7756421e-09
5.5613511e-09
6.5841577e-09
5.2642842e-09
6.8907358e-09
1.0256577e-08
5.7857334e-08
1.0463011e-08
6.0443575e-08
1.0369888e-08
6.1146367e-08
1.0642662e-08
5.8059539e-08
2.9852039e-09
2.8825862e-09
8.430256e-10
8.0755193e-10
8.4311089e-10
3.1277275e-09
3.1449636e-09
7.7802741e-10
3.0377475e-09
2.924845e-09
8.2763965e-10
8.0342253e-10
3.0094079e-09
3.2346942e-09
8.5016215e-10
7.6087504e-10
2.7645687e-09
2.662374e-09
7.9176041e-10
7.8130988e-10
2.9238316e-09
2.9739625e-09
8.0934096e-10
7.7555657e-10
3.0337474e-09
2.8923758e-09
8.2428968e-10
8.1965796e-10
3.2553858e-09
3.2762224e-09
8.7519727e-10
8.0760363e-10
2.5681651e-09
2.5254037e-09
2.2332819e-09
2.6327025e-09
2.4560196e-09
2.3555957e-09
7.1901598e-10
7.0333574e-10
2.5989795e-09
2.6211739e-09
7.3436991e-10
7.0023851e-10
2.5132783e-09
2.6494329e-09
2.4356766e-09
2.5572651e-09
2.7988751e-09
2.6233897e-09
7.6104215e-10
7.6140596e-10
3.028913e-09
2.9975647e-09
8.2225104e-10
7.6944774e-10
2.9318281e-09
2.7970355e-09
8.0085217e-10
7.8180409e-10
3.0541711e-09
2.9922929e-09
8.2284142e-10
7.7540094e-10
2.8259255e-09
8.005326e-10
7.5448503e-10
2.9756064e-09
3.1068812e-09
2.9271808e-09
8.0308461e-10
7.4814745e-10
2.5485332e-09
2.7285813e-09
2.4963194e-09
2.6218608e-09
2.740624e-09
2.8872301e-09
2.5318387e-09
2.8048674e-09
2.6568444e-09
2.8373056e-09
2.7369755e-09
2.6215292e-09
2.9339044e-09
2.8039909e-09
2.9131739e-09
2.6090128e-09
6.9663186e-09
7.170922e-09
5.6997821e-09
6.371632e-09
2.7218501e-09
2.8222832e-09
2.819048e-09
2.6225454e-09
2.5130631e-09
2.4469326e-09
2.6584039e-09
2.5001661e-09
5.7259232e-09
6.9644682e-09
7.9622557e-09
6.0117736e-09
7.7635036e-09
6.7815314e-09
8.1327933e-09
6.3699708e-09
1.5921621e-09
1.6846582e-09
1.5826278e-09
1.4778965e-09
1.2169452e-09
1.2298665e-09
1.2498026e-09
1.2393589e-09
7.8078831e-10
1.2003745e-09
1.2539954e-09
1.3368849e-09
1.3293254e-09
9.2528571e-10
1.6949687e-09
1.6618546e-09
1.7288314e-09
1.6258645e-09
7.3808597e-10
9.2584773e-10
2.941148e-09
3.1600518e-09
2.7818619e-09
2.8512162e-09
3.0008742e-09
3.0416361e-09
2.7652852e-09
2.8097491e-09
2.6020048e-09
2.4534291e-09
2.410301e-09
2.2656028e-09
2.3334026e-09
2.950276e-09
2.4235617e-09
2.4223646e-09
2.3008937e-09
2.2200886e-09
3.6257635e-09
3.4623802e-09
2.2674799e-09
1.6593773e-09
1.6613895e-09
2.2612584e-09
6.0161588e-10
1.7037278e-09
1.8160265e-09
1.7901482e-09
1.7048461e-09
1.4691743e-09
1.4078144e-09
1.2530082e-09
1.352653e-09
9.2522318e-10
1.7938788e-09
1.8380919e-09
1.8601906e-09
1.729339e-09
1.4657009e-09
1.4286906e-09
1.3297355e-09
1.3664474e-09
8.3832974e-10
9.1986295e-10
7.9597052e-10
3.2831357e-09
3.8980286e-10
3.8324867e-10
3.0168767e-09
3.2517533e-09
2.8836317e-09
2.9195436e-09
1.9317263e-09
2.1640076e-09
2.0641526e-09
2.0116363e-09
2.2951808e-09
2.3055129e-09
2.3191589e-09
2.3183775e-09
2.9068409e-09
2.5799614e-09
3.0220407e-09
2.5338632e-09
1.5870787e-09
1.4545e-09
1.3525778e-09
1.2534076e-09
1.6455213e-09
1.4646501e-09
1.6113921e-09
1.4433111e-09
1.7458521e-09
1.2375451e-09
1.6243258e-09
1.2260434e-09
1.626915e-09
1.1797295e-09
1.3958745e-09
1.1048604e-09
1.692754e-09
1.6297615e-09
1.4849507e-09
1.4258975e-09
1.4427925e-09
1.6039249e-09
1.5967823e-09
1.4218454e-09
1.6897145e-09
1.6113643e-09
1.1981895e-09
1.2379248e-09
1.7471513e-09
1.5758305e-09
1.261101e-09
1.2260952e-09
1.792092e-09
1.689804e-09
1.4803569e-09
1.3889688e-09
1.813477e-09
1.7981791e-09
1.5442841e-09
1.5176642e-09
1.6737373e-09
1.283594e-09
1.6156066e-09
1.2375027e-09
1.6148069e-09
1.4651682e-09
1.2188931e-09
1.1159049e-09
1.6379786e-09
1.2558502e-09
1.6002475e-09
1.2236746e-09
1.8614942e-09
1.8072309e-09
1.5601139e-09
1.4913815e-09
1.7730564e-09
1.5103019e-09
1.7848983e-09
1.5015026e-09
1.6825e-09
1.5860551e-09
1.2942128e-09
1.2215754e-09
7.6275074e-10
7.9309145e-10
8.8414731e-10
8.2222207e-10
7.9662667e-10
1.0960311e-09
1.1546725e-09
1.104674e-09
1.1340807e-09
8.2752869e-10
8.547342e-10
8.9339464e-10
9.260885e-10
8.7754718e-10
1.1907999e-09
1.2277605e-09
1.1859343e-09
1.1864494e-09
1.0349182e-09
9.4670914e-10
8.6378928e-10
8.082054e-10
8.7246785e-10
8.5554053e-10
9.0754778e-10
1.2363807e-09
1.2237301e-09
1.1684821e-09
1.1447339e-09
1.1904426e-09
1.1509001e-09
1.1311314e-09
1.0715513e-09
7.9791439e-10
7.6115725e-10
7.6565532e-10
8.5408131e-10
8.5053692e-10
8.6755666e-10
8.9732707e-10
1.6394194e-09
1.5457146e-09
1.4950321e-09
1.3960278e-09
1.7200648e-09
1.6062979e-09
1.6356621e-09
1.5180061e-09
1.9203495e-09
1.5630126e-09
1.8060356e-09
1.4689704e-09
1.8343507e-09
1.4896972e-09
1.6910093e-09
1.3804375e-09
1.675713e-09
1.548381e-09
1.7022913e-09
1.544257e-09
1.5378645e-09
1.4453443e-09
1.6115838e-09
1.4945916e-09
1.7099461e-09
1.3989734e-09
1.7565455e-09
1.4229209e-09
1.8491239e-09
1.5056744e-09
1.8288865e-09
1.4780985e-09
8.2409071e-10
6.6142923e-10
6.7417719e-10
7.9434321e-10
6.2259736e-10
7.1346663e-10
7.4955884e-10
7.0074067e-10
8.624687e-10
8.1625831e-10
8.8136514e-10
8.2006169e-10
8.825743e-10
9.0338249e-10
8.4911013e-10
8.3583858e-10
1.7410143e-09
1.6335371e-09
1.3440182e-09
1.2650472e-09
1.8541951e-09
1.7800939e-09
1.5829344e-09
1.5157009e-09
1.6581162e-09
1.2693461e-09
1.5118783e-09
1.1697826e-09
1.6904177e-09
1.7937019e-09
1.4944004e-09
1.4070389e-09
1.7849991e-09
1.5045172e-09
1.7966316e-09
1.4961147e-09
1.6364281e-09
1.4073432e-09
1.7028119e-09
1.449773e-09
1.5334869e-09
1.193303e-09
1.5361657e-09
1.1967833e-09
1.6558655e-09
1.2854577e-09
1.6033054e-09
1.2480369e-09
1.6398642e-09
1.6179768e-09
1.4501107e-09
1.437542e-09
1.4827019e-09
1.5295693e-09
1.354273e-09
1.4136596e-09
1.6709699e-09
1.6071894e-09
1.192275e-09
1.2265041e-09
1.7617703e-09
1.6059419e-09
1.2688961e-09
1.2574203e-09
1.8682421e-09
1.3119434e-09
1.7301609e-09
1.3057394e-09
1.6874524e-09
1.5123279e-09
1.6229457e-09
1.4862204e-09
1.6193277e-09
1.4971436e-09
1.4028113e-09
1.3235819e-09
1.7493716e-09
1.2684237e-09
1.523329e-09
1.2147884e-09
1.8346677e-09
1.4812757e-09
1.8283946e-09
1.4568777e-09
1.7703052e-09
1.7280537e-09
1.6178758e-09
1.5432572e-09
1.6738182e-09
1.5700738e-09
1.706369e-09
1.5731912e-09
1.8789736e-09
1.7848724e-09
1.5131525e-09
1.4285099e-09
1.3010789e-09
1.2506084e-09
1.3074964e-09
1.2034365e-09
1.2425294e-09
1.2087901e-09
1.2464628e-09
1.2063789e-09
8.4074234e-10
8.5901375e-10
8.6210128e-10
9.0273181e-10
8.7753976e-10
8.7969784e-10
9.50555e-10
9.2285113e-10
8.3193166e-10
8.2286388e-10
8.6666987e-10
8.8029428e-10
1.1862787e-09
1.1930147e-09
1.2065712e-09
1.1678045e-09
7.9893851e-10
7.8788831e-10
8.4946757e-10
8.4714165e-10
1.1798111e-09
1.1648772e-09
1.1531262e-09
1.1108574e-09
1.6611391e-09
1.5210533e-09
1.5866434e-09
1.4404253e-09
1.6845569e-09
1.5764623e-09
1.6709357e-09
1.5459075e-09
1.8728925e-09
1.5167404e-09
1.8302569e-09
1.4732943e-09
1.8429237e-09
1.4885488e-09
1.7123977e-09
1.392337e-09
8.4129172e-10
1.0015325e-09
8.7491831e-10
9.6030016e-10
8.6157958e-10
6.9568099e-10
6.5523907e-10
8.2360299e-10
9.5518595e-10
8.229127e-10
9.9484645e-10
8.5250443e-10
8.5012529e-10
6.8017122e-10
8.1583301e-10
6.5185404e-10
1.1520908e-09
1.4002216e-09
1.1882741e-09
1.3591156e-09
1.1544283e-09
9.1323086e-10
8.660119e-10
1.1115729e-09
1.1405897e-09
1.4146775e-09
1.1764037e-09
1.3644958e-09
1.1614361e-09
9.1003318e-10
1.1155139e-09
8.6321662e-10
1.6208187e-09
2.0088333e-09
1.6778558e-09
1.9677853e-09
1.6600987e-09
1.2787023e-09
1.2170881e-09
1.5841116e-09
1.6489931e-09
2.0401174e-09
1.6882256e-09
2.0117322e-09
1.6986426e-09
1.2956334e-09
1.6759075e-09
1.2376759e-09
3.0163271e-09
2.9771518e-09
2.1635563e-09
2.110426e-09
2.3290955e-09
2.2521135e-09
3.2398805e-09
3.1987411e-09
1.9465453e-09
5.5614604e-10
6.2398748e-10
6.1512692e-10
5.451169e-10
2.0413885e-09
3.4338954e-09
3.44495e-09
2.4702767e-09
2.4395211e-09
6.1431643e-10
7.0186913e-10
6.5721837e-10
5.8060491e-10
2.1732177e-09
5.6498916e-10
5.9712007e-10
5.7256168e-10
5.433329e-10
6.1968345e-10
6.3769845e-10
5.9616804e-10
5.6505133e-10
4.3660287e-10
4.3055921e-10
4.8626347e-10
3.8373052e-10
4.1863993e-10
3.9045352e-10
4.0335249e-10
3.9383894e-10
3.5067049e-10
3.4164292e-10
3.8572076e-10
3.6540983e-10
4.0485362e-10
3.7141835e-10
3.8993697e-10
4.7935919e-10
5.583408e-10
4.9903857e-10
5.2790741e-10
4.8344488e-10
3.9668977e-10
3.7636729e-10
4.6209892e-10
5.208419e-10
4.5930738e-10
5.4371315e-10
4.7939099e-10
4.7406964e-10
3.8565067e-10
4.4804861e-10
3.6752341e-10
6.1639568e-10
7.3504672e-10
6.5273298e-10
6.9600336e-10
6.3906987e-10
5.195426e-10
4.8838595e-10
5.9881177e-10
6.0312989e-10
7.1613427e-10
6.2596379e-10
6.9009192e-10
6.249831e-10
5.0640679e-10
5.9698108e-10
4.8332712e-10
8.7298769e-10
8.0612221e-10
8.5215518e-10
8.4544251e-10
8.5813835e-10
8.5873418e-10
8.4688709e-10
8.1700236e-10
8.0447131e-10
8.4616957e-10
8.2427327e-10
8.0235617e-10
8.3317233e-10
8.7324499e-10
8.4274785e-10
8.7265173e-10
1.5487249e-09
7.1691302e-10
7.4411345e-10
7.2658254e-10
7.1495774e-10
1.7003821e-09
1.725774e-09
1.7825196e-09
7.5451005e-10
7.9368631e-10
8.0789284e-10
7.812067e-10
8.0964029e-10
7.9843919e-10
7.9494931e-10
7.9751077e-10
8.1333794e-10
8.3578897e-10
8.1795696e-10
8.1028282e-10
1.8356514e-09
1.8165907e-09
1.765389e-09
1.843973e-09
1.8591065e-09
1.9369361e-09
1.9152579e-09
1.8431679e-09
1.8775234e-09
1.8773619e-09
1.7387904e-09
3.2823867e-09
1.8829553e-09
3.2651219e-09
3.5724e-09
3.1040441e-09
3.5021129e-09
3.7180144e-09
1.4179145e-09
1.6184315e-09
1.9989909e-09
2.0420739e-09
1.1164619e-09
1.1935671e-09
1.1996366e-09
1.1767776e-09
2.2809071e-09
2.349532e-09
3.7449574e-09
2.884371e-09
2.9052832e-09
2.3176982e-09
2.4405309e-09
4.5051954e-09
2.9629233e-09
2.9339509e-09
6.0983391e-09
5.9281688e-09
5.623832e-09
1.5093693e-09
1.6941062e-09
6.2991689e-09
6.1553211e-09
6.079303e-09
2.4821567e-09
2.5217594e-09
4.1829952e-09
3.0990566e-09
3.0833734e-09
2.3746536e-09
2.4641299e-09
4.1712749e-09
3.0462166e-09
2.9102642e-09
2.8452087e-09
2.8684271e-09
2.8872903e-09
2.9124078e-09
5.3407034e-09
1.3324561e-08
5.6068737e-09
1.4441457e-08
4.2789575e-09
4.2134218e-09
4.0030708e-09
4.1530637e-09
4.1163594e-09
4.433795e-09
4.2448789e-09
4.0083984e-09
5.61528e-09
5.2741984e-09
1.435404e-08
1.4544603e-08
4.3949413e-09
4.0708904e-09
3.9561009e-09
4.1797131e-09
5.3986743e-09
1.403528e-08
5.1561345e-09
1.3270915e-08
4.2474416e-09
4.2529724e-09
3.9829629e-09
4.0988858e-09
5.4356565e-09
5.0718723e-09
1.3775153e-08
1.3399248e-08
3.3555652e-09
3.3919267e-09
3.0290426e-09
2.8517126e-09
2.9222175e-09
2.8850458e-09
3.1629169e-09
3.387235e-09
2.8707328e-09
2.9407599e-09
2.8623708e-09
2.960459e-09
3.7420022e-09
3.7779204e-09
2.1122829e-09
2.0577781e-09
2.1875811e-09
3.8585717e-09
3.7149763e-09
2.1211306e-09
2.1957347e-09
3.9812255e-09
3.9036623e-09
2.196252e-09
2.1866572e-09
3.7953891e-09
3.6543864e-09
2.0724266e-09
1.6678084e-09
1.7186901e-09
1.688566e-09
1.7584124e-09
1.692969e-09
1.6547299e-09
1.521056e-09
1.6788463e-09
1.6233224e-09
1.9452247e-09
2.0242867e-09
1.6398239e-09
1.9383157e-09
1.9722158e-09
1.6687932e-09
1.6234838e-09
1.5970751e-09
1.6137998e-09
1.5581164e-09
1.6391455e-09
1.5082964e-09
1.831784e-09
1.9291489e-09
1.5471781e-09
1.6362805e-09
1.6633523e-09
1.5825881e-09
1.6934075e-09
1.9880858e-09
1.9470762e-09
1.6134339e-09
1.5989824e-09
3.1179463e-09
3.4142914e-09
2.895172e-09
2.9399865e-09
2.9015114e-09
2.7381829e-09
3.369671e-09
3.3743515e-09
3.0284966e-09
2.8172184e-09
2.84447e-09
2.864047e-09
2.0708337e-09
3.7093705e-09
3.7680308e-09
2.1040812e-09
3.7851017e-09
3.64447e-09
2.1682001e-09
2.0959903e-09
2.1077609e-09
3.8297279e-09
3.751535e-09
2.1021783e-09
2.1110326e-09
3.632742e-09
1.9917869e-09
3.4891953e-09
1.5739128e-09
1.6070744e-09
1.6013262e-09
1.6282542e-09
1.544065e-09
1.636688e-09
1.7158103e-09
1.5957749e-09
1.946754e-09
1.6615316e-09
1.5906636e-09
1.9500427e-09
1.5999018e-09
1.8452239e-09
1.933868e-09
1.6175828e-09
1.554426e-09
1.4232164e-09
1.6299379e-09
1.675846e-09
1.8871717e-09
1.9863195e-09
1.5852712e-09
1.5950558e-09
1.5874091e-09
1.9095637e-09
1.8221948e-09
1.5147631e-09
1.5913047e-09
1.6304779e-09
1.7115763e-09
1.5956372e-09
3.1239249e-09
3.4006002e-09
2.9437188e-09
2.9578498e-09
2.8704169e-09
2.7306469e-09
3.5053435e-09
3.4961018e-09
2.8631248e-09
3.1027274e-09
2.8070648e-09
2.8247824e-09
2.7444607e-09
2.7833445e-09
3.6455286e-09
3.59301e-09
1.9818337e-09
2.0224332e-09
2.1256857e-09
3.7194414e-09
3.5866593e-09
2.0470819e-09
2.8518284e-09
2.7425606e-09
3.7904554e-09
3.8890081e-09
2.1092232e-09
2.1211501e-09
2.1485502e-09
3.6940473e-09
3.5520875e-09
2.0318599e-09
1.594292e-09
1.6088212e-09
1.5911043e-09
1.7301368e-09
1.5705424e-09
1.8680815e-09
1.9705253e-09
1.5701323e-09
1.694122e-09
1.5750681e-09
1.4554355e-09
1.7071926e-09
1.9222711e-09
1.9399678e-09
1.5997785e-09
1.5616471e-09
1.5209405e-09
1.5135572e-09
1.4875072e-09
1.5546351e-09
1.5022068e-09
1.7452707e-09
1.8401706e-09
1.5183834e-09
1.5546228e-09
1.5693446e-09
1.4834908e-09
1.625178e-09
1.8959268e-09
1.8603382e-09
1.5771612e-09
1.5426027e-09
3.0165477e-09
3.3008822e-09
2.8665311e-09
2.9237745e-09
3.2140697e-09
3.1810002e-09
2.9451573e-09
2.733015e-09
3.7415124e-09
3.7432984e-09
2.0424104e-09
2.0771101e-09
2.1755608e-09
3.8265609e-09
3.6656299e-09
2.0801877e-09
2.1067347e-09
3.8666052e-09
3.7826795e-09
2.1089623e-09
3.5339465e-09
3.6603478e-09
2.1013508e-09
1.9986508e-09
1.5549478e-09
1.5547724e-09
1.5907393e-09
1.6715273e-09
1.5361854e-09
1.8308298e-09
1.9330745e-09
1.5488913e-09
1.6642881e-09
1.5847909e-09
1.4872976e-09
1.7458873e-09
1.9488527e-09
1.9290773e-09
1.5824487e-09
1.5531603e-09
1.6760721e-09
1.5686125e-09
1.5504353e-09
1.793401e-09
1.723055e-09
1.5140605e-09
1.406721e-09
1.6929648e-09
1.5120492e-09
1.861833e-09
1.9399425e-09
1.499597e-09
1.8201551e-09
1.8719378e-09
1.5100132e-09
1.4567125e-09
2.0058958e-09
1.328123e-09
3.6862804e-09
2.1075496e-09
1.4161054e-09
3.6747162e-09
3.8569103e-09
5.0807567e-09
5.2593579e-09
6.8995372e-09
6.9489278e-09
1.137327e-08
1.0666668e-08
6.6746163e-08
6.1974405e-08
5.0867844e-09
5.5283104e-09
7.1899089e-09
6.2923951e-09
5.5781603e-09
5.3405656e-09
6.943611e-09
6.9673288e-09
1.0832533e-08
1.0929764e-08
6.2484419e-08
6.4778239e-08
1.1188867e-08
1.0453235e-08
6.3987597e-08
5.86344e-08
6.0550702e-09
6.255963e-09
5.8717168e-09
1.4835501e-09
1.7828459e-09
6.1601411e-09
6.3010635e-09
6.2542387e-09
2.8734871e-09
2.8987232e-09
2.9538507e-09
2.9355718e-09
4.2659225e-09
4.2567942e-09
4.1359632e-09
4.223059e-09
5.5115926e-09
5.6538108e-09
1.3233479e-08
1.4258542e-08
4.1960956e-09
4.472462e-09
4.3290147e-09
4.1624297e-09
5.8491904e-09
1.4531961e-08
5.5510081e-09
1.4553737e-08
4.4974742e-09
4.1619174e-09
4.2999034e-09
4.0332621e-09
5.5864054e-09
1.3931586e-08
5.7568687e-09
1.5041576e-08
4.3809509e-09
4.3812744e-09
4.1508662e-09
4.2250469e-09
5.7817255e-09
5.3771784e-09
1.47885e-08
1.462317e-08
1.2004905e-09
1.1709576e-09
1.2062882e-09
1.1944619e-09
1.170328e-09
1.1417856e-09
1.1010767e-09
1.1451433e-09
1.1372962e-09
1.10363e-09
1.1662783e-09
1.1784026e-09
1.2312432e-09
1.1733742e-09
1.2345551e-09
1.2174006e-09
7.6393715e-10
2.684791e-09
2.7574275e-09
7.3786492e-10
2.6222985e-09
2.8120818e-09
7.6030658e-10
6.9844078e-10
1.0501251e-09
1.0050547e-09
1.0844954e-09
1.1045439e-09
7.6803085e-10
2.6061764e-09
2.8351279e-09
7.2863197e-10
2.8219301e-09
2.8664591e-09
7.7378331e-10
7.2808867e-10
1.1936349e-09
1.1210643e-09
1.2166092e-09
1.2068903e-09
1.2302048e-09
1.1814146e-09
1.2380506e-09
1.2269276e-09
1.1605547e-09
1.1742213e-09
1.1513533e-09
1.1276454e-09
2.7272922e-09
2.6169593e-09
7.8559526e-10
7.5728559e-10
2.9574573e-09
2.7727868e-09
7.9830936e-10
7.5188616e-10
2.7876568e-09
2.9525009e-09
8.0392517e-10
7.7868291e-10
8.3710474e-10
3.0611098e-09
3.1064264e-09
7.7140355e-10
2.6346572e-09
2.8623468e-09
8.1384735e-10
7.8338907e-10
8.2282691e-10
2.8988524e-09
3.0408359e-09
7.8812488e-10
3.0462102e-09
2.8273308e-09
8.356621e-10
8.2465749e-10
3.120998e-09
3.1600876e-09
8.757347e-10
8.071137e-10
2.6452353e-09
2.7561591e-09
2.7810962e-09
2.6223256e-09
2.6382908e-09
2.6600737e-09
2.8625402e-09
2.4983377e-09
2.915882e-09
2.6460969e-09
8.1386988e-10
7.9856582e-10
2.8948652e-09
2.9060749e-09
8.5257884e-10
7.9372911e-10
2.579624e-09
2.3645263e-09
7.5939549e-10
7.3173426e-10
2.7117003e-09
2.5984776e-09
7.8368351e-10
7.5118167e-10
2.6296873e-09
2.8551328e-09
2.5833923e-09
2.6697084e-09
2.8629251e-09
3.036558e-09
3.1010463e-09
2.8394305e-09
2.9344513e-09
2.875473e-09
3.1977777e-09
2.9379387e-09
2.9548292e-09
2.9928143e-09
2.8052324e-09
3.1410209e-09
1.6406709e-09
1.5557989e-09
1.4901841e-09
1.3878374e-09
1.6355201e-09
1.5255931e-09
1.6099346e-09
1.4832624e-09
1.8240725e-09
1.4765316e-09
1.7633984e-09
1.4271149e-09
1.8008848e-09
1.4433753e-09
1.651568e-09
1.3229951e-09
7.8863867e-10
7.7813825e-10
9.2423633e-10
8.3149497e-10
8.1388825e-10
7.7782657e-10
7.7205965e-10
9.04958e-10
8.3527086e-10
8.3872146e-10
1.1460403e-09
1.1505644e-09
1.1391118e-09
1.1182729e-09
1.1446647e-09
1.1207479e-09
1.1430675e-09
1.0783045e-09
9.1072457e-10
9.3877372e-10
8.4465433e-10
8.48067e-10
9.2193575e-10
8.7946176e-10
8.8112731e-10
8.3992359e-10
8.6691198e-10
9.1913386e-10
9.0192372e-10
9.3512741e-10
1.2331982e-09
1.2524191e-09
1.2438445e-09
1.2276264e-09
1.2243651e-09
1.2315358e-09
1.2559104e-09
1.2201083e-09
9.6988543e-10
9.2194242e-10
1.9668813e-09
1.6121561e-09
1.9240132e-09
1.5692641e-09
1.7324683e-09
1.6124802e-09
1.7360355e-09
1.5906401e-09
1.7410136e-09
1.6460763e-09
1.7287356e-09
1.6178007e-09
1.9446882e-09
1.5956791e-09
1.8998e-09
1.5524895e-09
6.9143379e-10
7.3340145e-10
6.9617039e-10
7.3959984e-10
8.7644426e-10
7.016864e-10
7.3238214e-10
8.2700964e-10
1.8053348e-09
1.7366778e-09
1.5882953e-09
1.5368405e-09
1.775036e-09
1.7577534e-09
1.6041783e-09
1.6326607e-09
1.9353669e-09
1.7172677e-09
1.4057957e-09
1.3573114e-09
1.9353405e-09
1.8249429e-09
1.3726563e-09
1.4072869e-09
1.8366976e-09
1.7746749e-09
1.6212456e-09
1.6000701e-09
1.7496661e-09
1.6578148e-09
1.4929816e-09
1.637881e-09
2.9532584e-09
3.3233032e-09
3.0430963e-09
2.8440544e-09
1.9409674e-09
1.7440164e-09
1.393549e-09
1.3761855e-09
1.7993595e-09
1.8046007e-09
1.2808258e-09
1.3751766e-09
1.9810925e-09
1.6612454e-09
1.9514366e-09
1.6206331e-09
1.9106546e-09
1.6286617e-09
1.8958064e-09
1.6125358e-09
1.7713994e-09
1.7202455e-09
1.3858239e-09
1.3543637e-09
1.818609e-09
1.7235373e-09
1.4038024e-09
1.3315461e-09
2.4215422e-09
2.4321663e-09
2.2956379e-09
2.326417e-09
2.0046116e-09
1.6934969e-09
1.9581742e-09
1.6511476e-09
1.8570996e-09
1.7581638e-09
1.442867e-09
1.382521e-09
1.7951579e-09
1.5311591e-09
1.9015637e-09
1.6179307e-09
1.7056176e-09
1.6563174e-09
1.2950695e-09
1.3447609e-09
2.2782981e-09
2.3305828e-09
2.4961626e-09
2.4686946e-09
3.136209e-09
2.6968531e-09
3.1450326e-09
3.0317202e-09
1.7159134e-09
1.8793025e-09
1.8000623e-09
1.7636446e-09
1.4083218e-09
1.5009761e-09
1.3749833e-09
1.3252701e-09
1.3622433e-09
8.1704367e-10
1.3910955e-09
1.7527693e-09
1.7665227e-09
1.8087121e-09
1.7286587e-09
7.5796371e-10
1.8706547e-09
1.5195677e-09
1.9560167e-09
1.5811266e-09
1.8665462e-09
1.8293257e-09
1.7258711e-09
1.6641168e-09
1.6597596e-09
1.564941e-09
1.7665818e-09
1.6462043e-09
2.0599666e-09
1.6819142e-09
1.9624231e-09
1.6110018e-09
1.3441693e-09
1.3351183e-09
1.3655852e-09
1.2998378e-09
1.1880907e-09
1.1932147e-09
1.2823142e-09
1.2514413e-09
8.0776137e-10
8.5537653e-10
8.4209499e-10
1.0001653e-09
8.881491e-10
9.0840908e-10
9.2917113e-10
1.0089839e-09
1.0040081e-09
9.7415916e-10
1.1023749e-09
1.0682951e-09
1.9801108e-09
1.9401397e-09
1.6107988e-09
1.5715368e-09
1.8145691e-09
1.8072513e-09
1.6674046e-09
1.6277988e-09
1.7667828e-09
1.6572497e-09
1.7504417e-09
1.6299376e-09
2.0140039e-09
1.9449705e-09
1.6456021e-09
1.5872382e-09
1.3084386e-09
1.2956597e-09
1.3468148e-09
1.2797833e-09
1.2854377e-09
1.2769729e-09
1.2865515e-09
1.2488377e-09
8.8216097e-10
8.6866082e-10
1.043786e-09
9.3295591e-10
9.0787556e-10
8.8035219e-10
9.0643622e-10
1.0282049e-09
9.4758578e-10
9.8120541e-10
1.0088967e-09
1.0436729e-09
9.2422287e-10
7.4769948e-10
7.6270373e-10
9.2813596e-10
7.8509498e-10
8.0594553e-10
8.6786485e-10
9.5084043e-10
2.555456e-09
3.272187e-09
3.3200157e-09
3.3076798e-09
3.8208661e-10
4.5756207e-10
4.794753e-10
3.9064273e-10
3.8101386e-10
4.3762861e-10
4.4199101e-10
3.9361005e-10
3.8913179e-10
3.8847431e-10
3.7026358e-10
1.7490607e-09
1.7041429e-09
1.5550024e-09
1.521696e-09
1.7174468e-09
1.5588622e-09
1.7140898e-09
1.5854012e-09
1.8825176e-09
1.3413715e-09
1.7700049e-09
1.3613731e-09
1.8732809e-09
1.6982899e-09
1.3599619e-09
1.3322063e-09
1.2153365e-09
1.1074597e-09
1.4466214e-09
1.6058004e-09
1.777215e-09
1.7476441e-09
1.505588e-09
1.4755161e-09
1.6265759e-09
1.7442353e-09
1.4332327e-09
1.3327148e-09
1.6619184e-09
1.2766213e-09
1.2298353e-09
1.5904796e-09
1.7762968e-09
1.3851192e-09
1.7258949e-09
1.347702e-09
1.8813817e-09
1.8687415e-09
1.5956254e-09
1.5696673e-09
1.8781163e-09
1.6179542e-09
1.8656713e-09
1.6086235e-09
1.7674985e-09
1.6921604e-09
1.3782515e-09
1.3224422e-09
1.8193731e-09
1.2891475e-09
1.711502e-09
1.3037905e-09
1.5357741e-09
1.4034913e-09
1.3188062e-09
1.2146131e-09
1.6204762e-09
1.4573925e-09
1.5867163e-09
1.4673902e-09
1.6897157e-09
1.4248904e-09
1.2398972e-09
1.1415149e-09
4.6798748e-10
4.2849289e-10
4.2222214e-10
4.4958906e-10
4.3017204e-10
4.5456714e-10
4.1201048e-10
3.9567551e-10
3.7605847e-10
4.3648936e-10
3.8359287e-10
4.3303824e-10
4.0480897e-10
3.58574e-10
4.315317e-10
3.7392202e-10
4.4297843e-10
4.7964523e-10
4.4456296e-10
4.6699545e-10
4.4697093e-10
3.9570987e-10
3.9099172e-10
4.4641497e-10
4.1980931e-10
4.6986061e-10
4.2852572e-10
4.529425e-10
4.4396895e-10
3.8931835e-10
4.2763133e-10
3.7576625e-10
4.7697819e-10
4.840607e-10
4.7305341e-10
4.831215e-10
4.4545364e-10
5.4820544e-10
5.3971549e-10
4.4623016e-10
4.6567308e-10
4.5481179e-10
4.7792618e-10
4.5538865e-10
4.3808739e-10
5.3902529e-10
5.157129e-10
4.3710264e-10
4.7475591e-10
4.5898021e-10
4.5810291e-10
4.683979e-10
4.3352785e-10
5.3836184e-10
5.2601834e-10
4.3451786e-10
4.659387e-10
4.4657015e-10
4.4371721e-10
4.3889838e-10
4.3751209e-10
5.0351889e-10
4.3217064e-10