/*--------------------------------*- C++ -*----------------------------------*\
  =========                 |
  \\      /  F ield         | OpenFOAM: The Open Source CFD Toolbox
   \\    /   O peration     | Website:  https://openfoam.org
    \\  /    A nd           | Version:  7
     \\/     M anipulation  |
\*---------------------------------------------------------------------------*/
FoamFile
{
    version     2.0;
    format      ascii;
    class       volScalarField;
    location    "1000";
    object      omega;
}
// * * * * * * * * * * * * * * * * * * * * * * * * * * * * * * * * * * * * * //

dimensions      [0 0 -1 0 0 0 0];

internalField   nonuniform List<scalar> 
33730
(
2068.6271
326.82656
5059.002
3917.7268
682.68476
3921.4696
2074.1421
705.28375
278.27835
735.24469
747.01823
326.75285
1155.3618
1159.9536
10744.325
10603.708
4991.2639
7438.6833
1823.9946
7486.4097
1779.7937
7335.9443
7439.0991
1837.6884
3868.65
1792.8851
3968.2971
675.86824
717.43388
2139.9209
278.32817
629.37608
563.61256
242.61187
263.44511
261.71881
240.42878
646.94723
558.98315
2026.5875
2051.7529
2038.9392
2014.4583
734.35581
762.03433
1926.2324
568.43553
564.76235
1948.4507
1152.9856
1962.5891
575.06987
561.27342
1925.7013
10754.654
4525.9149
22423.514
4469.9388
22328.061
4502.1153
22195.877
4455.8548
22079.833
4750.4285
1152.5215
10723.082
12815.744
12586.122
4445.1321
4319.7874
12663.397
4473.7609
12846.967
4396.2749
12244.519
7209.1907
4337.0987
12576.086
4294.1081
12801.57
12587.888
4423.2164
4295.1833
1736.0861
7442.2526
1826.2463
7515.3708
7449.4123
3954.1625
1895.9242
1845.5332
691.91039
4120.8071
740.89776
555.97897
661.79259
574.37309
241.141
261.47448
262.2466
240.60867
627.09431
1827.3446
1869.2241
1834.8027
1850.9292
1330.7908
1295.5951
1473.8818
1524.372
447.39685
438.40879
1814.3122
1846.8553
1867.6144
1817.3344
1512.8852
1311.5489
1309.7876
1484.088
4386.6859
4192.1249
3529.4843
3164.6083
1085.2732
5226.1973
4844.674
4958.006
4907.7327
5034.6424
5045.0277
5005.6711
4858.5793
1984.6408
4880.2682
4880.4102
5005.0989
2058.2723
2092.953
2105.762
739.39421
430.82146
431.12932
2108.8095
590.24285
588.39478
2134.3401
1933.3756
570.72087
563.53155
1939.4504
2148.0034
596.46016
583.8643
2104.2727
4489.2493
4495.2311
22712.207
22387.964
3544.8716
3636.5313
6717.1119
6661.8619
14082.07
14175.081
41521.651
40946.657
3495.5379
3567.2723
6585.8347
6653.8806
14074.198
13974.88
41398.771
40982.512
3604.3534
3552.0465
6654.3734
6704.0002
13894.184
14043.852
41165.788
40567.436
3503.8621
3551.9218
6613.5165
6590.6486
14079.069
14016.211
41137.202
40655.26
1111.5599
1131.0177
10326.054
10540.819
1930.2745
571.65094
563.81992
1939.4842
4474.0012
4510.6211
22395.139
22646.224
20522.761
8126.0832
20596.538
7964.5469
20229.212
19948.257
7780.2214
7932.3364
20088.721
20367.564
8044.5823
7946.0661
20636.92
8109.7782
20820.301
8050.8607
12187.129
19255.89
19599.856
7675.8459
7576.4803
12449.919
4299.9611
4153.0985
20160.863
7842.602
20551.015
7855.2068
20668.92
20733.46
7933.7612
8115.9039
20422.914
20155.452
7753.128
7907.2872
12617.631
12751.512
4478.082
4353.1034
12794.968
12830.491
4536.8502
4463.1268
7353.3898
4418.081
12682.766
12399.522
4491.3878
1867.6304
7584.0634
1782.9974
7718.3292
1869.8163
1463.9583
1301.0836
1317.1165
1516.2896
435.92513
1896.0361
1936.9102
1894.7693
1909.474
631.2289
557.01327
1577.0117
1367.8788
1537.5881
1343.318
452.7814
1877.9871
1798.6898
1852.2503
1791.5539
5241.3336
5357.2742
4823.6203
4670.9913
5343.6758
5367.7349
4845.338
4768.0718
4946.3536
5031.2544
4930.8207
4792.4697
4957.5123
5036.8844
5052.2521
4892.3084
3146.2958
3497.7682
3122.5287
3464.8114
1080.1647
3129.5189
3507.2636
3408.527
3076.6695
1038.95
4101.7721
4195.4723
4408.3884
4264.8892
4156.4535
4145.6949
4339.6874
4318.3977
911.90689
883.60263
1056.6561
1048.6416
4907.7745
5013.5701
4740.6299
4889.9191
4932.4646
4900.5391
4793.3994
4777.436
5206.0755
5168.9317
4680.4774
4655.8342
4804.8169
5323.526
5184.6283
4643.7284
4447.4508
4214.8542
4225.9345
4391.8891
3493.2379
3534.8822
3131.8954
3117.9408
3107.0792
3490.4122
3103.6028
3436.3092
4139.8122
4188.9482
4407.3504
4304.106
10440.061
9970.4273
10349.38
9783.8914
9924.2607
9761.155
9875.0315
9608.9328
8813.3167
9020.1876
8797.3031
8913.3519
7500.5539
7426.7147
6238.0169
2721.9999
6187.114
7829.674
2689.2119
6508.8263
2555.4545
2527.8258
9918.2822
9109.8677
9773.6913
10400.171
9643.1349
10261.615
9436.2701
10507.085
9976.1848
10383.45
9773.5831
8611.0251
8769.9092
8956.6009
8812.4378
8858.5998
8811.5611
8971.1311
8936.6792
8438.1305
8400.2966
4751.225
4883.3449
8663.6252
8724.4796
8727.0585
8572.7205
8933.7198
8763.8924
4954.3847
5059.144
5139.5398
5113.9562
5040.7199
5039.5894
2030.485
2075.8301
2068.6141
431.6323
432.97862
408.88764
409.83483
2210.4962
4093.351
4066.6577
572.12471
567.65536
2243.2245
4175.3388
4118.3212
2112.5919
593.40794
588.28134
2119.1965
2252.8241
4195.6834
4111.6656
578.26137
562.59424
2207.336
4125.6935
4051.8178
6632.5801
3565.0616
6643.5985
3509.9655
3578.2847
3534.4987
6656.6227
6655.4977
41742.178
14126.986
14194.848
41710.997
14109.412
41504.474
14091.279
40962.709
7457.1917
7397.1879
20996.985
21155.01
12905.221
13091.498
21400.737
21047.384
12845.242
13192.054
37726.667
37734.023
61175.394
61038.893
36537.713
59583.788
37759.987
60196.341
7317.6921
7394.4121
13069.605
21038.906
12890.592
21136.312
13058.064
12671.089
21200.614
20685.851
36803.996
37552.819
60989.612
60965.466
36883.366
60951.833
60021.002
37390.465
7392.3079
7455.8177
12895.733
12774.633
20706.797
20920.751
13093.886
12799.2
21195.157
20942.742
37333.258
60700.753
37662.839
60845.522
35993.185
59476.106
37127.878
59962.045
7354.0358
7315.9731
13091.732
12936.799
21028.6
21133.183
13113.242
12731.23
21196.497
20736.618
36921.593
60506.027
37838.63
60644.052
37637.353
37150.87
60249.537
59391.149
551.28336
566.57203
1834.0173
558.74274
566.0625
1893.8269
1907.9906
4351.7782
22174.897
4444.7277
4455.7
22417.605
22331.442
2109.1733
592.22094
589.00329
2119.7429
3493.9594
3565.9426
6607.9587
6610.6203
3587.4816
6693.2807
3526.748
6660.9055
14080.21
41024.766
14219.388
41394.48
14223.674
41889.246
14244.325
41792.899
36128.302
36211.836
11596.526
11413.589
11550.826
36783.784
36519.287
11429.076
35663.739
35939.11
11439.552
11253.475
34665.414
35522.092
11268.856
11111.217
35226.432
35067.604
11403.327
11302.931
36244.07
36067.935
11515.541
11383.544
36614.546
36489.016
11657.554
11532.584
37068.215
36652.92
11697.395
11565.08
19893.082
19488.225
7515.6428
7675.1433
33793.563
33409.435
10910.029
10779.872
34864.495
34925.057
11024.673
10920.406
20123.891
20107.811
7697.7472
7900.114
35973.954
35569.375
11306.881
11217.104
36335.11
36519.909
11460.768
11361.206
36416.163
36326.864
11599.048
11460.23
36568.933
37017.397
11565.804
11404.488
36180.88
11444.983
11254.891
35982.091
35828.641
35027.357
11274.772
11107.722
20172.783
20339.055
7884.7984
8068.7147
20656.615
20751.999
7965.0399
8023.1166
20529.115
20625.33
8230.4306
8063.8444
8182.1773
20721.823
20729.515
8105.7433
12609.244
12347.15
4288.301
4421.0006
20415.261
20460.611
8089.3142
8009.0191
7921.827
19468.045
19855.958
7824.4268
4526.837
12704.894
12915.62
4453.3389
13150.507
4622.6708
12968.546
4486.9049
4068.9747
4100.0576
4292.8944
4202.0754
3081.9499
3084.9524
3431.7423
3389.3307
1045.1231
3197.3094
3135.279
3579.3168
3479.3185
1060.8483
4482.3353
4176.5445
4267.8041
4342.9795
892.78694
889.74823
5480.0503
5477.5964
4888.825
4957.207
5406.0841
5379.4946
1834.8399
4824.881
4876.3629
5181.132
5159.9706
5066.9627
5024.6363
1836.4675
5132.4567
4970.4431
5102.117
5003.1989
1857.9373
1897.5087
1520.7424
1309.0357
1314.5503
1488.903
434.88438
4533.5173
4345.3335
4330.3863
4504.1221
3633.382
3664.8931
3299.915
3285.2969
1106.4813
4555.9969
4349.6028
4333.1903
4527.5237
3616.2927
3637.4837
3245.1923
3255.6845
1072.5727
921.3981
900.22392
1862.2031
725.93608
704.07695
5274.3313
5385.1517
4873.6156
4722.7263
4639.0006
4886.2021
4812.0279
4776.9605
4983.015
4973.0137
5083.9847
4830.6667
4682.2774
5065.1885
5187.4899
4520.6646
10226.919
10037.899
9354.7021
9135.7073
10434.238
9565.3015
10257.213
9351.5826
9773.947
8762.3013
9609.0213
8568.8112
9569.0545
8563.0475
9391.1181
8367.3224
10478.745
10453.766
9589.0052
9507.2567
9460.6107
10317.717
10266.872
9356.1296
9660.7487
9616.0094
8674.9254
8572.5212
9802.6556
9772.104
8771.6046
8690.7463
10743.561
10562.243
10208.923
9972.0961
10929.87
10759.361
10407.24
10167.806
10903.282
10115.717
10724.484
9878.0561
10704.54
10516.11
9907.7926
9672.6938
10788.632
10012.132
10746.463
9889.2161
11034.229
10987.441
10480.847
10377.667
10838.371
10321.065
10803.32
10198.308
10978.05
10947.792
10161.023
10072.545
7335.4515
7404.5932
2715.3928
6174.2118
6096.9661
8610.2968
8763.3764
8816.1725
8874.2584
7548.8234
7648.4063
2655.6986
6422.1306
6276.7524
8873.9661
9027.8081
9079.9052
9148.9622
2560.0288
2494.6939
7782.0304
7494.1828
2664.5595
6259.8336
6479.62
9139.1577
9350.3937
8858.8589
8987.371
8886.0099
9072.5181
8738.7691
8839.9076
7532.3773
7383.1299
2611.1424
6172.9138
6238.4346
2460.4857
2477.5449
10013.4
9807.9217
9830.7934
9557.8956
10302.411
10138.489
9967.8227
9734.0081
10872.437
10403.434
10517.361
9997.9878
10559.309
10083.945
10331.915
9805.406
10003.073
9831.0221
10141.432
9885.6015
9690.3471
9530.756
9827.1691
9551.3055
10190.276
9747.28
10288.044
9727.5977
10536.274
10061.932
10677.628
10121.381
2205.8275
1994.9936
1925.1688
2124.7552
1901.0854
2111.1615
2092.1636
2126.2412
2480.9549
2667.5277
2455.6132
2630.9955
2496.6654
2467.3555
2642.1772
2634.8151
10916.419
10610.343
10117.655
9780.6517
10993.32
10652.734
10448.935
10071.517
10601
9811.8924
10389.634
9557.5645
10449.415
10671.915
10129.991
9862.4352
10619.285
10077.933
10774.179
10147.109
10266.694
9764.6621
10324.55
9714.6881
10185.255
9456.724
10208.034
9383.8283
10531.384
9752.8969
10689.229
9816.0158
10057.306
10190.847
9219.4482
9258.9975
9742.1851
9734.041
8961.2891
8879.0578
9151.4804
9124.4001
8258.8418
8165.9637
9422.4091
9517.9495
8468.6094
8477.559
9739.4775
8746.2745
9523.7072
8514.8831
10432.32
9554.9695
10163.831
9276.7552
10135.901
9932.0752
9278.6221
9052.2904
9490.456
8517.8916
9311.2706
8321.3953
10704.983
10259.308
10685.342
10142.403
10300.172
10244.914
10147.944
10021.834
10113.193
9983.1158
10116.914
9886.1909
10905.963
10840.789
10430.399
10307.718
9099.837
9327.5961
9094.2833
9234.5417
8930.2054
9174.7432
8961.0086
9110.1839
7587.1356
7556.1939
6265.7159
6280.8142
7717.5174
7700.1832
6443.0731
6383.2488
7579.6627
7474.8715
6212.2353
6273.9939
8937.1398
9177.2109
8861.2234
9010.0466
7468.9401
7401.4433
6186.4001
6172.5813
8812.99
9030.7832
8750.027
8877.346
9990.5526
9838.9813
9859.11
9630.3704
10143.928
10012.274
10016.971
9797.5405
10765.147
10325.208
10604.168
10087.205
10590.209
10136.36
10420.249
9903.7904
15494.753
16713.492
15975.774
16293.186
16383.157
15522.762
15036.102
15950.73
16690.167
15823.913
16824.929
16021.293
16447.085
15520.391
16322.824
15331.606
16404.539
17908.422
16883.918
17509.885
17319.388
16332.231
15848.021
16903.625
16825.732
18199.542
17070.871
18019.051
17515.83
16431.894
17357.086
16211.093
18045.542
20153.639
18486.909
19891.114
18922.361
17496.475
17019.774
18556.149
18615.016
20699.456
18888.489
20577.38
19339.051
17780.179
19153.689
17500.008
21493.358
21459.096
19780.776
19427.928
20306.871
20080.955
22152.806
22174.214
20483.342
5551.6656
5496.2214
5444.8814
5472.4764
21108.744
22934.772
22946.063
21104.437
20805.84
5772.5878
5717.6469
5577.1019
5626.753
21849.82
5029.6374
4988.8624
4924.4363
4947.3413
5198.7083
5132.1065
4993.1642
5046.0747
12425.599
11776.737
11884.618
12694.113
13751.22
13040.355
13399.397
13160.8
12348.798
12039.407
12855.088
12822.889
13704.764
12973.287
13578.263
13943.392
15104.264
14407.412
14672.422
14604.037
13674.423
13255.236
14178.299
14919.709
14134.219
15077.355
14348.036
14577.958
13605.205
14395.217
13415.139
14744.558
15881.871
15220.096
15442.76
15597.079
14821.85
14346.711
15163.848
14994.602
15895.262
15188.934
15769.991
15588.814
14768.714
15445.129
14562.726
11988.436
11792.133
12139.278
11959.383
12296.183
12125.387
12298.706
12148.968
12078.249
12008.558
12106.589
12260.214
12373.605
12270.218
12297.907
12457.399
8333.0311
11541.394
11434.317
11612.48
11729.975
8490.5156
8703.4094
8516.5791
12001.143
11940.445
12208.214
12089.805
12141.614
11960.951
11986.88
11795.288
12297.566
12185.386
12314.958
12128.341
8850.7896
8830.6361
8880.2759
8745.9728
9041.1747
8924.6379
9037.5831
8998.1507
8934.1981
8910.994
8692.6399
4903.7489
8679.1405
4987.6032
5057.9249
5046.6106
5159.063
5077.312
433.04493
432.10254
409.92843
411.03543
591.94294
589.38718
583.87482
599.02824
4050.6774
4100.2288
2206.0875
4814.6668
4799.4428
4101.2546
4183.7563
2239.8294
4923.2055
4866.2654
2211.1259
4071.38
4101.2444
575.56952
567.4527
2223.3352
4135.4915
4098.424
4096.9004
4210.0315
2248.3747
4954.332
4849.1576
4031.8464
4131.7604
2203.0955
4858.7961
4782.934
7350.3158
7379.3026
7391.7322
7392.0211
36801.871
60999.575
37961.007
61359.105
12872.402
13037.814
21004.392
21185.157
12827.373
13196.176
21384.618
20962.454
37632.244
37409.246
61829.169
61174.964
13166.575
12793.781
20883.162
21334.493
37849.348
60892.347
36768.613
60763.205
12897.344
13029.711
20938.852
21171.013
37624.245
37120.35
60810.383
59731.926
6287.2766
6372.7863
10472.734
10432.361
16597.734
16691.778
6205.055
6281.6375
10466.829
10365.721
16471.996
16950.814
21205.71
20954.146
27962.124
27880.956
28531.968
21456.698
21099.183
28255.559
28590.146
21652.161
21361.517
28564.125
28513.6
21368.751
20858.882
27872.631
57142.679
35894.868
36057.907
57776.916
57957.423
35973.498
35261.307
56909.864
60650.354
95106.133
95227.314
60756.742
94212.556
95764.739
60685.176
60922.684
34942.547
35250.892
55287.05
56014.648
58838.363
92493.971
92847.061
58792.845
57178.071
35878.364
35717.871
57288.12
94404.003
94675.732
59463.573
60099.68
6137.0135
6221.8139
10392.804
10245.601
16794.013
16237.972
6202.9775
6289.5377
10417.559
10378.187
16697.612
16600.917
27949.254
21240.977
20972.632
27951.043
21446.924
21079.81
28488.352
28167.526
28331.295
21466.973
21170.239
28289.28
28076.086
21044.844
27324.875
20500.156
55727.452
35033.699
35210.814
56070.99
35567.091
35789.74
56805.78
56759.029
94403.84
60908.444
60813.108
94159.811
60634.149
93537.789
93317.152
60323.449
35428.182
34531.424
55591.561
56892.027
94552.95
95003.608
60204.869
60705.104
60120.811
94502.705
92482.296
59697.382
35728.888
35554.238
57492.409
56579.135
6217.3601
6304.8366
10480.572
10321.293
16840.815
16292.518
6285.3086
6349.9061
10440.521
10507.112
16704.712
16637.074
16460.308
16471.534
20677.523
20904.098
27451.226
27527.673
28148.374
21231.57
20918.425
27904.009
16837.3
16424.466
21212.845
21454.674
28238.121
28314.356
28362.068
21263.656
20803.683
27793.803
35740.191
35380.42
56135.274
57521.691
60961.443
93885.225
94894.828
60767.156
58256.233
35792.975
35184.755
57390.146
94791.843
96022.46
60725.685
60917.921
34645.217
34355.149
54248.702
54852.786
59728.739
91460.981
91539.635
59274.623
56132.421
35304.339
35167.751
56324.592
93197.285
93360.946
59838.931
60150.9
6179.5832
6236.5252
10421.257
10343.812
6138.4685
6218.4181
10324.01
10236.797
20991.554
21230.281
27932.522
27978.391
28464.827
21433.529
21087.204
28140.388
28276.17
21462.023
21182.428
28260.405
20565.72
21088.387
28117.25
27437.312
35299.001
35040.258
55907.433
56505.328
60908.378
93824.177
93862.2
60382.997
57702.42
35816.368
35550.348
57691.209
94835.766
95357.025
60517.109
60894.155
57281.416
35492.985
35680.371
57918.914
58069.278
35500.501
34728.29
56722.209
60374.733
94711.35
94759.531
59968.117
93003.053
94927.217
59488.973
59459.092
573.87422
585.03162
1997.9223
583.80964
588.98963
2073.9314
2084.9027
3356.7516
3444.1089
6554.2822
6458.4768
14216.423
14092.54
41647.302
41366.495
3506.169
3488.375
6646.9597
6582.4379
3556.7293
3473.8841
6566.2158
6655.1238
14198.625
14327.51
41364.26
41740.06
14239.369
14135.815
41639.154
41214.435
2214.6035
4054.691
4105.625
574.59499
568.14667
2225.1378
4088.7174
4145.5922
7326.1546
7338.0137
7432.2845
7390.4033
12786.144
12996.571
20949.551
21094.867
36688.895
37588.886
59920.346
60344.335
12804.16
13187.697
21422.672
21041.447
37585.355
61497.52
37641.301
61026.195
13207.126
12813.399
21403.318
20964.406
37121.492
61557.9
38252.491
61842.568
12972.304
13167.313
21194.005
21303.133
37851.586
37560.572
61998.264
61329.987
38325.009
38274.944
39062.807
38601.552
37743.056
38002.406
36556.592
37639.6
37445.827
37114.047
38554.133
38292.391
38835.541
38594.997
39345.441
38797.454
11152.826
35139.012
34991.359
10986.993
33568.561
34634.73
10978.787
10779.396
35859.075
35290.133
37017.327
37001.631
11334.899
35459.343
35440.65
11140.681
35990.051
35405.343
11245.446
11080.699
38117.098
37620.516
38485.84
38743.212
38639.1
38472.216
38742.929
39223.361
38242.742
38134.208
37924.207
37075.48
35358.674
35351.678
11438.075
11234.346
36171.55
36349.059
11424.357
11309.151
36637.346
36732.715
11573.453
11433.389
11602.601
37058.448
36385.334
11449.989
36048.863
36164.73
11645.795
11493.95
11660.109
36892.081
36466.522
11504.378
36707.343
36666.917
11725.699
11578.503
36137.614
36997.676
11722.9
11546.294
20211.696
8055.4221
20094.012
7816.6564
19914.32
19598.988
7873.6458
7742.8436
36513.683
36126.097
11574.481
11483.385
35974.803
36836.097
11630.06
11448.057
34199.364
33817.203
11154.092
11033.323
35326.709
35368.857
11295.978
11193.677
20031.104
20207.889
7895.6699
8066.3269
20660.376
20755.39
8170.152
8126.3129
8352.1581
20841.072
21151.025
8222.1423
20910.153
20527.407
8092.6772
8260.7777
9798.6056
9646.5272
9615.733
9386.3819
9893.5904
9741.3409
9720.584
9480.465
10464.032
10010.607
10250.574
9723.6194
10330.498
9849.9046
10143.026
9603.4748
7430.4668
7291.4376
2637.8489
6172.5228
6079.3994
7361.1786
7300.5251
2630.8851
6094.3122
6134.0883
8749.6333
8959.1333
8632.2011
8751.7419
8682.5238
8610.2621
8869.5787
8699.4497
2473.7979
2497.806
7743.4767
7665.2647
2735.2925
6429.6855
6406.2149
7622.3165
7674.7424
2662.0579
6343.4265
6464.2013
9115.1979
9338.218
9058.1293
9167.6712
8958.5611
9159.2265
9036.5414
9151.6525
2553.2696
2495.2683
10835.694
10362.266
10653.963
10097.362
10092.227
9923.524
10136.489
9892.6143
10287.166
10120.155
10148.535
9879.4355
10652.344
10190.053
10693.081
10158.73
1950.9859
1911.5413
2112.9001
2129.813
2178.8322
1952.4565
1906.5733
2114.8618
10555.496
10571.47
9680.1904
9609.2986
10554.555
10387.709
9696.2086
9481.2788
9873.9457
9857.0975
8860.6895
8770.0872
9877.4772
9733.9331
8883.8754
8695.2456
10475.167
10476.72
9596.5539
9515.493
10147.062
10078.862
9286.9389
9242.774
5242.0905
5291.0002
4798.6224
4676.4717
9778.5702
9766.4002
8772.9844
8684.8615
9480.8898
9462.1698
8542.5988
8464.4128
11133.919
10587.917
11187.409
10552.214
11108.74
10581.264
10936.391
10327.631
11050.545
10873.143
10268.691
10019.304
11065.525
11107.134
10258.948
10207.888
4965.4943
4971.9539
4885.786
4800.6322
11137.974
10564.4
11120.9
10470.057
11019.299
11021.091
10198.704
10116.419
10646.668
10134.157
10822.681
10169.366
10679.082
10555.79
9818.7304
9805.3951
4953.0358
5027.6682
5117.3949
4960.9606
5349.7995
4869.7573
5410.2474
4833.5553
4442.6182
4306.7419
4211.9789
4474.8173
3224.938
3586.1303
3166.1037
3125.0048
3488.7821
1052.1239
3486.0308
4183.9503
4376.6569
4160.7154
4335.319
890.91877
10597.651
10136.483
10807.63
10203.742
10553.957
10515.91
10359.219
10233.677
10105.359
9936.0344
10343.428
10037.165
11085.489
10578.411
11041.166
10460.647
9408.3991
9603.0293
9432.2577
9515.8938
9015.7823
9216.4049
9260.3003
9349.3988
7699.2337
7834.1441
6442.8003
2850.7983
6582.421
8018.7256
8026.2265
2796.637
6798.7008
6703.6488
2682.5334
2623.2481
11000.167
10830.98
10541.488
10283.587
10434.144
10510.573
10273.731
10256.116
10433.911
10280.611
10286.803
10037.296
11021.864
11077.038
10548.215
10516.041
9249.8389
9464.5646
9366.1109
9482.4995
9280.2383
9494.9455
9168.9071
9288.5754
7921.8681
7768.0218
2771.042
6623.3385
6518.8495
7870.3408
7949.7165
2758.8451
6564.6903
6712.1246
2570.0387
2579.9445
2307.6677
2081.4916
1998.945
2223.85
1968.8686
1957.3712
2187.9306
2185.4755
4937.7822
4841.553
4973.5217
5400.569
699.98282
1725.7095
1439.4919
1374.3671
1642.5777
1619.8328
1346.1321
1360.459
1621.4203
1616.903
1571.4013
10279.274
10304.521
9426.7034
9373.3461
10344.279
9497.861
10178.776
9285.8119
9690.0264
8712.9649
9536.7029
8518.176
9639.3313
9636.3079
8656.4098
8585.9288
9535.9291
9290.6973
10140.796
10333.121
10594.544
10364.068
10072.907
9779.3015
10230.104
10423.654
9878.6638
9632.9541
10548.921
9780.2256
9481.8023
10310.694
10840.888
10057.298
10663.675
9816.118
10782.351
10830.142
10255.636
10225.668
10929.938
10391.433
10739.958
10134.515
10744.35
10786.306
9965.8561
9926.3807
9459.6618
8508.4142
9244.5344
8268.6833
9850.1677
9653.4156
9011.6273
8787.916
10101.024
9263.1213
9857.6019
8995.0048
9225.4303
9047.5356
8280.357
8080.1219
14384.105
13589.021
13268.403
14064.946
13907.08
14160.129
13361.156
13110.489
12521.376
13697.44
12810.345
13416.915
13268.959
12388.84
13479.371
12593.406
13512.964
14636.126
13835.589
14312.602
13944.556
13045.251
12755.017
13663.51
13538.006
14552.887
13732.496
14378.371
13858.014
12935.619
13707.222
12778.076
12163.742
13124.12
12411.953
12871.018
11840.388
12507.517
12293.411
11642.805
12909.158
12180.712
13027.985
12305.375
11788.328
12428.288
12330.369
11644.419
12894.397
12193.561
11948.721
12642.665
11661.938
12300.868
12090.259
11457.016
12692.122
12528.036
11997.216
11838.624
11489.629
11990.827
11317.48
12123.76
14701.55
13892.894
13682.771
14513.885
14674.839
14832.725
13979.221
13808.629
13998.637
13093.854
12897.899
13836.082
13966.344
14092.709
13145.303
13005.272
13668.459
12813.991
12658.266
13564.489
13414.525
14318.473
13567.903
14207.105
14535.909
13725.781
13542.911
14371.108
13853.939
12933.269
12782.656
13723.838
12898.202
12213.577
12074.121
12783.032
13027.322
12306.14
12181.932
12921.359
11532.987
12307.607
11658.239
12206.874
12420.965
11775.619
11616.16
12327.886
13169.617
12454.848
12287.114
13016.197
13133.793
13231.777
12493.365
12385.747
12548.263
11905.952
11755.043
12423.103
12528.501
12608.8
11952.274
11806.374
16581.902
15888.442
15449.249
16178.231
16057.337
16340.669
15652.047
15328.58
16324.754
15511.136
15064.639
15926.594
15813.734
16098.337
15275.646
14948.326
16797.419
16117.333
15677.178
16395.98
16728.011
16014.597
15807.864
16582.304
16559.481
15749.372
15307.769
16164.814
16482.833
15639.024
15407.616
16321.386
14941.185
16110.935
15361.5
15715.446
15598.513
14566.353
14175.953
15226.835
15005.627
16027.915
15258.079
15835.135
15530.864
14459.26
15309.097
14230.722
15875.087
15124.423
14694.165
15467.453
15351.887
15646.59
14892.407
14566.239
14312.517
13935.01
15363.529
14974.551
14832.904
15139.036
14090.241
13794.206
14787.962
15715.338
14993.364
15571.685
15207.85
14231.064
14046.558
15069.189
15824.135
14994.377
16013.754
15236.925
15500.247
14433.048
15290.963
14210.318
17004.232
16293.59
15964.173
16731.936
17117.179
16407.484
16206.636
16982.009
15562.09
16724.042
15885.125
16457.484
15795.151
16880.704
16019.076
16731.73
15554.453
16437.525
15780.495
16284.111
16192.307
15403.727
15180.088
16039.292
15822.841
16767.824
16050.797
16608.918
16511.552
15655.327
16332.023
15416.46
16234.923
15468.707
15181.599
15982.096
16408.154
15620.416
16228.567
15394.355
14632.063
14381.095
15699.822
15477.946
15693.96
15883.06
14765.845
14561.054
21133.832
21109.365
19388.89
19052.538
20343.811
20149.614
22258.488
22303.462
5443.2354
5398.9502
5482.7986
5479.229
21253.377
20185.23
19724.681
18060.702
17635.416
19474.47
20693.963
18847.026
18625.918
20617.29
16610.104
18468.507
17058.645
18126.461
19158.23
17709.438
19275.667
17485.556
21962.44
21884.364
20237.058
19826.565
20502.437
20242.855
22220.655
22203.56
5593.8346
5505.1745
5570.5914
5648.2952
21142.465
20897.629
20630.293
18929.971
18406.878
20280.603
20901.702
19185.572
18880.688
20733.185
17919.767
19387.441
18940.554
17387.442
19446.065
17887.722
19659.858
18179.563
4950.9185
4919.2872
5006.0427
5014.3318
4981.6382
4945.4045
5007.9317
5047.6857
22330.352
22286.965
20627.953
20253.263
20394.965
20067.645
22180.617
22126.725
5455.4442
5635.7847
5727.6408
5510.6262
21112.619
21244.021
21014.893
20719.844
18840.7
19325.706
19792.763
18340.202
17833.199
19388.864
18613.678
20791.218
19037.214
20523.706
19520.654
18019.667
19154.746
17571.104
20777.043
20495.857
19029.709
18559.698
19094.445
17984.42
17491.529
19487.173
20420.843
20118.331
18213.199
18674.958
19134.57
18723.01
17638.801
17158.706
22166.898
22123.247
20379.878
20016.003
20031.852
19676.796
21823.366
21744.926
5446.6802
5509.9587
5430.8491
5397.9033
20798.015
21103.947
4854.4619
4885.3518
4881.2737
4939.6198
4865.5632
5016.3453
5108.4141
4928.1544
18421.867
17342.07
16881.747
18017.981
17677.804
18090.07
17022.572
16574.153
16343.531
17816.685
16784.17
17436.345
17132.192
16069.369
17511.86
16478.076
17259.264
18789.907
17747.156
18369.154
18233.824
17222.214
16753.823
17828.65
16984.428
18485.325
17405.469
18109.763
17915.306
16875.031
17566.568
16486.2
16466.886
17666.526
16910.791
17275.534
16480.915
17378.785
17007.919
16072.549
17026.223
16213.268
17345.108
16572.102
16164.599
17075.029
16778.804
15836.77
17220.058
16452.464
16026.912
16848.601
16017.763
16912.488
16545.202
15612.591
16924.725
16584.584
16152.739
15782.421
15723.192
16309.867
15388.939
16621.327
16797.974
18338.914
17264.848
17908.275
17709.317
16678.397
16273.023
17345.551
18636.369
18448.203
17569.151
17330.897
18060.944
17927.861
17015.671
16831.305
17438.18
17071.246
16421.55
15983.732
16472.523
15445.771
16829.436
15861.733
16778.4
18102.188
16960.345
17986.113
17390.405
17306.475
16308.288
16153.47
16227.762
15889.11
15507.75
15125.543
15585.86
14716.855
15895.809
15073.931
16631.771
15762.477
16696.506
15895.231
16314.117
16262.043
15408.456
15281.42
15959.952
17079.904
16309.843
16770.792
15838.956
16732.796
16472.041
15546.151
17380.505
16545.469
17464.284
16684.125
16233.025
17155.012
17107.911
16129.512
4510.5474
4464.5115
4569.6689
4534.4644
4037.3067
3900.935
3947.543
4074.8974
3994.6829
3860.4855
3790.0977
3939.4175
4405.5342
4437.4834
4503.6343
4496.0767
3751.4813
3860.0673
4003.3759
3875.9929
3909.9805
4324.3198
4455.1562
4548.6088
4396.9794
4433.9192
4361.3235
4333.0389
4388.0417
4340.3797
4375.1715
4448.2677
4410.9383
4467.308
4450.224
4870.0897
4878.5714
4941.5573
4918.1955
5420.4485
5533.864
5511.3755
5427.2247
5003.663
4927.3795
4935.9064
5003.157
5543.3601
5515.6021
5624.1066
5640.4315
4883.7045
4887.6278
4912.5016
4893.5548
4863.2098
4878.171
4936.095
4895.0924
5531.6232
5429.3835
5399.1955
5461.3052
5386.7443
5387.327
5458.3872
5439.6486
4425.738
16124.354
15373.973
15005.933
15810.368
15910.682
15152.208
15630.968
14829.398
14219.256
15599.941
14564.548
15286.535
15138.43
14080.292
15427.626
14367.609
16893.67
16202.533
15819.267
16557.482
16613.199
15915.008
15596.221
16345.55
15425.223
16627.213
15803.042
16310.215
15220.874
16381.907
15547.635
16111.745
14567.165
15687.09
14948.624
15349.93
15186.086
14174.635
13806.872
14841.045
15161.439
14375.53
15401.504
14655.313
14897.13
13884.264
14647.56
13643.471
16146.036
15871.077
15153.202
15462.39
16427.673
15743.193
15350.599
16082.757
15822.491
16168.021
15361.422
14970.593
15066.566
15897.288
15636.329
14779.316
15273.457
16208.699
15524.529
16005.96
15910.336
15116.002
14879.729
15740.318
15851.78
16652.619
15947.729
16635.348
16380.252
15533.911
16357.066
15435.196
15414.05
15127.148
14783.473
14460.399
14883.773
14101.898
15143.007
14405.316
14949.029
15775.913
15080.936
15721.726
15472.967
15401.055
14666.653
14522.34
14689.758
13740.159
14017.362
14452.6
14205.876
13989.033
13330.224
13096.243
14894.166
14107.972
14984.326
14261.27
13523.275
14489.425
14373.763
13394.38
14499.124
15431.64
14712.813
15269.613
13942.916
14926.99
14780.687
13770.209
15853.046
15016.491
15886.602
15120.753
14284.541
15361.455
15304.083
14195.664
14041.431
13298.827
13152.958
13931.944
14337.102
14375.552
13571.603
13492.526
13417.91
12580.617
12440.833
13325.991
13660.253
13690.704
12791.208
12720.412
13448.524
12778.467
12580.883
13279.139
13651.204
12931.345
12823.584
13581.253
12911.865
12134.735
11944.973
12760.385
13073.441
12242.555
12148.763
13019.881
12237.197
11611.177
11442.013
12087.992
12353.512
11697.493
11616.4
12306.167
11722.238
11126.678
10970.772
11587.362
11828.785
11249.845
11119.056
11779.571
12671.43
12005.33
11884.504
12578.939
12861.795
12887.176
12186.056
12129.519
12115.25
11530.431
11415.411
12038.924
12283.39
12311.024
11699.249
11585.953
13087.374
12186.115
12383.884
12904.228
11836.294
12479.856
12326.918
11689.1
12087.352
12942.406
12236.014
12811.261
11775.49
12373.855
12254.186
11606.243
14640.555
13832.37
13554.663
14366.013
13027.751
13935.373
13708.597
12800.85
14472.752
14244.32
13653.32
13429.376
12860.161
13601.819
12686.568
13780.326
14267.438
13486.559
13171.613
13955.213
13797.877
13988.485
13219.601
13021.332
12445.54
13600.738
12729.678
13329.114
13193.753
12323.784
13348.691
12486.812
12817.747
12574.082
12128.506
11898.032
11638.5
12045.696
11438.643
12243.437
12594.828
11919.847
11783.31
12474.186
11289.222
12056.087
11467.84
11947.289
16197.101
17186.792
16458.891
16992.345
16906.395
16050.742
15808.178
16733.778
17370.397
16524.108
17549.382
16762.692
17261.459
16335.15
17094.874
16107.432
18923.077
17853.073
17402.807
18519.349
18557.876
18843.875
17806.678
17482.031
16912.187
18352.043
17326.379
17991.034
18103.177
17048.492
18339.182
17321.765
16946.498
18299.85
17283.921
18035.866
17747.086
16768.911
16469.784
17512.777
17346.65
18723.495
17630.246
18500.683
18139.227
17085.631
17936.854
16823.4
17788.491
17024.084
16644.973
17457.013
17817.485
17059.548
17627.007
16827.285
16594.756
16245.573
17507.667
17204.831
17418.934
17578.006
16667.986
16459.505
21149.122
20846.831
19444.087
18955.602
19518.379
18458.767
17954.01
19929.978
21000.46
20760.389
18931.582
19313.598