/*--------------------------------*- C++ -*----------------------------------*\
  =========                 |
  \\      /  F ield         | OpenFOAM: The Open Source CFD Toolbox
   \\    /   O peration     | Website:  https://openfoam.org
    \\  /    A nd           | Version:  7
     \\/     M anipulation  |
\*---------------------------------------------------------------------------*/
FoamFile
{
    version     2.0;
    format      ascii;
    class       surfaceScalarField;
    location    "1000";
    object      phi;
}
// * * * * * * * * * * * * * * * * * * * * * * * * * * * * * * * * * * * * * //

dimensions      [0 3 -1 0 0 0 0];

internalField   nonuniform List<scalar> 
100394
(
422142.79
-778119.67
-791864.65
-856466.66
-1405712.5
-873002.16
327773.66
240387.99
-3651866.9
-27781.359
-146471.38
-1103501.9
-774396.13
-868635.03
-773667.87
-688492.76
-1305982.4
-183636.83
-194045.15
129663.24
-162735.64
-225526.44
-182755.49
-202993.26
-168128.28
-714223.57
-155410.51
105475.98
-172224.04
-162065.52
-205434.58
-261206.96
-199646.28
418846.54
-727568.2
-806732.3
-716458.53
-830994.23
-1341885.6
-697599.29
-258553.65
-887041.51
273216.96
-241380.35
-196590.4
115114.66
225005.86
-99301.868
178662.47
-150332.14
-187985.7
68970.123
80671.691
-899309.62
-4632.9146
-25008.594
57477.544
74439.654
-889577.47
-27601.272
-9591.5966
-237203.26
296326.86
214598.45
-3467634.9
-31986.53
-143069.93
-199168.41
26699.672
-190496.16
-208797.87
-186992.12
-168493.91
25975.597
-266862.86
-182291.11
-197485.4
-188034.39
-170166.26
199291.95
-265605.83
-166267.88
-133308.52
-154062.79
-122263.18
-153357.14
-144816.31
-175634.49
-124604.83
-737711.19
-648188.41
-1344061.8
-822326.93
-727256.02
-28431.837
-39469.685
30986.053
-37251.287
-33525.133
-48890.099
-44428.162
35522.975
26109.381
-41167.036
-177021.64
-39962.954
27188.061
-36024.323
-46429.358
-34315.711
-46120.084
-175263.3
33742.397
-31614.395
23831.834
-35194.843
-40820.304
-44498.266
-33414.395
-44256.08
-34871.99
27860.859
-36832.914
-33168.951
-47729.387
-43543.711
30477.735
-166784.58
-43264.569
-203944.11
-164012.94
115834.69
-156924.16
-188890.65
-176534.62
-214303.12
-170767.91
-139676.77
101836.11
-154953.53
-164314.92
-260013.73
-199504.72
-194048.77
-179871.05
-662827.2
-672081.26
-263862.41
386874.21
-677642.42
-671570.4
-740250.91
-753259.64
-135843.44
174994.67
-225195.89
-190373.59
102908.95
212992.05
-89680.898
262618.76
-166795.47
-691902.42
62783.875
48382.145
-30745.156
-48304.752
690228.31
146951.83
-187714.2
-55735.706
-43116.432
49455.205
33803.549
-875253.09
530353.92
177631.29
-226262.37
188773.43
-241865.39
-544295.66
-207264.03
-33889.293
-49529.216
42741.462
60458.891
-870242.07
37048.383
-58738.124
-41498.575
51138.486
-30214.525
15482.658
16945.126
-213244.2
-1415.6514
-4732.0722
-37848.656
13875.421
16712.899
-217455.18
-5186.9492
-2342.295
30886.371
12697.735
15741.172
-206202.5
-5387.3068
-39682.489
-2438.8388
14223.471
15971.282
-210285.67
-1962.4671
-5268.4084
-189252.14
74025.55
61761.617
-846236.55
-5624.7198
-26690.787
53113.095
71653.31
-853159.39
-9392.6166
-27928.731
-238689.08
-19550.108
26566.579
-37861.998
18739.839
-178390.48
28194.941
-44835.224
-51593.312
-160114.39
19615.709
-62639.144
-158180.83
20245.916
-178350.78
23576.436
-208721.48
-185237.22
-200982.89
-178439.71
-162682.34
-18172.602
31727.691
16922.866
-39509.543
-173259.52
33383.215
-47136.607
-46568.315
-155336.28
19106.33
-62211.997
-156380.73
19147.137
-176341.38
-205411.84
-169906.48
-147500.12
-135521.65
-116042.96
3894.0846
34072.051
-42559.735
-38850.569
-39865.381
-33896.976
-32138.487
37949.491
-47226.2
-27241.124
-24914.971
-21062.124
-23087.677
3630.6188
41953.751
-38097.826
-41507.879
-31624.331
-35197.951
47243.288
-28786.975
-24937.013
-24913.46
-21428.053
-29167.345
3161.5446
-41687.383
-38266.298
-31792.873
-35358.758
-3645.8163
34311.599
-28247.082
-25953.986
-22394.295
-24455.373
-39617.952
-40713.004
-32835.395
-34587.708
-29253.196
-25275.505
-25877.984
-22199.431
-734753.36
-664913.2
-648616.97
-584791.08
17624.306
-277194.19
-174935.94
-187746.78
-176686.54
-162236.96
-270412.88
-158699.38
-146302.14
-124200.77
-113592.14
4455.8571
-7603.6386
-6298.5805
6868.1965
-7478.416
-9954.8168
-7223.4144
-10016.472
-8087.6591
7460.027
-7687.8814
-6997.7878
-9530.2368
-10386.993
4082.0318
-6457.3152
-38635.795
-38004.208
-7141.8539
5498.5212
-6488.0456
6315.7467
-7380.7575
-7144.2865
-9773.0293
-9910.6208
4889.8033
-6852.4613
-37733.133
-7596.0156
7153.3765
-7684.9528
-10375.813
-7002.8243
-9609.5409
-38570.713
-6535.7694
5882.9465
5758.8714
-6689.8531
-7304.1254
-7031.7912
-9590.411
-9684.7119
-35106.943
-30438.358
27233.277
-32858.43
-36688.015
-47269.636
-42616.334
5378.3199
-36447.95
-7266.6701
-6989.004
6863.5354
6636.7833
-7589.4303
-10181.16
-6875.6895
-9396.4865
7210.0716
-37335.665
4898.0033
-6897.3216
6190.8712
-7382.9993
-7113.7683
-9858.2554
-9805.9105
-7425.4383
6903.4163
-7614.8004
-6919.5857
-9416.167
-10286.418
4541.8182
-37734.985
-37308.51
-28748.248
-164488.37
-31288.498
-42546.481
23967.636
-35085.655
-33300.709
-44672.729
-44046.533
-44886.883
-167691.36
-35032.323
-32908.519
26821.25
-35690.183
-32043.506
-46426.869
-42219.831
-29081.517
22772.103
-41684.424
-42708.176
-32045.899
-33685.743
-42913.525
-154677.4
-195400.96
107425.07
-146964.38
-203101.67
-164775.59
-180161.12
32579.321
-162500.52
-45551.927
-167611.54
-176038.76
-631825.93
-131772.27
86753.281
-143190.44
-176650.08
-144593.26
653030.97
50281.969
-37955.06
-54801.057
35277.025
-824798.23
-652485.82
161577.06
59398.31
41396.202
-32741.093
-48284.137
-207025.33
-187012.38
30477.168
-55117.532
46229.516
-42538.462
-814313.38
500343.11
178366.11
195372.12
-499899.31
42798.869
-28723.817
-48401.381
58052.555
-27557.589
-168148.42
-5950.1522
-9206.3414
12138.209
14528.577
-171242.03
-35450.444
-6852.2866
-9244.9322
11594.319
14564.755
-24227.358
-207679.48
-8184.1772
-11198.457
9765.0282
12183.248
-32125.272
-212388.49
9182.8682
-9178.383
-11172.359
11907.498
21617.579
159206.3
-28701.794
-12420.544
6880.2795
-10645.562
9347.7628
-201019.74
162115.13
27987.116
-12562.074
7622.3795
9851.792
-9988.4341
-206524.79
-24568.143
209215.68
31551.684
-9447.1671
-12443.41
7488.9299
9772.7694
205952.86
-31680.075
-10227.516
-12248.199
7014.7431
9629.8905
144567.73
-184778.2
29961.722
45466.319
-60052.34
-45337.345
29318.491
42284.521
-24633.73
166371.27
9280.9912
-11262.159
11785.482
-8340.7363
164440.51
-32645.526
-8964.2837
-11101.337
8582.338
11478.205
28338.745
-36031.664
-6674.709
-9297.8472
10730.311
13914.631
11244.967
-9367.663
-6187.9679
13743.454
-162615.01
23517.053
7481.3254
-10079.31
-12209.088
10116.603
21417.709
-206539.01
9274.6045
6776.5607
-13050.364
-11245.521
160138.43
-202760.81
-12725.107
7736.1133
-10099.36
9787.8175
-9258.2324
-12126.667
7870.1996
9961.124
-35713.669
45475.051
-4933.1824
-2530.7267
1600.6907
-2157.3476
2113.4922
-45647.282
-4702.3858
-2531.0673
1570.6007
-2198.9823
2071.58
-35896.834
-4635.3104
-2602.4083
1584.8912
-2251.6146
2070.9691
-4121.1078
1449.727
1890.1859
-2826.8862
-45214.329
-2583.4422
-29261.335
6895.9275
9126.0395
-13552.464
-12021.809
-46369.595
-5680.0717
-2052.9929
2268.8381
-1645.8723
-35947.959
-5537.6678
-2318.3079
1869.134
-1902.2057
2421.6352
-4975.1299
-2385.9908
1699.0796
-2019.0187
2238.0846
-5033.3993
3641.3363
3440.9274
-46689.411
-285.30813
-856.48723
-6279.1863
3160.744
3669.3377
-47562.698
-930.69584
-458.76784
5048.7943
-6450.8059
3038.5606
3612.5363
-46737.385
-961.35015
-470.43158
3288.1424
3548.991
-47580.994
-974.83102
-424.70838
5426.065
2892.41
3481.2819
-45166.328
-1007.1371
-486.07158
-6975.4785
-31756.441
14307.19
16020.55
-202000.37
-1411.397
-4955.1016
6760.6264
3121.0726
3429.656
-46200.185
-1027.1688
-432.43962
-5271.2208
3500.3837
3265.9021
-45899.956
-955.95082
-360.94057
3546.0778
2977.3011
-46520.397
-1015.6179
-501.35102
-40448.827
12541.038
15667.873
-205956.94
-2415.2773
-5526.4569
-32313.249
13397.455
15477.478
-206469.6
-5561.231
-1983.8339
15271.967
11858.401
-200968.37
-2328.6625
-5561.5884
-41014.242
57414.039
71264.612
-799369.84
-4524.1492
-26440.008
-227508.87
-32612.478
-13461.623
-841116.8
-32507.377
-12703.03
-225134.11
-816999.25
-18576.738
32090.548
-32837.746
13422.442
11295.904
-178204.21
-4143.8812
-1436.7827
33156.83
-43094.474
-201365.96
19386.494
-198954
11841.582
13348.171
-178083.78
-3899.6075
-1210.8637
-17401.538
29875.753
15751.723
-41994.437
-171468.67
31680.437
-49549.893
-47042.976
-153471.98
18031.901
-59436.193
-151923.29
17781.583
-172065.79
-17640.558
34148.077
13105.552
10705.106
-33945.643
-173881.66
-4353.5287
-1396.8584
35024.631
-44531.986
-195976.85
19093.146
-196246.75
13227.118
11426.752
-175374.91
-4096.2105
-1120.6466
31609.944
3127.5482
-45096.901
-33886.801
-39648.131
-31913.64
-38346.743
3132.857
-40855.17
-37196.71
-34780.51
-30968.78
35712.627
-49028.107
-22705.537
-27044.118
-24640.074
-20721.233
-24175.443
-24200.858
-28236.396
-20577.69
-5356.9494
4932.6758
7054.6316
-32375.375
4821.529
-32116.904
-7221.8467
5230.1825
4204.6728
-6341.6755
-32168.626
4376.2371
6236.2563
-32588.12
6405.5936
-161.17239
-7883.0004
-4969.0513
-4594.0042
-5849.7758
-5985.0377
-571.81804
7979.5122
-5150.019
-4480.9105
-5703.3217
-6206.5822
-6961.9231
8650.4513
-4338.4391
-3645.697
-4673.7913
-4027.7607
-8317.3181
-4100.8785
-4358.1112
-3683.3477
-3992.2434
-4431.1395
5176.4769
6753.7683
-32369.811
5010.0022
-32467.635
-4418.9558
4661.713
6035.8048
-32726.412
4359.936
-32730.582
5639.0121
-306.59762
-6078.2927
-5056.3453
-5948.5252
-4696.7769
-539.32328
7677.6514
-6277.0241
-5756.8942
-5217.896
-4522.7996
6255.1901
-4224.3201
-3814.4864
-4125.0471
-4470.0707
8216.9927
-3730.5771
-4764.069
-4108.5156
-4422.5999
3899.2839
5196.759
-6300.2057
-32641.632
5298.1585
-32567.087
-3974.6454
4811.5388
-32961.553
-5635.0254
4629.442
-33131.052
6072.9539
-204.22093
-4525.6137
-6097.3129
-5998.7512
-5076.4789
-4740.0018
-597.23074
-4722.3085
7462.4309
-6318.464
-5829.0003
-5264.0506
-4612.3992
-6681.7652
8185.4009
-4497.0715
-4827.3101
-3817.5571
-4199.843
-4265.8873
-4500.0198
-3881.9151
-4160.7981
-4847.2928
5172.7999
-32821.22
5083.6812
-32594.304
-4830.6885
-33189.238
-32824.522
5294.1719
-454.88269
-6117.2674
-5987.3537
-5122.5742
-4773.4098
-668.26437
-6273.9638
-5764.8026
-5237.0733
-4567.8814
5934.0418
-4343.9665
-4617.3376
-3959.89
-4292.1118
-4517.6349
-3827.5288
-4878.0584
-4236.5208
208984.42
12575.022
-160357.84
-169602.37
-151273.55
16489.942
-165129.49
-186241.12
-174566.05
-152964.77
199426.95
-137207.21
-104104.49
-160238.08
-139093.93
-125698.65
-106831.25
-15822.873
34654.646
14211.341
-42513.41
-165465.57
36527.226
-42240.917
-50146.065
-147709.86
16913.354
-58323.404
-148299.14
16310.448
-168973.83
36335.245
2945.7208
-44319.03
-37124.971
-38375.57
-32955.753
-30993.621
2573.869
-40111.707
-34280.945
-36481.88
-30452.669
38983.47
-47240.063
-25858.804
-21389.781
-23573.828
-19403.892
-23591.145
-23261.433
-27541.79
-19847.287
-1655.0845
988.98467
-1140.9864
1822.5177
-1455.1441
-1494.775
-2252.8147
-2291.1138
833.92302
-1143.792
-8139.2884
-1720.3105
1098.6615
1973.5727
-2387.6659
-1547.935
-1421.9916
-2228.7603
1094.2209
-8327.743
774.23301
-1728.6058
1927.0358
-1468.1648
-1502.3172
-2286.1487
-2305.2508
-1802.0012
2019.9995
-1415.3113
-1539.386
-2373.7183
-2189.7495
-699.88471
-8141.0202
-8280.3356
1051.3729
-1596.2752
-1144.3512
1746.8187
-1441.9482
-1485.7525
-2234.2697
-2276.3526
-1678.7107
1233.124
1910.0866
-1540.95
-1418.8265
-2373.7899
-2223.8476
921.95829
-1215.2441
-8037.4583
1215.3749
-8270.212
-1643.3495
879.33172
1847.3444
-1455.9569
-1500.1831
-2277.2486
-2301.7671
749.05741
-8264.7029
-1722.1604
1961.1456
-1538.1063
-1404.5164
-2371.3518
-2189.4897
-8177.4449
-4859.359
-7320.9212
6612.9936
-7601.0706
-6874.0972
-9304.312
-10201.512
1102.5239
-1512.0491
1660.4498
-1200.8394
-1423.6174
-1472.3952
-2210.7183
-2247.4798
-1588.969
1291.439
1830.0671
-1525.0524
-1395.4735
-2347.6168
-2193.6624
990.57368
-7899.3743
-1301.2498
1320.1803
-8122.0055
-6766.3308
-6713.3674
5907.7306
-7358.9414
-7096.4819
-9777.6115
-9742.3673
4598.3478
-7139.9375
-37187.184
-36585.027
-1539.8743
933.23345
1731.4621
-1429.2101
-1478.7919
-2248.3734
-2266.4373
834.07883
-8113.8606
-1625.9131
1216.5309
1861.8911
-1382.0818
-1516.9305
-2341.2087
-2154.7438
1270.8558
-8029.5204
1045.597
-1530.4498
1683.5894
-1424.1188
-1466.9312
-2220.2215
-2253.9333
-1621.0653
1185.8614
1866.3723
-1407.5715
-1529.4453
-2362.2732
-2200.0494
-922.3623
1205.0897
-8215.9702
-8010.5657
831.08793
-1607.2856
1803.2311
-1485.82
-2261.8315
-2276.1104
-1432.2099
-1688.6257
1905.3918
-1523.135
-1400.7476
-2349.2492
-2176.4832
-760.28668
-8059.3664
-8182.9986
5864.3904
-6310.4013
-6998.4019
5534.4361
-7203.6281
-6944.704
-9566.1825
-9461.1611
-6851.3501
6438.7776
-7532.913
-6805.3524
-9299.2537
-10099.591
5375.4376
-7593.562
-36223.966
-36994.51
5343.9272
-6382.5321
-7353.8444
5657.7095
-7151.6153
-6850.3218
-9479.2384
-9474.2644
-6946.7519
6421.0741
-9979.6794
-7426.5631
-6679.6144
-9086.4429
5053.1912
-7918.6926
-36546.442
-36229.475
-30798.183
-33184.671
26329.376
-34648.795
-31000.021
-40449.34
-44897.095
6693.987
-5869.838
-36179.05
-6137.542
6370.2142
-7340.0969
-6651.8642
-9869.9031
-9076.5606
-6066.015
5373.2087
-6967.1565
-9195.6321
-6981.1848
-6728.3512
-9258.1432
-35056.998
-7933.9742
28839.001
29901.423
-45239.926
-159188.11
-42224.615
22633.934
-41989.38
-32775.427
-31210.77
-41168.466
-157731.67
-30913.869
24692.949
-33278.491
-43096.394
-29863.41
-39338.612
-154414.77
-156393.68
-24338.149
202390.94
-9022.7146
-11921.846
7818.5958
10068.754
-21530.508
-12075.789
-9454.1716
7754.9162
9855.1347
-197600.11
158202.46
-27390.211
-12376.263
-10599.885
6840.2953
9173.3146
-200181.25
-30044.165
205282.66
6887.462
-10166.349
-12240.494
9422.2478
-143462.16
44163.328
30789.458
-39944.875
-57254.476
-29083.653
-162640
36350.716
-6265.5189
-9584.8543
13460.636
10691.397
-159643.92
-6570.0234
-9361.2519
-36797.16
13576.884
10139.656
-24592.227
-202335.95
30917.248
-8367.2572
-11228.888
8827.1277
11398.873
-198801.47
-33094.489
-8819.533
11082.43
-10969.532
8082.3155
-609694.06
55351.314
-28645.486
-47009.524
40135.078
33081.634
-52733.253
-36441.849
46864.629
-766549.08
-154419.36
24393.246
-32261.788
6652.941
-9965.4074
-12109.59
9385.6517
21732.335
-28367.935
9020.5824
6516.9949
-12341.836
-10547.391
-195549.64
-156339.85
7129.1604
-9565.6833
-12332.902
9351.9252
9195.9983
7099.4343
-12584.975
-10079.767
-198166.87
-182860.04
29874.467
43871.019
-55369.114
-41071.714
-163318.99
28236.12
-6659.3984
-9347.0858
10572.917
13709.084
-24718.936
162229.48
12221.588
-10705.279
-7640.5632
9635.3173
8434.155
-8891.9717
-11062.832
11281.246
11246.192
-5605.2503
-9021.5255
13866.7
-4369.0644
36832.933
-45908.566
-2018.4755
-1456.5231
2433.3609
2856.1148
37236.123
-5511.0738
-46698.832
-2041.702
2283.1024
-1650.6314
2807.6099
4729.8101
-5975.9699
-1655.3881
2691.295
-1212.1679
3234.0569
-1619.096
2811.9745
-1041.6196
3208.1703
-4240.6643
37248.075
-46784.049
-2095.9845
-1586.603
2342.5896
2753.2776
36882.287
-46096.168
-5678.6482
2258.1402
-2027.0123
-1637.3826
2813.1894
4714.8578
-5944.1786
-1655.8497
-1220.9588
2635.3707
3209.9803
-1707.8051
-1169.8836
2723.2115
3125.2013
-3888.5588
35426.139
-44586.855
-2367.2142
-1840.4625
1846.3809
2251.2679
35882.938
-4940.5072
-45517.206
-2392.3806
-2031.4093
1706.2846
2205.2676
4284.6675
-5427.1203
-2300.5108
1887.0366
-1895.7214
2400.7848
-2267.7055
-1709.2408
2013.74
2411.0269
-35625.453
4262.0844
-5614.0593
-2303.0605
1867.1822
-1905.213
2405.2226
-3874.3038
36088.246
-45846.17
-2442.6763
-1969.6556
1768.1815
2157.4918
-5181.3286
-44948.153
-2382.2288
1669.1961
-2028.8208
2199.2203
-2351.1735
-1849.537
1934.7029
2312.6661
35146.874
3155.2155
-4205.5674
1413.3377
1848.9565
-44433.132
-2552.1578
-2794.0768
3668.3014
44426.777
-4815.4698
-2568.5099
-2211.6947
1524.7062
2003.0421
35601.421
3961.5226
1490.5381
1822.8849
-45020.86
-2467.2418
-2878.6172
4548.8668
45294.387
-2614.2335
-2159.4098
1609.8433
1938.0324
22742.629
-155743.37
-29645.122
6906.3592
8900.6979
-12736.313
-11482.917
35877.173
3173.6343
1414.0155
1868.4008
-45514.286
-2565.9252
-2853.5663
3665.941
45664.767
-2598.5829
1544.1702
-2236.778
2008.9013
-35683.478
45136.563
4942.4651
-2563.8515
1703.9024
-2069.8356
2051.9667
4337.7774
1566.6042
1946.843
-45169.339
-2345.7012
-2834.4654
-159390
28714.884
7141.4673
9269.0913
-10519.409
-13531.881
-3656.2713
35117.82
4965.1803
-2496.1908
-2002.8082
1691.4526
2070.2137
35326.162
-4593.6865
-2521.2744
1532.326
-2185.5131
2007.0742
3887.2015
-5040.46
45061.517
-2519.7178
1543.9089
-2145.5353
2028.1814
44428.282
5173.7879
-2510.6678
1655.3834
-1994.9883
2025.9965
-3588.7639
35091.899
-2539.1881
1613.4144
-2083.4305
1979.2553
34568.107
-4864.2482
-2486.6731
1510.1559
-2148.2966
2010.7719
4096.3616
43855.855
-5316.3619
-2494.9032
1513.7309
-2107.2304
2035.4033
44791.969
-2541.6337
1600.3266
-2048.8739
1975.9052
22780.941
-29965.331
6419.1919
-13712.099
-12016.033
8546.6742
-13914.036
7196.0624
9227.1652
22107.533
-13537.642
6289.9655
-11847.471
8505.9743
-10817.228
-13444.449
6986.724
8809.559
-35454.514
4357.3279
-5592.9535
45966.669
-2306.3905
-1886.6217
1834.0163
2363.4607
3978.2437
-5068.0487
-2382.3544
-2012.6365
1657.6189
2172.0238
-35114.186
45355.545
-2287.9919
1951.7545
-1732.2298
2355.8613
-1851.3968
-2374.2072
1790.4416
2205.438
-4070.4294
35272.21
-2411.61
1730.0935
-1910.6279
2150.0023
34714.055
-5485.3306
-2362.6288
1620.911
-1978.5953
2175.6793
4529.603
44777.075
-6019.3791
-2289.7657
1796.0894
-1856.6233
2359.3939
45637.778
-2332.9623
1882.8385
-1795.9054
2295.3157
-4512.3533
36335.623
5729.8975
-2077.494
-1531.1604
2283.7345
2734.8226
35788.091
-6089.5435
-2036.9082
-1607.9295
2160.4936
2752.671
5043.6802
-6466.6436
-1683.9991
-1197.6947
2521.9166
3134.8153
6277.3645
-1718.3666
-1139.8686
2614.4877
3060.1325
-36594.907
4802.1159
-1701.3713
2574.3092
-1230.2865
3152.0744
4452.8225
-2045.9422
2205.4141
-1634.8355
2756.5386
36301.211
-2034.9296
-1470.7047
2354.8835
2791.2925
-1678.5467
2681.2336
-1096.065
3096.0239
-35116.595
3936.193
-2537.2766
1550.0119
-2177.2482
2051.8759
-3565.3299
35656.356
-45501.298
4389.959
-2570.1299
-2127.74
1646.071
1992.8038
-44682.572
-2536.0595
1506.2428
-2211.3643
1997.9206
4909.8275
-2572.7666
-2103.1195
1638.7501
1990.2913
-3654.3238
-35713.769
4333.628
-2618.5754
1641.3614
-2171.8325
1956.819
-35262
-2602.6581
1513.9719
-2259.9548
1992.7713
3160.8981
-44726.99
1312.5857
1816.4302
-2907.4051
-2630.1079
3850.1795
-45415.309
1459.4133
1771.1645
-2536.2009
-2927.6411
35806.311
3069.317
-45629.18
1472.7194
1854.5492
-2600.3677
-2848.2767
3450.9834
45590.321
-2566.3957
1585.4969
-2214.7948
2030.4445
35323.104
-44668.152
1561.3491
1890.8814
-2415.9867
-2842.3466
44765.212
-2532.3832
1706.2658
-2045.7168
2033.2189
-3516.275
35036.626
-2495.8643
1708.9144
-2003.0394
2074.2345
35462.659
-2524.0911
1563.2
-2191.6021
2027.174
3782.189
-2529.1567
1576.2908
-2156.9591
2053.117
-2503.0114
1691.3516
-1982.4658
2054.0272
7195.1596
696.4036
-9288.1708
-932.46554
432.27354
-514.59472
322.83296
-442.16284
737.73354
9171.1601
-934.23438
-512.75949
330.92422
437.98705
-434.95949
7376.4841
-9563.0743
-427.37629
433.96562
-524.3394
351.93102
9455.9125
-522.81957
357.8015
-423.04184
437.04625
7317.1578
671.89767
-9446.0799
-892.82202
442.32256
-514.19038
332.53306
-441.88458
712.82406
-928.20511
-516.54056
332.05501
438.66362
-439.20815
7507.6714
-9732.0694
440.18539
-524.88063
360.22917
-430.02572
-527.26535
358.28156
-426.0537
435.9053
7501.083
662.28876
-9745.6409
-887.06774
454.74219
-506.29522
346.55802
-428.07627
691.24923
-882.3369
-516.87857
340.15258
445.75491
-438.04625
7668.9366
-9994.2484
457.05839
-513.82332
373.4629
-412.15555
-529.66245
363.76024
-428.99586
441.85601
703.54587
-7841.2051
-905.61689
-524.92874
-467.84474
316.5314
423.60574
-7998.6913
856.04996
333.63368
417.55399
-545.93862
-463.12432
572.90376
-755.49935
-494.77956
-9990.7165
3021.6201
-35579.605
-4083.9469
1543.1084
-2691.4614
-2470.9643
1942.8494
718.58136
-10222.578
-505.23232
-8013.223
-539.00612
-480.47959
318.26431
420.52921
-36295.826
1634.7296
-2770.4224
-2430.971
1895.417
-10279.174
-507.6393
2663.0775
-3879.079
1591.3056
-2767.964
-2553.0448
1936.3088
1627.2866
-2892.8175
-2508.1625
1909.1545
7384.0275
764.72652
-9325.4985
-1020.536
531.92056
-441.08435
420.53674
-367.08482
-1062.4286
-408.42746
464.37505
571.92304
-328.67062
-9602.5657
532.31609
-451.38237
451.4926
-353.14292
7225.2647
750.65032
-9206.1166
-1012.7984
465.10912
-484.10837
352.75367
-409.06154
793.14021
-1023.021
-473.73083
378.76434
487.6492
-393.90118
7401.9664
-9479.6489
-394.86676
467.43121
-493.59218
383.54944
-482.60274
407.21827
-381.57825
485.00857
7158.4099
719.75394
-942.41606
440.73873
-498.19149
332.23023
-425.35489
773.00882
-1001.5937
-495.17093
341.36854
449.89584
-416.13499
7348.0253
445.12105
-508.71845
361.07694
-410.99115
-505.03501
368.8987
-403.96077
448.86903
-894.71895
780.14074
796.75387
-9893.1641
-229.16452
-125.88715
-1090.9185
725.01968
817.08512
-10083.981
-241.4299
-157.31644
866.39671
-1122.0209
706.60891
808.48342
-9923.2601
-243.75614
-162.43609
758.09977
785.84663
-10145.716
-252.20319
-157.05996
920.50187
-1179.2508
685.14584
809.54495
-9827.7025
-248.53266
-158.51487
1157.5044
737.21062
792.21216
-10095.872
-153.87195
-257.32455
911.73645
696.12519
810.93123
-10078.168
-255.07851
-167.57576
748.94102
778.1479
-9942.9985
-147.92714
-248.60091
992.50185
663.17561
788.75793
-9655.5903
-1276.7217
-255.97643
-162.65829
1242.2436
712.38804
773.10642
-9921.0496
-156.2144
-266.04934
-5456.1691
3499.2793
3246.9814
-45043.812
-296.22164
-921.9592
-6796.4348
3529.6421
2964.5338
-45825.755
-999.32522
-471.11656
983.80459
670.0709
789.14384
-9905.1878
-265.46279
-171.15424
1221.345
722.51322
759.50215
-9774.247
-258.77071
-148.49797
939.71645
-1171.2986
695.14472
792.84516
-9968.8583
-258.11219
-168.38639
741.38305
783.71168
-9800.9749
-247.16583
-136.79513
944.01404
671.42629
783.83196
-9775.5589
-259.7113
-168.84068
729.40513
768.03295
-10013.477
-266.54695
-162.01925
-5522.2908
3384.7425
3082.9297
-45680.192
-1035.0644
-436.3472
-7130.4668
3427.5443
2799.5958
-44843.882
-1033.3664
-492.13858
5726.3462
-7275.5593
2792.7858
3401.419
-45213.828
-1055.4531
-483.38314
3072.4383
3371.4406
-44694.326
-1006.6245
-360.35657
-5863.1945
2976.4835
3349.6313
-44806.974
-1054.9023
-384.31421
2705.7272
3358.8151
-43573.984
-1039.1748
-7490.227
-442.93659
-32662.373
15293.619
13201.66
-192677.65
-1311.4755
-5113.8374
-39711.069
11497.869
14709.674
-197080.35
-2228.9191
-5477.6811
12332.926
14602.07
-190703.83
-5370.6812
-1656.7266
-231472.05
-32540.632
-12102.086
-795960.84
-32083.462
-11273.869
-223546.78
-769383.34
-200626.29
42813.572
59122.804
-47526.133
-29855.329
41654.703
58850.891
-200135.34
-28364.043
-46001.653
-12534.713
28671.858
-28566.134
15171.135
12623.577
-184204.2
-6012.6203
-3353.0901
4683.5209
-6077.0705
6286.3089
-41630.94
5779.215
6467.0724
-41820.764
32517.781
-41619.307
-161985.57
12464.622
-159974.78
15274.116
12656.905
-182983.31
-5991.4961
-3239.5989
4404.9651
6443.0362
-41610.021
6682.2976
-41750.026
-16934.431
34873.838
10292.386
12763.138
-35534.679
-170886.57
-1483.371
-4558.9438
35990.675
-46328.911
-192608.8
18297.591
-190864.26
10947.902
12816.651
-171202.27
-4258.27
-1144.007
-12191.416
29062.757
-29637.048
14852.164
12198.427
-178669.14
-6104.6547
-3392.7103
5072.237
5976.2412
-6459.8291
-41059.079
6236.4431
6149.0099
-41085.445
33371.049
-156798.97
-43085.64
12187.234
-157831.34
15153.944
12465.955
-181216.4
-5935.6254
-3158.9202
4790.3668
6174.8359
-41292.601
6482.4938
-41259.651
-4560.9883
5438.4522
3922.4369
-6816.8893
-31869.802
5603.76
-7808.3408
-31712.146
-4702.296
6409.9522
4136.8463
-32319.679
7335.9001
-32018.04
4660.3289
4742.9173
-31974.61
4912.374
-31853.949
4574.6871
4108.8922
-32311.215
4379.0692
-32202.46
225.01097
7007.4152
-8571.5908
-4019.1613
-4253.6239
-3631.9183
-3927.226
6548.4334
-8246.3315
-5787.0144
-5924.355
-4929.4314
-4557.9629
-615.72693
8079.213
-5649.7237
-6176.7121
-5146.2105
-4445.6278
8517.3402
-4281.6909
-3563.5761
-4597.1528
-3965.6837
-5773.3867
-532.77609
-6183.184
-5641.1007
-4419.4951
-5129.4267
326.73754
6269.1124
-3736.1106
-4094.3199
-4140.887
-4400.3152
-5854.1003
-6011.5462
-5008.8402
-4620.4527
-4305.5826
-3574.9708
-4668.057
-3997.0663
6079.7191
2722.728
2294.8474
-6021.7443
-9079.8485
-9267.3099
-6663.4338
-6975.1731
534.98796
182.84653
2692.929
2377.5193
5856.3408
-8907.6297
-9467.5061
-6993.3137
-6640.5246
547.73673
175.06064
1186.445
-1235.3672
525.25719
-1450.1611
-1179.3564
-1154.181
-793.74257
-867.94419
-1243.5353
1469.8986
405.86032
-902.67305
-1239.9447
-1121.9645
-775.19928
-831.59057
1131.2042
-4670.1963
-1127.6576
-4629.4897
1058.5003
-1238.6578
479.52596
-866.0877
-1174.0615
-1146.5435
-792.79504
-1250.2404
401.48062
1426.2975
-893.26165
-1228.5094
-1109.4984
-768.67652
-710.36939
1086.5135
-4636.7765
-4646.8857
1169.0266
-917.86855
-1606.8049
-590.80846
-747.54699
-657.44238
-507.46846
-1073.7678
1524.9176
-619.74207
-774.69398
-642.05662
-489.84613
1015.5717
-1405.451
-1192.2922
-617.06021
-533.52975
-1127.4363
1291.7099
-511.87254
-643.64091
-1250.2495
-1110.0124
-856.38434
1281.4017
-1536.3223
-742.84485
-656.02932
-572.30417
-493.13803
1134.7556
-1268.3083
-1179.0866
-601.84327
-525.55429
-1114.0087
-1063.9768
-621.04849
-782.82057
-644.92856
-490.11635
-508.98586
-644.44103
-1242.1672
-1101.2543
-5749.9722
2470.2724
2752.3925
5700.7542
-8965.2765
-9535.8795
-7042.4606
-6683.1611
221.16956
588.24908
2346.2563
2746.9613
-9183.5724
-9325.9459
-6743.7425
-7023.7545
194.58584
539.83612
1257.9122
772.53947
-4675.9734
1123.8564
531.47035
-870.44029
-1183.0236
-1168.2771
-805.72051
1265.2638
1042.3949
-4736.6821
1363.0416
421.28719
-1252.5467
-1138.7627
-911.00084
-789.67413
660.33342
1283.2681
-4707.9573
1300.7901
1048.6479
-4693.6053
996.61119
486.35395
-877.56493
-1194.4444
-1172.5369
-810.00461
436.43944
1383.6228
-898.24958
-1239.2277
-780.85216
-1127.1306
1224.7406
-873.27686
-586.05784
-751.1979
-671.36046
-510.77917
-1078.1797
1505.4573
-662.75339
-792.86786
-507.61463
-632.50029
-1095.5636
1316.3542
-650.19844
-1255.2967
-1128.9571
-523.19262
-1183.0239
-613.18427
-539.86321
-1127.5404
-1085.6147
-1099.1672
1470.5246
-785.49869
-661.6641
-502.53885
-630.17945
925.52337
970.94519
-625.05732
-549.54864
-1156.4739
-1209.8725
1219.475
-1270.1717
-647.91909
-530.82074
-1133.779
-675.60842
-759.5525
-524.01167
-599.83849
-5456.8259
2529.546
2776.1213
-9030.0643
-9571.2763
-7066.0013
-6724.3058
253.29904
597.67036
-5578.7422
2436.7716
2788.8702
-9236.7776
-9433.245
-7099.8378
-6802.3655
231.24787
549.24232
764.21489
1297.1401
-2393.4541
-4716.5648
1306.3305
1033.64
-2793.4215
-4781.0842
1124.4843
565.96314
-1188.8914
-1197.625
-880.50767
-819.13929
1383.6197
447.62612
-917.88349
-1262.4302
-1157.5581
-802.56066
636.86759
1308.1996
-2489.607
-4740.2825
1311.4934
-2761.8393
984.82109
-4726.6061
996.36283
501.06801
-1175.4216
-1198.0587
-882.22263
-813.95837
419.26324
1346.3835
-902.08673
-1242.5407
-1136.2685
-789.29196
-980.82451
1115.5796
-1529.357
-684.64155
-768.61109
-613.58075
-534.56875
966.73186
-1353.7304
-1224.0032
-632.47008
-553.45829
-1163.8604
-1127.5541
1462.5058
-642.08035
-792.42218
-667.65311
-515.51014
1228.404
-536.24576
-660.82149
-1284.3984
-1146.4579
-886.38447
1221.5833
-687.11485
-763.11726
-593.87125
-520.49605
1089.0078
-1200.4943
-619.66311
-548.37389
-1140.5875
-1091.9229
-646.24079
-807.16311
-677.80041
-518.93634
-536.40482
-665.17917
-1268.1837
-1137.5895
-5782.7985
219.1829
571.22776
-9095.5364
-9605.3129
-7092.0781
-6767.0358
224.29801
555.07429
-9300.2692
-9394.5276
-6827.177
-7064.5307
704.40138
1311.2921
-4711.3659
1300.3083
947.48538
-4741.8739
1075.625
531.89756
-1183.4447
-1193.6701
-877.31872
-817.98596
1296.3694
405.67519
-908.18821
-1247.3031
-1146.0949
-797.93252
601.48763
1315.8586
-4714.2771
1318.5148
-4683.5402
950.41888
470.9481
-874.49895
-1190.6499
-1170.2073
-810.85475
417.81991
-1125.8594
-1238.7512
-898.80053
-783.17559
-946.68947
1186.3052
-688.76051
-763.03601
-604.1097
-533.27223
1042.4028
-1215.1251
-624.1527
-555.98978
-1160.2407
-1152.8507
1441.5558
-651.81977
-801.73334
-676.82203
-526.23877
1220.0744
-539.34663
-667.29214
-1287.1905
-1155.2318
1052.0256
-1045.7738
-617.07959
-765.87323
-686.4237
-542.00515
-1154.8982
-642.9556
-788.21281
-667.36809
-517.82679
855.43774
-1239.2998
-636.72937
-565.77056
-1190.3594
-541.64767
-664.11129
-1296.3979
-1159.089
-36050.382
15733.434
50959.988
-54357.114
-136643.67
-37307.416
-134437.54
43142.83
15905.905
-160882.79
-33558.358
15665.999
-54823.614
-142559.54
14304.795
-41085.265
-142059
31491.283
13267.7
-161877.37
15590.616
-163911.48
2680.6847
44904.436
-34540.358
-38152.283
-32867.47
-29178.777
47655.961
-25916.886
-22259.991
-21367.996
-18242.956
32163.407
2262.9081
-37500.126
-36038.13
-30458.635
-32495.306
2077.6256
-39076.209
-35292.684
-29757.891
-33609.739
34969.045
-25311.303
-23074.883
-20795.703
-18932.955
-26622.165
-22814.513
-22282.71
-18975.861
-16145.278
36711
12468.522
9768.5121
-35642.038
-166759.42
-1301.1092
-4565.7385
37606.642
-46699.43
-186845.81
17414.217
-185709.48
10354.917
12484.983
-167595.72
-1168.8548
-4458.6083
-6048.2404
4455.3195
8105.0334
-31168.558
4304.2309
-8082.2723
-30877.246
5822.0893
3676.4469
-6961.5151
-31188.527
7059.8212
3885.744
-31661.769
4407.7521
5203.9291
-31263.432
5074.0721
3763.623
-31651.06
4605.0864
-31206.392
4051.1825
-31641.578
-245.72235
6814.0243
-8189.8237
-5588.6683
-5764.5265
-4807.0419
-4400.5852
7123.7022
-8355.1081
-3808.3528
-3404.4149
-4093.8786
-3724.2317
-675.51799
8673.0912
-5491.4381
-6036.0346
-5031.784
-4312.3701
9041.7396
-4072.3321
-4406.2543
-3379.2577
-3769.3857
-6189.5379
-661.48668
-6058.0405
-5494.1065
-5062.0652
-4321.0529
370.25277
6651.734
-3955.2573
-4197.9415
-3568.0643
-3862.7039
-5670.6746
-5858.7653