/*--------------------------------*- C++ -*----------------------------------*\
  =========                 |
  \\      /  F ield         | OpenFOAM: The Open Source CFD Toolbox
   \\    /   O peration     | Website:  https://openfoam.org
    \\  /    A nd           | Version:  7
     \\/     M anipulation  |
\*---------------------------------------------------------------------------*/
FoamFile
{
    version     2.0;
    format      ascii;
    class       volScalarField;
    location    "1000";
    object      nut;
}
// * * * * * * * * * * * * * * * * * * * * * * * * * * * * * * * * * * * * * //

dimensions      [0 2 -1 0 0 0 0];

internalField   nonuniform List<scalar> 
34158
(
2.3730472e-09
2.2829117e-09
2.3551676e-09
1.8412469e-09
2.8821344e-09
2.8571448e-09
1.2303413e-09
1.2877851e-09
5.0881168e-10
4.9045121e-10
2.7927183e-09
3.1752888e-09
1.3460831e-09
1.3624413e-09
6.6892063e-09
2.3529143e-09
3.9343412e-09
2.3059068e-09
1.3945569e-09
1.3706255e-09
2.1952239e-09
2.0988146e-09
5.1683682e-10
5.472063e-10
8.2846176e-10
2.9819797e-10
2.9991087e-10
8.6328722e-10
4.3968427e-10
3.7648604e-10
3.5281565e-10
4.4872677e-10
4.5011501e-10
3.56124e-10
1.3289587e-09
1.175738e-09
1.3959495e-09
1.4281785e-09
6.3943834e-09
2.1338144e-09
7.2097463e-09
2.1388242e-09
1.3325109e-09
1.3563592e-09
2.1301478e-09
2.0587031e-09
1.0368214e-08
6.7934109e-09
2.0098772e-09
3.7277019e-09
2.6286229e-09
2.0091112e-09
1.4698436e-09
1.4454549e-09
2.0162596e-09
1.9047769e-09
2.6882008e-09
2.362211e-09
2.884919e-09
3.4221493e-09
6.1257215e-10
5.4261013e-10
2.9504954e-10
9.4328998e-10
8.3713844e-10
3.1870328e-10
4.0898456e-10
3.7300011e-10
3.6108468e-10
4.6068004e-10
4.9332262e-10
3.8170115e-10
3.7084042e-10
4.8112518e-10
2.6246571e-10
1.7060906e-10
1.7086322e-10
3.1578418e-10
3.0926583e-10
2.7670758e-10
1.6589922e-10
2.6072791e-10
3.0153497e-10
2.8518802e-10
2.374346e-10
2.3550337e-10
3.2248487e-10
3.4461197e-10
3.1367463e-10
3.2440816e-10
3.4095656e-10
2.9762315e-10
2.9640394e-10
3.1665413e-10
2.2800307e-10
3.1236812e-10
2.2900833e-10
3.1528048e-10
3.0448819e-10
2.3112437e-10
2.3281273e-10
3.2707554e-10
3.3805462e-10
3.1664218e-10
3.2770678e-10
1.423813e-09
1.2559487e-09
1.9834168e-09
1.6208766e-09
8.6267065e-10
7.8131839e-10
1.9680734e-09
2.2129047e-09
1.4359782e-09
1.3727363e-09
2.0527952e-09
1.9577239e-09
4.6226525e-09
6.652216e-09
1.877674e-09
5.976888e-09
7.391397e-09
1.7853342e-09
1.2999556e-09
1.3798743e-09
1.8777304e-09
1.1492582e-09
9.8288166e-10
1.7914189e-09
1.0976303e-09
1.0390867e-09
1.5628454e-08
1.0058401e-08
4.0033952e-09
2.0382597e-09
4.4143466e-09
2.3493496e-09
2.4096303e-09
1.914005e-09
1.7983843e-09
1.715112e-09
2.5470084e-09
2.6108383e-09
3.3679707e-09
2.7261223e-09
9.7754286e-10
2.9423654e-09
1.0751985e-09
2.8157926e-09
3.0312166e-09
3.6198385e-09
6.182176e-10
6.2845272e-10
4.8670882e-10
3.1991959e-10
1.0777252e-09
4.5385577e-10
3.6246605e-10
3.6275073e-10
4.5641386e-10
1.632374e-10
2.9283244e-10
2.9528721e-10
1.6981293e-10
2.7233969e-10
2.7162204e-10
1.7174186e-10
1.7037966e-10
2.9895543e-10
2.9945876e-10
2.4919755e-10
2.9081537e-10
2.742857e-10
2.2440819e-10
3.2409495e-10
3.2158647e-10
2.8132924e-10
2.8907793e-10
3.3729355e-10
3.4410845e-10
3.3109398e-10
3.0067947e-10
3.024518e-10
3.2289481e-10
2.3474806e-10
2.3058496e-10
2.3891094e-10
3.1496394e-10
3.0880819e-10
2.3418344e-10
3.1734576e-10
3.1463976e-10
3.1280501e-10
3.1124932e-10
3.2162599e-10
3.4004148e-10
3.1464143e-10
3.3215995e-10
2.3406523e-10
2.3833379e-10
2.9426215e-10
2.6848792e-10
2.2977752e-10
2.3328298e-10
8.0880861e-11
8.1738276e-11
1.4302109e-10
1.3921521e-10
8.2062534e-11
1.3442934e-10
1.3089783e-10
8.1908597e-11
2.3633562e-10
8.1600778e-11
8.1780272e-11
1.3699814e-10
1.341137e-10
2.6163408e-10
2.3283318e-10
2.3735107e-10
3.3183464e-10
3.4584997e-10
2.3450516e-10
1.9367956e-10
3.4531482e-10
3.0699567e-10
1.9406535e-10
1.9033377e-10
1.9268372e-10
1.9467294e-10
1.9049945e-10
1.8363888e-10
1.8166149e-10
1.8667421e-10
2.373491e-10
2.401979e-10
2.7284225e-10
2.6234466e-10
2.4797859e-10
2.3902736e-10
2.7052387e-10
2.7463457e-10
3.4163912e-10
3.1951209e-10
3.3536849e-10
3.160331e-10
3.0181385e-10
2.435388e-10
2.435854e-10
2.7306045e-10
2.7315751e-10
2.4042979e-10
2.2920149e-10
2.6421876e-10
2.5499813e-10
3.0036171e-10
3.1266249e-10
2.9155294e-10
2.8545392e-10
3.1348272e-10
3.2193077e-10
3.1951315e-10
3.0226036e-10
2.2526966e-10
2.2115087e-10
3.1576999e-10
3.3226809e-10
1.9273723e-10
1.81936e-10
1.8196536e-10
1.8630551e-10
3.1563917e-10
2.5774421e-10
2.2847288e-10
3.315361e-10
1.9028088e-10
1.9848493e-10
1.7804615e-10
1.8206728e-10
2.3432449e-10
2.3317115e-10
3.2565084e-10
3.2118073e-10
2.2805054e-10
1.9783703e-10
2.9422559e-10
3.2348122e-10
1.9207542e-10
1.9235793e-10
1.8834063e-10
1.8210315e-10
1.9076222e-10
1.8787908e-10
1.7905212e-10
1.8005748e-10
3.2601342e-10
3.5098198e-10
3.3695322e-10
3.1881005e-10
2.6728124e-10
2.3109202e-10
2.3341533e-10
2.6823303e-10
3.1800625e-10
3.4563617e-10
3.2378224e-10
2.9913428e-10
2.6429667e-10
2.2733143e-10
2.2628499e-10
2.5629467e-10
9.4951909e-10
1.3696276e-09
1.3079335e-09
2.0978727e-09
1.7351506e-09
8.1840992e-10
7.755652e-10
8.7454718e-10
2.516748e-09
5.7214452e-10
2.1479543e-09
1.4660793e-09
1.5580366e-09
2.8420533e-09
1.8607415e-09
5.2275186e-09
1.9008668e-09
1.4891971e-09
1.4074205e-09
1.863367e-09
1.0226758e-09
1.0131077e-09
1.8148119e-09
1.1584646e-09
9.3094966e-10
9.4651374e-09
2.6169629e-09
2.961235e-09
2.0369245e-09
1.1640915e-08
4.790626e-09
3.3283794e-09
1.8367547e-09
1.6414041e-09
1.8317369e-09
1.0596859e-09
2.1162372e-09
2.0049618e-09
1.4564086e-09
1.806999e-09
1.0322294e-09
2.0856928e-09
1.9192224e-09
1.6007409e-09
1.58589e-09
2.6591191e-08
5.9941788e-09
1.9907525e-09
3.4612763e-09
3.0973134e-09
2.5426843e-09
2.0617779e-09
2.7224784e-09
2.6664462e-09
2.651745e-09
1.0689495e-09
3.4244778e-09
1.0133623e-09
3.2030735e-09
1.4918482e-09
6.6947274e-10
1.3906973e-09
7.0330312e-10
3.5519113e-09
3.7500807e-09
3.2920698e-09
3.1765201e-09
3.4896173e-09
2.0411388e-09
1.935561e-09
1.7035473e-09
1.7178037e-09
3.9236985e-09
2.0797017e-09
2.0241172e-09
3.255398e-09
3.6105444e-09
2.861491e-10
2.9330264e-10
6.4053656e-10
6.3846044e-10
4.8308407e-10
3.9944434e-10
3.9823113e-10
4.3681503e-10
4.2740489e-10
4.4111357e-10
4.0267805e-10
4.513152e-10
4.5800439e-10
1.6347338e-10
1.6399954e-10
2.7242852e-10
2.8321991e-10
2.8251011e-10
2.7773803e-10
2.7963782e-10
2.6919676e-10
2.2113137e-10
2.2343551e-10
2.9311543e-10
2.7784643e-10
2.9362748e-10
2.8263558e-10
3.0044951e-10
2.9122211e-10
2.8535895e-10
2.8247767e-10
2.7578652e-10
2.9898351e-10
2.2462997e-10
2.2034202e-10
1.4220172e-10
8.1703205e-11
8.0689587e-11
1.3744765e-10
2.3414597e-10
2.4320609e-10
8.3017556e-11
8.2792225e-11
1.3471043e-10
1.3352043e-10
2.735283e-10
2.5495522e-10
2.4148713e-10
2.7547682e-10
8.3098082e-11
8.3063734e-11
1.3823184e-10
1.3663769e-10
8.2371978e-11
1.337255e-10
8.3460224e-11
1.3553829e-10
2.0856091e-10
2.2527077e-10
2.0111735e-10
1.8685179e-10
3.1004587e-10
2.1043794e-10
2.173801e-10
3.2686892e-10
2.3840668e-10
2.588377e-10
3.3361809e-10
3.5405545e-10
1.8266127e-10
1.9088171e-10
1.8142073e-10
1.6847683e-10
3.2652047e-10
3.5288517e-10
3.4737731e-10
3.1832704e-10
2.6315334e-10
2.2803256e-10
2.3534156e-10
2.7060512e-10
2.3610607e-10
2.5082552e-10
2.6828607e-10
2.5904336e-10
3.19631e-10
3.3693943e-10
3.1996492e-10
3.0172446e-10
3.1095289e-10
3.4352271e-10
3.2944853e-10
3.0131631e-10
2.7958616e-10
2.288829e-10
2.3370442e-10
2.6552419e-10
2.5328753e-10
2.5893795e-10
2.7111741e-10
2.8079991e-10
3.0365333e-10
3.0758954e-10
3.2491867e-10
3.0141853e-10
2.3273108e-10
2.5133655e-10
3.3196138e-10
3.439126e-10
2.218685e-10
2.1415663e-10
3.1711608e-10
3.2846903e-10
1.8748596e-10
1.9356176e-10
1.8660501e-10
1.7985346e-10
1.9005455e-10
1.9435486e-10
1.917826e-10
1.8568843e-10
1.9894831e-10
2.1563357e-10
1.9494822e-10
1.8028902e-10
2.9807501e-10
2.1596983e-10
2.2599575e-10
3.2697735e-10
2.3182015e-10
2.466663e-10
3.3234861e-10
3.375478e-10
1.856204e-10
1.8905084e-10
1.8552958e-10
1.7648407e-10
2.4887039e-10
2.1476196e-10
2.6117624e-10
2.2450846e-10
3.1004005e-10
3.2553607e-10
3.3230616e-10
3.0509046e-10
2.3554148e-10
2.6090413e-10
2.6683026e-10
2.322993e-10
3.2372936e-10
3.2330339e-10
3.0774886e-10
2.4942963e-10
2.4399377e-10
2.6754697e-10
2.566862e-10
2.4507553e-10
2.4607656e-10
2.6434564e-10
2.7660711e-10
3.2332612e-10
3.0589689e-10
2.2462884e-10
2.3789173e-10
3.2523856e-10
3.5010231e-10
1.9121197e-10
1.9219709e-10
1.9929041e-10
1.8443047e-10
1.9199312e-10
2.0700855e-10
1.9922361e-10
1.8541907e-10
2.9803968e-10
2.5074042e-10
2.3389298e-10
3.342035e-10
2.0754453e-10
2.1303287e-10
2.0638572e-10
2.0970372e-10
1.5057555e-10
1.5732346e-10
1.7137125e-10
1.5592649e-10
7.2912415e-11
8.1573692e-11
8.015831e-11
7.2148825e-11
7.5539636e-11
7.939867e-11
7.6718135e-11
7.4932636e-11
7.7761618e-11
8.1595968e-11
7.7887878e-11
7.4678594e-11
7.791827e-11
7.8118352e-11
7.6262957e-11
7.5411392e-11
2.1772183e-10
1.6174332e-10
1.627089e-10
7.5477461e-11
8.3653378e-11
7.9699918e-11
7.3983974e-11
7.6054288e-11
7.9373391e-11
7.8715129e-11
7.7131288e-11
2.048787e-10
2.1836989e-10
2.0502002e-10
8.8000211e-10
5.0264408e-10
1.9399143e-10
1.9913796e-10
5.1569282e-10
3.5441841e-10
1.9099956e-10
2.0104177e-10
2.7202412e-10
3.8653869e-10
3.6486648e-10
2.5233485e-10
2.4597348e-10
3.4269099e-10
3.4132472e-10
2.4573626e-10
4.9082667e-10
4.8946376e-10
5.9493309e-10
5.7986797e-10
5.3043113e-10
5.4356932e-10
6.585885e-10
6.2815048e-10
8.5236395e-10
7.817997e-10
7.9336845e-10
8.8738022e-10
8.6592954e-10
4.9003069e-10
4.5623355e-10
5.6077734e-10
5.8735197e-10
4.6842015e-10
4.8183065e-10
5.8165931e-10
5.4511237e-10
8.4973808e-10
7.6242267e-10
7.118199e-10
8.0790134e-10
8.7621102e-10
7.5779729e-10
7.7901795e-10
8.6498965e-10
4.3061442e-10
3.4684269e-10
2.1660326e-10
1.8645347e-10
2.520322e-10
3.4021193e-10
3.1426809e-10
2.2722422e-10
1.8888699e-10
4.4137905e-10
8.1753846e-10
2.0009437e-10
2.4923159e-10
2.241907e-10
3.0861954e-10
3.396634e-10
9.2893e-10
4.2911411e-10
1.8474294e-10
2.078571e-10
5.6691183e-10
3.406256e-10
1.9661162e-10
1.9567543e-10
3.5811853e-10
2.5402232e-10
2.4330517e-10
3.3127398e-10
2.4722899e-10
2.3017369e-10
3.1304773e-10
3.2110969e-10
9.184097e-10
8.4189219e-10
7.8952434e-10
8.9190924e-10
6.1362202e-10
4.9860087e-10
4.7817731e-10
5.7775779e-10
8.7298838e-10
7.6187871e-10
7.3768596e-10
5.4440834e-10
4.4504128e-10
4.561936e-10
5.4809642e-10
9.7542742e-10
1.0192394e-09
9.8011054e-10
8.772842e-10
8.3636486e-10
1.1879789e-09
1.2542104e-09
1.2284848e-09
1.092322e-09
2.1355675e-09
1.7109037e-09
8.480766e-10
8.0243995e-10
8.9171368e-10
3.0710243e-09
6.6901446e-10
2.836201e-09
5.7903792e-10
1.3875138e-09
1.234264e-09
5.4943642e-10
2.0445807e-09
1.93394e-09
1.4474964e-09
1.5619869e-09
1.7587177e-09
1.9627261e-09
1.6137282e-09
1.7075252e-09
2.0383865e-09
2.279159e-09
2.754092e-09
1.9502461e-09
1.9303577e-09
1.8531828e-09
1.1050226e-09
2.0093738e-09
1.6599063e-09
1.453522e-09
1.4768494e-09
1.1132757e-09
1.5430392e-09
1.2946124e-09
1.8326716e-09
1.855726e-09
4.503216e-09
1.700381e-09
1.6405669e-09
3.3836774e-09
1.1189375e-08
1.7350656e-09
1.6520495e-09
3.0648557e-09
2.3670432e-09
2.6335105e-09
8.6783105e-10
1.0569807e-09
7.8827617e-10
7.2155883e-10
9.8209125e-10
2.5101665e-09
2.2581865e-09
8.7099705e-10
9.835203e-10
7.7453297e-10
7.3657453e-10
9.8030989e-10
2.2876663e-09
2.4463066e-09
1.0478263e-08
2.442059e-09
1.0976925e-09
4.9717652e-09
3.2119097e-09
2.9727864e-09
1.1863163e-09
3.6559471e-09
1.9674055e-09
7.2666692e-10
1.692705e-09
6.9305219e-10
1.6251703e-09
1.8164032e-09
1.7537988e-09
1.4247243e-09
1.6073154e-09
1.5486593e-09
1.5710351e-09
1.5252726e-09
1.3679414e-09
1.3631263e-09
1.3183961e-09
1.3389376e-09
1.6324462e-09
1.6669454e-09
1.6498343e-09
1.6700632e-09
1.3995044e-09
1.3794301e-09
4.3573713e-09
2.0986061e-09
2.1978106e-09
1.8573692e-09
1.8691635e-09
3.4630652e-09
2.0030296e-09
2.0893797e-09
1.7760408e-09
1.7933819e-09
1.7216415e-09
1.6809384e-09
1.5884174e-09
1.5063833e-09
1.3593935e-09
1.13333e-09
1.1497521e-09
1.3493627e-09
1.3449177e-09
1.1211475e-09
1.1233501e-09
1.3170564e-09
1.3532922e-09
1.4462315e-09
1.3808487e-09
1.44975e-09
1.3394424e-09
1.3558077e-09
1.4377634e-09
1.7283502e-09
1.6414771e-09
1.6267409e-09
1.7533868e-09
1.3989727e-09
1.1837036e-09
1.402816e-09
1.3595901e-09
1.3592533e-09
4.4258148e-09
2.2427575e-09
2.1815755e-09
3.907352e-09
2.1002826e-09
2.2142369e-09
1.8152212e-09
1.937211e-09
3.3916981e-10
6.00399e-10
5.2839857e-10
3.2310163e-10
2.9710813e-10
5.8556936e-10
6.0875674e-10
3.377977e-10
3.6412794e-10
6.5967216e-10
2.9857842e-10
3.9129754e-10
3.9534661e-10
3.7379676e-10
3.853954e-10
1.2354011e-09
1.1869345e-09
1.2043323e-09
1.2096829e-09
1.1211188e-09
3.6267658e-10
3.4224859e-10
3.9150207e-10
3.8717018e-10
3.9660882e-10
3.9880239e-10
3.9232572e-10
3.7727284e-10
3.987007e-10
2.7689922e-10
8.065407e-11
1.329469e-10
8.0738282e-11
8.1042445e-11
1.3548827e-10
1.3374101e-10
8.1802596e-11
8.1182369e-11
1.3114869e-10
1.3532118e-10
2.5317744e-10
2.4311232e-10
2.8223838e-10
2.0950177e-10
2.2443774e-10
2.8646184e-10
2.8683521e-10
1.6731303e-10
1.5595208e-10
2.3300758e-10
2.0871798e-10
3.1340454e-10
3.179772e-10
2.1852067e-10
1.7081049e-10
2.6108722e-10
2.9715139e-10
1.7689412e-10
1.6918391e-10
1.6536638e-10
1.7016618e-10
1.6729502e-10
1.6725196e-10
1.7804955e-10
1.6771783e-10
2.4375354e-10
2.1546248e-10
2.3162552e-10
2.553519e-10
2.3656327e-10
2.2629212e-10
2.4071022e-10
2.5632691e-10
3.2167543e-10
2.9755055e-10
2.8668224e-10
3.0062548e-10
3.1910808e-10
2.9722532e-10
2.4313048e-10
2.2903441e-10
2.4233487e-10
2.5913538e-10
2.5857291e-10
2.6017094e-10
2.5811397e-10
2.6832596e-10
3.1305883e-10
2.7810402e-10
2.5583512e-10
2.9000574e-10
2.8728134e-10
2.9691203e-10
3.1474159e-10
2.8927494e-10
2.314153e-10
2.2306426e-10
3.1572723e-10
3.2199164e-10
2.2623838e-10
1.9333744e-10
3.0248687e-10
3.2190152e-10
1.6663506e-10
1.6890645e-10
1.8088168e-10
1.7198684e-10
1.7247689e-10
1.7275247e-10
1.8779442e-10
1.78091e-10
1.4846191e-10
8.3941396e-11
7.496418e-11
7.2483876e-11
8.177113e-11
7.6199214e-11
7.9351147e-11
7.8154288e-11
7.5965223e-11
1.5636811e-10
2.1038033e-10
2.1877281e-10
1.7128823e-10
1.608823e-10
7.7118282e-11
8.3075316e-11
7.9175789e-11
7.4704576e-11
7.7256684e-11
7.9157801e-11
7.927386e-11
7.607823e-11
2.2352985e-10
2.1465879e-10
2.2376384e-10
2.1538582e-10
1.6452075e-10
1.6399613e-10
1.7119962e-10
1.5390184e-10
2.1010244e-10
2.214391e-10
8.0307702e-11
8.4460865e-11
7.6756672e-11
7.4179777e-11
7.7435707e-11
7.9279956e-11
7.7635456e-11
7.6313579e-11
7.5498186e-11
7.8737579e-11
7.7904608e-11
7.5190929e-11
8.0223131e-11
7.8659594e-11
7.4632112e-11
7.7864221e-11
4.0017027e-10
2.8690147e-10
2.6927759e-10
3.6570147e-10
2.1299909e-10
3.1199946e-10
6.2965979e-10
1.945188e-10
4.4605011e-10
4.1327089e-10
2.0758417e-10
2.0063288e-10
3.732333e-10
2.6189704e-10
2.5625236e-10
3.5042322e-10
9.9460867e-10
9.0985545e-10
8.9333561e-10
9.5717242e-10
6.6864573e-10
5.5885721e-10
5.4923673e-10
6.6391286e-10
5.0989331e-10
5.3268774e-10
6.3611271e-10
6.0649676e-10
9.4116746e-10
8.4438476e-10
8.1194945e-10
8.9299856e-10
8.8850714e-10
8.7420413e-10
7.8959324e-10
8.7019675e-10
6.434711e-10
5.0955097e-10
4.7890746e-10
5.8171008e-10
5.1401956e-10
4.9324149e-10
5.8386707e-10
6.0406526e-10
8.6287315e-10
7.4946057e-10
7.8567636e-10
8.6236459e-10
5.4747699e-10
3.6704494e-10
1.9536573e-10
1.9656313e-10
4.2150339e-10
3.203371e-10
2.0015587e-10
1.9356968e-10
2.4189327e-10
2.5233733e-10
3.5384224e-10
3.2779913e-10
3.3794909e-10
2.440411e-10
2.57234e-10
3.5772118e-10
3.5906829e-10
2.6549181e-10
2.5519332e-10
3.418004e-10
2.0845926e-10
3.4133053e-10
4.393493e-10
1.9469209e-10
6.1014789e-10
4.2506556e-10
1.8296248e-10
2.007996e-10
3.3716432e-10
2.350078e-10
2.4660579e-10
3.3329503e-10
6.0510137e-10
5.0123059e-10
6.1426317e-10
4.9849511e-10
9.0262326e-10
8.0960573e-10
8.2098227e-10
8.9085556e-10
4.7907656e-10
5.8054428e-10
5.7846359e-10
4.7557908e-10
7.6023443e-10
7.7089473e-10
8.5702273e-10
5.3717188e-10
4.866489e-10
6.3153033e-10
5.6787211e-10
4.8437562e-10
4.9704917e-10
5.9169356e-10
5.9290846e-10
7.8451755e-10
7.4999826e-10
4.7328488e-10
3.6220965e-10
2.0460548e-10
1.8499823e-10
2.3658573e-10
3.3929144e-10
2.4457802e-10
3.2830432e-10
3.3421349e-10
2.4570108e-10
2.6616904e-10
3.6165024e-10
1.9633733e-10
3.4902572e-10
5.2338055e-10
2.0112272e-10
2.6650462e-10
2.7210171e-10
2.8830275e-10
2.5560286e-10
2.1709218e-10
2.4937128e-10
2.44318e-10
2.223009e-10
1.1976494e-10
1.0785753e-10
1.1319054e-10
1.1974288e-10
1.1669207e-10
1.2374975e-10
1.2622579e-10
1.1845405e-10
1.415051e-10
1.2238688e-10
1.2707645e-10
1.1865562e-10
1.3788697e-10
1.160559e-10
1.1994079e-10
1.2645329e-10
5.899783e-11
5.8132082e-11
6.022786e-11
6.1697863e-11
6.3848155e-11
6.0613935e-11
6.0232908e-11
6.2119132e-11
1.1394964e-10
1.1754143e-10
1.1757662e-10
1.1837086e-10
1.4739748e-10
1.2110513e-10
1.2485153e-10
1.2895453e-10
6.1946621e-11
6.0525371e-11
6.1743165e-11
6.3979025e-11
1.1820754e-10
1.1910728e-10
2.4304691e-10
2.3990207e-10
2.3346977e-10
2.614644e-10
2.4967159e-10
2.3051682e-10
2.3344743e-10
2.3851237e-10
8.1968312e-11
2.4409297e-10
3.6407419e-10
8.7688182e-11
8.0004649e-11
3.4453944e-10
3.099343e-10
7.7197682e-11
7.0805795e-11
2.373661e-10
2.4020684e-10
7.4864927e-11
7.6531342e-11
2.706329e-10
2.3247563e-10
6.9725573e-11
3.6407239e-10
8.8088201e-11
3.4441425e-10
8.4897169e-11
3.2196419e-10
8.9838321e-11
4.28886e-10
8.8199567e-11
2.6458183e-10
2.4698531e-10
7.6722113e-11
6.9158519e-11
2.8687247e-10
8.8524888e-11
8.074087e-11
2.6281486e-10
1.1672451e-10
1.2188282e-10
1.2516194e-10
1.2653118e-10
1.7001176e-10
1.6114183e-10
1.4326153e-10
1.4695295e-10
1.526194e-10
1.7097311e-10
1.5040362e-10
1.3986967e-10
1.0113115e-10
1.0987529e-10
1.2414939e-10
1.1205483e-10
1.1406313e-10
1.0483855e-10
1.0285548e-10
1.1282593e-10
1.5067071e-10
1.4982731e-10
1.3650974e-10
1.4010535e-10
1.5026146e-10
1.4246143e-10
1.3110381e-10
1.3676501e-10
1.0713414e-10
9.93289e-11
1.0611975e-10
1.130155e-10
1.7466068e-10
1.6469842e-10
1.5051455e-10
1.5785772e-10
1.7987018e-10
1.7159692e-10
1.5536798e-10
1.6541843e-10
1.7191694e-10
1.9181957e-10
2.0684137e-10
1.8399716e-10
1.6850025e-10
1.8682872e-10
1.9594875e-10
1.7308811e-10
1.7469356e-10
1.7396785e-10
1.5068511e-10
1.5893937e-10
1.5892589e-10
1.7492278e-10
1.76684e-10
1.5416638e-10
1.7524367e-10
1.934782e-10
1.8442182e-10
1.6323306e-10
1.5886021e-10
1.7821366e-10
1.9968319e-10
1.8050125e-10
2.1772105e-10
1.8452485e-10
1.6611376e-10
1.9565517e-10
2.0558432e-10
2.0289847e-10
1.8233881e-10
1.8202131e-10
1.8517916e-10
2.0486906e-10
2.1983381e-10
1.9490597e-10
1.9471618e-10
2.1588011e-10
2.2874467e-10
2.0333926e-10
1.9615397e-10
2.1657478e-10
2.1208747e-10
1.9010215e-10
1.7878956e-10
1.5421304e-10
1.4423925e-10
1.6305213e-10
1.6570645e-10
1.7353399e-10
1.5971028e-10
1.5613885e-10
1.7820192e-10
1.9661813e-10
1.9695667e-10
1.8012854e-10
1.6723926e-10
1.8190569e-10
2.0702292e-10
1.8462548e-10
1.7188892e-10
1.8154779e-10
1.6185673e-10
1.5458654e-10
1.6464862e-10
1.793365e-10
1.8201317e-10
1.6478423e-10
1.7138565e-10
1.9938625e-10
2.0346446e-10
1.7752781e-10
1.7573339e-10
1.9826694e-10
1.9000699e-10
1.6913702e-10
1.8419457e-10
2.0888721e-10
2.1836623e-10
1.9315222e-10
1.7769178e-10
2.0231003e-10
2.1051314e-10
1.8525275e-10
2.0381351e-10
2.1065294e-10
1.8691344e-10
1.8272278e-10
1.9991608e-10
2.2188648e-10
2.1675729e-10
1.9576754e-10
2.0689081e-10
2.2924796e-10
2.3645084e-10
2.1232844e-10
1.9239555e-10
2.1292241e-10
2.1894678e-10
1.98397e-10
2.2266064e-10
2.0175965e-10
1.8254648e-10
1.9704092e-10
1.9440041e-10
2.1550467e-10
2.2879975e-10
2.0180883e-10
7.6880857e-11
3.1447338e-10
2.6256809e-10
7.4306115e-11
8.1884488e-11
4.2646293e-10
3.1925492e-10
8.0220129e-11
8.6009038e-11
2.2894238e-10
2.2174137e-10
7.7644745e-11
7.2906319e-11
2.0495197e-10
2.08762e-10
6.5895946e-11
1.2189673e-10
1.1605689e-10
1.1248926e-10
1.1932318e-10
1.5572706e-10
1.5762148e-10
1.3922547e-10
1.4180898e-10
1.4049191e-10
1.5073916e-10
1.3810793e-10
1.2912177e-10
9.7089066e-11
1.0454406e-10
1.1148273e-10
1.0458113e-10
6.969978e-11
2.2688479e-10
2.3951442e-10
6.6575149e-11
7.7850659e-11
2.3473281e-10
2.6427415e-10
8.3419269e-11
8.8413781e-11
2.8604064e-10
3.9998716e-10
9.3318267e-11
2.6698805e-10
6.9884258e-11
2.384587e-10
8.0877161e-11
1.1587874e-10
9.4333463e-11
9.6900136e-11
1.1943681e-10
1.0611082e-10
9.7968669e-11
9.3970881e-11
1.0249378e-10
1.359582e-10
1.4226734e-10
1.3342297e-10
1.2755578e-10
1.5553754e-10
1.2605571e-10
1.1877967e-10
1.3951716e-10
4.9669165e-10
7.985396e-11
9.2392156e-11
2.8031111e-10
7.6020937e-11
7.6254559e-11
2.7959008e-10
2.683733e-10
2.1274793e-10
6.9015981e-11
2.161331e-10
6.8063248e-11
7.30252e-11
2.2659832e-10
2.408045e-10
7.7767248e-11
7.9894119e-11
3.0621169e-10
3.4290398e-10
7.6170604e-11
8.5538091e-11
7.4322506e-11
3.7133883e-10
2.9709339e-10
8.4222433e-11
2.3019399e-10
2.1312523e-10
7.2993679e-11
2.2469416e-10
2.1920028e-10
7.1306017e-11
6.9500081e-11
1.5415599e-10
1.6489426e-10
1.4359294e-10
1.4225386e-10
1.2369935e-10
1.183522e-10
1.0521598e-10
1.1372148e-10
1.1575378e-10
1.0413514e-10
1.0488936e-10
1.1544543e-10
1.5501837e-10
1.5406083e-10
1.4413658e-10
1.4394091e-10
1.1140034e-10
1.0281524e-10
1.0930166e-10
1.1698447e-10
9.7837086e-11
9.8128648e-11
1.0582411e-10
1.06466e-10
1.4117164e-10
1.4037864e-10
1.3110154e-10
1.3153181e-10
1.5353661e-10
1.4451158e-10
1.3367764e-10
1.3921815e-10
1.8833787e-10
2.1442976e-10
2.3217751e-10
2.0133972e-10
1.8641429e-10
2.1315943e-10
2.3072283e-10
1.9966053e-10
2.3090111e-10
2.3634887e-10
2.0760706e-10
2.0658353e-10
2.1711118e-10
2.4060189e-10
2.4196344e-10
2.1670526e-10
1.7927043e-10
2.0559528e-10
2.151761e-10
1.8892832e-10
1.6231335e-10
1.7724114e-10
1.8424695e-10
1.6814888e-10
1.8585488e-10
1.8556422e-10
1.7096052e-10
1.7042944e-10
1.9236952e-10
2.1412362e-10
2.1338527e-10
1.9076167e-10
1.9739949e-10
2.2373712e-10
2.2845022e-10
2.0109295e-10
1.905711e-10
2.1496487e-10
2.1762055e-10
1.9254908e-10
2.1579009e-10
2.1354106e-10
1.8876688e-10
1.9209215e-10
1.7719663e-10
1.9359277e-10
1.953022e-10
1.7503225e-10
1.6884752e-10
1.6790527e-10
1.5430756e-10
1.5524917e-10
1.7861989e-10
1.7121294e-10
1.559837e-10
1.6167559e-10
1.7322707e-10
1.9438449e-10
2.0211956e-10
1.7880763e-10
9.8205709e-10
8.6267577e-10
1.0441471e-09
1.03418e-09
8.5624484e-10
1.1367631e-09
1.2044705e-09
1.2736057e-09
1.1314063e-09
2.3754634e-09
1.9587247e-09
2.0782391e-09
2.4092289e-09
2.0761707e-09
1.9767372e-09
4.2520753e-10
9.1341037e-10
9.16612e-10
4.2377902e-10
1.6238795e-09
3.3507513e-09
6.4057403e-10
2.9370877e-09
1.5253849e-09
6.0533119e-10
5.6376168e-10
1.3147567e-09
2.4728678e-09
2.5659418e-09
1.4751856e-09
2.6130051e-09
1.9918013e-09
2.1299306e-09
2.9310287e-09
1.9621761e-09
1.8419613e-09
2.0377779e-09
1.1396715e-09
1.6800538e-09
1.6203629e-09
1.4000678e-09
1.5452576e-09
1.2073553e-09
1.293964e-09
1.0724499e-09
1.6536767e-09
1.7684915e-09
2.3306409e-09
1.3473671e-09
1.2332492e-09
2.9274472e-09
4.0288963e-09
1.3832511e-09
1.7499429e-09
2.9152513e-09
2.5131328e-09
2.3546573e-09
8.9845858e-10
8.1393173e-10
1.0514573e-09
1.0485413e-09
7.610069e-10
2.4506495e-09
2.3369873e-09
9.0364234e-10
8.4388709e-10
7.7378012e-10
1.0897446e-09
1.1555474e-09
2.368439e-09
2.5561674e-09
2.4078674e-09
1.4063213e-09
1.0528705e-09
5.2801249e-09
2.5935676e-09
1.1817577e-09
9.7697e-10
4.3147906e-09
4.6349934e-10
4.7556263e-10
4.7657855e-10
4.8062085e-10
1.071865e-09
1.0071431e-09
1.0878044e-09
9.9006098e-10
1.2587944e-09
1.2341548e-09
1.3200651e-09
1.2384382e-09
1.2148667e-09
1.117842e-09
1.1103725e-09
1.2510381e-09
4.7599339e-10
4.8173818e-10
4.7311109e-10
5.0337943e-10
1.01499e-09
1.0883275e-09
1.0917615e-09
9.8605807e-10
1.1662481e-09
1.1795926e-09
1.1364781e-09
1.1413795e-09
1.2852339e-09
1.2090584e-09
1.1946895e-09
1.2745188e-09
3.2031359e-09
1.9570548e-09
7.7499098e-10
3.5406711e-09
1.9460231e-09
7.9216877e-10
2.214544e-09
2.0176535e-09
1.6770286e-09
1.5030404e-09
1.5346089e-09
1.4615252e-09
1.0742914e-09
1.0085103e-09
1.0382802e-09
1.1041175e-09
9.9998508e-10
1.066011e-09
1.0537764e-09
9.7638109e-10
1.1508635e-09
1.1297819e-09
9.8666404e-10
1.011516e-09
1.176556e-09
1.1769016e-09
9.8971562e-10
1.0220447e-09
3.7385346e-10
3.7317072e-10
2.8060186e-10
2.8428581e-10
3.6596477e-10
3.6279483e-10
2.7685087e-10
2.7711918e-10
2.7743573e-10
2.7441791e-10
3.6497924e-10
3.5984124e-10
2.715663e-10
3.6343333e-10
3.5458215e-10
2.775221e-10
1.0940455e-09
1.1125275e-09
1.020806e-09
1.0254315e-09
1.0613792e-09
1.2035162e-09
1.1806809e-09
1.0364276e-09
1.0377137e-09
1.2130957e-09
1.0746778e-09
1.1021039e-09
9.9854539e-10
1.0168868e-09
2.8234817e-10
2.9210049e-10
3.7804092e-10
3.7308904e-10
2.7819606e-10
3.6554146e-10
3.746825e-10
2.8207023e-10
1.7446327e-09
1.7856132e-09
1.8372826e-09
1.8378134e-09
1.4042551e-09
1.1835791e-09
1.2394305e-09
1.4272242e-09
1.4188346e-09
1.4348548e-09
1.1945247e-09
1.146577e-09
1.4461344e-09
1.5188993e-09
1.3550711e-09
1.4090082e-09
1.4130171e-09
1.4235711e-09
1.4998229e-09
1.495318e-09
1.6146817e-09
1.6186828e-09
1.6640388e-09
1.7070128e-09
1.3548064e-09
1.1604567e-09
1.2236538e-09
1.4111128e-09
1.4161217e-09
1.1602954e-09
1.1788418e-09
1.3933909e-09
1.4270157e-09
1.4884918e-09
1.3875116e-09
1.3126425e-09
1.4759987e-09
1.4061317e-09
1.3842635e-09
1.4851109e-09
1.2522075e-09
1.2098891e-09
1.0155974e-09
1.0361378e-09
1.0591716e-09
1.0699569e-09
1.125805e-09
1.1250136e-09
1.0786049e-09
9.8304084e-10
9.9099797e-10
1.0578556e-09
1.1520188e-09
1.1250224e-09
9.5419992e-10
1.0081577e-09
2.9052725e-10
2.8677373e-10
3.7335383e-10
3.7357914e-10
5.6811365e-10
5.1514578e-10
5.1842756e-10
5.5518405e-10
5.1458194e-10
5.7151947e-10
4.9638738e-10
5.6474425e-10
2.7990953e-10
3.5997305e-10
3.6194048e-10
2.8051834e-10
2.7372768e-10
2.6964053e-10
3.5177742e-10
3.5169657e-10
5.566805e-10
5.0231147e-10
5.086629e-10
5.5000328e-10
5.0793635e-10
5.5695176e-10
5.358572e-10
4.7600341e-10
2.7128663e-10
3.5190193e-10
3.5004196e-10
2.7518398e-10
9.2000259e-10
8.2355002e-10
8.2289448e-10
9.0065422e-10
6.9265037e-10
6.8714838e-10
7.1339515e-10
7.02831e-10
7.0057453e-10
6.7928431e-10
6.6524346e-10
6.7462362e-10
7.1974337e-10
7.0854617e-10
7.3035884e-10
7.3053605e-10
8.2858521e-10
8.9982888e-10
9.122125e-10
8.2719689e-10
8.391662e-10
8.4884198e-10
9.5063445e-10
9.3782292e-10
7.1712836e-10
6.945347e-10
6.9496504e-10
7.1025613e-10
1.111748e-09
1.0493543e-09
1.0854472e-09
1.1189389e-09
1.073387e-09
9.9952916e-10
1.0207367e-09
1.1042182e-09
1.1776428e-09
1.0325409e-09
1.0001379e-09
1.1514145e-09
1.238174e-09
1.0844203e-09
1.0736423e-09
1.2470996e-09
2.9011928e-10
2.8620405e-10
3.7658687e-10
3.7960605e-10
5.9411256e-10
5.9019394e-10
5.4266105e-10
5.359281e-10
2.8296754e-10
3.7114276e-10
3.7505176e-10
2.9053257e-10
3.5651675e-10
3.6301865e-10
2.7846507e-10
2.7571751e-10
2.7602315e-10
3.6759276e-10
3.5685814e-10
2.851421e-10
3.8912584e-09
4.0313609e-09
1.9735626e-09
1.8672034e-09
1.8223066e-09
1.7588388e-09
1.4390648e-09
1.4167688e-09
1.4605998e-09
1.1973701e-09
1.2093757e-09
1.4350238e-09
1.8213431e-09
1.847678e-09
1.6988298e-09
1.8045723e-09
1.3858834e-09
1.1069372e-09
1.1470325e-09
1.364223e-09
1.4834764e-09
1.2495598e-09
1.2954468e-09
1.4879589e-09
1.3649564e-09
1.450275e-09
1.4072156e-09
1.2905799e-09
1.604141e-09
1.5615919e-09
3.8210326e-09
3.3362539e-09
2.021663e-10
4.7257771e-10
4.6017936e-10
2.0723492e-10
5.7257347e-10
5.4695844e-10
3.3113716e-10
3.4411582e-10
4.7087914e-10
4.4870415e-10
2.0264986e-10
2.0885064e-10
3.0466112e-10
2.9932901e-10
5.668426e-10
6.3668995e-10
3.5181922e-10
3.7072743e-10
1.1431013e-09
1.1431764e-09
1.2125896e-09
1.2196439e-09
2.0824746e-10
2.2214714e-10
2.255752e-10
2.0940615e-10
1.9384792e-10
2.0969995e-10
2.177307e-10
1.9757421e-10
2.3242359e-10
2.3174538e-10
2.0918995e-10
2.1132756e-10
2.2737185e-10
2.2689415e-10
2.0370937e-10
2.0590922e-10
2.1809403e-10
2.2969294e-10
2.0706856e-10
2.004368e-10
1.13776e-09
1.0079992e-09
1.1326758e-09
1.2349142e-09
1.1087583e-09
1.1278416e-09
1.079109e-09
1.1479584e-09
1.214453e-09
2.2712916e-10
2.296647e-10
1.4690294e-10
8.1945725e-11
8.2709915e-11
7.8159806e-11
8.0730801e-11
7.3382099e-11
8.2967935e-11
8.0251066e-11
7.4793045e-11
7.6847847e-11
7.9419533e-11
7.7529461e-11
7.7262054e-11
1.5478071e-10
1.5481086e-10
7.675763e-11
8.014168e-11
7.8070089e-11
7.619179e-11
7.528378e-11
7.9189443e-11
7.8557248e-11
7.4893963e-11
1.6504214e-10
1.5119357e-10
2.2980233e-10
2.2836805e-10
2.2582528e-10
2.2539569e-10
3.5457778e-10
2.9379751e-10
1.8383508e-10
1.7559147e-10
2.4095458e-10
3.3688401e-10
4.0883834e-10
3.1413093e-10
1.7926949e-10
2.0207037e-10
4.2146598e-10
2.2699389e-10
1.7897644e-10
1.9721469e-10
2.5743203e-10
2.4297892e-10
3.4771005e-10
3.4802403e-10
3.2544108e-10
2.2938234e-10
2.588597e-10
3.4168467e-10
6.1390649e-10
5.0464651e-10
5.0837836e-10
6.0347996e-10
4.9607687e-10
4.6486302e-10
5.494e-10
5.9340671e-10
8.062874e-10
8.7728945e-10
8.2506552e-10
7.3640138e-10
8.00865e-10
8.8664388e-10
5.7201325e-10
4.712054e-10
4.989887e-10
5.9919907e-10
5.4778299e-10
5.0284661e-10
5.9212806e-10
6.3344656e-10
8.0601212e-10
7.1339856e-10
7.7956533e-10
8.8738111e-10
8.7457256e-10
7.6625536e-10
8.2861176e-10
9.0447023e-10
4.2695143e-10
3.145973e-10
1.8367255e-10
2.0289122e-10
3.8146216e-10
2.9577633e-10
1.8301289e-10
2.1524546e-10
3.2039155e-10
2.3229904e-10
2.6765363e-10
3.4358247e-10
3.3489825e-10
2.3921422e-10
2.7387392e-10
3.7718379e-10
1.139433e-10
1.4193195e-10
1.2272953e-10
5.9744409e-11
5.9576982e-11
1.1725042e-10
1.2965019e-10
6.1293988e-11
6.2508233e-11
1.2172264e-10
1.0989122e-10
1.240556e-10
1.2583757e-10
1.2237433e-10
1.2670178e-10
1.2153926e-10
1.3881088e-10
1.1587859e-10
1.2024678e-10
1.2438643e-10
6.2824677e-11
6.0904534e-11
6.1191395e-11
6.1693218e-11
2.4816985e-10
2.4554974e-10
2.6847647e-10
2.4480606e-10
2.4980072e-10
2.4247878e-10
2.3939855e-10
2.4335979e-10
1.1516763e-10
1.2214535e-10
1.1886059e-10
1.2125019e-10
1.2240786e-10
1.151492e-10
1.2316085e-10
1.1751613e-10
1.4263921e-10
1.1644843e-10
1.1946567e-10
1.1536395e-10
1.3154595e-10
1.1716505e-10
1.216807e-10
1.283548e-10
2.7490165e-10
2.726319e-10
2.9286395e-10
2.6399074e-10
2.5017774e-10
2.4695543e-10
2.2329134e-10
2.2695454e-10