/*--------------------------------*- C++ -*----------------------------------*\
  =========                 |
  \\      /  F ield         | OpenFOAM: The Open Source CFD Toolbox
   \\    /   O peration     | Website:  https://openfoam.org
    \\  /    A nd           | Version:  7
     \\/     M anipulation  |
\*---------------------------------------------------------------------------*/
FoamFile
{
    version     2.0;
    format      ascii;
    class       volVectorField;
    location    "1000";
    object      U;
}
// * * * * * * * * * * * * * * * * * * * * * * * * * * * * * * * * * * * * * //

dimensions      [0 1 -1 0 0 0 0];

internalField   nonuniform List<vector> 
34158
(
(-3.8664406e+08 7221365.3 -37749562)
(-3.9625331e+08 -34033117 -37357500)
(-3.9310987e+08 -13172631 -33236724)
(-3.9374945e+08 -59012258 -30730854)
(-3.8482319e+08 -22413576 9518.9723)
(-3.7621952e+08 -1824698.8 -2586530.8)
(-4.1941077e+08 -11443470 -19425172)
(-4.2383381e+08 -17234851 -18937127)
(-3.4845478e+08 -45136544 -16094436)
(-3.6377699e+08 -27337690 -12905022)
(-3.814382e+08 -50961990 1482944.2)
(-3.8491363e+08 -23124192 2146791.4)
(-4.2292831e+08 -29995998 -16724800)
(-4.1594574e+08 -40127583 -14329542)
(-3.7344193e+08 -13549739 -154071.63)
(-3.9110389e+08 -15865979 -6068908.5)
(-3.6827898e+08 -5736590 2048602.8)
(-3.8840284e+08 -9552187.9 -7304663.3)
(-4.1897278e+08 -12866413 -6524827.6)
(-4.2112374e+08 -16317519 -6306889.5)
(-3.8767054e+08 -3825930.8 1258036)
(-3.8651352e+08 -2662849 1875269.3)
(-3.5375807e+08 -52917701 -19354457)
(-3.4691264e+08 -36710806 -9108817.8)
(-2.9138673e+08 -33095878 -60831166)
(-3.9319939e+08 -35837175 45549842)
(-3.9455604e+08 -45603609 51519257)
(-2.9589082e+08 -46923615 -58586748)
(-3.0650421e+08 -29376901 -15633153)
(-3.5480219e+08 -15607792 3087153.4)
(-3.5256154e+08 -29037338 6648791)
(-3.0689247e+08 -22650831 -12201930)
(-3.0657021e+08 -24017147 -15456914)
(-3.5449758e+08 -10580093 3702827.1)
(-3.2676918e+08 -1504250.7 32690747)
(-3.2767713e+08 -33884317 33308467)
(-4.0406582e+08 -62663687 -11436727)
(-4.0984555e+08 -53104381 -12870597)
(-3.6683799e+08 -45154311 3758368.3)
(-3.8349477e+08 -39842409 -3317789.7)
(-3.705854e+08 -25670880 1807830.2)
(-3.8847308e+08 -28661709 -3526530)
(-4.177089e+08 -29468663 -3523582.6)
(-4.1136063e+08 -37073133 -2024297.1)
(-4.3428192e+08 -35528585 -13279980)
(-4.3872461e+08 -29921596 -15674582)
(-3.5694145e+08 -12764339 5741333.5)
(-3.685541e+08 -14878224 2972445.8)
(-3.9318225e+08 -14863329 52225.261)
(-3.2808443e+08 -3181549.4 10338810)
(-3.6690926e+08 -6700360.7 3824332.9)
(-3.9263539e+08 -10818992 -239664.36)
(-4.1272223e+08 -15004114 4003391.5)
(-4.1405527e+08 -15881886 4396203.9)
(-3.941461e+08 -8063917.7 3690265.8)
(-3.9688272e+08 -9217916.8 3852224.7)
(-3.8115048e+08 -1842825.6 3915037.8)
(-3.7500045e+08 -922608.18 4559216.7)
(-3.8208619e+08 -10300265 -5285166)
(-3.8026542e+08 -4279880.5 -3988919)
(-4.2213713e+08 -50086625 -48426952)
(-3.4985963e+08 -46361747 -11024855)
(-3.8660742e+08 -41856683 45900648)
(-2.8910001e+08 -53354870 -55015949)
(-2.8583241e+08 -39578467 -57242553)
(-3.824993e+08 -51013601 50546638)
(-3.1015851e+08 -36322707 -18670596)
(-3.576179e+08 -24804486 2529886.7)
(-3.4814664e+08 -38721826 5791052)
(-3.0390288e+08 -31387750 -12567216)
(-3.0496918e+08 -31959127 -15326024)
(-3.5143133e+08 -20573057 2622530)
(-3.5118902e+08 -35370139 7556134)
(-3.0696893e+08 -26215043 -11100200)
(-3.1229199e+08 -28048489 -13412768)
(-3.3235258e+08 -28395515 33883364)
(-3.3205288e+08 -35736941 34994880)
(-2.4593234e+08 -32828197 -35140592)
(-2.4542963e+08 -45536013 -35281568)
(-2.4559712e+08 -20736656 -37036035)
(-3.4288335e+08 -23710392 32679037)
(-3.1471526e+08 -53367864 -13083221)
(-2.913551e+08 -18069586 -23247141)
(-2.899685e+08 -22016728 -25682398)
(-3.2728262e+08 -10286035 -8681108.4)
(-3.2624528e+08 -19741757 -7320168.3)
(-3.0749716e+08 -11737485 -39237626)
(-3.0733901e+08 -15432535 -41644236)
(-3.1928761e+08 -16085321 -15878851)
(-3.0851773e+08 -9158940.4 -40227325)
(-3.0789057e+08 -13803066 -42132013)
(-3.2482746e+08 -6813983.4 -15765544)
(-3.2299208e+08 -14219319 -14813017)
(-2.9182406e+08 -18728467 -25117168)
(-3.2778182e+08 -8855222.6 -8316010.6)
(-2.9105215e+08 -14002253 -22651117)
(-3.2609995e+08 -18162064 -6097137.7)
(-2.9008827e+08 -12160548 -23682100)
(-2.9069364e+08 -17252727 -24895186)
(-3.2736974e+08 -6582245.2 -8403927.2)
(-3.2659181e+08 -14304695 -7937043)
(-3.2117295e+08 -5925637.5 -17438261)
(-3.0839263e+08 -11245765 -42456113)
(-3.2140591e+08 -10739608 -16649701)
(-3.0835606e+08 -5394203.5 -41747482)
(-3.2620858e+08 -8118789.7 30746708)
(-3.2856058e+08 -39359932 31688334)
(-4.1318805e+08 -11785112 -1864719.6)
(-4.0153095e+08 -13190814 -2541617)
(-3.8043094e+08 -20557344 -14929786)
(-3.8024405e+08 -2180446.3 -14017476)
(-3.7177291e+08 -63917286 -1587725.7)
(-3.7831821e+08 -52479723 -1552272.5)
(-4.0029172e+08 -56887436 713340.01)
(-4.0458325e+08 -49520342 82133.018)
(-4.2850774e+08 -47281537 -11210358)
(-4.2085175e+08 -53179524 -10418075)
(-3.7912773e+08 -41437809 7997159.4)
(-3.5870482e+08 -41000594 7777049.3)
(-3.8436171e+08 -36298492 3016117.4)
(-3.766627e+08 -24622610 6092922.7)
(-3.6159178e+08 -26896903 6763357.8)
(-3.8894823e+08 -27592936 2879930.8)
(-4.053766e+08 -30036837 7354366.1)
(-4.0025613e+08 -34476773 8118072.4)
(-4.2625722e+08 -32213501 5535025.9)
(-3.5219876e+08 -19716340 19996600)
(-3.5309045e+08 -26867466 22555101)
(-4.2794039e+08 -29060264 4236872.8)
(-3.5452852e+08 -13641777 20076786)
(-3.5475608e+08 -21225907 22907687)
(-3.6206166e+08 -13652558 6151594.8)
(-3.6972193e+08 -10959955 6615153.8)
(-3.7046773e+08 -14743243 6283937.3)
(-3.8930669e+08 -14784884 5264008.6)
(-3.4901296e+08 -3644015.9 8450528.5)
(-3.2626956e+08 -4011132.4 8258034.7)
(-3.6702181e+08 -7873814.2 5315014)
(-3.8726382e+08 -13182051 5684657.4)
(-3.9921628e+08 -17389227 5407884.8)
(-3.9760637e+08 -20325979 6052889.2)
(-3.8348067e+08 -8117347.4 5575644.1)
(-3.8116088e+08 -6118339.7 6530761.2)
(-3.8632386e+08 -9462617.8 -2836231.4)
(-3.8531717e+08 -15887503 -2864178.6)
(-3.6043678e+08 -676090.88 12135515)
(-3.8728576e+08 -7620036.7 2686679.7)
(-3.4774042e+08 3095755.2 12811888)
(-3.7761012e+08 -3460737.5 4091207.7)
(-3.7522276e+08 -21408887 -27754329)
(-3.7253257e+08 -21286143 -26366476)
(-4.2119732e+08 -50187452 9518540.8)
(-4.1368682e+08 -56167606 -45900963)
(-3.0149409e+08 -16747597 -33821051)
(-3.7174164e+08 -61424137 52078059)
(-2.8131637e+08 -60768679 -51394945)
(-3.0641282e+08 -39754875 -18040657)
(-3.531086e+08 -26672499 2347879.4)
(-3.5112146e+08 -43120046 6947232)
(-3.075813e+08 -34980434 -13184960)
(-3.3531778e+08 -35567285 31839655)
(-2.432167e+08 -40014649 -34319965)
(-2.4150808e+08 -51634172 -34067971)
(-3.3238841e+08 -41952166 32441023)
(-3.0760039e+08 -59920389 -10214862)
(-3.0782123e+08 -34582994 -11498264)
(-3.3277912e+08 -29673712 32635611)
(-3.291894e+08 -35990040 36087085)
(-2.4305279e+08 -26671653 -34257503)
(-2.4511882e+08 -37368770 -31242856)
(-3.2172739e+08 -18125199 -8365354.8)
(-2.8615348e+08 -29154337 -25863264)
(-2.9134095e+08 -23917817 -24790298)
(-3.2787828e+08 -26543983 -6563447.1)
(-3.1629779e+08 -14234919 -16315269)
(-3.0627468e+08 -19840684 -39583365)
(-3.0481991e+08 -18071290 -36745597)
(-3.1427074e+08 -22053554 -15142041)
(-3.2106419e+08 -12490200 -15991656)
(-3.0504581e+08 -19881081 -42551541)
(-3.055406e+08 -14860070 -39342958)
(-3.2019036e+08 -18643863 -14823886)
(-2.9018825e+08 -22022425 -23391598)
(-2.8911901e+08 -25740326 -26547475)
(-3.2444103e+08 -15875297 -9927269.2)
(-3.2408315e+08 -25375545 -7453634.2)
(-3.265471e+08 -13438315 -7675737.8)
(-2.9063846e+08 -24519590 -25505395)
(-2.9157891e+08 -19933962 -23726346)
(-3.252507e+08 -22251276 -7825336.7)
(-3.1323981e+08 -16510606 -39698218)
(-3.2009857e+08 -11279636 -16841306)
(-3.0612487e+08 -13301032 -39911691)
(-3.1760749e+08 -18068771 -16726476)
(-3.1428879e+08 -13418063 -36730476)
(-3.0623292e+08 -15522724 -41714207)
(-3.2113725e+08 -9062273.2 -16528024)
(-2.9089858e+08 -21127343 -24561375)
(-3.2603296e+08 -12366048 -7269127.5)
(-3.2751469e+08 -23338416 -5279691.6)
(-2.9192313e+08 -18385201 -22759298)
(-3.1396613e+08 -26155019 -4993007.7)
(-2.7925419e+08 -27626384 -7299560.8)
(-2.7643028e+08 -49135544 -7456478.8)
(-3.1164118e+08 -22926160 15652539)
(-3.1224729e+08 -27473920 15267148)
(-2.2909585e+08 -30464789 -33128720)
(-2.2771699e+08 -38940337 -33907993)
(-3.1528939e+08 -18431267 14335014)
(-2.3074219e+08 -19200082 -34051122)
(-2.3169022e+08 -27741174 -32622756)
(-3.1322948e+08 -22692055 15966468)
(-2.7777254e+08 -17765697 -8968940.8)
(-3.1397057e+08 -18856610 14921542)
(-3.1502552e+08 -24703746 16111126)
(-2.3181694e+08 -22528635 -34425635)
(-2.3109159e+08 -32372963 -34000187)
(-3.1496074e+08 -54380743 -6321320.1)
(-2.7825747e+08 -13114236 -41915829)
(-2.7803064e+08 -16378664 -43390272)
(-3.0283135e+08 -14684084 -19556948)
(-3.04118e+08 -8202626 -19954115)
(-2.7523743e+08 -15309060 -42883802)
(-2.7460163e+08 -17197166 -44248277)
(-2.9988477e+08 -15938209 -20513905)
(-3.0147513e+08 -8401377.1 -20341528)
(-2.8395817e+08 -11104620 -37931862)
(-2.9428105e+08 -7613782.3 -22834996)
(-2.9483773e+08 -11686094 -22246220)
(-2.8416402e+08 -9921204.6 -36998755)
(-2.8640833e+08 -10975416 -38018317)
(-2.9655849e+08 -6388950.7 -22909952)
(-2.9671323e+08 -10314989 -22084873)
(-2.8681544e+08 -8738617.6 -36836192)
(-2.826197e+08 -5408845.8 -32056679)
(-2.8168557e+08 -8277656.8 -34620886)
(-2.8856022e+08 -4642330.1 -20763745)
(-2.8920526e+08 -7509916.6 -19010141)
(-2.8110285e+08 -6079390.5 -31772330)
(-2.798438e+08 -9172651.8 -34025907)
(-2.8689915e+08 -6255459.7 -20510478)
(-2.8758104e+08 -8561379.6 -19082947)
(-2.733363e+08 -3904441.5 -29296207)
(-2.749291e+08 -3060714.1 -29613171)
(-2.7427738e+08 -7021617.9 -31490530)
(-2.801074e+08 -3691482.5 -19837261)
(-2.8070756e+08 -5764609.4 -18309067)
(-2.8290476e+08 -4615433.7 -34406561)
(-2.8349455e+08 -6168529.9 -35502014)
(-2.903932e+08 -3014039.7 -19950571)
(-2.9016786e+08 -7192604.7 -19030803)
(-2.8350166e+08 -3256292.1 -32984563)
(-2.8240824e+08 -7354024.3 -35213306)
(-2.8988061e+08 -3611245.5 -20014794)
(-2.9122418e+08 -5859420.3 -15656982)
(-2.808315e+08 -3138525.8 -19927401)
(-2.7481071e+08 -5800211.5 -31549275)
(-2.7499181e+08 -1349070.9 -29410842)
(-2.8096781e+08 -5039616.5 -18574980)
(-2.8030226e+08 -2418634.2 -20219002)
(-2.7473616e+08 -5807954.5 -31985552)
(-2.7523273e+08 -3045039 -30555481)
(-2.8091406e+08 -5645205.6 -19086762)
(-2.7934375e+08 -11388032 -41948732)
(-2.7829865e+08 -15718289 -42367971)
(-3.0336444e+08 -7767207.7 -19923766)
(-3.0380878e+08 -12962260 -19723325)
(-2.8708724e+08 -9846372.2 -38160943)
(-2.9728435e+08 -5544460.9 -23231664)
(-2.9776457e+08 -8486120.6 -22812794)
(-2.8739244e+08 -6321345.5 -37739147)
(-3.048652e+08 -6017744.7 -19466933)
(-2.7917223e+08 -12516358 -42532426)
(-2.7871434e+08 -10076369 -41521620)
(-3.0373869e+08 -12940622 -19330439)
(-2.8773672e+08 -6963508.9 -37476160)
(-2.9030536e+08 -7899565 -37329426)
(-2.9920592e+08 -3817564.6 -22929006)
(-2.9778727e+08 -9330101.7 -22572317)
(-2.765964e+08 -6531083.1 -41294698)
(-2.7831817e+08 -10909781 -42387510)
(-3.0454457e+08 -4231872.8 -19503440)
(-3.0232694e+08 -8838539.6 -19160052)
(-2.769786e+08 -9851715.5 -41957660)
(-2.77033e+08 -12762562 -42844431)
(-3.0378771e+08 -4668525.7 -19711387)
(-3.023048e+08 -11508632 -19669263)
(-2.9743157e+08 -3917491.1 -22691542)
(-2.8688682e+08 -7601859.7 -38046581)
(-2.8630201e+08 -5195512.2 -37619924)
(-2.9714601e+08 -7568209.1 -22695865)
(-2.8705598e+08 -2535308.5 -37232955)
(-2.8738716e+08 -6437540.6 -37862751)
(-2.9777306e+08 -2349527.2 -22960827)
(-2.9756542e+08 -5291256.8 -22370255)
(-2.8265536e+08 -1798539.2 -15215682)
(-2.7565859e+08 -4983302.2 -29351416)
(-2.7421981e+08 -869227.09 -31943229)
(-2.803111e+08 -4477271.9 -19046543)
(-2.9011333e+08 -2829260 -20015981)
(-2.8383963e+08 -5750288.2 -33429971)
(-2.8243762e+08 -2631907.9 -34566695)
(-2.8924079e+08 -5424326.2 -20653209)
(-2.8146171e+08 -714392.94 -15515309)
(-2.7478323e+08 -4518244.2 -31474679)
(-2.734923e+08 76816.861 -31897149)
(-2.7963643e+08 -2869723.3 -18654664)
(-2.8962559e+08 -1656232.9 -21186986)
(-2.8279057e+08 -4910726.5 -35043041)
(-2.8225429e+08 -1353990.4 -34435038)
(-2.8882968e+08 -4045791.2 -20635451)
(-4.596153e+08 -48450275 46726884)
(-3.2253193e+08 -16850246 29824114)
(-3.2647593e+08 -46730550 30643073)
(-4.0371943e+08 -18568902 -3437533.4)
(-4.013557e+08 -19649365 -2372978)
(-3.8078084e+08 -26422836 -13412051)
(-3.8224655e+08 -7989068 -13233301)
(-3.6636744e+08 -13320054 -2070412.4)
(-3.9414894e+08 -14995446 1280210)
(-3.4399758e+08 -10993254 -2764480.5)
(-3.7830731e+08 -2875484.9 1909970.4)
(-3.939352e+08 -66703427 242265.51)
(-3.8555474e+08 -71700399 1591037.9)
(-3.4901363e+08 -67270889 14951827)
(-3.7483412e+08 -57166854 5873978.7)
(-3.5707682e+08 -53245989 10313728)
(-3.7975861e+08 -48155560 6216846.4)
(-3.9103261e+08 -51493063 10717449)
(-3.9443913e+08 -47111694 10456956)
(-4.2028387e+08 -44482232 7294817.1)
(-3.469621e+08 -32539555 24113566)
(-3.5154691e+08 -25669000 18265467)
(-4.1504107e+08 -47604831 8184048.2)
(-3.4839872e+08 -31150230 14836622)
(-3.4101526e+08 -39656006 23556810)
(-3.8764502e+08 -40874168 7627432.3)
(-3.6503395e+08 -34534993 10940993)
(-3.6094927e+08 -37076408 11864411)
(-3.7717629e+08 -33003922 9201628.3)
(-3.8302979e+08 -22522497 7024140.3)
(-3.7986218e+08 -21531207 9363992.9)
(-3.6336206e+08 -26205762 11350942)
(-3.7803552e+08 -27595598 8833349.4)
(-3.8633847e+08 -31493252 7774159.8)
(-3.8363588e+08 -35390737 8191790)
(-4.1364245e+08 -32936440 6614830.7)
(-3.5449256e+08 -16511486 43775919)
(-3.5981787e+08 -25258200 42925111)
(-3.70353e+08 -15505779 -12078082)
(-3.6365163e+08 -29249463 -12389710)
(-4.167107e+08 -29771897 5515239.7)
(-3.5969866e+08 -20709178 43673770)
(-3.5727351e+08 -11164063 43478088)
(-3.6697589e+08 -24041155 -14114854)
(-3.7184859e+08 -10355629 -12669010)
(-3.6863935e+08 -10348358 7293123.3)
(-3.5880282e+08 -7968526 9969820)
(-3.6416773e+08 -15252568 10297447)
(-3.8824322e+08 -19220046 6044345)
(-3.5015348e+08 -3533518.8 7859916.7)
(-3.336876e+08 -3910776.5 8903951.3)
(-3.5760283e+08 -10356238 9328728)
(-3.8634026e+08 -16408983 6668155)
(-3.8513895e+08 -19697689 -1028406)
(-3.8197194e+08 -26388169 -1452748.4)
(-3.5666817e+08 -8851894.2 11717142)
(-3.8664704e+08 -14043446 2868542.1)
(-3.5471619e+08 -3951817.8 13293660)
(-3.8335739e+08 -8048481 4450358.3)
(-2.762536e+08 2606717.6 13852684)
(-3.6265669e+08 -5370911.5 9219155.1)
(-2.7169012e+08 6897056.1 14244499)
(-3.469578e+08 -2958099.3 11705420)
(-3.8023794e+08 -15278964 -5175859.1)
(-3.7674647e+08 -15553397 -2398922.3)
(-3.6532543e+08 -25897498 -24338964)
(-3.7137682e+08 -25248258 -27045164)
(-3.78559e+08 -19958689 -6851567.4)
(-3.0464992e+08 -14123295 -7211351.8)
(-3.0496208e+08 -13190017 -8123869.2)
(-2.9900465e+08 -20003999 -39222890)
(-3.0012752e+08 -8947567.3 -37584410)
(-3.7285916e+08 -20404705 32990.147)
(-3.0090254e+08 -14008617 -2817393.9)
(-3.0359027e+08 -10711772 -6847967.4)
(-3.5990952e+08 -32125104 -25802644)
(-3.6182434e+08 -30856147 -24546156)
(-3.3388495e+08 -55002115 49262078)
(-3.3308254e+08 -24583798 48163829)
(-4.1368671e+08 -56354924 9501624.6)
(-4.0454212e+08 -61433138 -43334676)
(-2.9813168e+08 -15356308 -30395605)
(-2.7138417e+08 -6374759.6 -11626230)
(-2.6538178e+08 -8250204.6 -23227706)
(-2.7055778e+08 -9710835.4 -11624607)
(-2.648746e+08 -6450700.8 -25326894)
(-2.6280716e+08 -8619023.2 -26476153)
(-2.6362141e+08 -6237453.6 -25588673)
(-2.9800211e+08 -16169025 -33864711)
(-2.9618546e+08 -13728449 -32570984)
(-3.3513798e+08 -40284376 32037580)
(-3.3011165e+08 -45156542 35161226)
(-2.3865048e+08 -36357913 -34181857)
(-2.4175474e+08 -45860939 -31029488)
(-3.0224973e+08 -66698241 -8652135.9)
(-2.9381784e+08 -26782775 -22809597)
(-2.8913374e+08 -26613958 -24114441)
(-2.887702e+08 -30161643 -26244636)
(-3.2544608e+08 -18033917 -7990104.4)
(-3.2461058e+08 -27834455 -6444077.4)
(-3.0262878e+08 -19815997 -38984381)
(-3.0220284e+08 -16917062 -36675932)
(-3.1230026e+08 -14539632 -16021825)
(-3.1134029e+08 -21265707 -15089916)
(-3.0329876e+08 -19632327 -38607081)
(-3.0334689e+08 -18925011 -35678645)
(-3.1513495e+08 -13210039 -14248901)
(-3.1421345e+08 -22497973 -12276384)
(-2.8946879e+08 -25757177 -23507106)
(-2.8936364e+08 -27740378 -25856837)
(-3.2738846e+08 -17986207 -7277550.4)
(-3.2652968e+08 -29856109 -5321472.7)
(-2.269221e+08 -38621723 -33538292)
(-3.0983423e+08 -30573662 13626042)
(-3.1086232e+08 -35396883 13205167)
(-2.2519293e+08 -47189458 -34249010)
(-2.767373e+08 -35161973 -7114567.8)
(-2.7227219e+08 -56268216 -6752263.1)
(-3.1239096e+08 -25725029 12815696)
(-3.09494e+08 -30604744 14239271)
(-2.2934951e+08 -27260699 -34072276)
(-2.29531e+08 -35748625 -32555166)
(-3.0957864e+08 -61715026 -4893138.1)
(-2.7473247e+08 -24284871 -7168681.8)
(-2.7682797e+08 -43281590 -5852632.7)
(-3.0940364e+08 -33373465 -4143746.3)
(-3.1240725e+08 -25498894 13411037)
(-3.1204764e+08 -30562567 13742726)
(-2.3151843e+08 -29683143 -33716623)
(-2.3014254e+08 -39090329 -33280924)
(-3.1253451e+08 -26380678 16776962)
(-2.2957527e+08 -19355761 -33496194)
(-3.1569186e+08 -21890669 14353727)
(-2.3133798e+08 -26122577 -31119657)
(-2.9482164e+08 -10472303 -19008623)
(-2.8262407e+08 -15107915 -35885590)
(-2.8165689e+08 -13121504 -35352929)
(-2.9419911e+08 -14484224 -19815850)
(-2.9636612e+08 -15264683 -20644532)
(-2.7066938e+08 -23675514 -44156612)
(-2.7319538e+08 -20893704 -42579933)
(-2.9765002e+08 -19250921 -20413406)
(-2.7585608e+08 -19766882 -41185449)
(-2.7434191e+08 -22183162 -43098013)
(-2.9805506e+08 -12919835 -20656001)
(-2.9883963e+08 -19675137 -19465642)
(-2.9059384e+08 -9775035.5 -22143759)
(-2.8067754e+08 -14331754 -37006416)
(-2.8214528e+08 -13400343 -34792562)
(-2.9114836e+08 -14682879 -21030517)
(-2.7652512e+08 -6693284.9 -14814308)
(-2.7025562e+08 -9475459.4 -27898787)
(-2.7069072e+08 -6672505.1 -28009000)
(-2.7660627e+08 -10104951 -16605179)
(-2.8411111e+08 -8080394.9 -18977026)
(-2.7853704e+08 -10617868 -29591101)
(-2.7865034e+08 -9368328.1 -30483692)
(-2.8463773e+08 -11300420 -18713441)
(-2.7676577e+08 -9964822.9 -30862094)
(-2.7686121e+08 -10912001 -31624834)
(-2.8290946e+08 -7584834.5 -19231977)
(-2.8320106e+08 -11908701 -18322111)
(-2.7409662e+08 -6484773.8 -18901446)
(-2.687543e+08 -9458021.5 -29669465)
(-2.6943385e+08 -7345029.6 -27997005)
(-2.7469139e+08 -9728776 -17780729)
(-2.8072066e+08 -6169419 -15114066)
(-2.7295314e+08 -8490119.3 -26536282)
(-2.7296031e+08 -4685244.8 -29976180)
(-2.7925614e+08 -8362979.6 -16105792)
(-2.8771689e+08 -7379809.7 -19435640)
(-2.8034652e+08 -10810867 -33899761)
(-2.807403e+08 -6763303.4 -33651247)
(-2.8761339e+08 -9016098.2 -19544741)
(-2.8003378e+08 -7293565.9 -33873533)
(-2.8093933e+08 -8657720.5 -32700073)
(-2.8744553e+08 -5135124.5 -16262328)
(-2.8732208e+08 -9813340.7 -19298282)
(-2.7786903e+08 -5578331.1 -18846699)
(-2.7247149e+08 -7980315.2 -29158602)
(-2.7318637e+08 -5933103.2 -29490515)
(-2.785061e+08 -8816977.5 -18686465)
(-2.7724888e+08 -16586111 -42238402)
(-2.7780093e+08 -18280330 -43110138)
(-3.0272108e+08 -10789893 -20286795)
(-3.0098098e+08 -18576502 -20183808)
(-2.7754936e+08 -17821723 -42231098)
(-2.7698205e+08 -21638028 -43072210)
(-3.0182103e+08 -12192172 -20602285)
(-3.0085939e+08 -17835982 -20762415)
(-2.853535e+08 -10681075 -36981878)
(-2.852e+08 -13880920 -37240701)
(-2.9466062e+08 -9660217.9 -22986369)
(-2.9502584e+08 -12342922 -23025424)
(-2.9460798e+08 -7229860.3 -22917084)
(-2.8505741e+08 -11870055 -37740480)
(-2.8467092e+08 -11726313 -37205597)
(-2.9395256e+08 -12504139 -23164987)
(-3.0066777e+08 -6959261.2 -19066509)
(-2.8806543e+08 -11464466 -36310526)
(-2.8598945e+08 -9799061.4 -36503369)
(-2.9760281e+08 -11791867 -20620319)
(-3.0215165e+08 -10985797 -20015393)
(-2.7676986e+08 -19327239 -43301352)
(-2.7787587e+08 -16217896 -42016427)
(-3.018009e+08 -16429193 -20074978)
(-2.7876826e+08 -13826308 -41837326)
(-2.7905332e+08 -16942296 -43258065)
(-3.0420027e+08 -9361842.6 -20240881)
(-3.0271597e+08 -15748214 -19681283)
(-2.9589011e+08 -7104193.1 -22800219)
(-2.865132e+08 -11090790 -37779431)
(-2.8640574e+08 -8925800.5 -36819778)
(-2.9551073e+08 -10812219 -22513559)
(-2.8844748e+08 -5597294.7 -19153850)
(-2.8342467e+08 -7984404.9 -30211996)
(-2.8829872e+08 -9464275.6 -19330184)
(-2.8210821e+08 -6967138 -32148649)
(-2.7865932e+08 -5916843.1 -18838848)
(-2.7402552e+08 -7811956.8 -28712893)
(-2.742166e+08 -4892356.8 -28051941)
(-2.7913093e+08 -8732741.5 -18081772)
(-2.8235739e+08 -9114659.8 -32862029)
(-2.8768998e+08 -6071989.2 -20132925)
(-2.8702557e+08 -8860962.7 -20155165)
(-2.8078639e+08 -6314621 -33438502)
(-2.7297213e+08 -4413424.9 -29458095)
(-2.7341718e+08 -8483221.4 -30814053)
(-2.7828323e+08 -5446011.1 -19832934)
(-2.7919362e+08 -8746993.6 -32501981)
(-2.8043239e+08 -7509608.3 -29523330)
(-2.8728539e+08 -11290304 -16473630)
(-2.8667912e+08 -4739231.6 -15366834)
(-2.8086634e+08 -4114698.6 -34318271)
(-2.8180893e+08 -8071702.8 -33256856)
(-2.8872133e+08 -4813428.6 -16658840)
(-2.8777052e+08 -7075958.8 -19515526)
(-2.7280726e+08 -2761093.7 -30218308)
(-2.7360363e+08 -7243610.8 -29793218)
(-2.7873948e+08 -12889903 -42765648)
(-2.7822881e+08 -16176990 -42648881)
(-3.026692e+08 -9188100.4 -20200006)
(-3.041789e+08 -14891487 -19545219)
(-2.8593147e+08 -7194443.2 -37660615)
(-2.9596195e+08 -6520483.5 -23135115)
(-2.8625348e+08 -10298173 -38026392)
(-2.9569181e+08 -9344524.1 -23027429)
(-2.9862473e+08 -5994168.9 -18118002)
(-2.9054867e+08 -10049618 -35497014)
(-2.8355707e+08 -10765004 -37431653)
(-2.9549707e+08 -13454323 -20601968)
(-3.047362e+08 -8955520.4 -18432721)
(-2.7806255e+08 -14262519 -43378396)
(-2.7583043e+08 -13588782 -43148658)
(-3.0031452e+08 -16684496 -20422495)
(-2.8606404e+08 -26034959 38233281)
(-2.8158379e+08 -53066039 39355951)
(-2.7308094e+08 -27116386 -1133620.5)
(-2.6888483e+08 -52332237 -1215997.2)
(-2.6003457e+08 -25980180 -17782147)
(-2.5765874e+08 -41443642 -18011756)
(-2.5976649e+08 -16375899 -18165659)
(-2.6091567e+08 -31653469 -18031024)
(-2.8141932e+08 -19594548 -20895952)
(-2.2562773e+08 -27572257 -43868873)
(-2.2426794e+08 -32188906 -44918456)
(-2.8300704e+08 -21885465 -20871058)
(-2.8654053e+08 -16981377 -20507470)
(-2.2948168e+08 -19197256 -44191523)
(-2.3011778e+08 -24307033 -43513740)
(-2.8587097e+08 -18419029 -20030231)
(-2.3024267e+08 -27675145 -43980423)
(-2.3138128e+08 -22163762 -43673177)
(-2.8642088e+08 -17170021 -20181922)
(-2.8725639e+08 -18564199 -20172224)
(-2.3135839e+08 -16320404 -42140226)
(-2.3031953e+08 -12258568 -43677646)
(-2.8868189e+08 -13077633 -19831607)
(-2.8648821e+08 -14698306 -18951084)
(-2.7062672e+08 -15333615 -1848041.7)
(-2.61776e+08 -18674715 -18858892)
(-2.6069535e+08 -35658069 -18822967)
(-2.8440469e+08 -14764256 -19845007)
(-2.2882104e+08 -20638151 -43415664)
(-2.2757068e+08 -25817599 -44052188)
(-2.8539788e+08 -16752429 -19692111)
(-2.8720938e+08 -11752970 -19449047)
(-2.2940315e+08 -10958462 -44068459)
(-2.3044983e+08 -16039433 -42621988)
(-2.8583001e+08 -12857388 -18080521)
(-2.735808e+08 -37641976 -3111714.2)
(-2.8281088e+08 -14182748 38118941)
(-2.8506006e+08 -37668059 37259203)
(-2.7926541e+08 -13754446 -23742896)
(-2.787647e+08 -15607926 -25084946)
(-2.7817395e+08 -10539556 -18973417)
(-2.7798638e+08 -10376689 -19878746)
(-2.7499702e+08 -15365849 -26836034)
(-2.7272902e+08 -17343558 -25823993)
(-2.7466542e+08 -12075114 -21162768)
(-2.7259907e+08 -12509726 -20563950)
(-2.6427037e+08 -9780841.6 -18876490)
(-2.5779085e+08 -7853594 -14988960)
(-2.5828853e+08 -7994132 -16283671)
(-2.6524134e+08 -9782338.8 -19605193)
(-2.6874612e+08 -7701677.2 -18645719)
(-2.6155725e+08 -5685412.2 -15851781)
(-2.6201336e+08 -6568913.7 -15186817)
(-2.6924127e+08 -8336972.6 -17924407)
(-2.5608186e+08 -5073769 -11834402)
(-2.5536069e+08 -4189733.9 -13248746)
(-2.4836346e+08 -3289487.3 -12068377)
(-2.4897403e+08 -4170156.3 -11043844)
(-2.5288727e+08 -6260045.3 -12514754)
(-2.5252327e+08 -6237965.7 -11899862)
(-2.4663773e+08 -5315863.1 -10241008)
(-2.4618796e+08 -5517980.1 -11615966)
(-2.3990625e+08 -5160146.1 -10797400)
(-2.4257613e+08 -3907835.1 -10143377)
(-2.4198139e+08 -3053317.2 -11039245)
(-2.3552012e+08 -3303138.9 -10759435)
(-2.3615637e+08 -4103958.1 -10031584)
(-2.5601942e+08 -5521289.2 -13243919)
(-2.5431972e+08 -3462926 -15076780)
(-2.4691097e+08 -3108532.4 -13305382)
(-2.4878605e+08 -4708648 -11462094)
(-2.563626e+08 -4316492.3 -12704862)
(-2.5801623e+08 -3631565.9 -13020184)
(-2.5108504e+08 -2401749 -11218906)
(-2.4928369e+08 -3441537.8 -8319348.7)
(-2.3806833e+08 -2847571.3 -10138513)
(-2.4476572e+08 -2482187.9 -10299288)
(-2.424791e+08 -3470823.6 -9909341.7)
(-2.3525222e+08 -3650304.3 -10676182)
(-2.3291245e+08 -2275752.8 -12373292)
(-2.3973382e+08 -2553994.2 -12623962)
(-2.4225639e+08 -3800276.4 -10764504)
(-2.3585559e+08 -3146482.9 -10727744)
(-2.8129909e+08 -11475621 -23950047)
(-2.7988459e+08 -14957788 -22762873)
(-2.7971512e+08 -9893760.4 -18646562)
(-2.8052958e+08 -8819065.8 -19004889)
(-2.7144633e+08 -7078197.2 -17752864)
(-2.6448879e+08 -4992877 -15308892)
(-2.6306214e+08 -5249278 -15916832)
(-2.7063222e+08 -6762187.1 -18526201)
(-2.7913494e+08 -8119769.7 -19869885)
(-2.8041048e+08 -12136679 -24413618)
(-2.7969232e+08 -11340960 -23089896)
(-2.7910321e+08 -9724689.5 -18910666)
(-2.7006453e+08 -8318043 -18611593)
(-2.7099625e+08 -5466455.6 -19059757)
(-2.6191072e+08 -4172593.4 -17211289)
(-2.6255572e+08 -6924845.7 -15959876)
(-2.7826092e+08 -8564268.1 -22550819)
(-2.7953535e+08 -10436898 -23971642)
(-2.7903167e+08 -6045969.1 -19076831)
(-2.7815783e+08 -5772701.7 -18642432)
(-2.7840111e+08 -10313177 -24567425)
(-2.7707286e+08 -12246486 -23787631)
(-2.7734181e+08 -8255651.4 -19148847)
(-2.7817697e+08 -7714060 -19542120)
(-2.6325748e+08 -4298711.9 -15259330)
(-2.6954384e+08 -6106649.8 -18174184)
(-2.694104e+08 -5903839 -18695681)
(-2.6261334e+08 -4308822.2 -16085828)
(-2.7031482e+08 -4322400.4 -17676490)
(-2.7024474e+08 -3891993.4 -18345677)
(-2.6325491e+08 -2478245.1 -16083890)
(-2.6333875e+08 -3642796.9 -15315658)
(-2.3885589e+08 -1053607 -7156798.5)
(-2.445824e+08 -1346474 -8946059.6)
(-2.4203987e+08 -2275307 -12398848)
(-2.3541678e+08 -2193812.6 -12132241)
(-2.5087147e+08 -1975544.9 -11249340)
(-2.5782246e+08 -2656121.2 -12056339)
(-2.5623653e+08 -3269096.6 -13833943)
(-2.4898124e+08 -2527102.7 -12933360)
(-2.3567657e+08 -1183112.4 -8305596.6)
(-2.4238907e+08 -981474.11 -11744706)
(-2.422497e+08 -2204801.8 -11347977)
(-2.4943076e+08 -1078815.8 -12933160)
(-2.5673727e+08 -1590193.1 -13918480)
(-2.5657514e+08 -2795785.8 -13234252)
(-2.4916273e+08 -2060014.7 -12202387)
(-4.5070561e+08 -54380665 44360929)
(-3.1386457e+08 -28225597 -1009900.5)
(-3.1540632e+08 -36865495 -5891054.4)
(-3.6824585e+08 -19982224 43396712)
(-3.5829517e+08 -48173337 47751014)
(-3.1388974e+08 -18447300 8733581.7)
(-3.1616149e+08 -23277792 27982144)
(-3.2025515e+08 -54842373 29261070)
(-3.151126e+08 -57303300 8035368.9)
(-4.0612571e+08 -27185250 -1032142.9)
(-3.9778389e+08 -27049112 -1306457)
(-3.7674399e+08 -35923098 -13097801)
(-3.7912579e+08 -18026649 -12317275)
(-3.5295956e+08 -20743117 -2086595.9)
(-3.8628774e+08 -21629918 1163904)
(-3.4437411e+08 -16801461 -2508049.8)
(-3.8227567e+08 -7695057.5 1896726.4)
(-3.7128573e+08 -9120217.7 1560666.6)
(-2.9972999e+08 -12229041 -2265874.4)
(-2.2724243e+08 -10043789 -2378372.2)
(-3.4818384e+08 -8062062.6 4285866.8)
(-3.6155033e+08 -73135302 6028220)
(-3.6685739e+08 -67155156 5228303.9)
(-3.843734e+08 -61994403 10514830)
(-3.7696131e+08 -65651550 11179525)
(-4.0524388e+08 -57942499 8634510.3)
(-3.9883913e+08 -60386640 8970327.8)
(-3.1174092e+08 -53901513 19559456)
(-3.5304001e+08 -60310039 17773957)
(-3.7040706e+08 -51026434 12887715)
(-3.6021003e+08 -42839653 13732219)
(-3.5707458e+08 -47768944 14616742)
(-3.7130971e+08 -44834442 13091513)
(-3.7621246e+08 -49373030 11127723)
(-3.7899718e+08 -44783216 10467775)
(-4.0919613e+08 -42757819 8386065.8)
(-3.5790711e+08 -22091860 39735078)
(-3.5073295e+08 -31505021 47348939)
(-3.6079898e+08 -21898024 -8303252.6)
(-3.6565013e+08 -35068176 -13987018)
(-4.0328935e+08 -46209980 9844905.2)
(-3.4772111e+08 -36238388 45761779)
(-3.5613e+08 -28178236 -8836350.1)
(-3.5571583e+08 -39882056 -11876683)
(-3.4962299e+08 -26520122 42001090)
(-3.8095816e+08 -33097777 10321929)
(-3.3364638e+08 -29479292 15476080)
(-3.5303972e+08 -33708762 15879114)
(-3.7441513e+08 -32975134 8558227.1)
(-3.846555e+08 -17653634 9633640)
(-3.4515142e+08 -17407933 14739116)
(-3.5184551e+08 -25200740 15695607)
(-3.7721467e+08 -29061888 8004388.7)
(-3.7285851e+08 -31665712 -433299.75)
(-3.7130744e+08 -37117759 -646629.32)
(-3.9723457e+08 -35235193 -4089253.8)
(-3.7526987e+08 -15267495 6027506.6)
(-3.3878406e+08 -26318995 58996087)
(-3.3682409e+08 -16871886 56821731)
(-3.7062778e+08 -27618229 5423756.4)
(-3.6786092e+08 -20011001 15079715)
(-3.7623817e+08 -19002903 8630275)
(-3.9931126e+08 -30797720 -4576641.4)
(-3.7540013e+08 -10798958 6168775.4)
(-3.3506643e+08 -21965894 59875812)
(-3.3882751e+08 -13075564 56786016)
(-3.7306637e+08 -22903471 4372913.3)
(-3.7768698e+08 -14597652 10257304)
(-3.7132399e+08 -15138925 12397781)
(-3.6318754e+08 -5936359 8710342.7)
(-3.2450211e+08 -7290830.9 13041214)
(-3.6870615e+08 -19195782 11258688)
(-3.8766331e+08 -24739174 3241383.3)
(-3.5205417e+08 -2366724 8312551.7)
(-3.243917e+08 -4606334.2 11749289)
(-3.6067461e+08 -14800557 11963496)
(-3.8475882e+08 -18856417 4714940.2)
(-2.8024558e+08 -2725134.6 14108698)
(-3.6265548e+08 -13243567 9107663.1)
(-2.7241945e+08 1158078.9 15235273)
(-3.543302e+08 -8166199.1 11040414)
(-3.0403382e+08 4000754.6 10333784)
(-2.3835149e+08 -1560570.6 12048389)
(-3.0192945e+08 9425931.9 10959684)
(-2.2281244e+08 1498114.1 14155335)
(-3.0673963e+08 -7119971.5 15318157)
(-3.0783439e+08 -10829453 15925944)
(-3.0865439e+08 -4862699.5 -16479702)
(-3.0863565e+08 -14031417 -18153746)
(-2.5629333e+08 -7775904.6 -12125898)
(-2.5701252e+08 -6300358.8 -10735429)
(-2.5653181e+08 -6994622.5 -11549130)
(-2.5774866e+08 -8617493.7 -12170521)
(-3.0573913e+08 -9545521.8 17294217)